# vtk DataFile Version 2.0
sampleSurface
ASCII
DATASET POLYDATA
POINTS 502 double
-0.0206 0 -0.0005
-0.0190172 0 -0.0005
-0.0190172 0 0.0005
-0.0206 0 0.0005
-0.0174976 0 -0.0005
-0.0174976 0 0.0005
-0.0160387 0 -0.0005
-0.0160387 0 0.0005
-0.0146381 0 -0.0005
-0.0146381 0 0.0005
-0.0132934 0 -0.0005
-0.0132934 0 0.0005
-0.0120025 0 -0.0005
-0.0120025 0 0.0005
-0.0107632 0 -0.0005
-0.0107632 0 0.0005
-0.00957337 0 -0.0005
-0.00957337 0 0.0005
-0.00843108 0 -0.0005
-0.00843108 0 0.0005
-0.00733443 0 -0.0005
-0.00733443 0 0.0005
-0.0062816 0 -0.0005
-0.0062816 0 0.0005
-0.00527083 0 -0.0005
-0.00527083 0 0.0005
-0.00430044 0 -0.0005
-0.00430044 0 0.0005
-0.00336883 0 -0.0005
-0.00336883 0 0.0005
-0.00247443 0 -0.0005
-0.00247443 0 0.0005
-0.00161577 0 -0.0005
-0.00161577 0 0.0005
-0.000791418 0 -0.0005
-0.000791418 0 0.0005
0 0 -0.0005
0 0 0.0005
0 -0.0254 -0.0005
0 -0.0254 0.0005
0 -0.0242711 0.0005
0 -0.0242711 -0.0005
0 -0.0231422 0.0005
0 -0.0231422 -0.0005
0 -0.0220133 0.0005
0 -0.0220133 -0.0005
0 -0.0208844 0.0005
0 -0.0208844 -0.0005
0 -0.0197556 0.0005
0 -0.0197556 -0.0005
0 -0.0186267 0.0005
0 -0.0186267 -0.0005
0 -0.0174978 0.0005
0 -0.0174978 -0.0005
0 -0.0163689 0.0005
0 -0.0163689 -0.0005
0 -0.01524 0.0005
0 -0.01524 -0.0005
0 -0.0141111 0.0005
0 -0.0141111 -0.0005
0 -0.0129822 0.0005
0 -0.0129822 -0.0005
0 -0.0118533 0.0005
0 -0.0118533 -0.0005
0 -0.0107244 0.0005
0 -0.0107244 -0.0005
0 -0.00959556 0.0005
0 -0.00959556 -0.0005
0 -0.00846667 0.0005
0 -0.00846667 -0.0005
0 -0.00726604 0.0005
0 -0.00726604 -0.0005
0 -0.00618989 0.0005
0 -0.00618989 -0.0005
0 -0.00522531 0.0005
0 -0.00522531 -0.0005
0 -0.00436073 0.0005
0 -0.00436073 -0.0005
0 -0.00358579 0.0005
0 -0.00358579 -0.0005
0 -0.00289118 0.0005
0 -0.00289118 -0.0005
0 -0.0022686 0.0005
0 -0.0022686 -0.0005
0 -0.00171055 0.0005
0 -0.00171055 -0.0005
0 -0.00121037 0.0005
0 -0.00121037 -0.0005
0 -0.000762037 0.0005
0 -0.000762037 -0.0005
0 -0.000360188 0.0005
0 -0.000360188 -0.0005
0.000528387 -0.0254 -0.0005
0.000528387 -0.0254 0.0005
0.00106088 -0.0254 -0.0005
0.00106088 -0.0254 0.0005
0.00159752 -0.0254 -0.0005
0.00159752 -0.0254 0.0005
0.00213833 -0.0254 -0.0005
0.00213833 -0.0254 0.0005
0.00268334 -0.0254 -0.0005
0.00268334 -0.0254 0.0005
0.00323259 -0.0254 -0.0005
0.00323259 -0.0254 0.0005
0.00378611 -0.0254 -0.0005
0.00378611 -0.0254 0.0005
0.00434393 -0.0254 -0.0005
0.00434393 -0.0254 0.0005
0.00490609 -0.0254 -0.0005
0.00490609 -0.0254 0.0005
0.00547262 -0.0254 -0.0005
0.00547262 -0.0254 0.0005
0.00604356 -0.0254 -0.0005
0.00604356 -0.0254 0.0005
0.00661893 -0.0254 -0.0005
0.00661893 -0.0254 0.0005
0.00719878 -0.0254 -0.0005
0.00719878 -0.0254 0.0005
0.00778313 -0.0254 -0.0005
0.00778313 -0.0254 0.0005
0.00837203 -0.0254 -0.0005
0.00837203 -0.0254 0.0005
0.00896551 -0.0254 -0.0005
0.00896551 -0.0254 0.0005
0.0095636 -0.0254 -0.0005
0.0095636 -0.0254 0.0005
0.0101663 -0.0254 -0.0005
0.0101663 -0.0254 0.0005
0.0107738 -0.0254 -0.0005
0.0107738 -0.0254 0.0005
0.0113859 -0.0254 -0.0005
0.0113859 -0.0254 0.0005
0.0120028 -0.0254 -0.0005
0.0120028 -0.0254 0.0005
0.0126245 -0.0254 -0.0005
0.0126245 -0.0254 0.0005
0.0132511 -0.0254 -0.0005
0.0132511 -0.0254 0.0005
0.0138825 -0.0254 -0.0005
0.0138825 -0.0254 0.0005
0.0145188 -0.0254 -0.0005
0.0145188 -0.0254 0.0005
0.0151601 -0.0254 -0.0005
0.0151601 -0.0254 0.0005
0.0158063 -0.0254 -0.0005
0.0158063 -0.0254 0.0005
0.0164576 -0.0254 -0.0005
0.0164576 -0.0254 0.0005
0.0171139 -0.0254 -0.0005
0.0171139 -0.0254 0.0005
0.0177754 -0.0254 -0.0005
0.0177754 -0.0254 0.0005
0.018442 -0.0254 -0.0005
0.018442 -0.0254 0.0005
0.0191137 -0.0254 -0.0005
0.0191137 -0.0254 0.0005
0.0197907 -0.0254 -0.0005
0.0197907 -0.0254 0.0005
0.020473 -0.0254 -0.0005
0.020473 -0.0254 0.0005
0.0211606 -0.0254 -0.0005
0.0211606 -0.0254 0.0005
0.0218535 -0.0254 -0.0005
0.0218535 -0.0254 0.0005
0.0225517 -0.0254 -0.0005
0.0225517 -0.0254 0.0005
0.0232555 -0.0254 -0.0005
0.0232555 -0.0254 0.0005
0.0239647 -0.0254 -0.0005
0.0239647 -0.0254 0.0005
0.0246794 -0.0254 -0.0005
0.0246794 -0.0254 0.0005
0.0253996 -0.0254 -0.0005
0.0253996 -0.0254 0.0005
0.0261255 -0.0254 -0.0005
0.0261255 -0.0254 0.0005
0.026857 -0.0254 -0.0005
0.026857 -0.0254 0.0005
0.0275942 -0.0254 -0.0005
0.0275942 -0.0254 0.0005
0.0283371 -0.0254 -0.0005
0.0283371 -0.0254 0.0005
0.0290858 -0.0254 -0.0005
0.0290858 -0.0254 0.0005
0.0298403 -0.0254 -0.0005
0.0298403 -0.0254 0.0005
0.0306007 -0.0254 -0.0005
0.0306007 -0.0254 0.0005
0.031367 -0.0254 -0.0005
0.031367 -0.0254 0.0005
0.0321393 -0.0254 -0.0005
0.0321393 -0.0254 0.0005
0.0329175 -0.0254 -0.0005
0.0329175 -0.0254 0.0005
0.0337019 -0.0254 -0.0005
0.0337019 -0.0254 0.0005
0.0344923 -0.0254 -0.0005
0.0344923 -0.0254 0.0005
0.0352888 -0.0254 -0.0005
0.0352888 -0.0254 0.0005
0.0360916 -0.0254 -0.0005
0.0360916 -0.0254 0.0005
0.0369006 -0.0254 -0.0005
0.0369006 -0.0254 0.0005
0.0377158 -0.0254 -0.0005
0.0377158 -0.0254 0.0005
0.0385375 -0.0254 -0.0005
0.0385375 -0.0254 0.0005
0.0393655 -0.0254 -0.0005
0.0393655 -0.0254 0.0005
0.0401999 -0.0254 -0.0005
0.0401999 -0.0254 0.0005
0.0410408 -0.0254 -0.0005
0.0410408 -0.0254 0.0005
0.0418883 -0.0254 -0.0005
0.0418883 -0.0254 0.0005
0.0427424 -0.0254 -0.0005
0.0427424 -0.0254 0.0005
0.0436031 -0.0254 -0.0005
0.0436031 -0.0254 0.0005
0.0444704 -0.0254 -0.0005
0.0444704 -0.0254 0.0005
0.0453446 -0.0254 -0.0005
0.0453446 -0.0254 0.0005
0.0462255 -0.0254 -0.0005
0.0462255 -0.0254 0.0005
0.0471133 -0.0254 -0.0005
0.0471133 -0.0254 0.0005
0.048008 -0.0254 -0.0005
0.048008 -0.0254 0.0005
0.0489096 -0.0254 -0.0005
0.0489096 -0.0254 0.0005
0.0498183 -0.0254 -0.0005
0.0498183 -0.0254 0.0005
0.050734 -0.0254 -0.0005
0.050734 -0.0254 0.0005
0.0516568 -0.0254 -0.0005
0.0516568 -0.0254 0.0005
0.0525868 -0.0254 -0.0005
0.0525868 -0.0254 0.0005
0.053524 -0.0254 -0.0005
0.053524 -0.0254 0.0005
0.0544686 -0.0254 -0.0005
0.0544686 -0.0254 0.0005
0.0554204 -0.0254 -0.0005
0.0554204 -0.0254 0.0005
0.0563797 -0.0254 -0.0005
0.0563797 -0.0254 0.0005
0.0573464 -0.0254 -0.0005
0.0573464 -0.0254 0.0005
0.0583206 -0.0254 -0.0005
0.0583206 -0.0254 0.0005
0.0593025 -0.0254 -0.0005
0.0593025 -0.0254 0.0005
0.0602919 -0.0254 -0.0005
0.0602919 -0.0254 0.0005
0.0612891 -0.0254 -0.0005
0.0612891 -0.0254 0.0005
0.0622939 -0.0254 -0.0005
0.0622939 -0.0254 0.0005
0.0633067 -0.0254 -0.0005
0.0633067 -0.0254 0.0005
0.0643272 -0.0254 -0.0005
0.0643272 -0.0254 0.0005
0.0653557 -0.0254 -0.0005
0.0653557 -0.0254 0.0005
0.0663923 -0.0254 -0.0005
0.0663923 -0.0254 0.0005
0.0674368 -0.0254 -0.0005
0.0674368 -0.0254 0.0005
0.0684895 -0.0254 -0.0005
0.0684895 -0.0254 0.0005
0.0695504 -0.0254 -0.0005
0.0695504 -0.0254 0.0005
0.0706195 -0.0254 -0.0005
0.0706195 -0.0254 0.0005
0.0716969 -0.0254 -0.0005
0.0716969 -0.0254 0.0005
0.0727828 -0.0254 -0.0005
0.0727828 -0.0254 0.0005
0.073877 -0.0254 -0.0005
0.073877 -0.0254 0.0005
0.0749798 -0.0254 -0.0005
0.0749798 -0.0254 0.0005
0.0760911 -0.0254 -0.0005
0.0760911 -0.0254 0.0005
0.0772111 -0.0254 -0.0005
0.0772111 -0.0254 0.0005
0.0783398 -0.0254 -0.0005
0.0783398 -0.0254 0.0005
0.0794772 -0.0254 -0.0005
0.0794772 -0.0254 0.0005
0.0806235 -0.0254 -0.0005
0.0806235 -0.0254 0.0005
0.0817787 -0.0254 -0.0005
0.0817787 -0.0254 0.0005
0.0829429 -0.0254 -0.0005
0.0829429 -0.0254 0.0005
0.0841162 -0.0254 -0.0005
0.0841162 -0.0254 0.0005
0.0852985 -0.0254 -0.0005
0.0852985 -0.0254 0.0005
0.0864901 -0.0254 -0.0005
0.0864901 -0.0254 0.0005
0.0876909 -0.0254 -0.0005
0.0876909 -0.0254 0.0005
0.0889011 -0.0254 -0.0005
0.0889011 -0.0254 0.0005
0.0901207 -0.0254 -0.0005
0.0901207 -0.0254 0.0005
0.0913497 -0.0254 -0.0005
0.0913497 -0.0254 0.0005
0.0925883 -0.0254 -0.0005
0.0925883 -0.0254 0.0005
0.0938366 -0.0254 -0.0005
0.0938366 -0.0254 0.0005
0.0950945 -0.0254 -0.0005
0.0950945 -0.0254 0.0005
0.0963622 -0.0254 -0.0005
0.0963622 -0.0254 0.0005
0.0976398 -0.0254 -0.0005
0.0976398 -0.0254 0.0005
0.0989273 -0.0254 -0.0005
0.0989273 -0.0254 0.0005
0.100225 -0.0254 -0.0005
0.100225 -0.0254 0.0005
0.101532 -0.0254 -0.0005
0.101532 -0.0254 0.0005
0.10285 -0.0254 -0.0005
0.10285 -0.0254 0.0005
0.104178 -0.0254 -0.0005
0.104178 -0.0254 0.0005
0.105517 -0.0254 -0.0005
0.105517 -0.0254 0.0005
0.106865 -0.0254 -0.0005
0.106865 -0.0254 0.0005
0.108225 -0.0254 -0.0005
0.108225 -0.0254 0.0005
0.109594 -0.0254 -0.0005
0.109594 -0.0254 0.0005
0.110975 -0.0254 -0.0005
0.110975 -0.0254 0.0005
0.112366 -0.0254 -0.0005
0.112366 -0.0254 0.0005
0.113768 -0.0254 -0.0005
0.113768 -0.0254 0.0005
0.115181 -0.0254 -0.0005
0.115181 -0.0254 0.0005
0.116605 -0.0254 -0.0005
0.116605 -0.0254 0.0005
0.11804 -0.0254 -0.0005
0.11804 -0.0254 0.0005
0.119486 -0.0254 -0.0005
0.119486 -0.0254 0.0005
0.120943 -0.0254 -0.0005
0.120943 -0.0254 0.0005
0.122412 -0.0254 -0.0005
0.122412 -0.0254 0.0005
0.123892 -0.0254 -0.0005
0.123892 -0.0254 0.0005
0.125384 -0.0254 -0.0005
0.125384 -0.0254 0.0005
0.126887 -0.0254 -0.0005
0.126887 -0.0254 0.0005
0.128402 -0.0254 -0.0005
0.128402 -0.0254 0.0005
0.129928 -0.0254 -0.0005
0.129928 -0.0254 0.0005
0.131467 -0.0254 -0.0005
0.131467 -0.0254 0.0005
0.133017 -0.0254 -0.0005
0.133017 -0.0254 0.0005
0.13458 -0.0254 -0.0005
0.13458 -0.0254 0.0005
0.136155 -0.0254 -0.0005
0.136155 -0.0254 0.0005
0.137742 -0.0254 -0.0005
0.137742 -0.0254 0.0005
0.139341 -0.0254 -0.0005
0.139341 -0.0254 0.0005
0.140953 -0.0254 -0.0005
0.140953 -0.0254 0.0005
0.142577 -0.0254 -0.0005
0.142577 -0.0254 0.0005
0.144214 -0.0254 -0.0005
0.144214 -0.0254 0.0005
0.145863 -0.0254 -0.0005
0.145863 -0.0254 0.0005
0.147526 -0.0254 -0.0005
0.147526 -0.0254 0.0005
0.149201 -0.0254 -0.0005
0.149201 -0.0254 0.0005
0.15089 -0.0254 -0.0005
0.15089 -0.0254 0.0005
0.152591 -0.0254 -0.0005
0.152591 -0.0254 0.0005
0.154306 -0.0254 -0.0005
0.154306 -0.0254 0.0005
0.156034 -0.0254 -0.0005
0.156034 -0.0254 0.0005
0.157775 -0.0254 -0.0005
0.157775 -0.0254 0.0005
0.159531 -0.0254 -0.0005
0.159531 -0.0254 0.0005
0.161299 -0.0254 -0.0005
0.161299 -0.0254 0.0005
0.163082 -0.0254 -0.0005
0.163082 -0.0254 0.0005
0.164878 -0.0254 -0.0005
0.164878 -0.0254 0.0005
0.166688 -0.0254 -0.0005
0.166688 -0.0254 0.0005
0.168513 -0.0254 -0.0005
0.168513 -0.0254 0.0005
0.170351 -0.0254 -0.0005
0.170351 -0.0254 0.0005
0.172204 -0.0254 -0.0005
0.172204 -0.0254 0.0005
0.174071 -0.0254 -0.0005
0.174071 -0.0254 0.0005
0.175953 -0.0254 -0.0005
0.175953 -0.0254 0.0005
0.177849 -0.0254 -0.0005
0.177849 -0.0254 0.0005
0.17976 -0.0254 -0.0005
0.17976 -0.0254 0.0005
0.181686 -0.0254 -0.0005
0.181686 -0.0254 0.0005
0.183627 -0.0254 -0.0005
0.183627 -0.0254 0.0005
0.185583 -0.0254 -0.0005
0.185583 -0.0254 0.0005
0.187555 -0.0254 -0.0005
0.187555 -0.0254 0.0005
0.189541 -0.0254 -0.0005
0.189541 -0.0254 0.0005
0.191543 -0.0254 -0.0005
0.191543 -0.0254 0.0005
0.193561 -0.0254 -0.0005
0.193561 -0.0254 0.0005
0.195594 -0.0254 -0.0005
0.195594 -0.0254 0.0005
0.197643 -0.0254 -0.0005
0.197643 -0.0254 0.0005
0.199708 -0.0254 -0.0005
0.199708 -0.0254 0.0005
0.201789 -0.0254 -0.0005
0.201789 -0.0254 0.0005
0.203886 -0.0254 -0.0005
0.203886 -0.0254 0.0005
0.206 -0.0254 -0.0005
0.206 -0.0254 0.0005
0.208047 -0.0251856 -0.0005
0.208047 -0.0251856 0.0005
0.210173 -0.0249628 -0.0005
0.210173 -0.0249628 0.0005
0.212382 -0.0247314 -0.0005
0.212382 -0.0247314 0.0005
0.214677 -0.024491 -0.0005
0.214677 -0.024491 0.0005
0.217061 -0.0242412 -0.0005
0.217061 -0.0242412 0.0005
0.219538 -0.0239817 -0.0005
0.219538 -0.0239817 0.0005
0.222112 -0.0237121 -0.0005
0.222112 -0.0237121 0.0005
0.224785 -0.023432 -0.0005
0.224785 -0.023432 0.0005
0.227563 -0.023141 -0.0005
0.227563 -0.023141 0.0005
0.230449 -0.0228387 -0.0005
0.230449 -0.0228387 0.0005
0.233447 -0.0225246 -0.0005
0.233447 -0.0225246 0.0005
0.236562 -0.0221983 -0.0005
0.236562 -0.0221983 0.0005
0.239797 -0.0218593 -0.0005
0.239797 -0.0218593 0.0005
0.243159 -0.0215071 -0.0005
0.243159 -0.0215071 0.0005
0.246652 -0.0211412 -0.0005
0.246652 -0.0211412 0.0005
0.250281 -0.0207611 -0.0005
0.250281 -0.0207611 0.0005
0.254051 -0.0203661 -0.0005
0.254051 -0.0203661 0.0005
0.257967 -0.0199558 -0.0005
0.257967 -0.0199558 0.0005
0.262036 -0.0195295 -0.0005
0.262036 -0.0195295 0.0005
0.266264 -0.0190867 -0.0005
0.266264 -0.0190867 0.0005
0.270655 -0.0186266 -0.0005
0.270655 -0.0186266 0.0005
0.275218 -0.0181486 -0.0005
0.275218 -0.0181486 0.0005
0.279959 -0.017652 -0.0005
0.279959 -0.017652 0.0005
0.284883 -0.017136 -0.0005
0.284883 -0.017136 0.0005
0.29 -0.0166 -0.0005
0.29 -0.0166 0.0005

POLYGONS 250 1250
4 0 1 2 3
4 1 4 5 2
4 4 6 7 5
4 6 8 9 7
4 8 10 11 9
4 10 12 13 11
4 12 14 15 13
4 14 16 17 15
4 16 18 19 17
4 18 20 21 19
4 20 22 23 21
4 22 24 25 23
4 24 26 27 25
4 26 28 29 27
4 28 30 31 29
4 30 32 33 31
4 32 34 35 33
4 34 36 37 35
4 38 39 40 41
4 41 40 42 43
4 43 42 44 45
4 45 44 46 47
4 47 46 48 49
4 49 48 50 51
4 51 50 52 53
4 53 52 54 55
4 55 54 56 57
4 57 56 58 59
4 59 58 60 61
4 61 60 62 63
4 63 62 64 65
4 65 64 66 67
4 67 66 68 69
4 69 68 70 71
4 71 70 72 73
4 73 72 74 75
4 75 74 76 77
4 77 76 78 79
4 79 78 80 81
4 81 80 82 83
4 83 82 84 85
4 85 84 86 87
4 87 86 88 89
4 89 88 90 91
4 91 90 37 36
4 38 92 93 39
4 92 94 95 93
4 94 96 97 95
4 96 98 99 97
4 98 100 101 99
4 100 102 103 101
4 102 104 105 103
4 104 106 107 105
4 106 108 109 107
4 108 110 111 109
4 110 112 113 111
4 112 114 115 113
4 114 116 117 115
4 116 118 119 117
4 118 120 121 119
4 120 122 123 121
4 122 124 125 123
4 124 126 127 125
4 126 128 129 127
4 128 130 131 129
4 130 132 133 131
4 132 134 135 133
4 134 136 137 135
4 136 138 139 137
4 138 140 141 139
4 140 142 143 141
4 142 144 145 143
4 144 146 147 145
4 146 148 149 147
4 148 150 151 149
4 150 152 153 151
4 152 154 155 153
4 154 156 157 155
4 156 158 159 157
4 158 160 161 159
4 160 162 163 161
4 162 164 165 163
4 164 166 167 165
4 166 168 169 167
4 168 170 171 169
4 170 172 173 171
4 172 174 175 173
4 174 176 177 175
4 176 178 179 177
4 178 180 181 179
4 180 182 183 181
4 182 184 185 183
4 184 186 187 185
4 186 188 189 187
4 188 190 191 189
4 190 192 193 191
4 192 194 195 193
4 194 196 197 195
4 196 198 199 197
4 198 200 201 199
4 200 202 203 201
4 202 204 205 203
4 204 206 207 205
4 206 208 209 207
4 208 210 211 209
4 210 212 213 211
4 212 214 215 213
4 214 216 217 215
4 216 218 219 217
4 218 220 221 219
4 220 222 223 221
4 222 224 225 223
4 224 226 227 225
4 226 228 229 227
4 228 230 231 229
4 230 232 233 231
4 232 234 235 233
4 234 236 237 235
4 236 238 239 237
4 238 240 241 239
4 240 242 243 241
4 242 244 245 243
4 244 246 247 245
4 246 248 249 247
4 248 250 251 249
4 250 252 253 251
4 252 254 255 253
4 254 256 257 255
4 256 258 259 257
4 258 260 261 259
4 260 262 263 261
4 262 264 265 263
4 264 266 267 265
4 266 268 269 267
4 268 270 271 269
4 270 272 273 271
4 272 274 275 273
4 274 276 277 275
4 276 278 279 277
4 278 280 281 279
4 280 282 283 281
4 282 284 285 283
4 284 286 287 285
4 286 288 289 287
4 288 290 291 289
4 290 292 293 291
4 292 294 295 293
4 294 296 297 295
4 296 298 299 297
4 298 300 301 299
4 300 302 303 301
4 302 304 305 303
4 304 306 307 305
4 306 308 309 307
4 308 310 311 309
4 310 312 313 311
4 312 314 315 313
4 314 316 317 315
4 316 318 319 317
4 318 320 321 319
4 320 322 323 321
4 322 324 325 323
4 324 326 327 325
4 326 328 329 327
4 328 330 331 329
4 330 332 333 331
4 332 334 335 333
4 334 336 337 335
4 336 338 339 337
4 338 340 341 339
4 340 342 343 341
4 342 344 345 343
4 344 346 347 345
4 346 348 349 347
4 348 350 351 349
4 350 352 353 351
4 352 354 355 353
4 354 356 357 355
4 356 358 359 357
4 358 360 361 359
4 360 362 363 361
4 362 364 365 363
4 364 366 367 365
4 366 368 369 367
4 368 370 371 369
4 370 372 373 371
4 372 374 375 373
4 374 376 377 375
4 376 378 379 377
4 378 380 381 379
4 380 382 383 381
4 382 384 385 383
4 384 386 387 385
4 386 388 389 387
4 388 390 391 389
4 390 392 393 391
4 392 394 395 393
4 394 396 397 395
4 396 398 399 397
4 398 400 401 399
4 400 402 403 401
4 402 404 405 403
4 404 406 407 405
4 406 408 409 407
4 408 410 411 409
4 410 412 413 411
4 412 414 415 413
4 414 416 417 415
4 416 418 419 417
4 418 420 421 419
4 420 422 423 421
4 422 424 425 423
4 424 426 427 425
4 426 428 429 427
4 428 430 431 429
4 430 432 433 431
4 432 434 435 433
4 434 436 437 435
4 436 438 439 437
4 438 440 441 439
4 440 442 443 441
4 442 444 445 443
4 444 446 447 445
4 446 448 449 447
4 448 450 451 449
4 450 452 453 451
4 452 454 455 453
4 454 456 457 455
4 456 458 459 457
4 458 460 461 459
4 460 462 463 461
4 462 464 465 463
4 464 466 467 465
4 466 468 469 467
4 468 470 471 469
4 470 472 473 471
4 472 474 475 473
4 474 476 477 475
4 476 478 479 477
4 478 480 481 479
4 480 482 483 481
4 482 484 485 483
4 484 486 487 485
4 486 488 489 487
4 488 490 491 489
4 490 492 493 491
4 492 494 495 493
4 494 496 497 495
4 496 498 499 497
4 498 500 501 499
POINT_DATA 502
FIELD attributes 1
U 3 502 float
1.66655 0.113579 0.0125206
0.83471 0.0562687 0.00617017
0.83471 0.0562687 0.00617017
1.66655 0.113579 0.0125206
0.0250972 0.000571087 0
0.0250972 0.000571087 0
0.0224153 0.00054493 0
0.0224153 0.00054493 0
0.0198558 0.00049345 0
0.0198558 0.00049345 0
0.0175381 0.000417949 0
0.0175381 0.000417949 0
0.0155189 0.000369187 0
0.0155189 0.000369187 0
0.0136647 0.000350367 0
0.0136647 0.000350367 0
0.0119072 0.000320076 0
0.0119072 0.000320076 0
0.0103062 0.00025758 0
0.0103062 0.00025758 0
0.00892833 0.000181864 0
0.00892833 0.000181864 0
0.00779107 0.000117954 0
0.00779107 0.000117954 0
0.00686311 7.56852e-05 0
0.00686311 7.56852e-05 0
0.00611295 5.03963e-05 0
0.00611295 5.03963e-05 0
0.00547864 3.50426e-05 0
0.00547864 3.50426e-05 0
0.00494755 2.36746e-05 0
0.00494755 2.36746e-05 0
0.00446573 1.83033e-05 0
0.00446573 1.83033e-05 0
0.00398497 2.60432e-06 0
0.00398497 2.60432e-06 0
0.00180633 0.000153097 0
0.00180633 0.000153097 0
3.60644e-05 -9.65158e-05 -2.60385e-23
3.60644e-05 -9.65158e-05 -2.60385e-23
5.7922e-05 -0.000365212 7.04184e-23
5.7922e-05 -0.000365212 7.04184e-23
5.67308e-05 -0.000732014 8.34411e-23
5.67308e-05 -0.000732014 8.34411e-23
8.50733e-06 -0.000778987 -1.66889e-22
8.50733e-06 -0.000778987 -1.66889e-22
-3.21957e-05 -0.000593994 -5.56229e-23
-3.21957e-05 -0.000593994 -5.56229e-23
-5.32809e-05 -0.00026947 1.11269e-22
-5.32809e-05 -0.00026947 1.11269e-22
-5.61199e-05 0.000114559 0
-5.61199e-05 0.000114559 0
-4.49316e-05 0.000480873 2.23013e-22
-4.49316e-05 0.000480873 2.23013e-22
-2.41386e-05 0.000783611 1.755e-26
-2.41386e-05 0.000783611 1.755e-26
3.67461e-06 0.000985587 -2.22995e-22
3.67461e-06 0.000985587 -2.22995e-22
3.65069e-05 0.00105968 2.24091e-22
3.65069e-05 0.00105968 2.24091e-22
7.03469e-05 0.000984055 -6.99634e-27
7.03469e-05 0.000984055 -6.99634e-27
9.68547e-05 0.000746503 -2.24098e-22
9.68547e-05 0.000746503 -2.24098e-22
8.7504e-05 0.00035627 -2.258e-22
8.7504e-05 0.00035627 -2.258e-22
6.35654e-06 -7.03729e-05 3.78699e-27
6.35654e-06 -7.03729e-05 3.78699e-27
-8.96655e-05 -0.000308015 2.29806e-22
-8.96655e-05 -0.000308015 2.29806e-22
-0.000124928 -0.00023347 0
-0.000124928 -0.00023347 0
-0.000108632 1.65431e-05 0
-0.000108632 1.65431e-05 0
5.21504e-05 -1.5107e-05 0
5.21504e-05 -1.5107e-05 0
0.000308088 -0.000830745 0
0.000308088 -0.000830745 0
0.000342845 -0.0018881 0
0.000342845 -0.0018881 0
0.00012809 -0.00231563 0
0.00012809 -0.00231563 0
-0.000110232 -0.00215258 0
-0.000110232 -0.00215258 0
-0.000291646 -0.00165484 0
-0.000291646 -0.00165484 0
-0.000404062 -0.00096672 0
-0.000404062 -0.00096672 0
-0.000305158 -0.000241933 0
-0.000305158 -0.000241933 0
2.5441e-06 0.00020205 0
2.5441e-06 0.00020205 0
9.24427e-05 -0.00012669 -1.11108e-25
9.24427e-05 -0.00012669 -1.11108e-25
0.00021694 -0.000163165 1.29413e-23
0.00021694 -0.000163165 1.29413e-23
0.000350908 -0.000168978 0
0.000350908 -0.000168978 0
0.000481642 -0.000166654 0
0.000481642 -0.000166654 0
0.000610596 -0.000162943 -1.25652e-23
0.000610596 -0.000162943 -1.25652e-23
0.000738148 -0.000159534 -1.25878e-23
0.000738148 -0.000159534 -1.25878e-23
0.000864466 -0.000156465 0
0.000864466 -0.000156465 0
0.000989571 -0.000153282 0
0.000989571 -0.000153282 0
0.00111306 -0.000149415 0
0.00111306 -0.000149415 0
0.00123397 -0.000144312 1.21552e-23
0.00123397 -0.000144312 1.21552e-23
0.00135084 -0.000137493 1.21784e-23
0.00135084 -0.000137493 1.21784e-23
0.00146176 -0.000128576 0
0.00146176 -0.000128576 0
0.00156446 -0.000117396 0
0.00156446 -0.000117396 0
0.00165649 -0.000104126 0
0.00165649 -0.000104126 0
0.00173545 -8.92904e-05 1.17745e-23
0.00173545 -8.92904e-05 1.17745e-23
0.00179868 -7.35076e-05 1.17983e-23
0.00179868 -7.35076e-05 1.17983e-23
0.00184355 -5.6694e-05 0
0.00184355 -5.6694e-05 0
0.00186677 -3.92999e-05 0
0.00186677 -3.92999e-05 0
0.00186386 -2.6127e-05 0
0.00186386 -2.6127e-05 0
0.00183244 -2.45647e-05 0
0.00183244 -2.45647e-05 0
0.00177296 -3.83068e-05 0
0.00177296 -3.83068e-05 0
0.00168474 -6.28336e-05 0
0.00168474 -6.28336e-05 0
0.00156296 -8.27677e-05 1.11404e-23
0.00156296 -8.27677e-05 1.11404e-23
0.00139586 -7.38137e-05 1.05308e-25
0.00139586 -7.38137e-05 1.05308e-25
0.00116331 -1.25124e-05 -1.04101e-25
0.00116331 -1.25124e-05 -1.04101e-25
0.000841583 0.00010994 2.19065e-23
0.000841583 0.00010994 2.19065e-23
0.000420608 0.000274289 1.09263e-23
0.000420608 0.000274289 1.09263e-23
-8.54984e-05 0.000427263 0
-8.54984e-05 0.000427263 0
-0.000648924 0.000520251 -1.06534e-23
-0.000648924 0.000520251 -1.06534e-23
-0.00123651 0.000553787 -2.12572e-23
-0.00123651 0.000553787 -2.12572e-23
-0.00182085 0.000554898 -1.06038e-23
-0.00182085 0.000554898 -1.06038e-23
-0.00239034 0.000541842 0
-0.00239034 0.000541842 0
-0.00294094 0.000521816 -1.0405e-23
-0.00294094 0.000521816 -1.0405e-23
-0.00346959 0.000497587 -1.04306e-23
-0.00346959 0.000497587 -1.04306e-23
-0.00397446 0.000470906 0
-0.00397446 0.000470906 0
-0.00445433 0.000442811 1.02824e-23
-0.00445433 0.000442811 1.02824e-23
-0.00490815 0.000413648 1.03086e-23
-0.00490815 0.000413648 1.03086e-23
-0.00533478 0.000383556 1.02122e-23
-0.00533478 0.000383556 1.02122e-23
-0.00573295 0.000352795 3.05928e-23
-0.00573295 0.000352795 3.05928e-23
-0.00610132 0.000321572 2.04074e-23
-0.00610132 0.000321572 2.04074e-23
-0.00643839 0.000289817 0
-0.00643839 0.000289817 0
-0.00674246 0.000257319 0
-0.00674246 0.000257319 0
-0.00701157 0.000224015 0
-0.00701157 0.000224015 0
-0.00724376 0.000190067 0
-0.00724376 0.000190067 0
-0.00743732 0.00015578 1.97886e-23
-0.00743732 0.00015578 1.97886e-23
-0.00759101 0.000121641 3.94957e-23
-0.00759101 0.000121641 3.94957e-23
-0.00770404 8.83067e-05 3.92067e-23
-0.00770404 8.83067e-05 3.92067e-23
-0.00777604 5.64022e-05 1.95549e-23
-0.00777604 5.64022e-05 1.95549e-23
-0.00780725 2.64399e-05 -1.91459e-23
-0.00780725 2.64399e-05 -1.91459e-23
-0.00779989 -1.06212e-06 -1.92014e-23
-0.00779989 -1.06212e-06 -1.92014e-23
-0.00775684 -2.5889e-05 1.87301e-23
-0.00775684 -2.5889e-05 1.87301e-23
-0.00768067 -4.82295e-05 3.72882e-23
-0.00768067 -4.82295e-05 3.72882e-23
-0.00757399 -6.81882e-05 1.85579e-23
-0.00757399 -6.81882e-05 1.85579e-23
-0.0074397 -8.57908e-05 0
-0.0074397 -8.57908e-05 0
-0.00728079 -0.000101175 0
-0.00728079 -0.000101175 0
-0.00709989 -0.000114521 1.75075e-23
-0.00709989 -0.000114521 1.75075e-23
-0.00689943 -0.000126118 1.75617e-23
-0.00689943 -0.000126118 1.75617e-23
-0.00668125 -0.000136326 0
-0.00668125 -0.000136326 0
-0.00644672 -0.000145522 0
-0.00644672 -0.000145522 0
-0.00619657 -0.000154079 0
-0.00619657 -0.000154079 0
-0.00593109 -0.000162265 0
-0.00593109 -0.000162265 0
-0.0056503 -0.000170209 0
-0.0056503 -0.000170209 0
-0.00535424 -0.000177853 0
-0.00535424 -0.000177853 0
-0.00504328 -0.000184949 0
-0.00504328 -0.000184949 0
-0.00471841 -0.000191115 -1.51794e-23
-0.00471841 -0.000191115 -1.51794e-23
-0.00438141 -0.000195911 -1.52304e-23
-0.00438141 -0.000195911 -1.52304e-23
-0.00403478 -0.000198937 0
-0.00403478 -0.000198937 0
-0.00368166 -0.000199919 1.44688e-23
-0.00368166 -0.000199919 1.44688e-23
-0.00332545 -0.00019876 2.87655e-23
-0.00332545 -0.00019876 2.87655e-23
-0.00296952 -0.000195541 1.42964e-23
-0.00296952 -0.000195541 1.42964e-23
-0.00261699 -0.000190481 -1.38281e-23
-0.00261699 -0.000190481 -1.38281e-23
-0.00227069 -0.00018388 -2.45589e-25
-0.00227069 -0.00018388 -2.45589e-25
-0.00193306 -0.000176072 1.368e-23
-0.00193306 -0.000176072 1.368e-23
-0.00160606 -0.000167371 -1.32626e-23
-0.00160606 -0.000167371 -1.32626e-23
-0.00129121 -0.000158074 -1.33107e-23
-0.00129121 -0.000158074 -1.33107e-23
-0.000989544 -0.000148461 0
-0.000989544 -0.000148461 0
-0.00070169 -0.000138702 1.27643e-23
-0.00070169 -0.000138702 1.27643e-23
-0.000427886 -0.000128956 1.28118e-23
-0.000427886 -0.000128956 1.28118e-23
-0.000168961 -0.000119424 -1.24616e-23
-0.000168961 -0.000119424 -1.24616e-23
7.46301e-05 -0.000110248 -1.25087e-23
7.46301e-05 -0.000110248 -1.25087e-23
0.000304069 -0.000101407 1.21711e-23
0.000304069 -0.000101407 1.21711e-23
0.00052016 -9.28581e-05 2.42496e-23
0.00052016 -9.28581e-05 2.42496e-23
0.00072302 -8.46683e-05 2.39745e-23
0.00072302 -8.46683e-05 2.39745e-23
0.00091302 -7.6873e-05 3.54709e-23
0.00091302 -7.6873e-05 3.54709e-23
0.0010906 -6.94903e-05 3.50418e-25
0.0010906 -6.94903e-05 3.50418e-25
0.00125625 -6.2529e-05 -2.33625e-23
0.00125625 -6.2529e-05 -2.33625e-23
0.00141051 -5.59914e-05 0
0.00141051 -5.59914e-05 0
0.00155391 -4.98757e-05 0
0.00155391 -4.98757e-05 0
0.00168703 -4.41764e-05 -2.22869e-23
0.00168703 -4.41764e-05 -2.22869e-23
0.00181043 -3.88843e-05 -4.44284e-23
0.00181043 -3.88843e-05 -4.44284e-23
0.00192468 -3.39866e-05 -3.23991e-25
0.00192468 -3.39866e-05 -3.23991e-25
0.00203035 -2.94673e-05 2.19075e-23
0.00203035 -2.94673e-05 2.19075e-23
0.00212796 -2.53071e-05 -2.13581e-23
0.00212796 -2.53071e-05 -2.13581e-23
0.00221803 -2.14843e-05 -4.25798e-23
0.00221803 -2.14843e-05 -4.25798e-23
0.00230106 -1.79757e-05 -4.2129e-23
0.00230106 -1.79757e-05 -4.2129e-23
0.00237749 -1.47573e-05 -2.09968e-23
0.00237749 -1.47573e-05 -2.09968e-23
0.00244773 -1.18064e-05 0
0.00244773 -1.18064e-05 0
0.00251216 -9.10167e-06 0
0.00251216 -9.10167e-06 0
0.00257113 -6.62506e-06 -2.00277e-23
0.00257113 -6.62506e-06 -2.00277e-23
0.00262492 -4.36171e-06 -2.01154e-23
0.00262492 -4.36171e-06 -2.01154e-23
0.00267384 -2.30009e-06 0
0.00267384 -2.30009e-06 0
0.00271814 -4.32115e-07 1.93829e-23
0.00271814 -4.32115e-07 1.93829e-23
0.00275808 1.24812e-06 1.94695e-23
0.00275808 1.24812e-06 1.94695e-23
0.0027939 2.7448e-06 0
0.0027939 2.7448e-06 0
0.00282585 4.06073e-06 1.87497e-23
0.00282585 4.06073e-06 1.87497e-23
0.00285416 5.20033e-06 1.88351e-23
0.00285416 5.20033e-06 1.88351e-23
0.00287908 6.16689e-06 0
0.00287908 6.16689e-06 0
0.00290087 6.96592e-06 -1.81272e-23
0.00290087 6.96592e-06 -1.81272e-23
0.00291977 7.60728e-06 -3.61334e-23
0.00291977 7.60728e-06 -3.61334e-23
0.00293604 8.09411e-06 -1.80057e-23
0.00293604 8.09411e-06 -1.80057e-23
0.00294991 8.4415e-06 1.75149e-23
0.00294991 8.4415e-06 1.75149e-23
0.00296162 8.66751e-06 1.75977e-23
0.00296162 8.66751e-06 1.75977e-23
0.00297141 8.77034e-06 -1.71121e-23
0.00297141 8.77034e-06 -1.71121e-23
0.00297949 8.79301e-06 -1.7194e-23
0.00297949 8.79301e-06 -1.7194e-23
0.00298599 8.79318e-06 -1.67136e-23
0.00298599 8.79318e-06 -1.67136e-23
0.00299108 8.75502e-06 -3.33104e-23
0.00299108 8.75502e-06 -3.33104e-23
0.00299495 8.64383e-06 -1.65963e-23
0.00299495 8.64383e-06 -1.65963e-23
0.00299777 8.45967e-06 0
0.00299777 8.45967e-06 0
0.00299972 8.21733e-06 0
0.00299972 8.21733e-06 0
0.00300095 7.93116e-06 0
0.00300095 7.93116e-06 0
0.00300159 7.61452e-06 0
0.00300159 7.61452e-06 0
0.00300178 7.2777e-06 0
0.00300178 7.2777e-06 0
0.00300159 6.93311e-06 0
0.00300159 6.93311e-06 0
0.00300111 6.5974e-06 -1.49709e-23
0.00300111 6.5974e-06 -1.49709e-23
0.0030004 6.27441e-06 -2.64919e-25
0.0030004 6.27441e-06 -2.64919e-25
0.00299952 5.94924e-06 1.48579e-23
0.00299952 5.94924e-06 1.48579e-23
0.00299852 5.61002e-06 0
0.00299852 5.61002e-06 0
0.00299745 5.27371e-06 0
0.00299745 5.27371e-06 0
0.00299631 4.9622e-06 0
0.00299631 4.9622e-06 0
0.00299513 4.67755e-06 2.7706e-23
0.00299513 4.67755e-06 2.7706e-23
0.00299391 4.41762e-06 2.78515e-23
0.00299391 4.41762e-06 2.78515e-23
0.00299268 4.18022e-06 -2.69757e-23
0.00299268 4.18022e-06 -2.69757e-23
0.00299145 3.96314e-06 -5.0557e-25
0.00299145 3.96314e-06 -5.0557e-25
0.00299022 3.76323e-06 2.67551e-23
0.00299022 3.76323e-06 2.67551e-23
0.00298903 3.57564e-06 0
0.00298903 3.57564e-06 0
0.00298787 3.395e-06 0
0.00298787 3.395e-06 0
0.00298678 3.21772e-06 -2.51811e-23
0.00298678 3.21772e-06 -2.51811e-23
0.00298577 3.04392e-06 -5.01453e-23
0.00298577 3.04392e-06 -5.01453e-23
0.00298487 2.87715e-06 -2.49629e-23
0.00298487 2.87715e-06 -2.49629e-23
0.00298408 2.72292e-06 -2.41249e-23
0.00298408 2.72292e-06 -2.41249e-23
0.00298341 2.58603e-06 -4.80341e-23
0.00298341 2.58603e-06 -4.80341e-23
0.00298285 2.46879e-06 -4.78704e-25
0.00298285 2.46879e-06 -4.78704e-25
0.00298239 2.37049e-06 2.35593e-23
0.00298239 2.37049e-06 2.35593e-23
0.00298201 2.28809e-06 0
0.00298201 2.28809e-06 0
0.00298171 2.21756e-06 2.23972e-23
0.00298171 2.21756e-06 2.23972e-23
0.00298146 2.15513e-06 2.25233e-23
0.00298146 2.15513e-06 2.25233e-23
0.00298127 2.09809e-06 0
0.00298127 2.09809e-06 0
0.00298113 2.04505e-06 0
0.00298113 2.04505e-06 0
0.00298101 1.99573e-06 0
0.00298101 1.99573e-06 0
0.00298093 1.95056e-06 -2.07073e-23
0.00298093 1.95056e-06 -2.07073e-23
0.00298087 1.91028e-06 -4.12e-23
0.00298087 1.91028e-06 -4.12e-23
0.00298081 1.87557e-06 -2.04912e-23
0.00298081 1.87557e-06 -2.04912e-23
0.00298076 1.84698e-06 -1.97102e-23
0.00298076 1.84698e-06 -1.97102e-23
0.0029807 1.82492e-06 -1.98249e-23
0.0029807 1.82492e-06 -1.98249e-23
0.00298062 1.80982e-06 0
0.00298062 1.80982e-06 0
0.0029805 1.80218e-06 -1.87248e-23
0.0029805 1.80218e-06 -1.87248e-23
0.00298034 1.80275e-06 -1.8835e-23
0.00298034 1.80275e-06 -1.8835e-23
0.00298009 1.81258e-06 -1.80739e-23
0.00298009 1.81258e-06 -1.80739e-23
0.00297976 1.83304e-06 -1.81811e-23
0.00297976 1.83304e-06 -1.81811e-23
0.00297929 1.8661e-06 0
0.00297929 1.8661e-06 0
0.00297866 1.91412e-06 -1.71061e-23
0.00297866 1.91412e-06 -1.71061e-23
0.00297779 1.98085e-06 -1.72087e-23
0.00297779 1.98085e-06 -1.72087e-23