/*--------------------------------*- C++ -*----------------------------------*\
  =========                 |
  \\      /  F ield         | OpenFOAM: The Open Source CFD Toolbox
   \\    /   O peration     | Website:  https://openfoam.org
    \\  /    A nd           | Version:  7
     \\/     M anipulation  |
\*---------------------------------------------------------------------------*/
FoamFile
{
    version     2.0;
    format      ascii;
    class       volScalarField;
    location    "0.09";
    object      nut;
}
// * * * * * * * * * * * * * * * * * * * * * * * * * * * * * * * * * * * * * //

dimensions      [0 2 -1 0 0 0 0];

internalField   nonuniform List<scalar> 
12225
(
3.8006e-05
3.33294e-05
2.94333e-05
2.63761e-05
2.41492e-05
2.26296e-05
2.16457e-05
2.10361e-05
2.06731e-05
2.04642e-05
2.03466e-05
2.02799e-05
2.02393e-05
2.02106e-05
2.01861e-05
2.01607e-05
2.01408e-05
2.02773e-05
0.000205721
0.000151529
0.000127313
0.000114403
0.00010737
0.000103266
0.000100609
9.86957e-05
9.71918e-05
9.59354e-05
9.48464e-05
9.38857e-05
9.30327e-05
9.22733e-05
9.16001e-05
9.09879e-05
9.04839e-05
8.98393e-05
0.000418637
0.000296991
0.000242034
0.000210244
0.00018968
0.000175302
0.000164739
0.000156727
0.000150501
0.000145558
0.000141559
0.000138272
0.000135534
0.000133228
0.00013127
0.000129582
0.000128137
0.000126791
0.000615532
0.000473533
0.000392569
0.000341248
0.000305966
0.000280018
0.000260038
0.000244204
0.000231399
0.000220875
0.000212114
0.00020474
0.000198478
0.000193118
0.000188498
0.00018448
0.000180973
0.000177881
0.000739721
0.000627494
0.000543959
0.00048339
0.000438507
0.000403938
0.000376409
0.000353953
0.000335295
0.000319561
0.000306134
0.000294566
0.00028452
0.000275736
0.000268012
0.000261177
0.000255107
0.000249758
0.000803281
0.000733051
0.000666681
0.000610757
0.000565159
0.000527814
0.000496807
0.000470718
0.000448497
0.000429357
0.000412709
0.000398107
0.000385211
0.000373753
0.000363519
0.000354334
0.000346066
0.000338736
0.000832282
0.000794585
0.000750936
0.00070831
0.000669728
0.000635731
0.00060599
0.000579979
0.000557155
0.000537024
0.000519168
0.000503241
0.000488962
0.000476101
0.000464468
0.000453907
0.000444303
0.000435736
0.000844508
0.000826354
0.000801461
0.000773624
0.000745655
0.00071899
0.000694226
0.000671544
0.000650909
0.000632177
0.000615169
0.000599701
0.000585602
0.000572721
0.000560922
0.000550089
0.000540144
0.000531216
0.000849307
0.00084119
0.000828454
0.000812429
0.000794673
0.000776355
0.000758229
0.000740757
0.00072419
0.000708634
0.00069411
0.000680591
0.000668025
0.00065635
0.000645499
0.00063541
0.000626049
0.000617579
0.000851042
0.000847505
0.000841446
0.000833087
0.000823003
0.000811807
0.000800015
0.000788032
0.000776154
0.000764576
0.000753419
0.000742753
0.000732608
0.000722993
0.000713903
0.000705325
0.000697266
0.000689898
0.000851596
0.00084994
0.000847101
0.00084299
0.000837721
0.000831507
0.000824588
0.000817196
0.000809537
0.000801779
0.000794048
0.000786437
0.000779011
0.000771815
0.000764876
0.000758215
0.000751864
0.000745985
0.000851724
0.000850707
0.000849143
0.00084693
0.000844052
0.000840556
0.000836527
0.000832069
0.000827291
0.000822298
0.000817179
0.000812008
0.000806845
0.000801737
0.000796719
0.000791822
0.000787087
0.00078266
0.000851736
0.000850952
0.000849939
0.000848638
0.000847018
0.000845069
0.000842805
0.000840253
0.000837455
0.000834459
0.000831312
0.000828057
0.000824736
0.000821381
0.000818024
0.000814691
0.00081142
0.000808323
0.000851708
0.000850984
0.000850179
0.000849275
0.000848259
0.000847121
0.000845852
0.000844453
0.00084293
0.000841293
0.000839556
0.000837736
0.00083585
0.000833915
0.000831945
0.000829959
0.000827983
0.00082609
0.000851675
0.000850947
0.000850193
0.000849416
0.000848618
0.000847801
0.000846963
0.0008461
0.00084521
0.00084429
0.000843341
0.000842363
0.00084136
0.000840333
0.000839288
0.000838231
0.000837177
0.000836167
0.000851649
0.000850905
0.000850155
0.000849403
0.00084866
0.000847934
0.000847228
0.000846544
0.000845881
0.000845237
0.000844608
0.000843994
0.00084339
0.000842796
0.00084221
0.000841632
0.000841072
0.000840552
0.000851636
0.000850882
0.000850131
0.000849385
0.000848653
0.000847946
0.00084727
0.000846628
0.000846021
0.000845449
0.000844911
0.000844405
0.000843926
0.000843475
0.000843047
0.000842643
0.000842268
0.00084194
0.000851637
0.000850886
0.000850144
0.00084941
0.000848692
0.000847999
0.000847338
0.000846712
0.000846125
0.000845575
0.000845063
0.000844585
0.000844141
0.000843727
0.000843343
0.000842986
0.000842664
0.000842391
0.00085166
0.000850935
0.00085022
0.000849515
0.000848828
0.000848168
0.000847541
0.000846951
0.000846399
0.000845885
0.000845409
0.000844967
0.000844558
0.000844179
0.000843828
0.000843505
0.000843215
0.000842973
0.000851713
0.00085105
0.000850394
0.000849749
0.000849124
0.000848529
0.000847969
0.000847447
0.000846962
0.000846511
0.000846092
0.000845702
0.000845338
0.000844995
0.000844671
0.000844366
0.000844083
0.000843838
0.000851799
0.000851231
0.000850666
0.000850107
0.000849564
0.000849042
0.000848543
0.000848063
0.000847595
0.000847133
0.000846672
0.000846208
0.000845735
0.000845253
0.00084476
0.000844256
0.000843748
0.000843254
0.000851939
0.000851516
0.000851064
0.000850569
0.000850022
0.000849416
0.000848739
0.000847977
0.000847121
0.000846167
0.000845119
0.000843982
0.000842761
0.000841465
0.000840103
0.000838683
0.000837227
0.000835772
0.000852141
0.000851827
0.000851266
0.000850366
0.00084909
0.000847437
0.000845417
0.000843052
0.000840378
0.000837442
0.000834293
0.000830972
0.000827513
0.000823965
0.000820372
0.000816774
0.000813209
0.000809745
0.000852219
0.000851246
0.00084903
0.000845479
0.000840738
0.000835052
0.000828649
0.000821724
0.000814458
0.000806981
0.000799419
0.000791899
0.000784521
0.00077734
0.000770391
0.0007637
0.000757289
0.000751236
0.00085079
0.00084503
0.000835407
0.000822974
0.000808888
0.000794072
0.000779116
0.000764341
0.000749992
0.000736305
0.000723389
0.000711256
0.000699892
0.00068926
0.000679318
0.000670019
0.000661329
0.000653287
0.000841138
0.000816685
0.000787008
0.000756717
0.000727809
0.00070101
0.000676457
0.000654328
0.000634483
0.000616662
0.000600613
0.000586105
0.000572933
0.000560923
0.000549928
0.000539821
0.000530508
0.000521976
0.000798629
0.000728728
0.000669106
0.000620834
0.000580986
0.000547732
0.000520132
0.000496888
0.000477027
0.000459839
0.000444795
0.000431495
0.00041963
0.000408959
0.000399298
0.000390498
0.000382446
0.0003751
0.000662428
0.000545587
0.000474654
0.000425224
0.000388303
0.00036031
0.000338519
0.000321036
0.000306637
0.000294537
0.000284201
0.00027525
0.000267408
0.00026047
0.000254281
0.000248719
0.000243692
0.000239145
0.000377506
0.00028613
0.000242643
0.000214921
0.000195661
0.000182255
0.000172821
0.000165988
0.000160871
0.000156927
0.000153809
0.000151287
0.000149202
0.000147442
0.00014593
0.000144609
0.000143437
0.000142372
6.98062e-05
6.49724e-05
6.0548e-05
5.65128e-05
5.29016e-05
4.97266e-05
4.69817e-05
4.46417e-05
4.26677e-05
4.10155e-05
3.96415e-05
3.85052e-05
3.75708e-05
3.68066e-05
3.61853e-05
3.56836e-05
3.52819e-05
3.49633e-05
1.87857e-06
2.8033e-05
3.913e-05
4.72971e-05
5.35878e-05
5.86558e-05
6.30893e-05
6.77125e-05
7.33791e-05
8.05812e-05
8.99576e-05
0.000102033
0.000116789
0.000133421
0.000150544
0.000165367
0.000177279
0.000186157
0.000192327
0.000195891
0.000195177
4.34339e-05
0.000198655
0.000200861
0.000198652
4.42861e-05
4.47572e-05
0.000201714
0.000205587
0.0002098
4.77883e-05
4.88041e-05
4.98647e-05
5.08664e-05
5.18073e-05
5.26894e-05
5.35162e-05
5.42914e-05
5.50191e-05
5.57033e-05
5.6348e-05
5.69566e-05
5.75325e-05
5.80788e-05
5.85982e-05
5.90933e-05
5.95661e-05
6.00187e-05
6.04529e-05
6.087e-05
6.12714e-05
6.16583e-05
6.20317e-05
6.23925e-05
6.27413e-05
6.30788e-05
6.34055e-05
6.37219e-05
6.40282e-05
6.43247e-05
6.46117e-05
6.48891e-05
6.51572e-05
6.54159e-05
6.56652e-05
6.5905e-05
6.61353e-05
6.63559e-05
6.65666e-05
6.67673e-05
6.69578e-05
6.71379e-05
6.73074e-05
6.74661e-05
6.76138e-05
6.77503e-05
6.78754e-05
6.79889e-05
6.80907e-05
6.81807e-05
6.82587e-05
6.83247e-05
6.83786e-05
6.84203e-05
6.845e-05
6.84677e-05
6.84733e-05
6.84672e-05
6.84493e-05
6.842e-05
6.83795e-05
6.83282e-05
6.82664e-05
6.81946e-05
6.81137e-05
6.80244e-05
6.79277e-05
6.78253e-05
6.77312e-05
6.76309e-05
6.75253e-05
6.74151e-05
6.73008e-05
6.71828e-05
6.70613e-05
6.69364e-05
6.68082e-05
6.66765e-05
6.65412e-05
6.6402e-05
6.62585e-05
6.61099e-05
6.59556e-05
6.57947e-05
6.5626e-05
6.54482e-05
6.52598e-05
6.50592e-05
6.48442e-05
6.46128e-05
6.43625e-05
6.40905e-05
6.37939e-05
6.34693e-05
6.31132e-05
6.27217e-05
6.22908e-05
6.18161e-05
6.12932e-05
6.07175e-05
6.00841e-05
5.93876e-05
5.862e-05
5.7765e-05
5.67843e-05
5.57541e-05
5.5245e-05
5.48491e-05
5.4418e-05
5.39392e-05
5.34131e-05
5.28431e-05
5.22354e-05
5.1595e-05
5.09336e-05
5.02547e-05
4.95285e-05
4.87964e-05
4.77008e-05
4.68213e-05
4.66459e-05
0.000201915
0.000199916
0.000201948
4.66109e-05
0.000199889
0.000198456
0.000194634
0.000189352
0.00018318
0.000176506
0.000169598
0.000162636
0.00015574
0.000149043
0.000142613
0.000136473
0.000130632
0.000125091
0.000119844
0.000114881
0.000110191
0.00010576
0.000101578
9.7632e-05
9.39156e-05
9.04277e-05
8.71952e-05
8.42558e-05
8.20908e-05
3.56451e-06
3.56359e-05
7.0537e-05
9.96908e-05
0.000123241
0.000142079
0.000157219
0.000169627
0.000179339
0.000188053
0.000197196
0.000207642
0.000219422
0.00023171
0.000243285
0.000252873
0.000259757
0.000263843
0.000265325
0.000263602
0.000255485
0.000233571
0.000252843
0.000250387
0.00024387
0.000226849
0.000231657
0.000249844
0.00025741
0.000263893
0.000262844
0.000273024
0.00028456
0.000296226
0.00030773
0.000318922
0.000329705
0.000340019
0.000349833
0.00035914
0.000367944
0.000376265
0.000384126
0.000391557
0.000398587
0.000405249
0.000411572
0.000417584
0.000423312
0.000428781
0.000434013
0.000439027
0.000443844
0.000448477
0.000452943
0.000457252
0.000461417
0.000465447
0.000469349
0.000473131
0.000476798
0.000480354
0.000483804
0.000487148
0.000490389
0.000493528
0.000496565
0.000499499
0.00050233
0.000505055
0.000507673
0.000510181
0.000512577
0.000514857
0.00051702
0.000519062
0.000520979
0.00052277
0.000524431
0.000525961
0.000527357
0.000528617
0.000529741
0.000530727
0.000531577
0.00053229
0.000532869
0.000533314
0.000533629
0.000533815
0.000533874
0.000533809
0.000533617
0.000533296
0.000532835
0.00053222
0.000531421
0.000530407
0.00052918
0.000527912
0.00052662
0.000525324
0.000524042
0.000522792
0.000521593
0.000520466
0.000519428
0.000518498
0.000517692
0.000517027
0.000516518
0.000516177
0.000516016
0.000516041
0.000516258
0.000516669
0.000517272
0.000518059
0.000519021
0.00052014
0.000521395
0.000522756
0.000524187
0.000525645
0.00052708
0.00052843
0.000529629
0.000530598
0.000531246
0.00053147
0.00053114
0.000530082
0.000528028
0.000524527
0.000518848
0.000510552
0.000500831
0.000490273
0.000478981
0.000467026
0.000454485
0.000441434
0.000427956
0.000414135
0.000400021
0.000385668
0.000370753
0.000355595
0.000338655
0.0003224
0.000311206
0.000326885
0.00032489
0.000341827
0.000304631
0.000361603
0.000388109
0.000396999
0.000396494
0.000390967
0.000382757
0.000373165
0.000362928
0.000352438
0.000341807
0.000331478
0.000321598
0.00031219
0.000303254
0.000294777
0.000286736
0.0002791
0.00027183
0.000264878
0.000258182
0.000251664
0.000245194
0.000238663
0.000231382
0.000224964
6.14653e-06
5.13819e-05
0.000102105
0.000145052
0.000179956
0.000207761
0.00022955
0.000245582
0.000257391
0.00026664
0.000275101
0.000283979
0.000293699
0.000303959
0.000314031
0.0003232
0.000331123
0.000337923
0.000343996
0.000349618
0.000354781
0.000360052
0.00036997
0.000379873
0.000391301
0.000404128
0.000421474
0.000441996
0.000463393
0.000485911
0.000508712
0.000533036
0.000557403
0.000581241
0.000604309
0.000626483
0.000647698
0.00066793
0.000687184
0.000705486
0.000722877
0.000739405
0.000755124
0.000770089
0.000784355
0.000797975
0.000811
0.000823477
0.00083545
0.000846959
0.000858042
0.000868732
0.00087906
0.000889052
0.000898733
0.000908124
0.000917245
0.000926111
0.000934737
0.000943134
0.000951311
0.000959277
0.000967037
0.000974595
0.000981953
0.000989113
0.000996073
0.00100283
0.00100939
0.00101573
0.00102187
0.00102778
0.00103347
0.00103892
0.00104413
0.0010491
0.00105381
0.00105825
0.00106242
0.00106631
0.00106991
0.00107321
0.0010762
0.00107889
0.00108126
0.0010833
0.00108502
0.0010864
0.00108744
0.00108814
0.0010885
0.0010885
0.00108815
0.00108743
0.00108634
0.00108486
0.001083
0.00108076
0.00107818
0.00107538
0.0010724
0.00106927
0.00106601
0.00106266
0.00105925
0.0010558
0.00105234
0.00104892
0.00104555
0.00104227
0.00103909
0.00103606
0.00103318
0.00103047
0.00102795
0.00102563
0.0010235
0.00102156
0.0010198
0.0010182
0.00101671
0.00101531
0.00101393
0.0010125
0.00101095
0.00100917
0.00100706
0.0010045
0.00100132
0.000997375
0.00099246
0.000986344
0.000978729
0.000969232
0.000957491
0.000943574
0.000927988
0.00091108
0.000892981
0.000873787
0.000853607
0.000832556
0.000810766
0.000788364
0.00076547
0.000742154
0.000718389
0.000694398
0.000670392
0.000647684
0.000627225
0.000613466
0.000599105
0.000592236
0.000580976
0.000587414
0.000592162
0.000591959
0.000587177
0.000578951
0.000568389
0.000556372
0.000543537
0.000530296
0.000516878
0.000503445
0.000490355
0.000477711
0.000465562
0.000453924
0.000442791
0.000432137
0.000421916
0.000412065
0.000402489
0.000393059
0.000383554
0.000373675
0.000362436
0.000349445
9.30236e-06
7.0672e-05
0.000136712
0.000190562
0.000232757
0.000265073
0.00028898
0.000306196
0.000318711
0.000328461
0.000337184
0.00034613
0.000355907
0.00036654
0.000377722
0.000389134
0.000400691
0.000412611
0.000425318
0.000439243
0.000454734
0.000472213
0.000492324
0.000514828
0.000539852
0.000567221
0.000596927
0.000628476
0.000661289
0.000694917
0.000728793
0.000762535
0.000795629
0.00082777
0.000858796
0.000888628
0.000917234
0.000944617
0.0009708
0.000995825
0.00101974
0.00104261
0.00106449
0.00108544
0.00110552
0.00112479
0.00114332
0.00116114
0.00117832
0.00119489
0.00121091
0.0012264
0.00124141
0.00125598
0.00127012
0.00128387
0.00129724
0.00131026
0.00132295
0.00133532
0.00134738
0.00135914
0.00137061
0.00138179
0.00139268
0.00140329
0.00141361
0.00142365
0.00143338
0.00144282
0.00145195
0.00146076
0.00146924
0.00147738
0.00148517
0.00149259
0.00149964
0.0015063
0.00151255
0.00151839
0.00152379
0.00152875
0.00153325
0.00153728
0.00154083
0.00154388
0.00154642
0.00154845
0.00154995
0.00155091
0.00155133
0.00155119
0.00155049
0.00154923
0.00154741
0.00154502
0.00154207
0.0015386
0.00153462
0.00153021
0.00152543
0.0015203
0.00151486
0.00150913
0.00150316
0.00149697
0.0014906
0.00148408
0.00147744
0.00147071
0.00146394
0.00145714
0.00145036
0.0014436
0.00143689
0.00143024
0.00142367
0.00141717
0.00141075
0.00140438
0.00139805
0.00139171
0.00138532
0.00137882
0.00137212
0.00136515
0.00135777
0.00134988
0.00134133
0.00133195
0.00132157
0.00130998
0.00129694
0.00128222
0.00126584
0.00124776
0.00122819
0.00120727
0.00118511
0.00116179
0.00113743
0.00111215
0.00108608
0.00105937
0.00103217
0.00100459
0.000976735
0.000948822
0.000921195
0.000894457
0.00086905
0.000845928
0.000824346
0.000806147
0.000790162
0.000779074
0.000769655
0.000759876
0.000748901
0.000736594
0.000723156
0.0007089
0.000694136
0.000679115
0.000664012
0.000648921
0.000634074
0.000619612
0.000605603
0.000592084
0.000579066
0.000566537
0.000554463
0.000542785
0.000531414
0.000520223
0.000508997
0.000497423
0.00048467
0.00047014
1.28605e-05
9.00781e-05
0.00016892
0.000231128
0.000278747
0.000314384
0.000340326
0.000359021
0.000372721
0.00038351
0.000393173
0.000403034
0.000413872
0.000425992
0.000439421
0.000454135
0.000470222
0.000487934
0.000507621
0.000529615
0.000554148
0.000581358
0.000611293
0.000643815
0.0006787
0.000715598
0.000754119
0.000793808
0.000834202
0.00087484
0.000915267
0.000955098
0.000994021
0.00103183
0.00106841
0.00110369
0.00113765
0.00117031
0.00120169
0.00123183
0.00126077
0.00128857
0.00131529
0.00134099
0.00136573
0.00138956
0.00141254
0.00143472
0.00145615
0.00147689
0.00149698
0.00151645
0.00153535
0.00155371
0.00157157
0.00158895
0.00160587
0.00162236
0.00163844
0.00165413
0.00166943
0.00168436
0.00169892
0.00171312
0.00172697
0.00174045
0.00175357
0.00176633
0.00177871
0.00179071
0.00180232
0.00181353
0.00182432
0.00183467
0.00184458
0.00185403
0.001863
0.00187146
0.00187941
0.00188682
0.00189368
0.00189997
0.00190566
0.00191075
0.00191521
0.00191902
0.00192217
0.00192465
0.00192644
0.00192752
0.0019279
0.00192754
0.00192646
0.00192465
0.00192211
0.00191883
0.00191484
0.00191015
0.00190477
0.00189875
0.00189215
0.00188498
0.00187729
0.00186911
0.00186047
0.0018514
0.00184193
0.00183209
0.00182192
0.00181145
0.00180072
0.00178976
0.0017786
0.00176727
0.0017558
0.00174422
0.00173253
0.00172076
0.00170892
0.00169701
0.00168502
0.00167294
0.00166074
0.00164838
0.00163581
0.00162296
0.00160976
0.00159609
0.00158186
0.00156693
0.00155116
0.0015344
0.00151647
0.0014974
0.0014771
0.00145554
0.00143279
0.0014089
0.00138393
0.00135798
0.00133113
0.00130349
0.00127521
0.0012464
0.00121722
0.0011878
0.00115826
0.00112878
0.00109959
0.00107101
0.00104333
0.00101692
0.000991896
0.0009688
0.000947741
0.000929103
0.000912203
0.000896212
0.000880512
0.000864762
0.000848838
0.000832751
0.000816578
0.000800412
0.000784337
0.00076841
0.00075271
0.000737371
0.00072245
0.000707986
0.000693996
0.000680477
0.000667406
0.000654737
0.000642395
0.000630272
0.000618187
0.000605871
0.000592718
0.000578385
1.63687e-05
0.000105017
0.000194911
0.00026517
0.000318216
0.000357434
0.0003861
0.000406978
0.000422534
0.000434967
0.000446144
0.000457498
0.000469996
0.000484195
0.000500386
0.000518747
0.000539454
0.000562715
0.000588735
0.000617651
0.000649487
0.000684147
0.000721433
0.00076105
0.000802636
0.000845777
0.000890039
0.000934991
0.000980217
0.00102533
0.00106997
0.00111386
0.00115676
0.00119852
0.00123905
0.00127828
0.00131621
0.00135283
0.00138816
0.00142223
0.00145509
0.00148679
0.00151736
0.00154687
0.00157536
0.0016029
0.00162952
0.00165529
0.00168025
0.00170445
0.00172793
0.00175073
0.00177289
0.00179445
0.00181544
0.00183589
0.00185582
0.00187526
0.00189422
0.00191273
0.0019308
0.00194843
0.00196564
0.00198243
0.0019988
0.00201476
0.00203029
0.00204539
0.00206005
0.00207427
0.00208803
0.00210131
0.00211411
0.00212639
0.00213816
0.00214937
0.00216002
0.00217008
0.00217953
0.00218834
0.0021965
0.00220397
0.00221074
0.00221679
0.00222208
0.00222661
0.00223034
0.00223327
0.00223536
0.00223661
0.002237
0.00223651
0.00223515
0.0022329
0.00222976
0.00222573
0.00222081
0.00221502
0.00220835
0.00220083
0.0021925
0.00218339
0.00217355
0.002163
0.00215175
0.00213985
0.00212732
0.00211419
0.00210049
0.00208626
0.00207154
0.00205634
0.00204073
0.00202472
0.00200835
0.00199166
0.00197467
0.00195742
0.00193992
0.00192221
0.00190429
0.00188619
0.0018679
0.00184941
0.00183071
0.00181177
0.00179255
0.00177298
0.00175301
0.00173253
0.00171147
0.00168976
0.00166739
0.00164428
0.00162037
0.00159562
0.00157005
0.00154369
0.00151657
0.00148875
0.00146032
0.00143137
0.00140201
0.00137235
0.00134251
0.00131262
0.00128278
0.00125311
0.00122375
0.00119488
0.0011667
0.00113944
0.00111326
0.00108838
0.00106494
0.00104307
0.00102264
0.00100334
0.000984844
0.000966895
0.000949316
0.000932016
0.000914963
0.000898154
0.000881604
0.000865329
0.000849339
0.000833705
0.00081847
0.000803663
0.000789301
0.000775385
0.000761899
0.000748807
0.000736054
0.000723551
0.00071116
0.000698668
0.00068566
0.000672029
1.94185e-05
0.000117188
0.000216048
0.000293209
0.000351335
0.00039465
0.000426699
0.000450472
0.000468577
0.000483299
0.000496579
0.000509962
0.000524585
0.000541208
0.000560312
0.000582198
0.000607063
0.00063503
0.000666149
0.000700372
0.000737545
0.000777419
0.00081967
0.000863921
0.00090977
0.000956801
0.00100461
0.0010528
0.00110102
0.00114895
0.00119632
0.00124289
0.0012885
0.001333
0.00137633
0.00141843
0.00145928
0.00149887
0.00153721
0.00157432
0.00161024
0.00164501
0.00167865
0.00171123
0.00174277
0.00177334
0.00180297
0.00183171
0.00185961
0.00188671
0.00191304
0.00193866
0.0019636
0.00198789
0.00201157
0.00203465
0.00205718
0.00207917
0.00210065
0.00212162
0.00214211
0.00216212
0.00218167
0.00220074
0.00221936
0.00223751
0.0022552
0.00227241
0.00228913
0.00230536
0.00232107
0.00233626
0.00235091
0.00236498
0.00237847
0.00239135
0.0024036
0.00241518
0.00242608
0.00243626
0.0024457
0.00245437
0.00246224
0.00246929
0.00247548
0.0024808
0.00248521
0.0024887
0.00249123
0.0024928
0.00249337
0.00249293
0.00249147
0.00248898
0.00248544
0.00248086
0.00247523
0.00246855
0.00246078
0.00245195
0.0024421
0.00243127
0.00241948
0.00240675
0.00239311
0.00237858
0.00236318
0.00234694
0.00232989
0.00231206
0.00229349
0.00227421
0.00225426
0.00223368
0.00221252
0.0021908
0.00216857
0.00214587
0.00212274
0.00209922
0.00207536
0.0020512
0.00202677
0.00200208
0.00197716
0.00195205
0.00192672
0.00190117
0.00187542
0.00184932
0.00182311
0.00179663
0.00176986
0.00174275
0.00171527
0.00168741
0.00165917
0.00163055
0.00160159
0.00157232
0.00154282
0.00151315
0.00148338
0.00145361
0.00142392
0.0013944
0.00136512
0.00133615
0.00130757
0.00127946
0.00125196
0.0012252
0.00119929
0.00117435
0.00115046
0.0011277
0.00110606
0.00108548
0.00106579
0.00104683
0.00102849
0.00101065
0.000993246
0.000976243
0.000959618
0.000943355
0.000927437
0.000911879
0.000896706
0.000881938
0.000867588
0.000853656
0.00084013
0.000826987
0.000814182
0.000801651
0.00078929
0.000776942
0.000764331
0.000751494
2.18756e-05
0.000126382
0.000232046
0.000315084
0.000378285
0.00042597
0.000461869
0.000489111
0.000510379
0.000527997
0.000543945
0.000559844
0.000576945
0.000596149
0.000618059
0.000643042
0.000671288
0.000702847
0.000737652
0.000775532
0.000816222
0.000859395
0.000904675
0.000951669
0.000999977
0.00104921
0.00109901
0.00114902
0.00119895
0.00124854
0.00129755
0.0013458
0.00139315
0.00143949
0.00148474
0.00152884
0.00157179
0.00161355
0.00165413
0.00169355
0.00173183
0.00176899
0.00180506
0.00184008
0.00187408
0.00190711
0.0019392
0.0019704
0.00200075
0.00203028
0.00205903
0.00208704
0.00211435
0.00214099
0.00216699
0.00219237
0.00221717
0.00224141
0.0022651
0.00228826
0.00231091
0.00233305
0.0023547
0.00237586
0.00239653
0.0024167
0.00243637
0.00245554
0.00247419
0.00249231
0.00250989
0.0025269
0.00254332
0.00255914
0.00257433
0.00258885
0.00260269
0.00261582
0.0026282
0.0026398
0.00265059
0.00266054
0.00266962
0.00267779
0.00268503
0.00269129
0.00269655
0.00270079
0.00270396
0.00270604
0.00270702
0.00270686
0.00270554
0.00270305
0.00269938
0.00269449
0.0026884
0.00268108
0.00267246
0.0026626
0.00265152
0.00263925
0.0026258
0.00261119
0.00259544
0.00257856
0.00256058
0.00254152
0.0025214
0.00250025
0.00247811
0.002455
0.00243098
0.00240608
0.00238034
0.00235382
0.00232656
0.0022986
0.00227
0.00224081
0.00221113
0.00218102
0.00215051
0.00211966
0.00208854
0.00205726
0.0020258
0.0019942
0.00196269
0.00193118
0.00189976
0.0018684
0.00183713
0.00180594
0.00177484
0.00174382
0.00171289
0.00168208
0.0016514
0.00162089
0.00159058
0.00156052
0.00153076
0.00150133
0.0014723
0.0014437
0.00141557
0.00138791
0.00136075
0.00133412
0.00130807
0.00128268
0.00125801
0.00123409
0.00121097
0.00118869
0.0011673
0.00114677
0.00112705
0.00110807
0.00108974
0.00107199
0.00105474
0.00103796
0.0010216
0.00100565
0.000990071
0.000974846
0.00095999
0.000945514
0.000931426
0.000917726
0.000904406
0.000891447
0.00087882
0.000866478
0.000854345
0.00084231
0.000830191
0.000818102
2.36225e-05
0.000132388
0.000243205
0.000331369
0.000399301
0.000451351
0.000491327
0.00052241
0.000547291
0.000568279
0.000587345
0.000606127
0.000625928
0.00064772
0.000672172
0.000699689
0.000730459
0.000764495
0.000801672
0.00084176
0.000884453
0.000929397
0.000976214
0.00102452
0.00107395
0.00112415
0.00117479
0.00122558
0.00127626
0.0013266
0.00137642
0.00142554
0.00147386
0.00152127
0.0015677
0.0016131
0.00165744
0.00170069
0.00174286
0.00178394
0.00182395
0.0018629
0.00190082
0.00193773
0.00197366
0.00200865
0.00204272
0.00207592
0.00210827
0.00213981
0.00217058
0.00220061
0.00222993
0.00225858
0.00228658
0.00231396
0.00234074
0.00236696
0.00239261
0.00241773
0.00244233
0.00246641
0.00248998
0.00251305
0.00253562
0.00255768
0.00257922
0.00260025
0.00262075
0.0026407
0.00266008
0.00267888
0.00269707
0.00271463
0.00273153
0.00274773
0.00276322
0.00277795
0.0027919
0.00280502
0.00281728
0.00282864
0.00283907
0.00284853
0.00285697
0.00286437
0.00287068
0.00287588
0.00287991
0.00288276
0.00288438
0.00288475
0.00288384
0.00288163
0.00287808
0.00287318
0.00286692
0.00285922
0.00285007
0.00283949
0.00282749
0.0028141
0.00279932
0.00278317
0.00276564
0.00274677
0.00272655
0.00270501
0.00268217
0.00265805
0.00263268
0.00260609
0.00257833
0.00254944
0.00251946
0.00248845
0.00245645
0.00242352
0.00238972
0.0023551
0.00231981
0.00228394
0.00224755
0.00221066
0.00217341
0.00213608
0.00209866
0.00206125
0.00202399
0.00198697
0.00195025
0.00191392
0.00187804
0.00184264
0.00180779
0.00177351
0.00173984
0.00170681
0.00167444
0.00164275
0.00161177
0.0015815
0.00155197
0.00152318
0.00149514
0.00146783
0.00144123
0.00141531
0.00139003
0.00136537
0.00134133
0.00131791
0.00129511
0.00127294
0.0012514
0.00123049
0.00121025
0.0011907
0.00117181
0.00115355
0.00113588
0.00111874
0.0011021
0.0010859
0.00107013
0.00105476
0.00103974
0.00102505
0.0010107
0.0009967
0.000983049
0.000969751
0.0009568
0.000944184
0.000931882
0.000919863
0.000908072
0.000896433
0.000884828
0.000873401
2.44977e-05
0.000135853
0.000250359
0.000342617
0.000414711
0.000470898
0.000514957
0.000550034
0.000578769
0.00060341
0.000625866
0.00064774
0.000670324
0.000694604
0.000721276
0.000750768
0.000783282
0.000818831
0.000857286
0.000898413
0.000941912
0.000987443
0.00103465
0.00108319
0.00113272
0.00118292
0.00123352
0.00128425
0.00133489
0.00138525
0.00143515
0.00148446
0.00153306
0.00158088
0.00162783
0.00167387
0.00171897
0.00176309
0.00180623
0.00184837
0.00188954
0.00192972
0.00196894
0.00200722
0.00204457
0.00208103
0.00211661
0.00215136
0.00218529
0.00221844
0.00225084
0.00228252
0.00231352
0.00234385
0.00237355
0.00240264
0.00243114
0.00245908
0.00248648
0.00251334
0.00253968
0.00256552
0.00259086
0.00261569
0.00264003
0.00266387
0.0026872
0.00271001
0.00273229
0.00275403
0.0027752
0.00279577
0.00281574
0.00283506
0.00285372
0.00287166
0.00288887
0.0029053
0.00292092
0.00293568
0.00294954
0.00296247
0.00297441
0.00298533
0.00299518
0.00300391
0.00301149
0.00301787
0.003023
0.00302686
0.00302938
0.00303055
0.00303032
0.00302866
0.00302554
0.00302092
0.00301476
0.003007
0.00299763
0.00298666
0.00297409
0.00295993
0.00294418
0.00292684
0.00290792
0.00288741
0.00286534
0.00284171
0.00281653
0.00278982
0.00276161
0.00273191
0.00270079
0.00266829
0.00263445
0.00259932
0.00256296
0.00252542
0.00248676
0.002447
0.00240641
0.00236507
0.00232307
0.00228051
0.00223755
0.00219438
0.00215112
0.00210794
0.002065
0.00202245
0.00198042
0.00193906
0.00189849
0.0018588
0.00182011
0.00178248
0.00174599
0.00171068
0.00167658
0.00164373
0.00161211
0.00158174
0.00155258
0.0015246
0.00149775
0.00147197
0.00144718
0.0014233
0.00140024
0.00137791
0.00135625
0.00133522
0.00131477
0.00129484
0.00127542
0.00125648
0.00123802
0.00122007
0.00120262
0.00118565
0.00116914
0.00115308
0.00113742
0.00112215
0.00110724
0.00109268
0.00107842
0.00106444
0.00105076
0.00103737
0.0010243
0.00101153
0.000999066
0.000986903
0.000975026
0.000963415
0.000952035
0.000940831
0.000929731
0.000918881
2.47215e-05
0.000137164
0.000253941
0.000349283
0.000424901
0.00048486
0.000532825
0.000571847
0.000604471
0.000632838
0.000658766
0.000683772
0.000709096
0.000735696
0.000764266
0.000795249
0.000828869
0.000865169
0.000904051
0.000945315
0.000988698
0.0010339
0.00108061
0.00112851
0.00117732
0.00122675
0.00127656
0.00132651
0.00137643
0.00142612
0.00147545
0.00152429
0.00157255
0.00162013
0.00166698
0.00171304
0.00175827
0.00180265
0.00184616
0.00188879
0.00193053
0.00197139
0.00201137
0.00205048
0.00208875
0.00212619
0.00216282
0.00219866
0.00223375
0.0022681
0.00230175
0.00233471
0.00236703
0.00239872
0.00242981
0.00246032
0.00249027
0.00251969
0.00254859
0.00257699
0.00260489
0.00263231
0.00265926
0.00268573
0.00271172
0.00273724
0.00276226
0.0027868
0.00281082
0.00283431
0.00285724
0.00287961
0.00290137
0.0029225
0.00294296
0.00296272
0.00298173
0.00299997
0.00301737
0.00303391
0.00304952
0.00306417
0.0030778
0.00309037
0.00310182
0.0031121
0.00312117
0.00312897
0.00313545
0.00314056
0.00314426
0.00314649
0.00314722
0.0031464
0.00314399
0.00313994
0.00313418
0.00312669
0.00311744
0.00310642
0.00309363
0.00307906
0.00306271
0.00304456
0.00302461
0.00300287
0.00297933
0.002954
0.00292689
0.00289801
0.00286736
0.00283496
0.0028009
0.0027652
0.00272792
0.00268908
0.00264877
0.00260703
0.00256395
0.0025196
0.00247417
0.00242778
0.00238055
0.00233262
0.00228419
0.00223545
0.00218659
0.00213781
0.00208933
0.00204135
0.00199408
0.00194773
0.00190247
0.00185848
0.00181591
0.0017749
0.00173554
0.00169792
0.00166209
0.00162806
0.00159585
0.00156541
0.0015367
0.00150963
0.00148411
0.00146001
0.00143722
0.00141558
0.00139496
0.00137521
0.00135621
0.00133786
0.00132007
0.00130274
0.00128582
0.00126925
0.00125302
0.00123712
0.00122154
0.00120629
0.00119136
0.00117673
0.00116239
0.00114832
0.00113452
0.00112099
0.00110766
0.00109455
0.00108167
0.00106904
0.00105665
0.00104452
0.00103264
0.00102101
0.00100963
0.000998492
0.000987566
0.000976819
0.000966206
0.000955866
2.44287e-05
0.000136644
0.000254414
0.000351874
0.000430336
0.000493599
0.000545149
0.000587895
0.000624249
0.000656227
0.000685522
0.000713548
0.000741459
0.000770162
0.000800325
0.000832396
0.000866625
0.000903096
0.000941761
0.000982475
0.00102503
0.00106917
0.00111466
0.00116121
0.00120859
0.00125656
0.00130489
0.00135341
0.00140194
0.00145032
0.00149843
0.00154617
0.00159343
0.00164014
0.00168624
0.00173168
0.00177642
0.00182043
0.0018637
0.0019062
0.00194793
0.00198888
0.00202906
0.00206848
0.00210714