/*--------------------------------*- C++ -*----------------------------------*\
  =========                 |
  \\      /  F ield         | OpenFOAM: The Open Source CFD Toolbox
   \\    /   O peration     | Website:  https://openfoam.org
    \\  /    A nd           | Version:  7
     \\/     M anipulation  |
\*---------------------------------------------------------------------------*/
FoamFile
{
    version     2.0;
    format      ascii;
    class       volScalarField;
    location    "0.09";
    object      p;
}
// * * * * * * * * * * * * * * * * * * * * * * * * * * * * * * * * * * * * * //

dimensions      [0 2 -2 0 0 0 0];

internalField   nonuniform List<scalar> 
12225
(
-2.41662
-1.82031
-1.7554
-1.80526
-1.73989
-1.63729
-1.56098
-1.50959
-1.46909
-1.43542
-1.40905
-1.38942
-1.375
-1.36452
-1.35721
-1.35194
-1.34997
-1.3418
-3.76946
-2.53278
-2.00132
-1.86089
-1.74636
-1.63148
-1.55151
-1.49931
-1.45928
-1.42652
-1.40104
-1.38217
-1.36841
-1.35849
-1.35171
-1.34712
-1.34534
-1.34386
-3.5264
-2.34447
-1.88802
-1.79856
-1.71439
-1.61385
-1.53924
-1.48932
-1.45093
-1.41954
-1.39513
-1.37704
-1.36388
-1.35447
-1.34814
-1.34416
-1.34313
-1.34432
-3.08141
-2.23407
-1.86645
-1.78265
-1.70046
-1.60382
-1.53101
-1.48184
-1.44431
-1.41388
-1.39027
-1.37278
-1.3601
-1.35112
-1.3452
-1.34181
-1.34114
-1.34363
-2.78673
-2.21056
-1.87685
-1.77119
-1.68463
-1.59185
-1.52127
-1.47296
-1.43633
-1.40696
-1.38426
-1.36748
-1.35539
-1.34695
-1.34152
-1.33869
-1.33826
-1.34103
-2.58012
-2.17491
-1.86828
-1.74927
-1.66379
-1.57715
-1.5097
-1.46264
-1.42716
-1.39901
-1.37735
-1.3614
-1.34999
-1.34216
-1.33726
-1.33493
-1.33473
-1.33743
-2.40278
-2.11254
-1.84369
-1.72195
-1.63993
-1.55991
-1.49606
-1.45068
-1.41665
-1.38991
-1.36944
-1.35444
-1.34382
-1.33667
-1.33235
-1.33049
-1.33055
-1.33317
-2.2425
-2.03651
-1.81019
-1.69117
-1.61285
-1.53947
-1.47976
-1.43656
-1.4043
-1.37921
-1.36013
-1.34625
-1.33655
-1.33018
-1.32652
-1.32518
-1.32557
-1.3282
-2.09797
-1.95382
-1.7685
-1.6559
-1.58181
-1.51524
-1.46027
-1.41979
-1.38967
-1.3665
-1.34904
-1.33646
-1.32785
-1.3224
-1.31951
-1.31875
-1.31958
-1.32237
-1.96661
-1.86647
-1.7181
-1.61524
-1.54638
-1.48683
-1.43715
-1.39994
-1.37235
-1.3514
-1.33581
-1.32476
-1.31742
-1.31305
-1.31104
-1.311
-1.31239
-1.31552
-1.84504
-1.77569
-1.6594
-1.56881
-1.50631
-1.4539
-1.40999
-1.37662
-1.35197
-1.33357
-1.32013
-1.31085
-1.30499
-1.30186
-1.30091
-1.30172
-1.30381
-1.30748
-1.73972
-1.69
-1.5987
-1.52072
-1.46501
-1.4193
-1.38106
-1.35175
-1.33021
-1.31446
-1.30325
-1.29585
-1.29155
-1.28974
-1.2899
-1.29166
-1.29454
-1.29887
-1.63954
-1.60366
-1.53351
-1.4683
-1.4199
-1.38098
-1.34868
-1.3238
-1.30572
-1.29289
-1.28417
-1.27884
-1.27629
-1.27597
-1.27741
-1.28024
-1.28405
-1.28914
-1.52831
-1.50362
-1.45315
-1.40224
-1.36289
-1.33193
-1.30672
-1.28742
-1.27377
-1.26466
-1.25913
-1.25649
-1.25622
-1.25785
-1.26095
-1.26521
-1.27028
-1.27639
-1.40388
-1.38813
-1.35503
-1.31936
-1.29092
-1.26927
-1.2524
-1.24004
-1.23204
-1.22771
-1.22626
-1.22711
-1.22981
-1.23398
-1.23928
-1.24544
-1.25217
-1.25968
-1.26287
-1.25427
-1.23613
-1.21603
-1.20028
-1.1895
-1.18242
-1.17854
-1.1777
-1.17945
-1.18324
-1.18859
-1.19517
-1.20268
-1.21086
-1.21953
-1.22848
-1.23787
-1.09956
-1.09694
-1.09199
-1.08763
-1.08636
-1.08837
-1.09284
-1.09927
-1.10738
-1.11686
-1.12734
-1.13849
-1.15008
-1.16193
-1.1739
-1.18586
-1.1977
-1.20958
-0.904242
-0.907273
-0.915153
-0.927546
-0.943068
-0.960467
-0.97894
-0.998021
-1.01736
-1.03666
-1.05568
-1.07426
-1.09231
-1.10979
-1.12665
-1.14288
-1.15846
-1.17359
-0.658913
-0.669165
-0.692767
-0.725855
-0.762483
-0.799319
-0.835424
-0.870478
-0.904058
-0.935823
-0.965677
-0.99368
-1.01993
-1.04454
-1.06761
-1.08927
-1.1096
-1.12888
-0.399306
-0.419103
-0.463336
-0.522142
-0.58319
-0.641339
-0.696347
-0.748293
-0.796623
-0.841017
-0.881664
-0.918941
-0.953178
-0.984661
-1.01366
-1.04044
-1.06522
-1.08837
-0.164565
-0.195795
-0.264935
-0.35227
-0.437401
-0.515064
-0.587113
-0.654034
-0.714955
-0.769743
-0.819085
-0.863726
-0.904211
-0.940992
-0.974506
-1.00516
-1.03327
-1.05932
0.0752729
0.0265026
-0.0779994
-0.200287
-0.31035
-0.406817
-0.495471
-0.576635
-0.648872
-0.712626
-0.769348
-0.820165
-0.8658
-0.906881
-0.944019
-0.977757
-1.00851
-1.03682
0.325751
0.249102
0.0947638
-0.068004
-0.201688
-0.315763
-0.42063
-0.514959
-0.596861
-0.668038
-0.730867
-0.786734
-0.836491
-0.880961
-0.920932
-0.957066
-0.989855
-1.0199
0.593344
0.470699
0.247333
0.0426008
-0.109929
-0.240417
-0.361408
-0.46744
-0.557043
-0.634094
-0.701848
-0.761727
-0.814673
-0.861726
-0.903847
-0.94179
-0.976112
-1.00745
0.886584
0.690393
0.372017
0.129004
-0.0336879
-0.178911
-0.315733
-0.431732
-0.527157
-0.608757
-0.680419
-0.743408
-0.798758
-0.847738
-0.891458
-0.93074
-0.966193
-0.998478
1.21039
0.913885
0.471702
0.193843
0.0272915
-0.130945
-0.281737
-0.405375
-0.505052
-0.590219
-0.66497
-0.730335
-0.78748
-0.837893
-0.882795
-0.923051
-0.95932
-0.992257
1.54508
1.12429
0.561592
0.257688
0.0799363
-0.095841
-0.258341
-0.386776
-0.489351
-0.57737
-0.654558
-0.721717
-0.780204
-0.831701
-0.877498
-0.918483
-0.955368
-0.988808
1.88209
1.19529
0.599667
0.338861
0.146999
-0.0607553
-0.238407
-0.371706
-0.477248
-0.568132
-0.647527
-0.716128
-0.77559
-0.827821
-0.874184
-0.915586
-0.95281
-0.986548
2.51497
0.976034
0.333352
0.240483
0.122084
-0.0748029
-0.249713
-0.378435
-0.481392
-0.571708
-0.65111
-0.719665
-0.779009
-0.831103
-0.877291
-0.918426
-0.955264
-0.988764
4.91717
1.99155
0.70046
0.425411
0.221637
-0.0275177
-0.227272
-0.366162
-0.474019
-0.567487
-0.649078
-0.719155
-0.779623
-0.832614
-0.879533
-0.921197
-0.958176
-0.990567
-1.63335
-1.63061
-1.62909
-1.6294
-1.63092
-1.63288
-1.63463
-1.6358
-1.6364
-1.63669
-1.63692
-1.63742
-1.63854
-1.64059
-1.64379
-1.64827
-1.65418
-1.6617
-1.67109
-1.68282
-1.69732
-1.71429
-1.73299
-1.75461
-1.78124
-1.81405
-1.84612
-1.8623
-1.87434
-1.89791
-1.92726
-1.95727
-1.98633
-2.01474
-2.04196
-2.06767
-2.09168
-2.11385
-2.13412
-2.15251
-2.16906
-2.18383
-2.19692
-2.20843
-2.21844
-2.22707
-2.23439
-2.24051
-2.24549
-2.24942
-2.25235
-2.25435
-2.25546
-2.25575
-2.25524
-2.25398
-2.25201
-2.24934
-2.24601
-2.24205
-2.23747
-2.23229
-2.22654
-2.22022
-2.21336
-2.20596
-2.19805
-2.18962
-2.1807
-2.17128
-2.16139
-2.15102
-2.14019
-2.12888
-2.11712
-2.10489
-2.0922
-2.07903
-2.06537
-2.05122
-2.03656
-2.02135
-2.00557
-1.98918
-1.97214
-1.95439
-1.93587
-1.91651
-1.89623
-1.87493
-1.85251
-1.82885
-1.80383
-1.77731
-1.74915
-1.71923
-1.68736
-1.65327
-1.6166
-1.57704
-1.5344
-1.48841
-1.43876
-1.38512
-1.32713
-1.26443
-1.19662
-1.1233
-1.04406
-0.958479
-0.866149
-0.766656
-0.659603
-0.544614
-0.421347
-0.2895
-0.14883
0.000837129
0.159587
0.327402
0.504144
0.689536
0.883141
1.08435
1.29237
1.50621
1.72468
1.94638
2.16973
2.393
2.6143
2.83165
3.04301
3.24635
3.43982
3.62213
3.79197
3.94785
4.08875
4.21409
4.32366
4.41756
4.49622
4.56027
4.61066
4.64822
4.67394
4.68879
4.69189
4.68993
4.68506
4.66812
4.62878
4.60412
4.60395
4.59504
4.58128
4.56383
4.54462
4.52543
4.50664
4.48873
4.47209
4.45697
4.44324
4.43054
4.41967
4.4106
4.40335
4.39796
4.39453
4.39323
4.39431
4.39821
4.40563
4.41768
4.43654
4.46509
4.51323
4.57831
-1.6369
-1.63506
-1.63415
-1.63496
-1.63655
-1.63786
-1.63831
-1.63773
-1.63589
-1.63306
-1.62989
-1.62717
-1.62548
-1.62516
-1.62623
-1.62857
-1.6321
-1.63693
-1.64342
-1.65194
-1.66244
-1.6746
-1.68912
-1.70705
-1.72771
-1.74795
-1.7642
-1.78968
-1.82994
-1.8727
-1.9114
-1.94522
-1.97722
-2.00749
-2.03581
-2.06208
-2.08626
-2.10835
-2.12842
-2.14652
-2.16275
-2.17722
-2.19002
-2.20126
-2.21105
-2.21948
-2.22665
-2.23262
-2.23749
-2.24132
-2.24418
-2.24611
-2.24717
-2.24741
-2.24686
-2.24557
-2.24356
-2.24087
-2.23752
-2.23353
-2.22893
-2.22374
-2.21797
-2.21165
-2.20478
-2.19738
-2.18946
-2.18104
-2.17212
-2.16272
-2.15285
-2.14251
-2.13171
-2.12046
-2.10876
-2.0966
-2.084
-2.07094
-2.05741
-2.04341
-2.02892
-2.01392
-1.99838
-1.98226
-1.96554
-1.94815
-1.93004
-1.91114
-1.89138
-1.87066
-1.84888
-1.82592
-1.80166
-1.77594
-1.74859
-1.7194
-1.68815
-1.65463
-1.61869
-1.58014
-1.53865
-1.49392
-1.44563
-1.39344
-1.337
-1.27594
-1.20988
-1.13842
-1.06115
-0.977648
-0.887509
-0.79032
-0.685685
-0.573227
-0.452597
-0.323492
-0.185658
-0.0389113
0.116848
0.28162
0.455291
0.63761
0.828174
1.02641
1.23158
1.44272
1.6587
1.87818
2.09965
2.32144
2.54171
2.75858
2.9701
3.17433
3.3694
3.55336
3.7247
3.88241
4.02556
4.15353
4.26603
4.36309
4.44505
4.51254
4.56619
4.60754
4.63753
4.6585
4.67269
4.6748
4.66711
4.65678
4.6567
4.64552
4.61713
4.59245
4.56935
4.54793
4.52804
4.50906
4.49099
4.47396
4.45814
4.44374
4.43074
4.42018
4.41063
4.40256
4.39615
4.39148
4.38865
4.38784
4.38932
4.39348
4.401
4.41285
4.43095
4.45726
4.4997
4.55278
-1.63917
-1.63895
-1.63916
-1.64036
-1.64173
-1.64248
-1.64226
-1.64084
-1.63843
-1.63531
-1.63196
-1.62893
-1.62671
-1.62565
-1.6259
-1.62756
-1.63075
-1.63573
-1.64288
-1.65263
-1.66512
-1.68018
-1.69796
-1.71894
-1.74264
-1.7677
-1.79293
-1.82003
-1.85131
-1.8845
-1.91725
-1.94833
-1.97806
-2.00628
-2.03279
-2.05748
-2.08033
-2.10133
-2.12051
-2.13793
-2.15363
-2.1677
-2.18023
-2.19128
-2.20095
-2.20931
-2.21644
-2.22241
-2.2273
-2.23116
-2.23405
-2.23602
-2.23713
-2.23741
-2.23691
-2.23566
-2.23369
-2.23103
-2.22772
-2.22377
-2.2192
-2.21404
-2.2083
-2.202
-2.19516
-2.18779
-2.17991
-2.17152
-2.16265
-2.1533
-2.14348
-2.1332
-2.12248
-2.11131
-2.0997
-2.08765
-2.07518
-2.06226
-2.0489
-2.03509
-2.02081
-2.00605
-1.99078
-1.97497
-1.95859
-1.94157
-1.92389
-1.90545
-1.8862
-1.86605
-1.84488
-1.82261
-1.79909
-1.77418
-1.74772
-1.71952
-1.68936
-1.65701
-1.62233
-1.58509
-1.545
-1.50178
-1.4551
-1.40463
-1.35002
-1.29091
-1.22692
-1.15764
-1.08266
-1.00159
-0.913995
-0.819475
-0.717629
-0.608076
-0.490465
-0.364481
-0.229863
-0.0864137
0.0659849
0.227354
0.397604
0.576516
0.763722
0.958693
1.16072
1.36892
1.58219
1.79926
2.01866
2.23878
2.45785
2.67401
2.88535
3.0899
3.28578
3.47124
3.64482
3.80527
3.95155
4.08297
4.19918
4.30013
4.3861
4.45765
4.51548
4.56097
4.59509
4.61939
4.63489
4.64033
4.63872
4.63399
4.6317
4.62195
4.59986
4.57868
4.55865
4.53958
4.52102
4.50307
4.48601
4.47001
4.45525
4.44184
4.42988
4.41884
4.40941
4.40159
4.39538
4.39085
4.38811
4.3873
4.38869
4.39264
4.39974
4.41079
4.42732
4.45039
4.48478
4.5198
-1.63602
-1.63809
-1.63994
-1.64178
-1.64311
-1.64359
-1.64308
-1.64161
-1.63933
-1.63653
-1.63362
-1.63104
-1.6292
-1.62845
-1.62907
-1.63128
-1.63534
-1.64154
-1.65022
-1.66167
-1.67599
-1.69309
-1.71285
-1.73512
-1.75956
-1.78552
-1.81261
-1.84075
-1.87
-1.89971
-1.92909
-1.95764
-1.98511
-2.01125
-2.03588
-2.05892
-2.08032
-2.10007
-2.11818
-2.13468
-2.14962
-2.16306
-2.17506
-2.18568
-2.195
-2.20308
-2.20998
-2.21577
-2.22052
-2.22426
-2.22707
-2.22897
-2.23003
-2.23027
-2.22974
-2.22846
-2.22648
-2.22381
-2.22049
-2.21653
-2.21196
-2.2068
-2.20106
-2.19477
-2.18794
-2.18058
-2.17271
-2.16435
-2.1555
-2.14619
-2.13641
-2.12619
-2.11553
-2.10443
-2.09291
-2.08098
-2.06862
-2.05585
-2.04266
-2.02904
-2.01498
-2.00047
-1.98548
-1.96998
-1.95395
-1.93733
-1.92007
-1.90212
-1.88339
-1.86381
-1.84327
-1.82167
-1.79889
-1.77477
-1.74917
-1.72191
-1.69279
-1.66161
-1.62818
-1.59225
-1.55357
-1.51184
-1.46675
-1.41798
-1.36516
-1.30794
-1.24594
-1.17875
-1.10596
-1.02718
-0.941965
-0.849916
-0.750624
-0.6437
-0.528783
-0.405546
-0.273712
-0.133066
0.0165304
0.175123
0.34265
0.518924
0.703611
0.896217
1.09607
1.30233
1.51393
1.72963
1.94801
2.16746
2.38623
2.60245
2.81417
3.01944
3.21645
3.40355
3.57915
3.74189
3.8907
4.02484
4.14391
4.24783
4.33685
4.41149
4.4725
4.52106
4.5581
4.58485
4.60251
4.61145
4.61384
4.61192
4.60808
4.59954
4.58371
4.56622
4.54856
4.53094
4.51336
4.49625
4.47996
4.46464
4.45046
4.43748
4.42577
4.41532
4.40643
4.39901
4.3931
4.38879
4.38617
4.38538
4.38664
4.39027
4.39674
4.40667
4.42109
4.44023
4.46629
4.48762
-1.6249
-1.62961
-1.63375
-1.637
-1.63909
-1.64008
-1.64003
-1.63911
-1.63752
-1.63558
-1.63367
-1.63221
-1.63161
-1.63222
-1.63438
-1.63834
-1.64437
-1.65272
-1.6636
-1.67714
-1.69333
-1.71202
-1.733
-1.756
-1.78063
-1.80646
-1.83313
-1.86045
-1.88822
-1.91599
-1.94328
-1.96975
-1.99516
-2.01934
-2.04217
-2.06358
-2.08351
-2.10196
-2.11893
-2.13445
-2.14854
-2.16126
-2.17264
-2.18275
-2.19164
-2.19936
-2.20597
-2.21152
-2.21606
-2.21965
-2.22232
-2.22412
-2.22509
-2.22526
-2.22467
-2.22336
-2.22134
-2.21864
-2.2153
-2.21132
-2.20674
-2.20157
-2.19583
-2.18953
-2.18271
-2.17536
-2.1675
-2.15916
-2.15034
-2.14105
-2.13132
-2.12115
-2.11055
-2.09953
-2.0881
-2.07627
-2.06404
-2.05142
-2.0384
-2.02498
-2.01114
-1.99688
-1.98218
-1.96701
-1.95133
-1.93511
-1.9183
-1.90083
-1.88264
-1.86364
-1.84374
-1.82284
-1.80081
-1.77751
-1.7528
-1.7265
-1.69843
-1.66838
-1.63616
-1.60151
-1.56419
-1.5239
-1.48033
-1.43316
-1.38204
-1.32659
-1.26645
-1.2012
-1.13044
-1.05375
-0.970705
-0.880888
-0.783883
-0.679291
-0.566738
-0.445881
-0.316427
-0.17814
-0.0308573
0.125491
0.290872
0.46513
0.647965
0.838916
1.03735
1.24244
1.45317
1.66831
1.88646
2.10601
2.3252
2.54213
2.75484
2.96141
3.16
3.34886
3.52638
3.69117
3.84213
3.9785
4.09985
4.20609
4.29743
4.37441
4.43778
4.48859
4.52784
4.55669
4.57643
4.58796
4.59268
4.59255
4.58923
4.58175
4.56905
4.55387
4.53775
4.52125
4.50469
4.48848
4.47294
4.45831
4.44472
4.43228
4.42108
4.41119
4.40272
4.39565
4.39003
4.38591
4.38339
4.38258
4.38365
4.38685
4.39254
4.4011
4.41311
4.42819
4.44693
4.45835
-1.60782
-1.61488
-1.62193
-1.62725
-1.63072
-1.63277
-1.63374
-1.63389
-1.63352
-1.63298
-1.63266
-1.63298
-1.63432
-1.63705
-1.64147
-1.64784
-1.65635
-1.66718
-1.6804
-1.69603
-1.71394
-1.73393
-1.75576
-1.7791
-1.80363
-1.82897
-1.85482
-1.88092
-1.90704
-1.93287
-1.95814
-1.9826
-2.00608
-2.02845
-2.04961
-2.06949
-2.08805
-2.10527
-2.12116
-2.13572
-2.14898
-2.16097
-2.17173
-2.18131
-2.18974
-2.19708
-2.20337
-2.20865
-2.21297
-2.21636
-2.21888
-2.22055
-2.22142
-2.22151
-2.22085
-2.21948
-2.21741
-2.21468
-2.2113
-2.2073
-2.2027
-2.19751
-2.19176
-2.18546
-2.17863
-2.17129
-2.16344
-2.15511
-2.14632
-2.13706
-2.12737
-2.11725
-2.10672
-2.09578
-2.08446
-2.07275
-2.06066
-2.04819
-2.03536
-2.02215
-2.00856
-1.99458
-1.98018
-1.96536
-1.95007
-1.93428
-1.91794
-1.90099
-1.88337
-1.865
-1.84578
-1.82562
-1.80439
-1.78196
-1.75818
-1.73289
-1.7059
-1.67702
-1.64602
-1.61267
-1.57672
-1.53787
-1.49582
-1.45025
-1.4008
-1.34711
-1.28879
-1.22544
-1.15664
-1.08198
-1.00102
-0.913334
-0.818503
-0.716113
-0.605777
-0.487135
-0.359875
-0.223739
-0.0785409
0.075815
0.239325
0.411867
0.593175
0.782817
0.98019
1.18451
1.39477
1.60977
1.82811
2.04818
2.26818
2.48622
2.70035
2.9086
3.10906
3.29989
3.47948
3.64639
3.7995
3.93802
4.06149
4.16982
4.26322
4.34222
4.40756
4.46027
4.50138
4.53205
4.55355
4.56684
4.57333
4.57468
4.57213
4.56557
4.55473
4.54121
4.52639
4.51102
4.49549
4.48017
4.46543
4.4515
4.43856
4.42671
4.41606
4.40667
4.3986
4.39187
4.38652
4.38259
4.38014
4.37926
4.38007
4.38275
4.38753
4.39458
4.40412
4.4153
4.42787
4.43176
-1.58882
-1.59801
-1.60774
-1.61516
-1.62018
-1.62356
-1.62582
-1.62734
-1.62848
-1.62962
-1.63118
-1.63355
-1.6371
-1.64217
-1.64901
-1.65781
-1.66872
-1.6818
-1.69703
-1.71433
-1.73353
-1.7544
-1.77668
-1.80006
-1.82425
-1.84896
-1.8739
-1.89884
-1.92356
-1.94784
-1.97147
-1.9943
-2.01619
-2.03705
-2.05678
-2.07535
-2.09271
-2.10885
-2.12376
-2.13746
-2.14996
-2.16128
-2.17147
-2.18054
-2.18854
-2.19551
-2.20149
-2.2065
-2.2106
-2.21382
-2.21618
-2.21773
-2.21849
-2.21849
-2.21776
-2.21632
-2.21421
-2.21144
-2.20803
-2.204
-2.19937
-2.19417
-2.1884
-2.18209
-2.17525
-2.16791
-2.16007
-2.15175
-2.14298
-2.13375
-2.1241
-2.11404
-2.10358
-2.09273
-2.0815
-2.06992
-2.05798
-2.04569
-2.03306
-2.02008
-2.00676
-1.99307
-1.97902
-1.96457
-1.9497
-1.93437
-1.91854
-1.90216
-1.88516
-1.86745
-1.84897
-1.82959
-1.80921
-1.7877
-1.76491
-1.74067
-1.71481
-1.68712
-1.65739
-1.62539
-1.59085
-1.55348
-1.51299
-1.46905
-1.4213
-1.36937
-1.31289
-1.25144
-1.18461
-1.11197
-1.03308
-0.947508
-0.854819
-0.75459
-0.646419
-0.52993
-0.404791
-0.27072
-0.127509
0.0249654
0.186729
0.357695
0.537629
0.726134
0.922634
1.12638
1.33639
1.55147
1.77023
1.99104
2.21211
2.43156
2.64739
2.85756
3.0601
3.25314
3.43496
3.60413
3.75947
3.90016
4.02575
4.1361
4.23145
4.31231
4.37946
4.43388
4.47663
4.50887
4.53185
4.54664
4.55461
4.55719
4.55547
4.54978
4.54031
4.52818
4.51458
4.50028
4.48572
4.4713
4.45736
4.44417
4.43189
4.42066
4.41057
4.40168
4.39403
4.38767
4.38259
4.37884
4.37645
4.37547
4.37599
4.37809
4.38189
4.38739
4.3945
4.4021
4.40947
4.40754
-1.57181
-1.58245
-1.59417
-1.60329
-1.60971
-1.61439
-1.61798
-1.62092
-1.62362
-1.62648
-1.6299
-1.63427
-1.63993
-1.64716
-1.65616
-1.66708
-1.67998
-1.69484
-1.71161
-1.73012
-1.75019
-1.77159
-1.79405
-1.81731
-1.8411
-1.86516
-1.88927
-1.9132
-1.93678
-1.95983
-1.98219
-2.00375
-2.02439
-2.04404
-2.06263
-2.08013
-2.09651
-2.11175
-2.12585
-2.13882
-2.15067
-2.16143
-2.17112
-2.17976
-2.1874
-2.19405
-2.19976
-2.20455
-2.20846
-2.21151
-2.21375
-2.21519
-2.21586
-2.21578
-2.21499
-2.21351
-2.21135
-2.20854
-2.2051
-2.20104
-2.19639
-2.19117
-2.18538
-2.17906
-2.17221
-2.16486
-2.15702
-2.14871
-2.13995
-2.13076
-2.12115
-2.11114
-2.10075
-2.08999
-2.07887
-2.06742
-2.05564
-2.04353
-2.03112
-2.01839
-2.00535
-1.99198
-1.97829
-1.96425
-1.94983
-1.935
-1.91972
-1.90394
-1.88759
-1.8706
-1.85289
-1.83435
-1.81487
-1.79432
-1.77256
-1.74943
-1.72474
-1.69829
-1.66989
-1.63927
-1.60618
-1.57034
-1.53145
-1.48916
-1.44315
-1.39303
-1.33841
-1.27888
-1.21403
-1.14342
-1.06661
-0.983152
-0.892601
-0.794524
-0.688502
-0.574145
-0.451098
-0.319058
-0.177791
-0.02715
0.132923
0.302377
0.481016
0.668471
0.864196
1.06747
1.27734
1.49262
1.71191
1.93363
2.15598
2.37702
2.59471
2.80697
3.01175
3.20712
3.39131
3.56282
3.72045
3.86335
3.99103
4.10337
4.20061
4.28326
4.35209
4.4081
4.45236
4.48603
4.51036
4.52651
4.53577
4.53947
4.53862
4.53381
4.52549
4.51459
4.50213
4.48885
4.47525
4.46171
4.4486
4.43617
4.4246
4.41402
4.40452
4.39616
4.38898
4.383
4.37822
4.37466
4.37233
4.37125
4.37145
4.37295
4.37575
4.37971
4.38452
4.38892
4.39195
4.38551
-1.55916
-1.57048
-1.58329
-1.59347
-1.60091
-1.60665
-1.61138
-1.6156
-1.6197
-1.62409
-1.62916
-1.63525
-1.64267
-1.65164
-1.66235
-1.67487
-1.68923
-1.70536
-1.72315
-1.74244
-1.76302
-1.78466
-1.80712
-1.83016
-1.85353
-1.87701
-1.9004
-1.92351
-1.94619
-1.96828
-1.98967
-2.01024
-2.02993
-2.04866
-2.06638
-2.08306
-2.09868
-2.11323
-2.12671
-2.13912
-2.15048
-2.1608
-2.17011
-2.17843
-2.18578
-2.1922
-2.19771
-2.20234
-2.20611
-2.20905
-2.21119
-2.21256
-2.21317
-2.21304
-2.21221
-2.21069
-2.2085
-2.20566
-2.2022
-2.19812
-2.19344
-2.18819
-2.18239
-2.17605
-2.16919
-2.16183
-2.15398
-2.14568
-2.13693
-2.12776
-2.11818
-2.10823
-2.0979
-2.08723
-2.07623
-2.06491
-2.05329
-2.04138
-2.02919
-2.01673
-2.00398
-1.99096
-1.97765
-1.96404
-1.9501
-1.9358
-1.9211
-1.90595
-1.8903
-1.87406
-1.85716
-1.83949
-1.82095
-1.80141
-1.78073
-1.75874
-1.73526
-1.71011
-1.68306
-1.65386
-1.62227
-1.58799
-1.55072
-1.51014
-1.46588
-1.41758
-1.36484
-1.30726
-1.24441
-1.17584
-1.10111
-1.01977
-0.931354
-0.835425
-0.731547
-0.619311
-0.498344
-0.368322
-0.228979
-0.080149
0.0782579
0.246226
0.423595
0.610029
0.805006
1.00783
1.21759
1.43313
1.65305
1.87576
2.09946
2.32216
2.5418
2.75621
2.9633
3.16106
3.34766
3.52154
3.68147
3.82656
3.95632
4.07062
4.16968
4.25405
4.3245
4.38203
4.42771
4.46274
4.48836
4.50578
4.51624
4.521
4.52107
4.51717
4.50993
4.50017
4.4888
4.47655
4.46391
4.45129
4.43904
4.42741
4.4166
4.40672
4.39786
4.39008
4.38341
4.37785
4.3734
4.37005
4.3678
4.36662
4.36651
4.36741
4.36924
4.37172
4.37442
4.37598
4.37542
4.36547
-1.55178
-1.56308
-1.57601
-1.58653
-1.5945
-1.60092
-1.60649
-1.61168
-1.61688
-1.62247
-1.62881
-1.6362
-1.64491
-1.65513
-1.66701
-1.68058
-1.69585
-1.71272
-1.73108
-1.75075
-1.77152
-1.79317
-1.81549
-1.83823
-1.86119
-1.88416
-1.90696
-1.92943
-1.95142
-1.9728
-1.99347
-2.01334
-2.03233
-2.05041
-2.06751
-2.08362
-2.09871
-2.11278
-2.12583
-2.13787
-2.14889
-2.15893
-2.168
-2.17611
-2.1833
-2.18957
-2.19497
-2.19951
-2.20321
-2.2061
-2.2082
-2.20954
-2.21012
-2.20998
-2.20913
-2.20759
-2.20539
-2.20253
-2.19904
-2.19494
-2.19025
-2.18498
-2.17915
-2.17278
-2.1659
-2.15852
-2.15067
-2.14236
-2.13361
-2.12446
-2.11491
-2.105
-2.09474
-2.08415
-2.07326
-2.06208
-2.05063
-2.03892
-2.02697
-2.01477
-2.00234
-1.98968
-1.97677
-1.9636
-1.95016
-1.93641
-1.92232
-1.90784
-1.89291
-1.87745
-1.8614
-1.84464
-1.82708
-1.80858
-1.789
-1.76819
-1.74596
-1.72212
-1.69646
-1.66871
-1.63864
-1.60594
-1.57032
-1.53144
-1.48896
-1.44249
-1.39165
-1.33601
-1.27515
-1.20862
-1.13596
-1.05672
-0.970434
-0.876636
-0.774883
-0.664752
-0.545849
-0.417828
-0.280398
-0.133364
0.023385
0.189868
0.365952
0.551344
0.745568
0.947948
1.15759
1.37337
1.5939
1.8176
2.04262
2.26697
2.48852
2.70507
2.91443
3.11454
3.30351
3.47972
3.64189
3.78912
3.9209
4.03709
4.13793
4.22395
4.29596
4.35495
4.40202
4.43837
4.46525
4.48389
4.49553
4.50136
4.5024
4.49948
4.4933
4.48466
4.47439
4.46318
4.45155
4.4399
4.42857
4.41781
4.40782
4.3987
4.39055
4.38341
4.3773
4.37221
4.36813
4.36504
4.36289
4.36164
4.36123
4.36156
4.36246
4.36357
4.36436
4.36345
4.35992
4.34723
-1.54942
-1.56003
-1.57227
-1.58245
-1.59043
-1.59711
-1.60313
-1.60891
-1.61482
-1.62121
-1.62838
-1.63661
-1.64612
-1.65708
-1.66961
-1.68372
-1.6994
-1.71657
-1.7351
-1.7548
-1.7755
-1.79698
-1.81903
-1.84144
-1.864
-1.88653
-1.90886
-1.93083
-1.95232
-1.9732
-1.99338
-2.01278
-2.03134
-2.049
-2.06572
-2.08148
-2.09627
-2.11008
-2.1229
-2.13473
-2.1456
-2.15551
-2.16447
-2.17251
-2.17965
-2.18589
-2.19127
-2.19581
-2.19952
-2.20242
-2.20453
-2.20588
-2.20648
-2.20635
-2.20551
-2.20398
-2.20177
-2.1989
-2.1954
-2.19128
-2.18656
-2.18126
-2.17541
-2.16901
-2.1621
-2.15469
-2.14681
-2.13848
-2.12973
-2.12058
-2.11105
-2.10118
-2.09097
-2.08047
-2.06968
-2.05864
-2.04735
-2.03584
-2.02413
-2.01221
-2.00011
-1.98781
-1.97532
-1.96262
-1.9497
-1.93652
-1.92306
-1.90927
-1.89508
-1.88044
-1.86525
-1.84943
-1.83287
-1.81543
-1.79698
-1.77737
-1.75641
-1.73391
-1.70964
-1.68335
-1.6548
-1.62369
-1.58971
-1.55254
-1.51182
-1.46717
-1.4182
-1.36449
-1.3056
-1.24108
-1.17047
-1.0933
-1.0091
-0.917391
-0.817728
-0.709665
-0.592796
-0.466754
-0.331227
-0.185979
-0.0308739
0.134124
0.308915
0.493244
0.686673
0.888559
1.09803
1.31398
1.53505
1.75962
1.98587
2.21175
2.43509
2.65363
2.86513
3.06745
3.25864
3.43705
3.60134
3.75059
3.88427
4.00226
4.10478
4.1924
4.26591
4.32632
4.37475
4.4124
4.44054
4.4604
4.47322
4.48015
4.48225
4.48038
4.47531
4.46782
4.45869
4.44859
4.43803
4.42741
4.41708
4.40728
4.39819
4.38992
4.38255
4.37612
4.37064
4.36608
4.36243
4.35963
4.35762
4.35634
4.35568
4.35548
4.35553
4.35539
4.35447
4.35144
4.34545
4.33061
-1.55102
-1.56042
-1.5713
-1.58058
-1.58811
-1.59463
-1.6007
-1.60668
-1.61291
-1.61967
-1.62725
-1.63587
-1.64573
-1.65698
-1.6697
-1.68393
-1.69963
-1.71672
-1.73509
-1.75458
-1.77499
-1.79615
-1.81785
-1.83988
-1.86206
-1.88421
-1.90616
-1.92778
-1.94892
-1.96949
-1.98939
-2.00853
-2.02685
-2.04432
-2.06088
-2.07651
-2.0912
-2.10494
-2.11771
-2.12954
-2.14041
-2.15034
-2.15935
-2.16745
-2.17465
-2.18097
-2.18643
-2.19104
-2.19482
-2.1978
-2.19998
-2.20139
-2.20204
-2.20195
-2.20114
-2.19962
-2.19742
-2.19456
-2.19104
-2.1869
-2.18215
-2.17681
-2.17091
-2.16447
-2.15751
-2.15005
-2.14213
-2.13377
-2.125
-2.11584
-2.10632
-2.09647
-2.08631
-2.07588
-2.06519
-2.05428
-2.04316
-2.03185
-2.02038
-2.00875
-1.99697
-1.98505
-1.97299
-1.96077
-1.94838
-1.9358
-1.92298
-1.90989
-1.89647
-1.88266
-1.86836
-1.85349
-1.83794
-1.82158
-1.80428
-1.78588
-1.76619
-1.74502
-1.72213
-1.6973
-1.67026
-1.64072
-1.60837
-1.57288
-1.53389
-1.49103
-1.44389
-1.39206
-1.33509
-1.27253
-1.20391
-1.12875
-1.04657
-0.956898
-0.859263
-0.753211
-0.638319
-0.514204
-0.380535
-0.237049
-0.0835775
0.0799384
0.253429
0.436671
0.629259
0.830578
1.03979
1.25579
1.47724
1.70253
1.92981
2.15701
2.38191
2.6022
2.81559
3.01987
3.21305
3.39341
3.55961
3.71068
3.8461
3.96573
4.06983
4.15894
4.23389
4.29567
4.34544
4.3844
4.41381
4.43492
4.44895
4.45706
4.4603
4.45957
4.45568
4.44942
4.44151
4.4326
4.4232
4.41372
4.40449
4.39574
4.38764
4.38031
4.37382
4.36818
4.3634
4.35945
4.35629
4.35384
4.35203
4.35077
4.3499
4.34925
4.34852
4.34727
4.34486
4.34001
4.332
4.31547
-1.5551
-1.56294
-1.57202
-1.57998
-1.58668
-1.59268
-1.59844
-1.60427
-1.61043
-1.6172
-1.62479
-1.63342
-1.64325
-1.65441
-1.66697
-1.68097
-1.69637
-1.71312
-1.7311
-1.75016
-1.77014
-1.79087
-1.81214
-1.83378
-1.8556
-1.87742
-1.89908
-1.92045
-1.9414
-1.96181
-1.98158
-2.00065
-2.01894
-2.0364
-2.053
-2.0687
-2.08347
-2.09732
-2.11023
-2.1222
-2.13324
-2.14334
-2.15252
-2.1608
-2.16817
-2.17466
-2.18028
-2.18505
-2.18898
-2.19208
-2.19437
-2.19588
-2.19661
-2.19658
-2.19581
-2.19432
-2.19213
-2.18925
-2.18572
-2.18154
-2.17674
-2.17135
-2.16539
-2.15888
-2.15186
-2.14434
-2.13636
-2.12795
-2.11913
-2.10994
-2.10041
-2.09057
-2.08045
-2.07007
-2.05948
-2.04869
-2.03773
-2.02663
-2.0154
-2.00406
-1.99262
-1.98109
-1.96946
-1.95774
-1.94589
-1.93391
-1.92176
-1.90939
-1.89674
-1.88376
-1.87036
-1.85645
-1.84193
-1.82666
-1.8105
-1.7933
-1.77487
-1.75501
-1.7335
-1.7101
-1.68454
-1.65653
-1.62576
-1.59191
-1.5546
-1.51346
-1.46809
-1.41807
-1.36294
-1.30226
-1.23554
-1.16231
-1.08207
-0.994347
-0.898653
-0.794527
-0.681533
-0.55927
-0.42739
-0.285611
-0.133739
0.0283123
0.200499
0.382626
0.574316
0.774982
0.983803
1.19971
1.42135
1.64713
1.87517
2.10338
2.32952
2.55122
2.76614
2.97203
3.16684
3.34882
3.51661
3.66923
3.80614
3.92723
4.03273
4.12322
4.19952
4.26263
4.31371
4.35398
4.38469
4.40709
4.42241
4.43178
4.43627
4.43679
4.43419
4.42924
4.42265
4.41505
4.40693
4.39871
4.39069
4.38311
4.37612
4.36984
4.36432
4.35957
4.35559
4.35232
4.34972
4.34769
4.34615
4.34496
4.34396
4.34292
4.34153
4.3393
4.3356
4.32922
4.31955
4.30169
-1.56017
-1.56627
-1.57331
-1.57968
-1.58526
-1.59046
-1.59562
-1.60098
-1.60677
-1.61322
-1.62051
-1.62883
-1.63833
-1.6491
-1.66123
-1.67474
-1.68963
-1.70583
-1.72325
-1.74176
-1.76121
-1.78144
-1.80226
-1.8235
-1.84497
-1.86651
-1.88797
-1.90919
-1.93005
-1.95043
-1.97024
-1.98938
-2.0078
-2.02543
-2.04222
-2.05815
-2.07318
-2.0873
-2.1005
-2.11276
-2.12409
-2.13449
-2.14396
-2.15251
-2.16016
-2.1669
-2.17275
-2.17773
-2.18185
-2.18511
-2.18755
-2.18917
-2.18999
-2.19003
-2.1893
-2.18783
-2.18564
-2.18274
-2.17916
-2.17493
-2.17007
-2.16459
-2.15855
-2.15195
-2.14483
-2.13722
-2.12916
-2.12067
-2.11179
-2.10255
-2.09299
-2.08314
-2.07304
-2.06271
-2.0522
-2.04153
-2.03074
-2.01983
-2.00885
-1.9978
-1.98671
-1.97557
-1.96439
-1.95316
-1.94188
-1.93051
-1.91903
-1.90739
-1.89553
-1.8834
-1.87091
-1.85796
-1.84445
-1.83026
-1.81524
-1.79922
-1.78203
-1.76346
-1.74329
-1.72128
-1.69715
-1.67062
-1.64138
-1.60909
-1.57339
-1.5339
-1.49021
-1.44189
-1.38851
-1.3296
-1.26468
-1.19326
-1.11484
-1.02895
-0.935078
-0.832765
-0.721561
-0.601051
-0.470871
-0.330723
-0.180393
-0.0197732
0.151117
0.332106
0.522839
0.722752
0.931044
1.14666
1.36826
1.59423
1.8227
2.05156
2.27852
2.50119
2.71718
2.9242
3.12018
3.30336
3.47233
3.62614
3.76424
3.88652
3.99323
4.08494
4.16248
4.22687
4.27924
4.32083
4.35287
4.37663
4.3933
4.40404
4.40989
4.4118
4.41061
4.4071
4.40195
4.39579
4.38909
4.38226
4.37559
4.36931
4.36356
4.35845
4.35402
4.35027
4.34718
4.3447
4.34274
4.34122
4.34001
4.33897
4.33791
4.33657
4.33462
4.33157
4.32677
4.3191
4.30806
4.28917
-1.56495
-1.56927
-1.5742
-1.57884
-1.58313
-1.58732
-1.59164
-1.59629
-1.60146
-1.60733
-1.61406
-1.62182
-1.63074
-1.64091
-1.65241
-1.66528
-1.67949
-1.69502
-1.71177
-1.72965
-1.74851
-1.76819
-1.78854
-1.80938
-1.83053
-1.85185
-1.87315
-1.89431
-1.91518
-1.93565
-1.95561
-1.97497
-1.99365
-2.01158
-2.02872
-2.04501
-2.06044
-2.07496
-2.08856
-2.10123
-2.11297
-2.12376
-2.13361
-2.14252
-2.15049
-2.15754
-2.16367
-2.1689
-2.17323
-2.17668
-2.17927
-2.18101
-2.18191
-2.182
-2.1813
-2.17983
-2.17761
-2.17467
-2.17102
-2.1667
-2.16174
-2.15616
-2.14999
-2.14327
-2.13603
-2.1283
-2.12012
-2.11153
-2.10256
-2.09326
-2.08365
-2.07378
-2.06369
-2.05341
-2.04297
-2.03242
-2.02179
-2.01109
-2.00036
-1.98962
-1.97887
-1.96814
-1.95742
-1.94672
-1.936
-1.92526
-1.91446
-1.90356
-1.89251
-1.88123
-1.86964
-1.85765
-1.84516
-1.83203
-1.81812
-1.80326
-1.78728
-1.76996
-1.75108
-1.7304
-1.70765
-1.68254
-1.65474
-1.62393
-1.58974
-1.55179
-1.50967
-1.46295
-1.41119
-1.35391
-1.29064
-1.22089
-1.14416
-1.05994
-0.967758
-0.867118
-0.757567
-0.638683
-0.51009
-0.371476
-0.222612
-0.0633723
0.106241
0.286074
0.475791
0.674844
0.882449
1.09756
1.31883
1.54467
1.77318
2.00223
2.22951
2.4526
2.6691
2.8767
3.0733
3.25713
3.42681
3.58137
3.72028
3.84344
3.95111
4.04387
4.12253
4.18811
4.24174
4.28465
4.31807
4.34324
4.36136
4.37357
4.38092
4.38435
4.38472
4.3828
4.37925
4.37468
4.36956
4.36427
4.35911
4.35428
4.34992
4.34612
4.3429
4.34028
4.33819
4.33658
4.33537
4.33444
4.33365
4.33284
4.3318
4.33026
4.32787
4.32412
4.31841
4.30968
4.29753
4.27784
-1.56875
-1.57136
-1.5742
-1.57707
-1.57994
-1.58293
-1.5862
-1.5899
-1.59419
-1.59923
-1.60516
-1.61212
-1.62024
-1.62961
-1.6403
-1.65234
-1.66574
-1.68047
-1.69645
-1.71361
-1.7318
-1.7509
-1.77075
-1.79119
-1.81204
-1.83316
-1.85436
-1.87552
-1.89649
-1.91713
-1.93734
-1.95702
-1.97608
-1.99444
-2.01204
-2.02883
-2.04476
-2.0598
-2.07392
-2.0871
-2.09932
-2.11058
-2.12088
-2.1302
-2.13856
-2.14595
-2.15239
-2.15788
-2.16244
-2.16607
-2.1688
-2.17065
-2.17162
-2.17174
-2.17104
-2.16954
-2.16726
-2.16423
-2.16048
-2.15604
-2.15095
-2.14522
-2.1389
-2.13203
-2.12464
-2.11676
-2.10845
-2.09974
-2.09067
-2.08128
-2.07162
-2.06173
-2.05164
-2.04141
-2.03107
-2.02065
-2.01019
-1.99972
-1.98927
-1.97885
-1.9685
-1.9582
-1.94798
-1.93782
-1.92772
-1.91764
-1.90756
-1.89743
-1.8872
-1.87679
-1.86614
-1.85513
-1.84366
-1.83159
-1.81879
-1.80509
-1.79029
-1.7742
-1.75659
-1.7372
-1.71577
-1.692
-1.66559
-1.63617
-1.60341
-1.5669
-1.52624
-1.481
-1.43072
-1.37495
-1.3132
-1.24498
-1.16977
-1.08709
-0.996438