# vtk DataFile Version 2.0
sampleSurface
ASCII
DATASET POLYDATA
POINTS 502 double
-0.0206 0 -0.0005
-0.0190172 0 -0.0005
-0.0190172 0 0.0005
-0.0206 0 0.0005
-0.0174976 0 -0.0005
-0.0174976 0 0.0005
-0.0160387 0 -0.0005
-0.0160387 0 0.0005
-0.0146381 0 -0.0005
-0.0146381 0 0.0005
-0.0132934 0 -0.0005
-0.0132934 0 0.0005
-0.0120025 0 -0.0005
-0.0120025 0 0.0005
-0.0107632 0 -0.0005
-0.0107632 0 0.0005
-0.00957337 0 -0.0005
-0.00957337 0 0.0005
-0.00843108 0 -0.0005
-0.00843108 0 0.0005
-0.00733443 0 -0.0005
-0.00733443 0 0.0005
-0.0062816 0 -0.0005
-0.0062816 0 0.0005
-0.00527083 0 -0.0005
-0.00527083 0 0.0005
-0.00430044 0 -0.0005
-0.00430044 0 0.0005
-0.00336883 0 -0.0005
-0.00336883 0 0.0005
-0.00247443 0 -0.0005
-0.00247443 0 0.0005
-0.00161577 0 -0.0005
-0.00161577 0 0.0005
-0.000791418 0 -0.0005
-0.000791418 0 0.0005
0 0 -0.0005
0 0 0.0005
0 -0.0254 -0.0005
0 -0.0254 0.0005
0 -0.0242711 0.0005
0 -0.0242711 -0.0005
0 -0.0231422 0.0005
0 -0.0231422 -0.0005
0 -0.0220133 0.0005
0 -0.0220133 -0.0005
0 -0.0208844 0.0005
0 -0.0208844 -0.0005
0 -0.0197556 0.0005
0 -0.0197556 -0.0005
0 -0.0186267 0.0005
0 -0.0186267 -0.0005
0 -0.0174978 0.0005
0 -0.0174978 -0.0005
0 -0.0163689 0.0005
0 -0.0163689 -0.0005
0 -0.01524 0.0005
0 -0.01524 -0.0005
0 -0.0141111 0.0005
0 -0.0141111 -0.0005
0 -0.0129822 0.0005
0 -0.0129822 -0.0005
0 -0.0118533 0.0005
0 -0.0118533 -0.0005
0 -0.0107244 0.0005
0 -0.0107244 -0.0005
0 -0.00959556 0.0005
0 -0.00959556 -0.0005
0 -0.00846667 0.0005
0 -0.00846667 -0.0005
0 -0.00726604 0.0005
0 -0.00726604 -0.0005
0 -0.00618989 0.0005
0 -0.00618989 -0.0005
0 -0.00522531 0.0005
0 -0.00522531 -0.0005
0 -0.00436073 0.0005
0 -0.00436073 -0.0005
0 -0.00358579 0.0005
0 -0.00358579 -0.0005
0 -0.00289118 0.0005
0 -0.00289118 -0.0005
0 -0.0022686 0.0005
0 -0.0022686 -0.0005
0 -0.00171055 0.0005
0 -0.00171055 -0.0005
0 -0.00121037 0.0005
0 -0.00121037 -0.0005
0 -0.000762037 0.0005
0 -0.000762037 -0.0005
0 -0.000360188 0.0005
0 -0.000360188 -0.0005
0.000528387 -0.0254 -0.0005
0.000528387 -0.0254 0.0005
0.00106088 -0.0254 -0.0005
0.00106088 -0.0254 0.0005
0.00159752 -0.0254 -0.0005
0.00159752 -0.0254 0.0005
0.00213833 -0.0254 -0.0005
0.00213833 -0.0254 0.0005
0.00268334 -0.0254 -0.0005
0.00268334 -0.0254 0.0005
0.00323259 -0.0254 -0.0005
0.00323259 -0.0254 0.0005
0.00378611 -0.0254 -0.0005
0.00378611 -0.0254 0.0005
0.00434393 -0.0254 -0.0005
0.00434393 -0.0254 0.0005
0.00490609 -0.0254 -0.0005
0.00490609 -0.0254 0.0005
0.00547262 -0.0254 -0.0005
0.00547262 -0.0254 0.0005
0.00604356 -0.0254 -0.0005
0.00604356 -0.0254 0.0005
0.00661893 -0.0254 -0.0005
0.00661893 -0.0254 0.0005
0.00719878 -0.0254 -0.0005
0.00719878 -0.0254 0.0005
0.00778313 -0.0254 -0.0005
0.00778313 -0.0254 0.0005
0.00837203 -0.0254 -0.0005
0.00837203 -0.0254 0.0005
0.00896551 -0.0254 -0.0005
0.00896551 -0.0254 0.0005
0.0095636 -0.0254 -0.0005
0.0095636 -0.0254 0.0005
0.0101663 -0.0254 -0.0005
0.0101663 -0.0254 0.0005
0.0107738 -0.0254 -0.0005
0.0107738 -0.0254 0.0005
0.0113859 -0.0254 -0.0005
0.0113859 -0.0254 0.0005
0.0120028 -0.0254 -0.0005
0.0120028 -0.0254 0.0005
0.0126245 -0.0254 -0.0005
0.0126245 -0.0254 0.0005
0.0132511 -0.0254 -0.0005
0.0132511 -0.0254 0.0005
0.0138825 -0.0254 -0.0005
0.0138825 -0.0254 0.0005
0.0145188 -0.0254 -0.0005
0.0145188 -0.0254 0.0005
0.0151601 -0.0254 -0.0005
0.0151601 -0.0254 0.0005
0.0158063 -0.0254 -0.0005
0.0158063 -0.0254 0.0005
0.0164576 -0.0254 -0.0005
0.0164576 -0.0254 0.0005
0.0171139 -0.0254 -0.0005
0.0171139 -0.0254 0.0005
0.0177754 -0.0254 -0.0005
0.0177754 -0.0254 0.0005
0.018442 -0.0254 -0.0005
0.018442 -0.0254 0.0005
0.0191137 -0.0254 -0.0005
0.0191137 -0.0254 0.0005
0.0197907 -0.0254 -0.0005
0.0197907 -0.0254 0.0005
0.020473 -0.0254 -0.0005
0.020473 -0.0254 0.0005
0.0211606 -0.0254 -0.0005
0.0211606 -0.0254 0.0005
0.0218535 -0.0254 -0.0005
0.0218535 -0.0254 0.0005
0.0225517 -0.0254 -0.0005
0.0225517 -0.0254 0.0005
0.0232555 -0.0254 -0.0005
0.0232555 -0.0254 0.0005
0.0239647 -0.0254 -0.0005
0.0239647 -0.0254 0.0005
0.0246794 -0.0254 -0.0005
0.0246794 -0.0254 0.0005
0.0253996 -0.0254 -0.0005
0.0253996 -0.0254 0.0005
0.0261255 -0.0254 -0.0005
0.0261255 -0.0254 0.0005
0.026857 -0.0254 -0.0005
0.026857 -0.0254 0.0005
0.0275942 -0.0254 -0.0005
0.0275942 -0.0254 0.0005
0.0283371 -0.0254 -0.0005
0.0283371 -0.0254 0.0005
0.0290858 -0.0254 -0.0005
0.0290858 -0.0254 0.0005
0.0298403 -0.0254 -0.0005
0.0298403 -0.0254 0.0005
0.0306007 -0.0254 -0.0005
0.0306007 -0.0254 0.0005
0.031367 -0.0254 -0.0005
0.031367 -0.0254 0.0005
0.0321393 -0.0254 -0.0005
0.0321393 -0.0254 0.0005
0.0329175 -0.0254 -0.0005
0.0329175 -0.0254 0.0005
0.0337019 -0.0254 -0.0005
0.0337019 -0.0254 0.0005
0.0344923 -0.0254 -0.0005
0.0344923 -0.0254 0.0005
0.0352888 -0.0254 -0.0005
0.0352888 -0.0254 0.0005
0.0360916 -0.0254 -0.0005
0.0360916 -0.0254 0.0005
0.0369006 -0.0254 -0.0005
0.0369006 -0.0254 0.0005
0.0377158 -0.0254 -0.0005
0.0377158 -0.0254 0.0005
0.0385375 -0.0254 -0.0005
0.0385375 -0.0254 0.0005
0.0393655 -0.0254 -0.0005
0.0393655 -0.0254 0.0005
0.0401999 -0.0254 -0.0005
0.0401999 -0.0254 0.0005
0.0410408 -0.0254 -0.0005
0.0410408 -0.0254 0.0005
0.0418883 -0.0254 -0.0005
0.0418883 -0.0254 0.0005
0.0427424 -0.0254 -0.0005
0.0427424 -0.0254 0.0005
0.0436031 -0.0254 -0.0005
0.0436031 -0.0254 0.0005
0.0444704 -0.0254 -0.0005
0.0444704 -0.0254 0.0005
0.0453446 -0.0254 -0.0005
0.0453446 -0.0254 0.0005
0.0462255 -0.0254 -0.0005
0.0462255 -0.0254 0.0005
0.0471133 -0.0254 -0.0005
0.0471133 -0.0254 0.0005
0.048008 -0.0254 -0.0005
0.048008 -0.0254 0.0005
0.0489096 -0.0254 -0.0005
0.0489096 -0.0254 0.0005
0.0498183 -0.0254 -0.0005
0.0498183 -0.0254 0.0005
0.050734 -0.0254 -0.0005
0.050734 -0.0254 0.0005
0.0516568 -0.0254 -0.0005
0.0516568 -0.0254 0.0005
0.0525868 -0.0254 -0.0005
0.0525868 -0.0254 0.0005
0.053524 -0.0254 -0.0005
0.053524 -0.0254 0.0005
0.0544686 -0.0254 -0.0005
0.0544686 -0.0254 0.0005
0.0554204 -0.0254 -0.0005
0.0554204 -0.0254 0.0005
0.0563797 -0.0254 -0.0005
0.0563797 -0.0254 0.0005
0.0573464 -0.0254 -0.0005
0.0573464 -0.0254 0.0005
0.0583206 -0.0254 -0.0005
0.0583206 -0.0254 0.0005
0.0593025 -0.0254 -0.0005
0.0593025 -0.0254 0.0005
0.0602919 -0.0254 -0.0005
0.0602919 -0.0254 0.0005
0.0612891 -0.0254 -0.0005
0.0612891 -0.0254 0.0005
0.0622939 -0.0254 -0.0005
0.0622939 -0.0254 0.0005
0.0633067 -0.0254 -0.0005
0.0633067 -0.0254 0.0005
0.0643272 -0.0254 -0.0005
0.0643272 -0.0254 0.0005
0.0653557 -0.0254 -0.0005
0.0653557 -0.0254 0.0005
0.0663923 -0.0254 -0.0005
0.0663923 -0.0254 0.0005
0.0674368 -0.0254 -0.0005
0.0674368 -0.0254 0.0005
0.0684895 -0.0254 -0.0005
0.0684895 -0.0254 0.0005
0.0695504 -0.0254 -0.0005
0.0695504 -0.0254 0.0005
0.0706195 -0.0254 -0.0005
0.0706195 -0.0254 0.0005
0.0716969 -0.0254 -0.0005
0.0716969 -0.0254 0.0005
0.0727828 -0.0254 -0.0005
0.0727828 -0.0254 0.0005
0.073877 -0.0254 -0.0005
0.073877 -0.0254 0.0005
0.0749798 -0.0254 -0.0005
0.0749798 -0.0254 0.0005
0.0760911 -0.0254 -0.0005
0.0760911 -0.0254 0.0005
0.0772111 -0.0254 -0.0005
0.0772111 -0.0254 0.0005
0.0783398 -0.0254 -0.0005
0.0783398 -0.0254 0.0005
0.0794772 -0.0254 -0.0005
0.0794772 -0.0254 0.0005
0.0806235 -0.0254 -0.0005
0.0806235 -0.0254 0.0005
0.0817787 -0.0254 -0.0005
0.0817787 -0.0254 0.0005
0.0829429 -0.0254 -0.0005
0.0829429 -0.0254 0.0005
0.0841162 -0.0254 -0.0005
0.0841162 -0.0254 0.0005
0.0852985 -0.0254 -0.0005
0.0852985 -0.0254 0.0005
0.0864901 -0.0254 -0.0005
0.0864901 -0.0254 0.0005
0.0876909 -0.0254 -0.0005
0.0876909 -0.0254 0.0005
0.0889011 -0.0254 -0.0005
0.0889011 -0.0254 0.0005
0.0901207 -0.0254 -0.0005
0.0901207 -0.0254 0.0005
0.0913497 -0.0254 -0.0005
0.0913497 -0.0254 0.0005
0.0925883 -0.0254 -0.0005
0.0925883 -0.0254 0.0005
0.0938366 -0.0254 -0.0005
0.0938366 -0.0254 0.0005
0.0950945 -0.0254 -0.0005
0.0950945 -0.0254 0.0005
0.0963622 -0.0254 -0.0005
0.0963622 -0.0254 0.0005
0.0976398 -0.0254 -0.0005
0.0976398 -0.0254 0.0005
0.0989273 -0.0254 -0.0005
0.0989273 -0.0254 0.0005
0.100225 -0.0254 -0.0005
0.100225 -0.0254 0.0005
0.101532 -0.0254 -0.0005
0.101532 -0.0254 0.0005
0.10285 -0.0254 -0.0005
0.10285 -0.0254 0.0005
0.104178 -0.0254 -0.0005
0.104178 -0.0254 0.0005
0.105517 -0.0254 -0.0005
0.105517 -0.0254 0.0005
0.106865 -0.0254 -0.0005
0.106865 -0.0254 0.0005
0.108225 -0.0254 -0.0005
0.108225 -0.0254 0.0005
0.109594 -0.0254 -0.0005
0.109594 -0.0254 0.0005
0.110975 -0.0254 -0.0005
0.110975 -0.0254 0.0005
0.112366 -0.0254 -0.0005
0.112366 -0.0254 0.0005
0.113768 -0.0254 -0.0005
0.113768 -0.0254 0.0005
0.115181 -0.0254 -0.0005
0.115181 -0.0254 0.0005
0.116605 -0.0254 -0.0005
0.116605 -0.0254 0.0005
0.11804 -0.0254 -0.0005
0.11804 -0.0254 0.0005
0.119486 -0.0254 -0.0005
0.119486 -0.0254 0.0005
0.120943 -0.0254 -0.0005
0.120943 -0.0254 0.0005
0.122412 -0.0254 -0.0005
0.122412 -0.0254 0.0005
0.123892 -0.0254 -0.0005
0.123892 -0.0254 0.0005
0.125384 -0.0254 -0.0005
0.125384 -0.0254 0.0005
0.126887 -0.0254 -0.0005
0.126887 -0.0254 0.0005
0.128402 -0.0254 -0.0005
0.128402 -0.0254 0.0005
0.129928 -0.0254 -0.0005
0.129928 -0.0254 0.0005
0.131467 -0.0254 -0.0005
0.131467 -0.0254 0.0005
0.133017 -0.0254 -0.0005
0.133017 -0.0254 0.0005
0.13458 -0.0254 -0.0005
0.13458 -0.0254 0.0005
0.136155 -0.0254 -0.0005
0.136155 -0.0254 0.0005
0.137742 -0.0254 -0.0005
0.137742 -0.0254 0.0005
0.139341 -0.0254 -0.0005
0.139341 -0.0254 0.0005
0.140953 -0.0254 -0.0005
0.140953 -0.0254 0.0005
0.142577 -0.0254 -0.0005
0.142577 -0.0254 0.0005
0.144214 -0.0254 -0.0005
0.144214 -0.0254 0.0005
0.145863 -0.0254 -0.0005
0.145863 -0.0254 0.0005
0.147526 -0.0254 -0.0005
0.147526 -0.0254 0.0005
0.149201 -0.0254 -0.0005
0.149201 -0.0254 0.0005
0.15089 -0.0254 -0.0005
0.15089 -0.0254 0.0005
0.152591 -0.0254 -0.0005
0.152591 -0.0254 0.0005
0.154306 -0.0254 -0.0005
0.154306 -0.0254 0.0005
0.156034 -0.0254 -0.0005
0.156034 -0.0254 0.0005
0.157775 -0.0254 -0.0005
0.157775 -0.0254 0.0005
0.159531 -0.0254 -0.0005
0.159531 -0.0254 0.0005
0.161299 -0.0254 -0.0005
0.161299 -0.0254 0.0005
0.163082 -0.0254 -0.0005
0.163082 -0.0254 0.0005
0.164878 -0.0254 -0.0005
0.164878 -0.0254 0.0005
0.166688 -0.0254 -0.0005
0.166688 -0.0254 0.0005
0.168513 -0.0254 -0.0005
0.168513 -0.0254 0.0005
0.170351 -0.0254 -0.0005
0.170351 -0.0254 0.0005
0.172204 -0.0254 -0.0005
0.172204 -0.0254 0.0005
0.174071 -0.0254 -0.0005
0.174071 -0.0254 0.0005
0.175953 -0.0254 -0.0005
0.175953 -0.0254 0.0005
0.177849 -0.0254 -0.0005
0.177849 -0.0254 0.0005
0.17976 -0.0254 -0.0005
0.17976 -0.0254 0.0005
0.181686 -0.0254 -0.0005
0.181686 -0.0254 0.0005
0.183627 -0.0254 -0.0005
0.183627 -0.0254 0.0005
0.185583 -0.0254 -0.0005
0.185583 -0.0254 0.0005
0.187555 -0.0254 -0.0005
0.187555 -0.0254 0.0005
0.189541 -0.0254 -0.0005
0.189541 -0.0254 0.0005
0.191543 -0.0254 -0.0005
0.191543 -0.0254 0.0005
0.193561 -0.0254 -0.0005
0.193561 -0.0254 0.0005
0.195594 -0.0254 -0.0005
0.195594 -0.0254 0.0005
0.197643 -0.0254 -0.0005
0.197643 -0.0254 0.0005
0.199708 -0.0254 -0.0005
0.199708 -0.0254 0.0005
0.201789 -0.0254 -0.0005
0.201789 -0.0254 0.0005
0.203886 -0.0254 -0.0005
0.203886 -0.0254 0.0005
0.206 -0.0254 -0.0005
0.206 -0.0254 0.0005
0.208047 -0.0251856 -0.0005
0.208047 -0.0251856 0.0005
0.210173 -0.0249628 -0.0005
0.210173 -0.0249628 0.0005
0.212382 -0.0247314 -0.0005
0.212382 -0.0247314 0.0005
0.214677 -0.024491 -0.0005
0.214677 -0.024491 0.0005
0.217061 -0.0242412 -0.0005
0.217061 -0.0242412 0.0005
0.219538 -0.0239817 -0.0005
0.219538 -0.0239817 0.0005
0.222112 -0.0237121 -0.0005
0.222112 -0.0237121 0.0005
0.224785 -0.023432 -0.0005
0.224785 -0.023432 0.0005
0.227563 -0.023141 -0.0005
0.227563 -0.023141 0.0005
0.230449 -0.0228387 -0.0005
0.230449 -0.0228387 0.0005
0.233447 -0.0225246 -0.0005
0.233447 -0.0225246 0.0005
0.236562 -0.0221983 -0.0005
0.236562 -0.0221983 0.0005
0.239797 -0.0218593 -0.0005
0.239797 -0.0218593 0.0005
0.243159 -0.0215071 -0.0005
0.243159 -0.0215071 0.0005
0.246652 -0.0211412 -0.0005
0.246652 -0.0211412 0.0005
0.250281 -0.0207611 -0.0005
0.250281 -0.0207611 0.0005
0.254051 -0.0203661 -0.0005
0.254051 -0.0203661 0.0005
0.257967 -0.0199558 -0.0005
0.257967 -0.0199558 0.0005
0.262036 -0.0195295 -0.0005
0.262036 -0.0195295 0.0005
0.266264 -0.0190867 -0.0005
0.266264 -0.0190867 0.0005
0.270655 -0.0186266 -0.0005
0.270655 -0.0186266 0.0005
0.275218 -0.0181486 -0.0005
0.275218 -0.0181486 0.0005
0.279959 -0.017652 -0.0005
0.279959 -0.017652 0.0005
0.284883 -0.017136 -0.0005
0.284883 -0.017136 0.0005
0.29 -0.0166 -0.0005
0.29 -0.0166 0.0005

POLYGONS 250 1250
4 0 1 2 3
4 1 4 5 2
4 4 6 7 5
4 6 8 9 7
4 8 10 11 9
4 10 12 13 11
4 12 14 15 13
4 14 16 17 15
4 16 18 19 17
4 18 20 21 19
4 20 22 23 21
4 22 24 25 23
4 24 26 27 25
4 26 28 29 27
4 28 30 31 29
4 30 32 33 31
4 32 34 35 33
4 34 36 37 35
4 38 39 40 41
4 41 40 42 43
4 43 42 44 45
4 45 44 46 47
4 47 46 48 49
4 49 48 50 51
4 51 50 52 53
4 53 52 54 55
4 55 54 56 57
4 57 56 58 59
4 59 58 60 61
4 61 60 62 63
4 63 62 64 65
4 65 64 66 67
4 67 66 68 69
4 69 68 70 71
4 71 70 72 73
4 73 72 74 75
4 75 74 76 77
4 77 76 78 79
4 79 78 80 81
4 81 80 82 83
4 83 82 84 85
4 85 84 86 87
4 87 86 88 89
4 89 88 90 91
4 91 90 37 36
4 38 92 93 39
4 92 94 95 93
4 94 96 97 95
4 96 98 99 97
4 98 100 101 99
4 100 102 103 101
4 102 104 105 103
4 104 106 107 105
4 106 108 109 107
4 108 110 111 109
4 110 112 113 111
4 112 114 115 113
4 114 116 117 115
4 116 118 119 117
4 118 120 121 119
4 120 122 123 121
4 122 124 125 123
4 124 126 127 125
4 126 128 129 127
4 128 130 131 129
4 130 132 133 131
4 132 134 135 133
4 134 136 137 135
4 136 138 139 137
4 138 140 141 139
4 140 142 143 141
4 142 144 145 143
4 144 146 147 145
4 146 148 149 147
4 148 150 151 149
4 150 152 153 151
4 152 154 155 153
4 154 156 157 155
4 156 158 159 157
4 158 160 161 159
4 160 162 163 161
4 162 164 165 163
4 164 166 167 165
4 166 168 169 167
4 168 170 171 169
4 170 172 173 171
4 172 174 175 173
4 174 176 177 175
4 176 178 179 177
4 178 180 181 179
4 180 182 183 181
4 182 184 185 183
4 184 186 187 185
4 186 188 189 187
4 188 190 191 189
4 190 192 193 191
4 192 194 195 193
4 194 196 197 195
4 196 198 199 197
4 198 200 201 199
4 200 202 203 201
4 202 204 205 203
4 204 206 207 205
4 206 208 209 207
4 208 210 211 209
4 210 212 213 211
4 212 214 215 213
4 214 216 217 215
4 216 218 219 217
4 218 220 221 219
4 220 222 223 221
4 222 224 225 223
4 224 226 227 225
4 226 228 229 227
4 228 230 231 229
4 230 232 233 231
4 232 234 235 233
4 234 236 237 235
4 236 238 239 237
4 238 240 241 239
4 240 242 243 241
4 242 244 245 243
4 244 246 247 245
4 246 248 249 247
4 248 250 251 249
4 250 252 253 251
4 252 254 255 253
4 254 256 257 255
4 256 258 259 257
4 258 260 261 259
4 260 262 263 261
4 262 264 265 263
4 264 266 267 265
4 266 268 269 267
4 268 270 271 269
4 270 272 273 271
4 272 274 275 273
4 274 276 277 275
4 276 278 279 277
4 278 280 281 279
4 280 282 283 281
4 282 284 285 283
4 284 286 287 285
4 286 288 289 287
4 288 290 291 289
4 290 292 293 291
4 292 294 295 293
4 294 296 297 295
4 296 298 299 297
4 298 300 301 299
4 300 302 303 301
4 302 304 305 303
4 304 306 307 305
4 306 308 309 307
4 308 310 311 309
4 310 312 313 311
4 312 314 315 313
4 314 316 317 315
4 316 318 319 317
4 318 320 321 319
4 320 322 323 321
4 322 324 325 323
4 324 326 327 325
4 326 328 329 327
4 328 330 331 329
4 330 332 333 331
4 332 334 335 333
4 334 336 337 335
4 336 338 339 337
4 338 340 341 339
4 340 342 343 341
4 342 344 345 343
4 344 346 347 345
4 346 348 349 347
4 348 350 351 349
4 350 352 353 351
4 352 354 355 353
4 354 356 357 355
4 356 358 359 357
4 358 360 361 359
4 360 362 363 361
4 362 364 365 363
4 364 366 367 365
4 366 368 369 367
4 368 370 371 369
4 370 372 373 371
4 372 374 375 373
4 374 376 377 375
4 376 378 379 377
4 378 380 381 379
4 380 382 383 381
4 382 384 385 383
4 384 386 387 385
4 386 388 389 387
4 388 390 391 389
4 390 392 393 391
4 392 394 395 393
4 394 396 397 395
4 396 398 399 397
4 398 400 401 399
4 400 402 403 401
4 402 404 405 403
4 404 406 407 405
4 406 408 409 407
4 408 410 411 409
4 410 412 413 411
4 412 414 415 413
4 414 416 417 415
4 416 418 419 417
4 418 420 421 419
4 420 422 423 421
4 422 424 425 423
4 424 426 427 425
4 426 428 429 427
4 428 430 431 429
4 430 432 433 431
4 432 434 435 433
4 434 436 437 435
4 436 438 439 437
4 438 440 441 439
4 440 442 443 441
4 442 444 445 443
4 444 446 447 445
4 446 448 449 447
4 448 450 451 449
4 450 452 453 451
4 452 454 455 453
4 454 456 457 455
4 456 458 459 457
4 458 460 461 459
4 460 462 463 461
4 462 464 465 463
4 464 466 467 465
4 466 468 469 467
4 468 470 471 469
4 470 472 473 471
4 472 474 475 473
4 474 476 477 475
4 476 478 479 477
4 478 480 481 479
4 480 482 483 481
4 482 484 485 483
4 484 486 487 485
4 486 488 489 487
4 488 490 491 489
4 490 492 493 491
4 492 494 495 493
4 494 496 497 495
4 496 498 499 497
4 498 500 501 499
POINT_DATA 502
FIELD attributes 1
U 3 502 float
1.6056 0.112242 -0.00998652
0.804612 0.0556655 -0.00492137
0.804612 0.0556655 -0.00492137
1.6056 0.112242 -0.00998652
0.0248312 0.000648874 0
0.0248312 0.000648874 0
0.022058 0.000551211 0
0.022058 0.000551211 0
0.0196551 0.000453037 0
0.0196551 0.000453037 0
0.0175441 0.000369067 0
0.0175441 0.000369067 0
0.0157356 0.000305477 0
0.0157356 0.000305477 0
0.0141815 0.000264252 0
0.0141815 0.000264252 0
0.0128293 0.000231207 0
0.0128293 0.000231207 0
0.0116703 0.000187102 0
0.0116703 0.000187102 0
0.0107383 0.00012692 0
0.0107383 0.00012692 0
0.0100567 6.22621e-05 0
0.0100567 6.22621e-05 0
0.00960205 3.94202e-06 0
0.00960205 3.94202e-06 0
0.0093669 -3.45948e-05 0
0.0093669 -3.45948e-05 0
0.00922041 -5.31301e-05 0
0.00922041 -5.31301e-05 0
0.00923137 -5.38177e-05 0
0.00923137 -5.38177e-05 0
0.00915538 -4.29251e-05 0
0.00915538 -4.29251e-05 0
0.009278 -9.04154e-06 0
0.009278 -9.04154e-06 0
0.0040213 0.000447906 0
0.0040213 0.000447906 0
-4.34295e-05 9.52052e-05 7.7621e-23
-4.34295e-05 9.52052e-05 7.7621e-23
-7.2014e-05 0.000379422 -2.09898e-22
-7.2014e-05 0.000379422 -2.09898e-22
-9.94906e-05 0.000908099 -2.48745e-22
-9.94906e-05 0.000908099 -2.48745e-22
-9.86607e-05 0.00139453 4.97429e-22
-9.86607e-05 0.00139453 4.97429e-22
-9.97188e-05 0.00188303 1.65853e-22
-9.97188e-05 0.00188303 1.65853e-22
-0.000101116 0.00238463 -3.31613e-22
-0.000101116 0.00238463 -3.31613e-22
-0.000101917 0.00290049 0
-0.000101917 0.00290049 0
-0.000101364 0.00342893 -6.64325e-22
-0.000101364 0.00342893 -6.64325e-22
-9.82368e-05 0.00396232 -1.37526e-25
-9.82368e-05 0.00396232 -1.37526e-25
-9.18482e-05 0.00448783 6.64187e-22
-9.18482e-05 0.00448783 6.64187e-22
-8.00691e-05 0.00499036 -6.66311e-22
-8.00691e-05 0.00499036 -6.66311e-22
-6.03923e-05 0.00544032 -9.55425e-26
-6.03923e-05 0.00544032 -9.55425e-26
-3.069e-05 0.00580291 6.66215e-22
-3.069e-05 0.00580291 6.66215e-22
1.20753e-05 0.00602964 6.71068e-22
1.20753e-05 0.00602964 6.71068e-22
7.03674e-05 0.00606137 6.98811e-26
7.03674e-05 0.00606137 6.98811e-26
0.00015301 0.00582658 -6.82891e-22
0.00015301 0.00582658 -6.82891e-22
0.000269143 0.00520089 0
0.000269143 0.00520089 0
0.000398201 0.00418197 0
0.000398201 0.00418197 0
0.000528074 0.00281734 0
0.000528074 0.00281734 0
0.000594197 0.00118115 0
0.000594197 0.00118115 0
0.000350847 -0.000494849 0
0.000350847 -0.000494849 0
-0.000111346 -0.00160116 0
-0.000111346 -0.00160116 0
-0.000326906 -0.00200227 0
-0.000326906 -0.00200227 0
-0.000368095 -0.00204024 0
-0.000368095 -0.00204024 0
-0.000626266 -0.00161241 0
-0.000626266 -0.00161241 0
-0.000870369 -0.000600435 0
-0.000870369 -0.000600435 0
-0.000748434 0.000420642 0
-0.000748434 0.000420642 0
-9.46785e-05 0.000100154 3.31492e-25
-9.46785e-05 0.000100154 3.31492e-25
-0.000198426 0.000105152 -3.8578e-23
-0.000198426 0.000105152 -3.8578e-23
-0.000303819 0.000105544 0
-0.000303819 0.000105544 0
-0.000409902 0.000106146 0
-0.000409902 0.000106146 0
-0.000516597 0.000106557 3.7417e-23
-0.000516597 0.000106557 3.7417e-23
-0.000623722 0.000106753 3.74842e-23
-0.000623722 0.000106753 3.74842e-23
-0.000730847 0.000106617 0
-0.000730847 0.000106617 0
-0.000837589 0.000106003 0
-0.000837589 0.000106003 0
-0.000943391 0.000104776 0
-0.000943391 0.000104776 0
-0.00104767 0.00010282 -3.60642e-23
-0.00104767 0.00010282 -3.60642e-23
-0.00114971 0.000100036 -3.6133e-23
-0.00114971 0.000100036 -3.6133e-23
-0.00124874 9.63673e-05 0
-0.00124874 9.63673e-05 0
-0.00134383 9.17926e-05 0
-0.00134383 9.17926e-05 0
-0.00143401 8.62824e-05 0
-0.00143401 8.62824e-05 0
-0.00151826 7.98294e-05 -3.47426e-23
-0.00151826 7.98294e-05 -3.47426e-23
-0.00159552 7.24389e-05 -3.48128e-23
-0.00159552 7.24389e-05 -3.48128e-23
-0.00166474 6.41273e-05 0
-0.00166474 6.41273e-05 0
-0.00172488 5.49615e-05 0
-0.00172488 5.49615e-05 0
-0.00177494 4.50289e-05 0
-0.00177494 4.50289e-05 0
-0.00181404 3.44414e-05 0
-0.00181404 3.44414e-05 0
-0.00184125 2.33421e-05 0
-0.00184125 2.33421e-05 0
-0.00185579 1.18983e-05 0
-0.00185579 1.18983e-05 0
-0.00185711 3.3454e-07 -3.27465e-23
-0.00185711 3.3454e-07 -3.27465e-23
-0.00184494 -1.11772e-05 -3.09437e-25
-0.00184494 -1.11772e-05 -3.09437e-25
-0.00181908 -2.25345e-05 3.06829e-25
-0.00181908 -2.25345e-05 3.06829e-25
-0.00177951 -3.36262e-05 -6.43919e-23
-0.00177951 -3.36262e-05 -6.43919e-23
-0.00172636 -4.43535e-05 -3.2117e-23
-0.00172636 -4.43535e-05 -3.2117e-23
-0.00165997 -5.45732e-05 0
-0.00165997 -5.45732e-05 0
-0.00158082 -6.41273e-05 3.13638e-23
-0.00158082 -6.41273e-05 3.13638e-23
-0.00148959 -7.29605e-05 6.25788e-23
-0.00148959 -7.29605e-05 6.25788e-23
-0.00138711 -8.09519e-05 3.12153e-23
-0.00138711 -8.09519e-05 3.12153e-23
-0.00127426 -8.79733e-05 0
-0.00127426 -8.79733e-05 0
-0.00115202 -9.40554e-05 3.04805e-23
-0.00115202 -9.40554e-05 3.04805e-23
-0.00102158 -9.91563e-05 3.05555e-23
-0.00102158 -9.91563e-05 3.05555e-23
-0.000884042 -0.00010326 0
-0.000884042 -0.00010326 0
-0.000740539 -0.000106379 -2.98253e-23
-0.000740539 -0.000106379 -2.98253e-23
-0.00059224 -0.000108543 -2.99011e-23
-0.00059224 -0.000108543 -2.99011e-23
-0.000440262 -0.000109827 -2.93884e-23
-0.000440262 -0.000109827 -2.93884e-23
-0.000285657 -0.000110277 -8.78036e-23
-0.000285657 -0.000110277 -8.78036e-23
-0.000129444 -0.000109978 -5.84919e-23
-0.000129444 -0.000109978 -5.84919e-23
2.73949e-05 -0.000109001 0
2.73949e-05 -0.000109001 0
0.000184015 -0.000107415 0
0.000184015 -0.000107415 0
0.000339652 -0.000105304 0
0.000339652 -0.000105304 0
0.000493595 -0.000102746 0
0.000493595 -0.000102746 0
0.000645224 -9.98144e-05 -5.559e-23
0.000645224 -9.98144e-05 -5.559e-23
0.000794005 -9.6579e-05 -1.10871e-22
0.000794005 -9.6579e-05 -1.10871e-22
0.000939484 -9.3105e-05 -1.09944e-22
0.000939484 -9.3105e-05 -1.09944e-22
0.00108128 -8.94521e-05 -5.48181e-23
0.00108128 -8.94521e-05 -5.48181e-23
0.00121909 -8.56741e-05 5.37373e-23
0.00121909 -8.56741e-05 5.37373e-23
0.00135267 -8.18189e-05 5.3893e-23
0.00135267 -8.18189e-05 5.3893e-23
0.00148184 -7.79285e-05 -5.28147e-23
0.00148184 -7.79285e-05 -5.28147e-23
0.00160645 -7.40394e-05 -1.05326e-22
0.00160645 -7.40394e-05 -1.05326e-22
0.00172644 -7.01828e-05 -5.25112e-23
0.00172644 -7.01828e-05 -5.25112e-23
0.00184175 -6.6385e-05 0
0.00184175 -6.6385e-05 0
0.00195237 -6.26678e-05 0
0.00195237 -6.26678e-05 0
0.00205834 -5.90489e-05 -5.05296e-23
0.00205834 -5.90489e-05 -5.05296e-23
0.00215969 -5.55423e-05 -5.06861e-23
0.00215969 -5.55423e-05 -5.06861e-23
0.00225651 -5.21591e-05 0
0.00225651 -5.21591e-05 0
0.00234888 -4.89072e-05 0
0.00234888 -4.89072e-05 0
0.0024369 -4.57921e-05 0
0.0024369 -4.57921e-05 0
0.0025207 -4.28173e-05 0
0.0025207 -4.28173e-05 0
0.0026004 -3.99844e-05 0
0.0026004 -3.99844e-05 0
0.00267613 -3.72934e-05 0
0.00267613 -3.72934e-05 0
0.00274804 -3.47431e-05 0
0.00274804 -3.47431e-05 0
0.00281627 -3.23312e-05 4.65315e-23
0.00281627 -3.23312e-05 4.65315e-23
0.00288096 -3.00546e-05 4.66878e-23
0.00288096 -3.00546e-05 4.66878e-23
0.00294227 -2.79098e-05 0
0.00294227 -2.79098e-05 0
0.00300032 -2.58927e-05 -4.52393e-23
0.00300032 -2.58927e-05 -4.52393e-23
0.00305528 -2.39986e-05 -9.02087e-23
0.00305528 -2.39986e-05 -9.02087e-23
0.00310728 -2.22228e-05 -4.49693e-23
0.00310728 -2.22228e-05 -4.49693e-23
0.00315647 -2.05603e-05 4.39691e-23
0.00315647 -2.05603e-05 4.39691e-23
0.00320297 -1.90057e-05 5.74005e-25
0.00320297 -1.90057e-05 5.74005e-25
0.00324693 -1.75538e-05 -4.3706e-23
0.00324693 -1.75538e-05 -4.3706e-23
0.00328846 -1.61994e-05 4.27213e-23
0.00328846 -1.61994e-05 4.27213e-23
0.0033277 -1.49371e-05 4.28763e-23
0.0033277 -1.49371e-05 4.28763e-23
0.00336477 -1.37617e-05 0
0.00336477 -1.37617e-05 0
0.00339978 -1.26683e-05 -4.14962e-23
0.00339978 -1.26683e-05 -4.14962e-23
0.00343284 -1.16518e-05 -4.16505e-23
0.00343284 -1.16518e-05 -4.16505e-23
0.00346407 -1.07076e-05 4.06921e-23
0.00346407 -1.07076e-05 4.06921e-23
0.00349355 -9.831e-06 4.08458e-23
0.00349355 -9.831e-06 4.08458e-23
0.00352139 -9.01766e-06 -3.98979e-23
0.00352139 -9.01766e-06 -3.98979e-23
0.00354769 -8.2634e-06 -7.95557e-23
0.00354769 -8.2634e-06 -7.95557e-23
0.00357252 -7.56423e-06 -7.87712e-23
0.00357252 -7.56423e-06 -7.87712e-23
0.00359598 -6.91641e-06 -1.16717e-22
0.00359598 -6.91641e-06 -1.16717e-22
0.00361815 -6.31637e-06 -1.07614e-24
0.00361815 -6.31637e-06 -1.07614e-24
0.00363909 -5.76072e-06 7.69825e-23
0.00363909 -5.76072e-06 7.69825e-23
0.00365889 -5.24637e-06 0
0.00365889 -5.24637e-06 0
0.00367761 -4.77033e-06 0
0.00367761 -4.77033e-06 0
0.00369531 -4.32973e-06 7.36402e-23
0.00369531 -4.32973e-06 7.36402e-23
0.00371206 -3.9222e-06 1.46833e-22
0.00371206 -3.9222e-06 1.46833e-22
0.00372791 -3.54516e-06 1.04246e-24
0.00372791 -3.54516e-06 1.04246e-24
0.00374293 -3.19599e-06 -7.24482e-23
0.00374293 -3.19599e-06 -7.24482e-23
0.00375715 -2.87337e-06 7.06779e-23
0.00375715 -2.87337e-06 7.06779e-23
0.00377063 -2.57516e-06 1.40924e-22
0.00377063 -2.57516e-06 1.40924e-22
0.00378341 -2.29797e-06 1.3947e-22
0.00378341 -2.29797e-06 1.3947e-22
0.00379554 -2.04197e-06 6.95195e-23
0.00379554 -2.04197e-06 6.95195e-23
0.00380706 -1.80622e-06 0
0.00380706 -1.80622e-06 0
0.003818 -1.58467e-06 0
0.003818 -1.58467e-06 0
0.00382841 -1.379e-06 6.6373e-23
0.00382841 -1.379e-06 6.6373e-23
0.00383831 -1.19152e-06 6.66636e-23
0.00383831 -1.19152e-06 6.66636e-23
0.00384775 -1.0108e-06 0
0.00384775 -1.0108e-06 0
0.00385673 -8.38679e-07 -6.42809e-23
0.00385673 -8.38679e-07 -6.42809e-23
0.00386531 -6.80632e-07 -6.4568e-23
0.00386531 -6.80632e-07 -6.4568e-23
0.00387348 -5.12232e-07 0
0.00387348 -5.12232e-07 0
0.00388124 -3.18418e-07 -6.22276e-23
0.00388124 -3.18418e-07 -6.22276e-23
0.00388859 -1.12728e-07 -6.2511e-23
0.00388859 -1.12728e-07 -6.2511e-23
0.00389555 8.86142e-08 0
0.00389555 8.86142e-08 0
0.00390213 2.75761e-07 6.02121e-23
0.00390213 2.75761e-07 6.02121e-23
0.00390836 4.45232e-07 1.2004e-22
0.00390836 4.45232e-07 1.2004e-22
0.00391426 5.91834e-07 5.98266e-23
0.00391426 5.91834e-07 5.98266e-23
0.00391988 7.08453e-07 -5.82333e-23
0.00391988 7.08453e-07 -5.82333e-23
0.00392524 7.92729e-07 -5.85086e-23
0.00392524 7.92729e-07 -5.85086e-23
0.0039304 8.4788e-07 5.69339e-23
0.0039304 8.4788e-07 5.69339e-23
0.00393539 8.809e-07 5.72064e-23
0.00393539 8.809e-07 5.72064e-23
0.00394024 8.99656e-07 5.56501e-23
0.00394024 8.99656e-07 5.56501e-23
0.00394497 9.10527e-07 1.10934e-22
0.00394497 9.10527e-07 1.10934e-22
0.00394958 9.17599e-07 5.52819e-23
0.00394958 9.17599e-07 5.52819e-23
0.0039541 9.23007e-07 0
0.0039541 9.23007e-07 0
0.00395852 9.2767e-07 0
0.00395852 9.2767e-07 0
0.00396285 9.31932e-07 0
0.00396285 9.31932e-07 0
0.00396711 9.35916e-07 0
0.00396711 9.35916e-07 0
0.0039713 9.39689e-07 0
0.0039713 9.39689e-07 0
0.00397542 9.43302e-07 0
0.00397542 9.43302e-07 0
0.00397949 9.46791e-07 5.00565e-23
0.00397949 9.46791e-07 5.00565e-23
0.0039835 9.50183e-07 8.58696e-25
0.0039835 9.50183e-07 8.58696e-25
0.00398747 9.53493e-07 -4.97059e-23
0.00398747 9.53493e-07 -4.97059e-23
0.0039914 9.56736e-07 0
0.0039914 9.56736e-07 0
0.00399529 9.5992e-07 0
0.00399529 9.5992e-07 0
0.00399915 9.63057e-07 0
0.00399915 9.63057e-07 0
0.00400299 9.66164e-07 -9.29675e-23
0.00400299 9.66164e-07 -9.29675e-23
0.0040068 9.69258e-07 -9.34559e-23
0.0040068 9.69258e-07 -9.34559e-23
0.0040106 9.72343e-07 9.06376e-23
0.0040106 9.72343e-07 9.06376e-23
0.00401438 9.75407e-07 1.63649e-24
0.00401438 9.75407e-07 1.63649e-24
0.00401814 9.7844e-07 -8.9959e-23
0.00401814 9.7844e-07 -8.9959e-23
0.0040219 9.81447e-07 0
0.0040219 9.81447e-07 0
0.00402566 9.8445e-07 0
0.00402566 9.8445e-07 0
0.00402941 9.87475e-07 8.49199e-23
0.00402941 9.87475e-07 8.49199e-23
0.00403316 9.90547e-07 1.69175e-22
0.00403316 9.90547e-07 1.69175e-22
0.00403692 9.93686e-07 8.42515e-23
0.00403692 9.93686e-07 8.42515e-23
0.00404068 9.96907e-07 8.15595e-23
0.00404068 9.96907e-07 8.15595e-23
0.00404444 1.00022e-06 1.62459e-22
0.00404444 1.00022e-06 1.62459e-22
0.00404821 1.00365e-06 1.54871e-24
0.00404821 1.00365e-06 1.54871e-24
0.004052 1.0072e-06 -7.97881e-23
0.004052 1.0072e-06 -7.97881e-23
0.00405579 1.01093e-06 0
0.00405579 1.01093e-06 0
0.0040596 1.01489e-06 -7.60685e-23
0.0040596 1.01489e-06 -7.60685e-23
0.00406342 1.01911e-06 -7.64969e-23
0.00406342 1.01911e-06 -7.64969e-23
0.00406725 1.02366e-06 0
0.00406725 1.02366e-06 0
0.0040711 1.02861e-06 0
0.0040711 1.02861e-06 0
0.00407496 1.03405e-06 0
0.00407496 1.03405e-06 0
0.00407884 1.04012e-06 7.07052e-23
0.00407884 1.04012e-06 7.07052e-23
0.00408273 1.04693e-06 1.40759e-22
0.00408273 1.04693e-06 1.40759e-22
0.00408663 1.05466e-06 7.0049e-23
0.00408663 1.05466e-06 7.0049e-23
0.00409054 1.0635e-06 6.75441e-23
0.00409054 1.0635e-06 6.75441e-23
0.00409445 1.07373e-06 6.79371e-23
0.00409445 1.07373e-06 6.79371e-23
0.00409837 1.0857e-06 0
0.00409837 1.0857e-06 0
0.00410228 1.09984e-06 6.44226e-23
0.00410228 1.09984e-06 6.44226e-23
0.00410619 1.1167e-06 6.48018e-23
0.00410619 1.1167e-06 6.48018e-23
0.00411007 1.13698e-06 6.23625e-23
0.00411007 1.13698e-06 6.23625e-23
0.00411391 1.1616e-06 6.27323e-23
0.00411391 1.1616e-06 6.27323e-23
0.00411771 1.19161e-06 0
0.00411771 1.19161e-06 0
0.00412143 1.22875e-06 5.93022e-23
0.00412143 1.22875e-06 5.93022e-23
0.00412506 1.27441e-06 5.96577e-23
0.00412506 1.27441e-06 5.96577e-23
0.00412855 1.33227e-06 5.7281e-23
0.00412855 1.33227e-06 5.7281e-23
0.00413185 1.40335e-06 5.76268e-23