/*--------------------------------*- C++ -*----------------------------------*\
  =========                 |
  \\      /  F ield         | OpenFOAM: The Open Source CFD Toolbox
   \\    /   O peration     | Website:  https://openfoam.org
    \\  /    A nd           | Version:  7
     \\/     M anipulation  |
\*---------------------------------------------------------------------------*/
FoamFile
{
    version     2.0;
    format      ascii;
    class       surfaceScalarField;
    location    "15";
    object      phi;
}
// * * * * * * * * * * * * * * * * * * * * * * * * * * * * * * * * * * * * * //

dimensions      [0 3 -1 0 0 0 0];

internalField   nonuniform List<scalar> 
1300
(
3.75095
5.62643
-2.78425
3.75095
-2.82614
5.62643
-2.1072
2.1072
-0.500376
0.500376
1.90738
1.84357
-1.44291
1.44291
-1.79149
1.79149
-1.03343
1.03343
-3.87943
3.87943
-3.16225
3.16225
2.06531
-2.06531
-1.88533
1.88533
-0.606863
0.606863
-1.64549
1.64549
1.9505
-1.9505
-2.01113
2.01113
-0.751176
0.751176
-1.50166
5.25262
2.24929
2.24929
-0.898755
0.898755
-3.57058
3.57058
4.63405
-4.63405
5.66726
-5.66726
-2.88301
-3.40259
1.10084
-7.66661
-1.7253
-1.7253
-8.391
8.391
-2.76457
2.86186
1.13565
-1.13565
-0.369116
0.369116
-1.95227
-0.154934
-1.95227
2.16617
-0.0589662
2.16617
-0.548151
0.047775
-0.548151
1.5968
-1.5968
0.471934
0.0284418
0.471934
1.25323
-1.25323
-1.90746
3.81484
1.84349
-1.75641
7.00902
-1.99455
3.83812
-2.1061
2.1061
-1.35906
-0.0838534
-1.35906
1.52366
-0.0807539
1.52366
-2.13268
2.13268
-1.69135
-0.100137
-1.69135
1.86188
-0.0703893
1.86188
1.21674
-1.21674
-1.04155
0.00811477
-1.04155
0.996959
0.0364727
0.996959
1.36027
4.26616
-6.9867
9.84855
-4.26616
0.38674
3.48671
0.392712
3.48671
-3.14849
-0.0137654
-3.14849
3.25802
-0.0957649
3.25802
1.83884
0.226467
1.83884
-2.37648
0.311174
-2.37648
-4.43671
-4.46727
-1.93786
0.0525251
-1.93786
-0.604623
-0.00224023
-0.604623
0.61981
-0.0129473
0.61981
-1.44366
1.44366
-1.83292
0.187436
-1.83292
1.51883
0.431665
1.51883
1.64948
2.10148
5.40043
-5.40043
3.44993
-1.89525
-0.115884
-1.89525
-2.12049
-3.54677
2.12049
-0.109362
-0.517279
-0.233897
-0.517279
1.77692
0.472375
1.77692
0.965121
0.0318383
-0.965121
0.0663659
1.50349
-1.50349
0.552917
0.345837
0.552917
-3.51948
3.51948
3.37936
-0.121339
-3.37936
-0.191217
4.42928
0.20477
4.42928
-4.7844
0.150351
-4.7844
4.08629
-7.48888
-4.15483
1.79638
0.0889565
-1.79638
0.0710781
1.17237
-0.0367219
1.17237
-1.09839
1.09839
-1.17
0.0343567
-1.17
-0.318959
-0.0501567
-0.318959
0.43108
-0.061964
0.43108
-1.85134
-0.100923
-1.85134
-2.08382
0.250898
2.08382
0.0823464
0.611944
-0.611944
-0.585614
0.0374629
-0.585614
-1.70476
-0.146581
1.70476
-0.107964
-1.576
-0.0207945
-1.576
-1.19574
0.025737
1.19574
0.0574894
1.4501
0.326815
-1.4501
0.196872
-1.77266
3.87414
-1.97829
3.82178
-1.93439
-0.171709
-1.93439
2.19738
-0.0912764
2.19738
1.48825
0.157234
-1.48825
0.129195
1.62449
-0.100826
1.62449
-2.11706
-0.0156248
-2.11706
2.04551
0.0871736
2.04551
1.6658
-0.0413076
-1.6658
-0.0255566
1.87567
-0.0137888
1.87567
1.22626
-0.00951931
1.22626
-1.1807
-0.0360413
-1.1807
1.09239
-1.09239
1.07999
0.0124045
-1.07999
0.0384403
-14.4245
14.5749
-0.189912
-14.2346
3.2968
3.2968
1.09183
0.747018
1.09183
-2.68001
0.303526
-2.68001
4.39349
-8.54832
4.44676
-8.88347
3.8269
-11.4935
4.23934
-8.70661
2.05687
-2.05687
2.03344
0.0234262
-2.03344
0.0955822
-0.587416
-0.017207
-0.587416
-1.30653
-0.137126
-1.30653
1.62184
-0.178186
1.62184
-1.20863
1.20863
-1.31553
0.106902
1.31553
0.203297
1.89588
-0.0202091
-1.89588
0.000631953
0.456335
0.0155994
-0.456335
-0.0609439
1.57135
-0.0678624
1.57135
-1.3522
-0.151287
-1.3522
-0.574876
-0.0125397
0.574876
-0.0219585
-3.85
0.330523
-3.85
-14.1269
-0.107669
-13.7342
-4.89207
-4.89207
3.49893
13.3475
-1.18745
0.00675312
1.18745
-0.01508
1.15331
0.0553259
-1.15331
0.0549183
-1.09948
0.007087
1.09948
-0.00109057
-0.374156
0.0551971
-0.374156
-0.497446
0.497446
-0.448161
-0.0492843
0.448161
-0.0170814
0.663554
-0.0516106
0.663554
0.60954
0.0102703
-0.60954
0.0239264
-1.61357
0.0375684
-1.61357
2.20057
-0.00318941
2.20057
-1.3032
-0.0490016
1.3032
-0.0769427
-0.100897
14.6758
-3.1959
0.0474155
3.1959
-14.8805
14.9279
-0.543082
0.168926
0.543082
0.548743
3.11896
0.400521
-3.11896
0.43895
2.05849
-0.012986
-2.05849
0.00162849
-1.08724
-0.219294
-1.08724
-1.74858
-0.185817
1.74858
-0.126736
-15.0747
-0.32295
15.3977
-15.1705
4.17295
0.256328
-4.17295
15.1843
-0.575657
-0.0362871
0.575656
-0.0782106
0.840689
-0.177135
0.840689
1.64102
-0.0696735
-1.64102
0.0274504
-2.20401
0.0869523
2.20401
-0.00343957
-0.94098
-0.146256
0.94098
-0.100291
-4.37001
4.84239
2.63901
-3.6284
-3.86049
-7.17516
1.4257
2.44844
4.87563
-6.34939
-5.14412
-6.27832
8.8406
-8.40165
-9.21135
9.43781
7.62475
-7.64554
-6.10408
6.30738
6.84686
-6.78937
1.90542
1.90943
8.87754
-8.96139
-11.4037
11.232
9.32106
-9.4212
11.3937
-11.4094
-13.3913
13.3784
-5.55347
5.56158
-6.70383
6.66779
-6.93938
6.86244
-4.36296
-4.52051
8.7631
-8.71057
11.7603
-11.8762
-9.42952
9.61696
3.33381
1.50858
3.66062
-2.1135
4.01892
-1.72462
4.36363
4.32989
-8.69285
4.21842
-8.07891
5.50775
6.25253
-5.39839
-1.77677
-5.92236
5.88564
-5.75459
5.7535
9.221
-9.37594
-2.08956
3.99898
-1.73223
4.18067
-3.77102
-2.33307
3.33935
1.53628
4.85697
3.90613
-4.94592
-1.33239
-8.04989
7.98022
-8.38804
8.23675
0.0581771
7.35635
-7.41453
3.62875
-2.51424
9.87059
6.32636
6.62989
7.4025
-7.00198
0.999152
-8.41368
-8.6049
-2.09546
2.13292
2.05644
-2.028
5.55024
2.0745
5.44228
-5.39811
-2.24743
-5.36054
3.73539
2.57199
3.84229
3.95183
2.89503
3.97757
3.51077
-3.49871
-0.0120594
-3.88416
7.39492
0.500275
-6.21722
-4.68094
5.3522
3.52534
5.27144
-5.37082
-3.59057
-5.24163
-6.15418
-5.24955
-6.33999
6.59648
4.63553
6.50521
-7.97922
7.97578
5.71901
3.60205
5.64862
-5.54133
-3.87987
-5.56688
13.9907
-3.45712
-10.5336
-6.87082
-6.52052
6.78364
4.61009
7.53341
5.84495
7.53504
4.56912
9.42161
-9.17921
2.65869
-3.40619
-2.14728
-3.36775
3.27591
2.28567
3.31238
-3.88138
-2.82245
-3.87463
-3.96819
-2.9712
3.97771
2.69008
-4.1395
-4.24854
4.1885
2.67394
3.94521
-9.08933
4.7614
-9.28191
-5.83271
-2.87787
-5.73713
5.52848
3.47274
-9.00121
-3.16438
13.0201
-6.76753
11.2433
-6.55835
-5.31781
-6.55772
-7.05356
-2.37596
-6.80266
-4.91714
4.69785
-5.14711
4.96892
15.5589
-8.33766
-7.2212
-4.05369
-2.73568
3.85682
-0.196194
-4.35132
4.33926
-0.332405
4.03122
5.5398
5.34361
-3.57452
-2.18006
-3.51961
3.458
2.2955
3.46508
6.92897
2.29203
6.87
-6.1097
-3.26624
-6.21062
4.76141
-4.81157
2.16545
-2.17799
5.096
3.14075
-5.02814
-3.02176
7.67123
-3.60589
-4.06534
-13.975
11.3285
2.64651
-4.10445
-0.475696
0.27548
-5.73681
-3.47454
5.42563
1.20426
12.5328
9.05825
-7.13965
7.47017
8.25805
8.13671
-0.468191
3.21316
-3.04423
5.79039
-3.02365
-2.76674
4.76718
-4.91377
-1.44343
-6.27607
4.83264
0.528512
1.28945
-1.52335
-1.54933
-0.546125
-1.5254
1.26715
0.789287
1.28275
0.789756
1.34316
-3.02303
0.637062
2.38596
-2.23327
-1.39094
-4.31247
-1.81332
6.12579
5.41783
2.56239
-5.44528
0.0847323
2.05679
-2.06973
-0.528049
-3.78442
2.89081
-3.41886
-4.91071
-2.10129
7.012
-3.13265
-0.38696
3.07732
0.764974
-3.54866
-2.3737
3.5143
0.463267
-4.01427
8.0607
-4.04643
-6.19434
2.88347
4.51146
5.45546
-6.06657
3.1533
2.91327
-1.55512
4.59052
0.680921
4.4897
-10.1524
6.56185
5.83284
3.78411
-5.99008
0.74845
-9.40397
13.5478
-11.3454
-2.20249
7.4583
6.08954
7.60147
7.95739
-5.03516
12.6366
-0.996456
-10.3489
10.4004
-6.61631
7.44982
-14.0661
-15.4072
5.05831
-9.48604
11.2565
-1.77042
-2.65386
-5.32536
12.1399
-1.17666
-10.9632
5.32855
-7.29961
-6.58404
13.8836
-10.7567
10.4639
-3.49396
-6.96995
-6.57999
-4.82937
6.49304
1.48274
-13.3222
15.9809
-3.90059
4.82495
0.823676
4.81116
5.54488
-8.16865
2.62377
5.21185
-8.70581
3.91243
-12.0811
-6.17247
12.3248
-6.15228
-9.05034
-8.09542
-0.954916
2.54137
13.4395
-8.38632
6.27409
2.11223
2.88952
0.575564
-2.90192
-0.465825
0.383989
5.4323
-5.81629
3.69637
3.72821
4.07336
1.35893
3.55451
2.33113
-3.53943
-0.335201
-4.85623
1.88503
-2.16615
-4.71347
6.5985
-5.32336
0.609886
-3.37168
-4.6669
8.03858
-5.51896
3.88842
4.17228
6.18392
-6.48401
1.81711
-3.26125
-3.22276
3.50625
-5.6724
2.42294
4.17556
5.09689
0.848341
6.44711
5.87765
-9.91985
0.637936
9.78378
-8.45139
1.98143
5.55361
-8.25552
0.160093
-5.57703
1.41533
-8.18286
-7.58588
7.1698
-9.54576
-6.89633
6.22768
0.64232
-6.31003
-0.492633
-2.9794
-1.93774
-3.12566
-1.86711
-3.28
-6.90226
-1.28072
-5.62154
3.41712
-3.81059
-2.52941
3.93732
1.0316
-3.23336
3.19707
-3.54297
3.36584
-0.0780777
4.41734
5.26553
2.52985
-2.86222
5.39207
-6.52813
8.82017
-10.8
4.27186
4.71503
-7.98127
-6.08496
2.20384
2.55758
2.14187
9.4313
-12.4103
2.97901
-10.4327
11.6634
-1.2307
-15.0325
4.59975
-5.60118
1.99238
0.173068
1.97517
0.573954
2.40794
-2.98189
-1.60404
-1.62599
-2.91459
-4.44782
7.36241
1.60452
-4.26684
2.66231
-4.153
5.75752
0.0892414
-4.35608
5.91502
-3.50709
6.08809
-4.06376
2.02433
4.16415
7.27067
-3.10652
5.26161
-2.12085
2.20797
-5.31449
-2.23985
-3.80201
6.08768
-4.23657
4.84646
-0.271393
5.11785
-4.71739
1.1115
-0.644023
3.08419
3.15055
5.47276
-4.11382
3.90708
-6.02793
-1.40741
-5.17959
-1.00403
-2.52491
-6.03974
8.56464
7.45401
-9.97892
-5.16065
9.23597
-4.07531
6.70387
-5.15201
-1.55186
-1.91123
-2.90034
1.85604
1.35712
8.06099
-0.231065
-4.92094
-3.2753
-2.72655
3.72653
2.06386
-2.24656
4.89307
1.97108
-0.681636
0.258317
1.02444
1.80377
-1.54545
0.559853
1.24392
-0.963493
1.50302
0.553767
-1.51329
-0.0121156
-1.14023
4.03104
1.24573
-2.03502
0.489568
1.16473
-4.18838
5.96078
-3.18208
-2.7787
7.12551
1.28875
-4.47082
4.98733
-4.45881
2.67657
-4.48988
-1.79426
-6.25307
-4.17857
-3.4722
6.13452
-3.89021
6.4526
1.22381
-6.53734
7.76114
-4.30458
2.20329
-3.38048
3.93425
-1.45295
-1.92754
3.6567
3.3553
-3.58386
-0.200564
0.0728367
2.89963
-2.82679
-0.519236
-2.75251
-5.4801
5.94337
-2.80699
5.9603
2.58507
-2.5524
8.5127
2.25181
-4.8042
-3.94253
-4.32949
-1.89094
3.56452
-1.05849
-4.5084
-8.02844
4.5497
-0.0600083
-10.1915
12.2009
-2.00944
-6.66612
0.104276
7.35402
-9.8358
1.12999
-5.92338
6.27753
6.95845
6.89844
-11.2244
0.261123
-6.58884
2.15626
-8.74509
8.2458
-4.37301
9.43132
-9.29522
6.76581
-8.26362
7.22883
-1.51626
7.48078
-4.857
3.05283
-7.88219
-6.39946
8.15971
-4.55766
8.98338
-5.4254
14.4088
-9.32599
8.16556
6.24322
-1.57003
-4.98768
-7.96883
6.39879
0.196734
5.00789
5.89754
-3.56641
5.56234
2.9325
-6.19375
-2.73989
-8.64181
2.44806
-4.46953
-2.41442
4.86248
3.7695
4.34506
1.63972
-3.87924
9.02719
-9.98211
-2.87491
-4.71098
8.16778
-1.76899
5.3329
-10.0439
-2.84997
8.01165
-1.22508
-6.78657
0.326009
-7.22234
2.98168
-10.204
6.56407
-7.05671
1.10393
-6.70511
-2.12943
-2.20764
-1.45135
-2.09163
-5.65358
4.20224
-1.05383
2.14324
-8.57792
7.35285
-3.08551
7.28775
-2.45651
-0.66915
2.5568
0.809038
8.09678
-0.339824
-5.74513
-1.95827
6.07624
-4.11797
1.76826
-6.37956
-0.30332
2.98211
4.14339
-7.81475
-0.166522
-5.91165
-3.2788
5.83638
5.95717
13.4112
1.00087
6.35823
-0.521855
7.3591
1.62002
1.60294
-5.29201
8.27102
3.27264
7.54449
-0.680521
2.70485
1.29465
1.29241
0.777319
2.06026
1.0903
3.17176
0.189862
-1.43613
4.8228
-7.54936
-0.0981396
-6.80234
2.63547
6.73734
-4.10187
4.76627
-2.70241
0.648296
-0.072932
-1.40194
1.47487
-2.83967
-2.08357
-0.839655
-2.00512
2.49468
2.02593
-1.65503
-1.18464
0.657362
-4.83593
3.83252
-4.03308
-0.677784
7.08336
-3.29809
0.471301
-1.0948
-2.28121
-2.82733
2.83945
8.16932
0.343374
4.1229
6.28674
3.91304
0.346632
6.71959
-8.49
-5.3615
-8.22888
0.0169166
7.37094
2.8637
10.5758
9.10691
7.33793
-2.70594
-12.6881
10.7863
-2.51526
9.55557
-2.769
-7.43502
6.12598
2.69419
-6.7683
-0.288407
-7.72342
-10.2387
-0.679377
8.03222
-7.41741
6.74826
4.81052
0.811021
-1.66821
-0.539429
1.7175
-0.114559
7.24454
-2.17832
-8.62191
10.8002
-4.55902
4.46088
2.43865
2.45443
3.91351
1.21111
-7.41081
-11.5127
-2.58452
-1.60386
-5.36322
0.762567
-2.7885
6.64145
-2.18057
5.08959
8.61966
9.26796
-3.4374
-6.54152
7.51271
-2.42312
6.84484
)
;

boundaryField
{
    wall-4
    {
        type            calculated;
        value           uniform 0;
    }
    velocity-inlet-5
    {
        type            calculated;
        value           uniform -3.75095;
    }
    velocity-inlet-6
    {
        type            calculated;
        value           uniform -5.62643;
    }
    pressure-outlet-7
    {
        type            calculated;
        value           nonuniform List<scalar> 8(2.78425 2.82614 6.2856 6.56576 8.90398 8.24112 8.84025 8.06624);
    }
    wall-8
    {
        type            calculated;
        value           uniform 0;
    }
    frontAndBackPlanes
    {
        type            empty;
        value           nonuniform 0();
    }
}


// ************************************************************************* //
