# vtk DataFile Version 2.0
sampleSurface
ASCII
DATASET POLYDATA
POINTS 502 double
-0.0206 0 -0.0005
-0.0190172 0 -0.0005
-0.0190172 0 0.0005
-0.0206 0 0.0005
-0.0174976 0 -0.0005
-0.0174976 0 0.0005
-0.0160387 0 -0.0005
-0.0160387 0 0.0005
-0.0146381 0 -0.0005
-0.0146381 0 0.0005
-0.0132934 0 -0.0005
-0.0132934 0 0.0005
-0.0120025 0 -0.0005
-0.0120025 0 0.0005
-0.0107632 0 -0.0005
-0.0107632 0 0.0005
-0.00957337 0 -0.0005
-0.00957337 0 0.0005
-0.00843108 0 -0.0005
-0.00843108 0 0.0005
-0.00733443 0 -0.0005
-0.00733443 0 0.0005
-0.0062816 0 -0.0005
-0.0062816 0 0.0005
-0.00527083 0 -0.0005
-0.00527083 0 0.0005
-0.00430044 0 -0.0005
-0.00430044 0 0.0005
-0.00336883 0 -0.0005
-0.00336883 0 0.0005
-0.00247443 0 -0.0005
-0.00247443 0 0.0005
-0.00161577 0 -0.0005
-0.00161577 0 0.0005
-0.000791418 0 -0.0005
-0.000791418 0 0.0005
0 0 -0.0005
0 0 0.0005
0 -0.0254 -0.0005
0 -0.0254 0.0005
0 -0.0242711 0.0005
0 -0.0242711 -0.0005
0 -0.0231422 0.0005
0 -0.0231422 -0.0005
0 -0.0220133 0.0005
0 -0.0220133 -0.0005
0 -0.0208844 0.0005
0 -0.0208844 -0.0005
0 -0.0197556 0.0005
0 -0.0197556 -0.0005
0 -0.0186267 0.0005
0 -0.0186267 -0.0005
0 -0.0174978 0.0005
0 -0.0174978 -0.0005
0 -0.0163689 0.0005
0 -0.0163689 -0.0005
0 -0.01524 0.0005
0 -0.01524 -0.0005
0 -0.0141111 0.0005
0 -0.0141111 -0.0005
0 -0.0129822 0.0005
0 -0.0129822 -0.0005
0 -0.0118533 0.0005
0 -0.0118533 -0.0005
0 -0.0107244 0.0005
0 -0.0107244 -0.0005
0 -0.00959556 0.0005
0 -0.00959556 -0.0005
0 -0.00846667 0.0005
0 -0.00846667 -0.0005
0 -0.00726604 0.0005
0 -0.00726604 -0.0005
0 -0.00618989 0.0005
0 -0.00618989 -0.0005
0 -0.00522531 0.0005
0 -0.00522531 -0.0005
0 -0.00436073 0.0005
0 -0.00436073 -0.0005
0 -0.00358579 0.0005
0 -0.00358579 -0.0005
0 -0.00289118 0.0005
0 -0.00289118 -0.0005
0 -0.0022686 0.0005
0 -0.0022686 -0.0005
0 -0.00171055 0.0005
0 -0.00171055 -0.0005
0 -0.00121037 0.0005
0 -0.00121037 -0.0005
0 -0.000762037 0.0005
0 -0.000762037 -0.0005
0 -0.000360188 0.0005
0 -0.000360188 -0.0005
0.000528387 -0.0254 -0.0005
0.000528387 -0.0254 0.0005
0.00106088 -0.0254 -0.0005
0.00106088 -0.0254 0.0005
0.00159752 -0.0254 -0.0005
0.00159752 -0.0254 0.0005
0.00213833 -0.0254 -0.0005
0.00213833 -0.0254 0.0005
0.00268334 -0.0254 -0.0005
0.00268334 -0.0254 0.0005
0.00323259 -0.0254 -0.0005
0.00323259 -0.0254 0.0005
0.00378611 -0.0254 -0.0005
0.00378611 -0.0254 0.0005
0.00434393 -0.0254 -0.0005
0.00434393 -0.0254 0.0005
0.00490609 -0.0254 -0.0005
0.00490609 -0.0254 0.0005
0.00547262 -0.0254 -0.0005
0.00547262 -0.0254 0.0005
0.00604356 -0.0254 -0.0005
0.00604356 -0.0254 0.0005
0.00661893 -0.0254 -0.0005
0.00661893 -0.0254 0.0005
0.00719878 -0.0254 -0.0005
0.00719878 -0.0254 0.0005
0.00778313 -0.0254 -0.0005
0.00778313 -0.0254 0.0005
0.00837203 -0.0254 -0.0005
0.00837203 -0.0254 0.0005
0.00896551 -0.0254 -0.0005
0.00896551 -0.0254 0.0005
0.0095636 -0.0254 -0.0005
0.0095636 -0.0254 0.0005
0.0101663 -0.0254 -0.0005
0.0101663 -0.0254 0.0005
0.0107738 -0.0254 -0.0005
0.0107738 -0.0254 0.0005
0.0113859 -0.0254 -0.0005
0.0113859 -0.0254 0.0005
0.0120028 -0.0254 -0.0005
0.0120028 -0.0254 0.0005
0.0126245 -0.0254 -0.0005
0.0126245 -0.0254 0.0005
0.0132511 -0.0254 -0.0005
0.0132511 -0.0254 0.0005
0.0138825 -0.0254 -0.0005
0.0138825 -0.0254 0.0005
0.0145188 -0.0254 -0.0005
0.0145188 -0.0254 0.0005
0.0151601 -0.0254 -0.0005
0.0151601 -0.0254 0.0005
0.0158063 -0.0254 -0.0005
0.0158063 -0.0254 0.0005
0.0164576 -0.0254 -0.0005
0.0164576 -0.0254 0.0005
0.0171139 -0.0254 -0.0005
0.0171139 -0.0254 0.0005
0.0177754 -0.0254 -0.0005
0.0177754 -0.0254 0.0005
0.018442 -0.0254 -0.0005
0.018442 -0.0254 0.0005
0.0191137 -0.0254 -0.0005
0.0191137 -0.0254 0.0005
0.0197907 -0.0254 -0.0005
0.0197907 -0.0254 0.0005
0.020473 -0.0254 -0.0005
0.020473 -0.0254 0.0005
0.0211606 -0.0254 -0.0005
0.0211606 -0.0254 0.0005
0.0218535 -0.0254 -0.0005
0.0218535 -0.0254 0.0005
0.0225517 -0.0254 -0.0005
0.0225517 -0.0254 0.0005
0.0232555 -0.0254 -0.0005
0.0232555 -0.0254 0.0005
0.0239647 -0.0254 -0.0005
0.0239647 -0.0254 0.0005
0.0246794 -0.0254 -0.0005
0.0246794 -0.0254 0.0005
0.0253996 -0.0254 -0.0005
0.0253996 -0.0254 0.0005
0.0261255 -0.0254 -0.0005
0.0261255 -0.0254 0.0005
0.026857 -0.0254 -0.0005
0.026857 -0.0254 0.0005
0.0275942 -0.0254 -0.0005
0.0275942 -0.0254 0.0005
0.0283371 -0.0254 -0.0005
0.0283371 -0.0254 0.0005
0.0290858 -0.0254 -0.0005
0.0290858 -0.0254 0.0005
0.0298403 -0.0254 -0.0005
0.0298403 -0.0254 0.0005
0.0306007 -0.0254 -0.0005
0.0306007 -0.0254 0.0005
0.031367 -0.0254 -0.0005
0.031367 -0.0254 0.0005
0.0321393 -0.0254 -0.0005
0.0321393 -0.0254 0.0005
0.0329175 -0.0254 -0.0005
0.0329175 -0.0254 0.0005
0.0337019 -0.0254 -0.0005
0.0337019 -0.0254 0.0005
0.0344923 -0.0254 -0.0005
0.0344923 -0.0254 0.0005
0.0352888 -0.0254 -0.0005
0.0352888 -0.0254 0.0005
0.0360916 -0.0254 -0.0005
0.0360916 -0.0254 0.0005
0.0369006 -0.0254 -0.0005
0.0369006 -0.0254 0.0005
0.0377158 -0.0254 -0.0005
0.0377158 -0.0254 0.0005
0.0385375 -0.0254 -0.0005
0.0385375 -0.0254 0.0005
0.0393655 -0.0254 -0.0005
0.0393655 -0.0254 0.0005
0.0401999 -0.0254 -0.0005
0.0401999 -0.0254 0.0005
0.0410408 -0.0254 -0.0005
0.0410408 -0.0254 0.0005
0.0418883 -0.0254 -0.0005
0.0418883 -0.0254 0.0005
0.0427424 -0.0254 -0.0005
0.0427424 -0.0254 0.0005
0.0436031 -0.0254 -0.0005
0.0436031 -0.0254 0.0005
0.0444704 -0.0254 -0.0005
0.0444704 -0.0254 0.0005
0.0453446 -0.0254 -0.0005
0.0453446 -0.0254 0.0005
0.0462255 -0.0254 -0.0005
0.0462255 -0.0254 0.0005
0.0471133 -0.0254 -0.0005
0.0471133 -0.0254 0.0005
0.048008 -0.0254 -0.0005
0.048008 -0.0254 0.0005
0.0489096 -0.0254 -0.0005
0.0489096 -0.0254 0.0005
0.0498183 -0.0254 -0.0005
0.0498183 -0.0254 0.0005
0.050734 -0.0254 -0.0005
0.050734 -0.0254 0.0005
0.0516568 -0.0254 -0.0005
0.0516568 -0.0254 0.0005
0.0525868 -0.0254 -0.0005
0.0525868 -0.0254 0.0005
0.053524 -0.0254 -0.0005
0.053524 -0.0254 0.0005
0.0544686 -0.0254 -0.0005
0.0544686 -0.0254 0.0005
0.0554204 -0.0254 -0.0005
0.0554204 -0.0254 0.0005
0.0563797 -0.0254 -0.0005
0.0563797 -0.0254 0.0005
0.0573464 -0.0254 -0.0005
0.0573464 -0.0254 0.0005
0.0583206 -0.0254 -0.0005
0.0583206 -0.0254 0.0005
0.0593025 -0.0254 -0.0005
0.0593025 -0.0254 0.0005
0.0602919 -0.0254 -0.0005
0.0602919 -0.0254 0.0005
0.0612891 -0.0254 -0.0005
0.0612891 -0.0254 0.0005
0.0622939 -0.0254 -0.0005
0.0622939 -0.0254 0.0005
0.0633067 -0.0254 -0.0005
0.0633067 -0.0254 0.0005
0.0643272 -0.0254 -0.0005
0.0643272 -0.0254 0.0005
0.0653557 -0.0254 -0.0005
0.0653557 -0.0254 0.0005
0.0663923 -0.0254 -0.0005
0.0663923 -0.0254 0.0005
0.0674368 -0.0254 -0.0005
0.0674368 -0.0254 0.0005
0.0684895 -0.0254 -0.0005
0.0684895 -0.0254 0.0005
0.0695504 -0.0254 -0.0005
0.0695504 -0.0254 0.0005
0.0706195 -0.0254 -0.0005
0.0706195 -0.0254 0.0005
0.0716969 -0.0254 -0.0005
0.0716969 -0.0254 0.0005
0.0727828 -0.0254 -0.0005
0.0727828 -0.0254 0.0005
0.073877 -0.0254 -0.0005
0.073877 -0.0254 0.0005
0.0749798 -0.0254 -0.0005
0.0749798 -0.0254 0.0005
0.0760911 -0.0254 -0.0005
0.0760911 -0.0254 0.0005
0.0772111 -0.0254 -0.0005
0.0772111 -0.0254 0.0005
0.0783398 -0.0254 -0.0005
0.0783398 -0.0254 0.0005
0.0794772 -0.0254 -0.0005
0.0794772 -0.0254 0.0005
0.0806235 -0.0254 -0.0005
0.0806235 -0.0254 0.0005
0.0817787 -0.0254 -0.0005
0.0817787 -0.0254 0.0005
0.0829429 -0.0254 -0.0005
0.0829429 -0.0254 0.0005
0.0841162 -0.0254 -0.0005
0.0841162 -0.0254 0.0005
0.0852985 -0.0254 -0.0005
0.0852985 -0.0254 0.0005
0.0864901 -0.0254 -0.0005
0.0864901 -0.0254 0.0005
0.0876909 -0.0254 -0.0005
0.0876909 -0.0254 0.0005
0.0889011 -0.0254 -0.0005
0.0889011 -0.0254 0.0005
0.0901207 -0.0254 -0.0005
0.0901207 -0.0254 0.0005
0.0913497 -0.0254 -0.0005
0.0913497 -0.0254 0.0005
0.0925883 -0.0254 -0.0005
0.0925883 -0.0254 0.0005
0.0938366 -0.0254 -0.0005
0.0938366 -0.0254 0.0005
0.0950945 -0.0254 -0.0005
0.0950945 -0.0254 0.0005
0.0963622 -0.0254 -0.0005
0.0963622 -0.0254 0.0005
0.0976398 -0.0254 -0.0005
0.0976398 -0.0254 0.0005
0.0989273 -0.0254 -0.0005
0.0989273 -0.0254 0.0005
0.100225 -0.0254 -0.0005
0.100225 -0.0254 0.0005
0.101532 -0.0254 -0.0005
0.101532 -0.0254 0.0005
0.10285 -0.0254 -0.0005
0.10285 -0.0254 0.0005
0.104178 -0.0254 -0.0005
0.104178 -0.0254 0.0005
0.105517 -0.0254 -0.0005
0.105517 -0.0254 0.0005
0.106865 -0.0254 -0.0005
0.106865 -0.0254 0.0005
0.108225 -0.0254 -0.0005
0.108225 -0.0254 0.0005
0.109594 -0.0254 -0.0005
0.109594 -0.0254 0.0005
0.110975 -0.0254 -0.0005
0.110975 -0.0254 0.0005
0.112366 -0.0254 -0.0005
0.112366 -0.0254 0.0005
0.113768 -0.0254 -0.0005
0.113768 -0.0254 0.0005
0.115181 -0.0254 -0.0005
0.115181 -0.0254 0.0005
0.116605 -0.0254 -0.0005
0.116605 -0.0254 0.0005
0.11804 -0.0254 -0.0005
0.11804 -0.0254 0.0005
0.119486 -0.0254 -0.0005
0.119486 -0.0254 0.0005
0.120943 -0.0254 -0.0005
0.120943 -0.0254 0.0005
0.122412 -0.0254 -0.0005
0.122412 -0.0254 0.0005
0.123892 -0.0254 -0.0005
0.123892 -0.0254 0.0005
0.125384 -0.0254 -0.0005
0.125384 -0.0254 0.0005
0.126887 -0.0254 -0.0005
0.126887 -0.0254 0.0005
0.128402 -0.0254 -0.0005
0.128402 -0.0254 0.0005
0.129928 -0.0254 -0.0005
0.129928 -0.0254 0.0005
0.131467 -0.0254 -0.0005
0.131467 -0.0254 0.0005
0.133017 -0.0254 -0.0005
0.133017 -0.0254 0.0005
0.13458 -0.0254 -0.0005
0.13458 -0.0254 0.0005
0.136155 -0.0254 -0.0005
0.136155 -0.0254 0.0005
0.137742 -0.0254 -0.0005
0.137742 -0.0254 0.0005
0.139341 -0.0254 -0.0005
0.139341 -0.0254 0.0005
0.140953 -0.0254 -0.0005
0.140953 -0.0254 0.0005
0.142577 -0.0254 -0.0005
0.142577 -0.0254 0.0005
0.144214 -0.0254 -0.0005
0.144214 -0.0254 0.0005
0.145863 -0.0254 -0.0005
0.145863 -0.0254 0.0005
0.147526 -0.0254 -0.0005
0.147526 -0.0254 0.0005
0.149201 -0.0254 -0.0005
0.149201 -0.0254 0.0005
0.15089 -0.0254 -0.0005
0.15089 -0.0254 0.0005
0.152591 -0.0254 -0.0005
0.152591 -0.0254 0.0005
0.154306 -0.0254 -0.0005
0.154306 -0.0254 0.0005
0.156034 -0.0254 -0.0005
0.156034 -0.0254 0.0005
0.157775 -0.0254 -0.0005
0.157775 -0.0254 0.0005
0.159531 -0.0254 -0.0005
0.159531 -0.0254 0.0005
0.161299 -0.0254 -0.0005
0.161299 -0.0254 0.0005
0.163082 -0.0254 -0.0005
0.163082 -0.0254 0.0005
0.164878 -0.0254 -0.0005
0.164878 -0.0254 0.0005
0.166688 -0.0254 -0.0005
0.166688 -0.0254 0.0005
0.168513 -0.0254 -0.0005
0.168513 -0.0254 0.0005
0.170351 -0.0254 -0.0005
0.170351 -0.0254 0.0005
0.172204 -0.0254 -0.0005
0.172204 -0.0254 0.0005
0.174071 -0.0254 -0.0005
0.174071 -0.0254 0.0005
0.175953 -0.0254 -0.0005
0.175953 -0.0254 0.0005
0.177849 -0.0254 -0.0005
0.177849 -0.0254 0.0005
0.17976 -0.0254 -0.0005
0.17976 -0.0254 0.0005
0.181686 -0.0254 -0.0005
0.181686 -0.0254 0.0005
0.183627 -0.0254 -0.0005
0.183627 -0.0254 0.0005
0.185583 -0.0254 -0.0005
0.185583 -0.0254 0.0005
0.187555 -0.0254 -0.0005
0.187555 -0.0254 0.0005
0.189541 -0.0254 -0.0005
0.189541 -0.0254 0.0005
0.191543 -0.0254 -0.0005
0.191543 -0.0254 0.0005
0.193561 -0.0254 -0.0005
0.193561 -0.0254 0.0005
0.195594 -0.0254 -0.0005
0.195594 -0.0254 0.0005
0.197643 -0.0254 -0.0005
0.197643 -0.0254 0.0005
0.199708 -0.0254 -0.0005
0.199708 -0.0254 0.0005
0.201789 -0.0254 -0.0005
0.201789 -0.0254 0.0005
0.203886 -0.0254 -0.0005
0.203886 -0.0254 0.0005
0.206 -0.0254 -0.0005
0.206 -0.0254 0.0005
0.208047 -0.0251856 -0.0005
0.208047 -0.0251856 0.0005
0.210173 -0.0249628 -0.0005
0.210173 -0.0249628 0.0005
0.212382 -0.0247314 -0.0005
0.212382 -0.0247314 0.0005
0.214677 -0.024491 -0.0005
0.214677 -0.024491 0.0005
0.217061 -0.0242412 -0.0005
0.217061 -0.0242412 0.0005
0.219538 -0.0239817 -0.0005
0.219538 -0.0239817 0.0005
0.222112 -0.0237121 -0.0005
0.222112 -0.0237121 0.0005
0.224785 -0.023432 -0.0005
0.224785 -0.023432 0.0005
0.227563 -0.023141 -0.0005
0.227563 -0.023141 0.0005
0.230449 -0.0228387 -0.0005
0.230449 -0.0228387 0.0005
0.233447 -0.0225246 -0.0005
0.233447 -0.0225246 0.0005
0.236562 -0.0221983 -0.0005
0.236562 -0.0221983 0.0005
0.239797 -0.0218593 -0.0005
0.239797 -0.0218593 0.0005
0.243159 -0.0215071 -0.0005
0.243159 -0.0215071 0.0005
0.246652 -0.0211412 -0.0005
0.246652 -0.0211412 0.0005
0.250281 -0.0207611 -0.0005
0.250281 -0.0207611 0.0005
0.254051 -0.0203661 -0.0005
0.254051 -0.0203661 0.0005
0.257967 -0.0199558 -0.0005
0.257967 -0.0199558 0.0005
0.262036 -0.0195295 -0.0005
0.262036 -0.0195295 0.0005
0.266264 -0.0190867 -0.0005
0.266264 -0.0190867 0.0005
0.270655 -0.0186266 -0.0005
0.270655 -0.0186266 0.0005
0.275218 -0.0181486 -0.0005
0.275218 -0.0181486 0.0005
0.279959 -0.017652 -0.0005
0.279959 -0.017652 0.0005
0.284883 -0.017136 -0.0005
0.284883 -0.017136 0.0005
0.29 -0.0166 -0.0005
0.29 -0.0166 0.0005

POLYGONS 250 1250
4 0 1 2 3
4 1 4 5 2
4 4 6 7 5
4 6 8 9 7
4 8 10 11 9
4 10 12 13 11
4 12 14 15 13
4 14 16 17 15
4 16 18 19 17
4 18 20 21 19
4 20 22 23 21
4 22 24 25 23
4 24 26 27 25
4 26 28 29 27
4 28 30 31 29
4 30 32 33 31
4 32 34 35 33
4 34 36 37 35
4 38 39 40 41
4 41 40 42 43
4 43 42 44 45
4 45 44 46 47
4 47 46 48 49
4 49 48 50 51
4 51 50 52 53
4 53 52 54 55
4 55 54 56 57
4 57 56 58 59
4 59 58 60 61
4 61 60 62 63
4 63 62 64 65
4 65 64 66 67
4 67 66 68 69
4 69 68 70 71
4 71 70 72 73
4 73 72 74 75
4 75 74 76 77
4 77 76 78 79
4 79 78 80 81
4 81 80 82 83
4 83 82 84 85
4 85 84 86 87
4 87 86 88 89
4 89 88 90 91
4 91 90 37 36
4 38 92 93 39
4 92 94 95 93
4 94 96 97 95
4 96 98 99 97
4 98 100 101 99
4 100 102 103 101
4 102 104 105 103
4 104 106 107 105
4 106 108 109 107
4 108 110 111 109
4 110 112 113 111
4 112 114 115 113
4 114 116 117 115
4 116 118 119 117
4 118 120 121 119
4 120 122 123 121
4 122 124 125 123
4 124 126 127 125
4 126 128 129 127
4 128 130 131 129
4 130 132 133 131
4 132 134 135 133
4 134 136 137 135
4 136 138 139 137
4 138 140 141 139
4 140 142 143 141
4 142 144 145 143
4 144 146 147 145
4 146 148 149 147
4 148 150 151 149
4 150 152 153 151
4 152 154 155 153
4 154 156 157 155
4 156 158 159 157
4 158 160 161 159
4 160 162 163 161
4 162 164 165 163
4 164 166 167 165
4 166 168 169 167
4 168 170 171 169
4 170 172 173 171
4 172 174 175 173
4 174 176 177 175
4 176 178 179 177
4 178 180 181 179
4 180 182 183 181
4 182 184 185 183
4 184 186 187 185
4 186 188 189 187
4 188 190 191 189
4 190 192 193 191
4 192 194 195 193
4 194 196 197 195
4 196 198 199 197
4 198 200 201 199
4 200 202 203 201
4 202 204 205 203
4 204 206 207 205
4 206 208 209 207
4 208 210 211 209
4 210 212 213 211
4 212 214 215 213
4 214 216 217 215
4 216 218 219 217
4 218 220 221 219
4 220 222 223 221
4 222 224 225 223
4 224 226 227 225
4 226 228 229 227
4 228 230 231 229
4 230 232 233 231
4 232 234 235 233
4 234 236 237 235
4 236 238 239 237
4 238 240 241 239
4 240 242 243 241
4 242 244 245 243
4 244 246 247 245
4 246 248 249 247
4 248 250 251 249
4 250 252 253 251
4 252 254 255 253
4 254 256 257 255
4 256 258 259 257
4 258 260 261 259
4 260 262 263 261
4 262 264 265 263
4 264 266 267 265
4 266 268 269 267
4 268 270 271 269
4 270 272 273 271
4 272 274 275 273
4 274 276 277 275
4 276 278 279 277
4 278 280 281 279
4 280 282 283 281
4 282 284 285 283
4 284 286 287 285
4 286 288 289 287
4 288 290 291 289
4 290 292 293 291
4 292 294 295 293
4 294 296 297 295
4 296 298 299 297
4 298 300 301 299
4 300 302 303 301
4 302 304 305 303
4 304 306 307 305
4 306 308 309 307
4 308 310 311 309
4 310 312 313 311
4 312 314 315 313
4 314 316 317 315
4 316 318 319 317
4 318 320 321 319
4 320 322 323 321
4 322 324 325 323
4 324 326 327 325
4 326 328 329 327
4 328 330 331 329
4 330 332 333 331
4 332 334 335 333
4 334 336 337 335
4 336 338 339 337
4 338 340 341 339
4 340 342 343 341
4 342 344 345 343
4 344 346 347 345
4 346 348 349 347
4 348 350 351 349
4 350 352 353 351
4 352 354 355 353
4 354 356 357 355
4 356 358 359 357
4 358 360 361 359
4 360 362 363 361
4 362 364 365 363
4 364 366 367 365
4 366 368 369 367
4 368 370 371 369
4 370 372 373 371
4 372 374 375 373
4 374 376 377 375
4 376 378 379 377
4 378 380 381 379
4 380 382 383 381
4 382 384 385 383
4 384 386 387 385
4 386 388 389 387
4 388 390 391 389
4 390 392 393 391
4 392 394 395 393
4 394 396 397 395
4 396 398 399 397
4 398 400 401 399
4 400 402 403 401
4 402 404 405 403
4 404 406 407 405
4 406 408 409 407
4 408 410 411 409
4 410 412 413 411
4 412 414 415 413
4 414 416 417 415
4 416 418 419 417
4 418 420 421 419
4 420 422 423 421
4 422 424 425 423
4 424 426 427 425
4 426 428 429 427
4 428 430 431 429
4 430 432 433 431
4 432 434 435 433
4 434 436 437 435
4 436 438 439 437
4 438 440 441 439
4 440 442 443 441
4 442 444 445 443
4 444 446 447 445
4 446 448 449 447
4 448 450 451 449
4 450 452 453 451
4 452 454 455 453
4 454 456 457 455
4 456 458 459 457
4 458 460 461 459
4 460 462 463 461
4 462 464 465 463
4 464 466 467 465
4 466 468 469 467
4 468 470 471 469
4 470 472 473 471
4 472 474 475 473
4 474 476 477 475
4 476 478 479 477
4 478 480 481 479
4 480 482 483 481
4 482 484 485 483
4 484 486 487 485
4 486 488 489 487
4 488 490 491 489
4 490 492 493 491
4 492 494 495 493
4 494 496 497 495
4 496 498 499 497
4 498 500 501 499
POINT_DATA 502
FIELD attributes 1
U 3 502 float
1.63871 0.124827 -0.010096
0.82054 0.0619896 -0.00497533
0.82054 0.0619896 -0.00497533
1.63871 0.124827 -0.010096
0.0240136 0.000812915 0
0.0240136 0.000812915 0
0.0213558 0.000595566 0
0.0213558 0.000595566 0
0.0192023 0.000465835 0
0.0192023 0.000465835 0
0.0170365 0.00041147 0
0.0170365 0.00041147 0
0.0148553 0.00036071 0
0.0148553 0.00036071 0
0.0128549 0.000300528 0
0.0128549 0.000300528 0
0.0111189 0.000253284 0
0.0111189 0.000253284 0
0.0095896 0.000227077 0
0.0095896 0.000227077 0
0.00816963 0.000207589 0
0.00816963 0.000207589 0
0.00684169 0.000176045 0
0.00684169 0.000176045 0
0.00563803 0.000129653 0
0.00563803 0.000129653 0
0.00461847 7.58896e-05 0
0.00461847 7.58896e-05 0
0.00377292 2.20819e-05 0
0.00377292 2.20819e-05 0
0.00314174 -1.06322e-05 0
0.00314174 -1.06322e-05 0
0.00255207 -5.16064e-05 0
0.00255207 -5.16064e-05 0
0.00222293 -0.0001386 0
0.00222293 -0.0001386 0
0.00108431 0.000237943 0
0.00108431 0.000237943 0
-0.00010577 0.000265651 1.74206e-23
-0.00010577 0.000265651 1.74206e-23
-8.96826e-05 0.000946886 -4.70195e-23
-8.96826e-05 0.000946886 -4.70195e-23
-7.67827e-05 0.00176778 -5.5675e-23
-7.67827e-05 0.00176778 -5.5675e-23
-0.000110691 0.00192321 1.11197e-22
-0.000110691 0.00192321 1.11197e-22
0.000109146 0.00120953 3.7042e-23
0.000109146 0.00120953 3.7042e-23
0.000526224 -0.00101803 -7.40997e-23
0.000526224 -0.00101803 -7.40997e-23
0.00061061 -0.00359423 0
0.00061061 -0.00359423 0
0.000432035 -0.0053615 -1.45855e-22
0.000432035 -0.0053615 -1.45855e-22
0.000262764 -0.00644064 -3.44017e-26
0.000262764 -0.00644064 -3.44017e-26
0.000133326 -0.00702385 1.4582e-22
0.000133326 -0.00702385 1.4582e-22
3.31852e-05 -0.00725312 -1.46219e-22
3.31852e-05 -0.00725312 -1.46219e-22
-4.29758e-05 -0.00722236 2.02047e-27
-4.29758e-05 -0.00722236 2.02047e-27
-9.67087e-05 -0.00702231 1.46221e-22
-9.67087e-05 -0.00702231 1.46221e-22
-0.000129924 -0.00670939 1.48718e-22
-0.000129924 -0.00670939 1.48718e-22
-0.000134547 -0.00633446 -3.81104e-26
-0.000134547 -0.00633446 -3.81104e-26
-8.63013e-05 -0.00598807 -1.51392e-22
-8.63013e-05 -0.00598807 -1.51392e-22
3.23011e-05 -0.00583417 0
3.23011e-05 -0.00583417 0
0.000141785 -0.00601271 0
0.000141785 -0.00601271 0
9.75836e-05 -0.0061978 0
9.75836e-05 -0.0061978 0
-8.92688e-05 -0.0058787 0
-8.92688e-05 -0.0058787 0
-0.000237456 -0.0051426 0
-0.000237456 -0.0051426 0
-0.000306656 -0.00433572 0
-0.000306656 -0.00433572 0
-0.000384118 -0.00348192 0
-0.000384118 -0.00348192 0
-0.000474668 -0.00256051 0
-0.000474668 -0.00256051 0
-0.000538016 -0.00157197 0
-0.000538016 -0.00157197 0
-0.000487323 -0.000635498 0
-0.000487323 -0.000635498 0
-0.000146288 0.000190888 0
-0.000146288 0.000190888 0
-0.000254223 0.000250245 7.91312e-26
-0.000254223 0.000250245 7.91312e-26
-0.000475871 0.000166116 -8.65337e-24
-0.000475871 0.000166116 -8.65337e-24
-0.000509826 -5.04113e-06 0
-0.000509826 -5.04113e-06 0
-0.000377765 -0.000151672 0
-0.000377765 -0.000151672 0
-0.000162736 -0.000203564 8.43623e-24
-0.000162736 -0.000203564 8.43623e-24
6.9095e-05 -0.000186595 8.45139e-24
6.9095e-05 -0.000186595 8.45139e-24
0.000257424 -0.000113049 0
0.000257424 -0.000113049 0
0.000366132 4.32474e-06 0
0.000366132 4.32474e-06 0
0.000366487 0.00013808 0
0.000366487 0.00013808 0
0.00025223 0.000186594 -8.15742e-24
0.00025223 0.000186594 -8.15742e-24
7.52763e-05 6.94359e-05 -8.17296e-24
7.52763e-05 6.94359e-05 -8.17296e-24
-8.14562e-05 -5.96295e-05 0
-8.14562e-05 -5.96295e-05 0
-0.000184521 -3.36751e-05 0
-0.000184521 -3.36751e-05 0
-0.000263332 5.79682e-05 0
-0.000263332 5.79682e-05 0
-0.000365592 0.000106465 -7.83702e-24
-0.000365592 0.000106465 -7.83702e-24
-0.000489932 0.000114911 -7.85285e-24
-0.000489932 0.000114911 -7.85285e-24
-0.00058946 8.43513e-05 0
-0.00058946 8.43513e-05 0
-0.000636634 1.29851e-05 0
-0.000636634 1.29851e-05 0
-0.000632869 -7.49141e-05 0
-0.000632869 -7.49141e-05 0
-0.000602553 -0.000145415 0
-0.000602553 -0.000145415 0
-0.000586704 -0.000169198 0
-0.000586704 -0.000169198 0
-0.000610185 -0.000142888 0
-0.000610185 -0.000142888 0
-0.000677698 -0.000108211 -7.26742e-24
-0.000677698 -0.000108211 -7.26742e-24
-0.000798277 -0.000102645 -9.68958e-26
-0.000798277 -0.000102645 -9.68958e-26
-0.000989887 -4.87423e-05 9.79234e-26
-0.000989887 -4.87423e-05 9.79234e-26
-0.00128213 0.000149189 -1.41439e-23
-0.00128213 0.000149189 -1.41439e-23
-0.00169927 0.000370897 -7.03918e-24
-0.00169927 0.000370897 -7.03918e-24
-0.00220357 0.000457948 0
-0.00220357 0.000457948 0
-0.00272999 0.000475407 6.7522e-24
-0.00272999 0.000475407 6.7522e-24
-0.00325976 0.000497982 1.3419e-23
-0.00325976 0.000497982 1.3419e-23
-0.00378535 0.000498705 6.66669e-24
-0.00378535 0.000498705 6.66669e-24
-0.00428824 0.000477145 0
-0.00428824 0.000477145 0
-0.00475744 0.000442204 6.33015e-24
-0.00475744 0.000442204 6.33015e-24
-0.00518476 0.000399211 6.34574e-24
-0.00518476 0.000399211 6.34574e-24
-0.00556609 0.000354445 0
-0.00556609 0.000354445 0
-0.00589857 0.000305271 -6.02333e-24
-0.00589857 0.000305271 -6.02333e-24
-0.00617972 0.00025634 -6.03864e-24
-0.00617972 0.00025634 -6.03864e-24
-0.00641026 0.000208292 -5.84798e-24
-0.00641026 0.000208292 -5.84798e-24
-0.00658966 0.000158486 -1.74081e-23
-0.00658966 0.000158486 -1.74081e-23
-0.00671754 0.000109896 -1.15752e-23
-0.00671754 0.000109896 -1.15752e-23
-0.0067944 6.34614e-05 0
-0.0067944 6.34614e-05 0
-0.00682012 1.89045e-05 0
-0.00682012 1.89045e-05 0
-0.0067977 -2.31229e-05 0
-0.0067977 -2.31229e-05 0
-0.00673046 -6.30004e-05 0
-0.00673046 -6.30004e-05 0
-0.00662011 -0.000101208 -1.10331e-23
-0.00662011 -0.000101208 -1.10331e-23
-0.0064694 -0.000137465 -2.20764e-23
-0.0064694 -0.000137465 -2.20764e-23
-0.00628154 -0.000170947 -2.2052e-23
-0.00628154 -0.000170947 -2.2052e-23
-0.00606004 -0.000200404 -1.10396e-23
-0.00606004 -0.000200404 -1.10396e-23
-0.00580845 -0.000224606 1.10416e-23
-0.00580845 -0.000224606 1.10416e-23
-0.00553067 -0.000242281 1.10736e-23
-0.00553067 -0.000242281 1.10736e-23
-0.00523049 -0.000252224 -1.11182e-23
-0.00523049 -0.000252224 -1.11182e-23
-0.00491157 -0.000254455 -2.23179e-23
-0.00491157 -0.000254455 -2.23179e-23
-0.00457637 -0.000251556 -1.12002e-23
-0.00457637 -0.000251556 -1.12002e-23
-0.00422259 -0.000248638 0
-0.00422259 -0.000248638 0
-0.00384055 -0.000251815 0
-0.00384055 -0.000251815 0
-0.00341851 -0.000266924 -1.13727e-23
-0.00341851 -0.000266924 -1.13727e-23
-0.00295158 -0.0002969 -1.14079e-23
-0.00295158 -0.0002969 -1.14079e-23
-0.00244185 -0.000335812 0
-0.00244185 -0.000335812 0
-0.00189209 -0.000367543 0
-0.00189209 -0.000367543 0
-0.00131209 -0.00038221 0
-0.00131209 -0.00038221 0
-0.000713304 -0.00039288 0
-0.000713304 -0.00039288 0
-9.38532e-05 -0.000401524 0
-9.38532e-05 -0.000401524 0
0.000540281 -0.000378597 0
0.000540281 -0.000378597 0
0.00116142 -0.000311103 0
0.00116142 -0.000311103 0
0.0017208 -0.000277155 1.12003e-23
0.0017208 -0.000277155 1.12003e-23
0.00225311 -0.000318586 1.12379e-23
0.00225311 -0.000318586 1.12379e-23
0.00282549 -0.000134136 0
0.00282549 -0.000134136 0
0.00301662 0.000386715 -1.08697e-23
0.00301662 0.000386715 -1.08697e-23
0.00246565 0.000590452 -2.17039e-23
0.00246565 0.000590452 -2.17039e-23
0.00172383 0.000302586 -1.08343e-23
0.00172383 0.000302586 -1.08343e-23
0.00124877 0.000184979 1.06351e-23
0.00124877 0.000184979 1.06351e-23
0.000890781 0.000257917 1.26692e-25
0.000890781 0.000257917 1.26692e-25
0.000571257 0.000196542 -1.05837e-23
0.000571257 0.000196542 -1.05837e-23
0.000205558 0.000148232 1.0339e-23
0.000205558 0.000148232 1.0339e-23
-0.000233145 9.79038e-05 1.03765e-23
-0.000233145 9.79038e-05 1.03765e-23
-0.000373431 -0.000181797 0
-0.000373431 -0.000181797 0
0.000140756 -0.000570673 -1.00709e-23
0.000140756 -0.000570673 -1.00709e-23
0.00123577 -0.000778881 -1.01083e-23
0.00123577 -0.000778881 -1.01083e-23
0.0024717 -0.000710037 9.76534e-24
0.0024717 -0.000710037 9.76534e-24
0.00348421 -0.000386268 9.80223e-24
0.00348421 -0.000386268 9.80223e-24
0.00397258 8.15558e-05 -9.41274e-24
0.00397258 8.15558e-05 -9.41274e-24
0.00363163 0.000420134 -1.87676e-23
0.00363163 0.000420134 -1.87676e-23
0.00277066 0.000444624 -1.85858e-23
0.00277066 0.000444624 -1.85858e-23
0.00211193 0.000237637 -2.75513e-23
0.00211193 0.000237637 -2.75513e-23
0.00193677 -5.64254e-05 -2.22823e-25
0.00193677 -5.64254e-05 -2.22823e-25
0.00204341 -0.000352487 1.82051e-23
0.00204341 -0.000352487 1.82051e-23
0.00215669 -0.00049071 0
0.00215669 -0.00049071 0
0.00196997 -0.00023873 0
0.00196997 -0.00023873 0
0.00117836 0.000307479 1.73251e-23
0.00117836 0.000307479 1.73251e-23
-0.000131562 0.000703744 3.44131e-23
-0.000131562 0.000703744 3.44131e-23
-0.00156884 0.00079214 5.15755e-25
-0.00156884 0.00079214 5.15755e-25
-0.00290043 0.0007363 -1.66401e-23
-0.00290043 0.0007363 -1.66401e-23
-0.00406804 0.000641585 1.54757e-23
-0.00406804 0.000641585 1.54757e-23
-0.00506659 0.000543022 3.04475e-23
-0.00506659 0.000543022 3.04475e-23
-0.00591067 0.000453144 2.93276e-23
-0.00591067 0.000453144 2.93276e-23
-0.00662026 0.000375639 1.44189e-23
-0.00662026 0.000375639 1.44189e-23
-0.00721482 0.000310519 0
-0.00721482 0.000310519 0
-0.0077111 0.00025592 0
-0.0077111 0.00025592 0
-0.00812197 0.000209405 1.25447e-23
-0.00812197 0.000209405 1.25447e-23
-0.00845691 0.000169079 1.25996e-23
-0.00845691 0.000169079 1.25996e-23
-0.00872299 0.000133397 0
-0.00872299 0.000133397 0
-0.00892506 0.000100867 -1.1676e-23
-0.00892506 0.000100867 -1.1676e-23
-0.009066 7.07977e-05 -1.17281e-23
-0.009066 7.07977e-05 -1.17281e-23
-0.00914794 4.30539e-05 0
-0.00914794 4.30539e-05 0
-0.00917295 1.69697e-05 -1.12529e-23
-0.00917295 1.69697e-05 -1.12529e-23
-0.00914494 -7.44419e-06 -1.13041e-23
-0.00914494 -7.44419e-06 -1.13041e-23
-0.0090666 -3.01742e-05 0
-0.0090666 -3.01742e-05 0
-0.00893836 -5.19757e-05 1.12323e-23
-0.00893836 -5.19757e-05 1.12323e-23
-0.00876076 -7.32893e-05 2.25835e-23
-0.00876076 -7.32893e-05 2.25835e-23
-0.00853323 -9.45314e-05 1.13518e-23
-0.00853323 -9.45314e-05 1.13518e-23
-0.00825415 -0.000116127 -1.15202e-23
-0.00825415 -0.000116127 -1.15202e-23
-0.00792106 -0.000138376 -1.15747e-23
-0.00792106 -0.000138376 -1.15747e-23
-0.00753132 -0.000161232 1.18338e-23
-0.00753132 -0.000161232 1.18338e-23
-0.0070829 -0.000184252 1.18904e-23
-0.0070829 -0.000184252 1.18904e-23
-0.00657521 -0.000206548 1.2202e-23
-0.00657521 -0.000206548 1.2202e-23
-0.00600994 -0.00022681 2.46504e-23
-0.00600994 -0.00022681 2.46504e-23
-0.0053922 -0.00024351 1.24497e-23
-0.0053922 -0.00024351 1.24497e-23
-0.00473217 -0.000255164 0
-0.00473217 -0.000255164 0
-0.00404531 -0.000260342 0
-0.00404531 -0.000260342 0
-0.00334949 -0.000258208 0
-0.00334949 -0.000258208 0
-0.00266122 -0.000249333 0
-0.00266122 -0.000249333 0
-0.0019951 -0.000235223 0
-0.0019951 -0.000235223 0
-0.00136413 -0.000217316 0
-0.00136413 -0.000217316 0
-0.00077655 -0.000196868 1.28798e-23
-0.00077655 -0.000196868 1.28798e-23
-0.000235022 -0.000178098 1.64136e-25
-0.000235022 -0.000178098 1.64136e-25
0.000260425 -0.000161167 -1.28466e-23
0.000260425 -0.000161167 -1.28466e-23
0.000712475 -0.000143867 0
0.000712475 -0.000143867 0
0.00112436 -0.000127519 0
0.00112436 -0.000127519 0
0.00149784 -0.000112152 0
0.00149784 -0.000112152 0
0.00183467 -9.77381e-05 -2.39834e-23
0.00183467 -9.77381e-05 -2.39834e-23
0.00213685 -8.43345e-05 -2.41093e-23
0.00213685 -8.43345e-05 -2.41093e-23
0.00240658 -7.20012e-05 2.32105e-23
0.00240658 -7.20012e-05 2.32105e-23
0.00264617 -6.07283e-05 5.21042e-25
0.00264617 -6.07283e-05 5.21042e-25
0.00285782 -5.03851e-05 -2.29342e-23
0.00285782 -5.03851e-05 -2.29342e-23
0.00304326 -4.07362e-05 0
0.00304326 -4.07362e-05 0
0.0032037 -3.16699e-05 0
0.0032037 -3.16699e-05 0
0.00334007 -2.30598e-05 2.1221e-23
0.00334007 -2.30598e-05 2.1221e-23
0.00345272 -1.45781e-05 4.21729e-23
0.00345272 -1.45781e-05 4.21729e-23
0.00354174 -6.28903e-06 2.09503e-23
0.00354174 -6.28903e-06 2.09503e-23
0.00360762 1.83512e-06 2.01007e-23
0.00360762 1.83512e-06 2.01007e-23
0.00365021 1.02227e-05 3.99642e-23
0.00365021 1.02227e-05 3.99642e-23
0.00367004 1.86487e-05 4.4224e-25
0.00367004 1.86487e-05 4.4224e-25
0.00366771 2.6837e-05 -1.95278e-23
0.00366771 2.6837e-05 -1.95278e-23
0.00364254 3.53608e-05 0
0.00364254 3.53608e-05 0
0.00359353 4.52793e-05 -1.85172e-23
0.00359353 4.52793e-05 -1.85172e-23
0.00351811 5.74012e-05 -1.86215e-23
0.00351811 5.74012e-05 -1.86215e-23
0.00341275 7.09298e-05 0
0.00341275 7.09298e-05 0
0.00327559 8.32894e-05 0
0.00327559 8.32894e-05 0
0.0031076 9.261e-05 0
0.0031076 9.261e-05 0
0.00291103 9.91802e-05 1.72802e-23
0.00291103 9.91802e-05 1.72802e-23
0.00268912 0.000102525 3.44362e-23
0.00268912 0.000102525 3.44362e-23
0.00244977 9.871e-05 1.71551e-23
0.00244977 9.871e-05 1.71551e-23
0.00220919 8.42776e-05 1.66144e-23
0.00220919 8.42776e-05 1.66144e-23
0.00198932 6.117e-05 1.67111e-23
0.00198932 6.117e-05 1.67111e-23
0.001809 3.55857e-05 0
0.001809 3.55857e-05 0
0.00167678 1.3794e-05 1.59703e-23
0.00167678 1.3794e-05 1.59703e-23
0.00159066 -1.0701e-06 1.60643e-23
0.00159066 -1.0701e-06 1.60643e-23
0.00154151 -9.26404e-06 1.55553e-23
0.00154151 -9.26404e-06 1.55553e-23
0.00151748 -1.26251e-05 1.56475e-23
0.00151748 -1.26251e-05 1.56475e-23
0.001508 -1.30495e-05 0
0.001508 -1.30495e-05 0
0.00150554 -1.19324e-05 1.49208e-23
0.00150554 -1.19324e-05 1.49208e-23