/*--------------------------------*- C++ -*----------------------------------*\
  =========                 |
  \\      /  F ield         | OpenFOAM: The Open Source CFD Toolbox
   \\    /   O peration     | Website:  https://openfoam.org
    \\  /    A nd           | Version:  7
     \\/     M anipulation  |
\*---------------------------------------------------------------------------*/
FoamFile
{
    version     2.0;
    format      ascii;
    class       volScalarField;
    location    "0.051";
    object      p;
}
// * * * * * * * * * * * * * * * * * * * * * * * * * * * * * * * * * * * * * //

dimensions      [0 2 -2 0 0 0 0];

internalField   nonuniform List<scalar> 
12225
(
-159.405
-160.093
-161.254
-162.312
-163.033
-163.439
-163.593
-163.547
-163.337
-162.998
-162.565
-162.054
-161.465
-160.792
-160.025
-159.15
-158.151
-156.94
-159.176
-160.111
-161.283
-162.328
-163.05
-163.457
-163.612
-163.566
-163.355
-163.014
-162.579
-162.066
-161.476
-160.803
-160.038
-159.17
-158.185
-157.039
-158.504
-160.148
-161.358
-162.378
-163.094
-163.498
-163.648
-163.598
-163.385
-163.045
-162.608
-162.092
-161.499
-160.825
-160.064
-159.21
-158.254
-157.2
-158.669
-160.21
-161.437
-162.44
-163.15
-163.553
-163.7
-163.648
-163.435
-163.094
-162.654
-162.134
-161.537
-160.863
-160.109
-159.275
-158.363
-157.396
-157.923
-160.277
-161.564
-162.546
-163.239
-163.636
-163.779
-163.723
-163.507
-163.163
-162.72
-162.195
-161.596
-160.924
-160.181
-159.371
-158.504
-157.609
-157.619
-160.413
-161.724
-162.684
-163.36
-163.748
-163.887
-163.823
-163.601
-163.253
-162.805
-162.277
-161.677
-161.01
-160.28
-159.495
-158.671
-157.837
-158.606
-160.685
-161.933
-162.872
-163.522
-163.896
-164.027
-163.956
-163.727
-163.372
-162.919
-162.386
-161.786
-161.124
-160.408
-159.649
-158.864
-158.079
-159.867
-161.065
-162.193
-163.107
-163.732
-164.089
-164.207
-164.125
-163.885
-163.521
-163.061
-162.525
-161.923
-161.267
-160.566
-159.831
-159.081
-158.338
-160.745
-161.451
-162.504
-163.397
-163.995
-164.333
-164.436
-164.34
-164.085
-163.709
-163.24
-162.698
-162.096
-161.445
-160.757
-160.045
-159.324
-158.614
-161.49
-161.835
-162.867
-163.753
-164.329
-164.64
-164.719
-164.603
-164.332
-163.941
-163.461
-162.911
-162.306
-161.66
-160.983
-160.288
-159.592
-158.909
-160.789
-162.143
-163.29
-164.179
-164.737
-165.02
-165.072
-164.929
-164.633
-164.222
-163.725
-163.165
-162.556
-161.911
-161.243
-160.564
-159.888
-159.227
-160.787
-162.463
-163.743
-164.655
-165.198
-165.448
-165.464
-165.289
-164.967
-164.534
-164.019
-163.446
-162.829
-162.182
-161.519
-160.849
-160.185
-159.537
-160.772
-162.865
-164.283
-165.219
-165.741
-165.952
-165.925
-165.711
-165.352
-164.889
-164.351
-163.761
-163.133
-162.482
-161.82
-161.158
-160.504
-159.867
-161.592
-163.535
-165.045
-166.01
-166.497
-166.643
-166.552
-166.279
-165.872
-165.369
-164.799
-164.184
-163.539
-162.878
-162.211
-161.549
-160.9
-160.268
-161.803
-164.426
-166.175
-167.144
-167.56
-167.61
-167.422
-167.062
-166.577
-166.008
-165.387
-164.734
-164.062
-163.383
-162.706
-162.04
-161.389
-160.76
-161.925
-165.99
-167.928
-168.836
-169.096
-168.967
-168.616
-168.122
-167.527
-166.871
-166.179
-165.47
-164.755
-164.042
-163.341
-162.657
-161.994
-161.356
-165.462
-169.362
-171.005
-171.48
-171.358
-170.907
-170.293
-169.581
-168.811
-168.014
-167.212
-166.417
-165.634
-164.871
-164.131
-163.418
-162.733
-162.079
-174.693
-175.979
-175.976
-175.376
-174.497
-173.506
-172.49
-171.476
-170.471
-169.488
-168.541
-167.629
-166.754
-165.915
-165.115
-164.353
-163.629
-162.941
-190.308
-186.341
-183.334
-180.863
-178.784
-176.978
-175.372
-173.914
-172.572
-171.329
-170.177
-169.103
-168.096
-167.153
-166.268
-165.439
-164.659
-163.927
-201.785
-194.509
-189.215
-185.35
-182.348
-179.885
-177.8
-175.988
-174.375
-172.921
-171.599
-170.388
-169.27
-168.235
-167.274
-166.381
-165.548
-164.769
-208.724
-198.552
-192.317
-187.892
-184.504
-181.743
-179.413
-177.395
-175.614
-174.024
-172.59
-171.284
-170.087
-168.985
-167.969
-167.028
-166.154
-165.341
-207.538
-199.328
-193.607
-189.268
-185.819
-182.949
-180.496
-178.363
-176.482
-174.806
-173.298
-171.931
-170.684
-169.54
-168.485
-167.511
-166.609
-165.772
-203.586
-198.524
-193.884
-189.956
-186.628
-183.769
-181.277
-179.088
-177.15
-175.417
-173.855
-172.436
-171.142
-169.959
-168.872
-167.87
-166.945
-166.088
-199.744
-197.503
-193.774
-190.191
-187
-184.182
-181.69
-179.486
-177.528
-175.773
-174.188
-172.75
-171.438
-170.238
-169.134
-168.118
-167.178
-166.309
-202.302
-197.411
-193.807
-190.448
-187.35
-184.557
-182.062
-179.843
-177.862
-176.08
-174.467
-173.003
-171.67
-170.451
-169.332
-168.301
-167.35
-166.47
-200.328
-196.884
-193.623
-190.444
-187.42
-184.666
-182.2
-179.999
-178.022
-176.237
-174.62
-173.149
-171.808
-170.581
-169.455
-168.418
-167.461
-166.575
-198.228
-196.553
-193.657
-190.557
-187.557
-184.823
-182.364
-180.15
-178.159
-176.362
-174.734
-173.256
-171.908
-170.676
-169.544
-168.501
-167.539
-166.648
-198.927
-196.434
-193.579
-190.531
-187.561
-184.85
-182.414
-180.212
-178.222
-176.422
-174.793
-173.313
-171.963
-170.727
-169.593
-168.548
-167.582
-166.689
-199.507
-196.536
-193.644
-190.558
-187.599
-184.9
-182.465
-180.258
-178.262
-176.458
-174.827
-173.347
-171.997
-170.76
-169.624
-168.577
-167.61
-166.715
-198.802
-196.514
-193.639
-190.528
-187.587
-184.902
-182.471
-180.267
-178.272
-176.47
-174.84
-173.359
-172.009
-170.772
-169.635
-168.587
-167.619
-166.723
-148.417
-148.403
-148.37
-148.338
-148.325
-148.337
-148.375
-148.436
-148.515
-148.606
-148.705
-148.806
-148.902
-148.985
-149.046
-149.076
-149.068
-149.015
-148.913
-148.764
-148.571
-148.339
-148.079
-147.799
-147.516
-147.241
-146.987
-146.771
-146.582
-146.414
-146.231
-145.97
-145.684
-145.456
-145.117
-144.808
-144.597
-144.378
-144.099
-143.706
-143.152
-143.047
-143.128
-143.391
-143.786
-144.273
-144.809
-145.355
-145.878
-146.347
-146.739
-147.039
-147.236
-147.323
-147.301
-147.17
-146.935
-146.601
-146.176
-145.668
-145.088
-144.447
-143.754
-143.017
-142.243
-141.44
-140.61
-139.756
-138.881
-137.984
-137.065
-136.126
-135.169
-134.2
-133.222
-132.24
-131.257
-130.274
-129.289
-128.299
-127.302
-126.296
-125.283
-124.262
-123.236
-122.21
-121.187
-120.173
-119.173
-118.193
-117.237
-116.308
-115.409
-114.542
-113.708
-112.907
-112.138
-111.401
-110.695
-110.015
-109.36
-108.726
-108.109
-107.506
-106.913
-106.327
-105.745
-105.166
-104.586
-104.005
-103.421
-102.834
-102.241
-101.644
-101.041
-100.433
-99.8184
-99.1975
-98.5703
-97.9365
-97.296
-96.649
-95.9951
-95.3345
-94.6669
-93.9923
-93.3108
-92.6223
-91.9269
-91.2246
-90.5154
-89.7994
-89.0766
-88.347
-87.6107
-86.8677
-86.1181
-85.3618
-84.5989
-83.8295
-83.0535
-82.271
-81.482
-80.6864
-79.8843
-79.0756
-78.2605
-77.4388
-76.6106
-75.7758
-74.9345
-74.0866
-73.2321
-72.371
-71.5032
-70.6287
-69.7475
-68.8595
-67.9647
-67.063
-66.1543
-65.2387
-64.316
-63.3861
-62.4489
-61.5045
-60.5525
-59.5931
-58.6259
-57.651
-56.6681
-55.6771
-54.678
-53.6703
-52.6543
-51.6295
-50.5966
-49.557
-48.5103
-47.4805
-148.499
-148.483
-148.455
-148.435
-148.435
-148.458
-148.503
-148.567
-148.648
-148.741
-148.843
-148.949
-149.051
-149.142
-149.211
-149.25
-149.25
-149.205
-149.11
-148.963
-148.768
-148.531
-148.263
-147.974
-147.678
-147.388
-147.114
-146.873
-146.664
-146.46
-146.252
-145.99
-145.722
-145.539
-145.28
-144.872
-144.344
-144.215
-144.339
-144.044
-143.727
-143.649
-143.766
-144.052
-144.452
-144.929
-145.44
-145.95
-146.428
-146.849
-147.192
-147.445
-147.597
-147.643
-147.581
-147.412
-147.141
-146.775
-146.322
-145.792
-145.193
-144.534
-143.825
-143.074
-142.29
-141.479
-140.644
-139.79
-138.915
-138.02
-137.104
-136.167
-135.211
-134.242
-133.264
-132.282
-131.3
-130.319
-129.336
-128.348
-127.353
-126.348
-125.334
-124.312
-123.285
-122.255
-121.23
-120.212
-119.209
-118.225
-117.266
-116.334
-115.432
-114.563
-113.726
-112.923
-112.152
-111.413
-110.704
-110.023
-109.367
-108.732
-108.114
-107.51
-106.917
-106.331
-105.749
-105.17
-104.59
-104.009
-103.425
-102.837
-102.244
-101.647
-101.044
-100.435
-99.8206
-99.1996
-98.5722
-97.9384
-97.2979
-96.6508
-95.9968
-95.3359
-94.6682
-93.9935
-93.3119
-92.6233
-91.9278
-91.2254
-90.5161
-89.8
-89.0771
-88.3474
-87.6111
-86.868
-86.1184
-85.3621
-84.5992
-83.8297
-83.0537
-82.2711
-81.4821
-80.6865
-79.8844
-79.0757
-78.2605
-77.4388
-76.6106
-75.7759
-74.9345
-74.0866
-73.2321
-72.371
-71.5032
-70.6287
-69.7475
-68.8595
-67.9647
-67.063
-66.1544
-65.2387
-64.316
-63.3862
-62.449
-61.5046
-60.5527
-59.5933
-58.6262
-57.6514
-56.6686
-55.6778
-54.6788
-53.6714
-52.6556
-51.6315
-50.5989
-49.5607
-48.5138
-47.4811
-148.613
-148.601
-148.594
-148.6
-148.622
-148.663
-148.72
-148.794
-148.884
-148.989
-149.105
-149.226
-149.346
-149.453
-149.537
-149.588
-149.594
-149.549
-149.447
-149.288
-149.076
-148.819
-148.527
-148.215
-147.89
-147.565
-147.245
-146.93
-146.626
-146.339
-146.07
-145.824
-145.698
-145.367
-145.022
-145.018
-144.801
-144.589
-144.574
-144.576
-144.602
-144.706
-144.902
-145.191
-145.552
-145.962
-146.393
-146.819
-147.213
-147.557
-147.831
-148.023
-148.123
-148.122
-148.018
-147.81
-147.502
-147.1
-146.611
-146.042
-145.405
-144.71
-143.969
-143.19
-142.384
-141.556
-140.712
-139.855
-138.983
-138.094
-137.184
-136.253
-135.3
-134.332
-133.354
-132.372
-131.391
-130.413
-129.434
-128.451
-127.459
-126.455
-125.441
-124.417
-123.386
-122.352
-121.32
-120.295
-119.285
-118.294
-117.328
-116.39
-115.483
-114.608
-113.767
-112.958
-112.183
-111.44
-110.728
-110.043
-109.384
-108.747
-108.128
-107.523
-106.929
-106.343
-105.76
-105.18
-104.6
-104.018
-103.433
-102.845
-102.252
-101.654
-101.051
-100.441
-99.8262
-99.2047
-98.5769
-97.9427
-97.3018
-96.6543
-96
-95.3389
-94.6709
-93.9959
-93.314
-92.6252
-91.9294
-91.2267
-90.5172
-89.8009
-89.0778
-88.3479
-87.6114
-86.8683
-86.1185
-85.3621
-84.5992
-83.8297
-83.0536
-82.2711
-81.482
-80.6864
-79.8843
-79.0756
-78.2604
-77.4388
-76.6105
-75.7758
-74.9345
-74.0866
-73.2321
-72.3709
-71.5032
-70.6287
-69.7475
-68.8595
-67.9647
-67.063
-66.1544
-65.2388
-64.3162
-63.3864
-62.4493
-61.505
-60.5532
-59.5939
-58.627
-57.6524
-56.6699
-55.6795
-54.681
-53.6744
-52.6595
-51.6371
-50.6061
-49.571
-48.5276
-47.496
-148.771
-148.772
-148.79
-148.824
-148.871
-148.932
-149.009
-149.104
-149.218
-149.35
-149.498
-149.655
-149.812
-149.955
-150.071
-150.145
-150.163
-150.115
-149.998
-149.808
-149.552
-149.241
-148.893
-148.525
-148.149
-147.767
-147.39
-147.027
-146.662
-146.336
-146.071
-145.724
-145.59
-145.605
-145.432
-145.316
-145.279
-145.278
-145.332
-145.426
-145.578
-145.784
-146.046
-146.358
-146.709
-147.084
-147.462
-147.824
-148.151
-148.426
-148.636
-148.767
-148.81
-148.759
-148.61
-148.36
-148.009
-147.559
-147.018
-146.396
-145.705
-144.959
-144.169
-143.349
-142.508
-141.656
-140.798
-139.936
-139.068
-138.188
-137.29
-136.367
-135.42
-134.454
-133.479
-132.499
-131.521
-130.547
-129.576
-128.6
-127.614
-126.614
-125.6
-124.574
-123.539
-122.498
-121.457
-120.422
-119.401
-118.399
-117.423
-116.475
-115.56
-114.678
-113.83
-113.014
-112.232
-111.483
-110.764
-110.075
-109.411
-108.771
-108.15
-107.544
-106.948
-106.36
-105.777
-105.196
-104.614
-104.031
-103.446
-102.856
-102.262
-101.664
-101.059
-100.449
-99.8336
-99.2115
-98.5832
-97.9485
-97.3072
-96.6592
-96.0046
-95.3431
-94.6748
-93.9996
-93.3174
-92.6282
-91.9322
-91.2293
-90.5195
-89.8029
-89.0796
-88.3496
-87.6129
-86.8696
-86.1196
-85.3631
-84.6001
-83.8305
-83.0544
-82.2717
-81.4826
-80.6869
-79.8847
-79.076
-78.2608
-77.4391
-76.6108
-75.776
-74.9346
-74.0867
-73.2322
-72.371
-71.5032
-70.6287
-69.7475
-68.8596
-67.9648
-67.0631
-66.1546
-65.239
-64.3164
-63.3866
-62.4496
-61.5054
-60.5537
-59.5946
-58.6279
-57.6535
-56.6713
-55.6814
-54.6833
-53.6776
-52.6636
-51.6426
-50.6134
-49.5805
-48.5406
-47.5089
-148.99
-149.007
-149.049
-149.106
-149.176
-149.262
-149.368
-149.499
-149.656
-149.839
-150.046
-150.269
-150.493
-150.699
-150.868
-150.979
-151.015
-150.964
-150.817
-150.574
-150.244
-149.847
-149.411
-148.953
-148.496
-148.054
-147.63
-147.219
-146.835
-146.474
-146.189
-145.998
-145.867
-145.85
-145.871
-145.911
-145.986
-146.097
-146.236
-146.407
-146.624
-146.883
-147.182
-147.508
-147.849
-148.191
-148.52
-148.824
-149.092
-149.31
-149.467
-149.552
-149.554
-149.465
-149.277
-148.985
-148.589
-148.087
-147.49
-146.81
-146.061
-145.256
-144.411
-143.541
-142.658
-141.772
-140.889
-140.013
-139.139
-138.261
-137.37
-136.459
-135.526
-134.573
-133.61
-132.641
-131.673
-130.707
-129.746
-128.784
-127.81
-126.818
-125.807
-124.781
-123.742
-122.694
-121.643
-120.595
-119.559
-118.543
-117.553
-116.594
-115.668
-114.777
-113.919
-113.094
-112.302
-111.543
-110.816
-110.119
-109.45
-108.805
-108.181
-107.572
-106.974
-106.385
-105.8
-105.217
-104.635
-104.05
-103.463
-102.872
-102.277
-101.677
-101.072
-100.461
-99.8437
-99.2208
-98.5918
-97.9564
-97.3145
-96.6661
-96.0109
-95.349
-94.6803
-94.0046
-93.3221
-92.6326
-91.9362
-91.2329
-90.5228
-89.8059
-89.0822
-88.3519
-87.6149
-86.8714
-86.1212
-85.3645
-84.6013
-83.8316
-83.0553
-82.2726
-81.4833
-80.6875
-79.8853
-79.0765
-78.2612
-77.4394
-76.6111
-75.7762
-74.9348
-74.0868
-73.2323
-72.3711
-71.5033
-70.6288
-69.7476
-68.8596
-67.9648
-67.0632
-66.1546
-65.2391
-64.3165
-63.3868
-62.4499
-61.5058
-60.5542
-59.5953
-58.6287
-57.6546
-56.6728
-55.6833
-54.6858
-53.6808
-52.6678
-51.648
-50.6207
-49.5894
-48.5526
-47.52
-149.271
-149.301
-149.359
-149.433
-149.526
-149.642
-149.788
-149.969
-150.189
-150.45
-150.746
-151.064
-151.383
-151.677
-151.919
-152.08
-152.138
-152.076
-151.887
-151.57
-151.14
-150.631
-150.081
-149.525
-148.986
-148.474
-147.999
-147.569
-147.177
-146.864
-146.643
-146.508
-146.459
-146.484
-146.561
-146.673
-146.812
-146.982
-147.179
-147.406
-147.661
-147.94
-148.238
-148.545
-148.853
-149.155
-149.442
-149.706
-149.94
-150.134
-150.275
-150.349
-150.341
-150.236
-150.021
-149.69
-149.243
-148.692
-148.042
-147.302
-146.487
-145.616
-144.707
-143.775
-142.836
-141.9
-140.975
-140.065
-139.167
-138.276
-137.384
-136.483
-135.568
-134.639
-133.702
-132.759
-131.813
-130.866
-129.92
-128.975
-128.018
-127.04
-126.04
-125.018
-123.979
-122.927
-121.867
-120.805
-119.752
-118.719
-117.713
-116.741
-115.805
-114.903
-114.036
-113.2
-112.396
-111.624
-110.885
-110.178
-109.501
-108.85
-108.22
-107.608
-107.008
-106.417
-105.83
-105.245
-104.66
-104.074
-103.485
-102.892
-102.295
-101.694
-101.086
-100.474
-99.8559
-99.2319
-98.6019
-97.9658
-97.3232
-96.6742
-96.0185
-95.3561
-94.6869
-94.0109
-93.3279
-92.638
-91.9412
-91.2375
-90.5269
-89.8096
-89.0856
-88.355
-87.6177
-86.8738
-86.1235
-85.3665
-84.6031
-83.8332
-83.0568
-82.2739
-81.4845
-80.6886
-79.8862
-79.0773
-78.2619
-77.44
-76.6116
-75.7767
-74.9352
-74.0871
-73.2325
-72.3713
-71.5034
-70.6289
-69.7476
-68.8597
-67.9649
-67.0633
-66.1547
-65.2392
-64.3167
-63.3871
-62.4503
-61.5062
-60.5548
-59.596
-58.6296
-57.6558
-56.6743
-55.6852
-54.6883
-53.684
-52.6719
-51.6532
-50.6275
-49.5974
-48.5627
-47.5292
-149.577
-149.615
-149.679
-149.767
-149.881
-150.029
-150.219
-150.459
-150.754
-151.106
-151.506
-151.93
-152.348
-152.724
-153.025
-153.224
-153.298
-153.227
-153
-152.617
-152.103
-151.499
-150.85
-150.198
-149.579
-149.019
-148.524
-148.086
-147.734
-147.471
-147.299
-147.223
-147.224
-147.276
-147.368
-147.496
-147.657
-147.848
-148.066
-148.309
-148.57
-148.845
-149.128
-149.415
-149.704
-149.994
-150.284
-150.569
-150.837
-151.072
-151.255
-151.362
-151.372
-151.267
-151.036
-150.671
-150.17
-149.54
-148.795
-147.955
-147.041
-146.076
-145.08
-144.071
-143.063
-142.068
-141.091
-140.135
-139.2
-138.282
-137.373
-136.467
-135.562
-134.655
-133.749
-132.842
-131.931
-131.011
-130.087
-129.159
-128.219
-127.257
-126.268
-125.255
-124.22
-123.168
-122.101
-121.028
-119.958
-118.906
-117.883
-116.899
-115.955
-115.049
-114.175
-113.33
-112.514
-111.728
-110.974
-110.253
-109.565
-108.906
-108.27
-107.654
-107.05
-106.455
-105.866
-105.279
-104.692
-104.103
-103.512
-102.917
-102.318
-101.714
-101.105
-100.491
-99.8708
-99.2454
-98.6141
-97.9768
-97.3334
-96.6837
-96.0274
-95.3645
-94.6949
-94.0183
-93.3349
-92.6446
-91.9473
-91.2431
-90.5321
-89.8144
-89.0899
-88.3588
-87.6212
-86.877
-86.1263
-85.3691
-84.6054
-83.8353
-83.0587
-82.2756
-81.486
-80.6899
-79.8874
-79.0784
-78.2628
-77.4408
-76.6123
-75.7772
-74.9356
-74.0875
-73.2328
-72.3715
-71.5036
-70.629
-69.7477
-68.8597
-67.9649
-67.0633
-66.1548
-65.2393
-64.3169
-63.3873
-62.4505
-61.5066
-60.5553
-59.5966
-58.6305
-57.6569
-56.6758
-55.6871
-54.6907
-53.687
-52.6759
-51.658
-50.6336
-49.6045
-48.5711
-47.5367
-149.846
-149.886
-149.952
-150.046
-150.174
-150.345
-150.568
-150.853
-151.205
-151.623
-152.089
-152.571
-153.032
-153.44
-153.768
-153.99
-154.082
-154.02
-153.791
-153.395
-152.853
-152.212
-151.524
-150.843
-150.213
-149.649
-149.155
-148.742
-148.415
-148.179
-148.04
-147.983
-147.989
-148.041
-148.133
-148.259
-148.42
-148.611
-148.829
-149.069
-149.328
-149.604
-149.895
-150.202
-150.527
-150.869
-151.222
-151.578
-151.919
-152.223
-152.466
-152.618
-152.653
-152.548
-152.291
-151.876
-151.297
-150.568
-149.711
-148.752
-147.718
-146.638
-145.537
-144.435
-143.347
-142.282
-141.247
-140.242
-139.265
-138.312
-137.379
-136.461
-135.555
-134.661
-133.777
-132.9
-132.023
-131.136
-130.238
-129.331
-128.408
-127.46
-126.483
-125.479
-124.452
-123.403
-122.335
-121.253
-120.169
-119.097
-118.053
-117.052
-116.099
-115.19
-114.317
-113.472
-112.649
-111.851
-111.082
-110.345
-109.644
-108.974
-108.331
-107.708
-107.1
-106.502
-105.909
-105.318
-104.728
-104.137
-103.543
-102.945
-102.344
-101.737
-101.126
-100.51
-99.8882
-99.261
-98.6282
-97.9896
-97.345
-96.6943
-96.0373
-95.3738
-94.7037
-94.0267
-93.3429
-92.6521
-91.9543
-91.2497
-90.5382
-89.8199
-89.095
-88.3634
-87.6254
-86.8808
-86.1297
-85.3722
-84.6082
-83.8378
-83.061
-82.2776
-81.4878
-80.6916
-79.8889
-79.0797
-78.264
-77.4418
-76.6131
-75.7779
-74.9362
-74.0879
-73.2331
-72.3718
-71.5038
-70.6291
-69.7478
-68.8598
-67.965
-67.0634
-66.1549
-65.2394
-64.317
-63.3875
-62.4508
-61.5069
-60.5558
-59.5973
-58.6314
-57.6581
-56.6772
-55.6889
-54.6931
-53.69
-52.6796
-51.6626
-50.6392
-49.6108
-48.578
-47.5429
-150.027
-150.065
-150.126
-150.219
-150.348
-150.524
-150.756
-151.054
-151.423
-151.856
-152.326
-152.797
-153.231
-153.611
-153.91
-154.118
-154.209
-154.158
-153.955
-153.597
-153.106
-152.524
-151.901
-151.283
-150.709
-150.192
-149.742
-149.362
-149.059
-148.845
-148.717
-148.658
-148.654
-148.695
-148.777
-148.895
-149.05
-149.237
-149.456
-149.702
-149.976
-150.277
-150.608
-150.971
-151.367
-151.791
-152.237
-152.69
-153.131
-153.532
-153.86
-154.081
-154.156
-154.057
-153.765
-153.274
-152.601
-151.758
-150.768
-149.666
-148.49
-147.274
-146.051
-144.845
-143.67
-142.534
-141.44
-140.385
-139.366
-138.377
-137.416
-136.479
-135.565
-134.673
-133.801
-132.943
-132.09
-131.233
-130.365
-129.485
-128.584
-127.656
-126.696
-125.706
-124.69
-123.651
-122.589
-121.507
-120.411
-119.319
-118.248
-117.221
-116.247
-115.325
-114.448
-113.604
-112.783
-111.982
-111.203
-110.452
-109.736
-109.055
-108.403
-107.773
-107.159
-106.556
-105.958
-105.364
-104.77
-104.175
-103.578
-102.978
-102.373
-101.764
-101.151
-100.532
-99.9082
-99.279
-98.6443
-98.0041
-97.3581
-96.7062
-96.0483
-95.384
-94.7133
-94.0359
-93.3516
-92.6604
-91.9622
-91.2571
-90.5451
-89.8263
-89.1008
-88.3688
-87.6302
-86.8852
-86.1337
-85.3758
-84.6115
-83.8408
-83.0637
-82.2801
-81.49
-80.6936
-79.8906
-79.0812
-78.2653
-77.4429
-76.6141
-75.7787
-74.9369
-74.0885
-73.2336
-72.3721
-71.504
-70.6293
-69.7479
-68.8598
-67.965
-67.0634
-66.1549
-65.2395
-64.3171
-63.3876
-62.4511
-61.5073
-60.5563
-59.598
-58.6323
-57.6592
-56.6786
-55.6907
-54.6954
-53.6928
-52.6831
-51.6667
-50.6441
-49.6162
-48.5838
-47.5479
-150.102
-150.134
-150.185
-150.268
-150.387
-150.55
-150.767
-151.047
-151.392
-151.791
-152.211
-152.616
-152.976
-153.274
-153.501
-153.648
-153.7
-153.645
-153.475
-153.191
-152.811
-152.367
-151.891
-151.412
-150.951
-150.521
-150.132
-149.797
-149.534
-149.348
-149.232
-149.173
-149.162
-149.194
-149.267
-149.382
-149.536
-149.729
-149.959
-150.227
-150.533
-150.88
-151.272
-151.711
-152.197
-152.729
-153.299
-153.893
-154.485
-155.04
-155.512
-155.85
-156
-155.923
-155.601
-155.031
-154.231
-153.225
-152.049
-150.752
-149.384
-147.992
-146.617
-145.286
-144.013
-142.803
-141.653
-140.554
-139.499
-138.48
-137.491
-136.533
-135.603
-134.701
-133.827
-132.974
-132.136
-131.302
-130.464
-129.614
-128.743
-127.84
-126.901
-125.927
-124.924
-123.897
-122.846
-121.772
-120.677
-119.576
-118.483
-117.425
-116.416
-115.467
-114.574
-113.723
-112.903
-112.104
-111.323
-110.567
-109.84
-109.147
-108.486
-107.848
-107.227
-106.617
-106.014
-105.415
-104.817
-104.218
-103.617
-103.013
-102.406
-101.794
-101.178
-100.557
-99.9305
-99.2991
-98.6624
-98.0204
-97.3728
-96.7195
-96.0604
-95.3951
-94.7236
-94.0456
-93.3609
-92.6693
-91.9707
-91.2651
-90.5527
-89.8334
-89.1074
-88.3748
-87.6357
-86.8902
-86.1383
-85.38
-84.6153
-83.8442
-83.0668
-82.2829
-81.4926
-80.6958
-79.8926
-79.083
-78.2669
-77.4443
-76.6152
-75.7797
-74.9377
-74.0891
-73.2341
-72.3724
-71.5043
-70.6295
-69.748
-68.8599
-67.965
-67.0634
-66.1549
-65.2395
-64.3172
-63.3878
-62.4513
-61.5076
-60.5567
-59.5986
-58.6331
-57.6602
-56.68
-55.6924
-54.6975
-53.6954
-52.6863
-51.6705
-50.6485
-49.621
-48.5885
-47.5519
-150.075
-150.098
-150.137
-150.203
-150.3
-150.436
-150.619
-150.858
-151.154
-151.494
-151.848
-152.182
-152.469
-152.695
-152.852
-152.94
-152.957
-152.9
-152.765
-152.556
-152.285
-151.969
-151.626
-151.271
-150.916
-150.572
-150.256
-149.989
-149.785
-149.642
-149.55
-149.502
-149.493
-149.526
-149.601
-149.72
-149.883
-150.091
-150.344
-150.644
-150.995
-151.402
-151.87
-152.405
-153.011
-153.688
-154.432
-155.223
-156.027
-156.792
-157.452
-157.938
-158.183
-158.14
-157.786
-157.123
-156.17
-154.963
-153.558
-152.02
-150.415
-148.806
-147.244
-145.763
-144.376
-143.084
-141.878
-140.743
-139.66
-138.617
-137.605
-136.622
-135.67
-134.751
-133.864
-133.007
-132.173
-131.354
-130.539
-129.715
-128.87
-127.989
-127.067
-126.105
-125.108
-124.082
-123.032
-121.961
-120.873
-119.779
-118.694
-117.633
-116.609
-115.634
-114.712
-113.842
-113.013
-112.214
-111.437
-110.681
-109.95
-109.249
-108.579
-107.933
-107.304
-106.687
-106.077
-105.472
-104.869
-104.265
-103.66
-103.053
-102.442
-101.827
-101.208
-100.584
-99.9551
-99.3213
-98.6824
-98.0383
-97.389
-96.7341
-96.0736
-95.4072
-94.7348
-94.056
-93.3706
-92.6785
-91.9796
-91.2736
-90.5607
-89.841
-89.1145
-88.3814
-87.6417
-86.8957
-86.1434
-85.3846
-84.6196
-83.8481
-83.0703
-82.2861
-81.4955
-80.6984
-79.8949
-79.085
-78.2687
-77.4458
-76.6165
-75.7808
-74.9386
-74.0898
-73.2346
-72.3729
-71.5045
-70.6296
-69.7481
-68.8599
-67.9651
-67.0634
-66.1549
-65.2395
-64.3172
-63.3879
-62.4515
-61.5079
-60.5571
-59.5991
-58.6338
-57.6612
-56.6812
-55.694
-54.6995
-53.6978
-52.6892
-51.6739
-50.6523
-49.625
-48.5925
-47.5551
-149.982
-149.997
-150.021
-150.064
-150.132
-150.229
-150.365
-150.546
-150.776
-151.045
-151.33
-151.601
-151.836
-152.018
-152.141
-152.204
-152.208
-152.155
-152.047
-151.887
-151.684
-151.446
-151.184
-150.906
-150.627
-150.364
-150.137
-149.96
-149.832
-149.743
-149.687
-149.659
-149.663
-149.705
-149.789
-149.92
-150.1
-150.33
-150.612
-150.951
-151.354
-151.83
-152.387
-153.036
-153.785
-154.639
-155.591
-156.614
-157.658
-158.651
-159.508
-160.143
-160.481
-160.468
-160.081
-159.32
-158.215
-156.81
-155.172
-153.383
-151.528
-149.685
-147.916
-146.266
-144.75
-143.369
-142.106
-140.939
-139.839
-138.784
-137.757
-136.755
-135.778
-134.833
-133.924
-133.052
-132.214
-131.4
-130.596
-129.787
-128.957
-128.091
-127.183
-126.231
-125.238
-124.207
-123.147
-122.066
-120.975
-119.889
-118.823
-117.785
-116.779
-115.809
-114.878
-113.987
-113.137
-112.326
-111.547
-110.792
-110.062
-109.358
-108.68
-108.026
-107.389
-106.764
-106.147
-105.535
-104.925
-104.316
-103.707
-103.096
-102.481
-101.863
-101.24
-100.613
-99.9817
-99.3454
-98.7042
-98.0579
-97.4066
-96.75
-96.088
-95.4203
-94.7468
-94.067
-93.3809
-92.6882
-91.9887
-91.2824
-90.5691
-89.8489
-89.122
-88.3884
-87.6483
-86.9018
-86.1489
-85.3897
-84.6242
-83.8524
-83.0742
-82.2896
-81.4987
-80.7013
-79.8975
-79.0873
-78.2706
-77.4475
-76.618
-75.782
-74.9396
-74.0906
-73.2352
-72.3733
-71.5048
-70.6298
-69.7482
-68.86
-67.965
-67.0633
-66.1549
-65.2395
-64.3172
-63.3879
-62.4516
-61.5081
-60.5575
-59.5996
-58.6345
-57.6621
-56.6824
-55.6955
-54.7013
-53.7
-52.6918
-51.6769
-50.6557
-49.6285
-48.5957
-47.5576
-149.878
-149.885
-149.895
-149.912
-149.945
-149.998
-150.076
-150.189
-150.341
-150.528
-150.734
-150.94
-151.123
-151.269
-151.369
-151.42
-151.42
-151.372
-151.28
-151.147
-150.979
-150.783
-150.569
-150.352
-150.151
-149.984
-149.861
-149.782
-149.734
-149.704
-149.687
-149.686
-149.706
-149.76
-149.855
-149.999
-150.197
-150.449
-150.761
-151.139
-151.595
-152.139
-152.787
-153.552
-154.447
-155.479
-156.635
-157.879
-159.145
-160.346
-161.382
-162.157
-162.583
-162.603
-162.185
-161.36
-160.129
-158.548
-156.701
-154.683
-152.598
-150.535
-148.57
-146.755
-145.114
-143.646
-142.33
-141.132
-140.019
-138.962
-137.933
-136.919
-135.919
-134.944
-134.005
-133.111
-132.261
-131.445
-130.647
-129.847
-129.027
-128.176
-127.284
-126.349
-125.367
-124.34
-123.272
-122.175
-121.066
-119.973
-118.918
-117.905
-116.927
-115.977
-115.052
-114.151
-113.283
-112.454
-111.663
-110.906
-110.176
-109.471
-108.789
-108.127
-107.481
-106.847
-106.222
-105.602
-104.986
-104.372
-103.757
-103.141
-102.523
-101.901
-101.275
-100.645
-100.01
-99.3714
-98.7276
-98.0791
-97.4256
-96.7672
-96.1035
-95.4344
-94.7596
-94.0788
-93.3918
-92.6983
-91.9982
-91.2913
-90.5776
-89.857
-89.1297
-88.3957
-87.6551
-86.9082
-86.1549
-85.3952
-84.6293
-83.8571
-83.0785
-82.2935
-81.5022
-80.7044
-79.9003
-79.0898
-78.2728
-77.4494
-76.6196
-75.7834
-74.9407
-74.0915
-73.2359
-72.3738
-71.5052
-70.63
-69.7483
-68.86
-67.965
-67.0633
-66.1548
-65.2394
-64.3172
-63.388
-62.4517
-61.5083
-60.5578
-59.6001
-58.6351
-57.6629
-56.6835
-55.6968
-54.7029
-53.702
-52.6941
-51.6796
-50.6585
-49.6314
-48.5983
-47.5596
-149.818
-149.819
-149.814
-149.806
-149.803
-149.81
-149.831
-149.872
-149.94
-150.036
-150.153
-150.278
-150.394
-150.487
-150.549
-150.57
-150.552
-150.496
-150.405
-150.283
-150.138
-149.979
-149.822
-149.683
-149.578
-149.519
-149.503
-149.519
-149.548
-149.577
-149.6
-149.624
-149.66
-149.723
-149.826
-149.979
-150.189
-150.46
-150.796
-151.207
-151.705
-152.308
-153.031
-153.893
-154.908
-156.081
-157.396
-158.81
-160.247
-161.604
-162.775
-163.658
-164.161
-164.221
-163.817
-162.93
-161.601
-159.887
-157.879
-155.69
-153.435
-151.214
-149.102
-147.162
-145.423
-143.889
-142.541
-141.322
-140.201
-139.143
-138.117
-137.1
-136.083
-135.073
-134.094
-133.165
-132.297
-131.482
-130.699
-129.919
-129.119
-128.287
-127.415
-126.498
-125.531
-124.512
-123.445
-122.339
-121.215
-120.104
-119.036
-118.021
-117.053
-116.12
-115.211
-114.315
-113.437
-112.593
-111.79
-111.026
-110.294
-109.587
-108.9
-108.231
-107.577
-106.935
-106.302
-105.675
-105.051
-104.43
-103.81
-103.19
-102.567
-101.942
-101.312
-100.679
-100.041
-99.3992
-98.7528
-98.1018
-97.446
-96.7855
-96.12
-95.4494
-94.7733
-94.0914
-93.4033
-92.709
-92.0081
-91.3005
-90.5862
-89.8652
-89.1375
-88.4031
-87.6622
-86.9149
-86.1611
-85.4011
-84.6348
-83.8621
-83.0831
-82.2977
-81.506
-80.7079
-79.9034
-79.0925
-78.2752
-77.4515
-76.6214
-75.7848
-74.9418
-74.0924
-73.2366
-72.3743
-71.5055
-70.6302
-69.7484
-68.86
-67.9649
-67.0632
-66.1546
-65.2393
-64.3171
-63.3879
-62.4517
-61.5084
-60.558
-59.6005
-58.6357
-57.6637
-56.6844
-55.698
-54.7044
-53.7038
-52.6962
-51.6819
-50.661
-49.6338
-48.6005
-47.5611
-149.843
-149.839
-149.821
-149.791
-149.756
-149.721
-149.69
-149.666
-149.656
-149.663
-149.687
-149.72
-149.752
-149.772
-149.77
-149.746
-149.695
-149.619
-149.52
-149.405
-149.283
-149.167
-149.073
-149.016
-149.005
-149.042
-149.119
-149.217
-149.316
-149.399
-149.462
-149.512
-149.562
-149.63
-149.734
-149.887
-150.1
-150.379
-150.728
-151.158
-151.683
-152.322
-153.093
-154.015
-155.101
-156.353
-157.753
-159.242
-160.775
-162.206
-163.44
-164.372
-164.913
-164.994
-164.589
-163.676
-162.302
-160.528
-158.453
-156.192
-153.87
-151.591
-149.425
-147.429
-145.645
-144.085
-142.719
-141.497
-140.38
-139.33
-138.314
-137.302
-136.275
-135.234
-134.206
-133.225
-132.32
-131.495
-130.726
-129.972
-129.199
-128.389
-127.538
-126.641
-125.692
-124.683
-123.616
-122.504
-121.371
-120.247
-119.164
-118.139
-117.166
-116.234
-115.334
-114.449
-113.577
-112.729
-111.919
-111.149
-110.412
-109.702
-109.011
-108.336
-107.675
-107.025
-106.384
-105.75
-105.119
-104.492
-103.867
-103.241
-102.614
-101.985
-101.351
-100.714
-100.074
-99.4287
-98.7796
-98.126
-97.4678
-96.8051
-96.1377
-95.4653
-94.7877
-94.1046
-93.4155
-92.7201
-92.0183
-91.31
-90.595
-89.8735
-89.1453
-88.4106
-87.6693
-86.9217
-86.1676
-85.4072
-84.6405
-83.8674
-83.088
-82.3022
-81.5101
-80.7116
-79.9067
-79.0954
-78.2778
-77.4537
-76.6233
-75.7864
-74.9431
-74.0934
-73.2373
-72.3748
-71.5058
-70.6304
-69.7484
-68.8599
-67.9648
-67.063
-66.1545
-65.2391
-64.3169
-63.3878
-62.4517
-61.5085
-60.5582
-59.6008
-58.6361
-57.6643
-56.6853
-55.6991
-54.7057
-53.7053
-52.698
-51.6838
-50.6631
-49.6358
-48.6022
-47.5623
-149.987
-149.976
-149.944
-149.892
-149.829
-149.759
-149.685
-149.61
-149.537
-149.469
-149.408
-149.355
-149.302
-149.243
-149.174
-149.094
-148.999
-148.893
-148.778
-148.664
-148.56
-148.479
-148.434
-148.437
-148.492
-148.597
-148.739
-148.9
-149.055
-149.188
-149.291
-149.371
-149.438
-149.511
-149.612
-149.759
-149.96
-150.233
-150.58
-151.01
-151.54
-152.186
-152.969
-153.903
-154.999
-156.257
-157.654
-159.139
-160.639
-162.05
-163.264
-164.179
-164.707
-164.788
-164.392
-163.503
-162.149
-160.403
-158.364
-156.144
-153.864
-151.63