/*--------------------------------*- C++ -*----------------------------------*\
  =========                 |
  \\      /  F ield         | OpenFOAM: The Open Source CFD Toolbox
   \\    /   O peration     | Website:  https://openfoam.org
    \\  /    A nd           | Version:  7
     \\/     M anipulation  |
\*---------------------------------------------------------------------------*/
FoamFile
{
    version     2.0;
    format      ascii;
    class       volScalarField;
    location    "0.051";
    object      pPrime2Mean;
}
// * * * * * * * * * * * * * * * * * * * * * * * * * * * * * * * * * * * * * //

dimensions      [0 4 -4 0 0 0 0];

internalField   nonuniform List<scalar> 
12225
(
7.00801e+06
6.89636e+06
6.78108e+06
6.66989e+06
6.56308e+06
6.46034e+06
6.36137e+06
6.26588e+06
6.17356e+06
6.08407e+06
5.99706e+06
5.9121e+06
5.82871e+06
5.74626e+06
5.66387e+06
5.58022e+06
5.49293e+06
5.39612e+06
7.00811e+06
6.89642e+06
6.78113e+06
6.66994e+06
6.56314e+06
6.46041e+06
6.36146e+06
6.26598e+06
6.17368e+06
6.08423e+06
5.99725e+06
5.91236e+06
5.82905e+06
5.74673e+06
5.66458e+06
5.58135e+06
5.49508e+06
5.40097e+06
7.00827e+06
6.89653e+06
6.78124e+06
6.67006e+06
6.56328e+06
6.46057e+06
6.36164e+06
6.26621e+06
6.17396e+06
6.08457e+06
5.99769e+06
5.91292e+06
5.82981e+06
5.74778e+06
5.66611e+06
5.58378e+06
5.49936e+06
5.41105e+06
7.00845e+06
6.8967e+06
6.78143e+06
6.67027e+06
6.56351e+06
6.46083e+06
6.36195e+06
6.26658e+06
6.17441e+06
6.08514e+06
5.99841e+06
5.91385e+06
5.83104e+06
5.74947e+06
5.66855e+06
5.58754e+06
5.50571e+06
5.4231e+06
7.00867e+06
6.89696e+06
6.7817e+06
6.67056e+06
6.56384e+06
6.46122e+06
6.36241e+06
6.26713e+06
6.17508e+06
6.08597e+06
5.99945e+06
5.9152e+06
5.83281e+06
5.75188e+06
5.67196e+06
5.59261e+06
5.51368e+06
5.43614e+06
7.009e+06
6.89731e+06
6.78208e+06
6.67098e+06
6.56431e+06
6.46176e+06
6.36304e+06
6.26788e+06
6.176e+06
6.0871e+06
6.00088e+06
5.91702e+06
5.83519e+06
5.75507e+06
5.67636e+06
5.5989e+06
5.52291e+06
5.44966e+06
7.00942e+06
6.89778e+06
6.78258e+06
6.67152e+06
6.56492e+06
6.46246e+06
6.36387e+06
6.26887e+06
6.17721e+06
6.08859e+06
6.00274e+06
5.91937e+06
5.83823e+06
5.75908e+06
5.68175e+06
5.60628e+06
5.53311e+06
5.46342e+06
7.00997e+06
6.89838e+06
6.78322e+06
6.67222e+06
6.5657e+06
6.46336e+06
6.36493e+06
6.27014e+06
6.17874e+06
6.09046e+06
6.00506e+06
5.9223e+06
5.84197e+06
5.7639e+06
5.68806e+06
5.6146e+06
5.54403e+06
5.4773e+06
7.01073e+06
6.89916e+06
6.78404e+06
6.6731e+06
6.56669e+06
6.46449e+06
6.36625e+06
6.27171e+06
6.18063e+06
6.09277e+06
6.00791e+06
5.92584e+06
5.84641e+06
5.76953e+06
5.69524e+06
5.62374e+06
5.5555e+06
5.49126e+06
7.01164e+06
6.90013e+06
6.78504e+06
6.67419e+06
6.5679e+06
6.46588e+06
6.36786e+06
6.27363e+06
6.18293e+06
6.09555e+06
6.0113e+06
5.93001e+06
5.85157e+06
5.77594e+06
5.7032e+06
5.63356e+06
5.56741e+06
5.50526e+06
7.01297e+06
6.90133e+06
6.78627e+06
6.6755e+06
6.56936e+06
6.46754e+06
6.3698e+06
6.27591e+06
6.18565e+06
6.09883e+06
6.01526e+06
5.93482e+06
5.85743e+06
5.78308e+06
5.71186e+06
5.64395e+06
5.57964e+06
5.51928e+06
7.01418e+06
6.90264e+06
6.78762e+06
6.67695e+06
6.57096e+06
6.46936e+06
6.37191e+06
6.27838e+06
6.18857e+06
6.10231e+06
6.01943e+06
5.93982e+06
5.86342e+06
5.79024e+06
5.72035e+06
5.6539e+06
5.59109e+06
5.53213e+06
7.01586e+06
6.90417e+06
6.78917e+06
6.67859e+06
6.57278e+06
6.47142e+06
6.37428e+06
6.28115e+06
6.19184e+06
6.10617e+06
6.024e+06
5.94525e+06
5.86985e+06
5.79781e+06
5.72918e+06
5.66407e+06
5.60259e+06
5.54486e+06
7.01807e+06
6.90621e+06
6.79122e+06
6.68077e+06
6.57517e+06
6.47412e+06
6.37738e+06
6.28475e+06
6.19604e+06
6.11109e+06
6.02979e+06
5.95202e+06
5.87775e+06
5.80696e+06
5.73968e+06
5.67595e+06
5.61582e+06
5.55932e+06
7.02094e+06
6.9089e+06
6.79392e+06
6.68363e+06
6.57831e+06
6.47765e+06
6.38141e+06
6.28938e+06
6.20141e+06
6.11732e+06
6.037e+06
5.96036e+06
5.88733e+06
5.81788e+06
5.75199e+06
5.68965e+06
5.63085e+06
5.57554e+06
7.02447e+06
6.91235e+06
6.79742e+06
6.68734e+06
6.58237e+06
6.48219e+06
6.38655e+06
6.29527e+06
6.20815e+06
6.12505e+06
6.04584e+06
5.97042e+06
5.89871e+06
5.83064e+06
5.76614e+06
5.70517e+06
5.64764e+06
5.59347e+06
7.02892e+06
6.91669e+06
6.80187e+06
6.69207e+06
6.58754e+06
6.48793e+06
6.39301e+06
6.30256e+06
6.21642e+06
6.13441e+06
6.0564e+06
5.98226e+06
5.91189e+06
5.84518e+06
5.78204e+06
5.72236e+06
5.66602e+06
5.61292e+06
7.03408e+06
6.92194e+06
6.80734e+06
6.69791e+06
6.59389e+06
6.49495e+06
6.40083e+06
6.31132e+06
6.22622e+06
6.14536e+06
6.06857e+06
5.99572e+06
5.92665e+06
5.86125e+06
5.79936e+06
5.74086e+06
5.68561e+06
5.63346e+06
7.0402e+06
6.92811e+06
6.81375e+06
6.70475e+06
6.60131e+06
6.5031e+06
6.40984e+06
6.3213e+06
6.23727e+06
6.15754e+06
6.08195e+06
6.0103e+06
5.94245e+06
5.87822e+06
5.81745e+06
5.76e+06
5.70569e+06
5.65438e+06
7.04539e+06
6.9333e+06
6.81915e+06
6.71051e+06
6.60756e+06
6.50993e+06
6.41734e+06
6.32953e+06
6.24627e+06
6.16736e+06
6.0926e+06
6.02179e+06
5.95475e+06
5.8913e+06
5.83127e+06
5.7745e+06
5.72081e+06
5.67004e+06
7.04846e+06
6.93669e+06
6.82279e+06
6.71444e+06
6.61184e+06
6.51461e+06
6.42245e+06
6.33511e+06
6.25236e+06
6.17396e+06
6.09971e+06
6.02941e+06
5.96287e+06
5.89989e+06
5.84031e+06
5.78394e+06
5.73061e+06
5.68016e+06
7.05094e+06
6.93915e+06
6.82542e+06
6.71731e+06
6.61498e+06
6.51805e+06
6.42621e+06
6.33921e+06
6.2568e+06
6.17876e+06
6.10487e+06
6.03492e+06
5.96871e+06
5.90605e+06
5.84676e+06
5.79066e+06
5.73758e+06
5.68735e+06
7.05208e+06
6.94074e+06
6.82726e+06
6.71936e+06
6.61724e+06
6.52053e+06
6.42892e+06
6.34216e+06
6.26e+06
6.18221e+06
6.10856e+06
6.03885e+06
5.97287e+06
5.91043e+06
5.85134e+06
5.79542e+06
5.7425e+06
5.69242e+06
7.05304e+06
6.94182e+06
6.82852e+06
6.72079e+06
6.61884e+06
6.52228e+06
6.43084e+06
6.34425e+06
6.26226e+06
6.18464e+06
6.11116e+06
6.04161e+06
5.97579e+06
5.91349e+06
5.85454e+06
5.79875e+06
5.74594e+06
5.69595e+06
7.05361e+06
6.94251e+06
6.82936e+06
6.72177e+06
6.61993e+06
6.5235e+06
6.43217e+06
6.34569e+06
6.26382e+06
6.18631e+06
6.11295e+06
6.04351e+06
5.9778e+06
5.9156e+06
5.85674e+06
5.80103e+06
5.7483e+06
5.69838e+06
7.0536e+06
6.94289e+06
6.82991e+06
6.72242e+06
6.62067e+06
6.52431e+06
6.43306e+06
6.34667e+06
6.26487e+06
6.18744e+06
6.11416e+06
6.04479e+06
5.97915e+06
5.91702e+06
5.85822e+06
5.80256e+06
5.74988e+06
5.7e+06
7.0536e+06
6.94312e+06
6.83025e+06
6.72283e+06
6.62114e+06
6.52484e+06
6.43364e+06
6.34729e+06
6.26555e+06
6.18817e+06
6.11493e+06
6.04562e+06
5.98001e+06
5.91793e+06
5.85917e+06
5.80355e+06
5.75089e+06
5.70104e+06
7.05367e+06
6.94326e+06
6.83046e+06
6.72308e+06
6.62143e+06
6.52516e+06
6.43399e+06
6.34768e+06
6.26596e+06
6.18861e+06
6.1154e+06
6.04612e+06
5.98054e+06
5.91848e+06
5.85974e+06
5.80414e+06
5.75151e+06
5.70167e+06
7.05371e+06
6.94334e+06
6.83057e+06
6.72322e+06
6.62158e+06
6.52533e+06
6.43418e+06
6.34788e+06
6.26618e+06
6.18885e+06
6.11566e+06
6.04639e+06
5.98083e+06
5.91878e+06
5.86005e+06
5.80447e+06
5.75184e+06
5.70201e+06
7.05374e+06
6.94337e+06
6.83061e+06
6.72327e+06
6.62164e+06
6.5254e+06
6.43426e+06
6.34796e+06
6.26627e+06
6.18895e+06
6.11576e+06
6.04649e+06
5.98094e+06
5.9189e+06
5.86018e+06
5.8046e+06
5.75198e+06
5.70215e+06
4.55955e+06
4.55919e+06
4.55846e+06
4.55735e+06
4.55585e+06
4.55397e+06
4.55168e+06
4.549e+06
4.5459e+06
4.54239e+06
4.53846e+06
4.53411e+06
4.52933e+06
4.52412e+06
4.51849e+06
4.51242e+06
4.50592e+06
4.49899e+06
4.49162e+06
4.48382e+06
4.47558e+06
4.46692e+06
4.45783e+06
4.44831e+06
4.43836e+06
4.428e+06
4.41722e+06
4.40603e+06
4.39443e+06
4.38242e+06
4.37001e+06
4.35721e+06
4.34402e+06
4.33045e+06
4.3165e+06
4.30217e+06
4.28748e+06
4.27242e+06
4.25701e+06
4.24124e+06
4.22514e+06
4.20869e+06
4.19192e+06
4.17481e+06
4.15739e+06
4.13965e+06
4.12161e+06
4.10326e+06
4.08461e+06
4.06567e+06
4.04645e+06
4.02695e+06
4.00717e+06
3.98712e+06
3.96681e+06
3.94623e+06
3.92541e+06
3.90434e+06
3.88302e+06
3.86147e+06
3.83968e+06
3.81767e+06
3.79543e+06
3.77298e+06
3.75031e+06
3.72743e+06
3.70434e+06
3.68106e+06
3.65757e+06
3.6339e+06
3.61003e+06
3.58598e+06
3.56175e+06
3.53734e+06
3.51276e+06
3.488e+06
3.46308e+06
3.438e+06
3.41276e+06
3.38736e+06
3.36181e+06
3.3361e+06
3.31025e+06
3.28426e+06
3.25812e+06
3.23185e+06
3.20545e+06
3.17891e+06
3.15224e+06
3.12544e+06
3.09853e+06
3.07149e+06
3.04433e+06
3.01706e+06
2.98967e+06
2.96218e+06
2.93458e+06
2.90687e+06
2.87906e+06
2.85115e+06
2.82314e+06
2.79504e+06
2.76685e+06
2.73857e+06
2.7102e+06
2.68175e+06
2.65322e+06
2.6246e+06
2.59592e+06
2.56715e+06
2.53832e+06
2.50942e+06
2.48045e+06
2.45142e+06
2.42233e+06
2.39319e+06
2.36398e+06
2.33473e+06
2.30543e+06
2.27608e+06
2.24669e+06
2.21726e+06
2.1878e+06
2.1583e+06
2.12877e+06
2.09921e+06
2.06963e+06
2.04003e+06
2.01041e+06
1.98078e+06
1.95114e+06
1.92149e+06
1.89184e+06
1.86219e+06
1.83254e+06
1.80291e+06
1.77328e+06
1.74368e+06
1.71409e+06
1.68453e+06
1.655e+06
1.6255e+06
1.59604e+06
1.56663e+06
1.53726e+06
1.50794e+06
1.47869e+06
1.44949e+06
1.42036e+06
1.3913e+06
1.36232e+06
1.33343e+06
1.30462e+06
1.2759e+06
1.24729e+06
1.21878e+06
1.19039e+06
1.16211e+06
1.13396e+06
1.10594e+06
1.07805e+06
1.05031e+06
1.02273e+06
995301
968041
940955
914054
887344
860837
834541
808469
782631
757043
731721
706683
681956
657571
633580
610066
587214
4.5612e+06
4.56083e+06
4.5601e+06
4.55898e+06
4.55747e+06
4.55558e+06
4.55328e+06
4.55058e+06
4.54746e+06
4.54393e+06
4.53998e+06
4.53561e+06
4.5308e+06
4.52557e+06
4.51991e+06
4.51381e+06
4.50728e+06
4.50031e+06
4.49291e+06
4.48508e+06
4.47681e+06
4.46811e+06
4.45899e+06
4.44943e+06
4.43945e+06
4.42905e+06
4.41824e+06
4.40701e+06
4.39537e+06
4.38333e+06
4.37089e+06
4.35806e+06
4.34484e+06
4.33123e+06
4.31725e+06
4.30289e+06
4.28816e+06
4.27308e+06
4.25764e+06
4.24185e+06
4.22572e+06
4.20925e+06
4.19244e+06
4.17532e+06
4.15787e+06
4.14011e+06
4.12204e+06
4.10367e+06
4.085e+06
4.06605e+06
4.0468e+06
4.02728e+06
4.00748e+06
3.98742e+06
3.96709e+06
3.9465e+06
3.92567e+06
3.90458e+06
3.88325e+06
3.86169e+06
3.83989e+06
3.81786e+06
3.79561e+06
3.77315e+06
3.75047e+06
3.72758e+06
3.70449e+06
3.68119e+06
3.6577e+06
3.63402e+06
3.61014e+06
3.58609e+06
3.56185e+06
3.53743e+06
3.51285e+06
3.48809e+06
3.46316e+06
3.43807e+06
3.41283e+06
3.38742e+06
3.36187e+06
3.33616e+06
3.3103e+06
3.28431e+06
3.25817e+06
3.23189e+06
3.20548e+06
3.17894e+06
3.15227e+06
3.12548e+06
3.09855e+06
3.07151e+06
3.04436e+06
3.01708e+06
2.98969e+06
2.9622e+06
2.93459e+06
2.90689e+06
2.87908e+06
2.85117e+06
2.82316e+06
2.79506e+06
2.76686e+06
2.73858e+06
2.71021e+06
2.68176e+06
2.65323e+06
2.62461e+06
2.59592e+06
2.56716e+06
2.53833e+06
2.50942e+06
2.48046e+06
2.45143e+06
2.42234e+06
2.39319e+06
2.36399e+06
2.33473e+06
2.30543e+06
2.27609e+06
2.2467e+06
2.21727e+06
2.1878e+06
2.1583e+06
2.12877e+06
2.09921e+06
2.06963e+06
2.04003e+06
2.01041e+06
1.98078e+06
1.95114e+06
1.92149e+06
1.89184e+06
1.86219e+06
1.83254e+06
1.80291e+06
1.77328e+06
1.74368e+06
1.71409e+06
1.68453e+06
1.655e+06
1.6255e+06
1.59604e+06
1.56663e+06
1.53726e+06
1.50794e+06
1.47869e+06
1.44949e+06
1.42036e+06
1.3913e+06
1.36232e+06
1.33343e+06
1.30462e+06
1.2759e+06
1.24729e+06
1.21878e+06
1.19039e+06
1.16211e+06
1.13396e+06
1.10594e+06
1.07805e+06
1.05031e+06
1.02273e+06
995300
968040
940954
914052
887342
860834
834538
808464
782626
757036
731711
706669
681936
657543
633536
609987
587028
4.56451e+06
4.56413e+06
4.56339e+06
4.56225e+06
4.56073e+06
4.55881e+06
4.55648e+06
4.55375e+06
4.5506e+06
4.54703e+06
4.54303e+06
4.53861e+06
4.53376e+06
4.52847e+06
4.52275e+06
4.5166e+06
4.51e+06
4.50297e+06
4.49551e+06
4.48761e+06
4.47927e+06
4.4705e+06
4.4613e+06
4.45168e+06
4.44163e+06
4.43116e+06
4.42027e+06
4.40898e+06
4.39727e+06
4.38516e+06
4.37265e+06
4.35975e+06
4.34646e+06
4.33279e+06
4.31875e+06
4.30433e+06
4.28954e+06
4.2744e+06
4.2589e+06
4.24305e+06
4.22687e+06
4.21035e+06
4.19349e+06
4.17632e+06
4.15882e+06
4.14102e+06
4.12291e+06
4.10449e+06
4.08579e+06
4.06679e+06
4.04751e+06
4.02795e+06
4.00812e+06
3.98802e+06
3.96766e+06
3.94705e+06
3.92618e+06
3.90506e+06
3.88371e+06
3.86212e+06
3.8403e+06
3.81825e+06
3.79598e+06
3.77349e+06
3.75079e+06
3.72788e+06
3.70477e+06
3.68146e+06
3.65795e+06
3.63426e+06
3.61037e+06
3.5863e+06
3.56205e+06
3.53762e+06
3.51302e+06
3.48825e+06
3.46332e+06
3.43822e+06
3.41296e+06
3.38755e+06
3.36198e+06
3.33627e+06
3.31041e+06
3.2844e+06
3.25826e+06
3.23198e+06
3.20556e+06
3.17902e+06
3.15234e+06
3.12554e+06
3.09861e+06
3.07157e+06
3.04441e+06
3.01713e+06
2.98974e+06
2.96224e+06
2.93463e+06
2.90692e+06
2.87911e+06
2.8512e+06
2.82319e+06
2.79508e+06
2.76689e+06
2.7386e+06
2.71023e+06
2.68178e+06
2.65324e+06
2.62463e+06
2.59594e+06
2.56717e+06
2.53834e+06
2.50944e+06
2.48047e+06
2.45144e+06
2.42234e+06
2.3932e+06
2.36399e+06
2.33474e+06
2.30544e+06
2.27609e+06
2.2467e+06
2.21727e+06
2.1878e+06
2.1583e+06
2.12877e+06
2.09922e+06
2.06964e+06
2.04003e+06
2.01042e+06
1.98078e+06
1.95114e+06
1.92149e+06
1.89184e+06
1.86219e+06
1.83255e+06
1.80291e+06
1.77329e+06
1.74368e+06
1.71409e+06
1.68453e+06
1.655e+06
1.6255e+06
1.59605e+06
1.56663e+06
1.53726e+06
1.50794e+06
1.47869e+06
1.44949e+06
1.42036e+06
1.3913e+06
1.36232e+06
1.33343e+06
1.30462e+06
1.2759e+06
1.24729e+06
1.21878e+06
1.19039e+06
1.16211e+06
1.13396e+06
1.10594e+06
1.07805e+06
1.05031e+06
1.02273e+06
995298
968038
940951
914049
887338
860829
834531
808455
782614
757020
731690
706642
681898
657488
633451
609843
586736
4.56949e+06
4.56911e+06
4.56834e+06
4.56719e+06
4.56563e+06
4.56368e+06
4.56131e+06
4.55852e+06
4.55532e+06
4.55169e+06
4.54762e+06
4.54313e+06
4.5382e+06
4.53283e+06
4.52703e+06
4.52078e+06
4.5141e+06
4.50697e+06
4.49941e+06
4.4914e+06
4.48296e+06
4.47409e+06
4.46479e+06
4.45505e+06
4.4449e+06
4.43432e+06
4.42333e+06
4.41192e+06
4.40011e+06
4.3879e+06
4.37529e+06
4.36229e+06
4.3489e+06
4.33513e+06
4.32099e+06
4.30648e+06
4.2916e+06
4.27637e+06
4.26079e+06
4.24486e+06
4.22859e+06
4.21199e+06
4.19506e+06
4.17781e+06
4.16025e+06
4.14238e+06
4.1242e+06
4.10572e+06
4.08695e+06
4.0679e+06
4.04856e+06
4.02895e+06
4.00907e+06
3.98892e+06
3.96851e+06
3.94785e+06
3.92694e+06
3.90579e+06
3.88439e+06
3.86276e+06
3.84091e+06
3.81882e+06
3.79652e+06
3.774e+06
3.75128e+06
3.72834e+06
3.7052e+06
3.68187e+06
3.65833e+06
3.63461e+06
3.61071e+06
3.58661e+06
3.56235e+06
3.5379e+06
3.51328e+06
3.4885e+06
3.46355e+06
3.43843e+06
3.41316e+06
3.38774e+06
3.36216e+06
3.33644e+06
3.31056e+06
3.28455e+06
3.2584e+06
3.23211e+06
3.20568e+06
3.17913e+06
3.15244e+06
3.12563e+06
3.0987e+06
3.07165e+06
3.04448e+06
3.0172e+06
2.9898e+06
2.9623e+06
2.93469e+06
2.90697e+06
2.87916e+06
2.85124e+06
2.82323e+06
2.79512e+06
2.76692e+06
2.73864e+06
2.71026e+06
2.68181e+06
2.65327e+06
2.62465e+06
2.59596e+06
2.56719e+06
2.53836e+06
2.50945e+06
2.48048e+06
2.45145e+06
2.42236e+06
2.39321e+06
2.36401e+06
2.33475e+06
2.30545e+06
2.2761e+06
2.24671e+06
2.21728e+06
2.18781e+06
2.15831e+06
2.12878e+06
2.09922e+06
2.06964e+06
2.04004e+06
2.01042e+06
1.98079e+06
1.95114e+06
1.92149e+06
1.89184e+06
1.86219e+06
1.83255e+06
1.80291e+06
1.77329e+06
1.74368e+06
1.71409e+06
1.68453e+06
1.655e+06
1.6255e+06
1.59605e+06
1.56663e+06
1.53726e+06
1.50795e+06
1.47869e+06
1.44949e+06
1.42036e+06
1.3913e+06
1.36232e+06
1.33343e+06
1.30462e+06
1.27591e+06
1.24729e+06
1.21878e+06
1.19039e+06
1.16211e+06
1.13396e+06
1.10594e+06
1.07805e+06
1.05031e+06
1.02272e+06
995296
968034
940948
914044
887332
860820
834520
808442
782597
756998
731660
706602
681843
657409
633333
609652
586397
4.57619e+06
4.57579e+06
4.575e+06
4.57381e+06
4.57222e+06
4.57021e+06
4.56778e+06
4.56493e+06
4.56165e+06
4.55793e+06
4.55378e+06
4.54919e+06
4.54415e+06
4.53868e+06
4.53275e+06
4.52638e+06
4.51957e+06
4.51231e+06
4.50461e+06
4.49647e+06
4.48789e+06
4.47888e+06
4.46943e+06
4.45955e+06
4.44925e+06
4.43853e+06
4.42739e+06
4.41585e+06
4.40389e+06
4.39154e+06
4.37879e+06
4.36566e+06
4.35214e+06
4.33824e+06
4.32397e+06
4.30933e+06
4.29434e+06
4.27899e+06
4.26329e+06
4.24725e+06
4.23088e+06
4.21417e+06
4.19714e+06
4.1798e+06
4.16214e+06
4.14418e+06
4.12591e+06
4.10735e+06
4.0885e+06
4.06937e+06
4.04996e+06
4.03028e+06
4.01033e+06
3.99011e+06
3.96964e+06
3.94892e+06
3.92795e+06
3.90674e+06
3.8853e+06
3.86362e+06
3.84171e+06
3.81959e+06
3.79724e+06
3.77468e+06
3.75192e+06
3.72894e+06
3.70577e+06
3.6824e+06
3.65884e+06
3.63509e+06
3.61115e+06
3.58703e+06
3.56274e+06
3.53827e+06
3.51363e+06
3.48882e+06
3.46385e+06
3.43872e+06
3.41343e+06
3.38799e+06
3.3624e+06
3.33666e+06
3.31077e+06
3.28474e+06
3.25858e+06
3.23227e+06
3.20584e+06
3.17927e+06
3.15258e+06
3.12576e+06
3.09882e+06
3.07176e+06
3.04458e+06
3.01729e+06
2.98989e+06
2.96238e+06
2.93476e+06
2.90704e+06
2.87922e+06
2.8513e+06
2.82328e+06
2.79517e+06
2.76697e+06
2.73868e+06
2.7103e+06
2.68184e+06
2.6533e+06
2.62468e+06
2.59599e+06
2.56722e+06
2.53838e+06
2.50947e+06
2.4805e+06
2.45147e+06
2.42237e+06
2.39322e+06
2.36402e+06
2.33476e+06
2.30546e+06
2.27611e+06
2.24672e+06
2.21729e+06
2.18782e+06
2.15832e+06
2.12879e+06
2.09923e+06
2.06964e+06
2.04004e+06
2.01042e+06
1.98079e+06
1.95115e+06
1.9215e+06
1.89185e+06
1.8622e+06
1.83255e+06
1.80291e+06
1.77329e+06
1.74368e+06
1.7141e+06
1.68453e+06
1.655e+06
1.62551e+06
1.59605e+06
1.56663e+06
1.53726e+06
1.50795e+06
1.47869e+06
1.44949e+06
1.42036e+06
1.3913e+06
1.36232e+06
1.33343e+06
1.30462e+06
1.27591e+06
1.24729e+06
1.21878e+06
1.19039e+06
1.16211e+06
1.13396e+06
1.10593e+06
1.07805e+06
1.05031e+06
1.02272e+06
995293
968030
940942
914037
887323
860810
834507
808424
782574
756969
731622
706550
681772
657310
633188
609430
586041
4.58464e+06
4.58422e+06
4.5834e+06
4.58217e+06
4.58052e+06
4.57845e+06
4.57594e+06
4.573e+06
4.56962e+06
4.5658e+06
4.56153e+06
4.55681e+06
4.55164e+06
4.54602e+06
4.53994e+06
4.53342e+06
4.52644e+06
4.51901e+06
4.51114e+06
4.50282e+06
4.49406e+06
4.48487e+06
4.47524e+06
4.46518e+06
4.45469e+06
4.44379e+06
4.43247e+06
4.42074e+06
4.40861e+06
4.39609e+06
4.38316e+06
4.36986e+06
4.35617e+06
4.34211e+06
4.32768e+06
4.31289e+06
4.29774e+06
4.28224e+06
4.2664e+06
4.25023e+06
4.23372e+06
4.21688e+06
4.19973e+06
4.18226e+06
4.16449e+06
4.14641e+06
4.12804e+06
4.10938e+06
4.09043e+06
4.0712e+06
4.0517e+06
4.03193e+06
4.01189e+06
3.9916e+06
3.97105e+06
3.95025e+06
3.92921e+06
3.90793e+06
3.88642e+06
3.86468e+06
3.84272e+06
3.82053e+06
3.79814e+06
3.77553e+06
3.75271e+06
3.72969e+06
3.70648e+06
3.68307e+06
3.65947e+06
3.63568e+06
3.61171e+06
3.58756e+06
3.56323e+06
3.53873e+06
3.51406e+06
3.48923e+06
3.46423e+06
3.43908e+06
3.41377e+06
3.3883e+06
3.36269e+06
3.33693e+06
3.31103e+06
3.28498e+06
3.2588e+06
3.23248e+06
3.20603e+06
3.17945e+06
3.15275e+06
3.12592e+06
3.09897e+06
3.0719e+06
3.04471e+06
3.01741e+06
2.99e+06
2.96248e+06
2.93486e+06
2.90713e+06
2.8793e+06
2.85137e+06
2.82335e+06
2.79524e+06
2.76703e+06
2.73873e+06
2.71035e+06
2.68189e+06
2.65334e+06
2.62472e+06
2.59602e+06
2.56725e+06
2.53841e+06
2.5095e+06
2.48053e+06
2.45149e+06
2.4224e+06
2.39324e+06
2.36404e+06
2.33478e+06
2.30547e+06
2.27612e+06
2.24673e+06
2.2173e+06
2.18783e+06
2.15833e+06
2.12879e+06
2.09923e+06
2.06965e+06
2.04005e+06
2.01043e+06
1.98079e+06
1.95115e+06
1.9215e+06
1.89185e+06
1.8622e+06
1.83255e+06
1.80292e+06
1.77329e+06
1.74368e+06
1.7141e+06
1.68454e+06
1.655e+06
1.62551e+06
1.59605e+06
1.56663e+06
1.53726e+06
1.50795e+06
1.47869e+06
1.44949e+06
1.42036e+06
1.3913e+06
1.36232e+06
1.33343e+06
1.30462e+06
1.27591e+06
1.24729e+06
1.21878e+06
1.19039e+06
1.16211e+06
1.13396e+06
1.10593e+06
1.07805e+06
1.05031e+06
1.02272e+06
995289
968026
940936
914029
887313
860797
834490
808403
782547
756933
731575
706488
681689
657194
633024
609189
585682
4.59489e+06
4.59445e+06
4.59359e+06
4.59231e+06
4.59059e+06
4.58844e+06
4.58584e+06
4.58279e+06
4.57929e+06
4.57533e+06
4.57091e+06
4.56603e+06
4.56069e+06
4.55488e+06
4.54862e+06
4.5419e+06
4.53472e+06
4.52709e+06
4.519e+06
4.51046e+06
4.50149e+06
4.49207e+06
4.48221e+06
4.47193e+06
4.46122e+06
4.45009e+06
4.43856e+06
4.42661e+06
4.41426e+06
4.40152e+06
4.38839e+06
4.37488e+06
4.36099e+06
4.34673e+06
4.33211e+06
4.31713e+06
4.3018e+06
4.28613e+06
4.27012e+06
4.25377e+06
4.2371e+06
4.22012e+06
4.20281e+06
4.1852e+06
4.16729e+06
4.14908e+06
4.13058e+06
4.11179e+06
4.09272e+06
4.07338e+06
4.05376e+06
4.03389e+06
4.01375e+06
3.99336e+06
3.97272e+06
3.95183e+06
3.93071e+06
3.90935e+06
3.88776e+06
3.86595e+06
3.84391e+06
3.82166e+06
3.7992e+06
3.77653e+06
3.75366e+06
3.73059e+06
3.70732e+06
3.68386e+06
3.66021e+06
3.63638e+06
3.61237e+06
3.58818e+06
3.56381e+06
3.53928e+06
3.51458e+06
3.48971e+06
3.46469e+06
3.4395e+06
3.41416e+06
3.38868e+06
3.36304e+06
3.33726e+06
3.31133e+06
3.28527e+06
3.25906e+06
3.23273e+06
3.20626e+06
3.17967e+06
3.15295e+06
3.1261e+06
3.09914e+06
3.07206e+06
3.04486e+06
3.01755e+06
2.99013e+06
2.9626e+06
2.93497e+06
2.90723e+06
2.8794e+06
2.85146e+06
2.82343e+06
2.79531e+06
2.7671e+06
2.7388e+06
2.71041e+06
2.68194e+06
2.65339e+06
2.62477e+06
2.59607e+06
2.56729e+06
2.53845e+06
2.50953e+06
2.48056e+06
2.45152e+06
2.42242e+06
2.39327e+06
2.36406e+06
2.3348e+06
2.30549e+06
2.27614e+06
2.24674e+06
2.21731e+06
2.18784e+06
2.15834e+06
2.1288e+06
2.09924e+06
2.06966e+06
2.04006e+06
2.01043e+06
1.9808e+06
1.95116e+06
1.92151e+06
1.89185e+06
1.8622e+06
1.83256e+06
1.80292e+06
1.77329e+06
1.74369e+06
1.7141e+06
1.68454e+06
1.65501e+06
1.62551e+06
1.59605e+06
1.56663e+06
1.53726e+06
1.50795e+06
1.47869e+06
1.44949e+06
1.42036e+06
1.3913e+06
1.36232e+06
1.33343e+06
1.30462e+06
1.27591e+06
1.24729e+06
1.21878e+06
1.19039e+06
1.16211e+06
1.13395e+06
1.10593e+06
1.07805e+06
1.05031e+06
1.02272e+06
995285
968020
940929
914020
887301
860782
834471
808379
782515
756892
731522
706418
681594
657066
632845
608938
585328
4.60702e+06
4.60655e+06
4.60565e+06
4.6043e+06
4.6025e+06
4.60024e+06
4.59753e+06
4.59434e+06
4.59068e+06
4.58656e+06
4.58196e+06
4.57688e+06
4.57133e+06
4.56531e+06
4.55882e+06
4.55186e+06
4.54443e+06
4.53655e+06
4.5282e+06
4.51941e+06
4.51016e+06
4.50048e+06
4.49036e+06
4.4798e+06
4.46883e+06
4.45744e+06
4.44564e+06
4.43343e+06
4.42083e+06
4.40784e+06
4.39446e+06
4.38071e+06
4.36658e+06
4.35209e+06
4.33725e+06
4.32205e+06
4.30651e+06
4.29063e+06
4.27442e+06
4.25788e+06
4.24102e+06
4.22385e+06
4.20638e+06
4.1886e+06
4.17052e+06
4.15216e+06
4.13351e+06
4.11458e+06
4.09537e+06
4.0759e+06
4.05616e+06
4.03616e+06
4.0159e+06
3.9954e+06
3.97465e+06
3.95366e+06
3.93244e+06
3.91098e+06
3.8893e+06
3.86741e+06
3.84529e+06
3.82296e+06
3.80043e+06
3.77769e+06
3.75475e+06
3.73162e+06
3.70829e+06
3.68477e+06
3.66107e+06
3.63719e+06
3.61313e+06
3.58889e+06
3.56448e+06
3.53991e+06
3.51517e+06
3.49027e+06
3.46521e+06
3.43999e+06
3.41462e+06
3.3891e+06
3.36344e+06
3.33763e+06
3.31168e+06
3.28559e+06
3.25937e+06
3.23301e+06
3.20653e+06
3.17992e+06
3.15318e+06
3.12632e+06
3.09934e+06
3.07225e+06
3.04503e+06
3.01771e+06
2.99028e+06
2.96274e+06
2.9351e+06
2.90735e+06
2.87951e+06
2.85156e+06
2.82353e+06
2.7954e+06
2.76718e+06
2.73887e+06
2.71048e+06
2.68201e+06
2.65345e+06
2.62482e+06
2.59611e+06
2.56734e+06
2.53849e+06
2.50957e+06
2.48059e+06
2.45155e+06
2.42245e+06
2.39329e+06
2.36408e+06
2.33482e+06
2.30551e+06
2.27616e+06
2.24676e+06
2.21733e+06
2.18785e+06
2.15835e+06
2.12881e+06
2.09925e+06
2.06967e+06
2.04006e+06
2.01044e+06
1.98081e+06
1.95116e+06
1.92151e+06
1.89186e+06
1.86221e+06
1.83256e+06
1.80292e+06
1.7733e+06
1.74369e+06
1.7141e+06
1.68454e+06
1.65501e+06
1.62551e+06
1.59605e+06
1.56664e+06
1.53727e+06
1.50795e+06
1.47869e+06
1.44949e+06
1.42036e+06
1.39131e+06
1.36233e+06
1.33343e+06
1.30462e+06
1.27591e+06
1.24729e+06
1.21878e+06
1.19039e+06
1.16211e+06
1.13395e+06
1.10593e+06
1.07804e+06
1.0503e+06
1.02271e+06
995280
968014
940921
914010
887288
860765
834450
808351
782480
756847
731463
706340
681491
656928
632658
608683
584984
4.62112e+06
4.62061e+06
4.61965e+06
4.61822e+06
4.61632e+06
4.61394e+06
4.61108e+06
4.60773e+06
4.60388e+06
4.59955e+06
4.59473e+06
4.58942e+06
4.58362e+06
4.57733e+06
4.57057e+06
4.56332e+06
4.5556e+06
4.54741e+06
4.53876e+06
4.52966e+06
4.5201e+06
4.5101e+06
4.49967e+06
4.4888e+06
4.47752e+06
4.46582e+06
4.45371e+06
4.4412e+06
4.4283e+06
4.41502e+06
4.40136e+06
4.38733e+06
4.37293e+06
4.35818e+06
4.34307e+06
4.32762e+06
4.31184e+06
4.29572e+06
4.27928e+06
4.26253e+06
4.24546e+06
4.22808e+06
4.21041e+06
4.19244e+06
4.17418e+06
4.15564e+06
4.13682e+06
4.11773e+06
4.09837e+06
4.07874e+06
4.05886e+06
4.03872e+06
4.01833e+06
3.9977e+06
3.97683e+06
3.95572e+06
3.93439e+06
3.91283e+06
3.89105e+06
3.86906e+06
3.84685e+06
3.82443e+06
3.80182e+06
3.779e+06
3.75598e+06
3.73278e+06
3.70938e+06
3.6858e+06
3.66204e+06
3.6381e+06
3.61399e+06
3.5897e+06
3.56524e+06
3.54062e+06
3.51584e+06
3.4909e+06
3.4658e+06
3.44054e+06
3.41514e+06
3.38959e+06
3.36389e+06
3.33806e+06
3.31208e+06
3.28596e+06
3.25972e+06
3.23334e+06
3.20683e+06
3.1802e+06
3.15344e+06
3.12656e+06
3.09957e+06
3.07246e+06
3.04523e+06
3.01789e+06
2.99045e+06
2.9629e+06
2.93524e+06
2.90749e+06
2.87963e+06
2.85168e+06
2.82363e+06
2.7955e+06
2.76727e+06
2.73896e+06
2.71056e+06
2.68208e+06
2.65352e+06
2.62488e+06
2.59617e+06
2.56739e+06
2.53853e+06
2.50961e+06
2.48063e+06
2.45159e+06
2.42248e+06
2.39332e+06
2.36411e+06
2.33485e+06
2.30553e+06
2.27618e+06
2.24678e+06
2.21734e+06
2.18787e+06
2.15836e+06
2.12883e+06
2.09926e+06
2.06968e+06
2.04007e+06
2.01045e+06
1.98081e+06
1.95117e+06
1.92152e+06
1.89186e+06
1.86221e+06
1.83256e+06
1.80293e+06
1.7733e+06
1.74369e+06
1.71411e+06
1.68454e+06
1.65501e+06
1.62551e+06
1.59605e+06
1.56664e+06
1.53727e+06
1.50795e+06
1.47869e+06
1.44949e+06
1.42036e+06
1.39131e+06
1.36233e+06
1.33343e+06
1.30462e+06
1.27591e+06
1.24729e+06
1.21878e+06
1.19039e+06
1.16211e+06
1.13395e+06
1.10593e+06
1.07804e+06
1.0503e+06
1.02271e+06
995274
968007
940912
913998
887274
860747
834426
808321
782441
756797
731399
706257
681382
656784
632467
608429
584652
4.63728e+06
4.63674e+06
4.6357e+06
4.63418e+06
4.63215e+06
4.62962e+06
4.62658e+06
4.62303e+06
4.61896e+06
4.61438e+06
4.60929e+06
4.6037e+06
4.5976e+06
4.59099e+06
4.5839e+06
4.57631e+06
4.56824e+06
4.5597e+06
4.55069e+06
4.54122e+06
4.5313e+06
4.52094e+06
4.51014e+06
4.49891e+06
4.48727e+06
4.47521e+06
4.46276e+06
4.44991e+06
4.43667e+06
4.42306e+06
4.40907e+06
4.39472e+06
4.38002e+06
4.36496e+06
4.34957e+06
4.33384e+06
4.31778e+06
4.3014e+06
4.28471e+06
4.2677e+06
4.2504e+06
4.23279e+06
4.2149e+06
4.19672e+06
4.17826e+06
4.15952e+06
4.14051e+06
4.12124e+06
4.1017e+06
4.08191e+06
4.06187e+06
4.04157e+06
4.02104e+06
4.00026e+06
3.97926e+06
3.95802e+06
3.93656e+06
3.91488e+06
3.89299e+06
3.87089e+06
3.84858e+06
3.82607e+06
3.80336e+06
3.78045e+06
3.75735e+06
3.73407e+06
3.7106e+06
3.68695e+06
3.66312e+06
3.63912e+06
3.61494e+06
3.5906e+06
3.56609e+06
3.54142e+06
3.51658e+06
3.49159e+06
3.46645e+06
3.44116e+06
3.41572e+06
3.39013e+06
3.3644e+06
3.33853e+06
3.31252e+06
3.28638e+06
3.2601e+06
3.2337e+06
3.20717e+06
3.18051e+06
3.15373e+06
3.12683e+06
3.09982e+06
3.07269e+06
3.04545e+06
3.0181e+06
2.99064e+06
2.96307e+06
2.93541e+06
2.90764e+06
2.87977e+06
2.85181e+06
2.82375e+06
2.79561e+06
2.76737e+06
2.73905e+06
2.71064e+06
2.68216e+06
2.65359e+06
2.62495e+06
2.59623e+06
2.56744e+06
2.53859e+06
2.50966e+06
2.48067e+06
2.45163e+06
2.42252e+06
2.39336e+06
2.36414e+06
2.33487e+06
2.30556e+06
2.2762e+06
2.2468e+06
2.21736e+06
2.18789e+06
2.15838e+06
2.12884e+06
2.09928e+06
2.06969e+06
2.04008e+06
2.01046e+06
1.98082e+06
1.95118e+06
1.92152e+06
1.89187e+06
1.86222e+06
1.83257e+06
1.80293e+06
1.7733e+06
1.7437e+06
1.71411e+06
1.68455e+06
1.65501e+06
1.62552e+06
1.59606e+06
1.56664e+06
1.53727e+06
1.50795e+06
1.47869e+06
1.4495e+06
1.42037e+06
1.39131e+06
1.36233e+06
1.33343e+06
1.30462e+06
1.27591e+06
1.24729e+06
1.21878e+06
1.19039e+06
1.16211e+06
1.13395e+06
1.10593e+06
1.07804e+06
1.0503e+06
1.0227e+06
995269
967999
940902
913986
887258
860727
834401
808289
782400
756745
731331
706170
681269
656637
632275
608180
584335
4.65565e+06
4.65505e+06
4.65394e+06
4.65229e+06
4.65011e+06
4.6474e+06
4.64414e+06
4.64034e+06
4.636e+06
4.63113e+06
4.62572e+06
4.61978e+06
4.61332e+06
4.60634e+06
4.59885e+06
4.59087e+06
4.58239e+06
4.57344e+06
4.56401e+06
4.55412e+06
4.54377e+06
4.53299e+06
4.52177e+06
4.51013e+06
4.49808e+06
4.48562e+06
4.47277e+06
4.45952e+06
4.44591e+06
4.43192e+06
4.41757e+06
4.40287e+06
4.38782e+06
4.37243e+06
4.35671e+06
4.34067e+06
4.32431e+06
4.30764e+06
4.29066e+06
4.27338e+06
4.25581e+06
4.23796e+06
4.21982e+06
4.20141e+06
4.18272e+06
4.16377e+06
4.14456e+06
4.12508e+06
4.10536e+06
4.08538e+06
4.06516e+06
4.0447e+06
4.024e+06
4.00307e+06
3.98191e+06
3.96053e+06
3.93894e+06
3.91713e+06
3.89511e+06
3.87289e+06
3.85047e+06
3.82785e+06
3.80504e+06
3.78204e+06
3.75885e+06
3.73548e+06
3.71193e+06
3.6882e+06
3.6643e+06
3.64023e+06
3.61599e+06
3.59158e+06
3.56701e+06
3.54228e+06
3.5174e+06
3.49236e+06
3.46717e+06
3.44183e+06
3.41634e+06
3.39072e+06
3.36495e+06
3.33904e+06
3.313e+06
3.28683e+06
3.26052e+06
3.23409e+06
3.20753e+06
3.18085e+06
3.15405e+06
3.12713e+06
3.1001e+06
3.07295e+06
3.04569e+06
3.01832e+06
2.99084e+06
2.96326e+06
2.93558e+06
2.9078e+06
2.87992e+06
2.85195e+06
2.82388e+06
2.79573e+06
2.76748e+06
2.73915e+06
2.71074e+06
2.68224e+06
2.65367e+06
2.62502e+06
2.5963e+06
2.5675e+06
2.53864e+06
2.50971e+06
2.48072e+06
2.45167e+06
2.42256e+06
2.39339e+06
2.36417e+06
2.3349e+06
2.30559e+06
2.27623e+06
2.24682e+06
2.21738e+06
2.1879e+06
2.1584e+06
2.12886e+06
2.09929e+06
2.0697e+06
2.04009e+06
2.01047e+06
1.98083e+06
1.95118e+06
1.92153e+06
1.89188e+06
1.86222e+06
1.83257e+06
1.80294e+06
1.77331e+06
1.7437e+06
1.71411e+06
1.68455e+06
1.65502e+06
1.62552e+06
1.59606e+06
1.56664e+06
1.53727e+06
1.50796e+06
1.4787e+06
1.4495e+06
1.42037e+06
1.39131e+06
1.36233e+06
1.33343e+06
1.30462e+06
1.27591e+06
1.24729e+06
1.21878e+06
1.19039e+06
1.16211e+06
1.13395e+06
1.10592e+06
1.07804e+06
1.05029e+06
1.0227e+06
995263
967991
940892
913973
887242
860706
834375
808256
782358
756690
731261
706080
681154
656488
632085
607938
584033
4.67638e+06
4.67572e+06
4.6745e+06
4.67271e+06
4.67035e+06
4.6674e+06
4.66388e+06
4.65979e+06
4.65512e+06
4.64988e+06
4.64409e+06
4.63774e+06
4.63085e+06
4.62342e+06
4.61548e+06
4.60702e+06
4.59807e+06
4.58863e+06
4.57871e+06
4.56834e+06
4.55751e+06
4.54624e+06
4.53455e+06