/*--------------------------------*- C++ -*----------------------------------*\
  =========                 |
  \\      /  F ield         | OpenFOAM: The Open Source CFD Toolbox
   \\    /   O peration     | Website:  https://openfoam.org
    \\  /    A nd           | Version:  7
     \\/     M anipulation  |
\*---------------------------------------------------------------------------*/
FoamFile
{
    version     2.0;
    format      ascii;
    class       volScalarField;
    location    "0.051";
    object      s;
}
// * * * * * * * * * * * * * * * * * * * * * * * * * * * * * * * * * * * * * //

dimensions      [0 0 0 0 0 0 0];

internalField   nonuniform List<scalar> 
12225
(
1
1
1
1
1
1
1
1
1
1
1
1
1
1
1
1
1
1
1
1
1
1
1
1
1
1
1
1
1
1
1
1
1
1
1
1
1
1
1
1
1
1
1
1
1
1
1
1
1
1
1
1
1
1
1
1
1
1
1
1
1
1
1
1
1
1
1
1
1
1
1
1
1
1
1
1
1
1
1
1
1
1
1
1
1
1
1
1
1
1
1
1
1
1
1
1
1
1
1
1
1
1
1
1
1
1
1
1
1
1
1
1
1
1
1
1
1
1
1
1
1
1
1
1
1
1
1
1
1
1
1
1
1
1
1
1
1
1
1
1
1
1
1
1
1
1
1
1
1
1
1
1
1
1
1
1
1
1
1
1
1
1
1
1
1
1
1
1
1
1
1
1
1
1
1
1
1
1
1
1
1
1
1
1
1
1
1
1
1
1
1
1
1
1
1
1
1
1
1
1
1
1
1
1
1
1
1
1
1
1
1
1
1
1
1
1
1
1
1
1
1
1
1
1
1
1
1
1
1
1
1
1
1
1
1
1
1
1
1
1
1
1
1
1
1
1
1
1
1
1
1
1
1
1
1
1
1
1
1
1
1
1
1
1
1
1
1
1
1
1
1
1
1
1
1
1
1
1
1
1
1
1
1
1
1
1
1
1
1
1
1
1
1
1
1
1
1
1
1
1
1
1
1
1
1
1
1
1
1
1
1
1
1
1
1
1
1
1
1
1
1
1
1
1
1
1
1
1
1
1
1
1
1
1
1
1
1
1
1
1
1
1
1
1
1
1
1
1
1
1
1
1
1
1
1
1
1
1
1
1
1
1
1
1
1
1
1
1
1
1
1
1
1
1
1
1
1
1
1
1
1
1
1
1
1
1
1
1
1
1
1
1
1
1
1
1
1
1
1
1
1
1
1
1
1
1
1
1
1
1
1
1
1
1
1
1
1
1
1
1
1
1
1
1
1
1
1
1
1
1
1
1
1
1
1
1
1
1
1
1
1
1
1
1
1
1
1
1
1
1
1
1
1
1
1
1
1
1
1
1
1
1
1
1
1
1
1
1
1
1
1
1
1
1
1
1
1
1
1
1
1
1
1
1
1
1
1
1
1
1
1
1
1
1
1
1
1
1
1
1
1
1
1
1
1
1
1
1
1
1
1
1
1
1
1
1
1
1
1
1
1
1
1
1
1
1
1
1
1
1
1
1
1
1
1
1
1
1
1
1
2.07106e-07
3.85174e-06
3.01262e-05
0.000100564
0.000247169
0.000576412
0.000993462
0.00215713
0.00324573
0.00513638
0.00812886
0.0111516
0.0140735
0.0170911
0.018855
0.0212215
0.0213481
0.0208207
0.0196585
0.0181539
0.0165615
0.0149472
0.0133196
0.0116358
0.00988682
0.00810455
0.00618879
0.00399088
0.00187706
0.000557658
0.00016713
0.000210719
0.000511602
0.00143307
0.00530876
0.0157805
0.0180942
0.0212364
0.0880745
0.49741
0.614176
0.584169
0.58078
0.583267
0.592763
0.608332
0.624792
0.638115
0.649284
0.660521
0.670956
0.678704
0.684076
0.688611
0.692482
0.69411
0.694605
0.694557
0.691472
0.683685
0.675648
0.669939
0.666259
0.664927
0.664549
0.664585
0.665803
0.67009
0.678369
0.68906
0.699057
0.706388
0.710695
0.71255
0.713138
0.712673
0.708402
0.700132
0.691685
0.6833
0.672164
0.660206
0.64884
0.634998
0.621242
0.606243
0.590129
0.573296
0.554445
0.534468
0.512685
0.489046
0.463366
0.435562
0.405593
0.373375
0.338994
0.302937
0.265395
0.227351
0.18996
0.154767
0.123618
0.0982204
0.0771188
0.0587252
0.0432261
0.0307402
0.0211547
0.0141131
0.0091077
0.00565615
0.0033709
0.00192481
0.0010508
0.000546755
0.000270029
0.000125811
5.48371e-05
2.1598e-05
8.0817e-06
2.95838e-06
1.05718e-06
3.67832e-07
1.24255e-07
4.1044e-08
1.27397e-08
3.27779e-09
1.3769e-09
5.82979e-10
2.42502e-10
9.8129e-11
3.86751e-11
1.48984e-11
5.62061e-12
2.07767e-12
7.52596e-13
2.67213e-13
9.30424e-14
3.17881e-14
1.06613e-14
3.51142e-15
1.13607e-15
3.61142e-16
1.12816e-16
3.46342e-17
1.04488e-17
3.09787e-18
9.02795e-19
2.58659e-19
7.28701e-20
2.01888e-20
5.50113e-21
1.47436e-21
3.88671e-22
1.00784e-22
2.57053e-23
6.44853e-24
1.59102e-24
3.86043e-25
9.21081e-26
2.1608e-26
4.9835e-27
1.12977e-27
2.51716e-28
5.51062e-29
1.18509e-29
2.50268e-30
5.18788e-31
1.05496e-31
2.10308e-32
4.10526e-33
7.83845e-34
1.46049e-34
2.65119e-35
4.66427e-36
7.9361e-37
1.28857e-37
1.99968e-38
2.41927e-39
5.13306e-07
2.94308e-05
0.000181759
0.00064193
0.00172345
0.00408506
0.00811109
0.0188089
0.0296231
0.0490917
0.0743433
0.0989955
0.122048
0.142456
0.158772
0.17565
0.179974
0.17735
0.169837
0.154182
0.133499
0.109474
0.0855253
0.0634993
0.0444889
0.0298035
0.0190066
0.0114741
0.00666108
0.00361332
0.00176092
0.00162639
0.00354683
0.00554689
0.00688803
0.0230989
0.150524
0.452888
0.540431
0.618385
0.647268
0.655463
0.708948
0.744399
0.790405
0.828613
0.858194
0.886711
0.903211
0.921772
0.931804
0.943687
0.949509
0.956186
0.959562
0.963264
0.965297
0.96724
0.969287
0.970293
0.971596
0.972216
0.972585
0.97281
0.972955
0.973048
0.973054
0.972869
0.972336
0.971518
0.970693
0.970235
0.97019
0.970604
0.97222
0.974684
0.976806
0.978415
0.980196
0.981265
0.981934
0.982811
0.98386
0.984328
0.984513
0.983689
0.982753
0.982114
0.980142
0.977811
0.97492
0.97114
0.966379
0.960381
0.952809
0.943202
0.931011
0.915555
0.895821
0.870662
0.838632
0.798018
0.746904
0.683787
0.610889
0.531248
0.446987
0.361626
0.280698
0.211066
0.156851
0.113858
0.0799278
0.0543394
0.0358908
0.023039
0.014371
0.00871771
0.00514911
0.00296601
0.00166813
0.00091749
0.000494345
0.000261307
0.000135662
6.92179e-05
3.47159e-05
1.71137e-05
8.28922e-06
3.94303e-06
1.84097e-06
8.43154e-07
3.78591e-07
1.66583e-07
7.17993e-08
3.03042e-08
1.25218e-08
5.06432e-09
2.00421e-09
7.75823e-10
2.93599e-10
1.08566e-10
3.9207e-11
1.38179e-11
4.74625e-12
1.58547e-12
5.13757e-13
1.61635e-13
4.98116e-14
1.50629e-14
4.46991e-15
1.30171e-15
3.71991e-16
1.04309e-16
2.86977e-17
7.74583e-18
2.05093e-18
5.32681e-19
1.35703e-19
3.39079e-20
8.30961e-21
1.99718e-21
4.70755e-22
1.08818e-22
2.46671e-23
5.48312e-24
1.19505e-24
2.55367e-25
5.34887e-26
1.09806e-26
2.20818e-27
4.34926e-28
8.38022e-29
1.57954e-29
2.90425e-30
5.21227e-31
9.06861e-32
1.53147e-32
2.66627e-33
-9.36605e-34
1.02347e-05
0.000120091
0.000683819
0.00254071
0.00734268
0.0180104
0.0398853
0.0914048
0.146817
0.233763
0.317862
0.395229
0.447814
0.481889
0.505786
0.509336
0.506444
0.498727
0.48338
0.459405
0.429386
0.385937
0.330201
0.264477
0.192886
0.127935
0.0774897
0.0412171
0.0253364
0.0169895
0.00768478
0.00599042
0.0122662
0.0508858
0.173494
0.408768
0.585569
0.683935
0.726497
0.775706
0.799359
0.857312
0.884514
0.900466
0.911152
0.915518
0.916906
0.916612
0.911281
0.907856
0.897764
0.885936
0.876277
0.870884
0.869036
0.869107
0.875649
0.891657
0.905261
0.913086
0.92488
0.932376
0.935153
0.936326
0.936636
0.936534
0.935181
0.931029
0.923716
0.915132
0.909804
0.907652
0.906978
0.90847
0.916603
0.928411
0.936164
0.942196
0.953406
0.962682
0.96687
0.971811
0.978568
0.983624
0.986321
0.988266
0.990562
0.993142
0.994517
0.995627
0.996799
0.997473
0.997992
0.998299
0.998459
0.998515
0.998385
0.998
0.997312
0.996207
0.994482
0.991814
0.98771
0.981403
0.971757
0.956997
0.934413
0.899962
0.847971
0.772271
0.671085
0.553798
0.431847
0.318927
0.227792
0.159426
0.108264
0.0713911
0.0458231
0.0286724
0.0175204
0.0104745
0.00613771
0.00353051
0.00199599
0.00110996
0.000607327
0.000326936
0.000173078
9.00491e-05
4.60089e-05
2.30666e-05
1.13393e-05
5.46235e-06
2.57731e-06
1.19072e-06
5.3855e-07
2.38441e-07
1.03337e-07
4.38378e-08
1.82033e-08
7.39883e-09
2.94364e-09
1.14626e-09
4.36807e-10
1.62863e-10
5.94032e-11
2.11924e-11
7.39372e-12
2.52233e-12
8.41306e-13
2.74333e-13
8.74441e-14
2.72434e-14
8.29471e-15
2.46763e-15
7.17993e-16
2.05082e-16
5.75363e-17
1.58533e-17
4.28961e-18
1.13971e-18
2.97301e-19
7.6134e-20
1.91375e-20
4.72148e-21
1.1431e-21
2.71558e-22
6.32841e-23
1.44665e-23
3.242e-24
7.12355e-25
1.53268e-25
3.23109e-26
6.65373e-27
1.3413e-27
2.62746e-28
5.03288e-29
9.27334e-30
1.58258e-30
5.10048e-05
0.000359552
0.0020652
0.00811023
0.0248445
0.0641114
0.150365
0.304965
0.458284
0.562933
0.610542
0.634476
0.634884
0.631163
0.621499
0.608671
0.593422
0.578758
0.563275
0.544513
0.523263
0.495884
0.457507
0.403981
0.335635
0.25748
0.175182
0.103341
0.0520591
0.0196522
0.0140673
0.0572069
0.22495
0.394402
0.60419
0.715117
0.789583
0.82686
0.861091
0.888051
0.90122
0.909841
0.911742
0.910198
0.902574
0.888018
0.859337
0.817317
0.758436
0.708206
0.6684
0.632524
0.614501
0.603221
0.598579
0.597354
0.601215
0.618693
0.644441
0.673166
0.706868
0.743905
0.769085
0.779783
0.784188
0.78503
0.783188
0.774677
0.757824
0.736632
0.727311
0.724461
0.725126
0.737571
0.765323
0.793659
0.807658
0.816269
0.83337
0.854774
0.87155
0.887435
0.904702
0.919134
0.932416
0.943129
0.952051
0.962663
0.970481
0.977533
0.984202
0.988983
0.992871
0.99561
0.997431
0.998529
0.999146
0.999484
0.999664
0.999755
0.9998
0.999816
0.999798
0.999705
0.999497
0.999116
0.998396
0.997082
0.994666
0.990005
0.980411
0.960436
0.919912
0.846834
0.733759
0.591347
0.443852
0.31582
0.218964
0.147637
0.0968615
0.0619931
0.0387839
0.0237592
0.0142718
0.00841383
0.00487031
0.00276792
0.00154388
0.000844607
0.000452836
0.000237757
0.000122159
6.13878e-05
3.01609e-05
1.44854e-05
6.8002e-06
3.12067e-06
1.40012e-06
6.14248e-07
2.63541e-07
1.10597e-07
4.54031e-08
1.82348e-08
7.16458e-09
2.75389e-09
1.03551e-09
3.8089e-10
1.37049e-10
4.82346e-11
1.66049e-11
5.59098e-12
1.84118e-12
5.92996e-13
1.86785e-13
5.75402e-14
1.73353e-14
5.10701e-15
1.47127e-15
4.14794e-16
1.14751e-16
3.11644e-17
8.30817e-18
2.17409e-18
5.58384e-19
1.40749e-19
3.48139e-20
8.44949e-21
2.0117e-21
4.69835e-22
1.07583e-22
2.41557e-23
5.31205e-24
1.14479e-24
2.4114e-25
4.97356e-26
9.98533e-27
1.96068e-27
3.719e-28
6.7968e-29
0.000126818
0.00083156
0.00523138
0.0218736
0.0709306
0.1898
0.441151
0.600025
0.662253
0.684406
0.681417
0.672697
0.655283
0.636406
0.606505
0.576867
0.549464
0.534564
0.522694
0.511691
0.500769
0.484786
0.455538
0.407509
0.339983
0.25737
0.170815
0.0942215
0.0362565
0.0268679
0.118948
0.383995
0.571769
0.706758
0.80335
0.847569
0.878634
0.893734
0.904095
0.907802
0.908322
0.904391
0.890565
0.862187
0.808103
0.728967
0.666747
0.609233
0.583012
0.558594
0.541451
0.531969
0.521799
0.513702
0.508986
0.503299
0.50154
0.500982
0.500864
0.50136
0.504402
0.51294
0.529031
0.546974
0.562188
0.568461
0.570315
0.570312
0.567272
0.563227
0.562768
0.566771
0.581106
0.608965
0.647321
0.689522
0.722989
0.737259
0.743824
0.750359
0.758456
0.76722
0.776648
0.786099
0.798978
0.817495
0.834236
0.853204
0.875557
0.900593
0.925049
0.944861
0.961904
0.975478
0.985216
0.991757
0.995672
0.997813
0.998915
0.999459
0.999719
0.999842
0.999904
0.999938
0.999956
0.999965
0.999967
0.999962
0.999935
0.999855
0.999655
0.999165
0.997955
0.994907
0.987106
0.96683
0.913147
0.79552
0.641079
0.479011
0.338862
0.233187
0.156203
0.102071
0.0651848
0.0407324
0.0249204
0.0149293
0.00875497
0.00502289
0.00281728
0.00154376
0.000825935
0.000431267
0.000219728
0.000109232
5.29889e-05
2.50895e-05
1.15982e-05
5.23611e-06
2.30923e-06
9.95132e-07
4.19118e-07
1.72545e-07
6.94416e-08
2.73222e-08
1.05101e-08
3.95275e-09
1.45344e-09
5.2251e-10
1.83648e-10
6.31054e-11
2.11996e-11
6.96259e-12
2.23563e-12
7.01824e-13
2.15416e-13
6.46516e-14
1.89745e-14
5.44588e-15
1.52849e-15
4.20161e-16
1.13305e-16
2.99761e-17
7.77989e-18
1.98079e-18
4.94691e-19
1.21185e-19
2.91135e-20
6.85915e-21
1.58412e-21
3.58656e-22
7.9532e-23
1.72788e-23
3.67076e-24
7.63248e-25
1.54714e-25
3.06431e-26
5.8876e-27
1.09303e-27
0.000256927
0.00161036
0.0115187
0.0512953
0.177717
0.484846
0.648601
0.703807
0.711878
0.70481
0.685955
0.64658
0.585948
0.512411
0.432682
0.354616
0.315977
0.298142
0.306254
0.328347
0.363911
0.408587
0.408759
0.385465
0.324012
0.238542
0.138366
0.0548179
0.0481811
0.157132
0.486436
0.668208
0.762531
0.838806
0.873668
0.890545
0.899016
0.902239
0.903007
0.898096
0.882198
0.846312
0.777371
0.707634
0.640978
0.606636
0.577066
0.563805
0.556334
0.550432
0.547624
0.546675
0.546866
0.547209
0.546395
0.542303
0.537176
0.52932
0.518645
0.508232
0.498072
0.490999
0.487761
0.4864
0.486038
0.487026
0.492338
0.496654
0.498942
0.503534
0.509592
0.519533
0.534891
0.560795
0.597734
0.643428
0.691291
0.718412
0.729199
0.733933
0.736735
0.740009
0.742799
0.744775
0.747961
0.752634
0.755247
0.756905
0.758411
0.764398
0.778721
0.807384
0.849284
0.895807
0.933905
0.961109
0.979404
0.989765
0.995185
0.997808
0.999002
0.999528
0.999763
0.999875
0.999932
0.999962
0.999977
0.999986
0.99999
0.999991
0.999991
0.999986
0.999965
0.999897
0.99969
0.999055
0.997115
0.991181
0.973144
0.918727
0.78066
0.607638
0.443297
0.311037
0.212275
0.141118
0.0915026
0.0578986
0.035749
0.0215302
0.0126409
0.0072314
0.00402896
0.0021857
0.00115451
0.000593863
0.000297567
0.0001453
6.91699e-05
3.21169e-05
1.45509e-05
6.4349e-06
2.77857e-06
1.17174e-06
4.82661e-07
1.94228e-07
7.63618e-08
2.93333e-08
1.10098e-08
4.0378e-09
1.44697e-09
5.0667e-10
1.73359e-10
5.79607e-11
1.89365e-11
6.04594e-12
1.88652e-12
5.75342e-13
1.71517e-13
4.99874e-14
1.4244e-14
3.96875e-15
1.08271e-15
2.89588e-16
7.59402e-17
1.95253e-17
4.92205e-18
1.21653e-18
2.94759e-19
7.00137e-20
1.62979e-20
3.71801e-21
8.3068e-22
1.8177e-22
3.89047e-23
8.14651e-24
1.66475e-24
3.32212e-25
6.44884e-26
1.21165e-26
0.000572996
0.00277709
0.0224336
0.105308
0.393811
0.64732
0.720405
0.729475
0.719736
0.688763
0.621139
0.481485
0.331593
0.194415
0.123322
0.0903954
0.0714247
0.0738823
0.0876229
0.122344
0.159607
0.218028
0.28668
0.325896
0.285164
0.166059
0.0769792
0.0684543
0.180073
0.536548
0.715307
0.795398
0.843552
0.873947
0.886108
0.892181
0.894694
0.890164
0.874001
0.837724
0.774483
0.705382
0.656512
0.615214
0.591469
0.579793
0.573403
0.571196
0.5709
0.573501
0.578521
0.581146
0.5825
0.583654
0.585028
0.586269
0.587341
0.588451
0.58888
0.588741
0.584396
0.57551
0.561603
0.545885
0.533921
0.518031
0.508874
0.503658
0.50192
0.502224
0.507478
0.516055
0.527932
0.549704
0.58264
0.62526
0.672944
0.712149
0.732846
0.743925
0.751637
0.761788
0.767632
0.769878
0.770387
0.769016
0.765224
0.759225
0.751067
0.739773
0.729371
0.723159
0.721693
0.738884
0.784628
0.852724
0.917847
0.957429
0.979749
0.991027
0.996262
0.998491
0.99938
0.999726
0.999865
0.999928
0.999959
0.999977
0.999987
0.999993
0.999996
0.999997
0.999997
0.999997
0.999992
0.999975
0.999913
0.999691
0.998923
0.996307
0.987571
0.95905
0.867917
0.692492
0.51671
0.368193
0.254487
0.170818
0.111425
0.0706389
0.043512
0.0260348
0.0151285
0.00853764
0.00468022
0.00249317
0.00129128
0.000650625
0.000319121
0.000152459
7.09843e-05
3.22247e-05
1.42693e-05
6.16518e-06
2.59969e-06
1.07007e-06
4.30007e-07
1.68717e-07
6.46384e-08
2.41821e-08
8.83458e-09
3.15194e-09
1.09821e-09
3.73699e-10
1.24197e-10
4.03168e-11
1.27845e-11
3.96051e-12
1.1988e-12
3.54595e-13
1.02513e-13
2.89699e-14
8.00509e-15
2.1664e-15
5.74479e-16
1.4928e-16
3.80137e-17
9.48647e-18
2.31992e-18
5.55963e-19
1.30538e-19
3.00276e-20
6.76402e-21
1.4919e-21
3.21916e-22
6.79426e-23
1.40047e-23
2.81874e-24
5.52892e-25
1.05164e-25
0.00131332
0.00426366
0.038261
0.187312
0.564439
0.716849
0.74331
0.734279
0.696528
0.602487
0.435426
0.219622
0.105956
0.0575915
0.0366595
0.0297992
0.0242978
0.0264802
0.0388583
0.0677685
0.115473
0.193785
0.258153
0.249715
0.167079
0.100629
0.0915716
0.191784
0.548947
0.731633
0.805805
0.840655
0.860565
0.873756
0.878663
0.877024
0.862441
0.827055
0.772289
0.713833
0.670999
0.630587
0.608139
0.591494
0.582512
0.577769
0.574276
0.573324
0.573107
0.573422
0.573824
0.571937
0.571039
0.570816
0.572035
0.576686
0.58147
0.58779
0.593925
0.600521
0.606177
0.610722
0.613936
0.615347
0.615639
0.609732
0.602903
0.592619
0.580611
0.573751
0.571129
0.57082
0.574024
0.586406
0.605237
0.629768
0.668367
0.708846
0.741912
0.763497
0.778094
0.79245
0.801253
0.804494
0.804857
0.803414
0.800518
0.797259
0.794613
0.791399
0.778555
0.752095
0.718695
0.701646
0.70339
0.723402
0.776692
0.860532
0.928607
0.966894
0.985744
0.994335
0.997871
0.999222
0.999709
0.999881
0.999944
0.999971
0.999984
0.999991
0.999995
0.999997
0.999998
0.999999
0.999999
0.999999
0.999997
0.999989
0.999956
0.999829
0.999359
0.997664
0.991747
0.971669
0.905328
0.738588
0.555396
0.398179
0.275821
0.184788
0.119792
0.075159
0.0456473
0.0268455
0.0152958
0.00844909
0.00452819
0.00235658
0.00119191
0.000586337
0.000280736
0.000130905
5.94754e-05
2.63404e-05
1.13749e-05
4.79099e-06
1.96851e-06
7.89125e-07
3.08675e-07
1.17825e-07
4.38921e-08
1.59577e-08
5.66256e-09
1.96129e-09
6.63113e-10
2.18873e-10
7.05345e-11
2.21961e-11
6.8215e-12
2.0478e-12
6.00593e-13
1.72122e-13
4.821e-14
1.32092e-14
3.54419e-15
9.31357e-16
2.39723e-16
6.04414e-17
1.49277e-17
3.61159e-18
8.55857e-19
1.98644e-19
4.51436e-20
1.00435e-20
2.18621e-21
4.65448e-22
9.68329e-23
1.96755e-23
3.90114e-24
7.51463e-25
0.00272484
0.00568689
0.0564687
0.281354
0.641727
0.744172
0.751085
0.725578
0.649423
0.51149
0.303193
0.120329
0.0533305
0.0333706
0.0250569
0.0235914
0.026238
0.0339157
0.0514486
0.0842162
0.129861
0.169005
0.180112
0.135738
0.116984
0.117077
0.210023
0.54838
0.730454
0.800275
0.829373
0.843487
0.852212
0.854208
0.837986
0.806034
0.763653
0.717776
0.680363
0.648976
0.624905
0.6041
0.594418
0.586301
0.577547
0.573385
0.56816
0.561972
0.552734
0.540882
0.526025
0.514023
0.505616
0.501705
0.500643
0.505964
0.514695
0.528151
0.542758
0.562159
0.57648
0.592976
0.609253
0.618072
0.625093
0.627806
0.628578
0.628221
0.624175
0.617491
0.611312
0.609283
0.609265
0.614181
0.62768
0.648763
0.677158
0.708088
0.737878
0.761671
0.778599
0.79209
0.799006
0.799963
0.794758
0.783398
0.775129
0.772027
0.779293
0.794672
0.808247
0.816352
0.812301
0.774808
0.726486
0.712617
0.727461
0.77399
0.841575
0.908939
0.956238
0.981648
0.99279
0.997359
0.999081
0.999686
0.999889
0.999956
0.99998
0.99999
0.999994
0.999997
0.999998
0.999999
0.999999
1
1
0.999999
0.999998
0.999991
0.999964
0.999854
0.999437
0.99791
0.992508
0.973947
0.911721
0.745101
0.555826
0.395745
0.271181
0.179014
0.113941
0.0699859
0.0415223
0.0238202
0.0132278
0.00711855
0.00371646
0.00188421
0.000928478
0.000445018
0.000207594
9.42984e-05
4.17272e-05
1.79928e-05
7.56222e-06
3.09856e-06
1.23793e-06
4.82289e-07
1.83248e-07
6.79093e-08
2.45477e-08
8.6561e-09
2.97786e-09
9.99559e-10
3.27409e-10
1.04669e-10
3.26642e-11
9.95251e-12
2.96137e-12
8.60687e-13
2.4439e-13
6.78291e-14
1.84232e-14
4.89814e-15
1.2749e-15
3.24906e-16
8.10787e-17
1.98128e-17
4.74095e-18
1.11083e-18
2.54808e-19
5.72124e-20
1.25695e-20
2.7011e-21
5.6744e-22
1.16472e-22
2.33505e-23
4.55584e-24
0.00498045
0.00701193
0.0686177
0.325397
0.67311
0.755204
0.754564
0.717744
0.631287
0.480363
0.257862
0.0950499
0.0460334
0.0333682
0.0315037
0.0324786
0.0411942
0.055244
0.0725159
0.0956774
0.114708
0.121008
0.125851
0.125568
0.143304
0.241183
0.555842
0.726046
0.791062
0.81558
0.826234
0.830374
0.816168
0.771832
0.735655
0.711662
0.68317
0.655683
0.633682
0.615963
0.604122
0.593803
0.585477
0.576703
0.56566
0.556295
0.538357
0.516537
0.493603
0.468819
0.449453
0.431888
0.418485
0.411765
0.40911
0.409678
0.420534
0.432028
0.445344
0.465761
0.489518
0.511222
0.5406
0.571863
0.59869
0.617891
0.626874
0.630514
0.631213
0.628229
0.621622
0.616233
0.61443
0.614962
0.621572
0.637922
0.661636
0.687861
0.713831
0.736291
0.753932
0.762344
0.762714
0.75238
0.729044
0.714172
0.701755
0.686077
0.676786
0.686746
0.725483
0.783646
0.825219
0.842301
0.842377
0.808883
0.774615
0.77489
0.817095
0.874038
0.92272
0.958667
0.98118
0.992474
0.997275
0.999061
0.999691
0.9999
0.999966
0.999987
0.999994
0.999997
0.999998
0.999999
1
1
1
1
1
0.999999
0.999998
0.99999
0.999956
0.999824
0.999324
0.997493
0.991005
0.968581
0.892511
0.705943
0.515288
0.359573
0.240667
0.154795
0.0958305
0.0571921
0.032955
0.0183612
0.00990543
0.0051805
0.00262943
0.00129639
0.000621326
0.000289651
0.000131407
5.80384e-05
2.49636e-05
1.04592e-05
4.2695e-06
1.6983e-06
6.58363e-07
2.48761e-07
9.16248e-08
3.29006e-08
1.15189e-08
3.93269e-09
1.30952e-09
4.25358e-10
1.34805e-10
4.1693e-11
1.25872e-11
3.71028e-12
1.06808e-12
3.00383e-13
8.26121e-14
2.22283e-14
5.8525e-15
1.50808e-15
3.8037e-16
9.39145e-17
2.26997e-17
5.37112e-18
1.24405e-18
2.82017e-19
6.25585e-20
1.3575e-20
2.88071e-21
5.97546e-22
1.21155e-22
2.39425e-23
0.00810432
0.00775204
0.0723435
0.337289
0.68082
0.760978
0.763897
0.723802
0.63619
0.49712
0.290568
0.126782
0.0682306
0.0485159
0.0434439
0.0433503
0.0518696
0.0656511
0.078337
0.0945943
0.107083
0.119297
0.136447
0.176538
0.294648
0.57705
0.723106
0.781948
0.803012
0.809826
0.807495
0.782515
0.719267
0.683592
0.66571
0.653266
0.638938
0.624732
0.614258
0.605727
0.597532
0.587169
0.576083
0.562046
0.54247
0.518664
0.489884
0.459824
0.42433
0.39491
0.367363
0.34361
0.331421
0.325538
0.324238
0.334402
0.347256
0.371408
0.390805
0.418561
0.43966
0.460082
0.480328
0.501317
0.525736
0.555086
0.589882
0.614226
0.625465
0.628332
0.623683
0.616498
0.610888
0.609105
0.610301
0.61516
0.625865
0.642228
0.658976
0.670846
0.678649
0.681389
0.682832
0.692266
0.700539
0.700362
0.693384
0.676309
0.656594
0.642269
0.638452
0.652896
0.717859
0.809628
0.861653
0.885795
0.895027
0.883477
0.86807
0.877015
0.916068
0.949652
0.972598
0.986513
0.994067
0.997689
0.999184
0.999733
0.999916
0.999974
0.999992
0.999997
0.999999
0.999999
1
1
1
1
1
1
1
0.999999
0.999996
0.999983
0.999929
0.99972
0.998932
0.996056
0.98582
0.950079
0.828562
0.619757
0.438032
0.295962
0.191647
0.119208
0.0713806
0.0412254
0.0230047
0.0124221
0.00649934
0.00329843
0.00162517
0.00077796
0.000362025
0.00016385
7.21522e-05
3.09228e-05
1.29016e-05
5.24119e-06
2.07355e-06
7.99026e-07
2.99937e-07
1.09694e-07
3.90914e-08
1.35768e-08
4.59635e-09
1.5171e-09
4.88317e-10
1.53314e-10
4.69649e-11
1.40408e-11
4.09786e-12
1.16793e-12
3.25307e-13
8.8601e-14
2.36023e-14
6.15079e-15
1.56836e-15
3.91347e-16
9.557e-17
2.28426e-17
5.34363e-18
1.22338e-18
2.74078e-19
6.00738e-20
1.28805e-20
2.70072e-21
5.53852e-22
1.10849e-22
0.0118543
0.00580191
0.050112
0.269987
0.654972
0.76339
0.772877
0.75053
0.688339
0.592027
0.432935
0.225401
0.125811
0.0851033
0.0702854
0.0666233
0.0685662
0.0808033
0.0913922
0.105935
0.126835
0.1602
0.232632
0.398694
0.616796
0.725618
0.775035
0.793041
0.798083
0.791355
0.754894
0.686785
0.652959
0.635512
0.626608
0.620789
0.614468
0.607225
0.600499
0.593101
0.583447
0.569268
0.549998
0.522603
0.489742
0.457112
0.418614
0.376878
0.337695
0.301003
0.268335
0.245018
0.233196
0.227984
0.227448
0.244152
0.26235
0.29873
0.342937
0.383412
0.416249
0.442415
0.462922
0.482085
0.503377
0.522775
0.542157
0.569148
0.598781
0.617766
0.62403
0.615976
0.603728
0.593938
0.588748
0.588348
0.58853
0.591814
0.597671
0.603397
0.610258
0.620121
0.643551
0.67752
0.70144
0.717691
0.727293
0.727872
0.714401
0.683905
0.648241
0.629798
0.63476
0.6727
0.781445
0.876211
0.918675
0.942647
0.953031
0.950265
0.943783
0.951369
0.97137
0.984881
0.992643
0.99665
0.998583
0.999449
0.999806
0.999937
0.999981
0.999994
0.999998
0.999999
1
1
1
1
1
1
1
1
1
0.999998
0.999991
0.999964
0.999853
0.999426
0.997821
0.991934
0.970771
0.895878
0.698393
0.497325
0.337783
0.219425
0.136739
0.0819562
0.0473494
0.0264185
0.0142576
0.00745228
0.00377656
0.00185711
0.000886778
0.000411407
0.000185526
8.13533e-05
3.46989e-05
1.4399e-05
5.81462e-06
2.28538e-06
8.74414e-07
3.25741e-07
1.18168e-07
4.17521e-08
1.43715e-08
4.82029e-09
1.5758e-09
5.02234e-10
1.56105e-10
4.73332e-11
1.40051e-11
4.04505e-12
1.14116e-12
3.1464e-13
8.48111e-14
2.23549e-14
5.76336e-15
1.45359e-15
3.58706e-16
8.66188e-17
2.04688e-17
4.73348e-18
1.0712e-18
2.37201e-19
5.13943e-20
1.08939e-20
2.25969e-21
4.5796e-22
0.0164446
0.00473685
0.0279182
0.182275
0.580799
0.756053
0.780638
0.776567
0.740768
0.687415
0.610225
0.463432
0.284782
0.196498
0.154163
0.135682
0.13001
0.133887
0.153987
0.181842
0.241097
0.350964
0.504541
0.655421
0.736148
0.772373
0.7863
0.789847
0.780081
0.74231
0.678394
0.637065
0.619777
0.611457
0.607312
0.604983
0.602986
0.600433
0.595543
0.587138
0.574669
0.555028
0.524377
0.48732
0.445794
0.403452
0.361695
0.315029
0.267301
0.229066
0.195074
0.173759
0.159792
0.152808
0.150632
0.158774
0.172327
0.196965
0.237081
0.302526
0.375461
0.425442
0.453923
0.473786
0.496485
0.520262
0.540092
0.558944
0.582847
0.610859
0.627231
0.629282
0.61647
0.597534
0.583417
0.578269
0.578134
0.581161
0.587626
0.595738
0.605714
0.618993
0.648004
0.697419
0.753095
0.801117
0.836642
0.85886
0.866114
0.856249
0.799778
0.694815
0.644998
0.644782
0.681808
0.784181
0.887162
0.941683
0.967362
0.979975
0.983493
0.982516
0.981548
0.985955
0.992674
0.996478
0.998415
0.999325
0.999726
0.999896
0.999963
0.999988
0.999996
0.999999
1
1
1
1
1
1
1
1
1
1
0.999999
0.999995
0.999977
0.999905
0.999619
0.998511
0.994329
0.978868
0.9228
0.747306
0.533129
0.362398
0.235386
0.146567
0.0877382
0.050612
0.0281875
0.0151798
0.00791441
0.00399895
0.00195974
0.0009321
0.000430497
0.000193159
8.42269e-05
3.57035e-05
1.47165e-05
5.89966e-06
2.30073e-06
8.72986e-07
3.22358e-07
1.15865e-07
4.05466e-08
1.38184e-08
4.58758e-09
1.48411e-09
4.68004e-10
1.43905e-10
4.31614e-11
1.26317e-11
3.60917e-12
1.00736e-12
2.74754e-13
7.32507e-14
1.90946e-14
4.8679e-15
1.21394e-15
2.96174e-16
7.07048e-17
1.65171e-17
3.77602e-18
8.44781e-19
1.84973e-19
3.9637e-20
8.31547e-21
1.70612e-21
0.0211522
0.00447316
0.0128712
0.0879212
0.403327
0.7198
0.784162
0.789273
0.77344
0.740775
0.708285
0.655925
0.569376
0.474944
0.403893
0.361891
0.343895
0.340668
0.381569
0.42835
0.518503
0.601877
0.694918
0.751021
0.777305
0.787574
0.789939
0.781865
0.749917
0.693684
0.635264
0.611192
0.601837
0.597971
0.596276
0.595399
0.594225
0.591217
0.585213
0.574154
0.555548
0.526892
0.489753
0.449219
0.405824
0.360896
0.310833
0.258048
0.211965
0.177835
0.150659
0.136628
0.127593
0.123372
0.122092
0.128208
0.139615
0.15813
0.182208
0.221547
0.296131
0.386268
0.443397
0.469623
0.486585
0.517411
0.559835
0.588603
0.596739
0.612711
0.633569
0.656244
0.663576
0.652634
0.623384
0.600129
0.594413
0.598862
0.621531
0.650204
0.675661
0.696459
0.726613
0.764785
0.807531
0.850498
0.888507
0.920208
0.943582
0.953312
0.947449
0.894761
0.756187
0.692366
0.690162
0.740845
0.843836
0.919029
0.961795
0.982224
0.991226
0.994629
0.995581
0.995748
0.996105
0.997495
0.998652
0.999351
0.999716
0.999884
0.999955
0.999984
0.999994
0.999998
0.999999
1
1
1
1
1
1
1
1
1
1
0.999999
0.999996
0.999983
0.999926
0.999695
0.998774
0.995201
0.981665
0.931569
0.765318
0.545317
0.369678
0.239385
0.14858
0.0886501
0.0509641
0.0282819
0.015172
0.00787706
0.00396168
0.00193161
0.000913599
0.000419385
0.000186929
8.09289e-05
3.40425e-05
1.39169e-05
5.5306e-06
2.13701e-06
8.03055e-07
2.9356e-07
1.04418e-07
3.61497e-08
1.2185e-08
4.0002e-09
1.27947e-09
3.98867e-10
1.21239e-10
3.59447e-11
1.03997e-11
2.93792e-12
8.10694e-13
2.18586e-13
5.76072e-14
1.48437e-14
3.7405e-15
9.22008e-16
2.22352e-16
5.24698e-17
1.21174e-17
2.73884e-18
6.05997e-19
1.31263e-19
2.78469e-20
5.78255e-21
0.0236244
0.0068402
0.00708901
0.0320644
0.173708
0.597537
0.76942
0.794986
0.794907
0.775518
0.759843
0.744835
0.71443
0.675294
0.640773
0.618107
0.606048
0.602816
0.626095
0.653044
0.698627
0.735836
0.774002
0.790229
0.796882
0.798539
0.795146
0.782009
0.74831
0.690514
0.629706
0.605063
0.595553
0.591539
0.589843
0.589074
0.588023
0.584678
0.577248
0.562883
0.53818
0.502644
0.461404
0.4186
0.373185
0.328391
0.283077
0.236696
0.195074
0.165646
0.142002
0.128898
0.120204
0.114837
0.114826
0.119141
0.129499
0.147773
0.168858
0.197625
0.260883
0.35326
0.427907
0.467866
0.483049
0.503195
0.556865
0.620394
0.649377
0.652551
0.654747
0.666221
0.678931
0.684347
0.681852
0.669217
0.662295
0.665595
0.683667
0.715223
0.738079
0.749065
0.756842
0.774069
0.802986
0.838239
0.878629
0.917567
0.948486
0.96779
0.975322
0.970756
0.928226
0.834834
0.794807
0.792698
0.839705
0.913885
0.958124
0.981197
0.992172
0.996692
0.998399
0.999037
0.999297
0.999448
0.999577
0.999702
0.999821
0.999908
0.999959
0.999983
0.999994
0.999998
0.999999
1
1
1
1
1
1
1
1
1
1
1
0.999999
0.999997
0.999984
0.999932
0.999712
0.998813
0.995243
0.981455
0.929691
0.758257
0.537149
0.36212
0.23321
0.143975
0.0854513
0.048865
0.0269692
0.0143849
0.00742305
0.00370915
0.00179597
0.000843171
0.000384011
0.000169733
7.28336e-05
3.03511e-05
1.2286e-05
4.83233e-06
1.84723e-06
6.86476e-07
2.48083e-07
8.72121e-08
2.98341e-08
9.93497e-09
3.22186e-09
1.0179e-09
3.13433e-10
9.41026e-11
2.756e-11
7.87782e-12
2.19869e-12
5.99402e-13
1.59672e-13
4.15755e-14
1.05847e-14
2.6355e-15
6.41959e-16
1.53001e-16
3.56881e-17
8.14819e-18
1.82149e-18
3.98736e-19
8.55175e-20
1.79662e-20
0.0248211
0.0106505
0.0066096
0.0106243
0.0520665
0.2619
0.6759
0.790322
0.803534
0.798031
0.784943
0.781475
0.779201
0.774723
0.764074
0.75628
0.753674
0.757874
0.764764
0.774686
0.794399
0.804981
0.816289
0.819323
0.819839
0.817268
0.808263
0.788905
0.756506
0.703064
0.639533
0.608013
0.596126
0.590995
0.588372
0.58688
0.58571
0.583412
0.577264
0.563732
0.539529
0.503994
0.462623
0.42005
0.374841
0.330241
0.286731
0.24306
0.202185
0.172912
0.149152
0.135238
0.125745
0.121126
0.121956
0.125426
0.132552
0.149615
0.170264
0.195811
0.252642
0.345734
0.423768
0.470277
0.487535
0.501667
0.542839
0.618181
0.659494
0.67129
0.671671
0.670098
0.67266
0.679398
0.682414
0.683699
0.68543
0.688572
0.696177
0.718796
0.740385
0.749777
0.74876
0.732975
0.721775
0.733434
0.781276
0.850233
0.913094
0.956195
0.97693
0.983009
0.980767
0.962441
0.944596
0.935153
0.929607
0.939602
0.966681
0.983777
0.993061
0.997365
0.999037
0.999612
0.999813
0.999887
0.999921
0.999942
0.999959
0.999973
0.999983
0.999991
0.999996
0.999998
0.999999
1
1
1
1
1
1
1
1
1
1
1
1
0.999999
0.999997
0.999985
0.999931
0.999697
0.998718
0.994752
0.979217
0.920315
0.734238
0.515663
0.344985
0.220537
0.135181
0.0796668
0.0452326
0.024781
0.0131165
0.00671413
0.00332656
0.00159639
0.000742468
0.000334829
0.000146471
6.21758e-05
2.56192e-05
1.02498e-05
3.98286e-06
1.50364e-06
5.51701e-07
1.96801e-07
6.82783e-08
2.30486e-08
7.5735e-09
2.42343e-09
7.55504e-10
2.2957e-10
6.80267e-11
1.96669e-11
5.54977e-12
1.52926e-12
4.11651e-13
1.08287e-13
2.78467e-14
7.00258e-15
1.72251e-15
4.14566e-16
9.76521e-17
2.25175e-17
5.08464e-18
1.1246e-18
2.43764e-19
5.17915e-20
0.0249081
0.0147802
0.0116252
0.00719507
0.00925512
0.0543734
0.280114
0.696514
0.802905
0.813169
0.809125
0.795592
0.792415
0.79397
0.801235
0.808058
0.810731
0.816034
0.824158
0.82941
0.836318
0.839271
0.841552
0.841706
0.840833
0.837823
0.830426
0.813718
0.785592
0.745394
0.686026
0.628183
0.604089
0.594064
0.589473
0.587142
0.585707
0.58375
0.579185
0.569127
0.548454
0.514874
0.474146
0.43238
0.388398
0.344049
0.301962
0.263332
0.225129
0.195388
0.17086
0.156128
0.144365
0.140612
0.142084
0.146837
0.156475