/*--------------------------------*- C++ -*----------------------------------*\
  =========                 |
  \\      /  F ield         | OpenFOAM: The Open Source CFD Toolbox
   \\    /   O peration     | Website:  https://openfoam.org
    \\  /    A nd           | Version:  7
     \\/     M anipulation  |
\*---------------------------------------------------------------------------*/
FoamFile
{
    version     2.0;
    format      ascii;
    class       volScalarField;
    location    "0.085";
    object      nut;
}
// * * * * * * * * * * * * * * * * * * * * * * * * * * * * * * * * * * * * * //

dimensions      [0 2 -1 0 0 0 0];

internalField   nonuniform List<scalar> 
12225
(
0
0
0
0
0
0
0
0
0
0
0
0
0
0
0
8.82994e-11
0
0
0
0
0
0
0
0
0
0
0
0
0
0
0
0
0
2.32045e-10
0
0
0
0
0
0
0
0
0
0
0
0
0
0
0
0
0
5.01562e-10
0
0
6.11832e-08
5.96169e-09
1.21221e-09
1.30891e-10
2.28877e-10
5.54399e-10
0
0
0
0
0
0
0
1.05182e-10
5.81218e-11
7.24696e-10
0
0
0
2.08054e-07
1.83363e-07
4.4463e-08
0
0
0
0
0
0
6.85673e-12
7.48381e-10
7.47277e-10
8.8754e-10
2.99647e-10
0
0
0
1.0003e-07
1.87123e-07
1.58937e-07
1.08191e-07
4.65818e-08
1.1505e-08
5.22965e-09
9.77876e-09
1.92835e-08
2.24683e-08
1.78327e-08
1.09786e-08
4.40241e-09
3.59262e-10
0
0
0
0
3.90928e-07
2.80595e-07
2.02974e-07
1.29701e-07
6.64413e-08
4.27026e-08
9.02914e-09
0
0
3.39852e-09
1.3078e-08
1.38677e-08
1.84057e-08
1.99144e-08
1.64149e-08
8.40141e-09
4.69215e-09
0
2.9283e-07
5.21482e-07
3.68419e-07
1.5573e-07
5.5438e-08
3.58043e-08
8.24647e-09
0
0
6.63595e-09
4.57719e-08
5.55684e-08
1.1083e-07
1.413e-07
1.00997e-07
3.35082e-08
0
0
1.62873e-07
4.56207e-07
7.73143e-07
2.49823e-07
5.43279e-08
1.96818e-08
6.16951e-09
0
1.44308e-09
6.481e-08
8.97672e-08
8.62032e-08
2.01495e-07
2.07473e-07
1.19943e-07
3.95586e-08
0
0
1.96147e-07
4.35885e-07
6.23199e-07
5.64363e-07
9.28316e-08
1.8378e-09
0
0
3.84017e-09
0
0
0
0
0
3.97778e-09
2.40086e-08
1.81853e-08
3.35475e-09
8.98928e-08
4.81039e-07
6.70741e-07
6.99286e-07
3.6807e-07
0
0
0
0
0
0
0
0
0
4.13423e-08
9.84016e-08
9.90219e-08
5.94259e-08
0
0
2.04452e-07
3.99952e-07
3.07196e-07
0
0
0
0
0
0
0
2.23444e-08
9.09066e-08
1.86146e-07
2.9625e-07
3.39576e-07
2.38486e-07
0
0
3.7016e-07
1.05553e-06
4.06982e-07
2.40498e-07
0
0
0
0
3.95503e-08
1.87256e-07
3.63075e-07
5.05928e-07
5.73774e-07
5.9057e-07
4.61113e-07
1.77087e-07
0
0
1.48817e-06
1.02941e-06
4.6273e-07
2.86918e-07
0
0
0
0
1.64941e-07
6.54284e-07
8.06118e-07
7.76046e-07
6.247e-07
3.05219e-07
3.6063e-08
0
6.92654e-08
5.91882e-07
3.42811e-07
3.32023e-07
4.11599e-07
1.02009e-07
0
0
0
0
0
1.75434e-08
3.2889e-07
3.16746e-07
1.6203e-07
0
0
0
1.89798e-06
2.14358e-06
0
0
0
5.12635e-08
0
0
0
0
0
0
0
0
0
0
0
0
1.56016e-06
1.77576e-06
1.42246e-06
0
8.67834e-07
1.83638e-06
1.71648e-06
1.22329e-06
2.51696e-07
0
0
0
0
0
2.3153e-08
1.22024e-07
1.32352e-07
9.24104e-08
0
0
0
0
0
0
0
9.257e-08
2.28113e-07
4.0206e-07
6.05586e-07
4.63985e-07
0
0
0
0
0
0
1.86355e-07
6.73987e-07
0
0
0
0
0
0
0
2.97502e-07
2.6702e-07
1.36827e-07
0
0
0
0
0
0
0
6.15064e-08
1.01872e-07
0
0
0
0
0
0
0
0
7.80946e-08
2.00426e-07
2.71498e-07
2.39558e-07
5.20587e-08
0
0
0
0
2.46519e-08
0
0
0
0
0
0
0
0
2.65034e-07
7.25011e-07
9.95083e-07
1.03206e-06
8.33083e-07
4.09061e-07
0
0
0
7.32299e-08
0
0
0
0
0
0
0
3.43785e-09
4.20531e-07
7.92815e-07
1.01424e-06
1.08402e-06
1.02998e-06
8.61226e-07
6.13293e-07
0
0
0
0
0
0
0
0
0
0
0
0
3.14696e-07
6.28515e-07
8.61604e-07
9.7043e-07
9.23162e-07
7.29568e-07
0
0
0
1.69812e-08
7.04214e-08
5.40042e-08
7.15034e-08
4.30701e-08
0
0
0
0
0
0
0
3.38049e-08
9.55712e-08
1.32465e-07
0
0
0
0
2.63586e-07
2.65227e-07
2.06133e-07
1.27334e-07
0
0
0
0
0
0
0
0
0
0
9.49772e-08
0
0
0
2.56269e-07
2.77083e-07
2.49411e-07
2.16186e-07
1.50784e-07
1.03842e-08
0
0
0
0
0
0
0
0
3.66436e-08
0
0
0
0
0
0
0
0
0
0
0
0
0
0
0
0
0
8.40731e-09
0
0
0
0
0
0
0
0
0
0
0
0
0
0
0
0
0
8.42229e-09
0
0
0
0
0
0
0
0
0
0
0
0
0
0
0
0
0
6.22083e-08
0
0
0
0
0
0
0
0
0
0
0
0
0
0
0
0
0
0
3.88132e-06
6.44247e-06
0
0
0
0
0
0
0
1.0088e-07
2.80143e-07
2.50321e-07
1.62624e-07
1.04443e-07
9.80459e-08
1.3567e-07
2.02541e-07
2.8848e-07
3.8608e-07
4.83703e-07
5.64178e-07
6.06745e-07
5.78155e-07
4.37205e-07
1.59514e-07
0
0
0
0
0
0
0
0
0
0
0
0
0
0
0
2.48761e-07
0
0
0
0
0
0
0
0
2.1445e-07
3.63432e-06
7.98642e-06
1.27675e-05
1.34891e-05
9.15855e-06
2.6869e-06
0
0
0
0
0
0
5.39076e-07
4.68572e-07
0
0
0
1.27104e-05
3.2105e-05
5.45091e-05
6.60858e-05
4.7205e-05
1.7652e-05
3.57292e-06
6.1278e-07
8.87822e-08
1.56337e-08
3.46593e-08
5.52693e-08
5.94007e-08
5.01276e-08
3.6788e-08
2.44525e-08
1.38215e-08
5.23494e-09
0
0
0
0
0
0
0
0
0
0
0
0
0
0
0
0
0
0
0
0
0
0
0
0
0
0
0
0
0
0
0
0
0
0
0
0
0
0
0
0
0
0
0
0
0
0
0
0
0
0
0
0
0
0
0
0
0
0
0
0
0
0
0
0
0
0
0
0
0
0
0
0
0
0
0
0
0
0
0
0
0
3.17711e-13
0
9.0426e-13
0
7.29037e-13
0
2.57121e-12
0
1.60684e-11
1.26986e-11
9.24721e-11
1.72372e-09
0
1.42535e-06
2.30411e-06
2.23399e-07
0
0
0
0
0
0
0
3.66088e-07
7.91891e-07
1.06922e-06
1.17708e-06
1.22866e-06
1.41723e-06
1.76588e-06
2.11867e-06
2.28697e-06
2.16575e-06
1.80647e-06
1.35212e-06
9.18269e-07
5.37634e-07
2.06561e-07
0
0
0
0
0
0
0
0
0
0
0
0
0
0
0
0
0
0
0
0
0
0
0
0
0
0
1.04229e-06
1.48741e-06
1.73104e-06
1.99449e-06
1.98769e-06
1.14983e-06
0
0
0
0
0
2.52705e-07
1.88875e-06
1.82905e-06
5.22364e-07
3.00074e-07
4.97497e-06
4.52788e-06
6.07602e-06
7.52429e-06
7.01637e-06
5.34599e-06
3.1871e-06
1.42423e-06
5.58866e-07
1.86633e-07
7.66356e-08
6.72035e-08
7.33034e-08
7.34173e-08
6.66213e-08
5.52817e-08
4.26485e-08
2.76191e-08
1.16209e-08
0
0
0
0
0
0
0
0
0
0
0
0
0
0
0
0
0
0
0
0
0
0
0
0
0
0
0
0
0
0
0
0
0
0
0
0
0
0
0
0
0
0
0
0
0
0
0
0
0
0
0
0
0
0
0
0
0
0
0
0
0
0
0
0
0
0
0
0
0
0
0
0
0
0
0
0
0
0
0
1.07075e-11
2.00183e-11
2.93963e-11
2.22453e-11
2.83875e-11
1.08668e-11
2.41223e-11
0
2.82762e-11
0
4.83063e-11
4.64476e-11
6.07601e-11
7.75154e-10
0
2.1645e-06
2.73737e-06
2.52068e-06
1.74508e-06
7.04491e-07
0
0
0
0
0
1.5172e-06
2.51326e-06
1.97607e-06
9.37394e-07
3.85231e-07
3.13474e-07
4.09579e-07
4.66493e-07
4.27904e-07
3.18513e-07
1.82477e-07
4.73696e-08
0
0
0
0
0
0
0
0
0
0
0
0
0
0
0
0
0
0
0
0
0
0
0
0
0
0
0
0
0
0
0
0
4.65281e-08
2.79674e-07
2.19998e-07
0
0
0
0
4.10093e-08
1.60025e-06
3.69563e-06
4.45059e-06
3.84144e-06
1.08805e-06
0
0
2.1705e-07
6.89562e-07
8.0025e-07
7.79215e-07
7.27703e-07
5.74685e-07
4.09817e-07
3.09195e-07
2.8702e-07
3.02726e-07
3.13239e-07
3.01532e-07
2.73745e-07
2.30563e-07
1.77738e-07
1.17031e-07
5.1029e-08
0
0
0
0
0
0
0
0
0
0
0
0
0
0
0
0
0
0
0
0
0
0
0
0
0
0
0
0
0
0
0
0
0
0
0
0
0
0
0
0
0
0
0
0
0
0
0
4.54807e-09
7.41083e-09
8.25391e-09
7.77218e-09
6.57139e-09
4.96794e-09
3.55361e-09
2.29559e-09
7.85022e-10
0
0
0
0
0
0
0
0
0
0
0
0
0
0
0
0
0
0
0
0
1.78971e-11
7.62134e-11
1.09797e-10
1.35173e-10
1.3561e-10
1.42977e-10
1.1756e-10
1.24136e-10
7.90023e-11
9.61579e-11
2.65988e-11
7.30686e-11
7.66243e-12
5.0274e-11
1.39038e-10
0
7.10686e-10
0
6.71509e-08
9.08031e-07
1.69499e-06
1.83086e-06
1.34078e-06
0
0
0
3.14407e-07
5.07136e-07
8.26165e-07
1.1358e-06
1.04785e-06
6.46156e-07
2.73555e-07
5.90615e-08
0
0
0
0
0
0
0
0
0
0
0
0
0
0
3.31637e-08
1.14798e-07
1.84523e-07
2.40284e-07
2.7108e-07
3.03392e-07
3.0048e-07
2.58031e-07
2.93412e-07
2.88131e-07
2.968e-07
3.84348e-07
2.53445e-07
0
0
0
0
0
0
0
0
0
0
0
0
1.93473e-08
2.41211e-07
0
0
0
5.55434e-08
2.09569e-07
2.98578e-06
3.85609e-06
2.56911e-06
1.41793e-06
6.2946e-07
1.2732e-07
0
0
6.59192e-08
1.22925e-07
1.57891e-07
2.63952e-07
3.58533e-07
4.07297e-07
4.00337e-07
3.32505e-07
2.7963e-07
2.97202e-07
4.21615e-07
7.07608e-07
1.08643e-06
9.87919e-07
4.4593e-07
8.08503e-08
0
0
0
0
0
0
0
0
0
0
0
0
0
0
0
0
0
0
0
0
0
0
0
0
0
0
0
0
0
0
0
0
0
0
0
0
0
0
0
0
0
0
0
0
0
0
0
0
0
0
0
1.29773e-08
2.43833e-08
2.92848e-08
3.14525e-08
2.92715e-08
2.08638e-08
9.38485e-09
0
0
0
0
0
0
0
0
0
0
2.25073e-11
8.70823e-10
1.42641e-09
1.72086e-09
1.79774e-09
1.71454e-09
1.525e-09
1.29043e-09
1.05208e-09
8.54361e-10
6.93918e-10
5.87624e-10
4.92397e-10
4.36195e-10
3.54115e-10
3.13198e-10
2.21402e-10
1.67311e-10
6.86758e-11
0
0
0
1.77549e-10
0
1.05971e-09
0
0
1.43699e-07
6.85897e-07
2.19663e-07
0
0
1.16094e-06
2.09954e-06
1.97632e-06
1.4176e-06
1.0294e-06
7.52368e-07
4.8117e-07
3.14529e-07
2.19869e-07
9.87775e-08
0
0
0
0
0
0
0
0
0
0
0
0
0
8.23696e-08
1.79918e-07
2.74628e-07
3.64519e-07
4.45289e-07
5.09049e-07
5.6232e-07
5.91507e-07
6.08533e-07
6.56182e-07
6.5736e-07
6.54054e-07
7.45235e-07
7.63322e-07
6.72847e-07
6.41867e-07
5.70162e-07
2.90589e-07
0
0
0
0
0
0
0
0
0
9.74953e-07
2.1537e-06
3.2545e-06
4.3985e-06
3.32288e-06
0
0
0
3.31706e-07
4.81475e-07
4.62607e-07
1.95094e-07
0
0
0
0
6.77198e-08
2.77874e-07
3.26425e-07
1.8845e-07
7.69624e-08
3.38736e-08
4.68851e-08
1.45813e-07
4.36554e-07
1.02876e-06
1.33815e-06
7.93042e-07
2.12185e-07
0
0
0
0
0
0
0
0
0
0
0
0
0
0
0
0
0
0
0
0
0
0
0
0
0
0
0
0
0
0
0
0
0
0
0
0
0
0
0
0
0
0
0
0
0
0
0
0
0
0
0
0
0
0
0
0
0
0
5.23684e-09
2.53586e-08
4.23609e-08
4.57944e-08
3.55478e-08
2.00413e-08
6.02225e-09
0
0
0
0
0
0
0
0
0
0
0
0
0
0
0
4.2673e-10
6.51716e-10
6.35835e-10
6.18825e-10
4.28671e-10
4.48232e-10
5.37114e-11
2.79513e-10
0
2.26377e-10
0
6.13466e-10
0
1.80308e-09
0
0
0
0
1.93825e-06
2.53675e-06
1.89529e-06
1.62238e-06
1.56146e-06
1.48919e-06
1.52154e-06
1.27897e-06
7.67347e-07
3.16911e-07
5.90059e-08
0
0
0
0
0
0
0
0
0
0
0
0
0
0
1.13204e-07
2.41305e-07
3.75808e-07
5.09164e-07
6.34683e-07
7.50308e-07
8.51336e-07
9.35747e-07
9.99365e-07
1.04927e-06
1.09167e-06
1.1032e-06
1.098e-06
1.11048e-06
1.0849e-06
9.94034e-07
9.27425e-07
8.85468e-07
7.80072e-07
6.51823e-07
5.33342e-07
3.28376e-07
0
0
0
0
0
0
4.2399e-06
4.51769e-06
2.38468e-06
9.88184e-07
0
0
0
0
2.13067e-07
6.9095e-07
8.06452e-07
3.60252e-07
0
0
0
0
1.89466e-07
1.83554e-07
9.63074e-08
5.1726e-08
4.56761e-08
7.6522e-08
1.91393e-07
5.29421e-07
1.37508e-06
2.57936e-06
2.20197e-06
1.08783e-06
2.85178e-07
0
0
0
0
0
0
0
0
0
0
0
0
0
0
0
0
0
0
0
0
0
0
0
0
0
0
0
0
0
0
0
0
0
0
0
0
0
0
0
0
0
0
0
0
0
0
0
0
0
0
0
0
0
0
0
0
0
0
0
0
5.1398e-09
2.81552e-08
3.75139e-08
2.82814e-08
1.53637e-08
6.04175e-09
0
0
0
0
0
0
0
0
0
0
0
0
0
0
0
0
0
0
0
0
0
1.46569e-09
0
0
0
0
0
0
0
0
0
0
8.19472e-07
7.9826e-07
5.52406e-07
5.65162e-07
4.52884e-07
2.97737e-07
3.95366e-07
4.65157e-07
3.12596e-07
9.24706e-08
0
0
0
0
0
0
0
0
0
0
0
0
0
0
0
6.78356e-08
1.74115e-07
2.78733e-07
3.86121e-07
4.95941e-07
6.1273e-07
7.38615e-07
8.7093e-07
1.00673e-06
1.14128e-06
1.26488e-06
1.36333e-06
1.4262e-06
1.46989e-06
1.47244e-06
1.42693e-06
1.36874e-06
1.31336e-06
1.22338e-06
1.09164e-06
9.3395e-07
7.40918e-07
4.75649e-07
9.77876e-08
0
0
0
0
1.43826e-06
8.13281e-07
0
0
0
0
0
0
0
4.78344e-07
6.64709e-07
3.88757e-07
1.31975e-07
1.05786e-07
2.60923e-07
3.1306e-07
1.95285e-07
9.0351e-08
4.64298e-08
4.44953e-08
7.13664e-08
1.54745e-07
3.97017e-07
9.83019e-07
2.01173e-06
2.4716e-06
2.09795e-06
1.46466e-06
7.02249e-07
0
0
0
6.13038e-08
1.48541e-07
1.36821e-07
7.07809e-08
0
0
0
0
0
0
0
0
0
0
0
0
0
0
0
0
0
0
0
0
0
0
0
0
0
0
0
0
0
0
0
0
0
0
0
0
0
0
0
0
0
0
0
0
0
0
0
0
0
0
0
0
0
0
0
1.32502e-08
4.0707e-08
4.14387e-08
3.3031e-08
3.01907e-08
2.89469e-08
2.54346e-08
1.95165e-08
1.19017e-08
3.21629e-09
0
0
0
0
0
0
0
0
0
0
0
0
0
0
0
0
0
0
0
0
0
0
0
0
0
0
0
0
0
0
0
0
0
0
0
0
0
0
0
0
0
0
0
0
0
0
0
0
0
0
0
0
0
0
0
0
5.57918e-08
1.65853e-07
2.83787e-07
4.05643e-07
5.33554e-07
6.74877e-07
8.41132e-07
1.04624e-06
1.2521e-06
1.42637e-06
1.52291e-06
1.52314e-06
1.4721e-06
1.3864e-06
1.28077e-06
1.16302e-06
1.00256e-06
7.35397e-07
3.56206e-07
0
0
0
5.96179e-08
1.12907e-06
4.76429e-07
0
0
0
0
0
0
0
0
2.17071e-07
3.61876e-07
5.51268e-07
6.34942e-07
4.7608e-07
2.76319e-07
1.38007e-07
6.78334e-08
5.11278e-08
6.57834e-08
1.06346e-07
2.19241e-07
4.80556e-07
8.55505e-07
1.04289e-06
9.32649e-07
6.95851e-07
3.85093e-07
1.03793e-07
0
0
1.58913e-07
1.53011e-07
1.02214e-07
5.75508e-08
1.42003e-08
0
0
0
0
0
0
0
0
0
0
0
0
0
0
0
0
0
0
0
0
0
0
0
0
0
0
0
0
0
0
0
0
0
0
0
0
0
0
0
0
0
0
0
0
0
0
0
0
0
0
0
0
0
0
0
0
1.31932e-08
4.95161e-08
6.77987e-08
6.45e-08
5.6991e-08
4.86948e-08
3.78857e-08
2.50411e-08
1.10252e-08
0
0
0
0
0
0
0
0
0
0
0
0
0
0
0
0
0
0
0
0
0
0
0
0
0
0
0
0
0
0
0
0
0
0
0
0
0
0
0
0
0
0
4.50231e-08
2.22791e-07
2.68383e-07
1.68606e-07
0
0
0
0
0
0
0
0
0
0
0
0
0
4.23867e-08
2.13598e-07
3.18964e-07
3.89808e-07
4.55203e-07
5.50412e-07
7.03807e-07
9.27688e-07
1.17611e-06
1.33284e-06
1.34503e-06
1.26959e-06
1.12435e-06
9.0531e-07
6.05295e-07
2.11166e-07
0
0
0
1.63208e-06
1.62844e-06
7.99698e-07
0
0
0
0
0
0
0
0
0
2.6935e-07
4.30478e-07
3.79618e-07
2.6297e-07
1.62554e-07
9.40444e-08
6.14365e-08
6.39277e-08
8.29344e-08
1.11343e-07
1.8741e-07
3.70447e-07
7.43803e-07
9.73801e-07
8.99506e-07
6.24341e-07
2.61977e-07
0
0
0
2.08608e-07
3.60895e-07
2.94104e-07
2.26063e-07
1.65179e-07
1.12874e-07
7.09157e-08
2.94654e-08
0
0
0
0
0
0
0
0
0
0
0
0
0
0
0
0
0
0
0
0
0
0
0
0
0
0
0
0
0
0
0
0
0
0
0
0
0
0
0
0
0
0
0
0
0
0
0
0
0
0
0
0
0
3.28132e-09
3.25481e-08
6.30389e-08
8.45014e-08
8.3565e-08
6.73364e-08
4.84731e-08
2.99817e-08
1.24997e-08
0
0
0
0
0
0
3.44644e-09
0
0
0
0
0
0
0
0
0
0
0
0
0
0
0
0
0
0
0
0
0
0
0
0
0
0
0
0
0
0
0
0
2.94624e-07
1.11973e-06
2.02982e-06
2.80928e-06
3.15436e-06
2.78962e-06
1.87397e-06
7.01276e-07
0
0
0
0
0
0
0
0
0
0
0
0
0
0
1.67518e-07
3.44762e-07
3.95721e-07
3.90648e-07
3.95367e-07
4.55667e-07
6.04053e-07
8.41233e-07
1.11371e-06
1.19262e-06
1.08799e-06
8.28614e-07
4.41323e-07
0
0
0
0
1.77337e-06
1.82802e-06
5.2372e-07
0
0
0
0
0
0
0
0
0
1.66787e-07
2.06241e-07
1.58626e-07
1.08798e-07
8.18657e-08
6.11042e-08
5.6355e-08
6.99067e-08
8.13609e-08
7.15068e-08
8.60387e-08
3.55563e-07
8.91768e-07
1.12886e-06
1.01698e-06
7.89181e-07
5.52701e-07
3.7798e-07
3.27349e-07
6.06164e-07
9.2664e-07
7.71936e-07
5.43659e-07
3.68034e-07
2.43087e-07
1.5164e-07
9.24085e-08
5.33488e-08
2.7102e-08
8.47096e-09
0
0
0
0
3.36545e-10
4.01644e-09
2.03251e-09
0
0
0
0
0
0
0
0
0
0
0
0
0
0
0
0
0
0
0
0
0
0
0
0
0
0
0
0
0
0
0
0
0
0
0
0
0
0
4.27522e-09
1.40435e-09
0
0
0
0
1.05358e-08
3.44191e-08
5.90088e-08
8.00433e-08
9.41835e-08
8.93605e-08
6.47216e-08
3.71782e-08
1.43063e-08
0
0
0
0
0
0
2.91532e-09
1.70119e-08
2.5069e-09
0
0
0
0
0
0
0
0
0
0
0
0
0
0
0
0
0
0
0
0
0
0
0
0
0
0
0
0
2.15372e-07
1.13588e-06
2.13356e-06
2.98318e-06
3.49412e-06
3.71102e-06
3.59652e-06
3.14231e-06
2.33872e-06
1.45826e-06
6.23338e-07
0
0
0
0
0
0
0
0
0
0
0
0
0
0
0
2.89833e-07
3.85459e-07
3.74016e-07
3.34102e-07
3.45777e-07
4.53834e-07
6.69233e-07
9.70877e-07
1.04142e-06
8.2845e-07
4.04491e-07
0
0
0
0
0
1.2552e-06
2.75349e-07
0
0
0
0
0
0
0
0
3.86998e-08
9.55514e-08
6.23338e-08
2.10467e-08
1.96839e-08
3.53486e-08
4.02273e-08
5.14605e-08
6.79146e-08
5.38597e-08
0
0
3.20961e-07
9.98514e-07
1.29418e-06
1.22002e-06
1.16019e-06
1.21605e-06
1.21739e-06
1.0868e-06
0
0
3.35567e-07
5.77068e-07
4.62678e-07
3.13807e-07
1.67073e-07
7.08048e-08
1.84408e-08
0
0
0
0
0
0
0
0
0
0
0
0
0
0
0
0
0
0
0
0
0
0
0
0
0
0
0
0
0
0
0
0
0
0
0
0
0
0
0
0
0
0
4.10436e-09
3.21016e-08
4.19108e-08
3.6693e-08
2.17128e-08
2.48972e-08
2.75033e-08
1.15318e-08
2.47453e-09
0
7.1813e-09
2.46289e-08
4.7398e-08
6.97031e-08
8.57368e-08
9.40355e-08
9.54098e-08
8.16611e-08
5.08718e-08
1.91044e-08
0
0
0
0
0
0
0
6.19753e-09
2.71362e-08
1.15799e-08
0
0
0
0
0
0
0
0
0
0
0
0
0
0
0
0
0
0
0
0
0
0
0
0
0
0
3.21946e-07
9.71593e-07
1.51457e-06
1.86708e-06
2.01543e-06
1.96487e-06
1.79224e-06
1.69628e-06
1.80693e-06
1.99073e-06
1.95364e-06
1.43834e-06
6.08259e-07
0
0
0
1.9868e-07
6.23689e-07
1.05538e-06
1.37302e-06
1.44028e-06
1.12545e-06
2.71845e-07
0
0
0
0
0
1.54546e-07
3.08153e-07
2.96823e-07
2.42728e-07
2.18907e-07
2.69236e-07
4.3328e-07
6.69883e-07
5.919e-07
2.23055e-07
0
0
0
0
0
2.62115e-07
4.21755e-07
4.31688e-08
0
0
0
0
0
0
1.30661e-08
7.739e-08
2.45877e-08
0
0
0
1.39191e-08
3.12413e-08
4.57095e-08
5.2073e-08
4.85663e-10
0
0
1.94024e-07
1.0131e-06
1.42243e-06
1.33821e-06
1.39676e-06
1.56326e-06
1.24689e-06
9.91854e-08
0
0
0
1.20384e-07
5.17009e-07
4.91002e-07
2.97339e-07
1.29321e-07
4.27606e-08
9.21849e-09
0
0
0
0
0
0
0
0
0
0
0
0
0
0
0
0
0
0
0
0
0
0
0
4.11821e-09
1.12132e-08
9.28654e-09
3.05558e-09
1.65786e-09
3.9935e-10
0
0
9.30793e-09
1.92298e-08
2.19902e-08
1.46721e-08
0
0
0
0
0
0
8.96333e-10
4.81987e-08
7.75506e-08
8.77435e-08
8.62082e-08
7.33063e-08
6.86709e-08
6.04712e-08
3.06551e-08
2.24832e-08
3.13351e-08
5.1236e-08
7.48111e-08
9.44782e-08
1.06267e-07
1.07215e-07
9.96595e-08
8.74381e-08
6.56955e-08
3.26788e-08
3.61122e-10
0
0
0
0
0
0
0
9.96542e-09
2.97976e-08
1.72254e-08
0
0
0
0
0
0
0
0
0
0
0
0
6.08074e-09
0
0
0
0
0
0
0
0
0
0
0
2.27482e-07
6.17945e-07
9.02994e-07
1.05302e-06
1.02561e-06
8.85836e-07
8.0999e-07
1.05063e-06
1.71067e-06
2.78119e-06
4.07385e-06
4.89446e-06
3.92929e-06
8.74728e-07
0
0
0
0
0
0
0
5.82845e-07
1.34341e-06
1.66262e-06
1.239e-06
0
0
0
0
0
7.62282e-08
2.16898e-07
1.89503e-07
1.32467e-07
7.36002e-08
0
0
0
0
0
0
0
0
0
0
0
0
0
0
0
0
0
1.4297e-08
1.29617e-07
4.31214e-08
0
0
0
0
7.55837e-09
3.01411e-08
4.48258e-08
4.25278e-08
0
0
0
0
7.51483e-07
1.12622e-06
9.91125e-07
9.7442e-07
9.63189e-07
2.17439e-07
0
0
0
0
0
0
3.19754e-07
3.57474e-07
1.90611e-07
6.54185e-08
1.96745e-08
9.06762e-09
5.78575e-09
3.86119e-10
0
0
0
0
1.77497e-09
0
0
0
0
0
0
0
0
0
0
0
0
0
0
0
0
0
1.02852e-08
1.57109e-08
2.19666e-08
3.36582e-08
3.81586e-08
3.85598e-08
4.52101e-08
5.18535e-08
5.24037e-08
4.88166e-08
4.64103e-08
5.20359e-08
3.82114e-08
0
0
0
0
4.51039e-08
9.31894e-08
1.19783e-07
1.28771e-07
1.30293e-07
1.21363e-07
1.18653e-07
1.11643e-07
7.99169e-08
8.30408e-08
1.0321e-07
1.25847e-07
1.41291e-07
1.44802e-07
1.3716e-07
1.1891e-07
9.64232e-08
7.43989e-08
4.84442e-08
1.46862e-08
0
0
0
0
0
0
0
0
1.3968e-08
2.7837e-08
1.70285e-08
0
0
0
0
0
0
0
0
0
0
0
2.03393e-08
0
0
0
0
0
0
0
0
0
0
7.22895e-08
2.58627e-07
3.80943e-07
4.43852e-07
4.16266e-07
3.08946e-07
2.8083e-07
5.03016e-07
1.08461e-06
2.10531e-06
3.66371e-06
5.88226e-06
8.93072e-06
8.494e-06
0
0
0
0
0
0
0
0
0
0
2.04835e-08
7.81209e-07
8.63836e-07
0
0
0
0
0
5.21106e-08
1.09009e-07
7.17357e-08
2.07033e-08
0
0
0
0
0
0
0
0
0
0
0
0
0
0
0
0
0
1.76943e-07
1.33908e-07
0
0
0
0
0
1.09821e-08
4.04133e-08
6.21541e-08
6.4932e-08
0
0
0
0
1.35139e-07
4.98356e-07
2.58453e-07
0
0
0
0
0
0
0
0
0
0
1.30392e-07
1.9697e-07
8.46968e-08
1.60852e-08
5.53168e-10
4.15225e-09
5.55854e-09
0
0
0
0
0
0
0
0
0
0
0
0
0
0
0
0
0
0
0
0
0
0
9.81297e-09
3.26677e-08
5.15741e-08
6.95562e-08
7.70821e-08
7.42005e-08
7.63665e-08
8.20205e-08
7.9215e-08
6.96312e-08
6.30039e-08
7.14366e-08
1.04115e-07
1.08404e-07
5.44809e-08
0
0
4.13619e-08
9.28642e-08
1.39707e-07
1.58702e-07
1.65736e-07
1.69967e-07
1.65229e-07
1.73397e-07
2.00748e-07
2.12045e-07
2.24739e-07
2.34221e-07
2.33758e-07
2.19883e-07
1.94092e-07
1.61432e-07
1.24999e-07
9.26629e-08
6.53332e-08
3.47428e-08
0
0
0
0
0
0
0
0
0
1.65403e-08
2.29042e-08
1.04948e-08
0
0
0
0
0
0
0
0
0
0
0
0
0
0
0
0
0
0
0
0
0
3.28153e-08
2.78728e-08
4.64226e-08
6.21144e-08
4.16937e-08
4.21602e-08
1.4819e-07
4.14749e-07
8.71321e-07
1.48927e-06
2.14097e-06
2.51708e-06
1.66145e-06
0
0
0
0
0
0
0
0
0
0
0
0
0
2.39365e-07
3.49744e-07
0
0
0
0
0
5.06668e-08
2.00615e-08
0
0
0
0
0
0
0
0
0
0
0
0
0
0
0
2.40706e-07
1.88566e-07
1.55512e-07
2.59348e-07
3.28208e-08
0
0
0
0
0
1.41714e-08
6.19973e-08
1.01673e-07
1.23079e-07
6.40513e-08
0
0
0
0
0
0
0
0
0
0
0
0
0
0
0
0
0
1.09329e-07
9.49251e-08
1.16933e-08
0
0
4.82952e-09
6.66467e-09
8.01147e-11
0
0
0
0
0
0
0
0
0
0
0
0
0
0
0
0
0
0
0
6.73375e-09
2.81479e-08
6.32897e-08
9.45233e-08
1.03811e-07
9.49129e-08
8.20103e-08
7.97403e-08
9.00302e-08
9.57239e-08
8.85196e-08
7.73723e-08
7.58902e-08
1.02868e-07
1.55713e-07
1.61832e-07
1.06895e-07
6.45726e-08
5.82675e-08
9.9263e-08
1.4607e-07
1.8287e-07
1.94993e-07
2.03223e-07
2.12204e-07
2.16621e-07
2.48532e-07
3.14115e-07
3.76338e-07
4.06434e-07
3.99978e-07
3.6027e-07
3.02905e-07
2.42152e-07
1.87485e-07
1.41022e-07
1.04778e-07
7.01343e-08
2.34076e-08
0
0
0
0
0
0
0
0
6.24785e-09
1.51057e-08
1.40846e-08
0
0
0
0
0
0
0
0
0
0
0
0
0
0
0
0
0
0
1.99527e-08
2.3254e-08
0
0
0
0
0
0
0
0
0
0
0
0
0
0
0
0
0
0
0
0
0
0
0
0
0
0
0
9.70439e-08
3.60297e-07
5.80965e-08
0
0
3.30533e-08
4.53535e-08
5.17906e-08
4.84585e-10
0
0
0
0
0
0
0
0
0
0
0
0
0
0
4.0216e-07
6.83717e-07
5.83005e-07
4.63915e-07
3.76061e-07
0
0
0
0
0
0
1.25205e-08
6.86577e-08
1.23255e-07
1.66199e-07
1.45473e-07
0
0
0
0
0
0
0
0
0
0
0
0
0
0
0
0
0
3.59251e-10
8.14374e-08
4.90895e-09
0
0
0
8.45236e-09
9.583e-09
4.69461e-09
0
0
0
0
0
0
0
0
0
0
0
0
0
0
0
0
0
1.41214e-08
4.10234e-08
7.86563e-08
1.19512e-07
1.45294e-07
1.42982e-07
1.18751e-07
8.93714e-08
7.34797e-08
7.91507e-08
9.69418e-08
1.05084e-07
9.89982e-08
9.20224e-08
1.02221e-07
1.49926e-07
2.09242e-07
2.07106e-07
1.5648e-07
1.26863e-07
1.2767e-07
1.57085e-07
2.08093e-07
2.32964e-07
2.43956e-07
2.60584e-07
2.78483e-07
2.99022e-07
3.42379e-07
3.87095e-07
4.11329e-07
4.4301e-07
4.74698e-07
4.51063e-07
3.75076e-07
2.94849e-07
2.33858e-07
1.88954e-07
1.49372e-07
9.17363e-08
2.15664e-09
0
0
0
0
0
0
0
0
7.24907e-09
7.96166e-09
1.39382e-09
0
0
0
0
0
0
0
0
0
0
6.25162e-09
1.0618e-07
2.3801e-07
2.88196e-07
3.27587e-07
3.40862e-07
3.14956e-07
2.41618e-07
1.0201e-07
0
0
0
0
0
0
0
0
0
0
0
0
0
0
0
0
0
0
0
0
0
0
0
0
0
0
0
2.22328e-07
3.90865e-07
2.04199e-07
0
0
1.74702e-07
1.05008e-07
3.75203e-08
0
0
0
0
0
0
0
0
0
0
0
0
0
0
0
7.66087e-07
9.21332e-07
8.7487e-07
1.00374e-06
2.15443e-07
0
0
0
0
0
0
2.10871e-08
5.68884e-08
1.00601e-07
1.48125e-07
1.58759e-07
6.41981e-08
0
0
0
0
0
0
0
0
0
0
0
0
0
0
0
0
0
5.9508e-08
0
0
0
0
3.02301e-09
5.07806e-09
2.51103e-09
0
0
0
0
0
0
0
0
0
0
0
0
0
1.9483e-09
7.98936e-09
1.56906e-08
2.83826e-08
5.34239e-08
9.84133e-08
1.48611e-07
1.72369e-07
1.65962e-07
1.46352e-07
1.23515e-07
1.01727e-07
8.58082e-08
8.18007e-08
9.32221e-08
1.11077e-07
1.20705e-07
1.20873e-07
1.26172e-07
1.50608e-07
2.12978e-07
2.64179e-07
2.47234e-07
2.05743e-07
1.86355e-07
1.89984e-07
2.30193e-07
2.74144e-07
2.91013e-07
3.09176e-07
3.39461e-07
3.5995e-07
3.81761e-07
4.05454e-07
4.13578e-07
3.94539e-07
3.83329e-07
4.14926e-07
4.30725e-07
3.83673e-07
3.20803e-07
2.74289e-07
2.38243e-07
1.89197e-07
8.82294e-08
0
0
0
0
0
0
0
0
1.43565e-09
3.70718e-10
0
0
0
0
0
0
0
0
0
0
1.6317e-07
3.01451e-07
3.80745e-07
4.82553e-07
5.87858e-07
6.6353e-07
6.79769e-07
6.13717e-07
4.72272e-07
2.5602e-07
0
0
0
0
0
5.89941e-10
3.0032e-08
0
0
0
0
0
0
0
0
0
0
0
0
1.04488e-06
1.33351e-06
1.02459e-06
6.9156e-07
4.50803e-07
2.09929e-07
0
8.27429e-09
2.18077e-07
3.42059e-07
2.36049e-07
0
0
1.5438e-07
1.03065e-07
2.27099e-08
0
0
0
0
0
0
0
0
0
0
0
0
0
0
0
8.49462e-07
1.67482e-06
2.50713e-06
1.3312e-06
1.91508e-07
0
0
0
0
0
1.51354e-08
3.12731e-08
4.24942e-08
6.31268e-08
9.78583e-08
1.20474e-07
8.70437e-08
0
0
0
0
0
0
0
0
0
0
0
0
0
0
0
0
0
0
0
0
0
0
3.71791e-09
1.09637e-09
0
0
0
0
0
0
0
0
0
0
0
0
0
1.94785e-09
1.70398e-08
3.6128e-08
5.78259e-08
8.6038e-08
1.25904e-07
1.71075e-07
1.96553e-07
1.90278e-07
1.69003e-07
1.4369e-07
1.19187e-07
1.01753e-07
9.29224e-08
9.21278e-08
1.00881e-07
1.17801e-07
1.36397e-07
1.49386e-07
1.62485e-07
1.81043e-07
2.25264e-07
2.88674e-07
3.17789e-07
2.85628e-07
2.60029e-07
2.48838e-07
2.65215e-07
3.21749e-07
3.48475e-07
3.67349e-07
3.99875e-07
4.26701e-07
4.30072e-07
4.29984e-07
4.28681e-07
4.21127e-07
3.89336e-07
3.47631e-07
3.48648e-07
3.60809e-07
3.35507e-07
2.97115e-07
2.61378e-07
2.17337e-07
1.37908e-07
0
0
0
0
0
0
0
0
0
0
0
0
0
0
0
0
0
0
0
0
1.03171e-06
8.64528e-07
5.94441e-07
5.39796e-07
6.72293e-07
7.82042e-07
8.36519e-07
7.74594e-07
6.3068e-07
4.1664e-07
1.5519e-07
0
0
0
0
1.1891e-07
2.18882e-07
1.89613e-07
1.01157e-08
0
0
0
0
0
0
0
0
0
3.0198e-06
3.01803e-06
1.98104e-06
1.20466e-06
7.13974e-07
4.23866e-07
2.22063e-07
8.65863e-08
1.23768e-07
2.57884e-07
3.28544e-07
3.74436e-07
2.92967e-07
0
2.56845e-07
1.09508e-07
2.73407e-08
0
0
0
0
0
0
0
0
0
0
0
0
0
0
0
7.35562e-07
1.91508e-06
1.54783e-06
4.66311e-07
1.27348e-07
4.92851e-08
3.02696e-08
3.43948e-08
4.04871e-08
3.76481e-08
2.76064e-08
1.54675e-08
6.84977e-09
8.23309e-09
2.55544e-08
4.63283e-08
4.22855e-08
0
0
0
0
3.27816e-07
1.06768e-06
1.77685e-06
1.68107e-06
0
0
0
0
0
0
0
0
0
0
0
0
0
1.30261e-08
1.00457e-08
1.43132e-09
0
0
0
0
0
0
0
0
0
0
0
0
2.2277e-09
2.39476e-08
5.51099e-08
9.43547e-08
1.35548e-07
1.73135e-07
2.03941e-07
2.13522e-07
1.95099e-07
1.68282e-07
1.45927e-07
1.28005e-07
1.11511e-07
9.77652e-08
9.15187e-08
9.42214e-08
1.05039e-07
1.22625e-07
1.45853e-07
1.68116e-07
1.88706e-07
2.16331e-07
2.55746e-07
3.11139e-07
3.5678e-07
3.57136e-07
3.28017e-07
3.15113e-07
3.14269e-07
3.63395e-07
4.07016e-07
4.29754e-07
4.60676e-07
4.88829e-07
4.77489e-07
4.53616e-07
4.27168e-07
4.08454e-07
4.00334e-07
3.80728e-07
3.38541e-07
3.21125e-07
3.08547e-07
2.74986e-07
2.30829e-07
1.72901e-07
7.92176e-08
0
0
0
0
0
0
0
0
0
0
0
0
0
0
0
0
0
0
0
0
3.30715e-06
1.19466e-06
4.60758e-07
3.65017e-07
5.33254e-07
6.7597e-07
7.55879e-07
7.63625e-07
6.40319e-07
4.69425e-07
2.64194e-07
5.72031e-08
0
0
0
8.51817e-08
2.18386e-07
2.80864e-07
2.35348e-07
7.34412e-08
0
0
0
0
0
0
0
9.12038e-07
3.93613e-06
2.55628e-06
1.527e-06
8.96208e-07
5.21223e-07
3.12385e-07
1.87217e-07
1.41209e-07
2.24191e-07
3.32231e-07
4.49909e-07
9.49721e-07
1.84207e-06
1.05519e-06
3.2596e-07
1.19095e-07
4.16277e-08
5.21006e-09
0
4.75287e-09
1.22034e-08
1.30511e-08
1.05399e-08
1.03088e-08
2.97177e-08
1.43004e-07
1.80083e-07
0
0
0
0
0
6.72653e-07
9.41455e-07
4.86734e-07
1.32945e-07
3.1781e-08
1.97136e-08
3.29017e-08
5.43159e-08
6.4678e-08
5.33112e-08
2.47987e-08
0
0
0
0
0
0
0
0
0
1.48943e-07
6.36349e-07
1.7765e-06
3.69307e-06
6.25957e-06
7.1019e-06
0
0
0
0
0
0
0
0
0
0
0
1.96205e-08
2.87093e-08
1.89648e-08
5.34019e-09
0
0
0
0
0
0
0
0
0
0
0
0
3.28602e-08
7.88184e-08
1.35583e-07
1.92978e-07
2.31849e-07
2.43757e-07
2.27618e-07
1.95673e-07
1.6448e-07
1.4017e-07
1.1931e-07
1.02978e-07
9.40853e-08
8.91338e-08
8.69667e-08
9.12211e-08
1.03824e-07
1.2344e-07
1.49148e-07
1.79527e-07
2.05695e-07
2.42908e-07
2.90784e-07
3.41421e-07
3.87665e-07
4.12606e-07
3.92154e-07
3.77266e-07
3.68885e-07
3.98462e-07
4.57686e-07
4.8855e-07
5.18988e-07
5.4698e-07
5.24809e-07
4.73796e-07
4.1921e-07
3.70073e-07
3.36503e-07
3.2611e-07
3.27591e-07
3.142e-07
2.80073e-07
2.22365e-07
1.47207e-07
4.82618e-08
0
0
0
0
0
0
0
0
0
0
0
0
0
0
0
0
0
0
0
0
0
3.08642e-06
1.21756e-06
2.79407e-07
2.04747e-07
3.19409e-07
4.412e-07
5.27239e-07
5.70781e-07
5.40839e-07
4.1331e-07
2.677e-07
1.17313e-07
0
0
0
0
8.20805e-08
1.73302e-07
2.20949e-07
1.98684e-07
1.02343e-07
0
0
0
0
0
0
8.95726e-07
1.41599e-06
1.0545e-06
6.38613e-07
3.54433e-07
2.20674e-07
1.85094e-07
1.94843e-07
2.63894e-07
3.65959e-07
4.80062e-07
9.02474e-07
2.30076e-06
2.09304e-06
1.0127e-06
2.75999e-07
1.15016e-07
5.43764e-08
2.65637e-08
2.28994e-08
3.15046e-08
3.85222e-08
3.86685e-08
3.71405e-08
3.49608e-08
3.83893e-08
8.65988e-08
2.54306e-07
2.71054e-07
7.40703e-08
0
0
1.80977e-07
3.65625e-07
2.63911e-07
4.31436e-08
0
0
0
4.87508e-09
4.22955e-08
6.35054e-08
5.5759e-08
2.2501e-08
0
0
0
0
0
0
0
0
0
5.70419e-08
4.32574e-07
1.29136e-06
2.86913e-06
5.58298e-06
9.87742e-06
2.9701e-06
0
0
0
0
0
0
0
0
0
0
4.64393e-08
4.58945e-08
2.93825e-08
1.22378e-08
0
0
0
0
0
0
0
0
0
0
0
3.76418e-08
9.86997e-08
1.6778e-07
2.30889e-07
2.64815e-07
2.6337e-07
2.37589e-07
2.07946e-07
1.75201e-07
1.44035e-07
1.17865e-07
9.75665e-08
8.43157e-08
7.88361e-08
7.82945e-08
7.92817e-08
8.42826e-08
9.82367e-08
1.21507e-07
1.49657e-07
1.85049e-07
2.18523e-07
2.61236e-07
3.21121e-07
3.78678e-07
4.24135e-07
4.56439e-07
4.54504e-07
4.34611e-07
4.26021e-07
4.3554e-07
4.97581e-07
5.38607e-07
5.7063e-07
5.98923e-07
5.73533e-07
4.97403e-07
4.11424e-07
3.30005e-07
2.63043e-07
2.14991e-07
1.89937e-07
1.89181e-07
1.65897e-07
8.43166e-08
0
0
0
0
0
0
0
0
0
0
0
0
0
0
0
0
0
0
0
2.15726e-09
9.04848e-09
0
0
3.06808e-06
1.36255e-06
2.0706e-07
1.63054e-07
1.77855e-07
1.64039e-07
2.3013e-07
2.84449e-07
2.94802e-07
2.5008e-07
1.57212e-07
5.88736e-08
0
0
0
0
0
1.14016e-08
7.47993e-08
1.22591e-07
1.43043e-07
1.33458e-07
1.05303e-07
7.01141e-08
5.46854e-08
7.95736e-08
1.91592e-07
3.32233e-07
3.04112e-07
1.77962e-07
8.33599e-08
7.47846e-08
1.46479e-07
2.46003e-07
3.45259e-07
4.43795e-07
5.47198e-07
8.6865e-07
2.04535e-06
2.18921e-06
1.4066e-06
6.60873e-07
2.32037e-07
1.19499e-07
6.97157e-08
4.81832e-08
4.78168e-08
5.62118e-08
6.14683e-08
5.90074e-08
5.50118e-08
5.37435e-08
5.05044e-08
5.86901e-08
1.46543e-07
3.03051e-07
3.18235e-07
2.18126e-07
1.1587e-07
7.86978e-08
2.83656e-08
0
0
0
0
0
0
2.76621e-08
6.06403e-08
5.86268e-08
2.58181e-08
0
0
0
0
0
0
0
0
0
0
1.14459e-07
5.88127e-07
1.33727e-06
2.58252e-06
3.90056e-06
1.67972e-06
0
0
0
0
0
0
0
0
0
2.48701e-08
6.91126e-08
5.95554e-08
4.0641e-08
2.20269e-08
4.86863e-09
0
0
0
0
0
0
0
0
0
3.60137e-08
1.06592e-07
1.7651e-07
2.28517e-07
2.50056e-07
2.42637e-07
2.30164e-07
2.1564e-07
1.94377e-07
1.62485e-07
1.25701e-07
9.42896e-08
7.55714e-08
6.79192e-08
6.52625e-08
6.56503e-08
6.85144e-08
7.46139e-08
8.94576e-08
1.16599e-07
1.49844e-07
1.88629e-07
2.30902e-07
2.77928e-07
3.44989e-07
4.16647e-07
4.68552e-07
5.02492e-07
5.15879e-07
4.92796e-07
4.82668e-07
4.80513e-07
5.29635e-07
5.78914e-07
6.12218e-07
6.41059e-07
6.18617e-07
5.25148e-07
4.11249e-07
3.00293e-07
2.06613e-07
1.31623e-07
7.10372e-08
2.63971e-08
0
0
0
0
0
0
0
0
0
0
0
0
0
0
0
0
0
0
0
0
0
0
4.22553e-08
2.92105e-08
0
7.05515e-07
1.02936e-06
5.59828e-08
1.6511e-07
8.37684e-08
0
0
3.74321e-08
5.66698e-08
3.53438e-08
0
0
0
0
0
0
0
0
0
0
3.33928e-08
8.28646e-08
1.31253e-07
1.7634e-07
2.10382e-07
2.07096e-07
1.29352e-07
0
0
0
0
6.48436e-08
2.7276e-07
4.38343e-07
5.54917e-07
6.48357e-07
9.1657e-07
1.81236e-06
1.98073e-06
1.19931e-06
9.05324e-07
4.00588e-07
1.91634e-07
1.17858e-07
8.11531e-08
6.83421e-08
7.03065e-08
7.77394e-08
8.00005e-08
7.55917e-08
6.80271e-08
6.42573e-08
6.14436e-08
5.64352e-08
7.64275e-08
1.89039e-07
2.77309e-07
2.3223e-07
1.01771e-07
0
0
0
0
0
0
0
0
1.69387e-08
6.17656e-08
7.01913e-08
3.94794e-08
0
0
0
0
0
0
0
0
0
0
0
1.30462e-07
4.81118e-07
9.34369e-07
1.27977e-06
5.72863e-07
0
0
0
0
0
0
0
0
0
7.27835e-08
9.31152e-08
7.52901e-08
5.53693e-08
3.63171e-08
1.67189e-08
0
0
0
0
0
0
0
0
2.92536e-08
9.70336e-08
1.57848e-07
1.91409e-07
1.98289e-07
2.01457e-07
2.04167e-07
2.06321e-07
2.03698e-07
1.88182e-07
1.53117e-07
1.0905e-07
7.44346e-08
5.71085e-08
5.16905e-08
4.87514e-08
4.71997e-08
5.11755e-08
6.08815e-08
7.88439e-08
1.10114e-07
1.50052e-07
1.93877e-07
2.45927e-07
2.97385e-07
3.65845e-07
4.54272e-07
5.18618e-07
5.54142e-07
5.72824e-07
5.5126e-07
5.34274e-07