/*--------------------------------*- C++ -*----------------------------------*\
  =========                 |
  \\      /  F ield         | OpenFOAM: The Open Source CFD Toolbox
   \\    /   O peration     | Website:  https://openfoam.org
    \\  /    A nd           | Version:  7
     \\/     M anipulation  |
\*---------------------------------------------------------------------------*/
FoamFile
{
    version     2.0;
    format      ascii;
    class       volScalarField;
    location    "0.085";
    object      s;
}
// * * * * * * * * * * * * * * * * * * * * * * * * * * * * * * * * * * * * * //

dimensions      [0 0 0 0 0 0 0];

internalField   nonuniform List<scalar> 
12225
(
1
1
1
1
1
1
1
1
1
1
1
1
1
1
1
1
1
1
1
1
1
1
1
1
1
1
1
1
1
1
1
1
1
1
1
1
1
1
1
1
1
1
1
1
1
1
1
1
1
1
1
1
1
1
1
1
1
1
1
1
1
1
1
1
1
1
1
1
1
1
1
1
1
1
1
1
1
1
1
1
1
1
1
1
1
1
1
1
1
1
1
1
1
1
1
1
1
1
1
1
1
1
1
1
1
1
1
1
1
1
1
1
1
1
1
1
1
1
1
1
1
1
1
1
1
1
1
1
1
1
1
1
1
1
1
1
1
1
1
1
1
1
1
1
1
1
1
1
1
1
1
1
1
1
1
1
1
1
1
1
1
1
1
1
1
1
1
1
1
1
1
1
1
1
1
1
1
1
1
1
1
1
1
1
1
1
1
1
1
1
1
1
1
1
1
1
1
1
1
1
1
1
1
1
1
1
1
1
1
1
1
1
1
1
1
1
1
1
1
1
1
1
1
1
1
1
1
1
1
1
1
1
1
1
1
1
1
1
1
1
1
1
1
1
1
1
1
1
1
1
1
1
1
1
1
1
1
1
1
1
1
1
1
1
1
1
1
1
1
1
1
1
1
1
1
1
1
1
1
1
1
1
1
1
1
1
1
1
1
1
1
1
1
1
1
1
1
1
1
1
1
1
1
1
1
1
1
1
1
1
1
1
1
1
1
1
1
1
1
1
1
1
1
1
1
1
1
1
1
1
1
1
1
1
1
1
1
1
1
1
1
1
1
1
1
1
1
1
1
1
1
1
1
1
1
1
1
1
1
1
1
1
1
1
1
1
1
1
1
1
1
1
1
1
1
1
1
1
1
1
1
1
1
1
1
1
1
1
1
1
1
1
1
1
1
1
1
1
1
1
1
1
1
1
1
1
1
1
1
1
1
1
1
1
1
1
1
1
1
1
1
1
1
1
1
1
1
1
1
1
1
1
1
1
1
1
1
1
1
1
1
1
1
1
1
1
1
1
1
1
1
1
1
1
1
1
1
1
1
1
1
1
1
1
1
1
1
1
1
1
1
1
1
1
1
1
1
1
1
1
1
1
1
1
1
1
1
1
1
1
1
1
1
1
1
1
1
1
1
1
1
1
1
1
1
1
1
1
1
1
1
1
1
1
1
1
1
1
1
1
1
1
1
1
1
1
1
1
1
1
1
1
1
1
1
1
1
1
1
1
0.151805
0.151291
0.158463
0.16962
0.177577
0.189733
0.207259
0.234124
0.273157
0.296123
0.321015
0.337118
0.34878
0.362722
0.376424
0.387219
0.395398
0.40151
0.405673
0.408785
0.411356
0.413516
0.415618
0.417756
0.419473
0.420952
0.422266
0.422856
0.422719
0.422318
0.421833
0.420963
0.420067
0.419829
0.419882
0.420342
0.421868
0.423322
0.423797
0.42418
0.426488
0.420809
0.277057
0.0733498
0.0454725
0.0496077
0.0705721
0.0889578
0.106305
0.124226
0.139239
0.150729
0.16122
0.171751
0.181023
0.18698
0.197688
0.210704
0.229288
0.266841
0.31771
0.353686
0.371578
0.357736
0.277586
0.205849
0.198233
0.215838
0.250716
0.300674
0.422967
0.656292
0.817881
0.8781
0.890052
0.890368
0.889523
0.887867
0.886113
0.884671
0.883334
0.881921
0.880582
0.879428
0.878352
0.877272
0.876222
0.875225
0.874433
0.874084
0.873954
0.873986
0.874498
0.875297
0.876104
0.877345
0.878713
0.879899
0.881066
0.88235
0.883652
0.884805
0.885904
0.887041
0.888107
0.888961
0.889658
0.890417
0.891118
0.891523
0.891988
0.892334
0.892557
0.892703
0.892756
0.892593
0.892283
0.891763
0.890995
0.889897
0.888376
0.886184
0.883125
0.87934
0.875297
0.87091
0.865273
0.857184
0.847434
0.839864
0.834629
0.827319
0.809373
0.78213
0.762075
0.739906
0.69735
0.628286
0.533822
0.421856
0.30665
0.203247
0.122055
0.0661838
0.0323991
0.0143615
0.00579207
0.00213045
0.000708192
0.000208602
7.17268e-05
3.78987e-05
1.92359e-05
9.41749e-06
4.48643e-06
2.09154e-06
9.59274e-07
4.35255e-07
1.96431e-07
8.85886e-08
4.00657e-08
1.82074e-08
8.31692e-09
3.81495e-09
1.75388e-09
8.06273e-10
3.69737e-10
1.68762e-10
7.65159e-11
3.44005e-11
1.53091e-11
6.73274e-12
2.91983e-12
1.24613e-12
5.21562e-13
2.13413e-13
8.48853e-14
3.24493e-14
1.24013e-14
-1.52062e-14
0.152627
0.152255
0.153769
0.154772
0.1528
0.160406
0.177886
0.212651
0.263572
0.322199
0.371703
0.4091
0.437223
0.454672
0.464941
0.470567
0.472144
0.472221
0.472013
0.471243
0.470225
0.46809
0.465771
0.464081
0.460331
0.454325
0.447583
0.435695
0.42022
0.404927
0.391234
0.377217
0.364327
0.357315
0.355619
0.356387
0.359474
0.367725
0.393005
0.409781
0.422797
0.425376
0.410841
0.400461
0.400207
0.389886
0.333858
0.164895
0.0994337
0.104591
0.130787
0.155415
0.18427
0.221987
0.270234
0.319511
0.347534
0.36235
0.380121
0.407856
0.437782
0.476443
0.519536
0.546736
0.545256
0.490945
0.37992
0.373015
0.38148
0.466921
0.757713
0.860077
0.881451
0.887867
0.888721
0.886024
0.881253
0.873984
0.864396
0.85187
0.840972
0.835653
0.828805
0.821865
0.818116
0.813369
0.808272
0.805561
0.803761
0.802235
0.801654
0.801505
0.802331
0.804326
0.80694
0.811327
0.815538
0.820201
0.825059
0.829953
0.834827
0.839478
0.844428
0.849513
0.854447
0.85896
0.863116
0.867504
0.871916
0.875699
0.879872
0.884852
0.889244
0.893595
0.897845
0.901994
0.906117
0.910241
0.914377
0.918577
0.922838
0.927132
0.931169
0.934121
0.936128
0.937467
0.938
0.93729
0.933564
0.927446
0.920506
0.915325
0.913036
0.913025
0.91524
0.923459
0.942978
0.955504
0.956723
0.953899
0.944225
0.920643
0.878364
0.828933
0.785496
0.75096
0.707443
0.631762
0.522003
0.402218
0.299176
0.219453
0.158045
0.111169
0.0760636
0.0504909
0.0324722
0.0202267
0.0122073
0.00714451
0.00405978
0.00224303
0.00120683
0.000633378
0.000324779
0.000162987
8.01627e-05
3.87004e-05
1.83544e-05
8.56328e-06
3.92859e-06
1.77484e-06
7.87312e-07
3.43918e-07
1.46693e-07
6.15936e-08
2.49784e-08
9.77142e-09
4.3073e-09
-1.70686e-08
0.109387
0.128696
0.154651
0.185318
0.242628
0.314088
0.379754
0.439756
0.475423
0.495088
0.500956
0.500581
0.49898
0.496482
0.493185
0.488176
0.482492
0.473846
0.463739
0.452641
0.438773
0.422017
0.401151
0.369259
0.333637
0.298553
0.269161
0.251637
0.243017
0.237536
0.234899
0.234633
0.235696
0.2367
0.237068
0.236741
0.236462
0.237098
0.242165
0.260391
0.29514
0.349094
0.379345
0.392726
0.403294
0.406955
0.40568
0.397405
0.373562
0.293608
0.187043
0.149801
0.146731
0.152028
0.162603
0.178244
0.209665
0.236004
0.263948
0.333302
0.396202
0.424253
0.485537
0.554308
0.580677
0.580339
0.566537
0.504016
0.542339
0.802326
0.875341
0.884973
0.885976
0.884204
0.876511
0.860397
0.834283
0.820915
0.810627
0.804609
0.801624
0.798259
0.793658
0.786905
0.776958
0.763601
0.750368
0.73946
0.730831
0.724316
0.720154
0.717556
0.716257
0.716004
0.717865
0.723316
0.730848
0.73963
0.749082
0.758228
0.766147
0.774061
0.782725
0.791639
0.800633
0.808913
0.816429
0.823737
0.830888
0.837476
0.843333
0.848618
0.852993
0.856712
0.860055
0.863788
0.86805
0.872473
0.877063
0.88186
0.88691
0.892299
0.898479
0.90659
0.916252
0.926537
0.936737
0.945723
0.950724
0.952591
0.952161
0.945273
0.929476
0.913249
0.899702
0.892233
0.890214
0.89092
0.897244
0.917424
0.939558
0.958056
0.969585
0.9734
0.973548
0.972658
0.969488
0.960071
0.937092
0.91618
0.899049
0.879249
0.840942
0.749214
0.610357
0.469428
0.349183
0.255847
0.184192
0.129707
0.0890664
0.0595437
0.0387377
0.0245376
0.015148
0.00912893
0.00537923
0.0031068
0.00176168
0.000984043
0.000541884
0.000295542
0.000159189
8.52755e-05
4.4891e-05
2.35286e-05
1.19592e-05
5.9664e-06
3.0204e-06
1.00522e-06
0.0781248
0.230736
0.387565
0.477737
0.521195
0.537842
0.537012
0.535023
0.530562
0.520949
0.509227
0.494251
0.470549
0.443241
0.406141
0.368314
0.349921
0.333546
0.310767
0.284291
0.257798
0.239074
0.224859
0.218607
0.217081
0.21854
0.228678
0.24467
0.265394
0.287467
0.305986
0.319606
0.327329
0.330419
0.329445
0.322594
0.313071
0.300852
0.287409
0.276501
0.268939
0.267449
0.27594
0.296823
0.324765
0.353362
0.378768
0.394931
0.397994
0.394064
0.376688
0.333926
0.260236
0.204874
0.176571
0.164171
0.159351
0.159476
0.171865
0.219846
0.32464
0.38045
0.467283
0.555549
0.591901
0.5934
0.570372
0.59138
0.799909
0.87708
0.886313
0.88445
0.879412
0.863714
0.830163
0.811493
0.804296
0.802487
0.802149
0.801039
0.798308
0.790246
0.774025
0.749439
0.717262
0.680476
0.646839
0.623923
0.612423
0.60722
0.605357
0.605055
0.606502
0.61084
0.617173
0.62444
0.63232
0.640943
0.650609
0.661394
0.673771
0.686788
0.700557
0.716094
0.733802
0.752989
0.772566
0.791684
0.808663
0.823537
0.837652
0.850738
0.861939
0.87069
0.877728
0.883239
0.887055
0.88994
0.892129
0.893599
0.89425
0.89409
0.893031
0.892149
0.893234
0.8971
0.903042
0.912071
0.926706
0.94357
0.958635
0.967532
0.970552
0.970273
0.963486
0.938768
0.911338
0.893489
0.885691
0.884311
0.885929
0.8957
0.921507
0.943774
0.959743
0.972127
0.981454
0.986376
0.98767
0.987649
0.987148
0.985588
0.980744
0.964828
0.9474
0.934281
0.912886
0.862609
0.727393
0.553136
0.403823
0.287896
0.200828
0.136797
0.0909104
0.0589832
0.0374101
0.0232598
0.0142085
0.00856206
0.00509552
0.00300848
0.00175647
0.00101931
0.000581115
0.000328318
0.000179921
9.6323e-05
5.12223e-05
2.17624e-05
0.47279
0.553848
0.586684
0.583412
0.575448
0.558773
0.536404
0.509977
0.474266
0.416419
0.363011
0.331411
0.310858
0.294361
0.269008
0.250016
0.245276
0.244394
0.244714
0.249284
0.256613
0.26354
0.287942
0.326585
0.376731
0.438388
0.505862
0.560699
0.604646
0.636521
0.657843
0.668286
0.672106
0.66735
0.652632
0.632468
0.607652
0.580098
0.548644
0.516062
0.479237
0.440178
0.404745
0.374631
0.34971
0.33149
0.323479
0.32482
0.338699
0.368248
0.382702
0.382833
0.378231
0.365504
0.339783
0.29669
0.279561
0.282051
0.294864
0.334293
0.382187
0.417016
0.51247
0.620149
0.62811
0.608175
0.632634
0.797786
0.872589
0.886897
0.885099
0.876107
0.853747
0.815926
0.801262
0.797243
0.800765
0.803468
0.803697
0.799356
0.785756
0.758827
0.709404
0.632793
0.581505
0.564615
0.558968
0.557621
0.557473
0.558278
0.560741
0.564811
0.570532
0.57766
0.585339
0.593563
0.601386
0.607875
0.612999
0.617029
0.621568
0.626484
0.630971
0.635752
0.641195
0.648355
0.658608
0.673402
0.69504
0.723314
0.756285
0.794146
0.832813
0.859736
0.877867
0.891773
0.902547
0.91109
0.918427
0.924845
0.930386
0.935045
0.938579
0.939252
0.93505
0.925621
0.915029
0.907172
0.905478
0.90951
0.92137
0.939733
0.959754
0.97375
0.979105
0.979648
0.976039
0.955828
0.920783
0.898699
0.889585
0.888062
0.889644
0.899583
0.925539
0.948306
0.964969
0.976388
0.984021
0.989675
0.993517
0.995268
0.995508
0.995179
0.994009
0.99267
0.990404
0.985578
0.975538
0.955554
0.909446
0.777778
0.58649
0.42302
0.296509
0.203233
0.136461
0.0899809
0.0583957
0.0374337
0.0237283
0.0149185
0.00927571
0.00571489
0.00345786
0.00205982
0.00119307
0.000668878
0.000372804
0.000173236
0.610283
0.612068
0.603836
0.583495
0.53634
0.474587
0.414354
0.370185
0.327248
0.295666
0.289457
0.286119
0.277328
0.26464
0.259287
0.257855
0.267031
0.289486
0.322111
0.378004
0.459318
0.570125
0.654919
0.742351
0.798446
0.842738
0.865865
0.885269
0.897829
0.904013
0.907131
0.908087
0.904445
0.898489
0.887199
0.872198
0.852331
0.828715
0.804409
0.777377
0.75057
0.72219
0.692126
0.655271
0.613856
0.563957
0.50868
0.450863
0.399986
0.369129
0.356555
0.354848
0.356758
0.364664
0.370791
0.371145
0.372286
0.375929
0.383757
0.400909
0.419774
0.458056
0.593761
0.681168
0.662552
0.68757
0.804524
0.868768
0.88583
0.886253
0.87623
0.847335
0.806653
0.792936
0.79022
0.798615
0.806173
0.808281
0.801994
0.783591
0.737298
0.645268
0.577109
0.554655
0.547731
0.546587
0.547703
0.550515
0.552765
0.555497
0.558766
0.562596
0.567833
0.574631
0.582217
0.590763
0.599185
0.606342
0.611634
0.614852
0.618076
0.621654
0.624522
0.626866
0.628522
0.629871
0.63152
0.633573
0.637047
0.642888
0.65239
0.668194
0.695676
0.739705
0.782643
0.818673
0.846709
0.867872
0.885157
0.900941
0.915525
0.928815
0.940401
0.95012
0.957602
0.962508
0.964627
0.962096
0.947748
0.929565
0.919611
0.919285
0.926868
0.945685
0.965875
0.979612
0.984521
0.98474
0.980434
0.957362
0.922575
0.903544
0.897141
0.896848
0.900013
0.915875
0.940951
0.959455
0.973198
0.983014
0.989482
0.993452
0.995968
0.997521
0.998254
0.998433
0.998409
0.998201
0.997516
0.995726
0.991269
0.980258
0.953074
0.875015
0.68845
0.505618
0.359625
0.25021
0.17143
0.116228
0.0780277
0.0519267
0.0341564
0.0221897
0.0141444
0.00882835
0.00536456
0.00313491
0.00182257
0.0009027
0.616732
0.616023
0.595981
0.54598
0.469585
0.411674
0.364744
0.322903
0.306334
0.300355
0.298744
0.299862
0.30073
0.307242
0.333399
0.381741
0.461809
0.565096
0.666075
0.761496
0.833729
0.870431
0.910758
0.929692
0.946399
0.954253
0.960536
0.96348
0.96547
0.966513
0.967228
0.967468
0.966628
0.964788
0.961396
0.955413
0.945842
0.931821
0.911887
0.88762
0.864318
0.844275
0.82349
0.802196
0.77973
0.759969
0.738211
0.709581
0.664631
0.605826
0.539028
0.46721
0.413635
0.393299
0.38827
0.387243
0.387587
0.390217
0.401743
0.421822
0.442335
0.494296
0.659749
0.734713
0.749592
0.816301
0.867384
0.884645
0.886886
0.879773
0.851502
0.803224
0.786755
0.783935
0.790683
0.804732
0.810283
0.806919
0.78775
0.733127
0.620977
0.556488
0.538592
0.535298
0.539399
0.555358
0.564215
0.568711
0.572427
0.573966
0.576055
0.577033
0.579133
0.582738
0.588247
0.596008
0.605149
0.61506
0.622298
0.625141
0.626593
0.628395
0.630288
0.631778
0.632401
0.632617
0.63272
0.632976
0.633902
0.635758
0.63875
0.642887
0.64936
0.660954
0.678473
0.699373
0.72169
0.745744
0.770932
0.797635
0.826375
0.855927
0.885359
0.913133
0.936823
0.954672
0.966893
0.97447
0.977994
0.978018
0.970353
0.948719
0.935443
0.933883
0.939923
0.958514
0.976157
0.985844
0.988393
0.987679
0.980057
0.951291
0.924507
0.913002
0.910973
0.912249
0.919862
0.941646
0.960833
0.974034
0.983142
0.989528
0.993786
0.996379
0.997893
0.998805
0.999289
0.999453
0.999458
0.999382
0.999053
0.998032
0.995133
0.986983
0.964336
0.896427
0.720908
0.540194
0.394563
0.283007
0.200274
0.140202
0.096988
0.066127
0.0442005
0.0288202
0.0183005
0.0111339
0.00673553
0.00352766
0.619571
0.617512
0.592236
0.527803
0.443285
0.390831
0.360565
0.339929
0.334852
0.340464
0.362105
0.391767
0.442931
0.520572
0.61457
0.706639
0.786404
0.848014
0.894141
0.927358
0.944105
0.957199
0.96376
0.968079
0.970453
0.9721
0.973543
0.973992
0.974059
0.974349
0.975538
0.976734
0.977844
0.978723
0.979895
0.980302
0.980389
0.978261
0.973168
0.963
0.944848
0.917745
0.888891
0.86676
0.844016
0.829709
0.812105
0.797646
0.779848
0.753249
0.719069
0.674497
0.614946
0.535142
0.468627
0.432963
0.419143
0.41739
0.421457
0.434655
0.461627
0.545492
0.722844
0.78656
0.825847
0.866811
0.884192
0.887929
0.883879
0.86272
0.808269
0.78398
0.778238
0.779582
0.796331
0.810483
0.811054
0.797205
0.746486
0.623502
0.541976
0.521368
0.519018
0.532331
0.56793
0.589006
0.598557
0.608419
0.612966
0.615208
0.614666
0.611172
0.609533
0.608655
0.608848
0.612481
0.618943
0.629274
0.639585
0.644355
0.646477
0.64742
0.647947
0.648348
0.648397
0.648257
0.647559
0.64616
0.64477
0.64353
0.642828
0.643435
0.645832
0.65048
0.657997
0.666661
0.675874
0.685353
0.695736
0.709805
0.731708
0.762607
0.798836
0.836821
0.873929
0.907956
0.93665
0.959309
0.974954
0.983144
0.98632
0.986182
0.979454
0.959644
0.949243
0.94892
0.956211
0.973839
0.985882
0.990555
0.990881
0.988377
0.974537
0.948836
0.934322
0.929902
0.93017
0.933996
0.948268
0.965613
0.977659
0.985688
0.990975
0.994487
0.996802
0.998218
0.999025
0.999474
0.999699
0.999767
0.999764
0.999703
0.999439
0.998565
0.995898
0.987964
0.964961
0.894394
0.723437
0.555565
0.417881
0.308979
0.224587
0.160175
0.111768
0.07587
0.0501633
0.0317301
0.0199362
0.0109941
0.623145
0.617962
0.581533
0.506901
0.446671
0.418204
0.407368
0.408082
0.445161
0.490641
0.565793
0.633736
0.714104
0.776874
0.841516
0.884359
0.919872
0.938924
0.949836
0.956047
0.959084
0.960761
0.961348
0.961183
0.958144
0.955557
0.953256
0.951359
0.95056
0.95149
0.954648
0.958817
0.964715
0.96897
0.975727
0.980212
0.984078
0.986391
0.987507
0.988084
0.985255
0.977557
0.961149
0.928245
0.893624
0.865366
0.842858
0.827013
0.81419
0.798783
0.782385
0.750847
0.699901
0.652216
0.608111
0.555583
0.503688
0.471794
0.461327
0.463452
0.486691
0.604468
0.769879
0.828277
0.864595
0.883576
0.888701
0.887066
0.874429
0.827058
0.783654
0.772046
0.770989
0.782888
0.80653
0.812815
0.807559
0.77232
0.660501
0.53779
0.50386
0.498792
0.506822
0.53347
0.566963
0.586247
0.601728
0.615975
0.623336
0.633224
0.637535
0.638809
0.638677
0.635772
0.63466
0.634253
0.634591
0.639271
0.647414
0.656693
0.662011
0.664913
0.666244
0.666581
0.666676
0.666985
0.667401
0.66786
0.668585
0.668533
0.66694
0.664313
0.661212
0.659154
0.660393
0.66497
0.67088
0.676979
0.683255
0.691983
0.707905
0.735185
0.770852
0.808724
0.845268
0.878618
0.907589
0.931881
0.952896
0.97135
0.984078
0.989939
0.991422
0.990288
0.980794
0.965785
0.961413
0.962948
0.973432
0.986228
0.991954
0.993041
0.992204
0.986709
0.969712
0.956146
0.950383
0.949663
0.951288
0.958834
0.972361
0.982303
0.988882
0.993097
0.995777
0.997483
0.998567
0.999225
0.999593
0.999787
0.99987
0.999885
0.999873
0.999797
0.999505
0.998552
0.995639
0.987016
0.96235
0.886956
0.722467
0.56583
0.432968
0.323574
0.235885
0.166825
0.114775
0.0754292
0.0491429
0.0284141
0.624044
0.617071
0.579824
0.525935
0.505563
0.501769
0.52678
0.571714
0.629447
0.689525
0.757079
0.808692
0.861428
0.896542
0.923708
0.936827
0.944309
0.947291
0.948288
0.947608
0.939574
0.928822
0.914945
0.90559
0.896017
0.891329
0.888363
0.88719
0.886904
0.887993
0.890599
0.894581
0.902299
0.913837
0.929382
0.947349
0.964969
0.97773
0.986462
0.990378
0.991979
0.992641
0.989409
0.978931
0.952279
0.906702
0.866944
0.840674
0.824921
0.809658
0.793677
0.782025
0.762259
0.701789
0.637135
0.597243
0.565575
0.536441
0.516627
0.514892
0.535197
0.663545
0.807583
0.856866
0.880637
0.888495
0.88923
0.883362
0.855053
0.79503
0.769573
0.764233
0.767323
0.790082
0.811657
0.813811
0.797615
0.726457
0.572687
0.494202
0.477569
0.475401
0.479045
0.499424
0.517956
0.532017
0.56184
0.588459
0.613844
0.633673
0.645388
0.652606
0.655368
0.653204
0.652219
0.652092
0.653774
0.657447
0.662746
0.669128
0.674855
0.677672
0.679365
0.679358
0.678454
0.678067
0.678282
0.679111
0.680771
0.683322
0.686374
0.690744
0.695688
0.699218
0.699487
0.698086
0.697645
0.698326
0.699758
0.703392
0.712535
0.734641
0.769225
0.806127
0.841351
0.873533
0.901712
0.925175
0.94376
0.958803
0.972622
0.984697
0.991697
0.994103
0.994055
0.99062
0.978559
0.972231
0.972006
0.976519
0.987414
0.993126
0.9947
0.9945
0.992307
0.983593
0.97321
0.967778
0.966233
0.966752
0.97023
0.979306
0.986898
0.991926
0.995095
0.997052
0.998256
0.998996
0.999447
0.999711
0.999852
0.999919
0.999938
0.999937
0.999913
0.999808
0.999448
0.998331
0.995031
0.985538
0.95891
0.877557
0.714907
0.560235
0.426344
0.313724
0.22427
0.153034
0.103434
0.0628329
0.626049
0.622078
0.591942
0.574938
0.574807
0.608745
0.658979
0.70709
0.762975
0.815672
0.861595
0.893299
0.919331
0.931919
0.937984
0.940169
0.940756
0.93525
0.921298
0.900245
0.886625
0.877412
0.872963
0.870251
0.869083
0.868765
0.869059
0.869905
0.870276
0.870498
0.870511
0.870301
0.870039
0.869983
0.872302
0.87994
0.898997
0.929036
0.961992
0.980698
0.990625
0.994527
0.995746
0.995482
0.990808
0.975028
0.928042
0.86881
0.835491
0.815135
0.794183
0.775179
0.765486
0.751696
0.692067
0.620292
0.588883
0.570385
0.557673
0.557543
0.582137
0.718824
0.835416
0.872577
0.886915
0.889996
0.888639
0.875544
0.828532
0.776093
0.760047
0.758177
0.76676
0.796941
0.814068
0.813306
0.783007
0.679957
0.52229
0.460207
0.437458
0.423473
0.408214
0.397332
0.392011
0.398527
0.427703
0.478045
0.549029
0.59259
0.636864
0.657273
0.671382
0.679211
0.678938
0.675785
0.67544
0.681337
0.692394
0.70221
0.706141
0.706794
0.704715
0.700755
0.694465
0.689657
0.686942
0.68602
0.686495
0.688413
0.691213
0.69578
0.703376
0.7146
0.72896
0.743701
0.754896
0.761874
0.766397
0.769491
0.772815
0.7821
0.809217
0.840545
0.865473
0.887084
0.90743
0.926209
0.942962
0.956779
0.967918
0.977842
0.987086
0.993257
0.995727
0.995925
0.994312
0.986307
0.980193
0.979448
0.981548
0.989246
0.994372
0.996072
0.996132
0.995276
0.991247
0.984146
0.979769
0.978111
0.978122
0.97979
0.985354
0.990866
0.994475
0.996718
0.998073
0.998881
0.999363
0.999648
0.999815
0.999906
0.999951
0.999967
0.999967
0.99996
0.999919
0.999775
0.999324
0.997988
0.994111
0.982883
0.950201
0.847639
0.676039
0.517667
0.384295
0.27196
0.190128
0.12061
0.632796
0.635474
0.620327
0.615997
0.643475
0.69926
0.750516
0.800576
0.841732
0.882463
0.907101
0.923883
0.931972
0.935058
0.935974
0.932249
0.918754
0.8941
0.879963
0.872985
0.869825
0.868744
0.868571
0.869251
0.869992
0.871503
0.872325
0.872931
0.873247
0.873356
0.872935
0.871981
0.870034
0.866777
0.863321
0.861631
0.860847
0.867882
0.891489
0.937377
0.973424
0.989537
0.995639
0.997413
0.997856
0.995415
0.984197
0.94019
0.868859
0.83179
0.803758
0.774305
0.739615
0.739529
0.730817
0.663987
0.603198
0.583238
0.577766
0.582138
0.625499
0.771921
0.853375
0.880629
0.888937
0.890129
0.886612
0.864867
0.801273
0.763099
0.75293
0.75184
0.765684
0.799985
0.815943
0.81361
0.773251
0.655593
0.487212
0.413863
0.377711
0.348367
0.306443
0.277037
0.262457
0.258166
0.275909
0.307147
0.366141
0.457482
0.560897
0.624344
0.666249
0.687759
0.701427
0.709094
0.707721
0.708297
0.716573
0.731399
0.739003
0.740772
0.740227
0.737377
0.728343
0.716648
0.70765
0.701743
0.698215
0.696516
0.696384
0.698038
0.703244
0.71286
0.728751
0.748989
0.766164
0.778532
0.789767
0.803944
0.823508
0.849668
0.880505
0.90915
0.930075
0.942664
0.947602
0.949614
0.953569
0.96045
0.968332
0.976127
0.983521
0.990312
0.994958
0.996893
0.997056
0.99596
0.990283
0.985544
0.984909
0.986235
0.991637
0.995704
0.997233
0.99742
0.99708
0.995277
0.990663
0.987342
0.98595
0.985807
0.986698
0.99014
0.993938
0.996412
0.997924
0.998815
0.999332
0.99963
0.9998
0.999896
0.999948
0.999973
0.999983
0.999984
0.999981
0.999964
0.999901
0.9997
0.999091
0.997265
0.991723
0.974567
0.920255
0.766055
0.590047
0.432988
0.313079
0.206799
0.634514
0.644179
0.645066
0.661191
0.699573
0.762263
0.818176
0.851989
0.885088
0.910555
0.92291
0.92924
0.931654
0.93222
0.9255
0.904509
0.88406
0.874576
0.870691
0.869646
0.869577
0.870577
0.872779
0.874342
0.87537
0.875899
0.87609
0.876163
0.876466
0.87687
0.877336
0.878019
0.878409
0.877863
0.873518
0.864826
0.857897
0.855486
0.858402
0.875612
0.924538
0.97085
0.989308
0.996537
0.99851
0.998951
0.997251
0.987083
0.935561
0.865429
0.828111
0.788535
0.735533
0.701071
0.710197
0.696329
0.63502
0.594745
0.588754
0.594734
0.649976
0.80641
0.865839
0.884204
0.889207
0.889896
0.883419
0.848151
0.783879
0.75384
0.744787
0.745166
0.763105
0.801546
0.818313
0.815635
0.776873
0.65796
0.462233
0.377909
0.345268
0.302003
0.249164
0.220959
0.207074
0.202793
0.211125
0.230641
0.264284
0.310678
0.382231
0.503374
0.607339
0.669265
0.701717
0.719701
0.730803
0.732945
0.737462
0.746336
0.753214
0.755582
0.756094
0.755925
0.754527
0.749091
0.738106
0.728119
0.721191
0.716472
0.713443
0.711459
0.710839
0.712994
0.722525
0.741856
0.762996
0.777754
0.790318
0.808186
0.834105
0.865523
0.898076
0.927595
0.950608
0.966711
0.976971
0.981408
0.98159
0.979195
0.977446
0.978302
0.982876
0.988386
0.99329
0.996528
0.997758
0.997792
0.996777
0.992311
0.989155
0.988822
0.989947
0.994036
0.996962
0.998143
0.99835
0.998198
0.997259
0.994413
0.992083
0.9911
0.990968
0.991501
0.993714
0.996191
0.997792
0.998762
0.99932
0.999631
0.999803
0.999897
0.999948
0.999974
0.999987
0.999992
0.999992
0.999991
0.999982
0.99995
0.999845
0.999509
0.998447
0.995025
0.983784
0.946275
0.825017
0.62953
0.471045
0.323459
0.636954
0.661417
0.671864
0.68961
0.738508
0.803738
0.852751
0.88115
0.905193
0.919733
0.925806
0.928445
0.928953
0.922669
0.900839
0.882499
0.873794
0.870657
0.869955
0.870208
0.872464
0.874041
0.874597
0.874768
0.874781
0.874231
0.873969
0.873887
0.874039
0.874482
0.875352
0.876822
0.87879
0.88071
0.881566
0.879952
0.870373
0.857394
0.853785
0.858823
0.878153
0.935183
0.974739
0.991474
0.997677
0.999235
0.999501
0.9979
0.985517
0.914221
0.856504
0.818792
0.757337
0.687291
0.676869
0.681645
0.655257
0.611757
0.598938
0.601626
0.65207
0.810724
0.869621
0.884703
0.889075
0.888663
0.875084
0.824869
0.770863
0.746263
0.738338
0.740927
0.75773
0.799612
0.822012
0.820224
0.787593
0.674766
0.472493
0.367114
0.312416
0.264156
0.215442
0.19267
0.182717
0.179015
0.182684
0.195881
0.223819
0.262595
0.311408
0.377427
0.479648
0.60187
0.676939
0.717084
0.738418
0.749638
0.753923
0.758546
0.761569
0.763531
0.764122
0.764256
0.764743
0.764155
0.761486
0.754835
0.747086
0.741245
0.738363
0.736606
0.734925
0.733412
0.733413
0.740275
0.760565
0.776672
0.790329
0.810099
0.838257
0.871242
0.904137
0.933473
0.956687
0.972811
0.9832
0.989495
0.992385
0.992821
0.992088
0.98919
0.987786
0.988411
0.991913
0.995657
0.997735
0.998376
0.9983
0.99715
0.993557
0.991775
0.991718
0.99287
0.996055
0.998004
0.99881
0.998965
0.998874
0.998266
0.996462
0.995081
0.994542
0.994487
0.994821
0.996243
0.997784
0.998749
0.99932
0.999641
0.999815
0.999906
0.999953
0.999978
0.999989
0.999995
0.999996
0.999996
0.999995
0.99999
0.99997
0.999901
0.999671
0.998897
0.996267
0.987192
0.956077
0.844963
0.658533
0.469775
0.640901
0.668193
0.687398
0.721451
0.760229
0.829177
0.875887
0.89745
0.912455
0.921313
0.925212
0.926376
0.92319
0.906384
0.885936
0.875555
0.871343
0.870254
0.870272
0.872418
0.873964
0.874382
0.874396
0.87368
0.872961
0.872648
0.872585
0.872801
0.872946
0.873122
0.873334
0.87374
0.87488
0.87867
0.882214
0.883465
0.882061
0.872341
0.857074
0.856604
0.865978
0.902475
0.956334
0.98381
0.994899
0.998745
0.999679
0.999748
0.997773
0.975684
0.88949
0.846806
0.806652
0.710435
0.653454
0.655044
0.648702
0.622354
0.606703
0.605563
0.639075
0.795757
0.867817
0.884316
0.888487
0.886724
0.866608
0.806844
0.760121
0.73725
0.731252
0.734653
0.749718
0.793803
0.821545
0.824506
0.805431
0.717387
0.509842
0.378456
0.313826
0.264335
0.216092
0.190299
0.176617
0.171412
0.172201
0.179822
0.198444
0.239553
0.292397
0.344714
0.409518
0.508391
0.621313
0.695683
0.736324
0.757372
0.769339
0.772945
0.772918
0.772944
0.772522
0.771557
0.770573
0.770108
0.76973
0.769061
0.767923
0.765681
0.762329
0.760941
0.761257
0.762122
0.762953
0.76437
0.770876
0.786879
0.803965
0.825734
0.853929
0.885637
0.915973
0.941787
0.962128
0.976628
0.98609
0.992027
0.995344
0.996657
0.996811
0.99645
0.994644
0.993281
0.993285
0.994727
0.997309
0.998545
0.998804
0.99862
0.997184
0.994654
0.993818
0.993941
0.995259
0.997551
0.998781
0.99927
0.999354
0.999281
0.99881
0.997723
0.997069
0.996863
0.996864
0.997079
0.997929
0.998801
0.99934
0.999652
0.999822
0.999912
0.999958
0.99998
0.999991
0.999996
0.999998
0.999998
0.999998
0.999997
0.999993
0.999978
0.999923
0.99973
0.999052
0.996643
0.988073
0.957229
0.856419
0.641005
0.641896
0.679308
0.696721
0.732555
0.776237
0.828144
0.877314
0.899967
0.912345
0.920587
0.923694
0.921828
0.910532
0.893342
0.879261
0.8729
0.870549
0.870235
0.871482
0.873615
0.874397
0.874424
0.873725
0.872746
0.872247
0.872042
0.872178
0.872509
0.872859
0.873038
0.873175
0.873334
0.873832
0.875689
0.880924
0.884221
0.884461
0.880421
0.867375
0.860644
0.864064
0.889218
0.945168
0.978502
0.992809
0.997906
0.999492
0.999883
0.999807
0.996773
0.954984
0.867985
0.835994
0.784462
0.67776
0.636672
0.633497
0.621646
0.60939
0.607038
0.624964
0.754815
0.85882
0.882877
0.886925
0.883101
0.854012
0.792215
0.749614
0.728242
0.723445
0.725857
0.737784
0.780408
0.818121
0.826845
0.819175
0.773495
0.604979
0.421737
0.331139
0.275221
0.226357
0.197185
0.180607
0.173981
0.174072
0.177342
0.189491
0.227121
0.289356
0.340965
0.394411
0.46482
0.565118
0.658946
0.721259
0.755345
0.771968
0.779181
0.781234
0.781217
0.779453
0.776027
0.773983
0.773173
0.773146
0.773473
0.77442
0.777459
0.781148
0.782771
0.783768
0.785543
0.789459
0.796723
0.804784
0.818369
0.839609
0.866328
0.89578
0.924895
0.949045
0.965964
0.97725
0.984993
0.990363
0.994165
0.996734
0.998106
0.998522
0.998517
0.998182
0.996879
0.996117
0.996126
0.996947
0.99844
0.999048
0.999097
0.998778
0.997179
0.995749
0.995462
0.995735
0.997117
0.998589
0.999309
0.99957
0.999602
0.999532
0.999155
0.998645
0.998414
0.998371
0.998393
0.998548
0.999017
0.999433
0.999693
0.999842
0.999922
0.999963
0.999983
0.999992
0.999997
0.999998
0.999999
0.999999
0.999999
0.999998
0.999995
0.999981
0.99993
0.999744
0.999063
0.996565
0.987389
0.955171
0.831289
0.643015
0.677926
0.711079
0.731776
0.774537
0.821832
0.87249
0.897682
0.910641
0.918452
0.9207
0.918907
0.91017
0.893017
0.879618
0.873159
0.870645
0.870271
0.871238
0.873394
0.874337
0.874474
0.87417
0.873265
0.872665
0.872186
0.872187
0.87241
0.872994
0.873209
0.873224
0.873292
0.87366
0.875175
0.880301
0.884695
0.885441
0.882518
0.870598
0.865537
0.866903
0.885524
0.940283
0.97624
0.991926
0.997621
0.999382
0.999859
0.999967
0.999797
0.994718
0.928276
0.853767
0.8284
0.756347
0.658945
0.628877
0.619447
0.610766
0.609106
0.625412
0.750378
0.856165
0.880698
0.883102
0.873561
0.825459
0.769629
0.733771
0.716786
0.713616
0.715664
0.725635
0.761613
0.809029
0.826422
0.825725
0.808875
0.736254
0.528455
0.38415
0.307078
0.252237
0.217371
0.194919
0.184502
0.184559
0.188286
0.199579
0.231353
0.3229
0.385874
0.411611
0.456849
0.534915
0.63222
0.70442
0.748343
0.771582
0.781692
0.785078
0.785639
0.785287
0.782765
0.779308
0.777393
0.776666
0.776638
0.77729
0.780582
0.787912
0.793301
0.798352
0.804445
0.81436
0.82402
0.835965
0.855057
0.883342
0.915626
0.946674
0.968714
0.981514
0.988879
0.993059
0.995413
0.996736
0.997559
0.998312
0.998961
0.99929
0.999341
0.999288
0.998914
0.998037
0.997692
0.997746
0.998372
0.999131
0.999342
0.999289
0.99873
0.997355
0.996773
0.996749
0.997195
0.998439
0.999259
0.999635
0.999754
0.999758
0.999689
0.999452
0.999289
0.999242
0.999244
0.999282
0.999441
0.999656
0.999804
0.999895
0.999947
0.999975
0.999988
0.999995
0.999998
0.999999
1
1
1
0.999999
0.999999
0.999995
0.999981
0.999927
0.999725
0.998963
0.996101
0.985628
0.94123
0.64561
0.671965
0.711656
0.729422
0.768701
0.808991
0.859979
0.890983
0.906558
0.915421
0.91835
0.917612
0.911864
0.895942
0.881922
0.874493
0.871181
0.870394
0.870638
0.872194
0.873794
0.874338
0.874358
0.874278
0.874088
0.873749
0.873757
0.873778
0.873698
0.873406
0.873255
0.873328
0.873881
0.876105
0.882493
0.88667
0.886599
0.883008
0.871102
0.866299
0.86929
0.889883
0.942388
0.97658
0.991944
0.997613
0.999372
0.99985
0.999974
0.999985
0.999587
0.988091
0.895163
0.846493
0.822295
0.742565
0.654372
0.626443
0.616729
0.616089
0.637283
0.764197
0.858342
0.879173
0.879818
0.867129
0.811166
0.751452
0.717816
0.704223
0.702177
0.704214
0.713685
0.74647
0.795827
0.823694
0.828686
0.824054
0.797742
0.71403
0.51005
0.379168