/*--------------------------------*- C++ -*----------------------------------*\
  =========                 |
  \\      /  F ield         | OpenFOAM: The Open Source CFD Toolbox
   \\    /   O peration     | Website:  https://openfoam.org
    \\  /    A nd           | Version:  7
     \\/     M anipulation  |
\*---------------------------------------------------------------------------*/
FoamFile
{
    version     2.0;
    format      ascii;
    class       volScalarField;
    location    "0.085";
    object      s_0;
}
// * * * * * * * * * * * * * * * * * * * * * * * * * * * * * * * * * * * * * //

dimensions      [0 0 0 0 0 0 0];

internalField   nonuniform List<scalar> 
12225
(
1
1
1
1
1
1
1
1
1
1
1
1
1
1
1
1
1
1
1
1
1
1
1
1
1
1
1
1
1
1
1
1
1
1
1
1
1
1
1
1
1
1
1
1
1
1
1
1
1
1
1
1
1
1
1
1
1
1
1
1
1
1
1
1
1
1
1
1
1
1
1
1
1
1
1
1
1
1
1
1
1
1
1
1
1
1
1
1
1
1
1
1
1
1
1
1
1
1
1
1
1
1
1
1
1
1
1
1
1
1
1
1
1
1
1
1
1
1
1
1
1
1
1
1
1
1
1
1
1
1
1
1
1
1
1
1
1
1
1
1
1
1
1
1
1
1
1
1
1
1
1
1
1
1
1
1
1
1
1
1
1
1
1
1
1
1
1
1
1
1
1
1
1
1
1
1
1
1
1
1
1
1
1
1
1
1
1
1
1
1
1
1
1
1
1
1
1
1
1
1
1
1
1
1
1
1
1
1
1
1
1
1
1
1
1
1
1
1
1
1
1
1
1
1
1
1
1
1
1
1
1
1
1
1
1
1
1
1
1
1
1
1
1
1
1
1
1
1
1
1
1
1
1
1
1
1
1
1
1
1
1
1
1
1
1
1
1
1
1
1
1
1
1
1
1
1
1
1
1
1
1
1
1
1
1
1
1
1
1
1
1
1
1
1
1
1
1
1
1
1
1
1
1
1
1
1
1
1
1
1
1
1
1
1
1
1
1
1
1
1
1
1
1
1
1
1
1
1
1
1
1
1
1
1
1
1
1
1
1
1
1
1
1
1
1
1
1
1
1
1
1
1
1
1
1
1
1
1
1
1
1
1
1
1
1
1
1
1
1
1
1
1
1
1
1
1
1
1
1
1
1
1
1
1
1
1
1
1
1
1
1
1
1
1
1
1
1
1
1
1
1
1
1
1
1
1
1
1
1
1
1
1
1
1
1
1
1
1
1
1
1
1
1
1
1
1
1
1
1
1
1
1
1
1
1
1
1
1
1
1
1
1
1
1
1
1
1
1
1
1
1
1
1
1
1
1
1
1
1
1
1
1
1
1
1
1
1
1
1
1
1
1
1
1
1
1
1
1
1
1
1
1
1
1
1
1
1
1
1
1
1
1
1
1
1
1
1
1
1
1
1
1
1
1
1
1
1
1
1
1
1
1
1
1
1
1
1
1
1
1
1
1
1
1
1
1
1
1
1
1
1
1
1
1
1
1
1
1
1
1
0.151806
0.15128
0.158432
0.169584
0.177554
0.189721
0.207262
0.234151
0.273205
0.296172
0.321062
0.337146
0.348818
0.362788
0.376492
0.387279
0.395453
0.401556
0.405712
0.408814
0.41138
0.413537
0.415639
0.417775
0.419485
0.420959
0.422267
0.422853
0.422717
0.422318
0.421837
0.420969
0.420082
0.419851
0.419906
0.420372
0.421904
0.423336
0.423803
0.424188
0.426512
0.420718
0.275989
0.0730354
0.0453823
0.0496272
0.0706115
0.088977
0.106363
0.124276
0.139265
0.150732
0.1612
0.171713
0.180982
0.186923
0.197599
0.210578
0.228998
0.266409
0.317284
0.353249
0.370979
0.356807
0.27624
0.205488
0.198201
0.21606
0.250915
0.301315
0.42516
0.65886
0.819143
0.878378
0.890066
0.890373
0.889544
0.887905
0.886158
0.884718
0.883387
0.881979
0.880638
0.879481
0.878404
0.877325
0.876273
0.875273
0.874476
0.874124
0.873989
0.874017
0.874518
0.875315
0.876116
0.877346
0.878716
0.879905
0.881069
0.88235
0.883653
0.884808
0.885905
0.887041
0.88811
0.888965
0.889661
0.890419
0.891122
0.891526
0.891989
0.892335
0.892556
0.892701
0.892751
0.892584
0.892269
0.891744
0.890969
0.889864
0.888333
0.88613
0.883056
0.879258
0.875205
0.870806
0.865151
0.857051
0.847307
0.839762
0.834536
0.827181
0.809091
0.781845
0.761819
0.739535
0.696738
0.627414
0.532737
0.420688
0.305557
0.202356
0.121421
0.0657885
0.0321822
0.0142561
0.00574623
0.0021124
0.000701705
0.00020655
7.12992e-05
3.76951e-05
1.91271e-05
9.36175e-06
4.45903e-06
2.07843e-06
9.5313e-07
4.32417e-07
1.9513e-07
8.79944e-08
3.97936e-08
1.80822e-08
8.259e-09
3.78801e-09
1.74131e-09
8.00409e-10
3.67009e-10
1.67499e-10
7.59355e-11
3.41363e-11
1.51901e-11
6.6798e-12
2.89662e-12
1.23611e-12
5.17324e-13
2.11659e-13
8.41797e-14
3.21768e-14
1.22947e-14
-1.50905e-14
0.152628
0.152256
0.15377
0.154757
0.152712
0.160311
0.177807
0.212634
0.263651
0.322366
0.371883
0.409276
0.437375
0.454775
0.465014
0.470605
0.472152
0.472222
0.472008
0.471236
0.470214
0.468071
0.465753
0.464055
0.460279
0.454261
0.447506
0.435629
0.420188
0.404946
0.391291
0.377296
0.364449
0.357497
0.355841
0.356625
0.359744
0.368089
0.393462
0.410025
0.422928
0.425421
0.410803
0.400535
0.400201
0.389667
0.332811
0.16368
0.0992002
0.104629
0.13089
0.155485
0.184351
0.222064
0.270287
0.319549
0.347544
0.362331
0.380195
0.407957
0.437922
0.476748
0.519888
0.546757
0.544989
0.489456
0.379476
0.372878
0.381436
0.469063
0.760275
0.860513
0.881606
0.887899
0.888727
0.886041
0.881294
0.874057
0.864516
0.852034
0.841016
0.83567
0.828918
0.821951
0.818191
0.813529
0.808435
0.805692
0.803907
0.802375
0.801789
0.801635
0.802438
0.804412
0.80699
0.811351
0.815561
0.820211
0.825063
0.829954
0.834831
0.83948
0.844422
0.849504
0.854442
0.858961
0.863116
0.867499
0.871914
0.875712
0.879894
0.884886
0.889284
0.893639
0.897898
0.902054
0.906184
0.910315
0.914458
0.918665
0.922932
0.927231
0.93125
0.934166
0.936162
0.937486
0.938003
0.93725
0.933458
0.927317
0.920383
0.915249
0.913008
0.913025
0.915307
0.923663
0.943224
0.955613
0.956776
0.953914
0.944162
0.920413
0.878047
0.828654
0.785335
0.750797
0.706998
0.630876
0.520826
0.401074
0.298266
0.218746
0.1575
0.110755
0.0757574
0.0502715
0.0323206
0.0201259
0.0121427
0.00710462
0.00403599
0.00222931
0.00119916
0.000629213
0.000322579
0.000161853
7.95921e-05
3.84194e-05
1.82188e-05
8.49901e-06
3.89869e-06
1.76116e-06
7.81175e-07
3.41207e-07
1.45524e-07
6.10975e-08
2.47748e-08
9.69135e-09
4.27035e-09
-1.69417e-08
0.109412
0.128667
0.154489
0.185009
0.242276
0.313814
0.379602
0.439741
0.475455
0.495124
0.500956
0.500575
0.498961
0.49645
0.493127
0.488109
0.482414
0.473757
0.463633
0.452504
0.438598
0.421808
0.400913
0.369039
0.333521
0.298543
0.269218
0.251687
0.243046
0.237539
0.234851
0.234547
0.235578
0.236562
0.236918
0.236593
0.236329
0.236998
0.242174
0.260665
0.295649
0.349616
0.379664
0.392953
0.403456
0.40703
0.405717
0.397308
0.373207
0.292266
0.186334
0.149511
0.146582
0.151888
0.162399
0.17807
0.209642
0.236218
0.264597
0.334511
0.397131
0.425251
0.486816
0.555065
0.580816
0.580318
0.56616
0.503146
0.543963
0.80436
0.875614
0.885055
0.886025
0.884222
0.876521
0.860436
0.8343
0.820817
0.810601
0.804583
0.801612
0.798304
0.793786
0.787162
0.777388
0.764156
0.750935
0.739995
0.731345
0.724806
0.720621
0.718027
0.716696
0.716419
0.718186
0.723545
0.731028
0.739776
0.749204
0.758338
0.766253
0.77415
0.782793
0.791693
0.800678
0.808952
0.816454
0.823744
0.830884
0.837453
0.843289
0.848557
0.852921
0.856632
0.859969
0.863726
0.867994
0.872423
0.877022
0.881831
0.886896
0.892304
0.89854
0.906725
0.916424
0.92673
0.936932
0.945875
0.950791
0.952611
0.952125
0.945044
0.929188
0.912985
0.899515
0.892153
0.890196
0.890941
0.897418
0.917769
0.939842
0.958272
0.969709
0.97346
0.973594
0.972685
0.969479
0.959936
0.936875
0.916047
0.898936
0.879037
0.840369
0.747828
0.608758
0.467956
0.348009
0.254947
0.183504
0.129188
0.0886845
0.0592704
0.0385483
0.0244105
0.0150655
0.0090769
0.00534738
0.00308781
0.00175063
0.000977748
0.000538369
0.000293607
0.000158141
8.47119e-05
4.45932e-05
2.33715e-05
1.18785e-05
5.92564e-06
2.99928e-06
9.98097e-07
0.0775865
0.229856
0.386813
0.477248
0.520952
0.537728
0.536993
0.535034
0.530565
0.520928
0.509174
0.494149
0.470383
0.443019
0.405844
0.367998
0.349588
0.333215
0.310488
0.284094
0.257677
0.238972
0.224772
0.218508
0.216971
0.218378
0.228401
0.244294
0.264932
0.286843
0.305256
0.318788
0.326453
0.329518
0.328505
0.321662
0.312156
0.299978
0.286607
0.275802
0.268373
0.267048
0.275875
0.297051
0.325145
0.353819
0.379164
0.395158
0.39809
0.394081
0.376484
0.333293
0.259478
0.204392
0.176219
0.163956
0.159259
0.159486
0.17219
0.221139
0.326006
0.381712
0.468851
0.556542
0.592184
0.59342
0.569953
0.593054
0.801649
0.877401
0.88641
0.884511
0.879439
0.863721
0.830176
0.811383
0.804161
0.802376
0.802124
0.801086
0.798481
0.79067
0.774737
0.75045
0.718556
0.681931
0.648128
0.624867
0.613041
0.607668
0.605719
0.605379
0.606736
0.61098
0.617266
0.624515
0.632392
0.641027
0.650724
0.661553
0.673961
0.687005
0.700795
0.716341
0.734061
0.753259
0.772829
0.791909
0.808796
0.823649
0.837721
0.850762
0.861926
0.870661
0.877689
0.883145
0.886934
0.889797
0.891965
0.893412
0.89404
0.893862
0.892788
0.891955
0.893143
0.897076
0.903084
0.91223
0.926991
0.943879
0.958882
0.967642
0.970582
0.970252
0.963255
0.938257
0.910964
0.893289
0.885621
0.8843
0.885971
0.89595
0.921874
0.944028
0.959933
0.97228
0.981557
0.986426
0.987691
0.987665
0.987156
0.985578
0.980665
0.964617
0.947271
0.934144
0.912566
0.861725
0.725408
0.551291
0.402343
0.286777
0.199997
0.136194
0.0904853
0.0586924
0.0372171
0.0231353
0.0141303
0.00851393
0.00506648
0.00299117
0.00174629
0.00101336
0.000577683
0.000326348
0.000178817
9.57172e-05
5.08892e-05
2.16173e-05
0.471831
0.553473
0.586546
0.583352
0.575452
0.558806
0.536497
0.510129
0.474392
0.41641
0.363028
0.331429
0.310827
0.294293
0.26906
0.249937
0.245122
0.244222
0.244524
0.249063
0.256421
0.263355
0.287622
0.326142
0.376092
0.437429
0.504631
0.559418
0.603249
0.635082
0.656368
0.666787
0.670589
0.665768
0.651036
0.630814
0.605966
0.578417
0.546924
0.514333
0.477516
0.438532
0.403239
0.373364
0.348663
0.330732
0.323061
0.324644
0.339185
0.368742
0.38293
0.382982
0.37829
0.365444
0.339487
0.296407
0.27973
0.282346
0.295363
0.335262
0.38298
0.417966
0.514439
0.620833
0.628081
0.608039
0.634086
0.79927
0.872991
0.887007
0.885166
0.876133
0.853722
0.815817
0.801104
0.797059
0.800595
0.803481
0.803795
0.799665
0.786296
0.759831
0.711174
0.635206
0.582388
0.564945
0.559087
0.557664
0.557492
0.558248
0.560654
0.564678
0.570364
0.577476
0.58515
0.593378
0.601225
0.607748
0.612906
0.61696
0.621511
0.626451
0.630966
0.635775
0.641253
0.648454
0.658768
0.673646
0.695406
0.723715
0.756716
0.794577
0.833182
0.859976
0.878065
0.89194
0.902688
0.911211
0.918532
0.92493
0.930449
0.935082
0.938561
0.939116
0.934716
0.925224
0.914643
0.906911
0.905377
0.909579
0.921606
0.940091
0.960086
0.97392
0.979159
0.979651
0.975912
0.95528
0.920332
0.898464
0.889507
0.88805
0.889688
0.899849
0.925919
0.948573
0.965157
0.976514
0.984112
0.989742
0.993557
0.995285
0.995514
0.995178
0.994001
0.99266
0.990376
0.985508
0.975394
0.955244
0.908638
0.775703
0.58449
0.421416
0.295307
0.202364
0.135849
0.0895624
0.0581162
0.0372507
0.0236105
0.0148435
0.00922846
0.0056853
0.00343956
0.0020486
0.00118634
0.000664973
0.000370531
0.000172144
0.610221
0.612019
0.60381
0.583536
0.536601
0.474965
0.414734
0.370551
0.327579
0.295741
0.28947
0.286163
0.277482
0.264768
0.259331
0.25785
0.266913
0.28936
0.32189
0.377625
0.458692
0.569277
0.654077
0.741463
0.797748
0.8421
0.865399
0.884714
0.897342
0.903544
0.906668
0.907622
0.903928
0.897925
0.886555
0.871438
0.851449
0.827693
0.803293
0.776143
0.749212
0.72068
0.690478
0.653387
0.611834
0.561814
0.506453
0.448798
0.3985
0.368302
0.356207
0.354716
0.356786
0.36497
0.371033
0.371387
0.372554
0.376257
0.384152
0.4014
0.420396
0.459095
0.59587
0.681604
0.662658
0.688781
0.805904
0.869202
0.885979
0.886327
0.876254
0.847279
0.806474
0.792718
0.78999
0.798394
0.806183
0.808447
0.802357
0.784259
0.738693
0.647337
0.577836
0.554878
0.547762
0.546564
0.547626
0.550404
0.552643
0.555354
0.558605
0.562413
0.56762
0.574402
0.581979
0.590526
0.598971
0.606162
0.611497
0.614744
0.617975
0.621568
0.624454
0.626814
0.628484
0.629841
0.631493
0.633553
0.637048
0.642922
0.65248
0.668389
0.696054
0.740321
0.783342
0.819391
0.847382
0.868435
0.885702
0.901452
0.915983
0.929199
0.940698
0.950339
0.957741
0.962573
0.964607
0.961883
0.947205
0.929138
0.919416
0.919239
0.927091
0.946056
0.966196
0.97977
0.984565
0.98474
0.980289
0.956795
0.922169
0.90336
0.897097
0.896845
0.900104
0.916238
0.941258
0.959679
0.97336
0.983123
0.989551
0.993494
0.995996
0.997537
0.998261
0.998436
0.998411
0.998199
0.997506
0.995698
0.991196
0.980078
0.952609
0.873542
0.686225
0.503812
0.358242
0.249202
0.17072
0.115737
0.0776923
0.0516995
0.0340038
0.0220878
0.0140772
0.00878466
0.00533675
0.0031179
0.00181214
0.000897318
0.616698
0.616012
0.596091
0.546339
0.470111
0.412127
0.365191
0.323213
0.306481
0.300448
0.29883
0.300023
0.301003
0.30751
0.333624
0.381963
0.461911
0.564886
0.665782
0.761051
0.833434
0.870136
0.910509
0.92947
0.94623
0.954108
0.960424
0.963379
0.965371
0.966416
0.967129
0.96737
0.96651
0.964638
0.961189
0.955114
0.945418
0.931213
0.911098
0.886692
0.863387
0.843251
0.822442
0.801132
0.778653
0.758802
0.736913
0.707954
0.662565
0.603612
0.536873
0.465437
0.412743
0.393073
0.388264
0.387321
0.387709
0.390464
0.402354
0.422376
0.443005
0.495658
0.661635
0.73521
0.750345
0.817191
0.867814
0.884807
0.886969
0.879798
0.851471
0.803059
0.786532
0.783697
0.790417
0.804611
0.810382
0.807193
0.788358
0.734328
0.622804
0.556891
0.538594
0.535183
0.539071
0.554961
0.563941
0.568438
0.572168
0.573721
0.575824
0.57681
0.57889
0.582478
0.587966
0.59571
0.604843
0.614755
0.622078
0.624968
0.626438
0.62825
0.630156
0.631667
0.632306
0.632532
0.632645
0.632912
0.633845
0.635711
0.638716
0.642865
0.649388
0.661082
0.678755
0.69984
0.722362
0.74666
0.771976
0.79878
0.827549
0.857053
0.886379
0.913979
0.937432
0.95508
0.967141
0.9746
0.978029
0.977966
0.96996
0.948231
0.935231
0.933842
0.940115
0.958883
0.976407
0.985946
0.988414
0.987654
0.979825
0.950769
0.924234
0.912917
0.910971
0.912288
0.920068
0.941983
0.96106
0.974189
0.983248
0.9896
0.993831
0.996406
0.997909
0.998814
0.999294
0.999454
0.999459
0.999381
0.999047
0.998014
0.995083
0.986842
0.96394
0.895158
0.718733
0.538431
0.393191
0.281983
0.199529
0.139667
0.0966078
0.0658578
0.0440119
0.0286905
0.0182132
0.0110777
0.00669936
0.00350777
0.619542
0.617543
0.592481
0.528356
0.443866
0.391306
0.361028
0.340246
0.335109
0.340671
0.362432
0.392253
0.443654
0.521014
0.614919
0.70675
0.786219
0.847872
0.893932
0.927217
0.943988
0.957105
0.963681
0.968026
0.970407
0.972032
0.973508
0.973988
0.974076
0.974359
0.975542
0.976751
0.977864
0.978727
0.979886
0.9803
0.980312
0.978118
0.972916
0.962556
0.944088
0.916856
0.887948
0.865954
0.843243
0.828968
0.811456
0.796987
0.778975
0.752084
0.717598
0.672944
0.613141
0.533452
0.467608
0.432566
0.419152
0.417578
0.42182
0.435231
0.462408
0.547447
0.724155
0.787097
0.82651
0.867202
0.884354
0.888006
0.88393
0.862682
0.808124
0.783783
0.778022
0.779347
0.796119
0.810549
0.811232
0.797625
0.747408
0.625099
0.542252
0.5212
0.518698
0.531584
0.567085
0.588571
0.59823
0.608156
0.612729
0.614985
0.614468
0.610986
0.609319
0.60841
0.608587
0.612191
0.618633
0.628955
0.63934
0.644147
0.646282
0.64723
0.647763
0.648175
0.648227
0.64809
0.647396
0.645999
0.64461
0.643381
0.642697
0.643337
0.645764
0.65045
0.658005
0.666722
0.676003
0.685557
0.696047
0.710285
0.73241
0.763481
0.799789
0.837805
0.874908
0.908821
0.937349
0.95982
0.97524
0.983273
0.986352
0.986148
0.979138
0.959244
0.949114
0.948906
0.956461
0.974118
0.986026
0.990596
0.990884
0.988303
0.974169
0.948548
0.934199
0.92989
0.930192
0.934105
0.948543
0.96582
0.977799
0.98578
0.991034
0.994526
0.996826
0.998232
0.999033
0.999479
0.999701
0.999767
0.999764
0.999702
0.999434
0.998549
0.995851
0.987825
0.964559
0.893088
0.721454
0.553945
0.416587
0.307973
0.223818
0.159595
0.111338
0.0755587
0.0499429
0.0315813
0.0198358
0.0109356
0.623141
0.618055
0.581918
0.507539
0.447231
0.418725
0.407872
0.408546
0.445728
0.491154
0.566372
0.634291
0.714396
0.777097
0.841568
0.884344
0.919758
0.938908
0.949776
0.955994
0.95903
0.960715
0.961304
0.961162
0.958157
0.955565
0.953309
0.95149
0.950716
0.951691
0.954874
0.959044
0.964919
0.969167
0.975876
0.980326
0.984134
0.98642
0.987482
0.988026
0.985105
0.977227
0.960558
0.92743
0.89291
0.864837
0.842451
0.826682
0.813886
0.798424
0.781782
0.74961
0.698482
0.651163
0.607161
0.554725
0.503171
0.471713
0.461568
0.463866
0.487593
0.606616
0.770929
0.828786
0.864958
0.883739
0.888781
0.887118
0.87441
0.826905
0.783454
0.771814
0.770748
0.782665
0.806505
0.81291
0.807801
0.773002
0.661916
0.538114
0.503635
0.498402
0.506155
0.532613
0.566175
0.585719
0.60132
0.615719
0.623107
0.633021
0.637339
0.638598
0.638491
0.635583
0.63445
0.634039
0.634361
0.639019
0.647164
0.656463
0.661806
0.664724
0.666066
0.66641
0.66651
0.666821
0.667235
0.667684
0.668393
0.668304
0.666668
0.663987
0.660864
0.658872
0.660204
0.664848
0.670795
0.676928
0.683246
0.692059
0.708136
0.735598
0.771385
0.809315
0.845881
0.879215
0.908137
0.932379
0.95337
0.97173
0.984286
0.990018
0.991434
0.990226
0.980456
0.965578
0.961365
0.963001
0.973693
0.986386
0.992011
0.993051
0.992183
0.986559
0.96945
0.95602
0.950351
0.949676
0.951342
0.959017
0.972528
0.982419
0.988956
0.993144
0.995807
0.997502
0.998579
0.999232
0.999597
0.999789
0.99987
0.999885
0.999873
0.999796
0.9995
0.998535
0.995588
0.986868
0.961927
0.88558
0.720705
0.564317
0.43171
0.322554
0.235078
0.166206
0.114312
0.0751003
0.0489108
0.0282711
0.62405
0.617191
0.58023
0.52641
0.506056
0.502288
0.527292
0.57224
0.629861
0.689893
0.757398
0.808953
0.861498
0.896599
0.923714
0.936808
0.944282
0.947263
0.948253
0.947577
0.939528
0.928776
0.914899
0.905558
0.896009
0.891329
0.888396
0.88726
0.887007
0.888126
0.890796
0.89485
0.902707
0.914299
0.929919
0.947899
0.965285
0.977977
0.986562
0.990424
0.991964
0.992581
0.989224
0.978464
0.951295
0.905525
0.866226
0.840321
0.824721
0.809462
0.793562
0.781886
0.761665
0.700209
0.636152
0.596672
0.565258
0.536364
0.516878
0.515355
0.536114
0.665474
0.808393
0.857233
0.880818
0.88857
0.889269
0.883361
0.854935
0.794825
0.769367
0.764024
0.767105
0.789873
0.811698
0.81395
0.797968
0.727277
0.57373
0.494071
0.477099
0.474844
0.478244
0.498357
0.51705
0.531259
0.561206
0.588077
0.613517
0.633469
0.645191
0.652386
0.655104
0.652923
0.651957
0.651828
0.653491
0.657136
0.662404
0.668785
0.674542
0.677389
0.679126
0.679148
0.678286
0.67793
0.678165
0.679006
0.680677
0.683244
0.686308
0.690678
0.695538
0.698885
0.698952
0.697446
0.696991
0.697703
0.699213
0.703026
0.712367
0.734822
0.769558
0.806528
0.841804
0.874009
0.902166
0.92557
0.944095
0.959111
0.972926
0.984916
0.991797
0.994128
0.994048
0.990473
0.978329
0.972167
0.972004
0.976681
0.987565
0.993188
0.994715
0.994498
0.992251
0.983426
0.973107
0.967741
0.966237
0.966779
0.970325
0.979439
0.986986
0.991983
0.99513
0.997073
0.998269
0.999003
0.999452
0.999713
0.999853
0.99992
0.999939
0.999937
0.999913
0.999806
0.999441
0.998311
0.994975
0.98538
0.958461
0.87611
0.713237
0.558733
0.425065
0.31268
0.223445
0.152419
0.10298
0.062536
0.626054
0.622184
0.592266
0.575219
0.575106
0.609026
0.659353
0.707497
0.763225
0.8159
0.861742
0.893399
0.91932
0.931916
0.937971
0.940151
0.940736
0.935233
0.921286
0.900199
0.886563
0.877346
0.872899
0.870197
0.869034
0.868718
0.86902
0.869874
0.870249
0.870484
0.870501
0.870304
0.870041
0.870054
0.872472
0.880245
0.899692
0.929782
0.96245
0.98098
0.990721
0.994544
0.995749
0.995411
0.990573
0.97435
0.926553
0.867842
0.835057
0.814886
0.794009
0.775118
0.765607
0.751377
0.690721
0.619587
0.588623
0.57036
0.557913
0.557947
0.583094
0.720519
0.835994
0.872804
0.886997
0.890024
0.88866
0.875505
0.828227
0.775879
0.759842
0.757968
0.766569
0.796782
0.814134
0.813464
0.783469
0.680964
0.522717
0.459874
0.436823
0.422676
0.40726
0.396366
0.391108
0.397786
0.426969
0.477305
0.548662
0.592494
0.636743
0.657167
0.671166
0.678978
0.678492
0.675322
0.675045
0.680921
0.691946
0.701745
0.70567
0.706338
0.704282
0.700365
0.694127
0.689395
0.686745
0.685872
0.686388
0.688345
0.691177
0.695789
0.703462
0.714747
0.729119
0.74372
0.754732
0.761535
0.765866
0.768746
0.771997
0.781392
0.808869
0.840209
0.865239
0.887079
0.907595
0.926468
0.943241
0.957029
0.968138
0.978056
0.987261
0.993349
0.995754
0.995926
0.994244
0.986125
0.980131
0.979443
0.981624
0.989382
0.994429
0.996087
0.996136
0.995256
0.991152
0.984071
0.979736
0.978109
0.978134
0.979841
0.985449
0.99093
0.994516
0.996743
0.998087
0.99889
0.999368
0.999651
0.999816
0.999907
0.999951
0.999967
0.999968
0.99996
0.999919
0.999773
0.999317
0.997965
0.994046
0.982695
0.949638
0.84599
0.674309
0.516147
0.38302
0.27096
0.189355
0.120077
0.632796
0.635582
0.62057
0.616233
0.643619
0.699442
0.75081
0.800859
0.841903
0.882561
0.907146
0.923871
0.931936
0.935028
0.935947
0.932212
0.918705
0.89407
0.879912
0.872935
0.869778
0.868701
0.86853
0.869213
0.869949
0.871464
0.872292
0.872891
0.873205
0.873313
0.872885
0.871918
0.869964
0.866706
0.863279
0.86163
0.860907
0.868131
0.892307
0.93825
0.973836
0.989696
0.995686
0.997415
0.99783
0.99528
0.98372
0.938543
0.867777
0.831226
0.80334
0.77403
0.739656
0.739783
0.73059
0.662938
0.602835
0.583217
0.577936
0.582452
0.626447
0.773271
0.853783
0.880758
0.888962
0.890139
0.886579
0.864656
0.800903
0.762868
0.752723
0.751626
0.765519
0.799891
0.816013
0.813765
0.773674
0.65652
0.487466
0.413486
0.377169
0.347795
0.305856
0.276518
0.26199
0.257727
0.275557
0.306856
0.365989
0.457606
0.561477
0.624699
0.666326
0.687704
0.701276
0.708778
0.707253
0.707897
0.716201
0.731043
0.738684
0.740444
0.739873
0.736943
0.727816
0.716157
0.707241
0.701414
0.697953
0.696316
0.696233
0.697972
0.703297
0.713037
0.729098
0.749343
0.766425
0.778743
0.789983
0.804179
0.823732
0.849899
0.880731
0.909256
0.929974
0.942333
0.947207
0.949344
0.953509
0.96054
0.968482
0.97629
0.983678
0.990441
0.995028
0.996915
0.997059
0.995918
0.990153
0.985498
0.984907
0.986283
0.991739
0.995751
0.997248
0.997424
0.997073
0.995232
0.990604
0.987316
0.985947
0.985815
0.986728
0.990203
0.993982
0.99644
0.99794
0.998824
0.999337
0.999633
0.999802
0.999897
0.999948
0.999973
0.999983
0.999984
0.999981
0.999963
0.9999
0.999697
0.999081
0.997234
0.991628
0.974269
0.91928
0.764074
0.588302
0.431546
0.311909
0.205951
0.634504
0.644271
0.645249
0.661373
0.699669
0.762316
0.818415
0.852204
0.885178
0.910576
0.922889
0.929193
0.931605
0.93217
0.925432
0.904415
0.884012
0.874539
0.870659
0.869619
0.869555
0.870571
0.872768
0.874341
0.875364
0.875894
0.876085
0.87616
0.876463
0.876868
0.877331
0.878005
0.878401
0.877797
0.873365
0.864658
0.857813
0.855446
0.858503
0.875996
0.925499
0.971276
0.989484
0.996594
0.998515
0.998939
0.997154
0.986644
0.93379
0.864487
0.82749
0.787981
0.735187
0.701301
0.710337
0.696094
0.634494
0.594688
0.58889
0.594943
0.650608
0.807197
0.866093
0.884257
0.889209
0.889887
0.883307
0.847629
0.783507
0.753618
0.74458
0.745007
0.762969
0.801546
0.818407
0.815781
0.777248
0.658554
0.462397
0.377573
0.344777
0.301556
0.248803
0.22069
0.206854
0.202595
0.210979
0.230552
0.264286
0.310808
0.38292
0.504741
0.608205
0.669668
0.70179
0.719655
0.730535
0.732609
0.737169
0.746132
0.753046
0.755405
0.755905
0.755725
0.754263
0.74862
0.737536
0.727627
0.720759
0.716092
0.713101
0.711159
0.710605
0.712924
0.722761
0.742298
0.763407
0.778058
0.79065
0.808641
0.834681
0.866157
0.89869
0.928105
0.950959
0.966917
0.977038
0.981326
0.981434
0.978985
0.977347
0.97832
0.983014
0.988502
0.993381
0.996576
0.997771
0.997794
0.996739
0.992221
0.989127
0.988824
0.989988
0.99411
0.996996
0.998155
0.998354
0.998195
0.997237
0.994373
0.992065
0.991098
0.990974
0.991521
0.993755
0.99622
0.99781
0.998773
0.999326
0.999634
0.999805
0.999898
0.999948
0.999975
0.999987
0.999992
0.999992
0.999991
0.999982
0.99995
0.999843
0.999504
0.998429
0.994964
0.983583
0.945595
0.823089
0.627666
0.469443
0.322233
0.636954
0.66149
0.67204
0.689818
0.738533
0.803801
0.852911
0.881323
0.905218
0.919714
0.925759
0.928381
0.928874
0.922549
0.900699
0.882439
0.873766
0.87064
0.869943
0.870196
0.872473
0.874046
0.8746
0.87477
0.874781
0.874236
0.873976
0.873895
0.874051
0.874498
0.875372
0.87685
0.878814
0.880701
0.881545
0.879859
0.870099
0.857224
0.853733
0.858871
0.878532
0.935977
0.97508
0.991615
0.99772
0.999241
0.999492
0.99781
0.984955
0.912589
0.855797
0.818133
0.75656
0.687045
0.677064
0.68156
0.654866
0.611688
0.599042
0.60174
0.65245
0.811185
0.869751
0.884723
0.889068
0.888599
0.874761
0.824163
0.770449
0.745991
0.738139
0.740797
0.757643
0.79963
0.822109
0.820359
0.787854
0.675127
0.472677
0.36685
0.312012
0.263805
0.215213
0.192509
0.182606
0.178936
0.182645
0.19591
0.223961
0.262777
0.311649
0.378157
0.481516
0.60322
0.677636
0.717316
0.738464
0.749377
0.753578
0.758322
0.761416
0.76339
0.763983
0.764124
0.76461
0.76399
0.761195
0.754337
0.746538
0.740779
0.737938
0.736186
0.734499
0.733017
0.733105
0.740414
0.760971
0.776951
0.790642
0.810578
0.838898
0.871952
0.904821
0.934059
0.95712
0.97309
0.983365
0.989573
0.992388
0.992783
0.992007
0.98908
0.987754
0.988439
0.992018
0.99572
0.997764
0.998384
0.998298
0.99711
0.9935
0.991763
0.991721
0.992912
0.996105
0.998027
0.998819
0.998967
0.998873
0.998251
0.996438
0.995072
0.994543
0.994491
0.994834
0.996269
0.997802
0.99876
0.999326
0.999644
0.999817
0.999907
0.999954
0.999978
0.999989
0.999995
0.999996
0.999996
0.999995
0.99999
0.99997
0.9999
0.999667
0.998883
0.996219
0.987025
0.955506
0.843112
0.656547
0.468148
0.64091
0.668264
0.687495
0.721659
0.760325
0.829106
0.875957
0.897545
0.912446
0.921274
0.925156
0.926296
0.923039
0.906177
0.885825
0.875513
0.871328
0.870249
0.870271
0.872436
0.873971
0.874386
0.874396
0.873675
0.872959
0.872647
0.872583
0.872801
0.872945
0.873121
0.873336
0.873748
0.874905
0.878732
0.882215
0.883435
0.881971
0.871993
0.856843
0.856556
0.866098
0.903146
0.956804
0.984023
0.99498
0.99877
0.999681
0.99974
0.997663
0.974631
0.888316
0.846284
0.805894
0.709647
0.653314
0.655018
0.648459
0.622184
0.606724
0.605605
0.639125
0.795878
0.867914
0.884331
0.888461
0.886623
0.866126
0.806092
0.759647
0.736922
0.731033
0.734497
0.749644
0.793862
0.821644
0.824622
0.805561
0.717541
0.510039
0.378235
0.313448
0.263992
0.215873
0.190166
0.176537
0.171381
0.172207
0.179891
0.198693
0.239987
0.292609
0.345004
0.410381
0.510395
0.622839
0.696555
0.736684
0.757514
0.7693
0.772779
0.772734
0.772784
0.772372
0.771437
0.770479
0.770021
0.769632
0.768929
0.76771
0.765267
0.761875
0.760544
0.760867
0.761713
0.76252
0.763969
0.770845
0.787016
0.804108
0.82599
0.854327
0.886105
0.916432
0.942204
0.962472
0.976878
0.986256
0.992125
0.995386
0.99666
0.996799
0.996418
0.994579
0.993259
0.993285
0.994788
0.99735
0.998561
0.998807
0.998614
0.99714
0.994628
0.993814
0.993949
0.9953
0.99758
0.998795
0.999275
0.999356
0.99928
0.998799
0.997712
0.997066
0.996865
0.996867
0.997088
0.997945
0.998811
0.999346
0.999655
0.999824
0.999913
0.999958
0.99998
0.999991
0.999996
0.999998
0.999998
0.999998
0.999997
0.999993
0.999978
0.999922
0.999727
0.99904
0.996598
0.987913
0.956653
0.854556
0.639003
0.641904
0.679394
0.696893
0.732655
0.776392
0.8281
0.877324
0.899992
0.912334
0.920545
0.923625
0.921718
0.910338
0.893153
0.879168
0.872863
0.870538
0.870235
0.871503
0.873628
0.874403
0.874425
0.873718
0.872741
0.872244
0.87204
0.872178
0.872511
0.872858
0.873037
0.873175
0.873337
0.873845
0.875733
0.880984
0.884211
0.884415
0.880254
0.867125
0.860468
0.864083
0.889753
0.945752
0.97878
0.992915
0.99794
0.999502
0.999884
0.999797
0.996606
0.9533
0.867094
0.835581
0.783569
0.677214
0.63661
0.633378
0.621499
0.609353
0.607058
0.625198
0.755604
0.859056
0.882902
0.886858
0.882882
0.853054
0.791289
0.748989
0.727851
0.723191
0.72566
0.737711
0.780549
0.818241
0.826939
0.819254
0.773559
0.60512
0.42158
0.330809
0.274885
0.226134
0.197048
0.180522
0.173963
0.174078
0.177402
0.189703
0.22774
0.289698
0.341099
0.394887
0.466063
0.567159
0.660468
0.722168
0.755759
0.772127
0.779171
0.781138
0.781094
0.779269
0.77587
0.773874
0.773097
0.773082
0.773419
0.774381
0.777466
0.781025
0.782518
0.783478
0.785245
0.789175
0.796434
0.804556
0.818321
0.839676
0.866447
0.895928
0.925014
0.949106
0.965994
0.977286
0.985047
0.990428
0.994226
0.996774
0.998121
0.998521
0.998512
0.998161
0.996844
0.996109
0.996129
0.996981
0.998462
0.999055
0.999099
0.998767
0.997145
0.995738
0.995462
0.995747
0.997149
0.998608
0.999317
0.999572
0.999602
0.999531
0.999148
0.998641
0.998414
0.998373
0.998396
0.998553
0.999025
0.999438
0.999696
0.999843
0.999923
0.999963
0.999983
0.999992
0.999997
0.999998
0.999999
0.999999
0.999999
0.999998
0.999995
0.99998
0.999929
0.99974
0.99905
0.996517
0.987215
0.954568
0.829337
0.643025
0.67801
0.711268
0.73188
0.774692
0.821854
0.87249
0.897694
0.91063
0.918405
0.92063
0.918808
0.909998
0.892839
0.879518
0.873116
0.870631
0.870271
0.871255
0.873409
0.874343
0.874476
0.874169
0.873262
0.872661
0.872182
0.872184
0.872411
0.872994
0.873207
0.873224
0.873294
0.87367
0.875213
0.880373
0.8847
0.885408
0.882388
0.870387
0.865454
0.866872
0.885954
0.940938
0.976548
0.992047
0.997659
0.999393
0.999862
0.999967
0.999785
0.99444
0.926368
0.853174
0.82801
0.755497
0.658645
0.628839
0.619369
0.610754
0.609156
0.625791
0.75179
0.856639
0.880738
0.882984
0.873096
0.824142
0.768564
0.733029
0.716337
0.713311
0.715436
0.725587
0.761947
0.809228
0.826554
0.825844
0.808946
0.736268
0.528301
0.383873
0.306754
0.251998
0.217224
0.194812
0.184499
0.184588
0.188379
0.199799
0.232119
0.323996
0.385662
0.411335
0.457539
0.536724
0.63403
0.705632
0.749017
0.771872
0.781748
0.785009
0.785524
0.785131
0.782518
0.779111
0.777249
0.776559
0.776549
0.777246
0.780688
0.787992
0.793285
0.798293
0.804358
0.814231
0.823851
0.835845
0.855112
0.883544
0.915865
0.946852
0.968809
0.981562
0.9889
0.993062
0.995406
0.996726
0.997555
0.99832
0.998969
0.999292
0.999339
0.999284
0.998895
0.998022
0.99769
0.997751
0.998392
0.999141
0.999345
0.999288
0.998711
0.997338
0.996771
0.996752
0.997212
0.998459
0.999269
0.99964
0.999755
0.999758
0.999688
0.99945
0.999289
0.999243
0.999245
0.999284
0.999445
0.999659
0.999806
0.999896
0.999948
0.999975
0.999988
0.999995
0.999998
0.999999
1
1
1
0.999999
0.999999
0.999995
0.99998
0.999926
0.999721
0.998948
0.996046
0.985429
0.940471
0.645626
0.672051
0.711823
0.729578
0.768866
0.809114
0.859944
0.890977
0.906544
0.91538
0.918283
0.917524
0.911719
0.895755
0.881807
0.874436
0.871158
0.870389
0.870642
0.872212
0.873804
0.874341
0.874361
0.874279
0.874087
0.873748
0.873756
0.873774
0.873691
0.873398
0.873254
0.873332
0.873899
0.87616
0.882577
0.886671
0.886564
0.882877
0.870898
0.866254
0.869367
0.890422
0.943082
0.97692
0.992082
0.997659
0.999384
0.999853
0.999974
0.999985
0.999561
0.987494
0.893615
0.846136
0.821959
0.742074
0.654415
0.626545
0.616876
0.616342
0.638243
0.766165
0.858891
0.879212
0.879726
0.866638
0.809936
0.750484
0.717143
0.703807
0.701877
0.703993
0.713673
0.746954
0.796236
0.823902
0.828819
0.824158
0.797787
0.713961