/*--------------------------------*- C++ -*----------------------------------*\
  =========                 |
  \\      /  F ield         | OpenFOAM: The Open Source CFD Toolbox
   \\    /   O peration     | Website:  https://openfoam.org
    \\  /    A nd           | Version:  7
     \\/     M anipulation  |
\*---------------------------------------------------------------------------*/
FoamFile
{
    version     2.0;
    format      ascii;
    class       volVectorField;
    location    "0.085";
    object      U_0;
}
// * * * * * * * * * * * * * * * * * * * * * * * * * * * * * * * * * * * * * //

dimensions      [0 1 -1 0 0 0 0];

internalField   nonuniform List<vector> 
12225
(
(4.75252 0.160969 0)
(4.10778 0.0953426 0)
(3.66366 0.0848025 0)
(3.30735 0.0767906 0)
(2.97379 0.0683535 0)
(2.64553 0.0637291 0)
(2.32111 0.0582404 0)
(2.01764 0.048384 0)
(1.74951 0.0373133 0)
(1.52062 0.0287838 0)
(1.32592 0.0235421 0)
(1.16007 0.0196591 0)
(1.01272 0.0162502 0)
(0.887923 0.0128441 0)
(0.764835 0.00981579 0)
(0.678654 0.00902045 0)
(0.536644 0.0059716 0)
(0.512021 -0.00844628 0)
(5.05022 0.122968 0)
(4.83124 0.0963202 0)
(4.68875 0.0962352 0)
(4.58984 0.0915614 0)
(4.50486 0.0907464 0)
(4.41592 0.0949492 0)
(4.3034 0.100886 0)
(4.16027 0.103986 0)
(3.99627 0.101469 0)
(3.83473 0.0942631 0)
(3.68736 0.0856145 0)
(3.56211 0.0791557 0)
(3.44295 0.0748621 0)
(3.33915 0.0731293 0)
(3.21335 0.0720028 0)
(3.10878 0.0722716 0)
(2.94135 0.0752588 0)
(2.83732 0.0688766 0)
(4.91163 0.204364 0)
(4.86671 0.119652 0)
(4.84929 0.123981 0)
(4.81149 0.12369 0)
(4.76155 0.116209 0)
(4.7243 0.116586 0)
(4.69561 0.127393 0)
(4.65874 0.138529 0)
(4.60824 0.139565 0)
(4.55414 0.129598 0)
(4.50626 0.114816 0)
(4.46851 0.103074 0)
(4.43457 0.0964043 0)
(4.39991 0.095546 0)
(4.35471 0.0990522 0)
(4.3019 0.106786 0)
(4.2347 0.119507 0)
(4.15844 0.126338 0)
(4.915 0.187799 0)
(4.82335 0.102906 0)
(4.74651 0.11484 0)
(4.72267 0.127487 0)
(4.72536 0.122142 0)
(4.73141 0.115662 0)
(4.73336 0.120848 0)
(4.73104 0.130919 0)
(4.72505 0.133839 0)
(4.71528 0.126356 0)
(4.70323 0.113842 0)
(4.68989 0.103953 0)
(4.67718 0.100015 0)
(4.66245 0.102329 0)
(4.64656 0.109987 0)
(4.62511 0.120929 0)
(4.60431 0.135988 0)
(4.57548 0.149094 0)
(4.91797 0.182457 0)
(4.81349 0.131906 0)
(4.75867 0.123639 0)
(4.75815 0.124161 0)
(4.77644 0.11886 0)
(4.78084 0.117782 0)
(4.76733 0.127415 0)
(4.74966 0.139463 0)
(4.73883 0.14296 0)
(4.73531 0.135269 0)
(4.73588 0.121889 0)
(4.73733 0.110402 0)
(4.73862 0.10526 0)
(4.73664 0.107139 0)
(4.73143 0.115351 0)
(4.72123 0.127378 0)
(4.71041 0.143043 0)
(4.69643 0.158495 0)
(4.90327 0.174668 0)
(4.88667 0.133369 0)
(4.81568 0.130348 0)
(4.76975 0.126517 0)
(4.76779 0.116482 0)
(4.78539 0.115358 0)
(4.80059 0.126851 0)
(4.80774 0.138965 0)
(4.81014 0.140065 0)
(4.81047 0.129491 0)
(4.80986 0.114828 0)
(4.80866 0.104325 0)
(4.80725 0.102068 0)
(4.80376 0.10758 0)
(4.79775 0.118851 0)
(4.78818 0.132915 0)
(4.77795 0.148636 0)
(4.76622 0.164117 0)
(5.08476 0.206247 0)
(5.02112 0.151403 0)
(4.94935 0.140583 0)
(4.89011 0.133073 0)
(4.85424 0.119308 0)
(4.83986 0.113876 0)
(4.83754 0.123966 0)
(4.83976 0.138484 0)
(4.84367 0.143598 0)
(4.84742 0.136106 0)
(4.84926 0.122375 0)
(4.84821 0.110915 0)
(4.84482 0.10698 0)
(4.8392 0.111406 0)
(4.83226 0.122495 0)
(4.82398 0.137192 0)
(4.81669 0.153481 0)
(4.80922 0.169426 0)
(5.04064 0.219658 0)
(5.01394 0.174938 0)
(4.95952 0.172166 0)
(4.90777 0.160011 0)
(4.86886 0.137189 0)
(4.83585 0.12263 0)
(4.81551 0.124232 0)
(4.81614 0.132182 0)
(4.83499 0.133675 0)
(4.85966 0.125658 0)
(4.87778 0.114047 0)
(4.8838 0.106422 0)
(4.87975 0.10665 0)
(4.87042 0.114283 0)
(4.86112 0.126973 0)
(4.85419 0.141818 0)
(4.85164 0.157241 0)
(4.85145 0.172462 0)
(4.99489 0.25128 0)
(4.91019 0.189573 0)
(4.90105 0.163741 0)
(4.92287 0.152444 0)
(4.93768 0.141525 0)
(4.93116 0.135511 0)
(4.91633 0.134109 0)
(4.9094 0.13212 0)
(4.91137 0.126051 0)
(4.91106 0.117529 0)
(4.90015 0.111055 0)
(4.87988 0.109869 0)
(4.85837 0.114056 0)
(4.84234 0.121952 0)
(4.83461 0.131775 0)
(4.83432 0.142673 0)
(4.83923 0.154365 0)
(4.84657 0.167864 0)
(5.04018 0.321048 0)
(4.98699 0.214077 0)
(4.97472 0.159829 0)
(4.96916 0.143853 0)
(4.96228 0.139398 0)
(4.9481 0.138156 0)
(4.93285 0.135813 0)
(4.92353 0.132944 0)
(4.91924 0.131426 0)
(4.91477 0.131296 0)
(4.90776 0.131185 0)
(4.90055 0.130325 0)
(4.8966 0.129061 0)
(4.89661 0.129265 0)
(4.89849 0.132406 0)
(4.89938 0.139439 0)
(4.89863 0.150057 0)
(4.89532 0.163476 0)
(5.07408 0.341867 0)
(5.0655 0.230484 0)
(5.01317 0.172561 0)
(4.97114 0.152502 0)
(4.96214 0.145604 0)
(4.96721 0.146215 0)
(4.96589 0.146117 0)
(4.95179 0.141321 0)
(4.92864 0.133359 0)
(4.90401 0.125238 0)
(4.88483 0.118768 0)
(4.87515 0.115196 0)
(4.87544 0.115419 0)
(4.88283 0.120279 0)
(4.89371 0.129656 0)
(4.90411 0.142322 0)
(4.91364 0.15674 0)
(4.92037 0.170943 0)
(4.91838 0.277382 0)
(4.99147 0.224563 0)
(4.96424 0.192109 0)
(4.93792 0.162509 0)
(4.94459 0.143897 0)
(4.96502 0.139297 0)
(4.98101 0.142956 0)
(4.98563 0.14914 0)
(4.98082 0.153381 0)
(4.97263 0.152467 0)
(4.9662 0.145245 0)
(4.9629 0.133991 0)
(4.96179 0.122902 0)
(4.96073 0.116543 0)
(4.95887 0.117398 0)
(4.95657 0.125406 0)
(4.95499 0.138586 0)
(4.95596 0.154283 0)
(4.9286 0.247327 0)
(4.90894 0.221488 0)
(4.93048 0.195599 0)
(4.93754 0.154018 0)
(4.94326 0.127402 0)
(4.94908 0.125929 0)
(4.95462 0.136918 0)
(4.96472 0.145631 0)
(4.98226 0.145219 0)
(5.00339 0.137031 0)
(5.01984 0.126524 0)
(5.02402 0.119662 0)
(5.01392 0.119375 0)
(4.99263 0.125723 0)
(4.96704 0.136031 0)
(4.94424 0.148003 0)
(4.92891 0.159088 0)
(4.92454 0.168488 0)
(5.04609 0.249005 0)
(5.02884 0.203765 0)
(5.03985 0.177512 0)
(5.02438 0.16156 0)
(4.98725 0.149477 0)
(4.95198 0.140299 0)
(4.93864 0.133727 0)
(4.95139 0.128924 0)
(4.97777 0.126109 0)
(4.9995 0.126936 0)
(5.00472 0.131769 0)
(4.99297 0.138988 0)
(4.97269 0.145705 0)
(4.9528 0.150233 0)
(4.9402 0.151743 0)
(4.93606 0.15178 0)
(4.94156 0.150603 0)
(4.9528 0.150619 0)
(5.06733 0.233271 0)
(5.0641 0.231629 0)
(5.04192 0.207913 0)
(5.00738 0.182658 0)
(4.9886 0.165645 0)
(4.98542 0.151589 0)
(4.99101 0.134922 0)
(5.00197 0.119146 0)
(5.0168 0.112169 0)
(5.03216 0.117723 0)
(5.04297 0.131839 0)
(5.04575 0.14664 0)
(5.04102 0.155696 0)
(5.03101 0.157698 0)
(5.02025 0.154451 0)
(5.01144 0.149585 0)
(5.00928 0.144397 0)
(5.01297 0.140601 0)
(4.89284 0.18972 0)
(4.89828 0.186107 0)
(4.93811 0.204312 0)
(4.98224 0.200975 0)
(5.00666 0.170601 0)
(5.00637 0.139637 0)
(4.99637 0.118566 0)
(4.98905 0.105411 0)
(4.98917 0.0992981 0)
(4.9974 0.102883 0)
(5.01098 0.117188 0)
(5.02529 0.138272 0)
(5.03695 0.158748 0)
(5.04488 0.17144 0)
(5.05173 0.172508 0)
(5.05962 0.163077 0)
(5.07227 0.145503 0)
(5.08836 0.126165 0)
(5.12321 0.297172 0)
(5.08298 0.223565 0)
(5.06982 0.145084 0)
(5.08343 0.125701 0)
(5.0941 0.14432 0)
(5.08629 0.16283 0)
(5.071 0.158717 0)
(5.05803 0.134169 0)
(5.04538 0.106922 0)
(5.02964 0.0933188 0)
(5.01309 0.0979258 0)
(5.00158 0.113875 0)
(5.00037 0.129876 0)
(5.01085 0.136859 0)
(5.03105 0.13184 0)
(5.05674 0.117895 0)
(5.08382 0.0993967 0)
(5.10817 0.0835409 0)
(5.04669 0.218739 0)
(5.07133 0.244524 0)
(5.07469 0.199261 0)
(5.03875 0.16929 0)
(5.01226 0.164961 0)
(5.01035 0.156835 0)
(5.02239 0.141871 0)
(5.03467 0.133445 0)
(5.03913 0.139289 0)
(5.03539 0.153835 0)
(5.0292 0.164729 0)
(5.02664 0.162732 0)
(5.03086 0.145792 0)
(5.04087 0.118651 0)
(5.05413 0.088503 0)
(5.06801 0.0626032 0)
(5.08127 0.044024 0)
(5.09349 0.0347656 0)
(5.06107 0.307798 0)
(5.05775 0.263237 0)
(5.03629 0.226817 0)
(5.03053 0.202878 0)
(5.0334 0.179268 0)
(5.03903 0.153151 0)
(5.04349 0.128362 0)
(5.0452 0.110387 0)
(5.04901 0.101458 0)
(5.06028 0.0995321 0)
(5.08007 0.100497 0)
(5.10444 0.100729 0)
(5.12748 0.0978191 0)
(5.14437 0.0912027 0)
(5.15427 0.0804517 0)
(5.15867 0.0666044 0)
(5.1613 0.0497274 0)
(5.16412 0.0314769 0)
(5.03593 0.375593 0)
(5.0375 0.294665 0)
(5.04115 0.219826 0)
(5.06202 0.173747 0)
(5.08992 0.1472 0)
(5.10886 0.135004 0)
(5.1115 0.12948 0)
(5.10373 0.123054 0)
(5.09462 0.111308 0)
(5.0916 0.0953922 0)
(5.09903 0.080294 0)
(5.1172 0.0701349 0)
(5.14282 0.0651219 0)
(5.17158 0.0623929 0)
(5.19982 0.0574263 0)
(5.22461 0.0474275 0)
(5.24466 0.0312765 0)
(5.25855 0.0104633 0)
(5.03937 0.296736 0)
(5.02269 0.267165 0)
(5.0423 0.196861 0)
(5.0793 0.140164 0)
(5.12044 0.12036 0)
(5.14723 0.126689 0)
(5.15982 0.136326 0)
(5.16606 0.133167 0)
(5.17134 0.113948 0)
(5.17836 0.083749 0)
(5.18743 0.0501048 0)
(5.19666 0.0197683 0)
(5.20408 -0.00285566 0)
(5.20897 -0.0163413 0)
(5.21217 -0.0218682 0)
(5.21451 -0.0223966 0)
(5.21658 -0.02085 0)
(5.21848 -0.0200456 0)
(4.95993 0.283157 0)
(5.00212 0.258228 0)
(5.01896 0.173225 0)
(5.02129 0.113263 0)
(5.04473 0.0878167 0)
(5.08928 0.0949099 0)
(5.13012 0.114266 0)
(5.15487 0.120838 0)
(5.16599 0.107104 0)
(5.17063 0.0826945 0)
(5.1751 0.0609371 0)
(5.18254 0.0487465 0)
(5.19292 0.0449225 0)
(5.20497 0.0446745 0)
(5.21756 0.0419716 0)
(5.2293 0.0337931 0)
(5.24029 0.0192409 0)
(5.24894 0.00100992 0)
(4.96191 0.255048 0)
(5.00865 0.18483 0)
(5.03291 0.158818 0)
(5.06101 0.10711 0)
(5.0877 0.0550639 0)
(5.11726 0.0406997 0)
(5.14983 0.0601976 0)
(5.18405 0.0822438 0)
(5.21754 0.0835509 0)
(5.24688 0.0621475 0)
(5.27012 0.0287961 0)
(5.28756 -0.00415611 0)
(5.30189 -0.0287852 0)
(5.31497 -0.0430937 0)
(5.32682 -0.0487117 0)
(5.33569 -0.0489125 0)
(5.34114 -0.0460973 0)
(5.34059 -0.0436284 0)
(5.09317 0.236758 0)
(5.07225 0.209415 0)
(5.09003 0.14919 0)
(5.13669 0.0836993 0)
(5.16463 0.0500006 0)
(5.17874 0.0490827 0)
(5.19998 0.0613083 0)
(5.23698 0.067609 0)
(5.28388 0.0599576 0)
(5.32765 0.0429255 0)
(5.3574 0.025841 0)
(5.36958 0.0142942 0)
(5.36733 0.00926945 0)
(5.35644 0.00839877 0)
(5.34447 0.00876694 0)
(5.33659 0.00867823 0)
(5.33563 0.00738427 0)
(5.34196 0.00476166 0)
(4.98726 0.238857 0)
(5.0897 0.157262 0)
(5.18913 0.109848 0)
(5.23158 0.0564958 0)
(5.23121 0.0203356 0)
(5.22943 0.00770183 0)
(5.24337 0.00580379 0)
(5.26623 0.00361339 0)
(5.28696 -0.00198212 0)
(5.30079 -0.00836728 0)
(5.30871 -0.0122774 0)
(5.31504 -0.0129933 0)
(5.32438 -0.0138009 0)
(5.33803 -0.0174187 0)
(5.35543 -0.024847 0)
(5.37448 -0.0354144 0)
(5.39433 -0.047941 0)
(5.4122 -0.0608 0)
(4.97171 0.22608 0)
(5.06721 0.105971 0)
(5.16542 0.0983674 0)
(5.2191 0.0811541 0)
(5.23587 0.0565481 0)
(5.248 0.0401534 0)
(5.27532 0.0364655 0)
(5.31734 0.0379775 0)
(5.36549 0.035759 0)
(5.41231 0.0267854 0)
(5.45364 0.0135272 0)
(5.48738 0.000418888 0)
(5.51312 -0.0102151 0)
(5.53185 -0.0183626 0)
(5.54555 -0.0244589 0)
(5.55514 -0.0291697 0)
(5.56234 -0.0326908 0)
(5.56701 -0.0353456 0)
(5.00437 0.136595 0)
(5.08789 0.038011 0)
(5.19124 0.0338929 0)
(5.28689 0.0222481 0)
(5.35103 -0.000952739 0)
(5.38642 -0.0208431 0)
(5.41281 -0.0354582 0)
(5.44111 -0.0477369 0)
(5.46968 -0.0578091 0)
(5.49242 -0.062867 0)
(5.50596 -0.0612115 0)
(5.5119 -0.0552249 0)
(5.51522 -0.0488646 0)
(5.52026 -0.045473 0)
(5.52971 -0.0465989 0)
(5.54327 -0.0516889 0)
(5.56018 -0.0591966 0)
(5.5779 -0.0673359 0)
(5.06614 0.115361 0)
(5.16377 0.0664743 0)
(5.27307 0.0519377 0)
(5.33713 0.0201271 0)
(5.37997 0.00285308 0)
(5.41921 0.00195891 0)
(5.45907 0.00348439 0)
(5.49366 0.00301407 0)
(5.51843 0.00173144 0)
(5.53599 0.00013936 0)
(5.5521 -0.00282332 0)
(5.57068 -0.0082702 0)
(5.5918 -0.0164603 0)
(5.61296 -0.0270589 0)
(5.63094 -0.0386514 0)
(5.64377 -0.0495514 0)
(5.65122 -0.0581797 0)
(5.65387 -0.0632985 0)
(4.90008 0.0397775 0)
(5.13159 -0.0227767 0)
(5.32664 -0.00941563 0)
(5.42376 -0.025903 0)
(5.46672 -0.0460707 0)
(5.49129 -0.0580908 0)
(5.5103 -0.0652706 0)
(5.52219 -0.0702777 0)
(5.52695 -0.0731267 0)
(5.5305 -0.0740673 0)
(5.53745 -0.0736573 0)
(5.54722 -0.0722924 0)
(5.5549 -0.0702827 0)
(5.55549 -0.0682353 0)
(5.54501 -0.0668289 0)
(5.52456 -0.0666098 0)
(5.49545 -0.0675887 0)
(5.4637 -0.0698108 0)
(4.93484 0.0992814 0)
(5.12931 -0.0104561 0)
(5.10944 -0.0255537 0)
(4.97943 -0.0335447 0)
(4.8404 -0.0278248 0)
(4.71793 -0.0176444 0)
(4.60739 -0.0106222 0)
(4.50083 -0.00743689 0)
(4.39486 -0.00775367 0)
(4.28805 -0.0116402 0)
(4.17842 -0.0174995 0)
(4.06667 -0.0224817 0)
(3.95636 -0.0247652 0)
(3.85197 -0.0246484 0)
(3.75422 -0.0237123 0)
(3.66262 -0.0233125 0)
(3.5733 -0.0240127 0)
(3.4859 -0.0255948 0)
(-0.0341791 0.139728 2.51117e-20)
(-0.123566 0.0830721 -2.49211e-20)
(-0.187886 0.0505122 0)
(-0.218323 0.00617876 0)
(-0.199218 -0.0321224 0)
(-0.159286 -0.057622 2.41803e-20)
(-0.0950233 -0.0782975 0)
(-0.0181781 -0.0926209 0)
(0.0711009 -0.101288 0)
(0.166078 -0.10324 0)
(0.260969 -0.0999656 -2.32638e-20)
(0.352107 -0.0923627 0)
(0.435443 -0.0811066 0)
(0.506219 -0.0667217 0)
(0.561836 -0.050166 0)
(0.601723 -0.0325783 -2.23619e-20)
(0.62684 -0.0151293 0)
(0.639356 0.000928185 0)
(0.641987 0.0138722 0)
(0.637076 0.022298 0)
(0.627552 0.0258347 0)
(0.616895 0.024862 0)
(0.607947 0.0200438 0)
(0.602941 0.0126418 -2.10723e-20)
(0.603565 0.00385649 2.0919e-20)
(0.611664 -0.00534558 -2.07661e-20)
(0.627494 -0.0142347 -2.06134e-20)
(0.651549 -0.0229709 0)
(0.683632 -0.0299438 0)
(0.722853 -0.0362113 2.01564e-20)
(0.769813 -0.039475 2.00042e-20)
(0.820095 -0.0415608 0)
(0.877029 -0.0408309 0)
(0.931125 -0.0322603 1.95476e-20)
(0.98353 -0.028498 0)
(1.0328 -0.00270816 0)
(1.05421 0.0139381 -1.90954e-20)
(1.08417 0.0525546 0)
(1.03882 0.135092 -1.88003e-20)
(0.967159 0.131629 -3.73107e-20)
(0.888378 0.322713 0)
(0.55509 0.503359 0)
(0.247257 0.144394 0)
(0.16679 -0.308953 0)
(0.174632 -0.487559 0)
(0.167 -0.371982 -3.54916e-20)
(0.155427 -0.146087 -3.51629e-20)
(0.20166 0.00956466 -3.48306e-20)
(0.260672 0.0855114 0)
(0.251803 0.0933677 3.41526e-20)
(0.165104 0.0795125 0)
(0.0224135 0.0819938 -3.34486e-20)
(-0.147762 0.0961174 -3.30711e-20)
(-0.314063 0.104075 0)
(-0.453661 0.101049 0)
(-0.559012 0.0892493 0)
(-0.623935 0.0635061 -3.16062e-20)
(-0.639514 0.0238735 0)
(-0.611804 -0.0263791 0)
(-0.551557 -0.0763701 0)
(-0.447375 -0.127672 0)
(-0.272361 -0.194738 0)
(0.0249109 -0.258428 0)
(0.415774 -0.23223 0)
(0.762447 -0.0239543 0)
(0.831695 0.160862 2.91979e-20)
(0.639955 0.0990655 0)
(0.565178 -0.0699808 0)
(0.738122 -0.198442 -2.82941e-20)
(0.997377 -0.272849 -2.79866e-20)
(1.1834 -0.348648 0)
(1.22518 -0.326394 2.73265e-20)
(1.06983 -0.100301 -2.70254e-20)
(0.603775 0.227319 0)
(-0.089965 0.422655 2.6479e-20)
(-0.84095 0.475695 0)
(-1.57184 0.46743 0)
(-2.25025 0.434012 -2.51428e-20)
(-2.86339 0.390313 0)
(-3.40678 0.342505 2.40921e-20)
(-3.87925 0.293371 0)
(-4.28085 0.244623 -2.30761e-20)
(-4.61184 0.197665 -2.26098e-20)
(-4.87322 0.153343 -2.21806e-20)
(-5.06734 0.111949 -4.35842e-20)
(-5.19805 0.0740991 4.28904e-20)
(-5.27032 0.0406207 0)
(-5.28972 0.0124697 0)
(-5.2637 -0.0102091 0)
(-5.2046 -0.0285749 4.08498e-20)
(-5.11308 -0.0432829 4.04828e-20)
(-4.99801 -0.0546044 -4.01551e-20)
(-4.8625 -0.0633041 0)
(-4.71222 -0.0694934 3.95843e-20)
(-4.55055 -0.0737412 3.93271e-20)
(-4.38112 -0.0762773 3.90813e-20)
(-4.20659 -0.0775271 0)
(-4.02924 -0.0777856 0)
(-3.8507 -0.0773552 0)
(-3.67207 -0.0764795 3.81387e-20)
(-3.49395 -0.0753539 0)
(-3.31668 -0.0740974 0)
(-3.1405 -0.0727352 -3.7416e-20)
(-2.96571 -0.0712405 0)
(-2.79271 -0.0695758 0)
(-2.62191 -0.0677266 -3.66453e-20)
(-2.45373 -0.0657181 0)
(-2.2885 -0.0635955 0)
(-2.12653 -0.061405 3.5809e-20)
(-1.96801 -0.0592209 3.55151e-20)
(-1.81283 -0.05717 0)
(-1.66059 -0.0553803 -3.49071e-20)
(-1.51056 -0.0539548 0)
(-1.3617 -0.0530009 3.42779e-20)
(-1.21275 -0.0526057 0)
(-1.06239 -0.0528314 3.36351e-20)
(-0.909173 -0.0536473 3.33108e-20)
(-0.751633 -0.0549418 0)
(-0.588615 -0.0565478 0)
(-0.4195 -0.0581674 0)
(-0.244412 -0.0595596 0)
(-0.0643246 -0.0602362 0)
(0.118601 -0.0599197 0)
(0.301459 -0.0584779 0)
(0.481154 -0.0557771 3.05894e-20)
(0.654186 -0.0518665 -3.02142e-20)
(0.817265 -0.0469268 0)
(0.96762 -0.0412287 0)
(1.10319 -0.0350711 0)
(1.22266 -0.0286822 0)
(1.3253 -0.0222674 -5.65068e-20)
(1.4111 -0.0161599 0)
(1.48075 -0.0105288 5.49134e-20)
(1.53513 -0.00513174 -5.41223e-20)
(1.57492 -0.000115435 0)
(1.60163 0.00396093 0)
(1.61694 0.00769032 0)
(1.62045 0.012086 5.10252e-20)
(1.61215 0.0170194 5.02697e-20)
(1.592 0.0221554 0)
(1.55985 0.0270459 4.87813e-20)
(1.51632 0.0309176 4.80474e-20)
(1.4631 0.0329144 -4.73196e-20)
(1.40294 0.0326194 0)
(1.3393 0.0302531 0)
(1.27573 0.0264077 -4.51704e-20)
(1.21524 0.0218366 0)
(1.15994 0.0172456 0)
(1.11094 0.0131442 0)
(1.06848 0.00979863 0)
(1.03217 0.00725495 4.16971e-20)
(1.00134 0.00540949 4.10175e-20)
(0.975195 0.0040955 0)
(0.952975 0.00315234 3.96713e-20)
(0.934021 0.00246118 0)
(0.917778 0.00194948 0)
(0.90377 0.00157981 3.7682e-20)
(0.891607 0.00133211 0)
(0.88094 0.00119296 3.63749e-20)
(0.871506 0.00114495 0)
(0.863033 0.0011696 0)
(0.855371 0.00124252 3.44418e-20)
(0.848255 0.00135014 0)
(0.841646 0.00147541 3.31711e-20)
(0.835187 0.001622 0)
(0.828997 0.00177586 0)
(0.822459 0.00196108 0)
(0.816022 0.00216055 -3.06725e-20)
(0.808496 0.0024286 0)
(0.801021 0.0027424 2.94446e-20)
(0.791311 0.00320382 0)
(0.781641 0.00366974 0)
(0.768039 0.00446774 0)
(0.753869 0.00513657 0)
(0.734557 0.00676396 0)
(0.709519 0.00734748 0)
(0.686656 0.0114171 0)
(0.627709 0.00953961 -4.9391e-20)
(0.627185 0.0226204 0)
(0.459806 0.00876403 0)
(0.0403602 0.176932 -7.53609e-20)
(0.0876176 0.224844 7.48094e-20)
(0.131186 0.141874 0)
(0.186014 0.0211717 -4.9123e-20)
(0.252803 -0.0882142 0)
(0.328465 -0.165735 -2.41636e-20)
(0.413871 -0.217319 4.79518e-20)
(0.503481 -0.251518 4.75655e-20)
(0.593715 -0.27191 0)
(0.677888 -0.277754 4.68027e-20)
(0.75261 -0.269552 2.32256e-20)
(0.815958 -0.246811 0)
(0.866503 -0.211111 0)
(0.903066 -0.168204 0)
(0.925154 -0.124994 0)
(0.933443 -0.0864254 2.23399e-20)
(0.929399 -0.054319 0)
(0.913699 -0.0285517 -4.39941e-20)
(0.886914 -0.00902813 0)
(0.851553 0.00408457 0)
(0.811169 0.0105983 4.30434e-20)
(0.769115 0.0110507 0)
(0.728452 0.00588738 -4.24344e-20)
(0.691913 -0.00409358 2.10676e-20)
(0.661124 -0.0180418 -2.09165e-20)
(0.636361 -0.0347933 2.07658e-20)
(0.618547 -0.0525312 2.06149e-20)
(0.608743 -0.0709543 0)
(0.609019 -0.0889432 0)
(0.618901 -0.106181 -2.01613e-20)
(0.64062 -0.12108 2.00123e-20)
(0.674313 -0.132645 0)
(0.718679 -0.140843 0)
(0.778698 -0.139617 -1.95531e-20)
(0.843999 -0.135102 0)
(0.923832 -0.114951 0)
(1.00665 -0.0810961 1.90963e-20)
(1.09104 -0.0421121 0)
(1.1929 0.0508047 -1.87898e-20)
(1.27415 0.121491 3.72845e-20)
(1.37521 0.227087 0)
(1.47832 0.410921 0)
(1.58426 0.447231 7.26028e-20)
(1.59716 0.417178 7.19973e-20)
(1.38621 0.447116 7.14541e-20)
(1.05429 0.4096 -3.54667e-20)
(0.823687 0.131602 3.51037e-20)
(0.638549 -0.161172 1.04401e-19)
(0.464929 -0.165052 -6.89941e-20)
(0.348417 0.0346744 -3.41398e-20)
(0.267711 0.229162 0)
(0.190123 0.337451 3.3438e-20)
(0.0871353 0.360567 -3.30685e-20)
(-0.0303944 0.316804 0)
(-0.139936 0.234661 0)
(-0.237606 0.142684 0)
(-0.301333 0.054906 3.16288e-20)
(-0.297743 -0.0312385 0)
(-0.204019 -0.104163 -6.1955e-20)
(-0.0432035 -0.15415 0)
(0.131218 -0.23634 -6.09387e-20)
(0.326951 -0.41057 0)
(0.600498 -0.625221 5.98919e-20)
(0.916438 -0.715729 0)
(1.22682 -0.499838 -5.88743e-20)
(1.36493 -0.0458715 2.91285e-20)
(1.33052 0.248474 0)
(1.42232 -0.00211496 5.7106e-20)
(1.462 -0.393192 2.82663e-20)
(1.24189 -0.344846 2.79981e-20)
(0.728918 0.0857984 0)
(0.00756352 0.530976 2.7379e-20)
(-0.760776 0.888242 2.70415e-20)
(-1.4854 1.12468 0)
(-2.13872 1.2078 -2.63705e-20)
(-2.7145 1.18155 5.16352e-20)
(-3.21753 1.09764 0)
(-3.65639 0.987898 2.5061e-20)
(-4.03787 0.869559 0)
(-4.36877 0.75157 -7.18151e-20)
(-4.65254 0.637438 0)
(-4.88975 0.527638 6.88922e-20)
(-5.08025 0.421483 2.25849e-20)
(-5.22471 0.319057 -2.19771e-20)
(-5.32411 0.221798 -4.32336e-20)
(-5.38046 0.131705 4.25918e-20)
(-5.39704 0.0510164 0)
(-5.37813 -0.0188325 0)
(-5.32718 -0.078133 0)
(-5.24277 -0.127305 -1.22379e-19)
(-5.13475 -0.167037 -4.04765e-20)
(-5.00459 -0.198062 4.01485e-20)
(-4.85869 -0.221467 0)
(-4.69987 -0.238182 3.9492e-20)
(-4.53212 -0.249326 -3.93202e-20)
(-4.35809 -0.255869 -3.90745e-20)
(-4.18024 -0.258816 0)
(-4.00043 -0.259068 0)
(-3.82 -0.257474 0)
(-3.63981 -0.254756 -3.81326e-20)
(-3.46027 -0.251463 0)
(-3.28153 -0.247913 7.52797e-20)
(-3.10373 -0.244171 1.12205e-19)
(-2.92712 -0.240117 -7.42972e-20)
(-2.75208 -0.235613 0)
(-2.57907 -0.230596 -3.6623e-20)
(-2.40851 -0.22511 0)
(-2.2407 -0.219269 -7.21696e-20)
(-2.07592 -0.213198 3.57931e-20)
(-1.91435 -0.207109 3.55003e-20)
(-1.75587 -0.20137 0)
(-1.60001 -0.196363 1.04703e-19)
(-1.44604 -0.192395 -6.91727e-20)
(-1.29287 -0.189827 -3.42762e-20)
(-1.13924 -0.188978 0)
(-0.98383 -0.190048 -3.36338e-20)
(-0.825106 -0.192957 -9.99102e-20)
(-0.661535 -0.197394 0)
(-0.491834 -0.202899 -6.52947e-20)
(-0.31527 -0.208628 -6.46386e-20)
(-0.131694 -0.21362 -6.39787e-20)
(0.0581181 -0.216378 0)
(0.251982 -0.216499 0)
(0.447195 -0.213141 0)
(0.640886 -0.205962 3.05676e-20)
(0.829596 -0.19509 3.02034e-20)
(1.01002 -0.181052 0)
(1.17925 -0.164629 5.8858e-20)
(1.335 -0.146685 5.80714e-20)
(1.4756 -0.128012 0)
(1.60014 -0.109327 5.64856e-20)
(1.70847 -0.0913179 1.11367e-19)
(1.80072 -0.0744421 -5.48925e-20)
(1.87729 -0.0588173 -5.40929e-20)
(1.93968 -0.0445851 0)
(1.98944 -0.0319006 0)
(2.02735 -0.0203767 0)
(2.05637 -0.00949602 -5.10035e-20)
(2.07908 0.000948615 5.02399e-20)
(2.09644 0.0109399 9.89878e-20)
(2.10925 0.0205149 -4.87547e-20)
(2.11782 0.0294861 4.8012e-20)
(2.12193 0.0373276 4.72882e-20)
(2.12124 0.0434117 0)
(2.11548 0.0471615 0)
(2.1046 0.0483466 -4.51307e-20)
(2.08897 0.0471863 0)
(2.06929 0.044226 0)
(2.0465 0.0401297 8.60636e-20)
(2.02168 0.0355171 0)
(1.99598 0.0308717 4.16604e-20)
(1.97048 0.026512 -4.09799e-20)
(1.94608 0.0226091 0)
(1.92339 0.0192247 3.96372e-20)
(1.90274 0.01635 0)
(1.88423 0.013936 0)
(1.86778 0.0119166 -3.76495e-20)
(1.85325 0.0102238 7.3991e-20)
(1.84043 0.00879689 -3.63443e-20)
(1.82918 0.00758684 0)
(1.81932 0.00655989 0)
(1.81076 0.00569085 3.44141e-20)
(1.80335 0.00497605 0)
(1.79708 0.00440821 3.31448e-20)
(1.79168 0.00401198 0)
(1.78723 0.00376674 0)
(1.78327 0.00373058 0)
(1.78004 0.0038197 3.06487e-20)
(1.77673 0.00421074 0)
(1.77392 0.00464347 -2.94219e-20)
(1.77032 0.00563655 0)
(1.76681 0.0064001 0)
(1.76184 0.00847322 5.52173e-20)
(1.75553 0.00945702 -5.40244e-20)
(1.74836 0.0138416 0)
(1.73404 0.0143881 0)
(1.72637 0.0241154 0)
(1.68896 0.0215782 1.48041e-19)
(1.69371 0.0440558 0)
(1.59208 0.0327623 -9.41517e-20)
(0.0230425 -0.114975 -4.20249e-23)
(0.1257 -0.095482 -9.97887e-20)
(0.261865 -0.14186 0)
(0.402406 -0.223119 9.81828e-20)
(0.533372 -0.303998 0)
(0.651171 -0.368492 0)
(0.753357 -0.413151 2.57232e-24)
(0.838216 -0.438726 -4.75065e-20)
(0.904047 -0.442517 -4.71095e-20)
(0.948587 -0.424716 -4.67572e-20)
(0.970661 -0.390872 0)
(0.971097 -0.341998 0)
(0.949475 -0.277549 4.56452e-20)
(0.903029 -0.201429 9.06093e-20)
(0.8329 -0.123117 -8.99462e-20)
(0.74736 -0.0467537 0)
(0.658302 0.0246441 -8.86508e-20)
(0.571291 0.0873286 4.40328e-20)
(0.485459 0.136254 0)
(0.398091 0.167524 -8.67641e-20)
(0.307904 0.180642 -4.30974e-20)
(0.21658 0.177003 8.55574e-20)
(0.123823 0.160344 4.24976e-20)
(0.0316759 0.135029 0)
(-0.0564291 0.104434 -8.37617e-20)
(-0.13558 0.0707644 -8.31397e-20)
(-0.203665 0.0350854 0)
(-0.257768 -0.00246188 -8.19071e-20)
(-0.293874 -0.0417326 0)
(-0.309937 -0.0829926 -8.06852e-20)
(-0.302123 -0.124484 -4.00558e-20)
(-0.272462 -0.165193 0)
(-0.219926 -0.201334 0)
(-0.142564 -0.229279 0)
(-0.0494217 -0.250157 0)
(0.0703467 -0.252772 0)
(0.206513 -0.243202 0)
(0.35274 -0.218497 -7.58992e-20)
(0.532403 -0.151201 1.12924e-19)
(0.715789 -0.0888728 0)
(0.907755 -0.00717211 0)
(1.13077 0.123593 0)
(1.3467 0.163646 1.1595e-22)
(1.53914 0.139956 -7.19991e-20)
(1.69393 0.226223 -1.42847e-19)
(1.79663 0.37086 1.41524e-19)
(1.8861 0.451434 7.0091e-20)
(1.86031 0.503304 -6.94137e-20)
(1.63091 0.503885 -3.56285e-23)
(1.35495 0.422634 -6.81919e-20)
(1.15064 0.349686 0)
(0.976869 0.357975 -6.67643e-20)
(0.825148 0.397479 1.01921e-23)
(0.707137 0.393493 0)
(0.594031 0.350549 0)
(0.482298 0.288329 6.3764e-20)
(0.406619 0.1467 0)
(0.378334 -0.102335 0)
(0.42953 -0.380817 -6.17341e-20)
(0.566287 -0.559189 -1.22608e-19)
(0.756299 -0.629652 6.08373e-20)
(0.984525 -0.773866 0)
(1.25813 -1.00202 -5.97832e-20)
(1.50052 -1.05023 0)
(1.60825 -0.628322 -5.84433e-20)
(1.63368 0.0612149 -5.8254e-20)
(1.75073 0.154191 1.15093e-19)
(1.71579 -0.187329 5.70948e-20)
(1.10404 0.0482041 0)
(0.184138 0.664851 -1.12123e-19)
(-0.671602 1.13425 0)
(-1.41777 1.45812 -1.63565e-19)
(-2.03636 1.67107 -1.07281e-19)
(-2.52669 1.76627 -1.05626e-19)
(-2.91125 1.74623 1.03958e-19)
(-3.2237 1.64482 -1.53794e-19)
(-3.49384 1.49946 0)
(-3.74428 1.33983 0)
(-3.98777 1.18178 9.67195e-20)
(-4.2268 1.03061 1.42576e-19)
(-4.45505 0.883892 0)
(-4.66161 0.737154 -4.58509e-20)
(-4.83458 0.588913 0)
(-4.96455 0.441512 1.31963e-19)
(-5.04734 0.29951 4.34263e-22)
(-5.08379 0.167291 -3.83873e-22)
(-5.07821 0.047646 -8.40015e-20)
(-5.03747 -0.0586691 0)
(-4.96666 -0.149949 8.21149e-20)
(-4.87079 -0.225819 2.29276e-22)
(-4.75495 -0.286925 0)
(-4.62334 -0.334404 0)
(-4.47974 -0.369754 0)
(-4.32717 -0.394741 -7.90939e-20)
(-4.1682 -0.41105 0)
(-4.00479 -0.420359 0)
(-3.83861 -0.424125 0)
(-3.67087 -0.423725 0)
(-3.50244 -0.420442 0)
(-3.33369 -0.415426 -7.61759e-20)
(-3.16472 -0.409553 0)
(-2.99546 -0.403357 -7.52912e-20)
(-2.82599 -0.396952 -7.48044e-20)
(-2.65666 -0.390092 7.43069e-20)
(-2.48814 -0.382485 0)
(-2.3212 -0.374012 7.32723e-20)
(-2.15655 -0.364778 0)
(-1.99473 -0.355041 7.21773e-20)
(-1.83619 -0.345053 -7.1606e-20)
(-1.68135 -0.335177 -2.13019e-19)
(-1.53033 -0.32603 0)
(-1.38269 -0.318255 -2.09372e-19)
(-1.23768 -0.312305 -6.91366e-20)
(-1.09409 -0.308761 0)
(-0.950493 -0.308126 -1.35752e-19)
(-0.805416 -0.310687 -1.34451e-19)
(-0.657138 -0.316318 1.99746e-19)
(-0.503961 -0.324541 0)
(-0.344508 -0.334552 6.52928e-20)
(-0.178008 -0.34499 6.46354e-20)
(-0.00411572 -0.353829 1.91841e-19)
(0.175849 -0.359596 0)
(0.359439 -0.361007 0)
(0.544355 -0.356605 0)
(0.727834 -0.345858 6.10887e-20)
(0.90704 -0.328901 0)
(1.07957 -0.306501 0)
(1.24347 -0.279884 -5.88424e-20)
(1.39701 -0.250477 -5.80572e-20)
(1.53858 -0.219621 0)
(1.66676 -0.188503 0)
(1.78041 -0.158119 -1.11344e-19)
(1.87879 -0.129107 0)
(1.96165 -0.102021 1.08175e-19)
(2.02913 -0.077613 1.06592e-19)
(2.08162 -0.0562875 0)
(2.12031 -0.0380841 0)
(2.14747 -0.0227443 -1.01976e-19)
(2.16627 -0.009607 -1.04629e-23)
(2.18024 0.00192327 -9.8095e-24)
(2.19216 0.0125141 0)
(2.20386 0.0220518 -1.92036e-19)
(2.21605 0.0302096 0)
(2.22854 0.0366841 0)
(2.24044 0.0411518 0)
(2.25064 0.0436094 9.02494e-20)
(2.25804 0.0443467 0)
(2.26177 0.043756 -1.74868e-19)
(2.26133 0.0422166 -8.60435e-20)
(2.25668 0.0400024 0)
(2.24817 0.0372782 -8.32965e-20)
(2.23646 0.0341616 0)
(2.22237 0.030784 0)
(2.20679 0.0273089 -2.37752e-19)
(2.19059 0.0239101 1.55839e-19)
(2.17455 0.0207349 0)
(2.15929 0.0178786 1.50559e-19)
(2.14525 0.0153773 -7.39694e-20)
(2.13269 0.0132203 0)
(2.12172 0.0113679 0)
(2.11231 0.00977519 0)
(2.10438 0.0083957 -2.06427e-19)
(2.0978 0.00720713 0)
(2.09238 0.00618102 -6.62713e-20)
(2.08797 0.00534369 0)
(2.08438 0.00466266 0)
(2.08153 0.00423469 0)
(2.07923 0.00394581 0)
(2.07759 0.00405675 0)
(2.07628 0.00421214 0)
(2.0758 0.0051315 -1.15221e-19)
(2.07519 0.0057851 0)
(2.076 0.00814984 -5.52024e-20)
(2.07527 0.00927536 1.62023e-19)
(2.07769 0.0145261 0)
(2.07442 0.0157164 0)
(2.07957 0.0270145 -1.00954e-19)
(2.0678 0.0266295 -9.86583e-20)
(2.07952 0.0504336 9.6348e-20)
(2.04701 0.0457199 9.41177e-20)
(-0.00955631 -0.145765 1.50952e-19)
(0.120572 -0.317459 1.49776e-19)
(0.301768 -0.463353 9.90343e-20)
(0.469637 -0.561209 4.9114e-20)
(0.609316 -0.618213 0)
(0.710103 -0.637182 -9.65507e-20)
(0.771257 -0.625266 4.78777e-20)
(0.790698 -0.589496 0)
(0.773876 -0.520269 4.71261e-20)
(0.719673 -0.419994 0)
(0.62268 -0.305799 -9.27923e-20)
(0.503072 -0.178994 0)
(0.392431 -0.0391036 -4.57259e-20)
(0.286363 0.0926011 -9.07712e-20)
(0.163171 0.189766 9.01079e-20)
(0.031897 0.241481 0)
(-0.0995671 0.264517 8.87669e-20)
(-0.228911 0.281632 0)
(-0.358733 0.302694 0)
(-0.490495 0.326332 8.67184e-20)
(-0.62722 0.346022 0)
(-0.765251 0.354751 -9.37518e-23)
(-0.90045 0.34921 0)
(-1.02788 0.327573 0)
(-1.14172 0.289495 1.25969e-22)
(-1.23667 0.23541 8.28891e-20)
(-1.30884 0.167325 8.21404e-20)
(-1.35557 0.0884288 8.16775e-20)
(-1.37625 0.00206475 0)
(-1.37078 -0.0876512 1.60808e-19)
(-1.3399 -0.176871 0)
(-1.28394 -0.262281 7.91608e-20)
(-1.20428 -0.340708 0)
(-1.10219 -0.408397 0)
(-0.977294 -0.462686 -7.74647e-20)
(-0.830923 -0.500568 0)
(-0.66738 -0.520823 7.63711e-20)
(-0.484539 -0.519485 1.53402e-23)
(-0.274902 -0.492229 -1.50604e-19)
(-0.0491944 -0.452788 1.4952e-19)
(0.193363 -0.393875 0)
(0.467946 -0.295768 0)
(0.751442 -0.19773 7.29577e-20)
(1.01765 -0.122031 0)
(1.27289 -0.0195908 7.15241e-20)
(1.51965 0.111769 -7.08371e-20)
(1.75623 0.20906 -7.0125e-20)
(1.96424 0.310793 0)
(2.11306 0.455698 6.87536e-20)
(2.20832 0.598299 6.80575e-20)
(2.24357 0.692464 -1.34609e-19)
(2.19619 0.731291 6.65781e-20)
(2.09577 0.719576 6.58215e-20)
(1.99336 0.654877 0)
(1.88037 0.549228 0)
(1.77459 0.39679 -6.35815e-20)
(1.70419 0.187721 0)
(1.63141 -0.0431194 0)
(1.59358 -0.341626 1.23355e-19)
(1.56717 -0.653726 1.22341e-19)
(1.56006 -0.810063 0)
(1.66328 -1.01209 0)
(1.81781 -1.32261 0)
(1.92283 -1.27725 0)
(1.89939 -0.797682 1.1718e-19)
(1.84781 -0.258014 -1.15602e-19)
(1.62751 0.212768 -1.15097e-19)
(0.846869 0.777119 -2.28132e-19)
(-0.141732 1.32083 0)
(-0.952611 1.70149 4.47809e-22)
(-1.59808 1.95377 0)
(-2.10468 2.10871 1.0871e-19)
(-2.48285 2.16674 6.29299e-22)
(-2.75854 2.13445 1.05521e-19)
(-2.96968 2.03271 -1.03898e-19)
(-3.15326 1.89189 8.13804e-22)
(-3.3395 1.73861 0)
(-3.54746 1.58904 -9.77966e-20)
(-3.78008 1.44459 -9.67138e-20)
(-4.02329 1.29473 -1.88845e-19)
(-4.25187 1.12743 0)
(-4.44053 0.939504 9.04188e-20)
(-4.57497 0.737726 0)
(-4.65343 0.533856 -1.75113e-19)
(-4.68109 0.338779 8.64337e-20)
(-4.66689 0.159532 -8.51777e-20)
(-4.6212 -0.000235426 8.40613e-20)
(-4.55075 -0.138038 1.6539e-19)
(-4.46039 -0.252858 -8.21672e-20)