/*--------------------------------*- C++ -*----------------------------------*\
  =========                 |
  \\      /  F ield         | OpenFOAM: The Open Source CFD Toolbox
   \\    /   O peration     | Website:  https://openfoam.org
    \\  /    A nd           | Version:  7
     \\/     M anipulation  |
\*---------------------------------------------------------------------------*/
FoamFile
{
    version     2.0;
    format      ascii;
    class       volVectorField;
    location    "0.085";
    object      UMean;
}
// * * * * * * * * * * * * * * * * * * * * * * * * * * * * * * * * * * * * * //

dimensions      [0 1 -1 0 0 0 0];

internalField   nonuniform List<vector> 
12225
(
(4.7709 0.164236 0)
(4.17382 0.111514 0)
(3.71067 0.0984202 0)
(3.33912 0.0820389 0)
(3.00364 0.0689827 0)
(2.68967 0.05939 0)
(2.39844 0.0511024 0)
(2.13453 0.0432118 0)
(1.90154 0.0350207 0)
(1.70015 0.0275214 0)
(1.53141 0.019542 0)
(1.39221 0.0138749 0)
(1.2827 0.00637021 0)
(1.19611 0.005131 0)
(1.13024 -0.00359871 0)
(1.0813 0.00351618 0)
(1.04157 -0.0137427 0)
(1.01666 -0.000516565 0)
(5.02048 0.113416 0)
(4.87275 0.0739219 0)
(4.75468 0.0902223 0)
(4.66483 0.0900391 0)
(4.5709 0.0888752 0)
(4.46462 0.0896925 0)
(4.34793 0.0903395 0)
(4.22652 0.0889152 0)
(4.10325 0.0857161 0)
(3.98314 0.0800285 0)
(3.86548 0.0737893 0)
(3.7566 0.0651597 0)
(3.65072 0.0585591 0)
(3.55855 0.0487182 0)
(3.46443 0.0452845 0)
(3.38941 0.0340092 0)
(3.3035 0.0345607 0)
(3.23787 0.0131456 0)
(4.99504 0.172443 0)
(4.87442 0.122835 0)
(4.79525 0.131361 0)
(4.76432 0.126283 0)
(4.74848 0.119663 0)
(4.73224 0.116887 0)
(4.71332 0.115481 0)
(4.69239 0.113435 0)
(4.66965 0.10928 0)
(4.64451 0.103977 0)
(4.61702 0.0964327 0)
(4.58675 0.0894023 0)
(4.55523 0.0802542 0)
(4.52141 0.0743824 0)
(4.48885 0.0656117 0)
(4.45331 0.062256 0)
(4.42269 0.0536488 0)
(4.38304 0.0448212 0)
(4.99037 0.189214 0)
(4.89245 0.120836 0)
(4.81506 0.119937 0)
(4.78055 0.116249 0)
(4.76715 0.109639 0)
(4.75899 0.106088 0)
(4.75304 0.105037 0)
(4.74987 0.10373 0)
(4.7494 0.10115 0)
(4.75021 0.0968199 0)
(4.75127 0.091697 0)
(4.75115 0.0853644 0)
(4.75033 0.0795783 0)
(4.74747 0.0730817 0)
(4.7452 0.0684316 0)
(4.7405 0.0627882 0)
(4.73907 0.0581665 0)
(4.73231 0.0514727 0)
(4.99729 0.214496 0)
(4.92267 0.144747 0)
(4.85318 0.136363 0)
(4.8165 0.132416 0)
(4.80076 0.124075 0)
(4.7914 0.117326 0)
(4.78448 0.113283 0)
(4.78051 0.110024 0)
(4.77995 0.105861 0)
(4.78178 0.100698 0)
(4.78508 0.0945619 0)
(4.78853 0.0881864 0)
(4.79217 0.0815717 0)
(4.79527 0.07543 0)
(4.79893 0.0696761 0)
(4.80222 0.0640848 0)
(4.80697 0.0588591 0)
(4.81035 0.0515026 0)
(4.99048 0.229607 0)
(4.93528 0.158921 0)
(4.87595 0.141812 0)
(4.84067 0.135876 0)
(4.82513 0.126619 0)
(4.81695 0.11795 0)
(4.81101 0.112045 0)
(4.80724 0.107546 0)
(4.80628 0.102852 0)
(4.80763 0.0973037 0)
(4.81049 0.091136 0)
(4.81382 0.0845941 0)
(4.81749 0.0781298 0)
(4.82099 0.0718494 0)
(4.82505 0.0659403 0)
(4.82904 0.0602386 0)
(4.8341 0.0543237 0)
(4.83836 0.0479002 0)
(5.00101 0.244858 0)
(4.95905 0.176148 0)
(4.90817 0.151997 0)
(4.87367 0.14306 0)
(4.85692 0.133053 0)
(4.84862 0.123043 0)
(4.84306 0.115311 0)
(4.83931 0.109364 0)
(4.83794 0.103716 0)
(4.83872 0.0975922 0)
(4.84105 0.090998 0)
(4.84399 0.0841979 0)
(4.8474 0.077482 0)
(4.85073 0.0709445 0)
(4.85465 0.064726 0)
(4.85836 0.0585951 0)
(4.86309 0.0524655 0)
(4.86679 0.0461006 0)
(5.00173 0.254426 0)
(4.97236 0.190215 0)
(4.93143 0.161209 0)
(4.90031 0.148627 0)
(4.8839 0.13768 0)
(4.87621 0.126636 0)
(4.8717 0.117317 0)
(4.86876 0.109878 0)
(4.86768 0.103241 0)
(4.86845 0.0965305 0)
(4.8707 0.0895566 0)
(4.8736 0.0824861 0)
(4.87701 0.0755206 0)
(4.8804 0.0687766 0)
(4.88436 0.0622445 0)
(4.88804 0.0558843 0)
(4.89268 0.0495299 0)
(4.89624 0.0431958 0)
(5.00219 0.261852 0)
(4.982 0.202722 0)
(4.94995 0.170587 0)
(4.92274 0.154333 0)
(4.907 0.142069 0)
(4.89957 0.130147 0)
(4.89571 0.119506 0)
(4.89338 0.110679 0)
(4.89256 0.103015 0)
(4.89334 0.0956874 0)
(4.89557 0.0883293 0)
(4.89859 0.0809565 0)
(4.90221 0.0737144 0)
(4.90587 0.0667038 0)
(4.91003 0.0599118 0)
(4.9139 0.0533287 0)
(4.91855 0.0468052 0)
(4.92231 0.0404514 0)
(4.99843 0.268169 0)
(4.98487 0.213809 0)
(4.96002 0.17977 0)
(4.93691 0.16021 0)
(4.92254 0.146266 0)
(4.9157 0.133486 0)
(4.91264 0.121803 0)
(4.91112 0.111753 0)
(4.91084 0.103031 0)
(4.91187 0.0949582 0)
(4.91419 0.0870888 0)
(4.91727 0.079348 0)
(4.92093 0.0717889 0)
(4.92464 0.0645074 0)
(4.92875 0.0574557 0)
(4.93265 0.0506679 0)
(4.93717 0.0439657 0)
(4.94104 0.0375252 0)
(4.99473 0.271172 0)
(4.98525 0.221908 0)
(4.96581 0.187155 0)
(4.94645 0.164955 0)
(4.93356 0.149156 0)
(4.92712 0.135426 0)
(4.92444 0.122861 0)
(4.92346 0.111756 0)
(4.9236 0.102058 0)
(4.92488 0.0932726 0)
(4.92734 0.0849374 0)
(4.93056 0.0768786 0)
(4.93438 0.0690575 0)
(4.93827 0.0615402 0)
(4.94253 0.0542546 0)
(4.94651 0.0472493 0)
(4.95111 0.0403408 0)
(4.955 0.0337097 0)
(5.00288 0.274656 0)
(4.99582 0.229348 0)
(4.98034 0.194632 0)
(4.96413 0.170553 0)
(4.95265 0.152995 0)
(4.94653 0.138252 0)
(4.94394 0.124927 0)
(4.94308 0.112981 0)
(4.94329 0.102382 0)
(4.94442 0.0928189 0)
(4.94658 0.0839007 0)
(4.94944 0.0754221 0)
(4.95292 0.0672802 0)
(4.95652 0.0595089 0)
(4.96054 0.0520038 0)
(4.96429 0.0448215 0)
(4.96869 0.0377411 0)
(4.97238 0.0309583 0)
(4.99995 0.27724 0)
(4.99613 0.233905 0)
(4.98497 0.199585 0)
(4.97241 0.17424 0)
(4.96315 0.155112 0)
(4.95821 0.13928 0)
(4.95644 0.125193 0)
(4.95635 0.112521 0)
(4.95718 0.101198 0)
(4.95868 0.0910235 0)
(4.96095 0.0816552 0)
(4.96376 0.0728546 0)
(4.96717 0.0644534 0)
(4.97067 0.056433 0)
(4.97465 0.048683 0)
(4.97835 0.0412617 0)
(4.98275 0.033964 0)
(4.98632 0.026971 0)
(5.00551 0.280198 0)
(5.004 0.239536 0)
(4.99594 0.206027 0)
(4.98616 0.179678 0)
(4.97883 0.158912 0)
(4.97505 0.141727 0)
(4.97406 0.126727 0)
(4.97467 0.113321 0)
(4.97615 0.101303 0)
(4.97815 0.0904701 0)
(4.98077 0.0805373 0)
(4.98383 0.0712703 0)
(4.98745 0.0624763 0)
(4.99116 0.0541168 0)
(4.9953 0.0460722 0)
(4.99911 0.0384007 0)
(5.0035 0.0308874 0)
(5.00705 0.0237236 0)
(5.0047 0.279382 0)
(5.00553 0.241998 0)
(5.00068 0.20923 0)
(4.99427 0.18208 0)
(4.98962 0.15993 0)
(4.98756 0.141446 0)
(4.98762 0.125454 0)
(4.98899 0.11128 0)
(4.99113 0.098578 0)
(4.99372 0.0871105 0)
(4.99678 0.0766159 0)
(5.00012 0.0668825 0)
(5.00387 0.0577168 0)
(5.00762 0.0490565 0)
(5.01172 0.0407714 0)
(5.01546 0.0328944 0)
(5.01973 0.0252235 0)
(5.02316 0.0179081 0)
(5.00885 0.28144 0)
(5.01148 0.246463 0)
(5.00976 0.214266 0)
(5.0067 0.186344 0)
(5.00488 0.162884 0)
(5.00491 0.143117 0)
(5.00643 0.126073 0)
(5.00892 0.111042 0)
(5.01202 0.0976061 0)
(5.01545 0.0855011 0)
(5.01918 0.0744698 0)
(5.02302 0.0643011 0)
(5.02706 0.0547796 0)
(5.03101 0.0458235 0)
(5.03512 0.0372877 0)
(5.03887 0.0292175 0)
(5.04291 0.021407 0)
(5.04619 0.0140376 0)
(5.00045 0.278656 0)
(5.00274 0.243523 0)
(5.00242 0.211631 0)
(5.00208 0.183665 0)
(5.00316 0.159554 0)
(5.00562 0.13879 0)
(5.009 0.120746 0)
(5.0129 0.10489 0)
(5.01714 0.0908112 0)
(5.02158 0.0781918 0)
(5.0262 0.0667395 0)
(5.03084 0.0562319 0)
(5.03554 0.0464566 0)
(5.04002 0.0373181 0)
(5.04448 0.0286753 0)
(5.04848 0.0205442 0)
(5.05257 0.0127458 0)
(5.05591 0.00539733 0)
(5.00189 0.284498 0)
(5.00602 0.246622 0)
(5.00808 0.213033 0)
(5.01045 0.18374 0)
(5.01449 0.158328 0)
(5.01973 0.136369 0)
(5.02538 0.117376 0)
(5.03099 0.100829 0)
(5.03651 0.0862374 0)
(5.04189 0.0732248 0)
(5.0472 0.0614954 0)
(5.05231 0.0508652 0)
(5.05731 0.0411417 0)
(5.06194 0.0322309 0)
(5.06649 0.0239414 0)
(5.07046 0.0162611 0)
(5.07452 0.00894631 0)
(5.07767 0.00213085 0)
(5.00119 0.278154 0)
(5.00907 0.23853 0)
(5.01563 0.203018 0)
(5.02237 0.172108 0)
(5.03039 0.145622 0)
(5.03923 0.122982 0)
(5.04804 0.10347 0)
(5.0564 0.0864324 0)
(5.06426 0.0713615 0)
(5.07161 0.0579117 0)
(5.07852 0.0458229 0)
(5.08485 0.034911 0)
(5.09072 0.0249881 0)
(5.09594 0.0159385 0)
(5.10081 0.00759196 0)
(5.105 -8.95986e-05 0)
(5.10913 -0.00729491 0)
(5.11239 -0.0139456 0)
(5.0029 0.275507 0)
(5.01219 0.231524 0)
(5.02219 0.192377 0)
(5.03354 0.159276 0)
(5.04607 0.131995 0)
(5.05852 0.109497 0)
(5.06996 0.0906507 0)
(5.08019 0.0746066 0)
(5.08951 0.0607866 0)
(5.09811 0.0487939 0)
(5.10616 0.0382772 0)
(5.11356 0.0289441 0)
(5.12039 0.0205088 0)
(5.12646 0.0128167 0)
(5.13204 0.00568446 0)
(5.1368 -0.000890044 0)
(5.1413 -0.00708262 0)
(5.14484 -0.012769 0)
(5.00231 0.271856 0)
(5.01408 0.220787 0)
(5.02877 0.177284 0)
(5.04585 0.142275 0)
(5.06373 0.114359 0)
(5.08058 0.0913911 0)
(5.09552 0.0717577 0)
(5.10858 0.0546934 0)
(5.1202 0.0399261 0)
(5.13061 0.0272725 0)
(5.13995 0.0164438 0)
(5.14819 0.00710132 0)
(5.1555 -0.0010955 0)
(5.16185 -0.00838454 0)
(5.1676 -0.014988 0)
(5.17253 -0.0209969 0)
(5.1772 -0.0265709 0)
(5.18093 -0.0316812 0)
(5.00381 0.265999 0)
(5.01997 0.205477 0)
(5.04121 0.158259 0)
(5.06473 0.123882 0)
(5.08725 0.0988238 0)
(5.10671 0.0793839 0)
(5.12306 0.0632091 0)
(5.1373 0.0493285 0)
(5.15029 0.0374048 0)
(5.16223 0.0271721 0)
(5.17308 0.0182755 0)
(5.18267 0.0104019 0)
(5.19116 0.00329126 0)
(5.19851 -0.00317569 0)
(5.20508 -0.00912719 0)
(5.21068 -0.0145608 0)
(5.21587 -0.0196336 0)
(5.22006 -0.0242598 0)
(4.99982 0.260224 0)
(5.02486 0.187922 0)
(5.05717 0.135152 0)
(5.09019 0.0988316 0)
(5.11917 0.0724003 0)
(5.1426 0.051008 0)
(5.16154 0.0328303 0)
(5.17764 0.0177287 0)
(5.19185 0.00562462 0)
(5.20439 -0.00400965 0)
(5.21531 -0.011912 0)
(5.22467 -0.0186643 0)
(5.23279 -0.0246187 0)
(5.23978 -0.0299414 0)
(5.24604 -0.0347624 0)
(5.25135 -0.0391442 0)
(5.25625 -0.0431992 0)
(5.26012 -0.0469316 0)
(5.00587 0.24492 0)
(5.03987 0.164706 0)
(5.08338 0.115626 0)
(5.12364 0.0882341 0)
(5.15533 0.0697761 0)
(5.17961 0.0534746 0)
(5.19987 0.0386097 0)
(5.21825 0.0259619 0)
(5.23502 0.0156576 0)
(5.24967 0.00716917 0)
(5.26206 -0.000110522 0)
(5.27242 -0.00653968 0)
(5.28131 -0.0122933 0)
(5.28898 -0.0174393 0)
(5.29584 -0.0221005 0)
(5.30171 -0.0263265 0)
(5.3071 -0.0302652 0)
(5.31147 -0.033874 0)
(5.00364 0.228525 0)
(5.05441 0.127058 0)
(5.11612 0.0726836 0)
(5.1663 0.044792 0)
(5.20079 0.0249747 0)
(5.22538 0.00757137 0)
(5.24606 -0.00634319 0)
(5.26497 -0.0162202 0)
(5.28199 -0.0232467 0)
(5.29661 -0.0288777 0)
(5.30897 -0.0338857 0)
(5.31944 -0.0384533 0)
(5.32856 -0.0425791 0)
(5.33646 -0.0462796 0)
(5.3435 -0.0496308 0)
(5.34945 -0.0526979 0)
(5.35485 -0.0555549 0)
(5.35914 -0.058212 0)
(5.01321 0.2126 0)
(5.08618 0.113096 0)
(5.16616 0.0779452 0)
(5.22344 0.0619546 0)
(5.25938 0.0440217 0)
(5.28579 0.0259602 0)
(5.30964 0.0117016 0)
(5.33157 0.00169009 0)
(5.35041 -0.00568525 0)
(5.36579 -0.0118084 0)
(5.37835 -0.0172315 0)
(5.38885 -0.0220506 0)
(5.39791 -0.0263078 0)
(5.40569 -0.0300858 0)
(5.41252 -0.03351 0)
(5.41828 -0.0366456 0)
(5.42348 -0.0395802 0)
(5.42767 -0.0422906 0)
(5.01071 0.160296 0)
(5.12324 0.0347151 0)
(5.22231 0.00669574 0)
(5.27986 -0.00272809 0)
(5.31241 -0.0168161 0)
(5.33826 -0.0291316 0)
(5.36296 -0.0366906 0)
(5.38555 -0.04128 0)
(5.40465 -0.0448905 0)
(5.42025 -0.0482303 0)
(5.43322 -0.0512981 0)
(5.44431 -0.0540389 0)
(5.45404 -0.0564809 0)
(5.4625 -0.0587107 0)
(5.47002 -0.0607809 0)
(5.47641 -0.062739 0)
(5.48221 -0.0646005 0)
(5.48693 -0.0663825 0)
(5.01831 0.153032 0)
(5.17967 0.0585783 0)
(5.30342 0.0446718 0)
(5.36431 0.0284143 0)
(5.39769 0.00929537 0)
(5.42646 -0.0044112 0)
(5.45362 -0.0125289 0)
(5.47725 -0.0181073 0)
(5.49651 -0.02289 0)
(5.51203 -0.0272446 0)
(5.52474 -0.0311026 0)
(5.53535 -0.0345043 0)
(5.54423 -0.0375123 0)
(5.55157 -0.0402617 0)
(5.55756 -0.0427651 0)
(5.56226 -0.0451314 0)
(5.56595 -0.0473257 0)
(5.56856 -0.0494562 0)
(5.01869 0.0195122 0)
(5.22957 -0.0518465 0)
(5.35624 -0.0345698 0)
(5.41077 -0.0431724 0)
(5.44123 -0.0533639 0)
(5.46515 -0.0579684 0)
(5.48341 -0.0597107 0)
(5.49456 -0.0609594 0)
(5.49863 -0.0622432 0)
(5.49686 -0.0634609 0)
(5.49041 -0.0645001 0)
(5.48041 -0.0653939 0)
(5.46729 -0.0661602 0)
(5.45186 -0.0668814 0)
(5.43402 -0.0675251 0)
(5.41485 -0.0681773 0)
(5.39354 -0.0687719 0)
(5.372 -0.0694398 0)
(4.97065 0.0704815 0)
(5.10518 -0.0007112 0)
(5.07676 -0.000587902 0)
(4.96282 -0.0109108 0)
(4.83518 -0.0185929 0)
(4.7105 -0.0216517 0)
(4.58925 -0.0228886 0)
(4.46984 -0.0237299 0)
(4.35186 -0.0243765 0)
(4.23602 -0.0247887 0)
(4.12304 -0.0249809 0)
(4.01366 -0.0250153 0)
(3.90786 -0.024945 0)
(3.80606 -0.0248247 0)
(3.70753 -0.0246624 0)
(3.61317 -0.0245008 0)
(3.52129 -0.0243129 0)
(3.4343 -0.0241861 0)
(-0.0355706 0.0836609 9.85231e-22)
(-0.0965071 0.0528377 -9.76603e-22)
(-0.121812 0.014953 0)
(-0.11394 -0.0208479 0)
(-0.0749525 -0.0525673 0)
(-0.0123009 -0.0772711 9.41701e-22)
(0.0676497 -0.0955256 0)
(0.161516 -0.10847 0)
(0.264491 -0.115429 0)
(0.372933 -0.117385 0)
(0.482549 -0.114802 -8.95583e-22)
(0.589259 -0.108917 0)
(0.689957 -0.100165 0)
(0.78242 -0.0890558 0)
(0.86435 -0.0760397 0)
(0.933754 -0.0615127 -7.90804e-22)
(0.988997 -0.0457588 0)
(1.02884 -0.0290297 0)
(1.05235 -0.0115152 0)
(1.05807 0.00651179 0)
(1.04563 0.0246259 0)
(1.01497 0.0422903 0)
(0.966763 0.0588399 0)
(0.902213 0.0735071 -6.93181e-22)
(0.823174 0.0854734 6.92366e-22)
(0.731683 0.0940196 -6.9223e-22)
(0.630603 0.0990929 -6.92106e-22)
(0.523177 0.0998842 0)
(0.413546 0.0966753 0)
(0.304051 0.0872617 6.87718e-22)
(0.200006 0.0714069 6.84321e-22)
(0.10159 0.0575465 0)
(0.00250159 0.0514324 0)
(-0.10273 0.0535053 6.67086e-22)
(-0.214264 0.0631376 0)
(-0.331141 0.0711939 0)
(-0.449809 0.0682042 -6.39217e-22)
(-0.568386 0.0608912 0)
(-0.685385 0.0609247 -6.12759e-22)
(-0.800135 0.0625166 -1.19575e-21)
(-0.911664 0.0546852 0)
(-1.01228 0.046944 0)
(-1.10305 0.0469054 0)
(-1.18598 0.0493158 0)
(-1.26238 0.0514951 0)
(-1.3322 0.0580148 -9.98586e-22)
(-1.39806 0.0588153 -9.67738e-22)
(-1.45643 0.0496878 -9.38764e-22)
(-1.50734 0.0410495 0)
(-1.55368 0.0342217 8.90237e-22)
(-1.59443 0.0284186 0)
(-1.62962 0.0238704 -8.58351e-22)
(-1.65852 0.0209662 -8.49068e-22)
(-1.68056 0.0185721 0)
(-1.69505 0.0149704 0)
(-1.70181 0.0100778 0)
(-1.702 0.00459553 -8.45996e-22)
(-1.69761 -0.000995804 0)
(-1.69032 -0.00551617 0)
(-1.68027 -0.00781472 0)
(-1.66832 -0.00736056 0)
(-1.65747 -0.0036988 0)
(-1.6514 0.00194785 0)
(-1.65248 0.00706928 0)
(-1.66096 0.0101149 0)
(-1.67458 0.0101171 8.98378e-22)
(-1.68759 0.0080729 0)
(-1.69637 0.00639528 0)
(-1.70211 0.00592013 -8.90537e-22)
(-1.7064 0.00615108 -8.84082e-22)
(-1.70981 0.00686885 0)
(-1.71199 0.00806492 8.70895e-22)
(-1.71244 0.00891136 -8.65726e-22)
(-1.70994 0.00809957 0)
(-1.70256 0.0053704 8.58909e-22)
(-1.68894 0.00160441 0)
(-1.66846 -0.00255877 0)
(-1.64094 -0.00679613 -8.6052e-22)
(-1.60636 -0.0109423 0)
(-1.56488 -0.0149063 8.75098e-22)
(-1.51674 -0.0186491 0)
(-1.46226 -0.0221604 -9.0329e-22)
(-1.40164 -0.0254223 -9.22603e-22)
(-1.33526 -0.0284176 -9.45238e-22)
(-1.26343 -0.0311354 -1.94193e-21)
(-1.18657 -0.0335599 1.99896e-21)
(-1.10507 -0.0356728 0)
(-1.0194 -0.037452 0)
(-0.930052 -0.0388908 0)
(-0.837733 -0.0400088 2.26561e-21)
(-0.742858 -0.0408334 2.33667e-21)
(-0.645978 -0.0413746 -2.40723e-21)
(-0.547577 -0.0416511 0)
(-0.448164 -0.0416699 2.54273e-21)
(-0.348213 -0.0414544 2.60587e-21)
(-0.248174 -0.0410236 2.665e-21)
(-0.148462 -0.0404018 0)
(-0.0494632 -0.039622 0)
(0.0484969 -0.0386972 0)
(0.145139 -0.0376599 2.85345e-21)
(0.2402 -0.0365083 0)
(0.333427 -0.0352603 0)
(0.424547 -0.0339032 -2.94035e-21)
(0.513263 -0.0324386 0)
(0.59926 -0.0308564 0)
(0.682211 -0.0291611 -2.98088e-21)
(0.761792 -0.0273582 0)
(0.837732 -0.025471 0)
(0.909805 -0.0235284 2.97867e-21)
(0.977852 -0.0215602 2.96978e-21)
(1.04177 -0.0196043 0)
(1.10152 -0.0176811 -2.94213e-21)
(1.15716 -0.0158306 0)
(1.20878 -0.0140674 2.90411e-21)
(1.25651 -0.0124003 0)
(1.30051 -0.0108411 2.85861e-21)
(1.34094 -0.00938024 2.83375e-21)
(1.37797 -0.00800733 0)
(1.41173 -0.00671182 0)
(1.44235 -0.00547663 0)
(1.46989 -0.00429378 0)
(1.49442 -0.00315478 0)
(1.51598 -0.00206029 0)
(1.53462 -0.00101005 0)
(1.55039 -8.10135e-06 2.60498e-21)
(1.56337 0.000938762 -2.57429e-21)
(1.57365 0.00182283 0)
(1.58134 0.00263723 0)
(1.58658 0.0033756 0)
(1.58952 0.00403347 0)
(1.59033 0.00460698 -4.84306e-21)
(1.58919 0.00509513 0)
(1.58627 0.00550181 4.72457e-21)
(1.58176 0.00582962 -4.6665e-21)
(1.57583 0.00607748 0)
(1.56867 0.00625121 0)
(1.56043 0.00635835 0)
(1.55129 0.00638959 4.4426e-21)
(1.54144 0.0063284 4.38866e-21)
(1.53108 0.00616687 0)
(1.52043 0.00590285 4.28303e-21)
(1.50972 0.00554113 4.2313e-21)
(1.49918 0.00509825 -4.18026e-21)
(1.48901 0.00460236 0)
(1.47937 0.00408662 0)
(1.47039 0.00358253 -4.03116e-21)
(1.46215 0.00311534 0)
(1.45465 0.00270119 0)
(1.44787 0.00234685 0)
(1.44177 0.00205142 0)
(1.43629 0.00180913 3.79489e-21)
(1.43133 0.00161212 3.74924e-21)
(1.42685 0.00145271 0)
(1.42277 0.00132438 3.6593e-21)
(1.41902 0.00122209 0)
(1.41555 0.00114181 0)
(1.4123 0.00108041 3.52755e-21)
(1.40923 0.00103511 0)
(1.40629 0.00100401 3.44165e-21)
(1.40344 0.000985184 0)
(1.40063 0.000978396 0)
(1.39783 0.000983013 3.31554e-21)
(1.39495 0.00100151 0)
(1.39203 0.00103374 3.23329e-21)
(1.38886 0.00108659 0)
(1.38558 0.00115836 0)
(1.38178 0.00126573 0)
(1.37784 0.00139825 -3.07346e-21)
(1.37288 0.00159985 0)
(1.36777 0.00182307 2.9963e-21)
(1.3608 0.00219775 0)
(1.35363 0.00254199 0)
(1.34329 0.00329105 0)
(1.33203 0.00374814 0)
(1.31663 0.00545965 0)
(1.29551 0.00572866 0)
(1.27506 0.010402 0)
(1.2242 0.0088186 -5.45048e-21)
(1.21084 0.0247311 0)
(1.05675 0.0162905 0)
(-0.000378579 0.18042 -2.94427e-21)
(-0.0135161 0.115324 2.91902e-21)
(-0.00525221 0.0151861 0)
(0.0187777 -0.079848 -1.90055e-21)
(0.0634174 -0.16021 0)
(0.12231 -0.221992 -9.42476e-22)
(0.197389 -0.268192 1.85117e-21)
(0.282335 -0.300543 1.83397e-21)
(0.373556 -0.319557 0)
(0.466132 -0.325663 1.7868e-21)
(0.556848 -0.320186 8.96446e-22)
(0.643256 -0.304853 0)
(0.723507 -0.281365 0)
(0.795891 -0.251318 0)
(0.858759 -0.216058 0)
(0.910689 -0.176652 7.91588e-22)
(0.950378 -0.133962 0)
(0.976797 -0.0888289 -1.45165e-21)
(0.988968 -0.0421406 0)
(0.987213 0.00507957 0)
(0.971133 0.0515832 1.36944e-21)
(0.94076 0.0961206 0)
(0.89673 0.137627 -1.34865e-21)
(0.839941 0.175223 6.9401e-22)
(0.771797 0.208023 -6.9322e-22)
(0.694085 0.234656 6.93116e-22)
(0.608963 0.253866 6.93028e-22)
(0.518743 0.264667 0)
(0.426174 0.267484 0)
(0.332137 0.263988 -6.88724e-22)
(0.234759 0.257522 6.54976e-22)
(0.12685 0.260012 0)
(0.00948289 0.274891 0)
(-0.11242 0.28867 -6.68103e-22)
(-0.234132 0.29327 0)
(-0.356805 0.292644 0)
(-0.483186 0.295222 6.40256e-22)
(-0.61412 0.296556 0)
(-0.74568 0.289293 -5.64856e-22)
(-0.876586 0.277173 1.19774e-21)
(-1.00719 0.261928 0)
(-1.13288 0.237914 0)
(-1.25153 0.208405 2.0926e-21)
(-1.36247 0.182963 2.02585e-21)
(-1.46236 0.159533 1.95874e-21)
(-1.54462 0.136097 -8.92837e-22)
(-1.61255 0.116215 9.69291e-22)
(-1.67028 0.102978 2.71469e-21)
(-1.71945 0.0943412 -1.72416e-21)
(-1.76206 0.0856962 -8.91593e-22)
(-1.79958 0.0756475 0)
(-1.83262 0.0631607 8.59655e-22)
(-1.8599 0.0474928 -7.59289e-22)
(-1.88079 0.0294806 0)
(-1.89503 0.0118591 0)
(-1.90247 -0.00269025 0)
(-1.90365 -0.0119868 8.47091e-22)
(-1.89999 -0.0163345 0)
(-1.89358 -0.0187448 -1.6478e-21)
(-1.88619 -0.0217551 0)
(-1.87859 -0.0231533 -1.67842e-21)
(-1.87188 -0.0197006 0)
(-1.8678 -0.0103648 1.70954e-21)
(-1.86825 0.00319158 0)
(-1.8736 0.0156677 -1.73169e-21)
(-1.88202 0.020654 8.38173e-22)
(-1.88965 0.01631 0)
(-1.89497 0.00843791 1.73684e-21)
(-1.89796 0.00371276 8.91292e-22)
(-1.89724 0.00193501 8.84796e-22)
(-1.89153 -0.000761675 0)
(-1.87996 -0.00570806 8.24838e-22)
(-1.86198 -0.012659 8.66315e-22)
(-1.83761 -0.0214492 0)
(-1.80705 -0.0315881 -8.59462e-22)
(-1.77053 -0.0423703 1.67391e-21)
(-1.72824 -0.0533271 0)
(-1.68032 -0.0641516 8.60965e-22)
(-1.62684 -0.0746695 0)
(-1.56787 -0.0847539 -2.59254e-21)
(-1.50346 -0.0943258 0)
(-1.43368 -0.103318 2.68078e-21)
(-1.35881 -0.111679 9.22879e-22)
(-1.27911 -0.119357 -9.19076e-22)
(-1.19492 -0.126319 -1.89311e-21)
(-1.10657 -0.132533 1.95365e-21)
(-1.01441 -0.137967 0)
(-0.918804 -0.142593 0)
(-0.820123 -0.146397 0)
(-0.718584 -0.149373 -6.76548e-21)
(-0.614703 -0.151537 -2.33681e-21)
(-0.508911 -0.152894 2.40735e-21)
(-0.401706 -0.153469 0)
(-0.293549 -0.153293 2.52105e-21)
(-0.184914 -0.152419 -2.6059e-21)
(-0.076224 -0.150911 -2.66501e-21)
(0.0321121 -0.148844 0)
(0.139733 -0.1463 0)
(0.246332 -0.143348 0)
(0.351656 -0.140052 -2.85337e-21)
(0.455466 -0.136446 0)
(0.55753 -0.132547 5.82044e-21)
(0.657603 -0.12834 8.80898e-21)
(0.755403 -0.123813 -5.90674e-21)
(0.850628 -0.118939 0)
(0.942964 -0.11373 -2.97161e-21)
(1.03209 -0.108209 0)
(1.11775 -0.102433 -5.95942e-21)
(1.19973 -0.0964725 2.97143e-21)
(1.27788 -0.0904235 2.96306e-21)
(1.35213 -0.0843857 0)
(1.42246 -0.0784526 8.82005e-21)
(1.48891 -0.0727113 -5.84273e-21)
(1.5516 -0.0672183 -2.90383e-21)
(1.61066 -0.0620057 0)
(1.66624 -0.0570914 -2.8583e-21)
(1.71852 -0.0524564 -8.49665e-21)
(1.76766 -0.0480652 0)
(1.81379 -0.0438835 -5.55802e-21)
(1.85701 -0.0398701 -5.50275e-21)
(1.8974 -0.0359968 -5.44597e-21)
(1.935 -0.0322425 0)
(1.96985 -0.0286018 0)
(2.00198 -0.0250742 0)
(2.03143 -0.021671 2.60319e-21)
(2.05827 -0.0184102 2.57389e-21)
(2.08257 -0.0153124 0)
(2.10441 -0.0123972 5.02364e-21)
(2.12391 -0.00967931 4.96243e-21)
(2.14119 -0.0071697 0)
(2.15639 -0.00487566 4.8422e-21)
(2.16968 -0.00279876 9.56358e-21)
(2.18118 -0.000935145 -4.72367e-21)
(2.19109 0.000721672 -4.66428e-21)
(2.19954 0.0021789 0)
(2.20668 0.00344683 0)
(2.21267 0.0045348 0)
(2.21762 0.00544417 -4.44163e-21)
(2.22163 0.00617119 4.38687e-21)
(2.22479 0.00671116 8.66827e-21)
(2.22717 0.00706247 -4.28203e-21)
(2.22884 0.00722419 4.22982e-21)
(2.2299 0.00720045 4.17925e-21)
(2.23044 0.00700459 0)
(2.23055 0.00666104 0)
(2.23035 0.00620457 -4.03008e-21)
(2.22993 0.00567563 0)
(2.22941 0.00511384 0)
(2.22887 0.00455287 7.77349e-21)
(2.22838 0.00401784 0)
(2.228 0.00352498 3.79399e-21)
(2.22775 0.0030829 -3.74826e-21)
(2.22766 0.00269448 0)
(2.22773 0.00235899 3.65839e-21)
(2.22794 0.00207359 0)
(2.22829 0.00183471 0)
(2.22875 0.0016387 -3.52662e-21)
(2.22931 0.00148239 6.96697e-21)
(2.22993 0.00136368 -3.44073e-21)
(2.23059 0.00128078 0)
(2.23126 0.00123457 0)
(2.23193 0.00122384 3.31456e-21)
(2.23253 0.00125501 0)
(2.23307 0.00132432 3.23226e-21)
(2.23342 0.00145172 0)
(2.23364 0.00161963 0)
(2.23351 0.00188566 0)
(2.23316 0.00218328 3.07261e-21)
(2.23219 0.00268035 0)
(2.23082 0.00315192 -2.99547e-21)
(2.2285 0.00408892 0)
(2.22532 0.00476607 0)
(2.22092 0.00663509 5.76783e-21)
(2.2142 0.00744575 -5.69698e-21)
(2.20699 0.0115114 0)
(2.19233 0.0120015 0)
(2.18274 0.021808 0)
(2.14785 0.0205519 1.63317e-20)
(2.14231 0.0473793 0)
(2.05444 0.0436392 -1.06675e-20)
(0.0203056 0.123966 8.7561e-25)
(0.0513517 0.0731966 -3.8873e-21)
(0.0910996 -0.0380486 0)
(0.133485 -0.153036 3.80718e-21)
(0.186863 -0.257219 0)
(0.25048 -0.343698 0)
(0.32034 -0.410347 -1.61135e-23)
(0.391228 -0.454859 -1.83559e-21)
(0.459554 -0.477452 -1.78053e-21)
(0.523459 -0.480126 -1.78828e-21)
(0.582277 -0.466043 0)
(0.635662 -0.438323 0)
(0.683198 -0.399586 1.61745e-21)
(0.724195 -0.351863 3.1369e-21)
(0.757746 -0.296756 -3.03794e-21)
(0.782977 -0.235575 0)
(0.79879 -0.169534 -2.85153e-21)
(0.804195 -0.100011 1.45261e-21)
(0.79799 -0.0284899 0)
(0.779747 0.0433479 -2.64957e-21)
(0.748942 0.11373 -1.37033e-21)
(0.705844 0.180702 2.58857e-21)
(0.651584 0.242361 1.34953e-21)
(0.588054 0.296936 0)
(0.517004 0.342987 -2.58527e-21)
(0.440104 0.37908 -2.59546e-21)
(0.358989 0.404034 0)
(0.27502 0.417076 -2.61334e-21)
(0.189266 0.418203 0)
(0.101039 0.412203 -2.60985e-21)
(0.00498664 0.418444 -1.34132e-21)
(-0.0983519 0.436539 0)
(-0.201361 0.450963 0)
(-0.302781 0.46023 0)
(-0.4044 0.469371 0)
(-0.50768 0.478896 0)
(-0.610744 0.483577 0)
(-0.713322 0.483126 -2.30727e-21)
(-0.81591 0.479452 3.42229e-21)
(-0.917833 0.467901 0)
(-1.01813 0.447769 0)
(-1.11804 0.422962 0)
(-1.21719 0.392786 -1.36833e-22)
(-1.31264 0.357342 -2.02786e-21)
(-1.40284 0.318562 -3.77713e-21)
(-1.48678 0.278784 3.64385e-21)
(-1.56521 0.240306 1.68576e-21)
(-1.63737 0.205066 -1.77599e-21)
(-1.70145 0.174434 1.47322e-22)
(-1.75603 0.148871 -1.53725e-21)
(-1.8017 0.127252 0)
(-1.83925 0.106762 -1.48733e-21)
(-1.86944 0.0852505 1.32499e-22)
(-1.89357 0.0625813 0)
(-1.91281 0.0397532 0)
(-1.92678 0.0172923 1.49796e-21)
(-1.93522 -0.00348501 0)
(-1.93726 -0.0194714 0)
(-1.93286 -0.0292228 -1.45364e-21)
(-1.92424 -0.0334923 -3.13501e-21)
(-1.91457 -0.0324698 1.67868e-21)
(-1.90628 -0.0248699 0)
(-1.90117 -0.0101182 -1.70973e-21)
(-1.89935 0.00825812 0)
(-1.89883 0.0228646 -1.54173e-21)
(-1.89766 0.0263499 -1.73739e-21)
(-1.896 0.0197263 3.30715e-21)
(-1.89485 0.0119624 1.57391e-21)
(-1.89108 0.00519477 0)
(-1.88062 -0.00405576 -3.29048e-21)
(-1.86308 -0.0157627 0)
(-1.83931 -0.0287489 -4.95349e-21)
(-1.80992 -0.0427778 -3.24316e-21)
(-1.77543 -0.057769 -3.23273e-21)
(-1.73631 -0.0734361 3.22736e-21)
(-1.69293 -0.0893912 -4.90214e-21)
(-1.64544 -0.105338 0)
(-1.59376 -0.121089 0)
(-1.53774 -0.136526 3.28876e-21)
(-1.47721 -0.151506 5.04959e-21)
(-1.412 -0.165882 0)
(-1.34205 -0.179494 -1.77682e-21)
(-1.26736 -0.192222 0)
(-1.18806 -0.203957 5.51108e-21)
(-1.10435 -0.214615 7.65093e-23)
(-1.0165 -0.224143 -7.13415e-23)
(-0.924829 -0.232507 -4.01334e-21)
(-0.829693 -0.239684 0)
(-0.731487 -0.245651 4.29927e-21)
(-0.630627 -0.250365 5.10747e-23)
(-0.527586 -0.253792 0)
(-0.422827 -0.255928 0)
(-0.316835 -0.256781 0)
(-0.210081 -0.256409 -5.06353e-21)
(-0.103026 -0.254881 0)
(0.00391518 -0.252313 0)
(0.110357 -0.248835 0)
(0.215964 -0.244579 0)
(0.320469 -0.239672 0)
(0.423661 -0.234209 -5.66873e-21)
(0.525348 -0.228261 0)
(0.625335 -0.22184 -5.82027e-21)
(0.72339 -0.214934 -5.86859e-21)
(0.819237 -0.207508 5.90658e-21)
(0.912555 -0.199526 0)
(1.003 -0.191009 5.95214e-21)
(1.09026 -0.181981 0)
(1.17405 -0.172541 5.95921e-21)
(1.25416 -0.162824 -5.94965e-21)
(1.33049 -0.152979 -1.77749e-20)
(1.40296 -0.143174 0)
(1.47161 -0.133567 -1.76147e-20)
(1.53653 -0.124292 -5.82479e-21)
(1.59787 -0.115444 0)
(1.65581 -0.107081 -1.1503e-20)
(1.71052 -0.0992088 -1.14109e-20)
(1.7622 -0.091799 1.69764e-20)
(1.81102 -0.0847878 0)
(1.8571 -0.0781164 5.55779e-21)
(1.90054 -0.0717215 5.50252e-21)
(1.94139 -0.0655565 1.63293e-20)
(1.97969 -0.059588 0)
(2.01547 -0.0537974 0)
(2.04875 -0.0481868 0)
(2.07959 -0.042775 5.20272e-21)
(2.10801 -0.0375911 0)
(2.1341 -0.0326688 0)
(2.15795 -0.0280403 -5.02348e-21)
(2.17964 -0.0237311 -4.96227e-21)
(2.19931 -0.0197604 0)
(2.21709 -0.0161399 0)
(2.23311 -0.0128727 -9.56329e-21)
(2.24753 -0.00995407 0)
(2.26051 -0.00737663 9.32958e-21)
(2.2722 -0.00512571 9.21329e-21)
(2.28276 -0.00318016 0)
(2.29235 -0.00151767 0)
(2.30112 -0.000114628 -8.88066e-21)
(2.30918 0.00104777 -1.20424e-24)
(2.31663 0.00198759 -1.04479e-24)
(2.32352 0.00270914 0)
(2.32988 0.00321378 -1.69187e-20)
(2.33572 0.0035101 0)
(2.34107 0.00361362 0)
(2.34593 0.00354787 0)
(2.35033 0.00334442 8.05978e-21)
(2.35432 0.00303791 0)
(2.35795 0.00266225 -1.57348e-20)
(2.36128 0.00224761 -7.77303e-21)
(2.3644 0.00181898 0)
(2.36735 0.00139622 -7.58742e-21)
(2.37021 0.000994659 0)
(2.37302 0.000625696 0)
(2.37584 0.000297039 -2.19488e-20)
(2.37868 1.31594e-05 1.44552e-20)
(2.38157 -0.000224318 0)
(2.38451 -0.000415421 1.41054e-20)
(2.3875 -0.0005617 -6.96648e-21)
(2.39054 -0.000663725 0)
(2.39362 -0.000723358 0)
(2.39671 -0.000737397 0)
(2.3998 -0.000707907 -1.98858e-20)
(2.40288 -0.000622539 0)
(2.40589 -0.000488438 -6.46418e-21)
(2.40885 -0.000271838 0)
(2.41167 -1.86954e-06 0)
(2.41438 0.000410626 0)
(2.41683 0.000865667 0)
(2.41912 0.00160344 0)
(2.42088 0.00231324 0)
(2.42249 0.00364985 -1.18263e-20)
(2.423 0.00469468 0)
(2.42359 0.00723617 -5.76732e-21)
(2.42174 0.0086618 1.70844e-20)
(2.42097 0.0138418 0)
(2.41447 0.0155919 0)
(2.41229 0.0270366 -1.09866e-20)
(2.39645 0.029189 -1.08818e-20)
(2.39446 0.0565618 1.07473e-20)
(2.36256 0.0619944 1.06665e-20)
(0.00990253 0.0286655 5.88059e-21)
(0.0438991 -0.0364244 5.84099e-21)
(0.093553 -0.150127 3.86021e-21)
(0.159811 -0.277176 1.90835e-21)
(0.233195 -0.39605 0)
(0.30269 -0.489581 -3.70139e-21)
(0.362293 -0.551264 1.79818e-21)
(0.409944 -0.58225 0)
(0.447013 -0.58713 1.78196e-21)
(0.476209 -0.571627 0)
(0.499982 -0.541031 -3.31358e-21)
(0.520462 -0.499059 0)
(0.539096 -0.44793 -1.61863e-21)
(0.555443 -0.388866 -3.13914e-21)
(0.567739 -0.322444 3.04007e-21)
(0.574434 -0.248887 0)
(0.573802 -0.1684 2.85339e-21)
(0.564694 -0.0819081 0)
(0.545539 0.00888903 0)
(0.51612 0.101018 2.65133e-21)
(0.476017 0.191159 0)
(0.425491 0.275931 -1.46468e-22)
(0.365767 0.352411 0)
(0.298716 0.418343 0)
(0.226296 0.472373 1.32187e-22)
(0.150096 0.513805 2.59725e-21)
(0.0715704 0.542274 2.48294e-21)
(-0.00847614 0.557927 2.61512e-21)
(-0.0906861 0.564998 0)
(-0.180406 0.575873 5.10545e-21)
(-0.276539 0.592384 0)
(-0.371743 0.604708 2.45988e-21)
(-0.465251 0.613239 0)
(-0.558176 0.620297 0)
(-0.650235 0.625968 -2.35099e-21)
(-0.739978 0.628019 0)
(-0.827278 0.627705 2.24228e-21)
(-0.912469 0.625402 1.31076e-22)
(-0.993885 0.616573 -4.35298e-21)
(-1.07213 0.600757 4.0708e-21)
(-1.14789 0.579773 0)
(-1.22042 0.551605 0)
(-1.28907 0.514803 1.65453e-21)
(-1.35393 0.472195 0)
(-1.41553 0.427417 1.81802e-21)
(-1.47392 0.382389 -1.75048e-21)
(-1.52919 0.338915 -1.68701e-21)
(-1.58118 0.299058 0)
(-1.62955 0.262622 1.57928e-21)
(-1.6734 0.227981 1.53813e-21)
(-1.71245 0.194002 -2.68211e-21)
(-1.74642 0.160145 1.48787e-21)
(-1.77525 0.126144 1.4785e-21)
(-1.79957 0.09243 0)
(-1.8201 0.0600888 0)
(-1.83691 0.0302522 -1.49807e-21)
(-1.84991 0.00400889 0)
(-1.85863 -0.0178472 0)
(-1.863 -0.0342241 3.10156e-21)
(-1.86334 -0.0429893 3.13467e-21)
(-1.86089 -0.0427563 0)
(-1.8575 -0.033991 0)
(-1.85432 -0.017581 0)
(-1.85068 0.00147915 0)
(-1.84528 0.0150892 3.27275e-21)
(-1.83788 0.0188229 -3.08624e-21)
(-1.82965 0.0135718 -3.30626e-21)
(-1.81878 0.0021692 -6.42795e-21)
(-1.80191 -0.0134774 0)
(-1.77935 -0.0310945 1.74774e-22)
(-1.7522 -0.0492841 0)
(-1.72095 -0.0678809 3.25641e-21)
(-1.6859 -0.0868996 1.55282e-22)
(-1.6474 -0.106253 3.2317e-21)
(-1.60573 -0.125769 -3.22629e-21)