# vtk DataFile Version 2.0
sampleSurface
ASCII
DATASET POLYDATA
POINTS 502 double
-0.0206 0 -0.0005
-0.0190172 0 -0.0005
-0.0190172 0 0.0005
-0.0206 0 0.0005
-0.0174976 0 -0.0005
-0.0174976 0 0.0005
-0.0160387 0 -0.0005
-0.0160387 0 0.0005
-0.0146381 0 -0.0005
-0.0146381 0 0.0005
-0.0132934 0 -0.0005
-0.0132934 0 0.0005
-0.0120025 0 -0.0005
-0.0120025 0 0.0005
-0.0107632 0 -0.0005
-0.0107632 0 0.0005
-0.00957337 0 -0.0005
-0.00957337 0 0.0005
-0.00843108 0 -0.0005
-0.00843108 0 0.0005
-0.00733443 0 -0.0005
-0.00733443 0 0.0005
-0.0062816 0 -0.0005
-0.0062816 0 0.0005
-0.00527083 0 -0.0005
-0.00527083 0 0.0005
-0.00430044 0 -0.0005
-0.00430044 0 0.0005
-0.00336883 0 -0.0005
-0.00336883 0 0.0005
-0.00247443 0 -0.0005
-0.00247443 0 0.0005
-0.00161577 0 -0.0005
-0.00161577 0 0.0005
-0.000791418 0 -0.0005
-0.000791418 0 0.0005
0 0 -0.0005
0 0 0.0005
0 -0.0254 -0.0005
0 -0.0254 0.0005
0 -0.0242711 0.0005
0 -0.0242711 -0.0005
0 -0.0231422 0.0005
0 -0.0231422 -0.0005
0 -0.0220133 0.0005
0 -0.0220133 -0.0005
0 -0.0208844 0.0005
0 -0.0208844 -0.0005
0 -0.0197556 0.0005
0 -0.0197556 -0.0005
0 -0.0186267 0.0005
0 -0.0186267 -0.0005
0 -0.0174978 0.0005
0 -0.0174978 -0.0005
0 -0.0163689 0.0005
0 -0.0163689 -0.0005
0 -0.01524 0.0005
0 -0.01524 -0.0005
0 -0.0141111 0.0005
0 -0.0141111 -0.0005
0 -0.0129822 0.0005
0 -0.0129822 -0.0005
0 -0.0118533 0.0005
0 -0.0118533 -0.0005
0 -0.0107244 0.0005
0 -0.0107244 -0.0005
0 -0.00959556 0.0005
0 -0.00959556 -0.0005
0 -0.00846667 0.0005
0 -0.00846667 -0.0005
0 -0.00726604 0.0005
0 -0.00726604 -0.0005
0 -0.00618989 0.0005
0 -0.00618989 -0.0005
0 -0.00522531 0.0005
0 -0.00522531 -0.0005
0 -0.00436073 0.0005
0 -0.00436073 -0.0005
0 -0.00358579 0.0005
0 -0.00358579 -0.0005
0 -0.00289118 0.0005
0 -0.00289118 -0.0005
0 -0.0022686 0.0005
0 -0.0022686 -0.0005
0 -0.00171055 0.0005
0 -0.00171055 -0.0005
0 -0.00121037 0.0005
0 -0.00121037 -0.0005
0 -0.000762037 0.0005
0 -0.000762037 -0.0005
0 -0.000360188 0.0005
0 -0.000360188 -0.0005
0.000528387 -0.0254 -0.0005
0.000528387 -0.0254 0.0005
0.00106088 -0.0254 -0.0005
0.00106088 -0.0254 0.0005
0.00159752 -0.0254 -0.0005
0.00159752 -0.0254 0.0005
0.00213833 -0.0254 -0.0005
0.00213833 -0.0254 0.0005
0.00268334 -0.0254 -0.0005
0.00268334 -0.0254 0.0005
0.00323259 -0.0254 -0.0005
0.00323259 -0.0254 0.0005
0.00378611 -0.0254 -0.0005
0.00378611 -0.0254 0.0005
0.00434393 -0.0254 -0.0005
0.00434393 -0.0254 0.0005
0.00490609 -0.0254 -0.0005
0.00490609 -0.0254 0.0005
0.00547262 -0.0254 -0.0005
0.00547262 -0.0254 0.0005
0.00604356 -0.0254 -0.0005
0.00604356 -0.0254 0.0005
0.00661893 -0.0254 -0.0005
0.00661893 -0.0254 0.0005
0.00719878 -0.0254 -0.0005
0.00719878 -0.0254 0.0005
0.00778313 -0.0254 -0.0005
0.00778313 -0.0254 0.0005
0.00837203 -0.0254 -0.0005
0.00837203 -0.0254 0.0005
0.00896551 -0.0254 -0.0005
0.00896551 -0.0254 0.0005
0.0095636 -0.0254 -0.0005
0.0095636 -0.0254 0.0005
0.0101663 -0.0254 -0.0005
0.0101663 -0.0254 0.0005
0.0107738 -0.0254 -0.0005
0.0107738 -0.0254 0.0005
0.0113859 -0.0254 -0.0005
0.0113859 -0.0254 0.0005
0.0120028 -0.0254 -0.0005
0.0120028 -0.0254 0.0005
0.0126245 -0.0254 -0.0005
0.0126245 -0.0254 0.0005
0.0132511 -0.0254 -0.0005
0.0132511 -0.0254 0.0005
0.0138825 -0.0254 -0.0005
0.0138825 -0.0254 0.0005
0.0145188 -0.0254 -0.0005
0.0145188 -0.0254 0.0005
0.0151601 -0.0254 -0.0005
0.0151601 -0.0254 0.0005
0.0158063 -0.0254 -0.0005
0.0158063 -0.0254 0.0005
0.0164576 -0.0254 -0.0005
0.0164576 -0.0254 0.0005
0.0171139 -0.0254 -0.0005
0.0171139 -0.0254 0.0005
0.0177754 -0.0254 -0.0005
0.0177754 -0.0254 0.0005
0.018442 -0.0254 -0.0005
0.018442 -0.0254 0.0005
0.0191137 -0.0254 -0.0005
0.0191137 -0.0254 0.0005
0.0197907 -0.0254 -0.0005
0.0197907 -0.0254 0.0005
0.020473 -0.0254 -0.0005
0.020473 -0.0254 0.0005
0.0211606 -0.0254 -0.0005
0.0211606 -0.0254 0.0005
0.0218535 -0.0254 -0.0005
0.0218535 -0.0254 0.0005
0.0225517 -0.0254 -0.0005
0.0225517 -0.0254 0.0005
0.0232555 -0.0254 -0.0005
0.0232555 -0.0254 0.0005
0.0239647 -0.0254 -0.0005
0.0239647 -0.0254 0.0005
0.0246794 -0.0254 -0.0005
0.0246794 -0.0254 0.0005
0.0253996 -0.0254 -0.0005
0.0253996 -0.0254 0.0005
0.0261255 -0.0254 -0.0005
0.0261255 -0.0254 0.0005
0.026857 -0.0254 -0.0005
0.026857 -0.0254 0.0005
0.0275942 -0.0254 -0.0005
0.0275942 -0.0254 0.0005
0.0283371 -0.0254 -0.0005
0.0283371 -0.0254 0.0005
0.0290858 -0.0254 -0.0005
0.0290858 -0.0254 0.0005
0.0298403 -0.0254 -0.0005
0.0298403 -0.0254 0.0005
0.0306007 -0.0254 -0.0005
0.0306007 -0.0254 0.0005
0.031367 -0.0254 -0.0005
0.031367 -0.0254 0.0005
0.0321393 -0.0254 -0.0005
0.0321393 -0.0254 0.0005
0.0329175 -0.0254 -0.0005
0.0329175 -0.0254 0.0005
0.0337019 -0.0254 -0.0005
0.0337019 -0.0254 0.0005
0.0344923 -0.0254 -0.0005
0.0344923 -0.0254 0.0005
0.0352888 -0.0254 -0.0005
0.0352888 -0.0254 0.0005
0.0360916 -0.0254 -0.0005
0.0360916 -0.0254 0.0005
0.0369006 -0.0254 -0.0005
0.0369006 -0.0254 0.0005
0.0377158 -0.0254 -0.0005
0.0377158 -0.0254 0.0005
0.0385375 -0.0254 -0.0005
0.0385375 -0.0254 0.0005
0.0393655 -0.0254 -0.0005
0.0393655 -0.0254 0.0005
0.0401999 -0.0254 -0.0005
0.0401999 -0.0254 0.0005
0.0410408 -0.0254 -0.0005
0.0410408 -0.0254 0.0005
0.0418883 -0.0254 -0.0005
0.0418883 -0.0254 0.0005
0.0427424 -0.0254 -0.0005
0.0427424 -0.0254 0.0005
0.0436031 -0.0254 -0.0005
0.0436031 -0.0254 0.0005
0.0444704 -0.0254 -0.0005
0.0444704 -0.0254 0.0005
0.0453446 -0.0254 -0.0005
0.0453446 -0.0254 0.0005
0.0462255 -0.0254 -0.0005
0.0462255 -0.0254 0.0005
0.0471133 -0.0254 -0.0005
0.0471133 -0.0254 0.0005
0.048008 -0.0254 -0.0005
0.048008 -0.0254 0.0005
0.0489096 -0.0254 -0.0005
0.0489096 -0.0254 0.0005
0.0498183 -0.0254 -0.0005
0.0498183 -0.0254 0.0005
0.050734 -0.0254 -0.0005
0.050734 -0.0254 0.0005
0.0516568 -0.0254 -0.0005
0.0516568 -0.0254 0.0005
0.0525868 -0.0254 -0.0005
0.0525868 -0.0254 0.0005
0.053524 -0.0254 -0.0005
0.053524 -0.0254 0.0005
0.0544686 -0.0254 -0.0005
0.0544686 -0.0254 0.0005
0.0554204 -0.0254 -0.0005
0.0554204 -0.0254 0.0005
0.0563797 -0.0254 -0.0005
0.0563797 -0.0254 0.0005
0.0573464 -0.0254 -0.0005
0.0573464 -0.0254 0.0005
0.0583206 -0.0254 -0.0005
0.0583206 -0.0254 0.0005
0.0593025 -0.0254 -0.0005
0.0593025 -0.0254 0.0005
0.0602919 -0.0254 -0.0005
0.0602919 -0.0254 0.0005
0.0612891 -0.0254 -0.0005
0.0612891 -0.0254 0.0005
0.0622939 -0.0254 -0.0005
0.0622939 -0.0254 0.0005
0.0633067 -0.0254 -0.0005
0.0633067 -0.0254 0.0005
0.0643272 -0.0254 -0.0005
0.0643272 -0.0254 0.0005
0.0653557 -0.0254 -0.0005
0.0653557 -0.0254 0.0005
0.0663923 -0.0254 -0.0005
0.0663923 -0.0254 0.0005
0.0674368 -0.0254 -0.0005
0.0674368 -0.0254 0.0005
0.0684895 -0.0254 -0.0005
0.0684895 -0.0254 0.0005
0.0695504 -0.0254 -0.0005
0.0695504 -0.0254 0.0005
0.0706195 -0.0254 -0.0005
0.0706195 -0.0254 0.0005
0.0716969 -0.0254 -0.0005
0.0716969 -0.0254 0.0005
0.0727828 -0.0254 -0.0005
0.0727828 -0.0254 0.0005
0.073877 -0.0254 -0.0005
0.073877 -0.0254 0.0005
0.0749798 -0.0254 -0.0005
0.0749798 -0.0254 0.0005
0.0760911 -0.0254 -0.0005
0.0760911 -0.0254 0.0005
0.0772111 -0.0254 -0.0005
0.0772111 -0.0254 0.0005
0.0783398 -0.0254 -0.0005
0.0783398 -0.0254 0.0005
0.0794772 -0.0254 -0.0005
0.0794772 -0.0254 0.0005
0.0806235 -0.0254 -0.0005
0.0806235 -0.0254 0.0005
0.0817787 -0.0254 -0.0005
0.0817787 -0.0254 0.0005
0.0829429 -0.0254 -0.0005
0.0829429 -0.0254 0.0005
0.0841162 -0.0254 -0.0005
0.0841162 -0.0254 0.0005
0.0852985 -0.0254 -0.0005
0.0852985 -0.0254 0.0005
0.0864901 -0.0254 -0.0005
0.0864901 -0.0254 0.0005
0.0876909 -0.0254 -0.0005
0.0876909 -0.0254 0.0005
0.0889011 -0.0254 -0.0005
0.0889011 -0.0254 0.0005
0.0901207 -0.0254 -0.0005
0.0901207 -0.0254 0.0005
0.0913497 -0.0254 -0.0005
0.0913497 -0.0254 0.0005
0.0925883 -0.0254 -0.0005
0.0925883 -0.0254 0.0005
0.0938366 -0.0254 -0.0005
0.0938366 -0.0254 0.0005
0.0950945 -0.0254 -0.0005
0.0950945 -0.0254 0.0005
0.0963622 -0.0254 -0.0005
0.0963622 -0.0254 0.0005
0.0976398 -0.0254 -0.0005
0.0976398 -0.0254 0.0005
0.0989273 -0.0254 -0.0005
0.0989273 -0.0254 0.0005
0.100225 -0.0254 -0.0005
0.100225 -0.0254 0.0005
0.101532 -0.0254 -0.0005
0.101532 -0.0254 0.0005
0.10285 -0.0254 -0.0005
0.10285 -0.0254 0.0005
0.104178 -0.0254 -0.0005
0.104178 -0.0254 0.0005
0.105517 -0.0254 -0.0005
0.105517 -0.0254 0.0005
0.106865 -0.0254 -0.0005
0.106865 -0.0254 0.0005
0.108225 -0.0254 -0.0005
0.108225 -0.0254 0.0005
0.109594 -0.0254 -0.0005
0.109594 -0.0254 0.0005
0.110975 -0.0254 -0.0005
0.110975 -0.0254 0.0005
0.112366 -0.0254 -0.0005
0.112366 -0.0254 0.0005
0.113768 -0.0254 -0.0005
0.113768 -0.0254 0.0005
0.115181 -0.0254 -0.0005
0.115181 -0.0254 0.0005
0.116605 -0.0254 -0.0005
0.116605 -0.0254 0.0005
0.11804 -0.0254 -0.0005
0.11804 -0.0254 0.0005
0.119486 -0.0254 -0.0005
0.119486 -0.0254 0.0005
0.120943 -0.0254 -0.0005
0.120943 -0.0254 0.0005
0.122412 -0.0254 -0.0005
0.122412 -0.0254 0.0005
0.123892 -0.0254 -0.0005
0.123892 -0.0254 0.0005
0.125384 -0.0254 -0.0005
0.125384 -0.0254 0.0005
0.126887 -0.0254 -0.0005
0.126887 -0.0254 0.0005
0.128402 -0.0254 -0.0005
0.128402 -0.0254 0.0005
0.129928 -0.0254 -0.0005
0.129928 -0.0254 0.0005
0.131467 -0.0254 -0.0005
0.131467 -0.0254 0.0005
0.133017 -0.0254 -0.0005
0.133017 -0.0254 0.0005
0.13458 -0.0254 -0.0005
0.13458 -0.0254 0.0005
0.136155 -0.0254 -0.0005
0.136155 -0.0254 0.0005
0.137742 -0.0254 -0.0005
0.137742 -0.0254 0.0005
0.139341 -0.0254 -0.0005
0.139341 -0.0254 0.0005
0.140953 -0.0254 -0.0005
0.140953 -0.0254 0.0005
0.142577 -0.0254 -0.0005
0.142577 -0.0254 0.0005
0.144214 -0.0254 -0.0005
0.144214 -0.0254 0.0005
0.145863 -0.0254 -0.0005
0.145863 -0.0254 0.0005
0.147526 -0.0254 -0.0005
0.147526 -0.0254 0.0005
0.149201 -0.0254 -0.0005
0.149201 -0.0254 0.0005
0.15089 -0.0254 -0.0005
0.15089 -0.0254 0.0005
0.152591 -0.0254 -0.0005
0.152591 -0.0254 0.0005
0.154306 -0.0254 -0.0005
0.154306 -0.0254 0.0005
0.156034 -0.0254 -0.0005
0.156034 -0.0254 0.0005
0.157775 -0.0254 -0.0005
0.157775 -0.0254 0.0005
0.159531 -0.0254 -0.0005
0.159531 -0.0254 0.0005
0.161299 -0.0254 -0.0005
0.161299 -0.0254 0.0005
0.163082 -0.0254 -0.0005
0.163082 -0.0254 0.0005
0.164878 -0.0254 -0.0005
0.164878 -0.0254 0.0005
0.166688 -0.0254 -0.0005
0.166688 -0.0254 0.0005
0.168513 -0.0254 -0.0005
0.168513 -0.0254 0.0005
0.170351 -0.0254 -0.0005
0.170351 -0.0254 0.0005
0.172204 -0.0254 -0.0005
0.172204 -0.0254 0.0005
0.174071 -0.0254 -0.0005
0.174071 -0.0254 0.0005
0.175953 -0.0254 -0.0005
0.175953 -0.0254 0.0005
0.177849 -0.0254 -0.0005
0.177849 -0.0254 0.0005
0.17976 -0.0254 -0.0005
0.17976 -0.0254 0.0005
0.181686 -0.0254 -0.0005
0.181686 -0.0254 0.0005
0.183627 -0.0254 -0.0005
0.183627 -0.0254 0.0005
0.185583 -0.0254 -0.0005
0.185583 -0.0254 0.0005
0.187555 -0.0254 -0.0005
0.187555 -0.0254 0.0005
0.189541 -0.0254 -0.0005
0.189541 -0.0254 0.0005
0.191543 -0.0254 -0.0005
0.191543 -0.0254 0.0005
0.193561 -0.0254 -0.0005
0.193561 -0.0254 0.0005
0.195594 -0.0254 -0.0005
0.195594 -0.0254 0.0005
0.197643 -0.0254 -0.0005
0.197643 -0.0254 0.0005
0.199708 -0.0254 -0.0005
0.199708 -0.0254 0.0005
0.201789 -0.0254 -0.0005
0.201789 -0.0254 0.0005
0.203886 -0.0254 -0.0005
0.203886 -0.0254 0.0005
0.206 -0.0254 -0.0005
0.206 -0.0254 0.0005
0.208047 -0.0251856 -0.0005
0.208047 -0.0251856 0.0005
0.210173 -0.0249628 -0.0005
0.210173 -0.0249628 0.0005
0.212382 -0.0247314 -0.0005
0.212382 -0.0247314 0.0005
0.214677 -0.024491 -0.0005
0.214677 -0.024491 0.0005
0.217061 -0.0242412 -0.0005
0.217061 -0.0242412 0.0005
0.219538 -0.0239817 -0.0005
0.219538 -0.0239817 0.0005
0.222112 -0.0237121 -0.0005
0.222112 -0.0237121 0.0005
0.224785 -0.023432 -0.0005
0.224785 -0.023432 0.0005
0.227563 -0.023141 -0.0005
0.227563 -0.023141 0.0005
0.230449 -0.0228387 -0.0005
0.230449 -0.0228387 0.0005
0.233447 -0.0225246 -0.0005
0.233447 -0.0225246 0.0005
0.236562 -0.0221983 -0.0005
0.236562 -0.0221983 0.0005
0.239797 -0.0218593 -0.0005
0.239797 -0.0218593 0.0005
0.243159 -0.0215071 -0.0005
0.243159 -0.0215071 0.0005
0.246652 -0.0211412 -0.0005
0.246652 -0.0211412 0.0005
0.250281 -0.0207611 -0.0005
0.250281 -0.0207611 0.0005
0.254051 -0.0203661 -0.0005
0.254051 -0.0203661 0.0005
0.257967 -0.0199558 -0.0005
0.257967 -0.0199558 0.0005
0.262036 -0.0195295 -0.0005
0.262036 -0.0195295 0.0005
0.266264 -0.0190867 -0.0005
0.266264 -0.0190867 0.0005
0.270655 -0.0186266 -0.0005
0.270655 -0.0186266 0.0005
0.275218 -0.0181486 -0.0005
0.275218 -0.0181486 0.0005
0.279959 -0.017652 -0.0005
0.279959 -0.017652 0.0005
0.284883 -0.017136 -0.0005
0.284883 -0.017136 0.0005
0.29 -0.0166 -0.0005
0.29 -0.0166 0.0005

POLYGONS 250 1250
4 0 1 2 3
4 1 4 5 2
4 4 6 7 5
4 6 8 9 7
4 8 10 11 9
4 10 12 13 11
4 12 14 15 13
4 14 16 17 15
4 16 18 19 17
4 18 20 21 19
4 20 22 23 21
4 22 24 25 23
4 24 26 27 25
4 26 28 29 27
4 28 30 31 29
4 30 32 33 31
4 32 34 35 33
4 34 36 37 35
4 38 39 40 41
4 41 40 42 43
4 43 42 44 45
4 45 44 46 47
4 47 46 48 49
4 49 48 50 51
4 51 50 52 53
4 53 52 54 55
4 55 54 56 57
4 57 56 58 59
4 59 58 60 61
4 61 60 62 63
4 63 62 64 65
4 65 64 66 67
4 67 66 68 69
4 69 68 70 71
4 71 70 72 73
4 73 72 74 75
4 75 74 76 77
4 77 76 78 79
4 79 78 80 81
4 81 80 82 83
4 83 82 84 85
4 85 84 86 87
4 87 86 88 89
4 89 88 90 91
4 91 90 37 36
4 38 92 93 39
4 92 94 95 93
4 94 96 97 95
4 96 98 99 97
4 98 100 101 99
4 100 102 103 101
4 102 104 105 103
4 104 106 107 105
4 106 108 109 107
4 108 110 111 109
4 110 112 113 111
4 112 114 115 113
4 114 116 117 115
4 116 118 119 117
4 118 120 121 119
4 120 122 123 121
4 122 124 125 123
4 124 126 127 125
4 126 128 129 127
4 128 130 131 129
4 130 132 133 131
4 132 134 135 133
4 134 136 137 135
4 136 138 139 137
4 138 140 141 139
4 140 142 143 141
4 142 144 145 143
4 144 146 147 145
4 146 148 149 147
4 148 150 151 149
4 150 152 153 151
4 152 154 155 153
4 154 156 157 155
4 156 158 159 157
4 158 160 161 159
4 160 162 163 161
4 162 164 165 163
4 164 166 167 165
4 166 168 169 167
4 168 170 171 169
4 170 172 173 171
4 172 174 175 173
4 174 176 177 175
4 176 178 179 177
4 178 180 181 179
4 180 182 183 181
4 182 184 185 183
4 184 186 187 185
4 186 188 189 187
4 188 190 191 189
4 190 192 193 191
4 192 194 195 193
4 194 196 197 195
4 196 198 199 197
4 198 200 201 199
4 200 202 203 201
4 202 204 205 203
4 204 206 207 205
4 206 208 209 207
4 208 210 211 209
4 210 212 213 211
4 212 214 215 213
4 214 216 217 215
4 216 218 219 217
4 218 220 221 219
4 220 222 223 221
4 222 224 225 223
4 224 226 227 225
4 226 228 229 227
4 228 230 231 229
4 230 232 233 231
4 232 234 235 233
4 234 236 237 235
4 236 238 239 237
4 238 240 241 239
4 240 242 243 241
4 242 244 245 243
4 244 246 247 245
4 246 248 249 247
4 248 250 251 249
4 250 252 253 251
4 252 254 255 253
4 254 256 257 255
4 256 258 259 257
4 258 260 261 259
4 260 262 263 261
4 262 264 265 263
4 264 266 267 265
4 266 268 269 267
4 268 270 271 269
4 270 272 273 271
4 272 274 275 273
4 274 276 277 275
4 276 278 279 277
4 278 280 281 279
4 280 282 283 281
4 282 284 285 283
4 284 286 287 285
4 286 288 289 287
4 288 290 291 289
4 290 292 293 291
4 292 294 295 293
4 294 296 297 295
4 296 298 299 297
4 298 300 301 299
4 300 302 303 301
4 302 304 305 303
4 304 306 307 305
4 306 308 309 307
4 308 310 311 309
4 310 312 313 311
4 312 314 315 313
4 314 316 317 315
4 316 318 319 317
4 318 320 321 319
4 320 322 323 321
4 322 324 325 323
4 324 326 327 325
4 326 328 329 327
4 328 330 331 329
4 330 332 333 331
4 332 334 335 333
4 334 336 337 335
4 336 338 339 337
4 338 340 341 339
4 340 342 343 341
4 342 344 345 343
4 344 346 347 345
4 346 348 349 347
4 348 350 351 349
4 350 352 353 351
4 352 354 355 353
4 354 356 357 355
4 356 358 359 357
4 358 360 361 359
4 360 362 363 361
4 362 364 365 363
4 364 366 367 365
4 366 368 369 367
4 368 370 371 369
4 370 372 373 371
4 372 374 375 373
4 374 376 377 375
4 376 378 379 377
4 378 380 381 379
4 380 382 383 381
4 382 384 385 383
4 384 386 387 385
4 386 388 389 387
4 388 390 391 389
4 390 392 393 391
4 392 394 395 393
4 394 396 397 395
4 396 398 399 397
4 398 400 401 399
4 400 402 403 401
4 402 404 405 403
4 404 406 407 405
4 406 408 409 407
4 408 410 411 409
4 410 412 413 411
4 412 414 415 413
4 414 416 417 415
4 416 418 419 417
4 418 420 421 419
4 420 422 423 421
4 422 424 425 423
4 424 426 427 425
4 426 428 429 427
4 428 430 431 429
4 430 432 433 431
4 432 434 435 433
4 434 436 437 435
4 436 438 439 437
4 438 440 441 439
4 440 442 443 441
4 442 444 445 443
4 444 446 447 445
4 446 448 449 447
4 448 450 451 449
4 450 452 453 451
4 452 454 455 453
4 454 456 457 455
4 456 458 459 457
4 458 460 461 459
4 460 462 463 461
4 462 464 465 463
4 464 466 467 465
4 466 468 469 467
4 468 470 471 469
4 470 472 473 471
4 472 474 475 473
4 474 476 477 475
4 476 478 479 477
4 478 480 481 479
4 480 482 483 481
4 482 484 485 483
4 484 486 487 485
4 486 488 489 487
4 488 490 491 489
4 490 492 493 491
4 492 494 495 493
4 494 496 497 495
4 496 498 499 497
4 498 500 501 499
POINT_DATA 502
FIELD attributes 1
U 3 502 float
1.65579 0.0831771 -0.0313155
0.829076 0.041384 -0.0154323
0.829076 0.041384 -0.0154323
1.65579 0.0831771 -0.0313155
0.0243504 0.000706595 0
0.0243504 0.000706595 0
0.0217136 0.000585294 0
0.0217136 0.000585294 0
0.0195012 0.000499942 0
0.0195012 0.000499942 0
0.0174326 0.000451392 0
0.0174326 0.000451392 0
0.0153397 0.00041567 0
0.0153397 0.00041567 0
0.0132608 0.000359001 0
0.0132608 0.000359001 0
0.0113322 0.000286547 0
0.0113322 0.000286547 0
0.0096391 0.000221495 0
0.0096391 0.000221495 0
0.0081865 0.000170275 0
0.0081865 0.000170275 0
0.00694832 0.000127831 0
0.00694832 0.000127831 0
0.00589208 9.098e-05 0
0.00589208 9.098e-05 0
0.00500587 6.19497e-05 0
0.00500587 6.19497e-05 0
0.00424236 4.18838e-05 0
0.00424236 4.18838e-05 0
0.00359184 3.18508e-05 0
0.00359184 3.18508e-05 0
0.00296549 3.4102e-05 0
0.00296549 3.4102e-05 0
0.0023461 1.52291e-05 0
0.0023461 1.52291e-05 0
0.00100542 0.000361265 0
0.00100542 0.000361265 0
-6.33616e-06 -2.1847e-05 4.59079e-23
-6.33616e-06 -2.1847e-05 4.59079e-23
3.82843e-05 -0.000239043 -1.24132e-22
3.82843e-05 -0.000239043 -1.24132e-22
0.000124541 -0.000821521 -1.4711e-22
0.000124541 -0.000821521 -1.4711e-22
0.00016718 -0.00155213 2.94186e-22
0.00016718 -0.00155213 2.94186e-22
0.000145774 -0.00218232 9.8065e-23
0.000145774 -0.00218232 9.8065e-23
9.41318e-05 -0.00258369 -1.96146e-22
9.41318e-05 -0.00258369 -1.96146e-22
3.73378e-05 -0.0027315 0
3.73378e-05 -0.0027315 0
-1.05846e-05 -0.00265143 -3.95269e-22
-1.05846e-05 -0.00265143 -3.95269e-22
-4.32197e-05 -0.00239853 3.93219e-26
-4.32197e-05 -0.00239853 3.93219e-26
-5.86769e-05 -0.00203829 3.95308e-22
-5.86769e-05 -0.00203829 3.95308e-22
-5.60586e-05 -0.00164292 -3.99235e-22
-5.60586e-05 -0.00164292 -3.99235e-22
-3.89062e-05 -0.00128671 5.63894e-26
-3.89062e-05 -0.00128671 5.63894e-26
-2.48113e-05 -0.0010338 3.99292e-22
-2.48113e-05 -0.0010338 3.99292e-22
-3.995e-05 -0.000904996 4.03547e-22
-3.995e-05 -0.000904996 4.03547e-22
-7.17772e-05 -0.000823966 -1.81418e-26
-7.17772e-05 -0.000823966 -1.81418e-26
-7.63638e-05 -0.000722661 -4.10718e-22
-7.63638e-05 -0.000722661 -4.10718e-22
-7.82431e-05 -0.000505894 0
-7.82431e-05 -0.000505894 0
-9.87682e-05 -0.000165346 0
-9.87682e-05 -0.000165346 0
-5.82281e-05 7.73734e-05 0
-5.82281e-05 7.73734e-05 0
0.000116697 -0.000175526 0
0.000116697 -0.000175526 0
0.000263366 -0.000895814 0
0.000263366 -0.000895814 0
0.000180762 -0.00142599 0
0.000180762 -0.00142599 0
-2.71872e-05 -0.0014269 0
-2.71872e-05 -0.0014269 0
-0.00021024 -0.00106409 0
-0.00021024 -0.00106409 0
-0.000334187 -0.000481811 0
-0.000334187 -0.000481811 0
-0.000257563 0.000152705 0
-0.000257563 0.000152705 0
-8.70521e-06 0.000558911 0
-8.70521e-06 0.000558911 0
5.70792e-05 -9.01443e-05 1.98175e-25
5.70792e-05 -9.01443e-05 1.98175e-25
0.000227216 -0.000195215 -2.28143e-23
0.000227216 -0.000195215 -2.28143e-23
0.000449879 -0.000245736 0
0.000449879 -0.000245736 0
0.000686799 -0.000263183 0
0.000686799 -0.000263183 0
0.000930827 -0.000266852 2.20863e-23
0.000930827 -0.000266852 2.20863e-23
0.00117814 -0.000266012 2.2126e-23
0.00117814 -0.000266012 2.2126e-23
0.00142765 -0.000264089 0
0.00142765 -0.000264089 0
0.00167932 -0.00026174 0
0.00167932 -0.00026174 0
0.00193292 -0.000258452 0
0.00193292 -0.000258452 0
0.00218732 -0.000253188 -2.11707e-23
0.00218732 -0.000253188 -2.11707e-23
0.00243995 -0.000244575 -2.1211e-23
0.00243995 -0.000244575 -2.1211e-23
0.00268658 -0.000231094 0
0.00268658 -0.000231094 0
0.00292124 -0.000211095 0
0.00292124 -0.000211095 0
0.00313613 -0.00018294 0
0.00313613 -0.00018294 0
0.00332192 -0.000145402 -2.02371e-23
0.00332192 -0.000145402 -2.02371e-23
0.00346795 -9.75954e-05 -2.02779e-23
0.00346795 -9.75954e-05 -2.02779e-23
0.00356396 -3.94405e-05 0
0.00356396 -3.94405e-05 0
0.00359981 2.84461e-05 0
0.00359981 2.84461e-05 0
0.00356411 0.000104135 0
0.00356411 0.000104135 0
0.00344933 0.000183458 0
0.00344933 0.000183458 0
0.00325278 0.000262502 0
0.00325278 0.000262502 0
0.00297854 0.000333182 0
0.00297854 0.000333182 0
0.0026341 0.000392408 -1.91308e-23
0.0026341 0.000392408 -1.91308e-23
0.00223638 0.000429224 -1.50845e-25
0.00223638 0.000429224 -1.50845e-25
0.00180594 0.000437444 1.54862e-25
0.00180594 0.000437444 1.54862e-25
0.00136316 0.000418598 -3.77443e-23
0.00136316 0.000418598 -3.77443e-23
0.00101983 0.000281577 -1.88346e-23
0.00101983 0.000281577 -1.88346e-23
0.000730914 0.000109944 0
0.000730914 0.000109944 0
0.000406579 6.65881e-05 1.83885e-23
0.000406579 6.65881e-05 1.83885e-23
0.000358474 -7.65968e-05 3.66704e-23
0.000358474 -7.65968e-05 3.66704e-23
0.000662541 -0.000380622 1.8282e-23
0.000662541 -0.000380622 1.8282e-23
0.000961551 -0.000791037 0
0.000961551 -0.000791037 0
0.00106105 -0.00110442 1.77646e-23
0.00106105 -0.00110442 1.77646e-23
0.000998706 -0.000807359 1.78084e-23
0.000998706 -0.000807359 1.78084e-23
0.000623187 5.46318e-05 0
0.000623187 5.46318e-05 0
-0.000181272 0.000700627 -1.73479e-23
-0.000181272 0.000700627 -1.73479e-23
-0.00109771 0.00080915 -1.7392e-23
-0.00109771 0.00080915 -1.7392e-23
-0.0019425 0.000760157 -1.69794e-23
-0.0019425 0.000760157 -1.69794e-23
-0.00274357 0.000711479 -5.05695e-23
-0.00274357 0.000711479 -5.05695e-23
-0.00349262 0.00065962 -3.3634e-23
-0.00349262 0.00065962 -3.3634e-23
-0.00419181 0.000609057 0
-0.00419181 0.000609057 0
-0.00484201 0.000560104 0
-0.00484201 0.000560104 0
-0.00544561 0.000513618 0
-0.00544561 0.000513618 0
-0.00600386 0.000469191 0
-0.00600386 0.000469191 0
-0.00651768 0.00042639 -3.09355e-23
-0.00651768 0.00042639 -3.09355e-23
-0.00698688 0.000384585 -6.15448e-23
-0.00698688 0.000384585 -6.15448e-23
-0.00741059 0.000343058 -6.07353e-23
-0.00741059 0.000343058 -6.07353e-23
-0.00778711 0.000301141 -3.0212e-23
-0.00778711 0.000301141 -3.0212e-23
-0.00811428 0.000258491 2.93903e-23
-0.00811428 0.000258491 2.93903e-23
-0.00838964 0.000214958 2.94755e-23
-0.00838964 0.000214958 2.94755e-23
-0.00861081 0.000170433 -2.87439e-23
-0.00861081 0.000170433 -2.87439e-23
-0.00877588 0.000125176 -5.72858e-23
-0.00877588 0.000125176 -5.72858e-23
-0.00888372 8.0337e-05 -2.85419e-23
-0.00888372 8.0337e-05 -2.85419e-23
-0.00893377 3.78372e-05 0
-0.00893377 3.78372e-05 0
-0.00892735 -7.7862e-07 0
-0.00892735 -7.7862e-07 0
-0.00887045 -3.54149e-05 -2.75354e-23
-0.00887045 -3.54149e-05 -2.75354e-23
-0.00876698 -6.62682e-05 -2.76206e-23
-0.00876698 -6.62682e-05 -2.76206e-23
-0.00862071 -9.28949e-05 0
-0.00862071 -9.28949e-05 0
-0.00843823 -0.000114956 0
-0.00843823 -0.000114956 0
-0.00822593 -0.000132025 0
-0.00822593 -0.000132025 0
-0.00799159 -0.000143704 0
-0.00799159 -0.000143704 0
-0.00774308 -0.000149992 0
-0.00774308 -0.000149992 0
-0.0074884 -0.000151169 0
-0.0074884 -0.000151169 0
-0.00723484 -0.000147879 0
-0.00723484 -0.000147879 0
-0.00698855 -0.000141114 2.61266e-23
-0.00698855 -0.000141114 2.61266e-23
-0.00675389 -0.000132103 2.62144e-23
-0.00675389 -0.000132103 2.62144e-23
-0.00653314 -0.00012216 0
-0.00653314 -0.00012216 0
-0.00632652 -0.000112529 -2.56541e-23
-0.00632652 -0.000112529 -2.56541e-23
-0.0061325 -0.000104232 -5.12349e-23
-0.0061325 -0.000104232 -5.12349e-23
-0.00594811 -9.80554e-05 -2.5581e-23
-0.00594811 -9.80554e-05 -2.5581e-23
-0.00576924 -9.45814e-05 2.51671e-23
-0.00576924 -9.45814e-05 2.51671e-23
-0.00559091 -9.41874e-05 2.50504e-25
-0.00559091 -9.41874e-05 2.50504e-25
-0.00540763 -9.69992e-05 -2.50949e-23
-0.00540763 -9.69992e-05 -2.50949e-23
-0.00521384 -0.00010283 2.46893e-23
-0.00521384 -0.00010283 2.46893e-23
-0.00500458 -0.00011116 2.47788e-23
-0.00500458 -0.00011116 2.47788e-23
-0.00477609 -0.000121214 0
-0.00477609 -0.000121214 0
-0.00452601 -0.000132142 -2.42358e-23
-0.00452601 -0.000132142 -2.42358e-23
-0.00425333 -0.000143134 -2.4326e-23
-0.00425333 -0.000143134 -2.4326e-23
-0.0039584 -0.000153414 2.39446e-23
-0.0039584 -0.000153414 2.39446e-23
-0.00364303 -0.00016224 2.40351e-23
-0.00364303 -0.00016224 2.40351e-23
-0.00331033 -0.000169021 -2.36537e-23
-0.00331033 -0.000169021 -2.36537e-23
-0.00296429 -0.000173351 -4.72495e-23
-0.00296429 -0.000173351 -4.72495e-23
-0.00260956 -0.000174952 -4.69479e-23
-0.00260956 -0.000174952 -4.69479e-23
-0.00225106 -0.000173719 -6.98306e-23
-0.00225106 -0.000173719 -6.98306e-23
-0.00189366 -0.000169796 -5.11001e-25
-0.00189366 -0.000169796 -5.11001e-25
-0.00154202 -0.000163516 4.62411e-23
-0.00154202 -0.000163516 4.62411e-23
-0.00120037 -0.000155342 0
-0.00120037 -0.000155342 0
-0.000872103 -0.000145782 0
-0.000872103 -0.000145782 0
-0.000559559 -0.000135341 4.46156e-23
-0.000559559 -0.000135341 4.46156e-23
-0.000264679 -0.000124421 8.90242e-23
-0.000264679 -0.000124421 8.90242e-23
1.0814e-05 -0.000113782 5.89873e-25
1.0814e-05 -0.000113782 5.89873e-25
0.000267052 -0.000103431 -4.39999e-23
0.000267052 -0.000103431 -4.39999e-23
0.000505498 -9.31439e-05 4.29705e-23
0.000505498 -9.31439e-05 4.29705e-23
0.000726711 -8.33427e-05 8.5693e-23
0.000726711 -8.33427e-05 8.5693e-23
0.000930937 -7.40725e-05 8.48338e-23
0.000930937 -7.40725e-05 8.48338e-23
0.00111889 -6.53609e-05 4.22913e-23
0.00111889 -6.53609e-05 4.22913e-23
0.00129134 -5.72155e-05 0
0.00129134 -5.72155e-05 0
0.00144909 -4.9629e-05 0
0.00144909 -4.9629e-05 0
0.00159293 -4.25849e-05 4.03902e-23
0.00159293 -4.25849e-05 4.03902e-23
0.00172366 -3.60622e-05 4.0567e-23
0.00172366 -3.60622e-05 4.0567e-23
0.00184202 -3.00395e-05 0
0.00184202 -3.00395e-05 0
0.00194875 -2.44979e-05 -3.91116e-23
0.00194875 -2.44979e-05 -3.91116e-23
0.00204456 -1.94222e-05 -3.92863e-23
0.00204456 -1.94222e-05 -3.92863e-23
0.00213015 -1.4801e-05 0
0.00213015 -1.4801e-05 0
0.00220621 -1.06248e-05 -3.78528e-23
0.00220621 -1.06248e-05 -3.78528e-23
0.00227344 -6.88364e-06 -3.80252e-23
0.00227344 -6.88364e-06 -3.80252e-23
0.00233255 -3.56516e-06 0
0.00233255 -3.56516e-06 0
0.00238423 -6.51489e-07 3.66173e-23
0.00238423 -6.51489e-07 3.66173e-23
0.00242919 1.8804e-06 7.29983e-23
0.00242919 1.8804e-06 7.29983e-23
0.0024681 4.05953e-06 3.63801e-23
0.0024681 4.05953e-06 3.63801e-23
0.00250163 5.92273e-06 -3.54067e-23
0.00250163 5.92273e-06 -3.54067e-23
0.00253037 7.50628e-06 -3.55741e-23
0.00253037 7.50628e-06 -3.55741e-23
0.00255489 8.84791e-06 3.46136e-23
0.00255489 8.84791e-06 3.46136e-23
0.00257567 9.98953e-06 3.47793e-23
0.00257567 9.98953e-06 3.47793e-23
0.00259313 1.09537e-05 3.38316e-23
0.00259313 1.09537e-05 3.38316e-23
0.00260764 1.1766e-05 6.744e-23
0.00260764 1.1766e-05 6.744e-23
0.00261945 1.24568e-05 3.36075e-23
0.00261945 1.24568e-05 3.36075e-23
0.00262884 1.30173e-05 0
0.00262884 1.30173e-05 0
0.002636 1.34754e-05 0
0.002636 1.34754e-05 0
0.002641 1.38782e-05 0
0.002641 1.38782e-05 0
0.00264405 1.41745e-05 0
0.00264405 1.41745e-05 0
0.00264534 1.43026e-05 0
0.00264534 1.43026e-05 0
0.00264506 1.4267e-05 0
0.00264506 1.4267e-05 0
0.00264343 1.40785e-05 3.04399e-23
0.00264343 1.40785e-05 3.04399e-23
0.00264072 1.3741e-05 5.19904e-25
0.00264072 1.3741e-05 5.19904e-25
0.00263719 1.32717e-05 -3.02289e-23
0.00263719 1.32717e-05 -3.02289e-23
0.00263308 1.26985e-05 0
0.00263308 1.26985e-05 0
0.0026286 1.20508e-05 0
0.0026286 1.20508e-05 0
0.00262393 1.13546e-05 0
0.00262393 1.13546e-05 0
0.00261923 1.06319e-05 -5.65664e-23
0.00261923 1.06319e-05 -5.65664e-23
0.00261462 9.90267e-06 -5.68636e-23
0.00261462 9.90267e-06 -5.68636e-23
0.00261018 9.18677e-06 5.51621e-23
0.00261018 9.18677e-06 5.51621e-23
0.00260599 8.50079e-06 9.88862e-25
0.00260599 8.50079e-06 9.88862e-25
0.00260205 7.85408e-06 -5.47563e-23
0.00260205 7.85408e-06 -5.47563e-23
0.00259839 7.24737e-06 0
0.00259839 7.24737e-06 0
0.00259503 6.6747e-06 0
0.00259503 6.6747e-06 0
0.00259198 6.12897e-06 5.1719e-23
0.00259198 6.12897e-06 5.1719e-23
0.00258923 5.60896e-06 1.03041e-22
0.00258923 5.60896e-06 1.03041e-22
0.00258674 5.11853e-06 5.13201e-23
0.00258674 5.11853e-06 5.13201e-23
0.00258447 4.66768e-06 4.96967e-23
0.00258447 4.66768e-06 4.96967e-23
0.00258238 4.26419e-06 9.90001e-23
0.00258238 4.26419e-06 9.90001e-23
0.00258045 3.90516e-06 9.3526e-25
0.00258045 3.90516e-06 9.3526e-25
0.00257866 3.58566e-06 -4.86344e-23
0.00257866 3.58566e-06 -4.86344e-23
0.00257702 3.30139e-06 0
0.00257702 3.30139e-06 0
0.00257551 3.04804e-06 -4.63932e-23
0.00257551 3.04804e-06 -4.63932e-23
0.00257412 2.82112e-06 -4.66545e-23
0.00257412 2.82112e-06 -4.66545e-23
0.00257286 2.61657e-06 0
0.00257286 2.61657e-06 0
0.00257172 2.4336e-06 0
0.00257172 2.4336e-06 0
0.00257069 2.27442e-06 0
0.00257069 2.27442e-06 0
0.00256976 2.14126e-06 4.3167e-23
0.00256976 2.14126e-06 4.3167e-23
0.00256889 2.03462e-06 8.59457e-23
0.00256889 2.03462e-06 8.59457e-23
0.00256808 1.95307e-06 4.2776e-23
0.00256808 1.95307e-06 4.2776e-23
0.00256728 1.89371e-06 4.12657e-23
0.00256728 1.89371e-06 4.12657e-23
0.00256647 1.85278e-06 4.15058e-23
0.00256647 1.85278e-06 4.15058e-23
0.00256563 1.82718e-06 0
0.00256563 1.82718e-06 0
0.00256474 1.81493e-06 3.93884e-23
0.00256474 1.81493e-06 3.93884e-23
0.00256378 1.81501e-06 3.96203e-23
0.00256378 1.81501e-06 3.96203e-23
0.00256271 1.82737e-06 3.81497e-23
0.00256271 1.82737e-06 3.81497e-23
0.00256151 1.85262e-06 3.83759e-23
0.00256151 1.85262e-06 3.83759e-23
0.00256013 1.89274e-06 0
0.00256013 1.89274e-06 0
0.00255854 1.95025e-06 3.63098e-23
0.00255854 1.95025e-06 3.63098e-23
0.00255666 2.03004e-06 3.65275e-23
0.00255666 2.03004e-06 3.65275e-23
0.00255444 2.13661e-06 3.50949e-23