/*--------------------------------*- C++ -*----------------------------------*\
  =========                 |
  \\      /  F ield         | OpenFOAM: The Open Source CFD Toolbox
   \\    /   O peration     | Website:  https://openfoam.org
    \\  /    A nd           | Version:  7
     \\/     M anipulation  |
\*---------------------------------------------------------------------------*/
FoamFile
{
    version     2.0;
    format      ascii;
    class       surfaceScalarField;
    location    "0.083";
    object      phi;
}
// * * * * * * * * * * * * * * * * * * * * * * * * * * * * * * * * * * * * * //

dimensions      [0 3 -1 0 0 0 0];

internalField   nonuniform List<scalar> 
24170
(
1.40701e-06
2.13825e-07
1.26337e-06
1.43643e-07
1.12418e-06
1.39196e-07
9.94897e-07
1.2928e-07
8.77611e-07
1.17285e-07
7.75088e-07
1.02523e-07
6.85975e-07
8.91132e-08
6.05981e-07
7.99937e-08
5.32623e-07
7.33585e-08
4.65687e-07
6.69359e-08
4.05556e-07
6.01305e-08
3.52258e-07
5.32986e-08
3.05268e-07
4.69895e-08
2.64002e-07
4.12661e-08
2.27792e-07
3.62098e-08
1.9501e-07
3.27822e-08
1.651e-07
2.99105e-08
2.31403e-08
1.41959e-07
1.66732e-06
2.31707e-07
1.63986e-06
1.71101e-07
1.58956e-06
1.89495e-07
1.54531e-06
1.73533e-07
1.50981e-06
1.52784e-07
1.47707e-06
1.35263e-07
1.44247e-06
1.23708e-07
1.40441e-06
1.1806e-07
1.36263e-06
1.15139e-07
1.31691e-06
1.12655e-07
1.26815e-06
1.08884e-07
1.21807e-06
1.03379e-07
1.16969e-06
9.53691e-08
1.12364e-06
8.73137e-08
1.07999e-06
7.9868e-08
1.03711e-06
7.56554e-08
9.91311e-07
7.57126e-08
7.5154e-08
9.39297e-07
1.78559e-06
2.8647e-07
1.75322e-06
2.03471e-07
1.73158e-06
2.11133e-07
1.7228e-06
1.82313e-07
1.72192e-06
1.53659e-07
1.71974e-06
1.37447e-07
1.71172e-06
1.31726e-07
1.69915e-06
1.3063e-07
1.68493e-06
1.29358e-07
1.6705e-06
1.27092e-07
1.65559e-06
1.23791e-07
1.63971e-06
1.19258e-07
1.62262e-06
1.12462e-07
1.6048e-06
1.05135e-07
1.58519e-06
9.94761e-08
1.56445e-06
9.63953e-08
1.5407e-06
9.94624e-08
1.03652e-07
1.5122e-06
1.92313e-06
2.80819e-07
1.89532e-06
2.31282e-07
1.88351e-06
2.22942e-07
1.87233e-06
1.93485e-07
1.86272e-06
1.63279e-07
1.85504e-06
1.45123e-07
1.8485e-06
1.38268e-07
1.84289e-06
1.36239e-07
1.83851e-06
1.33741e-07
1.83597e-06
1.2963e-07
1.83538e-06
1.24378e-07
1.83633e-06
1.18308e-07
1.83735e-06
1.11445e-07
1.83723e-06
1.05249e-07
1.83435e-06
1.02357e-07
1.82792e-06
1.02832e-07
1.81801e-06
1.09366e-07
1.182e-07
1.80346e-06
2.06089e-06
3.58763e-07
2.02588e-06
2.66297e-07
2.01865e-06
2.30169e-07
2.01807e-06
1.94065e-07
2.01898e-06
1.62367e-07
2.01729e-06
1.46816e-07
2.0119e-06
1.43653e-07
2.00477e-06
1.43367e-07
1.99865e-06
1.3986e-07
1.99532e-06
1.32959e-07
1.99493e-06
1.24777e-07
1.99652e-06
1.1671e-07
1.99851e-06
1.0946e-07
1.99966e-06
1.04101e-07
1.99928e-06
1.02734e-07
1.9967e-06
1.05414e-07
1.99262e-06
1.13444e-07
1.25118e-07
1.9857e-06
2.25073e-06
3.86168e-07
2.22801e-06
2.89018e-07
2.20965e-06
2.48535e-07
2.1984e-06
2.05314e-07
2.19116e-06
1.69601e-07
2.18447e-06
1.53505e-07
2.17715e-06
1.50977e-07
2.16991e-06
1.50612e-07
2.16428e-06
1.4549e-07
2.16121e-06
1.3602e-07
2.16033e-06
1.25661e-07
2.16017e-06
1.16869e-07
2.15908e-06
1.1055e-07
2.15611e-06
1.0707e-07
2.15159e-06
1.07259e-07
2.14598e-06
1.11016e-07
2.14066e-06
1.18767e-07
1.30123e-07
2.13566e-06
2.40071e-06
3.46016e-07
2.37599e-06
3.13736e-07
2.36612e-06
2.58407e-07
2.36352e-06
2.07911e-07
2.35701e-06
1.76111e-07
2.34796e-06
1.62555e-07
2.34023e-06
1.58705e-07
2.33525e-06
1.55593e-07
2.33248e-06
1.48267e-07
2.33099e-06
1.3751e-07
2.33023e-06
1.26418e-07
2.32989e-06
1.17212e-07
2.3297e-06
1.10735e-07
2.32941e-06
1.07361e-07
2.3289e-06
1.07766e-07
2.32785e-06
1.12069e-07
2.32633e-06
1.20286e-07
1.32229e-07
2.32423e-06
2.52689e-06
3.43332e-07
2.54399e-06
2.96639e-07
2.55462e-06
2.47783e-07
2.55109e-06
2.11441e-07
2.53719e-06
1.90002e-07
2.52316e-06
1.76585e-07
2.51566e-06
1.66204e-07
2.51463e-06
1.56625e-07
2.51549e-06
1.47414e-07
2.51392e-06
1.39073e-07
2.50882e-06
1.31519e-07
2.50188e-06
1.24156e-07
2.49555e-06
1.17059e-07
2.49154e-06
1.11378e-07
2.49041e-06
1.08891e-07
2.49173e-06
1.10748e-07
2.49485e-06
1.17166e-07
1.2802e-07
2.49906e-06
2.78974e-06
3.95905e-07
2.76146e-06
3.24912e-07
2.73958e-06
2.69666e-07
2.71268e-06
2.38345e-07
2.69003e-06
2.12653e-07
2.68009e-06
1.8652e-07
2.68045e-06
1.6585e-07
2.68404e-06
1.53028e-07
2.68655e-06
1.44906e-07
2.68824e-06
1.37381e-07
2.69162e-06
1.28142e-07
2.69835e-06
1.17426e-07
2.7079e-06
1.0751e-07
2.71805e-06
1.0123e-07
2.7265e-06
1.00443e-07
2.73195e-06
1.05297e-07
2.7344e-06
1.14715e-07
1.27336e-07
2.73508e-06
2.98655e-06
5.62036e-07
2.94256e-06
3.68909e-07
2.93259e-06
2.79636e-07
2.92457e-06
2.46361e-07
2.92233e-06
2.14897e-07
2.9224e-06
1.86443e-07
2.91856e-06
1.69696e-07
2.90917e-06
1.62413e-07
2.89779e-06
1.56293e-07
2.88952e-06
1.45644e-07
2.88755e-06
1.30116e-07
2.89173e-06
1.13246e-07
2.89975e-06
9.94896e-08
2.90865e-06
9.23263e-08
2.91652e-06
9.25741e-08
2.92237e-06
9.94511e-08
2.92676e-06
1.1032e-07
1.2315e-07
2.93095e-06
3.21568e-06
5.56376e-07
3.16196e-06
4.22626e-07
3.12216e-06
3.19439e-07
3.10763e-06
2.6089e-07
3.1086e-06
2.13923e-07
3.11379e-06
1.81254e-07
3.11782e-06
1.65668e-07
3.11962e-06
1.60609e-07
3.1195e-06
1.56413e-07
3.11806e-06
1.47089e-07
3.11611e-06
1.32063e-07
3.11447e-06
1.14888e-07
3.11374e-06
1.00211e-07
3.1144e-06
9.16682e-08
3.11663e-06
9.03511e-08
3.12053e-06
9.55424e-08
3.12628e-06
1.0457e-07
1.15964e-07
3.13347e-06
2.89128e-06
5.15859e-07
2.88823e-06
4.25678e-07
2.87321e-06
3.34463e-07
2.86464e-06
2.6946e-07
2.85487e-06
2.23689e-07
2.84099e-06
1.95129e-07
2.8269e-06
1.79765e-07
2.81682e-06
1.70685e-07
2.81215e-06
1.6108e-07
2.81175e-06
1.47489e-07
2.8137e-06
1.30114e-07
2.81667e-06
1.11923e-07
2.82024e-06
9.66369e-08
2.82492e-06
8.69951e-08
2.83127e-06
8.39928e-08
2.83978e-06
8.70366e-08
2.85028e-06
9.40694e-08
1.03692e-07
2.86255e-06
3.47217e-06
5.70702e-07
3.49035e-06
4.075e-07
3.50626e-06
3.1855e-07
3.50159e-06
2.74135e-07
3.47368e-06
2.51596e-07
3.43624e-06
2.32574e-07
3.40676e-06
2.09246e-07
3.39436e-06
1.83086e-07
3.39774e-06
1.57701e-07
3.41037e-06
1.34856e-07
3.4259e-06
1.14581e-07
3.4405e-06
9.73228e-08
3.45295e-06
8.41922e-08
3.46345e-06
7.64865e-08
3.47306e-06
7.43925e-08
3.48253e-06
7.75588e-08
3.49269e-06
8.39161e-08
9.26939e-08
3.50368e-06
4.20874e-06
4.97664e-07
4.24796e-06
3.68284e-07
4.25451e-06
3.11997e-07
4.22696e-06
3.01684e-07
4.19074e-06
2.87819e-07
4.17098e-06
2.52332e-07
4.17217e-06
2.08056e-07
4.185e-06
1.70259e-07
4.19976e-06
1.42938e-07
4.21211e-06
1.22505e-07
4.22176e-06
1.04931e-07
4.22959e-06
8.94915e-08
4.23622e-06
7.75656e-08
4.24189e-06
7.08216e-08
4.24716e-06
6.91203e-08
4.25296e-06
7.17584e-08
4.26034e-06
7.6536e-08
8.27106e-08
4.27032e-06
5.19983e-06
5.13038e-07
5.18745e-06
3.80662e-07
5.20125e-06
2.98201e-07
5.21012e-06
2.92807e-07
5.20224e-06
2.95702e-07
5.17939e-06
2.75181e-07
5.15621e-06
2.31234e-07
5.14637e-06
1.80098e-07
5.15242e-06
1.36888e-07
5.16773e-06
1.07203e-07
5.1837e-06
8.8954e-08
5.19525e-06
7.79429e-08
5.20187e-06
7.09493e-08
5.206e-06
6.6689e-08
5.21041e-06
6.47102e-08
5.21699e-06
6.51805e-08
5.22631e-06
6.72199e-08
7.09119e-08
5.2381e-06
6.16594e-06
4.30029e-07
6.24673e-06
2.99866e-07
6.27593e-06
2.69002e-07
6.29957e-06
2.69163e-07
6.31645e-06
2.78826e-07
6.32625e-06
2.6538e-07
6.33856e-06
2.18929e-07
6.35883e-06
1.59823e-07
6.38155e-06
1.14167e-07
6.39596e-06
9.27912e-08
6.39519e-06
8.97314e-08
6.38076e-06
9.23714e-08
6.36078e-06
9.09256e-08
6.34473e-06
8.27394e-08
6.33914e-06
7.0302e-08
6.34587e-06
5.84513e-08
6.36317e-06
4.99154e-08
4.71889e-08
6.3869e-06
7.65835e-06
3.3551e-07
7.67078e-06
2.87443e-07
7.64262e-06
2.97155e-07
7.61518e-06
2.96606e-07
7.62269e-06
2.71314e-07
7.66669e-06
2.21384e-07
7.72287e-06
1.6275e-07
7.76459e-06
1.18098e-07
7.78127e-06
9.74865e-08
7.77924e-06
9.48268e-08
7.77104e-06
9.79315e-08
7.76569e-06
9.77185e-08
7.76579e-06
9.08205e-08
7.76942e-06
7.91189e-08
7.77374e-06
6.5975e-08
7.77737e-06
5.48189e-08
7.78028e-06
4.70121e-08
4.2704e-08
7.78476e-06
9.43955e-06
4.07199e-07
9.39077e-06
3.36224e-07
9.35726e-06
3.30665e-07
9.33773e-06
3.16144e-07
9.34172e-06
2.67316e-07
9.36444e-06
1.98666e-07
9.3909e-06
1.36292e-07
9.41437e-06
9.46244e-08
9.43946e-06
7.24022e-08
9.47316e-06
6.11247e-08
9.51699e-06
5.40994e-08
9.56541e-06
4.9297e-08
9.60945e-06
4.67882e-08
9.64159e-06
4.69751e-08
9.65859e-06
4.89721e-08
9.66211e-06
5.13055e-08
9.65652e-06
5.25999e-08
5.1153e-08
9.64807e-06
1.15156e-05
4.25295e-07
1.14584e-05
3.93371e-07
1.14828e-05
3.06289e-07
1.15578e-05
2.41139e-07
1.16197e-05
2.0544e-07
1.16377e-05
1.8061e-07
1.16283e-05
1.45739e-07
1.16235e-05
9.94582e-08
1.1642e-05
5.38745e-08
1.16819e-05
2.11994e-08
1.17303e-05
5.75673e-09
1.17734e-05
6.13816e-09
1.18055e-05
1.47464e-08
1.18262e-05
2.6196e-08
1.18389e-05
3.62669e-08
1.18476e-05
4.26206e-08
1.18554e-05
4.4811e-08
4.32828e-08
1.18633e-05
8.35974e-06
4.6026e-07
8.37527e-06
3.77839e-07
8.39774e-06
2.83817e-07
8.4475e-06
1.91383e-07
8.51412e-06
1.38819e-07
8.58153e-06
1.13203e-07
8.63286e-06
9.44109e-08
8.66068e-06
7.16323e-08
8.6686e-06
4.59589e-08
8.66538e-06
2.44122e-08
8.65873e-06
1.24069e-08
8.65442e-06
1.04496e-08
8.6535e-06
1.56721e-08
8.65692e-06
2.27762e-08
8.66521e-06
2.79779e-08
8.67815e-06
2.96782e-08
8.69542e-06
2.75354e-08
2.30929e-08
8.71561e-06
7.42177e-06
5.17716e-07
7.37846e-06
4.21144e-07
7.40211e-06
2.60174e-07
7.43203e-06
1.61457e-07
7.44635e-06
1.245e-07
7.45008e-06
1.09474e-07
7.45272e-06
9.17711e-08
7.45718e-06
6.71721e-08
7.46158e-06
4.15593e-08
7.46369e-06
2.23005e-08
7.46327e-06
1.28244e-08
7.46203e-06
1.16959e-08
7.46279e-06
1.49146e-08
7.46758e-06
1.79863e-08
7.47761e-06
1.79427e-08
7.49291e-06
1.43777e-08
7.51267e-06
7.77305e-09
4.25181e-11
7.53572e-06
6.44693e-06
5.11404e-07
6.40962e-06
4.58452e-07
6.40629e-06
2.63503e-07
6.42672e-06
1.41029e-07
6.45329e-06
9.79314e-08
6.48136e-06
8.14039e-08
6.50853e-06
6.46044e-08
6.53249e-06
4.32033e-08
6.55213e-06
2.1921e-08
6.5688e-06
5.63611e-09
6.58582e-06
-4.19779e-09
6.60481e-06
-7.29561e-09
6.62557e-06
-5.84669e-09
6.646e-06
-2.44256e-09
6.66347e-06
4.76397e-10
6.67644e-06
1.4078e-09
6.68482e-06
-6.09813e-10
-5.27312e-09
6.69014e-06
5.5068e-06
3.46389e-07
5.63086e-06
3.3439e-07
5.68791e-06
2.06455e-07
5.72135e-06
1.07588e-07
5.74744e-06
7.18433e-08
5.76865e-06
6.01916e-08
5.78026e-06
5.299e-08
5.77769e-06
4.57785e-08
5.76288e-06
3.67262e-08
5.74449e-06
2.40261e-08
5.73185e-06
8.44866e-09
5.73133e-06
-6.78066e-09
5.74344e-06
-1.79586e-08
5.7647e-06
-2.37017e-08
5.79046e-06
-2.52827e-08
5.81694e-06
-2.50657e-08
5.84164e-06
-2.53154e-08
-2.7662e-08
5.86403e-06
4.86702e-06
3.22374e-07
4.95573e-06
2.45671e-07
5.01075e-06
1.51435e-07
5.01558e-06
1.02763e-07
5.00205e-06
8.53704e-08
4.99725e-06
6.49998e-08
5.01229e-06
3.79498e-08
5.04441e-06
1.36522e-08
5.08452e-06
-3.37847e-09
5.12386e-06
-1.53202e-08
5.15644e-06
-2.41281e-08
5.17915e-06
-2.94902e-08
5.19249e-06
-3.1296e-08
5.19906e-06
-3.0271e-08
5.20208e-06
-2.83072e-08
5.20418e-06
-2.71675e-08
5.20694e-06
-2.80694e-08
-3.12468e-08
5.21052e-06
4.21833e-06
3.23091e-07
4.2688e-06
1.95193e-07
4.29885e-06
1.21384e-07
4.32228e-06
7.93367e-08
4.35541e-06
5.2241e-08
4.39422e-06
2.61885e-08
4.42907e-06
3.09925e-09
4.45742e-06
-1.46961e-08
4.4781e-06
-2.4056e-08
4.49346e-06
-3.06779e-08
4.50552e-06
-3.61948e-08
4.51575e-06
-3.97187e-08
4.52477e-06
-4.03157e-08
4.53266e-06
-3.81648e-08
4.53906e-06
-3.47019e-08
4.54349e-06
-3.15958e-08
4.54551e-06
-3.00943e-08
-3.10167e-08
4.54528e-06
3.7346e-06
3.42054e-07
3.80942e-06
1.20381e-07
3.87386e-06
5.69399e-08
3.90988e-06
4.33128e-08
3.93459e-06
2.75396e-08
3.95507e-06
5.70449e-09
3.96958e-06
-1.14126e-08
3.97739e-06
-2.25077e-08
3.98168e-06
-2.83387e-08
3.98385e-06
-3.28521e-08
3.98512e-06
-3.74677e-08
3.98655e-06
-4.11432e-08
3.98903e-06
-4.27946e-08
3.99331e-06
-4.24532e-08
3.99952e-06
-4.09027e-08
4.00705e-06
-3.91328e-08
4.01485e-06
-3.78928e-08
-3.76612e-08
4.0215e-06
3.27437e-06
1.47378e-07
3.34934e-06
4.54154e-08
3.37353e-06
3.27496e-08
3.38584e-06
3.10066e-08
3.40354e-06
9.83416e-09
3.43132e-06
-2.20747e-08
3.46218e-06
-4.22757e-08
3.48764e-06
-4.79619e-08
3.50429e-06
-4.49859e-08
3.51213e-06
-4.06921e-08
3.51337e-06
-3.87083e-08
3.51157e-06
-3.93463e-08
3.51034e-06
-4.15693e-08
3.51237e-06
-4.4483e-08
3.51855e-06
-4.70812e-08
3.5282e-06
-4.87838e-08
3.53961e-06
-4.92997e-08
-4.86946e-08
3.55064e-06
2.86734e-06
5.79326e-08
2.9306e-06
-1.78452e-08
2.95351e-06
9.83903e-09
2.98415e-06
3.61271e-10
3.01697e-06
-2.29813e-08
3.04101e-06
-4.61162e-08
3.05517e-06
-5.64344e-08
3.06233e-06
-5.51273e-08
3.06623e-06
-4.8882e-08
3.06936e-06
-4.38245e-08
3.07331e-06
-4.26546e-08
3.0791e-06
-4.51374e-08
3.08714e-06
-4.96133e-08
3.09718e-06
-5.45165e-08
3.1083e-06
-5.82039e-08
3.1194e-06
-5.98838e-08
3.12931e-06
-5.92145e-08
-5.65174e-08
3.13714e-06
2.54154e-06
2.58379e-08
2.57219e-06
-4.85026e-08
2.60619e-06
-2.41598e-08
2.64407e-06
-3.75176e-08
2.6715e-06
-5.04089e-08
2.68081e-06
-5.54276e-08
2.67757e-06
-5.31994e-08
2.67113e-06
-4.86832e-08
2.66802e-06
-4.57708e-08
2.66941e-06
-4.52193e-08
2.6727e-06
-4.59405e-08
2.67433e-06
-4.67696e-08
2.67184e-06
-4.71181e-08
2.66424e-06
-4.69219e-08
2.65205e-06
-4.60156e-08
2.63659e-06
-4.44158e-08
2.61947e-06
-4.20972e-08
-3.94202e-08
2.60237e-06
2.18606e-06
2.13755e-06
2.11339e-06
2.07588e-06
2.02547e-06
1.97004e-06
1.91684e-06
1.86816e-06
1.82239e-06
1.77717e-06
1.73123e-06
1.68446e-06
1.63734e-06
1.59042e-06
1.5444e-06
1.49999e-06
1.45789e-06
1.41847e-06
-1.25725e-07
1.25725e-07
-2.46291e-07
1.20566e-07
-3.24277e-07
7.79867e-08
-3.44825e-07
2.05473e-08
-3.16897e-07
-2.79272e-08
-2.53828e-07
-6.30694e-08
-1.61348e-07
-9.24803e-08
-4.40613e-08
-1.17287e-07
9.23724e-08
-1.36434e-07
2.39951e-07
-1.47578e-07
3.90658e-07
-1.50707e-07
5.36899e-07
-1.46241e-07
6.72265e-07
-1.35367e-07
7.92365e-07
-1.201e-07
8.9519e-07
-1.02825e-07
9.80923e-07
-8.57331e-08
1.05126e-06
-7.03389e-08
1.10877e-06
-5.75042e-08
1.15631e-06
-4.75399e-08
1.19671e-06
-4.04033e-08
1.2327e-06
-3.59886e-08
1.26673e-06
-3.40323e-08
1.30098e-06
-3.4246e-08
1.33716e-06
-3.61811e-08
1.37665e-06
-3.94931e-08
1.42021e-06
-4.35624e-08
1.46802e-06
-4.78027e-08
1.5195e-06
-5.14815e-08
1.57328e-06
-5.37827e-08
1.62798e-06
-5.47016e-08
1.68022e-06
-5.22343e-08
1.72754e-06
-4.73236e-08
1.76384e-06
-3.62969e-08
1.78559e-06
-2.17554e-08
1.78287e-06
2.71808e-09
1.74426e-06
3.86088e-08
1.66411e-06
8.0152e-08
1.51458e-06
1.49528e-07
1.31879e-06
1.95798e-07
1.01052e-06
3.08271e-07
5.98542e-07
4.11973e-07
3.20314e-07
2.78228e-07
2.25995e-07
9.43195e-08
1.93998e-07
3.19968e-08
1.57555e-07
3.64431e-08
1.51032e-07
6.52264e-09
1.46023e-07
5.00915e-09
7.38106e-08
7.22124e-08
-6.44444e-08
1.38255e-07
-2.39651e-07
1.75207e-07
-4.27936e-07
1.88285e-07
-6.04154e-07
1.76218e-07
-7.36377e-07
1.32223e-07
-7.9936e-07
6.29827e-08
-7.85912e-07
-1.34479e-08
-7.00187e-07
-8.57246e-08
-5.54708e-07
-1.4548e-07
-3.88504e-07
-1.66204e-07
-2.5654e-07
-1.31963e-07
-1.11053e-07
-1.45487e-07
1.30091e-07
-2.41144e-07
4.60041e-07
-3.2995e-07
7.2601e-07
-2.65969e-07
7.56762e-07
-3.0752e-08
6.29127e-07
1.27635e-07
6.29368e-07
-2.41526e-10
8.51111e-07
-2.21742e-07
1.08493e-06
-2.33819e-07
1.13377e-06
-4.88373e-08
9.39469e-07
1.94298e-07
5.01489e-07
4.37979e-07
-7.84282e-08
5.79917e-07
-7.06608e-07
6.2818e-07
-1.34182e-06
6.35216e-07
-1.95509e-06
6.13267e-07
-2.53087e-06
5.75777e-07
-3.06185e-06
5.30985e-07
-3.54536e-06
4.8351e-07
-3.98108e-06
4.35715e-07
-4.36958e-06
3.88502e-07
-4.71152e-06
3.41941e-07
-5.00717e-06
2.95644e-07
-5.25631e-06
2.49148e-07
-5.45862e-06
2.02309e-07
-5.61393e-06
1.55304e-07
-5.72253e-06
1.08604e-07
-5.78552e-06
6.29952e-08
-5.80492e-06
1.93924e-08
-5.78516e-06
-1.9756e-08
-5.73044e-06
-5.47256e-08
-5.64375e-06
-8.66867e-08
-5.52821e-06
-1.15538e-07
-5.3868e-06
-1.41414e-07
-5.22234e-06
-1.64453e-07
-5.03774e-06
-1.84603e-07
-4.83599e-06
-2.01751e-07
-4.62031e-06
-2.1568e-07
-4.39411e-06
-2.262e-07
-4.16087e-06
-2.33238e-07
-3.92398e-06
-2.36897e-07
-3.68645e-06
-2.37522e-07
-3.45082e-06
-2.35638e-07
-3.21896e-06
-2.31859e-07
-2.99225e-06
-2.26711e-07
-2.77165e-06
-2.206e-07
-2.55778e-06
-2.1387e-07
-2.35095e-06
-2.06826e-07
-2.15116e-06
-1.99791e-07
-1.95802e-06
-1.93139e-07
-1.77086e-06
-1.87165e-07
-1.58874e-06
-1.82118e-07
-1.41038e-06
-1.78352e-07
-1.23423e-06
-1.76154e-07
-1.05862e-06
-1.75607e-07
-8.82028e-07
-1.76597e-07
-7.03142e-07
-1.78886e-07
-5.21182e-07
-1.8196e-07
-3.362e-07
-1.84982e-07
-1.49106e-07
-1.87094e-07
3.83976e-08
-1.87503e-07
2.23815e-07
-1.85418e-07
4.04519e-07
-1.80704e-07
5.77785e-07
-1.73266e-07
7.41104e-07
-1.63319e-07
8.92383e-07
-1.51279e-07
1.03006e-06
-1.37676e-07
1.15313e-06
-1.23071e-07
1.26109e-06
-1.0796e-07
1.3538e-06
-9.27113e-08
1.43148e-06
-7.76835e-08
1.49483e-06
-6.33414e-08
1.54467e-06
-4.98494e-08
1.58166e-06
-3.69879e-08
1.60678e-06
-2.51203e-08
1.62139e-06
-1.46105e-08
1.62568e-06
-4.28486e-09
1.61885e-06
6.82361e-09
1.60055e-06
1.83044e-08
1.57084e-06
2.97106e-08
1.53055e-06
4.02939e-08
1.48133e-06
4.92176e-08
1.42564e-06
5.56892e-08
1.36634e-06
5.92971e-08
1.30627e-06
6.00695e-08
1.24792e-06
5.83485e-08
1.19319e-06
5.47359e-08
1.14325e-06
4.99354e-08
1.09864e-06
4.46078e-08
1.05937e-06
3.92754e-08
1.02509e-06
3.42806e-08
9.95292e-07
2.97968e-08
9.69418e-07
2.58738e-08
9.46927e-07
2.24909e-08
9.27329e-07
1.95981e-08
9.10189e-07
1.71403e-08
8.95123e-07
1.50659e-08
8.81794e-07
1.33285e-08
8.6991e-07
1.18846e-08
8.59213e-07
1.06967e-08
8.49483e-07
9.73012e-09
8.40521e-07
8.96184e-09
8.32155e-07
8.3659e-09
8.24217e-07
7.93848e-09
8.1656e-07
7.65614e-09
8.09017e-07
7.5433e-09
8.01458e-07
7.55884e-09
7.93675e-07
7.78318e-09
7.85558e-07
8.11739e-09
7.76761e-07
8.79679e-09
7.67258e-07
9.5026e-09
7.56323e-07
1.0935e-08
7.44163e-07
1.21601e-08
7.29089e-07
1.50747e-08
7.12291e-07
1.67977e-08
6.89308e-07
2.2983e-08
6.65042e-07
2.42656e-08
6.26462e-07
3.85807e-08
5.92232e-07
3.423e-08
5.20573e-07
7.16582e-08
4.47163e-08
4.75857e-07
6.24999e-08
6.32252e-08
9.38076e-08
8.9258e-08
1.2799e-07
4.38041e-08
1.74887e-07
-2.63495e-08
2.43775e-07
-9.68154e-08
3.35898e-07
-1.55192e-07
4.47114e-07
-2.03696e-07
5.71804e-07
-2.41976e-07
7.02084e-07
-2.66714e-07
8.27424e-07
-2.72918e-07
9.43347e-07
-2.6663e-07
1.04546e-06
-2.48355e-07
1.13132e-06
-2.21225e-07
1.20024e-06
-1.89017e-07
1.25288e-06
-1.5547e-07
1.29074e-06
-1.23592e-07
1.316e-06
-9.55947e-08
1.33129e-06
-7.27939e-08
1.33978e-06
-5.60388e-08
1.34383e-06
-4.44527e-08
1.34575e-06
-3.79014e-08
1.34808e-06
-3.63675e-08
1.35299e-06
-3.9154e-08
1.36231e-06
-4.54984e-08
1.37741e-06
-5.45932e-08
1.39934e-06
-6.54955e-08
1.4288e-06
-7.72638e-08
1.46627e-06
-8.89496e-08
1.51177e-06
-9.92831e-08
1.56475e-06
-1.07679e-07
1.62454e-06
-1.12027e-07
1.68937e-06
-1.1215e-07
1.75786e-06
-1.04788e-07
1.82609e-06
-8.99838e-08
1.89445e-06
-6.56422e-08
1.95878e-06
-2.57268e-08
2.01617e-06
2.27654e-08
2.06652e-06
9.91823e-08
2.08642e-06
1.75891e-07
2.13082e-06
2.63875e-07
2.17616e-06
3.66633e-07
2.061e-06
3.93392e-07
1.76235e-06
3.92968e-07
1.35034e-06
4.4401e-07
9.63168e-07
4.2361e-07
6.6186e-07
3.0783e-07
4.28521e-07
2.38348e-07
2.61702e-07
2.39031e-07
1.31767e-07
2.6819e-07
1.02656e-08
2.96708e-07
-1.19402e-07
3.17953e-07
-2.41093e-07
2.97908e-07
-3.30767e-07
2.21897e-07
-3.77224e-07
1.0944e-07
-3.77975e-07
-1.26969e-08
-3.29843e-07
-1.33856e-07
-1.91152e-07
-2.8417e-07
2.80158e-08
-3.85372e-07
2.46787e-07
-3.50734e-07
4.51385e-07
-3.50085e-07
7.11815e-07
-5.01574e-07
1.02182e-06
-6.39951e-07
1.28166e-06
-5.25816e-07
1.42269e-06
-1.71784e-07
1.55987e-06
-9.54107e-09
1.63294e-06
-7.33073e-08
1.36283e-06
4.83678e-08
7.46804e-07
3.82204e-07
-3.9854e-08
7.3782e-07
-8.03629e-07
9.58073e-07
-1.47242e-06
1.10677e-06
-2.06295e-06
1.17044e-06
-2.60213e-06
1.16737e-06
-3.08908e-06
1.12216e-06
-3.52769e-06
1.05188e-06
-3.92109e-06
9.69175e-07
-4.27287e-06
8.82766e-07
-4.58687e-06
7.97505e-07
-4.86642e-06
7.15265e-07
-5.11388e-06
6.35967e-07
-5.3304e-06
5.58461e-07
-5.51595e-06
4.81187e-07
-5.66963e-06
4.02837e-07
-5.79055e-06
3.23223e-07
-5.87769e-06
2.42449e-07
-5.93068e-06
1.61591e-07
-5.95009e-06
8.24042e-08
-5.93662e-06
5.91767e-09
-5.89055e-06
-6.58226e-08
-5.81273e-06
-1.32546e-07
-5.70569e-06
-1.93725e-07
-5.57201e-06
-2.49219e-07
-5.41428e-06
-2.99149e-07
-5.23519e-06
-3.4354e-07
-5.03748e-06
-3.82312e-07
-4.82411e-06
-4.15125e-07
-4.59824e-06
-4.41543e-07
-4.36328e-06
-4.6116e-07
-4.12272e-06
-4.73798e-07
-3.87992e-06
-4.79696e-07
-3.63785e-06
-4.79594e-07
-3.39885e-06
-4.74636e-07
-3.16459e-06
-4.66118e-07
-2.93615e-06
-4.5515e-07
-2.71424e-06
-4.42512e-07
-2.49928e-06
-4.28834e-07
-2.29139e-06
-4.14711e-07
-2.09042e-06
-4.00768e-07
-1.8958e-06
-3.87754e-07
-1.7067e-06
-3.76264e-07
-1.5221e-06
-3.6672e-07
-1.34064e-06
-3.5981e-07
-1.16069e-06
-3.56107e-07
-9.80509e-07
-3.55785e-07
-7.98397e-07
-3.58709e-07
-6.1288e-07
-3.64403e-07
-4.23071e-07
-3.71769e-07
-2.28855e-07
-3.79199e-07
-3.10916e-08
-3.84857e-07
1.68029e-07
-3.86624e-07
3.66629e-07
-3.84017e-07
5.61825e-07
-3.75899e-07
7.50729e-07
-3.6217e-07
9.30673e-07
-3.43263e-07
1.0994e-06
-3.20004e-07
1.25517e-06
-2.93448e-07
1.39681e-06
-2.6471e-07
1.52362e-06
-2.34774e-07
1.63535e-06
-2.04435e-07
1.73212e-06
-1.74453e-07
1.81436e-06
-1.45582e-07
1.88283e-06
-1.1832e-07
1.93894e-06
-9.30967e-08
1.98428e-06
-7.04588e-08
2.02009e-06
-5.04282e-08
2.04824e-06
-3.24343e-08
2.07087e-06
-1.58011e-08
2.08918e-06
-6.1814e-12
2.10324e-06
1.56502e-08
2.11306e-06
3.04746e-08
2.11812e-06
4.41539e-08
2.11794e-06
5.58754e-08
2.11215e-06
6.50809e-08
2.10074e-06
7.14844e-08
2.08411e-06
7.4978e-08
2.06305e-06
7.57935e-08
2.03863e-06
7.43513e-08
2.01209e-06
7.11561e-08
1.98464e-06
6.67189e-08
1.95741e-06
6.15148e-08
1.93124e-06
5.59618e-08
1.90671e-06
5.04043e-08
1.8841e-06
4.50991e-08
1.86349e-06
4.02116e-08
1.84481e-06
3.58231e-08
1.82792e-06
3.19497e-08
1.81269e-06
2.85646e-08
1.79895e-06
2.5618e-08
1.7866e-06
2.30544e-08
1.77551e-06
2.08215e-08
1.76558e-06
1.88845e-08
1.75673e-06
1.72163e-08
1.74885e-06
1.58238e-08
1.74181e-06
1.46904e-08
1.73549e-06
1.38652e-08
1.72975e-06
1.32953e-08
1.72442e-06
1.31163e-08
1.71937e-06
1.31661e-08
1.71432e-06
1.38504e-08
1.70922e-06
1.45996e-08
1.7035e-06
1.66587e-08
1.69737e-06
1.82929e-08
1.68942e-06
2.3019e-08
1.68068e-06
2.55418e-08
1.66783e-06
3.58345e-08
1.65384e-06
3.82464e-08
1.63166e-06
6.07697e-08
1.60732e-06
5.85675e-08
1.5704e-06
1.08577e-07
9.20231e-08
1.52309e-06
9.94822e-08
-3.6257e-08
2.24163e-07
-3.54232e-08
3.52493e-07
-8.4525e-08
4.81206e-07
-1.55063e-07
6.09519e-07
-2.25129e-07
7.35573e-07
-2.81246e-07
8.52405e-07
-3.20529e-07
9.52375e-07
-3.41946e-07
1.02832e-06
-3.42663e-07
1.07809e-06
-3.22685e-07
1.10041e-06
-2.88947e-07
1.09772e-06
-2.45672e-07
1.07174e-06
-1.95245e-07
1.02787e-06
-1.45141e-07
9.72508e-07
-1.0011e-07
9.11851e-07
-6.29349e-08
8.50271e-07
-3.40144e-08
7.91631e-07
-1.41536e-08
7.36607e-07
-1.01518e-09
6.85084e-07
7.06982e-09
6.3778e-07
9.40302e-09
5.95165e-07
6.24725e-09
5.58404e-07
-2.39303e-09
5.29443e-07
-1.65377e-08
5.09837e-07
-3.49867e-08
5.01534e-07
-5.71927e-08
5.06503e-07
-8.22332e-08
5.2637e-07
-1.08816e-07
5.62521e-07
-1.35435e-07
6.15441e-07
-1.60599e-07
6.85673e-07
-1.8226e-07
7.72575e-07
-1.99052e-07
8.75681e-07
-2.07895e-07
9.93615e-07
-2.07918e-07
1.12467e-06
-1.96693e-07
1.26849e-06
-1.69546e-07
1.42205e-06
-1.30794e-07
1.59043e-06
-6.92055e-08
1.76045e-06
5.8693e-09
1.94121e-06
8.3117e-08
2.11851e-06
1.89335e-07
2.24063e-06
2.71275e-07
2.31042e-06
3.23179e-07
2.3531e-06
4.01324e-07
2.30901e-06
4.67703e-07
2.10903e-06
5.0781e-07
1.804e-06
5.43377e-07
1.48491e-06
5.58118e-07
1.21059e-06
5.42512e-07
9.87169e-07
5.2013e-07
8.13701e-07
4.91421e-07
6.78875e-07
4.32735e-07
5.71439e-07
3.29333e-07
4.84017e-07
1.96862e-07
4.25301e-07
4.60194e-08
4.07569e-07
-1.16125e-07
4.44501e-07
-3.21102e-07
5.82075e-07
-5.22946e-07
7.93177e-07
-5.61836e-07
1.04577e-06
-6.02679e-07
1.3548e-06
-8.10604e-07
1.62668e-06
-9.11834e-07
1.81507e-06
-7.14204e-07
1.92026e-06
-2.76978e-07
1.78736e-06
1.23367e-07
1.2139e-06
5.00148e-07
2.74406e-07
9.87864e-07
-6.57624e-07
1.31423e-06
-1.38761e-06
1.4678e-06
-1.97931e-06
1.54978e-06
-2.45086e-06
1.57832e-06
-2.8367e-06
1.55628e-06
-3.16615e-06
1.49682e-06
-3.45797e-06
1.41398e-06
-3.72489e-06
1.31879e-06
-3.975e-06
1.21929e-06
-4.21274e-06
1.1205e-06
-4.44016e-06
1.02493e-06
-4.65766e-06
9.32766e-07
-4.86412e-06
8.42432e-07
-5.05689e-06
7.51226e-07
-5.23187e-06
6.56166e-07
-5.38391e-06
5.54885e-07
-5.5075e-06
4.46809e-07
-5.59834e-06
3.3329e-07
-5.65342e-06
2.16674e-07
-5.67113e-06
1.00105e-07
-5.65252e-06
-1.26836e-08
-5.59789e-06
-1.20455e-07
-5.51105e-06
-2.19384e-07
-5.39546e-06
-3.09314e-07
-5.25406e-06
-3.90623e-07
-5.08987e-06
-4.63338e-07
-4.90579e-06
-5.27619e-07
-4.70473e-06
-5.8337e-07
-4.48972e-06
-6.30143e-07
-4.26393e-06
-6.67333e-07
-4.03068e-06
-6.94411e-07
-3.79332e-06
-7.11153e-07
-3.55508e-06
-7.17934e-07
-3.31876e-06
-7.15921e-07
-3.08649e-06
-7.06899e-07
-2.85975e-06
-6.92857e-07
-2.63944e-06
-6.75463e-07
-2.42619e-06
-6.55759e-07
-2.22055e-06
-6.34479e-07
-2.02286e-06
-6.12398e-07
-1.83318e-06
-5.90449e-07
-1.65108e-06
-5.6985e-07
-1.47567e-06
-5.51683e-07
-1.3058e-06
-5.36591e-07
-1.13988e-06
-5.25725e-07
-9.75939e-07
-5.2005e-07
-8.1182e-07
-5.19903e-07
-6.45387e-07
-5.25142e-07
-4.74789e-07
-5.35001e-07
-2.9902e-07
-5.47537e-07
-1.1759e-07
-5.6063e-07
6.80705e-08
-5.70517e-07
2.57081e-07
-5.75635e-07
4.47009e-07
-5.73945e-07
6.35368e-07
-5.64258e-07
8.19569e-07
-5.46371e-07
9.97139e-07
-5.20833e-07
1.16582e-06
-4.88686e-07
1.32362e-06
-4.51246e-07
1.46888e-06
-4.09975e-07
1.60037e-06
-3.66257e-07
1.71724e-06
-3.21308e-07
1.81899e-06
-2.76206e-07
1.90529e-06
-2.31882e-07
1.97612e-06
-1.89145e-07
2.03206e-06
-1.49038e-07
2.07451e-06
-1.12914e-07
2.10581e-06
-8.17273e-08
2.12893e-06
-5.55512e-08
2.14678e-06
-3.36501e-08
2.16168e-06
-1.49066e-08
2.17553e-06
1.80334e-09
2.18921e-06
1.6789e-08
2.20272e-06
3.06445e-08
2.21551e-06
4.30911e-08
2.22659e-06
5.39999e-08
2.23487e-06
6.32053e-08
2.23941e-06
7.04385e-08
2.23959e-06
7.5608e-08
2.23525e-06
7.86967e-08
2.22662e-06
7.97765e-08
2.21433e-06
7.90149e-08
2.19918e-06
7.6668e-08
2.18208e-06
7.30555e-08
2.16396e-06
6.85273e-08
2.14563e-06
6.34288e-08
2.12777e-06
5.80718e-08
2.11088e-06
5.27169e-08
2.09526e-06
4.75623e-08
2.08108e-06
4.27432e-08
2.06837e-06
3.83342e-08
2.05705e-06
3.43695e-08
2.04702e-06
3.08511e-08
2.03813e-06
2.77806e-08
2.03021e-06
2.51331e-08
2.02312e-06
2.29115e-08
2.01676e-06
2.10543e-08
2.01103e-06
1.9595e-08
2.00592e-06
1.84075e-08
2.00138e-06
1.76527e-08
1.99749e-06
1.70567e-08
1.99419e-06
1.71477e-08
1.99157e-06
1.72226e-08
1.98945e-06
1.87748e-08
1.98788e-06
1.98698e-08
1.9865e-06
2.4399e-08
1.98512e-06
2.69142e-08
1.98354e-06
3.74183e-08
1.98057e-06
4.1211e-08
1.97771e-06
6.36375e-08
1.96938e-06
6.68929e-08
1.96571e-06
1.12249e-07
1.14653e-07
1.94308e-06
3.04826e-08
-6.67396e-08
1.73727e-07
-1.78667e-07
3.61251e-07
-2.72049e-07
5.42932e-07
-3.36745e-07
6.91308e-07
-3.73505e-07
7.93885e-07
-3.83822e-07
8.43686e-07
-3.7033e-07
8.43021e-07
-3.41282e-07
7.9253e-07
-2.92172e-07
6.96728e-07
-2.26883e-07
5.76864e-07
-1.69083e-07
4.56574e-07
-1.25381e-07
3.46416e-07
-8.50873e-08
2.43436e-07
-4.21611e-08
1.42448e-07
8.77907e-10
4.1883e-08
3.76303e-08
-5.73413e-08
6.52098e-08
-1.55187e-07
8.36922e-08
-2.50548e-07
9.43452e-08
-3.41563e-07
9.80855e-08
-4.27064e-07
9.49033e-08
-5.05211e-07
8.43945e-08
-5.73742e-07
6.61383e-08
-6.30438e-07
4.01577e-08
-6.72893e-07
7.46855e-09
-6.96084e-07
-3.40014e-08
-6.98482e-07
-7.98352e-08
-6.7853e-07
-1.28768e-07
-6.35036e-07
-1.78928e-07
-5.67662e-07
-2.27973e-07
-4.76291e-07
-2.73631e-07
-3.61816e-07
-3.13527e-07
-2.24826e-07
-3.44884e-07
-6.68617e-08
-3.65882e-07
1.10617e-07
-3.74173e-07
3.07954e-07
-3.66883e-07
5.21852e-07
-3.44692e-07
7.55725e-07
-3.03079e-07
1.00672e-06
-2.45123e-07
1.26594e-06
-1.7611e-07
1.54294e-06
-8.76595e-08
1.80725e-06
6.96192e-09
2.03869e-06
9.17464e-08
2.25073e-06
1.8928e-07
2.42162e-06
2.96811e-07
2.53651e-06
3.92922e-07
2.60023e-06
4.79653e-07
2.60337e-06
5.54977e-07
2.53472e-06
6.11163e-07
2.41886e-06
6.35994e-07
2.28378e-06
6.26499e-07
2.14185e-06
5.74666e-07
1.99314e-06
4.78049e-07
1.84347e-06
3.46524e-07
1.72527e-06
1.64224e-07
1.62724e-06
-1.8099e-08
1.54516e-06
-2.39019e-07
1.51311e-06
-4.90901e-07
1.52586e-06
-5.7458e-07
1.63379e-06
-7.10616e-07
1.8453e-06
-1.02211e-06
1.95512e-06
-1.02166e-06
1.79022e-06
-5.493e-07
1.35949e-06
1.53751e-07
6.0171e-07
8.81144e-07
-3.08695e-07
1.41055e-06
-1.0558e-06
1.73497e-06
-1.61463e-06
1.87307e-06
-2.05859e-06
1.91176e-06
-2.41258e-06
1.90377e-06
-2.69582e-06
1.86156e-06
-2.93376e-06
1.79422e-06
-3.14664e-06
1.7097e-06
-3.34776e-06
1.61511e-06
-3.54477e-06
1.51579e-06
-3.74164e-06
1.41616e-06
-3.94053e-06
1.31939e-06
-4.14278e-06
1.22718e-06
-4.34875e-06
1.13874e-06
-4.55653e-06
1.0502e-06
-4.76093e-06
9.55631e-07
-4.95353e-06
8.48769e-07
-5.12412e-06
7.25468e-07
-5.26244e-06
5.85136e-07
-5.36024e-06
4.31081e-07
-5.41265e-06
2.69084e-07
-5.41805e-06
1.05506e-07
-5.37762e-06
-5.31116e-08
-5.29845e-06
-1.99624e-07
-5.18492e-06
-3.32916e-07
-5.0426e-06
-4.51626e-07
-4.87719e-06
-5.56036e-07
-4.6934e-06
-6.47126e-07
-4.49527e-06
-7.25752e-07
-4.28629e-06
-7.92351e-07
-4.06959e-06
-8.46844e-07
-3.84804e-06
-8.88886e-07
-3.62422e-06
-9.1823e-07
-3.4004e-06
-9.34969e-07
-3.1785e-06
-9.39831e-07
-2.95981e-06
-9.34612e-07
-2.74489e-06
-9.21817e-07
-2.53378e-06
-9.03973e-07
-2.32631e-06
-8.82932e-07
-2.12263e-06
-8.5944e-07
-1.92333e-06
-8.33772e-07
-1.72926e-06
-8.06473e-07
-1.54114e-06
-7.78568e-07
-1.35947e-06
-7.51522e-07
-1.18439e-06
-7.26764e-07
-1.01579e-06
-7.05186e-07
-8.52849e-07
-6.88668e-07
-6.93993e-07
-6.78906e-07
-5.37038e-07
-6.76859e-07
-3.79409e-07
-6.8277e-07
-2.18868e-07
-6.95543e-07
-5.43234e-08
-7.12082e-07
1.1322e-07
-7.28173e-07
2.83878e-07
-7.41175e-07
4.55375e-07
-7.47132e-07
6.25254e-07
-7.43824e-07
7.91486e-07
-7.3049e-07
9.52776e-07
-7.07661e-07
1.10859e-06
-6.76642e-07
1.25879e-06
-6.38886e-07
1.40313e-06
-5.95585e-07
1.54073e-06
-5.47575e-07
1.66994e-06
-4.95469e-07
1.78866e-06
-4.40028e-07
1.89497e-06
-3.82523e-07
1.98769e-06
-3.24596e-07