/*--------------------------------*- C++ -*----------------------------------*\
  =========                 |
  \\      /  F ield         | OpenFOAM: The Open Source CFD Toolbox
   \\    /   O peration     | Website:  https://openfoam.org
    \\  /    A nd           | Version:  7
     \\/     M anipulation  |
\*---------------------------------------------------------------------------*/
FoamFile
{
    version     2.0;
    format      ascii;
    class       volScalarField;
    location    "0.083";
    object      s;
}
// * * * * * * * * * * * * * * * * * * * * * * * * * * * * * * * * * * * * * //

dimensions      [0 0 0 0 0 0 0];

internalField   nonuniform List<scalar> 
12225
(
1
1
1
1
1
1
1
1
1
1
1
1
1
1
1
1
1
1
1
1
1
1
1
1
1
1
1
1
1
1
1
1
1
1
1
1
1
1
1
1
1
1
1
1
1
1
1
1
1
1
1
1
1
1
1
1
1
1
1
1
1
1
1
1
1
1
1
1
1
1
1
1
1
1
1
1
1
1
1
1
1
1
1
1
1
1
1
1
1
1
1
1
1
1
1
1
1
1
1
1
1
1
1
1
1
1
1
1
1
1
1
1
1
1
1
1
1
1
1
1
1
1
1
1
1
1
1
1
1
1
1
1
1
1
1
1
1
1
1
1
1
1
1
1
1
1
1
1
1
1
1
1
1
1
1
1
1
1
1
1
1
1
1
1
1
1
1
1
1
1
1
1
1
1
1
1
1
1
1
1
1
1
1
1
1
1
1
1
1
1
1
1
1
1
1
1
1
1
1
1
1
1
1
1
1
1
1
1
1
1
1
1
1
1
1
1
1
1
1
1
1
1
1
1
1
1
1
1
1
1
1
1
1
1
1
1
1
1
1
1
1
1
1
1
1
1
1
1
1
1
1
1
1
1
1
1
1
1
1
1
1
1
1
1
1
1
1
1
1
1
1
1
1
1
1
1
1
1
1
1
1
1
1
1
1
1
1
1
1
1
1
1
1
1
1
1
1
1
1
1
1
1
1
1
1
1
1
1
1
1
1
1
1
1
1
1
1
1
1
1
1
1
1
1
1
1
1
1
1
1
1
1
1
1
1
1
1
1
1
1
1
1
1
1
1
1
1
1
1
1
1
1
1
1
1
1
1
1
1
1
1
1
1
1
1
1
1
1
1
1
1
1
1
1
1
1
1
1
1
1
1
1
1
1
1
1
1
1
1
1
1
1
1
1
1
1
1
1
1
1
1
1
1
1
1
1
1
1
1
1
1
1
1
1
1
1
1
1
1
1
1
1
1
1
1
1
1
1
1
1
1
1
1
1
1
1
1
1
1
1
1
1
1
1
1
1
1
1
1
1
1
1
1
1
1
1
1
1
1
1
1
1
1
1
1
1
1
1
1
1
1
1
1
1
1
1
1
1
1
1
1
1
1
1
1
1
1
1
1
1
1
1
1
1
1
1
1
1
1
1
1
1
1
1
1
1
1
1
1
1
1
1
1
1
1
1
1
1
1
1
1
1
1
1
1
1
1
1
1
1
1
1
1
1
1
1
1
1
1
1
0.152426
0.14963
0.152229
0.160702
0.170424
0.185105
0.205832
0.236405
0.278454
0.301724
0.325826
0.339662
0.356252
0.372847
0.385817
0.395515
0.402342
0.40703
0.410353
0.41309
0.415312
0.417183
0.418682
0.419753
0.420761
0.421655
0.422138
0.422511
0.422647
0.42262
0.422569
0.422626
0.42301
0.423676
0.424078
0.424236
0.424427
0.424915
0.426114
0.432696
0.432281
0.299676
0.0724419
0.0380381
0.0429248
0.0575716
0.0765243
0.096517
0.113198
0.127136
0.137844
0.145785
0.152882
0.159813
0.168656
0.17359
0.16935
0.161898
0.166474
0.195113
0.232394
0.241107
0.227635
0.190261
0.185588
0.195457
0.222901
0.276662
0.435738
0.720943
0.849589
0.876105
0.880909
0.884139
0.886654
0.888723
0.89004
0.890582
0.890693
0.890695
0.89061
0.890347
0.889861
0.889186
0.888427
0.887657
0.886854
0.885956
0.88496
0.884123
0.883448
0.882905
0.882471
0.88229
0.882239
0.882297
0.882661
0.883179
0.883689
0.884431
0.885401
0.886347
0.887294
0.888285
0.889155
0.889939
0.890811
0.891379
0.891831
0.892168
0.892299
0.892241
0.89188
0.89118
0.890152
0.88875
0.886993
0.884846
0.882258
0.879134
0.875378
0.870687
0.865021
0.85952
0.854901
0.849897
0.842722
0.833957
0.826514
0.819122
0.803738
0.774688
0.746419
0.723003
0.685316
0.618258
0.526017
0.418107
0.307819
0.208507
0.129273
0.0731017
0.0376497
0.0176789
0.00759286
0.00299205
0.00107753
0.000346737
0.000100255
4.74765e-05
2.41731e-05
1.20082e-05
5.80182e-06
2.72942e-06
1.25597e-06
5.68243e-07
2.54084e-07
1.12838e-07
4.99878e-08
2.21671e-08
9.86236e-09
4.40674e-09
1.97724e-09
8.89938e-10
4.01165e-10
1.80774e-10
8.12741e-11
3.63867e-11
1.61916e-11
7.1485e-12
3.1253e-12
1.35054e-12
5.75489e-13
2.41256e-13
9.91396e-14
3.97962e-14
1.55072e-14
5.81433e-15
2.1321e-15
-3.03744e-15
0.152883
0.152961
0.153951
0.15315
0.134463
0.140743
0.162432
0.20983
0.278203
0.34859
0.398316
0.434821
0.455991
0.467504
0.471727
0.471712
0.471291
0.470223
0.468622
0.466457
0.463671
0.461042
0.4577
0.452506
0.447288
0.442967
0.436304
0.428535
0.422408
0.415097
0.407234
0.403235
0.403088
0.404135
0.407545
0.417168
0.425416
0.431047
0.432916
0.436537
0.437974
0.427997
0.407294
0.399544
0.374811
0.241456
0.097702
0.0753263
0.0900832
0.115816
0.135581
0.159548
0.187147
0.218257
0.25362
0.302653
0.341266
0.366461
0.37292
0.384415
0.435462
0.472787
0.468554
0.437953
0.367024
0.335366
0.332238
0.451296
0.782886
0.858806
0.881467
0.890123
0.894365
0.896032
0.896397
0.896164
0.894048
0.890299
0.886565
0.882318
0.876273
0.868746
0.860682
0.852471
0.844521
0.837742
0.832745
0.828886
0.826085
0.824546
0.82306
0.822635
0.822596
0.822759
0.823434
0.824837
0.826711
0.828577
0.830771
0.833938
0.837603
0.841432
0.845547
0.849986
0.854494
0.859406
0.865338
0.871523
0.877675
0.884456
0.89079
0.897191
0.903574
0.909797
0.915931
0.921405
0.925914
0.929315
0.932198
0.934621
0.936449
0.937555
0.937846
0.936557
0.932907
0.927407
0.920634
0.914902
0.911267
0.909946
0.910632
0.916132
0.926358
0.936191
0.951229
0.964941
0.967763
0.965994
0.958809
0.941004
0.907954
0.866356
0.824723
0.783704
0.728366
0.641105
0.523609
0.400325
0.296517
0.216714
0.155484
0.108953
0.0742879
0.049173
0.0315626
0.0196401
0.011852
0.00694156
0.00395018
0.00218704
0.00117987
0.000621247
0.000319799
0.000161219
7.97197e-05
3.87253e-05
1.85016e-05
8.70397e-06
4.03342e-06
1.84257e-06
8.29009e-07
3.67656e-07
1.60192e-07
6.8735e-08
2.87968e-08
1.18703e-08
4.71666e-09
1.82593e-09
7.40893e-10
-3.57025e-09
0.11508
0.130022
0.137765
0.154548
0.193531
0.269513
0.355427
0.436426
0.47812
0.49827
0.500128
0.498882
0.495254
0.489887
0.481175
0.472941
0.462557
0.450032
0.436303
0.419971
0.401156
0.381357
0.35971
0.336071
0.314727
0.293821
0.274272
0.26031
0.249785
0.239956
0.232974
0.230101
0.229811
0.230311
0.232521
0.239031
0.254829
0.291034
0.335712
0.370092
0.403525
0.41659
0.42234
0.426039
0.425554
0.419246
0.392378
0.327781
0.189485
0.135757
0.114808
0.111329
0.111647
0.121274
0.155922
0.204059
0.288189
0.376203
0.446509
0.48984
0.520898
0.560102
0.567087
0.560215
0.527983
0.438019
0.540368
0.809727
0.876901
0.89195
0.896707
0.897904
0.897857
0.895533
0.892242
0.884888
0.871917
0.852256
0.825918
0.804672
0.791559
0.780317
0.776271
0.775033
0.775254
0.779334
0.785184
0.789072
0.793085
0.794091
0.793983
0.792824
0.790533
0.787809
0.785486
0.784277
0.783735
0.78355
0.784
0.785315
0.788046
0.792555
0.797856
0.802889
0.807489
0.812201
0.817037
0.820954
0.824411
0.827978
0.831243
0.835271
0.839667
0.8444
0.849843
0.856818
0.8657
0.876562
0.888518
0.901285
0.914639
0.928099
0.939939
0.947528
0.952081
0.95421
0.954053
0.948455
0.935418
0.920356
0.90537
0.894132
0.888702
0.887357
0.888324
0.895424
0.915268
0.935394
0.953626
0.968913
0.978538
0.981669
0.981698
0.980585
0.976826
0.965032
0.943632
0.92691
0.911302
0.887324
0.836165
0.722039
0.579036
0.440978
0.326936
0.238878
0.171171
0.119795
0.0816838
0.054212
0.0350235
0.0220451
0.0135377
0.00812541
0.00477589
0.0027555
0.001564
0.00087581
0.000484793
0.000266119
0.000144873
7.84527e-05
4.20445e-05
2.23879e-05
1.16765e-05
6.02849e-06
2.99861e-06
1.45818e-06
7.08809e-07
2.31465e-07
0.024338
0.0984004
0.250929
0.371643
0.471606
0.51615
0.534015
0.532701
0.528175
0.517128
0.502838
0.482765
0.450723
0.416685
0.376756
0.340992
0.319381
0.301374
0.283873
0.266938
0.251852
0.238847
0.228866
0.221402
0.215112
0.210268
0.208055
0.20678
0.206129
0.206209
0.206957
0.207505
0.207368
0.205985
0.204004
0.201736
0.200228
0.200921
0.209521
0.232094
0.27144
0.315755
0.358121
0.390446
0.409216
0.42133
0.423086
0.419314
0.402494
0.35253
0.288272
0.216324
0.167429
0.156448
0.160183
0.172649
0.210897
0.308287
0.423422
0.503636
0.536699
0.585489
0.601477
0.585907
0.548395
0.644631
0.809975
0.880043
0.894936
0.897876
0.898235
0.896838
0.892317
0.880869
0.858126
0.817542
0.782538
0.766144
0.759697
0.758738
0.762685
0.773947
0.784761
0.794543
0.809124
0.814282
0.815462
0.814992
0.810471
0.803129
0.793969
0.783421
0.771944
0.760922
0.75189
0.745511
0.742017
0.739917
0.739156
0.739812
0.745024
0.754694
0.766766
0.778592
0.788645
0.799142
0.810144
0.819679
0.827599
0.834392
0.840136
0.844152
0.846274
0.846783
0.846094
0.844505
0.843781
0.845274
0.848967
0.853911
0.860531
0.869184
0.881488
0.899883
0.921185
0.942284
0.959148
0.968374
0.972594
0.973294
0.970361
0.955174
0.928022
0.904279
0.889174
0.882827
0.881697
0.883089
0.892015
0.916184
0.93874
0.956301
0.969575
0.979777
0.986997
0.99041
0.991108
0.991003
0.990368
0.988395
0.981839
0.964572
0.950202
0.936548
0.909918
0.84262
0.682419
0.513111
0.372327
0.264327
0.18344
0.124244
0.0821117
0.0530134
0.0335026
0.0207851
0.0126958
0.00766204
0.00457864
0.00271721
0.00159996
0.000936238
0.000540987
0.000309301
0.000172678
9.48477e-05
5.02014e-05
2.5869e-05
1.31052e-05
5.37374e-06
0.252462
0.461314
0.546202
0.570545
0.566692
0.559311
0.547115
0.530297
0.494677
0.435312
0.385999
0.351213
0.325866
0.306672
0.289892
0.273607
0.256335
0.238489
0.22866
0.225741
0.225308
0.226914
0.233138
0.243771
0.258994
0.278135
0.297732
0.315884
0.330992
0.341879
0.348102
0.350685
0.348521
0.341135
0.330978
0.317549
0.302124
0.285128
0.270803
0.262357
0.256684
0.255721
0.263176
0.284768
0.313679
0.357569
0.390395
0.408556
0.418325
0.417419
0.412442
0.401837
0.375505
0.343062
0.340961
0.348868
0.373072
0.41348
0.469685
0.522873
0.554976
0.615873
0.653706
0.643547
0.707824
0.823601
0.87783
0.894614
0.897422
0.897586
0.895046
0.886307
0.86475
0.819843
0.776796
0.758415
0.752294
0.752293
0.76071
0.772406
0.796638
0.824195
0.834955
0.838998
0.839296
0.832675
0.815782
0.793799
0.772121
0.74467
0.712892
0.680656
0.653087
0.631641
0.617819
0.613088
0.612596
0.614639
0.618912
0.624567
0.631539
0.640797
0.652936
0.667887
0.68563
0.706366
0.731498
0.760206
0.789789
0.818455
0.84052
0.859593
0.876653
0.889044
0.898092
0.905146
0.907969
0.906155
0.900114
0.891643
0.881536
0.872801
0.868586
0.870509
0.877742
0.889063
0.906423
0.931319
0.955972
0.972697
0.980262
0.982475
0.981798
0.974142
0.94645
0.91486
0.894994
0.886521
0.884995
0.886585
0.896962
0.922454
0.944257
0.961257
0.973903
0.982707
0.988677
0.993001
0.995689
0.996679
0.996695
0.996244
0.995181
0.993858
0.991234
0.985555
0.973878
0.950065
0.891653
0.733648
0.545914
0.391088
0.272986
0.186522
0.124962
0.0823036
0.0534339
0.0343043
0.0218146
0.0137668
0.00860898
0.00533422
0.00325577
0.00195672
0.00114678
0.000657116
0.000363857
0.000194671
0.000102613
4.56763e-05
0.588912
0.597707
0.596139
0.585634
0.563922
0.527689
0.48474
0.442421
0.404396
0.366296
0.312366
0.290043
0.286451
0.286257
0.286106
0.284326
0.28378
0.291541
0.309087
0.3364
0.371227
0.414248
0.463472
0.508932
0.552483
0.590428
0.622029
0.647144
0.665158
0.674398
0.678078
0.674481
0.662743
0.645501
0.623754
0.59923
0.570904
0.540219
0.508304
0.473727
0.439214
0.402408
0.366088
0.334809
0.314903
0.307596
0.308914
0.322088
0.357296
0.388706
0.403116
0.415062
0.423589
0.426044
0.428942
0.434648
0.446841
0.464471
0.508026
0.541287
0.591796
0.707866
0.738962
0.766604
0.835407
0.876985
0.892497
0.896053
0.896505
0.89294
0.880917
0.851552
0.789856
0.760452
0.748935
0.746933
0.754414
0.767603
0.802286
0.832708
0.842554
0.843786
0.835939
0.816817
0.787524
0.741759
0.685341
0.638948
0.605426
0.581536
0.567339
0.557132
0.553938
0.553378
0.554505
0.558213
0.564729
0.573304
0.582979
0.592285
0.59966
0.60606
0.61235
0.618483
0.624197
0.629549
0.635718
0.644622
0.658749
0.681324
0.717002
0.762807
0.816268
0.862161
0.889492
0.90937
0.923757
0.934359
0.942436
0.948427
0.951957
0.950933
0.941642
0.922806
0.904386
0.892342
0.891231
0.897897
0.913008
0.934552
0.959412
0.977369
0.985427
0.987597
0.986961
0.979872
0.951751
0.919267
0.901004
0.894395
0.893907
0.896957
0.912931
0.93886
0.957583
0.970993
0.980974
0.988076
0.992713
0.995542
0.997336
0.998386
0.99882
0.998885
0.998828
0.998544
0.997708
0.995589
0.990292
0.977205
0.94409
0.844042
0.648344
0.47316
0.335548
0.233347
0.160099
0.108763
0.0732118
0.0488506
0.0322423
0.0210163
0.0134614
0.00845475
0.00517251
0.00307948
0.00177473
0.000983259
0.000537539
0.000253516
0.610958
0.608931
0.600363
0.576907
0.542677
0.498663
0.449972
0.405439
0.378027
0.35266
0.331286
0.326111
0.332328
0.354287
0.381133
0.424506
0.48573
0.542145
0.609288
0.665951
0.718668
0.762239
0.79759
0.828454
0.850437
0.869621
0.881744
0.890556
0.895258
0.897165
0.896231
0.890114
0.879316
0.863306
0.841157
0.81448
0.78295
0.74751
0.710501
0.676702
0.645824
0.61957
0.592581
0.562622
0.527237
0.489528
0.450072
0.412548
0.390185
0.386399
0.388605
0.402467
0.422949
0.434648
0.44903
0.465459
0.47658
0.488368
0.522203
0.558321
0.636433
0.763956
0.800715
0.841746
0.876
0.889909
0.893818
0.894696
0.890645
0.875432
0.836349
0.777765
0.751124
0.742959
0.742418
0.753039
0.777409
0.821206
0.837674
0.840997
0.836335
0.814874
0.764976
0.676096
0.577693
0.537844
0.524225
0.522047
0.523994
0.529706
0.533981
0.537073
0.539833
0.54218
0.54566
0.550734
0.558071
0.567376
0.578168
0.588856
0.59697
0.603313
0.609063
0.614406
0.618973
0.62223
0.624429
0.626223
0.628675
0.633258
0.641531
0.656879
0.686992
0.738025
0.793051
0.839905
0.877597
0.90538
0.927326
0.944219
0.956428
0.965224
0.971104
0.974283
0.973743
0.964758
0.941469
0.921224
0.912873
0.915057
0.92806
0.94872
0.970144
0.984185
0.98987
0.990891
0.989519
0.979648
0.949206
0.924085
0.912251
0.909617
0.910556
0.917481
0.939148
0.959179
0.972805
0.982009
0.988362
0.992836
0.995797
0.997586
0.998626
0.99924
0.999538
0.999613
0.9996
0.99949
0.999085
0.997874
0.994436
0.984719
0.957523
0.873328
0.686193
0.512953
0.374317
0.268715
0.190547
0.133687
0.0926728
0.0632907
0.0423863
0.0277439
0.0176685
0.0109158
0.00653297
0.00374888
0.00212313
0.0010536
0.612946
0.613152
0.610714
0.599921
0.556289
0.493032
0.457452
0.434567
0.424368
0.422037
0.444024
0.482973
0.528735
0.591428
0.654681
0.713882
0.760601
0.806
0.845114
0.871337
0.899276
0.915385
0.927904
0.939589
0.944715
0.949749
0.953847
0.955888
0.958382
0.960515
0.961424
0.961148
0.958681
0.952367
0.94058
0.919596
0.890341
0.851456
0.805199
0.76367
0.72734
0.702113
0.682238
0.66299
0.645651
0.626169
0.606927
0.5903
0.567705
0.527818
0.486593
0.464508
0.460329
0.462171
0.470672
0.48276
0.492133
0.513365
0.556966
0.586556
0.679177
0.807076
0.841941
0.872538
0.886784
0.891131
0.892385
0.888539
0.872523
0.828192
0.771983
0.746135
0.738498
0.738429
0.748426
0.778658
0.823609
0.836703
0.837126
0.824624
0.779012
0.671801
0.544122
0.492825
0.473424
0.468982
0.474779
0.497711
0.516959
0.530029
0.537294
0.543065
0.546913
0.549057
0.55165
0.554979
0.560679
0.569004
0.579933
0.592519
0.602744
0.60918
0.61356
0.61755
0.621362
0.62404
0.625432
0.626226
0.627236
0.629393
0.633215
0.639049
0.6516
0.679695
0.716871
0.754117
0.791737
0.830242
0.865385
0.8971
0.924459
0.946743
0.963598
0.97498
0.981942
0.985523
0.986248
0.98266
0.965328
0.943266
0.933737
0.93493
0.946692
0.966273
0.982194
0.990493
0.993072
0.993028
0.989978
0.974587
0.949795
0.935314
0.930257
0.930164
0.933094
0.945907
0.964076
0.976631
0.98489
0.990298
0.993874
0.996276
0.997863
0.998824
0.999368
0.999665
0.999801
0.999831
0.99982
0.999738
0.99942
0.998395
0.995279
0.986015
0.959153
0.874827
0.697471
0.535036
0.402239
0.297386
0.216155
0.154193
0.107608
0.0732165
0.0484206
0.0310088
0.0192408
0.0114347
0.00670319
0.00348792
0.61972
0.623607
0.622229
0.606163
0.563498
0.528836
0.518631
0.517708
0.544076
0.586823
0.638617
0.693647
0.744901
0.794463
0.838713
0.872015
0.896431
0.9198
0.930838
0.94249
0.948779
0.952721
0.956545
0.958206
0.959008
0.959392
0.960941
0.962753
0.964468
0.968475
0.972576
0.975651
0.978769
0.980473
0.98157
0.979633
0.973467
0.959972
0.934858
0.887838
0.829822
0.78064
0.755692
0.731862
0.712172
0.689823
0.665684
0.643174
0.624686
0.612137
0.60499
0.593457
0.571416
0.551279
0.539734
0.5378
0.541335
0.565296
0.58699
0.606199
0.722716
0.835989
0.865024
0.882223
0.887944
0.889808
0.886659
0.87115
0.826654
0.769993
0.742474
0.734089
0.733763
0.742476
0.769288
0.819732
0.834712
0.835627
0.820834
0.760581
0.611256
0.479276
0.43286
0.41693
0.413788
0.425288
0.460856
0.489014
0.523107
0.55838
0.577007
0.58234
0.58314
0.583179
0.581455
0.5797
0.579385
0.58311
0.591573
0.605922
0.619513
0.626814
0.629723
0.63082
0.632517
0.633723
0.633936
0.633308
0.632174
0.631729
0.633322
0.636794
0.642339
0.655235
0.682065
0.712886
0.745014
0.778663
0.812179
0.84542
0.877989
0.907757
0.933567
0.955001
0.97154
0.98296
0.989283
0.992033
0.992366
0.989493
0.974749
0.956744
0.95117
0.953429
0.966198
0.981733
0.990902
0.994471
0.994974
0.994025
0.988264
0.971566
0.958212
0.951906
0.950672
0.951716
0.957385
0.970919
0.981447
0.988309
0.992647
0.995403
0.997174
0.99832
0.999053
0.999495
0.999739
0.999864
0.99991
0.999914
0.999897
0.999803
0.999465
0.998379
0.99508
0.985359
0.957516
0.870684
0.703597
0.549857
0.419931
0.31327
0.227835
0.161089
0.110517
0.0733121
0.0471131
0.0289804
0.0175692
0.00956017
0.622732
0.626115
0.625767
0.612921
0.589689
0.583186
0.591503
0.633075
0.686296
0.742483
0.790928
0.836629
0.869154
0.897698
0.917622
0.928476
0.935272
0.940209
0.942332
0.943597
0.94396
0.941593
0.936141
0.929924
0.924052
0.920611
0.919318
0.920194
0.924932
0.933399
0.944933
0.958604
0.969579
0.979124
0.985042
0.98768
0.988555
0.988163
0.983277
0.970359
0.943591
0.895704
0.854692
0.826095
0.803082
0.786364
0.766789
0.735243
0.694702
0.652766
0.616808
0.600107
0.595365
0.593244
0.590853
0.589833
0.590078
0.597709
0.601224
0.618835
0.763277
0.853691
0.875037
0.883883
0.886863
0.885123
0.871145
0.826158
0.770461
0.739772
0.728582
0.726228
0.735573
0.755131
0.809077
0.832572
0.835965
0.825193
0.770615
0.616625
0.45219
0.392248
0.369808
0.362487
0.361927
0.381705
0.411818
0.453479
0.522826
0.565679
0.596721
0.609414
0.613174
0.61356
0.611454
0.609248
0.60807
0.607376
0.609669
0.619677
0.632853
0.640763
0.646249
0.64903
0.649693
0.649655
0.649248
0.648171
0.645727
0.642266
0.639426
0.638918
0.641053
0.646481
0.655451
0.667478
0.68385
0.710074
0.750336
0.796623
0.841933
0.881186
0.911818
0.935005
0.953539
0.968847
0.981678
0.990253
0.994326
0.995578
0.995246
0.990967
0.976005
0.966294
0.965331
0.970024
0.983036
0.991761
0.995487
0.996308
0.996016
0.993794
0.985487
0.975543
0.969731
0.96763
0.967771
0.970099
0.977991
0.986158
0.991487
0.994797
0.996825
0.998075
0.998855
0.999342
0.999641
0.999814
0.999906
0.999946
0.999955
0.999951
0.999922
0.999801
0.999401
0.998173
0.994562
0.984182
0.954745
0.863271
0.698417
0.545498
0.413524
0.303751
0.21604
0.148344
0.0986541
0.0628323
0.0394233
0.0224042
0.624574
0.632232
0.635522
0.634381
0.631742
0.646353
0.683456
0.743424
0.797679
0.842679
0.875884
0.901514
0.914404
0.924623
0.929011
0.931032
0.931791
0.929219
0.92009
0.906999
0.894509
0.882117
0.874686
0.869782
0.867725
0.866901
0.866456
0.866284
0.867146
0.86975
0.87544
0.886859
0.91055
0.938237
0.966739
0.980627
0.988525
0.991654
0.992592
0.990824
0.982264
0.958664
0.900406
0.864882
0.836538
0.820999
0.811392
0.801381
0.784082
0.761137
0.725766
0.653904
0.609689
0.595552
0.592855
0.593491
0.599867
0.604976
0.604498
0.623826
0.783545
0.863574
0.878412
0.883214
0.883585
0.873163
0.833321
0.771786
0.736923
0.722335
0.718118
0.725803
0.741333
0.783533
0.826615
0.836404
0.8331
0.8011
0.683561
0.469436
0.371869
0.328732
0.305617
0.289905
0.284031
0.288544
0.328259
0.3876
0.468122
0.547952
0.59391
0.614525
0.623574
0.624665
0.622645
0.621223
0.621149
0.622833
0.626671
0.631504
0.639736
0.646896
0.653055
0.657588
0.660666
0.662847
0.664447
0.665909
0.666803
0.663531
0.657345
0.652495
0.649842
0.649649
0.65271
0.659067
0.667359
0.681116
0.709374
0.75443
0.804229
0.851504
0.892042
0.923284
0.945535
0.961442
0.973266
0.98326
0.991112
0.995487
0.997098
0.997201
0.995723
0.987304
0.977577
0.975313
0.976923
0.98525
0.993015
0.996408
0.997346
0.997299
0.996407
0.992645
0.986128
0.981601
0.979483
0.97919
0.980185
0.984524
0.990316
0.994159
0.99652
0.997934
0.998778
0.999286
0.999591
0.999775
0.999882
0.999941
0.999968
0.999976
0.999976
0.999965
0.99992
0.999763
0.999277
0.997843
0.993664
0.981443
0.945014
0.831189
0.658297
0.502685
0.370735
0.263447
0.181136
0.119227
0.0772214
0.0457526
0.629632
0.648259
0.654177
0.664948
0.683884
0.714526
0.763601
0.821106
0.863344
0.891755
0.908191
0.917391
0.921419
0.923316
0.923485
0.915926
0.899649
0.885586
0.873464
0.868081
0.864129
0.862379
0.861753
0.861664
0.862309
0.86258
0.862387
0.861439
0.859977
0.858448
0.857711
0.8574
0.858693
0.86838
0.894292
0.93691
0.970638
0.98659
0.992963
0.994614
0.994498
0.988311
0.96713
0.913722
0.861608
0.835531
0.823504
0.815424
0.802415
0.784422
0.76921
0.75264
0.703589
0.642524
0.608089
0.59957
0.602014
0.605161
0.604819
0.625924
0.789579
0.868902
0.87848
0.881411
0.875748
0.842985
0.776195
0.734749
0.716102
0.708974
0.713223
0.726667
0.752909
0.809813
0.834625
0.838122
0.82489
0.748914
0.56777
0.38238
0.30885
0.272114
0.241865
0.222858
0.215465
0.215036
0.239652
0.2859
0.373684
0.492138
0.572489
0.61455
0.631336
0.635134
0.634132
0.632322
0.631776
0.633405
0.639245
0.648794
0.655793
0.660927
0.66338
0.664631
0.666205
0.668554
0.671317
0.675055
0.681391
0.688475
0.690088
0.685463
0.680361
0.677313
0.67556
0.675558
0.678223
0.686462
0.707253
0.750069
0.798742
0.845172
0.885534
0.917826
0.941844
0.95887
0.970856
0.979713
0.986955
0.992872
0.99652
0.997992
0.998169
0.997411
0.99226
0.984684
0.982531
0.983202
0.988344
0.994496
0.997299
0.998202
0.998259
0.997914
0.996299
0.992195
0.988851
0.987138
0.986741
0.987211
0.989688
0.993565
0.996199
0.997804
0.998737
0.999276
0.999589
0.999771
0.999876
0.999936
0.999968
0.999983
0.999988
0.999988
0.999984
0.999964
0.999896
0.999681
0.999027
0.997049
0.990966
0.971824
0.909524
0.745348
0.570289
0.419664
0.298343
0.202863
0.135534
0.0833674
0.633471
0.657063
0.672693
0.697594
0.732746
0.768221
0.818268
0.867498
0.892924
0.907732
0.914406
0.917272
0.918272
0.913456
0.898024
0.881565
0.873411
0.868925
0.867109
0.866691
0.866866
0.870035
0.87156
0.87317
0.87382
0.87407
0.874162
0.873952
0.87308
0.870751
0.866503
0.859853
0.853849
0.851724
0.852261
0.864711
0.90721
0.959148
0.983949
0.993698
0.996465
0.997071
0.993768
0.979225
0.927283
0.863088
0.833793
0.821911
0.808799
0.789324
0.766622
0.745226
0.730997
0.698034
0.652058
0.622003
0.609613
0.605917
0.605311
0.633082
0.807265
0.871845
0.8779
0.877208
0.861209
0.794337
0.737163
0.7097
0.698661
0.69984
0.710799
0.729011
0.776476
0.823876
0.838192
0.838
0.810436
0.716565
0.507856
0.340884
0.274982
0.23645
0.204157
0.188615
0.183168
0.185948
0.199366
0.227477
0.285333
0.412904
0.533114
0.60937
0.643552
0.653803
0.654838
0.654024
0.653902
0.656364
0.664486
0.675881
0.685553
0.688661
0.687118
0.682382
0.678126
0.676286
0.676472
0.679046
0.684932
0.694957
0.710151
0.725043
0.731942
0.734076
0.734487
0.733174
0.733209
0.737776
0.750969
0.782975
0.82421
0.861977
0.89475
0.92179
0.942917
0.958794
0.970451
0.979045
0.985572
0.990765
0.994914
0.997549
0.998621
0.998735
0.99817
0.994366
0.989021
0.987552
0.98802
0.991545
0.996011
0.998091
0.998824
0.998918
0.998772
0.997998
0.995594
0.993272
0.992071
0.991772
0.992006
0.993499
0.995974
0.997661
0.998691
0.999281
0.999608
0.999787
0.999885
0.99994
0.999969
0.999985
0.999992
0.999994
0.999994
0.999992
0.999982
0.999947
0.999832
0.999464
0.998288
0.994455
0.981704
0.938614
0.80134
0.611128
0.449493
0.315757
0.217553
0.138638
0.638012
0.675371
0.700525
0.726582
0.767159
0.807996
0.851469
0.887244
0.90316
0.910652
0.913629
0.914319
0.907931
0.889536
0.877352
0.871382
0.869182
0.868613
0.86871
0.872046
0.874238
0.875267
0.875656
0.875817
0.875844
0.875832
0.875949
0.876465
0.877103
0.877868
0.878276
0.87755
0.87258
0.859661
0.849299
0.846749
0.855331
0.888003
0.952713
0.982782
0.994527
0.997839
0.998485
0.996292
0.984066
0.931214
0.862002
0.832936
0.819502
0.796309
0.767898
0.733504
0.693705
0.670715
0.644911
0.622609
0.610866
0.606615
0.608337
0.669838
0.845299
0.872848
0.876289
0.867253
0.820109
0.746978
0.709266
0.692161
0.687238
0.69476
0.709257
0.734197
0.794824
0.83211
0.842147
0.839014
0.805426
0.691392
0.4716
0.312182
0.245998
0.20951
0.184123
0.172972
0.169779
0.173706
0.184412
0.20725
0.249605
0.349401
0.494484
0.599712
0.654489
0.673436
0.677381
0.677698
0.678536
0.682622
0.696341
0.709266
0.715372
0.71522
0.712106
0.702282
0.694549
0.690074
0.687791
0.687002
0.687953
0.694007
0.710435
0.735442
0.758454
0.776403
0.7889
0.796299
0.801359
0.812613
0.843412
0.881324
0.910385
0.930738
0.944676
0.954548
0.961765
0.968146
0.974623
0.980538
0.985767
0.990267
0.993927
0.99671
0.998425
0.999069
0.99909
0.99851
0.995306
0.991853
0.991065
0.991558
0.994328
0.997351
0.99875
0.999259
0.999338
0.999261
0.998803
0.997345
0.995968
0.995295
0.995147
0.995275
0.996164
0.997678
0.998683
0.999283
0.999621
0.999804
0.9999
0.999949
0.999975
0.999988
0.999994
0.999997
0.999997
0.999997
0.999996
0.99999
0.999967
0.99989
0.99963
0.998751
0.995739
0.985278
0.948834
0.824436
0.629742
0.457279
0.325
0.214283
0.642959
0.686291
0.718043
0.742573
0.794922
0.829481
0.86771
0.894983
0.905209
0.909946
0.911329
0.9073
0.89138
0.877708
0.871873
0.869758
0.869322
0.870097
0.872991
0.87443
0.874933
0.875043
0.874651
0.873826
0.873391
0.873215
0.873186
0.873482
0.874189
0.875819
0.878296
0.880308
0.880971
0.87852
0.866037
0.847443
0.846129
0.8543
0.891963
0.956364
0.98494
0.995919
0.998796
0.999273
0.997531
0.985684
0.924018
0.858093
0.835055
0.821755
0.795007
0.751187
0.694854
0.652913
0.634568
0.621065
0.613628
0.614233
0.640128
0.780151
0.863702
0.872721
0.872979
0.855268
0.779567
0.71251
0.686786
0.677952
0.680186
0.693129
0.71109
0.754325
0.812027
0.839085
0.845901
0.841649
0.809974
0.704077
0.484489
0.320674
0.248112
0.209645
0.184558
0.171471
0.168241
0.170278
0.179852
0.202271
0.239379
0.319094
0.463212
0.585245
0.656277
0.687265
0.696193
0.697839
0.699328
0.704256
0.719048
0.73233
0.734537
0.733886
0.728922
0.714862
0.704684
0.700022
0.69834
0.697711
0.697559
0.698737
0.707471
0.733477
0.762313
0.785736
0.80191
0.816765
0.835894
0.865467
0.901726
0.933312
0.956319
0.971134
0.979899
0.985258
0.988079
0.988431
0.987951
0.987842
0.988975
0.99134
0.993923
0.996283
0.998054
0.99906
0.999362
0.999311
0.998606
0.995845
0.99391
0.99362
0.9942
0.996499
0.998389
0.999246
0.999553
0.999599
0.999546
0.999228
0.998348
0.997677
0.997399
0.997364
0.997442
0.997936
0.998766
0.999314
0.999636
0.999814
0.999908
0.999955
0.999979
0.99999
0.999995
0.999998
0.999999
0.999999
0.999999
0.999998
0.999993
0.999975
0.999912
0.999689
0.998902
0.99609
0.986023
0.950018
0.827309
0.62397
0.457992
0.312299
0.644096
0.699842
0.741961
0.757706
0.800128
0.845656
0.872991
0.895594
0.904453
0.907631
0.906099
0.897274
0.882487
0.874162
0.870866
0.869804
0.87033
0.872521
0.873972
0.874554
0.874755
0.874117
0.873064
0.872413
0.872137
0.872273
0.872463
0.872589
0.872743
0.873099
0.874196
0.878212
0.881397
0.881437
0.87835
0.862039
0.846744
0.847418
0.862384
0.918753
0.968036
0.989624
0.997418
0.999438
0.999702
0.998323
0.985733
0.911579
0.849894
0.834299
0.822732
0.803467
0.762791
0.705702
0.667507
0.650472
0.649562
0.679356
0.763139
0.841375
0.868212
0.871708
0.865545
0.825043
0.745343
0.699727
0.676025
0.670257
0.67418
0.690208
0.718198
0.769105
0.816846
0.840702
0.848138
0.845575
0.822857
0.741737
0.53226
0.354188
0.264986
0.218964
0.191725
0.176144
0.173834
0.176642
0.18821
0.216856
0.247607
0.309864
0.449298
0.575326
0.65435
0.695813
0.712959
0.718209
0.721432
0.728391
0.742278
0.74871
0.750262
0.750036
0.747185
0.735321
0.721664
0.713644
0.71007
0.709215
0.709406
0.710639
0.715244
0.732885
0.763158
0.788158
0.804057
0.821744
0.853362
0.891454
0.92568
0.95237
0.970988
0.982739
0.989359
0.993028
0.995257
0.996144
0.996157
0.995725
0.99472
0.994452
0.994906
0.996422
0.997893
0.998938
0.999451
0.999548
0.999429
0.998523
0.996438
0.995567
0.995547
0.99626
0.998028
0.999099
0.999581
0.999744
0.999762
0.999719
0.999476
0.999039
0.998793
0.99872
0.998724
0.998787
0.999066
0.999444
0.999694
0.99984
0.99992
0.999962
0.999982
0.999992
0.999996
0.999998
0.999999
0.999999
0.999999
0.999999
0.999998
0.999994
0.999978
0.999918
0.999699
0.998894
0.995929
0.985058
0.946009
0.809787
0.615088
0.433746
0.646685
0.698149
0.746658
0.776138
0.801101
0.845051
0.871239
0.893706
0.902563
0.904983
0.903706
0.897332
0.882926
0.874605
0.871176
0.87006
0.87053
0.872393
0.873828
0.874421
0.874389
0.873752
0.872164
0.871412
0.871458
0.871885
0.872306
0.872506
0.872637
0.872882
0.873563
0.876215
0.880708
0.881604
0.879841
0.868191
0.849935
0.8467
0.854299
0.898679
0.955891
0.984037
0.995069
0.998745
0.99976
0.999913
0.999123
0.985621
0.898845
0.844938
0.834022
0.825904
0.813839
0.788632
0.762319
0.747727
0.754941
0.789312
0.83372
0.860245
0.868214
0.867707
0.842872
0.776094
0.708048
0.677815
0.66747
0.664054
0.6679
0.684437
0.716422
0.767687
0.814732
0.839543
0.848168
0.847988
0.836821
0.790553
0.632726
0.426821
0.309636
0.24751
0.212617
0.19166
0.189928
0.194091
0.210185
0.246165
0.278124
0.334884
0.459377
0.581551
0.664105
0.711093
0.733019
0.740593
0.745313
0.753026
0.758264
0.760482
0.761082
0.761064
0.760372
0.756251
0.744489
0.735674
0.731223
0.729651
0.729588
0.730481
0.734666
0.748519
0.77337
0.79427
0.808451
0.832494
0.868636
0.906279
0.938238
0.961973
0.977964
0.987869
0.993367
0.996136
0.997624
0.998398
0.998593
0.998551
0.99825
0.997541
0.997241
0.997309
0.997959
0.998889
0.999453
0.999661
0.999662
0.999442
0.99833
0.997175
0.996881
0.996999
0.997863
0.99897
0.999543
0.999786
0.999859
0.999863
0.999824
0.999663
0.999511
0.999452
0.999446
0.999459
0.999531
0.999698
0.999824
0.999905
0.999951
0.999976
0.999989
0.999995
0.999998
0.999999
1
1
1
1
1
0.999998
0.999994
0.999977
0.999913
0.999671
0.998756
0.995318
0.982625
0.9358
0.790309
0.578179
0.64961
0.691345
0.743242
0.778997
0.799293
0.840896
0.866549
0.889161
0.899776
0.90313
0.902735
0.89878
0.886096
0.876586
0.872265
0.870649
0.870724
0.87154
0.873218
0.874046
0.874141
0.873979
0.873402
0.872554
0.872457
0.87251
0.872635
0.872703
0.872807
0.873039
0.873707
0.876174
0.880797
0.881966
0.879967
0.868566
0.850121
0.84625
0.852691
0.892663
0.951842
0.982147
0.994342
0.998436
0.999619
0.999927
0.999968
0.999247
0.980769
0.880715
0.84218
0.834992
0.831729
0.828684
0.817617
0.811649
0.819042
0.836926
0.854852
0.863689
0.866295
0.855508
0.82311
0.757905
0.695197
0.658912
0.648123
0.650924
0.656788
0.67419
0.708981
0.760208
0.807798
0.835604
0.84721
0.848207