/*--------------------------------*- C++ -*----------------------------------*\
  =========                 |
  \\      /  F ield         | OpenFOAM: The Open Source CFD Toolbox
   \\    /   O peration     | Website:  https://openfoam.org
    \\  /    A nd           | Version:  7
     \\/     M anipulation  |
\*---------------------------------------------------------------------------*/
FoamFile
{
    version     2.0;
    format      ascii;
    class       volVectorField;
    location    "0.083";
    object      U;
}
// * * * * * * * * * * * * * * * * * * * * * * * * * * * * * * * * * * * * * //

dimensions      [0 1 -1 0 0 0 0];

internalField   nonuniform List<vector> 
12225
(
(4.82867 0.185573 0)
(4.16654 0.113992 0)
(3.70777 0.102281 0)
(3.30731 0.0878472 0)
(2.92693 0.0731087 0)
(2.58575 0.0605472 0)
(2.28808 0.0523227 0)
(2.02243 0.0472913 0)
(1.78077 0.0418207 0)
(1.56071 0.0346408 0)
(1.36108 0.0277256 0)
(1.18364 0.0220148 0)
(1.02551 0.0176607 0)
(0.890756 0.0130314 0)
(0.765336 0.00949181 0)
(0.672137 0.006971 0)
(0.543471 0.00452228 0)
(0.502863 -0.00947172 0)
(5.01934 0.121414 0)
(4.87396 0.0817887 0)
(4.69828 0.0940138 0)
(4.56534 0.101119 0)
(4.46425 0.103497 0)
(4.37427 0.0989063 0)
(4.27772 0.091754 0)
(4.16912 0.0872116 0)
(4.05063 0.0863833 0)
(3.92386 0.0872837 0)
(3.78406 0.0867244 0)
(3.63922 0.084069 0)
(3.48989 0.0796669 0)
(3.35766 0.0760306 0)
(3.21953 0.0723535 0)
(3.10764 0.0720275 0)
(2.96018 0.0728164 0)
(2.84299 0.0694765 0)
(5.00047 0.165883 0)
(4.85445 0.134158 0)
(4.73138 0.156709 0)
(4.69043 0.140947 0)
(4.69673 0.119544 0)
(4.7047 0.107498 0)
(4.6916 0.105791 0)
(4.65873 0.110048 0)
(4.61889 0.115356 0)
(4.58009 0.119981 0)
(4.54087 0.122812 0)
(4.49925 0.123533 0)
(4.45372 0.120431 0)
(4.4069 0.115156 0)
(4.35664 0.110145 0)
(4.30207 0.107302 0)
(4.24237 0.111945 0)
(4.16836 0.119741 0)
(4.99561 0.174336 0)
(4.87975 0.142343 0)
(4.80424 0.142501 0)
(4.7673 0.127001 0)
(4.7508 0.114652 0)
(4.7368 0.109644 0)
(4.71971 0.109883 0)
(4.70157 0.111765 0)
(4.68697 0.112716 0)
(4.67789 0.112973 0)
(4.67462 0.113232 0)
(4.67543 0.113311 0)
(4.67929 0.112136 0)
(4.68109 0.110696 0)
(4.67948 0.111518 0)
(4.66687 0.115408 0)
(4.64766 0.126478 0)
(4.61228 0.140622 0)
(4.96927 0.217807 0)
(4.86841 0.161998 0)
(4.80049 0.155963 0)
(4.78084 0.142838 0)
(4.79189 0.123639 0)
(4.80036 0.111927 0)
(4.79313 0.110923 0)
(4.77444 0.115772 0)
(4.75554 0.120431 0)
(4.74359 0.122327 0)
(4.74009 0.121599 0)
(4.74232 0.119025 0)
(4.74778 0.115576 0)
(4.75194 0.11318 0)
(4.75398 0.11527 0)
(4.75019 0.122549 0)
(4.74268 0.137485 0)
(4.72842 0.157625 0)
(5.0153 0.206874 0)
(4.99719 0.182683 0)
(4.92069 0.163075 0)
(4.87367 0.138553 0)
(4.85982 0.121093 0)
(4.85218 0.117368 0)
(4.83911 0.121733 0)
(4.82087 0.125698 0)
(4.80404 0.125086 0)
(4.79382 0.121197 0)
(4.79056 0.116908 0)
(4.79058 0.113717 0)
(4.7902 0.111987 0)
(4.78588 0.112224 0)
(4.77771 0.116056 0)
(4.76591 0.124132 0)
(4.75368 0.13789 0)
(4.74176 0.157235 0)
(5.00571 0.258438 0)
(4.9554 0.209704 0)
(4.90414 0.181876 0)
(4.88851 0.152926 0)
(4.8807 0.130941 0)
(4.86639 0.121748 0)
(4.85054 0.123368 0)
(4.83715 0.128339 0)
(4.82805 0.12968 0)
(4.82338 0.12603 0)
(4.8217 0.120164 0)
(4.82098 0.115323 0)
(4.82078 0.113428 0)
(4.82029 0.115379 0)
(4.82009 0.122069 0)
(4.81837 0.133479 0)
(4.81663 0.150043 0)
(4.81214 0.171288 0)
(4.86577 0.197677 0)
(4.90824 0.193709 0)
(4.93436 0.170016 0)
(4.93425 0.144315 0)
(4.90998 0.131636 0)
(4.87997 0.130164 0)
(4.86082 0.132325 0)
(4.85496 0.132881 0)
(4.85612 0.130311 0)
(4.85605 0.126045 0)
(4.84968 0.12202 0)
(4.83714 0.119043 0)
(4.82347 0.117217 0)
(4.81279 0.117061 0)
(4.8083 0.120016 0)
(4.80863 0.12759 0)
(4.81412 0.140698 0)
(4.82087 0.160614 0)
(5.05606 0.223777 0)
(5.00083 0.202828 0)
(4.96404 0.173015 0)
(4.91441 0.156657 0)
(4.85841 0.149497 0)
(4.82703 0.142892 0)
(4.82486 0.135586 0)
(4.8331 0.129648 0)
(4.8383 0.126472 0)
(4.84009 0.125761 0)
(4.84363 0.125619 0)
(4.85276 0.124226 0)
(4.86837 0.1217 0)
(4.88726 0.120058 0)
(4.90535 0.122147 0)
(4.91814 0.129802 0)
(4.92582 0.14368 0)
(4.92712 0.163443 0)
(5.04379 0.321764 0)
(4.96794 0.231303 0)
(4.94685 0.195365 0)
(4.92427 0.1861 0)
(4.90927 0.169243 0)
(4.90835 0.147679 0)
(4.91054 0.133256 0)
(4.90092 0.129032 0)
(4.88033 0.129175 0)
(4.86073 0.127012 0)
(4.85157 0.120005 0)
(4.85439 0.110007 0)
(4.866 0.10117 0)
(4.88143 0.0976896 0)
(4.89627 0.101868 0)
(4.90831 0.114085 0)
(4.91654 0.132647 0)
(4.92367 0.155791 0)
(5.05429 0.347829 0)
(5.00948 0.2541 0)
(4.92532 0.189339 0)
(4.88176 0.165093 0)
(4.86994 0.149126 0)
(4.87506 0.140259 0)
(4.88594 0.139938 0)
(4.89265 0.142902 0)
(4.89313 0.142695 0)
(4.89079 0.136256 0)
(4.88797 0.124536 0)
(4.8852 0.111459 0)
(4.88327 0.101581 0)
(4.88301 0.0988222 0)
(4.88556 0.104306 0)
(4.89024 0.11759 0)
(4.89825 0.135822 0)
(4.90813 0.157141 0)
(5.02911 0.340359 0)
(5.04683 0.290289 0)
(5.01789 0.242994 0)
(5.00206 0.203315 0)
(4.98375 0.166473 0)
(4.9591 0.139382 0)
(4.9347 0.127936 0)
(4.91412 0.128951 0)
(4.90071 0.133753 0)
(4.89638 0.134743 0)
(4.89874 0.128922 0)
(4.90363 0.118184 0)
(4.90943 0.107007 0)
(4.9161 0.0997903 0)
(4.92591 0.099313 0)
(4.9384 0.106225 0)
(4.95598 0.118894 0)
(4.97496 0.136203 0)
(4.95944 0.348166 0)
(4.96953 0.27542 0)
(5.00503 0.215856 0)
(5.02178 0.181802 0)
(4.99144 0.168897 0)
(4.93472 0.16842 0)
(4.8832 0.16806 0)
(4.85344 0.161373 0)
(4.84825 0.148363 0)
(4.86173 0.131606 0)
(4.88406 0.11405 0)
(4.90666 0.0985651 0)
(4.9261 0.0876316 0)
(4.94224 0.0829778 0)
(4.95634 0.0851663 0)
(4.96993 0.0939167 0)
(4.98367 0.107427 0)
(4.99892 0.12507 0)
(4.92943 0.315148 0)
(4.95855 0.249222 0)
(4.99547 0.220051 0)
(4.98316 0.212749 0)
(4.93175 0.20712 0)
(4.89186 0.190389 0)
(4.88436 0.165625 0)
(4.89708 0.142328 0)
(4.91474 0.125386 0)
(4.93079 0.113845 0)
(4.94383 0.104683 0)
(4.95406 0.0961054 0)
(4.96236 0.0883668 0)
(4.96947 0.0834811 0)
(4.97574 0.08271 0)
(4.98207 0.0872221 0)
(4.98946 0.095607 0)
(4.99944 0.107713 0)
(5.03651 0.348713 0)
(4.97959 0.250919 0)
(4.99524 0.204665 0)
(5.01277 0.214541 0)
(5.01142 0.221731 0)
(4.99227 0.204124 0)
(4.9673 0.174258 0)
(4.94992 0.147111 0)
(4.94817 0.126334 0)
(4.96042 0.108809 0)
(4.97775 0.0919822 0)
(4.99189 0.077002 0)
(5.0002 0.0670406 0)
(5.00452 0.0643906 0)
(5.00819 0.0685975 0)
(5.01311 0.0778688 0)
(5.02095 0.0892127 0)
(5.03091 0.101078 0)
(4.87551 0.29132 0)
(4.90842 0.226027 0)
(4.9357 0.198515 0)
(4.96236 0.204126 0)
(4.97699 0.219845 0)
(4.98548 0.223276 0)
(4.99377 0.198398 0)
(5.00695 0.152745 0)
(5.02531 0.108839 0)
(5.04214 0.0829047 0)
(5.04866 0.0757567 0)
(5.04166 0.0787215 0)
(5.02596 0.0825251 0)
(5.0099 0.0825158 0)
(5.00054 0.0790203 0)
(5.00106 0.0754933 0)
(5.01099 0.0740439 0)
(5.0282 0.0777415 0)
(4.96607 0.226187 0)
(4.96558 0.177379 0)
(4.96108 0.173573 0)
(4.93132 0.179673 0)
(4.9205 0.19194 0)
(4.94233 0.185014 0)
(4.98102 0.153668 0)
(5.01495 0.11658 0)
(5.03323 0.0935732 0)
(5.03651 0.0901736 0)
(5.03178 0.0986037 0)
(5.02643 0.106904 0)
(5.02458 0.106345 0)
(5.02623 0.095027 0)
(5.02926 0.0765038 0)
(5.03199 0.0574785 0)
(5.03402 0.0426583 0)
(5.03572 0.0360075 0)
(5.01406 0.224678 0)
(4.99467 0.204084 0)
(4.98172 0.244781 0)
(4.95816 0.253798 0)
(4.95151 0.216095 0)
(4.96321 0.154438 0)
(4.97966 0.100535 0)
(4.99215 0.0734065 0)
(5.00307 0.07047 0)
(5.01799 0.0774813 0)
(5.03926 0.0826255 0)
(5.06494 0.0822864 0)
(5.09062 0.0780114 0)
(5.11146 0.073771 0)
(5.12479 0.0722367 0)
(5.12972 0.0737643 0)
(5.12881 0.0769433 0)
(5.12358 0.078565 0)
(5.02127 0.285086 0)
(4.99481 0.244889 0)
(4.99018 0.206988 0)
(5.01039 0.191239 0)
(5.05022 0.177371 0)
(5.0708 0.155971 0)
(5.06737 0.126099 0)
(5.06012 0.0918213 0)
(5.06268 0.0592494 0)
(5.07656 0.0334516 0)
(5.09736 0.0171552 0)
(5.1185 0.011014 0)
(5.13535 0.0138005 0)
(5.14643 0.0222878 0)
(5.15343 0.0326597 0)
(5.15756 0.0412354 0)
(5.16122 0.0459978 0)
(5.16427 0.045581 0)
(4.96392 0.280392 0)
(4.97847 0.260562 0)
(4.98561 0.207403 0)
(5.00272 0.157285 0)
(5.0401 0.134774 0)
(5.08662 0.125702 0)
(5.12411 0.107439 0)
(5.14678 0.0737748 0)
(5.15653 0.0354062 0)
(5.15696 0.00710199 0)
(5.15292 -0.00362583 0)
(5.14891 0.00154931 0)
(5.14728 0.0162184 0)
(5.14792 0.0333731 0)
(5.15138 0.0480281 0)
(5.15762 0.0579746 0)
(5.16666 0.0628942 0)
(5.178 0.0638975 0)
(5.08038 0.288646 0)
(5.04014 0.248094 0)
(5.0476 0.182972 0)
(5.06597 0.117548 0)
(5.08491 0.0758005 0)
(5.09191 0.0571168 0)
(5.09163 0.0528997 0)
(5.09309 0.0523416 0)
(5.09714 0.0476661 0)
(5.10006 0.0377741 0)
(5.10028 0.0267064 0)
(5.099 0.0189693 0)
(5.09854 0.0157322 0)
(5.10026 0.015443 0)
(5.1052 0.014904 0)
(5.11379 0.0121343 0)
(5.12606 0.00575061 0)
(5.14079 -0.00281119 0)
(5.09509 0.334869 0)
(5.02988 0.294377 0)
(5.02199 0.177085 0)
(5.02994 0.117355 0)
(5.05233 0.109789 0)
(5.0777 0.108076 0)
(5.09956 0.0898627 0)
(5.11875 0.0572166 0)
(5.13574 0.0242271 0)
(5.14976 0.00348154 0)
(5.16229 -0.00123842 0)
(5.17599 0.00551955 0)
(5.19193 0.0160856 0)
(5.2088 0.0242076 0)
(5.22429 0.026332 0)
(5.23611 0.0223822 0)
(5.24444 0.0137198 0)
(5.24907 0.00287525 0)
(4.94389 0.292942 0)
(5.0269 0.288992 0)
(5.09702 0.173928 0)
(5.14274 0.0778447 0)
(5.17142 0.0340669 0)
(5.19481 0.0194267 0)
(5.21064 0.0173222 0)
(5.21369 0.0181502 0)
(5.20417 0.0153471 0)
(5.18753 0.00657569 0)
(5.17195 -0.00636869 0)
(5.16492 -0.0186051 0)
(5.17031 -0.0257964 0)
(5.18619 -0.0263637 0)
(5.20857 -0.0221048 0)
(5.23271 -0.0167216 0)
(5.25642 -0.0135054 0)
(5.27726 -0.0159089 0)
(4.99463 0.194018 0)
(5.08109 0.18655 0)
(5.16201 0.128033 0)
(5.1991 0.0864724 0)
(5.19149 0.0781419 0)
(5.17662 0.076562 0)
(5.1794 0.069874 0)
(5.20345 0.0597076 0)
(5.24293 0.0490054 0)
(5.28711 0.0364795 0)
(5.32613 0.0211281 0)
(5.35501 0.00446306 0)
(5.3732 -0.0108562 0)
(5.38259 -0.0229407 0)
(5.38677 -0.0316684 0)
(5.38877 -0.0380461 0)
(5.39113 -0.0437761 0)
(5.39438 -0.0496811 0)
(4.98039 0.189589 0)
(5.03491 0.124869 0)
(5.08646 0.0712909 0)
(5.12795 0.0514041 0)
(5.16545 0.0413689 0)
(5.20811 0.0201081 0)
(5.2509 -0.00842426 0)
(5.2872 -0.0325022 0)
(5.31606 -0.0491372 0)
(5.33792 -0.0591098 0)
(5.35423 -0.06258 0)
(5.36694 -0.0598621 0)
(5.37797 -0.0523508 0)
(5.38804 -0.0424379 0)
(5.39685 -0.0333912 0)
(5.40334 -0.027857 0)
(5.40749 -0.0273554 0)
(5.40821 -0.0324253 0)
(5.03855 0.238801 0)
(5.11998 0.147527 0)
(5.25011 0.105201 0)
(5.33367 0.0709898 0)
(5.37163 0.0442534 0)
(5.39461 0.0254323 0)
(5.41535 0.0127075 0)
(5.43076 0.00743855 0)
(5.43944 0.00522817 0)
(5.4439 0.000742607 0)
(5.44601 -0.00819739 0)
(5.44715 -0.0196911 0)
(5.44921 -0.0303846 0)
(5.45348 -0.0378851 0)
(5.46094 -0.0417017 0)
(5.47044 -0.0428208 0)
(5.48162 -0.0427963 0)
(5.49156 -0.0434058 0)
(5.05127 0.130084 0)
(5.17552 -6.75508e-06 0)
(5.28548 -0.0274389 0)
(5.32469 -0.0114248 0)
(5.33363 -0.00547666 0)
(5.36132 -0.015567 0)
(5.40891 -0.0309068 0)
(5.45678 -0.0441194 0)
(5.49181 -0.0527862 0)
(5.51103 -0.0582127 0)
(5.51691 -0.0608872 0)
(5.51464 -0.0605607 0)
(5.51073 -0.0577549 0)
(5.51038 -0.0540697 0)
(5.51698 -0.0510585 0)
(5.52971 -0.0497048 0)
(5.54735 -0.0502811 0)
(5.56546 -0.0526672 0)
(5.03696 0.0956325 0)
(5.20222 0.070232 0)
(5.31601 0.0731459 0)
(5.37431 0.0571284 0)
(5.42009 0.0209729 0)
(5.46446 -0.0146823 0)
(5.49811 -0.0331403 0)
(5.51755 -0.0340295 0)
(5.52713 -0.0256045 0)
(5.53261 -0.017251 0)
(5.53814 -0.0145765 0)
(5.54627 -0.0188834 0)
(5.55848 -0.0284602 0)
(5.57489 -0.0406624 0)
(5.59449 -0.0523215 0)
(5.61505 -0.0612985 0)
(5.63466 -0.0664645 0)
(5.65087 -0.0676371 0)
(5.10461 -0.040251 0)
(5.26901 -0.0880229 0)
(5.38441 -0.054223 0)
(5.46256 -0.0498587 0)
(5.51825 -0.0535055 0)
(5.54916 -0.0578644 0)
(5.55229 -0.0599433 0)
(5.53934 -0.0598848 0)
(5.52789 -0.0596395 0)
(5.52665 -0.0609554 0)
(5.53308 -0.0640721 0)
(5.53976 -0.0681109 0)
(5.5396 -0.0720037 0)
(5.52937 -0.0752837 0)
(5.50812 -0.0774627 0)
(5.47914 -0.0784201 0)
(5.4441 -0.0779078 0)
(5.40884 -0.0761773 0)
(5.01031 0.0931101 0)
(5.15467 0.0224799 0)
(5.1162 0.017633 0)
(5.01108 -0.00204086 0)
(4.88676 -0.0195382 0)
(4.75269 -0.0269059 0)
(4.62183 -0.025589 0)
(4.50206 -0.0222793 0)
(4.3917 -0.0212387 0)
(4.28453 -0.0223966 0)
(4.17607 -0.0241259 0)
(4.06533 -0.025458 0)
(3.95305 -0.0263363 0)
(3.84078 -0.0269909 0)
(3.72946 -0.0273254 0)
(3.6219 -0.0272256 0)
(3.51795 -0.0265548 0)
(3.42227 -0.0256232 0)
(-0.0515495 0.168505 5.58836e-20)
(-0.176814 0.109676 -5.54573e-20)
(-0.268046 0.0768281 0)
(-0.311496 0.0248915 0)
(-0.29933 -0.0233034 0)
(-0.258975 -0.0589911 5.382e-20)
(-0.188099 -0.0904799 0)
(-0.0951018 -0.115735 0)
(0.0190513 -0.13346 0)
(0.147696 -0.141429 0)
(0.281437 -0.141765 -5.18055e-20)
(0.41322 -0.135646 0)
(0.53883 -0.124174 0)
(0.6535 -0.109011 0)
(0.753765 -0.0918481 0)
(0.838591 -0.0743719 -4.97398e-20)
(0.908908 -0.0580238 0)
(0.966623 -0.043879 0)
(1.01412 -0.032619 0)
(1.05379 -0.0244916 0)
(1.08817 -0.0194905 0)
(1.1196 -0.0172823 0)
(1.15028 -0.0174534 0)
(1.182 -0.019251 -4.66593e-20)
(1.2161 -0.0221901 4.62865e-20)
(1.25374 -0.0253025 -4.59147e-20)
(1.29492 -0.0284489 -4.55436e-20)
(1.34035 -0.0306547 0)
(1.38781 -0.0312233 0)
(1.43803 -0.0305593 4.44331e-20)
(1.48672 -0.0255447 4.40643e-20)
(1.53338 -0.0189401 0)
(1.57342 -0.00437266 0)
(1.60102 0.0107208 4.29677e-20)
(1.61836 0.0417078 0)
(1.59564 0.0766969 0)
(1.5612 0.119944 -4.18992e-20)
(1.4495 0.200393 0)
(1.30178 0.223191 -4.12121e-20)
(1.11312 0.399347 -8.17477e-20)
(0.696658 0.505231 0)
(0.352122 0.096789 0)
(0.233506 -0.35991 0)
(0.190237 -0.471089 0)
(0.152302 -0.270384 0)
(0.136227 -0.0240502 -7.75461e-20)
(0.147172 0.108115 -7.68137e-20)
(0.117742 0.136565 -7.60767e-20)
(0.0147036 0.115274 0)
(-0.135799 0.0971443 7.45576e-20)
(-0.308285 0.0954631 0)
(-0.483653 0.0941854 -7.29863e-20)
(-0.629865 0.0787238 -7.22336e-20)
(-0.718289 0.0494318 0)
(-0.736507 0.0172211 0)
(-0.688745 -0.0116665 0)
(-0.574265 -0.0357996 -6.95404e-20)
(-0.420716 -0.0541712 0)
(-0.292124 -0.0699604 0)
(-0.187407 -0.111549 0)
(-0.0143158 -0.173317 0)
(0.267043 -0.211857 0)
(0.583149 -0.130735 0)
(0.740508 0.0472127 0)
(0.614121 0.130827 0)
(0.526184 0.0378615 6.38107e-20)
(0.673445 -0.16832 0)
(0.899459 -0.376649 0)
(1.05682 -0.436691 -6.1792e-20)
(1.0267 -0.219015 -6.11186e-20)
(0.731133 0.106698 0)
(0.216328 0.303722 5.99408e-20)
(-0.363484 0.369762 -5.92538e-20)
(-0.959965 0.385556 0)
(-1.54492 0.378478 5.76603e-20)
(-2.09859 0.358099 0)
(-2.61289 0.330961 0)
(-3.0844 0.301033 -5.5148e-20)
(-3.51243 0.270417 0)
(-3.89727 0.240053 5.35024e-20)
(-4.23938 0.210368 0)
(-4.5389 0.181458 -5.19419e-20)
(-4.79555 0.153207 -5.12063e-20)
(-5.00887 0.12554 -5.05059e-20)
(-5.17853 0.0985252 -9.96876e-20)
(-5.30461 0.0724553 9.84428e-20)
(-5.38786 0.0478139 0)
(-5.42964 0.0251739 0)
(-5.43199 0.00495827 0)
(-5.40053 -0.0126987 9.42099e-20)
(-5.33833 -0.0281832 9.33064e-20)
(-5.2477 -0.0418137 -9.24493e-20)
(-5.13141 -0.0537896 0)
(-4.99198 -0.0642761 9.08384e-20)
(-4.83187 -0.0732674 9.00685e-20)
(-4.65388 -0.0807698 8.9313e-20)
(-4.46078 -0.0866918 0)
(-4.25583 -0.0909767 0)
(-4.04226 -0.0936186 0)
(-3.82339 -0.0946892 8.63247e-20)
(-3.60225 -0.0943926 0)
(-3.38143 -0.0929733 0)
(-3.16298 -0.0907123 -8.40277e-20)
(-2.94848 -0.087848 0)
(-2.73908 -0.0845714 0)
(-2.53551 -0.0810434 -8.16584e-20)
(-2.33814 -0.0774065 0)
(-2.14706 -0.0738099 0)
(-1.96204 -0.0704127 7.92324e-20)
(-1.78259 -0.0673339 7.84154e-20)
(-1.60798 -0.0646727 0)
(-1.43714 -0.0625632 -7.67754e-20)
(-1.26868 -0.0611072 0)
(-1.10102 -0.06032 7.51347e-20)
(-0.932628 -0.0601232 0)
(-0.762284 -0.060403 7.34995e-20)
(-0.589119 -0.060956 7.26841e-20)
(-0.412729 -0.0614815 0)
(-0.233589 -0.0617039 0)
(-0.0528454 -0.0612444 0)
(0.127638 -0.0598636 0)
(0.305305 -0.0575379 0)
(0.477566 -0.0542496 0)
(0.641847 -0.0500951 0)
(0.795865 -0.0452419 6.59371e-20)
(0.937787 -0.0399012 -6.50654e-20)
(1.06631 -0.0342912 0)
(1.18063 -0.0285866 0)
(1.28039 -0.0228836 0)
(1.36553 -0.0173067 0)
(1.43641 -0.0121156 -1.21446e-19)
(1.49385 -0.00733805 0)
(1.53851 -0.00270692 1.18031e-19)
(1.57094 0.00147664 -1.16341e-19)
(1.59261 0.00487508 0)
(1.60445 0.00846394 0)
(1.60541 0.0130464 0)
(1.59524 0.0181592 1.09716e-19)
(1.57361 0.023181 1.08092e-19)
(1.54072 0.0273719 0)
(1.49781 0.0300509 1.04882e-19)
(1.44701 0.0308023 1.03296e-19)
(1.39105 0.029701 -1.0172e-19)
(1.33286 0.0271686 0)
(1.27516 0.0237396 0)
(1.22016 0.0199556 -9.70588e-20)
(1.16941 0.0162653 0)
(1.12373 0.0129717 0)
(1.08337 0.0102244 0)
(1.04813 0.00804061 0)
(1.01759 0.00635042 8.94942e-20)
(0.991201 0.00504951 8.80102e-20)
(0.968424 0.00404059 0)
(0.948752 0.00325261 8.50698e-20)
(0.931728 0.00264225 0)
(0.916954 0.00218471 0)
(0.904068 0.00186394 8.07262e-20)
(0.89277 0.00166304 0)
(0.882771 0.00156202 7.78736e-20)
(0.873859 0.0015347 0)
(0.86579 0.00155891 0)
(0.858433 0.00161331 7.36577e-20)
(0.851537 0.00168938 0)
(0.845066 0.00177389 7.08878e-20)
(0.838676 0.00187389 0)
(0.832495 0.00197886 0)
(0.825932 0.00211518 0)
(0.819448 0.00226685 -6.54435e-20)
(0.811888 0.00250102 0)
(0.804387 0.00279083 6.27687e-20)
(0.7947 0.0032297 0)
(0.78505 0.00367827 0)
(0.771527 0.00446621 0)
(0.757354 0.00512916 0)
(0.73812 0.00675664 0)
(0.712956 0.0073512 0)
(0.690084 0.0114348 0)
(0.630825 0.0095972 -1.04832e-19)
(0.630157 0.0227607 0)
(0.461686 0.00874285 0)
(0.0416164 0.289248 -1.67701e-19)
(0.0673606 0.325732 1.66477e-19)
(0.094271 0.199975 0)
(0.129696 0.0443485 -1.09354e-19)
(0.183217 -0.0864532 0)
(0.253271 -0.180618 -5.38104e-20)
(0.346332 -0.254613 1.06796e-19)
(0.453262 -0.315789 1.05944e-19)
(0.568871 -0.362418 0)
(0.683378 -0.389088 1.0425e-19)
(0.790479 -0.394238 5.17131e-20)
(0.886722 -0.379067 0)
(0.97039 -0.347857 0)
(1.0399 -0.307155 0)
(1.09479 -0.263475 0)
(1.13594 -0.221754 4.96929e-20)
(1.16501 -0.185026 0)
(1.18402 -0.154835 -9.78167e-20)
(1.19533 -0.13145 0)
(1.20128 -0.114505 0)
(1.20415 -0.103529 9.55467e-20)
(1.20619 -0.0978002 0)
(1.20951 -0.0966591 -9.40572e-20)
(1.21609 -0.0992772 4.6655e-20)
(1.22715 -0.104791 -4.62846e-20)
(1.24406 -0.112162 4.59147e-20)
(1.26735 -0.120437 4.55451e-20)
(1.29763 -0.128511 0)
(1.3355 -0.134526 0)
(1.37996 -0.138007 -4.44364e-20)
(1.43177 -0.135567 4.40789e-20)
(1.48813 -0.12742 0)
(1.55064 -0.108966 0)
(1.61229 -0.0806413 -4.29641e-20)
(1.67717 -0.0386254 0)
(1.74001 0.0249307 0)
(1.7994 0.0957577 4.18744e-20)
(1.85375 0.20607 0)
(1.88626 0.305827 -4.11217e-20)
(1.92018 0.432386 8.15656e-20)
(1.92488 0.598481 0)
(1.92747 0.624075 0)
(1.82736 0.593364 1.58761e-19)
(1.44003 0.564828 1.57512e-19)
(0.995015 0.383322 1.56214e-19)
(0.714228 0.0470368 -7.74359e-20)
(0.478935 -0.091453 7.67381e-20)
(0.301091 0.0466207 2.28119e-19)
(0.175376 0.230387 -1.50635e-19)
(0.0677658 0.34286 -7.45658e-20)
(-0.0497765 0.378172 0)
(-0.175987 0.347095 7.30421e-20)
(-0.273842 0.250167 -7.22239e-20)
(-0.328279 0.10786 0)
(-0.353634 -0.0474865 0)
(-0.339567 -0.196366 0)
(-0.257425 -0.320135 6.95728e-20)
(-0.076883 -0.344876 0)
(0.131652 -0.24457 -1.36654e-19)
(0.304941 -0.235642 0)
(0.524059 -0.395279 -1.33982e-19)
(0.809002 -0.550509 0)
(1.08057 -0.470815 1.31345e-19)
(1.24274 -0.113402 0)
(1.33425 0.17764 -1.28699e-19)
(1.51155 -0.0388978 6.37204e-20)
(1.51532 -0.362739 0)
(1.04775 -0.137733 1.25043e-19)
(0.313677 0.339932 6.19203e-20)
(-0.403153 0.675916 6.12174e-20)
(-1.05594 0.892089 0)
(-1.64429 0.99314 5.95894e-20)
(-2.17384 1.00977 5.90134e-20)
(-2.65201 0.977454 0)
(-3.0822 0.917828 -5.74595e-20)
(-3.46836 0.844334 1.13041e-19)
(-3.81444 0.766215 0)
(-4.12456 0.68859 5.5018e-20)
(-4.4022 0.613755 0)
(-4.64994 0.542197 -1.60042e-19)
(-4.86914 0.473319 0)
(-5.05996 0.40599 1.55478e-19)
(-5.2217 0.339186 5.11573e-20)
(-5.35328 0.272525 -5.03237e-20)
(-5.45366 0.20631 -9.93608e-20)
(-5.5222 0.141265 9.8153e-20)
(-5.55903 0.0784852 0)
(-5.56509 0.0192695 0)
(-5.54172 -0.0351546 0)
(-5.48802 -0.0841867 -2.82432e-19)
(-5.40553 -0.128084 -9.32889e-20)
(-5.29706 -0.16704 9.24309e-20)
(-5.16465 -0.201382 0)
(-5.01072 -0.231288 9.07392e-20)
(-4.83766 -0.256799 -9.00485e-20)
(-4.64796 -0.277809 -8.92928e-20)
(-4.44459 -0.294138 0)
(-4.2306 -0.305637 0)
(-4.0094 -0.312328 0)
(-3.78423 -0.314492 -8.63061e-20)
(-3.55814 -0.312722 0)
(-3.33358 -0.307821 1.69532e-19)
(-3.11239 -0.300651 2.52e-19)
(-2.8959 -0.291945 -1.66428e-19)
(-2.68503 -0.282252 0)
(-2.48028 -0.272006 -8.16168e-20)
(-2.28187 -0.261574 0)
(-2.08971 -0.251326 -1.60046e-19)
(-1.9034 -0.241672 7.91992e-20)
(-1.72228 -0.232934 7.8384e-20)
(-1.54552 -0.225382 0)
(-1.37198 -0.219437 2.30284e-19)
(-1.20015 -0.215419 -1.51874e-19)
(-1.02835 -0.213387 -7.51295e-20)
(-0.854974 -0.213177 0)
(-0.678753 -0.214502 -7.34952e-20)
(-0.498631 -0.216737 -2.18018e-19)
(-0.314086 -0.218937 0)
(-0.125437 -0.220119 -1.42084e-19)
(0.0662923 -0.219116 -1.40424e-19)
(0.259109 -0.215595 -1.38724e-19)
(0.450375 -0.209154 0)
(0.637476 -0.199799 0)
(0.817681 -0.187846 0)
(0.98855 -0.173806 6.59076e-20)
(1.14809 -0.158288 6.50419e-20)
(1.29481 -0.141918 0)
(1.42775 -0.125246 1.26592e-19)
(1.54636 -0.108707 1.24853e-19)
(1.6505 -0.0926811 0)
(1.74046 -0.0775388 1.21401e-19)
(1.81665 -0.0634255 2.39368e-19)
(1.87994 -0.0502704 -1.17986e-19)
(1.93219 -0.0382424 -1.1629e-19)
(1.9747 -0.0274537 0)
(2.0083 -0.0173799 0)
(2.03579 -0.00752971 0)
(2.05877 0.00220008 -1.09667e-19)
(2.07759 0.0116981 1.08032e-19)
(2.09237 0.0207645 2.12839e-19)
(2.1028 0.0290246 -1.04818e-19)
(2.10829 0.0359556 1.03221e-19)
(2.10837 0.0410523 1.01646e-19)
(2.10281 0.0440021 0)
(2.09175 0.0447942 0)
(2.07579 0.0436928 -9.69749e-20)
(2.05586 0.0411471 0)
(2.03309 0.037669 0)
(2.00876 0.0337336 1.84815e-19)
(1.98407 0.0297205 0)
(1.96004 0.0258924 8.9415e-20)
(1.9374 0.0224004 -8.79318e-20)
(1.91656 0.0193071 0)
(1.89772 0.0166152 8.49963e-20)
(1.88086 0.0142935 0)
(1.86587 0.0122971 0)
(1.8526 0.0105794 -8.06578e-20)
(1.84093 0.00909854 1.58459e-19)
(1.8307 0.00782205 -7.78091e-20)
(1.82181 0.00672608 0)
(1.81415 0.00579848 0)
(1.80766 0.00503113 7.35984e-20)
(1.80219 0.00442864 0)
(1.79771 0.00398 7.08315e-20)
(1.79398 0.00370074 0)
(1.79105 0.00355717 0)
(1.78848 0.00360024 0)
(1.78652 0.00374374 6.53925e-20)
(1.78441 0.00415907 0)
(1.78272 0.00459234 -6.272e-20)
(1.78023 0.00558019 0)
(1.77772 0.00633833 0)
(1.77377 0.00842287 1.17541e-19)
(1.76828 0.00942677 -1.14941e-19)
(1.76192 0.0138542 0)
(1.74807 0.0144466 0)
(1.74088 0.0242511 0)
(1.70348 0.0217537 3.14222e-19)
(1.70842 0.0444021 0)
(1.60605 0.0329785 -1.99585e-19)
(0.0388111 -0.0361768 -7.06581e-23)
(0.141829 0.0259374 -2.22017e-19)
(0.253181 -0.0253732 0)
(0.366549 -0.133894 2.18569e-19)
(0.482601 -0.254853 0)
(0.599048 -0.369257 0)
(0.710014 -0.467042 3.85579e-23)
(0.80868 -0.54041 -1.05801e-19)
(0.887824 -0.581172 -1.0498e-19)
(0.942412 -0.585882 -1.04147e-19)
(0.972896 -0.559447 0)
(0.980236 -0.508603 0)
(0.967694 -0.44087 1.01745e-19)
(0.937633 -0.363695 2.01932e-19)
(0.893773 -0.284782 -2.00394e-19)
(0.841838 -0.210598 0)
(0.787241 -0.145939 -1.9737e-19)
(0.733417 -0.0936286 9.79444e-20)
(0.682773 -0.0548704 0)
(0.635507 -0.0299976 -1.92899e-19)
(0.59176 -0.0184554 -9.57089e-20)
(0.551528 -0.0185433 1.89952e-19)
(0.515868 -0.0279323 9.42357e-20)
(0.486477 -0.0444117 0)
(0.464433 -0.0662125 -1.85553e-19)
(0.451621 -0.091568 -1.84084e-19)
(0.449637 -0.11844 0)
(0.460385 -0.145023 -1.81137e-19)
(0.485459 -0.16944 0)
(0.52481 -0.190519 -1.78171e-19)
(0.580954 -0.205201 -8.83217e-20)
(0.651017 -0.212765 0)
(0.737984 -0.208532 0)
(0.838174 -0.192231 0)
(0.950479 -0.161636 0)
(1.07854 -0.107736 0)
(1.21153 -0.0408424 0)
(1.36191 0.0591624 -1.66224e-19)
(1.51572 0.170844 2.47085e-19)
(1.67087 0.287096 0)
(1.83637 0.433091 0)
(1.98115 0.50147 0)
(2.09179 0.521111 8.84684e-23)
(2.12506 0.61189 -1.572e-19)
(2.10168 0.701583 -3.11522e-19)
(2.04427 0.725477 3.08674e-19)
(1.82721 0.696259 1.52982e-19)
(1.48404 0.60304 -1.51623e-19)
(1.19324 0.499753 -3.57851e-24)
(0.979713 0.449048 -1.48781e-19)
(0.800024 0.432352 0)
(0.661294 0.390693 -1.45828e-19)
(0.559315 0.286581 3.46086e-23)
(0.480093 0.147239 0)
(0.408917 0.0076202 0)
(0.363271 -0.159035 1.4028e-19)
(0.376845 -0.409283 0)
(0.465369 -0.621767 0)
(0.606831 -0.623708 -1.3642e-19)
(0.81468 -0.623598 -2.70213e-19)
(1.10937 -0.817204 1.33759e-19)
(1.39828 -0.975919 0)
(1.59174 -0.749938 -1.31151e-19)
(1.69593 -0.286754 0)
(1.78741 -0.206996 -1.28323e-19)
(1.55444 -0.117662 -1.27415e-19)
(0.722853 0.491162 2.52519e-19)
(-0.234351 1.036 1.24863e-19)
(-0.99161 1.30038 0)
(-1.58503 1.44476 -2.43747e-19)
(-2.06593 1.52237 0)
(-2.45786 1.52848 -3.56667e-19)
(-2.78718 1.4792 -2.34538e-19)
(-3.07445 1.39435 -2.31469e-19)
(-3.33365 1.28983 2.28374e-19)
(-3.57455 1.17824 -3.38215e-19)
(-3.80276 1.06752 0)
(-4.02134 0.961746 0)
(-4.23139 0.861868 2.15869e-19)
(-4.43252 0.766772 3.19411e-19)
(-4.62283 0.67431 0)
(-4.79881 0.582196 -1.03613e-19)
(-4.95562 0.488722 0)
(-5.08802 0.393095 3.02047e-19)
(-5.19152 0.295741 3.81799e-22)
(-5.26279 0.198172 -3.58034e-22)
(-5.29988 0.102606 -1.94022e-19)
(-5.3023 0.0114721 0)
(-5.27119 -0.0734423 1.89941e-19)
(-5.2087 -0.151616 2.2446e-22)
(-5.11803 -0.222131 0)
(-5.00166 -0.28495 0)
(-4.86249 -0.340318 0)
(-4.70296 -0.388434 -1.81595e-19)
(-4.5257 -0.429364 0)
(-4.33338 -0.462874 0)
(-4.1289 -0.488637 0)
(-3.91541 -0.506376 0)
(-3.69618 -0.516067 0)
(-3.47441 -0.518156 -1.72516e-19)
(-3.25296 -0.51362 0)
(-3.03409 -0.50388 -1.69549e-19)
(-2.8194 -0.490497 -1.68005e-19)
(-2.60999 -0.474819 1.66444e-19)
(-2.40675 -0.457785 0)
(-2.21026 -0.440104 1.63278e-19)
(-2.02084 -0.422408 0)
(-1.83866 -0.405349 1.6006e-19)
(-1.66348 -0.38968 -1.58435e-19)
(-1.49465 -0.375949 -4.70329e-19)
(-1.33132 -0.364467 0)
(-1.17214 -0.355801 -4.60488e-19)
(-1.01527 -0.350381 -1.51802e-19)
(-0.85869 -0.348292 0)
(-0.700401 -0.349389 -2.97115e-19)
(-0.538882 -0.35314 -2.93845e-19)
(-0.372707 -0.358423 4.35912e-19)
(-0.201067 -0.363686 0)
(-0.0240286 -0.36674 1.42057e-19)
(0.157189 -0.366369 1.40381e-19)
(0.34073 -0.361657 4.15989e-19)
(0.52448 -0.351814 0)
(0.705997 -0.336855 0)
(0.882817 -0.31733 0)
(1.05263 -0.294148 1.31763e-19)
(1.21331 -0.26837 0)
(1.36302 -0.241014 0)
(1.50025 -0.212925 -1.26562e-19)
(1.62389 -0.184753 -1.24825e-19)
(1.73327 -0.157147 0)
(1.82794 -0.130787 0)
(1.90756 -0.10623 -2.39325e-19)
(1.97226 -0.0840558 0)
(2.02297 -0.0647417 2.32552e-19)
(2.06149 -0.0481291 2.29193e-19)
(2.09049 -0.0337831 0)
(2.11292 -0.0212538 0)
(2.13149 -0.00990117 -2.193e-19)
(2.1484 0.000488692 -8.47727e-24)
(2.16491 0.0102714 -8.03503e-24)
(2.1815 0.0192166 0)
(2.19788 0.0269909 -4.12852e-19)
(2.21319 0.0333329 0)
(2.22633 0.0380381 0)
(2.23621 0.0411065 0)
(2.242 0.0426425 1.93915e-19)
(2.24327 0.0427903 0)
(2.24004 0.0417303 -3.75593e-19)
(2.23276 0.0396697 -1.8477e-19)
(2.22215 0.0368447 0)
(2.20909 0.0335176 -1.78781e-19)
(2.19453 0.0299545 0)
(2.17936 0.0263915 0)
(2.16434 0.0230084 -5.09836e-19)
(2.15008 0.0199168 3.34074e-19)
(2.13699 0.0171654 0)
(2.1253 0.0147563 3.22546e-19)
(2.1151 0.0126628 -1.58416e-19)
(2.10638 0.0108464 0)
(2.09904 0.00926466 0)
(2.09295 0.00788423 0)
(2.08794 0.00667508 -4.41474e-19)
(2.08388 0.00563219 0)
(2.08061 0.00473767 -1.41626e-19)
(2.07806 0.00402139 0)
(2.07614 0.00344641 0)
(2.07491 0.00310298 0)
(2.07426 0.00287217 0)
(2.0744 0.00301881 0)
(2.07503 0.00319214 0)
(2.07669 0.00413785 -2.45513e-19)
(2.07833 0.00482936 0)
(2.08148 0.00726961 -1.1751e-19)
(2.08298 0.00849854 3.44723e-19)
(2.08757 0.0139012 0)
(2.08612 0.0152627 0)
(2.09292 0.0267838 -2.14426e-19)
(2.08229 0.0265769 -2.09409e-19)
(2.09504 0.0506738 2.04381e-19)
(2.06301 0.046035 1.99513e-19)
(-0.0168017 -0.107396 3.35857e-19)
(0.0742145 -0.164992 3.33334e-19)
(0.235307 -0.297857 2.2047e-19)
(0.403163 -0.446769 1.09394e-19)
(0.554186 -0.573832 0)
(0.668294 -0.663064 -2.15112e-19)
(0.737809 -0.707302 1.06749e-19)
(0.758338 -0.70729 0)
(0.73406 -0.660679 1.05024e-19)
(0.670893 -0.571307 0)
(0.573927 -0.45672 -2.06985e-19)
(0.459027 -0.335183 0)
(0.351861 -0.220811 -1.0194e-19)
(0.258934 -0.124106 -2.02356e-19)
(0.170228 -0.050916 2.00843e-19)
(0.0820936 -0.00247517 0)
(-0.00678505 0.025889 1.97789e-19)
(-0.0950609 0.0413512 0)
(-0.181371 0.0490151 0)
(-0.264834 0.0512669 1.93085e-19)
(-0.34387 0.0483332 0)
(-0.417684 0.0390998 -8.77432e-24)
(-0.484178 0.0222156 0)
(-0.541168 -0.00284524 0)
(-0.586662 -0.0361146 1.83458e-23)
(-0.617184 -0.0768692 1.8402e-19)
(-0.629635 -0.124095 1.8252e-19)
(-0.62251 -0.175587 1.81062e-19)
(-0.594907 -0.22861 0)
(-0.54546 -0.279811 3.56295e-19)
(-0.474306 -0.326183 0)
(-0.382428 -0.364538 1.75294e-19)
(-0.268383 -0.390752 0)
(-0.13604 -0.40319 0)
(0.0153917 -0.39787 -1.71062e-19)
(0.186765 -0.370697 0)
(0.3705 -0.325076 1.6807e-19)
(0.575379 -0.251573 -6.88307e-23)
(0.797273 -0.156823 -3.30064e-19)
(1.02541 -0.0511563 3.27076e-19)
(1.27079 0.0812531 0)
(1.51697 0.212108 0)
(1.74699 0.321773 1.5897e-19)
(1.95211 0.448915 0)
(2.12622 0.572509 1.5577e-19)
(2.26958 0.658129 -1.54234e-19)
(2.35251 0.740213 -1.52756e-19)
(2.36786 0.818207 0)
(2.33783 0.859589 1.49819e-19)
(2.25837 0.848077 1.48328e-19)
(2.13351 0.793016 -2.93747e-19)
(2.00208 0.688917 1.45374e-19)
(1.87767 0.53373 1.43941e-19)
(1.74516 0.340148 0)
(1.63456 0.102315 0)
(1.51396 -0.133354 -1.39957e-19)
(1.44224 -0.403132 0)
(1.42711 -0.690396 0)
(1.36313 -0.774039 2.72399e-19)
(1.40267 -0.864797 2.69796e-19)
(1.60686 -1.16558 0)
(1.76913 -1.24396 0)
(1.74579 -1.00581 0)
(1.55315 -0.409219 0)
(0.984761 0.462769 2.57165e-19)
(0.124517 1.20416 -2.54456e-19)
(-0.673574 1.66599 -2.52175e-19)
(-1.27537 1.86528 -4.98015e-19)
(-1.72657 1.93882 0)
(-2.08582 1.95356 5.66935e-22)
(-2.37199 1.92232 0)
(-2.60851 1.85423 2.37404e-19)
(-2.81533 1.75936 6.68011e-22)
(-3.00732 1.6485 2.314e-19)
(-3.1932 1.53027 -2.28341e-19)
(-3.37787 1.41124 6.37604e-22)
(-3.56396 1.29561 0)
(-3.75319 1.18535 -2.18437e-19)
(-3.94665 1.08006 -2.15899e-19)
(-4.14373 0.977552 -4.25089e-19)
(-4.34097 0.874394 0)
(-4.53156 0.766798 2.06295e-19)
(-4.70625 0.651501 0)
(-4.85499 0.526785 -4.0201e-19)
(-4.96878 0.394035 1.98709e-19)
(-5.04133 0.257547 -1.96316e-19)
(-5.06992 0.122537 1.9409e-19)
(-5.05556 -0.00655153 3.83224e-19)
(-5.0024 -0.127528 -1.90002e-19)