/*--------------------------------*- C++ -*----------------------------------*\
  =========                 |
  \\      /  F ield         | OpenFOAM: The Open Source CFD Toolbox
   \\    /   O peration     | Website:  https://openfoam.org
    \\  /    A nd           | Version:  7
     \\/     M anipulation  |
\*---------------------------------------------------------------------------*/
FoamFile
{
    version     2.0;
    format      ascii;
    class       volSymmTensorField;
    location    "0.083";
    object      UPrime2Mean;
}
// * * * * * * * * * * * * * * * * * * * * * * * * * * * * * * * * * * * * * //

dimensions      [0 2 -2 0 0 0 0];

internalField   nonuniform List<symmTensor> 
12225
(
(0.0043701 -0.000114235 0 0.000498589 0 0)
(0.025191 -0.00110114 0 0.000215689 0 0)
(0.0363317 -0.00161067 0 0.000185214 0 0)
(0.0483734 -0.00197361 0 0.000170778 0 0)
(0.0691697 -0.00246165 0 0.000164513 0 0)
(0.100041 -0.0030912 0 0.000163588 0 0)
(0.141231 -0.00385641 0 0.000173384 0 0)
(0.192995 -0.00444916 0 0.000161255 0 0)
(0.255391 -0.00538537 0 0.000174402 0 0)
(0.3278 -0.00519467 0 0.000134327 0 0)
(0.411728 -0.00696297 0 0.000161659 0 0)
(0.501042 -0.00453999 0 9.24748e-05 0 0)
(0.609638 -0.0106036 0 0.000235954 0 0)
(0.714786 -0.00118472 0 0.000163589 0 0)
(0.872018 -0.0249222 0 0.00112314 0 0)
(1.02617 0.0111493 0 0.00131787 0 0)
(1.32725 -0.0944936 0 0.0126827 0 0)
(1.8036 0.0348091 0 0.00615185 0 0)
(0.0041833 3.40168e-05 0 0.000653246 0 0)
(0.0171499 -0.000524128 0 0.000220579 0 0)
(0.0185664 -0.000867039 0 0.000251641 0 0)
(0.0189912 -0.00107689 0 0.00033276 0 0)
(0.0223487 -0.00150705 0 0.000434499 0 0)
(0.0284603 -0.00230235 0 0.000567105 0 0)
(0.0378119 -0.00343225 0 0.000705221 0 0)
(0.0518975 -0.0050431 0 0.000897992 0 0)
(0.0710754 -0.00676717 0 0.00101186 0 0)
(0.0988826 -0.00937588 0 0.00125541 0 0)
(0.133259 -0.0112829 0 0.00125944 0 0)
(0.182481 -0.0156466 0 0.00163274 0 0)
(0.237342 -0.0169877 0 0.00148174 0 0)
(0.320909 -0.0263859 0 0.00243037 0 0)
(0.405395 -0.0267837 0 0.00218438 0 0)
(0.561437 -0.0543539 0 0.00612716 0 0)
(0.704616 -0.0656892 0 0.00684833 0 0)
(1.02634 -0.185528 0 0.0435435 0 0)
(0.00397763 8.59653e-05 0 0.000857381 0 0)
(0.0167497 -0.000782793 0 0.000411402 0 0)
(0.0175503 -0.00122464 0 0.000452004 0 0)
(0.0169793 -0.0013521 0 0.000566371 0 0)
(0.0183041 -0.00158785 0 0.000719569 0 0)
(0.0205149 -0.00205063 0 0.000913981 0 0)
(0.0234708 -0.00275903 0 0.0011975 0 0)
(0.0273443 -0.00365216 0 0.00146763 0 0)
(0.0326062 -0.00492974 0 0.00188513 0 0)
(0.0396497 -0.00627396 0 0.0021573 0 0)
(0.049756 -0.00859707 0 0.00273117 0 0)
(0.0632733 -0.0105156 0 0.00290778 0 0)
(0.0830734 -0.0152984 0 0.00397686 0 0)
(0.109409 -0.0182687 0 0.00408875 0 0)
(0.148894 -0.0308299 0 0.00739643 0 0)
(0.202344 -0.0390498 0 0.00837919 0 0)
(0.279217 -0.0800935 0 0.0244361 0 0)
(0.378381 -0.134088 0 0.0506151 0 0)
(0.003864 -0.000220505 0 0.000967252 0 0)
(0.0166713 -0.0010144 0 0.000482587 0 0)
(0.0174442 -0.0013836 0 0.000516481 0 0)
(0.0167992 -0.00151892 0 0.000673115 0 0)
(0.0178818 -0.00175377 0 0.000861487 0 0)
(0.019665 -0.00221489 0 0.00110474 0 0)
(0.0219188 -0.00287301 0 0.0014024 0 0)
(0.0247328 -0.00372574 0 0.00180434 0 0)
(0.0281877 -0.00471779 0 0.00221965 0 0)
(0.0327456 -0.00606789 0 0.00278793 0 0)
(0.038687 -0.00766149 0 0.00332115 0 0)
(0.0470627 -0.0101858 0 0.00418981 0 0)
(0.0583481 -0.0133041 0 0.00507362 0 0)
(0.0747891 -0.0189856 0 0.00695048 0 0)
(0.0972872 -0.026988 0 0.00957517 0 0)
(0.1291 -0.0424853 0 0.016047 0 0)
(0.170353 -0.0695027 0 0.0300924 0 0)
(0.212391 -0.11227 0 0.0613049 0 0)
(0.00441518 -0.000191596 0 0.00109445 0 0)
(0.0163857 -0.00117299 0 0.000612311 0 0)
(0.0168622 -0.00153444 0 0.000643739 0 0)
(0.0162185 -0.00167265 0 0.000839863 0 0)
(0.0173381 -0.0019286 0 0.00107803 0 0)
(0.0190717 -0.00241948 0 0.00136183 0 0)
(0.0211864 -0.00313577 0 0.00174661 0 0)
(0.0237655 -0.00403763 0 0.00219788 0 0)
(0.0269544 -0.00518738 0 0.00279683 0 0)
(0.0310216 -0.00656946 0 0.00344038 0 0)
(0.0363604 -0.00853698 0 0.00433456 0 0)
(0.0434917 -0.0110598 0 0.00534837 0 0)
(0.0531419 -0.0150466 0 0.00702717 0 0)
(0.0662911 -0.0206145 0 0.00931539 0 0)
(0.0839441 -0.0300446 0 0.0137978 0 0)
(0.106631 -0.0447049 0 0.0218245 0 0)
(0.13297 -0.0683497 0 0.0380236 0 0)
(0.154713 -0.103952 0 0.0738298 0 0)
(0.0042473 -0.000260923 0 0.00118209 0 0)
(0.0164382 -0.00136471 0 0.000740358 0 0)
(0.0166899 -0.00168204 0 0.000790065 0 0)
(0.0159341 -0.00178529 0 0.00105264 0 0)
(0.0169106 -0.00204265 0 0.00136513 0 0)
(0.0184324 -0.00255551 0 0.00172848 0 0)
(0.0203094 -0.00330028 0 0.00217636 0 0)
(0.0226436 -0.00426449 0 0.00274529 0 0)
(0.0255596 -0.00547857 0 0.00343912 0 0)
(0.0292719 -0.00705126 0 0.00430701 0 0)
(0.0341137 -0.00916403 0 0.00539824 0 0)
(0.0404554 -0.0121154 0 0.00687987 0 0)
(0.0488807 -0.0163588 0 0.00900115 0 0)
(0.0598144 -0.022598 0 0.0122959 0 0)
(0.0738948 -0.0320938 0 0.0178568 0 0)
(0.0902525 -0.0461574 0 0.0275889 0 0)
(0.107551 -0.0668796 0 0.0455481 0 0)
(0.119435 -0.0932168 0 0.0769774 0 0)
(0.00354503 -0.000254332 0 0.00141342 0 0)
(0.015736 -0.00151371 0 0.00100612 0 0)
(0.015945 -0.0018242 0 0.00102418 0 0)
(0.0151952 -0.00194805 0 0.00130027 0 0)
(0.0161647 -0.0022354 0 0.00166359 0 0)
(0.0176297 -0.0027896 0 0.0020883 0 0)
(0.0193902 -0.00359541 0 0.00261971 0 0)
(0.0215355 -0.00463441 0 0.00328842 0 0)
(0.0241834 -0.00595147 0 0.0041396 0 0)
(0.0275219 -0.00764567 0 0.00521158 0 0)
(0.0318227 -0.00993095 0 0.00660063 0 0)
(0.0373484 -0.0130882 0 0.00849288 0 0)
(0.0444561 -0.0175515 0 0.0112046 0 0)
(0.0532797 -0.0239444 0 0.015379 0 0)
(0.0639546 -0.0330742 0 0.0219736 0 0)
(0.0753524 -0.0459088 0 0.0330454 0 0)
(0.0861713 -0.0627805 0 0.0508657 0 0)
(0.091937 -0.0824294 0 0.0795139 0 0)
(0.00365794 -0.000246059 0 0.00131545 0 0)
(0.0155244 -0.00166202 0 0.00100832 0 0)
(0.0156721 -0.00191289 0 0.00114286 0 0)
(0.0148658 -0.0019771 0 0.00149045 0 0)
(0.0157673 -0.00227306 0 0.00192983 0 0)
(0.0171335 -0.00285715 0 0.0024451 0 0)
(0.0187254 -0.00368491 0 0.00307871 0 0)
(0.0206158 -0.00475444 0 0.00388309 0 0)
(0.0229204 -0.00612715 0 0.00490682 0 0)
(0.0258022 -0.0079166 0 0.00621765 0 0)
(0.0294648 -0.0103146 0 0.00793001 0 0)
(0.034059 -0.0135756 0 0.0102673 0 0)
(0.0397575 -0.0180651 0 0.0135817 0 0)
(0.0464993 -0.0242426 0 0.018521 0 0)
(0.0541362 -0.0326389 0 0.0260065 0 0)
(0.0616022 -0.0436329 0 0.0376608 0 0)
(0.0678051 -0.0570009 0 0.0550906 0 0)
(0.0699542 -0.0713058 0 0.0807536 0 0)
(0.00436298 -0.000501214 0 0.00142695 0 0)
(0.0158203 -0.00204753 0 0.00121877 0 0)
(0.0155856 -0.00226719 0 0.00138238 0 0)
(0.0147668 -0.00228406 0 0.00176558 0 0)
(0.0156861 -0.00258463 0 0.00227889 0 0)
(0.016925 -0.00320424 0 0.00289434 0 0)
(0.0182843 -0.00407682 0 0.00364648 0 0)
(0.0198986 -0.00519071 0 0.0045942 0 0)
(0.0218748 -0.00660444 0 0.0058017 0 0)
(0.0243181 -0.00842972 0 0.00735978 0 0)
(0.0273498 -0.0108418 0 0.00939859 0 0)
(0.0310402 -0.0140677 0 0.0121721 0 0)
(0.0354379 -0.0183867 0 0.0160305 0 0)
(0.0403672 -0.0241082 0 0.0216054 0 0)
(0.0455571 -0.0314912 0 0.0296637 0 0)
(0.0500933 -0.0405604 0 0.0414767 0 0)
(0.0532344 -0.0508301 0 0.058029 0 0)
(0.0532599 -0.0609528 0 0.0806864 0 0)
(0.00381754 -0.000374398 0 0.00159059 0 0)
(0.0155259 -0.00203668 0 0.00132872 0 0)
(0.0153584 -0.00226063 0 0.00152289 0 0)
(0.0145138 -0.00224075 0 0.00195165 0 0)
(0.015325 -0.00251628 0 0.0025228 0 0)
(0.0164275 -0.0031285 0 0.00321766 0 0)
(0.0176246 -0.00400066 0 0.00407138 0 0)
(0.0190163 -0.00511505 0 0.00515014 0 0)
(0.0206795 -0.00652775 0 0.00653337 0 0)
(0.0226871 -0.0083414 0 0.00832884 0 0)
(0.0251123 -0.0107018 0 0.01068 0 0)
(0.0279592 -0.0137815 0 0.0138441 0 0)
(0.0311855 -0.0177719 0 0.0181604 0 0)
(0.0345569 -0.0228343 0 0.0241926 0 0)
(0.0377806 -0.0290348 0 0.0325476 0 0)
(0.0401477 -0.0361879 0 0.044163 0 0)
(0.0412484 -0.0437472 0 0.0595578 0 0)
(0.0400296 -0.0506042 0 0.0795283 0 0)
(0.00388571 -0.000396813 0 0.0018682 0 0)
(0.0154448 -0.0023483 0 0.00165624 0 0)
(0.014948 -0.00262164 0 0.00184381 0 0)
(0.0138503 -0.00253924 0 0.00231017 0 0)
(0.0145028 -0.00277697 0 0.00295651 0 0)
(0.0154871 -0.003376 0 0.003758 0 0)
(0.0165537 -0.00422777 0 0.00474077 0 0)
(0.0177589 -0.00529966 0 0.00597173 0 0)
(0.0191486 -0.00664171 0 0.0075344 0 0)
(0.0207656 -0.00834902 0 0.00955445 0 0)
(0.0226442 -0.0105433 0 0.012187 0 0)
(0.0247455 -0.0133429 0 0.0156799 0 0)
(0.0269859 -0.0168569 0 0.0203345 0 0)
(0.0291296 -0.0211273 0 0.0266238 0 0)
(0.030939 -0.026103 0 0.0349942 0 0)
(0.0319002 -0.0314947 0 0.0461067 0 0)
(0.0318566 -0.0368172 0 0.0601674 0 0)
(0.0301529 -0.04119 0 0.0776428 0 0)
(0.00382886 -0.00047047 0 0.0019061 0 0)
(0.0154015 -0.00239499 0 0.00173733 0 0)
(0.0148972 -0.0026732 0 0.00197183 0 0)
(0.0137333 -0.00257382 0 0.00248326 0 0)
(0.0142764 -0.00279929 0 0.0031884 0 0)
(0.0151082 -0.00339376 0 0.00407783 0 0)
(0.0159874 -0.00423277 0 0.00517339 0 0)
(0.0169649 -0.00526829 0 0.00653612 0 0)
(0.0180631 -0.00654163 0 0.00825984 0 0)
(0.019295 -0.00813459 0 0.0104729 0 0)
(0.0206623 -0.0101419 0 0.0133276 0 0)
(0.0220998 -0.012634 0 0.0170565 0 0)
(0.0235116 -0.0156554 0 0.0219177 0 0)
(0.024704 -0.0191711 0 0.0282998 0 0)
(0.0255076 -0.0230644 0 0.0365105 0 0)
(0.0255865 -0.0270258 0 0.0470155 0 0)
(0.0249241 -0.0306502 0 0.0598287 0 0)
(0.023092 -0.0332658 0 0.0752557 0 0)
(0.00368919 -0.000630903 0 0.00209884 0 0)
(0.0153777 -0.00259308 0 0.00199555 0 0)
(0.0147951 -0.00279508 0 0.00222532 0 0)
(0.013532 -0.00259387 0 0.00277932 0 0)
(0.0139509 -0.00274916 0 0.00354495 0 0)
(0.0146336 -0.00329268 0 0.00451593 0 0)
(0.0153238 -0.00406957 0 0.00571366 0 0)
(0.0160629 -0.00500997 0 0.00719612 0 0)
(0.0168662 -0.00614387 0 0.00905731 0 0)
(0.0177379 -0.00754141 0 0.0114244 0 0)
(0.0186604 -0.00927166 0 0.0144433 0 0)
(0.0195642 -0.0113672 0 0.0183199 0 0)
(0.0203506 -0.0138225 0 0.0232643 0 0)
(0.0208661 -0.0165576 0 0.0295855 0 0)
(0.0209902 -0.0194233 0 0.0374803 0 0)
(0.0205194 -0.0221342 0 0.0472783 0 0)
(0.01951 -0.0243545 0 0.0588774 0 0)
(0.0177077 -0.0255955 0 0.0725003 0 0)
(0.0038219 -0.000641699 0 0.00253492 0 0)
(0.0152992 -0.00274411 0 0.00246442 0 0)
(0.0145883 -0.00289948 0 0.00266224 0 0)
(0.0132524 -0.00261418 0 0.0032265 0 0)
(0.0135528 -0.00267498 0 0.00403651 0 0)
(0.0140442 -0.00311755 0 0.00507242 0 0)
(0.0144837 -0.00378288 0 0.00635657 0 0)
(0.0149228 -0.00458379 0 0.007949 0 0)
(0.0153704 -0.0055241 0 0.00993487 0 0)
(0.0158254 -0.00664941 0 0.0124332 0 0)
(0.0162767 -0.0080076 0 0.0155722 0 0)
(0.0166652 -0.00960133 0 0.0195264 0 0)
(0.0169059 -0.0113906 0 0.0244522 0 0)
(0.0168803 -0.0132581 0 0.0305764 0 0)
(0.0165136 -0.0150525 0 0.0379959 0 0)
(0.0157017 -0.0165151 0 0.0469305 0 0)
(0.0145603 -0.0174185 0 0.0571949 0 0)
(0.0129242 -0.0173934 0 0.0689734 0 0)
(0.00401742 -0.000427267 0 0.00260172 0 0)
(0.0152795 -0.00290011 0 0.0027175 0 0)
(0.0144349 -0.00310992 0 0.00299455 0 0)
(0.0130245 -0.00280997 0 0.0036346 0 0)
(0.0132532 -0.00283852 0 0.00451353 0 0)
(0.0136443 -0.00322046 0 0.0056192 0 0)
(0.0139423 -0.00378206 0 0.00698868 0 0)
(0.0141836 -0.00443321 0 0.00867693 0 0)
(0.0143779 -0.00517392 0 0.0107569 0 0)
(0.0145335 -0.00603218 0 0.0133292 0 0)
(0.0146389 -0.0070224 0 0.0164972 0 0)
(0.0146426 -0.00810842 0 0.0203949 0 0)
(0.0144785 -0.00922187 0 0.0251227 0 0)
(0.0140804 -0.0102354 0 0.0308341 0 0)
(0.013436 -0.0110247 0 0.0375441 0 0)
(0.0125195 -0.0113849 0 0.0453981 0 0)
(0.0114776 -0.0111887 0 0.0541717 0 0)
(0.0101962 -0.0101691 0 0.0640346 0 0)
(0.00427084 -0.000385226 0 0.00282955 0 0)
(0.015279 -0.00294368 0 0.00274272 0 0)
(0.0141282 -0.00317461 0 0.00297569 0 0)
(0.0124721 -0.00279237 0 0.00363806 0 0)
(0.0124693 -0.00271545 0 0.00455803 0 0)
(0.0126224 -0.00299426 0 0.00571562 0 0)
(0.0127218 -0.00343166 0 0.00713577 0 0)
(0.0128118 -0.00390316 0 0.0088725 0 0)
(0.0128548 -0.0043816 0 0.0109849 0 0)
(0.0128044 -0.00487491 0 0.0135476 0 0)
(0.0126399 -0.00538572 0 0.0166345 0 0)
(0.0123493 -0.00587257 0 0.0203402 0 0)
(0.0119295 -0.00627055 0 0.024714 0 0)
(0.0113826 -0.00646362 0 0.0298495 0 0)
(0.010738 -0.00636442 0 0.0357096 0 0)
(0.0100191 -0.00581506 0 0.0423904 0 0)
(0.00935633 -0.00477336 0 0.0496683 0 0)
(0.00866021 -0.00303607 0 0.057714 0 0)
(0.0042581 -0.000404049 0 0.00292991 0 0)
(0.0155937 -0.00313609 0 0.00282984 0 0)
(0.0143289 -0.00342065 0 0.00312014 0 0)
(0.0125261 -0.0029883 0 0.00383852 0 0)
(0.012378 -0.00282736 0 0.00478636 0 0)
(0.0123655 -0.00300326 0 0.00596797 0 0)
(0.0122802 -0.00329967 0 0.00740278 0 0)
(0.012172 -0.00356221 0 0.00911373 0 0)
(0.0120175 -0.00374759 0 0.0111373 0 0)
(0.011791 -0.0038665 0 0.0135319 0 0)
(0.0114864 -0.00392747 0 0.0163469 0 0)
(0.0111072 -0.00389329 0 0.0196409 0 0)
(0.0106629 -0.00370652 0 0.0234262 0 0)
(0.0101822 -0.00327037 0 0.0277571 0 0)
(0.00970175 -0.00252469 0 0.0325694 0 0)
(0.00927235 -0.00135842 0 0.0379342 0 0)
(0.00898984 0.000226199 0 0.0436398 0 0)
(0.00881273 0.00237452 0 0.0498617 0 0)
(0.00392971 -0.000477268 0 0.00311625 0 0)
(0.01531 -0.0031792 0 0.00321499 0 0)
(0.0140333 -0.00338802 0 0.00327491 0 0)
(0.0121191 -0.0029615 0 0.00379629 0 0)
(0.0117837 -0.00278964 0 0.00462636 0 0)
(0.011519 -0.002862 0 0.00570079 0 0)
(0.0111759 -0.00296282 0 0.00699224 0 0)
(0.0108629 -0.00296687 0 0.00850638 0 0)
(0.0105817 -0.00284643 0 0.0102731 0 0)
(0.0103088 -0.0026071 0 0.0123318 0 0)
(0.0100323 -0.00224625 0 0.0147052 0 0)
(0.00975445 -0.0017305 0 0.0174215 0 0)
(0.0094864 -0.00101562 0 0.0204723 0 0)
(0.00926785 -3.9281e-05 0 0.0238837 0 0)
(0.00913904 0.00123021 0 0.0275876 0 0)
(0.00916132 0.00285205 0 0.0316406 0 0)
(0.00940381 0.00480796 0 0.0358714 0 0)
(0.00984978 0.00717867 0 0.0404307 0 0)
(0.00400113 -0.000293628 0 0.0029339 0 0)
(0.0154687 -0.00282933 0 0.00291 0 0)
(0.0137664 -0.00298318 0 0.00290269 0 0)
(0.0116233 -0.00239697 0 0.0033897 0 0)
(0.0112261 -0.00198667 0 0.00411787 0 0)
(0.0108958 -0.00181256 0 0.00500625 0 0)
(0.0105004 -0.00167632 0 0.00605378 0 0)
(0.0101866 -0.0014389 0 0.00727466 0 0)
(0.00996465 -0.00104649 0 0.00867642 0 0)
(0.00981286 -0.000488889 0 0.0102662 0 0)
(0.00972645 0.00023191 0 0.0120444 0 0)
(0.00971816 0.00112651 0 0.0140232 0 0)
(0.00981149 0.00220975 0 0.0161907 0 0)
(0.0100536 0.00351292 0 0.0185617 0 0)
(0.0104809 0.00504409 0 0.0210826 0 0)
(0.0111444 0.00683908 0 0.0237949 0 0)
(0.0120834 0.00886867 0 0.0265757 0 0)
(0.0132873 0.0111907 0 0.0295386 0 0)
(0.00406389 -0.000440819 0 0.00334907 0 0)
(0.0148467 -0.00268328 0 0.0031564 0 0)
(0.0130043 -0.00267089 0 0.00300649 0 0)
(0.0108723 -0.00203712 0 0.00332948 0 0)
(0.0103939 -0.00156082 0 0.00385636 0 0)
(0.0100284 -0.00127929 0 0.00451417 0 0)
(0.00964859 -0.00103129 0 0.00529141 0 0)
(0.00937001 -0.000686431 0 0.00618523 0 0)
(0.00920786 -0.000181664 0 0.00719289 0 0)
(0.00916048 0.000494219 0 0.00831725 0 0)
(0.00923987 0.0013308 0 0.00956104 0 0)
(0.00946923 0.00232486 0 0.0109334 0 0)
(0.00987276 0.00347877 0 0.012423 0 0)
(0.0104877 0.00480892 0 0.0140352 0 0)
(0.0113422 0.00631443 0 0.015727 0 0)
(0.0124703 0.00801447 0 0.0175273 0 0)
(0.0138957 0.00988126 0 0.0193555 0 0)
(0.0156081 0.0119511 0 0.021282 0 0)
(0.00447808 -0.000368755 0 0.00295211 0 0)
(0.0152468 -0.00234404 0 0.00261434 0 0)
(0.0133767 -0.00220498 0 0.00236929 0 0)
(0.0112526 -0.00152706 0 0.00255191 0 0)
(0.0107474 -0.00102805 0 0.0029163 0 0)
(0.0103361 -0.000706581 0 0.00338963 0 0)
(0.00995612 -0.000403743 0 0.00394234 0 0)
(0.00974864 -8.76858e-06 0 0.00455825 0 0)
(0.00971655 0.000524907 0 0.0052335 0 0)
(0.00983763 0.00120384 0 0.00597547 0 0)
(0.0101183 0.00201884 0 0.006789 0 0)
(0.0105859 0.00296454 0 0.0076802 0 0)
(0.0112702 0.00403809 0 0.00864001 0 0)
(0.0122048 0.00524823 0 0.00967365 0 0)
(0.0134084 0.00659116 0 0.0107547 0 0)
(0.014906 0.00808106 0 0.0119046 0 0)
(0.0167133 0.00969433 0 0.013072 0 0)
(0.0188199 0.0114616 0 0.0143066 0 0)
(0.0037865 -0.000215279 0 0.0029096 0 0)
(0.0148708 -0.00204819 0 0.00218137 0 0)
(0.0130702 -0.00200797 0 0.00187119 0 0)
(0.0109271 -0.00141352 0 0.00198752 0 0)
(0.0103931 -0.000923136 0 0.0022682 0 0)
(0.00997096 -0.000591343 0 0.0026365 0 0)
(0.00959825 -0.000297278 0 0.00305792 0 0)
(0.00940828 7.04123e-05 0 0.003528 0 0)
(0.00941181 0.00057117 0 0.00404843 0 0)
(0.00960646 0.00121573 0 0.0046203 0 0)
(0.0100102 0.00198851 0 0.00523985 0 0)
(0.0106489 0.00287395 0 0.00590565 0 0)
(0.0115432 0.00386248 0 0.00660886 0 0)
(0.0127179 0.00495661 0 0.00735227 0 0)
(0.0141856 0.00615329 0 0.00811707 0 0)
(0.0159647 0.00746357 0 0.00892123 0 0)
(0.0180663 0.00886754 0 0.00972761 0 0)
(0.0204804 0.0103865 0 0.0105698 0 0)
(0.00422784 -0.000283673 0 0.00246989 0 0)
(0.0146732 -0.00185156 0 0.00200786 0 0)
(0.0127232 -0.00165591 0 0.00168927 0 0)
(0.0105611 -0.00103436 0 0.00165567 0 0)
(0.0100273 -0.000561879 0 0.00175927 0 0)
(0.00961054 -0.000248562 0 0.0019371 0 0)
(0.0092627 2.68782e-05 0 0.00215122 0 0)
(0.00914764 0.000356522 0 0.00238815 0 0)
(0.00928452 0.000784591 0 0.00265481 0 0)
(0.00965394 0.00131942 0 0.00296236 0 0)
(0.0102572 0.00195126 0 0.00331175 0 0)
(0.0111115 0.00266957 0 0.00369778 0 0)
(0.012239 0.00346907 0 0.00410998 0 0)
(0.0136643 0.00435226 0 0.00454864 0 0)
(0.0154065 0.0053152 0 0.00500166 0 0)
(0.0174755 0.00636122 0 0.00548237 0 0)
(0.0198859 0.0074763 0 0.00596826 0 0)
(0.022606 0.00867004 0 0.00647881 0 0)
(0.00435363 -0.000567321 0 0.00214629 0 0)
(0.014506 -0.00177191 0 0.00156846 0 0)
(0.0122195 -0.00133272 0 0.00133009 0 0)
(0.0101024 -0.000642108 0 0.00135546 0 0)
(0.00980929 -0.000159927 0 0.00147488 0 0)
(0.00962323 0.000148387 0 0.00163394 0 0)
(0.00946713 0.000423663 0 0.00180804 0 0)
(0.00954933 0.000761027 0 0.00199492 0 0)
(0.00993001 0.0011975 0 0.00219898 0 0)
(0.0105991 0.00173051 0 0.0024222 0 0)
(0.011545 0.00234471 0 0.00266196 0 0)
(0.0127729 0.00302739 0 0.00291779 0 0)
(0.0142988 0.00377092 0 0.00318793 0 0)
(0.016144 0.0045763 0 0.00347574 0 0)
(0.0183192 0.00543771 0 0.00377342 0 0)
(0.0208301 0.00635934 0 0.00409175 0 0)
(0.0236821 0.00732741 0 0.00441415 0 0)
(0.0268473 0.00835822 0 0.00474895 0 0)
(0.00448976 -0.000425596 0 0.00192419 0 0)
(0.0144559 -0.00148059 0 0.00126953 0 0)
(0.0120448 -0.00113289 0 0.000932917 0 0)
(0.00989319 -0.000619495 0 0.000885878 0 0)
(0.00955582 -0.000257587 0 0.000920231 0 0)
(0.00930752 -3.34807e-05 0 0.000958016 0 0)
(0.00911981 0.000143213 0 0.000998985 0 0)
(0.00921627 0.000350745 0 0.00106565 0 0)
(0.00963522 0.000630419 0 0.00116286 0 0)
(0.0103495 0.000987895 0 0.00128065 0 0)
(0.0113561 0.00140962 0 0.00140858 0 0)
(0.0126748 0.00188339 0 0.00154437 0 0)
(0.0143297 0.00240206 0 0.00168916 0 0)
(0.016335 0.00296446 0 0.00184627 0 0)
(0.0186913 0.00356664 0 0.00201127 0 0)
(0.0213866 0.0042102 0 0.00218915 0 0)
(0.0244211 0.00488571 0 0.00237022 0 0)
(0.0277516 0.00560604 0 0.00256024 0 0)
(0.0044471 -0.00030607 0 0.00191573 0 0)
(0.0143796 -0.00110098 0 0.00108363 0 0)
(0.0117521 -0.000905695 0 0.000729673 0 0)
(0.00960953 -0.000464236 0 0.000718367 0 0)
(0.00934754 -7.89941e-05 0 0.000756569 0 0)
(0.00922028 0.000180282 0 0.000784676 0 0)
(0.00925125 0.000383081 0 0.00080444 0 0)
(0.0096561 0.000597151 0 0.000830627 0 0)
(0.0104274 0.000856631 0 0.000871167 0 0)
(0.0114987 0.0011691 0 0.000923888 0 0)
(0.0128578 0.00152733 0 0.00098511 0 0)
(0.0145375 0.00192447 0 0.00105404 0 0)
(0.0165732 0.00235633 0 0.00113091 0 0)
(0.018982 0.00282244 0 0.00121793 0 0)
(0.0217636 0.00331896 0 0.00131273 0 0)
(0.0249023 0.00384789 0 0.00141916 0 0)
(0.028401 0.00440033 0 0.00153145 0 0)
(0.0322126 0.00498643 0 0.00165292 0 0)
(0.00362802 -0.00045205 0 0.0015364 0 0)
(0.0133913 -0.000662924 0 0.000708948 0 0)
(0.0108356 -0.000395404 0 0.000391501 0 0)
(0.00898045 -0.000144371 0 0.000348413 0 0)
(0.00896209 4.73853e-05 0 0.000335214 0 0)
(0.00903801 0.000150807 0 0.000330053 0 0)
(0.00925721 0.00021959 0 0.000340257 0 0)
(0.00983755 0.00030682 0 0.000360126 0 0)
(0.0107856 0.000433769 0 0.000383745 0 0)
(0.0120615 0.000598466 0 0.000409009 0 0)
(0.0136761 0.000792436 0 0.000436655 0 0)
(0.0156655 0.00100809 0 0.000468364 0 0)
(0.0180525 0.00124121 0 0.000505103 0 0)
(0.0208318 0.00149153 0 0.000548261 0 0)
(0.0239862 0.00175768 0 0.000596997 0 0)
(0.0274867 0.00204227 0 0.000653605 0 0)
(0.0313353 0.00233958 0 0.000715471 0 0)
(0.0354805 0.00265875 0 0.000783401 0 0)
(0.0046427 -0.000458221 0 0.00119029 0 0)
(0.0134163 -0.000814558 0 0.000501565 0 0)
(0.0105115 -0.000599415 0 0.000355696 0 0)
(0.0089219 -0.000279563 0 0.000325696 0 0)
(0.00910596 -5.87382e-05 0 0.000281683 0 0)
(0.00932957 6.64239e-05 0 0.000241854 0 0)
(0.00979678 0.000165714 0 0.000220454 0 0)
(0.0107486 0.000267565 0 0.000212083 0 0)
(0.0121458 0.000370284 0 0.000211295 0 0)
(0.0139037 0.000474261 0 0.000214756 0 0)
(0.0160061 0.00058614 0 0.000221818 0 0)
(0.0184803 0.000712266 0 0.000233715 0 0)
(0.0213459 0.000856107 0 0.000251721 0 0)
(0.0246029 0.00101816 0 0.000276261 0 0)
(0.028229 0.0011957 0 0.000306565 0 0)
(0.0322052 0.00138554 0 0.000343843 0 0)
(0.0365245 0.00158248 0 0.00038711 0 0)
(0.0411522 0.0017886 0 0.000436073 0 0)
(0.00361366 -0.000182836 0 0.00087702 0 0)
(0.0123243 3.45129e-05 0 0.00021107 0 0)
(0.00958099 -3.67198e-05 0 0.000130359 0 0)
(0.0082093 -1.69687e-06 0 0.000119376 0 0)
(0.00856614 -7.54098e-06 0 0.000120402 0 0)
(0.00895779 -4.99171e-05 0 0.000123838 0 0)
(0.00957989 -0.000101463 0 0.000127901 0 0)
(0.0106431 -0.000150732 0 0.00013312 0 0)
(0.0120734 -0.000194233 0 0.000140334 0 0)
(0.0137616 -0.00022911 0 0.000149272 0 0)
(0.0156666 -0.000251682 0 0.000159424 0 0)
(0.0178078 -0.000259131 0 0.000170734 0 0)
(0.0201961 -0.000248794 0 0.000183415 0 0)
(0.0228618 -0.000218974 0 0.000198018 0 0)
(0.025783 -0.000168837 0 0.00021441 0 0)
(0.0290021 -9.93411e-05 0 0.00023391 0 0)
(0.0324722 -1.14213e-05 0 0.000256648 0 0)
(0.0362733 9.60197e-05 0 0.000281744 0 0)
(0.0038306 -0.000298582 0 0.000714832 0 0)
(0.0131155 -4.17122e-05 0 0.000209397 0 0)
(0.0114485 1.83831e-05 0 0.000125638 0 0)
(0.0108681 8.43397e-05 0 9.21955e-05 0 0)
(0.0117887 0.000102449 0 7.37108e-05 0 0)
(0.0126586 0.000115725 0 6.17317e-05 0 0)
(0.0135275 0.00013343 0 5.35631e-05 0 0)
(0.0146016 0.000151297 0 4.85051e-05 0 0)
(0.015956 0.000166881 0 4.56436e-05 0 0)
(0.0176135 0.000182381 0 4.44593e-05 0 0)
(0.0195877 0.000202729 0 4.47122e-05 0 0)
(0.0218976 0.000232768 0 4.61747e-05 0 0)
(0.0245827 0.000275794 0 4.85548e-05 0 0)
(0.0276965 0.000332346 0 5.15613e-05 0 0)
(0.0313076 0.00040039 0 5.51647e-05 0 0)
(0.0354393 0.000477354 0 5.96752e-05 0 0)
(0.0401614 0.000561398 0 6.46537e-05 0 0)
(0.0454179 0.000655741 0 6.9527e-05 0 0)
(0.00255896 -0.00678116 1.23626e-22 0.0181985 -2.70938e-22 1.13189e-37)
(0.0288555 -0.0237019 -3.52667e-22 0.0198101 2.27431e-22 1.11605e-37)
(0.0764621 -0.032692 0 0.0148006 0 0)
(0.127108 -0.0318849 0 0.00965386 0 0)
(0.16685 -0.0241946 0 0.00634713 0 0)
(0.193285 -0.0160007 8.2088e-22 0.00583732 -5.33941e-23 1.05123e-37)
(0.212556 -0.0111123 0 0.00720923 0 0)
(0.230299 -0.0107735 0 0.00947882 0 0)
(0.256057 -0.0157621 0 0.0116104 0 0)
(0.297516 -0.02465 0 0.0131073 0 0)
(0.360616 -0.0358203 -8.90218e-22 0.0136097 5.55059e-24 9.73723e-38)
(0.44805 -0.0470583 0 0.0133475 0 0)
(0.558815 -0.0568494 0 0.0124568 0 0)
(0.68923 -0.06417 0 0.0111603 0 0)
(0.834032 -0.0683868 0 0.00968029 0 0)
(0.986925 -0.0692627 -9.82624e-22 0.00820527 5.60812e-23 9.00007e-38)
(1.14122 -0.0669006 0 0.00688502 0 0)
(1.29079 -0.0616633 0 0.00584278 0 0)
(1.43038 -0.0541171 0 0.00518202 0 0)
(1.55489 -0.0450806 0 0.00497987 0 0)
(1.66203 -0.0355326 0 0.00525894 0 0)
(1.75105 -0.0264749 0 0.00596149 0 0)
(1.82328 -0.0187046 0 0.00694328 0 0)
(1.88146 -0.0126507 -1.92389e-21 0.00799406 1.93662e-22 7.89869e-38)
(1.92868 -0.00823274 2.1248e-21 0.00890302 -2.03472e-22 7.76774e-38)
(1.9675 -0.00504892 -2.33741e-21 0.00956679 2.09128e-22 7.63828e-38)
(1.99928 -0.00243306 -2.55797e-21 0.0101958 2.11424e-22 7.51031e-38)
(2.02418 0.000166777 0 0.0112976 0 0)
(2.04097 0.00242412 0 0.0143279 0 0)
(2.0505 0.0033358 3.22482e-21 0.0201326 -1.8572e-22 7.13529e-38)
(2.05472 0.000489546 3.43207e-21 0.0295823 -1.61117e-22 7.01325e-38)
(2.06114 -0.00879187 0 0.0403294 0 0)
(2.07499 -0.0220515 0 0.0481572 0 0)
(2.09535 -0.0346694 4.0099e-21 0.0510783 -1.25899e-22 6.65597e-38)
(2.12426 -0.0450903 0 0.0502687 0 0)
(2.16918 -0.0588474 0 0.0509413 0 0)
(2.23761 -0.0795693 -4.58937e-21 0.0533155 1.35728e-22 6.31195e-38)
(2.32966 -0.102598 0 0.0549639 0 0)
(2.45381 -0.11788 -4.95984e-21 0.0536092 1.25013e-22 6.08992e-38)
(2.60698 -0.135775 -1.02745e-20 0.0564382 2.4828e-22 2.39244e-37)
(2.79673 -0.165615 0 0.0523375 0 0)
(3.02572 -0.176375 0 0.0479676 0 0)
(3.27027 -0.164128 0 0.0468317 0 0)
(3.51767 -0.150007 0 0.0413416 0 0)
(3.76561 -0.139761 0 0.0350534 0 0)
(4.0132 -0.126 -1.2095e-20 0.0337044 2.50701e-22 2.14333e-37)
(4.25071 -0.121522 -1.23366e-20 0.0339299 2.34512e-22 2.1038e-37)
(4.48185 -0.124319 -1.25499e-20 0.0299939 2.05403e-22 2.06484e-37)
(4.70105 -0.120034 0 0.0271949 0 0)
(4.89637 -0.110703 1.28864e-20 0.0254358 -1.68555e-22 1.98858e-37)
(5.06504 -0.100108 0 0.0240331 0 0)
(5.20551 -0.0892932 -1.31183e-20 0.0231229 1.38495e-22 1.91452e-37)
(5.321 -0.0777115 -1.31933e-20 0.0230937 1.28e-22 1.87831e-37)
(5.41663 -0.0679772 0 0.0236847 0 0)
(5.50065 -0.0628707 0 0.0238084 0 0)
(5.57974 -0.0616106 0 0.0232213 0 0)
(5.65463 -0.062362 -1.32381e-20 0.0221823 8.33361e-23 1.73879e-37)
(5.72144 -0.0636395 0 0.0210887 0 0)
(5.77988 -0.0634778 0 0.0205691 0 0)
(5.83334 -0.0606225 0 0.0209897 0 0)
(5.88086 -0.0546844 0 0.0221966 0 0)
(5.91471 -0.0454294 0 0.0235188 0 0)
(5.92812 -0.0373501 0 0.0246006 0 0)
(5.92558 -0.0389872 0 0.0252714 0 0)
(5.93095 -0.0494331 0 0.025816 0 0)
(5.96291 -0.0602451 1.27797e-20 0.0268848 -7.37291e-23 1.45481e-37)
(6.01968 -0.0665802 0 0.026785 0 0)
(6.09586 -0.0658557 0 0.0239327 0 0)
(6.18715 -0.0595652 -1.27084e-20 0.0192051 7.94266e-23 1.36889e-37)
(6.29265 -0.053903 -1.26911e-20 0.0154615 7.85527e-23 1.34118e-37)
(6.41539 -0.0537536 0 0.0134636 0 0)
(6.5583 -0.0569679 1.26487e-20 0.0117942 -6.81868e-23 1.2871e-37)
(6.71717 -0.0594597 -1.26171e-20 0.0101261 6.1213e-23 1.26073e-37)
(6.88438 -0.0599043 0 0.00861451 0 0)
(7.05237 -0.0582016 1.25219e-20 0.00729142 -4.62063e-23 1.2093e-37)
(7.21389 -0.0545002 0 0.0061485 0 0)
(7.3623 -0.0490598 0 0.00517484 0 0)
(7.49175 -0.0421978 -1.22608e-20 0.00435557 2.13985e-23 1.13535e-37)
(7.5973 -0.0342773 0 0.00367397 0 0)
(7.67531 -0.0256176 1.19797e-20 0.00310944 -4.25743e-24 1.08811e-37)
(7.72333 -0.0164464 0 0.00264141 0 0)
(7.73965 -0.00691587 -1.16004e-20 0.0022526 -1.2188e-23 1.04247e-37)
(7.72194 0.00283893 -1.13734e-20 0.00193042 -1.99727e-23 1.02023e-37)
(7.66945 0.0126453 -1.11223e-20 0.00166745 -2.73275e-23 9.98383e-38)
(7.58147 0.0223202 -2.16966e-20 0.00146037 -6.82769e-23 3.90765e-37)
(7.45839 0.0316392 2.11066e-20 0.0013081 8.0537e-23 3.82326e-37)
(7.30105 0.0403702 0 0.00120919 0 0)
(7.11131 0.0482783 0 0.00115934 0 0)
(6.89187 0.055189 0 0.00115098 0 0)
(6.64671 0.0610124 1.8443e-20 0.00117415 1.11519e-22 3.50023e-37)
(6.37914 0.0657298 1.77378e-20 0.0012188 1.14512e-22 3.42301e-37)
(6.09331 0.069331 -1.7032e-20 0.00127617 -1.15818e-22 3.34716e-37)
(5.79316 0.071852 0 0.00133847 0 0)
(5.48276 0.0733609 1.5646e-20 0.00139876 1.14155e-22 3.19949e-37)
(5.16573 0.0739681 1.49768e-20 0.00145202 1.11658e-22 3.12763e-37)
(4.84542 0.073801 1.43289e-20 0.00149459 1.08374e-22 3.05707e-37)
(4.52463 0.0729995 0 0.00152477 0 0)
(4.20577 0.071687 0 0.00154288 0 0)
(3.89078 0.0699597 0 0.00154945 0 0)
(3.58132 0.0678833 1.19927e-20 0.0015469 9.11014e-23 2.78738e-37)
(3.27891 0.0654802 0 0.00153583 0 0)
(2.98517 0.062759 0 0.00151769 0 0)
(2.70178 0.0597012 -1.05318e-20 0.00149128 -7.59767e-23 2.59778e-37)
(2.43054 0.0563073 0 0.0014558 0 0)
(2.17325 0.0525885 0 0.00140911 0 0)
(1.93157 0.0485965 -9.33174e-21 0.00135034 -5.94148e-23 2.41849e-37)
(1.7069 0.0444057 0 0.00127891 0 0)
(1.50015 0.0401221 0 0.00119642 0 0)
(1.31173 0.0358605 8.38411e-21 0.00110564 4.28705e-23 2.24903e-37)
(1.14158 0.0317268 8.1182e-21 0.00100984 3.77666e-23 2.19465e-37)
(0.989256 0.0278128 0 0.000913055 0 0)
(0.853942 0.0241655 -7.64978e-21 0.000817309 -2.85362e-23 2.08896e-37)
(0.734546 0.0208379 0 0.000726684 0 0)
(0.629861 0.0178335 7.25262e-21 0.00064244 2.07465e-23 1.98725e-37)
(0.538609 0.0151382 0 0.000565197 0 0)
(0.459575 0.0127418 6.91272e-21 0.000495984 1.43247e-23 1.88939e-37)
(0.391626 0.0106081 6.76067e-21 0.00043357 1.15617e-23 1.84187e-37)
(0.333689 0.00870679 0 0.000377001 0 0)
(0.284804 0.00701571 0 0.000325509 0 0)
(0.244099 0.00551306 0 0.00027806 0 0)
(0.210752 0.00419283 0 0.000234677 0 0)
(0.183973 0.00304682 0 0.000195227 0 0)
(0.162974 0.00206791 0 0.000159827 0 0)
(0.146983 0.00124776 0 0.000128736 0 0)
(0.135253 0.000575799 5.84397e-21 0.000102208 -2.87859e-24 1.49353e-37)
(0.127076 3.87643e-05 -5.75583e-21 8.03611e-05 3.92119e-24 1.45376e-37)
(0.121804 -0.000379021 0 6.31105e-05 0 0)
(0.118857 -0.000694511 0 5.02028e-05 0 0)
(0.117732 -0.000924216 0 4.12648e-05 0 0)
(0.118006 -0.00108401 0 3.58664e-05 0 0)
(0.119332 -0.00118905 -1.07344e-20 3.34236e-05 1.43979e-23 5.06628e-37)
(0.121439 -0.00125294 0 3.32703e-05 0 0)
(0.124117 -0.00128684 1.04596e-20 3.49368e-05 -1.54872e-23 4.7876e-37)
(0.127214 -0.00130024 -1.03278e-20 3.80196e-05 1.5761e-23 4.65253e-37)
(0.130623 -0.00130049 0 4.2022e-05 0 0)
(0.134271 -0.0012925 0 4.65536e-05 0 0)
(0.138114 -0.0012808 0 5.11269e-05 0 0)
(0.142136 -0.00126938 9.8272e-21 5.48543e-05 -1.5084e-23 4.13966e-37)
(0.146335 -0.00125951 9.70631e-21 5.66533e-05 -1.43941e-23 4.01807e-37)
(0.150715 -0.00124881 0 5.56425e-05 0 0)
(0.155272 -0.00123181 9.4661e-21 5.15245e-05 -1.24598e-23 3.78256e-37)
(0.15998 -0.00120201 9.34586e-21 4.48084e-05 -1.13092e-23 3.66855e-37)
(0.164785 -0.00115461 -9.22501e-21 3.66387e-05 1.01159e-23 3.55698e-37)
(0.169611 -0.00108833 0 2.82888e-05 0 0)
(0.174366 -0.00100576 0 2.07679e-05 0 0)
(0.178957 -0.000912326 -8.85671e-21 1.46382e-05 6.80807e-24 3.23656e-37)