# vtk DataFile Version 2.0
sampleSurface
ASCII
DATASET POLYDATA
POINTS 502 double
-0.0206 0 -0.0005
-0.0190172 0 -0.0005
-0.0190172 0 0.0005
-0.0206 0 0.0005
-0.0174976 0 -0.0005
-0.0174976 0 0.0005
-0.0160387 0 -0.0005
-0.0160387 0 0.0005
-0.0146381 0 -0.0005
-0.0146381 0 0.0005
-0.0132934 0 -0.0005
-0.0132934 0 0.0005
-0.0120025 0 -0.0005
-0.0120025 0 0.0005
-0.0107632 0 -0.0005
-0.0107632 0 0.0005
-0.00957337 0 -0.0005
-0.00957337 0 0.0005
-0.00843108 0 -0.0005
-0.00843108 0 0.0005
-0.00733443 0 -0.0005
-0.00733443 0 0.0005
-0.0062816 0 -0.0005
-0.0062816 0 0.0005
-0.00527083 0 -0.0005
-0.00527083 0 0.0005
-0.00430044 0 -0.0005
-0.00430044 0 0.0005
-0.00336883 0 -0.0005
-0.00336883 0 0.0005
-0.00247443 0 -0.0005
-0.00247443 0 0.0005
-0.00161577 0 -0.0005
-0.00161577 0 0.0005
-0.000791418 0 -0.0005
-0.000791418 0 0.0005
0 0 -0.0005
0 0 0.0005
0 -0.0254 -0.0005
0 -0.0254 0.0005
0 -0.0242711 0.0005
0 -0.0242711 -0.0005
0 -0.0231422 0.0005
0 -0.0231422 -0.0005
0 -0.0220133 0.0005
0 -0.0220133 -0.0005
0 -0.0208844 0.0005
0 -0.0208844 -0.0005
0 -0.0197556 0.0005
0 -0.0197556 -0.0005
0 -0.0186267 0.0005
0 -0.0186267 -0.0005
0 -0.0174978 0.0005
0 -0.0174978 -0.0005
0 -0.0163689 0.0005
0 -0.0163689 -0.0005
0 -0.01524 0.0005
0 -0.01524 -0.0005
0 -0.0141111 0.0005
0 -0.0141111 -0.0005
0 -0.0129822 0.0005
0 -0.0129822 -0.0005
0 -0.0118533 0.0005
0 -0.0118533 -0.0005
0 -0.0107244 0.0005
0 -0.0107244 -0.0005
0 -0.00959556 0.0005
0 -0.00959556 -0.0005
0 -0.00846667 0.0005
0 -0.00846667 -0.0005
0 -0.00726604 0.0005
0 -0.00726604 -0.0005
0 -0.00618989 0.0005
0 -0.00618989 -0.0005
0 -0.00522531 0.0005
0 -0.00522531 -0.0005
0 -0.00436073 0.0005
0 -0.00436073 -0.0005
0 -0.00358579 0.0005
0 -0.00358579 -0.0005
0 -0.00289118 0.0005
0 -0.00289118 -0.0005
0 -0.0022686 0.0005
0 -0.0022686 -0.0005
0 -0.00171055 0.0005
0 -0.00171055 -0.0005
0 -0.00121037 0.0005
0 -0.00121037 -0.0005
0 -0.000762037 0.0005
0 -0.000762037 -0.0005
0 -0.000360188 0.0005
0 -0.000360188 -0.0005
0.000528387 -0.0254 -0.0005
0.000528387 -0.0254 0.0005
0.00106088 -0.0254 -0.0005
0.00106088 -0.0254 0.0005
0.00159752 -0.0254 -0.0005
0.00159752 -0.0254 0.0005
0.00213833 -0.0254 -0.0005
0.00213833 -0.0254 0.0005
0.00268334 -0.0254 -0.0005
0.00268334 -0.0254 0.0005
0.00323259 -0.0254 -0.0005
0.00323259 -0.0254 0.0005
0.00378611 -0.0254 -0.0005
0.00378611 -0.0254 0.0005
0.00434393 -0.0254 -0.0005
0.00434393 -0.0254 0.0005
0.00490609 -0.0254 -0.0005
0.00490609 -0.0254 0.0005
0.00547262 -0.0254 -0.0005
0.00547262 -0.0254 0.0005
0.00604356 -0.0254 -0.0005
0.00604356 -0.0254 0.0005
0.00661893 -0.0254 -0.0005
0.00661893 -0.0254 0.0005
0.00719878 -0.0254 -0.0005
0.00719878 -0.0254 0.0005
0.00778313 -0.0254 -0.0005
0.00778313 -0.0254 0.0005
0.00837203 -0.0254 -0.0005
0.00837203 -0.0254 0.0005
0.00896551 -0.0254 -0.0005
0.00896551 -0.0254 0.0005
0.0095636 -0.0254 -0.0005
0.0095636 -0.0254 0.0005
0.0101663 -0.0254 -0.0005
0.0101663 -0.0254 0.0005
0.0107738 -0.0254 -0.0005
0.0107738 -0.0254 0.0005
0.0113859 -0.0254 -0.0005
0.0113859 -0.0254 0.0005
0.0120028 -0.0254 -0.0005
0.0120028 -0.0254 0.0005
0.0126245 -0.0254 -0.0005
0.0126245 -0.0254 0.0005
0.0132511 -0.0254 -0.0005
0.0132511 -0.0254 0.0005
0.0138825 -0.0254 -0.0005
0.0138825 -0.0254 0.0005
0.0145188 -0.0254 -0.0005
0.0145188 -0.0254 0.0005
0.0151601 -0.0254 -0.0005
0.0151601 -0.0254 0.0005
0.0158063 -0.0254 -0.0005
0.0158063 -0.0254 0.0005
0.0164576 -0.0254 -0.0005
0.0164576 -0.0254 0.0005
0.0171139 -0.0254 -0.0005
0.0171139 -0.0254 0.0005
0.0177754 -0.0254 -0.0005
0.0177754 -0.0254 0.0005
0.018442 -0.0254 -0.0005
0.018442 -0.0254 0.0005
0.0191137 -0.0254 -0.0005
0.0191137 -0.0254 0.0005
0.0197907 -0.0254 -0.0005
0.0197907 -0.0254 0.0005
0.020473 -0.0254 -0.0005
0.020473 -0.0254 0.0005
0.0211606 -0.0254 -0.0005
0.0211606 -0.0254 0.0005
0.0218535 -0.0254 -0.0005
0.0218535 -0.0254 0.0005
0.0225517 -0.0254 -0.0005
0.0225517 -0.0254 0.0005
0.0232555 -0.0254 -0.0005
0.0232555 -0.0254 0.0005
0.0239647 -0.0254 -0.0005
0.0239647 -0.0254 0.0005
0.0246794 -0.0254 -0.0005
0.0246794 -0.0254 0.0005
0.0253996 -0.0254 -0.0005
0.0253996 -0.0254 0.0005
0.0261255 -0.0254 -0.0005
0.0261255 -0.0254 0.0005
0.026857 -0.0254 -0.0005
0.026857 -0.0254 0.0005
0.0275942 -0.0254 -0.0005
0.0275942 -0.0254 0.0005
0.0283371 -0.0254 -0.0005
0.0283371 -0.0254 0.0005
0.0290858 -0.0254 -0.0005
0.0290858 -0.0254 0.0005
0.0298403 -0.0254 -0.0005
0.0298403 -0.0254 0.0005
0.0306007 -0.0254 -0.0005
0.0306007 -0.0254 0.0005
0.031367 -0.0254 -0.0005
0.031367 -0.0254 0.0005
0.0321393 -0.0254 -0.0005
0.0321393 -0.0254 0.0005
0.0329175 -0.0254 -0.0005
0.0329175 -0.0254 0.0005
0.0337019 -0.0254 -0.0005
0.0337019 -0.0254 0.0005
0.0344923 -0.0254 -0.0005
0.0344923 -0.0254 0.0005
0.0352888 -0.0254 -0.0005
0.0352888 -0.0254 0.0005
0.0360916 -0.0254 -0.0005
0.0360916 -0.0254 0.0005
0.0369006 -0.0254 -0.0005
0.0369006 -0.0254 0.0005
0.0377158 -0.0254 -0.0005
0.0377158 -0.0254 0.0005
0.0385375 -0.0254 -0.0005
0.0385375 -0.0254 0.0005
0.0393655 -0.0254 -0.0005
0.0393655 -0.0254 0.0005
0.0401999 -0.0254 -0.0005
0.0401999 -0.0254 0.0005
0.0410408 -0.0254 -0.0005
0.0410408 -0.0254 0.0005
0.0418883 -0.0254 -0.0005
0.0418883 -0.0254 0.0005
0.0427424 -0.0254 -0.0005
0.0427424 -0.0254 0.0005
0.0436031 -0.0254 -0.0005
0.0436031 -0.0254 0.0005
0.0444704 -0.0254 -0.0005
0.0444704 -0.0254 0.0005
0.0453446 -0.0254 -0.0005
0.0453446 -0.0254 0.0005
0.0462255 -0.0254 -0.0005
0.0462255 -0.0254 0.0005
0.0471133 -0.0254 -0.0005
0.0471133 -0.0254 0.0005
0.048008 -0.0254 -0.0005
0.048008 -0.0254 0.0005
0.0489096 -0.0254 -0.0005
0.0489096 -0.0254 0.0005
0.0498183 -0.0254 -0.0005
0.0498183 -0.0254 0.0005
0.050734 -0.0254 -0.0005
0.050734 -0.0254 0.0005
0.0516568 -0.0254 -0.0005
0.0516568 -0.0254 0.0005
0.0525868 -0.0254 -0.0005
0.0525868 -0.0254 0.0005
0.053524 -0.0254 -0.0005
0.053524 -0.0254 0.0005
0.0544686 -0.0254 -0.0005
0.0544686 -0.0254 0.0005
0.0554204 -0.0254 -0.0005
0.0554204 -0.0254 0.0005
0.0563797 -0.0254 -0.0005
0.0563797 -0.0254 0.0005
0.0573464 -0.0254 -0.0005
0.0573464 -0.0254 0.0005
0.0583206 -0.0254 -0.0005
0.0583206 -0.0254 0.0005
0.0593025 -0.0254 -0.0005
0.0593025 -0.0254 0.0005
0.0602919 -0.0254 -0.0005
0.0602919 -0.0254 0.0005
0.0612891 -0.0254 -0.0005
0.0612891 -0.0254 0.0005
0.0622939 -0.0254 -0.0005
0.0622939 -0.0254 0.0005
0.0633067 -0.0254 -0.0005
0.0633067 -0.0254 0.0005
0.0643272 -0.0254 -0.0005
0.0643272 -0.0254 0.0005
0.0653557 -0.0254 -0.0005
0.0653557 -0.0254 0.0005
0.0663923 -0.0254 -0.0005
0.0663923 -0.0254 0.0005
0.0674368 -0.0254 -0.0005
0.0674368 -0.0254 0.0005
0.0684895 -0.0254 -0.0005
0.0684895 -0.0254 0.0005
0.0695504 -0.0254 -0.0005
0.0695504 -0.0254 0.0005
0.0706195 -0.0254 -0.0005
0.0706195 -0.0254 0.0005
0.0716969 -0.0254 -0.0005
0.0716969 -0.0254 0.0005
0.0727828 -0.0254 -0.0005
0.0727828 -0.0254 0.0005
0.073877 -0.0254 -0.0005
0.073877 -0.0254 0.0005
0.0749798 -0.0254 -0.0005
0.0749798 -0.0254 0.0005
0.0760911 -0.0254 -0.0005
0.0760911 -0.0254 0.0005
0.0772111 -0.0254 -0.0005
0.0772111 -0.0254 0.0005
0.0783398 -0.0254 -0.0005
0.0783398 -0.0254 0.0005
0.0794772 -0.0254 -0.0005
0.0794772 -0.0254 0.0005
0.0806235 -0.0254 -0.0005
0.0806235 -0.0254 0.0005
0.0817787 -0.0254 -0.0005
0.0817787 -0.0254 0.0005
0.0829429 -0.0254 -0.0005
0.0829429 -0.0254 0.0005
0.0841162 -0.0254 -0.0005
0.0841162 -0.0254 0.0005
0.0852985 -0.0254 -0.0005
0.0852985 -0.0254 0.0005
0.0864901 -0.0254 -0.0005
0.0864901 -0.0254 0.0005
0.0876909 -0.0254 -0.0005
0.0876909 -0.0254 0.0005
0.0889011 -0.0254 -0.0005
0.0889011 -0.0254 0.0005
0.0901207 -0.0254 -0.0005
0.0901207 -0.0254 0.0005
0.0913497 -0.0254 -0.0005
0.0913497 -0.0254 0.0005
0.0925883 -0.0254 -0.0005
0.0925883 -0.0254 0.0005
0.0938366 -0.0254 -0.0005
0.0938366 -0.0254 0.0005
0.0950945 -0.0254 -0.0005
0.0950945 -0.0254 0.0005
0.0963622 -0.0254 -0.0005
0.0963622 -0.0254 0.0005
0.0976398 -0.0254 -0.0005
0.0976398 -0.0254 0.0005
0.0989273 -0.0254 -0.0005
0.0989273 -0.0254 0.0005
0.100225 -0.0254 -0.0005
0.100225 -0.0254 0.0005
0.101532 -0.0254 -0.0005
0.101532 -0.0254 0.0005
0.10285 -0.0254 -0.0005
0.10285 -0.0254 0.0005
0.104178 -0.0254 -0.0005
0.104178 -0.0254 0.0005
0.105517 -0.0254 -0.0005
0.105517 -0.0254 0.0005
0.106865 -0.0254 -0.0005
0.106865 -0.0254 0.0005
0.108225 -0.0254 -0.0005
0.108225 -0.0254 0.0005
0.109594 -0.0254 -0.0005
0.109594 -0.0254 0.0005
0.110975 -0.0254 -0.0005
0.110975 -0.0254 0.0005
0.112366 -0.0254 -0.0005
0.112366 -0.0254 0.0005
0.113768 -0.0254 -0.0005
0.113768 -0.0254 0.0005
0.115181 -0.0254 -0.0005
0.115181 -0.0254 0.0005
0.116605 -0.0254 -0.0005
0.116605 -0.0254 0.0005
0.11804 -0.0254 -0.0005
0.11804 -0.0254 0.0005
0.119486 -0.0254 -0.0005
0.119486 -0.0254 0.0005
0.120943 -0.0254 -0.0005
0.120943 -0.0254 0.0005
0.122412 -0.0254 -0.0005
0.122412 -0.0254 0.0005
0.123892 -0.0254 -0.0005
0.123892 -0.0254 0.0005
0.125384 -0.0254 -0.0005
0.125384 -0.0254 0.0005
0.126887 -0.0254 -0.0005
0.126887 -0.0254 0.0005
0.128402 -0.0254 -0.0005
0.128402 -0.0254 0.0005
0.129928 -0.0254 -0.0005
0.129928 -0.0254 0.0005
0.131467 -0.0254 -0.0005
0.131467 -0.0254 0.0005
0.133017 -0.0254 -0.0005
0.133017 -0.0254 0.0005
0.13458 -0.0254 -0.0005
0.13458 -0.0254 0.0005
0.136155 -0.0254 -0.0005
0.136155 -0.0254 0.0005
0.137742 -0.0254 -0.0005
0.137742 -0.0254 0.0005
0.139341 -0.0254 -0.0005
0.139341 -0.0254 0.0005
0.140953 -0.0254 -0.0005
0.140953 -0.0254 0.0005
0.142577 -0.0254 -0.0005
0.142577 -0.0254 0.0005
0.144214 -0.0254 -0.0005
0.144214 -0.0254 0.0005
0.145863 -0.0254 -0.0005
0.145863 -0.0254 0.0005
0.147526 -0.0254 -0.0005
0.147526 -0.0254 0.0005
0.149201 -0.0254 -0.0005
0.149201 -0.0254 0.0005
0.15089 -0.0254 -0.0005
0.15089 -0.0254 0.0005
0.152591 -0.0254 -0.0005
0.152591 -0.0254 0.0005
0.154306 -0.0254 -0.0005
0.154306 -0.0254 0.0005
0.156034 -0.0254 -0.0005
0.156034 -0.0254 0.0005
0.157775 -0.0254 -0.0005
0.157775 -0.0254 0.0005
0.159531 -0.0254 -0.0005
0.159531 -0.0254 0.0005
0.161299 -0.0254 -0.0005
0.161299 -0.0254 0.0005
0.163082 -0.0254 -0.0005
0.163082 -0.0254 0.0005
0.164878 -0.0254 -0.0005
0.164878 -0.0254 0.0005
0.166688 -0.0254 -0.0005
0.166688 -0.0254 0.0005
0.168513 -0.0254 -0.0005
0.168513 -0.0254 0.0005
0.170351 -0.0254 -0.0005
0.170351 -0.0254 0.0005
0.172204 -0.0254 -0.0005
0.172204 -0.0254 0.0005
0.174071 -0.0254 -0.0005
0.174071 -0.0254 0.0005
0.175953 -0.0254 -0.0005
0.175953 -0.0254 0.0005
0.177849 -0.0254 -0.0005
0.177849 -0.0254 0.0005
0.17976 -0.0254 -0.0005
0.17976 -0.0254 0.0005
0.181686 -0.0254 -0.0005
0.181686 -0.0254 0.0005
0.183627 -0.0254 -0.0005
0.183627 -0.0254 0.0005
0.185583 -0.0254 -0.0005
0.185583 -0.0254 0.0005
0.187555 -0.0254 -0.0005
0.187555 -0.0254 0.0005
0.189541 -0.0254 -0.0005
0.189541 -0.0254 0.0005
0.191543 -0.0254 -0.0005
0.191543 -0.0254 0.0005
0.193561 -0.0254 -0.0005
0.193561 -0.0254 0.0005
0.195594 -0.0254 -0.0005
0.195594 -0.0254 0.0005
0.197643 -0.0254 -0.0005
0.197643 -0.0254 0.0005
0.199708 -0.0254 -0.0005
0.199708 -0.0254 0.0005
0.201789 -0.0254 -0.0005
0.201789 -0.0254 0.0005
0.203886 -0.0254 -0.0005
0.203886 -0.0254 0.0005
0.206 -0.0254 -0.0005
0.206 -0.0254 0.0005
0.208047 -0.0251856 -0.0005
0.208047 -0.0251856 0.0005
0.210173 -0.0249628 -0.0005
0.210173 -0.0249628 0.0005
0.212382 -0.0247314 -0.0005
0.212382 -0.0247314 0.0005
0.214677 -0.024491 -0.0005
0.214677 -0.024491 0.0005
0.217061 -0.0242412 -0.0005
0.217061 -0.0242412 0.0005
0.219538 -0.0239817 -0.0005
0.219538 -0.0239817 0.0005
0.222112 -0.0237121 -0.0005
0.222112 -0.0237121 0.0005
0.224785 -0.023432 -0.0005
0.224785 -0.023432 0.0005
0.227563 -0.023141 -0.0005
0.227563 -0.023141 0.0005
0.230449 -0.0228387 -0.0005
0.230449 -0.0228387 0.0005
0.233447 -0.0225246 -0.0005
0.233447 -0.0225246 0.0005
0.236562 -0.0221983 -0.0005
0.236562 -0.0221983 0.0005
0.239797 -0.0218593 -0.0005
0.239797 -0.0218593 0.0005
0.243159 -0.0215071 -0.0005
0.243159 -0.0215071 0.0005
0.246652 -0.0211412 -0.0005
0.246652 -0.0211412 0.0005
0.250281 -0.0207611 -0.0005
0.250281 -0.0207611 0.0005
0.254051 -0.0203661 -0.0005
0.254051 -0.0203661 0.0005
0.257967 -0.0199558 -0.0005
0.257967 -0.0199558 0.0005
0.262036 -0.0195295 -0.0005
0.262036 -0.0195295 0.0005
0.266264 -0.0190867 -0.0005
0.266264 -0.0190867 0.0005
0.270655 -0.0186266 -0.0005
0.270655 -0.0186266 0.0005
0.275218 -0.0181486 -0.0005
0.275218 -0.0181486 0.0005
0.279959 -0.017652 -0.0005
0.279959 -0.017652 0.0005
0.284883 -0.017136 -0.0005
0.284883 -0.017136 0.0005
0.29 -0.0166 -0.0005
0.29 -0.0166 0.0005

POLYGONS 250 1250
4 0 1 2 3
4 1 4 5 2
4 4 6 7 5
4 6 8 9 7
4 8 10 11 9
4 10 12 13 11
4 12 14 15 13
4 14 16 17 15
4 16 18 19 17
4 18 20 21 19
4 20 22 23 21
4 22 24 25 23
4 24 26 27 25
4 26 28 29 27
4 28 30 31 29
4 30 32 33 31
4 32 34 35 33
4 34 36 37 35
4 38 39 40 41
4 41 40 42 43
4 43 42 44 45
4 45 44 46 47
4 47 46 48 49
4 49 48 50 51
4 51 50 52 53
4 53 52 54 55
4 55 54 56 57
4 57 56 58 59
4 59 58 60 61
4 61 60 62 63
4 63 62 64 65
4 65 64 66 67
4 67 66 68 69
4 69 68 70 71
4 71 70 72 73
4 73 72 74 75
4 75 74 76 77
4 77 76 78 79
4 79 78 80 81
4 81 80 82 83
4 83 82 84 85
4 85 84 86 87
4 87 86 88 89
4 89 88 90 91
4 91 90 37 36
4 38 92 93 39
4 92 94 95 93
4 94 96 97 95
4 96 98 99 97
4 98 100 101 99
4 100 102 103 101
4 102 104 105 103
4 104 106 107 105
4 106 108 109 107
4 108 110 111 109
4 110 112 113 111
4 112 114 115 113
4 114 116 117 115
4 116 118 119 117
4 118 120 121 119
4 120 122 123 121
4 122 124 125 123
4 124 126 127 125
4 126 128 129 127
4 128 130 131 129
4 130 132 133 131
4 132 134 135 133
4 134 136 137 135
4 136 138 139 137
4 138 140 141 139
4 140 142 143 141
4 142 144 145 143
4 144 146 147 145
4 146 148 149 147
4 148 150 151 149
4 150 152 153 151
4 152 154 155 153
4 154 156 157 155
4 156 158 159 157
4 158 160 161 159
4 160 162 163 161
4 162 164 165 163
4 164 166 167 165
4 166 168 169 167
4 168 170 171 169
4 170 172 173 171
4 172 174 175 173
4 174 176 177 175
4 176 178 179 177
4 178 180 181 179
4 180 182 183 181
4 182 184 185 183
4 184 186 187 185
4 186 188 189 187
4 188 190 191 189
4 190 192 193 191
4 192 194 195 193
4 194 196 197 195
4 196 198 199 197
4 198 200 201 199
4 200 202 203 201
4 202 204 205 203
4 204 206 207 205
4 206 208 209 207
4 208 210 211 209
4 210 212 213 211
4 212 214 215 213
4 214 216 217 215
4 216 218 219 217
4 218 220 221 219
4 220 222 223 221
4 222 224 225 223
4 224 226 227 225
4 226 228 229 227
4 228 230 231 229
4 230 232 233 231
4 232 234 235 233
4 234 236 237 235
4 236 238 239 237
4 238 240 241 239
4 240 242 243 241
4 242 244 245 243
4 244 246 247 245
4 246 248 249 247
4 248 250 251 249
4 250 252 253 251
4 252 254 255 253
4 254 256 257 255
4 256 258 259 257
4 258 260 261 259
4 260 262 263 261
4 262 264 265 263
4 264 266 267 265
4 266 268 269 267
4 268 270 271 269
4 270 272 273 271
4 272 274 275 273
4 274 276 277 275
4 276 278 279 277
4 278 280 281 279
4 280 282 283 281
4 282 284 285 283
4 284 286 287 285
4 286 288 289 287
4 288 290 291 289
4 290 292 293 291
4 292 294 295 293
4 294 296 297 295
4 296 298 299 297
4 298 300 301 299
4 300 302 303 301
4 302 304 305 303
4 304 306 307 305
4 306 308 309 307
4 308 310 311 309
4 310 312 313 311
4 312 314 315 313
4 314 316 317 315
4 316 318 319 317
4 318 320 321 319
4 320 322 323 321
4 322 324 325 323
4 324 326 327 325
4 326 328 329 327
4 328 330 331 329
4 330 332 333 331
4 332 334 335 333
4 334 336 337 335
4 336 338 339 337
4 338 340 341 339
4 340 342 343 341
4 342 344 345 343
4 344 346 347 345
4 346 348 349 347
4 348 350 351 349
4 350 352 353 351
4 352 354 355 353
4 354 356 357 355
4 356 358 359 357
4 358 360 361 359
4 360 362 363 361
4 362 364 365 363
4 364 366 367 365
4 366 368 369 367
4 368 370 371 369
4 370 372 373 371
4 372 374 375 373
4 374 376 377 375
4 376 378 379 377
4 378 380 381 379
4 380 382 383 381
4 382 384 385 383
4 384 386 387 385
4 386 388 389 387
4 388 390 391 389
4 390 392 393 391
4 392 394 395 393
4 394 396 397 395
4 396 398 399 397
4 398 400 401 399
4 400 402 403 401
4 402 404 405 403
4 404 406 407 405
4 406 408 409 407
4 408 410 411 409
4 410 412 413 411
4 412 414 415 413
4 414 416 417 415
4 416 418 419 417
4 418 420 421 419
4 420 422 423 421
4 422 424 425 423
4 424 426 427 425
4 426 428 429 427
4 428 430 431 429
4 430 432 433 431
4 432 434 435 433
4 434 436 437 435
4 436 438 439 437
4 438 440 441 439
4 440 442 443 441
4 442 444 445 443
4 444 446 447 445
4 446 448 449 447
4 448 450 451 449
4 450 452 453 451
4 452 454 455 453
4 454 456 457 455
4 456 458 459 457
4 458 460 461 459
4 460 462 463 461
4 462 464 465 463
4 464 466 467 465
4 466 468 469 467
4 468 470 471 469
4 470 472 473 471
4 472 474 475 473
4 474 476 477 475
4 476 478 479 477
4 478 480 481 479
4 480 482 483 481
4 482 484 485 483
4 484 486 487 485
4 486 488 489 487
4 488 490 491 489
4 490 492 493 491
4 492 494 495 493
4 494 496 497 495
4 496 498 499 497
4 498 500 501 499
POINT_DATA 502
FIELD attributes 1
U 3 502 float
1.63741 0.0926924 0.0292254
0.820279 0.0460738 0.0144023
0.820279 0.0460738 0.0144023
1.63741 0.0926924 0.0292254
0.0249022 0.000702535 0
0.0249022 0.000702535 0
0.0222099 0.000577841 0
0.0222099 0.000577841 0
0.019731 0.000490895 0
0.019731 0.000490895 0
0.0174049 0.000417377 0
0.0174049 0.000417377 0
0.0153086 0.000345248 0
0.0153086 0.000345248 0
0.013479 0.000280477 0
0.013479 0.000280477 0
0.0118786 0.000233953 0
0.0118786 0.000233953 0
0.0104488 0.000204539 0
0.0104488 0.000204539 0
0.00916378 0.0001761 0
0.00916378 0.0001761 0
0.00803006 0.00013871 0
0.00803006 0.00013871 0
0.00705601 9.51987e-05 0
0.00705601 9.51987e-05 0
0.00626178 5.39151e-05 0
0.00626178 5.39151e-05 0
0.00562402 2.17614e-05 0
0.00562402 2.17614e-05 0
0.00512838 3.0784e-06 0
0.00512838 3.0784e-06 0
0.00471606 8.11276e-06 0
0.00471606 8.11276e-06 0
0.00429512 -7.9837e-06 0
0.00429512 -7.9837e-06 0
0.0019624 0.000204318 0
0.0019624 0.000204318 0
3.74668e-05 -0.000105642 6.79082e-23
3.74668e-05 -0.000105642 6.79082e-23
4.67324e-05 -0.000334741 -1.83687e-22
4.67324e-05 -0.000334741 -1.83687e-22
2.69013e-05 -0.000574609 -2.17732e-22
2.69013e-05 -0.000574609 -2.17732e-22
-2.28733e-05 -0.000461196 4.35785e-22
-2.28733e-05 -0.000461196 4.35785e-22
-5.17836e-05 -0.000154355 1.45201e-22
-5.17836e-05 -0.000154355 1.45201e-22
-5.86098e-05 0.000230699 -2.90675e-22
-5.86098e-05 0.000230699 -2.90675e-22
-4.96681e-05 0.000615358 0
-4.96681e-05 0.000615358 0
-3.10666e-05 0.00094134 -5.84086e-22
-3.10666e-05 0.00094134 -5.84086e-22
-7.09033e-06 0.00117743 -2.8902e-26
-7.09033e-06 0.00117743 -2.8902e-26
2.01747e-05 0.00130343 5.84057e-22
2.01747e-05 0.00130343 5.84057e-22
5.00778e-05 0.00130474 -5.87473e-22
5.00778e-05 0.00130474 -5.87473e-22
8.09756e-05 0.00116924 3.14873e-26
8.09756e-05 0.00116924 3.14873e-26
0.000108767 0.000886975 5.87505e-22
0.000108767 0.000886975 5.87505e-22
0.000112653 0.000456244 5.92574e-22
0.000112653 0.000456244 5.92574e-22
4.04118e-05 -5.22156e-05 -5.74233e-27
4.04118e-05 -5.22156e-05 -5.74233e-27
-8.37207e-05 -0.000398986 -6.03082e-22
-8.37207e-05 -0.000398986 -6.03082e-22
-0.000146778 -0.000394023 0
-0.000146778 -0.000394023 0
-0.000113756 -0.000175891 0
-0.000113756 -0.000175891 0
7.15504e-05 -0.000235257 0
7.15504e-05 -0.000235257 0
0.00033497 -0.0010834 0
0.00033497 -0.0010834 0
0.00035242 -0.00216106 0
0.00035242 -0.00216106 0
0.000113016 -0.00256817 0
0.000113016 -0.00256817 0
-0.000137068 -0.0023554 0
-0.000137068 -0.0023554 0
-0.000328269 -0.00179885 0
-0.000328269 -0.00179885 0
-0.000449209 -0.0010446 0
-0.000449209 -0.0010446 0
-0.000354935 -0.000263328 0
-0.000354935 -0.000263328 0
-1.51294e-05 0.000258246 0
-1.51294e-05 0.000258246 0
8.65075e-05 -0.000128735 2.90712e-25
8.65075e-05 -0.000128735 2.90712e-25
0.000192029 -0.000154682 -3.375e-23
0.000192029 -0.000154682 -3.375e-23
0.000301724 -0.000156082 0
0.000301724 -0.000156082 0
0.000406484 -0.000152613 0
0.000406484 -0.000152613 0
0.000507774 -0.0001487 3.27246e-23
0.000507774 -0.0001487 3.27246e-23
0.000605559 -0.000145089 3.27834e-23
0.000605559 -0.000145089 3.27834e-23
0.000699763 -0.000141526 0
0.000699763 -0.000141526 0
0.000790137 -0.000137621 0
0.000790137 -0.000137621 0
0.000876043 -0.000133026 0
0.000876043 -0.000133026 0
0.000956449 -0.000127501 -3.15148e-23
0.000956449 -0.000127501 -3.15148e-23
0.00102994 -0.000120877 -3.15749e-23
0.00102994 -0.000120877 -3.15749e-23
0.00109473 -0.000113088 0
0.00109473 -0.000113088 0
0.00114851 -0.00010427 0
0.00114851 -0.00010427 0
0.00118874 -9.47167e-05 0
0.00118874 -9.47167e-05 0
0.00121285 -8.52998e-05 -3.03145e-23
0.00121285 -8.52998e-05 -3.03145e-23
0.00121753 -7.77491e-05 -3.03757e-23
0.00121753 -7.77491e-05 -3.03757e-23
0.00119969 -7.27627e-05 0
0.00119969 -7.27627e-05 0
0.0011571 -6.78247e-05 0
0.0011571 -6.78247e-05 0
0.00108698 -5.7182e-05 0
0.00108698 -5.7182e-05 0
0.000984595 -3.36177e-05 0
0.000984595 -3.36177e-05 0
0.000843049 7.98978e-06 0
0.000843049 7.98978e-06 0
0.000655231 6.66829e-05 0
0.000655231 6.66829e-05 0
0.000416411 0.000134672 -2.84845e-23
0.000416411 0.000134672 -2.84845e-23
0.000128709 0.000202337 -2.88333e-25
0.000128709 0.000202337 -2.88333e-25
-0.000202721 0.000263714 3.04344e-25
-0.000202721 0.000263714 3.04344e-25
-0.000575421 0.000317989 -5.58491e-23
-0.000575421 0.000317989 -5.58491e-23
-0.000984741 0.000365596 -2.78314e-23
-0.000984741 0.000365596 -2.78314e-23
-0.00142322 0.000404968 0
-0.00142322 0.000404968 0
-0.00188291 0.000434013 2.69938e-23
-0.00188291 0.000434013 2.69938e-23
-0.00235508 0.000451393 5.37853e-23
-0.00235508 0.000451393 5.37853e-23
-0.00283111 0.000457158 2.67916e-23
-0.00283111 0.000457158 2.67916e-23
-0.00330317 0.000452607 0
-0.00330317 0.000452607 0
-0.00376465 0.000439694 2.5913e-23
-0.00376465 0.000439694 2.5913e-23
-0.00421023 0.000420396 2.59768e-23
-0.00421023 0.000420396 2.59768e-23
-0.00463566 0.00039636 0
-0.00463566 0.00039636 0
-0.00503756 0.000368971 -2.5093e-23
-0.00503756 0.000368971 -2.5093e-23
-0.00541321 0.000339432 -2.51568e-23
-0.00541321 0.000339432 -2.51568e-23
-0.00576043 0.000308582 -2.45589e-23
-0.00576043 0.000308582 -2.45589e-23
-0.00607727 0.00027687 -7.3221e-23
-0.00607727 0.00027687 -7.3221e-23
-0.00636195 0.000244586 -4.87257e-23
-0.00636195 0.000244586 -4.87257e-23
-0.00661282 0.000211922 0
-0.00661282 0.000211922 0
-0.0068283 0.000178974 0
-0.0068283 0.000178974 0
-0.00700682 0.000145853 0
-0.00700682 0.000145853 0
-0.00714712 0.000112825 0
-0.00714712 0.000112825 0
-0.00724841 8.04236e-05 -4.58188e-23
-0.00724841 8.04236e-05 -4.58188e-23
-0.00731013 4.93567e-05 -9.13713e-23
-0.00731013 4.93567e-05 -9.13713e-23
-0.00733206 2.01371e-05 -9.06032e-23
-0.00733206 2.01371e-05 -9.06032e-23
-0.00731668 -6.98576e-06 -4.51785e-23
-0.00731668 -6.98576e-06 -4.51785e-23
-0.00726606 -3.19984e-05 4.43598e-23
-0.00726606 -3.19984e-05 4.43598e-23
-0.00718174 -5.49588e-05 4.44883e-23
-0.00718174 -5.49588e-05 4.44883e-23
-0.00706626 -7.5859e-05 -4.37377e-23
-0.00706626 -7.5859e-05 -4.37377e-23
-0.00692181 -9.46305e-05 -8.73142e-23
-0.00692181 -9.46305e-05 -8.73142e-23
-0.00675116 -0.000111241 -4.35768e-23
-0.00675116 -0.000111241 -4.35768e-23
-0.00655683 -0.00012576 0
-0.00655683 -0.00012576 0
-0.00634141 -0.000138278 0
-0.00634141 -0.000138278 0
-0.00610725 -0.000148982 -4.23733e-23
-0.00610725 -0.000148982 -4.23733e-23
-0.00585646 -0.000158083 -4.25045e-23
-0.00585646 -0.000158083 -4.25045e-23
-0.00559088 -0.000165808 0
-0.00559088 -0.000165808 0
-0.00531206 -0.000172364 0
-0.00531206 -0.000172364 0
-0.00502135 -0.000177917 0
-0.00502135 -0.000177917 0
-0.00471992 -0.000182565 0
-0.00471992 -0.000182565 0
-0.00440896 -0.000186322 0
-0.00440896 -0.000186322 0
-0.00408972 -0.00018912 0
-0.00408972 -0.00018912 0
-0.00376371 -0.000190826 0
-0.00376371 -0.000190826 0
-0.00343271 -0.000191278 4.00705e-23
-0.00343271 -0.000191278 4.00705e-23
-0.00309878 -0.000190331 4.02052e-23
-0.00309878 -0.000190331 4.02052e-23
-0.0027642 -0.000187892 0
-0.0027642 -0.000187892 0
-0.00243139 -0.000183953 -3.9246e-23
-0.00243139 -0.000183953 -3.9246e-23
-0.0021028 -0.000178595 -7.83403e-23
-0.0021028 -0.000178595 -7.83403e-23
-0.00178079 -0.000171968 -3.90944e-23
-0.00178079 -0.000171968 -3.90944e-23
-0.00146744 -0.000164284 3.83654e-23
-0.00146744 -0.000164284 3.83654e-23
-0.00116451 -0.000155777 4.41567e-25
-0.00116451 -0.000155777 4.41567e-25
-0.000873312 -0.000146717 -3.81954e-23
-0.000873312 -0.000146717 -3.81954e-23
-0.000594831 -0.000137356 3.74323e-23
-0.000594831 -0.000137356 3.74323e-23
-0.000329736 -0.000127813 3.75681e-23
-0.000329736 -0.000127813 3.75681e-23
-7.90336e-05 -0.000118599 0
-7.90336e-05 -0.000118599 0
0.000156884 -0.000109677 -3.64433e-23
0.000156884 -0.000109677 -3.64433e-23
0.000379359 -0.000100834 -3.65788e-23
0.000379359 -0.000100834 -3.65788e-23
0.00058908 -9.23817e-05 3.57561e-23
0.00058908 -9.23817e-05 3.57561e-23
0.000786025 -8.43393e-05 3.58912e-23
0.000786025 -8.43393e-05 3.58912e-23
0.000970667 -7.67347e-05 -3.5069e-23
0.000970667 -7.67347e-05 -3.5069e-23
0.00114352 -6.95793e-05 -6.993e-23
0.00114352 -6.95793e-05 -6.993e-23
0.00130514 -6.2872e-05 -6.92453e-23
0.00130514 -6.2872e-05 -6.92453e-23
0.00145608 -5.6603e-05 -1.02607e-22
0.00145608 -5.6603e-05 -1.02607e-22
0.00159693 -5.07572e-05 -9.45813e-25
0.00159693 -5.07572e-05 -9.45813e-25
0.00172822 -4.53161e-05 6.76768e-23
0.00172822 -4.53161e-05 6.76768e-23
0.00185049 -4.0259e-05 0
0.00185049 -4.0259e-05 0
0.00196425 -3.5564e-05 0
0.00196425 -3.5564e-05 0
0.00206999 -3.12092e-05 6.47299e-23
0.00206999 -3.12092e-05 6.47299e-23
0.00216815 -2.71727e-05 1.29063e-22
0.00216815 -2.71727e-05 1.29063e-22
0.00225915 -2.34335e-05 9.19963e-25
0.00225915 -2.34335e-05 9.19963e-25
0.00234339 -1.99723e-05 -6.36751e-23
0.00234339 -1.99723e-05 -6.36751e-23
0.00242123 -1.67716e-05 6.21115e-23
0.00242123 -1.67716e-05 6.21115e-23
0.002493 -1.38165e-05 1.23839e-22
0.002493 -1.38165e-05 1.23839e-22
0.00255902 -1.10941e-05 1.22554e-22
0.00255902 -1.10941e-05 1.22554e-22
0.00261957 -8.59407e-06 6.10861e-23
0.00261957 -8.59407e-06 6.10861e-23
0.00267496 -6.30805e-06 0
0.00267496 -6.30805e-06 0
0.00272544 -4.2292e-06 0
0.00272544 -4.2292e-06 0
0.00277128 -2.35172e-06 5.83083e-23
0.00277128 -2.35172e-06 5.83083e-23
0.00281276 -6.70119e-07 5.85635e-23
0.00281276 -6.70119e-07 5.85635e-23
0.00285012 8.20966e-07 0
0.00285012 8.20966e-07 0
0.00288364 2.12768e-06 -5.64626e-23
0.00288364 2.12768e-06 -5.64626e-23
0.00291357 3.25684e-06 -5.67148e-23
0.00291357 3.25684e-06 -5.67148e-23
0.00294017 4.216e-06 0
0.00294017 4.216e-06 0
0.0029637 5.01491e-06 -5.46533e-23
0.0029637 5.01491e-06 -5.46533e-23
0.00298441 5.66229e-06 -5.49022e-23
0.00298441 5.66229e-06 -5.49022e-23
0.00300255 6.16988e-06 0
0.00300255 6.16988e-06 0
0.00301834 6.55044e-06 5.28791e-23
0.00301834 6.55044e-06 5.28791e-23
0.00303202 6.81471e-06 1.0542e-22
0.00303202 6.81471e-06 1.0542e-22
0.00304381 6.98561e-06 5.25395e-23
0.00304381 6.98561e-06 5.25395e-23
0.00305389 7.07482e-06 -5.11388e-23
0.00305389 7.07482e-06 -5.11388e-23
0.00306249 7.09294e-06 -5.13806e-23
0.00306249 7.09294e-06 -5.13806e-23
0.00306973 7.08188e-06 4.99969e-23
0.00306973 7.08188e-06 4.99969e-23
0.00307571 7.05555e-06 5.02361e-23
0.00307571 7.05555e-06 5.02361e-23
0.0030806 6.98822e-06 4.88691e-23
0.0030806 6.98822e-06 4.88691e-23
0.00308453 6.86857e-06 9.74161e-23
0.00308453 6.86857e-06 9.74161e-23
0.00308764 6.70539e-06 4.85457e-23
0.00308764 6.70539e-06 4.85457e-23
0.00309006 6.51143e-06 0
0.00309006 6.51143e-06 0
0.0030919 6.29491e-06 0
0.0030919 6.29491e-06 0
0.00309326 6.06177e-06 0
0.00309326 6.06177e-06 0
0.00309422 5.82445e-06 0
0.00309422 5.82445e-06 0
0.00309485 5.59452e-06 0
0.00309485 5.59452e-06 0
0.00309521 5.36528e-06 0
0.00309521 5.36528e-06 0
0.00309536 5.12033e-06 4.39605e-23
0.00309536 5.12033e-06 4.39605e-23
0.00309534 4.86656e-06 7.53297e-25
0.00309534 4.86656e-06 7.53297e-25
0.00309517 4.6244e-06 -4.36534e-23
0.00309517 4.6244e-06 -4.36534e-23
0.00309489 4.40057e-06 0
0.00309489 4.40057e-06 0
0.00309452 4.19474e-06 0
0.00309452 4.19474e-06 0
0.00309406 4.00523e-06 0
0.00309406 4.00523e-06 0
0.00309355 3.83003e-06 -8.16572e-23
0.00309355 3.83003e-06 -8.16572e-23
0.00309299 3.66721e-06 -8.20862e-23
0.00309299 3.66721e-06 -8.20862e-23
0.00309241 3.51286e-06 7.96155e-23
0.00309241 3.51286e-06 7.96155e-23
0.00309182 3.36157e-06 1.43494e-24
0.00309182 3.36157e-06 1.43494e-24
0.00309125 3.2093e-06 -7.9022e-23
0.00309125 3.2093e-06 -7.9022e-23
0.00309073 3.0555e-06 0
0.00309073 3.0555e-06 0
0.00309028 2.9037e-06 0
0.00309028 2.9037e-06 0
0.00308991 2.75984e-06 7.46064e-23
0.00308991 2.75984e-06 7.46064e-23
0.00308964 2.62956e-06 1.48632e-22
0.00308964 2.62956e-06 1.48632e-22
0.00308946 2.51595e-06 7.40222e-23
0.00308946 2.51595e-06 7.40222e-23
0.00308937 2.41886e-06 7.16632e-23
0.00308937 2.41886e-06 7.16632e-23
0.00308935 2.33563e-06 1.4275e-22
0.00308935 2.33563e-06 1.4275e-22
0.0030894 2.26265e-06 1.35757e-24
0.0030894 2.26265e-06 1.35757e-24
0.0030895 2.19664e-06 -7.01132e-23
0.0030895 2.19664e-06 -7.01132e-23
0.00308965 2.13544e-06 0
0.00308965 2.13544e-06 0
0.00308984 2.07804e-06 -6.68548e-23
0.00308984 2.07804e-06 -6.68548e-23
0.00309007 2.02431e-06 -6.72313e-23
0.00309007 2.02431e-06 -6.72313e-23
0.00309033 1.97463e-06 0
0.00309033 1.97463e-06 0
0.00309061 1.92946e-06 0
0.00309061 1.92946e-06 0
0.00309091 1.88922e-06 0
0.00309091 1.88922e-06 0
0.00309123 1.85408e-06 6.21592e-23
0.00309123 1.85408e-06 6.21592e-23
0.00309156 1.82415e-06 1.23749e-22
0.00309156 1.82415e-06 1.23749e-22
0.00309189 1.79944e-06 6.15863e-23
0.00309189 1.79944e-06 6.15863e-23
0.00309222 1.78003e-06 5.9392e-23
0.00309222 1.78003e-06 5.9392e-23
0.00309253 1.7661e-06 5.97376e-23
0.00309253 1.7661e-06 5.97376e-23
0.00309282 1.75802e-06 0
0.00309282 1.75802e-06 0
0.00309307 1.7563e-06 5.66598e-23
0.00309307 1.7563e-06 5.66598e-23
0.00309327 1.76167e-06 5.69933e-23
0.00309327 1.76167e-06 5.69933e-23
0.0030934 1.77515e-06 5.48568e-23
0.0030934 1.77515e-06 5.48568e-23
0.00309343 1.79806e-06 5.51821e-23
0.00309343 1.79806e-06 5.51821e-23
0.00309334 1.83227e-06 0
0.00309334 1.83227e-06 0
0.0030931 1.88003e-06 5.21787e-23
0.0030931 1.88003e-06 5.21787e-23
0.00309264 1.94484e-06 5.24915e-23
0.00309264 1.94484e-06 5.24915e-23
0.00309193 2.03026e-06 5.04101e-23