/*--------------------------------*- C++ -*----------------------------------*\
  =========                 |
  \\      /  F ield         | OpenFOAM: The Open Source CFD Toolbox
   \\    /   O peration     | Website:  https://openfoam.org
    \\  /    A nd           | Version:  7
     \\/     M anipulation  |
\*---------------------------------------------------------------------------*/
FoamFile
{
    version     2.0;
    format      ascii;
    class       volScalarField;
    location    "0.3";
    object      nut;
}
// * * * * * * * * * * * * * * * * * * * * * * * * * * * * * * * * * * * * * //

dimensions      [0 2 -1 0 0 0 0];

internalField   nonuniform List<scalar> 
12225
(
3.8006e-05
3.33294e-05
2.94332e-05
2.6376e-05
2.41489e-05
2.26288e-05
2.16443e-05
2.10339e-05
2.06698e-05
2.04597e-05
2.03407e-05
2.02726e-05
2.02304e-05
2.02e-05
2.01736e-05
2.01461e-05
2.01226e-05
2.02571e-05
0.000205724
0.000151533
0.000127319
0.000114411
0.000107381
0.000103279
0.000100626
9.87154e-05
9.72154e-05
9.59633e-05
9.48793e-05
9.39241e-05
9.30774e-05
9.23254e-05
9.16604e-05
9.1061e-05
9.05617e-05
8.99949e-05
0.000418643
0.000297003
0.000242054
0.000210272
0.000189718
0.000175352
0.0001648
0.000156801
0.000150589
0.00014566
0.000141676
0.000138405
0.000135686
0.0001334
0.000131465
0.000129806
0.000128391
0.000127116
0.000615537
0.000473549
0.000392597
0.000341291
0.000306027
0.0002801
0.000260144
0.000244335
0.000231557
0.000221064
0.000212334
0.000204996
0.000198773
0.000193455
0.000188881
0.000184919
0.000181477
0.000178478
0.000739725
0.000627509
0.000543989
0.00048344
0.000438581
0.00040404
0.000376545
0.000354125
0.000335509
0.000319822
0.000306446
0.000294934
0.000284951
0.000276238
0.000268592
0.000261849
0.000255883
0.000250663
0.000803284
0.000733062
0.000666707
0.000610805
0.000565234
0.000527921
0.000496953
0.000470909
0.000448739
0.000429657
0.000413073
0.000398545
0.000385732
0.000374366
0.000364237
0.000355173
0.000347043
0.000339871
0.000832284
0.000794592
0.000750954
0.000708347
0.000669791
0.000635827
0.000606126
0.000580161
0.000557392
0.000537324
0.000519539
0.000503693
0.000489507
0.00047675
0.000465236
0.00045481
0.00044536
0.000436963
0.000844509
0.000826357
0.000801472
0.000773649
0.000745701
0.000719065
0.000694336
0.000671699
0.000651116
0.000632445
0.000615507
0.000600119
0.000586112
0.000573335
0.000561655
0.000550957
0.000541164
0.000532401
0.000849308
0.000841192
0.000828459
0.000812443
0.000794701
0.000776404
0.000758308
0.000740873
0.00072435
0.000708847
0.000694386
0.000680939
0.000668456
0.000656875
0.000646132
0.000636165
0.000626942
0.000618619
0.000851043
0.000847506
0.000841448
0.000833092
0.000823017
0.000811834
0.000800062
0.000788107
0.000776262
0.000764726
0.00075362
0.000743012
0.000732935
0.000723399
0.000714398
0.000705922
0.000697977
0.000690731
0.000851597
0.000849941
0.000847101
0.000842991
0.000837726
0.000831519
0.000824611
0.000817236
0.0008096
0.000801871
0.000794175
0.000786607
0.000779231
0.000772094
0.000765223
0.000758639
0.000752375
0.000746587
0.000851725
0.000850709
0.000849144
0.00084693
0.000844053
0.00084056
0.000836537
0.000832087
0.000827323
0.000822348
0.000817251
0.000812108
0.00080698
0.000801912
0.000796942
0.0007921
0.000787427
0.000783065
0.000851737
0.000850954
0.00084994
0.000848639
0.000847018
0.00084507
0.000842806
0.000840258
0.000837466
0.000834478
0.000831342
0.000828103
0.000824801
0.00082147
0.00081814
0.00081484
0.000811607
0.00080855
0.00085171
0.000850987
0.000850182
0.000849278
0.000848261
0.000847121
0.000845852
0.000844453
0.00084293
0.000841294
0.000839561
0.000837746
0.000835867
0.00083394
0.000831982
0.00083001
0.00082805
0.000826175
0.000851677
0.00085095
0.000850198
0.00084942
0.000848622
0.000847805
0.000846965
0.0008461
0.000845208
0.000844287
0.000843336
0.000842356
0.000841351
0.000840324
0.000839279
0.000838222
0.00083717
0.000836162
0.000851651
0.000850908
0.00085016
0.000849409
0.000848667
0.00084794
0.000847234
0.000846549
0.000845883
0.000845236
0.000844605
0.000843986
0.000843377
0.000842777
0.000842185
0.000841601
0.000841034
0.000840507
0.000851638
0.000850886
0.000850137
0.000849392
0.000848662
0.000847956
0.000847279
0.000846636
0.000846028
0.000845454
0.000844912
0.000844401
0.000843917
0.000843459
0.000843023
0.00084261
0.000842226
0.000841887
0.000851639
0.000850891
0.00085015
0.000849418
0.000848701
0.000848009
0.000847348
0.000846722
0.000846133
0.000845581
0.000845065
0.000844583
0.000844133
0.000843713
0.00084332
0.000842955
0.000842623
0.000842339
0.000851662
0.000850939
0.000850226
0.000849522
0.000848836
0.000848176
0.000847548
0.000846956
0.000846402
0.000845885
0.000845404
0.000844957
0.000844541
0.000844155
0.000843796
0.000843463
0.000843163
0.00084291
0.000851715
0.000851053
0.000850399
0.000849754
0.000849128
0.000848532
0.00084797
0.000847444
0.000846954
0.000846498
0.000846073
0.000845676
0.000845303
0.000844951
0.000844617
0.000844301
0.000844007
0.00084375
0.000851801
0.000851234
0.000850669
0.000850109
0.000849564
0.000849039
0.000848536
0.00084805
0.000847576
0.000847106
0.000846637
0.000846163
0.00084568
0.000845186
0.00084468
0.000844161
0.000843638
0.000843126
0.000851941
0.000851518
0.000851065
0.000850568
0.000850017
0.000849405
0.000848722
0.000847952
0.000847087
0.000846123
0.000845063
0.000843912
0.000842675
0.000841361
0.000839973
0.000838527
0.000837042
0.000835561
0.000852143
0.000851828
0.000851264
0.00085036
0.000849078
0.000847417
0.000845389
0.000843012
0.000840325
0.000837373
0.000834204
0.000830853
0.000827362
0.000823779
0.000820154
0.000816521
0.000812919
0.000809416
0.00085222
0.000851245
0.000849025
0.000845468
0.000840718
0.000835022
0.000828605
0.000821661
0.000814373
0.00080686
0.00079926
0.000791707
0.000784292
0.000777071
0.000770079
0.000763343
0.000756886
0.000750784
0.000850791
0.000845027
0.000835399
0.000822957
0.000808859
0.000794025
0.000779048
0.000764235
0.000749848
0.00073613
0.000723177
0.000711006
0.000699599
0.000688923
0.000678933
0.000669585
0.000660844
0.00065275
0.000841138
0.00081668
0.000786996
0.000756693
0.000727767
0.000700937
0.00067635
0.000654195
0.000634319
0.000616465
0.000600379
0.000585832
0.00057262
0.000560566
0.000549525
0.000539371
0.000530008
0.000521427
0.000798628
0.000728721
0.00066909
0.000620804
0.000580929
0.000547655
0.000520031
0.000496763
0.000476875
0.000459658
0.000444584
0.00043125
0.00041935
0.000408643
0.000398943
0.000390104
0.000382011
0.000374623
0.000662426
0.000545577
0.000474635
0.000425189
0.000388256
0.00036025
0.000338444
0.000320944
0.000306527
0.000294407
0.000284051
0.000275079
0.000267215
0.000260254
0.000254041
0.000248455
0.000243404
0.000238832
0.000377505
0.000286123
0.000242629
0.000214904
0.000195639
0.000182229
0.000172791
0.000165953
0.000160833
0.000156885
0.000153763
0.000151237
0.000149147
0.000147383
0.000145867
0.000144542
0.000143366
0.000142296
6.98062e-05
6.49723e-05
6.05478e-05
5.65122e-05
5.29007e-05
4.97254e-05
4.69801e-05
4.464e-05
4.2666e-05
4.10139e-05
3.96402e-05
3.85046e-05
3.7571e-05
3.68079e-05
3.61879e-05
3.56878e-05
3.52878e-05
3.49712e-05
4.76504e-08
1.48295e-06
2.57422e-06
3.45621e-06
4.21214e-06
5.02156e-06
5.92589e-06
6.91223e-06
8.00542e-06
9.24223e-06
1.06672e-05
1.21782e-05
1.38165e-05
1.55967e-05
1.75263e-05
1.96099e-05
2.18504e-05
2.42491e-05
2.68054e-05
2.95175e-05
3.23818e-05
3.53942e-05
3.85493e-05
4.18414e-05
4.52644e-05
4.88121e-05
5.24781e-05
5.62562e-05
6.014e-05
6.41234e-05
6.82004e-05
7.23647e-05
7.66104e-05
8.09313e-05
8.5321e-05
8.97729e-05
9.42803e-05
9.8836e-05
0.000103432
0.000108061
0.000112713
0.000117379
0.000122051
0.000126717
0.000131368
0.000135994
0.000140585
0.000145132
0.000149624
0.000154052
0.000158403
0.000162665
0.00016682
0.000170851
0.000174734
0.000178443
0.000181951
0.000185226
0.000188234
0.000190939
0.000193302
0.000195277
0.000196798
0.000197723
0.000197619
0.000195107
4.41031e-05
4.43554e-05
4.52115e-05
0.000201268
0.00020219
0.000203454
0.000204572
0.000203942
4.64889e-05
0.000204442
0.000199991
4.54242e-05
4.61475e-05
4.71466e-05
4.71206e-05
4.79177e-05
4.75969e-05
4.79601e-05
4.8357e-05
4.87526e-05
4.91422e-05
4.9524e-05
4.98968e-05
5.026e-05
5.06132e-05
5.09565e-05
5.12901e-05
5.16152e-05
5.19337e-05
5.22403e-05
5.25345e-05
5.28167e-05
5.30868e-05
5.33446e-05
5.35901e-05
5.38229e-05
5.4043e-05
5.42502e-05
5.44442e-05
5.4625e-05
5.47923e-05
5.49462e-05
5.50864e-05
5.52129e-05
5.53256e-05
5.54245e-05
5.55095e-05
5.55805e-05
5.56377e-05
5.56809e-05
5.57103e-05
5.57258e-05
5.57275e-05
5.57155e-05
5.56899e-05
5.56507e-05
5.55981e-05
5.55323e-05
5.54533e-05
5.53614e-05
5.52566e-05
5.51393e-05
5.50096e-05
5.48677e-05
5.47139e-05
5.45485e-05
5.43715e-05
5.41834e-05
5.39845e-05
5.37749e-05
5.3555e-05
5.3325e-05
5.30854e-05
5.28364e-05
5.25783e-05
5.23115e-05
5.20363e-05
5.17531e-05
5.14621e-05
5.11637e-05
5.08583e-05
5.05461e-05
5.02277e-05
4.99033e-05
4.95732e-05
4.9238e-05
4.88981e-05
4.85542e-05
4.82086e-05
4.78716e-05
4.76099e-05
4.64847e-05
4.66104e-05
4.59051e-05
4.58454e-05
4.55689e-05
4.56216e-05
0.000230132
4.87607e-05
0.000229329
4.8319e-05
4.48883e-05
0.00022164
4.75653e-05
4.42656e-05
0.000218189
0.000217061
0.000214604
0.000212189
0.000211125
0.00021276
4.33074e-05
0.000209561
4.48807e-05
2.04989e-07
1.05683e-05
2.60333e-05
3.76892e-05
4.60498e-05
5.18127e-05
5.58746e-05
5.92146e-05
6.23339e-05
6.54603e-05
6.86918e-05
7.2076e-05
7.56137e-05
7.93037e-05
8.31488e-05
8.71545e-05
9.1327e-05
9.56715e-05
0.000100191
0.000104888
0.000109762
0.00011481
0.00012003
0.000125416
0.000130965
0.000136669
0.000142524
0.000148524
0.000154662
0.000160933
0.00016733
0.000173848
0.00018048
0.000187221
0.000194064
0.000201001
0.000208027
0.000215134
0.000222314
0.000229557
0.000236856
0.0002442
0.000251579
0.000258981
0.000266396
0.00027381
0.000281212
0.000288586
0.000295918
0.00030319
0.000310379
0.000317459
0.000324398
0.000331152
0.000337672
0.00034389
0.000349727
0.000355077
0.000359809
0.00036375
0.000366665
0.000368217
0.00036784
0.000364379
0.000355077
0.000333404
0.000287301
0.000287765
0.000298546
0.00033662
0.000332582
0.000328487
0.000328323
0.000323134
0.000301327
0.000325423
0.000316259
0.000299924
0.000303958
0.000307388
0.00031542
0.00031869
0.000326328
0.000331912
0.000336544
0.000341479
0.000346535
0.000351651
0.000356785
0.000361908
0.000367002
0.000372044
0.000377006
0.000381851
0.000386296
0.000390615
0.000394866
0.000399054
0.000403177
0.000407231
0.000411213
0.000415121
0.000418951
0.000422699
0.000426363
0.00042994
0.000433425
0.000436818
0.000440114
0.000443311
0.000446406
0.000449398
0.000452284
0.000455062
0.000457731
0.000460288
0.000462732
0.000465062
0.000467276
0.000469374
0.000471354
0.000473216
0.00047496
0.000476584
0.000478089
0.000479476
0.000480743
0.000481891
0.000482922
0.000483835
0.000484631
0.000485313
0.000485879
0.000486333
0.000486675
0.000486907
0.00048703
0.000487048
0.00048696
0.000486771
0.000486481
0.000486093
0.00048561
0.000485034
0.000484368
0.000483614
0.000482775
0.000481853
0.000480853
0.000479776
0.000478624
0.000477405
0.000476116
0.000474759
0.000473332
0.00047181
0.000469514
0.000452979
0.000456526
0.000442539
0.000439976
0.000434448
0.000434825
0.000488736
0.000427623
0.000478907
0.000418992
0.000411935
0.000461779
0.000405695
0.000395945
0.000444634
0.000444773
0.000440767
0.000435862
0.000429024
0.000425742
0.000370178
0.000408088
0.000350224
4.22556e-07
1.86532e-05
4.52325e-05
6.57716e-05
8.05226e-05
9.1105e-05
9.898e-05
0.000105246
0.000110657
0.000115689
0.000120618
0.000125593
0.000130689
0.00013594
0.000141366
0.000146981
0.000152794
0.000158812
0.000165042
0.000171485
0.000178145
0.00018502
0.000192108
0.000199406
0.00020691
0.000214614
0.000222513
0.0002306
0.00023887
0.000247316
0.000255931
0.000264709
0.000273643
0.000282724
0.000291947
0.000301303
0.000310783
0.000320378
0.00033008
0.000339877
0.000349758
0.00035971
0.000369721
0.000379777
0.000389862
0.00039996
0.000410053
0.000420123
0.000430147
0.000440102
0.000449956
0.000459677
0.000469221
0.00047854
0.000487573
0.000496252
0.000504494
0.000512207
0.000519286
0.000525617
0.000531076
0.00053554
0.000538874
0.000540886
0.000541237
0.000539474
0.000536269
0.000540254
0.000547184
0.00055631
0.000561066
0.000566722
0.000573651
0.000579919
0.000584888
0.00059453
0.000600689
0.000606902
0.00061618
0.000625942
0.000636269
0.000646443
0.000656762
0.00066725
0.000677568
0.000687891
0.000698197
0.000708459
0.000718649
0.000728741
0.000738708
0.000748524
0.000758161
0.000767465
0.000776468
0.00078529
0.00079397
0.000802511
0.000810911
0.000819162
0.00082726
0.000835197
0.000842967
0.000850563
0.000857978
0.000865207
0.000872243
0.000879081
0.000885714
0.000892138
0.000898348
0.000904339
0.000910106
0.000915645
0.000920954
0.000926028
0.000930865
0.000935462
0.000939816
0.000943926
0.000947789
0.000951405
0.000954772
0.00095789
0.000960759
0.000963379
0.000965751
0.000967874
0.000969751
0.000971383
0.000972772
0.00097392
0.00097483
0.000975503
0.000975945
0.000976157
0.000976143
0.000975908
0.000975456
0.00097479
0.000973917
0.000972839
0.000971564
0.000970095
0.000968439
0.000966601
0.000964588
0.000962403
0.000960056
0.000957552
0.000954894
0.000952095
0.000949159
0.000946076
0.000942833
0.0009394
0.000935416
0.000927015
0.000920052
0.000911903
0.000904418
0.00089633
0.000890846
0.00090164
0.000883476
0.000888615
0.000869443
0.000859274
0.000865665
0.000846905
0.000835322
0.000842874
0.000838228
0.000831536
0.000824143
0.000815968
0.000810352
0.000789918
0.00079079
0.00076233
6.88823e-07
2.48525e-05
5.93208e-05
8.64077e-05
0.000106497
0.000121445
0.000132859
0.000141982
0.000149725
0.000156715
0.000163362
0.000169915
0.00017652
0.000183258
0.000190174
0.000197297
0.000204642
0.000212221
0.000220039
0.000228101
0.000236409
0.000244964
0.000253763
0.000262803
0.000272081
0.000281591
0.000291328
0.000301285
0.000311456
0.000321834
0.000332411
0.00034318
0.000354133
0.000365262
0.000376558
0.000388011
0.000399613
0.000411352
0.000423217
0.000435195
0.000447274
0.000459439
0.000471674
0.000483965
0.000496293
0.000508642
0.000520991
0.000533321
0.000545609
0.000557832
0.000569963
0.000581971
0.000593822
0.000605479
0.000616898
0.000628035
0.000638845
0.000649282
0.000659308
0.000668894
0.000678034
0.00068675
0.000695106
0.000703202
0.000711145
0.000719048
0.000727374
0.000737087
0.00074777
0.000759086
0.000770468
0.000782507
0.000795107
0.000807784
0.000820567
0.000833995
0.000847296
0.000860886
0.000874983
0.000889337
0.000903822
0.000918406
0.000932978
0.000947574
0.000962075
0.000976465
0.000990735
0.00100487
0.00101885
0.00103266
0.00104628
0.00105968
0.00107283
0.00108563
0.00109816
0.00111046
0.00112257
0.00113449
0.0011462
0.0011577
0.00116899
0.00118006
0.00119089
0.00120148
0.00121182
0.0012219
0.00123172
0.00124126
0.00125052
0.00125949
0.00126816
0.00127653
0.0012846
0.00129235
0.00129979
0.0013069
0.00131368
0.00132014
0.00132626
0.00133205
0.0013375
0.0013426
0.00134737
0.00135179
0.00135587
0.0013596
0.00136299
0.00136604
0.00136875
0.00137112
0.00137316
0.00137485
0.00137622
0.00137727
0.00137798
0.00137838
0.00137847
0.00137824
0.00137772
0.00137689
0.00137577
0.00137437
0.00137269
0.00137074
0.00136852
0.00136605
0.00136333
0.00136036
0.00135717
0.00135376
0.00135013
0.00134629
0.00134226
0.00133801
0.00133352
0.00132876
0.00132355
0.00131688
0.00130843
0.00130099
0.00129283
0.00128422
0.0012763
0.00127284
0.00126315
0.00125714
0.00124669
0.00123714
0.00123126
0.00122027
0.00120996
0.00120482
0.00119714
0.00118873
0.00117994
0.00117093
0.001163
0.00115138
0.00114176
0.0011215
9.56204e-07
2.97379e-05
7.02695e-05
0.000102945
0.000127753
0.000146604
0.000161231
0.000173001
0.000182943
0.000191793
0.000200061
0.000208081
0.000216062
0.000224132
0.000232368
0.000240814
0.000249497
0.000258431
0.000267627
0.000277089
0.00028682
0.000296819
0.000307085
0.000317615
0.000328405
0.000339448
0.00035074
0.000362274
0.000374042
0.000386038
0.000398253
0.000410679
0.000423308
0.00043613
0.000449136
0.000462315
0.000475658
0.000489152
0.000502785
0.000516543
0.000530414
0.000544383
0.000558433
0.000572549
0.000586715
0.000600915
0.000615131
0.000629346
0.000643544
0.000657706
0.000671813
0.000685848
0.000699789
0.000713617
0.000727312
0.000740857
0.000754239
0.000767451
0.000780498
0.000793396
0.000806183
0.000818918
0.000831688
0.000844601
0.000857769
0.000871292
0.000885298
0.000899901
0.000915036
0.000930612
0.000946558
0.000962907
0.00097958
0.000996436
0.00101347
0.00103071
0.00104808
0.0010656
0.00108324
0.00110097
0.00111872
0.00113647
0.00115415
0.00117173
0.00118917
0.00120645
0.00122354
0.00124044
0.00125713
0.00127361
0.00128985
0.00130585
0.00132153
0.00133689
0.00135197
0.00136681
0.00138142
0.00139579
0.00140993
0.00142382
0.00143745
0.00145083
0.00146392
0.00147674
0.00148926
0.00150147
0.00151338
0.00152497
0.00153622
0.00154714
0.00155772
0.00156794
0.0015778
0.0015873
0.00159642
0.00160517
0.00161354
0.00162152
0.00162911
0.0016363
0.0016431
0.0016495
0.00165549
0.00166108
0.00166627
0.00167106
0.00167544
0.00167941
0.00168298
0.00168615
0.00168892
0.0016913
0.00169328
0.00169487
0.00169608
0.00169691
0.00169736
0.00169744
0.00169716
0.00169651
0.00169552
0.00169418
0.00169251
0.0016905
0.00168818
0.00168554
0.00168261
0.00167938
0.00167586
0.00167207
0.00166802
0.0016637
0.00165914
0.00165431
0.00164919
0.00164374
0.00163786
0.00163121
0.0016232
0.0016156
0.00160747
0.00159893
0.0015904
0.00158295
0.00157418
0.00156579
0.00155658
0.00154726
0.00153852
0.00152868
0.00151882
0.00151026
0.0015012
0.0014919
0.00148242
0.00147288
0.00146363
0.00145322
0.00144136
0.00142415
1.19424e-06
3.35672e-05
7.91294e-05
0.00011656
0.000145504
0.000167864
0.000185443
0.000199687
0.000211704
0.000222316
0.000232108
0.000241484
0.000250712
0.000259966
0.000269351
0.000278934
0.000288754
0.000298834
0.000309187
0.00031982
0.000330737
0.000341937
0.000353418
0.000365178
0.000377211
0.000389512
0.000402076
0.000414895
0.000427961
0.000441268
0.000454806
0.000468567
0.000482542
0.000496722
0.000511097
0.000525656
0.000540388
0.000555282
0.000570325
0.000585506
0.000600809
0.000616223
0.000631733
0.000647324
0.000662984
0.0006787
0.000694457
0.000710246
0.000726054
0.000741871
0.000757689
0.0007735
0.000789296
0.000805073
0.000820828
0.000836563
0.000852283
0.000868001
0.000883739
0.000899527
0.000915408
0.000931434
0.000947669
0.000964182
0.000981038
0.000998283
0.00101594
0.00103402
0.00105248
0.00107127
0.00109035
0.00110969
0.00112924
0.00114894
0.00116877
0.00118871
0.00120872
0.00122879
0.00124887
0.00126894
0.00128896
0.0013089
0.00132872
0.00134839
0.00136787
0.00138715
0.00140622
0.00142506
0.00144367
0.00146203
0.00148014
0.00149798
0.00151547
0.00153266
0.00154958
0.00156624
0.00158266
0.00159882
0.00161472
0.00163035
0.00164571
0.00166079
0.00167557
0.00169004
0.0017042
0.00171803
0.00173153
0.00174468
0.00175748
0.00176991
0.00178197
0.00179365
0.00180495
0.00181584
0.00182634
0.00183643
0.0018461
0.00185536
0.00186419
0.00187259
0.00188057
0.0018881
0.0018952
0.00190186
0.00190807
0.00191385
0.00191918
0.00192407
0.00192852
0.00193252
0.00193609
0.00193922
0.00194192
0.00194418
0.00194602
0.00194744
0.00194844
0.00194903
0.00194921
0.00194899
0.00194838
0.00194739
0.00194601
0.00194426
0.00194216
0.0019397
0.0019369
0.00193376
0.0019303
0.00192652
0.00192244
0.00191807
0.0019134
0.00190843
0.00190315
0.00189751
0.00189145
0.00188482
0.00187738
0.00186985
0.00186194
0.00185368
0.00184522
0.00183688
0.00182817
0.00181934
0.00181029
0.00180105
0.00179177
0.00178214
0.00177244
0.00176303
0.00175351
0.0017439
0.00173422
0.00172449
0.00171476
0.00170444
0.00169258
0.00167748
1.39174e-06
3.66435e-05
8.62618e-05
0.000127697
0.000160251
0.000185766
0.000206059
0.000222617
0.000236598
0.000248883
0.000260115
0.000270755
0.000281121
0.000291428
0.000301813
0.000312366
0.000323142
0.000334172
0.000345477
0.000357067
0.000368946
0.000381116
0.000393574
0.000406319
0.000419344
0.000432645
0.000446215
0.000460048
0.000474134
0.000488468
0.00050304
0.000517842
0.000532864
0.000548098
0.000563533
0.00057916
0.000594968
0.000610945
0.000627082
0.000643366
0.000659786
0.000676329
0.000692985
0.000709742
0.00072659
0.00074352
0.000760523
0.000777593
0.000794724
0.000811914
0.00082916
0.000846462
0.000863824
0.000881249
0.000898744
0.00091632
0.00093399
0.000951773
0.000969692
0.000987775
0.00100606
0.00102457
0.00104335
0.00106245
0.00108187
0.00110165
0.00112177
0.00114221
0.00116295
0.00118394
0.00120515
0.00122653
0.00124806
0.00126969
0.00129139
0.00131314
0.00133492
0.00135668
0.00137841
0.00140006
0.00142162
0.00144305
0.00146433
0.00148542
0.00150631
0.00152699
0.00154743
0.00156763
0.00158759
0.00160728
0.00162671
0.00164584
0.00166465
0.00168317
0.00170142
0.00171942
0.00173716
0.00175464
0.00177186
0.0017888
0.00180546
0.00182183
0.0018379
0.00185365
0.00186908
0.00188418
0.00189893
0.00191333
0.00192736
0.00194102
0.00195429
0.00196717
0.00197964
0.00199171
0.00200336
0.00201458
0.00202538
0.00203574
0.00204566
0.00205514
0.00206416
0.00207272
0.00208083
0.00208848
0.00209566
0.00210238
0.00210863
0.00211442
0.00211974
0.00212459
0.00212898
0.00213291
0.00213638
0.0021394
0.00214195
0.00214406
0.00214572
0.00214695
0.00214774
0.0021481
0.00214803
0.00214757
0.00214668
0.00214539
0.00214372
0.00214166
0.00213922
0.00213642
0.00213327
0.00212978
0.00212595
0.0021218
0.00211733
0.00211253
0.0021074
0.00210191
0.00209602
0.00208965
0.00208274
0.00207554
0.002068
0.00206014
0.00205202
0.00204375
0.00203524
0.00202654
0.00201768
0.00200864
0.00199945
0.00199006
0.00198057
0.00197111
0.0019616
0.00195206
0.00194248
0.00193288
0.00192322
0.00191317
0.00190198
0.00188872
1.55011e-06
3.90271e-05
9.18425e-05
0.00013661
0.00017229
0.000200619
0.000223388
0.000242095
0.000257925
0.000271792
0.000284384
0.000296204
0.000307614
0.000318863
0.00033012
0.000341497
0.000353066
0.000364872
0.000376942
0.000389291
0.000401927
0.000414853
0.000428068
0.00044157
0.000455353
0.000469414
0.000483745
0.000498339
0.00051319
0.000528288
0.000543627
0.000559198
0.000574992
0.000591
0.000607213
0.000623622
0.000640217
0.000656988
0.000673926
0.000691021
0.000708263
0.000725642
0.000743151
0.00076078
0.000778523
0.000796373
0.000814327
0.000832382
0.000850538
0.000868795
0.000887157
0.000905629
0.000924218
0.000942932
0.000961784
0.000980785
0.000999951
0.0010193
0.00103885
0.00105861
0.00107863
0.0010989
0.00111946
0.00114031
0.00116146
0.00118292
0.00120466
0.00122666
0.0012489
0.00127133
0.00129393
0.00131666
0.00133948
0.00136238
0.0013853
0.00140824
0.00143117
0.00145405
0.00147685
0.00149956
0.00152214
0.00154458
0.00156684
0.00158892
0.00161078
0.00163242
0.00165382
0.00167498
0.00169588
0.00171653
0.00173691
0.00175698
0.00177676
0.00179627
0.00181553
0.00183454
0.0018533
0.00187181
0.00189006
0.00190803
0.00192573
0.00194314
0.00196024
0.00197704
0.00199351
0.00200965
0.00202544
0.00204088
0.00205595
0.00207065
0.00208495
0.00209886
0.00211236
0.00212545
0.00213812
0.00215035
0.00216215
0.00217351
0.00218441
0.00219487
0.00220486
0.00221438
0.00222343
0.00223201
0.00224011
0.00224774
0.0022549
0.00226157
0.00226776
0.00227346
0.00227869
0.00228344
0.00228772
0.00229152
0.00229485
0.0022977
0.0023001
0.00230205
0.00230354
0.00230457
0.00230516
0.00230531
0.00230504
0.00230434
0.00230324
0.00230173
0.00229982
0.00229753
0.00229487
0.00229184
0.00228846
0.00228472
0.00228065
0.00227624
0.00227148
0.00226636
0.00226085
0.00225492
0.00224856
0.00224186
0.00223481
0.00222745
0.00221981
0.00221193
0.00220381
0.00219548
0.00218697
0.00217828
0.00216941
0.00216038
0.00215123
0.00214203
0.00213279
0.00212353
0.00211427
0.00210503
0.00209574
0.0020862
0.0020759
0.00206425
1.67013e-06
4.07951e-05
9.60378e-05
0.000143515
0.000181858
0.00021266
0.000237659
0.000258337
0.000275883
0.000291231
0.000305096
0.000318012
0.000330375
0.000342463
0.000354476
0.000366546
0.000378763
0.000391185
0.000403848
0.000416774
0.000429976
0.000443458
0.000457222
0.000471266
0.000485587
0.000500179
0.000515038
0.000530155
0.000545525
0.00056114
0.000576991
0.000593072
0.000609374
0.00062589
0.000642609
0.000659525
0.00067663
0.000693914
0.000711369
0.000728989
0.000746764
0.000764688
0.000782756
0.000800961
0.000819299
0.000837767
0.000856365
0.000875092
0.000893951
0.000912947
0.000932085
0.000951372
0.000970818
0.000990434
0.00101023
0.00103022
0.00105041
0.00107083
0.00109147
0.00111236
0.00113351
0.00115493
0.00117661
0.00119858
0.00122081
0.00124331
0.00126605
0.00128901
0.00131216
0.00133548
0.00135893
0.00138248
0.00140611
0.00142979
0.00145348
0.00147717
0.00150082
0.00152441
0.00154791
0.00157131
0.00159457
0.00161768
0.00164062
0.00166336
0.0016859
0.00170821
0.0017303
0.00175214
0.00177374
0.00179509
0.00181616
0.00183696
0.00185751
0.00187781
0.00189788
0.00191771
0.00193731
0.00195667
0.00197577
0.00199462
0.00201319
0.00203149
0.00204949
0.00206718
0.00208456
0.00210161
0.00211833
0.00213469
0.00215069
0.00216631
0.00218155
0.00219639
0.00221083
0.00222485
0.00223845
0.00225161
0.00226434
0.00227663
0.00228846
0.00229984
0.00231075
0.00232118
0.00233114
0.00234062
0.00234962
0.00235814
0.00236618
0.00237372
0.00238078
0.00238734
0.00239341
0.00239899
0.00240411
0.00240873
0.00241286
0.0024165
0.00241968
0.00242238
0.00242462
0.00242639
0.0024277
0.00242857
0.00242899
0.00242898
0.00242855
0.00242769
0.00242643
0.00242477
0.00242271
0.00242028
0.00241747
0.00241429
0.00241076
0.00240687
0.00240263
0.00239803
0.00239305
0.00238769
0.00238193
0.00237581
0.00236936
0.00236258
0.0023555
0.00234816
0.00234056
0.00233273
0.00232469
0.00231646
0.00230805
0.00229947
0.00229077
0.00228199
0.00227317
0.00226433
0.00225552
0.00224675
0.002238
0.00222911
0.00221975
0.00220949
1.75416e-06
4.20239e-05
9.90057e-05
0.000148614
0.00018917
0.000222104
0.000249075
0.000271526
0.000290638
0.000307347
0.000322381
0.000336299
0.000349518
0.000362344
0.000374999
0.000387636
0.000400361
0.000413247
0.00042634
0.000439668
0.000453249
0.000467093
0.000481203
0.000495579
0.000510219
0.000525119
0.000540273
0.000555677
0.000571322
0.000587203
0.000603313
0.000619644
0.000636189
0.00065294
0.000669891
0.000687035
0.000704364
0.000721873
0.000739553
0.0007574
0.000775409
0.000793574
0.000811891
0.000830358
0.000848973
0.000867736
0.000886647
0.000905711
0.00092493
0.000944312
0.000963862
0.000983591
0.00100351
0.00102362
0.00104395
0.00106449
0.00108526
0.00110627
0.00112753
0.00114905
0.00117082
0.00119286
0.00121516
0.00123773
0.00126054
0.00128359
0.00130686
0.00133032
0.00135397
0.00137776
0.00140168
0.00142569
0.00144977
0.00147389
0.00149803
0.00152215
0.00154625
0.00157029
0.00159424
0.00161809
0.00164181
0.00166538
0.00168879
0.00171201
0.00173503
0.00175784
0.00178044
0.0018028
0.00182493
0.00184681
0.00186846
0.00188988
0.00191108
0.00193207
0.00195284
0.00197341
0.00199375
0.00201387
0.00203374
0.00205338
0.00207275
0.00209185
0.00211067
0.00212919
0.00214741
0.00216531
0.00218288
0.0022001
0.00221697
0.00223347
0.00224959
0.00226531
0.00228063
0.00229554
0.00231002
0.00232408
0.0023377
0.00235088
0.0023636
0.00237588
0.00238768
0.00239901
0.00240985
0.00242021
0.00243009
0.00243949
0.00244841
0.00245684
0.00246476
0.00247218
0.0024791
0.00248553
0.00249148
0.00249693
0.00250188
0.00250635
0.00251034
0.00251385
0.00251688
0.00251944
0.00252154
0.00252318
0.00252438
0.00252512
0.00252543
0.00252531
0.00252477
0.00252382
0.00252247
0.00252072
0.00251858
0.00251606
0.00251318
0.00250993
0.00250632
0.00250234
0.002498
0.00249327
0.00248818
0.00248272
0.00247692
0.00247079
0.00246435
0.00245762
0.00245063
0.00244338
0.00243591
0.00242823
0.00242035
0.00241231
0.00240414
0.00239587
0.00238755
0.00237923
0.00237095
0.00236274
0.00235458
0.0023464
0.00233793
0.00232887
1.80558e-06
4.27861e-05
0.000100895
0.000152096
0.000194431
0.000229153
0.000257823
0.000281833
0.000302335
0.00032026
0.000336339
0.000351144
0.000365108
0.000378557
0.00039173
0.000404801
0.000417891
0.000431085
0.000444438
0.000457988
0.000471758
0.000485762
0.000500007
0.000514496
0.000529226
0.000544197
0.000559404
0.000574841
0.000590504
0.000606385
0.00062248
0.000638781
0.000655283
0.00067198
0.000688864
0.000705932
0.000723178
0.000740596
0.000758183
0.000775934
0.000793846
0.000811918
0.000830148
0.000848534
0.00086708
0.000885785
0.000904654
0.000923693
0.000942906
0.000962301
0.000981888
0.00100167
0.00102167
0.00104189
0.00106233
0.00108302
0.00110395
0.00112514
0.00114659
0.00116831
0.00119029
0.00121253
0.00123504
0.00125781
0.00128082
0.00130406
0.00132752
0.00135117
0.00137501
0.00139899
0.0014231
0.00144732
0.00147162
0.00149598
0.00152036
0.00154475
0.00156912
0.00159345
0.00161771
0.00164187
0.00166592
0.00168984
0.00171361
0.0017372
0.00176061
0.00178382
0.00180683
0.00182962
0.00185219
0.00187456
0.00189674
0.00191874
0.00194056
0.0019622
0.00198365
0.00200491
0.00202597
0.00204681
0.00206744
0.00208783
0.00210797
0.00212785
0.00214746
0.00216679
0.00218582
0.00220454
0.00222293
0.00224099
0.00225871
0.00227606
0.00229303
0.00230962
0.0023258
0.00234157
0.00235692
0.00237185
0.00238634
0.00240039
0.002414
0.00242717
0.00243985
0.00245206
0.00246378
0.00247502
0.00248578
0.00249605
0.00250583
0.00251512
0.00252391
0.0025322
0.00254
0.00254729
0.0025541
0.0025604
0.00256622
0.00257154
0.00257638
0.00258073
0.00258461
0.00258801
0.00259095
0.00259342
0.00259543
0.00259699
0.00259811
0.00259879
0.00259904
0.00259888
0.0025983
0.00259731
0.00259593
0.00259416
0.002592
0.00258948
0.00258658
0.00258331
0.00257968
0.00257567
0.0025713
0.00256656
0.00256147
0.00255605
0.00255031
0.00254427
0.00253794
0.00253134
0.0025245
0.00251744
0.00251017
0.00250273
0.00249514
0.00248745
0.0024797
0.00247195
0.00246424
0.00245663
0.00244911
0.00244162
0.00243398
0.00242595
1.82843e-06
4.31495e-05
0.000101846
0.000154141
0.000197835
0.000233997
0.000264077
0.000289404
0.000311093
0.000330058
0.000347026
0.000362571
0.00037714
0.000391069
0.000404615
0.000417965
0.000431252
0.000444575
0.000457998
0.000471567
0.000485311
0.000499249
0.000513392