/*--------------------------------*- C++ -*----------------------------------*\
  =========                 |
  \\      /  F ield         | OpenFOAM: The Open Source CFD Toolbox
   \\    /   O peration     | Website:  https://openfoam.org
    \\  /    A nd           | Version:  7
     \\/     M anipulation  |
\*---------------------------------------------------------------------------*/
FoamFile
{
    version     2.0;
    format      ascii;
    class       volScalarField;
    location    "0.3";
    object      p;
}
// * * * * * * * * * * * * * * * * * * * * * * * * * * * * * * * * * * * * * //

dimensions      [0 2 -2 0 0 0 0];

internalField   nonuniform List<scalar> 
12225
(
-2.36664
-1.77048
-1.70594
-1.75636
-1.69172
-1.59001
-1.51477
-1.46462
-1.42558
-1.39359
-1.36914
-1.35171
-1.33983
-1.33226
-1.32833
-1.32709
-1.32973
-1.32784
-3.71945
-2.48294
-1.95185
-1.812
-1.6982
-1.58421
-1.5053
-1.45435
-1.41579
-1.38471
-1.36116
-1.3445
-1.33326
-1.32625
-1.3228
-1.32218
-1.32462
-1.32933
-3.47636
-2.29459
-1.83852
-1.74964
-1.66619
-1.56655
-1.493
-1.44433
-1.40739
-1.37767
-1.35518
-1.33928
-1.32861
-1.32205
-1.31897
-1.31878
-1.32168
-1.32774
-3.03134
-2.18417
-1.81693
-1.73369
-1.65223
-1.55647
-1.4847
-1.43677
-1.40067
-1.37189
-1.35016
-1.33481
-1.32456
-1.31835
-1.31553
-1.31566
-1.31859
-1.32493
-2.73661
-2.16061
-1.82728
-1.72218
-1.63632
-1.54442
-1.47487
-1.42777
-1.39255
-1.36479
-1.34392
-1.32923
-1.31949
-1.31369
-1.31118
-1.31159
-1.31445
-1.32055
-2.52993
-2.12488
-1.81863
-1.70017
-1.61538
-1.52961
-1.46317
-1.41729
-1.38319
-1.3566
-1.33671
-1.32277
-1.3136
-1.30827
-1.3061
-1.30672
-1.30952
-1.31524
-2.3525
-2.06241
-1.79392
-1.67273
-1.59139
-1.5122
-1.44934
-1.40511
-1.37241
-1.34717
-1.32841
-1.31531
-1.30681
-1.30199
-1.30019
-1.30101
-1.30379
-1.30913
-2.19209
-1.98625
-1.76028
-1.64179
-1.56413
-1.49155
-1.4328
-1.3907
-1.35971
-1.33606
-1.31859
-1.3065
-1.29877
-1.29455
-1.29318
-1.29424
-1.29707
-1.30212
-2.0474
-1.90339
-1.71841
-1.60631
-1.53285
-1.46706
-1.41299
-1.37356
-1.34464
-1.32283
-1.30686
-1.29594
-1.28914
-1.28563
-1.28478
-1.28615
-1.28912
-1.29403
-1.91584
-1.81583
-1.66779
-1.5654
-1.49714
-1.43831
-1.38948
-1.35325
-1.32678
-1.30708
-1.29286
-1.28332
-1.2776
-1.27495
-1.27473
-1.27653
-1.27974
-1.28466
-1.79403
-1.7248
-1.60881
-1.51866
-1.45671
-1.40498
-1.36185
-1.32938
-1.30576
-1.28848
-1.27627
-1.26833
-1.26389
-1.26225
-1.26281
-1.26516
-1.26875
-1.27385
-1.68845
-1.63884
-1.54781
-1.47023
-1.41503
-1.36993
-1.33242
-1.30392
-1.2833
-1.26855
-1.25843
-1.25219
-1.24912
-1.24857
-1.25
-1.25301
-1.25708
-1.26251
-1.58797
-1.55218
-1.48228
-1.41744
-1.36949
-1.33112
-1.29947
-1.27531
-1.25803
-1.24607
-1.23828
-1.23394
-1.23241
-1.23312
-1.23556
-1.23936
-1.24406
-1.24992
-1.47634
-1.45173
-1.40147
-1.35088
-1.31192
-1.28142
-1.25675
-1.23806
-1.22507
-1.21667
-1.21188
-1.21001
-1.21052
-1.21289
-1.2167
-1.2216
-1.22721
-1.23373
-1.35138
-1.3357
-1.30277
-1.26735
-1.23921
-1.21792
-1.20147
-1.18956
-1.18205
-1.17823
-1.1773
-1.17866
-1.18185
-1.18645
-1.19212
-1.19855
-1.20544
-1.21296
-1.20967
-1.20113
-1.1831
-1.16316
-1.14762
-1.13707
-1.13025
-1.12664
-1.12608
-1.1281
-1.13214
-1.13771
-1.14445
-1.15205
-1.16023
-1.16878
-1.17748
-1.18646
-1.04548
-1.04289
-1.03798
-1.03369
-1.03249
-1.03458
-1.03913
-1.04561
-1.05376
-1.06324
-1.07366
-1.0847
-1.0961
-1.10767
-1.11924
-1.13069
-1.14187
-1.15294
-0.849042
-0.852064
-0.859917
-0.872263
-0.887714
-0.905012
-0.923347
-0.942245
-0.961352
-0.980352
-0.998992
-1.01711
-1.03461
-1.05143
-1.06751
-1.08284
-1.09738
-1.11133
-0.602373
-0.612578
-0.636069
-0.668982
-0.705375
-0.741913
-0.777653
-0.812266
-0.845324
-0.876482
-0.905634
-0.932835
-0.958181
-0.981773
-1.00371
-1.02412
-1.04308
-1.06088
-0.34161
-0.361331
-0.405388
-0.463921
-0.524607
-0.582307
-0.636775
-0.688086
-0.735682
-0.779241
-0.81895
-0.855182
-0.888267
-0.918489
-0.94612
-0.971429
-0.994627
-1.0161
-0.106065
-0.137203
-0.206127
-0.293122
-0.377808
-0.454921
-0.526314
-0.592471
-0.652519
-0.706326
-0.754577
-0.798018
-0.837196
-0.872565
-0.904565
-0.933608
-0.960014
-0.984267
0.134371
0.0857028
-0.0185516
-0.140452
-0.250006
-0.345851
-0.433764
-0.51407
-0.585334
-0.648
-0.703524
-0.753032
-0.797251
-0.836816
-0.872341
-0.904375
-0.933335
-0.959781
0.385281
0.308742
0.154675
-0.00766885
-0.1408
-0.254198
-0.358263
-0.451666
-0.532521
-0.602536
-0.664089
-0.718571
-0.766839
-0.80972
-0.848009
-0.882377
-0.91332
-0.941455
0.653178
0.53065
0.307573
0.103292
-0.0486518
-0.178425
-0.298569
-0.403626
-0.492133
-0.567971
-0.634396
-0.692837
-0.744243
-0.789659
-0.830054
-0.86619
-0.898629
-0.928026
0.946626
0.750555
0.432484
0.189943
0.0278572
-0.116631
-0.252571
-0.367562
-0.461858
-0.542211
-0.61251
-0.674028
-0.727805
-0.775119
-0.817085
-0.854535
-0.888085
-0.918407
1.27057
0.974186
0.532316
0.254946
0.0890217
-0.0684853
-0.218372
-0.34098
-0.439509
-0.523408
-0.596776
-0.660651
-0.716204
-0.764933
-0.808065
-0.846475
-0.88083
-0.911795
1.60534
1.18468
0.622288
0.318882
0.141792
-0.03325
-0.194854
-0.322254
-0.42367
-0.51041
-0.586205
-0.651863
-0.708749
-0.758552
-0.802571
-0.841703
-0.876669
-0.908135
1.94239
1.25573
0.660426
0.400081
0.208803
0.00188447
-0.174862
-0.307127
-0.411503
-0.501101
-0.579095
-0.646188
-0.704042
-0.754572
-0.799151
-0.838696
-0.873997
-0.905758
2.57529
1.03649
0.394123
0.301722
0.18397
-0.0121367
-0.186148
-0.313837
-0.415628
-0.504655
-0.582654
-0.649699
-0.707433
-0.757825
-0.802227
-0.841502
-0.876416
-0.907935
4.97751
2.05202
0.76124
0.48666
0.283507
0.0351438
-0.163703
-0.301564
-0.40826
-0.500445
-0.58064
-0.649215
-0.708082
-0.75938
-0.804523
-0.844339
-0.879407
-0.909838
-1.4712
-1.47118
-1.47134
-1.47164
-1.47205
-1.47252
-1.47305
-1.47364
-1.47429
-1.475
-1.47578
-1.47664
-1.47759
-1.47865
-1.47981
-1.4811
-1.48253
-1.48409
-1.48581
-1.4877
-1.48976
-1.49201
-1.49444
-1.49708
-1.49992
-1.50297
-1.50624
-1.50973
-1.51344
-1.51737
-1.52154
-1.52593
-1.53054
-1.53538
-1.54044
-1.54573
-1.55122
-1.55693
-1.56284
-1.56896
-1.57526
-1.58174
-1.58839
-1.5952
-1.60216
-1.60926
-1.61647
-1.62378
-1.63118
-1.63864
-1.64614
-1.65366
-1.66118
-1.66868
-1.67613
-1.6835
-1.69077
-1.6979
-1.70486
-1.71163
-1.71819
-1.72447
-1.73042
-1.73602
-1.74112
-1.74539
-1.74914
-1.75338
-1.75777
-1.76076
-1.76122
-1.76026
-1.75901
-1.76132
-1.76795
-1.77173
-1.76035
-1.73995
-1.72191
-1.72165
-1.71535
-1.70763
-1.70156
-1.6766
-1.65635
-1.63688
-1.61673
-1.59532
-1.57244
-1.54797
-1.52184
-1.49405
-1.46459
-1.4334
-1.40048
-1.36567
-1.32903
-1.29059
-1.25037
-1.20836
-1.1646
-1.11909
-1.07185
-1.02291
-0.972303
-0.920053
-0.866202
-0.810792
-0.753871
-0.695487
-0.635695
-0.574554
-0.512124
-0.448471
-0.383662
-0.317768
-0.250861
-0.183017
-0.114312
-0.0448257
0.0253618
0.0961693
0.167515
0.239316
0.311492
0.383959
0.456636
0.529444
0.602303
0.675134
0.74786
0.820408
0.892705
0.964678
1.03626
1.10739
1.17799
1.24801
1.3174
1.38609
1.45404
1.52119
1.58751
1.65294
1.71746
1.78102
1.84359
1.90515
1.96567
2.02513
2.08351
2.1408
2.19698
2.25204
2.30595
2.35862
2.41034
2.46122
2.51026
2.5584
2.60539
2.65062
2.69375
2.73307
2.78014
2.82142
2.86294
2.90555
2.9336
2.97583
3.01736
3.04665
3.07865
3.1102
3.14092
3.17027
3.19942
3.22864
3.25531
3.28925
-1.47075
-1.47083
-1.471
-1.47127
-1.47158
-1.4719
-1.47222
-1.47259
-1.47302
-1.47352
-1.47412
-1.47482
-1.47562
-1.47653
-1.47757
-1.47874
-1.48005
-1.48151
-1.48313
-1.48492
-1.48689
-1.48904
-1.49139
-1.49394
-1.4967
-1.49967
-1.50286
-1.50627
-1.5099
-1.51376
-1.51784
-1.52215
-1.52668
-1.53144
-1.53641
-1.5416
-1.54701
-1.55262
-1.55843
-1.56443
-1.57062
-1.57698
-1.58351
-1.5902
-1.59702
-1.60397
-1.61103
-1.61818
-1.62542
-1.63271
-1.64004
-1.64739
-1.65473
-1.66203
-1.66927
-1.6764
-1.6834
-1.69022
-1.69683
-1.70317
-1.70918
-1.71482
-1.72002
-1.72473
-1.72909
-1.73346
-1.73756
-1.74013
-1.7409
-1.74142
-1.7435
-1.74624
-1.74781
-1.74473
-1.73547
-1.72484
-1.72469
-1.72801
-1.72753
-1.71153
-1.70062
-1.68877
-1.67091
-1.66582
-1.65186
-1.63469
-1.61564
-1.59493
-1.57259
-1.54861
-1.52294
-1.49556
-1.46645
-1.43553
-1.40275
-1.36826
-1.33204
-1.29404
-1.25428
-1.21275
-1.16946
-1.12442
-1.07766
-1.0292
-0.979058
-0.927278
-0.873892
-0.818943
-0.762475
-0.704538
-0.645185
-0.584472
-0.52246
-0.459214
-0.394799
-0.329286
-0.262746
-0.195254
-0.126886
-0.0577206
0.0121628
0.0826833
0.15376
0.22531
0.297252
0.369504
0.441986
0.514617
0.587317
0.660009
0.732615
0.805061
0.877273
0.949181
1.02072
1.09181
1.1624
1.23243
1.30183
1.37056
1.43855
1.50577
1.57216
1.63768
1.7023
1.76597
1.82867
1.89036
1.95103
2.01064
2.06917
2.12662
2.18297
2.2382
2.29228
2.34517
2.39706
2.44793
2.49776
2.54594
2.59296
2.63859
2.6828
2.72878
2.76916
2.81145
2.85111
2.88788
2.93042
2.96551
2.99865
3.03477
3.06848
3.10083
3.13233
3.16308
3.19353
3.22355
3.25972
3.2942
-1.46936
-1.4697
-1.47012
-1.47054
-1.47086
-1.47111
-1.47133
-1.47158
-1.47189
-1.47228
-1.47277
-1.47336
-1.47407
-1.47491
-1.47587
-1.47698
-1.47823
-1.47964
-1.48121
-1.48295
-1.48488
-1.48698
-1.48929
-1.49179
-1.4945
-1.49741
-1.50054
-1.50389
-1.50745
-1.51124
-1.51524
-1.51947
-1.52392
-1.52858
-1.53347
-1.53856
-1.54387
-1.54938
-1.5551
-1.561
-1.56709
-1.57336
-1.5798
-1.58639
-1.59313
-1.6
-1.60699
-1.61407
-1.62125
-1.62849
-1.63578
-1.6431
-1.65042
-1.65771
-1.66496
-1.67213
-1.6792
-1.68611
-1.69285
-1.69938
-1.70565
-1.71162
-1.71728
-1.72256
-1.72744
-1.73202
-1.73632
-1.73991
-1.74239
-1.744
-1.74518
-1.74571
-1.74541
-1.7436
-1.73873
-1.73232
-1.7291
-1.72714
-1.72313
-1.71333
-1.70231
-1.69008
-1.67571
-1.66377
-1.64915
-1.63246
-1.61398
-1.59379
-1.57194
-1.54842
-1.52321
-1.49629
-1.46762
-1.43722
-1.40502
-1.37107
-1.33537
-1.29791
-1.25869
-1.2177
-1.17496
-1.13048
-1.08427
-1.03637
-0.986786
-0.935561
-0.882728
-0.828327
-0.772401
-0.714999
-0.656173
-0.595978
-0.534473
-0.471722
-0.40779
-0.342745
-0.276659
-0.209604
-0.141657
-0.0728948
-0.00339598
0.0667593
0.13749
0.208715
0.280353
0.352323
0.424543
0.496935
0.569417
0.641914
0.714347
0.786642
0.858726
0.930526
1.00197
1.073
1.14355
1.21355
1.28295
1.35169
1.41972
1.48699
1.55345
1.61906
1.68377
1.74756
1.81039
1.87222
1.93304
1.99281
2.05152
2.10916
2.16569
2.22111
2.27539
2.32846
2.38049
2.43147
2.48149
2.53006
2.57737
2.62351
2.66857
2.71468
2.75621
2.79746
2.83799
2.87468
2.91672
2.95298
2.98569
3.02178
3.05603
3.08873
3.12058
3.1518
3.18287
3.21355
3.25002
3.2815
-1.46722
-1.46781
-1.46859
-1.4693
-1.4698
-1.47016
-1.47046
-1.47074
-1.47106
-1.47145
-1.47193
-1.47252
-1.47323
-1.47406
-1.47503
-1.47614
-1.4774
-1.47882
-1.4804
-1.48216
-1.48409
-1.48621
-1.48852
-1.49103
-1.49373
-1.49664
-1.49976
-1.50308
-1.50663
-1.51038
-1.51435
-1.51854
-1.52294
-1.52756
-1.53239
-1.53744
-1.54268
-1.54814
-1.55379
-1.55963
-1.56566
-1.57187
-1.57825
-1.58478
-1.59146
-1.59828
-1.60522
-1.61227
-1.6194
-1.62662
-1.63388
-1.64118
-1.64849
-1.65579
-1.66304
-1.67023
-1.67731
-1.68426
-1.69103
-1.6976
-1.70391
-1.70993
-1.71563
-1.72096
-1.72587
-1.73034
-1.73431
-1.73768
-1.74032
-1.74225
-1.74346
-1.7438
-1.74317
-1.74143
-1.73824
-1.73396
-1.7297
-1.72522
-1.71943
-1.71146
-1.7016
-1.6902
-1.67745
-1.66391
-1.64897
-1.63242
-1.61421
-1.59437
-1.57287
-1.5497
-1.52484
-1.49827
-1.46997
-1.43993
-1.40814
-1.37461
-1.33933
-1.30229
-1.26349
-1.22293
-1.18062
-1.13658
-1.09081
-1.04334
-0.994191
-0.943399
-0.890996
-0.837022
-0.781519
-0.724534
-0.666118
-0.606327
-0.545218
-0.482854
-0.419299
-0.354621
-0.28889
-0.222179
-0.154562
-0.0861167
-0.0169209
0.0529461
0.123404
0.194371
0.265767
0.337512
0.409524
0.481723
0.554031
0.62637
0.698663
0.770835
0.842812
0.914524
0.9859
1.05687
1.12738
1.19736
1.26675
1.3355
1.40355
1.47085
1.53736
1.60303
1.66782
1.7317
1.79463
1.85657
1.91751
1.97741
2.03626
2.09403
2.15071
2.20629
2.26074
2.31401
2.36628
2.41725
2.46724
2.51614
2.56357
2.60999
2.65539
2.70084
2.74349
2.78468
2.8255
2.86335
2.90352
2.94069
2.97469
3.01013
3.04447
3.07738
3.10944
3.1408
3.17209
3.20289
3.23767
3.26537
-1.46484
-1.46568
-1.46687
-1.46794
-1.46871
-1.46926
-1.46971
-1.47011
-1.47053
-1.471
-1.47155
-1.47219
-1.47295
-1.47384
-1.47486
-1.47602
-1.47733
-1.4788
-1.48043
-1.48223
-1.48421
-1.48636
-1.4887
-1.49124
-1.49397
-1.49689
-1.50002
-1.50336
-1.5069
-1.51065
-1.51462
-1.51879
-1.52318
-1.52778
-1.53258
-1.5376
-1.54282
-1.54824
-1.55386
-1.55967
-1.56567
-1.57185
-1.57819
-1.5847
-1.59136
-1.59815
-1.60508
-1.61211
-1.61924
-1.62644
-1.63371
-1.64101
-1.64833
-1.65563
-1.6629
-1.67011
-1.67721
-1.68418
-1.69097
-1.69756
-1.7039
-1.70993
-1.71563
-1.72095
-1.72583
-1.73024
-1.73411
-1.73737
-1.73998
-1.74193
-1.74316
-1.74358
-1.74306
-1.74144
-1.73869
-1.73501
-1.73064
-1.72549
-1.71917
-1.71128
-1.70184
-1.69093
-1.67865
-1.66515
-1.65024
-1.63379
-1.61576
-1.59612
-1.57485
-1.55192
-1.52731
-1.501
-1.47297
-1.44321
-1.41171
-1.37847
-1.34348
-1.30673
-1.26823
-1.22796
-1.18595
-1.1422
-1.09672
-1.04955
-1.00069
-0.950195
-0.898083
-0.844397
-0.789178
-0.732475
-0.674336
-0.614818
-0.553976
-0.491874
-0.428574
-0.364144
-0.298655
-0.232177
-0.164786
-0.0965578
-0.0275695
0.0420995
0.112369
0.183159
0.254387
0.325975
0.397841
0.469906
0.542092
0.614319
0.686512
0.758595
0.830495
0.902141
0.973463
1.04439
1.11487
1.18483
1.25421
1.32295
1.39101
1.45834
1.52488
1.59059
1.65543
1.71936
1.78236
1.84438
1.90539
1.96538
2.02432
2.0822
2.13899
2.19468
2.24926
2.30266
2.35502
2.40608
2.45607
2.50511
2.55268
2.59922
2.64475
2.68982
2.73283
2.77433
2.81509
2.85379
2.89316
2.93042
2.96537
3.00063
3.03492
3.06798
3.10014
3.13151
3.16269
3.19314
3.22628
3.25029
-1.4627
-1.46377
-1.46531
-1.46672
-1.46777
-1.46855
-1.46918
-1.46976
-1.47032
-1.47091
-1.47157
-1.47232
-1.47317
-1.47414
-1.47525
-1.47649
-1.47788
-1.47942
-1.48112
-1.48298
-1.48502
-1.48723
-1.48963
-1.49221
-1.49497
-1.49794
-1.5011
-1.50446
-1.50802
-1.51178
-1.51576
-1.51994
-1.52433
-1.52892
-1.53373
-1.53873
-1.54395
-1.54936
-1.55497
-1.56077
-1.56676
-1.57293
-1.57927
-1.58578
-1.59243
-1.59923
-1.60615
-1.61319
-1.62033
-1.62755
-1.63483
-1.64215
-1.64948
-1.65681
-1.66411
-1.67133
-1.67846
-1.68545
-1.69227
-1.69888
-1.70523
-1.71129
-1.71701
-1.72233
-1.72722
-1.73162
-1.73549
-1.73877
-1.74141
-1.74336
-1.74459
-1.745
-1.7445
-1.743
-1.74047
-1.737
-1.73265
-1.72732
-1.72078
-1.71287
-1.70355
-1.69284
-1.68077
-1.66735
-1.6525
-1.63615
-1.61823
-1.59873
-1.57761
-1.55483
-1.53039
-1.50426
-1.47642
-1.44686
-1.41555
-1.38251
-1.34771
-1.31116
-1.27284
-1.23277
-1.19095
-1.14739
-1.10211
-1.05513
-1.00646
-0.956154
-0.90423
-0.85073
-0.795697
-0.739176
-0.681219
-0.621878
-0.561212
-0.499281
-0.43615
-0.371886
-0.306557
-0.240236
-0.172997
-0.104915
-0.0360681
0.0334654
0.103605
0.174272
0.245383
0.316861
0.388624
0.460592
0.532689
0.604834
0.676952
0.748968
0.820808
0.892402
0.963679
1.03457
1.10502
1.17495
1.24431
1.31305
1.38111
1.44844
1.51499
1.58073
1.64559
1.70956
1.77259
1.83466
1.89572
1.95577
2.01478
2.07272
2.12958
2.18534
2.23999
2.29348
2.34589
2.39704
2.44709
2.49614
2.54384
2.59047
2.63607
2.6809
2.72408
2.76581
2.80659
2.84574
2.88471
2.92207
2.95755
2.99272
3.027
3.06013
3.09231
3.12363
3.15449
3.18427
3.2159
3.23668
-1.46117
-1.46239
-1.4642
-1.46589
-1.46718
-1.46818
-1.46901
-1.46976
-1.47048
-1.47121
-1.472
-1.47287
-1.47383
-1.47491
-1.47611
-1.47745
-1.47893
-1.48055
-1.48233
-1.48427
-1.48638
-1.48865
-1.4911
-1.49374
-1.49655
-1.49956
-1.50276
-1.50615
-1.50974
-1.51353
-1.51753
-1.52173
-1.52613
-1.53074
-1.53555
-1.54057
-1.5458
-1.55122
-1.55684
-1.56265
-1.56865
-1.57483
-1.58118
-1.5877
-1.59437
-1.60119
-1.60813
-1.61519
-1.62235
-1.6296
-1.6369
-1.64425
-1.65162
-1.65898
-1.6663
-1.67355
-1.6807
-1.68772
-1.69457
-1.7012
-1.70757
-1.71365
-1.71938
-1.72473
-1.72963
-1.73406
-1.73795
-1.74125
-1.74392
-1.74589
-1.74712
-1.74752
-1.74704
-1.74561
-1.7432
-1.73982
-1.73546
-1.73005
-1.72345
-1.71554
-1.70628
-1.69566
-1.68368
-1.67031
-1.65551
-1.63921
-1.62137
-1.60194
-1.58091
-1.55824
-1.5339
-1.50788
-1.48016
-1.45071
-1.41953
-1.38661
-1.35193
-1.31549
-1.27729
-1.23734
-1.19563
-1.15219
-1.10702
-1.06015
-1.0116
-0.961403
-0.909592
-0.856204
-0.801283
-0.744874
-0.687027
-0.627797
-0.56724
-0.505418
-0.442395
-0.378236
-0.313013
-0.246795
-0.179656
-0.111673
-0.042922
0.0265182
0.0965677
0.167147
0.238175
0.309571
0.381258
0.453154
0.525182
0.597263
0.669321
0.741281
0.81307
0.884617
0.955851
1.02671
1.09712
1.16702
1.23636
1.30508
1.37313
1.44045
1.507
1.57273
1.63761
1.70159
1.76464
1.82672
1.88782
1.9479
2.00694
2.06492
2.12182
2.17763
2.23232
2.28586
2.3383
2.38952
2.43962
2.48868
2.53647
2.58316
2.62879
2.6735
2.71676
2.75864
2.79946
2.83888
2.87765
2.91507
2.95088
2.98602
3.02027
3.05339
3.08552
3.11667
3.14714
3.1762
3.20656
3.22458
-1.4604
-1.46172
-1.4637
-1.46559
-1.46708
-1.46826
-1.46927
-1.47017
-1.47104
-1.47191
-1.47283
-1.47382
-1.47489
-1.47608
-1.47738
-1.4788
-1.48037
-1.48208
-1.48393
-1.48594
-1.48812
-1.49046
-1.49297
-1.49565
-1.49852
-1.50157
-1.50481
-1.50824
-1.51186
-1.51568
-1.51971
-1.52393
-1.52836
-1.533
-1.53783
-1.54288
-1.54812
-1.55356
-1.55921
-1.56504
-1.57106
-1.57727
-1.58365
-1.59019
-1.5969
-1.60374
-1.61072
-1.61782
-1.62502
-1.6323
-1.63964
-1.64703
-1.65443
-1.66183
-1.66918
-1.67647
-1.68366
-1.6907
-1.69758
-1.70424
-1.71064
-1.71674
-1.7225
-1.72787
-1.7328
-1.73724
-1.74116
-1.74448
-1.74717
-1.74915
-1.75039
-1.7508
-1.75034
-1.74895
-1.74659
-1.74325
-1.73888
-1.73342
-1.72677
-1.71886
-1.70964
-1.69906
-1.68711
-1.67377
-1.65898
-1.64271
-1.6249
-1.60551
-1.58452
-1.5619
-1.53762
-1.51165
-1.48399
-1.4546
-1.42348
-1.39061
-1.35599
-1.31961
-1.28146
-1.24156
-1.19991
-1.15652
-1.11141
-1.06459
-1.0161
-0.965954
-0.914199
-0.860868
-0.806004
-0.749652
-0.691865
-0.632694
-0.572199
-0.510439
-0.447478
-0.383384
-0.318224
-0.252071
-0.184998
-0.117079
-0.0483925
0.0209835
0.0909696
0.161486
0.232452
0.303788
0.375415
0.447254
0.519227
0.591254
0.66326
0.73517
0.806911
0.878413
0.949604
1.02042
1.09079
1.16066
1.22997
1.29866
1.36668
1.43398
1.50051
1.56623
1.6311
1.69507
1.75812
1.82021
1.88131
1.9414
2.00046
2.05845
2.11538
2.1712
2.22592
2.27949
2.33195
2.38321
2.43336
2.48242
2.53026
2.577
2.62265
2.66728
2.71058
2.75256
2.79341
2.833
2.87168
2.90912
2.94515
2.98028
3.01448
3.04755
3.07956
3.11048
3.14051
3.16884
3.19814
3.2138
-1.46047
-1.46182
-1.46388
-1.46588
-1.46751
-1.46883
-1.46997
-1.471
-1.472
-1.47299
-1.47402
-1.47511
-1.47629
-1.47756
-1.47895
-1.48046
-1.4821
-1.48388
-1.4858
-1.48787
-1.4901
-1.4925
-1.49506
-1.49779
-1.5007
-1.5038
-1.50707
-1.51054
-1.5142
-1.51806
-1.52211
-1.52637
-1.53083
-1.53549
-1.54036
-1.54543
-1.55071
-1.55618
-1.56186
-1.56773
-1.57379
-1.58003
-1.58645
-1.59304
-1.59978
-1.60667
-1.61369
-1.62084
-1.62808
-1.63541
-1.6428
-1.65023
-1.65768
-1.66512
-1.67251
-1.67984
-1.68707
-1.69415
-1.70106
-1.70775
-1.71418
-1.72031
-1.7261
-1.7315
-1.73645
-1.74092
-1.74485
-1.74819
-1.75088
-1.75288
-1.75412
-1.75454
-1.75409
-1.75271
-1.75038
-1.74704
-1.74264
-1.73714
-1.73046
-1.72253
-1.7133
-1.70273
-1.69079
-1.67744
-1.66264
-1.64636
-1.62855
-1.60916
-1.58818
-1.56557
-1.5413
-1.51534
-1.48769
-1.45831
-1.4272
-1.39434
-1.35972
-1.32335
-1.28521
-1.24532
-1.20367
-1.16029
-1.11518
-1.06837
-1.01989
-0.969755
-0.918013
-0.864697
-0.80985
-0.753519
-0.695753
-0.636607
-0.576139
-0.514409
-0.45148
-0.38742
-0.322298
-0.256184
-0.189152
-0.121276
-0.0526338
0.0166966
0.0866357
0.157104
0.228022
0.299309
0.370886
0.442675
0.514598
0.586575
0.658532
0.730393
0.802086
0.873538
0.944682
1.01545
1.08578
1.15561
1.22487
1.29352
1.36151
1.42877
1.49527
1.56097
1.62581
1.68976
1.75279
1.81487
1.87596
1.93605
1.99509
2.05309
2.11001
2.16585
2.22057
2.27415
2.32661
2.37791
2.42807
2.47714
2.52502
2.57178
2.61744
2.66202
2.70534
2.74738
2.78828
2.82796
2.8666
2.90406
2.9402
2.97533
3.00946
3.04245
3.0743
3.10495
3.13454
3.16216
3.19053
3.2042
-1.46134
-1.46267
-1.46473
-1.46676
-1.46845
-1.46986
-1.47109
-1.47223
-1.47331
-1.4744
-1.47551
-1.47669
-1.47794
-1.47929
-1.48074
-1.48231
-1.48401
-1.48584
-1.48782
-1.48994
-1.49222
-1.49465
-1.49725
-1.50003
-1.50297
-1.5061
-1.50941
-1.51292
-1.51661
-1.5205
-1.52459
-1.52888
-1.53337
-1.53807
-1.54297
-1.54808
-1.55339
-1.55891
-1.56462
-1.57053
-1.57664
-1.58293
-1.58939
-1.59603
-1.60282
-1.60977
-1.61684
-1.62404
-1.63133
-1.63871
-1.64616
-1.65364
-1.66114
-1.66862
-1.67607
-1.68344
-1.6907
-1.69783
-1.70477
-1.7115
-1.71796
-1.72412
-1.72993
-1.73535
-1.74032
-1.74481
-1.74875
-1.75209
-1.75479
-1.75678
-1.75801
-1.75843
-1.75797
-1.7566
-1.75425
-1.75089
-1.74646
-1.74091
-1.73418
-1.72621
-1.71695
-1.70636
-1.69439
-1.68101
-1.66618
-1.64987
-1.63202
-1.61261
-1.5916
-1.56896
-1.54467
-1.51869
-1.491
-1.4616
-1.43045
-1.39756
-1.36291
-1.32651
-1.28834
-1.24841
-1.20674
-1.16333
-1.11819
-1.07136
-1.02285
-0.972703
-0.920945
-0.867617
-0.812761
-0.756425
-0.698657
-0.639514
-0.579051
-0.517332
-0.454417
-0.390375
-0.325274
-0.259186
-0.192183
-0.124339
-0.055731
0.0135617
0.0834607
0.153887
0.22476
0.296001
0.36753
0.439269
0.511139
0.583063
0.654966
0.726773
0.798411
0.869808
0.940896
1.01161
1.08188
1.15166
1.22087
1.28947
1.35741
1.42462
1.49108
1.55673
1.62153
1.68545
1.74845
1.8105
1.87157
1.93163
1.99066
2.04864
2.10555
2.16137
2.21608
2.26966
2.32212
2.37343
2.4236
2.47267
2.52056
2.56734
2.613
2.65755
2.70088
2.74297
2.78389
2.82363
2.86226
2.89972
2.93593
2.97104
3.00509
3.03797
3.06964
3.10001
3.12914
3.15609
3.18364
3.19564
-1.46292
-1.46419
-1.46617
-1.46817
-1.46987
-1.47131
-1.47259
-1.47378
-1.47492
-1.47607
-1.47724
-1.47847
-1.47977
-1.48116
-1.48265
-1.48426
-1.486
-1.48787
-1.48987
-1.49203
-1.49433
-1.4968
-1.49943
-1.50223
-1.5052
-1.50836
-1.5117
-1.51523
-1.51895
-1.52287
-1.52699
-1.53132
-1.53584
-1.54058
-1.54552
-1.55067
-1.55602
-1.56158
-1.56734
-1.5733
-1.57946
-1.5858
-1.59232
-1.59901
-1.60586
-1.61286
-1.61999
-1.62724
-1.63459
-1.64203
-1.64953
-1.65706
-1.66461
-1.67214
-1.67963
-1.68705
-1.69435
-1.70151
-1.70848
-1.71523
-1.72172
-1.7279
-1.73373
-1.73916
-1.74414
-1.74862
-1.75256
-1.75589
-1.75857
-1.76055
-1.76176
-1.76215
-1.76167
-1.76026
-1.75788
-1.75448
-1.75
-1.74439
-1.7376
-1.72957
-1.72026
-1.70961
-1.69759
-1.68415
-1.66927
-1.6529
-1.635
-1.61553
-1.59447
-1.57178
-1.54743
-1.52139
-1.49365
-1.46418
-1.43297
-1.40002
-1.36531
-1.32885
-1.29062
-1.25064
-1.20891
-1.16545
-1.12027
-1.07339
-1.02484
-0.974656
-0.922865
-0.869509
-0.814631
-0.758276
-0.700496
-0.641344
-0.58088
-0.519163
-0.456256
-0.392227
-0.327143
-0.261076
-0.194099
-0.126287
-0.0577158
0.0115365
0.0813919
0.151771
0.222595
0.293784
0.365258
0.436939
0.508749
0.580613
0.652453
0.724196
0.795768
0.867098
0.938118
1.00876
1.07897
1.14867
1.21782
1.28636
1.35423
1.42139
1.48778
1.55338
1.61813
1.68199
1.74495
1.80695
1.86798
1.928
1.987
2.04495
2.10183
2.15763
2.21232
2.26589
2.31834
2.36964
2.41982
2.46887
2.51677
2.56355
2.60921
2.65373
2.69706
2.73918
2.78013
2.8199
2.85852
2.89598
2.93222
2.96731
3.00128
3.03403
3.0655
3.09557
3.12426
3.15057
3.17739
3.188
-1.46507
-1.46625
-1.46811
-1.47002
-1.47167
-1.4731
-1.47438
-1.47559
-1.47675
-1.47792
-1.47911
-1.48035
-1.48167
-1.48308
-1.48459
-1.48622
-1.48797
-1.48985
-1.49187
-1.49403
-1.49635
-1.49883
-1.50148
-1.50429
-1.50729
-1.51046
-1.51382
-1.51738
-1.52112
-1.52507
-1.52922
-1.53357
-1.53814
-1.54291
-1.54789
-1.55308
-1.55848
-1.56408
-1.56989
-1.5759
-1.58211
-1.5885
-1.59508
-1.60182
-1.60873
-1.61578
-1.62297
-1.63028
-1.63768
-1.64517
-1.65271
-1.66029
-1.66788
-1.67546
-1.68298
-1.69042
-1.69775
-1.70493
-1.71192
-1.71869
-1.72518
-1.73136
-1.73719
-1.7426
-1.74757
-1.75203
-1.75594
-1.75925
-1.76189
-1.76382
-1.76499
-1.76533
-1.7648
-1.76334
-1.7609
-1.75743
-1.75288
-1.74719
-1.74032
-1.73222
-1.72282
-1.7121
-1.70001
-1.6865
-1.67154
-1.65509
-1.63712
-1.61759
-1.59645
-1.57368
-1.54925
-1.52313
-1.4953
-1.46575
-1.43446
-1.40143
-1.36665
-1.33011
-1.29181
-1.25176
-1.20996
-1.16644
-1.1212
-1.07426
-1.02567
-0.975439
-0.923611
-0.870224
-0.81532
-0.758947
-0.701155
-0.641999
-0.581536
-0.519826
-0.456933
-0.392922
-0.327863
-0.261826
-0.194884
-0.127112
-0.0585865
0.0106157
0.0804169
0.150738
0.2215
0.292624
0.36403
0.43564
0.507377
0.579164
0.650925
0.722588
0.794078
0.865325
0.936262
1.00682
1.07694
1.14656
1.21563
1.28408
1.35187
1.41895
1.48527
1.55079
1.61547
1.67928
1.74216
1.80411
1.86508
1.92505
1.984
2.04191
2.09875
2.15451
2.20917
2.26272
2.31515
2.36644
2.4166
2.46564
2.51354
2.56031
2.60596
2.65047
2.6938
2.73594
2.7769
2.81669
2.85531
2.89277
2.929
2.96406
2.99793
3.03055
3.06181
3.09158
3.11985
3.14556
3.17173
3.18118
-1.46768
-1.46875
-1.47045
-1.47222
-1.47378
-1.47514
-1.47639
-1.47756
-1.47871
-1.47985
-1.48103
-1.48226
-1.48357
-1.48497
-1.48647
-1.48808
-1.48982
-1.49169
-1.4937
-1.49586
-1.49818
-1.50066
-1.50331
-1.50613
-1.50913
-1.51231
-1.51569
-1.51926
-1.52303
-1.527
-1.53117
-1.53556
-1.54015
-1.54496
-1.54998
-1.55521
-1.56065
-1.5663
-1.57215
-1.57821
-1.58446
-1.5909
-1.59752
-1.60432
-1.61127
-1.61837
-1.6256
-1.63295
-1.64039
-1.64792
-1.65549
-1.6631
-1.67071
-1.6783
-1.68584
-1.69329
-1.70062
-1.7078
-1.71478
-1.72153
-1.728
-1.73415
-1.73994
-1.74532
-1.75024
-1.75465
-1.75851
-1.76175
-1.76433
-1.76619
-1.76728
-1.76754
-1.76693
-1.76539
-1.76287
-1.75931
-1.75466
-1.74888
-1.74192
-1.73372
-1.72423
-1.71342
-1.70124
-1.68764
-1.6726
-1.65607
-1.63802
-1.61839
-1.59716
-1.57429
-1.54976
-1.52354
-1.49562
-1.46598
-1.4346
-1.40148
-1.36661
-1.32999
-1.29162
-1.25149
-1.20963
-1.16605
-1.12075
-1.07377
-1.02513
-0.974868
-0.923011
-0.869601
-0.814683
-0.758302
-0.700511
-0.641362
-0.580913
-0.519224
-0.456359
-0.392382
-0.327364
-0.261373
-0.194484
-0.12677
-0.0583089
0.0108246
0.0805522
0.150796
0.221476
0.292514
0.363832
0.43535
0.506992
0.578681
0.650344
0.721905
0.793292
0.864436
0.935267
1.00572
1.07574
1.14525
1.21422
1.28257
1.35026
1.41724
1.48347
1.5489
1.6135
1.67722
1.74003
1.8019
1.8628
1.92271
1.98159
2.03944
2.09623
2.15195
2.20657
2.26008
2.31247
2.36374
2.41389
2.46291
2.5108
2.55756
2.60319
2.64769
2.69101
2.73316
2.77413
2.81393
2.85256
2.89
2.92622
2.96123
2.99502
3.02748
3.05854
3.08801
3.11587
3.14103
3.16659
3.17511
-1.47061
-1.47156
-1.47308
-1.47468
-1.47611
-1.47737
-1.47853
-1.47963
-1.48071
-1.4818
-1.48292
-1.48411
-1.48536
-1.48672
-1.48817
-1.48975
-1.49146
-1.4933
-1.49528
-1.49743
-1.49973
-1.50219
-1.50483
-1.50765
-1.51065
-1.51384
-1.51722
-1.5208
-1.52459
-1.52857
-1.53277
-1.53718
-1.5418
-1.54663
-1.55168
-1.55694
-1.56241
-1.56809
-1.57398
-1.58007
-1.58636
-1.59283
-1.59948
-1.6063
-1.61328
-1.6204
-1.62765
-1.63501
-1.64247
-1.64999
-1.65757
-1.66517
-1.67277
-1.68034
-1.68785
-1.69527
-1.70257
-1.7097
-1.71663
-1.72332
-1.72973
-1.73581
-1.74153
-1.74683
-1.75166
-1.75599
-1.75975
-1.76289
-1.76537
-1.76713
-1.76812
-1.76828
-1.76756
-1.76592
-1.76329
-1.75962
-1.75487
-1.74898
-1.74191
-1.73361
-1.72403
-1.71312
-1.70084
-1.68716
-1.67203
-1.65541
-1.63726
-1.61754
-1.5962
-1.57323
-1.54859
-1.52227
-1.49425
-1.46452
-1.43305
-1.39985
-1.36491
-1.32821
-1.28977
-1.24959
-1.20767
-1.16404
-1.1187
-1.07169
-1.02303
-0.972744
-0.920877
-0.867465
-0.812553
-0.756187
-0.698419
-0.639301
-0.57889
-0.517247
-0.454435
-0.390519
-0.325567
-0.25965
-0.19284
-0.125212
-0.0568414
0.0121962
0.0818231
0.151961
0.222533
0.293458
0.36466
0.436059
0.50758
0.579146
0.650683
0.722117
0.793376
0.864391
0.935093
1.00542
1.07531
1.1447
1.21353
1.28176
1.34934
1.4162
1.48232
1.54764
1.61213
1.67575
1.73846
1.80024
1.86106
1.92089
1.9797
2.03748
2.09421
2.14986
2.20443
2.2579
2.31025
2.36149
2.41161
2.46061
2.50848
2.55522
2.60084
2.64532
2.68865
2.7308
2.77178
2.81158
2.85021
2.88763
2.92384
2.9588
2.99248
3.0248
3.05565
3.08484
3.1123
3.13696
3.16195
3.16974
-1.47377
-1.47459
-1.47592
-1.47733
-1.47859
-1.47971
-1.48074
-1.48172
-1.48269
-1.48367
-1.4847
-1.48579
-1.48697
-1.48824
-1.48963
-1.49115
-1.4928
-1.49459
-1.49654
-1.49864
-1.50091
-1.50336
-1.50598
-1.50878
-1.51177
-1.51496
-1.51834
-1.52192
-1.52571
-1.5297
-1.53391
-1.53832
-1.54295
-1.5478
-1.55285
-1.55813
-1.56361
-1.5693
-1.57519
-1.58128
-1.58757
-1.59404
-1.60068
-1.60749
-1.61445
-1.62154
-1.62876
-1.63609
-1.6435
-1.65098
-1.6585
-1.66604
-1.67358
-1.68108
-1.68851
-1.69584
-1.70305
-1.71008
-1.71691
-1.7235
-1.7298
-1.73577
-1.74137
-1.74655
-1.75126
-1.75546
-1.75909
-1.76211
-1.76446
-1.76609
-1.76695
-1.76699
-1.76615
-1.76438
-1.76163
-1.75785
-1.75298
-1.74699
-1.73981
-1.73141
-1.72172
-1.71073
-1.69837
-1.6846
-1.66939
-1.65268
-1.63442
-1.61459
-1.59315
-1.57008
-1.54535
-1.51894
-1.49084
-1.46102
-1.42949
-1.39622
-1.36122
-1.32447
-1.28599
-1.24577
-1.20382
-1.16017
-1.11482
-1.0678
-1.01914
-0.968874
-0.917029
-0.863648
-0.808775
-0.752457
-0.694745
-0.635692
-0.575355
-0.513793
-0.451069
-0.387249
-0.3224
-0.256592
-0.189897
-0.122389
-0.0541439
0.0147631
0.0842549
0.154254
0.224682
0.295461
0.366514
0.437762
0.50913
0.580542
0.651922
0.723199
0.794301
0.865158
0.935703
1.00587
1.07561
1.14484
1.21353
1.28162
1.34905
1.41577
1.48176
1.54695
1.61132
1.67482
1.73742
1.7991
1.85981
1.91954
1.97827
2.03597
2.09262
2.1482
2.20271
2.25612
2.30843
2.35963
2.40972
2.45868
2.50653
2.55326
2.59887
2.64333
2.68665
2.72881
2.76979
2.8096
2.84822
2.88564
2.92182
2.95672
2.99031
3.02249
3.05313
3.08204
3.10913
3.13332
3.15779
3.16501
-1.47722
-1.47792
-1.47905
-1.48025
-1.4813
-1.48222
-1.48306
-1.48385
-1.48464
-1.48546
-1.48634
-1.48729
-1.48834
-1.48951
-1.4908
-1.49222
-1.4938
-1.49552
-1.49741
-1.49947
-1.50169
-1.5041
-1.50669
-1.50946
-1.51242
-1.51558
-1.51894
-1.5225
-1.52627
-1.53024
-1.53442
-1.53881
-1.54342
-1.54823
-1.55325
-1.55849
-1.56393
-1.56957
-1.57541
-1.58144
-1.58766
-1.59406
-1.60063
-1.60735
-1.61422
-1.62122
-1.62834
-1.63556
-1.64286
-1.65022
-1.65762
-1.66503
-1.67243
-1.67979
-1.68708
-1.69426
-1.70132
-1.7082
-1.71487
-1.7213
-1.72744
-1.73325
-1.73869
-1.74371
-1.74827
-1.75231
-1.75578
-1.75865
-1.76085
-1.76233
-1.76305
-1.76294
-1.76197
-1.76007
-1.7572
-1.75331
-1.74833
-1.74224
-1.73497
-1.72647
-1.71672