/*--------------------------------*- C++ -*----------------------------------*\
  =========                 |
  \\      /  F ield         | OpenFOAM: The Open Source CFD Toolbox
   \\    /   O peration     | Website:  https://openfoam.org
    \\  /    A nd           | Version:  7
     \\/     M anipulation  |
\*---------------------------------------------------------------------------*/
FoamFile
{
    version     2.0;
    format      ascii;
    class       volVectorField;
    location    "0.3";
    object      U;
}
// * * * * * * * * * * * * * * * * * * * * * * * * * * * * * * * * * * * * * //

dimensions      [0 1 -1 0 0 0 0];

internalField   nonuniform List<vector> 
12225
(
(4.73347 -0.571241 0)
(4.31415 -0.430539 0)
(4.03362 -0.176988 0)
(3.82439 -0.0515572 0)
(3.64948 -0.00461018 0)
(3.50666 0.0100118 0)
(3.39577 0.013063 0)
(3.30962 0.012452 0)
(3.24036 0.0110246 0)
(3.18301 0.00968325 0)
(3.13466 0.00860663 0)
(3.09332 0.00775226 0)
(3.05746 0.00704893 0)
(3.02601 0.00645058 0)
(2.99808 0.00592892 0)
(2.97377 0.00542476 0)
(2.94941 0.00568098 0)
(2.93786 0.00226853 0)
(5.02997 0.295073 0)
(4.8422 0.245056 0)
(4.69196 0.169878 0)
(4.58579 0.107135 0)
(4.48719 0.0705174 0)
(4.39266 0.0516989 0)
(4.30769 0.0412005 0)
(4.23295 0.0342514 0)
(4.1668 0.0291712 0)
(4.1082 0.0253524 0)
(4.05648 0.0224305 0)
(4.01085 0.0201318 0)
(3.97044 0.0182675 0)
(3.9345 0.0167327 0)
(3.90235 0.015393 0)
(3.87373 0.0144629 0)
(3.84755 0.0129892 0)
(3.82602 0.014876 0)
(4.96336 0.187521 0)
(4.82997 0.103969 0)
(4.75456 0.0857263 0)
(4.7116 0.0765102 0)
(4.66623 0.0679646 0)
(4.61627 0.0608858 0)
(4.56786 0.0547116 0)
(4.52271 0.0490524 0)
(4.48043 0.0440463 0)
(4.44101 0.0398152 0)
(4.40468 0.0362832 0)
(4.37147 0.0332996 0)
(4.34118 0.0307372 0)
(4.31355 0.0285184 0)
(4.28837 0.0265462 0)
(4.26545 0.0249024 0)
(4.24477 0.023219 0)
(4.22557 0.022596 0)
(4.96282 0.171149 0)
(4.85057 0.102652 0)
(4.78993 0.096804 0)
(4.7608 0.0902657 0)
(4.73316 0.0806628 0)
(4.70327 0.0725398 0)
(4.67493 0.0659048 0)
(4.64875 0.0600191 0)
(4.62397 0.0547921 0)
(4.60038 0.0502835 0)
(4.5782 0.0464195 0)
(4.55753 0.0430686 0)
(4.53833 0.040123 0)
(4.52053 0.0375138 0)
(4.50407 0.0351631 0)
(4.48886 0.0330848 0)
(4.47515 0.0310639 0)
(4.46178 0.0293714 0)
(4.9736 0.195248 0)
(4.88122 0.129105 0)
(4.82305 0.114546 0)
(4.79436 0.101655 0)
(4.77169 0.0890905 0)
(4.74976 0.0798064 0)
(4.73037 0.072723 0)
(4.71345 0.0666237 0)
(4.69793 0.0612452 0)
(4.6834 0.0565892 0)
(4.66988 0.0525678 0)
(4.65737 0.0490495 0)
(4.6458 0.0459289 0)
(4.63508 0.0431343 0)
(4.6252 0.0405953 0)
(4.61606 0.0382751 0)
(4.60791 0.0360482 0)
(4.59973 0.0338793 0)
(4.98217 0.218656 0)
(4.90833 0.150124 0)
(4.85343 0.126857 0)
(4.82377 0.11 0)
(4.8023 0.0958973 0)
(4.78335 0.0857118 0)
(4.76766 0.0779988 0)
(4.75484 0.0714747 0)
(4.74379 0.0657953 0)
(4.73391 0.0608977 0)
(4.72505 0.056665 0)
(4.71712 0.0529556 0)
(4.71 0.0496584 0)
(4.70356 0.0466933 0)
(4.69776 0.0439887 0)
(4.6925 0.0414799 0)
(4.68794 0.0390862 0)
(4.68327 0.0366869 0)
(4.98795 0.235237 0)
(4.93048 0.166905 0)
(4.881 0.138183 0)
(4.85125 0.118642 0)
(4.83003 0.102999 0)
(4.8122 0.0915422 0)
(4.79796 0.0828585 0)
(4.78689 0.0756591 0)
(4.77789 0.069495 0)
(4.7703 0.0642177 0)
(4.76386 0.0596703 0)
(4.75839 0.0556939 0)
(4.75372 0.0521654 0)
(4.7497 0.0489931 0)
(4.74627 0.0460987 0)
(4.74329 0.0434043 0)
(4.74086 0.0408459 0)
(4.73834 0.0382998 0)
(4.9919 0.247329 0)
(4.94824 0.181991 0)
(4.90537 0.149793 0)
(4.87673 0.127872 0)
(4.85592 0.110516 0)
(4.83875 0.097564 0)
(4.82517 0.0877063 0)
(4.81483 0.0796524 0)
(4.80675 0.0728496 0)
(4.80027 0.0670667 0)
(4.79504 0.0621046 0)
(4.79086 0.0577826 0)
(4.78751 0.0539615 0)
(4.78483 0.050536 0)
(4.78271 0.0474185 0)
(4.78103 0.0445245 0)
(4.77983 0.0417929 0)
(4.77855 0.039118 0)
(4.99462 0.256579 0)
(4.96211 0.195553 0)
(4.92618 0.161123 0)
(4.89974 0.13718 0)
(4.87994 0.118238 0)
(4.8636 0.103804 0)
(4.85058 0.0927009 0)
(4.84066 0.0836858 0)
(4.83305 0.0761338 0)
(4.82712 0.0697452 0)
(4.82251 0.0642834 0)
(4.81898 0.0595449 0)
(4.81633 0.0553733 0)
(4.81436 0.0516485 0)
(4.81296 0.0482733 0)
(4.81199 0.0451584 0)
(4.81146 0.0422401 0)
(4.81089 0.0394303 0)
(4.99646 0.263626 0)
(4.97262 0.207251 0)
(4.94339 0.171628 0)
(4.91993 0.146165 0)
(4.90177 0.12593 0)
(4.88667 0.110157 0)
(4.87444 0.0978349 0)
(4.865 0.0878227 0)
(4.85778 0.079462 0)
(4.85221 0.0724029 0)
(4.84797 0.0663795 0)
(4.84482 0.061169 0)
(4.84254 0.0565987 0)
(4.84096 0.0525349 0)
(4.83994 0.0488708 0)
(4.83935 0.0455126 0)
(4.83918 0.0423924 0)
(4.83897 0.0394342 0)
(4.99767 0.268903 0)
(4.9804 0.217026 0)
(4.95721 0.181061 0)
(4.93714 0.154558 0)
(4.9211 0.133328 0)
(4.90763 0.116419 0)
(4.89654 0.102976 0)
(4.88784 0.0919974 0)
(4.88113 0.0828219 0)
(4.87598 0.0750684 0)
(4.87208 0.0684522 0)
(4.86923 0.0627369 0)
(4.86722 0.0577365 0)
(4.86588 0.0533063 0)
(4.86509 0.0493304 0)
(4.86472 0.0457114 0)
(4.86473 0.0423763 0)
(4.86473 0.0392563 0)
(4.99839 0.27259 0)
(4.98561 0.224435 0)
(4.96721 0.188671 0)
(4.9503 0.161538 0)
(4.93642 0.1396 0)
(4.9247 0.121833 0)
(4.91494 0.107492 0)
(4.90718 0.0956985 0)
(4.90116 0.0858123 0)
(4.89654 0.0774384 0)
(4.89306 0.0702824 0)
(4.89054 0.0641009 0)
(4.88879 0.0586993 0)
(4.88768 0.0539251 0)
(4.88707 0.0496563 0)
(4.88685 0.0457919 0)
(4.88699 0.0422559 0)
(4.8871 0.0389777 0)
(4.99887 0.275385 0)
(4.98949 0.23055 0)
(4.97518 0.195323 0)
(4.9613 0.167774 0)
(4.94963 0.145267 0)
(4.93977 0.126786 0)
(4.9315 0.111666 0)
(4.92486 0.0991373 0)
(4.9197 0.0885956 0)
(4.91576 0.0796402 0)
(4.91283 0.0719717 0)
(4.91073 0.0653425 0)
(4.90932 0.0595529 0)
(4.90848 0.0544442 0)
(4.90809 0.0498898 0)
(4.90804 0.0457852 0)
(4.90832 0.0420521 0)
(4.90855 0.038614 0)
(4.99923 0.277707 0)
(4.99273 0.236078 0)
(4.98229 0.201672 0)
(4.9716 0.173872 0)
(4.96242 0.150874 0)
(4.95469 0.131736 0)
(4.94822 0.115859 0)
(4.94304 0.102592 0)
(4.93905 0.0913783 0)
(4.93606 0.0818195 0)
(4.9339 0.0736128 0)
(4.93244 0.0665093 0)
(4.93154 0.0603058 0)
(4.93111 0.054839 0)
(4.93105 0.0499777 0)
(4.93128 0.0456143 0)
(4.93177 0.0416668 0)
(4.93219 0.0380567 0)
(4.99952 0.279544 0)
(4.99536 0.240723 0)
(4.9884 0.207271 0)
(4.98096 0.179364 0)
(4.97448 0.155945 0)
(4.9691 0.136214 0)
(4.9647 0.119627 0)
(4.96126 0.105645 0)
(4.95872 0.0937708 0)
(4.95696 0.0836148 0)
(4.95584 0.0748734 0)
(4.95524 0.0672975 0)
(4.95507 0.0606816 0)
(4.95525 0.0548584 0)
(4.95569 0.0496925 0)
(4.95634 0.045073 0)
(4.95717 0.040913 0)
(4.9579 0.0371353 0)
(4.99974 0.280863 0)
(4.99746 0.244185 0)
(4.99359 0.211602 0)
(4.98936 0.183654 0)
(4.98574 0.159849 0)
(4.98291 0.139573 0)
(4.98081 0.122342 0)
(4.97937 0.107695 0)
(4.97855 0.0951975 0)
(4.97827 0.0844789 0)
(4.97842 0.0752365 0)
(4.97892 0.0672207 0)
(4.97969 0.0602239 0)
(4.98067 0.0540752 0)
(4.9818 0.0486347 0)
(4.98304 0.0437877 0)
(4.98437 0.0394425 0)
(4.98556 0.0355222 0)
(4.99991 0.281581 0)
(4.99922 0.246104 0)
(4.9981 0.213993 0)
(4.99706 0.185901 0)
(4.9965 0.161678 0)
(4.99648 0.140882 0)
(4.99692 0.123076 0)
(4.99775 0.107849 0)
(4.99893 0.0948114 0)
(5.00039 0.0836111 0)
(5.00206 0.0739475 0)
(5.00388 0.0655687 0)
(5.0058 0.0582646 0)
(5.00777 0.0518603 0)
(5.00977 0.0462114 0)
(5.01176 0.0411987 0)
(5.01375 0.0367254 0)
(5.01554 0.0327151 0)
(5.00008 0.281513 0)
(5.00085 0.245901 0)
(5.00244 0.213467 0)
(5.00477 0.184869 0)
(5.00762 0.160089 0)
(5.0108 0.138759 0)
(5.01419 0.120451 0)
(5.01769 0.10477 0)
(5.02124 0.0913366 0)
(5.02478 0.0798044 0)
(5.02827 0.0698681 0)
(5.03167 0.0612698 0)
(5.03497 0.053794 0)
(5.03816 0.047261 0)
(5.04122 0.0415214 0)
(5.04414 0.0364518 0)
(5.04694 0.0319507 0)
(5.04947 0.0279422 0)
(5.00031 0.280217 0)
(5.00288 0.242304 0)
(5.00773 0.208085 0)
(5.01413 0.178233 0)
(5.02117 0.15262 0)
(5.02829 0.130742 0)
(5.03529 0.112088 0)
(5.04208 0.0962093 0)
(5.04856 0.0826901 0)
(5.05468 0.071148 0)
(5.06042 0.061253 0)
(5.0658 0.052732 0)
(5.07083 0.045359 0)
(5.07552 0.038947 0)
(5.0799 0.0333414 0)
(5.08398 0.0284152 0)
(5.08781 0.0240638 0)
(5.09126 0.0202126 0)
(5.00061 0.277665 0)
(5.00556 0.235149 0)
(5.01458 0.197585 0)
(5.02594 0.165737 0)
(5.03776 0.139068 0)
(5.04921 0.116699 0)
(5.0601 0.0979347 0)
(5.07036 0.0822178 0)
(5.07988 0.0690274 0)
(5.08864 0.0578985 0)
(5.09666 0.048453 0)
(5.10402 0.0403913 0)
(5.11077 0.0334717 0)
(5.11696 0.0274969 0)
(5.12265 0.022307 0)
(5.12788 0.0177728 0)
(5.13272 0.0137892 0)
(5.13708 0.0102829 0)
(5.00095 0.274072 0)
(5.00882 0.2254 0)
(5.02281 0.183984 0)
(5.03957 0.150387 0)
(5.05618 0.12312 0)
(5.07172 0.100718 0)
(5.08619 0.0823006 0)
(5.09957 0.0671843 0)
(5.11175 0.0547056 0)
(5.12275 0.0443051 0)
(5.13269 0.035565 0)
(5.14168 0.0281703 0)
(5.14982 0.0218706 0)
(5.15722 0.0164651 0)
(5.16395 0.0117947 0)
(5.17008 0.00773375 0)
(5.17571 0.00418128 0)
(5.18076 0.00106799 0)
(5.00149 0.269083 0)
(5.01372 0.212409 0)
(5.03449 0.166902 0)
(5.05778 0.132083 0)
(5.07953 0.104723 0)
(5.09923 0.0827017 0)
(5.11731 0.0650469 0)
(5.13374 0.0509128 0)
(5.1484 0.0394505 0)
(5.16142 0.0300153 0)
(5.17302 0.0221729 0)
(5.1834 0.0156042 0)
(5.1927 0.0100555 0)
(5.20105 0.00532758 0)
(5.20858 0.00126722 0)
(5.21538 -0.00224402 0)
(5.22157 -0.00530024 0)
(5.22708 -0.00796582 0)
(5.00238 0.262161 0)
(5.0213 0.195491 0)
(5.05127 0.146367 0)
(5.08214 0.111306 0)
(5.10914 0.0844113 0)
(5.13296 0.0632142 0)
(5.15452 0.0468093 0)
(5.1737 0.0340797 0)
(5.19042 0.0239418 0)
(5.205 0.0157017 0)
(5.21781 0.00894105 0)
(5.22913 0.00334728 0)
(5.23914 -0.00133144 0)
(5.24801 -0.00528641 0)
(5.25592 -0.00865895 0)
(5.26298 -0.0115565 0)
(5.26933 -0.0140635 0)
(5.27495 -0.0162379 0)
(5.00395 0.252443 0)
(5.03317 0.1736 0)
(5.07517 0.122461 0)
(5.11403 0.0887764 0)
(5.14577 0.0630413 0)
(5.1733 0.0431736 0)
(5.19783 0.0285376 0)
(5.21901 0.0176131 0)
(5.23698 0.00906711 0)
(5.25234 0.00220988 0)
(5.26565 -0.00333141 0)
(5.27722 -0.00785156 0)
(5.2873 -0.011591 0)
(5.29609 -0.0147241 0)
(5.30382 -0.0173744 0)
(5.31062 -0.0196346 0)
(5.31666 -0.0215763 0)
(5.32192 -0.0232494 0)
(5.00664 0.239244 0)
(5.05115 0.146004 0)
(5.10793 0.0952167 0)
(5.15396 0.0649166 0)
(5.18899 0.0414293 0)
(5.21919 0.0236789 0)
(5.24569 0.011336 0)
(5.26777 0.00248648 0)
(5.28592 -0.00432581 0)
(5.30113 -0.00971064 0)
(5.31408 -0.0139791 0)
(5.32511 -0.0174008 0)
(5.3345 -0.0201933 0)
(5.34253 -0.0225057 0)
(5.34942 -0.0244397 0)
(5.35535 -0.0260718 0)
(5.36047 -0.0274596 0)
(5.36483 -0.0286461 0)
(5.01051 0.222556 0)
(5.07591 0.115733 0)
(5.14966 0.0673005 0)
(5.20127 0.0405854 0)
(5.23759 0.0200497 0)
(5.2689 0.00548085 0)
(5.29593 -0.00397614 0)
(5.31758 -0.0105843 0)
(5.33472 -0.0156363 0)
(5.34868 -0.0195482 0)
(5.36021 -0.0225564 0)
(5.36968 -0.0249005 0)
(5.3774 -0.0267676 0)
(5.38368 -0.0282775 0)
(5.38878 -0.0295104 0)
(5.39291 -0.0305278 0)
(5.39622 -0.0313733 0)
(5.39879 -0.0320854 0)
(5.01612 0.196416 0)
(5.1084 0.0875779 0)
(5.19902 0.0463699 0)
(5.25413 0.0197279 0)
(5.29025 -0.000113277 0)
(5.32097 -0.0113938 0)
(5.34649 -0.0174634 0)
(5.3657 -0.021543 0)
(5.37993 -0.0246985 0)
(5.39075 -0.0270662 0)
(5.39893 -0.0287773 0)
(5.40489 -0.0300285 0)
(5.40901 -0.0309685 0)
(5.41166 -0.0316831 0)
(5.41313 -0.0322283 0)
(5.41367 -0.0326501 0)
(5.41346 -0.0329774 0)
(5.41264 -0.0332427 0)
(5.02989 0.134583 0)
(5.15986 0.0475684 0)
(5.25805 0.0412221 0)
(5.30881 0.021697 0)
(5.34241 -0.00175118 0)
(5.37065 -0.0156742 0)
(5.39127 -0.0222349 0)
(5.40375 -0.0258423 0)
(5.41042 -0.028158 0)
(5.41333 -0.0295459 0)
(5.41343 -0.0302668 0)
(5.41127 -0.0305916 0)
(5.40737 -0.0306989 0)
(5.4022 -0.0306807 0)
(5.39611 -0.0305892 0)
(5.38937 -0.0304676 0)
(5.38217 -0.0303455 0)
(5.3747 -0.0302511 0)
(5.08133 -0.0500382 0)
(5.26819 -0.199284 0)
(5.3472 -0.137932 0)
(5.36473 -0.0864914 0)
(5.37841 -0.0639084 0)
(5.3912 -0.0517961 0)
(5.39343 -0.0435576 0)
(5.38485 -0.0382699 0)
(5.36998 -0.0349672 0)
(5.3521 -0.0326567 0)
(5.33259 -0.0308225 0)
(5.31214 -0.0292838 0)
(5.2913 -0.0279658 0)
(5.27051 -0.0268167 0)
(5.25003 -0.0258021 0)
(5.23002 -0.0249203 0)
(5.21061 -0.0241757 0)
(5.19196 -0.0237562 0)
(5.01586 0.723718 0)
(5.23567 0.467498 0)
(5.28469 0.23442 0)
(5.20729 0.103783 0)
(5.10614 0.0382133 0)
(5.01514 0.00867733 0)
(4.9333 -0.00336662 0)
(4.85842 -0.00798578 0)
(4.79114 -0.00965539 0)
(4.73134 -0.0101231 0)
(4.67781 -0.0100961 0)
(4.62937 -0.00989401 0)
(4.58522 -0.00965729 0)
(4.54482 -0.00943719 0)
(4.5077 -0.00924656 0)
(4.47344 -0.00910068 0)
(4.44156 -0.00900184 0)
(4.41184 -0.00917609 0)
(0.00190532 -0.00489186 -1.4218e-20)
(0.007735 -0.00865179 1.41984e-20)
(0.0136748 -0.00849067 0)
(0.0179886 -0.00623695 0)
(0.0201096 -0.00320915 0)
(0.0198835 -0.000256962 -1.3478e-20)
(0.0176627 0.00214186 0)
(0.0139189 0.00386412 0)
(0.00899886 0.00503112 0)
(0.00317082 0.00583824 0)
(-0.00337632 0.00645942 1.29493e-20)
(-0.0105457 0.00700427 0)
(-0.0183032 0.00752774 0)
(-0.026629 0.00805377 0)
(-0.0355203 0.00858771 0)
(-0.044979 0.00912638 1.18827e-20)
(-0.0550061 0.00966355 0)
(-0.0655995 0.0101926 0)
(-0.0767533 0.0107075 0)
(-0.0884578 0.0112033 0)
(-0.1007 0.0116763 0)
(-0.113463 0.0121237 0)
(-0.12673 0.0125436 0)
(-0.140481 0.0129349 1.02085e-20)
(-0.154693 0.013297 -1.00143e-20)
(-0.169346 0.0136301 9.82487e-21)
(-0.184418 0.0139345 9.64055e-21)
(-0.199886 0.0142111 0)
(-0.215729 0.0144608 0)
(-0.231926 0.0146851 -9.11965e-21)
(-0.248456 0.0148851 -8.95699e-21)
(-0.2653 0.0150626 0)
(-0.282438 0.015219 0)
(-0.299853 0.0153559 -8.50195e-21)
(-0.317527 0.0154748 0)
(-0.335444 0.0155773 0)
(-0.353588 0.0156648 8.09485e-21)
(-0.371944 0.0157388 0)
(-0.390497 0.0158005 7.84865e-21)
(-0.409233 0.0158513 1.54654e-20)
(-0.428139 0.0158925 0)
(-0.447201 0.0159254 0)
(-0.466406 0.0159512 0)
(-0.485741 0.015971 0)
(-0.505196 0.0159857 0)
(-0.524757 0.0159959 1.42577e-20)
(-0.544414 0.0160019 1.40842e-20)
(-0.564155 0.0160035 1.39179e-20)
(-0.583968 0.0160002 0)
(-0.60384 0.0159912 -1.36054e-20)
(-0.623757 0.0159755 0)
(-0.643703 0.0159519 1.33179e-20)
(-0.663658 0.0159195 1.31829e-20)
(-0.683603 0.0158777 0)
(-0.703514 0.0158276 0)
(-0.723366 0.015772 0)
(-0.743138 0.015716 1.26989e-20)
(-0.762804 0.0156662 0)
(-0.782346 0.0156329 0)
(-0.801746 0.0156373 0)
(-0.821001 0.0157283 0)
(-0.840112 0.0159937 0)
(-0.859133 0.0165608 0)
(-0.878244 0.0175538 0)
(-0.897569 0.0186802 0)
(-0.916728 0.0187217 -1.19112e-20)
(-0.935055 0.0172091 0)
(-0.952541 0.0173417 0)
(-0.97026 0.0221501 1.17114e-20)
(-0.989198 0.0273963 1.16449e-20)
(-1.00858 0.0266838 0)
(-1.02634 0.0192734 -1.15166e-20)
(-1.04157 0.0135589 1.14224e-20)
(-1.05591 0.0129609 0)
(-1.07207 0.0260433 -1.12103e-20)
(-1.09048 0.041652 0)
(-1.10895 0.0226838 0)
(-1.12271 0.0135117 1.21395e-20)
(-1.13487 0.0116477 0)
(-1.14941 0.0241128 -1.10458e-20)
(-1.1637 0.0208807 0)
(-1.17656 0.0180668 1.0751e-20)
(-1.18848 0.0236949 1.10625e-20)
(-1.19768 0.0043922 1.11352e-20)
(-1.2048 0.00541555 2.18877e-20)
(-1.21258 0.00514894 -2.14952e-20)
(-1.22001 0.0048565 0)
(-1.22696 0.00438647 0)
(-1.23323 0.0038441 0)
(-1.23872 0.00325012 -1.98236e-20)
(-1.24338 0.00261659 -1.93769e-20)
(-1.24716 0.00195496 1.89183e-20)
(-1.24998 0.0012855 0)
(-1.25178 0.0006354 -1.79648e-20)
(-1.25249 3.79138e-05 -1.74648e-20)
(-1.25246 -0.000464188 -1.6951e-20)
(-1.2516 -0.000936678 0)
(-1.24995 -0.00139621 0)
(-1.2475 -0.00184963 0)
(-1.24425 -0.00229861 -1.47544e-20)
(-1.24021 -0.0027435 0)
(-1.23536 -0.00318406 0)
(-1.2297 -0.00361983 1.29572e-20)
(-1.22323 -0.0040503 0)
(-1.21596 -0.00447493 0)
(-1.20788 -0.00489315 1.10339e-20)
(-1.19899 -0.00530444 0)
(-1.18931 -0.00570827 0)
(-1.17883 -0.00610411 -8.98905e-21)
(-1.16756 -0.00649148 -8.28166e-21)
(-1.15551 -0.0068699 0)
(-1.14269 -0.00723892 6.83017e-21)
(-1.1291 -0.0075981 0)
(-1.11476 -0.00794707 -5.33239e-21)
(-1.09968 -0.00828544 0)
(-1.08387 -0.00861289 -3.79187e-21)
(-1.06734 -0.0089291 -3.00682e-21)
(-1.05012 -0.00923378 0)
(-1.03222 -0.00952667 0)
(-1.01364 -0.0098075 0)
(-0.994422 -0.0100761 0)
(-0.97457 -0.0103321 0)
(-0.954107 -0.0105756 0)
(-0.933052 -0.0108064 0)
(-0.911425 -0.0110243 3.55286e-21)
(-0.889249 -0.0112293 -4.39824e-21)
(-0.866544 -0.0114215 0)
(-0.843332 -0.0116007 0)
(-0.819637 -0.011767 0)
(-0.79548 -0.0119205 0)
(-0.770884 -0.0120612 -1.73241e-20)
(-0.745874 -0.0121892 0)
(-0.720472 -0.0123047 2.07429e-20)
(-0.694702 -0.0124079 -2.24483e-20)
(-0.668587 -0.0124988 0)
(-0.64215 -0.0125778 0)
(-0.615415 -0.012645 0)
(-0.588406 -0.0127008 2.92099e-20)
(-0.561144 -0.0127453 3.08783e-20)
(-0.533653 -0.012779 0)
(-0.505955 -0.012802 3.41794e-20)
(-0.478071 -0.0128147 3.58095e-20)
(-0.450023 -0.0128176 -3.74243e-20)
(-0.421832 -0.0128108 0)
(-0.393518 -0.0127948 0)
(-0.365101 -0.0127699 -4.21652e-20)
(-0.336601 -0.0127365 0)
(-0.308035 -0.012695 0)
(-0.279422 -0.0126456 0)
(-0.25078 -0.0125889 0)
(-0.222124 -0.0125258 4.96584e-20)
(-0.193468 -0.0124581 5.10875e-20)
(-0.164821 -0.0123892 0)
(-0.136165 -0.012331 5.38702e-20)
(-0.107465 -0.0123233 0)
(-0.0787768 -0.0124579 0)
(-0.0496757 -0.0123551 5.78329e-20)
(-0.0183518 -0.0127746 0)
(0.00728711 -0.0110346 6.01894e-20)
(0.037934 -0.0114764 0)
(0.0641248 -0.0112684 0)
(0.0922139 -0.0111013 6.16809e-20)
(0.119239 -0.0116093 0)
(0.146384 -0.00788726 6.16113e-20)
(0.176817 -0.0105369 0)
(0.200861 -0.00964034 0)
(0.231078 -0.00902266 0)
(0.256681 -0.0131548 -6.26166e-20)
(0.282967 -0.00755315 0)
(0.311821 -0.00735444 5.97353e-20)
(0.336799 -0.0117357 0)
(0.362806 -0.0107235 0)
(0.389216 -0.00918229 0)
(0.415411 -0.00900925 0)
(0.441414 -0.0076694 0)
(0.467074 -0.00549138 0)
(0.491797 -0.00349204 0)
(0.514176 -0.00455234 -1.28234e-19)
(0.533139 0.000466672 0)
(0.525533 0.00991769 0)
(0.00200439 -0.0151498 4.23355e-20)
(0.00551341 -0.0188027 -4.11109e-20)
(0.00622763 -0.0135918 0)
(0.00508363 -0.00684034 2.48888e-20)
(0.00246565 -0.000170105 0)
(-0.00138901 0.00579288 1.1776e-20)
(-0.00639432 0.010773 -2.30135e-20)
(-0.0125033 0.01474 -2.25497e-20)
(-0.0196328 0.0178351 0)
(-0.0276901 0.0202711 -2.16936e-20)
(-0.0365735 0.0222604 -1.06487e-20)
(-0.0461862 0.023975 0)
(-0.0564471 0.0255306 0)
(-0.0672946 0.0269937 0)
(-0.0786823 0.0283979 0)
(-0.0905743 0.0297557 -9.63566e-21)
(-0.102942 0.0310684 0)
(-0.115761 0.0323319 1.84735e-20)
(-0.129008 0.0335399 0)
(-0.142663 0.0346865 0)
(-0.156706 0.0357666 -1.73754e-20)
(-0.171115 0.0367764 0)
(-0.185873 0.0377137 1.66875e-20)
(-0.200958 0.0385775 -8.19334e-21)
(-0.216354 0.0393681 8.0334e-21)
(-0.23204 0.0400867 -7.8784e-21)
(-0.248002 0.0407352 -7.72837e-21)
(-0.264221 0.0413163 0)
(-0.280682 0.0418328 0)
(-0.297371 0.0422881 7.30803e-21)
(-0.314274 0.0426853 -7.14791e-21)
(-0.331377 0.043028 0)
(-0.348669 0.0433193 0)
(-0.366137 0.0435624 6.81441e-21)
(-0.383772 0.04376 0)
(-0.401561 0.0439149 0)
(-0.419497 0.0440293 -6.49061e-21)
(-0.437568 0.0441054 0)
(-0.455766 0.0441448 6.2637e-21)
(-0.474081 0.0441492 -1.24056e-20)
(-0.492505 0.0441202 0)
(-0.511028 0.044059 0)
(-0.529642 0.0439672 -2.3726e-20)
(-0.548339 0.0438459 -2.34119e-20)
(-0.567109 0.0436966 -2.31105e-20)
(-0.585944 0.0435201 1.13776e-20)
(-0.604834 0.0433172 -1.1305e-20)
(-0.623771 0.0430879 -3.34491e-20)
(-0.642743 0.0428314 2.20217e-20)
(-0.661741 0.0425461 1.09222e-20)
(-0.680753 0.0422294 0)
(-0.699768 0.0418779 -1.0693e-20)
(-0.718772 0.0414882 1.05171e-20)
(-0.737755 0.0410576 0)
(-0.756705 0.0405848 0)
(-0.775615 0.040071 0)
(-0.794478 0.039519 -1.02086e-20)
(-0.813293 0.0389324 0)
(-0.832062 0.0383149 2.00374e-20)
(-0.850788 0.0376713 0)
(-0.869475 0.0370118 1.9785e-20)
(-0.888117 0.0363521 0)
(-0.906669 0.0356968 -1.96059e-20)
(-0.924999 0.0350156 0)
(-0.94296 0.0342138 1.95086e-20)
(-0.960632 0.0331026 -9.70597e-21)
(-0.978298 0.0315735 0)
(-0.995948 0.0300011 -1.94624e-20)
(-1.01295 0.0289025 -9.77043e-21)
(-1.0287 0.0280688 -9.78879e-21)
(-1.04346 0.0269917 0)
(-1.05839 0.0260904 -9.73231e-21)
(-1.07413 0.0255529 -9.742e-21)
(-1.08972 0.0241583 0)
(-1.10303 0.0221273 9.55021e-21)
(-1.11361 0.0208508 -1.88439e-20)
(-1.1238 0.0198577 0)
(-1.13558 0.0194011 -9.53472e-21)
(-1.14739 0.0185715 0)
(-1.15578 0.0166065 2.71719e-20)
(-1.16358 0.0152224 0)
(-1.17099 0.0134038 -2.63928e-20)
(-1.17702 0.0120061 -8.87974e-21)
(-1.1842 0.0119957 8.67842e-21)
(-1.1917 0.0119629 1.70987e-20)
(-1.19744 0.0112828 -1.68045e-20)
(-1.20218 0.0103035 0)
(-1.20612 0.00917596 0)
(-1.20934 0.00796148 0)
(-1.21184 0.00669538 4.64445e-20)
(-1.21366 0.00539292 1.51153e-20)
(-1.21482 0.0040654 -1.47412e-20)
(-1.21535 0.0027335 0)
(-1.21531 0.00143112 -1.39981e-20)
(-1.21476 0.000180715 1.35528e-20)
(-1.21348 -0.00100232 1.31352e-20)
(-1.21145 -0.00215448 0)
(-1.20865 -0.00328665 0)
(-1.20507 -0.00440461 0)
(-1.20071 -0.00550945 1.13664e-20)
(-1.19556 -0.0066008 0)
(-1.18962 -0.00767754 -2.09526e-20)
(-1.18287 -0.0087383 -2.99275e-20)
(-1.17533 -0.00978165 1.90086e-20)
(-1.16699 -0.0108061 0)
(-1.15786 -0.0118104 8.56608e-21)
(-1.14793 -0.012793 0)
(-1.13721 -0.0137526 1.49021e-20)
(-1.1257 -0.0146881 -6.99968e-21)
(-1.11341 -0.0155982 -6.46082e-21)
(-1.10036 -0.0164818 0)
(-1.08654 -0.0173378 -1.56969e-20)
(-1.07196 -0.0181653 9.39738e-21)
(-1.05664 -0.0189633 4.02333e-21)
(-1.04059 -0.0197312 0)
(-1.02382 -0.0204681 2.85268e-21)
(-1.00635 -0.0211736 7.00336e-21)
(-0.988187 -0.0218469 0)
(-0.969349 -0.0224877 2.35166e-21)
(-0.949853 -0.0230956 1.14155e-21)
(-0.929717 -0.0236701 -7.64797e-23)
(-0.908958 -0.0242111 0)
(-0.887596 -0.0247183 0)
(-0.865651 -0.0251916 0)
(-0.843142 -0.0256312 2.3696e-21)
(-0.820091 -0.0260372 3.26344e-21)
(-0.79652 -0.0264096 0)
(-0.772448 -0.0267488 8.74581e-21)
(-0.7479 -0.0270551 9.99325e-21)
(-0.722898 -0.0273287 0)
(-0.697465 -0.0275701 1.27744e-20)
(-0.671623 -0.0277801 2.74555e-20)
(-0.645396 -0.027959 -1.52598e-20)
(-0.618807 -0.0281077 -1.5907e-20)
(-0.59188 -0.0282267 0)
(-0.564638 -0.0283168 0)
(-0.537104 -0.0283789 0)
(-0.5093 -0.0284139 -2.13737e-20)
(-0.481251 -0.0284226 2.19785e-20)
(-0.452978 -0.028406 4.69285e-20)
(-0.424504 -0.028365 -2.49384e-20)
(-0.395849 -0.0283009 2.55145e-20)
(-0.367037 -0.0282144 2.7258e-20)
(-0.338086 -0.0281068 0)
(-0.309018 -0.027979 0)
(-0.279852 -0.0278321 -3.00595e-20)
(-0.250607 -0.0276672 0)
(-0.221302 -0.0274854 0)
(-0.191954 -0.0272877 6.71979e-20)
(-0.162579 -0.0270754 0)
(-0.133195 -0.0268503 3.5407e-20)
(-0.103815 -0.0266154 -3.69746e-20)
(-0.0744504 -0.0263767 0)
(-0.0451085 -0.0261481 3.84105e-20)
(-0.0158077 -0.0259647 0)
(0.0133306 -0.0258962 0)
(0.0424384 -0.0257662 -4.11938e-20)
(0.0700879 -0.0249526 8.32004e-20)
(0.0999115 -0.0247425 -4.2446e-20)
(0.12771 -0.0239284 0)
(0.156721 -0.023509 0)
(0.185367 -0.0231164 4.36476e-20)
(0.213931 -0.0230993 0)
(0.242644 -0.023225 4.44219e-20)
(0.268601 -0.0221681 0)
(0.298546 -0.0223815 0)
(0.324789 -0.0214653 0)
(0.353411 -0.0210818 4.61217e-20)
(0.382187 -0.0215599 0)
(0.408254 -0.0206409 -4.4737e-20)
(0.436734 -0.0198402 0)
(0.464762 -0.0197202 0)
(0.492312 -0.0197219 9.51969e-20)
(0.519532 -0.0195731 -9.55991e-20)
(0.54625 -0.0192304 0)
(0.572202 -0.0189252 0)
(0.596674 -0.0175616 0)
(0.618485 -0.0147013 2.90953e-19)
(0.640054 -0.00930038 0)
(0.647557 0.00339075 -1.88895e-19)
(0.000919161 -0.0195172 -3.36818e-23)
(-0.000451076 -0.0169137 5.32115e-20)
(-0.00403664 -0.00760709 0)
(-0.00856731 0.001616 -4.54187e-20)
(-0.0139604 0.0100674 0)
(-0.0200775 0.0175722 0)
(-0.0268718 0.0240724 1.2033e-23)
(-0.0343548 0.029582 1.95122e-20)
(-0.0425421 0.0341897 1.90528e-20)
(-0.0514284 0.0380416 1.86569e-20)
(-0.0609825 0.0413045 0)
(-0.0711542 0.0441333 0)
(-0.0818863 0.0466511 -1.75175e-20)
(-0.0931234 0.0489457 -3.43219e-20)
(-0.104816 0.0510732 3.36244e-20)
(-0.116922 0.0530659 0)
(-0.129407 0.0549404 3.22751e-20)
(-0.14224 0.0567037 -1.58263e-20)
(-0.155397 0.0583576 0)
(-0.168855 0.0599021 3.03689e-20)
(-0.182597 0.0613362 1.48969e-20)
(-0.196604 0.0626599 -2.91794e-20)
(-0.210862 0.0638738 -1.43186e-20)
(-0.225357 0.0649795 0)
(-0.240076 0.0659798 2.75209e-20)
(-0.255006 0.0668782 2.70019e-20)
(-0.270139 0.0676788 0)
(-0.285462 0.0683863 2.60139e-20)
(-0.300967 0.0690055 0)
(-0.316645 0.0695415 2.50916e-20)
(-0.332488 0.0699992 1.23414e-20)
(-0.348487 0.0703835 0)
(-0.364636 0.070699 0)
(-0.380928 0.07095 0)
(-0.397354 0.0711406 0)
(-0.413909 0.0712742 0)
(-0.430585 0.071354 0)
(-0.447376 0.0713828 2.20059e-20)
(-0.464275 0.0713631 -3.25387e-20)
(-0.481276 0.0712971 0)
(-0.49837 0.0711868 0)
(-0.515551 0.0710339 0)
(-0.532812 0.0708402 3.4202e-23)
(-0.550145 0.070607 2.02728e-20)
(-0.567542 0.0703355 4.00001e-20)
(-0.584994 0.0700267 -3.95095e-20)
(-0.602493 0.0696806 -1.95017e-20)
(-0.620028 0.0692968 1.93111e-20)
(-0.637589 0.0688742 -3.53752e-23)
(-0.655166 0.0684108 1.88517e-20)
(-0.672748 0.067904 0)
(-0.690322 0.0673516 1.84636e-20)
(-0.707877 0.0667519 -3.45708e-23)
(-0.725402 0.0661049 0)
(-0.742885 0.0654131 0)
(-0.760314 0.0646814 -1.77935e-20)
(-0.777677 0.0639166 0)
(-0.794958 0.0631267 0)
(-0.812143 0.0623195 1.73603e-20)
(-0.829209 0.0615032 3.45535e-20)
(-0.846127 0.0606852 -1.72015e-20)
(-0.862856 0.059868 0)
(-0.879339 0.0590373 1.70287e-20)
(-0.895488 0.0581407 0)
(-0.911213 0.057066 1.68608e-20)
(-0.926582 0.0556993 1.68311e-20)
(-0.941814 0.0541533 -3.35035e-20)
(-0.956874 0.0527864 -1.66679e-20)
(-0.971285 0.0516934 0)
(-0.984724 0.0503525 3.30486e-20)
(-0.997539 0.0483922 0)
(-1.01023 0.0460425 4.89931e-20)
(-1.0229 0.0438376 3.23424e-20)
(-1.03527 0.042021 3.19873e-20)
(-1.0465 0.0407704 -3.16058e-20)
(-1.05615 0.0392685 4.68685e-20)
(-1.06543 0.0364184 0)
(-1.075 0.0337133 0)
(-1.08418 0.0315952 -3.02294e-20)
(-1.09229 0.0297118 -4.46107e-20)
(-1.09938 0.0272329 0)
(-1.10632 0.0245607 1.43969e-20)
(-1.11265 0.0222038 0)
(-1.11882 0.0196451 -4.18377e-20)
(-1.12468 0.0176603 -2.40263e-23)
(-1.12963 0.0158049 1.87381e-23)
(-1.13381 0.0139405 2.63186e-20)
(-1.13728 0.0120374 0)
(-1.14008 0.0101053 -2.5197e-20)
(-1.14223 0.00815782 8.65194e-24)
(-1.14372 0.00620825 0)
(-1.14458 0.00426987 0)
(-1.14479 0.00235692 0)
(-1.14435 0.000482975 2.21065e-20)
(-1.14324 -0.00135864 0)
(-1.1414 -0.00319147 0)
(-1.13882 -0.00501164 0)
(-1.1355 -0.00681649 0)
(-1.13143 -0.00860382 0)
(-1.1266 -0.0103714 1.7985e-20)
(-1.121 -0.0121168 0)
(-1.11463 -0.0138376 1.64036e-20)
(-1.10748 -0.0155315 1.56307e-20)
(-1.09957 -0.0171959 -1.48451e-20)
(-1.09088 -0.0188285 0)
(-1.08141 -0.020427 -1.32368e-20)
(-1.07118 -0.0219893 0)
(-1.06018 -0.0235132 -1.15815e-20)
(-1.04841 -0.0249967 1.07372e-20)
(-1.03589 -0.026438 2.99255e-20)
(-1.02262 -0.0278353 0)
(-1.00861 -0.0291869 2.47311e-20)
(-0.993867 -0.0304914 7.57252e-21)
(-0.9784 -0.0317472 0)
(-0.962223 -0.0329532 1.1271e-20)
(-0.945347 -0.0341083 9.46751e-21)
(-0.927787 -0.0352115 -1.12987e-20)
(-0.909555 -0.0362621 0)
(-0.890668 -0.0372593 -1.80423e-21)
(-0.871141 -0.0382026 -8.74839e-22)
(-0.850991 -0.0390914 -2.12813e-22)
(-0.830236 -0.0399254 0)
(-0.808894 -0.0407043 0)
(-0.786984 -0.0414281 0)
(-0.764527 -0.042097 3.40194e-21)
(-0.741541 -0.0427112 0)
(-0.718049 -0.0432711 0)
(-0.694071 -0.0437771 -6.64585e-21)
(-0.669629 -0.0442297 -7.58623e-21)
(-0.644744 -0.0446297 0)
(-0.61944 -0.0449778 0)
(-0.593739 -0.045275 -2.07826e-20)
(-0.567663 -0.0455224 0)
(-0.541234 -0.0457211 2.44827e-20)
(-0.514477 -0.0458723 2.58639e-20)
(-0.487412 -0.0459772 0)
(-0.460064 -0.0460373 0)
(-0.432455 -0.0460541 -3.12863e-20)
(-0.404605 -0.0460291 -4.54923e-22)
(-0.376539 -0.0459639 -4.54368e-22)
(-0.348276 -0.04586 0)
(-0.319839 -0.0457194 -7.7046e-20)
(-0.291248 -0.0455437 0)
(-0.262524 -0.0453346 0)
(-0.233685 -0.0450938 0)
(-0.204751 -0.0448234 4.54395e-20)
(-0.175742 -0.0445248 0)
(-0.146673 -0.0442 -9.64222e-20)
(-0.117563 -0.0438508 -5.02155e-20)
(-0.0884276 -0.0434792 0)
(-0.0592821 -0.0430876 -5.32734e-20)
(-0.0301412 -0.0426798 0)
(-0.00101872 -0.0422627 0)
(0.0280709 -0.0418481 -1.70968e-19)
(0.0570983 -0.0414557 1.15688e-19)
(0.0859724 -0.0410972 0)
(0.114772 -0.0405722 1.19418e-19)
(0.143011 -0.039974 -6.10666e-20)
(0.172115 -0.0393903 0)
(0.200446 -0.0386247 0)
(0.229205 -0.0381403 0)
(0.25773 -0.0376814 -1.93613e-19)
(0.286092 -0.0373739 0)
(0.314537 -0.0367509 -6.63297e-20)
(0.342181 -0.0362043 0)
(0.37082 -0.0359071 0)
(0.398372 -0.0352183 0)
(0.426375 -0.0350619 0)
(0.454408 -0.0345165 0)
(0.481968 -0.033737 0)
(0.509937 -0.033461 -1.40622e-19)
(0.537545 -0.0330452 0)
(0.564995 -0.0325053 -7.17964e-20)
(0.592188 -0.0319476 2.16182e-19)
(0.618975 -0.0310901 0)
(0.645141 -0.0298653 0)
(0.670448 -0.0277097 -1.46436e-19)
(0.693698 -0.0242069 -1.47469e-19)
(0.717215 -0.0176145 1.48692e-19)
(0.733633 -0.00422756 1.49739e-19)
(-0.000895276 -0.0161802 -8.34418e-20)
(-0.00598457 -0.00757349 -7.78066e-20)
(-0.0122092 0.00401885 -4.63541e-20)
(-0.018905 0.0145113 -2.11176e-20)
(-0.0261398 0.0239533 0)
(-0.0337546 0.0323891 3.76528e-20)
(-0.0417307 0.0398423 -1.8118e-20)
(-0.05011 0.0463485 0)
(-0.0589366 0.051978 -1.71289e-20)
(-0.0682366 0.0568359 0)
(-0.0780136 0.0610468 3.26914e-20)
(-0.0882517 0.0647356 0)
(-0.0989218 0.0680125 1.56659e-20)
(-0.109988 0.070965 3.0682e-20)
(-0.121414 0.0736573 -3.00509e-20)
(-0.133165 0.0761335 0)
(-0.14521 0.0784219 -2.88394e-20)
(-0.157524 0.0805403 0)
(-0.170083 0.0824997 0)
(-0.18287 0.0843073 -2.71416e-20)
(-0.195868 0.0859683 0)
(-0.209065 0.0874873 5.4662e-24)
(-0.222449 0.0888688 0)
(-0.236011 0.0901179 0)
(-0.249741 0.0912398 -4.37185e-24)
(-0.263633 0.0922402 -2.41662e-20)
(-0.277681 0.0931251 -2.37195e-20)
(-0.291878 0.0939008 -2.32958e-20)
(-0.306219 0.0945732 0)
(-0.320698 0.0951486 -4.49622e-20)
(-0.335312 0.0956328 0)
(-0.350055 0.0960313 -2.17216e-20)
(-0.364923 0.0963492 0)
(-0.379911 0.0965914 0)
(-0.395015 0.0967621 2.06837e-20)
(-0.410229 0.096865 0)
(-0.425549 0.0969034 -2.00532e-20)
(-0.44097 0.0968802 -7.28257e-24)
(-0.456486 0.0967978 3.89451e-20)
(-0.472091 0.0966583 -3.83858e-20)
(-0.48778 0.0964635 0)
(-0.503546 0.096215 0)
(-0.519382 0.0959141 -1.8418e-20)
(-0.535281 0.0955619 0)
(-0.551234 0.095159 -1.79756e-20)
(-0.567233 0.0947058 1.77588e-20)
(-0.583269 0.0942018 1.75506e-20)
(-0.599331 0.0936461 0)
(-0.615409 0.0930369 -1.71594e-20)
(-0.631491 0.0923719 -1.69758e-20)
(-0.647565 0.0916484 3.35786e-20)
(-0.663619 0.0908637 -1.66317e-20)