/*--------------------------------*- C++ -*----------------------------------*\
  =========                 |
  \\      /  F ield         | OpenFOAM: The Open Source CFD Toolbox
   \\    /   O peration     | Website:  https://openfoam.org
    \\  /    A nd           | Version:  7
     \\/     M anipulation  |
\*---------------------------------------------------------------------------*/
FoamFile
{
    version     2.0;
    format      ascii;
    class       volScalarField;
    location    "17";
    object      p;
}
// * * * * * * * * * * * * * * * * * * * * * * * * * * * * * * * * * * * * * //

dimensions      [0 2 -2 0 0 0 0];

internalField   nonuniform List<scalar> 
918
(
3.87186
17.082
0.194291
3.79731
0.154977
16.1751
1.0569
2.62224
3.33628
0.565257
0.598078
2.73376
12.185
6.34226
1.48779
0.188569
2.6736
0.452072
3.2347
0.275706
2.0823
3.50094
3.62646
3.35679
2.68825
3.37521
8.90039
0.282067
0.0305439
0.111233
0.137202
0.0816199
0.0155338
13.5636
14.6982
15.1514
2.88016
1.165
1.18377
1.26081
0.961581
0.846314
2.62957
2.64377
1.70117
2.6159
2.60915
3.01981
3.3204
3.33759
3.38186
3.34668
3.39331
1.31801
0.528011
0.483016
0.586737
0.611943
0.613502
0.618306
0.614649
0.568013
0.534405
2.68494
2.74561
2.75397
2.718
2.70916
15.3532
14.4196
15.0496
12.9969
13.3497
11.3788
10.6034
6.87375
7.34448
5.85392
5.28784
1.02235
0.725682
1.83633
2.25893
0.0268257
0.226044
0.259018
2.67547
2.68036
2.67637
2.67626
1.91753
0.490359
0.517678
3.16044
3.10876
3.4956
3.54636
3.42809
3.44707
0.308741
0.31519
0.260836
0.241097
0.194055
2.40259
2.51053
3.30834
3.22102
2.69991
2.6864
2.69276
2.39661
2.66434
2.67163
4.51363
4.8551
3.96187
4.43445
8.2888
7.64588
9.65726
10.3451
0.0938568
0.038726
0.136251
0.0518266
0.0971836
2.86394
2.83936
2.88965
2.90121
2.9306
0.945905
0.687875
1.30746
1.4164
1.36052
1.43427
0.581665
0.755047
0.659416
1.91408
2.64847
2.65498
1.52125
1.65229
1.58213
1.77104
1.82435
2.94649
2.99621
2.9666
3.14717
3.05205
3.09493
3.41207
3.34365
3.3835
1.40589
1.47791
1.22936
1.14846
0.442848
0.458403
0.452865
0.638754
0.64978
0.660181
0.696219
0.557129
0.527336
0.64982
0.633225
0.64229
0.491138
0.455337
2.6529
2.62694
2.71631
2.73881
2.82465
2.80687
2.76901
2.79074
9.42262
9.94862
10.0886
9.46191
-0.416933
-1.28775
2.60724
2.92041
0.0654159
0.0498535
0.0259172
0.0540408
0.0714828
0.0204969
0.42068
0.386051
0.298851
0.355112
2.67829
2.67468
1.97395
2.03189
1.87778
1.81578
2.9772
2.99537
3.06619
3.02196
0.422432
0.351547
0.386548
2.59067
2.54661
2.57585
2.33212
2.26504
2.45308
2.4885
2.67364
2.67661
2.67605
4.8796
5.25646
10.6469
11.0665
11.1362
11.6992
13.3363
13.0803
12.0781
2.76461
2.81498
2.79448
2.9554
2.90866
2.93646
2.83856
2.87499
2.85736
0.471555
0.29374
1.71001
1.64474
1.48575
1.56422
1.93621
1.96326
2.67071
2.65993
2.66628
1.89229
1.95333
1.05154
0.973129
2.5241
2.60332
2.56442
8.77977
7.86848
8.92426
8.36354
7.69485
8.17592
-0.0148069
-0.784602
-0.336682
4.08034
3.28433
3.70715
0.504825
0.43677
0.463699
2.05929
2.04602
1.56618
1.72607
1.6424
5.62814
6.12064
7.05574
5.84444
6.46464
7.05722
6.75795
1.86978
1.78022
1.8245
2.04275
2.06442
2.18773
2.02495
2.09572
0.757433
0.903548
0.838865
2.05855
2.05793
2.05271
3.26595
3.32947
0.176625
0.25834
3.37802
3.35548
0.0124629
0.043994
3.29137
1.28173
1.87803
3.08489
3.02119
3.30489
0.575862
1.37177
0.636267
0.696993
0.552812
2.75733
2.72471
2.61487
0.0967742
0.257103
0.33695
0.59429
3.23222
3.15452
3.28956
3.32699
3.33221
0.139596
0.187576
0.123348
0.273907
0.220099
0.259876
2.88482
2.89142
1.25636
3.28941
3.32578
3.32823
3.139
3.25662
3.1455
0.197423
0.120761
0.140057
2.22398
2.4666
3.15019
2.69925
3.09782
3.06299
2.78337
4.01498
3.53223
3.56867
4.00372
2.64751
2.61842
1.9237
1.75649
1.97725
1.94959
3.06848
3.02434
2.99929
2.97288
3.19357
3.13584
3.23901
3.16165
3.21589
3.25442
0.58275
0.611272
0.551287
0.475722
1.37518
1.49564
1.21065
1.237
0.907323
0.584013
0.573683
0.615767
0.60281
0.635746
0.546212
0.612003
0.537801
0.492196
0.477818
0.617469
0.554151
0.546764
2.75946
2.75464
2.7225
2.72611
2.74091
2.75676
2.6406
2.68678
2.64788
2.50292
2.57066
2.51936
0.145994
0.131403
0.109218
0.269867
0.287435
0.228946
0.174311
0.243243
0.227588
0.178026
0.306766
0.30889
0.698253
0.637757
2.0354
1.85183
1.47144
3.04504
3.13033
3.04076
3.18467
3.23682
3.25036
3.2027
3.13995
2.90436
2.90482
2.85771
2.85308
1.26842
1.05818
1.3986
1.39806
1.336
2.67888
2.43132
2.30901
2.34916
2.59995
3.15256
2.30423
2.15985
2.16088
1.62059
2.498
1.884
2.39254
2.24905
4.87357
5.27656
4.87126
4.37328
4.45623
0.498759
2.54346
1.60328
1.58615
1.8358
1.75747
2.53845
2.64555
2.64681
2.58623
2.60039
2.62196
2.60541
2.62305
2.6262
2.61983
2.42608
2.22477
2.09614
2.10303
2.67214
2.46738
2.53122
2.46624
2.94966
3.01333
2.96985
2.89984
2.95223
2.89596
2.88807
2.91548
3.08454
3.05069
3.02573
3.07277
0.63785
0.637061
0.679396
0.643076
0.580414
0.537494
0.658792
0.971481
0.895517
1.45481
1.52685
0.916282
0.74188
0.72798
0.937097
1.12861
1.12926
0.858389
0.963368
1.05917
0.965995
1.14135
1.03416
0.609945
0.654017
0.644324
0.634198
0.704524
0.816267
0.723561
0.530367
0.573598
0.520947
0.483167
0.753781
0.66227
0.66519
0.795769
0.243313
0.275282
0.309485
0.504603
0.408566
0.439396
2.83297
2.7884
2.80675
2.70529
2.718
2.70939
2.65953
2.84508
2.80942
2.82677
2.6587
2.67349
2.64412
2.67853
2.72842
2.76185
2.86837
2.83617
2.74114
2.76146
2.7186
2.70892
2.62182
2.56522
2.5526
0.221453
0.163058
0.198811
0.183318
0.123969
0.156128
0.451818
0.342366
0.412171
0.363274
0.409943
0.296908
0.273654
0.887272
1.00724
1.03839
0.831973
0.833327
2.01427
2.01528
1.8704
1.7538
1.82209
1.91638
1.92818
1.60543
1.73378
1.67799
1.91933
2.05928
3.13135
3.12392
3.0884
3.06711
3.09334
1.39563
1.63833
1.69397
1.8137
1.26225
1.4368
1.79692
1.6716
1.88522
1.4559
2.67402
2.68294
2.62985
2.67487
2.67971
2.42322
2.52409
2.59628
2.56999
2.64104
2.65165
2.55709
2.61367
2.59892
2.52416
2.52378
2.46372
2.49403
2.44136
2.42108
2.69508
2.68132
2.71436
2.65771
2.69757
2.63716
2.67317
2.68747
2.70589
2.60952
2.53868
2.5397
2.58637
2.56253
2.60267
2.62139
1.79832
1.87938
1.3801
1.03359
1.1546
0.588114
0.529153
0.867893
1.33458
0.708866
0.435281
-0.181445
2.46781
3.04851
2.62444
2.54773
2.57726
2.59812
2.58476
2.55155
2.55875
2.6513
2.65921
2.66663
2.56308
2.57115
2.58738
2.57151
2.48295
2.24803
2.22867
2.1596
1.90924
1.95931
2.32359
2.19989
2.07251
2.08096
2.45002
2.2983
2.39274
2.42274
2.28132
2.23839
2.53822
2.62689
2.65238
2.61943
2.42891
2.44577
2.49038
2.54049
2.56492
2.61324
2.92525
2.99117
3.00283
2.9703
2.95035
2.96118
2.92884
2.94351
3.00201
3.01821
2.99793
0.648919
0.668103
0.642076
0.635598
0.623423
0.586199
0.784576
0.75666
0.690301
0.716189
0.672741
0.705343
0.653214
0.659834
1.01692
1.06475
1.13694
1.02076
1.30197
1.5347
1.643
1.53816
1.20525
1.2378
1.35226
0.749733
0.739488
0.701132
0.776202
0.801754
0.585238
0.512828
0.46396
0.565996
0.590317
0.447214
0.37654
0.40141
0.485882
0.456686
0.398533
2.81491
2.78846
2.78447
2.75793
2.76641
2.81283
2.83944
2.81329
2.8309
2.83671
2.78769
2.77189
2.7943
0.379833
0.316982
0.343397
0.347052
0.347605
0.327938
0.354961
1.47703
1.24935
1.35517
1.19922
0.941888
0.999196
1.61956
1.8509
1.78192
2.01404
1.96725
1.95937
1.86963
1.90145
1.67108
1.91521
1.77474
2.03881
1.98721
2.03029
1.93851
1.95325
2.2341
2.33135
1.94045
2.04262
2.12962
1.89504
1.94672
2.0153
2.22897
1.32223
1.49979
1.73132
1.77815
1.44944
1.67431
1.4184
1.51126
1.60611
1.68249
1.71966
2.65753
2.65701
2.66993
2.66236
2.68076
2.67149
2.65384
2.67945
2.68904
2.6655
0.564424
0.954614
0.136214
1.14423
1.50186
2.59299
2.42288
2.83226
2.7159
2.64813
2.62389
2.60782
2.56594
2.62189
2.60442
2.20382
2.36782
2.31668
2.34201
2.20753
2.11782
2.56062
2.56821
2.57556
2.6091
2.60586
2.66416
2.91853
2.90134
2.90771
2.91495
2.86205
2.86671
0.887171
0.816146
0.95305
0.940249
0.823181
0.776545
0.478225
0.4252
0.383703
0.364719
0.398614
0.41552
1.52599
1.52336
1.25874
1.43613
1.31056
1.0938
1.14022
1.20839
1.3669
1.46381
1.75591
2.03855
1.88937
1.9301
1.69921
1.7927
1.72933
1.58455
1.62203
1.79652
1.77721
1.99114
1.17254
1.49537
2.91161
2.89251
2.64129
2.36549
2.08917
2.37122
2.49354
2.37775
2.44887
2.55039
2.52385
1.42737
1.34385
2.13284
2.47003
1.7521
1.62379
1.6664
1.96767
1.97135
)
;

boundaryField
{
    wall-4
    {
        type            zeroGradient;
    }
    velocity-inlet-5
    {
        type            zeroGradient;
    }
    velocity-inlet-6
    {
        type            zeroGradient;
    }
    pressure-outlet-7
    {
        type            fixedValue;
        value           uniform 0;
    }
    wall-8
    {
        type            zeroGradient;
    }
    frontAndBackPlanes
    {
        type            empty;
    }
}


// ************************************************************************* //
