/*--------------------------------*- C++ -*----------------------------------*\
  =========                 |
  \\      /  F ield         | OpenFOAM: The Open Source CFD Toolbox
   \\    /   O peration     | Website:  https://openfoam.org
    \\  /    A nd           | Version:  7
     \\/     M anipulation  |
\*---------------------------------------------------------------------------*/
FoamFile
{
    version     2.0;
    format      ascii;
    class       volVectorField;
    location    "17";
    object      U;
}
// * * * * * * * * * * * * * * * * * * * * * * * * * * * * * * * * * * * * * //

dimensions      [0 1 -1 0 0 0 0];

internalField   nonuniform List<vector> 
918
(
(0.813493 -0.0529578 0)
(0.134464 2.47694 0)
(0.0549533 0.677412 0)
(0.756263 0.0535037 0)
(-0.011702 0.697017 -1.88734e-19)
(-0.136691 2.25728 -2.71637e-17)
(0.253662 0.432486 -8.98021e-19)
(0.113659 0.0616856 -5.17783e-20)
(1.00266 -0.00705407 0)
(-0.00944304 0.258918 0)
(-0.00978069 0.366824 0)
(0.213375 0.00100098 0)
(0.117394 1.74038 0)
(0.00852652 1.30129 0)
(-0.00568768 1.04168 -1.29465e-18)
(-0.000783589 0.420793 -1.79204e-19)
(0.126441 0.0302056 3.8162e-18)
(0.0463312 0.371845 -4.19745e-19)
(0.47652 0.0500093 0)
(-0.0139159 0.41179 0)
(0.239219 0.12534 -1.74186e-18)
(1.02784 -0.139905 0)
(0.959574 -0.177527 0)
(0.589229 -0.0666227 0)
(0.18926 0.0118091 0)
(-0.0148982 1.47419 0)
(-0.0469622 1.72797 8.37178e-18)
(-0.015243 0.868532 0)
(0.0412564 1.67048 0)
(0.0576468 1.04938 0)
(-0.00987635 1.69751 0)
(0.0156363 0.922933 1.47683e-19)
(0.013841 0.374697 0)
(-0.320951 2.70296 -1.01721e-21)
(-0.310509 3.10884 2.34707e-17)
(-0.0130235 3.04129 0)
(0.241387 -0.000450174 0)
(0.0658361 0.0832857 5.42179e-19)
(0.440163 0.713187 1.97627e-18)
(0.282332 0.363917 -1.60881e-18)
(0.38654 0.804201 1.85484e-19)
(0.217567 0.47384 -9.15e-19)
(0.223858 0.120047 5.21655e-20)
(0.119508 0.060286 0)
(0.321174 0.199118 0)
(0.221947 0.12221 2.3297e-19)
(0.114246 0.0663895 -2.31464e-19)
(0.275187 -0.0145454 0)
(1.01042 -0.000304413 0)
(1.00278 0.0066555 0)
(1.0749 -0.154103 0)
(1.01612 -0.0280388 0)
(1.01126 -0.0177434 0)
(0.00657798 0.504065 -2.36589e-18)
(-0.0225838 0.53663 0)
(0.00115801 0.250462 0)
(-0.0222787 0.557484 0)
(-0.0119419 0.276568 0)
(-0.00108434 0.459069 0)
(-0.0255937 0.691365 0)
(-0.00558503 0.339527 0)
(-0.0151332 0.723373 0)
(-0.0047311 0.388417 0)
(0.258439 0.00316496 0)
(0.409216 -0.00115524 0)
(0.215656 0.00282905 0)
(0.400073 0.0047344 0)
(0.205227 0.0022377 0)
(0.345186 2.93893 1.07017e-17)
(0.284413 3.23577 0)
(0.225159 3.03561 0)
(0.211121 2.70618 1.15412e-22)
(0.138778 2.12556 -1.50415e-17)
(0.177552 2.49081 0)
(0.0775997 1.54064 0)
(0.0169764 2.25847 1.58907e-23)
(0.0180439 1.30085 0)
(-0.0620468 2.29128 0)
(-0.0450556 1.32055 0)
(0.0255256 1.76622 0)
(-0.0102673 1.17307 0)
(0.0122926 1.90047 1.30956e-18)
(0.00349641 1.09441 0)
(-0.015961 2.40027 0)
(0.00517012 0.789917 1.81353e-19)
(-0.00451042 0.425627 -2.34982e-19)
(0.252577 0.0583573 -1.35062e-18)
(0.128441 0.0250004 -1.29103e-18)
(0.255456 0.0682509 -4.06187e-18)
(0.128008 0.038609 -2.56632e-18)
(0.0466144 0.363167 0)
(0.113608 0.71751 4.09245e-19)
(0.109944 0.426962 -6.45339e-19)
(0.657038 0.0839718 0)
(0.346473 0.0353905 0)
(1.00992 0.0417393 0)
(1.02762 0.158975 0)
(0.935659 0.139901 -1.68107e-17)
(0.850097 0.134906 1.26017e-17)
(-0.0282634 0.768801 0)
(-0.00129754 0.387477 0)
(-0.00615923 1.18278 0)
(-0.0305458 0.819361 0)
(-0.0306237 0.404245 0)
(0.403095 0.141554 5.99429e-19)
(0.175074 0.0914859 0)
(0.742521 -0.0932661 0)
(0.411865 -0.0416832 0)
(0.387117 0.00317367 0)
(0.370721 0.00780721 0)
(0.196741 0.00220272 0)
(0.328894 0.0168664 0)
(0.305186 0.0224807 0)
(0.130619 0.00978655 5.91945e-18)
(-0.0213514 1.34857 4.33588e-18)
(-0.0513281 2.42569 0)
(-0.0727195 2.51253 0)
(-0.0189463 1.35857 0)
(-0.0666306 2.63615 7.68804e-18)
(-0.0345583 1.62918 0)
(-0.103449 2.69816 -2.52403e-17)
(-0.0733535 1.81722 8.4555e-18)
(0.0289838 2.01737 0)
(0.0244691 2.19775 0)
(-0.00607283 0.768865 -3.87408e-21)
(-0.00463355 0.744638 0)
(-0.00402225 0.407787 0)
(0.459842 0.0113714 0)
(0.247259 0.00515762 0)
(0.232738 0.00289006 0)
(0.458755 -0.00837082 0)
(0.250119 -0.00237531 0)
(0.215463 0.245066 -7.30092e-19)
(0.0551248 0.0705157 0)
(0.198739 0.275105 9.66441e-20)
(0.0716349 0.116245 0)
(0.497972 0.604369 5.26806e-19)
(0.300946 0.311776 -1.18858e-18)
(0.234204 0.783177 0)
(0.315693 0.830757 0)
(0.170922 0.476375 0)
(0.0636255 0.164751 -7.6874e-19)
(0.239308 0.110123 0)
(0.123833 0.0533333 7.00079e-19)
(0.520883 0.518454 0)
(0.542956 0.42311 0)
(0.308743 0.253193 1.32872e-18)
(0.57289 0.324449 0)
(0.34659 0.149599 2.81166e-20)
(0.47683 0.00313756 0)
(0.483565 -0.00641763 0)
(0.256422 -0.000169418 0)
(0.619128 -0.0613585 0)
(0.526628 -0.0412565 0)
(0.329055 -0.0267668 0)
(1.0256 0.0654135 0)
(1.01256 0.0270532 0)
(1.00465 0.0214936 0)
(0.0130991 0.909176 1.2832e-18)
(0.00741157 0.471709 0)
(0.00271246 0.938435 2.26065e-18)
(-0.0012544 0.518328 -1.98899e-18)
(0.0425511 0.62973 3.59362e-19)
(0.0232942 0.540865 0)
(0.0193286 0.304711 0)
(-0.0257017 0.59746 0)
(-0.00866629 0.308538 0)
(0.00342405 0.852868 -8.75201e-21)
(-0.0107309 0.46396 0)
(-0.0237808 0.833151 -4.46493e-19)
(-0.00858668 0.434406 8.52036e-19)
(-0.00991401 0.630944 0)
(-0.000190473 0.651275 0)
(-0.0028813 0.330699 0)
(0.00107318 0.731853 0)
(-4.30315e-05 0.390087 0)
(0.482135 0.000281186 0)
(0.259831 0.00289654 0)
(0.47287 0.00881574 0)
(0.250213 0.000390536 0)
(0.227814 2.83464e-05 0)
(0.429407 0.00266714 0)
(0.41541 0.012046 0)
(0.225836 0.00363719 0)
(-0.00647504 4.03788 -6.93148e-20)
(0.0602221 3.91025 0)
(0.0867616 2.35695 0)
(0.0374115 1.3979 0)
(0.242122 1.66388 0)
(0.25808 0.707376 2.22826e-19)
(0.0266685 1.98905 0)
(-0.0217216 1.14752 0)
(0.00395072 2.30843 0)
(-0.0135002 2.40067 0)
(-0.00236753 2.37823 0)
(-0.00942844 1.7914 2.39537e-20)
(-0.0114378 2.36408 0)
(-0.00230886 2.16541 0)
(0.00470994 0.435622 2.06831e-20)
(0.0100632 0.832098 3.32075e-19)
(-0.0136933 0.807637 2.45301e-19)
(-0.000899873 0.442609 0)
(0.258722 0.0410493 2.08323e-18)
(0.127992 0.0166002 -2.00218e-18)
(0.087818 0.672495 0)
(0.0616891 0.329747 -5.75357e-19)
(0.0721257 0.73532 -1.90716e-18)
(0.0286697 0.408781 1.86582e-18)
(0.259386 0.00583096 0)
(0.501581 0.0121129 0)
(0.546182 0.0364108 0)
(0.289756 0.0119933 0)
(0.00486188 0.735419 0)
(0.0138297 0.736324 0)
(0.00265413 0.393055 0)
(0.222665 0.128104 2.09094e-18)
(0.256151 0.131745 -2.35966e-18)
(0.1241 0.0712594 0)
(0.622674 0.0473623 2.35156e-19)
(0.36457 0.0303523 0)
(0.55896 0.0332573 0)
(0.289416 0.00722291 0)
(0.259288 0.0305147 0)
(0.263089 0.0179478 -9.68818e-18)
(0.131161 0.0116165 3.52719e-18)
(-0.0280408 2.40744 4.85294e-18)
(-0.0221861 1.43725 4.51069e-19)
(0.0206282 3.94123 -1.60116e-19)
(0.126146 3.8064 7.01702e-18)
(-0.141172 2.77488 3.09747e-19)
(-0.0946642 1.99797 -1.26391e-21)
(-0.258627 3.0954 -6.57764e-18)
(0.0494095 3.53287 4.92799e-18)
(0.0129024 3.73836 -7.37729e-18)
(0.466475 -0.00384782 0)
(0.471357 0.0064454 0)
(0.251517 0.000216252 0)
(0.471659 0.0060222 0)
(0.446296 0.0120695 0)
(0.247139 0.00535686 0)
(0.435452 -0.00266446 0)
(0.436684 -0.00346512 0)
(0.230269 -0.00155796 0)
(0.163147 0.276325 -3.71765e-19)
(0.0525049 0.118766 0)
(0.0672055 0.131983 2.0514e-19)
(0.154792 0.305128 1.60506e-18)
(0.162282 0.298111 -8.84383e-19)
(0.0647468 0.123513 1.66064e-18)
(0.128695 0.361899 3.94232e-18)
(0.0699521 0.163975 7.50421e-19)
(0.252179 0.0850671 2.75681e-18)
(0.246359 0.100134 7.1581e-19)
(0.127271 0.0467552 1.32134e-18)
(0.619966 0.23954 -1.5295e-18)
(0.371635 0.110549 -1.66491e-18)
(-0.0193353 0.924662 9.62593e-19)
(-0.00716319 0.504314 0)
(0.523756 0.00848699 0)
(0.498446 0.0180704 0)
(0.278079 0.00757474 0)
(0.0159689 4.013 0)
(0.0437429 2.2622 9.88514e-18)
(0.058057 2.29557 0)
(0.0235585 1.33435 -9.1749e-18)
(-0.0171137 4.07975 1.95191e-18)
(-0.0298624 4.10506 0)
(0.235935 0.376538 -3.64373e-20)
(0.313066 0.68745 2.75902e-19)
(0.0729112 0.211613 -4.04684e-19)
(-0.0477303 2.27223 -4.20837e-18)
(-0.0479289 2.1036 0)
(-0.031069 1.26788 0)
(0.0130723 0.816142 -2.46535e-20)
(0.0171082 0.83677 -7.31067e-19)
(0.00910005 0.432865 -2.74787e-20)
(0.139449 0.608037 1.91149e-18)
(0.0697733 0.269927 -1.23709e-18)
(0.00750963 0.851811 1.56672e-18)
(0.0208487 0.787296 -1.74896e-18)
(0.0109402 0.438717 8.42978e-20)
(-0.0253495 4.05487 -1.12553e-17)
(-0.0368381 4.13954 1.09631e-17)
(-0.0386571 2.556 6.21383e-18)
(-0.0740302 2.45557 -5.33643e-18)
(-0.0193288 1.5524 -5.99318e-18)
(-0.042011 4.13041 -1.44778e-17)
(-0.0441113 4.12787 1.27232e-17)
(0.154151 0.355279 0)
(0.165336 0.328069 -3.66457e-18)
(0.0722465 0.150783 1.56035e-18)
(0.174001 0.414389 2.36132e-18)
(0.075431 0.212423 -3.53705e-18)
(0.658287 0.100313 8.93665e-19)
(0.656574 0.175973 0)
(0.386061 0.071589 -8.8604e-19)
(-0.0342627 0.868716 -9.72794e-21)
(-0.0117739 0.907019 0)
(-0.00893795 0.496135 0)
(0.132236 0.525775 -6.71833e-19)
(0.13738 0.477209 -1.45123e-18)
(0.0684053 0.242528 2.64444e-18)
(1.05418 -0.151212 0)
(1.12544 -0.152776 2.99706e-18)
(0.0310532 1.95551 0)
(0.01728 1.67729 0)
(1.05546 0.0993918 2.23329e-20)
(1.03989 0.173958 6.23129e-18)
(0.0164412 1.81557 -3.13261e-20)
(0.00415569 1.43587 0)
(-0.0714919 3.76725 2.85365e-18)
(0.0357363 3.44517 0)
(1.1203 0.544487 -7.93636e-19)
(1.04749 0.0881579 -3.5889e-20)
(1.03385 -0.0369653 0)
(1.03873 -0.000558848 -7.97265e-23)
(0.00832349 1.3802 0)
(0.0535334 1.89478 0)
(-0.0362937 1.52666 0)
(-0.0228488 1.82314 6.31941e-19)
(-0.0118656 1.86024 4.03275e-19)
(0.899084 0.00932082 -1.87353e-20)
(1.00205 0.0104149 0)
(1.03654 0.0266188 0)
(-0.0175686 2.38697 0)
(-0.0179562 1.64612 0)
(-0.035989 1.72378 0)
(0.320895 1.521 5.51928e-19)
(1.11633 -0.144186 0)
(0.991421 -0.111704 0)
(1.06511 -0.0206967 3.82721e-18)
(1.10704 -0.121537 -4.53243e-18)
(1.04037 -0.047994 0)
(-0.0245503 2.36323 0)
(0.00197642 2.16226 0)
(0.000582252 2.27577 0)
(-0.0182469 1.79322 0)
(-0.0215557 1.67849 0)
(-0.0240728 1.47751 0)
(0.975039 0.000338823 0)
(0.941651 0.0105696 -2.36476e-20)
(0.80031 1.25463 -9.55216e-19)
(1.06051 0.0181038 -3.82827e-18)
(1.07214 0.106942 4.62755e-18)
(1.03328 0.0453996 0)
(1.13213 0.111267 3.54375e-18)
(1.11819 0.166367 -4.51513e-18)
(1.00821 0.135532 0)
(-0.0221871 1.77146 0)
(0.0030443 1.74519 1.57072e-19)
(-0.0132329 1.38858 -1.1164e-19)
(1.2055 0.176043 4.70457e-18)
(1.13476 0.0634141 0)
(-0.236686 3.94819 -3.73006e-18)
(-0.154346 2.49671 -2.4257e-19)
(-0.236965 4.01175 4.3826e-18)
(-0.0577186 3.90875 -1.73758e-18)
(-0.0165803 3.55023 0)
(-0.0220806 3.82534 1.41297e-18)
(-0.163666 4.15468 3.8448e-18)
(-0.0800494 4.04425 -2.6285e-18)
(-0.102312 4.05441 0)
(0.495969 0.225244 0)
(0.469436 0.258151 0)
(1.13894 0.69293 2.40804e-18)
(0.99745 0.672268 -3.06095e-18)
(1.23288 0.565325 0)
(1.09072 0.383103 0)
(1.11082 0.090843 -6.79359e-18)
(0.944672 0.0532606 8.38446e-18)
(1.1081 -0.0483053 0)
(0.929201 -0.0233928 0)
(1.16639 0.0152075 0)
(1.21744 0.0512027 0)
(1.11044 0.0424557 0)
(1.19582 0.105074 0)
(1.15034 0.107034 0)
(1.1247 0.0814399 0)
(0.000799594 1.49293 0)
(-0.00922549 1.16244 0)
(0.0383264 1.59088 0)
(0.061319 1.15695 0)
(0.058743 2.07273 0)
(0.0757617 1.54096 -1.19304e-18)
(-0.00941379 2.03457 0)
(-0.0125698 1.69904 8.53904e-19)
(-0.0300022 1.71924 -1.05155e-18)
(-0.0276811 1.65561 0)
(-0.0174317 1.35588 0)
(-0.0458802 1.71492 0)
(-0.037253 1.24043 0)
(-0.0858061 2.44794 -5.06581e-19)
(-0.0365993 2.03695 5.36714e-19)
(-0.0384851 1.96487 6.23924e-19)
(-0.0254787 1.57514 0)
(-0.039244 1.9659 -9.47119e-19)
(-0.0110809 1.69073 -5.85237e-19)
(-0.0580507 2.46201 3.76852e-19)
(-0.0388294 2.29822 -6.84653e-19)
(-0.0421549 2.22257 -7.59961e-19)
(1.02862 0.0166995 6.1163e-18)
(0.780373 0.00535304 -7.6855e-18)
(0.989152 0.0314923 -6.10569e-18)
(0.772584 0.0184779 7.59779e-18)
(1.11043 0.010998 0)
(0.864211 0.00120427 0)
(1.13612 0.0296829 0)
(1.09377 0.00868479 0)
(0.889367 0.00554016 0)
(1.20608 0.0731394 0)
(1.13077 0.031104 0)
(0.939452 0.0203693 0)
(-0.00247481 2.25353 -2.12589e-20)
(-0.0169094 2.39345 0)
(-0.0154462 2.3366 0)
(-0.0283636 1.8484 1.72573e-19)
(-0.0118764 1.484 -7.0265e-21)
(-0.0317557 2.4188 2.18809e-19)
(-0.0399572 2.34471 -2.26509e-19)
(-0.0360022 2.16006 0)
(-0.0252173 2.14478 0)
(-0.0205358 2.17108 0)
(-0.0311643 1.87863 0)
(-0.0199279 1.38467 0)
(0.417375 1.73468 -1.25976e-18)
(0.443472 1.401 -4.11286e-19)
(0.290298 1.27732 -4.94311e-19)
(0.14439 1.38725 1.51964e-18)
(0.461018 2.47284 5.41177e-19)
(1.13887 -0.0548232 0)
(1.10036 -0.0860216 0)
(0.934907 -0.057072 0)
(1.17712 -0.0236344 0)
(1.12959 -0.0543332 0)
(1.16231 -0.0958551 0)
(1.18498 -0.101121 0)
(1.20154 -0.097444 0)
(1.06873 0.0226499 6.43905e-18)
(0.833925 0.0167097 -8.10303e-18)
(1.02974 0.0251964 -6.3984e-18)
(0.832421 0.0122101 7.94421e-18)
(0.772364 1.39817 0)
(0.69643 1.31772 -1.1581e-18)
(0.835459 1.30342 -1.11451e-18)
(0.84194 1.01205 1.49285e-18)
(0.657789 1.25769 2.85908e-18)
(0.542299 0.0726519 2.42263e-18)
(1.21963 0.0943614 0)
(1.26941 0.180832 -3.80003e-18)
(1.07559 0.0779292 -1.67883e-19)
(1.25013 0.133752 0)
(-0.211963 3.32165 2.95434e-18)
(-0.257539 3.42157 -3.91775e-18)
(-0.0505802 1.66676 2.26668e-18)
(0.255878 0.513553 -1.21163e-18)
(0.0470598 3.6031 8.06388e-19)
(-0.00450531 3.65197 0)
(0.0274784 3.3292 -1.14661e-18)
(-0.142351 3.56238 -7.59277e-18)
(-0.0322228 3.63067 0)
(-0.0299016 3.96248 2.93942e-19)
(-0.0399523 4.24151 -3.27015e-18)
(-0.0497254 4.02838 4.71711e-18)
(-0.0947765 4.18142 0)
(-0.0366049 4.11295 0)
(0.657622 1.46165 0)
(0.655357 0.840588 -2.20383e-18)
(0.897592 0.809065 1.06762e-18)
(0.892444 1.07038 0)
(0.966621 1.11401 -9.35851e-19)
(1.01177 0.856004 4.54524e-20)
(0.492684 0.166972 -3.11045e-18)
(0.591057 0.256455 -1.92616e-20)
(0.47277 0.176554 1.55763e-18)
(0.518991 0.307668 1.04861e-19)
(0.407886 0.240955 -4.12854e-18)
(0.562476 0.268153 0)
(0.738898 0.391195 2.6402e-18)
(0.748604 0.364607 0)
(0.553416 0.293961 0)
(0.422043 0.212867 0)
(1.06387 0.709539 2.06742e-18)
(1.28456 0.244346 -3.93553e-18)
(1.2437 0.394232 0)
(1.14412 0.248683 0)
(0.529101 0.138671 2.40287e-18)
(1.06794 0.602907 -1.58575e-18)
(0.965713 0.553531 2.93224e-18)
(1.2315 0.45111 -3.60688e-18)
(1.0176 0.0324926 4.34586e-18)
(1.04123 0.0545404 -4.48949e-18)
(0.866506 0.0264627 0)
(1.09015 -0.0102881 0)
(1.0492 -0.0262469 -4.207e-18)
(0.850731 -0.00880844 4.15471e-18)
(1.3373 0.0229914 0)
(1.26033 0.0388673 0)
(1.25122 0.052257 0)
(1.20585 0.0666951 0)
(1.30187 0.0180673 0)
(1.2655 0.0155475 0)
(-0.0575034 1.41069 0)
(-0.0455524 1.16483 0)
(0.108416 1.97332 -7.58886e-19)
(0.305782 1.64251 -3.07851e-19)
(0.135237 1.55228 -6.62253e-19)
(0.183509 1.3 1.07078e-18)
(0.168016 1.98181 0)
(0.13415 2.47546 -9.93856e-19)
(0.0915071 2.50287 0)
(0.374581 2.51578 -7.4632e-19)
(0.321548 2.33988 1.94463e-18)
(0.207928 2.43408 8.59754e-19)
(0.300807 1.96006 -3.78435e-19)
(0.213075 2.08374 3.03533e-19)
(0.344563 2.24698 -1.30741e-18)
(0.265591 2.48488 0)
(0.332114 2.43702 9.60289e-19)
(-0.0860312 2.40971 -3.7614e-19)
(-0.0404386 1.96074 0)
(-0.0402137 2.32632 1.1247e-18)
(-0.0709749 2.35023 0)
(-0.0340028 1.90444 -9.47438e-19)
(-0.0225716 1.5774 0)
(-0.0806881 2.32376 -6.18474e-19)
(-0.0948526 2.44668 0)
(-0.0783642 2.09885 0)
(-0.0551631 2.10841 7.09132e-19)
(-0.041283 2.01777 2.64243e-20)
(-0.0389841 1.95454 1.27695e-18)
(-0.0283872 1.54714 8.26461e-21)
(-0.0502193 2.4349 3.60376e-19)
(-0.0524995 2.45724 2.02905e-19)
(-0.0136538 1.57463 0)
(-0.00294766 1.30368 0)
(-0.104471 2.50356 9.24605e-19)
(-0.102796 2.30533 8.96767e-19)
(-0.112251 2.42781 -1.14736e-18)
(-0.107027 2.50398 0)
(-0.0281342 2.32808 -6.2819e-19)
(-0.0447925 2.1591 2.6801e-19)
(-0.0323647 2.1903 -8.40821e-20)
(-0.025598 2.44508 -4.54862e-19)
(-0.0309001 2.19973 -1.40692e-19)
(-0.0316563 2.17174 6.46743e-19)
(0.959232 0.0107006 -4.23386e-18)
(0.960709 0.00726396 4.11906e-18)
(0.788006 0.00533697 0)
(1.1857 0.0520427 5.63125e-18)
(0.938107 0.0350282 -6.07802e-18)
(0.786509 0.0177327 6.63628e-18)
(1.24362 0.0914606 -7.52501e-19)
(1.05775 -0.0123168 0)
(1.04248 -0.00175267 4.05476e-18)
(0.88055 -0.00279921 -3.98853e-18)
(1.27571 0.0376692 -2.34076e-19)
(1.24357 0.0332743 2.01156e-18)
(1.36982 0.0512461 0)
(1.39366 0.0517228 -6.85798e-19)
(1.34138 0.0345485 0)
(1.24033 0.0340587 0)
(1.35964 0.020656 0)
(1.2441 0.0175076 0)
(1.39142 0.0288296 1.42521e-18)
(1.38406 0.016486 -3.16188e-18)
(1.36794 0.0334507 -1.58834e-18)
(1.38613 0.0333043 -1.68742e-18)
(1.38358 0.0679582 3.33306e-18)
(1.26737 0.0586777 0)
(1.3284 0.0898683 0)
(-0.025617 2.35371 -2.59362e-19)
(-0.00825053 2.38856 -2.26378e-20)
(-0.0252129 2.39991 0)
(-0.022523 2.17284 2.63585e-19)
(-0.018921 2.18846 4.10833e-20)
(-0.0225401 2.13212 -4.02192e-20)
(-0.0291769 1.8451 5.1733e-19)
(-0.0535411 2.07654 -2.96825e-20)
(-0.0340446 2.14076 1.49385e-19)
(-0.0246352 1.78958 -2.64471e-19)
(-0.00834219 1.55146 3.17674e-19)
(-0.0344526 2.35653 1.08145e-20)
(-0.0369067 2.4143 3.28569e-19)
(0.458 1.947 7.20086e-19)
(0.42218 2.18493 1.39184e-18)
(0.663438 1.49876 1.12419e-18)
(0.53865 1.60593 3.96541e-19)
(0.574045 1.37949 0)
(0.357479 1.46713 5.78333e-19)
(0.286703 1.03599 6.85098e-19)
(0.189621 1.57627 4.68098e-20)
(0.270465 2.01021 -2.32951e-18)
(0.357375 2.01641 1.82261e-18)
(0.27242 1.49219 0)
(0.182127 1.18268 -1.20024e-18)
(0.114235 1.82241 2.96501e-18)
(0.132388 1.63092 -8.73236e-20)
(0.0720016 1.31947 -3.74569e-18)
(0.345917 0.922271 2.53842e-18)
(0.373233 1.00855 0)
(1.21498 -0.0267724 1.49026e-19)
(1.21938 -0.0862831 -1.24913e-19)
(1.25136 -0.0754236 -2.19135e-18)
(1.27199 -0.0450574 2.20995e-18)
(1.24852 -0.0189942 0)
(0.733357 1.54903 0)
(0.737341 1.54707 0)
(0.875913 1.35686 0)
(0.757084 1.45823 0)
(0.662077 1.32453 -5.43793e-21)
(0.470532 0.856022 0)
(0.938058 2.70043 2.45996e-20)
(0.752755 2.42526 0)
(0.855776 2.35144 -2.03099e-18)
(0.858749 2.36869 1.31645e-18)
(0.66303 0.108357 0)
(0.535708 0.0938974 6.3609e-19)
(0.866703 0.1148 3.98713e-18)
(0.658639 0.0890651 -1.41965e-18)
(0.525284 0.0397093 -4.43681e-18)
(1.38571 0.243891 -4.97834e-18)
(1.26844 0.320486 -3.68044e-20)
(1.12878 0.280177 3.78556e-18)
(1.2835 0.234883 3.38963e-18)
(1.08076 0.15031 -5.61252e-18)
(1.01214 0.153379 6.87342e-19)
(1.10703 0.22715 -1.53732e-18)
(1.03609 0.216834 0)
(1.26519 0.173505 2.87204e-18)
(1.34664 0.195533 0)
(1.34707 0.236715 0)
(1.32067 0.127879 1.59681e-18)
(1.39169 0.196693 -3.29946e-20)
(1.37123 0.219777 -8.67814e-19)
(1.35554 0.198951 0)
(1.21598 0.0310631 3.15883e-18)
(1.38591 0.0481568 3.94861e-18)
(1.3623 0.0364492 -3.09943e-18)
(1.37011 0.0655127 -2.67758e-18)
(1.25842 0.0604058 -3.99689e-18)
(1.13406 0.11773 0)
(1.15782 0.0874782 0)
(0.904506 0.056678 -2.34912e-18)
(0.753219 0.0353056 8.75822e-19)
(1.34081 0.102133 3.65829e-18)
(1.39671 0.128591 -4.49759e-18)
(1.3977 0.147002 3.98462e-18)
(1.36622 0.144713 0)
(1.39077 0.0999241 0)
(1.39639 0.0925446 -1.85735e-18)
(1.38558 0.0894543 -3.0122e-18)
(0.709315 2.18237 1.09056e-18)
(0.815768 2.7848 -1.11486e-18)
(0.944806 2.80449 -1.24253e-18)
(0.918732 3.0816 2.52457e-19)
(0.735501 1.61079 -2.60994e-18)
(0.725185 1.5101 4.20974e-19)
(0.50859 0.862085 -4.49838e-20)
(0.89687 2.55822 -8.85147e-19)
(0.91069 2.51937 1.61392e-18)
(0.791242 2.87624 2.17215e-19)
(0.740737 2.06002 -2.22089e-19)
(0.679584 1.93037 0)
(0.597758 0.928539 -2.4004e-19)
(0.0152453 1.52102 1.73886e-18)
(0.512311 0.236739 2.01804e-18)
(0.367209 0.354797 2.16104e-18)
(0.480151 0.268966 2.30995e-18)
(0.601935 0.344867 -3.97973e-18)
(0.603647 0.312219 3.24755e-18)
(0.517267 0.238639 -1.14462e-18)
(0.412542 0.210525 2.53948e-18)
(0.609068 0.184254 -1.40267e-18)
(0.58625 0.198583 0)
(0.47765 0.157226 5.3376e-21)
(0.871341 0.511258 1.45477e-18)
(0.767676 0.439566 -5.10285e-18)
(0.663397 0.394504 -3.189e-21)
(0.645991 0.38201 0)
(0.807547 0.860763 1.75179e-18)
(1.02859 0.925369 2.234e-18)
(0.939982 1.00733 -2.58485e-18)
(1.07239 0.938944 -9.12827e-19)
(1.08366 0.911048 -3.22299e-19)
(1.0786 0.978059 3.29205e-19)
(1.14944 0.746825 -3.34808e-18)
(1.15256 0.827784 8.55139e-19)
(1.18442 0.818541 0)
(1.19669 0.739895 -1.24961e-18)
(1.32292 0.344747 1.15465e-18)
(1.38493 0.314994 2.08542e-18)
(1.39505 0.301981 1.98901e-18)
(1.31256 0.423403 -2.25463e-18)
(1.32173 0.434014 0)
(1.33612 0.398319 0)
(1.13164 0.409708 -1.96998e-20)
(0.860405 0.238721 0)
(0.956024 0.254461 1.7003e-18)
(1.10829 0.296705 -2.82333e-20)
(1.23124 0.502662 9.94101e-18)
(1.15759 0.574958 2.52472e-18)
(1.14505 0.508371 -2.48422e-18)
(1.03753 0.462639 2.65418e-18)
(0.959459 0.467143 1.48617e-18)
(0.837926 0.405969 -1.43879e-18)
(1.22181 -0.0266645 3.54035e-18)
(1.32109 -0.0114261 0)
(1.30534 -0.0251028 2.36925e-18)
(1.25733 -0.0189094 -5.30131e-18)
(1.35026 0.00795458 2.59498e-18)
(1.32252 0.03195 -5.43376e-18)
(1.25771 0.0351857 0)
(1.18245 0.0496708 -1.1051e-18)
(1.29264 0.0390081 2.82442e-18)
(1.24335 0.0612153 -1.45017e-18)
(1.20112 0.051841 1.0413e-18)
(-0.060758 1.54111 0)
(-0.0696006 1.93463 0)
(-0.0581459 1.43758 0)
(-0.0343487 1.17563 0)
(-0.0752478 2.08012 1.3007e-18)
(-0.0112828 1.92956 -3.52078e-19)
(0.0317842 2.44524 -4.48304e-19)
(0.00827536 2.28041 4.28531e-19)
(-0.112286 2.28656 -1.0355e-18)
(-0.10665 2.29119 7.76955e-19)
(-0.0602323 2.05766 4.76056e-20)
(-0.0748181 1.94705 -9.04667e-19)
(-0.0694461 1.84155 -1.2645e-19)
(-0.0887092 2.02004 -1.19224e-19)
(-0.0221152 2.44234 -1.19708e-18)
(0.000895634 2.37545 0)
(0.0220625 2.53424 5.81106e-19)
(0.0179431 2.52644 5.09174e-19)
(0.200716 2.46473 -4.62963e-19)
(0.186649 2.26519 0)
(0.195975 2.20142 -2.32883e-18)
(0.256227 2.39786 1.66668e-18)
(0.143034 2.51219 -1.21788e-18)
(0.0764687 2.47864 6.6383e-19)
(0.0729216 2.42632 0)
(-0.0908782 2.48736 -1.11933e-18)
(-0.0683837 2.34153 -1.28589e-18)
(-0.0808454 2.44337 0)
(-0.0704335 2.27437 -1.31956e-20)
(-0.0839133 2.43367 5.64367e-19)
(-0.0540114 2.16518 9.80898e-20)
(-0.0205865 1.98721 -1.41373e-18)
(-0.0394461 2.17285 3.76394e-19)
(-0.0745081 2.41504 5.01836e-19)
(-0.0593455 2.33758 0)
(-0.028033 2.16969 0)
(-0.0370803 1.70351 4.16885e-19)
(-0.0206305 2.0714 -1.25526e-19)
(-0.0273975 2.06433 0)
(-0.0298012 1.60283 3.36555e-19)
(-0.0149408 1.31904 -6.44308e-19)
(1.24876 0.0115096 0)
(1.23676 0.00437998 -3.66648e-19)
(1.39673 0.0167587 -2.59607e-18)
(1.35981 0.013245 0)
(1.28258 0.00590946 0)
(1.39426 0.00524317 -1.31876e-20)
(1.3795 0.00530114 4.31782e-18)
(1.34493 0.0164579 4.96537e-18)
(1.26229 0.0256621 0)
(1.19015 0.0226174 0)
(1.3449 0.0169734 2.5244e-18)
(1.24434 0.0246285 0)
(1.16422 0.0282834 0)
(-0.0282531 2.41732 0)
(-0.040236 2.41467 2.12923e-20)
(-0.0284147 2.43036 1.29937e-19)
(-0.0209577 2.13789 0)
(-0.0410701 2.37966 2.28701e-19)
(-0.0309035 2.28663 -1.28547e-19)
(-0.0260818 2.20066 0)
(0.618876 2.51243 0)
(0.441665 2.36391 -2.47984e-18)
(0.475562 2.4929 0)
(0.576988 2.1712 2.89106e-18)
(0.561927 1.74468 0)
(0.541908 1.9715 -1.21133e-18)
(0.68235 1.83146 -5.3909e-20)
(0.430379 1.16198 -3.014e-18)
(0.382442 0.789981 3.35353e-18)
(0.458006 1.21599 7.30426e-19)
(0.67353 1.82326 0)
(0.701137 1.86873 0)
(0.429584 1.10776 0)
(0.299254 0.77495 -2.52364e-18)
(0.623154 2.48301 -1.91624e-18)
(0.695136 2.19762 -4.50504e-19)
(0.74142 2.41089 3.52401e-19)
(0.374626 1.28465 0)
(0.394949 1.22134 0)
(0.283289 0.939274 -7.88473e-19)
(0.612992 1.91786 0)
(0.703945 1.4437 0)
(0.540483 1.42962 -2.8479e-18)
(0.628894 1.13348 -1.75121e-19)
(0.653384 1.71954 0)
(0.625833 1.85901 4.31868e-18)
(0.947967 1.06987 -8.62531e-19)
(0.925075 1.20987 0)
(0.923982 1.1378 1.46753e-18)
(0.729585 1.25653 0)
(0.726564 1.18307 0)
(0.915829 2.26029 -1.05184e-18)
(0.987541 2.75678 -9.50974e-19)
(0.941852 2.76629 1.89491e-18)
(0.944359 2.70313 -5.5931e-19)
(0.783546 1.81868 0)
(0.829828 2.04082 7.59026e-19)
(0.510935 1.03803 -9.00691e-19)
(0.377798 0.740059 -2.10586e-20)
(0.829146 2.53932 0)
(0.709069 2.1617 -9.68354e-19)
(0.724402 1.99674 0)
(0.817919 0.179112 0)
(0.605673 0.124028 0)
(0.468065 0.104009 0)
(0.801349 0.194279 -2.63007e-18)
(0.614359 0.149059 1.45639e-18)
(0.768443 0.0404412 -1.75646e-18)
(0.928707 0.0928711 0)
(0.873107 0.0940849 7.34139e-19)
(0.642541 0.0454454 2.88987e-18)
(0.557906 0.0270454 -1.83163e-18)
(0.632824 3.06757 2.83001e-19)
(0.726253 3.24783 0)
(0.456636 3.08578 6.78553e-19)
(0.331568 3.55187 -5.62521e-19)
(0.404547 3.47214 -1.30882e-18)
(0.450911 1.24444 2.68864e-18)
(0.439668 1.63439 0)
(0.373801 0.56193 -5.38032e-19)
(0.519942 0.634841 3.54523e-18)
(0.553965 0.307258 -7.52486e-19)
(0.63591 0.3656 8.36684e-19)
(0.761267 0.48347 1.83769e-18)
(0.845063 0.548365 0)
(0.745108 0.542055 0)
(0.728457 0.471826 0)
(1.24957 0.688202 9.00983e-19)
(1.21046 0.613823 -2.44751e-18)
(1.21193 0.667938 2.12538e-18)
(1.25757 0.578703 -1.98154e-18)
(1.33444 0.548116 0)
(1.3147 0.608518 -6.37007e-19)
(0.994901 0.398581 -3.46742e-18)
(1.03024 0.389828 -4.48478e-18)
(0.845638 0.369286 2.64714e-18)
(0.780697 0.332153 -2.55311e-18)
(0.885947 0.29719 -2.13468e-18)
(0.792218 0.280728 2.60623e-18)
(1.3575 0.0067765 -2.74064e-18)
(1.37108 0.00838656 5.40779e-18)
(1.26072 -0.0209076 3.31438e-18)
(1.26642 -0.0228923 -3.91486e-18)
(1.32197 0.00203294 0)
(1.36431 0.00482157 -6.62122e-18)
(-0.0723283 2.51635 2.15608e-19)
(-0.0902647 2.48993 0)
(-0.0393963 2.5266 1.89071e-18)
(-0.0255371 2.53172 -1.70986e-18)
(-0.0215089 2.47732 8.34771e-19)
(-0.0764028 2.45815 0)
(-0.0347895 2.46099 0)
(-0.0370148 2.34058 -1.28089e-19)
(-0.0401772 2.32129 1.14589e-19)
(-0.0420223 2.36206 1.44834e-20)
(-0.0367409 2.42989 -2.01396e-19)
(-0.0283326 2.42494 1.08868e-19)
(0.747449 2.41692 -2.96858e-18)
(0.725277 2.43204 3.16807e-18)
(0.593184 2.17087 -1.64159e-18)
(0.681435 2.46233 1.40752e-19)
(0.680977 1.65468 0)
(0.621636 1.7865 -1.39637e-18)
(0.654435 1.63122 1.37266e-18)
(0.605495 1.93222 1.63538e-18)
(0.686781 2.05966 0)
(0.700317 1.91225 0)
(0.594045 2.40077 2.86919e-18)
(0.519077 1.91044 4.14179e-18)
(0.573859 2.0417 -2.90796e-18)
(0.485905 1.97541 -4.83256e-19)
(0.483262 2.42013 9.61218e-19)
(0.416395 2.20449 -2.36688e-18)
(0.514694 1.05886 -1.88948e-18)
(0.51083 0.967744 0)
(0.383331 0.730263 -1.88685e-18)
(0.789376 1.82033 0)
(0.776349 1.83078 0)
(0.409274 3.03313 -1.49932e-18)
(0.661745 3.37827 -8.82804e-19)
(0.495305 3.45531 1.39471e-18)
(0.150665 1.53915 0)
(0.210348 1.13989 -1.24189e-18)
(0.368052 1.5383 -1.68965e-18)
(0.314575 2.79325 0)
(0.204942 3.33164 9.37826e-19)
(0.0491987 3.1907 0)
(0.880018 0.736648 -3.6685e-18)
(1.00655 0.810574 5.23629e-18)
(1.02387 0.713448 -5.19716e-18)
(0.833888 0.644247 -4.41198e-19)
(0.894422 0.629006 -1.85376e-18)
(0.708322 3.30291 7.26993e-19)
(0.84707 3.20385 -1.45951e-18)
(0.574356 3.03074 3.18146e-18)
(0.549512 2.6959 -2.22796e-18)
(0.831262 2.83148 -2.25799e-18)
(0.855597 3.10227 -3.21157e-19)
(0.916223 3.00581 1.71286e-18)
(0.689522 2.84211 1.4386e-19)
(0.675072 2.64979 9.70083e-19)
)
;

boundaryField
{
    wall-4
    {
        type            noSlip;
    }
    velocity-inlet-5
    {
        type            fixedValue;
        value           uniform (1 0 0);
    }
    velocity-inlet-6
    {
        type            fixedValue;
        value           uniform (0 3 0);
    }
    pressure-outlet-7
    {
        type            zeroGradient;
    }
    wall-8
    {
        type            noSlip;
    }
    frontAndBackPlanes
    {
        type            empty;
    }
}


// ************************************************************************* //
