/*--------------------------------*- C++ -*----------------------------------*\
  =========                 |
  \\      /  F ield         | OpenFOAM: The Open Source CFD Toolbox
   \\    /   O peration     | Website:  https://openfoam.org
    \\  /    A nd           | Version:  7
     \\/     M anipulation  |
\*---------------------------------------------------------------------------*/
FoamFile
{
    version     2.0;
    format      ascii;
    class       volScalarField;
    location    "0.08";
    object      epsilon;
}
// * * * * * * * * * * * * * * * * * * * * * * * * * * * * * * * * * * * * * //

dimensions      [0 2 -3 0 0 0 0];

internalField   nonuniform List<scalar> 
12225
(
261.514
229.336
202.527
181.492
166.17
155.717
148.952
144.766
142.277
140.85
140.052
139.605
139.339
139.156
139.003
138.846
138.732
139.706
74.4069
97.5934
104.498
109.146
114.713
121.176
127.811
134.06
139.646
144.474
148.55
151.937
154.726
157.014
158.906
160.444
161.961
162.818
31.948
44.3672
51.5695
56.3174
60.1857
63.8663
67.5191
71.1051
74.5507
77.7934
80.79
83.5191
85.9794
88.1841
90.1587
91.927
93.563
95.0079
20.8066
26.6684
31.1037
34.3451
36.854
38.9928
40.947
42.7922
44.5564
46.2458
47.8564
49.3815
50.8163
52.1601
53.416
54.5902
55.6956
56.7239
17.081
19.8463
22.2883
24.2599
25.8443
27.1655
28.3138
29.3448
30.2938
31.1818
32.0204
32.8152
33.5695
34.2854
34.9654
35.6123
36.2289
36.8069
15.6189
16.846
18.1037
19.2232
20.1761
20.9858
21.6824
22.2918
22.8355
23.3292
23.784
24.2075
24.6047
24.9793
25.3344
25.6723
25.9945
26.2944
15.0058
15.449
16.011
16.5747
17.0919
17.5507
17.952
18.3028
18.6117
18.8866
19.1343
19.36
19.5678
19.7607
19.9413
20.1115
20.2724
20.4195
14.7446
14.7911
14.9489
15.1556
15.3737
15.5837
15.776
15.9478
16.0998
16.2341
16.3534
16.46
16.5561
16.6436
16.724
16.7986
16.8681
16.9294
14.6329
14.4846
14.4163
14.402
14.4203
14.4554
14.4967
14.538
14.5763
14.6103
14.6399
14.6653
14.6871
14.7058
14.7221
14.7365
14.7491
14.7581
14.5846
14.3445
14.1565
14.0131
13.9047
13.8218
13.7565
13.7028
13.6569
13.6163
13.5792
13.5448
13.5124
13.4818
13.4526
13.4249
13.3985
13.3722
14.5633
14.2814
14.034
13.8202
13.6367
13.4791
13.3425
13.2227
13.1162
13.0206
12.9338
12.8544
12.7811
12.7131
12.6499
12.5908
12.5355
12.4834
14.5541
14.2551
13.9821
13.7355
13.5144
13.3167
13.1395
12.9802
12.8363
12.7054
12.5859
12.4763
12.3751
12.2815
12.1946
12.1137
12.0382
11.968
14.549
14.2418
13.9562
13.6926
13.4506
13.2294
13.0273
12.8425
12.6734
12.5182
12.3755
12.2438
12.122
12.009
11.904
11.8063
11.7151
11.6309
14.5459
14.2344
13.9428
13.6707
13.4177
13.1831
12.966
12.7652
12.5795
12.4075
12.2481
12.1002
11.9627
11.8347
11.7154
11.6041
11.5002
11.4042
14.5439
14.2303
13.9363
13.6607
13.403
13.1624
12.9381
12.7291
12.5343
12.3529
12.1837
12.0259
11.8785
11.7407
11.6118
11.4911
11.3782
11.2739
14.5427
14.2281
13.9332
13.6567
13.3976
13.1551
12.9282
12.7161
12.5177
12.3322
12.1586
11.9961
11.8438
11.701
11.5671
11.4413
11.3234
11.2143
14.5421
14.2271
13.9323
13.6559
13.3968
13.1542
12.9271
12.7145
12.5154
12.3289
12.1541
11.9902
11.8364
11.692
11.5563
11.4286
11.3087
11.1977
14.5421
14.2273
13.933
13.6573
13.3991
13.1573
12.931
12.7191
12.5207
12.3349
12.1606
11.9972
11.8437
11.6995
11.5639
11.4363
11.3164
11.2053
14.5431
14.2294
13.9362
13.6619
13.4052
13.1651
12.9406
12.7305
12.534
12.3499
12.1775
12.0158
11.864
11.7214
11.5873
11.4612
11.3427
11.2329
14.5454
14.2341
13.9432
13.6713
13.4173
13.18
12.9585
12.7516
12.5584
12.3777
12.2086
12.0503
11.9019
11.7626
11.6318
11.5088
11.3934
11.2866
14.5492
14.2415
13.9543
13.6863
13.4365
13.2039
12.9876
12.7863
12.5989
12.4242
12.2613
12.1092
11.9669
11.8338
11.709
11.592
11.4823
11.3811
14.5554
14.2543
13.9743
13.7145
13.4742
13.2526
13.0483
12.86
12.6861
12.5251
12.376
12.2375
12.1086
11.9885
11.8763
11.7714
11.6733
11.583
14.5669
14.2805
14.0189
13.7815
13.5672
13.3745
13.2013
13.0446
12.902
12.7717
12.6519
12.5414
12.439
12.3438
12.2548
12.1712
12.0925
12.0196
14.593
14.349
14.1444
13.9729
13.8295
13.7098
13.6079
13.5187
13.4386
13.3654
13.2979
13.2342
13.173
13.1137
13.0559
12.9995
12.9446
12.8923
14.6718
14.5672
14.5338
14.5375
14.5593
14.5895
14.6195
14.6443
14.662
14.6707
14.6699
14.6608
14.6444
14.6221
14.5952
14.5647
14.5318
14.4984
14.9618
15.3047
15.7123
16.0885
16.4105
16.6789
16.8967
17.0628
17.1839
17.269
17.3258
17.361
17.3799
17.3872
17.3862
17.3799
17.3704
17.3602
16.0826
17.7388
19.0683
20.0268
20.738
21.2708
21.6464
21.9059
22.0851
22.2106
22.3016
22.3717
22.4306
22.4852
22.5399
22.5974
22.6595
22.7272
20.4114
25.6125
28.3431
29.7383
30.5905
31.1193
31.4472
31.6691
31.8494
32.0256
32.2181
32.4374
32.688
32.9702
33.2818
33.6198
33.9803
34.3576
38.6007
49.0437
52.2888
53.1716
53.4428
53.5477
53.6891
53.9832
54.4596
55.1039
55.8907
56.7941
57.7895
58.854
59.9677
61.1141
62.2824
63.4592
159.121
148.103
138.018
128.821
120.59
113.354
107.098
101.764
97.2649
93.4983
90.3652
87.7735
85.6411
83.8961
82.4762
81.3283
80.4075
79.6759
2.95193
1.77309
2.38675
2.82865
3.15845
3.41157
3.615
3.796
3.99475
4.24843
4.58117
5.02069
5.58543
6.26729
7.01942
7.75737
8.38838
8.83111
38.2366
38.6643
38.7332
8.93887
38.7603
8.92442
39.2067
39.3804
9.11886
9.1449
41.703
45.8981
50.1981
54.4949
58.7347
62.8813
66.9082
70.797
74.5357
78.1175
81.5399
84.8037
87.912
90.87
93.6834
96.3591
98.9038
101.324
103.627
105.819
107.905
109.89
111.78
113.579
115.29
116.918
118.465
119.934
121.328
122.65
123.9
125.082
126.197
127.247
128.234
129.159
130.023
130.83
131.58
132.275
132.918
133.511
134.055
134.555
135.011
135.428
135.808
136.153
136.468
136.756
137.02
137.264
137.491
137.706
137.911
138.113
138.315
138.522
138.743
138.983
139.256
139.573
139.955
140.377
140.812
141.258
141.714
142.176
142.64
143.101
143.553
143.988
144.397
144.771
145.098
145.366
145.559
145.661
145.655
145.52
145.235
144.775
144.115
143.228
142.087
140.661
138.924
136.848
134.41
131.589
128.371
124.75
120.731
116.329
111.577
106.536
101.316
96.1645
91.6617
88.6439
86.2378
83.7657
81.1947
78.5549
75.8819
73.2197
70.6002
68.0591
65.6304
63.2334
61.3059
59.4533
60.6803
60.5194
59.656
14.0417
60.2233
14.1498
14.1659
14.3278
14.2896
14.1386
13.9089
13.6226
13.2973
12.9471
12.5827
12.2119
11.8406
11.4729
11.1116
10.7595
10.4184
10.0889
9.77145
9.466
9.17251
8.89077
8.62049
8.36139
8.11323
7.8759
7.64936
7.43368
7.22897
7.03545
6.85346
6.68371
6.52742
6.3884
6.27138
6.22009
5.19348
3.93096
3.7249
3.63259
3.57659
3.55945
3.59633
3.71045
3.93749
4.29254
4.80139
5.49401
6.39331
7.51291
8.86324
10.3384
11.9235
13.8054
16.9014
18.5619
19.7339
19.9466
22.1358
22.6129
24.4712
25.4378
25.7369
28.1499
30.9664
32.4533
33.7775
35.0577
36.3062
37.5235
38.7094
39.8638
40.9863
42.0764
43.1334
44.1569
45.1466
46.1024
47.0244
47.9126
48.7675
49.5892
50.3782
51.135
51.8599
52.5535
53.216
53.8478
54.4494
55.021
55.5629
56.0754
56.5587
57.0131
57.4387
57.8358
58.2047
58.5455
58.8586
59.1442
59.4026
59.6343
59.8398
60.0194
60.1738
60.3037
60.4099
60.4931
60.5542
60.5944
60.6147
60.6163
60.6005
60.5687
60.5225
60.4634
60.3933
60.3141
60.2278
60.1369
60.0442
59.9527
59.8664
59.7898
59.7289
59.6905
59.6828
59.7082
59.7441
59.7893
59.8439
59.9077
59.98
60.06
60.1463
60.2372
60.3307
60.424
60.5141
60.5971
60.6689
60.7241
60.7571
60.7612
60.7287
60.6512
60.5194
60.3228
60.0504
59.6903
59.2301
58.6576
57.9605
57.1278
56.1499
55.0201
53.7353
52.2979
50.7176
49.0147
47.2255
45.4102
43.6536
42.0717
40.5475
38.9961
37.4216
35.8401
34.2686
32.7228
31.2154
29.7565
28.3544
27.026
25.8041
24.6693
23.6855
22.68
21.6921
19.2215
19.1922
16.9113
15.7837
13.6368
12.1784
11.2413
10.5866
10.079
9.65166
9.27221
8.92441
8.59976
8.29357
8.00307
7.7267
7.46446
7.21631
6.98043
6.7559
6.54206
6.33847
6.14483
5.96106
5.78729
5.62392
5.47154
5.33097
5.20327
5.08981
4.99253
4.9143
4.86013
4.83856
4.87202
4.99369
5.42737
8.6354
5.67906
5.00363
4.71432
4.57036
4.5292
4.59545
4.79676
5.14068
5.66111
6.40426
7.40828
8.65943
10.139
11.7918
13.527
15.2557
16.9177
18.473
19.7122
20.6899
21.4736
22.2713
22.9845
23.7922
24.642
25.5692
26.6743
27.7692
28.7591
29.7301
30.7025
31.6755
32.6433
33.6004
34.5421
35.4648
36.3656
37.2426
38.0946
38.9206
39.7203
40.4935
41.2404
41.9611
42.6558
43.3249
43.9688
44.5877
45.182
45.7519
46.2977
46.8195
47.3176
47.7921
48.2432
48.6708
49.075
49.4558
49.8133
50.1474
50.4581
50.7454
51.0093
51.2496
51.4666
51.6601
51.8303
51.9772
52.101
52.2021
52.2805
52.3368
52.3714
52.3849
52.378
52.3514
52.3062
52.2434
52.1644
52.0707
51.9639
51.846
51.7192
51.586
51.449
51.3112
51.1756
51.0453
50.9232
50.8116
50.7113
50.6167
50.5261
50.44
50.3594
50.285
50.2174
50.1572
50.1045
50.0595
50.0217
49.9903
49.9644
49.942
49.9211
49.8985
49.8706
49.8328
49.7793
49.7035
49.5976
49.4528
49.2588
49.0047
48.6786
48.2682
47.7611
47.1457
46.412
45.5522
44.5623
43.4433
42.2023
40.8538
39.4203
37.9409
36.4899
35.0154
33.5093
31.984
30.456
28.9414
27.4546
26.0077
24.6105
23.2726
22.0032
20.8078
19.6786
18.5988
17.5706
16.6026
15.5699
14.6758
13.7272
12.8588
11.8734
10.98
10.2334
9.61281
9.08618
8.62803
8.22061
7.85195
7.51395
7.20099
6.90917
6.63565
6.37838
6.13591
5.90727
5.69105
5.48621
5.29206
5.10807
4.93382
4.76906
4.61369
4.46781
4.33169
4.20577
4.09073
3.98756
3.89781
3.82426
3.77174
3.75231
3.78668
3.95632
12.6525
7.48881
6.39095
5.98123
5.82188
5.82419
5.98413
6.29994
6.7811
7.4595
8.3624
9.49904
10.8458
12.3466
13.9159
15.4535
16.868
18.0978
19.1172
19.9275
20.5825
21.1572
21.7296
22.3436
23.0357
23.8106
24.6608
25.5708
26.5059
27.4496
28.4042
29.3678
30.3354
31.3015
32.2606
33.2083
34.1409
35.0555
35.9501
36.823
37.6731
38.4996
39.3023
40.0807
40.835
41.5652
42.2714
42.9539
43.6129
44.2487
44.8614
45.4513
46.0186
46.5635
47.086
47.5864
48.0645
48.5204
48.9542
49.3657
49.7549
50.1216
50.4657
50.7871
51.0855
51.3608
51.6128
51.8414
52.0464
52.2277
52.3853
52.5191
52.6293
52.7158
52.7791
52.8193
52.8371
52.8328
52.8074
52.7616
52.6966
52.6134
52.5137
52.3988
52.2704
52.1305
51.9809
51.8234
51.6598
51.4919
51.3213
51.1494
50.9766
50.8011
50.6237
50.4457
50.2686
50.0941
49.9234
49.758
49.599
49.4472
49.3034
49.1678
49.0404
48.9202
48.8062
48.696
48.5867
48.4744
48.3537
48.2181
48.0599
47.8697
47.6369
47.3496
46.9949
46.5592
46.0292
45.392
44.6368
43.7553
42.7431
41.6003
40.332
38.9513
37.522
36.0518
34.5337
32.9776
31.4002
29.8195
28.2527
26.715
25.2195
23.7772
22.398
21.0891
19.8527
18.6864
17.5808
16.5349
15.5531
14.6179
13.7357
12.896
12.1022
11.3258
10.5969
9.93609
9.34504
8.81694
8.34276
7.91391
7.52314
7.16456
6.83348
6.52621
6.23979
5.97185
5.72046
5.48409
5.26152
5.05158
4.8533
4.6659
4.48875
4.32137
4.16342
4.0147
3.87516
3.74488
3.62414
3.51346
3.41379
3.32689
3.25596
3.20824
3.19611
3.25105
17.008
9.42753
7.94526
7.44529
7.29308
7.34963
7.57768
7.95078
8.49006
9.21346
10.127
11.2157
12.4381
13.7283
15.0064
16.1954
17.2394
18.1155
18.8355
19.4377
19.9771
20.5103
21.0828
21.7222
22.4396
23.2319
24.0883
24.9948
25.9371
26.9052
27.8926
28.8938
29.903
30.9148
31.9243
32.9272
33.9197
34.8986
35.8615
36.8063
37.7313
38.6353
39.5174
40.3771
41.2138
42.0274
42.8177
43.5849
44.3289
45.05
45.7482
46.4238
47.077
47.7078
48.3164
48.9029
49.4674
50.0099
50.5303
51.0287
51.5047
51.9584
52.3895
52.7978
53.183
53.5448
53.8829
54.197
54.4868
54.7519
54.9921
55.207
55.3966
55.5606
55.6989
55.8115
55.8984
55.9599
55.9962
56.0077
55.995
55.9585
55.8992
55.8178
55.7154
55.593
55.4517
55.2927
55.1173
54.9268
54.7227
54.5067
54.2812
54.0448
53.7983
53.5435
53.282
53.0158
52.7469
52.4772
52.2085
51.9425
51.6808
51.4246
51.1749
50.932
50.696
50.4659
50.2402
50.0162
49.7902
49.5568
49.3095
49.0401
48.7386
48.3937
47.9925
47.521
46.9649
46.3099
45.5429
44.6528
43.6319
42.476
41.1857
39.8035
38.3501
36.8287
35.2492
33.6279
31.9837
30.3358
28.7023
27.0992
25.5405
24.0379
22.6012
21.2369
19.9472
18.7314
17.5852
16.5059
15.4941
14.5454
13.655
12.8199
12.0365
11.2967
10.604
9.96367
9.37666
8.84029
8.35022
7.90155
7.48953
7.10983
6.75867
6.43281
6.12949
5.84633
5.58131
5.33276
5.09924
4.87957
4.67261
4.47746
4.29333
4.11959
3.95574
3.80138
3.65625
3.52019
3.39322
3.27555
3.16773
3.0709
2.98721
2.92117
2.88006
2.8779
21.45
11.5395
9.62591
9.01687
8.85259
8.92706
9.14672
9.5093
10.0206
10.6828
11.4869
12.4067
13.3988
14.4075
15.3758
16.2582
17.031
17.6968
18.2802
18.8189
19.3541
19.921
20.5441
21.2357
21.9979
22.8257
23.7106
24.6432
25.6145
26.6169
27.644
28.69
29.7494
30.8171
31.8883
32.9585
34.0239
35.081
36.1268
37.1586
38.1744
39.1723
40.1509
41.1091
42.0461
42.9612
43.8541
44.7244
45.5721
46.3971
47.1995
47.9792
48.7366
49.4715
50.1842
50.8748
51.5432
52.1895
52.8137
53.4157
53.9954
54.5525
55.0869
55.5982
56.0862
56.5504
56.9904
57.4058
57.796
58.1607
58.4993
58.8112
59.0962
59.3535
59.583
59.784
59.9565
60.1
60.2144
60.2996
60.3556
60.3824
60.3802
60.3491
60.2897
60.2022
60.0873
59.9456
59.778
59.5854
59.3692
59.1307
58.8726
58.5941
58.296
57.9801
57.6481
57.302
56.9441
56.5763
56.201
55.8202
55.4359
55.05
54.6642
54.2797
53.8975
53.518
53.1407
52.7644
52.3867
52.0041
51.6113
51.2017
50.7668
50.2965
49.7787
49.2001
48.5464
47.8029
46.9551
45.9911
44.9008
43.6765
42.3473
40.9255
39.4181
37.8358
36.1934
34.5094
32.8035
31.0954
29.4036
27.7444
26.1321
24.5784
23.0927
21.6811
20.3461
19.0876
17.9034
16.791
15.749
14.7749
13.8644
13.0141
12.2201
11.4771
10.7836
10.1396
9.54392
8.99436
8.48772
8.0204
7.58878
7.18941
6.8191
6.475
6.15456
5.8555
5.57586
5.3139
5.06812
4.83722
4.62006
4.4156
4.22298
4.04147
3.87043
3.70936
3.55783
3.41554
3.28233
3.15818
3.04336
2.93858
2.84521
2.76613
2.70559
2.67043
25.3539
13.5113
11.2201
10.5068
10.3079
10.3319
10.5092
10.8167
11.2459
11.7886
12.4299
13.1445
13.898
14.6525
15.3741
16.0411
16.648
17.2061
17.738
18.2713
18.8318
19.4396
20.1069
20.8388
21.6346
22.4899
23.3989
24.355
25.352
26.3841
27.4458
28.5319
29.6374
30.7574
31.8873
33.0226
34.1592
35.2934
36.4217
37.541
38.6487
39.7425
40.8204
41.8808
42.9225
43.9442
44.9454
45.9253
46.8836
47.82
48.7343
49.6265
50.4965
51.3443
52.1701
52.9737
53.7552
54.5147
55.252
55.9671
56.6597
57.3298
57.9769
58.6008
59.2011
59.7773
60.3288
60.8552
61.3557
61.8298
62.2767
62.6958
63.0863
63.4474
63.7785
64.0788
64.3476
64.5843
64.7883
64.9589
65.0956
65.1981
65.2658
65.2986
65.2962
65.2584
65.1854
65.0774
64.9346
64.7577
64.5476
64.3053
64.0322
63.7283
63.3945
63.0323
62.6435
62.2298
61.7932
61.3359
60.8599
60.3676
59.861
59.3424
58.8137
58.2769
57.7336
57.1849
56.6317
56.074
55.5111
54.9409
54.3599
53.7634
53.1449
52.4965
51.8077
51.0663
50.2597
49.374
48.3934
47.3087
46.1062
44.807
43.4088
41.9174
40.3417
38.6945
36.9919
35.2526
33.4963
31.7422
30.0085
28.3112
26.6639
25.0781
23.5621
22.1216
20.7589
19.4741
18.2658
17.1315
16.0693
15.0766
14.1495
13.2847
12.4779
11.7248
11.0223
10.3686
9.76161
9.19875
8.67714
8.1937
7.74532
7.32901
6.94198
6.58165
6.24565
5.93185
5.63835
5.36343
5.1056
4.86352
4.63601
4.422
4.22057
4.03091
3.85233
3.68423
3.5261
3.37754
3.23823
3.10803
2.98699
2.87547
2.77435
2.68541
2.61112
2.55499
28.528
15.1669
12.5602
11.7343
11.4564
11.4311
11.5581
11.7976
12.1312
12.5461
13.028
13.5582
14.1148
14.6761
15.2253
15.7541
16.2648
16.7682
17.2808
17.82
18.4009
19.0343
19.7264
20.4791
21.2914
22.16
23.0811
24.0501
25.0626
26.1141
27.2
28.3159
29.4573
30.6196
31.7983
32.9892
34.1879
35.3904
36.5931
37.7925
38.9855
40.1694
41.3416
42.5001
43.6431
44.7693
45.8772
46.9661
48.0351
49.0837
50.1114
51.118
52.1032
53.0669
54.0091
54.9296
55.8283
56.7052
57.5602
58.3931
59.2037
59.9917
60.7567
61.4984
62.2163
62.9098
63.5784
64.2212
64.8376
65.4268
65.9878
66.5198
67.0217
67.4927
67.9317
68.3376
68.7095
69.0463
69.347
69.6106
69.8362
70.0228
70.1696
70.2758
70.3408
70.3638
70.3446
70.2827
70.1781
70.0309
69.8413
69.6101
69.3367
69.0218
68.6664
68.2717
67.8391
67.3701
66.8664
66.3298
65.7621
65.1655
64.542
63.8937
63.2227
62.5311
61.8208
61.0937
60.3513
59.5949
58.8255
58.0424
57.2439
56.4268
55.5871
54.7204
53.8184
52.8698
51.8652
50.7947
49.6361
48.4022
47.0802
45.6697
44.1716
42.591
40.9369
39.2222
37.4629
35.677
33.8832
32.0997
30.3436
28.6296
26.9703
25.3756
23.8529
22.4068
21.0391
19.7496
18.5369
17.3985
16.332
15.3345
14.4025
13.5323
12.72
11.9614
11.2532
10.5928
9.97783
9.40549
8.87309
8.37778
7.9168
7.48745
7.08722
6.71375
6.36486
6.03855
5.73304
5.44666
5.17797
4.92566
4.68853
4.4655
4.25564
4.05812
3.8722
3.69725
3.5327
3.37806
3.23296
3.09712
2.97045
2.85309
2.74551
2.64879
2.56432
2.49391
30.7932
16.3733
13.4907
12.5513
12.2253
12.1674
12.2557
12.4392
12.6937
13.0051
13.3624
13.7544
14.17
14.5992
15.0356
15.478
15.9305
16.4014
16.9012
17.4402
18.027
18.6675
19.365
20.1202
20.9325
21.7997
22.7194
23.6885
24.7037
25.7617
26.8589
27.9914
29.1553
30.3464
31.5605
32.7934
34.0408
35.2987
36.5633
37.8307
39.0975
40.3607
41.6174
42.8651
44.1015
45.3248
46.5333
47.7258
48.901
50.0582
51.1964
52.3153
53.4143
54.4931
55.5514
56.5889
57.6055
58.6009
59.5748
60.5271
61.4573
62.3652
63.2502
64.112
64.9498
65.7631
66.551
67.3129
68.0476
68.7544
69.4321
70.0796
70.6958
71.2794
71.8291
72.3437
72.8218
73.2621
73.6632
74.0237
74.3424
74.6179
74.849
75.0344
75.1731
75.2639
75.3061
75.2988
75.2414
75.1334
74.9747
74.7654
74.5028
74.1883
73.8228
73.4071
72.9424
72.4295
71.8699
71.2648
70.6158
69.9246
69.1927
68.4222
67.6148
66.7727
65.8976
64.9916
64.0567
63.0949
62.1091
61.1
60.0671
59.0089
57.9225
56.8093
55.6643
54.4753
53.2352
51.9508
50.6053
49.1954
47.7156
46.1642
44.5428
42.8567
41.1149
39.3299
37.5169
35.6926
33.8741
32.0779
30.3191
28.6107
26.963
25.3843
23.8802
22.4536
21.1056
19.8352
18.6404
17.5186
16.4669
15.4821
14.5606
13.6987
12.8927
12.1387
11.4334
10.774
10.158
9.58279
9.04579
8.54443
8.07622
7.63874
7.22974
6.84706
6.48875
6.15297
5.83803
5.54243
5.26477
5.0038
4.75836
4.5274
4.31002
4.10539
3.91276
3.73148
3.56096
3.40068
3.25021
3.10922
2.97748
2.85498
2.74191
2.63887
2.54657
2.46593
31.9985
16.9818
13.9447
12.9578
12.6152
12.5463
12.6168
12.7687
12.9747
13.2206
13.4984
13.8028
14.1298
14.4768
14.8435
15.2317
15.6458
16.0917
16.576
17.1048
17.6833
18.3147
19.0012
19.7434
20.541
21.3929
22.2978
23.2536
24.2582
25.309
26.4033
27.5378
28.7092
29.9138
31.1477
32.407
33.6876
34.9854
36.2965
37.6172
38.9437
40.2726
41.6009
42.9256
44.2442
45.5544
46.8542
48.1418
49.4157
50.6748
51.9178
53.144
54.3526
55.5429
56.7145
57.8667
58.9993
60.1118
61.2037
62.2747
63.3243
64.3519
65.357
66.3389
67.2969
68.2302
69.1379
70.0191
70.8725
71.6972
72.4919
73.2553
73.9859
74.6824
75.3432
75.9668
76.5516
77.0958
77.598
78.0564
78.4694
78.8352
79.1524
79.4193
79.6344
79.7963
79.9037
79.9553
79.9501
79.887
79.7653
79.5843
79.3399
79.0338
78.6666
78.239
77.7513
77.2042
76.5985
75.935
75.2149
74.4391
73.609
72.726
71.7915
70.8073
69.7749
68.6962
67.5728
66.4067
65.2039
63.9659
62.6933
61.3854
60.0376
58.6599
57.2545
55.8132
54.3332
52.8131
51.2474
49.633
47.9679
46.252
44.4883
42.683
40.8452
38.9871
37.1227
35.2671
33.4355
31.6421
29.8991
28.217
26.6037
25.0648
23.6035
22.2212
20.9171
19.6894
18.5353
17.4515
16.4345
15.4808
14.5868
13.7488
12.9631
12.2261
11.5348
10.8864
10.2785
9.70868
9.17468
8.67421
8.20507
7.76517
7.35252
6.96525
6.60159
6.25992
5.93873
5.63664
5.35242
5.08484
4.83285
4.59549
4.37188
4.16124
3.96284
3.77604
3.60026
3.43497
3.27972
3.13413
2.99791
2.87091
2.75315
2.64489
2.5464
2.45814
32.1157
17.0622
14.0003
13.0107
12.6751
12.6143
12.688
12.8345
13.0243
13.243
13.4842
13.7455
14.027
14.3302
14.6575
15.0125
15.3995
15.8231
16.2878
16.7979
17.3565
17.9663
18.6289
19.3452
20.1156
20.9398
21.8173
22.7471
23.7277
24.7576
25.8345
26.9561
28.1196
29.3218
30.5593
31.8285
33.1256
34.4467
35.788
37.1457
38.5161
39.8956
41.2809
42.6689
44.0566
45.4415
46.8212
48.1936
49.5568
50.9092
52.2493
53.576
54.8881
56.1847
57.4649
58.7279
59.973
61.1997
62.4071
63.5947
64.7618
65.9075
67.0312
68.132
69.209
70.2612
71.2876
72.2868
73.2578
74.1992
75.1095
75.9873
76.8309
77.6387
78.409
79.1399
79.8297
80.4764
81.078
81.6328
82.1387
82.5938
82.9961
83.3438
83.6351
83.8681
84.0412
84.1527
84.2012
84.1851
84.1031
83.953
83.7307
83.4377
83.0744
82.6408
82.137
81.5628
80.9187
80.2052
79.4227
78.5718
77.6532
76.6677
75.6163
74.5003
73.3209
72.0795
70.7769
69.4117
67.9974
66.5348
65.0249
63.4696
61.8707
60.2341
58.5626
56.8562
55.116
53.3427
51.5365
49.6978
47.8282
45.9309
44.0109
42.0761
40.1362
38.2031
36.2899
34.4098
32.5756
30.7984
29.0877
27.4505
25.8915
24.4135
23.0169
21.7007
20.4626
19.2991
18.2065
17.1805
16.2171
15.3125
14.4626
13.6639
12.9127
12.2058
11.5404
10.9138
10.3239
9.76855
9.24582
8.75376
8.29055
7.85442
7.44372
7.05685
6.69233
6.34877
6.02486
5.71943
5.43137
5.15959
4.90316
4.66123
4.433
4.21774
4.01479
3.82352
3.64339
3.47389
3.31457
3.16503
3.02496
2.89411
2.77238
2.65979
2.55637
2.46225
31.497
16.7615
13.7526
12.7886
12.4755
12.4366
12.5303
12.6929
12.8931
13.116
13.3549
13.6084
13.8778
14.1659
14.4767
14.8142
15.1828
15.5868
16.03
16.5158
17.0472
17.6265
18.2557
18.9363
19.6692
20.4552
21.2945
22.1867
23.1311
24.127
25.173
26.2673
27.4079
28.5922
29.8173
31.0801
32.3772
33.705
35.0599
36.4383
37.8365
39.2509
40.678
42.1147
43.5577
45.0043
46.4517
47.8975
49.3394
50.7756
52.2041
53.6233
55.0318
56.4282
57.8114
59.1801
60.5334
61.8702
63.1896
64.4906
65.7723
67.0335
68.2734
69.4908
70.6845
71.8534
72.996
74.1112
75.1973
76.2528
77.2762
78.2656
79.2193
80.1355
81.012
81.8471
82.6385
83.3842
84.082
84.7297
85.3251
85.8661
86.3505
86.7761
87.1407
87.4423
87.679
87.8486
87.9494
87.9796
87.9376
87.8172
87.6179
87.3399
86.9831
86.547
86.0311
85.4343
84.7571
83.9996
83.1616
82.2431
81.2442
80.165
79.0061
77.7682
76.452
75.0588
73.5899
72.0471
70.4363
68.7604
67.0228
65.2271
63.378
61.4813
59.5425
57.5664
55.5582
53.523
51.4658
49.3919
47.3073
45.219
43.1353
41.0659
39.022
37.0151
35.0574
33.1602
31.3333
29.5847
27.9204
26.3436
24.8557
23.4558
22.1418
20.9099
19.7557
18.6742
17.6604
16.709
15.8155
14.9753
14.1843
13.4388
12.7352
12.0706
11.4423
10.848
10.2858
9.75395
9.25074
8.77468
8.32433
7.8983
7.49527
7.114
6.7533
6.41205
6.08919
5.78376
5.4948
5.22145
4.96294
4.71852
4.48749
4.26922
4.06311
3.86861
3.68522
3.51246
3.34991
3.19718
3.05394
2.91991
2.79489
2.67877
2.57139
2.47274
30.3028
16.1754
13.284
12.3681
12.0888
12.081
12.2056
12.3986
12.628
12.8773
13.1388
13.4101
13.6921
13.9874
14.2999
14.6337
14.9933
15.3828
15.8063
16.2669
16.768
17.3124
17.9027
18.541
19.2293
19.9693
20.7623
21.608
22.5061
23.4567
24.4596
25.5139
26.618
27.7702
28.9683
30.2096
31.4912
32.8102
34.1631
35.5465
36.957
38.3911
39.8454
41.3165
42.8013
44.2965
45.7993
47.307
48.817
50.3269
51.8345
53.3379
54.8351
56.3244
57.8042
59.2729
60.729
62.1713
63.5983
65.0087
66.4012
67.7744
69.127
70.4576
71.7648
73.047
74.3026
75.5301
76.7277
77.8937
79.0262
80.1232
81.1827
82.2027
83.181
84.1153
85.0035
85.8431
86.6318
87.3673
88.0471
88.6688
89.23
89.7283
90.1614
90.527
90.8227
91.0463
91.1957
91.2686
91.2617
91.1693
90.9916
90.7279
90.3775
89.9397
89.4133
88.7975
88.0915
87.295
86.4072
85.4275
84.3556
83.191
81.9338
80.5839
79.1417
77.6079
75.9838
74.2713
72.474
70.5954
68.6395
66.6116
64.5179
62.3657
60.1633
57.9195
55.6436
53.3457
51.0359
48.7248
46.4235
44.1434
41.8964
39.6948
37.5509
35.4766
33.4825
31.5776
29.7689
28.0609
26.4554
24.952
23.5482
22.2398
21.0215
19.8871
18.8299
17.8435
16.9212
16.057
15.2455
14.4816
13.761
13.0798
12.4346
11.8225
11.2411
10.6883
10.1624
9.66207
9.18599
8.73301
8.30206
7.89217
7.50238
7.13178
6.77952
6.44475
6.12671
5.82465
5.53787
5.26573
5.00761
4.76291
4.53106
4.31153
4.10382
3.90746
3.72202
3.54706
3.38222
3.22714
3.08149
2.94498
2.81736
2.69844
2.58795
2.48577
28.6692
15.3831
12.6646
11.8165
11.5796
11.6084
11.7697
12.0014
12.2707
12.5602
12.8604
13.1673
13.4803
13.8005
14.1308
14.4746
14.8363
15.2205
15.632
16.0722
16.5455
17.0557
17.6063
18.2004
18.8407
19.5295
20.2689
21.0601
21.904
22.8012
23.7523
24.7568
25.8142
26.9234
28.0829
29.2906
30.5443
31.8415
33.1792
34.5544
35.9639
37.4045
38.8728
40.3656
41.8795
43.4114
44.9581
46.5167
48.0843
49.6582
51.2359
52.8148
54.3928
55.9675
57.537
59.0992
60.6523
62.1944
63.7237
65.2384
66.7369
68.2173
69.678
71.1172
72.5331
73.9239
75.2877
76.6226
77.9266
79.1976
80.4337
81.6325
82.7919
83.9096
84.9832
86.0103
86.9884
87.9151
88.7879
89.604
90.3611
91.0564
91.6874
92.2516
92.7463
93.1691
93.5174
93.7889
93.9811
94.0914
94.1131
94.0447
93.8849
93.6326
93.2866
92.8454
92.3079
91.6725
90.9382
90.1038
89.1682
88.1302
86.9889
85.7434
84.3929
82.9368
81.375
79.7076
77.9353
76.0598
74.0835
72.0101
69.8441
67.5916
65.2603
62.8595
60.4003
57.8951
55.3577
52.803
50.2468
47.7052
45.1946
42.7312
40.3308
38.0081
35.7766
33.6477
31.6306
29.7317
27.9544
26.2993
24.7645
23.3453
22.0357
20.8281
19.7142
18.6855
17.7334
16.8496
16.0265
15.257
14.535
13.8551
13.2125
12.6032
12.0238
11.4716
10.9443
10.44
9.95741
9.49527
9.05267
8.62882
8.22302
7.83465
7.46312
7.10786
6.76834
6.444
6.13435
5.83898
5.55743
5.28926
5.03403
4.79131
4.56067
4.34171
4.13403
3.93726
3.75105
3.57506
3.40895
3.25241
3.10516
2.9669
2.83739
2.71636
2.60351
2.49867
26.715
14.4486
11.9498
11.1875
11.0005
11.0695
11.2705
11.5444
11.8595
12.1971
12.5464
12.9014
13.2595
13.6209
13.9845
14.353
14.7301
15.1198
15.5265
15.9539
16.4063
16.8882
17.4037
17.9568
18.5511
19.19
19.8761
20.612
21.3995
22.2402
23.1353
24.0852
25.0902
26.15
27.2637
28.43
29.6475
30.9139
32.2271
33.5845
34.9832
36.4202
37.8924
39.3967
40.9298
42.4884
44.0693
45.6694
47.2855
48.9145
50.5537
52.2
53.8508
55.5035
57.1554
58.8041
60.4472
62.0824
63.7074
65.3199
66.9179
68.499
70.0613
71.6024
73.1202
74.6126
76.0774
77.5123
78.9151
80.2834
81.6149
82.9073
84.1579
85.3645
86.5244
87.6351
88.6939
89.6982
90.6453
91.5325
92.357
93.1162
93.8074
94.4278
94.9747
95.4455
95.8374
96.148
96.3747
96.5113
96.5548
96.5033
96.3548
96.1078
95.7604
95.3109
94.7576
94.0987
93.3326
92.4576
91.472
90.3742
89.1626
87.8358
86.3923
84.8311
83.1511
81.352
79.434
77.3982
75.2466
72.9827
70.6116
68.1403
65.5778
62.9357
60.2278
57.4704
54.6818
51.8823
49.0931
46.3362
43.6333
41.0053
38.4714
36.0486
33.7507
31.5882
29.5681
27.6935
25.964
24.3762
22.9238
21.5986
20.3909
19.2902
18.2856
17.3664
16.5224
15.744
15.0226
14.3503
13.7206
13.1275
12.5661
12.0323
11.5226
11.0345
10.5656
10.1144
9.67967
9.2604
8.85597
8.46589
8.08976
7.72729
7.37822
7.04229
6.71923
6.40876
6.11082
5.82524
5.55178
5.29022
5.0403
4.80176
4.57434
4.35776
4.15175
3.95605
3.77041
3.59455
3.42822
3.27118
3.12317
2.98394
2.85324
2.7308
2.61628
2.50952
24.4529
13.3851
11.1569
10.5014
10.3745
10.4894
10.7342
11.0551
11.4225
11.817
12.2255
12.6402
13.0561
13.4707
13.8825
14.2922
14.7018
15.1145
15.5338
15.9642
16.4102
16.8767
17.3686
17.8907
18.4476
19.0435
19.6823
20.3674
21.1018
21.8879
22.728
23.6233
24.575
25.5835
26.6489
27.7707
28.9479
30.1793
31.4631
32.7972
34.1792
35.6066
37.0765
38.5859
40.1316
41.7103
43.3188
44.9537
46.6117
48.2894
49.9835
51.6909
53.4082
55.1324
56.8604
58.5892
60.3159
62.0377
63.7517
65.4552
67.1455
68.8201
70.4762
72.1113
73.7228
75.3083
76.865
78.3906
79.8824
81.338
82.7545
84.1296
85.4605
86.7446
87.9792
89.1615
90.2888
91.3584
92.3674
93.313
94.1925
95.0029
95.7416
96.4055
96.9921
97.4984
97.9217
98.2593
98.5053
98.6565
98.7102
98.664
98.5155
98.2627
97.9032
97.4349
96.8557
96.1634
95.3559
94.4311
93.3866
92.2205
90.9305
89.5145
87.9706
86.297
84.4923
82.5553
80.486
78.2849
75.954
73.497
70.9194
68.2294
65.4377
62.5583
59.6084
56.6083
53.5812
50.5527
47.55
44.6006
41.7314
38.9673
36.3303
33.8382
31.5045
29.3377
27.3414
25.5149
23.8536
22.3497
20.9929
19.7714
18.6724
17.6828
16.7897
15.9809
15.2447
14.5708
13.9499
13.3737
12.8351
12.3282
11.8478
11.3898
10.9507
10.5279
10.1193
9.72339
9.33904
8.96553
8.60237
8.24931
7.90621
7.57304
7.24978
6.93644
6.63289
6.33939
6.05613
5.78314
5.5204
5.26789
5.02555
4.79328
4.57098
4.35853
4.15579
3.96261
3.77884
3.6043
3.43883
3.28224
3.13433
2.9949
2.86371
2.74053
2.62502
2.517
22.3161
12.3918
10.4168
9.86651
9.80217
9.96657
10.2593
10.6313
11.0543
11.5098
11.9845
12.4688
12.9555
13.4396
13.9182
14.3896
14.8544
15.314
15.7714
16.2304
16.6955
17.1718
17.6644
18.1789
18.7206
19.2945
19.9054
20.5579
21.2557
22.0025
22.8011
23.6541
24.5632
25.5299
26.555
27.6388
28.7811
29.9813
31.2382
32.5503
33.9158
35.3323
36.7974
38.3082
39.8617
41.4548
43.0839
44.7458
46.4368
48.1533
49.8918
51.6485
53.4199
55.2024
56.9924
58.7866
60.5814
62.3734
64.1595
65.9364
67.701
69.4501
71.1808
72.89
74.5749
76.2326
77.8602
79.4549
81.014
82.5346
84.0139
85.4493
86.8379
88.1769
89.4635
90.695
91.8684
92.981
94.0299
95.0121
95.925
96.7655
97.5307
98.2179
98.8242
99.3467
99.782
100.125
100.372
100.52
100.567
100.51
100.345
100.071
99.6847
99.1833
98.5646
97.8259
96.9645
95.9777
94.863
93.6176
92.2388
90.7238
89.0701
87.2754
85.3376
83.2553
81.0278
78.6557
76.141
73.4878
70.7025
67.7946
64.7773
61.6672
58.4855
55.2569
52.0101
48.7762
45.5882
42.4791
39.4803
36.6198
33.921
31.4015
29.0724
26.939
25.0007
23.2521
21.6838
20.2836
19.0376
17.9305
16.9471
16.0722
15.2915
14.5917
13.9607
13.3875
12.8626
12.3777
11.9257
11.5004
11.0969
10.7111
10.3397
9.97997
9.63
9.28834
8.95401
8.62637
8.30511
7.9901
7.68141
7.37917
7.08357
6.79472
6.51283
6.23856
5.97219
5.71394
5.46401
5.22255
4.98969
4.7655
4.55003
4.3433
4.1453
3.95601
3.77536
3.6033
3.43973
3.28454
3.13761
2.99877
2.86783
2.74459
2.62873
2.52011
20.4711
11.5172
9.77101
9.32633
9.33286
9.55839
9.91218
10.3494
10.8435
11.3763
11.934
12.5058
13.0828
13.658
14.2265
14.7848
15.3314
15.8665
16.3917
16.9099
17.4252
17.9424
18.4669
19.0044
19.5608
20.1418
20.753
21.3996
22.0866
22.8182
23.5982
24.4301
25.3165
26.2596
27.2609
28.3216
29.442
30.6221
31.8613
33.1587
34.5128
35.9215
37.3828
38.8939
40.4519
42.0538
43.6961
45.3753
47.0877
48.8294
50.5966
52.3853
54.1917
56.0117
57.8415
59.6772
61.5149
63.3509
65.1817
67.0035
68.8129
70.6065
72.3809
74.133
75.8595
77.5573
79.2235
80.8549
82.4487
84.002
85.5119
86.9755
88.39
89.7525
91.0602
92.3103
93.4999
94.6261
95.686
96.6769
97.5957
98.4396
99.2056
99.8908
100.493
101.006
101.428
101.754
101.981
102.107
102.127
102.039
101.841
101.528
101.098
100.547
99.8743
99.0749
98.1462
97.0851
95.8884
94.5527
93.0749
91.4516
89.6798
87.7566
85.6795
83.4469
81.0579
78.5132
75.8152
72.9687
69.9817
66.8655
63.636
60.3133