/*--------------------------------*- C++ -*----------------------------------*\
  =========                 |
  \\      /  F ield         | OpenFOAM: The Open Source CFD Toolbox
   \\    /   O peration     | Website:  https://openfoam.org
    \\  /    A nd           | Version:  7
     \\/     M anipulation  |
\*---------------------------------------------------------------------------*/
FoamFile
{
    version     2.0;
    format      ascii;
    class       volScalarField;
    location    "0.08";
    object      k;
}
// * * * * * * * * * * * * * * * * * * * * * * * * * * * * * * * * * * * * * //

dimensions      [0 2 -2 0 0 0 0];

internalField   nonuniform List<scalar> 
12225
(
0.332317
0.291426
0.25736
0.230629
0.211159
0.197876
0.189279
0.183958
0.180795
0.178981
0.177966
0.177397
0.177059
0.176824
0.176629
0.176428
0.176281
0.177516
0.412403
0.40535
0.384466
0.372463
0.369917
0.372851
0.377958
0.383381
0.388285
0.392369
0.395588
0.398028
0.399821
0.401102
0.402016
0.402579
0.40333
0.402898
0.385493
0.382623
0.372387
0.362685
0.356113
0.352648
0.351481
0.351795
0.35297
0.354571
0.356312
0.358023
0.359614
0.361052
0.362342
0.363474
0.364594
0.365395
0.377227
0.37458
0.36832
0.360841
0.353924
0.348253
0.343884
0.340652
0.338339
0.336734
0.33565
0.33494
0.334494
0.334234
0.334111
0.334085
0.334159
0.334252
0.374686
0.371978
0.367018
0.360951
0.354821
0.349128
0.344051
0.339626
0.335828
0.332593
0.329843
0.327501
0.325499
0.323782
0.322305
0.321031
0.319934
0.318985
0.373368
0.370417
0.366195
0.361166
0.355919
0.350779
0.345905
0.341379
0.337238
0.333482
0.330092
0.327035
0.324278
0.321792
0.319546
0.317514
0.315675
0.314023
0.372514
0.369316
0.365497
0.361161
0.356616
0.352068
0.347628
0.343375
0.339358
0.335599
0.332101
0.328857
0.325854
0.323078
0.320512
0.318139
0.315946
0.313944
0.37196
0.36852
0.364856
0.36093
0.35688
0.352818
0.348811
0.344915
0.341172
0.337608
0.334234
0.331052
0.32806
0.325253
0.322621
0.320155
0.31785
0.315726
0.3716
0.367942
0.364282
0.360562
0.356822
0.353109
0.349454
0.345886
0.342433
0.339116
0.335945
0.332925
0.330058
0.327342
0.324773
0.322346
0.320059
0.317939
0.371366
0.367529
0.363806
0.360155
0.356579
0.353085
0.349677
0.346364
0.343159
0.340073
0.33711
0.334276
0.331571
0.328993
0.326542
0.324213
0.322007
0.319955
0.371214
0.367246
0.363443
0.359788
0.356272
0.35289
0.34963
0.346489
0.343466
0.340561
0.337775
0.335108
0.332558
0.330124
0.327802
0.325589
0.323489
0.321529
0.371125
0.367074
0.363208
0.359522
0.356009
0.352662
0.349467
0.346413
0.343493
0.340701
0.338033
0.335484
0.33305
0.330727
0.328511
0.326399
0.324392
0.322518
0.371063
0.366955
0.363041
0.359321
0.355792
0.352448
0.349276
0.346264
0.343402
0.34068
0.33809
0.335624
0.333276
0.33104
0.328909
0.32688
0.324954
0.323156
0.371017
0.366866
0.362918
0.359168
0.355616
0.352258
0.349084
0.346084
0.343246
0.34056
0.338016
0.335603
0.333314
0.33114
0.329076
0.327114
0.325255
0.323521
0.370984
0.366806
0.362835
0.359066
0.355496
0.352122
0.348936
0.34593
0.343093
0.340416
0.337887
0.335497
0.333236
0.331097
0.329069
0.327149
0.325332
0.323643
0.370963
0.366768
0.362788
0.359011
0.355433
0.352051
0.348857
0.345843
0.343001
0.340321
0.337792
0.335406
0.333153
0.331023
0.32901
0.327106
0.325308
0.323639
0.370952
0.36675
0.362769
0.358995
0.355421
0.352041
0.348849
0.345837
0.342996
0.340317
0.337789
0.335405
0.333154
0.331028
0.329019
0.32712
0.32533
0.323668
0.370953
0.366754
0.362781
0.359019
0.355458
0.352093
0.348915
0.345917
0.34309
0.340424
0.33791
0.335537
0.333298
0.331183
0.329185
0.327297
0.325516
0.323865
0.370971
0.366792
0.36284
0.359102
0.355569
0.352233
0.349087
0.346122
0.343329
0.340696
0.338215
0.335875
0.333668
0.331584
0.329616
0.327756
0.326003
0.324377
0.371012
0.366876
0.362969
0.359276
0.355791
0.352508
0.349419
0.346512
0.343779
0.341207
0.338787
0.336507
0.334358
0.33233
0.330416
0.328609
0.326904
0.325324
0.371079
0.367011
0.363172
0.359549
0.356139
0.352936
0.349931
0.347112
0.344465
0.341977
0.339637
0.337433
0.335354
0.333391
0.331535
0.329779
0.32812
0.326577
0.371189
0.367238
0.363517
0.360018
0.356736
0.353665
0.350791
0.348096
0.345561
0.343171
0.340913
0.338775
0.336747
0.334819
0.332984
0.331236
0.329573
0.328017
0.371379
0.367642
0.364141
0.360854
0.357769
0.354876
0.352152
0.349569
0.347105
0.344747
0.342486
0.340313
0.338224
0.336212
0.334274
0.332409
0.330618
0.328926
0.371729
0.368398
0.365286
0.362307
0.359433
0.356664
0.353975
0.35134
0.34875
0.346209
0.34372
0.341289
0.338918
0.336613
0.334377
0.332214
0.33013
0.328156
0.372419
0.369831
0.3673
0.364604
0.361745
0.358792
0.355768
0.352688
0.349583
0.34649
0.343439
0.340452
0.337545
0.33473
0.332015
0.329405
0.326909
0.324558
0.373942
0.372666
0.370673
0.3678
0.364303
0.360454
0.3564
0.35225
0.348106
0.344043
0.340108
0.33633
0.332726
0.329306
0.326071
0.323021
0.320154
0.317496
0.377772
0.378989
0.37652
0.371693
0.365906
0.359823
0.353732
0.347816
0.342198
0.336944
0.33208
0.327607
0.323515
0.319783
0.316387
0.313302
0.310503
0.307988
0.387601
0.39404
0.386634
0.374857
0.363318
0.352998
0.343966
0.336157
0.32948
0.32382
0.319057
0.315077
0.311771
0.309044
0.306809
0.304992
0.30353
0.30237
0.402382
0.394873
0.375474
0.356351
0.340881
0.329324
0.321116
0.31557
0.312042
0.310016
0.30911
0.309038
0.309584
0.310581
0.3119
0.313445
0.315148
0.316934
0.351309
0.326983
0.304718
0.284412
0.26624
0.250263
0.236451
0.224676
0.214742
0.206426
0.199509
0.193787
0.189079
0.185227
0.182093
0.179559
0.177527
0.175912
0.0100626
0.0277728
0.037413
0.0443408
0.0494995
0.0534491
0.0566174
0.0594389
0.0625583
0.0665438
0.0717773
0.0786932
0.0875732
0.0982751
0.110048
0.121547
0.131217
0.136796
0.13295
0.133744
0.135376
0.140072
0.137009
0.139563
0.139223
0.141418
0.146139
0.146261
0.149194
0.158747
0.168404
0.177782
0.18679
0.195385
0.203548
0.211269
0.218554
0.225414
0.231866
0.23793
0.243628
0.248983
0.254017
0.258754
0.263214
0.267416
0.271379
0.275118
0.278649
0.281984
0.285136
0.288114
0.290929
0.293589
0.296101
0.298471
0.300707
0.302812
0.304792
0.306651
0.308393
0.310021
0.31154
0.312952
0.314261
0.315469
0.316581
0.317598
0.318526
0.319367
0.320125
0.320805
0.321409
0.321943
0.322412
0.322819
0.323171
0.323472
0.323728
0.323944
0.324126
0.32428
0.324412
0.324528
0.324637
0.324746
0.324864
0.325003
0.325179
0.325409
0.325719
0.326128
0.326551
0.326987
0.327436
0.327892
0.32835
0.328804
0.329244
0.329659
0.330039
0.330369
0.330632
0.330812
0.330888
0.330837
0.330633
0.330248
0.329652
0.32881
0.327685
0.326236
0.324422
0.322197
0.319516
0.316333
0.312603
0.308283
0.303337
0.297736
0.29146
0.284505
0.276887
0.268655
0.25992
0.250953
0.242453
0.235961
0.231446
0.226973
0.222277
0.217384
0.212349
0.207248
0.202142
0.197099
0.192203
0.187317
0.183007
0.178868
0.178289
0.177254
0.175408
0.177203
0.176969
0.176809
0.175973
0.177857
0.177525
0.175547
0.172439
0.16855
0.164137
0.159392
0.154462
0.149454
0.144448
0.1395
0.134647
0.129925
0.125361
0.120962
0.116731
0.112669
0.108774
0.105042
0.101469
0.0980495
0.0947799
0.0916566
0.0886774
0.0858411
0.0831473
0.0805968
0.0781919
0.0759387
0.0738493
0.0719644
0.0703345
0.0694423
0.0177482
0.0422401
0.0566819
0.0661725
0.0728476
0.077938
0.0823142
0.0867224
0.0918822
0.0980109
0.105627
0.115165
0.126807
0.140396
0.155448
0.170217
0.183574
0.19477
0.203522
0.211373
0.218454
0.225219
0.230581
0.237433
0.243149
0.251189
0.261985
0.275018
0.288032
0.301404
0.31496
0.328742
0.342577
0.356298
0.369771
0.38289
0.395574
0.407767
0.419432
0.430551
0.441119
0.451143
0.460638
0.46962
0.478113
0.486138
0.49372
0.50088
0.507639
0.514018
0.520033
0.525703
0.531041
0.53606
0.540773
0.545191
0.549321
0.553174
0.556756
0.560073
0.563133
0.565939
0.568497
0.570811
0.572887
0.574728
0.576338
0.577723
0.578888
0.579838
0.580578
0.581116
0.581459
0.581616
0.581595
0.581406
0.581062
0.580573
0.579954
0.579219
0.578383
0.577463
0.576476
0.575441
0.574377
0.573304
0.572242
0.571212
0.570237
0.569339
0.568541
0.567891
0.567392
0.567036
0.566833
0.566792
0.566924
0.567233
0.567723
0.568396
0.569246
0.570268
0.571449
0.572773
0.574218
0.575755
0.57735
0.578959
0.580531
0.582006
0.583314
0.584375
0.585097
0.585381
0.585117
0.584187
0.582468
0.579837
0.576171
0.571356
0.565293
0.557907
0.549152
0.539027
0.52758
0.51493
0.501253
0.487284
0.473057
0.458282
0.443053
0.427523
0.411851
0.396184
0.380651
0.365356
0.350379
0.335827
0.321713
0.308243
0.294686
0.282426
0.271243
0.261527
0.251276
0.244286
0.237516
0.231354
0.22616
0.220901
0.215403
0.209712
0.203907
0.198069
0.192266
0.186555
0.180973
0.175548
0.1703
0.16524
0.160376
0.155724
0.15128
0.147035
0.142983
0.139114
0.135423
0.131903
0.128553
0.125372
0.122362
0.119525
0.11687
0.114406
0.112153
0.11015
0.108462
0.107312
0.10687
0.109831
0.0295581
0.0603241
0.0781916
0.0898712
0.0982539
0.10492
0.110973
0.11736
0.124342
0.132573
0.142701
0.155125
0.169608
0.185735
0.202664
0.219271
0.234588
0.24804
0.259523
0.269407
0.278179
0.28651
0.295032
0.304622
0.315669
0.328663
0.343671
0.36029
0.377868
0.395973
0.414323
0.432727
0.450986
0.468923
0.4864
0.503316
0.519605
0.535228
0.550169
0.564427
0.578012
0.590945
0.60325
0.614952
0.626081
0.636663
0.646725
0.65629
0.665384
0.674025
0.682234
0.690029
0.697423
0.704432
0.711067
0.717339
0.723257
0.728829
0.734063
0.738963
0.743535
0.747783
0.75171
0.755319
0.758612
0.761592
0.764261
0.766619
0.76867
0.770416
0.77186
0.773004
0.773853
0.774411
0.774685
0.774681
0.774408
0.773875
0.773094
0.772078
0.770842
0.769402
0.767777
0.765987
0.764057
0.762009
0.759872
0.757672
0.755439
0.753202
0.75099
0.748833
0.746773
0.74479
0.742897
0.741113
0.739457
0.737948
0.736601
0.735429
0.734442
0.733647
0.733045
0.732632
0.732398
0.732327
0.732392
0.732559
0.732782
0.733004
0.733155
0.73315
0.73289
0.732261
0.731134
0.729369
0.726813
0.723306
0.718689
0.712807
0.705518
0.696705
0.686282
0.674207
0.660487
0.64519
0.628552
0.611343
0.593335
0.574571
0.555217
0.535472
0.515535
0.49559
0.475802
0.456315
0.437263
0.418753
0.400847
0.383587
0.366899
0.351092
0.336256
0.322357
0.309093
0.297193
0.286128
0.275777
0.266431
0.257812
0.24967
0.241862
0.234322
0.227023
0.21996
0.213137
0.206558
0.200225
0.194138
0.188292
0.182685
0.177306
0.172158
0.167233
0.162524
0.158021
0.153714
0.149594
0.145652
0.141882
0.138277
0.134834
0.131552
0.128432
0.125481
0.12272
0.120187
0.118018
0.116348
0.116268
0.043371
0.0811285
0.102375
0.116142
0.126198
0.134446
0.142164
0.149949
0.158344
0.168039
0.179524
0.19298
0.208172
0.224504
0.241114
0.257096
0.271759
0.284815
0.296415
0.307058
0.317428
0.328262
0.340214
0.353769
0.369154
0.386359
0.40517
0.425201
0.446003
0.467191
0.488476
0.509645
0.530529
0.550993
0.570933
0.590277
0.608976
0.627
0.644337
0.660985
0.676953
0.692256
0.70691
0.720938
0.734362
0.747205
0.759489
0.771236
0.782465
0.793197
0.80345
0.813239
0.82258
0.831486
0.839969
0.848039
0.855705
0.862975
0.869856
0.876353
0.88247
0.88821
0.893576
0.898569
0.90319
0.90744
0.911317
0.914823
0.917956
0.920716
0.923103
0.925117
0.926758
0.928029
0.928931
0.929468
0.929645
0.929467
0.928943
0.928081
0.926893
0.925392
0.923594
0.921516
0.919176
0.916597
0.913801
0.910812
0.907655
0.904356
0.900944
0.897444
0.89392
0.890357
0.88677
0.883183
0.879622
0.876113
0.872682
0.869352
0.866146
0.863082
0.860175
0.857437
0.85487
0.852475
0.85024
0.848147
0.846163
0.844246
0.842336
0.840359
0.838224
0.835819
0.833017
0.829672
0.825621
0.820692
0.814705
0.807481
0.798849
0.78866
0.776795
0.76317
0.74775
0.730581
0.712275
0.692966
0.672651
0.65147
0.629626
0.60734
0.584833
0.56231
0.539959
0.517951
0.496444
0.47556
0.455367
0.435915
0.417192
0.399276
0.382273
0.366184
0.350938
0.336676
0.323326
0.310801
0.299161
0.28835
0.278242
0.268718
0.259686
0.251084
0.24287
0.235016
0.227501
0.220309
0.213425
0.206836
0.200527
0.194485
0.188696
0.183156
0.177853
0.172776
0.167913
0.163254
0.158787
0.154503
0.150394
0.146451
0.142671
0.13905
0.135593
0.132315
0.129249
0.126493
0.124164
0.122746
0.0583687
0.103368
0.12762
0.143472
0.155242
0.164971
0.173829
0.182316
0.191278
0.201333
0.212842
0.22586
0.240115
0.255066
0.270052
0.284483
0.29802
0.31067
0.322768
0.334852
0.347524
0.36132
0.37662
0.393607
0.412266
0.432422
0.453796
0.476061
0.498886
0.521985
0.545127
0.568133
0.590863
0.613205
0.635074
0.656404
0.677148
0.697274
0.716761
0.735598
0.753784
0.771321
0.788219
0.804489
0.820144
0.835202
0.849678
0.863588
0.876951
0.889783
0.902098
0.913912
0.925239
0.936091
0.946479
0.956415
0.965906
0.97496
0.983584
0.991782
0.999558
1.00692
1.01385
1.02038
1.02648
1.03217
1.03743
1.04228
1.0467
1.05069
1.05424
1.05737
1.06006
1.0623
1.06411
1.06548
1.0664
1.06688
1.06693
1.06654
1.06573
1.0645
1.06285
1.06081
1.05838
1.05557
1.05242
1.04892
1.0451
1.04099
1.03661
1.03198
1.02716
1.02216
1.01699
1.01167
1.00623
1.00071
0.995138
0.989542
0.983954
0.978402
0.972913
0.96751
0.962211
0.95703
0.951973
0.94704
0.942216
0.93748
0.93279
0.928092
0.923312
0.918356
0.91311
0.90744
0.90119
0.894189
0.886254
0.877198
0.866835
0.854997
0.841537
0.826343
0.809345
0.790934
0.771314
0.750519
0.728656
0.705901
0.682469
0.658588
0.634485
0.610373
0.586451
0.562899
0.539879
0.517518
0.495887
0.475039
0.454983
0.435746
0.417397
0.399958
0.383404
0.367766
0.353029
0.339131
0.326072
0.313836
0.30236
0.291562
0.281366
0.271705
0.262528
0.253792
0.245465
0.237519
0.229931
0.22268
0.215745
0.20911
0.202758
0.196674
0.190849
0.185267
0.179917
0.174786
0.169863
0.165136
0.160596
0.156233
0.15204
0.148014
0.144154
0.140473
0.136998
0.133803
0.130977
0.128785
0.0736535
0.124011
0.151528
0.169739
0.183328
0.194388
0.203716
0.212407
0.221258
0.230825
0.241421
0.253096
0.265662
0.278764
0.292012
0.305122
0.318015
0.330851
0.343971
0.357799
0.372729
0.389048
0.4069
0.426284
0.447077
0.469074
0.492026
0.51568
0.539794
0.564155
0.588586
0.61294
0.637097
0.660959
0.684446
0.70749
0.730041
0.752058
0.773509
0.794374
0.814637
0.834289
0.85333
0.871759
0.889581
0.906805
0.92344
0.939496
0.954987
0.969925
0.984322
0.99819
1.01154
1.02439
1.03674
1.04861
1.06
1.07092
1.08138
1.09137
1.10092
1.11
1.11864
1.12682
1.13455
1.14182
1.14863
1.15497
1.16084
1.16624
1.17116
1.17559
1.17953
1.18296
1.1859
1.18832
1.19023
1.19162
1.19248
1.19283
1.19265
1.19195
1.19072
1.18898
1.18672
1.18397
1.18071
1.17697
1.17276
1.16809
1.16299
1.15748
1.1516
1.14536
1.13877
1.13187
1.12469
1.11725
1.10959
1.10175
1.09375
1.08564
1.07745
1.0692
1.06093
1.05267
1.04444
1.03625
1.02811
1.02002
1.01197
1.00392
0.995829
0.987627
0.979227
0.97052
0.961373
0.95163
0.941124
0.929672
0.917088
0.903203
0.887853
0.870894
0.852585
0.83301
0.812208
0.790257
0.767294
0.743497
0.719078
0.694256
0.669251
0.644274
0.619518
0.595159
0.571352
0.548217
0.525824
0.504224
0.483435
0.463476
0.444386
0.426185
0.408864
0.392428
0.376857
0.36211
0.348167
0.335017
0.322624
0.310933
0.299883
0.289416
0.279483
0.270039
0.261046
0.252474
0.244292
0.236477
0.229005
0.221857
0.215014
0.20846
0.202179
0.196158
0.190383
0.184841
0.17952
0.17441
0.169498
0.164775
0.160233
0.155866
0.151673
0.147663
0.143856
0.140307
0.13708
0.134339
0.0870815
0.14233
0.172922
0.193384
0.208572
0.220263
0.229946
0.23864
0.247092
0.255841
0.265223
0.275374
0.28626
0.297744
0.309676
0.321984
0.33472
0.348063
0.362262
0.377577
0.394205
0.412255
0.431732
0.452555
0.474575
0.49761
0.521462
0.545936
0.570853
0.596049
0.621386
0.646739
0.672004
0.69709
0.721917
0.746418
0.770533
0.794215
0.817421
0.840118
0.862282
0.883891
0.904933
0.925398
0.945282
0.964583
0.983304
1.00145
1.01903
1.03604
1.0525
1.06842
1.08381
1.09867
1.11301
1.12685
1.14018
1.15302
1.16538
1.17724
1.18863
1.19953
1.20995
1.21988
1.22933
1.2383
1.24676
1.25473
1.26219
1.26913
1.27555
1.28143
1.28678
1.29157
1.29579
1.29945
1.30252
1.305
1.30688
1.30816
1.30882
1.30885
1.30827
1.30705
1.3052
1.30272
1.29961
1.29587
1.29151
1.28654
1.28098
1.27483
1.26813
1.26088
1.2531
1.24483
1.23608
1.22689
1.21729
1.20732
1.19701
1.18639
1.1755
1.16438
1.15307
1.1416
1.13001
1.11832
1.10657
1.09478
1.08295
1.07109
1.05917
1.04717
1.03502
1.02267
1.01
0.996899
0.983221
0.968815
0.953487
0.937121
0.919511
0.900863
0.881088
0.860195
0.838229
0.815275
0.791465
0.766967
0.741974
0.716686
0.691307
0.666028
0.641027
0.616463
0.592474
0.569163
0.546595
0.524813
0.503836
0.483678
0.464361
0.445895
0.428276
0.411496
0.395535
0.380357
0.365941
0.352274
0.339332
0.327074
0.315456
0.304431
0.293954
0.283984
0.274485
0.265423
0.25677
0.2485
0.240588
0.233014
0.225759
0.218807
0.212139
0.205742
0.199601
0.193706
0.188042
0.182599
0.177366
0.172334
0.167492
0.162836
0.158363
0.154077
0.149995
0.146154
0.142601
0.139442
0.0979968
0.157194
0.190369
0.212586
0.228726
0.241172
0.251307
0.260089
0.268239
0.276305
0.284682
0.293616
0.303234
0.313583
0.324685
0.336585
0.349378
0.363199
0.378192
0.394478
0.412125
0.431136
0.451452
0.472971
0.495554
0.519052
0.54331
0.568179
0.593521
0.619208
0.645124
0.671167
0.69724
0.723257
0.749142
0.774822
0.800235
0.825324
0.850039
0.874339
0.898185
0.92155
0.944408
0.96674
0.988534
1.00978
1.03047
1.0506
1.07018
1.0892
1.10767
1.1256
1.14299
1.15984
1.17617
1.19197
1.20727
1.22205
1.23632
1.25009
1.26336
1.27612
1.28839
1.30014
1.31138
1.32211
1.33231
1.34199
1.35112
1.3597
1.36772
1.37516
1.38202
1.38828
1.39392
1.39893
1.4033
1.40701
1.41005
1.4124
1.41405
1.415
1.41522
1.4147
1.41344
1.41144
1.40867
1.40515
1.40086
1.39582
1.39002
1.38348
1.37618
1.36815
1.35941
1.34999
1.3399
1.32917
1.31783
1.30591
1.29344
1.28046
1.267
1.2531
1.2388
1.22415
1.20918
1.19393
1.17845
1.16278
1.14696
1.131
1.11494
1.09875
1.08242
1.06595
1.04927
1.03228
1.0149
0.997045
0.978446
0.959278
0.939355
0.918633
0.89707
0.874666
0.85146
0.827531
0.802996
0.778001
0.752713
0.727306
0.701954
0.67682
0.652054
0.627788
0.604131
0.581165
0.558941
0.537488
0.516818
0.496938
0.477856
0.459572
0.442078
0.425363
0.409402
0.394166
0.379635
0.365794
0.352624
0.340097
0.328179
0.316834
0.306024
0.295714
0.285872
0.276467
0.267472
0.258862
0.250614
0.242708
0.235126
0.227851
0.220867
0.214158
0.207713
0.201518
0.195564
0.189838
0.184331
0.179033
0.173937
0.169034
0.164323
0.159806
0.155494
0.151412
0.147592
0.144107
0.105788
0.167717
0.202504
0.225894
0.243131
0.256486
0.267275
0.27641
0.284591
0.29238
0.300223
0.308463
0.317346
0.327047
0.337694
0.349394
0.362243
0.376329
0.391719
0.408445
0.426504
0.445849
0.466403
0.488064
0.510717
0.53424
0.558515
0.583426
0.608863
0.634725
0.660914
0.687341
0.713919
0.740567
0.767209
0.793772
0.82019
0.846402
0.872351
0.897986
0.923263
0.948143
0.972593
0.996585
1.0201
1.04311
1.06561
1.08759
1.10904
1.12996
1.15035
1.1702
1.18953
1.20832
1.22659
1.24434
1.26157
1.27828
1.29447
1.31015
1.32531
1.33996
1.35409
1.36769
1.38076
1.39329
1.40528
1.41671
1.42757
1.43785
1.44753
1.4566
1.46505
1.47285
1.47998
1.48644
1.49219
1.49723
1.50152
1.50506
1.50783
1.50979
1.51095
1.51127
1.51075
1.50936
1.50711
1.50397
1.49993
1.495
1.48916
1.48242
1.47474
1.46615
1.45667
1.44632
1.4351
1.42305
1.41019
1.39654
1.38213
1.36699
1.35116
1.33466
1.31754
1.29983
1.28159
1.26286
1.24369
1.22413
1.20426
1.18413
1.16376
1.14319
1.12242
1.10152
1.0805
1.05925
1.03772
1.01608
0.994123
0.971827
0.949114
0.92594
0.902279
0.878138
0.853552
0.828593
0.803359
0.777971
0.752566
0.727282
0.702256
0.677614
0.653468
0.629911
0.60702
0.584844
0.563414
0.542739
0.522819
0.503647
0.485217
0.467519
0.45054
0.434261
0.418659
0.403707
0.389385
0.375681
0.362577
0.350055
0.33809
0.326653
0.315718
0.305255
0.295237
0.285639
0.276436
0.267607
0.259131
0.250991
0.243171
0.235654
0.228426
0.221473
0.214783
0.208347
0.202154
0.196194
0.190458
0.184938
0.179627
0.174517
0.169607
0.164896
0.160391
0.15611
0.152073
0.14833
0.109944
0.173146
0.209045
0.233566
0.251899
0.266258
0.277903
0.2877
0.296317
0.304313
0.31216
0.320249
0.3289
0.338361
0.348818
0.360408
0.373226
0.387332
0.40275
0.419473
0.437467
0.45667
0.477007
0.49839
0.520725
0.543919
0.567879
0.592516
0.617742
0.643475
0.669633
0.696137
0.722909
0.749874
0.776959
0.804091
0.831203
0.85823
0.885111
0.91179
0.938216
0.964343
0.990129
1.01554
1.04055
1.06512
1.08924
1.11289
1.13606
1.15874
1.18091
1.20258
1.22374
1.24439
1.26453
1.28416
1.30327
1.32187
1.33996
1.35752
1.37457
1.39109
1.40708
1.42254
1.43745
1.45181
1.46559
1.4788
1.49142
1.50343
1.51481
1.52555
1.53562
1.54501
1.55368
1.56164
1.56883
1.57525
1.58088
1.58567
1.58962
1.59269
1.59487
1.59613
1.59645
1.5958
1.59417
1.59154
1.5879
1.58322
1.5775
1.57073
1.56285
1.55388
1.54385
1.53277
1.52065
1.5075
1.49334
1.47819
1.46206
1.445
1.42701
1.40814
1.38841
1.36787
1.34657
1.32453
1.30182
1.27849
1.25467
1.23042
1.20579
1.18081
1.15549
1.13002
1.10451
1.07892
1.05326
1.02759
1.00187
0.976086
0.950225
0.924275
0.898238
0.872134
0.846007
0.81992
0.793956
0.768212
0.74279
0.717788
0.6933
0.669407
0.646175
0.623653
0.601875
0.580856
0.560595
0.541079
0.522287
0.504195
0.486783
0.470029
0.453911
0.438404
0.423483
0.409125
0.39531
0.382025
0.369257
0.356994
0.345218
0.333909
0.323048
0.312614
0.302586
0.292944
0.28367
0.274745
0.266154
0.257881
0.249915
0.242239
0.234842
0.227713
0.220843
0.214223
0.207845
0.2017
0.195781
0.190081
0.184594
0.179315
0.17424
0.169368
0.164705
0.160261
0.156047
0.1521
0.110378
0.174289
0.210915
0.236306
0.255616
0.270996
0.283641
0.294358
0.303771
0.312408
0.320731
0.329141
0.337978
0.347521
0.357983
0.369517
0.382221
0.39615
0.411318
0.427708
0.445284
0.463991
0.483766
0.50454
0.526243
0.548805
0.572156
0.596226
0.620947
0.646252
0.672073
0.698343
0.724993
0.751953
0.779155
0.806529
0.834008
0.861527
0.889022
0.916434
0.943706
0.970789
0.997634
1.0242
1.05045
1.07635
1.10187
1.12699
1.15169
1.17595
1.19976
1.22311
1.24599
1.26839
1.2903
1.31172
1.33265
1.35307
1.37299
1.3924
1.4113
1.42967
1.4475
1.46479
1.48153
1.4977
1.51329
1.52828
1.54266
1.5564
1.56949
1.58191
1.59363
1.60462
1.61487
1.62434
1.63301
1.64085
1.64783
1.65393
1.65911
1.66334
1.6666
1.66886
1.67008
1.67025
1.66934
1.66732
1.66416
1.65986
1.65438
1.64769
1.63975
1.63057
1.62016
1.60854
1.59569
1.58164
1.56639
1.54995
1.53234
1.51358
1.49369
1.47268
1.45061
1.42749
1.40336
1.37828
1.35228
1.32536
1.29778
1.26959
1.24084
1.21163
1.18202
1.15218
1.12222
1.0922
1.06222
1.03235
1.00264
0.973141
0.943895
0.914939
0.886314
0.858068
0.830258
0.802948
0.776209
0.750113
0.724725
0.700106
0.676299
0.653334
0.631228
0.60998
0.589578
0.569995
0.551195
0.533138
0.515777
0.49907
0.482979
0.467467
0.452503
0.438055
0.424098
0.410605
0.397558
0.384944
0.372755
0.360981
0.349611
0.338633
0.328036
0.317805
0.307928
0.29839
0.289178
0.280281
0.271685
0.263383
0.255362
0.247612
0.240124
0.232891
0.225905
0.219162
0.212653
0.206374
0.200318
0.19448
0.188856
0.183443
0.178236
0.173237
0.168446
0.16387
0.159515
0.155408
0.108296
0.172143
0.209024
0.234983
0.2551
0.27145
0.285155
0.296956
0.307416
0.317013
0.326168
0.335255
0.344601
0.354481
0.365111
0.376651
0.38921
0.402849
0.41759
0.43343
0.450345
0.4683
0.487253
0.507158
0.527968
0.549636
0.572112
0.595343
0.619276
0.64386
0.669042
0.694766
0.720973
0.747602
0.774589
0.801872
0.829384
0.857061
0.884841
0.912662
0.940466
0.968198
0.995807
1.02325
1.05047
1.07744
1.10413
1.1305
1.15652
1.18218
1.20745
1.23231
1.25676
1.28077
1.30434
1.32745
1.35009
1.37226
1.39395
1.41513
1.43582
1.45598
1.47562
1.49471
1.51324
1.5312
1.54857
1.56532
1.58144
1.59691
1.61171
1.62579
1.63915
1.65175
1.66357
1.67457
1.68472
1.69399
1.70235
1.70976
1.71619
1.72161
1.72598
1.72928
1.73145
1.73249
1.73234
1.73099
1.7284
1.72455
1.7194
1.71289
1.70499
1.69572
1.68508
1.67307
1.65967
1.64488
1.62872
1.6112
1.59232
1.57209
1.55052
1.52764
1.50346
1.47802
1.45135
1.4235
1.39452
1.36447
1.33347
1.30164
1.26905
1.23582
1.20208
1.16798
1.13366
1.09928
1.06498
1.03088
0.997129
0.963832
0.9311
0.89903
0.867712
0.837232
0.807666
0.779086
0.751553
0.725115
0.699804
0.675635
0.652603
0.630686
0.609847
0.590032
0.571181
0.553225
0.536091
0.519704
0.503993
0.488895
0.474351
0.46031
0.44673
0.433572
0.420804
0.4084
0.39634
0.384613
0.37321
0.362126
0.351354
0.340891
0.330729
0.320864
0.311287
0.301992
0.292973
0.284221
0.275732
0.267499
0.259515
0.251775
0.244274
0.237009
0.229975
0.223168
0.216585
0.210222
0.204075
0.198143
0.192422
0.18691
0.181605
0.176507
0.171618
0.16694
0.162476
0.158245
0.104241
0.167451
0.204214
0.230478
0.251222
0.268443
0.283189
0.296132
0.307769
0.318513
0.328725
0.338731
0.348819
0.359236
0.370185
0.381824
0.394267
0.407592
0.421838
0.437017
0.453129
0.470165
0.488111
0.506945
0.526649
0.547198
0.568575
0.590725
0.613603
0.637183
0.661429
0.6863
0.711747
0.73772
0.764163
0.791019
0.818228
0.845728
0.87346
0.901361
0.929374
0.957442
0.98551
1.01353
1.04145
1.06923
1.09682
1.1242
1.15132
1.17817
1.2047
1.23091
1.25675
1.28223
1.30731
1.33198
1.35623
1.38004
1.40339
1.42627
1.44866
1.47056
1.49193
1.51276
1.53304
1.55274
1.57184
1.59032
1.60815
1.62532
1.64178
1.65751
1.67249
1.68668
1.70004
1.71255
1.72416
1.73485
1.74458
1.7533
1.76099
1.7676
1.77309
1.77743
1.78058
1.7825
1.78316
1.78251
1.78053
1.77717
1.7724
1.76614
1.75838
1.74913
1.73837
1.72609
1.71229
1.69695
1.68007
1.66166
1.64171
1.62023
1.59723
1.57271
1.5467
1.51922
1.4903
1.45999
1.42833
1.3954
1.36129
1.32611
1.28997
1.253
1.21536
1.17721
1.13875
1.10018
1.06169
1.02348
0.985771
0.94874
0.912569
0.877422
0.843445
0.810762
0.779477
0.749669
0.72139
0.694667
0.669495
0.645846
0.623665
0.602876
0.583388
0.565098
0.547897
0.531673
0.516316
0.501721
0.48779
0.474435
0.461581
0.449161
0.43712
0.425412
0.413998
0.40285
0.391946
0.381273
0.370823
0.360594
0.350583
0.340789
0.331214
0.321856
0.312715
0.303791
0.295083
0.286589
0.278309
0.27024
0.262383
0.254736
0.2473
0.240073
0.233056
0.226247
0.219645
0.21325
0.20706
0.201076
0.195297
0.189722
0.184352
0.179186
0.174226
0.169474
0.164929
0.160606
0.0986773
0.160867
0.197245
0.223605
0.244807
0.262768
0.278471
0.292522
0.305354
0.317311
0.32869
0.339754
0.350739
0.361852
0.373263
0.385116
0.397531
0.410603
0.424411
0.438922
0.454181
0.470216
0.487041
0.504665
0.523093
0.542325
0.562354
0.583166
0.604744
0.627067
0.650114
0.673856
0.698256
0.723276
0.748869
0.774986
0.801573
0.828577
0.855939
0.883602
0.911507
0.9396
0.967823
0.996124
1.02445
1.05276
1.081
1.10914
1.13712
1.16493
1.19252
1.21986
1.24692
1.27369
1.30012
1.32621
1.35192
1.37724
1.40214
1.4266
1.45061
1.47413
1.49715
1.51965
1.54159
1.56296
1.58373
1.60388
1.62336
1.64216
1.66024
1.67758
1.69413
1.70985
1.72473
1.73871
1.75176
1.76384
1.7749
1.78491
1.79383
1.80161
1.80822
1.8136
1.81771
1.82053
1.82199
1.82207
1.82072
1.8179
1.81353
1.80758
1.80004
1.79088
1.7801
1.76767
1.75358
1.73782
1.72037
1.70123
1.6804
1.65786
1.63362
1.60769
1.58007
1.5508
1.51988
1.48737
1.4533
1.41775
1.38081
1.34258
1.30318
1.26276
1.22149
1.17957
1.13723
1.09472
1.05228
1.01021
0.968755
0.928198
0.888788
0.850757
0.814306
0.779601
0.74677
0.715897
0.687025
0.660152
0.635239
0.61221
0.59096
0.571363
0.553277
0.53655
0.521032
0.50657
0.493021
0.480252
0.468139
0.456576
0.445468
0.434734
0.424308
0.414135
0.404171
0.394381
0.384742
0.375238
0.365862
0.35661
0.347482
0.338483
0.329616
0.320885
0.312297
0.303855
0.295563
0.287425
0.279447
0.271631
0.263985
0.256511
0.249214
0.242095
0.235159
0.228407
0.221841
0.215465
0.209279
0.203286
0.197488
0.191886
0.186482
0.181279
0.176276
0.171476
0.166877
0.162491
0.0920125
0.152939
0.18876
0.215061
0.236569
0.255127
0.27166
0.286721
0.300685
0.313831
0.32639
0.338564
0.35054
0.362493
0.3745
0.386691
0.399179
0.412056
0.425397
0.439248
0.453662
0.468683
0.484354
0.500708
0.517777
0.535584
0.554146
0.573475
0.593574
0.614444
0.636076
0.658456
0.681564
0.705371
0.729843
0.754941
0.780621
0.806834
0.833529
0.860654
0.888154
0.915973
0.944058
0.972353
1.00081
1.02937
1.05799
1.08662
1.11522
1.14375
1.17217
1.20043
1.22851
1.25637
1.28397
1.3113
1.33831
1.36498
1.39129
1.41719
1.44268
1.46771
1.49227
1.51631
1.53982
1.56276
1.58511
1.60682
1.62788
1.64823
1.66786
1.68671
1.70476
1.72196
1.73828
1.75367
1.7681
1.78151
1.79386
1.80512
1.81522
1.82414
1.83182
1.83821
1.84327
1.84696
1.84922
1.85001
1.84929
1.84699
1.84306
1.83746
1.83018
1.82118
1.81045
1.79795
1.78367
1.76758
1.74967
1.72993
1.70834
1.68489
1.65957
1.6324
1.60337
1.57249
1.53979
1.50529
1.46905
1.43113
1.39161
1.35059
1.3082
1.26461
1.22001
1.17463
1.12872
1.08259
1.03654
0.990913
0.946062
0.902323
0.860024
0.81946
0.780883
0.744497
0.710444
0.678809
0.649614
0.622827
0.598366
0.576108
0.555899
0.537563
0.520914
0.505759
0.491908
0.479179
0.4674
0.456414
0.446079
0.436272
0.426883
0.41782
0.409007
0.400379
0.391887
0.383492
0.375165
0.366889
0.358653
0.350455
0.342293
0.334175
0.326106
0.318094
0.310149
0.302279
0.29449
0.286793
0.279198
0.271717
0.264359
0.257131
0.250041
0.243096
0.236301
0.229663
0.223187
0.216879
0.210742
0.204782
0.199003
0.19341
0.188005
0.182793
0.177775
0.172953
0.168325
0.1639
0.0842878
0.143809
0.178972
0.205114
0.226812
0.245842
0.263085
0.279053
0.294086
0.308388
0.322105
0.335387
0.348359
0.361126
0.373774
0.38639
0.399059
0.411863
0.424876
0.438169
0.451812
0.465871
0.48041
0.495489
0.511163
0.527482
0.544488
0.562216
0.580694
0.599939
0.619965
0.640774
0.66236
0.684712
0.707808
0.73162
0.756117
0.781258
0.807001
0.833299
0.860103
0.887361
0.91502
0.943028
0.971331
0.999878
1.02862
1.05749
1.08647
1.11548
1.1445
1.17347
1.20235
1.23111
1.25971
1.28809
1.31624
1.34411
1.37168
1.39889
1.42572
1.45214
1.47811
1.50359
1.52856
1.55298
1.5768
1.6
1.62253
1.64436
1.66544
1.68575
1.70523
1.72383
1.74153
1.75827
1.77401
1.7887
1.80229
1.81473
1.82598
1.83599
1.8447
1.85207
1.85804
1.86257
1.8656
1.86709
1.86697
1.86519
1.86171
1.85648
1.84948
1.84067
1.83001
1.81748
1.80305
1.78669
1.76838
1.7481
1.72583
1.70156
1.67527
1.64695
1.61662
1.58426
1.5499
1.51357
1.47531
1.43517
1.39325
1.34964
1.30449
1.25797
1.2103
1.16173
1.11256
1.06314
1.01385
0.965077
0.917254
0.870792
0.826084
0.783483
0.743284
0.705712
0.670914
0.638958
0.609836
0.583475
0.559746
0.538475
0.519461
0.502485
0.487318
0.473736
0.461519
0.450462
0.440374
0.431083
0.422434
0.414292
0.406538
0.399072
0.39181
0.384682
0.377631
0.370614
0.363599
0.356564