/*--------------------------------*- C++ -*----------------------------------*\
  =========                 |
  \\      /  F ield         | OpenFOAM: The Open Source CFD Toolbox
   \\    /   O peration     | Website:  https://openfoam.org
    \\  /    A nd           | Version:  7
     \\/     M anipulation  |
\*---------------------------------------------------------------------------*/
FoamFile
{
    version     2.0;
    format      ascii;
    class       volScalarField;
    location    "0.08";
    object      nut;
}
// * * * * * * * * * * * * * * * * * * * * * * * * * * * * * * * * * * * * * //

dimensions      [0 2 -1 0 0 0 0];

internalField   nonuniform List<scalar> 
12225
(
3.8006e-05
3.33295e-05
2.94334e-05
2.63763e-05
2.41496e-05
2.26304e-05
2.16471e-05
2.10385e-05
2.06767e-05
2.04691e-05
2.0353e-05
2.02878e-05
2.02489e-05
2.0222e-05
2.01995e-05
2.01764e-05
2.01594e-05
2.03003e-05
0.000205719
0.000151524
0.000127306
0.000114393
0.000107358
0.000103251
0.000100592
9.86742e-05
9.71662e-05
9.5905e-05
9.48108e-05
9.38441e-05
9.29844e-05
9.22174e-05
9.15354e-05
9.09123e-05
9.03969e-05
8.97285e-05
0.000418631
0.000296977
0.000242013
0.000210213
0.000189638
0.000175249
0.000164672
0.000156647
0.000150406
0.000145448
0.000141432
0.000138127
0.00013537
0.000133043
0.000131061
0.000129344
0.000127867
0.000126476
0.000615526
0.000473516
0.000392538
0.000341201
0.000305899
0.000279928
0.000259924
0.000244062
0.000231226
0.00022067
0.000211874
0.000204462
0.00019816
0.000192755
0.000188085
0.00018401
0.000180438
0.000177266
0.000739717
0.000627479
0.000543926
0.000483335
0.000438425
0.000403825
0.000376261
0.000353764
0.000335061
0.000319277
0.000305795
0.000294165
0.000284052
0.000275194
0.000267386
0.000260457
0.000254277
0.000248802
0.000803278
0.00073304
0.000666653
0.000610706
0.000565078
0.000527697
0.000496648
0.00047051
0.000448233
0.000429031
0.000412312
0.000397631
0.000384646
0.000373089
0.000362742
0.00035343
0.000345016
0.000337523
0.000832281
0.000794578
0.000750916
0.000708269
0.000669658
0.000635625
0.000605841
0.000579779
0.000556896
0.000536697
0.000518763
0.000502748
0.00048837
0.000475396
0.000463636
0.00045293
0.000443161
0.000434414
0.000844506
0.00082635
0.00080145
0.000773597
0.000745605
0.000718908
0.000694104
0.000671375
0.000650683
0.000631885
0.000614801
0.000599245
0.000585048
0.000572054
0.000560127
0.000549149
0.000539039
0.000529933
0.000849306
0.000841188
0.000828448
0.000812415
0.000794642
0.0007763
0.000758143
0.000740631
0.000724015
0.000708401
0.00069381
0.000680213
0.000667557
0.000655779
0.000644811
0.00063459
0.000625081
0.000616451
0.00085104
0.000847503
0.000841445
0.000833081
0.000822988
0.000811776
0.000799962
0.000787951
0.000776035
0.000764412
0.000753201
0.000742471
0.000732252
0.000722553
0.000713366
0.000704677
0.000696494
0.000688995
0.000851595
0.000849938
0.0008471
0.000842988
0.000837716
0.000831494
0.000824562
0.000817152
0.000809469
0.00080168
0.00079391
0.000786253
0.000778773
0.000771513
0.000764501
0.000757756
0.000751311
0.000745333
0.000851722
0.000850705
0.000849142
0.000846929
0.00084405
0.000840552
0.000836517
0.000832049
0.000827257
0.000822244
0.0008171
0.000811899
0.000806699
0.000801547
0.000796478
0.000791522
0.00078672
0.000782223
0.000851734
0.000850949
0.000849937
0.000848637
0.000847018
0.000845069
0.000842803
0.000840248
0.000837444
0.000834439
0.000831279
0.000828008
0.000824666
0.000821287
0.0008179
0.000814532
0.000811221
0.00080808
0.000851706
0.000850981
0.000850176
0.000849273
0.000848258
0.00084712
0.000845853
0.000844455
0.000842931
0.000841292
0.000839552
0.000837728
0.000835835
0.00083389
0.000831908
0.000829908
0.000827914
0.000826002
0.000851673
0.000850943
0.000850189
0.000849411
0.000848614
0.000847798
0.000846961
0.0008461
0.000845212
0.000844294
0.000843348
0.000842372
0.000841371
0.000840346
0.000839302
0.000838245
0.00083719
0.000836179
0.000851648
0.000850901
0.000850149
0.000849397
0.000848653
0.000847927
0.000847222
0.000846539
0.000845879
0.000845238
0.000844614
0.000844004
0.000843407
0.000842819
0.00084224
0.000841671
0.000841119
0.000840608
0.000851634
0.000850877
0.000850125
0.000849377
0.000848644
0.000847936
0.00084726
0.000846618
0.000846014
0.000845445
0.000844911
0.00084441
0.000843939
0.000843495
0.000843076
0.000842682
0.000842319
0.000842003
0.000851635
0.000850882
0.000850138
0.000849401
0.000848682
0.000847988
0.000847327
0.000846702
0.000846116
0.00084557
0.000845061
0.000844589
0.000844151
0.000843746
0.00084337
0.000843025
0.000842714
0.000842453
0.000851658
0.000850931
0.000850214
0.000849507
0.00084882
0.000848159
0.000847533
0.000846945
0.000846396
0.000845886
0.000845415
0.000844979
0.000844578
0.000844208
0.000843867
0.000843555
0.000843277
0.000843047
0.000851711
0.000851046
0.000850389
0.000849744
0.000849119
0.000848526
0.000847969
0.00084745
0.00084697
0.000846526
0.000846114
0.000845733
0.000845377
0.000845045
0.000844733
0.00084444
0.000844171
0.00084394
0.000851797
0.000851227
0.000850662
0.000850105
0.000849564
0.000849046
0.000848552
0.000848078
0.000847617
0.000847164
0.000846712
0.000846259
0.000845799
0.00084533
0.000844851
0.000844363
0.000843872
0.000843397
0.000851938
0.000851513
0.000851063
0.000850571
0.000850028
0.000849428
0.000848758
0.000848005
0.000847158
0.000846217
0.000845182
0.00084406
0.000842857
0.000841582
0.000840246
0.000838857
0.000837434
0.000836013
0.00085214
0.000851826
0.000851268
0.000850373
0.000849103
0.000847458
0.000845449
0.000843096
0.000840437
0.00083752
0.000834393
0.000831104
0.000827682
0.000824173
0.00082062
0.000817062
0.000813539
0.000810118
0.000852218
0.000851246
0.000849036
0.000845491
0.00084076
0.000835086
0.000828698
0.000821793
0.000814552
0.000807116
0.000799596
0.000792116
0.00078478
0.000777644
0.000770743
0.000764102
0.000757745
0.000751746
0.00085079
0.000845033
0.000835417
0.000822993
0.00080892
0.000794124
0.000779193
0.000764458
0.000750152
0.000736502
0.000723626
0.000711537
0.00070022
0.000689639
0.000679749
0.000670506
0.000661874
0.000653891
0.000841139
0.00081669
0.000787022
0.000756743
0.000727856
0.000701092
0.000676575
0.000654477
0.000634666
0.000616882
0.000600874
0.000586409
0.000573284
0.000561323
0.000550379
0.000540326
0.000531069
0.000522595
0.00079863
0.000728736
0.000669124
0.000620867
0.000581049
0.000547818
0.000520244
0.000497028
0.000477197
0.000460041
0.000445032
0.000431769
0.000419943
0.000409314
0.000399696
0.00039094
0.000382934
0.000375635
0.00066243
0.000545598
0.000474674
0.000425263
0.000388355
0.000360378
0.000338603
0.000321139
0.00030676
0.000294681
0.000284367
0.000275441
0.000267624
0.000260712
0.000254549
0.000249015
0.000244016
0.000239495
0.000377507
0.000286137
0.000242657
0.00021494
0.000195685
0.000182283
0.000172855
0.000166026
0.000160914
0.000156975
0.000153861
0.000151344
0.000149263
0.000147508
0.000146001
0.000144685
0.000143518
0.000142457
6.98061e-05
6.49724e-05
6.05483e-05
5.65134e-05
5.29026e-05
4.9728e-05
4.69834e-05
4.46436e-05
4.26697e-05
4.10173e-05
3.96429e-05
3.8506e-05
3.75707e-05
3.68053e-05
3.61825e-05
3.56792e-05
3.52755e-05
3.49548e-05
3.08715e-06
3.91518e-05
5.27814e-05
6.25561e-05
6.98183e-05
7.5365e-05
7.98057e-05
8.3764e-05
8.81703e-05
9.38057e-05
0.000101214
0.000111008
0.000123574
0.000138692
0.000155277
0.000171402
0.000184732
0.00019071
4.16047e-05
4.1637e-05
4.25834e-05
0.000197544
4.35869e-05
0.000196428
4.44942e-05
4.57056e-05
0.000210781
0.000210532
4.80372e-05
4.94149e-05
5.08465e-05
5.2199e-05
5.34631e-05
5.46394e-05
5.57307e-05
5.67414e-05
5.76763e-05
5.85407e-05
5.934e-05
6.00795e-05
6.07642e-05
6.13989e-05
6.19879e-05
6.25352e-05
6.30445e-05
6.35191e-05
6.39617e-05
6.43751e-05
6.47614e-05
6.51227e-05
6.54607e-05
6.57771e-05
6.60731e-05
6.635e-05
6.66089e-05
6.68505e-05
6.70759e-05
6.72855e-05
6.74802e-05
6.76604e-05
6.78266e-05
6.79793e-05
6.81188e-05
6.82456e-05
6.83599e-05
6.8462e-05
6.85523e-05
6.86311e-05
6.86987e-05
6.87554e-05
6.88015e-05
6.88374e-05
6.88634e-05
6.888e-05
6.88875e-05
6.88864e-05
6.88772e-05
6.88604e-05
6.88364e-05
6.8806e-05
6.87695e-05
6.87276e-05
6.86809e-05
6.86301e-05
6.85758e-05
6.85187e-05
6.84597e-05
6.83997e-05
6.83398e-05
6.82812e-05
6.82246e-05
6.819e-05
6.8156e-05
6.81225e-05
6.80899e-05
6.80578e-05
6.80262e-05
6.79944e-05
6.79618e-05
6.79278e-05
6.78913e-05
6.78512e-05
6.78064e-05
6.77554e-05
6.76965e-05
6.76279e-05
6.75475e-05
6.7453e-05
6.73418e-05
6.7211e-05
6.70573e-05
6.68772e-05
6.66668e-05
6.64219e-05
6.6138e-05
6.581e-05
6.5433e-05
6.50014e-05
6.451e-05
6.39532e-05
6.33259e-05
6.26232e-05
6.18405e-05
6.09728e-05
6.00123e-05
5.89403e-05
5.7718e-05
5.65293e-05
5.59043e-05
5.53509e-05
5.47653e-05
5.41407e-05
5.34817e-05
5.27951e-05
5.20894e-05
5.13718e-05
5.06589e-05
4.99401e-05
4.91672e-05
4.84322e-05
4.71461e-05
4.67238e-05
4.64182e-05
0.000201264
4.68027e-05
0.000198839
0.000196738
0.000198703
0.000198491
0.000196166
0.000192407
0.00018769
0.000182344
0.000176605
0.000170653
0.000164618
0.000158596
0.000152657
0.000146845
0.000141201
0.000135759
0.000130525
0.000125503
0.000120693
0.000116092
0.000111693
0.000107491
0.00010348
9.96508e-05
9.59997e-05
9.25216e-05
8.92132e-05
8.60722e-05
8.30972e-05
8.0289e-05
7.76517e-05
7.51959e-05
7.29603e-05
7.09932e-05
6.9774e-05
5.45876e-06
4.08501e-05
7.76276e-05
0.000108488
0.000133538
0.000153588
0.000169563
0.000182422
0.000192968
0.000201408
0.000209136
0.000217268
0.00022636
0.000236128
0.000245369
0.000252228
0.000254367
0.000247308
0.000220568
0.00021663
0.000217645
0.000228867
0.000216169
0.000224372
0.000217437
0.000223235
0.000240015
0.000241818
0.000241119
0.000251931
0.000264318
0.00027744
0.000290922
0.000304485
0.000317902
0.000330988
0.000343605
0.000355654
0.000367072
0.000377827
0.000387908
0.000397327
0.000406105
0.000414272
0.000421865
0.000428919
0.000435473
0.000441562
0.00044722
0.000452478
0.000457365
0.000461907
0.000466128
0.000470047
0.000473683
0.000477053
0.000480171
0.00048305
0.000485699
0.00048813
0.000490349
0.000492365
0.000494184
0.00049581
0.00049725
0.000498506
0.000499583
0.000500485
0.000501215
0.000501777
0.000502176
0.000502416
0.000502501
0.000502438
0.000502234
0.000501895
0.000501431
0.00050085
0.000500164
0.000499384
0.000498522
0.00049759
0.000496601
0.000495568
0.000494499
0.000493405
0.000492288
0.000491146
0.00048997
0.000488741
0.000487436
0.000486114
0.000484969
0.000483994
0.000483206
0.000482623
0.000482264
0.000482148
0.000482289
0.000482702
0.000483398
0.000484385
0.00048567
0.000487254
0.000489136
0.000491311
0.000493768
0.000496491
0.000499459
0.000502641
0.000506003
0.000509499
0.000513077
0.000516673
0.000520217
0.000523627
0.000526811
0.000529672
0.000532103
0.000533992
0.000535217
0.00053565
0.000535142
0.000533502
0.000530447
0.000525514
0.000518007
0.000507945
0.000496712
0.000484716
0.000472098
0.000458979
0.000445479
0.000431704
0.000417761
0.000403731
0.000389671
0.000375572
0.000360988
0.000346635
0.000329973
0.000316525
0.000305251
0.000320249
0.000296086
0.000317586
0.000321676
0.000353252
0.000377993
0.00039068
0.000394449
0.00039271
0.000387707
0.000380794
0.000372795
0.000364223
0.000355408
0.000346561
0.000337814
0.000329211
0.000320778
0.000312657
0.000304873
0.000297421
0.000290286
0.000283449
0.000276887
0.00027057
0.000264467
0.000258545
0.000252771
0.000247108
0.000241516
0.00023595
0.000230358
0.00022468
0.000218816
0.00021273
0.000205843
0.000200034
9.10567e-06
5.76696e-05
0.000109971
0.000154193
0.000190104
0.000218744
0.000241183
0.000258426
0.000270682
0.000279417
0.000286171
0.000292339
0.000298983
0.000306219
0.000313482
0.000319892
0.000324655
0.000327298
0.000328139
0.000331379
0.000336614
0.000344046
0.00035175
0.000363354
0.000376938
0.000394519
0.00041573
0.00043798
0.000462764
0.000490679
0.000519666
0.000548904
0.000577891
0.00060625
0.000633702
0.000660047
0.000685161
0.000708974
0.000731467
0.000752652
0.000772568
0.000791269
0.000808818
0.000825283
0.000840732
0.000855232
0.000868847
0.000881637
0.000893658
0.00090496
0.000915589
0.000925588
0.000934993
0.000943838
0.000952153
0.000959965
0.000967297
0.000974169
0.000980599
0.000986604
0.000992195
0.000997384
0.00100218
0.00100659
0.00101063
0.00101429
0.00101758
0.00102051
0.00102308
0.00102529
0.00102714
0.00102865
0.0010298
0.0010306
0.00103107
0.00103119
0.00103099
0.00103046
0.00102962
0.00102847
0.00102702
0.00102529
0.00102329
0.00102102
0.0010185
0.00101575
0.00101277
0.00100958
0.0010062
0.00100265
0.000998962
0.000995194
0.000991575
0.000988084
0.000984746
0.000981591
0.000978657
0.000975977
0.000973585
0.000971508
0.000969776
0.000968408
0.000967425
0.000966838
0.000966653
0.00096687
0.000967478
0.000968461
0.000969788
0.00097142
0.000973301
0.000975365
0.000977528
0.000979693
0.000981746
0.000983556
0.000984978
0.000985854
0.000986013
0.000985273
0.000983445
0.000980331
0.00097572
0.000969376
0.000961032
0.000950382
0.000937167
0.000921806
0.000904864
0.000886673
0.000867431
0.000847312
0.000826492
0.00080514
0.000783418
0.000761469
0.000739406
0.000717253
0.00069498
0.000672938
0.000651403
0.00063139
0.000612923
0.000600663
0.000585894
0.00057908
0.00057301
0.00057648
0.000581846
0.000584557
0.000583611
0.000579424
0.000572738
0.000564257
0.000554565
0.000544118
0.000533253
0.000522218
0.000511185
0.000500262
0.000489518
0.000478966
0.000468709
0.000458791
0.000449213
0.000439961
0.000431009
0.000422317
0.000413836
0.000405509
0.000397268
0.000389042
0.000380748
0.000372292
0.000363564
0.000354429
0.000344678
0.000334072
0.000321736
0.00030752
1.33802e-05
7.90999e-05
0.000147591
0.000202971
0.000246196
0.000279319
0.000303965
0.000321212
0.00033277
0.000340686
0.000346861
0.000352847
0.000359607
0.000367403
0.000375989
0.000384952
0.000394047
0.000403407
0.000413636
0.000425826
0.00044059
0.00045838
0.000479395
0.000504115
0.000532421
0.000564228
0.000599113
0.000636336
0.000675424
0.000715641
0.000756042
0.000795988
0.000835046
0.000872909
0.000909371
0.000944297
0.000977616
0.0010093
0.00103937
0.00106784
0.00109479
0.00112026
0.00114434
0.00116709
0.00118859
0.00120891
0.00122811
0.00124627
0.00126345
0.00127969
0.00129505
0.00130958
0.00132332
0.00133631
0.00134858
0.00136016
0.00137109
0.00138138
0.00139107
0.00140015
0.00140866
0.00141661
0.001424
0.00143084
0.00143715
0.00144293
0.00144818
0.00145291
0.00145712
0.00146081
0.00146397
0.00146662
0.00146875
0.00147036
0.00147146
0.00147204
0.0014721
0.00147166
0.00147071
0.00146925
0.0014673
0.00146487
0.00146195
0.00145857
0.00145474
0.00145047
0.00144578
0.0014407
0.00143526
0.00142949
0.00142344
0.00141715
0.00141081
0.00140442
0.00139801
0.00139162
0.00138528
0.00137904
0.00137293
0.00136701
0.00136129
0.00135583
0.00135064
0.00134575
0.00134119
0.00133696
0.00133307
0.00132951
0.00132627
0.00132333
0.00132064
0.00131814
0.00131577
0.00131343
0.00131101
0.00130839
0.00130543
0.00130196
0.00129781
0.00129279
0.00128671
0.00127936
0.00127054
0.00126005
0.00124769
0.00123327
0.00121689
0.00119878
0.00117918
0.00115828
0.00113625
0.00111328
0.00108955
0.00106522
0.00104047
0.00101545
0.000990316
0.000965148
0.000940038
0.00091521
0.000890996
0.000867739
0.000845619
0.000825573
0.000806961
0.000791064
0.000777424
0.000767607
0.000760104
0.000753126
0.000745602
0.000737084
0.000727495
0.000716952
0.000705654
0.000693821
0.000681658
0.000669338
0.000656998
0.000644741
0.000632639
0.00062074
0.000609058
0.000597664
0.000586581
0.000575804
0.000565313
0.000555073
0.000545035
0.000535138
0.000525307
0.000515456
0.000505485
0.000495282
0.000484712
0.000473616
0.000461763
0.000448859
0.000434125
0.000417096
1.80281e-05
0.000102003
0.000184488
0.000248827
0.000297407
0.000333266
0.000358882
0.000376254
0.000387849
0.000395958
0.000402602
0.00040935
0.000417182
0.000426511
0.000437381
0.000449741
0.000463672
0.000479503
0.000497789
0.000519163
0.000544101
0.000572868
0.000605508
0.000641895
0.000681685
0.000724391
0.000769409
0.000816051
0.000863623
0.000911429
0.000958844
0.0010054
0.00105075
0.00109468
0.00113702
0.00117769
0.00121663
0.00125384
0.00128932
0.00132313
0.0013553
0.00138589
0.00141497
0.00144261
0.00146886
0.0014938
0.00151749
0.00154
0.00156137
0.00158167
0.00160094
0.00161924
0.0016366
0.00165306
0.00166867
0.00168345
0.00169743
0.00171065
0.00172311
0.00173484
0.00174587
0.00175619
0.00176583
0.00177479
0.00178309
0.00179072
0.00179768
0.00180399
0.00180964
0.00181464
0.00181897
0.00182264
0.00182565
0.00182798
0.00182965
0.00183065
0.00183098
0.00183063
0.0018296
0.0018279
0.00182553
0.00182249
0.00181879
0.00181445
0.00180946
0.00180385
0.00179764
0.00179084
0.00178349
0.00177562
0.00176727
0.00175845
0.00174933
0.00173991
0.00173023
0.00172032
0.00171024
0.00170002
0.00168971
0.00167935
0.00166898
0.00165865
0.0016484
0.00163826
0.00162827
0.00161846
0.00160886
0.00159949
0.00159035
0.00158145
0.00157278
0.00156431
0.001556
0.0015478
0.00153963
0.0015314
0.00152301
0.00151431
0.00150517
0.00149542
0.00148489
0.00147341
0.00146078
0.00144683
0.00143141
0.00141449
0.00139617
0.00137651
0.00135562
0.00133362
0.00131063
0.00128681
0.00126232
0.0012373
0.00121193
0.00118633
0.00116066
0.00113502
0.0011095
0.00108425
0.00105946
0.00103531
0.00101199
0.000989797
0.000968863
0.000949515
0.000931884
0.000916279
0.000902404
0.000889668
0.00087749
0.000865444
0.000853274
0.000840866
0.000828206
0.000815341
0.000802343
0.000789295
0.000776274
0.000763346
0.000750565
0.000737973
0.000725595
0.00071344
0.000701553
0.000689932
0.000678564
0.000667422
0.000656463
0.000645632
0.000634857
0.000624054
0.000613124
0.000601951
0.000590401
0.000578312
0.000565468
0.000551591
0.000536083
0.000518677
2.27615e-05
0.000119944
0.000214677
0.000287575
0.000341688
0.000380954
0.000408343
0.000427004
0.000439693
0.000448873
0.000456657
0.000464684
0.000474062
0.000485429
0.000499122
0.000515368
0.000534437
0.000556687
0.000582515
0.000612247
0.000646033
0.000683812
0.000725322
0.000770149
0.000817763
0.000867562
0.000918917
0.000971195
0.00102379
0.00107617
0.00112787
0.00117855
0.00122793
0.00127585
0.00132218
0.00136683
0.00140979
0.00145102
0.00149054
0.00152838
0.00156458
0.00159918
0.00163223
0.00166378
0.0016939
0.00172264
0.00175005
0.00177619
0.0018011
0.00182485
0.00184748
0.00186903
0.00188954
0.00190905
0.0019276
0.00194521
0.00196193
0.00197776
0.00199274
0.00200688
0.0020202
0.00203272
0.00204444
0.00205538
0.00206553
0.00207491
0.00208352
0.00209136
0.00209842
0.0021047
0.0021102
0.00211492
0.00211884
0.00212197
0.00212429
0.00212581
0.00212651
0.00212638
0.00212543
0.00212366
0.00212105
0.00211761
0.00211333
0.00210824
0.00210232
0.0020956
0.00208808
0.00207977
0.00207071
0.0020609
0.00205038
0.00203918
0.00202736
0.00201497
0.00200206
0.00198865
0.0019748
0.00196053
0.0019459
0.00193096
0.00191575
0.00190031
0.00188471
0.00186898
0.00185318
0.00183735
0.00182155
0.00180581
0.00179017
0.00177468
0.00175936
0.00174423
0.00172929
0.00171453
0.00169992
0.00168544
0.00167102
0.00165658
0.00164202
0.00162723
0.00161206
0.00159639
0.00158005
0.00156288
0.00154487
0.00152598
0.00150619
0.00148552
0.00146398
0.00144166
0.00141865
0.00139504
0.00137095
0.0013465
0.00132183
0.00129705
0.00127226
0.00124757
0.00122305
0.00119877
0.00117485
0.00115139
0.00112852
0.00110641
0.00108518
0.00106499
0.00104598
0.00102823
0.0010117
0.000996226
0.000981545
0.000967398
0.000953573
0.000939924
0.000926363
0.000912855
0.000899395
0.000886001
0.000872699
0.000859519
0.00084649
0.000833636
0.000820977
0.000808519
0.000796282
0.000784266
0.000772463
0.000760851
0.000749396
0.00073805
0.000726753
0.000715429
0.000703987
0.000692321
0.000680307
0.0006678
0.000654613
0.000640512
0.00062507
0.000608226
2.69184e-05
0.000134939
0.000239856
0.000320341
0.000379825
0.000422613
0.000452821
0.000473843
0.000488615
0.000499712
0.000509327
0.000519212
0.000530654
0.000544523
0.000561394
0.000581672
0.000605681
0.000633686
0.000665862
0.000702238
0.000742671
0.000786844
0.000834308
0.000884528
0.000936924
0.000990908
0.00104591
0.00110138
0.00115685
0.0012119
0.00126616
0.00131938
0.00137135
0.00142191
0.00147096
0.00151843
0.00156429
0.00160851
0.0016511
0.00169207
0.00173143
0.00176923
0.0018055
0.00184028
0.00187362
0.00190555
0.00193612
0.00196539
0.00199339
0.00202016
0.00204576
0.00207021
0.00209356
0.00211584
0.00213708
0.00215731
0.00217656
0.00219485
0.00221221
0.00222865
0.00224418
0.00225882
0.00227258
0.00228547
0.00229749
0.00230864
0.00231892
0.00232833
0.00233688
0.00234454
0.00235132
0.0023572
0.00236219
0.00236626
0.00236941
0.00237162
0.0023729
0.00237322
0.00237257
0.00237096
0.00236836
0.00236477
0.0023602
0.00235462
0.00234805
0.00234049
0.00233193
0.00232239
0.00231187
0.00230039
0.00228795
0.00227459
0.00226032
0.00224521
0.00222927
0.00221257
0.00219513
0.00217699
0.00215821
0.00213882
0.00211887
0.00209841
0.00207751
0.00205621
0.00203458
0.00201268
0.00199057
0.00196832
0.001946
0.00192368
0.00190143
0.00187931
0.00185737
0.00183565
0.00181419
0.00179301
0.00177212
0.0017515
0.00173111
0.00171091
0.00169078
0.00167068
0.00165043
0.0016301
0.00160955
0.0015887
0.00156752
0.00154597
0.00152405
0.00150177
0.00147919
0.00145634
0.00143331
0.00141016
0.00138698
0.00136384
0.00134081
0.00131795
0.0012953
0.0012729
0.00125079
0.00122902
0.00120769
0.00118688
0.00116667
0.00114715
0.00112842
0.0011105
0.00109343
0.00107717
0.00106162
0.00104666
0.00103215
0.00101798
0.00100407
0.000990343
0.000976777
0.000963353
0.000950067
0.000936923
0.00092393
0.000911098
0.000898437
0.000885957
0.000873653
0.000861526
0.000849571
0.000837768
0.000826092
0.000814504
0.000802953
0.000791375
0.000779694
0.000767818
0.000755639
0.000743034
0.000729851
0.000715906
0.000700907
0.000684924
3.02966e-05
0.000146629
0.000259679
0.00034662
0.000410984
0.000457938
0.000491776
0.000516053
0.000533805
0.000547659
0.000559865
0.000572269
0.000586306
0.000603026
0.000623162
0.0006472
0.000675439
0.000708017
0.000744907
0.000785925
0.000830735
0.000878888
0.000929863
0.000983104
0.00103806
0.00109419
0.00115102
0.00120808
0.00126499
0.00132142
0.00137709
0.00143177
0.0014853
0.00153755
0.00158842
0.00163785
0.0016858
0.00173223
0.00177714
0.00182052
0.00186239
0.00190277
0.00194167
0.00197912
0.00201516
0.00204981
0.00208312
0.00211512
0.00214583
0.00217531
0.00220358
0.00223067
0.00225663
0.00228147
0.00230523
0.00232793
0.0023496
0.00237026
0.00238992
0.0024086
0.00242632
0.00244308
0.0024589
0.00247377
0.0024877
0.00250069
0.00251273
0.00252383
0.00253397
0.00254315
0.00255136
0.00255859
0.00256481
0.00257002
0.00257421
0.00257735
0.00257944
0.00258045
0.00258037
0.00257918
0.00257688
0.00257344
0.00256885
0.0025631
0.00255619
0.00254809
0.00253881
0.00252835
0.0025167
0.00250386
0.00248984
0.00247465
0.00245827
0.00244076
0.00242215
0.00240249
0.0023818
0.00236012
0.0023375
0.00231397
0.00228959
0.0022644
0.00223847
0.00221185
0.00218461
0.00215683
0.00212857
0.00209993
0.00207099
0.00204187
0.00201266
0.00198347
0.0019544
0.00192553
0.00189696
0.0018688
0.00184113
0.00181397
0.00178736
0.00176138
0.00173588
0.00171107
0.0016868
0.00166302
0.00163965
0.00161663
0.00159389
0.00157137
0.00154906
0.00152691
0.00150493
0.00148312
0.00146148
0.00144004
0.00141881
0.00139782
0.00137709
0.00135663
0.00133643
0.0013165
0.00129683
0.00127743
0.00125834
0.00123959
0.00122125
0.00120334
0.00118592
0.00116901
0.00115265
0.00113685
0.00112158
0.00110679
0.00109242
0.00107839
0.00106464
0.00105112
0.00103779
0.00102463
0.00101161
0.000998727
0.000985983
0.000973376
0.000960911
0.000948595
0.000936412
0.000924362
0.000912439
0.000900631
0.000888915
0.000877262
0.00086563
0.00085397
0.000842218
0.000830298
0.000818123
0.000805592
0.000792585
0.000778966
0.000764537
0.000749433
3.27082e-05
0.000154619
0.000273575
0.000365901
0.000435177
0.000486601
0.000524591
0.000552785
0.000574244
0.000591593
0.000607083
0.000622596
0.000639646
0.000659379
0.000682604
0.000709836
0.000741334
0.000777137
0.000817097
0.000860912
0.000908166
0.000958367
0.00101099
0.00106553
0.00112146
0.00117832
0.00123571
0.00129323
0.00135058
0.00140747
0.00146367
0.00151901
0.00157334
0.00162654
0.00167852
0.00172921
0.00177857
0.00182657
0.00187318
0.00191839
0.0019622
0.00200462
0.00204564
0.0020853
0.0021236
0.00216056
0.00219622
0.00223059
0.00226371
0.0022956
0.00232628
0.00235579
0.00238415
0.00241138
0.00243752
0.00246257
0.00248656
0.0025095
0.00253142
0.00255231
0.00257221
0.0025911
0.00260899
0.0026259
0.00264181
0.00265672
0.00267063
0.00268353
0.00269541
0.00270625
0.00271605
0.00272479
0.00273245
0.00273901
0.00274445
0.00274875
0.00275188
0.00275384
0.00275459
0.00275411
0.00275238
0.00274937
0.00274508
0.00273947
0.00273252
0.00272423
0.00271457
0.00270353
0.00269109
0.00267726
0.00266201
0.00264536
0.00262726
0.00260775
0.00258688
0.00256466
0.00254114
0.00251634
0.00249031
0.00246307
0.00243467
0.00240517
0.00237461
0.00234307
0.0023106
0.00227729
0.00224322
0.00220849
0.00217321
0.00213749
0.0021015
0.00206537
0.00202925
0.00199325
0.0019575
0.00192224
0.00188763
0.0018537
0.00182056
0.00178857
0.00175763
0.00172781
0.0016991
0.00167149
0.00164493
0.00161938
0.00159479
0.00157109
0.00154823
0.00152613
0.00150475
0.00148403
0.00146392
0.00144437
0.00142535
0.00140681
0.00138871
0.001371
0.00135363
0.00133656
0.00131974
0.00130315
0.00128677
0.00127061
0.00125467
0.00123898
0.00122354
0.00120838
0.00119352
0.00117897
0.00116476
0.00115086
0.00113726
0.00112392
0.00111079
0.00109786
0.00108508
0.00107244
0.00105991
0.0010475
0.00103518
0.00102296
0.00101085
0.000998834
0.000986906
0.000975063
0.000963304
0.000951618
0.000939988
0.000928393
0.000916799
0.000905169
0.000893454
0.000881594
0.00086952
0.000857153
0.000844402
0.000831166
0.000817315
0.000803006
3.3998e-05
0.000158884
0.000282042
0.000378906
0.000452689
0.000508548
0.000550912
0.00058341
0.00060906
0.000630425
0.000649699
0.00066873
0.000689026
0.000711754
0.000737743
0.00076751
0.000801292
0.00083909
0.000880714
0.000925833
0.000974026
0.00102482
0.00107773
0.00113229
0.00118806
0.00124463
0.00130165
0.00135879
0.00141579
0.00147242
0.00152847
0.00158381
0.00163828
0.00169179
0.00174426
0.00179562
0.00184581
0.0018948
0.00194255
0.00198905
0.00203428
0.00207824
0.00212092
0.00216232
0.00220246
0.00224135
0.00227899
0.0023154
0.00235061
0.00238462
0.00241747
0.00244916
0.00247972
0.00250917
0.00253752
0.00256479
0.002591
0.00261615
0.00264026
0.00266334
0.00268539
0.00270641
0.00272641
0.00274539
0.00276333
0.00278024
0.00279611
0.00281092
0.00282465
0.0028373
0.00284885
0.00285927
0.00286853
0.00287663
0.00288353
0.0028892
0.00289362
0.00289676
0.00289859
0.00289908
0.0028982
0.00289592
0.00289221
0.00288704
0.00288038
0.00287221
0.0028625
0.00285123
0.00283837
0.0028239
0.00280781
0.00279009
0.00277066
0.00274958
0.00272687
0.00270256
0.00267666
0.0026492
0.00262022
0.00258975
0.00255783
0.00252449
0.0024898
0.00245382
0.00241661
0.00237825
0.00233883
0.00229845
0.00225722
0.00221528
0.00217285
0.0021301
0.00208719
0.00204428
0.00200147
0.00195917
0.00191768
0.00187709
0.00183761
0.00179946
0.00176275
0.00172762
0.00169412
0.00166232
0.00163222
0.00160382
0.00157706
0.0015519
0.00152826
0.00150603
0.00148513
0.00146545
0.00144686
0.00142926
0.00141254
0.00139658
0.00138127
0.00136651
0.0013522
0.00133823
0.00132453
0.00131102
0.00129765
0.00128439
0.00127122
0.00125813
0.00124511
0.00123216
0.0012193
0.00120654
0.00119391
0.00118142
0.00116906
0.00115683
0.00114471
0.00113268
0.00112074
0.00110886
0.00109704
0.00108526
0.00107353
0.00106185
0.00105021
0.00103861
0.00102705
0.00101552
0.00100402
0.000992554
0.000981105
0.000969657
0.000958189
0.000946671
0.000935067
0.000923334
0.00091142
0.000899266
0.000886803
0.00087396
0.000860649
0.000847025
3.41419e-05
0.000160231
0.000285971
0.000386271
0.000463944
0.000523969
0.000570674
0.000607594
0.000637649
0.000663289
0.000686595
0.000709324
0.000732916
0.000758497
0.000786879
0.000818573
0.00085382
0.00089263
0.000934833
0.00098013
0.00102814
0.00107845
0.00113064
0.00118429
0.00123903
0.00129451
0.00135042
0.0014065
0.0014625
0.00151823
0.00157353
0.00162825
0.00168229
0.00173553
0.00178791
0.00183936
0.00188982
0.00193925
0.0019876
0.00203487
0.00208101
0.00212602
0.00216988
0.00221259
0.00225414
0.00229454
0.00233379
0.00237189
0.00240887
0.00244471
0.00247944
0.00251307
0.00254562
0.00257708
0.00260748
0.00263682
0.00266512
0.00269238
0.0027186
0.0027438
0.00276797
0.00279111
0.00281321
0.00283428
0.0028543
0.00287327
0.00289116
0.00290797
0.00292367
0.00293824
0.00295166
0.0029639
0.00297495
0.00298476
0.0029933
0.00300055
0.00300646
0.00301101
0.00301416
0.00301586
0.00301609
0.0030148
0.00301195
0.00300751
0.00300145
0.00299372
0.00298428
0.00297311
0.00296017
0.00294543
0.00292887
0.00291044
0.00289009
0.00286786
0.00284375
0.00281779
0.00278999
0.00276035
0.00272892
0.00269571
0.00266077
0.00262413
0.00258584
0.00254595
0.00250453
0.00246166
0.00241744
0.00237196
0.00232532
0.00227761
0.00222922
0.00218032
0.00213107
0.00208168
0.00203239
0.00198353
0.00193542
0.0018883
0.00184244
0.00179812
0.00175556
0.00171497
0.00167651
0.0016403
0.00160641
0.00157489
0.00154572
0.00151886
0.00149422
0.00147168
0.0014511
0.00143232
0.00141517
0.00139947
0.00138502
0.00137165
0.00135918
0.00134744
0.00133627
0.00132551
0.00131505
0.00130476
0.00129457
0.0012844
0.0012742
0.00126394
0.00125359
0.00124315
0.0012326
0.00122198
0.00121129
0.00120055
0.00118978
0.00117898
0.00116816
0.00115731
0.00114644
0.00113553
0.0011246
0.00111363
0.00110263
0.0010916
0.00108055
0.00106947
0.00105837
0.00104724
0.00103609
0.00102492
0.00101373
0.00100251
0.000991231
0.000979888
0.000968453
0.000956897
0.000945183
0.000933269
0.000921107
0.000908644
0.000895825
0.000882789
3.35118e-05
0.000159113
0.000285924
0.000388591
0.000469464
0.000533235
0.000584042
0.000625269
0.000659687
0.000689599
0.000716942
0.000743336
0.000770117
0.000798331
0.00082875
0.000861874
0.000897962
0.000937062
0.000979059
0.00102372
0.00107073
0.00111976
0.00117045
0.00122246
0.00127547
0.00132919
0.00138337
0.00143775
0.00149215
0.0015464
0.00160035
0.00165388
0.00170689
0.00175928
0.001811