/*--------------------------------*- C++ -*----------------------------------*\
  =========                 |
  \\      /  F ield         | OpenFOAM: The Open Source CFD Toolbox
   \\    /   O peration     | Website:  https://openfoam.org
    \\  /    A nd           | Version:  7
     \\/     M anipulation  |
\*---------------------------------------------------------------------------*/
FoamFile
{
    version     2.0;
    format      ascii;
    class       volScalarField;
    location    "0.08";
    object      p;
}
// * * * * * * * * * * * * * * * * * * * * * * * * * * * * * * * * * * * * * //

dimensions      [0 2 -2 0 0 0 0];

internalField   nonuniform List<scalar> 
12225
(
-2.41545
-1.81896
-1.75365
-1.80289
-1.73671
-1.63314
-1.55566
-1.50289
-1.46079
-1.42529
-1.39681
-1.37477
-1.35761
-1.34398
-1.33305
-1.32355
-1.31664
-1.30245
-3.76831
-2.53144
-1.99956
-1.85851
-1.74318
-1.62732
-1.54617
-1.49259
-1.45097
-1.41636
-1.38877
-1.36749
-1.35098
-1.33793
-1.32754
-1.31878
-1.31221
-1.30485
-3.52528
-2.34318
-1.8863
-1.79621
-1.71124
-1.60972
-1.53394
-1.48265
-1.44266
-1.40944
-1.38293
-1.36245
-1.34657
-1.33407
-1.32421
-1.31619
-1.3106
-1.30659
-3.08033
-2.23281
-1.86476
-1.78034
-1.69736
-1.59976
-1.52578
-1.47526
-1.43615
-1.40392
-1.37825
-1.35842
-1.34308
-1.33109
-1.32177
-1.31456
-1.30967
-1.30762
-2.78571
-2.20935
-1.87522
-1.76895
-1.6816
-1.58787
-1.51615
-1.4665
-1.42833
-1.39719
-1.37247
-1.35342
-1.33876
-1.32744
-1.31878
-1.31239
-1.30811
-1.30686
-2.57917
-2.17378
-1.86674
-1.74712
-1.66087
-1.5733
-1.50473
-1.45636
-1.41937
-1.3895
-1.36589
-1.34775
-1.33388
-1.32331
-1.3154
-1.30978
-1.3061
-1.30525
-2.40195
-2.11154
-1.84227
-1.71994
-1.63716
-1.55623
-1.49129
-1.44464
-1.40915
-1.38075
-1.35841
-1.34132
-1.32838
-1.31866
-1.31156
-1.30672
-1.30368
-1.30318
-2.2418
-2.03566
-1.80894
-1.68934
-1.61029
-1.53602
-1.47526
-1.43084
-1.39718
-1.37052
-1.34966
-1.33381
-1.32194
-1.31322
-1.30703
-1.30301
-1.30067
-1.30061
-2.09745
-1.95315
-1.76746
-1.6543
-1.57951
-1.51209
-1.45612
-1.41448
-1.38303
-1.35839
-1.33926
-1.32486
-1.31426
-1.30668
-1.30152
-1.29843
-1.2969
-1.29741
-1.96632
-1.86603
-1.71731
-1.61393
-1.54441
-1.48405
-1.43343
-1.39513
-1.36631
-1.34399
-1.32688
-1.31417
-1.30504
-1.29877
-1.29479
-1.29274
-1.29214
-1.29339
-1.84501
-1.77553
-1.65892
-1.56784
-1.50472
-1.45157
-1.40678
-1.37242
-1.34665
-1.327
-1.31219
-1.30144
-1.29401
-1.28924
-1.2866
-1.28575
-1.28622
-1.28839
-1.73998
-1.69015
-1.59854
-1.52011
-1.46384
-1.41745
-1.37842
-1.3482
-1.32566
-1.30878
-1.29637
-1.28767
-1.28202
-1.27881
-1.27758
-1.27797
-1.27956
-1.28273
-1.64015
-1.60415
-1.53373
-1.46812
-1.41921
-1.37968
-1.34667
-1.32099
-1.30202
-1.28821
-1.27845
-1.27202
-1.26834
-1.26688
-1.26719
-1.26896
-1.27181
-1.27607
-1.52936
-1.50456
-1.45386
-1.40261
-1.36282
-1.33134
-1.30553
-1.28556
-1.27117
-1.26127
-1.2549
-1.2514
-1.25026
-1.25103
-1.25333
-1.25686
-1.26132
-1.26697
-1.40552
-1.38969
-1.3564
-1.32046
-1.29167
-1.26961
-1.25228
-1.23941
-1.23086
-1.22595
-1.22391
-1.22417
-1.22631
-1.22996
-1.23481
-1.24062
-1.24713
-1.25457
-1.26526
-1.25661
-1.23835
-1.21806
-1.20208
-1.19103
-1.18366
-1.17946
-1.1783
-1.17973
-1.18322
-1.1883
-1.19466
-1.20202
-1.21015
-1.21888
-1.22801
-1.23774
-1.10295
-1.1003
-1.0953
-1.09086
-1.0895
-1.09141
-1.09579
-1.10214
-1.11019
-1.11965
-1.13015
-1.14139
-1.15314
-1.16525
-1.17757
-1.19002
-1.20246
-1.2151
-0.908868
-0.911908
-0.919814
-0.932255
-0.947851
-0.965354
-0.983969
-1.00324
-1.02282
-1.04243
-1.06183
-1.08087
-1.09949
-1.11763
-1.13527
-1.15241
-1.16902
-1.18531
-0.665027
-0.675332
-0.699054
-0.732332
-0.769217
-0.806376
-0.842879
-0.878408
-0.91255
-0.94497
-0.975576
-1.00443
-1.03165
-1.05734
-1.0816
-1.10457
-1.12633
-1.14716
-0.406709
-0.42659
-0.471016
-0.530124
-0.591572
-0.650217
-0.705821
-0.758469
-0.807607
-0.852918
-0.894596
-0.933018
-0.968517
-1.00138
-1.03187
-1.06026
-1.08675
-1.11172
-0.172865
-0.204196
-0.273578
-0.361289
-0.446917
-0.525191
-0.597971
-0.665742
-0.727635
-0.783517
-0.834073
-0.88005
-0.92199
-0.960343
-0.995543
-1.02799
-1.05801
-1.08605
0.066305
0.0174201
-0.0873584
-0.210079
-0.32071
-0.417875
-0.507358
-0.589484
-0.662814
-0.727788
-0.785859
-0.838148
-0.885377
-0.92817
-0.967131
-1.0028
-1.03558
-1.06601
0.316299
0.239525
0.084884
-0.0783586
-0.212665
-0.3275
-0.433269
-0.528641
-0.611723
-0.684214
-0.748487
-0.805925
-0.857376
-0.903656
-0.945547
-0.983704
-1.01861
-1.05087
0.58355
0.460774
0.237083
0.0318448
-0.121344
-0.252638
-0.374586
-0.48172
-0.572564
-0.650994
-0.720259
-0.781777
-0.836485
-0.885416
-0.929523
-0.969554
-1.00606
-1.03966
0.876557
0.680229
0.361512
0.117968
-0.0454083
-0.191461
-0.329282
-0.446424
-0.543131
-0.62615
-0.699368
-0.764042
-0.821198
-0.8721
-0.917849
-0.95926
-0.996934
-1.03152
1.20021
0.903564
0.461031
0.182619
0.0153599
-0.1437
-0.295519
-0.420327
-0.521311
-0.607925
-0.684258
-0.751335
-0.810313
-0.862675
-0.909632
-0.952042
-0.990556
-1.02582
1.53481
1.11387
0.550827
0.246361
0.0678602
-0.108749
-0.272264
-0.401877
-0.505774
-0.595254
-0.67404
-0.742926
-0.803262
-0.856722
-0.904588
-0.94774
-0.986882
-1.02266
1.87176
1.18482
0.588831
0.327504
0.134982
-0.0737206
-0.252398
-0.386874
-0.493746
-0.586102
-0.667105
-0.737442
-0.798763
-0.852967
-0.901409
-0.944988
-0.984478
-1.02056
2.50462
0.965535
0.322502
0.229104
0.109973
-0.0877992
-0.26373
-0.393626
-0.497914
-0.589706
-0.670719
-0.741013
-0.80222
-0.856291
-0.904562
-0.947877
-0.986984
-1.02283
4.90681
1.98103
0.689599
0.414021
0.209544
-0.0405088
-0.241293
-0.381355
-0.490537
-0.585474
-0.668669
-0.740478
-0.802799
-0.857757
-0.906748
-0.950581
-0.989815
-1.02453
-1.685
-1.68006
-1.67755
-1.67863
-1.68203
-1.68644
-1.69085
-1.69446
-1.69692
-1.69838
-1.69925
-1.69988
-1.70066
-1.70203
-1.70436
-1.708
-1.71326
-1.7205
-1.73033
-1.74311
-1.75881
-1.77877
-1.79687
-1.81001
-1.84437
-1.89508
-1.93171
-1.95107
-1.97466
-2.01508
-2.05923
-2.10508
-2.15176
-2.19818
-2.24352
-2.28713
-2.32856
-2.36749
-2.4038
-2.43742
-2.46842
-2.49688
-2.52296
-2.54681
-2.56862
-2.58854
-2.60676
-2.62342
-2.63869
-2.65269
-2.66556
-2.67739
-2.6883
-2.69837
-2.70768
-2.7163
-2.7243
-2.73171
-2.73859
-2.74498
-2.75089
-2.75637
-2.76141
-2.76604
-2.77025
-2.77404
-2.7774
-2.78032
-2.78276
-2.78471
-2.78611
-2.78693
-2.78711
-2.78657
-2.78526
-2.78307
-2.77992
-2.77569
-2.77026
-2.7635
-2.75526
-2.74536
-2.73364
-2.71988
-2.70388
-2.68541
-2.66424
-2.64011
-2.6128
-2.58198
-2.54714
-2.50773
-2.46328
-2.4135
-2.35795
-2.29619
-2.22771
-2.15198
-2.06846
-1.9766
-1.87583
-1.76559
-1.64535
-1.51458
-1.3728
-1.2196
-1.05462
-0.877605
-0.688432
-0.48711
-0.273824
-0.0489581
0.186877
0.432821
0.687747
0.950247
1.21864
1.49096
1.76503
2.03845
2.30869
2.57317
2.8293
3.07459
3.30676
3.52382
3.72436
3.90778
4.07328
4.22001
4.348
4.45772
4.54997
4.62579
4.68643
4.73315
4.76747
4.7903
4.803
4.80638
4.80037
4.7921
4.77846
4.74642
4.74428
4.73941
4.68276
4.65425
4.65493
4.64361
4.62658
4.60817
4.58969
4.57172
4.55461
4.53859
4.52379
4.51027
4.49789
4.48695
4.4773
4.4688
4.46155
4.45559
4.45091
4.44748
4.4453
4.44438
4.44474
4.44647
4.44968
4.45459
4.46151
4.47096
4.48373
4.50106
4.52533
4.55961
4.61408
4.68533
-1.6911
-1.68817
-1.68716
-1.68936
-1.69324
-1.69714
-1.70012
-1.70168
-1.70148
-1.69938
-1.6958
-1.69166
-1.68799
-1.68559
-1.68487
-1.68583
-1.68829
-1.69209
-1.69736
-1.70424
-1.71346
-1.72484
-1.73775
-1.76438
-1.79306
-1.81394
-1.83691
-1.87912
-1.93686
-1.99107
-2.04307
-2.09443
-2.14477
-2.19346
-2.24002
-2.28406
-2.32534
-2.36376
-2.39931
-2.43207
-2.46216
-2.48974
-2.51499
-2.53809
-2.55921
-2.57853
-2.59622
-2.61242
-2.62729
-2.64094
-2.6535
-2.66506
-2.67574
-2.6856
-2.69473
-2.7032
-2.71105
-2.71835
-2.72514
-2.73146
-2.73733
-2.74277
-2.74782
-2.75247
-2.75673
-2.76061
-2.76408
-2.76715
-2.76978
-2.77195
-2.77362
-2.77475
-2.77528
-2.77517
-2.77432
-2.77267
-2.77011
-2.76655
-2.76186
-2.75592
-2.74857
-2.73965
-2.72898
-2.71636
-2.70156
-2.68433
-2.6644
-2.64147
-2.61517
-2.58513
-2.55109
-2.51278
-2.46985
-2.42181
-2.36816
-2.30844
-2.24212
-2.16871
-2.08764
-1.99839
-1.90038
-1.79306
-1.67589
-1.54836
-1.40998
-1.26032
-1.09902
-0.925815
-0.740556
-0.543225
-0.333971
-0.113137
0.118718
0.360794
0.612028
0.871087
1.13636
1.40598
1.67783
1.94959
2.2188
2.48293
2.73946
2.98597
3.2202
3.4402
3.64431
3.83101
3.99947
4.14951
4.28114
4.39474
4.49101
4.57089
4.63553
4.68617
4.72407
4.75147
4.76906
4.78009
4.78487
4.77811
4.76672
4.76568
4.73968
4.7084
4.70843
4.69098
4.65815
4.63389
4.61277
4.5931
4.57454
4.557
4.54052
4.52518
4.51102
4.49806
4.48651
4.47611
4.46702
4.45943
4.45314
4.44783
4.44364
4.44062
4.43878
4.43814
4.43876
4.44072
4.44415
4.44925
4.45633
4.46586
4.47858
4.49559
4.51898
4.55085
4.59936
4.65851
-1.69736
-1.69692
-1.69759
-1.70027
-1.70369
-1.70656
-1.70825
-1.70846
-1.70704
-1.7041
-1.70002
-1.69538
-1.6909
-1.68718
-1.68469
-1.6837
-1.68443
-1.68717
-1.6925
-1.70084
-1.71263
-1.72891
-1.74978
-1.77716
-1.81022
-1.84275
-1.87714
-1.91748
-1.96457
-2.01321
-2.0618
-2.10975
-2.15646
-2.20145
-2.24439
-2.28507
-2.32335
-2.35918
-2.39255
-2.42351
-2.45215
-2.47859
-2.50294
-2.52534
-2.54593
-2.56485
-2.58223
-2.59821
-2.61291
-2.62644
-2.63891
-2.65041
-2.66104
-2.67088
-2.68
-2.68846
-2.69633
-2.70365
-2.71047
-2.71683
-2.72276
-2.72829
-2.73343
-2.73819
-2.7426
-2.74663
-2.7503
-2.75358
-2.75646
-2.75891
-2.7609
-2.76238
-2.76332
-2.76364
-2.76328
-2.76215
-2.76018
-2.75725
-2.75324
-2.74804
-2.7415
-2.73345
-2.72372
-2.71211
-2.69841
-2.68238
-2.66375
-2.64223
-2.61749
-2.58916
-2.55693
-2.5205
-2.47953
-2.43357
-2.38214
-2.32478
-2.26099
-2.19024
-2.11201
-2.02575
-1.93089
-1.8269
-1.71322
-1.58933
-1.45475
-1.30904
-1.15182
-0.982812
-0.801833
-0.608837
-0.403934
-0.187419
0.0402041
0.278196
0.525564
0.781047
1.04311
1.30996
1.57955
1.84963
2.11779
2.38154
2.63838
2.88589
3.12179
3.34406
3.55095
3.74112
3.91369
4.06817
4.20446
4.32284
4.42391
4.50856
4.57787
4.63307
4.67552
4.70715
4.72872
4.74216
4.74815
4.74592
4.73992
4.73583
4.71769
4.69495
4.68848
4.67298
4.64692
4.62497
4.60527
4.58662
4.56887
4.5521
4.53637
4.52174
4.50829
4.49603
4.48504
4.47525
4.46663
4.45908
4.45246
4.4471
4.44294
4.43993
4.43808
4.43741
4.43796
4.43982
4.4431
4.448
4.45482
4.46397
4.47614
4.49221
4.51384
4.54219
4.5821
4.62245
-1.69631
-1.69913
-1.7018
-1.70495
-1.70791
-1.71001
-1.71088
-1.71038
-1.70848
-1.70535
-1.70134
-1.69697
-1.69281
-1.6894
-1.68724
-1.68679
-1.68851
-1.69293
-1.7007
-1.71239
-1.72837
-1.74902
-1.77461
-1.80494
-1.83949
-1.87638
-1.91525
-1.95633
-1.99953
-2.04376
-2.08806
-2.13179
-2.17445
-2.21565
-2.2551
-2.29261
-2.32806
-2.36138
-2.39257
-2.42165
-2.44868
-2.47375
-2.49694
-2.51837
-2.53815
-2.5564
-2.57323
-2.58875
-2.60307
-2.61629
-2.62851
-2.63981
-2.65027
-2.65998
-2.669
-2.6774
-2.68523
-2.69253
-2.69936
-2.70576
-2.71174
-2.71734
-2.72258
-2.72748
-2.73203
-2.73625
-2.74013
-2.74365
-2.74681
-2.74957
-2.75191
-2.75379
-2.75516
-2.75595
-2.75611
-2.75556
-2.75421
-2.75196
-2.74869
-2.74429
-2.7386
-2.73146
-2.72272
-2.71216
-2.69958
-2.68473
-2.66738
-2.64723
-2.62398
-2.59731
-2.56689
-2.53238
-2.4934
-2.44955
-2.40036
-2.34536
-2.28406
-2.21594
-2.14047
-2.05709
-1.96525
-1.86438
-1.75395
-1.6334
-1.50225
-1.36003
-1.20635
-1.0409
-0.863456
-0.673939
-0.472414
-0.259126
-0.0345245
0.200706
0.445629
0.69904
0.959457
1.22512
1.49402
1.76393
2.03243
2.29701
2.55515
2.80434
3.04225
3.26679
3.47632
3.66952
3.84536
4.00324
4.14299
4.26485
4.3694
4.45748
4.53018
4.58874
4.63451
4.66912
4.6935
4.70923
4.71749
4.71884
4.71571
4.7102
4.69772
4.68142
4.67024
4.65583
4.63559
4.61577
4.59717
4.57935
4.56232
4.54617
4.531
4.51689
4.50389
4.49204
4.48134
4.47178
4.46331
4.4559
4.44969
4.44464
4.44067
4.43779
4.43601
4.43536
4.43589
4.43767
4.44081
4.44549
4.45197
4.46062
4.47197
4.4867
4.50594
4.52999
4.56095
4.58692
-1.682
-1.68876
-1.69396
-1.69847
-1.70199
-1.70429
-1.70529
-1.70499
-1.70348
-1.70103
-1.69802
-1.69496
-1.6924
-1.69092
-1.69107
-1.69337
-1.69834
-1.70652
-1.71838
-1.73429
-1.75444
-1.77881
-1.8072
-1.83923
-1.8743
-1.91162
-1.9507
-1.99115
-2.03246
-2.07396
-2.11512
-2.15551
-2.1948
-2.2327
-2.26903
-2.30364
-2.33644
-2.36737
-2.39643
-2.42364
-2.44904
-2.47269
-2.49468
-2.51508
-2.53399
-2.5515
-2.56771
-2.58272
-2.59661
-2.60949
-2.62142
-2.6325
-2.64279
-2.65237
-2.6613
-2.66963
-2.67743
-2.68474
-2.6916
-2.69805
-2.70412
-2.70983
-2.7152
-2.72026
-2.725
-2.72943
-2.73355
-2.73735
-2.74081
-2.74391
-2.74662
-2.74891
-2.75073
-2.75202
-2.75271
-2.75275
-2.75203
-2.75046
-2.74794
-2.74433
-2.7395
-2.73329
-2.72554
-2.71605
-2.70462
-2.69101
-2.67497
-2.65624
-2.63451
-2.60947
-2.58079
-2.54812
-2.51108
-2.46926
-2.42222
-2.36948
-2.31056
-2.24493
-2.17205
-2.09138
-2.00234
-1.90437
-1.7969
-1.67939
-1.55131
-1.41218
-1.26158
-1.09917
-0.924678
-0.737992
-0.539125
-0.328269
-0.10582
0.12759
0.371076
0.62348
0.883356
1.14897
1.41832
1.68916
1.95905
2.22543
2.48569
2.73725
2.97768
3.20492
3.41726
3.61326
3.79187
3.95248
4.09491
4.21939
4.3265
4.41708
4.49223
4.55318
4.60131
4.63808
4.66463
4.68239
4.69273
4.69639
4.69498
4.69008
4.68023
4.66721
4.65532
4.64138
4.62386
4.60575
4.58817
4.5712
4.5549
4.53941
4.52483
4.51126
4.49875
4.48733
4.47702
4.46781
4.45968
4.45263
4.44671
4.44187
4.43807
4.43531
4.43361
4.43299
4.43349
4.43517
4.43813
4.44253
4.44857
4.45654
4.46686
4.47996
4.49648
4.51606
4.5391
4.55466
-1.65644
-1.66613
-1.67518
-1.68219
-1.68716
-1.69047
-1.69235
-1.69301
-1.69271
-1.69181
-1.69075
-1.69006
-1.69032
-1.69208
-1.69587
-1.70221
-1.71154
-1.72423
-1.74056
-1.76065
-1.78446
-1.81177
-1.84225
-1.87544
-1.91079
-1.94772
-1.98576
-2.02451
-2.06352
-2.10237
-2.14068
-2.17813
-2.21447
-2.24953
-2.28314
-2.3152
-2.34565
-2.37445
-2.40159
-2.42708
-2.45097
-2.47329
-2.49413
-2.51353
-2.53159
-2.54837
-2.56397
-2.57847
-2.59194
-2.60446
-2.61612
-2.62698
-2.6371
-2.64656
-2.65542
-2.66372
-2.67152
-2.67886
-2.68578
-2.69232
-2.69851
-2.70436
-2.70991
-2.71517
-2.72014
-2.72483
-2.72924
-2.73335
-2.73717
-2.74066
-2.74379
-2.74654
-2.74885
-2.75069
-2.75197
-2.75264
-2.7526
-2.75177
-2.75004
-2.74729
-2.74338
-2.73815
-2.73146
-2.7231
-2.71287
-2.70056
-2.68591
-2.66865
-2.64849
-2.62512
-2.59821
-2.56739
-2.5323
-2.49253
-2.44765
-2.39717
-2.34061
-2.27744
-2.20713
-2.12911
-2.04282
-1.94766
-1.84307
-1.72847
-1.60333
-1.46714
-1.31943
-1.15984
-0.988056
-0.803916
-0.607383
-0.398595
-0.177892
0.0541503
0.296696
0.548631
0.808544
1.07472
1.34514
1.61756
1.88947
2.15825
2.42118
2.6756
2.91905
3.14941
3.36479
3.56372
3.74511
3.90835
4.05328
4.18011
4.28945
4.38215
4.45934
4.52226
4.57229
4.61084
4.63918
4.65867
4.67058
4.67586
4.6759
4.67196
4.66384
4.65279
4.64109
4.62769
4.61188
4.5952
4.57866
4.56255
4.54702
4.53222
4.51827
4.50527
4.49328
4.48235
4.47248
4.46367
4.45592
4.44922
4.44357
4.43895
4.43533
4.43271
4.4311
4.43051
4.43097
4.43253
4.43528
4.43933
4.44484
4.45203
4.46117
4.47248
4.48618
4.50147
4.51778
4.5254
-1.62484
-1.63764
-1.65043
-1.66014
-1.66692
-1.67165
-1.6749
-1.67704
-1.67848
-1.67968
-1.68113
-1.6834
-1.68703
-1.69255
-1.70043
-1.71106
-1.72474
-1.74168
-1.76195
-1.78549
-1.81212
-1.84154
-1.87337
-1.90716
-1.94244
-1.97873
-2.01562
-2.05275
-2.08978
-2.12641
-2.16236
-2.1974
-2.23135
-2.26407
-2.29545
-2.32541
-2.35389
-2.38088
-2.40638
-2.43039
-2.45296
-2.47412
-2.49392
-2.51244
-2.52972
-2.54585
-2.5609
-2.57493
-2.58802
-2.60023
-2.61164
-2.62232
-2.63232
-2.64169
-2.65051
-2.65881
-2.66664
-2.67405
-2.68107
-2.68774
-2.69409
-2.70013
-2.7059
-2.7114
-2.71664
-2.72164
-2.72638
-2.73086
-2.73508
-2.739
-2.74261
-2.74587
-2.74874
-2.75117
-2.7531
-2.75446
-2.75517
-2.75514
-2.75427
-2.75243
-2.7495
-2.74533
-2.73976
-2.7326
-2.72365
-2.7127
-2.69949
-2.68377
-2.66524
-2.6436
-2.6185
-2.5896
-2.55652
-2.51885
-2.47617
-2.42799
-2.37383
-2.31317
-2.24545
-2.1701
-2.08656
-1.99423
-1.8925
-1.78081
-1.65858
-1.52528
-1.38041
-1.22356
-1.0544
-0.872699
-0.678371
-0.471496
-0.252354
-0.0214624
0.220392
0.472141
0.732413
0.999503
1.27139
1.54579
1.82015
2.09171
2.35771
2.61542
2.86231
3.09609
3.31478
3.51682
3.70113
3.86707
4.01447
4.14359
4.25504
4.34972
4.42875
4.49344
4.54514
4.58527
4.61513
4.63606
4.64932
4.65599
4.65731
4.65439
4.64762
4.63797
4.62686
4.61413
4.59959
4.58416
4.56863
4.55338
4.53863
4.52455
4.51126
4.49886
4.48743
4.47701
4.46762
4.45924
4.45189
4.44554
4.44019
4.43582
4.43241
4.42995
4.42844
4.42789
4.42831
4.42974
4.43225
4.43591
4.44085
4.44718
4.45505
4.4645
4.47544
4.48675
4.4974
4.49882
-1.59384
-1.60892
-1.62466
-1.63668
-1.64519
-1.65145
-1.65625
-1.66011
-1.66353
-1.66703
-1.67116
-1.67645
-1.68343
-1.69256
-1.70421
-1.71865
-1.73605
-1.75646
-1.77981
-1.80594
-1.83458
-1.8654
-1.89802
-1.93204
-1.96705
-2.00266
-2.03852
-2.07432
-2.10979
-2.14469
-2.17881
-2.21199
-2.24407
-2.27497
-2.30458
-2.33286
-2.35978
-2.38532
-2.40949
-2.4323
-2.45379
-2.47398
-2.49294
-2.51072
-2.52737
-2.54296
-2.55755
-2.57121
-2.584
-2.59598
-2.60722
-2.61778
-2.6277
-2.63705
-2.64588
-2.65423
-2.66215
-2.66968
-2.67685
-2.68369
-2.69024
-2.69652
-2.70255
-2.70834
-2.7139
-2.71924
-2.72437
-2.72926
-2.73393
-2.73833
-2.74246
-2.74628
-2.74976
-2.75284
-2.75546
-2.75757
-2.75908
-2.75991
-2.75995
-2.75909
-2.75721
-2.75415
-2.74976
-2.74386
-2.73626
-2.72672
-2.71503
-2.7009
-2.68405
-2.66419
-2.64096
-2.61403
-2.58301
-2.5475
-2.50706
-2.46124
-2.40952
-2.35139
-2.2863
-2.21366
-2.1329
-2.04341
-1.94457
-1.83579
-1.71648
-1.58607
-1.44404
-1.28993
-1.12336
-0.944071
-0.75191
-0.546896
-0.329245
-0.099414
0.141861
0.393562
0.654364
0.922571
1.19615
1.47276
1.74978
2.02441
2.29383
2.55518
2.80577
3.0432
3.26539
3.47072
3.65805
3.82674
3.97664
4.10802
4.22153
4.31809
4.39889
4.46522
4.51847
4.56005
4.5913
4.61356
4.62809
4.63602
4.63853
4.63665
4.63103
4.62256
4.61222
4.60026
4.5868
4.57247
4.55793
4.54355
4.52961
4.51627
4.50367
4.49192
4.4811
4.47123
4.46235
4.45444
4.44752
4.44156
4.43654
4.43246
4.42929
4.42701
4.42562
4.42511
4.42549
4.42679
4.42904
4.4323
4.43661
4.44205
4.44863
4.45622
4.46452
4.47226
4.47814
4.47471
-1.56807
-1.58428
-1.60178
-1.61536
-1.62521
-1.63281
-1.63906
-1.64458
-1.6499
-1.65557
-1.66215
-1.67013
-1.68
-1.69213
-1.70681
-1.72422
-1.74441
-1.76733
-1.79285
-1.82072
-1.85065
-1.8823
-1.91532
-1.94933
-1.98399
-2.01897
-2.05396
-2.0887
-2.12296
-2.15655
-2.18929
-2.22106
-2.25175
-2.28127
-2.30956
-2.33658
-2.36232
-2.38677
-2.40993
-2.43183
-2.45249
-2.47197
-2.4903
-2.50753
-2.52372
-2.53892
-2.5532
-2.56661
-2.57921
-2.59107
-2.60222
-2.61274
-2.62267
-2.63207
-2.64098
-2.64944
-2.65751
-2.6652
-2.67258
-2.67965
-2.68645
-2.69301
-2.69935
-2.70547
-2.7114
-2.71713
-2.72268
-2.72803
-2.73318
-2.73812
-2.74281
-2.74724
-2.75136
-2.75513
-2.7585
-2.7614
-2.76376
-2.76549
-2.7665
-2.76667
-2.76588
-2.76398
-2.76083
-2.75624
-2.75001
-2.74195
-2.7318
-2.71931
-2.70419
-2.68614
-2.66482
-2.63989
-2.61096
-2.57765
-2.5395
-2.49605
-2.4468
-2.39123
-2.32878
-2.25886
-2.18089
-2.09424
-1.9983
-1.89244
-1.77604
-1.64853
-1.50934
-1.35797
-1.194
-1.01713
-0.82714
-0.623989
-0.40783
-0.17905
0.0616667
0.313346
0.574707
0.844064
1.11937
1.39826
1.6781
1.956
2.229
2.49414
2.74857
2.98977
3.21556
3.42425
3.61465
3.78613
3.93853
4.07215
4.18769
4.2861
4.36861
4.43653
4.49127
4.53426
4.56686
4.59041
4.60618
4.61533
4.619
4.61819
4.61367
4.60628
4.59683
4.58572
4.57327
4.55999
4.54642
4.53295
4.51984
4.50729
4.49544
4.48439
4.47421
4.46495
4.45663
4.44925
4.44279
4.43726
4.43262
4.42887
4.42596
4.42389
4.42263
4.42218
4.42253
4.4237
4.42569
4.42852
4.4322
4.43672
4.44201
4.44782
4.45366
4.45821
4.4601
4.45286
-1.54978
-1.56608
-1.58402
-1.5982
-1.60881
-1.61733
-1.62471
-1.63156
-1.63845
-1.6459
-1.65443
-1.66452
-1.67655
-1.69087
-1.70767
-1.72708
-1.74908
-1.77358
-1.80038
-1.82923
-1.85982
-1.89184
-1.92493
-1.95878
-1.99305
-2.02745
-2.06173
-2.09564
-2.129
-2.16162
-2.19338
-2.22415
-2.25384
-2.28239
-2.30976
-2.33591
-2.36083
-2.38452
-2.407
-2.42829
-2.44841
-2.46742
-2.48535
-2.50224
-2.51816
-2.53316
-2.54728
-2.56058
-2.57313
-2.58497
-2.59615
-2.60673
-2.61676
-2.62629
-2.63535
-2.644
-2.65227
-2.6602
-2.66783
-2.67518
-2.68229
-2.68918
-2.69586
-2.70236
-2.70869
-2.71486
-2.72087
-2.72671
-2.73239
-2.73789
-2.74318
-2.74825
-2.75306
-2.75756
-2.76171
-2.76544
-2.76868
-2.77135
-2.77336
-2.77459
-2.77492
-2.77422
-2.77233
-2.76908
-2.76427
-2.7577
-2.74912
-2.73829
-2.72491
-2.70869
-2.6893
-2.66638
-2.63956
-2.60844
-2.57257
-2.5315
-2.48471
-2.43168
-2.37185
-2.30464
-2.22943
-2.1456
-2.05253
-1.94956
-1.83606
-1.71142
-1.57505
-1.42641
-1.26504
-1.09058
-0.902769
-0.701503
-0.48687
-0.259192
-0.0191004
0.232477
0.494302
0.764725
1.04171
1.32288
1.60551
1.88666
2.16323
2.43212
2.69037
2.93531
3.16468
3.37669
3.57014
3.74436
3.89922
4.03506
4.1526
4.25285
4.33704
4.40654
4.46278
4.50718
4.54114
4.566
4.58303
4.59342
4.59826
4.59856
4.59516
4.58885
4.58037
4.57021
4.55878
4.54654
4.53398
4.52145
4.50924
4.49753
4.48648
4.47619
4.46672
4.45813
4.45043
4.44362
4.43769
4.43263
4.42842
4.42502
4.42241
4.42057
4.41947
4.4191
4.41944
4.42048
4.42221
4.42461
4.42766
4.43128
4.43531
4.43941
4.44301
4.44474
4.4433
4.43302
-1.53929
-1.55476
-1.57189
-1.58572
-1.5964
-1.60531
-1.61333
-1.62106
-1.62901
-1.63768
-1.64755
-1.65902
-1.67244
-1.68808
-1.70612
-1.72662
-1.74955
-1.77478
-1.80212
-1.8313
-1.86205
-1.89403
-1.92694
-1.96047
-1.99431
-2.02821
-2.06191
-2.0952
-2.1279
-2.15986
-2.19095
-2.22106
-2.25012
-2.27806
-2.30486
-2.33048
-2.35493
-2.37819
-2.40029
-2.42126
-2.44111
-2.4599
-2.47766
-2.49444
-2.51029
-2.52525
-2.53939
-2.55274
-2.56537
-2.57732
-2.58865
-2.5994
-2.60962
-2.61936
-2.62866
-2.63756
-2.6461
-2.65433
-2.66227
-2.66995
-2.6774
-2.68466
-2.69173
-2.69865
-2.70542
-2.71205
-2.71855
-2.72492
-2.73115
-2.73724
-2.74316
-2.7489
-2.75441
-2.75967
-2.76462
-2.76921
-2.77335
-2.77699
-2.78001
-2.78233
-2.78381
-2.78432
-2.7837
-2.7818
-2.77842
-2.77334
-2.76634
-2.75716
-2.74552
-2.73112
-2.71363
-2.69271
-2.66797
-2.63901
-2.6054
-2.56665
-2.52227
-2.47173
-2.41447
-2.34989
-2.27738
-2.1963
-2.10602
-2.00587
-1.89519
-1.77336
-1.63975
-1.49379
-1.33498
-1.16291
-0.977274
-0.777916
-0.564869
-0.338396
-0.0990407
0.152327
0.414488
0.685827
0.96433
1.24759
1.53283
1.81702
2.09694
2.36938
2.63125
2.87974
3.11249
3.32766
3.52401
3.70085
3.85809
3.99608
4.11557
4.21763
4.30351
4.37461
4.43237
4.47822
4.51359
4.53981
4.55817
4.56984
4.57592
4.57742
4.57519
4.57001
4.5626
4.55348
4.54312
4.53198
4.52047
4.50896
4.49771
4.48692
4.47674
4.46728
4.4586
4.45074
4.44372
4.43755
4.4322
4.42767
4.42392
4.42092
4.41865
4.41708
4.41617
4.41589
4.41623
4.41716
4.41863
4.42062
4.42305
4.42578
4.42861
4.43112
4.43267
4.43194
4.42771
4.415
-1.53543
-1.54924
-1.56456
-1.57722
-1.58735
-1.5961
-1.60423
-1.61229
-1.62075
-1.63004
-1.64058
-1.65274
-1.6668
-1.68301
-1.7015
-1.72232
-1.74544
-1.77074
-1.79801
-1.82703
-1.85751
-1.88915
-1.92167
-1.95476
-1.98815
-2.02157
-2.0548
-2.08763
-2.11989
-2.15143
-2.18212
-2.21186
-2.24059
-2.26825
-2.29479
-2.3202
-2.34447
-2.36761
-2.38962
-2.41053
-2.43038
-2.44919
-2.46701
-2.48388
-2.49985
-2.51497
-2.52928
-2.54283
-2.55568
-2.56787
-2.57945
-2.59047
-2.60097
-2.61101
-2.62062
-2.62984
-2.63872
-2.64729
-2.65559
-2.66364
-2.67149
-2.67915
-2.68665
-2.69401
-2.70124
-2.70836
-2.71538
-2.72229
-2.7291
-2.7358
-2.74237
-2.74879
-2.75504
-2.76106
-2.76683
-2.77228
-2.77735
-2.78195
-2.78601
-2.7894
-2.79203
-2.79375
-2.79441
-2.79385
-2.79187
-2.78827
-2.78282
-2.77527
-2.76533
-2.75271
-2.73709
-2.71811
-2.69539
-2.66853
-2.63709
-2.60059
-2.55853
-2.51038
-2.45557
-2.39352
-2.32359
-2.24514
-2.15753
-2.06007
-1.9521
-1.83296
-1.70201
-1.55865
-1.40233
-1.23259
-1.0491
-0.85164
-0.640202
-0.414988
-0.176479
0.074521
0.336829
0.608862
0.888612
1.17365
1.46115
1.74801
2.03091
2.3065
2.57158
2.82324
3.05903
3.27705
3.47602
3.65527
3.8147
3.95472
4.07609
4.17993
4.26749
4.34021
4.39953
4.44691
4.48375
4.51142
4.53118
4.54423
4.55166
4.55444
4.55347
4.54953
4.54329
4.53533
4.52614
4.51615
4.50578
4.49536
4.48516
4.47538
4.46616
4.45761
4.44978
4.44274
4.43648
4.431
4.4263
4.42235
4.41912
4.41658
4.41468
4.41341
4.41271
4.41257
4.41293
4.41375
4.415
4.41659
4.41841
4.4203
4.422
4.42304
4.42275
4.41987
4.41329
4.3986
-1.53613
-1.5477
-1.56051
-1.5714
-1.58042
-1.5885
-1.59625
-1.60413
-1.61255
-1.6219
-1.63253
-1.64475
-1.65882
-1.67496
-1.69328
-1.71383
-1.73659
-1.76143
-1.78819
-1.81666
-1.84656
-1.87764
-1.9096
-1.94216
-1.97506
-2.00805
-2.04089
-2.0734
-2.10538
-2.1367
-2.16722
-2.19686
-2.22552
-2.25315
-2.27971
-2.30518
-2.32955
-2.35282
-2.375
-2.39611
-2.41618
-2.43523
-2.45332
-2.47048
-2.48675
-2.50218
-2.51682
-2.53071
-2.5439
-2.55644
-2.56838
-2.57976
-2.59064
-2.60104
-2.61103
-2.62063
-2.62989
-2.63885
-2.64755
-2.65601
-2.66428
-2.67237
-2.68032
-2.68814
-2.69586
-2.70349
-2.71103
-2.71851
-2.72591
-2.73323
-2.74045
-2.74757
-2.75454
-2.76135
-2.76794
-2.77425
-2.78024
-2.78581
-2.79088
-2.79535
-2.79911
-2.80202
-2.80393
-2.80468
-2.80408
-2.80193
-2.79799
-2.79201
-2.78371
-2.77281
-2.75897
-2.74185
-2.72107
-2.6962
-2.66681
-2.63244
-2.59258
-2.54668
-2.49419
-2.43449
-2.36698
-2.291
-2.20588
-2.11094
-2.00551
-1.88889
-1.76044
-1.61952
-1.46556
-1.29806
-1.11664
-0.921051
-0.711221
-0.487305
-0.249731
0.000743754
0.26298
0.535421
0.816066
1.10247
1.39176
1.68077
1.96608
2.24424
2.51196
2.76623
3.00453
3.22492
3.42611
3.60744
3.76881
3.91067
4.03381
4.13935
4.22859
4.30295
4.36388
4.41285
4.45127
4.48048
4.50177
4.5163
4.52518
4.52938
4.52979
4.52718
4.52226
4.51558
4.50766
4.49893
4.48979
4.48057
4.47152
4.46284
4.45467
4.44712
4.44025
4.4341
4.42868
4.42398
4.41999
4.41668
4.41403
4.41198
4.41051
4.40958
4.40914
4.40914
4.40955
4.41031
4.41133
4.41255
4.4138
4.4149
4.41554
4.41524
4.4133
4.40854
4.39998
4.38367
-1.53908
-1.5481
-1.55801
-1.56671
-1.57424
-1.58123
-1.58818
-1.59544
-1.60337
-1.61229
-1.62251
-1.6343
-1.64789
-1.66347
-1.68116
-1.70101
-1.72299
-1.74703
-1.77297
-1.80062
-1.82974
-1.86009
-1.89139
-1.92337
-1.95577
-1.98835
-2.02089
-2.05316
-2.08501
-2.11627
-2.14681
-2.17653
-2.20534
-2.23317
-2.25998
-2.28575
-2.31044
-2.33407
-2.35663
-2.37815
-2.39864
-2.41814
-2.43667
-2.45428
-2.47101
-2.4869
-2.50199
-2.51633
-2.52998
-2.54296
-2.55534
-2.56716
-2.57846
-2.5893
-2.5997
-2.60973
-2.61941
-2.6288
-2.63792
-2.64681
-2.65551
-2.66405
-2.67246
-2.68076
-2.68897
-2.69711
-2.7052
-2.71323
-2.72122
-2.72916
-2.73705
-2.74485
-2.75256
-2.76014
-2.76754
-2.77471
-2.7816
-2.78812
-2.7942
-2.79972
-2.80458
-2.80865
-2.81178
-2.81379
-2.81452
-2.81375
-2.81125
-2.80677
-2.80004
-2.79077
-2.77862
-2.76324
-2.74425
-2.72124
-2.69377
-2.66137
-2.62353
-2.57971
-2.52934
-2.47183
-2.40653
-2.3328
-2.24997
-2.15734
-2.05422
-1.93991
-1.81375
-1.67508
-1.5233
-1.35788
-1.17842
-0.984607
-0.776347
-0.553746
-0.317189
-0.0673941
0.194535
0.467064
0.748194
1.03546
1.32597
1.61647
1.90348
2.18348
2.45309
2.70923
2.94935
3.1715
3.37438
3.55733
3.72031
3.86375
3.98848
4.09564
4.18651
4.26252
4.32513
4.37577
4.41585
4.44672
4.46965
4.48579
4.49625
4.502
4.50392
4.5028
4.49932
4.49406
4.48754
4.48019
4.4724
4.46449
4.4567
4.44924
4.44224
4.43579
4.42997
4.42481
4.4203
4.41646
4.41326
4.41066
4.40864
4.40716
4.40616
4.40561
4.40545
4.40565
4.40613
4.40684
4.40768
4.40855
4.40928
4.40964
4.40931
4.40778
4.40437
4.39798
4.38774
4.3701
-1.54223
-1.54861
-1.55549
-1.5618
-1.56757
-1.57319
-1.579
-1.5853
-1.59236
-1.60047
-1.6099
-1.62087
-1.63362
-1.6483
-1.66504
-1.68389
-1.70485
-1.72785
-1.75278
-1.77945
-1.80766
-1.83718
-1.86775
-1.89911
-1.93102
-1.96322
-1.9955
-2.02764
-2.05945
-2.09078
-2.12149
-2.15146
-2.18058
-2.2088
-2.23605
-2.26229
-2.28751
-2.31168
-2.3348
-2.3569
-2.37797
-2.39806
-2.41718
-2.43537
-2.45268
-2.46913
-2.48478
-2.49967
-2.51384
-2.52734
-2.54022
-2.55252
-2.5643
-2.57559
-2.58645
-2.59692
-2.60704
-2.61686
-2.62642
-2.63575
-2.6449
-2.65389
-2.66276
-2.67154
-2.68024
-2.6889
-2.69752
-2.70612
-2.71469
-2.72325
-2.73178
-2.74028
-2.74871
-2.75704
-2.76524
-2.77326
-2.78103
-2.78848
-2.79553
-2.80207
-2.808
-2.81318
-2.81747
-2.8207
-2.82269
-2.82323
-2.82209
-2.81903
-2.81376
-2.806
-2.79541
-2.78163
-2.76429
-2.74297
-2.71724
-2.68662
-2.65061
-2.60866
-2.5602
-2.50463
-2.44131
-2.36959
-2.28878
-2.1982
-2.09713
-1.98488
-1.86075
-1.72409
-1.57426
-1.41073
-1.23305
-1.0409
-0.834131
-0.612832
-0.377354
-0.128384
0.132998
0.405269
0.686429
0.973998
1.26504
1.55627
1.84415
2.12509
2.39568
2.65281
2.89393
3.11708
3.32099
3.50504
3.66919
3.8139
3.94002
4.04865
4.1411
4.21875
4.28306
4.33544
4.37729
4.40993
4.43461
4.45251
4.46468
4.47213
4.47571
4.47621
4.47432
4.47064
4.46566
4.45983
4.45352
4.44704
4.44065
4.43452
4.4288
4.42358
4.41891
4.41483
4.41135
4.40845
4.40611
4.4043
4.40298
4.4021
4.40163
4.40151
4.40169
4.40211
4.4027
4.40339
4.40408
4.40464
4.40489
4.40457
4.40335
4.40071
4.39601
4.3882
4.37652
4.35777
-1.54423
-1.54807
-1.55194
-1.55578
-1.5596
-1.5636
-1.56799
-1.573
-1.57886
-1.58582
-1.59411
-1.60395
-1.61554
-1.62904
-1.64457
-1.66219
-1.68192
-1.70371
-1.72746
-1.75302
-1.78021
-1.80881
-1.83859
-1.86931
-1.9007
-1.93255
-1.9646
-1.99667
-2.02853
-2.06004
-2.09102
-2.12137
-2.15096
-2.17971
-2.20755
-2.23443
-2.26031
-2.28518
-2.30902
-2.33184
-2.35364
-2.37445
-2.39428
-2.41317
-2.43115
-2.44827
-2.46455
-2.48006
-2.49482
-2.50889
-2.52232
-2.53515
-2.54743
-2.55922
-2.57055
-2.58149
-2.59207
-2.60234
-2.61235
-2.62213
-2.63173
-2.64119
-2.65053
-2.65979
-2.669
-2.67818
-2.68735
-2.69651
-2.70569
-2.71488
-2.72407
-2.73326
-2.74242
-2.75152
-2.76052
-2.76938
-2.77803
-2.78641
-2.79442
-2.80197
-2.80894
-2.81521
-2.82063
-2.82503
-2.82823
-2.83003
-2.83018
-2.82846
-2.82456
-2.8182
-2.80904
-2.79673
-2.78089
-2.76111
-2.73695
-2.70794
-2.67355
-2.63326
-2.58649
-2.53262
-2.47104
-2.40106
-2.32203
-2.23322
-2.13394
-2.02347
-1.90111
-1.7662
-1.61809
-1.45622
-1.28014
-1.0895
-0.884135
-0.664109
-0.429754
-0.181742
0.0788566
0.350521
0.631244
0.91852
1.20939
1.50052
1.78834
2.06925
2.33982
2.59696
2.83814
3.06145
3.26566
3.45019
3.61503
3.76064
3.88787
3.99782
4.09174