/*--------------------------------*- C++ -*----------------------------------*\
  =========                 |
  \\      /  F ield         | OpenFOAM: The Open Source CFD Toolbox
   \\    /   O peration     | Website:  https://openfoam.org
    \\  /    A nd           | Version:  7
     \\/     M anipulation  |
\*---------------------------------------------------------------------------*/
FoamFile
{
    version     2.0;
    format      ascii;
    class       surfaceScalarField;
    location    "0.08";
    object      phi;
}
// * * * * * * * * * * * * * * * * * * * * * * * * * * * * * * * * * * * * * //

dimensions      [0 3 -1 0 0 0 0];

internalField   nonuniform List<scalar> 
24170
(
1.42868e-06
1.65524e-07
1.33466e-06
9.4019e-08
1.25514e-06
7.95195e-08
1.18947e-06
6.5668e-08
1.13873e-06
5.07429e-08
1.09912e-06
3.96104e-08
1.06772e-06
3.14028e-08
1.04248e-06
2.52402e-08
1.02183e-06
2.06495e-08
1.00454e-06
1.72917e-08
9.89716e-07
1.48194e-08
9.76769e-07
1.29467e-08
9.65282e-07
1.14873e-08
9.54938e-07
1.03437e-08
9.4551e-07
9.42857e-09
9.36601e-07
8.90906e-09
9.28284e-07
8.31651e-09
1.02957e-08
9.17988e-07
1.67171e-06
2.02437e-07
1.63054e-06
1.35188e-07
1.58818e-06
1.21885e-07
1.54993e-06
1.03915e-07
1.51607e-06
8.45997e-08
1.48571e-06
6.99774e-08
1.45832e-06
5.87854e-08
1.43385e-06
4.97107e-08
1.41214e-06
4.2364e-08
1.3929e-06
3.65334e-08
1.3758e-06
3.19119e-08
1.36055e-06
2.82005e-08
1.34686e-06
2.51795e-08
1.33448e-06
2.2722e-08
1.32322e-06
2.0688e-08
1.31286e-06
1.92679e-08
1.30335e-06
1.78317e-08
1.88426e-08
1.2948e-06
1.78131e-06
2.52384e-07
1.75681e-06
1.59685e-07
1.7361e-06
1.42602e-07
1.71713e-06
1.2288e-07
1.69886e-06
1.0287e-07
1.68108e-06
8.77646e-08
1.66386e-06
7.60015e-08
1.64748e-06
6.6085e-08
1.63214e-06
5.77131e-08
1.61787e-06
5.0795e-08
1.60469e-06
4.5101e-08
1.59251e-06
4.03751e-08
1.58127e-06
3.64222e-08
1.57087e-06
3.31238e-08
1.5612e-06
3.03571e-08
1.55225e-06
2.82131e-08
1.54377e-06
2.63118e-08
2.56672e-08
1.53695e-06
1.91833e-06
2.96751e-07
1.89267e-06
1.85346e-07
1.87627e-06
1.58997e-07
1.86315e-06
1.35995e-07
1.8512e-06
1.14828e-07
1.83991e-06
9.90472e-08
1.82912e-06
8.67947e-08
1.81878e-06
7.6426e-08
1.80892e-06
6.75779e-08
1.79955e-06
6.01569e-08
1.7907e-06
5.39507e-08
1.78236e-06
4.87223e-08
1.77449e-06
4.42914e-08
1.76707e-06
4.05429e-08
1.76005e-06
3.73713e-08
1.75349e-06
3.47805e-08
1.74723e-06
3.25648e-08
3.09722e-08
1.74193e-06
2.06819e-06
3.32129e-07
2.04085e-06
2.12685e-07
2.0242e-06
1.75642e-07
2.0121e-06
1.48094e-07
2.00211e-06
1.24819e-07
1.99347e-06
1.07692e-07
1.98571e-06
9.45467e-08
1.97857e-06
8.3573e-08
1.97189e-06
7.42579e-08
1.96561e-06
6.64306e-08
1.95971e-06
5.98555e-08
1.95414e-06
5.42913e-08
1.94887e-06
4.95564e-08
1.94389e-06
4.5528e-08
1.93916e-06
4.21032e-08
1.93471e-06
3.923e-08
1.93049e-06
3.6783e-08
3.47341e-08
1.92673e-06
2.22662e-06
3.60053e-07
2.19973e-06
2.3957e-07
2.18249e-06
1.9289e-07
2.1701e-06
1.60477e-07
2.16039e-06
1.34533e-07
2.15254e-06
1.15537e-07
2.14599e-06
1.01101e-07
2.1403e-06
8.92647e-08
2.13522e-06
7.93355e-08
2.13062e-06
7.10301e-08
2.12641e-06
6.40647e-08
2.12253e-06
5.8177e-08
2.11891e-06
5.31711e-08
2.11553e-06
4.89083e-08
2.11236e-06
4.52775e-08
2.10939e-06
4.21929e-08
2.10662e-06
3.95586e-08
3.72653e-08
2.10409e-06
2.39439e-06
3.82024e-07
2.36946e-06
2.64499e-07
2.35208e-06
2.10266e-07
2.33922e-06
1.73341e-07
2.32919e-06
1.4456e-07
2.32135e-06
1.23384e-07
2.31509e-06
1.07357e-07
2.30994e-06
9.44178e-08
2.30557e-06
8.37013e-08
2.3018e-06
7.48003e-08
2.2985e-06
6.73693e-08
2.29556e-06
6.11133e-08
2.29292e-06
5.58125e-08
2.29052e-06
5.13072e-08
2.28833e-06
4.7471e-08
2.28632e-06
4.41968e-08
2.28449e-06
4.13934e-08
3.89387e-08
2.28281e-06
2.57274e-06
3.99077e-07
2.55046e-06
2.86778e-07
2.53352e-06
2.27209e-07
2.52041e-06
1.86446e-07
2.51001e-06
1.54956e-07
2.5019e-06
1.31498e-07
2.49555e-06
1.13704e-07
2.49049e-06
9.94852e-08
2.48636e-06
8.78313e-08
2.48294e-06
7.82177e-08
2.48007e-06
7.02341e-08
2.47764e-06
6.35463e-08
2.47555e-06
5.79054e-08
2.47373e-06
5.31268e-08
2.47213e-06
4.90658e-08
2.47073e-06
4.5599e-08
2.4695e-06
4.26295e-08
4.00409e-08
2.46839e-06
2.76266e-06
4.12085e-07
2.74328e-06
3.06163e-07
2.72728e-06
2.4321e-07
2.71435e-06
1.99376e-07
2.7038e-06
1.65497e-07
2.69546e-06
1.39845e-07
2.68892e-06
1.20238e-07
2.68376e-06
1.04645e-07
2.67964e-06
9.19509e-08
2.67633e-06
8.15315e-08
2.67365e-06
7.29178e-08
2.67146e-06
6.57358e-08
2.66966e-06
5.97054e-08
2.66817e-06
5.46161e-08
2.66693e-06
5.03031e-08
2.6659e-06
4.66287e-08
2.66504e-06
4.34864e-08
4.07656e-08
2.66432e-06
2.9651e-06
4.21872e-07
2.94862e-06
3.22643e-07
2.93396e-06
2.57871e-07
2.92164e-06
2.11699e-07
2.9113e-06
1.75839e-07
2.90293e-06
1.48213e-07
2.8963e-06
1.26866e-07
2.89105e-06
1.09891e-07
2.88689e-06
9.61128e-08
2.88359e-06
8.48339e-08
2.88097e-06
7.55368e-08
2.87889e-06
6.78128e-08
2.87725e-06
6.13514e-08
2.87595e-06
5.5917e-08
2.87493e-06
5.13252e-08
2.87413e-06
4.74247e-08
2.87352e-06
4.40979e-08
4.1236e-08
2.87305e-06
3.18112e-06
4.29161e-07
3.16741e-06
3.36354e-07
3.15432e-06
2.70956e-07
3.14295e-06
2.2307e-07
3.13317e-06
1.85616e-07
3.12508e-06
1.56303e-07
3.11857e-06
1.33375e-07
3.11338e-06
1.15084e-07
3.10925e-06
1.00241e-07
3.10599e-06
8.80952e-08
3.10343e-06
7.80959e-08
3.10144e-06
6.9806e-08
3.0999e-06
6.28892e-08
3.09873e-06
5.70872e-08
3.09786e-06
5.21976e-08
3.09723e-06
4.80559e-08
3.09679e-06
4.4533e-08
4.15197e-08
3.09651e-06
2.86571e-06
4.33863e-07
2.85614e-06
3.45929e-07
2.84636e-06
2.80737e-07
2.83764e-06
2.31784e-07
2.83005e-06
1.93206e-07
2.82367e-06
1.62691e-07
2.81846e-06
1.38584e-07
2.81427e-06
1.19269e-07
2.81094e-06
1.03574e-07
2.80831e-06
9.07247e-08
2.80626e-06
8.01459e-08
2.80468e-06
7.13822e-08
2.80349e-06
6.40796e-08
2.80262e-06
5.79634e-08
2.802e-06
5.28177e-08
2.80159e-06
4.84673e-08
2.80134e-06
4.47765e-08
4.16236e-08
2.80124e-06
3.49497e-06
4.37975e-07
3.48598e-06
3.54918e-07
3.47637e-06
2.90339e-07
3.4676e-06
2.40558e-07
3.45985e-06
2.00961e-07
3.45325e-06
1.6929e-07
3.44782e-06
1.44006e-07
3.44345e-06
1.23641e-07
3.43997e-06
1.07055e-07
3.43724e-06
9.34577e-08
3.43513e-06
8.22546e-08
3.43354e-06
7.2975e-08
3.43237e-06
6.52482e-08
3.43155e-06
5.87839e-08
3.43101e-06
5.33525e-08
3.43071e-06
4.87682e-08
3.4306e-06
4.48858e-08
4.15769e-08
3.43065e-06
4.26202e-06
4.41383e-07
4.25408e-06
3.62851e-07
4.2452e-06
2.99222e-07
4.23691e-06
2.48846e-07
4.22953e-06
2.08347e-07
4.22321e-06
1.75609e-07
4.21801e-06
1.49201e-07
4.21385e-06
1.27804e-07
4.21057e-06
1.10332e-07
4.20805e-06
9.59817e-08
4.20616e-06
8.41457e-08
4.20479e-06
7.43394e-08
4.20386e-06
6.61771e-08
4.20329e-06
5.93536e-08
4.20302e-06
5.36262e-08
4.20299e-06
4.87986e-08
4.20316e-06
4.47152e-08
4.12435e-08
4.20349e-06
5.19699e-06
4.44001e-07
5.1906e-06
3.6924e-07
5.18312e-06
3.06708e-07
5.17604e-06
2.55925e-07
5.16976e-06
2.14626e-07
5.16443e-06
1.80936e-07
5.16013e-06
1.53503e-07
5.15679e-06
1.31144e-07
5.15428e-06
1.12836e-07
5.15249e-06
9.77773e-08
5.15129e-06
8.53454e-08
5.15058e-06
7.50439e-08
5.15029e-06
6.64734e-08
5.15033e-06
5.93147e-08
5.15064e-06
5.33123e-08
5.15118e-06
4.82595e-08
5.1519e-06
4.39909e-08
4.03703e-08
5.15278e-06
6.33666e-06
4.45737e-07
6.33232e-06
3.73575e-07
6.32712e-06
3.11913e-07
6.32225e-06
2.60793e-07
6.31811e-06
2.18768e-07
6.3148e-06
1.84245e-07
6.31236e-06
1.5594e-07
6.31075e-06
1.32754e-07
6.30986e-06
1.13728e-07
6.30957e-06
9.80665e-08
6.30978e-06
8.51366e-08
6.3104e-06
7.44278e-08
6.31134e-06
6.55283e-08
6.31255e-06
5.81058e-08
6.31397e-06
5.18927e-08
6.31556e-06
4.66724e-08
6.31728e-06
4.22701e-08
3.85471e-08
6.3191e-06
7.7259e-06
4.46426e-07
7.72431e-06
3.75166e-07
7.72261e-06
3.13613e-07
7.72144e-06
2.61967e-07
7.72097e-06
2.19229e-07
7.72121e-06
1.84006e-07
7.72211e-06
1.55041e-07
7.7236e-06
1.31263e-07
7.72559e-06
1.11744e-07
7.72796e-06
9.56931e-08
7.73064e-06
8.24614e-08
7.73354e-06
7.15239e-08
7.73661e-06
6.24558e-08
7.73981e-06
5.49134e-08
7.74308e-06
4.86187e-08
7.7464e-06
4.33466e-08
7.74976e-06
3.89147e-08
3.51828e-08
7.75312e-06
9.41956e-06
4.4568e-07
9.42196e-06
3.72766e-07
9.42577e-06
3.09811e-07
9.43069e-06
2.57044e-07
9.43641e-06
2.13508e-07
9.44265e-06
1.77761e-07
9.44923e-06
1.4846e-07
9.45601e-06
1.24491e-07
9.46285e-06
1.04896e-07
9.46969e-06
8.88559e-08
9.47646e-06
7.56944e-08
9.48312e-06
6.48661e-08
9.48964e-06
5.59328e-08
9.49601e-06
4.85409e-08
9.50223e-06
4.2405e-08
9.50828e-06
3.72948e-08
9.51417e-06
3.30242e-08
2.94541e-08
9.5199e-06
1.1485e-05
4.42321e-07
1.14943e-05
3.63485e-07
1.15076e-05
2.96507e-07
1.15231e-05
2.41588e-07
1.15394e-05
1.97179e-07
1.15559e-05
1.61275e-07
1.15721e-05
1.32246e-07
1.15878e-05
1.08825e-07
1.16027e-05
8.9929e-08
1.16169e-05
7.46434e-08
1.16304e-05
6.2236e-08
1.16431e-05
5.21345e-08
1.16552e-05
4.38871e-08
1.16666e-05
3.7133e-08
1.16774e-05
3.15849e-08
1.16877e-05
2.70139e-08
1.16975e-05
2.32367e-08
2.01195e-08
1.17068e-05
8.41021e-06
4.37465e-07
8.42304e-06
3.50658e-07
8.44058e-06
2.78966e-07
8.45992e-06
2.2224e-07
8.4795e-06
1.77602e-07
8.4986e-06
1.42172e-07
8.51682e-06
1.14029e-07
8.53391e-06
9.17394e-08
8.54978e-06
7.40496e-08
8.5645e-06
5.9933e-08
8.57812e-06
4.86151e-08
8.59074e-06
3.95122e-08
8.60246e-06
3.21688e-08
8.61336e-06
2.62265e-08
8.62354e-06
2.14045e-08
8.63307e-06
1.74828e-08
8.64202e-06
1.42869e-08
1.1691e-08
8.65045e-06
7.32403e-06
4.30716e-07
7.3416e-06
3.33096e-07
7.36445e-06
2.56111e-07
7.38845e-06
1.98246e-07
7.41192e-06
1.54124e-07
7.4343e-06
1.19792e-07
7.45518e-06
9.31552e-08
7.47434e-06
7.25768e-08
7.49182e-06
5.6568e-08
7.50776e-06
4.39939e-08
7.52231e-06
3.40655e-08
7.53562e-06
2.62043e-08
7.54783e-06
1.99613e-08
7.55906e-06
1.49892e-08
7.56945e-06
1.10219e-08
7.57907e-06
7.85462e-09
7.58803e-06
5.32663e-09
3.32291e-09
7.5964e-06
6.37938e-06
4.21402e-07
6.40255e-06
3.09922e-07
6.43065e-06
2.28012e-07
6.45848e-06
1.70422e-07
6.48487e-06
1.27736e-07
6.50949e-06
9.5166e-08
6.53196e-06
7.06889e-08
6.55216e-06
5.23743e-08
6.57028e-06
3.84453e-08
6.58657e-06
2.77043e-08
6.60125e-06
1.93889e-08
6.61451e-06
1.29424e-08
6.62654e-06
7.93187e-09
6.6375e-06
4.03073e-09
6.64752e-06
9.9601e-10
6.65674e-06
-1.35648e-09
6.66523e-06
-3.16974e-09
-4.54557e-09
6.6731e-06
5.55844e-06
4.08422e-07
5.58829e-06
2.80071e-07
5.62136e-06
1.94946e-07
5.65213e-06
1.39649e-07
5.6805e-06
9.93648e-08
5.70637e-06
6.92998e-08
5.72936e-06
4.76963e-08
5.74958e-06
3.21562e-08
5.7674e-06
2.0627e-08
5.78317e-06
1.19359e-08
5.79717e-06
5.38814e-09
5.80965e-06
4.61301e-10
5.82083e-06
-3.24928e-09
5.8309e-06
-6.03749e-09
5.84001e-06
-8.11539e-09
5.8483e-06
-9.64161e-09
5.85586e-06
-1.07379e-08
-1.14907e-08
5.86281e-06
4.84597e-06
3.90062e-07
4.88347e-06
2.42571e-07
4.92058e-06
1.57829e-07
4.95311e-06
1.07124e-07
4.98236e-06
7.01166e-08
5.00825e-06
4.34041e-08
5.03056e-06
2.53927e-08
5.04969e-06
1.30243e-08
5.06623e-06
4.09003e-09
5.08061e-06
-2.44491e-09
5.09317e-06
-7.17336e-09
5.1042e-06
-1.05686e-08
5.11394e-06
-1.29919e-08
5.1226e-06
-1.46937e-08
5.13033e-06
-1.58492e-08
5.13728e-06
-1.65884e-08
5.14355e-06
-1.70093e-08
-1.71821e-08
5.14924e-06
4.22835e-06
3.64384e-07
4.27422e-06
1.96702e-07
4.31366e-06
1.18396e-07
4.34627e-06
7.4506e-08
4.37497e-06
4.14242e-08
4.39953e-06
1.88424e-08
4.41996e-06
4.95965e-09
4.43704e-06
-4.05833e-09
4.4515e-06
-1.03673e-08
4.46382e-06
-1.47676e-08
4.47438e-06
-1.77293e-08
4.48347e-06
-1.96628e-08
4.49136e-06
-2.08741e-08
4.49823e-06
-2.15642e-08
4.50425e-06
-2.18699e-08
4.50955e-06
-2.18925e-08
4.51425e-06
-2.1706e-08
-2.13668e-08
4.51843e-06
3.69257e-06
3.30457e-07
3.74708e-06
1.42195e-07
3.78697e-06
7.84988e-08
3.8181e-06
4.33748e-08
3.84475e-06
1.47765e-08
3.86672e-06
-3.12854e-09
3.88435e-06
-1.26726e-08
3.89869e-06
-1.83974e-08
3.9105e-06
-2.21713e-08
3.92026e-06
-2.45288e-08
3.92835e-06
-2.58223e-08
3.93508e-06
-2.63934e-08
3.9407e-06
-2.64879e-08
3.94539e-06
-2.62573e-08
3.94932e-06
-2.58008e-08
3.95262e-06
-2.51924e-08
3.9554e-06
-2.44818e-08
-2.37124e-08
3.95774e-06
3.22819e-06
2.87304e-07
3.2894e-06
8.09806e-08
3.32827e-06
3.96288e-08
3.35714e-06
1.4502e-08
3.38059e-06
-8.66909e-09
3.39887e-06
-2.14092e-08
3.41284e-06
-2.66413e-08
3.42366e-06
-2.92149e-08
3.43204e-06
-3.05554e-08
3.43847e-06
-3.0957e-08
3.44332e-06
-3.06768e-08
3.44692e-06
-2.99887e-08
3.44951e-06
-2.90753e-08
3.45129e-06
-2.80366e-08
3.45242e-06
-2.69334e-08
3.45304e-06
-2.58114e-08
3.45325e-06
-2.46962e-08
-2.36229e-08
3.45316e-06
2.83412e-06
2.25916e-07
2.89276e-06
2.23394e-08
2.92702e-06
5.36883e-09
2.95254e-06
-1.10194e-08
2.9717e-06
-2.78289e-08
2.98496e-06
-3.4664e-08
2.9938e-06
-3.54875e-08
2.99934e-06
-3.47527e-08
3.00239e-06
-3.36053e-08
3.00355e-06
-3.21114e-08
3.00327e-06
-3.04036e-08
3.00194e-06
-2.86517e-08
2.99981e-06
-2.69515e-08
2.99711e-06
-2.53368e-08
2.994e-06
-2.38201e-08
2.9906e-06
-2.24175e-08
2.98704e-06
-2.11292e-08
-1.99689e-08
2.98338e-06
2.52608e-06
1.13643e-07
2.55953e-06
-1.11174e-08
2.57823e-06
-1.33267e-08
2.59255e-06
-2.53426e-08
2.60137e-06
-3.66513e-08
2.60406e-06
-3.7353e-08
2.60196e-06
-3.33871e-08
2.59657e-06
-2.93555e-08
2.58906e-06
-2.60995e-08
2.58033e-06
-2.33802e-08
2.57096e-06
-2.10349e-08
2.56132e-06
-1.90161e-08
2.55165e-06
-1.72815e-08
2.5421e-06
-1.57808e-08
2.53275e-06
-1.44737e-08
2.52368e-06
-1.335e-08
2.51497e-06
-1.24168e-08
-1.19345e-08
2.50694e-06
2.21498e-06
2.20386e-06
2.19054e-06
2.16519e-06
2.12854e-06
2.09119e-06
2.0578e-06
2.02845e-06
2.00235e-06
1.97897e-06
1.95793e-06
1.93892e-06
1.92164e-06
1.90585e-06
1.89138e-06
1.87803e-06
1.86561e-06
1.85368e-06
2.43437e-08
-2.43437e-08
6.68865e-08
-4.25428e-08
1.11757e-07
-4.48706e-08
1.5247e-07
-4.07133e-08
1.85917e-07
-3.3447e-08
2.10516e-07
-2.45983e-08
2.25461e-07
-1.49453e-08
2.30387e-07
-4.92555e-09
2.25224e-07
5.16293e-09
2.10702e-07
1.45214e-08
1.88238e-07
2.24637e-08
1.59651e-07
2.85877e-08
1.26933e-07
3.27172e-08
9.1905e-08
3.50285e-08
5.58365e-08
3.60685e-08
1.92497e-08
3.65868e-08
-1.80377e-08
3.72874e-08
-5.67426e-08
3.8705e-08
-9.77496e-08
4.1007e-08
-1.42175e-07
4.44254e-08
-1.92162e-07
4.99869e-08
-2.46777e-07
5.46148e-08
-3.10361e-07
6.35844e-08
-3.7932e-07
6.89584e-08
-4.53785e-07
7.44652e-08
-5.3842e-07
8.46351e-08
-6.30464e-07
9.20442e-08
-7.20839e-07
9.03753e-08
-8.05187e-07
8.43471e-08
-8.88266e-07
8.3079e-08
-9.69305e-07
8.10389e-08
-1.04651e-06
7.72084e-08
-1.11902e-06
7.25113e-08
-1.18641e-06
6.73881e-08
-1.24856e-06
6.21457e-08
-1.30556e-06
5.70036e-08
-1.35767e-06
5.21099e-08
-1.40523e-06
4.7557e-08
-1.44862e-06
4.33947e-08
-1.48827e-06
3.96418e-08
-1.52456e-06
3.62947e-08
-1.5579e-06
3.33355e-08
-1.58863e-06
3.07371e-08
-1.6171e-06
2.84682e-08
-1.6436e-06
2.64956e-08
-1.66838e-06
2.47869e-08
-1.69169e-06
2.33112e-08
-1.71373e-06
2.20401e-08
-1.73468e-06
2.09478e-08
-1.75469e-06
2.00114e-08
-1.7739e-06
1.92106e-08
-1.79243e-06
1.85276e-08
-1.81038e-06
1.79467e-08
-1.82783e-06
1.74541e-08
-1.84487e-06
1.70377e-08
-1.86156e-06
1.66869e-08
-1.87795e-06
1.63923e-08
-1.8941e-06
1.61456e-08
-1.91003e-06
1.59393e-08
-1.9258e-06
1.57667e-08
-1.94142e-06
1.56217e-08
-1.95692e-06
1.54988e-08
-1.97231e-06
1.53928e-08
-1.98761e-06
1.52989e-08
-2.00283e-06
1.52127e-08
-2.01796e-06
1.513e-08
-2.033e-06
1.50465e-08
-2.04796e-06
1.49583e-08
-2.06282e-06
1.48615e-08
-2.07757e-06
1.47521e-08
-2.0922e-06
1.46262e-08
-2.10668e-06
1.44798e-08
-2.12099e-06
1.43086e-08
-2.1351e-06
1.41083e-08
-2.14897e-06
1.38743e-08
-2.16257e-06
1.36017e-08
-2.17586e-06
1.32851e-08
-2.18878e-06
1.29188e-08
-2.20127e-06
1.24965e-08
-2.21328e-06
1.20114e-08
-2.22474e-06
1.14556e-08
-2.23556e-06
1.08207e-08
-2.24566e-06
1.00972e-08
-2.25493e-06
9.27457e-09
-2.26327e-06
8.34125e-09
-2.27056e-06
7.28401e-09
-2.27665e-06
6.08735e-09
-2.28138e-06
4.73934e-09
-2.28462e-06
3.23457e-09
-2.2862e-06
1.57963e-09
-2.28611e-06
-9.02125e-11
-2.28437e-06
-1.73422e-09
-2.28095e-06
-3.42668e-09
-2.27572e-06
-5.22576e-09
-2.26856e-06
-7.16199e-09
-2.25931e-06
-9.2519e-09
-2.2478e-06
-1.1508e-08
-2.23386e-06
-1.39414e-08
-2.2173e-06
-1.65626e-08
-2.19791e-06
-1.93819e-08
-2.17551e-06
-2.24091e-08
-2.14985e-06
-2.56532e-08
-2.12073e-06
-2.91223e-08
-2.08791e-06
-3.28232e-08
-2.05115e-06
-3.67606e-08
-2.01021e-06
-4.09369e-08
-1.96486e-06
-4.53515e-08
-1.91486e-06
-4.99996e-08
-1.85999e-06
-5.4872e-08
-1.80003e-06
-5.99538e-08
-1.73481e-06
-6.52233e-08
-1.66416e-06
-7.06512e-08
-1.58796e-06
-7.61998e-08
-1.50614e-06
-8.18219e-08
-1.41868e-06
-8.74607e-08
-1.32563e-06
-9.30497e-08
-1.22711e-06
-9.85127e-08
-1.12335e-06
-1.03765e-07
-1.01463e-06
-1.08716e-07
-9.01364e-07
-1.13269e-07
-7.84037e-07
-1.17326e-07
-6.63244e-07
-1.20793e-07
-5.39667e-07
-1.23577e-07
-4.14082e-07
-1.25585e-07
-2.87365e-07
-1.26717e-07
-1.60487e-07
-1.26878e-07
-3.43139e-08
-1.26174e-07
9.05106e-08
-1.24824e-07
2.13239e-07
-1.22728e-07
3.33076e-07
-1.19837e-07
4.49359e-07
-1.16283e-07
5.61534e-07
-1.12175e-07
6.69135e-07
-1.07602e-07
7.71873e-07
-1.02737e-07
8.69571e-07
-9.76985e-08
9.6225e-07
-9.26783e-08
1.05066e-06
-8.8415e-08
1.13323e-06
-8.25631e-08
1.21181e-06
-7.85842e-08
1.28272e-06
-7.09034e-08
1.34449e-06
-6.17736e-08
1.40447e-06
-5.99833e-08
1.46238e-06
-5.79057e-08
1.50876e-06
-4.63779e-08
1.55386e-06
-4.51045e-08
1.60207e-06
-4.82047e-08
1.63687e-06
-3.48035e-08
1.66685e-06
-2.99814e-08
1.69798e-06
-3.11255e-08
1.72528e-06
-2.73023e-08
1.74871e-06
-2.34339e-08
1.76817e-06
-1.94564e-08
1.7839e-06
-1.57319e-08
1.79631e-06
-1.24056e-08
1.8058e-06
-9.49014e-09
1.81274e-06
-6.9484e-09
1.81749e-06
-4.74741e-09
1.82039e-06
-2.90242e-09
1.82151e-06
-1.11497e-09
1.82104e-06
4.67379e-10
1.81927e-06
1.77053e-09
1.81657e-06
2.70323e-09
1.81321e-06
3.35382e-09
1.80944e-06
3.77042e-09
1.80541e-06
4.03762e-09
1.8012e-06
4.20324e-09
1.79688e-06
4.32595e-09
1.79241e-06
4.46722e-09
1.78772e-06
4.68599e-09
1.78268e-06
5.03913e-09
1.77709e-06
5.59213e-09
1.77066e-06
6.434e-09
1.76296e-06
7.6971e-09
1.75337e-06
9.58657e-09
1.74093e-06
1.24466e-08
1.72407e-06
1.68606e-08
1.69991e-06
2.41608e-08
1.66365e-06
3.62572e-08
1.60075e-06
6.29032e-08
1.01239e-07
1.49951e-06
4.21089e-08
-6.64526e-08
8.53095e-08
-8.57434e-08
1.18407e-07
-7.7968e-08
1.41797e-07
-6.41035e-08
1.56687e-07
-4.83366e-08
1.63943e-07
-3.18542e-08
1.64208e-07
-1.52109e-08
1.58149e-07
1.13347e-09
1.46245e-07
1.70667e-08
1.2879e-07
3.19766e-08
1.05799e-07
4.5455e-08
7.73518e-08
5.70348e-08
4.35355e-08
6.65335e-08
4.35852e-09
7.42055e-08
-4.02952e-08
8.07222e-08
-9.07135e-08
8.70051e-08
-1.47356e-07
9.393e-08
-2.10688e-07
1.02037e-07
-2.81088e-07
1.11407e-07
-3.58493e-07
1.2183e-07
-4.41577e-07
1.33071e-07
-5.30921e-07
1.43959e-07
-6.21214e-07
1.53878e-07
-7.14462e-07
1.62206e-07
-8.06905e-07
1.66909e-07
-8.93315e-07
1.71044e-07
-9.72751e-07
1.71481e-07
-1.04892e-06
1.66541e-07
-1.12199e-06
1.5742e-07
-1.18692e-06
1.48006e-07
-1.24421e-06
1.38327e-07
-1.29527e-06
1.28277e-07
-1.34096e-06
1.18201e-07
-1.382e-06
1.08419e-07
-1.41901e-06
9.91584e-08
-1.45257e-06
9.05634e-08
-1.48317e-06
8.27126e-08
-1.51125e-06
7.56319e-08
-1.53716e-06
6.93098e-08
-1.56123e-06
6.37098e-08
-1.58371e-06
5.87808e-08
-1.60484e-06
5.4464e-08
-1.6248e-06
5.06985e-08
-1.64376e-06
4.74248e-08
-1.66185e-06
4.45865e-08
-1.6792e-06
4.21318e-08
-1.6959e-06
4.0014e-08
-1.71205e-06
3.81911e-08
-1.72773e-06
3.66261e-08
-1.743e-06
3.52861e-08
-1.75794e-06
3.41425e-08
-1.77258e-06
3.31696e-08
-1.78698e-06
3.23453e-08
-1.80117e-06
3.16495e-08
-1.8152e-06
3.10648e-08
-1.82909e-06
3.05756e-08
-1.84286e-06
3.01676e-08
-1.85655e-06
2.98282e-08
-1.87015e-06
2.95458e-08
-1.88369e-06
2.931e-08
-1.89718e-06
2.91109e-08
-1.91062e-06
2.89394e-08
-1.92402e-06
2.8787e-08
-1.93737e-06
2.86455e-08
-1.95066e-06
2.85074e-08
-1.96389e-06
2.83649e-08
-1.97706e-06
2.82109e-08
-1.99014e-06
2.80381e-08
-2.00312e-06
2.78393e-08
-2.01597e-06
2.76073e-08
-2.02868e-06
2.73349e-08
-2.04122e-06
2.70146e-08
-2.05355e-06
2.66389e-08
-2.06564e-06
2.61999e-08
-2.07745e-06
2.56896e-08
-2.08895e-06
2.50996e-08
-2.10009e-06
2.44211e-08
-2.11081e-06
2.36452e-08
-2.12108e-06
2.27626e-08
-2.13083e-06
2.17634e-08
-2.14001e-06
2.06377e-08
-2.14857e-06
1.93754e-08
-2.15644e-06
1.79664e-08
-2.16356e-06
1.64006e-08
-2.16989e-06
1.4669e-08
-2.17537e-06
1.27636e-08
-2.17996e-06
1.06787e-08
-2.18364e-06
8.41222e-09
-2.18637e-06
5.9659e-09
-2.18813e-06
3.34103e-09
-2.18874e-06
5.19243e-10
-2.18793e-06
-2.53985e-09
-2.18549e-06
-5.86472e-09
-2.18125e-06
-9.46936e-09
-2.17504e-06
-1.33732e-08
-2.16669e-06
-1.75968e-08
-2.15604e-06
-2.21607e-08
-2.1429e-06
-2.70849e-08
-2.12707e-06
-3.2389e-08
-2.10836e-06
-3.80921e-08
-2.08656e-06
-4.42126e-08
-2.06144e-06
-5.07672e-08
-2.03279e-06
-5.77709e-08
-2.00038e-06
-6.52358e-08
-1.96397e-06
-7.31704e-08
-1.92333e-06
-8.15783e-08
-1.87823e-06
-9.04571e-08
-1.82843e-06
-9.97967e-08
-1.77372e-06
-1.09578e-07
-1.71391e-06
-1.1977e-07
-1.6488e-06
-1.3033e-07
-1.57825e-06
-1.41199e-07
-1.50215e-06
-1.52303e-07
-1.42042e-06
-1.63546e-07
-1.33307e-06
-1.74818e-07
-1.24013e-06
-1.85985e-07
-1.14175e-06
-1.96897e-07
-1.03812e-06
-2.07387e-07
-9.29565e-07
-2.17275e-07
-8.16462e-07
-2.26372e-07
-6.99301e-07
-2.34487e-07
-5.78659e-07
-2.41436e-07
-4.55189e-07
-2.47047e-07
-3.29608e-07
-2.51166e-07
-2.0266e-07
-2.53665e-07
-7.50606e-08
-2.54477e-07
5.23977e-08
-2.53632e-07
1.78756e-07
-2.51183e-07
3.032e-07
-2.47172e-07
4.25049e-07
-2.41686e-07
5.43651e-07
-2.34885e-07
6.58432e-07
-2.26956e-07
7.68928e-07
-2.18097e-07
8.74745e-07
-2.08555e-07
9.75611e-07
-1.98564e-07
1.07132e-06
-1.88384e-07
1.16114e-06
-1.78241e-07
1.24579e-06
-1.67206e-07
1.32349e-06
-1.5629e-07
1.39641e-06
-1.43819e-07
1.46538e-06
-1.30747e-07
1.52686e-06
-1.2146e-07
1.58139e-06
-1.12435e-07
1.63471e-06
-9.96964e-08
1.68131e-06
-9.17086e-08
1.71951e-06
-8.64038e-08
1.75776e-06
-7.30507e-08
1.79123e-06
-6.34598e-08
1.8188e-06
-5.86902e-08
1.8437e-06
-5.21988e-08
1.86574e-06
-4.54749e-08
1.8851e-06
-3.88189e-08
1.90182e-06
-3.24581e-08
1.916e-06
-2.65809e-08
1.92778e-06
-2.12676e-08
1.93736e-06
-1.65286e-08
1.94496e-06
-1.23488e-08
1.95077e-06
-8.7097e-09
1.95517e-06
-5.52041e-09
1.95841e-06
-2.76856e-09
1.96064e-06
-4.5736e-10
1.96199e-06
1.35325e-09
1.96266e-06
2.67796e-09
1.96273e-06
3.70138e-09
1.96236e-06
4.40574e-09
1.9617e-06
4.86536e-09
1.96087e-06
5.15576e-09
1.95997e-06
5.36675e-09
1.95906e-06
5.6007e-09
1.95813e-06
5.96823e-09
1.95713e-06
6.59318e-09
1.95593e-06
7.62778e-09
1.95435e-06
9.28172e-09
1.95207e-06
1.18623e-08
1.94865e-06
1.58708e-08
1.94342e-06
2.20931e-08
1.93528e-06
3.23007e-08
1.92276e-06
4.87718e-08
1.9032e-06
8.24635e-08
1.39123e-07
1.86532e-06
3.75143e-08
-1.03967e-07
6.23796e-08
-1.10609e-07
7.7023e-08
-9.26114e-08
8.43764e-08
-7.14569e-08
8.57187e-08
-4.96789e-08
8.16831e-08
-2.78186e-08
7.263e-08
-6.15774e-09
5.87011e-08
1.50623e-08
4.01592e-08
3.56086e-08
1.69385e-08
5.51973e-08
-1.11378e-08
7.35313e-08
-4.44789e-08
9.03759e-08
-8.36513e-08
1.05706e-07
-1.29255e-07
1.19809e-07
-1.8177e-07
1.33238e-07
-2.41389e-07
1.46624e-07
-3.07876e-07
1.60417e-07
-3.80511e-07
1.74672e-07
-4.58101e-07
1.88996e-07
-5.38964e-07
2.02694e-07
-6.20883e-07
2.14989e-07
-7.0194e-07
2.25016e-07
-7.79984e-07
2.31921e-07
-8.53233e-07
2.35455e-07
-9.21412e-07
2.35088e-07
-9.81859e-07
2.31491e-07
-1.03489e-06
2.24512e-07
-1.08272e-06
2.14371e-07
-1.12732e-06
2.0202e-07
-1.1681e-06
1.88785e-07
-1.20517e-06
1.75395e-07
-1.23911e-06
1.6222e-07
-1.27045e-06
1.49542e-07
-1.2996e-06
1.37566e-07
-1.32686e-06
1.26423e-07
-1.35248e-06
1.16183e-07
-1.37664e-06
1.06871e-07
-1.39948e-06
9.84724e-08
-1.42112e-06
9.09521e-08
-1.44167e-06
8.42569e-08
-1.46121e-06
7.83252e-08
-1.47984e-06
7.30915e-08
-1.49763e-06
6.84901e-08
-1.51467e-06
6.44574e-08
-1.53101e-06
6.09335e-08
-1.54674e-06
5.78631e-08
-1.56193e-06
5.51956e-08
-1.57662e-06
5.28851e-08
-1.59088e-06
5.08904e-08
-1.60477e-06
4.91745e-08
-1.61833e-06
4.77044e-08
-1.63161e-06
4.64502e-08
-1.64465e-06
4.53856e-08
-1.65749e-06
4.44865e-08
-1.67016e-06
4.37313e-08
-1.68268e-06
4.31006e-08
-1.69509e-06
4.25765e-08
-1.70741e-06
4.21428e-08
-1.71965e-06
4.17846e-08
-1.73182e-06
4.14879e-08
-1.74395e-06
4.12399e-08
-1.75604e-06
4.10284e-08
-1.7681e-06
4.0842e-08
-1.78012e-06
4.06697e-08
-1.79211e-06
4.05009e-08
-1.80407e-06
4.03254e-08
-1.816e-06
4.0133e-08
-1.82787e-06
3.9914e-08
-1.83969e-06
3.96585e-08
-1.85144e-06
3.93563e-08
-1.8631e-06
3.89977e-08
-1.87466e-06
3.85724e-08
-1.88609e-06
3.807e-08
-1.89737e-06
3.74798e-08
-1.90847e-06
3.67908e-08
-1.91937e-06
3.59918e-08
-1.93002e-06
3.5071e-08
-1.94039e-06
3.40164e-08
-1.95044e-06
3.28155e-08
-1.96013e-06
3.14556e-08
-1.96942e-06
2.99234e-08
-1.97825e-06
2.82057e-08
-1.98657e-06
2.62888e-08
-1.99433e-06
2.4159e-08
-2.00146e-06
2.18028e-08
-2.0079e-06
1.92062e-08
-2.01358e-06
1.63554e-08
-2.0184e-06
1.32355e-08
-2.02227e-06
9.82903e-09
-2.02504e-06
6.11187e-09
-2.02657e-06
2.0473e-09
-2.02671e-06
-2.39885e-09
-2.02532e-06
-7.25615e-09
-2.02224e-06
-1.25476e-08
-2.01731e-06
-1.82984e-08
-2.01037e-06
-2.45364e-08
-2.00124e-06
-3.12902e-08
-1.98974e-06
-3.8589e-08
-1.97567e-06
-4.64616e-08
-1.95882e-06
-5.49365e-08
-1.939e-06
-6.40405e-08
-1.91596e-06
-7.37986e-08
-1.8895e-06
-8.42329e-08
-1.85938e-06
-9.53612e-08
-1.82535e-06
-1.07196e-07
-1.78719e-06
-1.19742e-07
-1.74465e-06
-1.32997e-07
-1.6975e-06
-1.46944e-07
-1.64552e-06
-1.61555e-07
-1.58851e-06
-1.76786e-07
-1.52626e-06
-1.92573e-07
-1.45864e-06
-2.08827e-07
-1.3855e-06
-2.25438e-07
-1.30678e-06
-2.42267e-07
-1.22245e-06
-2.59147e-07
-1.13256e-06
-2.7588e-07
-1.03721e-06
-2.92244e-07
-9.36609e-07
-3.07988e-07
-8.31039e-07
-3.22845e-07
-7.20877e-07
-3.36534e-07
-6.0659e-07
-3.48774e-07
-4.88733e-07
-3.59292e-07
-3.67938e-07
-3.67842e-07
-2.44892e-07
-3.74212e-07
-1.20309e-07
-3.78248e-07
5.0634e-09
-3.79849e-07
1.30387e-07
-3.78955e-07
2.54797e-07
-3.75593e-07
3.77496e-07
-3.69871e-07
4.97766e-07
-3.61956e-07
6.14955e-07
-3.52074e-07
7.28488e-07
-3.40489e-07
8.37883e-07
-3.27491e-07
9.42726e-07
-3.13399e-07
1.04268e-06
-2.98521e-07
1.13743e-06
-2.83135e-07
1.2266e-06
-2.67411e-07
1.31041e-06
-2.51016e-07
1.38847e-06
-2.34343e-07
1.4617e-06
-2.17049e-07
1.53048e-06
-1.99528e-07
1.59284e-06
-1.83826e-07
1.64922e-06
-1.6881e-07
1.70239e-06
-1.52869e-07
1.7496e-06
-1.38913e-07
1.78967e-06
-1.26481e-07
1.82787e-06
-1.11251e-07
1.86196e-06
-9.75472e-08
1.8904e-06
-8.71305e-08
1.91537e-06
-7.7165e-08
1.93732e-06
-6.74265e-08
1.95657e-06
-5.8071e-08
1.97333e-06
-4.92128e-08
1.98773e-06
-4.09797e-08
1.99991e-06
-3.34544e-08
2.01005e-06
-2.66699e-08
2.01833e-06
-2.06285e-08
2.02494e-06
-1.53161e-08
2.03011e-06
-1.06905e-08
2.03408e-06
-6.73373e-09
2.03705e-06
-3.43082e-09
2.0392e-06
-7.94436e-10
2.0406e-06
1.26953e-09
2.04145e-06
2.8534e-09
2.04189e-06
3.96819e-09
2.04205e-06
4.70877e-09
2.04204e-06
5.16691e-09
2.04195e-06
5.45384e-09
2.04185e-06
5.70293e-09
2.04175e-06
6.06508e-09
2.04163e-06
6.71662e-09
2.04138e-06
7.87163e-09
2.04085e-06
9.81634e-09
2.03975e-06
1.29566e-08
2.0377e-06
1.7927e-08
2.03409e-06
2.5701e-08
2.02816e-06
3.82305e-08
2.01873e-06
5.8199e-08
2.0069e-06
9.42954e-08
1.52786e-07
1.99324e-06
1.95313e-08
-1.23498e-07
2.33215e-08
-1.14399e-07
2.16622e-08
-9.09521e-08
1.61631e-08
-6.59578e-08
7.08726e-09
-4.0603e-08
-5.55937e-09
-1.5172e-08
-2.18778e-08
1.01607e-08
-4.20422e-08
3.52268e-08
-6.62646e-08
5.9831e-08
-9.48174e-08
8.37501e-08
-1.28048e-07
1.06762e-07
-1.66379e-07
1.28707e-07
-2.10238e-07
1.49565e-07
-2.599e-07
1.69471e-07
-3.15312e-07
1.8865e-07
-3.75951e-07
2.07263e-07
-4.40774e-07
2.2524e-07
-5.08294e-07
2.42192e-07
-5.7675e-07
2.57452e-07
-6.44304e-07
2.70249e-07
-7.09185e-07
2.7987e-07
-7.6996e-07
2.8579e-07
-8.25778e-07
2.8774e-07
-8.76073e-07
2.8575e-07
-9.2109e-07
2.80106e-07
-9.6096e-07
2.7136e-07
-9.96482e-07
2.60035e-07
-1.02886e-06
2.46745e-07
-1.05909e-06
2.32256e-07
-1.08762e-06
2.17314e-07
-1.11467e-06
2.02443e-07
-1.14044e-06
1.87988e-07
-1.16508e-06
1.74184e-07
-1.1887e-06
1.61187e-07
-1.21137e-06
1.4909e-07
-1.23312e-06
1.37938e-07
-1.25399e-06
1.2774e-07
-1.274e-06
1.1848e-07
-1.29317e-06
1.10121e-07
-1.31153e-06
1.02615e-07
-1.3291e-06
9.59041e-08
-1.34594e-06
8.99296e-08
-1.36208e-06
8.463e-08
-1.37757e-06
7.99453e-08
-1.39245e-06
7.58182e-08
-1.40679e-06
7.21945e-08
-1.42061e-06
6.90237e-08
-1.43399e-06
6.62593e-08
-1.44696e-06
6.38587e-08
-1.45957e-06
6.17827e-08
-1.47186e-06
5.99959e-08
-1.48387e-06
5.84657e-08
-1.49565e-06
5.71626e-08
-1.50722e-06
5.60597e-08
-1.51862e-06
5.51322e-08
-1.52988e-06
5.43577e-08
-1.54102e-06
5.37152e-08
-1.55206e-06
5.31855e-08
-1.56303e-06
5.27509e-08
-1.57393e-06
5.23945e-08
-1.5848e-06
5.21009e-08
-1.59562e-06
5.18551e-08
-1.60642e-06
5.16432e-08
-1.61721e-06
5.14517e-08
-1.62797e-06
5.12675e-08
-1.63872e-06
5.10779e-08
-1.64946e-06
5.08706e-08
-1.66018e-06
5.0633e-08
-1.67088e-06
5.03531e-08
-1.68154e-06
5.00183e-08
-1.69216e-06
4.96162e-08
-1.70272e-06
4.9134e-08
-1.71321e-06
4.85588e-08
-1.7236e-06
4.78769e-08
-1.73389e-06
4.70747e-08
-1.74403e-06
4.61378e-08
-1.75401e-06
4.50513e-08
-1.7638e-06
4.37998e-08
-1.77335e-06
4.23671e-08
-1.78263e-06
4.07366e-08
-1.7916e-06
3.88908e-08
-1.8002e-06
3.68116e-08
-1.80839e-06
3.44799e-08
-1.81611e-06
3.1876e-08
-1.82329e-06
2.8979e-08
-1.82985e-06
2.57668e-08
-1.83571e-06
2.22152e-08
-1.84077e-06
1.82981e-08
-1.84493e-06
1.39855e-08
-1.84806e-06
9.24263e-09
-1.85004e-06
4.02981e-09
-1.85075e-06
-1.69072e-09
-1.85005e-06
-7.95512e-09
-1.8478e-06
-1.47978e-08
-1.84384e-06
-2.22535e-08
-1.83802e-06
-3.03595e-08
-1.83016e-06
-3.91538e-08
-1.82007e-06
-4.86754e-08
-1.80757e-06
-5.8963e-08
-1.79245e-06
-7.00546e-08
-1.77451e-06
-8.19868e-08
-1.75351e-06
-9.47933e-08
-1.72924e-06
-1.08504e-07
-1.70146e-06
-1.23144e-07
-1.66992e-06
-1.3873e-07
-1.63439e-06
-1.55271e-07
-1.59463e-06
-1.72762e-07
-1.55039e-06
-1.91185e-07
-1.50144e-06
-2.10504e-07
-1.44756e-06
-2.30661e-07
-1.38856e-06
-2.51573e-07
-1.32426e-06
-2.73127e-07
-1.25453e-06
-2.95176e-07
-1.17925e-06
-3.17538e-07
-1.09841e-06
-3.39992e-07
-1.01201e-06
-3.62279e-07
-9.20153e-07
-3.84101e-07
-8.23014e-07
-4.05128e-07
-7.20857e-07
-4.25001e-07
-6.14042e-07
-4.43349e-07
-5.0302e-07
-4.59796e-07
-3.88333e-07
-4.73979e-07
-2.70604e-07
-4.85571e-07
-1.50517e-07
-4.94299e-07
-2.88098e-08
-4.99955e-07
9.37124e-08
-5.02372e-07
2.16224e-07
-5.01467e-07
3.37909e-07