/*--------------------------------*- C++ -*----------------------------------*\
  =========                 |
  \\      /  F ield         | OpenFOAM: The Open Source CFD Toolbox
   \\    /   O peration     | Website:  https://openfoam.org
    \\  /    A nd           | Version:  7
     \\/     M anipulation  |
\*---------------------------------------------------------------------------*/
FoamFile
{
    version     2.0;
    format      ascii;
    class       volScalarField;
    location    "0.036";
    object      k;
}
// * * * * * * * * * * * * * * * * * * * * * * * * * * * * * * * * * * * * * //

dimensions      [0 2 -2 0 0 0 0];

internalField   nonuniform List<scalar> 
12225
(
1.94225e-05
1.80874e-05
1.66055e-05
1.54447e-05
1.38577e-05
1.26469e-05
1.18204e-05
1.01019e-05
8.35539e-06
7.87747e-06
7.9482e-06
7.89647e-06
6.95643e-06
5.26263e-06
4.39035e-06
4.14508e-06
5.01247e-06
6.04306e-06
1.99821e-05
1.98828e-05
1.9669e-05
1.93997e-05
1.91313e-05
1.86892e-05
1.87043e-05
1.82266e-05
1.75228e-05
1.68901e-05
1.62908e-05
1.59173e-05
1.5586e-05
1.53026e-05
1.51936e-05
1.51924e-05
1.63966e-05
1.62182e-05
2.0012e-05
1.9349e-05
1.92248e-05
1.91955e-05
1.91192e-05
1.90427e-05
1.90271e-05
1.89409e-05
1.87889e-05
1.86951e-05
1.85439e-05
1.82891e-05
1.80051e-05
1.77869e-05
1.76843e-05
1.76645e-05
1.7708e-05
1.78038e-05
2.05263e-05
2.09162e-05
2.08242e-05
2.01731e-05
1.81138e-05
1.67906e-05
1.65298e-05
1.65727e-05
1.69041e-05
1.7432e-05
1.76032e-05
1.75978e-05
1.74485e-05
1.70082e-05
1.67596e-05
1.66923e-05
1.66954e-05
1.67506e-05
2.02401e-05
3.00484e-05
4.49166e-05
4.38832e-05
3.46328e-05
2.489e-05
2.05779e-05
1.91497e-05
1.90054e-05
1.90952e-05
1.92016e-05
1.91844e-05
1.89432e-05
1.79329e-05
1.67152e-05
1.60619e-05
1.58284e-05
1.57917e-05
2.01698e-05
2.17427e-05
2.80712e-05
3.15976e-05
3.12454e-05
2.91666e-05
2.67889e-05
2.50977e-05
2.39614e-05
2.33803e-05
2.30967e-05
2.27819e-05
2.21249e-05
2.08344e-05
1.9578e-05
1.8606e-05
1.80027e-05
1.75864e-05
2.06288e-05
2.29568e-05
3.00041e-05
3.08803e-05
2.95772e-05
2.80559e-05
2.71056e-05
2.547e-05
2.40387e-05
2.33904e-05
2.33203e-05
2.36287e-05
2.4936e-05
2.58537e-05
2.60549e-05
2.6026e-05
2.59027e-05
2.54835e-05
2.41313e-05
2.3093e-05
2.28e-05
2.22607e-05
2.27189e-05
2.58377e-05
2.73443e-05
2.7036e-05
2.54019e-05
2.41733e-05
2.39313e-05
2.40523e-05
2.47283e-05
2.55302e-05
2.59657e-05
2.6171e-05
2.62256e-05
2.61893e-05
2.0723e-05
2.21224e-05
2.60361e-05
2.63631e-05
2.54473e-05
2.43269e-05
2.40675e-05
2.38815e-05
2.34867e-05
2.32765e-05
2.3275e-05
2.3505e-05
2.43792e-05
2.51325e-05
2.54921e-05
2.56031e-05
2.55985e-05
2.5541e-05
2.03578e-05
2.25336e-05
2.31696e-05
2.36261e-05
2.44988e-05
2.4387e-05
2.31755e-05
2.18577e-05
2.14346e-05
2.14018e-05
2.15772e-05
2.25491e-05
2.37522e-05
2.41446e-05
2.41363e-05
2.38093e-05
2.22093e-05
2.05385e-05
2.04055e-05
2.14944e-05
2.25721e-05
2.3368e-05
2.34629e-05
2.27463e-05
2.17167e-05
2.15417e-05
2.1684e-05
2.22982e-05
2.29333e-05
2.33319e-05
2.34824e-05
2.34955e-05
2.34548e-05
2.32571e-05
2.24905e-05
2.11947e-05
2.01898e-05
2.11979e-05
2.48742e-05
2.64969e-05
2.53017e-05
2.24696e-05
2.15637e-05
2.15454e-05
2.2045e-05
2.3793e-05
2.49458e-05
2.5184e-05
2.50808e-05
2.44185e-05
2.34909e-05
2.27593e-05
2.2086e-05
2.14781e-05
2.28731e-05
2.32757e-05
2.28998e-05
2.25694e-05
2.18556e-05
2.14546e-05
2.15201e-05
2.23187e-05
2.45817e-05
2.58957e-05
2.61777e-05
2.61358e-05
2.57899e-05
2.45817e-05
2.32662e-05
2.23492e-05
2.1702e-05
2.12744e-05
2.14012e-05
2.19203e-05
2.44142e-05
2.43325e-05
2.29932e-05
2.20531e-05
2.1862e-05
2.19478e-05
2.25061e-05
2.46248e-05
2.68974e-05
2.76619e-05
2.76394e-05
2.70398e-05
2.49902e-05
2.30347e-05
2.17557e-05
2.10533e-05
2.11646e-05
2.15242e-05
2.16905e-05
2.13509e-05
2.08217e-05
2.07028e-05
2.07021e-05
2.079e-05
2.12447e-05
2.28138e-05
2.42852e-05
2.48806e-05
2.49694e-05
2.48428e-05
2.40471e-05
2.25573e-05
2.15862e-05
2.10432e-05
2.18722e-05
2.19849e-05
2.10585e-05
2.06215e-05
2.06606e-05
2.09467e-05
2.11752e-05
2.13777e-05
2.16254e-05
2.17975e-05
2.18467e-05
2.18278e-05
2.16562e-05
2.1212e-05
2.09232e-05
2.08015e-05
2.07683e-05
2.07626e-05
2.03093e-05
2.03445e-05
2.04369e-05
2.07165e-05
2.08467e-05
2.08669e-05
2.08443e-05
2.07111e-05
2.05553e-05
2.04964e-05
2.04882e-05
2.04943e-05
2.05294e-05
2.06501e-05
2.07895e-05
2.09007e-05
2.09807e-05
2.10735e-05
2.10526e-05
2.08889e-05
2.07543e-05
2.11621e-05
2.17367e-05
2.18181e-05
2.17067e-05
2.12449e-05
2.08776e-05
2.07102e-05
2.06352e-05
2.05991e-05
2.05714e-05
2.05354e-05
2.04963e-05
2.04727e-05
2.04654e-05
2.047e-05
2.03384e-05
2.08271e-05
2.10058e-05
2.10636e-05
2.10111e-05
2.08008e-05
2.06622e-05
2.05809e-05
2.05504e-05
2.05515e-05
2.05638e-05
2.05667e-05
2.05665e-05
2.05681e-05
2.05871e-05
2.07012e-05
2.12369e-05
2.19465e-05
2.04302e-05
2.06274e-05
2.06299e-05
2.06735e-05
2.06663e-05
2.06726e-05
2.07508e-05
2.08694e-05
2.08886e-05
2.08599e-05
2.08818e-05
2.10844e-05
2.13433e-05
2.14623e-05
2.15264e-05
2.16259e-05
2.18809e-05
2.24935e-05
2.00755e-05
2.03174e-05
2.06049e-05
2.06473e-05
2.06163e-05
2.05458e-05
2.05263e-05
2.05243e-05
2.05255e-05
2.05337e-05
2.05671e-05
2.06916e-05
2.09433e-05
2.11266e-05
2.12356e-05
2.12917e-05
2.13132e-05
2.13244e-05
2.0467e-05
2.03438e-05
2.09835e-05
2.15146e-05
2.15139e-05
2.1207e-05
2.06292e-05
2.03143e-05
2.0181e-05
2.01429e-05
2.01417e-05
2.0164e-05
2.02689e-05
2.04058e-05
2.04859e-05
2.05247e-05
2.05375e-05
2.05428e-05
2.07033e-05
2.03856e-05
2.04628e-05
2.05834e-05
2.05698e-05
2.04527e-05
2.03289e-05
2.02608e-05
2.02199e-05
2.01979e-05
2.019e-05
2.01898e-05
2.01977e-05
2.02261e-05
2.02483e-05
2.02583e-05
2.02603e-05
2.02601e-05
2.05199e-05
2.02385e-05
2.01427e-05
2.01327e-05
2.0137e-05
2.0176e-05
2.03069e-05
2.04128e-05
2.04616e-05
2.04723e-05
2.0464e-05
2.04066e-05
2.02582e-05
2.01367e-05
2.00615e-05
2.00276e-05
2.00197e-05
2.00199e-05
2.03853e-05
2.02264e-05
2.00554e-05
2.00394e-05
2.00613e-05
2.01315e-05
2.01762e-05
2.02021e-05
2.02315e-05
2.02424e-05
2.02358e-05
2.01952e-05
2.01534e-05
2.01357e-05
2.01318e-05
2.01329e-05
2.01425e-05
2.01786e-05
2.06994e-05
2.06154e-05
2.02684e-05
2.00538e-05
2.00525e-05
2.04196e-05
2.10458e-05
2.09905e-05
2.05107e-05
2.023e-05
2.01408e-05
2.01161e-05
2.01127e-05
2.01159e-05
2.01368e-05
2.02196e-05
2.03138e-05
2.03887e-05
2.01199e-05
2.00438e-05
1.99954e-05
1.99007e-05
1.98364e-05
1.97298e-05
1.96888e-05
1.97092e-05
1.98274e-05
2.00767e-05
2.02428e-05
2.0305e-05
2.03241e-05
2.03123e-05
2.02133e-05
1.9828e-05
1.95369e-05
1.93579e-05
2.01776e-05
1.83079e-05
1.78761e-05
1.64961e-05
1.57014e-05
1.60252e-05
1.77535e-05
2.32557e-05
3.73173e-05
4.86593e-05
5.57915e-05
5.85702e-05
6.14787e-05
6.33066e-05
6.65619e-05
6.87026e-05
7.18918e-05
7.53699e-05
2.90706e-05
0.000121684
0.000175896
0.000185154
0.000187988
0.000199545
0.000240769
0.000360501
0.000486547
0.000561787
0.000592854
0.000599822
0.000599952
0.000597818
0.000590746
0.000583002
0.000578153
0.000576397
0.00177183
0.00218947
0.0023137
0.00228442
0.00208035
0.00186807
0.00179414
0.0017866
0.00180199
0.00182619
0.00182843
0.00181645
0.00175733
0.00160381
0.00144818
0.00131524
0.00121226
0.00114558
5.56857e-06
1.00077e-05
1.49081e-05
2.3747e-05
3.43601e-05
4.74463e-05
6.40736e-05
8.32221e-05
0.000105283
0.000129969
0.000156962
0.000185926
0.000214143
0.000244955
0.000282663
0.000303985
0.000318831
0.000356764
0.00038046
0.000432608
0.000581006
0.000946135
0.0018547
0.00495718
0.00797572
0.00907785
0.0113186
0.0184962
0.0239488
0.0185217
0.00521157
0.00168694
0.00100986
0.000896043
0.00092304
0.000956311
0.000970694
0.000957121
0.000867337
0.000758978
0.000641225
0.00049484
0.00037992
0.000283014
0.000186401
0.000137705
8.64971e-05
6.4434e-05
5.17248e-05
4.73362e-05
4.88388e-05
4.97622e-05
5.07411e-05
5.10915e-05
5.11841e-05
5.07275e-05
4.95287e-05
4.84345e-05
4.68795e-05
4.51424e-05
4.36133e-05
4.1605e-05
3.90048e-05
3.6314e-05
3.43535e-05
3.26058e-05
3.04125e-05
2.83591e-05
2.62075e-05
2.44853e-05
2.29192e-05
2.10728e-05
1.92986e-05
1.75267e-05
1.6413e-05
1.4393e-05
1.32028e-05
1.16643e-05
1.03798e-05
9.16396e-06
8.02601e-06
7.03268e-06
6.16895e-06
5.43131e-06
4.80022e-06
4.244e-06
3.75084e-06
3.30725e-06
2.90601e-06
2.54665e-06
2.22863e-06
1.94809e-06
1.69942e-06
1.47711e-06
1.2739e-06
1.08425e-06
9.10375e-07
7.54458e-07
6.17586e-07
5.00059e-07
4.01645e-07
3.21101e-07
2.55587e-07
2.01797e-07
1.57907e-07
1.22437e-07
9.40602e-08
7.15938e-08
5.39969e-08
4.03611e-08
2.99083e-08
2.19795e-08
1.60209e-08
1.15912e-08
8.32123e-09
5.9186e-09
4.19549e-09
2.96747e-09
2.09102e-09
1.4658e-09
1.02092e-09
7.05734e-10
4.83794e-10
3.28679e-10
2.21198e-10
1.47426e-10
9.72914e-11
6.35666e-11
4.11224e-11
2.63535e-11
1.67401e-11
1.05446e-11
6.58901e-12
4.08584e-12
2.51502e-12
1.5371e-12
9.32937e-13
5.62405e-13
3.36774e-13
2.00338e-13
1.18406e-13
6.9543e-14
4.06027e-14
2.358e-14
1.36364e-14
7.86799e-15
4.54476e-15
2.64345e-15
1.56327e-15
9.54066e-16
6.13271e-16
4.24554e-16
3.21593e-16
2.66829e-16
2.39124e-16
2.26618e-16
2.22446e-16
2.22045e-16
2.22045e-16
2.22045e-16
2.22045e-16
2.22045e-16
2.22045e-16
2.22045e-16
2.22045e-16
2.22045e-16
2.22045e-16
2.22045e-16
2.22045e-16
2.22045e-16
2.22045e-16
2.22045e-16
2.22045e-16
2.22045e-16
2.22045e-16
2.22045e-16
1.70981e-15
7.15426e-13
3.32588e-10
1.48089e-07
1.12993e-05
3.07893e-05
5.32814e-05
8.58483e-05
0.000128676
0.000183386
0.000248883
0.000324649
0.000409818
0.000504815
0.000609119
0.000725425
0.000854469
0.0010022
0.00118667
0.00138023
0.00152363
0.00167517
0.00205893
0.00322853
0.00606914
0.00972237
0.0131486
0.0151724
0.0155012
0.014604
0.0132547
0.0116872
0.0079156
0.00376467
0.00153761
0.000876256
0.000659655
0.000567068
0.000500993
0.000448898
0.000379873
0.000319761
0.000272855
0.000228595
0.000204121
0.000180939
0.000171157
0.000166729
0.000165531
0.000169089
0.000173403
0.000176775
0.000183589
0.000188986
0.000195291
0.000200501
0.000203878
0.000206248
0.000207272
0.000207481
0.000205237
0.000201468
0.000196339
0.000188239
0.000180158
0.000169025
0.000155461
0.000142663
0.000132625
0.000123397
0.000114458
0.000107049
9.94392e-05
9.22737e-05
8.65623e-05
7.98085e-05
7.4627e-05
6.85284e-05
6.32547e-05
5.77358e-05
5.25075e-05
4.72566e-05
4.21822e-05
3.73349e-05
3.2599e-05
2.82038e-05
2.42592e-05
2.08445e-05
1.80918e-05
1.59027e-05
1.40317e-05
1.24062e-05
1.09899e-05
9.74937e-06
8.65536e-06
7.68562e-06
6.82431e-06
6.05941e-06
5.38354e-06
4.78919e-06
4.26233e-06
3.79049e-06
3.36299e-06
2.96608e-06
2.59102e-06
2.23899e-06
1.91405e-06
1.62045e-06
1.35974e-06
1.1315e-06
9.33812e-07
7.642e-07
6.20089e-07
4.98871e-07
3.97969e-07
3.14893e-07
2.47254e-07
1.92731e-07
1.49151e-07
1.14539e-07
8.71323e-08
6.56032e-08
4.88689e-08
3.60074e-08
2.62371e-08
1.89027e-08
1.34634e-08
9.47891e-09
6.59622e-09
4.53683e-09
3.08438e-09
2.07277e-09
1.37682e-09
9.04512e-10
5.88309e-10
3.78942e-10
2.41795e-10
1.52887e-10
9.58275e-11
5.9561e-11
3.67222e-11
2.24651e-11
1.36391e-11
8.21873e-12
4.91582e-12
2.91858e-12
1.72006e-12
1.00633e-12
5.84533e-13
3.37165e-13
1.9319e-13
1.1002e-13
6.23253e-14
3.51647e-14
1.97984e-14
1.11555e-14
6.31798e-15
3.6205e-15
2.11962e-15
1.28499e-15
8.20397e-16
5.61481e-16
4.16668e-16
3.35279e-16
2.8912e-16
2.62702e-16
2.47319e-16
2.38256e-16
2.32766e-16
2.29411e-16
2.27276e-16
2.25921e-16
2.25022e-16
2.24417e-16
2.24036e-16
2.23748e-16
2.23613e-16
2.23518e-16
2.23498e-16
2.23625e-16
3.01001e-16
4.42644e-14
2.59677e-11
1.34673e-08
1.12515e-05
3.90032e-05
7.33215e-05
0.000117198
0.000172507
0.000245059
0.000334562
0.000446778
0.000579137
0.000729799
0.000908362
0.0011258
0.0013927
0.00172824
0.00216528
0.00276867
0.00359483
0.00465931
0.00589916
0.00723426
0.00865586
0.00981091
0.0104879
0.009828
0.00847432
0.00662192
0.00458156
0.00226868
0.00137626
0.000729753
0.000461037
0.000352632
0.000300076
0.000264448
0.000237351
0.00021791
0.000203955
0.000194748
0.000190079
0.000187476
0.000186672
0.000186641
0.000191312
0.000198906
0.000208848
0.000220306
0.000230683
0.000244782
0.000261191
0.000280543
0.000298777
0.000314672
0.000326277
0.000335239
0.000341757
0.000346155
0.000348766
0.000349685
0.000349822
0.000348219
0.000342391
0.000333257
0.000320876
0.000302708
0.000279711
0.000256043
0.000231968
0.000210338
0.000193755
0.000175348
0.000164242
0.000149431
0.000141627
0.000133126
0.000121266
0.000114284
0.000105146
9.68422e-05
8.83411e-05
8.0015e-05
7.16683e-05
6.26763e-05
5.3323e-05
4.42712e-05
3.64448e-05
3.06618e-05
2.61068e-05
2.22129e-05
1.88984e-05
1.60575e-05
1.36234e-05
1.15592e-05
9.8342e-06
8.41367e-06
7.25605e-06
6.31508e-06
5.54529e-06
4.90679e-06
4.36796e-06
3.90981e-06
3.51651e-06
3.16978e-06
2.85478e-06
2.56237e-06
2.28558e-06
2.022e-06
1.773e-06
1.54065e-06
1.32646e-06
1.13133e-06
9.55572e-07
7.98973e-07
6.61132e-07
5.41593e-07
4.39257e-07
3.5273e-07
2.80485e-07
2.20829e-07
1.7209e-07
1.327e-07
1.01222e-07
7.6355e-08
5.69447e-08
4.19772e-08
3.05793e-08
2.20101e-08
1.56518e-08
1.09973e-08
7.63687e-09
5.24301e-09
3.55965e-09
2.39053e-09
1.58794e-09
1.04342e-09
6.78321e-10
4.36409e-10
2.78005e-10
1.75439e-10
1.09706e-10
6.79896e-11
4.17636e-11
2.54276e-11
1.53449e-11
9.17859e-12
5.44202e-12
3.19869e-12
1.8643e-12
1.07784e-12
6.18491e-13
3.52523e-13
1.99784e-13
1.12729e-13
6.34356e-14
3.56775e-14
2.01097e-14
1.14031e-14
6.53747e-15
3.81798e-15
2.29209e-15
1.43348e-15
9.4476e-16
6.65871e-16
5.02372e-16
4.07344e-16
3.4879e-16
3.1442e-16
2.91842e-16
2.78812e-16
2.69886e-16
2.6515e-16
2.62227e-16
2.6105e-16
2.61929e-16
2.79709e-16
2.80072e-16
2.79271e-16
3.86891e-16
2.44097e-15
1.20313e-12
6.09595e-10
1.36227e-05
4.46937e-05
8.18866e-05
0.000127888
0.000181475
0.000249471
0.000344722
0.000474938
0.000624181
0.000796889
0.00101214
0.00128295
0.00161909
0.00203307
0.00252203
0.00307263
0.00368694
0.00434776
0.00492981
0.00524236
0.00535877
0.0048815
0.00405318
0.00328789
0.00241306
0.00160759
0.00102137
0.000582067
0.000396774
0.000298206
0.000254521
0.000234208
0.000223371
0.000217713
0.000214723
0.000213485
0.000213257
0.000221642
0.000235758
0.000253227
0.000272293
0.000296626
0.000320239
0.000340044
0.000353546
0.000363404
0.000370895
0.000378133
0.000383258
0.000391094
0.00039459
0.000396858
0.000397798
0.000398131
0.000398543
0.000398415
0.000396144
0.000392862
0.00039004
0.000387635
0.00038328
0.000376787
0.000371894
0.000364355
0.000347762
0.0003276
0.000301527
0.000275635
0.000253701
0.000234215
0.000216777
0.000194001
0.00018099
0.000170384
0.000154878
0.000143379
0.000131372
0.000120692
0.000110921
0.000102
9.40153e-05
8.64305e-05
7.89229e-05
7.12762e-05
6.34652e-05
5.52461e-05
4.7037e-05
3.95865e-05
3.34338e-05
2.83732e-05
2.3956e-05
1.99845e-05
1.64254e-05
1.33186e-05
1.07184e-05
8.63956e-06
7.02941e-06
5.80667e-06
4.88659e-06
4.19003e-06
3.6525e-06
3.2269e-06
2.88643e-06
2.60848e-06
2.36948e-06
2.14371e-06
1.91883e-06
1.70232e-06
1.49675e-06
1.30433e-06
1.12714e-06
9.66381e-07
8.22124e-07
6.9343e-07
5.79693e-07
4.80329e-07
3.94513e-07
3.21205e-07
2.59237e-07
2.07384e-07
1.6442e-07
1.29167e-07
1.00528e-07
7.74889e-08
5.913e-08
4.46431e-08
3.33284e-08
2.45875e-08
1.79141e-08
1.28841e-08
9.14449e-09
6.40474e-09
4.42786e-09
3.02277e-09
2.03859e-09
1.35875e-09
8.9524e-10
5.8323e-10
3.75817e-10
2.39604e-10
1.5117e-10
9.43799e-11
5.8305e-11
3.5639e-11
2.15551e-11
1.29014e-11
7.64382e-12
4.48523e-12
2.60835e-12
1.50478e-12
8.62261e-13
4.91527e-13
2.79258e-13
1.58496e-13
9.00993e-14
5.15083e-14
2.97465e-14
1.75218e-14
1.0595e-14
6.6704e-15
4.35307e-15
3.03814e-15
2.19744e-15
1.75587e-15
1.41853e-15
1.29569e-15
1.15785e-15
1.15477e-15
1.14044e-15
1.20812e-15
1.23835e-15
1.34477e-15
1.64714e-15
1.73992e-15
3.49102e-15
2.77567e-15
3.08346e-14
2.51194e-14
4.22415e-13
2.79617e-11
1.41789e-05
4.65499e-05
8.57492e-05
0.000131577
0.000185258
0.000242114
0.000301373
0.000365287
0.000446131
0.000564567
0.000742219
0.000962445
0.00120542
0.00147055
0.00174712
0.00200903
0.0022205
0.00232749
0.00235572
0.00225821
0.0020658
0.00173817
0.00138804
0.00104245
0.000728066
0.000494766
0.000363419
0.000282754
0.000248254
0.000233276
0.000227742
0.000225984
0.000225767
0.000230363
0.000239435
0.000255445
0.000282682
0.000318311
0.000343958
0.000365891
0.000392524
0.000408648
0.000435439
0.000456235
0.000471813
0.000486771
0.000497364
0.000509811
0.000529267
0.000553959
0.000563827
0.000566062
0.000548368
0.000523066
0.000513958
0.000501017
0.000474609
0.000447802
0.000422158
0.000410573
0.000396321
0.000374945
0.000363757
0.000353692
0.000336705
0.00031893
0.000296811
0.000276321
0.000259278
0.00024779
0.000235343
0.000211869
0.000196166
0.000183518
0.000167892
0.000152665
0.00013863
0.000125899
0.000114911
0.000105286
9.74274e-05
9.06686e-05
8.45371e-05
7.89754e-05
7.3662e-05
6.84336e-05
6.30022e-05
5.7207e-05
5.11865e-05
4.54191e-05
4.03575e-05
3.57289e-05
3.10283e-05
2.60674e-05
2.09787e-05
1.62684e-05
1.24026e-05
9.30807e-06
6.96923e-06
5.27407e-06
4.07927e-06
3.25071e-06
2.67095e-06
2.25277e-06
1.94491e-06
1.72648e-06
1.57731e-06
1.46057e-06
1.34865e-06
1.2234e-06
1.08984e-06
9.56601e-07
8.2862e-07
7.09484e-07
6.01129e-07
5.04341e-07
4.19193e-07
3.45282e-07
2.819e-07
2.28153e-07
1.83055e-07
1.45591e-07
1.14755e-07
8.9604e-08
6.929e-08
5.30496e-08
4.02007e-08
3.0143e-08
2.23562e-08
1.6396e-08
1.18872e-08
8.51676e-09
6.02832e-09
4.21482e-09
2.91049e-09
1.98398e-09
1.3341e-09
8.8514e-10
5.80318e-10
3.7611e-10
2.40828e-10
1.52296e-10
9.50902e-11
5.86085e-11
3.5655e-11
2.14103e-11
1.26927e-11
7.43268e-12
4.30312e-12
2.46641e-12
1.40232e-12
7.93092e-13
4.47802e-13
2.53617e-13
1.44892e-13
8.40222e-14
4.97533e-14
3.02332e-14
1.88985e-14
1.21607e-14
8.03912e-15
5.44913e-15
3.77714e-15
2.67572e-15
1.93787e-15
1.43444e-15
1.08697e-15
8.56988e-16
6.86264e-16
5.78581e-16
5.05174e-16
4.40451e-16
4.44253e-16
5.07697e-16
1.14526e-15
2.84163e-15
6.27185e-14
8.25299e-14
4.80606e-13
2.22849e-12
1.29241e-05
4.37287e-05
7.95788e-05
0.000119854
0.000166299
0.000213514
0.00026141
0.000309619
0.000361457
0.000427863
0.000515114
0.000618557
0.000729059
0.000842242
0.000956405
0.00105031
0.00109658
0.00111136
0.00105932
0.00096504
0.000834197
0.00068684
0.00053907
0.000419321
0.000326392
0.000274613
0.000249276
0.000237521
0.000233646
0.000232855
0.000234442
0.000243108
0.000260664
0.000292442
0.000336275
0.000372481
0.00040339
0.000432852
0.00047707
0.000515744
0.000561087
0.000615536
0.000680136
0.000754953
0.000842748
0.000944084
0.00104071
0.00112682
0.00121016
0.00127969
0.00131146
0.00131769
0.00125397
0.00111784
0.00104806
0.000977526
0.000879085
0.000814316
0.000689682
0.000628861
0.000583963
0.000492646
0.000441431
0.000404632
0.000365104
0.000340959
0.000311449
0.000281136
0.000261369
0.000252387
0.000247103
0.000237846
0.000223305
0.000206898
0.000193195
0.000169894
0.000149244
0.000131198
0.000117226
0.000106231
9.74491e-05
9.02446e-05
8.43949e-05
7.95232e-05
7.51427e-05
7.09342e-05
6.69806e-05
6.30928e-05
5.89979e-05
5.44356e-05
4.97315e-05
4.55262e-05
4.19457e-05
3.87608e-05
3.5502e-05
3.13431e-05
2.59034e-05
1.99533e-05
1.46438e-05
1.05282e-05
7.42791e-06
5.20308e-06
3.66905e-06
2.64704e-06
1.98248e-06
1.55e-06
1.2598e-06
1.06065e-06
9.29772e-07
8.54894e-07
8.06588e-07
7.56751e-07
6.93101e-07
6.19952e-07
5.43811e-07
4.68928e-07
3.9823e-07
3.33544e-07
2.7584e-07
2.25438e-07
1.82201e-07
1.45694e-07
1.15311e-07
9.03494e-08
7.00857e-08
5.38209e-08
4.09096e-08
3.07726e-08
2.29014e-08
1.68578e-08
1.22704e-08
8.82879e-09
6.27765e-09
4.40974e-09
3.05922e-09
2.0953e-09
1.41632e-09
9.44527e-10
6.21244e-10
4.02862e-10
2.57469e-10
1.621e-10
1.00499e-10
6.13333e-11
3.6833e-11
2.176e-11
1.26434e-11
7.22402e-12
4.0587e-12
2.24278e-12
1.21968e-12
6.53576e-13
3.45823e-13
1.81357e-13
9.47695e-14
4.97234e-14
2.65759e-14
1.4683e-14
8.48839e-15
5.17934e-15
3.34169e-15
2.27113e-15
1.61188e-15
1.18637e-15
9.09424e-16
7.13202e-16
5.79137e-16
4.84822e-16
4.03735e-16
3.84934e-16
4.84176e-16
8.38374e-16
3.98717e-15
1.47986e-14
1.0691e-13
2.71196e-13
3.2263e-12
3.33323e-12
9.08719e-12
8.8588e-12
1.10142e-05
3.85038e-05
7.00598e-05
0.000105782
0.00014606
0.000184476
0.000220586
0.000254285
0.000287242
0.000327116
0.000377634
0.000433169
0.000486378
0.000532203
0.000566367
0.000583028
0.000587629
0.000565771
0.000523175
0.000471442
0.000411663
0.000358707
0.000306006
0.000271453
0.00025182
0.000242939
0.000239933
0.0002395
0.000245663
0.000262134
0.000292756
0.000334387
0.000382703
0.000433153
0.000475353
0.00051526
0.000558486
0.000606725
0.000678455
0.000774848
0.000904488
0.00106911
0.00128178
0.001552
0.00188111
0.00225611
0.00261599
0.00291112
0.00312867
0.00323193
0.00325857
0.00307958
0.00283653
0.00241633
0.00221669
0.00192398
0.00163407
0.00151201
0.00132893
0.00117051
0.00108973
0.000947858
0.000819695
0.0006816
0.000548425
0.000466919
0.000415629
0.000366773
0.0003219
0.000292146
0.000276477
0.000263642
0.000256979
0.000252407
0.000242299
0.000217412
0.00017807
0.000146715
0.000124333
0.000109132
9.80001e-05
8.94976e-05
8.28429e-05
7.76073e-05
7.35617e-05
7.03074e-05
6.71348e-05
6.39335e-05
6.08632e-05
5.78279e-05
5.42783e-05
5.00632e-05
4.61028e-05
4.29614e-05
4.03963e-05
3.82814e-05
3.62453e-05
3.33835e-05
2.86575e-05
2.24191e-05
1.63306e-05
1.15009e-05
7.85349e-06
5.23953e-06
3.45434e-06
2.28769e-06
1.55359e-06
1.10431e-06
8.30318e-07
6.57771e-07
5.4721e-07
4.83232e-07
4.52745e-07
4.33385e-07
4.07577e-07
3.72026e-07
3.30901e-07
2.87734e-07
2.45216e-07
2.05253e-07
1.69034e-07
1.37158e-07
1.09778e-07
8.67449e-08
6.77152e-08
5.22446e-08
3.98505e-08
3.00555e-08
2.24141e-08
1.65271e-08
1.20472e-08
8.67975e-09
6.17948e-09
4.34615e-09
3.01883e-09
2.07021e-09
1.40117e-09
9.35648e-10
6.16201e-10
4.00084e-10
2.55988e-10
1.6134e-10
1.00119e-10
6.11396e-11
3.67238e-11
2.1685e-11
1.2581e-11
7.16757e-12
4.00776e-12
2.1983e-12
1.18236e-12
6.23414e-13
3.22222e-13
1.63328e-13
8.12801e-14
3.98112e-14
1.92838e-14
9.32562e-15
4.57703e-15
2.33623e-15
1.29449e-15
7.94726e-16
5.50274e-16
4.4004e-16
3.52945e-16
3.17612e-16
3.62212e-16
5.52689e-16
1.2186e-15
3.17299e-15
9.19375e-15
2.49242e-14
6.94504e-14
1.67307e-13
5.43831e-13
9.01889e-13
2.92002e-12
3.05043e-12
3.45137e-12
4.58407e-12
8.75156e-06
3.18883e-05
5.89977e-05
9.00997e-05
0.000125332
0.000158581
0.000187652
0.000212991
0.000235779
0.000260042
0.000289052
0.000321062
0.0003516
0.000375758
0.000386578
0.000390414
0.000389448
0.000371439
0.000347724
0.000322194
0.000295456
0.000276549
0.000258602
0.000250373
0.00024624
0.000244698
0.000246687
0.00025553
0.000277208
0.000311203
0.000358067
0.000411017
0.000464119
0.000517636
0.000575282
0.000644437
0.000734789
0.000853685
0.00102752
0.00127124
0.00161248
0.00207294
0.00268794
0.003471
0.00441487
0.00545941
0.00642074
0.00719563
0.00764432
0.0078233
0.00770197
0.00687456
0.00586328
0.00479054
0.00392043
0.00326335
0.00238759
0.00205443
0.00173029
0.0014462
0.00131263
0.00118205
0.00110771
0.00103284
0.000949422
0.000818789
0.000689571
0.000591723
0.000522472
0.000455343
0.000404467
0.00035559
0.000321116
0.000306964
0.000302768
0.000287374
0.000249175
0.000187995
0.000145282
0.000119248
0.000103059
9.21174e-05
8.4063e-05
7.77642e-05
7.28007e-05
6.89697e-05
6.59296e-05
6.33007e-05
6.07783e-05
5.82943e-05
5.59042e-05
5.33536e-05
5.00067e-05
4.59929e-05
4.26105e-05
4.01513e-05
3.83566e-05
3.70022e-05
3.56891e-05
3.34642e-05
2.92363e-05
2.30398e-05
1.66777e-05
1.15519e-05
7.68949e-06
4.95033e-06
3.1109e-06
1.93515e-06
1.21573e-06
7.91138e-07
5.4642e-07
4.04214e-07
3.18877e-07
2.69366e-07
2.46815e-07
2.38293e-07
2.29447e-07
2.1424e-07
1.93492e-07
1.69789e-07
1.45248e-07
1.21526e-07
9.96753e-08
8.02939e-08
6.36242e-08
4.96531e-08
3.82016e-08
2.89969e-08
2.17265e-08
1.60749e-08
1.17466e-08
8.47839e-09
6.04419e-09
4.25536e-09
2.95822e-09
2.03011e-09
1.37495e-09
9.18754e-10
6.05496e-10
3.93427e-10
2.51934e-10
1.58925e-10
9.87163e-11
6.03478e-11
3.62895e-11
2.1454e-11
1.24622e-11
7.10853e-12
3.97929e-12
2.18477e-12
1.17579e-12
6.19938e-13
3.20099e-13
1.61827e-13
8.01072e-14
3.88533e-14
1.84983e-14
8.68569e-15
4.06406e-15
1.93555e-15
9.78419e-16
5.54981e-16
3.70062e-16
2.93645e-16
2.56471e-16
2.40111e-16
2.6333e-16
3.96116e-16
8.76437e-16
2.27581e-15
6.45282e-15
1.70362e-14
4.53899e-14
1.04544e-13
3.33068e-13
4.94067e-13
1.0115e-12
1.24888e-12
1.36942e-12
1.76486e-12
6.51156e-06
2.52215e-05
4.73372e-05
7.35944e-05
0.000104937
0.000135485
0.00016149
0.000182704
0.000199945
0.000216976
0.000235399
0.000254889
0.000273996
0.000291303
0.000304587
0.000311029
0.000311985
0.000307446
0.000298184
0.000287108
0.000275518
0.000264368
0.000256063
0.000252613
0.000251818
0.000257313
0.000271928
0.000304773
0.000365435
0.000432117
0.000497198
0.000566639
0.00064129
0.00072085
0.000834817
0.000985232
0.00119477
0.00147616
0.00184892
0.00235827
0.00310176
0.00418254
0.00571896
0.00784806
0.0104768
0.0134112
0.0162315
0.0184947
0.0196128
0.019987
0.0187695
0.0165953
0.0133098
0.0107706
0.0075989
0.00603413
0.00391345
0.00299336
0.00218841
0.00168504
0.00141885
0.00124859
0.00112304
0.00104865
0.00102245
0.00100046
0.000959855
0.000898757
0.000842273
0.000792895
0.000700829
0.000579628
0.00044924
0.000366302
0.000320352
0.000302385
0.000297218
0.000266357
0.000196222
0.000141729
0.000113041
9.75621e-05
8.80247e-05
8.09176e-05
7.45331e-05
6.93553e-05
6.57988e-05
6.30884e-05
6.06043e-05
5.81245e-05
5.58163e-05
5.37514e-05
5.17669e-05
4.93303e-05
4.57824e-05
4.21331e-05
3.94348e-05
3.76274e-05
3.64389e-05
3.55886e-05
3.46082e-05
3.269e-05
2.84623e-05
2.20889e-05
1.56906e-05
1.06044e-05
6.84753e-06
4.25198e-06
2.56075e-06
1.51433e-06
8.954e-07
5.42887e-07
3.47572e-07
2.40065e-07
1.78951e-07
1.44074e-07
1.27647e-07
1.22773e-07
1.20924e-07
1.16867e-07
1.06924e-07
9.4487e-08
8.12098e-08
6.79623e-08
5.55557e-08
4.44601e-08
3.48973e-08
2.6908e-08
2.04083e-08
1.52415e-08
1.12173e-08
8.14045e-09
5.82737e-09
4.11583e-09
2.86841e-09
1.97248e-09
1.33819e-09
8.95518e-10
5.90981e-10
3.84489e-10
2.46522e-10
1.55712e-10
9.68492e-11
5.92896e-11
3.57068e-11
2.11438e-11
1.23035e-11
7.03123e-12
3.94398e-12
2.17008e-12
1.17057e-12
6.18679e-13
3.20236e-13
1.62278e-13
8.05007e-14
3.9109e-14
1.86361e-14
8.7447e-15
4.07748e-15
1.92666e-15
9.59119e-16
5.34086e-16
3.51377e-16
2.75405e-16
2.4406e-16
2.2965e-16
2.2931e-16
2.81754e-16
5.24631e-16
1.24932e-15
3.38401e-15
8.58522e-15
2.36174e-14
4.76814e-14
1.28317e-13
1.70256e-13
2.00395e-13
2.66362e-13
3.14328e-13
4.70758e-13
4.38613e-06
1.83761e-05
3.60866e-05
5.85697e-05
8.46615e-05
0.000113005
0.000139201
0.000159659
0.000174522
0.000188251
0.000202618
0.000216667
0.000230449
0.000243589
0.000257712
0.000270508
0.000281778
0.000287251
0.000287075
0.000284554
0.000276677
0.000269954
0.000267398
0.000274395
0.000279551
0.000298764
0.0003313
0.000374156
0.000428624
0.000492572
0.00056846
0.000650878
0.00076081
0.000894987
0.00104176
0.00125632
0.00157917
0.00203991
0.00271448
0.0037409
0.00536605
0.00790352
0.0116942
0.0169255
0.0236896
0.031703
0.0392682
0.0437074
0.0458356
0.0463146
0.0422112
0.03717
0.0287023
0.0227155
0.0152843
0.0109503
0.00730257
0.00526007
0.00348199
0.00251119
0.00178446
0.00142374
0.00115326
0.000976392
0.000884402
0.000863235
0.00094247
0.000982311
0.000980581
0.000985758
0.000954571
0.00085259
0.000641759
0.000435095
0.000325336
0.000296201
0.000294493
0.000291587
0.000264319
0.000194188
0.000134685
0.000105488
9.10221e-05
8.29234e-05
7.71786e-05
7.16543e-05
6.67024e-05
6.33972e-05
6.09722e-05
5.8642e-05
5.60091e-05
5.35984e-05
5.16515e-05
5.00109e-05
4.80735e-05
4.51141e-05
4.15149e-05
3.86253e-05
3.67155e-05
3.55906e-05
3.49123e-05
3.42929e-05
3.33455e-05
3.13417e-05
2.65477e-05
1.97692e-05
1.3597e-05
8.86279e-06
5.50423e-06
3.27997e-06
1.89168e-06
1.06828e-06
6.0068e-07
3.4441e-07
2.07549e-07
1.35156e-07
9.58021e-08
7.39741e-08
6.35137e-08
6.0239e-08
5.98848e-08
5.95505e-08
5.74675e-08
5.09947e-08
4.35909e-08
3.64119e-08
2.96295e-08
2.35374e-08
1.82882e-08
1.3923e-08
1.04025e-08
7.63774e-09
5.51672e-09
3.92323e-09
2.74858e-09
1.89777e-09
1.29163e-09
8.66608e-10
5.73155e-10
3.73611e-10
2.39974e-10
1.51835e-10
9.45995e-11
5.8014e-11
3.50028e-11
2.07674e-11
1.21098e-11
6.93614e-12
3.90009e-12
2.15154e-12
1.16384e-12
6.1698e-13
3.20398e-13
1.62927e-13
8.11215e-14
3.9562e-14
1.89241e-14
8.91041e-15
4.16526e-15
1.97016e-15
9.79031e-16
5.4233e-16
3.54432e-16
2.75524e-16
2.43509e-16
2.29959e-16
2.24916e-16
2.26707e-16
2.92416e-16
5.3681e-16
1.28204e-15
2.99351e-15
6.90714e-15
1.68439e-14
2.15175e-14
3.19153e-14
3.90985e-14
5.50857e-14
6.7737e-14
1.11424e-13
2.56246e-06
1.3572e-05
2.64476e-05
4.28569e-05
6.56945e-05
9.16899e-05
0.000115708
0.000138358
0.000157007
0.000168648
0.000178719
0.000193674
0.000204887
0.000215228
0.000226732
0.00024221
0.000259376
0.000276018
0.000288333
0.000292796
0.000289988
0.000287813
0.000290342
0.000300099
0.000320018
0.000348236
0.000390912
0.000457611
0.000537195
0.000625255
0.000724877
0.000829699
0.000943521
0.00108965
0.00138857
0.00192763
0.00264533
0.00364681
0.00521778
0.00760968
0.0111457
0.0165189
0.0255236
0.0384772
0.0526979
0.0657351
0.0750307
0.0814864
0.0842587
0.0847588
0.0779704
0.0702714
0.0561214
0.0413086
0.0276385
0.017092
0.0106268
0.00693296
0.00462685
0.00321351
0.00227797
0.00171931
0.0014121
0.00116181
0.000896818
0.000734094
0.000670597
0.000811754
0.000964175
0.00100844
0.000999278
0.000926019
0.000715208
0.000467429
0.000323975
0.000258793
0.000259579
0.000281082
0.000276385
0.000240514
0.000175328
0.000123698
9.61029e-05
8.36476e-05
7.75976e-05
7.28893e-05
6.82163e-05
6.38876e-05
6.10144e-05
5.90115e-05
5.69775e-05
5.42854e-05
5.16067e-05
4.96662e-05
4.82222e-05
4.64901e-05
4.38717e-05
4.04525e-05
3.74966e-05
3.55381e-05
3.44852e-05
3.40105e-05
3.36048e-05
3.30097e-05
3.1888e-05
2.92848e-05
2.32379e-05
1.63341e-05
1.07419e-05
6.68195e-06
3.96161e-06
2.25537e-06
1.2436e-06
6.71647e-07
3.6101e-07
1.9759e-07
1.13462e-07
7.0392e-08
4.77075e-08
3.54776e-08
2.96584e-08
2.77054e-08
2.74678e-08
2.76174e-08
2.75001e-08
2.61215e-08
2.232e-08
1.85172e-08
1.50001e-08
1.18314e-08
9.10342e-09
6.84539e-09
5.03947e-09
3.63791e-09
2.57857e-09
1.79649e-09
1.23122e-09
8.30541e-10
5.51634e-10
3.60812e-10
2.32414e-10
1.47418e-10
9.20574e-11
5.65794e-11
3.42131e-11
2.03457e-11
1.1893e-11
6.82999e-12
3.85138e-12