/*--------------------------------*- C++ -*----------------------------------*\
  =========                 |
  \\      /  F ield         | OpenFOAM: The Open Source CFD Toolbox
   \\    /   O peration     | Website:  https://openfoam.org
    \\  /    A nd           | Version:  7
     \\/     M anipulation  |
\*---------------------------------------------------------------------------*/
FoamFile
{
    version     2.0;
    format      ascii;
    class       volScalarField;
    location    "0.036";
    object      k_0;
}
// * * * * * * * * * * * * * * * * * * * * * * * * * * * * * * * * * * * * * //

dimensions      [0 2 -2 0 0 0 0];

internalField   nonuniform List<scalar> 
12225
(
1.94234e-05
1.80851e-05
1.6606e-05
1.54445e-05
1.38558e-05
1.26523e-05
1.18227e-05
1.00925e-05
8.35585e-06
7.89025e-06
7.96435e-06
7.90928e-06
6.94978e-06
5.25718e-06
4.3897e-06
4.1472e-06
5.02685e-06
6.03132e-06
1.99821e-05
1.98829e-05
1.96689e-05
1.94001e-05
1.91308e-05
1.86944e-05
1.87076e-05
1.82136e-05
1.75187e-05
1.6887e-05
1.62899e-05
1.59192e-05
1.55896e-05
1.53117e-05
1.52083e-05
1.52088e-05
1.64567e-05
1.62248e-05
2.00123e-05
1.93544e-05
1.92257e-05
1.91951e-05
1.91182e-05
1.9044e-05
1.90274e-05
1.89371e-05
1.87887e-05
1.86953e-05
1.85408e-05
1.82826e-05
1.79992e-05
1.77854e-05
1.76875e-05
1.767e-05
1.77164e-05
1.7816e-05
2.05479e-05
2.09319e-05
2.08282e-05
2.01449e-05
1.80506e-05
1.67632e-05
1.65212e-05
1.65703e-05
1.69214e-05
1.74428e-05
1.76039e-05
1.75949e-05
1.74312e-05
1.69853e-05
1.67486e-05
1.66867e-05
1.66914e-05
1.67508e-05
2.02394e-05
3.05364e-05
4.49882e-05
4.37592e-05
3.42097e-05
2.467e-05
2.05037e-05
1.91535e-05
1.90283e-05
1.91202e-05
1.92195e-05
1.91969e-05
1.89325e-05
1.78709e-05
1.66692e-05
1.60389e-05
1.58206e-05
1.57893e-05
2.01558e-05
2.17996e-05
2.81795e-05
3.15553e-05
3.11555e-05
2.90425e-05
2.67199e-05
2.50595e-05
2.39479e-05
2.33853e-05
2.31058e-05
2.27821e-05
2.20975e-05
2.07932e-05
1.95447e-05
1.85852e-05
1.79936e-05
1.75906e-05
2.06194e-05
2.30476e-05
3.00777e-05
3.07909e-05
2.94443e-05
2.79783e-05
2.70442e-05
2.54091e-05
2.40009e-05
2.33837e-05
2.33283e-05
2.36698e-05
2.50139e-05
2.58895e-05
2.60714e-05
2.60393e-05
2.59094e-05
2.54685e-05
2.3903e-05
2.29555e-05
2.27214e-05
2.22203e-05
2.27381e-05
2.59415e-05
2.73461e-05
2.70008e-05
2.5327e-05
2.41465e-05
2.39289e-05
2.40645e-05
2.47714e-05
2.5559e-05
2.59834e-05
2.61796e-05
2.62276e-05
2.61844e-05
2.06332e-05
2.21944e-05
2.60561e-05
2.63276e-05
2.53692e-05
2.42886e-05
2.40463e-05
2.38602e-05
2.3467e-05
2.32688e-05
2.32732e-05
2.35265e-05
2.44293e-05
2.51621e-05
2.55065e-05
2.56077e-05
2.55993e-05
2.55284e-05
2.03818e-05
2.25927e-05
2.31772e-05
2.36369e-05
2.44948e-05
2.43601e-05
2.31013e-05
2.18213e-05
2.14235e-05
2.13994e-05
2.15933e-05
2.26174e-05
2.37902e-05
2.41524e-05
2.41337e-05
2.37713e-05
2.20822e-05
2.04506e-05
2.04361e-05
2.1526e-05
2.2602e-05
2.33803e-05
2.34529e-05
2.26916e-05
2.16937e-05
2.15392e-05
2.16968e-05
2.23332e-05
2.29567e-05
2.33429e-05
2.34821e-05
2.34919e-05
2.34469e-05
2.32337e-05
2.24173e-05
2.11322e-05
2.01684e-05
2.12557e-05
2.49736e-05
2.64575e-05
2.51771e-05
2.23928e-05
2.1547e-05
2.15453e-05
2.20902e-05
2.38772e-05
2.49813e-05
2.51929e-05
2.5074e-05
2.43677e-05
2.34476e-05
2.27184e-05
2.20457e-05
2.14471e-05
2.29225e-05
2.32508e-05
2.28637e-05
2.25391e-05
2.18218e-05
2.14463e-05
2.15272e-05
2.23918e-05
2.46766e-05
2.59289e-05
2.61812e-05
2.61303e-05
2.57536e-05
2.44977e-05
2.32025e-05
2.23025e-05
2.16682e-05
2.12501e-05
2.13724e-05
2.1929e-05
2.44271e-05
2.42812e-05
2.29292e-05
2.20352e-05
2.18606e-05
2.19561e-05
2.25501e-05
2.47475e-05
2.69677e-05
2.76765e-05
2.7634e-05
2.69765e-05
2.48573e-05
2.2943e-05
2.16971e-05
2.10189e-05
2.11602e-05
2.15012e-05
2.16611e-05
2.13112e-05
2.08068e-05
2.06989e-05
2.07012e-05
2.07979e-05
2.1283e-05
2.28987e-05
2.43295e-05
2.48921e-05
2.49668e-05
2.48233e-05
2.39629e-05
2.24852e-05
2.1541e-05
2.10178e-05
2.19351e-05
2.19876e-05
2.10186e-05
2.06144e-05
2.0665e-05
2.09615e-05
2.11857e-05
2.13904e-05
2.16364e-05
2.18018e-05
2.18462e-05
2.18234e-05
2.16357e-05
2.11889e-05
2.09111e-05
2.0797e-05
2.0767e-05
2.07623e-05
2.02889e-05
2.0342e-05
2.04418e-05
2.07258e-05
2.085e-05
2.08673e-05
2.08421e-05
2.07018e-05
2.05504e-05
2.04951e-05
2.04881e-05
2.04949e-05
2.0533e-05
2.06588e-05
2.07962e-05
2.09061e-05
2.09867e-05
2.10802e-05
2.106e-05
2.08801e-05
2.07529e-05
2.11883e-05
2.17494e-05
2.18206e-05
2.16976e-05
2.12226e-05
2.08663e-05
2.0705e-05
2.06329e-05
2.05978e-05
2.057e-05
2.05336e-05
2.04947e-05
2.0472e-05
2.04655e-05
2.04715e-05
2.03551e-05
2.08389e-05
2.10101e-05
2.10644e-05
2.10062e-05
2.07914e-05
2.06569e-05
2.05773e-05
2.05495e-05
2.05518e-05
2.05644e-05
2.05668e-05
2.05665e-05
2.05684e-05
2.05896e-05
2.07152e-05
2.12843e-05
2.19771e-05
2.04472e-05
2.06308e-05
2.06294e-05
2.06706e-05
2.06638e-05
2.06723e-05
2.07546e-05
2.08692e-05
2.08851e-05
2.08571e-05
2.0885e-05
2.1101e-05
2.13538e-05
2.1468e-05
2.15319e-05
2.16358e-05
2.1909e-05
2.25293e-05
2.00716e-05
2.03219e-05
2.06105e-05
2.0648e-05
2.06132e-05
2.05443e-05
2.0526e-05
2.05242e-05
2.05256e-05
2.05345e-05
2.05702e-05
2.07034e-05
2.09551e-05
2.11349e-05
2.12405e-05
2.1294e-05
2.1314e-05
2.13243e-05
2.04571e-05
2.03394e-05
2.10166e-05
2.15242e-05
2.1514e-05
2.11837e-05
2.06111e-05
2.03049e-05
2.01773e-05
2.01421e-05
2.01418e-05
2.01665e-05
2.02772e-05
2.04118e-05
2.04892e-05
2.05261e-05
2.05379e-05
2.05429e-05
2.06838e-05
2.03758e-05
2.04669e-05
2.05843e-05
2.05677e-05
2.04456e-05
2.03249e-05
2.02585e-05
2.02186e-05
2.01975e-05
2.01902e-05
2.01903e-05
2.01991e-05
2.02283e-05
2.02497e-05
2.0259e-05
2.02607e-05
2.02603e-05
2.04759e-05
2.0225e-05
2.01409e-05
2.01325e-05
2.01374e-05
2.01796e-05
2.03138e-05
2.04171e-05
2.04638e-05
2.04733e-05
2.04637e-05
2.04011e-05
2.02507e-05
2.01319e-05
2.00593e-05
2.00273e-05
2.00204e-05
2.00207e-05
2.03607e-05
2.02164e-05
2.00524e-05
2.00394e-05
2.00636e-05
2.01351e-05
2.01783e-05
2.02041e-05
2.02333e-05
2.0243e-05
2.02353e-05
2.01925e-05
2.0152e-05
2.01353e-05
2.01319e-05
2.01333e-05
2.0144e-05
2.01824e-05
2.06905e-05
2.06063e-05
2.02558e-05
2.00506e-05
2.00531e-05
2.04422e-05
2.1044e-05
2.09716e-05
2.04859e-05
2.02215e-05
2.01381e-05
2.01155e-05
2.01126e-05
2.01164e-05
2.01396e-05
2.02273e-05
2.03202e-05
2.03938e-05
2.00943e-05
2.00405e-05
1.99941e-05
1.99005e-05
1.98379e-05
1.97329e-05
1.96939e-05
1.97155e-05
1.98372e-05
2.00819e-05
2.02404e-05
2.02976e-05
2.0314e-05
2.02991e-05
2.01877e-05
1.9787e-05
1.95083e-05
1.93395e-05
2.01793e-05
1.83474e-05
1.78801e-05
1.64068e-05
1.56184e-05
1.59598e-05
1.77585e-05
2.34651e-05
3.76851e-05
4.87557e-05
5.56772e-05
5.83571e-05
6.12403e-05
6.30699e-05
6.63246e-05
6.84619e-05
7.17063e-05
7.53331e-05
2.91522e-05
0.000122203
0.000174948
0.000183518
0.000186508
0.000198769
0.000242149
0.000365126
0.000489443
0.000562667
0.000592265
0.000598582
0.000598618
0.000596283
0.000589021
0.00058153
0.000576987
0.000575511
0.00179272
0.00220207
0.00231949
0.00228581
0.00207362
0.00186596
0.00179557
0.00178924
0.00180587
0.00182948
0.0018312
0.00181813
0.00175535
0.00159892
0.00144411
0.00131203
0.00121028
0.00114477
5.55751e-06
9.98197e-06
1.48988e-05
2.37427e-05
3.43529e-05
4.74428e-05
6.40807e-05
8.32503e-05
0.000105325
0.000130024
0.000157031
0.000185988
0.000214209
0.000245108
0.000282726
0.000303839
0.000318893
0.000357279
0.000381181
0.000433981
0.000583923
0.000952559
0.00187156
0.00499987
0.0079793
0.00907774
0.0113402
0.0185545
0.0239076
0.0183633
0.00514193
0.00167437
0.00100731
0.000895932
0.000922499
0.000955768
0.000970291
0.000956034
0.000866183
0.000757294
0.000640027
0.000494051
0.00037877
0.000282541
0.000186082
0.000137518
8.63447e-05
6.43226e-05
5.16517e-05
4.72706e-05
4.87697e-05
4.96794e-05
5.0664e-05
5.10182e-05
5.1114e-05
5.06727e-05
4.94766e-05
4.83795e-05
4.68314e-05
4.50891e-05
4.35627e-05
4.15781e-05
3.89962e-05
3.62979e-05
3.43232e-05
3.25828e-05
3.03976e-05
2.83448e-05
2.61903e-05
2.44618e-05
2.28973e-05
2.1054e-05
1.92784e-05
1.75014e-05
1.63902e-05
1.43719e-05
1.31801e-05
1.1644e-05
1.03602e-05
9.14615e-06
8.01002e-06
7.01851e-06
6.15661e-06
5.42058e-06
4.79087e-06
4.23572e-06
3.74348e-06
3.30067e-06
2.90012e-06
2.5414e-06
2.22396e-06
1.94395e-06
1.69573e-06
1.47381e-06
1.27081e-06
1.08136e-06
9.07731e-07
7.52094e-07
6.1552e-07
4.98301e-07
4.00194e-07
3.1993e-07
2.54628e-07
2.0101e-07
1.57267e-07
1.21922e-07
9.36504e-08
7.12712e-08
5.37457e-08
4.01677e-08
2.97609e-08
2.18683e-08
1.59377e-08
1.15296e-08
8.27585e-09
5.88552e-09
4.1716e-09
2.95022e-09
2.07859e-09
1.45689e-09
1.01456e-09
7.01228e-10
4.80627e-10
3.26474e-10
2.19678e-10
1.46388e-10
9.65909e-11
6.30987e-11
4.08134e-11
2.61517e-11
1.66096e-11
1.0461e-11
6.536e-12
4.05251e-12
2.49423e-12
1.52425e-12
9.25046e-13
5.57597e-13
3.33867e-13
1.98592e-13
1.17365e-13
6.89266e-14
4.02403e-14
2.33686e-14
1.35138e-14
7.79745e-15
4.50445e-15
2.62058e-15
1.55039e-15
9.46867e-16
6.09283e-16
4.22372e-16
3.20421e-16
2.66222e-16
2.38833e-16
2.26502e-16
2.22421e-16
2.22045e-16
2.22045e-16
2.22045e-16
2.22045e-16
2.22045e-16
2.22045e-16
2.22045e-16
2.22045e-16
2.22045e-16
2.22045e-16
2.22045e-16
2.22045e-16
2.22045e-16
2.22045e-16
2.22045e-16
2.22045e-16
2.22045e-16
2.22045e-16
2.22045e-16
1.7089e-15
7.15084e-13
3.32476e-10
1.48061e-07
1.12889e-05
3.07636e-05
5.32692e-05
8.58849e-05
0.00012875
0.000183493
0.000249043
0.000324863
0.000410082
0.000505139
0.000609531
0.000725953
0.000855157
0.00100321
0.00118786
0.00138072
0.00152342
0.001677
0.00206785
0.00325764
0.00611507
0.00975666
0.0131608
0.0151566
0.0154697
0.0145642
0.0132238
0.01163
0.00786337
0.00373092
0.00152654
0.000872931
0.000658263
0.000566299
0.000500069
0.000448138
0.000379398
0.000319034
0.000272365
0.000228164
0.000203876
0.000180713
0.000170938
0.000166526
0.000165335
0.000168922
0.000173285
0.000176582
0.000183311
0.000188687
0.000194947
0.000200193
0.000203591
0.00020598
0.000207016
0.000207232
0.000205016
0.000201248
0.000196157
0.000188063
0.000180008
0.000168968
0.00015544
0.000142615
0.000132569
0.00012336
0.000114412
0.000107001
9.93954e-05
9.22178e-05
8.65001e-05
7.97476e-05
7.45531e-05
6.84516e-05
6.3178e-05
5.76549e-05
5.24274e-05
4.71748e-05
4.21046e-05
3.72624e-05
3.2531e-05
2.81418e-05
2.4205e-05
2.0796e-05
1.80544e-05
1.58713e-05
1.40048e-05
1.23831e-05
1.097e-05
9.73215e-06
8.64038e-06
7.67251e-06
6.81276e-06
6.0492e-06
5.37459e-06
4.78128e-06
4.25523e-06
3.78402e-06
3.35697e-06
2.96021e-06
2.5853e-06
2.23351e-06
1.90895e-06
1.61582e-06
1.3556e-06
1.12787e-06
9.30662e-07
7.61496e-07
6.17794e-07
4.96944e-07
3.96371e-07
3.13584e-07
2.46194e-07
1.91881e-07
1.48476e-07
1.14003e-07
8.67097e-08
6.52732e-08
4.8614e-08
3.58128e-08
2.60902e-08
1.87933e-08
1.33828e-08
9.42033e-09
6.55417e-09
4.50704e-09
3.06354e-09
2.05838e-09
1.36701e-09
8.97913e-10
5.83923e-10
3.7606e-10
2.3992e-10
1.5168e-10
9.50591e-11
5.90763e-11
3.64192e-11
2.22774e-11
1.35237e-11
8.14842e-12
4.87331e-12
2.89307e-12
1.70488e-12
9.97359e-13
5.79277e-13
3.34108e-13
1.91427e-13
1.0901e-13
6.17511e-14
3.48405e-14
1.96165e-14
1.1054e-14
6.2616e-15
3.58927e-15
2.10235e-15
1.27543e-15
8.15104e-16
5.58542e-16
4.15028e-16
3.34358e-16
2.88597e-16
2.624e-16
2.47142e-16
2.3815e-16
2.32701e-16
2.2937e-16
2.27249e-16
2.25902e-16
2.25009e-16
2.24408e-16
2.24028e-16
2.23742e-16
2.23608e-16
2.23511e-16
2.23492e-16
2.2362e-16
3.00957e-16
4.42459e-14
2.59582e-11
1.34624e-08
1.12524e-05
3.90054e-05
7.33343e-05
0.000117221
0.000172581
0.000245208
0.000334756
0.000446965
0.000579334
0.000730002
0.000908544
0.00112595
0.00139286
0.00172857
0.0021662
0.00277062
0.00359714
0.00466028
0.00589745
0.00723011
0.008648
0.00979703
0.0104591
0.0097913
0.00843712
0.00658481
0.00455641
0.00225477
0.00136537
0.000725787
0.000459623
0.000352015
0.000299569
0.000264105
0.000237115
0.000217713
0.000203831
0.000194604
0.000189951
0.000187347
0.000186533
0.000186487
0.000191108
0.000198665
0.000208583
0.000220012
0.000230373
0.000244405
0.000260768
0.000280149
0.000298426
0.00031435
0.000325978
0.00033494
0.000341494
0.000345914
0.000348605
0.000349575
0.000349741
0.000348248
0.000342504
0.00033337
0.000321053
0.000302934
0.00027992
0.000256202
0.000232086
0.000210356
0.000193761
0.00017532
0.000164208
0.000149392
0.000141518
0.000133033
0.000121176
0.000114162
0.000105032
9.6723e-05
8.82172e-05
7.9887e-05
7.15303e-05
6.25291e-05
5.31745e-05
4.41354e-05
3.63346e-05
3.05808e-05
2.6038e-05
2.21548e-05
1.88491e-05
1.60154e-05
1.35877e-05
1.15294e-05
9.80985e-06
8.39414e-06
7.24054e-06
6.30275e-06
5.53536e-06
4.89862e-06
4.36108e-06
3.90405e-06
3.51154e-06
3.1653e-06
2.85058e-06
2.55832e-06
2.28161e-06
2.0181e-06
1.76926e-06
1.53711e-06
1.32315e-06
1.1283e-06
9.52821e-07
7.96512e-07
6.58964e-07
5.39713e-07
4.3765e-07
3.51375e-07
2.79357e-07
2.199e-07
1.71334e-07
1.32092e-07
1.00738e-07
7.59747e-08
5.66495e-08
4.1751e-08
3.04081e-08
2.18823e-08
1.55576e-08
1.0929e-08
7.58793e-09
5.20844e-09
3.53555e-09
2.37393e-09
1.57664e-09
1.03582e-09
6.73275e-10
4.33096e-10
2.75856e-10
1.7406e-10
1.0883e-10
6.74387e-11
4.14203e-11
2.52158e-11
1.52153e-11
9.10007e-12
5.3949e-12
3.17067e-12
1.84779e-12
1.06821e-12
6.1292e-13
3.49328e-13
1.97967e-13
1.11702e-13
6.28594e-14
3.53557e-14
1.99306e-14
1.13036e-14
6.48219e-15
3.78721e-15
2.27488e-15
1.42378e-15
9.39237e-16
6.62674e-16
5.0049e-16
4.06202e-16
3.48081e-16
3.13957e-16
2.9153e-16
2.78588e-16
2.69716e-16
2.6501e-16
2.62107e-16
2.60938e-16
2.61831e-16
2.79769e-16
2.79751e-16
2.79034e-16
3.86453e-16
2.43906e-15
1.20294e-12
6.09253e-10
1.36184e-05
4.46839e-05
8.18797e-05
0.000127839
0.000181397
0.000249375
0.0003446
0.000474821
0.000624038
0.000796572
0.00101148
0.00128173
0.00161701
0.00202973
0.00251695
0.00306539
0.00367737
0.00433537
0.00491295
0.0052201
0.0053338
0.00485108
0.00403085
0.00326935
0.00239855
0.00159588
0.00101499
0.000579569
0.000395094
0.000297576
0.000254238
0.000234064
0.000223265
0.000217648
0.000214699
0.000213482
0.00021325
0.000221626
0.000235827
0.000253363
0.000272329
0.000296501
0.0003201
0.00033993
0.000353451
0.000363271
0.000370687
0.000377913
0.000383018
0.000390842
0.00039433
0.000396564
0.000397482
0.000397789
0.000398187
0.0003981
0.000395947
0.000392733
0.000389954
0.000387601
0.000383395
0.00037704
0.000372203
0.000364827
0.000348318
0.000328175
0.000302085
0.000276047
0.000253946
0.000234301
0.000216848
0.000194012
0.000180876
0.000170278
0.000154759
0.000143254
0.000131258
0.000120591
0.000110836
0.000101922
9.39353e-05
8.63447e-05
7.88263e-05
7.11673e-05
6.33421e-05
5.51091e-05
4.6905e-05
3.94692e-05
3.33351e-05
2.82887e-05
2.38794e-05
1.9915e-05
1.63638e-05
1.32663e-05
1.06762e-05
8.6071e-06
7.00513e-06
5.78892e-06
4.87371e-06
4.18059e-06
3.64541e-06
3.22145e-06
2.88228e-06
2.60516e-06
2.36654e-06
2.1406e-06
1.91566e-06
1.6992e-06
1.49373e-06
1.30147e-06
1.12449e-06
9.6396e-07
8.19935e-07
6.91465e-07
5.77953e-07
4.78808e-07
3.932e-07
3.20084e-07
2.58291e-07
2.06593e-07
1.63766e-07
1.28632e-07
1.00095e-07
7.71409e-08
5.88537e-08
4.4426e-08
3.31598e-08
2.4458e-08
1.7816e-08
1.28107e-08
9.09039e-09
6.36548e-09
4.39981e-09
3.00303e-09
2.02491e-09
1.34939e-09
8.88922e-10
5.79022e-10
3.73048e-10
2.37804e-10
1.50013e-10
9.36447e-11
5.78428e-11
3.53517e-11
2.13784e-11
1.2794e-11
7.57931e-12
4.4469e-12
2.58582e-12
1.49167e-12
8.5471e-13
4.87214e-13
2.76812e-13
1.57117e-13
8.93253e-14
5.10749e-14
2.95043e-14
1.73864e-14
1.05184e-14
6.62603e-15
4.32689e-15
3.0221e-15
2.18743e-15
1.74913e-15
1.41399e-15
1.29215e-15
1.15523e-15
1.15236e-15
1.13826e-15
1.20585e-15
1.236e-15
1.34214e-15
1.64372e-15
1.73596e-15
3.48189e-15
2.76709e-15
3.07677e-14
2.50589e-14
4.21939e-13
2.79446e-11
1.41708e-05
4.65274e-05
8.56975e-05
0.000131472
0.000185108
0.000241928
0.000301175
0.000365062
0.000445727
0.000563702
0.000740655
0.000960108
0.00120214
0.00146605
0.00174121
0.00200149
0.00221054
0.00231641
0.00234404
0.0022467
0.00205432
0.00172829
0.00138016
0.00103646
0.000724206
0.000492245
0.000362071
0.000282288
0.000248015
0.000233176
0.000227688
0.000225947
0.000225736
0.000230416
0.000239541
0.000255548
0.000282714
0.000318346
0.000344173
0.000365882
0.000392595
0.000408655
0.000435205
0.000456094
0.000471641
0.000486592
0.000497111
0.000509176
0.000528187
0.000552987
0.00056296
0.000565301
0.000548086
0.000522012
0.000512623
0.000500052
0.000474109
0.000447423
0.000421687
0.000410087
0.000396149
0.000375041
0.00036379
0.000353925
0.000337153
0.000319459
0.000297383
0.00027683
0.000259536
0.000247869
0.000235429
0.000211881
0.000196024
0.000183354
0.000167701
0.000152496
0.000138485
0.000125785
0.000114821
0.000105216
9.73706e-05
9.06155e-05
8.44872e-05
7.89235e-05
7.36036e-05
6.83667e-05
6.29223e-05
5.71132e-05
5.10833e-05
4.53192e-05
4.02672e-05
3.56398e-05
3.09342e-05
2.59685e-05
2.08814e-05
1.6186e-05
1.23362e-05
9.25686e-06
6.93194e-06
5.24792e-06
4.06148e-06
3.2388e-06
2.66279e-06
2.24705e-06
1.9409e-06
1.72411e-06
1.57584e-06
1.45939e-06
1.34721e-06
1.22158e-06
1.08787e-06
9.54589e-07
8.26668e-07
7.07657e-07
5.9946e-07
5.02847e-07
4.17877e-07
3.4414e-07
2.80921e-07
2.27325e-07
1.82362e-07
1.45017e-07
1.14284e-07
8.92211e-08
6.89822e-08
5.28048e-08
4.00082e-08
2.99933e-08
2.22411e-08
1.63086e-08
1.18215e-08
8.46812e-09
5.99273e-09
4.18913e-09
2.89218e-09
1.9711e-09
1.32516e-09
8.7904e-10
5.76219e-10
3.73386e-10
2.3904e-10
1.51138e-10
9.43497e-11
5.81414e-11
3.53644e-11
2.1232e-11
1.25849e-11
7.3684e-12
4.26533e-12
2.44448e-12
1.38976e-12
7.85979e-13
4.43811e-13
2.51393e-13
1.43656e-13
8.33343e-14
4.93676e-14
3.00138e-14
1.87711e-14
1.20848e-14
7.9926e-15
5.41982e-15
3.75821e-15
2.66324e-15
1.92949e-15
1.42872e-15
1.0831e-15
8.54269e-16
6.84324e-16
5.77238e-16
5.04079e-16
4.39729e-16
4.43632e-16
5.07354e-16
1.14587e-15
2.84575e-15
6.27827e-14
8.26123e-14
4.80917e-13
2.22826e-12
1.29127e-05
4.36941e-05
7.95015e-05
0.000119723
0.000166118
0.000213288
0.000261135
0.000309276
0.000360966
0.000427098
0.000513987
0.000617027
0.000727047
0.000839588
0.000952872
0.001046
0.00109183
0.00110641
0.00105424
0.000960199
0.000829854
0.00068351
0.000536593
0.000417686
0.000325556
0.000274139
0.000249048
0.000237431
0.000233593
0.000232821
0.000234455
0.000243128
0.000260713
0.000292561
0.000336561
0.000372939
0.00040373
0.000432816
0.00047696
0.000515916
0.000561259
0.000615586
0.000679916
0.000754563
0.000842057
0.000943326
0.0010401
0.00112572
0.00120783
0.00127638
0.00130808
0.00131459
0.00125288
0.00111668
0.00104492
0.000975284
0.000877341
0.000813097
0.000688793
0.000627088
0.000582592
0.000492161
0.000440579
0.000404174
0.000364996
0.000340983
0.000311674
0.000281368
0.000261386
0.000252331
0.000247054
0.000237729
0.000223068
0.000206486
0.000192707
0.000169465
0.000148936
0.000130998
0.000117097
0.000106141
9.73802e-05
9.01932e-05
8.43561e-05
7.94918e-05
7.5105e-05
7.0895e-05
6.69392e-05
6.30441e-05
5.8937e-05
5.43613e-05
4.9655e-05
4.54586e-05
4.18859e-05
3.87028e-05
3.5434e-05
3.12484e-05
2.57893e-05
1.98398e-05
1.45534e-05
1.04584e-05
7.37684e-06
5.16741e-06
3.64517e-06
2.63164e-06
1.97279e-06
1.54379e-06
1.25574e-06
1.058e-06
9.28383e-07
8.54352e-07
8.06246e-07
7.56142e-07
6.92172e-07
6.18856e-07
5.42649e-07
4.67775e-07
3.97136e-07
3.32541e-07
2.74946e-07
2.24658e-07
1.81534e-07
1.45133e-07
1.14845e-07
8.99686e-08
6.9778e-08
5.35753e-08
4.07158e-08
3.06213e-08
2.27847e-08
1.67689e-08
1.22034e-08
8.77893e-09
6.24101e-09
4.38314e-09
3.04017e-09
2.08183e-09
1.40693e-09
9.38071e-10
6.16868e-10
3.99937e-10
2.55544e-10
1.60852e-10
9.97023e-11
6.08328e-11
3.65238e-11
2.15721e-11
1.25312e-11
7.15816e-12
4.02072e-12
2.22126e-12
1.20771e-12
6.47033e-13
3.42307e-13
1.79497e-13
9.37989e-14
4.92225e-14
2.63188e-14
1.455e-14
8.41836e-15
5.14136e-15
3.32022e-15
2.2584e-15
1.60393e-15
1.18124e-15
9.05977e-16
7.10806e-16
5.77494e-16
4.83582e-16
4.02933e-16
3.84467e-16
4.83936e-16
8.39146e-16
3.99531e-15
1.48377e-14
1.07062e-13
2.71775e-13
3.23025e-12
3.33725e-12
9.09365e-12
8.86371e-12
1.10014e-05
3.84617e-05
6.99724e-05
0.000105638
0.000145867
0.000184247
0.000220323
0.000253977
0.00028683
0.000326502
0.000376771
0.000432075
0.000485079
0.0005307
0.000564626
0.000581164
0.000585714
0.00056388
0.000521398
0.000469867
0.000410344
0.0003578
0.000305487
0.000271139
0.000251694
0.000242877
0.00023989
0.000239461
0.000245678
0.000262221
0.000292891
0.000334595
0.000382864
0.000433187
0.000475462
0.000515513
0.000558944
0.000607178
0.000678713
0.000775104
0.000904816
0.00106932
0.00128165
0.00155115
0.00187912
0.00225347
0.00261351
0.00290794
0.00312388
0.00322662
0.00325316
0.00307505
0.00283579
0.00241326
0.00221212
0.00192355
0.00163227
0.00151036
0.00132854
0.00116955
0.00108899
0.000946957
0.000817921
0.000679783
0.000546608
0.000465996
0.000414839
0.000366215
0.000321333
0.000291514
0.000275859
0.000263112
0.000256455
0.000251695
0.000241223
0.000216189
0.000177278
0.000146222
0.000124049
0.000108958
9.7885e-05
8.94143e-05
8.27803e-05
7.75602e-05
7.35353e-05
7.02848e-05
6.71072e-05
6.3901e-05
6.08286e-05
5.77853e-05
5.4218e-05
4.99921e-05
4.60424e-05
4.29121e-05
4.0355e-05
3.82455e-05
3.62033e-05
3.33129e-05
2.85457e-05
2.22939e-05
1.62231e-05
1.14183e-05
7.79267e-06
5.19706e-06
3.42611e-06
2.26976e-06
1.54265e-06
1.09782e-06
8.26425e-07
6.55377e-07
5.45792e-07
4.82655e-07
4.52629e-07
4.33262e-07
4.07234e-07
3.71499e-07
3.30274e-07
2.87066e-07
2.44555e-07
2.04632e-07
1.68472e-07
1.36665e-07
1.09357e-07
8.6392e-08
6.74252e-08
5.20102e-08
3.96639e-08
2.9909e-08
2.23006e-08
1.64403e-08
1.19817e-08
8.63089e-09
6.14351e-09
4.32001e-09
3.00007e-09
2.05694e-09
1.3919e-09
9.29266e-10
6.11868e-10
3.97184e-10
2.54077e-10
1.60099e-10
9.93255e-11
6.06409e-11
3.64153e-11
2.14974e-11
1.24689e-11
7.10181e-12
3.9699e-12
2.17692e-12
1.17053e-12
6.16992e-13
3.1881e-13
1.61553e-13
8.03761e-14
3.93602e-14
1.90633e-14
9.21972e-15
4.52684e-15
2.31265e-15
1.28338e-15
7.89311e-16
5.47644e-16
4.38559e-16
3.52014e-16
3.173e-16
3.62188e-16
5.53242e-16
1.22043e-15
3.17772e-15
9.20498e-15
2.49496e-14
6.95075e-14
1.67431e-13
5.44135e-13
9.02457e-13
2.92204e-12
3.05261e-12
3.45368e-12
4.58684e-12
8.73942e-06
3.18456e-05
5.89111e-05
8.99581e-05
0.000125143
0.000158363
0.000187411
0.000212724
0.000235456
0.000259603
0.000288453
0.000320305
0.000350708
0.000374862
0.000385688
0.000389515
0.000388599
0.00037078
0.000347199
0.000321828
0.000295214
0.000276435
0.000258575
0.000250396
0.00024628
0.000244728
0.00024676
0.000255601
0.00027727
0.000311271
0.000358188
0.00041126
0.000464404
0.000517842
0.000575537
0.000644793
0.000735402
0.000854537
0.00102834
0.00127191
0.00161303
0.00207334
0.00268776
0.0034695
0.00441138
0.0054549
0.0064161
0.00718929
0.00763616
0.0078147
0.00769306
0.00687341
0.00586402
0.0047862
0.0039166
0.00326693
0.00238745
0.00205265
0.0017318
0.00144668
0.00131297
0.00118293
0.00110874
0.00103366
0.000949298
0.000816954
0.000687242
0.00058975
0.000520744
0.00045361
0.000402811
0.000354291
0.00032013
0.000306172
0.000302271
0.000286663
0.000247594
0.000186683
0.000144582
0.000118876
0.000102845
9.19773e-05
8.39612e-05
7.76877e-05
7.27442e-05
6.89285e-05
6.58982e-05
6.32727e-05
6.07493e-05
5.82653e-05
5.58737e-05
5.3312e-05
4.99426e-05
4.59258e-05
4.256e-05
4.01149e-05
3.83293e-05
3.69805e-05
3.56602e-05
3.34054e-05
2.91316e-05
2.29111e-05
1.65639e-05
1.14638e-05
7.62499e-06
4.90583e-06
3.08181e-06
1.91706e-06
1.20497e-06
7.84978e-07
5.42971e-07
4.02233e-07
3.17738e-07
2.68842e-07
2.46718e-07
2.38318e-07
2.29372e-07
2.1402e-07
1.93176e-07
1.6942e-07
1.44866e-07
1.21156e-07
9.93364e-08
7.99949e-08
6.33686e-08
4.94404e-08
3.80285e-08
2.88588e-08
2.16182e-08
1.59914e-08
1.16832e-08
8.43091e-09
6.00913e-09
4.22983e-09
2.93987e-09
2.01711e-09
1.36587e-09
9.12495e-10
6.01244e-10
3.9058e-10
2.50056e-10
1.57705e-10
9.79357e-11
5.98564e-11
3.59853e-11
2.12688e-11
1.23514e-11
7.04345e-12
3.94176e-12
2.16355e-12
1.16403e-12
6.13552e-13
3.16704e-13
1.60062e-13
7.9209e-14
3.84065e-14
1.82811e-14
8.58249e-15
4.01613e-15
1.91377e-15
9.68722e-16
5.50721e-16
3.6823e-16
2.92842e-16
2.5609e-16
2.39985e-16
2.63459e-16
3.96757e-16
8.78146e-16
2.27978e-15
6.46173e-15
1.70554e-14
4.54317e-14
1.0463e-13
3.33287e-13
4.94413e-13
1.01235e-12
1.2496e-12
1.37019e-12
1.76586e-12
6.50119e-06
2.51836e-05
4.72595e-05
7.34647e-05
0.000104757
0.000135278
0.000161273
0.000182479
0.000199691
0.000216661
0.000235
0.000254394
0.000273412
0.000290662
0.000303943
0.000310523
0.000311553
0.000307166
0.000298056
0.000287114
0.000275624
0.000264505
0.000256176
0.000252717
0.000251937
0.000257474
0.000272123
0.000304823
0.000365415
0.000432235
0.000497363
0.000566828
0.000641906
0.000721762
0.000835715
0.000986246
0.00119593
0.00147772
0.00185072
0.00235958
0.00310216
0.00418265
0.00571876
0.00784654
0.0104732
0.0134075
0.0162285
0.0184882
0.0196044
0.0199774
0.0187558
0.0165897
0.0133078
0.0107649
0.00759801
0.00603652
0.00391331
0.00298895
0.00218984
0.00168492
0.00141937
0.00124906
0.00112407
0.00105026
0.00102464
0.00100154
0.000960257
0.000897603
0.000840144
0.000790227
0.000697973
0.000577028
0.000447702
0.0003659
0.000320435
0.000302489
0.000296975
0.000265075
0.00019453
0.000140887
0.000112634
9.73478e-05
8.78874e-05
8.08058e-05
7.44334e-05
6.92892e-05
6.57546e-05
6.3053e-05
6.05692e-05
5.80912e-05
5.57869e-05
5.37255e-05
5.17373e-05
4.92819e-05
4.57148e-05
4.20766e-05
3.93957e-05
3.76024e-05
3.64224e-05
3.55749e-05
3.45846e-05
3.2637e-05
2.8353e-05
2.19573e-05
1.55779e-05
1.05175e-05
6.78535e-06
4.21027e-06
2.53432e-06
1.4984e-06
8.86227e-07
5.37803e-07
3.44832e-07
2.38578e-07
1.78125e-07
1.43666e-07
1.27544e-07
1.22817e-07
1.20959e-07
1.16816e-07
1.0676e-07
9.42957e-08
8.10015e-08
6.77556e-08
5.53635e-08
4.42894e-08
3.47514e-08
2.67871e-08
2.03109e-08
1.51647e-08
1.11581e-08
8.09558e-09
5.79395e-09
4.09135e-09
2.85074e-09
1.95991e-09
1.32938e-09
8.89437e-10
5.86843e-10
3.81714e-10
2.44689e-10
1.54519e-10
9.60853e-11
5.88081e-11
3.54083e-11
2.09618e-11
1.21944e-11
6.96708e-12
3.90692e-12
2.14908e-12
1.15891e-12
6.12332e-13
3.16853e-13
1.60514e-13
7.96012e-14
3.86605e-14
1.84176e-14
8.64072e-15
4.02915e-15
1.90472e-15
9.4939e-16
5.2987e-16
3.49595e-16
2.74669e-16
2.43748e-16
2.29548e-16
2.29299e-16
2.82155e-16
5.25846e-16
1.25206e-15
3.39003e-15
8.59793e-15
2.36466e-14
4.77348e-14
1.284e-13
1.7045e-13
2.006e-13
2.66575e-13
3.14567e-13
4.71097e-13
4.37849e-06
1.83461e-05
3.60216e-05
5.84586e-05
8.45023e-05
0.00011281
0.000138993
0.00015946
0.000174324
0.000188017
0.000202333
0.000216342
0.00023007
0.000243147
0.000257226
0.000270041
0.000281367
0.000287085
0.000287033
0.000284621
0.000276841
0.000270201
0.00026769
0.000274819
0.000280056
0.000299226
0.000331734
0.000374612
0.000429017
0.000492798
0.000568775
0.000651152
0.000760973
0.000895362
0.00104292
0.00125787
0.00158089
0.00204211
0.00271734
0.003744
0.00536877
0.00790616
0.011697
0.0169263
0.0236878
0.0317002
0.0392755
0.043713
0.0458415
0.0463197
0.0422119
0.0371699
0.0286925
0.0227096
0.0152953
0.0109567
0.00730689
0.00526183
0.00348495
0.0025109
0.00178389
0.00142273
0.00115225
0.000976652
0.000884645
0.000865743
0.000945297
0.000983235
0.00098068
0.000985403
0.000953846
0.00085134
0.000640391
0.000434678
0.000325519
0.000296665
0.000294891
0.000291449
0.000263386
0.000192438
0.000133785
0.000105087
9.08358e-05
8.28162e-05
7.70903e-05
7.15596e-05
6.66339e-05
6.33535e-05
6.09374e-05
5.86016e-05
5.59666e-05
5.3565e-05
5.16267e-05
4.99867e-05
4.80355e-05
4.50524e-05
4.14549e-05
3.8583e-05
3.669e-05
3.55768e-05
3.49028e-05
3.42811e-05
3.33217e-05
3.12839e-05
2.64229e-05
1.96359e-05
1.34894e-05
8.78328e-06
5.44972e-06
3.24495e-06
1.87041e-06
1.05598e-06
5.9386e-07
3.40762e-07
2.05649e-07
1.34168e-07
9.5272e-08
7.37096e-08
6.34341e-08
6.02599e-08
5.99259e-08
5.95782e-08
5.74257e-08
5.08758e-08
4.34781e-08
3.63e-08
2.95246e-08
2.34441e-08
1.82086e-08
1.38576e-08
1.03503e-08
7.59715e-09
5.48591e-09
3.90033e-09
2.73188e-09
1.8858e-09
1.28319e-09
8.60757e-10
5.6916e-10
3.70925e-10
2.38196e-10
1.50676e-10
9.38559e-11
5.75444e-11
3.47112e-11
2.05893e-11
1.20029e-11
6.87311e-12
3.8636e-12
2.13082e-12
1.1523e-12
6.10683e-13
3.17032e-13
1.61167e-13
8.02203e-14
3.9111e-14
1.87035e-14
8.805e-15
4.11607e-15
1.94775e-15
9.69065e-16
5.38004e-16
3.52598e-16
2.74766e-16
2.432e-16
2.29835e-16
2.24882e-16
2.26742e-16
2.92927e-16
5.38292e-16
1.28544e-15
3.00055e-15
6.9233e-15
1.68774e-14
2.15627e-14
3.19734e-14
3.91589e-14
5.5157e-14
6.78186e-14
1.11536e-13
2.55667e-06
1.35482e-05
2.63996e-05
4.27705e-05
6.55603e-05
9.1518e-05
0.000115516
0.000138161
0.000156822
0.000168468
0.000178508
0.000193424
0.000204632
0.000214951
0.000226391
0.00024181
0.000258977
0.000275699
0.00028824
0.000292997
0.000290396
0.000288262
0.000290803
0.000300382
0.000320214
0.000348355
0.000390861
0.000457544
0.00053729
0.000625702
0.000725655
0.000831079
0.000945611
0.00109178
0.00139005
0.00192923
0.00264853
0.00365135
0.00522399
0.00761887
0.0111577
0.0165302
0.0255335
0.0384973
0.0527181
0.0657639
0.0750555
0.0815039
0.0842704
0.084766
0.0779598
0.0702607
0.0561071
0.0412754
0.0276154
0.0170949
0.0106262
0.0069403
0.00463149
0.00321665
0.00227949
0.00172058
0.00141237
0.00115964
0.000894131
0.000733455
0.000671464
0.000815428
0.000965742
0.00100909
0.000999622
0.000925984
0.000714767
0.000467122
0.000324254
0.000259775
0.000260859
0.000281692
0.000276326
0.00023977
0.00017416
0.000122941
9.5751e-05
8.35108e-05
7.75199e-05
7.28174e-05
6.81372e-05
6.38289e-05
6.09795e-05
5.89816e-05
5.69389e-05
5.42349e-05
5.1568e-05
4.96402e-05
4.82001e-05
4.6456e-05
4.38169e-05
4.03928e-05
3.7453e-05
3.55129e-05
3.44748e-05
3.40053e-05
3.35979e-05
3.29964e-05
3.18585e-05
2.92049e-05
2.30985e-05
1.62094e-05
1.06469e-05
6.61568e-06
3.91866e-06
2.2292e-06
1.22847e-06
6.63292e-07
3.56571e-07
1.95304e-07
1.12311e-07
6.98112e-08
4.74046e-08
3.53288e-08
2.96096e-08
2.77103e-08
2.74903e-08
2.76401e-08
2.75111e-08
2.60856e-08
2.22544e-08
1.84592e-08
1.49459e-08
1.17831e-08
9.06234e-09
6.81182e-09
5.01296e-09
3.61759e-09
2.5634e-09
1.78542e-09
1.22332e-09
8.25005e-10
5.47826e-10
3.58237e-10
2.30702e-10
1.46298e-10
9.13369e-11
5.61234e-11
3.39292e-11
2.0172e-11
1.17885e-11
6.76822e-12
3.81553e-12
2.11083e-12
1.14531e-12