/*--------------------------------*- C++ -*----------------------------------*\
  =========                 |
  \\      /  F ield         | OpenFOAM: The Open Source CFD Toolbox
   \\    /   O peration     | Website:  https://openfoam.org
    \\  /    A nd           | Version:  7
     \\/     M anipulation  |
\*---------------------------------------------------------------------------*/
FoamFile
{
    version     2.0;
    format      ascii;
    class       volScalarField;
    location    "0.036";
    object      pMean;
}
// * * * * * * * * * * * * * * * * * * * * * * * * * * * * * * * * * * * * * //

dimensions      [0 2 -2 0 0 0 0];

internalField   nonuniform List<scalar> 
12225
(
-1.08
0.00843111
0.422689
0.522773
0.561339
0.578865
0.576762
0.553745
0.513902
0.463677
0.408707
0.349976
0.28763
0.212495
0.121955
-0.0243248
-0.227621
-0.74865
-0.753142
0.0202012
0.419712
0.527665
0.562078
0.577299
0.575477
0.553825
0.515261
0.46625
0.411798
0.354485
0.291244
0.220568
0.124601
0.00566307
-0.204814
-0.429321
-0.580004
0.0027495
0.39813
0.52782
0.56263
0.576566
0.576655
0.558397
0.523691
0.477816
0.426117
0.369614
0.308533
0.236039
0.149131
0.030033
-0.122651
-0.323751
-0.386112
0.0386261
0.40034
0.54101
0.574609
0.584263
0.583391
0.567308
0.535332
0.492152
0.441859
0.387276
0.326169
0.257736
0.172572
0.0703853
-0.0620024
-0.212255
-0.216084
0.077174
0.397582
0.546526
0.584052
0.591222
0.58937
0.575178
0.546433
0.506061
0.458404
0.40557
0.347359
0.281195
0.203721
0.11204
0.00468258
-0.108553
-0.0560139
0.133617
0.407767
0.558288
0.601035
0.606119
0.601793
0.58821
0.56187
0.52422
0.478723
0.427978
0.372064
0.309869
0.239332
0.159387
0.0721252
-0.0168235
0.0928232
0.199657
0.426172
0.571438
0.619289
0.62345
0.616437
0.602448
0.578123
0.543226
0.500491
0.452319
0.399534
0.34171
0.278243
0.209359
0.13764
0.067844
0.230687
0.276563
0.45692
0.590871
0.641835
0.646209
0.636864
0.621923
0.598922
0.566393
0.526066
0.480468
0.431051
0.377974
0.321451
0.262153
0.202769
0.146942
0.347189
0.356275
0.496749
0.615603
0.666973
0.672354
0.661328
0.644861
0.622313
0.591931
0.554428
0.511775
0.465734
0.417205
0.366959
0.31592
0.266377
0.220913
0.46885
0.443439
0.548209
0.649268
0.697571
0.703503
0.691353
0.673436
0.650892
0.621953
0.586774
0.547065
0.504604
0.460564
0.415959
0.371793
0.329856
0.291958
0.5814
0.531254
0.606951
0.690083
0.732978
0.738703
0.725849
0.706477
0.683373
0.655521
0.622563
0.585566
0.546333
0.506264
0.466518
0.427979
0.392031
0.359825
0.682433
0.615333
0.66899
0.735923
0.771711
0.775715
0.762073
0.741596
0.717778
0.690395
0.659016
0.624436
0.588093
0.551319
0.515323
0.480917
0.449158
0.420732
0.77956
0.69965
0.735374
0.787519
0.815604
0.817046
0.802395
0.780818
0.756299
0.729049
0.698806
0.666018
0.631985
0.597988
0.56514
0.534074
0.505622
0.480173
0.893957
0.800435
0.818577
0.855448
0.873803
0.870674
0.854007
0.830941
0.805121
0.777509
0.748116
0.717215
0.685642
0.654369
0.624367
0.59622
0.570567
0.547545
1.01408
0.914015
0.919492
0.941797
0.949201
0.939808
0.919922
0.894971
0.867978
0.839811
0.810617
0.78071
0.750826
0.721757
0.694232
0.668585
0.645222
0.62415
1.16327
1.05425
1.04571
1.05394
1.04932
1.03135
1.00604
0.977586
0.948116
0.918453
0.888854
0.859517
0.830841
0.803287
0.777408
0.753442
0.731631
0.71186
1.31748
1.21121
1.19743
1.19352
1.17629
1.14818
1.11567
1.08228
1.04928
1.01693
0.985434
0.955055
0.926148
0.898984
0.873814
0.850689
0.829743
0.810792
1.52169
1.41099
1.38557
1.36772
1.33626
1.29558
1.25308
1.21226
1.17392
1.13784
1.10375
1.07165
1.04172
1.01405
0.988714
0.96558
0.944661
0.925775
1.81138
1.67861
1.63217
1.59502
1.54522
1.4874
1.42999
1.37676
1.32817
1.28363
1.24272
1.20529
1.17136
1.14086
1.11366
1.08942
1.06792
1.04878
2.06659
1.93565
1.87585
1.81495
1.74083
1.66369
1.59273
1.53024
1.47471
1.42427
1.37799
1.33573
1.2976
1.26353
1.23327
1.20639
1.1826
1.16151
2.32901
2.17754
2.09069
2.00008
1.89901
1.79982
1.71116
1.63415
1.56688
1.50738
1.45467
1.40827
1.36766
1.33219
1.30123
1.27418
1.25068
1.23022
2.59453
2.41554
2.29049
2.16465
2.03985
1.92805
1.83257
1.74934
1.67436
1.60647
1.54605
1.49328
1.44761
1.4081
1.37385
1.34402
1.31802
1.29534
2.86581
2.6471
2.46611
2.28979
2.13022
1.99718
1.8884
1.79627
1.71553
1.64444
1.58272
1.52978
1.48448
1.44542
1.41157
1.38224
1.35705
1.33551
3.15924
2.88508
2.63997
2.42302
2.24825
2.11026
1.99347
1.88772
1.79241
1.70985
1.64055
1.58268
1.53371
1.49165
1.45541
1.42421
1.3975
1.3746
3.43726
3.07985
2.73408
2.46171
2.27125
2.13208
2.01373
1.90594
1.80983
1.72805
1.66005
1.60306
1.55446
1.51258
1.47659
1.44585
1.41983
1.39783
3.8052
3.32463
2.87734
2.56679
2.36974
2.22004
2.0826
1.95675
1.84973
1.76277
1.69193
1.63265
1.58204
1.53863
1.50163
1.47025
1.44377
1.42139
4.12675
3.42006
2.8662
2.55706
2.38175
2.23591
2.0943
1.96574
1.85901
1.77322
1.70304
1.6439
1.5933
1.55004
1.51332
1.48235
1.45637
1.43459
4.63106
3.63768
2.94251
2.61937
2.44092
2.27766
2.12145
1.98646
1.8775
1.79033
1.7188
1.65855
1.60722
1.56356
1.52668
1.49575
1.46988
1.44827
4.87302
3.60643
2.90844
2.63131
2.45546
2.28485
2.12523
1.99057
1.88254
1.79577
1.72431
1.66412
1.61294
1.5695
1.53286
1.50228
1.47684
1.45594
5.66413
3.65055
2.90923
2.66443
2.47697
2.2958
2.13312
1.99802
1.88962
1.80234
1.73046
1.67003
1.61872
1.57522
1.53857
1.50804
1.48273
1.46218
0.943485
0.942217
0.936873
0.928494
0.917056
0.902729
0.885605
0.865753
0.843238
0.818161
0.790697
0.761112
0.729781
0.6972
0.663973
0.630784
0.598345
0.567316
0.538221
0.511348
0.486757
0.464152
0.44294
0.422478
0.402281
0.382108
0.361345
0.338669
0.311832
0.277034
0.230477
0.171475
0.102365
0.0264073
-0.0525138
-0.130261
-0.202646
-0.265575
-0.315143
-0.347712
-0.359991
-0.349116
-0.312717
-0.248969
-0.156638
-0.035124
0.115426
0.294054
0.499011
0.727929
0.977851
1.24537
1.52669
1.81781
2.11481
2.41402
2.71215
3.0063
3.29407
3.5735
3.84304
4.10145
4.34776
4.58117
4.801
5.00668
5.19776
5.37396
5.53516
5.6815
5.81326
5.93091
6.03501
6.12623
6.20526
6.2729
6.32995
6.37725
6.41566
6.44605
6.46927
6.48613
6.49744
6.50392
6.50629
6.50513
6.50098
6.49432
6.48558
6.47513
6.46329
6.45034
6.43652
6.42203
6.40704
6.3917
6.37612
6.36039
6.3446
6.32881
6.31307
6.29741
6.28187
6.26647
6.25123
6.23614
6.22123
6.2065
6.19193
6.17755
6.16333
6.14928
6.13538
6.12164
6.10805
6.09459
6.08126
6.06805
6.05496
6.04197
6.02907
6.01627
6.00355
5.99089
5.9783
5.96576
5.95327
5.94081
5.92837
5.91596
5.90356
5.89116
5.87876
5.86634
5.85392
5.84147
5.82899
5.81649
5.80394
5.79136
5.77873
5.76605
5.75332
5.74052
5.72767
5.71475
5.70177
5.68872
5.6756
5.6624
5.64914
5.6358
5.62239
5.60891
5.59536
5.58175
5.56808
5.55436
5.5406
5.52681
5.51301
5.49922
5.48548
5.47182
5.45828
5.44495
5.43189
5.41923
5.4071
5.39575
5.38533
5.37642
5.3692
5.36494
5.36385
5.36896
5.38059
5.4069
5.44924
5.52893
0.940547
0.938307
0.932598
0.923982
0.912402
0.897935
0.880567
0.860311
0.83718
0.81124
0.782626
0.751569
0.718426
0.683685
0.647969
0.611995
0.576478
0.542112
0.509471
0.479129
0.451418
0.426188
0.402754
0.379753
0.355424
0.327524
0.294491
0.257659
0.21803
0.172532
0.117181
0.0514677
-0.0226752
-0.102114
-0.183107
-0.261675
-0.333821
-0.395637
-0.443388
-0.473563
-0.482947
-0.468692
-0.42837
-0.360081
-0.26258
-0.135372
0.0212622
0.206311
0.417998
0.653814
0.910567
1.18457
1.47185
1.76845
2.07045
2.37415
2.6762
2.97371
3.2643
3.54608
3.81756
4.07765
4.32549
4.56036
4.78165
4.98879
5.18133
5.35894
5.52151
5.66912
5.80208
5.92084
6.02599
6.11817
6.19809
6.26651
6.32424
6.37213
6.41102
6.44181
6.46537
6.48252
6.49406
6.50077
6.50333
6.50234
6.49835
6.49184
6.48324
6.47292
6.4612
6.44837
6.43467
6.42028
6.40539
6.39014
6.37465
6.35901
6.3433
6.32758
6.31192
6.29633
6.28086
6.26552
6.25033
6.2353
6.22044
6.20575
6.19123
6.17688
6.1627
6.14868
6.13483
6.12112
6.10756
6.09413
6.08083
6.06765
6.05459
6.04163
6.02876
6.01598
6.00328
5.99065
5.97808
5.96556
5.95308
5.94063
5.92821
5.91581
5.90342
5.89103
5.87863
5.86623
5.85381
5.84137
5.8289
5.81639
5.80386
5.79127
5.77865
5.76597
5.75324
5.74045
5.72759
5.71468
5.7017
5.68864
5.67552
5.66233
5.64906
5.63572
5.62231
5.60883
5.59528
5.58167
5.568
5.55427
5.5405
5.52671
5.5129
5.4991
5.48534
5.47166
5.4581
5.44473
5.43163
5.41891
5.40671
5.39525
5.38473
5.37558
5.36818
5.36336
5.36194
5.3655
5.37622
5.39626
5.43054
5.46915
0.930352
0.928
0.922407
0.914134
0.903045
0.889168
0.872426
0.852767
0.830143
0.804555
0.776058
0.744786
0.710989
0.675032
0.637416
0.598719
0.559583
0.520572
0.482233
0.44499
0.408725
0.372887
0.336729
0.299593
0.260685
0.21857
0.171565
0.118835
0.0602344
-0.00443737
-0.0753281
-0.151815
-0.232428
-0.314989
-0.396796
-0.474789
-0.545651
-0.605885
-0.651926
-0.680273
-0.687597
-0.670865
-0.627465
-0.555319
-0.452977
-0.319724
-0.155705
0.0380227
0.259529
0.506051
0.7741
1.05963
1.35836
1.66595
1.97816
2.29108
2.60119
2.90558
3.20189
3.48838
3.76377
4.0272
4.27803
4.51577
4.73992
4.95002
5.14556
5.32614
5.49157
5.64189
5.77739
5.89854
6.00591
6.10016
6.18196
6.25205
6.31124
6.36037
6.40031
6.43197
6.45625
6.47402
6.4861
6.49331
6.4963
6.49572
6.49211
6.48596
6.47769
6.4677
6.45629
6.44376
6.43033
6.41622
6.40159
6.38659
6.37133
6.35591
6.34042
6.32491
6.30943
6.29403
6.27873
6.26356
6.24852
6.23364
6.21891
6.20435
6.18995
6.17571
6.16163
6.14771
6.13394
6.12032
6.10684
6.09348
6.08025
6.06714
6.05413
6.04122
6.0284
6.01566
6.00299
5.99039
5.97785
5.96535
5.95289
5.94047
5.92806
5.91568
5.9033
5.89092
5.87854
5.86614
5.85373
5.8413
5.82884
5.81634
5.80381
5.79123
5.77861
5.76593
5.7532
5.74041
5.72756
5.71465
5.70167
5.68862
5.67549
5.6623
5.64903
5.63569
5.62228
5.60879
5.59524
5.58162
5.56794
5.55421
5.54043
5.52662
5.51279
5.49897
5.48518
5.47147
5.45786
5.44443
5.43125
5.41844
5.40611
5.39445
5.38371
5.37419
5.36637
5.36074
5.35837
5.35984
5.36761
5.38073
5.40414
5.42277
0.90867
0.906654
0.901588
0.894001
0.883732
0.870776
0.855042
0.836457
0.814938
0.790435
0.762919
0.732425
0.699066
0.663061
0.62471
0.58437
0.542362
0.498942
0.454344
0.408716
0.361935
0.313527
0.262702
0.20864
0.150657
0.0881892
0.0207501
-0.0520159
-0.130214
-0.213598
-0.301518
-0.392888
-0.486192
-0.579473
-0.670332
-0.755971
-0.833229
-0.898676
-0.948773
-0.979969
-0.988798
-0.971982
-0.926574
-0.850184
-0.741196
-0.598944
-0.423714
-0.216765
0.0196448
0.28233
0.567294
0.870259
1.18656
1.51124
1.83945
2.16677
2.48937
2.80425
3.10915
3.40255
3.68351
3.95157
4.2065
4.44822
4.67649
4.89095
5.09104
5.27622
5.44609
5.60061
5.74003
5.86486
5.97568
6.07313
6.15786
6.23056
6.292
6.34303
6.38455
6.41753
6.44291
6.4616
6.4745
6.48243
6.48609
6.48612
6.48308
6.47746
6.46971
6.46021
6.44926
6.43717
6.42416
6.41045
6.3962
6.38155
6.36664
6.35155
6.33636
6.32115
6.30594
6.2908
6.27574
6.26079
6.24597
6.23128
6.21674
6.20235
6.18811
6.17402
6.16008
6.14629
6.13264
6.11913
6.10574
6.09248
6.07934
6.06631
6.05337
6.04053
6.02777
6.01509
6.00248
5.98992
5.97742
5.96496
5.95254
5.94015
5.92778
5.91542
5.90307
5.89071
5.87835
5.86597
5.85358
5.84116
5.82871
5.81622
5.8037
5.79113
5.77851
5.76584
5.75312
5.74034
5.72749
5.71458
5.7016
5.68855
5.67543
5.66224
5.64897
5.63563
5.62221
5.60872
5.59517
5.58154
5.56785
5.55411
5.54031
5.52649
5.51264
5.49879
5.48496
5.47119
5.45753
5.44402
5.43074
5.41779
5.40529
5.3934
5.38235
5.37238
5.36398
5.35742
5.35375
5.35299
5.35717
5.36425
5.3771
5.37988
0.870766
0.86912
0.8646
0.857779
0.848469
0.836641
0.822174
0.804957
0.784859
0.761763
0.735549
0.70613
0.673463
0.637531
0.598331
0.555872
0.510193
0.461332
0.409228
0.353724
0.29453
0.231239
0.163368
0.0904266
0.0120403
-0.0719835
-0.161647
-0.256815
-0.357247
-0.462488
-0.571743
-0.683806
-0.797004
-0.909123
-1.01746
-1.1189
-1.21007
-1.28742
-1.34722
-1.38569
-1.39909
-1.38383
-1.33674
-1.2553
-1.13793
-0.984057
-0.793999
-0.569223
-0.312357
-0.0269322
0.282878
0.611815
0.954015
1.30348
1.65451
2.00205
2.34193
2.671
2.98718
3.28932
3.57702
3.85041
4.10994
4.35613
4.58926
4.8092
5.01537
5.20691
5.38308
5.54357
5.68857
5.8186
5.93432
6.03631
6.12519
6.20156
6.26615
6.3198
6.36348
6.39822
6.42505
6.44496
6.45896
6.46785
6.47238
6.47322
6.47094
6.46604
6.45897
6.45011
6.43978
6.42827
6.41582
6.40264
6.3889
6.37475
6.36029
6.34565
6.33088
6.31606
6.30123
6.28644
6.27172
6.25708
6.24255
6.22813
6.21384
6.19969
6.18566
6.17178
6.15803
6.14441
6.13092
6.11756
6.10432
6.09119
6.07816
6.06524
6.0524
6.03965
6.02698
6.01438
6.00184
5.98935
5.97691
5.9645
5.95213
5.93978
5.92744
5.91512
5.9028
5.89047
5.87813
5.86578
5.8534
5.841
5.82856
5.81609
5.80358
5.79102
5.77842
5.76575
5.75304
5.74026
5.72742
5.71451
5.70153
5.68849
5.67537
5.66217
5.64891
5.63556
5.62215
5.60865
5.59509
5.58146
5.56776
5.554
5.54019
5.52634
5.51246
5.49857
5.4847
5.47088
5.45714
5.44353
5.43013
5.41702
5.40431
5.39214
5.38072
5.37023
5.36111
5.35352
5.34828
5.34519
5.34559
5.34703
5.35053
5.34297
0.812932
0.811533
0.807401
0.801154
0.792548
0.781537
0.767956
0.751643
0.732399
0.710034
0.684312
0.655006
0.621875
0.584674
0.543204
0.497238
0.44653
0.390816
0.329815
0.263194
0.190592
0.111647
0.0260278
-0.0665502
-0.166261
-0.273168
-0.38718
-0.508058
-0.635368
-0.768365
-0.905812
-1.04593
-1.18635
-1.32426
-1.45641
-1.57923
-1.68897
-1.78177
-1.85375
-1.90096
-1.91943
-1.90546
-1.85583
-1.76792
-1.63989
-1.47071
-1.26051
-1.01089
-0.724844
-0.406652
-0.0622304
0.301404
0.677153
1.05809
1.43772
1.81031
2.17123
2.51715
2.84618
3.15762
3.45172
3.72945
3.9922
4.2415
4.4786
4.70392
4.91693
5.11635
5.30072
5.46918
5.62166
5.75872
5.88103
5.98922
6.08374
6.16508
6.23386
6.29094
6.33738
6.37432
6.40294
6.4244
6.43974
6.44983
6.45547
6.45733
6.45601
6.45201
6.44579
6.43772
6.42815
6.41736
6.40559
6.39307
6.37995
6.36639
6.35251
6.3384
6.32415
6.30982
6.29546
6.28111
6.26679
6.25253
6.23836
6.22428
6.2103
6.19643
6.18268
6.16904
6.15552
6.14212
6.12883
6.11565
6.10257
6.0896
6.07672
6.06392
6.05121
6.03858
6.02601
6.0135
6.00104
5.98863
5.97626
5.96392
5.9516
5.9393
5.92701
5.91473
5.90245
5.89015
5.87785
5.86552
5.85317
5.84079
5.82837
5.81592
5.80343
5.79088
5.77829
5.76564
5.75293
5.74016
5.72732
5.71442
5.70145
5.6884
5.67529
5.6621
5.64883
5.63548
5.62206
5.60857
5.595
5.58135
5.56764
5.55387
5.54004
5.52616
5.51225
5.49832
5.4844
5.4705
5.45668
5.44296
5.42942
5.41612
5.40317
5.39067
5.37882
5.36776
5.35782
5.3491
5.34217
5.33672
5.33336
5.32982
5.32558
5.31095
0.735426
0.734132
0.730124
0.724095
0.715716
0.704918
0.69147
0.675162
0.655718
0.632847
0.606217
0.575474
0.54023
0.500075
0.454577
0.403271
0.34568
0.281324
0.20974
0.130467
0.0430824
-0.0528046
-0.157559
-0.271519
-0.394972
-0.528132
-0.671021
-0.823328
-0.984201
-1.1521
-1.32473
-1.49914
-1.67181
-1.83895
-1.99663
-2.14097
-2.26827
-2.37499
-2.45756
-2.51224
-2.53511
-2.52212
-2.46932
-2.373
-2.22985
-2.03819
-1.79875
-1.51436
-1.18992
-0.832004
-0.447854
-0.044702
0.369706
0.787401
1.20075
1.60299
1.98869
2.3542
2.69771
3.01906
3.31928
3.60016
3.86401
4.11347
4.35116
4.57891
4.79704
5.00417
5.19781
5.3759
5.53768
5.68358
5.81439
5.9307
6.03274
6.12068
6.19493
6.25639
6.30622
6.34581
6.37658
6.39987
6.4168
6.42833
6.43529
6.43839
6.43823
6.43533
6.43013
6.42303
6.41437
6.40443
6.39348
6.38172
6.36934
6.35647
6.34326
6.32979
6.31615
6.3024
6.28859
6.27475
6.26092
6.24713
6.23338
6.2197
6.20609
6.19257
6.17913
6.16579
6.15255
6.13939
6.12634
6.11338
6.1005
6.08771
6.075
6.06237
6.0498
6.0373
6.02485
6.01245
6.0001
5.98778
5.97549
5.96323
5.95098
5.93874
5.92651
5.91428
5.90204
5.88979
5.87752
5.86523
5.8529
5.84055
5.82816
5.81573
5.80325
5.79072
5.77814
5.7655
5.7528
5.74004
5.72721
5.71432
5.70135
5.68831
5.6752
5.66201
5.64874
5.6354
5.62197
5.60847
5.59489
5.58124
5.56752
5.55372
5.53987
5.52596
5.51202
5.49804
5.48406
5.47009
5.45616
5.44232
5.42862
5.41511
5.40189
5.38904
5.37671
5.36501
5.35419
5.34428
5.33561
5.32782
5.32095
5.31298
5.30251
5.28249
0.639259
0.637847
0.633557
0.627203
0.618357
0.606922
0.592617
0.575176
0.55424
0.529428
0.500282
0.466328
0.427034
0.381825
0.330073
0.271125
0.20432
0.128995
0.0445332
-0.0496792
-0.154214
-0.269662
-0.39666
-0.535905
-0.68805
-0.853523
-1.0322
-1.22311
-1.42421
-1.6323
-1.84327
-2.0525
-2.25542
-2.44782
-2.6261
-2.78743
-2.92949
-3.0497
-3.14483
-3.21083
-3.24302
-3.23619
-3.18458
-3.08275
-2.92675
-2.7148
-2.44734
-2.12738
-1.76066
-1.35485
-0.918621
-0.461857
0.00508377
0.472165
0.930222
1.37138
1.78951
2.18065
2.54319
2.87757
3.18574
3.47054
3.73534
3.9838
4.21964
4.4462
4.66546
4.87704
5.07817
5.26552
5.43714
5.59293
5.73366
5.85989
5.97148
6.06795
6.14925
6.21619
6.27014
6.31283
6.34611
6.37149
6.39025
6.40345
6.41197
6.41652
6.41773
6.41612
6.41213
6.40617
6.39858
6.38965
6.37963
6.36876
6.35721
6.34515
6.33269
6.31994
6.30699
6.29389
6.28071
6.26746
6.25419
6.24092
6.22767
6.21444
6.20126
6.18814
6.17507
6.16207
6.14913
6.13628
6.12349
6.11077
6.09813
6.08555
6.07304
6.06059
6.04818
6.03583
6.02352
6.01125
5.99901
5.9868
5.97461
5.96243
5.95027
5.9381
5.92593
5.91376
5.90157
5.88937
5.87714
5.86488
5.8526
5.84027
5.82791
5.8155
5.80304
5.79053
5.77797
5.76535
5.75266
5.73991
5.72709
5.7142
5.70125
5.68821
5.6751
5.66191
5.64865
5.6353
5.62187
5.60837
5.59478
5.58112
5.56738
5.55356
5.53969
5.52575
5.51176
5.49773
5.48368
5.46962
5.45559
5.44161
5.42773
5.414
5.40048
5.38725
5.37442
5.36205
5.35031
5.33918
5.32878
5.31871
5.30864
5.29679
5.28131
5.25709
0.527039
0.525235
0.520126
0.512761
0.502571
0.489448
0.473037
0.453
0.428886
0.400232
0.366487
0.327064
0.281279
0.22839
0.16758
0.0980066
0.0188097
-0.0708472
-0.171793
-0.284838
-0.410841
-0.550765
-0.705722
-0.876828
-1.06495
-1.27018
-1.49139
-1.72588
-1.96947
-2.21682
-2.462
-2.69929
-2.92435
-3.13493
-3.33007
-3.5093
-3.67175
-3.8155
-3.93724
-4.03197
-4.09268
-4.11067
-4.07668
-3.98266
-3.82247
-3.59179
-3.2896
-2.9196
-2.49016
-2.01302
-1.50188
-0.970749
-0.433034
0.0990406
0.614819
1.10552
1.56463
1.98833
2.37559
2.72777
3.04797
3.34015
3.60859
3.8577
4.09208
4.31642
4.53444
4.74704
4.95195
5.14542
5.32479
5.48943
5.64007
5.77715
5.8999
6.00678
6.09679
6.17035
6.2291
6.27544
6.31155
6.33929
6.36014
6.37526
6.38555
6.39178
6.39457
6.39444
6.39185
6.3872
6.38083
6.37305
6.36411
6.35425
6.34365
6.33248
6.32086
6.30892
6.29672
6.28435
6.27186
6.25927
6.24663
6.23394
6.22124
6.20853
6.19583
6.18315
6.17049
6.15787
6.1453
6.13277
6.12028
6.10785
6.09546
6.08313
6.07083
6.05858
6.04637
6.03419
6.02203
6.00991
5.9978
5.9857
5.97362
5.96154
5.94946
5.93738
5.92528
5.91318
5.90105
5.8889
5.87672
5.8645
5.85225
5.83996
5.82763
5.81525
5.80281
5.79033
5.77778
5.76517
5.7525
5.73976
5.72696
5.71408
5.70113
5.6881
5.67499
5.66181
5.64854
5.63519
5.62176
5.60825
5.59466
5.58098
5.56723
5.55339
5.53949
5.52551
5.51148
5.4974
5.48327
5.46913
5.45498
5.44086
5.42679
5.41281
5.39899
5.38535
5.37198
5.35892
5.34624
5.33389
5.32181
5.30958
5.29663
5.2814
5.2619
5.23434
0.401725
0.399106
0.392385
0.383057
0.37032
0.354067
0.333866
0.309315
0.279899
0.245047
0.204086
0.156249
0.100684
0.0364639
-0.0374078
-0.12197
-0.218281
-0.327437
-0.450511
-0.588628
-0.742983
-0.914871
-1.10562
-1.31626
-1.54708
-1.79692
-2.06281
-2.3396
-2.62045
-2.89829
-3.16728
-3.42378
-3.66644
-3.89598
-4.11499
-4.32594
-4.5291
-4.72162
-4.89736
-5.04702
-5.15834
-5.21731
-5.21
-5.12394
-4.94963
-4.68202
-4.32202
-3.87717
-3.36102
-2.79071
-2.18389
-1.55871
-0.932535
-0.320605
0.264522
0.813406
1.31979
1.78072
2.19628
2.56923
2.90428
3.20682
3.48205
3.73498
3.97063
4.19433
4.41093
4.62295
4.82916
5.02585
5.20985
5.38056
5.53918
5.68628
5.82047
5.93868
6.03839
6.11928
6.1834
6.2337
6.27293
6.30333
6.32656
6.34386
6.3562
6.36432
6.36889
6.37043
6.36941
6.36624
6.36125
6.35476
6.34703
6.3383
6.32876
6.31858
6.3079
6.29683
6.28547
6.27388
6.26213
6.25026
6.23829
6.22624
6.21414
6.202
6.18983
6.17764
6.16544
6.15325
6.14106
6.12889
6.11674
6.10462
6.09252
6.08045
6.0684
6.05637
6.04436
6.03237
6.02039
6.00842
5.99645
5.98449
5.97253
5.96056
5.94858
5.93658
5.92457
5.91253
5.90047
5.88837
5.87625
5.86408
5.85187
5.83962
5.82732
5.81497
5.80256
5.7901
5.77757
5.76498
5.75233
5.7396
5.72681
5.71394
5.701
5.68798
5.67488
5.66169
5.64843
5.63508
5.62165
5.60813
5.59453
5.58084
5.56706
5.55321
5.53928
5.52527
5.51119
5.49704
5.48284
5.4686
5.45433
5.44006
5.42579
5.41157
5.39741
5.38336
5.36945
5.35568
5.34207
5.3285
5.31483
5.30059
5.28508
5.2669
5.24415
5.21389
0.265795
0.261859
0.252512
0.239966
0.223074
0.201846
0.175711
0.144193
0.106607
0.062209
0.0101603
-0.0504561
-0.120635
-0.201488
-0.294227
-0.400197
-0.520833
-0.657534
-0.811556
-0.983979
-1.17578
-1.38786
-1.621
-1.87538
-2.14986
-2.44148
-2.74533
-3.05477
-3.36249
-3.6622
-3.95048
-4.22761
-4.4966
-4.76196
-5.02807
-5.29728
-5.56756
-5.83204
-6.07864
-6.29128
-6.45228
-6.54408
-6.55027
-6.45677
-6.25344
-5.93548
-5.50468
-4.97079
-4.35092
-3.66693
-2.94311
-2.20403
-1.47227
-0.766718
-0.101934
0.512178
1.07013
1.57039
2.01499
2.40893
2.75912
3.07274
3.35604
3.61443
3.85333
4.07854
4.29574
4.50826
4.71547
4.91401
5.10073
5.27534
5.43978
5.59502
5.73928
5.86762
5.97612
6.06403
6.13346
6.18783
6.23041
6.26374
6.28964
6.30942
6.32406
6.33432
6.34086
6.34425
6.34497
6.34341
6.33995
6.33489
6.3285
6.32101
6.31264
6.30355
6.29389
6.28378
6.27331
6.26257
6.25162
6.2405
6.22925
6.21788
6.20643
6.1949
6.18329
6.17164
6.15994
6.1482
6.13644
6.12467
6.11289
6.1011
6.08931
6.07753
6.06574
6.05396
6.04217
6.03039
6.01859
6.0068
5.99499
5.98317
5.97134
5.95949
5.94761
5.93571
5.92379
5.91183
5.89984
5.88781
5.87574
5.86362
5.85146
5.83925
5.82698
5.81466
5.80229
5.78985
5.77735
5.76478
5.75214
5.73943
5.72665
5.71379
5.70086
5.68784
5.67475
5.66157
5.64831
5.63496
5.62152
5.608
5.59439
5.58069
5.5669
5.55302
5.53906
5.52501
5.51088
5.49667
5.4824
5.46806
5.45366
5.43922
5.42476
5.41027
5.39579
5.38131
5.36685
5.35238
5.33785
5.32312
5.30795
5.29185
5.27406
5.25334
5.22793
5.19547
0.121483
0.115648
0.102353
0.0846986
0.0614851
0.0326989
-0.00248786
-0.0446962
-0.0948369
-0.153788
-0.222543
-0.302228
-0.394171
-0.499905
-0.621099
-0.759383
-0.916122
-1.09225
-1.28816
-1.50389
-1.73927
-1.99408
-2.26814
-2.56097
-2.8709
-3.19467
-3.52735
-3.86318
-4.19684
-4.52457
-4.84594
-5.16346
-5.4813
-5.80368
-6.13286
-6.46757
-6.80104
-7.12196
-7.41467
-7.6613
-7.84369
-7.94394
-7.94466
-7.82978
-7.58627
-7.20703
-6.69393
-6.05966
-5.32676
-4.52323
-3.67957
-2.82577
-1.98895
-1.1915
-0.449164
0.227753
0.834582
1.37119
1.84182
2.2543
2.61794
2.94178
3.23298
3.49739
3.74062
3.96898
4.1886
4.40309
4.61195
4.81211
5.00092
5.17872
5.34802
5.50979
5.66154
5.79735
5.91244
6.0059
6.07993
6.13823
6.18432
6.22087
6.24974
6.27226
6.28943
6.30203
6.31074
6.31613
6.31872
6.31893
6.31711
6.3136
6.30865
6.30252
6.2954
6.28749
6.27894
6.26986
6.26036
6.25052
6.24042
6.23009
6.2196
6.20895
6.19817
6.18727
6.17628
6.16519
6.15402
6.14277
6.13147
6.12012
6.10873
6.09731
6.08586
6.07438
6.06288
6.05136
6.03982
6.02825
6.01667
6.00505
5.99342
5.98175
5.97006
5.95833
5.94657
5.93478
5.92295
5.91107
5.89916
5.8872
5.87519
5.86313
5.85101
5.83885
5.82662
5.81434
5.80199
5.78958
5.7771
5.76456
5.75194
5.73925
5.72648
5.71363
5.70071
5.6877
5.67462
5.66144
5.64818
5.63483
5.62139
5.60786
5.59424
5.58053
5.56672
5.55282
5.53883
5.52474
5.51056
5.49629
5.48194
5.4675
5.45297
5.43837
5.4237
5.40895
5.39413
5.37923
5.36423
5.34906
5.33365
5.31781
5.30124
5.28344
5.26365
5.24073
5.21311
5.17885
-0.0308931
-0.0392532
-0.0581523
-0.0832363
-0.115725
-0.155828
-0.204616
-0.262892
-0.331811
-0.412575
-0.506795
-0.616273
-0.742956
-0.888465
-1.05388
-1.23967
-1.44572
-1.67136
-1.91543
-2.17651
-2.45341
-2.74561
-3.05333
-3.37688
-3.71575
-4.0684
-4.43167
-4.80111
-5.17224
-5.5414
-5.90719
-6.2696
-6.6297
-6.98879
-7.34717
-7.70314
-8.05035
-8.37805
-8.67133
-8.91233
-9.08187
-9.16046
-9.12849
-8.96759
-8.66345
-8.21
-7.61257
-6.88737
-6.06085
-5.1641
-4.23017
-3.29192
-2.37941
-1.51658
-0.720189
-0.000359385
0.638725
1.19921
1.68704
2.11221
2.48581
2.81772
3.1157
3.38587
3.63409
3.86694
4.09051
4.30787
4.51821
4.71901
4.90911
5.08991
5.26407
5.43171
5.58911
5.72969
5.84877
5.94589
6.02359
6.0856
6.13534
6.17533
6.20739
6.23284
6.25271
6.26781
6.27882
6.28635
6.29092
6.29299
6.29293
6.29106
6.28766
6.28297
6.2772
6.27054
6.26315
6.25516
6.24669
6.23781
6.2286
6.21912
6.20941
6.1995
6.18943
6.1792
6.16883
6.15833
6.14772
6.13699
6.12618
6.11528
6.10431
6.09327
6.08218
6.07103
6.05984
6.0486
6.03731
6.02598
6.01461
6.00319
5.99174
5.98024
5.96869
5.9571
5.94547
5.93378
5.92205
5.91027
5.89843
5.88654
5.8746
5.8626
5.85054
5.83842
5.82624
5.81399
5.80168
5.78929
5.77684
5.76432
5.75172
5.73905
5.7263
5.71346
5.70055
5.68756
5.67447
5.66131
5.64805
5.6347
5.62126
5.60772
5.59409
5.58037
5.56654
5.55262
5.53859
5.52447
5.51024
5.49591
5.48147
5.46693
5.45227
5.43751
5.42263
5.40762
5.39247
5.37715
5.36162
5.34578
5.32952
5.31263
5.29477
5.27543
5.25387
5.22905
5.19959
5.16386
-0.191595
-0.202833
-0.228907
-0.264615
-0.310961
-0.368108
-0.437467
-0.520264
-0.618608
-0.734809
-0.871411
-1.03025
-1.21225
-1.41712
-1.64365
-1.89009
-2.1544
-2.43417
-2.72668
-3.02967
-3.34217
-3.6649
-3.99964
-4.34848
-4.71243
-5.09053
-5.479
-5.87188
-6.2622
-6.64379
-7.01321
-7.36947
-7.71364
-8.04816
-8.3752
-8.69497
-9.00274
-9.28803
-9.53573
-9.72792
-9.8446
-9.86666
-9.77549
-9.55432
-9.19104
-8.68157
-8.03201
-7.25872
-6.38778
-5.45043
-4.48068
-3.51184
-2.574
-1.69082
-0.878623
-0.147022
0.500605
1.06717
1.55988
1.98955
2.36783
2.70449
3.00707
3.28188
3.53536
3.77394
4.00241
4.22249
4.43308
4.63295
4.82314
5.00676
5.1861
5.3595
5.52134
5.66469
5.7858
5.8852
5.96583
6.03128
6.0846
6.12806
6.16336
6.19181
6.21443
6.23208
6.24547
6.25522
6.26186
6.26587
6.26764
6.26749
6.26571
6.26252
6.25816
6.25282
6.24666
6.23982
6.23241
6.22453
6.21626
6.20766
6.19877
6.18963
6.18028
6.17073
6.16101
6.15112
6.14108
6.1309
6.12059
6.11017
6.09964
6.08901
6.07829
6.06749
6.05662
6.04567
6.03466
6.02358
6.01244
6.00123
5.98997
5.97864
5.96725
5.95581
5.9443
5.93273
5.92111
5.90942
5.89767
5.88586
5.87398
5.86204
5.85004
5.83797
5.82583
5.81362
5.80134
5.78899
5.77657
5.76407
5.75149
5.73884
5.7261
5.71329
5.70039
5.6874
5.67433
5.66116
5.64791
5.63456
5.62112
5.60758
5.59394
5.5802
5.56636
5.55241
5.53836
5.52419
5.50992
5.49552
5.481
5.46636
5.45158
5.43665
5.42157
5.4063
5.39083
5.3751
5.35905
5.34257
5.32552
5.30764
5.2886
5.26788
5.24476
5.21831
5.18729
5.15033
-0.363631
-0.378431
-0.414231
-0.465212
-0.532243
-0.615245
-0.716811
-0.839733
-0.98774
-1.16326
-1.36752
-1.59991
-1.85841
-2.13968
-2.43986
-2.75443
-3.07855
-3.40772
-3.73869
-4.07017
-4.40294
-4.73878
-5.07982
-5.42764
-5.7823
-6.14159
-6.50111
-6.85505
-7.19734
-7.52313
-7.83053
-8.12025
-8.3943
-8.65598
-8.90735
-9.14858
-9.37489
-9.57997
-9.74878
-9.86503
-9.911
-9.86956
-9.72392
-9.4591
-9.06445
-8.53667
-7.8815
-7.11449
-6.25963
-5.3455
-4.40318
-3.46416
-2.55636
-1.70142
-0.91434
-0.20401
0.426631
0.980525
1.46506
1.89053
2.26764
2.60529
2.9101
3.18815
3.44622
3.69028
3.92322
4.14493
4.35458
4.55299
4.74366
4.93084
5.11556
5.29383
5.45832
5.60264
5.72454
5.82548
5.90857
5.97705
6.03357
6.0802
6.11853
6.14982
6.17512
6.19529
6.21107
6.22307
6.23183
6.23783
6.24147
6.2431
6.24298
6.24136
6.23846
6.23447
6.22957
6.22392
6.21762
6.21077
6.20347
6.19577
6.18773
6.17939
6.17078
6.16193
6.15287
6.14361
6.13416
6.12453
6.11475
6.10481
6.09474
6.08454
6.07422
6.06378
6.05325
6.04261
6.03188
6.02107
6.01016
5.99918
5.98811
5.97697
5.96575
5.95445
5.94308
5.93164
5.92012
5.90853
5.89687
5.88514
5.87333
5.86146
5.84951
5.8375
5.8254
5.81324
5.80099
5.78868
5.77628
5.76381
5.75125
5.73862
5.7259
5.7131
5.70021
5.68724
5.67417
5.66102
5.64777
5.63442
5.62098
5.60743
5.59379
5.58004
5.56618
5.55221
5.53812
5.52392
5.50959
5.49513
5.48054
5.46579
5.45089
5.4358
5.42052
5.405
5.38922
5.3731
5.35656
5.33947
5.32167
5.30289
5.28276
5.26081
5.23633
5.20846
5.17613
5.13814
-0.550631
-0.571369
-0.621872
-0.696527
-0.797382
-0.925138
-1.08481
-1.27995
-1.51281
-1.78147
-2.08242
-2.41069
-2.76048
-3.12385
-3.49239
-3.8587
-4.21714
-4.56351
-4.89484
-5.21001
-5.50939
-5.79439
-6.06739
-6.33148
-6.59042
-6.84635
-7.09932
-7.34858
-7.58966
-7.82084
-8.03816
-8.24019
-8.42678
-8.59917
-8.75858
-8.90519
-9.03669
-9.14828
-9.22976
-9.26789
-9.2477
-9.15386
-8.9719
-8.68955
-8.29837
-7.79593
-7.18715
-6.48465
-5.70767
-4.8796
-4.02622
-3.17421
-2.34738
-1.56452
-0.839123
-0.179496
0.411459
0.936205
1.40123
1.81488
2.18552
2.52032
2.82498
3.10516
3.36693
3.61485
3.85021
4.07222
4.28125
4.48042
4.67436
4.86631
5.05514
5.23531
5.39959
5.54308
5.66486
5.76684
5.85192
5.92289
5.98212
6.03148
6.07252
6.10646
6.13434
6.15702
6.1752
6.18951
6.20045
6.20852
6.21411
6.21757
6.21918
6.21918
6.21779
6.21522
6.21165
6.20722
6.20208
6.19632
6.19004
6.18329
6.17614
6.16863
6.16081
6.15269
6.14431
6.13569
6.12686
6.11781
6.10857
6.09915
6.08956
6.0798
6.0699
6.05985
6.04967
6.03937
6.02894
6.0184
6.00776
5.997
5.98615
5.9752
5.96415
5.95302
5.94179
5.93047
5.91907
5.90759
5.89602
5.88438
5.87265
5.86084
5.84896
5.83699
5.82495
5.81283
5.80062
5.78834
5.77598
5.76353
5.751
5.73839
5.72569
5.71291
5.70003
5.68707
5.67401
5.66086
5.64762
5.63427
5.62083
5.60728
5.59363
5.57987
5.56599
5.552
5.53789
5.52365
5.50927
5.49475
5.48008
5.46524
5.45021
5.43497
5.4195
5.40374
5.38765
5.37116
5.35415
5.3365
5.318
5.29839
5.2773
5.25423
5.22856
5.19948
5.16602
5.12717
-0.749152
-0.781397
-0.857431
-0.973281
-1.13466
-1.34349
-1.60411
-1.91266
-2.26192
-2.64082
-3.03834
-3.4422
-3.8413
-4.22564
-4.58726
-4.92007
-5.21912
-5.47983
-5.70339
-5.89254
-6.05607
-6.20169
-6.33915
-6.47554
-6.61437
-6.75873
-6.90895
-7.06306
-7.21675
-7.36593
-7.50576
-7.63273
-7.74545
-7.84426
-7.93038
-8.0046
-8.06591
-8.11073
-8.13217
-8.1204
-8.06355
-7.94902
-7.76474
-7.5004
-7.14917
-6.70905
-6.18374
-5.58254
-4.9196
-4.21244
-3.48067
-2.74512
-2.02511
-1.33666
-0.691719
-0.0978282
0.442181
0.929851
1.36963
1.76702
2.12759
2.45665
2.75921
3.04005
3.30354
3.55264
3.78812
4.01044
4.22165
4.4252
4.62424
4.81951
5.00854
5.18639
5.34763
5.48886
5.60972
5.71201
5.79829
5.87103
5.93234
5.98397
6.02735
6.06369
6.09398
6.11903
6.13954
6.15609
6.16918
6.17927
6.18677
6.19202
6.19533
6.19694
6.19706
6.19589
6.19362
6.19043
6.18644
6.18177
6.1765