/*--------------------------------*- C++ -*----------------------------------*\
  =========                 |
  \\      /  F ield         | OpenFOAM: The Open Source CFD Toolbox
   \\    /   O peration     | Website:  https://openfoam.org
    \\  /    A nd           | Version:  7
     \\/     M anipulation  |
\*---------------------------------------------------------------------------*/
FoamFile
{
    version     2.0;
    format      ascii;
    class       volScalarField;
    location    "0.036";
    object      pPrime2Mean;
}
// * * * * * * * * * * * * * * * * * * * * * * * * * * * * * * * * * * * * * //

dimensions      [0 4 -4 0 0 0 0];

internalField   nonuniform List<scalar> 
12225
(
9.89565e+06
9.73777e+06
9.5748e+06
9.41766e+06
9.26675e+06
9.1216e+06
8.9818e+06
8.84693e+06
8.71654e+06
8.59017e+06
8.46729e+06
8.34732e+06
8.22957e+06
8.11314e+06
7.99681e+06
7.8787e+06
7.75546e+06
7.61877e+06
9.89577e+06
9.73784e+06
9.57487e+06
9.41773e+06
9.26683e+06
9.1217e+06
8.98192e+06
8.84707e+06
8.71672e+06
8.59038e+06
8.46757e+06
8.34768e+06
8.23005e+06
8.11381e+06
7.99781e+06
7.88029e+06
7.75848e+06
7.62561e+06
9.89599e+06
9.73799e+06
9.57502e+06
9.4179e+06
9.26702e+06
9.12192e+06
8.98218e+06
8.84739e+06
8.7171e+06
8.59087e+06
8.46818e+06
8.34848e+06
8.23111e+06
8.11528e+06
7.99996e+06
7.88372e+06
7.76453e+06
7.63983e+06
9.89624e+06
9.73823e+06
9.57528e+06
9.41818e+06
9.26734e+06
9.12229e+06
8.98262e+06
8.84791e+06
8.71775e+06
8.59167e+06
8.46919e+06
8.34979e+06
8.23285e+06
8.11767e+06
8.00341e+06
7.88903e+06
7.77349e+06
7.65685e+06
9.89652e+06
9.73857e+06
9.57565e+06
9.41859e+06
9.2678e+06
9.12283e+06
8.98326e+06
8.84868e+06
8.71869e+06
8.59284e+06
8.47067e+06
8.35169e+06
8.23535e+06
8.12108e+06
8.00823e+06
7.89619e+06
7.78474e+06
7.67526e+06
9.89695e+06
9.73905e+06
9.57616e+06
9.41916e+06
9.26845e+06
9.12358e+06
8.98414e+06
8.84974e+06
8.71998e+06
8.59444e+06
8.47268e+06
8.35426e+06
8.23872e+06
8.12558e+06
8.01444e+06
7.90506e+06
7.79778e+06
7.69435e+06
9.89751e+06
9.73968e+06
9.57685e+06
9.41991e+06
9.2693e+06
9.12456e+06
8.9853e+06
8.85114e+06
8.72168e+06
8.59653e+06
8.47529e+06
8.35758e+06
8.24301e+06
8.13123e+06
8.02204e+06
7.91548e+06
7.81216e+06
7.71377e+06
9.89823e+06
9.74049e+06
9.57773e+06
9.42088e+06
9.27039e+06
9.12582e+06
8.98679e+06
8.85292e+06
8.72383e+06
8.59917e+06
8.47858e+06
8.36171e+06
8.24827e+06
8.13804e+06
8.03095e+06
7.92723e+06
7.82758e+06
7.73337e+06
9.89924e+06
9.74154e+06
9.57884e+06
9.42209e+06
9.27176e+06
9.1274e+06
8.98864e+06
8.85512e+06
8.7265e+06
8.60243e+06
8.48259e+06
8.3667e+06
8.25454e+06
8.14599e+06
8.04109e+06
7.94013e+06
7.84378e+06
7.75307e+06
9.90045e+06
9.74285e+06
9.58022e+06
9.42359e+06
9.27344e+06
9.12933e+06
8.99091e+06
8.85781e+06
8.72973e+06
8.60634e+06
8.48737e+06
8.37258e+06
8.26183e+06
8.15504e+06
8.05232e+06
7.95399e+06
7.86059e+06
7.77283e+06
9.90224e+06
9.74447e+06
9.58189e+06
9.42541e+06
9.27547e+06
9.13166e+06
8.99363e+06
8.86103e+06
8.73357e+06
8.61096e+06
8.49295e+06
8.37937e+06
8.2701e+06
8.16511e+06
8.06454e+06
7.96866e+06
7.87786e+06
7.79262e+06
9.90386e+06
9.74626e+06
9.58374e+06
9.4274e+06
9.27769e+06
9.1342e+06
8.99657e+06
8.8645e+06
8.73768e+06
8.61586e+06
8.49883e+06
8.38642e+06
8.27855e+06
8.17522e+06
8.07653e+06
7.98271e+06
7.89402e+06
7.81077e+06
9.90613e+06
9.74833e+06
9.58586e+06
9.42967e+06
9.28022e+06
9.13708e+06
8.9999e+06
8.86839e+06
8.74227e+06
8.6213e+06
8.50528e+06
8.39408e+06
8.28761e+06
8.18589e+06
8.08899e+06
7.99705e+06
7.91025e+06
7.82873e+06
9.90908e+06
9.75109e+06
9.58866e+06
9.43268e+06
9.28355e+06
9.14085e+06
9.00425e+06
8.87345e+06
8.74819e+06
8.62824e+06
8.51343e+06
8.40363e+06
8.29876e+06
8.19881e+06
8.10381e+06
8.01383e+06
7.92893e+06
7.84914e+06
9.91289e+06
9.75472e+06
9.59236e+06
9.43663e+06
9.28791e+06
9.14578e+06
9.00989e+06
8.87996e+06
8.75574e+06
8.63701e+06
8.5236e+06
8.41539e+06
8.31227e+06
8.21421e+06
8.12118e+06
8.03316e+06
7.95014e+06
7.87204e+06
9.91759e+06
9.75938e+06
9.59716e+06
9.44177e+06
9.29357e+06
9.15213e+06
9.01711e+06
8.88822e+06
8.76522e+06
8.64789e+06
8.53606e+06
8.42958e+06
8.32833e+06
8.23221e+06
8.14115e+06
8.05506e+06
7.97384e+06
7.89736e+06
9.92349e+06
9.76526e+06
9.60327e+06
9.44832e+06
9.30077e+06
9.16016e+06
9.02616e+06
8.89848e+06
8.77686e+06
8.66108e+06
8.55094e+06
8.44627e+06
8.34692e+06
8.25273e+06
8.16358e+06
8.07932e+06
7.99978e+06
7.9248e+06
9.93041e+06
9.77243e+06
9.6108e+06
9.45642e+06
9.30963e+06
9.16999e+06
9.03715e+06
8.91079e+06
8.79066e+06
8.6765e+06
8.5681e+06
8.46525e+06
8.36774e+06
8.27539e+06
8.18802e+06
8.10543e+06
8.02742e+06
7.9538e+06
9.93879e+06
9.78096e+06
9.61974e+06
9.46599e+06
9.32005e+06
9.18145e+06
9.04983e+06
8.92485e+06
8.80622e+06
8.69368e+06
8.58696e+06
8.48581e+06
8.39002e+06
8.29934e+06
8.21355e+06
8.13243e+06
8.05576e+06
7.98332e+06
9.94629e+06
9.78836e+06
9.62739e+06
9.47413e+06
9.32886e+06
9.19108e+06
9.06039e+06
8.93644e+06
8.81892e+06
8.70752e+06
8.60198e+06
8.50201e+06
8.40737e+06
8.3178e+06
8.23305e+06
8.1529e+06
8.0771e+06
8.00542e+06
9.95088e+06
9.79329e+06
9.63261e+06
9.47972e+06
9.33492e+06
9.19769e+06
9.06761e+06
8.94433e+06
8.8275e+06
8.71683e+06
8.61201e+06
8.51277e+06
8.41883e+06
8.32992e+06
8.2458e+06
8.16621e+06
8.09093e+06
8.01971e+06
9.95461e+06
9.79691e+06
9.63642e+06
9.48383e+06
9.3394e+06
9.20257e+06
9.07293e+06
8.95012e+06
8.83378e+06
8.72361e+06
8.6193e+06
8.52054e+06
8.42707e+06
8.33861e+06
8.25491e+06
8.17571e+06
8.10077e+06
8.02985e+06
9.95643e+06
9.79929e+06
9.6391e+06
9.48678e+06
9.34262e+06
9.20609e+06
9.07677e+06
8.95429e+06
8.8383e+06
8.72848e+06
8.62451e+06
8.52609e+06
8.43294e+06
8.34479e+06
8.26137e+06
8.18243e+06
8.10771e+06
8.037e+06
9.95794e+06
9.80093e+06
9.64095e+06
9.48884e+06
9.3449e+06
9.20859e+06
9.07949e+06
8.95724e+06
8.84149e+06
8.73191e+06
8.62817e+06
8.52999e+06
8.43706e+06
8.34912e+06
8.26589e+06
8.18712e+06
8.11257e+06
8.04199e+06
9.95886e+06
9.80198e+06
9.64219e+06
9.49026e+06
9.34647e+06
9.21031e+06
9.08138e+06
8.95929e+06
8.8437e+06
8.73428e+06
8.63071e+06
8.53268e+06
8.4399e+06
8.3521e+06
8.269e+06
8.19035e+06
8.1159e+06
8.04541e+06
9.95896e+06
9.80258e+06
9.643e+06
9.4912e+06
9.34752e+06
9.21148e+06
9.08265e+06
8.96067e+06
8.84519e+06
8.73588e+06
8.63241e+06
8.53448e+06
8.4418e+06
8.35409e+06
8.27108e+06
8.1925e+06
8.11812e+06
8.0477e+06
9.95904e+06
9.80295e+06
9.64351e+06
9.49181e+06
9.3482e+06
9.21223e+06
9.08347e+06
8.96156e+06
8.84615e+06
8.73691e+06
8.63351e+06
8.53565e+06
8.44303e+06
8.35538e+06
8.27242e+06
8.19389e+06
8.11956e+06
8.04918e+06
9.95918e+06
9.80318e+06
9.64382e+06
9.49217e+06
9.34862e+06
9.21268e+06
9.08396e+06
8.9621e+06
8.84673e+06
8.73753e+06
8.63417e+06
8.53635e+06
8.44377e+06
8.35616e+06
8.27323e+06
8.19473e+06
8.12043e+06
8.05007e+06
9.95928e+06
9.8033e+06
9.64399e+06
9.49237e+06
9.34884e+06
9.21293e+06
9.08423e+06
8.96239e+06
8.84705e+06
8.73787e+06
8.63453e+06
8.53673e+06
8.44417e+06
8.35658e+06
8.27367e+06
8.19519e+06
8.12089e+06
8.05055e+06
9.95932e+06
9.80335e+06
9.64405e+06
9.49245e+06
9.34893e+06
9.21303e+06
9.08434e+06
8.96251e+06
8.84717e+06
8.738e+06
8.63468e+06
8.53689e+06
8.44434e+06
8.35675e+06
8.27384e+06
8.19537e+06
8.12108e+06
8.05074e+06
6.43757e+06
6.43706e+06
6.43602e+06
6.43446e+06
6.43235e+06
6.42968e+06
6.42646e+06
6.42266e+06
6.41829e+06
6.41333e+06
6.40779e+06
6.40164e+06
6.3949e+06
6.38755e+06
6.37959e+06
6.37102e+06
6.36184e+06
6.35205e+06
6.34165e+06
6.33063e+06
6.31901e+06
6.30678e+06
6.29394e+06
6.2805e+06
6.26646e+06
6.25183e+06
6.23661e+06
6.22081e+06
6.20443e+06
6.18748e+06
6.16996e+06
6.15189e+06
6.13327e+06
6.1141e+06
6.0944e+06
6.07417e+06
6.05343e+06
6.03217e+06
6.01041e+06
5.98815e+06
5.96541e+06
5.94219e+06
5.9185e+06
5.89435e+06
5.86975e+06
5.8447e+06
5.81922e+06
5.79331e+06
5.76697e+06
5.74023e+06
5.71309e+06
5.68554e+06
5.65761e+06
5.62931e+06
5.60062e+06
5.57158e+06
5.54218e+06
5.51243e+06
5.48233e+06
5.4519e+06
5.42114e+06
5.39007e+06
5.35867e+06
5.32697e+06
5.29496e+06
5.26266e+06
5.23007e+06
5.19719e+06
5.16404e+06
5.13061e+06
5.09692e+06
5.06297e+06
5.02876e+06
4.9943e+06
4.95959e+06
4.92464e+06
4.88946e+06
4.85405e+06
4.81841e+06
4.78255e+06
4.74648e+06
4.71019e+06
4.67369e+06
4.63699e+06
4.60009e+06
4.563e+06
4.52572e+06
4.48825e+06
4.4506e+06
4.41277e+06
4.37476e+06
4.33659e+06
4.29824e+06
4.25974e+06
4.22107e+06
4.18226e+06
4.14328e+06
4.10416e+06
4.0649e+06
4.0255e+06
3.98596e+06
3.94628e+06
3.90648e+06
3.86655e+06
3.8265e+06
3.78632e+06
3.74604e+06
3.70564e+06
3.66514e+06
3.62453e+06
3.58382e+06
3.54301e+06
3.50211e+06
3.46113e+06
3.42005e+06
3.3789e+06
3.33767e+06
3.29637e+06
3.255e+06
3.21357e+06
3.17207e+06
3.13052e+06
3.08892e+06
3.04727e+06
3.00558e+06
2.96385e+06
2.92208e+06
2.88029e+06
2.83847e+06
2.79663e+06
2.75478e+06
2.71292e+06
2.67106e+06
2.6292e+06
2.58734e+06
2.5455e+06
2.50367e+06
2.46187e+06
2.4201e+06
2.37836e+06
2.33667e+06
2.29502e+06
2.25343e+06
2.2119e+06
2.17043e+06
2.12904e+06
2.08773e+06
2.04651e+06
2.00538e+06
1.96436e+06
1.92344e+06
1.88264e+06
1.84197e+06
1.80143e+06
1.76103e+06
1.72078e+06
1.68069e+06
1.64077e+06
1.60102e+06
1.56146e+06
1.52209e+06
1.48292e+06
1.44397e+06
1.40525e+06
1.36676e+06
1.32852e+06
1.29054e+06
1.25283e+06
1.2154e+06
1.17827e+06
1.14146e+06
1.10498e+06
1.06886e+06
1.0331e+06
997754
962841
928413
894541
861342
829077
6.43989e+06
6.43938e+06
6.43834e+06
6.43676e+06
6.43464e+06
6.43196e+06
6.42871e+06
6.4249e+06
6.4205e+06
6.41551e+06
6.40993e+06
6.40376e+06
6.39698e+06
6.38959e+06
6.38159e+06
6.37298e+06
6.36376e+06
6.35393e+06
6.34348e+06
6.33242e+06
6.32074e+06
6.30846e+06
6.29558e+06
6.28209e+06
6.268e+06
6.25332e+06
6.23805e+06
6.2222e+06
6.20577e+06
6.18877e+06
6.17121e+06
6.15309e+06
6.13442e+06
6.11521e+06
6.09546e+06
6.07519e+06
6.0544e+06
6.0331e+06
6.0113e+06
5.989e+06
5.96622e+06
5.94297e+06
5.91924e+06
5.89506e+06
5.87042e+06
5.84534e+06
5.81983e+06
5.79389e+06
5.76753e+06
5.74076e+06
5.71358e+06
5.68602e+06
5.65806e+06
5.62973e+06
5.60103e+06
5.57196e+06
5.54254e+06
5.51277e+06
5.48266e+06
5.45221e+06
5.42143e+06
5.39034e+06
5.35893e+06
5.32721e+06
5.29519e+06
5.26288e+06
5.23027e+06
5.19738e+06
5.16422e+06
5.13078e+06
5.09708e+06
5.06312e+06
5.0289e+06
4.99443e+06
4.95971e+06
4.92476e+06
4.88957e+06
4.85415e+06
4.81851e+06
4.78264e+06
4.74656e+06
4.71027e+06
4.67376e+06
4.63706e+06
4.60016e+06
4.56306e+06
4.52577e+06
4.4883e+06
4.45065e+06
4.41281e+06
4.3748e+06
4.33663e+06
4.29828e+06
4.25977e+06
4.22111e+06
4.18228e+06
4.14331e+06
4.10419e+06
4.06492e+06
4.02552e+06
3.98598e+06
3.9463e+06
3.90649e+06
3.86656e+06
3.82651e+06
3.78634e+06
3.74605e+06
3.70565e+06
3.66515e+06
3.62454e+06
3.58383e+06
3.54302e+06
3.50212e+06
3.46113e+06
3.42006e+06
3.37891e+06
3.33768e+06
3.29638e+06
3.25501e+06
3.21357e+06
3.17208e+06
3.13052e+06
3.08892e+06
3.04727e+06
3.00558e+06
2.96385e+06
2.92208e+06
2.88029e+06
2.83847e+06
2.79663e+06
2.75478e+06
2.71292e+06
2.67106e+06
2.6292e+06
2.58734e+06
2.5455e+06
2.50367e+06
2.46187e+06
2.4201e+06
2.37836e+06
2.33667e+06
2.29502e+06
2.25343e+06
2.2119e+06
2.17043e+06
2.12904e+06
2.08773e+06
2.04651e+06
2.00538e+06
1.96436e+06
1.92344e+06
1.88264e+06
1.84197e+06
1.80143e+06
1.76103e+06
1.72078e+06
1.68069e+06
1.64077e+06
1.60102e+06
1.56145e+06
1.52209e+06
1.48292e+06
1.44397e+06
1.40525e+06
1.36676e+06
1.32852e+06
1.29054e+06
1.25282e+06
1.2154e+06
1.17827e+06
1.14146e+06
1.10498e+06
1.06885e+06
1.03309e+06
997734
962814
928373
894478
861230
828814
6.44456e+06
6.44404e+06
6.44298e+06
6.44138e+06
6.43923e+06
6.43652e+06
6.43323e+06
6.42937e+06
6.42492e+06
6.41988e+06
6.41424e+06
6.408e+06
6.40115e+06
6.39368e+06
6.38561e+06
6.37691e+06
6.36761e+06
6.35768e+06
6.34714e+06
6.33598e+06
6.32421e+06
6.31184e+06
6.29885e+06
6.28526e+06
6.27107e+06
6.25629e+06
6.24092e+06
6.22497e+06
6.20844e+06
6.19135e+06
6.17369e+06
6.15547e+06
6.13671e+06
6.11741e+06
6.09758e+06
6.07722e+06
6.05634e+06
6.03496e+06
6.01308e+06
5.9907e+06
5.96785e+06
5.94452e+06
5.92072e+06
5.89647e+06
5.87177e+06
5.84662e+06
5.82105e+06
5.79504e+06
5.76863e+06
5.7418e+06
5.71458e+06
5.68696e+06
5.65896e+06
5.63058e+06
5.60183e+06
5.57272e+06
5.54326e+06
5.51345e+06
5.4833e+06
5.45282e+06
5.42201e+06
5.39088e+06
5.35944e+06
5.32769e+06
5.29565e+06
5.26331e+06
5.23068e+06
5.19777e+06
5.16458e+06
5.13112e+06
5.0974e+06
5.06342e+06
5.02918e+06
4.99469e+06
4.95996e+06
4.92499e+06
4.88979e+06
4.85436e+06
4.8187e+06
4.78282e+06
4.74673e+06
4.71042e+06
4.67391e+06
4.6372e+06
4.60029e+06
4.56318e+06
4.52589e+06
4.4884e+06
4.45074e+06
4.4129e+06
4.37489e+06
4.3367e+06
4.29835e+06
4.25984e+06
4.22117e+06
4.18234e+06
4.14336e+06
4.10424e+06
4.06497e+06
4.02556e+06
3.98602e+06
3.94634e+06
3.90653e+06
3.86659e+06
3.82654e+06
3.78636e+06
3.74607e+06
3.70567e+06
3.66517e+06
3.62455e+06
3.58384e+06
3.54303e+06
3.50213e+06
3.46115e+06
3.42007e+06
3.37892e+06
3.33769e+06
3.29639e+06
3.25501e+06
3.21358e+06
3.17208e+06
3.13053e+06
3.08893e+06
3.04728e+06
3.00558e+06
2.96385e+06
2.92209e+06
2.88029e+06
2.83847e+06
2.79664e+06
2.75479e+06
2.71293e+06
2.67106e+06
2.6292e+06
2.58734e+06
2.5455e+06
2.50368e+06
2.46187e+06
2.4201e+06
2.37837e+06
2.33667e+06
2.29502e+06
2.25343e+06
2.2119e+06
2.17043e+06
2.12904e+06
2.08773e+06
2.04651e+06
2.00538e+06
1.96436e+06
1.92344e+06
1.88264e+06
1.84197e+06
1.80143e+06
1.76103e+06
1.72078e+06
1.68069e+06
1.64077e+06
1.60102e+06
1.56145e+06
1.52209e+06
1.48292e+06
1.44397e+06
1.40525e+06
1.36676e+06
1.32851e+06
1.29053e+06
1.25282e+06
1.21539e+06
1.17826e+06
1.14144e+06
1.10496e+06
1.06882e+06
1.03306e+06
997696
962760
928296
894359
861027
828402
6.4516e+06
6.45106e+06
6.44998e+06
6.44835e+06
6.44616e+06
6.44339e+06
6.44005e+06
6.43612e+06
6.43159e+06
6.42646e+06
6.42073e+06
6.41438e+06
6.40742e+06
6.39984e+06
6.39164e+06
6.38282e+06
6.37338e+06
6.36332e+06
6.35264e+06
6.34134e+06
6.32943e+06
6.3169e+06
6.30376e+06
6.29002e+06
6.27568e+06
6.26075e+06
6.24523e+06
6.22913e+06
6.21246e+06
6.19521e+06
6.17741e+06
6.15905e+06
6.14015e+06
6.12071e+06
6.10074e+06
6.08025e+06
6.05925e+06
6.03774e+06
6.01574e+06
5.99325e+06
5.97028e+06
5.94684e+06
5.92293e+06
5.89858e+06
5.87378e+06
5.84854e+06
5.82287e+06
5.79678e+06
5.77027e+06
5.74337e+06
5.71606e+06
5.68837e+06
5.66029e+06
5.63184e+06
5.60303e+06
5.57386e+06
5.54433e+06
5.51447e+06
5.48426e+06
5.45373e+06
5.42287e+06
5.39169e+06
5.36021e+06
5.32842e+06
5.29633e+06
5.26395e+06
5.23128e+06
5.19834e+06
5.16512e+06
5.13163e+06
5.09787e+06
5.06386e+06
5.0296e+06
4.99509e+06
4.96033e+06
4.92534e+06
4.89011e+06
4.85466e+06
4.81898e+06
4.78309e+06
4.74698e+06
4.71066e+06
4.67413e+06
4.6374e+06
4.60048e+06
4.56336e+06
4.52605e+06
4.48856e+06
4.45089e+06
4.41304e+06
4.37501e+06
4.33682e+06
4.29846e+06
4.25994e+06
4.22126e+06
4.18243e+06
4.14344e+06
4.10431e+06
4.06504e+06
4.02562e+06
3.98607e+06
3.94639e+06
3.90658e+06
3.86664e+06
3.82658e+06
3.7864e+06
3.74611e+06
3.70571e+06
3.6652e+06
3.62458e+06
3.58387e+06
3.54306e+06
3.50216e+06
3.46117e+06
3.42009e+06
3.37894e+06
3.3377e+06
3.2964e+06
3.25503e+06
3.21359e+06
3.17209e+06
3.13054e+06
3.08894e+06
3.04728e+06
3.00559e+06
2.96386e+06
2.92209e+06
2.8803e+06
2.83848e+06
2.79664e+06
2.75479e+06
2.71293e+06
2.67107e+06
2.6292e+06
2.58735e+06
2.5455e+06
2.50368e+06
2.46188e+06
2.4201e+06
2.37837e+06
2.33667e+06
2.29503e+06
2.25343e+06
2.2119e+06
2.17044e+06
2.12904e+06
2.08773e+06
2.04651e+06
2.00538e+06
1.96436e+06
1.92344e+06
1.88264e+06
1.84197e+06
1.80143e+06
1.76103e+06
1.72078e+06
1.68069e+06
1.64077e+06
1.60102e+06
1.56145e+06
1.52208e+06
1.48292e+06
1.44397e+06
1.40524e+06
1.36675e+06
1.32851e+06
1.29052e+06
1.25281e+06
1.21538e+06
1.17825e+06
1.14143e+06
1.10493e+06
1.06879e+06
1.03302e+06
997639
962682
928185
894192
860757
827924
6.46106e+06
6.4605e+06
6.45938e+06
6.4577e+06
6.45545e+06
6.45262e+06
6.44919e+06
6.44516e+06
6.44053e+06
6.43528e+06
6.42942e+06
6.42293e+06
6.41582e+06
6.40809e+06
6.39972e+06
6.39073e+06
6.38111e+06
6.37086e+06
6.35999e+06
6.3485e+06
6.33638e+06
6.32366e+06
6.31032e+06
6.29638e+06
6.28183e+06
6.2667e+06
6.25097e+06
6.23467e+06
6.2178e+06
6.20036e+06
6.18236e+06
6.16381e+06
6.14472e+06
6.1251e+06
6.10495e+06
6.08428e+06
6.06311e+06
6.04144e+06
6.01927e+06
5.99663e+06
5.9735e+06
5.94992e+06
5.92587e+06
5.90138e+06
5.87644e+06
5.85108e+06
5.82528e+06
5.79907e+06
5.77246e+06
5.74544e+06
5.71803e+06
5.69024e+06
5.66207e+06
5.63353e+06
5.60462e+06
5.57537e+06
5.54576e+06
5.51582e+06
5.48554e+06
5.45493e+06
5.42401e+06
5.39277e+06
5.36122e+06
5.32938e+06
5.29723e+06
5.2648e+06
5.23209e+06
5.19909e+06
5.16583e+06
5.1323e+06
5.0985e+06
5.06445e+06
5.03015e+06
4.99561e+06
4.96082e+06
4.9258e+06
4.89055e+06
4.85506e+06
4.81936e+06
4.78344e+06
4.74731e+06
4.71097e+06
4.67442e+06
4.63767e+06
4.60073e+06
4.5636e+06
4.52627e+06
4.48877e+06
4.45108e+06
4.41321e+06
4.37518e+06
4.33697e+06
4.2986e+06
4.26007e+06
4.22139e+06
4.18254e+06
4.14355e+06
4.10441e+06
4.06513e+06
4.02571e+06
3.98615e+06
3.94646e+06
3.90664e+06
3.8667e+06
3.82664e+06
3.78646e+06
3.74616e+06
3.70575e+06
3.66524e+06
3.62462e+06
3.5839e+06
3.54309e+06
3.50218e+06
3.46119e+06
3.42011e+06
3.37896e+06
3.33772e+06
3.29642e+06
3.25504e+06
3.21361e+06
3.17211e+06
3.13055e+06
3.08895e+06
3.04729e+06
3.0056e+06
2.96387e+06
2.9221e+06
2.8803e+06
2.83849e+06
2.79665e+06
2.75479e+06
2.71293e+06
2.67107e+06
2.62921e+06
2.58735e+06
2.54551e+06
2.50368e+06
2.46188e+06
2.42011e+06
2.37837e+06
2.33667e+06
2.29503e+06
2.25343e+06
2.2119e+06
2.17044e+06
2.12905e+06
2.08774e+06
2.04651e+06
2.00539e+06
1.96436e+06
1.92344e+06
1.88264e+06
1.84197e+06
1.80143e+06
1.76103e+06
1.72078e+06
1.68069e+06
1.64076e+06
1.60102e+06
1.56145e+06
1.52208e+06
1.48292e+06
1.44396e+06
1.40524e+06
1.36675e+06
1.3285e+06
1.29051e+06
1.2528e+06
1.21536e+06
1.17823e+06
1.1414e+06
1.1049e+06
1.06875e+06
1.03296e+06
997566
962583
928045
893987
860444
827421
6.47298e+06
6.4724e+06
6.47124e+06
6.4695e+06
6.46718e+06
6.46425e+06
6.46071e+06
6.45656e+06
6.45179e+06
6.44639e+06
6.44036e+06
6.43369e+06
6.42639e+06
6.41845e+06
6.40987e+06
6.40066e+06
6.39081e+06
6.38032e+06
6.36921e+06
6.35746e+06
6.3451e+06
6.33211e+06
6.31852e+06
6.30432e+06
6.28952e+06
6.27412e+06
6.25814e+06
6.24159e+06
6.22446e+06
6.20677e+06
6.18853e+06
6.16974e+06
6.15041e+06
6.13056e+06
6.11019e+06
6.0893e+06
6.06792e+06
6.04603e+06
6.02367e+06
6.00083e+06
5.97751e+06
5.95374e+06
5.92952e+06
5.90486e+06
5.87976e+06
5.85423e+06
5.82829e+06
5.80193e+06
5.77517e+06
5.74802e+06
5.72048e+06
5.69256e+06
5.66427e+06
5.63561e+06
5.6066e+06
5.57724e+06
5.54753e+06
5.51749e+06
5.48712e+06
5.45643e+06
5.42542e+06
5.39411e+06
5.36249e+06
5.33057e+06
5.29836e+06
5.26586e+06
5.23308e+06
5.20003e+06
5.16671e+06
5.13313e+06
5.09929e+06
5.06519e+06
5.03085e+06
4.99626e+06
4.96143e+06
4.92637e+06
4.89108e+06
4.85557e+06
4.81983e+06
4.78388e+06
4.74772e+06
4.71135e+06
4.67478e+06
4.63801e+06
4.60104e+06
4.56389e+06
4.52655e+06
4.48902e+06
4.45132e+06
4.41344e+06
4.37538e+06
4.33717e+06
4.29878e+06
4.26024e+06
4.22154e+06
4.18269e+06
4.14368e+06
4.10453e+06
4.06524e+06
4.02581e+06
3.98625e+06
3.94655e+06
3.90673e+06
3.86678e+06
3.82671e+06
3.78652e+06
3.74622e+06
3.70581e+06
3.66529e+06
3.62467e+06
3.58394e+06
3.54313e+06
3.50222e+06
3.46122e+06
3.42014e+06
3.37898e+06
3.33775e+06
3.29644e+06
3.25506e+06
3.21362e+06
3.17212e+06
3.13057e+06
3.08896e+06
3.04731e+06
3.00561e+06
2.96388e+06
2.92211e+06
2.88031e+06
2.83849e+06
2.79665e+06
2.7548e+06
2.71294e+06
2.67107e+06
2.62921e+06
2.58735e+06
2.54551e+06
2.50368e+06
2.46188e+06
2.42011e+06
2.37837e+06
2.33668e+06
2.29503e+06
2.25344e+06
2.2119e+06
2.17044e+06
2.12905e+06
2.08774e+06
2.04651e+06
2.00539e+06
1.96436e+06
1.92344e+06
1.88265e+06
1.84197e+06
1.80143e+06
1.76103e+06
1.72078e+06
1.68069e+06
1.64076e+06
1.60101e+06
1.56145e+06
1.52208e+06
1.48291e+06
1.44396e+06
1.40523e+06
1.36674e+06
1.32849e+06
1.2905e+06
1.25278e+06
1.21535e+06
1.1782e+06
1.14137e+06
1.10486e+06
1.0687e+06
1.0329e+06
997479
962464
927881
893755
860103
826914
6.48746e+06
6.48684e+06
6.48563e+06
6.48382e+06
6.4814e+06
6.47835e+06
6.47468e+06
6.47038e+06
6.46543e+06
6.45984e+06
6.4536e+06
6.44671e+06
6.43917e+06
6.43097e+06
6.42213e+06
6.41264e+06
6.4025e+06
6.39172e+06
6.3803e+06
6.36825e+06
6.35558e+06
6.34228e+06
6.32837e+06
6.31385e+06
6.29873e+06
6.28302e+06
6.26673e+06
6.24987e+06
6.23243e+06
6.21444e+06
6.19591e+06
6.17683e+06
6.15722e+06
6.13709e+06
6.11644e+06
6.09529e+06
6.07365e+06
6.05152e+06
6.02891e+06
6.00583e+06
5.9823e+06
5.95831e+06
5.93387e+06
5.909e+06
5.88371e+06
5.85799e+06
5.83186e+06
5.80533e+06
5.7784e+06
5.75109e+06
5.72339e+06
5.69532e+06
5.66689e+06
5.63809e+06
5.60895e+06
5.57946e+06
5.54964e+06
5.51949e+06
5.48901e+06
5.45821e+06
5.42711e+06
5.3957e+06
5.36399e+06
5.33198e+06
5.29969e+06
5.26712e+06
5.23427e+06
5.20115e+06
5.16776e+06
5.13412e+06
5.10022e+06
5.06606e+06
5.03167e+06
4.99703e+06
4.96216e+06
4.92705e+06
4.89172e+06
4.85616e+06
4.82039e+06
4.78441e+06
4.74821e+06
4.71181e+06
4.67521e+06
4.63841e+06
4.60142e+06
4.56424e+06
4.52687e+06
4.48932e+06
4.4516e+06
4.4137e+06
4.37563e+06
4.33739e+06
4.29899e+06
4.26044e+06
4.22172e+06
4.18286e+06
4.14384e+06
4.10468e+06
4.06538e+06
4.02594e+06
3.98636e+06
3.94666e+06
3.90683e+06
3.86687e+06
3.82679e+06
3.7866e+06
3.74629e+06
3.70587e+06
3.66535e+06
3.62472e+06
3.58399e+06
3.54317e+06
3.50226e+06
3.46126e+06
3.42018e+06
3.37902e+06
3.33778e+06
3.29647e+06
3.25509e+06
3.21365e+06
3.17214e+06
3.13059e+06
3.08898e+06
3.04732e+06
3.00562e+06
2.96389e+06
2.92212e+06
2.88032e+06
2.8385e+06
2.79666e+06
2.75481e+06
2.71295e+06
2.67108e+06
2.62922e+06
2.58736e+06
2.54551e+06
2.50369e+06
2.46188e+06
2.42011e+06
2.37837e+06
2.33668e+06
2.29503e+06
2.25344e+06
2.21191e+06
2.17044e+06
2.12905e+06
2.08774e+06
2.04652e+06
2.00539e+06
1.96436e+06
1.92345e+06
1.88265e+06
1.84197e+06
1.80143e+06
1.76103e+06
1.72078e+06
1.68069e+06
1.64076e+06
1.60101e+06
1.56145e+06
1.52208e+06
1.48291e+06
1.44396e+06
1.40523e+06
1.36673e+06
1.32848e+06
1.29049e+06
1.25277e+06
1.21532e+06
1.17818e+06
1.14134e+06
1.10482e+06
1.06864e+06
1.03282e+06
997379
962331
927700
893503
859749
826414
6.50459e+06
6.50393e+06
6.50265e+06
6.50075e+06
6.49821e+06
6.49502e+06
6.49118e+06
6.48669e+06
6.48152e+06
6.4757e+06
6.4692e+06
6.46203e+06
6.4542e+06
6.44569e+06
6.43653e+06
6.4267e+06
6.41621e+06
6.40508e+06
6.3933e+06
6.38088e+06
6.36783e+06
6.35415e+06
6.33987e+06
6.32497e+06
6.30948e+06
6.29339e+06
6.27673e+06
6.2595e+06
6.24171e+06
6.22336e+06
6.20448e+06
6.18506e+06
6.16511e+06
6.14466e+06
6.12369e+06
6.10224e+06
6.08029e+06
6.05787e+06
6.03498e+06
6.01163e+06
5.98783e+06
5.96358e+06
5.9389e+06
5.9138e+06
5.88827e+06
5.86233e+06
5.83599e+06
5.80926e+06
5.78214e+06
5.75463e+06
5.72676e+06
5.69851e+06
5.66991e+06
5.64096e+06
5.61167e+06
5.58204e+06
5.55207e+06
5.52179e+06
5.49119e+06
5.46027e+06
5.42905e+06
5.39753e+06
5.36572e+06
5.33362e+06
5.30124e+06
5.26857e+06
5.23564e+06
5.20244e+06
5.16898e+06
5.13526e+06
5.10129e+06
5.06708e+06
5.03262e+06
4.99792e+06
4.96299e+06
4.92784e+06
4.89245e+06
4.85685e+06
4.82104e+06
4.78501e+06
4.74878e+06
4.71234e+06
4.6757e+06
4.63887e+06
4.60185e+06
4.56464e+06
4.52725e+06
4.48967e+06
4.45193e+06
4.414e+06
4.37591e+06
4.33766e+06
4.29924e+06
4.26066e+06
4.22193e+06
4.18305e+06
4.14402e+06
4.10485e+06
4.06553e+06
4.02608e+06
3.9865e+06
3.94678e+06
3.90694e+06
3.86697e+06
3.82689e+06
3.78669e+06
3.74637e+06
3.70595e+06
3.66542e+06
3.62478e+06
3.58405e+06
3.54323e+06
3.50231e+06
3.46131e+06
3.42022e+06
3.37905e+06
3.33781e+06
3.2965e+06
3.25512e+06
3.21367e+06
3.17217e+06
3.13061e+06
3.089e+06
3.04734e+06
3.00564e+06
2.9639e+06
2.92213e+06
2.88033e+06
2.83851e+06
2.79667e+06
2.75482e+06
2.71295e+06
2.67109e+06
2.62922e+06
2.58736e+06
2.54552e+06
2.50369e+06
2.46189e+06
2.42012e+06
2.37838e+06
2.33668e+06
2.29503e+06
2.25344e+06
2.21191e+06
2.17044e+06
2.12905e+06
2.08774e+06
2.04652e+06
2.00539e+06
1.96436e+06
1.92345e+06
1.88265e+06
1.84197e+06
1.80143e+06
1.76103e+06
1.72078e+06
1.68069e+06
1.64076e+06
1.60101e+06
1.56145e+06
1.52207e+06
1.48291e+06
1.44395e+06
1.40522e+06
1.36672e+06
1.32847e+06
1.29048e+06
1.25275e+06
1.2153e+06
1.17815e+06
1.1413e+06
1.10477e+06
1.06858e+06
1.03274e+06
997270
962186
927505
893239
859389
825928
6.52449e+06
6.52378e+06
6.52243e+06
6.52041e+06
6.51772e+06
6.51436e+06
6.51032e+06
6.50559e+06
6.50016e+06
6.49405e+06
6.48724e+06
6.47974e+06
6.47155e+06
6.46267e+06
6.45311e+06
6.44288e+06
6.43198e+06
6.42042e+06
6.40821e+06
6.39535e+06
6.38186e+06
6.36774e+06
6.35301e+06
6.33767e+06
6.32174e+06
6.30522e+06
6.28813e+06
6.27047e+06
6.25226e+06
6.23351e+06
6.21422e+06
6.1944e+06
6.17408e+06
6.15325e+06
6.13192e+06
6.11011e+06
6.08782e+06
6.06507e+06
6.04185e+06
6.01819e+06
5.99409e+06
5.96956e+06
5.9446e+06
5.91922e+06
5.89344e+06
5.86725e+06
5.84067e+06
5.81371e+06
5.78636e+06
5.75864e+06
5.73056e+06
5.70212e+06
5.67333e+06
5.6442e+06
5.61474e+06
5.58494e+06
5.55482e+06
5.52439e+06
5.49364e+06
5.4626e+06
5.43125e+06
5.39961e+06
5.36768e+06
5.33547e+06
5.30298e+06
5.27022e+06
5.23719e+06
5.2039e+06
5.17035e+06
5.13655e+06
5.10251e+06
5.06822e+06
5.03369e+06
4.99893e+06
4.96394e+06
4.92872e+06
4.89329e+06
4.85763e+06
4.82177e+06
4.78569e+06
4.74942e+06
4.71294e+06
4.67626e+06
4.6394e+06
4.60234e+06
4.5651e+06
4.52767e+06
4.49007e+06
4.45229e+06
4.41435e+06
4.37623e+06
4.33795e+06
4.29952e+06
4.26092e+06
4.22217e+06
4.18327e+06
4.14423e+06
4.10504e+06
4.06571e+06
4.02625e+06
3.98665e+06
3.94692e+06
3.90707e+06
3.86709e+06
3.827e+06
3.78679e+06
3.74646e+06
3.70603e+06
3.66549e+06
3.62486e+06
3.58412e+06
3.54329e+06
3.50237e+06
3.46136e+06
3.42027e+06
3.3791e+06
3.33785e+06
3.29653e+06
3.25515e+06
3.2137e+06
3.17219e+06
3.13063e+06
3.08902e+06
3.04736e+06
3.00566e+06
2.96392e+06
2.92215e+06
2.88035e+06
2.83852e+06
2.79668e+06
2.75483e+06
2.71296e+06
2.67109e+06
2.62923e+06
2.58737e+06
2.54552e+06
2.5037e+06
2.46189e+06
2.42012e+06
2.37838e+06
2.33669e+06
2.29504e+06
2.25344e+06
2.21191e+06
2.17045e+06
2.12905e+06
2.08774e+06
2.04652e+06
2.00539e+06
1.96436e+06
1.92345e+06
1.88265e+06
1.84197e+06
1.80143e+06
1.76103e+06
1.72078e+06
1.68069e+06
1.64076e+06
1.60101e+06
1.56144e+06
1.52207e+06
1.4829e+06
1.44394e+06
1.40521e+06
1.36671e+06
1.32846e+06
1.29046e+06
1.25273e+06
1.21527e+06
1.17811e+06
1.14126e+06
1.10472e+06
1.06851e+06
1.03265e+06
997152
962032
927302
892969
859030
825460
6.54732e+06
6.54655e+06
6.54509e+06
6.54294e+06
6.54008e+06
6.5365e+06
6.53221e+06
6.52719e+06
6.52145e+06
6.51499e+06
6.5078e+06
6.4999e+06
6.49128e+06
6.48196e+06
6.47194e+06
6.46123e+06
6.44984e+06
6.43778e+06
6.42506e+06
6.41169e+06
6.39768e+06
6.38305e+06
6.3678e+06
6.35195e+06
6.33551e+06
6.31849e+06
6.30091e+06
6.28276e+06
6.26407e+06
6.24485e+06
6.2251e+06
6.20485e+06
6.18408e+06
6.16283e+06
6.14109e+06
6.11888e+06
6.09621e+06
6.07308e+06
6.04951e+06
6.0255e+06
6.00106e+06
5.97621e+06
5.95094e+06
5.92526e+06
5.89919e+06
5.87272e+06
5.84587e+06
5.81865e+06
5.79106e+06
5.7631e+06
5.73479e+06
5.70613e+06
5.67713e+06
5.6478e+06
5.61814e+06
5.58817e+06
5.55788e+06
5.52728e+06
5.49638e+06
5.46518e+06
5.43369e+06
5.40191e+06
5.36985e+06
5.33752e+06
5.30491e+06
5.27204e+06
5.23891e+06
5.20552e+06
5.17188e+06
5.13799e+06
5.10385e+06
5.06948e+06
5.03488e+06
5.00005e+06
4.96499e+06
4.92971e+06
4.89421e+06
4.8585e+06
4.82258e+06
4.78645e+06
4.75013e+06
4.7136e+06
4.67689e+06
4.63998e+06
4.60288e+06
4.5656e+06
4.52815e+06
4.49051e+06
4.45271e+06
4.41473e+06
4.37659e+06
4.33829e+06
4.29982e+06
4.26121e+06
4.22244e+06
4.18352e+06
4.14446e+06
4.10525e+06
4.06591e+06
4.02643e+06
3.98682e+06
3.94708e+06
3.90721e+06
3.86722e+06
3.82712e+06
3.7869e+06
3.74657e+06
3.70613e+06
3.66558e+06
3.62493e+06
3.58419e+06
3.54335e+06
3.50243e+06
3.46141e+06
3.42032e+06
3.37914e+06
3.33789e+06
3.29657e+06
3.25518e+06
3.21373e+06
3.17222e+06
3.13066e+06
3.08904e+06
3.04738e+06
3.00568e+06
2.96394e+06
2.92216e+06
2.88036e+06
2.83854e+06
2.79669e+06
2.75484e+06
2.71297e+06
2.6711e+06
2.62924e+06
2.58738e+06
2.54553e+06
2.5037e+06
2.4619e+06
2.42012e+06
2.37839e+06
2.33669e+06
2.29504e+06
2.25345e+06
2.21191e+06
2.17045e+06
2.12906e+06
2.08774e+06
2.04652e+06
2.00539e+06
1.96437e+06
1.92345e+06
1.88265e+06
1.84197e+06
1.80143e+06
1.76103e+06
1.72078e+06
1.68069e+06
1.64076e+06
1.60101e+06
1.56144e+06
1.52207e+06
1.4829e+06
1.44394e+06
1.4052e+06
1.3667e+06
1.32844e+06
1.29044e+06
1.25271e+06
1.21525e+06
1.17808e+06
1.14121e+06
1.10466e+06
1.06844e+06
1.03255e+06
997029
961872
927094
892698
858679
825012
6.57325e+06
6.57241e+06
6.57083e+06
6.56851e+06
6.56544e+06
6.5616e+06
6.557e+06
6.55164e+06
6.54551e+06
6.53863e+06
6.53099e+06
6.52261e+06
6.51348e+06
6.50363e+06
6.49306e+06
6.48179e+06
6.46982e+06
6.45717e+06
6.44386e+06
6.4299e+06
6.41529e+06
6.40007e+06
6.38423e+06
6.36779e+06
6.35077e+06
6.33318e+06
6.31504e+06
6.29634e+06
6.27712e+06
6.25737e+06
6.23711e+06
6.21635e+06
6.1951e+06
6.17338e+06
6.15118e+06
6.12853e+06
6.10543e+06
6.08189e+06
6.05792e+06
6.03352e+06
6.00872e+06
5.9835e+06
5.95789e+06
5.93188e+06
5.90549e+06
5.87872e+06
5.85158e+06
5.82407e+06
5.7962e+06
5.76798e+06
5.73942e+06
5.71052e+06
5.68129e+06
5.65174e+06
5.62188e+06
5.5917e+06
5.56122e+06
5.53044e+06
5.49936e+06
5.468e+06
5.43635e+06
5.40443e+06
5.37223e+06
5.33976e+06
5.30703e+06
5.27404e+06
5.24079e+06
5.20729e+06
5.17354e+06
5.13956e+06
5.10533e+06
5.07087e+06
5.03618e+06
5.00127e+06
4.96614e+06
4.93079e+06
4.89522e+06
4.85945e+06
4.82347e+06
4.78729e+06
4.75091e+06
4.71433e+06
4.67757e+06
4.64061e+06
4.60348e+06
4.56616e+06
4.52866e+06
4.49099e+06
4.45315e+06
4.41515e+06
4.37698e+06
4.33865e+06
4.30016e+06
4.26152e+06
4.22273e+06
4.18379e+06
4.14471e+06
4.10548e+06
4.06612e+06
4.02663e+06
3.987e+06
3.94725e+06
3.90737e+06
3.86737e+06
3.82725e+06
3.78702e+06
3.74668e+06
3.70623e+06
3.66568e+06
3.62502e+06
3.58427e+06
3.54343e+06
3.50249e+06
3.46148e+06
3.42037e+06
3.37919e+06
3.33794e+06
3.29662e+06
3.25522e+06
3.21377e+06
3.17226e+06
3.13069e+06
3.08907e+06
3.04741e+06
3.0057e+06
2.96396e+06
2.92218e+06
2.88038e+06
2.83855e+06
2.79671e+06
2.75485e+06
2.71298e+06
2.67111e+06
2.62924e+06
2.58738e+06
2.54554e+06
2.50371e+06
2.4619e+06
2.42013e+06
2.37839e+06
2.33669e+06
2.29505e+06
2.25345e+06
2.21192e+06
2.17045e+06
2.12906e+06