/*--------------------------------*- C++ -*----------------------------------*\
  =========                 |
  \\      /  F ield         | OpenFOAM: The Open Source CFD Toolbox
   \\    /   O peration     | Website:  https://openfoam.org
    \\  /    A nd           | Version:  7
     \\/     M anipulation  |
\*---------------------------------------------------------------------------*/
FoamFile
{
    version     2.0;
    format      ascii;
    class       volVectorField;
    location    "0.036";
    object      U_0;
}
// * * * * * * * * * * * * * * * * * * * * * * * * * * * * * * * * * * * * * //

dimensions      [0 1 -1 0 0 0 0];

internalField   nonuniform List<vector> 
12225
(
(4.88486 0.178248 0)
(4.23537 0.119823 0)
(3.71377 0.101391 0)
(3.30444 0.0836433 0)
(2.95141 0.0704642 0)
(2.63682 0.0618344 0)
(2.33984 0.0571466 0)
(2.04824 0.0517777 0)
(1.77009 0.0423917 0)
(1.51928 0.0311412 0)
(1.30533 0.0210237 0)
(1.13286 0.0135046 0)
(0.99087 0.00840599 0)
(0.876343 0.00535499 0)
(0.76855 0.00448909 0)
(0.685322 0.0043867 0)
(0.589605 0.00762597 0)
(0.528249 0.000846343 0)
(5.03519 0.115828 0)
(4.92146 0.0927024 0)
(4.78016 0.108422 0)
(4.66667 0.101039 0)
(4.56547 0.0920891 0)
(4.46113 0.0879522 0)
(4.34273 0.0902178 0)
(4.20689 0.0976162 0)
(4.05827 0.10404 0)
(3.90798 0.103635 0)
(3.76381 0.0962242 0)
(3.63122 0.086963 0)
(3.49349 0.0796607 0)
(3.35524 0.0746779 0)
(3.20027 0.0705944 0)
(3.06221 0.0647137 0)
(2.91516 0.0620292 0)
(2.79295 0.0544112 0)
(4.97178 0.144242 0)
(4.92112 0.12044 0)
(4.86198 0.145052 0)
(4.81754 0.137069 0)
(4.79519 0.125839 0)
(4.77666 0.122303 0)
(4.74124 0.126326 0)
(4.68987 0.133942 0)
(4.63414 0.137047 0)
(4.5822 0.130578 0)
(4.53678 0.117219 0)
(4.49762 0.105845 0)
(4.46042 0.102551 0)
(4.41968 0.106974 0)
(4.36956 0.113327 0)
(4.30569 0.115403 0)
(4.23481 0.11527 0)
(4.14632 0.111855 0)
(5.03756 0.186949 0)
(4.87779 0.12255 0)
(4.75136 0.138493 0)
(4.71765 0.128874 0)
(4.7247 0.112113 0)
(4.73307 0.107011 0)
(4.73058 0.115815 0)
(4.72201 0.129738 0)
(4.71568 0.137184 0)
(4.71237 0.133061 0)
(4.70814 0.120891 0)
(4.6992 0.109709 0)
(4.68799 0.106452 0)
(4.67512 0.110933 0)
(4.66272 0.119174 0)
(4.64354 0.125526 0)
(4.62227 0.130937 0)
(4.58883 0.134765 0)
(4.98307 0.183506 0)
(4.93208 0.166472 0)
(4.85445 0.167362 0)
(4.81039 0.145955 0)
(4.78928 0.127311 0)
(4.77965 0.121606 0)
(4.7763 0.126154 0)
(4.77836 0.133934 0)
(4.78645 0.136888 0)
(4.79575 0.131883 0)
(4.79853 0.122357 0)
(4.79012 0.114733 0)
(4.77377 0.113491 0)
(4.75516 0.118172 0)
(4.73983 0.125991 0)
(4.72667 0.133211 0)
(4.71603 0.139486 0)
(4.70311 0.145286 0)
(5.00898 0.217516 0)
(4.99627 0.161857 0)
(4.98802 0.155174 0)
(4.95205 0.140229 0)
(4.89803 0.12255 0)
(4.84843 0.113939 0)
(4.81611 0.117596 0)
(4.8014 0.127601 0)
(4.79777 0.134087 0)
(4.7958 0.132365 0)
(4.78882 0.125369 0)
(4.7757 0.119531 0)
(4.76077 0.119419 0)
(4.74791 0.124751 0)
(4.73903 0.132542 0)
(4.73227 0.139856 0)
(4.72636 0.145719 0)
(4.71919 0.151845 0)
(5.02398 0.212551 0)
(4.98768 0.176975 0)
(4.9462 0.175621 0)
(4.90336 0.181712 0)
(4.85346 0.172555 0)
(4.80484 0.154618 0)
(4.77206 0.140587 0)
(4.76118 0.135487 0)
(4.76691 0.135323 0)
(4.77681 0.134367 0)
(4.78093 0.13122 0)
(4.77696 0.128338 0)
(4.7695 0.128319 0)
(4.76316 0.131482 0)
(4.76038 0.136216 0)
(4.75906 0.141187 0)
(4.75878 0.145732 0)
(4.75518 0.151238 0)
(5.08747 0.28027 0)
(4.95029 0.207957 0)
(4.87825 0.167174 0)
(4.84901 0.158899 0)
(4.85115 0.155392 0)
(4.86128 0.146814 0)
(4.85682 0.137702 0)
(4.83501 0.13265 0)
(4.81043 0.130659 0)
(4.79625 0.128462 0)
(4.79575 0.125295 0)
(4.80542 0.122972 0)
(4.82101 0.123378 0)
(4.83804 0.12708 0)
(4.85298 0.133131 0)
(4.86116 0.140231 0)
(4.86278 0.147892 0)
(4.85446 0.155633 0)
(4.91784 0.286876 0)
(4.96268 0.233994 0)
(4.92477 0.201665 0)
(4.89339 0.185026 0)
(4.88744 0.165591 0)
(4.88984 0.152216 0)
(4.88531 0.149611 0)
(4.87625 0.151355 0)
(4.87142 0.149017 0)
(4.87273 0.139849 0)
(4.87574 0.127248 0)
(4.87658 0.116781 0)
(4.8761 0.112405 0)
(4.87612 0.115158 0)
(4.87817 0.123739 0)
(4.87993 0.135614 0)
(4.8809 0.149088 0)
(4.87877 0.161888 0)
(4.95506 0.315866 0)
(5.00826 0.230328 0)
(5.02314 0.196614 0)
(5.0267 0.179805 0)
(4.99703 0.165451 0)
(4.95136 0.155353 0)
(4.91397 0.148121 0)
(4.89407 0.140795 0)
(4.88806 0.133687 0)
(4.88792 0.128115 0)
(4.88733 0.124502 0)
(4.88391 0.122791 0)
(4.87881 0.123121 0)
(4.87374 0.125887 0)
(4.87031 0.131433 0)
(4.8687 0.139594 0)
(4.86931 0.149476 0)
(4.87262 0.160128 0)
(4.86693 0.268795 0)
(4.92023 0.20512 0)
(4.92608 0.18387 0)
(4.93352 0.17807 0)
(4.93419 0.182364 0)
(4.93035 0.184062 0)
(4.92269 0.177043 0)
(4.91245 0.164738 0)
(4.90502 0.151539 0)
(4.9042 0.139263 0)
(4.90866 0.128681 0)
(4.914 0.121278 0)
(4.91605 0.118539 0)
(4.91322 0.120853 0)
(4.90614 0.127169 0)
(4.89765 0.135909 0)
(4.89032 0.145205 0)
(4.88678 0.154044 0)
(4.99926 0.252608 0)
(5.0736 0.195298 0)
(5.07059 0.196677 0)
(5.01812 0.192072 0)
(4.96165 0.182259 0)
(4.93041 0.1718 0)
(4.92761 0.160501 0)
(4.93969 0.148692 0)
(4.95258 0.13701 0)
(4.95854 0.126893 0)
(4.95644 0.12028 0)
(4.94856 0.119013 0)
(4.93875 0.12329 0)
(4.92911 0.131663 0)
(4.92136 0.141387 0)
(4.91503 0.15033 0)
(4.91135 0.15722 0)
(4.90828 0.162063 0)
(5.07194 0.243714 0)
(4.98567 0.202585 0)
(4.95439 0.199153 0)
(4.95626 0.201575 0)
(4.97432 0.198804 0)
(4.99295 0.187713 0)
(5 0.170773 0)
(4.99067 0.154887 0)
(4.96877 0.144583 0)
(4.94272 0.138929 0)
(4.92131 0.135211 0)
(4.90953 0.132577 0)
(4.9088 0.131786 0)
(4.91565 0.133742 0)
(4.92696 0.138102 0)
(4.93747 0.1441 0)
(4.94722 0.150585 0)
(4.95263 0.157059 0)
(5.14732 0.376057 0)
(5.12169 0.268183 0)
(5.09039 0.220987 0)
(5.02814 0.195273 0)
(4.98312 0.17797 0)
(4.96454 0.168959 0)
(4.96435 0.16617 0)
(4.97451 0.166795 0)
(4.98822 0.165088 0)
(4.99984 0.155927 0)
(5.00581 0.140211 0)
(5.00528 0.12414 0)
(4.99979 0.114365 0)
(4.99194 0.113722 0)
(4.98482 0.120551 0)
(4.98018 0.131224 0)
(4.97954 0.141769 0)
(4.98262 0.150118 0)
(5.0135 0.31178 0)
(5.04049 0.242728 0)
(5.03264 0.240699 0)
(4.99814 0.245723 0)
(4.97477 0.227221 0)
(4.96953 0.191084 0)
(4.97996 0.154039 0)
(5.0042 0.129019 0)
(5.03578 0.11947 0)
(5.06433 0.12207 0)
(5.081 0.131404 0)
(5.08241 0.142498 0)
(5.07133 0.151661 0)
(5.05391 0.15701 0)
(5.03643 0.158165 0)
(5.02254 0.156437 0)
(5.01408 0.15289 0)
(5.00958 0.149764 0)
(5.07908 0.28551 0)
(5.01667 0.305963 0)
(4.97787 0.269793 0)
(4.97003 0.24003 0)
(4.99122 0.210145 0)
(5.00992 0.176498 0)
(5.0104 0.147256 0)
(4.99857 0.128137 0)
(4.98566 0.119216 0)
(4.97905 0.117997 0)
(4.98089 0.121936 0)
(4.98923 0.128801 0)
(5.00138 0.136403 0)
(5.01476 0.143187 0)
(5.02851 0.148208 0)
(5.04055 0.151367 0)
(5.05174 0.152903 0)
(5.05934 0.153305 0)
(4.90636 0.343505 0)
(4.93553 0.331183 0)
(4.94234 0.264642 0)
(4.95377 0.210611 0)
(4.97123 0.175227 0)
(4.98255 0.160364 0)
(4.98457 0.154746 0)
(4.98283 0.147009 0)
(4.98387 0.135483 0)
(4.9908 0.124873 0)
(5.00285 0.119257 0)
(5.01728 0.118739 0)
(5.03203 0.120911 0)
(5.04654 0.123038 0)
(5.06145 0.124114 0)
(5.07654 0.124473 0)
(5.09184 0.124895 0)
(5.10566 0.127136 0)
(4.95782 0.22653 0)
(4.993 0.243071 0)
(5.02608 0.236134 0)
(5.04334 0.221207 0)
(5.05108 0.197747 0)
(5.05581 0.176663 0)
(5.05547 0.158678 0)
(5.05186 0.13708 0)
(5.04515 0.112358 0)
(5.03662 0.0922155 0)
(5.03057 0.0823025 0)
(5.03051 0.0819388 0)
(5.03718 0.0862816 0)
(5.04894 0.0905997 0)
(5.0628 0.0928487 0)
(5.07597 0.0937497 0)
(5.0863 0.0950881 0)
(5.09318 0.0995686 0)
(4.98658 0.211922 0)
(4.9582 0.230491 0)
(4.96418 0.206512 0)
(4.98102 0.166502 0)
(5.00347 0.144994 0)
(5.03126 0.141147 0)
(5.05756 0.147475 0)
(5.07482 0.156409 0)
(5.08131 0.16032 0)
(5.07962 0.153741 0)
(5.07452 0.13569 0)
(5.07054 0.111008 0)
(5.07068 0.087339 0)
(5.07498 0.0717252 0)
(5.08231 0.067568 0)
(5.09059 0.074019 0)
(5.09945 0.0878486 0)
(5.10811 0.104291 0)
(4.96701 0.240085 0)
(4.98755 0.237708 0)
(5.00297 0.217924 0)
(5.02193 0.169712 0)
(5.04032 0.128061 0)
(5.05795 0.104863 0)
(5.07255 0.099661 0)
(5.08917 0.105372 0)
(5.11295 0.112318 0)
(5.14132 0.113414 0)
(5.16665 0.106687 0)
(5.18265 0.0943886 0)
(5.18843 0.0804726 0)
(5.18681 0.0686212 0)
(5.18307 0.0606241 0)
(5.18107 0.0568141 0)
(5.1842 0.0556592 0)
(5.19257 0.0561287 0)
(4.96779 0.215828 0)
(5.03505 0.196595 0)
(5.03668 0.1629 0)
(5.03842 0.11273 0)
(5.04791 0.0881764 0)
(5.0668 0.0871898 0)
(5.09286 0.0897885 0)
(5.12071 0.0840726 0)
(5.14873 0.0726518 0)
(5.17618 0.0641145 0)
(5.20049 0.06316 0)
(5.21905 0.0678964 0)
(5.23165 0.0730707 0)
(5.23988 0.0743325 0)
(5.24614 0.070235 0)
(5.2522 0.0623571 0)
(5.25953 0.0527829 0)
(5.2685 0.0446704 0)
(5.04618 0.223263 0)
(5.07537 0.204785 0)
(5.08496 0.207113 0)
(5.09522 0.16545 0)
(5.09937 0.108896 0)
(5.10258 0.0674346 0)
(5.11311 0.0472278 0)
(5.1278 0.0419269 0)
(5.14362 0.0437247 0)
(5.16079 0.0478901 0)
(5.17906 0.0522328 0)
(5.19702 0.0556187 0)
(5.21365 0.056882 0)
(5.22837 0.0551406 0)
(5.24115 0.0500909 0)
(5.25209 0.0427042 0)
(5.26207 0.0338733 0)
(5.27148 0.02559 0)
(4.98459 0.216428 0)
(4.99926 0.183773 0)
(5.04907 0.129019 0)
(5.11122 0.0901011 0)
(5.1575 0.0724568 0)
(5.18306 0.0638468 0)
(5.1993 0.0539824 0)
(5.21383 0.0407852 0)
(5.23034 0.027313 0)
(5.24986 0.0179736 0)
(5.27065 0.0154546 0)
(5.28992 0.0189641 0)
(5.30623 0.0248949 0)
(5.31915 0.0291362 0)
(5.32904 0.0290206 0)
(5.33624 0.0245644 0)
(5.3417 0.0169241 0)
(5.34607 0.00863473 0)
(5.05901 0.298473 0)
(5.10453 0.201628 0)
(5.15 0.138136 0)
(5.19113 0.10159 0)
(5.22143 0.0675324 0)
(5.24549 0.0431821 0)
(5.26864 0.0284957 0)
(5.28783 0.0188424 0)
(5.3009 0.0128584 0)
(5.31022 0.0111853 0)
(5.31899 0.0141372 0)
(5.32846 0.0204916 0)
(5.33832 0.0276414 0)
(5.34742 0.0329423 0)
(5.35464 0.0341295 0)
(5.35951 0.0309715 0)
(5.36251 0.0238711 0)
(5.36477 0.0147058 0)
(4.99925 0.23315 0)
(5.07065 0.118522 0)
(5.16564 0.0554914 0)
(5.2404 0.0350595 0)
(5.27839 0.0255964 0)
(5.28998 0.0173396 0)
(5.28771 0.0111822 0)
(5.27679 0.00709741 0)
(5.26145 0.00331599 0)
(5.24862 -0.000675418 0)
(5.24472 -0.00332858 0)
(5.25227 -0.0025055 0)
(5.27007 0.00189322 0)
(5.29427 0.00775033 0)
(5.32139 0.0118528 0)
(5.34783 0.0123293 0)
(5.37299 0.00833995 0)
(5.39444 0.000534302 0)
(4.9935 0.238249 0)
(5.0598 0.124712 0)
(5.12022 0.0730047 0)
(5.17109 0.0586273 0)
(5.20293 0.0477005 0)
(5.22821 0.0399819 0)
(5.25946 0.038541 0)
(5.29695 0.0392226 0)
(5.33469 0.0356321 0)
(5.36692 0.0254143 0)
(5.39145 0.0118308 0)
(5.41059 4.7896e-05 0)
(5.42913 -0.00726722 0)
(5.45092 -0.010741 0)
(5.47775 -0.0128333 0)
(5.50723 -0.0154588 0)
(5.53698 -0.019711 0)
(5.56196 -0.0249894 0)
(4.96533 0.105472 0)
(5.09467 0.0310493 0)
(5.18463 0.00371478 0)
(5.24294 -0.004784 0)
(5.28686 -0.0127668 0)
(5.32196 -0.022363 0)
(5.35059 -0.0303437 0)
(5.37774 -0.0348116 0)
(5.40547 -0.0357996 0)
(5.43151 -0.0344446 0)
(5.45325 -0.0321549 0)
(5.47043 -0.0304621 0)
(5.48553 -0.0306492 0)
(5.50147 -0.0330949 0)
(5.5197 -0.0368793 0)
(5.53893 -0.0408064 0)
(5.55757 -0.0437271 0)
(5.57257 -0.0446811 0)
(5.01414 0.150308 0)
(5.16285 0.0724593 0)
(5.29171 0.0448991 0)
(5.33784 0.0200993 0)
(5.3505 0.00396463 0)
(5.36941 0.00138416 0)
(5.40597 0.00483544 0)
(5.4558 0.0053778 0)
(5.5081 0.000992101 0)
(5.55297 -0.00594272 0)
(5.58604 -0.0131978 0)
(5.60834 -0.0200308 0)
(5.62374 -0.0263979 0)
(5.63595 -0.032432 0)
(5.64692 -0.0376866 0)
(5.65712 -0.0414526 0)
(5.66624 -0.0432116 0)
(5.67419 -0.0432582 0)
(4.91628 0.0314339 0)
(5.21613 -0.0539113 0)
(5.3865 -0.0336477 0)
(5.4469 -0.0306987 0)
(5.44853 -0.0378854 0)
(5.44336 -0.0505645 0)
(5.45456 -0.0652662 0)
(5.4782 -0.0756028 0)
(5.50175 -0.076839 0)
(5.51724 -0.0697764 0)
(5.52332 -0.0593374 0)
(5.52292 -0.0508074 0)
(5.51963 -0.0469698 0)
(5.51654 -0.0478155 0)
(5.51411 -0.0514046 0)
(5.51239 -0.0554811 0)
(5.50902 -0.0584436 0)
(5.5044 -0.0601071 0)
(5.02453 0.0144149 0)
(5.07344 -0.0283926 0)
(4.99276 -0.0143467 0)
(4.88536 -0.00864511 0)
(4.8065 -0.0033584 0)
(4.73425 -0.00422413 0)
(4.63816 -0.0112998 0)
(4.51394 -0.0188068 0)
(4.37926 -0.0224933 0)
(4.25451 -0.0222642 0)
(4.14905 -0.0210317 0)
(4.06012 -0.0218078 0)
(3.97784 -0.0255133 0)
(3.8937 -0.0308274 0)
(3.80292 -0.035318 0)
(3.70823 -0.0371566 0)
(3.61224 -0.0358677 0)
(3.52232 -0.0326033 0)
(0.0176652 -0.0471601 -6.428e-21)
(0.0873132 -0.0906646 6.38136e-21)
(0.176491 -0.103336 0)
(0.265154 -0.105115 0)
(0.353668 -0.103953 0)
(0.442465 -0.102523 -6.20698e-21)
(0.531792 -0.101427 0)
(0.62189 -0.100538 0)
(0.712828 -0.0995207 0)
(0.804322 -0.0979463 0)
(0.89563 -0.0953441 6.03264e-21)
(0.985539 -0.0911999 0)
(1.07239 -0.0849873 0)
(1.15396 -0.0762372 0)
(1.22778 -0.0643711 0)
(1.29065 -0.0493106 5.89992e-21)
(1.33999 -0.0305687 0)
(1.37221 -0.00797896 0)
(1.38628 0.0180191 0)
(1.3785 0.0459772 0)
(1.34793 0.0728258 0)
(1.29652 0.0965706 0)
(1.22986 0.11315 0)
(1.15383 0.109529 5.58991e-21)
(1.0752 0.0623087 -5.53462e-21)
(0.99387 -0.0320536 5.47977e-21)
(0.900638 -0.127081 5.42942e-21)
(0.787273 -0.148146 0)
(0.628516 -0.0247385 0)
(0.358553 0.18145 -5.29361e-21)
(-0.000942377 0.304419 -5.24559e-21)
(-0.379558 0.344628 0)
(-0.763981 0.356936 0)
(-1.14103 0.353263 -5.1527e-21)
(-1.50485 0.340555 0)
(-1.85172 0.322941 0)
(-2.18003 0.30317 5.15858e-21)
(-2.48919 0.282601 0)
(-2.77906 0.261813 5.19231e-21)
(-3.04961 0.241184 1.04245e-20)
(-3.30079 0.220926 0)
(-3.53242 0.200956 0)
(-3.74399 0.181067 0)
(-3.93475 0.161003 0)
(-4.10371 0.140608 0)
(-4.24971 0.119864 1.05532e-20)
(-4.37162 0.0988176 1.05306e-20)
(-4.46848 0.0776091 1.04891e-20)
(-4.53969 0.0565719 0)
(-4.58495 0.0362297 -1.03454e-20)
(-4.60413 0.017131 0)
(-4.59757 -0.000369292 1.01192e-20)
(-4.56923 -0.0161846 9.97724e-21)
(-4.51861 -0.0305399 0)
(-4.44867 -0.0434222 0)
(-4.36037 -0.0548322 0)
(-4.25628 -0.0646894 9.27024e-21)
(-4.13804 -0.0730334 0)
(-4.00789 -0.0798582 0)
(-3.8677 -0.0852599 0)
(-3.71946 -0.0892984 0)
(-3.56497 -0.0921036 0)
(-3.40591 -0.0937954 0)
(-3.2438 -0.0945414 0)
(-3.0799 -0.094539 0)
(-2.91517 -0.0940227 -7.50467e-21)
(-2.75014 -0.0932575 0)
(-2.58492 -0.0925026 0)
(-2.41923 -0.0919713 6.97801e-21)
(-2.25249 -0.0917884 6.80943e-21)
(-2.08401 -0.0919651 0)
(-1.91321 -0.0923939 -6.48214e-21)
(-1.7398 -0.0928618 6.32425e-21)
(-1.56397 -0.0930886 0)
(-1.38639 -0.0927901 -6.02416e-21)
(-1.20821 -0.0917392 0)
(-1.03087 -0.0898058 0)
(-0.85596 -0.0869791 5.62724e-21)
(-0.685072 -0.083354 0)
(-0.519669 -0.0790385 -5.40386e-21)
(-0.360838 -0.0742154 0)
(-0.209428 -0.0691063 5.21172e-21)
(-0.0661095 -0.0637504 5.12576e-21)
(0.0679914 -0.0588951 5.04461e-21)
(0.193409 -0.0537367 9.93512e-21)
(0.311092 -0.0487943 -9.79017e-21)
(0.420689 -0.0440762 0)
(0.522469 -0.0396037 0)
(0.616736 -0.0353896 0)
(0.70383 -0.0314391 -9.27808e-21)
(0.784109 -0.0277524 -9.16236e-21)
(0.857938 -0.0243273 9.05012e-21)
(0.925691 -0.0211596 0)
(0.987742 -0.0182436 -8.83398e-21)
(1.04446 -0.0155719 -8.72922e-21)
(1.09623 -0.0131355 -8.62621e-21)
(1.1434 -0.010923 0)
(1.18632 -0.0089208 0)
(1.22533 -0.00711363 0)
(1.26074 -0.00548468 -8.22664e-21)
(1.29283 -0.00401683 0)
(1.32185 -0.00269332 0)
(1.34803 -0.00149866 7.93567e-21)
(1.37158 -0.00041996 0)
(1.39266 0.000553674 0)
(1.41142 0.00142985 7.64975e-21)
(1.42801 0.00221302 0)
(1.44255 0.00290764 0)
(1.45516 0.00351353 -7.36815e-21)
(1.46597 0.004031 -7.27521e-21)
(1.47508 0.00446543 0)
(1.48263 0.00481052 7.09069e-21)
(1.48875 0.00507236 0)
(1.49355 0.00526551 -6.90799e-21)
(1.49717 0.00537046 0)
(1.49976 0.0054084 -6.72711e-21)
(1.50134 0.00543141 -6.63735e-21)
(1.50204 0.00542632 0)
(1.502 0.00536619 0)
(1.50131 0.00525413 0)
(1.50009 0.00509993 0)
(1.49844 0.00491124 0)
(1.49646 0.00469787 0)
(1.49422 0.00446934 0)
(1.49177 0.00423173 -5.93584e-21)
(1.48918 0.00399205 5.85024e-21)
(1.48648 0.00376146 0)
(1.4837 0.00354414 0)
(1.48087 0.00333035 0)
(1.47801 0.00311273 0)
(1.47515 0.00289313 1.08587e-20)
(1.47228 0.00269177 0)
(1.46942 0.00250997 -1.05286e-20)
(1.46655 0.00234501 1.0365e-20)
(1.46369 0.00219578 0)
(1.46084 0.00206141 0)
(1.458 0.00193905 0)
(1.45518 0.0018258 -9.72016e-21)
(1.45239 0.00171909 -9.56129e-21)
(1.44962 0.00161707 0)
(1.4469 0.00151908 -9.24632e-21)
(1.44423 0.00142667 -9.0902e-21)
(1.4416 0.00134216 8.93499e-21)
(1.43903 0.00126768 0)
(1.4365 0.00120437 0)
(1.43401 0.00115195 8.47472e-21)
(1.43155 0.00110899 0)
(1.4291 0.00107343 0)
(1.42668 0.00104319 0)
(1.42425 0.00101655 0)
(1.42183 0.000992431 -7.72516e-21)
(1.41941 0.000970399 -7.57781e-21)
(1.41698 0.000950537 0)
(1.41453 0.000933261 -7.28562e-21)
(1.41207 0.00091912 0)
(1.40957 0.000908668 0)
(1.40703 0.000902454 -6.85341e-21)
(1.40446 0.000900998 0)
(1.40181 0.000905004 -6.56921e-21)
(1.3991 0.000915176 0)
(1.39628 0.000932836 0)
(1.39337 0.000959031 -6.14854e-21)
(1.39027 0.000996625 0)
(1.38706 0.00104625 -5.87167e-21)
(1.38352 0.00111492 0)
(1.37985 0.00119969 0)
(1.37558 0.00131981 0)
(1.3712 0.00145828 5.32566e-21)
(1.36571 0.00167145 0)
(1.36018 0.00189125 -5.05596e-21)
(1.35263 0.00229224 0)
(1.34507 0.00262345 0)
(1.33413 0.00344762 0)
(1.32241 0.00388767 0)
(1.30637 0.00576519 0)
(1.28433 0.00610089 0)
(1.26278 0.0110793 0)
(1.21007 0.0101272 7.96382e-21)
(1.19301 0.0257797 0)
(1.03432 0.0191316 0)
(0.0252486 -0.174982 1.92851e-20)
(0.0820462 -0.26124 -1.91458e-20)
(0.14 -0.273566 0)
(0.196991 -0.271512 1.25866e-20)
(0.255535 -0.269127 0)
(0.316197 -0.268832 6.2083e-21)
(0.379261 -0.270165 -1.2344e-20)
(0.444572 -0.272075 -1.22707e-20)
(0.511856 -0.273461 0)
(0.580602 -0.273191 -1.2137e-20)
(0.650006 -0.270133 -6.03592e-21)
(0.718929 -0.26301 0)
(0.785816 -0.250555 0)
(0.84878 -0.231483 0)
(0.905335 -0.204931 0)
(0.953474 -0.170416 -5.90506e-21)
(0.989637 -0.128741 0)
(1.0134 -0.0812942 1.1726e-20)
(1.01842 -0.0291461 0)
(1.00367 0.023576 0)
(0.963499 0.0715261 -1.1517e-20)
(0.889299 0.107026 0)
(0.775775 0.128134 1.13286e-20)
(0.613578 0.157314 -5.59716e-21)
(0.394187 0.229696 5.54476e-21)
(0.106803 0.354725 -5.49226e-21)
(-0.263775 0.505235 -5.43936e-21)
(-0.674822 0.648718 0)
(-1.05662 0.770345 0)
(-1.39979 0.857723 5.27807e-21)
(-1.71576 0.895701 -5.31505e-21)
(-2.00927 0.895659 0)
(-2.2859 0.87285 0)
(-2.54614 0.835199 5.13176e-21)
(-2.79134 0.789638 0)
(-3.02207 0.740785 0)
(-3.2393 0.691285 -5.14284e-21)
(-3.44372 0.642555 0)
(-3.63598 0.595114 5.28757e-21)
(-3.81631 0.548926 -1.04016e-20)
(-3.98459 0.503508 0)
(-4.1404 0.458134 0)
(-4.28314 0.412079 -2.12116e-20)
(-4.41187 0.3648 -2.12524e-20)
(-4.52537 0.31595 -2.12699e-20)
(-4.62234 0.265416 1.07156e-20)
(-4.70147 0.213311 -1.05216e-20)
(-4.76158 0.160035 -3.16092e-20)
(-4.80169 0.106333 2.10007e-20)
(-4.82124 0.0532649 1.03404e-20)
(-4.82015 0.00198016 0)
(-4.79877 -0.0466524 -1.01149e-20)
(-4.75501 -0.0920729 1.00885e-20)
(-4.69151 -0.133738 0)
(-4.60843 -0.171292 0)
(-4.50831 -0.204445 0)
(-4.39248 -0.233036 -9.26597e-21)
(-4.26333 -0.257071 0)
(-4.12263 -0.27664 1.7788e-20)
(-3.97252 -0.291963 0)
(-3.81483 -0.303307 1.69672e-20)
(-3.65142 -0.31102 0)
(-3.484 -0.315507 -1.61678e-20)
(-3.31413 -0.317266 0)
(-3.14312 -0.316902 1.5404e-20)
(-2.97197 -0.315132 -7.53485e-21)
(-2.80118 -0.312757 0)
(-2.63078 -0.31057 -1.43287e-20)
(-2.46026 -0.309225 -6.97567e-21)
(-2.28878 -0.30911 -6.80721e-21)
(-2.11536 -0.310259 0)
(-1.93915 -0.312321 -6.51205e-21)
(-1.75968 -0.314595 -6.32234e-21)
(-1.57704 -0.31616 0)
(-1.39198 -0.316083 6.02249e-21)
(-1.20581 -0.313644 -1.17824e-20)
(-1.02014 -0.308447 0)
(-0.836739 -0.300459 -5.62601e-21)
(-0.657338 -0.289966 0)
(-0.48343 -0.277386 1.62163e-20)
(-0.316069 -0.263312 0)
(-0.155926 -0.24826 -1.56391e-20)
(-0.00420027 -0.232807 -5.12478e-21)
(0.138944 -0.217938 5.04816e-21)
(0.274358 -0.202872 9.94174e-21)
(0.402149 -0.188327 -9.79628e-21)
(0.522468 -0.174411 0)
(0.635575 -0.161192 0)
(0.741774 -0.148705 0)
(0.841388 -0.136958 2.78328e-20)
(0.93475 -0.125946 9.15951e-21)
(1.0222 -0.115657 -9.04722e-21)
(1.10408 -0.106075 0)
(1.18075 -0.0971829 -8.83631e-21)
(1.25255 -0.0889605 8.72614e-21)
(1.31984 -0.081384 8.62305e-21)
(1.38295 -0.0744246 0)
(1.44224 -0.0680479 0)
(1.49801 -0.0622138 0)
(1.55058 -0.0568775 8.22311e-21)
(1.60021 -0.0519903 0)
(1.64716 -0.0475027 -1.60597e-20)
(1.69164 -0.0433658 -2.37984e-20)
(1.73384 -0.0395346 1.56745e-20)
(1.77392 -0.0359693 0)
(1.81199 -0.032637 7.64788e-21)
(1.84817 -0.0295132 0)
(1.88254 -0.0265797 1.49164e-20)
(1.91516 -0.0238255 -7.36549e-21)
(1.94611 -0.0212459 -7.27231e-21)
(1.97542 -0.0188356 0)
(2.00315 -0.0165968 -2.12594e-20)
(2.02936 -0.01453 1.399e-20)
(2.05408 -0.0126265 6.90318e-21)
(2.07738 -0.010892 0)
(2.09928 -0.00931357 6.72218e-21)
(2.1199 -0.00786691 1.9898e-20)
(2.1393 -0.00656726 0)
(2.15753 -0.00542863 1.2909e-20)
(2.17463 -0.00443983 1.27321e-20)
(2.19063 -0.00358568 1.25562e-20)
(2.20558 -0.00285343 0)
(2.21953 -0.00222782 0)
(2.23252 -0.0016964 0)
(2.24458 -0.0012489 -5.93107e-21)
(2.25577 -0.000869205 -5.84519e-21)
(2.26612 -0.000544886 0)
(2.27567 -0.00027584 -1.13511e-20)
(2.28449 -5.54152e-05 -1.11828e-20)
(2.29256 0.000137436 0)
(2.29994 0.000327344 -1.0849e-20)
(2.30666 0.000496528 -2.13674e-20)
(2.31275 0.000640528 1.05191e-20)
(2.31827 0.000761854 1.03559e-20)
(2.32324 0.000861772 0)
(2.3277 0.000940935 0)
(2.33169 0.00100327 0)
(2.33524 0.00105154 9.71135e-21)
(2.3384 0.00108421 -9.55274e-21)
(2.34118 0.00110264 -1.87898e-20)
(2.34363 0.00110765 9.23798e-21)
(2.34577 0.00110207 -9.08209e-21)
(2.34763 0.00108878 -8.92698e-21)
(2.34923 0.00107106 0)
(2.35059 0.0010519 0)
(2.35175 0.00103331 8.46725e-21)
(2.35272 0.00101638 0)
(2.35352 0.00100167 0)
(2.35416 0.000989625 -1.60308e-20)
(2.35466 0.000980826 0)
(2.35504 0.000975923 -7.71852e-21)
(2.3553 0.000975502 7.57129e-21)
(2.35546 0.000979887 0)
(2.3555 0.000989256 -7.27946e-21)
(2.35543 0.00100367 0)
(2.35525 0.00102336 0)
(2.35495 0.00104886 6.84769e-21)
(2.35454 0.00108101 -1.34108e-20)
(2.35401 0.0011215 6.56379e-21)
(2.35335 0.00117165 0)
(2.35256 0.00123544 0)
(2.35164 0.0013135 -6.14367e-21)
(2.35053 0.00141541 0)
(2.34929 0.00153755 -5.86712e-21)
(2.34779 0.00170486 0)
(2.34613 0.00189582 0)
(2.34408 0.00217962 0)
(2.34181 0.00247413 -5.3215e-21)
(2.33891 0.00297758 0)
(2.3357 0.00341761 5.05205e-21)
(2.3315 0.0043667 0)
(2.3266 0.00498149 0)
(2.32044 0.00690599 -9.30239e-21)
(2.31214 0.00763884 9.03574e-21)
(2.30334 0.0118781 0)
(2.28715 0.0123879 0)
(2.27613 0.022611 0)
(2.23922 0.0220417 -2.38873e-20)
(2.23189 0.0490156 0)
(2.13709 0.0469363 1.48594e-20)
(0.0193312 -0.270894 -2.40783e-24)
(0.0380927 -0.336927 2.55292e-20)
(0.0549015 -0.339834 0)
(0.0713588 -0.341981 -2.51777e-20)
(0.090267 -0.347154 0)
(0.110775 -0.353946 0)
(0.132922 -0.361256 4.76219e-24)
(0.155871 -0.367792 1.22798e-20)
(0.178987 -0.372304 1.22053e-20)
(0.20139 -0.373449 1.21491e-20)
(0.222226 -0.369632 0)
(0.240195 -0.358972 0)
(0.253692 -0.339376 -1.19757e-20)
(0.260644 -0.308897 -2.38569e-20)
(0.258445 -0.266279 2.37674e-20)
(0.243415 -0.211453 0)
(0.211823 -0.144163 2.35889e-20)
(0.157336 -0.0621199 -1.17539e-20)
(0.0757754 0.0366315 0)
(-0.0328023 0.155035 2.32376e-20)
(-0.172522 0.29287 1.15388e-20)
(-0.350364 0.444356 -2.28796e-20)
(-0.568853 0.601904 -1.13304e-20)
(-0.82071 0.757247 0)
(-1.08883 0.901492 2.22585e-20)
(-1.35833 1.02474 2.20508e-20)
(-1.62135 1.11985 0)
(-1.86685 1.19214 2.16725e-20)
(-2.08641 1.24625 0)
(-2.28027 1.2767 2.1374e-20)
(-2.452 1.27714 1.05131e-20)
(-2.60951 1.25185 0)
(-2.75922 1.20801 0)
(-2.90624 1.15303 0)
(-3.05397 1.09257 0)
(-3.20422 1.03076 0)
(-3.35759 0.969604 0)
(-3.51365 0.909966 2.11381e-20)
(-3.67122 0.851675 -3.16609e-20)
(-3.82855 0.793934 0)
(-3.9835 0.735592 0)
(-4.13358 0.675397 0)
(-4.276 0.612261 -2.57464e-22)
(-4.4079 0.545419 2.12468e-20)
(-4.52655 0.474434 4.27874e-20)
(-4.62927 0.399298 -4.27651e-20)
(-4.71358 0.320463 -2.14644e-20)
(-4.77728 0.238805 2.11246e-20)
(-4.81864 0.155529 2.45064e-22)
(-4.83666 0.0720902 2.10644e-20)
(-4.83137 -0.00999117 0)
(-4.80341 -0.0892892 2.0564e-20)
(-4.75363 -0.164244 1.92008e-22)
(-4.68348 -0.23336 0)
(-4.59477 -0.295595 0)
(-4.48938 -0.350283 -1.91312e-20)
(-4.36929 -0.397183 0)
(-4.23644 -0.436303 0)
(-4.0927 -0.467901 1.79669e-20)
(-3.93985 -0.492341 3.49055e-20)
(-3.77961 -0.5101 -1.69628e-20)
(-3.61366 -0.521702 0)
(-3.44374 -0.527791 1.61636e-20)
(-3.27155 -0.529173 0)
(-3.09874 -0.52689 1.5511e-20)
(-2.92662 -0.52224 1.5033e-20)
(-2.75602 -0.516708 -2.94616e-20)
(-2.587 -0.511784 -1.44393e-20)
(-2.41884 -0.508717 0)
(-2.25022 -0.50827 2.74084e-20)
(-2.07956 -0.510524 0)
(-1.90542 -0.514805 3.90759e-20)
(-1.7269 -0.519755 2.5441e-20)
(-1.54398 -0.523571 2.48101e-20)
(-1.35759 -0.524426 -2.42006e-20)
(-1.16953 -0.520936 3.53984e-20)
(-0.981994 -0.512418 0)
(-0.797301 -0.498894 0)
(-0.617566 -0.480962 -2.20853e-20)
(-0.444492 -0.459536 -3.24587e-20)
(-0.279127 -0.435751 0)
(-0.122173 -0.410518 1.04258e-20)
(0.0253291 -0.385296 0)
(0.163837 -0.360211 -3.02834e-20)
(0.294414 -0.335686 1.65853e-23)
(0.417208 -0.312071 -1.56728e-23)
(0.532678 -0.289551 1.93199e-20)
(0.641281 -0.268212 0)
(0.743448 -0.248084 -1.88077e-20)
(0.839569 -0.22917 1.2265e-23)
(0.929987 -0.211459 0)
(1.01501 -0.194935 0)
(1.09494 -0.179578 0)
(1.17006 -0.165364 1.76656e-20)
(1.24066 -0.152265 0)
(1.30706 -0.140244 0)
(1.36958 -0.129256 0)
(1.42855 -0.119244 0)
(1.4843 -0.110142 0)
(1.53711 -0.101873 1.64553e-20)
(1.58729 -0.0943549 0)
(1.63509 -0.087503 1.6059e-20)
(1.68072 -0.0812328 1.58659e-20)
(1.72438 -0.0754648 -1.56738e-20)
(1.76623 -0.0701272 0)
(1.80639 -0.0651594 -1.52928e-20)
(1.84497 -0.0605126 0)
(1.88203 -0.0561489 -1.49157e-20)
(1.91765 -0.0520427 1.47285e-20)
(1.95188 -0.0481761 4.36325e-20)
(1.98474 -0.0445369 0)
(2.01629 -0.0411201 4.25226e-20)
(2.04656 -0.0379182 1.39934e-20)
(2.07557 -0.0349267 0)
(2.10336 -0.0321395 2.72536e-20)
(2.12996 -0.0295461 2.6892e-20)
(2.15539 -0.0271457 -3.97968e-20)
(2.17968 -0.0249377 0)
(2.20287 -0.0229103 -1.2908e-20)
(2.22498 -0.0210468 -1.27311e-20)
(2.24604 -0.0193327 -3.76671e-20)
(2.26607 -0.017756 0)
(2.28509 -0.0163033 0)
(2.30313 -0.0149628 0)
(2.32021 -0.0137249 -1.18617e-20)
(2.33636 -0.0125766 0)
(2.35159 -0.0115068 0)
(2.36595 -0.0105128 1.13499e-20)
(2.37944 -0.00959075 1.11815e-20)
(2.3921 -0.00872778 0)
(2.40399 -0.00790206 0)
(2.4151 -0.00712853 2.13647e-20)
(2.4255 -0.00640985 0)
(2.43519 -0.00574425 -2.07088e-20)
(2.44421 -0.00513027 -2.03841e-20)
(2.4526 -0.00456356 0)
(2.46036 -0.00404361 0)
(2.46753 -0.00357324 1.94203e-20)
(2.47414 -0.00314776 -1.90145e-25)
(2.48021 -0.00276628 -1.68554e-25)
(2.48578 -0.00242879 0)
(2.49088 -0.00212891 3.63227e-20)
(2.49554 -0.00186259 0)
(2.49977 -0.00162449 0)
(2.50363 -0.00140949 0)
(2.50713 -0.00121383 -1.69317e-20)
(2.5103 -0.00103542 0)
(2.51318 -0.000873643 3.26553e-20)
(2.51577 -0.000728303 1.60281e-20)
(2.51811 -0.000598407 0)
(2.52021 -0.000481458 1.54344e-20)
(2.5221 -0.00037363 0)
(2.5238 -0.00027057 0)
(2.52531 -0.000168415 4.36694e-20)
(2.52665 -6.42632e-05 -2.85343e-20)
(2.52783 4.34869e-05 0)
(2.52886 0.000156125 -2.73864e-20)
(2.52975 0.00027409 1.34085e-20)
(2.53049 0.000399704 0)
(2.53109 0.000533568 0)
(2.53155 0.000682129 0)
(2.53187 0.000844772 3.68558e-20)
(2.53205 0.00103729 0)
(2.53208 0.00125197 1.17321e-20)
(2.53194 0.00152782 0)
(2.5316 0.00183081 0)
(2.53108 0.00226184 0)
(2.53025 0.00270513 0)
(2.52922 0.0034301 0)
(2.52764 0.0040832 0)
(2.52589 0.00539037 1.96719e-20)
(2.52306 0.00633405 0)
(2.52029 0.00886525 9.30075e-21)
(2.51521 0.0101665 -2.71071e-20)
(2.51108 0.015452 0)
(2.50164 0.0171673 0)
(2.49604 0.0290676 1.64761e-20)
(2.47805 0.0317104 1.59263e-20)
(2.47229 0.0602808 -1.54122e-20)
(2.44026 0.067847 -1.48556e-20)
(0.00558763 -0.292808 -3.85424e-20)
(-0.00853353 -0.332953 -3.82731e-20)
(-0.0218529 -0.335413 -2.53286e-20)
(-0.0369595 -0.33796 -1.25649e-20)
(-0.0523169 -0.342497 0)
(-0.0692676 -0.347861 2.48207e-20)
(-0.0881247 -0.352682 -1.23148e-20)
(-0.109877 -0.355226 0)
(-0.135383 -0.354102 -1.2207e-20)
(-0.165662 -0.34764 0)
(-0.201881 -0.333711 2.41061e-20)
(-0.245553 -0.310077 0)
(-0.298492 -0.274314 1.19749e-20)
(-0.362803 -0.22362 2.3852e-20)
(-0.440803 -0.154163 -2.37579e-20)
(-0.534241 -0.0627615 0)
(-0.643385 0.0510959 -2.35592e-20)
(-0.769713 0.185664 0)
(-0.912875 0.337843 0)
(-1.06932 0.50332 -2.31654e-20)
(-1.23509 0.674215 0)
(-1.40632 0.842187 8.56963e-23)
(-1.5792 0.999149 0)
(-1.74917 1.1391 0)
(-1.91086 1.25767 -1.11639e-24)
(-2.05961 1.35144 -2.20005e-20)
(-2.1925 1.41857 -2.18906e-20)
(-2.31011 1.46167 -2.16389e-20)
(-2.41572 1.48312 0)
(-2.51431 1.48528 -4.28893e-20)
(-2.61162 1.46992 0)
(-2.71355 1.44114 -2.1389e-20)
(-2.82381 1.40288 0)
(-2.94473 1.35874 0)
(-3.07684 1.31097 2.13256e-20)
(-3.21926 1.26096 0)
(-3.36999 1.20907 -2.13823e-20)
(-3.52637 1.15508 3.05014e-22)
(-3.68543 1.09817 4.269e-20)
(-3.84413 1.03722 -4.31446e-20)
(-3.99942 0.97102 0)
(-4.14827 0.898456 0)
(-4.28762 0.818591 -2.21189e-20)
(-4.41454 0.730757 0)
(-4.52621 0.634799 -2.15175e-20)
(-4.62 0.531237 2.15073e-20)
(-4.69359 0.42128 2.14615e-20)
(-4.74515 0.306626 0)
(-4.7735 0.189237 -2.1244e-20)
(-4.77818 0.071163 -2.10669e-20)
(-4.75989 -0.0453305 4.22985e-20)
(-4.72008 -0.156986 -2.05655e-20)
(-4.66027 -0.261337 -2.02519e-20)
(-4.58253 -0.356512 0)
(-4.48925 -0.441321 0)
(-4.38281 -0.515241 1.91308e-20)
(-4.26536 -0.578276 0)
(-4.13859 -0.630781 0)
(-4.0037 -0.673304 -3.57464e-20)
(-3.86143 -0.706417 -3.49002e-20)
(-3.71226 -0.73065 0)
(-3.55664 -0.74647 0)
(-3.39526 -0.754389 0)
(-3.22933 -0.755185 0)
(-3.06054 -0.750123 -3.09031e-20)
(-2.89082 -0.741056 3.03193e-20)
(-2.72189 -0.730386 2.94539e-20)
(-2.55458 -0.720737 5.76729e-20)
(-2.38847 -0.714465 0)
(-2.22194 -0.71311 1.6712e-22)
(-2.05266 -0.716917 0)
(-1.87831 -0.72473 -2.608e-20)
(-1.69733 -0.734174 1.47003e-22)
(-1.50946 -0.742092 -2.48032e-20)
(-1.316 -0.745242 2.4194e-20)
(-1.11961 -0.741193 8.80699e-23)
(-0.923614 -0.728879 0)
(-0.731242 -0.708517 2.26099e-20)
(-0.545234 -0.681306 2.20812e-20)
(-0.36764 -0.648975 4.33254e-20)
(-0.199586 -0.61342 0)
(-0.0420844 -0.576346 -2.08969e-20)
(0.104393 -0.539855 0)
(0.240778 -0.503893 4.04007e-20)
(0.367804 -0.469375 -1.98793e-20)
(0.485919 -0.436635 1.9589e-20)
(0.595827 -0.405811 -1.93145e-20)