/*--------------------------------*- C++ -*----------------------------------*\
  =========                 |
  \\      /  F ield         | OpenFOAM: The Open Source CFD Toolbox
   \\    /   O peration     | Website:  https://openfoam.org
    \\  /    A nd           | Version:  7
     \\/     M anipulation  |
\*---------------------------------------------------------------------------*/
FoamFile
{
    version     2.0;
    format      ascii;
    class       volSymmTensorField;
    location    "0.036";
    object      UPrime2Mean;
}
// * * * * * * * * * * * * * * * * * * * * * * * * * * * * * * * * * * * * * //

dimensions      [0 2 -2 0 0 0 0];

internalField   nonuniform List<symmTensor> 
12225
(
(0.00512521 -0.000297362 0 0.000547454 0 0)
(0.0533552 -0.00236232 0 0.000322513 0 0)
(0.0784392 -0.00349473 0 0.000335029 0 0)
(0.104848 -0.00427672 0 0.000331103 0 0)
(0.149524 -0.00527835 0 0.00032607 0 0)
(0.214366 -0.0064989 0 0.000320952 0 0)
(0.298247 -0.00782515 0 0.000328392 0 0)
(0.399788 -0.00862142 0 0.000283983 0 0)
(0.516691 -0.00995943 0 0.000290664 0 0)
(0.647095 -0.00897611 0 0.00020188 0 0)
(0.791658 -0.0120698 0 0.000250591 0 0)
(0.941911 -0.00689073 0 0.000137188 0 0)
(1.12214 -0.0189637 0 0.000422763 0 0)
(1.29549 -2.41731e-05 0 0.000345481 0 0)
(1.56387 -0.0476313 0 0.00233987 0 0)
(1.83021 0.0257988 0 0.00301741 0 0)
(2.37875 -0.189973 0 0.0279516 0 0)
(3.2999 0.0752981 0 0.0140532 0 0)
(0.00506316 -0.000186181 0 0.000606033 0 0)
(0.0358711 -0.00129872 0 0.000273782 0 0)
(0.0395574 -0.00206381 0 0.000416901 0 0)
(0.0407127 -0.00249083 0 0.00059204 0 0)
(0.0480853 -0.00332247 0 0.000794486 0 0)
(0.0608537 -0.00482523 0 0.00104451 0 0)
(0.0796195 -0.00685965 0 0.00127999 0 0)
(0.106853 -0.0096118 0 0.00159068 0 0)
(0.142279 -0.0122843 0 0.00170801 0 0)
(0.192113 -0.0163682 0 0.00204522 0 0)
(0.250558 -0.0187784 0 0.00192466 0 0)
(0.334054 -0.0258406 0 0.00251007 0 0)
(0.421887 -0.02685 0 0.00216749 0 0)
(0.561764 -0.0436406 0 0.00388882 0 0)
(0.692996 -0.0425334 0 0.00344078 0 0)
(0.963144 -0.0954193 0 0.0112742 0 0)
(1.18672 -0.114968 0 0.0124903 0 0)
(1.77096 -0.359428 0 0.0918711 0 0)
(0.00460941 -4.29543e-05 0 0.000896943 0 0)
(0.0352261 -0.00199429 0 0.000540958 0 0)
(0.0374312 -0.00286627 0 0.000763685 0 0)
(0.0362052 -0.003058 0 0.0010422 0 0)
(0.0391709 -0.00348256 0 0.00135735 0 0)
(0.0439403 -0.00435737 0 0.00172182 0 0)
(0.050072 -0.00564901 0 0.00221751 0 0)
(0.057895 -0.00718101 0 0.00261173 0 0)
(0.0683266 -0.00930986 0 0.00322061 0 0)
(0.0820295 -0.0113708 0 0.00347829 0 0)
(0.10138 -0.0152397 0 0.00429266 0 0)
(0.1267 -0.0180725 0 0.00437213 0 0)
(0.163524 -0.0265751 0 0.00615405 0 0)
(0.211767 -0.0310516 0 0.00614105 0 0)
(0.284809 -0.0550181 0 0.0123207 0 0)
(0.382949 -0.0691809 0 0.0137545 0 0)
(0.526103 -0.151803 0 0.0464386 0 0)
(0.707036 -0.259253 0 0.100317 0 0)
(0.00501012 -0.000586655 0 0.00107165 0 0)
(0.0354717 -0.00235759 0 0.00072364 0 0)
(0.0374036 -0.00306599 0 0.000920942 0 0)
(0.0360071 -0.00327364 0 0.00124873 0 0)
(0.0385308 -0.00369845 0 0.00160494 0 0)
(0.042534 -0.00456474 0 0.00204373 0 0)
(0.0473988 -0.00577249 0 0.00254771 0 0)
(0.0533128 -0.0072848 0 0.00318884 0 0)
(0.0605229 -0.00899897 0 0.00376907 0 0)
(0.070038 -0.0113654 0 0.00457552 0 0)
(0.0824317 -0.0141715 0 0.00527438 0 0)
(0.0997831 -0.0188121 0 0.00660547 0 0)
(0.123009 -0.0245732 0 0.00796034 0 0)
(0.156628 -0.0355025 0 0.0112111 0 0)
(0.202541 -0.0510602 0 0.0158645 0 0)
(0.267145 -0.082119 0 0.0281926 0 0)
(0.350888 -0.137293 0 0.0559239 0 0)
(0.433195 -0.224956 0 0.119413 0 0)
(0.00495071 -0.000415572 0 0.00128828 0 0)
(0.0344283 -0.00270476 0 0.000902341 0 0)
(0.0359908 -0.00339346 0 0.00111639 0 0)
(0.03473 -0.00361763 0 0.00155399 0 0)
(0.0373464 -0.00409547 0 0.00203173 0 0)
(0.0412321 -0.00503767 0 0.00255919 0 0)
(0.0458326 -0.00638042 0 0.00323411 0 0)
(0.0513148 -0.00802634 0 0.00396066 0 0)
(0.0580336 -0.0101236 0 0.00489691 0 0)
(0.0666107 -0.0126551 0 0.00584189 0 0)
(0.0779223 -0.016377 0 0.00722751 0 0)
(0.0930273 -0.0211887 0 0.00881464 0 0)
(0.113441 -0.0290059 0 0.0116711 0 0)
(0.141117 -0.0399953 0 0.0156669 0 0)
(0.178195 -0.0590495 0 0.0239758 0 0)
(0.225564 -0.0889528 0 0.0392898 0 0)
(0.280251 -0.137886 0 0.0712927 0 0)
(0.323832 -0.211931 0 0.144065 0 0)
(0.00482093 -0.000792918 0 0.00135985 0 0)
(0.0341156 -0.00322306 0 0.0011224 0 0)
(0.0351998 -0.00379091 0 0.00143366 0 0)
(0.0337147 -0.00395793 0 0.00199675 0 0)
(0.036103 -0.0044442 0 0.00259291 0 0)
(0.0396779 -0.00542931 0 0.00324629 0 0)
(0.0439065 -0.00684235 0 0.00402003 0 0)
(0.0489837 -0.00864762 0 0.0049678 0 0)
(0.0552254 -0.0109189 0 0.00607893 0 0)
(0.0631449 -0.0138941 0 0.0074539 0 0)
(0.0734684 -0.0179513 0 0.00920515 0 0)
(0.0869461 -0.0236997 0 0.0116802 0 0)
(0.104774 -0.0320681 0 0.0153708 0 0)
(0.127791 -0.0445273 0 0.0213264 0 0)
(0.157315 -0.0637427 0 0.0317325 0 0)
(0.191361 -0.0924992 0 0.050457 0 0)
(0.226986 -0.135305 0 0.0859401 0 0)
(0.250274 -0.189789 0 0.148962 0 0)
(0.00503234 -0.00070669 0 0.00155925 0 0)
(0.0339576 -0.00364134 0 0.00146494 0 0)
(0.0347401 -0.00424419 0 0.00176243 0 0)
(0.0331846 -0.00444076 0 0.0023884 0 0)
(0.0354511 -0.0050176 0 0.0030988 0 0)
(0.0387333 -0.00611609 0 0.0038722 0 0)
(0.0425444 -0.00766414 0 0.00480497 0 0)
(0.0471093 -0.00962847 0 0.00594202 0 0)
(0.0527335 -0.0121236 0 0.00735865 0 0)
(0.0598401 -0.0153707 0 0.00912895 0 0)
(0.0689876 -0.0198165 0 0.011454 0 0)
(0.0806891 -0.0260317 0 0.0147164 0 0)
(0.0956625 -0.034907 0 0.0195437 0 0)
(0.114143 -0.0477498 0 0.02721 0 0)
(0.136379 -0.0662718 0 0.0396485 0 0)
(0.159849 -0.0925414 0 0.0610413 0 0)
(0.181707 -0.12728 0 0.0960736 0 0)
(0.192159 -0.167753 0 0.153139 0 0)
(0.00374277 -0.000668108 0 0.00172767 0 0)
(0.0325456 -0.00382939 0 0.00167454 0 0)
(0.033372 -0.00427226 0 0.00215804 0 0)
(0.0318823 -0.00431969 0 0.00289237 0 0)
(0.0340331 -0.0048607 0 0.00373018 0 0)
(0.0369977 -0.00598134 0 0.00465852 0 0)
(0.0403663 -0.00757491 0 0.00576475 0 0)
(0.0443876 -0.00962788 0 0.00714442 0 0)
(0.0493029 -0.01226 0 0.00888435 0 0)
(0.0554199 -0.0157045 0 0.0111146 0 0)
(0.0631478 -0.0203663 0 0.0140679 0 0)
(0.0728022 -0.0267824 0 0.018195 0 0)
(0.0847471 -0.0357218 0 0.0241987 0 0)
(0.098826 -0.0481572 0 0.0333671 0 0)
(0.114679 -0.0652163 0 0.0475559 0 0)
(0.129918 -0.087711 0 0.0700506 0 0)
(0.142157 -0.115181 0 0.104149 0 0)
(0.14527 -0.144568 0 0.154841 0 0)
(0.00530016 -0.00103342 0 0.00168518 0 0)
(0.0330987 -0.004658 0 0.00189927 0 0)
(0.0329838 -0.00505945 0 0.0024911 0 0)
(0.0311205 -0.00493892 0 0.00332202 0 0)
(0.0331564 -0.00546118 0 0.0043139 0 0)
(0.0359893 -0.00667452 0 0.00543837 0 0)
(0.0391057 -0.00839193 0 0.00676948 0 0)
(0.0427211 -0.0105643 0 0.00841446 0 0)
(0.0470363 -0.0133122 0 0.0104912 0 0)
(0.0522816 -0.0168775 0 0.0131836 0 0)
(0.0587241 -0.0216326 0 0.0167607 0 0)
(0.0665013 -0.0280487 0 0.0217335 0 0)
(0.0756965 -0.0367052 0 0.0288021 0 0)
(0.085901 -0.0482512 0 0.0392242 0 0)
(0.096519 -0.0632387 0 0.0545419 0 0)
(0.105521 -0.0817259 0 0.0773147 0 0)
(0.111326 -0.102714 0 0.109545 0 0)
(0.110115 -0.123352 0 0.153956 0 0)
(0.00458073 -0.000963053 0 0.00193382 0 0)
(0.0326456 -0.00484451 0 0.00215355 0 0)
(0.0325371 -0.00516589 0 0.00285736 0 0)
(0.0306839 -0.00497999 0 0.00379843 0 0)
(0.032566 -0.00550059 0 0.004933 0 0)
(0.0350929 -0.00673587 0 0.0062374 0 0)
(0.037779 -0.00846147 0 0.00778141 0 0)
(0.0408266 -0.0106268 0 0.00969553 0 0)
(0.0444012 -0.0133645 0 0.0121356 0 0)
(0.0486629 -0.0169048 0 0.0153162 0 0)
(0.0537642 -0.0215586 0 0.0195222 0 0)
(0.0597004 -0.0276821 0 0.0252666 0 0)
(0.0663727 -0.0356723 0 0.0332242 0 0)
(0.0732577 -0.0458688 0 0.044522 0 0)
(0.0797305 -0.0584211 0 0.0603774 0 0)
(0.0842063 -0.0729414 0 0.0826783 0 0)
(0.0858143 -0.0883121 0 0.112465 0 0)
(0.0821695 -0.102175 0 0.151314 0 0)
(0.00464847 -0.00115677 0 0.00214121 0 0)
(0.0326096 -0.00556657 0 0.00248846 0 0)
(0.0318733 -0.00596198 0 0.00326498 0 0)
(0.02959 -0.00562474 0 0.00431499 0 0)
(0.0312085 -0.00605708 0 0.00558697 0 0)
(0.0334895 -0.00727316 0 0.00707482 0 0)
(0.0358687 -0.00898993 0 0.00883945 0 0)
(0.0384988 -0.0111194 0 0.0110193 0 0)
(0.0414965 -0.0137717 0 0.0137839 0 0)
(0.0449601 -0.0171603 0 0.0173806 0 0)
(0.0489534 -0.0215493 0 0.0221165 0 0)
(0.0533812 -0.0271929 0 0.0284862 0 0)
(0.0580418 -0.0343154 0 0.0370897 0 0)
(0.0624121 -0.0430121 0 0.0488707 0 0)
(0.0659413 -0.0531621 0 0.0647187 0 0)
(0.0674893 -0.0641722 0 0.0859517 0 0)
(0.0666699 -0.0750031 0 0.112973 0 0)
(0.0620071 -0.0838376 0 0.146697 0 0)
(0.00432579 -0.00101219 0 0.00237441 0 0)
(0.0318143 -0.00555596 0 0.00279514 0 0)
(0.031072 -0.00593341 0 0.00360333 0 0)
(0.0287739 -0.00547681 0 0.00475127 0 0)
(0.0301382 -0.00579804 0 0.0061598 0 0)
(0.0319673 -0.00692262 0 0.00784156 0 0)
(0.0338182 -0.00853478 0 0.00985131 0 0)
(0.0358954 -0.0105251 0 0.012315 0 0)
(0.038273 -0.012989 0 0.0154199 0 0)
(0.0409591 -0.016105 0 0.0194208 0 0)
(0.0439125 -0.0200697 0 0.0246181 0 0)
(0.0469584 -0.0250265 0 0.031469 0 0)
(0.0498577 -0.0310611 0 0.0404809 0 0)
(0.0521742 -0.0381009 0 0.0524206 0 0)
(0.053522 -0.0458897 0 0.067895 0 0)
(0.0531555 -0.0537887 0 0.0878255 0 0)
(0.0510218 -0.0609336 0 0.112226 0 0)
(0.0461597 -0.0659322 0 0.141703 0 0)
(0.00446571 -0.00132011 0 0.00263987 0 0)
(0.0323011 -0.00592175 0 0.00311545 0 0)
(0.0311266 -0.00623959 0 0.00394664 0 0)
(0.0284487 -0.00563174 0 0.00517285 0 0)
(0.029567 -0.00584605 0 0.00669249 0 0)
(0.0312079 -0.00693428 0 0.00853001 0 0)
(0.0328138 -0.00852662 0 0.010742 0 0)
(0.0345043 -0.0104419 0 0.0134471 0 0)
(0.0363174 -0.0127219 0 0.0168248 0 0)
(0.0382439 -0.0155027 0 0.0211192 0 0)
(0.0402261 -0.018932 0 0.0266148 0 0)
(0.042098 -0.0230861 0 0.0337202 0 0)
(0.0436442 -0.027967 0 0.0428515 0 0)
(0.0445237 -0.0334141 0 0.0546162 0 0)
(0.0444724 -0.0391219 0 0.0693998 0 0)
(0.0430205 -0.0444839 0 0.0878448 0 0)
(0.0402936 -0.0488125 0 0.109729 0 0)
(0.0356619 -0.0510494 0 0.135485 0 0)
(0.00463107 -0.00129675 0 0.00313571 0 0)
(0.0318537 -0.00586436 0 0.00379691 0 0)
(0.0305189 -0.00609441 0 0.00475148 0 0)
(0.0278444 -0.00540359 0 0.00606651 0 0)
(0.0288058 -0.00549835 0 0.00770391 0 0)
(0.0300594 -0.00640788 0 0.00970054 0 0)
(0.0311105 -0.00774998 0 0.0121076 0 0)
(0.0321323 -0.00933418 0 0.015033 0 0)
(0.0331769 -0.0111885 0 0.0186379 0 0)
(0.034236 -0.0134212 0 0.0231601 0 0)
(0.0352569 -0.0161325 0 0.0288659 0 0)
(0.0360926 -0.0193194 0 0.0361072 0 0)
(0.0365517 -0.0228942 0 0.0451895 0 0)
(0.0363736 -0.0266079 0 0.0565473 0 0)
(0.0354046 -0.0301489 0 0.0703535 0 0)
(0.0333987 -0.0329653 0 0.0870213 0 0)
(0.0306169 -0.034606 0 0.106158 0 0)
(0.0266371 -0.0342632 0 0.128114 0 0)
(0.00472779 -0.00113267 0 0.00307773 0 0)
(0.0318434 -0.0066152 0 0.00406139 0 0)
(0.0303596 -0.00692252 0 0.00528142 0 0)
(0.027375 -0.00609536 0 0.00679749 0 0)
(0.027983 -0.00601676 0 0.00856186 0 0)
(0.0288632 -0.00675466 0 0.0106796 0 0)
(0.0295357 -0.00791885 0 0.0132551 0 0)
(0.0301471 -0.00927199 0 0.0163922 0 0)
(0.030703 -0.0107831 0 0.0202242 0 0)
(0.0311569 -0.0125106 0 0.0249384 0 0)
(0.031441 -0.0145057 0 0.0307254 0 0)
(0.0314456 -0.0167116 0 0.0378383 0 0)
(0.0310524 -0.0189934 0 0.0464647 0 0)
(0.0301345 -0.0210787 0 0.0569011 0 0)
(0.028666 -0.0227027 0 0.0691731 0 0)
(0.0265775 -0.0234229 0 0.0835566 0 0)
(0.0241744 -0.0229894 0 0.0995963 0 0)
(0.0211762 -0.0208162 0 0.11762 0 0)
(0.00484637 -0.00113308 0 0.00330864 0 0)
(0.0314513 -0.00654027 0 0.00412398 0 0)
(0.0294635 -0.00691445 0 0.00523428 0 0)
(0.026147 -0.00598305 0 0.0067928 0 0)
(0.0264722 -0.00575638 0 0.00868563 0 0)
(0.0270731 -0.00633708 0 0.0109442 0 0)
(0.0274606 -0.00727232 0 0.0136393 0 0)
(0.0277317 -0.00826099 0 0.016867 0 0)
(0.0278366 -0.0092267 0 0.0207437 0 0)
(0.0277226 -0.0101909 0 0.0254183 0 0)
(0.0273729 -0.0111754 0 0.0310281 0 0)
(0.0267621 -0.0121107 0 0.0377455 0 0)
(0.0258633 -0.0128742 0 0.0456555 0 0)
(0.0246628 -0.0132353 0 0.0549265 0 0)
(0.0232096 -0.0130118 0 0.0654727 0 0)
(0.0215456 -0.0118797 0 0.0774602 0 0)
(0.0199381 -0.0097428 0 0.0904334 0 0)
(0.0181926 -0.00618391 0 0.104706 0 0)
(0.0052909 -0.00111498 0 0.00357468 0 0)
(0.0320952 -0.00679649 0 0.00447371 0 0)
(0.0297207 -0.00730371 0 0.00569424 0 0)
(0.0260415 -0.00630607 0 0.00736654 0 0)
(0.0260117 -0.00592459 0 0.00932028 0 0)
(0.0262049 -0.00627506 0 0.0116119 0 0)
(0.0261387 -0.00687189 0 0.0142961 0 0)
(0.0259409 -0.00738578 0 0.0174336 0 0)
(0.0256014 -0.00773188 0 0.0211125 0 0)
(0.0251058 -0.00793667 0 0.0254461 0 0)
(0.0244608 -0.00802533 0 0.0305194 0 0)
(0.0236735 -0.00793131 0 0.0364328 0 0)
(0.0227479 -0.0075462 0 0.0431974 0 0)
(0.0217288 -0.00667771 0 0.0508956 0 0)
(0.0206859 -0.00520994 0 0.0593912 0 0)
(0.0197188 -0.00291724 0 0.0687981 0 0)
(0.0190313 0.000180878 0 0.0787021 0 0)
(0.0185122 0.00439175 0 0.0894087 0 0)
(0.00480628 -0.00104519 0 0.00360629 0 0)
(0.0313776 -0.00706528 0 0.00445222 0 0)
(0.029012 -0.00756717 0 0.00534652 0 0)
(0.0251773 -0.00655596 0 0.00676876 0 0)
(0.0247838 -0.00613299 0 0.0085405 0 0)
(0.0244614 -0.00629748 0 0.0106214 0 0)
(0.0238858 -0.00656612 0 0.0130173 0 0)
(0.0232996 -0.00666167 0 0.0157724 0 0)
(0.0227235 -0.00652321 0 0.0189543 0 0)
(0.0221266 -0.00616494 0 0.0226374 0 0)
(0.0214978 -0.00558266 0 0.0268577 0 0)
(0.02085 -0.00470662 0 0.0316537 0 0)
(0.020209 -0.00344895 0 0.0369911 0 0)
(0.0196552 -0.00168999 0 0.0429 0 0)
(0.0192668 0.000623759 0 0.049244 0 0)
(0.019162 0.0036083 0 0.0561083 0 0)
(0.0194797 0.00721395 0 0.0631632 0 0)
(0.0201667 0.0116128 0 0.0706718 0 0)
(0.0048164 -0.000888734 0 0.00346196 0 0)
(0.0315988 -0.00666001 0 0.00425193 0 0)
(0.0285225 -0.00680367 0 0.00502762 0 0)
(0.0241924 -0.00541213 0 0.00627806 0 0)
(0.023522 -0.00451804 0 0.0077924 0 0)
(0.0229562 -0.00416158 0 0.00954935 0 0)
(0.0222189 -0.00390724 0 0.0115602 0 0)
(0.0215988 -0.00347951 0 0.0138164 0 0)
(0.0211196 -0.00277759 0 0.0163088 0 0)
(0.0207459 -0.00178268 0 0.0190551 0 0)
(0.0204737 -0.000495777 0 0.0220782 0 0)
(0.0203334 0.00110772 0 0.0254176 0 0)
(0.0203724 0.00305686 0 0.0290555 0 0)
(0.0206854 0.00540807 0 0.0330061 0 0)
(0.0213444 0.00816941 0 0.0371574 0 0)
(0.0224506 0.0114021 0 0.0415588 0 0)
(0.0240812 0.0150337 0 0.0459697 0 0)
(0.0262074 0.0191722 0 0.0505673 0 0)
(0.00492047 -0.00114024 0 0.00350246 0 0)
(0.0309193 -0.00629493 0 0.00395097 0 0)
(0.0274516 -0.00602829 0 0.0045047 0 0)
(0.0230494 -0.00456227 0 0.00552426 0 0)
(0.0222329 -0.00360064 0 0.00666171 0 0)
(0.021562 -0.00313028 0 0.00792309 0 0)
(0.0207737 -0.00274303 0 0.00936379 0 0)
(0.0201413 -0.00216241 0 0.0109895 0 0)
(0.0196949 -0.00128971 0 0.0127782 0 0)
(0.0194243 -0.000130261 0 0.0147203 0 0)
(0.0193549 0.00128835 0 0.0168118 0 0)
(0.0195409 0.00296599 0 0.0190634 0 0)
(0.020039 0.00491492 0 0.0214546 0 0)
(0.0209267 0.00716542 0 0.0239959 0 0)
(0.0222597 0.00971194 0 0.0266148 0 0)
(0.0240991 0.012583 0 0.0293531 0 0)
(0.0264961 0.0157188 0 0.0320637 0 0)
(0.0294147 0.0191822 0 0.034865 0 0)
(0.00508796 -0.000870344 0 0.00325281 0 0)
(0.0308581 -0.00536096 0 0.00349705 0 0)
(0.0271994 -0.00493447 0 0.00380984 0 0)
(0.0227752 -0.00339418 0 0.00451406 0 0)
(0.0219574 -0.00231146 0 0.00537933 0 0)
(0.0212772 -0.0016374 0 0.00634639 0 0)
(0.020574 -0.00100728 0 0.00738754 0 0)
(0.0201621 -0.000206681 0 0.00849109 0 0)
(0.020046 0.000832358 0 0.00966853 0 0)
(0.0201823 0.00210623 0 0.010938 0 0)
(0.0205997 0.00359114 0 0.0123 0 0)
(0.0213684 0.00527414 0 0.0137496 0 0)
(0.0225531 0.00715241 0 0.0152597 0 0)
(0.02421 0.00923819 0 0.0168334 0 0)
(0.0263722 0.0115252 0 0.0184314 0 0)
(0.0290624 0.0140273 0 0.0200872 0 0)
(0.0323113 0.0167035 0 0.0217205 0 0)
(0.0360624 0.0195894 0 0.023407 0 0)
(0.00460856 -0.000650755 0 0.00298336 0 0)
(0.0304842 -0.0044839 0 0.00266875 0 0)
(0.0267077 -0.0042639 0 0.00285586 0 0)
(0.0222045 -0.00292239 0 0.003355 0 0)
(0.0213112 -0.00189046 0 0.00397873 0 0)
(0.0205979 -0.00122992 0 0.004698 0 0)
(0.0199264 -0.000637953 0 0.00548864 0 0)
(0.0195993 0.00011678 0 0.00634145 0 0)
(0.0196318 0.00112292 0 0.00725027 0 0)
(0.0200173 0.002368 0 0.00820922 0 0)
(0.0207979 0.00380354 0 0.00920571 0 0)
(0.0220285 0.005397 0 0.0102347 0 0)
(0.0237473 0.00713526 0 0.0112814 0 0)
(0.0259936 0.00902748 0 0.012352 0 0)
(0.0287814 0.0110673 0 0.013419 0 0)
(0.0321339 0.0132724 0 0.0145107 0 0)
(0.0360643 0.0155965 0 0.0155666 0 0)
(0.0405454 0.0180802 0 0.0166447 0 0)
(0.00506313 -0.000754174 0 0.00274003 0 0)
(0.0299293 -0.00409309 0 0.00247998 0 0)
(0.0261127 -0.00363362 0 0.0024922 0 0)
(0.0217308 -0.00226641 0 0.00273937 0 0)
(0.020856 -0.00127964 0 0.00308605 0 0)
(0.020058 -0.000665598 0 0.00347842 0 0)
(0.0193047 -0.000125952 0 0.00388239 0 0)
(0.0190187 0.000532284 0 0.00430235 0 0)
(0.0192485 0.00136923 0 0.00476503 0 0)
(0.0199324 0.00236951 0 0.0052863 0 0)
(0.0210505 0.00349882 0 0.00585744 0 0)
(0.022617 0.00473508 0 0.00646049 0 0)
(0.0246553 0.00607236 0 0.00707267 0 0)
(0.0272025 0.00751793 0 0.00769139 0 0)
(0.0302919 0.00906455 0 0.00829912 0 0)
(0.0339433 0.0107179 0 0.00891631 0 0)
(0.0381811 0.0124451 0 0.00951035 0 0)
(0.042954 0.014261 0 0.0101101 0 0)
(0.00528136 -0.000866869 0 0.00246313 0 0)
(0.0299998 -0.00371312 0 0.0021725 0 0)
(0.025397 -0.00291114 0 0.00211154 0 0)
(0.0208392 -0.00150196 0 0.00232397 0 0)
(0.020218 -0.00049196 0 0.00261687 0 0)
(0.0197434 0.000141137 0 0.0029232 0 0)
(0.0192818 0.000669625 0 0.00322272 0 0)
(0.019292 0.00128783 0 0.00352674 0 0)
(0.0198836 0.00206865 0 0.00385039 0 0)
(0.0210164 0.00299957 0 0.00419807 0 0)
(0.0226543 0.00404226 0 0.00456003 0 0)
(0.0247944 0.00516751 0 0.00492781 0 0)
(0.0274595 0.00636224 0 0.00529343 0 0)
(0.030682 0.00762759 0 0.0056598 0 0)
(0.0344859 0.00895262 0 0.00601467 0 0)
(0.0388668 0.0103409 0 0.00637726 0 0)
(0.0438452 0.011766 0 0.00672335 0 0)
(0.0493511 0.0132526 0 0.00706973 0 0)
(0.00540377 -0.000968679 0 0.00208481 0 0)
(0.0298023 -0.0032976 0 0.00167929 0 0)
(0.0247775 -0.00251525 0 0.00151736 0 0)
(0.0201254 -0.00138809 0 0.00157852 0 0)
(0.0194759 -0.000611032 0 0.00168413 0 0)
(0.0189921 -0.000146871 0 0.00176867 0 0)
(0.0186322 0.000212521 0 0.00185792 0 0)
(0.0188689 0.000627154 0 0.00198816 0 0)
(0.0197386 0.00116706 0 0.00215929 0 0)
(0.0211419 0.00182677 0 0.0023489 0 0)
(0.0230536 0.00257051 0 0.00253778 0 0)
(0.0255202 0.00337402 0 0.00272154 0 0)
(0.0286035 0.00422676 0 0.00290051 0 0)
(0.0323353 0.00512498 0 0.00307815 0 0)
(0.0367203 0.00605724 0 0.00324711 0 0)
(0.0417142 0.0070177 0 0.0034162 0 0)
(0.0473123 0.00798363 0 0.0035727 0 0)
(0.0534106 0.00897427 0 0.00372647 0 0)
(0.00526954 -0.00065566 0 0.00181923 0 0)
(0.029377 -0.00246727 0 0.00119888 0 0)
(0.0238694 -0.00202881 0 0.00102529 0 0)
(0.0193237 -0.00106329 0 0.00114828 0 0)
(0.0188877 -0.00026445 0 0.00124824 0 0)
(0.0185984 0.000236049 0 0.00128306 0 0)
(0.0185698 0.000612878 0 0.00130108 0 0)
(0.0193186 0.00101751 0 0.00133743 0 0)
(0.0208257 0.00150551 0 0.00139209 0 0)
(0.0229282 0.00206554 0 0.00145616 0 0)
(0.0255715 0.00266995 0 0.00152597 0 0)
(0.0287966 0.00330262 0 0.00160141 0 0)
(0.0326583 0.00395731 0 0.00168219 0 0)
(0.0371748 0.00463356 0 0.00176992 0 0)
(0.0423333 0.00532311 0 0.00185942 0 0)
(0.0480789 0.00602589 0 0.00195411 0 0)
(0.0544048 0.00672346 0 0.00204592 0 0)
(0.0612057 0.00743254 0 0.00213894 0 0)
(0.00371629 -0.000596729 0 0.00156791 0 0)
(0.0273538 -0.00121388 0 0.000730728 0 0)
(0.0220129 -0.000755357 0 0.000472766 0 0)
(0.0180055 -0.000227339 0 0.000492087 0 0)
(0.0180006 0.000178571 0 0.000505239 0 0)
(0.0180835 0.000386364 0 0.000507777 0 0)
(0.018425 0.000513158 0 0.000525159 0 0)
(0.0195433 0.000660042 0 0.00055557 0 0)
(0.0214364 0.000862339 0 0.000589702 0 0)
(0.0239768 0.00110981 0 0.000622404 0 0)
(0.0271434 0.00138188 0 0.000652713 0 0)
(0.030979 0.00166411 0 0.00068243 0 0)
(0.0355135 0.00195047 0 0.000713283 0 0)
(0.0407267 0.00224013 0 0.000748086 0 0)
(0.0465802 0.00252948 0 0.00078669 0 0)
(0.0530025 0.00281962 0 0.000831192 0 0)
(0.0599987 0.00309738 0 0.000877795 0 0)
(0.0674611 0.00337309 0 0.000926718 0 0)
(0.0057945 -0.000639728 0 0.00111857 0 0)
(0.0276951 -0.00140633 0 0.000497072 0 0)
(0.0215077 -0.00106189 0 0.000450753 0 0)
(0.0180691 -0.000391586 0 0.000445523 0 0)
(0.0185551 4.45814e-05 0 0.000388741 0 0)
(0.0190223 0.00025995 0 0.000334543 0 0)
(0.019958 0.000417453 0 0.000304946 0 0)
(0.0219196 0.000575423 0 0.000289915 0 0)
(0.0247926 0.000721822 0 0.000281548 0 0)
(0.0283463 0.000847794 0 0.000277135 0 0)
(0.0325086 0.000962099 0 0.000276772 0 0)
(0.0373141 0.00107736 0 0.000281572 0 0)
(0.0427872 0.00120177 0 0.000292454 0 0)
(0.0489143 0.00133547 0 0.000309695 0 0)
(0.0556392 0.00147117 0 0.000332886 0 0)
(0.0629068 0.00159732 0 0.000363216 0 0)
(0.0706963 0.00170009 0 0.00039933 0 0)
(0.0789306 0.00177781 0 0.000439278 0 0)
(0.00389888 -0.000100636 0 0.000865087 0 0)
(0.0256729 0.000225638 0 0.000226601 0 0)
(0.019793 1.84456e-05 0 0.000178876 0 0)
(0.016871 7.41087e-05 0 0.00018143 0 0)
(0.0178411 4.79545e-05 0 0.000191143 0 0)
(0.0188049 -5.58814e-05 0 0.000199836 0 0)
(0.02016 -0.000187976 0 0.000209046 0 0)
(0.0223685 -0.00032725 0 0.000219194 0 0)
(0.0252475 -0.000464854 0 0.000231537 0 0)
(0.0285249 -0.000595394 0 0.000247274 0 0)
(0.0320805 -0.000714771 0 0.000265415 0 0)
(0.0359249 -0.000821481 0 0.000284127 0 0)
(0.04005 -0.000913205 0 0.000303063 0 0)
(0.0444766 -0.000989521 0 0.000323865 0 0)
(0.0491162 -0.00105026 0 0.000347509 0 0)
(0.0539964 -0.00110142 0 0.000375969 0 0)
(0.0589802 -0.00114591 0 0.00040924 0 0)
(0.0641758 -0.00119014 0 0.000445105 0 0)
(0.00518394 -0.000403656 0 0.000710226 0 0)
(0.0277405 -0.00010742 0 0.000239179 0 0)
(0.0244094 4.8161e-06 0 0.000142821 0 0)
(0.0232891 0.000126189 0 0.000101036 0 0)
(0.0254823 0.000154066 0 7.85182e-05 0 0)
(0.0274988 0.000169394 0 6.45645e-05 0 0)
(0.0294363 0.000197482 0 5.71086e-05 0 0)
(0.031773 0.000234437 0 5.53026e-05 0 0)
(0.0346771 0.000271147 0 5.69354e-05 0 0)
(0.0381694 0.000305738 0 6.07021e-05 0 0)
(0.0422361 0.000344103 0 6.59796e-05 0 0)
(0.0468598 0.00039348 0 7.23236e-05 0 0)
(0.0520649 0.000460077 0 7.93819e-05 0 0)
(0.0578995 0.00054611 0 8.66168e-05 0 0)
(0.0644743 0.000648417 0 9.37037e-05 0 0)
(0.0717658 0.000759442 0 0.000101191 0 0)
(0.0799095 0.000873485 0 0.00010878 0 0)
(0.0886725 0.000990811 0 0.000115901 0 0)
(0.000300396 -0.00072745 1.71237e-22 0.00179691 -3.34895e-22 2.59602e-37)
(0.00362708 -0.00316476 -5.03675e-22 0.00284478 3.02143e-22 2.5597e-37)
(0.0115598 -0.00582555 0 0.00302749 0 0)
(0.0238288 -0.00837039 0 0.00302524 0 0)
(0.0404657 -0.0108588 0 0.00298541 0 0)
(0.061568 -0.0133644 1.7945e-21 0.00295786 -3.03316e-22 2.41105e-37)
(0.0871854 -0.0159081 0 0.00294793 0 0)
(0.117439 -0.0184842 0 0.00294917 0 0)
(0.15238 -0.0210568 0 0.00295207 0 0)
(0.192003 -0.0235702 0 0.00294747 0 0)
(0.236166 -0.0259545 -3.43324e-21 0.00292856 3.14891e-22 2.2333e-37)
(0.284575 -0.0281273 0 0.0028909 0 0)
(0.336764 -0.0300043 0 0.00283453 0 0)
(0.392068 -0.0315078 0 0.00276418 0 0)
(0.44965 -0.0325811 0 0.0026909 0 0)
(0.508525 -0.0332133 -5.08947e-21 0.00263304 3.28819e-22 2.06427e-37)
(0.567692 -0.0334261 0 0.00261216 0 0)
(0.626096 -0.0333336 0 0.00265696 0 0)
(0.683117 -0.0330628 0 0.00279384 0 0)
(0.737895 -0.0328841 0 0.00304851 0 0)
(0.790325 -0.0331626 0 0.00343247 0 0)
(0.841138 -0.0343053 0 0.00393839 0 0)
(0.891601 -0.0368285 0 0.00455056 0 0)
(0.942961 -0.041095 -7.94542e-21 0.00527225 3.55543e-22 1.81165e-37)
(0.996265 -0.0468137 8.32196e-21 0.00620568 -3.51031e-22 1.78161e-37)
(1.05189 -0.0520185 -8.702e-21 0.00750131 3.47967e-22 1.75192e-37)
(1.11088 -0.0536411 -9.08621e-21 0.00893418 3.54278e-22 1.72256e-37)
(1.17557 -0.0503206 0 0.0102467 0 0)
(1.24921 -0.0464062 0 0.0123269 0 0)
(1.33943 -0.0505562 1.02686e-20 0.0152719 -4.19554e-22 1.63653e-37)
(1.45853 -0.0629388 1.06553e-20 0.0169789 -4.15305e-22 1.60853e-37)
(1.61108 -0.0775022 0 0.0174304 0 0)
(1.79585 -0.0915141 0 0.0171765 0 0)
(2.01001 -0.103855 1.16937e-20 0.0164223 -3.61055e-22 1.52658e-37)
(2.24938 -0.113885 0 0.0153512 0 0)
(2.50904 -0.121291 0 0.0140967 0 0)
(2.78364 -0.125963 -1.25138e-20 0.0127542 2.86979e-22 1.44767e-37)
(3.06758 -0.127917 0 0.011388 0 0)
(3.35514 -0.127231 -1.29224e-20 0.0100386 2.34661e-22 1.39675e-37)
(3.64058 -0.124024 -2.61629e-20 0.0087339 4.16804e-22 5.48716e-37)
(3.91817 -0.11845 0 0.00749417 0 0)
(4.18235 -0.110697 0 0.00633532 0 0)
(4.42777 -0.100997 0 0.00527046 0 0)
(4.64942 -0.0896335 0 0.0043112 0 0)
(4.84279 -0.0769548 0 0.0034677 0 0)
(5.00405 -0.0633295 -2.66593e-20 0.00274566 1.20594e-22 4.91588e-37)
(5.13056 -0.0491526 -2.64961e-20 0.00214856 7.81008e-23 4.82524e-37)
(5.22059 -0.0347958 -2.62653e-20 0.0016743 3.86757e-23 4.73588e-37)
(5.27317 -0.0206629 0 0.00131899 0 0)
(5.2886 -0.00712739 2.56161e-20 0.00107243 2.96101e-23 4.56098e-37)
(5.26821 0.00547373 0 0.000921358 0 0)
(5.21421 0.016899 -2.47541e-20 0.000847877 -8.22072e-23 4.39113e-37)
(5.1299 0.0270276 -2.42608e-20 0.00083242 -1.02594e-22 4.30807e-37)
(5.01808 0.0358173 0 0.000857429 0 0)
(4.88251 0.0432426 0 0.000908524 0 0)
(4.72664 0.0493383 0 0.000974153 0 0)
(4.55403 0.0541831 -2.20391e-20 0.00104491 -1.49956e-22 3.98807e-37)
(4.36789 0.0578905 0 0.00111544 0 0)
(4.17115 0.0605986 0 0.00118077 0 0)
(3.96635 0.0624494 0 0.00123968 0 0)
(3.75571 0.0635652 0 0.00129116 0 0)
(3.54117 0.0640455 0 0.00133614 0 0)
(3.32452 0.063947 0 0.00137393 0 0)
(3.10749 0.0632994 0 0.00140406 0 0)
(2.89185 0.062106 0 0.00142425 0 0)
(2.67942 0.0603811 1.69923e-20 0.00143265 1.4134e-22 3.33673e-37)
(2.47202 0.0581417 0 0.0014259 0 0)
(2.27137 0.0554447 0 0.00140236 0 0)
(2.079 0.0523721 -1.5559e-20 0.00136157 -1.22527e-22 3.13966e-37)
(1.89612 0.0490227 -1.51205e-20 0.00130468 -1.15408e-22 3.07609e-37)
(1.72361 0.0455033 0 0.00123447 0 0)
(1.56206 0.0419058 1.43037e-20 0.00115409 1.00736e-22 2.95207e-37)
(1.41175 0.0383082 -1.3925e-20 0.00106687 -9.33884e-23 2.89158e-37)
(1.27278 0.0347813 0 0.000976369 0 0)
(1.14508 0.0313705 1.32245e-20 0.000884882 7.91455e-23 2.77362e-37)
(1.0284 0.028105 0 0.000793905 0 0)
(0.922377 0.0250211 0 0.000705474 0 0)
(0.826524 0.022129 -1.23055e-20 0.000620181 -5.95648e-23 2.60399e-37)
(0.740269 0.0194589 0 0.000540038 0 0)
(0.663051 0.0170166 1.17708e-20 0.000465696 4.81066e-23 2.49563e-37)
(0.594147 0.0147952 0 0.000397295 0 0)
(0.532879 0.0128035 -1.12902e-20 0.000335955 -3.80544e-23 2.39095e-37)
(0.478598 0.0110265 -1.10679e-20 0.000281363 -3.35679e-23 2.33995e-37)
(0.430574 0.00945165 -1.08565e-20 0.000233429 -2.94308e-23 2.28983e-37)
(0.38814 0.00806082 -2.13101e-20 0.000191651 -5.12454e-23 8.96235e-37)
(0.350723 0.00684173 2.09259e-20 0.0001558 4.42739e-23 8.76879e-37)
(0.317783 0.00577814 0 0.00012536 0 0)
(0.288817 0.00485396 0 9.97795e-05 0 0)
(0.263372 0.00405371 0 7.84993e-05 0 0)
(0.241035 0.00336298 1.95497e-20 6.09803e-05 2.21664e-23 8.02792e-37)
(0.221438 0.00276852 1.924e-20 4.67149e-05 1.79111e-23 7.8508e-37)
(0.204255 0.00225832 -1.89422e-20 3.52348e-05 -1.40975e-23 7.67683e-37)
(0.189193 0.00182156 0 2.61149e-05 0 0)
(0.175996 0.00144865 1.83785e-20 1.89738e-05 7.66375e-24 7.33815e-37)
(0.164437 0.00113104 1.81111e-20 1.34736e-05 4.98694e-24 7.17334e-37)
(0.154317 0.000861138 1.78523e-20 9.31794e-06 2.6323e-24 7.01151e-37)
(0.145461 0.000632244 0 6.25104e-06 0 0)
(0.137717 0.000438518 0 4.05494e-06 0 0)
(0.130953 0.000274889 0 2.5464e-06 0 0)
(0.125053 0.000137011 1.68916e-20 1.57306e-06 -4.09867e-24 6.39297e-37)
(0.119916 2.1184e-05 0 1.00941e-06 0 0)
(0.115454 -7.57417e-05 0 7.52611e-07 0 0)
(0.111592 -0.000156419 -1.62352e-20 7.18859e-07 6.95628e-24 5.9581e-37)
(0.108263 -0.000223083 0 8.39872e-07 0 0)
(0.105406 -0.000277615 0 1.06013e-06 0 0)
(0.102971 -0.000321612 -1.56216e-20 1.33481e-06 8.46693e-24 5.54688e-37)
(0.10091 -0.000356461 0 1.62809e-06 0 0)
(0.0991826 -0.000383367 0 1.91209e-06 0 0)
(0.0977518 -0.000403378 1.50421e-20 2.16599e-06 -8.9967e-24 5.15823e-37)
(0.0965844 -0.000417505 1.48554e-20 2.37619e-06 -9.00761e-24 5.03351e-37)
(0.0956511 -0.000426589 0 2.5346e-06 0 0)
(0.0949256 -0.000431414 -1.449e-20 2.63872e-06 8.84584e-24 4.79111e-37)
(0.0943847 -0.000432852 0 2.69316e-06 0 0)
(0.0940076 -0.000431414 1.41342e-20 2.70146e-06 -8.49856e-24 4.55783e-37)
(0.093775 -0.000427651 0 2.6715e-06 0 0)
(0.0936713 -0.000422411 1.37867e-20 2.61876e-06 -8.02634e-24 4.33339e-37)
(0.093681 -0.00041563 1.36156e-20 2.54356e-06 -7.76183e-24 4.22439e-37)
(0.0937873 -0.000406696 0 2.43612e-06 0 0)
(0.0939757 -0.00039565 0 2.29821e-06 0 0)
(0.0942328 -0.000382921 0 2.13907e-06 0 0)
(0.0945463 -0.000368921 0 1.96744e-06 0 0)
(0.0949057 -0.000354036 0 1.7912e-06 0 0)
(0.0953024 -0.000338632 0 1.61711e-06 0 0)
(0.0957289 -0.000323009 0 1.44997e-06 0 0)
(0.0961789 -0.000307398 1.22983e-20 1.29294e-06 -5.23501e-24 3.42549e-37)
(0.096647 -0.000292008 -1.21388e-20 1.14811e-06 4.93725e-24 3.33427e-37)
(0.097129 -0.000276941 0 1.01576e-06 0 0)
(0.097621 -0.000262187 0 8.94655e-07 0 0)
(0.09812 -0.000247776 0 7.84218e-07 0 0)
(0.0986233 -0.000233896 0 6.85426e-07 0 0)
(0.0991292 -0.000220772 -2.27118e-20 5.99224e-07 7.3276e-24 1.16197e-36)
(0.0996359 -0.000208479 0 5.24846e-07 0 0)
(0.100142 -0.000196943 2.20982e-20 4.6042e-07 -6.52444e-24 1.09806e-36)
(0.100646 -0.000186099 -2.17939e-20 4.04372e-07 6.16571e-24 1.06708e-36)
(0.101146 -0.000175889 0 3.55429e-07 0 0)
(0.101641 -0.000166258 0 3.12513e-07 0 0)
(0.10213 -0.000157153 0 2.74741e-07 0 0)
(0.102613 -0.00014856 2.05936e-20 2.4152e-07 -4.98438e-24 9.49447e-37)
(0.103088 -0.000140499 2.02977e-20 2.12497e-07 -4.74483e-24 9.21561e-37)
(0.103555 -0.000133013 0 1.87435e-07 0 0)
(0.104014 -0.000126162 1.97106e-20 1.66138e-07 -4.32434e-24 8.67544e-37)
(0.104466 -0.000119988 1.94195e-20 1.48316e-07 -4.14236e-24 8.41396e-37)
(0.104912 -0.000114496 -1.913e-20 1.33566e-07 3.97667e-24 8.15807e-37)
(0.105352 -0.000109648 0 1.21389e-07 0 0)
(0.105787 -0.000105374 0 1.11282e-07 0 0)
(0.106218 -0.000101581 -1.82711e-20 1.02785e-07 3.56128e-24 7.42316e-37)
(0.106647 -9.8185e-05 0 9.55367e-08 0 0)
(0.107074 -9.51121e-05 0 8.92662e-08 0 0)
(0.1075 -9.23151e-05 0 8.37977e-08 0 0)