# vtk DataFile Version 2.0
sampleSurface
ASCII
DATASET POLYDATA
POINTS 502 double
-0.0206 0 -0.0005
-0.0190172 0 -0.0005
-0.0190172 0 0.0005
-0.0206 0 0.0005
-0.0174976 0 -0.0005
-0.0174976 0 0.0005
-0.0160387 0 -0.0005
-0.0160387 0 0.0005
-0.0146381 0 -0.0005
-0.0146381 0 0.0005
-0.0132934 0 -0.0005
-0.0132934 0 0.0005
-0.0120025 0 -0.0005
-0.0120025 0 0.0005
-0.0107632 0 -0.0005
-0.0107632 0 0.0005
-0.00957337 0 -0.0005
-0.00957337 0 0.0005
-0.00843108 0 -0.0005
-0.00843108 0 0.0005
-0.00733443 0 -0.0005
-0.00733443 0 0.0005
-0.0062816 0 -0.0005
-0.0062816 0 0.0005
-0.00527083 0 -0.0005
-0.00527083 0 0.0005
-0.00430044 0 -0.0005
-0.00430044 0 0.0005
-0.00336883 0 -0.0005
-0.00336883 0 0.0005
-0.00247443 0 -0.0005
-0.00247443 0 0.0005
-0.00161577 0 -0.0005
-0.00161577 0 0.0005
-0.000791418 0 -0.0005
-0.000791418 0 0.0005
0 0 -0.0005
0 0 0.0005
0 -0.0254 -0.0005
0 -0.0254 0.0005
0 -0.0242711 0.0005
0 -0.0242711 -0.0005
0 -0.0231422 0.0005
0 -0.0231422 -0.0005
0 -0.0220133 0.0005
0 -0.0220133 -0.0005
0 -0.0208844 0.0005
0 -0.0208844 -0.0005
0 -0.0197556 0.0005
0 -0.0197556 -0.0005
0 -0.0186267 0.0005
0 -0.0186267 -0.0005
0 -0.0174978 0.0005
0 -0.0174978 -0.0005
0 -0.0163689 0.0005
0 -0.0163689 -0.0005
0 -0.01524 0.0005
0 -0.01524 -0.0005
0 -0.0141111 0.0005
0 -0.0141111 -0.0005
0 -0.0129822 0.0005
0 -0.0129822 -0.0005
0 -0.0118533 0.0005
0 -0.0118533 -0.0005
0 -0.0107244 0.0005
0 -0.0107244 -0.0005
0 -0.00959556 0.0005
0 -0.00959556 -0.0005
0 -0.00846667 0.0005
0 -0.00846667 -0.0005
0 -0.00726604 0.0005
0 -0.00726604 -0.0005
0 -0.00618989 0.0005
0 -0.00618989 -0.0005
0 -0.00522531 0.0005
0 -0.00522531 -0.0005
0 -0.00436073 0.0005
0 -0.00436073 -0.0005
0 -0.00358579 0.0005
0 -0.00358579 -0.0005
0 -0.00289118 0.0005
0 -0.00289118 -0.0005
0 -0.0022686 0.0005
0 -0.0022686 -0.0005
0 -0.00171055 0.0005
0 -0.00171055 -0.0005
0 -0.00121037 0.0005
0 -0.00121037 -0.0005
0 -0.000762037 0.0005
0 -0.000762037 -0.0005
0 -0.000360188 0.0005
0 -0.000360188 -0.0005
0.000528387 -0.0254 -0.0005
0.000528387 -0.0254 0.0005
0.00106088 -0.0254 -0.0005
0.00106088 -0.0254 0.0005
0.00159752 -0.0254 -0.0005
0.00159752 -0.0254 0.0005
0.00213833 -0.0254 -0.0005
0.00213833 -0.0254 0.0005
0.00268334 -0.0254 -0.0005
0.00268334 -0.0254 0.0005
0.00323259 -0.0254 -0.0005
0.00323259 -0.0254 0.0005
0.00378611 -0.0254 -0.0005
0.00378611 -0.0254 0.0005
0.00434393 -0.0254 -0.0005
0.00434393 -0.0254 0.0005
0.00490609 -0.0254 -0.0005
0.00490609 -0.0254 0.0005
0.00547262 -0.0254 -0.0005
0.00547262 -0.0254 0.0005
0.00604356 -0.0254 -0.0005
0.00604356 -0.0254 0.0005
0.00661893 -0.0254 -0.0005
0.00661893 -0.0254 0.0005
0.00719878 -0.0254 -0.0005
0.00719878 -0.0254 0.0005
0.00778313 -0.0254 -0.0005
0.00778313 -0.0254 0.0005
0.00837203 -0.0254 -0.0005
0.00837203 -0.0254 0.0005
0.00896551 -0.0254 -0.0005
0.00896551 -0.0254 0.0005
0.0095636 -0.0254 -0.0005
0.0095636 -0.0254 0.0005
0.0101663 -0.0254 -0.0005
0.0101663 -0.0254 0.0005
0.0107738 -0.0254 -0.0005
0.0107738 -0.0254 0.0005
0.0113859 -0.0254 -0.0005
0.0113859 -0.0254 0.0005
0.0120028 -0.0254 -0.0005
0.0120028 -0.0254 0.0005
0.0126245 -0.0254 -0.0005
0.0126245 -0.0254 0.0005
0.0132511 -0.0254 -0.0005
0.0132511 -0.0254 0.0005
0.0138825 -0.0254 -0.0005
0.0138825 -0.0254 0.0005
0.0145188 -0.0254 -0.0005
0.0145188 -0.0254 0.0005
0.0151601 -0.0254 -0.0005
0.0151601 -0.0254 0.0005
0.0158063 -0.0254 -0.0005
0.0158063 -0.0254 0.0005
0.0164576 -0.0254 -0.0005
0.0164576 -0.0254 0.0005
0.0171139 -0.0254 -0.0005
0.0171139 -0.0254 0.0005
0.0177754 -0.0254 -0.0005
0.0177754 -0.0254 0.0005
0.018442 -0.0254 -0.0005
0.018442 -0.0254 0.0005
0.0191137 -0.0254 -0.0005
0.0191137 -0.0254 0.0005
0.0197907 -0.0254 -0.0005
0.0197907 -0.0254 0.0005
0.020473 -0.0254 -0.0005
0.020473 -0.0254 0.0005
0.0211606 -0.0254 -0.0005
0.0211606 -0.0254 0.0005
0.0218535 -0.0254 -0.0005
0.0218535 -0.0254 0.0005
0.0225517 -0.0254 -0.0005
0.0225517 -0.0254 0.0005
0.0232555 -0.0254 -0.0005
0.0232555 -0.0254 0.0005
0.0239647 -0.0254 -0.0005
0.0239647 -0.0254 0.0005
0.0246794 -0.0254 -0.0005
0.0246794 -0.0254 0.0005
0.0253996 -0.0254 -0.0005
0.0253996 -0.0254 0.0005
0.0261255 -0.0254 -0.0005
0.0261255 -0.0254 0.0005
0.026857 -0.0254 -0.0005
0.026857 -0.0254 0.0005
0.0275942 -0.0254 -0.0005
0.0275942 -0.0254 0.0005
0.0283371 -0.0254 -0.0005
0.0283371 -0.0254 0.0005
0.0290858 -0.0254 -0.0005
0.0290858 -0.0254 0.0005
0.0298403 -0.0254 -0.0005
0.0298403 -0.0254 0.0005
0.0306007 -0.0254 -0.0005
0.0306007 -0.0254 0.0005
0.031367 -0.0254 -0.0005
0.031367 -0.0254 0.0005
0.0321393 -0.0254 -0.0005
0.0321393 -0.0254 0.0005
0.0329175 -0.0254 -0.0005
0.0329175 -0.0254 0.0005
0.0337019 -0.0254 -0.0005
0.0337019 -0.0254 0.0005
0.0344923 -0.0254 -0.0005
0.0344923 -0.0254 0.0005
0.0352888 -0.0254 -0.0005
0.0352888 -0.0254 0.0005
0.0360916 -0.0254 -0.0005
0.0360916 -0.0254 0.0005
0.0369006 -0.0254 -0.0005
0.0369006 -0.0254 0.0005
0.0377158 -0.0254 -0.0005
0.0377158 -0.0254 0.0005
0.0385375 -0.0254 -0.0005
0.0385375 -0.0254 0.0005
0.0393655 -0.0254 -0.0005
0.0393655 -0.0254 0.0005
0.0401999 -0.0254 -0.0005
0.0401999 -0.0254 0.0005
0.0410408 -0.0254 -0.0005
0.0410408 -0.0254 0.0005
0.0418883 -0.0254 -0.0005
0.0418883 -0.0254 0.0005
0.0427424 -0.0254 -0.0005
0.0427424 -0.0254 0.0005
0.0436031 -0.0254 -0.0005
0.0436031 -0.0254 0.0005
0.0444704 -0.0254 -0.0005
0.0444704 -0.0254 0.0005
0.0453446 -0.0254 -0.0005
0.0453446 -0.0254 0.0005
0.0462255 -0.0254 -0.0005
0.0462255 -0.0254 0.0005
0.0471133 -0.0254 -0.0005
0.0471133 -0.0254 0.0005
0.048008 -0.0254 -0.0005
0.048008 -0.0254 0.0005
0.0489096 -0.0254 -0.0005
0.0489096 -0.0254 0.0005
0.0498183 -0.0254 -0.0005
0.0498183 -0.0254 0.0005
0.050734 -0.0254 -0.0005
0.050734 -0.0254 0.0005
0.0516568 -0.0254 -0.0005
0.0516568 -0.0254 0.0005
0.0525868 -0.0254 -0.0005
0.0525868 -0.0254 0.0005
0.053524 -0.0254 -0.0005
0.053524 -0.0254 0.0005
0.0544686 -0.0254 -0.0005
0.0544686 -0.0254 0.0005
0.0554204 -0.0254 -0.0005
0.0554204 -0.0254 0.0005
0.0563797 -0.0254 -0.0005
0.0563797 -0.0254 0.0005
0.0573464 -0.0254 -0.0005
0.0573464 -0.0254 0.0005
0.0583206 -0.0254 -0.0005
0.0583206 -0.0254 0.0005
0.0593025 -0.0254 -0.0005
0.0593025 -0.0254 0.0005
0.0602919 -0.0254 -0.0005
0.0602919 -0.0254 0.0005
0.0612891 -0.0254 -0.0005
0.0612891 -0.0254 0.0005
0.0622939 -0.0254 -0.0005
0.0622939 -0.0254 0.0005
0.0633067 -0.0254 -0.0005
0.0633067 -0.0254 0.0005
0.0643272 -0.0254 -0.0005
0.0643272 -0.0254 0.0005
0.0653557 -0.0254 -0.0005
0.0653557 -0.0254 0.0005
0.0663923 -0.0254 -0.0005
0.0663923 -0.0254 0.0005
0.0674368 -0.0254 -0.0005
0.0674368 -0.0254 0.0005
0.0684895 -0.0254 -0.0005
0.0684895 -0.0254 0.0005
0.0695504 -0.0254 -0.0005
0.0695504 -0.0254 0.0005
0.0706195 -0.0254 -0.0005
0.0706195 -0.0254 0.0005
0.0716969 -0.0254 -0.0005
0.0716969 -0.0254 0.0005
0.0727828 -0.0254 -0.0005
0.0727828 -0.0254 0.0005
0.073877 -0.0254 -0.0005
0.073877 -0.0254 0.0005
0.0749798 -0.0254 -0.0005
0.0749798 -0.0254 0.0005
0.0760911 -0.0254 -0.0005
0.0760911 -0.0254 0.0005
0.0772111 -0.0254 -0.0005
0.0772111 -0.0254 0.0005
0.0783398 -0.0254 -0.0005
0.0783398 -0.0254 0.0005
0.0794772 -0.0254 -0.0005
0.0794772 -0.0254 0.0005
0.0806235 -0.0254 -0.0005
0.0806235 -0.0254 0.0005
0.0817787 -0.0254 -0.0005
0.0817787 -0.0254 0.0005
0.0829429 -0.0254 -0.0005
0.0829429 -0.0254 0.0005
0.0841162 -0.0254 -0.0005
0.0841162 -0.0254 0.0005
0.0852985 -0.0254 -0.0005
0.0852985 -0.0254 0.0005
0.0864901 -0.0254 -0.0005
0.0864901 -0.0254 0.0005
0.0876909 -0.0254 -0.0005
0.0876909 -0.0254 0.0005
0.0889011 -0.0254 -0.0005
0.0889011 -0.0254 0.0005
0.0901207 -0.0254 -0.0005
0.0901207 -0.0254 0.0005
0.0913497 -0.0254 -0.0005
0.0913497 -0.0254 0.0005
0.0925883 -0.0254 -0.0005
0.0925883 -0.0254 0.0005
0.0938366 -0.0254 -0.0005
0.0938366 -0.0254 0.0005
0.0950945 -0.0254 -0.0005
0.0950945 -0.0254 0.0005
0.0963622 -0.0254 -0.0005
0.0963622 -0.0254 0.0005
0.0976398 -0.0254 -0.0005
0.0976398 -0.0254 0.0005
0.0989273 -0.0254 -0.0005
0.0989273 -0.0254 0.0005
0.100225 -0.0254 -0.0005
0.100225 -0.0254 0.0005
0.101532 -0.0254 -0.0005
0.101532 -0.0254 0.0005
0.10285 -0.0254 -0.0005
0.10285 -0.0254 0.0005
0.104178 -0.0254 -0.0005
0.104178 -0.0254 0.0005
0.105517 -0.0254 -0.0005
0.105517 -0.0254 0.0005
0.106865 -0.0254 -0.0005
0.106865 -0.0254 0.0005
0.108225 -0.0254 -0.0005
0.108225 -0.0254 0.0005
0.109594 -0.0254 -0.0005
0.109594 -0.0254 0.0005
0.110975 -0.0254 -0.0005
0.110975 -0.0254 0.0005
0.112366 -0.0254 -0.0005
0.112366 -0.0254 0.0005
0.113768 -0.0254 -0.0005
0.113768 -0.0254 0.0005
0.115181 -0.0254 -0.0005
0.115181 -0.0254 0.0005
0.116605 -0.0254 -0.0005
0.116605 -0.0254 0.0005
0.11804 -0.0254 -0.0005
0.11804 -0.0254 0.0005
0.119486 -0.0254 -0.0005
0.119486 -0.0254 0.0005
0.120943 -0.0254 -0.0005
0.120943 -0.0254 0.0005
0.122412 -0.0254 -0.0005
0.122412 -0.0254 0.0005
0.123892 -0.0254 -0.0005
0.123892 -0.0254 0.0005
0.125384 -0.0254 -0.0005
0.125384 -0.0254 0.0005
0.126887 -0.0254 -0.0005
0.126887 -0.0254 0.0005
0.128402 -0.0254 -0.0005
0.128402 -0.0254 0.0005
0.129928 -0.0254 -0.0005
0.129928 -0.0254 0.0005
0.131467 -0.0254 -0.0005
0.131467 -0.0254 0.0005
0.133017 -0.0254 -0.0005
0.133017 -0.0254 0.0005
0.13458 -0.0254 -0.0005
0.13458 -0.0254 0.0005
0.136155 -0.0254 -0.0005
0.136155 -0.0254 0.0005
0.137742 -0.0254 -0.0005
0.137742 -0.0254 0.0005
0.139341 -0.0254 -0.0005
0.139341 -0.0254 0.0005
0.140953 -0.0254 -0.0005
0.140953 -0.0254 0.0005
0.142577 -0.0254 -0.0005
0.142577 -0.0254 0.0005
0.144214 -0.0254 -0.0005
0.144214 -0.0254 0.0005
0.145863 -0.0254 -0.0005
0.145863 -0.0254 0.0005
0.147526 -0.0254 -0.0005
0.147526 -0.0254 0.0005
0.149201 -0.0254 -0.0005
0.149201 -0.0254 0.0005
0.15089 -0.0254 -0.0005
0.15089 -0.0254 0.0005
0.152591 -0.0254 -0.0005
0.152591 -0.0254 0.0005
0.154306 -0.0254 -0.0005
0.154306 -0.0254 0.0005
0.156034 -0.0254 -0.0005
0.156034 -0.0254 0.0005
0.157775 -0.0254 -0.0005
0.157775 -0.0254 0.0005
0.159531 -0.0254 -0.0005
0.159531 -0.0254 0.0005
0.161299 -0.0254 -0.0005
0.161299 -0.0254 0.0005
0.163082 -0.0254 -0.0005
0.163082 -0.0254 0.0005
0.164878 -0.0254 -0.0005
0.164878 -0.0254 0.0005
0.166688 -0.0254 -0.0005
0.166688 -0.0254 0.0005
0.168513 -0.0254 -0.0005
0.168513 -0.0254 0.0005
0.170351 -0.0254 -0.0005
0.170351 -0.0254 0.0005
0.172204 -0.0254 -0.0005
0.172204 -0.0254 0.0005
0.174071 -0.0254 -0.0005
0.174071 -0.0254 0.0005
0.175953 -0.0254 -0.0005
0.175953 -0.0254 0.0005
0.177849 -0.0254 -0.0005
0.177849 -0.0254 0.0005
0.17976 -0.0254 -0.0005
0.17976 -0.0254 0.0005
0.181686 -0.0254 -0.0005
0.181686 -0.0254 0.0005
0.183627 -0.0254 -0.0005
0.183627 -0.0254 0.0005
0.185583 -0.0254 -0.0005
0.185583 -0.0254 0.0005
0.187555 -0.0254 -0.0005
0.187555 -0.0254 0.0005
0.189541 -0.0254 -0.0005
0.189541 -0.0254 0.0005
0.191543 -0.0254 -0.0005
0.191543 -0.0254 0.0005
0.193561 -0.0254 -0.0005
0.193561 -0.0254 0.0005
0.195594 -0.0254 -0.0005
0.195594 -0.0254 0.0005
0.197643 -0.0254 -0.0005
0.197643 -0.0254 0.0005
0.199708 -0.0254 -0.0005
0.199708 -0.0254 0.0005
0.201789 -0.0254 -0.0005
0.201789 -0.0254 0.0005
0.203886 -0.0254 -0.0005
0.203886 -0.0254 0.0005
0.206 -0.0254 -0.0005
0.206 -0.0254 0.0005
0.208047 -0.0251856 -0.0005
0.208047 -0.0251856 0.0005
0.210173 -0.0249628 -0.0005
0.210173 -0.0249628 0.0005
0.212382 -0.0247314 -0.0005
0.212382 -0.0247314 0.0005
0.214677 -0.024491 -0.0005
0.214677 -0.024491 0.0005
0.217061 -0.0242412 -0.0005
0.217061 -0.0242412 0.0005
0.219538 -0.0239817 -0.0005
0.219538 -0.0239817 0.0005
0.222112 -0.0237121 -0.0005
0.222112 -0.0237121 0.0005
0.224785 -0.023432 -0.0005
0.224785 -0.023432 0.0005
0.227563 -0.023141 -0.0005
0.227563 -0.023141 0.0005
0.230449 -0.0228387 -0.0005
0.230449 -0.0228387 0.0005
0.233447 -0.0225246 -0.0005
0.233447 -0.0225246 0.0005
0.236562 -0.0221983 -0.0005
0.236562 -0.0221983 0.0005
0.239797 -0.0218593 -0.0005
0.239797 -0.0218593 0.0005
0.243159 -0.0215071 -0.0005
0.243159 -0.0215071 0.0005
0.246652 -0.0211412 -0.0005
0.246652 -0.0211412 0.0005
0.250281 -0.0207611 -0.0005
0.250281 -0.0207611 0.0005
0.254051 -0.0203661 -0.0005
0.254051 -0.0203661 0.0005
0.257967 -0.0199558 -0.0005
0.257967 -0.0199558 0.0005
0.262036 -0.0195295 -0.0005
0.262036 -0.0195295 0.0005
0.266264 -0.0190867 -0.0005
0.266264 -0.0190867 0.0005
0.270655 -0.0186266 -0.0005
0.270655 -0.0186266 0.0005
0.275218 -0.0181486 -0.0005
0.275218 -0.0181486 0.0005
0.279959 -0.017652 -0.0005
0.279959 -0.017652 0.0005
0.284883 -0.017136 -0.0005
0.284883 -0.017136 0.0005
0.29 -0.0166 -0.0005
0.29 -0.0166 0.0005

POLYGONS 250 1250
4 0 1 2 3
4 1 4 5 2
4 4 6 7 5
4 6 8 9 7
4 8 10 11 9
4 10 12 13 11
4 12 14 15 13
4 14 16 17 15
4 16 18 19 17
4 18 20 21 19
4 20 22 23 21
4 22 24 25 23
4 24 26 27 25
4 26 28 29 27
4 28 30 31 29
4 30 32 33 31
4 32 34 35 33
4 34 36 37 35
4 38 39 40 41
4 41 40 42 43
4 43 42 44 45
4 45 44 46 47
4 47 46 48 49
4 49 48 50 51
4 51 50 52 53
4 53 52 54 55
4 55 54 56 57
4 57 56 58 59
4 59 58 60 61
4 61 60 62 63
4 63 62 64 65
4 65 64 66 67
4 67 66 68 69
4 69 68 70 71
4 71 70 72 73
4 73 72 74 75
4 75 74 76 77
4 77 76 78 79
4 79 78 80 81
4 81 80 82 83
4 83 82 84 85
4 85 84 86 87
4 87 86 88 89
4 89 88 90 91
4 91 90 37 36
4 38 92 93 39
4 92 94 95 93
4 94 96 97 95
4 96 98 99 97
4 98 100 101 99
4 100 102 103 101
4 102 104 105 103
4 104 106 107 105
4 106 108 109 107
4 108 110 111 109
4 110 112 113 111
4 112 114 115 113
4 114 116 117 115
4 116 118 119 117
4 118 120 121 119
4 120 122 123 121
4 122 124 125 123
4 124 126 127 125
4 126 128 129 127
4 128 130 131 129
4 130 132 133 131
4 132 134 135 133
4 134 136 137 135
4 136 138 139 137
4 138 140 141 139
4 140 142 143 141
4 142 144 145 143
4 144 146 147 145
4 146 148 149 147
4 148 150 151 149
4 150 152 153 151
4 152 154 155 153
4 154 156 157 155
4 156 158 159 157
4 158 160 161 159
4 160 162 163 161
4 162 164 165 163
4 164 166 167 165
4 166 168 169 167
4 168 170 171 169
4 170 172 173 171
4 172 174 175 173
4 174 176 177 175
4 176 178 179 177
4 178 180 181 179
4 180 182 183 181
4 182 184 185 183
4 184 186 187 185
4 186 188 189 187
4 188 190 191 189
4 190 192 193 191
4 192 194 195 193
4 194 196 197 195
4 196 198 199 197
4 198 200 201 199
4 200 202 203 201
4 202 204 205 203
4 204 206 207 205
4 206 208 209 207
4 208 210 211 209
4 210 212 213 211
4 212 214 215 213
4 214 216 217 215
4 216 218 219 217
4 218 220 221 219
4 220 222 223 221
4 222 224 225 223
4 224 226 227 225
4 226 228 229 227
4 228 230 231 229
4 230 232 233 231
4 232 234 235 233
4 234 236 237 235
4 236 238 239 237
4 238 240 241 239
4 240 242 243 241
4 242 244 245 243
4 244 246 247 245
4 246 248 249 247
4 248 250 251 249
4 250 252 253 251
4 252 254 255 253
4 254 256 257 255
4 256 258 259 257
4 258 260 261 259
4 260 262 263 261
4 262 264 265 263
4 264 266 267 265
4 266 268 269 267
4 268 270 271 269
4 270 272 273 271
4 272 274 275 273
4 274 276 277 275
4 276 278 279 277
4 278 280 281 279
4 280 282 283 281
4 282 284 285 283
4 284 286 287 285
4 286 288 289 287
4 288 290 291 289
4 290 292 293 291
4 292 294 295 293
4 294 296 297 295
4 296 298 299 297
4 298 300 301 299
4 300 302 303 301
4 302 304 305 303
4 304 306 307 305
4 306 308 309 307
4 308 310 311 309
4 310 312 313 311
4 312 314 315 313
4 314 316 317 315
4 316 318 319 317
4 318 320 321 319
4 320 322 323 321
4 322 324 325 323
4 324 326 327 325
4 326 328 329 327
4 328 330 331 329
4 330 332 333 331
4 332 334 335 333
4 334 336 337 335
4 336 338 339 337
4 338 340 341 339
4 340 342 343 341
4 342 344 345 343
4 344 346 347 345
4 346 348 349 347
4 348 350 351 349
4 350 352 353 351
4 352 354 355 353
4 354 356 357 355
4 356 358 359 357
4 358 360 361 359
4 360 362 363 361
4 362 364 365 363
4 364 366 367 365
4 366 368 369 367
4 368 370 371 369
4 370 372 373 371
4 372 374 375 373
4 374 376 377 375
4 376 378 379 377
4 378 380 381 379
4 380 382 383 381
4 382 384 385 383
4 384 386 387 385
4 386 388 389 387
4 388 390 391 389
4 390 392 393 391
4 392 394 395 393
4 394 396 397 395
4 396 398 399 397
4 398 400 401 399
4 400 402 403 401
4 402 404 405 403
4 404 406 407 405
4 406 408 409 407
4 408 410 411 409
4 410 412 413 411
4 412 414 415 413
4 414 416 417 415
4 416 418 419 417
4 418 420 421 419
4 420 422 423 421
4 422 424 425 423
4 424 426 427 425
4 426 428 429 427
4 428 430 431 429
4 430 432 433 431
4 432 434 435 433
4 434 436 437 435
4 436 438 439 437
4 438 440 441 439
4 440 442 443 441
4 442 444 445 443
4 444 446 447 445
4 446 448 449 447
4 448 450 451 449
4 450 452 453 451
4 452 454 455 453
4 454 456 457 455
4 456 458 459 457
4 458 460 461 459
4 460 462 463 461
4 462 464 465 463
4 464 466 467 465
4 466 468 469 467
4 468 470 471 469
4 470 472 473 471
4 472 474 475 473
4 474 476 477 475
4 476 478 479 477
4 478 480 481 479
4 480 482 483 481
4 482 484 485 483
4 484 486 487 485
4 486 488 489 487
4 488 490 491 489
4 490 492 493 491
4 492 494 495 493
4 494 496 497 495
4 496 498 499 497
4 498 500 501 499
POINT_DATA 502
FIELD attributes 1
U 3 502 float
1.61024 0.10105 0.00511386
0.806682 0.050152 0.00252011
0.806682 0.050152 0.00252011
1.61024 0.10105 0.00511386
0.0244891 0.000625788 0
0.0244891 0.000625788 0
0.0218458 0.000519607 0
0.0218458 0.000519607 0
0.0194411 0.000463059 0
0.0194411 0.000463059 0
0.0171308 0.00041129 0
0.0171308 0.00041129 0
0.0149859 0.000354604 0
0.0149859 0.000354604 0
0.0130097 0.000311132 0
0.0130097 0.000311132 0
0.0111477 0.000280677 0
0.0111477 0.000280677 0
0.00939423 0.000246085 0
0.00939423 0.000246085 0
0.00778845 0.000196707 0
0.00778845 0.000196707 0
0.00637943 0.000140005 0
0.00637943 0.000140005 0
0.00518443 8.98228e-05 0
0.00518443 8.98228e-05 0
0.00420241 5.47484e-05 0
0.00420241 5.47484e-05 0
0.00337168 3.27156e-05 0
0.00337168 3.27156e-05 0
0.00266326 2.52326e-05 0
0.00266326 2.52326e-05 0
0.00195741 2.63004e-05 0
0.00195741 2.63004e-05 0
0.00126687 -4.16121e-06 0
0.00126687 -4.16121e-06 0
0.000492118 0.000373173 0
0.000492118 0.000373173 0
-0.000143535 0.00032975 -1.04345e-22
-0.000143535 0.00032975 -1.04345e-22
-0.000157269 0.00121313 2.82213e-22
-0.000157269 0.00121313 2.82213e-22
3.01233e-05 0.00225668 3.34466e-22
3.01233e-05 0.00225668 3.34466e-22
0.000238889 0.00160995 -6.69296e-22
0.000238889 0.00160995 -6.69296e-22
3.46244e-05 0.000658919 -2.23066e-22
3.46244e-05 0.000658919 -2.23066e-22
-0.000301144 0.000756237 4.46311e-22
-0.000301144 0.000756237 4.46311e-22
-0.000181936 0.000732519 0
-0.000181936 0.000732519 0
0.0003387 -0.000763437 8.9599e-22
0.0003387 -0.000763437 8.9599e-22
0.000618816 -0.00318172 6.28762e-25
0.000618816 -0.00318172 6.28762e-25
0.00049622 -0.00506543 -8.95361e-22
0.00049622 -0.00506543 -8.95361e-22
0.000241586 -0.00597651 9.00422e-22
0.000241586 -0.00597651 9.00422e-22
5.39629e-05 -0.00616789 -6.09642e-28
5.39629e-05 -0.00616789 -6.09642e-28
-4.77782e-06 -0.00608193 -9.00422e-22
-4.77782e-06 -0.00608193 -9.00422e-22
-2.82304e-06 -0.00595801 -9.06735e-22
-2.82304e-06 -0.00595801 -9.06735e-22
-8.64782e-06 -0.00580296 1.49263e-25
-8.64782e-06 -0.00580296 1.49263e-25
-2.70027e-05 -0.0055771 9.22958e-22
-2.70027e-05 -0.0055771 9.22958e-22
-4.72803e-05 -0.00526021 0
-4.72803e-05 -0.00526021 0
-6.6819e-05 -0.00488846 0
-6.6819e-05 -0.00488846 0
-9.08934e-05 -0.00447586 0
-9.08934e-05 -0.00447586 0
-0.000127859 -0.00401075 0
-0.000127859 -0.00401075 0
-0.000178584 -0.00347074 0
-0.000178584 -0.00347074 0
-0.000238255 -0.0028484 0
-0.000238255 -0.0028484 0
-0.000304105 -0.00214558 0
-0.000304105 -0.00214558 0
-0.000366358 -0.00138404 0
-0.000366358 -0.00138404 0
-0.000394234 -0.000592564 0
-0.000394234 -0.000592564 0
-0.000290978 0.000111651 0
-0.000290978 0.000111651 0
-4.64403e-05 0.000564102 0
-4.64403e-05 0.000564102 0
-0.000321688 0.000364615 -4.59192e-25
-0.000321688 0.000364615 -4.59192e-25
-0.000641833 0.000359556 5.18462e-23
-0.000641833 0.000359556 5.18462e-23
-0.000867839 0.000249915 0
-0.000867839 0.000249915 0
-0.000962073 9.71414e-05 0
-0.000962073 9.71414e-05 0
-0.000910124 -6.52601e-05 -5.0313e-23
-0.000910124 -6.52601e-05 -5.0313e-23
-0.000724972 -0.00020504 -5.04034e-23
-0.000724972 -0.00020504 -5.04034e-23
-0.000435934 -0.000300526 0
-0.000435934 -0.000300526 0
-8.65261e-05 -0.000341698 0
-8.65261e-05 -0.000341698 0
0.000278894 -0.000334109 0
0.000278894 -0.000334109 0
0.00061929 -0.000269899 4.84987e-23
0.00061929 -0.000269899 4.84987e-23
0.000891149 -0.000135906 4.85911e-23
0.000891149 -0.000135906 4.85911e-23
0.00107057 1.82881e-06 0
0.00107057 1.82881e-06 0
0.00116008 3.70857e-05 0
0.00116008 3.70857e-05 0
0.00118144 -3.25987e-05 0
0.00118144 -3.25987e-05 0
0.00118029 -0.000112259 4.67785e-23
0.00118029 -0.000112259 4.67785e-23
0.0012036 -0.000139726 4.6873e-23
0.0012036 -0.000139726 4.6873e-23
0.00126917 -0.000125432 0
0.00126917 -0.000125432 0
0.00137956 -0.000113109 0
0.00137956 -0.000113109 0
0.00154115 -0.000116081 0
0.00154115 -0.000116081 0
0.00173835 -9.39217e-05 0
0.00173835 -9.39217e-05 0
0.00192179 -3.34753e-05 0
0.00192179 -3.34753e-05 0
0.00205702 2.4997e-05 0
0.00205702 2.4997e-05 0
0.00215683 7.91596e-05 4.40481e-23
0.00215683 7.91596e-05 4.40481e-23
0.00220628 0.000148148 4.40575e-25
0.00220628 0.000148148 4.40575e-25
0.00215273 0.00016803 -4.50221e-25
0.00215273 0.00016803 -4.50221e-25
0.00202228 5.34529e-05 8.64468e-23
0.00202228 5.34529e-05 8.64468e-23
0.00189861 -0.000151438 4.30948e-23
0.00189861 -0.000151438 4.30948e-23
0.00179405 -0.000280407 0
0.00179405 -0.000280407 0
0.00162633 -0.000243905 -4.19779e-23
0.00162633 -0.000243905 -4.19779e-23
0.00132421 -8.59552e-05 -8.37528e-23
0.00132421 -8.59552e-05 -8.37528e-23
0.000875738 0.000210158 -4.17752e-23
0.000875738 0.000210158 -4.17752e-23
0.000256764 0.000528155 0
0.000256764 0.000528155 0
-0.000459734 0.000639253 -4.07375e-23
-0.000459734 0.000639253 -4.07375e-23
-0.0011612 0.000632154 -4.08379e-23
-0.0011612 0.000632154 -4.08379e-23
-0.00185345 0.000637769 0
-0.00185345 0.000637769 0
-0.00253757 0.000628228 3.97485e-23
-0.00253757 0.000628228 3.97485e-23
-0.00319406 0.000604596 3.98496e-23
-0.00319406 0.000604596 3.98496e-23
-0.00381911 0.000576358 3.91453e-23
-0.00381911 0.000576358 3.91453e-23
-0.0044071 0.000542433 1.16958e-22
-0.0044071 0.000542433 1.16958e-22
-0.00495345 0.000503154 7.79151e-23
-0.00495345 0.000503154 7.79151e-23
-0.00545402 0.00045875 0
-0.00545402 0.00045875 0
-0.00590553 0.000410989 0
-0.00590553 0.000410989 0
-0.00630617 0.000361855 0
-0.00630617 0.000361855 0
-0.00665534 0.000313145 0
-0.00665534 0.000313145 0
-0.00695369 0.000266367 7.43469e-23
-0.00695369 0.000266367 7.43469e-23
-0.00720279 0.000222402 1.4833e-22
-0.00720279 0.000222402 1.4833e-22
-0.0074047 0.000181562 1.4718e-22
-0.0074047 0.000181562 1.4718e-22
-0.00756154 0.000143739 7.3404e-23
-0.00756154 0.000143739 7.3404e-23
-0.00767526 0.000108719 -7.20043e-23
-0.00767526 0.000108719 -7.20043e-23
-0.00774733 7.64548e-05 -7.22129e-23
-0.00774733 7.64548e-05 -7.22129e-23
-0.00777865 4.66655e-05 7.07633e-23
-0.00777865 4.66655e-05 7.07633e-23
-0.00777128 1.83874e-05 1.41095e-22
-0.00777128 1.83874e-05 1.41095e-22
-0.00772623 -9.33998e-06 7.03313e-23
-0.00772623 -9.33998e-06 7.03313e-23
-0.0076432 -3.71852e-05 0
-0.0076432 -3.71852e-05 0
-0.00752124 -6.58306e-05 0
-0.00752124 -6.58306e-05 0
-0.00735839 -9.5822e-05 6.74479e-23
-0.00735839 -9.5822e-05 6.74479e-23
-0.00715227 -0.000127749 6.76567e-23
-0.00715227 -0.000127749 6.76567e-23
-0.0068994 -0.000162308 0
-0.0068994 -0.000162308 0
-0.00659552 -0.000200153 0
-0.00659552 -0.000200153 0
-0.00623551 -0.000241759 0
-0.00623551 -0.000241759 0
-0.00581416 -0.000287027 0
-0.00581416 -0.000287027 0
-0.00532722 -0.00033457 0
-0.00532722 -0.00033457 0
-0.00477427 -0.000380661 0
-0.00477427 -0.000380661 0
-0.00416513 -0.000418203 0
-0.00416513 -0.000418203 0
-0.00352816 -0.000436118 -6.13243e-23
-0.00352816 -0.000436118 -6.13243e-23
-0.00290853 -0.000420686 -6.15303e-23
-0.00290853 -0.000420686 -6.15303e-23
-0.00236065 -0.00036208 0
-0.00236065 -0.00036208 0
-0.00195308 -0.000261271 5.94491e-23
-0.00195308 -0.000261271 5.94491e-23
-0.00176237 -0.000113537 1.18431e-22
-0.00176237 -0.000113537 1.18431e-22
-0.00182134 0.000121136 5.89815e-23
-0.00182134 0.000121136 5.89815e-23
-0.00215815 0.000310888 -5.73922e-23
-0.00215815 0.000310888 -5.73922e-23
-0.00250532 0.000215682 -8.39917e-25
-0.00250532 0.000215682 -8.39917e-25
-0.00247839 -1.03704e-05 5.69579e-23
-0.00247839 -1.03704e-05 5.69579e-23
-0.00223536 -0.000106903 -5.55253e-23
-0.00223536 -0.000106903 -5.55253e-23
-0.00198386 -0.000136222 -5.57268e-23
-0.00198386 -0.000136222 -5.57268e-23
-0.00172312 -0.000167675 0
-0.00172312 -0.000167675 0
-0.00145901 -0.000187373 5.38147e-23
-0.00145901 -0.000187373 5.38147e-23
-0.0011591 -0.000202035 5.40148e-23
-0.0011591 -0.000202035 5.40148e-23
-0.000830702 -0.000201648 -5.27437e-23
-0.000830702 -0.000201648 -5.27437e-23
-0.000502342 -0.000178451 -5.2943e-23
-0.000502342 -0.000178451 -5.2943e-23
-0.000224326 -0.00013649 5.17599e-23
-0.000224326 -0.00013649 5.17599e-23
-3.09201e-05 -9.81399e-05 1.03244e-22
-3.09201e-05 -9.81399e-05 1.03244e-22
0.000103174 -0.000100338 1.02287e-22
0.000103174 -0.000100338 1.02287e-22
0.000280651 -0.000170759 1.516e-22
0.000280651 -0.000170759 1.516e-22
0.000658262 -0.000291553 1.48106e-24
0.000658262 -0.000291553 1.48106e-24
0.00131979 -0.000352808 -9.99076e-23
0.00131979 -0.000352808 -9.99076e-23
0.00212324 -0.000364372 0
0.00212324 -0.000364372 0
0.00294611 -0.000443263 0
0.00294611 -0.000443263 0
0.00381057 -0.000270604 -9.53111e-23
0.00381057 -0.000270604 -9.53111e-23
0.00399064 0.000334327 -1.8999e-22
0.00399064 0.000334327 -1.8999e-22
0.00297272 0.000609367 -1.34404e-24
0.00297272 0.000609367 -1.34404e-24
0.00181387 0.000237976 9.37195e-23
0.00181387 0.000237976 9.37195e-23
0.00141995 -0.000168524 -9.14373e-23
0.00141995 -0.000168524 -9.14373e-23
0.00158401 -0.00038276 -1.82182e-22
0.00158401 -0.00038276 -1.82182e-22
0.00184369 -0.000473919 -1.80157e-22
0.00184369 -0.000473919 -1.80157e-22
0.00179203 -0.000249261 -8.97955e-23
0.00179203 -0.000249261 -8.97955e-23
0.0010898 0.000262824 0
0.0010898 0.000262824 0
-0.000104352 0.000603207 0
-0.000104352 0.000603207 0
-0.00133541 0.000631899 -8.62725e-23
-0.00133541 0.000631899 -8.62725e-23
-0.00241755 0.000556301 -8.66502e-23
-0.00241755 0.000556301 -8.66502e-23
-0.00333774 0.000469422 0
-0.00333774 0.000469422 0
-0.0041126 0.000390916 8.42578e-23
-0.0041126 0.000390916 8.42578e-23
-0.00476916 0.000326172 8.46341e-23
-0.00476916 0.000326172 8.46341e-23
-0.00533233 0.000275106 0
-0.00533233 0.000275106 0
-0.00582181 0.000235501 8.23209e-23
-0.00582181 0.000235501 8.23209e-23
-0.00625183 0.000204001 8.26959e-23
-0.00625183 0.000204001 8.26959e-23
-0.00663079 0.000177137 0
-0.00663079 0.000177137 0
-0.00696225 0.000152547 -8.03154e-23
-0.00696225 0.000152547 -8.03154e-23
-0.00724674 0.000128799 -1.60302e-22
-0.00724674 0.000128799 -1.60302e-22
-0.00748267 0.000104831 -7.99861e-23
-0.00748267 0.000104831 -7.99861e-23
-0.00766709 8.02274e-05 7.8135e-23
-0.00766709 8.02274e-05 7.8135e-23
-0.00779686 5.53204e-05 7.85044e-23
-0.00779686 5.53204e-05 7.85044e-23
-0.00786936 3.06052e-05 -7.65256e-23
-0.00786936 3.06052e-05 -7.65256e-23
-0.00788334 6.51425e-06 -7.68919e-23
-0.00788334 6.51425e-06 -7.68919e-23
-0.00783947 -1.67004e-05 -7.47623e-23
-0.00783947 -1.67004e-05 -7.47623e-23
-0.00773873 -3.90963e-05 -1.4895e-22
-0.00773873 -3.90963e-05 -1.4895e-22
-0.00758183 -6.0627e-05 -7.41851e-23
-0.00758183 -6.0627e-05 -7.41851e-23
-0.00737037 -8.10176e-05 0
-0.00737037 -8.10176e-05 0
-0.00710651 -0.0001001 0
-0.00710651 -0.0001001 0
-0.00679247 -0.000117902 0
-0.00679247 -0.000117902 0
-0.00643024 -0.000134563 0
-0.00643024 -0.000134563 0
-0.00602126 -0.000150306 0
-0.00602126 -0.000150306 0
-0.00556646 -0.000165312 0
-0.00556646 -0.000165312 0
-0.00506666 -0.00017953 -6.5544e-23
-0.00506666 -0.00017953 -6.5544e-23
-0.00452343 -0.000192523 -1.38753e-24
-0.00452343 -0.000192523 -1.38753e-24
-0.00394052 -0.000203364 6.48204e-23
-0.00394052 -0.000203364 6.48204e-23
-0.0033252 -0.000210657 0
-0.0033252 -0.000210657 0
-0.00268887 -0.000212899 0
-0.00268887 -0.000212899 0
-0.00204592 -0.000209209 0
-0.00204592 -0.000209209 0
-0.001412 -0.000199693 1.19241e-22
-0.001412 -0.000199693 1.19241e-22
-0.000803065 -0.000184903 1.19868e-22
-0.000803065 -0.000184903 1.19868e-22
-0.000234901 -0.000167725 -1.15841e-22
-0.000234901 -0.000167725 -1.15841e-22
0.00028226 -0.000149622 -2.26105e-24
0.00028226 -0.000149622 -2.26105e-24
0.000747781 -0.000131163 1.14803e-22
0.000747781 -0.000131163 1.14803e-22
0.00116483 -0.00011454 0
0.00116483 -0.00011454 0
0.00153822 -0.000100475 0
0.00153822 -0.000100475 0
0.00187543 -8.93626e-05 -1.07957e-22
0.00187543 -8.93626e-05 -1.07957e-22
0.00218484 -8.13561e-05 -2.1499e-22
0.00218484 -8.13561e-05 -2.1499e-22
0.00247526 -7.64257e-05 -1.07027e-22
0.00247526 -7.64257e-05 -1.07027e-22
0.00275589 -7.444e-05 -1.0343e-22
0.00275589 -7.444e-05 -1.0343e-22
0.00303606 -7.50852e-05 -2.0592e-22
0.00303606 -7.50852e-05 -2.0592e-22
0.00332371 -7.73533e-05 -2.07429e-24
0.00332371 -7.73533e-05 -2.07429e-24
0.00362269 -7.92291e-05 1.00968e-22
0.00362269 -7.92291e-05 1.00968e-22
0.00393063 -7.85173e-05 0
0.00393063 -7.85173e-05 0
0.00423924 -7.43263e-05 9.59266e-23
0.00423924 -7.43263e-05 9.59266e-23
0.00453708 -6.72341e-05 9.64668e-23
0.00453708 -6.72341e-05 9.64668e-23
0.00481268 -5.68605e-05 0
0.00481268 -5.68605e-05 0
0.00505326 -3.87056e-05 0
0.00505326 -3.87056e-05 0
0.00523827 -6.22284e-06 0
0.00523827 -6.22284e-06 0
0.0053366 3.89732e-05 -8.87905e-23
0.0053366 3.89732e-05 -8.87905e-23
0.0053221 8.30688e-05 -1.76717e-22
0.0053221 8.30688e-05 -1.76717e-22
0.00518571 0.000116477 -8.79207e-23
0.00518571 0.000116477 -8.79207e-23
0.00492877 0.00014427 -8.4733e-23
0.00492877 0.00014427 -8.4733e-23
0.00455339 0.00017488 -8.52261e-23
0.00455339 0.00017488 -8.52261e-23
0.00406056 0.000201809 0
0.00406056 0.000201809 0
0.00347334 0.000200649 -8.09288e-23
0.00347334 0.000200649 -8.09288e-23
0.00285947 0.000159319 -8.14051e-23
0.00285947 0.000159319 -8.14051e-23
0.00230706 9.77857e-05 -7.85258e-23
0.00230706 9.77857e-05 -7.85258e-23
0.00187365 4.43855e-05 -7.89914e-23
0.00187365 4.43855e-05 -7.89914e-23
0.001568 1.18785e-05 0
0.001568 1.18785e-05 0
0.00136875 -1.96402e-06 -7.48246e-23