/*--------------------------------*- C++ -*----------------------------------*\
  =========                 |
  \\      /  F ield         | OpenFOAM: The Open Source CFD Toolbox
   \\    /   O peration     | Website:  https://openfoam.org
    \\  /    A nd           | Version:  7
     \\/     M anipulation  |
\*---------------------------------------------------------------------------*/
FoamFile
{
    version     2.0;
    format      ascii;
    class       volScalarField;
    location    "0.029";
    object      p;
}
// * * * * * * * * * * * * * * * * * * * * * * * * * * * * * * * * * * * * * //

dimensions      [0 2 -2 0 0 0 0];

internalField   nonuniform List<scalar> 
12225
(
-181.243
-176.745
-173.696
-171.301
-169.201
-167.311
-165.597
-164.021
-162.569
-161.231
-159.976
-158.759
-157.55
-156.337
-155.12
-153.884
-152.59
-151.141
-180.67
-176.696
-173.687
-171.29
-169.195
-167.308
-165.596
-164.021
-162.568
-161.231
-159.978
-158.761
-157.552
-156.34
-155.126
-153.898
-152.622
-151.244
-180.2
-176.649
-173.683
-171.274
-169.182
-167.299
-165.588
-164.016
-162.567
-161.229
-159.97
-158.751
-157.545
-156.343
-155.143
-153.935
-152.695
-151.411
-180.43
-176.551
-173.64
-171.232
-169.147
-167.274
-165.571
-164.006
-162.56
-161.221
-159.961
-158.744
-157.545
-156.357
-155.173
-153.991
-152.798
-151.601
-179.812
-176.382
-173.583
-171.186
-169.104
-167.24
-165.546
-163.988
-162.547
-161.211
-159.953
-158.741
-157.552
-156.379
-155.218
-154.067
-152.923
-151.804
-179.372
-176.154
-173.501
-171.118
-169.04
-167.188
-165.507
-163.96
-162.529
-161.199
-159.946
-158.741
-157.564
-156.409
-155.272
-154.156
-153.062
-152.009
-177.491
-175.877
-173.398
-171.032
-168.959
-167.12
-165.454
-163.922
-162.503
-161.182
-159.937
-158.742
-157.582
-156.448
-155.34
-154.26
-153.213
-152.216
-176.707
-175.644
-173.269
-170.919
-168.853
-167.03
-165.383
-163.87
-162.468
-161.161
-159.928
-158.748
-157.607
-156.497
-155.418
-154.373
-153.37
-152.422
-177.132
-175.571
-173.144
-170.784
-168.72
-166.915
-165.293
-163.804
-162.424
-161.135
-159.918
-158.755
-157.635
-156.551
-155.503
-154.495
-153.533
-152.627
-178.106
-175.624
-172.984
-170.6
-168.551
-166.771
-165.178
-163.72
-162.367
-161.101
-159.906
-158.766
-157.67
-156.614
-155.598
-154.624
-153.699
-152.83
-179.643
-175.692
-172.791
-170.37
-168.337
-166.591
-165.037
-163.616
-162.297
-161.061
-159.89
-158.775
-157.705
-156.679
-155.694
-154.755
-153.866
-153.032
-180.192
-175.612
-172.513
-170.079
-168.086
-166.388
-164.88
-163.502
-162.219
-161.015
-159.873
-158.784
-157.743
-156.744
-155.789
-154.88
-154.02
-153.213
-179.941
-175.335
-172.121
-169.714
-167.782
-166.144
-164.693
-163.366
-162.128
-160.962
-159.852
-158.793
-157.779
-156.808
-155.882
-155.002
-154.17
-153.39
-179.577
-174.653
-171.456
-169.149
-167.341
-165.812
-164.451
-163.195
-162.013
-160.893
-159.823
-158.8
-157.822
-156.886
-155.993
-155.144
-154.342
-153.587
-178.502
-173.334
-170.339
-168.314
-166.724
-165.356
-164.116
-162.957
-161.855
-160.799
-159.784
-158.808
-157.87
-156.972
-156.115
-155.3
-154.53
-153.803
-174.597
-170.661
-168.49
-167.032
-165.838
-164.744
-163.698
-162.678
-161.676
-160.695
-159.74
-158.816
-157.925
-157.07
-156.253
-155.474
-154.735
-154.037
-166.372
-165.924
-165.714
-165.315
-164.744
-164.019
-163.204
-162.344
-161.462
-160.574
-159.694
-158.833
-157.996
-157.186
-156.408
-155.664
-154.957
-154.286
-155.528
-160.464
-162.632
-163.492
-163.601
-163.29
-162.744
-162.066
-161.307
-160.506
-159.692
-158.886
-158.095
-157.325
-156.582
-155.871
-155.192
-154.545
-150.713
-157.812
-161.207
-162.701
-163.16
-163.044
-162.61
-162.004
-161.3
-160.546
-159.774
-159.004
-158.247
-157.507
-156.792
-156.106
-155.448
-154.821
-159.815
-162.382
-163.742
-164.223
-164.125
-163.701
-163.089
-162.368
-161.592
-160.795
-159.998
-159.212
-158.445
-157.703
-156.99
-156.307
-155.655
-155.033
-166.159
-167.241
-166.889
-166.219
-165.407
-164.549
-163.673
-162.785
-161.905
-161.046
-160.212
-159.404
-158.623
-157.873
-157.154
-156.469
-155.815
-155.192
-177.34
-172.857
-169.986
-168.098
-166.609
-165.354
-164.234
-163.19
-162.206
-161.278
-160.397
-159.558
-158.757
-157.993
-157.267
-156.577
-155.92
-155.296
-186.019
-176.796
-172.175
-169.466
-167.538
-166.011
-164.709
-163.545
-162.482
-161.499
-160.581
-159.714
-158.892
-158.113
-157.377
-156.676
-156.013
-155.384
-187.273
-177.94
-173.096
-170.176
-168.076
-166.403
-164.996
-163.76
-162.649
-161.631
-160.685
-159.8
-158.967
-158.182
-157.437
-156.734
-156.068
-155.437
-185.31
-177.515
-173.296
-170.546
-168.443
-166.712
-165.246
-163.962
-162.816
-161.764
-160.793
-159.888
-159.041
-158.244
-157.495
-156.786
-156.116
-155.481
-181.387
-176.138
-172.998
-170.585
-168.561
-166.845
-165.366
-164.069
-162.894
-161.825
-160.841
-159.927
-159.074
-158.274
-157.521
-156.81
-156.138
-155.502
-175.264
-174.665
-172.694
-170.609
-168.655
-166.944
-165.464
-164.158
-162.97
-161.885
-160.888
-159.966
-159.107
-158.302
-157.545
-156.831
-156.157
-155.519
-172.145
-173.369
-172.35
-170.522
-168.659
-166.978
-165.506
-164.194
-162.999
-161.906
-160.905
-159.98
-159.119
-158.313
-157.554
-156.839
-156.163
-155.525
-170.142
-172.864
-172.222
-170.488
-168.665
-167.008
-165.542
-164.226
-163.025
-161.925
-160.919
-159.991
-159.128
-158.32
-157.559
-156.842
-156.165
-155.526
-168.387
-172.547
-172.146
-170.442
-168.652
-167.015
-165.553
-164.234
-163.027
-161.924
-160.916
-159.99
-159.129
-158.322
-157.562
-156.844
-156.165
-155.524
-139.306
-139.304
-139.306
-139.308
-139.312
-139.317
-139.321
-139.326
-139.331
-139.334
-139.337
-139.337
-139.334
-139.326
-139.313
-139.293
-139.267
-139.232
-139.189
-139.134
-139.067
-138.991
-138.912
-138.827
-138.76
-138.712
-138.688
-138.694
-138.733
-138.808
-138.919
-139.065
-139.244
-139.449
-139.675
-139.911
-140.148
-140.374
-140.577
-140.742
-140.859
-140.913
-140.895
-140.795
-140.606
-140.323
-139.944
-139.468
-138.897
-138.24
-137.504
-136.7
-135.837
-134.926
-133.976
-132.997
-131.997
-130.983
-129.962
-128.941
-127.924
-126.918
-125.928
-124.958
-124.015
-123.102
-122.221
-121.376
-120.569
-119.798
-119.063
-118.364
-117.697
-117.06
-116.45
-115.864
-115.299
-114.753
-114.221
-113.702
-113.193
-112.693
-112.198
-111.709
-111.223
-110.739
-110.256
-109.774
-109.291
-108.806
-108.319
-107.831
-107.339
-106.844
-106.346
-105.844
-105.338
-104.828
-104.314
-103.796
-103.273
-102.745
-102.213
-101.675
-101.134
-100.587
-100.035
-99.4782
-98.9165
-98.3497
-97.7778
-97.2008
-96.6187
-96.0314
-95.439
-94.8414
-94.2387
-93.6307
-93.0175
-92.399
-91.7753
-91.1463
-90.512
-89.8723
-89.2273
-88.577
-87.9212
-87.26
-86.5935
-85.9214
-85.2439
-84.5609
-83.8723
-83.1782
-82.4785
-81.7732
-81.0622
-80.3456
-79.6232
-78.8951
-78.1612
-77.4215
-76.676
-75.9245
-75.1672
-74.4039
-73.6346
-72.8592
-72.0778
-71.2902
-70.4965
-69.6965
-68.8902
-68.0777
-67.2587
-66.4334
-65.6015
-64.7631
-63.9182
-63.0666
-62.2083
-61.3432
-60.4713
-59.5925
-58.7067
-57.8138
-56.9138
-56.0064
-55.0916
-54.1692
-53.2391
-52.3009
-51.3546
-50.3993
-49.4352
-48.4607
-47.4765
-46.4796
-45.4715
-44.458
-139.33
-139.33
-139.331
-139.334
-139.336
-139.339
-139.343
-139.346
-139.349
-139.351
-139.352
-139.352
-139.347
-139.339
-139.325
-139.305
-139.277
-139.241
-139.197
-139.145
-139.085
-139.02
-138.953
-138.891
-138.842
-138.813
-138.81
-138.836
-138.895
-138.99
-139.119
-139.281
-139.474
-139.692
-139.927
-140.171
-140.414
-140.644
-140.849
-141.017
-141.134
-141.187
-141.165
-141.057
-140.856
-140.558
-140.162
-139.669
-139.084
-138.412
-137.662
-136.844
-135.969
-135.046
-134.087
-133.099
-132.091
-131.071
-130.045
-129.018
-127.996
-126.984
-125.988
-125.013
-124.063
-123.144
-122.257
-121.407
-120.595
-119.82
-119.082
-118.38
-117.711
-117.073
-116.461
-115.875
-115.31
-114.762
-114.23
-113.711
-113.201
-112.7
-112.206
-111.716
-111.23
-110.745
-110.262
-109.779
-109.296
-108.811
-108.324
-107.835
-107.343
-106.848
-106.349
-105.847
-105.341
-104.831
-104.317
-103.798
-103.275
-102.747
-102.215
-101.677
-101.135
-100.588
-100.036
-99.4796
-98.9178
-98.3509
-97.7789
-97.2019
-96.6197
-96.0324
-95.4399
-94.8423
-94.2394
-93.6314
-93.0181
-92.3996
-91.7758
-91.1468
-90.5124
-89.8727
-89.2277
-88.5773
-87.9215
-87.2603
-86.5937
-85.9216
-85.2441
-84.561
-83.8724
-83.1783
-82.4786
-81.7733
-81.0623
-80.3456
-79.6233
-78.8951
-78.1612
-77.4215
-76.676
-75.9246
-75.1672
-74.4039
-73.6346
-72.8593
-72.0779
-71.2903
-70.4965
-69.6965
-68.8903
-68.0777
-67.2588
-66.4334
-65.6016
-64.7632
-63.9183
-63.0667
-62.2084
-61.3433
-60.4714
-59.5926
-58.7069
-57.814
-56.914
-56.0067
-55.0919
-54.1696
-53.2396
-52.3016
-51.3554
-50.4006
-49.4368
-48.4634
-47.4797
-46.4862
-45.4808
-44.4803
-139.343
-139.343
-139.343
-139.344
-139.344
-139.343
-139.343
-139.341
-139.339
-139.336
-139.33
-139.322
-139.312
-139.299
-139.281
-139.259
-139.233
-139.202
-139.167
-139.13
-139.091
-139.054
-139.021
-138.997
-138.988
-138.998
-139.032
-139.091
-139.179
-139.297
-139.446
-139.623
-139.827
-140.053
-140.297
-140.549
-140.801
-141.041
-141.257
-141.434
-141.56
-141.622
-141.605
-141.5
-141.297
-140.992
-140.583
-140.071
-139.461
-138.763
-137.985
-137.14
-136.239
-135.292
-134.312
-133.307
-132.285
-131.252
-130.216
-129.179
-128.147
-127.125
-126.117
-125.129
-124.167
-123.234
-122.336
-121.474
-120.652
-119.869
-119.125
-118.418
-117.745
-117.103
-116.49
-115.902
-115.335
-114.786
-114.252
-113.732
-113.221
-112.719
-112.224
-111.733
-111.246
-110.761
-110.277
-109.793
-109.308
-108.823
-108.335
-107.845
-107.353
-106.857
-106.358
-105.855
-105.349
-104.838
-104.323
-103.804
-103.28
-102.752
-102.219
-101.682
-101.139
-100.592
-100.04
-99.4826
-98.9205
-98.3533
-97.7811
-97.2039
-96.6215
-96.034
-95.4413
-94.8435
-94.2405
-93.6324
-93.019
-92.4004
-91.7765
-91.1474
-90.5129
-89.8732
-89.2281
-88.5777
-87.9218
-87.2606
-86.5939
-85.9218
-85.2443
-84.5612
-83.8726
-83.1784
-82.4787
-81.7734
-81.0624
-80.3457
-79.6233
-78.8952
-78.1613
-77.4216
-76.676
-75.9246
-75.1673
-74.404
-73.6347
-72.8593
-72.0779
-71.2903
-70.4965
-69.6966
-68.8903
-68.0777
-67.2588
-66.4334
-65.6016
-64.7633
-63.9183
-63.0667
-62.2085
-61.3434
-60.4716
-59.5928
-58.7071
-57.8143
-56.9143
-56.0071
-55.0925
-54.1704
-53.2406
-52.3029
-51.3571
-50.403
-49.44
-48.4685
-47.487
-46.4986
-45.5003
-44.511
-139.369
-139.368
-139.366
-139.363
-139.359
-139.354
-139.347
-139.339
-139.331
-139.321
-139.309
-139.296
-139.281
-139.264
-139.245
-139.224
-139.201
-139.179
-139.156
-139.136
-139.119
-139.109
-139.107
-139.118
-139.144
-139.189
-139.256
-139.348
-139.467
-139.614
-139.791
-139.996
-140.228
-140.482
-140.754
-141.036
-141.317
-141.588
-141.834
-142.041
-142.193
-142.276
-142.275
-142.176
-141.969
-141.649
-141.217
-140.676
-140.032
-139.294
-138.474
-137.586
-136.643
-135.66
-134.647
-133.615
-132.571
-131.522
-130.47
-129.42
-128.375
-127.338
-126.314
-125.307
-124.325
-123.372
-122.454
-121.576
-120.738
-119.943
-119.189
-118.474
-117.795
-117.149
-116.532
-115.941
-115.372
-114.821
-114.286
-113.763
-113.251
-112.748
-112.251
-111.759
-111.27
-110.784
-110.298
-109.813
-109.327
-108.84
-108.352
-107.861
-107.367
-106.87
-106.37
-105.867
-105.359
-104.848
-104.332
-103.812
-103.288
-102.759
-102.226
-101.688
-101.145
-100.597
-100.044
-99.4868
-98.9243
-98.3569
-97.7844
-97.2068
-96.6241
-96.0364
-95.4435
-94.8455
-94.2424
-93.634
-93.0205
-92.4017
-91.7777
-91.1485
-90.5139
-89.8741
-89.2289
-88.5784
-87.9224
-87.2611
-86.5944
-85.9223
-85.2446
-84.5615
-83.8729
-83.1787
-82.4789
-81.7735
-81.0625
-80.3458
-79.6234
-78.8953
-78.1614
-77.4217
-76.6761
-75.9247
-75.1674
-74.4041
-73.6347
-72.8594
-72.0779
-71.2904
-70.4966
-69.6966
-68.8904
-68.0778
-67.2589
-66.4335
-65.6017
-64.7633
-63.9184
-63.0669
-62.2086
-61.3436
-60.4718
-59.593
-58.7074
-57.8146
-56.9147
-56.0076
-55.0932
-54.1712
-53.2417
-52.3044
-51.359
-50.4057
-49.4437
-48.4738
-47.4947
-46.5102
-45.518
-44.5342
-139.422
-139.419
-139.415
-139.41
-139.403
-139.394
-139.383
-139.37
-139.356
-139.341
-139.324
-139.306
-139.287
-139.268
-139.248
-139.23
-139.213
-139.198
-139.187
-139.182
-139.184
-139.195
-139.218
-139.256
-139.31
-139.385
-139.484
-139.608
-139.761
-139.945
-140.161
-140.408
-140.686
-140.99
-141.314
-141.649
-141.984
-142.308
-142.604
-142.859
-143.054
-143.172
-143.195
-143.11
-142.904
-142.57
-142.11
-141.527
-140.829
-140.03
-139.145
-138.192
-137.189
-136.152
-135.093
-134.024
-132.952
-131.88
-130.813
-129.749
-128.688
-127.634
-126.588
-125.556
-124.545
-123.563
-122.617
-121.713
-120.854
-120.041
-119.273
-118.547
-117.86
-117.208
-116.588
-115.993
-115.421
-114.868
-114.33
-113.806
-113.292
-112.786
-112.287
-111.793
-111.303
-110.814
-110.327
-109.841
-109.353
-108.865
-108.374
-107.882
-107.387
-106.888
-106.387
-105.882
-105.374
-104.861
-104.344
-103.824
-103.298
-102.769
-102.235
-101.696
-101.152
-100.604
-100.051
-99.4926
-98.9296
-98.3617
-97.7887
-97.2107
-96.6277
-96.0396
-95.4465
-94.8482
-94.2448
-93.6362
-93.0224
-92.4034
-91.7793
-91.1498
-90.5152
-89.8752
-89.2299
-88.5792
-87.9232
-87.2618
-86.595
-85.9228
-85.2451
-84.5619
-83.8732
-83.179
-82.4792
-81.7738
-81.0627
-80.346
-79.6236
-78.8954
-78.1615
-77.4218
-76.6762
-75.9248
-75.1674
-74.4041
-73.6348
-72.8595
-72.078
-71.2904
-70.4967
-69.6967
-68.8904
-68.0779
-67.2589
-66.4336
-65.6018
-64.7634
-63.9185
-63.067
-62.2087
-61.3438
-60.472
-59.5933
-58.7077
-57.815
-56.9152
-56.0082
-55.0939
-54.1722
-53.2429
-52.306
-51.3612
-50.4086
-49.4477
-48.4793
-47.5027
-46.5211
-45.534
-44.5527
-139.519
-139.515
-139.51
-139.502
-139.492
-139.479
-139.465
-139.448
-139.429
-139.409
-139.388
-139.366
-139.344
-139.323
-139.304
-139.286
-139.273
-139.264
-139.262
-139.268
-139.284
-139.312
-139.354
-139.414
-139.493
-139.596
-139.725
-139.885
-140.079
-140.31
-140.58
-140.888
-141.232
-141.604
-141.998
-142.402
-142.805
-143.194
-143.556
-143.872
-144.123
-144.288
-144.347
-144.283
-144.085
-143.741
-143.243
-142.598
-141.823
-140.937
-139.964
-138.926
-137.845
-136.74
-135.625
-134.512
-133.409
-132.317
-131.237
-130.164
-129.093
-128.022
-126.952
-125.888
-124.839
-123.817
-122.832
-121.892
-121.003
-120.166
-119.379
-118.639
-117.941
-117.283
-116.656
-116.057
-115.481
-114.924
-114.384
-113.858
-113.341
-112.834
-112.332
-111.836
-111.343
-110.853
-110.364
-109.875
-109.385
-108.895
-108.402
-107.908
-107.411
-106.911
-106.408
-105.902
-105.391
-104.878
-104.36
-103.838
-103.311
-102.781
-102.246
-101.706
-101.161
-100.612
-100.058
-99.4997
-98.9361
-98.3675
-97.7941
-97.2156
-96.6321
-96.0436
-95.4501
-94.8514
-94.2477
-93.6388
-93.0248
-92.4056
-91.7812
-91.1516
-90.5167
-89.8765
-89.2311
-88.5803
-87.9242
-87.2627
-86.5958
-85.9235
-85.2457
-84.5625
-83.8737
-83.1794
-82.4796
-81.7741
-81.063
-80.3463
-79.6238
-78.8956
-78.1617
-77.422
-76.6764
-75.9249
-75.1676
-74.4042
-73.6349
-72.8595
-72.0781
-71.2905
-70.4967
-69.6968
-68.8905
-68.0779
-67.259
-66.4337
-65.6018
-64.7635
-63.9186
-63.0671
-62.2089
-61.3439
-60.4722
-59.5936
-58.708
-57.8154
-56.9157
-56.0089
-55.0947
-54.1733
-53.2443
-52.3078
-51.3635
-50.4116
-49.4518
-48.4848
-47.5104
-46.5313
-45.5478
-44.5676
-139.659
-139.655
-139.649
-139.639
-139.627
-139.611
-139.594
-139.573
-139.551
-139.527
-139.502
-139.477
-139.452
-139.429
-139.408
-139.391
-139.379
-139.374
-139.378
-139.391
-139.417
-139.457
-139.515
-139.593
-139.695
-139.825
-139.989
-140.192
-140.437
-140.729
-141.067
-141.449
-141.868
-142.314
-142.778
-143.249
-143.717
-144.17
-144.598
-144.983
-145.303
-145.533
-145.646
-145.617
-145.424
-145.054
-144.502
-143.78
-142.908
-141.915
-140.829
-139.683
-138.503
-137.316
-136.139
-134.987
-133.865
-132.773
-131.702
-130.64
-129.577
-128.505
-127.419
-126.322
-125.225
-124.148
-123.108
-122.119
-121.19
-120.321
-119.509
-118.751
-118.041
-117.372
-116.738
-116.132
-115.551
-114.991
-114.447
-113.917
-113.399
-112.889
-112.385
-111.887
-111.392
-110.899
-110.407
-109.916
-109.424
-108.931
-108.436
-107.939
-107.44
-106.938
-106.433
-105.925
-105.413
-104.897
-104.378
-103.855
-103.327
-102.795
-102.259
-101.718
-101.172
-100.622
-100.068
-99.5081
-98.9438
-98.3746
-97.8004
-97.2214
-96.6374
-96.0484
-95.4544
-94.8553
-94.2512
-93.642
-93.0276
-92.4082
-91.7835
-91.1536
-90.5185
-89.8782
-89.2326
-88.5816
-87.9254
-87.2637
-86.5967
-85.9243
-85.2464
-84.5631
-83.8743
-83.1799
-82.48
-81.7745
-81.0633
-80.3465
-79.6241
-78.8959
-78.1619
-77.4221
-76.6765
-75.9251
-75.1677
-74.4044
-73.635
-72.8596
-72.0782
-71.2906
-70.4968
-69.6968
-68.8906
-68.078
-67.2591
-66.4337
-65.6019
-64.7636
-63.9187
-63.0672
-62.2091
-61.3441
-60.4724
-59.5939
-58.7084
-57.8159
-56.9163
-56.0096
-55.0956
-54.1744
-53.2457
-52.3096
-51.3659
-50.4147
-49.456
-48.4903
-47.5178
-46.5406
-45.5596
-44.5797
-139.84
-139.836
-139.828
-139.817
-139.803
-139.785
-139.764
-139.741
-139.715
-139.688
-139.66
-139.631
-139.603
-139.577
-139.554
-139.536
-139.524
-139.52
-139.527
-139.545
-139.578
-139.627
-139.698
-139.793
-139.918
-140.079
-140.283
-140.535
-140.84
-141.198
-141.606
-142.056
-142.535
-143.033
-143.54
-144.055
-144.577
-145.103
-145.622
-146.116
-146.555
-146.903
-147.116
-147.151
-146.979
-146.588
-145.982
-145.17
-144.174
-143.032
-141.789
-140.49
-139.173
-137.868
-136.599
-135.381
-134.223
-133.129
-132.091
-131.084
-130.077
-129.045
-127.972
-126.858
-125.716
-124.571
-123.457
-122.401
-121.416
-120.505
-119.663
-118.884
-118.16
-117.479
-116.835
-116.221
-115.634
-115.067
-114.519
-113.985
-113.463
-112.95
-112.444
-111.944
-111.446
-110.951
-110.457
-109.962
-109.468
-108.972
-108.475
-107.975
-107.473
-106.969
-106.462
-105.951
-105.438
-104.92
-104.399
-103.874
-103.345
-102.811
-102.274
-101.732
-101.185
-100.634
-100.078
-99.5179
-98.9526
-98.3826
-97.8078
-97.2281
-96.6434
-96.0539
-95.4593
-94.8598
-94.2552
-93.6456
-93.0309
-92.4111
-91.7861
-91.156
-90.5206
-89.8801
-89.2342
-88.5831
-87.9267
-87.2649
-86.5978
-85.9252
-85.2472
-84.5638
-83.8749
-83.1805
-82.4805
-81.7749
-81.0637
-80.3469
-79.6244
-78.8961
-78.1621
-77.4224
-76.6767
-75.9253
-75.1679
-74.4045
-73.6352
-72.8598
-72.0783
-71.2907
-70.4969
-69.6969
-68.8907
-68.0781
-67.2592
-66.4338
-65.602
-64.7637
-63.9189
-63.0674
-62.2092
-61.3444
-60.4727
-59.5942
-58.7087
-57.8163
-56.9169
-56.0103
-55.0966
-54.1756
-53.2472
-52.3115
-51.3683
-50.4179
-49.4601
-48.4956
-47.5246
-46.5489
-45.5696
-44.5897
-140.056
-140.051
-140.043
-140.031
-140.015
-139.995
-139.971
-139.945
-139.916
-139.885
-139.853
-139.821
-139.79
-139.76
-139.734
-139.714
-139.701
-139.697
-139.704
-139.725
-139.762
-139.819
-139.9
-140.012
-140.162
-140.356
-140.601
-140.904
-141.264
-141.679
-142.138
-142.629
-143.139
-143.662
-144.204
-144.773
-145.385
-146.044
-146.744
-147.456
-148.137
-148.723
-149.14
-149.324
-149.23
-148.837
-148.145
-147.175
-145.97
-144.589
-143.099
-141.565
-140.035
-138.546
-137.122
-135.781
-134.534
-133.391
-132.349
-131.39
-130.473
-129.539
-128.544
-127.462
-126.299
-125.089
-123.886
-122.743
-121.685
-120.719
-119.841
-119.038
-118.296
-117.602
-116.947
-116.325
-115.729
-115.156
-114.601
-114.062
-113.535
-113.018
-112.509
-112.005
-111.506
-111.008
-110.512
-110.015
-109.517
-109.019
-108.518
-108.016
-107.511
-107.004
-106.494
-105.982
-105.465
-104.946
-104.423
-103.896
-103.365
-102.83
-102.291
-101.747
-101.2
-100.647
-100.09
-99.5288
-98.9626
-98.3917
-97.8161
-97.2356
-96.6503
-96.06
-95.4649
-94.8648
-94.2598
-93.6497
-93.0346
-92.4144
-91.7891
-91.1586
-90.523
-89.8822
-89.2361
-88.5848
-87.9282
-87.2662
-86.599
-85.9263
-85.2482
-84.5646
-83.8756
-83.1811
-82.481
-81.7754
-81.0642
-80.3473
-79.6247
-78.8964
-78.1624
-77.4226
-76.677
-75.9255
-75.168
-74.4047
-73.6353
-72.8599
-72.0784
-71.2908
-70.497
-69.697
-68.8908
-68.0782
-67.2593
-66.4339
-65.6021
-64.7639
-63.919
-63.0675
-62.2094
-61.3446
-60.473
-59.5945
-58.7091
-57.8168
-56.9175
-56.0111
-55.0975
-54.1768
-53.2487
-52.3134
-51.3708
-50.421
-49.4641
-48.5006
-47.5309
-46.5564
-45.578
-44.5979
-140.3
-140.296
-140.288
-140.275
-140.258
-140.236
-140.21
-140.181
-140.149
-140.114
-140.079
-140.042
-140.006
-139.973
-139.943
-139.92
-139.904
-139.898
-139.904
-139.924
-139.963
-140.026
-140.117
-140.245
-140.418
-140.643
-140.926
-141.27
-141.672
-142.124
-142.611
-143.121
-143.648
-144.2
-144.799
-145.477
-146.256
-147.144
-148.123
-149.15
-150.153
-151.045
-151.724
-152.096
-152.095
-151.693
-150.889
-149.716
-148.24
-146.549
-144.741
-142.907
-141.116
-139.407
-137.798
-136.3
-134.919
-133.668
-132.559
-131.59
-130.724
-129.892
-129.019
-128.038
-126.915
-125.671
-124.382
-123.137
-121.992
-120.962
-120.042
-119.21
-118.448
-117.74
-117.074
-116.442
-115.838
-115.256
-114.694
-114.148
-113.615
-113.093
-112.579
-112.072
-111.569
-111.069
-110.57
-110.071
-109.571
-109.07
-108.567
-108.061
-107.553
-107.043
-106.531
-106.015
-105.496
-104.974
-104.449
-103.92
-103.387
-102.851
-102.31
-101.765
-101.215
-100.662
-100.104
-99.541
-98.9737
-98.4018
-97.8252
-97.2439
-96.6578
-96.0668
-95.4711
-94.8704
-94.2648
-93.6542
-93.0386
-92.418
-91.7924
-91.1616
-90.5256
-89.8845
-89.2382
-88.5867
-87.9298
-87.2677
-86.6003
-85.9274
-85.2492
-84.5655
-83.8764
-83.1818
-82.4817
-81.776
-81.0646
-80.3477
-79.6251
-78.8968
-78.1627
-77.4229
-76.6772
-75.9257
-75.1682
-74.4048
-73.6355
-72.86
-72.0785
-71.2909
-70.4971
-69.6971
-68.8909
-68.0783
-67.2594
-66.434
-65.6023
-64.764
-63.9191
-63.0677
-62.2096
-61.3448
-60.4732
-59.5948
-58.7096
-57.8174
-56.9181
-56.0119
-55.0985
-54.178
-53.2503
-52.3153
-51.3732
-50.424
-49.4679
-48.5053
-47.5367
-46.563
-45.5852
-44.6048
-140.572
-140.568
-140.56
-140.547
-140.529
-140.506
-140.478
-140.446
-140.41
-140.372
-140.332
-140.291
-140.25
-140.211
-140.176
-140.147
-140.127
-140.117
-140.119
-140.138
-140.177
-140.242
-140.34
-140.481
-140.672
-140.921
-141.232
-141.605
-142.032
-142.502
-143.001
-143.522
-144.068
-144.664
-145.352
-146.18
-147.177
-148.347
-149.658
-151.042
-152.408
-153.646
-154.626
-155.216
-155.33
-154.928
-154.014
-152.624
-150.839
-148.78
-146.585
-144.388
-142.289
-140.337
-138.541
-136.896
-135.394
-134.032
-132.818
-131.771
-130.893
-130.117
-129.359
-128.5
-127.468
-126.242
-124.894
-123.553
-122.321
-121.226
-120.26
-119.398
-118.614
-117.891
-117.213
-116.571
-115.958
-115.368
-114.797
-114.244
-113.704
-113.176
-112.656
-112.144
-111.638
-111.134
-110.632
-110.131
-109.629
-109.125
-108.619
-108.11
-107.599
-107.086
-106.57
-106.051
-105.53
-105.006
-104.478
-103.947
-103.412
-102.873
-102.33
-101.784
-101.233
-100.678
-100.118
-99.5542
-98.9858
-98.4128
-97.8352
-97.2529
-96.666
-96.0743
-95.4778
-94.8764
-94.2702
-93.6591
-93.0431
-92.422
-91.7959
-91.1648
-90.5285
-89.8871
-89.2405
-88.5887
-87.9317
-87.2693
-86.6017
-85.9287
-85.2503
-84.5665
-83.8773
-83.1826
-82.4823
-81.7766
-81.0652
-80.3482
-79.6255
-78.8972
-78.1631
-77.4232
-76.6775
-75.9259
-75.1685
-74.405
-73.6356
-72.8602
-72.0787
-71.291
-70.4972
-69.6972
-68.891
-68.0784
-67.2595
-66.4341
-65.6024
-64.7641
-63.9193
-63.0679
-62.2098
-61.345
-60.4735
-59.5952
-58.71
-57.8179
-56.9188
-56.0127
-55.0995
-54.1792
-53.2518
-52.3172
-51.3756
-50.4269
-49.4715
-48.5096
-47.5418
-46.5688
-45.5914
-44.6105
-140.872
-140.867
-140.861
-140.848
-140.829
-140.804
-140.774
-140.738
-140.699
-140.656
-140.611
-140.564
-140.517
-140.471
-140.43
-140.394
-140.367
-140.35
-140.347
-140.36
-140.396
-140.46
-140.561
-140.709
-140.911
-141.174
-141.5
-141.886
-142.322
-142.797
-143.3
-143.83
-144.401
-145.051
-145.837
-146.822
-148.037
-149.484
-151.119
-152.86
-154.596
-156.198
-157.51
-158.367
-158.642
-158.28
-157.268
-155.656
-153.55
-151.101
-148.488
-145.886
-143.439
-141.217
-139.234
-137.46
-135.866
-134.426
-133.132
-132.006
-131.074
-130.3
-129.591
-128.83
-127.894
-126.724
-125.355
-123.949
-122.647
-121.494
-120.487
-119.597
-118.794
-118.055
-117.364
-116.711
-116.087
-115.487
-114.908
-114.347
-113.8
-113.265
-112.74
-112.223
-111.711
-111.203
-110.698
-110.193
-109.688
-109.182
-108.673
-108.162
-107.648
-107.131
-106.612
-106.091
-105.566
-105.039
-104.509
-103.975
-103.438
-102.897
-102.353
-101.804
-101.252
-100.695
-100.134
-99.5685
-98.9988
-98.4246
-97.8459
-97.2627
-96.6748
-96.0822
-95.485
-94.8829
-94.2761
-93.6644
-93.0478
-92.4263
-91.7997
-91.1682
-90.5316
-89.8898
-89.2429
-88.5909
-87.9336
-87.2711
-86.6032
-85.9301
-85.2515
-84.5676
-83.8782
-83.1834
-82.4831
-81.7772
-81.0658
-80.3487
-79.626
-78.8976
-78.1634
-77.4235
-76.6778
-75.9262
-75.1687
-74.4052
-73.6358
-72.8604
-72.0788
-71.2912
-70.4974
-69.6973
-68.8911
-68.0785
-67.2596
-66.4343
-65.6025
-64.7642
-63.9194
-63.068
-62.21
-61.3453
-60.4738
-59.5955
-58.7104
-57.8184
-56.9194
-56.0135
-55.1005
-54.1804
-53.2533
-52.3191
-51.3778
-50.4297
-49.4749
-48.5136
-47.5464
-46.5739
-45.5966
-44.6153
-141.204
-141.198
-141.192
-141.179
-141.159
-141.132
-141.099
-141.06
-141.015
-140.967
-140.915
-140.861
-140.806
-140.752
-140.702
-140.657
-140.62
-140.594
-140.583
-140.588
-140.616
-140.675
-140.773
-140.92
-141.123
-141.388
-141.716
-142.102
-142.536
-143.006
-143.507
-144.042
-144.635
-145.331
-146.194
-147.295
-148.67
-150.323
-152.202
-154.213
-156.231
-158.105
-159.667
-160.728
-161.123
-160.792
-159.715
-157.951
-155.624
-152.903
-149.988
-147.083
-144.364
-141.926
-139.794
-137.921
-136.255
-134.765
-133.436
-132.268
-131.286
-130.487
-129.789
-129.076
-128.202
-127.08
-125.718
-124.286
-122.942
-121.751
-120.716
-119.803
-118.982
-118.227
-117.524
-116.859
-116.224
-115.614
-115.026
-114.456
-113.902
-113.361
-112.83
-112.306
-111.789
-111.277
-110.767
-110.258
-109.75
-109.241
-108.729
-108.216
-107.699
-107.179
-106.657
-106.132
-105.605
-105.075
-104.542
-104.006
-103.466
-102.923
-102.376
-101.826
-101.271
-100.713
-100.15
-99.5837
-99.0126
-98.4372
-97.8574
-97.273
-96.6842
-96.0907
-95.4926
-94.8899
-94.2823
-93.67
-93.0528
-92.4308
-91.8038
-91.1718
-90.5348
-89.8927
-89.2455
-88.5932
-87.9357
-87.2729
-86.6049
-85.9315
-85.2528
-84.5687
-83.8793
-83.1843
-82.4839
-81.7779
-81.0664
-80.3493
-79.6265
-78.898
-78.1638
-77.4239
-76.6781
-75.9265
-75.1689
-74.4055
-73.636
-72.8605
-72.079
-71.2913
-70.4975
-69.6975
-68.8912
-68.0786
-67.2597
-66.4344
-65.6026
-64.7644
-63.9196
-63.0682
-62.2102
-61.3455
-60.4741
-59.5959
-58.7108
-57.8189
-56.9201
-56.0142
-55.1014
-54.1816
-53.2547
-52.3208
-51.38
-50.4323
-49.478
-48.5173
-47.5506
-46.5783
-45.6011
-44.6192
-141.579
-141.57
-141.561
-141.546
-141.524
-141.494
-141.456
-141.412
-141.361
-141.306
-141.245
-141.182
-141.117
-141.052
-140.99
-140.934
-140.885
-140.847
-140.823
-140.817
-140.835
-140.883
-140.971
-141.108
-141.302
-141.558
-141.875
-142.249
-142.67
-143.129
-143.622
-144.155
-144.755
-145.469
-146.361
-147.5
-148.929
-150.653
-152.622
-154.736
-156.862
-158.837
-160.486
-161.621
-162.079
-161.777
-160.69
-158.884
-156.489
-153.681
-150.666
-147.657
-144.844
-142.329
-140.145
-138.242
-136.544
-135.018
-133.667
-132.494
-131.502
-130.692
-129.998
-129.299
-128.442
-127.332
-125.974
-124.54
-123.188
-121.985
-120.937
-120.011
-119.175
-118.406
-117.688
-117.011
-116.366
-115.747
-115.149
-114.57
-114.008
-113.461
-112.924
-112.395
-111.872
-111.354
-110.84
-110.327
-109.814
-109.301
-108.787
-108.271
-107.751
-107.229
-106.704
-106.176
-105.646
-105.112
-104.576
-104.038
-103.496
-102.95
-102.401
-101.849
-101.293
-100.732
-100.168
-99.5998
-99.0273
-98.4505
-97.8694
-97.284
-96.6941
-96.0997
-95.5007
-94.8971
-94.2889
-93.6759
-93.0581
-92.4355
-91.8081
-91.1756
-90.5382
-89.8958
-89.2483
-88.5956
-87.9378
-87.2748
-86.6066
-85.933
-85.2542
-84.57
-83.8803
-83.1853
-82.4847
-81.7787
-81.0671
-80.3499
-79.627
-78.8985
-78.1643
-77.4243
-76.6784
-75.9268
-75.1692
-74.4057
-73.6362
-72.8607
-72.0792
-71.2915
-70.4976
-69.6976
-68.8913
-68.0787
-67.2598
-66.4345
-65.6027
-64.7645
-63.9197
-63.0684
-62.2104
-61.3458
-60.4744
-59.5962
-58.7113
-57.8194
-56.9207
-56.015
-55.1023
-54.1827
-53.2561
-52.3225
-51.382
-50.4347
-49.4808
-48.5205
-47.5542
-46.5822
-45.6049
-44.6226
-142.008
-141.992
-141.974
-141.954
-141.929
-141.894
-141.851
-141.8
-141.741
-141.675
-141.603
-141.528
-141.45
-141.372
-141.295
-141.224
-141.16
-141.107
-141.068
-141.047
-141.049
-141.08
-141.151
-141.269
-141.444
-141.679
-141.976
-142.329
-142.731
-143.172
-143.648
-144.167
-144.752
-145.446
-146.306
-147.393
-148.751
-150.391
-152.272
-154.297
-156.336
-158.23
-159.809
-160.898
-161.356
-161.095
-160.071
-158.342
-156.043
-153.346
-150.446
-147.547
-144.825
-142.38
-140.243
-138.378
-136.713
-135.201
-133.849
-132.68
-131.708
-130.916
-130.235
-129.532
-128.65
-127.506
-126.135
-124.709
-123.374
-122.185
-121.14
-120.209
-119.363
-118.583
-117.854
-117.166
-116.511
-115.883
-115.276
-114.689
-114.119
-113.564
-113.021
-112.486
-111.958
-111.435
-110.915
-110.398
-109.881
-109.364
-108.846
-108.326
-107.804
-107.279
-106.752
-106.221
-105.688
-105.152
-104.613
-104.071
-103.527
-102.979
-102.428
-101.873
-101.315
-100.753
-100.187
-99.6166
-99.0426
-98.4645
-97.8821
-97.2954
-96.7044
-96.109
-95.5092
-94.9048
-94.2957
-93.6821
-93.0637
-92.4405
-91.8125
-91.1796
-90.5418
-89.899
-89.2511
-88.5982
-87.9401
-87.2768
-86.6084
-85.9346
-85.2556
-84.5712
-83.8815
-83.1863
-82.4856
-81.7795
-81.0678
-80.3505
-79.6276
-78.899
-78.1647
-77.4247
-76.6788
-75.9271
-75.1695
-74.406
-73.6364
-72.8609
-72.0793
-71.2916
-70.4978
-69.6977
-68.8914
-68.0788
-67.2599
-66.4346
-65.6028
-64.7646
-63.9199
-63.0685
-62.2106
-61.346
-60.4746
-59.5966
-58.7116
-57.8199
-56.9213
-56.0157
-55.1032
-54.1838
-53.2574
-52.3241
-51.3839
-50.4369
-49.4834
-48.5235
-47.5574
-46.5855
-45.6081
-44.6253
-142.5
-142.478
-142.45
-142.423
-142.393
-142.354
-142.304
-142.243
-142.171
-142.091
-142.004
-141.912
-141.817
-141.721
-141.626
-141.536
-141.453
-141.38
-141.322
-141.282
-141.264
-141.274
-141.32
-141.411
-141.556
-141.76
-142.025
-142.349
-142.723
-143.138
-143.59
-144.082
-144.63
-145.266
-146.034
-146.984
-148.153
-149.559
-151.172
-152.916
-154.676
-156.311
-157.672
-158.612
-159.01
-158.787
-157.903
-156.385
-154.349
-151.956
-149.38
-146.795
-144.346