/*--------------------------------*- C++ -*----------------------------------*\
  =========                 |
  \\      /  F ield         | OpenFOAM: The Open Source CFD Toolbox
   \\    /   O peration     | Website:  https://openfoam.org
    \\  /    A nd           | Version:  7
     \\/     M anipulation  |
\*---------------------------------------------------------------------------*/
FoamFile
{
    version     2.0;
    format      ascii;
    class       surfaceScalarField;
    location    "0.029";
    object      phi_0;
}
// * * * * * * * * * * * * * * * * * * * * * * * * * * * * * * * * * * * * * //

dimensions      [0 3 -1 0 0 0 0];

internalField   nonuniform List<scalar> 
24170
(
1.43028e-06
2.31528e-07
1.27351e-06
1.56763e-07
1.12461e-06
1.48906e-07
9.97118e-07
1.2749e-07
8.85634e-07
1.11484e-07
7.85624e-07
1.0001e-07
6.96232e-07
8.93924e-08
6.14547e-07
8.16848e-08
5.37902e-07
7.66452e-08
4.67553e-07
7.03484e-08
4.06777e-07
6.07767e-08
3.57947e-07
4.88299e-08
3.20241e-07
3.77055e-08
2.90754e-07
2.94878e-08
2.65648e-07
2.51059e-08
2.43403e-07
2.22449e-08
2.20303e-07
2.31001e-08
2.01715e-08
2.00131e-07
1.6872e-06
3.30623e-07
1.65707e-06
1.86893e-07
1.62964e-06
1.76337e-07
1.59568e-06
1.61454e-07
1.55473e-06
1.52435e-07
1.50976e-06
1.44975e-07
1.46365e-06
1.35499e-07
1.41616e-06
1.29174e-07
1.36689e-06
1.25922e-07
1.31773e-06
1.19509e-07
1.27141e-06
1.07096e-07
1.22885e-06
9.13933e-08
1.18889e-06
7.76561e-08
1.1495e-06
6.88849e-08
1.10949e-06
6.51107e-08
1.06995e-06
6.1787e-08
1.03007e-06
6.29853e-08
5.9835e-08
9.90402e-07
1.8095e-06
3.67777e-07
1.78271e-06
2.13685e-07
1.77548e-06
1.83568e-07
1.76599e-06
1.70942e-07
1.7536e-06
1.64825e-07
1.73956e-06
1.59014e-07
1.72382e-06
1.51236e-07
1.7066e-06
1.46395e-07
1.68861e-06
1.43913e-07
1.6712e-06
1.36921e-07
1.65577e-06
1.2252e-07
1.64262e-06
1.0455e-07
1.63067e-06
8.96007e-08
1.61871e-06
8.08453e-08
1.60507e-06
7.87492e-08
1.58854e-06
7.83197e-08
1.56998e-06
8.15463e-08
8.37157e-08
1.5461e-06
1.95059e-06
3.70845e-07
1.93623e-06
2.2804e-07
1.91986e-06
1.99942e-07
1.89738e-06
1.93424e-07
1.87647e-06
1.85729e-07
1.86138e-06
1.74106e-07
1.85171e-06
1.60904e-07
1.84602e-06
1.5209e-07
1.8425e-06
1.47435e-07
1.83966e-06
1.39759e-07
1.83679e-06
1.25386e-07
1.83412e-06
1.07224e-07
1.83223e-06
9.14861e-08
1.83151e-06
8.15663e-08
1.83153e-06
7.87332e-08
1.83041e-06
7.94345e-08
1.82772e-06
8.42344e-08
8.99522e-08
1.82149e-06
2.09401e-06
3.78386e-07
2.07327e-06
2.48778e-07
2.0505e-06
2.22713e-07
2.03103e-06
2.12892e-07
2.02057e-06
1.96188e-07
2.01575e-06
1.78928e-07
2.01183e-06
1.64819e-07
2.00763e-06
1.56298e-07
2.00364e-06
1.51425e-07
1.9997e-06
1.43691e-07
1.99526e-06
1.29833e-07
1.99029e-06
1.12186e-07
1.98571e-06
9.60652e-08
1.98244e-06
8.48386e-08
1.98124e-06
7.99322e-08
1.98106e-06
7.96166e-08
1.9818e-06
8.34988e-08
8.97992e-08
1.98195e-06
2.2328e-06
4.69667e-07
2.21025e-06
2.71333e-07
2.19012e-06
2.42839e-07
2.17212e-06
2.30891e-07
2.16397e-06
2.04344e-07
2.16332e-06
1.79574e-07
2.16483e-06
1.63313e-07
2.16768e-06
1.53449e-07
2.17256e-06
1.4654e-07
2.17722e-06
1.39037e-07
2.1776e-06
1.29451e-07
2.17123e-06
1.18555e-07
2.15919e-06
1.08105e-07
2.14497e-06
9.90557e-08
2.13264e-06
9.22613e-08
2.12411e-06
8.8148e-08
2.12025e-06
8.73644e-08
9.04827e-08
2.11956e-06
2.37404e-06
4.28769e-07
2.36407e-06
2.81303e-07
2.35468e-06
2.52228e-07
2.34452e-06
2.41059e-07
2.33466e-06
2.14195e-07
2.32882e-06
1.85417e-07
2.32735e-06
1.64782e-07
2.32809e-06
1.5271e-07
2.32833e-06
1.46305e-07
2.32576e-06
1.41602e-07
2.31957e-06
1.35639e-07
2.31071e-06
1.27421e-07
2.3013e-06
1.17513e-07
2.29338e-06
1.06979e-07
2.28801e-06
9.7625e-08
2.28507e-06
9.10924e-08
2.28389e-06
8.85392e-08
9.06473e-08
2.28373e-06
2.60979e-06
4.60765e-07
2.57077e-06
3.20329e-07
2.54439e-06
2.78602e-07
2.52712e-06
2.58331e-07
2.51211e-06
2.29202e-07
2.50333e-06
1.94199e-07
2.50234e-06
1.6577e-07
2.50454e-06
1.50517e-07
2.50459e-06
1.46251e-07
2.50058e-06
1.45607e-07
2.49396e-06
1.42263e-07
2.48733e-06
1.34048e-07
2.48249e-06
1.22352e-07
2.47988e-06
1.09597e-07
2.47905e-06
9.8449e-08
2.47928e-06
9.08633e-08
2.48009e-06
8.77275e-08
8.97197e-08
2.48102e-06
2.77769e-06
5.36803e-07
2.75186e-06
3.46153e-07
2.74284e-06
2.87624e-07
2.73339e-06
2.67777e-07
2.72313e-06
2.39468e-07
2.71194e-06
2.05386e-07
2.69976e-06
1.77953e-07
2.68875e-06
1.61521e-07
2.6813e-06
1.53702e-07
2.67765e-06
1.49263e-07
2.6761e-06
1.43811e-07
2.67467e-06
1.35479e-07
2.67228e-06
1.24741e-07
2.66888e-06
1.13001e-07
2.66533e-06
1.01995e-07
2.66246e-06
9.37344e-08
2.6611e-06
8.90816e-08
8.93604e-08
2.66146e-06
3.03358e-06
5.25922e-07
2.96554e-06
4.14188e-07
2.9256e-06
3.27562e-07
2.91734e-06
2.76042e-07
2.91651e-06
2.40293e-07
2.91096e-06
2.10943e-07
2.89994e-06
1.88974e-07
2.88793e-06
1.73523e-07
2.87962e-06
1.62014e-07
2.87696e-06
1.51918e-07
2.87906e-06
1.4172e-07
2.88337e-06
1.31166e-07
2.88732e-06
1.20792e-07
2.88914e-06
1.11173e-07
2.88839e-06
1.02754e-07
2.88572e-06
9.64037e-08
2.88241e-06
9.23931e-08
9.1803e-08
2.87996e-06
3.1966e-06
5.18853e-07
3.17117e-06
4.39621e-07
3.15234e-06
3.46393e-07
3.13857e-06
2.89805e-07
3.13283e-06
2.46036e-07
3.13417e-06
2.09601e-07
3.13799e-06
1.85163e-07
3.13986e-06
1.71646e-07
3.13786e-06
1.64016e-07
3.13269e-06
1.57094e-07
3.1265e-06
1.47906e-07
3.12121e-06
1.36452e-07
3.11765e-06
1.24355e-07
3.11553e-06
1.13293e-07
3.1141e-06
1.04184e-07
3.1127e-06
9.78002e-08
3.11105e-06
9.40491e-08
9.33737e-08
3.10948e-06
2.87631e-06
5.43769e-07
2.85642e-06
4.5951e-07
2.83826e-06
3.64556e-07
2.83196e-06
2.96104e-07
2.83236e-06
2.45635e-07
2.83204e-06
2.09918e-07
2.82862e-06
1.88584e-07
2.82356e-06
1.76704e-07
2.81948e-06
1.68097e-07
2.81797e-06
1.58603e-07
2.81878e-06
1.47103e-07
2.82031e-06
1.34916e-07
2.82092e-06
1.23743e-07
2.8197e-06
1.14512e-07
2.81688e-06
1.07012e-07
2.81338e-06
1.01292e-07
2.81047e-06
9.69632e-08
9.47988e-08
2.80904e-06
3.55114e-06
4.94163e-07
3.52472e-06
4.85923e-07
3.49651e-06
3.92769e-07
3.48408e-06
3.08533e-07
3.48606e-06
2.43663e-07
3.49019e-06
2.05784e-07
3.4869e-06
1.91872e-07
3.4766e-06
1.87001e-07
3.46609e-06
1.78616e-07
3.46109e-06
1.63603e-07
3.46262e-06
1.45569e-07
3.46787e-06
1.2967e-07
3.47307e-06
1.18543e-07
3.47562e-06
1.11957e-07
3.47478e-06
1.07849e-07
3.47139e-06
1.04682e-07
3.46655e-06
1.01812e-07
9.92892e-08
3.46206e-06
4.30291e-06
6.15897e-07
4.27685e-06
5.11986e-07
4.2458e-06
4.2381e-07
4.22946e-06
3.24875e-07
4.23952e-06
2.33602e-07
4.26154e-06
1.83767e-07
4.27629e-06
1.77124e-07
4.27525e-06
1.88042e-07
4.26318e-06
1.90679e-07
4.25041e-06
1.76376e-07
4.24429e-06
1.51691e-07
4.24646e-06
1.275e-07
4.25452e-06
1.10484e-07
4.26457e-06
1.01907e-07
4.27296e-06
9.94527e-08
4.27747e-06
1.00172e-07
4.27741e-06
1.01871e-07
1.03151e-07
4.27355e-06
5.20365e-06
5.90218e-07
5.22266e-06
4.92976e-07
5.25462e-06
3.91855e-07
5.25639e-06
3.23103e-07
5.23344e-06
2.56549e-07
5.20854e-06
2.08674e-07
5.19814e-06
1.87516e-07
5.20406e-06
1.82125e-07
5.2181e-06
1.76636e-07
5.22995e-06
1.64525e-07
5.23305e-06
1.48598e-07
5.22698e-06
1.33567e-07
5.21584e-06
1.21622e-07
5.20491e-06
1.12837e-07
5.1979e-06
1.06467e-07
5.19607e-06
1.02006e-07
5.19921e-06
9.87237e-08
9.65902e-08
5.20577e-06
6.38341e-06
5.45354e-07
6.41988e-06
4.56512e-07
6.40194e-06
4.09793e-07
6.3511e-06
3.73938e-07
6.29673e-06
3.10926e-07
6.2689e-06
2.36505e-07
6.27499e-06
1.8142e-07
6.30124e-06
1.55872e-07
6.32735e-06
1.50531e-07
6.34088e-06
1.50992e-07
6.34164e-06
1.47836e-07
6.33686e-06
1.38354e-07
6.33432e-06
1.24154e-07
6.33844e-06
1.08723e-07
6.34937e-06
9.55385e-08
6.36487e-06
8.64973e-08
6.38193e-06
8.167e-08
8.04679e-08
6.39805e-06
7.77258e-06
7.12386e-07
7.72347e-06
5.05624e-07
7.73409e-06
3.99174e-07
7.74828e-06
3.59745e-07
7.75425e-06
3.04951e-07
7.75556e-06
2.35199e-07
7.75745e-06
1.79535e-07
7.7578e-06
1.55517e-07
7.7526e-06
1.55731e-07
7.74296e-06
1.60632e-07
7.73435e-06
1.56444e-07
7.73228e-06
1.40422e-07
7.73935e-06
1.17091e-07
7.75476e-06
9.3313e-08
7.77574e-06
7.45602e-08
7.79901e-06
6.3219e-08
7.82189e-06
5.87955e-08
5.9693e-08
7.84266e-06
9.33072e-06
6.00189e-07
9.39675e-06
4.39596e-07
9.44217e-06
3.5375e-07
9.48519e-06
3.16724e-07
9.51308e-06
2.77058e-07
9.51646e-06
2.3182e-07
9.50003e-06
1.95963e-07
9.48137e-06
1.74185e-07
9.47534e-06
1.61757e-07
9.48402e-06
1.51948e-07
9.50043e-06
1.4004e-07
9.51618e-06
1.2467e-07
9.52648e-06
1.06795e-07
9.53117e-06
8.8617e-08
9.53311e-06
7.26221e-08
9.53565e-06
6.06753e-08
9.54121e-06
5.32368e-08
5.05809e-08
9.55032e-06
1.13259e-05
5.15005e-07
1.1371e-05
3.94542e-07
1.14498e-05
2.7492e-07
1.15449e-05
2.21635e-07
1.16126e-05
2.09407e-07
1.16285e-05
2.15831e-07
1.1605e-05
2.19497e-07
1.15721e-05
2.07058e-07
1.15537e-05
1.80202e-07
1.15582e-05
1.47456e-07
1.15827e-05
1.15569e-07
1.1619e-05
8.83732e-08
1.16587e-05
6.70935e-08
1.16956e-05
5.17092e-08
1.17264e-05
4.18247e-08
1.17504e-05
3.66772e-08
1.17685e-05
3.51395e-08
3.61443e-08
1.17829e-05
8.30428e-06
4.92009e-07
8.3365e-06
3.6233e-07
8.36621e-06
2.45208e-07
8.39839e-06
1.89454e-07
8.43384e-06
1.7395e-07
8.47009e-06
1.79582e-07
8.50424e-06
1.8535e-07
8.53362e-06
1.77673e-07
8.55801e-06
1.55813e-07
8.57872e-06
1.26753e-07
8.59695e-06
9.73401e-08
8.61267e-06
7.26504e-08
8.62505e-06
5.47123e-08
8.63341e-06
4.33454e-08
8.63821e-06
3.70327e-08
8.6408e-06
3.40823e-08
8.64312e-06
3.28198e-08
3.24096e-08
8.64685e-06
7.1548e-06
4.93648e-07
7.23235e-06
2.8478e-07
7.2649e-06
2.12657e-07
7.29161e-06
1.62753e-07
7.33791e-06
1.27651e-07
7.39922e-06
1.1827e-07
7.46294e-06
1.21627e-07
7.5192e-06
1.2141e-07
7.56304e-06
1.11977e-07
7.59239e-06
9.74028e-08
7.60642e-06
8.33073e-08
7.60706e-06
7.20163e-08
7.59898e-06
6.27906e-08
7.58832e-06
5.40025e-08
7.58059e-06
4.47647e-08
7.57907e-06
3.56023e-08
7.58478e-06
2.71107e-08
2.07441e-08
7.59644e-06
6.38839e-06
2.87363e-07
6.41131e-06
2.61855e-07
6.38636e-06
2.3761e-07
6.38469e-06
1.64424e-07
6.41007e-06
1.02274e-07
6.45247e-06
7.58657e-08
6.49689e-06
7.72069e-08
6.5314e-06
8.68967e-08
6.55277e-06
9.06129e-08
6.56545e-06
8.47175e-08
6.57659e-06
7.21715e-08
6.59164e-06
5.69619e-08
6.61279e-06
4.16407e-08
6.63946e-06
2.73354e-08
6.66941e-06
1.48158e-08
6.70041e-06
4.59737e-09
6.73027e-06
-2.74932e-09
-6.70506e-09
6.75772e-06
5.56822e-06
2.32649e-07
5.59298e-06
2.37094e-07
5.60357e-06
2.27021e-07
5.60572e-06
1.62274e-07
5.60904e-06
9.89492e-08
5.62524e-06
5.96671e-08
5.65532e-06
4.71307e-08
5.69134e-06
5.08705e-08
5.72575e-06
5.62087e-08
5.75545e-06
5.50114e-08
5.78095e-06
4.66773e-08
5.80372e-06
3.41886e-08
5.82484e-06
2.05227e-08
5.84439e-06
7.78519e-09
5.86299e-06
-3.78272e-09
5.88055e-06
-1.29614e-08
5.8974e-06
-1.96003e-08
-2.33476e-08
5.91404e-06
4.87429e-06
3.16001e-07
4.86796e-06
2.43422e-07
4.89743e-06
1.97555e-07
4.93023e-06
1.29475e-07
4.96501e-06
6.41625e-08
5.00251e-06
2.21731e-08
5.04104e-06
8.595e-09
5.07757e-06
1.43466e-08
5.10881e-06
2.49601e-08
5.13233e-06
3.14976e-08
5.14744e-06
3.15633e-08
5.15553e-06
2.60983e-08
5.159e-06
1.70562e-08
5.16073e-06
6.05203e-09
5.16144e-06
-4.48912e-09
5.16236e-06
-1.38817e-08
5.16426e-06
-2.14967e-08
-2.67767e-08
5.16768e-06
4.18986e-06
2.80516e-07
4.24443e-06
1.88851e-07
4.28932e-06
1.52663e-07
4.32684e-06
9.19518e-08
4.3624e-06
2.86008e-08
4.39205e-06
-7.47009e-09
4.41507e-06
-1.44285e-08
4.4331e-06
-3.68469e-09
4.45106e-06
7.00252e-09
4.46997e-06
1.25848e-08
4.48998e-06
1.15545e-08
4.51036e-06
5.72006e-09
4.53036e-06
-2.94109e-09
4.54889e-06
-1.24787e-08
4.56523e-06
-2.08341e-08
4.57841e-06
-2.7064e-08
4.58772e-06
-3.08012e-08
-3.22154e-08
4.59316e-06
3.67927e-06
2.82577e-07
3.75217e-06
1.15947e-07
3.81361e-06
9.12242e-08
3.85182e-06
5.37473e-08
3.86877e-06
1.1654e-08
3.87134e-06
-1.00419e-08
3.8717e-06
-1.47915e-08
3.88117e-06
-1.31556e-08
3.90068e-06
-1.25063e-08
3.92735e-06
-1.40868e-08
3.9558e-06
-1.68941e-08
3.98176e-06
-2.02402e-08
4.00287e-06
-2.4047e-08
4.0187e-06
-2.83163e-08
4.0301e-06
-3.22348e-08
4.03821e-06
-3.51663e-08
4.04402e-06
-3.66159e-08
-3.63263e-08
4.04813e-06
3.23628e-06
1.47446e-07
3.29859e-06
5.36443e-08
3.34317e-06
4.66347e-08
3.37441e-06
2.25114e-08
3.39023e-06
-4.16883e-09
3.40064e-06
-2.0448e-08
3.4129e-06
-2.70567e-08
3.43074e-06
-3.09918e-08
3.45151e-06
-3.32746e-08
3.47073e-06
-3.33083e-08
3.48546e-06
-3.16236e-08
3.49511e-06
-2.98887e-08
3.50091e-06
-2.98461e-08
3.5049e-06
-3.23124e-08
3.50914e-06
-3.6469e-08
3.51484e-06
-4.08683e-08
3.52245e-06
-4.42271e-08
-4.54704e-08
3.5316e-06
2.83509e-06
1.21169e-07
2.87716e-06
1.15713e-08
2.90823e-06
1.55729e-08
2.94452e-06
-1.3785e-08
2.97904e-06
-3.86865e-08
3.00446e-06
-4.58711e-08
3.02016e-06
-4.275e-08
3.02835e-06
-3.91872e-08
3.03364e-06
-3.85609e-08
3.04065e-06
-4.03169e-08
3.05175e-06
-4.27263e-08
3.06635e-06
-4.44873e-08
3.08183e-06
-4.53316e-08
3.09537e-06
-4.58453e-08
3.10535e-06
-4.64568e-08
3.11176e-06
-4.72724e-08
3.11566e-06
-4.8125e-08
-4.84232e-08
3.11861e-06
2.51019e-06
-5.30855e-09
2.54679e-06
-2.50292e-08
2.57631e-06
-1.39455e-08
2.60781e-06
-4.52796e-08
2.63226e-06
-6.31423e-08
2.64743e-06
-6.10367e-08
2.65511e-06
-5.04341e-08
2.65783e-06
-4.1906e-08
2.65827e-06
-3.90039e-08
2.65826e-06
-4.03063e-08
2.65826e-06
-4.27256e-08
2.65765e-06
-4.38804e-08
2.65544e-06
-4.31188e-08
2.65081e-06
-4.12142e-08
2.64357e-06
-3.92124e-08
2.63402e-06
-3.77234e-08
2.62273e-06
-3.68353e-08
-3.63186e-08
2.61062e-06
2.1388e-06
2.11377e-06
2.09982e-06
2.05454e-06
1.9914e-06
1.93036e-06
1.87993e-06
1.83802e-06
1.79902e-06
1.75871e-06
1.71599e-06
1.67211e-06
1.62899e-06
1.58777e-06
1.54856e-06
1.51084e-06
1.474e-06
1.43768e-06
5.21709e-08
-5.21709e-08
1.16844e-07
-6.46726e-08
1.8067e-07
-6.3826e-08
2.41788e-07
-6.11184e-08
3.00019e-07
-5.82307e-08
3.55433e-07
-5.54149e-08
4.07965e-07
-5.25312e-08
4.57341e-07
-4.93761e-08
5.03033e-07
-4.56923e-08
5.44266e-07
-4.12333e-08
5.80004e-07
-3.57374e-08
6.08956e-07
-2.89525e-08
6.29867e-07
-2.09105e-08
6.41349e-07
-1.14825e-08
6.42225e-07
-8.75721e-10
6.29787e-07
1.24373e-08
6.02548e-07
2.72398e-08
5.58256e-07
4.42912e-08
4.94112e-07
6.4144e-08
4.07171e-07
8.69414e-08
2.95078e-07
1.12093e-07
1.5676e-07
1.38319e-07
-7.25546e-09
1.64015e-07
-1.94946e-07
1.87691e-07
-4.02927e-07
2.07981e-07
-6.28178e-07
2.2525e-07
-8.67863e-07
2.39685e-07
-1.11913e-06
2.51269e-07
-1.37897e-06
2.59838e-07
-1.64419e-06
2.65222e-07
-1.91152e-06
2.67327e-07
-2.17767e-06
2.66154e-07
-2.43946e-06
2.61786e-07
-2.69382e-06
2.54363e-07
-2.93792e-06
2.44095e-07
-3.16916e-06
2.31246e-07
-3.38525e-06
2.16082e-07
-3.58406e-06
1.98812e-07
-3.76368e-06
1.79617e-07
-3.9224e-06
1.58723e-07
-4.05876e-06
1.36362e-07
-4.17151e-06
1.12751e-07
-4.25967e-06
8.8158e-08
-4.32265e-06
6.29855e-08
-4.3604e-06
3.7749e-08
-4.37328e-06
1.28769e-08
-4.36252e-06
-1.07602e-08
-4.32901e-06
-3.35081e-08
-4.2744e-06
-5.46108e-08
-4.20029e-06
-7.41102e-08
-4.10834e-06
-9.19473e-08
-4.00029e-06
-1.0805e-07
-3.87784e-06
-1.22454e-07
-3.74264e-06
-1.35201e-07
-3.59621e-06
-1.4643e-07
-3.43993e-06
-1.5628e-07
-3.275e-06
-1.64928e-07
-3.10248e-06
-1.72517e-07
-2.92332e-06
-1.79162e-07
-2.73841e-06
-1.84916e-07
-2.54864e-06
-1.89768e-07
-2.35499e-06
-1.93654e-07
-2.15851e-06
-1.96472e-07
-1.9604e-06
-1.9811e-07
-1.76194e-06
-1.98467e-07
-1.56446e-06
-1.9748e-07
-1.36931e-06
-1.95143e-07
-1.1778e-06
-1.91512e-07
-9.91099e-07
-1.86703e-07
-8.1023e-07
-1.80869e-07
-6.3605e-07
-1.7418e-07
-4.69185e-07
-1.66865e-07
-3.10124e-07
-1.59061e-07
-1.59168e-07
-1.50957e-07
-1.65894e-08
-1.42578e-07
1.18329e-07
-1.34918e-07
2.45164e-07
-1.26835e-07
3.6417e-07
-1.19006e-07
4.7562e-07
-1.1145e-07
5.79818e-07
-1.04199e-07
6.77092e-07
-9.7274e-08
7.67779e-07
-9.06867e-08
8.52217e-07
-8.4438e-08
9.30739e-07
-7.85224e-08
1.00367e-06
-7.29295e-08
1.07131e-06
-6.76455e-08
1.13397e-06
-6.26546e-08
1.19191e-06
-5.79399e-08
1.24539e-06
-5.3484e-08
1.29466e-06
-4.92701e-08
1.33994e-06
-4.5282e-08
1.38145e-06
-4.15054e-08
1.41938e-06
-3.79276e-08
1.45392e-06
-3.45381e-08
1.48524e-06
-3.13286e-08
1.51354e-06
-2.82929e-08
1.53896e-06
-2.54262e-08
1.56169e-06
-2.27253e-08
1.58188e-06
-2.0188e-08
1.59969e-06
-1.7812e-08
1.61528e-06
-1.55957e-08
1.62882e-06
-1.35368e-08
1.64045e-06
-1.16323e-08
1.65033e-06
-9.87917e-09
1.65861e-06
-8.27252e-09
1.66541e-06
-6.80719e-09
1.67089e-06
-5.47774e-09
1.67516e-06
-4.27398e-09
1.67836e-06
-3.19398e-09
1.68059e-06
-2.22738e-09
1.68195e-06
-1.36333e-09
1.68255e-06
-6.01433e-10
1.68246e-06
8.8414e-11
1.68173e-06
7.35848e-10
1.68042e-06
1.30342e-09
1.67863e-06
1.79037e-09
1.67642e-06
2.20751e-09
1.67386e-06
2.56542e-09
1.67099e-06
2.86933e-09
1.66786e-06
3.12695e-09
1.66451e-06
3.34908e-09
1.66097e-06
3.53937e-09
1.65728e-06
3.69589e-09
1.65345e-06
3.82597e-09
1.64951e-06
3.94132e-09
1.64547e-06
4.04352e-09
1.64134e-06
4.13247e-09
1.63713e-06
4.20966e-09
1.63285e-06
4.27728e-09
1.62851e-06
4.33553e-09
1.62413e-06
4.38393e-09
1.61971e-06
4.42138e-09
1.61526e-06
4.44592e-09
1.61081e-06
4.45638e-09
1.60635e-06
4.45401e-09
1.60191e-06
4.44243e-09
1.59748e-06
4.4264e-09
1.59307e-06
4.41072e-09
1.58867e-06
4.39858e-09
1.58428e-06
4.3916e-09
1.57989e-06
4.39e-09
1.5755e-06
4.39324e-09
1.5711e-06
4.40055e-09
1.56669e-06
4.41113e-09
1.56226e-06
4.42443e-09
1.55782e-06
4.44007e-09
1.55336e-06
4.45794e-09
1.54889e-06
4.47804e-09
1.54439e-06
4.50052e-09
1.53986e-06
4.52557e-09
1.53531e-06
4.55336e-09
1.53072e-06
4.58429e-09
1.5261e-06
4.61872e-09
1.52145e-06
4.65727e-09
1.51675e-06
4.70061e-09
1.512e-06
4.7498e-09
1.50719e-06
4.80597e-09
1.50232e-06
4.8707e-09
1.49737e-06
4.94605e-09
1.49234e-06
5.03418e-09
1.4872e-06
5.13946e-09
1.48194e-06
5.26379e-09
1.47652e-06
5.41764e-09
1.47092e-06
5.59879e-09
1.46508e-06
5.83526e-09
1.45898e-06
6.10573e-09
1.45249e-06
6.48984e-09
1.44559e-06
6.89554e-09
1.43803e-06
7.56398e-09
1.42987e-06
8.16363e-09
1.42044e-06
9.42832e-09
1.41017e-06
1.02629e-08
1.39727e-06
1.29002e-08
1.38341e-06
1.38665e-08
1.36344e-06
1.99672e-08
1.34305e-06
2.03942e-08
1.30693e-06
3.61171e-08
1.27295e-06
3.39793e-08
1.19079e-06
8.21587e-08
7.69705e-08
1.11382e-06
2.07175e-08
-7.28884e-08
3.51081e-08
-7.90632e-08
4.65945e-08
-7.53124e-08
5.56431e-08
-7.0167e-08
6.20716e-08
-6.46592e-08
6.52815e-08
-5.86248e-08
6.46334e-08
-5.18831e-08
5.9327e-08
-4.40696e-08
4.84463e-08
-3.48116e-08
3.07969e-08
-2.35839e-08
4.91225e-09
-9.85277e-09
-3.03939e-08
6.35363e-09
-7.6379e-08
2.50747e-08
-1.34967e-07
4.71059e-08
-2.08353e-07
7.25096e-08
-2.9723e-07
1.01315e-07
-4.03332e-07
1.33341e-07
-5.27125e-07
1.68085e-07
-6.67734e-07
2.04753e-07
-8.23084e-07
2.42291e-07
-9.90578e-07
2.79587e-07
-1.1683e-06
3.16039e-07
-1.35407e-06
3.49784e-07
-1.54579e-06
3.79412e-07
-1.74249e-06
4.04683e-07
-1.94269e-06
4.25451e-07
-2.14468e-06
4.41673e-07
-2.34673e-06
4.5332e-07
-2.54727e-06
4.60381e-07
-2.74493e-06
4.62882e-07
-2.93851e-06
4.60904e-07
-3.12693e-06
4.54572e-07
-3.30918e-06
4.44034e-07
-3.48425e-06
4.29434e-07
-3.65104e-06
4.10884e-07
-3.80821e-06
3.88416e-07
-3.95462e-06
3.62494e-07
-4.0891e-06
3.33298e-07
-4.21028e-06
3.00792e-07
-4.31669e-06
2.65132e-07
-4.4069e-06
2.26577e-07
-4.47964e-06
1.8549e-07
-4.53386e-06
1.42373e-07
-4.56873e-06
9.78548e-08
-4.58366e-06
5.268e-08
-4.57856e-06
7.78023e-09
-4.55196e-06
-3.73649e-08
-4.50481e-06
-8.0658e-08
-4.43753e-06
-1.21887e-07
-4.3513e-06
-1.6034e-07
-4.24772e-06
-1.95525e-07
-4.12852e-06
-2.27248e-07
-3.99547e-06
-2.55505e-07
-3.85023e-06
-2.80445e-07
-3.69434e-06
-3.02321e-07
-3.52914e-06
-3.21483e-07
-3.35577e-06
-3.38298e-07
-3.17518e-06
-3.53104e-07
-2.98819e-06
-3.6615e-07
-2.79555e-06
-3.77552e-07
-2.59805e-06
-3.87278e-07
-2.39653e-06
-3.95168e-07
-2.19201e-06
-4.00989e-07
-1.98565e-06
-4.04477e-07
-1.77872e-06
-4.05395e-07
-1.5726e-06
-4.03596e-07
-1.36868e-06
-3.99066e-07
-1.16827e-06
-3.91926e-07
-9.72561e-07
-3.82409e-07
-7.82589e-07
-3.70841e-07
-5.99178e-07
-3.57591e-07
-4.22954e-07
-3.43089e-07
-2.54316e-07
-3.27699e-07
-9.34701e-08
-3.11802e-07
5.97819e-08
-2.9583e-07
2.04887e-07
-2.80023e-07
3.42439e-07
-2.64387e-07
4.72587e-07
-2.49155e-07
5.95597e-07
-2.3446e-07
7.11782e-07
-2.20383e-07
8.21475e-07
-2.06968e-07
9.2502e-07
-1.94232e-07
1.02276e-06
-1.82175e-07
1.11502e-06
-1.70782e-07
1.20212e-06
-1.60031e-07
1.28436e-06
-1.49891e-07
1.36204e-06
-1.40328e-07
1.4354e-06
-1.31307e-07
1.50471e-06
-1.22788e-07
1.57018e-06
-1.14736e-07
1.63201e-06
-1.07115e-07
1.6904e-06
-9.9893e-08
1.74551e-06
-9.30395e-08
1.7975e-06
-8.65296e-08
1.84651e-06
-8.0342e-08
1.89268e-06
-7.44597e-08
1.93612e-06
-6.88693e-08
1.97696e-06
-6.35602e-08
2.01529e-06
-5.85243e-08
2.05124e-06
-5.37551e-08
2.08489e-06
-4.92468e-08
2.11635e-06
-4.49942e-08
2.1457e-06
-4.09914e-08
2.17306e-06
-3.72324e-08
2.1985e-06
-3.37102e-08
2.22211e-06
-3.0417e-08
2.24397e-06
-2.7345e-08
2.26418e-06
-2.44847e-08
2.28282e-06
-2.18281e-08
2.29995e-06
-1.93644e-08
2.31567e-06
-1.70817e-08
2.33004e-06
-1.49722e-08
2.34315e-06
-1.30207e-08
2.3551e-06
-1.1208e-08
2.36593e-06
-9.53408e-09
2.37572e-06
-7.99751e-09
2.38452e-06
-6.58729e-09
2.39237e-06
-5.29255e-09
2.39935e-06
-4.10662e-09
2.4055e-06
-3.018e-09
2.41086e-06
-2.01673e-09
2.4155e-06
-1.09901e-09
2.41944e-06
-2.49276e-10
2.42274e-06
5.27914e-10
2.42543e-06
1.25278e-09
2.42756e-06
1.91919e-09
2.42916e-06
2.53162e-09
2.43027e-06
3.0942e-09
2.43094e-06
3.61011e-09
2.43119e-06
4.08102e-09
2.43107e-06
4.50909e-09
2.4306e-06
4.89494e-09
2.4298e-06
5.23956e-09
2.42871e-06
5.54382e-09
2.42736e-06
5.81118e-09
2.42575e-06
6.04686e-09
2.42392e-06
6.25681e-09
2.42189e-06
6.44635e-09
2.41967e-06
6.61975e-09
2.41728e-06
6.78044e-09
2.41473e-06
6.9317e-09
2.41205e-06
7.07676e-09
2.40923e-06
7.21878e-09
2.40628e-06
7.36003e-09
2.40321e-06
7.50179e-09
2.4e-06
7.64418e-09
2.39667e-06
7.78668e-09
2.39322e-06
7.9285e-09
2.38965e-06
8.06904e-09
2.38597e-06
8.208e-09
2.38218e-06
8.34553e-09
2.37828e-06
8.48225e-09
2.37428e-06
8.61901e-09
2.37018e-06
8.75725e-09
2.36598e-06
8.89857e-09
2.36169e-06
9.04496e-09
2.3573e-06
9.19905e-09
2.3528e-06
9.36344e-09
2.34821e-06
9.54282e-09
2.3435e-06
9.74e-09
2.33868e-06
9.96454e-09
2.33372e-06
1.02172e-08
2.32862e-06
1.05201e-08
2.32335e-06
1.08639e-08
2.31789e-06
1.13041e-08
2.3122e-06
1.17947e-08
2.3062e-06
1.24842e-08
2.2999e-06
1.31988e-08
2.2931e-06
1.43666e-08
2.28585e-06
1.54079e-08
2.27772e-06
1.75596e-08
2.26896e-06
1.90268e-08
2.2585e-06
2.33591e-08
2.24712e-06
2.52411e-08
2.23229e-06
3.48056e-08
2.21587e-06
3.68107e-08
2.19189e-06
6.00983e-08
2.16354e-06
6.23247e-08
2.12083e-06
1.24867e-07
1.34727e-07
2.06308e-06
-2.3135e-08
-4.97534e-08
-5.98062e-08
-4.23919e-08
-9.75517e-08
-3.7567e-08
-1.36691e-07
-3.10274e-08
-1.77872e-07
-2.34784e-08
-2.22025e-07
-1.44721e-08
-2.70141e-07
-3.76687e-09
-3.22611e-07
8.4005e-09
-3.80232e-07
2.28092e-08
-4.43855e-07
4.00389e-08
-5.14145e-07
6.04376e-08
-5.92033e-07
8.42417e-08
-6.7841e-07
1.11452e-07
-7.73386e-07
1.42082e-07
-8.76905e-07
1.76028e-07
-9.88549e-07
2.12959e-07
-1.10747e-06
2.52267e-07
-1.23254e-06
2.93149e-07
-1.36242e-06
3.34633e-07
-1.49578e-06
3.75653e-07
-1.63139e-06
4.15192e-07
-1.76775e-06
4.52406e-07
-1.90445e-06
4.86483e-07
-2.04179e-06
5.16753e-07
-2.18005e-06
5.42936e-07
-2.31951e-06
5.64912e-07
-2.46047e-06
5.82637e-07
-2.60324e-06
5.96091e-07
-2.74813e-06
6.05267e-07
-2.8954e-06
6.10152e-07
-3.0452e-06
6.10705e-07
-3.19743e-06
6.06806e-07
-3.3516e-06
5.98202e-07
-3.50668e-06
5.84513e-07
-3.66111e-06
5.65315e-07
-3.81295e-06
5.40253e-07
-3.9596e-06
5.09145e-07
-4.09823e-06
4.71927e-07
-4.22608e-06
4.28648e-07
-4.34048e-06
3.79529e-07
-4.43889e-06
3.24986e-07
-4.51902e-06
2.65624e-07
-4.5789e-06
2.02249e-07
-4.61692e-06
1.35881e-07
-4.63208e-06
6.78379e-08
-4.62482e-06
5.1787e-10
-4.59357e-06
-6.86142e-08
-4.53988e-06
-1.34346e-07
-4.46536e-06
-1.96404e-07
-4.37173e-06
-2.53971e-07
-4.26084e-06
-3.06415e-07
-4.13467e-06
-3.5342e-07
-3.99522e-06
-3.94957e-07
-3.84438e-06
-4.3128e-07
-3.68384e-06
-4.62864e-07
-3.51498e-06
-4.90343e-07
-3.33889e-06
-5.14387e-07
-3.15639e-06
-5.35606e-07
-2.96809e-06
-5.5445e-07
-2.77452e-06
-5.7112e-07
-2.57625e-06
-5.85545e-07
-2.37401e-06
-5.97416e-07
-2.16872e-06
-6.06277e-07
-1.96157e-06
-6.11621e-07
-1.75397e-06
-6.12994e-07
-1.54745e-06
-6.1012e-07
-1.34354e-06
-6.02973e-07
-1.14368e-06
-5.91785e-07
-9.49123e-07
-5.76969e-07
-7.60872e-07
-5.59093e-07
-5.7966e-07
-5.38803e-07
-4.05973e-07
-5.16776e-07
-2.40059e-07
-4.93613e-07
-8.20541e-08
-4.69807e-07
6.80864e-08
-4.45971e-07
2.10503e-07
-4.2244e-07
3.45403e-07
-3.99286e-07
4.73018e-07
-3.7677e-07
5.93633e-07
-3.55075e-07
7.07569e-07
-3.34319e-07
8.15169e-07
-3.14568e-07
9.16789e-07
-2.95851e-07
1.01278e-06
-2.78168e-07
1.10349e-06
-2.61495e-07
1.18926e-06
-2.45796e-07
1.27039e-06
-2.31024e-07
1.34719e-06
-2.17125e-07
1.41992e-06
-2.04041e-07
1.48885e-06
-1.91713e-07
1.5542e-06
-1.80083e-07
1.61617e-06
-1.69094e-07
1.67498e-06
-1.58694e-07
1.73077e-06
-1.48835e-07
1.78372e-06
-1.39476e-07
1.83396e-06
-1.30581e-07
1.88162e-06
-1.2212e-07
1.92682e-06
-1.14071e-07
1.96967e-06
-1.06413e-07
2.01028e-06
-9.91305e-08
2.04873e-06
-9.2211e-08
2.08513e-06
-8.56426e-08
2.11955e-06
-7.94144e-08
2.15207e-06
-7.35159e-08
2.18278e-06
-6.79367e-08
2.21173e-06
-6.26657e-08
2.23901e-06
-5.76914e-08
2.26466e-06
-5.30021e-08
2.28877e-06
-4.85859e-08
2.31137e-06
-4.44307e-08
2.33253e-06
-4.05245e-08
2.3523e-06
-3.68548e-08
2.37074e-06
-3.34083e-08
2.38789e-06
-3.01715e-08
2.40381e-06
-2.71298e-08
2.41855e-06
-2.42766e-08
2.43216e-06
-2.16075e-08
2.44469e-06
-1.91126e-08
2.45618e-06
-1.67805e-08
2.46667e-06
-1.46017e-08
2.47622e-06
-1.25675e-08
2.48487e-06
-1.06674e-08
2.49267e-06
-8.89358e-09
2.49966e-06
-7.24279e-09
2.50589e-06
-5.70789e-09
2.51142e-06
-4.27406e-09
2.51628e-06
-2.93667e-09
2.5205e-06
-1.69324e-09
2.52414e-06
-5.38801e-10
2.5272e-06
5.41896e-10
2.52974e-06
1.54162e-09
2.53179e-06
2.46551e-09
2.53337e-06
3.31486e-09
2.53451e-06
4.09486e-09
2.53525e-06
4.80705e-09
2.5356e-06
5.45638e-09
2.5356e-06
6.0491e-09
2.53527e-06
6.59177e-09
2.53462e-06
7.09058e-09
2.53369e-06
7.55041e-09
2.5325e-06
7.97561e-09
2.53106e-06
8.37072e-09
2.52939e-06
8.74082e-09
2.52752e-06
9.09109e-09
2.52545e-06
9.4261e-09
2.52321e-06
9.74923e-09
2.52079e-06
1.00622e-08
2.51821e-06
1.03658e-08
2.51548e-06
1.06599e-08
2.5126e-06
1.09446e-08
2.50959e-06
1.122e-08
2.50645e-06
1.14868e-08
2.50319e-06
1.17462e-08
2.4998e-06
1.19999e-08
2.49631e-06
1.22498e-08
2.49271e-06
1.24989e-08
2.48901e-06
1.27495e-08
2.4852e-06
1.30063e-08
2.48129e-06
1.32718e-08
2.47728e-06
1.35541e-08
2.47317e-06
1.38548e-08
2.46894e-06
1.41897e-08
2.4646e-06
1.45557e-08
2.46013e-06
1.49878e-08
2.45553e-06
1.54653e-08
2.45076e-06
1.60716e-08
2.44583e-06
1.67323e-08
2.44066e-06
1.76539e-08
2.43525e-06
1.86038e-08
2.4295e-06
2.01174e-08
2.4234e-06
2.15144e-08
2.41676e-06
2.41979e-08
2.40952e-06
2.62669e-08
2.40147e-06
3.14045e-08
2.39224e-06
3.44772e-08
2.38192e-06
4.51236e-08
2.36877e-06
4.99583e-08
2.35504e-06
7.3826e-08
2.33399e-06
8.33793e-08
2.31797e-06
1.40889e-07
1.67747e-07
2.28495e-06
-4.77195e-08
-2.03389e-09
-1.09137e-07
1.90256e-08
-1.71307e-07
2.46033e-08
-2.35168e-07
3.28328e-08
-3.01158e-07
4.25117e-08
-3.69712e-07
5.4082e-08
-4.41137e-07
6.76582e-08
-5.16232e-07
8.34959e-08
-5.95276e-07
1.01853e-07
-6.78287e-07
1.23051e-07
-7.65199e-07
1.47349e-07
-8.55843e-07
1.74885e-07
-9.50037e-07
2.05646e-07
-1.04743e-06
2.39476e-07
-1.14749e-06
2.76084e-07
-1.24954e-06
3.15016e-07
-1.35292e-06
3.55646e-07
-1.45699e-06
3.97218e-07
-1.56127e-06
4.3891e-07
-1.66555e-06
4.79929e-07
-1.76994e-06
5.19588e-07
-1.87485e-06
5.57314e-07
-1.98104e-06
5.92669e-07
-2.0896e-06
6.25315e-07
-2.20167e-06
6.55008e-07
-2.31833e-06
6.81572e-07
-2.44056e-06
7.04867e-07
-2.56924e-06
7.24776e-07
-2.70514e-06
7.41164e-07
-2.84877e-06
7.53784e-07
-3.00024e-06
7.6217e-07
-3.159e-06
7.6557e-07
-3.32375e-06
7.62951e-07
-3.49235e-06
7.5311e-07
-3.66192e-06
7.3488e-07
-3.82906e-06
7.074e-07
-3.99018e-06
6.70266e-07
-4.14176e-06
6.2351e-07
-4.28058e-06
5.67459e-07
-4.40366e-06
5.02611e-07
-4.50836e-06
4.29693e-07
-4.59243e-06
3.49692e-07
-4.65399e-06
2.63805e-07
-4.69156e-06
1.73449e-07
-4.70406e-06
8.03368e-08
-4.68991e-06
-1.36269e-08
-4.65259e-06
-1.05932e-07
-4.5919e-06
-1.95042e-07
-4.50921e-06
-2.79088e-07
-4.40654e-06
-3.56642e-07
-4.28619e-06
-4.26762e-07
-4.15061e-06
-4.89006e-07
-4.00216e-06
-5.43407e-07
-3.84302e-06
-5.90413e-07
-3.67508e-06
-6.30811e-07
-3.49979e-06
-6.6563e-07
-3.3182e-06
-6.95975e-07
-3.13093e-06
-7.22875e-07
-2.93829e-06
-7.47093e-07
-2.74046e-06
-7.6895e-07
-2.53771e-06
-7.88292e-07
-2.3306e-06
-8.04527e-07
-2.12005e-06
-8.16824e-07
-1.90741e-06
-8.24264e-07
-1.69439e-06
-8.2602e-07
-1.48293e-06
-8.21574e-07
-1.27503e-06
-8.10878e-07
-1.07248e-06
-7.94329e-07
-8.76776e-07
-7.72676e-07
-6.88983e-07
-7.46886e-07
-5.09751e-07
-7.18035e-07
-3.39372e-07
-6.87155e-07
-1.77822e-07
-6.55162e-07
-2.482e-08
-6.22809e-07
1.20741e-07
-5.91532e-07
2.58567e-07
-5.60265e-07
3.89215e-07
-5.29935e-07
5.13087e-07
-5.00642e-07
6.30494e-07
-4.72483e-07
7.41704e-07
-4.45529e-07
8.46967e-07
-4.1983e-07
9.46538e-07
-3.95422e-07
1.04069e-06
-3.72319e-07
1.12971e-06
-3.50514e-07
1.21389e-06
-3.29978e-07
1.29353e-06
-3.10663e-07
1.36891e-06
-2.92505e-07
1.44029e-06
-2.75429e-07
1.50794e-06
-2.59357e-07
1.57206e-06
-2.44209e-07
1.63288e-06
-2.29906e-07
1.69056e-06
-2.16377e-07
1.74528e-06
-2.03556e-07
1.79719e-06
-1.91386e-07
1.84643e-06
-1.79819e-07
1.89312e-06
-1.68814e-07
1.93739e-06
-1.58339e-07
1.97935e-06
-1.48367e-07
2.01909e-06
-1.38876e-07
2.05673e-06
-1.29847e-07
2.09235e-06
-1.21264e-07
2.12605e-06
-1.1311e-07
2.1579e-06
-1.0537e-07
2.18799e-06
-9.80292e-08
2.2164e-06
-9.10718e-08
2.24319e-06
-8.44817e-08
2.26843e-06
-7.82432e-08
2.29218e-06
-7.23403e-08
2.31451e-06
-6.67575e-08
2.33547e-06
-6.14792e-08
2.3551e-06
-5.64898e-08
2.37347e-06
-5.1774e-08
2.39061e-06
-4.73179e-08
2.40659e-06
-4.31075e-08
2.42145e-06
-3.91316e-08
2.43522e-06
-3.53815e-08
2.44795e-06
-3.18476e-08
2.45969e-06
-2.85189e-08
2.47048e-06
-2.53845e-08
2.48034e-06
-2.24354e-08
2.48934e-06
-1.96623e-08
2.4975e-06
-1.70553e-08
2.50486e-06
-1.4607e-08
2.51147e-06
-1.23121e-08
2.51735e-06
-1.01609e-08
2.52256e-06
-8.14526e-09
2.52713e-06
-6.25913e-09
2.53109e-06
-4.4965e-09
2.53448e-06
-2.8502e-09
2.53734e-06
-1.31481e-09
2.53969e-06
1.12826e-10
2.54157e-06
1.43423e-09
2.543e-06
2.66115e-09