/*--------------------------------*- C++ -*----------------------------------*\
  =========                 |
  \\      /  F ield         | OpenFOAM: The Open Source CFD Toolbox
   \\    /   O peration     | Website:  https://openfoam.org
    \\  /    A nd           | Version:  7
     \\/     M anipulation  |
\*---------------------------------------------------------------------------*/
FoamFile
{
    version     2.0;
    format      ascii;
    class       volScalarField;
    location    "0.029";
    object      pPrime2Mean;
}
// * * * * * * * * * * * * * * * * * * * * * * * * * * * * * * * * * * * * * //

dimensions      [0 4 -4 0 0 0 0];

internalField   nonuniform List<scalar> 
12225
(
1.22664e+07
1.20706e+07
1.18685e+07
1.16736e+07
1.14865e+07
1.13066e+07
1.11332e+07
1.0966e+07
1.08044e+07
1.06477e+07
1.04954e+07
1.03467e+07
1.02007e+07
1.00564e+07
9.91222e+06
9.76581e+06
9.61305e+06
9.44363e+06
1.22666e+07
1.20707e+07
1.18686e+07
1.16737e+07
1.14866e+07
1.13067e+07
1.11334e+07
1.09662e+07
1.08046e+07
1.0648e+07
1.04958e+07
1.03472e+07
1.02013e+07
1.00573e+07
9.91346e+06
9.76779e+06
9.6168e+06
9.4521e+06
1.22668e+07
1.20709e+07
1.18688e+07
1.16739e+07
1.14869e+07
1.1307e+07
1.11337e+07
1.09666e+07
1.08051e+07
1.06486e+07
1.04965e+07
1.03481e+07
1.02027e+07
1.00591e+07
9.91613e+06
9.77204e+06
9.62429e+06
9.46973e+06
1.22671e+07
1.20712e+07
1.18691e+07
1.16743e+07
1.14872e+07
1.13074e+07
1.11342e+07
1.09673e+07
1.08059e+07
1.06496e+07
1.04978e+07
1.03498e+07
1.02048e+07
1.0062e+07
9.9204e+06
9.77862e+06
9.63541e+06
9.49082e+06
1.22675e+07
1.20716e+07
1.18695e+07
1.16748e+07
1.14878e+07
1.13081e+07
1.1135e+07
1.09682e+07
1.08071e+07
1.0651e+07
1.04996e+07
1.03521e+07
1.02079e+07
1.00663e+07
9.92637e+06
9.78749e+06
9.64935e+06
9.51364e+06
1.2268e+07
1.20722e+07
1.18702e+07
1.16755e+07
1.14886e+07
1.1309e+07
1.11361e+07
1.09695e+07
1.08087e+07
1.0653e+07
1.05021e+07
1.03553e+07
1.02121e+07
1.00718e+07
9.93408e+06
9.79849e+06
9.66551e+06
9.5373e+06
1.22687e+07
1.20729e+07
1.1871e+07
1.16764e+07
1.14897e+07
1.13102e+07
1.11376e+07
1.09712e+07
1.08108e+07
1.06556e+07
1.05053e+07
1.03594e+07
1.02174e+07
1.00788e+07
9.94349e+06
9.8114e+06
9.68334e+06
9.56137e+06
1.22695e+07
1.20739e+07
1.18721e+07
1.16776e+07
1.1491e+07
1.13118e+07
1.11394e+07
1.09734e+07
1.08134e+07
1.06589e+07
1.05094e+07
1.03645e+07
1.02239e+07
1.00873e+07
9.95454e+06
9.82597e+06
9.70244e+06
9.58567e+06
1.22708e+07
1.20752e+07
1.18734e+07
1.16791e+07
1.14927e+07
1.13137e+07
1.11417e+07
1.09762e+07
1.08167e+07
1.06629e+07
1.05144e+07
1.03707e+07
1.02317e+07
1.00971e+07
9.9671e+06
9.84196e+06
9.72252e+06
9.61009e+06
1.22722e+07
1.20768e+07
1.18751e+07
1.16809e+07
1.14947e+07
1.13161e+07
1.11445e+07
1.09795e+07
1.08207e+07
1.06678e+07
1.05203e+07
1.0378e+07
1.02407e+07
1.01083e+07
9.98102e+06
9.85914e+06
9.74335e+06
9.63458e+06
1.22744e+07
1.20787e+07
1.18772e+07
1.16831e+07
1.14973e+07
1.1319e+07
1.11478e+07
1.09835e+07
1.08255e+07
1.06735e+07
1.05272e+07
1.03864e+07
1.0251e+07
1.01208e+07
9.99617e+06
9.87731e+06
9.76476e+06
9.65911e+06
1.22763e+07
1.20809e+07
1.18794e+07
1.16856e+07
1.15e+07
1.13221e+07
1.11515e+07
1.09878e+07
1.08306e+07
1.06796e+07
1.05345e+07
1.03951e+07
1.02614e+07
1.01334e+07
1.0011e+07
9.89473e+06
9.78479e+06
9.6816e+06
1.2279e+07
1.20834e+07
1.1882e+07
1.16884e+07
1.15031e+07
1.13257e+07
1.11556e+07
1.09926e+07
1.08362e+07
1.06863e+07
1.05425e+07
1.04046e+07
1.02727e+07
1.01466e+07
1.00265e+07
9.9125e+06
9.8049e+06
9.70386e+06
1.22826e+07
1.20868e+07
1.18854e+07
1.16921e+07
1.15072e+07
1.13303e+07
1.1161e+07
1.09988e+07
1.08436e+07
1.06949e+07
1.05526e+07
1.04165e+07
1.02865e+07
1.01626e+07
1.00448e+07
9.93329e+06
9.82805e+06
9.72916e+06
1.22872e+07
1.20912e+07
1.18899e+07
1.16969e+07
1.15126e+07
1.13364e+07
1.11679e+07
1.10069e+07
1.08529e+07
1.07057e+07
1.05652e+07
1.0431e+07
1.03032e+07
1.01817e+07
1.00664e+07
9.95726e+06
9.85434e+06
9.75754e+06
1.22929e+07
1.20969e+07
1.18958e+07
1.17032e+07
1.15195e+07
1.13442e+07
1.11769e+07
1.10171e+07
1.08647e+07
1.07192e+07
1.05806e+07
1.04486e+07
1.03231e+07
1.0204e+07
1.00911e+07
9.98439e+06
9.88372e+06
9.78891e+06
1.23001e+07
1.2104e+07
1.19033e+07
1.17113e+07
1.15284e+07
1.13541e+07
1.11881e+07
1.10298e+07
1.08791e+07
1.07356e+07
1.0599e+07
1.04693e+07
1.03461e+07
1.02294e+07
1.01189e+07
1.00145e+07
9.91587e+06
9.82293e+06
1.23084e+07
1.21128e+07
1.19125e+07
1.17212e+07
1.15394e+07
1.13663e+07
1.12016e+07
1.1045e+07
1.08961e+07
1.07547e+07
1.06203e+07
1.04928e+07
1.03719e+07
1.02575e+07
1.01492e+07
1.00468e+07
9.95013e+06
9.85887e+06
1.23186e+07
1.21233e+07
1.19236e+07
1.17331e+07
1.15522e+07
1.13805e+07
1.12173e+07
1.10624e+07
1.09154e+07
1.07759e+07
1.06437e+07
1.05183e+07
1.03995e+07
1.02872e+07
1.01808e+07
1.00803e+07
9.98525e+06
9.89545e+06
1.2328e+07
1.21325e+07
1.19331e+07
1.17432e+07
1.15631e+07
1.13924e+07
1.12304e+07
1.10768e+07
1.09311e+07
1.07931e+07
1.06623e+07
1.05384e+07
1.04211e+07
1.031e+07
1.0205e+07
1.01056e+07
1.00117e+07
9.92284e+06
1.23339e+07
1.21387e+07
1.19396e+07
1.17501e+07
1.15707e+07
1.14006e+07
1.12394e+07
1.10866e+07
1.09418e+07
1.08046e+07
1.06747e+07
1.05517e+07
1.04353e+07
1.03251e+07
1.02208e+07
1.01221e+07
1.00288e+07
9.94055e+06
1.23387e+07
1.21433e+07
1.19444e+07
1.17553e+07
1.15762e+07
1.14067e+07
1.1246e+07
1.10938e+07
1.09496e+07
1.0813e+07
1.06837e+07
1.05613e+07
1.04455e+07
1.03358e+07
1.02321e+07
1.01339e+07
1.0041e+07
9.95311e+06
1.2341e+07
1.21463e+07
1.19477e+07
1.17589e+07
1.15803e+07
1.1411e+07
1.12508e+07
1.10989e+07
1.09552e+07
1.08191e+07
1.06902e+07
1.05682e+07
1.04527e+07
1.03435e+07
1.02401e+07
1.01422e+07
1.00496e+07
9.96198e+06
1.2343e+07
1.21484e+07
1.19501e+07
1.17615e+07
1.15831e+07
1.14141e+07
1.12541e+07
1.11026e+07
1.09591e+07
1.08233e+07
1.06947e+07
1.0573e+07
1.04579e+07
1.03488e+07
1.02457e+07
1.01481e+07
1.00556e+07
9.96817e+06
1.23442e+07
1.21497e+07
1.19516e+07
1.17633e+07
1.15851e+07
1.14163e+07
1.12565e+07
1.11051e+07
1.09619e+07
1.08263e+07
1.06979e+07
1.05764e+07
1.04614e+07
1.03525e+07
1.02495e+07
1.0152e+07
1.00598e+07
9.97241e+06
1.23444e+07
1.21505e+07
1.19527e+07
1.17645e+07
1.15864e+07
1.14177e+07
1.12581e+07
1.11069e+07
1.09637e+07
1.08282e+07
1.07e+07
1.05786e+07
1.04637e+07
1.0355e+07
1.02521e+07
1.01547e+07
1.00625e+07
9.97524e+06
1.23445e+07
1.2151e+07
1.19533e+07
1.17652e+07
1.15872e+07
1.14187e+07
1.12591e+07
1.1108e+07
1.09649e+07
1.08295e+07
1.07013e+07
1.058e+07
1.04653e+07
1.03566e+07
1.02538e+07
1.01564e+07
1.00643e+07
9.97707e+06
1.23447e+07
1.21513e+07
1.19537e+07
1.17657e+07
1.15877e+07
1.14192e+07
1.12597e+07
1.11086e+07
1.09656e+07
1.08303e+07
1.07022e+07
1.05809e+07
1.04662e+07
1.03576e+07
1.02548e+07
1.01575e+07
1.00654e+07
9.97817e+06
1.23449e+07
1.21515e+07
1.19539e+07
1.1766e+07
1.1588e+07
1.14195e+07
1.126e+07
1.1109e+07
1.0966e+07
1.08307e+07
1.07026e+07
1.05814e+07
1.04667e+07
1.03581e+07
1.02553e+07
1.01581e+07
1.0066e+07
9.97877e+06
1.23449e+07
1.21515e+07
1.1954e+07
1.17661e+07
1.15881e+07
1.14197e+07
1.12602e+07
1.11091e+07
1.09662e+07
1.08309e+07
1.07028e+07
1.05816e+07
1.04669e+07
1.03583e+07
1.02555e+07
1.01583e+07
1.00662e+07
9.97901e+06
7.97948e+06
7.97884e+06
7.97756e+06
7.97562e+06
7.97301e+06
7.9697e+06
7.96571e+06
7.961e+06
7.95558e+06
7.94944e+06
7.94256e+06
7.93495e+06
7.92658e+06
7.91747e+06
7.90761e+06
7.89699e+06
7.88561e+06
7.87348e+06
7.86058e+06
7.84693e+06
7.83252e+06
7.81736e+06
7.80145e+06
7.78479e+06
7.76739e+06
7.74925e+06
7.73039e+06
7.7108e+06
7.69049e+06
7.66948e+06
7.64777e+06
7.62537e+06
7.60229e+06
7.57853e+06
7.55411e+06
7.52904e+06
7.50332e+06
7.47697e+06
7.44999e+06
7.4224e+06
7.39421e+06
7.36543e+06
7.33606e+06
7.30612e+06
7.27563e+06
7.24458e+06
7.21299e+06
7.18087e+06
7.14823e+06
7.11508e+06
7.08143e+06
7.04729e+06
7.01268e+06
6.97759e+06
6.94204e+06
6.90604e+06
6.8696e+06
6.83272e+06
6.79542e+06
6.7577e+06
6.71958e+06
6.68106e+06
6.64215e+06
6.60285e+06
6.56318e+06
6.52315e+06
6.48275e+06
6.442e+06
6.40091e+06
6.35948e+06
6.31772e+06
6.27563e+06
6.23323e+06
6.19051e+06
6.1475e+06
6.10418e+06
6.06057e+06
6.01668e+06
5.9725e+06
5.92805e+06
5.88334e+06
5.83836e+06
5.79312e+06
5.74763e+06
5.7019e+06
5.65592e+06
5.60971e+06
5.56326e+06
5.51659e+06
5.4697e+06
5.42259e+06
5.37527e+06
5.32775e+06
5.28002e+06
5.2321e+06
5.18398e+06
5.13567e+06
5.08718e+06
5.03852e+06
4.98967e+06
4.94066e+06
4.89148e+06
4.84215e+06
4.79265e+06
4.74301e+06
4.69321e+06
4.64328e+06
4.59321e+06
4.543e+06
4.49266e+06
4.4422e+06
4.39162e+06
4.34093e+06
4.29013e+06
4.23922e+06
4.18821e+06
4.1371e+06
4.08591e+06
4.03463e+06
3.98327e+06
3.93184e+06
3.88033e+06
3.82877e+06
3.77714e+06
3.72546e+06
3.67374e+06
3.62197e+06
3.57017e+06
3.51833e+06
3.46647e+06
3.4146e+06
3.36271e+06
3.31082e+06
3.25893e+06
3.20705e+06
3.15519e+06
3.10335e+06
3.05153e+06
2.99976e+06
2.94802e+06
2.89634e+06
2.84472e+06
2.79317e+06
2.74169e+06
2.69029e+06
2.63898e+06
2.58778e+06
2.53668e+06
2.48571e+06
2.43485e+06
2.38414e+06
2.33357e+06
2.28315e+06
2.2329e+06
2.18283e+06
2.13294e+06
2.08324e+06
2.03376e+06
1.98449e+06
1.93545e+06
1.88665e+06
1.83811e+06
1.78983e+06
1.74183e+06
1.69412e+06
1.64672e+06
1.59964e+06
1.5529e+06
1.50651e+06
1.46049e+06
1.41486e+06
1.36965e+06
1.32487e+06
1.28055e+06
1.23673e+06
1.19346e+06
1.15078e+06
1.1088e+06
1.06765e+06
1.02765e+06
7.98236e+06
7.98172e+06
7.98043e+06
7.97848e+06
7.97584e+06
7.97252e+06
7.9685e+06
7.96377e+06
7.95832e+06
7.95214e+06
7.94523e+06
7.93757e+06
7.92916e+06
7.92001e+06
7.91009e+06
7.89942e+06
7.88799e+06
7.8758e+06
7.86285e+06
7.84914e+06
7.83467e+06
7.81945e+06
7.80347e+06
7.78675e+06
7.76929e+06
7.75109e+06
7.73217e+06
7.71252e+06
7.69215e+06
7.67108e+06
7.64931e+06
7.62685e+06
7.60371e+06
7.5799e+06
7.55542e+06
7.53029e+06
7.50452e+06
7.47812e+06
7.4511e+06
7.42346e+06
7.39522e+06
7.36639e+06
7.33698e+06
7.307e+06
7.27646e+06
7.24537e+06
7.21374e+06
7.18159e+06
7.14891e+06
7.11573e+06
7.08205e+06
7.04788e+06
7.01323e+06
6.97811e+06
6.94254e+06
6.90651e+06
6.87004e+06
6.83314e+06
6.79582e+06
6.75808e+06
6.71994e+06
6.6814e+06
6.64247e+06
6.60315e+06
6.56347e+06
6.52341e+06
6.483e+06
6.44224e+06
6.40113e+06
6.35969e+06
6.31791e+06
6.27582e+06
6.2334e+06
6.19068e+06
6.14765e+06
6.10432e+06
6.06071e+06
6.0168e+06
5.97262e+06
5.92817e+06
5.88344e+06
5.83846e+06
5.79321e+06
5.74772e+06
5.70198e+06
5.65599e+06
5.60978e+06
5.56333e+06
5.51665e+06
5.46976e+06
5.42265e+06
5.37532e+06
5.32779e+06
5.28006e+06
5.23213e+06
5.18401e+06
5.13571e+06
5.08721e+06
5.03854e+06
4.9897e+06
4.94069e+06
4.89151e+06
4.84217e+06
4.79267e+06
4.74303e+06
4.69323e+06
4.64329e+06
4.59322e+06
4.54301e+06
4.49267e+06
4.44221e+06
4.39163e+06
4.34094e+06
4.29013e+06
4.23922e+06
4.18821e+06
4.13711e+06
4.08592e+06
4.03464e+06
3.98328e+06
3.93184e+06
3.88034e+06
3.82877e+06
3.77715e+06
3.72547e+06
3.67374e+06
3.62197e+06
3.57017e+06
3.51833e+06
3.46648e+06
3.4146e+06
3.36272e+06
3.31082e+06
3.25894e+06
3.20705e+06
3.15519e+06
3.10335e+06
3.05153e+06
2.99976e+06
2.94802e+06
2.89634e+06
2.84472e+06
2.79317e+06
2.74169e+06
2.69029e+06
2.63899e+06
2.58778e+06
2.53668e+06
2.48571e+06
2.43485e+06
2.38414e+06
2.33357e+06
2.28315e+06
2.2329e+06
2.18283e+06
2.13294e+06
2.08324e+06
2.03376e+06
1.98449e+06
1.93545e+06
1.88665e+06
1.83811e+06
1.78983e+06
1.74183e+06
1.69412e+06
1.64672e+06
1.59964e+06
1.5529e+06
1.50651e+06
1.46048e+06
1.41485e+06
1.36964e+06
1.32485e+06
1.28053e+06
1.23671e+06
1.19342e+06
1.15073e+06
1.10872e+06
1.06751e+06
1.02733e+06
7.98815e+06
7.9875e+06
7.98619e+06
7.98421e+06
7.98154e+06
7.97818e+06
7.97411e+06
7.96932e+06
7.9638e+06
7.95756e+06
7.95056e+06
7.94282e+06
7.93433e+06
7.92508e+06
7.91507e+06
7.9043e+06
7.89276e+06
7.88045e+06
7.86739e+06
7.85356e+06
7.83897e+06
7.82363e+06
7.80753e+06
7.79069e+06
7.7731e+06
7.75478e+06
7.73573e+06
7.71596e+06
7.69547e+06
7.67428e+06
7.65239e+06
7.62981e+06
7.60656e+06
7.58263e+06
7.55804e+06
7.53281e+06
7.50693e+06
7.48042e+06
7.4533e+06
7.42556e+06
7.39723e+06
7.36831e+06
7.33881e+06
7.30875e+06
7.27812e+06
7.24696e+06
7.21525e+06
7.18302e+06
7.15028e+06
7.11702e+06
7.08328e+06
7.04905e+06
7.01434e+06
6.97916e+06
6.94353e+06
6.90745e+06
6.87093e+06
6.83399e+06
6.79662e+06
6.75884e+06
6.72065e+06
6.68207e+06
6.6431e+06
6.60375e+06
6.56403e+06
6.52395e+06
6.4835e+06
6.44271e+06
6.40158e+06
6.36011e+06
6.31831e+06
6.27619e+06
6.23375e+06
6.191e+06
6.14796e+06
6.10461e+06
6.06098e+06
6.01706e+06
5.97286e+06
5.92839e+06
5.88365e+06
5.83865e+06
5.79339e+06
5.74789e+06
5.70213e+06
5.65614e+06
5.60991e+06
5.56346e+06
5.51677e+06
5.46987e+06
5.42275e+06
5.37542e+06
5.32788e+06
5.28015e+06
5.23221e+06
5.18409e+06
5.13577e+06
5.08728e+06
5.0386e+06
4.98975e+06
4.94073e+06
4.89155e+06
4.84221e+06
4.79271e+06
4.74306e+06
4.69326e+06
4.64332e+06
4.59325e+06
4.54304e+06
4.4927e+06
4.44223e+06
4.39165e+06
4.34096e+06
4.29015e+06
4.23924e+06
4.18823e+06
4.13712e+06
4.08593e+06
4.03465e+06
3.98329e+06
3.93185e+06
3.88035e+06
3.82878e+06
3.77715e+06
3.72547e+06
3.67375e+06
3.62198e+06
3.57017e+06
3.51834e+06
3.46648e+06
3.4146e+06
3.36272e+06
3.31083e+06
3.25894e+06
3.20706e+06
3.15519e+06
3.10335e+06
3.05153e+06
2.99976e+06
2.94802e+06
2.89634e+06
2.84472e+06
2.79317e+06
2.74169e+06
2.69029e+06
2.63899e+06
2.58778e+06
2.53669e+06
2.48571e+06
2.43486e+06
2.38414e+06
2.33357e+06
2.28315e+06
2.2329e+06
2.18283e+06
2.13294e+06
2.08324e+06
2.03376e+06
1.98449e+06
1.93545e+06
1.88665e+06
1.8381e+06
1.78983e+06
1.74183e+06
1.69412e+06
1.64672e+06
1.59963e+06
1.55289e+06
1.5065e+06
1.46047e+06
1.41484e+06
1.36962e+06
1.32483e+06
1.2805e+06
1.23666e+06
1.19336e+06
1.15064e+06
1.10857e+06
1.06726e+06
1.02682e+06
7.99688e+06
7.99621e+06
7.99487e+06
7.99284e+06
7.99012e+06
7.9867e+06
7.98255e+06
7.97768e+06
7.97207e+06
7.96571e+06
7.9586e+06
7.95074e+06
7.94211e+06
7.93271e+06
7.92255e+06
7.91162e+06
7.89992e+06
7.88745e+06
7.87421e+06
7.8602e+06
7.84543e+06
7.8299e+06
7.81362e+06
7.79659e+06
7.77882e+06
7.76031e+06
7.74107e+06
7.72112e+06
7.70044e+06
7.67907e+06
7.657e+06
7.63425e+06
7.61082e+06
7.58672e+06
7.56197e+06
7.53657e+06
7.51053e+06
7.48387e+06
7.4566e+06
7.42872e+06
7.40024e+06
7.37118e+06
7.34155e+06
7.31136e+06
7.28061e+06
7.24933e+06
7.21751e+06
7.18517e+06
7.15231e+06
7.11896e+06
7.08512e+06
7.05079e+06
7.01599e+06
6.98073e+06
6.94502e+06
6.90886e+06
6.87227e+06
6.83525e+06
6.79781e+06
6.75996e+06
6.72172e+06
6.68308e+06
6.64405e+06
6.60465e+06
6.56488e+06
6.52474e+06
6.48425e+06
6.44342e+06
6.40224e+06
6.36073e+06
6.3189e+06
6.27674e+06
6.23427e+06
6.19149e+06
6.14841e+06
6.10504e+06
6.06138e+06
6.01743e+06
5.97321e+06
5.92872e+06
5.88396e+06
5.83894e+06
5.79366e+06
5.74814e+06
5.70237e+06
5.65636e+06
5.61012e+06
5.56365e+06
5.51695e+06
5.47003e+06
5.4229e+06
5.37556e+06
5.32802e+06
5.28027e+06
5.23233e+06
5.18419e+06
5.13587e+06
5.08737e+06
5.03869e+06
4.98983e+06
4.94081e+06
4.89162e+06
4.84227e+06
4.79277e+06
4.74311e+06
4.69331e+06
4.64337e+06
4.59329e+06
4.54307e+06
4.49273e+06
4.44227e+06
4.39168e+06
4.34098e+06
4.29017e+06
4.23926e+06
4.18825e+06
4.13714e+06
4.08594e+06
4.03466e+06
3.9833e+06
3.93186e+06
3.88036e+06
3.82879e+06
3.77716e+06
3.72548e+06
3.67375e+06
3.62198e+06
3.57018e+06
3.51834e+06
3.46649e+06
3.41461e+06
3.36272e+06
3.31083e+06
3.25894e+06
3.20706e+06
3.15519e+06
3.10335e+06
3.05154e+06
2.99976e+06
2.94803e+06
2.89634e+06
2.84472e+06
2.79317e+06
2.74169e+06
2.69029e+06
2.63899e+06
2.58778e+06
2.53669e+06
2.48571e+06
2.43486e+06
2.38414e+06
2.33357e+06
2.28315e+06
2.2329e+06
2.18283e+06
2.13294e+06
2.08324e+06
2.03376e+06
1.98449e+06
1.93545e+06
1.88665e+06
1.8381e+06
1.78982e+06
1.74182e+06
1.69411e+06
1.64671e+06
1.59962e+06
1.55288e+06
1.50648e+06
1.46045e+06
1.41482e+06
1.36958e+06
1.32479e+06
1.28044e+06
1.23659e+06
1.19326e+06
1.1505e+06
1.10837e+06
1.06692e+06
1.02623e+06
8.0086e+06
8.0079e+06
8.00652e+06
8.00444e+06
8.00165e+06
7.99813e+06
7.99388e+06
7.98889e+06
7.98315e+06
7.97665e+06
7.96938e+06
7.96134e+06
7.95253e+06
7.94294e+06
7.93257e+06
7.92142e+06
7.9095e+06
7.8968e+06
7.88332e+06
7.86907e+06
7.85406e+06
7.83828e+06
7.82175e+06
7.80447e+06
7.78644e+06
7.76768e+06
7.74819e+06
7.72798e+06
7.70706e+06
7.68545e+06
7.66314e+06
7.64014e+06
7.61648e+06
7.59216e+06
7.56718e+06
7.54156e+06
7.51532e+06
7.48845e+06
7.46098e+06
7.4329e+06
7.40424e+06
7.375e+06
7.34519e+06
7.31483e+06
7.28392e+06
7.25247e+06
7.2205e+06
7.18801e+06
7.15502e+06
7.12153e+06
7.08755e+06
7.0531e+06
7.01819e+06
6.98281e+06
6.94699e+06
6.91073e+06
6.87403e+06
6.83692e+06
6.79939e+06
6.76146e+06
6.72313e+06
6.68441e+06
6.64531e+06
6.60584e+06
6.566e+06
6.5258e+06
6.48525e+06
6.44436e+06
6.40312e+06
6.36156e+06
6.31968e+06
6.27747e+06
6.23496e+06
6.19214e+06
6.14902e+06
6.10561e+06
6.06191e+06
6.01794e+06
5.97368e+06
5.92916e+06
5.88437e+06
5.83932e+06
5.79402e+06
5.74848e+06
5.70268e+06
5.65666e+06
5.61039e+06
5.5639e+06
5.51719e+06
5.47026e+06
5.42311e+06
5.37575e+06
5.32819e+06
5.28044e+06
5.23248e+06
5.18433e+06
5.136e+06
5.08749e+06
5.0388e+06
4.98994e+06
4.9409e+06
4.89171e+06
4.84235e+06
4.79284e+06
4.74318e+06
4.69338e+06
4.64343e+06
4.59334e+06
4.54312e+06
4.49278e+06
4.44231e+06
4.39172e+06
4.34102e+06
4.29021e+06
4.23929e+06
4.18828e+06
4.13717e+06
4.08597e+06
4.03468e+06
3.98332e+06
3.93188e+06
3.88037e+06
3.8288e+06
3.77717e+06
3.72549e+06
3.67376e+06
3.62199e+06
3.57019e+06
3.51835e+06
3.46649e+06
3.41462e+06
3.36273e+06
3.31084e+06
3.25895e+06
3.20706e+06
3.1552e+06
3.10335e+06
3.05154e+06
2.99976e+06
2.94803e+06
2.89635e+06
2.84472e+06
2.79317e+06
2.74169e+06
2.69029e+06
2.63899e+06
2.58778e+06
2.53669e+06
2.48571e+06
2.43486e+06
2.38414e+06
2.33357e+06
2.28315e+06
2.2329e+06
2.18283e+06
2.13294e+06
2.08324e+06
2.03376e+06
1.98449e+06
1.93545e+06
1.88665e+06
1.8381e+06
1.78982e+06
1.74182e+06
1.6941e+06
1.6467e+06
1.59961e+06
1.55286e+06
1.50646e+06
1.46043e+06
1.41479e+06
1.36955e+06
1.32473e+06
1.28038e+06
1.2365e+06
1.19314e+06
1.15033e+06
1.10811e+06
1.06653e+06
1.0256e+06
8.02338e+06
8.02265e+06
8.02122e+06
8.01906e+06
8.01618e+06
8.01255e+06
8.00817e+06
8.00302e+06
7.99711e+06
7.99041e+06
7.98294e+06
7.97468e+06
7.96563e+06
7.95578e+06
7.94515e+06
7.93373e+06
7.92152e+06
7.90852e+06
7.89474e+06
7.88019e+06
7.86486e+06
7.84877e+06
7.83191e+06
7.81431e+06
7.79596e+06
7.77688e+06
7.75708e+06
7.73655e+06
7.71532e+06
7.6934e+06
7.67078e+06
7.64749e+06
7.62354e+06
7.59893e+06
7.57367e+06
7.54778e+06
7.52127e+06
7.49415e+06
7.46642e+06
7.43811e+06
7.40921e+06
7.37974e+06
7.34971e+06
7.31914e+06
7.28802e+06
7.25638e+06
7.22421e+06
7.19154e+06
7.15838e+06
7.12472e+06
7.09058e+06
7.05598e+06
7.02091e+06
6.98539e+06
6.94944e+06
6.91304e+06
6.87623e+06
6.839e+06
6.80135e+06
6.76331e+06
6.72488e+06
6.68607e+06
6.64687e+06
6.60731e+06
6.56739e+06
6.52711e+06
6.48649e+06
6.44552e+06
6.40422e+06
6.36259e+06
6.32065e+06
6.27838e+06
6.23582e+06
6.19294e+06
6.14978e+06
6.10632e+06
6.06258e+06
6.01856e+06
5.97426e+06
5.9297e+06
5.88488e+06
5.8398e+06
5.79447e+06
5.74889e+06
5.70307e+06
5.65702e+06
5.61073e+06
5.56422e+06
5.51748e+06
5.47053e+06
5.42336e+06
5.37599e+06
5.32842e+06
5.28064e+06
5.23267e+06
5.18451e+06
5.13617e+06
5.08764e+06
5.03894e+06
4.99007e+06
4.94102e+06
4.89182e+06
4.84246e+06
4.79294e+06
4.74327e+06
4.69346e+06
4.6435e+06
4.59341e+06
4.54319e+06
4.49284e+06
4.44236e+06
4.39177e+06
4.34106e+06
4.29025e+06
4.23933e+06
4.18831e+06
4.1372e+06
4.08599e+06
4.03471e+06
3.98334e+06
3.9319e+06
3.88039e+06
3.82882e+06
3.77719e+06
3.72551e+06
3.67378e+06
3.622e+06
3.5702e+06
3.51836e+06
3.4665e+06
3.41462e+06
3.36273e+06
3.31084e+06
3.25895e+06
3.20707e+06
3.1552e+06
3.10336e+06
3.05154e+06
2.99977e+06
2.94803e+06
2.89635e+06
2.84473e+06
2.79317e+06
2.74169e+06
2.6903e+06
2.63899e+06
2.58779e+06
2.53669e+06
2.48571e+06
2.43486e+06
2.38414e+06
2.33357e+06
2.28315e+06
2.2329e+06
2.18283e+06
2.13294e+06
2.08324e+06
2.03375e+06
1.98448e+06
1.93544e+06
1.88664e+06
1.8381e+06
1.78981e+06
1.74181e+06
1.6941e+06
1.64669e+06
1.5996e+06
1.55285e+06
1.50644e+06
1.4604e+06
1.41475e+06
1.3695e+06
1.32467e+06
1.28029e+06
1.23639e+06
1.19299e+06
1.15012e+06
1.10782e+06
1.06611e+06
1.02497e+06
8.04133e+06
8.04056e+06
8.03906e+06
8.03681e+06
8.03381e+06
8.03004e+06
8.02548e+06
8.02015e+06
8.01401e+06
8.00708e+06
7.99935e+06
7.99081e+06
7.98146e+06
7.9713e+06
7.96034e+06
7.94858e+06
7.93601e+06
7.92265e+06
7.9085e+06
7.89356e+06
7.87785e+06
7.86136e+06
7.84412e+06
7.82613e+06
7.80739e+06
7.78792e+06
7.76772e+06
7.74682e+06
7.72521e+06
7.70291e+06
7.67993e+06
7.65628e+06
7.63197e+06
7.60702e+06
7.58143e+06
7.55521e+06
7.52838e+06
7.50095e+06
7.47292e+06
7.44431e+06
7.41513e+06
7.38539e+06
7.3551e+06
7.32427e+06
7.29291e+06
7.26103e+06
7.22864e+06
7.19575e+06
7.16237e+06
7.12852e+06
7.09419e+06
7.0594e+06
7.02415e+06
6.98847e+06
6.95235e+06
6.9158e+06
6.87884e+06
6.84147e+06
6.80369e+06
6.76552e+06
6.72697e+06
6.68804e+06
6.64873e+06
6.60907e+06
6.56904e+06
6.52867e+06
6.48796e+06
6.4469e+06
6.40552e+06
6.36382e+06
6.3218e+06
6.27947e+06
6.23683e+06
6.1939e+06
6.15067e+06
6.10716e+06
6.06337e+06
6.0193e+06
5.97496e+06
5.93035e+06
5.88549e+06
5.84037e+06
5.795e+06
5.74939e+06
5.70354e+06
5.65745e+06
5.61114e+06
5.56459e+06
5.51783e+06
5.47086e+06
5.42367e+06
5.37627e+06
5.32868e+06
5.28088e+06
5.2329e+06
5.18472e+06
5.13636e+06
5.08782e+06
5.03911e+06
4.99022e+06
4.94117e+06
4.89195e+06
4.84258e+06
4.79305e+06
4.74337e+06
4.69355e+06
4.64359e+06
4.59349e+06
4.54326e+06
4.4929e+06
4.44242e+06
4.39183e+06
4.34111e+06
4.2903e+06
4.23937e+06
4.18835e+06
4.13723e+06
4.08603e+06
4.03474e+06
3.98337e+06
3.93193e+06
3.88042e+06
3.82884e+06
3.77721e+06
3.72552e+06
3.67379e+06
3.62202e+06
3.57021e+06
3.51837e+06
3.46651e+06
3.41463e+06
3.36274e+06
3.31085e+06
3.25896e+06
3.20707e+06
3.15521e+06
3.10336e+06
3.05155e+06
2.99977e+06
2.94804e+06
2.89635e+06
2.84473e+06
2.79318e+06
2.74169e+06
2.6903e+06
2.63899e+06
2.58779e+06
2.53669e+06
2.48571e+06
2.43486e+06
2.38414e+06
2.33357e+06
2.28316e+06
2.2329e+06
2.18283e+06
2.13294e+06
2.08324e+06
2.03375e+06
1.98448e+06
1.93544e+06
1.88664e+06
1.83809e+06
1.78981e+06
1.7418e+06
1.69409e+06
1.64668e+06
1.59958e+06
1.55282e+06
1.50641e+06
1.46037e+06
1.41471e+06
1.36944e+06
1.3246e+06
1.2802e+06
1.23627e+06
1.19283e+06
1.1499e+06
1.10751e+06
1.06567e+06
1.02435e+06
8.06256e+06
8.06174e+06
8.06016e+06
8.0578e+06
8.05465e+06
8.0507e+06
8.04594e+06
8.04036e+06
8.03396e+06
8.02674e+06
8.01869e+06
8.0098e+06
8.00009e+06
7.98955e+06
7.97819e+06
7.96601e+06
7.95301e+06
7.93921e+06
7.9246e+06
7.90921e+06
7.89303e+06
7.87609e+06
7.85837e+06
7.83991e+06
7.82071e+06
7.80077e+06
7.78012e+06
7.75876e+06
7.7367e+06
7.71396e+06
7.69055e+06
7.66648e+06
7.64176e+06
7.6164e+06
7.59041e+06
7.56382e+06
7.53661e+06
7.50882e+06
7.48044e+06
7.4515e+06
7.42199e+06
7.39193e+06
7.36133e+06
7.33021e+06
7.29856e+06
7.26641e+06
7.23376e+06
7.20062e+06
7.16699e+06
7.1329e+06
7.09835e+06
7.06335e+06
7.0279e+06
6.99202e+06
6.95571e+06
6.91899e+06
6.88185e+06
6.84432e+06
6.80639e+06
6.76807e+06
6.72938e+06
6.69031e+06
6.65088e+06
6.61109e+06
6.57095e+06
6.53047e+06
6.48965e+06
6.4485e+06
6.40703e+06
6.36524e+06
6.32313e+06
6.28072e+06
6.23801e+06
6.195e+06
6.15171e+06
6.10813e+06
6.06428e+06
6.02015e+06
5.97576e+06
5.9311e+06
5.88619e+06
5.84103e+06
5.79562e+06
5.74996e+06
5.70407e+06
5.65795e+06
5.6116e+06
5.56503e+06
5.51824e+06
5.47123e+06
5.42402e+06
5.3766e+06
5.32898e+06
5.28117e+06
5.23316e+06
5.18496e+06
5.13659e+06
5.08803e+06
5.0393e+06
4.9904e+06
4.94133e+06
4.8921e+06
4.84272e+06
4.79318e+06
4.74349e+06
4.69366e+06
4.64369e+06
4.59358e+06
4.54335e+06
4.49298e+06
4.4425e+06
4.39189e+06
4.34117e+06
4.29035e+06
4.23942e+06
4.1884e+06
4.13728e+06
4.08607e+06
4.03477e+06
3.9834e+06
3.93196e+06
3.88044e+06
3.82887e+06
3.77723e+06
3.72554e+06
3.67381e+06
3.62203e+06
3.57022e+06
3.51838e+06
3.46652e+06
3.41464e+06
3.36275e+06
3.31086e+06
3.25896e+06
3.20708e+06
3.15521e+06
3.10337e+06
3.05155e+06
2.99977e+06
2.94804e+06
2.89636e+06
2.84473e+06
2.79318e+06
2.7417e+06
2.6903e+06
2.639e+06
2.58779e+06
2.53669e+06
2.48571e+06
2.43486e+06
2.38414e+06
2.33357e+06
2.28316e+06
2.2329e+06
2.18283e+06
2.13294e+06
2.08324e+06
2.03375e+06
1.98448e+06
1.93544e+06
1.88664e+06
1.83809e+06
1.7898e+06
1.74179e+06
1.69408e+06
1.64666e+06
1.59957e+06
1.5528e+06
1.50638e+06
1.46033e+06
1.41466e+06
1.36938e+06
1.32452e+06
1.2801e+06
1.23613e+06
1.19265e+06
1.14966e+06
1.10718e+06
1.06523e+06
1.02375e+06
8.08723e+06
8.08635e+06
8.08466e+06
8.08216e+06
8.07883e+06
8.07467e+06
8.06966e+06
8.06379e+06
8.05707e+06
8.04949e+06
8.04105e+06
8.03175e+06
8.0216e+06
8.01059e+06
7.99875e+06
7.98607e+06
7.97256e+06
7.95823e+06
7.94309e+06
7.92715e+06
7.91043e+06
7.89293e+06
7.87467e+06
7.85566e+06
7.83591e+06
7.81543e+06
7.79425e+06
7.77236e+06
7.74979e+06
7.72654e+06
7.70263e+06
7.67807e+06
7.65287e+06
7.62705e+06
7.60061e+06
7.57357e+06
7.54595e+06
7.51774e+06
7.48896e+06
7.45963e+06
7.42975e+06
7.39933e+06
7.36839e+06
7.33693e+06
7.30496e+06
7.2725e+06
7.23954e+06
7.20611e+06
7.17222e+06
7.13786e+06
7.10306e+06
7.06781e+06
7.03213e+06
6.99603e+06
6.95951e+06
6.92259e+06
6.88526e+06
6.84754e+06
6.80944e+06
6.77095e+06
6.7321e+06
6.69288e+06
6.65331e+06
6.61338e+06
6.57311e+06
6.53251e+06
6.49157e+06
6.45031e+06
6.40873e+06
6.36684e+06
6.32464e+06
6.28213e+06
6.23934e+06
6.19625e+06
6.15288e+06
6.10923e+06
6.06531e+06
6.02112e+06
5.97666e+06
5.93195e+06
5.88698e+06
5.84177e+06
5.79631e+06
5.75061e+06
5.70468e+06
5.65852e+06
5.61213e+06
5.56552e+06
5.5187e+06
5.47166e+06
5.42442e+06
5.37697e+06
5.32932e+06
5.28148e+06
5.23345e+06
5.18524e+06
5.13684e+06
5.08827e+06
5.03952e+06
4.9906e+06
4.94152e+06
4.89228e+06
4.84288e+06
4.79333e+06
4.74363e+06
4.69379e+06
4.64381e+06
4.59369e+06
4.54344e+06
4.49307e+06
4.44258e+06
4.39197e+06
4.34124e+06
4.29041e+06
4.23948e+06
4.18845e+06
4.13732e+06
4.08611e+06
4.03481e+06
3.98344e+06
3.93199e+06
3.88047e+06
3.82889e+06
3.77725e+06
3.72557e+06
3.67383e+06
3.62205e+06
3.57024e+06
3.5184e+06
3.46654e+06
3.41465e+06
3.36276e+06
3.31087e+06
3.25897e+06
3.20709e+06
3.15522e+06
3.10337e+06
3.05156e+06
2.99978e+06
2.94804e+06
2.89636e+06
2.84474e+06
2.79318e+06
2.7417e+06
2.6903e+06
2.639e+06
2.58779e+06
2.53669e+06
2.48572e+06
2.43486e+06
2.38415e+06
2.33357e+06
2.28316e+06
2.23291e+06
2.18283e+06
2.13294e+06
2.08324e+06
2.03375e+06
1.98448e+06
1.93543e+06
1.88663e+06
1.83808e+06
1.78979e+06
1.74178e+06
1.69406e+06
1.64665e+06
1.59955e+06
1.55278e+06
1.50635e+06
1.46029e+06
1.4146e+06
1.36931e+06
1.32443e+06
1.27999e+06
1.23599e+06
1.19245e+06
1.14941e+06
1.10685e+06
1.06478e+06
1.02317e+06
8.11552e+06
8.11456e+06
8.11276e+06
8.11009e+06
8.10654e+06
8.10211e+06
8.09679e+06
8.09057e+06
8.08345e+06
8.07544e+06
8.06653e+06
8.05674e+06
8.04606e+06
8.0345e+06
8.02208e+06
8.00881e+06
7.99469e+06
7.97974e+06
7.96397e+06
7.9474e+06
7.93004e+06
7.9119e+06
7.893e+06
7.87336e+06
7.85298e+06
7.83188e+06
7.81008e+06
7.78759e+06
7.76443e+06
7.7406e+06
7.71612e+06
7.69101e+06
7.66528e+06
7.63893e+06
7.61198e+06
7.58445e+06
7.55635e+06
7.52768e+06
7.49845e+06
7.46869e+06
7.43839e+06
7.40757e+06
7.37624e+06
7.3444e+06
7.31207e+06
7.27926e+06
7.24598e+06
7.21223e+06
7.17802e+06
7.14337e+06
7.10828e+06
7.07277e+06
7.03683e+06
7.00048e+06
6.96373e+06
6.92658e+06
6.88904e+06
6.85112e+06
6.81282e+06
6.77415e+06
6.73512e+06
6.69574e+06
6.656e+06
6.61592e+06
6.57551e+06
6.53477e+06
6.4937e+06
6.45231e+06
6.41062e+06
6.36861e+06
6.32631e+06
6.2837e+06
6.24081e+06
6.19764e+06
6.15418e+06
6.11045e+06
6.06645e+06
6.02219e+06
5.97767e+06
5.93289e+06
5.88786e+06
5.84259e+06
5.79708e+06
5.75133e+06
5.70535e+06
5.65914e+06
5.61271e+06
5.56607e+06
5.51921e+06
5.47213e+06
5.42486e+06
5.37738e+06
5.32971e+06
5.28184e+06
5.23378e+06
5.18554e+06
5.13712e+06
5.08853e+06
5.03976e+06
4.99083e+06
4.94173e+06
4.89247e+06
4.84306e+06
4.79349e+06
4.74378e+06
4.69392e+06
4.64393e+06
4.59381e+06
4.54355e+06
4.49317e+06
4.44267e+06
4.39205e+06
4.34132e+06
4.29048e+06
4.23954e+06
4.18851e+06
4.13738e+06
4.08616e+06
4.03486e+06
3.98348e+06
3.93203e+06
3.88051e+06
3.82892e+06
3.77728e+06
3.72559e+06
3.67385e+06
3.62207e+06
3.57026e+06
3.51842e+06
3.46655e+06
3.41467e+06
3.36277e+06
3.31088e+06
3.25898e+06
3.2071e+06
3.15523e+06
3.10338e+06
3.05156e+06
2.99979e+06
2.94805e+06
2.89637e+06
2.84474e+06
2.79319e+06
2.74171e+06
2.69031e+06
2.639e+06
2.58779e+06
2.5367e+06
2.48572e+06
2.43486e+06
2.38415e+06
2.33358e+06
2.28316e+06
2.23291e+06
2.18283e+06
2.13294e+06
2.08324e+06
2.03375e+06
1.98448e+06
1.93543e+06
1.88663e+06
1.83807e+06
1.78979e+06
1.74177e+06
1.69405e+06
1.64663e+06
1.59952e+06
1.55275e+06
1.50632e+06
1.46025e+06
1.41455e+06
1.36924e+06
1.32434e+06
1.27987e+06
1.23583e+06
1.19226e+06
1.14915e+06
1.10651e+06
1.06435e+06
1.02262e+06
8.14766e+06
8.14662e+06
8.14467e+06
8.14179e+06
8.13798e+06
8.13322e+06
8.12752e+06
8.12088e+06
8.11328e+06
8.10475e+06
8.09528e+06
8.08489e+06
8.07358e+06
8.06137e+06
8.04826e+06
8.03429e+06
8.01946e+06
8.00378e+06
7.98728e+06
7.96997e+06
7.95187e+06
7.933e+06
7.91336e+06
7.89299e+06
7.8719e+06
7.8501e+06
7.8276e+06
7.80443e+06
7.7806e+06
7.75612e+06
7.731e+06
7.70527e+06
7.67893e+06
7.652e+06
7.62449e+06
7.59641e+06
7.56778e+06
7.5386e+06
7.50888e+06
7.47864e+06
7.44788e+06
7.41661e+06
7.38485e+06
7.3526e+06
7.31988e+06
7.28668e+06
7.25303e+06
7.21892e+06
7.18438e+06
7.1494e+06
7.11401e+06
7.0782e+06
7.04198e+06
7.00536e+06
6.96835e+06
6.93095e+06
6.89318e+06
6.85503e+06
6.81652e+06
6.77765e+06
6.73843e+06
6.69886e+06
6.65895e+06
6.6187e+06
6.57813e+06
6.53724e+06
6.49603e+06
6.45451e+06
6.41268e+06
6.37056e+06
6.32813e+06
6.28542e+06
6.24243e+06
6.19916e+06
6.15561e+06
6.11179e+06
6.06771e+06
6.02337e+06
5.97877e+06
5.93392e+06
5.88883e+06
5.84349e+06
5.79792e+06
5.75212e+06
5.70609e+06
5.65983e+06
5.61336e+06
5.56666e+06
5.51976e+06
5.47265e+06
5.42534e+06
5.37783e+06
5.33012e+06
5.28223e+06
5.23414e+06
5.18588e+06
5.13743e+06
5.08882e+06
5.04003e+06
4.99107e+06
4.94195e+06
4.89268e+06
4.84325e+06
4.79367e+06
4.74394e+06
4.69408e+06
4.64407e+06
4.59393e+06
4.54367e+06
4.49328e+06
4.44277e+06
4.39214e+06
4.3414e+06
4.29056e+06
4.23961e+06
4.18857e+06
4.13743e+06
4.08621e+06
4.03491e+06
3.98352e+06
3.93207e+06
3.88054e+06
3.82896e+06