/*--------------------------------*- C++ -*----------------------------------*\
  =========                 |
  \\      /  F ield         | OpenFOAM: The Open Source CFD Toolbox
   \\    /   O peration     | Website:  https://openfoam.org
    \\  /    A nd           | Version:  7
     \\/     M anipulation  |
\*---------------------------------------------------------------------------*/
FoamFile
{
    version     2.0;
    format      ascii;
    class       volScalarField;
    location    "0.029";
    object      s_0;
}
// * * * * * * * * * * * * * * * * * * * * * * * * * * * * * * * * * * * * * //

dimensions      [0 0 0 0 0 0 0];

internalField   nonuniform List<scalar> 
12225
(
1
1
1
1
1
1
1
1
1
1
1
1
1
1
1
1
1
1
1
1
1
1
1
1
1
1
1
1
1
1
1
1
1
1
1
1
1
1
1
1
1
1
1
1
1
1
1
1
1
1
1
1
1
1
1
1
1
1
1
1
1
1
1
1
1
1
1
1
1
1
1
1
1
1
1
1
1
1
1
1
1
1
1
1
1
1
1
1
1
1
1
1
1
1
1
1
1
1
1
1
1
1
1
1
1
1
1
1
1
1
1
1
1
1
1
1
1
1
1
1
1
1
1
1
1
1
1
1
1
1
1
1
1
1
1
1
1
1
1
1
1
1
1
1
1
1
1
1
1
1
1
1
1
1
1
1
1
1
1
1
1
1
1
1
1
1
1
1
1
1
1
1
1
1
1
1
1
1
1
1
1
1
1
1
1
1
1
1
1
1
1
1
1
1
1
1
1
1
1
1
1
1
1
1
1
1
1
1
1
1
1
1
1
1
1
1
1
1
1
1
1
1
1
1
1
1
1
1
1
1
1
1
1
1
1
1
1
1
1
1
1
1
1
1
1
1
1
1
1
1
1
1
1
1
1
1
1
1
1
1
1
1
1
1
1
1
1
1
1
1
1
1
1
1
1
1
1
1
1
1
1
1
1
1
1
1
1
1
1
1
1
1
1
1
1
1
1
1
1
1
1
1
1
1
1
1
1
1
1
1
1
1
1
1
1
1
1
1
1
1
1
1
1
1
1
1
1
1
1
1
1
1
1
1
1
1
1
1
1
1
1
1
1
1
1
1
1
1
1
1
1
1
1
1
1
1
1
1
1
1
1
1
1
1
1
1
1
1
1
1
1
1
1
1
1
1
1
1
1
1
1
1
1
1
1
1
1
1
1
1
1
1
1
1
1
1
1
1
1
1
1
1
1
1
1
1
1
1
1
1
1
1
1
1
1
1
1
1
1
1
1
1
1
1
1
1
1
1
1
1
1
1
1
1
1
1
1
1
1
1
1
1
1
1
1
1
1
1
1
1
1
1
1
1
1
1
1
1
1
1
1
1
1
1
1
1
1
1
1
1
1
1
1
1
1
1
1
1
1
1
1
1
1
1
1
1
1
1
1
1
1
1
1
1
1
1
1
1
1
1
1
1
1
1
1
1
1
1
1
1
1
1
1
1
1
1
1
1
1
1
1
1
1
1
1
1
1
1
1
1
1
1
1
1
1
1
1
1
1
1
2.82993e-15
8.12652e-14
8.6933e-13
5.6444e-12
2.66183e-11
9.7896e-11
2.92128e-10
7.30458e-10
1.6029e-09
3.39965e-09
7.77738e-09
1.9579e-08
3.43936e-08
3.44338e-08
8.6364e-09
-3.16689e-10
5.86644e-09
8.06038e-08
5.54393e-07
3.19504e-06
1.5768e-05
6.35388e-05
0.00019729
0.000466284
0.000895307
0.00147459
0.00217796
0.00299649
0.00394818
0.00506302
0.00636616
0.00787079
0.00957435
0.0114602
0.0135112
0.0157163
0.0180468
0.0204424
0.0228634
0.0253374
0.0278951
0.0304858
0.0330315
0.0355508
0.0381215
0.0407024
0.0431705
0.0447589
0.0457649
0.0460442
0.045751
0.0445539
0.0430749
0.0410147
0.0387443
0.0360428
0.0335896
0.0301923
0.0274546
0.0245812
0.0214451
0.0186725
0.0158894
0.0133711
0.0108308
0.00874846
0.00679275
0.00518085
0.00384716
0.00277923
0.00194966
0.00132691
0.000875463
0.000560372
0.000347779
0.000208993
0.000121566
6.84775e-05
3.73512e-05
1.97304e-05
1.00946e-05
5.00292e-06
2.40214e-06
1.11759e-06
5.03885e-07
2.20196e-07
9.32751e-08
3.8304e-08
1.52503e-08
5.887e-09
2.20344e-09
7.99668e-10
2.81396e-10
9.60119e-11
3.17631e-11
1.01883e-11
3.16848e-12
9.55327e-13
2.79239e-13
7.91182e-14
2.17262e-14
5.78085e-15
1.48983e-15
3.7169e-16
8.96957e-17
2.0912e-17
4.70225e-18
1.017e-18
2.10776e-19
4.16001e-20
7.73575e-21
1.32856e-21
2.07488e-22
3.18346e-23
4.79818e-24
7.1234e-25
9.2375e-26
2.08893e-26
4.66744e-27
1.03103e-27
2.25429e-28
4.88785e-29
1.0536e-29
2.26469e-30
5.01589e-31
9.93882e-32
1.10272e-32
1.09898e-33
2.0744e-34
4.12791e-35
8.39238e-36
1.6964e-36
3.38531e-37
6.81618e-38
1.0402e-38
8.31542e-40
8.88227e-41
1.76301e-41
3.3085e-42
6.00343e-43
1.0644e-43
1.89567e-44
2.20098e-45
1.59519e-46
1.94858e-47
3.30964e-48
5.14895e-49
7.72095e-50
1.11696e-50
1.56462e-51
2.16368e-52
2.98308e-53
2.6058e-54
2.05587e-55
2.13314e-56
2.44307e-57
3.26632e-58
4.53129e-59
6.20833e-60
8.39031e-61
1.07404e-61
6.34772e-63
3.79075e-64
4.74608e-65
6.13229e-66
7.80732e-67
9.73994e-68
1.17844e-68
8.61268e-70
3.86535e-71
3.94314e-72
4.40228e-73
5.01039e-74
5.61661e-75
6.06599e-76
4.85985e-77
1.84115e-78
1.24709e-79
1.26283e-80
-9.7857e-82
8.33548e-14
2.37466e-12
2.79727e-11
2.01944e-10
1.05117e-09
4.22564e-09
1.36555e-08
3.63114e-08
8.19066e-08
1.69352e-07
3.79087e-07
1.0574e-06
2.84417e-06
6.96857e-06
1.57012e-05
3.29077e-05
6.50792e-05
0.000122553
0.000221448
0.000386255
0.000652933
0.00107089
0.00170028
0.00260305
0.00384408
0.00550536
0.00771098
0.0106438
0.0145455
0.0197072
0.0264569
0.0351416
0.0461043
0.0596723
0.0761554
0.0958275
0.118852
0.145165
0.174293
0.205324
0.237063
0.268259
0.297738
0.324608
0.347289
0.36516
0.379556
0.387693
0.39171
0.392992
0.388994
0.38197
0.371078
0.358548
0.342514
0.324529
0.3055
0.28274
0.260234
0.237657
0.212541
0.190252
0.168691
0.147926
0.126536
0.106446
0.0871268
0.0696615
0.0543665
0.0414777
0.0309142
0.0223349
0.0156439
0.0106411
0.00703042
0.00449749
0.00278608
0.00167232
0.000972302
0.000547538
0.000298723
0.000157919
8.09125e-05
4.0192e-05
1.93616e-05
9.04825e-06
4.10351e-06
1.80661e-06
7.72402e-07
3.20805e-07
1.29482e-07
5.08045e-08
1.93853e-08
7.19585e-09
2.59954e-09
9.14299e-10
3.13208e-10
1.04548e-10
3.40187e-11
1.07952e-11
3.34224e-12
1.01e-12
2.98034e-13
8.59085e-14
2.41991e-14
6.6636e-15
1.79437e-15
4.72654e-16
1.21824e-16
3.07321e-17
7.58978e-18
1.83544e-18
4.34708e-19
1.00841e-19
2.2916e-20
5.10255e-21
1.1134e-21
2.38113e-22
4.99157e-23
1.02577e-23
2.06652e-24
4.08153e-25
7.90308e-26
1.50599e-26
2.82721e-27
5.22792e-28
9.52108e-29
1.70769e-29
3.01633e-30
5.24666e-31
8.98687e-32
1.51581e-32
2.51757e-33
4.11738e-34
6.63072e-35
1.05149e-35
1.64195e-36
2.52486e-37
3.82335e-38
5.70159e-39
8.37356e-40
1.21117e-40
1.72542e-41
2.42106e-42
3.34619e-43
4.55563e-44
6.10964e-45
8.07178e-46
1.05057e-46
1.34708e-47
1.70175e-48
2.11809e-49
2.5975e-50
3.13863e-51
3.73694e-52
4.38426e-53
5.06867e-54
5.7746e-55
6.48323e-56
7.1732e-57
7.82158e-58
8.40508e-59
8.90138e-60
9.29052e-61
9.55613e-62
9.68661e-63
9.67573e-64
9.52332e-65
9.23481e-66
8.82156e-67
8.29887e-68
7.68692e-69
7.00619e-70
6.28156e-71
5.53226e-72
4.78431e-73
4.04834e-74
3.35066e-75
2.68584e-76
1.95007e-77
1.57608e-12
4.42597e-11
5.44433e-10
4.18769e-09
2.35592e-08
1.04807e-07
3.87608e-07
1.22995e-06
3.39715e-06
8.33575e-06
1.85028e-05
3.77435e-05
7.19994e-05
0.000130169
0.000225322
0.000376498
0.000611073
0.000967648
0.00149931
0.00227702
0.00339315
0.00496676
0.00715689
0.0101822
0.014359
0.0201509
0.0282269
0.0395287
0.055354
0.0774476
0.108092
0.150207
0.20741
0.283735
0.381663
0.466904
0.544678
0.625997
0.685763
0.736993
0.784258
0.809755
0.839761
0.854778
0.866488
0.877852
0.882711
0.886708
0.889189
0.890445
0.89086
0.888363
0.884969
0.879439
0.872944
0.862469
0.850389
0.834712
0.816058
0.793042
0.764139
0.729964
0.686744
0.638284
0.583393
0.52303
0.457479
0.388608
0.319414
0.254645
0.201768
0.156374
0.116799
0.0842846
0.0591572
0.0403375
0.0265421
0.0168968
0.0104139
0.0062052
0.00357624
0.00199394
0.00107567
0.000561665
0.000283959
0.000139056
6.59871e-05
3.03567e-05
1.35447e-05
5.86409e-06
2.46459e-06
1.00602e-06
3.99014e-07
1.53852e-07
5.76992e-08
2.10575e-08
7.48245e-09
2.59006e-09
8.7385e-10
2.87512e-10
9.22981e-11
2.89248e-11
8.85326e-12
2.64786e-12
7.74181e-13
2.21375e-13
6.19335e-14
1.69588e-14
4.54664e-15
1.19385e-15
3.07115e-16
7.74225e-17
1.91318e-17
4.63516e-18
1.10127e-18
2.56646e-19
5.86792e-20
1.31651e-20
2.89887e-21
6.26582e-22
1.32965e-22
2.77062e-23
5.6697e-24
1.13955e-24
2.24982e-25
4.36383e-26
8.31672e-27
1.55762e-27
2.87148e-28
5.21513e-29
9.33047e-30
1.64434e-30
2.85438e-31
4.88036e-32
8.21871e-33
1.36319e-33
2.22693e-34
3.583e-35
5.67773e-36
8.86117e-37
1.36207e-37
2.06207e-38
3.07476e-39
4.51577e-40
6.53245e-41
9.30797e-42
1.30642e-42
1.80623e-43
2.46002e-44
3.30064e-45
4.36282e-46
5.68146e-47
7.28946e-48
9.21487e-49
1.14778e-49
1.4087e-50
1.70368e-51
2.03039e-52
2.38457e-53
2.7599e-54
3.14803e-55
3.53884e-56
3.92071e-57
4.28111e-58
4.60717e-59
4.8865e-60
5.10776e-61
5.26162e-62
5.34094e-63
5.34199e-64
5.26332e-65
5.10822e-66
4.8804e-67
4.59044e-68
4.24415e-69
3.85941e-70
3.43812e-71
3.00725e-72
2.55622e-73
2.12461e-74
1.64602e-11
4.30629e-10
5.00087e-09
3.63592e-08
1.90753e-07
7.78487e-07
2.60442e-06
7.4803e-06
1.89764e-05
4.324e-05
8.98713e-05
0.000173085
0.000313303
0.00053931
0.00089142
0.0014256
0.00221858
0.00337413
0.0050311
0.00737508
0.0106585
0.0152387
0.0216448
0.0306775
0.0435574
0.0621449
0.0892752
0.129224
0.188297
0.275936
0.398846
0.5093
0.627878
0.721028
0.776974
0.835648
0.871477
0.901783
0.916651
0.931398
0.938783
0.945863
0.949173
0.951805
0.953338
0.954141
0.954531
0.956266
0.958274
0.961586
0.965387
0.968323
0.971486
0.974362
0.976993
0.978328
0.979492
0.980665
0.981043
0.97967
0.977355
0.973605
0.967974
0.959966
0.94847
0.932606
0.910476
0.879639
0.836698
0.777124
0.694917
0.597609
0.491608
0.383411
0.284705
0.209345
0.148372
0.100846
0.0664005
0.0422084
0.0258663
0.015306
0.00874195
0.00482147
0.00256892
0.0013229
0.000658761
0.000317382
0.000148022
6.6865e-05
2.92712e-05
1.2425e-05
5.117e-06
2.04573e-06
7.94426e-07
2.9984e-07
1.10058e-07
3.93112e-08
1.3672e-08
4.6327e-09
1.53028e-09
4.93052e-10
1.55035e-10
4.76e-11
1.42769e-11
4.18517e-12
1.19957e-12
3.36314e-13
9.22645e-14
2.47767e-14
6.51494e-15
1.67789e-15
4.23377e-16
1.04691e-16
2.5376e-17
6.03069e-18
1.40553e-18
3.2132e-19
7.20683e-20
1.58615e-20
3.42626e-21
7.26518e-22
1.5125e-22
3.09203e-23
6.20804e-24
1.22433e-24
2.37212e-25
4.51581e-26
8.44756e-27
1.55298e-27
2.80761e-28
4.99887e-29
8.76536e-30
1.51365e-30
2.57414e-31
4.31111e-32
7.11038e-33
1.1549e-33
1.84731e-34
2.90997e-35
4.5143e-36
6.89689e-37
1.03773e-37
1.53776e-38
2.2443e-39
3.22607e-40
4.56752e-41
6.36965e-42
8.74979e-43
1.18398e-43
1.57824e-44
2.07253e-45
2.68133e-46
3.41773e-47
4.29224e-48
5.31136e-49
6.47622e-50
7.78124e-51
9.21306e-52
1.07499e-52
1.23611e-53
1.40082e-54
1.56453e-55
1.72216e-56
1.86829e-57
1.99758e-58
2.1049e-59
2.18587e-60
2.23681e-61
2.25546e-62
2.2404e-63
2.19227e-64
2.11188e-65
2.00311e-66
1.86793e-67
1.71354e-68
1.54103e-69
1.36129e-70
1.172e-71
9.89098e-73
4.09694e-11
1.0404e-09
1.2075e-08
8.86562e-08
4.75761e-07
2.04001e-06
7.45877e-06
2.35814e-05
6.38142e-05
0.000147873
0.000301709
0.000562182
0.000980377
0.00161448
0.0025202
0.00375615
0.00549211
0.00829325
0.0124608
0.0183679
0.026592
0.0385824
0.0559328
0.0816003
0.120386
0.180271
0.27431
0.395244
0.513853
0.640679
0.719419
0.805263
0.851974
0.88198
0.900977
0.910575
0.915586
0.91751
0.917749
0.915901
0.90625
0.896557
0.885077
0.873674
0.864224
0.85913
0.857156
0.860275
0.869366
0.882124
0.895715
0.911929
0.928249
0.944009
0.957488
0.969027
0.975711
0.983196
0.987492
0.990592
0.992979
0.994271
0.995251
0.99568
0.995833
0.995126
0.993528
0.990698
0.985932
0.978211
0.965773
0.945795
0.913853
0.863169
0.783554
0.666299
0.530199
0.391727
0.275011
0.189419
0.124387
0.0787031
0.0479248
0.0280876
0.0158567
0.00862707
0.00452642
0.00229181
0.00112054
0.000529426
0.000241887
0.000106942
4.5785e-05
1.89951e-05
7.64207e-06
2.98364e-06
1.13125e-06
4.16825e-07
1.49363e-07
5.20859e-08
1.76879e-08
5.85306e-09
1.88845e-09
5.94415e-10
1.82628e-10
5.47968e-11
1.6064e-11
4.60311e-12
1.2898e-12
3.53529e-13
9.48229e-14
2.48957e-14
6.40016e-15
1.61152e-15
3.97533e-16
9.60983e-17
2.27703e-17
5.28974e-18
1.20505e-18
2.69263e-19
5.9025e-20
1.2696e-20
2.68009e-21
5.55351e-22
1.12979e-22
2.2569e-23
4.42777e-24
8.53268e-25
1.61541e-25
3.00499e-26
5.4931e-27
9.86944e-28
1.74545e-28
3.03927e-29
5.21042e-30
8.79476e-31
1.46161e-31
2.39167e-32
3.8534e-33
6.1132e-34
9.54956e-35
1.46893e-35
2.225e-36
3.31885e-37
4.87514e-38
7.05253e-39
1.00479e-39
1.40995e-40
1.94868e-41
2.65284e-42
3.55742e-43
4.69929e-44
6.1154e-45
7.84031e-46
9.90324e-47
1.23247e-47
1.51131e-48
1.8261e-49
2.17424e-50
2.55106e-51
2.94969e-52
3.36115e-53
3.77456e-54
4.17753e-55
4.55667e-56
4.89838e-57
5.18942e-58
5.41803e-59
5.57406e-60
5.65062e-61
5.64295e-62
5.55119e-63
5.37646e-64
5.12682e-65
4.80751e-66
4.43429e-67
4.01285e-68
3.56638e-69
3.09727e-70
2.63761e-71
8.21701e-11
2.32018e-09
2.79897e-08
2.08081e-07
1.09238e-06
4.31734e-06
1.35734e-05
3.62532e-05
8.97618e-05
0.000207736
0.000437327
0.000846183
0.00153546
0.00265391
0.00444323
0.00744566
0.0125286
0.0193316
0.0275917
0.0395059
0.0586594
0.0891504
0.13604
0.212234
0.331525
0.446423
0.565112
0.663593
0.759754
0.822559
0.863859
0.886605
0.895378
0.898308
0.898713
0.893382
0.874895
0.844931
0.799022
0.735831
0.680223
0.640758
0.597984
0.57689
0.561013
0.554026
0.551987
0.557501
0.569667
0.588694
0.61626
0.65456
0.703914
0.758324
0.814151
0.860477
0.898682
0.929494
0.950387
0.968163
0.979526
0.987013
0.992218
0.995541
0.997219
0.998243
0.998752
0.998971
0.999055
0.998769
0.998029
0.996509
0.99359
0.988068
0.977672
0.958265
0.922355
0.856996
0.743476
0.586672
0.42201
0.286446
0.188358
0.118215
0.0712726
0.0412456
0.0229383
0.0122697
0.00631803
0.00313463
0.00149979
0.000692633
0.000309017
0.000133307
5.56536e-05
2.25052e-05
8.82264e-06
3.3559e-06
1.23958e-06
4.44985e-07
1.55365e-07
5.27978e-08
1.74756e-08
5.63741e-09
1.77346e-09
5.44373e-10
1.63129e-10
4.77452e-11
1.36548e-11
3.81747e-12
1.04368e-12
2.79131e-13
7.30546e-14
1.87162e-14
4.69513e-15
1.1536e-15
2.7769e-16
6.55041e-17
1.51456e-17
3.43333e-18
7.63223e-19
1.66413e-19
3.55971e-20
7.47171e-21
1.53918e-21
3.11244e-22
6.17926e-23
1.20468e-23
2.30667e-24
4.33856e-25
8.01727e-26
1.45575e-26
2.59822e-27
4.5642e-28
7.89175e-29
1.34314e-29
2.2502e-30
3.71102e-31
6.02493e-32
9.62972e-33
1.51529e-33
2.34753e-34
3.58081e-35
5.37803e-36
7.95344e-37
1.15824e-37
1.66101e-38
2.34584e-39
3.26288e-40
4.46994e-41
6.03147e-42
8.01657e-43
1.04959e-43
1.35377e-44
1.7202e-45
2.15351e-46
2.65626e-47
3.22826e-48
3.86601e-49
4.56213e-50
5.30519e-51
6.07963e-52
6.86603e-53
7.64181e-54
8.38206e-55
9.06091e-56
9.65263e-57
1.01336e-57
1.04831e-58
1.06857e-59
1.07301e-60
1.06138e-61
1.03371e-62
9.91195e-64
9.34865e-65
8.67269e-66
7.89965e-67
7.06676e-68
6.19051e-69
5.32077e-70
6.52645e-11
2.02947e-09
2.56078e-08
2.00206e-07
1.14082e-06
5.18638e-06
1.92912e-05
6.01693e-05
0.000159511
0.000372359
0.000801126
0.00160132
0.00298912
0.00522324
0.00854321
0.0131184
0.0196316
0.0308113
0.0483959
0.0764079
0.124228
0.206185
0.324517
0.453307
0.558434
0.659625
0.745353
0.814876
0.859091
0.879312
0.887685
0.889862
0.888476
0.87326
0.83993
0.774988
0.671692
0.593178
0.525503
0.483984
0.462172
0.4442
0.436281
0.433041
0.432335
0.435636
0.439183
0.442178
0.442858
0.442912
0.44199
0.441451
0.445822
0.458694
0.49265
0.558661
0.650448
0.747504
0.825942
0.883624
0.921813
0.950503
0.969059
0.982237
0.990098
0.994914
0.997476
0.998769
0.999358
0.999628
0.99974
0.999779
0.999701
0.999441
0.998808
0.997362
0.994122
0.986943
0.971213
0.93714
0.864625
0.727923
0.544858
0.368559
0.240153
0.149091
0.0885758
0.050395
0.0274932
0.0143988
0.00724748
0.00350994
0.00163739
0.0007366
0.000319899
0.000134266
5.45195e-05
2.14397e-05
8.17325e-06
3.02341e-06
1.08621e-06
3.79331e-07
1.2887e-07
4.2622e-08
1.37329e-08
4.3133e-09
1.32138e-09
3.95046e-10
1.15314e-10
3.28799e-11
9.16168e-12
2.49566e-12
6.64847e-13
1.73273e-13
4.41933e-14
1.10339e-14
2.6976e-15
6.45984e-16
1.51557e-16
3.48459e-17
7.85337e-18
1.73536e-18
3.76057e-19
7.9936e-20
1.66705e-20
3.4116e-21
6.85271e-22
1.35127e-22
2.61625e-23
4.97454e-24
9.29051e-25
1.70456e-25
3.07282e-26
5.44751e-27
9.50325e-28
1.63146e-28
2.7563e-29
4.58297e-30
7.50002e-31
1.20808e-31
1.91546e-32
2.9896e-33
4.59349e-34
6.94837e-35
1.03481e-35
1.51738e-36
2.19086e-37
3.11489e-38
4.3612e-39
6.01353e-40
8.16656e-41
1.09235e-41
1.43919e-42
1.86783e-43
2.38805e-44
3.00786e-45
3.73255e-46
4.5636e-47
5.49773e-48
6.5261e-49
7.6337e-50
8.79919e-51
9.99515e-52
1.11888e-52
1.23433e-53
1.34195e-54
1.43776e-55
1.51801e-56
1.5793e-57
1.61897e-58
1.63499e-59
1.6265e-60
1.5933e-61
1.53666e-62
1.45814e-63
1.36103e-64
1.24818e-65
1.12452e-66
9.93707e-68
8.62323e-69
3.31828e-11
1.30684e-09
1.8556e-08
1.59129e-07
9.70414e-07
4.55911e-06
1.76138e-05
5.77355e-05
0.000163818
0.000416878
0.000951503
0.00197264
0.00378699
0.00693302
0.0123848
0.0216
0.0361342
0.0582571
0.0944167
0.154068
0.252922
0.386117
0.520277
0.625343
0.710417
0.783477
0.839015
0.867939
0.88049
0.883893
0.884102
0.873469
0.841629
0.770086
0.642015
0.541403
0.483927
0.447004
0.42638
0.41762
0.414453
0.413799
0.416785
0.421736
0.425284
0.431819
0.438031
0.445575
0.450021
0.451986
0.45103
0.439539
0.422801
0.400052
0.386458
0.379702
0.380795
0.422083
0.524083
0.656774
0.777588
0.855026
0.905912
0.944713
0.967746
0.982756
0.991175
0.99572
0.998026
0.999137
0.999633
0.999829
0.999907
0.999936
0.999938
0.999892
0.999736
0.999305
0.998152
0.995134
0.987383
0.967857
0.919578
0.80479
0.614103
0.415052
0.266045
0.162378
0.0945602
0.0526174
0.0280193
0.0142998
0.00700453
0.0032978
0.00149442
0.000652711
0.00027513
0.000112067
4.41632e-05
1.68572e-05
6.239e-06
2.24122e-06
7.82157e-07
2.65408e-07
8.76359e-08
2.81781e-08
8.82847e-09
2.69691e-09
8.03699e-10
2.3377e-10
6.63978e-11
1.84239e-11
4.99627e-12
1.32469e-12
3.43511e-13
8.71513e-14
2.16398e-14
5.26032e-15
1.25221e-15
2.91992e-16
6.67129e-17
1.49384e-17
3.27918e-18
7.05823e-19
1.49004e-19
3.08578e-20
6.2704e-21
1.25048e-21
2.44793e-22
4.70487e-23
8.87981e-24
1.64606e-24
2.99743e-25
5.36443e-26
9.44423e-27
1.63574e-27
2.78742e-28
4.67368e-29
7.71109e-30
1.252e-30
2.00056e-31
3.14621e-32
4.87018e-33
7.42076e-34
1.11308e-34
1.64366e-35
2.38963e-36
3.42067e-37
4.8215e-38
6.69226e-39
9.1477e-40
1.23148e-40
1.63286e-41
2.13255e-42
2.74352e-43
3.47697e-44
4.34111e-45
5.33991e-46
6.47172e-47
7.72824e-48
9.09357e-49
1.05439e-49
1.20473e-50
1.35648e-51
1.50515e-52
1.64586e-53
1.77356e-54
1.88334e-55
1.97069e-56
2.03184e-57
2.06386e-58
2.0651e-59
2.03493e-60
1.97434e-61
1.88514e-62
1.77088e-63
1.63541e-64
1.48434e-65
1.32309e-66
1.15929e-67
1.12713e-11
6.61784e-10
1.09835e-08
1.04679e-07
6.91422e-07
3.48804e-06
1.44e-05
5.06268e-05
0.000153993
0.00040864
0.000978122
0.00212902
0.00429966
0.00813986
0.0147009
0.0259782
0.045676
0.0796726
0.1411
0.249688
0.394472
0.540577
0.652572
0.737511
0.795251
0.844651
0.867786
0.877324
0.879847
0.878981
0.863007
0.816286
0.709071
0.571416
0.49299
0.442573
0.419627
0.408795
0.404229
0.402051
0.400311
0.399967
0.401119
0.40382
0.40611
0.411919
0.423965
0.437752
0.457577
0.474694
0.494609
0.505019
0.509275
0.487307
0.444794
0.382808
0.347838
0.330085
0.32373
0.360835
0.471043
0.632005
0.764318
0.857987
0.915924
0.954245
0.97635
0.98839
0.994542
0.997536
0.998927
0.999551
0.99982
0.999927
0.999965
0.99998
0.999983
0.999972
0.99992
0.999748
0.999208
0.997558
0.992657
0.978515
0.938825
0.830317
0.62516
0.414911
0.260631
0.155335
0.088117
0.0476721
0.0246438
0.0121954
0.00578772
0.00263877
0.00115771
0.000489538
0.000199807
7.88263e-05
3.00973e-05
1.1135e-05
3.99609e-06
1.39247e-06
4.7156e-07
1.55326e-07
4.97999e-08
1.55521e-08
4.73363e-09
1.40505e-09
4.06924e-10
1.15045e-10
3.17653e-11
8.56944e-12
2.25964e-12
5.82611e-13
1.46934e-13
3.62593e-14
8.75807e-15
2.07121e-15
4.79728e-16
1.08854e-16
2.42042e-17
5.2753e-18
1.12726e-18
2.36226e-19
4.85579e-20
9.79306e-21
1.9382e-21
3.76523e-22
7.18102e-23
1.34483e-23
2.47351e-24
4.46951e-25
7.94197e-26
1.38796e-26
2.38588e-27
4.03445e-28
6.71153e-29
1.0985e-29
1.76911e-30
2.80364e-31
4.37255e-32
6.71164e-33
1.014e-33
1.50796e-34
2.20763e-35
3.18181e-36
4.5151e-37
6.30867e-38
8.67995e-39
1.17608e-39
1.56937e-40
2.06259e-41
2.6701e-42
3.40486e-43
4.27715e-44
5.29318e-45
6.45373e-46
7.75282e-47
9.17665e-48
1.07029e-48
1.23007e-49
1.3931e-50
1.55476e-51
1.70995e-52
1.85327e-53
1.97935e-54
2.08312e-55
2.16019e-56
2.20703e-57
2.22131e-58
2.20195e-59
2.14938e-60
2.06525e-61
1.95279e-62
1.81617e-63
1.66092e-64
1.49319e-65
1.32085e-66
1.74247e-12
2.31826e-10
5.15183e-09
5.81737e-08
4.41674e-07
2.50322e-06
1.12042e-05
4.16659e-05
0.000134269
0.000382687
0.000983082
0.00235423
0.0051753
0.0105383
0.0200335
0.0370335
0.0682672
0.125603
0.222412
0.358176
0.513337
0.646628
0.741833
0.797185
0.840571
0.863886
0.873278
0.876172
0.875283
0.860551
0.807461
0.690931
0.562105
0.473002
0.430765
0.409357
0.399655
0.3945
0.384417
0.373589
0.357352
0.332809
0.303006
0.28709
0.278946
0.277399
0.29407
0.31106
0.347339
0.390798
0.449334
0.50228
0.528627
0.542128
0.547983
0.524274
0.44029
0.346555
0.304036
0.289807
0.297285
0.350244
0.490773
0.681339
0.811303
0.894695
0.945223
0.973151
0.987555
0.994514
0.997646
0.999005
0.999584
0.999831
0.999935
0.999975
0.999989
0.999994
0.999994
0.999989
0.999962
0.99986
0.999491
0.99821
0.993923
0.980134
0.937351
0.809431
0.580753
0.374176
0.228064
0.131733
0.072299
0.0377963
0.0188655
0.00901072
0.0041271
0.0018163
0.00076946
0.000314327
0.000124008
4.73152e-05
1.7482e-05
6.26214e-06
2.17694e-06
7.35144e-07
2.41362e-07
7.71027e-08
2.39818e-08
7.26744e-09
2.14698e-09
6.18663e-10
1.73973e-10
4.77658e-11
1.281e-11
3.35709e-12
8.60054e-13
2.15477e-13
5.28135e-14
1.26679e-14
2.97452e-15
6.83948e-16
1.54046e-16
3.39956e-17
7.35294e-18
1.55912e-18
3.24182e-19
6.61144e-20
1.32283e-20
2.59722e-21
5.00504e-22
9.46875e-23
1.75893e-23
3.20912e-24
5.75549e-25
1.01494e-25
1.75998e-26
3.00146e-27
5.03452e-28
8.30677e-29
1.34833e-29
2.15325e-30
3.38347e-31
5.23169e-32
7.96109e-33
1.19231e-33
1.75765e-34
2.55057e-35
3.64368e-36
5.12478e-37
7.09704e-38
9.67789e-39
1.29962e-39
1.71878e-40
2.23883e-41
2.87243e-42
3.63022e-43
4.5196e-44
5.54341e-45
6.69866e-46
7.97545e-47
9.35621e-48
1.08153e-48
1.23194e-49
1.38281e-50
1.52956e-51
1.66724e-52
1.79085e-53
1.89555e-54
1.97699e-55
2.03156e-56
2.0567e-57
2.05094e-58
2.01419e-59
1.94762e-60
1.85374e-61
1.73626e-62
1.59994e-63
1.45048e-64
1.29504e-65
3.00793e-13
6.06646e-11
1.57615e-09
2.28172e-08
2.11352e-07
1.41998e-06
7.40827e-06
3.09272e-05
0.000107609
0.000328028
0.000896888
0.00220286
0.00495889
0.0103843
0.0211163
0.041898
0.0811049
0.152032
0.265586
0.418174
0.57989
0.713739
0.787728
0.828833
0.856068
0.867734
0.871775
0.871276
0.860135
0.82249
0.72185
0.59223
0.485652
0.428011
0.401053
0.386844
0.378592
0.364339
0.337789
0.295312
0.245817
0.206156
0.184766
0.169045
0.162359
0.160888
0.172828
0.189167
0.216449
0.251095
0.293676
0.369038
0.472918
0.538494
0.563619
0.573232
0.555553
0.480422
0.343856
0.287144
0.268603
0.270739
0.303762
0.418676
0.63862
0.79554
0.892271
0.94675
0.975056
0.988953
0.995386
0.99816
0.999282
0.999717
0.999887
0.999955
0.999983
0.999994
0.999997
0.999998
0.999998
0.999993
0.99997
0.999875
0.999493
0.998036
0.992737
0.974355
0.913165
0.731131
0.489249
0.304489
0.178712
0.099276
0.0523678
0.0263086
0.0126219
0.00579747
0.00255529
0.00108303
0.000442238
0.000174273
6.63771e-05
2.44686e-05
8.74032e-06
3.0286e-06
1.019e-06
3.33197e-07
1.05967e-07
3.28013e-08
9.88898e-09
2.90547e-09
8.32394e-10
2.32658e-10
6.34739e-11
1.69107e-11
4.40158e-12
1.11973e-12
2.78513e-13
6.77594e-14
1.61302e-14
3.75842e-15
8.57446e-16
1.91594e-16
4.1943e-17
8.99841e-18
1.89243e-18
3.90247e-19
7.89284e-20
1.56606e-20
3.04906e-21
5.82645e-22
1.09299e-22
2.0133e-23
3.64433e-24
6.48434e-25
1.13424e-25
1.95072e-26
3.29903e-27
5.48696e-28
8.97594e-29
1.44437e-29
2.28652e-30
3.56133e-31
5.45799e-32
8.23155e-33
1.2218e-33
1.78494e-34
2.56684e-35
3.63379e-36
5.0646e-37
6.95013e-38
9.39154e-39
1.24972e-39
1.63777e-40
2.11394e-41
2.68756e-42
3.36576e-43
4.15235e-44
5.04683e-45
6.04339e-46
7.13022e-47
8.28907e-48
9.49527e-49
1.07182e-49
1.19223e-50
1.30684e-51
1.41162e-52
1.50257e-53
1.576e-54
1.62877e-55
1.65846e-56
1.66359e-57
1.64367e-58
1.59934e-59
1.53227e-60
1.44523e-61
1.34179e-62
1.22643e-63
1.10489e-64
6.1727e-14
1.63384e-11
4.63137e-10
7.49683e-09
7.80692e-08
5.9316e-07
3.51264e-06
1.68568e-05
6.76231e-05
0.000232488
0.000693586
0.00182034
0.00431392
0.00941661
0.019726
0.0397474
0.0781336
0.149551
0.273465
0.447916
0.633
0.757677
0.813663
0.842581
0.859189
0.866946
0.86913
0.865056
0.842369
0.765016
0.642865
0.525953
0.445569
0.406085
0.38756
0.378642
0.365537
0.33291
0.277927
0.220532
0.173897
0.144363
0.126763
0.11512
0.109518
0.107933
0.117228
0.133728
0.161088
0.197791
0.23147
0.265298
0.326242
0.465563
0.553463
0.581488
0.586289
0.563216
0.451557
0.315404
0.267679
0.257487
0.264028
0.312237
0.481915
0.705618
0.85011
0.928037
0.966373
0.984691
0.993287
0.997196
0.998888
0.999579
0.999846
0.999943
0.999979
0.999992
0.999997
0.999999
0.999999
0.999999
0.999998
0.999992
0.999961
0.999823
0.999235
0.996868
0.987836
0.95507
0.840891
0.592405
0.375203
0.223025
0.125017
0.0663544
0.0334668
0.0160918
0.00739766
0.00325995
0.00138024
0.000562618
0.000221193
8.40072e-05
3.08646e-05
1.09836e-05
3.79004e-06
1.26939e-06
4.13026e-07
1.30661e-07
4.02182e-08
1.2053e-08
3.51918e-09
1.00163e-09
2.78058e-10
7.53255e-11
1.99223e-11
5.14662e-12
1.29921e-12
3.20621e-13
7.73798e-14
1.82705e-14
4.22195e-15
9.55141e-16
2.11619e-16
4.59316e-17
9.76939e-18
2.0368e-18
4.16364e-19
8.34751e-20
1.64176e-20
3.16837e-21
6.00115e-22
1.11588e-22
2.03841e-23
3.65912e-24
6.45564e-25
1.11954e-25
1.90873e-26
3.19968e-27
5.27454e-28
8.55128e-29
1.36363e-29
2.13912e-30
3.30135e-31
5.01317e-32
7.49109e-33
1.10162e-33
1.59448e-34
2.27167e-35
3.18605e-36
4.39926e-37
5.9809e-38
8.00663e-39
1.05552e-39
1.3704e-40
1.75238e-41
2.20721e-42
2.73855e-43
3.34725e-44
4.03065e-45
4.78194e-46
5.58985e-47
6.43846e-48
7.30749e-49
8.1728e-50
9.00743e-51
9.78277e-52
1.04702e-52
1.10425e-53
1.14758e-54
1.17512e-55
1.18557e-56
1.17834e-57
1.15364e-58
1.11241e-59
1.05642e-60
9.88023e-62
9.10256e-63
8.27163e-64
3.35297e-13
3.26328e-12
1.35018e-10
2.40241e-09
2.73702e-08
2.24947e-07
1.44373e-06
7.62863e-06
3.4004e-05
0.000128538
0.000415375
0.00117765
0.00302332
0.00725672
0.0161262
0.0336813
0.0687785
0.13752
0.259143
0.4342
0.625706
0.757678
0.816542
0.843389
0.858232
0.864822
0.864604
0.851798
0.814225
0.72888
0.606034
0.503851
0.429145
0.395946
0.380276
0.366445
0.336425
0.28416
0.221333
0.167771
0.132042
0.109202
0.0931831
0.0826053
0.0782771
0.0779081
0.0851854
0.097242
0.117613
0.156299
0.205522
0.238367
0.276465
0.361542
0.498606
0.57947
0.597101
0.590301
0.529007
0.372731
0.280051
0.256709
0.258835
0.289241
0.42453
0.671301
0.83555
0.922087
0.964035
0.983677
0.992779
0.996927
0.998751
0.999515
0.999819
0.999935
0.999977
0.999991
0.999997
0.999999
1
1
1
0.999999
0.999997
0.999985
0.999922
0.999632
0.998365
0.99315
0.972847
0.897518
0.674076
0.431816
0.258846
0.14587
0.0776483
0.0392071
0.018848
0.00865429
0.00380618
0.00160732
0.000653139
0.000255861
9.67851e-05
3.54029e-05
1.25384e-05
4.30432e-06
1.43371e-06
4.63772e-07
1.45811e-07
4.45906e-08
1.32729e-08
3.848e-09
1.08721e-09
2.99532e-10
8.05109e-11
2.11235e-11
5.41229e-12
1.35487e-12
3.31515e-13
7.93182e-14
1.85643e-14
4.25188e-15
9.53317e-16
2.09312e-16
4.50188e-17
9.48795e-18
1.96001e-18
3.96986e-19
7.88573e-20
1.53664e-20
2.93812e-21
5.51387e-22
1.01628e-22
1.84016e-23
3.27383e-24
5.72387e-25
9.8361e-26
1.66158e-26
2.7596e-27
4.50671e-28
7.23796e-29
1.14333e-29
1.77656e-30
2.71576e-31
4.08466e-32
6.04536e-33
8.80514e-34
1.26224e-34
1.78109e-35
2.47406e-36
3.3834e-37
4.55572e-38
6.04031e-39
7.88673e-40
1.01416e-40
1.28446e-41
1.60241e-42
1.96922e-43
2.38405e-44
2.84355e-45
3.34163e-46
3.86927e-47
4.41464e-48
4.96333e-49
5.49892e-50
6.00366e-51
6.45944e-52
6.84876e-53
7.15586e-54
7.36766e-55
7.47475e-56
7.47197e-57
7.35913e-58
7.14068e-59
6.82642e-60
6.42978e-61
5.96889e-62
5.46885e-63
1.92537e-06
6.37469e-08
1.42118e-09
6.45206e-10
6.9561e-09
6.88568e-08
5.33124e-07
3.04157e-06
1.46573e-05
6.01187e-05
0.000210755
0.000645932
0.00178782
0.00459282
0.0109124
0.0243684
0.0524987
0.111414
0.223911
0.391533
0.592548
0.743112
0.810989
0.840781
0.855396
0.860009
0.857526
0.841727
0.798621
0.702252
0.584834
0.495895
0.426891
0.39059
0.37374
0.361557
0.336689
0.286087
0.223367
0.169002
0.131583
0.105662
0.0875352
0.0739543
0.0675779
0.0689857
0.0760296
0.0878953
0.104828
0.138897
0.192527
0.231011
0.263774
0.328587
0.461909
0.568128
0.604789
0.603287
0.561545
0.412506
0.302803
0.263542
0.262467
0.28844
0.413201
0.667257
0.836994
0.927494
0.96915
0.986686
0.994094
0.997369
0.998861
0.999533
0.99982
0.999934
0.999977
0.999992
0.999997
0.999999
1
1
1
1
1
0.999999
0.999992
0.999956
0.999779
0.998956
0.995367
0.980605
0.923032
0.725424
0.468457
0.281789
0.158986
0.0845807
0.0426298
0.0204386
0.00935382
0.00409837
0.00172353
0.000697199
0.000271796
0.000102279
3.7206e-05
1.30999e-05
4.46933e-06
1.47901e-06
4.75171e-07
1.48334e-07
4.50273e-08
1.33003e-08
3.82546e-09
1.07204e-09
2.92883e-10
7.805e-11
2.02988e-11
5.1547e-12
1.27872e-12
3.1001e-13
7.34844e-14
1.70376e-14
3.8653e-15
8.58384e-16
1.86662e-16
3.97609e-17
8.29886e-18
1.69777e-18
3.40536e-19
6.69874e-20
1.29266e-20
2.44774e-21
4.55092e-22
8.30981e-23
1.49048e-23
2.62652e-24
4.54816e-25
7.74037e-26
1.29487e-26
2.12959e-27
3.44378e-28
5.47647e-29
8.5655e-30
1.31779e-30
1.99451e-31
2.97011e-32
4.35217e-33
6.27604e-34
8.90754e-35
1.24442e-35
1.71143e-36
2.31726e-37
3.08927e-38
4.05545e-39
5.24283e-40
6.67528e-41
8.37119e-42
1.03407e-42
1.25833e-43
1.50849e-44
1.78168e-45
2.07338e-46
2.37746e-47
2.68629e-48
2.99101e-49
3.28188e-50
3.54877e-51
3.78173e-52
3.97157e-53
4.11046e-54
4.1925e-55
4.21404e-56
4.17419e-57
4.07464e-58
3.92009e-59
3.71734e-60
3.47588e-61
3.20956e-62
0.00126316
0.000125801
1.11452e-05
1.10881e-06
1.11669e-07
4.35954e-08
1.45591e-07
1.01149e-06
5.45677e-06
2.41382e-05
9.13102e-05
0.00030228
0.000900392
0.00246864
0.00626493
0.0149
0.0336665
0.0732341
0.152804
0.313451
0.519827
0.699091
0.791369
0.832126
0.850411
0.85553
0.854039
0.842288
0.804452
0.712085
0.594177
0.504852
0.434429
0.394095
0.374753
0.363231
0.342969
0.300689
0.241836
0.18604
0.144761
0.116112
0.0971354
0.0825009
0.0755407
0.076215
0.0799157
0.0904336
0.10637
0.137611
0.190793
0.236753
0.266117
0.322689
0.452415
0.565918
0.616426
0.618444
0.576474
0.427911
0.313164
0.279613
0.280385
0.320997
0.489634
0.754596
0.900412
0.962554
0.98604
0.994736
0.997929
0.999133
0.999614
0.999821
0.999917
0.999964
0.999986
0.999995
0.999998
0.999999
1
1
1
1
1
1
0.999999
0.999994
0.999969
0.999834
0.999183
0.996219
0.983527
0.932183
0.745102
0.482204
0.289646
0.162911
0.0863101
0.0432961
0.0206529
0.00940181
0.00409675
0.00171302
0.000688844
0.000266882
9.97842e-05
3.60549e-05
1.26058e-05
4.26944e-06
1.40218e-06
4.46957e-07
1.38397e-07
4.16599e-08
1.22e-08
3.47808e-09
9.65908e-10
2.61461e-10
6.9024e-11
1.77806e-11
4.47166e-12
1.09844e-12
2.63678e-13
6.18799e-14
1.42032e-14
3.18977e-15
7.01189e-16
1.50929e-16
3.18214e-17