/*--------------------------------*- C++ -*----------------------------------*\
  =========                 |
  \\      /  F ield         | OpenFOAM: The Open Source CFD Toolbox
   \\    /   O peration     | Website:  https://openfoam.org
    \\  /    A nd           | Version:  7
     \\/     M anipulation  |
\*---------------------------------------------------------------------------*/
FoamFile
{
    version     2.0;
    format      ascii;
    class       volSymmTensorField;
    location    "0.029";
    object      UPrime2Mean;
}
// * * * * * * * * * * * * * * * * * * * * * * * * * * * * * * * * * * * * * //

dimensions      [0 2 -2 0 0 0 0];

internalField   nonuniform List<symmTensor> 
12225
(
(0.00563697 -0.000400872 0 0.000595617 0 0)
(0.0656568 -0.00287683 0 0.000375053 0 0)
(0.0963587 -0.00425469 0 0.000399513 0 0)
(0.128299 -0.00518081 0 0.000396737 0 0)
(0.181996 -0.00634635 0 0.000389306 0 0)
(0.258897 -0.0077203 0 0.000377155 0 0)
(0.356701 -0.00915544 0 0.000377799 0 0)
(0.473265 -0.00993512 0 0.00031994 0 0)
(0.605074 -0.0112808 0 0.000323236 0 0)
(0.750066 -0.00986001 0 0.000215838 0 0)
(0.907736 -0.0132391 0 0.000267992 0 0)
(1.07039 -0.00702834 0 0.00014562 0 0)
(1.26363 -0.0210554 0 0.000476546 0 0)
(1.4497 0.00108201 0 0.000420673 0 0)
(1.74143 -0.0544218 0 0.0027936 0 0)
(2.0341 0.031821 0 0.00374484 0 0)
(2.65144 -0.221991 0 0.0340631 0 0)
(3.71277 0.0919942 0 0.0174363 0 0)
(0.00561581 -0.000290981 0 0.00059067 0 0)
(0.044008 -0.00166228 0 0.000282741 0 0)
(0.0484971 -0.00258835 0 0.000466616 0 0)
(0.0497983 -0.00309244 0 0.000672784 0 0)
(0.0587312 -0.00405444 0 0.00090335 0 0)
(0.0740335 -0.00573909 0 0.00117821 0 0)
(0.0960669 -0.00795669 0 0.00142432 0 0)
(0.127408 -0.0109112 0 0.00174552 0 0)
(0.167295 -0.0136816 0 0.00183938 0 0)
(0.222658 -0.0179754 0 0.00218085 0 0)
(0.28605 -0.0202209 0 0.00199977 0 0)
(0.376685 -0.0277479 0 0.00261641 0 0)
(0.469419 -0.0282303 0 0.00220679 0 0)
(0.620769 -0.046963 0 0.00414388 0 0)
(0.757992 -0.0449093 0 0.00365914 0 0)
(1.05631 -0.105783 0 0.0128396 0 0)
(1.29222 -0.127183 0 0.0141675 0 0)
(1.95245 -0.415506 0 0.110213 0 0)
(0.00497774 -8.94258e-05 0 0.000885602 0 0)
(0.0431614 -0.00247317 0 0.000579698 0 0)
(0.0459689 -0.00350973 0 0.000876296 0 0)
(0.0444157 -0.00370182 0 0.00121848 0 0)
(0.0479427 -0.00416112 0 0.0015849 0 0)
(0.0536233 -0.0051273 0 0.00198482 0 0)
(0.0608903 -0.00653673 0 0.00251232 0 0)
(0.0700891 -0.00818885 0 0.00289868 0 0)
(0.0822187 -0.0104895 0 0.0035193 0 0)
(0.0979563 -0.012633 0 0.00371157 0 0)
(0.120019 -0.0168005 0 0.00451941 0 0)
(0.148628 -0.0196466 0 0.00449398 0 0)
(0.190215 -0.0290774 0 0.0064097 0 0)
(0.244379 -0.0336698 0 0.00631009 0 0)
(0.326984 -0.0611976 0 0.013371 0 0)
(0.43773 -0.076804 0 0.014868 0 0)
(0.600795 -0.173856 0 0.0535595 0 0)
(0.805523 -0.299392 0 0.117533 0 0)
(0.00500768 -0.000745639 0 0.00110836 0 0)
(0.0430871 -0.00288997 0 0.000803072 0 0)
(0.0456664 -0.00373053 0 0.00106906 0 0)
(0.0440679 -0.00395502 0 0.00146237 0 0)
(0.0472047 -0.00442582 0 0.0018659 0 0)
(0.0520285 -0.00538356 0 0.0023391 0 0)
(0.0578044 -0.00669828 0 0.00286125 0 0)
(0.064787 -0.00833447 0 0.00352072 0 0)
(0.0732716 -0.010183 0 0.00408931 0 0)
(0.0844377 -0.0127589 0 0.00489607 0 0)
(0.098963 -0.0158173 0 0.0055602 0 0)
(0.119283 -0.0209953 0 0.00693967 0 0)
(0.146463 -0.0274595 0 0.00834881 0 0)
(0.185785 -0.0399939 0 0.011944 0 0)
(0.239489 -0.0579513 0 0.0171684 0 0)
(0.315044 -0.0942847 0 0.0314101 0 0)
(0.413067 -0.159315 0 0.0638798 0 0)
(0.50817 -0.262821 0 0.139057 0 0)
(0.0056969 -0.000471387 0 0.00130423 0 0)
(0.0423745 -0.00332669 0 0.00101138 0 0)
(0.0442184 -0.00414599 0 0.0013218 0 0)
(0.042633 -0.00438421 0 0.0018492 0 0)
(0.0458405 -0.00491951 0 0.00238918 0 0)
(0.0505471 -0.00598734 0 0.00295571 0 0)
(0.0560674 -0.00749689 0 0.00366678 0 0)
(0.0626232 -0.00933455 0 0.00441447 0 0)
(0.0706314 -0.0116728 0 0.00538514 0 0)
(0.0808054 -0.0144777 0 0.0063359 0 0)
(0.0941791 -0.0186473 0 0.00776744 0 0)
(0.111993 -0.0240572 0 0.00941531 0 0)
(0.136043 -0.0329992 0 0.0125221 0 0)
(0.168612 -0.0456515 0 0.016944 0 0)
(0.212235 -0.0678778 0 0.0264083 0 0)
(0.267888 -0.102938 0 0.0440722 0 0)
(0.331987 -0.160696 0 0.0815269 0 0)
(0.382156 -0.248248 0 0.167656 0 0)
(0.00480696 -0.00094254 0 0.00145023 0 0)
(0.0415793 -0.0039501 0 0.00131344 0 0)
(0.0430946 -0.0046105 0 0.00170926 0 0)
(0.0413995 -0.00476037 0 0.00236442 0 0)
(0.0443938 -0.00528854 0 0.00303451 0 0)
(0.0487239 -0.0063926 0 0.00374434 0 0)
(0.0537765 -0.00797778 0 0.00456376 0 0)
(0.05982 -0.0100027 0 0.00555696 0 0)
(0.0672372 -0.0125543 0 0.00671178 0 0)
(0.0766383 -0.0159104 0 0.0081399 0 0)
(0.0888925 -0.0205197 0 0.00996917 0 0)
(0.104898 -0.0271064 0 0.0126122 0 0)
(0.126065 -0.0367693 0 0.0166503 0 0)
(0.153341 -0.0512565 0 0.023315 0 0)
(0.188217 -0.0737368 0 0.0351779 0 0)
(0.228216 -0.107518 0 0.0568104 0 0)
(0.269752 -0.157985 0 0.0982871 0 0)
(0.296036 -0.222157 0 0.172459 0 0)
(0.00559837 -0.000857398 0 0.00159556 0 0)
(0.0415939 -0.00445694 0 0.00165753 0 0)
(0.0424614 -0.0051268 0 0.00204865 0 0)
(0.0404388 -0.00528273 0 0.00278889 0 0)
(0.0431269 -0.00589031 0 0.00360577 0 0)
(0.0470203 -0.0071059 0 0.0044652 0 0)
(0.0515405 -0.00883241 0 0.00547409 0 0)
(0.0569677 -0.0110352 0 0.00668893 0 0)
(0.0636364 -0.0138505 0 0.00820212 0 0)
(0.0720266 -0.0175267 0 0.0100965 0 0)
(0.0827999 -0.0225806 0 0.0125988 0 0)
(0.0965698 -0.029684 0 0.0161526 0 0)
(0.114168 -0.0398889 0 0.0214898 0 0)
(0.135833 -0.0547468 0 0.030105 0 0)
(0.161798 -0.0762855 0 0.0442817 0 0)
(0.189001 -0.106961 0 0.0689661 0 0)
(0.213992 -0.147592 0 0.109733 0 0)
(0.225029 -0.194824 0 0.176593 0 0)
(0.00381173 -0.000802249 0 0.00185039 0 0)
(0.0398021 -0.00477717 0 0.00195717 0 0)
(0.0408856 -0.00528826 0 0.0025786 0 0)
(0.0391024 -0.00531572 0 0.0034303 0 0)
(0.04177 -0.00593843 0 0.00437592 0 0)
(0.0453351 -0.00721894 0 0.00540449 0 0)
(0.0493175 -0.00901972 0 0.00661255 0 0)
(0.0540758 -0.0113373 0 0.0081066 0 0)
(0.0599282 -0.0143232 0 0.00998188 0 0)
(0.0672296 -0.0182466 0 0.012379 0 0)
(0.0764274 -0.0235722 0 0.0155637 0 0)
(0.0878514 -0.0309259 0 0.0200672 0 0)
(0.101891 -0.0412157 0 0.0267193 0 0)
(0.118318 -0.0555911 0 0.0370349 0 0)
(0.136668 -0.0753822 0 0.0532018 0 0)
(0.154052 -0.101533 0 0.0790985 0 0)
(0.167629 -0.133459 0 0.118635 0 0)
(0.170063 -0.16743 0 0.177728 0 0)
(0.00552273 -0.00120338 0 0.00181549 0 0)
(0.0405254 -0.0056533 0 0.00218294 0 0)
(0.0405338 -0.00610165 0 0.00290277 0 0)
(0.0383312 -0.00593501 0 0.00386906 0 0)
(0.0408433 -0.00653735 0 0.00498438 0 0)
(0.0442562 -0.00793585 0 0.00621955 0 0)
(0.0479733 -0.00990561 0 0.00767278 0 0)
(0.0522637 -0.0123944 0 0.00947578 0 0)
(0.0573554 -0.0155397 0 0.0117584 0 0)
(0.0635123 -0.0196076 0 0.0147113 0 0)
(0.0710511 -0.0250242 0 0.0186234 0 0)
(0.0801312 -0.0323456 0 0.0240826 0 0)
(0.090833 -0.0422633 0 0.0319143 0 0)
(0.102633 -0.055546 0 0.0436038 0 0)
(0.114783 -0.0728414 0 0.0609757 0 0)
(0.124816 -0.0941927 0 0.0870555 0 0)
(0.130863 -0.11838 0 0.124205 0 0)
(0.128353 -0.141938 0 0.175643 0 0)
(0.00500986 -0.00116178 0 0.0021389 0 0)
(0.0400373 -0.00604201 0 0.00255825 0 0)
(0.0400572 -0.00640884 0 0.00343411 0 0)
(0.0378013 -0.00610669 0 0.00452365 0 0)
(0.0401012 -0.00664843 0 0.00580505 0 0)
(0.0431349 -0.00804719 0 0.0072498 0 0)
(0.0463398 -0.0100189 0 0.00893666 0 0)
(0.0499699 -0.0124859 0 0.0110139 0 0)
(0.0541895 -0.0155911 0 0.0136565 0 0)
(0.0591619 -0.019598 0 0.0171093 0 0)
(0.065077 -0.0248785 0 0.0217 0 0)
(0.0719457 -0.0318614 0 0.0280261 0 0)
(0.0796637 -0.0410271 0 0.0368735 0 0)
(0.0875852 -0.0527697 0 0.0495604 0 0)
(0.0949551 -0.0672644 0 0.0675117 0 0)
(0.099823 -0.0840115 0 0.0929506 0 0)
(0.101191 -0.101677 0 0.127083 0 0)
(0.0961392 -0.117365 0 0.171765 0 0)
(0.00517813 -0.00140535 0 0.002267 0 0)
(0.0400309 -0.00685867 0 0.00286309 0 0)
(0.0392001 -0.00727297 0 0.00379988 0 0)
(0.0364011 -0.00678897 0 0.00500703 0 0)
(0.0383778 -0.00724463 0 0.00644614 0 0)
(0.0411454 -0.00864086 0 0.008115 0 0)
(0.0440242 -0.0106232 0 0.0100815 0 0)
(0.0472041 -0.0130808 0 0.0124941 0 0)
(0.0508167 -0.0161422 0 0.0155375 0 0)
(0.0549607 -0.0200517 0 0.0194868 0 0)
(0.0596912 -0.0251093 0 0.0246889 0 0)
(0.0648797 -0.0316072 0 0.0317168 0 0)
(0.0702793 -0.0398092 0 0.0412703 0 0)
(0.0752638 -0.0498303 0 0.0544556 0 0)
(0.0791781 -0.0615235 0 0.0723134 0 0)
(0.0806632 -0.0741827 0 0.0963873 0 0)
(0.079274 -0.0865515 0 0.12713 0 0)
(0.0732611 -0.0964638 0 0.165596 0 0)
(0.00469233 -0.00127627 0 0.00258845 0 0)
(0.0390246 -0.00676053 0 0.00327425 0 0)
(0.0381208 -0.00715604 0 0.00425002 0 0)
(0.0352467 -0.00649319 0 0.0055611 0 0)
(0.0369092 -0.00677986 0 0.00715067 0 0)
(0.0391385 -0.00805009 0 0.00903481 0 0)
(0.0413615 -0.00989527 0 0.0112717 0 0)
(0.0438118 -0.0121547 0 0.0139945 0 0)
(0.0465767 -0.014925 0 0.0174027 0 0)
(0.0496681 -0.0184145 0 0.021779 0 0)
(0.0530407 -0.022865 0 0.0274693 0 0)
(0.0564898 -0.0284567 0 0.0350107 0 0)
(0.0597355 -0.0353011 0 0.0450032 0 0)
(0.0622524 -0.0433076 0 0.0583457 0 0)
(0.063585 -0.0521694 0 0.0757462 0 0)
(0.0628278 -0.0611 0 0.0982668 0 0)
(0.0599585 -0.0690771 0 0.125895 0 0)
(0.0537955 -0.0743983 0 0.159305 0 0)
(0.00484526 -0.00165848 0 0.00286653 0 0)
(0.0396397 -0.00738769 0 0.00361524 0 0)
(0.0383525 -0.00773442 0 0.00463347 0 0)
(0.0351203 -0.00696751 0 0.00603878 0 0)
(0.0365239 -0.00720549 0 0.00776295 0 0)
(0.0385181 -0.00847749 0 0.00983179 0 0)
(0.0404338 -0.0103284 0 0.0122961 0 0)
(0.0424423 -0.0125413 0 0.0152794 0 0)
(0.0445995 -0.0151655 0 0.0189841 0 0)
(0.0468924 -0.0183656 0 0.0236934 0 0)
(0.0492527 -0.0223272 0 0.0297337 0 0)
(0.0514773 -0.0271455 0 0.037573 0 0)
(0.0533032 -0.0328286 0 0.047686 0 0)
(0.0543013 -0.0391694 0 0.0607738 0 0)
(0.0541571 -0.0458061 0 0.077277 0 0)
(0.0522813 -0.0519748 0 0.0979431 0 0)
(0.0488682 -0.0568924 0 0.12249 0 0)
(0.0431106 -0.0592178 0 0.151416 0 0)
(0.00480044 -0.00155002 0 0.0035069 0 0)
(0.0388888 -0.00719318 0 0.00448666 0 0)
(0.0374125 -0.00744106 0 0.00557562 0 0)
(0.0341701 -0.00653107 0 0.00703546 0 0)
(0.0353724 -0.00659498 0 0.00887824 0 0)
(0.0369391 -0.00766261 0 0.0111278 0 0)
(0.0382659 -0.00925842 0 0.0138282 0 0)
(0.0395531 -0.0111483 0 0.0170826 0 0)
(0.0408573 -0.0133445 0 0.0210563 0 0)
(0.0421567 -0.015948 0 0.0260246 0 0)
(0.0433732 -0.0190751 0 0.0323036 0 0)
(0.044326 -0.0227395 0 0.0403002 0 0)
(0.044795 -0.0268577 0 0.0503578 0 0)
(0.0444828 -0.0311472 0 0.0629715 0 0)
(0.0432193 -0.0352436 0 0.078324 0 0)
(0.0407138 -0.0384932 0 0.096881 0 0)
(0.0372879 -0.040352 0 0.118158 0 0)
(0.0324251 -0.0398556 0 0.142539 0 0)
(0.00512536 -0.00139677 0 0.00334916 0 0)
(0.0387269 -0.00807025 0 0.00463633 0 0)
(0.0368842 -0.00840579 0 0.00609261 0 0)
(0.0332294 -0.00736468 0 0.00785464 0 0)
(0.0340526 -0.00727244 0 0.00990039 0 0)
(0.0352367 -0.00817304 0 0.0123259 0 0)
(0.036142 -0.0095617 0 0.015225 0 0)
(0.0369249 -0.011141 0 0.0186925 0 0)
(0.0376041 -0.0128813 0 0.0228621 0 0)
(0.0381478 -0.0148621 0 0.0279605 0 0)
(0.0384889 -0.0171437 0 0.034242 0 0)
(0.0384943 -0.0196606 0 0.0420242 0 0)
(0.0380104 -0.0222597 0 0.0515285 0 0)
(0.0368794 -0.0246327 0 0.0630801 0 0)
(0.0350661 -0.026463 0 0.0766805 0 0)
(0.0324966 -0.027239 0 0.0926067 0 0)
(0.0295459 -0.0266483 0 0.110303 0 0)
(0.0258816 -0.024033 0 0.130106 0 0)
(0.00535499 -0.00146301 0 0.00368761 0 0)
(0.0383787 -0.00799012 0 0.00486781 0 0)
(0.0360191 -0.00837253 0 0.00622683 0 0)
(0.0320098 -0.00720664 0 0.00802432 0 0)
(0.032448 -0.00690273 0 0.010174 0 0)
(0.0331461 -0.00753135 0 0.0127145 0 0)
(0.0335298 -0.00855263 0 0.0157196 0 0)
(0.0337835 -0.00962766 0 0.0192925 0 0)
(0.0338861 -0.0106846 0 0.0235573 0 0)
(0.0337732 -0.0117607 0 0.0286755 0 0)
(0.0334041 -0.0128789 0 0.0348014 0 0)
(0.0327262 -0.0139467 0 0.0421306 0 0)
(0.0316862 -0.0148084 0 0.0507602 0 0)
(0.0302597 -0.0151908 0 0.060881 0 0)
(0.0285045 -0.0148798 0 0.0723918 0 0)
(0.0264798 -0.0135061 0 0.0854679 0 0)
(0.0245173 -0.0109636 0 0.0995746 0 0)
(0.0223845 -0.00678006 0 0.115041 0 0)
(0.00587872 -0.00131212 0 0.00382879 0 0)
(0.0392131 -0.0082952 0 0.00514259 0 0)
(0.0363145 -0.00885831 0 0.00670072 0 0)
(0.0318014 -0.00756106 0 0.00865269 0 0)
(0.0317823 -0.0070524 0 0.0108262 0 0)
(0.0320221 -0.00745276 0 0.0133467 0 0)
(0.0319499 -0.00815803 0 0.0163201 0 0)
(0.0317378 -0.00877711 0 0.0198057 0 0)
(0.031371 -0.00921037 0 0.0238652 0 0)
(0.0308214 -0.0094812 0 0.0285836 0 0)
(0.0300857 -0.00960889 0 0.0340432 0 0)
(0.0291638 -0.00951337 0 0.0403775 0 0)
(0.0280564 -0.00907486 0 0.0476336 0 0)
(0.0268178 -0.00807925 0 0.0559205 0 0)
(0.0255345 -0.00639949 0 0.0650826 0 0)
(0.024329 -0.00377829 0 0.0752221 0 0)
(0.0234518 -0.000247853 0 0.0858525 0 0)
(0.0227589 0.00454665 0 0.0972796 0 0)
(0.00506387 -0.00137053 0 0.00379407 0 0)
(0.0381101 -0.00858428 0 0.00502497 0 0)
(0.0353103 -0.00913727 0 0.00624592 0 0)
(0.0307059 -0.00784066 0 0.00796723 0 0)
(0.0303317 -0.00728798 0 0.0100149 0 0)
(0.0300008 -0.00746514 0 0.0123735 0 0)
(0.0293249 -0.00777464 0 0.0150786 0 0)
(0.0286229 -0.00788491 0 0.0181724 0 0)
(0.0279248 -0.00772464 0 0.0216955 0 0)
(0.0271929 -0.00731312 0 0.025694 0 0)
(0.0264189 -0.00665614 0 0.0301986 0 0)
(0.025621 -0.00568435 0 0.0352707 0 0)
(0.0248267 -0.00430137 0 0.0409008 0 0)
(0.0241278 -0.00236374 0 0.0471395 0 0)
(0.0236155 0.000191516 0 0.0538358 0 0)
(0.0234268 0.00350157 0 0.0610709 0 0)
(0.0237263 0.00749699 0 0.0684621 0 0)
(0.0244374 0.0123764 0 0.0762846 0 0)
(0.00516396 -0.00103086 0 0.00359803 0 0)
(0.0384283 -0.00811941 0 0.00448683 0 0)
(0.0348094 -0.0082829 0 0.00555628 0 0)
(0.0296017 -0.00658669 0 0.00709049 0 0)
(0.0288509 -0.00551881 0 0.00884065 0 0)
(0.0281629 -0.00513354 0 0.0107908 0 0)
(0.0272301 -0.00489131 0 0.0129574 0 0)
(0.0264231 -0.00444372 0 0.0153545 0 0)
(0.0257636 -0.00366971 0 0.0180041 0 0)
(0.0252062 -0.00256321 0 0.0209329 0 0)
(0.0247561 -0.00114686 0 0.024145 0 0)
(0.02446 0.000591374 0 0.0276569 0 0)
(0.0243743 0.00267877 0 0.0314371 0 0)
(0.0246014 0.00517935 0 0.0355029 0 0)
(0.0252168 0.00810375 0 0.0397466 0 0)
(0.026326 0.0115223 0 0.0442279 0 0)
(0.028016 0.0153539 0 0.0487018 0 0)
(0.0302344 0.0197215 0 0.0533576 0 0)
(0.00495993 -0.0013644 0 0.00370939 0 0)
(0.0375809 -0.00763166 0 0.0044306 0 0)
(0.0335265 -0.00735508 0 0.00529224 0 0)
(0.0282125 -0.00558589 0 0.00654183 0 0)
(0.0272559 -0.00442803 0 0.00788606 0 0)
(0.0264391 -0.003877 0 0.00934124 0 0)
(0.0254579 -0.00344208 0 0.0109294 0 0)
(0.0246544 -0.00280101 0 0.0126494 0 0)
(0.024064 -0.00183927 0 0.0145138 0 0)
(0.0236743 -0.000560188 0 0.0165471 0 0)
(0.0235199 0.0010038 0 0.0187535 0 0)
(0.0236625 0.00284493 0 0.0211346 0 0)
(0.0241577 0.00496982 0 0.0236535 0 0)
(0.0250844 0.0074078 0 0.0263098 0 0)
(0.0265013 0.0101514 0 0.0290171 0 0)
(0.0284751 0.0132308 0 0.0318137 0 0)
(0.0310668 0.0165783 0 0.034535 0 0)
(0.034227 0.0202647 0 0.0373033 0 0)
(0.00552333 -0.00122338 0 0.00332745 0 0)
(0.0378912 -0.00672313 0 0.00376124 0 0)
(0.0334029 -0.00621042 0 0.0043073 0 0)
(0.0279255 -0.00437252 0 0.00519472 0 0)
(0.0269011 -0.00308905 0 0.00618752 0 0)
(0.0260501 -0.00230296 0 0.00723824 0 0)
(0.0251516 -0.00159826 0 0.00832536 0 0)
(0.0245705 -0.000738914 0 0.00944058 0 0)
(0.0243041 0.000349062 0 0.0106071 0 0)
(0.0242958 0.00166675 0 0.0118608 0 0)
(0.0245803 0.00319778 0 0.0132141 0 0)
(0.0252467 0.00493713 0 0.0146652 0 0)
(0.0263777 0.00688854 0 0.0161832 0 0)
(0.0280429 0.00906533 0 0.0177614 0 0)
(0.0302817 0.0114591 0 0.0193455 0 0)
(0.0331126 0.0140762 0 0.0209596 0 0)
(0.0365725 0.0168684 0 0.022514 0 0)
(0.0405759 0.019862 0 0.0240861 0 0)
(0.00503113 -0.000849416 0 0.00305182 0 0)
(0.037069 -0.00555477 0 0.00291306 0 0)
(0.0324956 -0.00519512 0 0.00330267 0 0)
(0.0270838 -0.00352145 0 0.00397025 0 0)
(0.0260641 -0.00225045 0 0.00471809 0 0)
(0.0252269 -0.00142926 0 0.00554264 0 0)
(0.0244433 -0.000691135 0 0.00643397 0 0)
(0.0240879 0.000217909 0 0.00736974 0 0)
(0.0241702 0.00139021 0 0.00833163 0 0)
(0.0246652 0.00281089 0 0.00931426 0 0)
(0.0256043 0.00442399 0 0.0103096 0 0)
(0.0270389 0.00618838 0 0.0113165 0 0)
(0.0290069 0.0080845 0 0.0123236 0 0)
(0.0315503 0.010118 0 0.0133406 0 0)
(0.034681 0.0122811 0 0.014343 0 0)
(0.0384153 0.0145926 0 0.0153612 0 0)
(0.0427639 0.0170047 0 0.0163322 0 0)
(0.0476782 0.0195576 0 0.0173107 0 0)
(0.00567272 -0.000936623 0 0.00287917 0 0)
(0.0366509 -0.00498787 0 0.00276253 0 0)
(0.0319823 -0.00443404 0 0.00289511 0 0)
(0.0265851 -0.00279853 0 0.00318966 0 0)
(0.0254738 -0.0016166 0 0.00356684 0 0)
(0.0244384 -0.000885079 0 0.00398303 0 0)
(0.0234643 -0.000256759 0 0.00440745 0 0)
(0.0230766 0.000492873 0 0.0048361 0 0)
(0.0233232 0.00143014 0 0.00528147 0 0)
(0.0241108 0.00253297 0 0.0057605 0 0)
(0.0253955 0.00376012 0 0.00628039 0 0)
(0.0271766 0.0050878 0 0.0068369 0 0)
(0.0294661 0.00651117 0 0.00741361 0 0)
(0.0322974 0.00803881 0 0.00800651 0 0)
(0.0357027 0.00966087 0 0.008592 0 0)
(0.0397036 0.0113798 0 0.0091808 0 0)
(0.0443238 0.0131539 0 0.0097347 0 0)
(0.049508 0.0149969 0 0.0102741 0 0)
(0.00575402 -0.00113551 0 0.00254841 0 0)
(0.036659 -0.0046316 0 0.0024698 0 0)
(0.0310768 -0.00362657 0 0.00246778 0 0)
(0.0255067 -0.00188402 0 0.00272406 0 0)
(0.024771 -0.000645374 0 0.00306113 0 0)
(0.0241966 0.000107132 0 0.00340032 0 0)
(0.0236107 0.000703679 0 0.00371944 0 0)
(0.0235585 0.00137989 0 0.00403409 0 0)
(0.0241502 0.00222096 0 0.00435857 0 0)
(0.0253183 0.00321231 0 0.00469281 0 0)
(0.0270165 0.00430906 0 0.00502542 0 0)
(0.0292487 0.00547773 0 0.00535177 0 0)
(0.0320516 0.00670597 0 0.00567148 0 0)
(0.035467 0.00799621 0 0.00599412 0 0)
(0.0395218 0.00933675 0 0.00630899 0 0)
(0.0442041 0.0107289 0 0.00663298 0 0)
(0.0495345 0.0121427 0 0.00693691 0 0)
(0.0554238 0.0136018 0 0.00723208 0 0)
(0.00534459 -0.00115395 0 0.00211424 0 0)
(0.0356668 -0.00392795 0 0.0018604 0 0)
(0.0295149 -0.0028777 0 0.00171056 0 0)
(0.0239023 -0.00147468 0 0.00176282 0 0)
(0.0232496 -0.000517276 0 0.00187043 0 0)
(0.0227929 5.74193e-05 0 0.00195245 0 0)
(0.0224689 0.000484052 0 0.00204436 0 0)
(0.0228386 0.000947374 0 0.00218293 0 0)
(0.0239311 0.00153165 0 0.00235665 0 0)
(0.0256183 0.00223001 0 0.0025324 0 0)
(0.0278572 0.00299687 0 0.00268961 0 0)
(0.0306852 0.00379984 0 0.002831 0 0)
(0.0341582 0.00462631 0 0.00296578 0 0)
(0.0383003 0.00547525 0 0.00310342 0 0)
(0.0431108 0.00634066 0 0.00323896 0 0)
(0.0485377 0.00722345 0 0.00337914 0 0)
(0.0545852 0.00810249 0 0.00350756 0 0)
(0.061137 0.00899892 0 0.00362697 0 0)
(0.0055096 -0.000962414 0 0.0018661 0 0)
(0.0353872 -0.00301911 0 0.00129343 0 0)
(0.0286674 -0.0023912 0 0.00114445 0 0)
(0.0231929 -0.00120079 0 0.00128945 0 0)
(0.0227493 -0.000246796 0 0.00139679 0 0)
(0.0224571 0.000338134 0 0.00141791 0 0)
(0.0224577 0.000754311 0 0.00142242 0 0)
(0.0233528 0.00118677 0 0.00146152 0 0)
(0.0251011 0.00171435 0 0.00152812 0 0)
(0.0275051 0.00232527 0 0.00159962 0 0)
(0.0304975 0.00297759 0 0.00166587 0 0)
(0.0341147 0.0036412 0 0.0017283 0 0)
(0.0384077 0.00430372 0 0.00179074 0 0)
(0.0433895 0.00496516 0 0.00185788 0 0)
(0.0490487 0.00562126 0 0.00192548 0 0)
(0.055323 0.00627511 0 0.00199631 0 0)
(0.0622199 0.00690763 0 0.00206064 0 0)
(0.0696193 0.00753305 0 0.00211996 0 0)
(0.00393135 -0.000585262 0 0.00159406 0 0)
(0.0332423 -0.00142957 0 0.000769898 0 0)
(0.0267302 -0.000886548 0 0.000523533 0 0)
(0.0219592 -0.000246139 0 0.000555186 0 0)
(0.022064 0.000240884 0 0.000571031 0 0)
(0.0222114 0.000480316 0 0.00056955 0 0)
(0.0226387 0.000613909 0 0.000580899 0 0)
(0.0239759 0.000759216 0 0.00060371 0 0)
(0.0261964 0.000956694 0 0.000628627 0 0)
(0.029129 0.00119434 0 0.000650878 0 0)
(0.0327457 0.00144633 0 0.000669979 0 0)
(0.0371014 0.00169309 0 0.000688053 0 0)
(0.0422332 0.00192678 0 0.000706736 0 0)
(0.0481133 0.00214782 0 0.000728237 0 0)
(0.0546907 0.00235495 0 0.00075166 0 0)
(0.0618706 0.00254973 0 0.000778438 0 0)
(0.0696592 0.00271806 0 0.000805245 0 0)
(0.0779185 0.00286917 0 0.000831672 0 0)
(0.00607001 -0.000729124 0 0.00112725 0 0)
(0.033575 -0.0016746 0 0.000552476 0 0)
(0.0260146 -0.00124316 0 0.00051919 0 0)
(0.0217582 -0.000421102 0 0.000508897 0 0)
(0.0223305 9.93056e-05 0 0.000437635 0 0)
(0.0228617 0.000343016 0 0.000371742 0 0)
(0.0239279 0.000504883 0 0.000337099 0 0)
(0.0261753 0.000659887 0 0.000321547 0 0)
(0.029454 0.000801276 0 0.000313637 0 0)
(0.0335011 0.000918424 0 0.000308551 0 0)
(0.0382453 0.00101569 0 0.000305433 0 0)
(0.0437237 0.00110071 0 0.000304975 0 0)
(0.0499413 0.00117829 0 0.000308425 0 0)
(0.0568544 0.00124743 0 0.000316919 0 0)
(0.0643773 0.00130243 0 0.000331098 0 0)
(0.0724402 0.00133198 0 0.000352598 0 0)
(0.0810203 0.00132307 0 0.000380145 0 0)
(0.0900339 0.00127278 0 0.000411176 0 0)
(0.00400377 -0.000122441 0 0.000876802 0 0)
(0.0312917 0.000257317 0 0.000225876 0 0)
(0.024056 -8.54868e-06 0 0.000178678 0 0)
(0.0204468 6.12271e-05 0 0.00018421 0 0)
(0.0215987 2.83343e-05 0 0.000196896 0 0)
(0.0226905 -0.000101807 0 0.000209488 0 0)
(0.0242199 -0.000270599 0 0.000221605 0 0)
(0.0267341 -0.000455757 0 0.000232906 0 0)
(0.0299934 -0.000651467 0 0.000245811 0 0)
(0.0336592 -0.000851262 0 0.000262662 0 0)
(0.0375728 -0.00104534 0 0.000283514 0 0)
(0.0417231 -0.00122673 0 0.000307093 0 0)
(0.0460773 -0.00139063 0 0.000332571 0 0)
(0.0506413 -0.00153927 0 0.000360531 0 0)
(0.0553044 -0.00167693 0 0.000390662 0 0)
(0.0600966 -0.00181505 0 0.000424436 0 0)
(0.0648617 -0.00195716 0 0.000462375 0 0)
(0.0697239 -0.00211004 0 0.000502366 0 0)
(0.00548838 -0.000385551 0 0.000695499 0 0)
(0.0337247 -0.000135407 0 0.000231514 0 0)
(0.0297464 7.64835e-06 0 0.000142265 0 0)
(0.0284759 0.000158319 0 0.000101043 0 0)
(0.0312229 0.000193823 0 8.06393e-05 0 0)
(0.0337059 0.000216731 0 6.95995e-05 0 0)
(0.0360781 0.000257049 0 6.42832e-05 0 0)
(0.0389408 0.000308352 0 6.39046e-05 0 0)
(0.0424927 0.000358877 0 6.66438e-05 0 0)
(0.0467391 0.000405116 0 7.14077e-05 0 0)
(0.0516382 0.000453169 0 7.77911e-05 0 0)
(0.0571541 0.000512863 0 8.54303e-05 0 0)
(0.0633228 0.000592417 0 9.3742e-05 0 0)
(0.0702064 0.000692566 0 0.000102135 0 0)
(0.0779362 0.000807222 0 0.000110677 0 0)
(0.0864537 0.000927413 0 0.000120074 0 0)
(0.095917 0.00104821 0 0.00012958 0 0)
(0.106009 0.00117076 0 0.000138242 0 0)
(0.000279155 -0.000694209 2.28863e-22 0.00176464 -4.51883e-22 3.22011e-37)
(0.00294073 -0.00256774 -6.91955e-22 0.00234475 4.33266e-22 3.17507e-37)
(0.00881119 -0.00442382 0 0.00233403 0 0)
(0.0176415 -0.00620119 0 0.00228408 0 0)
(0.0294032 -0.00793022 0 0.00222566 0 0)
(0.0440533 -0.0096228 2.52403e-21 0.00216986 -4.40521e-22 2.99069e-37)
(0.0615182 -0.0112729 0 0.00211865 0 0)
(0.081769 -0.0128788 0 0.00207412 0 0)
(0.104731 -0.0144349 0 0.00203777 0 0)
(0.130341 -0.0159405 0 0.0020117 0 0)
(0.158509 -0.0173968 -4.85067e-21 0.00199846 4.56111e-22 2.77021e-37)
(0.189147 -0.0188093 0 0.00200121 0 0)
(0.22219 -0.0201853 0 0.00202356 0 0)
(0.257578 -0.0215379 0 0.00207003 0 0)
(0.295286 -0.0228726 0 0.00214434 0 0)
(0.335374 -0.0241879 -7.1713e-21 0.00225006 4.58465e-22 2.56054e-37)
(0.378 -0.0254703 0 0.00239023 0 0)
(0.423469 -0.0267291 0 0.00257446 0 0)
(0.472269 -0.0280307 0 0.00282242 0 0)
(0.525156 -0.0295218 0 0.00316132 0 0)
(0.583234 -0.0314358 0 0.00362079 0 0)
(0.647954 -0.0340343 0 0.00420853 0 0)
(0.721027 -0.0375289 0 0.00490201 0 0)
(0.804184 -0.0419995 -1.07457e-20 0.00564192 4.56459e-22 2.24719e-37)
(0.899042 -0.0473502 1.11592e-20 0.00635342 -4.48772e-22 2.20993e-37)
(1.00697 -0.0533635 -1.15586e-20 0.00698278 4.3823e-22 2.17309e-37)
(1.12889 -0.0597682 -1.19417e-20 0.00749776 4.25114e-22 2.13667e-37)
(1.26529 -0.066291 0 0.00788171 0 0)
(1.41612 -0.072666 0 0.0081267 0 0)
(1.58087 -0.0786168 1.29753e-20 0.00822586 -3.73074e-22 2.02996e-37)
(1.7585 -0.083895 1.32757e-20 0.00818298 -3.52282e-22 1.99523e-37)
(1.9474 -0.0882467 0 0.00800053 0 0)
(2.14549 -0.0914376 0 0.00768683 0 0)
(2.35014 -0.0932723 1.40232e-20 0.0072571 -2.82407e-22 1.89358e-37)
(2.55822 -0.0935774 0 0.00672733 0 0)
(2.76623 -0.0922368 0 0.00611936 0 0)
(2.97031 -0.0891799 -1.4509e-20 0.00545561 2.05284e-22 1.79571e-37)
(3.16637 -0.0844008 0 0.00476116 0 0)
(3.35025 -0.0779509 -1.46696e-20 0.0040603 1.52656e-22 1.73255e-37)
(3.51783 -0.0699511 -2.93958e-20 0.00337803 2.53379e-22 6.80634e-37)
(3.66524 -0.0605916 0 0.00273814 0 0)
(3.78904 -0.0501321 0 0.00216222 0 0)
(3.88637 -0.0388975 0 0.00166797 0 0)
(3.95505 -0.0272644 0 0.00126748 0 0)
(3.99368 -0.0156346 0 0.000965955 0 0)
(4.00181 -0.00436401 -2.82841e-20 0.000758963 -1.27348e-23 6.09772e-37)
(3.9804 0.00627941 -2.78821e-20 0.000635945 -4.47681e-23 5.98528e-37)
(3.93119 0.0161327 -2.74323e-20 0.000582156 -7.27442e-23 5.87443e-37)
(3.85572 0.0250495 0 0.000584812 0 0)
(3.75659 0.0328926 2.64154e-20 0.000630365 1.16882e-22 5.65749e-37)
(3.63652 0.03957 0 0.000706566 0 0)
(3.49866 0.0450237 -2.52889e-20 0.000801184 -1.45984e-22 5.4468e-37)
(3.34623 0.0492532 -2.47017e-20 0.000902953 -1.55389e-22 5.34377e-37)
(3.18252 0.0522931 0 0.00100234 0 0)
(3.01072 0.0542181 0 0.00109156 0 0)
(2.8338 0.055132 0 0.00116558 0 0)
(2.65449 0.0551497 -2.23287e-20 0.00122056 -1.65605e-22 4.94684e-37)
(2.47522 0.0544154 0 0.00125657 0 0)
(2.29811 0.053033 0 0.00127203 0 0)
(2.12493 0.0511317 0 0.00126878 0 0)
(1.95718 0.0488044 0 0.00124755 0 0)
(1.7961 0.0461691 0 0.00121164 0 0)
(1.64269 0.0432947 0 0.001162 0 0)
(1.49766 0.0402688 0 0.00110139 0 0)
(1.36159 0.0371502 0 0.00103126 0 0)
(1.23481 0.0340257 1.7741e-20 0.000955272 1.09766e-22 4.13891e-37)
(1.11742 0.0309343 0 0.000874671 0 0)
(1.00942 0.027935 0 0.000792285 0 0)
(0.910611 0.0250696 -1.65549e-20 0.000710317 -8.6095e-23 3.89446e-37)
(0.820667 0.0223645 -1.61962e-20 0.00063036 -7.86402e-23 3.81561e-37)
(0.739179 0.019848 0 0.000554337 0 0)
(0.665653 0.017526 1.55292e-20 0.000483001 6.47576e-23 3.66176e-37)
(0.599533 0.0154024 -1.52192e-20 0.000417066 -5.83624e-23 3.58674e-37)
(0.540239 0.0134845 0 0.0003575 0 0)
(0.48725 0.011768 1.46414e-20 0.000304511 4.6817e-23 3.44041e-37)
(0.439949 0.0102287 0 0.000257207 0 0)
(0.397745 0.00885844 0 0.000215613 0 0)
(0.360168 0.00764616 -1.38675e-20 0.000179456 -3.24419e-23 3.23e-37)
(0.326758 0.00657803 0 0.00014829 0 0)
(0.297083 0.00564014 1.34042e-20 0.00012163 2.46844e-23 3.09559e-37)
(0.270747 0.00481895 0 9.89878e-05 0 0)
(0.247391 0.00410172 -1.29768e-20 7.98877e-05 -1.8223e-23 2.96574e-37)
(0.226692 0.00347661 -1.2775e-20 6.38846e-05 -1.54289e-23 2.90249e-37)
(0.208356 0.00293286 -1.25805e-20 5.05697e-05 -1.28991e-23 2.84033e-37)
(0.192124 0.00246073 -2.47857e-20 3.95735e-05 -2.12318e-23 1.1117e-36)
(0.177762 0.00205151 2.44229e-20 3.05661e-05 1.71222e-23 1.08769e-36)
(0.165062 0.00169743 0 2.3255e-05 0 0)
(0.153839 0.00139164 0 1.7383e-05 0 0)
(0.143928 0.00112806 0 1.27245e-05 0 0)
(0.135184 0.000901353 2.30824e-20 9.08271e-06 4.61507e-24 9.9579e-37)
(0.127475 0.000706845 2.27714e-20 6.28657e-06 2.32777e-24 9.7382e-37)
(0.120688 0.000540452 -2.24688e-20 4.1875e-06 -3.25686e-25 9.52241e-37)
(0.114717 0.000398605 0 2.6568e-06 0 0)
(0.109473 0.000278231 2.18865e-20 1.58336e-06 -2.91971e-24 9.1023e-37)
(0.104874 0.000176626 2.16058e-20 8.71298e-07 -4.20035e-24 8.89788e-37)
(0.100847 9.13726e-05 2.13314e-20 4.38406e-07 -5.27846e-24 8.69714e-37)
(0.0973269 2.03058e-05 0 2.14919e-07 0 0)
(0.094257 -3.84678e-05 0 1.42512e-07 0 0)
(0.0915857 -8.66345e-05 0 1.73253e-07 0 0)
(0.0892676 -0.000125669 2.02887e-20 2.68527e-07 -7.93212e-24 7.9299e-37)
(0.0872622 -0.000156855 0 3.98075e-07 0 0)
(0.0855338 -0.000181344 0 5.39017e-07 0 0)
(0.0840506 -0.000200144 -1.95546e-20 6.74823e-07 8.62347e-24 7.39048e-37)
(0.0827844 -0.000214142 0 7.94454e-07 0 0)
(0.0817102 -0.000224134 0 8.91437e-07 0 0)
(0.0808059 -0.000230808 -1.88528e-20 9.6274e-07 8.60629e-24 6.8804e-37)
(0.0800521 -0.000234843 0 1.00883e-06 0 0)
(0.0794317 -0.000236799 0 1.0317e-06 0 0)
(0.0789296 -0.000237204 1.81773e-20 1.03504e-06 -8.18824e-24 6.39832e-37)
(0.0785334 -0.000236583 1.79572e-20 1.02424e-06 -8.00096e-24 6.24362e-37)
(0.0782321 -0.000235186 0 1.00253e-06 0 0)
(0.0780166 -0.000233475 -1.75237e-20 9.76715e-07 7.59467e-24 5.94294e-37)
(0.0778803 -0.000231675 0 9.51397e-07 0 0)
(0.0778142 -0.000229357 1.70984e-20 9.22544e-07 -7.16209e-24 5.65358e-37)
(0.0778099 -0.000226194 0 8.86785e-07 0 0)
(0.0778598 -0.000222255 1.66805e-20 8.45296e-07 -6.68388e-24 5.37518e-37)
(0.077957 -0.000217723 1.6474e-20 8.00621e-07 -6.43514e-24 5.23998e-37)
(0.078095 -0.000212714 0 7.54344e-07 0 0)
(0.0782683 -0.000207311 0 7.07429e-07 0 0)
(0.0784722 -0.000201619 0 6.61027e-07 0 0)
(0.0787026 -0.000195713 0 6.15764e-07 0 0)
(0.0789555 -0.000189545 0 5.71057e-07 0 0)
(0.0792277 -0.000183113 0 5.26738e-07 0 0)
(0.0795163 -0.000176599 0 4.84223e-07 0 0)
(0.0798187 -0.000170203 1.48749e-20 4.44924e-07 -4.486e-24 4.24901e-37)
(0.0801328 -0.000163963 -1.46809e-20 4.08777e-07 4.27076e-24 4.13587e-37)
(0.0804563 -0.000157855 0 3.75315e-07 0 0)
(0.0807872 -0.000151854 0 3.44108e-07 0 0)
(0.0811236 -0.000145929 0 3.14779e-07 0 0)
(0.0814637 -0.000140059 0 2.87063e-07 0 0)
(0.0818059 -0.000134236 -2.74573e-20 2.60819e-07 6.69238e-24 1.44132e-36)
(0.0821486 -0.000128482 0 2.36088e-07 0 0)
(0.0824905 -0.000122858 2.67112e-20 2.13093e-07 -6.0798e-24 1.36204e-36)
(0.0828307 -0.000117461 -2.63414e-20 1.92174e-07 5.80127e-24 1.32361e-36)
(0.0831688 -0.000112388 0 1.73604e-07 0 0)
(0.0835045 -0.000107719 0 1.57481e-07 0 0)
(0.0838381 -0.000103481 0 1.43673e-07 0 0)
(0.0841699 -9.96604e-05 2.48833e-20 1.31886e-07 -4.90031e-24 1.1777e-36)
(0.0845004 -9.62079e-05 2.4524e-20 1.2176e-07 -4.72339e-24 1.14311e-36)
(0.0848303 -9.30623e-05 0 1.12953e-07 0 0)
(0.0851599 -9.01738e-05 2.38117e-20 1.05209e-07 -4.411e-24 1.07611e-36)
(0.0854897 -8.75005e-05 2.34586e-20 9.83337e-08 -4.27231e-24 1.04367e-36)
(0.08582 -8.50249e-05 -2.31076e-20 9.22162e-08 4.14216e-24 1.01193e-36)
(0.0861512 -8.27352e-05 0 8.67732e-08 0 0)
(0.0864835 -8.06323e-05 0 8.19552e-08 0 0)
(0.0868171 -7.87132e-05 -2.20667e-20 7.77089e-08 3.79628e-24 9.20775e-37)
(0.0871523 -7.69787e-05 0 7.39913e-08 0 0)
(0.0874893 -7.54219e-05 0 7.07496e-08 0 0)