/*--------------------------------*- C++ -*----------------------------------*\
  =========                 |
  \\      /  F ield         | OpenFOAM: The Open Source CFD Toolbox
   \\    /   O peration     | Website:  https://openfoam.org
    \\  /    A nd           | Version:  7
     \\/     M anipulation  |
\*---------------------------------------------------------------------------*/
FoamFile
{
    version     2.0;
    format      ascii;
    class       volScalarField;
    location    "0.054";
    object      k_0;
}
// * * * * * * * * * * * * * * * * * * * * * * * * * * * * * * * * * * * * * //

dimensions      [0 2 -2 0 0 0 0];

internalField   nonuniform List<scalar> 
12225
(
1.93376e-05
1.80421e-05
1.66412e-05
1.53199e-05
1.39346e-05
1.29449e-05
1.13029e-05
1.02675e-05
8.60049e-06
6.92998e-06
6.79013e-06
9.10393e-06
1.12426e-05
9.3849e-06
4.89663e-06
3.41891e-06
3.10136e-06
5.13633e-06
1.99796e-05
1.98798e-05
1.96641e-05
1.94767e-05
1.90973e-05
1.88444e-05
1.83805e-05
1.77779e-05
1.73447e-05
1.69394e-05
1.59996e-05
1.55389e-05
1.55186e-05
1.55488e-05
1.58486e-05
1.65402e-05
1.67102e-05
1.62469e-05
1.99995e-05
1.9715e-05
1.93811e-05
1.92719e-05
1.90971e-05
1.895e-05
1.88646e-05
1.86864e-05
1.85634e-05
1.84521e-05
1.81936e-05
1.78933e-05
1.77441e-05
1.77201e-05
1.77425e-05
1.78434e-05
1.82302e-05
1.84212e-05
2.01677e-05
1.95969e-05
1.93289e-05
1.89842e-05
1.78431e-05
1.66686e-05
1.64071e-05
1.64325e-05
1.65258e-05
1.65277e-05
1.64527e-05
1.6353e-05
1.63438e-05
1.63976e-05
1.67074e-05
1.69708e-05
1.73441e-05
1.75548e-05
2.00441e-05
2.05453e-05
2.24994e-05
2.32477e-05
2.28999e-05
2.08966e-05
1.87973e-05
1.8023e-05
1.76671e-05
1.70833e-05
1.66631e-05
1.65776e-05
1.66112e-05
1.68039e-05
1.72474e-05
1.74885e-05
1.76177e-05
1.76642e-05
2.00272e-05
2.08759e-05
2.43709e-05
2.54453e-05
2.52309e-05
2.39938e-05
2.24738e-05
2.1433e-05
2.07269e-05
2.0195e-05
1.99899e-05
2.00002e-05
2.01792e-05
2.07748e-05
2.1156e-05
2.12368e-05
2.11995e-05
2.0965e-05
2.0101e-05
2.10849e-05
2.21363e-05
2.27479e-05
2.35239e-05
2.38971e-05
2.39416e-05
2.37611e-05
2.29861e-05
2.21195e-05
2.16925e-05
2.15622e-05
2.15598e-05
2.16296e-05
2.1943e-05
2.22279e-05
2.26841e-05
2.28651e-05
2.10416e-05
2.1497e-05
2.1199e-05
2.09939e-05
2.14839e-05
2.2777e-05
2.33181e-05
2.33605e-05
2.31664e-05
2.29514e-05
2.29594e-05
2.31335e-05
2.33382e-05
2.34126e-05
2.34589e-05
2.35021e-05
2.36145e-05
2.38554e-05
2.18072e-05
2.10344e-05
2.05618e-05
2.06818e-05
2.13967e-05
2.19045e-05
2.23215e-05
2.32631e-05
2.4205e-05
2.45957e-05
2.4635e-05
2.46088e-05
2.4532e-05
2.43621e-05
2.39617e-05
2.36363e-05
2.35381e-05
2.35557e-05
2.08886e-05
2.07855e-05
2.09611e-05
2.14685e-05
2.17413e-05
2.16196e-05
2.15931e-05
2.18919e-05
2.28971e-05
2.46161e-05
2.58408e-05
2.63458e-05
2.64249e-05
2.63675e-05
2.59789e-05
2.48015e-05
2.35171e-05
2.27126e-05
2.01104e-05
2.06516e-05
2.27265e-05
2.55351e-05
2.57152e-05
2.38844e-05
2.28425e-05
2.29249e-05
2.38113e-05
2.44956e-05
2.45649e-05
2.45986e-05
2.48369e-05
2.51135e-05
2.51206e-05
2.49696e-05
2.43272e-05
2.33109e-05
2.02643e-05
2.32447e-05
2.40981e-05
2.32869e-05
2.20709e-05
2.1484e-05
2.13651e-05
2.14306e-05
2.15992e-05
2.16243e-05
2.16416e-05
2.18324e-05
2.26344e-05
2.40843e-05
2.49513e-05
2.52574e-05
2.52676e-05
2.51661e-05
2.02808e-05
2.28458e-05
2.45887e-05
2.41986e-05
2.34577e-05
2.32799e-05
2.30687e-05
2.24983e-05
2.17548e-05
2.14102e-05
2.13527e-05
2.14126e-05
2.17838e-05
2.25591e-05
2.30842e-05
2.33405e-05
2.34136e-05
2.34652e-05
2.07143e-05
2.1886e-05
2.19294e-05
2.17104e-05
2.17582e-05
2.22629e-05
2.24912e-05
2.23392e-05
2.17456e-05
2.13872e-05
2.13062e-05
2.1311e-05
2.1359e-05
2.13915e-05
2.13924e-05
2.1363e-05
2.13468e-05
2.13679e-05
2.2167e-05
2.13777e-05
2.10765e-05
2.18974e-05
2.43545e-05
2.45835e-05
2.35969e-05
2.19818e-05
2.12064e-05
2.09401e-05
2.08817e-05
2.08774e-05
2.08875e-05
2.09115e-05
2.09246e-05
2.09285e-05
2.09275e-05
2.09208e-05
2.0734e-05
2.07987e-05
2.09368e-05
2.14055e-05
2.21362e-05
2.22793e-05
2.20722e-05
2.13059e-05
2.08869e-05
2.07793e-05
2.07405e-05
2.07116e-05
2.06649e-05
2.06397e-05
2.06385e-05
2.0656e-05
2.07501e-05
2.0948e-05
2.00802e-05
2.0344e-05
2.0835e-05
2.11197e-05
2.10736e-05
2.08077e-05
2.06297e-05
2.0637e-05
2.08066e-05
2.09545e-05
2.10214e-05
2.10286e-05
2.09993e-05
2.08648e-05
2.07476e-05
2.07096e-05
2.07088e-05
2.0735e-05
2.02766e-05
2.05248e-05
2.08235e-05
2.09504e-05
2.09124e-05
2.06521e-05
2.04066e-05
2.03623e-05
2.03941e-05
2.05756e-05
2.07903e-05
2.0886e-05
2.09101e-05
2.09087e-05
2.08854e-05
2.08071e-05
2.07508e-05
2.07364e-05
2.02597e-05
2.03451e-05
2.04411e-05
2.05117e-05
2.05041e-05
2.04286e-05
2.03372e-05
2.03134e-05
2.03242e-05
2.03832e-05
2.04421e-05
2.04701e-05
2.04774e-05
2.04766e-05
2.04767e-05
2.04898e-05
2.05252e-05
2.05353e-05
2.02505e-05
2.01281e-05
2.01243e-05
2.01562e-05
2.02278e-05
2.0399e-05
2.05688e-05
2.06681e-05
2.07116e-05
2.07179e-05
2.07031e-05
2.06888e-05
2.0703e-05
2.07792e-05
2.09898e-05
2.11707e-05
2.1264e-05
2.12925e-05
2.02017e-05
2.02319e-05
2.02119e-05
2.03105e-05
2.04278e-05
2.04655e-05
2.04621e-05
2.04619e-05
2.04666e-05
2.04701e-05
2.04686e-05
2.0458e-05
2.04464e-05
2.04449e-05
2.04499e-05
2.04577e-05
2.04589e-05
2.04565e-05
2.00778e-05
2.00802e-05
2.00401e-05
2.0041e-05
2.00707e-05
2.0173e-05
2.03697e-05
2.05291e-05
2.06224e-05
2.06577e-05
2.0663e-05
2.06603e-05
2.06459e-05
2.05916e-05
2.05284e-05
2.05097e-05
2.05161e-05
2.0557e-05
2.00653e-05
2.00559e-05
2.00299e-05
2.00436e-05
2.01572e-05
2.04523e-05
2.06237e-05
2.06818e-05
2.06895e-05
2.06805e-05
2.06594e-05
2.06548e-05
2.06535e-05
2.06341e-05
2.05799e-05
2.04957e-05
2.04316e-05
2.03891e-05
2.01856e-05
2.02729e-05
2.02207e-05
2.02298e-05
2.0448e-05
2.08085e-05
2.09214e-05
2.09226e-05
2.08613e-05
2.07848e-05
2.07634e-05
2.0764e-05
2.072e-05
2.0543e-05
2.03931e-05
2.03309e-05
2.032e-05
2.03295e-05
2.00677e-05
2.01403e-05
2.02882e-05
2.05864e-05
2.07446e-05
2.07695e-05
2.07264e-05
2.05822e-05
2.05046e-05
2.04833e-05
2.04798e-05
2.04783e-05
2.04714e-05
2.04322e-05
2.03549e-05
2.03191e-05
2.03132e-05
2.03208e-05
2.0002e-05
2.00234e-05
2.01365e-05
2.03183e-05
2.04277e-05
2.04705e-05
2.04787e-05
2.04769e-05
2.04649e-05
2.0436e-05
2.0377e-05
2.03019e-05
2.02426e-05
2.02102e-05
2.01989e-05
2.01978e-05
2.02006e-05
2.0218e-05
2.00138e-05
2.00181e-05
1.99948e-05
1.99744e-05
2.00031e-05
2.01608e-05
2.03291e-05
2.03183e-05
1.99334e-05
1.87141e-05
1.81945e-05
1.8228e-05
1.85865e-05
1.95432e-05
2.03043e-05
2.06768e-05
2.07705e-05
2.06801e-05
2.02842e-05
1.88571e-05
1.49241e-05
1.43559e-05
1.54077e-05
1.98521e-05
3.09588e-05
3.77921e-05
3.9731e-05
4.02598e-05
4.13506e-05
4.48725e-05
5.55737e-05
6.78424e-05
7.65527e-05
8.11473e-05
8.38683e-05
8.40832e-05
3.44092e-05
0.000118287
0.000138998
0.000166929
0.000220011
0.000342853
0.000448925
0.000490797
0.000497683
0.000498412
0.000502712
0.000524125
0.000569553
0.000597955
0.000609055
0.000611063
0.000611074
0.000610779
0.00334729
0.00292904
0.00275187
0.00267832
0.00250893
0.00230648
0.00213782
0.00197713
0.00184613
0.00177082
0.00173826
0.0017027
0.0016375
0.00155808
0.00148832
0.00144158
0.00141721
0.00140085
7.15867e-05
0.00023088
0.000400313
0.00055676
0.000601925
0.000567149
0.000485163
0.000434515
0.000395713
0.000372647
0.000361824
0.000354572
0.000346153
0.000339894
0.00033689
0.000334305
0.000328851
0.000322025
0.000301377
0.000298193
0.000306138
0.000331121
0.000360442
0.000412876
0.000467392
0.000480534
0.000473632
0.000474936
0.000531651
0.000778224
0.00170585
0.00244529
0.0026453
0.00293391
0.00431931
0.00762355
0.0089821
0.00950915
0.0103511
0.0151729
0.0389148
0.032013
0.00419618
0.000971271
0.00062654
0.000675557
0.000758131
0.000798767
0.000807683
0.000749976
0.00066554
0.000539908
0.000432688
0.000290978
0.000217341
0.000133803
9.89343e-05
7.88869e-05
7.24993e-05
7.30218e-05
7.55532e-05
7.60618e-05
7.62073e-05
7.58974e-05
7.41607e-05
7.12014e-05
6.83287e-05
6.62734e-05
6.46908e-05
6.29366e-05
6.07844e-05
5.84683e-05
5.63587e-05
5.4633e-05
5.31867e-05
5.18181e-05
5.05234e-05
4.94675e-05
4.86391e-05
4.77638e-05
4.67263e-05
4.56905e-05
4.46444e-05
4.35086e-05
4.24458e-05
4.17217e-05
4.12304e-05
4.02477e-05
3.87098e-05
3.75578e-05
3.69063e-05
3.55295e-05
3.38688e-05
3.29873e-05
3.14172e-05
3.00952e-05
2.86772e-05
2.72164e-05
2.56164e-05
2.39082e-05
2.20989e-05
2.02136e-05
1.82898e-05
1.636e-05
1.44837e-05
1.27367e-05
1.11267e-05
9.61896e-06
8.23707e-06
7.00142e-06
5.91799e-06
4.97802e-06
4.16786e-06
3.47551e-06
2.88928e-06
2.39588e-06
1.98327e-06
1.6383e-06
1.35073e-06
1.11148e-06
9.11207e-07
7.44741e-07
6.07164e-07
4.94315e-07
4.02418e-07
3.27861e-07
2.67333e-07
2.18005e-07
1.776e-07
1.44371e-07
1.16997e-07
9.44537e-08
7.59156e-08
6.07053e-08
4.82643e-08
3.8131e-08
2.99209e-08
2.33105e-08
1.80252e-08
1.38304e-08
1.05264e-08
7.94448e-09
5.9433e-09
4.4054e-09
3.23397e-09
2.34987e-09
1.68909e-09
1.20039e-09
8.43107e-10
5.85134e-10
4.01268e-10
2.71912e-10
1.8206e-10
1.20435e-10
7.87078e-11
5.08141e-11
3.24069e-11
2.04163e-11
1.27058e-11
7.81145e-12
4.74447e-12
2.84715e-12
1.68818e-12
9.89144e-13
5.72654e-13
3.27658e-13
1.85197e-13
1.03492e-13
5.70734e-14
3.12325e-14
1.66926e-14
9.13646e-15
4.67595e-15
2.47298e-15
1.39926e-15
2.04692e-15
2.67503e-14
1.86692e-11
1.47617e-08
2.6265e-07
0.000114402
0.000469611
0.000466434
0.000469031
0.000501099
0.000519677
0.000552549
0.000579944
0.000581036
0.000592558
0.000634891
0.000713967
0.00075583
0.000771983
0.00080432
0.000857245
0.000871266
0.000866688
0.000850062
0.000810236
0.000755465
0.000722576
0.000689876
0.000646869
0.000621554
0.000586542
0.00054357
0.00053155
0.000548322
0.000624385
0.000827431
0.00139671
0.00167679
0.00157092
0.00178149
0.00271076
0.00318049
0.00708368
0.014883
0.0160036
0.0134697
0.005434
0.00112283
0.000499241
0.000390155
0.000364234
0.000327093
0.000299524
0.000260177
0.000239211
0.000211714
0.000192352
0.000181639
0.000175474
0.000174082
0.000176134
0.000185866
0.000190087
0.000196786
0.000199665
0.00020128
0.000201739
0.000201189
0.000196878
0.000188589
0.0001799
0.000173538
0.000169306
0.000165624
0.000161262
0.000156245
0.000151142
0.000146163
0.000141558
0.000137832
0.000135037
0.000132567
0.000129611
0.000126305
0.00012372
0.000121924
0.000119628
0.000116202
0.000112467
0.000109587
0.00010765
0.000105281
0.000101932
9.82041e-05
9.53358e-05
9.34387e-05
8.91817e-05
8.57228e-05
8.283e-05
7.94183e-05
7.63978e-05
7.34183e-05
7.0553e-05
6.78026e-05
6.50976e-05
6.23698e-05
5.95986e-05
5.67901e-05
5.38964e-05
5.07657e-05
4.73064e-05
4.35318e-05
3.95157e-05
3.53183e-05
3.1103e-05
2.71283e-05
2.35901e-05
2.03979e-05
1.75054e-05
1.49227e-05
1.26602e-05
1.07115e-05
9.05529e-06
7.66074e-06
6.49544e-06
5.53103e-06
4.73738e-06
4.08586e-06
3.54957e-06
3.10381e-06
2.72769e-06
2.40467e-06
2.12181e-06
1.86832e-06
1.63639e-06
1.4224e-06
1.2257e-06
1.04665e-06
8.85559e-07
7.42324e-07
6.16418e-07
5.07007e-07
4.13031e-07
3.33271e-07
2.66368e-07
2.10889e-07
1.65395e-07
1.28482e-07
9.88393e-08
7.52801e-08
5.67474e-08
4.2315e-08
3.11867e-08
2.27001e-08
1.63088e-08
1.15631e-08
8.09194e-09
5.58974e-09
3.81083e-09
2.56383e-09
1.70203e-09
1.1149e-09
7.20604e-10
4.59568e-10
2.8921e-10
1.79601e-10
1.10075e-10
6.65886e-11
3.97664e-11
2.34442e-11
1.36476e-11
7.84211e-12
4.45077e-12
2.49006e-12
1.38078e-12
7.46231e-13
4.09526e-13
2.09958e-13
1.13625e-13
5.68244e-14
3.65438e-13
2.8946e-13
2.04632e-11
8.23597e-09
3.29252e-08
7.24384e-05
0.000651837
0.000399372
0.000254467
0.000258607
0.000312132
0.00042348
0.00061478
0.000747069
0.000872952
0.00110663
0.00131137
0.00143877
0.00149829
0.00157948
0.00165255
0.00165334
0.00163671
0.00159029
0.00148644
0.00139326
0.00128692
0.00120973
0.00115055
0.00101019
0.000883977
0.000776959
0.000690616
0.00063268
0.000637696
0.000655416
0.00074343
0.000825663
0.00101401
0.00202238
0.00690598
0.00964683
0.00940884
0.00989706
0.00541306
0.00211091
0.000805993
0.000358236
0.000276704
0.000252246
0.00023446
0.000217594
0.000209928
0.000203095
0.000199718
0.000197399
0.000196928
0.000200619
0.000209411
0.000220768
0.000235885
0.000250555
0.000267418
0.000283728
0.000297713
0.000304746
0.000307593
0.00030828
0.000305502
0.000292357
0.000269554
0.000245736
0.000231519
0.000225426
0.000222318
0.000220561
0.000218026
0.000213457
0.000207863
0.000204648
0.000203127
0.000201479
0.000197673
0.000192455
0.000190333
0.000189359
0.000187759
0.000183571
0.000177402
0.000172381
0.000169388
0.000165386
0.000159768
0.000153964
0.000147273
0.000142054
0.000132869
0.000125712
0.000117269
0.000109567
0.000102517
9.63223e-05
9.09734e-05
8.63581e-05
8.23556e-05
7.88085e-05
7.55942e-05
7.25887e-05
6.97254e-05
6.70301e-05
6.44311e-05
6.18671e-05
5.92973e-05
5.65668e-05
5.35214e-05
5.0011e-05
4.59833e-05
4.16591e-05
3.71762e-05
3.26288e-05
2.8163e-05
2.39517e-05
2.01446e-05
1.68209e-05
1.39126e-05
1.13885e-05
9.26e-06
7.52237e-06
6.14244e-06
5.06905e-06
4.24372e-06
3.60903e-06
3.11526e-06
2.72379e-06
2.40596e-06
2.14017e-06
1.91096e-06
1.70792e-06
1.52386e-06
1.35421e-06
1.19636e-06
1.04906e-06
9.11877e-07
7.8494e-07
6.68676e-07
5.63635e-07
4.70113e-07
3.87986e-07
3.16791e-07
2.55841e-07
2.04306e-07
1.61272e-07
1.25792e-07
9.69119e-08
7.37085e-08
5.53162e-08
4.09415e-08
2.98721e-08
2.14792e-08
1.52166e-08
1.0619e-08
7.29911e-09
4.94154e-09
3.29496e-09
2.16384e-09
1.39945e-09
8.91426e-10
5.5934e-10
3.4585e-10
2.10739e-10
1.2659e-10
7.49381e-11
4.37526e-11
2.51367e-11
1.43179e-11
7.8682e-12
4.56752e-12
2.07303e-12
1.6862e-12
1.00512e-12
2.13772e-12
2.48302e-11
2.18261e-11
6.51457e-10
2.48422e-09
0.000104157
0.000369894
0.000220154
0.000178297
0.00020614
0.000307229
0.000448189
0.00068847
0.000980819
0.00113685
0.0014391
0.00166911
0.00183435
0.00201759
0.00216434
0.00233684
0.00238553
0.00236928
0.00231678
0.00219475
0.00202373
0.00190417
0.00179931
0.00170284
0.00163043
0.00146317
0.0012153
0.00104299
0.000853794
0.00072242
0.000688597
0.000723168
0.00098724
0.00387591
0.00775602
0.007973
0.0080127
0.00497301
0.00238
0.0011303
0.000538011
0.000343981
0.000294062
0.000281139
0.000274233
0.000270767
0.00026891
0.000268972
0.000269599
0.000273026
0.000281335
0.000293946
0.000307875
0.000322186
0.000336097
0.000355868
0.000381231
0.000412936
0.000447504
0.000468525
0.00047584
0.000478504
0.000479048
0.000476641
0.000465743
0.000444137
0.000414567
0.000382058
0.00035577
0.000343655
0.000336333
0.000330357
0.000326731
0.000322046
0.000315678
0.000309917
0.000304886
0.000299946
0.00029551
0.000292552
0.000291389
0.000290763
0.000289554
0.000287083
0.000284123
0.000281276
0.000278088
0.00027276
0.000266054
0.000258375
0.000247955
0.000235637
0.000220443
0.000202619
0.000181984
0.000160521
0.000140687
0.000124813
0.000111436
0.000100708
9.24079e-05
8.60512e-05
8.1095e-05
7.71481e-05
7.38834e-05
7.10855e-05
6.85869e-05
6.6268e-05
6.41379e-05
6.21567e-05
6.02532e-05
5.8347e-05
5.63589e-05
5.42015e-05
5.1692e-05
4.86545e-05
4.50597e-05
4.0957e-05
3.63708e-05
3.14151e-05
2.62717e-05
2.12448e-05
1.67112e-05
1.2876e-05
9.75832e-06
7.33864e-06
5.53744e-06
4.23673e-06
3.31296e-06
2.65967e-06
2.19488e-06
1.85861e-06
1.60809e-06
1.41394e-06
1.25632e-06
1.12222e-06
1.00359e-06
8.9587e-07
7.96558e-07
7.0418e-07
6.17695e-07
5.36671e-07
4.61346e-07
3.92202e-07
3.29652e-07
2.7391e-07
2.2497e-07
1.82615e-07
1.46468e-07
1.16037e-07
9.07614e-08
7.00624e-08
5.33605e-08
4.00798e-08
2.9675e-08
2.16467e-08
1.55493e-08
1.0994e-08
7.64841e-09
5.2344e-09
3.52374e-09
2.33339e-09
1.52002e-09
9.74281e-10
6.14502e-10
3.81438e-10
2.33e-10
1.40083e-10
8.28821e-11
4.82533e-11
2.76613e-11
1.55708e-11
8.68029e-12
4.65017e-12
2.66786e-12
1.24867e-12
2.43857e-12
2.65146e-12
2.46071e-11
1.38626e-10
7.26693e-05
0.000192343
0.000155529
0.000159734
0.0002171
0.000403795
0.00066012
0.000823537
0.00117974
0.00141958
0.00178989
0.00202733
0.00220656
0.0025157
0.00288353
0.00325785
0.00345008
0.00342077
0.00331771
0.00312729
0.00289393
0.0026587
0.00242709
0.00215731
0.00194725
0.00187839
0.0017827
0.0014625
0.00121571
0.000872004
0.000773267
0.00107265
0.00457508
0.00686893
0.00717348
0.00575168
0.00308254
0.00145148
0.000737425
0.000465274
0.000376103
0.000356597
0.000366502
0.000413351
0.000435524
0.000450812
0.000457582
0.000458942
0.000453481
0.000450639
0.000444899
0.000445341
0.000448496
0.000452866
0.000460182
0.000474237
0.000492647
0.000508222
0.00052067
0.000526684
0.000527897
0.000527842
0.000526131
0.000521879
0.000514249
0.000501645
0.000482505
0.000459401
0.000431354
0.000401955
0.000378539
0.000363477
0.000354033
0.000349348
0.000343926
0.000337206
0.000329725
0.000324674
0.000323116
0.000322861
0.00032327
0.000324677
0.000327295
0.000330903
0.000334149
0.000335482
0.000335859
0.00033523
0.000332491
0.000327665
0.000322419
0.000315596
0.000307845
0.000298759
0.000286896
0.000269835
0.000245558
0.000214099
0.000181291
0.000150923
0.000126196
0.000108704
9.61423e-05
8.73326e-05
8.10364e-05
7.62911e-05
7.25609e-05
6.95556e-05
6.70783e-05
6.49684e-05
6.30887e-05
6.13453e-05
5.96839e-05
5.80799e-05
5.65163e-05
5.47912e-05
5.26122e-05
4.99519e-05
4.70837e-05
4.41785e-05
4.11287e-05
3.75822e-05
3.31462e-05
2.79213e-05
2.25193e-05
1.75897e-05
1.34502e-05
1.01169e-05
7.52718e-06
5.57233e-06
4.13153e-06
3.09088e-06
2.35165e-06
1.83286e-06
1.47084e-06
1.21697e-06
1.03522e-06
8.99853e-07
7.93788e-07
7.0574e-07
6.27675e-07
5.54135e-07
4.83002e-07
4.15589e-07
3.5302e-07
2.96087e-07
2.4526e-07
2.00689e-07
1.62259e-07
1.29649e-07
1.02389e-07
7.99102e-08
6.16011e-08
4.68834e-08
3.52152e-08
2.60952e-08
1.90692e-08
1.37361e-08
9.74933e-09
6.81574e-09
4.69209e-09
3.18016e-09
2.12161e-09
1.39286e-09
8.99736e-10
5.71775e-10
3.57369e-10
2.19618e-10
1.32679e-10
7.87643e-11
4.59825e-11
2.63281e-11
1.48981e-11
8.15933e-12
4.59117e-12
2.24645e-12
1.47934e-12
7.67556e-13
1.71912e-12
7.82036e-12
0.000110916
0.000163456
0.000147429
0.000173931
0.000297751
0.000499477
0.000801884
0.0010909
0.00146088
0.00177244
0.00216111
0.00249656
0.00319582
0.00415181
0.0053677
0.00633145
0.00708882
0.0070411
0.00675699
0.00614072
0.00518902
0.00442977
0.00391744
0.00331934
0.00281861
0.0023366
0.00198078
0.00180377
0.00136035
0.000948992
0.00122894
0.00442234
0.00617095
0.00625794
0.00434591
0.00210752
0.00108406
0.000620326
0.000461382
0.000425457
0.000421094
0.000504307
0.000561842
0.000587179
0.000594255
0.000594408
0.0005761
0.000563035
0.000549745
0.000533431
0.000527517
0.000526268
0.00052644
0.000529807
0.000537021
0.000543133
0.000547293
0.000552657
0.000554811
0.000555283
0.000552
0.00054423
0.000538867
0.000533205
0.00052611
0.000516276
0.000499163
0.000482874
0.000460975
0.000431434
0.000403273
0.000378226
0.000358313
0.000350385
0.000346125
0.000341622
0.000335329
0.00033231
0.000332201
0.000333463
0.000335907
0.000339625
0.000345787
0.000353752
0.000360088
0.000362388
0.000362714
0.000361481
0.0003573
0.00035103
0.000345157
0.000338367
0.000331032
0.000322507
0.000313477
0.000303395
0.000291089
0.000274736
0.000253161
0.000226043
0.000194754
0.000161222
0.000130462
0.000107609
9.36372e-05
8.46785e-05
7.84865e-05
7.3753e-05
6.99762e-05
6.69687e-05
6.45865e-05
6.26457e-05
6.09506e-05
5.93807e-05
5.79163e-05
5.66248e-05
5.5347e-05
5.36661e-05
5.13079e-05
4.85548e-05
4.58681e-05
4.34443e-05
4.127e-05
3.89392e-05
3.5784e-05
3.13827e-05
2.61001e-05
2.07665e-05
1.60259e-05
1.20786e-05
8.91922e-06
6.46962e-06
4.62475e-06
3.27568e-06
2.31779e-06
1.65647e-06
1.2111e-06
9.16443e-07
7.21902e-07
5.90975e-07
4.99981e-07
4.34846e-07
3.85874e-07
3.44152e-07
3.04047e-07
2.64165e-07
2.25639e-07
1.89524e-07
1.56615e-07
1.27392e-07
1.02047e-07
8.0541e-08
6.26607e-08
4.80675e-08
3.63602e-08
2.71207e-08
1.99439e-08
1.44561e-08
1.03252e-08
7.26455e-09
5.03309e-09
3.43257e-09
2.30359e-09
1.52063e-09
9.86933e-10
6.29489e-10
3.94478e-10
2.4275e-10
1.46733e-10
8.69802e-11
5.07229e-11
2.88601e-11
1.63552e-11
8.72882e-12
5.1148e-12
2.31405e-12
1.88221e-12
1.06278e-12
2.55744e-12
3.13449e-12
0.000279981
0.000277477
0.000166875
0.000211354
0.000385647
0.000647923
0.000996496
0.00146715
0.00180318
0.00213878
0.00290866
0.0041375
0.00602948
0.00858331
0.0110976
0.0134
0.0151596
0.0150963
0.0145199
0.0131944
0.0105729
0.0075403
0.00555087
0.00410239
0.00312949
0.00270867
0.0024168
0.00189675
0.00132036
0.00145368
0.00412313
0.00562508
0.0057332
0.00384279
0.00173414
0.000905561
0.000578914
0.000471684
0.000452746
0.000473811
0.000577689
0.000628797
0.000647359
0.000651461
0.000642344
0.000624786
0.000608908
0.000600283
0.000595458
0.000593444
0.000599202
0.000615201
0.000634318
0.000654556
0.000668319
0.000674
0.000675747
0.000676416
0.000681199
0.000682501
0.000664986
0.000636494
0.000615648
0.000596924
0.000581241
0.000566392
0.000533518
0.0005096
0.000491957
0.000457949
0.000428632
0.000403233
0.000368833
0.000354934
0.00034927
0.000347694
0.000348033
0.000351846
0.000359409
0.000367071
0.000372794
0.000377382
0.00038059
0.000381534
0.000381235
0.000379406
0.000375569
0.000369976
0.00036238
0.000354733
0.000348952
0.000344146
0.000339054
0.000332473
0.000322036
0.000308455
0.000294443
0.000278564
0.000261431
0.000241883
0.000219744
0.000196705
0.000173307
0.000146676
0.000118893
9.80365e-05
8.62578e-05
7.89823e-05
7.37616e-05
6.95682e-05
6.61782e-05
6.35481e-05
6.15331e-05
5.98811e-05
5.83869e-05
5.6994e-05
5.58224e-05
5.48351e-05
5.36574e-05
5.1752e-05
4.90099e-05
4.60365e-05
4.34139e-05
4.1356e-05
3.97745e-05
3.82456e-05
3.60455e-05
3.25774e-05
2.78842e-05
2.26899e-05
1.77741e-05
1.35171e-05
9.9974e-06
7.19485e-06
5.04388e-06
3.45513e-06
2.32604e-06
1.55331e-06
1.0432e-06
7.17347e-07
5.14465e-07
3.89086e-07
3.09979e-07
2.58214e-07
2.23469e-07
1.98084e-07
1.75774e-07
1.5352e-07
1.31464e-07
1.10339e-07
9.08004e-08
7.33142e-08
5.81257e-08
4.52836e-08
3.46873e-08
2.61371e-08
1.93794e-08
1.41415e-08
1.01565e-08
7.17902e-09
4.99342e-09
3.41706e-09
2.29992e-09
1.52212e-09
9.90201e-10
6.32942e-10
3.97404e-10
2.44971e-10
1.48252e-10
8.79725e-11
5.12952e-11
2.92368e-11
1.63995e-11
8.97668e-12
4.87633e-12
2.53137e-12
1.31067e-12
6.30391e-13
5.49775e-13
6.27413e-13
0.000461234
0.000367236
0.000162464
0.000238633
0.000477776
0.00084374
0.001273
0.00165305
0.00207812
0.00297471
0.00457538
0.00643278
0.00914428
0.0130653
0.0164462
0.019054
0.0208288
0.0209
0.0204726
0.0193914
0.0171654
0.0134184
0.0092583
0.00592768
0.00398708
0.00308656
0.00240819
0.0018458
0.00171525
0.00391029
0.00515285
0.00531674
0.00385507
0.00162542
0.000831475
0.00055763
0.000476676
0.000464271
0.000496818
0.000609862
0.000661597
0.000678671
0.000681726
0.000676735
0.000673383
0.000668841
0.000670274
0.000684926
0.000711186
0.000750964
0.000805179
0.000873416
0.000953223
0.00103841
0.00111812
0.00118425
0.00122603
0.0012419
0.00123778
0.0011888
0.00112854
0.00103483
0.000937467
0.000873574
0.00079862
0.000760756
0.000690629
0.000633928
0.000605038
0.000549281
0.000493792
0.00046056
0.000417072
0.000396691
0.000388398
0.000386447
0.0003878
0.000395579
0.000398772
0.00039916
0.000397364
0.000393177
0.000387262
0.000380569
0.000371826
0.00035895
0.000343119
0.000326626
0.000312234
0.000304246
0.000303371
0.00031228
0.00032455
0.0003321
0.000332035
0.000322426
0.000302215
0.000275831
0.000250779
0.000227593
0.000207905
0.000192418
0.000178743
0.000162083
0.0001441
0.000122902
0.000100925
8.65308e-05
7.85004e-05
7.31028e-05
6.86915e-05
6.49814e-05
6.21139e-05
6.00402e-05
5.84831e-05
5.71021e-05
5.58103e-05
5.47269e-05
5.38753e-05
5.30117e-05
5.16477e-05
4.93125e-05
4.6222e-05
4.31633e-05
4.06775e-05
3.89472e-05
3.78158e-05
3.68259e-05
3.52807e-05
3.25383e-05
2.84184e-05
2.34587e-05
1.85135e-05
1.41011e-05
1.03751e-05
7.37407e-06
5.0672e-06
3.37464e-06
2.1875e-06
1.38994e-06
8.75676e-07
5.56646e-07
3.65427e-07
2.53626e-07
1.88284e-07
1.4906e-07
1.2487e-07
1.09344e-07
9.71721e-08
8.52665e-08
7.31611e-08
6.1308e-08
5.0185e-08
4.01622e-08
3.14559e-08
2.41365e-08
1.81606e-08
1.34087e-08
9.72064e-09
6.92196e-09
4.84284e-09
3.32937e-09
2.24917e-09
1.49296e-09
9.73594e-10
6.23622e-10
3.92272e-10
2.42235e-10
1.46815e-10
8.72845e-11
5.09113e-11
2.91045e-11
1.63084e-11
8.94962e-12
4.81985e-12
2.54053e-12
1.30608e-12
6.52285e-13
3.05024e-13
2.19045e-13
0.000627246
0.000417024
0.00016851
0.00029127
0.000573283
0.00097653
0.00138736
0.00183127
0.00252149
0.00370603
0.00529819
0.00725895
0.0103729
0.0147402
0.0182668
0.0206388
0.0224349
0.0228771
0.0219371
0.0199608
0.0171294
0.0132357
0.00904413
0.00573851
0.0039121
0.00288184
0.00236325
0.00216533
0.00371356
0.00474862
0.00491884
0.00387341
0.00166146
0.000816594
0.000546556
0.000473137
0.000461698
0.000501401
0.000623532
0.000687238
0.000707725
0.000713535
0.000715268
0.000728027
0.000744465
0.00077112
0.000822892
0.000906689
0.00102835
0.00119263
0.00139962
0.00164318
0.00192437
0.00222339
0.00249123
0.00269676
0.0028072
0.00284188
0.00274249
0.00257569
0.00233031
0.00206188
0.00168878
0.00151497
0.0012576
0.00110597
0.000982483
0.000855902
0.000800649
0.000722848
0.000660702
0.000609074
0.000539472
0.000491351
0.000455257
0.000436795
0.000420197
0.000408628
0.000403406
0.00039957
0.000391124
0.000374681
0.000351125
0.000323854
0.000296463
0.000271248
0.000247575
0.000225671
0.000207111
0.00019222
0.00018189
0.000180718
0.000198462
0.000241478
0.000293545
0.000321147
0.000321545
0.000303411
0.000269359
0.000230318
0.000195829
0.000169828
0.000151896
0.000146478
0.00014349
0.00013296
0.000118049
9.99922e-05
8.48104e-05
7.64982e-05
7.14401e-05
6.723e-05
6.336e-05
6.02276e-05
5.8031e-05
5.66287e-05
5.55221e-05
5.4429e-05
5.34606e-05
5.26922e-05
5.19507e-05
5.08462e-05
4.89236e-05
4.60691e-05
4.28864e-05
4.00593e-05
3.7964e-05
3.6658e-05
3.59194e-05
3.52972e-05
3.41823e-05
3.18326e-05
2.79896e-05
2.31166e-05
1.81334e-05
1.365e-05
9.86818e-06
6.85621e-06
4.58567e-06
2.96055e-06
1.85212e-06
1.12916e-06
6.76821e-07
4.04599e-07
2.46656e-07
1.57958e-07
1.09068e-07
8.18036e-08
6.62463e-08
5.72402e-08
5.09284e-08
4.48907e-08
3.85944e-08
3.22778e-08
2.62591e-08
2.08036e-08
1.60738e-08
1.21296e-08
8.95107e-09
6.46627e-09
4.57659e-09
3.1755e-09
2.16103e-09
1.44285e-09
9.45302e-10
6.07769e-10
3.83457e-10
2.3739e-10
1.44182e-10
8.58943e-11
5.01787e-11
2.87412e-11
1.61331e-11
8.8729e-12
4.78033e-12
2.5243e-12
1.30118e-12
6.63115e-13
3.16837e-13
1.60718e-13
0.00075944
0.000490629
0.000190565
0.000334527
0.00061295
0.00103759
0.00144625
0.0019339
0.00271
0.00393059
0.00548416
0.00735846
0.0104477
0.0148731
0.0185956
0.0207827
0.0215931
0.0215744
0.0203369
0.0183291
0.0153304
0.01155
0.00775829
0.00480866
0.00341178
0.00283677
0.00265102
0.00367027
0.00439047
0.00454412
0.00373929
0.00168916
0.000827678
0.000536092
0.000457215
0.000443489
0.000475363
0.000565144
0.000682266
0.000724324
0.000744392
0.000759354
0.000785147
0.00083236
0.000898747
0.00100478
0.00117901
0.00143455
0.00179666
0.00227452
0.00286983
0.00357241
0.0043657
0.00519185
0.00590287
0.00640618
0.00669927
0.00679026
0.00644103
0.00583549
0.00509783
0.0045225
0.00333332
0.00268716
0.00225472
0.0016411
0.00134759
0.0010929
0.000965195
0.000832258
0.000757997
0.000687568
0.000634581
0.000581318
0.000529264
0.000477677
0.000437082
0.000411762
0.000393983
0.000375443
0.000356235
0.000334864
0.000312379
0.000290337
0.000269853
0.000250501
0.000231438
0.00021269
0.000195398
0.00017899
0.000162569
0.00014668
0.000134203
0.000129155
0.000142156
0.00020178
0.000271957
0.000298725
0.000290789
0.000260255
0.000221756
0.000179581
0.00014452
0.000123122
0.000114297
0.000117238
0.000118151
0.000110021
9.55078e-05
8.20115e-05
7.3742e-05
6.91226e-05
6.53559e-05
6.15392e-05
5.81201e-05
5.56428e-05
5.42174e-05
5.34256e-05
5.26871e-05
5.19772e-05
5.13474e-05
5.06716e-05
4.96225e-05
4.78489e-05
4.52166e-05
4.21485e-05
3.92651e-05
3.70031e-05
3.5501e-05
3.46439e-05
3.41529e-05
3.36486e-05
3.27096e-05
3.06211e-05
2.66034e-05
2.158e-05
1.65766e-05
1.21628e-05
8.53657e-06
5.74296e-06
3.71364e-06
2.31567e-06
1.3974e-06
8.1967e-07
4.70432e-07
2.67269e-07
1.53456e-07
9.19448e-08
5.95246e-08
4.23717e-08
3.32216e-08
2.84655e-08
2.55101e-08
2.26835e-08
1.95551e-08
1.62957e-08
1.31384e-08
1.0271e-08
7.80361e-09
5.77421e-09
4.16803e-09
2.93891e-09
2.02631e-09
1.36724e-09
9.03373e-10
5.84759e-10
3.70951e-10
2.30661e-10
1.40603e-10
8.40201e-11
4.92165e-11
2.82573e-11
1.58988e-11
8.76494e-12
4.73275e-12
2.5046e-12
1.29562e-12
6.59622e-13
3.25487e-13
1.58325e-13
0.00085961
0.000608989
0.000251068
0.000361138
0.000624322
0.00105761
0.00146014
0.00195091
0.00274574
0.00376946
0.0047111
0.00562396
0.00696488
0.00930369
0.0130694
0.0158135
0.0169914
0.0172917
0.0159762
0.0138482
0.0106996
0.0075944
0.00497366
0.00377245
0.00335273
0.00318627
0.00378515
0.00411454
0.00418692
0.00346912
0.00164131
0.000832019
0.000533086
0.000443283
0.000425867
0.000448678
0.000514653
0.000655315
0.000734613
0.000779585
0.000829787
0.000888984
0.000995278
0.0011258
0.00132927
0.00164706
0.00210527
0.00273278
0.00360949
0.00474053
0.00610763
0.00776738
0.00972186
0.0118143
0.0136506
0.0149579
0.0158606
0.0161815
0.015381
0.0135756
0.0109727
0.00955747
0.00751221
0.00545612
0.00444129
0.00328439
0.00225197
0.0016003
0.00116407
0.00091826
0.000791599
0.000696312
0.00064305
0.000598621
0.000555832
0.000513614
0.000471027
0.000427625
0.000393547
0.000369168
0.000350714
0.000334197
0.000319308
0.000309243
0.00030491
0.000302865
0.000299607
0.000292768
0.000281874
0.000265985
0.000241572
0.000205405
0.000165094
0.000129946
0.000111104
0.000107428
0.000121637
0.000177257
0.00022731
0.000244278
0.000232139
0.000201797
0.000167236
0.000129438
0.000104769
9.42485e-05
9.51217e-05
0.000100538
9.90905e-05
8.93673e-05
7.82525e-05
7.07808e-05
6.64265e-05
6.29231e-05
5.93314e-05
5.58181e-05
5.30856e-05
5.14773e-05
5.08674e-05
5.05463e-05
5.0216e-05
4.98192e-05
4.92162e-05
4.81448e-05
4.6361e-05
4.38177e-05
4.08778e-05
3.80501e-05
3.57564e-05
3.41796e-05
3.32641e-05
3.28001e-05
3.24779e-05
3.19825e-05
3.09717e-05
2.8618e-05
2.40794e-05
1.88553e-05
1.39896e-05
9.88631e-06
6.67493e-06
4.32002e-06
2.68917e-06
1.61533e-06
9.39346e-07
5.30828e-07
2.93057e-07
1.59579e-07
8.71712e-08
4.91098e-08
2.97499e-08
2.01532e-08
1.54971e-08
1.33425e-08
1.21401e-08
1.09412e-08
9.47468e-09
7.85424e-09
6.25577e-09
4.80895e-09
3.5816e-09
2.59176e-09