/*--------------------------------*- C++ -*----------------------------------*\
  =========                 |
  \\      /  F ield         | OpenFOAM: The Open Source CFD Toolbox
   \\    /   O peration     | Website:  https://openfoam.org
    \\  /    A nd           | Version:  7
     \\/     M anipulation  |
\*---------------------------------------------------------------------------*/
FoamFile
{
    version     2.0;
    format      ascii;
    class       volScalarField;
    location    "0.054";
    object      nut;
}
// * * * * * * * * * * * * * * * * * * * * * * * * * * * * * * * * * * * * * //

dimensions      [0 2 -1 0 0 0 0];

internalField   nonuniform List<scalar> 
12225
(
0
0
0
0
0
0
0
0
0
0
0
0
0
0
0
4.50341e-11
0
0
0
0
0
0
0
0
0
0
0
0
0
0
0
0
0
4.13748e-11
0
0
0
9.24413e-10
0
0
2.14837e-11
0
1.51706e-10
1.204e-10
0
0
0
0
0
0
0
7.07203e-12
0
0
7.02046e-09
1.61395e-08
4.25024e-09
3.74257e-10
0
0
3.56742e-10
1.81599e-10
0
0
0
0
0
0
0
0
0
0
0
1.55554e-07
8.21171e-08
0
0
0
0
0
0
2.05178e-09
2.54837e-09
1.7582e-09
3.59258e-10
0
0
0
0
0
6.95509e-08
4.34624e-07
4.13497e-07
1.76493e-07
5.98527e-08
3.2032e-08
3.68765e-08
3.55423e-08
1.41732e-08
0
0
0
0
0
0
0
0
0
1.8699e-07
3.40627e-07
5.68095e-07
2.77559e-07
8.76662e-08
5.37474e-08
5.76241e-08
4.55067e-08
3.01043e-09
0
0
0
0
0
0
0
7.27309e-09
8.3691e-09
3.95908e-07
4.54429e-07
6.71189e-07
6.61445e-07
2.02481e-07
1.18619e-07
1.07935e-07
7.22177e-08
2.08122e-08
1.94747e-09
6.62125e-09
1.88596e-08
3.29076e-08
4.23558e-08
3.8362e-08
2.03847e-08
4.62963e-09
0
3.33975e-07
3.34303e-07
8.30629e-07
2.24962e-06
1.09155e-06
4.84977e-07
3.13532e-07
1.97002e-07
1.17075e-07
8.25582e-08
7.03693e-08
6.83257e-08
7.99378e-08
1.00454e-07
9.49338e-08
3.80358e-08
0
0
2.39911e-07
1.26279e-07
5.49602e-07
1.51656e-06
1.32228e-06
9.47503e-07
2.87705e-07
1.63995e-07
1.71077e-07
2.11106e-07
2.12258e-07
1.57736e-07
1.06784e-07
1.04997e-07
1.08258e-07
5.79537e-08
9.96661e-10
0
1.93725e-07
0
3.67169e-07
9.97552e-07
1.37477e-06
7.20949e-07
1.43793e-08
0
0
4.2625e-07
5.18647e-07
3.01278e-07
1.54073e-07
1.19316e-07
1.01858e-07
8.05567e-08
7.09802e-08
9.25181e-08
0
9.47736e-08
3.95449e-07
5.47358e-07
6.8347e-07
1.96793e-07
0
0
0
0
0
2.22612e-07
3.57079e-07
3.18814e-07
2.39821e-07
1.71285e-07
1.32239e-07
1.4738e-07
0
2.66496e-07
4.54378e-07
3.11856e-07
1.89722e-07
1.34294e-07
8.63316e-08
0
0
0
0
0
1.41154e-08
1.47474e-07
2.42061e-07
2.31255e-07
1.1002e-07
0
0
2.61354e-07
5.47493e-07
2.98547e-07
4.84403e-07
7.57914e-07
6.87949e-07
2.0091e-07
0
0
0
0
0
0
0
1.15279e-08
0
0
6.22184e-07
9.60738e-07
1.35077e-06
1.4273e-06
1.80769e-06
2.26191e-06
2.4301e-06
5.6855e-07
0
1.67996e-08
0
0
0
0
0
0
0
0
9.84022e-08
8.58828e-07
1.84526e-06
2.12302e-06
1.96467e-06
2.05632e-06
2.24162e-06
1.5045e-06
1.4675e-06
9.42478e-07
0
0
0
0
0
0
0
0
0
1.36047e-07
8.94813e-07
8.40786e-07
9.66738e-07
1.01679e-06
5.26107e-07
6.01051e-08
6.97065e-07
3.15638e-07
0
0
0
0
0
0
0
0
0
0
6.72538e-07
4.39662e-07
2.76909e-07
1.31717e-07
0
0
0
0
0
0
0
0
0
0
0
0
0
0
1.20278e-07
3.27193e-08
5.75219e-08
1.41504e-07
1.22229e-07
2.62383e-09
0
0
0
0
0
0
0
2.83811e-08
1.09656e-07
1.68116e-07
0
0
0
0
0
0
5.8719e-08
0
0
0
0
0
4.62455e-08
1.60814e-07
2.04834e-07
2.2606e-07
2.43192e-07
2.60369e-07
0
0
0
0
0
6.32393e-08
5.59814e-08
0
0
0
0
0
0
0
1.33492e-08
2.40338e-08
2.64527e-08
4.1649e-08
0
0
0
0
0
0
0
0
0
0
0
0
0
0
0
0
0
2.66607e-08
0
0
0
0
0
0
0
0
0
0
0
0
2.28195e-08
0
0
0
0
0
0
0
0
0
0
0
0
0
0
0
0
3.07404e-08
5.27064e-08
0
0
0
0
0
0
2.39073e-08
0
0
0
0
0
0
0
0
0
0
0
0
0
0
0
0
0
0
0
0
0
0
0
0
0
0
0
0
0
0
0
0
0
0
0
0
0
0
0
0
0
0
0
0
0
0
0
0
0
0
0
0
8.13956e-09
0
0
0
0
0
0
0
0
0
0
0
0
0
0
0
0
0
1.03126e-08
0
0
0
0
0
0
0
0
0
0
0
0
0
0
0
0
0
9.05271e-08
0
0
0
0
0
0
0
0
0
0
0
0
0
0
0
0
0
0
0
9.31967e-08
3.28652e-07
3.32639e-07
1.65467e-07
0
0
0
0
0
0
0
0
0
0
0
0
0
1.58957e-08
3.58612e-08
5.31075e-08
6.55405e-08
7.15627e-08
6.64998e-08
4.31605e-08
1.49509e-08
3.97561e-09
4.37267e-08
1.80538e-07
1.80858e-07
0
0
0
0
2.22479e-06
4.71933e-06
4.60978e-06
6.72921e-06
1.15914e-05
1.98869e-05
1.16432e-05
1.91919e-06
2.86567e-07
2.38549e-08
0
1.52921e-09
2.81893e-08
4.76037e-08
5.62319e-08
5.66421e-08
5.03953e-08
4.2026e-08
3.04798e-08
2.19857e-08
1.33165e-08
7.76979e-09
3.54683e-09
1.2208e-10
0
0
0
0
0
0
0
0
0
0
0
0
0
0
0
0
0
0
0
0
0
0
0
0
0
0
0
0
0
0
0
0
0
0
0
0
0
0
0
0
0
0
0
0
0
0
0
0
0
0
0
0
0
0
0
0
0
0
0
0
0
0
0
0
0
0
0
0
0
0
0
0
0
0
0
0
0
0
0
0
0
0
0
0
0
0
0
0
0
0
0
0
0
0
0
0
0
0
0
0
0
0
0
0
0
0
0
0
0
0
0
0
0
0
0
0
0
0
0
1.45848e-11
5.63029e-11
8.60496e-07
3.97951e-07
2.37409e-07
3.93669e-07
5.53901e-07
5.47528e-07
4.03239e-07
1.88862e-07
0
0
0
0
0
0
0
0
0
0
0
3.27692e-08
6.84933e-08
9.63089e-08
1.13643e-07
1.14383e-07
1.02602e-07
7.12837e-08
5.01912e-08
9.27157e-08
2.73284e-07
5.48183e-07
7.39196e-07
1.08121e-06
1.27699e-06
0
0
0
0
0
0
0
0
7.77428e-07
4.90283e-07
1.80844e-07
2.41449e-08
0
0
2.00833e-08
3.2406e-08
3.82766e-08
3.84417e-08
3.61249e-08
3.26653e-08
2.83924e-08
2.36124e-08
1.8336e-08
1.27757e-08
6.61679e-09
3.29432e-10
0
0
0
0
0
0
0
0
0
0
0
0
0
0
0
0
0
0
0
0
0
0
0
0
0
0
0
0
0
0
0
0
0
0
0
0
0
0
0
0
0
0
0
0
0
0
0
0
0
0
0
0
0
0
0
0
0
0
0
0
0
0
0
0
0
0
0
0
0
0
0
0
0
0
0
0
0
0
0
0
0
0
0
0
0
0
0
0
0
0
0
0
0
0
0
0
0
0
0
0
0
0
0
0
0
0
0
0
0
0
0
0
0
0
0
0
6.77954e-15
0
1.34777e-13
3.13758e-11
0
5.87247e-07
5.43495e-07
2.70306e-07
2.76359e-07
4.16499e-07
5.25131e-07
6.12963e-07
7.17807e-07
7.62753e-07
7.84352e-07
8.22728e-07
8.05278e-07
7.1491e-07
5.61298e-07
3.77998e-07
1.91812e-07
4.83764e-08
0
0
0
0
0
0
0
0
0
0
1.7257e-07
4.06953e-07
3.90878e-07
0
0
0
0
0
0
0
0
0
2.43111e-08
0
7.62461e-08
1.35447e-07
4.12657e-08
0
0
4.21129e-11
4.02717e-08
7.27275e-08
9.35524e-08
1.03029e-07
1.03834e-07
9.87762e-08
8.96171e-08
7.66643e-08
6.08071e-08
4.22086e-08
2.22575e-08
1.74668e-09
0
0
0
0
0
0
0
0
0
0
0
0
0
0
0
0
0
0
0
0
0
0
0
0
0
0
0
0
0
0
0
0
0
0
0
0
0
0
0
0
0
0
0
0
0
0
0
0
0
0
0
0
0
0
0
0
0
9.3215e-11
1.75223e-10
1.57317e-10
8.7422e-11
1.40042e-11
0
0
0
0
0
0
0
0
0
0
0
0
0
0
0
0
0
0
0
0
0
0
0
0
0
0
0
0
0
0
0
0
0
0
0
0
0
0
0
0
0
0
0
0
0
0
0
0
0
0
0
0
1.91886e-14
0
8.1645e-14
7.24651e-13
0
2.02832e-11
0
2.97341e-07
3.70334e-07
2.3636e-07
2.58138e-07
4.05724e-07
5.55055e-07
6.95335e-07
8.82203e-07
1.0671e-06
1.14504e-06
1.2602e-06
1.29681e-06
1.2539e-06
1.14999e-06
9.58891e-07
7.05665e-07
4.21379e-07
1.96654e-07
3.1452e-08
0
0
0
0
0
0
0
0
0
0
0
0
0
0
0
0
0
0
0
2.17334e-08
1.16103e-08
0
0
0
0
2.50941e-09
8.85586e-08
1.87703e-07
2.77397e-07
3.54411e-07
4.31205e-07
5.16725e-07
6.08321e-07
6.84995e-07
7.11746e-07
6.51527e-07
5.02408e-07
3.01577e-07
1.04341e-07
0
0
0
0
0
0
0
0
0
0
0
0
0
0
0
0
0
0
0
0
0
0
0
0
0
0
0
0
0
0
0
0
0
0
0
0
0
0
0
0
0
0
0
0
0
0
0
0
0
0
0
0
0
0
0
0
0
0
0
0
0
0
0
0
0
0
0
0
0
0
0
0
0
0
0
0
0
0
0
0
0
0
0
0
0
0
0
0
0
0
0
0
0
0
0
0
0
0
0
0
0
0
0
0
0
0
0
0
0
0
0
0
0
0
0
0
3.66176e-14
0
5.39044e-13
0
6.80046e-12
0
6.26086e-08
1.61163e-07
1.93727e-07
2.89876e-07
4.61907e-07
6.70665e-07
8.82433e-07
9.98102e-07
1.18752e-06
1.25399e-06
1.28624e-06
1.14766e-06
8.53034e-07
4.30894e-07
0
0
0
3.14413e-08
9.0144e-07
1.1434e-06
7.40943e-07
1.71702e-07
0
0
0
0
0
0
0
0
0
0
0
0
0
0
0
0
0
0
0
8.74593e-08
4.38346e-07
7.47981e-07
8.34371e-07
7.47313e-07
6.2245e-07
5.35373e-07
5.00247e-07
5.17178e-07
5.72767e-07
6.57634e-07
7.46215e-07
7.95859e-07
7.51648e-07
5.75671e-07
2.91918e-07
0
0
0
0
0
0
0
0
0
0
0
0
0
0
0
0
0
0
0
0
0
0
0
0
0
0
0
0
0
0
0
0
0
0
0
0
0
0
0
0
0
0
0
0
0
0
0
0
0
0
0
0
0
0
0
0
0
0
0
0
0
0
0
0
0
0
0
0
0
0
0
0
0
0
0
0
0
0
0
0
0
0
0
0
0
0
0
0
0
0
0
0
0
0
0
0
0
0
0
0
0
0
0
0
0
0
0
0
0
0
0
0
0
0
0
0
0
1.60751e-14
0
9.76449e-13
0
3.42625e-12
0
5.04625e-09
4.10275e-08
1.22919e-07
3.37574e-07
5.47927e-07
7.28797e-07
9.3075e-07
1.07556e-06
1.16235e-06
1.05016e-06
6.94046e-07
0
0
0
0
0
0
2.6419e-07
4.72021e-06
5.24307e-06
3.58181e-06
1.8677e-06
6.52025e-07
0
0
0
0
0
0
0
0
0
0
0
0
0
0
0
0
0
4.32916e-07
1.38551e-06
1.77222e-06
1.42689e-06
1.05593e-06
8.18027e-07
6.86427e-07
6.45969e-07
6.73757e-07
7.56853e-07
8.97599e-07
1.08571e-06
1.30402e-06
1.52093e-06
1.66574e-06
1.58986e-06
1.09916e-06
1.94224e-07
0
0
0
0
0
0
0
0
0
0
0
0
0
0
0
0
0
0
0
0
0
0
0
0
0
0
0
0
0
2.33876e-09
1.37297e-08
2.14167e-08
2.29881e-08
1.50687e-08
0
0
0
0
0
0
0
0
0
0
0
0
0
0
0
0
0
0
0
0
0
0
0
0
0
0
0
0
0
0
0
0
0
0
0
0
0
0
0
0
0
0
0
0
0
0
0
0
0
0
0
0
0
0
0
0
0
0
0
0
0
0
0
0
0
0
0
0
0
0
0
0
0
0
0
0
0
0
0
0
0
0
2.49229e-12
0
6.48851e-12
0
9.19514e-12
0
0
2.06033e-09
5.56607e-08
3.71684e-07
5.61108e-07
7.2446e-07
8.79966e-07
9.69115e-07
7.41799e-07
4.49619e-08
0
0
0
0
0
0
0
6.54453e-06
1.55356e-05
1.33091e-05
8.30223e-06
4.14826e-06
1.70456e-06
4.03878e-07
0
0
0
0
0
0
0
0
0
0
0
0
0
0
0
4.9869e-07
2.52306e-06
2.83333e-06
1.68252e-06
9.64196e-07
5.54259e-07
3.18068e-07
1.86121e-07
1.15549e-07
8.35069e-08
7.74739e-08
9.13168e-08
1.21496e-07
1.64229e-07
2.135e-07
2.5624e-07
2.64927e-07
1.90445e-07
0
0
0
0
0
0
6.99253e-08
1.25077e-07
1.36144e-07
1.14706e-07
7.77402e-08
3.70813e-08
2.58035e-09
0
0
0
0
0
0
0
0
0
0
0
0
0
0
0
0
0
0
0
0
0
0
0
0
0
0
0
0
0
0
0
0
0
0
0
0
0
0
0
0
0
0
0
0
0
0
0
0
0
0
0
0
0
0
0
0
0
0
0
0
0
0
0
0
0
0
0
0
0
0
0
0
0
0
0
0
0
0
0
0
0
0
0
0
0
0
0
0
0
0
0
0
0
0
0
0
0
0
0
0
0
0
0
0
0
0
0
0
0
0
0
0
1.6392e-08
3.36096e-07
4.81371e-07
6.10363e-07
6.76314e-07
4.83685e-07
0
0
0
0
0
0
0
0
6.00147e-06
2.04922e-05
2.30304e-05
2.02919e-05
1.43003e-05
7.91396e-06
3.45155e-06
1.11626e-06
5.31481e-08
0
0
0
0
0
0
0
0
0
0
0
0
0
0
0
2.30669e-06
1.22878e-06
4.4414e-07
6.39615e-08
0
0
0
0
0
0
0
0
0
0
0
0
0
0
0
0
0
0
0
6.08461e-08
1.34357e-07
1.82492e-07
2.00442e-07
1.94948e-07
1.71127e-07
1.26561e-07
7.47621e-08
2.68865e-08
0
0
0
0
0
0
0
0
0
0
0
0
0
0
0
0
0
0
0
0
0
0
0
0
0
0
0
0
0
0
0
0
0
0
0
0
0
0
0
0
0
0
0
0
0
0
0
0
0
0
0
0
0
0
0
0
0
0
0
0
0
0
0
0
0
0
0
0
0
0
0
0
0
0
0
0
0
0
0
0
0
0
0
0
0
0
0
0
0
0
0
0
0
0
0
0
0
0
0
0
0
0
0
0
0
0
0
0
0
0
6.60836e-10
2.28466e-07
2.819e-07
3.23471e-07
2.58864e-07
0
0
0
2.78797e-06
1.10646e-05
1.56687e-05
2.21445e-05
2.89124e-05
2.65599e-05
2.26002e-05
2.10117e-05
2.10323e-05
2.08523e-05
1.75615e-05
1.06213e-05
4.39427e-06
1.19258e-06
2.49504e-08
0
0
0
0
0
0
0
0
0
0
0
0
0
0
0
8.56821e-07
1.90698e-07
0
0
0
0
0
0
0
0
0
0
0
0
4.59164e-08
3.24002e-08
0
0
0
0
8.91115e-08
1.814e-07
2.13143e-07
2.21024e-07
2.06943e-07
1.97871e-07
1.9344e-07
1.90926e-07
1.94946e-07
1.88945e-07
1.70499e-07
1.35137e-07
8.42075e-08
3.19762e-08
0
0
0
0
0
0
0
0
0
0
0
0
0
0
0
0
0
0
0
0
0
0
0
0
0
0
0
0
0
0
0
0
0
0
0
0
0
0
0
0
0
0
0
0
0
0
0
0
0
0
0
0
0
0
0
0
0
0
0
0
0
0
0
0
0
0
0
0
0
0
0
0
0
0
0
0
0
0
0
0
0
0
0
0
0
0
0
0
0
0
0
0
0
0
0
0
0
0
0
0
0
0
0
0
0
0
0
0
0
0
0
0
0
4.8227e-08
2.28346e-06
8.04263e-06
1.03515e-05
1.12016e-05
1.25179e-05
1.43186e-05
1.53508e-05
1.50813e-05
1.41474e-05
1.35194e-05
1.36493e-05
1.49846e-05
1.69954e-05
1.47273e-05
4.48324e-06
7.37099e-07
5.70792e-07
3.23327e-07
0
0
0
0
0
0
0
0
0
0
0
0
0
4.55635e-07
1.77285e-07
0
0
0
0
0
0
0
0
0
0
1.32123e-07
3.65009e-07
6.01285e-07
6.89773e-07
4.25553e-07
0
0
0
0
3.12143e-07
5.20646e-07
5.42514e-07
4.95977e-07
4.08426e-07
2.82071e-07
1.90705e-07
1.27086e-07
1.00464e-07
9.88995e-08
1.16043e-07
1.35991e-07
1.47243e-07
1.39492e-07
1.12869e-07
7.51625e-08
3.65997e-08
2.18229e-09
0
0
0
0
0
0
0
1.12464e-08
1.46309e-08
4.7084e-09
0
0
0
0
0
0
0
0
0
0
0
0
0
0
0
0
0
0
0
0
0
0
0
0
0
0
0
0
0
0
0
0
0
0
0
0
0
0
0
0
0
0
0
0
0
0
0
0
0
0
0
0
0
0
0
0
0
0
0
0
0
0
0
0
0
0
0
0
0
0
0
0
0
0
0
0
0
0
0
0
0
0
0
0
0
0
0
0
0
0
0
0
0
0
0
0
0
0
0
3.75708e-07
2.84879e-06
4.87434e-06
5.27174e-06
5.40889e-06
5.68957e-06
6.15971e-06
6.8077e-06
6.88904e-06
6.45959e-06
5.91745e-06
5.29568e-06
4.57188e-06
3.10699e-06
0
0
2.41547e-06
1.91047e-06
9.64996e-07
5.8187e-07
3.44181e-07
1.79726e-07
6.88513e-08
0
0
0
0
0
0
0
0
0
1.31238e-07
0
0
0
0
0
0
0
0
0
1.2943e-07
5.34009e-07
1.18241e-06
2.12361e-06
3.22265e-06
3.63114e-06
1.26477e-06
0
0
0
0
0
2.60512e-07
6.02477e-07
6.83019e-07
6.56454e-07
5.15669e-07
3.34622e-07
1.85263e-07
8.32062e-08
2.97516e-08
1.17042e-08
1.83715e-08
4.10113e-08
6.96047e-08
9.31108e-08
1.01863e-07
9.12755e-08
6.50043e-08
3.21552e-08
3.88089e-10
0
0
0
0
0
0
0
0
0
0
0
0
0
0
0
0
0
0
0
0
0
0
0
0
0
0
0
0
0
0
0
0
0
0
0
0
0
0
0
0
0
0
0
0
0
0
0
0
0
0
0
0
0
0
0
0
0
0
0
0
0
0
0
0
0
0
0
0
0
0
0
0
0
0
0
0
0
0
0
0
0
0
0
0
0
0
0
0
0
0
0
0
0
0
0
0
0
0
0
0
0
0
0
0
0
0
0
0
1.17789e-06
2.61571e-06
3.08341e-06
3.06348e-06
3.01236e-06
2.943e-06
2.79756e-06
2.57156e-06
2.22226e-06
1.82911e-06
1.29128e-06
5.62945e-07
0
0
3.08343e-06
3.583e-06
2.54687e-06
1.8937e-06
1.44172e-06
1.09958e-06
8.50587e-07
7.57414e-07
8.32297e-07
2.90262e-07
0
0
0
0
0
0
0
0
0
0
0
0
0
0
0
0
2.44693e-07
8.41116e-07
1.87819e-06
3.6152e-06
6.4681e-06
1.09855e-05
1.4891e-05
0
0
0
0
0
0
0
9.65278e-08
4.72688e-07
6.15718e-07
6.23696e-07
5.27361e-07
3.63239e-07
1.97941e-07
8.92075e-08
2.96483e-08
0
0
0
0
1.991e-08
4.0879e-08
4.23072e-08
2.05543e-08
0
0
0
0
0
0
0
0
0
0
0
0
0
0
0
0
0
0
0
0
0
0
0
0
0
2.40783e-09
1.61383e-09
0
0
0
0
0
0
0
0
0
0
0
0
0
0
0
0
0
0
0
0
0
0
0
0
0
0
0
0
0
0
0
0
0
0
0
0
0
0
0
0
0
0
0
0
0
0
0
0
0
0
0
0
0
0
0
0
0
0
0
0
0
0
0
0
0
0
0
0
0
0
0
0
0
0
0
0
0
0
0
0
0
0
0
1.05946e-06
1.77196e-06
1.95073e-06
1.87045e-06
1.74727e-06
1.56902e-06
1.35271e-06
1.15465e-06
1.01976e-06
9.59302e-07
1.15364e-06
1.84625e-06
2.9081e-06
3.43007e-06
3.34365e-06
3.0876e-06
2.81347e-06
2.50406e-06
2.21645e-06
1.54681e-06
7.81133e-07
4.34856e-07
2.40853e-07
8.3497e-08
0
0
0
0
0
0
0
0
0
0
0
0
0
0
1.71951e-07
7.16765e-07
1.67841e-06
3.27233e-06
5.68874e-06
8.64878e-06
9.89234e-06
1.51011e-06
0
0
0
0
0
0
0
0
1.82269e-07
3.76697e-07
4.14919e-07
4.15909e-07
3.87215e-07
3.07439e-07
1.97612e-07
1.1459e-07
6.31114e-08
1.9575e-08
0
0
0
0
3.63574e-08
7.35134e-08
5.32989e-08
0
0
0
0
0
0
0
0
0
0
0
0
0
0
0
0
0
0
0
0
0
0
0
4.71698e-11
1.02343e-08
4.86935e-09
0
0
0
0
0
0
0
0
0
0
0
0
0
0
0
0
0
0
0
0
0
0
0
0
7.83083e-09
3.1849e-09
0
0
0
0
0
0
0
0
0
0
0
0
0
0
0
0
0
0
0
0
0
0
0
0
0
0
0
0
0
0
0
0
0
0
0
0
0
0
0
0
0
0
0
0
0
0
0
0
0
0
0
0
0
0
0
0
0
0
6.82495e-07
1.17582e-06
1.34773e-06
1.35503e-06
1.33388e-06
1.3014e-06
1.29666e-06
1.36863e-06
1.54262e-06
1.87873e-06
2.2741e-06
2.66542e-06
2.99953e-06
3.24812e-06
3.32507e-06
2.96355e-06
1.93014e-06
1.07042e-06
6.86333e-07
4.891e-07
3.61277e-07
2.53651e-07
1.4398e-07
2.45485e-08
0
0
0
0
0
1.48235e-08
0
0
0
0
0
0
0
1.93442e-07
6.61829e-07
1.42498e-06
2.35133e-06
3.01352e-06
2.42507e-06
0
0
0
0
0
0
0
0
0
0
3.87338e-08
3.11343e-07
3.18792e-07
2.70595e-07
2.70369e-07
2.57971e-07
1.81559e-07
1.06894e-07
8.99325e-08
7.26161e-08
2.04222e-08
0
0
0
0
1.03895e-08
9.25158e-08
1.03602e-07
5.16794e-08
0
0
0
0
0
0
0
0
0
0
0
0
0
0
0
0
0
0
0
0
0
5.9582e-09
1.25835e-08
1.02964e-08
3.20267e-10
0
0
0
0
0
0
0
0
0
0
0
0
0
0
0
0
0
0
0
0
0
0
0
0
1.02848e-08
7.98993e-09
0
0
0
0
0
0
0
0
0
0
0
0
0
0
0
0
0
0
0
0
0
0
0
0
0
0
0
0
0
0
0
0
0
0
0
0
0
0
0
0
0
0
0
0
0
0
0
7.77656e-09
0
0
0
0
0
0
0
0
0
0
2.37802e-07
6.38068e-07
8.37673e-07
9.26562e-07
9.76936e-07
1.02598e-06
1.11129e-06
1.24269e-06
1.4256e-06
1.65952e-06
1.93426e-06
2.21199e-06
2.23949e-06
1.76021e-06
1.16943e-06
8.31115e-07
6.27058e-07
5.05828e-07
4.19817e-07
3.4554e-07
2.72671e-07
1.94531e-07
1.11336e-07
2.00021e-08
0
0
2.48393e-08
7.35157e-08
8.7952e-08
7.58533e-08
4.44431e-08
5.59761e-09
0
0
0
0
0
0
0
0
0
0
0
0
0
0
0
0
0
0
0
0
0
1.71838e-07
2.87989e-07
2.20111e-07
1.85681e-07
2.08437e-07
1.62427e-07
5.26068e-08
3.60887e-08
1.18459e-07
1.11547e-07
0
0
0
0
0
0
0
0
2.78493e-08
4.45252e-08
3.37804e-08
1.40027e-08
0
0
0
0
0
0
0
0
0
0
0
0
0
0
0
2.48762e-09
6.65417e-09
9.0488e-09
1.20192e-08
1.23562e-08
7.15469e-09
0
0
0
0
0
0
0
0
0
0
0
0
0
0
0
0
0
0
0
0
0
0
0
0
7.44897e-10
1.04525e-08
8.38723e-09
0
0
0
0
0
0
0
0
0
0
0
0
0
0
0
0
0
0
0
0
0
0
0
0
0
0
0
0
0
0
0
0
0
0
0
0
0
0
0
0
0
0
0
0
0
0
4.47565e-09
0
0
0
0
0
0
0
0
0
0
0
0
1.44944e-07
2.77418e-07
3.56477e-07
4.33707e-07
5.26094e-07
6.43509e-07
7.88596e-07
9.84098e-07
1.19816e-06
1.2825e-06
1.0989e-06
8.73611e-07
7.014e-07
5.86028e-07
5.1984e-07
4.61095e-07
4.04911e-07
3.54105e-07
3.0241e-07
2.4718e-07
1.94621e-07
1.40706e-07
1.06686e-07
1.10475e-07
1.32009e-07
1.47382e-07
1.61254e-07
1.69511e-07
1.67137e-07
1.52743e-07
1.28986e-07
7.16979e-08
0
0
0
0
0
0
0
0
0
0
0
0
0
0
0
0
0
0
0
8.50816e-08
2.35985e-07
1.76893e-07
9.61199e-08
1.0054e-07
1.19183e-07
4.10516e-08
0
9.02657e-08
2.26823e-07
1.26652e-07
0
0
0
0
0
0
0
0
0
4.50732e-08
6.74234e-08
3.39281e-08
0
0
0
0
0
0
0
0
0
0
0
0
1.15781e-08
1.86135e-08
1.18858e-08
7.35474e-09
7.02387e-09
9.76244e-09
1.19003e-08
9.75749e-09
4.77335e-09
5.50379e-10
0
0
1.00714e-09
1.97185e-09
0
0
0
0
0
0
0
0
0
1.37297e-09
2.98881e-09
0
0
0
0
0
0
0
0
1.63102e-09
1.28781e-08
7.5234e-09
0
0
0
0
0
0
0
0
0
0
0
0
0
0
0
0
0
0
0
0
0
0
0
0
0
0
0
0
0
0
0
0
0
0
0
0
0
0
0
0
0
0
0
0
0
0
0
0
0
0
0
0
0
0
0
0
0
0
0
0
7.29498e-08
1.94743e-07
3.10913e-07
4.27032e-07
5.45929e-07
6.5652e-07
6.95245e-07
6.67984e-07
5.65209e-07
4.90727e-07
4.50951e-07
4.32244e-07
4.26703e-07
4.17326e-07
4.02659e-07
3.765e-07
3.37208e-07
2.92156e-07
2.46987e-07
2.0391e-07
1.78145e-07
1.75968e-07
1.85843e-07
1.97369e-07
2.16787e-07
2.41585e-07
2.64667e-07
2.82564e-07
2.92858e-07
2.70132e-07
1.38627e-07
0
0
0
0
0
0
0
0
0
0
0
0
0
0
0
0
3.94956e-08
1.82119e-07
1.95316e-07
2.08781e-07
1.69487e-07
6.27081e-08
5.22628e-09
3.23101e-08
4.02873e-08
0
0
1.16569e-07
1.90732e-07
7.01019e-09
0
0
0
0
0
0
0
0
0
0
2.56386e-09
0
0
0
0
0
0
0
0
0
0
0
0
6.55295e-10
3.5489e-08
3.12666e-08
2.3035e-08
1.60033e-08
9.98062e-09
6.9607e-09
6.91134e-09
6.48345e-09
6.62659e-09
1.06296e-08
1.6151e-08
1.91669e-08
1.79858e-08
1.31997e-08
6.86598e-09
1.32461e-09
0
0
0
0
0
0
0
3.02034e-09
2.92091e-09
0
0
0
0
0
0
0
0
2.32769e-09
1.72213e-08
4.96577e-09
0
0
0
0
0
0
0
0
0
0
0
0
0
0
0
0
0
0
0
0
0
0
0
0
0
0
0
0
0
0
0
0
0
0
0
0
0
0
0
0
0
0
0
0
0
0
0
0
0
0
0
0
0
0
0
0
0
0
0
7.21652e-08
2.01165e-07
3.06166e-07
3.86285e-07
4.28114e-07
4.3925e-07
3.95042e-07
3.21121e-07
2.62482e-07
2.30968e-07
2.31725e-07
2.54546e-07
2.88309e-07
3.26223e-07
3.63438e-07
3.85267e-07
3.83959e-07
3.58786e-07
3.13107e-07
2.56022e-07
2.08679e-07
1.84394e-07
1.83592e-07
2.01224e-07
2.34216e-07
2.68218e-07
3.03505e-07
3.46336e-07
3.98167e-07
4.42602e-07
3.99747e-07
2.28435e-07
0
0
0
0
0
0
0
0
0
0
0
0
0
4.78312e-07
5.47821e-07
4.60072e-07
3.69722e-07
2.57035e-07
1.89075e-07
1.5648e-07
7.88748e-08
0
0
1.77142e-09
6.48506e-09
0
0
2.18784e-08
8.56635e-08
0
0
0
0
0
0
0
0
0
0
0
0
0
0
0
0
0
0
0
0
0
0
0
1.35742e-08
6.40886e-08
6.32926e-08
5.27372e-08
4.34082e-08
3.3405e-08
2.23617e-08
1.24052e-08
6.03271e-09
3.97542e-09
7.13842e-09
1.60736e-08
2.59786e-08
2.95056e-08
2.49678e-08
1.71364e-08
1.02588e-08
5.25791e-09
1.93749e-09
4.34963e-10
0
0
0
0
1.80668e-09
2.84123e-09
0
0
0
0
0
0
0
0
0
3.70183e-09
2.30905e-08
6.27818e-10
0
0
0
0
0
0
0
0
0
0
0
0
0
0
0
0
0
0
0
0
0
0
0
0
0
0
0
0
0
0
0
0
0
0
0
0
0
0
0
0
0
0
0
0
0
0
0
0
0
0
0
0
0
0
0
0
0
0
1.06986e-07
2.07094e-07
2.77743e-07
3.25675e-07
3.34941e-07
3.03608e-07
2.44572e-07
1.65189e-07
1.01457e-07
6.23494e-08
5.16609e-08
6.79917e-08
1.05652e-07
1.54013e-07
2.07857e-07
2.56135e-07
2.93461e-07
3.14695e-07
3.15999e-07
2.91953e-07
2.48429e-07
2.03823e-07
1.75672e-07
1.71479e-07
1.8592e-07
2.12481e-07
2.51075e-07
2.99048e-07
3.62756e-07
4.30019e-07
4.62436e-07
4.14981e-07
2.63165e-07
0
0
0
0
0
0
0
0
0
0
0
6.04032e-07
7.6286e-07
5.8345e-07
3.77593e-07
2.9587e-07
2.54746e-07
1.96523e-07
1.61846e-07
1.29732e-07
3.94907e-08
0
0
0
0
0
0
0
0
0
0
0
0
0
0
0
0
0
0
0
0
0
0
0
0
0
0
0
0
0
0
6.67499e-08
9.77026e-08
9.17958e-08
7.97123e-08
7.1904e-08
6.64067e-08
5.92927e-08
4.91903e-08
3.60121e-08
2.01716e-08
6.67803e-09
5.08833e-09
1.53902e-08
2.64645e-08
2.88794e-08
2.33813e-08
1.70155e-08
1.33093e-08
1.16864e-08
1.09798e-08
9.27928e-09
3.53891e-09
0
0
0
3.35169e-09
8.53709e-10
0
0
0
0
0
0
0
0
0
1.0651e-08
2.61518e-08
0
0
0
0
0
0
0
0
0
0
0
0
0
0
0
0
0
0
0
0
0
0
0
0
0
0
0
0
0
0
0
0
0
0
0
0
0
0
0
0
0
0
0
0
0
0
0
0
0
0
0
0
0
0
0
0
0
0
9.46432e-08
1.75942e-07
2.26247e-07
2.56213e-07
2.62489e-07
2.31892e-07
1.76724e-07
1.06864e-07
4.70627e-08
5.15398e-09
0
0
0
1.79394e-09
3.00426e-08
6.63536e-08
1.08548e-07
1.51633e-07
1.88962e-07
2.11534e-07
2.11479e-07
1.91931e-07
1.62991e-07
1.36334e-07
1.21258e-07
1.2156e-07
1.40252e-07
1.66148e-07
2.12768e-07
2.63389e-07
3.17666e-07
3.2946e-07
3.08222e-07
2.10065e-07
2.4428e-08
0
0
0
0
0
0
0
0
0
1.22621e-07
2.54183e-07
2.62756e-07
2.04508e-07
2.299e-07
2.83162e-07
2.57533e-07
2.03803e-07
1.79306e-07
1.21559e-07
0
0
0
1.75424e-08
0
0
0
0
0
0
0
0
0
0
0
0
0
0
0
0
0
0
2.21752e-08
2.34659e-08
2.03344e-09
0
0
0
0
7.73494e-08
1.21837e-07
1.27409e-07
1.13167e-07
9.90118e-08
9.2294e-08
9.14416e-08
9.06501e-08
8.65692e-08
7.88898e-08
6.68061e-08
4.80441e-08
2.71961e-08
1.73053e-08
2.10567e-08
2.67589e-08
2.62672e-08
2.1757e-08
1.86837e-08
1.88601e-08
2.07494e-08
2.05747e-08
1.27956e-08
0
0
0
1.32101e-09
3.74024e-09
0
0
0
0
0
0
0
0
0
0
2.16527e-08
1.77218e-08
0
0
0
0
0
0
0
0
0
0
0
0
0
0
0
0
0
0
0
0
0
0
0
0
0
0
0
0
0
0
0
0
0
0
0
0
0
0
0
0
0
0
0
0
0
0
0
0
0
0
0
0
0
0
0
0
0
4.60416e-08
1.04875e-07
1.47282e-07
1.70466e-07
1.7652e-07
1.59652e-07
1.23481e-07
7.46355e-08
2.77083e-08
0
0
0
0
0
0
0
0
1.90786e-09
2.86684e-08
5.86123e-08
8.38582e-08
9.78087e-08
9.78588e-08
8.46947e-08
6.4497e-08
4.63219e-08
3.54075e-08
3.30491e-08
4.13963e-08
6.11447e-08
8.88904e-08
1.10315e-07
1.30534e-07
1.36282e-07
1.44421e-07
1.48538e-07
1.83424e-07
2.77221e-07
4.54898e-07
7.60076e-07
1.21233e-06
1.50535e-06
0
0
0
0
7.33635e-09
1.12252e-07
2.00762e-07
2.79346e-07
2.85843e-07
2.45351e-07
2.21358e-07
1.7219e-07
6.21242e-09
0
0
3.15378e-08
2.89332e-08
0
0
0
0
0
0
0
0
0
0
0
0
0
0
0
2.07177e-08
4.11217e-08
7.29738e-08
7.99276e-08
6.76476e-08
5.55235e-08
3.16338e-08
2.18836e-08
1.02284e-07
1.51569e-07
1.58218e-07
1.53308e-07
1.38574e-07
1.21163e-07
1.09177e-07
1.05454e-07
1.05958e-07
1.04687e-07
9.99987e-08
9.32232e-08
8.24004e-08
6.41062e-08
4.37777e-08
3.13854e-08
2.88362e-08
2.91015e-08
2.73035e-08
2.48444e-08
2.48578e-08
2.77271e-08
3.03643e-08
2.5185e-08
8.15641e-09
0
0
0
3.75207e-09
1.70795e-09
0
0
0
0
0
0
0
0
0
0
2.07023e-08
0
0
0
0
0
0
0
0
0
0
0
0
0
0
0
0
0
0
0
0
0
0
0
0
0
0
0
0
0
0
0
0
0
0
0
0
0
0
0
0
0
0
0
0
0
0
0
0
0
0
0
0
0
0
0
0
0
0
2.2816e-08
4.99054e-08
6.75464e-08
7.90695e-08
8.31595e-08
7.23977e-08
5.14722e-08
2.35841e-08
0
0
0
0
0
0
0
0
0
0
0
0
0
0
0
0
0
0
0
0
0
0
0
0
0
4.14076e-10
8.90195e-08
2.34349e-07
4.51237e-07
7.41048e-07
1.08464e-06
1.3618e-06
1.18435e-06
0
0
0
0
0
1.12538e-07
2.31894e-07
2.97831e-07
3.1137e-07
2.91272e-07
2.81308e-07
2.05331e-07
1.16819e-08
0
9.94448e-09
1.29351e-07
3.19784e-08
0
0
0
0
0
0
0
0
0
0
0
0
0
0
0
4.07992e-08
6.52868e-08
8.15896e-08
9.08224e-08
8.70789e-08
7.12486e-08
4.96885e-08
5.6274e-08
1.15978e-07
1.59512e-07
1.68776e-07
1.65161e-07
1.5913e-07
1.4899e-07
1.35069e-07
1.24207e-07
1.17087e-07
1.11324e-07
1.04169e-07
9.70396e-08
9.05963e-08
8.097e-08
6.50591e-08
4.85765e-08
3.83201e-08
3.49483e-08
3.40666e-08
3.27316e-08
3.22079e-08
3.40717e-08
3.70269e-08
3.53576e-08
2.08493e-08
0
0
0
0
4.75776e-09
0
0
0
0
0
0
0
0
0
0
0
1.82875e-09
0
0
0
0
0
0
0
0
0
0
0
0
0
0
0
0
0
0
0
0
0
0
0
0
0
0
0
0
0
0
0
0
0
0
0
0
0
0
0
0
0
0
0
0
0
0
0
0
0
0
0
0
0
0
0
0
0
0
0
0
0
0
0
0
0
0
0
0
0
0
0
0
0
0
0
0
0
0
0
0
0
0
0
0
0
0
0
0
0
0
0
0
5.32422e-08
2.18083e-07
4.12859e-07
5.83492e-07
6.47018e-07
4.77723e-07
0
0
0
0
0
1.41047e-07
2.68165e-07
2.91076e-07
2.92195e-07
3.20167e-07
3.37242e-07
2.13042e-07
0
0
6.32622e-07
3.18116e-07
7.87155e-08
0
0
0
0
0
0
0
0
0
0
0
0
0
0
2.96891e-08
1.03352e-07
1.0579e-07
9.03717e-08
7.93002e-08
6.96419e-08
5.75882e-08
5.2323e-08
8.06048e-08
1.40535e-07
1.78372e-07
1.85076e-07
1.75538e-07
1.64989e-07
1.60056e-07
1.55283e-07
1.45439e-07
1.3425e-07
1.21901e-07
1.0825e-07
9.57832e-08
8.74807e-08
8.17188e-08
7.39468e-08
6.18513e-08
5.008e-08
4.35765e-08
4.19225e-08
4.15502e-08
4.09384e-08
4.13998e-08
4.26628e-08
4.17596e-08
3.17549e-08
1.01737e-08
0
0
0
4.04978e-09
3.49769e-09
0
0
0
0
0
0
0
0
0
0
0
0
0
0
0
0
0
0
0
0
0
0
0
0
0
0
0
0
0
0
0
0
0
0
0
0
0
0
0
0
0
0
0
0
0
0
0
0
0
0
0
0
0
0
0
0
0
1.15833e-07
1.65728e-07
8.99647e-08
2.53504e-08
0
0
0
0
0
0
0
0
0
0
0
0
0
0
0
0
0
0
0
0
0
0
0
0
0
0
0
0
0
0
0
0
0
0
0
0
0
0
0
0
0
0
0
1.40875e-09
1.14371e-07
2.04827e-07
2.35306e-07
1.80048e-07
0
0
0
0
0
1.68781e-07
2.89894e-07
2.52753e-07
2.56635e-07
3.69333e-07
3.84342e-07
1.82548e-07
0
3.88448e-07
1.17339e-06
6.43741e-07
1.94724e-07
1.59554e-09
0
0
0
0
0
0
0
0
0
0
0
0
0
8.1779e-08
1.65364e-07
1.53747e-07
1.22181e-07
9.09667e-08
6.91654e-08
6.11603e-08
7.35925e-08
1.2114e-07
1.65974e-07
1.90771e-07
1.9533e-07
1.84242e-07
1.6864e-07
1.60325e-07
1.59856e-07
1.56533e-07
1.45949e-07
1.30957e-07
1.1316e-07
9.61515e-08
8.4438e-08
7.85988e-08
7.53309e-08
7.01891e-08
6.15437e-08
5.3523e-08
5.0237e-08
5.01666e-08
5.01048e-08
4.95653e-08
4.87581e-08
4.62866e-08
3.86586e-08
2.11052e-08
0
0
0
1.08344e-09
6.02466e-09
7.68766e-10
0
0
0
0
0
0
0
0
0
0
0
0
0
0
0
0
0
0
0
0
0
0
0
0
0
0
0
0
0
0
0
0
0
0
0
0
0
0
0
0
0
0
0
0
0
0
0
0
0
0
0
0
0
7.91516e-09
3.90471e-08
8.85282e-08
1.3725e-07
1.69476e-07
1.373e-07
3.41751e-08
0
0
0
0
0
0
0
0
0
0
0
0
0
0
0
0
0
0
0
0
0
0
0
0
0
0
0
0
0
0
0
0
0
0
0
0
0
0
0
0
0
0
0
0
0
0
3.46643e-08
3.92571e-08
0
0
0
0
0
1.68358e-07
2.54465e-07
1.46162e-07
2.21995e-07
4.05817e-07
3.81478e-07
1.1172e-07
0
7.11875e-07
1.78009e-06
1.03403e-06
3.586e-07
2.49364e-08
0
0
0
0
0
0
0
0
0
0
0
0
0
1.3496e-07
1.99783e-07
1.77209e-07
1.41693e-07
1.09282e-07
8.67479e-08
8.30637e-08
1.0692e-07
1.4864e-07
1.73845e-07
1.95465e-07
1.99866e-07
1.87965e-07
1.69387e-07
1.56686e-07
1.54367e-07
1.5562e-07
1.49466e-07
1.34677e-07
1.1592e-07
9.72274e-08
8.34217e-08
7.66629e-08
7.52512e-08
7.47769e-08
7.11066e-08
6.40137e-08
5.86813e-08
5.78541e-08
5.84767e-08
5.77204e-08
5.51316e-08
5.04161e-08
4.26792e-08
2.91342e-08
9.06701e-09
0
0
0
5.609e-09
5.10918e-09
0
0
0
0
0
0
0
0
0
0
0
0
0
0
0
0
0
0
0
0
0
0
0
0
0
0
0
0
0
0
0
0
0
0
0
0
0
0
0
0
0
0
0
0
0
0
0
0
0
0
0
0
0
0
9.55877e-09
2.51127e-08
3.85373e-08
4.67259e-08
3.07439e-08
0
0
0
0
0
0
0
0
0
0
0
0
0
0
0
0
0
0
0
0
0
0
0
0
0
0
0
0
0
0
0
0
0
0
0
0
0
0
0
0
0
0
0
0
0
0
0
0
0
0
0
0
0
0
1.22583e-07
1.34942e-07
4.67772e-08
2.51027e-07
4.15472e-07
3.46563e-07
3.79115e-08
0
9.14509e-07
2.61629e-06
1.42194e-06
4.56215e-07
3.97872e-08
0
0
0
0
0
3.4933e-08
7.1613e-08
8.49859e-08
2.39695e-08
0
0
0
0
2.01445e-07
2.28865e-07
1.90183e-07
1.48738e-07
1.18803e-07
1.03051e-07
1.04641e-07
1.24221e-07
1.50259e-07
1.70274e-07
1.91186e-07
1.94915e-07
1.83438e-07
1.64721e-07
1.49332e-07
1.43588e-07
1.4514e-07
1.44761e-07
1.33833e-07
1.16729e-07
9.86682e-08
8.42004e-08
7.64412e-08
7.51507e-08
7.7172e-08
7.70707e-08
7.22432e-08
6.57023e-08
6.33328e-08
6.41631e-08
6.38049e-08
6.03437e-08
5.38963e-08
4.4635e-08
3.31684e-08
1.67289e-08
8.11979e-11
0
0
3.4711e-09
6.14741e-09
2.47016e-09
0
0
0
0
0
0
0
0
0
0
0
0
0
0
0
0
0
0
0
0
0
0
0
0
0
0
0
0
0
0
0
0
0
0
0
0
0
0
0
0
0
0
0
0
0
0
0
0
0
0
0
0
4.40975e-09
3.41024e-08
4.08697e-08
4.38369e-08
4.35639e-08
3.18359e-08
7.90323e-09
0
0
0
0
0
0
0
0
0
0
0
0
0
0
0
0
0
0
0
0
0
0
0
0
0
0
0
0
0
0
0
0
0
0
0
0
0
0
0
0
0
0
0
0
0
0
0
8.91825e-09
0
0
0
0
0
5.59086e-08
3.11414e-08
1.11151e-07
3.05799e-07
3.9149e-07
2.99069e-07
0
0
1.04265e-06
3.81667e-06
1.58556e-06
3.68525e-07
4.73949e-08
0
0
0
0
0
1.21282e-07
1.06584e-07
1.43347e-07
2.58745e-07
2.59765e-07
0
0
6.4414e-08
2.335e-07
2.34001e-07
1.9278e-07
1.51547e-07
1.23314e-07
1.10846e-07
1.12582e-07
1.25493e-07
1.42816e-07
1.58668e-07
1.765e-07
1.8045e-07
1.71127e-07
1.54816e-07
1.39293e-07
1.30249e-07
1.29996e-07
1.3184e-07
1.27074e-07
1.1383e-07
9.7914e-08
8.39331e-08
7.5449e-08
7.33666e-08
7.5677e-08
7.76652e-08
7.4917e-08
6.82068e-08
6.4069e-08
6.42831e-08
6.46459e-08
6.14132e-08
5.44583e-08
4.38957e-08
3.25958e-08
1.99795e-08
5.23854e-09
0
0
5.20249e-10
4.43173e-09
3.33674e-09
0
0
0
1.14253e-08
0
0
0
0
0
0
0
0
0
0
0
0
0
0
0
0
0
0
0
0
0
0
0
0
0
0
0
0
0
0
0
0
0
0
0
0
0
0
0
0
0
0
0
0
0
0
0
0
0
2.26646e-08
3.82631e-08
4.50803e-08
4.63415e-08
3.71764e-08
2.16869e-08
2.86053e-09
0
0
0
0
0
0
0
0
0
0
0
0
0
0
0
0
0
0
0
0
0
0
0
0
0
0
0
0
0
0
0
0
0
0
0
0
0
0
0
0
0
0
0
0
0
2.27303e-08
5.10321e-08
4.5603e-08
0
0
0
0
1.81588e-08
8.43247e-08
2.70129e-07
3.58542e-07
3.65214e-07
2.63116e-07
0
0
1.60193e-06
5.29239e-06
1.34153e-06
2.33767e-07
5.50633e-08
1.86551e-08
0
0
0
3.20153e-08
7.79415e-08
7.70061e-08
1.67687e-07
4.60377e-07
8.75844e-07
0
0
1.65605e-07
2.46435e-07
2.32783e-07
1.93934e-07
1.55748e-07
1.28986e-07
1.16848e-07
1.17081e-07
1.25612e-07
1.36051e-07
1.45955e-07
1.61273e-07
1.68241e-07
1.62995e-07
1.49975e-07
1.35058e-07
1.23011e-07
1.19585e-07
1.21989e-07
1.22014e-07
1.13672e-07
9.99192e-08
8.63686e-08
7.70246e-08
7.35952e-08
7.51299e-08
7.80985e-08
7.75105e-08
7.15106e-08
6.54413e-08
6.40261e-08
6.44041e-08
6.21538e-08
5.54129e-08
4.42716e-08
3.17471e-08
2.08659e-08
9.27371e-09
0
0
0
1.17119e-09
1.74548e-09
0
0
0
8.16695e-09
2.70449e-08
0
0
0
0
0
0
0
0
0
0
0
0
0
0
0
0
0
0
0
0
0
0
0
0
0
0
0
0
0
0
0
0
0
0
0
0
0
0
0
0
0
0
0
0
0
0
0
0
8.80375e-10
4.36074e-09
8.02938e-09
1.00036e-08
1.04298e-08
1.02352e-08
4.06639e-09
0
9.39239e-10
1.11862e-09
0
0
0
0
0
0
0
0
0
0
0
0
0
0
0
0
0
0
0
0
0
0
0
0
0
0
0
0
0
0
0
0
0
0
0
4.2706e-08
1.12317e-07
1.32703e-07
1.02761e-07
5.26742e-08
1.52216e-08
1.87429e-08
3.42266e-08
5.99607e-08
1.84565e-07
6.09966e-07
1.60215e-06
4.25624e-07
2.13624e-08
2.02774e-08
3.11803e-07
4.53942e-07
4.10939e-07
3.51012e-07
2.45802e-07
0
0
3.34976e-06
6.4252e-06
8.06893e-07
1.06611e-07
5.27985e-08
3.84621e-08
2.071e-08
0
0
6.09905e-08
6.8924e-08
6.73035e-08
1.58504e-07
2.9653e-07
3.85383e-07
1.17701e-07
7.89154e-08
1.95532e-07
2.25168e-07
2.15932e-07
1.85112e-07
1.52249e-07
1.27761e-07
1.14847e-07
1.12454e-07
1.17149e-07
1.23085e-07
1.29993e-07
1.43669e-07
1.52299e-07
1.50929e-07
1.41393e-07
1.2834e-07
1.1607e-07
1.08724e-07
1.08994e-07
1.1145e-07
1.08645e-07
9.80807e-08
8.5379e-08
7.54518e-08
7.06956e-08
7.09881e-08
7.41088e-08
7.55322e-08
7.14593e-08
6.43238e-08
6.08021e-08
6.01352e-08
5.84857e-08
5.28273e-08
4.29131e-08
3.03147e-08
2.02334e-08
1.19061e-08
3.56337e-09
0
0
0
0
0
0
0
0
2.43027e-08
2.35591e-08
0
0
0
0
0
0
0
0
0
0
0
0
0
0
0
0
0
0
0
0
0
0
0
0
0
0
0
0
0
0
0
0
0
0
0
0
0
0
0
0
0
0
0
0
6.86845e-10
0
0
0
0
0
0
0
0
0
0
8.25233e-09
2.08804e-08
2.50166e-08
0
0
0
0
0
0
0
0
0
0
0
0
0
0
0
0
0
0
0
0
0
0
0
0
0
0
0
0
0
0
0
0
0
6.88295e-08