/*--------------------------------*- C++ -*----------------------------------*\
  =========                 |
  \\      /  F ield         | OpenFOAM: The Open Source CFD Toolbox
   \\    /   O peration     | Website:  https://openfoam.org
    \\  /    A nd           | Version:  7
     \\/     M anipulation  |
\*---------------------------------------------------------------------------*/
FoamFile
{
    version     2.0;
    format      ascii;
    class       volScalarField;
    location    "0.054";
    object      p;
}
// * * * * * * * * * * * * * * * * * * * * * * * * * * * * * * * * * * * * * //

dimensions      [0 2 -2 0 0 0 0];

internalField   nonuniform List<scalar> 
12225
(
105.008
104.969
104.276
103.277
102.293
101.366
100.486
99.6237
98.7659
97.9357
97.1559
96.4236
95.7189
95.0295
94.3486
93.6678
92.9512
92.1314
104.782
104.97
104.28
103.283
102.29
101.357
100.477
99.6151
98.7587
97.9308
97.1554
96.4268
95.724
95.0348
94.3547
93.6768
92.9725
92.1971
105.09
104.973
104.259
103.278
102.281
101.344
100.46
99.6011
98.7543
97.9372
97.1655
96.4352
95.7308
95.0414
94.3638
93.6893
92.9994
92.2635
105.214
105.037
104.273
103.289
102.281
101.334
100.446
99.5914
98.7533
97.9426
97.1727
96.4419
95.7384
95.0518
94.3774
93.7071
93.0285
92.3264
105.549
105.15
104.276
103.283
102.273
101.321
100.431
99.5786
98.7482
97.945
97.1793
96.4502
95.7483
95.0644
94.3934
93.7293
93.0649
92.3965
106.315
105.334
104.302
103.282
102.267
101.311
100.417
99.567
98.7437
97.9479
97.1869
96.4603
95.7608
95.0807
94.4153
93.7604
93.1127
92.4746
107.619
105.516
104.324
103.27
102.253
101.297
100.403
99.5563
98.7398
97.9511
97.1949
96.4713
95.7753
95.1006
94.4428
93.7992
93.169
92.5571
107.838
105.662
104.34
103.253
102.236
101.282
100.388
99.5425
98.7321
97.9515
97.2022
96.4842
95.7934
95.125
94.4757
93.8442
93.2317
92.6428
108.007
105.735
104.332
103.225
102.21
101.262
100.373
99.532
98.7277
97.9545
97.2117
96.4989
95.8138
95.1528
94.5135
93.8952
93.2998
92.731
108.042
105.69
104.288
103.181
102.176
101.237
100.353
99.5158
98.7185
97.9544
97.2207
96.516
95.8382
95.1852
94.5558
93.9503
93.3705
92.8199
107.195
105.527
104.214
103.121
102.13
101.205
100.332
99.5037
98.7141
97.9577
97.2309
96.5329
95.8627
95.2191
94.601
94.0087
93.4436
92.9079
106.114
105.305
104.11
103.043
102.077
101.169
100.307
99.4863
98.7051
97.9581
97.2408
96.5514
95.8895
95.2547
94.6465
94.0654
93.5122
92.9889
106.264
105.153
103.987
102.956
102.014
101.125
100.278
99.4697
98.6985
97.9601
97.2507
96.5694
95.9164
95.2909
94.6926
94.1216
93.579
93.0663
107.443
104.977
103.806
102.835
101.935
101.072
100.243
99.4479
98.6888
97.9619
97.2632
96.5919
95.9486
95.3333
94.7457
94.186
93.6551
93.1537
105.291
104.383
103.535
102.685
101.838
101.005
100.197
99.4198
98.6764
97.9633
97.2768
96.6172
95.986
95.3828
94.8067
94.2575
93.736
93.2422
102.282
103.551
103.225
102.515
101.721
100.923
100.142
99.3858
98.6605
97.964
97.2931
96.648
96.0303
95.4401
94.8762
94.3383
93.8277
93.345
104.137
103.839
103.203
102.415
101.617
100.84
100.085
99.3527
98.6477
97.9679
97.311
96.6792
96.0747
95.4967
94.9432
94.4133
93.9068
93.423
106.774
104.652
103.335
102.342
101.504
100.737
100.009
99.307
98.6289
97.974
97.3398
96.7273
96.1388
95.5743
95.0331
94.5151
94.0212
93.5511
107.638
104.266
102.877
102.005
101.287
100.61
99.9514
99.2931
98.6361
97.9926
97.3684
96.7641
96.1808
95.62
95.0816
94.5647
94.0689
93.5945
96.3929
100.102
101.276
101.377
101.044
100.525
99.9403
99.3278
98.702
98.0779
97.4658
96.87
96.2932
95.7376
95.2043
94.6934
94.2048
93.7381
95.793
99.9037
101.303
101.505
101.19
100.66
100.05
99.4083
98.7584
98.1161
97.4915
96.8883
96.307
95.7477
95.21
94.6928
94.1947
93.7152
99.7125
101.794
102.259
102.034
101.516
100.894
100.241
99.5716
98.9011
98.2452
97.6103
96.9972
96.4069
95.8412
95.3005
94.784
94.2908
93.8198
105.198
104.473
103.63
102.775
101.948
101.156
100.4
99.6685
98.9586
98.277
97.6262
97.0044
96.4099
95.8417
95.2982
94.7779
94.2787
93.7994
111.468
106.812
104.749
103.39
102.336
101.432
100.609
99.8336
99.0923
98.3875
97.7189
97.0836
96.4782
95.9021
95.3542
94.8307
94.3313
93.8548
113.25
107.982
105.451
103.813
102.598
101.599
100.711
99.8926
99.1245
98.4028
97.7265
97.084
96.4784
95.8993
95.3505
94.8254
94.3261
93.8493
111.821
108.243
105.838
104.12
102.84
101.788
100.85
99.9887
99.1965
98.4624
97.7735
97.1279
96.5161
95.9322
95.3782
94.8526
94.3503
93.8702
110.074
108.039
105.917
104.24
102.951
101.869
100.901
100.019
99.213
98.4711
97.7798
97.1308
96.5141
95.9319
95.3752
94.849
94.348
93.8697
110.809
108.366
106.067
104.373
103.073
101.956
100.958
100.058
99.2435
98.4974
97.8038
97.1517
96.533
95.9479
95.3903
94.8618
94.3594
93.88
110.324
108.183
105.984
104.409
103.116
101.986
100.978
100.07
99.2503
98.5003
97.8034
97.1483
96.5293
95.944
95.3885
94.8618
94.3609
93.883
111.273
108.2
105.993
104.456
103.153
102.009
100.991
100.078
99.2551
98.5051
97.8096
97.1553
96.5355
95.948
95.3908
94.8631
94.3627
93.8865
81.6956
81.6945
81.7151
81.744
81.7543
81.7283
81.6594
81.5475
81.3978
81.2169
81.0116
80.7895
80.5585
80.3275
80.1058
79.9026
79.7263
79.5836
79.4779
79.4088
79.3736
79.3667
79.3812
79.4075
79.4353
79.4536
79.4496
79.4158
79.3337
79.2026
79.0572
78.9087
78.7581
78.6855
78.6457
78.5185
78.442
78.3076
78.0945
77.8701
77.7527
77.7863
77.88
77.5747
76.9722
76.1617
75.229
74.233
73.2156
72.2051
71.2219
70.2807
69.3933
68.5698
67.8191
67.1493
66.5683
66.0816
65.6902
65.3921
65.1862
65.0698
65.0306
65.0568
65.1362
65.2574
65.4109
65.5886
65.7839
65.9919
66.2089
66.432
66.6595
66.89
67.123
67.3584
67.5967
67.8385
68.0844
68.3354
68.5923
68.8559
69.1263
69.4034
69.686
69.9718
70.2573
70.5374
70.8064
71.0573
71.2837
71.4791
71.6386
71.7587
71.8375
71.8742
71.8689
71.8226
71.7363
71.6111
71.4475
71.2476
71.0136
70.7482
70.4544
70.1359
69.7964
69.4396
69.069
68.6874
68.2973
67.9007
67.4991
67.0937
66.6851
66.2741
65.8609
65.446
65.0293
64.611
64.1911
63.7697
63.3466
62.9217
62.4952
62.067
61.637
61.2054
60.772
60.3369
59.8999
59.4609
59.0201
58.5772
58.1322
57.685
57.2355
56.7836
56.3292
55.8721
55.4123
54.9496
54.484
54.0154
53.5436
53.0686
52.5904
52.1087
51.6236
51.135
50.6428
50.1469
49.6473
49.1438
48.6365
48.1253
47.6102
47.091
46.5677
46.0403
45.5088
44.9732
44.4333
43.8893
43.3412
42.789
42.2327
41.6725
41.1085
40.5409
39.9697
39.3956
38.8185
38.2395
37.6587
37.0775
36.4968
35.9176
35.3462
34.7696
81.6284
81.6291
81.6499
81.6731
81.671
81.6321
81.5531
81.4352
81.2827
81.1005
80.8939
80.6691
80.434
80.1977
79.9698
79.7598
79.576
79.4253
79.3127
79.2402
79.2056
79.2029
79.2235
79.2571
79.2928
79.3205
79.3288
79.3052
79.2428
79.1303
78.9988
78.9036
78.8005
78.6905
78.6158
78.4507
78.2347
78.1841
78.2568
77.9711
77.506
77.3485
77.2656
76.9277
76.3289
75.5446
74.6484
73.6938
72.7175
71.7448
70.7939
69.8792
69.0133
68.2078
67.4739
66.8214
66.2592
65.7948
65.4331
65.1733
65.0051
64.9184
64.9041
64.951
65.0476
65.1838
65.35
65.5382
65.7422
65.957
66.179
66.4056
66.6353
66.8667
67.0996
67.3339
67.5706
67.8102
68.0537
68.3019
68.556
68.8167
69.0846
69.3596
69.6409
69.9263
70.2123
70.494
70.7653
71.0193
71.2489
71.4476
71.61
71.7325
71.8133
71.8516
71.8479
71.8033
71.719
71.5962
71.4335
71.2362
71.0043
70.7405
70.4478
70.1301
69.7912
69.4347
69.0644
68.683
68.2932
67.8968
67.4955
67.0902
66.6819
66.2711
65.8582
65.4434
65.0269
64.6088
64.189
63.7676
63.3446
62.9199
62.4935
62.0655
61.6357
61.2042
60.771
60.336
59.899
59.4602
59.0195
58.5766
58.1317
57.6846
57.2351
56.7833
56.3289
55.8718
55.412
54.9494
54.4838
54.0152
53.5434
53.0685
52.5902
52.1086
51.6235
51.1349
50.6427
50.1469
49.6472
49.1438
48.6365
48.1253
47.6101
47.0909
46.5677
46.0403
45.5088
44.9731
44.4332
43.8892
43.341
42.7888
42.2325
41.6722
41.1081
40.5403
39.969
39.3946
38.8173
38.2378
37.6566
37.0745
36.493
35.9116
35.338
34.757
81.5655
81.5712
81.5799
81.576
81.5434
81.478
81.3791
81.2474
81.0843
80.8919
80.674
80.4367
80.1879
79.9373
79.696
79.4751
79.2846
79.1326
79.024
78.9603
78.9391
78.9537
78.9932
79.0465
79.1022
79.1508
79.1879
79.2085
79.2139
79.2025
79.1749
79.128
79.0481
78.9503
78.7525
78.6882
78.5031
78.1065
77.9049
77.6759
77.2871
76.8615
76.4112
75.871
75.2267
74.4858
73.671
72.8067
71.9145
71.0141
70.1227
69.2566
68.4312
67.6615
66.961
66.3416
65.8131
65.3831
65.0557
64.8264
64.6912
64.6394
64.6605
64.7418
64.8708
65.036
65.2273
65.4366
65.6577
65.8859
66.1179
66.3514
66.5851
66.8181
67.0504
67.2826
67.5157
67.7509
67.9892
68.2318
68.48
68.735
68.9976
69.2683
69.5466
69.8307
70.1174
70.4018
70.6776
70.9376
71.174
71.3793
71.5478
71.6753
71.7601
71.8017
71.8011
71.7596
71.6789
71.56
71.4025
71.2094
70.9814
70.7208
70.4307
70.1148
69.7772
69.4218
69.0522
68.6716
68.2824
67.8868
67.4861
67.0815
66.6738
66.2636
65.8513
65.4371
65.0211
64.6035
64.1842
63.7633
63.3407
62.9164
62.4905
62.0627
61.6333
61.202
60.769
60.3342
59.8975
59.4589
59.0184
58.5758
58.131
57.684
57.2347
56.783
56.3286
55.8717
55.412
54.9494
54.4838
54.0152
53.5435
53.0685
52.5903
52.1086
51.6236
51.135
50.6427
50.1468
49.6472
49.1438
48.6365
48.1253
47.6101
47.0909
46.5676
46.0402
45.5086
44.9729
44.433
43.8889
43.3406
42.7882
42.2318
41.6713
41.107
40.5389
39.9672
39.3922
38.8143
38.2337
37.6513
37.0668
36.4828
35.8966
35.3158
34.7244
81.5185
81.5198
81.5006
81.4559
81.3842
81.2855
81.1585
81.0014
80.8127
80.5922
80.3425
80.0699
79.7844
79.4985
79.2261
78.9811
78.7759
78.6203
78.5202
78.479
78.4948
78.5563
78.6479
78.7534
78.861
78.9609
79.0456
79.1173
79.1753
79.2189
79.2639
79.2805
79.2199
79.2375
79.0816
78.7178
78.4247
78.0511
77.6107
77.141
76.6317
76.0902
75.5013
74.8643
74.178
73.4424
72.6617
71.8447
71.0035
70.152
69.3056
68.4805
67.6933
66.9606
66.2978
65.7186
65.2331
64.8465
64.5596
64.3722
64.2799
64.2733
64.3394
64.4641
64.634
64.8367
65.0615
65.2996
65.5446
65.7916
66.0371
66.2795
66.5179
66.7523
66.9831
67.2112
67.4385
67.6666
67.8969
68.1308
68.37
68.616
68.8704
69.134
69.4071
69.6887
69.9757
70.2636
70.546
70.8149
71.0614
71.2771
71.4546
71.5895
71.6799
71.7257
71.7289
71.6918
71.6163
71.5033
71.3532
71.167
70.9453
70.6899
70.4039
70.091
69.7556
69.4019
69.0338
68.6544
68.2665
67.8721
67.4726
67.0692
66.6626
66.2534
65.842
65.4286
65.0134
64.5965
64.1778
63.7575
63.3354
62.9116
62.486
62.0587
61.6296
61.1986
60.7659
60.3313
59.8949
59.4565
59.0162
58.5738
58.1292
57.6824
57.2333
56.7816
56.3274
55.8706
55.411
54.9485
54.483
54.0145
53.5428
53.0679
52.5897
52.1082
51.6231
51.1345
50.6424
50.1465
49.6469
49.1435
48.6362
48.125
47.6099
47.0907
46.5674
46.0399
45.5083
44.9726
44.4326
43.8884
43.3401
42.7876
42.2309
41.6703
41.1056
40.5372
39.9651
39.3894
38.8107
38.2289
37.645
37.0583
36.4711
35.8803
35.2915
34.6906
81.4871
81.4628
81.4001
81.3102
81.1975
81.0607
80.8945
80.694
80.4553
80.1774
79.864
79.5245
79.1731
78.8262
78.5013
78.2159
77.9858
77.8241
77.7398
77.7383
77.8168
77.9585
78.139
78.3341
78.5228
78.6927
78.8414
78.9651
79.0677
79.1563
79.2253
79.2887
79.2831
79.1578
78.948
78.5859
78.1239
77.5989
77.0237
76.4185
75.805
75.1836
74.5426
73.874
73.1746
72.4433
71.6809
70.8912
70.0821
69.2649
68.4537
67.6649
66.9156
66.2226
65.6017
65.0661
64.6246
64.2808
64.0366
63.895
63.849
63.887
63.996
64.1627
64.373
64.6139
64.8738
65.1433
65.4149
65.6835
65.9455
66.199
66.4433
66.6785
66.9059
67.1276
67.3462
67.5642
67.7835
68.0058
68.2331
68.4674
68.7108
68.9649
69.2309
69.5085
69.7954
70.0873
70.3776
70.6578
70.9176
71.1466
71.3359
71.48
71.5768
71.627
71.6335
71.6001
71.53
71.4239
71.2831
71.1064
70.8936
70.6458
70.3657
70.0572
69.7251
69.3739
69.0079
68.6304
68.2443
67.8515
67.4537
67.0518
66.6468
66.2391
65.829
65.4169
65.0028
64.5869
64.1692
63.7496
63.3282
62.905
62.48
62.0532
61.6245
61.1939
60.7616
60.3273
59.8912
59.4531
59.013
58.5709
58.1266
57.6801
57.2312
56.7798
56.3258
55.8692
55.4097
54.9474
54.482
54.0136
53.542
53.0672
52.5891
52.1075
51.6225
51.134
50.6419
50.1461
49.6465
49.1432
48.6359
48.1248
47.6096
47.0904
46.5671
46.0396
45.508
44.9722
44.4322
43.8879
43.3395
42.7868
42.23
41.6691
41.1041
40.5353
39.9626
39.3863
38.8066
38.2236
37.6379
37.049
36.4582
35.8631
35.2663
34.6576
81.4119
81.3619
81.2598
81.1349
80.9867
80.8085
80.5922
80.3306
80.0183
79.6554
79.2503
78.8191
78.3812
77.9565
77.5647
77.2255
76.9588
76.784
76.7157
76.7617
76.9175
77.1596
77.4531
77.7619
78.058
78.3196
78.5341
78.7067
78.8451
78.9509
79.0375
79.076
79.0109
78.8228
78.4956
78.0439
77.499
76.8932
76.2561
75.6049
74.9548
74.3069
73.6547
72.987
72.2957
71.5753
70.8261
70.0516
69.2596
68.4613
67.6714
66.9062
66.183
65.5187
64.9283
64.4245
64.0175
63.7143
63.5158
63.4152
63.4066
63.4831
63.6338
63.8442
64.099
64.3829
64.6826
64.9866
65.2867
65.5778
65.8571
66.1229
66.3742
66.6109
66.8347
67.0486
67.2563
67.4613
67.667
67.8757
68.0894
68.3104
68.541
68.7835
69.0397
69.3103
69.594
69.8871
70.1835
70.4743
70.7486
70.9939
71.1987
71.3556
71.4612
71.5161
71.5242
71.4922
71.4252
71.3256
71.1936
71.0275
70.8256
70.5876
70.3154
70.013
69.6854
69.3378
68.9747
68.5999
68.2162
67.8257
67.43
67.0302
66.6271
66.2212
65.8129
65.4024
64.9898
64.5752
64.1587
63.7402
63.3198
62.8973
62.473
62.0466
61.6184
61.1883
60.7563
60.3224
59.8865
59.4488
59.009
58.5672
58.1233
57.677
57.2284
56.7773
56.3235
55.8671
55.4078
54.9456
54.4804
54.0121
53.5407
53.066
52.5879
52.1065
51.6216
51.1332
50.6411
50.1454
49.6459
49.1426
48.6354
48.1243
47.6092
47.09
46.5667
46.0393
45.5076
44.9718
44.4317
43.8874
43.3388
42.786
42.229
41.6678
41.1025
40.5332
39.96
39.3829
38.8022
38.2179
37.6304
37.0392
36.445
35.8457
35.242
34.6265
81.2798
81.2131
81.0956
80.9522
80.7766
80.5594
80.291
79.9623
79.5697
79.1191
78.6287
78.1209
77.6163
77.1315
76.6823
76.2874
75.9726
75.768
75.6971
75.7702
75.983
76.3076
76.7014
77.1144
77.5013
77.8363
78.1127
78.3252
78.4754
78.5849
78.644
78.6144
78.4744
78.2016
77.8018
77.3045
76.7335
76.1159
75.4787
74.8391
74.2045
73.5705
72.929
72.2684
71.5796
70.8563
70.0986
69.3113
68.5039
67.6892
66.883
66.103
65.3678
64.696
64.1051
63.6094
63.2202
62.9455
62.7889
62.7419
62.7997
62.9498
63.1757
63.4592
63.7824
64.1282
64.4817
64.8308
65.1669
65.4849
65.7825
66.0591
66.3151
66.552
66.7717
66.9773
67.1729
67.3633
67.5531
67.7461
67.9447
68.151
68.3672
68.5957
68.8389
69.0986
69.3744
69.6637
69.9614
70.2597
70.5476
70.8116
71.0368
71.2117
71.3312
71.3954
71.4081
71.3785
71.3134
71.2172
71.0913
70.9342
70.7428
70.5151
70.2521
69.9572
69.6355
69.2927
68.9337
68.5624
68.1819
67.7944
67.4014
67.0041
66.6034
66.1996
65.7933
65.3847
64.9739
64.561
64.146
63.7288
63.3096
62.8881
62.4646
62.039
61.6113
61.1816
60.75
60.3164
59.8809
59.4435
59.0041
58.5626
58.119
57.6731
57.2248
56.774
56.3205
55.8644
55.4053
54.9434
54.4784
54.0103
53.539
53.0644
52.5865
52.1052
51.6204
51.1321
50.6402
50.1446
49.6452
49.142
48.6349
48.1238
47.6087
47.0896
46.5663
46.0389
45.5072
44.9713
44.4312
43.8868
43.3381
42.7851
42.2278
41.6664
41.1007
40.531
39.9571
39.3793
38.7976
38.212
37.6226
37.0291
36.4316
35.8284
35.2188
34.5975
81.1551
81.085
80.9719
80.8232
80.6304
80.3851
80.0768
79.6979
79.2505
78.7512
78.2243
77.6899
77.1611
76.6458
76.1549
75.7119
75.3526
75.1113
75.0171
75.0877
75.3182
75.6742
76.107
76.5613
76.9899
77.3583
77.6472
77.8539
78.0028
78.0849
78.0928
78.0072
77.8061
77.4881
77.0686
76.5663
76.004
75.4096
74.8047
74.1998
73.5935
72.976
72.3345
71.6574
70.9385
70.176
69.3731
68.5366
67.6774
66.8104
65.9537
65.1276
64.354
63.6555
63.0526
62.5622
62.1964
61.9618
61.8591
61.8924
62.0435
62.2927
62.6181
62.9974
63.4091
63.8336
64.2543
64.6588
65.0388
65.39
65.7108
66.0021
66.2657
66.5036
66.7185
66.9145
67.097
67.2718
67.4448
67.6209
67.8039
67.9958
68.1985
68.4143
68.6457
68.8945
69.1608
69.4424
69.7355
70.0345
70.3306
70.6112
70.8577
71.0523
71.187
71.2611
71.282
71.2584
71.198
71.1061
70.9851
70.8341
70.6503
70.4314
70.177
69.89
69.5752
69.2383
68.8844
68.5179
68.1416
67.7578
67.3683
66.974
66.576
66.1747
65.7707
65.3643
64.9555
64.5444
64.1311
63.7156
63.2977
62.8775
62.4551
62.0303
61.6033
61.1742
60.743
60.3097
59.8746
59.4374
58.9983
58.5572
58.1139
57.6684
57.2205
56.7701
56.317
55.8611
55.4024
54.9407
54.4759
54.008
53.5369
53.0625
52.5848
52.1036
51.619
51.1308
50.639
50.1435
49.6442
49.1411
48.6341
48.1231
47.6081
47.0891
46.5658
46.0384
45.5068
44.9708
44.4306
43.8861
43.3373
42.7841
42.2267
41.6649
41.0989
40.5286
39.9542
39.3755
38.7928
38.2058
37.6147
37.019
36.4183
35.8115
35.1969
34.5707
81.1376
81.0722
80.9672
80.8209
80.6224
80.3655
80.0386
79.638
79.1717
78.6642
78.138
77.608
77.0801
76.5549
76.0395
75.5594
75.1595
74.8864
74.7724
74.8282
75.0473
75.3914
75.8109
76.251
76.6504
76.9788
77.2311
77.4122
77.5247
77.5685
77.5391
77.4145
77.1848
76.8551
76.4362
75.9456
75.4077
74.8466
74.2764
73.6987
73.1048
72.4809
71.8141
71.096
70.3239
69.4999
68.6296
67.7222
66.7898
65.8486
64.9187
64.0239
63.1908
62.4469
61.8185
61.3272
60.9876
60.8074
60.7868
60.9127
61.1683
61.5308
61.9723
62.464
62.9785
63.493
63.9902
64.4581
64.8892
65.28
65.63
65.9409
66.2155
66.457
66.6697
66.8589
67.0308
67.1927
67.3517
67.514
67.6839
67.8646
68.0579
68.2659
68.4908
68.7334
68.9929
69.2666
69.5511
69.8424
70.1338
70.4181
70.6751
70.8855
71.0357
71.1204
71.1468
71.1274
71.0724
70.9875
70.874
70.7299
70.5523
70.3396
70.0921
69.8123
69.5047
69.1745
68.8269
68.4661
68.095
67.716
67.3305
66.9399
66.5451
66.1467
65.7453
65.3411
64.9345
64.5255
64.1142
63.7004
63.2841
62.8654
62.4442
62.0205
61.5944
61.1659
60.7353
60.3024
59.8676
59.4307
58.9919
58.5511
58.1082
57.6631
57.2155
56.7655
56.3128
55.8573
55.3989
54.9374
54.473
54.0053
53.5344
53.0602
52.5827
52.1017
51.6173
51.1293
50.6376
50.1422
49.6431
49.1401
48.6332
48.1224
47.6075
47.0885
46.5653
46.0379
45.5062
44.9703
44.4301
43.8854
43.3365
42.7832
42.2255
41.6634
41.097
40.5262
39.9511
39.3717
38.7879
38.1996
37.6067
37.0088
36.4054
35.7951
35.1764
34.546
81.2842
81.2253
81.1289
80.9894
80.7951
80.5416
80.217
79.8195
79.363
78.8764
78.3775
77.8774
77.3777
76.8757
76.3759
75.9049
75.5051
75.2243
75.0948
75.1199
75.2884
75.5654
75.9018
76.2457
76.5507
76.795
76.9772
77.1007
77.1706
77.187
77.1297
76.9804
76.7352
76.3981
75.9806
75.5022
74.9858
74.449
73.8978
73.3269
72.723
72.0717
71.3621
70.5897
69.7543
68.8585
67.9077
66.9108
65.8809
64.8361
63.7993
62.7991
61.8681
61.0422
60.3569
59.842
59.5189
59.3972
59.4689
59.7147
60.1122
60.6278
61.2228
61.8586
62.501
63.1232
63.7072
64.2428
64.7256
65.1557
65.5353
65.8673
66.1552
66.403
66.6161
66.801
66.966
67.1199
67.2707
67.4247
67.5863
67.7584
67.9432
68.1428
68.3593
68.5938
68.8444
69.1075
69.3787
69.657
69.9379
70.2163
70.4764
70.6977
70.8652
70.9697
71.0106
70.9964
70.9423
70.8605
70.7543
70.6188
70.4486
70.2414
69.9991
69.7255
69.4249
69.1021
68.7616
68.4075
68.0426
67.6691
67.2884
66.902
66.5108
66.1157
65.7171
65.3156
64.9114
64.5046
64.0953
63.6834
63.2689
62.8518
62.432
62.0096
61.5845
61.1569
60.7269
60.2946
59.8602
59.4236
58.985
58.5445
58.1019
57.6571
57.21
56.7604
56.3081
55.8529
55.3949
54.9338
54.4696
54.0022
53.5316
53.0576
52.5803
52.0996
51.6153
51.1275
50.636
50.1408
49.6418
49.139
48.6322
48.1215
47.6067
47.0878
46.5647
46.0373
45.5057
44.9697
44.4294
43.8848
43.3357
42.7822
42.2242
41.6619
41.095
40.5238
39.948
39.3678
38.7829
38.1933
37.5988
36.9988
36.3928
35.7795
35.1572
34.5232
81.6087
81.5566
81.4693
81.3406
81.1591
80.92
80.6131
80.2376
79.8102
79.3589
78.9028
78.4543
78.0148
77.5817
77.157
76.7587
76.4204
76.1756
76.0364
76.0062
76.074
76.2133
76.3883
76.5662
76.7261
76.858
76.9588
77.0304
77.0695
77.0557
76.9647
76.7846
76.5141
76.1592
75.7335
75.2569
74.7484
74.2186
73.667
73.0835
72.4529
71.7617
71.0012
70.1676
69.2596
68.2778
67.2254
66.1104
64.9468
63.7551
62.563
61.4062
60.3276
59.3754
58.5996
58.0427
57.7307
57.6738
57.8541
58.2545
58.8373
59.5534
60.3481
61.1693
61.9731
62.7283
63.4162
64.0283
64.5647
65.0309
65.4347
65.7827
66.0804
66.3325
66.5451
66.7264
66.8861
67.0363
67.185
67.3373
67.4957
67.662
67.8385
68.028
68.2338
68.4578
68.6976
68.9481
69.2031
69.46
69.72
69.9851
70.2488
70.4912
70.687
70.8163
70.8746
70.8717
70.8221
70.74
70.6342
70.503
70.3391
70.1377
69.9002
69.6318
69.3376
69.0222
68.6895
68.3428
67.9848
67.6175
67.2423
66.8605
66.4734
66.0817
65.6863
65.2877
64.8861
64.4817
64.0745
63.6647
63.2521
62.8367
62.4185
61.9975
61.5736
61.1471
60.7179
60.2863
59.8523
59.4161
58.9779
58.5376
58.0952
57.6507
57.204
56.7547
56.3028
55.8481
55.3904
54.9297
54.4658
53.9987
53.5284
53.0547
52.5776
52.0971
51.613
51.1254
50.6341
50.1391
49.6404
49.1377
48.6311
48.1205
47.6059
47.087
46.564
46.0367
45.5051
44.9692
44.4288
43.884
43.3348
42.7811
42.223
41.6603
41.0931
40.5213
39.9449
39.3638
38.778
38.1871
37.591
36.9891
36.3807
35.7646
35.1393
34.5023
82.101
82.0561
81.9781
81.8635
81.7012
81.4843
81.2043
80.8602
80.4665
80.0494
79.6292
79.2208
78.8316
78.4629
78.1158
77.7992
77.528
77.3105
77.1537
77.0594
77.0215
77.0262
77.0572
77.1012
77.15
77.1989
77.2452
77.2793
77.2777
77.2137
77.0704
76.842
76.5301
76.1432
75.6963
75.2073
74.6905
74.1506
73.5824
72.9725
72.305
71.567
70.75
69.8479
68.8552
67.7688
66.5891
65.3235
63.9876
62.6059
61.2122
59.8518
58.5818
57.4675
56.575
55.9595
55.6517
55.6602
55.9746
56.5621
57.3682
58.3248
59.3586
60.4009
61.3961
62.3073
63.1155
63.8143
64.408
64.909
65.3339
65.6949
65.9994
66.253
66.4622
66.6368
66.7867
66.9347
67.086
67.2434
67.4065
67.5752
67.7508
67.9371
68.1384
68.3569
68.5905
68.8319
69.0724
69.3074
69.5396
69.778
70.0276
70.2775
70.4996
70.664
70.7525
70.7662
70.7198
70.6334
70.5219
70.3885
70.2268
70.0299
69.7974
69.5341
69.2459
68.9375
68.6125
68.2734
67.9225
67.5617
67.1924
66.8158
66.433
66.0452
65.6531
65.2575
64.8587
64.4569
64.0521
63.6444
63.2339
62.8204
62.4038
61.9843
61.5618
61.1364
60.7082
60.2773
59.844
59.4083
58.9704
58.5304
58.0884
57.6441
57.1977
56.7488
56.2972
55.8429
55.3856
54.9252
54.4616
53.9949
53.5248
53.0514
52.5746
52.0943
51.6105
51.1231
50.6321
50.1373
49.6387
49.1363
48.6299
48.1194
47.6049
47.0862
46.5633
46.0361
45.5045
44.9686
44.4282
43.8833
43.334
42.7801
42.2217
41.6587
41.0911
40.5188
39.9418
39.36
38.7731
38.181
37.5834
36.9796
36.3691
35.7506
35.1227
34.4832
82.7266
82.6875
82.6214
82.5246
82.3873
82.2004
81.9559
81.651
81.2952
80.9111
80.5181
80.1325
79.7667
79.4263
79.1142
78.8321
78.5823
78.3689
78.1942
78.0581
77.9588
77.8926
77.854
77.8366
77.836
77.8464
77.8534
77.834
77.7639
77.626
77.412
77.1203
76.755
76.326
75.8476
75.3349
74.7971
74.2345
73.6384
72.9938
72.2844
71.4969
70.6206
69.6447
68.558
67.353
66.0281
64.5911
63.0606
61.4658
59.8482
58.265
56.7891
55.5042
54.4922
53.8192
53.5213
53.6059
54.0574
54.8328
55.8639
57.0648
58.3434
59.6141
60.8072
61.879
62.8111
63.5996
64.252
64.7858
65.2288
65.6024
65.916
66.1729
66.3778
66.5453
66.6667
66.8129
66.9683
67.1372
67.3155
67.4989
67.6869
67.8828
68.0907
68.3121
68.5449
68.7822
69.0152
69.237
69.4468
69.6519
69.866
70.0943
70.3182
70.5023
70.6171
70.6526
70.6193
70.5357
70.4193
70.2791
70.1143
69.9197
69.6924
69.4351
69.153
68.8513
68.5333
68.2013
67.8572
67.5027
67.1392
66.768
66.39
66.0062
65.6177
65.2253
64.8293
64.4302
64.028
63.6226
63.2142
62.8026
62.3879
61.9701
61.549
61.1248
60.6977
60.2677
59.8351
59.4001
58.9627
58.5231
58.0814
57.6374
57.1912
56.7426
56.2914
55.8373
55.3804
54.9203
54.4571
53.9907
53.5209
53.0478
52.5713
52.0913
51.6077
51.1206
50.6298
50.1353
49.6369
49.1347
48.6285
48.1183
47.6039
47.0854
46.5626
46.0354
45.5039
44.968
44.4276
43.8826
43.3332
42.7791
42.2205
41.6572
41.0892
40.5164
39.9388
39.3561
38.7683
38.1751
37.576
36.9706
36.3582
35.7375
35.1073
34.4656
83.434
83.4023
83.3517
83.2769
83.1698
83.0199
82.8194
82.5627
82.254
81.9103
81.5499
81.188
80.8379
80.509
80.2049
79.9276
79.6795
79.4641
79.2817
79.132
79.0135
78.9235
78.8587
78.8147
78.7822
78.7459
78.6869
78.5864
78.4297
78.208
77.9176
77.5593
77.1385
76.6649
76.1512
75.6089
75.0429
74.4505
73.8214
73.1394
72.3881
71.5527
70.6196
69.5726
68.394
67.0728
65.6059
64.0028
62.2862
60.491
58.6673
56.8839
55.2274
53.7961
52.6843
51.9628
51.6694
51.8145
52.3775
53.3112
54.537
55.9525
57.4474
58.923
60.2904
61.4985
62.531
63.3912
64.094
64.6537
65.1116
65.4976
65.8248
66.0927
66.2974
66.4447
66.5564
66.6757
66.8212
66.9977
67.1945
67.4008
67.6125
67.8314
68.0586
68.293
68.5309
68.7673
68.9974
69.2173
69.4229
69.6122
69.7915
69.9756
70.1659
70.3384
70.4617
70.5153
70.4989
70.4264
70.3145
70.1734
70.0061
69.8112
69.5876
69.3362
69.0606
68.7653
68.4537
68.1282
67.7902
67.4415
67.0835
66.7175
66.3444
65.965
65.5802
65.1911
64.7982
64.4019
64.0023
63.5993
63.1931
62.7837
62.3709
61.9548
61.5353
61.1125
60.6865
60.2575
59.8257
59.3914
58.9547
58.5156
58.0743
57.6307
57.1847
56.7364
56.2854
55.8316
55.3749
54.9152
54.4523
53.9861
53.5167
53.0439
52.5677
52.088
51.6047
51.1179
50.6273
50.133
49.635
49.133
48.627
48.117
47.6028
47.0845
46.5618
46.0348
45.5033
44.9674
44.427
43.882
43.3324
42.7782
42.2193
41.6557
41.0873
40.5141
39.9358
39.3524
38.7637
38.1694
37.569
36.9621
36.3479
35.7253
35.0931
34.4496
84.1712
84.1503
84.1206
84.0717
83.9975
83.8879
83.7362
83.5354
83.2857
82.9974
82.6869
82.3677
82.0519
81.7496
81.4668
81.2073
80.9748
80.769
80.589
80.4335
80.3002
80.1851
80.0825
79.9843
79.8807
79.7597
79.6084
79.415
79.1704
78.8691
78.5092
78.0921
77.623
77.1106
76.5646
75.9928
75.3972
74.7737
74.1114
73.3944
72.6061
71.7301
70.7496
69.6446
68.3919
66.9773
65.3968
63.6623
61.801
59.8536
57.8774
55.9502
54.1694
52.6408
51.4605
50.7023
50.407
50.587
51.2251
52.2647
53.6203
55.1805
56.8184
58.4398
59.9227
61.2205
62.3134
63.2109
63.9368
64.5149
64.9802
65.373
65.7157
66.0069
66.2286
66.3719
66.46
66.5427
66.6588
66.8231
67.0218
67.2402
67.4742
67.7245
67.9871
68.2522
68.5093
68.7524
68.9834
69.2065
69.4177
69.6057
69.7689
69.9214
70.0717
70.2081
70.3114
70.3656
70.3625
70.3044
70.2022
70.0658
69.8998
69.7059
69.4849
69.2384
68.9688
68.6796
68.3741
68.0545
67.7222
67.3788
67.0259
66.6648
66.2965
65.9216
65.5409
65.1553
64.7655
64.3721
63.9752
63.5747
63.1708
62.7635
62.3527
61.9384
61.5206
61.0993
60.6746
60.2467
59.8158
59.3823
58.9462
58.5078
58.067
57.6239
57.1783
56.7302
56.2794
55.8259
55.3694
54.9099
54.4472
53.9813
53.5122
53.0397
52.5638
52.0844
51.6014
51.1149
50.6246
50.1306
49.6328
49.1311
48.6254
48.1156
47.6017
47.0835
46.561
46.0341
45.5027
44.9668
44.4264
43.8813
43.3316
42.7773
42.2182
41.6543
41.0855
40.5118
39.933
39.3489
38.7593
38.164
37.5624
36.9541
36.3382
35.714
35.08
34.435
84.924
84.9181
84.9142
84.8915
84.847
84.773
84.6658
84.5208
84.3359
84.1159
83.8735
83.6217
83.3703
83.1273
82.8987
82.687
82.4889
82.302
82.1232
81.9483
81.7729
81.5933
81.4071
81.2123
81.0056
80.7815
80.5321
80.2489
79.9249
79.5553
79.1385
78.6754
78.17
77.6281
77.0565
76.4596
75.8378
75.186
74.493
73.7465
72.9292
72.0234
71.0102
69.8675
68.5699
67.1007
65.4547
63.6451
61.7037
59.677
57.628
55.6394
53.8115
52.2508
51.0504
50.2796
49.9764
50.1758
50.8391
51.9096
53.2998
54.9006
56.5876
58.2378
59.7541
61.0813
62.1882
63.081
63.7969
64.3704
64.833
65.2242
65.5764
65.8965
66.1584
66.3297
66.4136
66.4635
66.5401
66.6738
66.8507
67.0523
67.2808
67.5469
67.8472
68.1591
68.4547
68.7167
68.9479
69.1674
69.3845
69.5792
69.7312
69.8583
69.9849
70.099
70.1796
70.2214
70.2217
70.1755
70.0843
69.955
69.7927
69.601
69.3823
69.1393
68.8747
68.5913
68.2917
67.978
67.6515
67.3136
66.9658
66.6097
66.2461
65.8757
65.4992
65.1173
64.7309
64.3405
63.9464
63.5486
63.1471
62.742
62.3332
61.9209
61.5049
61.0852
60.6619
60.2352
59.8054
59.3727
58.9374
58.4996
58.0595
57.6169
57.1718
56.724
56.2735
55.8201
55.3638
54.9044
54.4419
53.9763
53.5074
53.0352
52.5596
52.0805
51.5979
51.1116
50.6217
50.128
49.6305
49.1291
48.6237
48.1142
47.6005
47.0825
46.5602
46.0334
45.5021
44.9663
44.4258
43.8808
43.331
42.7764
42.2171
41.6529
41.0838
40.5097
39.9303
39.3455
38.7552
38.1589
37.5562
36.9466
36.3293
35.7035
35.0681
34.4217
85.6428
85.6432
85.652
85.6439
85.6167
85.5633
85.4845
85.3805
85.2498
85.0937
84.9198
84.7388
84.5602
84.3898
84.228
84.0717
83.9139
83.7475
83.5649
83.3592
83.1262
82.8668
82.5861
82.2905
81.9845
81.6678
81.3356
80.981
80.5974
80.18
79.7261
79.2353
78.7092
78.151
77.5641
76.951
76.311
75.6388
74.9247
74.1575
73.3224
72.4023
71.3781
70.2277
68.9272
67.4581
65.8138
64.0072
62.0719
60.0583
58.0321
56.0753
54.2832
52.7549
51.5781
50.8184
50.515
50.6843
51.3133
52.3372
53.6667
55.1958
56.8081
58.3866
59.8395
61.1145
62.1806
63.03
63.6983
64.235
64.6792
65.0656
65.4246
65.7687
66.0743
66.3001
66.4283
66.4943
66.5577
66.658
66.7866
66.9283
67.1002
67.3377
67.6513
68.0086
68.3576
68.6587
68.9056
69.121
69.3294
69.5231
69.6742
69.7867
69.8906
69.9861
70.0524
70.0849
70.0855
70.0479
69.9674
69.8464
69.6894
69.5009
69.2846
69.0438
68.7821
68.5028
68.2083
67.9003
67.5796
67.2474
66.9051
66.554
66.1952
65.8293
65.457
65.0788
64.6957
64.3083
63.9169
63.5217
63.1226
62.7198
62.3131
61.9027
61.4885
61.0706
60.6488
60.2234
59.7946
59.3628
58.9283
58.4913
58.0518
57.6099
57.1653
56.7179
56.2677
55.8145
55.3582
54.8989
54.4366
53.9711
53.5024
53.0304
52.5551
52.0763
51.594
51.1081
50.6185
50.1252
49.628
49.1269
48.6218
48.1126
47.5992
47.0814
46.5593
46.0327
45.5015
44.9657
44.4253
43.8802
43.3303
42.7756
42.2161
41.6516
41.0822
40.5076
39.9277
39.3423
38.7512
38.154
37.5503
36.9395
36.321
35.6939
35.0572
34.4096
86.2775
86.2669
86.2588
86.25
86.2294
86.1858
86.12
86.0387
85.9435
85.8349
85.7163
85.595
85.4782
85.3681
85.2622
85.1525
85.0298
84.8818
84.6967
84.4654
84.1846
83.8596
83.5014
83.124
82.7381
82.3485
81.9531
81.5469
81.1237
80.6781
80.2057
79.7037
79.1713
78.6089
78.0174
77.3972
76.7473
76.0632
75.3372
74.5594
73.7171
72.7957
71.7783
70.6458
69.3776
67.9557
66.3721
64.637
62.7818
60.8561
58.9244
57.0637
55.3609
53.9048
52.776
52.036
51.7208
51.8435
52.3934
53.3105
54.5091
55.89
57.3484
58.7841
60.1127
61.2804
62.2599
63.0403
63.6435
64.1223
64.5303
64.907
65.2773
65.6459
65.9881
66.265
66.4532
66.5714
66.6638
66.7601
66.8485
66.9152
66.997
67.1621
67.4492
67.8303
68.2331
68.589
68.8697
69.0933
69.2938
69.4812
69.6333
69.7405
69.8243
69.8958
69.9436
69.9651
69.9633
69.9303
69.857
69.7425
69.5911
69.4072
69.1945
68.9568
68.698
68.4216
68.1305
67.8266
67.5109
67.1841
66.8471
66.501
66.1468
65.7852
65.4168
65.0422
64.6621
64.2774
63.8885
63.4957