/*--------------------------------*- C++ -*----------------------------------*\
  =========                 |
  \\      /  F ield         | OpenFOAM: The Open Source CFD Toolbox
   \\    /   O peration     | Website:  https://openfoam.org
    \\  /    A nd           | Version:  7
     \\/     M anipulation  |
\*---------------------------------------------------------------------------*/
FoamFile
{
    version     2.0;
    format      ascii;
    class       surfaceScalarField;
    location    "0.054";
    object      phi_0;
}
// * * * * * * * * * * * * * * * * * * * * * * * * * * * * * * * * * * * * * //

dimensions      [0 3 -1 0 0 0 0];

internalField   nonuniform List<scalar> 
24170
(
1.37598e-06
2.01356e-07
1.22283e-06
1.53156e-07
1.09009e-06
1.32732e-07
9.79259e-07
1.10835e-07
8.76591e-07
1.02668e-07
7.77666e-07
9.89252e-08
6.7816e-07
9.95055e-08
5.78482e-07
9.96785e-08
4.86023e-07
9.24585e-08
4.07109e-07
7.89144e-08
3.42438e-07
6.46709e-08
2.88983e-07
5.34552e-08
2.43277e-07
4.57063e-08
2.03497e-07
3.97794e-08
1.68622e-07
3.48755e-08
1.37633e-07
3.09886e-08
1.07573e-07
3.00596e-08
2.5347e-08
8.22264e-08
1.68109e-06
2.11314e-07
1.649e-06
1.85247e-07
1.59632e-06
1.85413e-07
1.55035e-06
1.56801e-07
1.51026e-06
1.42767e-07
1.46783e-06
1.41348e-07
1.42113e-06
1.46209e-07
1.37201e-06
1.48793e-07
1.3224e-06
1.4207e-07
1.27163e-06
1.29686e-07
1.2186e-06
1.17698e-07
1.1632e-06
1.08861e-07
1.10787e-06
1.01035e-07
1.0549e-06
9.27487e-08
1.00408e-06
8.56924e-08
9.53532e-07
8.15409e-08
9.00722e-07
8.28689e-08
8.52078e-08
8.40861e-07
1.80803e-06
2.72714e-07
1.78397e-06
2.09306e-07
1.76185e-06
2.07526e-07
1.74078e-06
1.77881e-07
1.72354e-06
1.59997e-07
1.70643e-06
1.58465e-07
1.689e-06
1.63637e-07
1.67302e-06
1.64776e-07
1.65908e-06
1.56004e-07
1.64613e-06
1.42643e-07
1.63192e-06
1.31906e-07
1.61492e-06
1.25855e-07
1.59426e-06
1.21698e-07
1.57063e-06
1.16377e-07
1.54439e-06
1.11937e-07
1.5156e-06
1.10332e-07
1.48373e-06
1.14739e-07
1.21817e-07
1.44712e-06
1.93587e-06
2.9985e-07
1.91603e-06
2.29152e-07
1.89624e-06
2.27311e-07
1.87097e-06
2.03151e-07
1.85028e-06
1.80689e-07
1.83756e-06
1.71183e-07
1.83149e-06
1.6971e-07
1.82923e-06
1.67033e-07
1.82777e-06
1.57465e-07
1.82558e-06
1.44835e-07
1.82203e-06
1.35458e-07
1.81706e-06
1.30825e-07
1.81014e-06
1.28617e-07
1.80115e-06
1.25367e-07
1.7907e-06
1.22386e-07
1.77951e-06
1.21515e-07
1.76891e-06
1.25347e-07
1.33026e-07
1.7577e-06
2.08253e-06
3.33442e-07
2.06664e-06
2.45045e-07
2.05486e-06
2.39093e-07
2.02588e-06
2.32127e-07
1.9951e-06
2.11466e-07
1.97805e-06
1.88234e-07
1.97504e-06
1.72727e-07
1.9775e-06
1.64568e-07
1.97768e-06
1.57282e-07
1.9734e-06
1.49123e-07
1.96647e-06
1.42387e-07
1.9595e-06
1.37789e-07
1.95375e-06
1.34373e-07
1.94882e-06
1.30292e-07
1.94464e-06
1.26562e-07
1.94102e-06
1.25137e-07
1.93896e-06
1.27413e-07
1.33583e-07
1.9384e-06
2.25441e-06
3.64585e-07
2.24106e-06
2.584e-07
2.21661e-06
2.63538e-07
2.18293e-06
2.65811e-07
2.15416e-06
2.40236e-07
2.13751e-06
2.04884e-07
2.13082e-06
1.79417e-07
2.12838e-06
1.67006e-07
2.12597e-06
1.5969e-07
2.12294e-06
1.52159e-07
2.12067e-06
1.44652e-07
2.12018e-06
1.3828e-07
2.12111e-06
1.3344e-07
2.12177e-06
1.29631e-07
2.12117e-06
1.2717e-07
2.119e-06
1.273e-07
2.11639e-06
1.30025e-07
1.35356e-07
2.11462e-06
2.36523e-06
3.24611e-07
2.37595e-06
2.47684e-07
2.36637e-06
2.73118e-07
2.35271e-06
2.79467e-07
2.3416e-06
2.51351e-07
2.33194e-06
2.14545e-07
2.32084e-06
1.90513e-07
2.30762e-06
1.80225e-07
2.29413e-06
1.73186e-07
2.28342e-06
1.62865e-07
2.27745e-06
1.50623e-07
2.27576e-06
1.39968e-07
2.2763e-06
1.32899e-07
2.27663e-06
1.29302e-07
2.27567e-06
1.28137e-07
2.27361e-06
1.29359e-07
2.27176e-06
1.31875e-07
1.3567e-07
2.27144e-06
2.57536e-06
3.74412e-07
2.5472e-06
2.75845e-07
2.53936e-06
2.80954e-07
2.53897e-06
2.79856e-07
2.53742e-06
2.52907e-07
2.53017e-06
2.21791e-07
2.51727e-06
2.0341e-07
2.50213e-06
1.95363e-07
2.4882e-06
1.87122e-07
2.47738e-06
1.73686e-07
2.46991e-06
1.58089e-07
2.465e-06
1.44882e-07
2.4616e-06
1.36298e-07
2.45904e-06
1.31859e-07
2.45714e-06
1.30036e-07
2.45635e-06
1.30155e-07
2.45706e-06
1.31166e-07
1.3316e-07
2.45956e-06
2.72955e-06
4.64003e-07
2.69443e-06
3.10965e-07
2.69325e-06
2.82132e-07
2.69891e-06
2.74199e-07
2.69816e-06
2.53662e-07
2.69153e-06
2.28416e-07
2.68592e-06
2.0902e-07
2.68515e-06
1.96133e-07
2.68741e-06
1.84865e-07
2.68886e-06
1.72237e-07
2.68726e-06
1.59693e-07
2.68284e-06
1.49294e-07
2.67736e-06
1.41785e-07
2.67282e-06
1.3639e-07
2.67051e-06
1.32356e-07
2.67098e-06
1.29685e-07
2.67398e-06
1.28163e-07
1.28308e-07
2.67883e-06
2.92188e-06
5.18085e-07
2.92364e-06
3.09208e-07
2.92965e-06
2.76113e-07
2.92244e-06
2.81416e-07
2.91076e-06
2.65334e-07
2.90658e-06
2.32599e-07
2.91339e-06
2.02211e-07
2.9252e-06
1.84326e-07
2.93262e-06
1.77441e-07
2.92952e-06
1.75341e-07
2.91585e-06
1.73363e-07
2.89619e-06
1.68947e-07
2.87655e-06
1.61428e-07
2.86174e-06
1.51207e-07
2.85409e-06
1.40003e-07
2.85376e-06
1.30011e-07
2.8595e-06
1.22425e-07
1.19201e-07
2.86861e-06
3.19501e-06
5.49997e-07
3.15689e-06
3.47335e-07
3.13274e-06
3.00263e-07
3.12697e-06
2.87182e-07
3.12962e-06
2.62684e-07
3.1304e-06
2.31823e-07
3.12588e-06
2.06725e-07
3.11888e-06
1.91325e-07
3.11319e-06
1.83131e-07
3.10987e-06
1.7866e-07
3.10795e-06
1.7529e-07
3.1062e-06
1.7069e-07
3.10426e-06
1.63367e-07
3.10251e-06
1.52963e-07
3.10173e-06
1.40784e-07
3.10258e-06
1.29157e-07
3.10531e-06
1.19694e-07
1.14461e-07
3.11005e-06
2.88183e-06
5.23317e-07
2.83788e-06
3.91293e-07
2.79238e-06
3.45763e-07
2.77141e-06
3.08152e-07
2.77001e-06
2.64085e-07
2.7753e-06
2.26526e-07
2.78113e-06
2.00899e-07
2.78739e-06
1.85067e-07
2.79484e-06
1.75673e-07
2.80286e-06
1.70647e-07
2.80986e-06
1.68286e-07
2.8143e-06
1.66248e-07
2.81545e-06
1.62219e-07
2.81331e-06
1.55104e-07
2.80886e-06
1.45237e-07
2.8033e-06
1.34714e-07
2.79794e-06
1.25051e-07
1.18688e-07
2.79372e-06
3.52292e-06
4.72135e-07
3.5205e-06
3.93708e-07
3.46992e-06
3.96344e-07
3.43423e-06
3.43839e-07
3.42105e-06
2.77265e-07
3.41708e-06
2.305e-07
3.41399e-06
2.03988e-07
3.41153e-06
1.87529e-07
3.41135e-06
1.75848e-07
3.41329e-06
1.68713e-07
3.41573e-06
1.65841e-07
3.4172e-06
1.64783e-07
3.41723e-06
1.62191e-07
3.41615e-06
1.56177e-07
3.41455e-06
1.46839e-07
3.41282e-06
1.36447e-07
3.41082e-06
1.27045e-07
1.2095e-07
3.40856e-06
4.23661e-06
3.7873e-07
4.24656e-06
3.83757e-07
4.24451e-06
3.98391e-07
4.25213e-06
3.36223e-07
4.25788e-06
2.7151e-07
4.25448e-06
2.33907e-07
4.24367e-06
2.14797e-07
4.22993e-06
2.01263e-07
4.21673e-06
1.89052e-07
4.206e-06
1.79444e-07
4.19858e-06
1.73258e-07
4.19452e-06
1.68845e-07
4.19324e-06
1.63475e-07
4.19378e-06
1.55631e-07
4.19497e-06
1.45648e-07
4.19577e-06
1.35653e-07
4.19535e-06
1.27462e-07
1.23281e-07
4.19302e-06
5.21889e-06
4.85254e-07
5.15746e-06
4.45181e-07
5.15742e-06
3.9843e-07
5.14827e-06
3.4538e-07
5.12242e-06
2.97358e-07
5.1e-06
2.56327e-07
5.0958e-06
2.18997e-07
5.11097e-06
1.86089e-07
5.13763e-06
1.62398e-07
5.16548e-06
1.51588e-07
5.18638e-06
1.52358e-07
5.19623e-06
1.58995e-07
5.19508e-06
1.64632e-07
5.18579e-06
1.64915e-07
5.17256e-06
1.58882e-07
5.15918e-06
1.49032e-07
5.14853e-06
1.38115e-07
1.29328e-07
5.14248e-06
6.39211e-06
5.50425e-07
6.38456e-06
4.52733e-07
6.37983e-06
4.03166e-07
6.3661e-06
3.59104e-07
6.34844e-06
3.1502e-07
6.33089e-06
2.73872e-07
6.31537e-06
2.34522e-07
6.30442e-06
1.97036e-07
6.30144e-06
1.65378e-07
6.30816e-06
1.44868e-07
6.32284e-06
1.37679e-07
6.34085e-06
1.40987e-07
6.35683e-06
1.48648e-07
6.36676e-06
1.54993e-07
6.3688e-06
1.56837e-07
6.36362e-06
1.54214e-07
6.35296e-06
1.48776e-07
1.42934e-07
6.33935e-06
7.69644e-06
4.90017e-07
7.7011e-06
4.48075e-07
7.69191e-06
4.1235e-07
7.68503e-06
3.65991e-07
7.68618e-06
3.13871e-07
7.68918e-06
2.70866e-07
7.68546e-06
2.38245e-07
7.6717e-06
2.10791e-07
7.65299e-06
1.84088e-07
7.63964e-06
1.58217e-07
7.6407e-06
1.36626e-07
7.65887e-06
1.22812e-07
7.69016e-06
1.17357e-07
7.72696e-06
1.18197e-07
7.76173e-06
1.22064e-07
7.78975e-06
1.26199e-07
7.80942e-06
1.29106e-07
1.29938e-07
7.82241e-06
9.37363e-06
4.88123e-07
9.3649e-06
4.56803e-07
9.37727e-06
3.99984e-07
9.38772e-06
3.55539e-07
9.39266e-06
3.0893e-07
9.40434e-06
2.59184e-07
9.43069e-06
2.11898e-07
9.46902e-06
1.72466e-07
9.51153e-06
1.41573e-07
9.55164e-06
1.18104e-07
9.58557e-06
1.02697e-07
9.61236e-06
9.60279e-08
9.63232e-06
9.73898e-08
9.646e-06
1.0452e-07
9.65382e-06
1.1424e-07
9.65631e-06
1.23712e-07
9.6542e-06
1.31216e-07
1.35878e-07
9.64826e-06
1.11953e-05
4.44453e-07
1.12524e-05
3.99775e-07
1.13058e-05
3.46584e-07
1.13655e-05
2.95752e-07
1.14195e-05
2.5499e-07
1.14635e-05
2.15197e-07
1.15012e-05
1.74153e-07
1.15371e-05
1.36593e-07
1.15713e-05
1.07368e-07
1.16009e-05
8.84657e-08
1.16242e-05
7.94333e-08
1.16423e-05
7.79444e-08
1.16584e-05
8.12313e-08
1.16762e-05
8.67395e-08
1.1698e-05
9.24729e-08
1.17242e-05
9.75005e-08
1.17542e-05
1.01166e-07
1.03918e-07
1.17862e-05
8.23444e-06
4.00051e-07
8.24604e-06
3.8818e-07
8.27336e-06
3.19266e-07
8.31532e-06
2.53786e-07
8.37289e-06
1.97424e-07
8.43413e-06
1.53956e-07
8.48409e-06
1.24191e-07
8.51648e-06
1.04204e-07
8.53442e-06
8.94317e-08
8.5455e-06
7.73845e-08
8.55667e-06
6.82674e-08
8.57167e-06
6.29424e-08
8.59129e-06
6.16156e-08
8.61447e-06
6.35527e-08
8.63952e-06
6.74205e-08
8.66472e-06
7.23017e-08
8.68873e-06
7.71582e-08
8.22773e-08
8.71037e-06
7.30677e-06
4.3229e-07
7.29815e-06
3.96799e-07
7.31111e-06
3.06309e-07
7.32382e-06
2.41077e-07
7.33935e-06
1.81891e-07
7.35924e-06
1.34065e-07
7.37791e-06
1.05521e-07
7.39172e-06
9.0395e-08
7.40229e-06
7.8859e-08
7.41438e-06
6.53002e-08
7.43216e-06
5.04819e-08
7.45702e-06
3.80817e-08
7.4877e-06
3.09438e-08
7.52133e-06
2.99238e-08
7.55465e-06
3.40961e-08
7.5854e-06
4.15553e-08
7.61232e-06
5.0233e-08
5.84461e-08
7.63615e-06
6.24815e-06
4.84529e-07
6.31666e-06
3.28291e-07
6.3628e-06
2.60169e-07
6.38601e-06
2.17866e-07
6.40834e-06
1.59555e-07
6.44601e-06
9.64044e-08
6.49465e-06
5.68722e-08
6.53837e-06
4.66827e-08
6.56588e-06
5.13482e-08
6.57617e-06
5.50037e-08
6.5755e-06
5.11572e-08
6.57176e-06
4.18163e-08
6.57059e-06
3.21157e-08
6.57413e-06
2.63893e-08
6.58172e-06
2.65011e-08
6.59162e-06
3.16555e-08
6.60194e-06
3.99103e-08
4.90933e-08
6.6113e-06
5.48137e-06
4.6795e-07
5.48059e-06
3.29075e-07
5.50669e-06
2.34067e-07
5.55939e-06
1.6517e-07
5.61167e-06
1.07272e-07
5.64229e-06
6.57859e-08
5.65416e-06
4.50026e-08
5.66373e-06
3.71077e-08
5.68256e-06
3.25245e-08
5.71072e-06
2.68418e-08
5.74186e-06
2.00123e-08
5.76981e-06
1.38744e-08
5.79142e-06
1.05065e-08
5.80708e-06
1.07236e-08
5.81959e-06
1.39901e-08
5.8321e-06
1.91457e-08
5.84708e-06
2.49311e-08
3.01896e-08
5.86599e-06
4.7696e-06
3.5942e-07
4.83282e-06
2.65854e-07
4.90109e-06
1.65802e-07
4.97141e-06
9.48428e-08
5.01591e-06
6.27746e-08
5.03277e-06
4.89232e-08
5.03833e-06
3.94469e-08
5.04657e-06
2.88636e-08
5.0617e-06
1.73934e-08
5.08014e-06
8.40622e-09
5.09684e-06
3.31153e-09
5.1089e-06
1.81141e-09
5.11673e-06
2.68223e-09
5.12272e-06
4.73641e-09
5.12947e-06
7.23862e-09
5.13899e-06
9.62487e-09
5.15238e-06
1.15378e-08
1.3065e-08
5.16951e-06
4.18284e-06
3.3762e-07
4.26881e-06
1.79888e-07
4.32106e-06
1.13552e-07
4.33395e-06
8.1955e-08
4.33201e-06
6.47064e-08
4.33768e-06
4.32571e-08
4.36182e-06
1.53035e-08
4.39898e-06
-8.29444e-09
4.43504e-06
-1.86624e-08
4.45842e-06
-1.49741e-08
4.46605e-06
-4.3252e-09
4.46354e-06
4.32956e-09
4.45849e-06
7.72489e-09
4.45753e-06
5.69894e-09
4.4638e-06
9.68088e-10
4.47841e-06
-4.98522e-09
4.4993e-06
-9.35203e-09
-1.12363e-08
4.5236e-06
3.68008e-06
2.7876e-07
3.76031e-06
9.96497e-08
3.81696e-06
5.69073e-08
3.8478e-06
5.11121e-08
3.86456e-06
4.79492e-08
3.8816e-06
2.6215e-08
3.90351e-06
-6.60854e-09
3.92569e-06
-3.04676e-08
3.94412e-06
-3.70926e-08
3.95757e-06
-2.84283e-08
3.96737e-06
-1.41257e-08
3.97446e-06
-2.76125e-09
3.98004e-06
2.14271e-09
3.986e-06
-2.54301e-10
3.99254e-06
-5.57979e-09
3.99947e-06
-1.1909e-08
4.00708e-06
-1.69671e-08
-1.96856e-08
4.01553e-06
3.25527e-06
1.47173e-07
3.32542e-06
2.94991e-08
3.35205e-06
3.02828e-08
3.35948e-06
4.36845e-08
3.37092e-06
3.65088e-08
3.39126e-06
5.86853e-09
3.41419e-06
-2.95399e-08
3.43169e-06
-4.79595e-08
3.44215e-06
-4.75613e-08
3.44931e-06
-3.5585e-08
3.45753e-06
-2.23475e-08
3.46928e-06
-1.45118e-08
3.48485e-06
-1.34255e-08
3.50178e-06
-1.71857e-08
3.51848e-06
-2.22792e-08
3.53319e-06
-2.66153e-08
3.54519e-06
-2.89637e-08
-2.94014e-08
3.5549e-06
2.81192e-06
1.53647e-07
2.86324e-06
-2.1824e-08
2.89121e-06
2.31721e-09
2.92839e-06
6.50379e-09
2.9753e-06
-1.04053e-08
3.01636e-06
-3.51865e-08
3.03919e-06
-5.23712e-08
3.04554e-06
-5.43095e-08
3.04491e-06
-4.69384e-08
3.04733e-06
-3.80013e-08
3.05731e-06
-3.23244e-08
3.07374e-06
-3.09451e-08
3.09268e-06
-3.236e-08
3.10998e-06
-3.44893e-08
3.1233e-06
-3.55975e-08
3.132e-06
-3.53181e-08
3.13686e-06
-3.38263e-08
-3.21634e-08
3.13962e-06
2.50732e-06
5.09036e-08
2.5346e-06
-4.9099e-08
2.54857e-06
-1.16532e-08
2.57548e-06
-2.04123e-08
2.60405e-06
-3.8976e-08
2.62277e-06
-5.39073e-08
2.62964e-06
-5.92381e-08
2.63097e-06
-5.56418e-08
2.6334e-06
-4.93656e-08
2.63973e-06
-4.43308e-08
2.64843e-06
-4.10238e-08
2.65602e-06
-3.85326e-08
2.65967e-06
-3.60176e-08
2.65849e-06
-3.33033e-08
2.65357e-06
-3.06808e-08
2.64682e-06
-2.85647e-08
2.64018e-06
-2.71906e-08
-2.68208e-08
2.63484e-06
2.13173e-06
2.08263e-06
2.07098e-06
2.05057e-06
2.01159e-06
1.95768e-06
1.89845e-06
1.8428e-06
1.79344e-06
1.74911e-06
1.70808e-06
1.66955e-06
1.63353e-06
1.60023e-06
1.56955e-06
1.54098e-06
1.51379e-06
1.48697e-06
-8.73936e-08
8.73936e-08
-1.01796e-07
1.44024e-08
-1.37578e-08
-8.80381e-08
1.40323e-07
-1.54081e-07
3.29207e-07
-1.88884e-07
5.31221e-07
-2.02014e-07
7.33542e-07
-2.02321e-07
9.29537e-07
-1.95994e-07
1.11591e-06
-1.86372e-07
1.29079e-06
-1.74881e-07
1.45266e-06
-1.61868e-07
1.59976e-06
-1.47099e-07
1.73003e-06
-1.30277e-07
1.84112e-06
-1.11091e-07
1.93041e-06
-8.92859e-08
1.99531e-06
-6.48955e-08
2.03369e-06
-3.83801e-08
2.04434e-06
-1.06587e-08
2.0257e-06
1.86453e-08
1.97719e-06
4.85069e-08
1.89948e-06
7.7715e-08
1.79381e-06
1.05664e-07
1.66277e-06
1.31046e-07
1.50713e-06
1.55636e-07
1.33101e-06
1.76119e-07
1.13378e-06
1.97237e-07
9.20171e-07
2.13604e-07
6.94166e-07
2.26005e-07
4.52492e-07
2.41674e-07
2.46161e-07
2.06331e-07
1.09572e-07
1.36589e-07
3.03515e-08
7.92205e-08
2.88547e-08
1.49679e-09
1.16352e-07
-8.74971e-08
2.41567e-07
-1.25215e-07
3.59754e-07
-1.18187e-07
5.68665e-07
-2.08911e-07
7.3651e-07
-1.67845e-07
7.98446e-07
-6.19361e-08
7.67585e-07
3.08609e-08
5.21519e-07
2.46066e-07
6.55643e-10
5.20863e-07
-6.35683e-07
6.36339e-07
-1.23209e-06
5.96407e-07
-1.76221e-06
5.30121e-07
-2.23238e-06
4.7017e-07
-2.64994e-06
4.17562e-07
-3.02347e-06
3.73529e-07
-3.36059e-06
3.37122e-07
-3.66757e-06
3.06972e-07
-3.94896e-06
2.81391e-07
-4.20736e-06
2.58405e-07
-4.44349e-06
2.36124e-07
-4.65621e-06
2.12722e-07
-4.84303e-06
1.86818e-07
-5.00062e-06
1.57599e-07
-5.12567e-06
1.25049e-07
-5.21555e-06
8.98731e-08
-5.26909e-06
5.3542e-08
-5.28734e-06
1.82472e-08
-5.27456e-06
-1.27735e-08
-5.23625e-06
-3.83095e-08
-5.17674e-06
-5.9514e-08
-5.10086e-06
-7.5883e-08
-5.0135e-06
-8.73548e-08
-4.91866e-06
-9.48454e-08
-4.81965e-06
-9.90018e-08
-4.71884e-06
-1.00813e-07
-4.61772e-06
-1.01123e-07
-4.51714e-06
-1.00582e-07
-4.41739e-06
-9.97443e-08
-4.3184e-06
-9.89937e-08
-4.21976e-06
-9.86365e-08
-4.12089e-06
-9.8872e-08
-4.02105e-06
-9.98377e-08
-3.91945e-06
-1.01605e-07
-3.81528e-06
-1.04165e-07
-3.70784e-06
-1.07437e-07
-3.59651e-06
-1.11334e-07
-3.48067e-06
-1.15842e-07
-3.35966e-06
-1.21006e-07
-3.23278e-06
-1.26879e-07
-3.09927e-06
-1.3351e-07
-2.95837e-06
-1.409e-07
-2.80945e-06
-1.48925e-07
-2.65209e-06
-1.5736e-07
-2.48618e-06
-1.65909e-07
-2.31203e-06
-1.74153e-07
-2.13043e-06
-1.81595e-07
-1.94264e-06
-1.87792e-07
-1.75024e-06
-1.92401e-07
-1.55502e-06
-1.95215e-07
-1.35881e-06
-1.96216e-07
-1.16327e-06
-1.95536e-07
-9.69824e-07
-1.93448e-07
-7.79569e-07
-1.90255e-07
-5.93377e-07
-1.86192e-07
-4.11984e-07
-1.81394e-07
-2.36239e-07
-1.75745e-07
-6.70214e-08
-1.69218e-07
9.4965e-08
-1.61986e-07
2.48222e-07
-1.53257e-07
3.91616e-07
-1.43394e-07
5.2413e-07
-1.32514e-07
6.45051e-07
-1.20921e-07
7.54038e-07
-1.08987e-07
8.51133e-07
-9.70951e-08
9.36715e-07
-8.5582e-08
1.01142e-06
-7.47023e-08
1.07603e-06
-6.46169e-08
1.13143e-06
-5.54002e-08
1.17849e-06
-4.70559e-08
1.21803e-06
-3.95406e-08
1.25081e-06
-3.27826e-08
1.27752e-06
-2.6703e-08
1.29874e-06
-2.12232e-08
1.31502e-06
-1.62784e-08
1.32684e-06
-1.18253e-08
1.33465e-06
-7.80696e-09
1.33888e-06
-4.22745e-09
1.33992e-06
-1.04075e-09
1.33809e-06
1.82965e-09
1.33376e-06
4.33271e-09
1.3274e-06
6.35825e-09
1.31945e-06
7.94598e-09
1.31029e-06
9.16082e-09
1.30022e-06
1.00667e-08
1.28952e-06
1.07091e-08
1.27839e-06
1.11213e-08
1.26705e-06
1.13428e-08
1.25566e-06
1.13958e-08
1.24436e-06
1.12935e-08
1.23331e-06
1.10518e-08
1.22262e-06
1.06922e-08
1.21238e-06
1.02404e-08
1.20265e-06
9.72298e-09
1.19349e-06
9.16524e-09
1.1849e-06
8.591e-09
1.17687e-06
8.02469e-09
1.16941e-06
7.46739e-09
1.16246e-06
6.94539e-09
1.156e-06
6.46152e-09
1.14998e-06
6.01793e-09
1.14437e-06
5.61423e-09
1.13912e-06
5.24877e-09
1.1342e-06
4.92066e-09
1.12957e-06
4.63128e-09
1.12518e-06
4.38281e-09
1.12101e-06
4.17553e-09
1.117e-06
4.00617e-09
1.11313e-06
3.86846e-09
1.10937e-06
3.75946e-09
1.10571e-06
3.66766e-09
1.10211e-06
3.59925e-09
1.09855e-06
3.55398e-09
1.09502e-06
3.53486e-09
1.09147e-06
3.54927e-09
1.08787e-06
3.59965e-09
1.08418e-06
3.68823e-09
1.08037e-06
3.8143e-09
1.07639e-06
3.98133e-09
1.0722e-06
4.18705e-09
1.06775e-06
4.44344e-09
1.06301e-06
4.74417e-09
1.05789e-06
5.12533e-09
1.05232e-06
5.56166e-09
1.04618e-06
6.14499e-09
1.03939e-06
6.78636e-09
1.03166e-06
7.72958e-09
1.02298e-06
8.68152e-09
1.01267e-06
1.03142e-08
1.00096e-06
1.17047e-08
9.86185e-07
1.47771e-08
9.69539e-07
1.66461e-08
9.46493e-07
2.30462e-08
9.21623e-07
2.487e-08
8.81712e-07
3.9911e-08
8.4299e-07
3.87217e-08
7.64743e-07
7.82471e-08
6.1617e-08
7.03126e-07
-3.33858e-08
1.20779e-07
3.17827e-08
-5.07661e-08
1.74218e-07
-2.30473e-07
3.53534e-07
-3.33398e-07
5.43268e-07
-3.78618e-07
7.31736e-07
-3.90482e-07
9.15121e-07
-3.85707e-07
1.09272e-06
-3.73589e-07
1.2644e-06
-3.58051e-07
1.42972e-06
-3.40201e-07
1.58706e-06
-3.19212e-07
1.73382e-06
-2.93855e-07
1.86685e-06
-2.63316e-07
1.98277e-06
-2.27008e-07
2.0783e-06
-1.84819e-07
2.15068e-06
-1.37271e-07
2.19748e-06
-8.51842e-08
2.21671e-06
-2.98902e-08
2.20941e-06
2.59456e-08
2.17778e-06
8.0138e-08
2.12355e-06
1.3195e-07
2.04921e-06
1.80007e-07
1.95771e-06
2.22544e-07
1.85362e-06
2.59719e-07
1.73609e-06
2.93654e-07
1.6134e-06
3.19925e-07
1.48464e-06
3.42365e-07
1.3575e-06
3.53144e-07
1.24979e-06
3.49388e-07
1.11089e-06
3.45234e-07
9.76416e-07
2.71058e-07
8.82283e-07
1.73354e-07
7.4115e-07
1.4263e-07
7.17e-07
-6.33474e-08
9.24569e-07
-3.32784e-07
1.02952e-06
-2.23137e-07
8.35596e-07
-1.49886e-08
4.41522e-07
2.2623e-07
-2.30909e-07
6.10495e-07
-1.01667e-06
8.16624e-07
-1.70452e-06
9.33914e-07
-2.19802e-06
1.01436e-06
-2.5797e-06
1.01802e-06
-2.9344e-06
9.51107e-07
-3.26964e-06
8.65359e-07
-3.57996e-06
7.80489e-07
-3.86521e-06
7.02818e-07
-4.12759e-06
6.35909e-07
-4.36901e-06
5.78537e-07
-4.5908e-06
5.28769e-07
-4.79324e-06
4.83825e-07
-4.97559e-06
4.40755e-07
-5.13638e-06
3.96917e-07
-5.27375e-06
3.50089e-07
-5.38589e-06
2.98956e-07
-5.47149e-06
2.43199e-07
-5.53007e-06
1.83627e-07
-5.56209e-06
1.219e-07
-5.56888e-06
6.03335e-08
-5.55253e-06
1.89572e-09
-5.51458e-06
-5.07256e-08
-5.45662e-06
-9.62703e-08
-5.38249e-06
-1.33641e-07
-5.2961e-06
-1.62279e-07
-5.20088e-06
-1.82572e-07
-5.10024e-06
-1.95484e-07
-4.99672e-06
-2.02521e-07
-4.89214e-06
-2.05393e-07
-4.78757e-06
-2.05698e-07
-4.6834e-06
-2.0475e-07
-4.57966e-06
-2.03488e-07
-4.47607e-06
-2.02582e-07
-4.3722e-06
-2.02499e-07
-4.26749e-06
-2.03582e-07
-4.16127e-06
-2.06066e-07
-4.0528e-06
-2.10069e-07
-3.94141e-06
-2.15561e-07
-3.82646e-06
-2.22385e-07
-3.70742e-06
-2.30374e-07
-3.58376e-06
-2.39496e-07
-3.45491e-06
-2.49862e-07
-3.32017e-06
-2.61622e-07
-3.17877e-06
-2.74909e-07
-3.02991e-06
-2.89761e-07
-2.87286e-06
-3.05974e-07
-2.70713e-06
-3.23088e-07
-2.53255e-06
-3.40487e-07
-2.34938e-06
-3.57321e-07
-2.15843e-06
-3.72546e-07
-1.961e-06
-3.85225e-07
-1.75877e-06
-3.94629e-07
-1.55366e-06
-4.00326e-07
-1.34758e-06
-4.02297e-07
-1.14226e-06
-4.00856e-07
-9.39103e-07
-3.96603e-07
-7.39133e-07
-3.90225e-07
-5.43066e-07
-3.82259e-07
-3.51529e-07
-3.72931e-07
-1.65047e-07
-3.62227e-07
1.55355e-08
-3.498e-07
1.892e-07
-3.35651e-07
3.54777e-07
-3.18834e-07
5.11032e-07
-2.99649e-07
6.56935e-07
-2.78417e-07
7.91764e-07
-2.5575e-07
9.15193e-07
-2.32416e-07
1.0273e-06
-2.09201e-07
1.1285e-06
-1.86781e-07
1.21946e-06
-1.65665e-07
1.30101e-06
-1.46171e-07
1.37406e-06
-1.28445e-07
1.4395e-06
-1.12497e-07
1.4982e-06
-9.8239e-08
1.55094e-06
-8.55253e-08
1.59842e-06
-7.41784e-08
1.64121e-06
-6.40143e-08
1.67979e-06
-5.48642e-08
1.71455e-06
-4.65823e-08
1.7458e-06
-3.90588e-08
1.7738e-06
-3.22218e-08
1.79879e-06
-2.60369e-08
1.8211e-06
-2.04807e-08
1.84098e-06
-1.55453e-08
1.8586e-06
-1.12573e-08
1.87417e-06
-7.62609e-09
1.88796e-06
-4.63252e-09
1.90025e-06
-2.22102e-09
1.91131e-06
-3.45776e-10
1.92141e-06
1.01353e-09
1.93083e-06
1.92332e-09
1.93979e-06
2.44272e-09
1.94845e-06
2.62885e-09
1.95696e-06
2.54692e-09
1.96538e-06
2.2665e-09
1.97376e-06
1.85672e-09
1.98211e-06
1.37839e-09
1.99039e-06
8.81293e-10
1.99858e-06
4.04619e-10
2.00662e-06
-1.13977e-11
2.01449e-06
-4.05593e-10
2.02215e-06
-7.1327e-10
2.02956e-06
-9.52302e-10
2.0367e-06
-1.1237e-09
2.04355e-06
-1.23035e-09
2.05007e-06
-1.27891e-09
2.05627e-06
-1.27778e-09
2.06213e-06
-1.22964e-09
2.06765e-06
-1.12819e-09
2.07278e-06
-9.6153e-10
2.07751e-06
-7.21557e-10
2.08179e-06
-4.12381e-10
2.08559e-06
-4.19692e-11
2.08892e-06
3.42101e-10
2.09175e-06
7.62549e-10
2.0941e-06
1.21132e-09
2.09594e-06
1.69334e-09
2.09727e-06
2.21411e-09
2.0981e-06
2.77798e-09
2.09839e-06
3.38968e-09
2.09816e-06
4.04866e-09
2.09738e-06
4.75646e-09
2.09606e-06
5.5093e-09
2.09418e-06
6.32595e-09
2.09173e-06
7.19472e-09
2.08868e-06
8.17813e-09
2.08501e-06
9.22927e-09
2.08064e-06
1.05127e-08
2.07557e-06
1.18568e-08
2.06959e-06
1.37125e-08
2.06276e-06
1.55142e-08
2.05455e-06
1.85151e-08
2.04529e-06
2.09731e-08
2.03367e-06
2.63969e-08
2.0207e-06
2.96163e-08
2.00326e-06
4.04791e-08
1.98408e-06
4.40556e-08
1.95619e-06
6.77956e-08
1.92527e-06
6.96489e-08
1.87868e-06
1.24837e-07
1.2076e-07
1.81953e-06
3.3076e-08
8.77034e-08
1.83604e-07
-2.01294e-07
3.67457e-07
-4.14326e-07
5.47437e-07
-5.13378e-07
7.15121e-07
-5.46301e-07
8.74865e-07
-5.50226e-07
1.03285e-06
-5.43693e-07
1.19279e-06
-5.33526e-07
1.35539e-06
-5.20655e-07
1.5188e-06
-5.03606e-07
1.67958e-06
-4.79996e-07
1.83333e-06
-4.47604e-07
1.97487e-06
-4.04856e-07
2.09894e-06
-3.5108e-07
2.20061e-06
-2.86487e-07
2.27554e-06
-2.12202e-07
2.32051e-06
-1.3015e-07
2.33333e-06
-4.27148e-08
2.31412e-06
4.51532e-08
2.264e-06
1.30259e-07
2.1867e-06
2.09248e-07
2.08804e-06
2.78669e-07
1.9743e-06
3.36282e-07
1.85291e-06
3.81118e-07
1.73274e-06
4.13819e-07
1.61652e-06
4.36148e-07
1.50357e-06
4.55315e-07
1.39928e-06
4.57432e-07
1.29359e-06
4.55074e-07
1.19908e-06
4.39743e-07
1.10395e-06
3.66196e-07
9.87366e-07
2.89934e-07
9.81268e-07
1.48727e-07
9.59942e-07
-4.20205e-08
6.62378e-07
-3.52203e-08
1.46221e-07
2.93021e-07
-6.06933e-07
7.38165e-07
-1.36105e-06
9.80346e-07
-1.92484e-06
1.17429e-06
-2.39154e-06
1.28332e-06
-2.78038e-06
1.32275e-06
-3.06496e-06
1.29895e-06
-3.27837e-06
1.23143e-06
-3.47203e-06
1.14477e-06
-3.66256e-06
1.05589e-06
-3.85317e-06
9.71093e-07
-4.04375e-06
8.93406e-07
-4.23215e-06
8.24303e-07
-4.41567e-06
7.62061e-07
-4.5912e-06
7.04295e-07
-4.75536e-06
6.47988e-07
-4.90482e-06
5.90213e-07
-5.03646e-06
5.28557e-07
-5.1477e-06
4.61325e-07
-5.23663e-06
3.87891e-07
-5.30218e-06
3.08751e-07
-5.34413e-06
2.25575e-07
-5.36316e-06
1.40925e-07
-5.36032e-06
5.74931e-08
-5.33668e-06
-2.17414e-08
-5.29612e-06
-9.12837e-08
-5.24038e-06
-1.52008e-07
-5.1721e-06
-2.01921e-07
-5.09412e-06
-2.40262e-07
-5.00919e-06
-2.675e-07
-4.91987e-06
-2.84802e-07
-4.82822e-06
-2.94171e-07
-4.73568e-06
-2.97932e-07
-4.64296e-06
-2.98427e-07
-4.55008e-06
-2.97626e-07
-4.45667e-06
-2.969e-07
-4.36217e-06
-2.97078e-07
-4.26602e-06
-2.98651e-07
-4.16765e-06
-3.01954e-07
-4.06653e-06
-3.0719e-07
-3.96221e-06
-3.14386e-07
-3.85434e-06
-3.23427e-07
-3.74259e-06
-3.34134e-07
-3.62661e-06
-3.46357e-07
-3.50601e-06
-3.60098e-07
-3.38031e-06
-3.75563e-07
-3.24887e-06
-3.93062e-07
-3.11091e-06
-4.12871e-07
-2.96552e-06
-4.35145e-07
-2.81181e-06
-4.59689e-07
-2.64909e-06
-4.85801e-07
-2.47711e-06
-5.12475e-07
-2.29602e-06
-5.38404e-07
-2.10663e-06
-5.61936e-07
-1.91032e-06
-5.81542e-07
-1.70892e-06
-5.96022e-07
-1.50458e-06
-6.04669e-07
-1.29938e-06
-6.07492e-07
-1.09515e-06
-6.05094e-07
-8.93239e-07
-5.9851e-07
-6.94575e-07
-5.88888e-07
-4.99691e-07
-5.77143e-07
-3.08991e-07
-5.6363e-07
-1.22932e-07
-5.48287e-07
5.76721e-08
-5.30403e-07
2.31395e-07
-5.09373e-07
3.96937e-07
-4.84376e-07
5.528e-07
-4.55512e-07
6.97767e-07
-4.23384e-07
8.31071e-07
-3.89054e-07
9.52459e-07
-3.53805e-07
1.06215e-06
-3.18895e-07
1.16074e-06
-2.85368e-07
1.24904e-06
-2.53964e-07
1.32798e-06
-2.25109e-07
1.39851e-06
-1.98973e-07
1.46154e-06
-1.75535e-07
1.51796e-06
-1.54657e-07
1.56858e-06
-1.36146e-07
1.61418e-06
-1.19776e-07
1.65548e-06
-1.05312e-07
1.69313e-06
-9.25139e-08
1.72768e-06
-8.11383e-08
1.75958e-06
-7.09589e-08
1.78914e-06
-6.17788e-08
1.81655e-06
-5.34473e-08
1.84195e-06
-4.58836e-08
1.86546e-06
-3.9054e-08
1.88717e-06
-3.29677e-08
1.90721e-06
-2.76583e-08
1.92572e-06
-2.31501e-08
1.94295e-06
-1.94441e-08
1.95913e-06
-1.65271e-08
1.97451e-06
-1.43688e-08
1.98934e-06
-1.29034e-08
2.00383e-06
-1.20482e-08
2.01816e-06
-1.16996e-08
2.03245e-06
-1.1745e-08
2.04678e-06
-1.20639e-08
2.06117e-06
-1.25403e-08
2.07563e-06
-1.30749e-08
2.0901e-06
-1.35895e-08
2.10453e-06
-1.40275e-08
2.11887e-06
-1.43507e-08
2.13303e-06
-1.45625e-08
2.14696e-06
-1.46473e-08
2.16063e-06
-1.46181e-08
2.17399e-06
-1.44862e-08
2.18702e-06
-1.42637e-08
2.19971e-06
-1.39644e-08
2.21203e-06
-1.35992e-08
2.22397e-06
-1.31686e-08
2.2355e-06
-1.26634e-08
2.24662e-06
-1.20752e-08
2.2573e-06
-1.14059e-08
2.26756e-06
-1.06658e-08
2.27737e-06
-9.86012e-09
2.28672e-06
-8.99966e-09
2.29555e-06
-8.07445e-09
2.30385e-06
-7.08616e-09
2.31158e-06
-6.03464e-09
2.31871e-06
-4.91576e-09
2.32521e-06
-3.72564e-09
2.33106e-06
-2.4544e-09
2.33621e-06
-1.10455e-09
2.34063e-06
3.31427e-10
2.34432e-06
1.82238e-09
2.34726e-06
3.38906e-09
2.34945e-06
5.00514e-09
2.35087e-06
6.75581e-09
2.35153e-06
8.56466e-09
2.3514e-06
1.06464e-08
2.35049e-06
1.27705e-08
2.3487e-06
1.54945e-08
2.34608e-06
1.81386e-08
2.34244e-06
2.21514e-08
2.33781e-06
2.56112e-08
2.33191e-06
3.22909e-08
2.32459e-06
3.69359e-08
2.31576e-06
4.93077e-08
2.30431e-06
5.55075e-08
2.29176e-06
8.03521e-08
2.2729e-06
8.85062e-08
2.25717e-06
1.40569e-07
1.54742e-07
2.22318e-06
1.13149e-07
-2.54459e-08
3.19211e-07
-4.07356e-07
5.06744e-07
-6.0186e-07
6.63248e-07
-6.69881e-07
8.05236e-07
-6.8829e-07
9.48329e-07
-6.93319e-07
1.10053e-06
-6.95893e-07
1.26379e-06
-6.96788e-07
1.43659e-06
-6.9345e-07
1.61485e-06
-6.81868e-07
1.79262e-06
-6.57767e-07
1.96294e-06
-6.17926e-07
2.11885e-06
-5.60766e-07
2.25392e-06
-4.86146e-07
2.36269e-06
-3.95263e-07
2.44064e-06
-2.90144e-07
2.48413e-06
-1.73645e-07
2.49121e-06
-4.97962e-08
2.4587e-06
7.76617e-08
2.38752e-06
2.01448e-07
2.28202e-06
3.1474e-07
2.14915e-06
4.1154e-07
1.99801e-06
4.8742e-07
1.83581e-06
5.43324e-07
1.67129e-06
5.78341e-07
1.5139e-06
5.93532e-07
1.37169e-06
5.97523e-07
1.23312e-06
5.9601e-07
1.11213e-06
5.76057e-07
1.00537e-06
5.46507e-07
8.45141e-07
5.26425e-07
7.4483e-07
3.90246e-07
6.84927e-07
2.08629e-07
2.97064e-07
3.45843e-07
-4.95885e-07
7.57729e-07
-1.26686e-06
1.064e-06
-1.83989e-06
1.31119e-06
-2.32725e-06
1.46771e-06
-2.70219e-06
1.54923e-06
-2.97741e-06
1.55854e-06
-3.18213e-06
1.52747e-06
-3.34239e-06
1.45921e-06
-3.48383e-06
1.37286e-06
-3.61888e-06
1.27982e-06
-3.7534e-06
1.19041e-06
-3.89016e-06
1.10786e-06
-4.02925e-06
1.03249e-06
-4.16818e-06
9.63229e-07
-4.30356e-06
8.97445e-07
-4.43168e-06
8.32413e-07
-4.54888e-06
7.65194e-07
-4.65201e-06
6.93341e-07
-4.7386e-06
6.15145e-07
-4.80715e-06
5.29876e-07
-4.85717e-06
4.3791e-07
-4.88915e-06
3.40729e-07
-4.90445e-06
2.40876e-07
-4.90505e-06
1.41528e-07
-4.89308e-06
4.55181e-08
-4.87112e-06
-4.37013e-08
-4.83913e-06
-1.2327e-07
-4.79876e-06
-1.92377e-07
-4.7512e-06
-2.49483e-07
-4.69728e-06
-2.94185e-07
-4.63759e-06
-3.27188e-07
-4.57265e-06
-3.49742e-07
-4.50318e-06
-3.63641e-07
-4.43006e-06
-3.71047e-07
-4.35416e-06
-3.74331e-07
-4.27607e-06
-3.75715e-07
-4.19595e-06
-3.77024e-07
-4.11348e-06
-3.79545e-07
-4.02804e-06
-3.84093e-07
-3.93888e-06
-3.91111e-07
-3.84541e-06
-4.00654e-07
-3.74741e-06
-4.12388e-07
-3.64506e-06
-4.25783e-07
-3.53869e-06
-4.40503e-07
-3.42846e-06
-4.56589e-07
-3.31419e-06
-4.74362e-07
-3.19545e-06
-4.94306e-07
-3.07152e-06
-5.16993e-07
-2.94146e-06
-5.42925e-07
-2.80418e-06
-5.72427e-07
-2.65847e-06
-6.05401e-07
-2.50334e-06
-6.40928e-07
-2.33835e-06
-6.77466e-07
-2.16366e-06
-7.13095e-07
-1.98022e-06
-7.45376e-07
-1.78975e-06
-7.72013e-07
-1.59457e-06
-7.91204e-07
-1.39725e-06
-8.01991e-07
-1.20009e-06
-8.04647e-07
-1.00465e-06
-8.00534e-07
-8.11645e-07
-7.91515e-07
-6.21165e-07
-7.79369e-07
-4.32858e-07
-7.6545e-07
-2.4652e-07
-7.49969e-07
-6.25656e-08
-7.32241e-07
1.18438e-07
-7.11406e-07
2.94057e-07
-6.84992e-07
4.62162e-07
-6.52481e-07
6.20433e-07
-6.13783e-07
7.66985e-07
-5.69937e-07
9.00711e-07
-5.22779e-07
1.02136e-06
-4.74452e-07
1.12939e-06
-4.26933e-07
1.22577e-06
-3.81744e-07
1.31166e-06
-3.39858e-07
1.3883e-06
-3.01745e-07
1.45681e-06
-2.67479e-07
1.51813e-06
-2.36861e-07
1.57301e-06
-2.09538e-07
1.62199e-06
-1.85122e-07
1.66548e-06
-1.63265e-07
1.70388e-06
-1.43711e-07
1.73766e-06
-1.26292e-07
1.76741e-06
-1.10896e-07
1.79386e-06
-9.74026e-08
1.81772e-06
-8.56446e-08
1.83967e-06
-7.53961e-08
1.8602e-06
-6.64112e-08
1.87962e-06
-5.84732e-08
1.89809e-06
-5.14389e-08
1.91568e-06
-4.52505e-08
1.93244e-06
-3.99114e-08
1.94845e-06
-3.54498e-08
1.96381e-06
-3.18909e-08
1.97868e-06
-2.92374e-08
1.99323e-06
-2.74482e-08
2.00762e-06
-2.64368e-08