/*--------------------------------*- C++ -*----------------------------------*\
  =========                 |
  \\      /  F ield         | OpenFOAM: The Open Source CFD Toolbox
   \\    /   O peration     | Website:  https://openfoam.org
    \\  /    A nd           | Version:  7
     \\/     M anipulation  |
\*---------------------------------------------------------------------------*/
FoamFile
{
    version     2.0;
    format      ascii;
    class       volScalarField;
    location    "0.054";
    object      s;
}
// * * * * * * * * * * * * * * * * * * * * * * * * * * * * * * * * * * * * * //

dimensions      [0 0 0 0 0 0 0];

internalField   nonuniform List<scalar> 
12225
(
1
1
1
1
1
1
1
1
1
1
1
1
1
1
1
1
1
1
1
1
1
1
1
1
1
1
1
1
1
1
1
1
1
1
1
1
1
1
1
1
1
1
1
1
1
1
1
1
1
1
1
1
1
1
1
1
1
1
1
1
1
1
1
1
1
1
1
1
1
1
1
1
1
1
1
1
1
1
1
1
1
1
1
1
1
1
1
1
1
1
1
1
1
1
1
1
1
1
1
1
1
1
1
1
1
1
1
1
1
1
1
1
1
1
1
1
1
1
1
1
1
1
1
1
1
1
1
1
1
1
1
1
1
1
1
1
1
1
1
1
1
1
1
1
1
1
1
1
1
1
1
1
1
1
1
1
1
1
1
1
1
1
1
1
1
1
1
1
1
1
1
1
1
1
1
1
1
1
1
1
1
1
1
1
1
1
1
1
1
1
1
1
1
1
1
1
1
1
1
1
1
1
1
1
1
1
1
1
1
1
1
1
1
1
1
1
1
1
1
1
1
1
1
1
1
1
1
1
1
1
1
1
1
1
1
1
1
1
1
1
1
1
1
1
1
1
1
1
1
1
1
1
1
1
1
1
1
1
1
1
1
1
1
1
1
1
1
1
1
1
1
1
1
1
1
1
1
1
1
1
1
1
1
1
1
1
1
1
1
1
1
1
1
1
1
1
1
1
1
1
1
1
1
1
1
1
1
1
1
1
1
1
1
1
1
1
1
1
1
1
1
1
1
1
1
1
1
1
1
1
1
1
1
1
1
1
1
1
1
1
1
1
1
1
1
1
1
1
1
1
1
1
1
1
1
1
1
1
1
1
1
1
1
1
1
1
1
1
1
1
1
1
1
1
1
1
1
1
1
1
1
1
1
1
1
1
1
1
1
1
1
1
1
1
1
1
1
1
1
1
1
1
1
1
1
1
1
1
1
1
1
1
1
1
1
1
1
1
1
1
1
1
1
1
1
1
1
1
1
1
1
1
1
1
1
1
1
1
1
1
1
1
1
1
1
1
1
1
1
1
1
1
1
1
1
1
1
1
1
1
1
1
1
1
1
1
1
1
1
1
1
1
1
1
1
1
1
1
1
1
1
1
1
1
1
1
1
1
1
1
1
1
1
1
1
1
1
1
1
1
1
1
1
1
1
1
1
1
1
1
1
1
1
1
1
1
1
1
1
1
1
1
1
1
1
1
1
1
1
1
1
1
1
1
1
1
1
1
1
1
1.34564e-06
1.23687e-05
7.38462e-05
0.000226966
0.000511341
0.00119098
0.00190812
0.0036746
0.00522526
0.00923474
0.0121237
0.017197
0.0210314
0.025128
0.0281001
0.0310421
0.0329843
0.0326898
0.0318698
0.0305641
0.0290843
0.0275022
0.025987
0.0243222
0.0224721
0.0201277
0.0170983
0.013795
0.0091828
0.00391782
0.000907545
0.00027057
0.000443653
0.000990024
0.00201601
0.00405038
0.00784105
0.0227837
0.0307342
0.0365226
0.14809
0.51346
0.662843
0.690248
0.691947
0.689247
0.680814
0.675309
0.674471
0.674588
0.676021
0.679818
0.686611
0.696584
0.709584
0.724956
0.74104
0.755307
0.765907
0.77319
0.779004
0.78338
0.785395
0.786445
0.786705
0.786188
0.782928
0.776598
0.769323
0.763169
0.758498
0.754262
0.749235
0.743275
0.737483
0.732953
0.729434
0.72564
0.720943
0.716163
0.712206
0.708455
0.703661
0.698067
0.692673
0.686807
0.679362
0.671279
0.662653
0.651473
0.639318
0.625694
0.609743
0.592062
0.572112
0.550094
0.525857
0.499302
0.469953
0.43799
0.403018
0.365071
0.324563
0.282153
0.238923
0.196404
0.156561
0.121589
0.0933473
0.0709037
0.0520882
0.0368235
0.0250327
0.0163795
0.0103152
0.00622547
0.00357834
0.00194673
0.000995683
0.000472698
0.000200746
8.05192e-05
3.13896e-05
1.18849e-05
4.37188e-06
1.56224e-06
5.43801e-07
1.85343e-07
5.49634e-08
1.6735e-08
7.80016e-09
3.47877e-09
1.5006e-09
6.32552e-10
2.61144e-10
1.05527e-10
4.173e-11
1.61551e-11
6.12683e-12
2.27778e-12
8.30632e-13
2.97291e-13
1.04491e-13
3.60846e-14
1.22494e-14
4.089e-15
1.34261e-15
4.33672e-16
1.37789e-16
4.30504e-17
1.32218e-17
3.99156e-18
1.1848e-18
3.45853e-19
9.92979e-20
2.80436e-20
7.79099e-21
2.1292e-21
5.72378e-22
1.51338e-22
3.93511e-23
1.00608e-23
2.52862e-24
6.24613e-25
1.516e-25
3.6142e-26
8.46061e-27
1.94392e-27
4.38165e-28
9.68248e-29
2.09616e-29
4.44065e-30
9.19585e-31
1.85732e-31
3.65291e-32
6.96168e-33
1.28291e-33
2.2572e-34
3.81533e-35
2.72478e-36
1.61266e-06
4.29713e-05
0.000275323
0.00093243
0.0024617
0.00591896
0.0114085
0.0254575
0.0388169
0.0670319
0.0936055
0.127654
0.156365
0.187403
0.213014
0.230891
0.245988
0.245428
0.240453
0.22924
0.207427
0.180262
0.151794
0.123527
0.0972257
0.0737402
0.053239
0.0371913
0.0245129
0.0143448
0.00828251
0.00446843
0.00263078
0.00289819
0.00519893
0.0129839
0.0125937
0.0486207
0.288865
0.417765
0.568997
0.694722
0.751051
0.784231
0.811612
0.832916
0.850599
0.865537
0.880358
0.893161
0.903658
0.91233
0.922774
0.928662
0.936872
0.940872
0.943722
0.94461
0.944564
0.941498
0.93964
0.939071
0.939237
0.94201
0.948584
0.95379
0.955814
0.957059
0.958769
0.961717
0.965787
0.969106
0.970594
0.971531
0.972683
0.97393
0.974553
0.974961
0.975289
0.975696
0.976376
0.976841
0.97715
0.977433
0.977788
0.978256
0.978758
0.979325
0.979766
0.98014
0.980545
0.980938
0.981126
0.981003
0.980663
0.979385
0.977186
0.973888
0.969288
0.963128
0.954956
0.944152
0.929882
0.911122
0.886549
0.854465
0.812827
0.759443
0.692682
0.614378
0.528516
0.438127
0.347992
0.264924
0.195858
0.142705
0.101116
0.0693116
0.0460287
0.0296646
0.018564
0.011277
0.00665682
0.00382557
0.00214468
0.00117538
0.000630974
0.000332372
0.00017231
8.80639e-05
4.43713e-05
2.20354e-05
1.07816e-05
5.1948e-06
2.46339e-06
1.14906e-06
5.27029e-07
2.37672e-07
1.05407e-07
4.59434e-08
1.96405e-08
8.22634e-09
3.37317e-09
1.35307e-09
5.30575e-10
2.03252e-10
7.59997e-11
2.76994e-11
9.81891e-12
3.37506e-12
1.12223e-12
3.62395e-13
1.14739e-13
3.56307e-14
1.08523e-14
3.24192e-15
9.49871e-16
2.72964e-16
7.69322e-17
2.12642e-17
5.76365e-18
1.53185e-18
3.99177e-19
1.01977e-19
2.55376e-20
6.2683e-21
1.50778e-21
3.55374e-22
8.20474e-23
1.85526e-23
4.10622e-24
8.89423e-25
1.88291e-25
3.89599e-26
7.85483e-27
1.54445e-27
2.93948e-28
5.42281e-29
1.02036e-29
-7.34455e-30
7.04719e-06
0.000148999
0.000782038
0.00283591
0.00840598
0.0211939
0.0473749
0.108178
0.173069
0.276423
0.376423
0.457676
0.519384
0.557166
0.576297
0.59066
0.593747
0.592257
0.587348
0.575574
0.559369
0.531857
0.490429
0.441906
0.370066
0.30337
0.218968
0.136649
0.0820482
0.0459354
0.0272888
0.0171477
0.0104394
0.0106033
0.014562
0.067868
0.331049
0.473575
0.645586
0.721842
0.806751
0.846317
0.875862
0.892062
0.91003
0.918506
0.925548
0.92883
0.930487
0.930973
0.930378
0.926569
0.920669
0.912336
0.897156
0.874983
0.848837
0.820408
0.795996
0.783214
0.777836
0.776202
0.778178
0.793163
0.821179
0.839754
0.847141
0.850955
0.853784
0.857718
0.867841
0.881045
0.887875
0.891284
0.894769
0.899294
0.904441
0.907608
0.909099
0.910988
0.914594
0.918947
0.9224
0.92507
0.9293
0.934519
0.939024
0.943367
0.949294
0.95465
0.959893
0.966934
0.973125
0.979162
0.98458
0.988976
0.992394
0.994908
0.996586
0.997599
0.998134
0.998343
0.998345
0.998006
0.997163
0.99574
0.993414
0.989688
0.983726
0.974299
0.959403
0.935617
0.897567
0.838371
0.75233
0.641171
0.516691
0.392708
0.284319
0.200454
0.137733
0.0918722
0.0595854
0.0376509
0.0232243
0.0140143
0.00829083
0.00481837
0.00275548
0.00155265
0.000862829
0.000473057
0.000255841
0.000136404
7.16255e-05
3.70004e-05
1.87818e-05
9.35825e-06
4.57278e-06
2.18975e-06
1.02714e-06
4.71793e-07
2.1216e-07
9.33928e-08
4.02421e-08
1.69728e-08
7.0065e-09
2.83048e-09
1.11878e-09
4.32589e-10
1.636e-10
6.05048e-11
2.18783e-11
7.73352e-12
2.67178e-12
9.01974e-13
2.97478e-13
9.58207e-14
3.01327e-14
9.25013e-15
2.78012e-15
8.20415e-16
2.37686e-16
6.75946e-17
1.88661e-17
5.16728e-18
1.38853e-18
3.66025e-19
9.46179e-20
2.39834e-20
5.95701e-21
1.45002e-21
3.45388e-22
8.05644e-23
1.83399e-23
4.08468e-24
8.82823e-25
1.86484e-25
3.7959e-26
6.48789e-27
9.27554e-05
0.000519851
0.00225235
0.00845837
0.0271764
0.0734608
0.173507
0.3487
0.526277
0.616912
0.657812
0.678064
0.677128
0.674361
0.668459
0.665157
0.660014
0.656114
0.653947
0.649351
0.642883
0.63201
0.619669
0.59225
0.558729
0.505401
0.430898
0.343982
0.24263
0.16049
0.0978513
0.0436442
0.0232791
0.0388104
0.233805
0.46099
0.644144
0.727735
0.807528
0.841624
0.865833
0.877087
0.888564
0.896371
0.904751
0.907545
0.908301
0.904959
0.898562
0.887991
0.871275
0.846999
0.814136
0.769376
0.722014
0.671514
0.622889
0.597036
0.586503
0.582114
0.580972
0.582339
0.592374
0.613693
0.642343
0.673073
0.70345
0.730434
0.746422
0.754514
0.760489
0.765432
0.769228
0.77479
0.780369
0.784322
0.788293
0.792259
0.7948
0.796338
0.79761
0.798617
0.799079
0.799163
0.800615
0.803528
0.80702
0.811187
0.81796
0.826943
0.837569
0.852054
0.869307
0.890142
0.913178
0.936021
0.955134
0.969877
0.981304
0.989193
0.994153
0.997055
0.998572
0.999308
0.999644
0.999783
0.999831
0.999838
0.999793
0.99962
0.999313
0.998797
0.997754
0.995539
0.990806
0.980508
0.957449
0.905026
0.812021
0.681416
0.53201
0.388961
0.272991
0.186569
0.124058
0.0804376
0.0509834
0.0316596
0.0192982
0.0115635
0.00681723
0.00395566
0.00225856
0.00126812
0.000699518
0.000378684
0.000200973
0.000104468
5.31491e-05
2.64522e-05
1.28752e-05
6.12806e-06
2.85214e-06
1.29818e-06
5.77924e-07
2.51673e-07
1.0722e-07
4.46888e-08
1.82225e-08
7.26929e-09
2.83687e-09
1.08302e-09
4.0444e-10
1.47727e-10
5.27729e-11
1.84356e-11
6.29713e-12
2.1029e-12
6.86492e-13
2.19058e-13
6.83119e-14
2.08142e-14
6.19747e-15
1.80802e-15
5.1757e-16
1.45365e-16
4.00486e-17
1.08223e-17
2.86759e-18
7.45026e-19
1.89675e-19
4.73265e-20
1.15577e-20
2.76445e-21
6.45718e-22
1.47595e-22
3.27993e-23
7.12483e-24
1.49293e-24
2.99676e-25
0.000677698
0.00171026
0.00623882
0.0244713
0.0835039
0.233292
0.521056
0.65461
0.703127
0.712523
0.708794
0.698587
0.67504
0.641774
0.604873
0.581977
0.557464
0.558308
0.564761
0.579043
0.600375
0.611526
0.611043
0.604495
0.587785
0.557726
0.515028
0.439546
0.319216
0.190478
0.0915057
0.0447367
0.0776969
0.30143
0.578045
0.701754
0.789112
0.827299
0.84816
0.856355
0.859987
0.858138
0.846749
0.826845
0.801744
0.781015
0.761694
0.741204
0.717447
0.692139
0.659096
0.628161
0.59934
0.577869
0.553151
0.536517
0.529552
0.526974
0.526406
0.527195
0.531051
0.537285
0.547077
0.560818
0.578043
0.600327
0.627937
0.661658
0.70023
0.725314
0.73603
0.743017
0.749827
0.755602
0.760894
0.766582
0.771867
0.775041
0.776299
0.776542
0.775983
0.773688
0.769276
0.764047
0.75982
0.756603
0.75501
0.754558
0.754881
0.75676
0.760098
0.764202
0.769788
0.77806
0.790945
0.810873
0.840173
0.877036
0.914333
0.946317
0.968801
0.98285
0.991413
0.996009
0.998265
0.999283
0.999708
0.999873
0.999936
0.999961
0.999971
0.999974
0.99997
0.999949
0.999881
0.999695
0.999205
0.997895
0.994324
0.984434
0.956634
0.877436
0.73101
0.567077
0.4125
0.288531
0.196438
0.130466
0.0847416
0.0539287
0.0336635
0.0206213
0.0123946
0.00730562
0.00421899
0.00238487
0.00131833
0.000712121
0.000375681
0.000193503
9.73015e-05
4.77687e-05
2.29003e-05
1.0723e-05
4.90557e-06
2.19313e-06
9.58362e-07
4.094e-07
1.70987e-07
6.98228e-08
2.78785e-08
1.08837e-08
4.15447e-09
1.55045e-09
5.65687e-10
2.0176e-10
7.03393e-11
2.39679e-11
7.98178e-12
2.59771e-12
8.262e-13
2.56794e-13
7.79952e-14
2.31443e-14
6.71556e-15
1.91028e-15
5.32698e-16
1.45624e-16
3.90163e-17
1.02452e-17
2.63538e-18
6.64127e-19
1.63795e-19
3.95507e-20
9.33011e-21
2.15261e-21
4.83634e-22
1.0609e-22
2.25488e-23
4.6108e-24
0.00278285
0.00455305
0.0156013
0.0659529
0.234045
0.574312
0.7015
0.734948
0.731866
0.718942
0.682041
0.61608
0.4938
0.381897
0.299977
0.242339
0.214586
0.219797
0.241415
0.287533
0.376305
0.48585
0.554416
0.580507
0.577531
0.559995
0.520788
0.436917
0.304351
0.152966
0.0741086
0.103969
0.339542
0.620299
0.748146
0.806678
0.833843
0.842651
0.844746
0.837534
0.806696
0.742345
0.682107
0.64188
0.615717
0.598367
0.582708
0.571627
0.556782
0.546052
0.535211
0.528244
0.521812
0.518438
0.517063
0.517023
0.520427
0.525523
0.530743
0.537912
0.542141
0.547086
0.551529
0.558762
0.568563
0.582649
0.600541
0.619902
0.643165
0.673495
0.709486
0.733572
0.744631
0.754136
0.764121
0.772544
0.779433
0.781495
0.781719
0.780907
0.7778
0.771946
0.763755
0.754899
0.747053
0.74065
0.737446
0.736845
0.737615
0.740696
0.744846
0.748505
0.75223
0.756616
0.762433
0.770615
0.782309
0.799779
0.824962
0.858322
0.897177
0.935024
0.964318
0.982515
0.991913
0.996537
0.998591
0.999445
0.999781
0.999911
0.99996
0.99998
0.999988
0.999992
0.999993
0.999992
0.999986
0.999964
0.999887
0.999633
0.998805
0.996105
0.987335
0.959187
0.869878
0.699335
0.526966
0.377986
0.26323
0.178632
0.118385
0.0767032
0.048596
0.0300957
0.0182064
0.01075
0.00619063
0.00347504
0.00190081
0.00101306
0.00052613
0.00026634
0.000131469
6.33036e-05
2.97459e-05
1.36452e-05
6.11247e-06
2.6745e-06
1.14323e-06
4.77464e-07
1.9485e-07
7.77017e-08
3.02785e-08
1.15293e-08
4.2896e-09
1.55938e-09
5.5384e-10
1.92171e-10
6.51393e-11
2.15696e-11
6.97712e-12
2.20473e-12
6.80593e-13
2.05253e-13
6.04653e-14
1.74154e-14
4.91373e-15
1.3582e-15
3.6773e-16
9.75231e-17
2.53251e-17
6.43966e-18
1.60226e-18
3.90119e-19
9.28183e-20
2.1586e-20
4.89387e-21
1.08243e-21
2.32641e-22
4.82113e-23
0.00694798
0.00885361
0.0336936
0.156688
0.529556
0.710488
0.750707
0.746329
0.722592
0.655093
0.500762
0.287236
0.170872
0.111722
0.0802968
0.0646712
0.0548818
0.0551396
0.0625639
0.0857657
0.137236
0.232871
0.405208
0.5083
0.539134
0.539066
0.508226
0.40635
0.213587
0.111551
0.125565
0.359847
0.64085
0.765765
0.817868
0.836827
0.841604
0.836789
0.819097
0.763564
0.658325
0.608596
0.578397
0.560991
0.550505
0.545153
0.541286
0.539005
0.537282
0.536771
0.537409
0.542049
0.549869
0.560182
0.570701
0.581022
0.589252
0.595431
0.599305
0.601321
0.603419
0.604354
0.604753
0.604824
0.603869
0.603244
0.603337
0.608719
0.621507
0.633425
0.651258
0.677061
0.707318
0.737092
0.755435
0.765523
0.774171
0.776681
0.776684
0.774406
0.768081
0.757904
0.745458
0.732231
0.727052
0.727003
0.727793
0.729704
0.733132
0.738189
0.742935
0.746146
0.749024
0.752597
0.758773
0.768383
0.780293
0.795066
0.812451
0.834039
0.861268
0.889311
0.9188
0.947965
0.972378
0.987453
0.994647
0.997855
0.999177
0.999689
0.99988
0.999951
0.999978
0.99999
0.999994
0.999997
0.999997
0.999997
0.999996
0.99999
0.999967
0.999877
0.999546
0.998353
0.994142
0.979599
0.930699
0.788302
0.605771
0.443321
0.313962
0.21616
0.14486
0.0945197
0.0600314
0.0370934
0.0222878
0.0130184
0.00739144
0.00407995
0.00219023
0.00114406
0.000581809
0.000288228
0.000139173
6.55316e-05
3.01024e-05
1.34942e-05
5.90476e-06
2.52257e-06
1.05227e-06
4.28641e-07
1.70513e-07
6.62404e-08
2.51295e-08
9.30952e-09
3.36771e-09
1.18958e-09
4.10292e-10
1.38175e-10
4.54369e-11
1.45898e-11
4.57475e-12
1.40088e-12
4.1895e-13
1.22369e-13
3.49596e-14
9.77824e-15
2.67743e-15
7.17694e-16
1.88294e-16
4.83495e-17
1.21452e-17
2.98421e-18
7.16589e-19
1.68136e-19
3.84863e-20
8.59251e-21
1.86757e-21
3.92266e-22
0.0118338
0.0127544
0.0618774
0.312031
0.660714
0.755984
0.760022
0.736566
0.65109
0.456036
0.241867
0.126647
0.0777735
0.0573247
0.0472941
0.041488
0.0352673
0.0306225
0.0318803
0.0404104
0.0672259
0.136545
0.29036
0.42692
0.50721
0.514828
0.459828
0.259162
0.151773
0.155194
0.363663
0.652864
0.775525
0.82492
0.841559
0.84498
0.835822
0.810361
0.741068
0.63195
0.585248
0.563032
0.552168
0.547204
0.545147
0.544783
0.546869
0.551926
0.55993
0.56958
0.58143
0.591266
0.598243
0.602522
0.607036
0.609088
0.610219
0.610808
0.611112
0.611825
0.613427
0.615476
0.616622
0.617452
0.618213
0.618493
0.61815
0.617021
0.616417
0.617269
0.621227
0.628631
0.641306
0.660681
0.684597
0.711148
0.723354
0.726118
0.725045
0.718858
0.706665
0.698294
0.698361
0.70926
0.721801
0.727207
0.735975
0.747164
0.758749
0.767628
0.77136
0.768312
0.760651
0.754453
0.753672
0.761033
0.778741
0.804047
0.828719
0.85179
0.870088
0.887545
0.908843
0.930794
0.951093
0.969806
0.984667
0.993328
0.997312
0.998976
0.999626
0.999865
0.999949
0.99998
0.999991
0.999996
0.999998
0.999999
0.999999
0.999999
0.999998
0.999995
0.999982
0.999928
0.999719
0.998928
0.99604
0.985806
0.950592
0.835545
0.649912
0.480158
0.34225
0.236248
0.158025
0.102441
0.0643565
0.0391839
0.0231272
0.0132386
0.00735428
0.00396775
0.00208065
0.00106131
0.000526964
0.000254854
0.000120116
5.51936e-05
2.47344e-05
1.08131e-05
4.61222e-06
1.91973e-06
7.79787e-07
3.09124e-07
1.19597e-07
4.51575e-08
1.66403e-08
5.98424e-09
2.10025e-09
7.19373e-10
2.40477e-10
7.84616e-11
2.49883e-11
7.76881e-12
2.35804e-12
6.98808e-13
2.02303e-13
5.72954e-14
1.58761e-14
4.30424e-15
1.14166e-15
2.96242e-16
7.518e-17
1.86567e-17
4.52469e-18
1.07207e-18
2.47927e-19
5.59319e-20
1.22992e-20
2.61921e-21
0.0157577
0.0151308
0.0953279
0.428918
0.716026
0.769125
0.761345
0.700089
0.562806
0.344519
0.162451
0.0887303
0.0633947
0.0527609
0.0481126
0.0461443
0.0392669
0.032576
0.0339986
0.0449451
0.0769285
0.158683
0.313174
0.434242
0.483674
0.437792
0.278214
0.193772
0.19145
0.375632
0.66265
0.784071
0.831672
0.847686
0.851039
0.840813
0.814597
0.745875
0.632976
0.584676
0.564439
0.556022
0.552411
0.551132
0.55526
0.561504
0.570456
0.575451
0.580886
0.584463
0.588048
0.589396
0.589688
0.585819
0.582072
0.576593
0.573253
0.571967
0.573057
0.576131
0.585316
0.594629
0.602812
0.609498
0.616737
0.620138
0.621756
0.622313
0.618279
0.616034
0.61411
0.612805
0.61202
0.611692
0.615742
0.62233
0.631599
0.637136
0.640166
0.643419
0.648346
0.656483
0.67356
0.700093
0.724189
0.748974
0.775796
0.798236
0.818215
0.835939
0.850777
0.858782
0.851765
0.822033
0.780844
0.758828
0.759399
0.777522
0.816405
0.859635
0.892379
0.916379
0.928964
0.936604
0.948785
0.963214
0.976176
0.986445
0.993431
0.99721
0.998923
0.999605
0.999861
0.999951
0.999982
0.999993
0.999997
0.999999
0.999999
1
1
1
0.999999
0.999996
0.999984
0.999936
0.999743
0.999013
0.996345
0.986898
0.954331
0.845711
0.65656
0.482901
0.341769
0.233244
0.153623
0.0977121
0.0600619
0.0357091
0.0205548
0.0114673
0.00620693
0.00326285
0.00166729
0.000828812
0.000401062
0.000189019
8.67993e-05
3.88495e-05
1.69518e-05
7.21251e-06
2.99261e-06
1.21099e-06
4.77944e-07
1.8398e-07
6.9076e-08
2.52959e-08
9.03546e-09
3.14806e-09
1.06992e-09
3.54745e-10
1.14757e-10
3.62241e-11
1.1159e-11
3.35522e-12
9.84853e-13
2.82559e-13
7.92716e-14
2.17483e-14
5.8349e-15
1.53086e-15
3.92708e-16
9.84844e-17
2.41367e-17
5.77893e-18
1.35095e-18
3.08182e-19
6.85872e-20
1.48113e-20
0.0182747
0.0170575
0.115812
0.478757
0.737092
0.772714
0.757897
0.6832
0.533438
0.307636
0.141581
0.0840953
0.0698166
0.0708291
0.0784674
0.0853807
0.0791583
0.070264
0.0709034
0.0952465
0.155744
0.266816
0.367758
0.414711
0.370301
0.271185
0.233261
0.236824
0.409869
0.678268
0.793813
0.839198
0.854629
0.858099
0.849014
0.826743
0.769558
0.649753
0.593672
0.571235
0.562573
0.559338
0.559096
0.562921
0.56783
0.570662
0.573653
0.574952
0.575589
0.570147
0.560117
0.539864
0.523555
0.508336
0.497458
0.492114
0.490257
0.491611
0.4969
0.507071
0.521129
0.532245
0.55288
0.575132
0.592411
0.612525
0.622555
0.629281
0.633741
0.635306
0.628504
0.622169
0.613206
0.606542
0.603238
0.602248
0.603714
0.607843
0.613987
0.623428
0.63666
0.649232
0.668767
0.69726
0.72767
0.758951
0.784647
0.805786
0.824306
0.842643
0.861728
0.880964
0.896974
0.905078
0.897791
0.848674
0.789851
0.772914
0.785548
0.824944
0.876941
0.919211
0.946372
0.962045
0.96603
0.967793
0.975173
0.984116
0.990816
0.995209
0.997758
0.999066
0.999646
0.999875
0.999957
0.999985
0.999995
0.999998
0.999999
1
1
1
1
1
0.999999
0.999995
0.99998
0.999919
0.999682
0.998792
0.995574
0.984246
0.94521
0.817605
0.620518
0.447843
0.310329
0.206758
0.132636
0.0820424
0.0490028
0.0283027
0.0158291
0.00858314
0.00451734
0.0023098
0.00114831
0.000555413
0.000261492
0.000119884
5.35371e-05
2.32938e-05
9.87624e-06
4.08093e-06
1.64353e-06
6.45167e-07
2.46864e-07
9.20766e-08
3.34786e-08
1.18669e-08
4.10108e-09
1.38195e-09
4.54133e-10
1.45557e-10
4.5511e-11
1.38837e-11
4.13314e-12
1.20166e-12
3.41438e-13
9.48262e-14
2.57432e-14
6.8317e-15
1.7722e-15
4.49334e-16
1.11331e-16
2.69485e-17
6.3708e-18
1.47025e-18
3.31251e-19
7.2538e-20
0.0194155
0.0189729
0.123382
0.494186
0.741891
0.773491
0.757409
0.681469
0.532113
0.306581
0.164236
0.113398
0.0951989
0.0911731
0.0972819
0.115548
0.12743
0.142142
0.164833
0.200628
0.250308
0.299091
0.328179
0.311626
0.276762
0.265992
0.292671
0.473279
0.704251
0.806044
0.847055
0.861243
0.864503
0.857665
0.840428
0.794891
0.687393
0.609454
0.579763
0.568544
0.564768
0.564315
0.564668
0.566511
0.568281
0.569067
0.567479
0.55926
0.53917
0.51504
0.495759
0.484095
0.468026
0.457429
0.446271
0.439733
0.437167
0.436975
0.442721
0.455792
0.468073
0.482815
0.498765
0.518796
0.540081
0.566793
0.600893
0.62436
0.638065
0.649724
0.655718
0.658121
0.653347
0.638997
0.621799
0.61154
0.608046
0.609023
0.614063
0.623753
0.640851
0.661322
0.683691
0.705536
0.729846
0.75444
0.772764
0.778988
0.778963
0.783369
0.797304
0.825372
0.865148
0.900096
0.921126
0.92609
0.912965
0.85983
0.822251
0.822236
0.85612
0.901866
0.940245
0.965479
0.97957
0.984959
0.985209
0.985951
0.990394
0.994657
0.997227
0.99865
0.999389
0.999747
0.999905
0.999967
0.999989
0.999996
0.999999
1
1
1
1
1
1
1
0.999998
0.999992
0.999967
0.999868
0.999487
0.998079
0.993016
0.975168
0.913222
0.73819
0.540454
0.378482
0.254031
0.16379
0.101663
0.0608626
0.0352062
0.0197083
0.0106912
0.00562662
0.0028755
0.00142808
0.000689646
0.000323997
0.000148135
6.59332e-05
2.85741e-05
1.20597e-05
4.95724e-06
1.98484e-06
7.74145e-07
2.9414e-07
1.08881e-07
3.92695e-08
1.38009e-08
4.72681e-09
1.578e-09
5.13575e-10
1.62985e-10
5.04462e-11
1.52314e-11
4.48854e-12
1.29198e-12
3.63313e-13
9.98268e-14
2.68038e-14
7.03318e-15
1.80343e-15
4.51874e-16
1.10617e-16
2.64526e-17
6.17753e-18
1.40921e-18
3.12896e-19
0.0198113
0.0195213
0.110102
0.455449
0.733404
0.775885
0.77281
0.725955
0.626001
0.431094
0.224301
0.145121
0.117385
0.11033
0.11116
0.128817
0.148444
0.166561
0.195636
0.220154
0.253585
0.27421
0.282516
0.288438
0.299899
0.361104
0.562079
0.739818
0.820856
0.854613
0.866576
0.869356
0.865087
0.852827
0.81917
0.734731
0.639339
0.59373
0.576009
0.568993
0.566354
0.565515
0.565328
0.565755
0.565148
0.560087
0.546378
0.518234
0.491744
0.470283
0.447929
0.422019
0.392604
0.361873
0.341252
0.327428
0.321945
0.321605
0.337795
0.363702
0.400974
0.434217
0.466348
0.484265
0.503043
0.522026
0.539004
0.574298
0.613179
0.640285
0.656947
0.66555
0.670127
0.674202
0.675265
0.662911
0.649076
0.645118
0.644694
0.650111
0.667697
0.682129
0.694387
0.707141
0.72092
0.732502
0.733296
0.728015
0.719616
0.706591
0.69368
0.691417
0.715375
0.784884
0.869481
0.919744
0.939198
0.944029
0.936379
0.912167
0.898363
0.904505
0.93552
0.962449
0.979995
0.98956
0.993657
0.994688
0.994645
0.995282
0.997244
0.998581
0.999311
0.999683
0.999862
0.999944
0.999979
0.999993
0.999998
0.999999
1
1
1
1
1
1
1
0.999999
0.999996
0.999983
0.99993
0.999724
0.998944
0.996068
0.985673
0.948704
0.821268
0.609758
0.429466
0.289248
0.186855
0.116085
0.0695145
0.040203
0.0224926
0.0121901
0.00640679
0.00326832
0.00161945
0.00077985
0.000365135
0.000166282
7.36726e-05
3.17633e-05
1.33282e-05
5.4437e-06
2.1644e-06
8.37794e-07
3.15744e-07
1.15872e-07
4.14121e-08
1.44161e-08
4.88907e-09
1.61568e-09
5.204e-10
1.63411e-10
5.00377e-11
1.49468e-11
4.3587e-12
1.24119e-12
3.45216e-13
9.37961e-14
2.48989e-14
6.45797e-15
1.63666e-15
4.05256e-16
9.80457e-17
2.31728e-17
5.35238e-18
1.2048e-18
0.0199008
0.0163593
0.0745256
0.359142
0.704663
0.776892
0.779785
0.745971
0.671418
0.551505
0.345216
0.217257
0.165166
0.144181
0.138701
0.141494
0.163764
0.181432
0.206386
0.230008
0.258012
0.280378
0.307941
0.359613
0.489874
0.661284
0.778289
0.835951
0.86083
0.869819
0.871859
0.869845
0.861625
0.837573
0.775807
0.690561
0.622203
0.589847
0.576217
0.569717
0.566901
0.565418
0.564318
0.561569
0.55217
0.526066
0.489492
0.457431
0.428246
0.396361
0.359225
0.31298
0.272297
0.237411
0.211029
0.197838
0.192726
0.194155
0.206004
0.225866
0.261484
0.329459
0.396685
0.453281
0.487317
0.508956
0.520344
0.530399
0.548245
0.584741
0.626304
0.652946
0.666537
0.676722
0.688505
0.702589
0.710409
0.709331
0.707385
0.70493
0.697912
0.694922
0.697558
0.702188
0.708015
0.712704
0.715701
0.7156
0.711874
0.69905
0.678581
0.659733
0.648846
0.652047
0.696813
0.812178
0.905865
0.947122
0.963765
0.971888
0.972916
0.967027
0.961026
0.965546
0.980248
0.990379
0.9955
0.997609
0.998351
0.998545
0.998651
0.999007
0.999419
0.999696
0.999855
0.999936
0.999973
0.99999
0.999996
0.999999
1
1
1
1
1
1
1
1
0.999999
0.999998
0.999989
0.999955
0.999817
0.999282
0.997257
0.989744
0.962374
0.864177
0.650672
0.459327
0.309356
0.199662
0.12387
0.0740535
0.0427475
0.0238652
0.0129025
0.00676209
0.00343833
0.0016973
0.000813853
0.000379221
0.000171768
7.56497e-05
3.24022e-05
1.34992e-05
5.471e-06
2.15723e-06
8.27658e-07
3.09021e-07
1.12299e-07
3.97283e-08
1.36853e-08
4.59141e-09
1.5007e-09
4.77997e-10
1.48411e-10
4.49331e-11
1.32739e-11
3.82758e-12
1.0776e-12
2.96281e-13
7.95702e-14
2.08763e-14
5.35156e-15
1.34042e-15
3.28097e-16
7.84781e-17
1.83523e-17
4.1869e-18
0.0200791
0.0148798
0.0393177
0.223535
0.636733
0.775563
0.790205
0.782306
0.746573
0.675033
0.537716
0.351058
0.264874
0.217007
0.196115
0.189831
0.195129
0.218208
0.239327
0.271864
0.313427
0.373527
0.479829
0.610014
0.740875
0.810523
0.846687
0.863609
0.86994
0.871616
0.87129
0.865512
0.847022
0.79832
0.727077
0.665492
0.618084
0.590697
0.577541
0.571184
0.566981
0.56423
0.559471
0.549531
0.526843
0.496384
0.457107
0.421129
0.382751
0.335388
0.285198
0.236099
0.197992
0.171931
0.156674
0.149145
0.146443
0.149981
0.160845
0.177175
0.197294
0.235059
0.303654
0.390449
0.464256
0.502715
0.520523
0.526498
0.532239
0.54047
0.559558
0.598445
0.636846
0.662474
0.685379
0.709981
0.73781
0.758998
0.770654
0.773171
0.768964
0.757434
0.742246
0.727991
0.720098
0.718998
0.721742
0.724662
0.725931
0.723971
0.711188
0.684268
0.654048
0.635353
0.633654
0.656035
0.760719
0.889744
0.950808
0.975443
0.985918
0.990566
0.991306
0.990127
0.989497
0.99232
0.996426
0.998451
0.999263
0.999574
0.999699
0.999759
0.999804
0.999852
0.999905
0.999947
0.999975
0.999989
0.999996
0.999998
0.999999
1
1
1
1
1
1
1
1
1
0.999998
0.999992
0.999965
0.999854
0.999413
0.997698
0.991175
0.9669
0.878333
0.665634
0.468481
0.314536
0.20232
0.125087
0.0745199
0.042862
0.0238382
0.012835
0.00669656
0.00338826
0.00166356
0.000792967
0.000367113
0.000165124
7.21755e-05
3.06637e-05
1.26643e-05
5.08537e-06
1.98568e-06
7.54075e-07
2.78559e-07
1.00118e-07
3.50193e-08
1.19242e-08
3.95375e-09
1.277e-09
4.01902e-10
1.23297e-10
3.6891e-11
1.07697e-11
3.06869e-12
8.5367e-13
2.3192e-13
6.1544e-14
1.59565e-14
4.04244e-15
1.00097e-15
2.42271e-16
5.73492e-17
1.32562e-17
0.0202938
0.0144233
0.0219901
0.101756
0.476119
0.749542
0.792521
0.794653
0.779201
0.746867
0.68786
0.581353
0.457587
0.389978
0.350402
0.330582
0.324455
0.341364
0.379586
0.441415
0.52955
0.627864
0.710091
0.777399
0.822442
0.848166
0.859726
0.865815
0.86834
0.867729
0.862117
0.845789
0.803997
0.745937
0.692367
0.648774
0.616903
0.593843
0.580352
0.573362
0.567338
0.562387
0.55429
0.535215
0.50048
0.456892
0.414558
0.368634
0.323306
0.274502
0.224377
0.183272
0.153974
0.137157
0.128907
0.125613
0.127439
0.130368
0.140233
0.159381
0.177573
0.203174
0.257467
0.350377
0.437341
0.496213
0.528532
0.539296
0.537585
0.537881
0.542556
0.552332
0.574149
0.613065
0.659966
0.703597
0.743608
0.776743
0.799407
0.813125
0.821303
0.826773
0.83053
0.830263
0.820912
0.806632
0.797665
0.797457
0.803043
0.806929
0.807268
0.799789
0.757537
0.678834
0.63615
0.631327
0.650587
0.748394
0.887562
0.954567
0.982183
0.992372
0.9962
0.997592
0.997928
0.998117
0.998605
0.999246
0.999647
0.999832
0.999908
0.99994
0.999955
0.999965
0.999973
0.99998
0.999987
0.999993
0.999997
0.999999
0.999999
1
1
1
1
1
1
1
1
1
1
0.999998
0.999993
0.999968
0.999864
0.999438
0.997739
0.991143
0.966195
0.874104
0.65744
0.460175
0.307218
0.196535
0.120865
0.0716246
0.040975
0.0226609
0.0121288
0.00628812
0.00316012
0.00154035
0.000728582
0.000334534
0.000149154
6.45902e-05
2.71716e-05
1.1106e-05
4.41132e-06
1.70305e-06
6.39191e-07
2.33284e-07
8.28157e-08
2.86058e-08
9.61742e-09
3.14837e-09
1.00392e-09
3.11941e-10
9.44941e-11
2.79187e-11
8.04851e-12
2.26473e-12
6.22223e-13
1.66966e-13
4.37719e-14
1.12135e-14
2.80816e-15
6.87558e-16
1.64693e-16
3.85535e-17
0.0202934
0.0151589
0.0147577
0.0418983
0.234358
0.666918
0.787877
0.801498
0.800693
0.787896
0.762246
0.707598
0.627958
0.573679
0.548182
0.537284
0.536089
0.563764
0.599001
0.638676
0.709862
0.751944
0.794564
0.815845
0.835928
0.848125
0.853702
0.855282
0.850678
0.839626
0.819773
0.786459
0.746998
0.708724
0.671705
0.640149
0.617822
0.600823
0.586461
0.576539
0.568751
0.559564
0.545872
0.522748
0.489035
0.444399
0.399589
0.351633
0.302536
0.256327
0.212113
0.17713
0.151033
0.134805
0.125328
0.121656
0.121596
0.124402
0.132697
0.153379
0.173905
0.195728
0.239926
0.332754
0.427551
0.493585
0.529629
0.545433
0.554449
0.554074
0.550009
0.550106
0.556093
0.571499
0.603033
0.657727
0.716411
0.762725
0.790741
0.805612
0.815081
0.825175
0.838342
0.855761
0.874893
0.893344
0.909948
0.923078
0.936155
0.944321
0.946448
0.944697
0.930822
0.852022
0.706978
0.645896
0.642328
0.675908
0.796222
0.908307
0.964584
0.987878
0.995887
0.998433
0.999307
0.999616
0.999749
0.999838
0.999904
0.999947
0.999971
0.999983
0.999989
0.999992
0.999994
0.999996
0.999997
0.999998
0.999999
0.999999
1
1
1
1
1
1
1
1
1
1
1
1
0.999998
0.999993
0.999967
0.999858
0.999399
0.997527
0.990138
0.961862
0.856656
0.634251
0.440573
0.291931
0.185428
0.113242
0.0666387
0.0378494
0.020776
0.0110327
0.00567258
0.00282594
0.00136481
0.000639297
0.000290545
0.000128152
5.48711e-05
2.28116e-05
9.2098e-06
3.61181e-06
1.37622e-06
5.09635e-07
1.83478e-07
6.42417e-08
2.1884e-08
7.25588e-09
2.34257e-09
7.3676e-10
2.25833e-10
6.74951e-11
1.96776e-11
5.5984e-12
1.55496e-12
4.2178e-13
1.11771e-13
2.89452e-14
7.32842e-15
1.81446e-15
4.39614e-16
1.04168e-16
0.0197713
0.0153587
0.0129371
0.0182991
0.0864035
0.419762
0.75145
0.804466
0.808641
0.806961
0.801297
0.78641
0.747334
0.690775
0.66552
0.655703
0.653801
0.669822
0.706056
0.728755
0.763757
0.784505
0.801057
0.814888
0.822919
0.823529
0.814423
0.798538
0.776877
0.752312
0.732285
0.715301
0.695854
0.676233
0.655666
0.635506
0.618306
0.605808
0.594028
0.582248
0.572146
0.560701
0.546413
0.523618
0.491936
0.44901
0.404675
0.357722
0.308724
0.263276
0.220246
0.185739
0.159391
0.142562
0.131316
0.127994
0.129028
0.133109
0.142643
0.165849
0.193412
0.21464
0.249498
0.33479
0.441851
0.507825
0.533891
0.546057
0.559847
0.572535
0.576514
0.575025
0.57392
0.57702
0.589993
0.622481
0.665737
0.705643
0.730287
0.738642
0.740117
0.742264
0.754406
0.786923
0.838633