/*--------------------------------*- C++ -*----------------------------------*\
  =========                 |
  \\      /  F ield         | OpenFOAM: The Open Source CFD Toolbox
   \\    /   O peration     | Website:  https://openfoam.org
    \\  /    A nd           | Version:  7
     \\/     M anipulation  |
\*---------------------------------------------------------------------------*/
FoamFile
{
    version     2.0;
    format      ascii;
    class       volVectorField;
    location    "0.054";
    object      U_0;
}
// * * * * * * * * * * * * * * * * * * * * * * * * * * * * * * * * * * * * * //

dimensions      [0 1 -1 0 0 0 0];

internalField   nonuniform List<vector> 
12225
(
(4.7541 0.19012 0)
(4.04537 0.121543 0)
(3.5693 0.0926507 0)
(3.22919 0.0786287 0)
(2.90902 0.0677277 0)
(2.60077 0.0596941 0)
(2.28939 0.0582792 0)
(1.96746 0.0560555 0)
(1.6584 0.0458474 0)
(1.39056 0.0314098 0)
(1.16854 0.0201287 0)
(0.985488 0.0146613 0)
(0.829002 0.0121586 0)
(0.698155 0.0100199 0)
(0.577622 0.00673665 0)
(0.484891 0.00451431 0)
(0.373709 0.00220764 0)
(0.297848 -0.00746394 0)
(5.06253 0.0850267 0)
(4.90716 0.088762 0)
(4.71762 0.0956802 0)
(4.58379 0.0838927 0)
(4.47843 0.0847692 0)
(4.36666 0.0925573 0)
(4.23249 0.101911 0)
(4.08537 0.11058 0)
(3.93955 0.114495 0)
(3.79825 0.111098 0)
(3.64802 0.103128 0)
(3.48933 0.0945155 0)
(3.32108 0.0862104 0)
(3.16479 0.0792401 0)
(3.01001 0.0749607 0)
(2.87046 0.0717742 0)
(2.70994 0.0757241 0)
(2.56365 0.0749905 0)
(5.03971 0.18612 0)
(4.93119 0.143959 0)
(4.82327 0.149581 0)
(4.76239 0.135592 0)
(4.72632 0.125 0)
(4.6875 0.123734 0)
(4.63703 0.130502 0)
(4.58596 0.137658 0)
(4.54467 0.137281 0)
(4.5119 0.130628 0)
(4.47767 0.125092 0)
(4.43578 0.123381 0)
(4.38361 0.122958 0)
(4.32238 0.12076 0)
(4.25525 0.118466 0)
(4.17954 0.119522 0)
(4.1015 0.127415 0)
(4.00538 0.138315 0)
(4.99704 0.153472 0)
(4.93909 0.141923 0)
(4.85211 0.144943 0)
(4.78296 0.125282 0)
(4.731 0.1174 0)
(4.69555 0.125253 0)
(4.67213 0.137246 0)
(4.65964 0.142821 0)
(4.65567 0.138168 0)
(4.65319 0.129609 0)
(4.6476 0.124931 0)
(4.63661 0.1258 0)
(4.62182 0.129161 0)
(4.60059 0.130861 0)
(4.577 0.132672 0)
(4.54769 0.136902 0)
(4.5233 0.147715 0)
(4.49383 0.164599 0)
(4.99585 0.228999 0)
(4.95293 0.155389 0)
(4.90792 0.158472 0)
(4.84528 0.159587 0)
(4.76772 0.148628 0)
(4.7135 0.137558 0)
(4.69394 0.133948 0)
(4.69593 0.135333 0)
(4.70117 0.135391 0)
(4.69711 0.13316 0)
(4.68337 0.131709 0)
(4.66562 0.132538 0)
(4.6502 0.135006 0)
(4.63749 0.13688 0)
(4.6276 0.13912 0)
(4.61807 0.143913 0)
(4.61259 0.153808 0)
(4.60904 0.169695 0)
(5.00606 0.206933 0)
(5.02316 0.175607 0)
(4.95622 0.175932 0)
(4.87007 0.176664 0)
(4.79694 0.169751 0)
(4.75251 0.156726 0)
(4.73104 0.146263 0)
(4.72173 0.14199 0)
(4.71648 0.14055 0)
(4.71052 0.139596 0)
(4.70469 0.139722 0)
(4.70166 0.140968 0)
(4.70277 0.142571 0)
(4.70537 0.143347 0)
(4.70632 0.144257 0)
(4.70328 0.147922 0)
(4.69813 0.155913 0)
(4.69242 0.169333 0)
(4.88708 0.208206 0)
(4.9408 0.155783 0)
(4.91672 0.184151 0)
(4.87512 0.200874 0)
(4.8493 0.187348 0)
(4.83478 0.162039 0)
(4.81666 0.145143 0)
(4.78986 0.140427 0)
(4.75945 0.140038 0)
(4.73295 0.13798 0)
(4.71599 0.134457 0)
(4.70916 0.131774 0)
(4.70943 0.131641 0)
(4.71123 0.134358 0)
(4.71115 0.139694 0)
(4.7077 0.148283 0)
(4.70345 0.159453 0)
(4.70051 0.173196 0)
(5.01809 0.231457 0)
(4.95065 0.176916 0)
(4.90932 0.192983 0)
(4.89787 0.198794 0)
(4.89767 0.186135 0)
(4.89356 0.169109 0)
(4.87539 0.160413 0)
(4.8461 0.160596 0)
(4.81563 0.161804 0)
(4.79105 0.158564 0)
(4.77412 0.151999 0)
(4.76297 0.145773 0)
(4.75565 0.142601 0)
(4.74985 0.143173 0)
(4.74596 0.146671 0)
(4.74272 0.153025 0)
(4.7434 0.161045 0)
(4.74531 0.170942 0)
(4.96284 0.252087 0)
(4.88066 0.189126 0)
(4.85058 0.192931 0)
(4.85733 0.200559 0)
(4.86191 0.190876 0)
(4.85351 0.177202 0)
(4.84126 0.171465 0)
(4.8357 0.171073 0)
(4.83818 0.16789 0)
(4.84283 0.15888 0)
(4.84345 0.147978 0)
(4.83779 0.140148 0)
(4.82823 0.137615 0)
(4.8182 0.139488 0)
(4.81194 0.143947 0)
(4.80982 0.150079 0)
(4.81387 0.157136 0)
(4.82043 0.165507 0)
(4.91591 0.319775 0)
(4.91356 0.21491 0)
(4.93134 0.193031 0)
(4.92404 0.191204 0)
(4.89888 0.185551 0)
(4.8814 0.174273 0)
(4.88602 0.162479 0)
(4.90655 0.155428 0)
(4.92636 0.153803 0)
(4.9311 0.154926 0)
(4.91599 0.15638 0)
(4.88575 0.156749 0)
(4.85052 0.155872 0)
(4.81986 0.154047 0)
(4.80058 0.152361 0)
(4.7939 0.152229 0)
(4.79935 0.154217 0)
(4.81279 0.159879 0)
(5.0307 0.338538 0)
(4.98812 0.196529 0)
(4.93061 0.187748 0)
(4.90447 0.211985 0)
(4.9037 0.210532 0)
(4.90877 0.188571 0)
(4.90656 0.167038 0)
(4.89669 0.157133 0)
(4.88571 0.158083 0)
(4.87841 0.164575 0)
(4.87483 0.171927 0)
(4.87253 0.176448 0)
(4.86979 0.176014 0)
(4.86666 0.170004 0)
(4.86428 0.160192 0)
(4.86415 0.149922 0)
(4.86688 0.141853 0)
(4.87274 0.139897 0)
(5.05105 0.344723 0)
(4.99615 0.2533 0)
(4.90065 0.2192 0)
(4.83682 0.19898 0)
(4.82038 0.182126 0)
(4.82743 0.17044 0)
(4.8385 0.164534 0)
(4.84936 0.162371 0)
(4.86139 0.161813 0)
(4.87511 0.162044 0)
(4.88887 0.162844 0)
(4.89964 0.163398 0)
(4.90479 0.16264 0)
(4.90394 0.159971 0)
(4.89743 0.155834 0)
(4.88849 0.151847 0)
(4.87799 0.149209 0)
(4.86992 0.150056 0)
(5.02737 0.316141 0)
(5.06325 0.257999 0)
(4.99735 0.261837 0)
(4.9255 0.245062 0)
(4.89237 0.211947 0)
(4.88382 0.181263 0)
(4.88006 0.160276 0)
(4.87598 0.148459 0)
(4.8739 0.14424 0)
(4.87533 0.14698 0)
(4.87913 0.155016 0)
(4.88244 0.164739 0)
(4.88362 0.171849 0)
(4.88259 0.173621 0)
(4.88056 0.169444 0)
(4.87793 0.161907 0)
(4.87568 0.153621 0)
(4.87219 0.148768 0)
(4.97219 0.25223 0)
(4.97739 0.259114 0)
(4.97503 0.283102 0)
(4.98111 0.247143 0)
(4.99066 0.201205 0)
(4.99119 0.176517 0)
(4.9818 0.17 0)
(4.96688 0.168706 0)
(4.95041 0.166028 0)
(4.93565 0.162666 0)
(4.92493 0.16094 0)
(4.91835 0.161137 0)
(4.9156 0.161593 0)
(4.91525 0.160806 0)
(4.91685 0.158696 0)
(4.91792 0.156723 0)
(4.91892 0.156617 0)
(4.91667 0.160208 0)
(5.04551 0.257247 0)
(4.965 0.263749 0)
(4.96529 0.264198 0)
(4.96378 0.232988 0)
(4.94092 0.202765 0)
(4.91117 0.186052 0)
(4.8965 0.176648 0)
(4.90347 0.169227 0)
(4.92591 0.164346 0)
(4.95412 0.16406 0)
(4.97929 0.168063 0)
(4.99487 0.173304 0)
(4.99881 0.175865 0)
(4.99271 0.173499 0)
(4.98091 0.166321 0)
(4.96722 0.157491 0)
(4.9554 0.149686 0)
(4.94679 0.146973 0)
(5.03402 0.358677 0)
(5.03909 0.313958 0)
(5.03978 0.280923 0)
(5.02993 0.261798 0)
(5.0161 0.242604 0)
(5.00038 0.213596 0)
(4.98711 0.176795 0)
(4.97673 0.140867 0)
(4.97036 0.115608 0)
(4.97121 0.107792 0)
(4.98036 0.117757 0)
(4.99469 0.139548 0)
(5.00922 0.164028 0)
(5.01986 0.183513 0)
(5.02474 0.193989 0)
(5.02308 0.196075 0)
(5.01688 0.192718 0)
(5.00623 0.187966 0)
(4.9871 0.306545 0)
(4.98629 0.276441 0)
(4.98096 0.27074 0)
(4.9741 0.250119 0)
(4.97324 0.225946 0)
(4.9746 0.212602 0)
(4.97592 0.205969 0)
(4.97105 0.196415 0)
(4.95875 0.17985 0)
(4.94594 0.160105 0)
(4.94102 0.14417 0)
(4.94767 0.136438 0)
(4.9648 0.136676 0)
(4.98783 0.141895 0)
(5.01216 0.148721 0)
(5.03283 0.155116 0)
(5.04892 0.160402 0)
(5.05822 0.164884 0)
(5.00393 0.321644 0)
(4.97013 0.312774 0)
(4.97469 0.290625 0)
(4.98059 0.270049 0)
(4.98464 0.237917 0)
(4.98728 0.201508 0)
(4.99688 0.171216 0)
(5.0154 0.151418 0)
(5.03785 0.138532 0)
(5.06009 0.126856 0)
(5.08015 0.115135 0)
(5.09658 0.10687 0)
(5.10897 0.105819 0)
(5.11762 0.113081 0)
(5.12327 0.126576 0)
(5.12591 0.142745 0)
(5.12627 0.158636 0)
(5.12409 0.171627 0)
(4.91781 0.269044 0)
(4.89091 0.266059 0)
(4.90682 0.246269 0)
(4.93116 0.234165 0)
(4.96132 0.222579 0)
(4.98476 0.203829 0)
(4.99999 0.174479 0)
(5.01521 0.138045 0)
(5.03167 0.103824 0)
(5.04624 0.0805256 0)
(5.05765 0.0715344 0)
(5.06636 0.0753639 0)
(5.07357 0.0878689 0)
(5.08052 0.104569 0)
(5.08899 0.121879 0)
(5.09934 0.137635 0)
(5.11181 0.150784 0)
(5.12512 0.16112 0)
(4.92872 0.271094 0)
(4.90337 0.267612 0)
(4.91266 0.230302 0)
(4.92285 0.190927 0)
(4.95813 0.161436 0)
(5.00084 0.135957 0)
(5.03534 0.115138 0)
(5.05882 0.100281 0)
(5.0728 0.0906782 0)
(5.08041 0.0852884 0)
(5.08615 0.0831979 0)
(5.09354 0.0836488 0)
(5.104 0.0863297 0)
(5.11691 0.0908081 0)
(5.13155 0.0964118 0)
(5.14657 0.103026 0)
(5.16171 0.109995 0)
(5.17567 0.118427 0)
(4.99742 0.276332 0)
(4.98837 0.269727 0)
(4.99248 0.224145 0)
(4.99552 0.182766 0)
(5.00631 0.140969 0)
(5.02197 0.106415 0)
(5.03638 0.0845959 0)
(5.04693 0.0720057 0)
(5.05452 0.0620785 0)
(5.06161 0.0519031 0)
(5.07124 0.0428892 0)
(5.0857 0.0376579 0)
(5.10505 0.0375117 0)
(5.12768 0.0421979 0)
(5.15106 0.05031 0)
(5.17327 0.0604432 0)
(5.19296 0.0710846 0)
(5.20957 0.0817513 0)
(4.89378 0.283232 0)
(4.93961 0.237641 0)
(4.97409 0.1855 0)
(5.00041 0.154522 0)
(5.01879 0.127531 0)
(5.04286 0.104735 0)
(5.07788 0.0911381 0)
(5.11676 0.0858798 0)
(5.14654 0.0818056 0)
(5.16078 0.0727406 0)
(5.16275 0.0583376 0)
(5.15956 0.0429583 0)
(5.15704 0.031766 0)
(5.15789 0.0281074 0)
(5.16249 0.0327268 0)
(5.16955 0.0439077 0)
(5.17799 0.0591725 0)
(5.18621 0.0755205 0)
(4.96856 0.298484 0)
(4.93524 0.209383 0)
(4.93728 0.182493 0)
(4.97845 0.162392 0)
(5.03965 0.109241 0)
(5.08239 0.0439911 0)
(5.09624 0.00146969 0)
(5.10046 -0.00680409 0)
(5.11209 0.00674002 0)
(5.13454 0.0239737 0)
(5.16307 0.033803 0)
(5.19088 0.034399 0)
(5.21365 0.029464 0)
(5.22994 0.024182 0)
(5.242 0.0224863 0)
(5.25243 0.0256986 0)
(5.26451 0.0330382 0)
(5.27896 0.0428567 0)
(4.95858 0.265852 0)
(4.96217 0.204636 0)
(5.01947 0.135862 0)
(5.11241 0.0811458 0)
(5.18295 0.0589128 0)
(5.21302 0.0625476 0)
(5.217 0.0720943 0)
(5.21969 0.069678 0)
(5.23211 0.0525806 0)
(5.25156 0.0295964 0)
(5.27133 0.0100139 0)
(5.28653 -0.00111054 0)
(5.29636 -0.0026842 0)
(5.30271 0.00322866 0)
(5.30868 0.0128803 0)
(5.31658 0.0230675 0)
(5.32824 0.0321647 0)
(5.34426 0.0392266 0)
(4.95257 0.216455 0)
(5.01434 0.15324 0)
(5.10596 0.0906678 0)
(5.15713 0.0511444 0)
(5.16239 0.030356 0)
(5.15652 0.0107307 0)
(5.16957 -0.00844161 0)
(5.2077 -0.0198898 0)
(5.25623 -0.0208523 0)
(5.2952 -0.0139645 0)
(5.31363 -0.00441851 0)
(5.31419 0.00310043 0)
(5.30718 0.00615483 0)
(5.30189 0.00494503 0)
(5.30446 0.00172303 0)
(5.31697 -0.00155545 0)
(5.33888 -0.00441278 0)
(5.36657 -0.00605725 0)
(4.98348 0.198507 0)
(5.05921 0.0977269 0)
(5.17213 0.0764683 0)
(5.25359 0.0721847 0)
(5.28109 0.0702804 0)
(5.29359 0.0589856 0)
(5.31684 0.0338474 0)
(5.34902 0.00653525 0)
(5.37892 -0.00911742 0)
(5.40127 -0.0105464 0)
(5.41679 -0.00265402 0)
(5.42755 0.00700438 0)
(5.43552 0.0115336 0)
(5.44312 0.00894956 0)
(5.45179 0.00108539 0)
(5.46092 -0.00773518 0)
(5.47085 -0.0152164 0)
(5.48144 -0.0191206 0)
(5.01604 0.114293 0)
(5.14151 0.021726 0)
(5.25353 -0.00252041 0)
(5.28726 -0.00147698 0)
(5.28797 -0.000432897 0)
(5.30497 -0.0172841 0)
(5.34005 -0.0413459 0)
(5.37521 -0.0574872 0)
(5.39808 -0.0568701 0)
(5.41011 -0.0428228 0)
(5.42038 -0.0251195 0)
(5.43548 -0.0120975 0)
(5.45724 -0.00700046 0)
(5.48351 -0.0086027 0)
(5.51083 -0.0144398 0)
(5.5359 -0.0215524 0)
(5.55713 -0.0277158 0)
(5.57353 -0.0322648 0)
(4.9346 0.126983 0)
(5.08515 0.0334938 0)
(5.20415 0.0486018 0)
(5.26368 0.0655969 0)
(5.32835 0.0562148 0)
(5.40624 0.0251875 0)
(5.46626 -0.00507435 0)
(5.49169 -0.0215968 0)
(5.4928 -0.0246833 0)
(5.49059 -0.0201087 0)
(5.5006 -0.0149946 0)
(5.52566 -0.013881 0)
(5.55951 -0.0174402 0)
(5.59381 -0.0242658 0)
(5.62223 -0.0312407 0)
(5.64215 -0.0365906 0)
(5.65381 -0.0391888 0)
(5.65962 -0.0391816 0)
(5.03014 0.0177853 0)
(5.21701 -0.0638661 0)
(5.29019 -0.0420814 0)
(5.32345 -0.0506891 0)
(5.37085 -0.065499 0)
(5.4174 -0.0763139 0)
(5.44293 -0.0777831 0)
(5.44938 -0.0693071 0)
(5.4513 -0.0580013 0)
(5.4599 -0.0500373 0)
(5.47662 -0.0473454 0)
(5.49539 -0.0483899 0)
(5.50809 -0.0503239 0)
(5.51076 -0.0509574 0)
(5.50344 -0.0495539 0)
(5.49068 -0.0469308 0)
(5.47545 -0.0442661 0)
(5.46329 -0.0435837 0)
(4.89986 0.067828 0)
(5.01578 0.00426517 0)
(4.99776 0.0234243 0)
(4.92976 0.0201129 0)
(4.84521 0.00652982 0)
(4.72799 -0.00853503 0)
(4.5875 -0.0195935 0)
(4.44886 -0.0255677 0)
(4.32474 -0.0287145 0)
(4.21418 -0.0300236 0)
(4.1128 -0.0292193 0)
(4.01812 -0.0265856 0)
(3.92908 -0.0233188 0)
(3.8467 -0.0208322 0)
(3.7706 -0.0199134 0)
(3.70084 -0.0204533 0)
(3.6345 -0.022036 0)
(3.5714 -0.0238666 0)
(-0.051674 0.0985811 -4.41859e-20)
(-0.107859 0.0390877 4.38708e-20)
(-0.0690072 -0.066572 0)
(0.0468518 -0.133493 0)
(0.207289 -0.170912 0)
(0.38134 -0.186123 -4.25245e-20)
(0.560637 -0.187147 0)
(0.738281 -0.180402 0)
(0.909049 -0.169739 0)
(1.07041 -0.157013 0)
(1.22093 -0.142897 4.09154e-20)
(1.35933 -0.127403 0)
(1.48385 -0.110366 0)
(1.59276 -0.091697 0)
(1.68346 -0.0712611 0)
(1.75432 -0.0492072 3.94069e-20)
(1.80219 -0.0255742 0)
(1.82705 -0.000342739 0)
(1.82601 0.0257663 0)
(1.79766 0.0530287 0)
(1.74265 0.0790739 0)
(1.66129 0.105184 0)
(1.5568 0.128639 0)
(1.42802 0.150913 3.69522e-20)
(1.2806 0.171948 -3.66448e-20)
(1.11293 0.18911 3.63405e-20)
(0.927263 0.207252 3.60405e-20)
(0.731952 0.214735 0)
(0.50831 0.230946 0)
(0.293341 0.176045 -3.51752e-20)
(0.143388 0.0207077 -3.48926e-20)
(0.0505595 -0.0799288 0)
(-0.00080292 -0.0957787 0)
(0.0569374 -0.0839529 -3.40001e-20)
(0.16263 -0.0652423 0)
(0.256902 -0.0543141 0)
(0.411646 -0.0357886 3.30665e-20)
(0.608875 -0.0894133 0)
(0.701155 -0.454746 3.24474e-20)
(0.714867 -0.6596 6.43244e-20)
(0.661365 -0.354589 0)
(0.301986 0.221124 0)
(-0.300581 0.521421 0)
(-0.876057 0.50908 0)
(-1.38755 0.439245 0)
(-1.83881 0.379628 6.09793e-20)
(-2.23773 0.329348 6.05205e-20)
(-2.59346 0.288362 6.00806e-20)
(-2.91368 0.255944 0)
(-3.20517 0.230407 -5.92233e-20)
(-3.47269 0.210239 0)
(-3.71944 0.193527 5.83626e-20)
(-3.94663 0.178431 5.79234e-20)
(-4.1539 0.163141 0)
(-4.33933 0.146195 0)
(-4.50004 0.126624 0)
(-4.63251 0.104184 5.60684e-20)
(-4.73371 0.0793932 0)
(-4.80211 0.0536296 0)
(-4.83795 0.0290703 0)
(-4.84237 0.00789118 0)
(-4.81981 -0.00917297 0)
(-4.77756 -0.0229383 0)
(-4.71729 -0.0332575 0)
(-4.64489 -0.0402733 0)
(-4.56396 -0.0448195 -5.12273e-20)
(-4.47774 -0.0471653 0)
(-4.38904 -0.0479876 0)
(-4.29935 -0.0478078 4.95192e-20)
(-4.20987 -0.0470432 4.89514e-20)
(-4.12096 -0.0460684 0)
(-4.03269 -0.0451102 -4.78221e-20)
(-3.9448 -0.044351 4.72614e-20)
(-3.85688 -0.0439028 0)
(-3.7683 -0.0438536 -4.61492e-20)
(-3.67828 -0.0442451 0)
(-3.58603 -0.0450681 0)
(-3.49088 -0.0462712 4.45047e-20)
(-3.39223 -0.0478044 0)
(-3.28949 -0.0496499 -4.34235e-20)
(-3.18207 -0.0518131 0)
(-3.06934 -0.0543071 4.23535e-20)
(-2.95057 -0.0571467 4.18225e-20)
(-2.82501 -0.0603175 4.12943e-20)
(-2.69198 -0.0637436 8.15381e-20)
(-2.551 -0.0673064 -8.04942e-20)
(-2.4018 -0.0708562 0)
(-2.2445 -0.0741909 0)
(-2.07962 -0.0770852 0)
(-1.90817 -0.0793484 -7.64117e-20)
(-1.73147 -0.0808366 -7.5423e-20)
(-1.5511 -0.0814706 7.44503e-20)
(-1.36872 -0.0812555 0)
(-1.1859 -0.0802635 -7.25571e-20)
(-1.00399 -0.0786234 -7.16375e-20)
(-0.824096 -0.0764681 -7.07356e-20)
(-0.647169 -0.0739274 0)
(-0.473988 -0.0710834 0)
(-0.305212 -0.0678036 0)
(-0.141673 -0.06426 -6.72953e-20)
(0.01497 -0.0604853 0)
(0.164049 -0.0560432 0)
(0.304989 -0.0511954 6.48161e-20)
(0.436393 -0.0459955 0)
(0.557408 -0.0405818 0)
(0.667482 -0.03512 6.24455e-20)
(0.766427 -0.029774 0)
(0.854399 -0.0246837 0)
(0.931845 -0.0199506 -6.0179e-20)
(0.999414 -0.0156347 -5.94411e-20)
(1.05788 -0.0117593 0)
(1.10804 -0.00831743 5.79865e-20)
(1.15071 -0.00528406 0)
(1.18663 -0.00262236 -5.65561e-20)
(1.21646 -0.000295558 0)
(1.24081 0.00173329 -5.51468e-20)
(1.26019 0.00349159 -5.44494e-20)
(1.27511 0.0049931 0)
(1.28597 0.00627238 0)
(1.29319 0.00731353 0)
(1.29725 0.00815483 0)
(1.29828 0.00889866 0)
(1.29671 0.00948553 0)
(1.29299 0.00985343 0)
(1.28754 0.0100288 -4.90292e-20)
(1.28072 0.0100601 4.83704e-20)
(1.27287 0.00998803 0)
(1.26427 0.0098426 0)
(1.25515 0.00964115 0)
(1.24572 0.00939029 0)
(1.23614 0.00908849 9.02709e-20)
(1.22659 0.00873451 0)
(1.21719 0.00832917 -8.77364e-20)
(1.20808 0.00787683 8.64803e-20)
(1.19936 0.0073869 0)
(1.19112 0.00687267 0)
(1.18341 0.00634785 0)
(1.17625 0.00582458 -8.15297e-20)
(1.16965 0.00531413 -8.03103e-20)
(1.16361 0.004823 0)
(1.1581 0.00436794 -7.78932e-20)
(1.15309 0.00395074 -7.66954e-20)
(1.14854 0.00356822 7.55049e-20)
(1.14441 0.00321716 0)
(1.14067 0.00289833 0)
(1.13727 0.00261437 7.19758e-20)
(1.13419 0.0023643 0)
(1.13139 0.00214096 0)
(1.12881 0.00193377 0)
(1.12643 0.00173528 0)
(1.12421 0.00154538 -6.6233e-20)
(1.12212 0.00136928 -6.51049e-20)
(1.12014 0.00121014 0)
(1.11825 0.00107558 -6.28686e-20)
(1.11642 0.000966207 0)
(1.11464 0.000882576 0)
(1.11286 0.000821197 -5.95632e-20)
(1.11106 0.000780746 0)
(1.1092 0.000762822 -5.73916e-20)
(1.10724 0.000766114 0)
(1.10512 0.000788514 0)
(1.10285 0.000826009 -5.4181e-20)
(1.1003 0.000881177 0)
(1.09755 0.000952 -5.2071e-20)
(1.09434 0.00104936 0)
(1.09087 0.00116854 0)
(1.08666 0.00133249 0)
(1.08214 0.00152567 4.79214e-20)
(1.07634 0.00179902 0)
(1.0702 0.002105 -4.58808e-20)
(1.06188 0.00257175 0)
(1.05302 0.00304817 0)
(1.04074 0.0039043 0)
(1.02669 0.00460269 0)
(1.00883 0.00638607 0)
(0.982787 0.00715103 0)
(0.960353 0.0116261 0)
(0.899997 0.0111218 7.58997e-20)
(0.891214 0.0246541 0)
(0.719022 0.0153725 0)
(-0.0381903 0.224311 1.32594e-19)
(-0.0234484 0.011928 -1.31677e-19)
(0.082821 -0.268901 0)
(0.233817 -0.44483 8.63932e-20)
(0.399608 -0.530923 0)
(0.566502 -0.558478 4.24798e-20)
(0.730953 -0.553093 -8.4363e-20)
(0.891478 -0.53134 -8.37169e-20)
(1.04721 -0.501735 0)
(1.1976 -0.467783 -8.24584e-20)
(1.34183 -0.430369 -4.0886e-20)
(1.47808 -0.388979 0)
(1.604 -0.342968 0)
(1.71642 -0.291649 0)
(1.81256 -0.234979 0)
(1.88921 -0.173498 -3.93872e-20)
(1.94459 -0.107792 0)
(1.97599 -0.0399966 7.76586e-20)
(1.98329 0.0295523 0)
(1.96827 0.0972321 0)
(1.93094 0.162947 -7.57917e-20)
(1.87464 0.223449 0)
(1.80048 0.277304 7.45244e-20)
(1.71273 0.328788 -3.69147e-20)
(1.61545 0.367625 3.66017e-20)
(1.50456 0.411533 -3.62912e-20)
(1.39611 0.438699 -3.59844e-20)
(1.27321 0.462465 0)
(1.16789 0.486768 0)
(1.0589 0.427199 3.50963e-20)
(0.923018 0.369677 -3.48144e-20)
(0.847648 0.302311 0)
(0.727366 0.098439 0)
(0.614344 -0.187251 3.39497e-20)
(0.702084 -0.313746 0)
(0.941423 -0.307826 0)
(0.876338 -0.598388 -3.30397e-20)
(0.654863 -0.397118 0)
(0.181616 0.297864 3.24974e-20)
(-0.624402 0.757241 -6.43266e-20)
(-1.2724 1.01411 0)
(-1.7564 1.17718 0)
(-2.16508 1.17964 -1.24924e-19)
(-2.51547 1.08081 -1.23828e-19)
(-2.83137 0.966003 -1.22824e-19)
(-3.1247 0.857505 6.11222e-20)
(-3.39235 0.760473 -6.03295e-20)
(-3.64034 0.678829 -1.80034e-19)
(-3.86878 0.610491 1.1927e-19)
(-4.08049 0.553054 5.90866e-20)
(-4.27525 0.503148 0)
(-4.45301 0.45726 -5.82524e-20)
(-4.61231 0.412229 5.80224e-20)
(-4.75143 0.365288 0)
(-4.86848 0.314643 0)
(-4.96193 0.259537 0)
(-5.03093 0.200482 -5.6017e-20)
(-5.07522 0.139057 0)
(-5.09531 0.0778734 1.10197e-19)
(-5.09285 0.0202289 0)
(-5.07076 -0.0310994 1.08082e-19)
(-5.03034 -0.074403 0)
(-4.97171 -0.10912 -1.05864e-19)
(-4.90101 -0.13508 0)
(-4.82026 -0.15278 1.03597e-19)
(-4.7332 -0.163632 -5.12488e-20)
(-4.64261 -0.169016 0)
(-4.5502 -0.17059 -1.00165e-19)
(-4.4575 -0.169784 -4.9499e-20)
(-4.36493 -0.167729 -4.89319e-20)
(-4.27272 -0.165286 0)
(-4.1806 -0.163057 -4.78206e-20)
(-4.08828 -0.161492 -4.72442e-20)
(-3.99532 -0.160901 0)
(-3.90117 -0.161482 4.61334e-20)
(-3.80511 -0.163314 -9.11801e-20)
(-3.70642 -0.166338 0)
(-3.60449 -0.170392 -4.44906e-20)
(-3.49883 -0.175327 0)
(-3.38897 -0.181103 1.3025e-19)
(-3.27435 -0.187769 0)
(-3.15439 -0.195392 -1.27045e-19)
(-3.02838 -0.204025 -4.18107e-20)
(-2.89553 -0.213637 4.13054e-20)
(-2.75506 -0.224025 8.15616e-20)
(-2.60642 -0.234848 -8.05182e-20)
(-2.4493 -0.245674 0)
(-2.28373 -0.255915 0)
(-2.11026 -0.264882 0)
(-1.9299 -0.271977 2.29214e-19)
(-1.74406 -0.276742 7.54041e-20)
(-1.55443 -0.278919 -7.44325e-20)
(-1.36277 -0.278526 0)
(-1.17072 -0.275799 -7.2568e-20)
(-0.979612 -0.271162 7.1624e-20)
(-0.790528 -0.265093 7.07237e-20)
(-0.604326 -0.257951 0)
(-0.421616 -0.249934 0)
(-0.242951 -0.241016 0)
(-0.0692991 -0.231098 6.72879e-20)
(0.0982473 -0.220346 0)
(0.259009 -0.207897 -1.31243e-19)
(0.412015 -0.194135 -1.944e-19)
(0.556031 -0.179265 1.27994e-19)
(0.690173 -0.163685 0)
(0.8139 -0.147877 6.24329e-20)
(0.927046 -0.132323 0)
(1.02981 -0.117432 1.21818e-19)
(1.12266 -0.103502 -6.01651e-20)
(1.2063 -0.0907053 -5.94268e-20)
(1.28153 -0.0791059 0)
(1.34919 -0.0686821 -1.73905e-19)
(1.41011 -0.059357 1.14501e-19)
(1.46508 -0.0510247 5.65356e-20)
(1.5148 -0.0435723 0)
(1.55986 -0.0368917 5.5125e-20)
(1.60076 -0.03089 1.63283e-19)
(1.63791 -0.0254952 0)
(1.67162 -0.0206398 1.06091e-19)
(1.70218 -0.0162952 1.04722e-19)
(1.72972 -0.0124293 1.03361e-19)
(1.75465 -0.00898022 0)
(1.77719 -0.00597969 0)
(1.7975 -0.0034678 0)
(1.81577 -0.00142414 -4.90017e-20)
(1.83225 0.000202706 -4.83411e-20)
(1.84717 0.00146125 0)
(1.86082 0.00239645 -9.40696e-20)
(1.87345 0.00306276 -9.27745e-20)
(1.88534 0.00350361 0)
(1.89673 0.00375068 -9.02072e-20)
(1.9078 0.00383076 -1.77872e-19)
(1.91872 0.00377378 8.76714e-20)
(1.92957 0.0036111 8.64155e-20)
(1.94043 0.00337219 0)
(1.9513 0.00308242 0)
(1.96218 0.00276326 0)
(1.97303 0.00243304 8.14634e-20)
(1.9838 0.00210725 -8.02442e-20)
(1.99448 0.0018082 -1.58064e-19)
(2.00501 0.00152537 7.78273e-20)
(2.01537 0.00126243 -7.66299e-20)
(2.02552 0.00102457 -7.54397e-20)
(2.03544 0.000813817 0)
(2.04511 0.000626712 0)
(2.0545 0.000458028 7.19122e-20)
(2.06361 0.000308075 0)
(2.07242 0.000184589 0)
(2.08093 9.78321e-05 -1.36896e-19)
(2.0891 5.23053e-05 0)
(2.09688 4.13793e-05 -6.61734e-20)
(2.10424 5.10927e-05 6.50462e-20)
(2.11116 7.64073e-05 0)
(2.11765 0.000103729 -6.28118e-20)
(2.12368 0.000135629 0)
(2.12925 0.000179112 0)
(2.13435 0.000237375 5.95095e-20)
(2.13898 0.000309894 -1.16843e-19)
(2.14312 0.000398058 5.734e-20)
(2.14677 0.000502766 0)
(2.14989 0.000631969 0)
(2.15252 0.000787012 -5.41327e-20)
(2.15458 0.000976801 0)
(2.15614 0.00119635 -5.20249e-20)
(2.15708 0.00147131 0)
(2.1575 0.00177927 0)
(2.15717 0.0021909 0)
(2.15629 0.00262882 -4.78796e-20)
(2.15441 0.00328948 0)
(2.15187 0.00391922 4.58411e-20)
(2.148 0.00506818 0)
(2.14298 0.00595044 0)
(2.13645 0.00812432 -8.56508e-20)
(2.12698 0.00923051 8.36628e-20)
(2.11731 0.0137237 0)
(2.09816 0.0146663 0)
(2.08692 0.024811 0)
(2.04323 0.0240295 -2.27504e-19)
(2.04085 0.0485261 0)
(1.9301 0.0420176 1.44072e-19)
(-0.0235532 0.230491 6.71071e-23)
(0.0837852 -0.201202 1.75584e-19)
(0.24789 -0.587915 0)
(0.411144 -0.791112 -1.72691e-19)
(0.563175 -0.865429 0)
(0.70647 -0.872354 0)
(0.84663 -0.850017 -1.01697e-22)
(0.987597 -0.816878 8.36531e-20)
(1.13107 -0.7793 8.31317e-20)
(1.27658 -0.737505 8.24005e-20)
(1.42178 -0.689327 0)
(1.56305 -0.632173 0)
(1.69615 -0.563865 -8.07104e-20)
(1.81634 -0.483432 -1.60244e-19)
(1.9191 -0.39094 1.59074e-19)
(2.00013 -0.287992 0)
(2.05612 -0.177212 1.56727e-19)
(2.08448 -0.0618884 -7.76324e-20)
(2.08388 0.0529949 0)
(2.055 0.164808 1.53051e-19)
(1.99898 0.266404 7.57663e-20)
(1.92042 0.357359 -1.50491e-19)
(1.82439 0.433848 -7.45017e-20)
(1.71858 0.492546 0)
(1.60679 0.548431 1.46643e-19)
(1.50328 0.575786 1.45371e-19)
(1.39884 0.611795 0)
(1.29864 0.622052 1.42855e-19)
(1.21598 0.58694 0)
(1.10665 0.636089 1.40381e-19)
(1.05326 0.466202 6.95958e-20)
(0.933305 0.231378 0)
(0.848289 0.338736 0)
(0.929847 0.010428 0)
(0.755133 -0.653121 0)
(0.477441 -0.307577 0)
(-0.213582 0.563839 0)
(-0.928746 1.03374 1.30947e-19)
(-1.48218 1.37506 -1.94313e-19)
(-1.99095 1.54669 0)
(-2.36636 1.63988 0)
(-2.65537 1.65131 0)
(-2.87385 1.57969 -3.97542e-22)
(-3.06141 1.45954 1.23607e-19)
(-3.23826 1.3243 2.45761e-19)
(-3.41398 1.19496 -2.43944e-19)
(-3.58826 1.07866 -1.21307e-19)
(-3.76267 0.978395 1.20037e-19)
(-3.93375 0.891538 3.63726e-22)
(-4.09979 0.814655 1.18707e-19)
(-4.25725 0.743498 0)
(-4.40318 0.673905 1.16982e-19)
(-4.53445 0.602425 2.72832e-22)
(-4.64827 0.52646 0)
(-4.74258 0.444811 0)
(-4.81599 0.357721 -1.13376e-19)
(-4.868 0.266969 0)
(-4.89844 0.175394 0)
(-4.90777 0.0861039 1.10585e-19)
(-4.89793 0.00194489 2.18718e-19)
(-4.87143 -0.0740533 -1.08116e-19)
(-4.82964 -0.138952 0)
(-4.77526 -0.190915 1.0589e-19)
(-4.71089 -0.229497 0)
(-4.63893 -0.255644 1.03779e-19)
(-4.56197 -0.270945 1.0247e-19)
(-4.482 -0.277938 -2.0276e-19)
(-4.40068 -0.279219 -1.00272e-19)
(-4.31893 -0.277168 0)
(-4.23705 -0.273652 1.95851e-19)
(-4.15481 -0.269924 0)
(-4.07167 -0.266841 2.86935e-19)
(-3.98706 -0.264964 1.89058e-19)
(-3.90048 -0.264678 1.86824e-19)
(-3.81147 -0.266233 -1.84606e-19)
(-3.71957 -0.269738 2.73581e-19)
(-3.62431 -0.275107 0)
(-3.52534 -0.282094 0)
(-3.42246 -0.290444 -1.75878e-19)
(-3.31534 -0.300081 -2.60561e-19)
(-3.20354 -0.311112 0)
(-3.08652 -0.323706 8.46953e-20)
(-2.96364 -0.338011 0)
(-2.83401 -0.354056 -2.47809e-19)
(-2.69669 -0.371564 7.73475e-23)
(-2.55096 -0.389937 -7.78194e-23)
(-2.39639 -0.408422 1.58967e-19)
(-2.2329 -0.426016 0)
(-2.06103 -0.441477 -1.54868e-19)
(-1.88182 -0.453692 6.48861e-23)
(-1.69683 -0.461806 0)
(-1.50792 -0.46533 0)
(-1.31704 -0.464307 0)
(-1.12591 -0.459228 1.45077e-19)
(-0.935886 -0.450915 0)
(-0.747972 -0.44032 0)
(-0.562861 -0.428175 0)
(-0.381043 -0.414809 0)
(-0.202897 -0.400294 0)
(-0.0295223 -0.384171 1.34585e-19)
(0.138076 -0.366229 0)
(0.299076 -0.345764 1.31205e-19)
(0.451967 -0.322969 1.29568e-19)
(0.595407 -0.298259 -1.27962e-19)
(0.728409 -0.272353 0)
(0.850449 -0.246117 -1.24833e-19)
(0.961477 -0.220399 0)
(1.06184 -0.195907 -1.21796e-19)
(1.15219 -0.173145 1.20306e-19)
(1.23332 -0.152406 3.56513e-19)
(1.30611 -0.1338 0)
(1.37144 -0.117295 3.47789e-19)
(1.43014 -0.10276 1.14502e-19)
(1.483 -0.0900036 0)
(1.53078 -0.0787991 2.2331e-19)
(1.5742 -0.0689155 2.20499e-19)
(1.6139 -0.0601409 -3.26557e-19)
(1.65048 -0.0522902 0)
(1.6844 -0.0452322 -1.06085e-19)
(1.71602 -0.0388692 -1.04716e-19)
(1.74558 -0.0331411 -3.10073e-19)
(1.77323 -0.0280426 0)
(1.79906 -0.023552 0)
(1.82317 -0.0196537 0)
(1.84566 -0.016343 -9.80012e-20)
(1.86667 -0.0136048 0)
(1.88636 -0.0114169 0)
(1.90497 -0.00974667 9.40643e-20)
(1.92274 -0.00854578 9.2769e-20)
(1.93993 -0.00776726 0)
(1.95675 -0.0073542 0)
(1.9734 -0.0072431 1.77858e-19)
(1.99003 -0.00736751 0)
(2.00673 -0.00765763 -1.72815e-19)
(2.02356 -0.00804418 -1.70317e-19)
(2.04053 -0.0084677 0)
(2.0576 -0.00888211 0)
(2.07474 -0.00925422 1.62909e-19)
(2.09188 -0.00956145 -4.39431e-25)
(2.10895 -0.0097805 -4.22673e-25)
(2.12589 -0.00992552 0)
(2.14266 -0.0100022 3.06477e-19)
(2.15921 -0.0100171 0)
(2.17551 -0.00997647 0)
(2.19155 -0.00988663 0)
(2.2073 -0.00975374 -1.43801e-19)
(2.22276 -0.0095822 0)
(2.23789 -0.00937298 2.78336e-19)
(2.25267 -0.0091238 1.36872e-19)
(2.2671 -0.00883223 0)
(2.28116 -0.00849998 1.32322e-19)
(2.29486 -0.00813157 0)
(2.30818 -0.00772586 0)
(2.32107 -0.00729833 3.76795e-19)
(2.3335 -0.0068527 -2.46768e-19)
(2.34544 -0.00638985 0)
(2.35684 -0.00590767 -2.37988e-19)
(2.3677 -0.00540373 1.16818e-19)
(2.37796 -0.00487453 0)
(2.3876 -0.00431947 0)
(2.39657 -0.00374101 0)
(2.40484 -0.00314814 3.24722e-19)
(2.41242 -0.00253044 0)
(2.41927 -0.00189931 1.04025e-19)
(2.42541 -0.00121297 0)
(2.4308 -0.000504667 0)
(2.43548 0.00032925 0)
(2.43931 0.00117573 0)
(2.44247 0.00230953 0)
(2.44457 0.00338092 0)
(2.44611 0.00512666 1.79277e-19)
(2.44604 0.0065278 0)
(2.44587 0.00956523 8.56279e-20)
(2.4426 0.0113718 -2.50923e-19)
(2.44082 0.0172391 0)
(2.43195 0.0193566 0)
(2.42955 0.0316205 1.55498e-19)
(2.40963 0.033488 1.51624e-19)
(2.4103 0.0603183 -1.47786e-19)
(2.36853 0.0618622 -1.44021e-19)
(0.0126135 0.103651 -2.6562e-19)
(0.19376 -0.549982 -2.63442e-19)
(0.374794 -0.952615 -1.74222e-19)
(0.523983 -1.10921 -8.65301e-20)
(0.653313 -1.14471 0)
(0.778098 -1.13749 1.70231e-19)
(0.908479 -1.11975 -8.4611e-20)
(1.04854 -1.0993 0)
(1.19816 -1.07444 -8.3077e-20)
(1.35488 -1.04019 0)
(1.51443 -0.990977 1.64028e-19)
(1.67094 -0.922306 0)
(1.8181 -0.831478 8.06495e-20)
(1.94989 -0.717798 1.60127e-19)
(2.06085 -0.582663 -1.58964e-19)
(2.14666 -0.429108 0)
(2.20356 -0.261892 -1.56643e-19)
(2.22882 -0.0869107 0)
(2.22055 0.0886414 0)
(2.17717 0.256434 -1.52978e-19)
(2.09985 0.409236 0)
(1.99235 0.537437 -3.3382e-22)
(1.86373 0.638826 0)
(1.72143 0.714502 0)
(1.57413 0.753905 2.1903e-22)
(1.42414 0.788435 -1.45353e-19)
(1.29031 0.802232 -1.4426e-19)
(1.17253 0.7894 -1.42865e-19)
(1.03737 0.805911 0)
(0.959446 0.695662 -2.80897e-19)
(0.862691 0.638355 0)
(0.656191 0.6391 -1.38054e-19)
(0.654002 0.103611 0)
(0.619267 -0.125507 0)
(-0.0961139 0.562211 1.34525e-19)
(-0.829573 1.13695 0)
(-1.4238 1.55031 -1.31865e-19)
(-1.91386 1.81139 1.55813e-22)
(-2.29711 1.98546 2.58707e-19)
(-2.58692 2.03039 -2.5676e-19)
(-2.79701 2.0066 0)
(-2.95731 1.92018 0)
(-3.09278 1.80277 -1.25801e-19)
(-3.21784 1.66799 0)
(-3.34206 1.53414 -1.23046e-19)
(-3.4674 1.40918 1.22144e-19)
(-3.5956 1.29626 1.21264e-19)
(-3.72496 1.19516 0)
(-3.85288 1.10278 -1.19549e-19)
(-3.97594 1.01537 -1.18702e-19)
(-4.09086 0.928761 2.36417e-19)
(-4.19427 0.8393 -1.17002e-19)
(-4.28367 0.744273 -1.16141e-19)
(-4.35701 0.642208 0)
(-4.4135 0.533136 0)
(-4.45299 0.418542 1.13447e-19)
(-4.47642 0.301213 0)
(-4.48553 0.184698 0)
(-4.48269 0.072578 -2.21009e-19)
(-4.46941 -0.0315858 -2.18893e-19)
(-4.44668 -0.123751 0)
(-4.41585 -0.201674 0)
(-4.37839 -0.264233 0)
(-4.33486 -0.311115 0)
(-4.28588 -0.343303 -2.07506e-19)
(-4.23186 -0.362517 2.05346e-19)
(-4.17332 -0.371389 2.02848e-19)
(-4.111 -0.373045 4.01172e-19)
(-4.04564 -0.370689 0)
(-3.978 -0.367061 8.43388e-23)
(-3.90847 -0.364092 0)
(-3.83691 -0.3628 -1.91359e-19)
(-3.76272 -0.363556 5.97425e-23)
(-3.68519 -0.366461 -1.86866e-19)
(-3.60378 -0.371517 1.84644e-19)
(-3.5181 -0.378614 6.1179e-23)
(-3.42804 -0.387545 0)
(-3.3338 -0.398106 1.78137e-19)
(-3.23576 -0.410174 1.75902e-19)
(-3.13407 -0.423794 3.47577e-19)
(-3.02834 -0.439203 0)
(-2.91794 -0.456741 -1.69565e-19)
(-2.80215 -0.476711 0)
(-2.67996 -0.499293 3.30574e-19)
(-2.55007 -0.524245 -1.63132e-19)
(-2.41149 -0.55069 1.61039e-19)
(-2.26356 -0.577409 -1.5896e-19)
(-2.10609 -0.602906 -3.13996e-19)
(-1.93972 -0.62532 1.54855e-19)
(-1.76578 -0.642973 -1.52837e-19)
(-1.58625 -0.654596 0)
(-1.4035 -0.659487 2.97938e-19)