/*--------------------------------*- C++ -*----------------------------------*\
  =========                 |
  \\      /  F ield         | OpenFOAM: The Open Source CFD Toolbox
   \\    /   O peration     | Website:  https://openfoam.org
    \\  /    A nd           | Version:  7
     \\/     M anipulation  |
\*---------------------------------------------------------------------------*/
FoamFile
{
    version     2.0;
    format      ascii;
    class       volScalarField;
    location    "0.006";
    object      k;
}
// * * * * * * * * * * * * * * * * * * * * * * * * * * * * * * * * * * * * * //

dimensions      [0 2 -2 0 0 0 0];

internalField   nonuniform List<scalar> 
12225
(
1.93874e-05
1.81664e-05
1.64731e-05
1.52311e-05
1.44933e-05
1.31083e-05
1.1284e-05
1.04702e-05
1.05567e-05
1.21718e-05
2.00832e-05
5.43761e-05
0.000150845
0.00055809
0.000863215
0.00154946
0.00190405
0.00394006
1.99822e-05
1.98842e-05
1.96695e-05
1.9388e-05
1.91485e-05
1.89471e-05
1.86762e-05
1.80916e-05
1.76792e-05
1.7674e-05
1.78993e-05
1.89936e-05
2.2463e-05
3.72944e-05
5.69455e-05
0.000108988
0.000141293
0.000246585
2.00043e-05
1.92197e-05
1.92182e-05
1.91766e-05
1.9042e-05
1.89292e-05
1.88723e-05
1.8759e-05
1.8572e-05
1.84337e-05
1.83839e-05
1.83632e-05
1.83737e-05
1.85694e-05
1.90691e-05
2.07289e-05
2.21311e-05
2.56482e-05
2.0161e-05
2.03562e-05
1.98943e-05
1.76408e-05
1.51831e-05
1.48038e-05
1.48741e-05
1.51462e-05
1.54678e-05
1.56778e-05
1.57525e-05
1.58244e-05
1.59575e-05
1.62898e-05
1.6658e-05
1.69759e-05
1.70532e-05
1.70955e-05
2.51411e-05
2.52898e-05
2.26412e-05
2.11374e-05
1.94612e-05
1.84465e-05
1.86696e-05
1.86499e-05
1.78704e-05
1.68967e-05
1.67169e-05
1.68934e-05
1.77586e-05
1.89047e-05
1.94976e-05
1.96148e-05
1.95555e-05
1.90112e-05
2.18278e-05
2.1405e-05
2.14624e-05
2.20115e-05
2.2403e-05
2.24177e-05
2.23197e-05
2.18201e-05
2.13531e-05
2.11866e-05
2.11503e-05
2.11588e-05
2.12343e-05
2.13032e-05
2.1291e-05
2.11193e-05
2.07523e-05
2.05851e-05
2.14175e-05
2.06615e-05
2.04776e-05
2.12497e-05
2.22333e-05
2.25038e-05
2.24619e-05
2.2016e-05
2.15395e-05
2.13798e-05
2.13762e-05
2.14454e-05
2.16397e-05
2.17343e-05
2.17311e-05
2.16499e-05
2.16107e-05
2.159e-05
2.05054e-05
2.02154e-05
2.03787e-05
2.12293e-05
2.16461e-05
2.16589e-05
2.14501e-05
2.10929e-05
2.09947e-05
2.10498e-05
2.15027e-05
2.27859e-05
2.34865e-05
2.36311e-05
2.36284e-05
2.3508e-05
2.31915e-05
2.29854e-05
2.05895e-05
2.05331e-05
2.10364e-05
2.15381e-05
2.15372e-05
2.14391e-05
2.11364e-05
2.09333e-05
2.08937e-05
2.0929e-05
2.11398e-05
2.18734e-05
2.25886e-05
2.29295e-05
2.30232e-05
2.30278e-05
2.29882e-05
2.28396e-05
2.05111e-05
2.15659e-05
2.29748e-05
2.28954e-05
2.2726e-05
2.32426e-05
2.40712e-05
2.40333e-05
2.36249e-05
2.32309e-05
2.30882e-05
2.3034e-05
2.29949e-05
2.29344e-05
2.27616e-05
2.24927e-05
2.2408e-05
2.24248e-05
2.08233e-05
2.12489e-05
2.13002e-05
2.13188e-05
2.1667e-05
2.32762e-05
2.4232e-05
2.42349e-05
2.37138e-05
2.27666e-05
2.2064e-05
2.15681e-05
2.12805e-05
2.11683e-05
2.11481e-05
2.11559e-05
2.12104e-05
2.14788e-05
2.10237e-05
2.09492e-05
2.10493e-05
2.12909e-05
2.15081e-05
2.23668e-05
2.32606e-05
2.33092e-05
2.29422e-05
2.215e-05
2.15896e-05
2.12198e-05
2.10324e-05
2.09762e-05
2.09743e-05
2.09809e-05
2.09961e-05
2.10198e-05
2.03458e-05
2.07003e-05
2.09144e-05
2.1516e-05
2.24257e-05
2.23765e-05
2.16249e-05
2.09829e-05
2.07888e-05
2.07792e-05
2.08438e-05
2.09269e-05
2.09794e-05
2.10234e-05
2.10878e-05
2.11512e-05
2.1292e-05
2.13889e-05
2.00336e-05
2.01558e-05
2.05598e-05
2.17819e-05
2.20023e-05
2.13817e-05
2.06291e-05
2.03896e-05
2.03598e-05
2.03985e-05
2.05548e-05
2.09016e-05
2.12727e-05
2.15516e-05
2.1774e-05
2.19398e-05
2.20504e-05
2.21071e-05
2.00139e-05
2.02369e-05
2.09408e-05
2.12949e-05
2.10591e-05
2.05544e-05
2.03737e-05
2.03448e-05
2.03722e-05
2.05231e-05
2.08033e-05
2.09441e-05
2.09708e-05
2.09883e-05
2.10887e-05
2.14506e-05
2.17008e-05
2.1877e-05
2.01509e-05
2.03393e-05
2.10388e-05
2.13105e-05
2.12269e-05
2.11641e-05
2.13353e-05
2.18131e-05
2.19341e-05
2.18776e-05
2.14845e-05
2.09779e-05
2.07771e-05
2.07272e-05
2.07249e-05
2.07485e-05
2.07802e-05
2.08202e-05
2.10849e-05
2.10933e-05
2.11966e-05
2.16473e-05
2.16972e-05
2.15926e-05
2.15766e-05
2.15757e-05
2.15578e-05
2.14185e-05
2.09341e-05
2.06038e-05
2.04767e-05
2.04421e-05
2.04397e-05
2.0447e-05
2.04806e-05
2.05601e-05
2.01795e-05
2.09469e-05
2.16149e-05
2.16476e-05
2.12567e-05
2.06904e-05
2.04702e-05
2.04171e-05
2.04231e-05
2.04964e-05
2.06498e-05
2.07314e-05
2.07599e-05
2.07672e-05
2.07755e-05
2.0801e-05
2.089e-05
2.11669e-05
2.02502e-05
2.05491e-05
2.11792e-05
2.14421e-05
2.14352e-05
2.12052e-05
2.07875e-05
2.05877e-05
2.04914e-05
2.04184e-05
2.03588e-05
2.03283e-05
2.03259e-05
2.03398e-05
2.04041e-05
2.06623e-05
2.12835e-05
2.16667e-05
2.02017e-05
2.03089e-05
2.03672e-05
2.05929e-05
2.08391e-05
2.08278e-05
2.06155e-05
2.04666e-05
2.04289e-05
2.04257e-05
2.04387e-05
2.04791e-05
2.0511e-05
2.05728e-05
2.07156e-05
2.0813e-05
2.08259e-05
2.07895e-05
2.01265e-05
2.00964e-05
2.03249e-05
2.06344e-05
2.07134e-05
2.068e-05
2.05398e-05
2.04622e-05
2.0439e-05
2.04229e-05
2.0384e-05
2.0349e-05
2.03452e-05
2.03801e-05
2.059e-05
2.08258e-05
2.08541e-05
2.07724e-05
2.12803e-05
2.04663e-05
2.02525e-05
2.0266e-05
2.03808e-05
2.06855e-05
2.08508e-05
2.0818e-05
2.06186e-05
2.0473e-05
2.04313e-05
2.04258e-05
2.04309e-05
2.04529e-05
2.05288e-05
2.06388e-05
2.06805e-05
2.06739e-05
2.15821e-05
2.09845e-05
2.03663e-05
2.03476e-05
2.04283e-05
2.06101e-05
2.065e-05
2.06295e-05
2.06101e-05
2.06208e-05
2.06774e-05
2.08736e-05
2.11691e-05
2.14181e-05
2.15895e-05
2.16464e-05
2.16408e-05
2.15772e-05
2.01143e-05
2.01908e-05
2.01898e-05
2.01798e-05
2.01849e-05
2.03035e-05
2.09389e-05
2.1843e-05
2.19497e-05
2.17397e-05
2.15472e-05
2.15755e-05
2.18327e-05
2.26976e-05
2.34573e-05
2.37742e-05
2.38225e-05
2.37501e-05
2.00076e-05
2.01459e-05
2.02188e-05
2.02118e-05
2.01959e-05
2.02352e-05
2.0647e-05
2.12442e-05
2.14267e-05
2.14813e-05
2.15651e-05
2.17748e-05
2.23424e-05
2.28979e-05
2.33092e-05
2.36326e-05
2.38365e-05
2.38736e-05
2.00061e-05
2.036e-05
2.06324e-05
2.06651e-05
2.06503e-05
2.05591e-05
2.04455e-05
2.04162e-05
2.04387e-05
2.06331e-05
2.12906e-05
2.17178e-05
2.1795e-05
2.1716e-05
2.12927e-05
2.08432e-05
2.06718e-05
2.06591e-05
2.00364e-05
2.01072e-05
2.01017e-05
2.00692e-05
1.99711e-05
1.99462e-05
1.9985e-05
2.00734e-05
2.01469e-05
2.02338e-05
2.04446e-05
2.08513e-05
2.09896e-05
2.09744e-05
2.10786e-05
2.14092e-05
2.21518e-05
2.36875e-05
2.01914e-05
1.75914e-05
1.44793e-05
1.50505e-05
1.71997e-05
2.24436e-05
3.03529e-05
3.65045e-05
4.08129e-05
4.52447e-05
5.3977e-05
7.04501e-05
8.54663e-05
9.93068e-05
0.000111819
0.000118697
0.000128332
0.000143517
3.01761e-05
8.80897e-05
0.00012307
0.000162051
0.0002419
0.000347336
0.000424481
0.000457217
0.000468138
0.000482171
0.000514164
0.00058652
0.00064023
0.000666682
0.000682438
0.000691543
0.000705295
0.000727352
0.00220449
0.00212311
0.00199227
0.00199557
0.0020696
0.00210942
0.00210233
0.00202558
0.00182138
0.00168694
0.00163071
0.00159318
0.00151941
0.00142398
0.00134947
0.00130602
0.00126732
0.00119149
2.35057e-07
3.10207e-07
2.21603e-07
1.29962e-07
8.19616e-08
5.34438e-08
4.19737e-08
3.66722e-08
3.30451e-08
3.02202e-08
2.77649e-08
2.59802e-08
2.50009e-08
2.45059e-08
2.39331e-08
2.32872e-08
2.26132e-08
2.21885e-08
2.05541e-08
1.83903e-08
1.73508e-08
1.66489e-08
1.60382e-08
1.54369e-08
1.47688e-08
1.40142e-08
1.31777e-08
1.22765e-08
1.13309e-08
1.03695e-08
9.41597e-09
8.48509e-09
7.5879e-09
6.73135e-09
5.91797e-09
5.15194e-09
4.44043e-09
3.78972e-09
3.20344e-09
2.68256e-09
2.22586e-09
1.83043e-09
1.49224e-09
1.20644e-09
9.67529e-10
7.69754e-10
6.07522e-10
4.75646e-10
3.69424e-10
2.84655e-10
2.17635e-10
1.65131e-10
1.24361e-10
9.29682e-11
6.89922e-11
5.08252e-11
3.71668e-11
2.69771e-11
1.94334e-11
1.38917e-11
9.85162e-12
6.93041e-12
4.83351e-12
3.34281e-12
2.29022e-12
1.55428e-12
1.04537e-12
6.97147e-13
4.61212e-13
3.02826e-13
1.97435e-13
1.27889e-13
8.23553e-14
5.2759e-14
3.36519e-14
2.13934e-14
1.35731e-14
8.60954e-15
5.47314e-15
3.49899e-15
2.26048e-15
1.48566e-15
1.00206e-15
7.00837e-16
5.1358e-16
3.97471e-16
3.25721e-16
2.81613e-16
2.54807e-16
2.38833e-16
2.29602e-16
2.24671e-16
2.22525e-16
2.22045e-16
2.22045e-16
2.22045e-16
2.22045e-16
2.22045e-16
2.22045e-16
2.22045e-16
2.22045e-16
2.22045e-16
2.22045e-16
2.22045e-16
2.22045e-16
2.22045e-16
2.22045e-16
2.22045e-16
2.22045e-16
2.22045e-16
2.22045e-16
2.22045e-16
2.22045e-16
2.22045e-16
2.22045e-16
2.22045e-16
2.22045e-16
2.22045e-16
2.22045e-16
2.22045e-16
2.22045e-16
2.22045e-16
2.22045e-16
2.22045e-16
2.22045e-16
2.22045e-16
2.22045e-16
2.22045e-16
2.22045e-16
2.22045e-16
2.22045e-16
2.22045e-16
2.22045e-16
2.22045e-16
2.22045e-16
2.22045e-16
2.22045e-16
2.22045e-16
2.22045e-16
2.22045e-16
2.22045e-16
2.22045e-16
2.22045e-16
2.22045e-16
2.22045e-16
2.22045e-16
2.22045e-16
2.22045e-16
2.22045e-16
2.22045e-16
2.22045e-16
2.22045e-16
2.22045e-16
2.22045e-16
2.22045e-16
2.22045e-16
2.22045e-16
2.22045e-16
2.22045e-16
2.22045e-16
2.22045e-16
2.28336e-16
3.60771e-16
1.81723e-15
1.34309e-14
8.54715e-14
4.49277e-13
2.00098e-12
7.76494e-12
2.69765e-11
8.64136e-11
2.61182e-10
7.66169e-10
2.98996e-09
6.48633e-09
3.33987e-08
4.4704e-08
8.45133e-08
1.13481e-07
2.17639e-07
8.64055e-07
1.06274e-06
1.37161e-06
1.34678e-06
1.01614e-06
7.30123e-07
6.22455e-07
5.77248e-07
5.45925e-07
5.1359e-07
4.78622e-07
4.45805e-07
4.24619e-07
4.21128e-07
4.20559e-07
4.22463e-07
4.22971e-07
4.18824e-07
4.08187e-07
3.91679e-07
3.72197e-07
3.52091e-07
3.34654e-07
3.22599e-07
3.08817e-07
2.92443e-07
2.73869e-07
2.53723e-07
2.32637e-07
2.11472e-07
1.90959e-07
1.71542e-07
1.53532e-07
1.37081e-07
1.21967e-07
1.07811e-07
9.44748e-08
8.20597e-08
7.06606e-08
6.03313e-08
5.10856e-08
4.29047e-08
3.57476e-08
2.95586e-08
2.42651e-08
1.97781e-08
1.60039e-08
1.28539e-08
1.02462e-08
8.10518e-09
6.36272e-09
4.95734e-09
3.83383e-09
2.94317e-09
2.24273e-09
1.69618e-09
1.27301e-09
9.47903e-10
7.00101e-10
5.12741e-10
3.72213e-10
2.67775e-10
1.90723e-10
1.3458e-10
9.38639e-11
6.48273e-11
4.44016e-11
3.01889e-11
2.03869e-11
1.36798e-11
9.12427e-12
6.05185e-12
3.99328e-12
2.62243e-12
1.71472e-12
1.11682e-12
7.24848e-13
4.68988e-13
3.02615e-13
1.94798e-13
1.25139e-13
8.02525e-14
5.13984e-14
3.28892e-14
2.10386e-14
1.34663e-14
8.6364e-15
5.55824e-15
3.60235e-15
2.36528e-15
1.57725e-15
1.07441e-15
7.62197e-16
5.70693e-16
4.49972e-16
3.71359e-16
3.19456e-16
2.85225e-16
2.62856e-16
2.48336e-16
2.38962e-16
2.33041e-16
2.29336e-16
2.26984e-16
2.25455e-16
2.24436e-16
2.23742e-16
2.23263e-16
2.22928e-16
2.22691e-16
2.22522e-16
2.224e-16
2.22312e-16
2.22246e-16
2.22198e-16
2.22161e-16
2.22134e-16
2.22113e-16
2.22097e-16
2.22084e-16
2.22075e-16
2.22068e-16
2.22062e-16
2.22058e-16
2.22054e-16
2.22052e-16
2.2205e-16
2.22048e-16
2.22047e-16
2.22046e-16
2.22045e-16
2.22045e-16
2.22045e-16
2.22045e-16
2.22045e-16
2.22045e-16
2.22045e-16
2.22045e-16
2.22045e-16
2.22045e-16
2.22045e-16
2.22045e-16
2.22045e-16
2.22045e-16
2.22045e-16
2.22045e-16
2.22045e-16
2.22045e-16
2.22045e-16
2.22045e-16
2.22045e-16
2.22045e-16
2.22045e-16
2.22045e-16
2.22045e-16
2.22045e-16
2.22045e-16
2.22045e-16
2.22045e-16
2.22046e-16
2.22068e-16
2.22431e-16
2.27682e-16
2.84319e-16
7.44208e-16
3.66732e-15
1.88012e-14
8.48635e-14
3.34929e-13
1.17828e-12
3.79609e-12
1.13271e-11
3.19825e-11
9.0631e-11
2.27875e-10
6.46234e-10
1.56284e-09
3.45699e-09
8.17372e-09
2.76374e-08
9.01922e-07
7.50488e-07
1.41412e-06
2.2255e-06
2.51123e-06
2.58808e-06
2.61049e-06
2.61428e-06
2.62259e-06
2.64699e-06
2.68338e-06
2.72743e-06
2.7699e-06
2.80731e-06
2.85545e-06
2.91438e-06
2.98213e-06
3.05164e-06
3.11464e-06
3.16404e-06
3.19357e-06
3.19744e-06
3.16913e-06
3.10278e-06
2.99683e-06
2.85204e-06
2.67394e-06
2.46981e-06
2.24799e-06
2.01944e-06
1.79479e-06
1.58249e-06
1.38968e-06
1.2232e-06
1.08514e-06
9.7108e-07
8.64382e-07
7.63445e-07
6.69098e-07
5.81995e-07
5.025e-07
4.30707e-07
3.66513e-07
3.09735e-07
2.6011e-07
2.17135e-07
1.80113e-07
1.48405e-07
1.21432e-07
9.86465e-08
7.95384e-08
6.36484e-08
5.05561e-08
3.98604e-08
3.11904e-08
2.42154e-08
1.86465e-08
1.42347e-08
1.07677e-08
8.06635e-09
5.97987e-09
4.38499e-09
3.17598e-09
2.27423e-09
1.60176e-09
1.12555e-09
7.88627e-10
5.50713e-10
3.83129e-10
2.65482e-10
1.83234e-10
1.25993e-10
8.63324e-11
5.89687e-11
4.01612e-11
2.72791e-11
1.84829e-11
1.24932e-11
8.42494e-12
5.66826e-12
3.80456e-12
2.54743e-12
1.70141e-12
1.13342e-12
7.53024e-13
4.98963e-13
3.29771e-13
2.1733e-13
1.42861e-13
9.38947e-14
6.14842e-14
3.99256e-14
2.63576e-14
1.79169e-14
1.22468e-14
8.26123e-15
5.52894e-15
3.69499e-15
2.48487e-15
1.69551e-15
1.1823e-15
8.52261e-16
6.43967e-16
5.09762e-16
4.20906e-16
3.60863e-16
3.19759e-16
2.91396e-16
2.71704e-16
2.57945e-16
2.48254e-16
2.41363e-16
2.36411e-16
2.32815e-16
2.30175e-16
2.28217e-16
2.26753e-16
2.25648e-16
2.24811e-16
2.24169e-16
2.23681e-16
2.23298e-16
2.23014e-16
2.2278e-16
2.22611e-16
2.22477e-16
2.22364e-16
2.22285e-16
2.22226e-16
2.22169e-16
2.22117e-16
2.22081e-16
2.2206e-16
2.22051e-16
2.22047e-16
2.22046e-16
2.22045e-16
2.22045e-16
2.22045e-16
2.22045e-16
2.22045e-16
2.22045e-16
2.22045e-16
2.22045e-16
2.22045e-16
2.22045e-16
2.22045e-16
2.22045e-16
2.22045e-16
2.22045e-16
2.22045e-16
2.22045e-16
2.22045e-16
2.22045e-16
2.22045e-16
2.22045e-16
2.22045e-16
2.22045e-16
2.22045e-16
2.22045e-16
2.22045e-16
2.22056e-16
2.22196e-16
2.23678e-16
2.35714e-16
3.1264e-16
7.13513e-16
2.47468e-15
9.16952e-15
3.17696e-14
1.02601e-13
3.02713e-13
8.35469e-13
2.15115e-12
5.25515e-12
1.27835e-11
3.46483e-11
8.97853e-11
2.82442e-10
1.46111e-09
9.7367e-07
5.82377e-07
8.5362e-07
2.00305e-06
2.59887e-06
2.8118e-06
2.9186e-06
3.01383e-06
3.12295e-06
3.26338e-06
3.4436e-06
3.66875e-06
3.92915e-06
4.22034e-06
4.53642e-06
4.86726e-06
5.20437e-06
5.53482e-06
5.84508e-06
6.1206e-06
6.34819e-06
6.5165e-06
6.61713e-06
6.64673e-06
6.60657e-06
6.48924e-06
6.30986e-06
6.07413e-06
5.79034e-06
5.46837e-06
5.11834e-06
4.75006e-06
4.3726e-06
3.99408e-06
3.62143e-06
3.26038e-06
2.91547e-06
2.59012e-06
2.28667e-06
2.00658e-06
1.75049e-06
1.51839e-06
1.30971e-06
1.12346e-06
9.58557e-07
8.13863e-07
6.87569e-07
5.77857e-07
4.83119e-07
4.01772e-07
3.32267e-07
2.73188e-07
2.23306e-07
1.81463e-07
1.46569e-07
1.1764e-07
9.37981e-08
7.42705e-08
5.83806e-08
4.55399e-08
3.5241e-08
2.70454e-08
2.05832e-08
1.55302e-08
1.16272e-08
8.62419e-09
6.34349e-09
4.63273e-09
3.36394e-09
2.43211e-09
1.75314e-09
1.26133e-09
9.06521e-10
6.51137e-10
4.67508e-10
3.35494e-10
2.40562e-10
1.72276e-10
1.23155e-10
8.78371e-11
6.24709e-11
4.4284e-11
3.12758e-11
2.19998e-11
1.54087e-11
1.07441e-11
7.45758e-12
5.15288e-12
3.54435e-12
2.42712e-12
1.65541e-12
1.12509e-12
7.61834e-13
5.14124e-13
3.46269e-13
2.33236e-13
1.57338e-13
1.06283e-13
7.19643e-14
4.90036e-14
3.36248e-14
2.32276e-14
1.61179e-14
1.12204e-14
7.83421e-15
5.49513e-15
3.88471e-15
2.7791e-15
2.02045e-15
1.4985e-15
1.1373e-15
8.85249e-16
7.0757e-16
5.80919e-16
4.89606e-16
4.23032e-16
3.73983e-16
3.37488e-16
3.10135e-16
2.89425e-16
2.73799e-16
2.6166e-16
2.52679e-16
2.45319e-16
2.40026e-16
2.35776e-16
2.32219e-16
2.29775e-16
2.27889e-16
2.2604e-16
2.24421e-16
2.23319e-16
2.22714e-16
2.2242e-16
2.22276e-16
2.22196e-16
2.22146e-16
2.22111e-16
2.22087e-16
2.22071e-16
2.22059e-16
2.22052e-16
2.22048e-16
2.22046e-16
2.22045e-16
2.22045e-16
2.22045e-16
2.22045e-16
2.22045e-16
2.22045e-16
2.22045e-16
2.22045e-16
2.22045e-16
2.22045e-16
2.22045e-16
2.22045e-16
2.22045e-16
2.22045e-16
2.22045e-16
2.22045e-16
2.22045e-16
2.22045e-16
2.22045e-16
2.22065e-16
2.22293e-16
2.23858e-16
2.32251e-16
2.69695e-16
4.13537e-16
9.03771e-16
2.4833e-15
6.98034e-15
1.90083e-14
4.84044e-14
1.19783e-13
2.92694e-13
8.41512e-13
2.38319e-12
8.92888e-12
7.02094e-11
1.16241e-06
5.79707e-07
6.38601e-07
1.88129e-06
2.56939e-06
2.82078e-06
2.95436e-06
3.08467e-06
3.23958e-06
3.43964e-06
3.69749e-06
4.02287e-06
4.41458e-06
4.84971e-06
5.31467e-06
5.79675e-06
6.28007e-06
6.74337e-06
7.16448e-06
7.52424e-06
7.81011e-06
8.00573e-06
8.10183e-06
8.09915e-06
7.99488e-06
7.79512e-06
7.51937e-06
7.17686e-06
6.78151e-06
6.34759e-06
5.88874e-06
5.41746e-06
4.94472e-06
4.47979e-06
4.03017e-06
3.60167e-06
3.19851e-06
2.82351e-06
2.47827e-06
2.16338e-06
1.87859e-06
1.62308e-06
1.39555e-06
1.19424e-06
1.01692e-06
8.61379e-07
7.26091e-07
6.09371e-07
5.09275e-07
4.23911e-07
3.51464e-07
2.90324e-07
2.38912e-07
1.9581e-07
1.59824e-07
1.29913e-07
1.05164e-07
8.47771e-08
6.8059e-08
5.441e-08
4.33159e-08
3.43383e-08
2.71053e-08
2.13038e-08
1.6671e-08
1.29881e-08
1.00733e-08
7.77702e-09
5.97623e-09
4.57058e-09
3.47852e-09
2.63413e-09
1.98441e-09
1.48696e-09
1.10802e-09
8.20863e-10
6.04433e-10
4.4222e-10
3.21351e-10
2.31838e-10
1.65971e-10
1.17832e-10
8.29038e-11
5.77566e-11
3.98017e-11
2.70982e-11
1.81997e-11
1.20351e-11
7.81754e-12
4.97294e-12
3.0835e-12
1.85861e-12
1.09755e-12
6.33585e-13
3.56794e-13
1.95555e-13
1.04075e-13
5.36918e-14
2.68493e-14
1.30603e-14
6.2424e-15
2.99996e-15
1.51664e-15
8.55331e-16
5.60112e-16
4.22814e-16
3.53169e-16
3.13545e-16
2.88466e-16
2.71356e-16
2.59155e-16
2.50236e-16
2.43616e-16
2.38648e-16
2.34887e-16
2.32023e-16
2.29635e-16
2.30721e-16
2.34185e-16
2.39883e-16
2.45595e-16
2.50157e-16
2.53045e-16
2.54309e-16
2.54047e-16
2.53081e-16
2.51128e-16
2.48679e-16
2.4602e-16
2.43304e-16
2.40644e-16
2.38153e-16
2.35893e-16
2.33872e-16
2.32081e-16
2.3051e-16
2.29148e-16
2.27978e-16
2.2698e-16
2.26135e-16
2.25424e-16
2.24828e-16
2.24329e-16
2.2391e-16
2.23558e-16
2.2326e-16
2.23006e-16
2.22784e-16
2.22592e-16
2.22401e-16
2.22259e-16
2.22045e-16
2.22045e-16
2.22045e-16
2.22045e-16
2.22045e-16
2.22045e-16
2.22045e-16
2.22045e-16
2.22102e-16
2.22289e-16
2.22646e-16
2.23179e-16
2.24179e-16
2.26346e-16
2.31585e-16
2.46069e-16
2.91387e-16
4.5529e-16
1.17154e-15
4.83001e-15
2.40222e-14
1.11844e-13
4.65175e-13
1.53032e-12
4.61251e-12
1.52447e-11
2.0531e-11
5.4477e-11
5.44869e-11
1.49061e-06
6.56269e-07
6.03242e-07
1.92278e-06
2.62589e-06
2.90071e-06
3.07312e-06
3.2636e-06
3.50429e-06
3.81901e-06
4.22891e-06
4.75611e-06
5.41952e-06
6.17526e-06
6.98038e-06
7.81235e-06
8.63328e-06
9.39459e-06
1.00536e-05
1.05826e-05
1.09635e-05
1.1176e-05
1.12148e-05
1.10865e-05
1.07932e-05
1.0376e-05
9.8546e-06
9.25473e-06
8.6019e-06
7.91932e-06
7.22718e-06
6.54233e-06
5.8782e-06
5.24496e-06
4.64983e-06
4.09747e-06
3.59038e-06
3.12934e-06
2.71381e-06
2.34221e-06
2.01225e-06
1.72116e-06
1.46594e-06
1.24345e-06
1.05059e-06
8.84238e-07
7.41395e-07
6.1926e-07
5.15266e-07
4.26975e-07
3.52496e-07
2.89972e-07
2.3764e-07
1.94026e-07
1.57827e-07
1.27902e-07
1.03262e-07
8.30534e-08
6.6545e-08
5.31126e-08
4.22266e-08
3.34394e-08
2.6375e-08
2.07186e-08
1.62081e-08
1.26263e-08
9.79379e-09
7.56339e-09
5.81468e-09
4.44964e-09
3.38887e-09
2.56832e-09
1.93657e-09
1.45252e-09
1.08348e-09
8.03566e-10
5.92377e-10
4.33923e-10
3.15719e-10
2.28076e-10
1.63505e-10
1.16252e-10
8.19208e-11
5.71682e-11
3.94691e-11
2.69262e-11
1.81259e-11
1.20165e-11
7.83035e-12
4.99584e-12
3.11522e-12
1.87951e-12
1.11072e-12
6.41481e-13
3.61218e-13
1.97777e-13
1.04976e-13
5.38542e-14
2.66394e-14
1.26973e-14
5.85238e-15
2.64455e-15
1.21434e-15
6.09133e-16
3.66332e-16
2.73941e-16
2.40495e-16
2.28878e-16
2.24925e-16
2.23544e-16
2.23001e-16
2.22738e-16
2.22577e-16
2.22463e-16
2.22376e-16
2.22308e-16
2.22254e-16
2.22213e-16
2.2219e-16
2.22191e-16
2.22209e-16
2.22238e-16
2.22293e-16
2.22351e-16
2.22392e-16
2.2242e-16
2.22434e-16
2.22433e-16
2.22422e-16
2.22405e-16
2.22384e-16
2.22359e-16
2.2233e-16
2.22301e-16
2.22273e-16
2.22246e-16
2.2222e-16
2.22197e-16
2.22175e-16
2.22156e-16
2.22139e-16
2.22125e-16
2.22112e-16
2.22101e-16
2.22092e-16
2.22084e-16
2.22076e-16
2.2207e-16
2.22065e-16
2.2206e-16
2.22056e-16
2.2205e-16
2.22046e-16
2.22045e-16
2.22045e-16
2.22081e-16
2.22428e-16
2.23433e-16
2.2561e-16
2.30104e-16
2.37968e-16
2.53194e-16
2.79505e-16
3.31382e-16
4.24904e-16
6.15479e-16
1.02624e-15
1.97412e-15
4.31133e-15
1.04104e-14
2.69063e-14
7.31545e-14
2.00371e-13
5.5343e-13
1.46294e-12
3.54589e-12
1.29494e-11
1.47372e-11
3.58421e-11
3.54851e-11
1.93648e-06
7.95524e-07
6.55994e-07
2.04626e-06
2.74425e-06
3.03939e-06
3.27281e-06
3.5652e-06
3.95662e-06
4.4895e-06
5.19884e-06
6.13475e-06
7.34371e-06
8.79941e-06
1.03589e-05
1.1945e-05
1.34564e-05
1.47909e-05
1.58654e-05
1.66358e-05
1.70592e-05
1.71547e-05
1.69215e-05
1.63972e-05
1.56489e-05
1.47248e-05
1.36805e-05
1.25667e-05
1.14274e-05
1.02974e-05
9.20335e-06
8.16511e-06
7.19582e-06
6.30326e-06
5.49092e-06
4.75904e-06
4.10531e-06
3.52589e-06
3.01584e-06
2.56955e-06
2.18116e-06
1.84492e-06
1.55514e-06
1.30647e-06
1.09397e-06
9.13057e-07
7.5966e-07
6.30005e-07
5.20462e-07
4.28682e-07
3.52094e-07
2.88237e-07
2.35184e-07
1.9126e-07
1.55019e-07
1.25219e-07
1.00801e-07
8.08612e-08
6.46367e-08
5.14818e-08
4.08544e-08
3.23003e-08
2.54404e-08
1.996e-08
1.55983e-08
1.21406e-08
9.41024e-09
7.26303e-09
5.58133e-09
4.26979e-09
3.25132e-09
2.46394e-09
1.85798e-09
1.39382e-09
1.03999e-09
7.71612e-10
5.6911e-10
4.17138e-10
3.03732e-10
2.19606e-10
1.57591e-10
1.12177e-10
7.91538e-11
5.53208e-11
3.82604e-11
2.61536e-11
1.76473e-11
1.17305e-11
7.66962e-12
4.91127e-12
3.07891e-12
1.86507e-12
1.10712e-12
6.42444e-13
3.63555e-13
2.00164e-13
1.06928e-13
5.52601e-14
2.75588e-14
1.325e-14
6.15944e-15
2.80222e-15
1.28872e-15
6.40875e-16
3.78095e-16
2.77207e-16
2.40554e-16
2.27949e-16
2.23842e-16
2.22572e-16
2.22199e-16
2.22093e-16
2.22063e-16
2.22055e-16
2.22052e-16
2.2205e-16
2.22049e-16
2.22048e-16
2.22048e-16
2.22047e-16
2.22047e-16
2.22047e-16
2.22047e-16
2.22047e-16
2.22047e-16
2.22047e-16
2.22048e-16
2.22048e-16
2.22048e-16
2.22048e-16
2.22048e-16
2.22048e-16
2.22048e-16
2.22048e-16
2.22047e-16
2.22047e-16
2.22047e-16
2.22047e-16
2.22046e-16
2.22046e-16
2.22046e-16
2.22046e-16
2.22046e-16
2.22045e-16
2.22045e-16
2.22045e-16
2.22045e-16
2.22045e-16
2.22045e-16
2.22045e-16
2.22045e-16
2.22045e-16
2.22045e-16
2.22045e-16
2.22045e-16
2.22045e-16
2.22121e-16
2.22697e-16
2.24321e-16
2.27822e-16
2.34923e-16
2.48323e-16
2.71512e-16
3.18966e-16
4.01606e-16
5.68203e-16
9.21413e-16
1.72161e-15
3.64926e-15
8.56046e-15
2.14119e-14
5.61229e-14
1.47486e-13
3.86388e-13
9.6648e-13
2.14232e-12
7.7166e-12
7.90077e-12
1.07588e-11
1.33885e-11
2.50617e-06
9.68269e-07
7.77581e-07
2.25247e-06
2.94756e-06
3.28156e-06
3.64413e-06
4.15237e-06
4.87377e-06
5.89785e-06
7.32614e-06
9.27633e-06
1.18494e-05
1.50648e-05
1.85249e-05
2.19039e-05
2.49344e-05
2.73469e-05
2.90293e-05
2.98429e-05
2.997e-05
2.93271e-05
2.81107e-05
2.64557e-05
2.45016e-05
2.2379e-05
2.01878e-05
1.80142e-05
1.59294e-05
1.39713e-05
1.21656e-05
1.05277e-05
9.06061e-06
7.76037e-06
6.6182e-06
5.62273e-06
4.76034e-06
4.01751e-06
3.38082e-06
2.83728e-06
2.37465e-06
1.98283e-06
1.65164e-06
1.37228e-06
1.13763e-06
9.40984e-07
7.7593e-07
6.37597e-07
5.23123e-07
4.28321e-07
3.49716e-07
2.84749e-07
2.31205e-07
1.87197e-07
1.51124e-07
1.21639e-07
9.76078e-08
7.80786e-08
6.22561e-08
4.94765e-08
3.91873e-08
3.09303e-08
2.43263e-08
1.90626e-08
1.48818e-08
1.15732e-08
8.96458e-09
6.9156e-09
5.31251e-09
4.06329e-09
3.09386e-09
2.34475e-09
1.76842e-09
1.32703e-09
9.90567e-10
7.3534e-10
5.42714e-10
3.98102e-10
2.90136e-10
2.09997e-10
1.50878e-10
1.07546e-10
7.60055e-11
5.32157e-11
3.688e-11
2.52698e-11
1.70973e-11
1.1402e-11
7.48232e-12
4.81444e-12
3.03322e-12
1.85292e-12
1.10523e-12
6.44894e-13
3.6726e-13
2.03699e-13
1.09755e-13
5.72843e-14
2.88875e-14
1.40571e-14
6.61514e-15
3.04177e-15
1.40611e-15
6.94559e-16
4.01021e-16
2.86349e-16
2.43958e-16
2.2913e-16
2.2422e-16
2.2268e-16
2.22221e-16
2.22091e-16
2.22057e-16
2.22048e-16
2.22045e-16
2.22045e-16
2.22045e-16
2.22045e-16
2.22045e-16
2.22045e-16
2.22045e-16
2.22045e-16
2.22045e-16
2.22045e-16
2.22045e-16
2.22045e-16
2.22045e-16
2.22045e-16
2.22045e-16
2.22045e-16
2.22045e-16
2.22045e-16
2.22045e-16
2.22045e-16
2.22045e-16
2.22045e-16
2.22045e-16
2.22045e-16
2.22045e-16
2.22045e-16
2.22045e-16
2.22045e-16
2.22045e-16
2.22045e-16
2.22045e-16
2.22045e-16
2.22045e-16
2.22045e-16
2.22045e-16
2.22045e-16
2.22045e-16
2.22045e-16
2.22045e-16
2.22045e-16
2.22045e-16
2.22045e-16
2.22052e-16
2.22421e-16
2.23678e-16
2.26592e-16
2.32754e-16
2.43839e-16
2.64427e-16
3.03339e-16
3.74535e-16
5.10795e-16
7.93996e-16
1.41885e-15
2.87851e-15
6.48385e-15
1.55866e-14
3.91207e-14
9.82846e-14
2.41025e-13
6.27379e-13
1.15413e-12
3.50406e-12
3.49209e-12
3.48495e-12
4.05359e-12
3.19417e-06
1.1754e-06
9.78948e-07
2.55992e-06
3.29274e-06
3.75012e-06
4.4348e-06
5.48957e-06
7.10843e-06
9.55715e-06
1.31356e-05
1.81978e-05
2.49121e-05
3.31571e-05
4.17554e-05
4.94555e-05
5.5573e-05
5.93017e-05
6.09282e-05
6.05875e-05
5.84023e-05
5.49057e-05
5.05298e-05
4.56683e-05
4.06728e-05
3.57918e-05
3.11562e-05
2.68601e-05
2.30054e-05
1.95672e-05
1.65401e-05
1.39198e-05
1.16656e-05
9.74043e-06
8.10782e-06
6.7324e-06
5.57847e-06
4.61429e-06
3.81116e-06
3.14361e-06
2.58933e-06
2.13209e-06
1.75292e-06
1.43836e-06
1.17807e-06
9.62267e-07
7.85032e-07
6.40673e-07
5.22013e-07
4.24394e-07
3.44309e-07
2.78743e-07
2.25164e-07
1.81462e-07
1.45888e-07
1.1699e-07
9.35682e-08
7.46292e-08
5.93531e-08
4.70636e-08
3.72037e-08
2.93156e-08
2.30236e-08
1.80204e-08
1.40546e-08
1.09215e-08
8.45481e-09
6.51967e-09
5.00712e-09
3.82936e-09
2.91589e-09
2.21028e-09
1.66754e-09
1.2519e-09
9.35035e-10
6.94614e-10
5.13092e-10
3.76745e-10
2.74883e-10
1.99215e-10
1.43341e-10
1.02344e-10
7.24644e-11
5.08445e-11
3.53222e-11
2.427e-11
1.64732e-11
1.10275e-11
7.2675e-12
4.70234e-12
2.9794e-12
1.83788e-12
1.10234e-12
6.47272e-13
3.71276e-13
2.07631e-13
1.12937e-13
5.95934e-14
3.04365e-14
1.50296e-14
7.18829e-15
3.35861e-15
1.57003e-15
7.73783e-16
4.36764e-16
3.0141e-16
2.49891e-16
2.31319e-16
2.24977e-16
2.22925e-16
2.22296e-16
2.22113e-16
2.22062e-16
2.22049e-16
2.22046e-16
2.22045e-16
2.22045e-16
2.22045e-16
2.22045e-16
2.22045e-16
2.22045e-16
2.22045e-16
2.22045e-16
2.22045e-16
2.22045e-16
2.22045e-16
2.22045e-16
2.22045e-16
2.22045e-16
2.22045e-16
2.22045e-16
2.22045e-16
2.22045e-16
2.22045e-16
2.22045e-16
2.22045e-16
2.22045e-16
2.22045e-16
2.22045e-16
2.22045e-16
2.22045e-16
2.22045e-16
2.22045e-16
2.22045e-16
2.22045e-16
2.22045e-16
2.22045e-16
2.22045e-16
2.22045e-16
2.22045e-16
2.22045e-16
2.22045e-16
2.22045e-16
2.22045e-16
2.22045e-16
2.22045e-16
2.22045e-16
2.22177e-16
2.22991e-16
2.252e-16
2.2986e-16
2.39007e-16
2.56525e-16
2.85875e-16
3.45396e-16
4.51404e-16
6.66462e-16
1.12565e-15
2.15886e-15
4.61211e-15
1.05349e-14
2.50625e-14
5.92981e-14
1.37193e-13
3.13403e-13
5.28645e-13
1.15846e-12
1.15754e-12
1.06768e-12
1.13835e-12
3.96014e-06
1.39916e-06
1.30136e-06
3.09474e-06
3.95e-06
4.87728e-06
6.56572e-06
9.45825e-06
1.42543e-05
2.19086e-05
3.33562e-05
4.94533e-05
6.99709e-05
9.32648e-05
0.00011501
0.000132313
0.000140993
0.000143002
0.000140922
0.000131782
0.000120561
0.000107471
9.39074e-05
8.08309e-05
6.87221e-05
5.79166e-05
4.84537e-05
4.02444e-05
3.33797e-05
2.75363e-05
2.26386e-05
1.85904e-05
1.51989e-05
1.23655e-05
1.00318e-05
8.12523e-06
6.57563e-06
5.31923e-06
4.30181e-06
3.47874e-06
2.81355e-06
2.27341e-06
1.83646e-06
1.48386e-06
1.19923e-06
9.71247e-07
7.87141e-07
6.36959e-07
5.14719e-07
4.15423e-07
3.34842e-07
2.695e-07
2.16561e-07
1.73715e-07
1.39079e-07
1.11119e-07
8.85836e-08
7.0452e-08
5.58917e-08
4.42236e-08
3.48943e-08
2.74531e-08
2.1533e-08
1.6836e-08
1.312e-08
1.0189e-08
7.88436e-09
6.07829e-09
4.66777e-09
3.57012e-09
2.71912e-09
2.06191e-09
1.55641e-09
1.16923e-09
8.73984e-10
6.49867e-10
4.80557e-10
3.53291e-10
2.58129e-10
1.87366e-10
1.35052e-10
9.6615e-11
6.85596e-11
4.82247e-11
3.35967e-11
2.31589e-11
1.57767e-11
1.06073e-11
7.02451e-12
4.57395e-12
2.9164e-12
1.81858e-12
1.09762e-12
6.49148e-13
3.75433e-13
2.11942e-13
1.16525e-13
6.22462e-14
3.22459e-14
1.61871e-14
7.88674e-15
3.75607e-15
1.78276e-15
8.8054e-16
4.86907e-16
3.23435e-16
2.58943e-16
2.34803e-16
2.26236e-16
2.23353e-16
2.22433e-16
2.22154e-16
2.22074e-16
2.22052e-16
2.22046e-16
2.22045e-16
2.22045e-16
2.22045e-16
2.22045e-16
2.22045e-16
2.22045e-16
2.22045e-16
2.22045e-16
2.22045e-16
2.22045e-16
2.22045e-16
2.22045e-16
2.22045e-16
2.22045e-16
2.22045e-16
2.22045e-16
2.22045e-16
2.22045e-16
2.22045e-16
2.22045e-16
2.22045e-16
2.22045e-16
2.22045e-16
2.22045e-16
2.22045e-16
2.22045e-16
2.22045e-16
2.22045e-16
2.22045e-16
2.22045e-16
2.22045e-16
2.22045e-16
2.22045e-16
2.22045e-16
2.22045e-16
2.22045e-16
2.22045e-16
2.22045e-16
2.22045e-16
2.22045e-16
2.22045e-16
2.22045e-16
2.22048e-16
2.22367e-16
2.23671e-16
2.26898e-16
2.33375e-16
2.4639e-16
2.69389e-16
3.11293e-16
3.91664e-16
5.4162e-16
8.50832e-16
1.51417e-15
3.00817e-15
6.39744e-15
1.41382e-14
3.14991e-14
6.3007e-14
1.41467e-13
2.0272e-13
2.27413e-13
2.34784e-13
2.2986e-13
2.36228e-13
4.76929e-06
1.79906e-06
1.9305e-06
4.20305e-06
5.67636e-06
8.58162e-06
1.435e-05
2.50016e-05
4.33342e-05
7.27198e-05
0.000115302
0.00017122
0.00023644
0.000300174
0.000347607
0.000376899
0.000386133
0.000352442
0.00033395
0.000287119
0.000247951
0.000207548
0.000170714
0.000139222
0.000112233
8.99264e-05
7.19476e-05
5.74114e-05
4.59674e-05
3.68661e-05
2.92157e-05
2.30492e-05
1.8202e-05
1.43908e-05
1.14036e-05
9.05311e-06
7.19839e-06
5.73098e-06
4.56763e-06
3.64442e-06
2.91158e-06
2.32772e-06
1.86511e-06
1.49799e-06
1.20438e-06
9.67257e-07
7.76046e-07
6.22409e-07
4.99045e-07
3.99965e-07
3.20363e-07
2.56397e-07
2.04996e-07
1.63702e-07
1.30544e-07
1.03936e-07
8.26045e-08
6.55228e-08
5.18629e-08
4.09566e-08
3.22642e-08
2.53502e-08
1.98625e-08
1.55172e-08
1.20851e-08
9.38174e-09
7.2584e-09
5.59572e-09
4.29792e-09
3.28833e-09
2.50572e-09
1.9013e-09
1.4363e-09
1.08e-09
8.08152e-10
6.01651e-10
4.45515e-10
3.28033e-10
2.40086e-10
1.74601e-10
1.26116e-10
9.04345e-11
6.43412e-11
4.53897e-11
3.17255e-11
2.19502e-11
1.50167e-11
1.01456e-11
6.75676e-12
4.42897e-12
2.84706e-12
1.79227e-12
1.09457e-12
6.53248e-13
3.81626e-13
2.17808e-13
1.21257e-13
6.5742e-14
3.46731e-14
1.77894e-14
8.89545e-15
4.35952e-15
2.12362e-15
1.06124e-15
5.76428e-16
3.64801e-16
2.76767e-16
2.41972e-16
2.28933e-16
2.24304e-16
2.22748e-16
2.22253e-16
2.22103e-16
2.2206e-16
2.22049e-16
2.22046e-16
2.22045e-16
2.22045e-16
2.22045e-16
2.22045e-16
2.22045e-16
2.22045e-16