/*--------------------------------*- C++ -*----------------------------------*\
  =========                 |
  \\      /  F ield         | OpenFOAM: The Open Source CFD Toolbox
   \\    /   O peration     | Website:  https://openfoam.org
    \\  /    A nd           | Version:  7
     \\/     M anipulation  |
\*---------------------------------------------------------------------------*/
FoamFile
{
    version     2.0;
    format      ascii;
    class       volScalarField;
    location    "0.006";
    object      pPrime2Mean;
}
// * * * * * * * * * * * * * * * * * * * * * * * * * * * * * * * * * * * * * //

dimensions      [0 4 -4 0 0 0 0];

internalField   nonuniform List<scalar> 
12225
(
5.90195e+07
5.80756e+07
5.71016e+07
5.61629e+07
5.52618e+07
5.43954e+07
5.35611e+07
5.27563e+07
5.19784e+07
5.12245e+07
5.04915e+07
4.9776e+07
4.90736e+07
4.83792e+07
4.76855e+07
4.69811e+07
4.62462e+07
4.54312e+07
5.90202e+07
5.80759e+07
5.7102e+07
5.61633e+07
5.52623e+07
5.4396e+07
5.35618e+07
5.27571e+07
5.19794e+07
5.12258e+07
5.04932e+07
4.97781e+07
4.90765e+07
4.83832e+07
4.76915e+07
4.69906e+07
4.62642e+07
4.54719e+07
5.90214e+07
5.80768e+07
5.71028e+07
5.61643e+07
5.52634e+07
5.43973e+07
5.35633e+07
5.2759e+07
5.19817e+07
5.12286e+07
5.04968e+07
4.97828e+07
4.90828e+07
4.8392e+07
4.77043e+07
4.70111e+07
4.63003e+07
4.55567e+07
5.90227e+07
5.80781e+07
5.71042e+07
5.61659e+07
5.52652e+07
5.43994e+07
5.35659e+07
5.27621e+07
5.19855e+07
5.12334e+07
5.05028e+07
4.97906e+07
4.90932e+07
4.84063e+07
4.77248e+07
4.70427e+07
4.63537e+07
4.56581e+07
5.90242e+07
5.80799e+07
5.71063e+07
5.61682e+07
5.52679e+07
5.44026e+07
5.35696e+07
5.27667e+07
5.19911e+07
5.12403e+07
5.05116e+07
4.98019e+07
4.91081e+07
4.84266e+07
4.77535e+07
4.70854e+07
4.64208e+07
4.57679e+07
5.90265e+07
5.80825e+07
5.71092e+07
5.61714e+07
5.52716e+07
5.44069e+07
5.35748e+07
5.27729e+07
5.19988e+07
5.12499e+07
5.05236e+07
4.98173e+07
4.91281e+07
4.84534e+07
4.77906e+07
4.71383e+07
4.64984e+07
4.58817e+07
5.90293e+07
5.80859e+07
5.7113e+07
5.61757e+07
5.52765e+07
5.44127e+07
5.35817e+07
5.27812e+07
5.20088e+07
5.12623e+07
5.05391e+07
4.9837e+07
4.91537e+07
4.84871e+07
4.78359e+07
4.72004e+07
4.65842e+07
4.59974e+07
5.90331e+07
5.80904e+07
5.7118e+07
5.61813e+07
5.52829e+07
5.44201e+07
5.35904e+07
5.27917e+07
5.20216e+07
5.1278e+07
5.05587e+07
4.98616e+07
4.9185e+07
4.85276e+07
4.7889e+07
4.72704e+07
4.66761e+07
4.61143e+07
5.90384e+07
5.80961e+07
5.71242e+07
5.61882e+07
5.52908e+07
5.44293e+07
5.36013e+07
5.28047e+07
5.20374e+07
5.12973e+07
5.05825e+07
4.98913e+07
4.92224e+07
4.8575e+07
4.79494e+07
4.73473e+07
4.67727e+07
4.62317e+07
5.90447e+07
5.81033e+07
5.71319e+07
5.61967e+07
5.53005e+07
5.44406e+07
5.36146e+07
5.28206e+07
5.20566e+07
5.13206e+07
5.06109e+07
4.99263e+07
4.92658e+07
4.86289e+07
4.80163e+07
4.74299e+07
4.68729e+07
4.63495e+07
5.90545e+07
5.81121e+07
5.71413e+07
5.62071e+07
5.53123e+07
5.44542e+07
5.36306e+07
5.28396e+07
5.20793e+07
5.1348e+07
5.06442e+07
4.99667e+07
4.9315e+07
4.86889e+07
4.80891e+07
4.75173e+07
4.69758e+07
4.64675e+07
5.9063e+07
5.81219e+07
5.71517e+07
5.62185e+07
5.53252e+07
5.4469e+07
5.3648e+07
5.28601e+07
5.21037e+07
5.13771e+07
5.06791e+07
5.00087e+07
4.93653e+07
4.87491e+07
4.81606e+07
4.7601e+07
4.70721e+07
4.65757e+07
5.9075e+07
5.81333e+07
5.71635e+07
5.62315e+07
5.53398e+07
5.44859e+07
5.36676e+07
5.28832e+07
5.21309e+07
5.14094e+07
5.07174e+07
5.00542e+07
4.94193e+07
4.88127e+07
4.82348e+07
4.76865e+07
4.71689e+07
4.66828e+07
5.90908e+07
5.81484e+07
5.71793e+07
5.62487e+07
5.53591e+07
5.4508e+07
5.36932e+07
5.2913e+07
5.2166e+07
5.14506e+07
5.07659e+07
5.01111e+07
4.94857e+07
4.88896e+07
4.83231e+07
4.77865e+07
4.72802e+07
4.68044e+07
5.91112e+07
5.81683e+07
5.72001e+07
5.62713e+07
5.53844e+07
5.45368e+07
5.37264e+07
5.29515e+07
5.22107e+07
5.15027e+07
5.08264e+07
5.0181e+07
4.95661e+07
4.89814e+07
4.84266e+07
4.79017e+07
4.74066e+07
4.69409e+07
5.91361e+07
5.8194e+07
5.72271e+07
5.63008e+07
5.54173e+07
5.4574e+07
5.37689e+07
5.30004e+07
5.2267e+07
5.15673e+07
5.09005e+07
5.02655e+07
4.96617e+07
4.90886e+07
4.85455e+07
4.80322e+07
4.75478e+07
4.70917e+07
5.91679e+07
5.82265e+07
5.72617e+07
5.63385e+07
5.54592e+07
5.46211e+07
5.38223e+07
5.30611e+07
5.2336e+07
5.16456e+07
5.09889e+07
5.03648e+07
4.97724e+07
4.92108e+07
4.86792e+07
4.81767e+07
4.77024e+07
4.72553e+07
5.92048e+07
5.82665e+07
5.73048e+07
5.63854e+07
5.5511e+07
5.46789e+07
5.38872e+07
5.3134e+07
5.24178e+07
5.17372e+07
5.10909e+07
5.04777e+07
4.98963e+07
4.93457e+07
4.88247e+07
4.83323e+07
4.78671e+07
4.74281e+07
5.92516e+07
5.83154e+07
5.73567e+07
5.64415e+07
5.55723e+07
5.47466e+07
5.39622e+07
5.32173e+07
5.25102e+07
5.18393e+07
5.12031e+07
5.06001e+07
5.00289e+07
4.94883e+07
4.89768e+07
4.84931e+07
4.8036e+07
4.7604e+07
5.92988e+07
5.83606e+07
5.74027e+07
5.64901e+07
5.56248e+07
5.48039e+07
5.40251e+07
5.32863e+07
5.25858e+07
5.19217e+07
5.12925e+07
5.06965e+07
5.01323e+07
4.95982e+07
4.90929e+07
4.8615e+07
4.81631e+07
4.77357e+07
5.93287e+07
5.83915e+07
5.74347e+07
5.6524e+07
5.56613e+07
5.48435e+07
5.40682e+07
5.33333e+07
5.26369e+07
5.19772e+07
5.13523e+07
5.07606e+07
5.02005e+07
4.96704e+07
4.91689e+07
4.86944e+07
4.82455e+07
4.78208e+07
5.93537e+07
5.84147e+07
5.74585e+07
5.65492e+07
5.56883e+07
5.48728e+07
5.41e+07
5.33679e+07
5.26744e+07
5.20176e+07
5.13957e+07
5.08069e+07
5.02496e+07
4.97222e+07
4.92232e+07
4.87509e+07
4.83041e+07
4.78812e+07
5.93668e+07
5.84304e+07
5.74754e+07
5.65673e+07
5.57079e+07
5.4894e+07
5.41231e+07
5.33929e+07
5.27014e+07
5.20466e+07
5.14267e+07
5.084e+07
5.02846e+07
4.9759e+07
4.92617e+07
4.8791e+07
4.83455e+07
4.79239e+07
5.93776e+07
5.84413e+07
5.74872e+07
5.65802e+07
5.57218e+07
5.49091e+07
5.41394e+07
5.34106e+07
5.27205e+07
5.20671e+07
5.14486e+07
5.08632e+07
5.03092e+07
4.97848e+07
4.92886e+07
4.88189e+07
4.83744e+07
4.79536e+07
5.93843e+07
5.84485e+07
5.74952e+07
5.6589e+07
5.57315e+07
5.49196e+07
5.41508e+07
5.34228e+07
5.27337e+07
5.20813e+07
5.14637e+07
5.08793e+07
5.03261e+07
4.98026e+07
4.93071e+07
4.88382e+07
4.83943e+07
4.7974e+07
5.93859e+07
5.84527e+07
5.75005e+07
5.65949e+07
5.57379e+07
5.49266e+07
5.41584e+07
5.34311e+07
5.27426e+07
5.20908e+07
5.14739e+07
5.089e+07
5.03374e+07
4.98145e+07
4.93195e+07
4.8851e+07
4.84075e+07
4.79876e+07
5.93871e+07
5.84554e+07
5.75038e+07
5.65987e+07
5.57421e+07
5.49312e+07
5.41634e+07
5.34364e+07
5.27483e+07
5.20969e+07
5.14804e+07
5.0897e+07
5.03448e+07
4.98221e+07
4.93275e+07
4.88593e+07
4.84161e+07
4.79964e+07
5.93885e+07
5.8457e+07
5.75058e+07
5.6601e+07
5.57447e+07
5.49339e+07
5.41664e+07
5.34397e+07
5.27518e+07
5.21007e+07
5.14844e+07
5.09012e+07
5.03492e+07
4.98268e+07
4.93323e+07
4.88643e+07
4.84213e+07
4.80017e+07
5.93894e+07
5.84579e+07
5.75069e+07
5.66022e+07
5.5746e+07
5.49354e+07
5.4168e+07
5.34414e+07
5.27537e+07
5.21027e+07
5.14866e+07
5.09034e+07
5.03516e+07
4.98293e+07
4.93349e+07
4.8867e+07
4.8424e+07
4.80046e+07
5.93898e+07
5.84583e+07
5.75073e+07
5.66027e+07
5.57466e+07
5.4936e+07
5.41686e+07
5.34421e+07
5.27544e+07
5.21035e+07
5.14874e+07
5.09044e+07
5.03525e+07
4.98303e+07
4.9336e+07
4.88681e+07
4.84252e+07
4.80058e+07
3.83869e+07
3.83839e+07
3.83777e+07
3.83684e+07
3.83558e+07
3.83399e+07
3.83207e+07
3.8298e+07
3.8272e+07
3.82424e+07
3.82093e+07
3.81727e+07
3.81324e+07
3.80886e+07
3.80412e+07
3.79901e+07
3.79353e+07
3.78769e+07
3.78149e+07
3.77492e+07
3.76799e+07
3.7607e+07
3.75304e+07
3.74502e+07
3.73665e+07
3.72793e+07
3.71885e+07
3.70943e+07
3.69966e+07
3.68955e+07
3.67911e+07
3.66833e+07
3.65722e+07
3.64579e+07
3.63405e+07
3.62198e+07
3.60961e+07
3.59693e+07
3.58396e+07
3.57068e+07
3.55712e+07
3.54327e+07
3.52915e+07
3.51475e+07
3.50007e+07
3.48514e+07
3.46994e+07
3.45449e+07
3.43879e+07
3.42284e+07
3.40666e+07
3.39024e+07
3.37359e+07
3.35671e+07
3.33961e+07
3.32229e+07
3.30476e+07
3.28702e+07
3.26908e+07
3.25093e+07
3.23259e+07
3.21406e+07
3.19534e+07
3.17644e+07
3.15736e+07
3.1381e+07
3.11866e+07
3.09906e+07
3.07929e+07
3.05936e+07
3.03927e+07
3.01903e+07
2.99863e+07
2.97808e+07
2.95738e+07
2.93655e+07
2.91557e+07
2.89445e+07
2.8732e+07
2.85182e+07
2.83031e+07
2.80867e+07
2.7869e+07
2.76502e+07
2.74302e+07
2.7209e+07
2.69867e+07
2.67633e+07
2.65387e+07
2.63132e+07
2.60865e+07
2.58589e+07
2.56303e+07
2.54007e+07
2.51701e+07
2.49386e+07
2.47062e+07
2.4473e+07
2.42388e+07
2.40039e+07
2.37681e+07
2.35315e+07
2.32942e+07
2.30561e+07
2.28172e+07
2.25777e+07
2.23375e+07
2.20966e+07
2.18551e+07
2.16129e+07
2.13702e+07
2.11268e+07
2.0883e+07
2.06386e+07
2.03936e+07
2.01483e+07
1.99024e+07
1.96561e+07
1.94094e+07
1.91624e+07
1.89149e+07
1.86672e+07
1.84191e+07
1.81707e+07
1.79221e+07
1.76733e+07
1.74242e+07
1.7175e+07
1.69257e+07
1.66762e+07
1.64266e+07
1.6177e+07
1.59274e+07
1.56778e+07
1.54282e+07
1.51787e+07
1.49293e+07
1.468e+07
1.44309e+07
1.41821e+07
1.39335e+07
1.36851e+07
1.34371e+07
1.31894e+07
1.29422e+07
1.26954e+07
1.24491e+07
1.22032e+07
1.1958e+07
1.17134e+07
1.14694e+07
1.12261e+07
1.09836e+07
1.07418e+07
1.05009e+07
1.02609e+07
1.00219e+07
9.7838e+06
9.54679e+06
9.31087e+06
9.07612e+06
8.84259e+06
8.61033e+06
8.37942e+06
8.14992e+06
7.92189e+06
7.6954e+06
7.47053e+06
7.24737e+06
7.02598e+06
6.80648e+06
6.58895e+06
6.37353e+06
6.16034e+06
5.94954e+06
5.74136e+06
5.53607e+06
5.33409e+06
5.13612e+06
4.94373e+06
3.84008e+07
3.83977e+07
3.83915e+07
3.83821e+07
3.83694e+07
3.83535e+07
3.83341e+07
3.83114e+07
3.82851e+07
3.82554e+07
3.82221e+07
3.81853e+07
3.81449e+07
3.81008e+07
3.80531e+07
3.80018e+07
3.79468e+07
3.78881e+07
3.78258e+07
3.77598e+07
3.76902e+07
3.7617e+07
3.75402e+07
3.74597e+07
3.73757e+07
3.72882e+07
3.71971e+07
3.71026e+07
3.70046e+07
3.69032e+07
3.67985e+07
3.66904e+07
3.65791e+07
3.64645e+07
3.63468e+07
3.62259e+07
3.61019e+07
3.59749e+07
3.58449e+07
3.57119e+07
3.55761e+07
3.54374e+07
3.52959e+07
3.51517e+07
3.50047e+07
3.48552e+07
3.4703e+07
3.45484e+07
3.43912e+07
3.42316e+07
3.40696e+07
3.39052e+07
3.37385e+07
3.35696e+07
3.33985e+07
3.32252e+07
3.30497e+07
3.28722e+07
3.26927e+07
3.25112e+07
3.23277e+07
3.21423e+07
3.1955e+07
3.17659e+07
3.15749e+07
3.13823e+07
3.11879e+07
3.09918e+07
3.0794e+07
3.05946e+07
3.03937e+07
3.01912e+07
2.99871e+07
2.97816e+07
2.95746e+07
2.93662e+07
2.91563e+07
2.89451e+07
2.87326e+07
2.85187e+07
2.83036e+07
2.80871e+07
2.78695e+07
2.76506e+07
2.74306e+07
2.72094e+07
2.6987e+07
2.67636e+07
2.6539e+07
2.63134e+07
2.60868e+07
2.58591e+07
2.56305e+07
2.54009e+07
2.51703e+07
2.49388e+07
2.47064e+07
2.44731e+07
2.4239e+07
2.4004e+07
2.37682e+07
2.35316e+07
2.32943e+07
2.30562e+07
2.28173e+07
2.25778e+07
2.23375e+07
2.20967e+07
2.18551e+07
2.1613e+07
2.13702e+07
2.11269e+07
2.0883e+07
2.06386e+07
2.03937e+07
2.01483e+07
1.99024e+07
1.96562e+07
1.94095e+07
1.91624e+07
1.8915e+07
1.86672e+07
1.84191e+07
1.81707e+07
1.79221e+07
1.76733e+07
1.74243e+07
1.7175e+07
1.69257e+07
1.66762e+07
1.64267e+07
1.6177e+07
1.59274e+07
1.56778e+07
1.54282e+07
1.51787e+07
1.49293e+07
1.468e+07
1.44309e+07
1.41821e+07
1.39335e+07
1.36851e+07
1.34371e+07
1.31894e+07
1.29422e+07
1.26954e+07
1.24491e+07
1.22032e+07
1.1958e+07
1.17134e+07
1.14694e+07
1.12261e+07
1.09836e+07
1.07418e+07
1.05009e+07
1.02609e+07
1.00219e+07
9.7838e+06
9.54679e+06
9.31087e+06
9.07612e+06
8.84258e+06
8.61033e+06
8.37942e+06
8.14991e+06
7.92188e+06
7.69539e+06
7.47052e+06
7.24734e+06
7.02595e+06
6.80644e+06
6.5889e+06
6.37346e+06
6.16025e+06
5.94943e+06
5.7412e+06
5.53583e+06
5.33371e+06
5.13546e+06
4.94216e+06
3.84286e+07
3.84255e+07
3.84192e+07
3.84097e+07
3.83968e+07
3.83807e+07
3.83611e+07
3.8338e+07
3.83115e+07
3.82814e+07
3.82478e+07
3.82106e+07
3.81697e+07
3.81252e+07
3.8077e+07
3.80252e+07
3.79697e+07
3.79105e+07
3.78476e+07
3.77811e+07
3.77109e+07
3.76371e+07
3.75597e+07
3.74786e+07
3.7394e+07
3.73059e+07
3.72142e+07
3.71191e+07
3.70205e+07
3.69186e+07
3.68133e+07
3.67047e+07
3.65928e+07
3.64777e+07
3.63594e+07
3.6238e+07
3.61135e+07
3.59859e+07
3.58554e+07
3.5722e+07
3.55857e+07
3.54466e+07
3.53047e+07
3.51601e+07
3.50127e+07
3.48628e+07
3.47103e+07
3.45553e+07
3.43977e+07
3.42378e+07
3.40755e+07
3.39108e+07
3.37438e+07
3.35746e+07
3.34032e+07
3.32297e+07
3.3054e+07
3.28763e+07
3.26965e+07
3.25148e+07
3.23311e+07
3.21455e+07
3.1958e+07
3.17687e+07
3.15777e+07
3.13848e+07
3.11903e+07
3.0994e+07
3.07962e+07
3.05967e+07
3.03956e+07
3.01929e+07
2.99888e+07
2.97831e+07
2.95761e+07
2.93675e+07
2.91576e+07
2.89463e+07
2.87337e+07
2.85198e+07
2.83046e+07
2.80881e+07
2.78704e+07
2.76514e+07
2.74313e+07
2.72101e+07
2.69877e+07
2.67642e+07
2.65396e+07
2.6314e+07
2.60873e+07
2.58596e+07
2.56309e+07
2.54013e+07
2.51707e+07
2.49391e+07
2.47067e+07
2.44734e+07
2.42393e+07
2.40043e+07
2.37685e+07
2.35318e+07
2.32945e+07
2.30563e+07
2.28175e+07
2.25779e+07
2.23377e+07
2.20968e+07
2.18552e+07
2.16131e+07
2.13703e+07
2.1127e+07
2.08831e+07
2.06387e+07
2.03938e+07
2.01484e+07
1.99025e+07
1.96562e+07
1.94095e+07
1.91624e+07
1.8915e+07
1.86672e+07
1.84191e+07
1.81708e+07
1.79222e+07
1.76733e+07
1.74243e+07
1.71751e+07
1.69257e+07
1.66762e+07
1.64267e+07
1.61771e+07
1.59274e+07
1.56778e+07
1.54282e+07
1.51787e+07
1.49293e+07
1.468e+07
1.4431e+07
1.41821e+07
1.39335e+07
1.36851e+07
1.34371e+07
1.31895e+07
1.29422e+07
1.26954e+07
1.24491e+07
1.22032e+07
1.1958e+07
1.17134e+07
1.14694e+07
1.12261e+07
1.09836e+07
1.07418e+07
1.05009e+07
1.02609e+07
1.00219e+07
9.7838e+06
9.54678e+06
9.31087e+06
9.07611e+06
8.84258e+06
8.61032e+06
8.3794e+06
8.14989e+06
7.92185e+06
7.69536e+06
7.47048e+06
7.2473e+06
7.02589e+06
6.80636e+06
6.58881e+06
6.37333e+06
6.16008e+06
5.9492e+06
5.74088e+06
5.53537e+06
5.333e+06
5.13425e+06
4.93971e+06
3.84706e+07
3.84674e+07
3.8461e+07
3.84512e+07
3.84381e+07
3.84217e+07
3.84017e+07
3.83783e+07
3.83513e+07
3.83207e+07
3.82865e+07
3.82486e+07
3.82071e+07
3.81619e+07
3.8113e+07
3.80605e+07
3.80042e+07
3.79441e+07
3.78804e+07
3.78131e+07
3.7742e+07
3.76673e+07
3.7589e+07
3.7507e+07
3.74215e+07
3.73325e+07
3.72399e+07
3.71439e+07
3.70445e+07
3.69416e+07
3.68354e+07
3.6726e+07
3.66132e+07
3.64973e+07
3.63782e+07
3.6256e+07
3.61308e+07
3.60025e+07
3.58713e+07
3.57372e+07
3.56002e+07
3.54604e+07
3.53178e+07
3.51726e+07
3.50247e+07
3.48742e+07
3.47211e+07
3.45656e+07
3.44075e+07
3.42471e+07
3.40843e+07
3.39192e+07
3.37518e+07
3.35822e+07
3.34104e+07
3.32365e+07
3.30604e+07
3.28823e+07
3.27023e+07
3.25202e+07
3.23362e+07
3.21503e+07
3.19626e+07
3.17731e+07
3.15817e+07
3.13887e+07
3.11939e+07
3.09974e+07
3.07994e+07
3.05997e+07
3.03984e+07
3.01956e+07
2.99913e+07
2.97855e+07
2.95783e+07
2.93696e+07
2.91596e+07
2.89482e+07
2.87354e+07
2.85214e+07
2.8306e+07
2.80895e+07
2.78717e+07
2.76527e+07
2.74325e+07
2.72111e+07
2.69887e+07
2.67651e+07
2.65405e+07
2.63148e+07
2.6088e+07
2.58603e+07
2.56316e+07
2.54019e+07
2.51712e+07
2.49397e+07
2.47072e+07
2.44739e+07
2.42397e+07
2.40046e+07
2.37688e+07
2.35322e+07
2.32948e+07
2.30566e+07
2.28177e+07
2.25782e+07
2.23379e+07
2.2097e+07
2.18554e+07
2.16132e+07
2.13705e+07
2.11271e+07
2.08832e+07
2.06388e+07
2.03939e+07
2.01485e+07
1.99026e+07
1.96563e+07
1.94096e+07
1.91625e+07
1.89151e+07
1.86673e+07
1.84192e+07
1.81708e+07
1.79222e+07
1.76734e+07
1.74243e+07
1.71751e+07
1.69257e+07
1.66763e+07
1.64267e+07
1.61771e+07
1.59274e+07
1.56778e+07
1.54282e+07
1.51787e+07
1.49293e+07
1.46801e+07
1.4431e+07
1.41821e+07
1.39335e+07
1.36851e+07
1.34371e+07
1.31895e+07
1.29422e+07
1.26954e+07
1.24491e+07
1.22033e+07
1.1958e+07
1.17134e+07
1.14694e+07
1.12261e+07
1.09836e+07
1.07418e+07
1.05009e+07
1.02609e+07
1.00219e+07
9.7838e+06
9.54678e+06
9.31086e+06
9.0761e+06
8.84256e+06
8.6103e+06
8.37938e+06
8.14987e+06
7.92182e+06
7.69532e+06
7.47043e+06
7.24723e+06
7.02581e+06
6.80625e+06
6.58866e+06
6.37314e+06
6.15983e+06
5.94886e+06
5.74041e+06
5.5347e+06
5.33201e+06
5.13264e+06
4.93685e+06
3.8527e+07
3.85237e+07
3.8517e+07
3.8507e+07
3.84936e+07
3.84767e+07
3.84562e+07
3.84322e+07
3.84046e+07
3.83733e+07
3.83383e+07
3.82996e+07
3.82572e+07
3.82111e+07
3.81612e+07
3.81076e+07
3.80502e+07
3.79891e+07
3.79243e+07
3.78557e+07
3.77835e+07
3.77076e+07
3.76281e+07
3.75449e+07
3.74582e+07
3.73679e+07
3.72742e+07
3.71769e+07
3.70763e+07
3.69723e+07
3.68649e+07
3.67543e+07
3.66405e+07
3.65235e+07
3.64033e+07
3.628e+07
3.61538e+07
3.60245e+07
3.58923e+07
3.57573e+07
3.56194e+07
3.54787e+07
3.53353e+07
3.51893e+07
3.50406e+07
3.48893e+07
3.47355e+07
3.45792e+07
3.44205e+07
3.42594e+07
3.4096e+07
3.39303e+07
3.37623e+07
3.35922e+07
3.34199e+07
3.32454e+07
3.30689e+07
3.28904e+07
3.27099e+07
3.25274e+07
3.2343e+07
3.21567e+07
3.19687e+07
3.17788e+07
3.15871e+07
3.13937e+07
3.11987e+07
3.10019e+07
3.08036e+07
3.06037e+07
3.04022e+07
3.01991e+07
2.99946e+07
2.97886e+07
2.95812e+07
2.93723e+07
2.91621e+07
2.89506e+07
2.87377e+07
2.85235e+07
2.8308e+07
2.80913e+07
2.78734e+07
2.76543e+07
2.7434e+07
2.72125e+07
2.699e+07
2.67663e+07
2.65416e+07
2.63158e+07
2.6089e+07
2.58612e+07
2.56324e+07
2.54027e+07
2.5172e+07
2.49403e+07
2.47078e+07
2.44744e+07
2.42402e+07
2.40051e+07
2.37693e+07
2.35326e+07
2.32952e+07
2.3057e+07
2.28181e+07
2.25785e+07
2.23382e+07
2.20972e+07
2.18557e+07
2.16135e+07
2.13707e+07
2.11273e+07
2.08834e+07
2.06389e+07
2.0394e+07
2.01486e+07
1.99027e+07
1.96564e+07
1.94097e+07
1.91626e+07
1.89151e+07
1.86674e+07
1.84193e+07
1.81709e+07
1.79223e+07
1.76734e+07
1.74244e+07
1.71751e+07
1.69258e+07
1.66763e+07
1.64267e+07
1.61771e+07
1.59275e+07
1.56778e+07
1.54282e+07
1.51787e+07
1.49293e+07
1.46801e+07
1.4431e+07
1.41821e+07
1.39335e+07
1.36851e+07
1.34371e+07
1.31895e+07
1.29422e+07
1.26954e+07
1.24491e+07
1.22033e+07
1.1958e+07
1.17134e+07
1.14694e+07
1.12261e+07
1.09836e+07
1.07418e+07
1.05009e+07
1.02609e+07
1.00219e+07
9.78379e+06
9.54677e+06
9.31085e+06
9.07609e+06
8.84255e+06
8.61028e+06
8.37936e+06
8.14983e+06
7.92178e+06
7.69526e+06
7.47036e+06
7.24714e+06
7.02569e+06
6.8061e+06
6.58847e+06
6.3729e+06
6.1595e+06
5.94842e+06
5.73982e+06
5.53387e+06
5.33079e+06
5.13077e+06
4.93385e+06
3.85981e+07
3.85946e+07
3.85877e+07
3.85774e+07
3.85635e+07
3.8546e+07
3.85249e+07
3.85002e+07
3.84717e+07
3.84395e+07
3.84036e+07
3.83638e+07
3.83203e+07
3.82729e+07
3.82218e+07
3.81668e+07
3.81081e+07
3.80455e+07
3.79792e+07
3.79092e+07
3.78355e+07
3.7758e+07
3.7677e+07
3.75923e+07
3.7504e+07
3.74122e+07
3.73169e+07
3.72182e+07
3.7116e+07
3.70105e+07
3.69017e+07
3.67897e+07
3.66744e+07
3.6556e+07
3.64345e+07
3.63099e+07
3.61824e+07
3.60519e+07
3.59185e+07
3.57823e+07
3.56433e+07
3.55015e+07
3.5357e+07
3.521e+07
3.50603e+07
3.49081e+07
3.47534e+07
3.45962e+07
3.44367e+07
3.42748e+07
3.41106e+07
3.39441e+07
3.37754e+07
3.36046e+07
3.34316e+07
3.32566e+07
3.30795e+07
3.29004e+07
3.27193e+07
3.25363e+07
3.23514e+07
3.21647e+07
3.19762e+07
3.17859e+07
3.15938e+07
3.14e+07
3.12046e+07
3.10075e+07
3.08089e+07
3.06086e+07
3.04068e+07
3.02035e+07
2.99987e+07
2.97925e+07
2.95848e+07
2.93758e+07
2.91653e+07
2.89536e+07
2.87405e+07
2.85261e+07
2.83105e+07
2.80936e+07
2.78755e+07
2.76563e+07
2.74359e+07
2.72143e+07
2.69916e+07
2.67679e+07
2.6543e+07
2.63171e+07
2.60903e+07
2.58624e+07
2.56335e+07
2.54036e+07
2.51729e+07
2.49412e+07
2.47086e+07
2.44752e+07
2.42409e+07
2.40058e+07
2.37698e+07
2.35331e+07
2.32957e+07
2.30574e+07
2.28185e+07
2.25789e+07
2.23385e+07
2.20976e+07
2.1856e+07
2.16137e+07
2.13709e+07
2.11275e+07
2.08836e+07
2.06391e+07
2.03942e+07
2.01487e+07
1.99029e+07
1.96565e+07
1.94098e+07
1.91627e+07
1.89152e+07
1.86674e+07
1.84193e+07
1.8171e+07
1.79223e+07
1.76735e+07
1.74244e+07
1.71752e+07
1.69258e+07
1.66763e+07
1.64268e+07
1.61771e+07
1.59275e+07
1.56779e+07
1.54283e+07
1.51788e+07
1.49293e+07
1.46801e+07
1.4431e+07
1.41821e+07
1.39335e+07
1.36852e+07
1.34371e+07
1.31895e+07
1.29422e+07
1.26954e+07
1.24491e+07
1.22033e+07
1.1958e+07
1.17134e+07
1.14694e+07
1.12261e+07
1.09836e+07
1.07418e+07
1.05009e+07
1.02609e+07
1.00219e+07
9.78379e+06
9.54676e+06
9.31084e+06
9.07608e+06
8.84253e+06
8.61026e+06
8.37933e+06
8.14979e+06
7.92173e+06
7.6952e+06
7.47027e+06
7.24703e+06
7.02555e+06
6.80593e+06
6.58824e+06
6.3726e+06
6.15911e+06
5.9479e+06
5.73911e+06
5.5329e+06
5.3294e+06
5.12874e+06
4.93083e+06
3.86845e+07
3.86808e+07
3.86736e+07
3.86628e+07
3.86483e+07
3.86302e+07
3.86083e+07
3.85826e+07
3.85531e+07
3.85197e+07
3.84825e+07
3.84414e+07
3.83964e+07
3.83476e+07
3.82948e+07
3.82382e+07
3.81778e+07
3.81135e+07
3.80454e+07
3.79735e+07
3.78979e+07
3.78186e+07
3.77357e+07
3.76491e+07
3.75589e+07
3.74653e+07
3.73681e+07
3.72675e+07
3.71635e+07
3.70563e+07
3.69457e+07
3.68319e+07
3.6715e+07
3.65949e+07
3.64718e+07
3.63456e+07
3.62165e+07
3.60846e+07
3.59497e+07
3.58121e+07
3.56717e+07
3.55286e+07
3.53829e+07
3.52346e+07
3.50838e+07
3.49304e+07
3.47746e+07
3.46164e+07
3.44559e+07
3.4293e+07
3.41279e+07
3.39605e+07
3.3791e+07
3.36194e+07
3.34456e+07
3.32698e+07
3.3092e+07
3.29122e+07
3.27305e+07
3.25469e+07
3.23615e+07
3.21742e+07
3.19851e+07
3.17943e+07
3.16018e+07
3.14075e+07
3.12117e+07
3.10142e+07
3.08151e+07
3.06145e+07
3.04124e+07
3.02087e+07
3.00036e+07
2.97971e+07
2.95891e+07
2.93798e+07
2.91691e+07
2.89571e+07
2.87438e+07
2.85292e+07
2.83134e+07
2.80963e+07
2.78781e+07
2.76587e+07
2.74381e+07
2.72164e+07
2.69936e+07
2.67697e+07
2.65447e+07
2.63187e+07
2.60917e+07
2.58637e+07
2.56347e+07
2.54048e+07
2.5174e+07
2.49422e+07
2.47096e+07
2.4476e+07
2.42417e+07
2.40065e+07
2.37705e+07
2.35338e+07
2.32962e+07
2.3058e+07
2.2819e+07
2.25793e+07
2.2339e+07
2.2098e+07
2.18563e+07
2.16141e+07
2.13712e+07
2.11278e+07
2.08838e+07
2.06394e+07
2.03944e+07
2.01489e+07
1.9903e+07
1.96567e+07
1.941e+07
1.91628e+07
1.89154e+07
1.86676e+07
1.84194e+07
1.81711e+07
1.79224e+07
1.76735e+07
1.74245e+07
1.71752e+07
1.69259e+07
1.66764e+07
1.64268e+07
1.61772e+07
1.59275e+07
1.56779e+07
1.54283e+07
1.51788e+07
1.49294e+07
1.46801e+07
1.4431e+07
1.41821e+07
1.39335e+07
1.36852e+07
1.34371e+07
1.31895e+07
1.29422e+07
1.26954e+07
1.24491e+07
1.22033e+07
1.1958e+07
1.17134e+07
1.14694e+07
1.12261e+07
1.09836e+07
1.07418e+07
1.05009e+07
1.02609e+07
1.00219e+07
9.78378e+06
9.54676e+06
9.31083e+06
9.07606e+06
8.84251e+06
8.61023e+06
8.37929e+06
8.14974e+06
7.92167e+06
7.69512e+06
7.47017e+06
7.24691e+06
7.02539e+06
6.80572e+06
6.58797e+06
6.37225e+06
6.15866e+06
5.94731e+06
5.73832e+06
5.53181e+06
5.3279e+06
5.12662e+06
4.92785e+06
3.87866e+07
3.87827e+07
3.87751e+07
3.87637e+07
3.87486e+07
3.87296e+07
3.87067e+07
3.86798e+07
3.86491e+07
3.86143e+07
3.85755e+07
3.85328e+07
3.84861e+07
3.84354e+07
3.83807e+07
3.83221e+07
3.82596e+07
3.81931e+07
3.81229e+07
3.80488e+07
3.7971e+07
3.78894e+07
3.78042e+07
3.77154e+07
3.7623e+07
3.75271e+07
3.74277e+07
3.73249e+07
3.72188e+07
3.71094e+07
3.69968e+07
3.68809e+07
3.6762e+07
3.664e+07
3.6515e+07
3.6387e+07
3.62561e+07
3.61224e+07
3.59858e+07
3.58466e+07
3.57046e+07
3.556e+07
3.54128e+07
3.52631e+07
3.51109e+07
3.49562e+07
3.47992e+07
3.46398e+07
3.44781e+07
3.43141e+07
3.41479e+07
3.39795e+07
3.3809e+07
3.36364e+07
3.34618e+07
3.32851e+07
3.31065e+07
3.2926e+07
3.27435e+07
3.25592e+07
3.23731e+07
3.21851e+07
3.19954e+07
3.1804e+07
3.1611e+07
3.14162e+07
3.12198e+07
3.10219e+07
3.08224e+07
3.06213e+07
3.04188e+07
3.02147e+07
3.00093e+07
2.98024e+07
2.95941e+07
2.93845e+07
2.91735e+07
2.89612e+07
2.87477e+07
2.85328e+07
2.83168e+07
2.80995e+07
2.7881e+07
2.76614e+07
2.74407e+07
2.72188e+07
2.69958e+07
2.67718e+07
2.65467e+07
2.63205e+07
2.60934e+07
2.58653e+07
2.56362e+07
2.54062e+07
2.51752e+07
2.49434e+07
2.47106e+07
2.44771e+07
2.42426e+07
2.40074e+07
2.37713e+07
2.35345e+07
2.32969e+07
2.30586e+07
2.28196e+07
2.25799e+07
2.23395e+07
2.20984e+07
2.18567e+07
2.16144e+07
2.13716e+07
2.11281e+07
2.08841e+07
2.06396e+07
2.03946e+07
2.01492e+07
1.99032e+07
1.96569e+07
1.94101e+07
1.9163e+07
1.89155e+07
1.86677e+07
1.84196e+07
1.81712e+07
1.79225e+07
1.76736e+07
1.74246e+07
1.71753e+07
1.69259e+07
1.66764e+07
1.64269e+07
1.61772e+07
1.59276e+07
1.56779e+07
1.54283e+07
1.51788e+07
1.49294e+07
1.46801e+07
1.4431e+07
1.41822e+07
1.39335e+07
1.36852e+07
1.34372e+07
1.31895e+07
1.29422e+07
1.26954e+07
1.24491e+07
1.22033e+07
1.1958e+07
1.17134e+07
1.14694e+07
1.12261e+07
1.09836e+07
1.07418e+07
1.05009e+07
1.02609e+07
1.00219e+07
9.78378e+06
9.54675e+06
9.31082e+06
9.07604e+06
8.84248e+06
8.6102e+06
8.37925e+06
8.14969e+06
7.9216e+06
7.69503e+06
7.47006e+06
7.24676e+06
7.02521e+06
6.80549e+06
6.58768e+06
6.37187e+06
6.15816e+06
5.94666e+06
5.73745e+06
5.53065e+06
5.32633e+06
5.12448e+06
4.92495e+06
3.89053e+07
3.89011e+07
3.8893e+07
3.88809e+07
3.88649e+07
3.88449e+07
3.88208e+07
3.87925e+07
3.87602e+07
3.87237e+07
3.86831e+07
3.86384e+07
3.85895e+07
3.85366e+07
3.84796e+07
3.84186e+07
3.83536e+07
3.82846e+07
3.82118e+07
3.81351e+07
3.80547e+07
3.79705e+07
3.78826e+07
3.77911e+07
3.76961e+07
3.75976e+07
3.74957e+07
3.73903e+07
3.72817e+07
3.71699e+07
3.70548e+07
3.69366e+07
3.68154e+07
3.66912e+07
3.6564e+07
3.64339e+07
3.63009e+07
3.61652e+07
3.60268e+07
3.58856e+07
3.57419e+07
3.55956e+07
3.54467e+07
3.52954e+07
3.51416e+07
3.49855e+07
3.4827e+07
3.46662e+07
3.45031e+07
3.43379e+07
3.41705e+07
3.4001e+07
3.38294e+07
3.36557e+07
3.34801e+07
3.33024e+07
3.31229e+07
3.29415e+07
3.27582e+07
3.2573e+07
3.23861e+07
3.21975e+07
3.20071e+07
3.1815e+07
3.16213e+07
3.1426e+07
3.12291e+07
3.10306e+07
3.08305e+07
3.0629e+07
3.0426e+07
3.02215e+07
3.00157e+07
2.98084e+07
2.95998e+07
2.93898e+07
2.91785e+07
2.89659e+07
2.8752e+07
2.85369e+07
2.83206e+07
2.81031e+07
2.78844e+07
2.76645e+07
2.74436e+07
2.72215e+07
2.69983e+07
2.67741e+07
2.65489e+07
2.63226e+07
2.60953e+07
2.58671e+07
2.56378e+07
2.54077e+07
2.51766e+07
2.49447e+07
2.47119e+07
2.44782e+07
2.42437e+07
2.40083e+07
2.37722e+07
2.35353e+07
2.32977e+07
2.30593e+07
2.28202e+07
2.25805e+07
2.234e+07
2.20989e+07
2.18572e+07
2.16149e+07
2.1372e+07
2.11285e+07
2.08845e+07
2.06399e+07
2.03949e+07
2.01494e+07
1.99035e+07
1.96571e+07
1.94103e+07
1.91632e+07
1.89157e+07
1.86678e+07
1.84197e+07
1.81713e+07
1.79226e+07
1.76737e+07
1.74246e+07
1.71754e+07
1.6926e+07
1.66765e+07
1.64269e+07
1.61773e+07
1.59276e+07
1.5678e+07
1.54284e+07
1.51788e+07
1.49294e+07
1.46802e+07
1.44311e+07
1.41822e+07
1.39335e+07
1.36852e+07
1.34372e+07
1.31895e+07
1.29423e+07
1.26954e+07
1.24491e+07
1.22033e+07
1.1958e+07
1.17134e+07
1.14694e+07
1.12261e+07
1.09836e+07
1.07418e+07
1.05009e+07
1.02609e+07
1.00219e+07
9.78377e+06
9.54674e+06
9.3108e+06
9.07602e+06
8.84246e+06
8.61016e+06
8.3792e+06
8.14963e+06
7.92152e+06
7.69493e+06
7.46994e+06
7.24661e+06
7.02501e+06
6.80524e+06
6.58735e+06
6.37145e+06
6.15762e+06
5.94596e+06
5.73654e+06
5.52944e+06
5.32472e+06
5.12234e+06
4.92216e+06
3.90414e+07
3.90368e+07
3.90281e+07
3.90153e+07
3.89982e+07
3.89769e+07
3.89513e+07
3.89214e+07
3.88871e+07
3.88486e+07
3.88057e+07
3.87586e+07
3.87072e+07
3.86516e+07
3.85919e+07
3.8528e+07
3.84601e+07
3.83881e+07
3.83123e+07
3.82325e+07
3.8149e+07
3.80617e+07
3.79708e+07
3.78763e+07
3.77782e+07
3.76767e+07
3.75718e+07
3.74636e+07
3.73521e+07
3.72375e+07
3.71197e+07
3.69989e+07
3.6875e+07
3.67483e+07
3.66186e+07
3.64861e+07
3.63509e+07
3.62129e+07
3.60723e+07
3.59291e+07
3.57834e+07
3.56351e+07
3.54844e+07
3.53312e+07
3.51757e+07
3.50179e+07
3.48578e+07
3.46955e+07
3.4531e+07
3.43644e+07
3.41956e+07
3.40248e+07
3.3852e+07
3.36771e+07
3.35003e+07
3.33216e+07
3.31411e+07
3.29587e+07
3.27744e+07
3.25884e+07
3.24007e+07
3.22112e+07
3.20201e+07
3.18273e+07
3.16329e+07
3.14369e+07
3.12393e+07
3.10402e+07
3.08396e+07
3.06376e+07
3.0434e+07
3.02291e+07
3.00228e+07
2.98151e+07
2.9606e+07
2.93956e+07
2.9184e+07
2.8971e+07
2.87569e+07
2.85414e+07
2.83248e+07
2.8107e+07
2.78881e+07
2.7668e+07
2.74468e+07
2.72245e+07
2.70012e+07
2.67767e+07
2.65513e+07
2.63249e+07
2.60974e+07
2.5869e+07
2.56397e+07
2.54094e+07
2.51782e+07
2.49462e+07
2.47132e+07
2.44794e+07
2.42448e+07
2.40094e+07
2.37732e+07
2.35363e+07
2.32985e+07
2.30601e+07
2.2821e+07
2.25811e+07
2.23406e+07
2.20995e+07
2.18577e+07
2.16153e+07
2.13724e+07
2.11289e+07
2.08848e+07
2.06403e+07
2.03952e+07
2.01497e+07
1.99037e+07
1.96573e+07
1.94105e+07
1.91634e+07
1.89158e+07
1.8668e+07
1.84198e+07
1.81714e+07
1.79227e+07
1.76738e+07
1.74247e+07
1.71755e+07
1.69261e+07
1.66766e+07
1.6427e+07
1.61773e+07
1.59277e+07
1.5678e+07
1.54284e+07
1.51789e+07
1.49295e+07
1.46802e+07
1.44311e+07
1.41822e+07
1.39336e+07
1.36852e+07
1.34372e+07
1.31895e+07
1.29423e+07
1.26955e+07
1.24491e+07
1.22033e+07
1.19581e+07
1.17134e+07
1.14694e+07
1.12261e+07
1.09836e+07
1.07419e+07
1.05009e+07
1.02609e+07
1.00218e+07
9.78376e+06
9.54672e+06
9.31079e+06
9.076e+06
8.84243e+06
8.61013e+06
8.37915e+06
8.14957e+06
7.92144e+06
7.69483e+06
7.46981e+06
7.24644e+06
7.0248e+06
6.80497e+06
6.58701e+06
6.37101e+06
6.15706e+06
5.94522e+06
5.73558e+06
5.5282e+06
5.3231e+06
5.12024e+06
4.91949e+06
3.91961e+07
3.91911e+07
3.91817e+07
3.91678e+07
3.91495e+07
3.91266e+07
3.90992e+07
3.90672e+07
3.90307e+07
3.89896e+07
3.8944e+07
3.8894e+07
3.88396e+07
3.87808e+07
3.87178e+07
3.86506e+07
3.85792e+07
3.85038e+07
3.84244e+07
3.83411e+07
3.8254e+07
3.81632e+07
3.80687e+07
3.79707e+07
3.78692e+07
3.77643e+07
3.7656e+07
3.75445e+07
3.74298e+07
3.73121e+07
3.71912e+07
3.70674e+07
3.69407e+07
3.68111e+07
3.66787e+07
3.65436e+07
3.64058e+07
3.62653e+07
3.61223e+07
3.59768e+07
3.58288e+07
3.56784e+07
3.55256e+07
3.53705e+07
3.52131e+07
3.50535e+07
3.48916e+07
3.47276e+07
3.45615e+07
3.43933e+07
3.42231e+07
3.40509e+07
3.38767e+07
3.37006e+07
3.35225e+07
3.33427e+07
3.3161e+07
3.29775e+07
3.27922e+07
3.26052e+07
3.24166e+07
3.22262e+07
3.20342e+07
3.18406e+07
3.16455e+07
3.14488e+07
3.12505e+07
3.10508e+07
3.08496e+07
3.06469e+07
3.04428e+07
3.02374e+07
3.00305e+07
2.98224e+07
2.96129e+07
2.94021e+07
2.919e+07
2.89767e+07
2.87621e+07
2.85464e+07
2.83295e+07
2.81114e+07
2.78921e+07
2.76718e+07
2.74503e+07
2.72278e+07
2.70042e+07
2.67796e+07
2.6554e+07
2.63274e+07
2.60998e+07
2.58712e+07
2.56417e+07
2.54113e+07
2.518e+07
2.49478e+07
2.47147e+07
2.44808e+07
2.42461e+07
2.40106e+07
2.37743e+07
2.35373e+07
2.32995e+07
2.3061e+07
2.28217e+07
2.25818e+07
2.23413e+07
2.21001e+07
2.18583e+07
2.16159e+07
2.13729e+07
2.11293e+07
2.08852e+07
2.06406e+07
2.03956e+07
2.015e+07
1.9904e+07
1.96576e+07
1.94108e+07
1.91636e+07
1.8916e+07
1.86682e+07
1.842e+07