/*--------------------------------*- C++ -*----------------------------------*\
  =========                 |
  \\      /  F ield         | OpenFOAM: The Open Source CFD Toolbox
   \\    /   O peration     | Website:  https://openfoam.org
    \\  /    A nd           | Version:  7
     \\/     M anipulation  |
\*---------------------------------------------------------------------------*/
FoamFile
{
    version     2.0;
    format      ascii;
    class       volVectorField;
    location    "0.006";
    object      U_0;
}
// * * * * * * * * * * * * * * * * * * * * * * * * * * * * * * * * * * * * * //

dimensions      [0 1 -1 0 0 0 0];

internalField   nonuniform List<vector> 
12225
(
(4.81047 0.125324 0)
(4.19475 0.105175 0)
(3.70878 0.0970183 0)
(3.34042 0.0785942 0)
(3.04252 0.0631345 0)
(2.78384 0.0527814 0)
(2.55236 0.0450428 0)
(2.35058 0.0351679 0)
(2.20753 0.0220359 0)
(2.11169 0.00952249 0)
(2.09246 -0.00274912 0)
(2.09656 -0.0124409 0)
(2.17939 -0.022606 0)
(2.231 -0.0192472 0)
(2.37635 -0.032498 0)
(2.44194 -0.0164384 0)
(2.64325 -0.0559272 0)
(2.72573 -0.0186633 0)
(4.95836 0.131147 0)
(4.79914 0.0912615 0)
(4.73322 0.0978115 0)
(4.68429 0.0845804 0)
(4.61991 0.074108 0)
(4.54253 0.0694081 0)
(4.45539 0.0662188 0)
(4.36923 0.057767 0)
(4.3034 0.0445946 0)
(4.26357 0.0243381 0)
(4.25224 0.00599864 0)
(4.25335 -0.0145402 0)
(4.28029 -0.0272845 0)
(4.30963 -0.0440647 0)
(4.37509 -0.0529296 0)
(4.43566 -0.0717865 0)
(4.54138 -0.0839675 0)
(4.63308 -0.128265 0)
(4.98337 0.173181 0)
(4.91023 0.103859 0)
(4.86767 0.107309 0)
(4.84073 0.104218 0)
(4.81389 0.0979079 0)
(4.79271 0.0925821 0)
(4.77714 0.0878278 0)
(4.76791 0.0787721 0)
(4.76849 0.0597668 0)
(4.77786 0.03287 0)
(4.7888 0.00317828 0)
(4.79808 -0.0195737 0)
(4.80605 -0.038759 0)
(4.81947 -0.0534181 0)
(4.84707 -0.0722511 0)
(4.88863 -0.0909338 0)
(4.9475 -0.121259 0)
(5.01083 -0.160019 0)
(5.08496 0.185364 0)
(4.96841 0.121078 0)
(4.84449 0.117387 0)
(4.80042 0.112674 0)
(4.80916 0.100302 0)
(4.82283 0.0873827 0)
(4.82562 0.0764316 0)
(4.82758 0.0612812 0)
(4.83749 0.039438 0)
(4.85139 0.0154404 0)
(4.86091 -0.00326666 0)
(4.86494 -0.0212785 0)
(4.8695 -0.0392942 0)
(4.88249 -0.0605597 0)
(4.9098 -0.0860631 0)
(4.95021 -0.116543 0)
(5.00096 -0.15099 0)
(5.05097 -0.191494 0)
(5.11467 0.214274 0)
(4.93257 0.157919 0)
(4.81289 0.131801 0)
(4.78893 0.105225 0)
(4.81122 0.0865684 0)
(4.82802 0.0806372 0)
(4.8296 0.0783502 0)
(4.83123 0.0686685 0)
(4.84378 0.0494208 0)
(4.86381 0.024222 0)
(4.88277 -0.00100611 0)
(4.89925 -0.0238606 0)
(4.91788 -0.0468157 0)
(4.94243 -0.0728785 0)
(4.97482 -0.102644 0)
(5.01212 -0.136025 0)
(5.05154 -0.170916 0)
(5.08642 -0.207062 0)
(4.97415 0.232028 0)
(4.91224 0.181736 0)
(4.88188 0.142695 0)
(4.86393 0.116605 0)
(4.83904 0.101217 0)
(4.81196 0.0925599 0)
(4.80077 0.0808029 0)
(4.81415 0.0594022 0)
(4.84334 0.0311957 0)
(4.87338 0.00507845 0)
(4.89742 -0.0159959 0)
(4.9168 -0.0346337 0)
(4.93693 -0.0564999 0)
(4.96159 -0.0846829 0)
(4.99207 -0.11806 0)
(5.02534 -0.154152 0)
(5.05935 -0.18986 0)
(5.09036 -0.223188 0)
(5.05886 0.254548 0)
(4.9838 0.204014 0)
(4.93674 0.146038 0)
(4.87425 0.116307 0)
(4.83254 0.102634 0)
(4.83045 0.0902955 0)
(4.85554 0.0718744 0)
(4.88611 0.0481125 0)
(4.90928 0.0231736 0)
(4.92254 -8.39878e-05 0)
(4.92971 -0.0212262 0)
(4.93861 -0.0441282 0)
(4.95411 -0.0716138 0)
(4.97512 -0.10414 0)
(4.99955 -0.139422 0)
(5.02465 -0.174737 0)
(5.05106 -0.208444 0)
(5.07827 -0.23871 0)
(4.92463 0.246858 0)
(4.97324 0.205323 0)
(4.96826 0.161426 0)
(4.93984 0.140594 0)
(4.9132 0.118812 0)
(4.90369 0.0909114 0)
(4.90957 0.0633352 0)
(4.9238 0.0391167 0)
(4.93923 0.0186021 0)
(4.95288 -0.000620196 0)
(4.96621 -0.0202732 0)
(4.97958 -0.0431219 0)
(4.99273 -0.0710793 0)
(5.00585 -0.104579 0)
(5.02103 -0.141862 0)
(5.03948 -0.180743 0)
(5.06388 -0.219648 0)
(5.09227 -0.255581 0)
(5.02318 0.244505 0)
(5.04293 0.209663 0)
(5.02922 0.164245 0)
(4.99178 0.137271 0)
(4.96347 0.116886 0)
(4.95619 0.0913037 0)
(4.95828 0.062273 0)
(4.96349 0.0340258 0)
(4.97605 0.00807405 0)
(4.99722 -0.014851 0)
(5.02053 -0.0370782 0)
(5.04014 -0.0615592 0)
(5.0549 -0.0901251 0)
(5.06677 -0.124098 0)
(5.07888 -0.1624 0)
(5.09347 -0.202746 0)
(5.11142 -0.242577 0)
(5.1318 -0.278085 0)
(5.08962 0.254782 0)
(5.07297 0.200553 0)
(5.05047 0.17059 0)
(5.0301 0.155219 0)
(5.01313 0.133268 0)
(4.99811 0.100519 0)
(4.98743 0.0650564 0)
(4.98749 0.0316572 0)
(4.99937 0.00268072 0)
(5.01734 -0.0204751 0)
(5.03484 -0.0391555 0)
(5.04656 -0.0575691 0)
(5.05172 -0.0810661 0)
(5.05308 -0.113564 0)
(5.05552 -0.154285 0)
(5.06126 -0.19914 0)
(5.07212 -0.243908 0)
(5.0858 -0.283276 0)
(5.0542 0.286367 0)
(4.99292 0.244831 0)
(4.94562 0.189452 0)
(4.94586 0.148466 0)
(4.95545 0.123533 0)
(4.95474 0.0976455 0)
(4.94221 0.0643658 0)
(4.92703 0.0274222 0)
(4.92182 -0.007467 0)
(4.93015 -0.0357869 0)
(4.94624 -0.0566739 0)
(4.96545 -0.0759546 0)
(4.98669 -0.0996708 0)
(5.00994 -0.132232 0)
(5.0353 -0.172884 0)
(5.06091 -0.217766 0)
(5.0864 -0.262249 0)
(5.10879 -0.301216 0)
(5.06183 0.31078 0)
(5.00832 0.253229 0)
(5.01789 0.181 0)
(5.02826 0.145246 0)
(5.03257 0.13108 0)
(5.0248 0.113757 0)
(5.00529 0.0829102 0)
(4.98591 0.0412865 0)
(4.97536 -0.000399661 0)
(4.97374 -0.0340275 0)
(4.9774 -0.0586276 0)
(4.98364 -0.0802588 0)
(4.99292 -0.106352 0)
(5.00597 -0.142186 0)
(5.02249 -0.186128 0)
(5.04136 -0.233167 0)
(5.06102 -0.277777 0)
(5.08025 -0.314954 0)
(5.03313 0.358624 0)
(5.03413 0.268362 0)
(5.01371 0.189848 0)
(5.00148 0.140508 0)
(4.99179 0.116837 0)
(4.98294 0.104131 0)
(4.97962 0.0821587 0)
(4.98728 0.0441963 0)
(5.00614 0.000467151 0)
(5.02695 -0.0358054 0)
(5.04049 -0.0632983 0)
(5.04559 -0.0881299 0)
(5.04621 -0.11752 0)
(5.04625 -0.155896 0)
(5.04735 -0.201424 0)
(5.05042 -0.249237 0)
(5.05464 -0.294238 0)
(5.06081 -0.331465 0)
(4.98209 0.341335 0)
(5.00907 0.262345 0)
(5.04781 0.188054 0)
(5.03192 0.157698 0)
(4.97595 0.148769 0)
(4.93653 0.129458 0)
(4.93765 0.0832079 0)
(4.96949 0.0225207 0)
(5.01077 -0.0282722 0)
(5.04384 -0.0575895 0)
(5.06224 -0.0700971 0)
(5.06767 -0.0800761 0)
(5.06522 -0.0997488 0)
(5.05834 -0.134699 0)
(5.04973 -0.181682 0)
(5.04023 -0.233294 0)
(5.03168 -0.282302 0)
(5.02387 -0.322566 0)
(5.00437 0.274924 0)
(5.07573 0.221202 0)
(5.07941 0.18762 0)
(5.03262 0.181517 0)
(4.99063 0.167705 0)
(4.98308 0.121699 0)
(4.99524 0.0535047 0)
(5.0071 -0.0105417 0)
(5.01294 -0.0532756 0)
(5.01469 -0.0743586 0)
(5.01642 -0.0842588 0)
(5.02105 -0.0957893 0)
(5.02889 -0.116725 0)
(5.03633 -0.149654 0)
(5.04088 -0.191375 0)
(5.04069 -0.236473 0)
(5.03825 -0.280131 0)
(5.0337 -0.31766 0)
(4.9513 0.21067 0)
(4.98727 0.1867 0)
(5.0128 0.222974 0)
(5.02214 0.224758 0)
(5.0354 0.187919 0)
(5.05094 0.130722 0)
(5.05601 0.067552 0)
(5.05027 0.0114225 0)
(5.0406 -0.0299615 0)
(5.03134 -0.0566085 0)
(5.02394 -0.073894 0)
(5.01849 -0.0896961 0)
(5.01504 -0.110654 0)
(5.01268 -0.141324 0)
(5.01209 -0.180953 0)
(5.01216 -0.225756 0)
(5.01419 -0.27109 0)
(5.01502 -0.311362 0)
(5.04096 0.268121 0)
(5.01097 0.193222 0)
(4.98005 0.164632 0)
(4.97289 0.159553 0)
(4.9972 0.14079 0)
(5.02229 0.101389 0)
(5.03016 0.0515101 0)
(5.02386 0.00388657 0)
(5.01027 -0.0321849 0)
(4.99438 -0.0550413 0)
(4.98217 -0.0698937 0)
(4.97801 -0.0864445 0)
(4.98295 -0.112098 0)
(4.9937 -0.150169 0)
(5.00703 -0.196803 0)
(5.01858 -0.24577 0)
(5.02784 -0.290574 0)
(5.03179 -0.325665 0)
(4.97232 0.240797 0)
(5.00897 0.253564 0)
(5.00146 0.245874 0)
(5.00596 0.188498 0)
(5.0151 0.129697 0)
(5.02087 0.0883702 0)
(5.02304 0.0602654 0)
(5.02522 0.0380656 0)
(5.0286 0.0147729 0)
(5.03254 -0.0144011 0)
(5.03707 -0.0503454 0)
(5.04136 -0.0920211 0)
(5.04397 -0.136313 0)
(5.04351 -0.180862 0)
(5.04011 -0.22289 0)
(5.03467 -0.260269 0)
(5.02861 -0.291871 0)
(5.02272 -0.315638 0)
(5.02978 0.270374 0)
(5.02063 0.17996 0)
(5.0416 0.162006 0)
(5.05767 0.153752 0)
(5.07451 0.12984 0)
(5.08383 0.0921555 0)
(5.08513 0.0437516 0)
(5.08545 -0.0086039 0)
(5.0863 -0.0527345 0)
(5.08434 -0.0796729 0)
(5.07698 -0.0909923 0)
(5.06477 -0.0969998 0)
(5.05045 -0.108662 0)
(5.03604 -0.133516 0)
(5.02247 -0.171528 0)
(5.00909 -0.217287 0)
(4.99602 -0.263672 0)
(4.98147 -0.302518 0)
(5.00367 0.254423 0)
(4.99812 0.218491 0)
(4.99037 0.165351 0)
(4.99454 0.128964 0)
(5.01307 0.102629 0)
(5.03403 0.0787099 0)
(5.04374 0.0549999 0)
(5.04322 0.0333963 0)
(5.04007 0.0161815 0)
(5.03821 0.00143322 0)
(5.03904 -0.0161101 0)
(5.04276 -0.0420971 0)
(5.04755 -0.0775072 0)
(5.04995 -0.119586 0)
(5.04807 -0.161778 0)
(5.04141 -0.19816 0)
(5.03153 -0.22473 0)
(5.019 -0.239026 0)
(4.87971 0.192678 0)
(4.91997 0.201714 0)
(4.95843 0.175414 0)
(4.98311 0.12018 0)
(4.99106 0.0765223 0)
(4.99316 0.0489874 0)
(4.99472 0.0263359 0)
(4.99876 -0.000992494 0)
(5.00688 -0.0330724 0)
(5.01833 -0.0633555 0)
(5.03021 -0.0857191 0)
(5.03904 -0.100643 0)
(5.04289 -0.113362 0)
(5.04081 -0.130325 0)
(5.0335 -0.154111 0)
(5.02216 -0.182699 0)
(5.00908 -0.212179 0)
(4.995 -0.23607 0)
(5.01295 0.201045 0)
(5.011 0.130759 0)
(5.02341 0.104046 0)
(5.02527 0.103448 0)
(5.02537 0.102981 0)
(5.03553 0.0861465 0)
(5.05843 0.0546584 0)
(5.08635 0.01854 0)
(5.10875 -0.0119589 0)
(5.11959 -0.0332937 0)
(5.12044 -0.0485946 0)
(5.1164 -0.063552 0)
(5.11169 -0.0821144 0)
(5.10714 -0.105729 0)
(5.10224 -0.132072 0)
(5.09522 -0.157412 0)
(5.08624 -0.178236 0)
(5.07396 -0.19133 0)
(5.12136 0.300775 0)
(5.06772 0.188994 0)
(5.0504 0.137827 0)
(5.06499 0.107294 0)
(5.10071 0.0648355 0)
(5.13864 0.0140721 0)
(5.16674 -0.0281903 0)
(5.18433 -0.0541904 0)
(5.19459 -0.06817 0)
(5.19802 -0.0757198 0)
(5.19455 -0.0812951 0)
(5.18407 -0.0887623 0)
(5.16726 -0.100073 0)
(5.14557 -0.116339 0)
(5.12292 -0.136711 0)
(5.10284 -0.158389 0)
(5.08843 -0.178568 0)
(5.08025 -0.192331 0)
(4.83904 0.242712 0)
(4.91913 0.188227 0)
(4.99403 0.117997 0)
(5.06044 0.0827793 0)
(5.09847 0.0607336 0)
(5.11858 0.0370856 0)
(5.13813 0.00943818 0)
(5.1601 -0.0133109 0)
(5.17979 -0.0272684 0)
(5.19224 -0.033584 0)
(5.1948 -0.0344937 0)
(5.1894 -0.0347509 0)
(5.18075 -0.0401741 0)
(5.17242 -0.0558366 0)
(5.16583 -0.0824392 0)
(5.15978 -0.115141 0)
(5.15367 -0.14845 0)
(5.14513 -0.173337 0)
(4.90149 0.150936 0)
(5.02027 0.079276 0)
(5.09392 0.0420547 0)
(5.14527 0.0311677 0)
(5.18494 0.0145333 0)
(5.21408 -0.0211859 0)
(5.23169 -0.0608793 0)
(5.24151 -0.0876988 0)
(5.2446 -0.0940471 0)
(5.2441 -0.0866348 0)
(5.24555 -0.0767391 0)
(5.25236 -0.0732256 0)
(5.2643 -0.0799245 0)
(5.27785 -0.0966688 0)
(5.28802 -0.119594 0)
(5.29049 -0.142869 0)
(5.28394 -0.162012 0)
(5.26755 -0.171923 0)
(5.09079 0.156082 0)
(5.12592 0.0918389 0)
(5.19414 0.0696734 0)
(5.26369 0.0552939 0)
(5.31375 0.0313782 0)
(5.33177 0.00343429 0)
(5.31971 -0.0151358 0)
(5.29332 -0.0245002 0)
(5.27082 -0.0298746 0)
(5.26149 -0.0349861 0)
(5.26607 -0.0415114 0)
(5.27905 -0.0502859 0)
(5.29293 -0.0618354 0)
(5.3014 -0.0765769 0)
(5.30152 -0.0936807 0)
(5.29374 -0.110305 0)
(5.28123 -0.124244 0)
(5.26699 -0.131771 0)
(5.00975 0.143862 0)
(5.16712 0.00793561 0)
(5.26204 -0.0241715 0)
(5.29559 -0.0281053 0)
(5.29482 -0.0288613 0)
(5.28943 -0.0314308 0)
(5.29081 -0.0422183 0)
(5.29846 -0.057695 0)
(5.30952 -0.0720815 0)
(5.32322 -0.0824532 0)
(5.33949 -0.0888988 0)
(5.35526 -0.0933881 0)
(5.36589 -0.0983463 0)
(5.36798 -0.10603 0)
(5.36163 -0.117 0)
(5.34955 -0.128988 0)
(5.33587 -0.139115 0)
(5.32339 -0.1429 0)
(5.03588 0.136169 0)
(5.18097 0.0412197 0)
(5.28919 0.0455689 0)
(5.33901 0.0454745 0)
(5.37802 0.0240008 0)
(5.42367 -0.000838968 0)
(5.46175 -0.01898 0)
(5.48005 -0.0311308 0)
(5.48012 -0.0414851 0)
(5.4716 -0.0519181 0)
(5.463 -0.0606646 0)
(5.45607 -0.0658027 0)
(5.44763 -0.0680972 0)
(5.43501 -0.0713173 0)
(5.41871 -0.0797455 0)
(5.40216 -0.0933677 0)
(5.3887 -0.109112 0)
(5.37883 -0.119337 0)
(5.07035 0.0640338 0)
(5.26201 -0.059311 0)
(5.34286 -0.0532821 0)
(5.38698 -0.0614303 0)
(5.4203 -0.0694003 0)
(5.44703 -0.070034 0)
(5.46243 -0.0669373 0)
(5.4664 -0.0653445 0)
(5.46089 -0.0684521 0)
(5.44717 -0.0755172 0)
(5.4263 -0.0828779 0)
(5.39912 -0.0874089 0)
(5.36471 -0.0888098 0)
(5.32239 -0.0896411 0)
(5.27154 -0.0936016 0)
(5.21643 -0.102236 0)
(5.15795 -0.114205 0)
(5.10114 -0.123434 0)
(4.90172 0.0637358 0)
(5.07214 0.0147298 0)
(5.03995 0.0132226 0)
(4.92161 0.00282065 0)
(4.79109 -0.00920596 0)
(4.65513 -0.0205597 0)
(4.51612 -0.0273121 0)
(4.38118 -0.0300806 0)
(4.24736 -0.0327101 0)
(4.10556 -0.0362018 0)
(3.95463 -0.0376749 0)
(3.80407 -0.0345818 0)
(3.66409 -0.0285116 0)
(3.53715 -0.0251737 0)
(3.4124 -0.0291597 0)
(3.27884 -0.0397884 0)
(3.1249 -0.0505125 0)
(2.96108 -0.0530454 0)
(-0.0145513 0.0253445 2.50365e-20)
(-0.0322118 0.0171705 -2.48589e-20)
(-0.0440246 0.0150823 0)
(-0.0571266 0.0143724 0)
(-0.0685459 0.0133023 0)
(-0.0792395 0.0118563 2.41405e-20)
(-0.088278 0.0100987 0)
(-0.0955613 0.00806067 0)
(-0.100671 0.00577617 0)
(-0.103307 0.00324363 0)
(-0.10327 0.000487237 -2.32782e-20)
(-0.100205 -0.00239752 0)
(-0.0939755 -0.00544715 0)
(-0.084336 -0.00860003 0)
(-0.0711328 -0.0117919 0)
(-0.054406 -0.015054 -2.24527e-20)
(-0.0341086 -0.0182434 0)
(-0.00991821 -0.02133 0)
(0.0180473 -0.02436 0)
(0.0493356 -0.0272401 0)
(0.0839962 -0.0299395 0)
(0.121869 -0.0324302 0)
(0.162759 -0.0346896 0)
(0.206443 -0.0366999 -2.11645e-20)
(0.252668 -0.038449 2.10038e-20)
(0.301167 -0.0399295 -2.08431e-20)
(0.351658 -0.0411393 -2.06824e-20)
(0.40385 -0.0420809 0)
(0.457451 -0.0427609 0)
(0.512171 -0.0431896 2.01995e-20)
(0.567727 -0.0433803 2.00382e-20)
(0.623846 -0.0433487 0)
(0.680265 -0.0431122 0)
(0.73674 -0.0426894 1.95532e-20)
(0.793044 -0.0420997 0)
(0.848966 -0.0413624 0)
(0.904318 -0.0404969 -1.90671e-20)
(0.95893 -0.0395218 0)
(1.01265 -0.038455 -1.87429e-20)
(1.06535 -0.0373133 -3.71618e-20)
(1.11692 -0.0361124 0)
(1.16725 -0.0348669 0)
(1.21628 -0.0335899 0)
(1.26394 -0.0322933 0)
(1.31018 -0.0309875 0)
(1.35496 -0.029682 -3.52267e-20)
(1.39826 -0.0283849 -3.49066e-20)
(1.44007 -0.027103 -3.45875e-20)
(1.48038 -0.0258424 0)
(1.51918 -0.024608 3.39524e-20)
(1.5565 -0.0234038 0)
(1.59235 -0.0222331 -3.33221e-20)
(1.62675 -0.0210984 -3.30088e-20)
(1.65973 -0.0200017 0)
(1.69131 -0.0189444 0)
(1.72153 -0.0179273 0)
(1.75042 -0.0169508 -3.17703e-20)
(1.77802 -0.0160151 0)
(1.80437 -0.0151199 0)
(1.82951 -0.0142649 0)
(1.85348 -0.0134492 0)
(1.87631 -0.0126722 0)
(1.89805 -0.0119327 0)
(1.91874 -0.0112297 0)
(1.93842 -0.010562 0)
(1.95713 -0.00992845 2.90778e-20)
(1.9749 -0.00932772 0)
(1.99177 -0.00875852 0)
(2.00779 -0.00821957 -2.82117e-20)
(2.02298 -0.00770957 -2.79266e-20)
(2.03739 -0.00722723 0)
(2.05104 -0.0067713 2.73618e-20)
(2.06397 -0.00634053 -2.70822e-20)
(2.0762 -0.00593373 0)
(2.08778 -0.00554974 2.65282e-20)
(2.09874 -0.0051874 0)
(2.10909 -0.00484565 0)
(2.11886 -0.00452341 -2.57109e-20)
(2.12809 -0.00421971 0)
(2.1368 -0.00393354 2.5175e-20)
(2.14502 -0.003664 0)
(2.15276 -0.00341018 -2.46463e-20)
(2.16005 -0.00317124 -2.43846e-20)
(2.16691 -0.00294637 -2.41247e-20)
(2.17337 -0.00273475 -4.77331e-20)
(2.17943 -0.0025357 4.72202e-20)
(2.18513 -0.00234851 0)
(2.19048 -0.00217233 0)
(2.19549 -0.00200694 0)
(2.20019 -0.00185136 4.52037e-20)
(2.20459 -0.0017046 4.47081e-20)
(2.2087 -0.0015677 -4.42159e-20)
(2.21254 -0.00143861 0)
(2.21613 -0.00131512 4.32417e-20)
(2.21946 -0.00120223 4.27595e-20)
(2.22257 -0.00109632 4.22807e-20)
(2.22546 -0.000987769 0)
(2.22814 -0.000889246 0)
(2.23062 -0.000801614 0)
(2.23291 -0.000693831 4.03981e-20)
(2.23499 -0.00056937 0)
(2.23686 -0.000446912 0)
(2.23853 -0.000340872 -3.90198e-20)
(2.24002 -0.000253689 0)
(2.24134 -0.000186132 0)
(2.24252 -0.000135457 -3.76696e-20)
(2.24358 -9.66786e-05 0)
(2.24454 -6.52245e-05 0)
(2.24538 -3.80094e-05 3.63469e-20)
(2.24614 -1.33334e-05 3.5912e-20)
(2.2468 9.57568e-06 0)
(2.24738 3.10411e-05 -3.50511e-20)
(2.24789 5.11865e-05 0)
(2.24831 7.00891e-05 3.42018e-20)
(2.24867 8.77971e-05 0)
(2.24896 0.00010437 3.3364e-20)
(2.24918 0.000119853 3.29493e-20)
(2.24935 0.000134308 0)
(2.24946 0.000147778 0)
(2.24951 0.00016033 0)
(2.24952 0.000172014 0)
(2.24948 0.000182887 0)
(2.2494 0.000193 0)
(2.24927 0.00020241 0)
(2.2491 0.000211171 2.97307e-20)
(2.2489 0.000219331 -2.93403e-20)
(2.24866 0.000226914 0)
(2.24839 0.000233952 0)
(2.24808 0.000240476 0)
(2.24775 0.000246533 0)
(2.24738 0.000252162 -5.48535e-20)
(2.24699 0.000257403 0)
(2.24658 0.000262283 5.33575e-20)
(2.24614 0.000266832 -5.26168e-20)
(2.24567 0.000271071 0)
(2.24519 0.000275031 0)
(2.24468 0.000278731 0)
(2.24415 0.000282199 4.97014e-20)
(2.2436 0.000285452 4.89842e-20)
(2.24303 0.000288518 0)
(2.24245 0.000291409 4.75634e-20)
(2.24185 0.000294152 4.68597e-20)
(2.24123 0.000296762 -4.61605e-20)
(2.24059 0.00029928 0)
(2.23994 0.000301742 0)
(2.23927 0.000304182 -4.4089e-20)
(2.23858 0.000306619 0)
(2.23788 0.000309088 0)
(2.23716 0.000311627 0)
(2.23642 0.000314291 0)
(2.23567 0.000317133 4.07208e-20)
(2.2349 0.000320224 4.00594e-20)
(2.23411 0.00032364 0)
(2.2333 0.000327484 3.87486e-20)
(2.23247 0.000331877 0)
(2.23161 0.000336981 0)
(2.23073 0.000342991 3.68116e-20)
(2.22981 0.000350163 0)
(2.22886 0.000358815 3.55393e-20)
(2.22787 0.00036936 0)
(2.22683 0.000382321 0)
(2.22572 0.000398383 3.36587e-20)
(2.22454 0.000418413 0)
(2.22328 0.000443597 3.24232e-20)
(2.22189 0.000475359 0)
(2.22036 0.000515953 0)
(2.21865 0.00056745 0)
(2.21671 0.000635078 -2.99954e-20)
(2.21446 0.000720472 0)
(2.21181 0.000837152 2.88034e-20)
(2.20863 0.000988533 0)
(2.20476 0.00117878 0)
(2.19981 0.00153797 0)
(2.19377 0.00167494 0)
(2.18524 0.00300832 0)
(2.17408 0.00217236 0)
(2.15945 0.0075078 0)
(2.12987 0.00323996 -4.84502e-20)
(2.10592 0.0250981 0)
(1.99539 0.0193028 0)
(-0.0151107 0.0742114 -7.51063e-20)
(-0.0322727 0.0455495 7.45756e-20)
(-0.0437369 0.0385616 0)
(-0.0562471 0.0364082 -4.89925e-20)
(-0.0672533 0.0331827 0)
(-0.07736 0.0287589 -2.41412e-20)
(-0.085742 0.0233251 4.79304e-20)
(-0.0922239 0.0170154 4.75829e-20)
(-0.096429 0.00992352 0)
(-0.0980764 0.00207262 4.68978e-20)
(-0.0967938 -0.00642558 2.32797e-20)
(-0.0923244 -0.0154579 0)
(-0.084596 -0.0249406 0)
(-0.0731678 -0.0347128 0)
(-0.0580595 -0.0447175 0)
(-0.0391692 -0.05477 2.24536e-20)
(-0.0163345 -0.0647197 0)
(0.0104185 -0.0743843 -4.42633e-20)
(0.0410847 -0.0838672 0)
(0.075354 -0.0928158 0)
(0.113157 -0.101204 4.32935e-20)
(0.15432 -0.108946 0)
(0.19863 -0.11597 -4.26486e-20)
(0.245842 -0.122221 2.11608e-20)
(0.295689 -0.127661 -2.09999e-20)
(0.347885 -0.132268 2.08389e-20)
(0.40213 -0.136035 2.0678e-20)
(0.458119 -0.138971 0)
(0.515548 -0.141097 0)
(0.574114 -0.142444 -2.01945e-20)
(0.633524 -0.143052 2.00385e-20)
(0.693496 -0.142971 0)
(0.753764 -0.142253 0)
(0.814077 -0.140956 -1.95478e-20)
(0.874204 -0.139138 0)
(0.933933 -0.136858 0)
(0.993072 -0.134175 1.90615e-20)
(1.05145 -0.131145 0)
(1.10892 -0.127824 -1.87413e-20)
(1.16535 -0.124262 3.71505e-20)
(1.22061 -0.120508 0)
(1.27463 -0.116605 0)
(1.32732 -0.112594 7.2367e-20)
(1.3786 -0.108511 7.17219e-20)
(1.42845 -0.104389 7.10782e-20)
(1.4768 -0.100256 -3.52205e-20)
(1.52365 -0.0961388 3.48955e-20)
(1.56896 -0.0920577 1.03733e-19)
(1.61275 -0.088032 -6.85207e-20)
(1.65499 -0.0840776 -3.39414e-20)
(1.69571 -0.0802075 0)
(1.73492 -0.0764327 3.33112e-20)
(1.77263 -0.0727617 -3.3001e-20)
(1.80887 -0.0692014 0)
(1.84367 -0.0657568 0)
(1.87705 -0.0624314 0)
(1.90905 -0.0592275 3.17598e-20)
(1.9397 -0.0561463 0)
(1.96904 -0.0531879 -6.23017e-20)
(1.99711 -0.0503519 0)
(2.02395 -0.0476367 -6.10948e-20)
(2.04959 -0.0450406 0)
(2.07407 -0.0425612 5.99014e-20)
(2.09743 -0.0401958 0)
(2.11972 -0.0379413 -5.8722e-20)
(2.14097 -0.0357946 2.90693e-20)
(2.16121 -0.0337521 0)
(2.18049 -0.0318103 5.69794e-20)
(2.19885 -0.0299656 2.82024e-20)
(2.21631 -0.0282143 2.79174e-20)
(2.23292 -0.0265527 0)
(2.24871 -0.0249773 2.73535e-20)
(2.26372 -0.0234843 2.70733e-20)
(2.27797 -0.0220702 0)
(2.29149 -0.0207316 -2.65196e-20)
(2.30433 -0.0194649 5.24914e-20)
(2.31651 -0.018267 0)
(2.32805 -0.0171346 2.57026e-20)
(2.33899 -0.0160646 0)
(2.34936 -0.015054 -7.55012e-20)
(2.35917 -0.0140999 0)
(2.36846 -0.0131995 7.39157e-20)
(2.37724 -0.0123501 2.43769e-20)
(2.38555 -0.0115493 -2.41173e-20)
(2.3934 -0.0107944 -4.77185e-20)
(2.40082 -0.0100833 4.72059e-20)
(2.40783 -0.00941359 0)
(2.41444 -0.00878308 0)
(2.42068 -0.00818988 0)
(2.42657 -0.00763192 -1.3557e-19)
(2.43211 -0.007107 -4.46944e-20)
(2.43734 -0.00661408 4.42025e-20)
(2.44226 -0.00615102 0)
(2.44689 -0.005715 4.32289e-20)
(2.45124 -0.00530685 -4.27468e-20)
(2.45534 -0.00492447 -4.22682e-20)
(2.45918 -0.00456173 0)
(2.46281 -0.00422221 0)
(2.4662 -0.00390622 0)
(2.46939 -0.00360117 -4.03864e-20)
(2.47241 -0.00331123 0)
(2.47527 -0.00303609 7.89296e-20)
(2.478 -0.00277247 1.17026e-19)
(2.48059 -0.00253 -7.71113e-20)
(2.48306 -0.00231149 0)
(2.48538 -0.00211404 -3.7659e-20)
(2.48757 -0.00193416 0)
(2.48962 -0.00176871 -7.35489e-20)
(2.49154 -0.00161537 3.63368e-20)
(2.49333 -0.00147269 3.5902e-20)
(2.495 -0.00133981 0)
(2.49656 -0.00121609 1.05124e-19)
(2.49801 -0.001101 -6.9231e-20)
(2.49936 -0.000993998 -3.41925e-20)
(2.50062 -0.000894601 0)
(2.50178 -0.000802304 -3.3355e-20)
(2.50287 -0.000716654 -9.88214e-20)
(2.50388 -0.000637204 0)
(2.50481 -0.000563554 -6.42397e-20)
(2.50567 -0.000495306 -6.34273e-20)
(2.50648 -0.000432107 -6.26203e-20)
(2.50722 -0.000373605 0)
(2.5079 -0.000319474 0)
(2.50854 -0.000269389 0)
(2.50912 -0.000223063 2.9723e-20)
(2.50966 -0.000180229 2.93328e-20)
(2.51015 -0.000140668 0)
(2.51061 -0.000104155 5.71202e-20)
(2.51103 -7.04798e-05 5.63551e-20)
(2.51141 -3.94208e-05 0)
(2.51176 -1.07859e-05 5.484e-20)
(2.51209 1.56189e-05 1.0818e-19)
(2.51238 3.99589e-05 -5.33445e-20)
(2.51265 6.24022e-05 -5.26041e-20)
(2.51289 8.30862e-05 0)
(2.51312 0.00010216 0)
(2.51332 0.000119744 0)
(2.5135 0.000135974 -4.96897e-20)
(2.51367 0.000150954 4.89727e-20)
(2.51381 0.000164803 9.65207e-20)
(2.51395 0.000177611 -4.75525e-20)
(2.51406 0.000189493 4.6849e-20)
(2.51417 0.00020055 4.61501e-20)
(2.51426 0.000210917 0)
(2.51434 0.000220706 0)
(2.51441 0.000230027 -4.40792e-20)
(2.51447 0.000238969 0)
(2.51451 0.000247652 0)
(2.51455 0.000256203 8.4093e-20)
(2.51458 0.000264783 0)
(2.51459 0.000273563 4.0712e-20)
(2.5146 0.000282752 -4.00509e-20)
(2.5146 0.000292582 0)
(2.51458 0.000303347 3.87405e-20)
(2.51455 0.000315392 0)
(2.51451 0.000329157 0)
(2.51445 0.000345179 -3.68041e-20)
(2.51437 0.000364147 7.23325e-20)
(2.51427 0.000386917 -3.55322e-20)
(2.51414 0.000414592 0)
(2.51398 0.000448568 0)
(2.51377 0.000490655 3.36519e-20)
(2.51351 0.000543188 0)
(2.51318 0.000609199 3.24167e-20)
(2.51277 0.000692728 0)
(2.51225 0.000798916 0)
(2.51159 0.000935313 0)
(2.51073 0.00111006 2.99897e-20)
(2.50967 0.00134089 0)
(2.50822 0.00163211 -2.8798e-20)
(2.50652 0.0020543 0)
(2.50392 0.00251451 0)
(2.50121 0.00345079 5.4079e-20)
(2.49626 0.00395717 -5.29244e-20)
(2.49178 0.00668198 0)
(2.48197 0.00637694 0)
(2.47364 0.0153914 0)
(2.45365 0.0129655 1.45296e-19)
(2.43764 0.0460722 0)
(2.4034 0.0492094 -9.25787e-20)
(-0.0157063 0.126017 3.01659e-24)
(-0.0353073 0.0779882 -9.94243e-20)
(-0.0494554 0.0668135 0)
(-0.0647913 0.063164 9.79758e-20)
(-0.0784931 0.0576358 0)
(-0.0912202 0.0500119 0)
(-0.102091 0.040685 -2.30999e-24)
(-0.110825 0.0298453 -4.75794e-20)
(-0.117102 0.0176258 -4.72337e-20)
(-0.120577 0.00411525 -4.68946e-20)
(-0.120884 -0.0104739 0)
(-0.117723 -0.0260508 0)
(-0.110874 -0.0423762 4.58862e-20)
(-0.100143 -0.0591959 9.11128e-20)
(-0.0853419 -0.0763885 -9.0459e-20)
(-0.0663402 -0.093577 0)
(-0.0431079 -0.110694 -8.91666e-20)
(-0.0157982 -0.127369 4.42597e-20)
(0.0157787 -0.143475 0)
(0.0514057 -0.158851 -8.7243e-20)
(0.0906355 -0.173136 -4.32913e-20)
(0.133389 -0.186282 8.59506e-20)
(0.179414 -0.198169 4.26454e-20)
(0.228426 -0.208707 0)
(0.280115 -0.217837 -8.40189e-20)
(0.334157 -0.225527 -8.33753e-20)
(0.39022 -0.231774 0)
(0.447969 -0.236597 -8.20871e-20)
(0.507075 -0.24004 0)
(0.567217 -0.242161 -8.07966e-20)
(0.628087 -0.243037 -4.00661e-20)
(0.689394 -0.242753 0)
(0.750865 -0.241403 0)
(0.812248 -0.239087 0)
(0.873315 -0.235906 0)
(0.933858 -0.231963 0)
(0.993693 -0.227356 0)
(1.05266 -0.222181 -7.56094e-20)
(1.11061 -0.21653 1.12433e-19)
(1.16742 -0.210489 0)
(1.223 -0.204138 0)
(1.27726 -0.197548 0)
(1.33012 -0.190788 1.03295e-23)
(1.38153 -0.183916 -7.17134e-20)
(1.43146 -0.176985 -1.42149e-19)
(1.47986 -0.170043 1.40865e-19)
(1.52673 -0.16313 6.9796e-20)
(1.57204 -0.156281 -6.91501e-20)
(1.61581 -0.149528 -6.7933e-24)
(1.65803 -0.142896 -6.78866e-20)
(1.69872 -0.136405 0)
(1.73789 -0.130073 -6.66254e-20)
(1.77557 -0.123914 -5.05887e-24)
(1.81178 -0.117939 0)
(1.84655 -0.112156 0)
(1.87992 -0.10657 6.41362e-20)
(1.91191 -0.101185 0)
(1.94257 -0.0960035 0)
(1.97192 -0.0910249 -6.23044e-20)
(2.00001 -0.0862485 -1.23392e-19)
(2.02688 -0.0816722 6.10914e-20)
(2.05256 -0.0772929 0)
(2.07709 -0.0731069 -5.98985e-20)
(2.10051 -0.0691098 0)
(2.12287 -0.0652968 -5.87235e-20)
(2.14419 -0.0616625 -5.81351e-20)
(2.16451 -0.0582016 1.15112e-19)
(2.18388 -0.0549082 5.69805e-20)
(2.20232 -0.0517765 0)
(2.21989 -0.0488006 -1.1167e-19)
(2.2366 -0.0459746 0)
(2.25249 -0.0432926 -1.64116e-19)
(2.2676 -0.0407486 -1.08293e-19)
(2.28196 -0.038337 -1.07182e-19)
(2.2956 -0.0360519 1.06078e-19)
(2.30854 -0.033888 -1.57472e-19)
(2.32083 -0.0318398 0)
(2.33249 -0.0299019 0)
(2.34354 -0.0280694 1.01735e-19)
(2.35402 -0.0263373 1.51001e-19)
(2.36394 -0.0247008 0)
(2.37334 -0.0231553 -4.92762e-20)
(2.38223 -0.0216965 0)
(2.39065 -0.02032 1.44702e-19)
(2.39861 -0.0190219 -9.26966e-25)
(2.40613 -0.0177982 8.58358e-25)
(2.41324 -0.0166451 -9.33924e-20)
(2.41995 -0.0155591 0)
(2.42629 -0.0145366 9.13767e-20)
(2.43226 -0.0135744 -6.29029e-25)
(2.4379 -0.0126696 0)
(2.44322 -0.0118188 0)
(2.44822 -0.0110188 0)
(2.45294 -0.0102684 -8.64565e-20)
(2.45738 -0.00956336 0)
(2.46155 -0.00890024 0)
(2.46548 -0.00828075 0)
(2.46917 -0.0077005 0)
(2.47264 -0.00715429 0)
(2.47589 -0.00664674 -8.07724e-20)
(2.47894 -0.00617367 0)
(2.48181 -0.00573061 -7.89289e-20)
(2.48452 -0.00532193 -7.80166e-20)
(2.48706 -0.00494428 7.71106e-20)
(2.48944 -0.00458937 0)
(2.49167 -0.00425407 7.53172e-20)
(2.49376 -0.00393727 0)
(2.4957 -0.00363853 7.35482e-20)
(2.49753 -0.00335779 -7.26728e-20)
(2.49923 -0.00309486 -2.1541e-19)
(2.50082 -0.00284921 0)
(2.5023 -0.00262011 -2.10247e-19)
(2.50369 -0.00240671 -6.92305e-20)
(2.50498 -0.00220811 0)
(2.50618 -0.00202343 -1.35088e-19)
(2.5073 -0.0018518 -1.33419e-19)
(2.50835 -0.00169241 1.97641e-19)
(2.50932 -0.00154449 0)
(2.51022 -0.00140729 6.42391e-20)
(2.51106 -0.00128012 6.34267e-20)
(2.51185 -0.00116232 1.87859e-19)
(2.51257 -0.00105324 0)
(2.51325 -0.000952284 0)
(2.51387 -0.000858888 0)
(2.51445 -0.000772545 5.94456e-20)
(2.51499 -0.000692787 0)
(2.51549 -0.000619174 0)
(2.51595 -0.000551267 -5.71197e-20)
(2.51638 -0.000488655 -5.63546e-20)
(2.51677 -0.000430951 0)
(2.51714 -0.000377804 0)
(2.51748 -0.000328879 -1.08179e-19)
(2.51779 -0.000283859 0)
(2.51808 -0.000242441 1.05207e-19)
(2.51835 -0.000204344 1.03736e-19)
(2.5186 -0.000169302 0)
(2.51882 -0.000137076 0)
(2.51904 -0.000107437 -9.93785e-20)
(2.51923 -8.01753e-05 1.58597e-26)
(2.51941 -5.50914e-05 1.38219e-26)
(2.51958 -3.19897e-05 0)
(2.51973 -1.06593e-05 -1.87394e-19)
(2.51987 9.10165e-06 0)
(2.52 2.75005e-05 0)
(2.52012 4.47246e-05 0)
(2.52023 6.09601e-05 8.81575e-20)
(2.52033 7.63948e-05 0)
(2.52042 9.12374e-05 -1.70878e-19)
(2.5205 0.000105704 -8.40922e-20)
(2.52057 0.00012004 0)
(2.52063 0.000134519 -8.14233e-20)
(2.52069 0.000149465 0)
(2.52073 0.000165259 0)
(2.52077 0.000182363 -2.32441e-19)
(2.52079 0.000201332 1.52363e-19)
(2.5208 0.000222856 0)
(2.52079 0.000247784 1.47215e-19)
(2.52077 0.000277184 -7.23317e-20)
(2.52072 0.000312397 0)
(2.52064 0.000355132 0)
(2.52054 0.000407566 0)
(2.52039 0.000472487 -2.0191e-19)
(2.52018 0.000553541 0)
(2.51992 0.000655321 -6.48329e-20)
(2.51956 0.0007843 0)
(2.5191 0.000947717 0)
(2.5185 0.00115891 0)
(2.51771 0.00142598 0)
(2.5167 0.00178597 0)
(2.51533 0.00222496 0)
(2.51368 0.00288371 -1.12827e-19)
(2.5112 0.00358752 0)
(2.50848 0.00495317 -5.40783e-20)
(2.50388 0.00597083 1.58766e-19)
(2.4992 0.00934312 0)
(2.49067 0.0105445 0)
(2.48182 0.0201321 -9.90385e-20)
(2.46661 0.0227658 -9.68533e-20)
(2.451 0.0513282 9.46402e-20)
(2.42874 0.0655354 9.25737e-20)
(-0.0167624 0.18283 1.50167e-19)
(-0.0402496 0.117167 1.49111e-19)
(-0.0584862 0.102167 9.86767e-20)
(-0.0780828 0.0968624 4.89725e-20)
(-0.0959115 0.088647 0)
(-0.112542 0.077387 -9.65314e-20)
(-0.127064 0.0636924 4.79112e-20)
(-0.139178 0.0477674 0)
(-0.14851 0.0298018 4.72285e-20)
(-0.154606 0.00994618 0)
(-0.157101 -0.0115381 -9.30957e-20)
(-0.155715 -0.0344273 0)
(-0.150074 -0.0584802 -4.588e-20)
(-0.139973 -0.0832117 -9.10993e-20)
(-0.12524 -0.108417 9.04445e-20)
(-0.105872 -0.133687 0)
(-0.0817479 -0.158642 8.91507e-20)
(-0.0528087 -0.183015 0)
(-0.0194582 -0.206356 0)
(0.0184041 -0.228587 8.72415e-20)
(0.0604907 -0.249268 0)
(0.106169 -0.268155 1.83591e-23)
(0.155298 -0.285129 0)
(0.20752 -0.300074 0)
(0.26246 -0.31292 -2.29906e-23)
(0.319731 -0.323635 8.33661e-20)
(0.378947 -0.332232 8.2746e-20)
(0.439726 -0.338754 8.20763e-20)
(0.5017 -0.343278 0)
(0.564518 -0.345904 1.61594e-19)
(0.627851 -0.346753 0)
(0.691393 -0.345959 7.95147e-20)
(0.754864 -0.343666 0)
(0.818012 -0.340023 0)
(0.880612 -0.335181 -7.7567e-20)
(0.942465 -0.329288 0)
(1.0034 -0.322488 7.62666e-20)
(1.06326 -0.314919 -1.9295e-23)
(1.12192 -0.30671 -1.49914e-19)
(1.17928 -0.297982 1.48633e-19)
(1.23525 -0.288846 0)
(1.28976 -0.279404 0)
(1.34276 -0.269747 7.23866e-20)
(1.3942 -0.259956 0)
(1.44407 -0.250105 7.10694e-20)
(1.49233 -0.240257 -7.04274e-20)
(1.53899 -0.230467 -6.97872e-20)
(1.58405 -0.220782 0)
(1.62751 -0.211243 6.85129e-20)
(1.66939 -0.201884 6.7879e-20)
(1.70971 -0.192732 -1.34512e-19)
(1.7485 -0.18381 6.66187e-20)
(1.78577 -0.175136 6.59925e-20)
(1.82158 -0.166725 0)
(1.85593 -0.158586 0)
(1.88888 -0.150726 -6.41309e-20)
(1.92046 -0.14315 0)
(1.95071 -0.13586 0)
(1.97967 -0.128855 1.24594e-19)
(2.00737 -0.122133 1.23384e-19)
(2.03385 -0.115693 0)
(2.05917 -0.109528 0)
(2.08334 -0.103633 0)
(2.10642 -0.0980031 0)
(2.12845 -0.0926303 1.17437e-19)