/*--------------------------------*- C++ -*----------------------------------*\
  =========                 |
  \\      /  F ield         | OpenFOAM: The Open Source CFD Toolbox
   \\    /   O peration     | Website:  https://openfoam.org
    \\  /    A nd           | Version:  7
     \\/     M anipulation  |
\*---------------------------------------------------------------------------*/
FoamFile
{
    version     2.0;
    format      ascii;
    class       volVectorField;
    location    "0.006";
    object      UMean;
}
// * * * * * * * * * * * * * * * * * * * * * * * * * * * * * * * * * * * * * //

dimensions      [0 1 -1 0 0 0 0];

internalField   nonuniform List<vector> 
12225
(
(4.80127 0.163057 0)
(4.29915 0.101937 0)
(3.93158 0.0810689 0)
(3.6717 0.0586471 0)
(3.48512 0.0403274 0)
(3.35909 0.0269143 0)
(3.28641 0.0139876 0)
(3.26269 0.00510653 0)
(3.28338 -0.00579471 0)
(3.33225 -0.00733416 0)
(3.42066 -0.0197344 0)
(3.50714 -0.00982877 0)
(3.65474 -0.0379308 0)
(3.76047 -0.000875302 0)
(3.99745 -0.0834696 0)
(4.14353 0.0304022 0)
(4.56315 -0.233198 0)
(4.94128 0.0400686 0)
(5.0287 0.104907 0)
(4.9524 0.0565924 0)
(4.87284 0.0608951 0)
(4.81685 0.0487295 0)
(4.77784 0.0356165 0)
(4.7566 0.0228648 0)
(4.74814 0.0112022 0)
(4.76201 -0.00440073 0)
(4.78843 -0.0149349 0)
(4.84264 -0.0328095 0)
(4.90201 -0.0365142 0)
(4.99806 -0.0606008 0)
(5.0878 -0.0543081 0)
(5.23854 -0.0996548 0)
(5.36673 -0.0819631 0)
(5.60959 -0.180428 0)
(5.81608 -0.194121 0)
(6.19824 -0.453309 0)
(5.02653 0.163917 0)
(4.97057 0.104815 0)
(4.91666 0.0979308 0)
(4.89615 0.0778715 0)
(4.9003 0.0545857 0)
(4.91747 0.0349703 0)
(4.94284 0.0144295 0)
(4.97432 -0.00374093 0)
(5.01429 -0.0264462 0)
(5.06146 -0.0412216 0)
(5.12189 -0.0660633 0)
(5.19231 -0.0739149 0)
(5.28398 -0.110967 0)
(5.38931 -0.114865 0)
(5.52722 -0.187554 0)
(5.68754 -0.208109 0)
(5.88571 -0.367393 0)
(6.10818 -0.540783 0)
(5.02044 0.175008 0)
(4.98378 0.0960774 0)
(4.93373 0.0795457 0)
(4.9136 0.0593357 0)
(4.92034 0.0358833 0)
(4.94106 0.0141248 0)
(4.96875 -0.00504977 0)
(5.00298 -0.0259367 0)
(5.04288 -0.0450675 0)
(5.09109 -0.0675762 0)
(5.14749 -0.0863947 0)
(5.2174 -0.113863 0)
(5.30019 -0.137831 0)
(5.40205 -0.180691 0)
(5.52307 -0.227036 0)
(5.66521 -0.31015 0)
(5.82922 -0.434934 0)
(5.989 -0.619078 0)
(5.00926 0.202119 0)
(4.9948 0.117919 0)
(4.9536 0.0916288 0)
(4.93265 0.0694788 0)
(4.93816 0.0429375 0)
(4.95813 0.0178434 0)
(4.98543 -0.00651522 0)
(5.01856 -0.0301144 0)
(5.05803 -0.0559326 0)
(5.10451 -0.0806322 0)
(5.15973 -0.109352 0)
(5.22551 -0.13765 0)
(5.30412 -0.176394 0)
(5.39688 -0.220367 0)
(5.50524 -0.28554 0)
(5.62737 -0.375526 0)
(5.75865 -0.50347 0)
(5.87786 -0.699858 0)
(4.99853 0.217651 0)
(5.00535 0.128062 0)
(4.97046 0.0914214 0)
(4.94557 0.0648649 0)
(4.94804 0.035396 0)
(4.96859 0.00599929 0)
(4.9976 -0.021396 0)
(5.03169 -0.0483996 0)
(5.07093 -0.0755801 0)
(5.1163 -0.104376 0)
(5.16964 -0.135384 0)
(5.23189 -0.171175 0)
(5.30533 -0.214035 0)
(5.38927 -0.268414 0)
(5.48525 -0.340449 0)
(5.58762 -0.437398 0)
(5.69245 -0.570392 0)
(5.782 -0.747163 0)
(5.02101 0.225561 0)
(5.03704 0.13675 0)
(5.00561 0.0928837 0)
(4.97871 0.0628103 0)
(4.97925 0.0313953 0)
(4.99845 -0.000308022 0)
(5.02491 -0.0306436 0)
(5.05492 -0.0600602 0)
(5.08954 -0.0904312 0)
(5.13029 -0.122767 0)
(5.17893 -0.158509 0)
(5.23601 -0.199651 0)
(5.30246 -0.248538 0)
(5.37681 -0.309921 0)
(5.45903 -0.387226 0)
(5.54313 -0.48925 0)
(5.62516 -0.6181 0)
(5.68979 -0.781341 0)
(5.02928 0.243082 0)
(5.05876 0.154289 0)
(5.03463 0.10276 0)
(5.00675 0.0659572 0)
(5.00286 0.0304479 0)
(5.01805 -0.00483236 0)
(5.04151 -0.0386483 0)
(5.06887 -0.0717707 0)
(5.10072 -0.10573 0)
(5.13843 -0.142304 0)
(5.18311 -0.182743 0)
(5.23457 -0.229156 0)
(5.29325 -0.28384 0)
(5.3574 -0.350621 0)
(5.42607 -0.432573 0)
(5.49351 -0.53529 0)
(5.5556 -0.659544 0)
(5.60041 -0.80949 0)
(5.05756 0.239915 0)
(5.09514 0.157182 0)
(5.07638 0.101479 0)
(5.04864 0.0606037 0)
(5.04209 0.0230577 0)
(5.05395 -0.0142759 0)
(5.07413 -0.0507996 0)
(5.09831 -0.086777 0)
(5.12657 -0.123618 0)
(5.15948 -0.163116 0)
(5.19784 -0.206943 0)
(5.24137 -0.257189 0)
(5.29011 -0.315673 0)
(5.34199 -0.385702 0)
(5.39577 -0.469228 0)
(5.44606 -0.570119 0)
(5.48955 -0.687918 0)
(5.51703 -0.824366 0)
(5.03701 0.249775 0)
(5.08041 0.173652 0)
(5.06913 0.114367 0)
(5.04509 0.067902 0)
(5.03838 0.0260626 0)
(5.04892 -0.01474 0)
(5.06796 -0.0547918 0)
(5.09062 -0.0944286 0)
(5.11647 -0.134935 0)
(5.14616 -0.178147 0)
(5.18028 -0.225756 0)
(5.2183 -0.279918 0)
(5.25998 -0.342183 0)
(5.30312 -0.415027 0)
(5.3463 -0.499419 0)
(5.38453 -0.597858 0)
(5.41544 -0.708877 0)
(5.4314 -0.833396 0)
(5.01485 0.24769 0)
(5.06205 0.171387 0)
(5.05902 0.109279 0)
(5.04147 0.060069 0)
(5.03749 0.0164915 0)
(5.04855 -0.0259404 0)
(5.06748 -0.0680406 0)
(5.09017 -0.11017 0)
(5.11592 -0.152991 0)
(5.14474 -0.198464 0)
(5.17677 -0.248365 0)
(5.21111 -0.304616 0)
(5.24695 -0.368407 0)
(5.28186 -0.441552 0)
(5.31438 -0.524317 0)
(5.34031 -0.618239 0)
(5.35818 -0.721291 0)
(5.36227 -0.834102 0)
(5.03652 0.25789 0)
(5.08391 0.18141 0)
(5.0794 0.117537 0)
(5.05859 0.0651223 0)
(5.05021 0.0180904 0)
(5.05647 -0.0275918 0)
(5.07075 -0.0730799 0)
(5.08882 -0.118462 0)
(5.10967 -0.164574 0)
(5.13315 -0.212951 0)
(5.15935 -0.265247 0)
(5.18722 -0.323314 0)
(5.21579 -0.388087 0)
(5.24258 -0.460846 0)
(5.26622 -0.541308 0)
(5.283 -0.630454 0)
(5.29206 -0.726036 0)
(5.28874 -0.828755 0)
(5.03206 0.253612 0)
(5.08182 0.18068 0)
(5.08102 0.116278 0)
(5.06416 0.0618709 0)
(5.05856 0.0131641 0)
(5.06633 -0.0339595 0)
(5.08084 -0.0813144 0)
(5.09751 -0.129 0)
(5.11499 -0.177316 0)
(5.13323 -0.227536 0)
(5.15262 -0.281248 0)
(5.17256 -0.340063 0)
(5.19248 -0.404619 0)
(5.21015 -0.475809 0)
(5.22459 -0.553045 0)
(5.23251 -0.63696 0)
(5.23369 -0.725292 0)
(5.22406 -0.818759 0)
(5.0164 0.262466 0)
(5.06664 0.187281 0)
(5.06633 0.121859 0)
(5.04888 0.064939 0)
(5.04343 0.0124536 0)
(5.05237 -0.0384502 0)
(5.06775 -0.0883951 0)
(5.08393 -0.137485 0)
(5.09917 -0.1865 0)
(5.11351 -0.237395 0)
(5.1277 -0.291844 0)
(5.14143 -0.3512 0)
(5.15438 -0.415635 0)
(5.16458 -0.485482 0)
(5.17153 -0.559653 0)
(5.1723 -0.638452 0)
(5.1675 -0.719545 0)
(5.15317 -0.803877 0)
(5.04139 0.260395 0)
(5.09174 0.184886 0)
(5.09082 0.119192 0)
(5.0737 0.0597028 0)
(5.06746 0.00366616 0)
(5.07313 -0.0498199 0)
(5.08352 -0.100844 0)
(5.09432 -0.150167 0)
(5.10457 -0.199415 0)
(5.11441 -0.250477 0)
(5.12407 -0.304613 0)
(5.13265 -0.362727 0)
(5.13937 -0.424673 0)
(5.14238 -0.490601 0)
(5.14148 -0.559318 0)
(5.13442 -0.631085 0)
(5.12234 -0.703614 0)
(5.10195 -0.778033 0)
(5.03032 0.268086 0)
(5.09123 0.198665 0)
(5.0989 0.132291 0)
(5.08568 0.0687101 0)
(5.0787 0.00892596 0)
(5.08047 -0.047221 0)
(5.08565 -0.100441 0)
(5.09097 -0.151905 0)
(5.09562 -0.202942 0)
(5.09945 -0.254969 0)
(5.10251 -0.308922 0)
(5.10403 -0.365545 0)
(5.1035 -0.424662 0)
(5.09942 -0.486337 0)
(5.09176 -0.549325 0)
(5.07859 -0.61381 0)
(5.06117 -0.677634 0)
(5.03662 -0.742064 0)
(5.0273 0.24313 0)
(5.08613 0.17777 0)
(5.09482 0.114759 0)
(5.08433 0.0543064 0)
(5.07921 -0.00338802 0)
(5.08114 -0.0582412 0)
(5.08512 -0.110591 0)
(5.08815 -0.161277 0)
(5.08963 -0.21137 0)
(5.08971 -0.26199 0)
(5.08859 -0.313751 0)
(5.08548 -0.367081 0)
(5.0798 -0.421518 0)
(5.07014 -0.476936 0)
(5.0567 -0.532058 0)
(5.038 -0.587262 0)
(5.01563 -0.640653 0)
(4.98723 -0.694008 0)
(5.07346 0.263295 0)
(5.12764 0.19555 0)
(5.13312 0.127128 0)
(5.12016 0.0633343 0)
(5.11285 0.00512318 0)
(5.11267 -0.0489717 0)
(5.11391 -0.100554 0)
(5.11295 -0.150816 0)
(5.10897 -0.200407 0)
(5.10225 -0.249632 0)
(5.09312 -0.298407 0)
(5.08123 -0.346774 0)
(5.06649 -0.394381 0)
(5.04829 -0.441436 0)
(5.02707 -0.487256 0)
(5.00204 -0.532485 0)
(4.97436 -0.575746 0)
(4.94256 -0.618644 0)
(5.04558 0.246573 0)
(5.10314 0.178239 0)
(5.10949 0.113019 0)
(5.09558 0.051366 0)
(5.08616 -0.00584857 0)
(5.08284 -0.0587368 0)
(5.08014 -0.10786 0)
(5.07462 -0.153751 0)
(5.06548 -0.197004 0)
(5.05308 -0.238586 0)
(5.03814 -0.279374 0)
(5.02088 -0.319982 0)
(5.00147 -0.360206 0)
(4.97947 -0.399884 0)
(4.95524 -0.43802 0)
(4.92816 -0.474759 0)
(4.89929 -0.508883 0)
(4.86747 -0.541736 0)
(5.03682 0.260704 0)
(5.09342 0.190484 0)
(5.1028 0.1238 0)
(5.09467 0.0640407 0)
(5.09111 0.010927 0)
(5.09167 -0.0369077 0)
(5.09061 -0.0809453 0)
(5.08555 -0.122354 0)
(5.07657 -0.161929 0)
(5.06421 -0.200136 0)
(5.04896 -0.237054 0)
(5.03079 -0.272656 0)
(5.0098 -0.306567 0)
(4.98576 -0.338761 0)
(4.9593 -0.368791 0)
(4.93017 -0.397241 0)
(4.89951 -0.42352 0)
(4.86643 -0.449041 0)
(5.00598 0.247989 0)
(5.06575 0.171974 0)
(5.07838 0.102569 0)
(5.07399 0.043622 0)
(5.07419 -0.00646082 0)
(5.07839 -0.050684 0)
(5.08029 -0.0908987 0)
(5.07713 -0.12776 0)
(5.06903 -0.16148 0)
(5.0568 -0.192549 0)
(5.04104 -0.221575 0)
(5.02194 -0.249217 0)
(4.99987 -0.275684 0)
(4.97492 -0.301148 0)
(4.94777 -0.325138 0)
(4.91835 -0.347857 0)
(4.88756 -0.368609 0)
(4.85482 -0.388317 0)
(5.0324 0.258497 0)
(5.09334 0.170353 0)
(5.10894 0.10176 0)
(5.10726 0.0474984 0)
(5.10851 0.00202991 0)
(5.11229 -0.0380686 0)
(5.11297 -0.0741769 0)
(5.10794 -0.106818 0)
(5.09715 -0.136356 0)
(5.08156 -0.163426 0)
(5.06234 -0.188665 0)
(5.04012 -0.212523 0)
(5.01532 -0.235003 0)
(4.98799 -0.256148 0)
(4.95858 -0.275644 0)
(4.92702 -0.293823 0)
(4.89415 -0.310299 0)
(4.85951 -0.325998 0)
(5.03823 0.249769 0)
(5.10938 0.152133 0)
(5.13786 0.0796511 0)
(5.1449 0.0254135 0)
(5.14935 -0.0179984 0)
(5.15178 -0.0541545 0)
(5.14862 -0.0844893 0)
(5.13923 -0.110275 0)
(5.12466 -0.132867 0)
(5.10598 -0.153415 0)
(5.08396 -0.172629 0)
(5.05915 -0.190845 0)
(5.03213 -0.207988 0)
(5.00319 -0.224076 0)
(4.97286 -0.238818 0)
(4.94098 -0.252456 0)
(4.90814 -0.264624 0)
(4.87371 -0.276043 0)
(4.98564 0.243673 0)
(5.07709 0.141701 0)
(5.12204 0.0748012 0)
(5.13784 0.0316293 0)
(5.14595 -0.00205589 0)
(5.15186 -0.032642 0)
(5.15349 -0.0600138 0)
(5.14897 -0.0833603 0)
(5.13802 -0.103407 0)
(5.12145 -0.121438 0)
(5.10062 -0.138331 0)
(5.07663 -0.154476 0)
(5.05023 -0.169779 0)
(5.02157 -0.184099 0)
(4.99103 -0.19698 0)
(4.95849 -0.208443 0)
(4.92465 -0.218164 0)
(4.88913 -0.226736 0)
(5.04422 0.212836 0)
(5.14584 0.0974931 0)
(5.2023 0.0318356 0)
(5.22228 -0.0067285 0)
(5.22781 -0.0366577 0)
(5.22814 -0.0617691 0)
(5.22455 -0.0815634 0)
(5.21597 -0.0967993 0)
(5.20188 -0.109476 0)
(5.1829 -0.12121 0)
(5.16006 -0.132594 0)
(5.13398 -0.143605 0)
(5.10503 -0.153903 0)
(5.07327 -0.163272 0)
(5.03917 -0.171383 0)
(5.0029 -0.178381 0)
(4.96536 -0.184106 0)
(4.92651 -0.189183 0)
(5.03765 0.205202 0)
(5.15792 0.0963 0)
(5.22949 0.0492239 0)
(5.25284 0.0209472 0)
(5.25625 -0.00670733 0)
(5.25495 -0.0313589 0)
(5.25059 -0.050272 0)
(5.24152 -0.0647053 0)
(5.22704 -0.0768756 0)
(5.20767 -0.0879777 0)
(5.18432 -0.0982154 0)
(5.15751 -0.107538 0)
(5.12768 -0.115858 0)
(5.09509 -0.123223 0)
(5.06042 -0.129506 0)
(5.02398 -0.134834 0)
(4.98655 -0.13911 0)
(4.94794 -0.142754 0)
(5.02709 0.147391 0)
(5.18057 0.018387 0)
(5.26568 -0.0141332 0)
(5.28665 -0.0296961 0)
(5.28716 -0.0475228 0)
(5.28737 -0.0629924 0)
(5.28624 -0.0740929 0)
(5.27916 -0.082185 0)
(5.26478 -0.0887984 0)
(5.24436 -0.0945702 0)
(5.21951 -0.0996253 0)
(5.1911 -0.104068 0)
(5.15978 -0.107941 0)
(5.12594 -0.111298 0)
(5.09032 -0.113947 0)
(5.05314 -0.115901 0)
(5.01509 -0.117025 0)
(4.9758 -0.11769 0)
(5.03414 0.154135 0)
(5.23868 0.050076 0)
(5.34702 0.030068 0)
(5.37032 0.00664424 0)
(5.37034 -0.0166359 0)
(5.36923 -0.0320802 0)
(5.36403 -0.0417175 0)
(5.35099 -0.0490535 0)
(5.33046 -0.0553815 0)
(5.30462 -0.0607767 0)
(5.27515 -0.0651927 0)
(5.24279 -0.0688578 0)
(5.20794 -0.0719821 0)
(5.17093 -0.0747357 0)
(5.13228 -0.0768673 0)
(5.09219 -0.0782251 0)
(5.05101 -0.0784945 0)
(5.00851 -0.0779194 0)
(5.0295 0.0162122 0)
(5.28229 -0.055462 0)
(5.39269 -0.0417602 0)
(5.40854 -0.0508347 0)
(5.40409 -0.0600994 0)
(5.39649 -0.06362 0)
(5.38138 -0.0648313 0)
(5.35567 -0.0660155 0)
(5.32029 -0.0672194 0)
(5.27776 -0.0679658 0)
(5.23031 -0.068063 0)
(5.17944 -0.0676882 0)
(5.12602 -0.0670343 0)
(5.07096 -0.0662771 0)
(5.01487 -0.0652322 0)
(4.95883 -0.0637787 0)
(4.90282 -0.0615758 0)
(4.84822 -0.0587659 0)
(4.96675 0.0695496 0)
(5.14426 0.000662849 0)
(5.10395 -0.00308913 0)
(4.96183 -0.0137657 0)
(4.81538 -0.0208836 0)
(4.68163 -0.0231625 0)
(4.55498 -0.0235036 0)
(4.43072 -0.023462 0)
(4.30826 -0.0232023 0)
(4.1894 -0.0225467 0)
(4.07622 -0.0215109 0)
(3.96981 -0.020356 0)
(3.86998 -0.0193416 0)
(3.77623 -0.0185199 0)
(3.6879 -0.0175545 0)
(3.60607 -0.0161398 0)
(3.53037 -0.0139979 0)
(3.46407 -0.011546 0)
(0.00584333 -0.0174056 1.80562e-20)
(0.0286601 -0.0261594 -1.79433e-20)
(0.0564991 -0.0269726 0)
(0.0834732 -0.0271138 0)
(0.111195 -0.0274535 0)
(0.139462 -0.0279342 1.74592e-20)
(0.168522 -0.0285111 0)
(0.198429 -0.0291663 0)
(0.22929 -0.0298862 0)
(0.261184 -0.0306624 0)
(0.29416 -0.0314812 -1.6869e-20)
(0.328281 -0.0323198 0)
(0.363576 -0.0331708 0)
(0.400066 -0.0340142 0)
(0.437755 -0.0348331 0)
(0.476612 -0.0356148 -1.629e-20)
(0.516608 -0.0363399 0)
(0.557697 -0.0369955 0)
(0.599806 -0.0375727 0)
(0.642848 -0.0380588 0)
(0.686733 -0.0384456 0)
(0.731356 -0.0387267 0)
(0.776604 -0.0388979 0)
(0.822357 -0.038957 -1.53697e-20)
(0.86849 -0.0389038 1.52542e-20)
(0.914875 -0.0387399 -1.51385e-20)
(0.961385 -0.0384684 -1.50226e-20)
(1.00789 -0.0380941 0)
(1.05428 -0.0376228 0)
(1.10042 -0.0370614 1.46736e-20)
(1.14621 -0.0364173 1.45568e-20)
(1.19153 -0.0356987 0)
(1.2363 -0.0349139 0)
(1.28041 -0.0340715 1.42056e-20)
(1.32379 -0.0331798 0)
(1.36637 -0.0322472 0)
(1.40807 -0.0312816 -1.38533e-20)
(1.44885 -0.0302905 0)
(1.48866 -0.0292811 -1.36183e-20)
(1.52746 -0.0282599 -2.70019e-20)
(1.56521 -0.027233 0)
(1.60189 -0.0262058 0)
(1.63748 -0.0251834 0)
(1.67197 -0.0241699 0)
(1.70536 -0.0231694 0)
(1.73763 -0.0221851 -2.55993e-20)
(1.7688 -0.0212199 -2.53673e-20)
(1.79888 -0.0202761 -2.51359e-20)
(1.82786 -0.0193558 0)
(1.85578 -0.0184605 2.46753e-20)
(1.88263 -0.0175915 0)
(1.90845 -0.0167497 -2.42179e-20)
(1.93324 -0.0159359 -2.39906e-20)
(1.95705 -0.0151503 0)
(1.97988 -0.0143934 0)
(2.00176 -0.013665 0)
(2.02272 -0.012965 -2.30911e-20)
(2.04279 -0.0122932 0)
(2.06198 -0.0116492 0)
(2.08034 -0.0110323 0)
(2.09788 -0.0104423 0)
(2.11463 -0.00987818 0)
(2.13062 -0.00933949 0)
(2.14588 -0.00882541 0)
(2.16042 -0.00833522 0)
(2.17429 -0.00786809 2.11329e-20)
(2.18749 -0.00742327 0)
(2.20007 -0.00699993 0)
(2.21203 -0.00659729 -2.05022e-20)
(2.22341 -0.00621453 -2.02946e-20)
(2.23423 -0.0058509 0)
(2.24451 -0.00550558 1.98832e-20)
(2.25428 -0.00517785 -1.96794e-20)
(2.26354 -0.00486692 0)
(2.27234 -0.00457211 1.92758e-20)
(2.28067 -0.00429267 0)
(2.28857 -0.00402795 0)
(2.29606 -0.00377725 -1.86802e-20)
(2.30314 -0.00353996 0)
(2.30985 -0.0033154 1.82897e-20)
(2.31619 -0.00310303 0)
(2.32218 -0.00290222 -1.79044e-20)
(2.32784 -0.00271246 -1.77138e-20)
(2.33318 -0.00253314 -1.75244e-20)
(2.33822 -0.0023638 -3.46725e-20)
(2.34298 -0.0022039 3.42989e-20)
(2.34745 -0.00205298 0)
(2.35167 -0.00191052 0)
(2.35563 -0.00177613 0)
(2.35936 -0.00164928 3.28299e-20)
(2.36286 -0.00152956 3.24689e-20)
(2.36614 -0.00141632 -3.21105e-20)
(2.36922 -0.00130873 0)
(2.3721 -0.00120592 3.14011e-20)
(2.3748 -0.00110681 3.10502e-20)
(2.37731 -0.00101015 3.07017e-20)
(2.37965 -0.000916429 0)
(2.38183 -0.00082619 0)
(2.38384 -0.000738132 0)
(2.38569 -0.000653557 2.93318e-20)
(2.38739 -0.000576763 0)
(2.38895 -0.000509955 0)
(2.39039 -0.00045255 -2.83293e-20)
(2.39171 -0.000403156 0)
(2.39292 -0.000360159 0)
(2.39403 -0.000321952 -2.73477e-20)
(2.39506 -0.00028724 0)
(2.39599 -0.000255226 0)
(2.39685 -0.000225414 2.63866e-20)
(2.39762 -0.000197569 2.60707e-20)
(2.39833 -0.000171512 0)
(2.39897 -0.000147153 -2.54454e-20)
(2.39954 -0.000124382 0)
(2.40006 -0.000103127 2.48289e-20)
(2.40052 -8.32978e-05 0)
(2.40092 -6.48043e-05 2.42208e-20)
(2.40127 -4.75856e-05 2.39199e-20)
(2.40158 -3.15424e-05 0)
(2.40184 -1.66551e-05 0)
(2.40205 -2.81441e-06 0)
(2.40223 1.00266e-05 0)
(2.40237 2.19764e-05 0)
(2.40248 3.3106e-05 0)
(2.40255 4.34656e-05 0)
(2.40259 5.30984e-05 2.15863e-20)
(2.4026 6.20172e-05 -2.13034e-20)
(2.40258 7.0275e-05 0)
(2.40254 7.79026e-05 0)
(2.40247 8.49643e-05 0)
(2.40238 9.14908e-05 0)
(2.40226 9.75348e-05 -3.98356e-20)
(2.40213 0.000103117 0)
(2.40197 0.000108286 3.87529e-20)
(2.4018 0.000113058 -3.8217e-20)
(2.40161 0.000117478 0)
(2.4014 0.000121565 0)
(2.40118 0.000125356 0)
(2.40094 0.000128871 3.61084e-20)
(2.40069 0.000132105 3.55899e-20)
(2.40042 0.0001351 0)
(2.40014 0.000137849 3.4563e-20)
(2.39985 0.000140434 3.40545e-20)
(2.39955 0.000142867 -3.35494e-20)
(2.39923 0.000145215 0)
(2.3989 0.000147475 0)
(2.39856 0.000149693 -3.20531e-20)
(2.39821 0.00015187 0)
(2.39785 0.000154059 0)
(2.39748 0.000156277 0)
(2.3971 0.000158584 0)
(2.3967 0.000161014 2.96219e-20)
(2.39629 0.000163637 2.91448e-20)
(2.39587 0.000166518 0)
(2.39544 0.000169757 2.81993e-20)
(2.39498 0.000173455 0)
(2.39451 0.000177765 0)
(2.39402 0.000182857 2.68027e-20)
(2.3935 0.000188966 0)
(2.39296 0.000196368 2.58857e-20)
(2.39238 0.000205439 0)
(2.39176 0.000216638 0)
(2.39108 0.000230581 2.45308e-20)
(2.39034 0.00024804 0)
(2.38953 0.000270053 2.3641e-20)
(2.38861 0.000297947 0)
(2.38756 0.000333549 0)
(2.38635 0.00037917 0)
(2.38492 0.000438271 -2.18937e-20)
(2.38322 0.000514931 0)
(2.38115 0.000616258 2.10365e-20)
(2.37861 0.00075105 0)
(2.37538 0.000928504 0)
(2.37131 0.00119921 0)
(2.36586 0.00147273 0)
(2.35882 0.00224788 0)
(2.34825 0.00230167 0)
(2.33542 0.00565686 0)
(2.30795 0.00365514 -3.55131e-20)
(2.28407 0.0224458 0)
(2.17819 0.0199881 0)
(0.00526722 -0.0544948 -5.41955e-20)
(0.0298005 -0.0840559 5.38569e-20)
(0.0583514 -0.0867945 0)
(0.086431 -0.0871618 -3.54161e-20)
(0.115164 -0.0881582 0)
(0.144489 -0.0896232 -1.74695e-20)
(0.174646 -0.0914029 3.46969e-20)
(0.205713 -0.093432 3.44598e-20)
(0.237794 -0.0956683 0)
(0.27097 -0.0980813 3.39892e-20)
(0.305317 -0.10062 1.68787e-20)
(0.340886 -0.103235 0)
(0.377699 -0.10588 0)
(0.415794 -0.108499 0)
(0.455161 -0.111047 0)
(0.495772 -0.113469 1.62988e-20)
(0.537598 -0.115719 0)
(0.580571 -0.117753 -3.21379e-20)
(0.624619 -0.119537 0)
(0.669651 -0.121038 0)
(0.715567 -0.122229 3.14481e-20)
(0.762254 -0.123092 0)
(0.809589 -0.123614 -3.09873e-20)
(0.857446 -0.123788 1.53769e-20)
(0.905691 -0.123614 -1.52612e-20)
(0.954191 -0.123097 1.51453e-20)
(1.00281 -0.122247 1.50292e-20)
(1.05143 -0.121079 0)
(1.0999 -0.119611 0)
(1.14811 -0.117864 -1.46795e-20)
(1.19595 -0.115861 1.45656e-20)
(1.24331 -0.113627 0)
(1.29008 -0.111188 0)
(1.33618 -0.108569 -1.42108e-20)
(1.38151 -0.105797 0)
(1.42602 -0.102896 0)
(1.46962 -0.0998917 1.3858e-20)
(1.51227 -0.0968063 0)
(1.55393 -0.0936617 -1.36249e-20)
(1.59454 -0.0904782 2.70103e-20)
(1.63407 -0.0872741 0)
(1.67251 -0.0840664 0)
(1.70984 -0.0808702 5.26162e-20)
(1.74603 -0.0776989 5.21482e-20)
(1.78109 -0.0745645 5.16812e-20)
(1.81502 -0.0714773 -2.56091e-20)
(1.84781 -0.0684463 2.53738e-20)
(1.87947 -0.0654788 7.54292e-20)
(1.91002 -0.0625814 -4.9825e-20)
(1.93946 -0.059759 -2.46812e-20)
(1.96782 -0.0570158 0)
(1.9951 -0.054355 2.42235e-20)
(2.02134 -0.0517788 -2.39978e-20)
(2.04655 -0.0492889 0)
(2.07076 -0.0468861 0)
(2.09399 -0.0445708 0)
(2.11627 -0.0423428 2.30958e-20)
(2.13763 -0.0402014 0)
(2.15808 -0.0381456 -4.53055e-20)
(2.17766 -0.0361742 0)
(2.19639 -0.0342857 -4.44272e-20)
(2.2143 -0.0324781 0)
(2.23142 -0.0307496 4.35584e-20)
(2.24778 -0.0290981 0)
(2.26339 -0.0275213 -4.26995e-20)
(2.2783 -0.026017 2.11372e-20)
(2.29251 -0.0245828 0)
(2.30607 -0.0232164 4.14299e-20)
(2.31899 -0.0219154 2.05056e-20)
(2.33129 -0.0206774 2.02979e-20)
(2.34301 -0.0195 0)
(2.35416 -0.0183809 1.98868e-20)
(2.36476 -0.0173178 1.96825e-20)
(2.37485 -0.0163083 0)
(2.38443 -0.0153504 -1.92788e-20)
(2.39354 -0.0144417 3.8158e-20)
(2.40219 -0.0135802 0)
(2.41039 -0.0127639 1.8683e-20)
(2.41818 -0.0119906 0)
(2.42556 -0.0112585 -5.48774e-20)
(2.43256 -0.0105658 0)
(2.43919 -0.00991051 5.37212e-20)
(2.44547 -0.00929103 1.77163e-20)
(2.45142 -0.00870557 -1.7527e-20)
(2.45704 -0.00815258 -3.46777e-20)
(2.46236 -0.00763043 3.43039e-20)
(2.46739 -0.00713769 0)
(2.47214 -0.0066728 0)
(2.47662 -0.00623446 0)
(2.48085 -0.00582125 -9.85032e-20)
(2.48485 -0.00543187 -3.24733e-20)
(2.48861 -0.00506498 3.21148e-20)
(2.49216 -0.00471921 0)
(2.49551 -0.00439336 3.14055e-20)
(2.49866 -0.0040863 -3.10544e-20)
(2.50163 -0.00379649 -3.07058e-20)
(2.50443 -0.00352298 0)
(2.50708 -0.00326514 0)
(2.50958 -0.00302165 0)
(2.51195 -0.00279227 -2.93358e-20)
(2.51419 -0.00257771 0)
(2.51631 -0.00237774 5.73303e-20)
(2.51832 -0.00219247 8.49998e-20)
(2.5202 -0.00202145 -5.60075e-20)
(2.52197 -0.00186329 0)
(2.52363 -0.00171653 -2.73516e-20)
(2.52519 -0.00158001 0)
(2.52665 -0.0014528 -5.34171e-20)
(2.52801 -0.0013342 2.63904e-20)
(2.52928 -0.00122363 2.60744e-20)
(2.53047 -0.00112058 0)
(2.53158 -0.0010246 7.63474e-20)
(2.53261 -0.000935231 -5.02794e-20)
(2.53358 -0.00085208 -2.48325e-20)
(2.53448 -0.00077475 0)
(2.53531 -0.000702854 -2.42244e-20)
(2.53609 -0.00063607 -7.17703e-20)
(2.53681 -0.000574052 0)
(2.53749 -0.000516561 -4.66557e-20)
(2.53811 -0.000463254 -4.60662e-20)
(2.53869 -0.000413862 -4.54808e-20)
(2.53923 -0.000368041 0)
(2.53973 -0.000325521 0)
(2.54019 -0.000286083 0)
(2.54062 -0.000249556 2.15895e-20)
(2.54102 -0.000215806 2.13066e-20)
(2.54138 -0.000184641 0)
(2.54172 -0.0001559 4.14933e-20)
(2.54203 -0.000129369 4.0939e-20)
(2.54232 -0.000104911 0)
(2.54258 -8.23439e-05 3.98416e-20)
(2.54283 -6.15621e-05 7.85967e-20)
(2.54305 -4.23988e-05 -3.87588e-20)
(2.54326 -2.47685e-05 -3.82227e-20)
(2.54345 -8.51614e-06 0)
(2.54363 6.44006e-06 0)
(2.54379 2.02285e-05 0)
(2.54393 3.29193e-05 -3.6114e-20)
(2.54407 4.45611e-05 3.55954e-20)
(2.54419 5.52578e-05 7.01604e-20)
(2.5443 6.506e-05 -3.45684e-20)
(2.5444 7.41469e-05 3.40598e-20)
(2.54449 8.26054e-05 3.35546e-20)
(2.54457 9.0589e-05 0)
(2.54465 9.81383e-05 0)
(2.54472 0.00010537 -3.20581e-20)
(2.54478 0.000112331 0)
(2.54483 0.000119156 0)
(2.54487 0.000125931 6.11801e-20)
(2.54491 0.000132816 0)
(2.54494 0.000139933 2.96266e-20)
(2.54496 0.000147489 -2.91494e-20)
(2.54498 0.000155674 0)
(2.54498 0.000164774 2.82037e-20)
(2.54497 0.000175094 0)
(2.54495 0.000187059 0)
(2.54492 0.000201156 -2.6807e-20)
(2.54487 0.000218044 5.2694e-20)
(2.5448 0.000238513 -2.58899e-20)
(2.5447 0.000263613 0)
(2.54457 0.000294646 0)
(2.5444 0.000333331 2.45347e-20)
(2.54417 0.000381852 0)
(2.54389 0.000443093 2.36447e-20)
(2.54352 0.000520811 0)
(2.54304 0.000619986 0)
(2.54242 0.000747364 0)
(2.54162 0.000911713 2.18973e-20)
(2.54059 0.00112641 0)
(2.53924 0.00140589 -2.104e-20)
(2.53751 0.00178497 0)
(2.53513 0.00226999 0)
(2.5322 0.00301229 3.95522e-20)
(2.52777 0.00382531 -3.87234e-20)
(2.52268 0.00564952 0)
(2.51374 0.00672608 0)
(2.50431 0.0129585 0)
(2.4854 0.0138531 1.06539e-19)
(2.46702 0.0429283 0)
(2.43882 0.0510784 -6.79807e-20)
(0.00497166 -0.0904582 7.8912e-24)
(0.0286688 -0.140351 -7.18324e-20)
(0.0562065 -0.144685 0)
(0.0832968 -0.145304 7.08589e-20)
(0.111123 -0.147039 0)
(0.1396 -0.149603 0)
(0.168995 -0.152713 -5.90733e-24)
(0.199412 -0.156264 -3.44763e-20)
(0.230949 -0.160182 -3.42356e-20)
(0.263706 -0.164405 -3.40053e-20)
(0.297764 -0.168844 0)
(0.333173 -0.173419 0)
(0.369971 -0.178038 3.33042e-20)
(0.408171 -0.182605 6.61466e-20)
(0.447772 -0.187041 -6.56858e-20)
(0.488742 -0.191247 0)
(0.531027 -0.195154 -6.47662e-20)
(0.574553 -0.19868 3.21517e-20)
(0.61923 -0.20176 0)
(0.664952 -0.204341 -6.33882e-20)
(0.7116 -0.206381 -3.14607e-20)
(0.759046 -0.207849 6.24679e-20)
(0.807153 -0.208725 3.09991e-20)
(0.855778 -0.209001 0)
(0.904775 -0.208677 -6.10818e-20)
(0.954 -0.207767 -6.06179e-20)
(1.00331 -0.206289 0)
(1.05256 -0.204271 -5.9687e-20)
(1.10163 -0.201745 0)
(1.15038 -0.198749 -5.87522e-20)
(1.1987 -0.195324 -2.91367e-20)
(1.24647 -0.191514 0)
(1.2936 -0.187362 0)
(1.34 -0.182914 0)
(1.38559 -0.178213 0)
(1.4303 -0.173302 0)
(1.47405 -0.168222 0)
(1.51682 -0.163012 -5.49859e-20)
(1.55854 -0.157708 8.17675e-20)
(1.59919 -0.152344 0)
(1.63873 -0.146949 0)
(1.67715 -0.141553 0)
(1.71444 -0.13618 6.02847e-24)
(1.75057 -0.130852 -5.21569e-20)
(1.78556 -0.125588 -1.03384e-19)
(1.81939 -0.120406 1.02451e-19)
(1.85209 -0.11532 5.07624e-20)
(1.88365 -0.110341 -5.02939e-20)
(1.91409 -0.105481 -4.14282e-24)
(1.94342 -0.100747 -4.93746e-20)
(1.97167 -0.0961467 0)
(1.99884 -0.0916843 -4.84576e-20)
(2.02497 -0.0873637 -3.17533e-24)
(2.05008 -0.0831874 0)
(2.07419 -0.0791568 0)
(2.09732 -0.0752722 4.66467e-20)
(2.11951 -0.0715334 0)
(2.14077 -0.0679392 0)
(2.16114 -0.064488 -4.53131e-20)
(2.18065 -0.0611775 -8.97405e-20)
(2.19931 -0.0580053 4.44301e-20)
(2.21715 -0.0549682 0)
(2.23421 -0.0520631 -4.35609e-20)
(2.25051 -0.0492864 0)
(2.26608 -0.0466347 -4.27044e-20)
(2.28093 -0.044104 -4.22757e-20)
(2.29511 -0.0416906 8.37072e-20)
(2.30863 -0.0393904 4.14338e-20)
(2.32151 -0.0371997 0)
(2.33378 -0.0351144 -8.11974e-20)
(2.34547 -0.0331306 0)
(2.3566 -0.0312445 -1.19325e-19)
(2.36719 -0.0294522 -7.87346e-20)
(2.37726 -0.0277499 -7.79242e-20)
(2.38683 -0.026134 7.7119e-20)
(2.39592 -0.0246008 -1.14478e-19)
(2.40456 -0.0231469 0)
(2.41276 -0.0217688 0)
(2.42054 -0.0204632 7.3951e-20)
(2.42792 -0.0192268 1.09758e-19)
(2.43492 -0.0180567 0)
(2.44155 -0.0169497 -3.58147e-20)
(2.44783 -0.0159029 0)
(2.45378 -0.0149135 1.05163e-19)
(2.4594 -0.0139789 -6.39274e-25)
(2.46472 -0.0130964 5.91385e-25)
(2.46976 -0.0122635 -6.78662e-20)
(2.47451 -0.0114778 0)
(2.479 -0.0107369 6.63967e-20)
(2.48324 -0.0100388 -4.30692e-25)
(2.48724 -0.0093812 0)
(2.49102 -0.00876223 0)
(2.49457 -0.00818016 0)
(2.49793 -0.00763342 -6.28109e-20)
(2.50108 -0.00712027 0)
(2.50405 -0.00663888 0)
(2.50685 -0.00618726 0)
(2.50948 -0.00576337 0)
(2.51196 -0.00536588 0)
(2.51428 -0.00499331 -5.86721e-20)
(2.51647 -0.00464356 0)
(2.51853 -0.00431516 -5.73305e-20)
(2.52046 -0.00400718 -5.66668e-20)
(2.52227 -0.00371779 5.60078e-20)
(2.52396 -0.00344585 0)
(2.52555 -0.00319063 5.47035e-20)
(2.52704 -0.00295151 0)
(2.52843 -0.0027278 5.34174e-20)
(2.52973 -0.00251882 -5.27811e-20)
(2.53095 -0.00232378 -1.56448e-19)
(2.53209 -0.00214193 0)
(2.53315 -0.00197247 -1.52696e-19)
(2.53414 -0.00181467 -5.02799e-20)
(2.53506 -0.0016678 0)
(2.53593 -0.00153119 -9.81102e-20)
(2.53673 -0.00140419 -9.68982e-20)
(2.53748 -0.0012862 1.43542e-19)
(2.53818 -0.00117669 0)
(2.53883 -0.00107513 4.66561e-20)
(2.53943 -0.000980988 4.60666e-20)
(2.53999 -0.000893719 1.36444e-19)
(2.54052 -0.00081277 0)
(2.541 -0.000737694 0)
(2.54145 -0.000668113 0)
(2.54187 -0.000603739 4.31793e-20)
(2.54226 -0.000544267 0)
(2.54262 -0.000489387 0)
(2.54295 -0.000438761 -4.14937e-20)
(2.54326 -0.000392074 -4.09394e-20)
(2.54354 -0.000349039 0)
(2.54381 -0.000309384 0)
(2.54405 -0.000272871 -7.85974e-20)
(2.54428 -0.000239257 0)
(2.54449 -0.000208333 7.64462e-20)
(2.54468 -0.00017988 7.53813e-20)
(2.54486 -0.000153706 0)
(2.54503 -0.000129637 0)
(2.54518 -0.000107543 -7.22286e-20)
(2.54532 -8.73066e-05 -2.25381e-26)
(2.54545 -6.87792e-05 -2.37333e-26)
(2.54557 -5.17876e-05 0)
(2.54568 -3.60892e-05 -1.3624e-19)
(2.54579 -2.14969e-05 0)
(2.54588 -7.81592e-06 0)
(2.54597 5.07209e-06 0)
(2.54605 1.7323e-05 6.41169e-20)
(2.54612 2.90601e-05 0)
(2.54618 4.04709e-05 -1.24306e-19)
(2.54624 5.1724e-05 -6.11807e-20)
(2.54629 6.30521e-05 0)
(2.54634 7.46859e-05 -5.92538e-20)
(2.54637 8.69342e-05 0)
(2.5464 0.00010013 0)
(2.54642 0.000114718 -1.69224e-19)
(2.54643 0.000131206 1.10942e-19)
(2.54643 0.000150259 0)
(2.54641 0.000172674 1.07229e-19)
(2.54638 0.000199487 -5.26945e-20)
(2.54632 0.000231978 0)
(2.54624 0.000271806 0)
(2.54613 0.000321061 0)
(2.54597 0.000382462 -1.4721e-19)
(2.54577 0.000459498 0)
(2.5455 0.000556725 -4.72901e-20)
(2.54514 0.000680142 0)
(2.54468 0.000837533 0)
(2.54407 0.00103978 0)
(2.54329 0.00130009 0)
(2.54227 0.00164088 0)
(2.54093 0.00208145 0)
(2.5392 0.00268161 -8.24608e-20)
(2.53685 0.00344481 0)
(2.5339 0.00459176 -3.95528e-20)
(2.52958 0.00593876 1.16168e-19)
(2.52445 0.00848928 0)
(2.51607 0.0109524 0)
(2.50682 0.0181218 -7.25737e-20)
(2.49064 0.0237845 -7.10221e-20)
(2.47445 0.0486171 6.94466e-20)
(2.44901 0.0668508 6.79893e-20)
(0.00437462 -0.124541 1.08442e-19)
(0.0267913 -0.194406 1.07766e-19)
(0.0528813 -0.200333 7.13492e-20)
(0.0785062 -0.201328 3.54221e-20)
(0.104975 -0.204005 0)
(0.132205 -0.207906 -6.99073e-20)
(0.160501 -0.212609 3.47077e-20)
(0.189981 -0.217973 0)
(0.220763 -0.223889 3.42528e-20)
(0.252966 -0.230254 0)
(0.286688 -0.236934 -6.75602e-20)
(0.321973 -0.243803 0)
(0.358872 -0.250736 -3.33206e-20)
(0.397388 -0.257565 -6.61788e-20)
(0.437506 -0.26418 6.57174e-20)
(0.479174 -0.270443 0)
(0.522328 -0.276226 6.47965e-20)
(0.566878 -0.281431 0)
(0.612693 -0.285956 0)
(0.659642 -0.289728 6.34162e-20)
(0.70758 -0.292683 0)
(0.756347 -0.294782 1.08952e-23)
(0.805782 -0.296002 0)
(0.855718 -0.296336 0)
(0.905989 -0.295794 -1.3401e-23)
(0.956431 -0.294396 6.06407e-20)
(1.00689 -0.292178 6.01891e-20)
(1.0572 -0.289184 5.9708e-20)
(1.10724 -0.285465 0)
(1.15686 -0.28108 1.17557e-19)
(1.20594 -0.276091 0)
(1.25439 -0.270563 5.78452e-20)
(1.30208 -0.264561 0)
(1.34895 -0.258151 0)
(1.39491 -0.251396 -5.64291e-20)
(1.4399 -0.244359 0)
(1.48387 -0.237096 5.54832e-20)
(1.52676 -0.229664 -1.11166e-23)
(1.56854 -0.222112 -1.09064e-19)
(1.60918 -0.214488 1.08129e-19)
(1.64867 -0.206834 0)
(1.68699 -0.199188 0)
(1.72412 -0.191585 5.26584e-20)
(1.76007 -0.184054 0)
(1.79485 -0.176623 5.17035e-20)
(1.82845 -0.169313 -5.12363e-20)
(1.86088 -0.162144 -5.07703e-20)
(1.89217 -0.155133 0)
(1.92232 -0.148292 4.98426e-20)
(1.95136 -0.141633 4.93811e-20)
(1.97931 -0.135165 -9.7853e-20)
(2.00619 -0.128893 4.84633e-20)
(2.03202 -0.122823 4.80073e-20)
(2.05682 -0.116957 0)
(2.08063 -0.111297 0)
(2.10348 -0.105843 -4.66511e-20)
(2.12538 -0.100594 0)
(2.14636 -0.0955493 0)
(2.16646 -0.0907051 9.06291e-20)
(2.1857 -0.0860586 8.97472e-20)
(2.2041 -0.081606 0)
(2.2217 -0.077343 0)
(2.23853 -0.0732651 0)
(2.2546 -0.0693672 0)
(2.26994 -0.0656444 8.54107e-20)
(2.28459 -0.0620912 -8.45621e-20)