# vtk DataFile Version 2.0
sampleSurface
ASCII
DATASET POLYDATA
POINTS 502 double
-0.0206 0 -0.0005
-0.0190172 0 -0.0005
-0.0190172 0 0.0005
-0.0206 0 0.0005
-0.0174976 0 -0.0005
-0.0174976 0 0.0005
-0.0160387 0 -0.0005
-0.0160387 0 0.0005
-0.0146381 0 -0.0005
-0.0146381 0 0.0005
-0.0132934 0 -0.0005
-0.0132934 0 0.0005
-0.0120025 0 -0.0005
-0.0120025 0 0.0005
-0.0107632 0 -0.0005
-0.0107632 0 0.0005
-0.00957337 0 -0.0005
-0.00957337 0 0.0005
-0.00843108 0 -0.0005
-0.00843108 0 0.0005
-0.00733443 0 -0.0005
-0.00733443 0 0.0005
-0.0062816 0 -0.0005
-0.0062816 0 0.0005
-0.00527083 0 -0.0005
-0.00527083 0 0.0005
-0.00430044 0 -0.0005
-0.00430044 0 0.0005
-0.00336883 0 -0.0005
-0.00336883 0 0.0005
-0.00247443 0 -0.0005
-0.00247443 0 0.0005
-0.00161577 0 -0.0005
-0.00161577 0 0.0005
-0.000791418 0 -0.0005
-0.000791418 0 0.0005
0 0 -0.0005
0 0 0.0005
0 -0.0254 -0.0005
0 -0.0254 0.0005
0 -0.0242711 0.0005
0 -0.0242711 -0.0005
0 -0.0231422 0.0005
0 -0.0231422 -0.0005
0 -0.0220133 0.0005
0 -0.0220133 -0.0005
0 -0.0208844 0.0005
0 -0.0208844 -0.0005
0 -0.0197556 0.0005
0 -0.0197556 -0.0005
0 -0.0186267 0.0005
0 -0.0186267 -0.0005
0 -0.0174978 0.0005
0 -0.0174978 -0.0005
0 -0.0163689 0.0005
0 -0.0163689 -0.0005
0 -0.01524 0.0005
0 -0.01524 -0.0005
0 -0.0141111 0.0005
0 -0.0141111 -0.0005
0 -0.0129822 0.0005
0 -0.0129822 -0.0005
0 -0.0118533 0.0005
0 -0.0118533 -0.0005
0 -0.0107244 0.0005
0 -0.0107244 -0.0005
0 -0.00959556 0.0005
0 -0.00959556 -0.0005
0 -0.00846667 0.0005
0 -0.00846667 -0.0005
0 -0.00726604 0.0005
0 -0.00726604 -0.0005
0 -0.00618989 0.0005
0 -0.00618989 -0.0005
0 -0.00522531 0.0005
0 -0.00522531 -0.0005
0 -0.00436073 0.0005
0 -0.00436073 -0.0005
0 -0.00358579 0.0005
0 -0.00358579 -0.0005
0 -0.00289118 0.0005
0 -0.00289118 -0.0005
0 -0.0022686 0.0005
0 -0.0022686 -0.0005
0 -0.00171055 0.0005
0 -0.00171055 -0.0005
0 -0.00121037 0.0005
0 -0.00121037 -0.0005
0 -0.000762037 0.0005
0 -0.000762037 -0.0005
0 -0.000360188 0.0005
0 -0.000360188 -0.0005
0.000528387 -0.0254 -0.0005
0.000528387 -0.0254 0.0005
0.00106088 -0.0254 -0.0005
0.00106088 -0.0254 0.0005
0.00159752 -0.0254 -0.0005
0.00159752 -0.0254 0.0005
0.00213833 -0.0254 -0.0005
0.00213833 -0.0254 0.0005
0.00268334 -0.0254 -0.0005
0.00268334 -0.0254 0.0005
0.00323259 -0.0254 -0.0005
0.00323259 -0.0254 0.0005
0.00378611 -0.0254 -0.0005
0.00378611 -0.0254 0.0005
0.00434393 -0.0254 -0.0005
0.00434393 -0.0254 0.0005
0.00490609 -0.0254 -0.0005
0.00490609 -0.0254 0.0005
0.00547262 -0.0254 -0.0005
0.00547262 -0.0254 0.0005
0.00604356 -0.0254 -0.0005
0.00604356 -0.0254 0.0005
0.00661893 -0.0254 -0.0005
0.00661893 -0.0254 0.0005
0.00719878 -0.0254 -0.0005
0.00719878 -0.0254 0.0005
0.00778313 -0.0254 -0.0005
0.00778313 -0.0254 0.0005
0.00837203 -0.0254 -0.0005
0.00837203 -0.0254 0.0005
0.00896551 -0.0254 -0.0005
0.00896551 -0.0254 0.0005
0.0095636 -0.0254 -0.0005
0.0095636 -0.0254 0.0005
0.0101663 -0.0254 -0.0005
0.0101663 -0.0254 0.0005
0.0107738 -0.0254 -0.0005
0.0107738 -0.0254 0.0005
0.0113859 -0.0254 -0.0005
0.0113859 -0.0254 0.0005
0.0120028 -0.0254 -0.0005
0.0120028 -0.0254 0.0005
0.0126245 -0.0254 -0.0005
0.0126245 -0.0254 0.0005
0.0132511 -0.0254 -0.0005
0.0132511 -0.0254 0.0005
0.0138825 -0.0254 -0.0005
0.0138825 -0.0254 0.0005
0.0145188 -0.0254 -0.0005
0.0145188 -0.0254 0.0005
0.0151601 -0.0254 -0.0005
0.0151601 -0.0254 0.0005
0.0158063 -0.0254 -0.0005
0.0158063 -0.0254 0.0005
0.0164576 -0.0254 -0.0005
0.0164576 -0.0254 0.0005
0.0171139 -0.0254 -0.0005
0.0171139 -0.0254 0.0005
0.0177754 -0.0254 -0.0005
0.0177754 -0.0254 0.0005
0.018442 -0.0254 -0.0005
0.018442 -0.0254 0.0005
0.0191137 -0.0254 -0.0005
0.0191137 -0.0254 0.0005
0.0197907 -0.0254 -0.0005
0.0197907 -0.0254 0.0005
0.020473 -0.0254 -0.0005
0.020473 -0.0254 0.0005
0.0211606 -0.0254 -0.0005
0.0211606 -0.0254 0.0005
0.0218535 -0.0254 -0.0005
0.0218535 -0.0254 0.0005
0.0225517 -0.0254 -0.0005
0.0225517 -0.0254 0.0005
0.0232555 -0.0254 -0.0005
0.0232555 -0.0254 0.0005
0.0239647 -0.0254 -0.0005
0.0239647 -0.0254 0.0005
0.0246794 -0.0254 -0.0005
0.0246794 -0.0254 0.0005
0.0253996 -0.0254 -0.0005
0.0253996 -0.0254 0.0005
0.0261255 -0.0254 -0.0005
0.0261255 -0.0254 0.0005
0.026857 -0.0254 -0.0005
0.026857 -0.0254 0.0005
0.0275942 -0.0254 -0.0005
0.0275942 -0.0254 0.0005
0.0283371 -0.0254 -0.0005
0.0283371 -0.0254 0.0005
0.0290858 -0.0254 -0.0005
0.0290858 -0.0254 0.0005
0.0298403 -0.0254 -0.0005
0.0298403 -0.0254 0.0005
0.0306007 -0.0254 -0.0005
0.0306007 -0.0254 0.0005
0.031367 -0.0254 -0.0005
0.031367 -0.0254 0.0005
0.0321393 -0.0254 -0.0005
0.0321393 -0.0254 0.0005
0.0329175 -0.0254 -0.0005
0.0329175 -0.0254 0.0005
0.0337019 -0.0254 -0.0005
0.0337019 -0.0254 0.0005
0.0344923 -0.0254 -0.0005
0.0344923 -0.0254 0.0005
0.0352888 -0.0254 -0.0005
0.0352888 -0.0254 0.0005
0.0360916 -0.0254 -0.0005
0.0360916 -0.0254 0.0005
0.0369006 -0.0254 -0.0005
0.0369006 -0.0254 0.0005
0.0377158 -0.0254 -0.0005
0.0377158 -0.0254 0.0005
0.0385375 -0.0254 -0.0005
0.0385375 -0.0254 0.0005
0.0393655 -0.0254 -0.0005
0.0393655 -0.0254 0.0005
0.0401999 -0.0254 -0.0005
0.0401999 -0.0254 0.0005
0.0410408 -0.0254 -0.0005
0.0410408 -0.0254 0.0005
0.0418883 -0.0254 -0.0005
0.0418883 -0.0254 0.0005
0.0427424 -0.0254 -0.0005
0.0427424 -0.0254 0.0005
0.0436031 -0.0254 -0.0005
0.0436031 -0.0254 0.0005
0.0444704 -0.0254 -0.0005
0.0444704 -0.0254 0.0005
0.0453446 -0.0254 -0.0005
0.0453446 -0.0254 0.0005
0.0462255 -0.0254 -0.0005
0.0462255 -0.0254 0.0005
0.0471133 -0.0254 -0.0005
0.0471133 -0.0254 0.0005
0.048008 -0.0254 -0.0005
0.048008 -0.0254 0.0005
0.0489096 -0.0254 -0.0005
0.0489096 -0.0254 0.0005
0.0498183 -0.0254 -0.0005
0.0498183 -0.0254 0.0005
0.050734 -0.0254 -0.0005
0.050734 -0.0254 0.0005
0.0516568 -0.0254 -0.0005
0.0516568 -0.0254 0.0005
0.0525868 -0.0254 -0.0005
0.0525868 -0.0254 0.0005
0.053524 -0.0254 -0.0005
0.053524 -0.0254 0.0005
0.0544686 -0.0254 -0.0005
0.0544686 -0.0254 0.0005
0.0554204 -0.0254 -0.0005
0.0554204 -0.0254 0.0005
0.0563797 -0.0254 -0.0005
0.0563797 -0.0254 0.0005
0.0573464 -0.0254 -0.0005
0.0573464 -0.0254 0.0005
0.0583206 -0.0254 -0.0005
0.0583206 -0.0254 0.0005
0.0593025 -0.0254 -0.0005
0.0593025 -0.0254 0.0005
0.0602919 -0.0254 -0.0005
0.0602919 -0.0254 0.0005
0.0612891 -0.0254 -0.0005
0.0612891 -0.0254 0.0005
0.0622939 -0.0254 -0.0005
0.0622939 -0.0254 0.0005
0.0633067 -0.0254 -0.0005
0.0633067 -0.0254 0.0005
0.0643272 -0.0254 -0.0005
0.0643272 -0.0254 0.0005
0.0653557 -0.0254 -0.0005
0.0653557 -0.0254 0.0005
0.0663923 -0.0254 -0.0005
0.0663923 -0.0254 0.0005
0.0674368 -0.0254 -0.0005
0.0674368 -0.0254 0.0005
0.0684895 -0.0254 -0.0005
0.0684895 -0.0254 0.0005
0.0695504 -0.0254 -0.0005
0.0695504 -0.0254 0.0005
0.0706195 -0.0254 -0.0005
0.0706195 -0.0254 0.0005
0.0716969 -0.0254 -0.0005
0.0716969 -0.0254 0.0005
0.0727828 -0.0254 -0.0005
0.0727828 -0.0254 0.0005
0.073877 -0.0254 -0.0005
0.073877 -0.0254 0.0005
0.0749798 -0.0254 -0.0005
0.0749798 -0.0254 0.0005
0.0760911 -0.0254 -0.0005
0.0760911 -0.0254 0.0005
0.0772111 -0.0254 -0.0005
0.0772111 -0.0254 0.0005
0.0783398 -0.0254 -0.0005
0.0783398 -0.0254 0.0005
0.0794772 -0.0254 -0.0005
0.0794772 -0.0254 0.0005
0.0806235 -0.0254 -0.0005
0.0806235 -0.0254 0.0005
0.0817787 -0.0254 -0.0005
0.0817787 -0.0254 0.0005
0.0829429 -0.0254 -0.0005
0.0829429 -0.0254 0.0005
0.0841162 -0.0254 -0.0005
0.0841162 -0.0254 0.0005
0.0852985 -0.0254 -0.0005
0.0852985 -0.0254 0.0005
0.0864901 -0.0254 -0.0005
0.0864901 -0.0254 0.0005
0.0876909 -0.0254 -0.0005
0.0876909 -0.0254 0.0005
0.0889011 -0.0254 -0.0005
0.0889011 -0.0254 0.0005
0.0901207 -0.0254 -0.0005
0.0901207 -0.0254 0.0005
0.0913497 -0.0254 -0.0005
0.0913497 -0.0254 0.0005
0.0925883 -0.0254 -0.0005
0.0925883 -0.0254 0.0005
0.0938366 -0.0254 -0.0005
0.0938366 -0.0254 0.0005
0.0950945 -0.0254 -0.0005
0.0950945 -0.0254 0.0005
0.0963622 -0.0254 -0.0005
0.0963622 -0.0254 0.0005
0.0976398 -0.0254 -0.0005
0.0976398 -0.0254 0.0005
0.0989273 -0.0254 -0.0005
0.0989273 -0.0254 0.0005
0.100225 -0.0254 -0.0005
0.100225 -0.0254 0.0005
0.101532 -0.0254 -0.0005
0.101532 -0.0254 0.0005
0.10285 -0.0254 -0.0005
0.10285 -0.0254 0.0005
0.104178 -0.0254 -0.0005
0.104178 -0.0254 0.0005
0.105517 -0.0254 -0.0005
0.105517 -0.0254 0.0005
0.106865 -0.0254 -0.0005
0.106865 -0.0254 0.0005
0.108225 -0.0254 -0.0005
0.108225 -0.0254 0.0005
0.109594 -0.0254 -0.0005
0.109594 -0.0254 0.0005
0.110975 -0.0254 -0.0005
0.110975 -0.0254 0.0005
0.112366 -0.0254 -0.0005
0.112366 -0.0254 0.0005
0.113768 -0.0254 -0.0005
0.113768 -0.0254 0.0005
0.115181 -0.0254 -0.0005
0.115181 -0.0254 0.0005
0.116605 -0.0254 -0.0005
0.116605 -0.0254 0.0005
0.11804 -0.0254 -0.0005
0.11804 -0.0254 0.0005
0.119486 -0.0254 -0.0005
0.119486 -0.0254 0.0005
0.120943 -0.0254 -0.0005
0.120943 -0.0254 0.0005
0.122412 -0.0254 -0.0005
0.122412 -0.0254 0.0005
0.123892 -0.0254 -0.0005
0.123892 -0.0254 0.0005
0.125384 -0.0254 -0.0005
0.125384 -0.0254 0.0005
0.126887 -0.0254 -0.0005
0.126887 -0.0254 0.0005
0.128402 -0.0254 -0.0005
0.128402 -0.0254 0.0005
0.129928 -0.0254 -0.0005
0.129928 -0.0254 0.0005
0.131467 -0.0254 -0.0005
0.131467 -0.0254 0.0005
0.133017 -0.0254 -0.0005
0.133017 -0.0254 0.0005
0.13458 -0.0254 -0.0005
0.13458 -0.0254 0.0005
0.136155 -0.0254 -0.0005
0.136155 -0.0254 0.0005
0.137742 -0.0254 -0.0005
0.137742 -0.0254 0.0005
0.139341 -0.0254 -0.0005
0.139341 -0.0254 0.0005
0.140953 -0.0254 -0.0005
0.140953 -0.0254 0.0005
0.142577 -0.0254 -0.0005
0.142577 -0.0254 0.0005
0.144214 -0.0254 -0.0005
0.144214 -0.0254 0.0005
0.145863 -0.0254 -0.0005
0.145863 -0.0254 0.0005
0.147526 -0.0254 -0.0005
0.147526 -0.0254 0.0005
0.149201 -0.0254 -0.0005
0.149201 -0.0254 0.0005
0.15089 -0.0254 -0.0005
0.15089 -0.0254 0.0005
0.152591 -0.0254 -0.0005
0.152591 -0.0254 0.0005
0.154306 -0.0254 -0.0005
0.154306 -0.0254 0.0005
0.156034 -0.0254 -0.0005
0.156034 -0.0254 0.0005
0.157775 -0.0254 -0.0005
0.157775 -0.0254 0.0005
0.159531 -0.0254 -0.0005
0.159531 -0.0254 0.0005
0.161299 -0.0254 -0.0005
0.161299 -0.0254 0.0005
0.163082 -0.0254 -0.0005
0.163082 -0.0254 0.0005
0.164878 -0.0254 -0.0005
0.164878 -0.0254 0.0005
0.166688 -0.0254 -0.0005
0.166688 -0.0254 0.0005
0.168513 -0.0254 -0.0005
0.168513 -0.0254 0.0005
0.170351 -0.0254 -0.0005
0.170351 -0.0254 0.0005
0.172204 -0.0254 -0.0005
0.172204 -0.0254 0.0005
0.174071 -0.0254 -0.0005
0.174071 -0.0254 0.0005
0.175953 -0.0254 -0.0005
0.175953 -0.0254 0.0005
0.177849 -0.0254 -0.0005
0.177849 -0.0254 0.0005
0.17976 -0.0254 -0.0005
0.17976 -0.0254 0.0005
0.181686 -0.0254 -0.0005
0.181686 -0.0254 0.0005
0.183627 -0.0254 -0.0005
0.183627 -0.0254 0.0005
0.185583 -0.0254 -0.0005
0.185583 -0.0254 0.0005
0.187555 -0.0254 -0.0005
0.187555 -0.0254 0.0005
0.189541 -0.0254 -0.0005
0.189541 -0.0254 0.0005
0.191543 -0.0254 -0.0005
0.191543 -0.0254 0.0005
0.193561 -0.0254 -0.0005
0.193561 -0.0254 0.0005
0.195594 -0.0254 -0.0005
0.195594 -0.0254 0.0005
0.197643 -0.0254 -0.0005
0.197643 -0.0254 0.0005
0.199708 -0.0254 -0.0005
0.199708 -0.0254 0.0005
0.201789 -0.0254 -0.0005
0.201789 -0.0254 0.0005
0.203886 -0.0254 -0.0005
0.203886 -0.0254 0.0005
0.206 -0.0254 -0.0005
0.206 -0.0254 0.0005
0.208047 -0.0251856 -0.0005
0.208047 -0.0251856 0.0005
0.210173 -0.0249628 -0.0005
0.210173 -0.0249628 0.0005
0.212382 -0.0247314 -0.0005
0.212382 -0.0247314 0.0005
0.214677 -0.024491 -0.0005
0.214677 -0.024491 0.0005
0.217061 -0.0242412 -0.0005
0.217061 -0.0242412 0.0005
0.219538 -0.0239817 -0.0005
0.219538 -0.0239817 0.0005
0.222112 -0.0237121 -0.0005
0.222112 -0.0237121 0.0005
0.224785 -0.023432 -0.0005
0.224785 -0.023432 0.0005
0.227563 -0.023141 -0.0005
0.227563 -0.023141 0.0005
0.230449 -0.0228387 -0.0005
0.230449 -0.0228387 0.0005
0.233447 -0.0225246 -0.0005
0.233447 -0.0225246 0.0005
0.236562 -0.0221983 -0.0005
0.236562 -0.0221983 0.0005
0.239797 -0.0218593 -0.0005
0.239797 -0.0218593 0.0005
0.243159 -0.0215071 -0.0005
0.243159 -0.0215071 0.0005
0.246652 -0.0211412 -0.0005
0.246652 -0.0211412 0.0005
0.250281 -0.0207611 -0.0005
0.250281 -0.0207611 0.0005
0.254051 -0.0203661 -0.0005
0.254051 -0.0203661 0.0005
0.257967 -0.0199558 -0.0005
0.257967 -0.0199558 0.0005
0.262036 -0.0195295 -0.0005
0.262036 -0.0195295 0.0005
0.266264 -0.0190867 -0.0005
0.266264 -0.0190867 0.0005
0.270655 -0.0186266 -0.0005
0.270655 -0.0186266 0.0005
0.275218 -0.0181486 -0.0005
0.275218 -0.0181486 0.0005
0.279959 -0.017652 -0.0005
0.279959 -0.017652 0.0005
0.284883 -0.017136 -0.0005
0.284883 -0.017136 0.0005
0.29 -0.0166 -0.0005
0.29 -0.0166 0.0005

POLYGONS 250 1250
4 0 1 2 3
4 1 4 5 2
4 4 6 7 5
4 6 8 9 7
4 8 10 11 9
4 10 12 13 11
4 12 14 15 13
4 14 16 17 15
4 16 18 19 17
4 18 20 21 19
4 20 22 23 21
4 22 24 25 23
4 24 26 27 25
4 26 28 29 27
4 28 30 31 29
4 30 32 33 31
4 32 34 35 33
4 34 36 37 35
4 38 39 40 41
4 41 40 42 43
4 43 42 44 45
4 45 44 46 47
4 47 46 48 49
4 49 48 50 51
4 51 50 52 53
4 53 52 54 55
4 55 54 56 57
4 57 56 58 59
4 59 58 60 61
4 61 60 62 63
4 63 62 64 65
4 65 64 66 67
4 67 66 68 69
4 69 68 70 71
4 71 70 72 73
4 73 72 74 75
4 75 74 76 77
4 77 76 78 79
4 79 78 80 81
4 81 80 82 83
4 83 82 84 85
4 85 84 86 87
4 87 86 88 89
4 89 88 90 91
4 91 90 37 36
4 38 92 93 39
4 92 94 95 93
4 94 96 97 95
4 96 98 99 97
4 98 100 101 99
4 100 102 103 101
4 102 104 105 103
4 104 106 107 105
4 106 108 109 107
4 108 110 111 109
4 110 112 113 111
4 112 114 115 113
4 114 116 117 115
4 116 118 119 117
4 118 120 121 119
4 120 122 123 121
4 122 124 125 123
4 124 126 127 125
4 126 128 129 127
4 128 130 131 129
4 130 132 133 131
4 132 134 135 133
4 134 136 137 135
4 136 138 139 137
4 138 140 141 139
4 140 142 143 141
4 142 144 145 143
4 144 146 147 145
4 146 148 149 147
4 148 150 151 149
4 150 152 153 151
4 152 154 155 153
4 154 156 157 155
4 156 158 159 157
4 158 160 161 159
4 160 162 163 161
4 162 164 165 163
4 164 166 167 165
4 166 168 169 167
4 168 170 171 169
4 170 172 173 171
4 172 174 175 173
4 174 176 177 175
4 176 178 179 177
4 178 180 181 179
4 180 182 183 181
4 182 184 185 183
4 184 186 187 185
4 186 188 189 187
4 188 190 191 189
4 190 192 193 191
4 192 194 195 193
4 194 196 197 195
4 196 198 199 197
4 198 200 201 199
4 200 202 203 201
4 202 204 205 203
4 204 206 207 205
4 206 208 209 207
4 208 210 211 209
4 210 212 213 211
4 212 214 215 213
4 214 216 217 215
4 216 218 219 217
4 218 220 221 219
4 220 222 223 221
4 222 224 225 223
4 224 226 227 225
4 226 228 229 227
4 228 230 231 229
4 230 232 233 231
4 232 234 235 233
4 234 236 237 235
4 236 238 239 237
4 238 240 241 239
4 240 242 243 241
4 242 244 245 243
4 244 246 247 245
4 246 248 249 247
4 248 250 251 249
4 250 252 253 251
4 252 254 255 253
4 254 256 257 255
4 256 258 259 257
4 258 260 261 259
4 260 262 263 261
4 262 264 265 263
4 264 266 267 265
4 266 268 269 267
4 268 270 271 269
4 270 272 273 271
4 272 274 275 273
4 274 276 277 275
4 276 278 279 277
4 278 280 281 279
4 280 282 283 281
4 282 284 285 283
4 284 286 287 285
4 286 288 289 287
4 288 290 291 289
4 290 292 293 291
4 292 294 295 293
4 294 296 297 295
4 296 298 299 297
4 298 300 301 299
4 300 302 303 301
4 302 304 305 303
4 304 306 307 305
4 306 308 309 307
4 308 310 311 309
4 310 312 313 311
4 312 314 315 313
4 314 316 317 315
4 316 318 319 317
4 318 320 321 319
4 320 322 323 321
4 322 324 325 323
4 324 326 327 325
4 326 328 329 327
4 328 330 331 329
4 330 332 333 331
4 332 334 335 333
4 334 336 337 335
4 336 338 339 337
4 338 340 341 339
4 340 342 343 341
4 342 344 345 343
4 344 346 347 345
4 346 348 349 347
4 348 350 351 349
4 350 352 353 351
4 352 354 355 353
4 354 356 357 355
4 356 358 359 357
4 358 360 361 359
4 360 362 363 361
4 362 364 365 363
4 364 366 367 365
4 366 368 369 367
4 368 370 371 369
4 370 372 373 371
4 372 374 375 373
4 374 376 377 375
4 376 378 379 377
4 378 380 381 379
4 380 382 383 381
4 382 384 385 383
4 384 386 387 385
4 386 388 389 387
4 388 390 391 389
4 390 392 393 391
4 392 394 395 393
4 394 396 397 395
4 396 398 399 397
4 398 400 401 399
4 400 402 403 401
4 402 404 405 403
4 404 406 407 405
4 406 408 409 407
4 408 410 411 409
4 410 412 413 411
4 412 414 415 413
4 414 416 417 415
4 416 418 419 417
4 418 420 421 419
4 420 422 423 421
4 422 424 425 423
4 424 426 427 425
4 426 428 429 427
4 428 430 431 429
4 430 432 433 431
4 432 434 435 433
4 434 436 437 435
4 436 438 439 437
4 438 440 441 439
4 440 442 443 441
4 442 444 445 443
4 444 446 447 445
4 446 448 449 447
4 448 450 451 449
4 450 452 453 451
4 452 454 455 453
4 454 456 457 455
4 456 458 459 457
4 458 460 461 459
4 460 462 463 461
4 462 464 465 463
4 464 466 467 465
4 466 468 469 467
4 468 470 471 469
4 470 472 473 471
4 472 474 475 473
4 474 476 477 475
4 476 478 479 477
4 478 480 481 479
4 480 482 483 481
4 482 484 485 483
4 484 486 487 485
4 486 488 489 487
4 488 490 491 489
4 490 492 493 491
4 492 494 495 493
4 494 496 497 495
4 496 498 499 497
4 498 500 501 499
POINT_DATA 502
FIELD attributes 1
U 3 502 float
1.62177 0.0960864 -0.00982448
0.812458 0.0477061 -0.00484151
0.812458 0.0477061 -0.00484151
1.62177 0.0960864 -0.00982448
0.0246027 0.000650566 0
0.0246027 0.000650566 0
0.0219308 0.000542405 0
0.0219308 0.000542405 0
0.0197157 0.000450317 0
0.0197157 0.000450317 0
0.0176348 0.000399555 0
0.0176348 0.000399555 0
0.015582 0.000356318 0
0.015582 0.000356318 0
0.0136536 0.000303623 0
0.0136536 0.000303623 0
0.0119089 0.000253999 0
0.0119089 0.000253999 0
0.0103329 0.000214492 0
0.0103329 0.000214492 0
0.00890638 0.000177459 0
0.00890638 0.000177459 0
0.00764128 0.000138229 0
0.00764128 0.000138229 0
0.00654323 0.000100136 0
0.00654323 0.000100136 0
0.00563312 6.85396e-05 0
0.00563312 6.85396e-05 0
0.00484809 4.6996e-05 0
0.00484809 4.6996e-05 0
0.00423035 4.23834e-05 0
0.00423035 4.23834e-05 0
0.0035439 3.47645e-05 0
0.0035439 3.47645e-05 0
0.00305855 -1.8518e-05 0
0.00305855 -1.8518e-05 0
0.00131328 0.000232382 0
0.00131328 0.000232382 0
-1.62953e-05 0.000146881 -3.88825e-23
-1.62953e-05 0.000146881 -3.88825e-23
4.75226e-05 8.86623e-05 1.05148e-22
4.75226e-05 8.86623e-05 1.05148e-22
4.92638e-05 -0.000337233 1.2462e-22
4.92638e-05 -0.000337233 1.2462e-22
6.54423e-05 -0.000832215 -2.49292e-22
6.54423e-05 -0.000832215 -2.49292e-22
0.000326456 -0.00199318 -8.3181e-23
0.000326456 -0.00199318 -8.3181e-23
0.000448374 -0.0039914 1.66142e-22
0.000448374 -0.0039914 1.66142e-22
0.000235004 -0.00506352 0
0.000235004 -0.00506352 0
1.73945e-05 -0.00512718 3.31974e-22
1.73945e-05 -0.00512718 3.31974e-22
-0.00012677 -0.00465891 -5.60388e-26
-0.00012677 -0.00465891 -5.60388e-26
-0.000226569 -0.00365701 -3.3203e-22
-0.000226569 -0.00365701 -3.3203e-22
-0.000226642 -0.00254546 3.30578e-22
-0.000226642 -0.00254546 3.30578e-22
-0.000206736 -0.00144557 -1.42652e-25
-0.000206736 -0.00144557 -1.42652e-25
-0.00018622 -0.000369902 -3.30721e-22
-0.00018622 -0.000369902 -3.30721e-22
-0.00013219 0.000534286 -3.31532e-22
-0.00013219 0.000534286 -3.31532e-22
-5.62654e-05 0.00116988 -4.61999e-26
-5.62654e-05 0.00116988 -4.61999e-26
4.60619e-05 0.00145899 3.37361e-22
4.60619e-05 0.00145899 3.37361e-22
0.000175937 0.00128788 0
0.000175937 0.00128788 0
0.000267346 0.000630272 0
0.000267346 0.000630272 0
0.000153069 -0.000296646 0
0.000153069 -0.000296646 0
-0.000109462 -0.000947132 0
-0.000109462 -0.000947132 0
-4.94558e-05 -0.00116489 0
-4.94558e-05 -0.00116489 0
0.000319642 -0.00151407 0
0.000319642 -0.00151407 0
0.000364748 -0.00209727 0
0.000364748 -0.00209727 0
1.42269e-05 -0.0022868 0
1.42269e-05 -0.0022868 0
-0.000347041 -0.00182373 0
-0.000347041 -0.00182373 0
-0.000566457 -0.00100936 0
-0.000566457 -0.00100936 0
-0.000370562 -4.05373e-05 0
-0.000370562 -4.05373e-05 0
-3.85439e-05 0.00010948 -1.60552e-25
-3.85439e-05 0.00010948 -1.60552e-25
-7.00266e-05 4.08521e-05 1.93303e-23
-7.00266e-05 4.08521e-05 1.93303e-23
-7.17259e-05 -1.88205e-05 0
-7.17259e-05 -1.88205e-05 0
-3.44228e-05 -6.45647e-05 0
-3.44228e-05 -6.45647e-05 0
3.3168e-05 -8.86804e-05 -1.87792e-23
3.3168e-05 -8.86804e-05 -1.87792e-23
0.000117735 -9.76669e-05 -1.88129e-23
0.000117735 -9.76669e-05 -1.88129e-23
0.000208904 -9.69636e-05 0
0.000208904 -9.69636e-05 0
0.000294942 -8.92615e-05 0
0.000294942 -8.92615e-05 0
0.000371346 -7.79257e-05 0
0.000371346 -7.79257e-05 0
0.000432663 -6.46527e-05 1.81223e-23
0.000432663 -6.46527e-05 1.81223e-23
0.000477133 -5.16937e-05 1.81568e-23
0.000477133 -5.16937e-05 1.81568e-23
0.000503947 -3.94969e-05 0
0.000503947 -3.94969e-05 0
0.000511849 -2.61075e-05 0
0.000511849 -2.61075e-05 0
0.000499346 -9.37766e-06 0
0.000499346 -9.37766e-06 0
0.000466262 1.17417e-05 1.74443e-23
0.000466262 1.17417e-05 1.74443e-23
0.000414037 3.76639e-05 1.74796e-23
0.000414037 3.76639e-05 1.74796e-23
0.000344665 6.68782e-05 0
0.000344665 6.68782e-05 0
0.000260493 9.38278e-05 0
0.000260493 9.38278e-05 0
0.000165832 0.000110579 0
0.000165832 0.000110579 0
6.76932e-05 0.000112214 0
6.76932e-05 0.000112214 0
-2.61984e-05 0.000100734 0
-2.61984e-05 0.000100734 0
-0.000110063 8.35515e-05 0
-0.000110063 8.35515e-05 0
-0.000181326 6.80535e-05 1.63211e-23
-0.000181326 6.80535e-05 1.63211e-23
-0.000240295 5.72605e-05 1.75219e-25
-0.000240295 5.72605e-05 1.75219e-25
-0.000287938 4.96947e-05 -1.7556e-25
-0.000287938 4.96947e-05 -1.7556e-25
-0.000325058 4.20307e-05 3.1981e-23
-0.000325058 4.20307e-05 3.1981e-23
-0.000353174 3.15066e-05 1.59385e-23
-0.000353174 3.15066e-05 1.59385e-23
-0.00037385 1.80818e-05 0
-0.00037385 1.80818e-05 0
-0.000388637 2.75808e-06 -1.5476e-23
-0.000388637 2.75808e-06 -1.5476e-23
-0.000397633 -1.23407e-05 -3.08448e-23
-0.000397633 -1.23407e-05 -3.08448e-23
-0.00040071 -2.46735e-05 -1.53688e-23
-0.00040071 -2.46735e-05 -1.53688e-23
-0.00039655 -3.51815e-05 0
-0.00039655 -3.51815e-05 0
-0.000381098 -3.92446e-05 -1.4894e-23
-0.000381098 -3.92446e-05 -1.4894e-23
-0.000358201 -4.03895e-05 -1.49307e-23
-0.000358201 -4.03895e-05 -1.49307e-23
-0.000323424 -3.86205e-05 0
-0.000323424 -3.86205e-05 0
-0.000279347 -2.16007e-05 1.4445e-23
-0.000279347 -2.16007e-05 1.4445e-23
-0.000240903 -1.63229e-05 1.44817e-23
-0.000240903 -1.63229e-05 1.44817e-23
-0.000183023 2.19958e-05 1.41415e-23
-0.000183023 2.19958e-05 1.41415e-23
-0.000164908 9.44226e-05 4.21538e-23
-0.000164908 9.44226e-05 4.21538e-23
-0.000174243 0.000126953 2.80489e-23
-0.000174243 0.000126953 2.80489e-23
-0.000173082 0.000365908 0
-0.000173082 0.000365908 0
-0.00039673 0.000564347 0
-0.00039673 0.000564347 0
-0.000642564 0.000151713 0
-0.000642564 0.000151713 0
-0.000584732 -0.000414472 0
-0.000584732 -0.000414472 0
-0.000366159 -0.000658869 2.62308e-23
-0.000366159 -0.000658869 2.62308e-23
-0.00011387 -0.000705985 5.22686e-23
-0.00011387 -0.000705985 5.22686e-23
7.11822e-05 -0.000627453 5.17475e-23
7.11822e-05 -0.000627453 5.17475e-23
0.000168479 -0.000470066 2.57828e-23
0.000168479 -0.000470066 2.57828e-23
0.000298074 -0.000319933 -2.52199e-23
0.000298074 -0.000319933 -2.52199e-23
0.000527435 -0.000197113 -2.52929e-23
0.000527435 -0.000197113 -2.52929e-23
0.000795423 -6.66861e-05 2.47511e-23
0.000795423 -6.66861e-05 2.47511e-23
0.000996831 4.74156e-05 4.93729e-23
0.000996831 4.74156e-05 4.93729e-23
0.00106379 0.000106033 2.46219e-23
0.00106379 0.000106033 2.46219e-23
0.00100272 0.000128724 0
0.00100272 0.000128724 0
0.000855416 0.000156191 0
0.000855416 0.000156191 0
0.000646821 0.000195542 2.38504e-23
0.000646821 0.000195542 2.38504e-23
0.000377835 0.00022423 2.39243e-23
0.000377835 0.00022423 2.39243e-23
4.10567e-05 0.000221928 0
4.10567e-05 0.000221928 0
-0.000347503 0.000189851 0
-0.000347503 0.000189851 0
-0.000726696 0.00013366 0
-0.000726696 0.00013366 0
-0.00102042 4.9073e-05 0
-0.00102042 4.9073e-05 0
-0.00116717 -6.24461e-05 0
-0.00116717 -6.24461e-05 0
-0.00113267 -0.000186839 0
-0.00113267 -0.000186839 0
-0.000907105 -0.000314068 0
-0.000907105 -0.000314068 0
-0.00045631 -0.000421363 -2.21294e-23
-0.00045631 -0.000421363 -2.21294e-23
0.000233758 -0.000382919 -2.22038e-23
0.000233758 -0.000382919 -2.22038e-23
0.000986409 -6.40796e-05 0
0.000986409 -6.40796e-05 0
0.0014239 0.000285236 2.13197e-23
0.0014239 0.000285236 2.13197e-23
0.00140155 0.000270872 4.25216e-23
0.00140155 0.000270872 4.25216e-23
0.00125494 -1.02684e-05 2.12019e-23
0.00125494 -1.02684e-05 2.12019e-23
0.00133797 -0.000194562 -2.07014e-23
0.00133797 -0.000194562 -2.07014e-23
0.00164827 -0.000140694 -2.95848e-25
0.00164827 -0.000140694 -2.95848e-25
0.00197629 -8.63673e-05 2.05519e-23
0.00197629 -8.63673e-05 2.05519e-23
0.0021612 -0.000320614 -2.00361e-23
0.0021612 -0.000320614 -2.00361e-23
0.00214864 -0.000526205 -2.01088e-23
0.00214864 -0.000526205 -2.01088e-23
0.00167888 -8.32027e-05 0
0.00167888 -8.32027e-05 0
0.00039424 0.000720241 1.9514e-23
0.00039424 0.000720241 1.9514e-23
-0.00132023 0.00106383 1.95866e-23
-0.00132023 0.00106383 1.95866e-23
-0.00285384 0.000951216 -1.94055e-23
-0.00285384 0.000951216 -1.94055e-23
-0.00409833 0.000763152 -1.94788e-23
-0.00409833 0.000763152 -1.94788e-23
-0.00508261 0.000593711 1.94483e-23
-0.00508261 0.000593711 1.94483e-23
-0.00585101 0.000455677 3.89824e-23
-0.00585101 0.000455677 3.89824e-23
-0.00645155 0.000349101 3.89864e-23
-0.00645155 0.000349101 3.89864e-23
-0.00692417 0.00026889 5.83731e-23
-0.00692417 0.00026889 5.83731e-23
-0.00729889 0.0002089 2.53059e-25
-0.00729889 0.0002089 2.53059e-25
-0.00759685 0.000163266 -3.88986e-23
-0.00759685 0.000163266 -3.88986e-23
-0.00783275 0.000127459 0
-0.00783275 0.000127459 0
-0.00801641 9.81547e-05 0
-0.00801641 9.81547e-05 0
-0.00815403 7.28749e-05 -3.79354e-23
-0.00815403 7.28749e-05 -3.79354e-23
-0.00824923 5.01329e-05 -7.57256e-23
-0.00824923 5.01329e-05 -7.57256e-23
-0.0083039 2.94407e-05 -4.91644e-25
-0.0083039 2.94407e-05 -4.91644e-25
-0.00831999 1.01677e-05 3.74528e-23
-0.00831999 1.01677e-05 3.74528e-23
-0.00830015 -7.94145e-06 -3.65199e-23
-0.00830015 -7.94145e-06 -3.65199e-23
-0.00824593 -2.47091e-05 -7.27573e-23
-0.00824593 -2.47091e-05 -7.27573e-23
-0.00815838 -4.0354e-05 -7.18583e-23
-0.00815838 -4.0354e-05 -7.18583e-23
-0.00803902 -5.48773e-05 -3.57733e-23
-0.00803902 -5.48773e-05 -3.57733e-23
-0.00788965 -6.81694e-05 0
-0.00788965 -6.81694e-05 0
-0.00771232 -8.01518e-05 0
-0.00771232 -8.01518e-05 0
-0.00750928 -9.07558e-05 -3.35804e-23
-0.00750928 -9.07558e-05 -3.35804e-23
-0.00728301 -9.9937e-05 -3.37274e-23
-0.00728301 -9.9937e-05 -3.37274e-23
-0.00703612 -0.000107693 0
-0.00703612 -0.000107693 0
-0.0067713 -0.000114057 3.19557e-23
-0.0067713 -0.000114057 3.19557e-23
-0.00649123 -0.000119079 3.20984e-23
-0.00649123 -0.000119079 3.20984e-23
-0.00619854 -0.000122819 0
-0.00619854 -0.000122819 0
-0.0058958 -0.000125343 3.03496e-23
-0.0058958 -0.000125343 3.03496e-23
-0.00558552 -0.000126723 3.04878e-23
-0.00558552 -0.000126723 3.04878e-23
-0.00527007 -0.000127045 0
-0.00527007 -0.000127045 0
-0.00495163 -0.000126409 -2.88277e-23
-0.00495163 -0.000126409 -2.88277e-23
-0.00463221 -0.000124931 -5.73084e-23
-0.00463221 -0.000124931 -5.73084e-23
-0.00431361 -0.000122742 -2.84793e-23
-0.00431361 -0.000122742 -2.84793e-23
-0.00399732 -0.000120005 2.74308e-23
-0.00399732 -0.000120005 2.74308e-23
-0.00368442 -0.000116913 2.75605e-23
-0.00368442 -0.000116913 2.75605e-23
-0.00337556 -0.000113664 -2.65768e-23
-0.00337556 -0.000113664 -2.65768e-23
-0.00307097 -0.000110447 -2.6704e-23
-0.00307097 -0.000110447 -2.6704e-23
-0.00277043 -0.000107455 -2.57821e-23
-0.00277043 -0.000107455 -2.57821e-23
-0.00247327 -0.000104865 -5.13119e-23
-0.00247327 -0.000104865 -5.13119e-23
-0.00217838 -0.000102814 -2.55287e-23
-0.00217838 -0.000102814 -2.55287e-23
-0.00188433 -0.000101398 0
-0.00188433 -0.000101398 0
-0.00158942 -0.000100665 0
-0.00158942 -0.000100665 0
-0.00129185 -0.000100599 0
-0.00129185 -0.000100599 0
-0.000989925 -0.000101114 0
-0.000989925 -0.000101114 0
-0.000682176 -0.000102147 0
-0.000682176 -0.000102147 0
-0.000367446 -0.000103405 0
-0.000367446 -0.000103405 0
-4.51413e-05 -0.000104229 -2.27221e-23
-4.51413e-05 -0.000104229 -2.27221e-23
0.000283876 -0.000104437 -4.2982e-25
0.000283876 -0.000104437 -4.2982e-25
0.000617222 -0.000103684 2.25227e-23
0.000617222 -0.000103684 2.25227e-23
0.000951621 -0.00010122 0
0.000951621 -0.00010122 0
0.00128232 -9.66632e-05 0
0.00128232 -9.66632e-05 0
0.00160308 -8.98232e-05 0
0.00160308 -8.98232e-05 0
0.00190713 -8.07575e-05 4.18638e-23
0.00190713 -8.07575e-05 4.18638e-23
0.00218779 -6.97069e-05 4.20837e-23
0.00218779 -6.97069e-05 4.20837e-23
0.00243916 -5.71225e-05 -4.07801e-23
0.00243916 -5.71225e-05 -4.07801e-23
0.00265677 -4.37981e-05 -7.42172e-25
0.00265677 -4.37981e-05 -7.42172e-25
0.00283823 -3.05431e-05 4.04689e-23
0.00283823 -3.05431e-05 4.04689e-23
0.00298288 -1.7573e-05 0
0.00298288 -1.7573e-05 0
0.003091 -5.16806e-06 0
0.003091 -5.16806e-06 0
0.00316479 5.77775e-06 -3.82038e-23
0.00316479 5.77775e-06 -3.82038e-23
0.00320769 1.54951e-05 -7.61066e-23
0.00320769 1.54951e-05 -7.61066e-23
0.00322125 2.51889e-05 -3.7901e-23
0.00322125 2.51889e-05 -3.7901e-23
0.003207 3.49527e-05 -3.66759e-23
0.003207 3.49527e-05 -3.66759e-23
0.00316714 4.45521e-05 -7.30434e-23
0.00316714 4.45521e-05 -7.30434e-23
0.00310243 5.4228e-05 -7.10691e-25
0.00310243 5.4228e-05 -7.10691e-25
0.00301331 6.34477e-05 3.58531e-23
0.00301331 6.34477e-05 3.58531e-23
0.00290137 7.04044e-05 0
0.00290137 7.04044e-05 0
0.00277086 7.29479e-05 3.41282e-23
0.00277086 7.29479e-05 3.41282e-23
0.00262905 6.99764e-05 3.43204e-23
0.00262905 6.99764e-05 3.43204e-23
0.00248506 6.20492e-05 0
0.00248506 6.20492e-05 0
0.00234787 5.09246e-05 0
0.00234787 5.09246e-05 0
0.0022243 3.87789e-05 0
0.0022243 3.87789e-05 0
0.00211813 2.74864e-05 -3.15996e-23
0.00211813 2.74864e-05 -3.15996e-23
0.00203016 1.82088e-05 -6.28749e-23
0.00203016 1.82088e-05 -6.28749e-23
0.00195909 1.1349e-05 -3.12731e-23
0.00195909 1.1349e-05 -3.12731e-23
0.00190249 6.72847e-06 -3.00838e-23
0.00190249 6.72847e-06 -3.00838e-23
0.00185763 3.85146e-06 -3.02588e-23
0.00185763 3.85146e-06 -3.02588e-23
0.00182202 2.15588e-06 0
0.00182202 2.15588e-06 0
0.00179358 1.17929e-06 -2.85817e-23
0.00179358 1.17929e-06 -2.85817e-23
0.00177069 6.16742e-07 -2.87499e-23
0.00177069 6.16742e-07 -2.87499e-23
0.00175211 3.04368e-07 -2.75917e-23
0.00175211 3.04368e-07 -2.75917e-23
0.00173684 1.71163e-07 -2.77553e-23
0.00173684 1.71163e-07 -2.77553e-23
0.00172409 1.93067e-07 0