/*--------------------------------*- C++ -*----------------------------------*\
  =========                 |
  \\      /  F ield         | OpenFOAM: The Open Source CFD Toolbox
   \\    /   O peration     | Website:  https://openfoam.org
    \\  /    A nd           | Version:  7
     \\/     M anipulation  |
\*---------------------------------------------------------------------------*/
FoamFile
{
    version     2.0;
    format      ascii;
    class       surfaceScalarField;
    location    "0.044";
    object      phi_0;
}
// * * * * * * * * * * * * * * * * * * * * * * * * * * * * * * * * * * * * * //

dimensions      [0 3 -1 0 0 0 0];

internalField   nonuniform List<scalar> 
24170
(
1.38287e-06
2.22508e-07
1.24195e-06
1.4092e-07
1.1078e-06
1.34156e-07
9.89159e-07
1.18638e-07
8.82201e-07
1.06959e-07
7.76715e-07
1.05485e-07
6.71332e-07
1.05383e-07
5.73043e-07
9.82887e-08
4.87013e-07
8.60302e-08
4.13393e-07
7.36207e-08
3.50249e-07
6.31439e-08
2.96244e-07
5.40048e-08
2.50547e-07
4.56966e-08
2.11922e-07
3.86255e-08
1.7797e-07
3.39514e-08
1.46768e-07
3.12029e-08
1.13916e-07
3.28512e-08
2.92264e-08
8.46898e-08
1.62789e-06
2.683e-07
1.61463e-06
1.54177e-07
1.58784e-06
1.60943e-07
1.55096e-06
1.55528e-07
1.51103e-06
1.46889e-07
1.4702e-06
1.46306e-07
1.42834e-06
1.47248e-07
1.38417e-06
1.42463e-07
1.33575e-06
1.3445e-07
1.28246e-06
1.26903e-07
1.22662e-06
1.1899e-07
1.17143e-06
1.09192e-07
1.11891e-06
9.82192e-08
1.06861e-06
8.89246e-08
1.01877e-06
8.37895e-08
9.68295e-07
8.16797e-08
9.14513e-07
8.66332e-08
9.46878e-08
8.49052e-07
1.76313e-06
3.23007e-07
1.73326e-06
1.84047e-07
1.72869e-06
1.65509e-07
1.72584e-06
1.58376e-07
1.72005e-06
1.52676e-07
1.71166e-06
1.54696e-07
1.70273e-06
1.56184e-07
1.69398e-06
1.51214e-07
1.68352e-06
1.44903e-07
1.66875e-06
1.41675e-07
1.64852e-06
1.39218e-07
1.62388e-06
1.33832e-07
1.59652e-06
1.25584e-07
1.56803e-06
1.17415e-07
1.53856e-06
1.13258e-07
1.5079e-06
1.12334e-07
1.47609e-06
1.18451e-07
1.28906e-07
1.44187e-06
1.90513e-06
3.86047e-07
1.86971e-06
2.19473e-07
1.86005e-06
1.75163e-07
1.86317e-06
1.55263e-07
1.86753e-06
1.48309e-07
1.86593e-06
1.56295e-07
1.85877e-06
1.63352e-07
1.85041e-06
1.59569e-07
1.84417e-06
1.51142e-07
1.83994e-06
1.45904e-07
1.83507e-06
1.4409e-07
1.82718e-06
1.41726e-07
1.81546e-06
1.373e-07
1.80106e-06
1.31818e-07
1.78569e-06
1.28625e-07
1.77027e-06
1.27759e-07
1.75666e-06
1.32053e-07
1.40223e-07
1.74535e-06
2.03372e-06
4.42621e-07
2.02469e-06
2.28505e-07
2.03519e-06
1.64663e-07
2.03768e-06
1.52766e-07
2.02683e-06
1.59161e-07
2.00915e-06
1.73974e-07
1.9923e-06
1.80204e-07
1.98093e-06
1.7094e-07
1.97638e-06
1.55686e-07
1.9771e-06
1.45184e-07
1.97966e-06
1.4153e-07
1.98051e-06
1.40882e-07
1.97768e-06
1.40128e-07
1.97122e-06
1.38273e-07
1.96282e-06
1.37029e-07
1.95382e-06
1.36757e-07
1.94651e-06
1.39368e-07
1.44587e-07
1.94214e-06
2.19612e-06
4.30046e-07
2.16857e-06
2.5605e-07
2.16135e-06
1.71889e-07
2.15936e-06
1.54752e-07
2.15115e-06
1.67374e-07
2.14127e-06
1.8385e-07
2.13451e-06
1.86966e-07
2.1315e-06
1.73953e-07
2.13147e-06
1.55717e-07
2.13353e-06
1.43124e-07
2.13631e-06
1.38752e-07
2.1379e-06
1.39287e-07
2.13704e-06
1.40989e-07
2.13346e-06
1.41852e-07
2.12818e-06
1.4231e-07
2.12215e-06
1.42794e-07
2.1168e-06
1.44715e-07
1.48325e-07
2.11306e-06
2.3787e-06
4.10493e-07
2.35641e-06
2.78343e-07
2.34194e-06
1.86363e-07
2.32984e-06
1.66848e-07
2.32383e-06
1.73382e-07
2.32448e-06
1.83199e-07
2.32527e-06
1.86177e-07
2.32084e-06
1.7838e-07
2.31191e-06
1.64654e-07
2.30261e-06
1.52419e-07
2.29598e-06
1.45381e-07
2.2921e-06
1.43169e-07
2.28954e-06
1.43552e-07
2.28678e-06
1.44612e-07
2.28346e-06
1.45631e-07
2.27954e-06
1.46708e-07
2.2757e-06
1.48558e-07
1.5141e-07
2.27262e-06
2.5673e-06
4.33683e-07
2.55162e-06
2.94019e-07
2.53845e-06
1.99531e-07
2.52312e-06
1.82178e-07
2.50397e-06
1.92538e-07
2.48726e-06
1.99904e-07
2.4767e-06
1.96741e-07
2.47156e-06
1.8352e-07
2.4701e-06
1.66107e-07
2.47138e-06
1.51143e-07
2.47457e-06
1.42194e-07
2.47814e-06
1.39591e-07
2.48013e-06
1.41563e-07
2.4786e-06
1.46144e-07
2.47285e-06
1.51383e-07
2.46333e-06
1.56223e-07
2.45184e-06
1.60051e-07
1.62407e-07
2.44084e-06
2.79292e-06
4.51465e-07
2.7543e-06
3.32634e-07
2.70968e-06
2.44155e-07
2.6849e-06
2.06954e-07
2.679e-06
1.9844e-07
2.68203e-06
1.96879e-07
2.68735e-06
1.91416e-07
2.69093e-06
1.79941e-07
2.69129e-06
1.65745e-07
2.689e-06
1.5343e-07
2.68534e-06
1.45859e-07
2.68107e-06
1.43862e-07
2.6761e-06
1.46527e-07
2.67021e-06
1.52035e-07
2.66332e-06
1.58271e-07
2.65605e-06
1.63496e-07
2.64928e-06
1.66819e-07
1.67714e-07
2.64398e-06
2.8805e-06
4.08344e-07
2.90668e-06
3.0646e-07
2.91014e-06
2.40689e-07
2.90231e-06
2.14785e-07
2.89554e-06
2.05215e-07
2.89428e-06
1.98131e-07
2.89635e-06
1.89351e-07
2.8981e-06
1.78191e-07
2.89665e-06
1.67195e-07
2.89065e-06
1.59432e-07
2.88062e-06
1.55886e-07
2.8688e-06
1.55683e-07
2.85797e-06
1.5735e-07
2.85043e-06
1.59577e-07
2.84715e-06
1.6155e-07
2.84798e-06
1.6267e-07
2.85207e-06
1.6273e-07
1.62054e-07
2.85773e-06
3.18186e-06
4.38128e-07
3.1424e-06
3.45916e-07
3.11699e-06
2.66105e-07
3.10799e-06
2.23781e-07
3.10913e-06
2.04079e-07
3.11248e-06
1.94778e-07
3.11425e-06
1.87582e-07
3.11491e-06
1.7753e-07
3.11526e-06
1.66841e-07
3.11429e-06
1.60409e-07
3.11041e-06
1.59758e-07
3.10323e-06
1.62869e-07
3.09406e-06
1.66516e-07
3.08505e-06
1.68591e-07
3.0781e-06
1.68503e-07
3.07405e-06
1.66718e-07
3.07273e-06
1.64048e-07
1.61059e-07
3.07372e-06
2.86432e-06
4.06343e-07
2.83299e-06
3.77256e-07
2.80817e-06
2.90924e-07
2.79409e-06
2.37855e-07
2.78342e-06
2.14747e-07
2.77548e-06
2.02722e-07
2.77223e-06
1.90832e-07
2.77419e-06
1.75575e-07
2.77951e-06
1.61521e-07
2.78574e-06
1.54172e-07
2.79121e-06
1.54294e-07
2.79531e-06
1.58768e-07
2.79821e-06
1.63612e-07
2.80021e-06
1.66596e-07
2.80153e-06
1.6718e-07
2.80222e-06
1.66027e-07
2.80226e-06
1.64009e-07
1.6156e-07
2.80176e-06
3.48749e-06
4.96995e-07
3.4393e-06
4.25442e-07
3.41944e-06
3.10788e-07
3.41736e-06
2.39938e-07
3.42126e-06
2.10842e-07
3.4256e-06
1.98385e-07
3.4299e-06
1.8653e-07
3.43286e-06
1.72616e-07
3.43309e-06
1.61287e-07
3.43122e-06
1.5605e-07
3.4289e-06
1.56614e-07
3.42711e-06
1.60558e-07
3.4256e-06
1.65122e-07
3.42356e-06
1.68637e-07
3.42069e-06
1.70045e-07
3.41716e-06
1.69561e-07
3.41407e-06
1.67099e-07
1.63693e-07
3.41193e-06
4.25633e-06
4.94024e-07
4.2391e-06
4.42668e-07
4.2323e-06
3.17585e-07
4.21201e-06
2.60235e-07
4.19258e-06
2.30267e-07
4.19172e-06
1.99251e-07
4.20932e-06
1.68926e-07
4.23254e-06
1.49392e-07
4.24857e-06
1.45256e-07
4.25113e-06
1.53496e-07
4.24059e-06
1.67157e-07
4.22174e-06
1.79402e-07
4.20061e-06
1.86251e-07
4.18256e-06
1.8669e-07
4.17094e-06
1.81663e-07
4.16696e-06
1.73544e-07
4.17035e-06
1.63706e-07
1.5477e-07
4.17927e-06
5.223e-06
4.82378e-07
5.21578e-06
4.49891e-07
5.16348e-06
3.69883e-07
5.11625e-06
3.07468e-07
5.09656e-06
2.49959e-07
5.09796e-06
1.97853e-07
5.10863e-06
1.58253e-07
5.12167e-06
1.36349e-07
5.13341e-06
1.33514e-07
5.14101e-06
1.45897e-07
5.14291e-06
1.65258e-07
5.14014e-06
1.82174e-07
5.13606e-06
1.90333e-07
5.13471e-06
1.88037e-07
5.13898e-06
1.7739e-07
5.14973e-06
1.62803e-07
5.16588e-06
1.47552e-07
1.35902e-07
5.18475e-06
6.28155e-06
4.23822e-07
6.3316e-06
3.99839e-07
6.34041e-06
3.61072e-07
6.35508e-06
2.92796e-07
6.36652e-06
2.38526e-07
6.35777e-06
2.06597e-07
6.33215e-06
1.83876e-07
6.30349e-06
1.65003e-07
6.28261e-06
1.54396e-07
6.27286e-06
1.5565e-07
6.27224e-06
1.6588e-07
6.27684e-06
1.77569e-07
6.28364e-06
1.83533e-07
6.29118e-06
1.80503e-07
6.29911e-06
1.69455e-07
6.30752e-06
1.54392e-07
6.31603e-06
1.39049e-07
1.2733e-07
6.3246e-06
7.79315e-06
3.71897e-07
7.80449e-06
3.88498e-07
7.79218e-06
3.7338e-07
7.74569e-06
3.3929e-07
7.68686e-06
2.97357e-07
7.64496e-06
2.48498e-07
7.62677e-06
2.02065e-07
7.62328e-06
1.68496e-07
7.62727e-06
1.50405e-07
7.63804e-06
1.44873e-07
7.65768e-06
1.46241e-07
7.68629e-06
1.48959e-07
7.72065e-06
1.49176e-07
7.75555e-06
1.45606e-07
7.78582e-06
1.39184e-07
7.80821e-06
1.31998e-07
7.8214e-06
1.2586e-07
1.22272e-07
7.82646e-06
9.36934e-06
4.33357e-07
9.35149e-06
4.06348e-07
9.36007e-06
3.64797e-07
9.36886e-06
3.305e-07
9.37613e-06
2.90094e-07
9.38324e-06
2.41387e-07
9.3897e-06
1.95606e-07
9.39492e-06
1.63269e-07
9.39998e-06
1.45347e-07
9.40827e-06
1.36582e-07
9.42341e-06
1.31107e-07
9.44653e-06
1.25836e-07
9.47555e-06
1.20156e-07
9.5062e-06
1.14959e-07
9.534e-06
1.11383e-07
9.55586e-06
1.10134e-07
9.57054e-06
1.11184e-07
1.14057e-07
9.57875e-06
1.1382e-05
4.88795e-07
1.13811e-05
4.07267e-07
1.13903e-05
3.55584e-07
1.1429e-05
2.91751e-07
1.14901e-05
2.28998e-07
1.15541e-05
1.77372e-07
1.16027e-05
1.4703e-07
1.16326e-05
1.33359e-07
1.16535e-05
1.24476e-07
1.16768e-05
1.13249e-07
1.17079e-05
1.00047e-07
1.17445e-05
8.92766e-08
1.17803e-05
8.43422e-08
1.18093e-05
8.59516e-08
1.18287e-05
9.1996e-08
1.18394e-05
9.94131e-08
1.18451e-05
1.05503e-07
1.08272e-07
1.18509e-05
8.36031e-06
3.5619e-07
8.42387e-06
3.43707e-07
8.44445e-06
3.35e-07
8.44922e-06
2.86983e-07
8.46267e-06
2.15544e-07
8.48581e-06
1.54236e-07
8.50646e-06
1.26381e-07
8.51514e-06
1.24673e-07
8.51294e-06
1.26682e-07
8.50829e-06
1.17897e-07
8.50968e-06
9.86608e-08
8.52134e-06
7.76144e-08
8.54301e-06
6.26727e-08
8.57198e-06
5.69841e-08
8.60489e-06
5.90784e-08
8.63904e-06
6.52634e-08
8.67272e-06
7.18288e-08
7.64892e-08
8.7045e-06
7.23451e-06
5.8353e-07
7.21635e-06
3.61862e-07
7.27621e-06
2.75145e-07
7.33674e-06
2.26446e-07
7.38155e-06
1.70733e-07
7.40725e-06
1.28541e-07
7.4209e-06
1.12731e-07
7.43003e-06
1.15544e-07
7.43744e-06
1.19273e-07
7.44348e-06
1.11858e-07
7.44922e-06
9.29165e-08
7.45727e-06
6.95692e-08
7.47035e-06
4.95913e-08
7.49008e-06
3.72488e-08
7.51639e-06
3.27752e-08
7.54773e-06
3.39229e-08
7.58192e-06
3.76331e-08
4.16331e-08
7.61678e-06
6.27066e-06
5.44488e-07
6.31138e-06
3.21143e-07
6.37496e-06
2.11569e-07
6.43985e-06
1.61558e-07
6.48457e-06
1.26012e-07
6.50622e-06
1.06891e-07
6.5171e-06
1.01847e-07
6.53061e-06
1.02039e-07
6.55265e-06
9.7224e-08
6.58119e-06
8.3318e-08
6.61099e-06
6.31206e-08
6.63772e-06
4.28419e-08
6.65934e-06
2.79647e-08
6.67583e-06
2.07661e-08
6.68847e-06
2.01316e-08
6.69903e-06
2.3366e-08
6.70907e-06
2.75859e-08
3.08922e-08
6.71982e-06
5.44505e-06
3.80919e-07
5.53507e-06
2.31127e-07
5.58012e-06
1.66524e-07
5.61765e-06
1.24022e-07
5.64971e-06
9.39496e-08
5.67739e-06
7.92123e-08
5.69997e-06
7.92728e-08
5.71785e-06
8.41516e-08
5.73252e-06
8.2555e-08
5.74592e-06
6.9918e-08
5.76003e-06
4.90103e-08
5.77621e-06
2.66671e-08
5.79453e-06
9.63689e-09
5.81399e-06
1.31293e-09
5.83354e-06
5.78272e-10
5.85235e-06
4.55494e-09
5.86955e-06
1.0384e-08
1.52327e-08
5.88521e-06
4.80291e-06
4.6507e-07
4.81154e-06
2.22503e-07
4.86306e-06
1.14999e-07
4.90658e-06
8.05036e-08
4.93962e-06
6.09066e-08
4.96698e-06
5.18553e-08
4.99016e-06
5.60945e-08
5.01176e-06
6.25525e-08
5.03488e-06
5.94325e-08
5.06037e-06
4.44316e-08
5.08593e-06
2.34463e-08
5.10873e-06
3.86668e-09
5.12605e-06
-7.68068e-09
5.13896e-06
-1.15962e-08
5.1495e-06
-9.96747e-09
5.16e-06
-5.94151e-09
5.17267e-06
-2.28998e-09
-4.65956e-10
5.18837e-06
4.24202e-06
3.24501e-07
4.30612e-06
1.58404e-07
4.30819e-06
1.12932e-07
4.30657e-06
8.21193e-08
4.31789e-06
4.95846e-08
4.33357e-06
3.61781e-08
4.3476e-06
4.20696e-08
4.36231e-06
4.7834e-08
4.38197e-06
3.97795e-08
4.40635e-06
2.00531e-08
4.43163e-06
-1.83982e-09
4.45363e-06
-1.81347e-08
4.47128e-06
-2.53241e-08
4.48533e-06
-2.56485e-08
4.49816e-06
-2.27943e-08
4.51182e-06
-1.96067e-08
4.52734e-06
-1.78051e-08
-1.76746e-08
4.54454e-06
3.6515e-06
2.62466e-07
3.69734e-06
1.12568e-07
3.73352e-06
7.67459e-08
3.76758e-06
4.80581e-08
3.79492e-06
2.22421e-08
3.81598e-06
1.5119e-08
3.83883e-06
1.92282e-08
3.86898e-06
1.76774e-08
3.90468e-06
4.07829e-09
3.93893e-06
-1.41902e-08
3.96732e-06
-3.02367e-08
3.98854e-06
-3.9356e-08
4.00466e-06
-4.14439e-08
4.01792e-06
-3.89027e-08
4.02932e-06
-3.41991e-08
4.03878e-06
-2.90585e-08
4.04534e-06
-2.4367e-08
-2.07776e-08
4.04844e-06
3.23827e-06
2.55617e-07
3.27559e-06
7.52417e-08
3.30075e-06
5.15933e-08
3.32283e-06
2.59773e-08
3.34128e-06
3.79224e-09
3.36283e-06
-6.43833e-09
3.39298e-06
-1.0918e-08
3.43011e-06
-1.94538e-08
3.46601e-06
-3.18235e-08
3.49347e-06
-4.16504e-08
3.50887e-06
-4.56344e-08
3.51387e-06
-4.43562e-08
3.51287e-06
-4.04478e-08
3.51027e-06
-3.62959e-08
3.50885e-06
-3.27798e-08
3.50964e-06
-2.98491e-08
3.51241e-06
-2.7142e-08
-2.4826e-08
3.51646e-06
2.8089e-06
1.57236e-07
2.87212e-06
1.20301e-08
2.90548e-06
1.82324e-08
2.93721e-06
-5.75279e-09
2.96885e-06
-2.78559e-08
2.99848e-06
-3.60644e-08
3.02538e-06
-3.78179e-08
3.0475e-06
-4.15739e-08
3.06261e-06
-4.69358e-08
3.07081e-06
-4.98439e-08
3.07403e-06
-4.8861e-08
3.07528e-06
-4.56065e-08
3.07725e-06
-4.24151e-08
3.08151e-06
-4.05542e-08
3.08831e-06
-3.95825e-08
3.09707e-06
-3.86084e-08
3.10685e-06
-3.69203e-08
-3.47205e-08
3.11674e-06
2.50042e-06
1.10619e-07
2.54611e-06
-3.36621e-08
2.58231e-06
-1.7964e-08
2.61101e-06
-3.44558e-08
2.62824e-06
-4.5081e-08
2.63781e-06
-4.56312e-08
2.64476e-06
-4.47764e-08
2.64988e-06
-4.66856e-08
2.65234e-06
-4.93989e-08
2.65222e-06
-4.97234e-08
2.65028e-06
-4.69257e-08
2.64725e-06
-4.25716e-08
2.64347e-06
-3.86358e-08
2.639e-06
-3.60873e-08
2.63394e-06
-3.45159e-08
2.62842e-06
-3.30954e-08
2.62271e-06
-3.12042e-08
-2.91067e-08
2.61709e-06
2.1223e-06
2.08863e-06
2.07067e-06
2.03621e-06
1.99113e-06
1.9455e-06
1.90073e-06
1.85404e-06
1.80464e-06
1.75492e-06
1.70799e-06
1.66542e-06
1.62678e-06
1.5907e-06
1.55618e-06
1.52309e-06
1.49188e-06
1.46277e-06
3.44757e-08
-3.44757e-08
1.42863e-07
-1.08387e-07
2.83678e-07
-1.40816e-07
4.35249e-07
-1.51571e-07
5.89882e-07
-1.54632e-07
7.45731e-07
-1.55849e-07
9.02828e-07
-1.57097e-07
1.06143e-06
-1.58599e-07
1.22133e-06
-1.59904e-07
1.38167e-06
-1.60335e-07
1.54069e-06
-1.5902e-07
1.69566e-06
-1.54972e-07
1.84274e-06
-1.47083e-07
1.97693e-06
-1.34193e-07
2.09214e-06
-1.15209e-07
2.18161e-06
-8.94626e-08
2.23836e-06
-5.67498e-08
2.25617e-06
-1.78186e-08
2.22849e-06
2.76879e-08
2.15105e-06
7.7435e-08
2.02335e-06
1.27706e-07
1.84806e-06
1.75288e-07
1.63186e-06
2.16196e-07
1.38296e-06
2.48901e-07
1.11757e-06
2.65388e-07
8.48e-07
2.69573e-07
6.22417e-07
2.25583e-07
4.54241e-07
1.68175e-07
2.62784e-07
1.91457e-07
2.06088e-07
5.66957e-08
4.12351e-07
-2.06263e-07
6.05116e-07
-1.92765e-07
6.59801e-07
-5.46841e-08
6.16166e-07
4.36344e-08
3.65153e-07
2.51013e-07
-1.27238e-07
4.92391e-07
-6.69734e-07
5.42495e-07
-1.18746e-06
5.17729e-07
-1.67611e-06
4.88651e-07
-2.1336e-06
4.57485e-07
-2.55954e-06
4.25937e-07
-2.95471e-06
3.95176e-07
-3.32011e-06
3.65398e-07
-3.65674e-06
3.36632e-07
-3.96521e-06
3.08462e-07
-4.24564e-06
2.80438e-07
-4.49768e-06
2.52036e-07
-4.72048e-06
2.22801e-07
-4.91292e-06
1.92441e-07
-5.07374e-06
1.60813e-07
-5.20161e-06
1.27873e-07
-5.2953e-06
9.36894e-08
-5.35394e-06
5.86422e-08
-5.37754e-06
2.36045e-08
-5.36783e-06
-9.71206e-09
-5.32783e-06
-4.00036e-08
-5.25938e-06
-6.84523e-08
-5.16527e-06
-9.41047e-08
-5.04937e-06
-1.159e-07
-4.91579e-06
-1.33585e-07
-4.76911e-06
-1.4668e-07
-4.61412e-06
-1.5499e-07
-4.4556e-06
-1.58517e-07
-4.29797e-06
-1.57633e-07
-4.1449e-06
-1.53063e-07
-3.99905e-06
-1.45858e-07
-3.86181e-06
-1.37232e-07
-3.73339e-06
-1.28428e-07
-3.61286e-06
-1.20524e-07
-3.49849e-06
-1.14367e-07
-3.38789e-06
-1.10604e-07
-3.27816e-06
-1.09735e-07
-3.16609e-06
-1.12062e-07
-3.04848e-06
-1.17609e-07
-2.92242e-06
-1.26064e-07
-2.78562e-06
-1.36803e-07
-2.63661e-06
-1.49006e-07
-2.47478e-06
-1.61834e-07
-2.3003e-06
-1.74479e-07
-2.1142e-06
-1.86102e-07
-1.91829e-06
-1.95908e-07
-1.71495e-06
-2.03342e-07
-1.50693e-06
-2.08021e-07
-1.2973e-06
-2.09626e-07
-1.08917e-06
-2.0813e-07
-8.85374e-07
-2.03795e-07
-6.88343e-07
-1.97031e-07
-4.99942e-07
-1.884e-07
-3.2151e-07
-1.78432e-07
-1.5388e-07
-1.6763e-07
2.41236e-09
-1.56292e-07
1.48158e-07
-1.45745e-07
2.82962e-07
-1.34804e-07
4.07202e-07
-1.2424e-07
5.2132e-07
-1.14118e-07
6.25804e-07
-1.04484e-07
7.21162e-07
-9.5358e-08
8.07905e-07
-8.67428e-08
8.86533e-07
-7.86281e-08
9.5753e-07
-7.0997e-08
1.02136e-06
-6.38301e-08
1.07847e-06
-5.71088e-08
1.12929e-06
-5.08182e-08
1.17423e-06
-4.49479e-08
1.21373e-06
-3.94924e-08
1.24818e-06
-3.44498e-08
1.278e-06
-2.98199e-08
1.3036e-06
-2.56017e-08
1.32539e-06
-2.17893e-08
1.34376e-06
-1.8372e-08
1.35909e-06
-1.53309e-08
1.37173e-06
-1.26377e-08
1.38199e-06
-1.02623e-08
1.39016e-06
-8.16526e-09
1.39646e-06
-6.3029e-09
1.40111e-06
-4.64817e-09
1.40426e-06
-3.15455e-09
1.40605e-06
-1.78921e-09
1.4066e-06
-5.47635e-10
1.406e-06
5.99731e-10
1.40431e-06
1.68796e-09
1.40164e-06
2.67572e-09
1.3981e-06
3.53393e-09
1.39384e-06
4.25984e-09
1.38899e-06
4.84808e-09
1.3837e-06
5.29705e-09
1.37808e-06
5.61644e-09
1.37226e-06
5.82064e-09
1.36633e-06
5.92741e-09
1.36038e-06
5.9553e-09
1.35446e-06
5.92007e-09
1.34862e-06
5.83685e-09
1.34289e-06
5.72444e-09
1.33729e-06
5.60072e-09
1.33182e-06
5.4714e-09
1.32649e-06
5.33241e-09
1.3213e-06
5.18587e-09
1.31626e-06
5.04595e-09
1.31133e-06
4.92893e-09
1.30649e-06
4.83715e-09
1.30173e-06
4.76366e-09
1.29703e-06
4.70007e-09
1.29239e-06
4.64316e-09
1.28779e-06
4.59214e-09
1.28325e-06
4.54551e-09
1.27875e-06
4.50166e-09
1.27429e-06
4.45949e-09
1.26987e-06
4.41983e-09
1.26548e-06
4.38624e-09
1.26112e-06
4.36063e-09
1.25677e-06
4.34652e-09
1.25243e-06
4.3451e-09
1.24807e-06
4.35792e-09
1.24369e-06
4.38364e-09
1.23927e-06
4.42081e-09
1.2348e-06
4.46856e-09
1.23027e-06
4.52708e-09
1.22567e-06
4.59721e-09
1.22099e-06
4.6819e-09
1.21621e-06
4.7836e-09
1.2113e-06
4.90895e-09
1.20624e-06
5.05973e-09
1.20099e-06
5.24993e-09
1.19551e-06
5.47641e-09
1.18974e-06
5.7736e-09
1.18362e-06
6.11705e-09
1.17702e-06
6.59805e-09
1.1699e-06
7.12125e-09
1.16196e-06
7.93959e-09
1.15323e-06
8.73667e-09
1.14301e-06
1.02174e-08
1.13161e-06
1.13959e-08
1.11731e-06
1.42996e-08
1.10143e-06
1.58816e-08
1.07927e-06
2.216e-08
1.05557e-06
2.36983e-08
1.01664e-06
3.89348e-08
9.78288e-07
3.83508e-08
8.98785e-07
7.95031e-08
6.82006e-08
8.30584e-07
7.87918e-08
-1.13268e-07
2.0108e-07
-2.30675e-07
3.28423e-07
-2.68159e-07
4.56045e-07
-2.79192e-07
5.86085e-07
-2.84672e-07
7.20586e-07
-2.9035e-07
8.60506e-07
-2.97017e-07
1.00599e-06
-3.04079e-07
1.15653e-06
-3.10449e-07
1.31103e-06
-3.14831e-07
1.46767e-06
-3.1566e-07
1.62372e-06
-3.1103e-07
1.77528e-06
-2.98635e-07
1.9172e-06
-2.76113e-07
2.04299e-06
-2.41e-07
2.14557e-06
-1.92047e-07
2.21771e-06
-1.28884e-07
2.2527e-06
-5.28094e-08
2.24681e-06
3.35729e-08
2.19853e-06
1.25719e-07
2.10804e-06
2.18197e-07
1.97948e-06
3.03841e-07
1.81812e-06
3.77558e-07
1.63452e-06
4.32504e-07
1.43787e-06
4.62032e-07
1.22734e-06
4.80108e-07
9.99161e-07
4.53761e-07
7.80371e-07
3.86966e-07
7.28769e-07
2.43059e-07
7.34402e-07
5.10626e-08
4.90081e-07
3.80577e-08
4.10904e-08
2.56225e-07
-6.01668e-07
5.88075e-07
-1.2752e-06
7.17162e-07
-1.83068e-06
8.06495e-07
-2.21686e-06
8.78571e-07
-2.5651e-06
8.90733e-07
-2.9122e-06
8.6483e-07
-3.24248e-06
8.1893e-07
-3.55321e-06
7.68224e-07
-3.84241e-06
7.15138e-07
-4.111e-06
6.63765e-07
-4.35941e-06
6.13809e-07
-4.58814e-06
5.65356e-07
-4.79708e-06
5.174e-07
-4.98567e-06
4.69033e-07
-5.15296e-06
4.19324e-07
-5.29797e-06
3.67812e-07
-5.41947e-06
3.13941e-07
-5.51615e-06
2.57495e-07
-5.58697e-06
1.98694e-07
-5.63132e-06
1.38034e-07
-5.64897e-06
7.62904e-08
-5.64007e-06
1.47053e-08
-5.60467e-06
-4.51104e-08
-5.54237e-06
-1.02306e-07
-5.45517e-06
-1.55648e-07
-5.34558e-06
-2.03692e-07
-5.21636e-06
-2.45127e-07
-5.07118e-06
-2.78765e-07
-4.91416e-06
-3.03696e-07
-4.74983e-06
-3.19325e-07
-4.58281e-06
-3.25538e-07
-4.41755e-06
-3.22893e-07
-4.25787e-06
-3.1274e-07
-4.10654e-06
-2.97182e-07
-3.96495e-06
-2.78826e-07
-3.83302e-06
-2.60356e-07
-3.70947e-06
-2.44072e-07
-3.59219e-06
-2.31648e-07
-3.47852e-06
-2.24281e-07
-3.36535e-06
-2.22901e-07
-3.24929e-06
-2.28123e-07
-3.12688e-06
-2.40012e-07
-2.99503e-06
-2.57917e-07
-2.85138e-06
-2.80458e-07
-2.6945e-06
-3.05885e-07
-2.52393e-06
-3.32403e-07
-2.34001e-06
-3.58402e-07
-2.14389e-06
-3.82215e-07
-1.93757e-06
-4.02228e-07
-1.72357e-06
-4.1735e-07
-1.50473e-06
-4.26857e-07
-1.28434e-06
-4.30015e-07
-1.06571e-06
-4.2676e-07
-8.51755e-07
-4.17751e-07
-6.44948e-07
-4.03838e-07
-4.47129e-07
-3.8622e-07
-2.59495e-07
-3.66066e-07
-8.2687e-08
-3.44438e-07
8.35463e-08
-3.22526e-07
2.38672e-07
-3.00871e-07
3.83417e-07
-2.7955e-07
5.18139e-07
-2.58962e-07
6.43339e-07
-2.39318e-07
7.59573e-07
-2.20718e-07
8.67415e-07
-2.03199e-07
9.67427e-07
-1.86755e-07
1.06015e-06
-1.7135e-07
1.14608e-06
-1.56929e-07
1.22568e-06
-1.43429e-07
1.29936e-06
-1.30786e-07
1.36749e-06
-1.18946e-07
1.43041e-06
-1.07869e-07
1.48845e-06
-9.75335e-08
1.54193e-06
-8.79296e-08
1.59117e-06
-7.906e-08
1.6365e-06
-7.09305e-08
1.67825e-06
-6.35431e-08
1.71677e-06
-5.68919e-08
1.7524e-06
-5.09566e-08
1.78546e-06
-4.57003e-08
1.81627e-06
-4.10743e-08
1.84512e-06
-3.70125e-08
1.87225e-06
-3.34398e-08
1.89789e-06
-3.02828e-08
1.9222e-06
-2.74617e-08
1.94531e-06
-2.49035e-08
1.96732e-06
-2.25607e-08
1.98831e-06
-2.03906e-08
2.00836e-06
-1.83537e-08
2.02746e-06
-1.6429e-08
2.04562e-06
-1.46259e-08
2.06283e-06
-1.29525e-08
2.0791e-06
-1.14148e-08
2.09441e-06
-1.00195e-08
2.1088e-06
-8.76642e-09
2.12227e-06
-7.64918e-09
2.13485e-06
-6.65571e-09
2.14657e-06
-5.7699e-09
2.15747e-06
-4.97691e-09
2.16757e-06
-4.26282e-09
2.1769e-06
-3.60719e-09
2.18549e-06
-2.98761e-09
2.19336e-06
-2.39682e-09
2.20053e-06
-1.84063e-09
2.20703e-06
-1.31127e-09
2.21285e-06
-7.79096e-10
2.218e-06
-2.16e-10
2.22248e-06
3.52359e-10
2.22632e-06
9.22763e-10
2.22954e-06
1.48359e-09
2.23215e-06
2.02902e-09
2.23419e-06
2.55491e-09
2.23568e-06
3.05875e-09
2.23664e-06
3.53982e-09
2.2371e-06
3.99702e-09
2.23709e-06
4.42861e-09
2.23664e-06
4.84028e-09
2.23577e-06
5.23218e-09
2.23451e-06
5.60919e-09
2.23288e-06
5.9718e-09
2.23091e-06
6.32577e-09
2.22862e-06
6.67115e-09
2.22604e-06
7.00828e-09
2.22317e-06
7.33849e-09
2.22003e-06
7.6636e-09
2.21664e-06
7.98651e-09
2.21301e-06
8.31324e-09
2.20914e-06
8.65015e-09
2.20504e-06
9.01142e-09
2.2007e-06
9.40368e-09
2.19609e-06
9.85414e-09
2.19121e-06
1.03593e-08
2.186e-06
1.09807e-08
2.18045e-06
1.16734e-08
2.17444e-06
1.2599e-08
2.16798e-06
1.35818e-08
2.16085e-06
1.50701e-08
2.1531e-06
1.64878e-08
2.14423e-06
1.90875e-08
2.13452e-06
2.11107e-08
2.12275e-06
2.60689e-08
2.10983e-06
2.87988e-08
2.09285e-06
3.91445e-08
2.07418e-06
4.236e-08
2.04726e-06
6.58622e-08
2.01696e-06
6.86466e-08
1.97067e-06
1.25795e-07
1.2781e-07
1.91106e-06
1.00682e-07
-2.1395e-07
2.05476e-07
-3.35469e-07
3.00166e-07
-3.62849e-07
3.95334e-07
-3.7436e-07
4.96851e-07
-3.8619e-07
6.06377e-07
-3.99877e-07
7.2393e-07
-4.1457e-07
8.49119e-07
-4.29268e-07
9.81469e-07
-4.42798e-07
1.12031e-06
-4.53672e-07
1.26441e-06
-4.5976e-07
1.41144e-06
-4.58055e-07
1.55754e-06
-4.44735e-07
1.69704e-06
-4.15619e-07
1.82235e-06
-3.66304e-07
1.92486e-06
-2.94565e-07
1.99549e-06
-1.99506e-07
2.02659e-06
-8.3917e-08
2.01226e-06
4.79043e-08
1.94822e-06
1.89758e-07
1.83803e-06
3.28388e-07
1.68762e-06
4.54255e-07
1.50439e-06
5.60783e-07
1.29448e-06
6.4242e-07
1.06168e-06
6.9483e-07
8.27961e-07
7.13826e-07
6.16365e-07
6.65357e-07
4.82105e-07
5.21226e-07
3.44201e-07
3.80963e-07
-8.83879e-08
4.83652e-07
-8.31717e-07
7.81386e-07
-1.52447e-06
9.48975e-07
-1.99695e-06
1.06056e-06
-2.39408e-06
1.11429e-06
-2.73427e-06
1.14669e-06
-2.99801e-06
1.14231e-06
-3.2177e-06
1.11042e-06
-3.42321e-06
1.07034e-06
-3.626e-06
1.02172e-06
-3.82899e-06
9.71213e-07
-4.03256e-06
9.18714e-07
-4.23478e-06
8.65976e-07
-4.43317e-06
8.12206e-07
-4.6248e-06
7.5698e-07
-4.8064e-06
6.99007e-07
-4.97463e-06
6.3726e-07
-5.12617e-06
5.70866e-07
-5.25772e-06
4.99361e-07
-5.36649e-06
4.22709e-07
-5.4503e-06
3.41306e-07
-5.50766e-06
2.56049e-07
-5.53784e-06
1.68217e-07
-5.5408e-06
7.9256e-08
-5.51601e-06
-1.00845e-08
-5.46779e-06
-9.33314e-08
-5.39705e-06
-1.73051e-07
-5.30599e-06
-2.46706e-07
-5.19716e-06
-3.12522e-07
-5.07315e-06
-3.69135e-07
-4.93656e-06
-4.15353e-07
-4.79003e-06
-4.50227e-07
-4.6364e-06
-4.72955e-07
-4.47889e-06
-4.8305e-07
-4.32118e-06
-4.80607e-07
-4.1672e-06
-4.66713e-07
-4.02062e-06
-4.43766e-07
-3.884e-06
-4.15444e-07
-3.7582e-06
-3.86161e-07
-3.64216e-06
-3.60104e-07
-3.53344e-06
-3.4037e-07
-3.42879e-06
-3.28937e-07
-3.32453e-06
-3.2716e-07
-3.21673e-06
-3.35921e-07
-3.10139e-06
-3.55352e-07
-2.97483e-06
-3.84481e-07
-2.83441e-06
-4.20872e-07
-2.67871e-06
-4.61591e-07
-2.50733e-06
-5.03784e-07
-2.32081e-06
-5.44921e-07
-2.12057e-06
-5.82455e-07
-1.90892e-06
-6.13873e-07
-1.68881e-06
-6.37457e-07
-1.46356e-06
-6.52114e-07
-1.23714e-06
-6.5643e-07
-1.01358e-06
-6.50326e-07
-7.96219e-07
-6.35109e-07
-5.87743e-07
-6.12314e-07
-3.89907e-07
-5.84056e-07
-2.03713e-07
-5.52261e-07
-2.96124e-08
-5.18538e-07
1.33507e-07
-4.85645e-07
2.84978e-07
-4.52342e-07
4.25539e-07
-4.2011e-07
5.55775e-07
-3.89198e-07
6.76269e-07
-3.59812e-07
7.87617e-07
-3.32067e-07
8.90439e-07
-3.06022e-07
9.85378e-07
-2.81694e-07
1.07309e-06
-2.59064e-07
1.15424e-06
-2.38077e-07
1.22945e-06
-2.18642e-07
1.29931e-06
-2.00645e-07
1.36432e-06
-1.83957e-07
1.42491e-06
-1.68453e-07
1.4814e-06
-1.5403e-07
1.53409e-06
-1.4062e-07
1.58322e-06
-1.2819e-07
1.62903e-06
-1.16739e-07
1.67177e-06
-1.0628e-07
1.7117e-06
-9.6826e-08
1.74912e-06
-8.83737e-08
1.78432e-06
-8.08971e-08
1.81759e-06
-7.43445e-08
1.84921e-06
-6.86354e-08
1.87944e-06
-6.36683e-08
1.90849e-06
-5.93304e-08
1.93653e-06
-5.55028e-08
1.9637e-06
-5.20709e-08
1.99007e-06
-4.89358e-08
2.0157e-06
-4.60215e-08
2.04061e-06
-4.32658e-08
2.06481e-06
-4.06233e-08
2.08826e-06
-3.8082e-08
2.11096e-06
-3.56458e-08
2.13287e-06
-3.33241e-08
2.15397e-06
-3.11244e-08
2.17426e-06
-2.90527e-08
2.19372e-06
-2.71091e-08
2.21235e-06
-2.52865e-08
2.23015e-06
-2.35754e-08
2.24714e-06
-2.19649e-08
2.26332e-06
-2.04408e-08
2.2787e-06
-1.89842e-08
2.29329e-06
-1.75773e-08
2.3071e-06
-1.62104e-08
2.32014e-06
-1.48772e-08
2.33239e-06
-1.35671e-08
2.34388e-06
-1.22675e-08
2.35463e-06
-1.09688e-08
2.36466e-06
-9.67148e-09
2.37396e-06
-8.37646e-09
2.38253e-06
-7.09048e-09
2.39038e-06
-5.82192e-09
2.39752e-06
-4.57806e-09
2.40394e-06
-3.36314e-09
2.40965e-06
-2.17778e-09
2.41468e-06
-1.02373e-09
2.41901e-06
9.64835e-11
2.42267e-06
1.18082e-09
2.42568e-06
2.21563e-09
2.42808e-06
3.20858e-09
2.4299e-06
4.15426e-09
2.43116e-06
5.06372e-09
2.4319e-06
5.93381e-09
2.43214e-06
6.76602e-09
2.43192e-06
7.56262e-09
2.43126e-06
8.328e-09
2.43018e-06
9.06579e-09
2.4287e-06
9.78555e-09
2.42686e-06
1.04927e-08
2.42466e-06
1.12081e-08
2.42213e-06
1.1936e-08
2.41927e-06
1.27191e-08
2.41608e-06
1.35456e-08
2.41255e-06
1.45066e-08
2.40869e-06
1.55341e-08
2.40445e-06
1.6845e-08
2.39982e-06
1.82112e-08
2.39471e-06
2.01828e-08
2.38911e-06
2.20863e-08
2.38285e-06
2.53449e-08
2.37589e-06
2.807e-08
2.368e-06
3.39586e-08
2.3589e-06
3.79009e-08
2.3486e-06
4.94467e-08
2.33573e-06
5.52244e-08
2.32208e-06
7.95143e-08
2.30205e-06
8.86785e-08
2.28554e-06
1.423e-07
1.61531e-07
2.25182e-06
8.79904e-08
-3.0194e-07
1.59644e-07
-4.07123e-07
2.2433e-07
-4.27535e-07
2.93063e-07
-4.43092e-07
3.68039e-07
-4.61166e-07
4.49134e-07
-4.80972e-07
5.3637e-07
-5.01805e-07
6.30359e-07
-5.23257e-07
7.3202e-07
-5.44459e-07
8.42016e-07
-5.63667e-07
9.59997e-07
-5.77742e-07
1.08396e-06
-5.82016e-07
1.2101e-06
-5.70873e-07
1.33229e-06
-5.37811e-07
1.44262e-06
-4.76638e-07
1.53151e-06
-3.83458e-07
1.58991e-06
-2.57905e-07
1.60934e-06
-1.03342e-07
1.58116e-06
7.6078e-08
1.50196e-06
2.68967e-07
1.37492e-06
4.55428e-07
1.20527e-06
6.23901e-07
1.00299e-06
7.6306e-07
7.84129e-07
8.61285e-07
5.70676e-07
9.08283e-07
3.90447e-07
8.94055e-07
2.16031e-07
8.39773e-07
-9.43553e-08
8.31612e-07
-6.85717e-07
9.72324e-07
-1.37025e-06
1.16819e-06
-1.87923e-06
1.29036e-06
-2.27564e-06
1.34539e-06
-2.58066e-06
1.36557e-06
-2.82814e-06
1.36177e-06
-3.03103e-06
1.34958e-06
-3.21023e-06
1.32151e-06
-3.3836e-06
1.2838e-06
-3.5539e-06
1.24063e-06
-3.72722e-06
1.19504e-06
-3.90349e-06
1.14748e-06
-4.08158e-06
1.0968e-06
-4.25832e-06
1.04272e-06
-4.4301e-06
9.83987e-07
-4.59291e-06
9.19788e-07
-4.74291e-06
8.4901e-07
-4.87659e-06
7.70946e-07
-4.99101e-06
6.85277e-07
-5.08372e-06
5.92076e-07
-5.15293e-06
4.91915e-07
-5.1976e-06
3.85979e-07
-5.21771e-06
2.76158e-07
-5.21412e-06
1.64627e-07
-5.18772e-06
5.2853e-08
-5.14228e-06
-5.55185e-08
-5.07788e-06
-1.57728e-07
-4.99792e-06
-2.53013e-07
-4.90584e-06
-3.38791e-07
-4.80505e-06
-4.13315e-07
-4.69858e-06
-4.75605e-07
-4.58857e-06
-5.25356e-07
-4.47621e-06
-5.62591e-07
-4.36176e-06
-5.87399e-07
-4.24502e-06
-5.99797e-07
-4.12593e-06
-5.99696e-07
-4.00539e-06
-5.87249e-07
-3.88564e-06
-5.63522e-07
-3.76986e-06
-5.31216e-07
-3.66106e-06
-4.94962e-07
-3.56045e-06
-4.60715e-07
-3.46657e-06
-4.34257e-07
-3.37592e-06
-4.1958e-07
-3.28429e-06
-4.18796e-07
-3.1874e-06
-4.32813e-07
-3.08115e-06
-4.61598e-07
-2.96194e-06
-5.03692e-07
-2.82696e-06
-5.5585e-07
-2.67462e-06
-6.1393e-07
-2.50455e-06
-6.7386e-07
-2.31691e-06
-7.32555e-07
-2.11251e-06
-7.86852e-07
-1.89329e-06
-8.33101e-07
-1.66255e-06
-8.68193e-07
-1.42463e-06
-8.90038e-07
-1.18513e-06
-8.95927e-07
-9.49686e-07
-8.85769e-07
-7.22844e-07
-8.61951e-07
-5.07715e-07
-8.27443e-07
-3.06043e-07
-7.85728e-07
-1.18261e-07
-7.40042e-07
5.63266e-08
-6.93126e-07
2.17768e-07
-6.47087e-07
3.67384e-07
-6.01959e-07
5.05876e-07
-5.58602e-07
6.34015e-07
-5.17338e-07
7.52478e-07
-4.78274e-07
8.61819e-07
-4.41408e-07
9.62492e-07
-4.06695e-07
1.05489e-06
-3.74091e-07
1.1394e-06
-3.43581e-07
1.2165e-06
-3.15174e-07
1.28675e-06
-2.8889e-07
1.35084e-06
-2.64732e-07
1.40954e-06
-2.4266e-07
1.46366e-06
-2.22571e-07
1.51393e-06
-2.04301e-07
1.56096e-06
-1.87655e-07
1.60521e-06
-1.72441e-07
1.64699e-06
-1.58511e-07
1.68648e-06
-1.45777e-07
1.72386e-06
-1.34204e-07
1.75927e-06
-1.23785e-07
1.79289e-06
-1.14511e-07
1.82489e-06
-1.06351e-07
1.85549e-06
-9.92372e-08
1.88489e-06
-9.30655e-08
1.91326e-06
-8.77022e-08
1.94076e-06
-8.29977e-08
1.96749e-06
-7.87995e-08
1.99352e-06
-7.49691e-08
2.01889e-06
-7.13942e-08
2.04361e-06
-6.79884e-08
2.06768e-06
-6.46906e-08
2.09107e-06
-6.14751e-08
2.11377e-06
-5.83416e-08
2.13575e-06
-5.52985e-08
2.15698e-06
-5.23569e-08
2.17746e-06
-4.95303e-08
2.19717e-06
-4.6827e-08
2.21613e-06
-4.42454e-08
2.23434e-06
-4.1781e-08
2.2518e-06
-3.94254e-08
2.26852e-06
-3.71649e-08
2.28452e-06
-3.4981e-08
2.2998e-06