/*--------------------------------*- C++ -*----------------------------------*\
  =========                 |
  \\      /  F ield         | OpenFOAM: The Open Source CFD Toolbox
   \\    /   O peration     | Website:  https://openfoam.org
    \\  /    A nd           | Version:  7
     \\/     M anipulation  |
\*---------------------------------------------------------------------------*/
FoamFile
{
    version     2.0;
    format      ascii;
    class       volScalarField;
    location    "0.044";
    object      pPrime2Mean;
}
// * * * * * * * * * * * * * * * * * * * * * * * * * * * * * * * * * * * * * //

dimensions      [0 4 -4 0 0 0 0];

internalField   nonuniform List<scalar> 
12225
(
8.11123e+06
7.98193e+06
7.84845e+06
7.7197e+06
7.59606e+06
7.47712e+06
7.36256e+06
7.25202e+06
7.14516e+06
7.04158e+06
6.94086e+06
6.84253e+06
6.74602e+06
6.65058e+06
6.55523e+06
6.45841e+06
6.35739e+06
6.24534e+06
8.11133e+06
7.98199e+06
7.8485e+06
7.71977e+06
7.59613e+06
7.4772e+06
7.36265e+06
7.25214e+06
7.1453e+06
7.04176e+06
6.94109e+06
6.84283e+06
6.74641e+06
6.65113e+06
6.55605e+06
6.45972e+06
6.35987e+06
6.25095e+06
8.11152e+06
7.98212e+06
7.84863e+06
7.71991e+06
7.59628e+06
7.47739e+06
7.36287e+06
7.2524e+06
7.14562e+06
7.04215e+06
6.94159e+06
6.84348e+06
6.74728e+06
6.65234e+06
6.55781e+06
6.46253e+06
6.36482e+06
6.26261e+06
8.11173e+06
7.98232e+06
7.84884e+06
7.72014e+06
7.59655e+06
7.47769e+06
7.36323e+06
7.25283e+06
7.14615e+06
7.04281e+06
6.94242e+06
6.84455e+06
6.7487e+06
6.6543e+06
6.56064e+06
6.46688e+06
6.37217e+06
6.27656e+06
8.11197e+06
7.98261e+06
7.84915e+06
7.72048e+06
7.59693e+06
7.47813e+06
7.36375e+06
7.25346e+06
7.14692e+06
7.04377e+06
6.94364e+06
6.84611e+06
6.75076e+06
6.65709e+06
6.56458e+06
6.47275e+06
6.3814e+06
6.29165e+06
8.11234e+06
7.98301e+06
7.84958e+06
7.72095e+06
7.59746e+06
7.47875e+06
7.36448e+06
7.25433e+06
7.14798e+06
7.04508e+06
6.94529e+06
6.84822e+06
6.75352e+06
6.66078e+06
6.56968e+06
6.48003e+06
6.39208e+06
6.3073e+06
8.11281e+06
7.98354e+06
7.85015e+06
7.72158e+06
7.59817e+06
7.47956e+06
7.36544e+06
7.25548e+06
7.14938e+06
7.0468e+06
6.94743e+06
6.85095e+06
6.75703e+06
6.66542e+06
6.57591e+06
6.48856e+06
6.40388e+06
6.32322e+06
8.11343e+06
7.98423e+06
7.85089e+06
7.72238e+06
7.59907e+06
7.4806e+06
7.36666e+06
7.25694e+06
7.15114e+06
7.04897e+06
6.95013e+06
6.85433e+06
6.76135e+06
6.671e+06
6.58322e+06
6.4982e+06
6.41651e+06
6.33929e+06
8.11429e+06
7.98511e+06
7.85182e+06
7.72339e+06
7.6002e+06
7.4819e+06
7.36818e+06
7.25876e+06
7.15334e+06
7.05164e+06
6.95342e+06
6.85843e+06
6.7665e+06
6.67752e+06
6.59153e+06
6.50878e+06
6.4298e+06
6.35544e+06
8.11531e+06
7.98621e+06
7.85297e+06
7.72464e+06
7.60159e+06
7.4835e+06
7.37005e+06
7.26097e+06
7.15599e+06
7.05485e+06
6.95734e+06
6.86325e+06
6.77247e+06
6.68493e+06
6.60074e+06
6.52014e+06
6.44357e+06
6.37164e+06
8.11683e+06
7.98758e+06
7.85437e+06
7.72615e+06
7.60328e+06
7.48542e+06
7.37229e+06
7.26361e+06
7.15914e+06
7.05864e+06
6.96192e+06
6.86882e+06
6.77925e+06
6.6932e+06
6.61076e+06
6.53216e+06
6.45773e+06
6.38786e+06
8.1182e+06
7.98908e+06
7.85592e+06
7.7278e+06
7.60512e+06
7.48752e+06
7.37472e+06
7.26646e+06
7.16252e+06
7.06267e+06
6.96674e+06
6.8746e+06
6.78618e+06
6.70148e+06
6.62059e+06
6.54368e+06
6.47098e+06
6.40274e+06
8.12012e+06
7.99082e+06
7.85769e+06
7.72969e+06
7.60721e+06
7.48989e+06
7.37746e+06
7.26966e+06
7.16629e+06
7.06713e+06
6.97203e+06
6.88088e+06
6.79361e+06
6.71023e+06
6.6308e+06
6.55544e+06
6.48429e+06
6.41747e+06
8.12261e+06
7.99314e+06
7.86003e+06
7.73219e+06
7.60996e+06
7.493e+06
7.38104e+06
7.27382e+06
7.17115e+06
7.07283e+06
6.97872e+06
6.88872e+06
6.80276e+06
6.72083e+06
6.64296e+06
6.5692e+06
6.4996e+06
6.4342e+06
8.12585e+06
7.9962e+06
7.86312e+06
7.73547e+06
7.61357e+06
7.49707e+06
7.38568e+06
7.27918e+06
7.17735e+06
7.08003e+06
6.98707e+06
6.89836e+06
6.81384e+06
6.73346e+06
6.6572e+06
6.58505e+06
6.51699e+06
6.45298e+06
8.12986e+06
8.00012e+06
7.86713e+06
7.73974e+06
7.61825e+06
7.50231e+06
7.39162e+06
7.28597e+06
7.18514e+06
7.08896e+06
6.99729e+06
6.91e+06
6.82701e+06
6.74822e+06
6.67358e+06
6.60301e+06
6.53642e+06
6.47373e+06
8.13488e+06
8.00507e+06
7.87223e+06
7.74517e+06
7.6242e+06
7.50893e+06
7.39907e+06
7.2944e+06
7.1947e+06
7.09979e+06
7.0095e+06
6.9237e+06
6.84226e+06
6.76505e+06
6.69197e+06
6.6229e+06
6.5577e+06
6.49623e+06
8.14076e+06
8.01108e+06
7.8785e+06
7.75188e+06
7.63152e+06
7.51703e+06
7.40811e+06
7.30452e+06
7.20603e+06
7.11245e+06
7.02358e+06
6.93927e+06
6.85934e+06
6.78364e+06
6.71201e+06
6.64431e+06
6.58036e+06
6.52001e+06
8.14776e+06
8.01817e+06
7.88589e+06
7.75978e+06
7.6401e+06
7.52645e+06
7.41853e+06
7.31606e+06
7.21881e+06
7.12655e+06
7.03905e+06
6.95614e+06
6.87761e+06
6.80327e+06
6.73295e+06
6.66645e+06
6.6036e+06
6.54422e+06
8.15381e+06
8.02419e+06
7.89214e+06
7.76645e+06
7.64732e+06
7.53435e+06
7.4272e+06
7.32558e+06
7.22923e+06
7.1379e+06
7.05138e+06
6.96943e+06
6.89184e+06
6.81841e+06
6.74894e+06
6.68323e+06
6.62109e+06
6.56234e+06
8.15744e+06
8.02816e+06
7.89638e+06
7.77101e+06
7.65228e+06
7.53977e+06
7.43312e+06
7.33204e+06
7.23627e+06
7.14554e+06
7.05961e+06
6.97825e+06
6.90123e+06
6.82835e+06
6.75939e+06
6.69415e+06
6.63243e+06
6.57405e+06
8.16038e+06
8.03105e+06
7.89946e+06
7.77436e+06
7.65593e+06
7.54375e+06
7.43747e+06
7.33679e+06
7.24141e+06
7.1511e+06
7.06558e+06
6.98462e+06
6.908e+06
6.83548e+06
6.76686e+06
6.70194e+06
6.6405e+06
6.58236e+06
8.16177e+06
8.03294e+06
7.90161e+06
7.77674e+06
7.65856e+06
7.54663e+06
7.44062e+06
7.3402e+06
7.24512e+06
7.15508e+06
7.06985e+06
6.98917e+06
6.91281e+06
6.84055e+06
6.77216e+06
6.70744e+06
6.6462e+06
6.58823e+06
8.16295e+06
8.03423e+06
7.9031e+06
7.77842e+06
7.66041e+06
7.54867e+06
7.44284e+06
7.34262e+06
7.24773e+06
7.1579e+06
7.07286e+06
6.99237e+06
6.91619e+06
6.84409e+06
6.77587e+06
6.71129e+06
6.65018e+06
6.59232e+06
8.16365e+06
8.03506e+06
7.90409e+06
7.77956e+06
7.66169e+06
7.55008e+06
7.44438e+06
7.3443e+06
7.24954e+06
7.15984e+06
7.07493e+06
6.99457e+06
6.91851e+06
6.84654e+06
6.77841e+06
6.71394e+06
6.65291e+06
6.59513e+06
8.16369e+06
8.03553e+06
7.90474e+06
7.78032e+06
7.66255e+06
7.55103e+06
7.44542e+06
7.34542e+06
7.25076e+06
7.16115e+06
7.07633e+06
6.99605e+06
6.92008e+06
6.84817e+06
6.78012e+06
6.71571e+06
6.65473e+06
6.597e+06
8.16371e+06
8.03581e+06
7.90515e+06
7.78081e+06
7.6631e+06
7.55164e+06
7.44609e+06
7.34615e+06
7.25155e+06
7.16199e+06
7.07723e+06
6.99701e+06
6.92108e+06
6.84923e+06
6.78122e+06
6.71685e+06
6.65591e+06
6.59821e+06
8.16381e+06
8.03598e+06
7.90539e+06
7.7811e+06
7.66343e+06
7.55201e+06
7.44649e+06
7.34659e+06
7.25202e+06
7.1625e+06
7.07777e+06
6.99758e+06
6.92169e+06
6.84986e+06
6.78188e+06
6.71754e+06
6.65662e+06
6.59894e+06
8.16387e+06
8.03607e+06
7.90552e+06
7.78126e+06
7.66361e+06
7.55221e+06
7.44671e+06
7.34683e+06
7.25228e+06
7.16278e+06
7.07807e+06
6.9979e+06
6.92202e+06
6.85021e+06
6.78224e+06
6.71791e+06
6.657e+06
6.59934e+06
8.1639e+06
8.03611e+06
7.90557e+06
7.78132e+06
7.66369e+06
7.55229e+06
7.4468e+06
7.34693e+06
7.25238e+06
7.16289e+06
7.07819e+06
6.99802e+06
6.92215e+06
6.85035e+06
6.78239e+06
6.71806e+06
6.65716e+06
6.5995e+06
5.2771e+06
5.27668e+06
5.27583e+06
5.27454e+06
5.27282e+06
5.27063e+06
5.26799e+06
5.26488e+06
5.26129e+06
5.25723e+06
5.25268e+06
5.24765e+06
5.24212e+06
5.23609e+06
5.22957e+06
5.22255e+06
5.21502e+06
5.207e+06
5.19847e+06
5.18944e+06
5.17991e+06
5.16989e+06
5.15936e+06
5.14834e+06
5.13684e+06
5.12484e+06
5.11237e+06
5.09941e+06
5.08598e+06
5.07209e+06
5.05773e+06
5.04292e+06
5.02765e+06
5.01194e+06
4.99579e+06
4.97921e+06
4.9622e+06
4.94478e+06
4.92694e+06
4.9087e+06
4.89006e+06
4.87102e+06
4.85161e+06
4.83181e+06
4.81165e+06
4.79112e+06
4.77023e+06
4.74899e+06
4.72741e+06
4.70549e+06
4.68324e+06
4.66066e+06
4.63777e+06
4.61456e+06
4.59105e+06
4.56724e+06
4.54314e+06
4.51875e+06
4.49408e+06
4.46914e+06
4.44392e+06
4.41844e+06
4.39271e+06
4.36672e+06
4.34048e+06
4.314e+06
4.28728e+06
4.26033e+06
4.23315e+06
4.20575e+06
4.17813e+06
4.1503e+06
4.12225e+06
4.09401e+06
4.06555e+06
4.03691e+06
4.00807e+06
3.97904e+06
3.94982e+06
3.92043e+06
3.89085e+06
3.86111e+06
3.83119e+06
3.80111e+06
3.77086e+06
3.74045e+06
3.70989e+06
3.67917e+06
3.64831e+06
3.6173e+06
3.58614e+06
3.55485e+06
3.52342e+06
3.49186e+06
3.46016e+06
3.42834e+06
3.39639e+06
3.36433e+06
3.33214e+06
3.29984e+06
3.26743e+06
3.2349e+06
3.20228e+06
3.16954e+06
3.13671e+06
3.10378e+06
3.07076e+06
3.03764e+06
3.00444e+06
2.97115e+06
2.93778e+06
2.90433e+06
2.8708e+06
2.83721e+06
2.80354e+06
2.7698e+06
2.73601e+06
2.70215e+06
2.66824e+06
2.63427e+06
2.60026e+06
2.5662e+06
2.53209e+06
2.49795e+06
2.46378e+06
2.42957e+06
2.39533e+06
2.36107e+06
2.32679e+06
2.2925e+06
2.25819e+06
2.22388e+06
2.18956e+06
2.15524e+06
2.12093e+06
2.08663e+06
2.05235e+06
2.01808e+06
1.98384e+06
1.94963e+06
1.91545e+06
1.88131e+06
1.84722e+06
1.81317e+06
1.77918e+06
1.74525e+06
1.71139e+06
1.6776e+06
1.64388e+06
1.61025e+06
1.57671e+06
1.54327e+06
1.50993e+06
1.4767e+06
1.44358e+06
1.41059e+06
1.37772e+06
1.34499e+06
1.31241e+06
1.27998e+06
1.24771e+06
1.2156e+06
1.18368e+06
1.15193e+06
1.12038e+06
1.08903e+06
1.0579e+06
1.02699e+06
996307
965874
935698
905795
876180
846872
817895
789275
761054
733287
706073
679624
5.279e+06
5.27858e+06
5.27773e+06
5.27643e+06
5.27469e+06
5.2725e+06
5.26984e+06
5.26671e+06
5.2631e+06
5.25902e+06
5.25444e+06
5.24938e+06
5.24382e+06
5.23777e+06
5.23121e+06
5.22416e+06
5.2166e+06
5.20854e+06
5.19997e+06
5.1909e+06
5.18133e+06
5.17127e+06
5.1607e+06
5.14965e+06
5.1381e+06
5.12606e+06
5.11354e+06
5.10055e+06
5.08708e+06
5.07315e+06
5.05875e+06
5.0439e+06
5.02859e+06
5.01285e+06
4.99666e+06
4.98004e+06
4.963e+06
4.94554e+06
4.92767e+06
4.9094e+06
4.89072e+06
4.87166e+06
4.85222e+06
4.83239e+06
4.8122e+06
4.79164e+06
4.77073e+06
4.74947e+06
4.72786e+06
4.70592e+06
4.68364e+06
4.66105e+06
4.63813e+06
4.61491e+06
4.59138e+06
4.56755e+06
4.54344e+06
4.51903e+06
4.49435e+06
4.46939e+06
4.44416e+06
4.41867e+06
4.39292e+06
4.36692e+06
4.34067e+06
4.31418e+06
4.28745e+06
4.26049e+06
4.2333e+06
4.20589e+06
4.17826e+06
4.15042e+06
4.12237e+06
4.09411e+06
4.06566e+06
4.037e+06
4.00816e+06
3.97912e+06
3.9499e+06
3.9205e+06
3.89092e+06
3.86117e+06
3.83125e+06
3.80116e+06
3.77091e+06
3.7405e+06
3.70994e+06
3.67922e+06
3.64835e+06
3.61734e+06
3.58618e+06
3.55488e+06
3.52345e+06
3.49188e+06
3.46019e+06
3.42836e+06
3.39642e+06
3.36435e+06
3.33216e+06
3.29986e+06
3.26744e+06
3.23492e+06
3.20229e+06
3.16956e+06
3.13672e+06
3.10379e+06
3.07077e+06
3.03765e+06
3.00445e+06
2.97116e+06
2.93779e+06
2.90434e+06
2.87081e+06
2.83721e+06
2.80354e+06
2.76981e+06
2.73601e+06
2.70215e+06
2.66824e+06
2.63428e+06
2.60026e+06
2.5662e+06
2.5321e+06
2.49795e+06
2.46378e+06
2.42957e+06
2.39533e+06
2.36107e+06
2.32679e+06
2.2925e+06
2.25819e+06
2.22388e+06
2.18956e+06
2.15525e+06
2.12093e+06
2.08663e+06
2.05235e+06
2.01808e+06
1.98384e+06
1.94963e+06
1.91545e+06
1.88131e+06
1.84722e+06
1.81317e+06
1.77918e+06
1.74525e+06
1.71139e+06
1.6776e+06
1.64388e+06
1.61025e+06
1.57671e+06
1.54327e+06
1.50993e+06
1.4767e+06
1.44358e+06
1.41059e+06
1.37772e+06
1.34499e+06
1.31241e+06
1.27998e+06
1.24771e+06
1.2156e+06
1.18368e+06
1.15193e+06
1.12038e+06
1.08903e+06
1.0579e+06
1.02698e+06
996304
965870
935693
905788
876171
846860
817878
789253
761021
733236
705981
679409
5.28283e+06
5.2824e+06
5.28153e+06
5.28022e+06
5.27846e+06
5.27624e+06
5.27354e+06
5.27038e+06
5.26673e+06
5.2626e+06
5.25798e+06
5.25286e+06
5.24724e+06
5.24112e+06
5.2345e+06
5.22738e+06
5.21975e+06
5.21161e+06
5.20297e+06
5.19383e+06
5.18418e+06
5.17403e+06
5.16339e+06
5.15225e+06
5.14062e+06
5.1285e+06
5.1159e+06
5.10283e+06
5.08928e+06
5.07526e+06
5.06079e+06
5.04586e+06
5.03048e+06
5.01465e+06
4.99839e+06
4.98171e+06
4.96459e+06
4.94707e+06
4.92913e+06
4.91079e+06
4.89206e+06
4.87293e+06
4.85343e+06
4.83355e+06
4.8133e+06
4.79269e+06
4.77173e+06
4.75042e+06
4.72876e+06
4.70678e+06
4.68446e+06
4.66182e+06
4.63887e+06
4.61561e+06
4.59204e+06
4.56818e+06
4.54403e+06
4.51959e+06
4.49487e+06
4.46989e+06
4.44463e+06
4.41911e+06
4.39334e+06
4.36731e+06
4.34104e+06
4.31453e+06
4.28778e+06
4.2608e+06
4.2336e+06
4.20617e+06
4.17852e+06
4.15067e+06
4.1226e+06
4.09433e+06
4.06586e+06
4.03719e+06
4.00833e+06
3.97929e+06
3.95006e+06
3.92065e+06
3.89106e+06
3.8613e+06
3.83137e+06
3.80127e+06
3.77102e+06
3.7406e+06
3.71003e+06
3.6793e+06
3.64843e+06
3.61741e+06
3.58625e+06
3.55495e+06
3.52351e+06
3.49194e+06
3.46024e+06
3.42841e+06
3.39646e+06
3.36439e+06
3.3322e+06
3.29989e+06
3.26748e+06
3.23495e+06
3.20232e+06
3.16958e+06
3.13675e+06
3.10381e+06
3.07079e+06
3.03767e+06
3.00446e+06
2.97117e+06
2.9378e+06
2.90435e+06
2.87082e+06
2.83722e+06
2.80355e+06
2.76982e+06
2.73602e+06
2.70216e+06
2.66825e+06
2.63428e+06
2.60027e+06
2.56621e+06
2.5321e+06
2.49796e+06
2.46378e+06
2.42957e+06
2.39534e+06
2.36108e+06
2.3268e+06
2.2925e+06
2.25819e+06
2.22388e+06
2.18956e+06
2.15525e+06
2.12094e+06
2.08664e+06
2.05235e+06
2.01808e+06
1.98384e+06
1.94963e+06
1.91545e+06
1.88131e+06
1.84722e+06
1.81317e+06
1.77918e+06
1.74525e+06
1.71139e+06
1.6776e+06
1.64388e+06
1.61025e+06
1.57671e+06
1.54327e+06
1.50993e+06
1.4767e+06
1.44358e+06
1.41059e+06
1.37772e+06
1.34499e+06
1.31241e+06
1.27998e+06
1.24771e+06
1.2156e+06
1.18367e+06
1.15193e+06
1.12038e+06
1.08903e+06
1.05789e+06
1.02698e+06
996298
965861
935682
905774
876153
846837
817847
789209
760957
733138
705815
679071
5.2886e+06
5.28816e+06
5.28727e+06
5.28593e+06
5.28414e+06
5.28187e+06
5.27913e+06
5.27591e+06
5.2722e+06
5.26799e+06
5.26329e+06
5.25809e+06
5.25238e+06
5.24617e+06
5.23945e+06
5.23222e+06
5.22449e+06
5.21624e+06
5.20748e+06
5.19822e+06
5.18845e+06
5.17818e+06
5.16742e+06
5.15615e+06
5.1444e+06
5.13216e+06
5.11943e+06
5.10624e+06
5.09257e+06
5.07843e+06
5.06384e+06
5.04879e+06
5.03329e+06
5.01736e+06
5.00099e+06
4.98419e+06
4.96698e+06
4.94935e+06
4.93131e+06
4.91288e+06
4.89405e+06
4.87484e+06
4.85524e+06
4.83528e+06
4.81495e+06
4.79426e+06
4.77322e+06
4.75184e+06
4.73012e+06
4.70806e+06
4.68568e+06
4.66298e+06
4.63997e+06
4.61665e+06
4.59303e+06
4.56911e+06
4.54491e+06
4.52043e+06
4.49566e+06
4.47063e+06
4.44534e+06
4.41978e+06
4.39397e+06
4.36791e+06
4.3416e+06
4.31506e+06
4.28828e+06
4.26127e+06
4.23404e+06
4.20658e+06
4.17891e+06
4.15103e+06
4.12294e+06
4.09465e+06
4.06616e+06
4.03748e+06
4.0086e+06
3.97954e+06
3.95029e+06
3.92087e+06
3.89126e+06
3.86149e+06
3.83155e+06
3.80144e+06
3.77117e+06
3.74074e+06
3.71016e+06
3.67943e+06
3.64855e+06
3.61752e+06
3.58635e+06
3.55504e+06
3.5236e+06
3.49202e+06
3.46031e+06
3.42848e+06
3.39653e+06
3.36445e+06
3.33225e+06
3.29994e+06
3.26752e+06
3.23499e+06
3.20236e+06
3.16962e+06
3.13678e+06
3.10385e+06
3.07082e+06
3.0377e+06
3.00449e+06
2.9712e+06
2.93782e+06
2.90437e+06
2.87084e+06
2.83724e+06
2.80357e+06
2.76983e+06
2.73603e+06
2.70217e+06
2.66826e+06
2.63429e+06
2.60028e+06
2.56621e+06
2.53211e+06
2.49797e+06
2.46379e+06
2.42958e+06
2.39534e+06
2.36108e+06
2.3268e+06
2.2925e+06
2.2582e+06
2.22388e+06
2.18957e+06
2.15525e+06
2.12094e+06
2.08664e+06
2.05235e+06
2.01809e+06
1.98384e+06
1.94963e+06
1.91545e+06
1.88131e+06
1.84722e+06
1.81317e+06
1.77918e+06
1.74525e+06
1.71139e+06
1.6776e+06
1.64388e+06
1.61025e+06
1.57671e+06
1.54327e+06
1.50993e+06
1.4767e+06
1.44358e+06
1.41059e+06
1.37772e+06
1.34499e+06
1.31241e+06
1.27998e+06
1.24771e+06
1.2156e+06
1.18367e+06
1.15193e+06
1.12037e+06
1.08903e+06
1.05789e+06
1.02697e+06
996289
965849
935667
905754
876127
846802
817800
789145
760866
733001
705594
678679
5.29635e+06
5.29589e+06
5.29498e+06
5.2936e+06
5.29176e+06
5.28943e+06
5.28662e+06
5.28332e+06
5.27952e+06
5.27522e+06
5.27042e+06
5.2651e+06
5.25927e+06
5.25293e+06
5.24608e+06
5.23871e+06
5.23082e+06
5.22242e+06
5.21351e+06
5.20409e+06
5.19416e+06
5.18372e+06
5.17279e+06
5.16136e+06
5.14944e+06
5.13703e+06
5.12414e+06
5.11078e+06
5.09694e+06
5.08265e+06
5.06789e+06
5.05269e+06
5.03704e+06
5.02096e+06
5.00444e+06
4.9875e+06
4.97014e+06
4.95238e+06
4.93421e+06
4.91565e+06
4.8967e+06
4.87736e+06
4.85765e+06
4.83758e+06
4.81714e+06
4.79635e+06
4.77521e+06
4.75372e+06
4.73191e+06
4.70976e+06
4.6873e+06
4.66451e+06
4.64142e+06
4.61803e+06
4.59433e+06
4.57035e+06
4.54608e+06
4.52153e+06
4.49671e+06
4.47162e+06
4.44627e+06
4.42066e+06
4.3948e+06
4.36869e+06
4.34234e+06
4.31576e+06
4.28894e+06
4.26189e+06
4.23462e+06
4.20713e+06
4.17943e+06
4.15152e+06
4.1234e+06
4.09508e+06
4.06657e+06
4.03786e+06
4.00896e+06
3.97987e+06
3.9506e+06
3.92116e+06
3.89154e+06
3.86175e+06
3.83179e+06
3.80166e+06
3.77138e+06
3.74094e+06
3.71034e+06
3.6796e+06
3.6487e+06
3.61767e+06
3.58649e+06
3.55517e+06
3.52372e+06
3.49213e+06
3.46042e+06
3.42858e+06
3.39661e+06
3.36453e+06
3.33233e+06
3.30001e+06
3.26759e+06
3.23505e+06
3.20241e+06
3.16967e+06
3.13683e+06
3.10389e+06
3.07086e+06
3.03773e+06
3.00452e+06
2.97123e+06
2.93785e+06
2.90439e+06
2.87086e+06
2.83726e+06
2.80359e+06
2.76985e+06
2.73605e+06
2.70219e+06
2.66827e+06
2.6343e+06
2.60029e+06
2.56622e+06
2.53212e+06
2.49797e+06
2.4638e+06
2.42958e+06
2.39535e+06
2.36109e+06
2.32681e+06
2.29251e+06
2.2582e+06
2.22389e+06
2.18957e+06
2.15525e+06
2.12094e+06
2.08664e+06
2.05235e+06
2.01809e+06
1.98385e+06
1.94963e+06
1.91545e+06
1.88131e+06
1.84722e+06
1.81317e+06
1.77918e+06
1.74525e+06
1.71139e+06
1.6776e+06
1.64388e+06
1.61025e+06
1.57671e+06
1.54327e+06
1.50993e+06
1.4767e+06
1.44358e+06
1.41058e+06
1.37772e+06
1.34499e+06
1.31241e+06
1.27998e+06
1.2477e+06
1.2156e+06
1.18367e+06
1.15192e+06
1.12037e+06
1.08902e+06
1.05788e+06
1.02696e+06
996276
965834
935647
905728
876093
846758
817740
789063
760751
732833
705337
678266
5.30613e+06
5.30565e+06
5.3047e+06
5.30327e+06
5.30137e+06
5.29897e+06
5.29607e+06
5.29267e+06
5.28875e+06
5.28433e+06
5.27938e+06
5.27392e+06
5.26794e+06
5.26143e+06
5.2544e+06
5.24684e+06
5.23877e+06
5.23017e+06
5.22106e+06
5.21144e+06
5.2013e+06
5.19066e+06
5.17951e+06
5.16787e+06
5.15574e+06
5.14312e+06
5.13002e+06
5.11645e+06
5.10241e+06
5.08791e+06
5.07295e+06
5.05755e+06
5.04171e+06
5.02543e+06
5.00873e+06
4.99161e+06
4.97408e+06
4.95615e+06
4.93781e+06
4.91909e+06
4.89998e+06
4.8805e+06
4.86065e+06
4.84043e+06
4.81986e+06
4.79893e+06
4.77767e+06
4.75607e+06
4.73413e+06
4.71188e+06
4.6893e+06
4.66642e+06
4.64323e+06
4.61974e+06
4.59596e+06
4.57189e+06
4.54753e+06
4.52291e+06
4.49801e+06
4.47285e+06
4.44743e+06
4.42176e+06
4.39583e+06
4.36967e+06
4.34326e+06
4.31662e+06
4.28976e+06
4.26266e+06
4.23535e+06
4.20782e+06
4.18007e+06
4.15212e+06
4.12397e+06
4.09561e+06
4.06707e+06
4.03832e+06
4.0094e+06
3.98028e+06
3.95099e+06
3.92152e+06
3.89187e+06
3.86206e+06
3.83208e+06
3.80194e+06
3.77164e+06
3.74118e+06
3.71057e+06
3.67981e+06
3.6489e+06
3.61785e+06
3.58665e+06
3.55533e+06
3.52386e+06
3.49227e+06
3.46054e+06
3.42869e+06
3.39672e+06
3.36463e+06
3.33242e+06
3.3001e+06
3.26767e+06
3.23513e+06
3.20248e+06
3.16973e+06
3.13689e+06
3.10394e+06
3.07091e+06
3.03778e+06
3.00456e+06
2.97126e+06
2.93788e+06
2.90443e+06
2.87089e+06
2.83729e+06
2.80361e+06
2.76987e+06
2.73607e+06
2.70221e+06
2.66829e+06
2.63432e+06
2.6003e+06
2.56624e+06
2.53213e+06
2.49798e+06
2.4638e+06
2.42959e+06
2.39536e+06
2.36109e+06
2.32681e+06
2.29252e+06
2.25821e+06
2.22389e+06
2.18957e+06
2.15526e+06
2.12094e+06
2.08664e+06
2.05236e+06
2.01809e+06
1.98385e+06
1.94963e+06
1.91546e+06
1.88132e+06
1.84722e+06
1.81318e+06
1.77918e+06
1.74525e+06
1.71139e+06
1.6776e+06
1.64389e+06
1.61026e+06
1.57671e+06
1.54327e+06
1.50993e+06
1.4767e+06
1.44358e+06
1.41058e+06
1.37772e+06
1.34499e+06
1.31241e+06
1.27998e+06
1.2477e+06
1.2156e+06
1.18367e+06
1.15192e+06
1.12036e+06
1.08901e+06
1.05787e+06
1.02695e+06
996261
965815
935622
905697
876052
846704
817669
788966
760617
732643
705058
677851
5.318e+06
5.31749e+06
5.3165e+06
5.31501e+06
5.31302e+06
5.31053e+06
5.30752e+06
5.30399e+06
5.29994e+06
5.29535e+06
5.29024e+06
5.28459e+06
5.27841e+06
5.27169e+06
5.26444e+06
5.25666e+06
5.24835e+06
5.23952e+06
5.23016e+06
5.22028e+06
5.20989e+06
5.19899e+06
5.18758e+06
5.17568e+06
5.16329e+06
5.15041e+06
5.13706e+06
5.12323e+06
5.10894e+06
5.0942e+06
5.079e+06
5.06336e+06
5.04729e+06
5.03078e+06
5.01386e+06
4.99653e+06
4.97878e+06
4.96064e+06
4.94211e+06
4.9232e+06
4.9039e+06
4.88424e+06
4.86421e+06
4.84383e+06
4.82309e+06
4.80202e+06
4.7806e+06
4.75886e+06
4.73679e+06
4.7144e+06
4.69169e+06
4.66869e+06
4.64538e+06
4.62178e+06
4.59789e+06
4.57371e+06
4.54926e+06
4.52454e+06
4.49956e+06
4.47431e+06
4.44881e+06
4.42306e+06
4.39707e+06
4.37083e+06
4.34436e+06
4.31766e+06
4.29073e+06
4.26358e+06
4.23621e+06
4.20863e+06
4.18084e+06
4.15284e+06
4.12464e+06
4.09625e+06
4.06766e+06
4.03888e+06
4.00992e+06
3.98077e+06
3.95145e+06
3.92195e+06
3.89228e+06
3.86244e+06
3.83243e+06
3.80227e+06
3.77194e+06
3.74147e+06
3.71083e+06
3.68006e+06
3.64913e+06
3.61806e+06
3.58686e+06
3.55551e+06
3.52404e+06
3.49243e+06
3.46069e+06
3.42883e+06
3.39685e+06
3.36475e+06
3.33253e+06
3.3002e+06
3.26776e+06
3.23521e+06
3.20256e+06
3.16981e+06
3.13695e+06
3.10401e+06
3.07096e+06
3.03783e+06
3.00461e+06
2.97131e+06
2.93793e+06
2.90446e+06
2.87093e+06
2.83732e+06
2.80364e+06
2.7699e+06
2.73609e+06
2.70223e+06
2.66831e+06
2.63434e+06
2.60032e+06
2.56625e+06
2.53214e+06
2.498e+06
2.46382e+06
2.4296e+06
2.39536e+06
2.3611e+06
2.32682e+06
2.29252e+06
2.25821e+06
2.2239e+06
2.18958e+06
2.15526e+06
2.12095e+06
2.08665e+06
2.05236e+06
2.01809e+06
1.98385e+06
1.94964e+06
1.91546e+06
1.88132e+06
1.84722e+06
1.81318e+06
1.77919e+06
1.74526e+06
1.71139e+06
1.6776e+06
1.64389e+06
1.61026e+06
1.57672e+06
1.54327e+06
1.50993e+06
1.4767e+06
1.44358e+06
1.41058e+06
1.37772e+06
1.34499e+06
1.31241e+06
1.27997e+06
1.2477e+06
1.21559e+06
1.18366e+06
1.15191e+06
1.12036e+06
1.089e+06
1.05786e+06
1.02694e+06
996244
965793
935594
905660
876005
846642
817587
788857
760469
732436
704767
677441
5.33204e+06
5.3315e+06
5.33045e+06
5.32889e+06
5.3268e+06
5.32419e+06
5.32105e+06
5.31736e+06
5.31313e+06
5.30835e+06
5.30302e+06
5.29715e+06
5.29073e+06
5.28376e+06
5.27624e+06
5.26819e+06
5.25959e+06
5.25046e+06
5.24081e+06
5.23063e+06
5.21993e+06
5.20872e+06
5.19701e+06
5.1848e+06
5.1721e+06
5.15891e+06
5.14526e+06
5.13113e+06
5.11654e+06
5.10151e+06
5.08602e+06
5.0701e+06
5.05376e+06
5.03699e+06
5.01981e+06
5.00222e+06
4.98423e+06
4.96585e+06
4.94709e+06
4.92795e+06
4.90844e+06
4.88857e+06
4.86834e+06
4.84776e+06
4.82684e+06
4.80558e+06
4.78399e+06
4.76208e+06
4.73985e+06
4.71731e+06
4.69446e+06
4.67131e+06
4.64786e+06
4.62413e+06
4.60012e+06
4.57582e+06
4.55126e+06
4.52643e+06
4.50134e+06
4.476e+06
4.45041e+06
4.42457e+06
4.39849e+06
4.37217e+06
4.34562e+06
4.31885e+06
4.29185e+06
4.26464e+06
4.2372e+06
4.20956e+06
4.18172e+06
4.15367e+06
4.12542e+06
4.09698e+06
4.06835e+06
4.03953e+06
4.01052e+06
3.98134e+06
3.95198e+06
3.92244e+06
3.89274e+06
3.86287e+06
3.83284e+06
3.80265e+06
3.7723e+06
3.7418e+06
3.71114e+06
3.68034e+06
3.6494e+06
3.61831e+06
3.58709e+06
3.55573e+06
3.52424e+06
3.49261e+06
3.46087e+06
3.42899e+06
3.397e+06
3.36489e+06
3.33266e+06
3.30032e+06
3.26787e+06
3.23531e+06
3.20265e+06
3.16989e+06
3.13703e+06
3.10408e+06
3.07103e+06
3.03789e+06
3.00467e+06
2.97136e+06
2.93797e+06
2.90451e+06
2.87097e+06
2.83735e+06
2.80367e+06
2.76993e+06
2.73612e+06
2.70225e+06
2.66833e+06
2.63436e+06
2.60034e+06
2.56627e+06
2.53216e+06
2.49801e+06
2.46383e+06
2.42962e+06
2.39537e+06
2.36111e+06
2.32683e+06
2.29253e+06
2.25822e+06
2.2239e+06
2.18958e+06
2.15526e+06
2.12095e+06
2.08665e+06
2.05236e+06
2.0181e+06
1.98385e+06
1.94964e+06
1.91546e+06
1.88132e+06
1.84722e+06
1.81318e+06
1.77919e+06
1.74526e+06
1.71139e+06
1.6776e+06
1.64389e+06
1.61026e+06
1.57672e+06
1.54327e+06
1.50993e+06
1.4767e+06
1.44358e+06
1.41058e+06
1.37772e+06
1.34499e+06
1.31241e+06
1.27997e+06
1.2477e+06
1.21559e+06
1.18366e+06
1.15191e+06
1.12035e+06
1.08899e+06
1.05785e+06
1.02692e+06
996225
965768
935562
905619
875952
846573
817497
788738
760309
732220
704472
677043
5.34835e+06
5.34777e+06
5.34665e+06
5.345e+06
5.3428e+06
5.34005e+06
5.33673e+06
5.33285e+06
5.32841e+06
5.32339e+06
5.31781e+06
5.31166e+06
5.30495e+06
5.29767e+06
5.28984e+06
5.28145e+06
5.27252e+06
5.26304e+06
5.25303e+06
5.24249e+06
5.23143e+06
5.21986e+06
5.20778e+06
5.19521e+06
5.18215e+06
5.16861e+06
5.1546e+06
5.14012e+06
5.12519e+06
5.10982e+06
5.09401e+06
5.07777e+06
5.06111e+06
5.04403e+06
5.02655e+06
5.00867e+06
4.9904e+06
4.97175e+06
4.95272e+06
4.93333e+06
4.91357e+06
4.89346e+06
4.87301e+06
4.85221e+06
4.83108e+06
4.80962e+06
4.78783e+06
4.76573e+06
4.74332e+06
4.7206e+06
4.69759e+06
4.67427e+06
4.65068e+06
4.6268e+06
4.60264e+06
4.57821e+06
4.55352e+06
4.52857e+06
4.50336e+06
4.47791e+06
4.45221e+06
4.42627e+06
4.40009e+06
4.37369e+06
4.34705e+06
4.32019e+06
4.29312e+06
4.26583e+06
4.23833e+06
4.21062e+06
4.18271e+06
4.1546e+06
4.1263e+06
4.09781e+06
4.06912e+06
4.04025e+06
4.0112e+06
3.98198e+06
3.95258e+06
3.92301e+06
3.89327e+06
3.86336e+06
3.8333e+06
3.80308e+06
3.7727e+06
3.74217e+06
3.71149e+06
3.68067e+06
3.6497e+06
3.61859e+06
3.58735e+06
3.55597e+06
3.52446e+06
3.49282e+06
3.46106e+06
3.42917e+06
3.39717e+06
3.36504e+06
3.3328e+06
3.30045e+06
3.26799e+06
3.23543e+06
3.20276e+06
3.16999e+06
3.13712e+06
3.10416e+06
3.07111e+06
3.03796e+06
3.00473e+06
2.97142e+06
2.93803e+06
2.90456e+06
2.87101e+06
2.8374e+06
2.80371e+06
2.76996e+06
2.73615e+06
2.70228e+06
2.66836e+06
2.63438e+06
2.60036e+06
2.56629e+06
2.53218e+06
2.49803e+06
2.46384e+06
2.42963e+06
2.39539e+06
2.36112e+06
2.32684e+06
2.29254e+06
2.25823e+06
2.22391e+06
2.18959e+06
2.15527e+06
2.12096e+06
2.08665e+06
2.05237e+06
2.0181e+06
1.98386e+06
1.94964e+06
1.91546e+06
1.88132e+06
1.84723e+06
1.81318e+06
1.77919e+06
1.74526e+06
1.7114e+06
1.6776e+06
1.64389e+06
1.61026e+06
1.57672e+06
1.54327e+06
1.50993e+06
1.4767e+06
1.44358e+06
1.41058e+06
1.37772e+06
1.34499e+06
1.3124e+06
1.27997e+06
1.24769e+06
1.21559e+06
1.18365e+06
1.1519e+06
1.12034e+06
1.08898e+06
1.05784e+06
1.0269e+06
996203
965740
935527
905575
875895
846499
817401
788612
760142
731999
704178
676659
5.36706e+06
5.36643e+06
5.36524e+06
5.36347e+06
5.36112e+06
5.35819e+06
5.35467e+06
5.35056e+06
5.34586e+06
5.34056e+06
5.33467e+06
5.32819e+06
5.32113e+06
5.31348e+06
5.30527e+06
5.29649e+06
5.28715e+06
5.27727e+06
5.26684e+06
5.25588e+06
5.2444e+06
5.2324e+06
5.21991e+06
5.20691e+06
5.19344e+06
5.17949e+06
5.16507e+06
5.1502e+06
5.13488e+06
5.11912e+06
5.10293e+06
5.08633e+06
5.06931e+06
5.05188e+06
5.03407e+06
5.01586e+06
4.99728e+06
4.97832e+06
4.959e+06
4.93932e+06
4.91929e+06
4.89891e+06
4.8782e+06
4.85716e+06
4.83579e+06
4.8141e+06
4.7921e+06
4.76979e+06
4.74718e+06
4.72426e+06
4.70106e+06
4.67757e+06
4.6538e+06
4.62975e+06
4.60544e+06
4.58086e+06
4.55603e+06
4.53094e+06
4.5056e+06
4.48002e+06
4.45421e+06
4.42816e+06
4.40187e+06
4.37537e+06
4.34864e+06
4.32169e+06
4.29453e+06
4.26716e+06
4.23958e+06
4.2118e+06
4.18382e+06
4.15564e+06
4.12728e+06
4.09872e+06
4.06998e+06
4.04106e+06
4.01196e+06
3.98269e+06
3.95324e+06
3.92363e+06
3.89385e+06
3.86391e+06
3.83381e+06
3.80355e+06
3.77314e+06
3.74258e+06
3.71188e+06
3.68103e+06
3.65004e+06
3.61891e+06
3.58764e+06
3.55624e+06
3.52472e+06
3.49306e+06
3.46128e+06
3.42938e+06
3.39735e+06
3.36522e+06
3.33296e+06
3.3006e+06
3.26813e+06
3.23556e+06
3.20288e+06
3.1701e+06
3.13722e+06
3.10425e+06
3.07119e+06
3.03804e+06
3.0048e+06
2.97149e+06
2.93809e+06
2.90461e+06
2.87106e+06
2.83744e+06
2.80375e+06
2.77e+06
2.73619e+06
2.70232e+06
2.66839e+06
2.63441e+06
2.60038e+06
2.56631e+06
2.5322e+06
2.49805e+06
2.46386e+06
2.42964e+06
2.3954e+06
2.36113e+06
2.32685e+06
2.29255e+06
2.25824e+06
2.22392e+06
2.1896e+06
2.15528e+06
2.12096e+06
2.08666e+06
2.05237e+06
2.0181e+06
1.98386e+06
1.94965e+06
1.91547e+06
1.88133e+06
1.84723e+06
1.81318e+06
1.77919e+06
1.74526e+06
1.7114e+06
1.67761e+06
1.64389e+06
1.61026e+06
1.57672e+06
1.54327e+06
1.50993e+06
1.4767e+06
1.44358e+06
1.41058e+06
1.37772e+06
1.34499e+06
1.3124e+06
1.27997e+06
1.24769e+06
1.21558e+06
1.18365e+06
1.1519e+06
1.12033e+06
1.08897e+06
1.05782e+06
1.02689e+06
996180
965711
935490
905527
875834
846421
817300
788481
759972
731776
703890
676292
5.38832e+06
5.38763e+06
5.38634e+06
5.38443e+06
5.38191e+06
5.37877e+06
5.375e+06
5.3706e+06
5.36558e+06
5.35994e+06
5.35368e+06
5.3468e+06
5.33932e+06
5.33125e+06
5.32258e+06
5.31334e+06
5.30353e+06
5.29316e+06
5.28225e+06
5.27081e+06
5.25884e+06
5.24635e+06
5.23337e+06
5.2199e+06
5.20595e+06
5.19153e+06
5.17665e+06
5.16133e+06
5.14557e+06
5.12938e+06
5.11277e+06
5.09576e+06
5.07834e+06
5.06053e+06
5.04234e+06
5.02377e+06
5.00483e+06
4.98554e+06
4.96589e+06
4.94589e+06
4.92556e+06
4.90489e+06
4.8839e+06
4.86259e+06
4.84096e+06
4.81902e+06
4.79678e+06
4.77424e+06
4.7514e+06
4.72828e+06
4.70487e+06
4.68118e+06
4.65722e+06
4.63299e+06
4.60851e+06
4.58376e+06
4.55877e+06
4.53353e+06
4.50805e+06
4.48234e+06
4.4564e+06
4.43022e+06
4.40382e+06
4.37721e+06
4.35037e+06
4.32333e+06
4.29607e+06
4.26861e+06
4.24095e+06
4.21308e+06
4.18503e+06
4.15678e+06
4.12835e+06
4.09973e+06
4.07093e+06
4.04195e+06
4.01279e+06
3.98347e+06
3.95397e+06
3.92431e+06
3.89449e+06
3.86451e+06
3.83437e+06
3.80407e+06
3.77363e+06
3.74304e+06
3.7123e+06
3.68142e+06
3.65041e+06
3.61925e+06
3.58796e+06
3.55654e+06
3.52499e+06
3.49332e+06
3.46152e+06
3.4296e+06
3.39756e+06
3.36541e+06
3.33314e+06
3.30077e+06
3.26828e+06
3.23569e+06
3.203e+06
3.17022e+06
3.13733e+06
3.10435e+06
3.07128e+06
3.03812e+06
3.00488e+06
2.97156e+06
2.93815e+06
2.90467e+06
2.87112e+06
2.83749e+06
2.8038e+06
2.77004e+06
2.73623e+06
2.70235e+06
2.66842e+06
2.63444e+06
2.60041e+06
2.56633e+06
2.53222e+06
2.49807e+06
2.46388e+06
2.42966e+06
2.39541e+06
2.36115e+06
2.32686e+06
2.29256e+06
2.25825e+06
2.22393e+06
2.1896e+06
2.15528e+06
2.12097e+06
2.08667e+06
2.05238e+06
2.01811e+06
1.98386e+06
1.94965e+06
1.91547e+06
1.88133e+06
1.84723e+06
1.81319e+06
1.7792e+06
1.74526e+06
1.7114e+06
1.67761e+06
1.64389e+06
1.61026e+06
1.57672e+06
1.54327e+06
1.50993e+06
1.4767e+06
1.44358e+06
1.41058e+06
1.37772e+06
1.34499e+06
1.3124e+06
1.27997e+06
1.24769e+06
1.21558e+06
1.18364e+06
1.15189e+06
1.12033e+06
1.08896e+06
1.05781e+06
1.02687e+06
996156
965681
935451
905478
875771
846341
817197
788348
759800
731556
703610
675943