/*--------------------------------*- C++ -*----------------------------------*\
  =========                 |
  \\      /  F ield         | OpenFOAM: The Open Source CFD Toolbox
   \\    /   O peration     | Website:  https://openfoam.org
    \\  /    A nd           | Version:  7
     \\/     M anipulation  |
\*---------------------------------------------------------------------------*/
FoamFile
{
    version     2.0;
    format      ascii;
    class       volScalarField;
    location    "0.044";
    object      s;
}
// * * * * * * * * * * * * * * * * * * * * * * * * * * * * * * * * * * * * * //

dimensions      [0 0 0 0 0 0 0];

internalField   nonuniform List<scalar> 
12225
(
1
1
1
1
1
1
1
1
1
1
1
1
1
1
1
1
1
1
1
1
1
1
1
1
1
1
1
1
1
1
1
1
1
1
1
1
1
1
1
1
1
1
1
1
1
1
1
1
1
1
1
1
1
1
1
1
1
1
1
1
1
1
1
1
1
1
1
1
1
1
1
1
1
1
1
1
1
1
1
1
1
1
1
1
1
1
1
1
1
1
1
1
1
1
1
1
1
1
1
1
1
1
1
1
1
1
1
1
1
1
1
1
1
1
1
1
1
1
1
1
1
1
1
1
1
1
1
1
1
1
1
1
1
1
1
1
1
1
1
1
1
1
1
1
1
1
1
1
1
1
1
1
1
1
1
1
1
1
1
1
1
1
1
1
1
1
1
1
1
1
1
1
1
1
1
1
1
1
1
1
1
1
1
1
1
1
1
1
1
1
1
1
1
1
1
1
1
1
1
1
1
1
1
1
1
1
1
1
1
1
1
1
1
1
1
1
1
1
1
1
1
1
1
1
1
1
1
1
1
1
1
1
1
1
1
1
1
1
1
1
1
1
1
1
1
1
1
1
1
1
1
1
1
1
1
1
1
1
1
1
1
1
1
1
1
1
1
1
1
1
1
1
1
1
1
1
1
1
1
1
1
1
1
1
1
1
1
1
1
1
1
1
1
1
1
1
1
1
1
1
1
1
1
1
1
1
1
1
1
1
1
1
1
1
1
1
1
1
1
1
1
1
1
1
1
1
1
1
1
1
1
1
1
1
1
1
1
1
1
1
1
1
1
1
1
1
1
1
1
1
1
1
1
1
1
1
1
1
1
1
1
1
1
1
1
1
1
1
1
1
1
1
1
1
1
1
1
1
1
1
1
1
1
1
1
1
1
1
1
1
1
1
1
1
1
1
1
1
1
1
1
1
1
1
1
1
1
1
1
1
1
1
1
1
1
1
1
1
1
1
1
1
1
1
1
1
1
1
1
1
1
1
1
1
1
1
1
1
1
1
1
1
1
1
1
1
1
1
1
1
1
1
1
1
1
1
1
1
1
1
1
1
1
1
1
1
1
1
1
1
1
1
1
1
1
1
1
1
1
1
1
1
1
1
1
1
1
1
1
1
1
1
1
1
1
1
1
1
1
1
1
1
1
1
1
1
1
1
1
1
1
1
1
1
1
1
1
1
1
1
1
1
1
1
1
1
1
1
1
1
1
1
1
1
1
1
1
1
1
1
2.64075e-09
1.12697e-07
7.9452e-07
3.13596e-06
9.3008e-06
2.31126e-05
5.16927e-05
0.000107401
0.000211168
0.000380035
0.000631768
0.000855923
0.00119236
0.00139651
0.00161626
0.00166247
0.0016202
0.00150548
0.00128393
0.00108629
0.000910945
0.000752813
0.000608815
0.000475488
0.000353731
0.000239374
0.000143931
6.92301e-05
2.25381e-05
3.35082e-05
0.000435657
0.00411491
0.00518025
0.00716778
0.0652131
0.330756
0.405295
0.405233
0.400312
0.394672
0.393351
0.393254
0.393936
0.3965
0.402098
0.411268
0.42332
0.436698
0.450394
0.464898
0.481254
0.49934
0.517907
0.536226
0.554408
0.570397
0.580105
0.587783
0.591084
0.59245
0.592564
0.588935
0.578391
0.563731
0.548666
0.533269
0.51703
0.499744
0.483425
0.469686
0.458645
0.448992
0.439883
0.433225
0.428278
0.421791
0.413936
0.405975
0.39565
0.38224
0.365916
0.346786
0.325003
0.299908
0.272994
0.244044
0.214229
0.184505
0.156031
0.130376
0.109059
0.0901841
0.0728351
0.05735
0.0439779
0.0328558
0.0239667
0.0171007
0.0118918
0.00801599
0.00523393
0.00331219
0.002031
0.00120539
0.000692019
0.000384328
0.000206531
0.00010743
5.41143e-05
2.64074e-05
1.24864e-05
5.71899e-06
2.53501e-06
1.08528e-06
4.47159e-07
1.76395e-07
6.59997e-08
2.30797e-08
7.2637e-09
2.10308e-09
5.86904e-10
1.58012e-10
4.136e-11
9.9748e-12
2.21845e-12
8.28654e-13
3.00848e-13
1.0456e-13
3.51243e-14
1.15467e-14
3.73918e-15
1.19381e-15
3.75124e-16
1.15805e-16
3.50961e-17
1.04429e-17
3.0524e-18
8.76846e-19
2.47631e-19
6.87633e-20
1.87762e-20
5.04176e-21
1.33142e-21
3.45823e-22
8.83599e-23
2.22112e-23
5.49359e-24
1.33707e-24
3.20268e-25
7.55038e-26
1.75207e-26
4.00198e-27
8.99757e-28
1.99093e-28
4.3348e-29
9.28356e-30
1.95469e-30
4.04367e-31
8.21244e-32
1.63599e-32
3.19373e-33
6.10399e-34
1.14118e-34
2.08546e-35
3.72323e-36
6.49195e-37
1.10549e-37
1.83886e-38
2.98951e-39
4.75335e-40
7.39906e-41
1.12833e-41
1.68735e-42
2.47351e-43
3.55526e-44
4.991e-45
6.83627e-46
9.01718e-47
1.14375e-47
-1.67849e-48
5.80818e-08
1.36429e-06
9.43483e-06
3.9316e-05
0.000123416
0.000320465
0.00073494
0.00158286
0.00306916
0.00535511
0.00786667
0.0104065
0.0133026
0.0149398
0.0163213
0.0162447
0.0158599
0.0148817
0.0128459
0.0103433
0.00776994
0.00543691
0.00354448
0.00217368
0.00125692
0.000654043
0.000356008
0.000196581
6.88477e-05
5.80939e-05
0.000794113
0.0202834
0.103832
0.248558
0.354412
0.433678
0.472433
0.50216
0.542779
0.59152
0.635842
0.677788
0.716307
0.753226
0.786724
0.819991
0.847442
0.875358
0.893951
0.916157
0.92743
0.941019
0.947315
0.951207
0.952483
0.952769
0.953312
0.953896
0.955154
0.956922
0.958493
0.960453
0.962582
0.963861
0.965341
0.966019
0.966176
0.96482
0.961896
0.960124
0.958535
0.956667
0.95496
0.95341
0.952304
0.951204
0.949363
0.9473
0.944044
0.940183
0.934854
0.9276
0.918119
0.906229
0.890771
0.871509
0.84735
0.817398
0.780417
0.735233
0.680631
0.618712
0.551412
0.479713
0.405349
0.331104
0.261214
0.201277
0.154558
0.115701
0.0837253
0.0587367
0.0401383
0.0267095
0.0172686
0.0108538
0.00663866
0.00395454
0.0022964
0.00130137
0.000720452
0.000389993
0.000206569
0.000107107
5.43729e-05
2.70213e-05
1.31411e-05
6.25041e-06
2.90599e-06
1.31969e-06
5.85002e-07
2.53026e-07
1.06761e-07
4.39436e-08
1.76469e-08
6.91578e-09
2.64577e-09
9.8842e-10
3.60686e-10
1.28588e-10
4.47928e-11
1.52464e-11
5.07009e-12
1.64668e-12
5.22136e-13
1.61587e-13
4.87798e-14
1.43476e-14
4.11296e-15
1.15632e-15
3.19306e-16
8.65839e-17
2.30534e-17
6.02668e-18
1.54684e-18
3.89774e-19
9.64201e-20
2.34152e-20
5.58207e-21
1.30635e-21
3.00121e-22
6.76885e-23
1.49875e-23
3.25804e-24
6.95379e-25
1.4573e-25
2.99893e-26
6.06046e-27
1.20281e-27
2.34461e-28
4.4891e-29
8.44282e-30
1.55983e-30
2.83105e-31
5.0478e-32
8.8418e-33
1.52139e-33
2.57144e-34
4.26848e-35
6.95792e-36
1.1133e-36
1.74819e-37
2.6915e-38
4.06208e-39
5.99628e-40
8.65854e-41
1.21626e-41
1.66412e-42
2.22073e-43
-1.41869e-45
4.57876e-07
8.68727e-06
6.16338e-05
0.000269512
0.000875621
0.00231624
0.00540703
0.0114394
0.0212033
0.0330231
0.043939
0.0545555
0.0618307
0.0669385
0.0682657
0.0658342
0.0601075
0.0512716
0.0433516
0.0357834
0.0284868
0.021341
0.0148361
0.00947971
0.00538099
0.00258548
0.000946689
0.000286012
0.000420007
0.0163832
0.100195
0.250854
0.418569
0.52702
0.590901
0.664579
0.721708
0.787875
0.834377
0.861679
0.8927
0.908422
0.925249
0.9337
0.942687
0.946781
0.948802
0.949449
0.948611
0.944653
0.939723
0.933722
0.925105
0.916721
0.908355
0.904499
0.902886
0.902854
0.907935
0.917538
0.926774
0.938591
0.949803
0.958195
0.966017
0.974196
0.980068
0.984139
0.986176
0.988114
0.989772
0.990526
0.991302
0.991784
0.992209
0.993077
0.993669
0.994135
0.994412
0.995103
0.995722
0.995984
0.996196
0.996495
0.996071
0.995395
0.994119
0.992167
0.98926
0.985005
0.978856
0.969995
0.957279
0.939072
0.913105
0.876264
0.824353
0.752512
0.659307
0.553558
0.442249
0.334889
0.244047
0.175578
0.122457
0.082656
0.0542391
0.0346251
0.0215166
0.0130326
0.00770362
0.00444884
0.0025124
0.00138839
0.000751058
0.000397755
0.000206189
0.000104585
5.18842e-05
2.51631e-05
1.19257e-05
5.52137e-06
2.4968e-06
1.10279e-06
4.75811e-07
2.00589e-07
8.26487e-08
3.32934e-08
1.31159e-08
5.05445e-09
1.9058e-09
7.03214e-10
2.53951e-10
8.97612e-11
3.10543e-11
1.05162e-11
3.48575e-12
1.13086e-12
3.5906e-13
1.11564e-13
3.39203e-14
1.00922e-14
2.93848e-15
8.37329e-16
2.33527e-16
6.37478e-17
1.70363e-17
4.46551e-18
1.15056e-18
2.91366e-19
7.25125e-20
1.77337e-20
4.26156e-21
1.00624e-21
2.33444e-22
5.32105e-23
1.19163e-23
2.62185e-24
5.66767e-25
1.20374e-25
2.5119e-26
5.15016e-27
1.03751e-27
2.05367e-28
3.9942e-29
7.63303e-30
1.43321e-30
2.64403e-31
4.79178e-32
8.53105e-33
1.49144e-33
2.56061e-34
4.31305e-35
7.1303e-36
1.15418e-36
1.83195e-37
2.83444e-38
4.29418e-39
6.27999e-40
8.84291e-41
2.00899e-06
3.79949e-05
0.000279357
0.00125398
0.00410893
0.010856
0.0252564
0.0508825
0.0847351
0.115003
0.13712
0.150886
0.15106
0.142294
0.119407
0.0953624
0.0762739
0.058869
0.0474999
0.0385689
0.0294835
0.0213564
0.0147234
0.00934972
0.00506945
0.00216966
0.000957366
0.00481789
0.0460247
0.17315
0.435266
0.579545
0.688627
0.746821
0.809301
0.846757
0.882953
0.901296
0.915462
0.922273
0.92717
0.928818
0.929259
0.927407
0.920557
0.907501
0.888079
0.862516
0.829027
0.788799
0.75033
0.718191
0.687575
0.666115
0.655449
0.650067
0.648414
0.652325
0.671174
0.696513
0.729802
0.775466
0.817612
0.855215
0.876231
0.900974
0.920146
0.93714
0.949365
0.955534
0.96213
0.965869
0.968716
0.971136
0.972781
0.977058
0.980876
0.983445
0.984731
0.98766
0.992085
0.994227
0.995594
0.99743
0.998154
0.998832
0.999176
0.999379
0.99948
0.99952
0.999442
0.99921
0.998763
0.99797
0.996596
0.994241
0.990217
0.983343
0.971518
0.951046
0.915715
0.856108
0.76208
0.634496
0.493186
0.35952
0.253233
0.174131
0.115981
0.0750718
0.0472976
0.0290377
0.0173912
0.0101697
0.00580933
0.00324251
0.0017683
0.000941978
0.000489978
0.000248768
0.000123238
5.95555e-05
2.80721e-05
1.2907e-05
5.78967e-06
2.53438e-06
1.083e-06
4.51938e-07
1.84237e-07
7.33947e-08
2.85807e-08
1.0882e-08
4.05187e-09
1.47565e-09
5.25712e-10
1.83226e-10
6.2479e-11
2.08451e-11
6.80477e-12
2.1736e-12
6.79401e-13
2.07814e-13
6.22105e-14
1.82275e-14
5.22772e-15
1.4678e-15
4.03507e-16
1.08615e-16
2.86292e-17
7.39085e-18
1.87052e-18
4.65077e-19
1.13612e-19
2.72675e-20
6.42953e-21
1.48943e-21
3.38979e-22
7.57938e-23
1.66497e-23
3.59335e-24
7.61933e-25
1.58733e-25
3.24902e-26
6.53407e-27
1.29109e-27
2.50659e-28
4.78121e-29
8.96042e-30
1.64964e-30
2.98356e-31
5.29904e-32
9.24332e-33
1.5821e-33
2.65823e-34
4.37518e-35
7.06304e-36
1.113e-36
1.71796e-37
2.57032e-38
3.73846e-39
6.11503e-06
0.000121776
0.000918338
0.00417454
0.013684
0.0359655
0.0816997
0.151326
0.213412
0.245916
0.252542
0.241345
0.208527
0.162051
0.117514
0.0781651
0.0505992
0.0335033
0.0227649
0.0200694
0.0176919
0.0136674
0.00953144
0.00615543
0.00386775
0.00447642
0.0193955
0.0845396
0.266051
0.560089
0.700399
0.775114
0.831127
0.858843
0.883533
0.894258
0.903694
0.907712
0.909452
0.905123
0.89453
0.874075
0.843036
0.793982
0.744017
0.693968
0.646823
0.60692
0.575713
0.560333
0.546826
0.538786
0.533947
0.532286
0.531942
0.532042
0.532315
0.532595
0.533916
0.538424
0.547129
0.561465
0.591813
0.637513
0.70234
0.750966
0.785259
0.809542
0.835867
0.856228
0.865966
0.879159
0.886302
0.89559
0.901689
0.916624
0.931073
0.942843
0.948528
0.956272
0.96893
0.978175
0.983072
0.990282
0.99342
0.996175
0.997755
0.998748
0.999312
0.999611
0.999771
0.999855
0.999897
0.999916
0.999917
0.99989
0.999805
0.99962
0.999232
0.998409
0.996651
0.992867
0.984651
0.96662
0.926483
0.845781
0.717289
0.558695
0.403304
0.280039
0.189265
0.124092
0.0791078
0.0490882
0.0296723
0.0174792
0.0100354
0.00561489
0.00306077
0.0016251
0.000840208
0.000422949
0.000207293
9.8932e-05
4.59902e-05
2.08317e-05
9.1982e-06
3.96087e-06
1.66409e-06
6.82407e-07
2.73242e-07
1.06863e-07
4.08321e-08
1.52462e-08
5.56401e-09
1.98492e-09
6.92275e-10
2.36068e-10
7.87144e-11
2.56665e-11
8.18486e-12
2.55285e-12
7.7885e-13
2.32458e-13
6.78813e-14
1.93969e-14
5.42444e-15
1.48486e-15
3.97926e-16
1.04418e-16
2.68325e-17
6.75347e-18
1.66716e-18
4.04173e-19
9.62255e-20
2.24985e-20
5.16621e-21
1.1651e-21
2.58072e-22
5.6147e-23
1.19987e-23
2.51873e-24
5.19375e-25
1.05208e-25
2.09357e-26
4.09273e-27
7.85978e-28
1.48282e-28
2.74786e-29
5.00191e-30
8.94079e-31
1.56942e-31
2.70338e-32
4.57056e-33
7.5725e-34
1.23023e-34
1.95329e-35
3.03608e-36
4.59057e-37
6.75497e-38
1.46871e-05
0.000294357
0.00222438
0.0101564
0.0333362
0.0870535
0.193909
0.302671
0.345628
0.343801
0.327052
0.286028
0.223292
0.160513
0.105309
0.0618092
0.0339925
0.0195799
0.0142708
0.0120478
0.0105938
0.00942038
0.00876381
0.00946381
0.0182816
0.0524604
0.156621
0.417125
0.655143
0.768457
0.824315
0.854859
0.871435
0.879296
0.884186
0.886142
0.880062
0.8618
0.829308
0.779111
0.727046
0.674521
0.630676
0.600805
0.579838
0.565324
0.558025
0.554746
0.554014
0.556752
0.560293
0.566147
0.575114
0.580009
0.582453
0.583397
0.58244
0.575881
0.567563
0.556131
0.541617
0.531485
0.527002
0.528194
0.542804
0.559229
0.594825
0.624603
0.639087
0.656279
0.66647
0.679848
0.694014
0.708908
0.732071
0.771455
0.813155
0.857001
0.882443
0.896239
0.91712
0.942169
0.955964
0.973217
0.982474
0.989298
0.99352
0.996176
0.997809
0.998788
0.999353
0.999666
0.999831
0.999911
0.99995
0.999969
0.999979
0.999983
0.999982
0.999971
0.999932
0.999828
0.999554
0.998841
0.996972
0.992071
0.979218
0.94552
0.858619
0.708341
0.535136
0.377296
0.257915
0.170832
0.109786
0.0685185
0.0415455
0.0244759
0.0140094
0.00778956
0.00420712
0.00220722
0.00112503
0.000557283
0.000268387
0.000125732
5.7328e-05
2.54552e-05
1.10132e-05
4.64515e-06
1.91088e-06
7.66984e-07
3.00474e-07
1.14926e-07
4.29258e-08
1.56602e-08
5.58119e-09
1.94341e-09
6.61252e-10
2.19878e-10
7.14594e-11
2.27013e-11
7.05034e-12
2.1409e-12
6.35727e-13
1.8463e-13
5.24524e-14
1.45793e-14
3.96547e-15
1.05567e-15
2.7512e-16
7.02033e-17
1.75436e-17
4.29866e-18
1.03389e-18
2.44094e-19
5.65731e-20
1.28725e-20
2.87573e-21
6.30809e-22
1.35875e-22
2.87411e-23
5.97053e-24
1.21812e-24
2.44092e-25
4.80417e-26
9.28715e-27
1.76343e-27
3.28857e-28
6.02324e-29
1.08323e-29
1.91283e-30
3.31479e-31
5.63717e-32
9.39727e-33
1.53576e-33
2.45518e-34
3.84128e-35
5.86079e-36
8.71076e-37
2.99344e-05
0.000551848
0.0040857
0.0185425
0.0610672
0.158426
0.322574
0.409698
0.420873
0.42249
0.407838
0.363296
0.293019
0.208345
0.135106
0.0803993
0.0464241
0.0304836
0.0232102
0.0201994
0.0194486
0.0236709
0.0349888
0.0649345
0.138861
0.31059
0.55245
0.72395
0.803566
0.840488
0.857108
0.864514
0.86739
0.864351
0.848567
0.816481
0.759469
0.704982
0.654045
0.622419
0.598553
0.582663
0.575924
0.574107
0.575244
0.578976
0.591837
0.598116
0.609324
0.614892
0.619471
0.620754
0.620519
0.61926
0.619446
0.621784
0.624858
0.626607
0.628233
0.628613
0.624873
0.61705
0.597312
0.558828
0.532084
0.519181
0.51587
0.519945
0.522548
0.534705
0.539951
0.541508
0.536565
0.527987
0.525292
0.542703
0.585527
0.685253
0.772398
0.808585
0.826662
0.863567
0.902596
0.937684
0.962009
0.97763
0.986941
0.992319
0.995475
0.997366
0.9985
0.999172
0.999566
0.99978
0.999889
0.999945
0.999972
0.999985
0.999991
0.999994
0.999995
0.999995
0.99999
0.999971
0.99991
0.999717
0.99912
0.997297
0.991813
0.975559
0.928119
0.801865
0.621805
0.446268
0.307124
0.204356
0.131525
0.0819332
0.0494149
0.028858
0.0163211
0.0089417
0.00474728
0.00244372
0.00122045
0.000591768
0.000278787
0.000127703
5.69161e-05
2.46975e-05
1.04399e-05
4.30113e-06
1.72778e-06
6.76974e-07
2.58797e-07
9.65516e-08
3.51613e-08
1.25013e-08
4.34014e-09
1.47154e-09
4.87336e-10
1.57664e-10
4.98371e-11
1.53941e-11
4.64744e-12
1.37153e-12
3.9574e-13
1.11664e-13
3.08184e-14
8.32128e-15
2.19863e-15
5.6858e-16
1.43947e-16
3.56909e-17
8.67865e-18
2.07054e-18
4.84718e-19
1.11356e-19
2.51074e-20
5.55653e-21
1.20714e-21
2.57459e-22
5.39121e-23
1.10848e-23
2.23799e-24
4.43714e-25
8.63916e-26
1.65187e-26
3.10169e-27
5.71916e-28
1.03539e-28
1.84029e-29
3.21001e-30
5.49424e-31
9.22043e-32
1.51687e-32
2.44288e-33
3.85058e-34
5.92939e-35
8.906e-36
3.78098e-05
0.000687551
0.00514408
0.0235408
0.0771767
0.194125
0.377363
0.470174
0.491781
0.495197
0.490808
0.462197
0.400963
0.327129
0.248014
0.170566
0.119847
0.0950765
0.083572
0.0807541
0.0958566
0.130058
0.200645
0.340129
0.506891
0.673894
0.770724
0.820496
0.841992
0.850332
0.853275
0.849747
0.828994
0.783824
0.722679
0.663666
0.633495
0.59915
0.58276
0.574624
0.571693
0.572526
0.577049
0.584498
0.590111
0.594714
0.595955
0.596035
0.592993
0.578608
0.564425
0.549952
0.542784
0.540288
0.541484
0.551989
0.565371
0.57963
0.597723
0.617245
0.626982
0.633474
0.635415
0.630764
0.619176
0.581509
0.53126
0.507516
0.49531
0.48876
0.486963
0.496557
0.499125
0.486853
0.471806
0.463139
0.460506
0.493333
0.593272
0.680651
0.696479
0.710373
0.784711
0.859167
0.916727
0.95443
0.975881
0.987251
0.992997
0.995998
0.997681
0.998663
0.999239
0.99959
0.999791
0.999896
0.999948
0.999973
0.999987
0.999993
0.999996
0.999998
0.999999
0.999998
0.999997
0.999991
0.999968
0.999884
0.999589
0.998588
0.995276
0.984623
0.951206
0.849038
0.663088
0.47804
0.328907
0.217917
0.139135
0.0856689
0.0508981
0.0291964
0.0161813
0.00867173
0.00449787
0.00226014
0.00110132
0.000520886
0.000239334
0.000106915
4.64669e-05
1.96598e-05
8.1015e-06
3.25305e-06
1.27325e-06
4.85925e-07
1.80872e-07
6.56781e-08
2.32705e-08
8.04658e-09
2.7159e-09
8.94931e-10
2.8795e-10
9.04846e-11
2.77745e-11
8.32952e-12
2.4411e-12
6.99264e-13
1.95833e-13
5.36316e-14
1.43666e-14
3.76524e-15
9.65697e-16
2.42449e-16
5.96361e-17
1.43852e-17
3.40327e-18
7.89789e-19
1.79813e-19
4.01685e-20
8.80562e-21
1.8945e-21
4.00074e-22
8.29351e-23
1.68782e-23
3.37237e-24
6.61589e-25
1.27439e-25
2.41032e-26
4.47611e-27
8.16075e-28
1.46059e-28
2.5655e-29
4.42162e-30
7.47343e-31
1.23835e-31
2.00993e-32
3.194e-33
4.96493e-34
7.53867e-35
3.88358e-05
0.000725526
0.00548288
0.0252148
0.0826712
0.20692
0.400917
0.5183
0.54688
0.552766
0.551529
0.539266
0.511694
0.469742
0.425732
0.385365
0.337653
0.313232
0.304574
0.323589
0.375866
0.459388
0.560874
0.656944
0.7482
0.800652
0.826874
0.837514
0.840646
0.840288
0.822863
0.780542
0.707983
0.652625
0.613478
0.58901
0.574901
0.566087
0.563491
0.563757
0.569525
0.574212
0.580057
0.582401
0.582576
0.572755
0.548416
0.506671
0.454489
0.424883
0.403963
0.395869
0.393977
0.401825
0.415219
0.431914
0.450422
0.471751
0.49415
0.518389
0.553183
0.590599
0.61995
0.633779
0.638357
0.6379
0.617993
0.55475
0.508157
0.479964
0.462678
0.449695
0.444484
0.451095
0.451654
0.442153
0.433348
0.438319
0.476026
0.546751
0.563323
0.58225
0.648509
0.746762
0.835751
0.904219
0.949972
0.976082
0.989024
0.994679
0.997205
0.998446
0.999114
0.999489
0.999714
0.999849
0.999924
0.999963
0.999982
0.999991
0.999995
0.999998
0.999999
0.999999
1
0.999999
0.999999
0.999995
0.99998
0.99992
0.999697
0.998888
0.996068
0.986564
0.955415
0.855509
0.659793
0.470255
0.319985
0.20878
0.13083
0.0788344
0.0457328
0.0255729
0.0138016
0.00719841
0.00363287
0.00177617
0.000842186
0.00038765
0.000173358
7.53757e-05
3.18838e-05
1.31276e-05
5.26339e-06
2.05578e-06
7.82449e-07
2.90287e-07
1.05003e-07
3.70403e-08
1.27451e-08
4.27854e-09
1.4016e-09
4.4815e-10
1.3989e-10
4.26392e-11
1.26939e-11
3.69193e-12
1.04928e-12
2.91488e-13
7.917e-14
2.10294e-14
5.46431e-15
1.38933e-15
3.45849e-16
8.43791e-17
2.01813e-17
4.73271e-18
1.0884e-18
2.45507e-19
5.43251e-20
1.1794e-20
2.51252e-21
5.25288e-22
1.07788e-22
2.17108e-23
4.2928e-24
8.33285e-25
1.58797e-25
2.9709e-26
5.45635e-27
9.83679e-28
1.74043e-28
3.02152e-29
5.1452e-30
8.59082e-31
1.40569e-31
2.25302e-32
3.53583e-33
5.42769e-34
1.83203e-05
0.000457237
0.00400101
0.0203951
0.0721911
0.192754
0.395104
0.542922
0.594398
0.611727
0.615627
0.613317
0.600467
0.58485
0.564491
0.551986
0.546753
0.547267
0.556006
0.588413
0.639936
0.689645
0.748877
0.787508
0.816868
0.828871
0.833002
0.833674
0.824548
0.79575
0.726945
0.660286
0.617547
0.585739
0.567289
0.558477
0.554518
0.553315
0.556655
0.562523
0.568128
0.571579
0.572557
0.562897
0.535692
0.477576
0.416485
0.37238
0.34875
0.32899
0.319841
0.31638
0.317629
0.32978
0.346679
0.372851
0.397026
0.425951
0.450141
0.469061
0.489988
0.519212
0.555868
0.594867
0.629841
0.646371
0.651424
0.636287
0.576109
0.510631
0.468815
0.443972
0.427987
0.42208
0.423049
0.427123
0.42739
0.429765
0.448604
0.50006
0.525453
0.554905
0.616532
0.714805
0.807832
0.879487
0.929127
0.961417
0.980717
0.99118
0.996109
0.998195
0.999071
0.999479
0.999701
0.999834
0.999912
0.999955
0.999978
0.999989
0.999995
0.999998
0.999999
0.999999
1
1
1
1
0.999999
0.999995
0.99998
0.999916
0.99967
0.998756
0.995486
0.984166
0.945965
0.821469
0.611201
0.425372
0.282578
0.179577
0.109385
0.0639847
0.0360067
0.0195267
0.0102216
0.00517254
0.00253375
0.00120284
0.000553962
0.000247714
0.000107631
4.54682e-05
1.86849e-05
7.4727e-06
2.90962e-06
1.10335e-06
4.07604e-07
1.46734e-07
5.14871e-08
1.76138e-08
5.87619e-09
1.9122e-09
6.07119e-10
1.88116e-10
5.68989e-11
1.68045e-11
4.84743e-12
1.36611e-12
3.7625e-13
1.013e-13
2.66693e-14
6.86767e-15
1.73061e-15
4.27158e-16
1.03311e-16
2.44881e-17
5.68997e-18
1.29627e-18
2.89596e-19
6.3457e-20
1.36403e-20
2.87671e-21
5.95319e-22
1.20903e-22
2.40993e-23
4.71503e-24
9.05519e-25
1.70708e-25
3.15898e-26
5.73783e-27
1.02283e-27
1.78914e-28
3.07016e-29
5.16681e-30
8.52487e-31
1.37845e-31
2.18421e-32
3.38943e-33
9.08083e-06
0.000192311
0.00209568
0.0124038
0.0490502
0.143994
0.331239
0.541846
0.615365
0.643781
0.6649
0.676396
0.674812
0.666863
0.664761
0.666215
0.671631
0.682403
0.709657
0.734543
0.764566
0.792664
0.815512
0.826717
0.832004
0.832869
0.827493
0.812872
0.769655
0.689425
0.628491
0.592838
0.568537
0.55396
0.547581
0.545627
0.545444
0.548904
0.554121
0.559917
0.562409
0.560339
0.543573
0.492986
0.422168
0.359626
0.311621
0.275202
0.246283
0.218266
0.203598
0.196278
0.194476
0.206842
0.225577
0.258847
0.301738
0.355411
0.40657
0.439333
0.460987
0.485367
0.525441
0.564249
0.597345
0.628785
0.65513
0.665425
0.660509
0.614969
0.53807
0.47559
0.446594
0.436446
0.436897
0.443603
0.445766
0.447575
0.460023
0.498863
0.53132
0.572911
0.641605
0.730712
0.815259
0.881056
0.927439
0.958774
0.97814
0.98913
0.994881
0.997701
0.998986
0.999524
0.999745
0.999851
0.999915
0.999955
0.999977
0.999989
0.999995
0.999998
0.999999
0.999999
1
1
1
1
1
1
0.999998
0.999993
0.99997
0.999875
0.999505
0.998117
0.993075
0.975262
0.913677
0.733735
0.52049
0.350618
0.225093
0.138131
0.081236
0.0458923
0.0249562
0.0130882
0.00663069
0.00324966
0.00154256
0.000709938
0.000317064
0.00013751
5.79502e-05
2.37428e-05
9.46158e-06
3.66877e-06
1.3847e-06
5.08872e-07
1.82141e-07
6.35152e-08
2.15843e-08
7.15001e-09
2.30944e-09
7.27544e-10
2.2361e-10
6.70708e-11
1.96389e-11
5.61536e-12
1.56838e-12
4.28035e-13
1.14182e-13
2.97812e-14
7.59789e-15
1.89757e-15
4.64157e-16
1.11223e-16
2.61151e-17
6.00975e-18
1.35576e-18
2.99888e-19
6.5053e-20
1.38415e-20
2.8892e-21
5.91714e-22
1.18916e-22
2.34534e-23
4.53987e-24
8.62531e-25
1.60844e-25
2.9439e-26
5.28811e-27
9.32148e-28
1.61217e-28
2.73511e-29
4.55103e-30
7.42496e-31
1.18786e-31
1.86311e-32
1.95867e-05
5.43648e-05
0.000782232
0.00566658
0.0265266
0.0889526
0.227955
0.457237
0.622732
0.673107
0.692988
0.70592
0.723579
0.727449
0.727457
0.733438
0.75195
0.766317
0.779778
0.802623
0.820544
0.830441
0.8359
0.8375
0.835633
0.827297
0.806015
0.759345
0.687273
0.621582
0.586014
0.561818
0.545011
0.538277
0.53614
0.535832
0.537514
0.542108
0.549184
0.552427
0.5498
0.528055
0.480724
0.411915
0.341544
0.285355
0.237065
0.197738
0.166525
0.147728
0.138487
0.135115
0.136511
0.146634
0.162498
0.187204
0.220256
0.264724
0.325565
0.389668
0.428896
0.453004
0.481214
0.539793
0.584507
0.608126
0.624023
0.65146
0.6696
0.664073
0.639874
0.5852
0.527785
0.510391
0.518544
0.546051
0.56175
0.564507
0.570873
0.590755
0.634052
0.688545
0.739013
0.795467
0.857983
0.912334
0.948612
0.96946
0.982042
0.989947
0.994838
0.99757
0.998907
0.999526
0.999796
0.999905
0.999948
0.999969
0.999982
0.99999
0.999995
0.999998
0.999999
1
1
1
1
1
1
1
1
0.999999
0.999997
0.999986
0.99994
0.999753
0.999021
0.996251
0.986054
0.949398
0.821138
0.594864
0.404316
0.261139
0.160892
0.0948627
0.0536714
0.0292082
0.0153202
0.00775834
0.00379881
0.00180065
0.000827088
0.000368457
0.000159311
6.6895e-05
2.72935e-05
1.08253e-05
4.17557e-06
1.56691e-06
5.7224e-07
2.03448e-07
7.04385e-08
2.37564e-08
7.80727e-09
2.50095e-09
7.81149e-10
2.37975e-10
7.07358e-11
2.05214e-11
5.81278e-12
1.60812e-12
4.34671e-13
1.1483e-13
2.96606e-14
7.49615e-15
1.8546e-15
4.49299e-16
1.06613e-16
2.47852e-17
5.64655e-18
1.26091e-18
2.76053e-19
5.92639e-20
1.24784e-20
2.57736e-21
5.22274e-22
1.03845e-22
2.02621e-23
3.87993e-24
7.29172e-25
1.34494e-25
2.43468e-26
4.32526e-27
7.54024e-28
1.28972e-28
2.16432e-29
3.56284e-30
5.75451e-31
9.12069e-32
0.000238327
7.84351e-06
0.000179585
0.00177526
0.0103275
0.0416053
0.125826
0.297534
0.544712
0.666938
0.711597
0.734258
0.752592
0.768937
0.775113
0.777572
0.786698
0.807108
0.823766
0.835509
0.842333
0.844616
0.84506
0.842247
0.833668
0.809937
0.765898
0.702576
0.629202
0.582651
0.561051
0.547081
0.535028
0.530314
0.529828
0.530936
0.532699
0.536656
0.539526
0.537543
0.522579
0.489258
0.422721
0.346503
0.279199
0.226391
0.182068
0.150737
0.12783
0.116648
0.111093
0.109128
0.113422
0.123195
0.138184
0.161357
0.193859
0.233691
0.290224
0.356749
0.413674
0.444027
0.460015
0.489806
0.561791
0.601769
0.615423
0.617145
0.620394
0.639722
0.646956
0.629923
0.594882
0.583107
0.587324
0.603343
0.636579
0.667657
0.689338
0.703375
0.715938
0.729382
0.754716
0.796721
0.854631
0.91335
0.954074
0.976985
0.988684
0.994415
0.997077
0.998396
0.999149
0.999583
0.999817
0.999927
0.99997
0.999986
0.999993
0.999996
0.999997
0.999999
0.999999
1
1
1
1
1
1
1
1
1
1
0.999998
0.999992
0.999964
0.999847
0.999371
0.997504
0.990376
0.963869
0.867429
0.642022
0.438306
0.283673
0.174893
0.103098
0.0582862
0.0316812
0.0165906
0.00838479
0.00409554
0.00193568
0.000886106
0.000393215
0.000169267
7.0726e-05
2.86997e-05
1.13154e-05
4.33656e-06
1.6161e-06
5.85865e-07
2.06675e-07
7.09724e-08
2.37329e-08
7.73076e-09
2.4539e-09
7.59298e-10
2.2911e-10
6.74392e-11
1.93722e-11
5.43258e-12
1.48783e-12
3.98087e-13
1.04102e-13
2.66236e-14
6.66232e-15
1.63181e-15
3.91319e-16
9.1904e-17
2.11446e-17
4.7669e-18
1.0533e-18
2.28161e-19
4.84618e-20
1.0095e-20
2.06271e-21
4.13484e-22
8.1326e-23
1.56962e-23
2.97295e-24
5.5263e-25
1.0082e-25
1.80518e-26
3.17216e-27
5.47038e-28
9.2583e-29
1.5377e-29
2.50708e-30
4.01445e-31
0.00213192
4.2225e-05
2.35886e-05
0.000357679
0.0028222
0.014287
0.0526421
0.15
0.341018
0.591704
0.696222
0.735401
0.759295
0.783679
0.803821
0.815237
0.820385
0.828058
0.842834
0.851669
0.854587
0.855072
0.853876
0.848049
0.835907
0.811414
0.766512
0.701775
0.626886
0.57607
0.552911
0.539836
0.530041
0.523185
0.520835
0.520472
0.52201
0.526275
0.529507
0.526219
0.502899
0.454469
0.390372
0.32271
0.261146
0.210392
0.169747
0.140954
0.121665
0.111059
0.102513
0.100856
0.105046
0.115372
0.13029
0.152599
0.186012
0.225553
0.280029
0.346002
0.407501
0.443135
0.45827
0.476039
0.513429
0.584324
0.612558
0.614017
0.60007
0.576015
0.572504
0.584937
0.587033
0.586254
0.592784
0.604452
0.628639
0.665449
0.69483
0.71093
0.717211
0.718848
0.714041
0.720258
0.764864
0.857017
0.930581
0.969661
0.987417
0.994828
0.997862
0.999105
0.999618
0.999824
0.999912
0.999956
0.999981
0.999992
0.999997
0.999999
0.999999
1
1
1
1
1
1
1
1
1
1
1
1
1
0.999999
0.999994
0.999974
0.999884
0.999509
0.997988
0.992
0.969111
0.883902
0.662301
0.451298
0.291538
0.179306
0.105409
0.0594149
0.0321918
0.0168001
0.00845892
0.0041148
0.00193601
0.000881866
0.000389213
0.000166558
6.91508e-05
2.78688e-05
1.09077e-05
4.14798e-06
1.53322e-06
5.51071e-07
1.92669e-07
6.55515e-08
2.17113e-08
7.00305e-09
2.20068e-09
6.74007e-10
2.01272e-10
5.8626e-11
1.66631e-11
4.62332e-12
1.25272e-12
3.31616e-13
8.58132e-14
2.17183e-14
5.37771e-15
1.30321e-15
3.09184e-16
7.18346e-17
1.63489e-17
3.64581e-18
7.96824e-19
1.70723e-19
3.58657e-20
7.38936e-21
1.49332e-21
2.96064e-22
5.75924e-23
1.09937e-23
2.05946e-24
3.78648e-25
6.83287e-26
1.21028e-26
2.10418e-27
3.5913e-28
6.0174e-29
9.90176e-30
1.60135e-30
0.0103172
0.000546412
4.33737e-05
4.98877e-05
0.000497931
0.00331633
0.0152035
0.0530241
0.147493
0.336826
0.594859
0.710477
0.753937
0.780429
0.803627
0.822542
0.837144
0.846882
0.856394
0.863745
0.865064
0.864591
0.863148
0.85879
0.845387
0.821451
0.779872
0.717132
0.641831
0.583634
0.555608
0.540612
0.530456
0.522472
0.51787
0.513699
0.510313
0.506968
0.50531
0.50034
0.483121
0.447109
0.394465
0.331006
0.27114
0.220265
0.17937
0.149517
0.129278
0.118261
0.109886
0.110298
0.113848
0.122719
0.138625
0.160375
0.198486
0.245851
0.301724
0.361116
0.420597
0.460428
0.473575
0.480233
0.50132
0.557545
0.606281
0.614945
0.605203
0.570093
0.545988
0.541092
0.544505
0.554272
0.574007
0.591428
0.60499
0.627214
0.647759
0.659478
0.657739
0.643712
0.592465
0.55657
0.565888
0.675786
0.842231
0.931529
0.973071
0.990236
0.996669
0.9989
0.999634
0.999874
0.999954
0.999983
0.999993
0.999997
0.999999
0.999999
1
1
1
1
1
1
1
1
1
1
1
1
1
1
1
0.999999
0.999995
0.999977
0.999895
0.999544
0.998077
0.992158
0.969075
0.881811
0.656529
0.445233
0.286122
0.175054
0.102376
0.0574076
0.0309417
0.0160608
0.00804123
0.0038884
0.00181795
0.000822542
0.000360448
0.000153085
6.30516e-05
2.51979e-05
9.77583e-06
3.68351e-06
1.34858e-06
4.79936e-07
1.66097e-07
5.5923e-08
1.83254e-08
5.84701e-09
1.81726e-09
5.50409e-10
1.62529e-10
4.68096e-11
1.31548e-11
3.60877e-12
9.66828e-13
2.53099e-13
6.47729e-14
1.62114e-14
3.96945e-15
9.51197e-16
2.23143e-16
5.12626e-17
1.15359e-17
2.54361e-18
5.49682e-19
1.16449e-19
2.41893e-20
4.92784e-21
9.84732e-22
1.93054e-22
3.71369e-23
7.01052e-24
1.29887e-24
2.36208e-25
4.21681e-26
7.39041e-27
1.27185e-27
2.14947e-28
3.56894e-29
5.82755e-30
0.0227234
0.00372325
0.000233259
5.03803e-05
7.8605e-05
0.000508115
0.00304772
0.0131916
0.0444356
0.122094
0.282146
0.533094
0.697781
0.760838
0.793992
0.817676
0.835955
0.848883
0.858973
0.867406
0.871951
0.873012
0.872184
0.869847
0.863628
0.84839
0.819935
0.768814
0.692479
0.617233
0.573236
0.54917
0.534923
0.524621
0.518767
0.513587
0.508972
0.50229
0.494915
0.485369
0.472754
0.449835
0.411128
0.360035
0.304235
0.253674
0.211182
0.178698
0.156068
0.142493
0.135241
0.136641
0.142119
0.153952
0.175339
0.206582
0.243711
0.29843
0.36167
0.42278
0.46253
0.490018
0.502804
0.505475
0.510881
0.548877
0.604379
0.62094
0.618068
0.592276
0.566607
0.566677
0.573383
0.586461
0.605811
0.628901
0.641811
0.65073
0.648867
0.639613
0.625919
0.603991
0.540522
0.479863
0.469628
0.504233
0.677021
0.851033
0.938099
0.97659
0.991891
0.997418
0.999241
0.99979
0.999943
0.999984
0.999995
0.999998
0.999999
1
1
1
1
1
1
1
1
1
1
1
1
1
1
1
1
1
0.999999
0.999995
0.999977
0.999894
0.999524
0.997939
0.991414
0.965572
0.866781
0.633358
0.42639
0.271847
0.165066
0.095832
0.0533537
0.0285506
0.0147113
0.00730997
0.00350703
0.00162621
0.000729483
0.000316808
0.000133296
5.43678e-05
2.15087e-05
8.25757e-06
3.078e-06
1.11445e-06
3.92133e-07
1.34146e-07
4.46368e-08
1.44537e-08
4.55651e-09
1.39912e-09
4.18649e-10
1.22128e-10
3.4749e-11
9.64786e-12
2.61509e-12
6.92384e-13
1.79141e-13
4.53112e-14
1.12085e-14
2.71255e-15
6.42465e-16
1.48972e-16
3.3828e-17
7.52479e-18
1.64013e-18
3.50379e-19
7.33806e-20
1.50697e-20
3.03529e-21
5.9972e-22