/*--------------------------------*- C++ -*----------------------------------*\
  =========                 |
  \\      /  F ield         | OpenFOAM: The Open Source CFD Toolbox
   \\    /   O peration     | Website:  https://openfoam.org
    \\  /    A nd           | Version:  7
     \\/     M anipulation  |
\*---------------------------------------------------------------------------*/
FoamFile
{
    version     2.0;
    format      ascii;
    class       volVectorField;
    location    "0.044";
    object      U_0;
}
// * * * * * * * * * * * * * * * * * * * * * * * * * * * * * * * * * * * * * //

dimensions      [0 1 -1 0 0 0 0];

internalField   nonuniform List<vector> 
12225
(
(4.74122 0.190784 0)
(4.10216 0.122629 0)
(3.64052 0.10131 0)
(3.26711 0.0850695 0)
(2.93722 0.0744249 0)
(2.60817 0.0696297 0)
(2.26941 0.0629926 0)
(1.94443 0.0515033 0)
(1.65366 0.0399225 0)
(1.40372 0.0308624 0)
(1.18945 0.0236612 0)
(1.0077 0.0173395 0)
(0.851409 0.0118972 0)
(0.723732 0.00808944 0)
(0.606476 0.00555034 0)
(0.51412 0.00500693 0)
(0.403642 0.006613 0)
(0.308498 0.000580742 0)
(4.89914 0.125954 0)
(4.76145 0.0690768 0)
(4.66341 0.0874763 0)
(4.58421 0.0891106 0)
(4.48472 0.0859263 0)
(4.36506 0.0921654 0)
(4.24113 0.104641 0)
(4.11808 0.111868 0)
(3.9844 0.110394 0)
(3.83468 0.10454 0)
(3.67101 0.097521 0)
(3.50835 0.0902366 0)
(3.34932 0.0828983 0)
(3.20296 0.0765909 0)
(3.05378 0.0736811 0)
(2.91242 0.0718738 0)
(2.75703 0.0788699 0)
(2.6036 0.0815929 0)
(4.96543 0.181578 0)
(4.77609 0.123245 0)
(4.69856 0.124501 0)
(4.70133 0.127077 0)
(4.70721 0.128144 0)
(4.68784 0.131022 0)
(4.65986 0.131839 0)
(4.63667 0.128809 0)
(4.61285 0.126636 0)
(4.57945 0.128773 0)
(4.53143 0.131442 0)
(4.46959 0.129932 0)
(4.39838 0.124195 0)
(4.3214 0.11845 0)
(4.24329 0.11699 0)
(4.16003 0.119027 0)
(4.07978 0.129594 0)
(3.98736 0.148868 0)
(4.96513 0.255477 0)
(4.83147 0.13059 0)
(4.72542 0.111563 0)
(4.72124 0.106326 0)
(4.75261 0.104412 0)
(4.76163 0.112832 0)
(4.74651 0.123154 0)
(4.72335 0.127274 0)
(4.70381 0.128308 0)
(4.69103 0.130901 0)
(4.68147 0.134365 0)
(4.66648 0.13556 0)
(4.64263 0.134334 0)
(4.60792 0.132735 0)
(4.57022 0.134692 0)
(4.52929 0.140309 0)
(4.49503 0.153724 0)
(4.46039 0.174067 0)
(4.90186 0.230712 0)
(4.83928 0.150495 0)
(4.82047 0.119228 0)
(4.83486 0.108379 0)
(4.83318 0.111247 0)
(4.79903 0.125714 0)
(4.75373 0.138023 0)
(4.71784 0.139657 0)
(4.69874 0.135814 0)
(4.6952 0.134678 0)
(4.70137 0.138407 0)
(4.70759 0.143738 0)
(4.70675 0.147821 0)
(4.69519 0.149882 0)
(4.67705 0.152545 0)
(4.65532 0.156781 0)
(4.63641 0.16578 0)
(4.62082 0.180197 0)
(4.95837 0.285801 0)
(4.85448 0.155213 0)
(4.79432 0.114074 0)
(4.78403 0.115026 0)
(4.77727 0.130387 0)
(4.75843 0.147739 0)
(4.73952 0.154606 0)
(4.72868 0.147686 0)
(4.72524 0.135929 0)
(4.72747 0.129129 0)
(4.73377 0.129795 0)
(4.74007 0.134832 0)
(4.74203 0.140985 0)
(4.73712 0.146849 0)
(4.72699 0.153519 0)
(4.71396 0.161277 0)
(4.70127 0.172027 0)
(4.69038 0.185941 0)
(4.98332 0.283633 0)
(4.91323 0.179821 0)
(4.86893 0.116836 0)
(4.82469 0.103216 0)
(4.80399 0.116347 0)
(4.80555 0.13537 0)
(4.81309 0.14658 0)
(4.81064 0.145529 0)
(4.7944 0.138302 0)
(4.77265 0.133429 0)
(4.75533 0.134812 0)
(4.74532 0.141297 0)
(4.7401 0.149861 0)
(4.73544 0.157996 0)
(4.72933 0.165155 0)
(4.7219 0.171867 0)
(4.71353 0.179889 0)
(4.70618 0.190349 0)
(5.0005 0.235754 0)
(4.95569 0.183934 0)
(4.92217 0.136893 0)
(4.8861 0.133743 0)
(4.84813 0.143169 0)
(4.81351 0.151118 0)
(4.78891 0.155161 0)
(4.77499 0.153809 0)
(4.76881 0.148626 0)
(4.76838 0.143268 0)
(4.77309 0.140529 0)
(4.78069 0.141415 0)
(4.78764 0.145398 0)
(4.78918 0.151704 0)
(4.78244 0.159651 0)
(4.76725 0.169144 0)
(4.74599 0.18028 0)
(4.72291 0.192425 0)
(5.08354 0.306678 0)
(5.0193 0.213695 0)
(4.92294 0.145507 0)
(4.84781 0.130603 0)
(4.82114 0.142586 0)
(4.82394 0.15662 0)
(4.83585 0.161284 0)
(4.84573 0.155033 0)
(4.84921 0.143302 0)
(4.84651 0.133258 0)
(4.84048 0.129727 0)
(4.83324 0.134356 0)
(4.82567 0.14588 0)
(4.81606 0.161905 0)
(4.805 0.179299 0)
(4.79125 0.195624 0)
(4.77897 0.209368 0)
(4.76669 0.219234 0)
(4.83082 0.270906 0)
(4.8813 0.214894 0)
(4.90327 0.179971 0)
(4.88731 0.160609 0)
(4.86729 0.15318 0)
(4.86111 0.150928 0)
(4.86483 0.149372 0)
(4.87024 0.147377 0)
(4.87165 0.145789 0)
(4.86551 0.145578 0)
(4.85119 0.147127 0)
(4.83159 0.15074 0)
(4.81179 0.156734 0)
(4.79571 0.164875 0)
(4.78675 0.174631 0)
(4.78452 0.184946 0)
(4.78943 0.194915 0)
(4.79788 0.204425 0)
(5.03321 0.244932 0)
(4.963 0.197732 0)
(4.90731 0.159821 0)
(4.8772 0.150909 0)
(4.87141 0.150718 0)
(4.87724 0.153087 0)
(4.88213 0.154715 0)
(4.88399 0.152567 0)
(4.88528 0.148359 0)
(4.88551 0.146563 0)
(4.88196 0.14972 0)
(4.873 0.157334 0)
(4.8597 0.167208 0)
(4.84484 0.17727 0)
(4.83181 0.186261 0)
(4.82292 0.193732 0)
(4.819 0.199755 0)
(4.81875 0.204753 0)
(5.03468 0.276522 0)
(4.96701 0.243203 0)
(4.90968 0.194626 0)
(4.87943 0.165672 0)
(4.85724 0.154924 0)
(4.83894 0.152134 0)
(4.82829 0.15033 0)
(4.82799 0.146264 0)
(4.83611 0.142834 0)
(4.8473 0.144651 0)
(4.8577 0.152797 0)
(4.8658 0.164619 0)
(4.87206 0.176168 0)
(4.87636 0.18506 0)
(4.87944 0.191003 0)
(4.88092 0.19503 0)
(4.88186 0.198693 0)
(4.88094 0.2029 0)
(5.02864 0.277246 0)
(4.94385 0.266397 0)
(4.89555 0.212124 0)
(4.88348 0.175703 0)
(4.88641 0.161806 0)
(4.89101 0.158385 0)
(4.89706 0.155392 0)
(4.90347 0.148386 0)
(4.90668 0.140345 0)
(4.90514 0.136437 0)
(4.90125 0.138935 0)
(4.89789 0.14697 0)
(4.89612 0.157925 0)
(4.894 0.169754 0)
(4.89068 0.180806 0)
(4.88574 0.19065 0)
(4.88057 0.198938 0)
(4.87685 0.205449 0)
(5.0106 0.327434 0)
(4.96825 0.295671 0)
(4.97585 0.207639 0)
(4.95896 0.164398 0)
(4.92281 0.154724 0)
(4.90591 0.153185 0)
(4.91878 0.148693 0)
(4.94759 0.143566 0)
(4.9743 0.143432 0)
(4.98637 0.15017 0)
(4.98064 0.161749 0)
(4.96137 0.17486 0)
(4.9365 0.18685 0)
(4.91206 0.196272 0)
(4.89438 0.202511 0)
(4.88448 0.206244 0)
(4.88511 0.207489 0)
(4.8922 0.208223 0)
(5.03616 0.302919 0)
(5.03309 0.286777 0)
(4.99741 0.236521 0)
(4.94159 0.214777 0)
(4.90455 0.189195 0)
(4.89698 0.151775 0)
(4.90536 0.117061 0)
(4.91828 0.0999707 0)
(4.93139 0.10446 0)
(4.94146 0.125116 0)
(4.94599 0.15267 0)
(4.94484 0.17802 0)
(4.94075 0.195455 0)
(4.9372 0.203103 0)
(4.93826 0.202124 0)
(4.9452 0.196056 0)
(4.95883 0.18723 0)
(4.97596 0.180396 0)
(4.99123 0.287816 0)
(4.98616 0.283443 0)
(4.98869 0.262045 0)
(5.00788 0.217463 0)
(5.02248 0.177966 0)
(5.0227 0.155936 0)
(5.00657 0.14387 0)
(4.98289 0.136214 0)
(4.96228 0.135581 0)
(4.95016 0.145838 0)
(4.9466 0.165026 0)
(4.94894 0.185591 0)
(4.95391 0.199471 0)
(4.95978 0.202475 0)
(4.96578 0.19536 0)
(4.97232 0.182748 0)
(4.97911 0.169306 0)
(4.98591 0.160605 0)
(5.07771 0.225223 0)
(5.04313 0.257803 0)
(5.05128 0.243475 0)
(5.03594 0.210006 0)
(4.99291 0.185398 0)
(4.95556 0.168012 0)
(4.93778 0.152124 0)
(4.93312 0.138448 0)
(4.93373 0.131428 0)
(4.93786 0.134218 0)
(4.94727 0.145657 0)
(4.96315 0.160903 0)
(4.98439 0.174016 0)
(5.00764 0.180892 0)
(5.02955 0.180543 0)
(5.04682 0.175112 0)
(5.05879 0.167607 0)
(5.06393 0.161974 0)
(4.98627 0.274143 0)
(4.96922 0.262275 0)
(4.96495 0.26809 0)
(4.97046 0.275927 0)
(4.97573 0.25875 0)
(4.9795 0.219592 0)
(4.98269 0.177843 0)
(4.98585 0.1484 0)
(4.98866 0.134921 0)
(4.99161 0.132414 0)
(4.99721 0.133598 0)
(5.00736 0.133812 0)
(5.02185 0.131849 0)
(5.03827 0.129 0)
(5.05435 0.127657 0)
(5.0677 0.129708 0)
(5.07771 0.13608 0)
(5.08338 0.146447 0)
(4.94852 0.310565 0)
(4.9687 0.273609 0)
(4.95094 0.231599 0)
(4.96351 0.192717 0)
(4.98788 0.167316 0)
(5.01889 0.147677 0)
(5.04442 0.131986 0)
(5.06044 0.121304 0)
(5.07054 0.114975 0)
(5.07934 0.111599 0)
(5.09074 0.109907 0)
(5.10584 0.109486 0)
(5.12263 0.110335 0)
(5.13739 0.112851 0)
(5.14807 0.117037 0)
(5.15421 0.12281 0)
(5.15744 0.129584 0)
(5.15906 0.136805 0)
(4.96876 0.236184 0)
(5.00697 0.252812 0)
(5.01389 0.251979 0)
(5.0219 0.217895 0)
(5.02817 0.172544 0)
(5.03943 0.132022 0)
(5.05497 0.111211 0)
(5.0652 0.10795 0)
(5.06634 0.107783 0)
(5.06251 0.100756 0)
(5.06011 0.0878102 0)
(5.0636 0.0765215 0)
(5.07402 0.0735234 0)
(5.08964 0.0810812 0)
(5.1085 0.0965792 0)
(5.12854 0.115009 0)
(5.14902 0.131584 0)
(5.16878 0.142399 0)
(4.93005 0.292022 0)
(4.93653 0.230243 0)
(4.94132 0.218062 0)
(4.98937 0.196311 0)
(5.03361 0.148487 0)
(5.05571 0.106232 0)
(5.06647 0.09119 0)
(5.07413 0.0985077 0)
(5.08027 0.109322 0)
(5.08461 0.108778 0)
(5.08792 0.0943816 0)
(5.09209 0.0728804 0)
(5.09915 0.0529395 0)
(5.11021 0.0400345 0)
(5.12604 0.0355383 0)
(5.14585 0.037806 0)
(5.16874 0.0437443 0)
(5.19241 0.0512941 0)
(4.9559 0.363652 0)
(4.93476 0.218278 0)
(4.96163 0.152617 0)
(5.02613 0.127297 0)
(5.07845 0.107873 0)
(5.10322 0.0951032 0)
(5.11168 0.0934739 0)
(5.11908 0.0997962 0)
(5.13304 0.104847 0)
(5.15354 0.101056 0)
(5.17726 0.0876072 0)
(5.20022 0.0694118 0)
(5.21968 0.0530205 0)
(5.23452 0.0430862 0)
(5.24557 0.0406772 0)
(5.25418 0.0442077 0)
(5.26205 0.0508555 0)
(5.26997 0.0578815 0)
(4.95078 0.274532 0)
(4.95311 0.184576 0)
(4.99567 0.138745 0)
(5.04446 0.10783 0)
(5.0812 0.0828687 0)
(5.10906 0.0700365 0)
(5.13079 0.0685726 0)
(5.14813 0.0689669 0)
(5.16231 0.063122 0)
(5.17456 0.0494999 0)
(5.18673 0.0317765 0)
(5.20026 0.0154337 0)
(5.21594 0.00498715 0)
(5.23312 0.00169089 0)
(5.25099 0.00416801 0)
(5.26831 0.00976231 0)
(5.28481 0.0154676 0)
(5.29934 0.0194364 0)
(4.98706 0.267227 0)
(4.9547 0.149451 0)
(5.00027 0.0924364 0)
(5.05882 0.0697477 0)
(5.10353 0.0591552 0)
(5.13458 0.0564144 0)
(5.15793 0.0639646 0)
(5.17855 0.0770373 0)
(5.20095 0.0851224 0)
(5.22692 0.0805638 0)
(5.25473 0.0629626 0)
(5.28071 0.0385042 0)
(5.30167 0.0157037 0)
(5.31666 0.00147137 0)
(5.32815 -0.00215912 0)
(5.33843 0.00263681 0)
(5.35003 0.0117851 0)
(5.36451 0.0210849 0)
(5.00793 0.258101 0)
(5.09382 0.12474 0)
(5.11706 0.0673227 0)
(5.12101 0.0464124 0)
(5.13343 0.0302919 0)
(5.15073 0.0222882 0)
(5.16505 0.024675 0)
(5.17872 0.0267904 0)
(5.19867 0.018945 0)
(5.22669 0.0022607 0)
(5.25811 -0.0155469 0)
(5.28695 -0.0269582 0)
(5.31037 -0.0300397 0)
(5.32851 -0.0263421 0)
(5.3438 -0.0205351 0)
(5.35896 -0.0163368 0)
(5.37629 -0.016093 0)
(5.3959 -0.019693 0)
(4.97317 0.170965 0)
(4.99476 0.102215 0)
(5.06419 0.0948464 0)
(5.13474 0.0742704 0)
(5.18026 0.0463628 0)
(5.2039 0.0366755 0)
(5.22671 0.0461028 0)
(5.26216 0.0557538 0)
(5.31016 0.0518544 0)
(5.36118 0.033989 0)
(5.40534 0.0113382 0)
(5.43874 -0.00792929 0)
(5.46306 -0.0203672 0)
(5.4824 -0.0263306 0)
(5.49925 -0.0277542 0)
(5.51367 -0.0267007 0)
(5.52523 -0.0247767 0)
(5.5316 -0.0230991 0)
(5.02349 0.165056 0)
(5.08086 0.0342816 0)
(5.16358 0.00669925 0)
(5.21861 -0.00580494 0)
(5.24072 -0.0123878 0)
(5.25882 -0.0122617 0)
(5.29596 -0.0135784 0)
(5.35253 -0.0228128 0)
(5.41469 -0.0389291 0)
(5.46727 -0.0554928 0)
(5.50139 -0.0658519 0)
(5.51595 -0.0683419 0)
(5.517 -0.0645526 0)
(5.51253 -0.057451 0)
(5.5087 -0.0494066 0)
(5.50801 -0.0418471 0)
(5.51115 -0.0352894 0)
(5.51672 -0.0304247 0)
(4.94747 0.156311 0)
(5.08665 0.0765458 0)
(5.22711 0.0679902 0)
(5.29341 0.0432917 0)
(5.33236 0.0166113 0)
(5.37781 0.00299468 0)
(5.43024 -0.00295277 0)
(5.47794 -0.00882894 0)
(5.51269 -0.0158736 0)
(5.53324 -0.0205187 0)
(5.54242 -0.0215413 0)
(5.54502 -0.0204978 0)
(5.54668 -0.0198892 0)
(5.55166 -0.0212112 0)
(5.56174 -0.0240711 0)
(5.57611 -0.027224 0)
(5.59336 -0.0295262 0)
(5.61137 -0.0308456 0)
(5.02551 0.0346992 0)
(5.20623 -0.055148 0)
(5.34365 -0.0394666 0)
(5.40765 -0.0475498 0)
(5.43471 -0.0563442 0)
(5.45256 -0.0575695 0)
(5.47037 -0.0569231 0)
(5.48516 -0.0598158 0)
(5.49338 -0.0651182 0)
(5.4954 -0.069156 0)
(5.49296 -0.0700343 0)
(5.4877 -0.0683931 0)
(5.48029 -0.0659475 0)
(5.47165 -0.064052 0)
(5.46141 -0.0626803 0)
(5.45065 -0.0612611 0)
(5.43861 -0.0590641 0)
(5.42749 -0.056318 0)
(4.87806 0.121509 0)
(5.02213 0.0133153 0)
(5.01048 0.0134061 0)
(4.91384 -0.000415088 0)
(4.79447 -0.0103729 0)
(4.68053 -0.0139014 0)
(4.57658 -0.0159866 0)
(4.47067 -0.0191144 0)
(4.35557 -0.0220665 0)
(4.2355 -0.0227568 0)
(4.11903 -0.0208573 0)
(4.01231 -0.0179841 0)
(3.91601 -0.0161299 0)
(3.82779 -0.0161214 0)
(3.7437 -0.0173239 0)
(3.66348 -0.0185719 0)
(3.58612 -0.0191281 0)
(3.51556 -0.0192987 0)
(-0.00357885 -0.0122945 2.87801e-20)
(0.0679524 -0.0893617 -2.8568e-20)
(0.188126 -0.130644 0)
(0.318611 -0.146131 0)
(0.454589 -0.150142 0)
(0.59283 -0.150124 2.76592e-20)
(0.732261 -0.149072 0)
(0.872745 -0.147844 0)
(1.01436 -0.146317 0)
(1.15677 -0.144037 0)
(1.29903 -0.14029 -2.64653e-20)
(1.43919 -0.134254 0)
(1.57447 -0.125049 0)
(1.70095 -0.111707 0)
(1.8138 -0.093369 0)
(1.90743 -0.0695336 -2.52564e-20)
(1.97552 -0.0397203 0)
(2.01295 -0.00434256 0)
(2.01357 0.036309 0)
(1.97089 0.0803431 0)
(1.88309 0.124983 0)
(1.74909 0.168618 0)
(1.57469 0.203814 0)
(1.36255 0.234609 -2.37737e-20)
(1.12908 0.244651 2.36231e-20)
(0.880849 0.243613 -2.34683e-20)
(0.634443 0.223071 -2.33071e-20)
(0.497613 0.0900006 0)
(0.310544 0.0327606 0)
(0.135674 0.0426304 2.27687e-20)
(0.258474 -0.127442 2.25703e-20)
(0.47383 -0.297035 0)
(0.589048 -0.5847 0)
(0.582625 -0.642414 2.19496e-20)
(0.517864 -0.249482 0)
(0.162133 0.315932 0)
(-0.37664 0.463501 -2.13966e-20)
(-0.85346 0.433476 0)
(-1.31163 0.408478 -2.09234e-20)
(-1.73859 0.378859 -4.13257e-20)
(-2.13804 0.35046 0)
(-2.50872 0.322381 0)
(-2.85302 0.295871 0)
(-3.17129 0.270614 0)
(-3.46469 0.246475 0)
(-3.7332 0.223102 -3.80712e-20)
(-3.97673 0.200153 -3.7557e-20)
(-4.19454 0.17718 -3.7061e-20)
(-4.38562 0.153886 0)
(-4.54871 0.130181 3.61347e-20)
(-4.68251 0.105995 0)
(-4.78582 0.0812804 -3.53101e-20)
(-4.85784 0.0563537 -3.49388e-20)
(-4.89824 0.0321293 0)
(-4.90683 0.00977658 0)
(-4.88529 -0.0101749 0)
(-4.83859 -0.0281391 -3.37074e-20)
(-4.76612 -0.0439364 0)
(-4.67263 -0.0572715 0)
(-4.56063 -0.0680678 0)
(-4.43463 -0.0759433 0)
(-4.29865 -0.0808449 0)
(-4.1573 -0.0828216 0)
(-4.01474 -0.0821291 0)
(-3.8748 -0.0792128 0)
(-3.7404 -0.0747078 3.169e-20)
(-3.61341 -0.0693219 0)
(-3.49446 -0.0637867 0)
(-3.38317 -0.0587311 -3.1019e-20)
(-3.27827 -0.0546452 -3.07911e-20)
(-3.17779 -0.0518956 0)
(-3.07923 -0.0507453 3.03342e-20)
(-2.9797 -0.0513368 -3.01074e-20)
(-2.87612 -0.0536599 0)
(-2.76557 -0.0575203 2.96618e-20)
(-2.64563 -0.062546 0)
(-2.51467 -0.0682683 0)
(-2.37181 -0.0742296 -2.90187e-20)
(-2.21687 -0.0800075 0)
(-2.05049 -0.0851812 2.86035e-20)
(-1.87406 -0.0893703 0)
(-1.68957 -0.0923161 -2.81899e-20)
(-1.49942 -0.0938489 -2.798e-20)
(-1.30626 -0.0938494 -2.77658e-20)
(-1.11275 -0.0923378 -5.50925e-20)
(-0.921458 -0.08946 5.46407e-20)
(-0.734814 -0.0854378 0)
(-0.554891 -0.0805517 0)
(-0.3832 -0.0750694 0)
(-0.220683 -0.0692691 5.27029e-20)
(-0.0684856 -0.0633074 5.21904e-20)
(0.0727939 -0.0577983 -5.16525e-20)
(0.204065 -0.0521631 0)
(0.32593 -0.0467754 5.05523e-20)
(0.438376 -0.0416674 4.99986e-20)
(0.541779 -0.0368602 4.94442e-20)
(0.636561 -0.0323619 0)
(0.723166 -0.0281711 0)
(0.802039 -0.0242802 0)
(0.873619 -0.0206779 4.72344e-20)
(0.93833 -0.0173517 0)
(0.996585 -0.0142902 0)
(1.04878 -0.0114834 -4.56007e-20)
(1.0953 -0.00892393 0)
(1.13653 -0.00660598 0)
(1.17285 -0.00452391 -4.39965e-20)
(1.20463 -0.00267163 0)
(1.23227 -0.00104081 0)
(1.25614 0.000380348 4.24253e-20)
(1.27661 0.0016055 4.19092e-20)
(1.29404 0.00265266 0)
(1.30879 0.00354347 -4.08887e-20)
(1.32115 0.00429517 0)
(1.33141 0.00493077 3.98835e-20)
(1.3398 0.00547158 0)
(1.34654 0.00592023 3.88934e-20)
(1.3518 0.0063013 3.8404e-20)
(1.35569 0.00662211 0)
(1.3584 0.00686622 0)
(1.35993 0.00707981 0)
(1.36037 0.00726558 0)
(1.35984 0.00736759 0)
(1.35844 0.00737904 0)
(1.35626 0.00731204 0)
(1.35345 0.00716624 3.46161e-20)
(1.35014 0.0069465 -3.41577e-20)
(1.34647 0.0066664 0)
(1.34255 0.00634158 0)
(1.33849 0.00598674 0)
(1.33437 0.00561415 0)
(1.33026 0.00523407 -6.38261e-20)
(1.32621 0.00485681 0)
(1.32226 0.00449228 6.20729e-20)
(1.31844 0.00414737 -6.12052e-20)
(1.31475 0.0038245 0)
(1.31119 0.00352178 0)
(1.30778 0.00323485 0)
(1.30452 0.00296079 5.77909e-20)
(1.30139 0.0027013 5.69512e-20)
(1.29837 0.00245851 0)
(1.29544 0.00224035 5.52879e-20)
(1.29258 0.00204649 5.44642e-20)
(1.28978 0.00187403 -5.36458e-20)
(1.28705 0.00172075 0)
(1.28437 0.00158441 0)
(1.28174 0.0014628 -5.1221e-20)
(1.27916 0.0013535 0)
(1.27663 0.00125479 0)
(1.27415 0.00116755 0)
(1.27171 0.00109302 0)
(1.26929 0.00103209 4.72785e-20)
(1.26689 0.000984193 4.65043e-20)
(1.26449 0.000948373 0)
(1.26207 0.0009226 4.49698e-20)
(1.25964 0.000905083 0)
(1.25717 0.000894484 0)
(1.25465 0.000890131 4.27022e-20)
(1.25208 0.000891624 0)
(1.24942 0.000899276 4.12126e-20)
(1.2467 0.000913289 0)
(1.24384 0.00093534 0)
(1.24088 0.000966143 3.90106e-20)
(1.23771 0.00100966 0)
(1.2344 0.00106618 3.75638e-20)
(1.23072 0.00114456 0)
(1.22688 0.0012423 0)
(1.22237 0.00137987 0)
(1.2177 0.00154185 -3.47204e-20)
(1.21184 0.0017815 0)
(1.20583 0.00204037 3.33239e-20)
(1.19774 0.00246983 0)
(1.18938 0.00287537 0)
(1.17769 0.00370805 0)
(1.16463 0.00429536 0)
(1.14768 0.00611531 0)
(1.12335 0.00673142 0)
(1.10139 0.0114147 0)
(1.04447 0.0110521 -5.58681e-20)
(1.03129 0.0252259 0)
(0.865295 0.0180037 0)
(0.0218805 -0.120382 -8.63324e-20)
(0.122082 -0.32223 8.56727e-20)
(0.235682 -0.400429 0)
(0.348501 -0.422051 -5.62115e-20)
(0.462575 -0.425652 0)
(0.580034 -0.425953 -2.76509e-20)
(0.70201 -0.427099 5.48283e-20)
(0.828949 -0.429209 5.43553e-20)
(0.960549 -0.430874 0)
(1.09622 -0.4302 5.33903e-20)
(1.23462 -0.424966 2.64609e-20)
(1.37412 -0.412713 0)
(1.51163 -0.390704 0)
(1.64348 -0.356239 0)
(1.76442 -0.306821 0)
(1.86843 -0.241098 2.52545e-20)
(1.94928 -0.159055 0)
(2.00012 -0.0622227 -4.9541e-20)
(2.01637 0.0458421 0)
(1.99712 0.159422 0)
(1.9402 0.272878 4.83713e-20)
(1.84407 0.377613 0)
(1.71543 0.468667 -4.77293e-20)
(1.55704 0.537795 2.37503e-20)
(1.38596 0.576387 -2.35954e-20)
(1.20223 0.587692 2.34371e-20)
(1.00473 0.46988 2.32756e-20)
(0.792689 0.418946 0)
(0.605806 0.541732 0)
(0.685698 0.119841 -2.27427e-20)
(0.604909 -0.520334 2.26073e-20)
(0.299515 -0.265724 0)
(-0.217085 0.439583 0)
(-0.916068 0.76834 -2.193e-20)
(-1.42807 0.946678 0)
(-1.80306 1.06867 0)
(-2.16059 1.05999 2.12891e-20)
(-2.48367 1.0162 0)
(-2.79383 0.951725 -2.06748e-20)
(-3.08366 0.88414 4.11675e-20)
(-3.35532 0.815018 0)
(-3.60799 0.74934 0)
(-3.84311 0.686665 7.88799e-20)
(-4.06073 0.62726 7.7827e-20)
(-4.26112 0.570009 7.67851e-20)
(-4.44373 0.513909 -3.77655e-20)
(-4.60787 0.45778 3.74922e-20)
(-4.75251 0.400721 1.10807e-19)
(-4.8765 0.342231 -7.28791e-20)
(-4.97857 0.28209 -3.60948e-20)
(-5.05763 0.220348 0)
(-5.11279 0.157414 3.52832e-20)
(-5.14344 0.0942512 -3.47635e-20)
(-5.14957 0.032439 0)
(-5.13215 -0.0264568 0)
(-5.09125 -0.0815143 0)
(-5.02503 -0.131736 3.36917e-20)
(-4.93805 -0.176038 0)
(-4.83105 -0.213308 -6.63204e-20)
(-4.70802 -0.242734 0)
(-4.57201 -0.263608 -6.54467e-20)
(-4.42723 -0.275701 0)
(-4.27772 -0.279276 6.46109e-20)
(-4.12782 -0.275215 0)
(-3.98133 -0.265008 -6.37719e-20)
(-3.84143 -0.250627 3.16656e-20)
(-3.71004 -0.234253 0)
(-3.58767 -0.217979 6.24621e-20)
(-3.47357 -0.203543 3.10092e-20)
(-3.3661 -0.192243 3.07819e-20)
(-3.26301 -0.185049 0)
(-3.16158 -0.18267 3.03113e-20)
(-3.05874 -0.185473 3.00992e-20)
(-2.95121 -0.193353 0)
(-2.83584 -0.205649 -2.96536e-20)
(-2.71008 -0.221226 5.8844e-20)
(-2.57229 -0.238744 0)
(-2.42171 -0.256932 2.90101e-20)
(-2.2583 -0.274592 0)
(-2.0828 -0.290487 -8.57532e-20)
(-1.8968 -0.303474 0)
(-1.70246 -0.312785 8.45178e-20)
(-1.50226 -0.317913 2.79722e-20)
(-1.29901 -0.318421 -2.77385e-20)
(-1.09558 -0.314322 -5.50464e-20)
(-0.894646 -0.306065 5.46025e-20)
(-0.698674 -0.294335 0)
(-0.509722 -0.28004 0)
(-0.329205 -0.263999 0)
(-0.15791 -0.246985 -1.58079e-19)
(0.0026577 -0.229829 -5.21807e-20)
(0.15274 -0.213357 5.16376e-20)
(0.293589 -0.197025 0)
(0.425187 -0.181382 5.05308e-20)
(0.547904 -0.166543 -4.99846e-20)
(0.662185 -0.152558 -4.94302e-20)
(0.768521 -0.139436 0)
(0.867414 -0.12716 0)
(0.95936 -0.1157 0)
(1.04483 -0.105016 -4.72201e-20)
(1.12426 -0.0950688 0)
(1.19803 -0.0858183 9.2251e-20)
(1.26652 -0.0772288 1.36753e-19)
(1.33004 -0.0692708 -9.00903e-20)
(1.38889 -0.0619219 0)
(1.44338 -0.0551656 -4.3977e-20)
(1.49378 -0.0489903 0)
(1.54041 -0.043385 -8.58526e-20)
(1.58357 -0.0383352 4.24048e-20)
(1.62357 -0.0338214 4.18883e-20)
(1.66074 -0.0298157 0)
(1.69539 -0.0262802 1.22604e-19)
(1.72782 -0.0231722 -8.07256e-20)
(1.75832 -0.0204409 -3.98624e-20)
(1.78714 -0.0180297 0)
(1.81451 -0.0158912 -3.88713e-20)
(1.84059 -0.0139721 -1.15143e-19)
(1.86555 -0.0122246 0)
(1.88947 -0.0106257 -7.48241e-20)
(1.91245 -0.00913365 -7.38662e-20)
(1.93455 -0.00772076 -7.29152e-20)
(1.9558 -0.00641689 0)
(1.97623 -0.00524246 0)
(1.9958 -0.00419328 0)
(2.01451 -0.00327364 3.45896e-20)
(2.03237 -0.00248852 3.41315e-20)
(2.04937 -0.00183383 0)
(2.06553 -0.00130013 6.64475e-20)
(2.08087 -0.00087387 6.55495e-20)
(2.09542 -0.000538922 0)
(2.10919 -0.000281463 6.37723e-20)
(2.12223 -8.94211e-05 1.25785e-19)
(2.13455 5.42158e-05 -6.20191e-20)
(2.14619 0.000167358 -6.11513e-20)
(2.15716 0.000255194 0)
(2.16748 0.000313207 0)
(2.17718 0.000348562 0)
(2.18626 0.000384984 -5.77385e-20)
(2.19473 0.000441261 5.68993e-20)
(2.20256 0.000519479 1.12131e-19)
(2.2098 0.000599277 -5.52372e-20)
(2.21645 0.000668145 5.44141e-20)
(2.22254 0.000725985 5.35963e-20)
(2.22808 0.000773566 0)
(2.23309 0.000810906 0)
(2.23761 0.000837411 -5.11737e-20)
(2.24166 0.000853032 0)
(2.24525 0.000862467 0)
(2.24843 0.000869847 9.75921e-20)
(2.2512 0.000875203 0)
(2.2536 0.000882121 4.72352e-20)
(2.25566 0.000891896 -4.64619e-20)
(2.25739 0.000906666 0)
(2.25883 0.000926028 4.49291e-20)
(2.25998 0.000949588 0)
(2.26087 0.000977399 0)
(2.26151 0.00101001 -4.26641e-20)
(2.26192 0.00104877 8.38359e-20)
(2.2621 0.00109644 -4.11762e-20)
(2.26208 0.00115556 0)
(2.26184 0.00123141 0)
(2.2614 0.00132574 3.89766e-20)
(2.2607 0.00144906 0)
(2.2598 0.00159795 3.75314e-20)
(2.25856 0.00179791 0)
(2.25707 0.00202777 0)
(2.2551 0.00235731 0)
(2.25283 0.00270607 3.46913e-20)
(2.24981 0.00327115 0)
(2.24636 0.00378955 -3.32963e-20)
(2.24184 0.00481991 0)
(2.2364 0.00555564 0)
(2.2297 0.00758201 6.24713e-20)
(2.22041 0.00850383 -6.11166e-20)
(2.21096 0.0128421 0)
(2.19291 0.0136314 0)
(2.18173 0.0237646 0)
(2.14102 0.023367 1.67444e-19)
(2.13618 0.0488339 0)
(2.0329 0.0447859 -1.06503e-19)
(0.043832 -0.313099 -1.60043e-23)
(0.137987 -0.551914 -1.14206e-19)
(0.225103 -0.608516 0)
(0.308585 -0.62101 1.12409e-19)
(0.395629 -0.630217 0)
(0.489411 -0.643125 0)
(0.590546 -0.658546 -1.32793e-24)
(0.698622 -0.674132 -5.43562e-20)
(0.813134 -0.687374 -5.38683e-20)
(0.933568 -0.69561 -5.33949e-20)
(1.05905 -0.695684 0)
(1.18843 -0.683749 0)
(1.31907 -0.65496 5.18643e-20)
(1.44723 -0.604463 1.02706e-19)
(1.56662 -0.527085 -1.01692e-19)
(1.67056 -0.420721 0)
(1.75057 -0.28498 -9.97538e-20)
(1.79984 -0.12338 4.95642e-20)
(1.81112 0.0560841 0)
(1.78079 0.242522 -9.72109e-20)
(1.70811 0.424937 -4.83862e-20)
(1.59357 0.588508 9.58493e-20)
(1.44349 0.724067 4.77441e-20)
(1.26622 0.821347 0)
(1.0656 0.875722 -9.417e-20)
(0.850731 0.921866 -9.36298e-20)
(0.643723 0.955549 0)
(0.45581 0.793306 -9.25078e-20)
(0.386475 0.224937 0)
(0.26293 0.0542399 -9.12016e-20)
(-0.431832 0.654963 -4.51491e-20)
(-1.11236 1.05935 0)
(-1.59103 1.29469 0)
(-2.01458 1.39142 0)
(-2.32796 1.47237 0)
(-2.5876 1.50296 0)
(-2.80313 1.46983 0)
(-2.99806 1.40704 -8.34659e-20)
(-3.18578 1.32264 1.23952e-19)
(-3.37198 1.23556 0)
(-3.5581 1.14775 0)
(-3.74431 1.06428 0)
(-3.92822 0.983884 -3.55935e-22)
(-4.10785 0.90609 -7.77854e-20)
(-4.28011 0.828927 -1.53178e-19)
(-4.44207 0.750772 1.51158e-19)
(-4.59043 0.67012 7.44439e-20)
(-4.7221 0.585949 -7.37867e-20)
(-4.83434 0.497865 2.78621e-22)
(-4.92489 0.40607 -7.17299e-20)
(-4.99199 0.311433 0)
(-5.03436 0.215263 -7.01671e-20)
(-5.05127 0.118941 2.23779e-22)
(-5.04337 0.0236181 0)
(-5.0128 -0.0691658 0)
(-4.96087 -0.156805 6.76561e-20)
(-4.88934 -0.237001 0)
(-4.80054 -0.307643 0)
(-4.69671 -0.367124 -6.60926e-20)
(-4.5802 -0.414033 -1.31557e-19)
(-4.45332 -0.447414 6.54439e-20)
(-4.31851 -0.466656 0)
(-4.17847 -0.471805 -6.46046e-20)
(-4.03634 -0.463867 0)
(-3.89571 -0.445013 -6.37106e-20)
(-3.76024 -0.418535 -6.33364e-20)
(-3.63301 -0.388434 1.25774e-19)
(-3.51565 -0.358708 6.24358e-20)
(-3.40794 -0.332654 0)
(-3.30806 -0.312522 -1.23074e-19)
(-3.21325 -0.29978 0)
(-3.12023 -0.295497 -1.81847e-19)
(-3.02541 -0.300317 -1.20288e-19)
(-2.92502 -0.314132 -1.19369e-19)
(-2.81541 -0.335846 1.18463e-19)
(-2.69362 -0.363427 -1.76405e-19)
(-2.55783 -0.394346 0)
(-2.40731 -0.42623 0)
(-2.24213 -0.456986 1.15001e-19)
(-2.06325 -0.484505 1.71316e-19)
(-1.8726 -0.506832 0)
(-1.67275 -0.522718 -5.63197e-20)
(-1.46653 -0.531384 0)
(-1.25736 -0.531947 1.66374e-19)
(-1.04878 -0.524414 5.77542e-23)
(-0.843917 -0.509749 -4.64568e-23)
(-0.645557 -0.489147 -1.08247e-19)
(-0.455798 -0.464254 0)
(-0.275851 -0.436636 1.06335e-19)
(-0.106447 -0.407691 2.26771e-23)
(0.0512015 -0.379303 0)
(0.197969 -0.351157 0)
(0.335186 -0.32403 0)
(0.46276 -0.298233 -1.01044e-19)
(0.581189 -0.273951 0)
(0.690978 -0.251261 0)
(0.792653 -0.230167 0)
(0.886778 -0.21062 0)
(0.973941 -0.192535 0)
(1.05475 -0.175805 -9.44157e-20)
(1.12979 -0.160316 0)
(1.19965 -0.145962 -9.22418e-20)
(1.26482 -0.132652 -9.11594e-20)
(1.32573 -0.120319 9.00833e-20)
(1.38274 -0.108917 0)
(1.43612 -0.0984208 8.79515e-20)
(1.48611 -0.0888139 0)
(1.53293 -0.0800864 8.58483e-20)
(1.5768 -0.0722258 -8.48079e-20)
(1.61796 -0.0652124 -2.51318e-19)
(1.65666 -0.059013 0)
(1.69319 -0.0535787 -2.4519e-19)
(1.72783 -0.0488488 -8.07165e-20)
(1.76084 -0.0447464 0)
(1.79249 -0.0411884 -1.57445e-19)
(1.82299 -0.0380898 -1.55471e-19)
(1.85253 -0.0353648 2.30269e-19)
(1.88125 -0.0329362 0)
(1.90927 -0.0307378 7.482e-20)
(1.93663 -0.0287255 7.38619e-20)
(1.96337 -0.026859 2.18729e-19)
(1.98949 -0.0251117 0)
(2.01499 -0.0234846 0)
(2.03985 -0.0219771 0)
(2.06404 -0.0205821 6.91725e-20)
(2.08753 -0.0192967 0)
(2.1103 -0.0181191 0)
(2.13235 -0.017044 -6.64414e-20)
(2.15367 -0.0160614 -6.55431e-20)
(2.17425 -0.0151596 0)
(2.19409 -0.0143276 0)
(2.21322 -0.0135547 -1.25771e-19)
(2.23162 -0.0128272 0)
(2.24931 -0.0121308 1.22288e-19)
(2.26631 -0.0114592 1.20563e-19)
(2.28261 -0.0108141 0)
(2.29821 -0.0101915 0)
(2.3131 -0.00957797 -1.1546e-19)
(2.32731 -0.00896084 -2.34214e-25)
(2.34087 -0.00833356 -1.91251e-25)
(2.35377 -0.00771076 0)
(2.36602 -0.00710456 -2.17621e-19)
(2.3776 -0.00651909 0)
(2.38852 -0.00595819 0)
(2.39879 -0.00542373 0)
(2.4084 -0.00491471 1.02329e-19)
(2.41737 -0.00443007 0)
(2.4257 -0.0039741 -1.98299e-19)
(2.4334 -0.00355059 -9.75741e-20)
(2.44049 -0.00315353 0)
(2.44699 -0.00278152 -9.44523e-20)
(2.45293 -0.00243627 0)
(2.45835 -0.00211081 0)
(2.46327 -0.00180448 -2.69521e-19)
(2.46772 -0.00151581 1.76643e-19)
(2.47172 -0.00124314 0)
(2.47531 -0.000984533 1.70621e-19)
(2.47851 -0.000738285 -8.38186e-20)
(2.48134 -0.000500425 0)
(2.48382 -0.000267955 0)
(2.48596 -3.10046e-05 0)
(2.4878 0.000214163 -2.33811e-19)
(2.48933 0.000488065 0)
(2.49057 0.00078644 -7.50472e-20)
(2.49151 0.00115163 0)
(2.49212 0.00155005 0)
(2.49243 0.00208499 0)
(2.49232 0.00263967 0)
(2.49191 0.00348758 0)
(2.49083 0.00427503 0)
(2.48952 0.00573461 -1.30387e-19)
(2.48699 0.00684785 0)
(2.48455 0.00957658 -6.24574e-20)
(2.47952 0.0110937 1.83301e-19)
(2.4758 0.0166206 0)
(2.46603 0.0185544 0)
(2.46144 0.0305938 -1.14189e-19)
(2.44216 0.0329631 -1.11594e-19)
(2.43916 0.0605775 1.0897e-19)
(2.40223 0.0652482 1.0647e-19)
(0.0443177 -0.505661 1.72696e-19)
(0.111871 -0.719465 1.71365e-19)
(0.170472 -0.755698 1.13372e-19)
(0.229284 -0.775735 5.62653e-20)
(0.293419 -0.800086 0)
(0.362937 -0.82734 -1.10647e-19)
(0.437941 -0.85533 5.4875e-20)
(0.51854 -0.882643 0)
(0.605396 -0.907555 5.38851e-20)
(0.699271 -0.927534 0)
(0.79999 -0.938409 -1.05783e-19)
(0.906676 -0.933823 0)
(1.0175 -0.906002 -5.18913e-20)
(1.12875 -0.846151 -1.02766e-19)
(1.2332 -0.745433 1.01759e-19)
(1.32441 -0.599798 0)
(1.39197 -0.407856 9.98379e-20)
(1.43113 -0.175749 0)
(1.43086 0.0837694 0)
(1.38944 0.351846 9.72735e-20)
(1.30361 0.611716 0)
(1.17217 0.84676 -2.99363e-22)
(1.00299 1.04538 0)
(0.80893 1.20001 0)
(0.607673 1.29958 1.99686e-22)
(0.423211 1.29978 9.36869e-20)
(0.273021 1.1098 9.2991e-20)
(0.131945 0.836804 9.25447e-20)
(-0.30676 0.956944 0)
(-0.950813 1.36435 1.81653e-19)
(-1.50016 1.64144 0)
(-1.90227 1.76638 8.87839e-20)
(-2.20553 1.83138 0)
(-2.44934 1.84138 0)
(-2.64462 1.83157 -8.59128e-20)
(-2.81556 1.79185 0)
(-2.97425 1.73453 8.40144e-20)
(-3.13007 1.66343 3.55288e-22)
(-3.28756 1.58489 -1.64528e-19)
(-3.4486 1.50381 1.62172e-19)
(-3.61199 1.42077 0)
(-3.7761 1.33692 0)
(-3.93724 1.25063 7.76646e-20)
(-4.09234 1.1608 0)
(-4.23753 1.06578 7.64079e-20)
(-4.3696 0.964516 -7.54117e-20)
(-4.48538 0.856378 -7.44401e-20)
(-4.5824 0.741245 0)
(-4.65865 0.61971 7.26022e-20)
(-4.7128 0.493084 7.17499e-20)
(-4.74425 0.36328 -1.41273e-19)
(-4.7534 0.232361 7.02052e-20)
(-4.74178 0.102288 6.95144e-20)
(-4.71114 -0.0245032 0)
(-4.66258 -0.144187 0)
(-4.59828 -0.25431 -6.76957e-20)
(-4.52171 -0.353019 0)
(-4.43583 -0.43893 0)
(-4.34368 -0.51105 1.32479e-19)
(-4.24751 -0.56856 1.31612e-19)
(-4.14879 -0.610765 0)
(-4.04813 -0.636986 0)
(-3.9454 -0.646699 0)
(-3.84033 -0.639855 0)
(-3.73311 -0.617569 1.27484e-19)
(-3.62518 -0.58275 -1.26599e-19)
(-3.51935 -0.540324 -1.25774e-19)
(-3.4189 -0.496587 -2.49761e-19)
(-3.32591 -0.457659 0)
(-3.24004 -0.427905 2.60569e-23)
(-3.15873 -0.409672 0)
(-3.07814 -0.40432 1.21205e-19)
(-2.99419 -0.412652 7.63264e-23)
(-2.903 -0.434571 1.19352e-19)
(-2.80098 -0.468481 -1.18442e-19)
(-2.68504 -0.511187 1.29984e-22)
(-2.55329 -0.558593 0)
(-2.40496 -0.606764 -1.15655e-19)
(-2.23985 -0.652573 -1.14967e-19)
(-2.05835 -0.693284 -2.28109e-19)
(-1.86196 -0.726274 0)
(-1.65328 -0.749676 1.12358e-19)
(-1.43584 -0.762338 0)
(-1.2144 -0.762574 -2.21614e-19)
(-0.994001 -0.750388 1.1001e-19)
(-0.779124 -0.727554 -1.09132e-19)
(-0.573156 -0.696085 1.08225e-19)
(-0.378405 -0.658695 2.14483e-19)
(-0.195841 -0.617947 -1.06319e-19)
(-0.026335 -0.576091 1.05317e-19)
(0.130467 -0.535342 0)