/*--------------------------------*- C++ -*----------------------------------*\
  =========                 |
  \\      /  F ield         | OpenFOAM: The Open Source CFD Toolbox
   \\    /   O peration     | Website:  https://openfoam.org
    \\  /    A nd           | Version:  7
     \\/     M anipulation  |
\*---------------------------------------------------------------------------*/
FoamFile
{
    version     2.0;
    format      ascii;
    class       volVectorField;
    location    "0.044";
    object      UMean;
}
// * * * * * * * * * * * * * * * * * * * * * * * * * * * * * * * * * * * * * //

dimensions      [0 1 -1 0 0 0 0];

internalField   nonuniform List<vector> 
12225
(
(4.77782 0.164411 0)
(4.18749 0.110921 0)
(3.73146 0.0971504 0)
(3.36884 0.0802099 0)
(3.04576 0.0665975 0)
(2.74813 0.05646 0)
(2.47736 0.047468 0)
(2.23773 0.0390778 0)
(2.03287 0.0302469 0)
(1.86173 0.0228271 0)
(1.72631 0.014321 0)
(1.61923 0.00979452 0)
(1.54527 0.00078426 0)
(1.49006 0.00249504 0)
(1.46275 -0.0118778 0)
(1.44818 0.00304009 0)
(1.45704 -0.0325288 0)
(1.48893 0.00213858 0)
(5.02129 0.112524 0)
(4.87868 0.0724343 0)
(4.76383 0.0879004 0)
(4.6773 0.0866534 0)
(4.58875 0.0842931 0)
(4.49085 0.0836163 0)
(4.38533 0.0826015 0)
(4.27829 0.079104 0)
(4.17208 0.0741458 0)
(4.07264 0.0662349 0)
(3.9781 0.0588602 0)
(3.89638 0.0479159 0)
(3.81906 0.0411949 0)
(3.76065 0.0279099 0)
(3.70049 0.0250734 0)
(3.66859 0.00650488 0)
(3.62558 0.00493943 0)
(3.6184 -0.0348004 0)
(4.996 0.172142 0)
(4.87963 0.121456 0)
(4.80303 0.128643 0)
(4.7739 0.122111 0)
(4.76042 0.113754 0)
(4.74755 0.109001 0)
(4.73308 0.105191 0)
(4.71751 0.100739 0)
(4.7012 0.0937731 0)
(4.68371 0.0860951 0)
(4.66567 0.0754238 0)
(4.64676 0.0664812 0)
(4.62923 0.0535209 0)
(4.61192 0.0461595 0)
(4.5992 0.0309987 0)
(4.58718 0.0244809 0)
(4.58342 0.0026048 0)
(4.57623 -0.0210672 0)
(4.9968 0.188039 0)
(4.90283 0.118513 0)
(4.82738 0.116294 0)
(4.79414 0.111143 0)
(4.78238 0.102923 0)
(4.77654 0.0973712 0)
(4.77335 0.0939627 0)
(4.77331 0.0898899 0)
(4.77619 0.0845255 0)
(4.7809 0.0770998 0)
(4.78637 0.0690719 0)
(4.79186 0.0592823 0)
(4.79773 0.0502274 0)
(4.80366 0.039134 0)
(4.81184 0.0292868 0)
(4.82028 0.015534 0)
(4.83355 -0.000886986 0)
(4.84304 -0.0245544 0)
(4.9961 0.214075 0)
(4.92636 0.142844 0)
(4.85896 0.132831 0)
(4.82343 0.127169 0)
(4.80941 0.116976 0)
(4.80265 0.108109 0)
(4.79891 0.101504 0)
(4.79838 0.0954519 0)
(4.8014 0.0882262 0)
(4.80703 0.0799925 0)
(4.81443 0.0703906 0)
(4.82257 0.0604841 0)
(4.83166 0.0494925 0)
(4.84138 0.0384431 0)
(4.85283 0.0259953 0)
(4.86521 0.011524 0)
(4.8796 -0.00593987 0)
(4.89194 -0.0313135 0)
(4.98905 0.228317 0)
(4.93795 0.155954 0)
(4.88058 0.137277 0)
(4.84644 0.129559 0)
(4.83261 0.118289 0)
(4.82698 0.107254 0)
(4.82413 0.098642 0)
(4.8237 0.0911767 0)
(4.82623 0.0833758 0)
(4.83127 0.0745258 0)
(4.83813 0.0647961 0)
(4.8459 0.0542511 0)
(4.85466 0.0431616 0)
(4.86397 0.0312647 0)
(4.87467 0.0182062 0)
(4.88575 0.00313316 0)
(4.89787 -0.015264 0)
(4.90774 -0.0381609 0)
(4.99427 0.244017 0)
(4.95666 0.173088 0)
(4.90746 0.147149 0)
(4.87407 0.136358 0)
(4.85918 0.124266 0)
(4.85341 0.111827 0)
(4.85065 0.101297 0)
(4.84982 0.0922875 0)
(4.85157 0.0833586 0)
(4.85578 0.0737299 0)
(4.86195 0.0632982 0)
(4.86919 0.052157 0)
(4.87743 0.0403901 0)
(4.88609 0.0276952 0)
(4.89576 0.0139299 0)
(4.90521 -0.00189911 0)
(4.91519 -0.0200494 0)
(4.92245 -0.0415279 0)
(5.00241 0.253518 0)
(4.97631 0.187048 0)
(4.93606 0.155946 0)
(4.90499 0.141245 0)
(4.8895 0.12795 0)
(4.88358 0.114259 0)
(4.8813 0.101989 0)
(4.88078 0.0913183 0)
(4.88236 0.0812079 0)
(4.88605 0.0707356 0)
(4.89155 0.0596348 0)
(4.89801 0.0479055 0)
(4.90534 0.0355772 0)
(4.91285 0.0224154 0)
(4.9211 0.00816473 0)
(4.92878 -0.00773986 0)
(4.93674 -0.0254793 0)
(4.94192 -0.0454895 0)
(5.00243 0.260888 0)
(4.98507 0.199287 0)
(4.95365 0.164817 0)
(4.92701 0.146356 0)
(4.91282 0.131676 0)
(4.90759 0.11701 0)
(4.90606 0.103308 0)
(4.90605 0.0911352 0)
(4.9076 0.0798683 0)
(4.91088 0.068634 0)
(4.91581 0.0569898 0)
(4.92173 0.044759 0)
(4.92844 0.0319462 0)
(4.93523 0.0183351 0)
(4.94243 0.0037767 0)
(4.94887 -0.0121177 0)
(4.95521 -0.0293475 0)
(4.95903 -0.0480326 0)
(4.99579 0.267955 0)
(4.98677 0.210783 0)
(4.96326 0.174132 0)
(4.9407 0.152006 0)
(4.92761 0.135361 0)
(4.92272 0.119694 0)
(4.92176 0.104898 0)
(4.92233 0.091458 0)
(4.92412 0.0790303 0)
(4.92731 0.0668893 0)
(4.93193 0.0545396 0)
(4.93745 0.0417648 0)
(4.94365 0.0285026 0)
(4.94988 0.0146049 0)
(4.95623 -3.50347e-05 0)
(4.96177 -0.0156309 0)
(4.96689 -0.0321207 0)
(4.96987 -0.0494596 0)
(4.98866 0.269554 0)
(4.98273 0.217125 0)
(4.96441 0.179965 0)
(4.94541 0.155332 0)
(4.9335 0.13682 0)
(4.92865 0.120139 0)
(4.92776 0.104406 0)
(4.92854 0.0898581 0)
(4.93039 0.0764134 0)
(4.93332 0.0634997 0)
(4.93743 0.0505931 0)
(4.9423 0.0373986 0)
(4.94777 0.0238102 0)
(4.95313 0.00973922 0)
(4.95859 -0.00486682 0)
(4.96311 -0.0200972 0)
(4.9674 -0.0358507 0)
(4.96959 -0.0520243 0)
(5.00967 0.27472 0)
(5.00552 0.225609 0)
(4.99044 0.188104 0)
(4.97376 0.161355 0)
(4.96255 0.140907 0)
(4.95756 0.123066 0)
(4.9565 0.106455 0)
(4.95723 0.0910062 0)
(4.95896 0.0766293 0)
(4.96152 0.0629266 0)
(4.96502 0.0494311 0)
(4.96907 0.0358121 0)
(4.9736 0.0219324 0)
(4.97787 0.0077239 0)
(4.98218 -0.00682543 0)
(4.98543 -0.0217331 0)
(4.98859 -0.0368893 0)
(4.98967 -0.0521774 0)
(5.00024 0.276826 0)
(5.0008 0.229644 0)
(4.99089 0.192283 0)
(4.97843 0.164072 0)
(4.96975 0.141916 0)
(4.96599 0.122863 0)
(4.96556 0.105382 0)
(4.96673 0.089129 0)
(4.96876 0.0739955 0)
(4.97144 0.0596924 0)
(4.9749 0.0458032 0)
(4.97879 0.031991 0)
(4.98308 0.0180854 0)
(4.98705 0.00399665 0)
(4.99099 -0.0102726 0)
(4.99389 -0.0247154 0)
(4.99674 -0.0392207 0)
(4.99768 -0.0536839 0)
(5.01389 0.279845 0)
(5.01675 0.235672 0)
(5.00957 0.19883 0)
(4.99922 0.169509 0)
(4.99191 0.145779 0)
(4.98884 0.125428 0)
(4.98868 0.107029 0)
(4.98992 0.0899871 0)
(4.99183 0.0740749 0)
(4.99414 0.0590156 0)
(4.99701 0.044496 0)
(5.00019 0.0302239 0)
(5.00378 0.01604 0)
(5.00716 0.00186433 0)
(5.0106 -0.0122872 0)
(5.01309 -0.0263934 0)
(5.01562 -0.040355 0)
(5.01637 -0.0540742 0)
(5.00856 0.277449 0)
(5.01345 0.23699 0)
(5.00963 0.201067 0)
(5.0032 0.170827 0)
(4.99906 0.14554 0)
(4.99806 0.123875 0)
(4.99925 0.10466 0)
(5.00152 0.0871308 0)
(5.00434 0.0708238 0)
(5.0074 0.0553947 0)
(5.01075 0.0405568 0)
(5.01417 0.0260825 0)
(5.01769 0.011856 0)
(5.02084 -0.00217477 0)
(5.02386 -0.0159772 0)
(5.026 -0.0295318 0)
(5.02802 -0.0427473 0)
(5.02861 -0.0555792 0)
(5.00811 0.281861 0)
(5.01425 0.242247 0)
(5.01297 0.206334 0)
(5.00902 0.175184 0)
(5.00661 0.148585 0)
(5.00651 0.125564 0)
(5.00807 0.105105 0)
(5.01056 0.0864962 0)
(5.01359 0.0693053 0)
(5.01684 0.0532161 0)
(5.02026 0.0379448 0)
(5.02359 0.0232664 0)
(5.02687 0.00904182 0)
(5.02972 -0.00477066 0)
(5.03236 -0.0181725 0)
(5.03422 -0.0311232 0)
(5.03595 -0.0436221 0)
(5.03653 -0.055605 0)
(5.00316 0.276631 0)
(5.01038 0.238779 0)
(5.01099 0.203646 0)
(5.00952 0.172392 0)
(5.00979 0.145108 0)
(5.01218 0.121231 0)
(5.01569 0.100038 0)
(5.01958 0.0809077 0)
(5.02356 0.0633672 0)
(5.02747 0.0470716 0)
(5.03129 0.0317556 0)
(5.0348 0.0172166 0)
(5.03805 0.00331205 0)
(5.0407 -0.010041 0)
(5.04305 -0.0228752 0)
(5.04457 -0.0351921 0)
(5.046 -0.0469872 0)
(5.04631 -0.0582635 0)
(5.00913 0.281052 0)
(5.0171 0.24145 0)
(5.01974 0.205188 0)
(5.02114 0.172644 0)
(5.02422 0.143872 0)
(5.02882 0.118633 0)
(5.03389 0.0964379 0)
(5.03879 0.0767115 0)
(5.04336 0.0589199 0)
(5.04756 0.0426483 0)
(5.05147 0.027598 0)
(5.05494 0.0135707 0)
(5.05806 0.000402628 0)
(5.06055 -0.0120128 0)
(5.06271 -0.023793 0)
(5.06408 -0.0349847 0)
(5.06536 -0.0456855 0)
(5.06558 -0.0558795 0)
(5.00687 0.276233 0)
(5.01859 0.234259 0)
(5.02552 0.195994 0)
(5.03108 0.162353 0)
(5.03797 0.133215 0)
(5.04585 0.107957 0)
(5.05355 0.0858067 0)
(5.06049 0.0660595 0)
(5.06664 0.048209 0)
(5.07205 0.0319283 0)
(5.07683 0.0169904 0)
(5.08089 0.00321098 0)
(5.08434 -0.00957488 0)
(5.08698 -0.0215084 0)
(5.08913 -0.032709 0)
(5.09046 -0.043265 0)
(5.09162 -0.0532503 0)
(5.09183 -0.0627157 0)
(5.00142 0.271608 0)
(5.01331 0.226087 0)
(5.02267 0.184683 0)
(5.03233 0.149164 0)
(5.04356 0.119542 0)
(5.05508 0.0948559 0)
(5.06543 0.0739212 0)
(5.07423 0.0557604 0)
(5.08179 0.0397172 0)
(5.08845 0.0253955 0)
(5.09442 0.0125083 0)
(5.09962 0.000804999 0)
(5.10409 -0.00996805 0)
(5.10767 -0.0199972 0)
(5.11061 -0.0294584 0)
(5.11265 -0.0384166 0)
(5.11433 -0.0469812 0)
(5.11499 -0.0551209 0)
(5.00028 0.270567 0)
(5.01506 0.21703 0)
(5.02929 0.171448 0)
(5.0445 0.134281 0)
(5.06063 0.104246 0)
(5.07603 0.0793366 0)
(5.08949 0.0579028 0)
(5.10085 0.0390496 0)
(5.11047 0.0224128 0)
(5.11869 0.00778776 0)
(5.12573 -0.00507513 0)
(5.13159 -0.0164758 0)
(5.13645 -0.0267076 0)
(5.14023 -0.0360143 0)
(5.1433 -0.0445865 0)
(5.14536 -0.0525658 0)
(5.14706 -0.0600456 0)
(5.14764 -0.0671009 0)
(5.01293 0.264409 0)
(5.0324 0.201586 0)
(5.05342 0.152678 0)
(5.07478 0.116623 0)
(5.09492 0.0898197 0)
(5.1123 0.0686768 0)
(5.12674 0.0508755 0)
(5.13901 0.0353449 0)
(5.14981 0.0216769 0)
(5.15928 0.00962416 0)
(5.16739 -0.00109044 0)
(5.17403 -0.0107251 0)
(5.17938 -0.0195089 0)
(5.18347 -0.0275934 0)
(5.18673 -0.035118 0)
(5.18899 -0.0421515 0)
(5.19084 -0.0488155 0)
(5.19165 -0.0551148 0)
(5.00407 0.258223 0)
(5.03256 0.184345 0)
(5.06466 0.130445 0)
(5.0956 0.0929582 0)
(5.12244 0.0652249 0)
(5.14399 0.0425069 0)
(5.16099 0.0230831 0)
(5.17488 0.00682719 0)
(5.18666 -0.00643371 0)
(5.19664 -0.0173068 0)
(5.20492 -0.0265203 0)
(5.21153 -0.0346311 0)
(5.21678 -0.0419531 0)
(5.22077 -0.0486578 0)
(5.22389 -0.0548529 0)
(5.22597 -0.0606411 0)
(5.22754 -0.0660894 0)
(5.22802 -0.0712679 0)
(5.00711 0.243619 0)
(5.04542 0.161985 0)
(5.08893 0.111846 0)
(5.12714 0.0832869 0)
(5.15671 0.0635641 0)
(5.17917 0.0460164 0)
(5.1976 0.029933 0)
(5.21388 0.0160439 0)
(5.22823 0.00448803 0)
(5.24021 -0.00525202 0)
(5.24976 -0.0137695 0)
(5.25714 -0.0213941 0)
(5.2629 -0.02827 0)
(5.26729 -0.0344858 0)
(5.27074 -0.0401813 0)
(5.27311 -0.0454654 0)
(5.27493 -0.0504706 0)
(5.27568 -0.0552154 0)
(5.00862 0.226161 0)
(5.06235 0.124452 0)
(5.12316 0.0696334 0)
(5.17103 0.041067 0)
(5.20341 0.0204839 0)
(5.22616 0.00241542 0)
(5.24492 -0.0121674 0)
(5.26169 -0.0228598 0)
(5.27633 -0.0308259 0)
(5.28833 -0.0374063 0)
(5.29778 -0.0432923 0)
(5.30512 -0.048673 0)
(5.31092 -0.053581 0)
(5.31538 -0.0580898 0)
(5.31887 -0.0622883 0)
(5.32123 -0.0662675 0)
(5.32297 -0.0700613 0)
(5.32359 -0.0737131 0)
(5.01207 0.210433 0)
(5.0884 0.110772 0)
(5.1679 0.0747421 0)
(5.22285 0.0578024 0)
(5.25648 0.039158 0)
(5.28086 0.0205148 0)
(5.30257 0.00569507 0)
(5.32198 -0.00490917 0)
(5.33792 -0.0129528 0)
(5.35011 -0.0197795 0)
(5.35928 -0.0258707 0)
(5.36622 -0.031313 0)
(5.3716 -0.036167 0)
(5.37561 -0.0405535 0)
(5.37858 -0.0446064 0)
(5.38041 -0.0484158 0)
(5.38161 -0.0520481 0)
(5.38181 -0.0555141 0)
(5.00397 0.158807 0)
(5.11869 0.0337778 0)
(5.2166 0.00548449 0)
(5.27156 -0.0044397 0)
(5.30185 -0.0188627 0)
(5.32583 -0.031506 0)
(5.34856 -0.039553 0)
(5.36872 -0.0447321 0)
(5.38487 -0.0488982 0)
(5.39713 -0.0527058 0)
(5.40651 -0.0561764 0)
(5.41385 -0.0592968 0)
(5.41974 -0.0621278 0)
(5.42433 -0.0647859 0)
(5.42795 -0.0673319 0)
(5.43045 -0.0698321 0)
(5.43236 -0.0722862 0)
(5.43319 -0.0747355 0)
(5.01457 0.151133 0)
(5.17808 0.0562215 0)
(5.30009 0.0422514 0)
(5.35791 0.0255348 0)
(5.38863 0.00614549 0)
(5.41497 -0.00760255 0)
(5.43948 -0.0157969 0)
(5.46004 -0.0215567 0)
(5.4759 -0.0265432 0)
(5.4878 -0.0310864 0)
(5.49676 -0.0351442 0)
(5.50355 -0.0387914 0)
(5.50857 -0.0421013 0)
(5.51201 -0.045205 0)
(5.51405 -0.0481015 0)
(5.51472 -0.0509006 0)
(5.5143 -0.0535573 0)
(5.5127 -0.0561981 0)
(5.016 0.020277 0)
(5.22922 -0.0513092 0)
(5.35395 -0.0344577 0)
(5.40507 -0.0431739 0)
(5.43256 -0.0534401 0)
(5.4538 -0.0581573 0)
(5.46919 -0.0600416 0)
(5.47714 -0.0614547 0)
(5.47773 -0.0628963 0)
(5.47227 -0.0642447 0)
(5.46201 -0.0654019 0)
(5.44808 -0.0664261 0)
(5.43096 -0.0673489 0)
(5.41141 -0.068254 0)
(5.38934 -0.069102 0)
(5.36577 -0.0699838 0)
(5.33994 -0.0708297 0)
(5.31368 -0.0717918 0)
(4.97021 0.0684524 0)
(5.10592 -0.0016552 0)
(5.0759 -0.00182402 0)
(4.95939 -0.01202 0)
(4.82978 -0.0195642 0)
(4.70371 -0.0225313 0)
(4.58111 -0.0236815 0)
(4.46017 -0.0244346 0)
(4.34057 -0.0249935 0)
(4.22309 -0.0253286 0)
(4.10851 -0.0254755 0)
(3.99748 -0.0255109 0)
(3.88991 -0.0254815 0)
(3.78613 -0.025424 0)
(3.68542 -0.0253298 0)
(3.58865 -0.0252398 0)
(3.49417 -0.0251297 0)
(3.40429 -0.0251007 0)
(0.00376646 -0.0188013 2.20976e-21)
(0.0231882 -0.0372394 -2.19585e-21)
(0.0514486 -0.0423954 0)
(0.0785337 -0.0424529 0)
(0.104674 -0.0408276 0)
(0.129477 -0.0387105 2.12713e-21)
(0.152946 -0.0364704 0)
(0.175054 -0.0341982 0)
(0.195801 -0.0318538 0)
(0.215044 -0.0293488 0)
(0.232503 -0.0265433 -2.02398e-21)
(0.247707 -0.0232801 0)
(0.260032 -0.0193846 0)
(0.268609 -0.0147005 0)
(0.272499 -0.00907717 0)
(0.270458 -0.00244187 -1.90705e-21)
(0.261452 0.00527176 0)
(0.24402 0.0140077 0)
(0.217574 0.0237062 0)
(0.180429 0.0341504 0)
(0.131999 0.0448592 0)
(0.0722544 0.0551351 0)
(0.00191576 0.064075 0)
(-0.0776381 0.070663 -1.76797e-21)
(-0.164066 0.0736672 1.75584e-21)
(-0.255154 0.0730485 -1.74328e-21)
(-0.347584 0.0685168 -1.7299e-21)
(-0.438941 0.0633637 0)
(-0.530359 0.0602369 0)
(-0.61433 0.0501796 1.68304e-21)
(-0.693829 0.0390242 1.66522e-21)
(-0.781122 0.0380827 0)
(-0.881955 0.0507705 0)
(-0.99504 0.0786374 1.60191e-21)
(-1.11939 0.110969 0)
(-1.25108 0.125041 0)
(-1.37508 0.117713 -1.52976e-21)
(-1.48596 0.105675 0)
(-1.58375 0.0929189 -1.47289e-21)
(-1.66779 0.079937 -2.88845e-21)
(-1.73819 0.0671621 0)
(-1.795 0.0547733 0)
(-1.83847 0.0428906 0)
(-1.86882 0.0315725 0)
(-1.88636 0.0208475 0)
(-1.89141 0.0107346 -2.63674e-21)
(-1.88439 0.00123244 -2.61841e-21)
(-1.86575 -0.00764245 -2.60782e-21)
(-1.83601 -0.0158688 0)
(-1.79575 -0.0233862 2.60923e-21)
(-1.74561 -0.0301476 0)
(-1.68637 -0.0361209 -2.63787e-21)
(-1.61912 -0.041308 -2.66066e-21)
(-1.54457 -0.045742 0)
(-1.46374 -0.0494291 0)
(-1.37747 -0.0524045 0)
(-1.28679 -0.0547006 -2.78668e-21)
(-1.19247 -0.0564062 0)
(-1.09536 -0.0575551 0)
(-0.996151 -0.0582233 0)
(-0.895507 -0.0584584 0)
(-0.794001 -0.0583359 0)
(-0.692149 -0.0578945 0)
(-0.590386 -0.0571866 0)
(-0.48912 -0.0562451 0)
(-0.388696 -0.0551222 3.05491e-21)
(-0.289395 -0.0538491 0)
(-0.191443 -0.052473 0)
(-0.0949926 -0.0510381 -3.09965e-21)
(-0.00012804 -0.0495782 -3.10914e-21)
(0.0931 -0.0481191 0)
(0.184666 -0.0466661 3.12077e-21)
(0.274545 -0.0452154 -3.12315e-21)
(0.3627 -0.0437614 0)
(0.449044 -0.0422883 3.12148e-21)
(0.53348 -0.040777 0)
(0.615893 -0.039223 0)
(0.696153 -0.0376112 -3.10347e-21)
(0.774129 -0.0359397 0)
(0.849632 -0.0341949 3.0815e-21)
(0.922474 -0.0323666 0)
(0.992436 -0.0304625 -3.05181e-21)
(1.05931 -0.0284886 -3.03419e-21)
(1.12291 -0.0264692 -3.01484e-21)
(1.18314 -0.0244305 -5.98775e-21)
(1.23989 -0.0224024 5.9429e-21)
(1.29316 -0.0204098 0)
(1.34295 -0.0184754 0)
(1.38933 -0.0166163 0)
(1.43238 -0.0148534 5.741e-21)
(1.47222 -0.013191 5.68656e-21)
(1.50901 -0.011628 -5.63114e-21)
(1.54291 -0.0101692 0)
(1.57404 -0.00881448 5.51837e-21)
(1.60256 -0.00756184 5.46142e-21)
(1.62863 -0.00640825 5.4043e-21)
(1.65238 -0.00534999 0)
(1.67396 -0.00438297 0)
(1.69351 -0.00350282 0)
(1.71116 -0.00270509 5.17653e-21)
(1.72705 -0.00198527 0)
(1.7413 -0.00133888 0)
(1.75402 -0.000761458 -5.00857e-21)
(1.76534 -0.000248573 0)
(1.77536 0.000204197 0)
(1.78418 0.000601244 -4.84435e-21)
(1.79191 0.000946935 0)
(1.79862 0.00124559 0)
(1.80441 0.00150141 4.68432e-21)
(1.80936 0.00171838 4.63193e-21)
(1.81353 0.00190027 0)
(1.817 0.00205043 -4.52858e-21)
(1.81982 0.00217186 0)
(1.82206 0.00226732 4.42709e-21)
(1.82377 0.00233894 0)
(1.82499 0.0023889 4.32743e-21)
(1.82578 0.00241937 4.27826e-21)
(1.82617 0.00243156 0)
(1.82621 0.00242782 0)
(1.82593 0.00241008 0)
(1.82538 0.00237647 0)
(1.8246 0.00232705 0)
(1.82361 0.00226439 0)
(1.82246 0.00219103 0)
(1.82117 0.00210938 3.89977e-21)
(1.81978 0.00202201 -3.8542e-21)
(1.8183 0.00193135 0)
(1.81676 0.00183945 0)
(1.81517 0.00174803 0)
(1.81354 0.00165844 0)
(1.81189 0.00157176 -7.26347e-21)
(1.81023 0.00148882 0)
(1.80856 0.00141009 7.09026e-21)
(1.80688 0.0013358 -7.00463e-21)
(1.8052 0.00126599 0)
(1.80352 0.00120069 0)
(1.80184 0.00113996 0)
(1.80017 0.00108385 6.66834e-21)
(1.7985 0.00103234 6.58578e-21)
(1.79683 0.000985375 0)
(1.79517 0.000942726 6.4224e-21)
(1.79351 0.000904096 6.34157e-21)
(1.79185 0.000869205 -6.2613e-21)
(1.79019 0.000837825 0)
(1.78853 0.000809752 0)
(1.78687 0.000784822 -6.02379e-21)
(1.78521 0.000762906 0)
(1.78355 0.000743919 0)
(1.78188 0.000727745 0)
(1.7802 0.00071423 0)
(1.77851 0.000703171 5.63853e-21)
(1.7768 0.000694373 5.56301e-21)
(1.77508 0.00068766 0)
(1.77333 0.000682962 5.41348e-21)
(1.77156 0.000680267 0)
(1.76975 0.000679738 0)
(1.76791 0.00068155 5.19287e-21)
(1.76602 0.00068615 0)
(1.76408 0.000693883 5.04822e-21)
(1.76209 0.000705621 0)
(1.76001 0.000721932 0)
(1.75785 0.000744352 4.83488e-21)
(1.75555 0.00077391 0)
(1.75315 0.000812839 4.69514e-21)
(1.75051 0.000863782 0)
(1.74775 0.000928506 0)
(1.74455 0.00101626 0)
(1.74124 0.0011209 -4.42208e-21)
(1.7371 0.00127806 0)
(1.7329 0.00144045 4.2893e-21)
(1.72715 0.00174501 0)
(1.72139 0.00197426 0)
(1.7129 0.00263965 0)
(1.70396 0.00287344 0)
(1.69106 0.00455652 0)
(1.6741 0.00440168 0)
(1.65539 0.00938484 0)
(1.61325 0.00726215 -7.62055e-21)
(1.59233 0.0254676 0)
(1.45489 0.0195864 0)
(0.00134683 -0.0367838 -6.63258e-21)
(0.00067972 -0.0684159 6.59039e-21)
(0.00246631 -0.0738562 0)
(0.00254613 -0.0704988 -4.32679e-21)
(0.00253255 -0.0658029 0)
(0.0023985 -0.0613755 -2.12853e-21)
(0.00241114 -0.0574307 4.21658e-21)
(0.00246474 -0.0536998 4.1767e-21)
(0.00242011 -0.0497854 0)
(0.00200052 -0.045244 4.09186e-21)
(0.000829395 -0.0396049 2.02529e-21)
(-0.00159392 -0.0323797 0)
(-0.00598868 -0.0230567 0)
(-0.0131306 -0.0111519 0)
(-0.0241719 0.00374641 0)
(-0.0400231 0.0218767 1.90825e-21)
(-0.0621063 0.0432648 0)
(-0.0910617 0.0675817 -3.71208e-21)
(-0.128548 0.0941593 0)
(-0.174178 0.122008 0)
(-0.228871 0.149711 3.59686e-21)
(-0.293336 0.175847 0)
(-0.367522 0.199267 -3.53997e-21)
(-0.451083 0.219043 1.76917e-21)
(-0.542979 0.234436 -1.75706e-21)
(-0.641783 0.243804 1.74453e-21)
(-0.745171 0.246461 1.73117e-21)
(-0.851218 0.246201 0)
(-0.95598 0.236573 0)
(-1.06412 0.221577 -1.68436e-21)
(-1.18787 0.233184 1.63426e-21)
(-1.31917 0.271879 0)
(-1.44933 0.298183 0)
(-1.56403 0.301784 -1.60333e-21)
(-1.65995 0.293126 0)
(-1.74296 0.273188 0)
(-1.81484 0.245534 1.53118e-21)
(-1.8767 0.215437 0)
(-1.9287 0.18422 -1.41656e-21)
(-1.9708 0.153117 2.89096e-21)
(-2.00306 0.122582 0)
(-2.02547 0.0929037 0)
(-2.03812 0.064181 5.38005e-21)
(-2.04105 0.0364631 5.3043e-21)
(-2.03433 0.00978182 5.24197e-21)
(-2.01804 -0.0158111 -2.5557e-21)
(-1.99223 -0.0402476 2.62001e-21)
(-1.95701 -0.063417 7.75391e-21)
(-1.91265 -0.0851874 -5.14307e-21)
(-1.85944 -0.105369 -2.61049e-21)
(-1.79784 -0.1238 0)
(-1.72839 -0.140331 2.63898e-21)
(-1.65146 -0.154895 -2.61235e-21)
(-1.56794 -0.167433 0)
(-1.47857 -0.177929 0)
(-1.38424 -0.186433 0)
(-1.28567 -0.19302 2.78752e-21)
(-1.18378 -0.19785 0)
(-1.07927 -0.201061 -5.69212e-21)
(-0.972879 -0.202843 0)
(-0.865221 -0.203372 -5.83184e-21)
(-0.756858 -0.202823 0)
(-0.648247 -0.201353 5.95491e-21)
(-0.539798 -0.199099 0)
(-0.431898 -0.196177 -6.05653e-21)
(-0.32488 -0.192713 3.04319e-21)
(-0.219005 -0.188808 0)
(-0.1145 -0.184603 6.16474e-21)
(-0.0114954 -0.180213 3.1e-21)
(0.0899543 -0.175763 3.10946e-21)
(0.189836 -0.171318 0)
(0.288163 -0.166919 3.11107e-21)
(0.38493 -0.162544 3.1234e-21)
(0.48011 -0.158155 0)
(0.573628 -0.153696 -3.12169e-21)
(0.66538 -0.149109 6.22731e-21)
(0.755241 -0.144381 0)
(0.843082 -0.139476 3.10364e-21)
(0.928772 -0.134376 0)
(1.01213 -0.12904 -9.23937e-21)
(1.09296 -0.123442 0)
(1.17102 -0.117581 9.1515e-21)
(1.24608 -0.111495 3.03429e-21)
(1.31797 -0.105246 -3.01171e-21)
(1.38655 -0.0989231 -5.98228e-21)
(1.45175 -0.0926114 5.93805e-21)
(1.51356 -0.086386 0)
(1.572 -0.0803284 0)
(1.62713 -0.0744865 0)
(1.67904 -0.0689066 -1.72197e-20)
(1.72788 -0.0636121 -5.68658e-21)
(1.77379 -0.0586015 5.63115e-21)
(1.81692 -0.0538853 0)
(1.8574 -0.0494614 5.51584e-21)
(1.89539 -0.0453234 -5.46139e-21)
(1.93102 -0.0414622 -5.40427e-21)
(1.96442 -0.0378667 0)
(1.99574 -0.0345249 0)
(2.0251 -0.0314245 0)
(2.05261 -0.0285531 -5.17646e-21)
(2.07839 -0.0258983 0)
(2.10256 -0.0234479 1.01268e-20)
(2.12521 -0.0211901 1.50241e-20)
(2.14644 -0.0191134 -9.90536e-21)
(2.16634 -0.0172065 0)
(2.185 -0.0154583 -4.8432e-21)
(2.20251 -0.0138581 0)
(2.21894 -0.0123953 -9.47321e-21)
(2.23435 -0.0110594 4.68336e-21)
(2.24883 -0.00984024 4.63103e-21)
(2.26243 -0.00872831 0)
(2.27522 -0.00771452 1.35846e-20)
(2.28723 -0.00679059 -8.95427e-21)
(2.29852 -0.0059488 -4.42691e-21)
(2.30914 -0.00518243 0)
(2.31911 -0.00448542 -4.32723e-21)
(2.32848 -0.00385232 -1.28338e-20)
(2.33728 -0.00327885 0)
(2.34553 -0.00276107 -8.36166e-21)
(2.35327 -0.00229551 -8.26589e-21)
(2.36051 -0.00188115 -8.17092e-21)
(2.36729 -0.00151631 0)
(2.37361 -0.00119741 0)
(2.3795 -0.000920493 0)
(2.38499 -0.000681807 3.89937e-21)
(2.39009 -0.00047734 3.85397e-21)
(2.39481 -0.000302988 0)
(2.39919 -0.000154805 7.52774e-21)
(2.40324 -2.91464e-05 7.43877e-21)
(2.40698 7.72827e-05 0)
(2.41042 0.000167386 7.26298e-21)
(2.41358 0.000243801 1.4352e-20)
(2.41648 0.000308765 -7.08977e-21)
(2.41914 0.000364043 -7.00404e-21)
(2.42156 0.000411067 0)
(2.42376 0.000451222 0)
(2.42576 0.000485849 0)
(2.42756 0.000515862 -6.66786e-21)
(2.42918 0.000541597 6.58524e-21)
(2.43063 0.000563091 1.30066e-20)
(2.43192 0.000580511 -6.42193e-21)
(2.43306 0.00059441 6.34106e-21)
(2.43406 0.000605409 6.26083e-21)
(2.43493 0.000614117 0)
(2.43569 0.000621097 0)
(2.43633 0.000626914 -6.0233e-21)
(2.43686 0.000632121 0)
(2.4373 0.000637263 0)
(2.43765 0.000642744 1.15812e-20)
(2.43792 0.000648951 0)
(2.43811 0.000656211 5.63806e-21)
(2.43822 0.000664839 -5.56259e-21)
(2.43827 0.000675113 0)
(2.43824 0.000687412 5.41302e-21)
(2.43815 0.000702173 0)
(2.438 0.000720047 0)
(2.43778 0.000741805 -5.19246e-21)
(2.4375 0.000768466 1.02397e-20)
(2.43715 0.000801373 -5.04782e-21)
(2.43672 0.000841887 0)
(2.43622 0.000892619 0)
(2.43562 0.000954839 4.83439e-21)
(2.43492 0.00103465 0)
(2.43411 0.00113104 4.69461e-21)
(2.43313 0.00126029 0)
(2.43201 0.00141011 0)
(2.43063 0.00162784 0)
(2.42903 0.00185876 4.42171e-21)
(2.42702 0.00224612 0)
(2.42465 0.00259095 -4.28893e-21)
(2.42164 0.00333266 0)
(2.41787 0.00380708 0)
(2.41328 0.00536426 8.1912e-21)
(2.40673 0.00588354 -8.06701e-21)
(2.39977 0.00951415 0)
(2.3869 0.00966251 0)
(2.37681 0.0192068 0)
(2.34796 0.018105 2.28416e-20)
(2.33635 0.0476217 0)
(2.26782 0.0482325 -1.48344e-20)
(-0.00226282 -0.0216348 1.70689e-24)
(-0.0229154 -0.0425292 -8.78901e-21)
(-0.0419814 -0.0450746 0)
(-0.0623368 -0.0421772 8.6563e-21)
(-0.0815989 -0.0399202 0)
(-0.100279 -0.0381127 0)
(-0.118261 -0.0363707 -1.78324e-24)
(-0.135902 -0.0341998 -4.17896e-21)
(-0.153417 -0.0311135 -4.13549e-21)
(-0.171129 -0.026554 -4.09405e-21)
(-0.189361 -0.0198811 0)
(-0.208509 -0.0103866 0)
(-0.229111 0.00270835 3.94977e-21)
(-0.251824 0.0201341 7.79839e-21)
(-0.277495 0.0424564 -7.69559e-21)
(-0.306974 0.0699007 0)
(-0.341445 0.102361 -7.49198e-21)
(-0.38176 0.139215 3.71384e-21)
(-0.429232 0.179584 0)
(-0.483943 0.222219 -7.22301e-21)
(-0.546574 0.265653 -3.59862e-21)
(-0.617246 0.307923 7.08501e-21)
(-0.695373 0.34681 3.54179e-21)
(-0.779666 0.379914 0)
(-0.869134 0.405497 -6.92312e-21)
(-0.962687 0.422023 -6.8702e-21)
(-1.05913 0.427975 0)
(-1.15773 0.423349 -6.7475e-21)
(-1.25956 0.419842 0)
(-1.37355 0.438288 -6.58942e-21)
(-1.4902 0.459604 -3.30273e-21)
(-1.5897 0.462887 0)
(-1.67442 0.452429 0)
(-1.74615 0.43168 0)
(-1.80732 0.404112 0)
(-1.86026 0.369328 0)
(-1.90677 0.329704 0)
(-1.94793 0.287519 -5.73751e-21)
(-1.98371 0.244239 8.51828e-21)
(-2.01377 0.200866 0)
(-2.0374 0.157865 0)
(-2.0539 0.11548 0)
(-2.06259 0.0738232 -1.41143e-22)
(-2.06284 0.032985 -5.30598e-21)
(-2.05416 -0.00691759 -1.0355e-20)
(-2.03617 -0.0457262 1.0264e-20)
(-2.00867 -0.0832196 5.04083e-21)
(-1.97156 -0.119132 -5.14583e-21)
(-1.92493 -0.153166 1.10431e-22)
(-1.86906 -0.185008 -5.05362e-21)
(-1.80439 -0.21436 0)
(-1.73157 -0.240949 -5.13503e-21)
(-1.65132 -0.264514 8.16586e-23)
(-1.56448 -0.284853 0)
(-1.47197 -0.301881 0)
(-1.37473 -0.315603 5.41244e-21)
(-1.27368 -0.326133 0)
(-1.1697 -0.333677 0)
(-1.06358 -0.338522 -5.61246e-21)
(-0.956014 -0.340991 -1.14574e-20)
(-0.847597 -0.34142 5.83228e-21)
(-0.738835 -0.340108 0)
(-0.630144 -0.337323 -5.95526e-21)
(-0.521861 -0.333303 0)
(-0.414322 -0.328232 -6.01316e-21)
(-0.307814 -0.322278 -6.09877e-21)
(-0.202594 -0.31562 1.22307e-20)
(-0.09889 -0.308467 6.12751e-21)
(0.00318304 -0.301038 0)
(0.103607 -0.29356 -1.23814e-20)
(0.202439 -0.286178 0)
(0.299767 -0.278945 -1.86623e-20)
(0.395669 -0.271812 -1.24414e-20)
(0.490149 -0.264667 -1.24445e-20)
(0.583125 -0.257399 1.24395e-20)
(0.674441 -0.249916 -1.86539e-20)
(0.763937 -0.242186 0)
(0.851475 -0.234174 0)
(0.936929 -0.225849 1.23404e-20)
(1.02012 -0.217124 1.84538e-20)
(1.10082 -0.207946 0)
(1.17874 -0.198291 -6.09951e-21)
(1.25361 -0.188236 0)
(1.32522 -0.177909 1.80685e-20)
(1.39343 -0.167452 9.80597e-24)
(1.4582 -0.157028 -8.66974e-24)
(1.5195 -0.146771 -1.17787e-20)
(1.57742 -0.136816 0)
(1.63203 -0.127254 1.15782e-20)
(1.68346 -0.118146 5.90414e-24)
(1.73188 -0.109521 0)
(1.77745 -0.101386 0)
(1.82034 -0.0937495 0)
(1.8607 -0.0866037 -1.1034e-20)
(1.89866 -0.079934 0)
(1.93439 -0.0737215 0)
(1.96803 -0.0679449 0)
(1.99972 -0.0625814 0)
(2.02958 -0.0576079 0)
(2.05774 -0.0530018 -1.03485e-20)
(2.08431 -0.048741 0)
(2.1094 -0.0448046 -1.01267e-20)
(2.1331 -0.0411724 -1.00156e-20)
(2.15552 -0.0378255 9.9053e-21)
(2.17672 -0.0347455 0)
(2.19679 -0.0319145 9.68737e-21)
(2.2158 -0.0293151 0)
(2.23382 -0.0269303 9.47315e-21)
(2.25091 -0.0247433 -9.36747e-21)
(2.26713 -0.0227378 -2.77858e-20)
(2.28255 -0.0208982 0)
(2.2972 -0.0192095 -2.71663e-20)
(2.31113 -0.0176578 -8.95235e-21)
(2.32439 -0.0162302 0)
(2.33701 -0.0149152 -1.75047e-20)
(2.34902 -0.0137024 -1.73065e-20)
(2.36046 -0.0125828 2.56657e-20)
(2.37134 -0.0115491 0)
(2.38168 -0.0105948 8.36159e-21)
(2.39152 -0.00971472 8.26581e-21)
(2.40086 -0.00890372 2.45117e-20)
(2.40973 -0.00815732 0)
(2.41813 -0.00747124 0)
(2.42609 -0.00684094 0)
(2.43363 -0.00626206 7.7983e-21)
(2.44075 -0.00573045 0)
(2.44748 -0.00524208 0)
(2.45382 -0.00479303 -7.52764e-21)
(2.4598 -0.00437958 -7.43868e-21)
(2.46543 -0.0039983 0)
(2.47072 -0.00364601 0)
(2.4757 -0.00331992 -1.43518e-20)
(2.48036 -0.0030176 0)
(2.48473 -0.00273706 1.4008e-20)
(2.48882 -0.00247658 1.38378e-20)
(2.49265 -0.0022346 0)
(2.49621 -0.00200962 0)
(2.49954 -0.00180038 -1.33353e-20)
(2.50263 -0.00160601 -8.29813e-26)
(2.5055 -0.00142593 -7.32947e-26)
(2.50815 -0.00125967 0)
(2.51061 -0.00110642 -2.53638e-20)
(2.51288 -0.000965311 0)
(2.51497 -0.000835424 0)
(2.51688 -0.000715821 0)
(2.51864 -0.000605605 1.20464e-20)
(2.52024 -0.000503912 0)
(2.5217 -0.000409836 -2.34701e-20)
(2.52302 -0.000322407 -1.1581e-20)
(2.52422 -0.000240723 0)
(2.5253 -0.000163937 -1.12759e-20)
(2.52627 -9.11629e-05 0)
(2.52714 -2.14868e-05 0)
(2.52792 4.60221e-05 -3.24774e-20)
(2.5286 0.000112512 2.13555e-20)
(2.52919 0.000179164 0)
(2.5297 0.000247685 2.07691e-20)
(2.53013 0.000319555 -1.02395e-20)
(2.53048 0.000397631 0)
(2.53075 0.000483437 0)
(2.53093 0.000582381 0)
(2.53103 0.000694789 -2.90057e-20)
(2.53103 0.000832458 0)
(2.53091 0.00099028 -9.38913e-21)
(2.53068 0.0011971 0)
(2.53029 0.0014286 0)
(2.52975 0.00176057 0)
(2.52895 0.00210761 0)
(2.52796 0.00267619 0)
(2.52649 0.00319691 0)
(2.52481 0.00424124 -1.68911e-20)
(2.52219 0.00500519 0)
(2.51945 0.0070778 -8.19099e-21)
(2.51472 0.00814878 2.41958e-20)
(2.51027 0.0126329 0)
(2.50146 0.0141246 0)
(2.49435 0.0248569 -1.54197e-20)
(2.47785 0.0278602 -1.52214e-20)
(2.4676 0.0564613 1.49903e-20)
(2.44113 0.0675604 1.48346e-20)
(-0.00658425 0.0189698 1.32686e-20)
(-0.0398672 0.0145334 1.31834e-20)
(-0.0706315 0.0121449 8.72259e-21)
(-0.102884 0.0138888 4.32579e-21)
(-0.134356 0.0148448 0)
(-0.165977 0.0157418 -8.51277e-21)
(-0.197569 0.0169371 4.21748e-21)
(-0.229466 0.0189009 0)
(-0.261771 0.022093 4.13786e-21)
(-0.294702 0.0271216 0)
(-0.328479 0.0347588 -8.09724e-21)
(-0.363351 0.045877 0)
(-0.399631 0.061417 -3.95199e-21)
(-0.437797 0.0823707 -7.80272e-21)
(-0.478497 0.109651 7.69982e-21)
(-0.522282 0.143916 0)
(-0.570063 0.18537 7.49601e-21)
(-0.622092 0.233215 0)
(-0.679596 0.286054 0)
(-0.741754 0.34125 7.22697e-21)
(-0.808478 0.396053 0)
(-0.879614 0.44762 -4.33877e-23)
(-0.954541 0.493323 0)
(-1.03225 0.530901 0)
(-1.11191 0.558713 7.08506e-23)
(-1.19342 0.575995 6.87422e-21)
(-1.27747 0.584611 6.72279e-21)
(-1.36631 0.592241 6.75152e-21)
(-1.46062 0.603894 0)
(-1.55067 0.609411 1.30566e-20)
(-1.62913 0.601479 0)
(-1.69704 0.582727 6.25192e-21)
(-1.7578 0.555952 0)
(-1.81268 0.522765 0)
(-1.86333 0.484404 -5.90448e-21)
(-1.91009 0.441341 0)
(-1.9531 0.394668 5.66683e-21)
(-1.9916 0.345179 1.90022e-22)
(-2.02476 0.293642 -1.10655e-20)
(-2.0517 0.240637 1.06576e-20)
(-2.07159 0.186652 0)
(-2.0837 0.132112 0)
(-2.08742 0.0774113 4.86827e-21)
(-2.08223 0.0229289 0)
(-2.06779 -0.0309457 5.1131e-21)
(-2.04385 -0.0838254 -5.06984e-21)
(-2.01027 -0.135275 -5.04217e-21)
(-1.96708 -0.184826 0)
(-1.91442 -0.231987 5.0348e-21)
(-1.85265 -0.276275 5.05452e-21)
(-1.78229 -0.317185 -9.90688e-21)
(-1.70403 -0.354149 5.13574e-21)
(-1.61867 -0.386706 5.19385e-21)
(-1.52715 -0.414539 0)
(-1.43054 -0.43748 0)
(-1.32991 -0.455557 -5.41295e-21)
(-1.22628 -0.469028 0)
(-1.1206 -0.478262 0)
(-1.01365 -0.483748 1.13059e-20)
(-0.906063 -0.486001 1.14581e-20)
(-0.798305 -0.48552 0)
(-0.690732 -0.482774 0)
(-0.583615 -0.478143 0)
(-0.477158 -0.471935 0)
(-0.371562 -0.464395 1.20704e-20)
(-0.267049 -0.455692 -1.21011e-20)
(-0.163857 -0.446054 -1.2231e-20)