/*--------------------------------*- C++ -*----------------------------------*\
  =========                 |
  \\      /  F ield         | OpenFOAM: The Open Source CFD Toolbox
   \\    /   O peration     | Website:  https://openfoam.org
    \\  /    A nd           | Version:  7
     \\/     M anipulation  |
\*---------------------------------------------------------------------------*/
FoamFile
{
    version     2.0;
    format      ascii;
    class       volScalarField;
    location    "0.093";
    object      k;
}
// * * * * * * * * * * * * * * * * * * * * * * * * * * * * * * * * * * * * * //

dimensions      [0 2 -2 0 0 0 0];

internalField   nonuniform List<scalar> 
12225
(
1.93924e-05
1.80156e-05
1.67571e-05
1.55543e-05
1.40062e-05
1.25836e-05
1.12412e-05
9.92034e-06
8.70468e-06
7.48588e-06
6.33456e-06
5.41258e-06
4.59815e-06
3.76213e-06
3.62626e-06
2.35356e-05
1.39601e-05
3.37606e-05
1.99819e-05
1.98833e-05
1.96569e-05
1.94647e-05
1.90779e-05
1.87298e-05
1.81366e-05
1.77876e-05
1.72007e-05
1.68453e-05
1.61568e-05
1.56986e-05
1.49598e-05
1.45812e-05
1.37703e-05
2.01702e-05
1.86239e-05
1.91712e-05
1.99988e-05
1.91431e-05
1.8921e-05
1.89064e-05
1.88693e-05
1.87573e-05
1.86454e-05
1.86027e-05
1.85694e-05
1.85473e-05
1.84919e-05
1.84257e-05
1.82695e-05
1.81462e-05
1.77891e-05
1.88886e-05
1.86303e-05
1.86047e-05
2.00106e-05
2.00249e-05
1.99934e-05
1.9677e-05
1.8101e-05
1.61899e-05
1.59996e-05
1.61293e-05
1.66745e-05
1.72899e-05
1.76615e-05
1.78475e-05
1.78943e-05
1.7894e-05
1.78154e-05
1.78721e-05
1.784e-05
1.76901e-05
2.08234e-05
2.16195e-05
2.35891e-05
2.46203e-05
2.43272e-05
2.28313e-05
2.06122e-05
1.92713e-05
1.8655e-05
1.83513e-05
1.82019e-05
1.81404e-05
1.80793e-05
1.79489e-05
1.75882e-05
1.66655e-05
1.58257e-05
1.52043e-05
2.08486e-05
2.48846e-05
2.93053e-05
2.86421e-05
2.58167e-05
2.5106e-05
2.51333e-05
2.50736e-05
2.45576e-05
2.32323e-05
2.18969e-05
2.09038e-05
2.03929e-05
2.01567e-05
1.98179e-05
1.89644e-05
1.77234e-05
1.65852e-05
2.1494e-05
2.14035e-05
2.29253e-05
2.3073e-05
2.29505e-05
2.30895e-05
2.38549e-05
2.48055e-05
2.52372e-05
2.53031e-05
2.52939e-05
2.52635e-05
2.51919e-05
2.50313e-05
2.46108e-05
2.34525e-05
2.25103e-05
2.14926e-05
2.33386e-05
2.23712e-05
2.29373e-05
2.41957e-05
2.42462e-05
2.40621e-05
2.34715e-05
2.33173e-05
2.33915e-05
2.39503e-05
2.48934e-05
2.52036e-05
2.52146e-05
2.51217e-05
2.47035e-05
2.36454e-05
2.28724e-05
2.2441e-05
2.15092e-05
2.19373e-05
2.1744e-05
2.25417e-05
2.37574e-05
2.40621e-05
2.39729e-05
2.3526e-05
2.34888e-05
2.39838e-05
2.48029e-05
2.50181e-05
2.4978e-05
2.45786e-05
2.33932e-05
2.24795e-05
2.19776e-05
2.18162e-05
2.03856e-05
2.06005e-05
2.10927e-05
2.31914e-05
2.7353e-05
2.96266e-05
2.95796e-05
2.7586e-05
2.53871e-05
2.44176e-05
2.40329e-05
2.376e-05
2.31902e-05
2.23052e-05
2.15715e-05
2.1005e-05
2.03764e-05
2.00528e-05
2.00335e-05
2.03412e-05
2.14101e-05
2.51867e-05
3.04907e-05
3.11962e-05
2.99305e-05
2.66627e-05
2.50692e-05
2.4568e-05
2.44079e-05
2.43135e-05
2.41692e-05
2.38726e-05
2.31666e-05
2.22681e-05
2.15275e-05
2.08719e-05
2.03982e-05
2.13127e-05
2.17186e-05
2.26906e-05
2.66274e-05
3.01053e-05
3.01821e-05
2.8238e-05
2.49401e-05
2.35308e-05
2.31221e-05
2.30888e-05
2.31465e-05
2.31474e-05
2.30401e-05
2.26508e-05
2.20153e-05
2.15355e-05
2.05282e-05
2.10121e-05
2.18883e-05
2.43954e-05
2.7333e-05
2.79178e-05
2.72285e-05
2.44543e-05
2.21668e-05
2.12678e-05
2.11051e-05
2.11992e-05
2.16277e-05
2.19004e-05
2.19532e-05
2.1888e-05
2.15472e-05
2.12444e-05
2.03947e-05
2.09316e-05
2.16568e-05
2.19041e-05
2.19494e-05
2.19349e-05
2.17473e-05
2.11522e-05
2.07878e-05
2.07007e-05
2.07284e-05
2.08435e-05
2.08833e-05
2.08801e-05
2.08541e-05
2.07637e-05
2.06555e-05
2.06165e-05
2.02892e-05
2.03827e-05
2.06023e-05
2.06525e-05
2.06032e-05
2.06039e-05
2.06979e-05
2.07595e-05
2.07416e-05
2.07808e-05
2.09631e-05
2.10854e-05
2.10996e-05
2.10952e-05
2.1065e-05
2.09906e-05
2.09524e-05
2.09305e-05
2.02203e-05
2.04029e-05
2.04524e-05
2.04231e-05
2.03388e-05
2.03201e-05
2.03379e-05
2.04724e-05
2.06345e-05
2.06933e-05
2.07908e-05
2.10154e-05
2.13074e-05
2.15579e-05
2.17325e-05
2.1836e-05
2.18811e-05
2.18866e-05
2.0272e-05
2.02781e-05
2.03304e-05
2.03404e-05
2.03185e-05
2.03161e-05
2.03271e-05
2.03742e-05
2.05096e-05
2.06101e-05
2.07733e-05
2.09784e-05
2.11508e-05
2.12411e-05
2.12556e-05
2.12434e-05
2.12016e-05
2.11291e-05
2.00533e-05
2.07252e-05
2.11036e-05
2.087e-05
2.05231e-05
2.04175e-05
2.03927e-05
2.03538e-05
2.0332e-05
2.0341e-05
2.03892e-05
2.0479e-05
2.05492e-05
2.05856e-05
2.05871e-05
2.05574e-05
2.0451e-05
2.0374e-05
2.01695e-05
2.12226e-05
2.22309e-05
2.21276e-05
2.13811e-05
2.05939e-05
2.0381e-05
2.03788e-05
2.05016e-05
2.0926e-05
2.11106e-05
2.10998e-05
2.09808e-05
2.07029e-05
2.04913e-05
2.03533e-05
2.02604e-05
2.02077e-05
2.00385e-05
2.02157e-05
2.05809e-05
2.05214e-05
2.04965e-05
2.0771e-05
2.13045e-05
2.141e-05
2.13886e-05
2.13859e-05
2.14292e-05
2.14462e-05
2.13925e-05
2.11549e-05
2.08746e-05
2.06865e-05
2.05581e-05
2.04745e-05
2.113e-05
2.16668e-05
2.11878e-05
2.04097e-05
2.02622e-05
2.032e-05
2.06742e-05
2.12092e-05
2.143e-05
2.14595e-05
2.14212e-05
2.12389e-05
2.09891e-05
2.08238e-05
2.072e-05
2.06558e-05
2.062e-05
2.06015e-05
2.01799e-05
2.02293e-05
2.02041e-05
2.02327e-05
2.04594e-05
2.07164e-05
2.08095e-05
2.0822e-05
2.08123e-05
2.07577e-05
2.0689e-05
2.06529e-05
2.06345e-05
2.06144e-05
2.05906e-05
2.05715e-05
2.0563e-05
2.05626e-05
2.05497e-05
2.09503e-05
2.06714e-05
2.05112e-05
2.05262e-05
2.05516e-05
2.05327e-05
2.04221e-05
2.027e-05
2.01838e-05
2.01455e-05
2.01353e-05
2.0136e-05
2.01472e-05
2.01958e-05
2.03121e-05
2.04118e-05
2.04813e-05
2.30037e-05
2.18639e-05
2.07567e-05
2.06189e-05
2.07293e-05
2.08911e-05
2.08909e-05
2.08083e-05
2.05327e-05
2.03002e-05
2.01697e-05
2.01071e-05
2.00853e-05
2.00827e-05
2.00884e-05
2.01203e-05
2.02263e-05
2.034e-05
2.18423e-05
2.14282e-05
2.04095e-05
2.03355e-05
2.05035e-05
2.06325e-05
2.06344e-05
2.0555e-05
2.03731e-05
2.02664e-05
2.0216e-05
2.01959e-05
2.019e-05
2.01896e-05
2.01927e-05
2.02103e-05
2.02453e-05
2.02672e-05
2.24372e-05
2.18056e-05
2.05298e-05
2.03205e-05
2.03955e-05
2.05226e-05
2.05428e-05
2.05156e-05
2.03846e-05
2.02492e-05
2.01735e-05
2.01242e-05
2.00818e-05
2.00499e-05
2.00379e-05
2.004e-05
2.00663e-05
2.01558e-05
2.08402e-05
2.02865e-05
2.00047e-05
1.99468e-05
1.99212e-05
1.99243e-05
1.99271e-05
1.98785e-05
1.96568e-05
1.93241e-05
1.9079e-05
1.87804e-05
1.81118e-05
1.72018e-05
1.67384e-05
1.6723e-05
1.69419e-05
1.75991e-05
2.01818e-05
1.76791e-05
1.40034e-05
1.48086e-05
1.7415e-05
2.31299e-05
2.83894e-05
3.09755e-05
3.2556e-05
3.52349e-05
4.10452e-05
4.89611e-05
5.70338e-05
6.32455e-05
6.73638e-05
7.03985e-05
7.53844e-05
8.616e-05
3.1051e-05
0.000105632
0.000139394
0.000196161
0.00029455
0.000372392
0.000402303
0.000409528
0.000417542
0.000437023
0.000466327
0.00049338
0.000514181
0.000527397
0.000536012
0.000545649
0.000565423
0.000605168
0.00249579
0.00234693
0.00231884
0.00231578
0.00229521
0.00218235
0.00193492
0.00180063
0.00173888
0.00167771
0.00159597
0.00150937
0.00143823
0.00139205
0.00137048
0.00136215
0.0013545
0.00134495
0.00378867
0.00589026
0.00628086
0.00677335
0.00683216
0.00667607
0.00625732
0.00582169
0.00558682
0.00536019
0.00501908
0.0047259
0.00494024
0.00544241
0.00603817
0.00687993
0.00762971
0.0077563
0.00754596
0.00704553
0.00627756
0.00557772
0.00538116
0.00542218
0.00583868
0.00658922
0.00689237
0.00692448
0.00676297
0.00631808
0.00587846
0.00587232
0.00667146
0.00927579
0.0128429
0.0137551
0.0135588
0.0120061
0.00950481
0.00817454
0.00774822
0.00759764
0.00754943
0.00759795
0.00775726
0.00790216
0.00803991
0.00814234
0.0082902
0.00845267
0.00871511
0.00904394
0.00950602
0.0100488
0.0107084
0.0116562
0.0127097
0.0134916
0.0145177
0.0162582
0.0175786
0.0178378
0.0171739
0.0146768
0.0141372
0.0149906
0.0178686
0.0227583
0.0307913
0.0418073
0.054436
0.0657192
0.0679559
0.0654224
0.0696817
0.0932238
0.125092
0.157912
0.180041
0.173548
0.118625
0.0330162
0.00570973
0.00200037
0.00137042
0.00125554
0.00124528
0.00119139
0.00108577
0.00095598
0.000788308
0.000651663
0.000535044
0.000409011
0.000344445
0.000292069
0.000265615
0.000256122
0.000261201
0.000263108
0.000264097
0.000264522
0.000264601
0.000264767
0.000263644
0.000260883
0.000258245
0.000256214
0.000255262
0.000253761
0.000250007
0.00024622
0.000243865
0.00024181
0.000236544
0.000232711
0.000228161
0.000222807
0.000218633
0.000212852
0.00020876
0.000203969
0.000199382
0.000194506
0.000189622
0.000184248
0.000178562
0.000172953
0.000167028
0.000161095
0.000155114
0.000149041
0.000142785
0.000136175
0.000128986
0.000121187
0.000112935
0.000104644
9.72145e-05
8.98388e-05
8.06064e-05
6.97852e-05
5.92176e-05
4.90843e-05
3.80581e-05
2.71053e-05
1.85284e-05
1.24008e-05
8.35774e-06
5.89197e-06
4.46455e-06
3.63393e-06
3.10324e-06
2.7024e-06
2.34945e-06
2.01848e-06
1.71288e-06
1.44359e-06
1.21453e-06
1.02276e-06
8.60683e-07
7.23794e-07
6.06278e-07
5.08085e-07
4.21078e-07
3.5731e-07
2.85939e-07
2.47464e-07
2.31099e-07
2.56618e-07
2.53081e-07
2.88872e-07
2.42482e-07
2.99701e-07
2.20112e-07
3.95075e-07
5.12186e-07
9.44247e-07
9.84686e-06
7.73157e-06
0.00353865
0.00528803
0.0072739
0.00847409
0.00885271
0.00877739
0.00852893
0.00797597
0.00738445
0.00690707
0.00657636
0.00632361
0.00609255
0.00571892
0.00567172
0.00600927
0.00669901
0.00699658
0.00699806
0.00638066
0.00511165
0.00469359
0.00465626
0.00487933
0.00527237
0.00599869
0.00694368
0.00730961
0.00730409
0.00694582
0.00652964
0.00650465
0.00690725
0.00814182
0.00951227
0.0098207
0.00981865
0.00967399
0.00941713
0.00926246
0.00919085
0.00913467
0.00906694
0.00896505
0.00880165
0.00858281
0.00832734
0.00814415
0.00807849
0.00806595
0.00821776
0.00869319
0.00913648
0.00952001
0.010036
0.0114407
0.0129872
0.013841
0.0139385
0.0138064
0.0138037
0.0147254
0.0159984
0.0159512
0.0151379
0.0141729
0.0132213
0.011463
0.00982425
0.00919897
0.0103481
0.0144282
0.0172672
0.0172815
0.0180467
0.0204006
0.02637
0.0414279
0.106965
0.110484
0.0371429
0.0088067
0.00259615
0.00134815
0.000981898
0.000845857
0.000762036
0.000687299
0.000629311
0.000589558
0.000559391
0.000546368
0.000540511
0.000538542
0.000538042
0.000537798
0.000536227
0.000533645
0.000532863
0.000531522
0.000528058
0.000524628
0.00052105
0.000518196
0.000514996
0.000510793
0.000505482
0.00050101
0.000497508
0.000495175
0.000490907
0.000485071
0.000481783
0.000479059
0.000472609
0.000468328
0.000461656
0.000453609
0.000445264
0.00043559
0.000424381
0.000413554
0.000402564
0.000391772
0.000380783
0.000369032
0.000356981
0.000345993
0.000333599
0.000321124
0.000309429
0.000298202
0.000287026
0.000275597
0.000263906
0.000251628
0.000237879
0.000222121
0.000204101
0.000185389
0.000168728
0.000156425
0.00014812
0.000141115
0.000133728
0.000124578
0.000112076
9.74009e-05
8.25957e-05
6.91955e-05
5.78853e-05
4.87309e-05
4.15084e-05
3.58859e-05
3.13426e-05
2.72686e-05
2.33095e-05
1.95522e-05
1.62547e-05
1.35644e-05
1.13798e-05
9.57978e-06
8.04283e-06
6.74077e-06
5.58027e-06
4.65388e-06
3.79587e-06
3.22604e-06
2.62301e-06
2.30641e-06
1.89488e-06
1.73638e-06
1.42013e-06
1.31825e-06
1.075e-06
1.01851e-06
9.12412e-07
8.99782e-07
2.06248e-06
2.06575e-06
0.00179548
0.00604533
0.00682203
0.006934
0.00737815
0.00777915
0.00776043
0.00763632
0.007351
0.00704275
0.00680158
0.00654769
0.0063275
0.00600127
0.00572106
0.0057256
0.00593173
0.00614785
0.00603749
0.00544372
0.00493921
0.00495226
0.00566159
0.0067936
0.00761873
0.00855801
0.00947722
0.0097655
0.00983432
0.00985168
0.00996967
0.0103393
0.010489
0.0105283
0.0101892
0.00891268
0.00758231
0.00695544
0.00648101
0.00588032
0.00550409
0.00522546
0.00490018
0.00459635
0.00421811
0.00382341
0.0034794
0.0032695
0.00318081
0.00315901
0.00330804
0.00375402
0.0044926
0.00563634
0.00687447
0.00956655
0.0123015
0.0137701
0.0141939
0.0150689
0.015447
0.0149303
0.0140056
0.0139315
0.013787
0.0133751
0.0121919
0.0091905
0.00716668
0.00662898
0.00695822
0.00780589
0.00854125
0.00971065
0.0115638
0.0149568
0.0240757
0.0616112
0.0687562
0.0275666
0.00701383
0.00217461
0.00115531
0.000879687
0.000770159
0.000707599
0.000660003
0.000620177
0.000591829
0.000566783
0.000550824
0.000539758
0.000534651
0.000532656
0.000532955
0.000538692
0.000543599
0.000551138
0.000556366
0.000559323
0.000560782
0.000561217
0.000560177
0.000557258
0.00055584
0.000554094
0.000550819
0.000548584
0.000545967
0.000544556
0.000543222
0.000540795
0.000539992
0.000539413
0.000538424
0.000538277
0.000537696
0.000537228
0.000536408
0.000535815
0.000534259
0.000531471
0.00052684
0.00052017
0.000511293
0.000499967
0.000486069
0.000469677
0.000451362
0.000430417
0.000409809
0.000389296
0.000368
0.000346817
0.000326182
0.000306274
0.00028838
0.000273043
0.00025876
0.000241758
0.00021924
0.000191517
0.00016459
0.000146541
0.000137319
0.000132614
0.000129958
0.000126922
0.000120194
0.000107605
9.47591e-05
8.40914e-05
7.57787e-05
6.88878e-05
6.26446e-05
5.68013e-05
5.15348e-05
4.70143e-05
4.31109e-05
3.95217e-05
3.60228e-05
3.25072e-05
2.89211e-05
2.53154e-05
2.1804e-05
1.84823e-05
1.54119e-05
1.26842e-05
1.03073e-05
8.30622e-06
6.66208e-06
5.31763e-06
4.28874e-06
3.41683e-06
2.8436e-06
2.23906e-06
1.99318e-06
1.48908e-06
1.42502e-06
1.21652e-06
0.00265891
0.00574117
0.00581967
0.00614066
0.00691206
0.00765169
0.00790197
0.00777455
0.0073977
0.00698146
0.00673017
0.00650214
0.00633708
0.00610092
0.00589559
0.00575085
0.00568097
0.0055326
0.00537552
0.00534565
0.00558765
0.00752658
0.00939199
0.0100162
0.0102372
0.010329
0.0103374
0.0101147
0.00989635
0.00968763
0.00920267
0.00831124
0.00650839
0.00457497
0.00363313
0.00251697
0.00180525
0.00151882
0.00137125
0.00129611
0.00118837
0.00110576
0.00100406
0.00092991
0.000843264
0.000784862
0.00071975
0.000688554
0.000674857
0.000680626
0.000727892
0.000855545
0.00114587
0.00174032
0.00284407
0.00491832
0.00798633
0.00990658
0.0108918
0.0115355
0.0130402
0.0144736
0.0146502
0.0144788
0.0138787
0.0134067
0.0123834
0.00971782
0.00763181
0.00696847
0.00698894
0.00716009
0.00780158
0.00839681
0.00979198
0.0181617
0.0448506
0.0563452
0.0245471
0.00712414
0.00205476
0.00108163
0.000870381
0.000797088
0.000748858
0.00071931
0.000704687
0.000688738
0.000679415
0.000666178
0.000657821
0.000645512
0.000637289
0.000624128
0.000611262
0.000598354
0.000585367
0.000570018
0.000555409
0.000544923
0.000536634
0.000527923
0.000523527
0.000518577
0.000514025
0.000511822
0.000508769
0.000507215
0.000506235
0.000505519
0.000505386
0.000505897
0.000507584
0.000509671
0.00051261
0.000515784
0.000520282
0.000524906
0.000530095
0.000535408
0.000540762
0.000546158
0.000551176
0.000554885
0.000556772
0.000557306
0.000556822
0.000554919
0.000551553
0.000545784
0.000536514
0.000522531
0.000503121
0.000477876
0.000445852
0.000407085
0.000363027
0.00032211
0.000292826
0.000275104
0.000266612
0.000261647
0.000252088
0.00022471
0.000189645
0.000167332
0.000156654
0.000152314
0.000149954
0.000147846
0.00014495
0.000138771
0.000124102
0.000107707
9.35728e-05
8.19272e-05
7.23651e-05
6.43622e-05
5.75092e-05
5.16328e-05
4.66898e-05
4.2562e-05
3.8984e-05
3.56292e-05
3.22653e-05
2.88244e-05
2.53638e-05
2.19654e-05
1.86918e-05
1.55777e-05
1.26957e-05
1.01048e-05
7.89638e-06
6.06549e-06
4.65371e-06
3.54622e-06
2.77235e-06
2.1617e-06
1.76304e-06
1.42026e-06
0.00340981
0.00526798
0.00554089
0.00681456
0.00973093
0.0119653
0.012837
0.0126668
0.0119632
0.0102473
0.00833087
0.00720141
0.0066329
0.00629665
0.00600423
0.00574894
0.00548919
0.00537858
0.00547536
0.0063016
0.00901184
0.010245
0.0105177
0.0105353
0.0103992
0.01023
0.00988525
0.00919369
0.00817598
0.00648888
0.00432389
0.00273985
0.00184994
0.00143065
0.00121861
0.00111251
0.0010703
0.00105492
0.00104659
0.00101441
0.000951928
0.000889947
0.000810987
0.000728445
0.000659841
0.000598537
0.000522848
0.000476257
0.000430136
0.000408016
0.000400769
0.000433612
0.000574646
0.00099685
0.00205902
0.00413954
0.00755277
0.00967687
0.010571
0.0109106
0.0113187
0.0122414
0.0137858
0.0142278
0.0141484
0.0137864
0.0128858
0.0107481
0.0088432
0.00774264
0.00747401
0.0076821
0.00813196
0.00842843
0.0102818
0.0255822
0.045234
0.0286635
0.00848268
0.00242389
0.00111703
0.000891356
0.000832233
0.000795942
0.000767471
0.000747171
0.0007159
0.000696018
0.000677606
0.000653742
0.000622893
0.000582634
0.000557173
0.000530828
0.000509828
0.000499312
0.000492069
0.000489942
0.000490304
0.000490236
0.000488357
0.000485621
0.000481377
0.00047836
0.000473371
0.000471185
0.00046846
0.000467478
0.000467031
0.000467254
0.000468482
0.000470427
0.000473026
0.000475818
0.000478649
0.000480949
0.000484108
0.000486851
0.000490387
0.000494099
0.000498224
0.000502815
0.00050808
0.000514656
0.000522834
0.000531519
0.000539716
0.000546841
0.000552228
0.000555418
0.000556252
0.000554551
0.000548189
0.000539558
0.00052996
0.000517729
0.000496344
0.000452791
0.000384481
0.000314458
0.000269835
0.000252437
0.000248734
0.00024736
0.000242541
0.000220164
0.000184512
0.000165247
0.000157834
0.000156415
0.000156545
0.000156496
0.000155693
0.000152509
0.000141952
0.000124033
0.000107574
9.34117e-05
8.15889e-05
7.16715e-05
6.32397e-05
5.61982e-05
5.05676e-05
4.62681e-05
4.30486e-05
4.05883e-05
3.84001e-05
3.5926e-05
3.26609e-05
2.8523e-05
2.37769e-05
1.89802e-05
1.45747e-05
1.08598e-05
7.90986e-06
5.68273e-06
4.08919e-06
2.94071e-06
2.21942e-06
1.65204e-06
0.00354756
0.00626382
0.00646597
0.0100908
0.0128663
0.0143568
0.0149857
0.0151683
0.0149022
0.0140676
0.012532
0.0101826
0.00826821
0.00706883
0.00604813
0.0056305
0.00548314
0.00571125
0.0070482
0.00945323
0.0103827
0.010521
0.0104697
0.0102125
0.00967615
0.00875236
0.00714706
0.00515826
0.00336992
0.00214995
0.00150432
0.00120645
0.00109397
0.00106208
0.00105908
0.00109293
0.00111968
0.00113547
0.00114224
0.00111617
0.00103258
0.000959364
0.00085075
0.000757076
0.000669798
0.000594704
0.000510665
0.000456467
0.000396426
0.000352123
0.000318327
0.000303409
0.000337751
0.000574877
0.00132111
0.00324066
0.00694121
0.00907121
0.00966483
0.00981996
0.0106331
0.011694
0.0130528
0.0139416
0.014125
0.0140585
0.0136593
0.0122603
0.0100862
0.00859783
0.00807019
0.00813271
0.00820987
0.00846069
0.0104105
0.0274443
0.0361989
0.0127313
0.0034703
0.00131297
0.00094617
0.000877474
0.000846369
0.000823885
0.000783058
0.000750971
0.000704432
0.000664359
0.000606521
0.000565502
0.000529188
0.000515787
0.000510863
0.000509474
0.000512056
0.000524433
0.000548245
0.000581243
0.000613967
0.000636161
0.000644485
0.00064167
0.000620161
0.000606269
0.000574252
0.00055964
0.000537625
0.000527396
0.000518445
0.000514655
0.000513459
0.00051433
0.000516607
0.000519126
0.00052054
0.000520337
0.000519434
0.000516789
0.000514223
0.000511301
0.000508187
0.000505747
0.000504186
0.0005034
0.000503582
0.000505015
0.000507543
0.000510717
0.000514213
0.000517946
0.000522148
0.000527018
0.000530873
0.000532208
0.000531512
0.000526542
0.000517459
0.000507712
0.000491321
0.000453898
0.000364734
0.000279533
0.000237254
0.000227864
0.000229024
0.000229093
0.000224604
0.000200518
0.000171784
0.000159182
0.000155722
0.00015563
0.000156394
0.000156493
0.000155646
0.000151721
0.000139578
0.000124294
0.000110167
9.73824e-05
8.63223e-05
7.71246e-05
6.95201e-05
6.31984e-05
5.79879e-05
5.40186e-05
5.12574e-05
4.93715e-05
4.74841e-05
4.47748e-05
4.06613e-05
3.53033e-05
2.92578e-05
2.33035e-05
1.79198e-05
1.31672e-05
9.35541e-06
6.27095e-06
4.42078e-06
2.82356e-06
0.00407944
0.00678891
0.0072259
0.0117056
0.0137818
0.0151024
0.0157042
0.0162855
0.0164085
0.0153447
0.0134057
0.011035
0.00859792
0.00690923
0.00597234
0.00572407
0.00610681
0.008046
0.00971975
0.010251
0.0103525
0.0101975
0.0095934
0.00837684
0.00627262
0.00450196
0.00285257
0.00203131
0.00151035
0.00129106
0.00121632
0.00120414
0.00125132
0.00142269
0.00161743
0.00185747
0.00207106
0.00217851
0.00221992
0.00221612
0.00205097
0.00189065
0.001616
0.00138293
0.00112761
0.000893803
0.000703392
0.00056425
0.00044968
0.00036681
0.000310666
0.000270431
0.000250229
0.000261887
0.000413254
0.00105184
0.00323934
0.0060725
0.00694946
0.00691195
0.0078981
0.00981843
0.011883
0.013375
0.0140249
0.0140893
0.013997
0.0135528
0.0122484
0.0104171
0.00954212
0.00950087
0.00938156
0.00902639
0.0108939
0.0277341
0.024084
0.00647384
0.00188695
0.00107025
0.000945755
0.000907346
0.000866859
0.000833786
0.000780629
0.000735312
0.000647761
0.000580351
0.000547814
0.000533733
0.000528604
0.000529197
0.000555106
0.000608038
0.000695484
0.000830092
0.000998001
0.00117232
0.00131056
0.00140778
0.00144412
0.00144016
0.00133412
0.00126001
0.00110662
0.00102051
0.000908464
0.000838956
0.000781359
0.000743918
0.000721651
0.000710733
0.000705736
0.000702944
0.000699912
0.000693758
0.000686159
0.000675008
0.000662356
0.00064747
0.000629023
0.00060976
0.00058991
0.000570087
0.000551618
0.000536113
0.000524831
0.000517938
0.000514669
0.000513523
0.000513067
0.000513138
0.000513349
0.000513323
0.000513197
0.000512717
0.000511104
0.000505314
0.000494449
0.000483417
0.000462871
0.000406755
0.000298392
0.000230667
0.000208206
0.000207747
0.000211588
0.000210873
0.000202502
0.000175697
0.000157846
0.000151642
0.000151151
0.000152089
0.000152349
0.000151634
0.000148438
0.00013841
0.000125077
0.000112136
9.98034e-05
8.90501e-05
8.04201e-05
7.36073e-05
6.78367e-05
6.26985e-05
5.8293e-05
5.49508e-05
5.25917e-05
5.06813e-05
4.83971e-05
4.50832e-05
4.06271e-05
3.51999e-05
2.9559e-05
2.3718e-05
1.86754e-05
1.36651e-05
1.04475e-05
6.91484e-06
0.00431575
0.00726347
0.00847854
0.0123856
0.0140107
0.0152657
0.0158352
0.0159834
0.0155404
0.0144139
0.0126791
0.0104398
0.00799202
0.00679436
0.00632039
0.00683521
0.00863418
0.00967972
0.0100017
0.0100645
0.009615
0.00842878
0.0060359
0.00415061
0.00289631
0.00202924
0.00162123
0.00146092
0.00140676
0.00140343
0.00159448
0.0019716
0.00259441
0.00316985
0.00350654
0.00378086
0.00389773
0.00394531
0.00395488
0.0039044
0.00382828
0.00368969
0.00348015
0.00310867
0.0026285
0.00206227
0.00153564
0.00111425
0.000759763
0.000527023
0.000388123
0.000294371
0.000242495
0.000221521
0.000231111
0.000407831
0.00120094
0.0037874
0.00542815
0.00584965
0.00607628
0.00671335
0.00811017
0.0104649
0.0127748
0.0137773
0.0138799
0.0137734
0.0133442
0.012317
0.0116615
0.0108696
0.00948245
0.00896936
0.0114368
0.0273389
0.0168965
0.00378571
0.00139819
0.00106624
0.000988253
0.000956022
0.00087643
0.000821888
0.000758592
0.000679029
0.000598544
0.000563021
0.000550579
0.000548341
0.000574323
0.000651602
0.000814289
0.00109783
0.0015154
0.00205878
0.00263711
0.00310777
0.00341382
0.00363752
0.00371442
0.00372245
0.00347228
0.00321292
0.00282954
0.00246131
0.00209151
0.00176787
0.00153514
0.00135833
0.00123098
0.00114947
0.00109943
0.00106305
0.0010342
0.0010093
0.000989926
0.000976551
0.000958152
0.00093461
0.000902392
0.000867023
0.000828912
0.000786478
0.000739712
0.000690005
0.000641921
0.000600559
0.000570336
0.000549611
0.000535126
0.000525733
0.000520255
0.000517878
0.000516158
0.000514265
0.000511921
0.000507557
0.000494539
0.000472841
0.00045965
0.000445603
0.000411543
0.000312186
0.000227663
0.000192544
0.000188459
0.000194233
0.000195918
0.000192489
0.000175286
0.000155114
0.000145833
0.000143761
0.000144008
0.000144344
0.00014374
0.000140666
0.000131227
0.000119619
0.000108495
9.7569e-05
8.76854e-05
7.96321e-05
7.33693e-05
6.82215e-05
6.34852e-05
5.89907e-05
5.507e-05
5.20208e-05
4.98734e-05
4.79489e-05
4.5754e-05
4.23844e-05
3.83855e-05
3.30863e-05
2.81976e-05
2.23584e-05
1.83137e-05
1.32654e-05
0.00444427
0.00746251
0.00909051
0.0119958
0.0128506
0.0138022
0.0142626
0.0143674
0.0135795
0.0126322
0.0111165
0.00927806
0.00811501
0.00764022
0.00802596
0.0090682
0.0095093
0.00965268
0.00957823
0.008703
0.00645458
0.00437933
0.00297266
0.00219965
0.00181917
0.001657
0.00160945
0.00160695
0.0018774
0.00242023
0.00334382
0.00385746
0.00419372
0.00433625
0.0043934
0.00440989
0.00440558
0.00437017
0.00434922
0.00429796
0.00427006
0.00421808
0.00418717
0.00412195
0.00396213
0.00368514
0.00315034
0.00243194
0.00169453
0.00101307
0.000635735
0.000428683
0.000292873
0.000222398
0.000198805
0.000215223
0.000464812
0.00176036
0.00414463
0.00535837
0.00569074
0.00610022
0.0065532
0.00718267
0.00841025
0.010807
0.0126888
0.0131417
0.0130253
0.0123261
0.0116427
0.0105993
0.0091028
0.00878939
0.0125717
0.0253561
0.012319
0.0025382
0.00132148
0.00111783
0.00112728
0.000965427
0.000878615
0.000772635
0.000703881
0.000633999
0.00059397
0.000574269
0.000575362
0.000624957
0.000768525
0.00108889
0.00167285
0.00261203
0.00388134
0.00534321
0.00620586
0.00657644
0.00667208
0.00648749
0.00586503
0.00533963
0.00501096
0.00476706
0.00454425
0.00429856
0.00400365
0.0036314
0.00316041
0.00268646
0.00225359
0.00191978
0.00171623
0.00156921
0.00145467
0.00137162
0.00131362
0.00125037
0.00118725
0.0011286
0.00107426
0.00102655
0.000985544
0.000948636
0.000913866
0.000876677
0.000834777
0.000788065
0.00073452
0.000678227
0.000625687
0.000585253
0.000562474
0.000551772
0.000544291
0.000538006
0.000533304
0.000528929
0.000520908
0.000496612
0.000457486
0.000435771
0.000421138
0.00039211
0.000306496
0.000218875
0.000179701
0.000172807
0.000177789
0.000182227
0.000180289
0.000169526
0.000150009
0.000139146
0.000135412
0.000134564
0.000134287
0.000133598
0.000130899
0.000122701
0.000112632
0.000103226
9.37046e-05
8.47125e-05
7.72512e-05
7.15157e-05
6.69032e-05
6.26309e-05
5.84508e-05
5.44052e-05
5.10641e-05
4.83079e-05
4.65739e-05
4.45765e-05
4.27516e-05
3.92298e-05
3.59765e-05
3.06263e-05
2.6769e-05
2.08534e-05
0.00448354
0.00752535
0.00933304
0.0113255
0.0121047
0.0125538
0.0127562
0.012763
0.0122732
0.0114939
0.0102474
0.00944664
0.00909272
0.00905263
0.00914673
0.00929678
0.00932472
0.00887778
0.00750133
0.00500847
0.00332079
0.00246394
0.00203056
0.00185825
0.00180826
0.00180396
0.00209763
0.00278228
0.00369616
0.00424965
0.00447447
0.00454104
0.00454302
0.00443094
0.00436702
0.00429287
0.0042139
0.00417774
0.0041337
0.00411111
0.00409933
0.0041085
0.00418842
0.00424023
0.00426031
0.00413661
0.00391439
0.00351109
0.00299929
0.00207645
0.00114603
0.000714421
0.000447449
0.000286951
0.000201548
0.00017382
0.000187961
0.000410811
0.00141761
0.00422122
0.0054271
0.00602708
0.0065896
0.00707891
0.00716589
0.00728467
0.00794562
0.00963613
0.0107048
0.0108421
0.0105447
0.00925139
0.00823654
0.00844911
0.0145832
0.0218957
0.00908109
0.00206016
0.00135135
0.00128648
0.0012125
0.000983726
0.000884021
0.000757239
0.000680106
0.000629231
0.000606836
0.000604805
0.000657322
0.000844417
0.00129169
0.00221608
0.00385366
0.00645489
0.00865394
0.00962127
0.0100042
0.0100226
0.00885539
0.00779378
0.00675013
0.00572876
0.00511527
0.0048251
0.00469896
0.00460251
0.00448085
0.00432719
0.00412724
0.00384123
0.00347571
0.00300402
0.00249557
0.00212696
0.00184046
0.0016298
0.00147267
0.00135728
0.00126057
0.00117671
0.00110541
0.00105034
0.00100515
0.000967507
0.000935591
0.000906108
0.000876485
0.000848462
0.000822621
0.000795565
0.000756819
0.000701332
0.000650176
0.000620705
0.000600661
0.000583528
0.000571818
0.00056581
0.000560673
0.000549736
0.000510533
0.000446393
0.000415393
0.000398618
0.000368112
0.000284006
0.000202498
0.000166416
0.000159606
0.000163589
0.000169811
0.000168671
0.000161144
0.000143124
0.000131584
0.00012653
0.000124741
0.000124038
0.000123169
0.000120893
0.000114446
0.000105815
9.7728e-05
8.94537e-05
8.1312e-05
7.42991e-05
6.89977e-05
6.48705e-05
6.12298e-05
5.73538e-05
5.37017e-05
5.00485e-05
4.73856e-05
4.47124e-05
4.34593e-05
4.13033e-05
3.98269e-05
3.6465e-05
3.3876e-05
2.84264e-05
0.00446281
0.00739364
0.00919179
0.0104937
0.0110504
0.0114602
0.0116061
0.0115977
0.0111727
0.0106171
0.00992076
0.00951532
0.00928655
0.00917761
0.00909081
0.00890091
0.00813634
0.00604503
0.00401697
0.00289705
0.00230472
0.00205292
0.00196386
0.0019419
0.0021475
0.00272909
0.00365402
0.00424435
0.00450792
0.00459205
0.00455839
0.0044449
0.00426196
0.00417497
0.0041334
0.00411612
0.00411213
0.00409203
0.00405283
0.003967
0.00383828
0.00371818
0.00364172
0.00360047
0.00386885
0.00408278
0.00413551
0.00388412
0.00349017
0.00305312
0.00195579
0.0011142
0.000655672
0.000409108
0.000248526
0.000172616
0.000147555
0.00016337
0.000353672
0.00158444
0.00429961
0.005686
0.00670701
0.00872381
0.00905736
0.00861622
0.00773697
0.00723337
0.00731613
0.00769727
0.00785034
0.00770358
0.00772194
0.00849269
0.0166193
0.0192279
0.00658173
0.0019508
0.00146564
0.00158453
0.00125813
0.0010226
0.000893469
0.000761802
0.000679482
0.000638436
0.000634404
0.000674459
0.000843946
0.00132723
0.00243431
0.00469474
0.00877125
0.0116255
0.013093
0.0143157
0.0147993
0.0143418
0.0131424
0.0107203
0.00846702
0.00635539
0.0049436
0.00408875
0.00371317
0.00391658
0.0041298
0.00423407
0.00419753
0.00402933
0.00379403
0.00350214
0.00306087
0.0025161
0.00206765
0.0017548
0.00155064
0.00140465
0.00128531
0.00118535
0.00110118
0.00102943
0.00096398
0.000912722
0.000870192
0.000840087
0.000821462
0.000809827
0.000804274
0.000798315
0.000783185
0.00075296
0.000712025
0.000676721
0.000652077
0.000630392
0.000611294
0.000598989
0.000592235
0.000583926
0.000562604
0.00048892
0.000415295
0.00038592
0.000367703
0.000334314
0.00025075
0.000182119
0.00015316
0.000148441
0.000152687
0.000159442
0.000158755
0.000152299
0.00013537
0.000123605
0.000117916
0.000115626
0.000114739
0.000114009
0.000112339
0.000107678
0.000100005
9.26461e-05
8.52813e-05
7.78876e-05
7.1368e-05
6.61939e-05
6.25112e-05
5.925e-05
5.63182e-05
5.2725e-05
4.96809e-05
4.62009e-05
4.39287e-05
4.15222e-05
4.04164e-05
3.84632e-05
3.7147e-05
3.41368e-05
0.00428368
0.00700081
0.00871258
0.00974931
0.0102847
0.0106979
0.0108311
0.0108307
0.0104734
0.0099503
0.00958776
0.00938444
0.00910179
0.0088581
0.0083421
0.00709826
0.00508956
0.00359
0.00268497
0.0022801
0.00211698
0.00207278
0.00211923
0.00243669
0.0033355
0.00408842
0.00446591
0.00462979
0.00466695
0.00458308
0.00444517
0.0042893
0.00421959
0.00419574
0.00422537
0.0042545
0.00426741
0.00429488
0.00431907
0.00432875
0.00427079
0.00407165
0.00373672
0.00346767
0.00337207
0.00339145
0.00378083
0.00399518
0.00367731
0.00339271
0.00278151
0.0015766
0.000877059