/*--------------------------------*- C++ -*----------------------------------*\
  =========                 |
  \\      /  F ield         | OpenFOAM: The Open Source CFD Toolbox
   \\    /   O peration     | Website:  https://openfoam.org
    \\  /    A nd           | Version:  7
     \\/     M anipulation  |
\*---------------------------------------------------------------------------*/
FoamFile
{
    version     2.0;
    format      ascii;
    class       volScalarField;
    location    "0.093";
    object      k_0;
}
// * * * * * * * * * * * * * * * * * * * * * * * * * * * * * * * * * * * * * //

dimensions      [0 2 -2 0 0 0 0];

internalField   nonuniform List<scalar> 
12225
(
1.93919e-05
1.80152e-05
1.67596e-05
1.55536e-05
1.4003e-05
1.25835e-05
1.1242e-05
9.92139e-06
8.70561e-06
7.48624e-06
6.33545e-06
5.41403e-06
4.59873e-06
3.76323e-06
3.6265e-06
2.3318e-05
1.39411e-05
3.36968e-05
1.99819e-05
1.98834e-05
1.96572e-05
1.9465e-05
1.90771e-05
1.8728e-05
1.81364e-05
1.77889e-05
1.72026e-05
1.68469e-05
1.6157e-05
1.56986e-05
1.49606e-05
1.45825e-05
1.37725e-05
2.00632e-05
1.85807e-05
1.91644e-05
1.99988e-05
1.91427e-05
1.89214e-05
1.89061e-05
1.88676e-05
1.87553e-05
1.86463e-05
1.86055e-05
1.85734e-05
1.85513e-05
1.84955e-05
1.84284e-05
1.82705e-05
1.81462e-05
1.77868e-05
1.88718e-05
1.86177e-05
1.85999e-05
2.00107e-05
2.0034e-05
2.00014e-05
1.96754e-05
1.80487e-05
1.61629e-05
1.59915e-05
1.61316e-05
1.66976e-05
1.73065e-05
1.76711e-05
1.78511e-05
1.78945e-05
1.78935e-05
1.78114e-05
1.78654e-05
1.78302e-05
1.7678e-05
2.08413e-05
2.16439e-05
2.36495e-05
2.46464e-05
2.4331e-05
2.27803e-05
2.05776e-05
1.92617e-05
1.86571e-05
1.83549e-05
1.82059e-05
1.81437e-05
1.80797e-05
1.79417e-05
1.75564e-05
1.66104e-05
1.57794e-05
1.51722e-05
2.08114e-05
2.49417e-05
2.92531e-05
2.85229e-05
2.57338e-05
2.51008e-05
2.51355e-05
2.50686e-05
2.45261e-05
2.31851e-05
2.18661e-05
2.08963e-05
2.04055e-05
2.01716e-05
1.98199e-05
1.89275e-05
1.768e-05
1.65514e-05
2.13849e-05
2.13656e-05
2.29359e-05
2.30514e-05
2.29361e-05
2.30906e-05
2.38854e-05
2.48247e-05
2.52442e-05
2.53082e-05
2.52996e-05
2.52686e-05
2.51946e-05
2.50265e-05
2.45806e-05
2.33938e-05
2.24661e-05
2.14679e-05
2.32993e-05
2.22986e-05
2.29584e-05
2.42041e-05
2.42533e-05
2.40519e-05
2.34518e-05
2.33106e-05
2.33927e-05
2.39877e-05
2.4915e-05
2.52046e-05
2.52106e-05
2.51088e-05
2.46588e-05
2.35878e-05
2.2837e-05
2.24242e-05
2.14884e-05
2.18992e-05
2.17294e-05
2.25881e-05
2.37836e-05
2.40684e-05
2.39626e-05
2.35105e-05
2.34903e-05
2.40273e-05
2.48288e-05
2.50257e-05
2.49754e-05
2.4536e-05
2.33221e-05
2.24347e-05
2.19529e-05
2.18021e-05
2.0397e-05
2.06009e-05
2.11183e-05
2.33308e-05
2.74863e-05
2.96576e-05
2.95454e-05
2.74502e-05
2.53162e-05
2.43862e-05
2.40177e-05
2.3741e-05
2.31507e-05
2.22613e-05
2.15365e-05
2.09716e-05
2.03483e-05
2.00304e-05
2.00356e-05
2.0361e-05
2.14735e-05
2.53849e-05
3.05658e-05
3.11677e-05
2.98056e-05
2.65407e-05
2.50203e-05
2.45507e-05
2.44007e-05
2.4308e-05
2.41611e-05
2.38541e-05
2.31253e-05
2.22279e-05
2.14925e-05
2.08454e-05
2.0428e-05
2.13405e-05
2.17343e-05
2.27372e-05
2.67761e-05
3.01298e-05
3.01466e-05
2.80795e-05
2.48398e-05
2.34867e-05
2.31072e-05
2.30832e-05
2.31453e-05
2.31436e-05
2.30285e-05
2.26174e-05
2.19842e-05
2.1515e-05
2.05536e-05
2.10343e-05
2.19158e-05
2.45096e-05
2.73912e-05
2.79076e-05
2.71549e-05
2.43099e-05
2.20935e-05
2.12432e-05
2.11005e-05
2.12089e-05
2.16507e-05
2.19081e-05
2.1953e-05
2.18789e-05
2.15215e-05
2.12295e-05
2.0395e-05
2.09466e-05
2.1658e-05
2.18989e-05
2.19435e-05
2.19257e-05
2.17228e-05
2.11233e-05
2.07773e-05
2.06995e-05
2.07328e-05
2.085e-05
2.0886e-05
2.08818e-05
2.08534e-05
2.07581e-05
2.06518e-05
2.06145e-05
2.01708e-05
2.03757e-05
2.06037e-05
2.06531e-05
2.06022e-05
2.06035e-05
2.06989e-05
2.07558e-05
2.07394e-05
2.0785e-05
2.09733e-05
2.10888e-05
2.11008e-05
2.10959e-05
2.10627e-05
2.09883e-05
2.0952e-05
2.09312e-05
2.02092e-05
2.04078e-05
2.04538e-05
2.04212e-05
2.03367e-05
2.03197e-05
2.0339e-05
2.0478e-05
2.06344e-05
2.0693e-05
2.07953e-05
2.10286e-05
2.1322e-05
2.15701e-05
2.17412e-05
2.18415e-05
2.18837e-05
2.18879e-05
2.02809e-05
2.02786e-05
2.03296e-05
2.03385e-05
2.03179e-05
2.03165e-05
2.03283e-05
2.0378e-05
2.05149e-05
2.06158e-05
2.07818e-05
2.09863e-05
2.11548e-05
2.124e-05
2.1252e-05
2.12387e-05
2.11954e-05
2.11202e-05
2.00583e-05
2.07486e-05
2.10996e-05
2.08526e-05
2.05156e-05
2.04159e-05
2.03922e-05
2.03521e-05
2.03315e-05
2.03413e-05
2.03916e-05
2.04805e-05
2.05488e-05
2.05827e-05
2.05828e-05
2.05499e-05
2.04414e-05
2.0368e-05
2.01876e-05
2.1239e-05
2.22055e-05
2.2086e-05
2.13314e-05
2.05754e-05
2.03778e-05
2.03789e-05
2.05115e-05
2.09388e-05
2.11081e-05
2.10934e-05
2.0966e-05
2.06879e-05
2.04811e-05
2.03464e-05
2.0256e-05
2.02054e-05
2.00419e-05
2.02229e-05
2.05835e-05
2.05128e-05
2.04953e-05
2.07925e-05
2.13112e-05
2.14056e-05
2.13839e-05
2.13825e-05
2.14274e-05
2.14412e-05
2.13823e-05
2.11345e-05
2.08594e-05
2.06751e-05
2.05498e-05
2.04695e-05
2.11779e-05
2.16771e-05
2.11583e-05
2.03942e-05
2.02597e-05
2.03245e-05
2.06966e-05
2.12205e-05
2.14317e-05
2.14572e-05
2.14155e-05
2.12246e-05
2.09781e-05
2.08163e-05
2.07152e-05
2.0653e-05
2.06185e-05
2.06008e-05
2.01836e-05
2.02278e-05
2.02021e-05
2.02351e-05
2.04721e-05
2.07235e-05
2.08118e-05
2.08225e-05
2.08117e-05
2.0754e-05
2.06865e-05
2.06516e-05
2.06336e-05
2.06133e-05
2.05895e-05
2.05709e-05
2.0563e-05
2.05629e-05
2.05711e-05
2.09523e-05
2.06596e-05
2.0509e-05
2.05275e-05
2.05519e-05
2.05311e-05
2.04151e-05
2.02649e-05
2.01811e-05
2.01444e-05
2.01351e-05
2.01361e-05
2.01485e-05
2.02011e-05
2.03191e-05
2.04173e-05
2.0485e-05
2.2972e-05
2.17894e-05
2.0736e-05
2.06169e-05
2.07372e-05
2.08935e-05
2.08911e-05
2.08012e-05
2.05191e-05
2.02919e-05
2.01651e-05
2.01051e-05
2.00847e-05
2.00827e-05
2.00892e-05
2.01242e-05
2.02349e-05
2.03464e-05
2.17866e-05
2.13505e-05
2.03898e-05
2.03347e-05
2.05128e-05
2.0635e-05
2.06344e-05
2.05476e-05
2.03664e-05
2.02629e-05
2.02144e-05
2.01954e-05
2.019e-05
2.01897e-05
2.01932e-05
2.02125e-05
2.02474e-05
2.02685e-05
2.24945e-05
2.17547e-05
2.05052e-05
2.03176e-05
2.04017e-05
2.05259e-05
2.05435e-05
2.05133e-05
2.03769e-05
2.02445e-05
2.01708e-05
2.01225e-05
2.00809e-05
2.00505e-05
2.004e-05
2.00431e-05
2.00727e-05
2.01662e-05
2.08578e-05
2.02619e-05
2.00009e-05
1.99484e-05
1.99243e-05
1.99271e-05
1.9928e-05
1.98743e-05
1.96426e-05
1.9315e-05
1.90734e-05
1.87679e-05
1.80764e-05
1.71764e-05
1.67417e-05
1.67376e-05
1.69762e-05
1.76778e-05
2.01805e-05
1.76871e-05
1.40348e-05
1.48476e-05
1.74511e-05
2.31486e-05
2.83009e-05
3.0813e-05
3.24075e-05
3.51759e-05
4.11429e-05
4.90881e-05
5.70983e-05
6.31819e-05
6.71962e-05
7.02603e-05
7.54784e-05
8.66846e-05
3.10161e-05
0.000105359
0.000139205
0.000196948
0.000295534
0.000372079
0.000400928
0.000408008
0.000416443
0.00043684
0.000466413
0.000493396
0.000513917
0.000526832
0.000535371
0.000545361
0.000566388
0.000607077
0.00249873
0.00234515
0.00232212
0.00231938
0.00229743
0.00217794
0.00193065
0.00179978
0.00173923
0.0016775
0.00159507
0.00150848
0.00143799
0.00139271
0.00137186
0.00136379
0.00135608
0.00134642
0.0037909
0.00589192
0.00627938
0.0067685
0.00682624
0.00667038
0.00625302
0.00582027
0.00558688
0.00536066
0.00502003
0.00472749
0.00493973
0.00543876
0.00603165
0.00686881
0.00762029
0.00774914
0.00754272
0.00704686
0.00628335
0.00557995
0.00537944
0.00541718
0.00582565
0.0065731
0.00688017
0.00691391
0.00675713
0.00632056
0.00586881
0.00584878
0.00660081
0.00911269
0.0127184
0.0136891
0.0135273
0.012033
0.00955438
0.00818504
0.00774861
0.007596
0.00754778
0.00759435
0.00775252
0.00789829
0.00803755
0.00814092
0.00828893
0.00845141
0.00871383
0.00904274
0.00950588
0.0100509
0.0107139
0.0116657
0.0127208
0.0135071
0.0145489
0.0162961
0.0175987
0.0178438
0.0171542
0.0146516
0.0141378
0.0150048
0.0178883
0.0227682
0.0307891
0.0417942
0.0544136
0.0657312
0.0679983
0.0655014
0.0698212
0.0935149
0.125424
0.158242
0.180075
0.173378
0.117721
0.03246
0.00559975
0.00198513
0.00136748
0.00125498
0.00124478
0.00119012
0.00108373
0.000953892
0.000786307
0.000649417
0.00053366
0.000408165
0.000343462
0.00029172
0.00026543
0.000256052
0.000261109
0.000263006
0.000263978
0.000264385
0.000264423
0.000264588
0.000263492
0.000260738
0.000258072
0.000256002
0.000255029
0.000253553
0.000249815
0.000245999
0.000243609
0.000241568
0.000236314
0.000232466
0.000227932
0.000222588
0.000218433
0.000212677
0.000208606
0.000203824
0.000199245
0.000194378
0.0001895
0.000184134
0.000178454
0.000172851
0.00016693
0.000161003
0.000155026
0.000148956
0.0001427
0.000136087
0.000128892
0.000121087
0.000112833
0.00010455
9.71315e-05
8.97504e-05
8.0503e-05
6.96784e-05
5.91194e-05
4.89898e-05
3.79659e-05
2.70314e-05
1.84771e-05
1.23672e-05
8.33738e-06
5.8803e-06
4.45778e-06
3.62951e-06
3.09975e-06
2.69916e-06
2.34627e-06
2.01542e-06
1.71008e-06
1.44115e-06
1.21246e-06
1.02101e-06
8.592e-07
7.22533e-07
6.05212e-07
5.07183e-07
4.20337e-07
3.56678e-07
2.85424e-07
2.47083e-07
2.30743e-07
2.56202e-07
2.52592e-07
2.88219e-07
2.41792e-07
2.98805e-07
2.19304e-07
3.9397e-07
5.10755e-07
9.42178e-07
9.84009e-06
7.72819e-06
0.00354045
0.00528541
0.0072707
0.00846936
0.00884643
0.0087705
0.00852151
0.00796785
0.00737771
0.00690286
0.00657463
0.00632324
0.00609202
0.00571844
0.00567067
0.00600548
0.00669182
0.0069912
0.00699567
0.00638446
0.00511502
0.0046942
0.00465596
0.00487709
0.00526696
0.0059874
0.00693364
0.00731257
0.00731234
0.00696485
0.0065362
0.00650252
0.00688236
0.00808282
0.00948207
0.00981362
0.00981686
0.00967935
0.0094254
0.00926805
0.00919629
0.00914138
0.00907592
0.00897707
0.00881689
0.00860073
0.00834655
0.00816118
0.00809492
0.0080821
0.00823221
0.0087051
0.00914613
0.00952696
0.0100418
0.0114478
0.0130045
0.0138496
0.0139393
0.0138004
0.013802
0.0147597
0.0160069
0.0159521
0.0151183
0.0141557
0.013194
0.0114218
0.00978456
0.00917099
0.0103383
0.0144357
0.0172868
0.0173102
0.0180777
0.020445
0.0264442
0.0416958
0.107613
0.110057
0.036588
0.00866591
0.00256658
0.00134033
0.000979107
0.000844617
0.000761055
0.000686628
0.000628831
0.0005894
0.000559306
0.000546371
0.000540604
0.000538678
0.000538206
0.00053799
0.000536459
0.000533788
0.000532939
0.000531626
0.000528175
0.000524714
0.000521093
0.000518209
0.000515008
0.000510814
0.000505481
0.000500952
0.000497396
0.000495052
0.000490797
0.000484911
0.000481551
0.000478824
0.000472337
0.000468011
0.000461312
0.000453215
0.000444825
0.000435107
0.000423881
0.000413065
0.0004021
0.00039134
0.000380389
0.000368687
0.000356676
0.000345709
0.000333331
0.000320878
0.000309204
0.000297995
0.000286831
0.00027541
0.000263724
0.000251441
0.000237675
0.000221888
0.000203847
0.000185145
0.000168532
0.000156294
0.000148035
0.000141042
0.000133646
0.000124469
0.000111943
9.72658e-05
8.24752e-05
6.90955e-05
5.78052e-05
4.86677e-05
4.14588e-05
3.58459e-05
3.13071e-05
2.72336e-05
2.32746e-05
1.95196e-05
1.62268e-05
1.35414e-05
1.13607e-05
9.56359e-06
8.02893e-06
6.72868e-06
5.57002e-06
4.64512e-06
3.78863e-06
3.21995e-06
2.61811e-06
2.30235e-06
1.89165e-06
1.73344e-06
1.4177e-06
1.31595e-06
1.07297e-06
1.0165e-06
9.10493e-07
8.97929e-07
2.05957e-06
2.06385e-06
0.00179543
0.00603246
0.00681352
0.00692878
0.0073756
0.00777316
0.00775403
0.00762989
0.00734497
0.007038
0.00679785
0.00654443
0.00632428
0.00599858
0.0057201
0.00572522
0.00593066
0.00614493
0.0060344
0.00544375
0.00493997
0.00495196
0.00566117
0.00679775
0.00762301
0.00855629
0.00948245
0.00977522
0.00984531
0.00986294
0.00997634
0.0103473
0.0105033
0.0105434
0.0102227
0.00896472
0.00761583
0.00697514
0.00650442
0.00590744
0.00552876
0.00525285
0.00493125
0.00463084
0.00425618
0.00386204
0.00351649
0.0033035
0.00321336
0.00319078
0.00333858
0.00378524
0.00452517
0.00567093
0.00691103
0.00961557
0.0123531
0.0138188
0.0142387
0.0151044
0.0154568
0.0149049
0.0139878
0.0139165
0.0137727
0.0133592
0.0121576
0.00914853
0.00714938
0.00662487
0.00695777
0.00780817
0.0085473
0.00972361
0.0115852
0.0149831
0.0241839
0.0619375
0.0684946
0.0272862
0.00691742
0.00215178
0.00114985
0.000877855
0.000769484
0.000707218
0.000659814
0.000620106
0.000591882
0.000566912
0.000550989
0.000539909
0.000534809
0.000532822
0.000533171
0.000538984
0.000543964
0.000551505
0.000556748
0.00055968
0.000561124
0.000561557
0.000560529
0.000557584
0.000556126
0.000554391
0.000551108
0.000548846
0.000546202
0.000544761
0.000543436
0.000540972
0.000540143
0.000539556
0.000538539
0.000538377
0.000537779
0.000537291
0.000536449
0.000535836
0.000534215
0.000531353
0.000526641
0.000519891
0.000510936
0.00049953
0.00048557
0.00046914
0.000450795
0.000429857
0.000409281
0.000388794
0.000367538
0.000346419
0.000325827
0.00030597
0.000288139
0.000272854
0.000258575
0.000241523
0.000218914
0.000191149
0.000164288
0.000146366
0.000137233
0.000132577
0.000129941
0.000126887
0.000120093
0.000107473
9.46424e-05
8.40027e-05
7.57084e-05
6.88245e-05
6.25835e-05
5.67436e-05
5.14836e-05
4.69705e-05
4.30722e-05
3.94852e-05
3.59868e-05
3.24706e-05
2.88839e-05
2.52785e-05
2.17685e-05
1.8449e-05
1.53819e-05
1.26578e-05
1.02848e-05
8.28755e-06
6.64695e-06
5.30563e-06
4.27932e-06
3.40962e-06
2.83792e-06
2.23488e-06
1.98958e-06
1.48656e-06
1.42265e-06
1.21468e-06
0.00265524
0.0057328
0.00581517
0.00613813
0.0069093
0.00764517
0.00789198
0.00776502
0.00738867
0.00697409
0.00672434
0.00649746
0.00633352
0.00609884
0.00589496
0.00575017
0.00567906
0.00553027
0.00537438
0.00534565
0.00558829
0.00752753
0.00939704
0.0100225
0.0102436
0.0103358
0.010345
0.0101239
0.00990481
0.00969856
0.0092173
0.00833584
0.00654923
0.00459537
0.00364448
0.00254174
0.0018157
0.00152535
0.0013764
0.00130078
0.00119323
0.0011104
0.00100833
0.000933948
0.000846829
0.000788163
0.000722799
0.000691262
0.000677472
0.000683309
0.000730626
0.000858413
0.00114885
0.00174383
0.00284954
0.00493439
0.00800519
0.00992814
0.0109099
0.0115622
0.0130858
0.0144963
0.0146574
0.0144751
0.0138633
0.0133892
0.012351
0.00967373
0.00761314
0.0069642
0.00698576
0.00716016
0.00780647
0.00840409
0.0098114
0.0182579
0.0450321
0.0563258
0.0243476
0.00704137
0.00203456
0.00107732
0.000869491
0.000797122
0.000748951
0.000719501
0.000705041
0.000689247
0.000680024
0.000666857
0.000658535
0.000646203
0.000637973
0.000624841
0.000611916
0.000598948
0.000585963
0.00057062
0.000555956
0.000545395
0.00053711
0.000528355
0.000523925
0.000518998
0.000514422
0.000512214
0.000509163
0.000507587
0.000506606
0.000505878
0.000505738
0.000506232
0.00050791
0.000509994
0.000512932
0.000516111
0.000520609
0.000525238
0.000530423
0.000535729
0.000541086
0.000546479
0.00055145
0.000555076
0.000556882
0.000557382
0.000556861
0.000554916
0.000551509
0.000545651
0.00053628
0.000522182
0.000502652
0.000477269
0.000445127
0.000406262
0.000362194
0.000321463
0.000292406
0.00027488
0.000266517
0.000261554
0.000251889
0.000224214
0.000189261
0.000167134
0.000156582
0.000152299
0.000149957
0.000147851
0.000144937
0.00013869
0.000123925
0.000107543
9.34336e-05
8.18111e-05
7.22678e-05
6.42792e-05
5.74377e-05
5.15719e-05
4.66391e-05
4.25193e-05
3.89461e-05
3.55927e-05
3.22285e-05
2.87873e-05
2.53271e-05
2.19299e-05
1.8658e-05
1.55462e-05
1.26672e-05
1.00799e-05
7.87569e-06
6.04903e-06
4.64111e-06
3.53692e-06
2.76558e-06
2.15687e-06
1.75951e-06
1.41774e-06
0.00340958
0.00526559
0.0055388
0.00681368
0.00972948
0.0119587
0.012827
0.0126551
0.0119504
0.0102356
0.00832585
0.00719881
0.00663078
0.00629551
0.00600282
0.00574741
0.00548764
0.00537797
0.00547576
0.00630428
0.00901556
0.0102488
0.0105221
0.0105401
0.010405
0.0102365
0.00989235
0.00920243
0.00818684
0.00650846
0.00434696
0.00275607
0.00185637
0.00143352
0.00121964
0.00111302
0.00107046
0.00105528
0.00104726
0.00101602
0.000953863
0.00089181
0.000812937
0.000729791
0.000660469
0.000599098
0.000523148
0.000476116
0.000429985
0.000407921
0.000400841
0.000433792
0.000575253
0.000997895
0.00206222
0.00415042
0.00756799
0.00969125
0.0105852
0.0109258
0.0113361
0.0122694
0.0138058
0.0142311
0.0141469
0.0137753
0.0128526
0.0107044
0.0088193
0.00773189
0.00747164
0.00768501
0.00813563
0.00843476
0.0103188
0.0257483
0.0452977
0.0284157
0.00840129
0.00240023
0.0011126
0.000890882
0.000832629
0.00079647
0.000768327
0.000747998
0.000716604
0.000696572
0.000678167
0.000654309
0.000623375
0.00058295
0.000557377
0.000531121
0.000509981
0.000499412
0.000492069
0.00048989
0.000490206
0.000490049
0.000488102
0.000485322
0.000481069
0.000478068
0.000473109
0.000470936
0.000468232
0.000467259
0.000466818
0.000467038
0.000468255
0.000470188
0.000472778
0.000475566
0.000478405
0.000480719
0.000483904
0.000486683
0.000490262
0.00049402
0.000498193
0.000502828
0.000508185
0.000514879
0.000523146
0.000531846
0.000540032
0.000547124
0.00055246
0.000555579
0.000556347
0.000554544
0.000548085
0.000539436
0.000529796
0.000517449
0.000495783
0.000451751
0.000383179
0.000313385
0.000269292
0.000252262
0.000248696
0.000247334
0.000242431
0.000219662
0.000184135
0.00016507
0.000157783
0.000156413
0.000156557
0.000156508
0.000155692
0.000152462
0.00014177
0.000123842
0.000107407
9.32715e-05
8.14721e-05
7.15729e-05
6.31565e-05
5.61306e-05
5.05156e-05
4.623e-05
4.30212e-05
4.05669e-05
3.83788e-05
3.58988e-05
3.26244e-05
2.84783e-05
2.37285e-05
1.89336e-05
1.45336e-05
1.08262e-05
7.88385e-06
5.6636e-06
4.07561e-06
2.93149e-06
2.21314e-06
1.64803e-06
0.00354797
0.00626043
0.00646393
0.0100928
0.0128672
0.014356
0.0149831
0.0151647
0.0148979
0.014063
0.0125321
0.0101859
0.0082708
0.00706889
0.00604625
0.00562893
0.00548285
0.00571424
0.00705996
0.00945814
0.0103853
0.0105236
0.0104731
0.0102153
0.00967843
0.00875302
0.00714642
0.00516507
0.00337679
0.00215838
0.00150765
0.00120728
0.00109328
0.00106082
0.00105762
0.00109121
0.00111866
0.00113455
0.00114146
0.00111621
0.00103289
0.000959529
0.00085132
0.000757203
0.000669683
0.000594737
0.000510385
0.00045587
0.000395806
0.000351394
0.000317749
0.000303096
0.000338132
0.00057865
0.00133339
0.00326967
0.00697858
0.00910869
0.00969881
0.00986108
0.0106647
0.0117197
0.0130742
0.0139517
0.014127
0.014057
0.0136452
0.0122151
0.0100512
0.00857931
0.00806554
0.00813244
0.00821202
0.00846676
0.0104561
0.0276184
0.0360924
0.0126133
0.00343762
0.00130646
0.000945834
0.000877979
0.000847223
0.000825015
0.000783897
0.000751859
0.00070509
0.000664677
0.000606539
0.000565652
0.000529213
0.00051574
0.000510768
0.000509354
0.000511806
0.000523956
0.000547423
0.000580018
0.000612122
0.000633938
0.000642115
0.000639066
0.000617626
0.000603867
0.000572167
0.00055772
0.000536001
0.000525907
0.000517082
0.000513348
0.000512172
0.000513036
0.000515284
0.000517776
0.000519194
0.000519011
0.000518164
0.000515613
0.000513169
0.000510389
0.000507441
0.00050517
0.000503755
0.000503094
0.000503391
0.000504932
0.000507527
0.000510748
0.000514271
0.000518052
0.000522295
0.000527182
0.00053099
0.000532273
0.000531524
0.000526414
0.000517309
0.000507498
0.000490903
0.000452829
0.000363011
0.00027839
0.000236811
0.00022778
0.000229031
0.000229101
0.000224489
0.000200043
0.000171503
0.000159068
0.000155696
0.000155628
0.000156406
0.000156497
0.000155631
0.000151641
0.000139389
0.00012412
0.000110009
9.72434e-05
8.62053e-05
7.70289e-05
6.94421e-05
6.31352e-05
5.79389e-05
5.39843e-05
5.12354e-05
4.93545e-05
4.74626e-05
4.4741e-05
4.06134e-05
3.52452e-05
2.91971e-05
2.32469e-05
1.78701e-05
1.31259e-05
9.32291e-06
6.24811e-06
4.40519e-06
2.81448e-06
0.00407881
0.00678669
0.00722684
0.0117081
0.0137844
0.0151038
0.0157037
0.0162844
0.0164059
0.0153377
0.0134004
0.0110337
0.00859834
0.00690767
0.00597246
0.00572532
0.00611312
0.00805881
0.00972466
0.0102527
0.0103539
0.0101973
0.0095912
0.0083711
0.00626218
0.00449574
0.00285471
0.00203062
0.00151094
0.00129099
0.00121541
0.00120281
0.0012489
0.00141923
0.00161307
0.00185175
0.00206512
0.00217263
0.00221406
0.00221033
0.00204493
0.00188429
0.00160996
0.00137799
0.00112309
0.000889905
0.000700075
0.000561543
0.000447819
0.000365411
0.000309548
0.000269805
0.000249744
0.000262397
0.000417125
0.00106728
0.00329853
0.00612582
0.00699252
0.00694263
0.00794655
0.00987448
0.0119246
0.0133975
0.014031
0.0140902
0.0139943
0.0135395
0.0122132
0.0103927
0.00954132
0.00950494
0.00937723
0.00902123
0.010947
0.0278979
0.0239353
0.00640715
0.00187373
0.00106942
0.000946354
0.00090892
0.000867626
0.000834548
0.000781398
0.000736062
0.000648239
0.000580527
0.000547927
0.00053377
0.000528579
0.000529093
0.000554726
0.000607323
0.00069399
0.000827335
0.00099379
0.00116653
0.0013028
0.00139877
0.00143471
0.00143008
0.00132426
0.00125061
0.00109821
0.00101288
0.000902084
0.000833466
0.000776575
0.000739627
0.0007177
0.00070696
0.000702048
0.000699308
0.000696327
0.000690244
0.000682729
0.000671659
0.000659173
0.000644505
0.000626344
0.000607394
0.000587861
0.000568369
0.000550248
0.000535101
0.000524155
0.000517538
0.000514459
0.000513415
0.000513014
0.000513118
0.00051334
0.000513316
0.000513187
0.000512697
0.000511047
0.000505125
0.000494241
0.000483139
0.000462325
0.000405119
0.000296822
0.000229868
0.000207994
0.000207711
0.000211621
0.000210855
0.000202279
0.000175325
0.000157673
0.000151589
0.000151138
0.000152095
0.000152345
0.000151616
0.000148369
0.000138244
0.000124917
0.000111982
9.96639e-05
8.89343e-05
8.03291e-05
7.35344e-05
6.77746e-05
6.2645e-05
5.82502e-05
5.492e-05
5.25692e-05
5.06596e-05
4.83681e-05
4.5043e-05
4.05763e-05
3.51438e-05
2.95015e-05
2.36645e-05
1.8627e-05
1.36266e-05
1.04172e-05
6.895e-06
0.00431515
0.00726252
0.00848351
0.0123883
0.0140144
0.0152678
0.0158347
0.0159809
0.015535
0.0144055
0.0126726
0.0104377
0.00799458
0.006799
0.00632659
0.00685433
0.00864623
0.00968191
0.0100013
0.0100635
0.00960951
0.00841806
0.00601965
0.00413636
0.00289242
0.00202695
0.00162035
0.00146009
0.00140598
0.00140254
0.001592
0.00196714
0.00258669
0.00316449
0.00350164
0.00377741
0.0038951
0.00394312
0.00395284
0.00390215
0.00382523
0.0036855
0.00347373
0.00309956
0.00261867
0.00205016
0.00152678
0.00110643
0.000753841
0.000523488
0.000385681
0.000292774
0.000241682
0.000220961
0.000231629
0.000412406
0.00121857
0.00382538
0.00545671
0.00586334
0.00608656
0.00673339
0.00815784
0.0105228
0.01281
0.0137848
0.0138794
0.0137696
0.0133289
0.0122974
0.0116461
0.0108419
0.00945831
0.00896286
0.011514
0.0274745
0.0167288
0.00374537
0.00139399
0.00106697
0.000990674
0.000957184
0.00087729
0.000822148
0.00075881
0.000679215
0.000599126
0.000563297
0.000550737
0.00054845
0.00057428
0.000651278
0.000813121
0.00109532
0.00151051
0.00205057
0.00262558
0.00309345
0.00339613
0.00361868
0.00369641
0.00370454
0.00345286
0.00319264
0.0028089
0.00244106
0.00207259
0.00175205
0.00152287
0.00134759
0.00122184
0.00114162
0.00109231
0.0010565
0.00102816
0.00100367
0.000984624
0.000971227
0.00095314
0.000929926
0.00089801
0.000862979
0.000825104
0.000782834
0.000736227
0.000686802
0.000639197
0.000598523
0.000569043
0.000548751
0.000534592
0.000525428
0.000520093
0.000517776
0.000516067
0.000514181
0.000511828
0.000507397
0.000494089
0.000472444
0.000459382
0.000445205
0.00041053
0.0003103
0.000226619
0.000192177
0.000188386
0.000194284
0.000195903
0.000192396
0.000174959
0.000154907
0.000145746
0.000143738
0.000144002
0.000144335
0.000143718
0.000140596
0.000131076
0.00011948
0.00010836
9.74422e-05
8.75773e-05
7.95469e-05
7.33023e-05
6.81645e-05
6.34328e-05
5.89434e-05
5.50312e-05
5.19921e-05
4.98514e-05
4.79271e-05
4.57251e-05
4.23465e-05
3.83383e-05
3.30356e-05
2.81452e-05
2.23113e-05
1.82716e-05
1.32333e-05
0.00444431
0.00746243
0.00909671
0.0119982
0.0128535
0.0138038
0.0142622
0.0143657
0.0135759
0.0126294
0.0111177
0.00928572
0.00812677
0.00765767
0.0080412
0.00907522
0.00951118
0.00965269
0.0095731
0.00869228
0.00642979
0.00436213
0.00296519
0.00219544
0.00181765
0.0016564
0.00160927
0.00160683
0.00187734
0.0024192
0.00334148
0.00385639
0.00419398
0.00433707
0.00439451
0.00441104
0.00440644
0.00437109
0.00435028
0.00429857
0.00427034
0.00421814
0.00418713
0.00412127
0.00395824
0.00367928
0.00314032
0.00242044
0.00168113
0.00100494
0.000631291
0.000425235
0.000290962
0.000221526
0.000198416
0.000216291
0.000472795
0.00180486
0.0041908
0.00537453
0.00569572
0.00610076
0.00655307
0.0071902
0.00844393
0.0108481
0.0127013
0.0131381
0.0130142
0.0123041
0.0116198
0.0105617
0.00907365
0.0087831
0.0126971
0.0253775
0.012151
0.00251432
0.00132171
0.00112048
0.00113127
0.000966691
0.000879631
0.000772601
0.0007038
0.000634239
0.000594527
0.00057466
0.000575682
0.000625272
0.000768675
0.00108861
0.00167119
0.00260769
0.00387223
0.00532762
0.00619312
0.00656509
0.0066619
0.00648294
0.00586518
0.0053416
0.00501331
0.00476889
0.0045431
0.00429346
0.00399412
0.00361615
0.00314081
0.00266645
0.00223486
0.00190603
0.00170515
0.00155997
0.00144712
0.00136543
0.00130868
0.00124669
0.00118434
0.00112632
0.00107245
0.00102506
0.000984251
0.00094741
0.00091256
0.000875126
0.000832899
0.000785782
0.000731894
0.000675741
0.000623745
0.000584076
0.000561859
0.000551404
0.000543994
0.000537764
0.000533112
0.000528728
0.000520584
0.000495759
0.000456764
0.000435327
0.00042066
0.000391274
0.000304723
0.000217792
0.000179257
0.000172692
0.000177844
0.000182214
0.000180232
0.000169269
0.000149798
0.000139037
0.00013537
0.000134546
0.000134272
0.000133576
0.000130839
0.00012257
0.000112513
0.00010311
9.35915e-05
8.46131e-05
7.71723e-05
7.14546e-05
6.68516e-05
6.25827e-05
5.84046e-05
5.43642e-05
5.10304e-05
4.82832e-05
4.6554e-05
4.45564e-05
4.27241e-05
3.91954e-05
3.59339e-05
3.05818e-05
2.67231e-05
2.08127e-05
0.00448377
0.00752577
0.00933932
0.0113274
0.0121051
0.0125529
0.0127545
0.0127597
0.0122711
0.011496
0.0102528
0.00945536
0.00910311
0.00905996
0.00914971
0.00929617
0.00932279
0.00886795
0.0074753
0.00498977
0.00331031
0.00245824
0.00202815
0.00185726
0.00180815
0.0018051
0.00210043
0.00278776
0.0036979
0.00425199
0.00447684
0.00454365
0.00454585
0.00443429
0.00436962
0.00429626
0.00421666
0.00418033
0.0041364
0.00411413
0.00410229
0.00411108
0.00419099
0.00424249
0.00425876
0.00413664
0.00391093
0.00350559
0.00299289
0.00206255
0.00113782
0.000709345
0.000444157
0.000284926
0.000200808
0.000173613
0.000189551
0.000420173
0.00146028
0.00426221
0.00543982
0.00602919
0.00658483
0.00706344
0.00715258
0.00727994
0.00796236
0.00964585
0.0106909
0.0108158
0.0105071
0.00919705
0.00821782
0.0084543
0.0147439
0.021852
0.00892667
0.00204687
0.00135321
0.00129408
0.00121508
0.000985286
0.000885097
0.000757964
0.00068051
0.000629647
0.000607422
0.000605422
0.0006581
0.000845516
0.00129312
0.00221752
0.00385319
0.00644825
0.00865218
0.00962243
0.0100064
0.0100249
0.00885899
0.00779439
0.00675245
0.00573424
0.00512312
0.00483688
0.00470776
0.00460852
0.00448412
0.00432841
0.00412553
0.0038358
0.00346554
0.00298787
0.0024808
0.00211605
0.00183249
0.00162433
0.00146875
0.00135435
0.00125836
0.00117511
0.00110432
0.00104955
0.00100461
0.000967139
0.000935312
0.00090578
0.000876036
0.000847916
0.000821949
0.000794559
0.000755156
0.000699378
0.000648766
0.00061983
0.000599987
0.000582997
0.000571461
0.000565557
0.000560384
0.000549241
0.000509073
0.000445253
0.000414769
0.000398032
0.000367193
0.000282332
0.00020151
0.000165996
0.000159484
0.000163642
0.00016981
0.000168632
0.000160948
0.000142903
0.000131461
0.000126473
0.000124714
0.000124019
0.000123144
0.000120844
0.000114339
0.000105712
9.76276e-05
8.93534e-05
8.12203e-05
7.42254e-05
6.8942e-05
6.48251e-05
6.11868e-05
5.73116e-05
5.36615e-05
5.00142e-05
4.73564e-05
4.46909e-05
4.34412e-05
4.12843e-05
3.98044e-05
3.64337e-05
3.38385e-05
2.83849e-05
0.00446358
0.00739516
0.00919622
0.0104956
0.0110509
0.0114586
0.0116042
0.0115955
0.0111721
0.0106179
0.00992361
0.00951879
0.00928811
0.00917807
0.0090899
0.00889467
0.00812341
0.00602196
0.00400159
0.00288878
0.00230155
0.0020523
0.00196428
0.00194256
0.00215119
0.00273879
0.00365988
0.00424732
0.0045094
0.0045931
0.00455901
0.00444618
0.00426237
0.00417523
0.00413363
0.00411621
0.00411219
0.00409185
0.00405244
0.00396645
0.0038376
0.00371791
0.00364298
0.00360236
0.00387455
0.0040878
0.00413369
0.00388069
0.00348772
0.00304764
0.00194207
0.00110785
0.000652109
0.00040657
0.000247122
0.000172199
0.00014744
0.000164768
0.000362254
0.00164252
0.00434445
0.00570479
0.00671459
0.00869598
0.00900665
0.00857317
0.00771128
0.00722422
0.00730963
0.00768959
0.00783364
0.00769169
0.00772022
0.00851828
0.0167807
0.0191627
0.00644251
0.00194392
0.00147158
0.00159241
0.00126062
0.00102497
0.000894539
0.00076273
0.000680052
0.000638926
0.000634996
0.000675518
0.000845905
0.00133076
0.00244039
0.00470402
0.00878187
0.011642
0.0131118
0.0143265
0.0148061
0.0143249
0.0131172
0.0106958
0.00845043
0.00634901
0.00494686
0.00409709
0.0037331
0.00393853
0.00414612
0.00424343
0.00420174
0.00403027
0.0037931
0.00349761
0.00305073
0.00250645
0.00206022
0.00174959
0.0015469
0.0014019
0.00128327
0.00118388
0.0011004
0.00102931
0.000964535
0.000913779
0.00087166
0.000841753
0.000822999
0.000811104
0.000805153
0.000798571
0.00078266
0.000751887
0.000710781
0.000675678
0.000651214
0.000629621
0.000610686
0.000598575
0.000591898
0.000583473
0.000561625
0.000486783
0.000414013
0.000385224
0.000367041
0.000333314
0.000249265
0.000181302
0.000152821
0.000148337
0.00015275
0.000159452
0.000158724
0.000152128
0.000135148
0.000123478
0.000117854
0.000115596
0.000114722
0.000113989
0.000112304
0.000107592
9.99109e-05
9.25555e-05
8.51912e-05
7.78036e-05
7.12981e-05
6.61414e-05
6.24705e-05
5.92144e-05
5.62817e-05
5.26885e-05
4.96456e-05
4.617e-05
4.39032e-05
4.15031e-05
4.04e-05
3.84463e-05
3.71273e-05
3.41085e-05
0.00428478
0.00700208
0.00871536
0.00974895
0.0102824
0.0106955
0.0108297
0.0108301
0.0104756
0.00995221
0.00958746
0.00938477
0.00910012
0.00885335
0.0083313
0.00707466
0.00506541
0.00357919
0.00267947
0.00227807
0.00211681
0.00207316
0.00212248
0.00244336
0.0033451
0.00409328
0.00446814
0.00463054
0.00466712
0.00458298
0.00444358
0.00428855
0.00421904
0.00419534
0.00422465
0.0042539
0.00426732
0.00429469
0.00431873
0.00432849
0.00426944
0.00406811
0.0037331
0.00346641
0.00337172
0.00339514
0.00378586
0.003994
0.00367486
0.00339024
0.00277138
0.00156731