/*--------------------------------*- C++ -*----------------------------------*\
  =========                 |
  \\      /  F ield         | OpenFOAM: The Open Source CFD Toolbox
   \\    /   O peration     | Website:  https://openfoam.org
    \\  /    A nd           | Version:  7
     \\/     M anipulation  |
\*---------------------------------------------------------------------------*/
FoamFile
{
    version     2.0;
    format      ascii;
    class       volScalarField;
    location    "0.093";
    object      pMean;
}
// * * * * * * * * * * * * * * * * * * * * * * * * * * * * * * * * * * * * * //

dimensions      [0 2 -2 0 0 0 0];

internalField   nonuniform List<scalar> 
12225
(
-2.54312
-1.38007
-0.945013
-0.831693
-0.772832
-0.729235
-0.702912
-0.697199
-0.708835
-0.730648
-0.755324
-0.777881
-0.795692
-0.8105
-0.824618
-0.853383
-0.903023
-1.06814
-2.21606
-1.36893
-0.948976
-0.82814
-0.773787
-0.732882
-0.706627
-0.699799
-0.710167
-0.730744
-0.75455
-0.776048
-0.793935
-0.807005
-0.823325
-0.842073
-0.893671
-0.946505
-2.0461
-1.38849
-0.972908
-0.830555
-0.776466
-0.737536
-0.710121
-0.700543
-0.707676
-0.725277
-0.746461
-0.766805
-0.783822
-0.798959
-0.813707
-0.836257
-0.868609
-0.921213
-1.84887
-1.3532
-0.972604
-0.819785
-0.767688
-0.733947
-0.708375
-0.697545
-0.70246
-0.717813
-0.737536
-0.756912
-0.774607
-0.790142
-0.807307
-0.827969
-0.858602
-0.899644
-1.68023
-1.31701
-0.978311
-0.81754
-0.76205
-0.731512
-0.707832
-0.695926
-0.69837
-0.711454
-0.729391
-0.748038
-0.76548
-0.782205
-0.799776
-0.821087
-0.848417
-0.88205
-1.52318
-1.26352
-0.971476
-0.809759
-0.749644
-0.722013
-0.701771
-0.690297
-0.691205
-0.702441
-0.719156
-0.737305
-0.755075
-0.772563
-0.791006
-0.812458
-0.837938
-0.868342
-1.3809
-1.19994
-0.956077
-0.800594
-0.736086
-0.710185
-0.693612
-0.683586
-0.683585
-0.693225
-0.708717
-0.726432
-0.744446
-0.762684
-0.781927
-0.803573
-0.828356
-0.85694
-1.24969
-1.12759
-0.930114
-0.786697
-0.719704
-0.69437
-0.681171
-0.673338
-0.673291
-0.681885
-0.696585
-0.71414
-0.732541
-0.751514
-0.771548
-0.793711
-0.818508
-0.846614
-1.131
-1.05095
-0.894604
-0.76709
-0.700601
-0.675289
-0.664957
-0.659937
-0.660851
-0.669019
-0.683116
-0.700618
-0.719574
-0.739418
-0.760376
-0.783257
-0.808495
-0.836778
-1.01873
-0.970714
-0.849674
-0.740439
-0.677784
-0.652824
-0.644773
-0.64265
-0.645224
-0.653769
-0.667807
-0.685462
-0.704998
-0.725721
-0.747669
-0.771436
-0.797413
-0.826229
-0.909801
-0.887555
-0.79636
-0.706212
-0.650273
-0.626786
-0.62078
-0.621608
-0.626492
-0.636095
-0.650523
-0.668648
-0.688979
-0.710731
-0.733759
-0.75851
-0.785294
-0.814693
-0.819995
-0.810689
-0.740913
-0.667832
-0.619973
-0.59919
-0.595156
-0.598574
-0.605918
-0.617131
-0.632462
-0.651236
-0.672347
-0.695065
-0.719116
-0.744787
-0.772308
-0.802183
-0.731008
-0.733202
-0.681366
-0.623941
-0.584998
-0.568101
-0.566449
-0.572488
-0.582392
-0.595593
-0.612255
-0.632073
-0.654201
-0.677978
-0.703064
-0.729648
-0.757841
-0.788068
-0.621023
-0.640142
-0.60721
-0.565998
-0.537869
-0.526933
-0.528919
-0.538241
-0.551436
-0.567413
-0.586105
-0.60739
-0.63078
-0.655794
-0.682076
-0.709671
-0.738571
-0.769074
-0.507266
-0.535928
-0.517251
-0.491449
-0.475663
-0.472879
-0.480173
-0.493671
-0.510669
-0.530089
-0.551678
-0.575299
-0.600601
-0.627227
-0.654854
-0.683483
-0.713037
-0.743752
-0.380583
-0.412294
-0.405753
-0.395191
-0.393254
-0.400878
-0.415565
-0.434821
-0.456874
-0.480776
-0.506135
-0.532791
-0.560539
-0.589176
-0.618442
-0.648274
-0.678515
-0.709217
-0.233491
-0.266768
-0.269031
-0.272909
-0.285977
-0.306272
-0.330783
-0.357782
-0.386373
-0.416055
-0.446485
-0.477431
-0.508677
-0.540068
-0.571436
-0.602747
-0.633907
-0.665015
-0.0397685
-0.0841649
-0.101144
-0.120792
-0.149763
-0.184802
-0.221909
-0.259212
-0.296195
-0.332802
-0.368999
-0.40472
-0.43984
-0.474308
-0.508048
-0.541074
-0.573232
-0.604527
0.22522
0.160675
0.121543
0.0799863
0.0300151
-0.0245809
-0.0791589
-0.13161
-0.18165
-0.22957
-0.275513
-0.319431
-0.361202
-0.400827
-0.438394
-0.474157
-0.508248
-0.540915
0.469788
0.400967
0.345326
0.2796
0.205109
0.130188
0.060392
-0.00331006
-0.0622214
-0.117727
-0.170479
-0.220572
-0.2679
-0.312462
-0.354328
-0.393674
-0.430593
-0.465291
0.707264
0.627777
0.548125
0.451764
0.348193
0.249364
0.16047
0.0808854
0.00845908
-0.058213
-0.119525
-0.175595
-0.226769
-0.273687
-0.316975
-0.357221
-0.394711
-0.429765
0.952488
0.850353
0.735657
0.604947
0.477301
0.36522
0.269106
0.18342
0.103778
0.0290361
-0.0401535
-0.103237
-0.16044
-0.212491
-0.26013
-0.30402
-0.34457
-0.382167
1.23241
1.08047
0.905474
0.722943
0.559939
0.425836
0.314962
0.218133
0.130358
0.0506383
-0.0208745
-0.0846286
-0.141734
-0.193522
-0.240943
-0.284565
-0.324617
-0.361461
1.51681
1.31368
1.07509
0.851198
0.672261
0.533297
0.415416
0.306229
0.204347
0.112697
0.0326657
-0.0370662
-0.09884
-0.154544
-0.205222
-0.251518
-0.293859
-0.332774
1.79501
1.50537
1.16461
0.884564
0.689657
0.54882
0.427824
0.314931
0.211574
0.120708
0.0420989
-0.026695
-0.0881241
-0.143749
-0.194306
-0.24028
-0.282027
-0.320083
2.16692
1.75181
1.30771
0.988454
0.786997
0.636531
0.496997
0.365688
0.250299
0.153179
0.0710003
-0.000646886
-0.0646365
-0.122343
-0.174444
-0.221564
-0.264301
-0.303335
2.48643
1.84205
1.29154
0.974339
0.794867
0.647674
0.503772
0.369945
0.255048
0.159141
0.0775464
0.00590047
-0.058234
-0.115979
-0.167985
-0.214899
-0.257326
-0.295918
2.99615
2.06494
1.36959
1.03713
0.854946
0.690184
0.530813
0.389842
0.272352
0.174791
0.0915226
0.0184207
-0.046771
-0.105204
-0.157655
-0.204826
-0.247451
-0.286223
3.22609
2.02918
1.33338
1.04716
0.867801
0.695772
0.532929
0.392226
0.275644
0.178439
0.0951329
0.0219492
-0.0432577
-0.101617
-0.153973
-0.200929
-0.243294
-0.281537
4.03885
2.07382
1.33359
1.08093
0.889468
0.706509
0.540495
0.399272
0.282224
0.184405
0.10056
0.0269885
-0.0384826
-0.0970201
-0.149497
-0.1965
-0.238835
-0.276832
-1.17622
-1.19327
-1.21787
-1.23821
-1.24862
-1.25047
-1.24873
-1.25027
-1.2625
-1.29165
-1.3416
-1.41298
-1.5032
-1.60761
-1.71986
-1.83274
-1.93904
-2.03216
-2.10677
-2.15941
-2.18848
-2.19434
-2.17947
-2.14806
-2.10524
-2.05621
-2.00547
-1.95673
-1.91123
-1.87021
-1.83389
-1.80413
-1.78268
-1.76828
-1.76131
-1.76436
-1.77991
-1.80843
-1.84823
-1.89907
-1.95885
-2.02582
-2.09647
-2.16641
-2.23236
-2.29591
-2.3591
-2.41997
-2.47308
-2.51345
-2.53998
-2.55225
-2.55064
-2.53653
-2.51199
-2.47959
-2.44171
-2.39869
-2.34865
-2.28975
-2.22182
-2.14756
-2.07144
-1.99726
-1.92791
-1.866
-1.81414
-1.77293
-1.7406
-1.71384
-1.68878
-1.66174
-1.6291
-1.58849
-1.54057
-1.48847
-1.43416
-1.3833
-1.34222
-1.30856
-1.27178
-1.22253
-1.15479
-1.06429
-0.948576
-0.806923
-0.63993
-0.449094
-0.236527
-0.00479897
0.243082
0.503979
0.774757
1.0524
1.33407
1.61714
1.89919
2.17804
2.45174
2.71851
2.97669
3.22468
3.46101
3.68434
3.89358
4.0879
4.26683
4.43026
4.57843
4.71181
4.83108
4.937
5.03036
5.11193
5.1824
5.24235
5.29234
5.33288
5.36449
5.38767
5.40296
5.41092
5.41216
5.40734
5.39708
5.38214
5.3632
5.34096
5.31616
5.28947
5.26158
5.23308
5.20453
5.1764
5.14906
5.12281
5.09786
5.07432
5.05227
5.0317
5.01258
4.99482
4.97832
4.963
4.94876
4.9355
4.92314
4.91161
4.90093
4.89111
4.88219
4.87416
4.86695
4.86041
4.85438
4.84873
4.84333
4.8381
4.83297
4.82792
4.82292
4.81798
4.8131
4.80831
4.80364
4.79915
4.79489
4.79098
4.78751
4.78469
4.78262
4.78173
4.78211
4.78465
4.7894
4.79811
4.81097
4.83118
4.8619
4.89844
-1.2519
-1.26947
-1.29857
-1.32291
-1.33695
-1.34096
-1.34251
-1.34735
-1.36413
-1.39862
-1.45399
-1.53024
-1.6247
-1.73258
-1.84759
-1.96274
-2.07098
-2.16574
-2.2417
-2.29482
-2.32272
-2.32543
-2.30566
-2.26809
-2.21836
-2.16257
-2.10617
-2.05337
-2.00698
-1.96899
-1.9408
-1.92135
-1.911
-1.9106
-1.91741
-1.92891
-1.94976
-1.98555
-2.03007
-2.07765
-2.13547
-2.201
-2.26999
-2.33851
-2.40489
-2.47109
-2.53511
-2.59516
-2.64535
-2.68147
-2.70253
-2.70914
-2.70196
-2.68205
-2.65181
-2.61428
-2.57233
-2.5266
-2.47545
-2.41709
-2.35061
-2.27763
-2.20147
-2.12703
-2.0574
-1.99447
-1.94032
-1.89453
-1.85538
-1.82032
-1.78806
-1.75643
-1.72139
-1.68051
-1.63493
-1.58835
-1.54202
-1.49719
-1.45797
-1.42337
-1.38382
-1.32954
-1.25487
-1.15643
-1.03256
-0.883021
-0.708601
-0.510949
-0.292377
-0.0555611
0.196696
0.461432
0.735659
1.01644
1.30098
1.58669
1.87117
2.15226
2.42801
2.69666
2.95658
3.20622
3.44413
3.66897
3.87962
4.07523
4.2553
4.41974
4.56879
4.70295
4.82292
4.92948
5.02346
5.10562
5.17663
5.2371
5.28755
5.3285
5.36045
5.38392
5.39945
5.40762
5.40903
5.40434
5.39422
5.3794
5.36056
5.33842
5.31371
5.28713
5.25934
5.23095
5.20251
5.17448
5.14726
5.12112
5.09627
5.07283
5.05087
5.03037
5.01132
4.99363
4.97723
4.96202
4.9479
4.93476
4.92253
4.91113
4.90058
4.89088
4.88207
4.87413
4.86698
4.86048
4.85448
4.84882
4.84341
4.83816
4.83301
4.82793
4.82291
4.81795
4.81304
4.80822
4.80351
4.79897
4.79467
4.7907
4.78714
4.78422
4.78202
4.78093
4.78113
4.78324
4.78768
4.79534
4.80756
4.82439
4.8512
4.87208
-1.26603
-1.27804
-1.30263
-1.33017
-1.35799
-1.38472
-1.41294
-1.44715
-1.49287
-1.55423
-1.63299
-1.72841
-1.83739
-1.9549
-2.07519
-2.19236
-2.30074
-2.3946
-2.46866
-2.51866
-2.54215
-2.53966
-2.51387
-2.46935
-2.41183
-2.34717
-2.28101
-2.21859
-2.16466
-2.12323
-2.09678
-2.0853
-2.08522
-2.09347
-2.11062
-2.13837
-2.17572
-2.22265
-2.27906
-2.34279
-2.41122
-2.48171
-2.55407
-2.62772
-2.70171
-2.77366
-2.83963
-2.89649
-2.94184
-2.97353
-2.98998
-2.99047
-2.97531
-2.94601
-2.90559
-2.85873
-2.81018
-2.76064
-2.70899
-2.65444
-2.59497
-2.52886
-2.45623
-2.37951
-2.30304
-2.23068
-2.16399
-2.10284
-2.04724
-1.99734
-1.95358
-1.91563
-1.88162
-1.84783
-1.81386
-1.78022
-1.74491
-1.70835
-1.6717
-1.63154
-1.58085
-1.51326
-1.42446
-1.31202
-1.17498
-1.01343
-0.828273
-0.621169
-0.394096
-0.149512
0.109845
0.381074
0.661237
0.947433
1.23691
1.52712
1.81572
2.10061
2.37992
2.65194
2.91511
3.16791
3.40889
3.63667
3.85009
4.04822
4.23055
4.39699
4.54779
4.68352
4.8049
4.9128
5.00804
5.09142
5.16359
5.22513
5.27657
5.3184
5.35112
5.37525
5.39134
5.39999
5.4018
5.39748
5.38769
5.37317
5.35461
5.33275
5.3083
5.28198
5.25445
5.22634
5.19819
5.17047
5.14355
5.11772
5.09317
5.07003
5.04835
5.02813
5.00933
4.9919
4.97573
4.96076
4.94687
4.93398
4.92202
4.91091
4.90065
4.89121
4.88259
4.87474
4.8676
4.86105
4.85496
4.84922
4.84373
4.8384
4.83319
4.82806
4.82298
4.81796
4.81298
4.80809
4.8033
4.79866
4.79424
4.79012
4.78639
4.7832
4.78073
4.77918
4.77889
4.7801
4.78361
4.78932
4.7993
4.81118
4.8309
4.84186
-1.26828
-1.27486
-1.29381
-1.33043
-1.37979
-1.43707
-1.50095
-1.57233
-1.65304
-1.74402
-1.84556
-1.95804
-2.08092
-2.21052
-2.34082
-2.46607
-2.58045
-2.67771
-2.75185
-2.79831
-2.81565
-2.80644
-2.77486
-2.72554
-2.66363
-2.59523
-2.52623
-2.46225
-2.4078
-2.36811
-2.34372
-2.33298
-2.33439
-2.34685
-2.36993
-2.40436
-2.45075
-2.50813
-2.57442
-2.64791
-2.72647
-2.8072
-2.88945
-2.97349
-3.05715
-3.13754
-3.21172
-3.27629
-3.3274
-3.36094
-3.37375
-3.3649
-3.33599
-3.291
-3.23528
-3.17623
-3.11916
-3.063
-3.00486
-2.94609
-2.88645
-2.82357
-2.75494
-2.67974
-2.59943
-2.51712
-2.43598
-2.3587
-2.28775
-2.22406
-2.16773
-2.12147
-2.08557
-2.0563
-2.03182
-2.0109
-1.9887
-1.96141
-1.9281
-1.88427
-1.82427
-1.7439
-1.64069
-1.51353
-1.36227
-1.18745
-0.990076
-0.771639
-0.534093
-0.279761
-0.0113006
0.268419
0.556471
0.849967
1.14617
1.44254
1.73679
2.02691
2.31111
2.58778
2.85543
3.11258
3.35779
3.58966
3.80693
4.00863
4.19419
4.3635
4.51686
4.6549
4.77842
4.88832
4.98548
5.07068
5.14458
5.20773
5.26063
5.30375
5.33757
5.36263
5.37948
5.38877
5.39116
5.38734
5.37801
5.3639
5.34573
5.32426
5.3002
5.27427
5.24714
5.21945
5.19174
5.16448
5.13804
5.11269
5.08862
5.06594
5.04469
5.02485
5.0064
4.98929
4.97344
4.95876
4.94517
4.93258
4.92092
4.91011
4.90012
4.89092
4.88249
4.87478
4.86771
4.8612
4.85513
4.84938
4.84387
4.83852
4.83327
4.8281
4.82297
4.81789
4.81285
4.80788
4.803
4.79825
4.79369
4.78939
4.78545
4.78198
4.77915
4.77709
4.77619
4.77646
4.77875
4.78255
4.78974
4.7974
4.80978
4.8122
-1.28777
-1.29762
-1.32841
-1.37901
-1.44705
-1.52811
-1.6174
-1.71423
-1.82124
-1.93805
-2.06348
-2.19757
-2.3391
-2.48402
-2.62708
-2.76289
-2.886
-2.99058
-3.07073
-3.12115
-3.1405
-3.13102
-3.09763
-3.04645
-2.9839
-2.91612
-2.84868
-2.78666
-2.73427
-2.69507
-2.67072
-2.66089
-2.66446
-2.68097
-2.71029
-2.75245
-2.80682
-2.87189
-2.94611
-3.02727
-3.11244
-3.19936
-3.28719
-3.37539
-3.46263
-3.54672
-3.62489
-3.69346
-3.74791
-3.78329
-3.79537
-3.78225
-3.74502
-3.68762
-3.61619
-3.54046
-3.46658
-3.39092
-3.31311
-3.23806
-3.16688
-3.09768
-3.02812
-2.95611
-2.88047
-2.80138
-2.72024
-2.63881
-2.55997
-2.48666
-2.42165
-2.36785
-2.32714
-2.29819
-2.27998
-2.26959
-2.26012
-2.24446
-2.21656
-2.17066
-2.1028
-2.01085
-1.89408
-1.75265
-1.58727
-1.39887
-1.18849
-0.957575
-0.708106
-0.442438
-0.163248
0.126592
0.424145
0.726531
1.03101
1.33505
1.63639
1.93308
2.22343
2.50592
2.7791
3.04157
3.29193
3.52879
3.75081
3.95693
4.14651
4.31942
4.47602
4.61703
4.74332
4.85585
4.95554
5.04316
5.11935
5.18461
5.23938
5.28411
5.31928
5.34545
5.36325
5.37335
5.37645
5.37326
5.36452
5.35097
5.33334
5.3124
5.28887
5.26348
5.23691
5.2098
5.1827
5.15608
5.1303
5.10562
5.08222
5.06018
5.03955
5.0203
5.0024
4.98577
4.97036
4.95612
4.94294
4.93074
4.91945
4.909
4.89934
4.89044
4.88225
4.87473
4.86779
4.86135
4.85531
4.84956
4.84403
4.83865
4.83336
4.82814
4.82296
4.81782
4.81271
4.80764
4.80265
4.79778
4.79306
4.78856
4.78438
4.78058
4.77735
4.77474
4.77311
4.7724
4.77327
4.77518
4.77934
4.78317
4.7886
4.78502
-1.32784
-1.34398
-1.38496
-1.44802
-1.52956
-1.62513
-1.73109
-1.84749
-1.97545
-2.1133
-2.26007
-2.41603
-2.57948
-2.7458
-2.90917
-3.06358
-3.20259
-3.32
-3.41001
-3.46871
-3.49508
-3.49158
-3.46342
-3.4174
-3.36072
-3.29965
-3.23946
-3.18487
-3.13962
-3.10642
-3.08684
-3.0812
-3.08947
-3.11172
-3.1476
-3.19654
-3.25727
-3.32806
-3.40664
-3.49048
-3.57716
-3.66486
-3.75265
-3.83982
-3.92532
-4.00737
-4.08337
-4.14975
-4.20188
-4.23456
-4.24327
-4.22537
-4.18094
-4.11336
-4.02876
-3.93763
-3.84522
-3.74459
-3.63846
-3.53617
-3.44079
-3.35276
-3.27109
-3.19415
-3.11985
-3.04613
-2.97164
-2.89633
-2.8218
-2.75116
-2.68745
-2.63404
-2.5939
-2.56761
-2.55496
-2.55322
-2.55478
-2.54851
-2.52525
-2.4783
-2.40436
-2.30282
-2.1743
-2.01996
-1.84114
-1.63914
-1.41522
-1.1711
-0.908736
-0.630622
-0.33954
-0.0383956
0.269884
0.582418
0.896436
1.20937
1.51896
1.82329
2.12076
2.40995
2.68946
2.95794
3.21403
3.45639
3.6837
3.8948
4.08894
4.26596
4.42629
4.5707
4.70019
4.81582
4.91854
5.00908
5.08804
5.15581
5.21279
5.25939
5.29611
5.3236
5.3425
5.35355
5.35751
5.35511
5.34711
5.33428
5.31736
5.29712
5.27429
5.24962
5.2238
5.19745
5.17115
5.14536
5.12043
5.09662
5.07409
5.0529
5.03307
5.01457
4.99736
4.98139
4.96657
4.95283
4.94013
4.92839
4.91753
4.9075
4.89821
4.88964
4.88172
4.87441
4.86762
4.86127
4.85528
4.84956
4.84404
4.83865
4.83335
4.8281
4.82287
4.81766
4.81248
4.80732
4.80222
4.79721
4.79232
4.78761
4.78316
4.77902
4.77534
4.77216
4.76974
4.76801
4.76741
4.76743
4.76866
4.76899
4.76867
4.76039
-1.34993
-1.37802
-1.43189
-1.50612
-1.59702
-1.70114
-1.81755
-1.94783
-2.09366
-2.25329
-2.424
-2.60269
-2.78647
-2.97168
-3.15379
-3.32731
-3.48557
-3.62173
-3.72952
-3.80503
-3.84751
-3.85947
-3.8462
-3.81482
-3.77254
-3.72585
-3.68022
-3.64005
-3.60874
-3.58856
-3.58062
-3.58509
-3.60194
-3.63087
-3.67144
-3.72306
-3.78482
-3.85539
-3.93301
-4.0157
-4.10148
-4.1889
-4.27707
-4.36505
-4.45133
-4.53389
-4.60993
-4.67548
-4.72575
-4.75602
-4.76225
-4.74106
-4.69146
-4.61535
-4.51815
-4.40917
-4.29061
-4.15608
-4.01468
-3.87834
-3.75243
-3.63847
-3.5368
-3.4462
-3.36435
-3.28856
-3.21642
-3.14656
-3.079
-3.01534
-2.95842
-2.91131
-2.87688
-2.85654
-2.85046
-2.85615
-2.86561
-2.86639
-2.84776
-2.80214
-2.72555
-2.61773
-2.48019
-2.3147
-2.1231
-1.90722
-1.66878
-1.40968
-1.13247
-0.840049
-0.535458
-0.22168
0.0984149
0.422049
0.746494
1.06918
1.38786
1.70065
2.00601
2.30258
2.589
2.86394
3.12612
3.37424
3.60702
3.82331
4.02228
4.20374
4.36809
4.51622
4.64925
4.76832
4.87441
4.96825
5.05031
5.12091
5.18036
5.22906
5.26757
5.29656
5.31676
5.32896
5.33397
5.33255
5.3255
5.31357
5.29753
5.27815
5.25619
5.2324
5.20747
5.18207
5.15674
5.13196
5.10808
5.08534
5.06388
5.04375
5.02493
5.00737
4.99104
4.97586
4.96179
4.94876
4.93669
4.92552
4.91518
4.90561
4.89676
4.88855
4.88095
4.87387
4.86727
4.86105
4.85515
4.84949
4.844
4.83862
4.83331
4.82803
4.82276
4.81749
4.81223
4.80698
4.80176
4.79659
4.79152
4.78658
4.78184
4.77734
4.77318
4.7694
4.76616
4.76339
4.76131
4.75948
4.75796
4.75509
4.75012
4.73796
-1.35135
-1.38871
-1.45623
-1.53635
-1.63064
-1.74068
-1.86756
-2.01134
-2.17152
-2.3463
-2.53313
-2.72894
-2.93058
-3.13496
-3.33835
-3.53559
-3.71975
-3.88272
-4.01777
-4.12027
-4.18889
-4.22584
-4.23638
-4.22775
-4.20765
-4.183
-4.15935
-4.14075
-4.12981
-4.12785
-4.13498
-4.15091
-4.17541
-4.20845
-4.25027
-4.30103
-4.36072
-4.42911
-4.50596
-4.5904
-4.68118
-4.77696
-4.87605
-4.9763
-5.07503
-5.16889
-5.25359
-5.32407
-5.375
-5.40126
-5.39835
-5.36367
-5.29695
-5.20031
-5.07912
-4.94115
-4.78513
-4.60978
-4.42891
-4.25683
-4.09954
-3.95886
-3.83524
-3.72731
-3.63256
-3.54821
-3.47156
-3.40098
-3.33603
-3.27773
-3.228
-3.18948
-3.16444
-3.1535
-3.1563
-3.17037
-3.18748
-3.19519
-3.18285
-3.14245
-3.06776
-2.9573
-2.81282
-2.63687
-2.43194
-2.20053
-1.94525
-1.66878
-1.37436
-1.06553
-0.745773
-0.418213
-0.0855697
0.249693
0.585077
0.918096
1.24648
1.56832
1.88206
2.18643
2.48017
2.76201
3.03061
3.28466
3.5229
3.74425
3.94794
4.13382
4.30229
4.45434
4.59115
4.71392
4.82364
4.92102
5.00645
5.08009
5.14221
5.19321
5.23367
5.26433
5.28601
5.29955
5.30579
5.30554
5.29959
5.28873
5.27374
5.25539
5.23446
5.21172
5.18787
5.16359
5.13944
5.11589
5.09328
5.07182
5.05164
5.03276
5.01516
4.99877
4.98351
4.96932
4.95613
4.94392
4.9326
4.92212
4.9124
4.90337
4.89499
4.8872
4.87994
4.87314
4.86675
4.8607
4.85491
4.84933
4.84388
4.83852
4.83321
4.82791
4.8226
4.81728
4.81193
4.80658
4.80123
4.79591
4.79065
4.78547
4.78042
4.77554
4.77089
4.76649
4.76242
4.7586
4.75507
4.75144
4.74743
4.74168
4.73293
4.71758
-1.36438
-1.40142
-1.46428
-1.54018
-1.63286
-1.74434
-1.87599
-2.02766
-2.1981
-2.38485
-2.58527
-2.79674
-3.01693
-3.24351
-3.47347
-3.70127
-3.91844
-4.11569
-4.28492
-4.42087
-4.5218
-4.58977
-4.63021
-4.65079
-4.65954
-4.66322
-4.66678
-4.67348
-4.68497
-4.70142
-4.72213
-4.74638
-4.77421
-4.80674
-4.84601
-4.89421
-4.95346
-5.02544
-5.11075
-5.20889
-5.31843
-5.43709
-5.56149
-5.68754
-5.8104
-5.92418
-6.02231
-6.09825
-6.14603
-6.16074
-6.13915
-6.07973
-5.98336
-5.85301
-5.69429
-5.51385
-5.30993
-5.08773
-4.8643
-4.65519
-4.46612
-4.29875
-4.1527
-4.02626
-3.91679
-3.82126
-3.73685
-3.66176
-3.59564
-3.53957
-3.49538
-3.46515
-3.45079
-3.4519
-3.46681
-3.4922
-3.51949
-3.53639
-3.53236
-3.49923
-3.42898
-3.31824
-3.16808
-2.98177
-2.7628
-2.51473
-2.24111
-1.94548
-1.63199
-1.30504
-0.968681
-0.626177
-0.280082
0.0675678
0.414579
0.758563
1.09713
1.42835
1.75077
2.06326
2.3647
2.65389
2.9294
3.18971
3.43342
3.65955
3.86756
4.05755
4.23003
4.38599
4.52663
4.6532
4.76669
4.86774
4.95663
5.03342
5.09831
5.1517
5.19421
5.22665
5.24992
5.26492
5.27253
5.27358
5.26888
5.25924
5.24545
5.2283
5.20858
5.18708
5.16453
5.14161
5.11888
5.0968
5.0757
5.05577
5.03713
5.01975
5.00358
4.98854
4.97456
4.96157
4.94947
4.93823
4.92781
4.91813
4.90913
4.90074
4.89291
4.88558
4.87871
4.87223
4.86609
4.86023
4.85457
4.84908
4.8437
4.83838
4.83308
4.82776
4.82242
4.81703
4.81161
4.80615
4.80067
4.79519
4.78973
4.7843
4.77894
4.77367
4.76852
4.76348
4.75858
4.75371
4.74881
4.74345
4.7372
4.72887
4.71706
4.69905
-1.3652
-1.39553
-1.44672
-1.51619
-1.60657
-1.71876
-1.85377
-2.01136
-2.19017
-2.38774
-2.60148
-2.82902
-3.0687
-3.31901
-3.57704
-3.83662
-4.08817
-4.32099
-4.5263
-4.69871
-4.83639
-4.94113
-5.01813
-5.07447
-5.11747
-5.15337
-5.18651
-5.21907
-5.25131
-5.28249
-5.31202
-5.34019
-5.3687
-5.40077
-5.44088
-5.49388
-5.5635
-5.65177
-5.75903
-5.88403
-6.02405
-6.17503
-6.33195
-6.48907
-6.63962
-6.77565
-6.88875
-6.97101
-7.01587
-7.01839
-6.9752
-6.88515
-6.75
-6.5738
-6.36381
-6.12664
-5.86457
-5.58876
-5.31793
-5.0678
-4.84449
-4.64815
-4.47739
-4.33037
-4.20443
-4.09628
-4.00282
-3.92179
-3.85294
-3.79759
-3.75777
-3.73555
-3.73275
-3.74819
-3.77856
-3.81889
-3.85986
-3.8889
-3.89519
-3.87043
-3.80539
-3.69503
-3.53993
-3.34355
-3.11052
-2.84569
-2.55325
-2.2375
-1.90351
-1.55674
-1.20218
-0.843446
-0.482843
-0.122012
0.237113
0.592342
0.941351
1.28225
1.61372
1.93478
2.24452
2.54165
2.82457
3.09141
3.34053
3.57108
3.78297
3.97664
4.1528
4.31244
4.45675
4.58701
4.7042
4.80888
4.9012
4.98113
5.04876
5.1045
5.14905
5.1833
5.20822
5.22476
5.23385
5.23633
5.23303
5.22476
5.21234
5.19656
5.17825
5.15821
5.13719
5.11587
5.09484
5.07454
5.05526
5.03716
5.0203
5.00468
4.99021
4.97679
4.9643
4.95266
4.94182
4.93173
4.92234
4.91359
4.90541
4.89775
4.89055
4.88375
4.87731
4.87118
4.86532
4.85967
4.85417
4.84879
4.84348
4.8382
4.83291
4.82759
4.82221
4.81677
4.81126
4.8057
4.80009
4.79444
4.78877
4.78309
4.77741
4.77174
4.76608
4.76041
4.75469
4.7488
4.74258
4.73562
4.72736
4.71675
4.70242
4.68219
-1.33599
-1.36129
-1.40732
-1.47326
-1.56225
-1.67557
-1.81485
-1.98011
-2.16978
-2.3814
-2.6124
-2.86028
-3.12301
-3.39872
-3.68399
-3.97199
-4.25298
-4.5162
-4.75321
-4.95935
-5.13336
-5.2768
-5.39368
-5.48934
-5.56944
-5.63907
-5.70185
-5.75934
-5.81138
-5.85732
-5.89737
-5.93352
-5.96947
-6.01035
-6.06197
-6.12994
-6.21856
-6.33011
-6.46424
-6.61827
-6.78838
-6.96995
-7.15745
-7.34452
-7.52317
-7.68362
-7.81495
-7.90694
-7.95106
-7.94096
-7.87312
-7.74756
-7.567
-7.33718
-7.06691
-6.76434
-6.43831
-6.10519
-5.78435
-5.49013
-5.2292
-5.00085
-4.8033
-4.63462
-4.49171
-4.37081
-4.26817
-4.18106
-4.109
-4.05383
-4.01813
-4.00415
-4.01317
-4.04345
-4.09029
-4.14728
-4.20414
-4.24725
-4.26519
-4.24918
-4.18925
-4.07956
-3.91991
-3.71404
-3.46765
-3.18637
-2.87514
-2.53891
-2.18369
-1.81624
-1.44269
-1.06715
-0.691714
-0.317552
0.0537486
0.420282
0.779927
1.13098
1.47221
1.80273
2.12162
2.42744
2.71817
2.99154
3.24581
3.48037
3.69563
3.89249
4.07187
4.23477
4.38244
4.51613
4.63681
4.74496
4.84056
4.92343
4.99363
5.05158
5.09807
5.13407
5.16065
5.1788
5.18945
5.19349
5.19173
5.18501
5.17413
5.15992
5.14322
5.12486
5.10561
5.08618
5.06714
5.04891
5.03176
5.01581
5.00108
4.98749
4.97497
4.96338
4.9526
4.94256
4.93319
4.92442
4.9162
4.90849
4.90125
4.89441
4.88791
4.8817
4.87575
4.87001
4.86446
4.85904
4.85373
4.84847
4.84324
4.83801
4.83274
4.8274
4.82199
4.81649
4.81091
4.80524
4.79949
4.79367
4.78779
4.78185
4.77585
4.76978
4.76362
4.75732
4.75081
4.74394
4.73648
4.72802
4.71797
4.70536
4.68892
4.66684
-1.29697
-1.31892
-1.36165
-1.42599
-1.51598
-1.63343
-1.78058
-1.95805
-2.16471
-2.39803
-2.65458
-2.93054
-3.22234
-3.52655
-3.83862
-4.15154
-4.45657
-4.74494
-5.00964
-5.24648
-5.45402
-5.63288
-5.78593
-5.91765
-6.03279
-6.13542
-6.22816
-6.31202
-6.38691
-6.45255
-6.50985
-6.56143
-6.61161
-6.666
-6.7307
-6.81155
-6.91313
-7.03791
-7.1857
-7.35448
-7.54129
-7.74211
-7.95136
-8.16148
-8.36201
-8.53989
-8.68177
-8.77622
-8.81462
-8.79057
-8.70043
-8.54391
-8.32469
-8.0494
-7.72705
-7.36778
-6.98653
-6.60421
-6.24011
-5.90612
-5.60989
-5.35145
-5.12914
-4.94061
-4.78199
-4.6488
-4.53646
-4.44222
-4.36602
-4.30996
-4.27741
-4.27071
-4.29039
-4.33379
-4.39566
-4.46817
-4.54013
-4.5968
-4.626
-4.61795
-4.56229
-4.45318
-4.28981
-4.07598
-3.81784
-3.52162
-3.19322
-2.83821
-2.46343
-2.07674
-1.68521
-1.29356
-0.903759
-0.516756
-0.133552
0.244269
0.61486
0.976714
1.32858
1.66954
1.99844
2.31343
2.61196
2.89147
3.15032
3.3884
3.60659
3.80612
3.98815
4.15384
4.30447
4.44131
4.56524
4.67661
4.7752
4.8607
4.93315
4.99303
5.04126
5.07894
5.10717
5.12697
5.1393
5.14501
5.14494
5.1399
5.13074
5.11828
5.10339
5.08691
5.06968
5.05241
5.03568
5.01987
5.00519
4.99172
4.97942
4.96819
4.9579
4.9484
4.93959
4.93134
4.92359
4.91631
4.90942
4.9029
4.89668
4.89074
4.88502
4.87947
4.87405
4.86875
4.86353
4.85838
4.85326
4.84814
4.843
4.83782
4.83257
4.82723
4.82178
4.81622
4.81055
4.80477
4.79889
4.7929
4.78681
4.78061
4.77429
4.76782
4.76116
4.75425
4.74698
4.73917
4.73056
4.72073
4.70907
4.69471
4.67648
4.65287
-1.26247
-1.28252
-1.32506
-1.39083
-1.48508
-1.6111
-1.77223
-1.96949
-2.2018
-2.46587
-2.75686
-3.06904
-3.39667
-3.73423
-4.07613
-4.41601
-4.74685
-5.06153
-5.35406
-5.6201
-5.85742
-6.06639
-6.24995
-6.41231
-6.55766
-6.6892
-6.80843
-6.91539
-7.00946
-7.09041
-7.15952
-7.21953
-7.27479
-7.33078
-7.39335
-7.46853
-7.56163
-7.6767
-7.81555
-7.97769
-8.16081
-8.36065
-8.57088
-8.7826
-8.98387
-9.16059
-9.2994
-9.38932
-9.42229
-9.39174
-9.29239
-9.12233
-8.88444
-8.58583
-8.2361
-7.84685
-7.43591
-7.02631
-6.63679
-6.27788
-5.95774
-5.67877
-5.43928
-5.23636
-5.06523
-4.92084
-4.79884
-4.69723
-4.61659
-4.55966
-4.52958
-4.52837
-4.5555
-4.60777
-4.67977
-4.76313
-4.8458
-4.91203
-4.94852
-4.94456
-4.89063
-4.78166
-4.61632
-4.3977
-4.13164
-3.8249
-3.48418
-3.11564
-2.72657
-2.32529
-1.91963
-1.51464
-1.11229
-0.71352
-0.319054
0.0697773
0.451387
0.824317
1.18726
1.53904
1.87805
2.20191
2.50746
2.79219
3.05487
3.29588
3.51646
3.71812
3.90231
4.07036
4.22364
4.36337
4.49031
4.60454
4.70566
4.79329
4.86752
4.929
4.97879
5.01806
5.04795
5.06946
5.08354
5.09103
5.09276
5.08956
5.08226
5.07171
5.05879
5.0444
5.0294
5.01454
5.00041
4.98735
4.97551
4.96487
4.95535
4.9468
4.93904
4.93191
4.92528
4.91904
4.91311
4.90747
4.90206
4.89683
4.89175
4.88679
4.88191
4.87707
4.87224
4.8674
4.86255
4.85768
4.85277
4.84781
4.84277
4.83765
4.83241
4.82706
4.82158
4.81596
4.81021
4.80433
4.7983
4.79215
4.78585
4.77939
4.77275
4.76589
4.75875
4.75124
4.74324
4.73455
4.72487
4.71378
4.7007
4.68481
4.66506
4.64014
-1.24358
-1.26316
-1.30765
-1.37797
-1.48099
-1.62161
-1.80411
-2.02987
-2.2975
-2.60246
-2.9381
-3.29644
-3.66946
-4.04972
-4.43078
-4.80663
-5.171
-5.51711
-5.83832
-6.12999
-6.39046
-6.6207
-6.82351
-7.00275
-7.16227
-7.30489
-7.43171
-7.54254
-7.63659
-7.71347
-7.77413
-7.82089
-7.85788
-7.89082
-7.92608
-7.97039
-8.03024
-8.11108
-8.21608
-8.34596
-8.49869
-8.67054
-8.85577
-9.0462
-9.2305
-9.39444
-9.52441
-9.60949
-9.64162
-9.61379
-9.51982
-9.35753
-9.1285
-8.83854
-8.497
-8.11584
-7.71157
-7.30658
-6.91863
-6.55831
-6.23308
-5.94785
-5.70164
-5.49147
-5.31251
-5.15995
-5.03058
-4.92379
-4.84094
-4.78446
-4.75671
-4.75848
-4.78848
-4.84367
-4.91901
-5.00611
-5.09226
-5.161
-5.19792
-5.19206
-5.13587
-5.02541
-4.85927
-4.63938
-4.37132
-4.06125
-3.71592
-3.34194
-2.94698
-2.53931
-2.12665
-1.71391
-1.30332
-0.895963
-0.492547
-0.0943143
0.297212
0.68053
1.05401
1.41597
1.76401
2.09523
2.40625
2.69486
2.9604
3.20356
3.42589
3.62917
3.8151
3.98523
4.14093
4.2833
4.41284
4.52937
4.63236
4.72149
4.79704
4.85983
4.91102
4.95184
4.98338
5.00663
5.02249
5.03183
5.03546
5.03421
5.0289
5.0204
5.00961
4.99746
4.98489
4.97268
4.96142
4.95143
4.94275
4.93531
4.92892
4.92337
4.91846
4.91397
4.90977
4.90575
4.90182
4.89797
4.89417
4.89036
4.88652
4.88261
4.87862
4.87454
4.87033
4.866
4.86154
4.85697
4.85228
4.84748
4.84256
4.83749
4.83228
4.82693
4.82141
4.81573
4.8099
4.8039
4.79774
4.79142
4.78491
4.7782
4.77125
4.76401
4.7564
4.74833
4.73964
4.73012
4.71946
4.70724
4.69288
4.67564
4.65458
4.62857
-1.24214
-1.26259
-1.31145
-1.38985
-1.50713
-1.66917
-1.88135
-2.14542
-2.45944
-2.81704
-3.20919
-3.62551
-4.05594
-4.49143
-4.92444
-5.34752
-5.75214
-6.12917
-6.4715
-6.77527
-7.03985
-7.26719
-7.46118
-7.62658
-7.76787
-7.88837
-7.98976
-8.07216
-8.13486
-8.17728
-8.20023
-8.20622
-8.19946
-8.18614
-8.17303
-8.16729
-8.17568
-8.20534
-8.26051
-8.34272
-8.45075
-8.58158
-8.72997
-8.88874
-9.04767
-9.19383
-9.31395
-9.39742
-9.43596
-9.42194
-9.34846
-9.21289
-9.01688
-8.7659
-8.46658
-8.12905
-7.76712
-7.39887
-7.0415
-6.70586
-6.39764
-6.12307
-5.88337
-5.67572
-5.49606
-5.34084
-5.2085
-5.09997
-5.01718
-4.96171
-4.93453
-4.93554
-4.96343
-5.01587
-5.08837
-5.17233
-5.25413
-5.31703
-5.34659
-5.33344
-5.27189
-5.15916
-4.99376
-4.7767
-4.51202
-4.2056
-3.86393
-3.49391
-3.10291
-2.6985
-2.28755
-1.87458
-1.462
-1.05113
-0.642795
-0.238271
0.160803
0.552562
0.93468
1.30467
1.65948
1.9957
2.31017
2.60106
2.86813
3.11242
3.33575
3.54016
3.72753
3.89949
4.05733
4.20191
4.33345
4.45156
4.5557
4.64576
4.72222
4.78609
4.83856
4.88084
4.91397
4.93892
4.95657
4.96778
4.97336
4.97413
4.9709
4.96452
4.95595
4.94617
4.93619
4.92687
4.91878
4.91219
4.90703
4.90312
4.9002
4.89799
4.89621
4.89465
4.89313
4.89155
4.88983
4.88793
4.88585
4.88356
4.88104
4.87825
4.87522
4.87192
4.86837
4.86457
4.86052
4.85626
4.85181
4.84718
4.84237
4.83737
4.83219
4.82682
4.82127
4.81553
4.80962
4.80351
4.79722
4.79073
4.78402
4.77706
4.76981
4.7622
4.75416
4.74555
4.73621
4.72592
4.71436
4.70111
4.68563
4.66721
4.64502
4.61806
-1.25163
-1.27532
-1.33157
-1.42255
-1.5609
-1.75352
-2.0073
-2.32367
-2.69895
-3.12362
-3.58551
-4.0718
-4.57039
-5.0695
-5.55807
-6.02492
-6.45849
-6.8489
-7.18861
-7.47357
-7.70383
-7.88321
-8.01847
-8.11766
-8.18871
-8.2375
-8.26778
-8.28166
-8.27936
-8.26174
-8.22902
-8.18297
-8.12668
-8.06483
-8.00345
-7.94898
-7.90765
-7.88691
-7.89245
-7.92702
-7.99003
-8.0787
-8.18853
-8.31371
-8.44606
-8.57461
-8.68772
-8.77549
-8.8294
-8.84094
-8.80232
-8.70998
-8.56556
-8.37433
-8.14215
-7.87628
-7.58571
-7.28268
-6.98219
-6.69506
-6.42529
-6.17779
-5.95791
-5.76359
-5.59221
-5.44209
-5.31337
-5.20795
-5.12766
-5.07325
-5.04467
-5.0417
-5.06389
-5.10942
-5.1734
-5.24628
-5.31439
-5.36267
-5.37885
-5.3554
-5.28793
-5.17358
-5.01082
-4.80004
-4.54434
-4.24889
-3.91971
-3.56315
-3.18566
-2.79367
-2.39294
-1.98745
-1.57963
-1.17096
-0.762514
-0.355715
0.0475205
0.444601
0.832285
1.20712
1.5655
1.90388
2.21936
2.51052
2.77753
3.02177
3.24534
3.45044
3.63899
3.81251
3.97212
4.11838
4.25124
4.37021
4.47489
4.56541
4.64248
4.70722
4.76083
4.80445
4.83909
4.86566
4.88507
4.89815
4.90568
4.90846
4.9073
4.90307
4.89677
4.88949
4.88233
4.87621
4.87172
4.86898
4.86779
4.86787
4.86885
4.87036
4.87208
4.87377
4.87523
4.87635
4.87705
4.87729
4.87709
4.87644
4.87533
4.87375
4.87172
4.86926