/*--------------------------------*- C++ -*----------------------------------*\
  =========                 |
  \\      /  F ield         | OpenFOAM: The Open Source CFD Toolbox
   \\    /   O peration     | Website:  https://openfoam.org
    \\  /    A nd           | Version:  7
     \\/     M anipulation  |
\*---------------------------------------------------------------------------*/
FoamFile
{
    version     2.0;
    format      ascii;
    class       volScalarField;
    location    "0.093";
    object      s;
}
// * * * * * * * * * * * * * * * * * * * * * * * * * * * * * * * * * * * * * //

dimensions      [0 0 0 0 0 0 0];

internalField   nonuniform List<scalar> 
12225
(
1
1
1
1
1
1
1
1
1
1
1
1
1
1
1
1
1
1
1
1
1
1
1
1
1
1
1
1
1
1
1
1
1
1
1
1
1
1
1
1
1
1
1
1
1
1
1
1
1
1
1
1
1
1
1
1
1
1
1
1
1
1
1
1
1
1
1
1
1
1
1
1
1
1
1
1
1
1
1
1
1
1
1
1
1
1
1
1
1
1
1
1
1
1
1
1
1
1
1
1
1
1
1
1
1
1
1
1
1
1
1
1
1
1
1
1
1
1
1
1
1
1
1
1
1
1
1
1
1
1
1
1
1
1
1
1
1
1
1
1
1
1
1
1
1
1
1
1
1
1
1
1
1
1
1
1
1
1
1
1
1
1
1
1
1
1
1
1
1
1
1
1
1
1
1
1
1
1
1
1
1
1
1
1
1
1
1
1
1
1
1
1
1
1
1
1
1
1
1
1
1
1
1
1
1
1
1
1
1
1
1
1
1
1
1
1
1
1
1
1
1
1
1
1
1
1
1
1
1
1
1
1
1
1
1
1
1
1
1
1
1
1
1
1
1
1
1
1
1
1
1
1
1
1
1
1
1
1
1
1
1
1
1
1
1
1
1
1
1
1
1
1
1
1
1
1
1
1
1
1
1
1
1
1
1
1
1
1
1
1
1
1
1
1
1
1
1
1
1
1
1
1
1
1
1
1
1
1
1
1
1
1
1
1
1
1
1
1
1
1
1
1
1
1
1
1
1
1
1
1
1
1
1
1
1
1
1
1
1
1
1
1
1
1
1
1
1
1
1
1
1
1
1
1
1
1
1
1
1
1
1
1
1
1
1
1
1
1
1
1
1
1
1
1
1
1
1
1
1
1
1
1
1
1
1
1
1
1
1
1
1
1
1
1
1
1
1
1
1
1
1
1
1
1
1
1
1
1
1
1
1
1
1
1
1
1
1
1
1
1
1
1
1
1
1
1
1
1
1
1
1
1
1
1
1
1
1
1
1
1
1
1
1
1
1
1
1
1
1
1
1
1
1
1
1
1
1
1
1
1
1
1
1
1
1
1
1
1
1
1
1
1
1
1
1
1
1
1
1
1
1
1
1
1
1
1
1
1
1
1
1
1
1
1
1
1
1
1
1
1
1
1
1
1
1
1
1
1
1
1
1
1
1
1
1
1
1
1
1
1
1
1
1
1
1
1
1
1
1
1
1
1
1
1
1
1
1
1
1
1
0.152047
0.158143
0.185227
0.209291
0.217615
0.215389
0.209117
0.202238
0.203879
0.217362
0.247412
0.282254
0.315764
0.339456
0.358227
0.37751
0.393657
0.40441
0.410487
0.414033
0.417012
0.420094
0.422013
0.422386
0.422191
0.420767
0.417292
0.412857
0.411062
0.409962
0.405016
0.383345
0.319919
0.252007
0.239428
0.241653
0.259386
0.268579
0.269487
0.269418
0.267763
0.264217
0.263877
0.266555
0.275657
0.294316
0.320119
0.345055
0.364747
0.376137
0.382756
0.385417
0.379252
0.360575
0.344466
0.34812
0.34568
0.327172
0.276425
0.207939
0.183175
0.186854
0.245202
0.376011
0.425721
0.427501
0.410435
0.387237
0.362829
0.334789
0.305843
0.288803
0.303022
0.348441
0.36719
0.370607
0.371742
0.391133
0.454005
0.635714
0.802256
0.865854
0.877882
0.879946
0.880797
0.881339
0.881849
0.88231
0.882899
0.883142
0.883323
0.883632
0.884017
0.884314
0.88454
0.884883
0.885092
0.88514
0.885141
0.885122
0.885508
0.886069
0.886386
0.886786
0.887535
0.88817
0.888658
0.889186
0.88992
0.890781
0.891493
0.892119
0.892891
0.893698
0.894465
0.895459
0.896348
0.897171
0.898019
0.898903
0.899622
0.900347
0.900988
0.901566
0.902125
0.902616
0.902934
0.903121
0.90315
0.902957
0.902175
0.900581
0.898081
0.893724
0.8889
0.885503
0.88262
0.877224
0.864746
0.846327
0.825927
0.810599
0.797045
0.773034
0.720874
0.616507
0.471266
0.314104
0.180053
0.0885117
0.0375821
0.0139923
0.00465
0.00139432
0.00037998
0.000121298
6.27398e-05
3.18321e-05
1.58138e-05
7.77278e-06
3.80967e-06
1.87409e-06
9.30141e-07
4.67142e-07
2.374e-07
1.21728e-07
6.26728e-08
3.222e-08
1.64511e-08
8.30507e-09
4.12999e-09
2.01773e-09
9.65902e-10
4.5232e-10
2.06568e-10
9.18038e-11
3.95819e-11
1.62125e-11
6.98322e-12
-1.97894e-12
0.155404
0.27535
0.4053
0.446615
0.451598
0.446817
0.434833
0.414353
0.372845
0.313539
0.278853
0.271256
0.272566
0.279053
0.303745
0.34928
0.383854
0.405174
0.419749
0.435218
0.447124
0.450204
0.450373
0.447114
0.43304
0.405211
0.372742
0.362419
0.363071
0.371752
0.378994
0.377935
0.363538
0.359083
0.39954
0.522172
0.624957
0.659441
0.677096
0.696445
0.719
0.73828
0.75137
0.763995
0.782528
0.805329
0.828712
0.846133
0.860176
0.867826
0.871549
0.872794
0.868628
0.856959
0.846299
0.843884
0.820186
0.775042
0.73623
0.652501
0.425142
0.270946
0.248437
0.274739
0.380705
0.417014
0.391348
0.34058
0.328983
0.334982
0.370362
0.427019
0.44563
0.446381
0.453826
0.493548
0.536537
0.546181
0.579705
0.775793
0.864749
0.874273
0.876088
0.875418
0.873372
0.870661
0.867418
0.863796
0.859908
0.85539
0.850854
0.846458
0.842137
0.83798
0.834128
0.830929
0.828345
0.826002
0.824331
0.823515
0.823258
0.82418
0.824729
0.826293
0.828182
0.829653
0.831745
0.833681
0.835929
0.838223
0.840477
0.84302
0.845884
0.849025
0.852621
0.856919
0.861698
0.866684
0.87171
0.877183
0.88218
0.886928
0.891619
0.89613
0.900489
0.90468
0.908693
0.912479
0.915993
0.919224
0.922201
0.924937
0.927448
0.929763
0.931912
0.933926
0.935805
0.937379
0.938249
0.938365
0.937519
0.932523
0.922291
0.914486
0.908186
0.895754
0.874652
0.848795
0.810129
0.745191
0.665537
0.605153
0.580659
0.575394
0.567887
0.542957
0.464085
0.361853
0.274707
0.20354
0.146712
0.102608
0.0694745
0.0454763
0.0287583
0.0175743
0.0103845
0.00594112
0.00329373
0.00177289
0.000926471
0.000471314
0.000232828
0.000112242
5.23721e-05
2.38877e-05
1.05251e-05
4.30384e-06
2.30414e-06
-2.81359e-06
0.348326
0.535762
0.53985
0.528264
0.510946
0.497977
0.497863
0.501769
0.506015
0.502032
0.484201
0.440634
0.392346
0.330524
0.324425
0.339912
0.371716
0.407861
0.444442
0.466538
0.462295
0.441344
0.393212
0.374238
0.37151
0.360896
0.357447
0.361527
0.374627
0.399116
0.442341
0.510508
0.63113
0.777108
0.840362
0.877122
0.903462
0.925679
0.943326
0.952153
0.958377
0.96468
0.969437
0.973388
0.976959
0.979911
0.982106
0.983465
0.984284
0.984629
0.984592
0.982845
0.979696
0.973909
0.961673
0.937051
0.882052
0.824344
0.797019
0.790468
0.778595
0.716173
0.480469
0.346556
0.345571
0.376191
0.384024
0.350238
0.265335
0.232934
0.236998
0.282905
0.323766
0.328718
0.356264
0.468573
0.586113
0.691341
0.79913
0.85813
0.868068
0.869353
0.863637
0.854329
0.841136
0.824096
0.804641
0.786704
0.770605
0.755423
0.742845
0.733052
0.724629
0.71869
0.713636
0.711071
0.709747
0.709307
0.709915
0.711041
0.712859
0.714651
0.716166
0.718754
0.720639
0.722462
0.724758
0.726736
0.728831
0.730959
0.733017
0.735235
0.737598
0.740081
0.742972
0.746384
0.750543
0.755577
0.76131
0.768442
0.776762
0.78639
0.796929
0.808271
0.820286
0.8329
0.846036
0.859464
0.872575
0.884327
0.894377
0.903489
0.911452
0.918114
0.923551
0.92796
0.931592
0.934765
0.938004
0.941625
0.944989
0.94665
0.946571
0.943552
0.92997
0.912463
0.901691
0.897291
0.895992
0.896483
0.900381
0.905197
0.909602
0.913526
0.915833
0.915964
0.91201
0.892643
0.867738
0.852632
0.835157
0.79716
0.697536
0.55525
0.421773
0.31105
0.224547
0.158629
0.109325
0.0734619
0.0479333
0.0304436
0.0187024
0.0112026
0.00645896
0.00364956
0.0019721
0.0010414
0.000547024
0.000217552
0.597439
0.584134
0.538123
0.459194
0.412439
0.378822
0.376743
0.383894
0.403354
0.447445
0.475866
0.484913
0.481705
0.463832
0.426032
0.399956
0.407401
0.442734
0.472359
0.467423
0.426404
0.369171
0.360475
0.367431
0.372923
0.374409
0.391595
0.429026
0.497829
0.612651
0.751977
0.869733
0.932752
0.961418
0.975398
0.982591
0.987578
0.990827
0.992245
0.992899
0.993965
0.994551
0.995723
0.99634
0.996894
0.99746
0.997783
0.997941
0.997993
0.9979
0.997376
0.995812
0.992228
0.984271
0.966498
0.924684
0.8234
0.746642
0.725332
0.729026
0.742786
0.749419
0.728475
0.617207
0.431192
0.393068
0.385766
0.363347
0.290332
0.2421
0.228887
0.23168
0.248741
0.26693
0.316845
0.5155
0.719698
0.807795
0.848747
0.85983
0.859769
0.845305
0.817855
0.787189
0.756758
0.732309
0.71358
0.699813
0.688668
0.681988
0.677676
0.675828
0.675284
0.675788
0.677608
0.679703
0.682604
0.686269
0.690247
0.693604
0.696888
0.699966
0.70196
0.704594
0.706564
0.708359
0.710234
0.71189
0.713407
0.715079
0.716508
0.717872
0.719096
0.720097
0.720931
0.721641
0.722383
0.723412
0.724612
0.726199
0.728132
0.730437
0.733015
0.736474
0.74113
0.747121
0.754554
0.763783
0.776235
0.792767
0.81344
0.836647
0.860373
0.882032
0.899756
0.913541
0.924386
0.932264
0.936864
0.938802
0.939784
0.942029
0.949908
0.957009
0.958107
0.956489
0.947179
0.922187
0.906733
0.901759
0.901522
0.903331
0.911642
0.930537
0.948419
0.961883
0.969549
0.972519
0.973172
0.973129
0.972083
0.966594
0.949951
0.936535
0.923559
0.89734
0.829541
0.669434
0.501878
0.362145
0.253913
0.173761
0.115367
0.0747432
0.0467635
0.0286118
0.0168758
0.0096651
0.00554632
0.00262223
0.593767
0.549835
0.439776
0.370664
0.334113
0.315713
0.306465
0.306187
0.310566
0.328562
0.381355
0.455278
0.48133
0.487345
0.48157
0.471072
0.468567
0.472789
0.46704
0.410914
0.374658
0.369238
0.374365
0.400744
0.434744
0.4921
0.598131
0.697422
0.818672
0.891083
0.949085
0.974173
0.984917
0.98901
0.990614
0.991178
0.991324
0.991285
0.991092
0.991233
0.991898
0.993034
0.994368
0.995649
0.996558
0.997563
0.998187
0.998526
0.998671
0.998687
0.998349
0.997215
0.993623
0.983791
0.961
0.902195
0.783849
0.699236
0.66971
0.672028
0.680775
0.706112
0.718969
0.707809
0.650129
0.492221
0.417067
0.388221
0.341945
0.282674
0.257179
0.257
0.25915
0.267272
0.321218
0.595033
0.793949
0.83898
0.849476
0.849558
0.822741
0.779859
0.743474
0.715587
0.693995
0.679438
0.671729
0.66795
0.66677
0.668196
0.670367
0.673992
0.678161
0.685045
0.694178
0.705054
0.716517
0.726257
0.734324
0.740352
0.744731
0.749066
0.751755
0.753998
0.756111
0.757279
0.758706
0.759578
0.760475
0.761136
0.761625
0.761875
0.761433
0.760207
0.757941
0.754368
0.749409
0.743787
0.739397
0.736268
0.733779
0.732274
0.731678
0.731804
0.732852
0.734979
0.737894
0.741094
0.745435
0.750983
0.7585
0.76987
0.786848
0.809123
0.834019
0.859138
0.883122
0.906756
0.927957
0.941271
0.946317
0.946653
0.94569
0.946054
0.951359
0.961487
0.963748
0.962003
0.950615
0.924182
0.908518
0.902857
0.90268
0.905369
0.918401
0.941507
0.957943
0.970166
0.979749
0.986182
0.989328
0.990122
0.990063
0.989485
0.988064
0.985476
0.980063
0.968561
0.942632
0.871767
0.695248
0.511754
0.360995
0.247126
0.164104
0.106319
0.0671442
0.0408787
0.025322
0.0132176
0.59264
0.516625
0.408941
0.349422
0.318783
0.304153
0.296712
0.291712
0.29193
0.29681
0.318471
0.385666
0.47175
0.494233
0.495035
0.486586
0.47341
0.458179
0.413542
0.389723
0.385426
0.40949
0.467643
0.569406
0.669986
0.783798
0.849897
0.915526
0.950595
0.972426
0.981566
0.984517
0.985163
0.984828
0.981024
0.97668
0.973064
0.970308
0.969193
0.968968
0.971222
0.97439
0.979045
0.983179
0.987593
0.991197
0.994285
0.996254
0.997567
0.998162
0.998345
0.99783
0.995606
0.988166
0.966586
0.907066
0.786233
0.691741
0.655135
0.650866
0.663243
0.690217
0.710752
0.712603
0.702661
0.659394
0.528814
0.446094
0.389236
0.342193
0.306077
0.287077
0.285435
0.291858
0.348785
0.635904
0.818547
0.839667
0.841288
0.809542
0.752486
0.718455
0.693237
0.674749
0.665526
0.661338
0.660356
0.663085
0.667098
0.672628
0.681966
0.696996
0.719086
0.737048
0.751371
0.761282
0.76598
0.769152
0.771548
0.773422
0.775733
0.77846
0.781166
0.783548
0.787421
0.789719
0.793365
0.796316
0.799536
0.802529
0.805246
0.807652
0.809857
0.811454
0.812514
0.812781
0.811678
0.807903
0.800219
0.791579
0.782399
0.773177
0.765507
0.759104
0.753911
0.750348
0.748609
0.748076
0.748428
0.750419
0.754392
0.760024
0.768242
0.781708
0.802659
0.827415
0.851168
0.8711
0.890932
0.915912
0.939692
0.952847
0.956038
0.95494
0.952807
0.953276
0.958663
0.966495
0.967315
0.9642
0.946845
0.921239
0.909355
0.906373
0.906615
0.910019
0.92526
0.949691
0.967204
0.978815
0.986359
0.991331
0.994373
0.995877
0.99636
0.996392
0.996226
0.995483
0.993216
0.986989
0.97049
0.924496
0.783922
0.582749
0.413902
0.283397
0.189877
0.122055
0.0808069
0.0457026
0.595387
0.506209
0.402693
0.344807
0.315807
0.302405
0.295512
0.28946
0.290543
0.300451
0.327908
0.398336
0.476564
0.494038
0.491782
0.474937
0.444586
0.421376
0.413831
0.415217
0.468646
0.592501
0.72264
0.818003
0.873396
0.926577
0.950723
0.96829
0.97481
0.977409
0.977908
0.973651
0.963877
0.950531
0.935748
0.928407
0.921436
0.918334
0.917104
0.917055
0.921469
0.926561
0.93561
0.94602
0.958613
0.969522
0.979229
0.987018
0.99249
0.995897
0.997548
0.998174
0.998235
0.99732
0.9922
0.970656
0.882067
0.723715
0.65429
0.630079
0.639413
0.67251
0.704481
0.719119
0.719008
0.708053
0.668317
0.572162
0.487615
0.41438
0.356829
0.324764
0.320034
0.327353
0.386992
0.671245
0.824304
0.835775
0.813948
0.742544
0.704695
0.678799
0.664833
0.657738
0.655409
0.657064
0.660537
0.666441
0.677812
0.69818
0.727875
0.747678
0.757852
0.76456
0.767419
0.768377
0.768487
0.767665
0.766539
0.765765
0.766219
0.768406
0.772
0.775909
0.781638
0.785904
0.791283
0.795951
0.800516
0.804785
0.808696
0.812155
0.815522
0.818371
0.82113
0.823844
0.827012
0.830264
0.831096
0.829912
0.82725
0.822476
0.814804
0.805821
0.796627
0.787916
0.780856
0.776126
0.772983
0.77031
0.768259
0.767499
0.768163
0.772549
0.784813
0.807486
0.836267
0.862835
0.881786
0.895933
0.914189
0.938016
0.956197
0.963004
0.963163
0.960671
0.960113
0.961571
0.968148
0.971327
0.970472
0.963503
0.939319
0.92075
0.914578
0.914268
0.916307
0.926072
0.947579
0.965304
0.978182
0.986725
0.992039
0.995277
0.997225
0.998243
0.998618
0.998664
0.998575
0.998095
0.996425
0.991288
0.976032
0.930365
0.789403
0.587857
0.425972
0.291564
0.20505
0.124274
0.5978
0.504393
0.410195
0.350425
0.322515
0.310608
0.306345
0.307458
0.313797
0.332964
0.369134
0.427561
0.465107
0.472953
0.460965
0.444064
0.436166
0.432483
0.459489
0.53999
0.718363
0.822892
0.883351
0.928201
0.949483
0.962428
0.96707
0.968861
0.969004
0.96028
0.943657
0.922663
0.908387
0.899134
0.894715
0.891896
0.890662
0.890266
0.890234
0.890828
0.891595
0.89309
0.895428
0.899387
0.906995
0.920735
0.939689
0.961067
0.97619
0.987995
0.994103
0.997092
0.998311
0.998573
0.997853
0.992161
0.965055
0.842911
0.685415
0.627012
0.608167
0.606064
0.636527
0.687385
0.718695
0.723342
0.715516
0.685561
0.616812
0.539058
0.480382
0.444882
0.407518
0.392145
0.427885
0.686212
0.824167
0.82464
0.7549
0.699002
0.672257
0.657968
0.652214
0.650334
0.653258
0.657888
0.665431
0.681915
0.716467
0.74207
0.753674
0.758603
0.760375
0.760881
0.757202
0.746704
0.734234
0.727364
0.725148
0.724893
0.72614
0.727743
0.72973
0.732162
0.736725
0.744249
0.754233
0.765602
0.776688
0.786588
0.795154
0.802599
0.808955
0.813968
0.818553
0.822929
0.827543
0.833178
0.839771
0.843485
0.844517
0.844156
0.841785
0.836759
0.829678
0.820712
0.810268
0.799843
0.791548
0.786123
0.78279
0.780703
0.779646
0.779602
0.781339
0.788604
0.809826
0.846173
0.879169
0.898897
0.908737
0.921768
0.941878
0.959653
0.968338
0.969673
0.967926
0.966388
0.967092
0.971159
0.975301
0.975342
0.972452
0.958139
0.937589
0.928738
0.927505
0.928945
0.935934
0.9536
0.96901
0.980213
0.98796
0.993005
0.996052
0.997808
0.998786
0.999256
0.9994
0.9994
0.999287
0.998759
0.996916
0.990998
0.972773
0.915778
0.760786
0.561843
0.427601
0.282204
0.598528
0.527687
0.456601
0.386989
0.351624
0.336213
0.332088
0.339178
0.353516
0.373996
0.404941
0.435511
0.448981
0.45204
0.450747
0.448852
0.462256
0.511682
0.652187
0.799137
0.875657
0.922289
0.945499
0.957122
0.961216
0.962438
0.961389
0.952124
0.931735
0.912312
0.898514
0.891834
0.887792
0.886106
0.885478
0.885316
0.885554
0.886148
0.886606
0.88735
0.887934
0.888426
0.888685
0.888903
0.88951
0.891749
0.897596
0.910643
0.937457
0.966427
0.983944
0.992689
0.996912
0.998585
0.998947
0.998115
0.991394
0.959495
0.815546
0.667192
0.610965
0.589143
0.58009
0.586159
0.628626
0.689222
0.712127
0.708888
0.691366
0.645537
0.582663
0.509625
0.437825
0.41145
0.453296
0.709312
0.823131
0.796777
0.7104
0.670911
0.653916
0.64701
0.645628
0.648393
0.653836
0.662479
0.681238
0.719846
0.743027
0.752391
0.755071
0.755485
0.74864
0.731083
0.70829
0.699588
0.697301
0.700385
0.709346
0.715786
0.719571
0.72048
0.720582
0.718504
0.715899
0.713871
0.712605
0.71479
0.721377
0.733079
0.74867
0.766409
0.782665
0.793742
0.803157
0.812245
0.821508
0.831481
0.842451
0.851722
0.858198
0.861926
0.863146
0.862907
0.860806
0.855574
0.848202
0.838655
0.827568
0.816751
0.807556
0.800075
0.794251
0.790617
0.789444
0.78996
0.794471
0.811033
0.851421
0.892756
0.919548
0.930718
0.936015
0.946969
0.962966
0.972426
0.974806
0.974189
0.972324
0.972659
0.975206
0.979357
0.979955
0.97875
0.972118
0.956416
0.947587
0.945302
0.945887
0.949926
0.962395
0.975099
0.984168
0.990324
0.99433
0.996827
0.998288
0.999092
0.999505
0.999669
0.999696
0.999666
0.999478
0.998739
0.996248
0.98829
0.964681
0.883574
0.736279
0.526531
0.601201
0.540764
0.49515
0.426951
0.383927
0.364489
0.359856
0.366045
0.380251
0.399907
0.421798
0.441698
0.451159
0.458239
0.469822
0.502085
0.588115
0.73269
0.847092
0.907383
0.936684
0.950703
0.955981
0.95747
0.95721
0.949109
0.929067
0.910107
0.896714
0.889691
0.886205
0.88462
0.883847
0.883514
0.883393
0.883452
0.883909
0.884568
0.885411
0.886625
0.887835
0.888995
0.889516
0.889281
0.88826
0.887869
0.888356
0.891084
0.9004
0.923158
0.962186
0.982764
0.992721
0.997352
0.999012
0.999364
0.998578
0.992187
0.960787
0.817218
0.671582
0.609416
0.581205
0.565698
0.557387
0.559175
0.600986
0.654483
0.660331
0.641428
0.582276
0.504201
0.437132
0.419983
0.478138
0.735488
0.819828
0.751179
0.679579
0.652913
0.643094
0.640785
0.64248
0.6485
0.656497
0.675094
0.713893
0.73855
0.748479
0.751275
0.750225
0.737064
0.7024
0.678687
0.672787
0.672769
0.684463
0.696871
0.707031
0.722592
0.737689
0.749273
0.754269
0.748979
0.736661
0.721518
0.710969
0.705251
0.704071
0.705516
0.710107
0.719453
0.737896
0.760223
0.777563
0.795645
0.814299
0.830293
0.84471
0.859088
0.871796
0.882548
0.889257
0.891553
0.89137
0.889196
0.883073
0.874183
0.862958
0.850997
0.840788
0.833128
0.826419
0.819308
0.812949
0.809483
0.809041
0.81122
0.823365
0.862111
0.906359
0.935093
0.947728
0.952503
0.95859
0.96894
0.976507
0.978925
0.978833
0.977599
0.977701
0.979415
0.983275
0.984329
0.983913
0.98103
0.971643
0.964529
0.962203
0.962218
0.96415
0.97167
0.981351
0.988268
0.992896
0.99585
0.997669
0.998748
0.99935
0.999662
0.999799
0.999833
0.999826
0.999752
0.999435
0.998326
0.994786
0.983704
0.953614
0.84088
0.609966
0.572945
0.552566
0.5043
0.446877
0.407264
0.395044
0.393732
0.40758
0.423952
0.442976
0.459775
0.475325
0.505254
0.564901
0.680273
0.800997
0.877141
0.921148
0.941579
0.950066
0.953057
0.953848
0.948598
0.932749
0.913359
0.899292
0.891094
0.886614
0.883817
0.882373
0.880785
0.879791
0.878884
0.878325
0.878058
0.878003
0.878766
0.879869
0.881891
0.884862
0.888555
0.891162
0.892648
0.893443
0.89055
0.888293
0.888045
0.890766
0.899828
0.924842
0.966105
0.985032
0.994274
0.998189
0.999441
0.99969
0.999113
0.994218
0.965582
0.833404
0.692822
0.632803
0.603363
0.579162
0.550082
0.520511
0.516971
0.531951
0.54345
0.529962
0.481293
0.436094
0.428906
0.511636
0.761856
0.810394
0.712463
0.656491
0.640206
0.635375
0.637623
0.641342
0.649302
0.662858
0.698176
0.729814
0.742995
0.747081
0.745844
0.73075
0.68364
0.660224
0.652068
0.647529
0.645586
0.645401
0.648657
0.672069
0.70023
0.731666
0.756762
0.774585
0.783817
0.786001
0.776387
0.751473
0.720765
0.706706
0.703524
0.704476
0.707567
0.715914
0.736331
0.763071
0.789111
0.812516
0.834972
0.85711
0.875849
0.890963
0.905974
0.918214
0.927597
0.931632
0.931559
0.930052
0.925021
0.912618
0.893829
0.872684
0.855774
0.846455
0.842697
0.841377
0.839695
0.837419
0.836816
0.838538
0.849473
0.886222
0.926559
0.951101
0.960931
0.964153
0.968989
0.976063
0.981173
0.982858
0.982831
0.982042
0.98207
0.983339
0.986783
0.988253
0.988238
0.987199
0.982612
0.977194
0.975001
0.974723
0.975574
0.979795
0.986753
0.991782
0.995097
0.997172
0.998424
0.999156
0.999566
0.99978
0.999878
0.999907
0.999906
0.999875
0.999732
0.999219
0.99755
0.992479
0.968322
0.623648
0.605561
0.593377
0.583128
0.54375
0.49488
0.465054
0.45524
0.456263
0.473561
0.494014
0.52333
0.577548
0.65776
0.758134
0.839351
0.898843
0.928457
0.942737
0.948215
0.949657
0.949103
0.941373
0.920047
0.904098
0.893826
0.887903
0.883767
0.881391
0.879077
0.877607
0.876047
0.875322
0.87479
0.874579
0.874532
0.874816
0.875044
0.87547
0.876117
0.87736
0.879929
0.885855
0.892654
0.896026
0.89748
0.893682
0.88977
0.889384
0.893498
0.905713
0.944054
0.974896
0.989899
0.996434
0.999019
0.999736
0.999873
0.999511
0.99573
0.967356
0.834348
0.716412
0.683882
0.681821
0.673584
0.640383
0.577416
0.536858
0.524636
0.510082
0.475638
0.442842
0.443786
0.566909
0.783534
0.783058
0.678558
0.639347
0.628568
0.630281
0.635465
0.641128
0.651316
0.676495
0.712386
0.734294
0.742043
0.743066
0.7297
0.681346
0.642461
0.628789
0.604106
0.574372
0.524282
0.484686
0.469534
0.502021
0.575794
0.649419
0.714914
0.761447
0.784946
0.793758
0.794746
0.789958
0.769163
0.730941
0.711576
0.706133
0.706619
0.710913
0.726018
0.756863
0.787115
0.816948
0.849938
0.881528
0.908858
0.929934
0.94898
0.960389
0.96914
0.975622
0.976765
0.976297
0.974719
0.971283
0.964217
0.946893
0.916512
0.886634
0.867747
0.860155
0.858656
0.859039
0.862183
0.866706
0.87528
0.896968
0.926389
0.950925
0.966089
0.972222
0.974071
0.977174
0.981967
0.985253
0.986257
0.986193
0.985638
0.985688
0.986767
0.989811
0.991535
0.991802
0.991479
0.989514
0.985566
0.983612
0.983219
0.983626
0.986137
0.990978
0.994495
0.996777
0.998177
0.999002
0.999473
0.999732
0.999867
0.99993
0.999949
0.99995
0.999936
0.999867
0.999614
0.998785
0.994088
0.629183
0.621317
0.633845
0.641675
0.6283
0.591963
0.575646
0.570169
0.579272
0.593767
0.626873
0.676741
0.737909
0.805024
0.866717
0.90992
0.932216
0.942464
0.946407
0.947407
0.944732
0.932593
0.912419
0.899535
0.890622
0.885559
0.882277
0.879593
0.877673
0.875768
0.874871
0.874231
0.873999
0.873927
0.873963
0.874143
0.874293
0.874579
0.874879
0.875209
0.875614
0.876428
0.878362
0.883853
0.894761
0.898913
0.90033
0.896317
0.891275
0.892513
0.898834
0.924284
0.963633
0.98516
0.994651
0.998246
0.999548
0.999891
0.999941
0.999578
0.995158
0.957046
0.795224
0.7248
0.733192
0.776417
0.773269
0.753931
0.698711
0.617272
0.55217
0.496506
0.464762
0.476327
0.653236
0.796726
0.741427
0.650694
0.624516
0.619102
0.625898
0.633612
0.640873
0.656269
0.68683
0.714787
0.733795
0.739444
0.732454
0.70148
0.642633
0.612099
0.5714
0.480693
0.369511
0.299339
0.27427
0.271524
0.300947
0.371199
0.505855
0.621183
0.710675
0.765919
0.790658
0.795566
0.794326
0.7854
0.75266
0.721143
0.708793
0.707306
0.709739
0.722433
0.754635
0.791653
0.834951
0.876704
0.912549
0.943
0.966557
0.979432
0.986603
0.990523
0.993013
0.994089
0.994127
0.993844
0.992929
0.990955
0.987251
0.979527
0.960145
0.926767
0.898525
0.882854
0.878265
0.879108
0.89031
0.913835
0.92677
0.940708
0.95754
0.970907
0.978241
0.980951
0.981774
0.983348
0.986527
0.988545
0.98906
0.988925
0.988539
0.988635
0.989679
0.992415
0.994086
0.994519
0.994411
0.993422
0.990717
0.989182
0.988848
0.989094
0.9908
0.994106
0.996468
0.997975
0.998881
0.999403
0.999693
0.999848
0.999926
0.999962
0.999973
0.999974
0.999967
0.99993
0.999793
0.998911
0.635106
0.630337
0.658935
0.687441
0.689016
0.682274
0.676785
0.674901
0.694245
0.716459
0.748654
0.794081
0.838853
0.882371
0.91617
0.933904
0.94192
0.944968
0.945761
0.94331
0.930293
0.90972
0.897314
0.890347
0.885207
0.882142
0.879376
0.877234
0.875697
0.874468
0.873976
0.873737
0.873653
0.873631
0.873674
0.873739
0.873961
0.874298
0.874717
0.875096
0.875417
0.875867
0.876752
0.879147
0.88707
0.89847
0.90219
0.901649
0.896681
0.894122
0.896865
0.912403
0.952962
0.979955
0.992734
0.997674
0.999301
0.999824
0.99996
0.999954
0.999413
0.992136
0.911764
0.761817
0.75699
0.806142
0.818306
0.810635
0.787143
0.727053
0.643989
0.561259
0.520503
0.564785
0.742266
0.797761
0.695844
0.628789
0.610803
0.611101
0.620949
0.631099
0.640132
0.66115
0.68795
0.713548
0.731309
0.733168
0.724589
0.676595
0.609424
0.551094
0.447783
0.324488
0.249298
0.218804
0.210671
0.2171
0.236855
0.284677
0.404929
0.559174
0.673691
0.743476
0.779354
0.79227
0.793231
0.787183
0.758282
0.723524
0.709031
0.706603
0.709046
0.722188
0.75955
0.812117
0.863537
0.908728
0.944574
0.969725
0.983093
0.990468
0.994524
0.996629
0.997743
0.99831
0.998441
0.998421
0.998315
0.998017
0.997222
0.995341
0.991837
0.984168
0.962871
0.9335
0.914879
0.909639
0.911388
0.925552
0.948935
0.962553
0.97221
0.979852
0.984592
0.986554
0.987109
0.987338
0.988048
0.989954
0.991118
0.991312
0.991094
0.990893
0.991048
0.992183
0.994606
0.995987
0.996382
0.996325
0.995631
0.993793
0.99282
0.99264
0.99284
0.994151
0.996365
0.997875
0.998812
0.999362
0.99967
0.999836
0.999921
0.999963
0.999981
0.999987
0.999987
0.999982
0.99996
0.999794
0.638949
0.639594
0.667857
0.72093
0.737699
0.737508
0.740694
0.76413
0.783498
0.798175
0.832037
0.86046
0.892376
0.918781
0.934361
0.941523
0.944076
0.944623
0.942191
0.931834
0.912461
0.897776
0.890102
0.885729
0.882073
0.879596
0.877275
0.875628
0.87458
0.873822
0.873508
0.873349
0.873246
0.873164
0.873097
0.873106
0.873238
0.873577
0.874277
0.874995
0.875489
0.875811
0.876495
0.878215
0.883675
0.896823
0.903079
0.903595
0.899789
0.895672
0.896535
0.907167
0.944241
0.975455
0.990735
0.996973
0.999132
0.999771
0.999949
0.999986
0.999939
0.998897
0.983311
0.845109
0.777555
0.811401
0.833389
0.824829
0.798976
0.752179
0.688886
0.630876
0.618368
0.690784
0.786127
0.77961
0.653226
0.609933
0.599136
0.602059
0.613948
0.62596
0.638244
0.660946
0.686634
0.710334
0.725247
0.728122
0.710614
0.639905
0.559755
0.471874
0.346699
0.250375
0.206504
0.193714
0.193512
0.200073
0.215867
0.252135
0.354314
0.526063
0.656394
0.733924
0.770981
0.785663
0.78767
0.783093
0.75758
0.7223
0.705744
0.703164
0.708073
0.729254
0.782578
0.841838
0.894637
0.937716
0.966326
0.982025
0.99071
0.995314
0.997567
0.998569
0.999
0.999156
0.999142
0.999112
0.999101
0.999092
0.999063
0.998863
0.998125
0.99621
0.991668
0.979725
0.963352
0.952272
0.949019
0.950843
0.961418
0.974291
0.982125
0.987201
0.990081
0.991196
0.99135
0.991188
0.991188
0.991551
0.992647
0.993133
0.993129
0.992857
0.992809
0.993053
0.994378
0.996339
0.997342
0.9976
0.997535
0.99693
0.9958
0.995324
0.995274
0.995463
0.996486
0.997892
0.998802
0.999349
0.999661
0.99983
0.999918
0.999962
0.999983
0.999991
0.999993
0.999993
0.99999
0.999958
0.639437
0.647749
0.659067
0.721212
0.770677
0.79047
0.789728
0.802769
0.83672
0.849522
0.876372
0.898617
0.917938
0.93352
0.940843
0.94393
0.944737
0.944169
0.938063
0.921259
0.903432
0.892571
0.886863
0.883675
0.881207
0.879236
0.87718
0.875564
0.874544
0.873835
0.873496
0.873322
0.873232
0.873081
0.872986
0.872996
0.873082
0.87333
0.873992
0.874853
0.875544
0.876097
0.876722
0.878167
0.883022
0.896224
0.905122
0.906058
0.901671
0.89608
0.896399
0.904967
0.939746
0.973084
0.989716
0.996602
0.999015
0.999744
0.999939
0.999988
0.999992
0.999891
0.997443
0.951689
0.804807
0.810703
0.83817
0.829612
0.805591
0.772929
0.731555
0.703942
0.713431
0.764509
0.793083
0.712394
0.622447
0.594717
0.58965
0.593489
0.606064
0.619588
0.635139
0.65909
0.682701
0.703256
0.718858
0.720341
0.695965
0.61073
0.526463
0.415375
0.291764
0.218742
0.192612
0.187416
0.188763
0.195062
0.209799
0.242594
0.334687
0.513279
0.650592
0.730289
0.765885
0.777334
0.77725
0.768286
0.736799
0.706597
0.696038
0.697576
0.709422
0.7494
0.813324
0.873755
0.923923
0.95797
0.977244
0.988486
0.994719
0.997714
0.998819
0.99918
0.999265
0.999258
0.999143
0.998953
0.998952
0.999012
0.999187
0.999286
0.999272
0.999026
0.997954
0.994397
0.986452
0.979542
0.976605
0.97657
0.978774
0.984968
0.989591
0.992528
0.994117
0.99468
0.994705
0.9943
0.993754
0.993739
0.994042
0.994585
0.994698
0.99456
0.994359
0.994389
0.994776
0.996232
0.997642
0.998272
0.998398
0.998317
0.997818
0.997278
0.997117
0.997127
0.997317
0.99807
0.998869
0.999371
0.999668
0.999832
0.999919
0.999962
0.999983
0.999992
0.999996
0.999997
0.999996
0.99999
0.630412
0.650082
0.653004
0.7072
0.76182
0.804038
0.827672
0.835992
0.859426
0.880705
0.896402
0.915482
0.928236
0.938202
0.942361
0.94434
0.944898
0.94364
0.935479
0.919515
0.903824
0.892999
0.887068
0.883796
0.881461
0.87961
0.877635
0.875966
0.874846
0.874091
0.873655
0.873434
0.873333
0.873204
0.873197
0.873243
0.873385
0.873702
0.874396
0.875369
0.875951
0.876371
0.877247
0.879517
0.886534
0.900657
0.907514
0.907494
0.902276
0.896035
0.896135
0.904336
0.938431
0.972403
0.98943
0.996491
0.998977
0.999736
0.999937
0.999986
0.999997
0.999993
0.99976
0.992562
0.877834
0.807764
0.836698
0.837448
0.817136
0.7935
0.769316
0.756719
0.767792
0.786707
0.783401
0.655954
0.601056
0.584654
0.582994
0.586983
0.599679
0.6139
0.630765
0.654961
0.675029
0.695195
0.709296
0.708845
0.683964
0.598765
0.49598
0.380509
0.27788
0.218485
0.193799
0.188845
0.190013
0.195858
0.210808
0.244343
0.337235
0.527978
0.666896
0.734304
0.761182
0.765805
0.762049
0.741589
0.70111
0.688117
0.688396
0.695266
0.719972
0.780452
0.847575
0.90522
0.945896
0.970644
0.985464
0.993743
0.997575
0.998878
0.999244
0.999299
0.999249
0.999079
0.998443
0.997415
0.997335
0.99752
0.998201
0.999034
0.999375
0.999404
0.999249
0.998415
0.995475
0.991618
0.989536
0.98917
0.989572
0.991571
0.994079
0.995719
0.996616
0.996937
0.996945
0.996631
0.995758
0.995452
0.995481
0.995747
0.995923
0.995891
0.995657
0.995604
0.995692
0.996293
0.997674
0.998547
0.998889
0.998932
0.998845
0.998539
0.998377
0.998357
0.998398
0.99863
0.999123
0.999486
0.999718
0.999854
0.999928
0.999966
0.999985
0.999993
0.999997
0.999998
0.999998
0.999997
0.597068
0.641231
0.651116
0.678026
0.740171
0.796187
0.830801
0.852509
0.871079
0.892994
0.907279
0.921572
0.930868
0.938277
0.942207
0.944192
0.944749
0.943454
0.936503
0.921257
0.906415
0.895268
0.888506
0.88467
0.882206
0.880552
0.878859
0.877076
0.875733
0.874826
0.874194
0.873864
0.873662
0.873601
0.873633
0.873756
0.874031
0.874621
0.875537
0.876242
0.876656
0.877255
0.878665
0.882599
0.89404
0.907104
0.909769
0.908162
0.90001
0.893976
0.8949
0.907055
0.946327
0.977382
0.991799
0.997363
0.999233
0.999795
0.99995
0.999988
0.999998
0.999999
0.999982
0.999107
0.971313
0.828288
0.825638
0.841967
0.829524
0.808665
0.792745
0.78605
0.78861
0.788407
0.73268
0.623759
0.587933
0.578181
0.577986
0.582255
0.595771
0.609462
0.62663
0.648609
0.667115
0.687782
0.699703
0.698979
0.679959
0.605139
0.499165
0.384558
0.285688
0.226028
0.199774
0.195637
0.19799
0.206786
0.226679
0.267585