/*--------------------------------*- C++ -*----------------------------------*\
  =========                 |
  \\      /  F ield         | OpenFOAM: The Open Source CFD Toolbox
   \\    /   O peration     | Website:  https://openfoam.org
    \\  /    A nd           | Version:  7
     \\/     M anipulation  |
\*---------------------------------------------------------------------------*/
FoamFile
{
    version     2.0;
    format      ascii;
    class       volScalarField;
    location    "0.093";
    object      s_0;
}
// * * * * * * * * * * * * * * * * * * * * * * * * * * * * * * * * * * * * * //

dimensions      [0 0 0 0 0 0 0];

internalField   nonuniform List<scalar> 
12225
(
1
1
1
1
1
1
1
1
1
1
1
1
1
1
1
1
1
1
1
1
1
1
1
1
1
1
1
1
1
1
1
1
1
1
1
1
1
1
1
1
1
1
1
1
1
1
1
1
1
1
1
1
1
1
1
1
1
1
1
1
1
1
1
1
1
1
1
1
1
1
1
1
1
1
1
1
1
1
1
1
1
1
1
1
1
1
1
1
1
1
1
1
1
1
1
1
1
1
1
1
1
1
1
1
1
1
1
1
1
1
1
1
1
1
1
1
1
1
1
1
1
1
1
1
1
1
1
1
1
1
1
1
1
1
1
1
1
1
1
1
1
1
1
1
1
1
1
1
1
1
1
1
1
1
1
1
1
1
1
1
1
1
1
1
1
1
1
1
1
1
1
1
1
1
1
1
1
1
1
1
1
1
1
1
1
1
1
1
1
1
1
1
1
1
1
1
1
1
1
1
1
1
1
1
1
1
1
1
1
1
1
1
1
1
1
1
1
1
1
1
1
1
1
1
1
1
1
1
1
1
1
1
1
1
1
1
1
1
1
1
1
1
1
1
1
1
1
1
1
1
1
1
1
1
1
1
1
1
1
1
1
1
1
1
1
1
1
1
1
1
1
1
1
1
1
1
1
1
1
1
1
1
1
1
1
1
1
1
1
1
1
1
1
1
1
1
1
1
1
1
1
1
1
1
1
1
1
1
1
1
1
1
1
1
1
1
1
1
1
1
1
1
1
1
1
1
1
1
1
1
1
1
1
1
1
1
1
1
1
1
1
1
1
1
1
1
1
1
1
1
1
1
1
1
1
1
1
1
1
1
1
1
1
1
1
1
1
1
1
1
1
1
1
1
1
1
1
1
1
1
1
1
1
1
1
1
1
1
1
1
1
1
1
1
1
1
1
1
1
1
1
1
1
1
1
1
1
1
1
1
1
1
1
1
1
1
1
1
1
1
1
1
1
1
1
1
1
1
1
1
1
1
1
1
1
1
1
1
1
1
1
1
1
1
1
1
1
1
1
1
1
1
1
1
1
1
1
1
1
1
1
1
1
1
1
1
1
1
1
1
1
1
1
1
1
1
1
1
1
1
1
1
1
1
1
1
1
1
1
1
1
1
1
1
1
1
1
1
1
1
1
1
1
1
1
1
1
1
1
1
1
1
1
1
1
1
1
1
1
1
1
1
1
1
1
1
1
1
1
1
1
1
1
1
1
1
1
1
1
1
0.152046
0.158121
0.185089
0.209027
0.217313
0.215126
0.208966
0.202215
0.2039
0.217488
0.247524
0.282305
0.315756
0.339411
0.358154
0.377418
0.39357
0.404346
0.410445
0.414001
0.41698
0.42006
0.422004
0.422387
0.422202
0.4208
0.417356
0.4129
0.411087
0.41002
0.405311
0.384422
0.322439
0.252852
0.239398
0.241318
0.258784
0.268492
0.269474
0.269408
0.267796
0.264062
0.263577
0.266056
0.274828
0.293123
0.318716
0.343631
0.363369
0.374787
0.381404
0.384068
0.377886
0.359182
0.342942
0.346303
0.343674
0.325001
0.274039
0.20664
0.182915
0.187012
0.247105
0.377306
0.426009
0.427508
0.410319
0.387213
0.362855
0.334845
0.305918
0.288769
0.302886
0.348252
0.366971
0.370328
0.371578
0.391277
0.454842
0.637614
0.803302
0.866116
0.877901
0.879941
0.880791
0.881331
0.88184
0.882296
0.88289
0.883136
0.883315
0.88362
0.884005
0.884305
0.884529
0.884868
0.885089
0.88514
0.885142
0.885122
0.885504
0.886073
0.8864
0.886796
0.887544
0.888187
0.888679
0.889206
0.889937
0.890801
0.891518
0.892145
0.892916
0.893724
0.89449
0.895482
0.89637
0.897192
0.898036
0.898917
0.899634
0.900355
0.900994
0.901569
0.902127
0.902614
0.902927
0.903111
0.903137
0.90294
0.902149
0.900547
0.898033
0.893663
0.88884
0.885451
0.882557
0.87712
0.864554
0.846104
0.825729
0.810443
0.796847
0.772664
0.720085
0.615341
0.469935
0.312908
0.179198
0.0880168
0.0373459
0.013897
0.00461644
0.00138373
0.000376994
0.00012071
6.24815e-05
3.16983e-05
1.5745e-05
7.73812e-06
3.79233e-06
1.86538e-06
9.25727e-07
4.64873e-07
2.36215e-07
1.21103e-07
6.23402e-08
3.20432e-08
1.63578e-08
8.2564e-09
4.10503e-09
2.00517e-09
9.59731e-10
4.49359e-10
2.05185e-10
9.11769e-11
3.93066e-11
1.60981e-11
6.93296e-12
-1.96916e-12
0.155391
0.274945
0.404744
0.446151
0.451227
0.446446
0.434414
0.413873
0.372303
0.313225
0.278736
0.27119
0.272505
0.279011
0.303766
0.349236
0.383772
0.405115
0.419704
0.435165
0.447116
0.450223
0.450404
0.447202
0.433254
0.405572
0.372955
0.362324
0.362869
0.371365
0.378925
0.378189
0.364194
0.359213
0.397689
0.518303
0.623346
0.658589
0.676438
0.695552
0.717921
0.737206
0.750292
0.762729
0.781026
0.803719
0.827192
0.844762
0.85894
0.866689
0.870449
0.871706
0.867509
0.855732
0.844923
0.842502
0.818728
0.773687
0.734362
0.648599
0.419721
0.269153
0.248176
0.275556
0.382187
0.417165
0.390872
0.340323
0.328781
0.334936
0.370339
0.427139
0.445751
0.446608
0.454244
0.494139
0.53664
0.546132
0.580502
0.777563
0.864943
0.874279
0.876065
0.875375
0.873319
0.870596
0.867344
0.863713
0.859827
0.855312
0.850774
0.846382
0.842071
0.83793
0.834092
0.830908
0.828353
0.826043
0.8244
0.823605
0.823361
0.824317
0.824894
0.826463
0.828381
0.829871
0.831974
0.833925
0.836184
0.838496
0.840764
0.843318
0.846193
0.849343
0.852941
0.857235
0.862008
0.866979
0.871982
0.877423
0.88238
0.887102
0.891777
0.896271
0.900612
0.904788
0.908787
0.912558
0.916058
0.919279
0.922248
0.924977
0.927482
0.929793
0.931939
0.933951
0.935827
0.937394
0.938255
0.938363
0.937492
0.932404
0.922192
0.914434
0.908135
0.895664
0.874569
0.848716
0.809908
0.744775
0.665149
0.605046
0.580802
0.575562
0.56794
0.542639
0.463113
0.36098
0.273985
0.202954
0.146251
0.102257
0.0692165
0.0452939
0.0286344
0.0174935
0.0103338
0.00591058
0.00327597
0.00176291
0.000921056
0.000468463
0.000231376
0.000111523
5.2028e-05
2.37273e-05
1.0453e-05
4.27394e-06
2.28779e-06
-2.7973e-06
0.348305
0.535619
0.53987
0.528336
0.511093
0.498205
0.498072
0.501965
0.506123
0.502094
0.484209
0.440619
0.392368
0.330661
0.324624
0.340114
0.371851
0.40797
0.44455
0.466571
0.462339
0.44147
0.393283
0.37412
0.371461
0.360905
0.357369
0.36131
0.374265
0.398444
0.441309
0.508749
0.627608
0.774967
0.839457
0.876364
0.902724
0.924953
0.942768
0.951761
0.957997
0.964309
0.9691
0.973071
0.976662
0.979642
0.981868
0.983246
0.984076
0.984426
0.984398
0.982656
0.979512
0.973742
0.961563
0.936936
0.881913
0.824248
0.797075
0.790453
0.778151
0.714001
0.475696
0.34582
0.345436
0.376681
0.384064
0.34955
0.264632
0.23266
0.236997
0.2831
0.324232
0.329442
0.35732
0.469968
0.587148
0.692386
0.799883
0.858318
0.868057
0.869282
0.863502
0.854143
0.840896
0.823784
0.804356
0.786429
0.770368
0.75523
0.742666
0.732906
0.724514
0.718607
0.713572
0.711017
0.709701
0.709265
0.709891
0.711016
0.712838
0.714649
0.716163
0.718756
0.720665
0.722492
0.724797
0.72679
0.728896
0.731038
0.733111
0.735344
0.737726
0.740232
0.743149
0.746592
0.750787
0.755864
0.761641
0.768822
0.777194
0.786854
0.797404
0.808743
0.82075
0.833349
0.846463
0.859856
0.872912
0.884587
0.894589
0.903664
0.911591
0.918221
0.923632
0.928023
0.931641
0.934809
0.93805
0.941674
0.945026
0.946663
0.946568
0.94347
0.929707
0.912279
0.901612
0.897283
0.896025
0.896564
0.900555
0.905365
0.909755
0.913652
0.915922
0.916028
0.911973
0.892378
0.867567
0.852513
0.83492
0.796556
0.696114
0.553779
0.42049
0.310033
0.223767
0.158044
0.108897
0.0731558
0.0477212
0.0303009
0.01861
0.0111445
0.00642398
0.00362904
0.00196067
0.0010352
0.000543702
0.000216195
0.597452
0.584134
0.538104
0.459339
0.412717
0.379197
0.377197
0.384369
0.403867
0.447871
0.476141
0.485127
0.481906
0.464067
0.426456
0.400514
0.40795
0.443185
0.472457
0.467446
0.426401
0.369118
0.360368
0.367292
0.372904
0.374434
0.391521
0.428763
0.497104
0.611068
0.749845
0.867911
0.932039
0.961064
0.975251
0.982507
0.987478
0.990764
0.9922
0.992861
0.993931
0.994517
0.99569
0.996319
0.996875
0.997443
0.997767
0.997927
0.99798
0.997889
0.99737
0.995819
0.992254
0.984341
0.966602
0.924942
0.823916
0.7473
0.726113
0.729753
0.743412
0.749572
0.727995
0.613926
0.429759
0.39284
0.385545
0.362817
0.289554
0.241789
0.228803
0.231718
0.248907
0.267191
0.317685
0.517519
0.720621
0.808244
0.848868
0.859842
0.859622
0.844995
0.817377
0.786722
0.756342
0.732007
0.713312
0.699599
0.688489
0.68184
0.677537
0.675695
0.675153
0.675657
0.677476
0.679571
0.68246
0.686117
0.69009
0.693438
0.696708
0.699791
0.701779
0.704403
0.70638
0.708173
0.710047
0.711707
0.713222
0.714895
0.716327
0.717692
0.71892
0.719928
0.720774
0.7215
0.722266
0.723324
0.724549
0.726159
0.728113
0.730437
0.733045
0.736547
0.741249
0.747286
0.754767
0.764061
0.776599
0.793229
0.813948
0.837158
0.860839
0.882417
0.900053
0.913769
0.924555
0.932372
0.936917
0.93882
0.939801
0.94208
0.950043
0.957069
0.95812
0.956457
0.946951
0.921888
0.906606
0.901731
0.901522
0.903379
0.911843
0.930794
0.948629
0.962026
0.969624
0.972553
0.973189
0.973141
0.972072
0.96649
0.949766
0.936411
0.923369
0.896924
0.828349
0.667555
0.500256
0.360861
0.252951
0.173059
0.114873
0.0744047
0.0465409
0.0284695
0.0167888
0.00961382
0.00551633
0.00260764
0.593787
0.549746
0.439555
0.370525
0.334048
0.31569
0.306487
0.306237
0.310652
0.328752
0.381694
0.455493
0.481519
0.487523
0.48181
0.471426
0.468832
0.472906
0.467029
0.410793
0.374617
0.369194
0.374329
0.400809
0.435025
0.492481
0.598572
0.697317
0.81809
0.890236
0.948558
0.973917
0.98482
0.988977
0.990607
0.991181
0.99133
0.991296
0.991105
0.991252
0.99191
0.993042
0.994376
0.995664
0.99657
0.997571
0.998195
0.998534
0.998678
0.998695
0.998362
0.997235
0.99367
0.983876
0.961109
0.902228
0.783684
0.699297
0.670054
0.672447
0.681216
0.706613
0.719079
0.707564
0.648738
0.490239
0.416358
0.387688
0.34119
0.282232
0.257157
0.257008
0.259154
0.267385
0.322246
0.597363
0.794543
0.839059
0.849482
0.849356
0.822078
0.779244
0.743018
0.715199
0.693719
0.679219
0.671555
0.667804
0.666636
0.668076
0.670243
0.673855
0.67801
0.684866
0.69396
0.704797
0.716223
0.725951
0.734007
0.740042
0.744402
0.748726
0.751412
0.753635
0.755729
0.756883
0.758283
0.759134
0.76001
0.760651
0.76112
0.761347
0.760879
0.759629
0.757345
0.753765
0.748827
0.743286
0.739031
0.735956
0.733529
0.732087
0.731542
0.731707
0.732801
0.734961
0.737903
0.741127
0.745497
0.751082
0.758668
0.770141
0.78724
0.809584
0.834497
0.859595
0.883555
0.90717
0.928275
0.941431
0.946362
0.946651
0.945675
0.946066
0.951509
0.961581
0.963771
0.961971
0.950348
0.923904
0.908383
0.902817
0.902672
0.905425
0.918666
0.941744
0.958116
0.970301
0.979849
0.986242
0.989354
0.99013
0.990066
0.989478
0.988047
0.985439
0.979983
0.968386
0.942216
0.87052
0.693174
0.510025
0.359655
0.246144
0.163415
0.105852
0.0668381
0.040687
0.0252009
0.0131526
0.59262
0.516363
0.408638
0.349229
0.318668
0.304087
0.296668
0.291698
0.291927
0.296839
0.318589
0.385949
0.471981
0.494326
0.495112
0.486657
0.473454
0.457995
0.413452
0.389738
0.38546
0.409671
0.468131
0.570496
0.670741
0.784437
0.850089
0.915499
0.950392
0.972304
0.981514
0.98451
0.985173
0.984866
0.981118
0.976767
0.973165
0.970409
0.96929
0.969062
0.971298
0.974461
0.97912
0.983264
0.987663
0.991262
0.994337
0.996292
0.997592
0.998178
0.998358
0.997841
0.9956
0.988107
0.966413
0.906591
0.785619
0.691591
0.655178
0.651318
0.663672
0.69062
0.710927
0.712624
0.702425
0.65841
0.526898
0.445147
0.388555
0.34166
0.305647
0.286903
0.285387
0.291965
0.350051
0.638655
0.81898
0.839659
0.841108
0.808732
0.751887
0.717917
0.692873
0.6745
0.665353
0.661208
0.660243
0.662967
0.666977
0.672522
0.681853
0.696855
0.718896
0.736874
0.751184
0.761153
0.765887
0.76906
0.771483
0.77337
0.775679
0.778411
0.781128
0.783497
0.787369
0.789669
0.793306
0.796259
0.799463
0.802441
0.805143
0.807532
0.809716
0.811286
0.812312
0.812518
0.81132
0.807403
0.799606
0.790966
0.781799
0.772637
0.765058
0.758725
0.753609
0.750125
0.748456
0.747973
0.748373
0.750439
0.754454
0.760141
0.768445
0.782068
0.803133
0.827896
0.85159
0.871464
0.89134
0.916368
0.940027
0.952989
0.956064
0.954908
0.952791
0.953287
0.958794
0.966562
0.967331
0.964135
0.94651
0.921018
0.909267
0.906355
0.906618
0.910098
0.925559
0.949947
0.96738
0.97893
0.986435
0.991381
0.994401
0.99589
0.996365
0.996394
0.996224
0.995471
0.993179
0.986888
0.970223
0.923712
0.781892
0.580862
0.412415
0.282307
0.189115
0.121553
0.0804685
0.0455059
0.595337
0.505921
0.402364
0.344601
0.315682
0.302328
0.295458
0.289433
0.29055
0.300527
0.328098
0.398592
0.476582
0.494034
0.491732
0.474745
0.444424
0.42129
0.413826
0.415437
0.46913
0.5936
0.723528
0.818781
0.873879
0.926796
0.950792
0.968284
0.974789
0.977398
0.977907
0.973732
0.964014
0.950783
0.93596
0.928581
0.9216
0.918484
0.917245
0.917194
0.921608
0.926718
0.935786
0.946231
0.958838
0.969692
0.979395
0.987134
0.992574
0.995937
0.997569
0.998184
0.998237
0.997296
0.992084
0.97018
0.880341
0.722579
0.654136
0.630214
0.640175
0.673475
0.705034
0.719288
0.719038
0.707803
0.667493
0.570828
0.486605
0.413457
0.356152
0.324587
0.320167
0.327713
0.38862
0.674094
0.8246
0.835662
0.813194
0.741793
0.704171
0.678418
0.66459
0.657577
0.655281
0.656976
0.660443
0.666349
0.677736
0.69812
0.727769
0.747599
0.757767
0.76451
0.767404
0.768382
0.768501
0.767709
0.766652
0.765919
0.766418
0.768615
0.772225
0.776109
0.781787
0.78604
0.791397
0.796041
0.800583
0.804836
0.808735
0.812183
0.815541
0.818386
0.82114
0.823848
0.826999
0.830185
0.830901
0.829632
0.826899
0.822034
0.814294
0.805312
0.796148
0.787498
0.780529
0.775888
0.772807
0.770178
0.768174
0.767457
0.768178
0.772717
0.785228
0.808061
0.836851
0.863297
0.882108
0.896233
0.914583
0.938404
0.956418
0.963068
0.963175
0.960638
0.960112
0.961612
0.968249
0.971356
0.970465
0.963351
0.938997
0.92061
0.91455
0.914273
0.91636
0.926298
0.947832
0.965493
0.978312
0.986808
0.99209
0.995308
0.997242
0.998251
0.998621
0.998665
0.998574
0.998086
0.996397
0.991202
0.975781
0.929592
0.787406
0.586055
0.424546
0.290528
0.204295
0.123805
0.597781
0.504101
0.409748
0.350146
0.322334
0.310486
0.306261
0.307418
0.31384
0.333101
0.369288
0.427414
0.464745
0.472567
0.46065
0.443935
0.436226
0.4326
0.459973
0.541166
0.719246
0.823743
0.883846
0.928507
0.949655
0.962484
0.967084
0.968854
0.968993
0.960302
0.94376
0.922793
0.908488
0.899179
0.894746
0.891918
0.890678
0.89028
0.890246
0.890839
0.891611
0.893114
0.895477
0.899474
0.907152
0.921037
0.94004
0.961415
0.976429
0.988117
0.994167
0.997122
0.998322
0.998577
0.997831
0.99203
0.964467
0.840301
0.684081
0.626717
0.608151
0.606626
0.637893
0.688555
0.719109
0.723417
0.715396
0.68499
0.61589
0.538474
0.480346
0.44482
0.407254
0.392152
0.429151
0.689203
0.824444
0.824289
0.753876
0.698406
0.671858
0.657709
0.652049
0.650214
0.653176
0.657814
0.665384
0.681884
0.716457
0.742051
0.753656
0.758588
0.760361
0.76087
0.757279
0.746871
0.734474
0.72753
0.725262
0.724981
0.726205
0.727835
0.729868
0.732389
0.737086
0.744697
0.754765
0.766131
0.777174
0.786949
0.795481
0.802869
0.809169
0.814147
0.818699
0.823037
0.827618
0.833235
0.839752
0.843347
0.844306
0.843885
0.841416
0.836327
0.829192
0.820196
0.809761
0.799403
0.791218
0.785897
0.782641
0.78061
0.779599
0.779583
0.781418
0.788902
0.810572
0.84696
0.879733
0.899202
0.908963
0.922089
0.942233
0.959892
0.968431
0.969695
0.9679
0.966391
0.967113
0.971242
0.975336
0.975355
0.972396
0.957876
0.937424
0.928694
0.927513
0.928987
0.936096
0.953829
0.969175
0.980329
0.988038
0.993053
0.99608
0.997824
0.998794
0.99926
0.999401
0.9994
0.999285
0.99875
0.996885
0.990899
0.972478
0.914822
0.758835
0.560257
0.426314
0.281293
0.598515
0.527432
0.456084
0.386651
0.351418
0.336066
0.331964
0.339086
0.353464
0.37395
0.404821
0.435301
0.448786
0.45189
0.450709
0.44889
0.462587
0.512404
0.653656
0.800055
0.876207
0.922604
0.945655
0.957198
0.961255
0.962463
0.961357
0.95207
0.931665
0.912329
0.898519
0.891844
0.887786
0.886094
0.885462
0.885299
0.885536
0.886132
0.886591
0.887333
0.887916
0.888406
0.888672
0.888888
0.889515
0.891787
0.897723
0.910935
0.937894
0.966729
0.984105
0.99277
0.996947
0.998593
0.998948
0.99808
0.991184
0.958546
0.812018
0.665426
0.610392
0.588964
0.580083
0.586717
0.630027
0.690199
0.712264
0.708852
0.691033
0.644658
0.581456
0.508157
0.43686
0.411322
0.45479
0.712301
0.823323
0.795714
0.709558
0.670444
0.653634
0.646824
0.645497
0.648322
0.653768
0.662455
0.681328
0.719875
0.743007
0.752373
0.755063
0.755481
0.748668
0.73118
0.708308
0.699557
0.697234
0.700244
0.709174
0.715598
0.719362
0.72024
0.720388
0.718338
0.715792
0.713846
0.712647
0.715013
0.721786
0.733719
0.749408
0.767169
0.783223
0.794212
0.803557
0.812582
0.82174
0.831621
0.842526
0.851696
0.858056
0.861678
0.862829
0.862549
0.860357
0.855057
0.847653
0.838088
0.827032
0.816296
0.807196
0.799803
0.794065
0.79052
0.789412
0.789983
0.794686
0.811731
0.852436
0.893508
0.919952
0.93089
0.936174
0.947228
0.963196
0.972538
0.974837
0.974182
0.972323
0.972676
0.975272
0.979396
0.979969
0.978734
0.971975
0.956264
0.947534
0.945304
0.945913
0.950023
0.962581
0.975235
0.984262
0.990386
0.994369
0.99685
0.998301
0.999099
0.999508
0.99967
0.999696
0.999666
0.999475
0.998727
0.996207
0.988162
0.964315
0.882302
0.734578
0.525146
0.601151
0.540518
0.494724
0.426613
0.383772
0.364379
0.359752
0.365949
0.38014
0.399785
0.421648
0.441571
0.451063
0.45826
0.470067
0.502788
0.589792
0.734091
0.847687
0.90775
0.936867
0.950779
0.956007
0.957481
0.957167
0.94901
0.928878
0.910006
0.896689
0.88966
0.88618
0.884598
0.883826
0.883495
0.883375
0.883435
0.88389
0.884553
0.885395
0.886607
0.88781
0.888964
0.889484
0.889234
0.888227
0.887838
0.888333
0.891113
0.900544
0.92363
0.962518
0.982928
0.992802
0.997385
0.999018
0.999362
0.998537
0.991933
0.959543
0.813006
0.669289
0.608364
0.580677
0.565363
0.557245
0.559342
0.602061
0.6546
0.659965
0.64054
0.580567
0.502555
0.436304
0.419958
0.480196
0.738291
0.819826
0.74981
0.678855
0.652542
0.642868
0.640657
0.642394
0.64844
0.656468
0.675204
0.713983
0.738541
0.748442
0.751243
0.750199
0.737044
0.702454
0.678556
0.672569
0.672518
0.684163
0.696687
0.706873
0.72239
0.737469
0.748924
0.753776
0.748335
0.73598
0.721
0.710714
0.705148
0.704054
0.705578
0.710289
0.719859
0.738645
0.760877
0.778094
0.796029
0.814553
0.830434
0.84477
0.859078
0.871713
0.882349
0.888922
0.891118
0.890898
0.888634
0.882411
0.873497
0.862289
0.850426
0.840364
0.832814
0.82615
0.819074
0.812793
0.809427
0.80904
0.811338
0.823932
0.863255
0.90718
0.935547
0.947926
0.952628
0.958749
0.969103
0.976603
0.978958
0.978844
0.977596
0.977715
0.979467
0.983316
0.984344
0.983913
0.980975
0.971527
0.964483
0.962199
0.962229
0.964202
0.971802
0.981455
0.988339
0.992942
0.995879
0.997686
0.998757
0.999355
0.999664
0.9998
0.999833
0.999826
0.999751
0.99943
0.998308
0.99473
0.983537
0.953173
0.839536
0.60982
0.572556
0.55217
0.503964
0.4469
0.407319
0.395078
0.393755
0.407566
0.423969
0.443018
0.459887
0.475618
0.505913
0.566459
0.681842
0.802011
0.87782
0.921406
0.941683
0.950075
0.953034
0.95382
0.948482
0.932448
0.913139
0.899201
0.891032
0.886592
0.883797
0.88236
0.880776
0.879781
0.878879
0.87832
0.878055
0.877999
0.878765
0.879872
0.881894
0.884865
0.888554
0.891157
0.892609
0.893359
0.890453
0.888236
0.88801
0.890768
0.899936
0.925326
0.966386
0.985172
0.994339
0.998215
0.999445
0.999688
0.999078
0.993985
0.964221
0.82898
0.690278
0.631329
0.602204
0.578096
0.549171
0.520002
0.516807
0.531767
0.542645
0.528706
0.479939
0.435616
0.429067
0.514729
0.764159
0.809918
0.711059
0.655872
0.639865
0.63519
0.637536
0.641292
0.649269
0.662925
0.698307
0.729827
0.74295
0.747028
0.745767
0.730618
0.683382
0.659921
0.651763
0.647295
0.64541
0.64534
0.648814
0.672361
0.70053
0.731857
0.756828
0.774536
0.783742
0.785746
0.775813
0.750609
0.720133
0.706484
0.703457
0.704472
0.707631
0.716176
0.736878
0.763543
0.789479
0.812768
0.835081
0.857044
0.875638
0.890689
0.905651
0.917847
0.927137
0.931004
0.930904
0.929344
0.924166
0.911542
0.892724
0.871787
0.855202
0.846184
0.842595
0.841329
0.83965
0.837402
0.836846
0.838669
0.849992
0.887314
0.927297
0.951484
0.961085
0.964259
0.969107
0.976178
0.981242
0.982884
0.982844
0.982041
0.982082
0.983379
0.986828
0.988269
0.988245
0.987183
0.98254
0.977154
0.974993
0.974729
0.975601
0.979882
0.986829
0.991834
0.99513
0.997192
0.998436
0.999162
0.999569
0.999782
0.999879
0.999907
0.999906
0.999875
0.999729
0.999211
0.997525
0.992404
0.96805
0.623558
0.605321
0.593061
0.582865
0.543845
0.495359
0.465551
0.455727
0.456723
0.474066
0.494667
0.524257
0.579021
0.659335
0.759252
0.840287
0.899292
0.92868
0.942809
0.948222
0.949642
0.948996
0.941153
0.919778
0.903927
0.893711
0.887848
0.883735
0.88137
0.87906
0.877596
0.876037
0.875312
0.874782
0.874571
0.874525
0.874809
0.875038
0.875464
0.876114
0.877367
0.879956
0.885905
0.892656
0.895991
0.897433
0.893553
0.889671
0.889349
0.893502
0.905891
0.944488
0.975112
0.989999
0.996475
0.999034
0.999738
0.999872
0.999487
0.995527
0.965966
0.830304
0.714416
0.682651
0.680596
0.67189
0.638578
0.576194
0.536409
0.524293
0.509515
0.47489
0.44277
0.44434
0.571485
0.784982
0.781567
0.677238
0.638806
0.628245
0.630137
0.635396
0.641097
0.651335
0.676677
0.712411
0.734248
0.74198
0.742978
0.729501
0.680964
0.642083
0.628369
0.603633
0.57399
0.524218
0.485217
0.470344
0.503195
0.577086
0.650407
0.715633
0.761823
0.785075
0.793785
0.794713
0.78977
0.768477
0.730326
0.711315
0.706059
0.706615
0.711029
0.726465
0.757344
0.787485
0.817163
0.849985
0.881425
0.90859
0.929525
0.948509
0.959896
0.968705
0.975229
0.976326
0.97584
0.974225
0.970716
0.963461
0.945608
0.915172
0.885689
0.867293
0.860033
0.858666
0.859106
0.862376
0.866952
0.875728
0.897712
0.927036
0.95138
0.966339
0.972329
0.97415
0.977259
0.982048
0.9853
0.986277
0.986202
0.985641
0.985699
0.9868
0.989854
0.991553
0.991809
0.991477
0.989472
0.985534
0.983602
0.98322
0.983641
0.986195
0.991031
0.994531
0.996799
0.99819
0.999009
0.999477
0.999735
0.999868
0.99993
0.999949
0.99995
0.999936
0.999866
0.99961
0.998772
0.994033
0.629144
0.621168
0.6335
0.641505
0.628484
0.592438
0.576254
0.57088
0.580405
0.595045
0.628271
0.678252
0.73914
0.80604
0.86736
0.910299
0.932379
0.942519
0.946408
0.947394
0.944643
0.932296
0.912137
0.899379
0.89053
0.885504
0.88224
0.879571
0.87766
0.875756
0.874861
0.874224
0.873993
0.873921
0.873957
0.874138
0.874288
0.874574
0.874874
0.875203
0.875609
0.876429
0.87838
0.883947
0.894818
0.898895
0.900263
0.896164
0.891177
0.892489
0.898921
0.924758
0.963961
0.985317
0.994712
0.998268
0.999555
0.999892
0.99994
0.999556
0.994921
0.955196
0.792405
0.723826
0.732699
0.775951
0.772499
0.752963
0.697675
0.616836
0.551934
0.496331
0.465225
0.478055
0.658364
0.797391
0.739435
0.64968
0.624018
0.618824
0.625765
0.633548
0.640857
0.656398
0.686937
0.71475
0.733729
0.739351
0.732311
0.701178
0.642206
0.611527
0.570648
0.479847
0.369045
0.299268
0.274396
0.271868
0.301537
0.372354
0.507169
0.622275
0.711469
0.766404
0.790836
0.795607
0.794321
0.785208
0.752136
0.720861
0.708717
0.707305
0.709821
0.72277
0.755146
0.791993
0.835102
0.876691
0.912441
0.942833
0.966395
0.979303
0.986483
0.990411
0.992915
0.993977
0.994007
0.993708
0.992757
0.990727
0.986918
0.978965
0.959009
0.925686
0.897858
0.882618
0.878284
0.879252
0.891031
0.914419
0.927221
0.941173
0.957942
0.971166
0.978375
0.981013
0.981823
0.983403
0.986582
0.988576
0.989075
0.98893
0.988543
0.988646
0.989709
0.992453
0.994104
0.994525
0.994412
0.993401
0.990689
0.989174
0.98885
0.989104
0.99084
0.994141
0.996492
0.997989
0.99889
0.999408
0.999696
0.999849
0.999927
0.999962
0.999974
0.999974
0.999967
0.999929
0.999791
0.9989
0.635066
0.630211
0.658601
0.687323
0.68909
0.682601
0.677344
0.675639
0.695124
0.717482
0.749702
0.795003
0.83965
0.882922
0.916464
0.934054
0.941976
0.944971
0.945747
0.943243
0.930068
0.909512
0.89716
0.89025
0.885154
0.882107
0.87935
0.877213
0.875686
0.874459
0.873969
0.873732
0.873649
0.873627
0.873671
0.873737
0.873961
0.874299
0.874716
0.875094
0.875412
0.875864
0.876757
0.879178
0.887219
0.898497
0.90215
0.901562
0.896551
0.894066
0.896904
0.912773
0.953422
0.980193
0.992834
0.997708
0.999312
0.999827
0.999961
0.999952
0.999381
0.991748
0.908294
0.760134
0.756537
0.806347
0.818063
0.810293
0.786561
0.72621
0.643453
0.561634
0.522165
0.569282
0.745621
0.797857
0.69382
0.627958
0.610361
0.610834
0.620805
0.631007
0.640127
0.66127
0.688006
0.713501
0.73119
0.733005
0.724353
0.675973
0.60868
0.550008
0.446359
0.323596
0.248911
0.218695
0.210688
0.217221
0.23713
0.285351
0.406372
0.560386
0.674584
0.744063
0.77972
0.792426
0.793303
0.787095
0.757844
0.723245
0.708957
0.70663
0.709149
0.722498
0.760066
0.812408
0.863679
0.908754
0.944537
0.969703
0.983067
0.990442
0.994498
0.996605
0.997723
0.99829
0.998419
0.998398
0.998287
0.997975
0.997143
0.995201
0.991611
0.983729
0.961968
0.932856
0.914677
0.909732
0.911648
0.926325
0.94951
0.962922
0.972475
0.980031
0.984693
0.986606
0.987141
0.987366
0.988082
0.989994
0.991139
0.991323
0.991097
0.990897
0.991058
0.992215
0.994635
0.996001
0.996387
0.996325
0.995615
0.993775
0.992815
0.992641
0.992848
0.994179
0.996389
0.99789
0.998821
0.999368
0.999673
0.999837
0.999922
0.999963
0.999981
0.999987
0.999987
0.999982
0.999959
0.999792
0.638942
0.639497
0.6676
0.720696
0.737812
0.737792
0.740984
0.76452
0.78422
0.798877
0.832731
0.861063
0.8928
0.919055
0.934493
0.94159
0.9441
0.944624
0.942131
0.931649
0.912264
0.897643
0.890007
0.885666
0.882039
0.879571
0.877258
0.875614
0.874572
0.873817
0.873504
0.873346
0.873243
0.873162
0.873096
0.873107
0.87324
0.873583
0.874286
0.875
0.875488
0.875809
0.876497
0.878234
0.883774
0.896929
0.903058
0.90353
0.899658
0.895633
0.896558
0.907466
0.944845
0.975779
0.990878
0.997025
0.999148
0.999775
0.99995
0.999986
0.999936
0.998836
0.982509
0.841965
0.776918
0.811647
0.833324
0.824634
0.798581
0.751723
0.688769
0.631866
0.620824
0.694562
0.78719
0.777959
0.6516
0.609268
0.598778
0.601815
0.613794
0.625849
0.638257
0.661058
0.686681
0.710277
0.725099
0.72795
0.710117
0.638845
0.558639
0.470344
0.345286
0.249678
0.206262
0.193651
0.193532
0.200158
0.21607
0.252648
0.355812
0.527524
0.657421
0.73459
0.771398
0.785923
0.787851
0.783162
0.757262
0.722092
0.705732
0.70325
0.708231
0.729612
0.783062
0.842137
0.894825
0.937839
0.966404
0.982071
0.990728
0.995316
0.997563
0.998565
0.998997
0.999154
0.999141
0.999112
0.999102
0.999092
0.999059
0.998843
0.998069
0.996096
0.991449
0.979312
0.963083
0.952249
0.949165
0.95111
0.961921
0.974622
0.982331
0.987327
0.990151
0.991232
0.991372
0.991204
0.991203
0.991575
0.992672
0.993145
0.993136
0.992859
0.992813
0.993064
0.994408
0.996361
0.997352
0.997603
0.997535
0.996917
0.995792
0.995323
0.995276
0.99547
0.996506
0.997907
0.998811
0.999354
0.999664
0.999832
0.999919
0.999963
0.999983
0.999991
0.999993
0.999993
0.99999
0.999958
0.639452
0.647721
0.658942
0.720948
0.770506
0.7907
0.790096
0.802942
0.837081
0.850021
0.876729
0.898985
0.918166
0.933645
0.940897
0.943955
0.94475
0.944173
0.938015
0.921138
0.903332
0.892503
0.886813
0.88364
0.881187
0.879222
0.877168
0.875554
0.874536
0.873831
0.873493
0.87332
0.87323
0.873079
0.872985
0.872996
0.873083
0.873334
0.874002
0.87486
0.875549
0.876099
0.876727
0.878184
0.883107
0.896363
0.905133
0.906005
0.901528
0.896038
0.896416
0.905249
0.940414
0.973458
0.989883
0.996665
0.999035
0.99975
0.999941
0.999988
0.999992
0.999884
0.997306
0.949448
0.803339
0.810832
0.838257
0.82948
0.805426
0.772851
0.731891
0.705139
0.715525
0.766128
0.793219
0.709431
0.621383
0.594238
0.589388
0.593314
0.605965
0.619526
0.635197
0.659194
0.682709
0.703193
0.718705
0.720076
0.695198
0.609406
0.524969
0.413573
0.290506
0.218217
0.192456
0.187389
0.188779
0.195142
0.209989
0.243065
0.336221
0.514884
0.651706
0.730991
0.766332
0.777649
0.77753
0.768445
0.73677
0.706656
0.696153
0.697738
0.709717
0.74997
0.813767
0.874092
0.924165
0.958139
0.977349
0.988545
0.994745
0.99772
0.99882
0.99918
0.999267
0.99926
0.999144
0.998966
0.998967
0.999027
0.999198
0.999289
0.999271
0.999008
0.997895
0.994224
0.986298
0.979524
0.976706
0.976707
0.978999
0.985188
0.989723
0.992608
0.994161
0.994704
0.994723
0.994302
0.993762
0.99375
0.99406
0.994598
0.994706
0.994562
0.994362
0.994393
0.994789
0.996258
0.997657
0.998278
0.9984
0.998316
0.99781
0.997275
0.997118
0.997128
0.997323
0.998083
0.998877
0.999376
0.999671
0.999834
0.99992
0.999963
0.999983
0.999992
0.999996
0.999997
0.999996
0.99999
0.630517
0.650088
0.652966
0.707013
0.761598
0.803981
0.827848
0.836268
0.859604
0.881022
0.896648
0.915678
0.928354
0.938247
0.942377
0.944346
0.9449
0.94362
0.935367
0.919386
0.903737
0.892941
0.887027
0.883765
0.881443
0.879597
0.877624
0.875957
0.874839
0.874087
0.873652
0.873433
0.873331
0.873204
0.873198
0.873244
0.873389
0.873708
0.874409
0.875378
0.875952
0.876373
0.877255
0.879547
0.886666
0.900749
0.907512
0.907449
0.902128
0.895998
0.896161
0.90462
0.939114
0.972788
0.989602
0.996556
0.998998
0.999742
0.999938
0.999987
0.999997
0.999993
0.999745
0.992176
0.87495
0.807446
0.836888
0.837371
0.817053
0.793563
0.769713
0.757604
0.768872
0.787132
0.782562
0.654085
0.600319
0.584336
0.582807
0.586885
0.599681
0.613917
0.630875
0.65506
0.675047
0.695183
0.709103
0.708517
0.683076
0.597168
0.494184
0.378709
0.276708
0.217941
0.193628
0.188822
0.190028
0.195949
0.211037
0.244911
0.339176
0.530058
0.668236
0.735013
0.761629
0.766159
0.762357
0.741658
0.701223
0.688221
0.688521
0.695461
0.720363
0.781028
0.848012
0.905545
0.946127
0.970779
0.985521
0.993763
0.997583
0.998881
0.999246
0.999301
0.999251
0.999084
0.998442
0.997462
0.997395
0.997583
0.998265
0.999064
0.999382
0.999405
0.99924
0.998375
0.995386
0.991596
0.989582
0.989244
0.989663
0.991688
0.994158
0.995768
0.996644
0.996953
0.996957
0.996631
0.995756
0.995459
0.995489
0.995758
0.99593
0.995895
0.995658
0.995607
0.995697
0.99631
0.997691
0.998556
0.998892
0.998933
0.998843
0.998536
0.998377
0.998358
0.9984
0.998636
0.999128
0.99949
0.99972
0.999855
0.999929
0.999967
0.999985
0.999993
0.999997
0.999998
0.999998
0.999997
0.597137
0.641294
0.651124
0.677953
0.73997
0.796056
0.830837
0.852647
0.871199
0.893138
0.907439
0.921676
0.930934
0.938306
0.942217
0.944194
0.944742
0.943413
0.936383
0.921114
0.906325
0.895213
0.88847
0.884643
0.882188
0.880542
0.878853
0.877073
0.875729
0.874824
0.874192
0.873865
0.873662
0.873604
0.873636
0.873761
0.87404
0.874636
0.875548
0.876245
0.876656
0.87726
0.878685
0.882665
0.894185
0.907162
0.909763
0.90811
0.899895
0.893988
0.894997
0.907441
0.946949
0.977683
0.991924
0.997408
0.999247
0.9998
0.999951
0.999989
0.999998
0.999999
0.999981
0.999056
0.969932
0.826829
0.825778
0.842014
0.829479
0.80875
0.793033
0.786552
0.789066
0.788436
0.72991
0.622704
0.587503
0.577977
0.577848
0.58221
0.595835
0.609552
0.626782
0.648688
0.667163
0.687791
0.699496
0.698649
0.679176
0.603536
0.497287
0.382743
0.284492
0.225424
0.199577
0.19563
0.198036
0.206941