/*--------------------------------*- C++ -*----------------------------------*\
  =========                 |
  \\      /  F ield         | OpenFOAM: The Open Source CFD Toolbox
   \\    /   O peration     | Website:  https://openfoam.org
    \\  /    A nd           | Version:  7
     \\/     M anipulation  |
\*---------------------------------------------------------------------------*/
FoamFile
{
    version     2.0;
    format      ascii;
    class       volVectorField;
    location    "0.093";
    object      U;
}
// * * * * * * * * * * * * * * * * * * * * * * * * * * * * * * * * * * * * * //

dimensions      [0 1 -1 0 0 0 0];

internalField   nonuniform List<vector> 
12225
(
(4.81357 0.153029 0)
(4.23677 0.117919 0)
(3.7561 0.108527 0)
(3.37361 0.0910433 0)
(2.99687 0.0801993 0)
(2.60271 0.0690539 0)
(2.23563 0.0552284 0)
(1.91688 0.0451414 0)
(1.63926 0.0393976 0)
(1.39392 0.0337793 0)
(1.17237 0.0270643 0)
(0.979068 0.0200842 0)
(0.805825 0.0145774 0)
(0.66533 0.0105199 0)
(0.526821 0.00734887 0)
(0.430503 0.00824505 0)
(0.282542 -0.00142756 0)
(0.247466 -0.0201025 0)
(5.06671 0.154022 0)
(4.87763 0.0725794 0)
(4.75418 0.0864344 0)
(4.66807 0.0911657 0)
(4.58255 0.102767 0)
(4.46352 0.118044 0)
(4.30523 0.121757 0)
(4.12633 0.114694 0)
(3.94415 0.106367 0)
(3.77348 0.101952 0)
(3.60505 0.0995136 0)
(3.44616 0.0961403 0)
(3.27765 0.0912125 0)
(3.12912 0.0864348 0)
(2.95733 0.0834516 0)
(2.8212 0.0811559 0)
(2.62537 0.0862632 0)
(2.49947 0.0635928 0)
(4.9972 0.195894 0)
(4.90543 0.1384 0)
(4.7837 0.143491 0)
(4.7215 0.134332 0)
(4.68807 0.13186 0)
(4.67 0.141362 0)
(4.64855 0.147503 0)
(4.61181 0.146146 0)
(4.56239 0.142022 0)
(4.5129 0.138943 0)
(4.46358 0.136013 0)
(4.41627 0.132993 0)
(4.36141 0.129329 0)
(4.30469 0.126596 0)
(4.23437 0.126781 0)
(4.15959 0.128686 0)
(4.06925 0.138928 0)
(3.97008 0.146682 0)
(5.04673 0.210803 0)
(4.94433 0.135893 0)
(4.85477 0.134419 0)
(4.80876 0.128538 0)
(4.76574 0.128663 0)
(4.72972 0.137989 0)
(4.70902 0.145099 0)
(4.69607 0.144987 0)
(4.68547 0.140681 0)
(4.67843 0.136213 0)
(4.67403 0.132859 0)
(4.66806 0.13131 0)
(4.65668 0.131507 0)
(4.63641 0.133758 0)
(4.60902 0.140001 0)
(4.57212 0.148632 0)
(4.53386 0.16469 0)
(4.48788 0.181533 0)
(5.06192 0.225929 0)
(5.01454 0.162642 0)
(4.95584 0.155914 0)
(4.8939 0.153367 0)
(4.82395 0.151706 0)
(4.76703 0.15268 0)
(4.7362 0.15175 0)
(4.72428 0.147479 0)
(4.72251 0.142349 0)
(4.72669 0.138472 0)
(4.73311 0.136497 0)
(4.73576 0.136756 0)
(4.73098 0.139631 0)
(4.71599 0.145005 0)
(4.69333 0.154014 0)
(4.66445 0.165084 0)
(4.63522 0.180359 0)
(4.60765 0.196898 0)
(4.96398 0.220801 0)
(4.9283 0.167353 0)
(4.8835 0.158349 0)
(4.85351 0.167923 0)
(4.81394 0.176839 0)
(4.78295 0.176061 0)
(4.77521 0.166454 0)
(4.77988 0.153544 0)
(4.7826 0.142489 0)
(4.77823 0.135676 0)
(4.76791 0.13374 0)
(4.75322 0.136642 0)
(4.73579 0.143885 0)
(4.71601 0.154144 0)
(4.69499 0.166655 0)
(4.67322 0.179861 0)
(4.65243 0.194412 0)
(4.6339 0.209183 0)
(4.96069 0.25997 0)
(4.90027 0.193769 0)
(4.84261 0.169511 0)
(4.7945 0.174275 0)
(4.79035 0.175042 0)
(4.82412 0.164511 0)
(4.85942 0.150495 0)
(4.86654 0.141815 0)
(4.84428 0.140119 0)
(4.81047 0.141857 0)
(4.78145 0.144357 0)
(4.76212 0.147949 0)
(4.74982 0.154085 0)
(4.73855 0.163339 0)
(4.72498 0.175122 0)
(4.70702 0.188245 0)
(4.68765 0.202078 0)
(4.66756 0.215936 0)
(5.08055 0.328847 0)
(4.95936 0.212736 0)
(4.89731 0.178298 0)
(4.86708 0.175376 0)
(4.85503 0.164188 0)
(4.85742 0.151856 0)
(4.86345 0.150946 0)
(4.86263 0.159313 0)
(4.85311 0.166229 0)
(4.83939 0.165311 0)
(4.82552 0.159239 0)
(4.81251 0.154998 0)
(4.80086 0.157694 0)
(4.78982 0.167922 0)
(4.78037 0.183098 0)
(4.77035 0.19968 0)
(4.76272 0.215292 0)
(4.75354 0.228751 0)
(5.09957 0.327615 0)
(5.01523 0.259072 0)
(4.94178 0.197963 0)
(4.93397 0.190246 0)
(4.94048 0.184971 0)
(4.93288 0.168618 0)
(4.91299 0.153479 0)
(4.89213 0.147722 0)
(4.87702 0.149152 0)
(4.86791 0.152439 0)
(4.86189 0.155364 0)
(4.85569 0.159025 0)
(4.84852 0.165497 0)
(4.84046 0.175288 0)
(4.83288 0.187553 0)
(4.82547 0.200617 0)
(4.81966 0.213503 0)
(4.81432 0.226195 0)
(4.95338 0.314664 0)
(4.98105 0.2715 0)
(4.95233 0.201909 0)
(4.92622 0.165242 0)
(4.91585 0.155192 0)
(4.91177 0.158797 0)
(4.89965 0.167924 0)
(4.87572 0.176096 0)
(4.84778 0.178267 0)
(4.82553 0.173671 0)
(4.81331 0.166371 0)
(4.80957 0.162255 0)
(4.81101 0.165252 0)
(4.8146 0.175562 0)
(4.81844 0.190304 0)
(4.82163 0.206238 0)
(4.82386 0.22096 0)
(4.82578 0.233951 0)
(4.88889 0.283304 0)
(4.96318 0.241435 0)
(4.98152 0.21986 0)
(4.95519 0.21365 0)
(4.90522 0.200203 0)
(4.86513 0.183388 0)
(4.84548 0.173998 0)
(4.84108 0.172862 0)
(4.84412 0.173246 0)
(4.84882 0.170521 0)
(4.85116 0.165752 0)
(4.84913 0.163108 0)
(4.84379 0.16568 0)
(4.83791 0.173975 0)
(4.8338 0.185823 0)
(4.83206 0.199082 0)
(4.83262 0.211959 0)
(4.8338 0.224665 0)
(5.00662 0.242661 0)
(4.98281 0.22471 0)
(4.9352 0.203719 0)
(4.94386 0.192242 0)
(4.96861 0.185691 0)
(4.97032 0.182242 0)
(4.94964 0.180775 0)
(4.92711 0.179043 0)
(4.91648 0.174756 0)
(4.91775 0.168561 0)
(4.92375 0.163613 0)
(4.92754 0.163191 0)
(4.92731 0.168393 0)
(4.92349 0.178548 0)
(4.91893 0.191432 0)
(4.91308 0.205176 0)
(4.90851 0.218733 0)
(4.90198 0.231486 0)
(5.08351 0.280062 0)
(5.03596 0.264148 0)
(5.00286 0.237565 0)
(4.98002 0.206904 0)
(4.95438 0.195953 0)
(4.93032 0.197652 0)
(4.91473 0.196855 0)
(4.91286 0.189057 0)
(4.9241 0.177693 0)
(4.94154 0.168097 0)
(4.95629 0.163881 0)
(4.96157 0.166018 0)
(4.95762 0.173396 0)
(4.9475 0.184056 0)
(4.93797 0.195998 0)
(4.9311 0.208219 0)
(4.93083 0.22007 0)
(4.93482 0.232293 0)
(4.98332 0.241537 0)
(4.99828 0.253404 0)
(4.97392 0.23162 0)
(4.96215 0.210868 0)
(4.95743 0.202095 0)
(4.95427 0.197969 0)
(4.95072 0.189122 0)
(4.94774 0.172479 0)
(4.94619 0.153996 0)
(4.94573 0.14286 0)
(4.94513 0.144058 0)
(4.94333 0.155992 0)
(4.94094 0.17299 0)
(4.93927 0.189347 0)
(4.94011 0.201488 0)
(4.9444 0.209627 0)
(4.95256 0.214438 0)
(4.96469 0.21973 0)
(5.01682 0.267347 0)
(4.97242 0.284256 0)
(4.94653 0.250239 0)
(4.94502 0.214479 0)
(4.94528 0.201197 0)
(4.94453 0.203436 0)
(4.94953 0.204405 0)
(4.95916 0.197196 0)
(4.96733 0.186237 0)
(4.9701 0.178182 0)
(4.96723 0.175937 0)
(4.96039 0.178751 0)
(4.95225 0.18398 0)
(4.94516 0.189311 0)
(4.94111 0.193123 0)
(4.94119 0.196187 0)
(4.9459 0.198617 0)
(4.95532 0.203293 0)
(4.93671 0.329846 0)
(4.94367 0.284791 0)
(4.95144 0.25017 0)
(4.95579 0.217674 0)
(4.95799 0.200899 0)
(4.9599 0.189054 0)
(4.96113 0.171842 0)
(4.96325 0.150477 0)
(4.96889 0.134278 0)
(4.97822 0.13113 0)
(4.98895 0.141861 0)
(4.99816 0.161356 0)
(5.00501 0.181959 0)
(5.00982 0.197486 0)
(5.01461 0.204224 0)
(5.02013 0.203602 0)
(5.02842 0.197306 0)
(5.03824 0.191117 0)
(4.99731 0.284645 0)
(4.97009 0.283531 0)
(4.97355 0.239596 0)
(4.98522 0.206918 0)
(4.99166 0.198435 0)
(4.99492 0.20513 0)
(4.99434 0.20895 0)
(4.98883 0.198937 0)
(4.981 0.180468 0)
(4.97454 0.165844 0)
(4.97282 0.161812 0)
(4.9782 0.166695 0)
(4.99084 0.174339 0)
(5.00898 0.179527 0)
(5.0296 0.179547 0)
(5.04974 0.175605 0)
(5.06774 0.169378 0)
(5.08206 0.164423 0)
(4.97139 0.308286 0)
(4.98441 0.281274 0)
(4.97814 0.221703 0)
(4.97217 0.186199 0)
(4.96433 0.178991 0)
(4.97343 0.178421 0)
(4.99164 0.172536 0)
(5.00515 0.160317 0)
(5.01177 0.146105 0)
(5.01501 0.134645 0)
(5.01906 0.127664 0)
(5.02742 0.124596 0)
(5.04135 0.123869 0)
(5.05935 0.124899 0)
(5.07877 0.127359 0)
(5.09678 0.13117 0)
(5.11244 0.135793 0)
(5.12464 0.140422 0)
(4.95657 0.32001 0)
(4.99401 0.304795 0)
(5.00886 0.298951 0)
(5.02816 0.257513 0)
(5.02762 0.208563 0)
(5.02142 0.177348 0)
(5.0186 0.167802 0)
(5.01869 0.168795 0)
(5.02449 0.167821 0)
(5.03755 0.159906 0)
(5.05516 0.146693 0)
(5.07325 0.132178 0)
(5.08937 0.119537 0)
(5.10242 0.110393 0)
(5.1135 0.105156 0)
(5.12356 0.103528 0)
(5.1346 0.104434 0)
(5.14676 0.107566 0)
(4.79558 0.292288 0)
(4.84426 0.165742 0)
(4.8926 0.132033 0)
(4.93918 0.147985 0)
(4.96788 0.168823 0)
(4.99453 0.181897 0)
(5.03146 0.176731 0)
(5.07129 0.151458 0)
(5.10445 0.115433 0)
(5.127 0.0825367 0)
(5.13998 0.0628864 0)
(5.14747 0.0585913 0)
(5.15433 0.064911 0)
(5.16331 0.0745651 0)
(5.17554 0.0816099 0)
(5.19042 0.0839816 0)
(5.20762 0.0815135 0)
(5.22569 0.0772802 0)
(5.09253 0.28725 0)
(5.04648 0.182977 0)
(4.99162 0.172681 0)
(4.97112 0.185141 0)
(4.97245 0.15952 0)
(5.00194 0.111599 0)
(5.04886 0.0751581 0)
(5.09725 0.0657078 0)
(5.13771 0.0758279 0)
(5.1669 0.0890895 0)
(5.18602 0.0943052 0)
(5.19897 0.0892525 0)
(5.20955 0.0771481 0)
(5.21935 0.06218 0)
(5.22822 0.0475017 0)
(5.23559 0.0354482 0)
(5.24143 0.02676 0)
(5.24592 0.0227239 0)
(4.85579 0.320369 0)
(4.8818 0.207269 0)
(4.94112 0.171145 0)
(5.01244 0.15623 0)
(5.07302 0.128778 0)
(5.11489 0.092507 0)
(5.13848 0.0607129 0)
(5.15131 0.0411518 0)
(5.16237 0.0327818 0)
(5.17732 0.0308409 0)
(5.19739 0.032434 0)
(5.2203 0.0369697 0)
(5.24288 0.043788 0)
(5.26219 0.0515004 0)
(5.27704 0.0579946 0)
(5.28741 0.0619389 0)
(5.29499 0.0623556 0)
(5.301 0.0594633 0)
(5.03285 0.233142 0)
(5.01019 0.096019 0)
(5.02791 0.0840175 0)
(5.07483 0.0914952 0)
(5.12874 0.0729626 0)
(5.16679 0.0455898 0)
(5.18147 0.0307354 0)
(5.18298 0.0303722 0)
(5.1824 0.0349164 0)
(5.1847 0.0356181 0)
(5.19053 0.0304438 0)
(5.19894 0.0224041 0)
(5.20978 0.0153161 0)
(5.22348 0.0113315 0)
(5.24146 0.00971214 0)
(5.26306 0.00886555 0)
(5.28825 0.00698396 0)
(5.31457 0.00363709 0)
(5.1801 0.311293 0)
(5.16577 0.182055 0)
(5.16632 0.112513 0)
(5.17122 0.0788539 0)
(5.18326 0.062258 0)
(5.19918 0.0543787 0)
(5.216 0.0511942 0)
(5.23586 0.0473657 0)
(5.25899 0.0402028 0)
(5.28186 0.031626 0)
(5.30091 0.0249797 0)
(5.31517 0.0211367 0)
(5.32685 0.0187567 0)
(5.33927 0.0154126 0)
(5.35484 0.00944825 0)
(5.37363 0.00158486 0)
(5.39493 -0.0071629 0)
(5.41523 -0.0138762 0)
(4.99365 0.221751 0)
(5.06984 0.0989532 0)
(5.15551 0.0828485 0)
(5.21162 0.0726202 0)
(5.23316 0.0423478 0)
(5.24004 0.0114789 0)
(5.24749 -0.00549661 0)
(5.25932 -0.00959592 0)
(5.27151 -0.00790189 0)
(5.2808 -0.00512935 0)
(5.28861 -0.00374266 0)
(5.29882 -0.00502838 0)
(5.3142 -0.00984123 0)
(5.33455 -0.0181005 0)
(5.35783 -0.0279047 0)
(5.38082 -0.0366334 0)
(5.4013 -0.0427219 0)
(5.41717 -0.0448242 0)
(5.06241 0.266595 0)
(5.07473 0.105918 0)
(5.15843 0.0647582 0)
(5.24639 0.0627422 0)
(5.29251 0.057032 0)
(5.31053 0.0456945 0)
(5.32494 0.03605 0)
(5.34692 0.0299868 0)
(5.37508 0.0252691 0)
(5.40496 0.0192547 0)
(5.43376 0.0107045 0)
(5.45945 -1.32307e-07 0)
(5.48007 -0.0117444 0)
(5.4946 -0.0231186 0)
(5.50323 -0.0326167 0)
(5.50694 -0.0392004 0)
(5.50746 -0.0425521 0)
(5.50659 -0.0423526 0)
(4.89142 0.145205 0)
(5.04039 0.0143048 0)
(5.15961 0.00320143 0)
(5.221 0.00291373 0)
(5.26145 -0.00332745 0)
(5.30335 -0.0154392 0)
(5.34757 -0.0275348 0)
(5.39008 -0.0362801 0)
(5.42849 -0.0408419 0)
(5.46186 -0.0418008 0)
(5.49013 -0.0404535 0)
(5.5133 -0.0388808 0)
(5.53135 -0.0384295 0)
(5.5443 -0.0394034 0)
(5.55268 -0.0414652 0)
(5.55702 -0.0438849 0)
(5.55851 -0.0461452 0)
(5.55777 -0.0476563 0)
(5.0787 0.13969 0)
(5.16236 0.0163862 0)
(5.2464 0.0247114 0)
(5.29736 0.0237178 0)
(5.35353 0.0112319 0)
(5.41883 -0.00204936 0)
(5.4763 -0.0100507 0)
(5.51448 -0.0133723 0)
(5.53381 -0.0152657 0)
(5.54205 -0.0177167 0)
(5.54764 -0.0213205 0)
(5.55562 -0.0259798 0)
(5.56739 -0.0311121 0)
(5.58225 -0.035839 0)
(5.5989 -0.0390632 0)
(5.61544 -0.0403261 0)
(5.63086 -0.0396319 0)
(5.64372 -0.0378484 0)
(5.01335 0.0271835 0)
(5.23376 -0.02784 0)
(5.3716 -0.0178077 0)
(5.41797 -0.0448079 0)
(5.44341 -0.0646744 0)
(5.46659 -0.0725663 0)
(5.48627 -0.0703826 0)
(5.50212 -0.0621337 0)
(5.5167 -0.0537302 0)
(5.53114 -0.0490489 0)
(5.54344 -0.0485597 0)
(5.55101 -0.0510084 0)
(5.55242 -0.0549196 0)
(5.54891 -0.0593795 0)
(5.54162 -0.0634657 0)
(5.5323 -0.0664589 0)
(5.52014 -0.0676769 0)
(5.50642 -0.0669918 0)
(5.06236 0.0553036 0)
(5.16363 -0.0322553 0)
(5.1234 -0.0174748 0)
(5.00145 -0.0116859 0)
(4.86705 -0.0153765 0)
(4.72444 -0.0211195 0)
(4.5816 -0.024936 0)
(4.45026 -0.0270281 0)
(4.33356 -0.0286687 0)
(4.22748 -0.0298393 0)
(4.12692 -0.0301555 0)
(4.02861 -0.030016 0)
(3.93014 -0.0301598 0)
(3.83072 -0.0305226 0)
(3.73024 -0.0300479 0)
(3.6322 -0.0279337 0)
(3.53818 -0.0237381 0)
(3.45525 -0.0188556 0)
(-0.0188463 0.0442283 4.9026e-20)
(-0.0341087 0.00601111 -4.86866e-20)
(0.0180197 -0.0402793 0)
(0.114552 -0.0710513 0)
(0.219333 -0.0720086 0)
(0.308661 -0.048842 4.72207e-20)
(0.366267 -0.0128592 0)
(0.381323 0.025593 0)
(0.35435 0.0590599 0)
(0.290394 0.0811065 0)
(0.197609 0.0893778 -4.54592e-20)
(0.0873178 0.0859017 0)
(-0.0272796 0.0753084 0)
(-0.133573 0.0636845 0)
(-0.226911 0.0563276 0)
(-0.31267 0.0558911 -4.36896e-20)
(-0.396442 0.0604407 0)
(-0.475448 0.0623572 0)
(-0.540492 0.0587512 0)
(-0.590507 0.0530443 0)
(-0.635286 0.0516129 0)
(-0.68067 0.0582817 0)
(-0.723136 0.0692096 0)
(-0.760103 0.0729053 -4.09343e-20)
(-0.800486 0.0645665 4.0594e-20)
(-0.858506 0.0495343 -4.02519e-20)
(-0.939521 0.0384042 -3.99079e-20)
(-1.04248 0.0439249 0)
(-1.16922 0.0692066 0)
(-1.32408 0.107897 3.88584e-20)
(-1.50952 0.154337 3.85021e-20)
(-1.72426 0.200493 0)
(-1.9597 0.220114 0)
(-2.18762 0.17156 3.74326e-20)
(-2.35845 0.0475069 0)
(-2.44131 -0.0872234 0)
(-2.45657 -0.149786 -3.64407e-20)
(-2.4471 -0.124905 0)
(-2.44453 -0.072652 -3.58301e-20)
(-2.44139 -0.0535598 -7.1077e-20)
(-2.41964 -0.0733643 0)
(-2.37486 -0.0995653 0)
(-2.31047 -0.107335 0)
(-2.23136 -0.104137 0)
(-2.13626 -0.11149 0)
(-2.01439 -0.131548 -6.79606e-20)
(-1.85838 -0.150191 -6.74908e-20)
(-1.67348 -0.164774 -6.70296e-20)
(-1.46245 -0.181767 0)
(-1.22322 -0.197476 6.61174e-20)
(-0.964178 -0.207986 0)
(-0.685499 -0.215154 -6.51936e-20)
(-0.393079 -0.218075 -6.47172e-20)
(-0.0951905 -0.214645 0)
(0.210299 -0.221355 0)
(0.551159 -0.241341 0)
(0.934942 -0.237807 -6.23861e-20)
(1.30638 -0.192776 0)
(1.60316 -0.121673 0)
(1.79332 -0.0326925 0)
(1.82554 0.0879563 0)
(1.68456 0.226919 0)
(1.42586 0.280069 0)
(1.13543 0.197803 0)
(0.865812 0.0864335 0)
(0.605691 0.0641171 5.67917e-20)
(0.333776 0.131528 0)
(0.0862438 0.202673 0)
(-0.0926691 0.224563 -5.49431e-20)
(-0.188235 0.19937 -5.4323e-20)
(-0.208278 0.165578 0)
(-0.202362 0.0846626 5.32064e-20)
(-0.193909 -0.0507787 -5.26893e-20)
(-0.113232 -0.13926 0)
(0.104778 -0.143693 5.17013e-20)
(0.356326 -0.0606882 0)
(0.527836 0.0253301 0)
(0.684565 -0.0167728 -5.00492e-20)
(0.847749 -0.179168 0)
(0.97195 -0.295783 4.89304e-20)
(0.93587 -0.151635 0)
(0.623302 0.127126 -4.78899e-20)
(0.119722 0.279658 -4.73714e-20)
(-0.421188 0.317592 -4.67703e-20)
(-0.958551 0.316014 -9.22145e-20)
(-1.47037 0.299589 9.08476e-20)
(-1.94544 0.276756 0)
(-2.38186 0.252042 0)
(-2.77994 0.227402 0)
(-3.14068 0.20349 8.53317e-20)
(-3.46478 0.180366 8.40051e-20)
(-3.75244 0.157885 -8.27187e-20)
(-4.00337 0.135843 0)
(-4.21701 0.11404 8.02966e-20)
(-4.39262 0.0924036 7.91736e-20)
(-4.52969 0.0710925 7.81157e-20)
(-4.62816 0.0506299 0)
(-4.6887 0.0314673 0)
(-4.71271 0.013621 0)
(-4.70181 -0.00234064 7.45414e-20)
(-4.66257 -0.0157074 0)
(-4.59631 -0.0273667 0)
(-4.50671 -0.0371419 -7.24333e-20)
(-4.39712 -0.0452192 0)
(-4.27046 -0.051857 0)
(-4.12931 -0.0573109 -7.06099e-20)
(-3.97555 -0.0619304 0)
(-3.81038 -0.0660501 0)
(-3.63432 -0.0699726 6.89151e-20)
(-3.44732 -0.0739255 6.83654e-20)
(-3.24894 -0.078026 0)
(-3.03868 -0.0822547 -6.72797e-20)
(-2.81626 -0.0864533 0)
(-2.58195 -0.0903434 6.6198e-20)
(-2.33687 -0.0935665 0)
(-2.08304 -0.0957548 6.50906e-20)
(-1.82327 -0.0966359 6.45154e-20)
(-1.56079 -0.096096 0)
(-1.29901 -0.0941359 0)
(-1.04128 -0.0909056 0)
(-0.790668 -0.0866551 0)
(-0.549588 -0.0817192 0)
(-0.320078 -0.0761234 0)
(-0.102959 -0.0697709 0)
(0.0997813 -0.0648248 5.90994e-20)
(0.287897 -0.0588301 -5.83123e-20)
(0.462932 -0.053071 0)
(0.623848 -0.0474037 0)
(0.770946 -0.0418991 0)
(0.904578 -0.0366279 0)
(1.02533 -0.0316634 -1.08571e-19)
(1.13406 -0.0270754 0)
(1.2319 -0.022911 1.05345e-19)
(1.32011 -0.0191508 -1.03748e-19)
(1.39983 -0.0156044 0)
(1.47168 -0.0120777 0)
(1.53582 -0.00860181 0)
(1.59186 -0.0048071 9.75315e-20)
(1.63785 -0.000215436 9.60281e-20)
(1.67162 0.00461054 0)
(1.69197 0.00994991 9.30805e-20)
(1.69461 0.0164889 9.16332e-20)
(1.67815 0.0230317 -9.02014e-20)
(1.64372 0.0284685 0)
(1.59306 0.0329737 0)
(1.52794 0.0372403 -8.59932e-20)
(1.44931 0.0414342 0)
(1.35835 0.0444607 0)
(1.25844 0.0443343 0)
(1.15592 0.0400375 0)
(1.0587 0.0323897 7.9212e-20)
(0.973577 0.0232734 7.7887e-20)
(0.904282 0.0146323 0)
(0.851279 0.00766661 7.52726e-20)
(0.812651 0.00273918 0)
(0.785418 -0.000330792 0)
(0.766581 -0.001959 7.14317e-20)
(0.753699 -0.00260016 0)
(0.744963 -0.00266655 6.89156e-20)
(0.739134 -0.00247917 0)
(0.735302 -0.00219231 0)
(0.732893 -0.00188593 6.51993e-20)
(0.731327 -0.00157783 0)
(0.73033 -0.00126747 6.27577e-20)
(0.729361 -0.000924276 0)
(0.728455 -0.00057269 0)
(0.72693 -0.0001869 0)
(0.725271 0.000216192 -5.79563e-20)
(0.722273 0.00069206 0)
(0.719171 0.00117979 5.55959e-20)
(0.71362 0.00180417 0)
(0.708088 0.00241981 0)
(0.698374 0.00334285 0)
(0.688235 0.00410465 0)
(0.672608 0.00579337 0)
(0.651624 0.00640573 0)
(0.632408 0.0104503 0)
(0.578 0.00859918 -9.28994e-20)
(0.580649 0.0211751 0)
(0.421991 0.00798146 0)
(-0.0372352 0.070759 -1.47093e-19)
(0.008228 -0.0759976 1.46029e-19)
(0.169356 -0.259888 0)
(0.348469 -0.34179 -9.58003e-20)
(0.518745 -0.324412 0)
(0.66145 -0.241966 -4.71551e-20)
(0.766125 -0.124548 9.3559e-20)
(0.827543 0.00658069 9.28437e-20)
(0.844359 0.13404 0)
(0.814817 0.243317 9.14093e-20)
(0.73941 0.322438 4.5377e-20)
(0.623961 0.363699 0)
(0.479915 0.363957 0)
(0.319743 0.332932 0)
(0.157191 0.292637 0)
(0.00282291 0.263449 4.3721e-20)
(-0.128894 0.245205 0)
(-0.219998 0.207037 -8.60296e-20)
(-0.289772 0.151873 0)
(-0.358764 0.113825 0)
(-0.412025 0.104243 8.39589e-20)
(-0.435207 0.0999101 0)
(-0.453969 0.0819521 -8.2609e-20)
(-0.50556 0.0712587 4.09574e-20)
(-0.603768 0.11025 -4.06092e-20)
(-0.748898 0.200148 4.02552e-20)
(-0.937603 0.291434 3.98973e-20)
(-1.15928 0.362502 0)
(-1.39398 0.423183 0)
(-1.6235 0.479166 -3.88153e-20)
(-1.8314 0.52546 3.84178e-20)
(-2.00103 0.549332 0)
(-2.12443 0.531288 0)
(-2.21521 0.458446 -3.7418e-20)
(-2.3036 0.346583 0)
(-2.41296 0.238036 0)
(-2.53879 0.162672 3.64308e-20)
(-2.64715 0.113253 0)
(-2.69769 0.0694256 -3.57565e-20)
(-2.6947 0.02288 7.10377e-20)
(-2.66144 -0.0217004 0)
(-2.6094 -0.0616498 0)
(-2.53407 -0.101449 1.38699e-19)
(-2.42644 -0.146689 1.37689e-19)
(-2.28839 -0.202436 1.3671e-19)
(-2.13178 -0.268552 -6.78288e-20)
(-1.95789 -0.336498 6.74532e-20)
(-1.76338 -0.398823 2.00875e-19)
(-1.5513 -0.45532 -1.32964e-19)
(-1.32169 -0.504953 -6.60725e-20)
(-1.0725 -0.546891 0)
(-0.80406 -0.581986 6.51413e-20)
(-0.516975 -0.602667 -6.45665e-20)
(-0.214473 -0.599202 0)
(0.105389 -0.630859 0)
(0.479393 -0.744908 0)
(0.927197 -0.784334 6.23358e-20)
(1.36577 -0.680671 0)
(1.72782 -0.486265 -1.21763e-19)
(1.99515 -0.222429 0)
(2.16785 0.0725686 -1.1917e-19)
(2.20219 0.302542 0)
(2.07322 0.422166 1.16707e-19)
(1.83115 0.50326 0)
(1.50421 0.58194 -1.14467e-19)
(1.09108 0.613413 5.66314e-20)
(0.659245 0.543511 0)
(0.294997 0.34677 1.10963e-19)
(-0.0069819 0.120502 5.49221e-20)
(-0.195905 -0.0444884 5.43193e-20)
(-0.207243 -0.135484 0)
(-0.072109 -0.104882 5.31122e-20)
(0.0561697 -0.0526512 5.26939e-20)
(0.204216 -0.18994 0)
(0.489597 -0.391976 -5.16407e-20)
(0.837229 -0.420966 1.02176e-19)
(1.15402 -0.342765 0)
(1.37857 -0.336965 5.00054e-20)
(1.20915 -0.190316 0)
(0.573887 0.230285 -1.46982e-19)
(-0.128956 0.59128 0)
(-0.759441 0.784893 1.43531e-19)
(-1.30914 0.849631 4.72589e-20)
(-1.7911 0.837105 -4.64814e-20)
(-2.21896 0.78806 -9.16279e-20)
(-2.60057 0.724818 9.02873e-20)
(-2.94375 0.658358 0)
(-3.2539 0.593988 0)
(-3.53466 0.533227 0)
(-3.78829 0.475791 -2.55378e-19)
(-4.0156 0.420625 -8.39047e-20)
(-4.21672 0.366568 8.26357e-20)
(-4.39104 0.312771 0)
(-4.53755 0.258803 8.00385e-20)
(-4.65514 0.204642 -7.91319e-20)
(-4.743 0.150685 -7.80846e-20)
(-4.80065 0.0978048 0)
(-4.82813 0.0470903 0)
(-4.82622 -0.000614402 0)
(-4.7969 -0.0442823 -7.45314e-20)
(-4.73835 -0.0828819 0)
(-4.65499 -0.116514 1.46074e-19)
(-4.54951 -0.144985 2.17187e-19)
(-4.42506 -0.168615 -1.43518e-19)
(-4.28466 -0.188021 0)
(-4.13076 -0.204031 -7.05484e-20)
(-3.96515 -0.217637 0)
(-3.78892 -0.229828 -1.38876e-19)
(-3.60244 -0.241493 6.88595e-20)
(-3.40549 -0.253303 6.83091e-20)
(-3.19746 -0.265602 0)
(-2.97771 -0.278324 2.01761e-19)
(-2.74582 -0.290979 -1.33414e-19)
(-2.502 -0.302709 -6.61875e-20)
(-2.24736 -0.31242 0)
(-1.98404 -0.318992 -6.50805e-20)
(-1.71504 -0.321591 -1.93493e-19)
(-1.44374 -0.319906 0)
(-1.17366 -0.31394 -1.26575e-19)
(-0.908217 -0.304154 -1.25296e-19)
(-0.650438 -0.291217 -1.23968e-19)
(-0.402447 -0.276255 0)
(-0.16616 -0.259346 0)
(0.0568855 -0.242367 0)
(0.265946 -0.226039 5.90722e-20)
(0.461251 -0.208594 5.82908e-20)
(0.643132 -0.191507 0)
(0.811258 -0.17478 1.13383e-19)
(0.965824 -0.158616 1.1177e-19)
(1.1072 -0.143254 0)
(1.236 -0.128964 1.08536e-19)
(1.35315 -0.116022 2.13829e-19)
(1.45991 -0.104636 -1.05313e-19)
(1.55774 -0.0948143 -1.03698e-19)
(1.64807 -0.0862743 0)
(1.73228 -0.0784855 0)
(1.81146 -0.0707092 0)
(1.8856 -0.0619605 -9.74999e-20)
(1.95464 -0.0514454 9.59777e-20)
(2.01809 -0.039089 1.89006e-19)
(2.07256 -0.0247924 -9.30455e-20)
(2.11737 -0.00860391 9.15831e-20)
(2.15095 0.00820453 9.01619e-20)
(2.1705 0.0238201 0)
(2.17507 0.0375187 0)
(2.16569 0.0494472 -8.59272e-20)
(2.14502 0.0598437 0)
(2.11617 0.0685075 0)
(2.08182 0.0745169 1.63644e-19)
(2.04402 0.0763523 0)
(2.00444 0.0728803 7.91347e-20)
(1.96473 0.0646823 -7.78117e-20)
(1.92671 0.0538417 0)
(1.89183 0.0426345 7.52011e-20)
(1.86079 0.0326306 0)
(1.83352 0.024483 0)
(1.80953 0.0181586 -7.13644e-20)
(1.78829 0.0133241 1.40211e-19)
(1.76947 0.00961788 -6.88533e-20)
(1.75299 0.00675518 0)
(1.73885 0.00458446 0)
(1.72703 0.00301609 6.51444e-20)
(1.71725 0.00196896 0)
(1.70933 0.00132971 6.27066e-20)
(1.70274 0.00101092 0)
(1.69734 0.00090524 0)
(1.69248 0.00100878 0)
(1.68842 0.001208 5.79114e-20)
(1.68426 0.00165158 0)
(1.68076 0.00209996 -5.55536e-20)
(1.67649 0.00307141 0)
(1.67265 0.00382551 0)
(1.66731 0.00586774 1.04134e-19)
(1.66114 0.0068729 -1.01838e-19)
(1.65384 0.0112066 0)
(1.64016 0.011819 0)
(1.63259 0.0213272 0)
(1.59668 0.0189162 2.78468e-19)
(1.60194 0.0405941 0)
(1.50392 0.0296796 -1.76891e-19)
(-0.0312053 0.0996999 -9.55579e-24)
(0.190261 -0.431365 -1.94521e-19)
(0.433593 -0.748226 0)
(0.646305 -0.818777 1.9127e-19)
(0.817481 -0.729898 0)
(0.947474 -0.558226 0)
(1.04141 -0.348749 -9.03237e-23)
(1.10303 -0.127588 -9.27544e-20)
(1.13322 0.0882093 -9.19445e-20)
(1.12919 0.286049 -9.13124e-20)
(1.08817 0.454069 0)
(1.0093 0.577244 0)
(0.89184 0.648574 8.92018e-20)
(0.742088 0.668686 1.77135e-19)
(0.577788 0.643706 -1.75883e-19)
(0.413558 0.587448 0)
(0.269844 0.485777 -1.73368e-19)
(0.148727 0.367468 8.60347e-20)
(0.0369382 0.307634 0)
(-0.0622595 0.281557 -1.69454e-19)
(-0.138653 0.208858 -8.402e-20)
(-0.210285 0.13095 1.66685e-19)
(-0.333688 0.181075 8.26166e-20)
(-0.527529 0.339455 0)
(-0.782874 0.494638 -1.6226e-19)
(-1.0558 0.631319 -1.60744e-19)
(-1.33 0.741011 0)
(-1.60983 0.811331 -1.57723e-19)
(-1.88505 0.846471 0)
(-2.14378 0.842503 -1.5474e-19)
(-2.37456 0.794962 -7.6735e-20)
(-2.56974 0.71038 0)
(-2.72995 0.606091 0)
(-2.86619 0.503034 0)
(-2.99028 0.415096 0)
(-3.09974 0.336532 0)
(-3.18034 0.244803 0)
(-3.22216 0.130191 -1.43898e-19)
(-3.22439 0.0105776 2.14205e-19)
(-3.19156 -0.0975942 0)
(-3.12884 -0.196513 0)
(-3.03806 -0.291318 0)
(-2.92049 -0.381082 -2.01114e-22)
(-2.77795 -0.464798 -1.37535e-19)
(-2.61652 -0.543592 -2.7293e-19)
(-2.44122 -0.618211 2.71025e-19)
(-2.25334 -0.688526 1.34486e-19)
(-2.05199 -0.755309 -1.33738e-19)
(-1.83605 -0.819707 1.75255e-22)
(-1.60346 -0.881882 -1.31719e-19)
(-1.35195 -0.941132 0)
(-1.07885 -0.994385 -1.29853e-19)
(-0.7776 -1.03461 1.75551e-22)
(-0.445964 -1.06182 0)
(-0.0559848 -1.15149 0)
(0.366866 -1.39288 1.25587e-19)
(0.834513 -1.46177 0)
(1.27456 -1.25787 0)
(1.62778 -0.949768 -1.21128e-19)
(1.93117 -0.598473 -2.40241e-19)
(2.20057 -0.1809 1.19132e-19)
(2.41753 0.310158 0)
(2.48527 0.741466 -1.16593e-19)
(2.33444 0.949416 0)
(2.03558 0.983182 -1.1392e-19)
(1.69845 1.0178 -1.13123e-19)
(1.37874 1.03405 2.23568e-19)
(1.05667 0.951522 1.10449e-19)
(0.66738 0.775276 0)
(0.282779 0.437811 -2.16545e-19)
(0.0128652 -0.000215144 0)
(-0.0485399 -0.26474 -3.1865e-19)
(0.101285 -0.391114 -2.10321e-19)
(0.412294 -0.658695 -2.08277e-19)
(0.786716 -0.940712 2.06214e-19)
(1.10571 -0.932092 -3.06168e-19)
(1.27365 -0.635773 0)
(0.968254 -0.0182003 0)
(0.227576 0.686762 1.98031e-19)
(-0.493668 1.10367 2.93643e-19)
(-1.05363 1.27322 0)
(-1.49495 1.32741 -9.54861e-20)
(-1.8493 1.30179 0)
(-2.1506 1.22977 2.7857e-19)
(-2.42075 1.13771 4.50012e-22)
(-2.67489 1.04105 -4.39688e-22)
(-2.92073 0.947906 -1.77716e-19)
(-3.16094 0.860857 0)
(-3.39429 0.779362 1.72423e-19)
(-3.61811 0.701489 3.41826e-22)
(-3.82855 0.625028 0)
(-4.02165 0.548074 0)
(-4.19323 0.469483 0)
(-4.33953 0.388914 -1.60297e-19)
(-4.45738 0.306738 0)
(-4.54441 0.223868 0)
(-4.599 0.141553 0)
(-4.62066 0.0615131 0)
(-4.61014 -0.0142816 0)
(-4.56891 -0.0844503 -1.48781e-19)
(-4.49954 -0.147627 0)
(-4.40523 -0.20248 -1.46104e-19)
(-4.28958 -0.24881 -1.44793e-19)
(-4.15615 -0.286997 1.43543e-19)
(-4.00815 -0.318054 0)
(-3.84817 -0.343463 1.41169e-19)
(-3.678 -0.364921 0)
(-3.49857 -0.384146 1.38895e-19)
(-3.31004 -0.40266 -1.37781e-19)
(-3.11189 -0.421622 -4.09891e-19)
(-2.90318 -0.441631 0)
(-2.68287 -0.462574 -4.0336e-19)
(-2.45026 -0.48357 -1.33278e-19)
(-2.20541 -0.503074 0)
(-1.94943 -0.519137 -2.62376e-19)
(-1.68478 -0.529769 -2.60168e-19)
(-1.41502 -0.533499 3.86889e-19)
(-1.144 -0.529859 0)
(-0.875724 -0.518893 1.26579e-19)
(-0.613772 -0.501578 1.25301e-19)
(-0.361426 -0.478947 3.71882e-19)
(-0.1204 -0.453207 0)
(0.107061 -0.425902 0)
(0.319971 -0.397843 0)
(0.519007 -0.369287 1.18063e-19)
(0.703675 -0.340459 0)
(0.874379 -0.312022 0)
(1.0312 -0.284183 -1.13332e-19)
(1.17441 -0.25722 -1.11724e-19)
(1.30446 -0.23151 0)
(1.42205 -0.207517 0)
(1.52819 -0.185742 -2.13761e-19)
(1.62421 -0.16659 0)
(1.71165 -0.150172 2.07358e-19)
(1.79203 -0.136194 2.04163e-19)
(1.8665 -0.124115 0)
(1.93529 -0.113119 0)
(1.99786 -0.102061 -1.94909e-19)
(2.05361 -0.0896788 -3.04538e-23)
(2.10316 -0.0745074 -2.67888e-23)
(2.1482 -0.0558485 0)
(2.18959 -0.0342607 -3.66299e-19)
(2.22677 -0.0108049 0)
(2.25754 0.012949 0)
(2.27878 0.0353431 0)
(2.28839 0.054668 1.71842e-19)
(2.28663 0.0700041 0)
(2.2764 0.0808819 -3.32637e-19)
(2.26166 0.0868919 -1.63609e-19)
(2.24524 0.0873033 0)
(2.22832 0.0818109 -1.58232e-19)
(2.21125 0.0717062 0)
(2.19427 0.0593293 0)
(2.17784 0.0470407 -4.51068e-19)
(2.16258 0.0364875 2.95559e-19)
(2.14892 0.0283541 0)
(2.13686 0.022504 2.8537e-19)
(2.1261 0.0183419 -1.40164e-19)
(2.11616 0.0151966 0)
(2.10658 0.0125739 0)
(2.09702 0.0102198 0)
(2.08733 0.00808819 -3.90733e-19)
(2.07759 0.00624982 0)
(2.06808 0.00477169 -1.25371e-19)
(2.05906 0.00370162 0)
(2.05084 0.00299464 0)
(2.04359 0.00267608 0)
(2.03736 0.0025621 0)
(2.03219 0.00282648 0)
(2.02785 0.00310809 0)
(2.02448 0.00407626 -2.17468e-19)
(2.02127 0.00476045 0)
(2.01916 0.00707741 -1.04103e-19)
(2.01561 0.00820124 3.05415e-19)
(2.01444 0.0133098 0)
(2.00777 0.0144751 0)
(2.00859 0.0253843 -1.90013e-19)
(1.99292 0.0248298 -1.85578e-19)
(2.00046 0.0476971 1.81133e-19)
(1.96361 0.0424968 1.76826e-19)
(0.111395 -0.242917 2.94018e-19)
(0.424198 -1.03211 2.91332e-19)
(0.658396 -1.27088 1.92496e-19)
(0.8126 -1.20483 9.53813e-20)
(0.918731 -1.00044 0)
(0.993185 -0.745837 -1.87923e-19)
(1.04885 -0.473723 9.31401e-20)
(1.087 -0.19856 0)
(1.10548 0.0695469 9.19541e-20)
(1.10235 0.31847 0)
(1.07505 0.538103 -1.8082e-19)
(1.02405 0.723877 0)
(0.947377 0.857568 -8.91542e-20)
(0.842433 0.917986 -1.77014e-19)
(0.711788 0.908357 1.75743e-19)
(0.569981 0.846921 0)
(0.421322 0.754511 1.73234e-19)
(0.258638 0.656294 0)
(0.113993 0.554542 0)
(-0.00655492 0.448344 1.69408e-19)
(-0.141268 0.376601 0)
(-0.376986 0.465842 5.76385e-24)
(-0.688262 0.671868 0)
(-1.00299 0.871147 0)
(-1.32574 1.03682 1.07419e-22)
(-1.63681 1.17059 1.60386e-19)
(-1.93091 1.26667 1.5868e-19)
(-2.20938 1.32054 1.57379e-19)
(-2.46465 1.33061 0)
(-2.69323 1.29368 3.08578e-19)
(-2.89363 1.21353 0)
(-3.06653 1.10166 1.51238e-19)
(-3.21211 0.969231 0)
(-3.32873 0.821428 0)
(-3.41221 0.661155 -1.47145e-19)
(-3.45843 0.494149 0)
(-3.46951 0.327321 1.44641e-19)
(-3.45387 0.165139 3.61559e-22)
(-3.41636 0.00944595 -2.8497e-19)
(-3.35379 -0.13805 2.82317e-19)
(-3.26557 -0.274599 0)
(-3.15517 -0.399394 0)
(-3.02419 -0.513307 1.37674e-19)
(-2.87438 -0.620214 0)
(-2.70709 -0.723928 1.36292e-19)
(-2.52347 -0.825698 -1.35341e-19)
(-2.32432 -0.924849 -1.34406e-19)
(-2.11012 -1.02113 0)
(-1.88111 -1.11463 1.32561e-19)
(-1.63798 -1.20635 1.3164e-19)
(-1.38053 -1.29891 -2.60922e-19)
(-1.10476 -1.39528 1.29768e-19)
(-0.805851 -1.49808 1.28807e-19)
(-0.481141 -1.61329 0)
(-0.073531 -1.75831 0)
(0.317413 -2.03248 -1.25498e-19)
(0.666542 -2.09149 0)
(1.03676 -1.77885 0)
(1.3031 -1.39091 2.42844e-19)
(1.58322 -0.980098 2.4027e-19)
(1.87075 -0.54815 0)
(2.16367 -0.0549294 0)
(2.45086 0.506805 0)
(2.63355 1.00329 0)
(2.62096 1.30939 2.27861e-19)
(2.41478 1.43424 -2.25133e-19)
(2.11866 1.41296 -2.23123e-19)
(1.79914 1.29616 -4.41233e-19)
(1.4714 1.08974 0)
(1.19293 0.741154 1.98435e-22)
(0.972452 0.272387 0)
(0.778542 -0.220118 2.12038e-19)
(0.721499 -0.599178 4.6251e-23)
(0.879087 -0.994643 2.08024e-19)
(1.02206 -1.28067 -2.06067e-19)
(0.998335 -0.980829 -2.07767e-22)
(0.653093 -0.0892664 0)
(0.0339027 0.829696 -2.00219e-19)
(-0.590042 1.42121 -1.97768e-19)
(-1.04907 1.65107 -3.90559e-19)
(-1.38908 1.69882 0)
(-1.65588 1.66288 1.90144e-19)
(-1.8809 1.58074 0)
(-2.09294 1.48176 -3.70577e-19)
(-2.30773 1.38069 1.82939e-19)
(-2.53183 1.28351 -1.80329e-19)
(-2.76372 1.19082 1.77693e-19)
(-2.99878 1.10094 3.49239e-19)
(-3.23082 1.01157 -1.72406e-19)
(-3.4541 0.9204 1.69794e-19)
(-3.66306 0.825635 0)
(-3.85275 0.726139 -3.28678e-19)
(-4.01866 0.621475 0)
(-4.15692 0.511947 -3.19274e-19)