/*--------------------------------*- C++ -*----------------------------------*\
  =========                 |
  \\      /  F ield         | OpenFOAM: The Open Source CFD Toolbox
   \\    /   O peration     | Website:  https://openfoam.org
    \\  /    A nd           | Version:  7
     \\/     M anipulation  |
\*---------------------------------------------------------------------------*/
FoamFile
{
    version     2.0;
    format      ascii;
    class       volVectorField;
    location    "0.093";
    object      UMean;
}
// * * * * * * * * * * * * * * * * * * * * * * * * * * * * * * * * * * * * * //

dimensions      [0 1 -1 0 0 0 0];

internalField   nonuniform List<vector> 
12225
(
(4.77096 0.164395 0)
(4.17252 0.111597 0)
(3.70803 0.0984511 0)
(3.33497 0.0820725 0)
(2.99758 0.0690358 0)
(2.68151 0.0594664 0)
(2.38792 0.051278 0)
(2.12125 0.0435005 0)
(1.88496 0.0354196 0)
(1.68001 0.0279251 0)
(1.50728 0.0200225 0)
(1.36424 0.0142841 0)
(1.25019 0.00700335 0)
(1.15969 0.00556397 0)
(1.08814 -0.00262669 0)
(1.03579 0.00398219 0)
(0.986665 -0.0123463 0)
(0.961853 -0.00165438 0)
(5.02154 0.11358 0)
(4.87332 0.0743484 0)
(4.75464 0.0908683 0)
(4.66397 0.0908599 0)
(4.56882 0.08983 0)
(4.461 0.0907335 0)
(4.34252 0.0914729 0)
(4.21907 0.0902391 0)
(4.09331 0.0872561 0)
(3.97035 0.0818492 0)
(3.84919 0.0757685 0)
(3.73671 0.0674205 0)
(3.62634 0.0608958 0)
(3.53009 0.0515105 0)
(3.43008 0.0481062 0)
(3.35071 0.0376406 0)
(3.25607 0.0384775 0)
(3.1866 0.0178352 0)
(4.99446 0.172383 0)
(4.87315 0.12291 0)
(4.79398 0.131613 0)
(4.76323 0.126743 0)
(4.74732 0.120349 0)
(4.73068 0.117771 0)
(4.71106 0.116606 0)
(4.68927 0.11489 0)
(4.66539 0.111159 0)
(4.63897 0.106262 0)
(4.60973 0.0991457 0)
(4.57761 0.0924486 0)
(4.54361 0.0837872 0)
(4.50737 0.0782624 0)
(4.47142 0.0702696 0)
(4.43276 0.067402 0)
(4.39754 0.0602804 0)
(4.35373 0.0525802 0)
(4.99121 0.189977 0)
(4.89238 0.121504 0)
(4.81432 0.120735 0)
(4.77927 0.117258 0)
(4.76537 0.110889 0)
(4.75676 0.107559 0)
(4.75034 0.106737 0)
(4.74667 0.105768 0)
(4.74563 0.103588 0)
(4.74579 0.0997243 0)
(4.74604 0.0950293 0)
(4.74492 0.0891957 0)
(4.74286 0.0838907 0)
(4.73854 0.0780485 0)
(4.73456 0.0741343 0)
(4.72786 0.0694859 0)
(4.72419 0.0662747 0)
(4.71495 0.0612378 0)
(4.99663 0.214445 0)
(4.92123 0.144827 0)
(4.85091 0.136711 0)
(4.81351 0.133008 0)
(4.79723 0.124898 0)
(4.78747 0.118382 0)
(4.78015 0.114636 0)
(4.7757 0.111779 0)
(4.7746 0.108111 0)
(4.77583 0.103477 0)
(4.77843 0.0978929 0)
(4.78106 0.0920746 0)
(4.78377 0.0861016 0)
(4.78578 0.0806755 0)
(4.78825 0.0758447 0)
(4.7902 0.0713705 0)
(4.79354 0.0676193 0)
(4.79546 0.0621323 0)
(4.98986 0.230685 0)
(4.93436 0.160174 0)
(4.87461 0.143271 0)
(4.83869 0.137514 0)
(4.82248 0.128365 0)
(4.81368 0.119803 0)
(4.80717 0.114105 0)
(4.80279 0.109965 0)
(4.80121 0.105744 0)
(4.8019 0.100729 0)
(4.80404 0.0951177 0)
(4.80659 0.0891682 0)
(4.80941 0.0833672 0)
(4.81197 0.0778613 0)
(4.81502 0.0729139 0)
(4.8179 0.0683832 0)
(4.82181 0.0639616 0)
(4.82491 0.0593217 0)
(4.99918 0.244617 0)
(4.9575 0.176327 0)
(4.90682 0.152526 0)
(4.87242 0.143923 0)
(4.85554 0.134179 0)
(4.84684 0.124412 0)
(4.84065 0.117008 0)
(4.83617 0.111522 0)
(4.83407 0.106436 0)
(4.83417 0.100918 0)
(4.83585 0.0949522 0)
(4.83812 0.0888136 0)
(4.84078 0.0828349 0)
(4.84329 0.0771541 0)
(4.8463 0.0719651 0)
(4.84904 0.0670837 0)
(4.8528 0.0624623 0)
(4.85553 0.0578878 0)
(5.00118 0.25519 0)
(4.9714 0.191301 0)
(4.93044 0.162601 0)
(4.89927 0.150347 0)
(4.88264 0.139693 0)
(4.87452 0.128933 0)
(4.8694 0.119946 0)
(4.86575 0.112911 0)
(4.86397 0.10674 0)
(4.8641 0.100546 0)
(4.86575 0.0941465 0)
(4.86804 0.0877277 0)
(4.8708 0.0815215 0)
(4.87348 0.0756729 0)
(4.87666 0.0702068 0)
(4.87953 0.0651159 0)
(4.88336 0.0602602 0)
(4.88615 0.0556855 0)
(5.00359 0.26163 0)
(4.98236 0.20304 0)
(4.94984 0.171278 0)
(4.9224 0.155406 0)
(4.90639 0.143495 0)
(4.8986 0.131947 0)
(4.8943 0.121755 0)
(4.89148 0.11345 0)
(4.89018 0.106356 0)
(4.89047 0.0996298 0)
(4.89217 0.0929156 0)
(4.89456 0.0862613 0)
(4.89747 0.0798422 0)
(4.90035 0.0737909 0)
(4.9037 0.0681163 0)
(4.90676 0.06284 0)
(4.91064 0.0578265 0)
(4.9137 0.0532147 0)
(4.99739 0.269205 0)
(4.98329 0.215025 0)
(4.95827 0.1812 0)
(4.93517 0.161955 0)
(4.92075 0.148381 0)
(4.91375 0.136006 0)
(4.91041 0.124749 0)
(4.90858 0.115147 0)
(4.90799 0.106917 0)
(4.90875 0.0994128 0)
(4.91078 0.0922101 0)
(4.91352 0.0852458 0)
(4.91677 0.0785743 0)
(4.92004 0.0722983 0)
(4.92369 0.0663811 0)
(4.9271 0.0608842 0)
(4.9312 0.0556469 0)
(4.93466 0.0508735 0)
(4.99501 0.271506 0)
(4.98544 0.222693 0)
(4.96587 0.18835 0)
(4.94628 0.166454 0)
(4.93316 0.15095 0)
(4.92658 0.137606 0)
(4.9238 0.125521 0)
(4.92267 0.114951 0)
(4.92259 0.105821 0)
(4.92353 0.0976514 0)
(4.92558 0.0900041 0)
(4.92833 0.082727 0)
(4.93168 0.0757948 0)
(4.93511 0.0692899 0)
(4.93898 0.0631514 0)
(4.94262 0.0574543 0)
(4.94697 0.0520131 0)
(4.9507 0.0470399 0)
(5.00365 0.274704 0)
(4.99612 0.230014 0)
(4.98062 0.195863 0)
(4.96435 0.172231 0)
(4.9526 0.155055 0)
(4.94617 0.140709 0)
(4.94332 0.127837 0)
(4.94228 0.116414 0)
(4.94232 0.106421 0)
(4.94326 0.0975519 0)
(4.94517 0.0894082 0)
(4.94774 0.0817765 0)
(4.95091 0.0745491 0)
(4.95421 0.0677739 0)
(4.95796 0.0613608 0)
(4.96152 0.0554016 0)
(4.96579 0.0496774 0)
(4.96947 0.0444191 0)
(4.99997 0.27815 0)
(4.99534 0.23507 0)
(4.98379 0.201111 0)
(4.97101 0.176125 0)
(4.96157 0.157325 0)
(4.95647 0.141826 0)
(4.95457 0.128139 0)
(4.95436 0.115967 0)
(4.95508 0.105243 0)
(4.95648 0.0957507 0)
(4.95865 0.0871315 0)
(4.96137 0.0791479 0)
(4.96467 0.0716377 0)
(4.96808 0.0646073 0)
(4.97196 0.057952 0)
(4.9756 0.0517548 0)
(4.97996 0.045791 0)
(4.98363 0.0402681 0)
(5.00461 0.280634 0)
(5.00296 0.240556 0)
(4.99499 0.207434 0)
(4.98535 0.181469 0)
(4.978 0.16111 0)
(4.97403 0.14434 0)
(4.97275 0.129775 0)
(4.97307 0.11687 0)
(4.97434 0.105449 0)
(4.97623 0.0953165 0)
(4.97878 0.0861746 0)
(4.98179 0.0777783 0)
(4.98533 0.06992 0)
(4.98896 0.0625686 0)
(4.99304 0.0555992 0)
(4.99684 0.0490919 0)
(5.0013 0.0428134 0)
(5.00503 0.0369839 0)
(5.00261 0.279601 0)
(5.0032 0.242943 0)
(4.9985 0.210674 0)
(4.99228 0.184006 0)
(4.98769 0.162356 0)
(4.98561 0.144354 0)
(4.98562 0.128808 0)
(4.98691 0.115079 0)
(4.989 0.102869 0)
(4.99159 0.0919857 0)
(4.99471 0.0821838 0)
(4.99816 0.0732561 0)
(5.00206 0.064987 0)
(5.00601 0.0573061 0)
(5.01034 0.0500554 0)
(5.01438 0.0432831 0)
(5.01901 0.0367494 0)
(5.0229 0.0306459 0)
(5.00896 0.281948 0)
(5.01059 0.247109 0)
(5.00836 0.215274 0)
(5.00519 0.1879 0)
(5.00338 0.164979 0)
(5.00338 0.145685 0)
(5.00484 0.129094 0)
(5.00725 0.114561 0)
(5.01028 0.101695 0)
(5.01368 0.0902333 0)
(5.01741 0.0799103 0)
(5.02131 0.0705167 0)
(5.02548 0.0618304 0)
(5.02962 0.0537735 0)
(5.03401 0.046176 0)
(5.03811 0.0390916 0)
(5.04261 0.0322686 0)
(5.04644 0.0259226 0)
(4.99983 0.28013 0)
(5.00209 0.245451 0)
(5.00192 0.213829 0)
(5.0018 0.186121 0)
(5.00312 0.162348 0)
(5.00578 0.142002 0)
(5.00929 0.124407 0)
(5.01333 0.109003 0)
(5.01773 0.0953819 0)
(5.02235 0.0832543 0)
(5.02715 0.0723499 0)
(5.03197 0.0624637 0)
(5.03687 0.053376 0)
(5.04159 0.0449842 0)
(5.04635 0.0371093 0)
(5.05075 0.029767 0)
(5.05533 0.02273 0)
(5.05928 0.0161521 0)
(5.0009 0.283844 0)
(5.00474 0.246472 0)
(5.00695 0.21341 0)
(5.00956 0.184619 0)
(5.01374 0.159718 0)
(5.01906 0.138266 0)
(5.0248 0.119762 0)
(5.03056 0.103711 0)
(5.03627 0.0896712 0)
(5.04187 0.0772982 0)
(5.04742 0.066287 0)
(5.05279 0.05642 0)
(5.05808 0.0474529 0)
(5.06304 0.0392639 0)
(5.06796 0.0316287 0)
(5.07238 0.024551 0)
(5.07693 0.0177684 0)
(5.08066 0.0114621 0)
(5.00025 0.279714 0)
(5.00778 0.240528 0)
(5.01425 0.205217 0)
(5.02097 0.174488 0)
(5.02899 0.148287 0)
(5.03786 0.126007 0)
(5.04678 0.106859 0)
(5.0553 0.0901508 0)
(5.06338 0.075392 0)
(5.07099 0.0622743 0)
(5.0782 0.05056 0)
(5.08492 0.0400717 0)
(5.09123 0.0306034 0)
(5.09696 0.0220247 0)
(5.1024 0.0141343 0)
(5.10719 0.00688657 0)
(5.11195 6.15465e-05 0)
(5.11587 -0.00624919 0)
(5.00283 0.274618 0)
(5.01214 0.231591 0)
(5.02237 0.193185 0)
(5.03411 0.160576 0)
(5.04706 0.133642 0)
(5.05994 0.111413 0)
(5.07177 0.0928115 0)
(5.08232 0.0770482 0)
(5.09187 0.0635789 0)
(5.10066 0.0519997 0)
(5.1089 0.0419257 0)
(5.11655 0.0330345 0)
(5.12371 0.0250167 0)
(5.1302 0.0177116 0)
(5.13628 0.0109273 0)
(5.14161 0.00466423 0)
(5.14674 -0.00127105 0)
(5.15094 -0.00674492 0)
(5.00117 0.271922 0)
(5.01187 0.221341 0)
(5.0263 0.178281 0)
(5.04369 0.143447 0)
(5.06215 0.115646 0)
(5.07961 0.0929472 0)
(5.09508 0.073761 0)
(5.10861 0.0572123 0)
(5.12064 0.0429073 0)
(5.13143 0.0306064 0)
(5.14117 0.0200237 0)
(5.14981 0.010852 0)
(5.15755 0.00278354 0)
(5.16436 -0.00439098 0)
(5.17058 -0.0108779 0)
(5.17599 -0.0167578 0)
(5.18114 -0.0222 0)
(5.18539 -0.027176 0)
(5.0038 0.266733 0)
(5.01954 0.206041 0)
(5.0408 0.158974 0)
(5.06447 0.124669 0)
(5.08707 0.0996135 0)
(5.1066 0.0802668 0)
(5.12309 0.064379 0)
(5.13755 0.0509369 0)
(5.15081 0.0394858 0)
(5.16306 0.0296775 0)
(5.17423 0.0211366 0)
(5.18414 0.0135629 0)
(5.19295 0.00671015 0)
(5.20063 0.000470291 0)
(5.20756 -0.00528862 0)
(5.21356 -0.0105665 0)
(5.21918 -0.0155331 0)
(5.22382 -0.020099 0)
(4.99844 0.260902 0)
(5.02316 0.188296 0)
(5.05554 0.135827 0)
(5.08874 0.0998046 0)
(5.11782 0.0735173 0)
(5.14132 0.0522281 0)
(5.1604 0.0342406 0)
(5.17675 0.0194338 0)
(5.19135 0.007662 0)
(5.20437 -0.00167667 0)
(5.21586 -0.00935349 0)
(5.22584 -0.0159493 0)
(5.2346 -0.0217987 0)
(5.24223 -0.0270496 0)
(5.24913 -0.0318191 0)
(5.25508 -0.0361629 0)
(5.26059 -0.0401932 0)
(5.26503 -0.0439073 0)
(5.00716 0.24551 0)
(5.04086 0.165068 0)
(5.08424 0.11613 0)
(5.12454 0.0888801 0)
(5.15633 0.0705061 0)
(5.18072 0.0543015 0)
(5.20113 0.0395918 0)
(5.21972 0.0271552 0)
(5.23681 0.0170814 0)
(5.25188 0.00880573 0)
(5.26477 0.00170163 0)
(5.27567 -0.00458679 0)
(5.2851 -0.0102239 0)
(5.29329 -0.015265 0)
(5.30062 -0.0198244 0)
(5.30693 -0.0239475 0)
(5.31273 -0.0277858 0)
(5.31747 -0.031299 0)
(5.00327 0.229057 0)
(5.0542 0.127735 0)
(5.11632 0.0735376 0)
(5.1669 0.0457044 0)
(5.20168 0.0258718 0)
(5.2265 0.00848811 0)
(5.24744 -0.00534572 0)
(5.26668 -0.0150983 0)
(5.28406 -0.0219861 0)
(5.2991 -0.0274851 0)
(5.3119 -0.0323754 0)
(5.32282 -0.0368334 0)
(5.33239 -0.0408499 0)
(5.34075 -0.0444421 0)
(5.34824 -0.0476918 0)
(5.35465 -0.0506733 0)
(5.36051 -0.05347 0)
(5.36526 -0.0561018 0)
(5.01437 0.212788 0)
(5.08727 0.11326 0)
(5.16757 0.0781469 0)
(5.22509 0.0622963 0)
(5.26113 0.0444974 0)
(5.28758 0.0265343 0)
(5.31154 0.0123663 0)
(5.33368 0.0024543 0)
(5.35283 -0.00480816 0)
(5.36859 -0.0108176 0)
(5.3816 -0.0161383 0)
(5.39258 -0.0208683 0)
(5.40215 -0.0250428 0)
(5.41047 -0.0287396 0)
(5.41785 -0.0320842 0)
(5.42416 -0.0351463 0)
(5.42991 -0.038021 0)
(5.43466 -0.0406899 0)
(5.00891 0.160414 0)
(5.12159 0.0352668 0)
(5.22112 0.00730199 0)
(5.27926 -0.00207292 0)
(5.3124 -0.0161242 0)
(5.33879 -0.0283928 0)
(5.36398 -0.0359016 0)
(5.38706 -0.0404516 0)
(5.40664 -0.0440378 0)
(5.42272 -0.0473634 0)
(5.43616 -0.050417 0)
(5.44769 -0.0531346 0)
(5.45785 -0.0555419 0)
(5.46673 -0.0577276 0)
(5.47466 -0.0597526 0)
(5.48148 -0.0616756 0)
(5.48773 -0.0635217 0)
(5.49291 -0.0653138 0)
(5.01717 0.1526 0)
(5.17809 0.0582655 0)
(5.3021 0.0446502 0)
(5.3635 0.0284481 0)
(5.39735 0.0093073 0)
(5.42648 -0.00436399 0)
(5.45397 -0.0123945 0)
(5.47794 -0.0178687 0)
(5.49759 -0.0225477 0)
(5.51354 -0.0268015 0)
(5.52671 -0.0305621 0)
(5.53782 -0.033873 0)
(5.54724 -0.0367999 0)
(5.55513 -0.0394816 0)
(5.56169 -0.0419355 0)
(5.56696 -0.0442756 0)
(5.5712 -0.0464711 0)
(5.57433 -0.0486308 0)
(5.01986 0.0201349 0)
(5.23024 -0.0515771 0)
(5.35684 -0.0342659 0)
(5.41161 -0.0428579 0)
(5.4424 -0.0530217 0)
(5.46664 -0.0575861 0)
(5.48523 -0.0592879 0)
(5.49676 -0.0605207 0)
(5.50124 -0.0618194 0)
(5.4999 -0.0630699 0)
(5.49389 -0.0641447 0)
(5.48437 -0.0650666 0)
(5.47177 -0.0658476 0)
(5.45691 -0.0665683 0)
(5.43965 -0.0671979 0)
(5.42105 -0.0678305 0)
(5.4003 -0.0684082 0)
(5.37928 -0.0690741 0)
(4.96717 0.0701504 0)
(5.10197 -0.000825774 0)
(5.07397 -0.000628175 0)
(4.96043 -0.0110242 0)
(4.83304 -0.0187662 0)
(4.70859 -0.0218183 0)
(4.58768 -0.0230014 0)
(4.46873 -0.0237726 0)
(4.3513 -0.0243492 0)
(4.23604 -0.0247017 0)
(4.12366 -0.024853 0)
(4.01485 -0.0248662 0)
(3.9096 -0.0247855 0)
(3.80832 -0.0246546 0)
(3.71033 -0.0244785 0)
(3.61652 -0.0243052 0)
(3.5252 -0.024116 0)
(3.43876 -0.0240089 0)
(-0.0336304 0.0827369 8.46762e-22)
(-0.0913217 0.0509663 -8.39264e-22)
(-0.113976 0.0133222 0)
(-0.104271 -0.0219702 0)
(-0.0642968 -0.0522597 0)
(-0.00256249 -0.0749548 8.07882e-22)
(0.0749118 -0.0912002 0)
(0.164142 -0.102192 0)
(0.26072 -0.107601 0)
(0.361148 -0.108452 0)
(0.461549 -0.105319 -7.6636e-22)
(0.558344 -0.0993991 0)
(0.648888 -0.0910488 0)
(0.731293 -0.080589 0)
(0.803522 -0.0682705 0)
(0.863717 -0.0543346 -6.74294e-22)
(0.910414 -0.0389977 0)
(0.942672 -0.0227144 0)
(0.959891 -0.00604624 0)
(0.961015 0.0105175 0)
(0.94581 0.0267288 0)
(0.914234 0.0424981 0)
(0.86695 0.0575213 0)
(0.805167 0.0709713 -5.94957e-22)
(0.730548 0.0817735 5.95504e-22)
(0.644723 0.0891338 -5.96689e-22)
(0.550004 0.0931115 -5.97914e-22)
(0.449197 0.09316 0)
(0.346055 0.0897822 0)
(0.242709 0.0810014 5.98176e-22)
(0.144126 0.0666503 5.96623e-22)
(0.050454 0.0543417 0)
(-0.0438444 0.0491751 0)
(-0.143659 0.0516692 5.86211e-22)
(-0.249115 0.0604348 0)
(-0.35848 0.0676839 0)
(-0.46919 0.0646447 -5.67581e-22)
(-0.578625 0.0569851 0)
(-0.685682 0.0590128 -5.49059e-22)
(-0.792859 0.0603018 -1.07723e-21)
(-0.893757 0.0543374 0)
(-0.988846 0.0560668 0)
(-1.07983 0.0469218 0)
(-1.15208 0.0288805 0)
(-1.21311 0.0212126 0)
(-1.26559 0.0255909 -9.34988e-22)
(-1.31598 0.0301622 -9.12503e-22)
(-1.36079 0.0273842 -8.90851e-22)
(-1.39798 0.0240789 0)
(-1.42877 0.0205912 8.54313e-22)
(-1.45327 0.0168873 0)
(-1.47341 0.0143603 -8.29512e-22)
(-1.48993 0.0137099 -8.21339e-22)
(-1.50278 0.0137687 0)
(-1.51098 0.0125879 0)
(-1.51392 0.0102068 0)
(-1.51283 0.00738691 -8.08065e-22)
(-1.51045 0.00419876 0)
(-1.5089 0.00116816 0)
(-1.50808 -0.000735409 0)
(-1.50743 -0.00113226 0)
(-1.50771 -0.000162299 0)
(-1.50977 0.000997709 0)
(-1.51349 0.00162687 0)
(-1.51847 0.00322998 0)
(-1.52468 0.00644934 8.31129e-22)
(-1.53034 0.00930081 0)
(-1.53264 0.0104906 0)
(-1.53055 0.0100726 -8.26292e-22)
(-1.52516 0.0084331 -8.22277e-22)
(-1.51869 0.0051837 0)
(-1.51243 0.000340921 8.13533e-22)
(-1.50583 -0.00271609 -8.09964e-22)
(-1.49884 -0.00129309 0)
(-1.4938 0.00255609 8.0611e-22)
(-1.493 0.00521309 0)
(-1.49674 0.0065545 0)
(-1.50536 0.00924203 -8.02586e-22)
(-1.5171 0.011686 0)
(-1.52595 0.0117954 7.96e-22)
(-1.52785 0.00954826 0)
(-1.52025 0.00469907 -7.91823e-22)
(-1.50159 -0.00151596 -7.93859e-22)
(-1.47227 -0.00758011 -7.99487e-22)
(-1.43322 -0.0130034 -1.61791e-21)
(-1.38545 -0.0177218 1.64452e-21)
(-1.32989 -0.0217722 0)
(-1.2674 -0.0252088 0)
(-1.19881 -0.0281018 0)
(-1.12506 -0.0305346 1.81683e-21)
(-1.04664 -0.0325805 1.87215e-21)
(-0.964203 -0.0342811 -1.93043e-21)
(-0.878241 -0.0356712 0)
(-0.789311 -0.0367619 2.052e-21)
(-0.697902 -0.0375743 2.1135e-21)
(-0.604521 -0.0381184 2.17442e-21)
(-0.509642 -0.0384108 0)
(-0.413741 -0.0384729 0)
(-0.317249 -0.0383139 0)
(-0.220578 -0.037965 2.39965e-21)
(-0.124104 -0.0374278 0)
(-0.0282038 -0.036723 0)
(0.0667331 -0.0358441 -2.53583e-21)
(0.160296 -0.0347972 0)
(0.252066 -0.0335809 0)
(0.341631 -0.0322076 -2.63359e-21)
(0.428596 -0.030691 0)
(0.512626 -0.0290604 0)
(0.593446 -0.0273489 2.68939e-21)
(0.670853 -0.0255893 2.69911e-21)
(0.744701 -0.0238204 0)
(0.81492 -0.0220629 -2.70673e-21)
(0.881512 -0.0203542 0)
(0.944519 -0.0187079 2.70044e-21)
(1.00403 -0.0171325 0)
(1.06014 -0.0156394 2.68227e-21)
(1.11296 -0.0142213 2.66924e-21)
(1.1626 -0.0128715 0)
(1.20917 -0.0115835 0)
(1.25276 -0.0103431 0)
(1.29341 -0.00914624 0)
(1.33117 -0.00798356 0)
(1.36604 -0.00685319 0)
(1.39807 -0.00573143 0)
(1.4272 -0.00465731 2.49402e-21)
(1.45344 -0.00359498 -2.46595e-21)
(1.47683 -0.00255424 0)
(1.49735 -0.00153876 0)
(1.51502 -0.00055411 0)
(1.52986 0.000394035 0)
(1.5419 0.00129993 -4.63646e-21)
(1.55121 0.00215814 0)
(1.55785 0.00296403 4.51769e-21)
(1.56191 0.00371418 -4.45924e-21)
(1.56347 0.00440416 0)
(1.56266 0.00502677 0)
(1.55961 0.00557715 0)
(1.55444 0.00605328 4.23501e-21)
(1.54733 0.00644654 4.18164e-21)
(1.53846 0.00675293 0)
(1.52803 0.00697658 4.07814e-21)
(1.51626 0.0070992 4.02791e-21)
(1.50345 0.00709649 -3.97864e-21)
(1.4899 0.0069669 0)
(1.4759 0.00671822 0)
(1.46176 0.00635076 -3.83595e-21)
(1.4478 0.00585692 0)
(1.43434 0.00523481 0)
(1.42172 0.00451031 0)
(1.41022 0.00374471 0)
(1.40003 0.00301322 3.61274e-21)
(1.39119 0.00237827 3.57015e-21)
(1.38363 0.00187283 0)
(1.3772 0.00149937 3.48681e-21)
(1.37169 0.00124042 0)
(1.36691 0.00107035 0)
(1.3627 0.00096412 3.3654e-21)
(1.35893 0.000901201 0)
(1.35547 0.000867504 3.28627e-21)
(1.35224 0.000853945 0)
(1.34915 0.00085706 0)
(1.34616 0.000874428 3.16986e-21)
(1.34314 0.000908043 0)
(1.34011 0.000956714 3.09372e-21)
(1.33686 0.00102702 0)
(1.33353 0.00111585 0)
(1.32969 0.00124012 0)
(1.32571 0.00138858 -2.9453e-21)
(1.3207 0.00160563 0)
(1.31556 0.00184414 2.87348e-21)
(1.30851 0.00223318 0)
(1.30129 0.00259412 0)
(1.29082 0.00335243 0)
(1.27944 0.00383162 0)
(1.26384 0.00553844 0)
(1.24252 0.00583576 0)
(1.22199 0.0104563 0)
(1.1706 0.00884697 -5.2411e-21)
(1.15846 0.0244935 0)
(1.00358 0.0156098 0)
(0.000708858 0.167455 -2.53e-21)
(-0.00548062 0.105783 2.50831e-21)
(0.0115607 0.00807662 0)
(0.0439883 -0.0839814 -1.63126e-21)
(0.0949192 -0.16008 0)
(0.157791 -0.216594 -8.08669e-22)
(0.233946 -0.256917 1.58418e-21)
(0.3173 -0.283385 1.56793e-21)
(0.40446 -0.297161 0)
(0.490827 -0.299085 1.52475e-21)
(0.5735 -0.29071 7.67231e-22)
(0.650444 -0.27386 0)
(0.720266 -0.250114 0)
(0.781763 -0.220798 0)
(0.833808 -0.187 0)
(0.875498 -0.149748 6.75054e-22)
(0.90618 -0.110079 0)
(0.925067 -0.0691141 -1.23286e-21)
(0.930582 -0.0274294 0)
(0.922684 0.0146183 0)
(0.901801 0.0562788 1.16594e-21)
(0.868973 0.0962179 0)
(0.824644 0.132862 -1.15239e-21)
(0.768481 0.16553 5.95698e-22)
(0.700841 0.194351 -5.9627e-22)
(0.623097 0.218971 5.9749e-22)
(0.537391 0.238042 5.98754e-22)
(0.446064 0.249788 0)
(0.352134 0.254002 0)
(0.256933 0.251941 -5.9911e-22)
(0.159311 0.246582 5.67488e-22)
(0.0532006 0.248817 0)
(-0.0601414 0.261724 0)
(-0.175665 0.273137 -5.8716e-22)
(-0.289329 0.275503 0)
(-0.401972 0.272804 0)
(-0.516031 0.273169 5.6854e-22)
(-0.633369 0.272087 0)
(-0.748757 0.264699 -5.0326e-22)
(-0.861897 0.253126 1.07905e-21)
(-0.973853 0.237727 0)
(-1.07709 0.219573 0)
(-1.1734 0.19281 1.91811e-21)
(-1.26248 0.165324 1.86931e-21)
(-1.34692 0.140805 1.82135e-21)
(-1.41709 0.119543 -8.3783e-22)
(-1.47492 0.102689 9.13898e-22)
(-1.52255 0.0868942 2.57953e-21)
(-1.5612 0.0704304 -1.6501e-21)
(-1.59271 0.0549909 -8.55535e-22)
(-1.61901 0.0434045 0)
(-1.64106 0.0342749 8.30676e-22)
(-1.65826 0.0246578 -7.38977e-22)
(-1.67047 0.01333 0)
(-1.6775 0.000986004 0)
(-1.67852 -0.00954827 0)
(-1.67429 -0.0136417 8.09055e-22)
(-1.66737 -0.0109531 0)
(-1.66035 -0.00575764 -1.54947e-21)
(-1.65477 -0.00248857 0)
(-1.65117 -0.000866901 -1.55807e-21)
(-1.65032 0.000892975 0)
(-1.65238 0.00358839 1.57484e-21)
(-1.65755 0.00689729 0)
(-1.66531 0.00845842 -1.59229e-21)
(-1.67336 0.00554117 7.66339e-22)
(-1.67882 -0.00256867 0)
(-1.67997 -0.0132658 1.60181e-21)
(-1.67575 -0.021843 8.26969e-22)
(-1.66603 -0.0248853 8.22916e-22)
(-1.65307 -0.0220406 0)
(-1.64123 -0.0167899 7.70379e-22)
(-1.633 -0.0140048 8.10525e-22)
(-1.62618 -0.0135271 0)
(-1.6209 -0.0102161 -8.06579e-22)
(-1.61951 -0.0026323 1.56202e-21)
(-1.62347 0.00577164 0)
(-1.63049 0.0108183 8.02977e-22)
(-1.63387 0.00898509 0)
(-1.62583 -0.0012403 -2.33642e-21)
(-1.60461 -0.0170232 0)
(-1.57166 -0.0344163 2.3297e-21)
(-1.52868 -0.051208 7.94169e-22)
(-1.47707 -0.0664535 -7.60473e-22)
(-1.41799 -0.0798975 -1.54708e-21)
(-1.35232 -0.0915787 1.58034e-21)
(-1.28082 -0.101647 0)
(-1.20407 -0.110285 0)
(-1.12259 -0.117673 0)
(-1.03662 -0.123954 -5.4072e-21)
(-0.946745 -0.129248 -1.87238e-21)
(-0.85336 -0.133624 1.93063e-21)
(-0.756979 -0.137139 0)
(-0.658028 -0.139829 2.02098e-21)
(-0.556987 -0.141738 -2.11358e-21)
(-0.454271 -0.142907 -2.17447e-21)
(-0.350319 -0.143384 0)
(-0.245524 -0.143225 0)
(-0.140252 -0.142476 0)
(-0.0348237 -0.141191 -2.39962e-21)
(0.0704208 -0.139398 0)
(0.175134 -0.137113 4.97256e-21)
(0.278952 -0.134333 7.59264e-21)
(0.381483 -0.13106 -5.13255e-21)
(0.482324 -0.127289 0)
(0.581077 -0.123059 -2.62257e-21)
(0.677358 -0.118413 0)
(0.770847 -0.113427 -5.34136e-21)
(0.861288 -0.108186 2.68095e-21)
(0.948497 -0.102793 2.69134e-21)
(1.03236 -0.0973501 0)
(1.11281 -0.0919492 8.11308e-21)
(1.18986 -0.0866715 -5.40402e-21)
(1.26358 -0.0815689 -2.70018e-21)
(1.33404 -0.0766717 0)
(1.40134 -0.0719993 -2.68199e-21)
(1.4656 -0.0675382 -8.00282e-21)
(1.52692 -0.0632665 0)
(1.58541 -0.0591646 -5.26844e-21)
(1.64114 -0.0551998 -5.22937e-21)
(1.69415 -0.0513517 -5.18655e-21)
(1.7445 -0.0475979 0)
(1.79219 -0.0439085 0)
(1.83723 -0.040288 0)
(1.8796 -0.0367512 2.49137e-21)
(1.9193 -0.0332464 2.46555e-21)
(1.95635 -0.029795 0)
(1.99074 -0.0264051 4.81279e-21)
(2.02247 -0.0230874 4.75345e-21)
(2.05155 -0.0198545 0)
(2.07801 -0.0167207 4.6356e-21)
(2.1019 -0.0136995 9.14879e-21)
(2.12327 -0.0108037 -4.5168e-21)
(2.1422 -0.00804368 -4.45563e-21)
(2.15878 -0.00542909 0)
(2.17309 -0.00297033 0)
(2.18524 -0.000678017 0)
(2.19534 0.00143564 -4.23406e-21)
(2.20351 0.00335373 4.17894e-21)
(2.20988 0.00505976 8.2552e-21)
(2.2146 0.00654061 -4.07715e-21)
(2.21784 0.00777577 4.02564e-21)
(2.21972 0.0087437 3.97763e-21)
(2.22043 0.00943918 0)
(2.22012 0.00987097 0)
(2.219 0.0100456 -3.83427e-21)
(2.21726 0.00996359 0)
(2.21505 0.00962407 0)
(2.21253 0.00903604 7.3977e-21)
(2.20985 0.00823343 0)
(2.20715 0.00728664 3.61187e-21)
(2.20454 0.00629014 -3.56912e-21)
(2.20213 0.00533254 0)
(2.19997 0.0044741 3.48606e-21)
(2.19811 0.00374216 0)
(2.19655 0.0031388 0)
(2.19526 0.00265249 -3.36442e-21)
(2.19425 0.0022676 6.64953e-21)
(2.19348 0.00196998 -3.28531e-21)
(2.19292 0.00174775 0)
(2.19253 0.00159378 0)
(2.19228 0.00149994 3.16892e-21)
(2.19208 0.00146665 0)
(2.19195 0.00148519 3.09272e-21)
(2.19173 0.00157198 0)
(2.19147 0.00170724 0)
(2.19094 0.00194816 0)
(2.19027 0.00222729 2.94442e-21)
(2.18904 0.00271347 0)
(2.1875 0.00318036 -2.87261e-21)
(2.18502 0.00412153 0)
(2.18178 0.00480787 0)
(2.17729 0.00669633 5.5372e-21)
(2.17059 0.00752597 -5.47109e-21)
(2.16335 0.0116196 0)
(2.14872 0.0121181 0)
(2.13927 0.0219087 0)
(2.10421 0.0205451 1.5704e-20)
(2.09955 0.0469608 0)
(2.01065 0.0425814 -1.0262e-20)
(0.0180117 0.10362 1.43783e-24)
(0.0594967 0.0373522 -3.33938e-21)
(0.112865 -0.0762536 0)
(0.167688 -0.18487 3.2653e-21)
(0.230359 -0.278069 0)
(0.299789 -0.351731 0)
(0.372364 -0.405218 -2.09561e-23)
(0.443406 -0.437463 -1.56952e-21)
(0.509797 -0.449356 -1.51173e-21)
(0.569896 -0.443169 -1.52622e-21)
(0.623017 -0.422408 0)
(0.668916 -0.39048 0)
(0.707524 -0.349889 1.36714e-21)
(0.738481 -0.302416 2.64947e-21)
(0.761027 -0.249477 -2.56459e-21)
(0.774663 -0.192319 0)
(0.779156 -0.13163 -2.40649e-21)
(0.774314 -0.066905 1.23378e-21)
(0.759363 0.000820754 0)
(0.733254 0.0674345 -2.24071e-21)
(0.695202 0.1291 -1.16674e-21)
(0.645347 0.185638 2.197e-21)
(0.583558 0.240242 1.1532e-21)
(0.511156 0.293061 0)
(0.429845 0.339621 -2.20726e-21)
(0.342302 0.376457 -2.22023e-21)
(0.251341 0.401935 0)
(0.158925 0.415033 -2.24358e-21)
(0.0664526 0.415716 0)
(-0.0264588 0.408478 -2.24831e-21)
(-0.124471 0.41117 -1.16611e-21)
(-0.227001 0.423601 0)
(-0.326966 0.431812 0)
(-0.423201 0.434716 0)
(-0.517466 0.437195 0)
(-0.610952 0.440111 0)
(-0.702132 0.438756 0)
(-0.790871 0.432954 -2.03706e-21)
(-0.87699 0.42504 3.0454e-21)
(-0.960528 0.409812 0)
(-1.04113 0.386814 0)
(-1.11825 0.361672 0)
(-1.19298 0.328998 -1.30365e-22)
(-1.26417 0.288962 -1.87117e-21)
(-1.32994 0.249543 -3.51067e-21)
(-1.38957 0.214019 3.41419e-21)
(-1.44255 0.182781 1.59214e-21)
(-1.48894 0.153618 -1.68863e-21)
(-1.52973 0.126887 1.37752e-22)
(-1.56586 0.103867 -1.48346e-21)
(-1.59666 0.0848364 0)
(-1.62119 0.0682962 -1.44575e-21)
(-1.63942 0.05268 1.24558e-22)
(-1.65231 0.037035 0)
(-1.66077 0.0195059 0)
(-1.66432 0.0012515 1.44056e-21)
(-1.66328 -0.0118711 0)
(-1.65864 -0.0181563 0)
(-1.65082 -0.0194285 -1.35025e-21)
(-1.641 -0.0174335 -2.90782e-21)
(-1.63175 -0.0124875 1.55829e-21)
(-1.62535 -0.00490912 0)
(-1.62293 0.00387446 -1.57499e-21)
(-1.62364 0.0117879 0)
(-1.62556 0.0168872 -1.39626e-21)
(-1.62757 0.017449 -1.59823e-21)
(-1.62954 0.0123281 3.02582e-21)
(-1.6324 0.00255942 1.4373e-21)
(-1.63607 -0.00973167 0)
(-1.63878 -0.0209089 -3.05126e-21)
(-1.63829 -0.0257518 0)
(-1.63337 -0.0239907 -4.6271e-21)
(-1.62581 -0.0214484 -3.03057e-21)
(-1.61857 -0.018618 -3.01585e-21)
(-1.61433 -0.0101671 2.9995e-21)
(-1.61367 0.00341766 -4.54353e-21)
(-1.61494 0.0147644 0)
(-1.61231 0.0152108 0)
(-1.59831 0.000491486 2.93746e-21)
(-1.57169 -0.0243348 4.46884e-21)
(-1.53526 -0.0520525 0)
(-1.49074 -0.0790763 -1.53722e-21)
(-1.43928 -0.103935 0)
(-1.38163 -0.126081 4.56644e-21)
(-1.31842 -0.145464 1.03897e-22)
(-1.25011 -0.162308 -9.52797e-23)
(-1.1771 -0.176927 -3.21088e-21)
(-1.0997 -0.189635 0)
(-1.01821 -0.200671 3.40844e-21)
(-0.932906 -0.21019 6.83052e-23)
(-0.844108 -0.218282 0)
(-0.752148 -0.225013 0)
(-0.657393 -0.230416 0)
(-0.560227 -0.23454 -4.07266e-21)
(-0.461054 -0.237427 0)
(-0.360269 -0.239145 0)
(-0.258273 -0.239774 0)
(-0.155451 -0.239399 0)
(-0.0521506 -0.238102 0)
(0.0513119 -0.235945 -4.74896e-21)
(0.154623 -0.232976 0)
(0.257454 -0.229209 -4.97235e-21)
(0.359444 -0.22464 -5.05671e-21)
(0.460193 -0.219263 5.13237e-21)
(0.559273 -0.213078 0)
(0.656258 -0.206146 5.25584e-21)
(0.750756 -0.198534 0)
(0.842443 -0.190373 5.34116e-21)
(0.931067 -0.181818 -5.36993e-21)
(1.01646 -0.173035 -1.61444e-20)
(1.09854 -0.164197 0)
(1.17727 -0.155455 -1.61974e-20)
(1.25272 -0.146932 -5.38389e-21)
(1.32499 -0.138713 0)
(1.39417 -0.130849 -1.07431e-20)
(1.46039 -0.12335 -1.07036e-20)
(1.52377 -0.116194 1.59872e-20)
(1.58444 -0.109341 0)
(1.64247 -0.102759 5.26823e-21)
(1.69795 -0.0964017 5.22917e-21)
(1.7509 -0.0902326 1.55491e-20)
(1.80137 -0.0842153 0)
(1.84934 -0.078342 0)
(1.89482 -0.072579 0)
(1.9378 -0.0669125 4.97689e-21)
(1.97828 -0.061323 0)
(2.01625 -0.055824 0)
(2.05172 -0.0504297 -4.81257e-21)
(2.0847 -0.0451584 -4.75323e-21)
(2.11523 -0.0400319 0)
(2.14333 -0.0350738 0)
(2.16908 -0.0303074 -9.14841e-21)
(2.19254 -0.0257525 0)
(2.21379 -0.0214271 8.9136e-21)
(2.23293 -0.0173468 8.79442e-21)
(2.25006 -0.0135258 0)
(2.26531 -0.00997573 0)
(2.2788 -0.00670763 -8.46278e-21)
(2.29067 -0.00373398 -2.7358e-24)
(2.30108 -0.00106739 -2.43127e-24)
(2.31016 0.00126986 0)
(2.31805 0.00325665 -1.61025e-20)
(2.32485 0.00487703 0)
(2.33068 0.00612419 0)
(2.33566 0.006998 0)
(2.33994 0.00750871 7.66873e-21)
(2.34364 0.00767383 0)
(2.34689 0.00751623 -1.49718e-20)
(2.34977 0.00706896 -7.39721e-21)
(2.35233 0.00638492 0)
(2.35459 0.00554664 -7.22306e-21)
(2.35661 0.00465139 0)
(2.35845 0.00378498 0)
(2.36015 0.00300406 -2.09146e-20)
(2.36179 0.00233294 1.37796e-20)
(2.3634 0.0017711 0)
(2.36503 0.00130555 1.34573e-20)
(2.36669 0.000920904 -6.64899e-21)
(2.3684 0.000607203 0)
(2.37017 0.000358467 0)
(2.37201 0.000177011 0)
(2.37392 6.08872e-05 -1.90119e-20)
(2.3759 2.15197e-05 0)
(2.37793 4.95532e-05 -6.18499e-21)
(2.38 0.000175393 0)
(2.38205 0.00036695 0)
(2.38409 0.000711119 0)
(2.38597 0.00110585 0)
(2.38777 0.00179161 0)
(2.38914 0.00245575 0)
(2.39044 0.00375754 -1.13453e-20)
(2.39071 0.0047714 0)
(2.39116 0.00729869 -5.53666e-21)
(2.38923 0.00870142 1.64067e-20)
(2.38851 0.0138836 0)
(2.38208 0.0155838 0)
(2.38029 0.0269961 -1.05611e-20)
(2.36459 0.0289169 -1.04635e-20)
(2.36357 0.055933 1.03372e-20)
(2.33144 0.0604617 1.02609e-20)
(0.0139925 0.00355139 5.04671e-21)
(0.0655492 -0.0988474 5.01028e-21)
(0.128878 -0.216489 3.30327e-21)
(0.203383 -0.330632 1.62287e-21)
(0.280977 -0.430916 0)
(0.35223 -0.505164 -3.14239e-21)
(0.412074 -0.548663 1.51243e-21)
(0.458583 -0.563691 0)
(0.493282 -0.55465 1.51304e-21)
(0.518616 -0.52694 0)
(0.536383 -0.486354 -2.78156e-21)
(0.548428 -0.43694 0)
(0.557265 -0.380412 -1.36818e-21)
(0.563313 -0.317915 -2.65145e-21)
(0.564243 -0.250711 2.56646e-21)
(0.55874 -0.179877 0)
(0.545642 -0.106048 2.4081e-21)
(0.524236 -0.0285668 0)
(0.493538 0.0537638 0)
(0.452476 0.138494 2.24233e-21)
(0.399599 0.221749 0)
(0.333464 0.302686 -1.44107e-22)
(0.256277 0.378063 0)
(0.172856 0.442912 0)
(0.0859162 0.494854 1.36523e-22)
(-0.00266859 0.533248 2.22229e-21)
(-0.0913094 0.557943 2.10164e-21)
(-0.179208 0.56925 2.24558e-21)
(-0.266887 0.57123 0)
(-0.359178 0.575396 4.36889e-21)
(-0.455045 0.583606 0)
(-0.547772 0.5871 2.09646e-21)
(-0.636673 0.586472 0)
(-0.722781 0.584081 0)
(-0.805854 0.580212 -2.01984e-21)
(-0.884611 0.573025 0)
(-0.958979 0.563865 1.94293e-21)
(-1.02924 0.553271 1.41325e-22)
(-1.09387 0.537315 -3.84124e-21)
(-1.15361 0.515576 3.59396e-21)
(-1.20907 0.489852 0)
(-1.25926 0.458909 0)
(-1.30417 0.420625 1.48308e-21)
(-1.3451 0.376833 0)
(-1.38271 0.331942 1.68902e-21)
(-1.4164 0.28898 -1.63969e-21)
(-1.44568 0.248828 -1.59329e-21)
(-1.4707 0.21184 0)
(-1.49228 0.178131 1.51441e-21)
(-1.51023 0.147764 1.48419e-21)
(-1.52425 0.120128 -2.6021e-21)
(-1.53408 0.0942718 1.44616e-21)
(-1.54003 0.0694212 1.43794e-21)
(-1.54258 0.0450766 0)
(-1.54136 0.0192371 0)
(-1.53761 -0.00573404 -1.44058e-21)
(-1.53194 -0.0209071 0)
(-1.52616 -0.0269031 0)
(-1.52123 -0.028359 2.89977e-21)
(-1.51611 -0.0263352 2.9075e-21)
(-1.51154 -0.0198652 0)
(-1.50833 -0.00949251 0)
(-1.50704 0.0018023 0)
(-1.50738 0.0104051 0)
(-1.50864 0.014214 2.98795e-21)
(-1.51028 0.0127403 -2.80308e-21)
(-1.51241 0.00670293 -3.02505e-21)
(-1.51581 -0.00223741 -5.88655e-21)
(-1.52048 -0.0124404 0)
(-1.526 -0.0219026 1.70897e-22)
(-1.53183 -0.028545 0)
(-1.53619 -0.0309901 3.04181e-21)
(-1.53708 -0.0298258 1.52352e-22)
(-1.53693 -0.0247571 3.01485e-21)
(-1.53823 -0.012535 -2.99853e-21)
(-1.53853 0.00256081 1.6393e-22)