/*--------------------------------*- C++ -*----------------------------------*\
  =========                 |
  \\      /  F ield         | OpenFOAM: The Open Source CFD Toolbox
   \\    /   O peration     | Website:  https://openfoam.org
    \\  /    A nd           | Version:  7
     \\/     M anipulation  |
\*---------------------------------------------------------------------------*/
FoamFile
{
    version     2.0;
    format      ascii;
    class       volScalarField;
    location    "0.053";
    object      k;
}
// * * * * * * * * * * * * * * * * * * * * * * * * * * * * * * * * * * * * * //

dimensions      [0 2 -2 0 0 0 0];

internalField   nonuniform List<scalar> 
12225
(
1.93779e-05
1.80195e-05
1.6633e-05
1.54287e-05
1.41245e-05
1.28312e-05
1.12428e-05
1.01796e-05
8.19393e-06
7.59821e-06
9.64273e-06
1.6118e-05
1.30007e-05
5.72376e-06
3.51393e-06
3.01207e-06
2.96544e-06
5.04743e-06
1.99834e-05
1.9887e-05
1.96821e-05
1.9456e-05
1.90715e-05
1.87857e-05
1.83439e-05
1.79558e-05
1.7156e-05
1.63574e-05
1.63018e-05
1.68547e-05
1.88052e-05
1.93238e-05
1.90435e-05
1.72594e-05
1.47713e-05
1.27821e-05
1.99989e-05
1.93157e-05
1.91349e-05
1.90493e-05
1.89227e-05
1.88103e-05
1.867e-05
1.85364e-05
1.83607e-05
1.82444e-05
1.82353e-05
1.82792e-05
1.85855e-05
1.91232e-05
1.92188e-05
1.91277e-05
1.88287e-05
1.80979e-05
2.00812e-05
1.98686e-05
1.80773e-05
1.63126e-05
1.64998e-05
1.63945e-05
1.56703e-05
1.54295e-05
1.54689e-05
1.57902e-05
1.66026e-05
1.70986e-05
1.72712e-05
1.7407e-05
1.77076e-05
1.79917e-05
1.80693e-05
1.80241e-05
2.33369e-05
2.2471e-05
2.05836e-05
1.97527e-05
1.96707e-05
1.96601e-05
1.94981e-05
1.91308e-05
1.90422e-05
1.9055e-05
1.90369e-05
1.87523e-05
1.80351e-05
1.7702e-05
1.76669e-05
1.76888e-05
1.78057e-05
1.80087e-05
2.23859e-05
2.17044e-05
2.20373e-05
2.19009e-05
2.14223e-05
2.11598e-05
2.1134e-05
2.12047e-05
2.15288e-05
2.23675e-05
2.28576e-05
2.28944e-05
2.27454e-05
2.21635e-05
2.14366e-05
2.11051e-05
2.10579e-05
2.10277e-05
2.03141e-05
2.11749e-05
2.2969e-05
2.35263e-05
2.33027e-05
2.25334e-05
2.19535e-05
2.18191e-05
2.18515e-05
2.20911e-05
2.27148e-05
2.31656e-05
2.35378e-05
2.38801e-05
2.41796e-05
2.43795e-05
2.4524e-05
2.45239e-05
2.00854e-05
2.14478e-05
2.31694e-05
2.34257e-05
2.31679e-05
2.29534e-05
2.30732e-05
2.34748e-05
2.36446e-05
2.36925e-05
2.37608e-05
2.39228e-05
2.42528e-05
2.45923e-05
2.4835e-05
2.49561e-05
2.49857e-05
2.4972e-05
2.01216e-05
2.14804e-05
2.22385e-05
2.2423e-05
2.30587e-05
2.38662e-05
2.42234e-05
2.4312e-05
2.42903e-05
2.41318e-05
2.36597e-05
2.33648e-05
2.32992e-05
2.33048e-05
2.33318e-05
2.34131e-05
2.349e-05
2.3596e-05
2.02135e-05
2.05427e-05
2.06927e-05
2.10915e-05
2.19257e-05
2.44069e-05
2.61483e-05
2.6598e-05
2.65952e-05
2.62299e-05
2.47939e-05
2.31789e-05
2.21467e-05
2.15811e-05
2.13718e-05
2.13585e-05
2.1449e-05
2.1911e-05
2.04522e-05
2.0281e-05
2.05149e-05
2.23489e-05
2.40529e-05
2.42713e-05
2.37754e-05
2.36656e-05
2.42407e-05
2.4739e-05
2.46586e-05
2.40094e-05
2.2995e-05
2.25412e-05
2.24501e-05
2.2481e-05
2.25518e-05
2.25618e-05
2.05238e-05
2.02331e-05
2.0501e-05
2.11267e-05
2.13465e-05
2.13576e-05
2.14168e-05
2.18723e-05
2.36478e-05
2.5408e-05
2.61113e-05
2.61735e-05
2.58702e-05
2.46849e-05
2.35727e-05
2.28377e-05
2.21814e-05
2.17008e-05
2.26014e-05
2.12391e-05
2.21779e-05
2.24892e-05
2.18499e-05
2.12896e-05
2.12457e-05
2.14669e-05
2.22693e-05
2.27755e-05
2.29132e-05
2.30428e-05
2.3101e-05
2.30895e-05
2.30468e-05
2.29664e-05
2.28028e-05
2.23537e-05
2.10285e-05
2.11601e-05
2.20126e-05
2.20848e-05
2.15228e-05
2.12444e-05
2.12501e-05
2.13292e-05
2.13453e-05
2.12874e-05
2.1152e-05
2.11266e-05
2.11533e-05
2.13287e-05
2.16577e-05
2.18201e-05
2.18448e-05
2.18294e-05
2.17214e-05
2.30292e-05
2.23669e-05
2.1243e-05
2.08741e-05
2.08282e-05
2.08611e-05
2.08841e-05
2.08978e-05
2.09169e-05
2.09267e-05
2.09266e-05
2.09133e-05
2.08542e-05
2.08236e-05
2.08226e-05
2.08241e-05
2.08382e-05
2.089e-05
2.13756e-05
2.12488e-05
2.08006e-05
2.06683e-05
2.0725e-05
2.07671e-05
2.0746e-05
2.06635e-05
2.06452e-05
2.06802e-05
2.08842e-05
2.1175e-05
2.13208e-05
2.13587e-05
2.13499e-05
2.1309e-05
2.11965e-05
2.06265e-05
2.05617e-05
2.04474e-05
2.04196e-05
2.06251e-05
2.10496e-05
2.11662e-05
2.1142e-05
2.0942e-05
2.07346e-05
2.06809e-05
2.06927e-05
2.08103e-05
2.11744e-05
2.14451e-05
2.15829e-05
2.16447e-05
2.16601e-05
2.11617e-05
2.06826e-05
2.02803e-05
2.02503e-05
2.03269e-05
2.06409e-05
2.08768e-05
2.09447e-05
2.09452e-05
2.09077e-05
2.0803e-05
2.07515e-05
2.07439e-05
2.07602e-05
2.08273e-05
2.08804e-05
2.09051e-05
2.09411e-05
2.04426e-05
2.0423e-05
2.02773e-05
2.02693e-05
2.03324e-05
2.04285e-05
2.04743e-05
2.04887e-05
2.04886e-05
2.04688e-05
2.04279e-05
2.04022e-05
2.03444e-05
2.02673e-05
2.02216e-05
2.02119e-05
2.02122e-05
2.02185e-05
2.00213e-05
2.02452e-05
2.05591e-05
2.07448e-05
2.07991e-05
2.07973e-05
2.07459e-05
2.06891e-05
2.06889e-05
2.07361e-05
2.08196e-05
2.08438e-05
2.08245e-05
2.06793e-05
2.04162e-05
2.02708e-05
2.02077e-05
2.018e-05
2.02128e-05
2.05728e-05
2.05279e-05
2.04372e-05
2.04439e-05
2.04741e-05
2.04769e-05
2.04703e-05
2.04661e-05
2.04663e-05
2.04646e-05
2.04508e-05
2.03905e-05
2.02654e-05
2.01753e-05
2.01239e-05
2.00998e-05
2.00918e-05
2.00234e-05
2.00766e-05
2.02895e-05
2.05298e-05
2.06825e-05
2.07286e-05
2.07259e-05
2.06848e-05
2.06195e-05
2.05753e-05
2.0514e-05
2.04786e-05
2.04655e-05
2.04281e-05
2.03477e-05
2.02844e-05
2.02486e-05
2.02265e-05
2.00108e-05
2.0308e-05
2.07155e-05
2.07789e-05
2.0727e-05
2.06667e-05
2.06555e-05
2.06521e-05
2.06408e-05
2.05856e-05
2.04643e-05
2.03875e-05
2.03506e-05
2.03361e-05
2.03324e-05
2.03336e-05
2.03464e-05
2.04078e-05
2.00689e-05
2.0828e-05
2.1139e-05
2.10705e-05
2.08062e-05
2.07336e-05
2.0743e-05
2.07237e-05
2.05679e-05
2.03522e-05
2.02855e-05
2.02923e-05
2.04056e-05
2.06664e-05
2.0746e-05
2.07405e-05
2.06814e-05
2.05801e-05
2.05136e-05
2.09445e-05
2.08405e-05
2.04944e-05
2.04154e-05
2.04484e-05
2.05096e-05
2.05123e-05
2.04645e-05
2.03339e-05
2.02884e-05
2.02948e-05
2.03894e-05
2.08023e-05
2.11419e-05
2.12115e-05
2.11972e-05
2.10933e-05
2.0282e-05
2.04702e-05
2.04838e-05
2.04888e-05
2.04886e-05
2.047e-05
2.03775e-05
2.02641e-05
2.02084e-05
2.01926e-05
2.01954e-05
2.02356e-05
2.0448e-05
2.13899e-05
2.39144e-05
2.56635e-05
2.63313e-05
2.64199e-05
2.00174e-05
2.02755e-05
2.0521e-05
2.05242e-05
2.03417e-05
1.97323e-05
1.9503e-05
1.95254e-05
1.96778e-05
1.98471e-05
1.98672e-05
1.97543e-05
1.9319e-05
1.89963e-05
1.89413e-05
1.90157e-05
1.94775e-05
1.98804e-05
2.02975e-05
1.90667e-05
1.62238e-05
1.64001e-05
1.71824e-05
1.82546e-05
2.0534e-05
2.73664e-05
3.78587e-05
4.51222e-05
4.8633e-05
4.98265e-05
5.06159e-05
5.22028e-05
5.6413e-05
6.63896e-05
8.01447e-05
9.04162e-05
3.43432e-05
7.53299e-05
0.000182672
0.000274394
0.000302146
0.000313317
0.000339246
0.000407387
0.000466227
0.00049296
0.000499696
0.000501612
0.000505726
0.000518997
0.000565292
0.000619717
0.000644422
0.000648838
0.00311889
0.00276692
0.00247826
0.00238615
0.00223544
0.00208072
0.00199884
0.00196497
0.00192316
0.00182996
0.00172701
0.00165709
0.00162162
0.00160156
0.00157242
0.00150562
0.0013528
0.00120621
6.27155e-05
0.000210066
0.000369673
0.000492907
0.000501335
0.000454474
0.000404618
0.00035905
0.00033336
0.000318706
0.000307374
0.000301613
0.000301233
0.000302619
0.000302375
0.000300037
0.000292494
0.000285365
0.000268101
0.000269641
0.000280228
0.000309204
0.000337289
0.000397328
0.00042576
0.000454902
0.000483205
0.000508251
0.000591911
0.000949721
0.00203759
0.00255898
0.00272731
0.00320385
0.00563629
0.00816147
0.00908178
0.00982999
0.0120297
0.030467
0.0401449
0.0104782
0.00152083
0.000649372
0.000558881
0.000567765
0.000583319
0.000556757
0.000521129
0.00043271
0.00038482
0.000301247
0.000256804
0.000207052
0.000159968
0.000134976
9.88328e-05
7.94478e-05
6.74142e-05
6.2632e-05
6.24322e-05
6.71562e-05
6.89444e-05
7.08661e-05
7.15854e-05
7.19018e-05
7.19689e-05
7.14801e-05
6.9682e-05
6.69314e-05
6.42597e-05
6.2176e-05
6.03723e-05
5.83461e-05
5.60386e-05
5.3826e-05
5.19565e-05
5.02232e-05
4.84636e-05
4.70016e-05
4.59034e-05
4.48041e-05
4.3591e-05
4.238e-05
4.11603e-05
3.96746e-05
3.83555e-05
3.77174e-05
3.6845e-05
3.5217e-05
3.39823e-05
3.31751e-05
3.14412e-05
3.03344e-05
2.89276e-05
2.74911e-05
2.59461e-05
2.43105e-05
2.25804e-05
2.07875e-05
1.89398e-05
1.70721e-05
1.52319e-05
1.34899e-05
1.18856e-05
1.037e-05
8.95787e-06
7.67339e-06
6.53139e-06
5.53243e-06
4.66506e-06
3.91717e-06
3.2779e-06
2.73582e-06
2.27891e-06
1.89483e-06
1.57303e-06
1.3027e-06
1.07653e-06
8.86706e-07
7.26825e-07
5.93564e-07
4.83388e-07
3.93142e-07
3.19651e-07
2.59879e-07
2.1115e-07
1.71285e-07
1.3859e-07
1.11766e-07
8.97846e-08
7.18076e-08
5.71413e-08
4.52137e-08
3.55533e-08
2.77698e-08
2.1537e-08
1.658e-08
1.26662e-08
9.59903e-09
7.21377e-09
5.37364e-09
3.96599e-09
2.89867e-09
2.09683e-09
1.50034e-09
1.06132e-09
7.41958e-10
5.12546e-10
3.49878e-10
2.36018e-10
1.57326e-10
1.03623e-10
6.74362e-11
4.33617e-11
2.75483e-11
1.72928e-11
1.07259e-11
6.57397e-12
3.98183e-12
2.38363e-12
1.41042e-12
8.24949e-13
4.77013e-13
2.72654e-13
1.54107e-13
8.60846e-14
4.75909e-14
2.59911e-14
1.41108e-14
7.50369e-15
4.15269e-15
2.07752e-15
1.17191e-15
8.36849e-16
8.7043e-16
1.18634e-14
6.82253e-12
4.30455e-09
2.32202e-07
5.9589e-05
0.000397499
0.000410348
0.000421351
0.000452824
0.000482022
0.000509284
0.000511551
0.000522209
0.000574181
0.000619416
0.000643077
0.000688307
0.000759146
0.000807092
0.000812574
0.000805792
0.000792658
0.000781892
0.000770614
0.000756183
0.000733255
0.000678216
0.000643799
0.000593574
0.000548307
0.00053611
0.000541328
0.000575229
0.000682444
0.00100299
0.00166687
0.00162028
0.00167108
0.00233786
0.00273968
0.00469347
0.0128577
0.015459
0.0158076
0.00814661
0.00201275
0.000614361
0.000388387
0.000330257
0.000303892
0.000271535
0.000239539
0.000219729
0.000192268
0.00017998
0.000169384
0.000165142
0.000162854
0.000162039
0.000162526
0.000164589
0.000167559
0.000171494
0.000176329
0.000181702
0.000186589
0.000190159
0.000191915
0.000192701
0.000192882
0.000191643
0.000186758
0.00017901
0.00017135
0.000165562
0.000161106
0.000156698
0.000151769
0.000146415
0.000140807
0.000135316
0.000130693
0.000127098
0.000123589
0.000119707
0.000116237
0.000113475
0.000110503
0.000106481
0.000102197
9.88075e-05
9.61928e-05
9.33618e-05
8.84468e-05
8.61367e-05
8.36132e-05
7.99162e-05
7.71722e-05
7.41823e-05
7.13715e-05
6.8672e-05
6.60298e-05
6.33789e-05
6.06835e-05
5.79251e-05
5.51056e-05
5.20985e-05
4.88113e-05
4.52259e-05
4.14002e-05
3.73588e-05
3.31944e-05
2.90985e-05
2.53289e-05
2.19939e-05
1.89705e-05
1.62454e-05
1.38332e-05
1.17374e-05
9.94481e-06
8.42727e-06
7.15253e-06
6.08976e-06
5.21068e-06
4.48766e-06
3.8921e-06
3.39859e-06
2.98464e-06
2.63155e-06
2.32479e-06
2.05308e-06
1.80729e-06
1.58078e-06
1.37084e-06
1.17776e-06
1.00234e-06
8.4501e-07
7.05616e-07
5.83573e-07
4.77975e-07
3.87687e-07
3.11421e-07
2.47783e-07
1.95304e-07
1.52503e-07
1.17955e-07
9.03522e-08
6.85203e-08
5.14269e-08
3.81745e-08
2.80028e-08
2.02837e-08
1.45009e-08
1.02306e-08
7.12486e-09
4.89799e-09
3.32331e-09
2.22537e-09
1.4706e-09
9.59072e-10
6.17275e-10
3.921e-10
2.45829e-10
1.52135e-10
9.29485e-11
5.60723e-11
3.3404e-11
1.96547e-11
1.14217e-11
6.55706e-12
3.71703e-12
2.08221e-12
1.15045e-12
6.30288e-13
3.35942e-13
1.84598e-13
9.0856e-14
5.03144e-14
3.08433e-14
3.39204e-14
1.31822e-13
7.56313e-12
5.47664e-09
2.89274e-08
5.49532e-05
0.000423459
0.000264266
0.000208527
0.000236364
0.000320079
0.00047178
0.000583325
0.000708951
0.000950608
0.00110516
0.00119848
0.00131611
0.00145952
0.00154347
0.00154511
0.00152397
0.0014763
0.00143829
0.00141032
0.00136284
0.00131239
0.00123853
0.00108542
0.000982118
0.000903009
0.000767288
0.00066678
0.000635668
0.000646568
0.000696231
0.000824667
0.000918559
0.00143214
0.00504521
0.00920663
0.00972917
0.0107578
0.00655209
0.00278746
0.00115331
0.000459366
0.000310625
0.000280354
0.000270153
0.000261746
0.000252393
0.000242221
0.000235221
0.000223569
0.000215722
0.000208519
0.000206643
0.000206335
0.000207365
0.0002101
0.000214922
0.000221068
0.000227815
0.000235395
0.000244542
0.000254923
0.000265868
0.000274144
0.000277568
0.000278795
0.000278654
0.00027344
0.000260011
0.00024201
0.000226316
0.000215515
0.000210245
0.000206934
0.000202509
0.000196364
0.000190295
0.000186336
0.000183728
0.000179352
0.000172362
0.000167882
0.000165965
0.000163184
0.000157004
0.000150226
0.000145157
0.000139259
0.000133885
0.000125198
0.000120526
0.000113644
0.000107578
0.00010174
9.63949e-05
9.16213e-05
8.737e-05
8.35861e-05
8.01537e-05
7.69718e-05
7.39556e-05
7.10716e-05
6.83578e-05
6.57679e-05
6.32459e-05
6.07369e-05
5.816e-05
5.53462e-05
5.21528e-05
4.84234e-05
4.41876e-05
3.97042e-05
3.51027e-05
3.05129e-05
2.61065e-05
2.20524e-05
1.84749e-05
1.53766e-05
1.26681e-05
1.03455e-05
8.41576e-06
6.86059e-06
5.63709e-06
4.69035e-06
3.96244e-06
3.39957e-06
2.95711e-06
2.60141e-06
2.30829e-06
2.05962e-06
1.84223e-06
1.64725e-06
1.46868e-06
1.30291e-06
1.14807e-06
1.0034e-06
8.68818e-07
7.44687e-07
6.3151e-07
5.29846e-07
4.39873e-07
3.61322e-07
2.93614e-07
2.35974e-07
1.87511e-07
1.47274e-07
1.1429e-07
8.75937e-08
6.62694e-08
4.9466e-08
3.64116e-08
2.64208e-08
1.8893e-08
1.33112e-08
9.2393e-09
6.31749e-09
4.25531e-09
2.82362e-09
1.84569e-09
1.18847e-09
7.53958e-10
4.7137e-10
2.90494e-10
1.76519e-10
1.05757e-10
6.24998e-11
3.6413e-11
2.09345e-11
1.1853e-11
6.64792e-12
3.60743e-12
2.07029e-12
8.9028e-13
9.12305e-13
7.39507e-13
1.63461e-12
1.98394e-11
1.82461e-11
5.63087e-10
2.16475e-09
5.38413e-05
0.000180895
0.000131096
0.00014009
0.000201483
0.000325333
0.000524009
0.000742998
0.000867934
0.00112733
0.00137413
0.001538
0.00176325
0.00195406
0.00210638
0.0021646
0.00215564
0.00212579
0.00211666
0.00210153
0.00206896
0.00199279
0.00187048
0.0017859
0.00164131
0.0013186
0.00120398
0.000988726
0.00080431
0.000708938
0.000721272
0.00086007
0.00229102
0.00731731
0.00810874
0.00817649
0.00591083
0.00346358
0.00146852
0.000678245
0.000399561
0.000322236
0.000312187
0.000318819
0.000351617
0.000385765
0.000406376
0.000415757
0.000418697
0.000414542
0.000394727
0.000385494
0.000372463
0.000344867
0.000328695
0.000324087
0.000323374
0.000324912
0.000332748
0.00034451
0.000360514
0.000381669
0.000407519
0.000434819
0.000446896
0.000450689
0.000451503
0.000448483
0.000433713
0.000403806
0.000365028
0.000335482
0.000322391
0.000315674
0.000311255
0.000305691
0.000298654
0.000292916
0.000289443
0.000284882
0.0002775
0.000269684
0.000265468
0.00026306
0.000257963
0.000249803
0.00024202
0.00023432
0.000224301
0.00021243
0.000199107
0.000183406
0.00016617
0.000149189
0.000134583
0.00012124
0.000109784
0.000100599
9.33043e-05
8.74604e-05
8.26965e-05
7.87386e-05
7.53674e-05
7.24488e-05
6.9858e-05
6.74853e-05
6.52716e-05
6.32242e-05
6.12792e-05
5.93694e-05
5.74001e-05
5.53059e-05
5.29815e-05
5.02375e-05
4.69479e-05
4.31289e-05
3.88228e-05
3.40857e-05
2.9072e-05
2.39941e-05
1.91981e-05
1.50182e-05
1.15371e-05
8.75217e-06
6.61611e-06
5.03383e-06
3.89028e-06
3.07491e-06
2.49528e-06
2.08021e-06
1.777e-06
1.54793e-06
1.36726e-06
1.21773e-06
1.08821e-06
9.72106e-07
8.65822e-07
7.67426e-07
6.75802e-07
5.9009e-07
5.10126e-07
4.3628e-07
3.68999e-07
3.0859e-07
2.55147e-07
2.08542e-07
1.68467e-07
1.34472e-07
1.06016e-07
8.25156e-08
6.33838e-08
4.8034e-08
3.58963e-08
2.64402e-08
1.91856e-08
1.37079e-08
9.64003e-09
6.67071e-09
4.54141e-09
3.04176e-09
2.00444e-09
1.29976e-09
8.29515e-10
5.21141e-10
3.22307e-10
1.9626e-10
1.17651e-10
6.94502e-11
4.0361e-11
2.30923e-11
1.30207e-11
7.20519e-12
3.96888e-12
2.08123e-12
1.20363e-12
6.15811e-13
1.7911e-12
2.0911e-12
2.08341e-11
1.19103e-10
2.33757e-05
8.72041e-05
9.27245e-05
0.000125869
0.000239721
0.000448757
0.000585764
0.000841935
0.00106782
0.00133201
0.00167404
0.00184734
0.00224888
0.00257621
0.00276549
0.0029333
0.00300685
0.00308659
0.00312392
0.00309203
0.00299648
0.00279095
0.00246685
0.00227351
0.00219517
0.00205472
0.00160737
0.00134805
0.00104294
0.000815238
0.000942201
0.00328098
0.00691059
0.00743185
0.00673781
0.00378756
0.00184505
0.000958346
0.000523884
0.000382949
0.000354083
0.000355371
0.000418166
0.000514393
0.000561274
0.000585772
0.000594272
0.000596012
0.000588062
0.000568821
0.000556764
0.000541523
0.000519956
0.000504229
0.000490653
0.000475795
0.000472734
0.000474165
0.000478595
0.000484696
0.000491773
0.000500306
0.000510239
0.00051975
0.000523298
0.000523893
0.000523221
0.000519319
0.000509459
0.000492034
0.000464464
0.000431518
0.00039936
0.00037651
0.000364168
0.000357089
0.000351002
0.000342524
0.000333417
0.000326566
0.000321879
0.000317979
0.00031567
0.000314955
0.000314783
0.000314323
0.000313719
0.000312466
0.000310003
0.000306136
0.000301161
0.000294355
0.000283087
0.000264904
0.000237755
0.000205771
0.000172618
0.000144276
0.000123832
0.000108326
9.71871e-05
8.91792e-05
8.3115e-05
7.83052e-05
7.43498e-05
7.1089e-05
6.84078e-05
6.61577e-05
6.41833e-05
6.2371e-05
6.06652e-05
5.89908e-05
5.73396e-05
5.56709e-05
5.3739e-05
5.13241e-05
4.85335e-05
4.56376e-05
4.26879e-05
3.94858e-05
3.56243e-05
3.0832e-05
2.54646e-05
2.01973e-05
1.55985e-05
1.18196e-05
8.82969e-06
6.5406e-06
4.83507e-06
3.59322e-06
2.70625e-06
2.08217e-06
1.64715e-06
1.3442e-06
1.13064e-06
9.75443e-07
8.5723e-07
7.62156e-07
6.80198e-07
6.04538e-07
5.31068e-07
4.60362e-07
3.93911e-07
3.32757e-07
2.77588e-07
2.28737e-07
1.86227e-07
1.49835e-07
1.19158e-07
9.36687e-08
7.27598e-08
5.58196e-08
4.22769e-08
3.15999e-08
2.33009e-08
1.69429e-08
1.21436e-08
8.57595e-09
5.96562e-09
4.08677e-09
2.75672e-09
1.83069e-09
1.1966e-09
7.69733e-10
4.87207e-10
3.03354e-10
1.85749e-10
1.11828e-10
6.61899e-11
3.85046e-11
2.20373e-11
1.23722e-11
6.88045e-12
3.6904e-12
2.06255e-12
9.57372e-13
6.90314e-13
4.15483e-13
1.29788e-12
6.62173e-12
5.98234e-05
8.40245e-05
9.48285e-05
0.000149051
0.000306565
0.000507253
0.000689807
0.000938014
0.00137817
0.00167713
0.00206463
0.00246007
0.00337769
0.00418904
0.00503281
0.00571431
0.00638736
0.00655671
0.00639214
0.00592774
0.00523014
0.00462987
0.00378956
0.0030492
0.00261469
0.00227084
0.00205346
0.00171423
0.00109999
0.00115656
0.00369425
0.00623179
0.00672483
0.00595037
0.00283593
0.0013259
0.000704787
0.000466352
0.000389643
0.000379568
0.000409536
0.000518194
0.000608508
0.000647874
0.000665243
0.000670182
0.000669089
0.00065527
0.000637917
0.000622836
0.000610647
0.000597048
0.000580588
0.000571729
0.00056502
0.000563319
0.00056561
0.000567153
0.000564614
0.00055435
0.000549936
0.000547813
0.000544257
0.000539845
0.000534695
0.00053221
0.000529339
0.000523465
0.000515314
0.000504351
0.000483062
0.000455445
0.000423647
0.000392469
0.000370466
0.00035903
0.000352885
0.00034605
0.000337162
0.000329071
0.000325108
0.000323798
0.00032377
0.000324893
0.000327575
0.000331124
0.00033333
0.000334049
0.000333749
0.00033095
0.000327467
0.000323439
0.000320354
0.000317183
0.000311955
0.000300943
0.000279832
0.000245491
0.000202423
0.000160944
0.000128716
0.000108222
9.51223e-05
8.67048e-05
8.07138e-05
7.59251e-05
7.18973e-05
6.85814e-05
6.59267e-05
6.37919e-05
6.19924e-05
6.03741e-05
5.88159e-05
5.73576e-05
5.60343e-05
5.45815e-05
5.25814e-05
4.99814e-05
4.72204e-05
4.46249e-05
4.23081e-05
4.01398e-05
3.75873e-05
3.3984e-05
2.91509e-05
2.37302e-05
1.85645e-05
1.41401e-05
1.05281e-05
7.68485e-06
5.51584e-06
3.9108e-06
2.75859e-06
1.95545e-06
1.41063e-06
1.04911e-06
8.11757e-07
6.54195e-07
5.46738e-07
4.71066e-07
4.16381e-07
3.7251e-07
3.31994e-07
2.91354e-07
2.51275e-07
2.13034e-07
1.77638e-07
1.45771e-07
1.17785e-07
9.37587e-08
7.35615e-08
5.6909e-08
4.34196e-08
3.26722e-08
2.42449e-08
1.7739e-08
1.27936e-08
9.09235e-09
6.36554e-09
4.38855e-09
2.97837e-09
1.98906e-09
1.30668e-09
8.44011e-10
5.35808e-10
3.34193e-10
2.04754e-10
1.23165e-10
7.27721e-11
4.21518e-11
2.40419e-11
1.33497e-11
7.4268e-12
3.8367e-12
2.27858e-12
9.78986e-13
9.84587e-13
7.32617e-13
2.46563e-12
3.13697e-12
0.000158356
0.000157892
0.000120118
0.000188771
0.000370679
0.000569113
0.000880812
0.00127502
0.00171513
0.00215249
0.00285896
0.00426777
0.00650013
0.00826028
0.0107566
0.0130089
0.0142148
0.0140446
0.0133586
0.0118567
0.00929716
0.0070133
0.00517858
0.00387979
0.00339675
0.00301709
0.00238674
0.00166266
0.00144702
0.00374864
0.00563809
0.00599492
0.0050706
0.00235852
0.00110224
0.000603044
0.000432847
0.000390622
0.000390853
0.000433281
0.000568558
0.000651309
0.000686938
0.000700567
0.00070455
0.000707
0.000707318
0.000704049
0.000701332
0.000701861
0.000707317
0.000715271
0.000727047
0.000731674
0.000732429
0.00073029
0.000733087
0.000735294
0.000725604
0.000687864
0.00065559
0.000635402
0.000609232
0.000594914
0.000562608
0.000544637
0.000535357
0.00051914
0.000504299
0.00049495
0.000476039
0.000457658
0.00043315
0.000397603
0.000369473
0.000350737
0.000342688
0.000338743
0.000334546
0.000330989
0.00033083
0.000332977
0.000337474
0.000344563
0.000353473
0.00036173
0.000365368
0.000366317
0.000363329
0.000355139
0.000344769
0.000332828
0.000323662
0.000317674
0.000313217
0.000309778
0.00030424
0.000288547
0.000264659
0.000233723
0.000196108
0.000155514
0.000120957
9.95838e-05
8.79615e-05
8.09943e-05
7.58642e-05
7.15336e-05
6.78662e-05
6.49236e-05
6.26583e-05
6.08739e-05
5.93459e-05
5.78936e-05
5.65355e-05
5.53844e-05
5.43104e-05
5.283e-05
5.05008e-05
4.75655e-05
4.47074e-05
4.23173e-05
4.0475e-05
3.89863e-05
3.7307e-05
3.46864e-05
3.06934e-05
2.56618e-05
2.04591e-05
1.57646e-05
1.17967e-05
8.5812e-06
6.0734e-06
4.19197e-06
2.83476e-06
1.89273e-06
1.26279e-06
8.56005e-07
6.01082e-07
4.44124e-07
3.46595e-07
2.84118e-07
2.42885e-07
2.14583e-07
1.91654e-07
1.69307e-07
1.46667e-07
1.24498e-07
1.03574e-07
8.45105e-08
6.76865e-08
5.32573e-08
4.11954e-08
3.13441e-08
2.34679e-08
1.7295e-08
1.25472e-08
8.9609e-09
6.29941e-09
4.35829e-09
2.96687e-09
1.98667e-09
1.30817e-09
8.46772e-10
5.38617e-10
3.36523e-10
2.06476e-10
1.24337e-10
7.34909e-11
4.25833e-11
2.42553e-11
1.34564e-11
7.40911e-12
3.94513e-12
2.0927e-12
1.02859e-12
5.34597e-13
3.45346e-13
3.88475e-13
6.07922e-13
0.000294984
0.000221196
0.000123903
0.000224933
0.000450059
0.00072928
0.00115292
0.00163245
0.00207088
0.00297319
0.00477947
0.0071246
0.010211
0.013967
0.0173729
0.0196976
0.0206768
0.0205312
0.0199561
0.0187287
0.0159784
0.0124223
0.00883429
0.00597862
0.00426279
0.00310323
0.00230114
0.00191224
0.00367162
0.00514311
0.00543372
0.00456906
0.00206443
0.000986064
0.000558964
0.000415365
0.00038296
0.000393115
0.000440261
0.000578503
0.000670511
0.000716732
0.000736601
0.000746185
0.00076851
0.000788348
0.000816186
0.000852683
0.000902085
0.000969004
0.00105028
0.00114556
0.00125008
0.00133193
0.00138623
0.0014196
0.00143069
0.00139612
0.00134
0.00124425
0.00113563
0.00103358
0.000915715
0.000862188
0.000762989
0.000683926
0.000650586
0.000602259
0.000557161
0.000535112
0.000499811
0.000468899
0.000439974
0.000405699
0.000381913
0.000363829
0.000357014
0.000357018
0.000361662
0.000372752
0.000383861
0.000389647
0.00039265
0.000394485
0.000396429
0.000398976
0.000399325
0.000398038
0.000394034
0.000387159
0.000379345
0.000369845
0.000353018
0.000329244
0.000304449
0.000288421
0.000274709
0.000267202
0.000259176
0.000243779
0.00021901
0.000192236
0.0001638
0.000131522
0.000103583
8.81073e-05
8.00826e-05
7.50066e-05
7.07293e-05
6.67744e-05
6.35152e-05
6.11168e-05
5.94081e-05
5.80194e-05
5.66606e-05
5.53925e-05
5.43435e-05
5.34629e-05
5.24078e-05
5.06349e-05
4.78814e-05
4.47196e-05
4.18814e-05
3.97223e-05
3.82739e-05
3.72705e-05
3.6165e-05
3.42323e-05
3.0931e-05
2.63307e-05
2.12238e-05
1.64215e-05
1.22623e-05
8.83905e-06
6.15399e-06
4.14596e-06
2.71221e-06
1.73281e-06
1.09145e-06
6.87988e-07
4.43434e-07
2.9967e-07
2.16289e-07
1.6709e-07
1.37196e-07
1.18811e-07
1.05899e-07
9.40676e-08
8.1824e-08
6.94978e-08
5.76328e-08
4.66996e-08
3.70152e-08
2.87317e-08
2.18626e-08
1.6322e-08
1.19638e-08
8.61411e-09
6.09454e-09
4.23786e-09
2.89641e-09
1.94567e-09
1.28447e-09
8.33206e-10
5.30957e-10
3.32298e-10
2.04196e-10
1.23154e-10
7.28816e-11
4.22963e-11
2.40826e-11
1.34252e-11
7.33802e-12
3.93003e-12
2.06696e-12
1.05674e-12
5.23024e-13
2.53612e-13
1.42796e-13
1.45604e-13
0.000453797
0.000271958
0.000128917
0.000274136
0.000541705
0.000900846
0.00134835
0.0018097
0.00247082
0.00373281
0.00569067
0.00825851
0.0118496
0.0161964
0.0193963
0.0215837
0.0227159
0.0222868
0.0208045
0.0188275
0.0158539
0.0123423
0.00869831
0.00579492
0.00400733
0.00288072
0.00251044
0.00354199
0.00469173
0.00494632
0.00421904
0.0019167
0.000918414
0.000534292
0.000406047
0.000376774
0.000384908
0.000431229
0.000556177
0.000654983
0.000721633
0.000765658
0.000799615
0.000844266
0.000907656
0.000983503
0.00109947
0.00125871
0.00147197
0.00174639
0.00207051
0.00243289
0.00279974
0.00309112
0.00328638
0.00339952
0.00343629
0.00330344
0.00304866
0.00273303
0.00233515
0.00209109
0.00166496
0.00146176
0.00125678
0.00103824
0.000952832
0.000852789
0.00074776
0.000686866
0.000614333
0.000559865
0.000510108
0.000467803
0.00043418
0.000417459
0.00041024
0.000406795
0.000405127
0.000407173
0.00040871
0.000408057
0.000404347
0.000397992
0.00039105
0.00038339
0.000373882
0.000363823
0.000356861
0.000355323
0.000360976
0.000369881
0.000376321
0.000373223
0.000355519
0.000316104
0.000272154
0.000240468
0.000215428
0.000197788
0.000191356
0.000186149
0.000171798
0.000152378
0.000130096
0.000104817
8.68332e-05
7.77869e-05
7.28597e-05
6.90707e-05
6.52232e-05
6.16917e-05
5.90964e-05
5.7429e-05
5.63296e-05
5.5226e-05
5.41154e-05
5.31514e-05
5.23436e-05
5.14396e-05
5.00078e-05
4.76453e-05
4.45532e-05
4.14725e-05
3.89509e-05
3.72127e-05
3.61832e-05
3.5555e-05
3.48151e-05
3.33255e-05
3.03429e-05
2.59305e-05
2.08336e-05
1.59731e-05
1.17505e-05
8.29898e-06
5.63494e-06
3.68706e-06
2.33269e-06
1.43389e-06
8.62732e-07
5.14182e-07
3.09359e-07
1.93098e-07
1.28866e-07
9.34545e-08
7.35555e-08
6.23569e-08
5.54555e-08
4.95274e-08
4.32673e-08
3.67685e-08
3.03753e-08
2.44176e-08
1.91288e-08
1.46274e-08
1.09334e-08
7.9979e-09
5.73111e-09
4.02592e-09
2.77391e-09
1.87536e-09
1.24437e-09
8.10479e-10
5.18165e-10
3.25163e-10
2.00256e-10
1.21014e-10
7.17399e-11
4.17086e-11
2.37761e-11
1.32855e-11
7.27275e-12
3.90069e-12
2.04938e-12
1.05431e-12
5.29355e-13
2.61876e-13
1.18549e-13
6.93097e-14
0.000614796
0.000324435
0.000147552
0.0003026
0.000586036
0.000978208
0.00142687
0.00189818
0.00261649
0.00396419
0.00591378
0.00838702
0.0119659
0.0163541
0.0190964
0.020585
0.0211656
0.0207139
0.0192264
0.0171623
0.0141491
0.0108233
0.00726614
0.0046161
0.00338293
0.00303933
0.00356139
0.00425373
0.00446723
0.00380406
0.00178263
0.000871955
0.000518648
0.000401898
0.000374744
0.000376665
0.000412154
0.000511073
0.000635911
0.000706359
0.000785335
0.000848484
0.00093506
0.00106776
0.00122536
0.00141298
0.00172875
0.00219708
0.00282603
0.00363019
0.00458575
0.00560875
0.00658256
0.00736304
0.00782826
0.00803722
0.00808699
0.00766309
0.00684833
0.00622406
0.00485158
0.00410808
0.00338116
0.00248141
0.00204221
0.00152961
0.00131018
0.00109039
0.000964199
0.000875043
0.000775739
0.000703908
0.000629996
0.000568647
0.000515345
0.000473329
0.00044201
0.000421362
0.00041244
0.000406796
0.00039901
0.000383507
0.000359223
0.000329489
0.000298222
0.000267946
0.000240516
0.000216809
0.000198182
0.000187044
0.000188034
0.000215397
0.000273815
0.00034017
0.000368833
0.000365364
0.000336478
0.000280941
0.000224198
0.000182856
0.000154711
0.000137853
0.000137213
0.000141986
0.000136909
0.000120232
0.000101306
8.42641e-05
7.48969e-05
7.01453e-05
6.68321e-05
6.33479e-05
5.9673e-05
5.67713e-05
5.49617e-05
5.40854e-05
5.33603e-05
5.257e-05
5.17944e-05
5.10639e-05
5.01877e-05
4.88278e-05
4.66687e-05
4.37723e-05
4.07241e-05
3.8089e-05
3.6172e-05
3.49838e-05
3.43356e-05
3.38877e-05
3.32566e-05
3.19791e-05
2.90659e-05
2.44261e-05
1.92281e-05
1.44022e-05
1.03026e-05
7.05245e-06
4.63189e-06
2.92796e-06
1.78772e-06
1.05866e-06
6.11408e-07
3.47474e-07
1.97534e-07
1.15502e-07
7.20843e-08
4.93623e-08
3.7301e-08
3.10316e-08
2.76679e-08
2.49861e-08
2.19854e-08
1.8683e-08
1.53388e-08
1.21936e-08
9.4103e-09
7.06701e-09
5.1745e-09
3.69965e-09
2.58598e-09
1.76871e-09
1.18459e-09
7.77311e-10
4.99925e-10
3.15219e-10
1.94887e-10
1.18151e-10
7.02355e-11
4.09352e-11
2.33878e-11
1.30964e-11
7.18583e-12
3.8626e-12
2.03338e-12
1.04897e-12
5.28443e-13
2.62918e-13
1.24687e-13
6.01126e-14
0.000760535
0.000406804
0.00019584
0.000312454
0.000600476
0.00100409
0.00144073
0.00190312
0.00252271
0.0035305
0.00472531
0.00585594
0.00736138
0.00965301
0.0126156
0.0146254
0.015627
0.0158843
0.0145416
0.0125637
0.00957254
0.00674406
0.00466816
0.00379967
0.00354102
0.00367712
0.00390556
0.00399283
0.00328616
0.00160488
0.000827255
0.000513825
0.00040576
0.000378735
0.000376735
0.000406556
0.000515376
0.000659864
0.00075286
0.000844657
0.000951638
0.00106933
0.00124344
0.00146566
0.00178397
0.00231075
0.00317575
0.00432643
0.00567945
0.00764356
0.00989328
0.0123284
0.0146384
0.0165712
0.0177541
0.0182794
0.0183852
0.0172486
0.0146756
0.0129755
0.0105601
0.0079215
0.00659197
0.00478099
0.00355381
0.00251312
0.0018947
0.00140875
0.00115711
0.00097093
0.000864813
0.000769109
0.000693036
0.000622332
0.000557093
0.000500829
0.000455942
0.00042096
0.000394476
0.000372422
0.000350383
0.000325922
0.000300056
0.000273993
0.000248534
0.000223845
0.00019971
0.000176696
0.000156038
0.00013719
0.000120772
0.00010941
0.000109485
0.00013985
0.000237106
0.000325358
0.00034429
0.000325928
0.000279629
0.000223229
0.000167934
0.000129736
0.000109524
0.000103053
0.000110003
0.00011539
0.00010978
9.46883e-05
8.03885e-05
7.16652e-05
6.73341e-05
6.42481e-05
6.1001e-05
5.74165e-05
5.42873e-05
5.22323e-05
5.139e-05
5.10497e-05
5.06832e-05
5.0223e-05
4.96295e-05
4.87393e-05
4.73143e-05
4.51752e-05
4.24146e-05
3.94765e-05
3.68592e-05
3.48896e-05
3.36348e-05
3.29685e-05
3.26178e-05
3.22611e-05
3.15932e-05
3.01784e-05
2.681e-05
2.17228e-05
1.65067e-05
1.19163e-05
8.20038e-06
5.39782e-06
3.41057e-06
2.07562e-06
1.22076e-06
6.96361e-07
3.87056e-07
2.11194e-07
1.1466e-07
6.34737e-08
3.71084e-08
2.38218e-08
1.73363e-08
1.43953e-08
1.30712e-08
1.2025e-08
1.06929e-08
9.08153e-09
7.38915e-09
5.78754e-09
4.38475e-09
3.22456e-09
2.3074e-09