/*--------------------------------*- C++ -*----------------------------------*\
  =========                 |
  \\      /  F ield         | OpenFOAM: The Open Source CFD Toolbox
   \\    /   O peration     | Website:  https://openfoam.org
    \\  /    A nd           | Version:  7
     \\/     M anipulation  |
\*---------------------------------------------------------------------------*/
FoamFile
{
    version     2.0;
    format      ascii;
    class       volScalarField;
    location    "0.053";
    object      p;
}
// * * * * * * * * * * * * * * * * * * * * * * * * * * * * * * * * * * * * * //

dimensions      [0 2 -2 0 0 0 0];

internalField   nonuniform List<scalar> 
12225
(
411.776
409.401
407.006
404.644
402.352
400.07
397.747
395.376
392.98
390.582
388.188
385.795
383.39
380.954
378.461
375.872
373.1
369.934
412.379
409.368
406.985
404.648
402.355
400.067
397.743
395.376
392.986
390.592
388.2
385.809
383.406
380.975
378.489
375.915
373.187
370.172
412.401
409.259
406.94
404.646
402.356
400.067
397.749
395.39
393.007
390.616
388.226
385.837
383.44
381.018
378.549
376.006
373.35
370.531
411.693
409.133
406.894
404.657
402.379
400.087
397.769
395.416
393.039
390.654
388.269
385.886
383.495
381.086
378.641
376.141
373.573
370.943
411.253
408.982
406.843
404.664
402.406
400.117
397.802
395.456
393.086
390.707
388.328
385.951
383.572
381.181
378.767
376.322
373.85
371.386
411.006
408.851
406.796
404.682
402.451
400.168
397.854
395.514
393.152
390.78
388.408
386.041
383.676
381.308
378.932
376.548
374.173
371.85
410.608
408.671
406.763
404.715
402.516
400.241
397.93
395.593
393.238
390.874
388.512
386.157
383.811
381.47
379.136
376.816
374.532
372.327
409.54
408.519
406.762
404.767
402.598
400.336
398.029
395.697
393.349
390.994
388.642
386.302
383.976
381.667
379.378
377.122
374.923
372.815
409.242
408.458
406.808
404.863
402.719
400.467
398.162
395.833
393.49
391.144
388.804
386.48
384.178
381.901
379.658
377.463
375.338
373.312
409.813
408.533
406.917
404.996
402.87
400.629
398.33
396.005
393.667
391.328
389
386.694
384.416
382.173
379.975
377.837
375.776
373.818
408.648
408.666
407.115
405.201
403.079
400.84
398.539
396.214
393.879
391.549
389.234
386.946
384.693
382.483
380.327
378.239
376.234
374.331
409.934
409.077
407.407
405.45
403.316
401.075
398.776
396.452
394.12
391.795
389.49
387.218
384.986
382.805
380.684
378.636
376.674
374.812
411.124
409.659
407.778
405.76
403.61
401.359
399.054
396.727
394.395
392.074
389.778
387.52
385.308
383.152
381.062
379.05
377.125
375.296
413.056
410.461
408.302
406.201
404.018
401.749
399.435
397.102
394.766
392.446
390.157
387.913
385.721
383.591
381.532
379.552
377.659
375.86
415.255
411.374
408.98
406.806
404.587
402.293
399.959
397.611
395.268
392.944
390.657
388.42
386.243
384.133
382.098
380.146
378.281
376.506
412.65
411.672
409.754
407.629
405.386
403.057
400.688
398.313
395.949
393.61
391.317
389.082
386.914
384.818
382.799
380.865
379.017
377.258
413.677
412.94
411.013
408.847
406.533
404.129
401.696
399.267
396.858
394.485
392.167
389.916
387.739
385.642
383.627
381.7
379.861
378.108
420.346
415.782
413.019
410.599
408.15
405.636
403.104
400.585
398.098
395.661
393.292
391.002
388.796
386.676
384.645
382.705
380.855
379.093
414.1
415.983
415.058
412.961
410.467
407.798
405.07
402.364
399.719
397.154
394.682
392.309
390.036
387.864
385.792
383.818
381.938
380.15
424.588
422.306
419.546
416.511
413.382
410.268
407.217
404.258
401.411
398.684
396.079
393.597
391.235
388.991
386.859
384.835
382.914
381.092
434.069
427.832
423.527
419.63
415.893
412.325
408.929
405.707
402.659
399.777
397.052
394.476
392.041
389.738
387.559
385.496
383.541
381.688
434.514
431.113
426.709
422.3
418.094
414.151
410.459
407.007
403.779
400.756
397.919
395.253
392.746
390.385
388.158
386.056
384.07
382.193
438.155
434.653
429.609
424.54
419.836
415.526
411.566
407.917
404.544
401.412
398.493
395.766
393.21
390.81
388.551
386.422
384.414
382.516
445.33
438.603
432.301
426.532
421.37
416.745
412.562
408.745
405.236
401.999
399
396.212
393.61
391.172
388.883
386.728
384.698
382.781
450.873
442.021
434.433
427.973
422.406
417.523
413.167
409.226
405.632
402.337
399.294
396.475
393.847
391.389
389.083
386.915
384.874
382.95
454.715
444.636
436.128
429.145
423.279
418.203
413.714
409.666
405.989
402.633
399.548
396.695
394.043
391.565
389.244
387.063
385.01
383.074
458.871
446.62
437.246
429.855
423.804
418.599
413.996
409.882
406.169
402.782
399.681
396.814
394.149
391.663
389.334
387.148
385.089
383.148
461.737
448.091
438.036
430.397
424.182
418.881
414.212
410.057
406.313
402.906
399.785
396.903
394.229
391.735
389.401
387.21
385.146
383.199
463.121
448.701
438.414
430.661
424.373
419.009
414.306
410.129
406.373
402.958
399.83
396.943
394.265
391.769
389.433
387.24
385.174
383.224
464.445
449.067
438.578
430.798
424.464
419.072
414.358
410.173
406.407
402.985
399.851
396.962
394.284
391.789
389.454
387.26
385.192
383.24
338.379
338.371
338.369
338.362
338.316
338.223
338.079
337.883
337.642
337.361
337.047
336.706
336.346
335.975
335.602
335.236
334.885
334.555
334.249
333.966
333.705
333.46
333.223
332.984
332.735
332.462
332.155
331.8
331.386
330.923
330.432
329.93
329.456
329.055
328.547
328.056
327.557
326.945
326.275
325.628
325.129
324.765
324.151
323.22
322.001
320.582
319.046
317.458
315.863
314.293
312.765
311.293
309.884
308.544
307.276
306.083
304.967
303.927
302.964
302.076
301.258
300.507
299.822
299.195
298.616
298.074
297.559
297.058
296.561
296.062
295.554
295.035
294.505
293.963
293.41
292.848
292.279
291.704
291.125
290.543
289.958
289.372
288.782
288.19
287.593
286.987
286.371
285.737
285.082
284.398
283.679
282.92
282.116
281.265
280.365
279.415
278.415
277.366
276.269
275.124
273.935
272.702
271.429
270.119
268.776
267.403
266.004
264.582
263.14
261.681
260.205
258.716
257.213
255.698
254.171
252.634
251.084
249.524
247.953
246.372
244.779
243.175
241.561
239.935
238.298
236.649
234.99
233.319
231.637
229.942
228.237
226.519
224.789
223.047
221.293
219.526
217.746
215.954
214.148
212.329
210.497
208.651
206.791
204.918
203.03
201.128
199.211
197.28
195.334
193.373
191.397
189.406
187.399
185.377
183.339
181.285
179.215
177.13
175.028
172.909
170.774
168.623
166.455
164.271
162.07
159.852
157.617
155.367
153.099
150.816
148.518
146.204
143.876
141.535
139.182
136.82
134.453
132.084
129.727
127.384
338.367
338.36
338.359
338.34
338.282
338.177
338.023
337.822
337.578
337.296
336.979
336.634
336.268
335.89
335.509
335.135
334.775
334.436
334.123
333.837
333.575
333.333
333.1
332.868
332.625
332.361
332.063
331.723
331.331
330.878
330.422
329.97
329.501
329.063
328.553
327.946
327.431
327.062
326.473
325.504
324.778
324.229
323.508
322.53
321.309
319.92
318.433
316.904
315.37
313.856
312.379
310.95
309.576
308.264
307.019
305.844
304.743
303.716
302.766
301.892
301.093
300.366
299.701
299.091
298.528
298
297.497
297.007
296.52
296.028
295.526
295.011
294.482
293.94
293.387
292.824
292.252
291.675
291.093
290.509
289.922
289.333
288.742
288.148
287.549
286.944
286.328
285.697
285.044
284.363
283.648
282.892
282.091
281.242
280.343
279.395
278.397
277.35
276.255
275.112
273.924
272.694
271.422
270.113
268.771
267.398
266
264.578
263.136
261.677
260.202
258.712
257.21
255.695
254.169
252.631
251.082
249.522
247.951
246.37
244.777
243.173
241.559
239.933
238.296
236.648
234.989
233.318
231.636
229.942
228.236
226.518
224.789
223.047
221.292
219.525
217.746
215.953
214.148
212.329
210.497
208.651
206.791
204.917
203.03
201.128
199.211
197.28
195.334
193.373
191.397
189.406
187.399
185.377
183.339
181.285
179.215
177.13
175.028
172.909
170.774
168.623
166.455
164.271
162.069
159.851
157.617
155.366
153.099
150.816
148.517
146.203
143.874
141.532
139.179
136.816
134.447
132.074
129.712
127.354
338.407
338.402
338.385
338.338
338.251
338.122
337.951
337.737
337.482
337.187
336.857
336.497
336.115
335.72
335.324
334.936
334.568
334.227
333.917
333.638
333.389
333.162
332.946
332.73
332.503
332.259
331.991
331.696
331.376
331.026
330.65
330.237
329.803
329.282
328.775
328.372
327.566
326.86
326.214
325.378
324.468
323.535
322.53
321.417
320.192
318.876
317.495
316.077
314.645
313.217
311.808
310.432
309.1
307.822
306.605
305.456
304.378
303.375
302.449
301.6
300.825
300.119
299.477
298.892
298.354
297.852
297.373
296.905
296.436
295.959
295.468
294.96
294.434
293.894
293.339
292.772
292.197
291.614
291.027
290.437
289.846
289.252
288.657
288.059
287.459
286.853
286.239
285.611
284.963
284.288
283.579
282.83
282.034
281.19
280.295
279.351
278.356
277.313
276.222
275.083
273.9
272.673
271.404
270.098
268.757
267.385
265.988
264.567
263.125
261.667
260.192
258.703
257.202
255.687
254.161
252.624
251.076
249.517
247.946
246.365
244.773
243.17
241.555
239.93
238.293
236.646
234.986
233.316
231.634
229.94
228.234
226.517
224.788
223.046
221.292
219.525
217.746
215.953
214.148
212.329
210.497
208.651
206.791
204.917
203.03
201.128
199.211
197.28
195.334
193.373
191.397
189.406
187.399
185.377
183.339
181.285
179.215
177.129
175.027
172.909
170.774
168.623
166.455
164.27
162.069
159.851
157.616
155.365
153.097
150.814
148.514
146.199
143.87
141.527
139.171
136.805
134.432
132.052
129.677
127.296
338.504
338.49
338.442
338.358
338.236
338.078
337.88
337.641
337.36
337.036
336.672
336.274
335.853
335.42
334.99
334.577
334.192
333.847
333.545
333.289
333.076
332.893
332.725
332.556
332.376
332.172
331.946
331.698
331.422
331.133
330.82
330.43
330.056
329.689
328.907
328.24
327.517
326.672
325.767
324.793
323.77
322.69
321.558
320.372
319.135
317.851
316.529
315.181
313.817
312.451
311.096
309.765
308.471
307.226
306.04
304.922
303.877
302.908
302.018
301.203
300.462
299.793
299.189
298.64
298.137
297.667
297.218
296.775
296.33
295.871
295.393
294.894
294.373
293.832
293.274
292.703
292.119
291.528
290.933
290.335
289.735
289.133
288.531
287.928
287.323
286.716
286.103
285.48
284.839
284.174
283.476
282.736
281.948
281.111
280.222
279.282
278.292
277.254
276.169
275.038
273.861
272.639
271.376
270.073
268.735
267.366
265.969
264.549
263.109
261.652
260.178
258.691
257.19
255.677
254.152
252.615
251.068
249.509
247.939
246.359
244.767
243.164
241.551
239.926
238.289
236.642
234.983
233.313
231.631
229.937
228.232
226.515
224.785
223.044
221.29
219.524
217.744
215.952
214.147
212.328
210.496
208.65
206.79
204.917
203.029
201.127
199.211
197.279
195.333
193.373
191.397
189.405
187.399
185.376
183.339
181.285
179.215
177.129
175.027
172.909
170.774
168.622
166.454
164.269
162.068
159.85
157.615
155.363
153.095
150.811
148.511
146.195
143.864
141.52
139.162
136.792
134.414
132.026
129.636
127.233
338.64
338.604
338.519
338.396
338.24
338.047
337.811
337.53
337.198
336.816
336.386
335.919
335.428
334.93
334.444
333.989
333.58
333.23
332.947
332.734
332.585
332.48
332.394
332.304
332.192
332.053
331.879
331.666
331.427
331.157
330.859
330.533
330.075
329.538
328.856
328.034
327.137
326.16
325.119
324.032
322.918
321.772
320.597
319.394
318.163
316.906
315.623
314.317
312.994
311.666
310.344
309.041
307.774
306.555
305.399
304.314
303.309
302.384
301.54
300.776
300.09
299.474
298.917
298.41
297.943
297.503
297.079
296.658
296.229
295.784
295.316
294.823
294.305
293.764
293.203
292.623
292.029
291.425
290.817
290.207
289.595
288.983
288.37
287.758
287.147
286.537
285.925
285.307
284.676
284.024
283.339
282.613
281.836
281.007
280.123
279.188
278.204
277.172
276.095
274.973
273.805
272.592
271.335
270.038
268.704
267.337
265.943
264.525
263.087
261.631
260.159
258.673
257.173
255.662
254.138
252.603
251.056
249.499
247.93
246.35
244.759
243.157
241.544
239.92
238.284
236.637
234.978
233.308
231.627
229.933
228.228
226.511
224.782
223.041
221.288
219.521
217.742
215.95
214.145
212.327
210.495
208.649
206.789
204.916
203.028
201.126
199.21
197.279
195.333
193.372
191.396
189.405
187.398
185.376
183.338
181.285
179.215
177.129
175.027
172.908
170.773
168.622
166.454
164.269
162.067
159.849
157.613
155.362
153.093
150.808
148.507
146.19
143.858
141.511
139.151
136.777
134.393
131.996
129.592
127.17
338.785
338.727
338.611
338.458
338.269
338.036
337.751
337.408
337.003
336.534
336.008
335.441
334.854
334.27
333.71
333.197
332.752
332.394
332.134
331.978
331.915
331.914
331.938
331.955
331.937
331.864
331.734
331.556
331.327
331.059
330.749
330.34
329.823
329.177
328.4
327.51
326.53
325.482
324.381
323.246
322.095
320.933
319.763
318.577
317.369
316.135
314.871
313.581
312.268
310.945
309.625
308.325
307.064
305.858
304.723
303.67
302.706
301.835
301.055
300.357
299.732
299.171
298.666
298.204
297.775
297.366
296.967
296.565
296.151
295.716
295.254
294.764
294.246
293.703
293.137
292.55
291.945
291.327
290.703
290.077
289.451
288.825
288.199
287.576
286.955
286.339
285.726
285.112
284.492
283.854
283.186
282.475
281.711
280.89
280.011
279.078
278.095
277.068
275.999
274.887
273.731
272.529
271.282
269.992
268.663
267.301
265.91
264.494
263.058
261.604
260.134
258.65
257.153
255.643
254.121
252.587
251.042
249.486
247.919
246.34
244.75
243.149
241.536
239.912
238.277
236.63
234.972
233.303
231.621
229.929
228.224
226.507
224.779
223.038
221.284
219.518
217.74
215.948
214.143
212.325
210.493
208.647
206.788
204.915
203.027
201.125
199.209
197.278
195.332
193.371
191.395
189.404
187.398
185.376
183.338
181.284
179.214
177.129
175.026
172.908
170.773
168.621
166.453
164.268
162.066
159.847
157.612
155.36
153.09
150.805
148.503
146.185
143.851
141.502
139.138
136.76
134.37
131.965
129.548
127.109
338.947
338.874
338.745
338.574
338.356
338.083
337.744
337.331
336.84
336.273
335.647
334.984
334.312
333.652
333.026
332.455
331.971
331.597
331.351
331.239
331.245
331.334
331.456
331.562
331.617
331.606
331.518
331.347
331.116
330.822
330.439
329.957
329.356
328.631
327.798
326.873
325.867
324.799
323.689
322.558
321.419
320.276
319.124
317.953
316.75
315.507
314.221
312.896
311.545
310.181
308.824
307.494
306.213
305.001
303.874
302.844
301.918
301.099
300.382
299.758
299.215
298.739
298.313
297.925
297.559
297.203
296.846
296.478
296.088
295.669
295.217
294.729
294.209
293.659
293.084
292.488
291.871
291.24
290.599
289.956
289.313
288.671
288.03
287.392
286.759
286.132
285.512
284.898
284.283
283.658
283.009
282.318
281.573
280.765
279.894
278.963
277.981
276.954
275.889
274.785
273.639
272.45
271.214
269.933
268.612
267.255
265.868
264.456
263.023
261.572
260.104
258.623
257.128
255.62
254.1
252.568
251.025
249.471
247.905
246.328
244.739
243.139
241.527
239.904
238.269
236.623
234.965
233.296
231.615
229.923
228.218
226.502
224.774
223.033
221.28
219.515
217.736
215.945
214.14
212.322
210.49
208.645
206.786
204.913
203.025
201.124
199.208
197.277
195.331
193.37
191.395
189.404
187.397
185.375
183.337
181.284
179.214
177.128
175.026
172.907
170.772
168.621
166.452
164.267
162.065
159.846
157.61
155.357
153.088
150.801
148.498
146.179
143.843
141.492
139.125
136.743
134.346
131.933
129.503
127.05
339.194
339.116
338.987
338.808
338.57
338.266
337.885
337.418
336.863
336.234
335.555
334.852
334.146
333.45
332.779
332.157
331.623
331.212
330.948
330.837
330.863
330.984
331.146
331.292
331.378
331.375
331.274
331.094
330.833
330.486
330.051
329.51
328.856
328.097
327.243
326.303
325.292
324.231
323.138
322.031
320.914
319.783
318.626
317.43
316.184
314.884
313.533
312.139
310.716
309.285
307.866
306.484
305.165
303.933
302.805
301.796
300.912
300.151
299.515
298.99
298.553
298.184
297.861
297.567
297.285
297.001
296.703
296.379
296.023
295.628
295.19
294.709
294.188
293.633
293.049
292.441
291.811
291.164
290.507
289.845
289.182
288.522
287.864
287.209
286.56
285.919
285.287
284.665
284.05
283.434
282.802
282.134
281.411
280.623
279.765
278.843
277.865
276.841
275.778
274.677
273.539
272.358
271.133
269.862
268.549
267.199
265.817
264.41
262.981
261.534
260.07
258.591
257.099
255.593
254.076
252.546
251.005
249.453
247.889
246.313
244.726
243.127
241.517
239.895
238.261
236.615
234.958
233.289
231.608
229.916
228.212
226.496
224.768
223.028
221.276
219.51
217.732
215.941
214.137
212.319
210.488
208.643
206.784
204.911
203.023
201.122
199.206
197.275
195.33
193.369
191.394
189.403
187.396
185.374
183.337
181.283
179.213
177.128
175.025
172.907
170.772
168.62
166.451
164.266
162.064
159.844
157.608
155.355
153.085
150.797
148.493
146.172
143.835
141.481
139.111
136.724
134.321
131.9
129.46
126.993
339.613
339.539
339.414
339.234
338.988
338.67
338.268
337.777
337.198
336.554
335.873
335.175
334.474
333.775
333.085
332.431
331.856
331.4
331.097
330.948
330.945
331.037
331.166
331.272
331.309
331.259
331.121
330.898
330.593
330.21
329.737
329.16
328.481
327.704
326.838
325.892
324.886
323.837
322.761
321.667
320.552
319.404
318.21
316.957
315.64
314.26
312.823
311.341
309.828
308.307
306.803
305.345
303.966
302.695
301.557
300.568
299.735
299.059
298.52
298.104
297.788
297.543
297.342
297.159
296.973
296.768
296.532
296.258
295.939
295.571
295.152
294.684
294.169
293.613
293.024
292.406
291.765
291.105
290.431
289.75
289.068
288.389
287.714
287.046
286.384
285.732
285.09
284.458
283.837
283.222
282.601
281.948
281.242
280.467
279.62
278.708
277.74
276.724
275.666
274.57
273.436
272.262
271.044
269.781
268.476
267.133
265.758
264.356
262.933
261.49
260.03
258.555
257.066
255.563
254.049
252.522
250.983
249.432
247.87
246.297
244.711
243.114
241.505
239.884
238.251
236.606
234.949
233.281
231.601
229.909
228.205
226.489
224.762
223.022
221.27
219.505
217.728
215.937
214.133
212.315
210.484
208.64
206.781
204.908
203.021
201.12
199.204
197.273
195.328
193.368
191.392
189.402
187.395
185.373
183.336
181.282
179.213
177.127
175.025
172.906
170.771
168.619
166.451
164.265
162.062
159.843
157.606
155.352
153.081
150.793
148.488
146.165
143.826
141.469
139.096
136.705
134.296
131.868
129.418
126.94
340.253
340.182
340.064
339.889
339.645
339.329
338.931
338.441
337.87
337.248
336.599
335.94
335.278
334.612
333.945
333.302
332.721
332.248
331.904
331.692
331.599
331.583
331.594
331.583
331.514
331.376
331.166
330.89
330.55
330.134
329.626
329.019
328.315
327.518
326.637
325.684
324.678
323.632
322.558
321.455
320.315
319.126
317.874
316.549
315.149
313.676
312.134
310.537
308.901
307.251
305.62
304.045
302.568
301.227
300.055
299.074
298.295
297.709
297.293
297.025
296.87
296.788
296.742
296.697
296.627
296.514
296.348
296.124
295.841
295.5
295.1
294.646
294.14
293.588
292.998
292.377
291.729
291.06
290.376
289.684
288.988
288.295
287.608
286.928
286.258
285.598
284.949
284.31
283.681
283.059
282.433
281.783
281.085
280.319
279.477
278.565
277.599
276.591
275.545
274.459
273.332
272.162
270.949
269.692
268.393
267.058
265.69
264.295
262.877
261.44
259.985
258.514
257.029
255.53
254.018
252.494
250.958
249.41
247.85
246.278
244.695
243.099
241.491
239.872
238.24
236.596
234.94
233.272
231.593
229.901
228.198
226.482
224.755
223.016
221.264
219.499
217.722
215.932
214.128
212.311
210.481
208.636
206.778
204.905
203.019
201.117
199.202
197.271
195.326
193.366
191.391
189.4
187.394
185.373
183.335
181.282
179.212
177.126
175.024
172.906
170.77
168.618
166.45
164.264
162.061
159.841
157.604
155.35
153.078
150.789
148.482
146.158
143.817
141.458
139.081
136.686
134.272
131.837
129.378
126.89
341.124
341.059
340.949
340.782
340.549
340.247
339.864
339.396
338.855
338.269
337.663
337.055
336.449
335.846
335.247
334.669
334.139
333.682
333.304
333.007
332.778
332.593
332.423
332.241
332.033
331.79
331.508
331.183
330.798
330.334
329.779
329.13
328.389
327.561
326.657
325.689
324.671
323.613
322.521
321.389
320.206
318.96
317.637
316.23
314.733
313.144
311.467
309.713
307.906
306.078
304.271
302.534
300.918
299.476
298.252
297.271
296.549
296.061
295.796
295.715
295.766
295.893
296.044
296.173
296.247
296.247
296.164
295.996
295.749
295.429
295.043
294.597
294.095
293.545
292.954
292.33
291.682
291.013
290.329
289.633
288.932
288.229
287.529
286.836
286.153
285.481
284.82
284.167
283.524
282.89
282.259
281.61
280.915
280.155
279.325
278.424
277.462
276.454
275.412
274.337
273.222
272.059
270.849
269.596
268.303
266.974
265.614
264.226
262.816
261.385
259.936
258.47
256.989
255.494
253.985
252.464
250.931
249.385
247.827
246.258
244.676
243.083
241.477
239.858
238.228
236.585
234.93
233.263
231.584
229.893
228.19
226.475
224.748
223.009
221.257
219.493
217.716
215.926
214.123
212.307
210.476
208.632
206.774
204.902
203.016
201.115
199.199
197.269
195.324
193.364
191.389
189.399
187.393
185.371
183.334
181.281
179.211
177.126
175.024
172.905
170.77
168.618
166.449
164.263
162.06
159.839
157.602
155.347
153.074
150.784
148.477
146.151
143.808
141.446
139.066
136.667
134.247
131.806
129.339
126.843
342.214
342.156
342.052
341.897
341.682
341.4
341.043
340.606
340.1
339.547
338.974
338.397
337.828
337.268
336.721
336.194
335.696
335.233
334.813
334.436
334.095
333.778
333.473
333.169
332.859
332.537
332.191
331.802
331.347
330.812
330.193
329.487
328.696
327.828
326.891
325.895
324.852
323.767
322.641
321.466
320.229
318.916
317.515
316.013
314.399
312.669
310.823
308.877
306.86
304.816
302.797
300.863
299.078
297.508
296.21
295.215
294.537
294.17
294.079
294.212
294.503
294.874
295.256
295.59
295.834
295.968
295.981
295.877
295.667
295.367
294.991
294.546
294.042
293.485
292.888
292.261
291.614
290.951
290.275
289.585
288.882
288.173
287.461
286.754
286.055
285.366
284.687
284.013
283.345
282.688
282.043
281.4
280.727
279.994
279.183
278.292
277.336
276.329
275.288
274.215
273.106
271.951
270.747
269.497
268.208
266.885
265.532
264.152
262.749
261.325
259.882
258.422
256.946
255.455
253.95
252.432
250.901
249.358
247.803
246.236
244.656
243.065
241.46
239.844
238.215
236.573
234.919
233.253
231.575
229.884
228.182
226.467
224.74
223.001
221.25
219.487
217.71
215.921
214.118
212.302
210.472
208.628
206.77
204.898
203.012
201.112
199.197
197.267
195.322
193.362
191.387
189.397
187.392
185.37
183.333
181.28
179.211
177.125
175.023
172.904
170.769
168.617
166.448
164.262
162.058
159.838
157.6
155.344
153.071
150.78
148.471
146.144
143.799
141.434
139.051
136.648
134.224
131.776
129.303
126.799
343.487
343.432
343.337
343.197
343.003
342.748
342.425
342.026
341.558
341.04
340.492
339.932
339.375
338.826
338.29
337.769
337.267
336.787
336.331
335.901
335.493
335.103
334.724
334.351
333.975
333.583
333.156
332.677
332.132
331.514
330.82
330.049
329.203
328.287
327.309
326.278
325.2
324.078
322.909
321.682
320.385
319.002
317.518
315.915
314.176
312.292
310.263
308.111
305.873
303.602
301.361
299.22
297.257
295.552
294.175
293.165
292.537
292.282
292.36
292.705
293.234
293.849
294.461
294.998
295.414
295.685
295.8
295.764
295.593
295.314
294.948
294.505
293.992
293.42
292.805
292.168
291.522
290.871
290.212
289.538
288.846
288.138
287.42
286.703
285.992
285.291
284.596
283.902
283.205
282.515
281.845
281.194
280.537
279.835
279.056
278.19
277.244
276.235
275.184
274.104
272.993
271.841
270.641
269.395
268.111
266.793
265.447
264.074
262.679
261.262
259.825
258.371
256.9
255.413
253.912
252.397
250.869
249.329
247.777
246.212
244.635
243.045
241.443
239.828
238.201
236.561
234.908
233.243
231.565
229.875
228.173
226.459
224.732
222.994
221.243
219.48
217.704
215.915
214.112
212.296
210.467
208.623
206.766
204.894
203.009
201.108
199.193
197.264
195.319
193.36
191.385
189.395
187.39
185.369
183.332
181.279
179.21
177.124
175.022
172.904
170.768
168.616
166.447
164.26
162.057
159.836
157.597
155.341
153.067
150.775
148.465
146.137
143.789
141.423
139.037
136.63
134.201
131.748
129.269
126.759
344.896
344.844
344.758
344.635
344.465
344.24
343.955
343.601
343.18
342.701
342.184
341.645
341.097
340.55
340.01
339.48
338.967
338.47
337.99
337.525
337.075
336.636
336.201
335.761
335.303
334.813
334.281
333.7
333.061
332.361
331.593
330.759
329.858
328.895
327.875
326.805
325.688
324.524
323.308
322.028
320.672
319.223
317.662
315.965
314.11
312.084
309.889
307.551
305.115
302.643
300.207
297.886
295.77
293.952
292.509
291.483
290.893
290.729
290.946
291.468
292.199
293.019
293.822
294.52
295.064
295.438
295.635
295.657
295.52
295.261
294.907
294.469
293.951
293.361
292.718
292.056
291.399
290.758
290.124
289.483
288.821
288.135
287.429
286.714
286
285.291
284.585
283.871
283.142
282.407
281.695
281.019
280.364
279.682
278.933
278.091
277.158
276.153
275.098
274.008
272.889
271.733
270.535
269.294
268.014
266.702
265.361
263.996
262.607
261.196
259.765
258.317
256.851
255.369
253.871
252.36
250.836
249.299
247.749
246.187
244.612
243.024
241.424
239.811
238.186
236.547
234.895
233.231
231.555
229.865
228.164
226.45
224.725
222.986
221.236
219.473
217.697
215.908
214.106
212.291
210.461
208.618
206.761
204.89
203.005
201.105
199.19
197.261
195.317
193.358
191.383
189.394
187.388
185.367
183.331
181.278
179.209
177.123
175.021
172.903
170.768
168.615
166.446
164.259
162.055
159.834
157.595
155.338
153.064
150.771
148.46
146.13
143.78
141.412
139.023
136.612
134.179
131.721
129.236
126.721
346.396
346.349
346.274
346.167
346.019
345.824
345.577
345.269
344.899
344.471
343.998
343.494
342.972
342.441
341.911
341.386
340.868
340.36
339.86
339.366
338.871
338.368
337.848
337.302
336.724
336.114
335.468
334.785
334.058
333.281
332.449
331.558
330.609
329.604
328.546
327.439
326.284
325.081
323.82
322.493
321.086
319.581
317.956
316.187
314.245
312.116
309.801
307.329
304.751
302.138
299.566
297.125
294.912
293.024
291.538
290.5
289.93
289.824
290.124
290.747
291.606
292.544
293.455
294.242
294.85
295.27
295.506
295.562
295.449
295.205
294.865
294.441
293.926
293.317
292.635
291.929
291.241
290.595
289.984
289.383
288.769
288.128
287.457
286.763
286.056
285.345
284.633
283.911
283.163
282.388
281.619
280.897
280.22
279.54
278.805
277.982
277.063
276.065
275.01
273.917
272.791
271.631
270.432
269.194
267.919
266.613
265.278
263.918
262.534
261.129
259.704
258.26
256.799
255.322
253.829
252.322
250.8
249.266
247.719
246.16
244.587
243.002
241.404
239.793
238.169
236.532
234.882
233.219
231.544
229.855
228.155
226.442
224.717
222.979
221.229
219.466
217.691
215.902
214.1
212.285
210.456
208.613
206.756
204.885
203
201.101
199.186
197.258
195.314
193.355
191.381
189.391
187.386
185.366
183.329
181.277
179.208
177.123
175.021
172.902
170.767
168.615
166.445
164.258
162.054
159.832
157.593
155.336
153.06
150.766
148.454
146.123
143.772
141.401
139.009
136.595
134.159
131.696
129.206
126.685
348.01
347.971
347.912
347.82
347.688
347.513
347.291
347.019
346.693
346.315
345.891
345.433
344.952
344.457
343.955
343.449
342.939
342.424
341.9
341.361
340.797
340.2
339.563
338.887
338.178
337.442
336.685
335.906
335.098
334.253
333.364
332.426
331.438
330.397
329.306
328.165
326.975
325.74
324.44
323.074
321.626
320.079
318.411
316.597
314.61
312.432
310.064
307.533
304.895
302.221
299.596
297.113
294.871
292.962
291.462
290.413
289.837
289.732
290.04
290.679
291.541
292.49
293.407
294.197
294.801
295.204
295.427
295.488
295.385
295.146
294.813
294.408
293.913
293.3
292.577
291.806
291.062
290.386
289.776
289.204
288.641
288.063
287.45
286.796
286.108
285.403
284.693
283.977
283.234
282.45
281.648
280.875
280.149
279.434
278.683
277.861
276.953
275.965
274.916
273.824
272.695
271.531
270.33
269.094
267.824
266.522
265.193
263.839
262.461
261.061
259.641
258.202
256.745
255.273
253.784
252.281
250.763
249.232
247.688
246.131
244.561
242.979
241.383
239.774
238.152
236.517
234.868
233.207
231.532
229.845
228.145
226.433
224.708
222.971
221.222
219.459
217.684
215.896
214.094
212.279
210.45
208.608
206.751
204.881
202.996
201.096
199.183
197.254
195.311
193.352
191.378
189.389
187.385
185.364
183.328
181.276
179.207
177.122
175.02
172.902
170.766
168.614
166.444
164.257
162.053
159.831
157.591
155.333
153.057
150.762
148.449
146.116
143.764
141.391
138.996
136.58
134.139
131.673
129.179
126.653
349.666
349.634
349.587
349.498
349.366
349.19
348.97
348.708
348.405
348.058
347.671
347.25
346.804
346.34
345.861
345.37
344.862
344.336
343.784
343.196
342.564
341.878
341.137
340.349
339.527
338.686
337.833
336.971
336.093
335.191
334.257
333.284
332.267
331.201
330.086
328.921
327.705
326.438
325.112
323.718
322.246
320.678
318.996
317.177
315.198
313.041
310.703
308.21
305.612
302.979
300.396
297.954
295.747
293.859
292.36
291.293
290.682
290.523
290.76
291.31
292.069
292.911
293.718
294.409
294.931
295.259
295.419
295.443
295.333
295.093
294.762
294.369
293.899
293.305
292.565
291.738
290.927
290.201
289.562
288.987
288.452
287.93
287.385
286.789
286.133
285.43
284.713
284.006
283.287
282.519
281.708
280.91
280.145
279.383
278.591
277.748
276.839
275.861
274.821
273.733
272.603
271.437
270.235
268.998
267.73
266.432
265.108
263.759
262.387
260.992
259.577
258.143
256.691
255.223
253.739
252.239
250.725
249.197
247.656
246.102
244.535
242.954
241.36
239.754
238.134
236.5
234.853
233.193
231.52
229.833
228.135
226.423
224.699
222.963
221.214
219.452
217.678
215.889
214.088
212.273
210.444
208.602
206.746
204.875
202.991
201.092
199.178
197.25
195.307
193.349
191.375
189.387
187.382
185.362
183.326
181.274
179.206
177.121
175.019
172.901
170.765
168.613
166.443
164.256
162.052
159.829
157.589
155.331
153.054
150.758
148.444
146.11
143.756
141.381
138.984
136.565
134.121
131.651
129.153
126.624
351.247
351.202
351.136
351.033
350.889
350.701
350.469
350.199
349.894
349.558
349.188
348.787
348.361
347.912
347.441
346.949
346.433
345.887
345.306
344.678
343.994
343.247
342.439
341.578
340.68
339.761
338.834
337.903
336.965
336.016
335.044
334.042
333.003
331.921
330.791
329.61
328.377
327.09
325.746
324.336
322.853
321.282
319.609
317.815
315.881
313.794
311.549
309.165
306.684
304.168
301.694
299.348
297.214
295.372
293.883
292.778
292.126
291.877
291.991
292.388
292.971
293.632
294.262
294.789
295.176
295.395
295.465
295.43
295.298
295.056
294.722
294.334
293.89
293.333
292.613
291.773
290.919
290.131
289.427
288.798
288.248
287.756
287.273
286.743
286.133
285.449
284.726
284.005
283.29
282.541
281.741
280.93
280.136
279.337
278.51
277.648
276.736
275.763
274.731
273.648
272.521
271.354
270.151
268.914
267.646
266.35
265.028
263.683
262.315
260.926
259.516
258.087
256.64
255.176
253.695