/*--------------------------------*- C++ -*----------------------------------*\
  =========                 |
  \\      /  F ield         | OpenFOAM: The Open Source CFD Toolbox
   \\    /   O peration     | Website:  https://openfoam.org
    \\  /    A nd           | Version:  7
     \\/     M anipulation  |
\*---------------------------------------------------------------------------*/
FoamFile
{
    version     2.0;
    format      ascii;
    class       volVectorField;
    location    "0.053";
    object      U;
}
// * * * * * * * * * * * * * * * * * * * * * * * * * * * * * * * * * * * * * //

dimensions      [0 1 -1 0 0 0 0];

internalField   nonuniform List<vector> 
12225
(
(4.65372 0.163728 0)
(4.15065 0.108158 0)
(3.70969 0.0948814 0)
(3.34515 0.0759585 0)
(3.02362 0.0685586 0)
(2.69102 0.0676555 0)
(2.34068 0.0608124 0)
(2.00508 0.0477525 0)
(1.7133 0.035563 0)
(1.46937 0.0279648 0)
(1.26115 0.0240304 0)
(1.08197 0.0208669 0)
(0.925324 0.0164255 0)
(0.793423 0.0107433 0)
(0.672976 0.00495828 0)
(0.583738 0.000967823 0)
(0.482501 -0.00240903 0)
(0.435412 -0.0144432 0)
(4.94103 0.063915 0)
(4.83286 0.0465055 0)
(4.74647 0.0873911 0)
(4.65716 0.0934158 0)
(4.553 0.0900557 0)
(4.45037 0.0977156 0)
(4.34324 0.111897 0)
(4.21335 0.119566 0)
(4.0544 0.116261 0)
(3.88093 0.10613 0)
(3.71078 0.0948831 0)
(3.55493 0.0860591 0)
(3.40415 0.0803695 0)
(3.26352 0.0770262 0)
(3.10684 0.0743048 0)
(2.96845 0.070332 0)
(2.80595 0.0675635 0)
(2.65854 0.0555879 0)
(5.05371 0.11389 0)
(4.93572 0.109941 0)
(4.83058 0.125989 0)
(4.7794 0.122619 0)
(4.73472 0.119118 0)
(4.69884 0.121626 0)
(4.68397 0.127372 0)
(4.67953 0.132683 0)
(4.66612 0.135143 0)
(4.63495 0.133586 0)
(4.58926 0.128181 0)
(4.53509 0.122616 0)
(4.4755 0.119278 0)
(4.4119 0.11982 0)
(4.34055 0.122043 0)
(4.2608 0.121327 0)
(4.17779 0.123275 0)
(4.07633 0.119407 0)
(5.01407 0.113273 0)
(4.89681 0.0943037 0)
(4.81626 0.125749 0)
(4.78515 0.135006 0)
(4.77538 0.126944 0)
(4.76566 0.118947 0)
(4.75425 0.118906 0)
(4.74468 0.125353 0)
(4.7374 0.13246 0)
(4.72971 0.13483 0)
(4.72101 0.131605 0)
(4.71097 0.126908 0)
(4.70257 0.124561 0)
(4.6936 0.12631 0)
(4.68471 0.131449 0)
(4.6672 0.135807 0)
(4.64639 0.142189 0)
(4.61021 0.145632 0)
(5.13858 0.192289 0)
(4.95181 0.153222 0)
(4.83485 0.133314 0)
(4.80953 0.123791 0)
(4.8157 0.120095 0)
(4.80765 0.123315 0)
(4.78353 0.129692 0)
(4.75959 0.135139 0)
(4.74659 0.137564 0)
(4.7442 0.135881 0)
(4.74726 0.130884 0)
(4.74999 0.125825 0)
(4.75174 0.123973 0)
(4.75172 0.126524 0)
(4.75171 0.133403 0)
(4.74809 0.141231 0)
(4.74212 0.150185 0)
(4.72996 0.157555 0)
(5.06917 0.250343 0)
(4.97156 0.181368 0)
(4.89401 0.158375 0)
(4.85329 0.146799 0)
(4.83137 0.138111 0)
(4.8134 0.13532 0)
(4.80186 0.137573 0)
(4.80197 0.140512 0)
(4.81244 0.140975 0)
(4.82567 0.137922 0)
(4.83342 0.132445 0)
(4.83132 0.127565 0)
(4.82204 0.126138 0)
(4.80982 0.129006 0)
(4.79969 0.135956 0)
(4.79102 0.144383 0)
(4.78505 0.153497 0)
(4.77795 0.161283 0)
(5.01469 0.294824 0)
(5.04024 0.204014 0)
(4.99172 0.155363 0)
(4.94115 0.13943 0)
(4.89095 0.137628 0)
(4.84353 0.136577 0)
(4.81159 0.132517 0)
(4.80094 0.127797 0)
(4.80474 0.125628 0)
(4.8117 0.126281 0)
(4.8146 0.128036 0)
(4.81212 0.129893 0)
(4.808 0.13231 0)
(4.80537 0.135768 0)
(4.80697 0.141148 0)
(4.81064 0.147686 0)
(4.81699 0.155086 0)
(4.82117 0.162087 0)
(5.08217 0.235204 0)
(5.06286 0.207843 0)
(5.02855 0.178362 0)
(4.98255 0.170399 0)
(4.93598 0.169784 0)
(4.90277 0.164694 0)
(4.88221 0.154728 0)
(4.86904 0.144515 0)
(4.86036 0.137827 0)
(4.85579 0.134447 0)
(4.85527 0.132253 0)
(4.85791 0.130311 0)
(4.86244 0.129474 0)
(4.86771 0.130588 0)
(4.87319 0.134608 0)
(4.87752 0.14072 0)
(4.88145 0.148446 0)
(4.88199 0.15618 0)
(4.99623 0.308711 0)
(5.02459 0.231077 0)
(4.98379 0.184745 0)
(4.94607 0.178109 0)
(4.94083 0.175228 0)
(4.95141 0.16325 0)
(4.95434 0.147505 0)
(4.94362 0.135861 0)
(4.92752 0.13057 0)
(4.91596 0.128935 0)
(4.91348 0.127746 0)
(4.91879 0.126369 0)
(4.92797 0.126269 0)
(4.93686 0.12853 0)
(4.94268 0.134031 0)
(4.94382 0.141499 0)
(4.94055 0.150897 0)
(4.93195 0.160194 0)
(5.05231 0.281318 0)
(5.06206 0.220219 0)
(5.01311 0.194214 0)
(5.0125 0.170609 0)
(5.03155 0.158692 0)
(5.03609 0.158797 0)
(5.01248 0.161535 0)
(4.96896 0.159832 0)
(4.92406 0.152495 0)
(4.89279 0.141704 0)
(4.88154 0.130611 0)
(4.8878 0.122498 0)
(4.90535 0.119833 0)
(4.92579 0.123207 0)
(4.94253 0.13189 0)
(4.95075 0.143495 0)
(4.94952 0.15701 0)
(4.9391 0.169918 0)
(4.98325 0.311335 0)
(5.02269 0.266304 0)
(5.03044 0.2095 0)
(5.00856 0.176691 0)
(4.9722 0.16999 0)
(4.95154 0.173685 0)
(4.95048 0.177168 0)
(4.95737 0.175928 0)
(4.96295 0.167325 0)
(4.96442 0.150762 0)
(4.96367 0.129731 0)
(4.96323 0.110887 0)
(4.96505 0.100652 0)
(4.96823 0.102379 0)
(4.97077 0.115335 0)
(4.96939 0.135433 0)
(4.96289 0.158827 0)
(4.95118 0.180014 0)
(4.89172 0.292613 0)
(4.92526 0.22296 0)
(4.94233 0.195971 0)
(4.94373 0.18351 0)
(4.94883 0.176393 0)
(4.96464 0.170112 0)
(4.98075 0.164275 0)
(4.98966 0.159105 0)
(4.99 0.152901 0)
(4.98266 0.144029 0)
(4.96971 0.133159 0)
(4.95424 0.123303 0)
(4.93967 0.118307 0)
(4.92799 0.121156 0)
(4.92018 0.132351 0)
(4.91512 0.149738 0)
(4.91204 0.170133 0)
(4.91022 0.189188 0)
(5.0244 0.406644 0)
(5.00452 0.25568 0)
(5.01819 0.19938 0)
(4.99682 0.178165 0)
(4.97255 0.163799 0)
(4.96234 0.158203 0)
(4.96081 0.161201 0)
(4.96052 0.166978 0)
(4.95884 0.168063 0)
(4.95619 0.160033 0)
(4.95354 0.144088 0)
(4.95061 0.12631 0)
(4.94683 0.114144 0)
(4.94093 0.112607 0)
(4.93448 0.122436 0)
(4.92795 0.140691 0)
(4.92474 0.162761 0)
(4.92412 0.184137 0)
(5.04146 0.345157 0)
(5.11176 0.227243 0)
(5.10197 0.203328 0)
(5.07025 0.203115 0)
(5.04423 0.194041 0)
(5.02562 0.18028 0)
(5.0107 0.169069 0)
(5.00067 0.16156 0)
(4.99659 0.15463 0)
(4.99632 0.146153 0)
(4.9966 0.137214 0)
(4.99479 0.130905 0)
(4.99043 0.130401 0)
(4.98357 0.136588 0)
(4.97676 0.147909 0)
(4.971 0.161637 0)
(4.96996 0.174695 0)
(4.9719 0.185506 0)
(5.0746 0.294759 0)
(5.03238 0.251622 0)
(4.98675 0.226002 0)
(4.97387 0.206207 0)
(4.99472 0.188241 0)
(5.03155 0.177378 0)
(5.06312 0.175927 0)
(5.07758 0.177732 0)
(5.07394 0.174381 0)
(5.05776 0.162185 0)
(5.03706 0.143976 0)
(5.01878 0.126386 0)
(5.00759 0.116098 0)
(5.0043 0.116173 0)
(5.00806 0.125577 0)
(5.01598 0.140593 0)
(5.02685 0.157197 0)
(5.03731 0.172853 0)
(5.06555 0.312559 0)
(5.08808 0.291695 0)
(5.08468 0.24802 0)
(5.06774 0.193243 0)
(5.04904 0.148397 0)
(5.04064 0.124953 0)
(5.04585 0.128081 0)
(5.05966 0.149992 0)
(5.07501 0.174007 0)
(5.08489 0.186389 0)
(5.08486 0.183618 0)
(5.07511 0.171084 0)
(5.06002 0.156986 0)
(5.0448 0.147281 0)
(5.03315 0.143656 0)
(5.02666 0.145528 0)
(5.02527 0.150616 0)
(5.02788 0.158444 0)
(5.04134 0.296861 0)
(5.05467 0.263754 0)
(5.05327 0.256054 0)
(5.04082 0.243016 0)
(5.02631 0.220974 0)
(5.00941 0.188919 0)
(4.9992 0.158383 0)
(5.00547 0.140759 0)
(5.02855 0.136448 0)
(5.05898 0.138682 0)
(5.08561 0.141318 0)
(5.10228 0.142172 0)
(5.1096 0.141778 0)
(5.11082 0.141615 0)
(5.10979 0.142912 0)
(5.10788 0.146582 0)
(5.10699 0.152735 0)
(5.10573 0.161436 0)
(5.09498 0.365074 0)
(5.07093 0.324625 0)
(5.06381 0.246466 0)
(5.06514 0.193421 0)
(5.09028 0.169702 0)
(5.12072 0.152106 0)
(5.14321 0.130928 0)
(5.1561 0.114058 0)
(5.16326 0.10998 0)
(5.16661 0.118604 0)
(5.16604 0.133291 0)
(5.16176 0.146898 0)
(5.15552 0.155426 0)
(5.1488 0.15887 0)
(5.14295 0.15911 0)
(5.13848 0.159105 0)
(5.13636 0.16027 0)
(5.13676 0.1642 0)
(4.99243 0.32657 0)
(4.97726 0.309214 0)
(5.02636 0.25627 0)
(5.0518 0.204669 0)
(5.06126 0.153577 0)
(5.07325 0.114621 0)
(5.08631 0.0975738 0)
(5.09544 0.100433 0)
(5.10202 0.113723 0)
(5.11011 0.128679 0)
(5.12138 0.14077 0)
(5.13505 0.148949 0)
(5.1496 0.15309 0)
(5.16324 0.154062 0)
(5.17435 0.152377 0)
(5.18201 0.149349 0)
(5.18692 0.145548 0)
(5.18971 0.141996 0)
(5.01287 0.212639 0)
(5.00432 0.236849 0)
(5.0383 0.195185 0)
(5.07964 0.153678 0)
(5.10195 0.128762 0)
(5.10751 0.113494 0)
(5.1104 0.103106 0)
(5.11749 0.0969191 0)
(5.12969 0.0949888 0)
(5.14572 0.0961151 0)
(5.16335 0.0988984 0)
(5.18037 0.103244 0)
(5.19587 0.10939 0)
(5.20942 0.118027 0)
(5.22147 0.128848 0)
(5.23181 0.140309 0)
(5.24166 0.150707 0)
(5.25096 0.156896 0)
(5.01042 0.280979 0)
(5.02321 0.222871 0)
(5.02461 0.160463 0)
(5.04237 0.137457 0)
(5.05632 0.12122 0)
(5.06623 0.098483 0)
(5.07997 0.076297 0)
(5.1013 0.0617399 0)
(5.12838 0.0567228 0)
(5.15702 0.0593233 0)
(5.18307 0.066188 0)
(5.2037 0.0745854 0)
(5.21866 0.0826853 0)
(5.22976 0.0897545 0)
(5.24021 0.0949748 0)
(5.25247 0.0979107 0)
(5.26802 0.0977453 0)
(5.28739 0.0944444 0)
(5.03209 0.297655 0)
(5.04214 0.21695 0)
(5.05263 0.152097 0)
(5.10649 0.125445 0)
(5.15004 0.115967 0)
(5.1667 0.100753 0)
(5.16397 0.0760709 0)
(5.15532 0.0510989 0)
(5.1512 0.0364698 0)
(5.15482 0.0364427 0)
(5.16395 0.0482709 0)
(5.17479 0.0660755 0)
(5.18523 0.0836476 0)
(5.19505 0.0967355 0)
(5.20571 0.103013 0)
(5.21827 0.10298 0)
(5.23381 0.0974659 0)
(5.25178 0.0889129 0)
(4.95907 0.331817 0)
(5.01806 0.214899 0)
(5.07101 0.0956446 0)
(5.08558 0.0423074 0)
(5.09184 0.0463355 0)
(5.11977 0.0657691 0)
(5.16241 0.0698391 0)
(5.20124 0.0568286 0)
(5.22751 0.0395683 0)
(5.24305 0.0290169 0)
(5.25488 0.0285035 0)
(5.26898 0.0352972 0)
(5.28792 0.0442548 0)
(5.31128 0.0509336 0)
(5.33806 0.052289 0)
(5.36544 0.0479741 0)
(5.39246 0.0387548 0)
(5.41551 0.0268099 0)
(5.08206 0.210572 0)
(5.16991 0.138305 0)
(5.19296 0.129483 0)
(5.19584 0.129718 0)
(5.20942 0.10287 0)
(5.23707 0.0607802 0)
(5.26204 0.0260034 0)
(5.27752 0.0101279 0)
(5.2869 0.0113484 0)
(5.29558 0.0211922 0)
(5.3077 0.0318647 0)
(5.32566 0.0401304 0)
(5.34982 0.0449725 0)
(5.3784 0.0460749 0)
(5.40889 0.0439138 0)
(5.438 0.0397075 0)
(5.46394 0.0348343 0)
(5.48397 0.0309853 0)
(5.05972 0.229537 0)
(5.07107 0.122763 0)
(5.0892 0.0714066 0)
(5.14836 0.0284831 0)
(5.22206 0.00773189 0)
(5.27703 0.00809629 0)
(5.29736 0.0157589 0)
(5.29384 0.0179494 0)
(5.28696 0.0117297 0)
(5.29065 0.00209068 0)
(5.31019 -0.00557731 0)
(5.34312 -0.010489 0)
(5.382 -0.0133286 0)
(5.41934 -0.01491 0)
(5.4509 -0.0159639 0)
(5.47466 -0.0166759 0)
(5.49143 -0.0168479 0)
(5.50231 -0.0162055 0)
(5.14805 0.224477 0)
(5.18953 0.138138 0)
(5.23348 0.112048 0)
(5.29745 0.0734294 0)
(5.34819 0.0334003 0)
(5.38042 0.0188992 0)
(5.39889 0.0242631 0)
(5.4107 0.0295093 0)
(5.42186 0.0234705 0)
(5.4346 0.00868462 0)
(5.44758 -0.00676034 0)
(5.45981 -0.0164117 0)
(5.47251 -0.0186795 0)
(5.48585 -0.0149384 0)
(5.50048 -0.00820632 0)
(5.51667 -0.00121682 0)
(5.53518 0.00432688 0)
(5.55546 0.00804147 0)
(5.07443 0.167807 0)
(5.13489 0.0832509 0)
(5.23514 0.0196974 0)
(5.32262 -0.0282966 0)
(5.36052 -0.0415687 0)
(5.37592 -0.0298914 0)
(5.39322 -0.0124983 0)
(5.42253 -0.00359262 0)
(5.46114 -0.0065024 0)
(5.49964 -0.0165366 0)
(5.53117 -0.0273964 0)
(5.55379 -0.0346058 0)
(5.5689 -0.0382914 0)
(5.57963 -0.040502 0)
(5.58941 -0.0428959 0)
(5.6004 -0.0457916 0)
(5.61387 -0.0491091 0)
(5.62924 -0.0514722 0)
(4.96087 0.216867 0)
(5.17951 0.121174 0)
(5.37072 0.0678067 0)
(5.44992 0.0184721 0)
(5.45219 -0.00305848 0)
(5.44926 -0.00233833 0)
(5.475 0.00180918 0)
(5.5234 -0.00227047 0)
(5.57509 -0.0140665 0)
(5.61525 -0.0268476 0)
(5.6388 -0.034167 0)
(5.64828 -0.0350949 0)
(5.64999 -0.0314377 0)
(5.65035 -0.0262297 0)
(5.65376 -0.0220334 0)
(5.66193 -0.019986 0)
(5.67477 -0.0200098 0)
(5.69036 -0.0210041 0)
(4.99392 -0.00708295 0)
(5.22013 -0.0586021 0)
(5.36116 -0.0520815 0)
(5.41862 -0.0583561 0)
(5.44084 -0.054211 0)
(5.47343 -0.0467889 0)
(5.52074 -0.04613 0)
(5.56364 -0.0509274 0)
(5.58665 -0.0549649 0)
(5.58824 -0.054644 0)
(5.57732 -0.050619 0)
(5.56496 -0.0458741 0)
(5.55735 -0.0436117 0)
(5.55583 -0.0457023 0)
(5.55742 -0.0517053 0)
(5.55986 -0.0595029 0)
(5.5597 -0.066872 0)
(5.55723 -0.0715943 0)
(4.91126 0.109348 0)
(5.16247 0.0425344 0)
(5.17755 0.015466 0)
(5.03165 -0.0168031 0)
(4.86936 -0.0299852 0)
(4.73709 -0.0310441 0)
(4.62207 -0.028784 0)
(4.51053 -0.0253169 0)
(4.40196 -0.0222918 0)
(4.29942 -0.0214093 0)
(4.20433 -0.0224992 0)
(4.11696 -0.0240339 0)
(4.03552 -0.0247273 0)
(3.95726 -0.0243019 0)
(3.87763 -0.0231337 0)
(3.79605 -0.0218002 0)
(3.71072 -0.0205003 0)
(3.62692 -0.0191834 0)
(-0.0484456 0.085743 4.88365e-20)
(-0.0859326 0.019338 -4.84913e-20)
(-0.027912 -0.0803389 0)
(0.0965841 -0.140374 0)
(0.256226 -0.171147 0)
(0.426754 -0.18184 4.70085e-20)
(0.600161 -0.18049 0)
(0.770484 -0.172961 0)
(0.933713 -0.162453 0)
(1.08801 -0.150345 0)
(1.2322 -0.137031 -4.50669e-20)
(1.36503 -0.122385 0)
(1.4848 -0.106237 0)
(1.58963 -0.0884002 0)
(1.67706 -0.0687476 0)
(1.74527 -0.0474783 -4.31727e-20)
(1.79121 -0.0243137 0)
(1.81494 8.51434e-05 0)
(1.81304 0.0260138 0)
(1.78518 0.0524737 0)
(1.73006 0.0783636 0)
(1.65061 0.104813 0)
(1.54625 0.127508 0)
(1.41873 0.153005 -4.05121e-20)
(1.27164 0.17213 4.02068e-20)
(1.10091 0.193851 -3.99031e-20)
(0.916199 0.209738 -3.95996e-20)
(0.711244 0.219089 0)
(0.492033 0.225232 0)
(0.296809 0.128882 3.86738e-20)
(0.160923 -0.0142775 3.8358e-20)
(0.0741455 -0.0817881 0)
(0.0744328 -0.0905207 0)
(0.164857 -0.0779501 3.73874e-20)
(0.232777 -0.0677578 0)
(0.343069 -0.0701691 0)
(0.537297 -0.0603267 -3.63754e-20)
(0.69081 -0.33264 0)
(0.71102 -0.676845 -3.57177e-20)
(0.72518 -0.513797 -7.07329e-20)
(0.502689 0.0422832 0)
(-0.0369071 0.414396 0)
(-0.612648 0.506839 0)
(-1.18846 0.50153 0)
(-1.70377 0.4496 0)
(-2.1565 0.387578 -6.6479e-20)
(-2.54748 0.328841 -6.56463e-20)
(-2.88388 0.277004 -6.48211e-20)
(-3.1733 0.233452 0)
(-3.42333 0.19759 6.3219e-20)
(-3.64068 0.16862 0)
(-3.83086 0.145293 -6.17e-20)
(-3.99831 0.126553 -6.09743e-20)
(-4.1464 0.111301 0)
(-4.27762 0.0985959 0)
(-4.39348 0.0875089 0)
(-4.49476 0.0772134 -5.83012e-20)
(-4.58135 0.0669267 0)
(-4.65234 0.0558872 0)
(-4.70618 0.0434738 0)
(-4.74096 0.0296344 0)
(-4.75444 0.0149007 0)
(-4.74457 4.88911e-05 0)
(-4.71375 -0.0142457 0)
(-4.66108 -0.0276112 0)
(-4.58917 -0.0392077 5.35239e-20)
(-4.50091 -0.0484679 0)
(-4.40043 -0.0549992 0)
(-4.292 -0.0588225 -5.21855e-20)
(-4.17962 -0.0602505 -5.17491e-20)
(-4.06651 -0.0598605 0)
(-3.9548 -0.0583178 5.08824e-20)
(-3.84556 -0.056251 -5.04511e-20)
(-3.73904 -0.0541456 0)
(-3.63493 -0.0523287 4.95929e-20)
(-3.53248 -0.0510285 0)
(-3.43053 -0.0504058 0)
(-3.3277 -0.0505291 -4.83207e-20)
(-3.22271 -0.0513562 0)
(-3.1144 -0.0527933 4.74872e-20)
(-3.00175 -0.0547489 0)
(-2.88386 -0.0571246 -4.66676e-20)
(-2.76005 -0.0598189 -4.62632e-20)
(-2.62973 -0.0627653 -4.58623e-20)
(-2.49236 -0.0658964 -9.0929e-20)
(-2.34761 -0.0690814 9.01392e-20)
(-2.19543 -0.0721579 0)
(-2.0361 -0.0749618 0)
(-1.87024 -0.0773089 0)
(-1.69886 -0.0790327 8.70068e-20)
(-1.52324 -0.0800246 8.62211e-20)
(-1.34483 -0.0802391 -8.54304e-20)
(-1.16508 -0.0797049 0)
(-0.985359 -0.0784866 8.38297e-20)
(-0.806921 -0.0766792 8.30183e-20)
(-0.630844 -0.074353 8.21993e-20)
(-0.458114 -0.0715647 0)
(-0.28971 -0.0684083 0)
(-0.126511 -0.0646768 0)
(0.0297768 -0.0608831 7.88411e-20)
(0.178246 -0.0563792 0)
(0.318566 -0.0515159 0)
(0.449415 -0.0463481 -7.61857e-20)
(0.570069 -0.0410097 0)
(0.680075 -0.0356533 0)
(0.779308 -0.0304249 -7.35265e-20)
(0.867944 -0.025447 0)
(0.946412 -0.020809 0)
(1.01532 -0.0165634 7.08962e-20)
(1.07537 -0.0127304 7.00293e-20)
(1.12732 -0.0093056 0)
(1.1719 -0.00626593 -6.83131e-20)
(1.20979 -0.00358095 0)
(1.24162 -0.00121652 6.66214e-20)
(1.26796 0.000856246 0)
(1.28932 0.00266328 6.4955e-20)
(1.30614 0.00421828 6.41312e-20)
(1.31888 0.00553523 0)
(1.3279 0.00663549 0)
(1.33366 0.00751079 0)
(1.33654 0.00822529 0)
(1.3367 0.00884513 0)
(1.33463 0.00929837 0)
(1.33074 0.00956582 0)
(1.32538 0.00968296 5.7758e-20)
(1.3189 0.00968797 -5.69873e-20)
(1.31157 0.00960941 0)
(1.30362 0.00946798 0)
(1.29525 0.00927477 0)
(1.28663 0.00902812 0)
(1.27791 0.00872343 -1.06431e-19)
(1.26924 0.00836178 0)
(1.26074 0.00794679 1.03486e-19)
(1.25253 0.00748671 -1.02029e-19)
(1.24469 0.00699428 0)
(1.23728 0.00648337 0)
(1.23034 0.00596598 0)
(1.2239 0.00545801 9.62992e-20)
(1.21795 0.0049707 9.48903e-20)
(1.21249 0.00451384 0)
(1.20749 0.00409203 9.21003e-20)
(1.20293 0.00370378 9.07188e-20)
(1.19877 0.00334596 -8.93463e-20)
(1.19498 0.00301897 0)
(1.19153 0.00272586 0)
(1.18838 0.00246644 -8.52807e-20)
(1.18551 0.00223417 0)
(1.18286 0.00201905 0)
(1.18041 0.00181376 0)
(1.17811 0.00161837 0)
(1.17594 0.00143591 7.86723e-20)
(1.17388 0.00127331 7.73748e-20)
(1.1719 0.00113444 0)
(1.17 0.00101854 7.48032e-20)
(1.16814 0.000926754 0)
(1.16631 0.000857895 0)
(1.16447 0.000809487 7.10029e-20)
(1.16259 0.000781702 0)
(1.16062 0.000773681 6.85064e-20)
(1.15855 0.00078306 0)
(1.15632 0.000808397 0)
(1.15393 0.00084709 6.48155e-20)
(1.15126 0.000902378 0)
(1.14839 0.00097334 6.23901e-20)
(1.14507 0.00107068 0)
(1.14151 0.00118965 0)
(1.1372 0.00135291 0)
(1.1326 0.00154456 -5.7622e-20)
(1.12674 0.00181548 0)
(1.12054 0.00211761 5.52794e-20)
(1.11217 0.00258094 0)
(1.10328 0.00305194 0)
(1.09098 0.00390726 0)
(1.07691 0.00460111 0)
(1.05902 0.00639222 0)
(1.03294 0.00716123 0)
(1.01034 0.0116687 0)
(0.949916 0.0112314 -9.24413e-20)
(0.940232 0.0248916 0)
(0.767198 0.0160489 0)
(-0.0349834 0.186989 -1.46508e-19)
(0.00227842 -0.0511025 1.45476e-19)
(0.118874 -0.308537 0)
(0.270482 -0.458336 -9.5447e-20)
(0.430663 -0.524882 0)
(0.590401 -0.541011 -4.69631e-20)
(0.747593 -0.530643 9.31441e-20)
(0.901146 -0.50793 9.23736e-20)
(1.05057 -0.479525 0)
(1.19534 -0.447783 9.08252e-20)
(1.33459 -0.41283 4.50377e-20)
(1.46641 -0.373923 0)
(1.58841 -0.330312 0)
(1.69735 -0.281198 0)
(1.79059 -0.226793 0)
(1.8648 -0.167056 4.31533e-20)
(1.91831 -0.103487 0)
(1.94829 -0.0371225 -8.48516e-20)
(1.95493 0.0304361 0)
(1.93998 0.0963003 0)
(1.90364 0.16136 8.2821e-20)
(1.84943 0.218945 0)
(1.77731 0.276264 -8.15396e-20)
(1.69489 0.324196 4.04721e-20)
(1.59737 0.369053 -4.01603e-20)
(1.49499 0.41446 3.98491e-20)
(1.3866 0.438102 3.95375e-20)
(1.27059 0.472853 0)
(1.16942 0.458505 0)
(1.03249 0.412488 -3.8589e-20)
(0.947399 0.367919 3.83001e-20)
(0.850672 0.221576 0)
(0.696329 -0.0379916 0)
(0.676043 -0.243856 -3.73269e-20)
(0.895085 -0.18511 0)
(0.969513 -0.443538 0)
(0.726026 -0.567248 3.63639e-20)
(0.411177 0.0711357 0)
(-0.354685 0.629184 -3.5731e-20)
(-1.04374 0.885069 7.06644e-20)
(-1.57026 1.11074 0)
(-2.03698 1.20719 0)
(-2.4273 1.17673 1.36741e-19)
(-2.77504 1.08251 1.35252e-19)
(-3.075 0.959144 1.33723e-19)
(-3.34 0.832648 -6.59073e-20)
(-3.57264 0.716208 6.54609e-20)
(-3.77802 0.613746 1.93709e-19)
(-3.96098 0.527272 -1.27504e-19)
(-4.12453 0.454954 -6.31021e-20)
(-4.2722 0.395036 0)
(-4.40544 0.344891 6.16099e-20)
(-4.52595 0.302331 -6.07403e-20)
(-4.63399 0.265245 0)
(-4.72986 0.231824 0)
(-4.81303 0.200451 0)
(-4.88294 0.169664 5.82504e-20)
(-4.93863 0.138138 0)
(-4.97898 0.10471 -1.14028e-19)
(-5.00264 0.0686558 0)
(-5.00851 0.0300203 -1.11843e-19)
(-4.9961 -0.010576 0)
(-4.96547 -0.0519495 1.09799e-19)
(-4.91391 -0.09205 0)
(-4.84388 -0.128878 -1.07881e-19)
(-4.75692 -0.160152 5.34611e-20)
(-4.65647 -0.184268 0)
(-4.54622 -0.200436 1.05179e-19)
(-4.43022 -0.208943 5.21639e-20)
(-4.31208 -0.210968 5.17282e-20)
(-4.19464 -0.208285 0)
(-4.07957 -0.202841 5.08503e-20)
(-3.96744 -0.196385 5.04329e-20)
(-3.85801 -0.190225 0)
(-3.75064 -0.18521 -4.95762e-20)
(-3.64443 -0.181899 9.82882e-20)
(-3.53814 -0.180683 0)
(-3.43035 -0.181714 4.83059e-20)
(-3.31978 -0.184834 0)
(-3.20538 -0.189713 -1.42403e-19)
(-3.08623 -0.196035 0)
(-2.96151 -0.203513 1.39944e-19)
(-2.8306 -0.211867 4.62503e-20)
(-2.69297 -0.220922 -4.58288e-20)
(-2.54809 -0.230515 -9.0862e-20)
(-2.39556 -0.240284 9.00727e-20)
(-2.2353 -0.249754 0)
(-2.06756 -0.258446 0)
(-1.89296 -0.265806 0)
(-1.71257 -0.271301 -2.60923e-19)
(-1.52775 -0.274589 -8.62007e-20)
(-1.34004 -0.275532 8.54115e-20)
(-1.15098 -0.274233 0)
(-0.961991 -0.270902 8.37915e-20)
(-0.774283 -0.265838 -8.30042e-20)
(-0.588828 -0.25936 -8.2187e-20)
(-0.406536 -0.251627 0)
(-0.228217 -0.242714 0)
(-0.0549777 -0.232503 0)
(0.111937 -0.221488 -7.88241e-20)
(0.271845 -0.208789 0)
(0.423915 -0.194911 1.54094e-19)
(0.567023 -0.180082 2.28482e-19)
(0.700421 -0.164688 -1.50544e-19)
(0.823676 -0.149174 0)
(0.936691 -0.133965 -7.34995e-20)
(1.03968 -0.119421 0)
(1.13313 -0.105797 -1.43488e-19)
(1.21767 -0.0932423 7.08698e-20)
(1.29406 -0.0818094 7.00029e-20)
(1.36309 -0.0714781 0)
(1.42554 -0.0621793 2.04865e-19)
(1.48214 -0.0538197 -1.34877e-19)
(1.53352 -0.0462988 -6.65964e-20)
(1.58026 -0.0395221 0)
(1.6228 -0.0334067 -6.49283e-20)
(1.66153 -0.0278875 -1.92309e-19)
(1.69674 -0.0229152 0)
(1.72869 -0.0184503 -1.24944e-19)
(1.75762 -0.0144824 -1.23331e-19)
(1.78369 -0.0109769 -1.21731e-19)
(1.80734 -0.00789362 0)
(1.82874 -0.0052729 0)
(1.84812 -0.00311953 0)
(1.86571 -0.00139199 5.77223e-20)
(1.88178 -3.34493e-05 5.6952e-20)
(1.89659 0.00100423 0)
(1.91043 0.0017667 1.10851e-19)
(1.92353 0.00230303 1.09341e-19)
(1.93612 0.00265575 0)
(1.94836 0.00285316 1.06354e-19)
(1.9604 0.00291815 2.09752e-19)
(1.9723 0.00287701 -1.03409e-19)
(1.98412 0.00275568 -1.01951e-19)
(1.99587 0.00257665 0)
(2.00751 0.00236077 0)
(2.01904 0.00212979 0)
(2.03043 0.00188856 -9.62199e-20)
(2.04162 0.00164611 9.48109e-20)
(2.05259 0.00140871 1.86823e-19)
(2.06331 0.00118232 -9.20215e-20)
(2.07377 0.000973596 9.06403e-20)
(2.08395 0.00078622 8.92683e-20)
(2.09383 0.000617775 0)
(2.10339 0.000463336 0)
(2.11264 0.000323857 -8.52048e-20)
(2.12156 0.000209012 0)
(2.13015 0.000130502 0)
(2.13836 9.32332e-05 1.62436e-19)
(2.14616 8.96314e-05 0)
(2.15352 0.000106729 7.86011e-20)
(2.16043 0.000132506 -7.73047e-20)
(2.16688 0.000158257 0)
(2.17287 0.000187506 7.47353e-20)
(2.17839 0.000225329 0)
(2.18344 0.000275087 0)
(2.18801 0.000336644 -7.09387e-20)
(2.19211 0.000410046 1.39376e-19)
(2.19571 0.0004985 -6.84447e-20)
(2.19883 0.000605395 0)
(2.20144 0.000735705 0)
(2.20358 0.000889118 6.47575e-20)
(2.20518 0.00107481 0)
(2.2063 0.00128817 6.23346e-20)
(2.20683 0.00155461 0)
(2.20689 0.00185241 0)
(2.20621 0.00225347 0)
(2.20503 0.00268069 5.75719e-20)
(2.20289 0.00333129 0)
(2.20012 0.00395176 -5.52317e-20)
(2.19605 0.00509299 0)
(2.19086 0.00596835 0)
(2.18419 0.0081378 1.03547e-19)
(2.17458 0.00924177 -1.01272e-19)
(2.16479 0.0137403 0)
(2.14553 0.0147034 0)
(2.13407 0.0248966 0)
(2.09027 0.0242568 2.77059e-19)
(2.08725 0.0490267 0)
(1.97635 0.0432226 -1.76068e-19)
(-0.0130911 0.159759 -1.97401e-23)
(0.10805 -0.288835 -1.93878e-19)
(0.267324 -0.629461 0)
(0.421264 -0.790147 1.9072e-19)
(0.56409 -0.839666 0)
(0.700482 -0.836463 0)
(0.835704 -0.812671 -1.96987e-23)
(0.973001 -0.781995 -9.23111e-20)
(1.1134 -0.748025 -9.15112e-20)
(1.25588 -0.709872 -9.07676e-20)
(1.39791 -0.665099 0)
(1.53596 -0.611023 0)
(1.66576 -0.545624 8.84024e-20)
(1.78264 -0.46794 1.75279e-19)
(1.8821 -0.378168 -1.7378e-19)
(1.95977 -0.277975 0)
(2.01262 -0.169746 -1.70889e-19)
(2.03777 -0.0577339 8.4828e-20)
(2.03494 0.0545165 0)
(2.00438 0.161938 -1.66783e-19)
(1.94844 0.260128 -8.27987e-20)
(1.87169 0.34881 1.64198e-19)
(1.77897 0.41907 8.15206e-20)
(1.67769 0.484997 0)
(1.57486 0.531923 -1.60491e-19)
(1.47387 0.565456 -1.59268e-19)
(1.36791 0.61017 0)
(1.28401 0.59281 -1.56822e-19)
(1.18296 0.635384 0)
(1.10792 0.579127 -1.54381e-19)
(1.03088 0.320376 -7.65456e-20)
(0.87999 0.368389 0)
(0.942909 0.262515 0)
(0.853331 -0.445094 0)
(0.62149 -0.543552 0)
(0.108531 0.324009 0)
(-0.693572 0.925329 0)
(-1.25977 1.25161 -1.43715e-19)
(-1.80912 1.46845 2.13269e-19)
(-2.2358 1.59667 0)
(-2.59712 1.6849 0)
(-2.866 1.67062 0)
(-3.07888 1.5773 -4.11776e-22)
(-3.25638 1.43479 -1.35032e-19)
(-3.41741 1.27473 -2.66656e-19)
(-3.56829 1.11682 2.63654e-19)
(-3.71453 0.973755 1.30118e-19)
(-3.85492 0.848817 -1.28976e-19)
(-3.9913 0.742958 3.14085e-22)
(-4.12126 0.653599 -1.25668e-19)
(-4.24502 0.577957 0)
(-4.36047 0.5127 -1.22796e-19)
(-4.46701 0.454904 2.17234e-22)
(-4.56298 0.402 0)
(-4.64742 0.351808 0)
(-4.71893 0.302519 1.17463e-19)
(-4.77644 0.252558 0)
(-4.81873 0.200593 0)
(-4.84467 0.145592 -1.13771e-19)
(-4.85316 0.0868952 -2.25635e-19)
(-4.84404 0.024282 1.1188e-19)
(-4.818 -0.0413366 0)
(-4.77509 -0.107568 -1.09828e-19)
(-4.71624 -0.171444 0)
(-4.64317 -0.229161 -1.07763e-19)
(-4.55796 -0.277505 -1.06982e-19)
(-4.46321 -0.313958 2.12061e-19)
(-4.36181 -0.337461 1.05111e-19)
(-4.25679 -0.348531 0)
(-4.151 -0.34922 -2.06839e-19)
(-4.04677 -0.342585 0)
(-3.9454 -0.332005 -3.05113e-19)
(-3.84706 -0.320485 -2.01675e-19)
(-3.75091 -0.31018 -1.99955e-19)
(-3.65573 -0.302311 1.98239e-19)
(-3.56025 -0.297523 -2.94813e-19)
(-3.46304 -0.296242 0)
(-3.36261 -0.29865 0)
(-3.25782 -0.304474 1.9145e-19)
(-3.14806 -0.31312 2.84702e-19)
(-3.03282 -0.32404 0)
(-2.91146 -0.336787 -9.32772e-20)
(-2.78346 -0.350912 0)
(-2.64843 -0.366126 2.74921e-19)
(-2.50585 -0.38227 7.14465e-23)
(-2.35525 -0.398839 -7.16236e-23)
(-2.19643 -0.414996 -1.78512e-19)
(-2.02954 -0.429907 0)
(-1.8552 -0.442588 1.75395e-19)
(-1.67455 -0.45203 5.77701e-23)
(-1.48911 -0.457576 0)
(-1.30066 -0.458981 0)
(-1.11089 -0.456468 0)
(-0.921371 -0.450504 -1.67567e-19)
(-0.733353 -0.441686 0)
(-0.54777 -0.430659 0)
(-0.365397 -0.417773 0)
(-0.187022 -0.403033 0)
(-0.0138462 -0.386498 0)
(0.153098 -0.367953 -1.57568e-19)
(0.31301 -0.346995 0)
(0.464634 -0.323955 -1.54052e-19)
(0.606829 -0.299291 -1.5228e-19)
(0.738798 -0.273692 1.50509e-19)
(0.860144 -0.247946 0)
(0.970874 -0.222806 1.46975e-19)
(1.07134 -0.198892 0)
(1.16213 -0.176647 1.43465e-19)
(1.24399 -0.156327 -1.41724e-19)
(1.31772 -0.138027 -4.19962e-19)
(1.38415 -0.121714 0)
(1.44405 -0.107264 -4.09674e-19)
(1.49822 -0.0944944 -1.34854e-19)
(1.54737 -0.0831933 0)
(1.59222 -0.0731448 -2.63004e-19)
(1.63339 -0.0641547 -2.59684e-19)
(1.67145 -0.056064 3.84586e-19)
(1.70681 -0.0487524 0)
(1.73981 -0.0421479 1.24937e-19)
(1.77064 -0.0361977 1.23325e-19)
(1.79946 -0.0308828 3.6517e-19)
(1.82636 -0.0262146 0)
(1.85145 -0.0221737 0)
(1.87488 -0.0187469 0)
(1.89681 -0.0159157 1.15437e-19)
(1.91745 -0.0136465 0)
(1.93702 -0.0118987 0)
(1.95579 -0.0106228 -1.10844e-19)
(1.97401 -0.00976256 -1.09334e-19)
(1.99189 -0.00925253 0)
(2.0096 -0.00902109 0)
(2.02728 -0.00900315 -2.09735e-19)
(2.045 -0.0091357 0)
(2.0628 -0.00935698 2.03883e-19)
(2.08066 -0.00961371 2.00986e-19)
(2.09855 -0.00986369 0)
(2.1164 -0.0100744 0)
(2.13416 -0.0102373 -1.92416e-19)
(2.15176 -0.0103448 -5.50572e-25)
(2.16917 -0.0103952 -4.76394e-25)
(2.18632 -0.0103916 0)
(2.20321 -0.0103384 -3.62509e-19)
(2.21979 -0.01024 0)
(2.23605 -0.0101008 0)
(2.25199 -0.00992562 0)
(2.26759 -0.00971721 1.70381e-19)
(2.28283 -0.00947445 0)
(2.29768 -0.00919363 -3.30096e-19)
(2.31214 -0.0088719 -1.62407e-19)
(2.32621 -0.0085114 0)
(2.33989 -0.00811528 -1.57173e-19)
(2.35315 -0.00769028 0)
(2.36595 -0.00724849 0)
(2.37827 -0.0067929 -4.48322e-19)
(2.39007 -0.0063248 2.93788e-19)
(2.40132 -0.0058435 0)
(2.412 -0.00534535 2.83694e-19)
(2.42207 -0.00482795 -1.39346e-19)
(2.43151 -0.00429023 0)
(2.44029 -0.00374135 0)
(2.44838 -0.00318256 0)
(2.45578 -0.00261656 -3.88456e-19)
(2.4625 -0.00203293 0)
(2.46853 -0.00143655 -1.2464e-19)
(2.47387 -0.000786242 0)
(2.47849 -0.000115846 0)
(2.48244 0.000679583 0)
(2.4856 0.0014869 0)
(2.48811 0.00258158 0)
(2.48963 0.00361547 0)
(2.49063 0.00532635 -2.16226e-19)
(2.49007 0.00669909 0)
(2.48944 0.00971265 -1.0352e-19)
(2.48575 0.0115091 3.03725e-19)
(2.48354 0.0173725 0)
(2.47432 0.0195229 0)
(2.47142 0.0318443 -1.89019e-19)
(2.45121 0.0338963 -1.84641e-19)
(2.45112 0.0610641 1.80239e-19)
(2.40928 0.0634332 1.76005e-19)
(0.0291433 -0.00770795 2.93126e-19)
(0.202764 -0.63408 2.90688e-19)
(0.36707 -0.968446 1.92178e-19)
(0.504745 -1.08306 9.53122e-20)
(0.62836 -1.1032 0)
(0.75132 -1.09455 -1.87524e-19)
(0.881542 -1.07993 9.29674e-20)
(1.02143 -1.06308 0)
(1.17012 -1.04085 9.14547e-20)
(1.32494 -1.00845 0)
(1.48187 -0.961036 -1.79655e-19)
(1.63552 -0.894329 0)
(1.77979 -0.805514 -8.83384e-20)
(1.90835 -0.693961 -1.75156e-19)
(2.01564 -0.560852 1.73666e-19)
(2.09686 -0.409597 0)
(2.14825 -0.244984 1.70806e-19)
(2.16727 -0.0734969 0)
(2.15225 0.0968588 0)
(2.10328 0.259023 1.66713e-19)
(2.02092 0.403561 0)
(1.91204 0.525008 -1.68054e-22)
(1.78399 0.622942 0)
(1.64361 0.68843 0)
(1.5001 0.739767 7.50186e-23)
(1.36187 0.782514 1.59264e-19)
(1.2449 0.777572 1.58028e-19)
(1.11338 0.797593 1.56845e-19)
(1.01137 0.748728 0)
(0.933206 0.662961 3.08874e-19)
(0.753345 0.726169 0)
(0.66943 0.388267 1.52093e-19)
(0.740066 -0.0922404 0)
(0.231455 0.35984 0)
(-0.588623 1.03311 -1.48098e-19)
(-1.19703 1.4727 0)
(-1.72281 1.73658 1.44734e-19)
(-2.12442 1.92879 1.53647e-22)
(-2.47827 2.0341 -2.83329e-19)
(-2.73786 2.0693 2.80004e-19)
(-2.95264 2.03304 0)
(-3.10641 1.93505 0)
(-3.23736 1.79219 1.35136e-19)
(-3.34761 1.62775 0)
(-3.45295 1.45885 1.33052e-19)
(-3.5545 1.29815 -1.31578e-19)
(-3.65872 1.15224 -1.30096e-19)
(-3.76403 1.02324 0)
(-3.87158 0.910814 1.27137e-19)
(-3.97782 0.812656 1.25674e-19)
(-4.08106 0.72595 -2.47879e-19)
(-4.17748 0.647637 1.22816e-19)
(-4.26464 0.574896 1.21432e-19)
(-4.33962 0.505263 0)
(-4.40044 0.436653 0)
(-4.44535 0.367418 -1.17516e-19)
(-4.4735 0.29625 0)
(-4.48466 0.222189 0)
(-4.47939 0.144694 2.27988e-19)
(-4.45909 0.0637176 2.25815e-19)
(-4.42545 -0.0200659 0)
(-4.38014 -0.10444 0)
(-4.32535 -0.186666 0)
(-4.26395 -0.263744 0)
(-4.19778 -0.332195 2.15817e-19)
(-4.12853 -0.388809 -2.13857e-19)
(-4.05705 -0.431062 -2.12185e-19)
(-3.98392 -0.45771 -4.20742e-19)
(-3.90942 -0.46916 0)
(-3.83395 -0.467643 6.13413e-23)
(-3.75816 -0.456953 0)
(-3.6828 -0.441716 2.03458e-19)
(-3.60824 -0.426343 4.42306e-23)
(-3.53402 -0.41402 2.00001e-19)
(-3.45896 -0.406336 -1.98277e-19)
(-3.38155 -0.40374 5.01495e-23)
(-3.2999 -0.406162 0)
(-3.21208 -0.413292 -1.93086e-19)
(-3.11699 -0.42447 -1.91461e-19)
(-3.01481 -0.43881 -3.79503e-19)
(-2.90617 -0.45565 0)
(-2.79107 -0.474634 1.86402e-19)
(-2.66914 -0.49534 0)
(-2.54017 -0.517377 -3.664e-19)
(-2.40365 -0.540663 1.81649e-19)
(-2.2589 -0.564729 -1.80064e-19)
(-2.10561 -0.58838 1.78491e-19)
(-1.94372 -0.61033 3.53666e-19)
(-1.77382 -0.629058 -1.75368e-19)
(-1.59729 -0.642988 1.7381e-19)
(-1.41585 -0.651082 0)
(-1.23143 -0.652966 -3.41222e-19)
(-1.04567 -0.649013 0)