/*--------------------------------*- C++ -*----------------------------------*\
  =========                 |
  \\      /  F ield         | OpenFOAM: The Open Source CFD Toolbox
   \\    /   O peration     | Website:  https://openfoam.org
    \\  /    A nd           | Version:  7
     \\/     M anipulation  |
\*---------------------------------------------------------------------------*/
FoamFile
{
    version     2.0;
    format      ascii;
    class       volVectorField;
    location    "0.053";
    object      UMean;
}
// * * * * * * * * * * * * * * * * * * * * * * * * * * * * * * * * * * * * * //

dimensions      [0 1 -1 0 0 0 0];

internalField   nonuniform List<vector> 
12225
(
(4.77725 0.163907 0)
(4.1849 0.110931 0)
(3.7262 0.097466 0)
(3.35985 0.0808409 0)
(3.03129 0.0675493 0)
(2.72631 0.0576813 0)
(2.44632 0.049014 0)
(2.19572 0.0408989 0)
(1.978 0.032414 0)
(1.79261 0.0250564 0)
(1.64144 0.0167259 0)
(1.51909 0.0116501 0)
(1.42901 0.00294528 0)
(1.35995 0.00338801 0)
(1.31669 -0.00923276 0)
(1.2893 0.0028914 0)
(1.27896 -0.0267867 0)
(1.29492 0.000100756 0)
(5.01757 0.112839 0)
(4.87339 0.0731546 0)
(4.75749 0.089046 0)
(4.66965 0.0882653 0)
(4.57888 0.086468 0)
(4.47733 0.0864881 0)
(4.36665 0.0862401 0)
(4.25285 0.0836719 0)
(4.13843 0.0795675 0)
(4.02909 0.0727069 0)
(3.92325 0.0659678 0)
(3.82852 0.0559851 0)
(3.73722 0.0492879 0)
(3.66323 0.037069 0)
(3.58691 0.0337075 0)
(3.53683 0.0173538 0)
(3.47432 0.0160527 0)
(3.4454 -0.0179511 0)
(4.99492 0.171816 0)
(4.87616 0.121601 0)
(4.79791 0.129435 0)
(4.76759 0.123602 0)
(4.75293 0.116115 0)
(4.7386 0.112382 0)
(4.7221 0.109783 0)
(4.70392 0.106568 0)
(4.68431 0.100992 0)
(4.66286 0.0945683 0)
(4.63995 0.085382 0)
(4.61531 0.077417 0)
(4.59077 0.0659126 0)
(4.5654 0.0590471 0)
(4.54305 0.0459028 0)
(4.52016 0.0401995 0)
(4.50403 0.0225749 0)
(4.48284 0.00357473 0)
(4.99544 0.188815 0)
(4.90015 0.120016 0)
(4.82357 0.118368 0)
(4.78928 0.113733 0)
(4.77647 0.106144 0)
(4.76944 0.101501 0)
(4.7649 0.0992633 0)
(4.7633 0.0965831 0)
(4.76446 0.0926326 0)
(4.76718 0.0867323 0)
(4.77044 0.0801287 0)
(4.77323 0.0718906 0)
(4.77589 0.0641848 0)
(4.77762 0.0547808 0)
(4.78079 0.0466803 0)
(4.78293 0.0355912 0)
(4.78928 0.0230367 0)
(4.79107 0.00487667 0)
(4.99429 0.213901 0)
(4.92249 0.143308 0)
(4.85436 0.134038 0)
(4.81856 0.129188 0)
(4.80404 0.119899 0)
(4.79631 0.112103 0)
(4.79124 0.106817 0)
(4.7892 0.102218 0)
(4.79062 0.096548 0)
(4.79454 0.0898664 0)
(4.80013 0.0819337 0)
(4.80625 0.0736711 0)
(4.81304 0.0645337 0)
(4.81989 0.055412 0)
(4.82792 0.0454018 0)
(4.83617 0.0340025 0)
(4.84611 0.0206732 0)
(4.85403 0.00121893 0)
(4.99247 0.229486 0)
(4.9395 0.157872 0)
(4.88079 0.139618 0)
(4.8456 0.132512 0)
(4.83064 0.122095 0)
(4.82362 0.112197 0)
(4.81918 0.104961 0)
(4.81703 0.0990057 0)
(4.81774 0.0927474 0)
(4.82083 0.0854794 0)
(4.82561 0.0774013 0)
(4.83116 0.0686283 0)
(4.8375 0.059475 0)
(4.8441 0.0497764 0)
(4.85174 0.0393729 0)
(4.85943 0.0276125 0)
(4.86806 0.0135082 0)
(4.87472 -0.0039467 0)
(4.9957 0.244246 0)
(4.95675 0.174547 0)
(4.90684 0.149359 0)
(4.87275 0.139367 0)
(4.85687 0.128207 0)
(4.85002 0.116926 0)
(4.84624 0.107819 0)
(4.8444 0.10042 0)
(4.84497 0.0931992 0)
(4.84775 0.0853278 0)
(4.8522 0.0767245 0)
(4.85749 0.0675297 0)
(4.86351 0.0579016 0)
(4.86969 0.0476564 0)
(4.87659 0.0367676 0)
(4.88311 0.0244574 0)
(4.89011 0.0105486 0)
(4.89473 -0.00582885 0)
(5.00228 0.253954 0)
(4.97455 0.188587 0)
(4.9336 0.158383 0)
(4.90202 0.144576 0)
(4.88574 0.132292 0)
(4.87873 0.119793 0)
(4.87516 0.108934 0)
(4.87329 0.0998766 0)
(4.87347 0.0915191 0)
(4.87571 0.0829029 0)
(4.87966 0.0737624 0)
(4.88445 0.0641372 0)
(4.88992 0.054121 0)
(4.89542 0.0435837 0)
(4.90142 0.0323765 0)
(4.90677 0.0200666 0)
(4.91235 0.0065165 0)
(4.91548 -0.00866818 0)
(5.0026 0.262181 0)
(4.98456 0.201515 0)
(4.95275 0.168002 0)
(4.9255 0.150375 0)
(4.91025 0.136659 0)
(4.90364 0.123231 0)
(4.90065 0.11104 0)
(4.8992 0.100573 0)
(4.89938 0.0911211 0)
(4.9013 0.0817815 0)
(4.90477 0.0721363 0)
(4.90907 0.0620846 0)
(4.91397 0.0516993 0)
(4.91878 0.0408645 0)
(4.92386 0.0294956 0)
(4.92814 0.0172851 0)
(4.93243 0.0042242 0)
(4.93452 -0.00983066 0)
(4.99795 0.267619 0)
(4.98673 0.212183 0)
(4.96244 0.176791 0)
(4.93937 0.15586 0)
(4.92528 0.140528 0)
(4.91897 0.126284 0)
(4.91653 0.112999 0)
(4.91576 0.101183 0)
(4.91641 0.0905324 0)
(4.91857 0.0803511 0)
(4.9221 0.0701609 0)
(4.92635 0.059769 0)
(4.93105 0.0491379 0)
(4.93555 0.0381685 0)
(4.94006 0.0267849 0)
(4.94372 0.0148235 0)
(4.94715 0.002323 0)
(4.94874 -0.0106919 0)
(4.98942 0.271039 0)
(4.98267 0.220117 0)
(4.96383 0.183855 0)
(4.94437 0.160264 0)
(4.93184 0.143021 0)
(4.92627 0.127738 0)
(4.92457 0.113501 0)
(4.92446 0.100561 0)
(4.92537 0.0888632 0)
(4.9273 0.07789 0)
(4.93037 0.067175 0)
(4.93411 0.0564663 0)
(4.93834 0.0456699 0)
(4.94238 0.0346937 0)
(4.94644 0.0234635 0)
(4.94961 0.0118803 0)
(4.95267 4.88934e-06 0)
(4.95392 -0.0120911 0)
(5.00227 0.274436 0)
(4.99771 0.227368 0)
(4.98272 0.191344 0)
(4.96625 0.165901 0)
(4.95485 0.146824 0)
(4.9492 0.13046 0)
(4.94716 0.115443 0)
(4.94682 0.101714 0)
(4.94748 0.0891966 0)
(4.94902 0.0775348 0)
(4.95157 0.0663111 0)
(4.95474 0.0552413 0)
(4.95845 0.0441951 0)
(4.962 0.0331003 0)
(4.96563 0.0219031 0)
(4.96835 0.0105743 0)
(4.97108 -0.000840421 0)
(4.97202 -0.0122219 0)
(5.00026 0.277313 0)
(4.99858 0.231733 0)
(4.98737 0.195978 0)
(4.97415 0.169219 0)
(4.96478 0.148556 0)
(4.96022 0.131099 0)
(4.95896 0.115308 0)
(4.95933 0.100815 0)
(4.96058 0.0875142 0)
(4.96249 0.0751758 0)
(4.96515 0.0634615 0)
(4.96823 0.0521045 0)
(4.97171 0.0409486 0)
(4.97492 0.0298978 0)
(4.97821 0.0189015 0)
(4.98057 0.00793864 0)
(4.98304 -0.00294814 0)
(4.98377 -0.0136642 0)
(5.01369 0.280567 0)
(5.01426 0.238078 0)
(5.00602 0.20296 0)
(4.99537 0.174985 0)
(4.98754 0.15255 0)
(4.98362 0.133647 0)
(4.9826 0.11687 0)
(4.9832 0.101596 0)
(4.98469 0.0876062 0)
(4.98671 0.0746705 0)
(4.98927 0.06251 0)
(4.99209 0.0508541 0)
(4.99525 0.0395231 0)
(4.99815 0.0284157 0)
(5.00113 0.0174955 0)
(5.00324 0.00677103 0)
(5.00552 -0.00371758 0)
(5.00621 -0.0138589 0)
(5.00787 0.279089 0)
(5.0118 0.240104 0)
(5.00811 0.205781 0)
(5.00198 0.177096 0)
(4.99764 0.153401 0)
(4.99594 0.133314 0)
(4.99619 0.115588 0)
(4.99754 0.0995139 0)
(4.99955 0.084773 0)
(5.00197 0.0711787 0)
(5.00484 0.058532 0)
(5.00791 0.0466216 0)
(5.01118 0.0352655 0)
(5.01417 0.0243339 0)
(5.01711 0.0137502 0)
(5.01927 0.00349568 0)
(5.02146 -0.00641826 0)
(5.02237 -0.0159151 0)
(5.00819 0.281723 0)
(5.01278 0.244256 0)
(5.01095 0.210185 0)
(5.00716 0.180834 0)
(5.00505 0.156082 0)
(5.00516 0.134997 0)
(5.00677 0.116504 0)
(5.00915 0.0998108 0)
(5.01193 0.0844875 0)
(5.01484 0.0703238 0)
(5.0179 0.0571677 0)
(5.02097 0.0448829 0)
(5.02413 0.03332 0)
(5.02705 0.0223844 0)
(5.02992 0.0119703 0)
(5.03218 0.00207901 0)
(5.03446 -0.00737205 0)
(5.03574 -0.0162703 0)
(5.0031 0.278817 0)
(5.00856 0.241906 0)
(5.00881 0.208146 0)
(5.00792 0.178291 0)
(5.00867 0.15238 0)
(5.01115 0.129976 0)
(5.01464 0.11043 0)
(5.01853 0.0930923 0)
(5.02252 0.0774455 0)
(5.02641 0.0631493 0)
(5.03018 0.049971 0)
(5.0337 0.0377501 0)
(5.03708 0.0263346 0)
(5.04007 0.0156289 0)
(5.04294 0.00552547 0)
(5.0452 -0.00398805 0)
(5.04751 -0.0130034 0)
(5.04891 -0.0214621 0)
(5.01085 0.283338 0)
(5.0179 0.244226 0)
(5.0206 0.209301 0)
(5.02241 0.178703 0)
(5.02571 0.15202 0)
(5.03024 0.12879 0)
(5.03515 0.108522 0)
(5.03993 0.0907004 0)
(5.04449 0.0748317 0)
(5.04876 0.0605226 0)
(5.05285 0.0474717 0)
(5.05664 0.0354853 0)
(5.06024 0.0243944 0)
(5.0634 0.0141142 0)
(5.06642 0.00451402 0)
(5.06881 -0.00441566 0)
(5.07125 -0.012824 0)
(5.07275 -0.0206234 0)
(5.00569 0.276491 0)
(5.01636 0.236131 0)
(5.0233 0.19935 0)
(5.02923 0.167117 0)
(5.03656 0.139475 0)
(5.04494 0.11586 0)
(5.05329 0.0954415 0)
(5.061 0.0774522 0)
(5.06803 0.0613464 0)
(5.07443 0.0467999 0)
(5.08029 0.0335959 0)
(5.08552 0.0215749 0)
(5.09024 0.010573 0)
(5.09427 0.000480217 0)
(5.0979 -0.00884462 0)
(5.1008 -0.0174427 0)
(5.10361 -0.0254597 0)
(5.10557 -0.0328538 0)
(5.00272 0.273698 0)
(5.01398 0.229084 0)
(5.02387 0.189 0)
(5.03434 0.154994 0)
(5.04622 0.126864 0)
(5.05834 0.103544 0)
(5.06945 0.0838897 0)
(5.0792 0.0670366 0)
(5.08783 0.0523781 0)
(5.09557 0.0394948 0)
(5.10261 0.0280507 0)
(5.1089 0.0177826 0)
(5.11451 0.00844243 0)
(5.11933 -0.000114797 0)
(5.12361 -0.00806127 0)
(5.12712 -0.0154272 0)
(5.13036 -0.0223717 0)
(5.13272 -0.0288188 0)
(4.99543 0.27102 0)
(5.00912 0.218239 0)
(5.02364 0.173814 0)
(5.03984 0.138029 0)
(5.05715 0.109292 0)
(5.07374 0.0855837 0)
(5.08841 0.0653734 0)
(5.10104 0.0478636 0)
(5.11198 0.0326913 0)
(5.12155 0.0195801 0)
(5.12994 0.00818685 0)
(5.13715 -0.00183559 0)
(5.1434 -0.0107949 0)
(5.14866 -0.0188893 0)
(5.15328 -0.0262903 0)
(5.15703 -0.0330661 0)
(5.16049 -0.0393392 0)
(5.16298 -0.0450966 0)
(5.00569 0.265809 0)
(5.02396 0.203632 0)
(5.04508 0.155493 0)
(5.06724 0.120359 0)
(5.08836 0.0944469 0)
(5.10676 0.0741575 0)
(5.1223 0.0572982 0)
(5.13582 0.0429098 0)
(5.14805 0.0305743 0)
(5.15914 0.0199393 0)
(5.16903 0.0106032 0)
(5.17758 0.00223395 0)
(5.18497 -0.00541757 0)
(5.1912 -0.0124581 0)
(5.19666 -0.0189871 0)
(5.20115 -0.0250019 0)
(5.20526 -0.0306299 0)
(5.20832 -0.035813 0)
(5.00097 0.259343 0)
(5.02892 0.185661 0)
(5.06143 0.132312 0)
(5.09333 0.0957923 0)
(5.1213 0.069049 0)
(5.14402 0.0471365 0)
(5.16222 0.0284241 0)
(5.17738 0.0129286 0)
(5.19053 0.000523131 0)
(5.20198 -0.00943756 0)
(5.21184 -0.0177514 0)
(5.22012 -0.0250115 0)
(5.22711 -0.0315391 0)
(5.23292 -0.0374656 0)
(5.23791 -0.0428748 0)
(5.2419 -0.0478132 0)
(5.24542 -0.052367 0)
(5.24789 -0.0565527 0)
(5.00676 0.243928 0)
(5.04311 0.163415 0)
(5.08627 0.11391 0)
(5.12514 0.0857074 0)
(5.15566 0.0663515 0)
(5.17904 0.049353 0)
(5.19843 0.0340743 0)
(5.21581 0.0212106 0)
(5.23146 0.0107734 0)
(5.24497 0.00212122 0)
(5.25625 -0.00541279 0)
(5.26549 -0.012182 0)
(5.27322 -0.0183224 0)
(5.27962 -0.0238704 0)
(5.28509 -0.0289175 0)
(5.28948 -0.0335126 0)
(5.29332 -0.037785 0)
(5.2961 -0.0417225 0)
(5.00505 0.227354 0)
(5.05863 0.125621 0)
(5.12074 0.0710393 0)
(5.17012 0.0429484 0)
(5.20363 0.0229124 0)
(5.22722 0.00530049 0)
(5.24684 -0.00888406 0)
(5.26466 -0.0191165 0)
(5.2806 -0.0265246 0)
(5.29413 -0.0325029 0)
(5.30533 -0.0378041 0)
(5.31453 -0.0426207 0)
(5.32226 -0.0469635 0)
(5.32866 -0.0508716 0)
(5.33412 -0.0544303 0)
(5.33847 -0.0577221 0)
(5.34225 -0.0608159 0)
(5.34496 -0.0637472 0)
(5.01423 0.211164 0)
(5.08918 0.111778 0)
(5.16879 0.0759759 0)
(5.22451 0.0593934 0)
(5.25888 0.0412057 0)
(5.28389 0.0230715 0)
(5.30632 0.00876381 0)
(5.32677 -0.00133207 0)
(5.34407 -0.00883881 0)
(5.35794 -0.0151063 0)
(5.36903 -0.020652 0)
(5.3781 -0.0255764 0)
(5.38575 -0.0299405 0)
(5.39211 -0.0338517 0)
(5.39751 -0.0374388 0)
(5.40181 -0.0407722 0)
(5.40552 -0.043924 0)
(5.40819 -0.046881 0)
(5.0077 0.15906 0)
(5.12181 0.0343455 0)
(5.22037 0.00617307 0)
(5.27641 -0.00339957 0)
(5.30765 -0.0174394 0)
(5.3325 -0.0297338 0)
(5.35621 -0.0374341 0)
(5.37765 -0.0423064 0)
(5.3954 -0.0462425 0)
(5.40951 -0.0498716 0)
(5.4209 -0.0531652 0)
(5.43032 -0.0560741 0)
(5.43833 -0.0586432 0)
(5.44505 -0.0609775 0)
(5.45081 -0.0631388 0)
(5.45546 -0.0651893 0)
(5.45952 -0.0671446 0)
(5.46252 -0.0690396 0)
(5.01317 0.15222 0)
(5.17625 0.0572078 0)
(5.29899 0.0431339 0)
(5.35787 0.0266975 0)
(5.38962 0.00757416 0)
(5.41719 -0.00604341 0)
(5.44321 -0.0141338 0)
(5.46552 -0.0197392 0)
(5.48323 -0.0245275 0)
(5.49701 -0.0288372 0)
(5.5079 -0.0326233 0)
(5.51667 -0.0359633 0)
(5.52375 -0.0389444 0)
(5.52934 -0.0417114 0)
(5.53361 -0.044273 0)
(5.53662 -0.0467307 0)
(5.53861 -0.0490372 0)
(5.53949 -0.0512992 0)
(5.01438 0.0195269 0)
(5.2269 -0.0515048 0)
(5.35275 -0.0343443 0)
(5.40564 -0.0428229 0)
(5.43482 -0.0529225 0)
(5.45766 -0.0575377 0)
(5.47466 -0.0593454 0)
(5.4843 -0.0606657 0)
(5.48667 -0.0620056 0)
(5.48314 -0.0632699 0)
(5.47498 -0.0643615 0)
(5.46335 -0.0653216 0)
(5.44867 -0.0661621 0)
(5.4317 -0.0669508 0)
(5.41231 -0.0676377 0)
(5.39153 -0.0683054 0)
(5.36859 -0.0688887 0)
(5.34535 -0.0695357 0)
(4.96907 0.0691894 0)
(5.10373 -0.00136434 0)
(5.07396 -0.00161258 0)
(4.95844 -0.0118313 0)
(4.82996 -0.0193269 0)
(4.70504 -0.0222261 0)
(4.58376 -0.0233169 0)
(4.46438 -0.0240252 0)
(4.34649 -0.0245615 0)
(4.23079 -0.0248877 0)
(4.11802 -0.0250143 0)
(4.00883 -0.025 0)
(3.9032 -0.0248926 0)
(3.80151 -0.0247418 0)
(3.70305 -0.0245509 0)
(3.60877 -0.0243641 0)
(3.517 -0.0241542 0)
(3.43014 -0.024018 0)
(-0.0017375 -0.00940949 1.77823e-21)
(0.0189446 -0.0386528 -1.76729e-21)
(0.0595394 -0.0545922 0)
(0.104842 -0.0604681 0)
(0.151805 -0.0613753 0)
(0.198404 -0.0599722 1.70981e-21)
(0.243908 -0.0575727 0)
(0.287862 -0.0547583 0)
(0.330058 -0.0516907 0)
(0.370258 -0.0483274 0)
(0.408055 -0.044508 -1.61124e-21)
(0.442813 -0.0400167 0)
(0.473615 -0.0346215 0)
(0.499297 -0.0281028 0)
(0.518441 -0.0202773 0)
(0.529485 -0.0110331 -1.49749e-21)
(0.530759 -0.000304348 0)
(0.520763 0.0118565 0)
(0.498154 0.0253465 0)
(0.460928 0.0398154 0)
(0.408428 0.0546536 0)
(0.340628 0.0689712 0)
(0.258423 0.0817628 0)
(0.163562 0.0917492 -1.39706e-21)
(0.0588229 0.0976254 1.3912e-21)
(-0.0526861 0.0982902 -1.38436e-21)
(-0.1665 0.0935306 -1.37593e-21)
(-0.277745 0.0826358 0)
(-0.380077 0.0655475 0)
(-0.470182 0.0415415 1.34006e-21)
(-0.542962 0.016875 1.32546e-21)
(-0.603797 0.00373073 0)
(-0.665779 0.00370307 0)
(-0.7411 0.0148072 1.27453e-21)
(-0.831414 0.0377928 0)
(-0.936836 0.0608589 0)
(-1.05615 0.0680811 -1.21608e-21)
(-1.18726 0.0703215 0)
(-1.32448 0.0955608 -1.1698e-21)
(-1.47058 0.12778 -2.29019e-21)
(-1.61779 0.130712 0)
(-1.74785 0.118153 0)
(-1.86259 0.103838 0)
(-1.95949 0.0884276 0)
(-2.03926 0.0730939 0)
(-2.10145 0.0580244 -1.96611e-21)
(-2.14683 0.0437226 -1.92487e-21)
(-2.1759 0.0302662 -1.89151e-21)
(-2.18946 0.0177942 0)
(-2.18833 0.00634341 1.8507e-21)
(-2.1734 -0.00404076 0)
(-2.14563 -0.0133523 -1.84493e-21)
(-2.1063 -0.0215928 -1.8543e-21)
(-2.0563 -0.028794 0)
(-1.99688 -0.0349659 0)
(-1.92919 -0.0401511 0)
(-1.85441 -0.0443868 -1.95479e-21)
(-1.77357 -0.0477588 0)
(-1.68792 -0.0503268 0)
(-1.59834 -0.0521956 0)
(-1.50578 -0.0534408 0)
(-1.41103 -0.0541572 0)
(-1.31481 -0.0544062 0)
(-1.21777 -0.0542666 0)
(-1.12045 -0.0538041 0)
(-1.02328 -0.0530963 2.29262e-21)
(-0.926615 -0.0521999 0)
(-0.830716 -0.0511806 0)
(-0.735742 -0.0500982 -2.3779e-21)
(-0.641764 -0.0490013 -2.40143e-21)
(-0.548796 -0.04793 0)
(-0.4568 -0.0469063 2.44164e-21)
(-0.365707 -0.0459432 -2.45857e-21)
(-0.275428 -0.0450504 0)
(-0.185883 -0.0442272 2.48671e-21)
(-0.0969685 -0.0434667 0)
(-0.00858382 -0.0427678 0)
(0.0793564 -0.0421078 -2.51634e-21)
(0.166891 -0.0414549 0)
(0.25394 -0.0407516 2.52857e-21)
(0.340335 -0.0399371 0)
(0.425784 -0.0389649 -2.53444e-21)
(0.509901 -0.0377956 -2.53471e-21)
(0.592269 -0.0364213 -2.53304e-21)
(0.672473 -0.0348576 -5.05875e-21)
(0.750149 -0.0331407 5.0474e-21)
(0.825025 -0.0313145 0)
(0.896891 -0.0294213 0)
(0.965585 -0.0275004 0)
(1.03101 -0.0255871 4.9646e-21)
(1.09313 -0.0236967 4.93563e-21)
(1.15192 -0.021844 -4.90385e-21)
(1.20741 -0.0200394 0)
(1.25964 -0.0182817 4.83284e-21)
(1.30864 -0.0165788 4.79412e-21)
(1.35445 -0.0149285 4.75356e-21)
(1.39712 -0.0133291 0)
(1.4367 -0.0117941 0)
(1.47324 -0.0103146 0)
(1.5068 -0.00890409 4.57754e-21)
(1.53748 -0.00755879 0)
(1.56537 -0.00628971 0)
(1.59058 -0.00510238 -4.43685e-21)
(1.61323 -0.00400171 0)
(1.63345 -0.00299098 0)
(1.65141 -0.00207152 -4.29407e-21)
(1.66724 -0.00124262 0)
(1.6811 -0.000501798 0)
(1.69315 0.000154864 4.15243e-21)
(1.70353 0.000732158 4.10582e-21)
(1.71238 0.0012354 0)
(1.71984 0.00167 -4.01375e-21)
(1.72603 0.00204122 0)
(1.73106 0.00235409 3.92334e-21)
(1.73506 0.00261325 0)
(1.73812 0.0028233 3.83468e-21)
(1.74034 0.0029884 3.791e-21)
(1.7418 0.00311338 0)
(1.7426 0.0032027 0)
(1.74282 0.00326201 0)
(1.74251 0.00329759 0)
(1.74175 0.00330719 0)
(1.74062 0.00328796 0)
(1.73917 0.00324234 0)
(1.73746 0.00317479 3.45676e-21)
(1.73554 0.00308927 -3.41676e-21)
(1.73346 0.00298885 0)
(1.73125 0.00287629 0)
(1.72896 0.00275407 0)
(1.72662 0.00262451 0)
(1.72425 0.00248997 -6.44434e-21)
(1.72188 0.00235288 0)
(1.71952 0.00221561 6.29338e-21)
(1.71719 0.00208037 -6.21884e-21)
(1.7149 0.00194908 0)
(1.71265 0.00182328 0)
(1.71046 0.00170416 0)
(1.70831 0.00159251 5.92665e-21)
(1.70622 0.00148874 5.85503e-21)
(1.70418 0.00139297 0)
(1.70218 0.00130503 5.71339e-21)
(1.70023 0.00122462 5.64336e-21)
(1.69831 0.00115146 -5.57384e-21)
(1.69643 0.00108522 0)
(1.69457 0.00102548 0)
(1.69274 0.000971727 -5.36824e-21)
(1.69093 0.000923475 0)
(1.68913 0.000880388 0)
(1.68734 0.000842314 0)
(1.68556 0.000809235 0)
(1.68377 0.00078108 5.03495e-21)
(1.68199 0.000757781 4.96964e-21)
(1.68019 0.000739173 0)
(1.67837 0.000725105 4.84032e-21)
(1.67653 0.000715434 0)
(1.67467 0.000709973 0)
(1.67276 0.00070859 4.64952e-21)
(1.67081 0.00071142 0)
(1.6688 0.000718678 4.52442e-21)
(1.66672 0.000730987 0)
(1.66454 0.000748965 0)
(1.66228 0.000773858 4.33994e-21)
(1.65987 0.000807181 0)
(1.65734 0.00085074 4.21912e-21)
(1.65454 0.00090827 0)
(1.65161 0.000980616 0)
(1.6482 0.00107903 0)
(1.64465 0.00119568 -3.98321e-21)
(1.64021 0.00136912 0)
(1.63567 0.00155126 3.86864e-21)
(1.6295 0.00187952 0)
(1.62324 0.00214427 0)
(1.61415 0.00283984 0)
(1.60441 0.00314341 0)
(1.59074 0.00484683 0)
(1.57236 0.00483845 0)
(1.55304 0.00975279 0)
(1.50807 0.00793129 -6.9167e-21)
(1.48876 0.025396 0)
(1.34584 0.0191484 0)
(9.58245e-05 -0.0260273 -5.33487e-21)
(0.0141694 -0.0947373 5.30153e-21)
(0.0367784 -0.126452 0)
(0.0595901 -0.135614 -3.47831e-21)
(0.0825318 -0.135394 0)
(0.105403 -0.131621 -1.71101e-21)
(0.128467 -0.126749 3.37942e-21)
(0.15164 -0.121496 3.34167e-21)
(0.174774 -0.115775 0)
(0.197532 -0.109131 3.25898e-21)
(0.219404 -0.100939 1.61235e-21)
(0.239622 -0.0905064 0)
(0.257153 -0.0771163 0)
(0.270726 -0.0601239 0)
(0.278802 -0.039024 0)
(0.279808 -0.0135726 1.4985e-21)
(0.272079 0.016151 0)
(0.254174 0.0496383 -2.8926e-21)
(0.224672 0.085954 0)
(0.183822 0.123794 0)
(0.130804 0.161337 2.80727e-21)
(0.0651496 0.196777 0)
(-0.012563 0.228544 -2.77809e-21)
(-0.101395 0.255271 1.39813e-21)
(-0.199719 0.275747 -1.39229e-21)
(-0.305139 0.287513 1.38549e-21)
(-0.415052 0.288898 1.37709e-21)
(-0.526025 0.278351 0)
(-0.63492 0.256788 0)
(-0.740703 0.228834 -1.34126e-21)
(-0.847127 0.201023 1.30624e-21)
(-0.966562 0.194039 0)
(-1.09538 0.216516 0)
(-1.22779 0.248004 -1.27569e-21)
(-1.36368 0.26967 0)
(-1.50777 0.287773 0)
(-1.653 0.320651 1.21733e-21)
(-1.79791 0.34285 0)
(-1.92574 0.336349 -1.1032e-21)
(-2.02938 0.314057 2.29277e-21)
(-2.1179 0.281952 0)
(-2.19152 0.245766 0)
(-2.25295 0.207688 4.1103e-21)
(-2.30066 0.169283 4.00343e-21)
(-2.33587 0.131606 3.90432e-21)
(-2.35817 0.09523 -1.84813e-21)
(-2.36833 0.0605792 1.9267e-21)
(-2.36638 0.0278368 5.57586e-21)
(-2.35295 -0.0028467 -3.64051e-21)
(-2.32839 -0.0313531 -1.85214e-21)
(-2.29329 -0.0575842 0)
(-2.2482 -0.0814518 1.84617e-21)
(-2.1936 -0.102908 -1.78812e-21)
(-2.13036 -0.1219 0)
(-2.05923 -0.138406 0)
(-1.98105 -0.152446 0)
(-1.89668 -0.164063 1.95567e-21)
(-1.80712 -0.173389 0)
(-1.7131 -0.18056 -4.02624e-21)
(-1.61558 -0.185772 0)
(-1.51534 -0.189225 -4.19284e-21)
(-1.41318 -0.191135 0)
(-1.30975 -0.191719 4.35544e-21)
(-1.20561 -0.191187 0)
(-1.10129 -0.189733 -4.50492e-21)
(-0.997227 -0.187555 2.27977e-21)
(-0.893734 -0.184823 0)
(-0.791071 -0.181728 4.6933e-21)
(-0.689374 -0.178431 2.37826e-21)
(-0.588688 -0.175096 2.40176e-21)
(-0.488992 -0.171832 0)
(-0.390216 -0.168726 2.43147e-21)
(-0.292273 -0.165806 2.45882e-21)
(-0.19506 -0.163085 0)
(-0.0984812 -0.160554 -2.48692e-21)
(-0.00243437 -0.158197 4.98611e-21)
(0.0931961 -0.156016 0)
(0.18853 -0.15396 2.5165e-21)
(0.283642 -0.151937 0)
(0.378484 -0.149774 -7.57631e-21)
(0.472885 -0.147285 0)
(0.566528 -0.144301 7.59516e-21)
(0.658993 -0.140714 2.53479e-21)
(0.749807 -0.13649 -2.52619e-21)
(0.838515 -0.131682 -5.04644e-21)
(0.924733 -0.1264 5.03635e-21)
(1.00819 -0.120778 0)
(1.08869 -0.114956 0)
(1.16608 -0.109046 0)
(1.2403 -0.103139 -1.48867e-20)
(1.31133 -0.0972965 -4.93562e-21)
(1.37916 -0.091555 4.90382e-21)
(1.44383 -0.0859376 0)
(1.50539 -0.0804551 4.82819e-21)
(1.56386 -0.0751153 -4.79405e-21)
(1.6193 -0.0699195 -4.75348e-21)
(1.67175 -0.0648687 0)
(1.72125 -0.0599766 0)
(1.76785 -0.0552443 0)
(1.81161 -0.0506878 -4.5774e-21)
(1.85262 -0.0463133 0)
(1.89096 -0.0421439 8.96603e-21)
(1.92673 -0.0381962 1.33082e-20)
(1.96004 -0.0344847 -8.77653e-21)
(1.99102 -0.031019 0)
(2.01981 -0.0278033 -4.2924e-21)
(2.04655 -0.024836 0)
(2.07139 -0.0221105 -8.39706e-21)
(2.09445 -0.0196163 4.15103e-21)
(2.11588 -0.0173405 4.10449e-21)
(2.1358 -0.015269 0)
(2.15433 -0.0133875 1.20396e-20)
(2.17156 -0.0116822 -7.93528e-21)
(2.18761 -0.0101401 -3.92308e-21)
(2.20255 -0.00874932 0)
(2.21647 -0.0074986 -3.8344e-21)
(2.22945 -0.00637776 -1.13715e-20)
(2.24155 -0.00537692 0)
(2.25284 -0.00448684 -7.40878e-21)
(2.26339 -0.0036984 -7.32404e-21)
(2.27326 -0.00300236 -7.24013e-21)
(2.28251 -0.00239387 0)
(2.29117 -0.00186866 0)
(2.29931 -0.00141927 0)
(2.30694 -0.00103696 3.45614e-21)
(2.31412 -0.000713798 3.41642e-21)
(2.32087 -0.000443067 0)
(2.32722 -0.000218468 6.67485e-21)
(2.33319 -3.41843e-05 6.59705e-21)
(2.33882 0.000114925 0)
(2.34412 0.000233633 6.44361e-21)
(2.3491 0.00032654 1.27354e-20)
(2.35379 0.00039794 -6.29264e-21)
(2.35819 0.000451722 -6.21796e-21)
(2.36231 0.000491365 0)
(2.36617 0.000519919 0)
(2.36978 0.000540003 0)
(2.37315 0.000553805 -5.92592e-21)
(2.37629 0.000563126 5.85423e-21)
(2.37921 0.000569426 1.15664e-20)
(2.38192 0.000573859 -5.71266e-21)
(2.38442 0.000577306 5.64259e-21)
(2.38672 0.000580375 5.57312e-21)
(2.38884 0.000583566 0)
(2.39078 0.000587321 0)
(2.39254 0.000592042 -5.3675e-21)
(2.39413 0.00059793 0)
(2.39557 0.000604988 0)
(2.39685 0.000613021 1.03324e-20)
(2.39797 0.000621898 0)
(2.39896 0.000631707 5.03424e-21)
(2.39981 0.000642775 -4.96897e-21)
(2.40052 0.000655693 0)
(2.4011 0.000671162 4.83962e-21)
(2.40156 0.00068984 0)
(2.4019 0.000712432 0)
(2.40212 0.000739695 -4.64888e-21)
(2.40222 0.000772608 9.1722e-21)
(2.4022 0.000812584 -4.52379e-21)
(2.40206 0.000860931 0)
(2.40179 0.000920591 0)
(2.4014 0.000992818 4.33923e-21)
(2.40084 0.00108445 0)
(2.40014 0.00119409 4.21838e-21)
(2.39923 0.00133983 0)
(2.39814 0.00150798 0)
(2.39673 0.00174999 0)
(2.39509 0.00200706 3.98263e-21)
(2.39296 0.00243159 0)
(2.39044 0.00281455 -3.86808e-21)
(2.38719 0.00361469 0)
(2.38314 0.00414557 0)
(2.37818 0.00579449 7.40311e-21)
(2.37112 0.00639825 -7.29645e-21)
(2.36369 0.0101622 0)
(2.34982 0.010436 0)
(2.33951 0.0200842 0)
(2.30836 0.0190842 2.07296e-20)
(2.29804 0.0478451 0)
(2.22292 0.0475153 -1.34854e-20)
(0.00264616 -0.0372546 4.7068e-24)
(0.00603632 -0.117523 -7.06474e-21)
(0.0112982 -0.148884 0)
(0.0139756 -0.156177 6.95337e-21)
(0.0169141 -0.156219 0)
(0.0205896 -0.154176 0)
(0.0255806 -0.151571 -9.27946e-24)
(0.0317413 -0.14837 -3.34358e-21)
(0.0388542 -0.143979 -3.29255e-21)
(0.0464742 -0.137522 -3.26083e-21)
(0.0540204 -0.127965 0)
(0.0607087 -0.114191 0)
(0.0654605 -0.0950279 3.10308e-21)
(0.0669755 -0.0694532 6.10276e-21)
(0.0636384 -0.0367289 -5.99943e-21)
(0.0538192 0.0033189 0)
(0.0356315 0.0503079 -5.80469e-21)
(0.00763826 0.103066 2.89406e-21)
(-0.0316891 0.159997 0)
(-0.0826204 0.218951 -5.58638e-21)
(-0.145616 0.277576 -2.80872e-21)
(-0.220157 0.333088 5.50709e-21)
(-0.304612 0.382816 2.77959e-21)
(-0.396536 0.424179 0)
(-0.494001 0.454856 -5.44772e-21)
(-0.595608 0.473019 -5.42822e-21)
(-0.699876 0.476197 0)
(-0.806053 0.46389 -5.36815e-21)
(-0.913674 0.436518 0)
(-1.02422 0.401011 -5.262e-21)
(-1.1482 0.394734 -2.63441e-21)
(-1.28284 0.416493 0)
(-1.41874 0.435058 0)
(-1.55677 0.460522 0)
(-1.69369 0.502817 0)
(-1.82752 0.531034 0)
(-1.94137 0.528679 0)
(-2.03587 0.50618 -4.48058e-21)
(-2.11486 0.471044 6.64222e-21)
(-2.18111 0.428772 0)
(-2.23756 0.379927 0)
(-2.28465 0.327414 0)
(-2.32337 0.272958 -1.94061e-22)
(-2.3531 0.218375 -4.00514e-21)
(-2.37395 0.164588 -7.63212e-21)
(-2.38516 0.112332 7.46442e-21)
(-2.3866 0.0620401 3.58134e-21)
(-2.37779 0.0140345 -3.68382e-21)
(-2.35868 -0.0314411 1.43016e-22)
(-2.32921 -0.0741573 -3.48298e-21)
(-2.28963 -0.113905 0)
(-2.24032 -0.150483 -3.50367e-21)
(-2.18183 -0.183683 1.0598e-22)
(-2.11485 -0.213307 0)
(-2.04022 -0.239218 0)
(-1.95882 -0.261342 3.71977e-21)
(-1.87161 -0.279704 0)
(-1.77957 -0.294416 0)
(-1.68358 -0.305667 -3.91863e-21)
(-1.58452 -0.313723 -8.12506e-21)
(-1.48318 -0.31891 4.19317e-21)
(-1.38028 -0.321579 0)
(-1.27645 -0.322081 -4.3557e-21)
(-1.17223 -0.320774 0)
(-1.06812 -0.317978 -4.45638e-21)
(-0.964535 -0.313997 -4.57303e-21)
(-0.86181 -0.309128 9.23156e-21)
(-0.760202 -0.303677 4.65582e-21)
(-0.65983 -0.297937 0)
(-0.560692 -0.292195 -9.55075e-21)
(-0.462692 -0.286659 0)
(-0.365685 -0.281459 -1.45852e-20)
(-0.269501 -0.276633 -9.77911e-21)
(-0.174003 -0.272164 -9.83863e-21)
(-0.0790862 -0.26803 9.89086e-21)
(0.0153392 -0.264214 -1.49224e-20)
(0.109406 -0.260722 0)
(0.203312 -0.257503 0)
(0.297242 -0.254409 1.00379e-20)
(0.391246 -0.251124 1.51091e-20)
(0.485178 -0.24728 0)
(0.578678 -0.242538 -5.06056e-21)
(0.671227 -0.236699 0)
(0.762234 -0.229712 1.51536e-20)
(0.851115 -0.221684 2.15687e-23)
(0.937403 -0.212837 -1.93196e-23)
(1.02078 -0.20344 -1.00369e-20)
(1.10106 -0.193743 0)
(1.17813 -0.183957 9.95892e-21)
(1.25195 -0.174217 1.2452e-23)
(1.32256 -0.164617 0)
(1.38999 -0.155218 0)
(1.45429 -0.146038 0)
(1.51553 -0.137101 -9.66074e-21)
(1.57375 -0.128401 0)
(1.629 -0.119947 0)
(1.68134 -0.111746 0)
(1.73079 -0.103799 0)
(1.77743 -0.0961236 0)
(1.8213 -0.0887311 -9.14794e-21)
(1.8625 -0.0816486 0)
(1.9011 -0.0749066 -8.96586e-21)
(1.93722 -0.0685342 -8.87136e-21)
(1.97097 -0.0625556 8.77639e-21)
(2.0025 -0.0569866 0)
(2.03195 -0.0518327 8.58615e-21)
(2.05947 -0.0470894 0)
(2.08521 -0.0427435 8.39696e-21)
(2.10931 -0.038775 -8.30315e-21)
(2.13191 -0.0351597 -2.46263e-20)
(2.15313 -0.0318712 0)
(2.17309 -0.028883 -2.40748e-20)
(2.19189 -0.0261693 -7.93232e-21)
(2.20964 -0.0237063 0)
(2.22641 -0.0214725 -1.551e-20)
(2.24229 -0.0194489 -1.53339e-20)
(2.25733 -0.0176184 2.27401e-20)
(2.2716 -0.0159663 0)
(2.28516 -0.0144791 7.40869e-21)
(2.29804 -0.0131447 7.32395e-21)
(2.3103 -0.0119525 2.17188e-20)
(2.32197 -0.0108898 0)
(2.3331 -0.00994417 0)
(2.34373 -0.0091043 0)
(2.35388 -0.00835917 6.91155e-21)
(2.36359 -0.0076982 0)
(2.37289 -0.00711142 0)
(2.38179 -0.00658946 -6.67474e-21)
(2.39033 -0.0061235 -6.59694e-21)
(2.39851 -0.00570524 0)
(2.40636 -0.00532719 0)
(2.41387 -0.00498286 -1.27352e-20)
(2.42106 -0.00466663 0)
(2.42794 -0.00437371 1.24358e-20)
(2.43452 -0.0041002 1.22877e-20)
(2.44079 -0.00384303 0)
(2.44678 -0.0035998 0)
(2.45248 -0.00336862 -1.18513e-20)
(2.4579 -0.00314799 -1.34027e-25)
(2.46305 -0.00293681 -1.16506e-25)
(2.46794 -0.00273423 0)
(2.47258 -0.00253954 -2.25697e-20)
(2.47697 -0.00235216 0)
(2.48113 -0.00217158 0)
(2.48505 -0.00199736 0)
(2.48875 -0.00182915 1.07347e-20)
(2.49223 -0.00166665 0)
(2.49549 -0.0015096 -2.09306e-20)
(2.49856 -0.00135783 -1.03321e-20)
(2.50142 -0.00121119 0)
(2.50408 -0.00106941 -1.00682e-20)
(2.50656 -0.000932153 0)
(2.50885 -0.000798809 0)
(2.51096 -0.000668606 -2.90367e-20)
(2.5129 -0.000540558 1.91017e-20)
(2.51466 -0.000413624 0)
(2.51626 -0.000286322 1.85946e-20)
(2.51769 -0.000157496 -9.17185e-21)
(2.51897 -2.46008e-05 0)
(2.52008 0.000113627 0)
(2.52103 0.000262885 0)
(2.52182 0.000423557 -2.60344e-20)
(2.52245 0.000608431 0)
(2.52289 0.000812274 -8.43656e-21)
(2.52317 0.00106623 0)
(2.52321 0.0013447 0)
(2.52306 0.00172864 0)
(2.52259 0.00212804 0)
(2.52189 0.00276123 0)
(2.52066 0.00334527 0)
(2.5192 0.00447932 -1.52434e-20)
(2.51672 0.00532351 0)
(2.51414 0.00753084 -7.40278e-21)
(2.50944 0.00870148 2.18836e-20)
(2.50522 0.0133908 0)
(2.49626 0.0149771 0)
(2.48971 0.025954 -1.39799e-20)
(2.47263 0.0288238 -1.38134e-20)
(2.46384 0.0572133 1.3614e-20)
(2.43515 0.0670136 1.34852e-20)
(0.00327608 -0.041851 1.06525e-20)
(-0.00363553 -0.11569 1.05826e-20)
(-0.0109847 -0.140982 6.99476e-21)
(-0.0214497 -0.14592 3.45971e-21)
(-0.0313681 -0.147177 0)
(-0.0405222 -0.147711 -6.80239e-21)
(-0.0483504 -0.147847 3.355e-21)
(-0.0550359 -0.147036 0)
(-0.0607109 -0.144421 3.29454e-21)
(-0.06576 -0.138844 0)
(-0.0707311 -0.128879 -6.37869e-21)
(-0.0764313 -0.112919 0)
(-0.0839114 -0.0893419 -3.10496e-21)
(-0.094584 -0.0566148 -6.10642e-21)
(-0.110153 -0.0135826 6.003e-21)
(-0.132222 0.0402603 0)
(-0.162623 0.104506 5.80801e-21)
(-0.202296 0.177332 0)
(-0.252837 0.256075 0)
(-0.313731 0.336516 5.58963e-21)
(-0.384846 0.414313 0)
(-0.465307 0.485313 -8.15866e-23)
(-0.553223 0.54606 0)
(-0.646109 0.594074 0)
(-0.741834 0.628183 8.53382e-23)
(-0.839119 0.647465 5.43143e-21)
(-0.937431 0.652049 5.31136e-21)
(-1.03689 0.642112 5.37134e-21)
(-1.13962 0.62407 0)
(-1.25635 0.620089 1.04123e-20)
(-1.38498 0.630706 0)
(-1.51283 0.642167 4.96785e-21)
(-1.64396 0.666719 0)
(-1.77614 0.6957 0)
(-1.8913 0.70413 -4.63283e-21)
(-1.98805 0.690347 0)
(-2.06886 0.659585 4.3909e-21)
(-2.13775 0.617368 2.15307e-22)
(-2.19672 0.56675 -8.51395e-21)
(-2.24744 0.509965 8.04806e-21)
(-2.29005 0.448099 0)
(-2.32472 0.383044 0)
(-2.35119 0.315933 3.45575e-21)
(-2.36916 0.248129 0)
(-2.37833 0.180491 3.72769e-21)
(-2.37832 0.113873 -3.6481e-21)
(-2.36893 0.0488955 -3.58247e-21)
(-2.34993 -0.0138633 0)
(-2.32131 -0.0739268 3.4993e-21)
(-2.28309 -0.130852 3.48358e-21)
(-2.23555 -0.184199 -6.63962e-21)
(-2.17906 -0.233459 3.504e-21)
(-2.11413 -0.278185 3.53844e-21)
(-2.04144 -0.318005 0)
(-1.96184 -0.352636 0)
(-1.87631 -0.381972 -3.71981e-21)
(-1.78586 -0.406055 0)
(-1.69148 -0.425051 0)
(-1.59408 -0.4393 7.94529e-21)
(-1.49448 -0.449221 8.12508e-21)
(-1.39341 -0.455285 0)
(-1.29144 -0.457987 0)
(-1.18908 -0.4578 0)
(-1.08678 -0.455181 0)
(-0.984924 -0.450563 8.96147e-21)
(-0.883902 -0.444327 -9.04481e-21)
(-0.78406 -0.436896 -9.23152e-21)
(-0.685684 -0.428687 -1.86488e-20)
(-0.588909 -0.420161 0)
(-0.493679 -0.411751 4.73308e-23)
(-0.399757 -0.403799 0)