/*--------------------------------*- C++ -*----------------------------------*\
  =========                 |
  \\      /  F ield         | OpenFOAM: The Open Source CFD Toolbox
   \\    /   O peration     | Website:  https://openfoam.org
    \\  /    A nd           | Version:  7
     \\/     M anipulation  |
\*---------------------------------------------------------------------------*/
FoamFile
{
    version     2.0;
    format      ascii;
    class       volScalarField;
    location    "0.031";
    object      nut;
}
// * * * * * * * * * * * * * * * * * * * * * * * * * * * * * * * * * * * * * //

dimensions      [0 2 -1 0 0 0 0];

internalField   nonuniform List<scalar> 
12225
(
0
0
0
0
0
0
0
0
0
0
0
0
0
0
0
0
0
0
0
0
0
0
0
0
0
0
0
0
0
0
0
0
0
0
0
0
0
2.36731e-10
9.07414e-10
1.07069e-09
7.01454e-10
0
0
0
0
0
0
0
0
0
0
0
0
0
0
6.04755e-09
1.12282e-08
6.89264e-09
2.20599e-09
0
0
0
0
0
0
0
0
0
0
0
0
0
3.46544e-07
2.71275e-07
1.83184e-07
1.11408e-07
4.73933e-08
0
0
0
2.93675e-10
1.37552e-09
1.57791e-09
1.31967e-09
8.7374e-10
2.35783e-10
0
0
0
0
3.28642e-07
2.95991e-07
3.38176e-07
2.90087e-07
2.85985e-07
2.89576e-07
2.32858e-07
8.18873e-08
2.56932e-08
2.52169e-08
2.20593e-08
1.05978e-08
2.9632e-11
0
0
0
0
0
2.77371e-07
1.48634e-07
3.85503e-07
4.45135e-07
4.33676e-07
3.94619e-07
2.55622e-07
7.17653e-08
0
0
2.17686e-09
1.45617e-10
0
0
2.94878e-09
8.55475e-09
8.40225e-09
2.76938e-09
2.91431e-07
6.12594e-08
2.92017e-07
6.92452e-07
7.70081e-07
4.83915e-07
1.74907e-07
1.80008e-08
0
0
3.52574e-09
0
0
0
4.49669e-09
2.44578e-08
3.632e-08
2.92911e-08
3.30424e-07
1.62224e-07
3.72415e-07
7.55998e-07
1.05382e-06
4.8099e-07
1.78329e-07
5.48626e-08
4.96937e-09
8.64368e-09
1.85908e-08
2.35677e-09
0
0
0
2.07823e-08
4.7944e-08
7.29101e-08
2.86245e-07
1.10189e-07
3.67922e-07
7.75766e-07
8.36388e-07
3.71586e-07
2.49412e-07
1.94771e-07
1.32264e-07
8.05545e-08
4.40461e-08
7.00166e-09
0
0
0
1.9428e-08
5.52238e-08
8.33075e-08
4.27652e-07
1.97141e-07
3.42454e-07
9.88262e-07
6.82521e-07
3.36167e-07
4.31482e-07
4.74355e-07
3.85331e-07
3.26668e-07
2.88254e-07
1.44266e-07
9.31115e-09
0
0
0
1.38829e-08
3.6418e-08
3.74752e-08
9.27767e-08
2.075e-07
8.79387e-07
6.08602e-07
3.42873e-07
5.80901e-07
5.41224e-07
4.45281e-07
4.26993e-07
4.2532e-07
2.12516e-07
1.04905e-09
0
0
0
0
0
0
0
0
0
6.61722e-08
1.8145e-07
3.61964e-07
3.34907e-07
2.31428e-07
2.45166e-07
3.86931e-07
2.5834e-07
6.99843e-09
0
0
0
0
0
0
0
0
0
0
0
0
3.78794e-07
2.13997e-07
2.23477e-07
4.20248e-07
3.41244e-07
1.2199e-07
3.03426e-08
2.86672e-09
0
0
0
0
0
0
0
0
0
0
0
0
1.10836e-07
2.87023e-07
4.10331e-07
4.89801e-07
4.97263e-07
3.13283e-07
0
0
0
0
0
0
0
0
0
0
0
0
3.89044e-08
1.46065e-07
3.87241e-07
6.09727e-07
8.47583e-07
5.79055e-07
0
0
0
0
0
0
0
0
0
0
0
1.29019e-08
7.00718e-08
1.77815e-07
2.1802e-07
2.41334e-07
2.34853e-07
1.13144e-07
1.32851e-08
0
0
0
0
0
0
0
0
0
0
0
5.64237e-08
1.42117e-07
1.23755e-07
4.28479e-08
0
0
0
0
0
3.9302e-07
5.26615e-07
0
0
0
1.10252e-06
4.36767e-07
0
0
0
6.56293e-08
7.53417e-08
0
0
0
0
0
0
0
0
0
7.37383e-07
0
0
0
0
0
0
0
0
0
0
5.03871e-08
1.27001e-07
1.6114e-07
1.54721e-07
2.71467e-07
0
7.84027e-08
3.75094e-07
0
0
0
2.26892e-08
2.26008e-08
0
0
0
0
3.65587e-08
1.06982e-07
1.29312e-07
1.21131e-07
8.94178e-08
0
0
0
0
0
0
7.8049e-08
1.42131e-07
1.35276e-07
9.26794e-08
5.49182e-08
0
0
0
0
0
0
0
0
0
0
0
0
0
8.17226e-08
1.71766e-07
2.68751e-07
3.29228e-07
1.92793e-07
1.05992e-08
0
0
0
0
0
0
0
0
0
0
0
0
8.73451e-08
2.74662e-07
3.55888e-07
1.9752e-07
5.16646e-08
0
0
0
0
0
0
0
0
0
0
0
0
0
1.63869e-07
2.98066e-07
1.80894e-07
2.94957e-08
0
0
0
0
0
0
0
0
0
0
0
0
0
0
0
6.31852e-08
1.27159e-07
9.05731e-08
4.20109e-09
0
0
0
0
0
0
0
1.83595e-09
0
0
0
0
0
0
0
0
0
0
0
0
0
0
0
0
0
4.47819e-09
0
0
0
0
0
0
0
0
0
0
0
0
0
0
0
0
0
5.24653e-09
0
0
0
0
0
0
0
0
0
0
0
0
0
0
0
0
0
3.89452e-08
0
0
0
0
0
0
0
0
0
0
0
0
0
0
0
0
0
7.66977e-09
0
0
0
0
0
0
0
0
0
0
0
0
0
4.36585e-08
6.50049e-07
1.769e-06
3.6176e-06
6.34957e-06
9.99903e-06
1.36668e-05
1.51374e-05
1.32314e-05
9.31692e-06
5.23655e-06
2.41603e-06
9.7575e-07
3.37115e-07
7.55662e-08
0
0
0
3.39694e-09
2.84156e-08
4.71276e-08
5.75739e-08
5.98445e-08
5.65166e-08
5.02004e-08
4.16321e-08
3.22758e-08
2.46919e-08
1.64698e-08
1.11391e-08
6.49249e-09
3.10706e-09
2.07865e-10
0
0
0
0
0
0
0
0
0
0
0
0
0
0
0
0
0
0
0
0
0
0
0
0
0
0
0
0
0
0
0
0
0
0
0
0
0
0
0
0
0
0
0
0
0
0
0
0
0
0
0
0
0
0
0
0
0
0
0
0
0
0
0
0
0
0
0
0
0
0
0
0
0
0
0
0
0
0
0
0
0
0
0
0
0
0
0
0
0
0
0
0
0
0
0
0
0
0
0
0
0
0
0
0
0
0
0
0
0
0
0
0
0
0
0
0
0
0
0
0
0
0
0
0
0
0
0
0
0
0
0
0
0
4.66541e-09
1.51662e-08
0
0
0
0
0
0
0
0
0
0
0
3.36218e-07
8.34874e-07
1.29244e-06
1.62492e-06
1.78485e-06
1.78709e-06
1.68874e-06
1.55055e-06
1.42367e-06
1.25939e-06
1.06608e-06
8.36857e-07
6.15924e-07
4.27541e-07
2.75631e-07
1.55692e-07
6.96685e-08
2.2139e-08
7.71481e-09
1.23814e-08
2.27523e-08
3.2176e-08
3.72562e-08
3.89666e-08
3.85001e-08
3.64664e-08
3.37579e-08
3.03706e-08
2.63953e-08
2.19106e-08
1.71251e-08
1.18403e-08
6.32095e-09
5.73874e-10
0
0
0
0
0
0
0
0
0
0
0
0
0
0
0
0
0
0
0
0
0
0
0
0
0
0
0
0
0
0
1.26993e-08
3.67567e-09
0
0
0
0
0
0
0
0
0
0
0
0
0
0
0
0
0
0
0
0
0
0
0
0
0
0
0
0
0
0
0
0
0
0
0
0
0
0
0
0
0
0
0
0
0
0
0
0
0
0
0
0
0
0
0
0
0
0
0
0
0
0
0
0
0
0
0
0
0
0
0
0
0
0
0
0
0
0
0
0
0
0
0
0
0
0
0
0
0
0
0
0
0
0
0
0
0
0
0
0
0
0
0
0
0
3.84665e-08
8.28491e-08
1.23812e-07
1.6569e-07
2.12054e-07
2.63659e-07
3.18025e-07
3.72216e-07
4.26643e-07
4.82102e-07
5.36017e-07
5.8289e-07
6.13228e-07
6.26824e-07
6.16468e-07
5.83639e-07
5.3265e-07
4.64979e-07
4.2148e-07
3.76502e-07
3.2302e-07
2.66465e-07
2.11831e-07
1.64115e-07
1.21726e-07
8.40086e-08
5.36802e-08
3.31756e-08
2.33501e-08
2.29919e-08
2.91696e-08
3.83364e-08
4.74987e-08
5.44872e-08
5.83895e-08
5.89745e-08
5.5833e-08
4.97582e-08
4.13098e-08
3.14974e-08
2.13395e-08
1.14582e-08
1.79678e-09
0
0
0
0
0
0
0
0
0
0
0
0
0
0
0
0
0
0
0
0
0
0
0
0
0
0
1.40094e-08
2.5364e-08
3.33134e-08
3.75079e-08
3.52466e-08
2.65404e-08
1.40788e-08
0
0
0
0
0
0
0
0
0
0
0
0
0
0
0
0
0
0
0
0
0
0
0
0
0
0
0
0
0
0
0
0
0
0
0
0
0
0
0
0
0
0
0
0
0
0
0
0
0
0
0
0
0
0
0
0
0
0
0
0
0
0
0
0
0
0
0
0
0
0
0
0
0
0
0
0
0
0
0
0
0
0
0
0
0
0
0
0
0
0
0
0
0
0
0
0
0
0
0
0
0
0
0
0
0
0
0
2.47666e-08
8.25424e-08
1.41917e-07
2.00912e-07
2.58141e-07
3.10572e-07
3.5505e-07
3.91332e-07
4.16028e-07
4.2556e-07
4.21654e-07
4.03021e-07
3.72914e-07
3.36616e-07
2.9624e-07
2.58914e-07
2.22802e-07
1.82672e-07
1.37748e-07
8.27951e-08
1.23295e-08
0
0
0
0
0
0
0
0
0
0
0
0
0
0
0
6.38219e-08
1.79698e-07
1.90755e-07
0
0
0
0
0
0
0
5.26438e-08
1.02874e-07
1.45902e-07
1.83229e-07
2.14858e-07
2.38883e-07
2.53139e-07
2.56071e-07
2.48901e-07
2.35684e-07
2.20053e-07
2.04764e-07
1.90843e-07
1.79021e-07
1.67084e-07
1.53252e-07
1.38307e-07
1.22635e-07
1.07261e-07
9.23899e-08
7.82581e-08
6.60521e-08
5.71797e-08
5.03196e-08
4.28656e-08
3.52101e-08
2.861e-08
2.32102e-08
1.86947e-08
1.47969e-08
1.13091e-08
8.08102e-09
4.99397e-09
1.98146e-09
0
0
0
0
0
0
0
0
0
0
0
0
0
0
0
0
0
0
0
0
0
0
0
0
0
0
0
0
0
0
0
0
0
0
0
0
0
0
0
0
0
0
0
0
0
0
0
0
0
0
0
0
0
0
0
0
0
0
0
0
0
7.68661e-16
1.27535e-15
1.4367e-15
1.42925e-15
1.34551e-15
1.24006e-15
1.133e-15
1.04282e-15
9.63632e-16
9.08913e-16
8.58178e-16
8.35897e-16
8.01685e-16
8.07399e-16
7.74832e-16
8.12381e-16
7.66509e-16
8.49738e-16
7.59484e-16
9.12041e-16
7.15247e-16
9.72502e-16
6.46085e-16
9.2966e-16
7.96068e-16
2.60752e-16
2.69237e-15
0
2.96979e-14
0
3.41134e-13
0
0
0
0
0
0
0
0
0
0
0
0
0
0
0
1.12002e-08
3.22248e-08
4.42898e-08
4.6901e-08
3.97931e-08
2.33598e-08
0
0
0
0
0
0
0
0
0
0
0
0
0
0
0
0
0
0
0
1.07585e-07
2.37005e-07
4.00427e-07
6.24122e-07
9.45324e-07
1.37176e-06
1.37581e-06
0
0
0
0
0
0
0
0
0
0
0
0
0
0
7.08552e-08
1.46643e-07
1.9687e-07
2.20152e-07
2.23269e-07
2.14926e-07
2.0161e-07
1.8746e-07
1.70376e-07
1.52156e-07
1.33828e-07
1.16498e-07
1.00807e-07
8.73169e-08
7.7063e-08
6.93381e-08
6.04611e-08
4.93987e-08
3.86904e-08
2.96565e-08
2.23181e-08
1.65153e-08
1.21291e-08
9.01952e-09
6.93079e-09
5.51131e-09
4.37606e-09
3.2888e-09
2.17087e-09
1.04005e-09
0
0
0
0
0
0
0
0
0
0
0
0
0
0
0
0
0
0
0
0
0
0
0
0
0
0
0
0
0
0
0
0
0
0
0
0
0
0
0
0
0
0
2.26059e-12
6.38989e-12
7.57166e-12
7.2627e-12
6.29577e-12
5.13649e-12
4.02199e-12
3.05814e-12
2.27759e-12
1.67343e-12
1.22019e-12
8.86839e-13
6.44332e-13
4.68834e-13
3.42153e-13
2.5088e-13
1.85183e-13
1.3786e-13
1.03623e-13
7.86659e-14
6.02628e-14
4.65434e-14
3.61782e-14
2.82938e-14
2.22151e-14
1.75269e-14
1.38448e-14
1.09685e-14
8.647e-15
6.77921e-15
5.18943e-15
3.80945e-15
2.57651e-15
1.26724e-15
2.24068e-16
0
0
0
0
0
0
0
1.21271e-14
0
6.19477e-13
0
3.18209e-12
0
0
0
0
0
0
0
0
0
0
0
0
0
0
0
0
0
0
0
0
0
0
0
0
0
0
0
0
0
0
0
0
0
0
0
3.29174e-09
1.26225e-07
2.28148e-07
3.09358e-07
3.80359e-07
4.57404e-07
5.62325e-07
7.24049e-07
9.74566e-07
1.34057e-06
1.69057e-06
1.05859e-06
0
0
0
0
0
0
0
0
0
0
0
0
0
0
0
0
0
2.67161e-08
1.50675e-07
2.13294e-07
2.33905e-07
2.23627e-07
1.96415e-07
1.68384e-07
1.4245e-07
1.20475e-07
1.03053e-07
9.04866e-08
8.30502e-08
7.73353e-08
6.8772e-08
5.8311e-08
4.80844e-08
3.83177e-08
2.89932e-08
2.04758e-08
1.30477e-08
6.99158e-09
2.58967e-09
1.3578e-11
0
0
0
0
0
0
0
0
0
0
0
0
0
0
0
0
0
0
0
0
0
0
0
0
0
0
0
0
0
0
0
0
0
0
0
0
0
0
0
0
0
0
0
0
0
0
0
0
0
0
0
0
0
0
0
0
0
0
0
0
0
0
0
0
0
0
0
5.59334e-15
1.20814e-14
1.30746e-14
1.12674e-14
8.01942e-15
4.21601e-15
7.87928e-17
0
0
0
0
0
0
0
0
6.01453e-15
2.05951e-14
1.36687e-13
3.33119e-13
1.8122e-12
3.47923e-12
1.305e-11
1.12486e-11
4.73356e-11
0
2.47457e-11
0
0
0
0
0
0
0
0
0
0
0
0
0
0
0
0
0
0
0
0
0
0
0
0
0
0
0
0
0
0
0
0
0
6.16209e-08
1.96765e-07
2.68886e-07
2.82156e-07
2.5964e-07
2.28477e-07
2.10175e-07
2.21871e-07
2.74678e-07
3.69658e-07
4.86555e-07
5.82333e-07
5.71135e-07
3.25089e-07
0
0
0
0
0
0
0
0
0
0
0
0
0
0
0
0
0
0
0
4.27737e-08
1.90761e-07
2.45983e-07
2.3864e-07
1.95053e-07
1.54967e-07
1.2336e-07
1.02395e-07
8.97064e-08
8.17235e-08
7.46317e-08
6.65984e-08
5.90929e-08
5.22961e-08
4.51971e-08
3.72376e-08
2.84878e-08
1.95839e-08
1.10853e-08
3.34919e-09
0
0
0
0
0
0
0
0
0
0
0
0
0
0
0
0
0
0
0
0
0
0
0
0
0
0
0
0
0
0
0
0
0
0
0
0
0
0
0
0
0
0
0
0
0
0
0
0
0
0
0
0
0
0
0
0
0
0
0
0
0
0
0
0
0
0
0
0
0
0
0
0
0
0
0
0
0
0
8.02263e-15
1.69407e-13
3.14989e-13
5.42687e-13
8.27017e-13
1.43516e-12
2.18307e-12
3.85598e-12
5.43621e-12
9.3831e-12
1.10704e-11
2.00109e-11
1.39026e-11
2.51414e-11
0
0
0
0
0
0
0
0
0
0
0
0
0
0
0
0
0
0
0
0
0
0
0
0
0
0
0
0
0
0
0
0
0
0
1.13847e-07
2.11069e-07
2.33818e-07
1.95926e-07
1.12493e-07
0
0
0
0
0
0
0
4.96237e-09
1.68482e-07
2.20073e-07
2.36899e-07
3.65386e-07
5.6983e-07
7.70586e-07
9.23643e-07
9.2369e-07
8.78075e-07
7.51721e-07
5.21707e-07
2.44248e-07
0
0
0
0
0
0
0
0
0
0
0
1.65152e-07
2.33693e-07
2.18129e-07
1.68041e-07
1.28772e-07
1.05168e-07
9.11018e-08
7.97772e-08
6.94109e-08
6.10665e-08
5.45696e-08
4.93643e-08
4.48561e-08
4.042e-08
3.52422e-08
2.85476e-08
2.03002e-08
1.14499e-08
2.84834e-09
0
0
0
0
0
0
0
0
0
0
0
0
0
0
0
0
0
0
0
0
0
0
0
0
0
0
0
0
0
0
0
0
0
0
0
0
0
0
0
0
0
0
0
0
0
0
0
0
0
0
0
0
0
0
0
0
0
0
0
0
0
0
0
0
0
0
0
0
0
0
0
0
0
0
0
0
0
0
7.97728e-14
2.03386e-13
3.71973e-13
5.8049e-13
9.97041e-13
1.51603e-12
2.58818e-12
3.60545e-12
5.82174e-12
6.60978e-12
1.08029e-11
6.23081e-12
6.4549e-12
0
0
0
0
0
0
0
0
0
0
0
0
0
0
0
0
0
0
0
0
0
0
0
0
0
0
0
0
0
0
0
0
0
1.06914e-07
1.93736e-07
1.95192e-07
1.13451e-07
0
0
0
0
0
0
0
0
4.69117e-07
1.09937e-06
1.49412e-06
9.33656e-07
0
0
0
0
7.56358e-08
4.04462e-07
5.5276e-07
6.00714e-07
5.95391e-07
6.05173e-07
5.61167e-07
4.04498e-07
7.24363e-08
0
0
0
0
0
0
0
0
0
1.47683e-07
1.93069e-07
1.6449e-07
1.28342e-07
1.03571e-07
8.68658e-08
7.40029e-08
6.36562e-08
5.60548e-08
5.04252e-08
4.56138e-08
4.10831e-08
3.68843e-08
3.32682e-08
3.0031e-08
2.61743e-08
2.03452e-08
1.23608e-08
3.30495e-09
0
0
0
0
0
0
0
0
0
0
0
0
0
0
0
0
0
0
0
0
0
0
0
0
0
0
0
0
0
0
0
0
0
0
0
0
0
0
0
0
0
0
0
0
0
0
0
0
0
0
0
0
0
0
0
0
0
0
0
0
0
0
0
0
0
0
0
0
0
0
0
0
0
0
0
0
0
3.00701e-15
9.99303e-14
2.13374e-13
3.41599e-13
5.81375e-13
8.74366e-13
1.43608e-12
1.93377e-12
2.95469e-12
2.96298e-12
3.52005e-12
1.09988e-12
0
0
0
0
0
0
0
0
0
0
0
0
0
0
0
0
0
0
0
0
0
0
0
0
0
0
0
0
0
0
0
0
0
4.80563e-08
1.23273e-07
1.21811e-07
3.99114e-08
0
0
0
0
0
0
0
3.39075e-07
1.41631e-06
3.18189e-06
5.8141e-06
8.62146e-06
5.89424e-06
0
0
0
0
0
2.27855e-07
5.95928e-07
5.83134e-07
3.87565e-07
2.24153e-07
1.7113e-07
2.31504e-07
3.06188e-07
2.53976e-07
0
0
0
0
0
0
0
0
2.39266e-08
1.40265e-07
1.46764e-07
1.21928e-07
9.74579e-08
7.8398e-08
6.50518e-08
5.57579e-08
4.91308e-08
4.46427e-08
4.15341e-08
3.8601e-08
3.50594e-08
3.10806e-08
2.73883e-08
2.45221e-08
2.22477e-08
1.9127e-08
1.34422e-08
5.05066e-09
0
0
0
0
0
0
0
0
0
0
0
0
0
0
0
0
0
0
0
0
0
0
0
0
0
0
0
0
0
0
0
0
0
0
0
0
0
0
0
0
0
0
0
0
0
0
0
0
0
0
0
0
0
0
0
0
0
0
0
0
0
0
0
0
0
0
0
0
0
0
0
0
0
0
0
0
0
1.58399e-14
9.11589e-14
1.60133e-13
2.72901e-13
3.99512e-13
6.20657e-13
7.71082e-13
1.10186e-12
7.82319e-13
4.50061e-13
0
0
0
0
0
0
0
0
0
0
0
0
0
0
0
0
0
0
0
0
0
0
0
0
0
0
0
0
0
0
0
0
0
0
3.54645e-08
5.04751e-08
7.58417e-09
0
0
0
0
0
0
0
5.33617e-07
1.75083e-06
4.03063e-06
8.02228e-06
1.42235e-05
2.23798e-05
1.54538e-05
0
0
0
0
0
0
6.34813e-07
9.89942e-07
8.22949e-07
4.72067e-07
1.88776e-07
3.81708e-08
3.15975e-08
1.21458e-07
1.85323e-07
1.19593e-07
0
0
0
0
0
0
0
9.97185e-08
1.28602e-07
1.07559e-07
8.39134e-08
6.72396e-08
5.60385e-08
4.80121e-08
4.16282e-08
3.67474e-08
3.39243e-08
3.27767e-08
3.17129e-08
2.94385e-08
2.61618e-08
2.28009e-08
2.00082e-08
1.81218e-08
1.65437e-08
1.3348e-08
6.82232e-09
0
0
0
0
0
0
0
0
0
0
0
0
0
0
0
0
0
0
0
0
0
0
0
0
0
0
0
0
0
0
0
0
0
0
0
0
0
0
0
0
0
0
0
0
0
0
0
0
0
0
0
0
0
0
0
0
0
0
0
0
0
0
0
0
0
0
0
0
0
0
0
0
0
0
0
0
0
0
3.61768e-14
7.51845e-14
1.02946e-13
1.50843e-13
1.30982e-13
9.65558e-14
0
0
0
0
0
0
0
7.04595e-11
5.62338e-11
0
0
0
0
0
0
0
0
0
0
0
0
0
0
0
0
0
0
0
0
0
0
0
0
0
0
0
0
0
0
0
0
0
0
0
0
1.48262e-07
8.54725e-07
2.2893e-06
4.62095e-06
7.55286e-06
9.80911e-06
7.82699e-06
0
0
0
0
0
0
0
0
2.35535e-07
5.926e-07
5.32218e-07
3.56156e-07
1.76436e-07
6.25088e-08
5.77123e-08
1.37026e-07
2.24941e-07
2.12884e-07
0
0
0
2.1744e-07
0
0
9.981e-08
1.18808e-07
8.48932e-08
5.95753e-08
4.84406e-08
4.3354e-08
3.95302e-08
3.55518e-08
3.11332e-08
2.74449e-08
2.59182e-08
2.62469e-08
2.63826e-08
2.47115e-08
2.18165e-08
1.90702e-08
1.68275e-08
1.51282e-08
1.40452e-08
1.25185e-08
8.22682e-09
0
0
0
0
0
0
0
0
0
0
0
0
0
0
0
0
0
0
0
0
0
0
0
0
0
0
0
0
0
0
0
0
0
0
0
0
0
0
0
0
0
0
0
0
0
0
0
0
0
0
0
0
0
0
0
0
0
0
0
0
0
0
0
0
0
0
0
0
0
0
0
0
0
0
0
0
0
0
0
0
0
0
0
0
0
0
0
0
0
0
9.4984e-09
7.3675e-09
5.85887e-09
0
0
0
0
0
0
0
0
0
0
0
0
0
0
0
0
0
0
1.54224e-10
4.49909e-09
1.10153e-08
1.75628e-08
1.8056e-08
6.57529e-09
0
0
0
0
0
0
0
0
0
0
0
0
2.03135e-07
6.98287e-07
1.2184e-06
1.31216e-06
6.6357e-08
0
0
0
0
0
0
0
0
0
0
7.03703e-08
2.11917e-07
2.16875e-07
1.49131e-07
5.33276e-08
3.86637e-08
1.34049e-07
2.60859e-07
3.13211e-07
2.20773e-07
0
0
0
0
0
1.13237e-07
1.09728e-07
6.60509e-08
3.91313e-08
3.00856e-08
2.91402e-08
2.98031e-08
2.94222e-08
2.75189e-08
2.44495e-08
2.17834e-08
2.14595e-08
2.2957e-08
2.34527e-08
2.13253e-08
1.80943e-08
1.57624e-08
1.43065e-08
1.29126e-08
1.17757e-08
1.10513e-08
8.83153e-09
1.95879e-09
0
0
0
0
0
0
0
0
0
0
0
0
0
0
0
0
0
0
0
0
0
0
0
0
0
0
0
0
0
0
0
0
0
0
0
0
0
0
0
0
0
0
0
0
0
0
0
0
0
0
0
0
0
0
0
0
0
0
0
0
0
0
0
0
0
0
0
0
0
0
0
0
0
0
0
0
0
0
0
0
0
0
0
0
0
0
0
0
1.51382e-07
5.94435e-08
2.00409e-08
1.087e-08
8.8219e-10
0
0
0
0
1.7554e-09
7.42034e-09
1.54449e-08
2.543e-08
3.51814e-08
4.28166e-08
4.74749e-08
5.12922e-08
5.60299e-08
6.32018e-08
7.24741e-08
8.032e-08
8.56754e-08
9.23422e-08
1.0051e-07
1.07825e-07
1.05962e-07
8.42246e-08
3.5555e-08
0
0
0
0
0
4.59006e-08
8.50393e-08
5.04646e-08
0
0
0
0
0
0
0
0
0
0
0
0
0
0
0
0
0
0
0
1.12793e-08
1.86527e-08
2.90636e-08
0
0
5.21255e-08
2.1805e-07
3.14807e-07
2.87809e-07
7.53129e-08
0
0
0
0
1.15085e-07
9.54648e-08
5.63239e-08
3.16869e-08
2.30844e-08
2.24235e-08
2.38153e-08
2.45984e-08
2.44005e-08
2.32757e-08
2.11894e-08
1.92996e-08
1.966e-08
2.16668e-08
2.19872e-08
1.91755e-08
1.55507e-08
1.33992e-08
1.2384e-08
1.10419e-08
9.38301e-09
8.77619e-09
8.51708e-09
4.4461e-09
0
0
0
0
0
0
0
0
0
0
0
0
0
0
0
0
0
0
0
0
0
0
0
0
0
0
0
0
0
0
0
0
0
0
0
0
0
0
0
0
0
0
0
0
0
0
0
0
0
0
0
0
0
0
0
0
0
0
0
0
0
0
0
0
0
0
0
0
0
0
0
0
0
0
0
0
0
0
0
0
0
0
0
0
0
0
0
8.70327e-07
1.86873e-07
5.24594e-08
2.40159e-08
1.46692e-08
8.53222e-09
1.19227e-08
1.77919e-08
2.6787e-08
3.8e-08
4.99899e-08
6.72846e-08
8.40945e-08
9.96309e-08
1.11747e-07
1.20512e-07
1.26053e-07
1.32561e-07
1.42757e-07
1.56916e-07
1.74551e-07
1.88454e-07
1.96497e-07
2.05779e-07
2.13598e-07
2.11221e-07
1.86301e-07
1.27849e-07
3.19675e-08
0
0
0
0
1.83294e-07
3.90367e-07
4.96976e-07
4.05381e-07
5.31438e-08
0
0
0
0
0
0
0
0
0
0
0
6.39928e-07
1.10848e-06
7.70529e-07
3.74897e-07
1.63995e-07
2.71983e-08
0
0
0
0
0
0
1.30748e-07
2.56399e-07
2.82405e-07
2.1213e-07
0
0
0
2.32863e-08
1.26545e-07
7.66023e-08
4.49785e-08
2.76995e-08
2.18058e-08
2.21496e-08
2.40327e-08
2.43986e-08
2.28083e-08
2.1091e-08
2.03458e-08
1.9594e-08
1.8594e-08
1.91081e-08
2.08819e-08
2.0733e-08
1.75728e-08
1.41511e-08
1.24241e-08
1.14167e-08
9.23575e-09
6.18032e-09
5.19033e-09
7.25155e-09
7.35388e-09
0
0
0
0
0
0
0
0
0
0
0
0
0
0
0
0
0
0
0
0
0
0
0
0
0
0
0
0
0
0
0
0
0
0
0
0
0
0
0
0
0
0
0
0
0
0
0
0
0
0
0
0
0
0
0
0
0
0
0
0
0
0
0
0
0
0
0
0
0
0
0
0
0
0
0
0
0
0
0
0
0
0
0
0
0
0
1.42914e-06
3.8159e-07
1.73005e-07
9.13887e-08
4.17968e-08
9.1429e-09
6.79369e-09
1.92048e-08
3.37014e-08
5.42576e-08
8.07941e-08
1.03368e-07
1.3262e-07
1.57974e-07
1.76443e-07
1.90093e-07
1.99732e-07
2.0748e-07
2.19207e-07
2.36977e-07
2.60083e-07
2.86688e-07
3.09795e-07
3.23986e-07
3.25171e-07
3.1628e-07
2.8718e-07
2.28715e-07
1.32544e-07
1.03605e-08
0
0
0
1.69374e-07
4.74715e-07
7.82676e-07
9.83723e-07
8.23371e-07
2.67043e-07
0
0
0
0
0
0
0
0
2.25323e-06
1.28699e-05
1.13473e-05
7.39304e-06
3.82694e-06
1.66142e-06
6.32897e-07
1.38494e-07
0
0
0
0
0
0
1.04902e-07
2.23268e-07
2.91286e-07
4.58711e-07
5.79448e-07
0
0
5.85368e-08
1.46521e-07
6.36346e-08
3.34251e-08
2.15441e-08
1.85834e-08
2.07032e-08
2.44212e-08
2.63257e-08
2.45253e-08
2.04819e-08
1.78601e-08
1.81192e-08
1.90294e-08
1.909e-08
1.95579e-08
2.02488e-08
1.91059e-08
1.62027e-08
1.40591e-08
1.31173e-08
1.12663e-08
6.94011e-09
2.07743e-09
1.09066e-09
5.56785e-09
9.25739e-09
3.25743e-09
0
0
0
0
0
0
0
0
0
0
0
0
0
0
0
0
0
0
0
0
0
0
0
0
0
0
0
0
0
0
0
0
0
0
0
0
0
0
0
0
0
0
0
0
0
0
0
0
0
0
0
0
0
0
0
0
0
0
0
0
0
0
0
0
0
0
0
0
0
0
0
0
0
0
0
0
0
0
0
0
0
0
0
0
2.91748e-06
1.33173e-06
7.80498e-07
3.60044e-07
1.50739e-07
4.44951e-08
0
1.66654e-08
4.31772e-08
5.80017e-08
7.83633e-08
1.11923e-07
1.39282e-07
1.70159e-07
1.95517e-07
2.13682e-07
2.2714e-07
2.37863e-07
2.47093e-07
2.62421e-07
2.86428e-07
3.14362e-07
3.45038e-07
3.69521e-07
3.91475e-07
3.82488e-07
3.49588e-07
2.92969e-07
2.14471e-07
1.12109e-07
9.16995e-09
0
0
7.87064e-08
3.10242e-07
6.10086e-07
9.45525e-07
1.17085e-06
1.06029e-06
5.69664e-07
0
0
0
0
0
0
0
2.08546e-05
1.97181e-05
1.17757e-05
6.10085e-06
2.86507e-06
1.21587e-06
3.96077e-07
1.42826e-08
0
0
0
1.09116e-08
0
0
6.54024e-08
2.00432e-07
3.64853e-07
1.05386e-06
9.22344e-07
0
0
1.93929e-07
1.51676e-07
5.53469e-08
2.4556e-08
1.42763e-08
1.12452e-08
1.21539e-08
1.54389e-08
1.87067e-08
1.95443e-08
1.70738e-08
1.35922e-08
1.27755e-08
1.47051e-08
1.65149e-08
1.70916e-08
1.70928e-08
1.63692e-08
1.4728e-08
1.32161e-08
1.25802e-08
1.13185e-08
7.39929e-09
1.30221e-09
0
0
3.02369e-09
7.67538e-09
2.84425e-09
0
0
0
0
0
0
0
0
0
0
0
0
0
0
0
0
0
0
0
0
0
0
0
0
0
0
0
0
0
0
0
0
0
0
0
0
0
0
0
0
0
0
0
0
0
0
0
0
0
0
0
0
0
0
0
0
0
0
0
0
0
0
0
0
0
0
0
0
0
0
0
0
0
0
0
0
0
0
0
0
0
0
0
1.99152e-06
3.04735e-06
1.57577e-06
7.81146e-07
3.57593e-07
1.2173e-07
2.18046e-08
0
3.41383e-08
5.55608e-08
6.57164e-08
8.52513e-08
1.16697e-07
1.46698e-07
1.73203e-07
1.97246e-07
2.14495e-07
2.2773e-07
2.38216e-07
2.49163e-07
2.63317e-07
2.88859e-07
3.18253e-07
3.43847e-07
3.69769e-07
3.85262e-07
3.76453e-07
3.37326e-07
2.70373e-07
1.89316e-07
1.02156e-07
2.54161e-08
0
1.77105e-08
1.22344e-07
3.15145e-07
5.73919e-07
8.1869e-07
1.06396e-06
1.00359e-06
7.82889e-07
1.80798e-07
0
0
0
0
0
4.08676e-06
5.31956e-06
3.80243e-06
2.09386e-06
9.61704e-07
2.97447e-07
0
0
0
0
3.9247e-08
3.99462e-08
0
0
0
1.94874e-07
6.40118e-07
1.59931e-06
7.48336e-07
1.20078e-07
7.74355e-08
3.8317e-07
1.61366e-07
6.33575e-08
3.07775e-08
1.89632e-08
1.30604e-08
1.00695e-08
1.00269e-08
1.1788e-08
1.3651e-08
1.3998e-08
1.23577e-08
1.09948e-08
1.22418e-08
1.43395e-08
1.55119e-08
1.56736e-08
1.48013e-08
1.32551e-08
1.17491e-08
1.07871e-08
9.4119e-09
6.25116e-09
4.78451e-10
0
0
0
2.33146e-09
6.05922e-09
1.79588e-09
0
0
0
0
0
0
0
0
0
0
0
0
0
0
0
0
0
0
0
0
0
0
0
0
0
0
0
0
0
0
0
0
0
0
0
0
0
0
0
0
0
0
0
0
0
0
0
0
0
0
0
0
0
0
0
0
0
0
0
0
0
0
0
0
0
0
0
0
0
0
0
0
0
0
0
0
0
0
0
0
0
0
6.65593e-07
2.4192e-06
2.22136e-06
1.15784e-06
8.12173e-07
5.4521e-07
2.66361e-07
1.61304e-07
8.48776e-08
1.05648e-08
4.85257e-08
6.3558e-08
7.79016e-08
1.01358e-07
1.26661e-07
1.48646e-07
1.71161e-07
1.86651e-07
1.99156e-07
2.06888e-07
2.19165e-07
2.28654e-07
2.52561e-07
2.74415e-07
2.97764e-07
3.18163e-07
3.25562e-07
3.18199e-07
2.84525e-07
2.29206e-07
1.56412e-07
8.43128e-08
2.4448e-08
0
1.08012e-08
7.96307e-08
2.07904e-07
3.64075e-07
5.71934e-07
6.74193e-07
7.50619e-07
6.70591e-07
4.46178e-07
1.64596e-07
0
0
1.08854e-07
6.11262e-07
8.49473e-07
6.68798e-07
3.4038e-07
6.72533e-08
0
0
0
0
7.65593e-08
1.02522e-07
3.78158e-08
0
0
0
3.51651e-07
8.40631e-07
8.6608e-07
4.76996e-07
2.61255e-07
3.52003e-07
4.12924e-07
1.68162e-07
8.05717e-08
4.81572e-08
3.5193e-08
2.78097e-08
2.29307e-08
2.10624e-08
2.0954e-08
2.08148e-08
2.0062e-08
1.84687e-08
1.66895e-08
1.67299e-08
1.80598e-08
1.84176e-08
1.81351e-08
1.72397e-08
1.56828e-08
1.37156e-08
1.1341e-08
7.88689e-09
4.209e-09
0
0
0
0
0
4.7355e-09
6.2822e-09
1.84104e-09
0
0
0
0
0
0
0
0
0
0
0
0
0
0
0
0
0
0
0
0
0
0
0
0
0
0
0
0
0
0
0
0
0
0
0
0
0
0
0
0
0
0
0
0
0
0
0
0
0
0
0
0
0
0
0
0
0
0
0
0
0
0
0
0
0
0
0
0
0
0
0
0
0
0
0
0
0
0
0
0
0
1.77581e-07
8.43664e-07
1.91438e-06
5.26955e-07
3.92577e-07
2.50026e-07
0
0
0
0
2.43569e-08
4.23603e-08
5.05855e-08
5.93213e-08
7.49503e-08
9.04197e-08
1.09037e-07
1.25779e-07
1.39149e-07
1.47537e-07
1.55534e-07
1.61984e-07
1.68069e-07
1.82888e-07
1.979e-07
2.15915e-07
2.28072e-07
2.31995e-07
2.23412e-07
1.99549e-07
1.60491e-07
1.08444e-07
5.14315e-08
3.15932e-09
0
0
0
5.61029e-08
1.41926e-07
2.25349e-07
3.16833e-07
3.50477e-07
3.19036e-07
2.66751e-07
1.72793e-07
7.12779e-08
6.94827e-09
0
0
0
0
0
0
0
6.15258e-08
1.41457e-07
1.73071e-07
1.46864e-07
7.46583e-08
1.3399e-09
4.0772e-09
1.2334e-07
2.24925e-07
3.27463e-07
3.14076e-07
2.4836e-07
2.2117e-07
3.93745e-07
3.46397e-07
1.75846e-07
1.00965e-07
6.86801e-08
5.34052e-08
4.40023e-08
3.81127e-08
3.60308e-08
3.58311e-08
3.47655e-08
3.21238e-08
2.85186e-08
2.50818e-08
2.35088e-08
2.39528e-08
2.35325e-08
2.226e-08
2.1037e-08
1.96638e-08
1.78411e-08
1.49513e-08
9.15412e-09
2.32601e-09
0
0
0
0
0
4.78942e-09
8.61659e-09
7.75618e-09
3.32887e-09
0
0
0
0
0
0
0
0
0
0
0
0
0
0
0
0
0
0
0
0
0
0
0
0
0
0
0
0
0
0
0
0
0
0
0
0
0
0
0
0
0
0
0
0
0
0
0
0
0
0
0
0
0
0
0
0
0
0
0
0
0
0
0
0
0
0
0
0
0
0
0
0
0
0
0
0
0
0
0
0
0
1.22586e-07
3.03461e-07
0
0
0
0
0
0
0
1.06022e-08
2.2788e-08
2.94611e-08
3.34372e-08
3.80127e-08
4.63554e-08
5.49809e-08
6.65811e-08
7.76829e-08
8.67752e-08
9.1578e-08
9.48646e-08
9.51144e-08
9.64375e-08
9.97538e-08
1.06572e-07
1.14861e-07
1.20279e-07
1.20429e-07
1.12499e-07
9.70586e-08
7.25222e-08
3.9395e-08
1.25481e-09
0
0
0
0
0
0
0
1.65316e-08
2.1314e-08
8.31376e-09
0
0
0
0
0
0
0
0
1.80722e-08
1.12597e-07
2.18729e-07
2.69707e-07
2.58446e-07
2.24069e-07
2.09723e-07
1.487e-07
7.35688e-08
5.81899e-08
6.08127e-08
8.42555e-08
1.0138e-07
1.06414e-07
1.62347e-07
4.57102e-07
3.16211e-07
1.93701e-07
1.2558e-07
8.91831e-08
6.92802e-08
5.69442e-08
4.98822e-08
4.78111e-08
4.78874e-08
4.67008e-08
4.34158e-08
3.85471e-08
3.29097e-08
2.94937e-08
2.89276e-08
2.83191e-08
2.62257e-08
2.43839e-08
2.30679e-08
2.17467e-08
1.93843e-08
1.32834e-08
3.07156e-09
0
0
0
0
3.10446e-10
6.40191e-09
1.09547e-08
1.27434e-08
1.01375e-08
5.69908e-09
1.13092e-09
0
0
0
0
0
0
0
0
0
0
0
0
0
0
0
0
0
0
0
0
0
0
0
0
0
0
0
0
0
0
0
0
0
0
0
0
0
0
0
0
0
0
0
0
0
0
0
0
0
0
0
0
0
0
0
0
0
0
0
0
0
0
0
0
0
0
0
0
0
0
0
0
0
0
0
0
0
0
0
0
0
0
0
0
0
0
0
0
3.26888e-09
9.46631e-09
1.24914e-08
1.37887e-08
1.40475e-08
1.45443e-08
1.57503e-08
1.84953e-08
2.05751e-08
2.43059e-08
2.47193e-08
2.44883e-08
2.25392e-08
1.98548e-08
1.76696e-08
1.60345e-08
1.49431e-08
1.33784e-08
1.13911e-08
7.66994e-09
1.6038e-09
0
0
0
0
0
0
0
0
0
0
0
0
0
0
0
0
0
0
0
0
7.05174e-08
1.48248e-07
2.63137e-07
3.503e-07
3.60434e-07
3.25467e-07
3.29251e-07
3.3547e-07
1.55061e-07
7.02722e-08
3.20255e-08
2.07777e-08
2.61127e-08
3.85809e-08
6.64904e-08
2.95912e-07
4.75364e-07
2.90307e-07
1.99753e-07
1.37866e-07
9.87658e-08
7.87853e-08
6.79551e-08
6.17987e-08
6.01213e-08
6.03649e-08
5.91892e-08
5.57447e-08
5.01435e-08
4.23194e-08
3.63184e-08
3.39631e-08
3.28518e-08
3.03113e-08
2.77395e-08
2.61613e-08
2.52164e-08
2.34259e-08
1.83693e-08
7.16852e-09
0
0
0
0
4.03596e-10
8.63218e-09
1.3683e-08
1.70089e-08
1.65435e-08
1.24754e-08
6.11506e-09
0
0
0
0
0
0
0
0
0
0
0
0
0
0
0
0
0
0
0
0
0
0
0
0
0
0
0
0
0
0
0
0
0
0
0
0
0
0
0
0
0
0
0
0
0
0
0
0
0
0
0
0
0
0
0
0
0
0
0
0
0
0
0
0
0
0
0
0
0
0
0
0
0
0
0
0
0
0
0
0
0
0
0
0
4.15683e-09
8.59717e-09
0
0
0
0
0
0
0
0
0
0
0
0
0
0
0
0
0
0
0
0
0
0
0
0
0
0
0
0
0
0
0
0
0
0
0
0
0
0
0
0
0
2.16757e-08
1.21555e-07
1.85266e-07
2.73493e-07
3.88875e-07
4.36888e-07
4.04405e-07
3.64253e-07
4.87944e-07
2.7188e-07
1.53442e-07
7.60109e-08
3.01106e-08
1.4697e-08
1.84635e-08
3.69967e-08
1.68954e-07
5.14348e-07
3.50643e-07
2.49067e-07
1.79053e-07
1.2553e-07
9.73885e-08
8.4669e-08
7.82491e-08
7.41563e-08
7.27255e-08
7.26373e-08
7.14859e-08
6.82761e-08
6.24848e-08
5.33574e-08
4.51321e-08
4.04189e-08
3.79905e-08
3.49269e-08
3.16925e-08
2.96371e-08
2.87819e-08
2.73773e-08
2.32018e-08
1.32367e-08
0
0
0
0
0
1.08658e-08
1.6761e-08
2.06662e-08
2.20524e-08
1.91562e-08
1.19011e-08
9.3724e-10
0
0
0
0
0
0
0
0
0
0
0
0
0
0
0
0
0
0
0
0
0
0
0
0
0
0
0
0
0
0
0
0
0
0
0
0
0
0
0
0
0
0
0
0
0
0
0
0
0
0
0
0
0
0
0
0
0
0
0
0
0
0
0
0
0
0
0
0
0
0
0
0
0
0
0
0
0
0
0
0
0
0
0
0
0
0
0
0
0
0
0
0
0
0
0
0
0
0
0
0
0
0
0
0
0
0
0
0
0
0
0
0
0
0
0
0
0
0
0
0
0
0
0
0
0
5.18731e-08
1.4878e-07
2.25764e-07
2.71827e-07
3.84895e-07
4.8249e-07
4.80421e-07
4.00333e-07
6.0374e-07
4.16582e-07
2.68733e-07
1.65896e-07
9.11266e-08
4.46111e-08
3.18307e-08
4.88534e-08
1.53913e-07
3.8725e-07
3.11514e-07
2.41804e-07
1.9196e-07
1.44145e-07
1.1501e-07
9.94598e-08
9.40687e-08
8.97169e-08
8.45969e-08
8.16088e-08
8.0469e-08
7.93867e-08
7.68452e-08
7.22457e-08
6.38957e-08
5.46817e-08
4.83562e-08
4.44066e-08
4.0474e-08
3.64741e-08
3.38178e-08
3.26868e-08
3.13481e-08
2.75597e-08
1.94489e-08
6.65596e-09
0
0
0
0
1.2705e-08
2.00177e-08
2.37613e-08
2.63054e-08
2.50373e-08
1.79163e-08
4.28539e-09
0
0
0
0
0
0
0
0
0
0
0
0
0
0
0
0
0
0
0
0
0
0
0
0
0
0
0
0
0
0
0
0
0
0
0
0
0
0
0
0
0
0
0
0
0
0
0
0
0
0
0
0
0
0
0
0
0
0
0
0
0
0
0
0
0
0
0
0
0
0
0
0
0
0
0
0
0
0
1.29158e-07
1.9546e-07
0
0
0
0
0
0
0
0
0
0
0
0
0
0
0
0
0
0
0
0
0
0
0
0
0
0
0
0
0
0
0
0
0
0
0
0
0
0
0
0
0
0
0
0
0
7.13235e-08
1.83645e-07
2.49486e-07
3.29992e-07
4.76014e-07
5.26756e-07
4.74283e-07
6.29172e-07
5.49238e-07
4.0951e-07
2.962e-07
1.86736e-07
1.16584e-07
9.95959e-08
1.39608e-07
2.89853e-07
3.09333e-07
2.52574e-07
2.15829e-07
1.85207e-07
1.60697e-07
1.3117e-07
1.12853e-07
1.08013e-07
1.05155e-07
9.98452e-08
9.29452e-08
8.74943e-08
8.47565e-08
8.33269e-08
8.16369e-08
7.86555e-08
7.25725e-08
6.37422e-08
5.68904e-08
5.1954e-08
4.70573e-08
4.22139e-08
3.8885e-08
3.72954e-08
3.55672e-08
3.17196e-08
2.49998e-08
1.50098e-08
3.37967e-09
0
0
6.78253e-11
1.40488e-08
2.32181e-08
2.6351e-08
2.91412e-08
2.9511e-08
2.34848e-08
8.28375e-09
0
0
0
0
0
0
0
0
0
0
0
0
0
0
0
0
0
0
0
0
0
0
0
0
0
0
0
0
0
0
0
0
0
0
0
0
0
0
0
0
0
0
0
0
0
0
0
0
0
0
0
0
0
0
0
0
0
0
0
0
0
0
0
0
0
0
0
0
0
0
0
0
0
0
0
0
0
5.15019e-08
7.57193e-08
5.02786e-08
0
0
0
0
0
0
0
0
0
0
0
0
0
0
0
0
0
0
0
0
0
0
0
0
0
0
0
0
0
0
0
0
0
0
0
0
0
0
0
0
0
0
0
0
0
3.44796e-08
1.38588e-07
2.14235e-07
4.02098e-07
5.23827e-07
5.43731e-07
6.45488e-07
6.01802e-07
4.94705e-07
4.26501e-07
3.2128e-07
2.08765e-07
2.0745e-07
2.9731e-07
3.44582e-07
3.26108e-07
2.81678e-07
2.43801e-07
2.13663e-07
1.84595e-07
1.41483e-07
1.19982e-07
1.19048e-07
1.19819e-07
1.15712e-07
1.08006e-07
9.81917e-08
9.13604e-08
8.75402e-08
8.59752e-08
8.50675e-08
8.336e-08
7.88234e-08
7.11125e-08
6.44066e-08
5.89786e-08
5.32533e-08
4.75524e-08
4.36598e-08
4.18006e-08
3.98559e-08
3.55964e-08
2.94662e-08
2.2651e-08
1.32841e-08
4.23844e-09
1.32693e-10
2.79013e-09
1.5166e-08
2.58601e-08
2.81909e-08
3.03074e-08
3.18781e-08
2.75336e-08
1.19963e-08
0
0
0
0
0
0
0
0
0
0
0
0
0
0
0
0
0
0
0
0
0
0
0
0
0
0
0
0
0
0
0
0
0
0
0
0
0
0
0
0
0
0
0
0
0
0
0
0
0
0
0
0
0
0
0
0
0
0
0
0
0
0
0
0
0
0
0
0
0
0
0
0
0
0
0
0
0
0
2.29855e-08
3.32074e-08
1.65644e-08
0
0
0
0
0
0
0
0
0
0
0
0
0
0
0
0
0
0
0
0
0
0
0
0
0
0
0
0
0
0
0
0
0
0
0
0
0
0
0
0
0
0
0
0
0
2.37497e-08
1.56485e-07
4.29466e-07
5.50689e-07
7.15147e-07
5.73462e-07
4.8889e-07
4.71853e-07
4.28248e-07
3.02153e-07
2.62963e-07
2.49797e-07
2.17422e-07
2.18018e-07
2.42323e-07
2.40286e-07
2.12686e-07
1.66697e-07
1.29407e-07
1.18567e-07
1.22003e-07
1.26668e-07
1.2586e-07
1.20308e-07
1.11281e-07
9.97048e-08
9.137e-08
8.68259e-08
8.52429e-08
8.52377e-08
8.48518e-08
8.1816e-08
7.53341e-08
6.91114e-08
6.35834e-08
5.72537e-08
5.07587e-08
4.63203e-08
4.41705e-08
4.21234e-08
3.76243e-08
3.17526e-08
2.75185e-08
2.20933e-08
1.36807e-08
7.61269e-09
7.38963e-09
1.62127e-08
2.68881e-08
2.84163e-08
2.91652e-08
3.11123e-08
2.83089e-08
1.37268e-08
0
0
0
0
0
0
0
0
0
0
0
0
0
0
0
0
0
0
0
0
0
0
0
0
0
0
0
0
0
0
0
0
0
0
0
0
0
0
0
0
0
0
0
0
0
0
0
0
0
0
0
0
0
0
0
0
0
0
0
0
0
0
0
0
0
0
0
0
0
0
0
0
0
0
0
0
0
0
0
1.11524e-08
1.99048e-08
1.73485e-08
2.7178e-09
0
0
0
0
0
0
0
0
0
0
0
0
0
0
0
0
0
0
0
0
0
0
0
0
0
0
0
0
0
0
0
0
0
0
0
0
0
0
0
0
0
0
0
0
3.44632e-07
6.72353e-07
8.11057e-07
4.8324e-07
4.12835e-07
4.38975e-07
4.60341e-07
3.88176e-07
3.06148e-07
2.08701e-07
1.72068e-07
1.55582e-07
1.48937e-07
1.4454e-07
1.3565e-07
1.23121e-07
1.16474e-07
1.18974e-07
1.24592e-07
1.29917e-07
1.30091e-07
1.26126e-07
1.19212e-07
1.09311e-07
9.82402e-08
9.01439e-08
8.53527e-08
8.35922e-08
8.40722e-08
8.47684e-08
8.31155e-08