/*--------------------------------*- C++ -*----------------------------------*\
  =========                 |
  \\      /  F ield         | OpenFOAM: The Open Source CFD Toolbox
   \\    /   O peration     | Website:  https://openfoam.org
    \\  /    A nd           | Version:  7
     \\/     M anipulation  |
\*---------------------------------------------------------------------------*/
FoamFile
{
    version     2.0;
    format      ascii;
    class       surfaceScalarField;
    location    "0.031";
    object      phi;
}
// * * * * * * * * * * * * * * * * * * * * * * * * * * * * * * * * * * * * * //

dimensions      [0 3 -1 0 0 0 0];

internalField   nonuniform List<scalar> 
24170
(
1.39691e-06
2.12876e-07
1.26178e-06
1.35133e-07
1.13102e-06
1.30767e-07
1.0142e-06
1.16813e-07
9.01638e-07
1.12564e-07
7.91089e-07
1.10549e-07
6.89167e-07
1.01922e-07
6.01387e-07
8.77798e-08
5.2753e-07
7.38572e-08
4.64635e-07
6.28953e-08
4.10438e-07
5.41963e-08
3.63698e-07
4.67409e-08
3.23785e-07
3.9913e-08
2.90395e-07
3.33894e-08
2.62438e-07
2.79571e-08
2.39787e-07
2.2651e-08
2.18107e-07
2.16801e-08
1.78718e-08
2.00235e-07
1.65514e-06
2.88781e-07
1.63173e-06
1.58541e-07
1.60683e-06
1.55666e-07
1.5793e-06
1.4435e-07
1.54525e-06
1.46609e-07
1.50091e-06
1.5489e-07
1.45144e-06
1.51387e-07
1.4036e-06
1.3562e-07
1.35927e-06
1.18188e-07
1.31692e-06
1.05248e-07
1.27502e-06
9.60945e-08
1.23305e-06
8.87175e-08
1.19134e-06
8.16223e-08
1.15009e-06
7.46333e-08
1.11009e-06
6.79591e-08
1.07209e-06
6.06479e-08
1.03622e-06
5.75533e-08
5.32597e-08
1.00083e-06
1.81012e-06
2.99267e-07
1.77908e-06
1.89585e-07
1.75548e-06
1.79259e-07
1.7432e-06
1.56633e-07
1.73828e-06
1.51532e-07
1.7319e-06
1.61266e-07
1.72169e-06
1.61594e-07
1.7103e-06
1.47013e-07
1.69995e-06
1.28539e-07
1.69019e-06
1.1501e-07
1.67927e-06
1.07011e-07
1.66619e-06
1.01798e-07
1.6505e-06
9.73121e-08
1.63225e-06
9.28776e-08
1.61142e-06
8.87944e-08
1.58838e-06
8.36854e-08
1.56499e-06
8.09425e-08
7.86417e-08
1.53961e-06
1.95656e-06
3.1999e-07
1.91531e-06
2.30835e-07
1.88499e-06
2.09578e-07
1.86935e-06
1.7227e-07
1.86383e-06
1.57051e-07
1.86412e-06
1.6098e-07
1.86705e-06
1.58664e-07
1.87037e-06
1.43688e-07
1.87247e-06
1.26447e-07
1.87208e-06
1.15396e-07
1.86853e-06
1.10564e-07
1.86224e-06
1.0809e-07
1.85413e-06
1.05414e-07
1.84515e-06
1.01865e-07
1.83569e-06
9.82514e-08
1.82532e-06
9.40586e-08
1.81497e-06
9.12858e-08
8.93806e-08
1.80423e-06
2.07298e-06
3.14974e-07
2.04866e-06
2.55151e-07
2.03314e-06
2.25102e-07
2.01636e-06
1.89047e-07
2.00563e-06
1.67789e-07
2.00558e-06
1.61028e-07
2.01136e-06
1.52882e-07
2.01608e-06
1.38973e-07
2.01674e-06
1.25785e-07
2.01402e-06
1.18112e-07
2.00971e-06
1.1488e-07
2.00515e-06
1.12646e-07
2.00101e-06
1.0955e-07
1.99741e-06
1.05467e-07
1.99413e-06
1.01531e-07
1.99032e-06
9.78742e-08
1.98616e-06
9.54385e-08
9.41586e-08
1.98139e-06
2.25674e-06
3.76161e-07
2.2365e-06
2.75387e-07
2.23246e-06
2.29147e-07
2.21703e-06
2.04473e-07
2.19628e-06
1.8854e-07
2.18189e-06
1.75417e-07
2.17434e-06
1.60431e-07
2.16845e-06
1.44859e-07
2.16146e-06
1.32778e-07
2.15424e-06
1.25335e-07
2.14869e-06
1.20431e-07
2.14567e-06
1.15669e-07
2.14476e-06
1.10451e-07
2.14512e-06
1.05108e-07
2.14605e-06
1.00609e-07
2.14696e-06
9.69577e-08
2.14807e-06
9.43348e-08
9.29709e-08
2.14925e-06
2.43282e-06
4.61498e-07
2.38622e-06
3.21983e-07
2.3751e-06
2.40269e-07
2.36367e-06
2.15907e-07
2.34357e-06
2.08633e-07
2.3254e-06
1.93594e-07
2.31529e-06
1.70537e-07
2.31146e-06
1.48689e-07
2.31002e-06
1.34222e-07
2.30889e-06
1.2646e-07
2.30788e-06
1.21442e-07
2.30731e-06
1.16242e-07
2.30745e-06
1.1031e-07
2.30837e-06
1.04193e-07
2.31004e-06
9.89347e-08
2.31216e-06
9.48339e-08
2.31441e-06
9.20847e-08
9.10705e-08
2.31631e-06
2.61099e-06
4.55721e-07
2.58632e-06
3.46646e-07
2.57396e-06
2.52634e-07
2.56464e-06
2.25226e-07
2.54917e-06
2.24098e-07
2.53338e-06
2.09389e-07
2.52204e-06
1.81873e-07
2.51463e-06
1.56103e-07
2.50855e-06
1.40294e-07
2.50212e-06
1.32896e-07
2.49529e-06
1.28273e-07
2.48916e-06
1.22374e-07
2.48514e-06
1.14327e-07
2.48403e-06
1.05304e-07
2.48564e-06
9.73177e-08
2.48884e-06
9.16378e-08
2.49207e-06
8.88522e-08
8.87573e-08
2.49439e-06
2.82117e-06
5.18281e-07
2.78352e-06
3.84298e-07
2.74563e-06
2.90522e-07
2.71779e-06
2.5307e-07
2.70842e-06
2.33467e-07
2.708e-06
2.09809e-07
2.7082e-06
1.8167e-07
2.70701e-06
1.57296e-07
2.70497e-06
1.42331e-07
2.70262e-06
1.35245e-07
2.70013e-06
1.30766e-07
2.69756e-06
1.2494e-07
2.69498e-06
1.16913e-07
2.69232e-06
1.0796e-07
2.68965e-06
9.99936e-08
2.68683e-06
9.44515e-08
2.68402e-06
9.1664e-08
9.18468e-08
2.68093e-06
3.01346e-06
5.15438e-07
2.98653e-06
4.11228e-07
2.95919e-06
3.17858e-07
2.94676e-06
2.65502e-07
2.95177e-06
2.28457e-07
2.95804e-06
2.03541e-07
2.95282e-06
1.86886e-07
2.93712e-06
1.73003e-07
2.9195e-06
1.59949e-07
2.90696e-06
1.47785e-07
2.90121e-06
1.36517e-07
2.90003e-06
1.26114e-07
2.90009e-06
1.16851e-07
2.89883e-06
1.09224e-07
2.8953e-06
1.03524e-07
2.88987e-06
9.9879e-08
2.8836e-06
9.79326e-08
9.73877e-08
2.87806e-06
3.18185e-06
6.16169e-07
3.16007e-06
4.33012e-07
3.14879e-06
3.29137e-07
3.15391e-06
2.60379e-07
3.16334e-06
2.19031e-07
3.16567e-06
2.01208e-07
3.15937e-06
1.93191e-07
3.14765e-06
1.84725e-07
3.13468e-06
1.72913e-07
3.12376e-06
1.58707e-07
3.11665e-06
1.43627e-07
3.11373e-06
1.29038e-07
3.11434e-06
1.16239e-07
3.1173e-06
1.06266e-07
3.12113e-06
9.9688e-08
3.12469e-06
9.63184e-08
3.12703e-06
9.55954e-08
9.67017e-08
3.12772e-06
2.86711e-06
6.21018e-07
2.86779e-06
4.32331e-07
2.87382e-06
3.23107e-07
2.86926e-06
2.64933e-07
2.85603e-06
2.3226e-07
2.8421e-06
2.15142e-07
2.83078e-06
2.04508e-07
2.82202e-06
1.93485e-07
2.81556e-06
1.79376e-07
2.81174e-06
1.6253e-07
2.81084e-06
1.44527e-07
2.81249e-06
1.27383e-07
2.81568e-06
1.13052e-07
2.81914e-06
1.02804e-07
2.82203e-06
9.67943e-08
2.82393e-06
9.44259e-08
2.82489e-06
9.46337e-08
9.63386e-08
2.82525e-06
3.53222e-06
5.28253e-07
3.53022e-06
4.34333e-07
3.51257e-06
3.40759e-07
3.49445e-06
2.83058e-07
3.48213e-06
2.44576e-07
3.47778e-06
2.19495e-07
3.47678e-06
2.05508e-07
3.47406e-06
1.96202e-07
3.46874e-06
1.84696e-07
3.46351e-06
1.67756e-07
3.46152e-06
1.46521e-07
3.46388e-06
1.25024e-07
3.46934e-06
1.07588e-07
3.47519e-06
9.69584e-08
3.47906e-06
9.29255e-08
3.47996e-06
9.3528e-08
3.4782e-06
9.63905e-08
9.92112e-08
3.47533e-06
4.21409e-06
4.54345e-07
4.24564e-06
4.02785e-07
4.23346e-06
3.52935e-07
4.23533e-06
2.81188e-07
4.25425e-06
2.25662e-07
4.2736e-06
2.00138e-07
4.27971e-06
1.99405e-07
4.26961e-06
2.06301e-07
4.24979e-06
2.04515e-07
4.2306e-06
1.86946e-07
4.22048e-06
1.56636e-07
4.22264e-06
1.22868e-07
4.23493e-06
9.53003e-08
4.25206e-06
7.98282e-08
4.2683e-06
7.6688e-08
4.2798e-06
8.20272e-08
4.28488e-06
9.13023e-08
9.94965e-08
4.2846e-06
5.16726e-06
4.32385e-07
5.14179e-06
4.28259e-07
5.15857e-06
3.36159e-07
5.17285e-06
2.66902e-07
5.16744e-06
2.31077e-07
5.15399e-06
2.1359e-07
5.15003e-06
2.0336e-07
5.16187e-06
1.9446e-07
5.18452e-06
1.81867e-07
5.20861e-06
1.62861e-07
5.22641e-06
1.38832e-07
5.23488e-06
1.14397e-07
5.23558e-06
9.45981e-08
5.23298e-06
8.24268e-08
5.23136e-06
7.83145e-08
5.23303e-06
8.03553e-08
5.23888e-06
8.54495e-08
9.11021e-08
5.24728e-06
6.32095e-06
4.6788e-07
6.32558e-06
4.23632e-07
6.32489e-06
3.36849e-07
6.31106e-06
2.80726e-07
6.29328e-06
2.48863e-07
6.29112e-06
2.15747e-07
6.31239e-06
1.8209e-07
6.34872e-06
1.58134e-07
6.38374e-06
1.46846e-07
6.40322e-06
1.43379e-07
6.40198e-06
1.40074e-07
6.38465e-06
1.31727e-07
6.36147e-06
1.17769e-07
6.34264e-06
1.01262e-07
6.33449e-06
8.64624e-08
6.33848e-06
7.63686e-08
6.3523e-06
7.16298e-08
7.20636e-08
6.37134e-06
7.58395e-06
5.03113e-07
7.61008e-06
3.97495e-07
7.63305e-06
3.13885e-07
7.66003e-06
2.53744e-07
7.69569e-06
2.13203e-07
7.73037e-06
1.81069e-07
7.75761e-06
1.54849e-07
7.77893e-06
1.36809e-07
7.7965e-06
1.29284e-07
7.8093e-06
1.30571e-07
7.81623e-06
1.3315e-07
7.81856e-06
1.29395e-07
7.81963e-06
1.167e-07
7.82283e-06
9.80614e-08
7.82962e-06
7.96702e-08
7.83948e-06
6.65085e-08
7.8503e-06
6.08148e-08
6.246e-08
7.8599e-06
9.35462e-06
3.97241e-07
9.44505e-06
3.07072e-07
9.49992e-06
2.59007e-07
9.51312e-06
2.40546e-07
9.50149e-06
2.24839e-07
9.4819e-06
2.00653e-07
9.46913e-06
1.67624e-07
9.47145e-06
1.34487e-07
9.49044e-06
1.10291e-07
9.52369e-06
9.73264e-08
9.56515e-06
9.16821e-08
9.60644e-06
8.81096e-08
9.63967e-06
8.34664e-08
9.66027e-06
7.74676e-08
9.66836e-06
7.15756e-08
9.66742e-06
6.74448e-08
9.66251e-06
6.5732e-08
6.63334e-08
9.65863e-06
1.16718e-05
4.42449e-07
1.17008e-05
2.78026e-07
1.17126e-05
2.47235e-07
1.17193e-05
2.33867e-07
1.17223e-05
2.2177e-07
1.17159e-05
2.07039e-07
1.17029e-05
1.80667e-07
1.16944e-05
1.42999e-07
1.17022e-05
1.02464e-07
1.17308e-05
6.87287e-08
1.17748e-05
4.7656e-08
1.18225e-05
4.0428e-08
1.18617e-05
4.42754e-08
1.18846e-05
5.45339e-08
1.189e-05
6.61744e-08
1.18819e-05
7.55566e-08
1.18667e-05
8.10021e-08
8.17905e-08
1.18512e-05
8.59235e-06
4.08726e-07
8.51292e-06
3.57455e-07
8.46138e-06
2.98773e-07
8.44432e-06
2.50928e-07
8.44936e-06
2.16726e-07
8.46789e-06
1.88509e-07
8.49247e-06
1.56087e-07
8.51847e-06
1.17008e-07
8.54429e-06
7.66443e-08
8.56998e-06
4.30334e-08
8.59573e-06
2.19096e-08
8.62138e-06
1.47708e-08
8.64652e-06
1.91357e-08
8.67035e-06
3.07068e-08
8.69207e-06
4.44524e-08
8.71128e-06
5.63528e-08
8.72805e-06
6.42292e-08
6.71437e-08
8.7427e-06
7.50829e-06
5.53276e-07
7.42615e-06
4.39597e-07
7.43622e-06
2.88697e-07
7.46213e-06
2.25018e-07
7.47639e-06
2.02471e-07
7.48613e-06
1.7877e-07
7.49884e-06
1.4337e-07
7.51229e-06
1.03565e-07
7.52137e-06
6.75576e-08
7.52502e-06
3.93881e-08
7.52701e-06
1.99209e-08
7.53305e-06
8.73143e-09
7.54719e-06
4.99378e-09
7.57028e-06
7.61232e-09
7.6006e-06
1.41314e-08
7.63516e-06
2.17969e-08
7.67111e-06
2.82781e-08
3.22463e-08
7.70601e-06
6.41261e-06
5.83882e-07
6.41327e-06
4.38938e-07
6.41727e-06
2.84697e-07
6.43861e-06
2.03674e-07
6.47584e-06
1.65245e-07
6.52683e-06
1.27776e-07
6.5792e-06
9.1002e-08
6.61656e-06
6.62038e-08
6.63172e-06
5.23989e-08
6.62928e-06
4.18253e-08
6.62045e-06
2.87511e-08
6.61559e-06
1.35958e-08
6.6199e-06
6.78629e-10
6.63343e-06
-5.92003e-09
6.65403e-06
-6.46344e-09
6.67805e-06
-2.22217e-09
6.70144e-06
4.88058e-09
1.202e-08
6.72167e-06
5.48803e-06
4.33042e-07
5.55491e-06
3.72066e-07
5.59535e-06
2.44255e-07
5.63927e-06
1.59756e-07
5.69609e-06
1.08419e-07
5.75848e-06
6.53908e-08
5.81192e-06
3.75652e-08
5.84696e-06
3.11551e-08
5.86176e-06
3.7608e-08
5.86024e-06
4.33421e-08
5.84859e-06
4.04006e-08
5.83344e-06
2.87436e-08
5.821e-06
1.31237e-08
5.81548e-06
-3.99143e-10
5.81813e-06
-9.116e-09
5.82745e-06
-1.15452e-08
5.84165e-06
-9.31669e-09
-4.50093e-09
5.85817e-06
4.86155e-06
4.53197e-07
4.91974e-06
3.13877e-07
4.9694e-06
1.94593e-07
4.99796e-06
1.31197e-07
5.01924e-06
8.71437e-08
5.04093e-06
4.36937e-08
5.06078e-06
1.77224e-08
5.07593e-06
1.60049e-08
5.08753e-06
2.60063e-08
5.09793e-06
3.29421e-08
5.10874e-06
2.95952e-08
5.12055e-06
1.69283e-08
5.13377e-06
-9.24729e-11
5.14775e-06
-1.43855e-08
5.16293e-06
-2.42949e-08
5.17965e-06
-2.8266e-08
5.1978e-06
-2.74668e-08
-2.3477e-08
5.21678e-06
4.18447e-06
3.75993e-07
4.26013e-06
2.38219e-07
4.32955e-06
1.25173e-07
4.3894e-06
7.13476e-08
4.43244e-06
4.41075e-08
4.45322e-06
2.29159e-08
4.45835e-06
1.25922e-08
4.45904e-06
1.53071e-08
4.46259e-06
2.24575e-08
4.47164e-06
2.38975e-08
4.48531e-06
1.59248e-08
4.50085e-06
1.38161e-09
4.51621e-06
-1.54479e-08
4.53014e-06
-2.83198e-08
4.54165e-06
-3.58055e-08
4.55118e-06
-3.7794e-08
4.55947e-06
-3.57505e-08
-3.14049e-08
4.56739e-06
3.64297e-06
2.52591e-07
3.73206e-06
1.49134e-07
3.7885e-06
6.87284e-08
3.82311e-06
3.67358e-08
3.84682e-06
2.03999e-08
3.86224e-06
7.4926e-09
3.87573e-06
-8.9475e-10
3.89403e-06
-2.99328e-09
3.92048e-06
-3.98678e-09
3.95244e-06
-8.06983e-09
3.98383e-06
-1.54659e-08
4.00845e-06
-2.3234e-08
4.02205e-06
-2.90495e-08
4.02537e-06
-3.16393e-08
4.02162e-06
-3.20556e-08
4.01523e-06
-3.14053e-08
4.01016e-06
-3.06809e-08
-3.00982e-08
4.00886e-06
3.16464e-06
2.15054e-07
3.26689e-06
4.6883e-08
3.32028e-06
1.53374e-08
3.34577e-06
1.1244e-08
3.36495e-06
1.22469e-09
3.38538e-06
-1.29439e-08
3.40592e-06
-2.14369e-08
3.42834e-06
-2.54099e-08
3.45323e-06
-2.88797e-08
3.47882e-06
-3.36509e-08
3.50133e-06
-3.79771e-08
3.51749e-06
-3.93958e-08
3.52606e-06
-3.76238e-08
3.52875e-06
-3.43281e-08
3.52859e-06
-3.18953e-08
3.52858e-06
-3.1394e-08
3.53073e-06
-3.28299e-08
-3.51096e-08
3.53574e-06
2.89794e-06
1.96872e-07
2.94217e-06
2.65329e-09
2.95405e-06
3.45228e-09
2.9745e-06
-9.20378e-09
3.00269e-06
-2.69638e-08
3.02427e-06
-3.45207e-08
3.03612e-06
-3.32929e-08
3.04234e-06
-3.16234e-08
3.04867e-06
-3.5217e-08
3.05805e-06
-4.30282e-08
3.06989e-06
-4.9814e-08
3.08211e-06
-5.16229e-08
3.09302e-06
-4.85339e-08
3.10208e-06
-4.33813e-08
3.10931e-06
-3.91234e-08
3.115e-06
-3.70894e-08
3.11929e-06
-3.71144e-08
-3.82567e-08
3.12243e-06
2.4982e-06
4.75926e-08
2.54457e-06
-4.37116e-08
2.56987e-06
-2.18487e-08
2.59324e-06
-3.25764e-08
2.61439e-06
-4.81149e-08
2.63122e-06
-5.13488e-08
2.64359e-06
-4.56644e-08
2.65306e-06
-4.10895e-08
2.66074e-06
-4.29047e-08
2.66626e-06
-4.85403e-08
2.66873e-06
-5.22884e-08
2.66804e-06
-5.09358e-08
2.66492e-06
-4.54095e-08
2.66035e-06
-3.88111e-08
2.65498e-06
-3.37558e-08
2.64905e-06
-3.11624e-08
2.64254e-06
-3.05996e-08
-3.11148e-08
2.6354e-06
2.1466e-06
2.10289e-06
2.08104e-06
2.04846e-06
2.00035e-06
1.949e-06
1.90333e-06
1.86224e-06
1.81934e-06
1.7708e-06
1.71851e-06
1.66758e-06
1.62217e-06
1.58335e-06
1.5496e-06
1.51844e-06
1.48784e-06
1.45672e-06
5.54013e-08
-5.54013e-08
1.28812e-07
-7.34107e-08
2.02857e-07
-7.40453e-08
2.74841e-07
-7.19837e-08
3.44635e-07
-6.97936e-08
4.1249e-07
-6.78551e-08
4.78549e-07
-6.60588e-08
5.42713e-07
-6.41639e-08
6.04614e-07
-6.19015e-08
6.63622e-07
-5.90082e-08
7.18888e-07
-5.52653e-08
7.69383e-07
-5.0495e-08
8.13848e-07
-4.44655e-08
8.50696e-07
-3.6848e-08
8.78059e-07
-2.73633e-08
8.9402e-07
-1.59609e-08
8.97061e-07
-3.04063e-09
8.84894e-07
1.21668e-08
8.56716e-07
2.81784e-08
8.11079e-07
4.56368e-08
7.44778e-07
6.63005e-08
6.52494e-07
9.22841e-08
5.27905e-07
1.24589e-07
3.66339e-07
1.61566e-07
1.66964e-07
1.99375e-07
-6.80307e-08
2.34995e-07
-3.3427e-07
2.66239e-07
-6.25281e-07
2.91011e-07
-9.32867e-07
3.07586e-07
-1.24836e-06
3.15493e-07
-1.56402e-06
3.15658e-07
-1.87379e-06
3.09768e-07
-2.17339e-06
2.996e-07
-2.45999e-06
2.86603e-07
-2.73183e-06
2.71843e-07
-2.98783e-06
2.55997e-07
-3.22721e-06
2.39385e-07
-3.4493e-06
2.22085e-07
-3.65337e-06
2.04076e-07
-3.83863e-06
1.85255e-07
-4.00416e-06
1.65528e-07
-4.149e-06
1.44846e-07
-4.27218e-06
1.23173e-07
-4.37272e-06
1.00543e-07
-4.44979e-06
7.70743e-08
-4.50276e-06
5.29663e-08
-4.53135e-06
2.85869e-08
-4.5358e-06
4.45174e-09
-4.51774e-06
-1.80552e-08
-4.47783e-06
-3.99111e-08
-4.4176e-06
-6.02274e-08
-4.33874e-06
-7.88694e-08
-4.2429e-06
-9.58379e-08
-4.13192e-06
-1.10981e-07
-4.00758e-06
-1.24341e-07
-3.87159e-06
-1.35988e-07
-3.7255e-06
-1.46086e-07
-3.57062e-06
-1.54882e-07
-3.40797e-06
-1.62649e-07
-3.23829e-06
-1.69679e-07
-3.06208e-06
-1.76216e-07
-2.87966e-06
-1.82419e-07
-2.69134e-06
-1.88316e-07
-2.49756e-06
-1.93785e-07
-2.29899e-06
-1.98563e-07
-2.0967e-06
-2.02295e-07
-1.89207e-06
-2.04622e-07
-1.68681e-06
-2.05267e-07
-1.48271e-06
-2.04093e-07
-1.2816e-06
-2.01116e-07
-1.08512e-06
-1.96476e-07
-8.94723e-07
-1.904e-07
-7.11556e-07
-1.83167e-07
-5.36447e-07
-1.7511e-07
-3.6993e-07
-1.66517e-07
-2.12338e-07
-1.57591e-07
-6.37664e-08
-1.48572e-07
7.59611e-08
-1.39727e-07
2.07069e-07
-1.31108e-07
3.29778e-07
-1.22709e-07
4.44391e-07
-1.14613e-07
5.51259e-07
-1.06868e-07
6.50753e-07
-9.94947e-08
7.43255e-07
-9.25016e-08
8.29142e-07
-8.5887e-08
9.08786e-07
-7.96438e-08
9.82547e-07
-7.37612e-08
1.05077e-06
-6.82258e-08
1.11379e-06
-6.30219e-08
1.17193e-06
-5.81321e-08
1.22546e-06
-5.35376e-08
1.27468e-06
-4.92186e-08
1.31984e-06
-4.5155e-08
1.36117e-06
-4.1327e-08
1.39888e-06
-3.77161e-08
1.43319e-06
-3.43057e-08
1.46427e-06
-3.10819e-08
1.4923e-06
-2.80332e-08
1.51745e-06
-2.51514e-08
1.53988e-06
-2.24307e-08
1.55975e-06
-1.98674e-08
1.57721e-06
-1.74598e-08
1.59242e-06
-1.52067e-08
1.60553e-06
-1.31072e-08
1.61669e-06
-1.11611e-08
1.62605e-06
-9.36567e-09
1.63377e-06
-7.7197e-09
1.63999e-06
-6.21925e-09
1.64485e-06
-4.85704e-09
1.64848e-06
-3.6329e-09
1.65101e-06
-2.53169e-09
1.65256e-06
-1.5461e-09
1.65324e-06
-6.82348e-10
1.65314e-06
9.6838e-11
1.65232e-06
8.25512e-10
1.65086e-06
1.4599e-09
1.64886e-06
1.99932e-09
1.6464e-06
2.45563e-09
1.64356e-06
2.84054e-09
1.6404e-06
3.16227e-09
1.63697e-06
3.42798e-09
1.63332e-06
3.64959e-09
1.62949e-06
3.83747e-09
1.62549e-06
3.99155e-09
1.62138e-06
4.11296e-09
1.61717e-06
4.20938e-09
1.61288e-06
4.29609e-09
1.6085e-06
4.37144e-09
1.60407e-06
4.43532e-09
1.59958e-06
4.48899e-09
1.59505e-06
4.53389e-09
1.59047e-06
4.57154e-09
1.58587e-06
4.60032e-09
1.58126e-06
4.619e-09
1.57663e-06
4.62624e-09
1.57201e-06
4.62101e-09
1.5674e-06
4.6044e-09
1.56282e-06
4.58034e-09
1.55827e-06
4.5537e-09
1.55374e-06
4.52907e-09
1.54923e-06
4.50947e-09
1.54474e-06
4.49616e-09
1.54025e-06
4.48912e-09
1.53576e-06
4.48757e-09
1.53127e-06
4.49067e-09
1.52677e-06
4.49771e-09
1.52226e-06
4.5082e-09
1.51774e-06
4.52188e-09
1.5132e-06
4.53871e-09
1.50864e-06
4.55874e-09
1.50406e-06
4.58211e-09
1.49945e-06
4.60917e-09
1.49481e-06
4.64026e-09
1.49014e-06
4.67594e-09
1.48542e-06
4.71688e-09
1.48065e-06
4.7641e-09
1.47584e-06
4.81884e-09
1.47095e-06
4.88267e-09
1.46599e-06
4.95785e-09
1.46095e-06
5.04648e-09
1.4558e-06
5.15325e-09
1.45052e-06
5.27999e-09
1.44508e-06
5.43772e-09
1.43945e-06
5.6242e-09
1.43358e-06
5.86823e-09
1.42744e-06
6.14797e-09
1.42089e-06
6.54504e-09
1.41393e-06
6.96656e-09
1.40627e-06
7.65673e-09
1.39798e-06
8.28411e-09
1.3884e-06
9.58307e-09
1.37793e-06
1.04676e-08
1.36478e-06
1.31529e-08
1.35056e-06
1.42175e-08
1.33022e-06
2.03457e-08
1.30923e-06
2.09856e-08
1.27259e-06
3.66451e-08
1.23768e-06
3.49082e-08
1.15586e-06
8.18221e-08
7.67004e-08
1.07916e-06
3.371e-08
-8.91114e-08
6.41168e-08
-1.03817e-07
9.19293e-08
-1.01858e-07
1.18396e-07
-9.845e-08
1.43705e-07
-9.51029e-08
1.67509e-07
-9.16595e-08
1.89328e-07
-8.78772e-08
2.08466e-07
-8.33023e-08
2.23975e-07
-7.74106e-08
2.34583e-07
-6.96156e-08
2.38712e-07
-5.93944e-08
2.34511e-07
-4.62946e-08
2.19816e-07
-2.97698e-08
1.92069e-07
-9.10166e-09
1.494e-07
1.53062e-08
8.95523e-08
4.38866e-08
9.76896e-09
7.67427e-08
-9.15521e-08
1.13488e-07
-2.16917e-07
1.53544e-07
-3.67768e-07
1.96488e-07
-5.43506e-07
2.42038e-07
-7.41086e-07
2.89864e-07
-9.55827e-07
3.3933e-07
-1.18334e-06
3.89076e-07
-1.41907e-06
4.35106e-07
-1.65878e-06
4.74704e-07
-1.89819e-06
5.05653e-07
-2.13371e-06
5.26533e-07
-2.36292e-06
5.36795e-07
-2.58462e-06
5.37195e-07
-2.79829e-06
5.29325e-07
-3.00364e-06
5.15123e-07
-3.20048e-06
4.96435e-07
-3.38862e-06
4.74742e-07
-3.56783e-06
4.51052e-07
-3.73772e-06
4.25891e-07
-3.89767e-06
3.99338e-07
-4.04694e-06
3.71354e-07
-4.18509e-06
3.42219e-07
-4.3112e-06
3.11365e-07
-4.42408e-06
2.7841e-07
-4.52239e-06
2.4316e-07
-4.60477e-06
2.05551e-07
-4.66992e-06
1.65696e-07
-4.71676e-06
1.23911e-07
-4.74452e-06
8.07295e-08
-4.75278e-06
3.68466e-08
-4.74113e-06
-7.1994e-09
-4.7083e-06
-5.08898e-08
-4.65513e-06
-9.30824e-08
-4.58234e-06
-1.33017e-07
-4.49125e-06
-1.69953e-07
-4.38368e-06
-2.03413e-07
-4.26143e-06
-2.33233e-07
-4.12638e-06
-2.59384e-07
-3.98033e-06
-2.82038e-07
-3.82487e-06
-3.0155e-07
-3.66132e-06
-3.18432e-07
-3.49066e-06
-3.33308e-07
-3.31352e-06
-3.46817e-07
-3.13022e-06
-3.59514e-07
-2.94088e-06
-3.71766e-07
-2.74554e-06
-3.83648e-07
-2.54444e-06
-3.94888e-07
-2.33812e-06
-4.04886e-07
-2.12758e-06
-4.12833e-07
-1.9143e-06
-4.17905e-07
-1.70009e-06
-4.19477e-07
-1.48692e-06
-4.17261e-07
-1.27672e-06
-4.11316e-07
-1.07123e-06
-4.01971e-07
-8.71871e-07
-3.89755e-07
-6.79751e-07
-3.75286e-07
-4.95634e-07
-3.59227e-07
-3.19967e-07
-3.42184e-07
-1.52991e-07
-3.24567e-07
5.38991e-09
-3.06953e-07
1.55468e-07
-2.89805e-07
2.97206e-07
-2.72847e-07
4.3095e-07
-2.56452e-07
5.57047e-07
-2.4071e-07
6.75862e-07
-2.25683e-07
7.87772e-07
-2.11404e-07
8.93153e-07
-1.97883e-07
9.9238e-07
-1.85115e-07
1.08582e-06
-1.73085e-07
1.17383e-06
-1.6177e-07
1.25675e-06
-1.51144e-07
1.3349e-06
-1.41173e-07
1.40859e-06
-1.31823e-07
1.47811e-06
-1.23052e-07
1.54371e-06
-1.14821e-07
1.60564e-06
-1.07087e-07
1.66412e-06
-9.98062e-08
1.71934e-06
-9.29385e-08
1.77148e-06
-8.6446e-08
1.8207e-06
-8.02956e-08
1.86712e-06
-7.44596e-08
1.91089e-06
-6.89154e-08
1.9521e-06
-6.36463e-08
1.99087e-06
-5.86399e-08
2.0273e-06
-5.38878e-08
2.06148e-06
-4.9384e-08
2.0935e-06
-4.51244e-08
2.12344e-06
-4.11056e-08
2.1514e-06
-3.73236e-08
2.17745e-06
-3.37745e-08
2.20169e-06
-3.04524e-08
2.22418e-06
-2.735e-08
2.24501e-06
-2.44613e-08
2.26425e-06
-2.1777e-08
2.282e-06
-1.9289e-08
2.2983e-06
-1.69903e-08
2.31326e-06
-1.48627e-08
2.32697e-06
-1.28844e-08
2.33949e-06
-1.10569e-08
2.35087e-06
-9.37968e-09
2.36117e-06
-7.84232e-09
2.37044e-06
-6.43142e-09
2.37874e-06
-5.13886e-09
2.38612e-06
-3.95596e-09
2.39264e-06
-2.86805e-09
2.39835e-06
-1.86768e-09
2.40329e-06
-9.51822e-10
2.4075e-06
-9.75853e-11
2.41103e-06
6.79383e-10
2.41392e-06
1.40974e-09
2.41621e-06
2.08124e-09
2.41794e-06
2.69953e-09
2.41917e-06
3.26704e-09
2.41991e-06
3.78619e-09
2.42022e-06
4.2627e-09
2.42013e-06
4.69481e-09
2.41966e-06
5.08351e-09
2.41886e-06
5.43039e-09
2.41774e-06
5.73655e-09
2.41634e-06
6.00517e-09
2.41468e-06
6.24195e-09
2.41278e-06
6.45361e-09
2.41066e-06
6.64604e-09
2.40835e-06
6.82335e-09
2.40586e-06
6.98805e-09
2.40321e-06
7.14234e-09
2.4004e-06
7.28852e-09
2.39747e-06
7.42959e-09
2.39439e-06
7.56848e-09
2.3912e-06
7.70756e-09
2.38787e-06
7.84817e-09
2.38442e-06
7.99072e-09
2.38084e-06
8.13488e-09
2.37714e-06
8.28012e-09
2.37333e-06
8.4262e-09
2.36939e-06
8.57317e-09
2.36535e-06
8.72185e-09
2.36119e-06
8.87351e-09
2.35692e-06
9.03e-09
2.35255e-06
9.19399e-09
2.34806e-06
9.3682e-09
2.34346e-06
9.5575e-09
2.33875e-06
9.76498e-09
2.3339e-06
1.00004e-08
2.32891e-06
1.02651e-08
2.32377e-06
1.05811e-08
2.31845e-06
1.09405e-08
2.31292e-06
1.1399e-08
2.30716e-06
1.19108e-08
2.30108e-06
1.26263e-08
2.29467e-06
1.33717e-08
2.28775e-06
1.45796e-08
2.28037e-06
1.56692e-08
2.27207e-06
1.78837e-08
2.2631e-06
1.94283e-08
2.2524e-06
2.38592e-08
2.24075e-06
2.58676e-08
2.22552e-06
3.55707e-08
2.20872e-06
3.77925e-08
2.18419e-06
6.11687e-08
2.15543e-06
6.36706e-08
2.11174e-06
1.25513e-07
1.35135e-07
2.05331e-06
-8.77362e-09
-8.03378e-08
-3.0761e-08
-8.18301e-08
-5.39399e-08
-7.8679e-08
-7.78716e-08
-7.45182e-08
-1.03136e-07
-6.98386e-08
-1.30617e-07
-6.4178e-08
-1.61214e-07
-5.72804e-08
-1.95961e-07
-4.85553e-08
-2.36066e-07
-3.73057e-08
-2.82884e-07
-2.2798e-08
-3.38001e-07
-4.27711e-09
-4.01834e-07
1.75386e-08
-4.75627e-07
4.40232e-08
-5.60259e-07
7.55301e-08
-6.57021e-07
1.12068e-07
-7.66379e-07
1.53245e-07
-8.88139e-07
1.98503e-07
-1.02169e-06
2.47037e-07
-1.16607e-06
2.97927e-07
-1.31996e-06
3.50379e-07
-1.48149e-06
4.03565e-07
-1.64803e-06
4.56402e-07
-1.81612e-06
5.07422e-07
-1.98184e-06
5.54799e-07
-2.14308e-06
5.9634e-07
-2.29849e-06
6.30112e-07
-2.44775e-06
6.54919e-07
-2.59169e-06
6.70468e-07
-2.73216e-06
6.77269e-07
-2.87144e-06
6.76474e-07
-3.01157e-06
6.69457e-07
-3.15396e-06
6.57514e-07
-3.29921e-06
6.41678e-07
-3.44711e-06
6.22646e-07
-3.59681e-06
6.00755e-07
-3.74693e-06
5.76006e-07
-3.89573e-06
5.48144e-07
-4.04116e-06
5.16783e-07
-4.18052e-06
4.81573e-07
-4.31126e-06
4.42103e-07
-4.43088e-06
3.98032e-07
-4.53692e-06
3.49204e-07
-4.62704e-06
2.9567e-07
-4.69905e-06
2.37704e-07
-4.751e-06
1.75859e-07
-4.78138e-06
1.11108e-07
-4.78941e-06
4.48819e-08
-4.7746e-06
-2.20087e-08
-4.73672e-06
-8.87737e-08
-4.67708e-06
-1.52715e-07
-4.59729e-06
-2.12813e-07
-4.49907e-06
-2.68168e-07
-4.38438e-06
-3.18102e-07
-4.25537e-06
-3.62245e-07
-4.1142e-06
-4.00554e-07
-3.96292e-06
-4.33318e-07
-3.80334e-06
-4.6113e-07
-3.63691e-06
-4.84866e-07
-3.46461e-06
-5.05609e-07
-3.28692e-06
-5.24503e-07
-3.10388e-06
-5.4256e-07
-2.91516e-06
-5.60478e-07
-2.72038e-06
-5.7843e-07
-2.51931e-06
-5.95962e-07
-2.3122e-06
-6.11989e-07
-2.10005e-06
-6.24984e-07
-1.8846e-06
-6.33359e-07
-1.66815e-06
-6.35923e-07
-1.45322e-06
-6.32195e-07
-1.24214e-06
-6.22392e-07
-1.03688e-06
-6.07231e-07
-8.38917e-07
-5.8772e-07
-6.49234e-07
-5.64969e-07
-4.68381e-07
-5.4008e-07
-2.9657e-07
-5.13995e-07
-1.33685e-07
-4.87452e-07
2.04896e-08
-4.61128e-07
1.66371e-07
-4.35687e-07
3.04282e-07
-4.10758e-07
4.34553e-07
-3.86723e-07
5.57535e-07
-3.63692e-07
6.73575e-07
-3.41723e-07
7.83015e-07
-3.20845e-07
8.86202e-07
-3.0107e-07
9.83485e-07
-2.82397e-07
1.07521e-06
-2.64812e-07
1.16173e-06
-2.48293e-07
1.2434e-06
-2.32804e-07
1.32052e-06
-2.18303e-07
1.39344e-06
-2.04737e-07
1.46243e-06
-1.92047e-07
1.52778e-06
-1.80169e-07
1.58973e-06
-1.69037e-07
1.64851e-06
-1.58583e-07
1.70431e-06
-1.48743e-07
1.75732e-06
-1.39455e-07
1.80769e-06
-1.30666e-07
1.85556e-06
-1.2233e-07
1.90105e-06
-1.14408e-07
1.94428e-06
-1.06871e-07
1.98534e-06
-9.96966e-08
2.02432e-06
-9.28674e-08
2.0613e-06
-8.63709e-08
2.09637e-06
-8.01971e-08
2.12961e-06
-7.43376e-08
2.16107e-06
-6.87843e-08
2.19082e-06
-6.35293e-08
2.21893e-06
-5.85634e-08
2.24546e-06
-5.38768e-08
2.27046e-06
-4.94592e-08
2.29398e-06
-4.52997e-08
2.31608e-06
-4.13869e-08
2.3368e-06
-3.77079e-08
2.35618e-06
-3.4248e-08
2.37429e-06
-3.09916e-08
2.39116e-06
-2.79308e-08
2.40685e-06
-2.50624e-08
2.42138e-06
-2.23766e-08
2.43481e-06
-1.9861e-08
2.44717e-06
-1.75046e-08
2.45852e-06
-1.52988e-08
2.46888e-06
-1.32333e-08
2.47831e-06
-1.12977e-08
2.48685e-06
-9.48659e-09
2.49455e-06
-7.79557e-09
2.50144e-06
-6.21936e-09
2.50759e-06
-4.73934e-09
2.51303e-06
-3.35466e-09
2.51779e-06
-2.06312e-09
2.52192e-06
-8.60396e-10
2.52544e-06
2.61667e-10
2.52839e-06
1.31219e-09
2.53081e-06
2.28013e-09
2.53272e-06
3.17186e-09
2.53416e-06
3.99157e-09
2.53516e-06
4.74105e-09
2.53574e-06
5.42462e-09
2.53593e-06
6.04895e-09
2.53576e-06
6.62152e-09
2.53526e-06
7.14925e-09
2.53444e-06
7.63728e-09
2.53334e-06
8.08931e-09
2.53198e-06
8.50866e-09
2.53037e-06
8.89918e-09
2.52853e-06
9.26574e-09
2.52648e-06
9.61347e-09
2.52424e-06
9.9471e-09
2.52182e-06
1.02702e-08
2.51923e-06
1.05847e-08
2.51647e-06
1.08916e-08
2.51356e-06
1.11913e-08
2.5105e-06
1.14839e-08
2.50731e-06
1.17706e-08
2.50398e-06
1.20523e-08
2.50052e-06
1.23317e-08
2.49694e-06
1.26109e-08
2.49324e-06
1.28946e-08
2.48942e-06
1.31857e-08
2.48548e-06
1.34923e-08
2.48143e-06
1.38166e-08
2.47726e-06
1.41747e-08
2.47296e-06
1.45641e-08
2.46852e-06
1.50201e-08
2.46394e-06
1.55232e-08
2.45918e-06
1.61571e-08
2.45424e-06
1.68481e-08
2.44906e-06
1.78045e-08
2.44364e-06
1.87942e-08
2.43786e-06
2.0356e-08
2.43172e-06
2.18103e-08
2.42504e-06
2.45655e-08
2.41775e-06
2.67193e-08
2.40964e-06
3.19651e-08
2.40034e-06
3.51677e-08
2.38995e-06
4.59614e-08
2.37676e-06
5.09842e-08
2.36297e-06
7.49642e-08
2.34195e-06
8.4687e-08
2.3257e-06
1.41765e-07
1.68249e-07
2.29258e-06
-3.7777e-08
-4.25608e-08
-8.94952e-08
-3.01119e-08
-1.42413e-07
-2.57613e-08
-1.97446e-07
-1.94851e-08
-2.55209e-07
-1.20755e-08
-3.16489e-07
-2.8983e-09
-3.81433e-07
7.66391e-09
-4.50697e-07
2.07087e-08
-5.24893e-07
3.68901e-08
-6.04475e-07
5.67837e-08
-6.89574e-07
8.08222e-08
-7.81273e-07
1.09238e-07
-8.79446e-07
1.42196e-07
-9.83686e-07
1.7977e-07
-1.09339e-06
2.21771e-07
-1.20787e-06
2.67727e-07
-1.32628e-06
3.16909e-07
-1.44767e-06
3.68431e-07
-1.57107e-06
4.21328e-07
-1.69532e-06
4.74627e-07
-1.81907e-06
5.27315e-07
-1.94089e-06
5.78218e-07
-2.05945e-06
6.25991e-07
-2.17393e-06
6.69274e-07
-2.28451e-06
7.06916e-07
-2.39256e-06
7.38167e-07
-2.50042e-06
7.62782e-07
-2.61096e-06
7.81001e-07
-2.72702e-06
7.9333e-07
-2.85084e-06
8.00299e-07
-2.98365e-06
8.02261e-07
-3.1255e-06
7.99369e-07
-3.27544e-06
7.9162e-07
-3.43167e-06
7.78867e-07
-3.59177e-06
7.60855e-07
-3.75305e-06
7.37296e-07
-3.91279e-06
7.07882e-07
-4.06812e-06
6.72114e-07
-4.21619e-06
6.29639e-07
-4.35423e-06
5.80148e-07
-4.4796e-06
5.23395e-07
-4.58971e-06
4.59312e-07
-4.68207e-06
3.88037e-07
-4.75447e-06
3.10103e-07
-4.80512e-06
2.26507e-07
-4.83242e-06
1.38411e-07
-4.8347e-06
4.71552e-08
-4.81249e-06
-4.42117e-08
-4.76774e-06
-1.33523e-07
-4.70084e-06
-2.19614e-07
-4.61324e-06
-3.00419e-07
-4.50696e-06
-3.74446e-07
-4.38442e-06
-4.40641e-07
-4.24814e-06
-4.98526e-07
-4.10058e-06
-5.48115e-07
-3.944e-06
-5.89902e-07
-3.78031e-06
-6.24811e-07
-3.61105e-06
-6.54136e-07
-3.43715e-06
-6.79502e-07
-3.25893e-06
-7.0273e-07
-3.07593e-06
-7.25555e-07
-2.88714e-06
-7.49264e-07
-2.69135e-06
-7.74227e-07
-2.48755e-06
-7.99759e-07
-2.27556e-06
-8.23983e-07
-2.05639e-06
-8.44152e-07
-1.83241e-06
-8.57332e-07
-1.607e-06
-8.61341e-07
-1.38374e-06
-8.55456e-07
-1.16585e-06
-8.40283e-07
-9.55822e-07
-8.17254e-07
-7.55397e-07
-7.88146e-07
-5.6553e-07
-7.54837e-07
-3.86563e-07
-7.19046e-07
-2.18426e-07
-6.82132e-07
-6.07384e-08
-6.4514e-07
8.78099e-08
-6.09676e-07
2.27359e-07
-5.75236e-07
3.58927e-07
-5.42326e-07
4.83227e-07
-5.11024e-07
6.00862e-07
-4.81327e-07
7.12304e-07
-4.53164e-07
8.17905e-07
-4.26445e-07
9.17932e-07
-4.01097e-07
1.01261e-06
-3.77072e-07
1.10215e-06
-3.54351e-07
1.18678e-06
-3.32923e-07
1.26675e-06
-3.12778e-07
1.34233e-06
-2.93889e-07
1.41381e-06
-2.76215e-07
1.48146e-06
-2.59693e-07
1.54554e-06
-2.44246e-07
1.60629e-06
-2.29787e-07
1.66393e-06
-2.16225e-07
1.71866e-06
-2.03471e-07
1.77064e-06
-1.9144e-07
1.82003e-06
-1.80059e-07
1.86697e-06
-1.69262e-07
1.91156e-06
-1.59e-07
1.95392e-06
-1.4923e-07
1.99414e-06
-1.39922e-07
2.03233e-06
-1.31051e-07
2.06856e-06
-1.22601e-07
2.10292e-06
-1.14556e-07
2.13548e-06
-1.06904e-07
2.16633e-06
-9.96331e-08
2.19553e-06
-9.27306e-08
2.22315e-06
-8.61839e-08
2.24926e-06
-7.99791e-08
2.2739e-06
-7.41022e-08
2.29714e-06
-6.85385e-08
2.31902e-06
-6.32725e-08
2.3396e-06
-5.82887e-08
2.35893e-06
-5.35721e-08
2.37704e-06
-4.91068e-08
2.39399e-06
-4.48804e-08
2.40981e-06
-4.08844e-08
2.42455e-06
-3.71087e-08
2.43823e-06
-3.35409e-08
2.45089e-06
-3.01696e-08
2.46258e-06
-2.6985e-08
2.47332e-06
-2.39784e-08
2.48317e-06
-2.11406e-08
2.49214e-06
-1.84622e-08
2.50028e-06
-1.59379e-08
2.50763e-06
-1.35635e-08
2.51422e-06
-1.1328e-08
2.52009e-06
-9.22513e-09
2.52527e-06
-7.25033e-09
2.52981e-06
-5.39893e-09
2.53374e-06
-3.66522e-09
2.53709e-06