/*--------------------------------*- C++ -*----------------------------------*\
  =========                 |
  \\      /  F ield         | OpenFOAM: The Open Source CFD Toolbox
   \\    /   O peration     | Website:  https://openfoam.org
    \\  /    A nd           | Version:  7
     \\/     M anipulation  |
\*---------------------------------------------------------------------------*/
FoamFile
{
    version     2.0;
    format      ascii;
    class       volVectorField;
    location    "0.031";
    object      UMean;
}
// * * * * * * * * * * * * * * * * * * * * * * * * * * * * * * * * * * * * * //

dimensions      [0 1 -1 0 0 0 0];

internalField   nonuniform List<vector> 
12225
(
(4.78069 0.164116 0)
(4.19747 0.11038 0)
(3.74876 0.0960653 0)
(3.39479 0.0785779 0)
(3.08375 0.0643911 0)
(2.80247 0.0536552 0)
(2.5524 0.0440417 0)
(2.33682 0.0353398 0)
(2.15868 0.0261394 0)
(2.01512 0.0189461 0)
(1.90926 0.0100468 0)
(1.83007 0.00650457 0)
(1.7869 -0.00383846 0)
(1.75829 0.000439875 0)
(1.76447 -0.0187301 0)
(1.77769 0.00305617 0)
(1.82876 -0.0482493 0)
(1.90462 0.00398572 0)
(5.01729 0.111696 0)
(4.8795 0.0706904 0)
(4.76818 0.0852448 0)
(4.68549 0.0831909 0)
(4.60251 0.0797489 0)
(4.51273 0.0774321 0)
(4.41825 0.0746756 0)
(4.32572 0.0693208 0)
(4.23687 0.0629959 0)
(4.15791 0.0534241 0)
(4.08585 0.0453621 0)
(4.02946 0.0326598 0)
(3.97859 0.0260317 0)
(3.95023 0.00990187 0)
(3.92068 0.0077683 0)
(3.92574 -0.0168045 0)
(3.92027 -0.0199255 0)
(3.96117 -0.0751736 0)
(5.00132 0.171876 0)
(4.88799 0.120458 0)
(4.81276 0.126004 0)
(4.7851 0.118052 0)
(4.77412 0.108035 0)
(4.76467 0.101261 0)
(4.75451 0.0950273 0)
(4.74428 0.0882298 0)
(4.7347 0.078744 0)
(4.72536 0.0691191 0)
(4.71731 0.0560216 0)
(4.70998 0.0457263 0)
(4.70625 0.0297399 0)
(4.7046 0.0212757 0)
(4.71036 0.000843369 0)
(4.71959 -0.00807393 0)
(4.7399 -0.0409186 0)
(4.76072 -0.0769385 0)
(4.99635 0.185697 0)
(4.90564 0.116139 0)
(4.83241 0.112549 0)
(4.80146 0.106056 0)
(4.79288 0.0962935 0)
(4.79096 0.0886774 0)
(4.79187 0.0828645 0)
(4.79592 0.0761303 0)
(4.80289 0.0682482 0)
(4.81213 0.0581886 0)
(4.82277 0.0478253 0)
(4.83466 0.0352608 0)
(4.84805 0.0235953 0)
(4.8633 0.00872167 0)
(4.88223 -0.00537039 0)
(4.90366 -0.0257589 0)
(4.93116 -0.0518318 0)
(4.95592 -0.0892293 0)
(4.99205 0.214658 0)
(4.92529 0.141192 0)
(4.86 0.129147 0)
(4.82681 0.1214 0)
(4.81618 0.109064 0)
(4.81348 0.0979371 0)
(4.81381 0.0888655 0)
(4.81714 0.0802929 0)
(4.82394 0.0704001 0)
(4.83362 0.0595473 0)
(4.84563 0.0470381 0)
(4.85925 0.0342059 0)
(4.87479 0.0195869 0)
(4.89212 0.00447899 0)
(4.91223 -0.0135237 0)
(4.93442 -0.0353122 0)
(4.95908 -0.0627861 0)
(4.98114 -0.102643 0)
(4.98899 0.227984 0)
(4.94123 0.15307 0)
(4.88464 0.132574 0)
(4.85081 0.122825 0)
(4.83842 0.109433 0)
(4.83529 0.0961455 0)
(4.8355 0.0851054 0)
(4.83838 0.0749777 0)
(4.84451 0.0643175 0)
(4.85358 0.052403 0)
(4.8651 0.0394143 0)
(4.87829 0.0253017 0)
(4.8933 0.0101744 0)
(4.90964 -0.00653986 0)
(4.9282 -0.0256704 0)
(4.94758 -0.0485656 0)
(4.9681 -0.0772503 0)
(4.9853 -0.11333 0)
(4.9937 0.243332 0)
(4.96062 0.170381 0)
(4.91338 0.142418 0)
(4.88097 0.129129 0)
(4.86768 0.11435 0)
(4.86451 0.0992206 0)
(4.86506 0.0859894 0)
(4.8679 0.0741994 0)
(4.8735 0.0623015 0)
(4.88175 0.0494743 0)
(4.89232 0.0355482 0)
(4.90447 0.0205202 0)
(4.91826 0.00430171 0)
(4.93305 -0.0137188 0)
(4.94943 -0.0339448 0)
(4.96574 -0.0579286 0)
(4.98243 -0.0860654 0)
(4.99523 -0.11975 0)
(5.00137 0.252692 0)
(4.97947 0.184288 0)
(4.94093 0.151008 0)
(4.91077 0.134019 0)
(4.89676 0.118154 0)
(4.89305 0.101651 0)
(4.89342 0.0864284 0)
(4.89584 0.0726626 0)
(4.90064 0.0592612 0)
(4.90795 0.0452278 0)
(4.91757 0.0302288 0)
(4.92873 0.0141545 0)
(4.94135 -0.00310953 0)
(4.95465 -0.0220463 0)
(4.96901 -0.0431388 0)
(4.98274 -0.0673038 0)
(4.99628 -0.0947767 0)
(5.00596 -0.126174 0)
(5.0024 0.258972 0)
(4.98872 0.195071 0)
(4.95848 0.158196 0)
(4.93254 0.137147 0)
(4.91984 0.119629 0)
(4.91681 0.101997 0)
(4.91787 0.0852915 0)
(4.92068 0.0700206 0)
(4.92531 0.0554264 0)
(4.93195 0.0405071 0)
(4.94058 0.0247336 0)
(4.95056 0.00783448 0)
(4.9617 -0.0102518 0)
(4.9732 -0.0299042 0)
(4.98524 -0.0513985 0)
(4.99638 -0.0753642 0)
(5.00695 -0.10181 0)
(5.01412 -0.130919 0)
(5.00081 0.268611 0)
(4.99437 0.208149 0)
(4.97157 0.168727 0)
(4.94937 0.143764 0)
(4.93728 0.124094 0)
(4.93386 0.10527 0)
(4.93459 0.0871699 0)
(4.93713 0.070225 0)
(4.94133 0.0540331 0)
(4.94739 0.0378108 0)
(4.95524 0.0209998 0)
(4.96422 0.00328065 0)
(4.974 -0.0155134 0)
(4.98387 -0.0356836 0)
(4.99381 -0.0574312 0)
(5.00273 -0.0811053 0)
(5.0108 -0.106592 0)
(5.01604 -0.133827 0)
(4.98932 0.267784 0)
(4.98832 0.212772 0)
(4.97182 0.172849 0)
(4.9535 0.145298 0)
(4.9426 0.123784 0)
(4.9393 0.103969 0)
(4.94023 0.0848926 0)
(4.94303 0.066729 0)
(4.94716 0.0493808 0)
(4.95268 0.0322297 0)
(4.9597 0.0147123 0)
(4.96768 -0.00354939 0)
(4.97635 -0.0227401 0)
(4.98483 -0.0430784 0)
(4.99323 -0.0646703 0)
(5.00025 -0.08771 0)
(5.00657 -0.111995 0)
(5.00994 -0.137425 0)
(5.01224 0.273415 0)
(5.01257 0.221467 0)
(4.99862 0.181029 0)
(4.98174 0.151297 0)
(4.97091 0.127804 0)
(4.96709 0.106732 0)
(4.96759 0.0866104 0)
(4.97009 0.0673181 0)
(4.97382 0.0487389 0)
(4.97865 0.0304777 0)
(4.98466 0.0120869 0)
(4.99136 -0.00680162 0)
(4.99859 -0.0263726 0)
(5.0055 -0.0468129 0)
(5.01223 -0.0681824 0)
(5.01757 -0.0905974 0)
(5.02228 -0.113847 0)
(5.02437 -0.137829 0)
(4.99851 0.275064 0)
(5.00279 0.225286 0)
(4.99359 0.185102 0)
(4.98084 0.153872 0)
(4.97265 0.128444 0)
(4.97016 0.105856 0)
(4.97133 0.084588 0)
(4.97419 0.0643032 0)
(4.97798 0.0448636 0)
(4.98256 0.0259486 0)
(4.98801 0.00711052 0)
(4.99395 -0.0120379 0)
(5.00019 -0.0317036 0)
(5.00596 -0.0520572 0)
(5.01139 -0.0730989 0)
(5.01546 -0.0948735 0)
(5.01894 -0.117152 0)
(5.02008 -0.13985 0)
(5.01113 0.277008 0)
(5.01724 0.23098 0)
(5.01103 0.191109 0)
(5.00102 0.158374 0)
(4.99431 0.131248 0)
(4.99201 0.107467 0)
(4.99267 0.0853925 0)
(4.99489 0.0642613 0)
(4.99808 0.0438344 0)
(5.00199 0.0239019 0)
(5.00664 0.00425228 0)
(5.01161 -0.0153755 0)
(5.01676 -0.0351564 0)
(5.02131 -0.0552738 0)
(5.02548 -0.0757678 0)
(5.02819 -0.0967137 0)
(5.03045 -0.117917 0)
(5.03042 -0.139336 0)
(5.00825 0.275905 0)
(5.01683 0.232 0)
(5.01426 0.192679 0)
(5.00774 0.159251 0)
(5.00357 0.13087 0)
(5.00303 0.105829 0)
(5.00503 0.0826922 0)
(5.00824 0.0606862 0)
(5.01192 0.039508 0)
(5.0157 0.0189973 0)
(5.01962 -0.000998909 0)
(5.02344 -0.0206965 0)
(5.0272 -0.0402623 0)
(5.03037 -0.0598953 0)
(5.03321 -0.0796339 0)
(5.03481 -0.0995889 0)
(5.03604 -0.119553 0)
(5.0353 -0.139584 0)
(5.01199 0.279765 0)
(5.02197 0.237099 0)
(5.02146 0.198172 0)
(5.01725 0.163851 0)
(5.01521 0.133695 0)
(5.01612 0.106823 0)
(5.01875 0.082344 0)
(5.02199 0.0595345 0)
(5.0253 0.037919 0)
(5.02844 0.017162 0)
(5.0315 -0.00298154 0)
(5.03436 -0.0227255 0)
(5.03715 -0.0421852 0)
(5.03942 -0.0614688 0)
(5.04138 -0.0805607 0)
(5.04223 -0.0995193 0)
(5.04271 -0.11821 0)
(5.04149 -0.136694 0)
(5.00665 0.27289 0)
(5.01711 0.231767 0)
(5.01873 0.193331 0)
(5.01758 0.158845 0)
(5.0182 0.128226 0)
(5.02086 0.100891 0)
(5.0244 0.0761161 0)
(5.02804 0.0531973 0)
(5.03154 0.0315762 0)
(5.03477 0.0108544 0)
(5.03772 -0.00920111 0)
(5.04023 -0.0287405 0)
(5.04237 -0.0477928 0)
(5.04378 -0.0664169 0)
(5.04473 -0.084558 0)
(5.0446 -0.102319 0)
(5.04411 -0.119568 0)
(5.04216 -0.136527 0)
(5.01408 0.279679 0)
(5.02503 0.235622 0)
(5.02759 0.195887 0)
(5.02759 0.160319 0)
(5.02961 0.128593 0)
(5.03371 0.10025 0)
(5.03841 0.0747012 0)
(5.04277 0.0513613 0)
(5.04657 0.0297243 0)
(5.04974 0.00937929 0)
(5.05232 -0.00995793 0)
(5.05417 -0.0284804 0)
(5.05537 -0.0462806 0)
(5.05569 -0.0634486 0)
(5.05545 -0.0800038 0)
(5.05423 -0.0960579 0)
(5.05274 -0.111575 0)
(5.05 -0.126723 0)
(5.0069 0.272151 0)
(5.02153 0.227409 0)
(5.02774 0.186691 0)
(5.03107 0.150194 0)
(5.0361 0.117833 0)
(5.04269 0.0891044 0)
(5.04928 0.0633982 0)
(5.05504 0.0401464 0)
(5.05984 0.0188727 0)
(5.06366 -0.000819218 0)
(5.06658 -0.0192261 0)
(5.06848 -0.036603 0)
(5.06949 -0.0531172 0)
(5.06944 -0.0689407 0)
(5.06867 -0.0841172 0)
(5.06688 -0.0987663 0)
(5.06475 -0.112804 0)
(5.0615 -0.126401 0)
(5.00023 0.270701 0)
(5.0146 0.22199 0)
(5.02363 0.177953 0)
(5.03192 0.139894 0)
(5.04207 0.107637 0)
(5.05268 0.0800451 0)
(5.06196 0.0559622 0)
(5.06937 0.0346029 0)
(5.0752 0.0154608 0)
(5.07977 -0.00185538 0)
(5.08334 -0.0177014 0)
(5.08584 -0.0324279 0)
(5.08737 -0.0463252 0)
(5.08776 -0.0596178 0)
(5.08734 -0.0724174 0)
(5.08582 -0.0848107 0)
(5.08382 -0.0967725 0)
(5.08065 -0.108379 0)
(5.0015 0.2707 0)
(5.01958 0.213296 0)
(5.0333 0.164642 0)
(5.04624 0.124928 0)
(5.06032 0.0923156 0)
(5.07401 0.0646334 0)
(5.08572 0.0404028 0)
(5.09503 0.0189613 0)
(5.10227 3.01969e-05 0)
(5.1078 -0.0167008 0)
(5.11194 -0.0316458 0)
(5.1147 -0.0452562 0)
(5.11631 -0.0578716 0)
(5.11665 -0.0697692 0)
(5.11609 -0.081067 0)
(5.1143 -0.0919147 0)
(5.11201 -0.102262 0)
(5.10836 -0.112268 0)
(5.01635 0.263094 0)
(5.03919 0.1987 0)
(5.0598 0.147484 0)
(5.07947 0.109252 0)
(5.09818 0.0802233 0)
(5.11419 0.0567178 0)
(5.12685 0.0365408 0)
(5.13681 0.0187206 0)
(5.14489 0.00286626 0)
(5.1514 -0.0113137 0)
(5.15645 -0.0241267 0)
(5.15999 -0.0358651 0)
(5.16218 -0.0467664 0)
(5.16297 -0.0570156 0)
(5.16274 -0.0667203 0)
(5.16127 -0.0759857 0)
(5.15921 -0.084849 0)
(5.15591 -0.0933923 0)
(5.00632 0.258064 0)
(5.03771 0.18178 0)
(5.06947 0.125568 0)
(5.09882 0.0861572 0)
(5.12401 0.0565375 0)
(5.14372 0.0320186 0)
(5.15838 0.01103 0)
(5.16936 -0.00660443 0)
(5.17778 -0.0212526 0)
(5.18411 -0.0336737 0)
(5.18865 -0.0446048 0)
(5.19151 -0.0545485 0)
(5.19301 -0.0637379 0)
(5.19325 -0.0723197 0)
(5.19259 -0.0803683 0)
(5.19081 -0.0880341 0)
(5.18842 -0.0953381 0)
(5.18486 -0.102452 0)
(5.00372 0.243549 0)
(5.04447 0.159252 0)
(5.08691 0.107161 0)
(5.12252 0.0769961 0)
(5.14957 0.055738 0)
(5.16976 0.036788 0)
(5.18586 0.0194461 0)
(5.19956 0.00433951 0)
(5.21096 -0.00849514 0)
(5.21972 -0.0196175 0)
(5.22587 -0.0296256 0)
(5.22971 -0.0388307 0)
(5.2318 -0.0473182 0)
(5.23235 -0.055146 0)
(5.2318 -0.0624058 0)
(5.22997 -0.0692273 0)
(5.22749 -0.0756981 0)
(5.22376 -0.0819111 0)
(5.01941 0.226625 0)
(5.07691 0.123247 0)
(5.1376 0.0670445 0)
(5.18281 0.0371956 0)
(5.21196 0.0152825 0)
(5.2315 -0.00389621 0)
(5.24697 -0.019331 0)
(5.26028 -0.0308765 0)
(5.27131 -0.0398808 0)
(5.27957 -0.0477021 0)
(5.2852 -0.0549544 0)
(5.2886 -0.0617331 0)
(5.29033 -0.0679962 0)
(5.29055 -0.0737918 0)
(5.28966 -0.0791928 0)
(5.2875 -0.0843468 0)
(5.28468 -0.0892832 0)
(5.28068 -0.0941343 0)
(5.01603 0.209948 0)
(5.09603 0.109236 0)
(5.17509 0.0718729 0)
(5.2275 0.0540107 0)
(5.25852 0.0346074 0)
(5.28054 0.0151864 0)
(5.29972 -0.000369648 0)
(5.31625 -0.0116829 0)
(5.32899 -0.0205017 0)
(5.33773 -0.0282285 0)
(5.3432 -0.0353166 0)
(5.34617 -0.0417996 0)
(5.34733 -0.047692 0)
(5.34695 -0.0531051 0)
(5.34547 -0.0581599 0)
(5.34284 -0.0629761 0)
(5.33961 -0.0676026 0)
(5.33537 -0.0721027 0)
(5.01159 0.157345 0)
(5.12941 0.0325979 0)
(5.22639 0.0040325 0)
(5.27865 -0.00655338 0)
(5.30625 -0.0215556 0)
(5.3277 -0.0347371 0)
(5.34771 -0.0433603 0)
(5.36483 -0.0491314 0)
(5.37766 -0.0539249 0)
(5.38639 -0.05842 0)
(5.39199 -0.0626279 0)
(5.39526 -0.0665245 0)
(5.39682 -0.0701553 0)
(5.39686 -0.0736442 0)
(5.39578 -0.0770381 0)
(5.39351 -0.0804081 0)
(5.3906 -0.0837162 0)
(5.3866 -0.087018 0)
(5.01328 0.150923 0)
(5.17814 0.0549328 0)
(5.2984 0.040772 0)
(5.35337 0.023659 0)
(5.38143 0.00394129 0)
(5.40517 -0.0100174 0)
(5.42685 -0.0184811 0)
(5.44437 -0.0246432 0)
(5.45702 -0.0301265 0)
(5.46551 -0.0351962 0)
(5.47081 -0.0397668 0)
(5.47362 -0.0439148 0)
(5.47435 -0.0477402 0)
(5.47321 -0.0514047 0)
(5.47046 -0.0549079 0)
(5.46621 -0.0583523 0)
(5.46077 -0.0616601 0)
(5.45411 -0.064956 0)
(5.01526 0.0204621 0)
(5.2315 -0.0512525 0)
(5.35515 -0.0347566 0)
(5.40377 -0.0437243 0)
(5.42893 -0.0541829 0)
(5.44774 -0.0590797 0)
(5.46028 -0.0611955 0)
(5.4649 -0.0629231 0)
(5.46172 -0.0647127 0)
(5.4521 -0.0663729 0)
(5.4373 -0.0677777 0)
(5.41851 -0.0690143 0)
(5.39623 -0.070169 0)
(5.37125 -0.071371 0)
(5.3435 -0.0725935 0)
(5.314 -0.0739129 0)
(5.28205 -0.075226 0)
(5.24942 -0.0766606 0)
(4.96825 0.0673497 0)
(5.10584 -0.00197124 0)
(5.07479 -0.00227762 0)
(4.956 -0.0124911 0)
(4.82434 -0.0199634 0)
(4.69661 -0.0228115 0)
(4.5724 -0.0238769 0)
(4.44951 -0.0246321 0)
(4.32746 -0.025253 0)
(4.20707 -0.0256507 0)
(4.0893 -0.0258323 0)
(3.97493 -0.0258907 0)
(3.8639 -0.0259068 0)
(3.75641 -0.0259383 0)
(3.65168 -0.0259704 0)
(3.55045 -0.0260255 0)
(3.45113 -0.0260535 0)
(3.356 -0.0261498 0)
(-0.00031667 -0.00956316 3.30183e-21)
(-0.00212757 -0.0146351 -3.281e-21)
(-0.00204409 -0.014215 0)
(-0.00431769 -0.0123667 0)
(-0.00831345 -0.0100605 0)
(-0.0144926 -0.0074597 3.18737e-21)
(-0.0228636 -0.00463584 0)
(-0.0335565 -0.00168894 0)
(-0.0466108 0.00131068 0)
(-0.0621073 0.00430882 0)
(-0.0801341 0.00729183 -3.06618e-21)
(-0.100786 0.0102637 0)
(-0.124172 0.0132296 0)
(-0.150422 0.0162095 0)
(-0.179682 0.0192203 0)
(-0.212096 0.022274 -2.94271e-21)
(-0.247801 0.0253924 0)
(-0.286886 0.028624 0)
(-0.329412 0.0320857 0)
(-0.375393 0.0359198 0)
(-0.424801 0.0401724 0)
(-0.477509 0.0447455 0)
(-0.533223 0.0492934 0)
(-0.591451 0.0533034 -2.74547e-21)
(-0.6514 0.0563227 2.72053e-21)
(-0.712177 0.0582508 -2.69536e-21)
(-0.772937 0.0591483 -2.66991e-21)
(-0.832814 0.0590453 0)
(-0.890892 0.0578989 0)
(-0.946244 0.0557093 2.59235e-21)
(-0.99796 0.0525052 2.5664e-21)
(-1.04521 0.0484016 0)
(-1.08722 0.0435352 0)
(-1.12331 0.038033 2.49078e-21)
(-1.1529 0.0320351 0)
(-1.17548 0.0256607 0)
(-1.19061 0.0190311 -2.42377e-21)
(-1.19795 0.0122449 0)
(-1.19724 0.00539837 -2.38731e-21)
(-1.18829 -0.00142401 -4.74439e-21)
(-1.17104 -0.00813821 0)
(-1.14549 -0.0146603 0)
(-1.11176 -0.0209027 0)
(-1.07006 -0.0267746 0)
(-1.02071 -0.0321976 0)
(-0.964122 -0.0371015 -4.66086e-21)
(-0.90087 -0.0414638 -4.66197e-21)
(-0.83158 -0.045267 -4.66629e-21)
(-0.756899 -0.0485251 0)
(-0.677514 -0.0512336 4.68197e-21)
(-0.594057 -0.0534146 0)
(-0.507238 -0.0550827 -4.70248e-21)
(-0.417721 -0.0562555 -4.71285e-21)
(-0.326159 -0.0569613 0)
(-0.233193 -0.0572267 0)
(-0.139414 -0.0571 0)
(-0.0453411 -0.0566074 -4.74188e-21)
(0.0485218 -0.0558265 0)
(0.141728 -0.05477 0)
(0.233913 -0.0534925 0)
(0.324739 -0.0520151 0)
(0.413902 -0.0503908 0)
(0.501135 -0.048627 0)
(0.586218 -0.0467518 0)
(0.668922 -0.0447712 0)
(0.749048 -0.042718 4.66308e-21)
(0.826431 -0.0405944 0)
(0.900913 -0.038423 0)
(0.972366 -0.0362242 -4.58936e-21)
(1.0407 -0.0340143 -4.56036e-21)
(1.10584 -0.0318175 0)
(1.16775 -0.0296493 4.49676e-21)
(1.22645 -0.0275261 -4.46255e-21)
(1.28197 -0.0254709 0)
(1.33433 -0.0234961 4.39024e-21)
(1.38363 -0.0216034 0)
(1.42996 -0.0198061 0)
(1.47342 -0.0181059 -4.27468e-21)
(1.51416 -0.0164994 0)
(1.55228 -0.0149901 4.19468e-21)
(1.5879 -0.0135766 0)
(1.62113 -0.0122563 -4.11344e-21)
(1.65211 -0.0110261 -4.07258e-21)
(1.68093 -0.00988238 -4.03167e-21)
(1.70772 -0.00882117 -7.9815e-21)
(1.73258 -0.00783844 7.89977e-21)
(1.75563 -0.00693015 0)
(1.77695 -0.00609229 0)
(1.79665 -0.00532098 0)
(1.81483 -0.00461243 7.57547e-21)
(1.83156 -0.00396303 7.49534e-21)
(1.84693 -0.00336926 -7.41569e-21)
(1.86103 -0.00282778 0)
(1.87393 -0.00233533 7.25788e-21)
(1.8857 -0.00188881 7.17978e-21)
(1.89641 -0.00148535 7.10223e-21)
(1.90614 -0.00112228 0)
(1.91495 -0.000797055 0)
(1.92289 -0.000507256 0)
(1.93002 -0.000250501 6.79775e-21)
(1.93642 -2.44766e-05 0)
(1.94211 0.000173098 0)
(1.94717 0.000344484 -6.57551e-21)
(1.95163 0.000491881 0)
(1.95555 0.00061752 0)
(1.95897 0.000723551 -6.35851e-21)
(1.96193 0.000812078 0)
(1.96446 0.000885276 0)
(1.96661 0.00094507 6.14665e-21)
(1.96841 0.00099344 6.07715e-21)
(1.96989 0.0010322 0)
(1.97107 0.00106245 -5.93979e-21)
(1.97198 0.00108583 0)
(1.97264 0.00110306 5.80458e-21)
(1.97309 0.00111314 0)
(1.97334 0.00111583 5.67146e-21)
(1.97341 0.00111209 5.60567e-21)
(1.97332 0.00110309 0)
(1.9731 0.00108978 0)
(1.97275 0.00107299 0)
(1.9723 0.0010535 0)
(1.97175 0.00103205 0)
(1.97111 0.00100906 0)
(1.9704 0.000984722 0)
(1.96962 0.000959447 5.09701e-21)
(1.96879 0.000934066 -5.03554e-21)
(1.9679 0.000909148 0)
(1.96697 0.000884814 0)
(1.96599 0.000861076 0)
(1.96499 0.000837926 0)
(1.96394 0.000815385 -9.46967e-21)
(1.96288 0.000793497 0)
(1.96179 0.000772311 9.2351e-21)
(1.96067 0.000751923 -9.11906e-21)
(1.95954 0.000732507 0)
(1.9584 0.000714287 0)
(1.95724 0.000697478 0)
(1.95606 0.000682212 8.66294e-21)
(1.95487 0.000668488 8.55087e-21)
(1.95367 0.000656204 0)
(1.95245 0.000645173 8.32904e-21)
(1.95122 0.000635219 8.21925e-21)
(1.94997 0.000626182 -8.1102e-21)
(1.9487 0.000617969 0)
(1.94742 0.000610526 0)
(1.94613 0.000603846 -7.78743e-21)
(1.94481 0.000597934 0)
(1.94348 0.000592816 0)
(1.94213 0.000588509 0)
(1.94076 0.000585046 0)
(1.93937 0.000582452 7.26355e-21)
(1.93796 0.000580786 7.16083e-21)
(1.93653 0.000580103 0)
(1.93507 0.000580527 6.95736e-21)
(1.93358 0.000582159 0)
(1.93207 0.000585246 0)
(1.93051 0.000589939 6.65707e-21)
(1.92892 0.000596716 0)
(1.92727 0.000605755 6.46009e-21)
(1.92557 0.000617976 0)
(1.9238 0.00063354 0)
(1.92196 0.000654162 6.1694e-21)
(1.92 0.00067998 0)
(1.91795 0.000713927 5.97883e-21)
(1.91569 0.00075669 0)
(1.91333 0.000811951 0)
(1.9106 0.00088474 0)
(1.90775 0.000973135 -5.60587e-21)
(1.90421 0.0011045 0)
(1.9006 0.00123942 5.42401e-21)
(1.89565 0.00150136 0)
(1.89071 0.00168143 0)
(1.8833 0.00228175 0)
(1.87564 0.00241676 0)
(1.86412 0.00402334 0)
(1.84947 0.00364343 0)
(1.83199 0.00865228 0)
(1.79459 0.00598861 -9.51441e-21)
(1.77175 0.0253793 0)
(1.6438 0.0198607 0)
(-0.00837095 0.0163762 -9.91076e-21)
(-0.0366747 0.0172759 9.84822e-21)
(-0.0630014 0.0201822 0)
(-0.0912859 0.0259776 -6.47243e-21)
(-0.120253 0.032069 0)
(-0.150352 0.038249 -3.18937e-21)
(-0.181428 0.0444137 6.32993e-21)
(-0.213631 0.0505954 6.28164e-21)
(-0.247024 0.0568503 0)
(-0.281752 0.0632398 6.18406e-21)
(-0.317938 0.0698367 3.0681e-21)
(-0.355746 0.0766913 0)
(-0.395297 0.0838437 0)
(-0.436702 0.091321 0)
(-0.480068 0.099107 0)
(-0.525417 0.107144 2.94456e-21)
(-0.572722 0.115311 0)
(-0.621901 0.123414 -5.78505e-21)
(-0.672718 0.131179 0)
(-0.72481 0.138298 0)
(-0.77768 0.14442 5.63352e-21)
(-0.830761 0.149236 0)
(-0.883472 0.152469 -5.53154e-21)
(-0.935294 0.153913 2.74724e-21)
(-0.98573 0.153422 -2.72227e-21)
(-1.03425 0.15094 2.69705e-21)
(-1.08035 0.146443 2.67158e-21)
(-1.12348 0.139958 0)
(-1.16315 0.131543 0)
(-1.1989 0.121326 -2.59388e-21)
(-1.23032 0.109459 2.54212e-21)
(-1.25699 0.0961367 0)
(-1.27856 0.0815596 0)
(-1.29468 0.0659223 -2.49211e-21)
(-1.30501 0.0494104 0)
(-1.30923 0.0322004 0)
(-1.30704 0.0144598 2.42494e-21)
(-1.29821 -0.0036391 0)
(-1.2825 -0.0219182 -2.36013e-21)
(-1.25974 -0.0401898 4.74642e-21)
(-1.2298 -0.058259 0)
(-1.19265 -0.0759233 0)
(-1.14834 -0.0929713 9.31589e-21)
(-1.09699 -0.109191 9.29524e-21)
(-1.03885 -0.124382 9.28399e-21)
(-0.974253 -0.13835 -4.61913e-21)
(-0.903511 -0.150951 4.66336e-21)
(-0.827018 -0.162064 1.39659e-20)
(-0.745317 -0.17164 -9.31513e-21)
(-0.658986 -0.179632 -4.68319e-21)
(-0.5687 -0.186063 0)
(-0.475137 -0.190949 4.70359e-21)
(-0.378957 -0.194361 -4.69153e-21)
(-0.280808 -0.196368 0)
(-0.18134 -0.197068 0)
(-0.0811369 -0.196588 0)
(0.0192728 -0.19504 4.74271e-21)
(0.119404 -0.192589 0)
(0.218857 -0.189339 -9.47684e-21)
(0.317268 -0.185423 0)
(0.414313 -0.180941 -9.46055e-21)
(0.509705 -0.175984 0)
(0.603218 -0.170625 9.42153e-21)
(0.694644 -0.16492 0)
(0.783753 -0.15891 -9.36024e-21)
(0.870348 -0.152652 4.65795e-21)
(0.954284 -0.14617 0)
(1.03539 -0.139533 9.229e-21)
(1.11353 -0.132782 4.58979e-21)
(1.18863 -0.125989 4.56077e-21)
(1.26061 -0.119201 0)
(1.32945 -0.112493 4.49432e-21)
(1.39513 -0.105907 4.46289e-21)
(1.45771 -0.0995012 0)
(1.51723 -0.0933133 -4.39055e-21)
(1.57376 -0.0873605 8.70353e-21)
(1.6274 -0.0816764 0)
(1.67826 -0.0762629 4.27493e-21)
(1.72647 -0.0711205 0)
(1.77214 -0.0662529 -1.25831e-20)
(1.81536 -0.0616558 0)
(1.85627 -0.0573219 1.23395e-20)
(1.89496 -0.0532423 4.07277e-21)
(1.93154 -0.0494062 -4.03062e-21)
(1.96612 -0.0458027 -7.97954e-21)
(1.9988 -0.0424205 7.89794e-21)
(2.02967 -0.039248 0)
(2.05882 -0.0362743 0)
(2.08634 -0.0334885 0)
(2.11232 -0.0308802 -2.27255e-20)
(2.13682 -0.0284394 -7.49555e-21)
(2.15992 -0.0261569 7.41588e-21)
(2.1817 -0.0240237 0)
(2.20221 -0.0220316 7.25683e-21)
(2.22153 -0.0201727 -7.17993e-21)
(2.2397 -0.01844 -7.10238e-21)
(2.25678 -0.0168265 0)
(2.27284 -0.0153261 0)
(2.28791 -0.0139329 0)
(2.30206 -0.0126412 -6.79787e-21)
(2.31532 -0.0114458 0)
(2.32774 -0.0103416 1.32976e-20)
(2.33937 -0.00932348 1.97262e-20)
(2.35024 -0.00838658 -1.30048e-20)
(2.3604 -0.0075261 0)
(2.36989 -0.00673725 -6.35812e-21)
(2.37874 -0.00601539 0)
(2.38699 -0.00535585 -1.24332e-20)
(2.39467 -0.00475423 6.14635e-21)
(2.40182 -0.00420624 6.07688e-21)
(2.40847 -0.00370773 0)
(2.41465 -0.00325518 1.78193e-20)
(2.42039 -0.00284511 -1.17437e-20)
(2.42572 -0.00247443 -5.80463e-21)
(2.43066 -0.00214109 0)
(2.43524 -0.00184265 -5.67151e-21)
(2.43947 -0.00157594 -1.6817e-20)
(2.44338 -0.00133773 0)
(2.44699 -0.0011252 -1.09511e-20)
(2.45031 -0.000935702 -1.08226e-20)
(2.45337 -0.000766723 -1.0695e-20)
(2.45618 -0.000616029 0)
(2.45875 -0.000481756 0)
(2.46111 -0.000362036 0)
(2.46327 -0.00025523 5.09696e-21)
(2.46523 -0.000160335 5.03557e-21)
(2.46702 -7.66326e-05 0)
(2.46865 -3.10871e-06 9.82789e-21)
(2.47013 6.12639e-05 9.70762e-21)
(2.47147 0.000117445 0)
(2.47269 0.000166294 9.46972e-21)
(2.47378 0.000208588 1.87039e-20)
(2.47477 0.00024511 -9.23515e-21)
(2.47565 0.000276631 -9.11902e-21)
(2.47644 0.000303881 0)
(2.47715 0.000327561 0)
(2.47777 0.000348369 0)
(2.47833 0.000366932 -8.66298e-21)
(2.47881 0.000383758 8.55085e-21)
(2.47924 0.000399251 1.68792e-20)
(2.4796 0.00041368 -8.32908e-21)
(2.47991 0.000427258 8.21924e-21)
(2.48017 0.000440109 8.11024e-21)
(2.48038 0.000452337 0)
(2.48055 0.000464005 0)
(2.48067 0.000475194 -7.78742e-21)
(2.48075 0.000485983 0)
(2.4808 0.000496496 0)
(2.48081 0.000506872 1.49421e-20)
(2.48078 0.000517308 0)
(2.48071 0.000528014 7.26354e-21)
(2.48062 0.000539271 -7.16086e-21)
(2.48049 0.000551383 0)
(2.48033 0.000564756 6.95735e-21)
(2.48014 0.000579828 0)
(2.47992 0.00059721 0)
(2.47966 0.000617566 -6.6571e-21)
(2.47936 0.000641824 1.31165e-20)
(2.47902 0.000671073 -6.46011e-21)
(2.47864 0.000706656 0)
(2.4782 0.000750628 0)
(2.4777 0.000804542 6.16932e-21)
(2.47713 0.000873063 0)
(2.47646 0.000956309 5.97871e-21)
(2.47568 0.00106688 0)
(2.47476 0.00119633 0)
(2.47366 0.0013827 0)
(2.47234 0.00158259 5.60588e-21)
(2.47071 0.00191635 0)
(2.46871 0.00221483 -5.42401e-21)
(2.46622 0.00286357 0)
(2.46297 0.00326932 0)
(2.45908 0.00466537 1.03165e-20)
(2.45335 0.00508032 -1.01447e-20)
(2.4472 0.00844879 0)
(2.43587 0.00842378 0)
(2.42619 0.0176913 0)
(2.40101 0.0163566 2.85243e-20)
(2.38741 0.0470463 0)
(2.33054 0.048943 -1.84531e-20)
(-0.0134127 0.0862399 4.20945e-24)
(-0.0568804 0.0988854 -1.31329e-20)
(-0.09681 0.100654 0)
(-0.13819 0.106162 1.29476e-20)
(-0.179211 0.111727 0)
(-0.220583 0.117656 0)
(-0.262184 0.123934 -3.70251e-24)
(-0.304246 0.130616 -6.285e-21)
(-0.346847 0.137726 -6.23268e-21)
(-0.390096 0.145304 -6.18737e-21)
(-0.434052 0.153372 0)
(-0.478762 0.161902 0)
(-0.524233 0.170838 6.03435e-21)
(-0.570436 0.180081 1.19678e-20)
(-0.617284 0.189483 -1.18663e-20)
(-0.664636 0.198838 0)
(-0.712301 0.207858 -1.16614e-20)
(-0.760047 0.216225 5.78802e-21)
(-0.807588 0.223581 0)
(-0.854636 0.229579 -1.13492e-20)
(-0.900903 0.233925 -5.63625e-21)
(-0.946098 0.236339 1.11371e-20)
(-0.989951 0.236605 5.5341e-21)
(-1.03227 0.234527 0)
(-1.07286 0.229989 -1.08124e-20)
(-1.11154 0.22294 -1.07023e-20)
(-1.14809 0.213381 0)
(-1.1823 0.20136 -1.04802e-20)
(-1.21392 0.186978 0)
(-1.24268 0.170357 -1.02578e-20)
(-1.26831 0.151675 -5.11186e-21)
(-1.29046 0.13111 0)
(-1.30874 0.108845 0)
(-1.32269 0.0850645 0)
(-1.33185 0.0599439 0)
(-1.33568 0.0336646 0)
(-1.33368 0.00641386 0)
(-1.32533 -0.0215838 -9.47885e-21)
(-1.31017 -0.0500759 1.41596e-20)
(-1.28783 -0.078776 0)
(-1.25803 -0.107369 0)
(-1.22062 -0.135513 0)
(-1.17557 -0.162851 -8.39377e-23)
(-1.12298 -0.189005 -9.2971e-21)
(-1.06307 -0.213614 -1.84945e-20)
(-0.996201 -0.236347 1.84936e-20)
(-0.922845 -0.256919 9.22041e-21)
(-0.843582 -0.275119 -9.29977e-21)
(-0.759072 -0.290814 5.75586e-23)
(-0.670018 -0.30392 -9.28455e-21)
(-0.577129 -0.314419 0)
(-0.481137 -0.322338 -9.34069e-21)
(-0.382752 -0.327768 3.8203e-23)
(-0.282636 -0.330839 0)
(-0.181477 -0.331735 0)
(-0.0798681 -0.330653 9.43397e-21)
(0.0216564 -0.32783 0)
(0.122622 -0.323498 0)
(0.222654 -0.31789 -9.43722e-21)
(0.321412 -0.311218 -1.89075e-20)
(0.418632 -0.303664 9.46099e-21)
(0.514063 -0.295363 0)
(0.607497 -0.28642 -9.42186e-21)
(0.698766 -0.27694 0)
(0.78766 -0.266984 -9.33847e-21)
(0.873999 -0.25661 -9.32175e-21)
(0.957624 -0.245881 1.85385e-20)
(1.03836 -0.234884 9.2139e-21)
(1.11609 -0.223697 0)
(1.19073 -0.212437 -1.82244e-20)
(1.2622 -0.201203 0)
(1.33049 -0.190105 -2.69648e-20)
(1.39563 -0.179233 -1.78376e-20)
(1.45767 -0.168664 -1.76964e-20)
(1.51668 -0.158471 1.75502e-20)
(1.57275 -0.14869 -2.61036e-20)
(1.62599 -0.13936 0)
(1.67653 -0.130481 0)
(1.7245 -0.122063 1.69313e-20)
(1.77 -0.114105 2.51592e-20)
(1.81315 -0.106597 0)
(1.85406 -0.0995251 -8.22588e-21)
(1.89284 -0.0928718 0)
(1.9296 -0.0866186 2.41832e-20)
(1.96445 -0.0807459 3.89419e-24)
(1.99747 -0.0752336 -3.62945e-24)
(2.02877 -0.0700621 -1.56316e-20)
(2.05843 -0.0652121 0)
(2.08654 -0.060665 1.53078e-20)
(2.11318 -0.0564027 2.70897e-24)
(2.13842 -0.0524083 0)
(2.16233 -0.0486658 0)
(2.18499 -0.0451599 0)
(2.20644 -0.0418766 -1.45148e-20)
(2.22676 -0.0388028 0)
(2.24599 -0.0359262 0)
(2.26419 -0.0332355 0)
(2.2814 -0.0307202 0)
(2.29768 -0.0283706 0)
(2.31307 -0.0261775 -1.35937e-20)
(2.3276 -0.0241323 0)
(2.34132 -0.022227 -1.32975e-20)
(2.35426 -0.0204536 -1.31506e-20)
(2.36647 -0.0188048 1.30048e-20)
(2.37797 -0.0172733 0)
(2.3888 -0.0158522 1.27167e-20)
(2.39899 -0.0145348 0)
(2.40858 -0.0133146 1.24331e-20)
(2.41758 -0.0121854 -1.2293e-20)
(2.42604 -0.0111415 -3.64612e-20)
(2.43397 -0.0101773 0)
(2.44141 -0.00928765 -3.56373e-20)
(2.44837 -0.00846776 -1.17429e-20)
(2.45489 -0.00771303 0)
(2.46098 -0.00701878 -2.29501e-20)
(2.46667 -0.00638055 -2.2685e-20)
(2.47198 -0.00579407 3.36331e-20)
(2.47693 -0.00525535 0)
(2.48154 -0.0047608 1.09511e-20)
(2.48583 -0.0043071 1.08225e-20)
(2.48982 -0.00389103 3.20844e-20)
(2.49353 -0.00350968 0)
(2.49697 -0.00316043 0)
(2.50016 -0.00284079 0)
(2.50311 -0.00254842 1.01937e-20)
(2.50585 -0.00228155 0)
(2.50838 -0.00203866 0)
(2.51072 -0.00181799 -9.82784e-21)
(2.51288 -0.00161778 -9.70757e-21)
(2.51487 -0.00143636 0)
(2.51671 -0.00127212 0)
(2.51839 -0.00112355 -1.87038e-20)
(2.51994 -0.000989336 0)
(2.52137 -0.000868117 1.8238e-20)
(2.52268 -0.000758498 1.80075e-20)
(2.52387 -0.000659168 0)
(2.52497 -0.000568889 0)
(2.52597 -0.000486538 -1.73257e-20)
(2.52689 -0.000411161 -6.05693e-26)
(2.52773 -0.000341962 -5.63966e-26)
(2.52849 -0.000278273 0)
(2.52919 -0.000219485 -3.28768e-20)
(2.52982 -0.000165046 0)
(2.5304 -0.000114437 0)
(2.53092 -6.72071e-05 0)
(2.5314 -2.29588e-05 1.55748e-20)
(2.53182 1.86375e-05 0)
(2.53221 5.78878e-05 -3.0303e-20)
(2.53255 9.50901e-05 -1.4942e-20)
(2.53286 0.00013058 0)
(2.53313 0.000164749 -1.4527e-20)
(2.53337 0.000198065 0)
(2.53357 0.000231102 0)
(2.53375 0.000264514 -4.17438e-20)
(2.53389 0.000299146 2.74262e-20)
(2.534 0.000335878 0)
(2.53409 0.000376024 2.66279e-20)
(2.53413 0.00042071 -1.31164e-20)
(2.53414 0.000472206 0)
(2.53411 0.000531732 0)
(2.53404 0.000603739 0)
(2.53391 0.000688619 -3.70157e-20)
(2.53372 0.000796284 0)
(2.53344 0.00092277 -1.19575e-20)
(2.53308 0.00109258 0)
(2.53259 0.00128566 0)
(2.53197 0.00156711 0)
(2.53111 0.0018644 0)
(2.53009 0.00235738 0)
(2.52862 0.00281164 0)
(2.52695 0.00373365 -2.13347e-20)
(2.52439 0.00440862 0)
(2.52163 0.00627283 -1.03164e-20)
(2.51704 0.00723035 3.04298e-20)
(2.51243 0.0113589 0)
(2.50391 0.0127398 0)
(2.49609 0.0229714 -1.92972e-20)
(2.48032 0.0261495 -1.90101e-20)
(2.46797 0.054832 1.86907e-20)
(2.44424 0.0676457 1.84541e-20)
(-0.0150369 0.167812 1.98102e-20)
(-0.0632815 0.192669 1.96858e-20)
(-0.107428 0.192985 1.30262e-20)
(-0.153292 0.198237 6.4582e-21)
(-0.198631 0.203455 0)
(-0.244271 0.209172 -1.27452e-20)
(-0.28993 0.215351 6.31659e-21)
(-0.335784 0.222011 0)
(-0.381818 0.229144 6.23611e-21)
(-0.428073 0.23675 0)
(-0.474521 0.244793 -1.22582e-20)
(-0.521139 0.253187 0)
(-0.56785 0.261805 -6.03764e-21)
(-0.614563 0.270496 -1.19743e-20)
(-0.661159 0.279042 1.18727e-20)
(-0.707503 0.287202 0)
(-0.753437 0.294688 1.16675e-20)
(-0.798816 0.301187 0)
(-0.84353 0.306398 0)
(-0.887458 0.310018 1.13548e-20)
(-0.930521 0.311795 0)
(-0.972664 0.31149 -4.66666e-23)
(-1.01383 0.308897 0)
(-1.05395 0.303837 0)
(-1.09292 0.296167 6.39924e-23)
(-1.13061 0.285788 1.0707e-20)
(-1.16686 0.272648 1.05196e-20)
(-1.20143 0.256734 1.04846e-20)
(-1.23405 0.238067 0)
(-1.26441 0.216707 2.04291e-20)
(-1.29212 0.192724 0)
(-1.3167 0.1662 9.93742e-21)
(-1.3376 0.137223 0)
(-1.3542 0.105886 0)
(-1.36579 0.0723293 -9.61739e-21)
(-1.37169 0.0367401 0)
(-1.3712 -0.000623225 9.43328e-21)
(-1.36369 -0.0394322 1.28368e-22)
(-1.34864 -0.079285 -1.86959e-20)
(-1.32565 -0.119712 1.84472e-20)
(-1.29444 -0.160191 0)
(-1.2549 -0.200142 0)
(-1.20703 -0.238961 8.99137e-21)
(-1.15101 -0.276045 0)
(-1.08721 -0.310833 9.21071e-21)
(-1.01615 -0.342867 -9.21234e-21)
(-0.93846 -0.371765 -9.22212e-21)
(-0.854875 -0.397232 0)
(-0.766136 -0.419053 9.26047e-21)
(-0.672979 -0.437111 9.28596e-21)
(-0.576157 -0.451386 -1.84908e-20)
(-0.47644 -0.461936 9.34189e-21)
(-0.374577 -0.468906 9.36934e-21)
(-0.271289 -0.47251 0)
(-0.167292 -0.473025 0)
(-0.0632152 -0.470756 -9.4348e-21)
(0.0403775 -0.466077 0)
(0.143013 -0.459334 0)
(0.244337 -0.45089 1.89158e-20)
(0.344065 -0.441054 1.89086e-20)
(0.441987 -0.430074 0)
(0.537919 -0.418155 0)
(0.631691 -0.405429 0)
(0.723155 -0.391996 0)
(0.812144 -0.377948 1.86995e-20)
(0.898471 -0.363312 -1.85965e-20)