/*--------------------------------*- C++ -*----------------------------------*\
  =========                 |
  \\      /  F ield         | OpenFOAM: The Open Source CFD Toolbox
   \\    /   O peration     | Website:  https://openfoam.org
    \\  /    A nd           | Version:  7
     \\/     M anipulation  |
\*---------------------------------------------------------------------------*/
FoamFile
{
    version     2.0;
    format      ascii;
    class       volScalarField;
    location    "0.108";
    object      k;
}
// * * * * * * * * * * * * * * * * * * * * * * * * * * * * * * * * * * * * * //

dimensions      [0 2 -2 0 0 0 0];

internalField   nonuniform List<scalar> 
12225
(
1.93718e-05
1.81178e-05
1.66144e-05
1.53906e-05
1.40443e-05
1.26002e-05
1.12882e-05
9.94214e-06
8.77981e-06
7.42815e-06
6.03987e-06
5.0581e-06
4.2683e-06
3.50129e-06
3.28925e-06
9.71921e-06
1.06864e-05
2.43839e-05
1.9982e-05
1.98826e-05
1.96431e-05
1.94522e-05
1.90867e-05
1.8806e-05
1.82655e-05
1.78845e-05
1.7229e-05
1.68222e-05
1.61106e-05
1.56585e-05
1.48334e-05
1.44185e-05
1.35099e-05
1.51827e-05
1.5296e-05
1.54674e-05
1.9999e-05
1.93453e-05
1.92554e-05
1.92423e-05
1.91396e-05
1.89524e-05
1.87839e-05
1.87082e-05
1.85753e-05
1.84731e-05
1.82468e-05
1.80827e-05
1.78139e-05
1.7695e-05
1.74396e-05
1.77007e-05
1.77636e-05
1.75624e-05
2.00677e-05
1.99124e-05
1.95762e-05
1.90965e-05
1.75057e-05
1.57165e-05
1.53615e-05
1.54523e-05
1.58844e-05
1.62168e-05
1.63176e-05
1.63326e-05
1.63282e-05
1.63431e-05
1.64264e-05
1.67154e-05
1.71971e-05
1.73376e-05
2.18626e-05
2.21843e-05
2.24247e-05
2.22333e-05
2.10123e-05
1.88403e-05
1.7986e-05
1.77102e-05
1.76491e-05
1.7652e-05
1.75711e-05
1.7297e-05
1.70874e-05
1.7031e-05
1.70311e-05
1.70685e-05
1.72586e-05
1.74598e-05
2.06131e-05
2.19785e-05
2.52326e-05
2.61891e-05
2.50477e-05
2.24039e-05
2.16026e-05
2.16553e-05
2.26502e-05
2.66758e-05
3.05337e-05
3.20444e-05
3.22229e-05
3.17998e-05
2.95336e-05
2.55571e-05
2.30755e-05
2.15197e-05
2.09183e-05
2.70767e-05
2.76291e-05
2.50943e-05
2.37814e-05
2.41133e-05
2.50886e-05
2.54697e-05
2.60774e-05
2.79516e-05
3.31625e-05
3.70489e-05
3.83223e-05
3.82998e-05
3.72559e-05
3.309e-05
2.83408e-05
2.52776e-05
2.34428e-05
2.3783e-05
2.27963e-05
2.25628e-05
2.29312e-05
2.4155e-05
2.49073e-05
2.51302e-05
2.54977e-05
2.652e-05
2.96311e-05
3.24731e-05
3.36767e-05
3.38558e-05
3.34968e-05
3.13186e-05
2.77537e-05
2.55874e-05
2.16746e-05
2.05438e-05
2.10847e-05
2.16638e-05
2.28621e-05
2.51389e-05
2.58931e-05
2.56798e-05
2.47971e-05
2.44709e-05
2.45093e-05
2.47186e-05
2.48327e-05
2.48557e-05
2.4862e-05
2.47658e-05
2.43841e-05
2.40427e-05
2.0139e-05
2.02094e-05
2.08502e-05
2.28751e-05
2.42338e-05
2.42799e-05
2.38567e-05
2.37553e-05
2.38363e-05
2.40398e-05
2.40304e-05
2.39553e-05
2.3621e-05
2.28543e-05
2.2372e-05
2.21151e-05
2.19879e-05
2.197e-05
2.0205e-05
2.03841e-05
2.21091e-05
2.38392e-05
2.36213e-05
2.25972e-05
2.23491e-05
2.26301e-05
2.31602e-05
2.32579e-05
2.32166e-05
2.29051e-05
2.21611e-05
2.16291e-05
2.13395e-05
2.12302e-05
2.12165e-05
2.12447e-05
2.07833e-05
2.03577e-05
2.09571e-05
2.38789e-05
2.5086e-05
2.45698e-05
2.30879e-05
2.2601e-05
2.24491e-05
2.22823e-05
2.19492e-05
2.15182e-05
2.11428e-05
2.08984e-05
2.07897e-05
2.07749e-05
2.07894e-05
2.08383e-05
2.04319e-05
2.04561e-05
2.17277e-05
2.37128e-05
2.35987e-05
2.27575e-05
2.23697e-05
2.22419e-05
2.21495e-05
2.2037e-05
2.17657e-05
2.13502e-05
2.10711e-05
2.09448e-05
2.09256e-05
2.09636e-05
2.10367e-05
2.10732e-05
2.04483e-05
2.06539e-05
2.09612e-05
2.10254e-05
2.09348e-05
2.09238e-05
2.10284e-05
2.11455e-05
2.12329e-05
2.13043e-05
2.13372e-05
2.13297e-05
2.12356e-05
2.10285e-05
2.08625e-05
2.07695e-05
2.07397e-05
2.07439e-05
2.03948e-05
2.06307e-05
2.06346e-05
2.05164e-05
2.02542e-05
2.02155e-05
2.02612e-05
2.05549e-05
2.12304e-05
2.17232e-05
2.1962e-05
2.20205e-05
2.20165e-05
2.19339e-05
2.15266e-05
2.08661e-05
2.04902e-05
2.03746e-05
2.0642e-05
2.15718e-05
2.218e-05
2.19041e-05
2.0786e-05
2.03888e-05
2.0359e-05
2.04915e-05
2.09002e-05
2.13004e-05
2.15831e-05
2.16121e-05
2.14096e-05
2.09084e-05
2.06681e-05
2.05792e-05
2.04986e-05
2.04204e-05
2.0994e-05
2.16211e-05
2.14892e-05
2.08715e-05
2.06172e-05
2.05948e-05
2.06649e-05
2.06952e-05
2.06905e-05
2.06389e-05
2.05014e-05
2.04352e-05
2.04402e-05
2.04939e-05
2.06556e-05
2.09242e-05
2.1082e-05
2.11128e-05
2.12648e-05
2.0582e-05
2.02288e-05
2.02128e-05
2.02967e-05
2.06732e-05
2.09563e-05
2.09746e-05
2.08852e-05
2.0601e-05
2.04069e-05
2.03436e-05
2.03553e-05
2.04805e-05
2.05806e-05
2.05945e-05
2.05965e-05
2.06236e-05
2.01026e-05
2.03339e-05
2.03042e-05
2.03589e-05
2.06024e-05
2.0848e-05
2.09404e-05
2.09464e-05
2.09066e-05
2.07749e-05
2.06672e-05
2.06076e-05
2.05931e-05
2.06024e-05
2.06708e-05
2.08438e-05
2.09172e-05
2.09188e-05
2.04349e-05
2.0578e-05
2.04677e-05
2.03995e-05
2.04268e-05
2.05e-05
2.05181e-05
2.05164e-05
2.05041e-05
2.04938e-05
2.04927e-05
2.05086e-05
2.06073e-05
2.09873e-05
2.20213e-05
2.29042e-05
2.33357e-05
2.34267e-05
2.02143e-05
2.02952e-05
2.02871e-05
2.02758e-05
2.02763e-05
2.02892e-05
2.03303e-05
2.03655e-05
2.03865e-05
2.03957e-05
2.04062e-05
2.04217e-05
2.04506e-05
2.05639e-05
2.09867e-05
2.15532e-05
2.1867e-05
2.19699e-05
2.02797e-05
2.12465e-05
2.13739e-05
2.103e-05
2.04297e-05
2.02754e-05
2.02843e-05
2.03821e-05
2.05844e-05
2.07937e-05
2.09047e-05
2.09072e-05
2.0802e-05
2.05112e-05
2.03078e-05
2.01926e-05
2.01327e-05
2.01258e-05
2.07284e-05
2.07438e-05
2.05339e-05
2.03088e-05
2.02548e-05
2.02763e-05
2.04038e-05
2.05293e-05
2.06021e-05
2.06445e-05
2.06559e-05
2.06355e-05
2.04985e-05
2.03169e-05
2.02143e-05
2.01577e-05
2.0133e-05
2.01301e-05
2.04763e-05
2.01864e-05
2.01707e-05
2.02834e-05
2.04544e-05
2.05411e-05
2.05838e-05
2.06469e-05
2.08175e-05
2.14597e-05
2.22332e-05
2.25488e-05
2.25836e-05
2.25304e-05
2.22995e-05
2.1761e-05
2.12573e-05
2.08551e-05
2.06776e-05
2.03963e-05
2.04503e-05
2.06011e-05
2.06228e-05
2.05818e-05
2.04686e-05
2.04388e-05
2.04542e-05
2.05952e-05
2.12806e-05
2.20509e-05
2.22913e-05
2.23011e-05
2.22502e-05
2.20825e-05
2.16465e-05
2.11386e-05
2.00268e-05
2.00681e-05
2.02155e-05
2.02869e-05
2.05085e-05
2.12809e-05
2.12494e-05
2.06973e-05
2.04047e-05
2.03422e-05
2.0346e-05
2.0414e-05
2.07306e-05
2.19137e-05
2.3419e-05
2.42187e-05
2.44457e-05
2.44296e-05
2.0038e-05
2.00426e-05
2.00202e-05
2.00001e-05
1.99819e-05
1.99277e-05
1.98797e-05
1.98294e-05
1.96274e-05
1.92709e-05
1.91877e-05
1.92047e-05
1.92964e-05
1.9487e-05
1.97281e-05
1.98747e-05
2.01509e-05
2.02594e-05
2.02916e-05
1.76878e-05
1.37595e-05
1.46258e-05
1.6844e-05
1.99378e-05
2.457e-05
3.49756e-05
4.59649e-05
5.1403e-05
5.42641e-05
5.5721e-05
5.90555e-05
6.14499e-05
6.56625e-05
6.99005e-05
7.65193e-05
8.23855e-05
3.20679e-05
8.53514e-05
0.000135433
0.000218444
0.000278189
0.000312329
0.000368046
0.000479058
0.000581169
0.000629105
0.000636675
0.000635379
0.000630066
0.0006274
0.000627578
0.000630821
0.000645939
0.000659228
0.00271364
0.00242479
0.00240614
0.00242363
0.00242328
0.00239275
0.00227979
0.00220803
0.002161
0.0020643
0.00194117
0.00185941
0.00181551
0.00176614
0.00167882
0.00155686
0.00141829
0.0012951
0.00773951
0.0108738
0.0111837
0.0107992
0.0112814
0.0114553
0.0115291
0.0117829
0.0130692
0.0134463
0.0131584
0.0124218
0.0109675
0.00810872
0.00603025
0.00563924
0.00606219
0.0064639
0.00644583
0.00635752
0.00637489
0.00648292
0.00661432
0.00679418
0.00720845
0.0091727
0.0174569
0.0237706
0.0280688
0.038622
0.049611
0.0513788
0.0373637
0.0168949
0.0105518
0.00886414
0.00837861
0.00824176
0.00801355
0.00789681
0.00779555
0.00757678
0.00733012
0.0071044
0.00683586
0.00664449
0.00640456
0.00623341
0.00613137
0.00605858
0.00603808
0.00607314
0.00611327
0.00619458
0.00630646
0.00647469
0.00668654
0.00695396
0.00726016
0.00769858
0.00828818
0.00903847
0.00995133
0.0105702
0.0107448
0.010543
0.010054
0.010167
0.0122478
0.0190443
0.0228825
0.0228654
0.019406
0.0167456
0.0161828
0.0159666
0.0153997
0.0144256
0.0141278
0.0140551
0.0136451
0.0131247
0.0126445
0.0125116
0.0126051
0.0129213
0.0136365
0.0139963
0.014639
0.0158339
0.0158146
0.0172217
0.0446288
0.145733
0.198779
0.20771
0.179674
0.0829786
0.01765
0.00387095
0.00230806
0.00199965
0.00192176
0.00185042
0.00171331
0.00154791
0.00143281
0.00127899
0.00112732
0.00105103
0.000937123
0.00086955
0.000816512
0.000791809
0.000783132
0.00077849
0.000770768
0.000758442
0.000744657
0.00072887
0.000718404
0.000712089
0.000698331
0.000687072
0.000675692
0.000665013
0.000654086
0.000640644
0.000630941
0.000616953
0.000603496
0.000586344
0.000570354
0.000554027
0.000536829
0.000518563
0.000499488
0.000480268
0.000461442
0.000443145
0.000425492
0.000409209
0.000395
0.000381508
0.00036499
0.00034603
0.000328529
0.000305736
0.000275505
0.000246928
0.000210484
0.000165758
0.000133973
0.00010566
6.77908e-05
3.61058e-05
1.66408e-05
7.41287e-06
4.31248e-06
3.8922e-06
4.14567e-06
4.54655e-06
4.66849e-06
4.64119e-06
4.42551e-06
4.14872e-06
3.52708e-06
3.05648e-06
2.51451e-06
2.14306e-06
1.8911e-06
1.92652e-06
2.12834e-06
3.03333e-06
3.12731e-06
3.73463e-06
4.22547e-06
5.0367e-06
1.67616e-05
1.29068e-05
0.00717546
0.0100795
0.0121118
0.0131755
0.0137743
0.0140778
0.0130824
0.0113284
0.0109047
0.0108881
0.0108834
0.0108355
0.0108265
0.0108463
0.0109131
0.0107941
0.00998198
0.00740887
0.00602413
0.00596358
0.00637086
0.00795299
0.0092076
0.0101797
0.0125363
0.020147
0.0337141
0.0407845
0.041316
0.0386057
0.0314893
0.0235664
0.0149104
0.0102263
0.00823428
0.00721937
0.00638654
0.00554539
0.00484457
0.00423567
0.0036546
0.00324894
0.00281475
0.0025736
0.00228497
0.00213695
0.00194737
0.00185988
0.00177689
0.00174032
0.00172683
0.0017325
0.00180754
0.00189607
0.00205385
0.00225408
0.0025484
0.00297057
0.00353224
0.00424103
0.00511804
0.00624281
0.00755877
0.00883366
0.00973039
0.0104186
0.0111199
0.0119363
0.0134919
0.0169428
0.0194696
0.0196385
0.0194721
0.0197051
0.0202287
0.0211141
0.0215972
0.0186985
0.0170934
0.0168495
0.0169413
0.0172634
0.0173541
0.0167041
0.0158419
0.0158758
0.0158474
0.0158737
0.0162986
0.0194277
0.0204223
0.0203915
0.0269775
0.0463649
0.095585
0.135904
0.0976513
0.027954
0.00649527
0.00260566
0.00188366
0.00166968
0.00154322
0.00147162
0.001382
0.00131527
0.00127697
0.00123748
0.00121657
0.00120425
0.00118105
0.00116482
0.00115297
0.00113831
0.00112382
0.00110869
0.00109609
0.00107895
0.0010627
0.00104367
0.00101902
0.000993828
0.000966431
0.000940525
0.000912472
0.000882062
0.000844951
0.000805746
0.000772457
0.000733405
0.000701224
0.000677742
0.000664824
0.000661735
0.000666978
0.000675976
0.000681313
0.000681702
0.000678965
0.000674094
0.000667667
0.000660045
0.000652351
0.0006454
0.00063696
0.000629049
0.000623059
0.000614715
0.000605171
0.000589005
0.000558388
0.000513778
0.000447316
0.000368476
0.000302461
0.000245987
0.000187083
0.000128076
8.45623e-05
6.23446e-05
5.23344e-05
4.6446e-05
4.12715e-05
4.19601e-05
4.40366e-05
4.37234e-05
4.01473e-05
3.43079e-05
2.86684e-05
2.47774e-05
2.06816e-05
1.77655e-05
1.48098e-05
1.34711e-05
1.23084e-05
1.10451e-05
1.04175e-05
8.82312e-06
1.0159e-05
8.92382e-06
0.0052327
0.00698353
0.00946091
0.0126921
0.0157062
0.0157289
0.0148491
0.0123466
0.00933993
0.00818172
0.00819209
0.00839906
0.00867922
0.00890975
0.00891231
0.0089017
0.00878641
0.00828641
0.00831869
0.00907028
0.0115464
0.015334
0.0199189
0.0242499
0.027356
0.0298049
0.0316686
0.0284947
0.022613
0.0162513
0.0111345
0.00829357
0.00631341
0.00501292
0.0040349
0.00317957
0.002406
0.00197619
0.00146308
0.00121867
0.000969872
0.000798982
0.00066719
0.000591104
0.000503337
0.000460081
0.000410723
0.000388386
0.000372931
0.000367601
0.000367668
0.000388638
0.000415063
0.000445028
0.000482739
0.000528641
0.000591185
0.000675495
0.000796528
0.000981914
0.00127766
0.00175078
0.00250913
0.00374724
0.00559915
0.00756213
0.00947571
0.0105964
0.0108685
0.0106114
0.00866953
0.00614248
0.00557865
0.00567741
0.00632464
0.00720822
0.00859969
0.0107795
0.0116128
0.0117061
0.0124084
0.0131673
0.015103
0.018896
0.0206981
0.0205955
0.0184041
0.0164835
0.0167001
0.0204457
0.0247396
0.0245865
0.0267606
0.0443397
0.0853139
0.065401
0.0235088
0.00642835
0.00241021
0.00162884
0.00138795
0.00123501
0.00111583
0.0010059
0.000919696
0.000855541
0.000791471
0.000730122
0.000678576
0.000636836
0.00061452
0.000605062
0.000611125
0.00065434
0.0007319
0.000843488
0.000965312
0.00106864
0.00114696
0.00119836
0.00122899
0.00124409
0.00124953
0.00124231
0.00121901
0.00117948
0.00111406
0.00102992
0.000930641
0.000820162
0.00071588
0.000626434
0.000554926
0.000500969
0.000460646
0.000438714
0.000435223
0.000446345
0.000466513
0.000482638
0.000493581
0.000500945
0.000504988
0.000506507
0.000507664
0.00051485
0.000530133
0.00054898
0.000570993
0.000594112
0.000612429
0.000618487
0.000613076
0.000584013
0.00051106
0.000411006
0.000315375
0.000241736
0.000185247
0.000140483
0.000108028
9.40181e-05
9.35672e-05
9.63942e-05
9.72269e-05
9.44151e-05
8.6161e-05
7.83357e-05
7.16255e-05
6.49069e-05
5.9188e-05
5.29814e-05
4.84091e-05
4.27762e-05
3.94305e-05
3.4164e-05
3.15289e-05
2.61727e-05
2.37177e-05
1.80061e-05
0.0056471
0.00668187
0.0088502
0.0163467
0.0166198
0.0153804
0.0118785
0.00822106
0.00706638
0.00715508
0.00754511
0.00815724
0.00856157
0.00900368
0.00903439
0.00895573
0.00866464
0.00862353
0.00955931
0.0126964
0.0163796
0.0200611
0.0224342
0.0234741
0.023381
0.0203506
0.0156115
0.0117711
0.00852628
0.00629271
0.00499794
0.00362724
0.00292664
0.00224495
0.00172352
0.00127504
0.00102613
0.000872551
0.000736511
0.000679655
0.000630725
0.000587934
0.000559429
0.000529228
0.000497013
0.00047022
0.000440619
0.00043162
0.000429243
0.000429728
0.000430579
0.000429905
0.000422194
0.000412199
0.000409107
0.000408033
0.000407674
0.000407724
0.000409112
0.000419188
0.00044329
0.000473096
0.000525097
0.000634799
0.00082406
0.00112006
0.00153353
0.00178788
0.00184541
0.00179358
0.0014421
0.00120802
0.00118689
0.00135628
0.00172178
0.00218679
0.00281879
0.00348612
0.00409699
0.0047106
0.00726492
0.00977551
0.010956
0.0128202
0.0150376
0.0158895
0.0157233
0.0157476
0.017255
0.0243475
0.0279673
0.0272279
0.0298103
0.0560225
0.0562154
0.0226149
0.00681326
0.00253629
0.00166756
0.0014509
0.00133135
0.00123545
0.00116078
0.00112567
0.00111516
0.00111538
0.00114503
0.0011926
0.00125098
0.00132619
0.00140804
0.00149333
0.00158432
0.00167119
0.00175416
0.00183275
0.00191449
0.00199972
0.00207994
0.00215833
0.00222965
0.00229744
0.00235592
0.00239488
0.0024144
0.0023928
0.00230939
0.00215572
0.001912
0.00161237
0.00130094
0.000999414
0.000749951
0.000569463
0.000455501
0.000384739
0.000338254
0.000305511
0.000285865
0.000278797
0.000278106
0.000278846
0.000280468
0.000285745
0.000303625
0.00033608
0.000373269
0.000405556
0.00042961
0.000455104
0.000495955
0.000557165
0.000614001
0.000634476
0.000631246
0.000603213
0.000508873
0.000373856
0.000272376
0.00020575
0.000166695
0.000145988
0.000134508
0.000126885
0.000122445
0.000120572
0.000119544
0.000117807
0.000113421
0.000104541
9.50343e-05
8.45997e-05
7.56235e-05
6.60207e-05
5.94667e-05
5.161e-05
4.72766e-05
4.08652e-05
3.77578e-05
3.12437e-05
0.0103363
0.0153781
0.0235478
0.0204619
0.01423
0.00823128
0.00610751
0.00611232
0.00642822
0.00713278
0.0087189
0.0100122
0.0101262
0.00996743
0.00937505
0.00871884
0.00888738
0.0105045
0.0116573
0.0136325
0.0159186
0.0171321
0.0169503
0.0144114
0.0112499
0.00897741
0.00660418
0.00521596
0.00382187
0.00293517
0.00235979
0.00176306
0.00140077
0.00108473
0.00091792
0.000794391
0.000742911
0.000717498
0.000701394
0.000694027
0.000689768
0.000694118
0.000695658
0.000693962
0.000688759
0.000669526
0.000647357
0.000645873
0.000650471
0.000658458
0.00066518
0.000667192
0.000666831
0.000649532
0.000633347
0.0006177
0.000592041
0.000560928
0.000513649
0.00047865
0.000453967
0.00042922
0.000404065
0.000390503
0.000383241
0.000380177
0.000380979
0.000382244
0.000364693
0.000333844
0.000285397
0.000247049
0.000236543
0.000262207
0.000323413
0.000438858
0.000632306
0.000888271
0.00124817
0.00173532
0.00434292
0.00936669
0.0114533
0.0128801
0.0145073
0.0152787
0.0151919
0.0157878
0.0217824
0.0303268
0.0305258
0.0310222
0.0443723
0.0548971
0.025639
0.00815979
0.00290982
0.00178681
0.00154503
0.00143787
0.00134749
0.00131465
0.00131107
0.00131846
0.00133336
0.00136934
0.00143118
0.00149865
0.00158014
0.00170129
0.00183793
0.00198333
0.00213511
0.00227873
0.00240898
0.00253146
0.00264426
0.00274819
0.00285355
0.00295857
0.00307418
0.00319168
0.00330512
0.00342644
0.00354678
0.00365768
0.00373332
0.00376634
0.00369279
0.00343784
0.00293575
0.00225296
0.00160632
0.00107836
0.000716632
0.000497262
0.000373296
0.000303942
0.000262187
0.00023803
0.000229154
0.000229215
0.00023357
0.00025214
0.00031663
0.00044526
0.000545412
0.000590383
0.000591488
0.000578152
0.000540465
0.000501224
0.000495879
0.000537754
0.000602961
0.00062238
0.000620467
0.000599047
0.000493138
0.000334821
0.000257333
0.000222907
0.000200901
0.000180011
0.000161429
0.000148538
0.000142147
0.000140242
0.000139402
0.000137677
0.000133238
0.00012127
0.00010773
9.32529e-05
8.18971e-05
7.02281e-05
6.19092e-05
5.251e-05
4.8441e-05
4.09492e-05
0.0100286
0.0156604
0.0100878
0.00582419
0.00463804
0.0047471
0.00527361
0.00645552
0.00821941
0.0104739
0.012066
0.0124027
0.0119669
0.0101032
0.00905206
0.00873012
0.00978462
0.010283
0.0106684
0.0112805
0.011432
0.0102743
0.00860591
0.00664362
0.00527831
0.00422621
0.0032012
0.00246677
0.0019771
0.00151929
0.00122307
0.000990579
0.000853256
0.000777254
0.00074845
0.000741303
0.000752195
0.000768224
0.000819238
0.000887864
0.000960262
0.00102705
0.00109549
0.00114126
0.00117419
0.00119937
0.00121605
0.00125094
0.0012969
0.00134474
0.00136892
0.00137761
0.00137534
0.00135618
0.00133256
0.00126869
0.0012036
0.00112301
0.00101243
0.000913533
0.000828887
0.000726986
0.000637373
0.000583812
0.000530136
0.000471166
0.000427255
0.000394173
0.000353053
0.000308218
0.000257391
0.00020236
0.000172103
0.000148456
0.000136
0.00013325
0.000146617
0.000180822
0.000263352
0.000526647
0.00161909
0.00823113
0.0119751
0.0137771
0.0150117
0.0147799
0.0152085
0.0184276
0.0294521
0.0334716
0.0343241
0.0424981
0.048831
0.0343341
0.010807
0.00366395
0.00198262
0.00165996
0.00155652
0.00146166
0.00141765
0.00141379
0.00141754
0.00143199
0.00147241
0.00156003
0.00169176
0.00188639
0.00214946
0.00237821
0.0025057
0.00261115
0.00269149
0.00273162
0.00276714
0.00280227
0.00285333
0.00292544
0.00300922
0.00310018
0.0032157
0.00333741
0.00345966
0.0035951
0.00374112
0.00388957
0.00403983
0.00417266
0.00428252
0.00436507
0.00436197
0.00410451
0.00336653
0.00229187
0.00144343
0.000890117
0.000563911
0.000381438
0.000283876
0.000239219
0.000226985
0.000229698
0.000257998
0.000383591
0.000829529
0.00160963
0.00206975
0.00213285
0.00209231
0.00196682
0.00170037
0.00126699
0.00084537
0.000596609
0.000529724
0.000535736
0.000599096
0.000690256
0.000688965
0.000608634
0.000422279
0.000335075
0.000290946
0.000253907
0.000219409
0.000191914
0.000173385
0.000162764
0.000157892
0.000155967
0.000154481
0.000151404
0.000144105
0.000130032
0.000116917
0.000101994
9.08877e-05
7.64003e-05
6.85617e-05
5.77264e-05
0.00838498
0.00702258
0.00416456
0.00369861
0.00416855
0.00557428
0.00774213
0.00965252
0.0114666
0.0125566
0.0131476
0.0130626
0.0114862
0.00937683
0.00883728
0.00889014
0.00908663
0.00826551
0.00805898
0.00800398
0.00729399
0.00584719
0.00437075
0.0033254
0.00276619
0.00218558
0.00170646
0.00133177
0.00114418
0.000924025
0.000811095
0.000753725
0.000731759
0.000729524
0.000753569
0.000780815
0.000860826
0.00097415
0.00114769
0.00135363
0.0015537
0.00176497
0.00198018
0.0021529
0.00225639
0.00234906
0.00243333
0.0024945
0.00252877
0.00255605
0.0025748
0.00258452
0.00258568
0.00253663
0.00246591
0.00239551
0.00228107
0.00213698
0.00197047
0.00176669
0.00156003
0.00136416
0.00116348
0.000986779
0.000842962
0.000733122
0.000660199
0.000578327
0.000499159
0.000414431
0.00031751
0.000242754
0.000196712
0.000154313
0.000130671
0.000115549
0.000108176
0.000108725
0.000129543
0.000232863
0.00086653
0.00548046
0.0117286
0.0123041
0.0117249
0.0125674
0.0168939
0.0294938
0.036736
0.03807
0.0425757
0.0464958
0.0422978
0.0152577
0.00501795
0.00232657
0.00179908
0.00167593
0.00161342
0.00152662
0.00146508
0.00145983
0.00147395
0.00153023
0.00165621
0.00186846
0.00223748
0.00258883
0.0027437
0.00281846
0.00284042
0.00281308
0.00278929
0.00277921
0.00275821
0.00274218
0.00273688
0.00277816
0.00284141
0.00292842
0.00305831
0.00321388
0.0033721
0.00353462
0.00370078
0.00386099
0.00401849
0.00416727
0.0043028
0.00446105
0.00460565
0.00469384
0.00460801
0.00409994
0.00279786
0.0016824
0.000988778
0.00058743
0.000375404
0.00028771
0.00027472
0.000304185
0.000486195
0.00119222
0.00329995
0.00637837
0.00801781
0.00827545
0.00817798
0.00773916
0.00686052
0.00542614
0.0035089
0.0018323
0.000913013
0.000619687
0.000587015
0.000633072
0.00077189
0.000779692
0.000696361
0.000493488
0.000385938
0.000321401
0.000271155
0.000231865
0.000203873
0.000185205
0.000173112
0.000165647
0.000161956
0.000159733
0.000156456
0.000148308
0.000137373
0.000123124
0.000111561
9.74043e-05
8.71418e-05
7.44145e-05
0.00311681
0.00358169
0.00285967
0.00353844
0.00606459
0.0081252
0.00949647
0.0111627
0.0132032
0.0143605
0.0142387
0.0126241
0.0100171
0.00887847
0.00862185
0.00837309
0.00695348
0.00616173
0.00597411
0.00566552
0.00468972
0.00335463
0.00234566
0.00187184
0.00159
0.00127566
0.00102973
0.000869076
0.000791884
0.000729943
0.000709467
0.000706825
0.000729432
0.000753444
0.000828046
0.000942534
0.00115065
0.00145231
0.00176857
0.00203841
0.00238102
0.00270425
0.00293187
0.00303676
0.00310493
0.00315166
0.0031798
0.00320176
0.00321942
0.00323278
0.00324053
0.00324914
0.00325509
0.00325147
0.00321937
0.00318241
0.00312541
0.00304244
0.00293481
0.00278707
0.00257694
0.00229465
0.00201684
0.00168092
0.0013766
0.00112709
0.00092086
0.000795575
0.000708965
0.000592113
0.000441811
0.000325771
0.000244507
0.000183632
0.000145162
0.000119371
0.000105852
0.000100124
0.000100181
0.000122207
0.00032719
0.00191505
0.0082295
0.0102797
0.00985152
0.012339
0.0260692
0.0389642
0.0418484
0.0430565
0.045836
0.04425
0.0229871
0.00733501
0.00294702
0.00197522
0.00181262
0.00176442
0.00175258
0.00160353
0.00154365
0.00154286
0.0015859
0.00172113
0.00198886
0.00246609
0.00288676
0.00302791
0.00305924
0.0030119
0.00285756
0.0027937
0.00266193
0.00249873
0.00239756
0.00229745
0.00223325
0.00218826
0.00217125
0.00223299
0.00237937
0.00262446
0.0029365
0.00321346
0.0034668
0.0036645
0.00380919
0.00394342
0.00405988
0.00427662
0.00454219
0.0047421
0.00482417
0.00477388
0.00433865
0.00291255
0.00166863
0.000930547
0.000552673
0.000422966
0.000424126
0.000585791
0.00142714
0.00439613
0.0109983
0.0184504
0.0221267
0.0225795
0.0221855
0.02127
0.0202251
0.0183246
0.0141429
0.00812279
0.00357044
0.00146367
0.000780997
0.000678761
0.000741008
0.000873988
0.000867687
0.000737953
0.000517939
0.000394253
0.000319431
0.00026878
0.000234092
0.000208749
0.000190176
0.000175717
0.000167727
0.000162362
0.000159019
0.00015236
0.000143952
0.000132277
0.000121053
0.000108412
9.84387e-05
8.61667e-05
0.0025187
0.00328321
0.00236315
0.0052482
0.00791332
0.0090724
0.010452
0.0134479
0.0155302
0.0153751
0.0139321
0.0114328
0.00913741
0.0084485
0.00809205
0.00679542
0.00508553
0.00462911
0.0044459
0.00403984
0.00310697
0.00202904
0.00144902
0.00119348
0.0010393
0.000871117
0.00076133
0.000712336
0.000693041
0.000686376
0.000696725
0.000718216
0.000772656
0.000863505
0.00104401
0.00133966
0.00172443
0.00205765
0.00238399
0.00273458
0.00308719
0.00330798
0.00339959
0.00343953
0.00345904
0.00347704
0.00350463
0.00353904
0.00356973
0.00359546
0.00362783
0.00365022
0.00365869
0.00365673
0.00363959
0.00361235
0.00355272
0.00349228
0.00340233
0.00330205
0.00319208
0.00305854
0.00286951
0.00262762
0.00225817
0.0018691
0.00148224
0.00117897
0.001
0.000802745
0.000626668
0.000470594
0.000324124
0.000241299
0.00018402
0.000143759
0.000115834
9.9716e-05
9.32326e-05
9.24413e-05
0.000136091
0.000662924
0.00455586
0.00927726
0.00936662
0.0137929
0.029925
0.0423048
0.044038
0.0446954
0.0449993
0.0332536
0.0114364
0.00407851
0.00228108
0.00196038
0.00191263
0.00195897
0.00191397
0.00170795
0.00162966
0.00162295
0.00166831
0.00183278
0.0022602
0.00299648
0.00329189
0.0033476
0.00330175
0.00307264
0.00289049
0.00275952
0.00255164
0.00240628
0.00229398
0.00217
0.00211298
0.00197458
0.00188777
0.0018192
0.00177901
0.00182284
0.00202219
0.00247172
0.00298738
0.00334969
0.00354174
0.00364338
0.00373943
0.0038698
0.00415832
0.00457163
0.00481755
0.00486802
0.00479398
0.00423025
0.00258465
0.00139203
0.000819421
0.00066805
0.000733096
0.00139661
0.00445987
0.0139706
0.0260824
0.0302233
0.0299031
0.0286557
0.0274541
0.0265396
0.0259662
0.0254666
0.0245555
0.0219434
0.0134691
0.0055329
0.00205263
0.000968546
0.00081578
0.00088452
0.000960988
0.000920968
0.000709401
0.000497103
0.000382292
0.000314258
0.000271486
0.000239121
0.000212658
0.00019024
0.00017538
0.000165227
0.000158815
0.000152111
0.000144917
0.000135465
0.000125797
0.000114174
0.000104733
9.36307e-05
0.00277475
0.00329015
0.00200451
0.00680155
0.00852234
0.00952232
0.0116664
0.0150732
0.0163046
0.0154828
0.0131564
0.0101011
0.00864237
0.00805689
0.00721763
0.00505413
0.00382227
0.00349991
0.00333797
0.00295407
0.00217436
0.00139464
0.00105893
0.000907479
0.000816758
0.000728775
0.000690782
0.000680472
0.00067963
0.000690468
0.000721304
0.000788125
0.000922354
0.00115511
0.00152692
0.00190321
0.00224355
0.00258535
0.00292189
0.00326475
0.00354702
0.00370502
0.00377343
0.00382792
0.00390982
0.0040024
0.00409894
0.00419475
0.00425741
0.00430961
0.00435657
0.00439218
0.00441601
0.00442611
0.00440257
0.00434921
0.00426808
0.0041565
0.00402808
0.00387813
0.00367625
0.0034872
0.00329866
0.00311806
0.00296535
0.00270702
0.00238627
0.00194504
0.00153295
0.00117843
0.000842945
0.000619749
0.000422749
0.000293528
0.000216488
0.000169767
0.000138155
0.000113027
9.50646e-05
8.84355e-05
9.05439e-05
0.000211375
0.00137156
0.00744289
0.00920396
0.0139691
0.0301617
0.0423423
0.0439845
0.0440391
0.0401884
0.0178668
0.00627377
0.00283525
0.00208506
0.0020008
0.00212822
0.0021655
0.00210388
0.00187373
0.00172165
0.00171364
0.00177202
0.00206418
0.00287771
0.00359321
0.00373396
0.00371354
0.00352901
0.00328547
0.00316143
0.00308179
0.00301294
0.00301276
0.00301705
0.00283118
0.00264458
0.00238187
0.00208413
0.00186
0.00171787
0.00165063
0.00162554
0.00171743
0.00212397
0.00282776
0.00325139
0.00346227
0.00361519
0.00371711
0.00382386
0.0041331
0.00461544
0.0048453
0.00485186
0.00467302
0.0036371
0.00198381
0.00120255
0.00106004
0.00134442
0.00349868
0.0129291
0.0290069
0.0342963
0.0340589
0.031007
0.0278986
0.0263125
0.0252944
0.0247157
0.0245276
0.0245252
0.024441
0.0232633
0.0161217
0.00638702
0.0022978
0.00111619
0.000964959
0.00100608
0.0010084
0.000899445
0.000627356
0.000460988
0.000368358
0.000314498
0.000275322
0.000242133
0.000211929
0.000188031
0.000170485
0.000158847
0.00015004
0.00014311
0.000135167
0.000127676
0.000117766
0.000108813
9.85304e-05
0.0027844
0.00321416
0.00196767
0.00747642
0.0087577
0.00979669
0.0125234
0.0156341
0.0162207
0.0150108
0.0119533
0.00922354
0.00809222
0.00748453
0.00621228
0.00384743
0.00293942
0.00267718
0.00254974
0.00227558
0.00167863
0.00112501
0.000915227
0.000821507
0.000764056
0.00070717
0.000688287
0.000684435
0.000696577
0.000735802
0.000821384
0.000991032
0.00132467
0.0017044
0.0020488
0.0023786
0.00270735
0.00302321
0.00333404
0.0036275
0.00389754
0.00408941
0.00419676
0.00430223
0.00444116
0.00455323
0.00463557
0.00468508
0.00470843
0.00471856
0.00472411
0.00473692
0.0047477
0.00476011
0.00476556
0.00476642
0.00474753
0.00470509
0.00462984
0.00453496
0.00436736
0.00414106
0.00385895
0.00356434
0.00331261
0.00310776
0.00296896
0.00275481
0.00243568
0.00197379
0.00137985
0.000898181
0.000590143
0.000379743
0.000251508
0.000184632
0.00014821
0.000126458
0.000106617
9.1888e-05
8.55284e-05
9.67754e-05
0.000371035
0.00307575
0.00872765
0.0108493
0.0235979
0.0368213
0.0416462
0.0400314
0.0260148
0.010033
0.00407618
0.00238669
0.00204622
0.00215888
0.00231392
0.00235652
0.00233838
0.00212074
0.00188287
0.00181976
0.00189047
0.00230301
0.00325001
0.00395919
0.00409311
0.0041142
0.0040061
0.00391249
0.00412242
0.00457066
0.00511485
0.00550801
0.00573285
0.00579355
0.00506823
0.00434528
0.00346482
0.00266986
0.00208728
0.0017498
0.0016017
0.00155916
0.0016068
0.00193978
0.00264073
0.0031325
0.00348157
0.00364912
0.00372679
0.00382509
0.00420581
0.00467128
0.00481137
0.00473909
0.00420688
0.0026152
0.00172115
0.00164919
0.00250887
0.00827998
0.0265468
0.0363
0.0376041
0.0360613
0.030234
0.0248616
0.0211866
0.0187423
0.0172535
0.0166572
0.0167225
0.0181113
0.0215183
0.0216265
0.0164039
0.0061841
0.00222743
0.0012117
0.00107299
0.00106041
0.00100442
0.00078935
0.000560357
0.000432648
0.000363268
0.000316672
0.000277702
0.000240864
0.000208073
0.000181436
0.000162691
0.000148989
0.000140154
0.000132473
0.000126594
0.000119364
0.000111987
0.000102527
0.00273733
0.00320305
0.00244646
0.00774666
0.00882346
0.00987456
0.0128081
0.0156347
0.0159237
0.0144317
0.0110388
0.00865543
0.00768832
0.0070472
0.00551118
0.00311075
0.00235054
0.00210522
0.0019818
0.00180207
0.00141801
0.00102591
0.000882044
0.000817495
0.000764696
0.000722197
0.000712488
0.000732074
0.000790308
0.000906393
0.00111597
0.00145968
0.00178204
0.00209895
0.0024278
0.0027259
0.00299758
0.00325824
0.00356886
0.0039158
0.00421849
0.00443282
0.00457446
0.00470104
0.00478966
0.00483346
0.00484797
0.00482009
0.00478081
0.00475647
0.00474657
0.00474722
0.00474784
0.00477005
0.00479851
0.00482139
0.00483676
0.00484687
0.00482809
0.00476988
0.00469429
0.00456236
0.00439359
0.00412166
0.00378289
0.00350376
0.00322574
0.00305885
0.00284211
0.00263478
0.00226768
0.00153916
0.000939199
0.000566963
0.000348531
0.000224795
0.000162787
0.000132984
0.000116275
0.000101089
8.78832e-05
8.37764e-05
0.000114358
0.000682086
0.00608975
0.00946803
0.0163741
0.0271747
0.0326594
0.0288423
0.0152639
0.0064414
0.00303257
0.00209499
0.00202867