/*--------------------------------*- C++ -*----------------------------------*\
  =========                 |
  \\      /  F ield         | OpenFOAM: The Open Source CFD Toolbox
   \\    /   O peration     | Website:  https://openfoam.org
    \\  /    A nd           | Version:  7
     \\/     M anipulation  |
\*---------------------------------------------------------------------------*/
FoamFile
{
    version     2.0;
    format      ascii;
    class       volScalarField;
    location    "0.108";
    object      nut;
}
// * * * * * * * * * * * * * * * * * * * * * * * * * * * * * * * * * * * * * //

dimensions      [0 2 -1 0 0 0 0];

internalField   nonuniform List<scalar> 
12225
(
0
0
0
0
0
0
0
0
0
0
0
0
0
0
0
0
0
0
0
0
0
0
0
0
0
0
0
0
0
0
0
0
0
0
0
0
0
0
0
0
0
0
0
0
0
0
0
0
0
0
0
2.87902e-12
0
0
0
5.45107e-09
3.76848e-09
1.32407e-09
1.27196e-09
4.83877e-10
0
0
0
0
0
0
0
0
0
0
6.15359e-11
0
6.02233e-08
2.0134e-07
1.02172e-07
2.51484e-08
0
0
0
0
0
0
0
5.50812e-11
0
0
0
0
0
0
1.52413e-07
4.55094e-07
4.88552e-07
4.90891e-07
2.70627e-07
8.23641e-08
6.72603e-08
6.94596e-08
6.67493e-08
6.68423e-08
6.53014e-08
6.16437e-08
5.45964e-08
4.04322e-08
2.09277e-08
5.26989e-09
1.68716e-09
0
4.18929e-07
4.97601e-07
5.36835e-07
6.21937e-07
3.32804e-07
1.46257e-07
1.24929e-07
1.00293e-07
5.61973e-08
3.91461e-08
4.56141e-08
6.0346e-08
7.62353e-08
8.83257e-08
9.20933e-08
7.7003e-08
5.32464e-08
2.87697e-08
3.13854e-07
2.73238e-07
4.4761e-07
5.10141e-07
2.53656e-07
1.92255e-07
2.23664e-07
2.08401e-07
5.41234e-08
0
0
3.12181e-08
6.71503e-08
9.03747e-08
9.57575e-08
8.06747e-08
6.00036e-08
4.01036e-08
2.75993e-07
2.27711e-07
4.33917e-07
2.96098e-07
2.49267e-07
2.71445e-07
3.92238e-07
5.06454e-07
1.34491e-07
0
0
0
8.63023e-08
1.18484e-07
9.2169e-08
5.89386e-08
4.40998e-08
3.15381e-08
2.3795e-07
1.34026e-07
4.24252e-07
4.4732e-07
7.28394e-07
6.39847e-07
5.77779e-07
8.13655e-07
5.16404e-07
0
0
9.76149e-08
3.27091e-07
1.54102e-07
6.81623e-08
3.27769e-08
1.77854e-08
9.51158e-09
2.79077e-07
2.80425e-07
4.61672e-07
8.17227e-07
9.47798e-07
8.25905e-07
6.11255e-07
5.34675e-07
3.87038e-07
1.70966e-07
0
0
0
0
0
0
1.28589e-08
6.82332e-09
3.46148e-07
0
4.13796e-07
7.72739e-07
8.62754e-07
8.34605e-07
3.92884e-07
1.93053e-07
1.34139e-07
2.92114e-08
0
0
0
0
0
2.2271e-09
3.77594e-08
3.07858e-08
6.90406e-07
2.31022e-07
1.98612e-07
5.94173e-07
8.85569e-07
7.70613e-07
1.73425e-07
1.03284e-07
3.33163e-08
0
0
0
0
0
0
2.13302e-08
4.29869e-08
4.25049e-08
4.21732e-07
1.62506e-07
1.79493e-07
3.97906e-07
3.46417e-07
0
0
0
1.17584e-08
1.5999e-08
5.40122e-08
8.23008e-08
9.39494e-08
9.06095e-08
7.53516e-08
4.96498e-08
2.31202e-08
7.85428e-09
2.94432e-07
3.38967e-07
5.80813e-07
9.05981e-07
1.65276e-07
0
0
4.07957e-08
9.22594e-08
6.782e-08
2.12729e-07
3.75546e-07
4.97426e-07
5.60439e-07
5.2463e-07
3.68478e-07
1.85949e-07
9.12907e-08
4.221e-07
7.95013e-07
9.62457e-07
1.23063e-06
7.92433e-07
0
0
3.66163e-08
1.65344e-08
1.11275e-08
6.62098e-07
7.21693e-07
5.65229e-07
4.82242e-07
4.09326e-07
3.00215e-07
1.853e-07
9.87135e-08
0
0
6.03514e-07
5.67596e-07
1.21628e-07
0
1.21761e-07
3.15536e-07
4.65019e-08
0
0
0
3.61605e-08
1.23481e-07
1.38903e-07
1.30973e-07
1.1654e-07
1.00664e-07
3.58165e-07
0
0
0
0
0
0
7.51727e-08
0
0
0
0
0
8.9379e-08
1.47593e-07
1.64997e-07
1.55274e-07
1.34366e-07
8.70732e-08
1.44623e-07
0
0
0
0
0
0
0
0
0
0
0
3.8149e-07
5.81111e-07
5.44312e-07
4.26778e-07
3.30368e-07
4.90014e-07
4.47008e-07
1.0182e-07
0
0
0
0
0
0
0
0
0
2.09021e-07
4.36403e-07
5.11953e-07
4.92595e-07
4.43772e-07
3.93169e-07
2.12488e-07
8.55108e-08
0
0
0
0
0
0
0
0
0
1.65731e-08
2.48631e-09
2.47384e-08
1.43066e-07
2.93245e-07
3.88219e-07
4.12025e-07
0
2.45082e-08
0
0
0
0
0
0
0
2.49082e-08
7.72834e-08
1.12228e-07
8.14152e-08
0
0
4.84758e-08
1.88683e-07
2.61887e-07
0
0
0
0
0
0
0
0
0
1.10796e-07
2.21501e-07
2.09913e-07
8.75001e-08
0
0
0
0
0
1.31495e-07
0
0
0
0
0
0
0
0
1.08494e-07
2.2807e-07
2.7061e-07
2.24348e-07
1.55507e-07
1.00821e-07
6.18608e-08
3.59726e-08
2.14066e-08
2.09595e-07
0
0
0
0
0
0
0
0
0
1.76994e-08
1.05506e-07
1.5154e-07
1.46507e-07
1.20058e-07
9.24284e-08
6.67657e-08
4.13722e-08
1.689e-07
0
0
0
0
1.25939e-07
1.04972e-07
0
0
0
0
0
5.19653e-09
3.20391e-08
4.21675e-08
4.72156e-08
4.8608e-08
4.26571e-08
0
0
0
0
0
0
0
0
0
0
0
0
0
0
0
0
0
0
7.53041e-09
0
0
0
0
0
0
0
0
0
0
0
0
0
0
0
0
0
9.26021e-09
0
0
0
0
0
0
0
0
0
0
0
0
0
0
0
0
0
7.55746e-08
0
0
0
0
0
0
0
0
0
0
0
0
0
0
0
0
0
0
6.66738e-07
2.34014e-06
3.33199e-07
0
0
0
0
8.43718e-07
1.62278e-06
9.13174e-07
0
0
0
0
0
3.28883e-07
2.66109e-07
0
0
0
0
0
0
0
9.38245e-07
5.31998e-06
1.40696e-05
2.3081e-05
3.15982e-05
3.61733e-05
3.10931e-05
1.78135e-05
6.32706e-06
2.03277e-06
5.02993e-07
0
0
0
6.81154e-09
6.83554e-08
1.07942e-07
1.27153e-07
1.31112e-07
1.23923e-07
1.10259e-07
9.15505e-08
7.04486e-08
4.7821e-08
2.35936e-08
0
0
0
0
0
0
0
0
0
0
0
0
0
1.96448e-08
7.89281e-08
4.4273e-08
0
0
0
0
0
0
0
0
0
0
0
0
0
0
0
0
0
0
0
0
7.0538e-07
8.25145e-07
1.33693e-07
0
0
0
0
0
1.1782e-05
4.40255e-05
6.37971e-05
4.48559e-05
1.26752e-05
2.069e-06
3.40247e-07
5.29886e-08
3.26047e-08
4.85939e-08
5.88328e-08
6.02532e-08
5.71699e-08
5.04067e-08
4.23339e-08
3.50152e-08
2.67692e-08
1.91251e-08
1.15575e-08
3.98053e-09
0
0
0
0
0
0
0
0
0
0
0
0
0
0
0
0
0
0
0
0
0
0
0
0
0
0
0
0
0
0
0
0
0
0
0
0
0
0
0
0
0
0
0
0
0
0
0
0
0
0
4.12368e-11
2.80855e-10
1.36256e-10
0
0
0
0
0
5.6647e-11
3.46454e-10
3.66218e-10
7.06424e-10
7.63285e-10
9.09473e-10
3.53257e-09
0
0
0
1.36567e-06
0
0
0
0
0
1.02666e-06
2.01571e-06
2.15313e-06
1.53975e-06
5.83164e-07
0
0
4.73306e-08
4.9489e-07
3.67713e-07
0
0
0
0
7.15385e-07
2.47147e-06
3.77715e-06
5.0224e-06
5.23315e-06
4.05433e-06
3.19471e-06
2.63173e-06
2.25641e-06
2.49059e-06
2.45669e-06
1.79148e-06
1.0399e-06
4.77925e-07
1.24777e-07
0
0
1.76565e-08
5.92993e-08
8.53455e-08
9.39675e-08
9.34658e-08
8.4489e-08
7.36398e-08
5.96786e-08
4.61188e-08
3.20753e-08
1.80546e-08
3.35872e-09
0
0
0
0
0
0
0
0
0
0
0
5.81838e-08
1.7338e-07
2.31639e-07
1.46035e-07
0
0
0
0
0
0
0
0
0
0
0
0
0
0
0
0
0
0
0
0
0
9.65473e-07
7.71524e-07
0
0
0
0
8.24439e-07
1.01952e-05
1.45037e-05
1.42979e-05
8.84329e-06
3.83575e-06
1.50512e-06
5.20645e-07
1.80519e-07
1.08794e-07
9.83113e-08
9.27594e-08
8.54464e-08
7.68492e-08
6.71243e-08
5.74672e-08
4.77339e-08
3.7586e-08
2.74349e-08
1.71974e-08
6.70998e-09
0
0
0
0
0
0
0
0
0
0
0
0
0
0
0
0
0
0
0
0
0
0
0
0
0
0
0
0
0
0
0
0
0
0
0
0
0
0
0
0
0
0
0
0
0
0
0
0
0
2.25841e-09
5.82786e-09
6.50657e-09
5.31102e-09
3.47293e-09
1.79022e-09
7.87317e-10
1.66251e-10
1.98286e-10
1.61599e-10
6.10773e-10
5.81541e-10
1.01647e-09
1.1685e-09
7.72685e-10
3.05614e-09
0
0
3.26388e-07
9.56681e-07
0
0
0
0
0
8.57263e-07
2.23121e-06
2.96467e-06
3.24952e-06
3.37676e-06
3.59341e-06
3.25029e-06
6.30578e-07
0
0
0
0
0
0
9.00575e-07
1.10324e-06
6.88668e-07
3.94123e-07
3.09395e-08
0
0
0
8.46856e-09
1.70901e-07
4.6281e-07
3.98787e-07
1.89215e-07
3.80216e-08
0
0
0
0
2.49771e-08
5.75965e-08
7.54775e-08
8.21378e-08
7.76833e-08
7.0251e-08
5.90771e-08
4.85075e-08
3.80871e-08
2.84401e-08
1.93914e-08
1.11785e-08
3.39545e-09
0
0
0
0
0
0
6.23987e-09
4.38642e-08
9.45724e-08
1.37358e-07
1.21123e-07
0
0
0
7.15661e-08
4.8332e-07
2.77244e-07
0
0
0
0
0
0
0
0
0
0
0
0
0
0
0
0
0
0
2.15837e-06
3.11666e-07
0
0
1.70023e-07
1.11811e-06
9.17686e-07
1.55409e-06
1.47985e-06
1.40145e-06
1.21495e-06
9.12304e-07
6.58149e-07
5.56737e-07
4.96186e-07
4.16338e-07
3.34486e-07
2.64559e-07
2.06476e-07
1.59758e-07
1.22771e-07
9.2947e-08
6.88974e-08
4.86004e-08
3.105e-08
1.54466e-08
0
0
0
0
0
0
0
0
0
0
0
0
0
0
0
0
0
0
0
0
0
0
0
0
0
0
0
0
0
0
0
0
0
0
0
9.50436e-10
3.635e-09
6.36911e-09
4.53594e-09
0
0
0
0
0
0
0
0
0
5.5535e-09
1.5987e-08
2.04094e-08
1.99518e-08
1.64923e-08
1.24079e-08
8.40508e-09
5.1854e-09
2.5258e-09
1.19367e-09
1.34825e-10
2.61778e-10
1.11834e-10
3.04677e-10
1.53589e-09
0
5.5185e-09
0
1.28708e-06
2.89263e-06
2.06117e-06
1.95028e-06
1.07892e-06
1.85569e-08
0
0
3.20965e-06
5.47731e-06
5.57872e-06
5.39383e-06
5.16974e-06
4.34757e-06
1.84923e-06
0
0
0
0
0
0
2.26554e-07
1.09198e-06
1.36487e-06
1.11625e-06
8.60422e-07
5.69102e-07
1.35776e-07
0
0
0
0
0
0
0
0
0
0
0
0
0
0
0
0
0
0
0
0
0
5.76094e-08
1.11165e-07
1.11578e-07
5.10162e-08
0
0
0
0
0
0
0
0
0
0
0
0
0
5.88121e-08
2.60981e-07
4.11239e-07
4.66271e-07
3.10269e-07
0
0
0
0
0
0
0
4.9424e-07
1.1817e-06
1.33175e-06
0
0
0
0
0
0
0
0
0
0
0
0
0
0
1.31816e-07
2.07159e-07
2.99015e-07
4.96895e-07
5.92567e-07
6.72078e-07
7.06293e-07
6.64902e-07
6.01093e-07
5.45649e-07
5.02437e-07
4.7276e-07
4.48096e-07
4.19842e-07
3.80177e-07
3.17263e-07
2.21968e-07
9.51613e-08
0
0
0
0
0
0
0
0
0
0
0
0
0
0
0
0
0
0
0
0
0
0
0
0
0
0
0
0
0
0
0
0
0
0
0
0
0
0
0
0
0
0
0
2.31024e-08
3.34816e-08
5.49599e-09
0
3.3298e-09
2.16571e-08
3.89983e-08
4.82556e-08
4.66476e-08
3.72597e-08
2.6005e-08
1.75836e-08
1.24671e-08
9.15275e-09
5.77849e-09
2.64621e-09
0
0
0
0
7.88067e-10
0
8.67378e-09
0
3.61886e-06
2.24367e-06
2.82666e-06
2.78219e-06
2.32784e-06
1.64745e-06
1.25944e-06
4.52753e-06
4.93417e-06
4.00357e-06
3.86625e-06
3.81714e-06
3.39871e-06
2.34473e-06
4.68577e-07
0
0
0
0
0
0
2.24116e-07
6.52387e-07
8.80408e-07
8.28138e-07
7.70633e-07
6.48049e-07
3.91754e-07
1.44429e-07
0
0
0
0
0
0
0
0
0
0
0
0
0
0
0
3.58785e-08
1.67155e-07
3.20139e-07
5.05532e-07
7.17984e-07
9.07534e-07
8.72163e-07
2.38025e-07
0
0
0
0
0
0
0
8.43501e-09
1.0447e-07
1.74655e-07
2.13527e-07
2.20277e-07
2.00013e-07
1.73819e-07
1.62649e-07
1.7134e-07
1.86341e-07
1.8745e-07
1.46496e-07
6.84033e-08
0
0
0
0
0
3.0436e-08
3.99165e-07
1.15865e-06
2.0132e-06
8.77157e-07
0
0
0
9.16247e-07
5.26452e-07
0
1.977e-07
6.52493e-07
0
0
1.35044e-06
0
0
0
0
0
1.91747e-07
2.57016e-07
1.99236e-07
1.59192e-07
1.59031e-07
1.73027e-07
1.8228e-07
1.81921e-07
1.73656e-07
1.5717e-07
1.30369e-07
8.98623e-08
3.22333e-08
0
0
0
0
0
0
0
0
0
0
0
0
0
0
0
0
0
0
0
0
0
0
0
0
0
0
0
0
0
0
0
0
0
0
0
0
0
0
0
0
0
0
0
0
0
0
1.40658e-07
1.97608e-07
1.76876e-07
1.62711e-07
1.86445e-07
2.18333e-07
2.26501e-07
1.9881e-07
1.38116e-07
5.94595e-08
0
0
0
0
0
8.41398e-10
0
5.05285e-09
0
6.99847e-09
0
1.79438e-08
0
2.071e-06
1.25894e-06
1.15456e-06
1.18263e-06
1.40802e-06
1.93571e-06
4.51901e-06
4.05862e-06
3.51637e-06
3.28881e-06
3.07643e-06
2.661e-06
2.09309e-06
1.27258e-06
3.32245e-07
0
0
0
0
0
0
0
0
9.69521e-08
2.12288e-07
2.73248e-07
2.11911e-07
2.29164e-09
0
0
0
0
0
0
0
0
0
0
0
1.71118e-07
3.98035e-07
6.34182e-07
8.58944e-07
1.05767e-06
1.25055e-06
1.47338e-06
1.76902e-06
2.21833e-06
2.92395e-06
4.0469e-06
5.32472e-06
8.01717e-08
0
0
0
0
0
0
0
0
0
0
0
2.53244e-08
1.68326e-07
2.24989e-07
2.34137e-07
2.32668e-07
2.30363e-07
2.23028e-07
1.9559e-07
1.46617e-07
1.01527e-07
6.08777e-08
2.10908e-08
0
0
9.30031e-09
1.65545e-07
9.33569e-07
2.38204e-06
1.93239e-06
5.55652e-07
2.75572e-08
8.63026e-07
1.68125e-06
8.7112e-07
0
1.14995e-06
1.45569e-06
0
0
8.14817e-07
0
0
0
0
0
0
0
0
3.36331e-08
7.9452e-08
1.05448e-07
1.09937e-07
9.88743e-08
8.05186e-08
5.91776e-08
3.03494e-08
0
0
0
0
0
0
0
0
0
0
0
0
0
0
0
0
0
0
0
0
0
0
0
0
0
0
0
0
0
0
0
0
0
0
0
0
0
0
0
0
0
0
0
0
0
0
0
0
1.5182e-07
3.28743e-07
4.06493e-07
4.1315e-07
4.41733e-07
4.69414e-07
4.64164e-07
4.22938e-07
3.50422e-07
2.40414e-07
8.24122e-08
0
0
0
0
0
0
2.65262e-08
0
2.48382e-08
0
2.35922e-08
0
1.48979e-06
1.03397e-06
6.58632e-07
7.24224e-07
1.48483e-06
4.62181e-06
3.97423e-06
3.08587e-06
2.44024e-06
2.02358e-06
1.70235e-06
1.30567e-06
8.59097e-07
4.09103e-07
0
0
0
0
0
0
0
0
0
0
0
0
0
0
0
0
0
0
0
0
0
0
2.73864e-07
6.15337e-07
9.82247e-07
1.28123e-06
1.43019e-06
1.46015e-06
1.44205e-06
1.42731e-06
1.45344e-06
1.56773e-06
1.7989e-06
2.18037e-06
2.75857e-06
3.5427e-06
3.8002e-06
0
0
0
0
0
0
0
0
0
0
0
0
0
0
0
6.06399e-08
1.86894e-07
2.41544e-07
2.47176e-07
2.15366e-07
1.7245e-07
1.37998e-07
1.07741e-07
8.28209e-08
5.99991e-08
4.55134e-08
6.61994e-08
1.90487e-07
9.19114e-07
2.77078e-06
1.70558e-06
1.87826e-06
2.37826e-06
1.6627e-06
1.68692e-06
1.03071e-06
0
5.07619e-07
1.11017e-06
0
0
4.50372e-07
0
0
0
0
0
0
0
0
0
1.52837e-08
4.44764e-08
4.64804e-08
2.95368e-08
6.6402e-09
0
0
0
0
0
0
0
0
0
6.23363e-08
4.47972e-08
0
0
0
0
0
0
0
0
0
0
0
0
0
0
0
0
0
0
0
0
0
0
0
0
0
0
0
0
0
0
0
0
0
0
0
0
0
0
0
6.32005e-08
3.8565e-07
5.34436e-07
5.91447e-07
5.66648e-07
5.51025e-07
5.17643e-07
4.53963e-07
3.65584e-07
2.50264e-07
8.91401e-08
0
0
0
0
0
0
0
0
8.30506e-10
0
0
0
2.00526e-07
3.71123e-07
4.86512e-07
6.74275e-07
2.73127e-06
2.82015e-06
2.43643e-06
2.12234e-06
1.83183e-06
1.59568e-06
1.30596e-06
8.22127e-07
3.03807e-07
0
0
0
0
0
0
0
0
0
0
0
0
0
0
0
0
0
0
0
0
1.03607e-08
3.20538e-07
6.85392e-07
1.05251e-06
1.31504e-06
1.37855e-06
1.28774e-06
1.1806e-06
1.08561e-06
1.02153e-06
1.00666e-06
1.06906e-06
1.22335e-06
1.49162e-06
1.92134e-06
2.59977e-06
3.69173e-06
5.26275e-06
1.77343e-06
0
0
0
0
0
0
0
0
0
0
0
0
0
0
0
0
1.02768e-07
2.19349e-07
2.28838e-07
1.90125e-07
1.43799e-07
1.04761e-07
7.56228e-08
5.1921e-08
3.69924e-08
4.66849e-08
1.23601e-07
6.35421e-07
4.81348e-07
0
4.93291e-07
2.14798e-06
1.61651e-06
1.12511e-06
0
0
0
2.26388e-07
1.3352e-07
3.87188e-07
5.01701e-07
1.20236e-07
0
0
0
0
0
0
0
0
0
2.50534e-08
2.66035e-08
2.23878e-09
0
0
0
0
0
0
0
0
0
2.52746e-07
8.39607e-07
6.8385e-07
3.70083e-07
1.04002e-07
0
0
0
0
0
0
0
0
0
0
0
0
0
0
0
0
0
0
0
0
0
0
0
0
0
0
0
0
0
0
0
0
0
0
0
0
0
0
3.62961e-07
6.12588e-07
6.92191e-07
6.77275e-07
5.85618e-07
5.02268e-07
4.10653e-07
3.02952e-07
1.71952e-07
0
0
0
0
0
0
0
0
0
0
0
0
0
6.19541e-09
4.93711e-08
1.49958e-07
5.33772e-07
1.34305e-06
1.66221e-06
1.71521e-06
1.72785e-06
1.49895e-06
1.16783e-06
8.47745e-07
4.67734e-07
5.26666e-08
0
0
0
0
0
0
0
0
0
0
0
0
0
0
0
0
0
0
0
1.58639e-07
4.08875e-07
6.50672e-07
8.48444e-07
9.75939e-07
1.02012e-06
1.02105e-06
9.837e-07
9.03946e-07
7.87269e-07
6.75686e-07
6.09937e-07
6.12582e-07
6.97981e-07
8.80007e-07
1.18108e-06
1.63387e-06
2.25031e-06
2.77256e-06
1.53853e-06
0
0
0
0
2.36786e-08
1.91336e-07
2.30883e-07
1.62382e-07
1.1352e-09
0
0
0
0
0
0
0
0
0
1.83658e-07
2.1998e-07
1.77766e-07
1.31253e-07
9.31792e-08
6.27626e-08
3.63723e-08
1.28079e-08
2.30707e-09
1.17832e-07
0
0
0
0
4.52739e-08
0
0
0
0
0
6.45684e-07
8.23687e-07
8.22005e-07
1.18993e-06
2.53401e-06
4.71449e-07
0
0
0
0
0
0
5.79454e-09
3.81757e-08
3.52816e-08
0
0
0
0
0
0
0
0
0
0
5.37401e-07
2.34633e-06
1.59112e-06
9.41599e-07
5.00631e-07
2.04871e-07
1.35417e-08
0
0
0
0
1.30422e-07
9.03506e-08
0
0
0
0
0
0
0
0
0
0
0
0
0
0
0
0
0
0
0
0
0
0
0
0
0
0
0
0
0
1.26104e-08
3.35483e-07
6.47493e-07
7.67264e-07
7.53454e-07
6.35326e-07
4.88687e-07
3.61503e-07
2.31368e-07
8.20747e-08
0
0
0
0
0
0
0
0
0
0
0
0
0
0
0
2.22111e-08
3.35543e-07
6.60114e-07
8.58076e-07
9.0236e-07
8.84793e-07
7.47679e-07
5.74692e-07
3.70803e-07
1.15642e-07
0
0
0
0
0
0
0
0
0
0
0
0
0
0
0
0
0
0
2.33702e-08
1.60955e-07
2.67369e-07
3.41199e-07
4.13117e-07
5.1587e-07
6.62327e-07
7.86545e-07
7.92676e-07
6.69288e-07
4.77605e-07
2.98579e-07
1.90763e-07
1.79677e-07
2.75702e-07
4.89441e-07
8.38547e-07
1.35733e-06
2.1082e-06
3.20199e-06
4.55009e-06
2.96133e-06
0
0
0
0
0
0
2.70905e-07
4.68582e-07
5.65778e-07
5.56378e-07
4.13023e-07
1.12948e-07
0
0
0
0
0
0
0
7.48262e-08
1.52272e-07
1.37529e-07
1.05988e-07
7.94886e-08
5.84506e-08
3.16909e-08
0
0
0
0
0
0
0
1.44644e-07
0
0
0
0
1.26604e-06
1.49528e-06
2.27892e-06
3.28715e-06
1.05454e-06
1.12058e-07
0
0
0
0
0
0
2.88377e-08
5.93665e-08
5.0375e-08
0
0
0
0
0
0
0
0
0
0
0
2.15848e-06
1.69586e-06
1.01948e-06
5.76121e-07
2.9058e-07
1.08018e-07
0
0
0
8.14694e-08
3.68801e-07
4.25237e-07
3.46703e-08
0
0
0
0
0
0
0
0
0
0
0
0
0
0
0
0
0
0
0
0
0
0
0
0
0
0
0
0
3.19702e-07
4.48231e-07
7.04483e-07
8.36502e-07
8.0749e-07
6.88839e-07
4.95757e-07
3.3214e-07
1.74782e-07
0
0
0
0
0
0
0
0
0
0
0
0
0
0
0
0
0
3.3881e-07
4.71008e-07
4.8455e-07
4.84005e-07
4.17575e-07
2.97737e-07
1.86784e-07
4.72705e-08
0
0
0
0
0
0
0
0
0
0
0
0
0
0
0
0
0
0
5.07021e-08
9.93577e-08
1.08848e-07
9.56717e-08
9.33437e-08
1.604e-07
3.1969e-07
4.84946e-07
5.15468e-07
3.89269e-07
2.03145e-07
5.41597e-08
0
2.48287e-08
1.57806e-07
3.92949e-07
7.40359e-07
1.22133e-06
1.87772e-06
2.79839e-06
4.15982e-06
6.0161e-06
2.66804e-06
0
0
0
0
0
0
0
1.1042e-07
2.57917e-07
3.58578e-07
4.29833e-07
4.6522e-07
4.06165e-07
1.3703e-07
0
0
0
0
0
0
0
8.97281e-08
9.8236e-08
7.90689e-08
5.96249e-08
4.2649e-08
3.11347e-09
0
0
0
0
0
0
2.85409e-07
0
0
0
5.17269e-07
1.82937e-06
2.49032e-06
2.89375e-06
1.25769e-06
2.97386e-07
6.41618e-10
0
4.91551e-09
2.30461e-08
1.71484e-08
1.05511e-08
1.90369e-08
4.60924e-08
7.24017e-08
5.6056e-08
0
0
0
0
0
0
0
0
0
0
0
1.59751e-06
1.97196e-06
1.23578e-06
6.5478e-07
2.94532e-07
9.05822e-08
0
0
0
3.19203e-08
3.74089e-07
5.89162e-07
3.37202e-07
0
0
0
0
0
0
0
0
0
1.147e-08
1.67934e-07
9.48996e-08
0
0
1.75967e-06
2.80469e-07
0
0
0
0
0
0
0
0
0
0
0
0
6.37985e-07
9.02469e-07
8.69013e-07
9.34663e-07
8.71669e-07
7.2802e-07
5.26281e-07
3.25312e-07
1.38142e-07
0
0
0
0
0
0
0
0
0
0
0
0
0
0
0
0
0
1.98626e-07
2.89853e-07
2.32823e-07
1.9671e-07
1.30525e-07
5.56224e-08
0
0
0
0
0
0
0
0
0
0
0
0
0
0
0
0
0
0
3.28898e-08
6.68118e-08
6.31242e-08
2.64357e-08
0
0
0
1.57097e-08
1.55032e-07
2.16535e-07
1.5182e-07
3.52651e-08
0
0
0
1.37483e-07
3.45414e-07
6.25611e-07
9.83273e-07
1.42412e-06
1.938e-06
2.47163e-06
2.78441e-06
2.08136e-06
0
0
0
0
0
0
0
0
8.63091e-08
2.35843e-07
2.85196e-07
2.58785e-07
2.04338e-07
2.09541e-07
2.96892e-07
2.59598e-07
0
0
0
0
0
0
0
4.68812e-08
7.09312e-08
6.01757e-08
4.61585e-08
2.3751e-08
0
0
0
0
0
0
0
3.53794e-07
0
0
9.21334e-07
1.64248e-06
1.93659e-06
1.30412e-06
4.76647e-07
1.09444e-07
5.24212e-09
9.88617e-09
3.37393e-08
5.49318e-08
5.46232e-08
4.10979e-08
3.83396e-08
5.62657e-08
7.63551e-08
5.67865e-08
0
0
0
0
0
0
0
0
0
0
0
1.6535e-06
3.32229e-06
2.34538e-06
1.27847e-06
5.77609e-07
1.88473e-07
0
0
0
0
2.22702e-07
5.34296e-07
5.44952e-07
8.87181e-08
0
0
0
0
0
0
0
0
1.15648e-07
1.72683e-07
0
0
0
1.59375e-06
2.79634e-06
0
0
0
0
0
0
0
0
0
0
0
0
5.24743e-07
1.61276e-06
1.33008e-06
1.1202e-06
9.72957e-07
7.75301e-07
5.48237e-07
3.24347e-07
1.15133e-07
0
0
0
0
0
0
0
0
0
0
0
0
0
0
0
0
0
1.67814e-08
1.30212e-07
9.92771e-08
6.57673e-08
0
0
0
0
0
0
0
0
0
0
0
0
0
0
0
0
0
0
2.94964e-08
7.27004e-08
8.18113e-08
5.55568e-08
4.6022e-09
0
0
0
0
0
0
0
0
0
0
0
7.13372e-08
1.99794e-07
3.57102e-07
5.4481e-07
7.57184e-07
9.69171e-07
1.11697e-06
1.073e-06
6.80745e-07
0
0
0
0
0
0
0
0
0
0
0
1.80219e-07
2.82586e-07
2.50704e-07
9.20975e-08
0
1.02227e-07
2.42585e-07
0
0
0
0
0
0
0
4.13308e-08
5.87681e-08
4.7931e-08
3.12823e-08
0
0
0
0
0
0
0
2.51764e-07
3.62568e-07
5.42038e-07
9.84627e-07
1.20646e-06
1.07264e-06
5.90808e-07
2.08988e-07
5.30387e-08
1.46376e-08
0
9.66513e-10
3.46353e-08
6.68144e-08
7.03086e-08
5.92976e-08
6.74475e-08
8.64621e-08
7.06626e-08
0
0
0
0
0
0
0
0
0
0
0
7.25342e-08
3.54159e-06
3.54568e-06
2.26934e-06
1.14623e-06
4.38332e-07
8.33832e-08
0
0
0
1.04567e-07
3.90358e-07
5.95789e-07
3.36519e-07
0
0
0
0
0
0
0
0
3.00942e-09
0
0
0
0
0
7.82233e-06
4.99974e-06
0
0
0
0
0
0
0
0
0
0
0
1.64398e-07
2.3142e-06
2.13841e-06
1.50261e-06
1.144e-06
8.60181e-07
5.71456e-07
3.21261e-07
9.54156e-08
0
0
0
0
0
0
0
0
0
0
0
0
0
0
0
0
0
0
4.8615e-08
3.85345e-08
1.45611e-08
0
0
0
0
0
0
0
0
0
0
0
0
5.56827e-09
0
0
0
8.10292e-10
2.69383e-08
6.11392e-08
7.93522e-08
5.67114e-08
5.69729e-10
0
0
0
0
0
0
0
0
0
0
0
0
1.08288e-08
6.07941e-08
1.11344e-07
1.62186e-07
2.02376e-07
2.04007e-07
1.24414e-07
0
0
0
0
0
0
0
0
0
0
0
0
0
0
0
1.52607e-07
1.84332e-07
0
0
0
2.28039e-07
6.48686e-08
0
0
0
0
0
1.71264e-09
5.85128e-08
5.06656e-08
3.40527e-08
1.50241e-08
0
0
0
0
0
0
0
2.76956e-07
6.58938e-07
9.07785e-07
8.62231e-07
6.05801e-07
2.54534e-07
6.41255e-08
2.27841e-08
7.0839e-09
0
0
0
3.29479e-08
8.35831e-08
8.92337e-08
8.7536e-08
1.03635e-07
9.03727e-08
0
0
0
0
0
0
0
0
0
0
0
0
9.3699e-07
2.81539e-06
2.62814e-06
1.62579e-06
7.1052e-07
1.89384e-07
9.64687e-09
0
0
2.45561e-08
2.44682e-07
4.76475e-07
3.98964e-07
2.45416e-08
0
0
0
0
0
0
0
0
0
0
0
0
0
2.33734e-05
1.27833e-05
2.02758e-06
0
0
0
0
0
0
0
0
0
0
2.73565e-07
2.57822e-06
3.12156e-06
2.15137e-06
1.43791e-06
9.93747e-07
6.24513e-07
3.27519e-07
8.01489e-08
0
0
0
0
0
0
0
0
0
0
0
0
0
0
0
0
0
0
6.89992e-09
1.81024e-08
3.32023e-09
0
0
0
0
0
0
0
2.75419e-07
3.35594e-07
1.52974e-07
1.41027e-07
2.08984e-07
2.09143e-07
1.89721e-07
1.57468e-07
1.12533e-07
6.15004e-08
1.25134e-08
0
0
0
0
0
0
0
0
0
0
0
0
0
0
0
0
0
0
0
0
0
0
0
0
0
0
0
0
0
0
0
0
0
0
0
0
0
0
0
9.07549e-08
1.07199e-07
0
0
0
2.63163e-07
8.54836e-08
0
0
0
0
0
5.98726e-08
6.211e-08
4.08933e-08
2.17143e-08
2.31264e-09
0
0
0
0
0
0
0
3.79057e-07
7.39468e-07
6.76634e-07
3.54141e-07
6.75024e-08
0
0
0
0
0
0
0
4.56929e-08
1.0696e-07
1.18336e-07
1.27157e-07
1.11925e-07
1.67812e-08
0
0
0
0
0
0
0
0
0
0
0
0
4.38692e-07
1.72245e-06
1.64498e-06
8.93437e-07
2.79689e-07
6.19336e-08
1.19554e-08
0
0
1.14689e-07
2.68497e-07
2.70481e-07
1.46788e-07
0
0
0
0
0
0
0
0
0
0
0
0
0
3.48832e-05
1.81891e-05
5.02583e-06
0
0
0
0
0
0
0
0
2.91147e-07
3.19301e-07
5.76466e-07
2.46177e-06
3.9842e-06
2.98439e-06
1.87531e-06
1.20639e-06
7.23276e-07
3.59669e-07
8.52624e-08
0
0
0
0
0
0
0
0
0
0
0
0
0
0
0
0
0
0
0
1.74666e-08
1.31351e-08
0
0
0
0
1.93452e-08
7.67989e-08
4.29323e-07
8.62776e-07
8.63726e-07
4.80555e-07
3.84451e-07
4.23653e-07
4.02277e-07
3.61959e-07
3.21448e-07
2.6237e-07
1.72373e-07
5.39898e-08
0
0
0
0
0
0
0
7.73187e-08
8.44808e-08
5.46295e-08
2.54513e-08
1.2011e-08
8.08351e-09
0
0
0
0
0
0
0
0
0
0
0
0
0
0
0
0
0
0
0
0
0
0
0
0
0
0
0
1.03267e-07
2.71922e-08
0
0
3.46251e-08
3.13611e-07
0
0
0
0
0
3.25813e-08
7.23203e-08
5.28893e-08
3.12738e-08
1.41568e-08
0
0
0
0
0
0
0
0
2.23683e-07
3.19924e-07
7.11231e-08
0
0
0
0
0
0
0
0
0
6.93932e-08
1.28343e-07
1.43819e-07
1.28239e-07
3.4063e-08
0
0
0
0
0
0
0
0
0
0
0
0
0
0
9.76505e-07
8.53121e-07
3.23739e-07
8.11292e-08
6.22199e-08
2.48709e-08
0
3.25313e-08
1.09601e-07
1.12013e-07
1.6348e-07
9.36501e-08
0
0
0
0
0
0
0
0
0
0
0
3.48635e-06
3.43862e-05
2.18274e-05
7.43981e-06
0
0
0
0
0
0
0
0
7.34408e-07
7.24302e-07
6.66487e-07
2.10578e-06
4.37256e-06
3.87845e-06
2.46127e-06
1.51894e-06
8.94597e-07
4.43139e-07
1.29803e-07
0
0
0
0
0
0
0
0
0
0
0
0
1.21471e-08
0
0
0
0
0
0
3.27407e-08
4.47304e-08
0
0
0
0
7.35073e-08
4.03922e-07
1.68631e-06
1.54064e-06
1.33806e-06
8.39737e-07
5.17216e-07
5.10441e-07
5.03763e-07
4.70395e-07
4.35424e-07
3.88556e-07
3.08381e-07
1.83742e-07
2.19982e-08
0
0
0
0
0
0
3.79051e-08
1.60785e-07
1.95554e-07
1.69776e-07
1.24343e-07
8.50952e-08
5.49489e-08
2.2198e-08
0
0
0
0
0
0
0
0
0
0
0
0
0
0
0
0
5.65758e-08
1.7009e-07
2.04022e-07
1.69311e-07
9.96929e-08
8.07005e-08
8.5373e-08
3.45205e-09
0
2.78908e-08
1.0702e-07
0
0
0
2.51044e-07
1.6882e-07
0
0
0
0
0
5.51204e-08
5.03069e-08
3.39746e-08
1.96324e-08
8.66556e-09
0
0
0
0
0
0
0
0
0
0
0
0
0
0
0
0
0
0
0
0
7.79666e-08
1.2205e-07
1.218e-07
4.78506e-08
0
0
0
0
0
0
0
0
0
0
0
0
0
0
0
3.84825e-07
1.91676e-07
1.26597e-08
6.23045e-08
6.96628e-08
3.54509e-09
0
1.6262e-08
1.21177e-08
1.31278e-07
1.91574e-07
8.27847e-08
0
0
0
0
0
0
0
0
0
0
1.40105e-05
3.61892e-05
2.64162e-05
9.93854e-06
0
0
0
0
0
0
0
2.53494e-08
9.1854e-07
7.33049e-07
3.88472e-07
1.44477e-06
4.17912e-06
4.52844e-06
2.93643e-06
1.79332e-06
1.1126e-06
5.87325e-07
2.24862e-07
0
0
0
0
0
0
0
0
0
0
0
0
1.40052e-08
0
0
0
0
0
7.35713e-09
6.53494e-08
8.79327e-08
1.86627e-08
0
0
0
9.79906e-08
7.35308e-07
3.32224e-06
2.15123e-06
1.63507e-06
1.2382e-06
6.91169e-07
4.96553e-07
4.96129e-07
4.99751e-07
4.86493e-07
4.5702e-07
4.00782e-07
3.09507e-07
1.7932e-07
1.65616e-08
0
0
0
0
0
0
1.03709e-08
1.52846e-07
2.28584e-07
2.40142e-07
2.10021e-07
1.64171e-07
1.15956e-07
6.47541e-08
3.36054e-09
0
0
0
0
0
0
0
0
0
0
0
0
0
1.93103e-07
3.70415e-07
3.71568e-07
3.13495e-07
2.44453e-07
1.59351e-07
1.05582e-07
9.85974e-08
3.66783e-08
0
0
8.38768e-08
6.56669e-10
0
0
1.86955e-07
2.43306e-07
0
0
0
0
0
4.64768e-08
4.76629e-08
3.45677e-08
2.41177e-08
1.53848e-08
6.67159e-09
0
0
0
0
0
0
0
0
0
0
0
0
0
0
0
0
0
0
0
0
5.9245e-08
8.40872e-08
4.56615e-08
0
0
0
0
0
0
0
0
0
0
0
0
0
0
0
0
0
0
0
7.22336e-08
2.1304e-08
0
0
0
1.14362e-07
2.29327e-07
1.77577e-07
7.46904e-08
0
0
0
0
0
0
0
0
1.19425e-06
1.97227e-05
3.48442e-05
3.14362e-05
1.44305e-05
7.05503e-07
0
0
0
0
0
0
2.87851e-07
7.68759e-07
2.46658e-07
0
3.79646e-07
3.566e-06
4.88079e-06
3.32996e-06
1.99167e-06
1.29361e-06
7.83548e-07
3.74402e-07
9.38662e-08
0
0
0
0
0
0
0
0
0
0
0
0
0
0
0
0
0
3.94661e-08
1.05152e-07
1.29937e-07
6.82817e-08
0
0
0
1.17656e-07
9.89234e-07
3.93445e-06
2.46175e-06
1.73787e-06
1.30565e-06
9.39478e-07
5.61824e-07
4.129e-07
4.11366e-07
4.25135e-07
4.22855e-07
3.96928e-07
3.42605e-07
2.59545e-07
1.4503e-07
7.1539e-09
0
0
0
0
0
0
0
9.04906e-08
1.8095e-07
2.201e-07
2.12623e-07
1.76369e-07
1.26962e-07
7.35487e-08
1.56126e-08
0
0
0
0
0
0
0
0
0
0
0
3.98807e-08
4.603e-07
4.65426e-07
3.59971e-07
2.61616e-07
1.96064e-07
1.28432e-07
7.58135e-08
7.05134e-08
3.56848e-08
0
0
7.45509e-08
3.874e-08
0
0
1.92095e-07
2.87594e-07
0
0
0
0
0
6.917e-08
6.46719e-08
4.6634e-08
3.47218e-08
2.57816e-08
1.80033e-08
8.41006e-09
0
0
0
0
0
0
0
0
0
0
0
0
0
0
0
0
0
0
0
0
9.75567e-09
0
0
0
0
0
0
0
0
0
0
0
0
0
0
0
0
0
0
0
0
2.4933e-08
2.717e-08
0
0
0
1.41313e-07
2.62001e-07
2.40403e-07
1.49939e-07
0
0
0
0
0
0
0
0
9.24417e-08
1.53316e-05
1.9639e-05
2.19869e-05
2.06503e-05
1.99989e-06
0
0
0
0
0
1.92705e-07
3.25251e-07
3.68664e-08
0
0
0
2.54961e-06
4.76313e-06
3.59448e-06
2.08977e-06
1.31712e-06
9.40291e-07
5.57172e-07
2.41608e-07
0
0
0
0
0
0
0
0
0
0
0
0
0
0
0
0
0
4.1739e-08
1.17384e-07
1.43734e-07
1.06041e-07
0
0
0
1.41919e-07
1.0533e-06
3.44531e-06
2.31125e-06
1.70159e-06
1.18453e-06
9.19543e-07
7.03984e-07
4.54191e-07
3.06803e-07
2.82371e-07
2.9472e-07
2.99161e-07
2.82223e-07
2.42233e-07
1.78128e-07
8.85096e-08
0
0
0
0
0
0
0
0
2.54493e-08
1.08141e-07
1.55348e-07
1.6055e-07
1.33414e-07
8.87449e-08
3.98275e-08
0
0
0
0
0
0
0
0
0
0
0
2.8376e-07
3.47917e-07
2.31844e-07
1.48426e-07
1.02568e-07
8.81767e-08
6.27798e-08
3.14923e-08
3.69805e-08
2.26108e-08
0
0
7.57699e-08
5.84457e-08
0
3.00715e-08
2.53638e-07
3.63183e-07
7.77885e-08
0
0
0
0
1.0216e-07
9.12096e-08
6.6698e-08
5.07392e-08
4.03866e-08
3.09151e-08
2.16868e-08
8.80316e-09
0
0
0
0
0
0
0
0
0
0
0
0
0
0
0
0
0
0
0
0
0
0
0
0
0
0
0
0
0
0
0
0
0
0
0
0
0
0
0
0
0
1.50199e-08
0
0
0
2.02631e-07
3.16701e-07
3.02513e-07
1.97905e-07
3.43706e-08
0
0
0
0
0
0
0
0
6.61954e-06
6.77471e-06
7.21092e-06
1.17786e-05
2.87366e-06
0
0
0
0
6.33517e-08
1.03582e-06
0
0
0
0
0
1.16828e-06
4.34022e-06
3.59646e-06
2.20758e-06
1.25921e-06
9.71362e-07
7.31995e-07
4.1225e-07
1.47667e-07
0
0
0
0
0
0
0
0
0
0
0
0
0
0
0
0
0
4.17953e-08
9.26912e-08
1.25879e-07
0
0
0
1.5015e-07
9.2769e-07
2.74067e-06
1.58575e-06
1.38884e-06
9.5932e-07
6.94481e-07
5.84865e-07
4.86422e-07
3.27424e-07
1.83087e-07
1.3808e-07
1.4507e-07
1.56143e-07
1.52164e-07
1.30155e-07
8.77323e-08
2.51097e-08
0
0
0
0
0
0
0
0
2.61507e-09
8.22116e-08
1.37343e-07
1.51453e-07
1.26854e-07
8.21327e-08
3.45382e-08
0
0
0
0
0
0
0
0
1.60824e-07
6.88594e-07
0
0
0
0
0
0
0
0
0
9.85695e-09
0
2.63165e-08
9.94793e-08
9.02982e-08
2.09093e-08
1.22613e-07
3.66858e-07
4.81798e-07
1.97603e-07
0
0
0
2.15684e-08
1.43168e-07
1.22474e-07
8.99096e-08
6.89855e-08
5.51408e-08
4.42162e-08
3.32565e-08
1.99465e-08
3.32385e-09
0
0
0
0
0
0
0
0
0
0
0
0
0
0
0
0
0
0
0
0
0
0
0
0
0
3.54129e-07
5.84856e-07
0
0
0
0
0
0
0
0
0
0
0
0
0
0
0
0
1.01866e-08
2.81517e-07
4.00794e-07
3.79476e-07
2.53229e-07
8.81215e-08
0
0
0
0
0
0
0
0
1.85493e-06
1.83319e-06
1.92622e-06
3.0634e-06
4.47435e-07
0
0
0
0
2.72583e-06
1.50754e-06
0
0
0
0
0
0
3.66018e-06
3.28683e-06
2.13692e-06
1.18367e-06
8.63521e-07
8.57536e-07
6.22929e-07
3.63055e-07
1.46962e-07
0
0
0
5.96791e-08
9.94573e-08
0
0
0
0
0
0
0
0
0
0
0
0
0
1.18024e-07
1.21572e-07
0
0
1.3516e-07
7.36781e-07
1.96376e-06
1.05781e-06
5.50607e-07
4.71846e-07
3.04694e-07
2.65699e-07
2.6126e-07
2.14673e-07
1.13022e-07
1.01836e-08
0
0
1.29198e-08
2.47265e-08
1.98531e-08
0
0
0
0
0
0
0
0
0
0
2.99259e-08
1.48295e-07
2.28933e-07
2.31785e-07
1.81145e-07
1.1953e-07
6.79867e-08
3.27323e-08
1.43705e-08
1.36867e-08
3.54552e-08
9.91902e-08
2.35212e-07
5.00321e-07
9.88358e-07
1.35819e-06
0
0
0
0
0
0
0
0
0
2.15866e-08
2.71862e-08
7.37481e-08
1.50025e-07
1.5395e-07
1.15496e-07
2.70808e-07
5.43891e-07
6.35203e-07
3.13637e-07
0
0
0
9.78224e-08
1.83398e-07
1.4979e-07
1.11917e-07
8.63238e-08
6.88059e-08
5.47336e-08
4.25848e-08
2.91722e-08
1.03808e-08
0
0
0
0
0
0
0
0
0
0
0
0
0
0
0
0
0
0
0
0
0
0
0
0
0
4.05675e-07
1.23237e-06
1.6902e-06
0
0
0
0
0
0
0
0
0
0
0
0
0
0
0
3.66386e-08
3.68448e-07
5.07611e-07
4.7807e-07
3.33752e-07
1.61283e-07
0
0
0
0
0
0
0
0
3.1936e-07
2.64046e-07
2.27542e-07
2.96271e-07
0
0
0
0
8.1031e-07
7.72737e-06
0
0
0
0
0
0
0
2.90903e-06
2.81291e-06
1.83544e-06
9.84541e-07
6.04886e-07
8.88569e-07
9.24203e-07
7.07153e-07
4.61192e-07
2.37698e-07
7.13892e-08
6.96568e-08
3.23859e-07
3.20799e-07
7.20926e-08
0
0
0
0
3.62076e-08
0
0
0
1.3074e-07
0
0
0
2.25981e-07
3.0195e-07
1.80501e-07
4.50285e-08
1.01849e-07
5.22648e-07
1.38984e-06
4.4617e-07
0
0
0
0
0
0
0
0
0
0
0
0
0
0
0
0
0
0
0
0
0
0
0
0
1.91662e-07
4.42597e-07
4.74085e-07
3.42323e-07
2.04607e-07
1.03698e-07
3.78869e-08
2.8091e-09
0
2.47616e-08
1.13178e-07
2.95072e-07
6.28075e-07
1.20755e-06
1.84689e-06
0
0
0
0
0
0
0
0
7.82051e-09
5.48582e-08
8.7996e-08
1.65723e-07
2.66983e-07
2.89529e-07
2.89171e-07
4.96223e-07
7.72225e-07
7.9705e-07
4.15556e-07
0
0
0
1.86663e-07
2.27083e-07
1.76507e-07
1.31737e-07
1.01578e-07
8.04171e-08
6.39464e-08
4.92514e-08
3.56588e-08
1.79764e-08
0
0
0
0
0
0
0
0
0
0
0
0
0
0
0
0
0
0
0
0
0
0
0
0
0
1.18483e-07
1.21372e-06
2.85533e-06
3.07178e-06
0
0
0
0
0
0
0
0
0
0
0
0
0
0
8.15655e-08
4.63732e-07
6.27982e-07
5.96696e-07
4.3594e-07
2.50321e-07
0
0
0
0
0
0
0
0
0
0
0
0
0
0
0
0
6.18535e-06
1.58279e-05
0
0
0
0
0
0
0
2.16171e-06
2.24062e-06
1.40046e-06
6.14309e-07
1.54048e-07
6.91862e-07
1.2402e-06
1.12249e-06
8.19129e-07
5.40073e-07
3.5818e-07
3.64723e-07
5.98915e-07
5.76745e-07
2.48068e-07
0
0
0
0
6.62022e-08
0
0
4.41055e-07
8.74271e-07
1.27532e-06
0
0
3.25577e-08
3.99665e-07
4.77333e-07
3.67809e-07
3.24702e-07
6.17569e-07
9.90108e-07
0
0
0
0
0
0
0
0
0
0
0
0
0
0
0
0
0
0
0
0
0
0
0
0
0
1.11089e-07
8.23147e-07
8.67172e-07
4.75141e-07
1.87772e-07
6.95271e-09
0
0
0
0
0
3.53207e-08
3.23968e-07
8.6402e-07
1.69136e-06
0
0
0
0
0
0
0
2.2436e-09
7.37603e-08
1.51928e-07
2.39341e-07
3.72223e-07
4.98061e-07
5.26125e-07
5.60387e-07
7.96246e-07
9.76738e-07
9.35559e-07
4.9466e-07
0
0
6.0228e-09
2.63434e-07
2.54797e-07
1.95378e-07