/*--------------------------------*- C++ -*----------------------------------*\
  =========                 |
  \\      /  F ield         | OpenFOAM: The Open Source CFD Toolbox
   \\    /   O peration     | Website:  https://openfoam.org
    \\  /    A nd           | Version:  7
     \\/     M anipulation  |
\*---------------------------------------------------------------------------*/
FoamFile
{
    version     2.0;
    format      ascii;
    class       volScalarField;
    location    "0.108";
    object      p;
}
// * * * * * * * * * * * * * * * * * * * * * * * * * * * * * * * * * * * * * //

dimensions      [0 2 -2 0 0 0 0];

internalField   nonuniform List<scalar> 
12225
(
518.253
522.767
525.613
526.841
526.995
526.348
525.079
523.349
521.28
518.954
516.43
513.756
510.965
508.074
505.069
501.908
498.471
494.488
518.123
522.815
525.674
526.897
527.036
526.379
525.106
523.373
521.302
518.976
516.452
513.778
510.991
508.106
505.111
501.969
498.588
494.8
517.376
522.902
525.783
527.013
527.134
526.458
525.174
523.433
521.356
519.026
516.503
513.833
511.052
508.176
505.198
502.091
498.799
495.258
517.284
523.18
526.019
527.224
527.31
526.601
525.294
523.539
521.451
519.114
516.589
513.922
511.149
508.285
505.333
502.275
499.093
495.798
518.489
523.694
526.362
527.519
527.565
526.815
525.476
523.697
521.592
519.244
516.715
514.051
511.286
508.441
505.521
502.526
499.463
496.382
521.21
524.408
526.844
527.934
527.922
527.116
525.731
523.92
521.791
519.428
516.89
514.227
511.471
508.648
505.768
502.843
499.897
496.995
522.437
525.286
527.5
528.489
528.398
527.521
526.077
524.219
522.056
519.67
517.121
514.456
511.712
508.913
506.077
503.223
500.387
497.629
523.54
526.259
528.328
529.204
529.012
528.044
526.522
524.604
522.398
519.983
517.418
514.75
512.015
509.239
506.447
503.662
500.922
498.279
524.275
527.38
529.379
530.114
529.789
528.705
527.087
525.092
522.829
520.374
517.787
515.111
512.384
509.632
506.881
504.159
501.501
498.948
524.461
528.725
530.702
531.256
530.759
529.527
527.787
525.696
523.362
520.858
518.24
515.551
512.826
510.093
507.379
504.711
502.119
499.636
526.095
530.543
532.365
532.678
531.954
530.531
528.639
526.431
524.007
521.44
518.781
516.072
513.345
510.626
507.943
505.318
502.779
500.349
528.044
532.729
534.272
534.265
533.276
531.639
529.579
527.24
524.718
522.079
519.373
516.636
513.899
511.186
508.521
505.926
503.422
501.027
531.472
535.525
536.548
536.137
534.817
532.917
530.653
528.16
525.522
522.8
520.037
517.265
514.511
511.797
509.144
506.571
504.093
501.723
538.616
539.62
539.703
538.665
536.872
534.613
532.079
529.382
526.59
523.754
520.911
518.088
515.304
512.578
509.927
507.364
504.902
502.548
543.12
544.868
544.001
542.08
539.622
536.868
533.963
530.987
527.987
524.996
522.042
519.141
516.308
513.554
510.892
508.33
505.873
503.528
553.642
552.748
549.918
546.642
543.234
539.798
536.397
533.057
529.786
526.596
523.496
520.491
517.584
514.781
512.086
509.504
507.036
504.68
571.377
563.481
557.559
552.43
547.788
543.497
539.479
535.679
532.064
528.616
525.321
522.169
519.155
516.275
513.526
510.905
508.408
506.034
587.236
575.345
566.339
559.174
553.119
547.836
543.106
538.779
534.77
531.025
527.503
524.178
521.031
518.049
515.221
512.536
509.987
507.568
598.923
584.85
574.078
565.495
558.381
552.308
546.972
542.173
537.788
533.742
529.979
526.462
523.161
520.056
517.128
514.363
511.749
509.276
604.072
588.779
577.657
568.88
561.566
555.247
549.661
544.639
540.06
535.843
531.933
528.289
524.88
521.682
518.674
515.841
513.169
510.645
599.531
587.639
578.054
569.996
562.996
556.784
551.201
546.131
541.48
537.183
533.196
529.482
526.011
522.759
519.704
516.829
514.121
511.565
593.525
584.897
577.292
570.198
563.671
557.68
552.184
547.134
542.47
538.142
534.116
530.361
526.851
523.56
520.469
517.561
514.821
512.238
584.686
582.168
576.488
570.158
563.995
558.19
552.786
547.771
543.108
538.767
534.722
530.946
527.414
524.102
520.99
518.064
515.308
512.71
582.936
581.327
576.187
570.198
564.249
558.573
553.235
548.245
543.585
539.237
535.18
531.39
527.843
524.514
521.385
518.442
515.669
513.055
585.849
582.035
576.383
570.321
564.405
558.788
553.491
548.521
543.865
539.522
535.462
531.666
528.109
524.77
521.633
518.683
515.903
513.283
589.869
583.207
576.746
570.521
564.602
558.999
553.707
548.737
544.089
539.737
535.673
531.871
528.309
524.962
521.819
518.863
516.073
513.444
592.179
584.087
577.032
570.631
564.698
559.103
553.82
548.852
544.205
539.857
535.791
531.986
528.419
525.076
521.93
518.965
516.175
513.542
594.708
585.012
577.31
570.785
564.811
559.197
553.905
548.936
544.288
539.938
535.871
532.065
528.499
525.154
522.006
519.039
516.244
513.607
595.325
585.199
577.395
570.843
564.854
559.234
553.942
548.976
544.327
539.977
535.908
532.101
528.536
525.19
522.042
519.075
516.276
513.637
596.98
585.4
577.443
570.902
564.891
559.259
553.965
548.997
544.345
539.992
535.921
532.116
528.554
525.212
522.065
519.098
516.297
513.655
454.009
453.952
453.854
453.749
453.671
453.63
453.62
453.605
453.543
453.402
453.178
452.876
452.521
452.137
451.733
451.309
450.869
450.419
449.953
449.47
448.963
448.421
447.863
447.312
446.774
446.249
445.743
445.226
444.662
444.054
443.427
442.81
442.221
441.59
440.813
439.875
438.773
437.524
436.152
434.688
433.162
431.603
430.034
428.474
426.94
425.443
423.994
422.602
421.275
420.018
418.837
417.738
416.726
415.804
414.971
414.222
413.554
412.956
412.415
411.914
411.433
410.946
410.432
409.875
409.283
408.69
408.143
407.665
407.221
406.745
406.156
405.492
404.797
404.014
403.13
402.17
401.133
400.03
398.86
397.612
396.212
394.575
392.771
390.912
389.078
387.338
385.738
384.256
382.799
381.238
379.63
378.172
376.602
374.776
373.227
371.607
369.707
367.802
365.913
363.726
361.17
358.406
355.539
352.634
349.725
346.83
343.957
341.117
338.318
335.574
332.901
330.316
327.84
325.49
323.281
321.228
319.339
317.616
316.054
314.64
313.36
312.195
311.125
310.127
309.177
308.246
307.297
306.287
305.166
303.895
302.448
300.814
298.994
297.006
294.876
292.636
290.317
287.939
285.521
283.079
280.625
278.172
275.728
273.296
270.872
268.444
265.999
263.525
261.019
258.482
255.919
253.333
250.722
248.075
245.381
242.621
239.767
236.801
233.755
230.687
227.634
224.602
221.573
218.53
215.467
212.385
209.291
206.19
203.085
199.978
196.867
193.749
190.622
187.483
184.332
181.168
177.995
174.815
171.646
168.486
453.955
453.876
453.746
453.608
453.497
453.445
453.444
453.46
453.431
453.324
453.128
452.853
452.517
452.141
451.743
451.333
450.912
450.466
449.991
449.49
448.952
448.358
447.751
447.173
446.624
446.118
445.69
445.293
444.847
444.284
443.548
442.787
442.074
441.322
440.458
439.458
438.317
437.051
435.68
434.23
432.728
431.197
429.658
428.128
426.619
425.144
423.712
422.334
421.017
419.77
418.6
417.513
416.51
415.59
414.754
414.002
413.327
412.721
412.173
411.667
411.185
410.708
410.216
409.696
409.156
408.62
408.122
407.675
407.256
406.785
406.194
405.52
404.802
404.005
403.113
402.151
401.119
400.019
398.855
397.628
396.24
394.605
392.801
390.919
389.01
387.168
385.48
383.953
382.48
380.92
379.253
377.746
376.286
374.752
373.267
371.657
369.821
367.839
365.773
363.452
360.861
358.107
355.274
352.408
349.536
346.67
343.819
340.992
338.199
335.457
332.782
330.195
327.715
325.364
323.157
321.108
319.222
317.501
315.941
314.532
313.256
312.095
311.027
310.032
309.085
308.158
307.217
306.217
305.11
303.851
302.416
300.79
298.977
296.989
294.86
292.621
290.301
287.923
285.504
283.06
280.604
278.15
275.705
273.274
270.853
268.428
265.985
263.513
261.008
258.472
255.91
253.319
250.694
248.041
245.343
242.583
239.732
236.773
233.738
230.684
227.639
224.609
221.578
218.533
215.467
212.383
209.287
206.185
203.081
199.974
196.864
193.746
190.619
187.48
184.329
181.164
177.99
174.808
171.632
168.458
454.046
453.976
453.86
453.726
453.592
453.5
453.457
453.429
453.362
453.229
453.023
452.755
452.442
452.104
451.751
451.387
451.013
450.607
450.132
449.576
448.964
448.33
447.714
447.13
446.563
446.045
445.57
445.062
444.514
443.921
443.246
442.482
441.649
440.744
439.756
438.677
437.505
436.246
434.911
433.515
432.072
430.599
429.11
427.619
426.141
424.688
423.271
421.903
420.592
419.348
418.176
417.083
416.072
415.151
414.318
413.567
412.892
412.285
411.737
411.235
410.767
410.321
409.885
409.451
409.016
408.594
408.199
407.824
407.417
406.91
406.271
405.538
404.756
403.93
403.037
402.074
401.05
399.968
398.822
397.595
396.125
394.361
392.487
390.648
388.871
387.116
385.41
383.774
382.167
380.524
378.754
377.257
376.158
374.981
373.515
371.752
369.726
367.569
365.282
362.841
360.266
357.592
354.853
352.071
349.263
346.44
343.616
340.803
338.016
335.272
332.59
329.992
327.502
325.139
322.924
320.869
318.983
317.265
315.712
314.31
313.043
311.889
310.827
309.835
308.892
307.972
307.043
306.064
304.982
303.75
302.337
300.73
298.929
296.947
294.821
292.583
290.263
287.884
285.464
283.017
280.558
278.101
275.656
273.228
270.81
268.389
265.951
263.481
260.976
258.438
255.873
253.283
250.667
248.006
245.295
242.523
239.673
236.736
233.732
230.698
227.661
224.629
221.594
218.543
215.471
212.382
209.282
206.179
203.074
199.967
196.857
193.74
190.613
187.474
184.321
181.155
177.978
174.79
171.604
168.411
454.498
454.481
454.442
454.323
454.139
453.944
453.756
453.576
453.381
453.156
452.899
452.622
452.338
452.057
451.785
451.516
451.235
450.88
450.433
449.906
449.29
448.609
447.96
447.352
446.763
446.19
445.621
445.019
444.365
443.653
442.879
442.039
441.131
440.153
439.103
437.978
436.782
435.517
434.191
432.812
431.391
429.94
428.472
426.999
425.535
424.092
422.681
421.316
420.007
418.764
417.598
416.514
415.518
414.603
413.774
413.027
412.359
411.76
411.221
410.732
410.282
409.862
409.466
409.09
408.729
408.377
408.032
407.675
407.262
406.747
406.108
405.377
404.595
403.766
402.869
401.904
400.875
399.778
398.6
397.325
395.785
393.922
392.057
390.349
388.778
387.223
385.53
383.714
381.899
380.06
378.204
376.764
375.835
374.698
373.214
371.414
369.31
367.043
364.678
362.224
359.687
357.079
354.41
351.693
348.937
346.153
343.353
340.55
337.763
335.01
332.314
329.7
327.191
324.812
322.583
320.521
318.631
316.917
315.373
313.984
312.729
311.585
310.53
309.543
308.603
307.69
306.777
305.826
304.781
303.587
302.209
300.631
298.849
296.88
294.759
292.524
290.205
287.826
285.404
282.953
280.489
278.026
275.579
273.151
270.738
268.325
265.892
263.426
260.922
258.383
255.817
253.224
250.601
247.943
245.239
242.471
239.624
236.699
233.714
230.698
227.673
224.646
221.608
218.55
215.471
212.376
209.273
206.168
203.063
199.957
196.848
193.731
190.605
187.465
184.311
181.143
177.961
174.767
171.568
168.354
454.929
454.928
454.9
454.783
454.571
454.304
454.023
453.744
453.469
453.194
452.923
452.66
452.41
452.181
451.961
451.742
451.488
451.154
450.719
450.206
449.643
449.032
448.393
447.743
447.088
446.424
445.74
445.022
444.258
443.443
442.575
441.652
440.672
439.631
438.527
437.357
436.123
434.828
433.479
432.084
430.652
429.195
427.723
426.247
424.779
423.329
421.911
420.537
419.219
417.969
416.798
415.715
414.723
413.823
413.013
412.29
411.648
411.078
410.571
410.116
409.701
409.32
408.966
408.633
408.318
408.015
407.713
407.381
406.982
406.48
405.868
405.169
404.402
403.568
402.664
401.688
400.635
399.493
398.244
396.909
395.346
393.506
391.695
390.124
388.703
387.232
385.502
383.588
381.729
379.872
378.053
376.586
375.534
374.275
372.727
370.839
368.692
366.415
364.057
361.629
359.134
356.578
353.965
351.299
348.585
345.83
343.046
340.247
337.453
334.685
331.968
329.328
326.794
324.392
322.144
320.069
318.176
316.468
314.937
313.565
312.328
311.199
310.154
309.17
308.231
307.321
306.423
305.503
304.504
303.361
302.029
300.491
298.735
296.786
294.674
292.443
290.128
287.75
285.326
282.87
280.396
277.925
275.471
273.043
270.636
268.23
265.805
263.343
260.84
258.3
255.731
253.138
250.516
247.856
245.149
242.386
239.554
236.648
233.683
230.684
227.672
224.65
221.611
218.548
215.462
212.362
209.257
206.151
203.047
199.943
196.835
193.72
190.594
187.454
184.299
181.128
177.942
174.739
171.526
168.293
455.285
455.286
455.233
455.081
454.84
454.562
454.279
454.003
453.737
453.483
453.239
453.002
452.777
452.562
452.347
452.119
451.831
451.478
451.058
450.569
450.021
449.42
448.776
448.095
447.383
446.641
445.866
445.054
444.2
443.299
442.35
441.348
440.291
439.175
437.998
436.761
435.465
434.118
432.724
431.294
429.836
428.357
426.867
425.373
423.886
422.417
420.979
419.585
418.249
416.985
415.804
414.714
413.721
412.83
412.041
411.348
410.744
410.216
409.755
409.348
408.983
408.653
408.348
408.062
407.789
407.524
407.253
406.952
406.586
406.124
405.557
404.895
404.152
403.331
402.431
401.45
400.384
399.225
397.955
396.596
395.079
393.361
391.652
390.193
388.786
387.232
385.383
383.403
381.597
379.943
378.222
376.672
375.329
373.886
372.197
370.228
368.07
365.81
363.475
361.076
358.619
356.107
353.54
350.916
348.234
345.5
342.724
339.922
337.114
334.323
331.577
328.904
326.336
323.904
321.631
319.538
317.642
315.943
314.428
313.08
311.868
310.76
309.726
308.745
307.801
306.887
305.995
305.103
304.154
303.071
301.795
300.303
298.587
296.662
294.565
292.343
290.033
287.659
285.235
282.771
280.286
277.801
275.336
272.904
270.501
268.105
265.689
263.232
260.729
258.188
255.617
253.024
250.404
247.744
245.032
242.27
239.447
236.564
233.626
230.65
227.652
224.636
221.596
218.528
215.438
212.336
209.23
206.126
203.025
199.924
196.819
193.706
190.581
187.441
184.285
181.111
177.919
174.71
171.483
168.231
455.821
455.765
455.646
455.445
455.193
454.923
454.651
454.388
454.14
453.908
453.694
453.487
453.277
453.063
452.833
452.563
452.242
451.869
451.437
450.943
450.387
449.772
449.106
448.393
447.637
446.841
446.002
445.121
444.193
443.217
442.187
441.102
439.958
438.753
437.488
436.167
434.796
433.385
431.941
430.472
428.985
427.483
425.97
424.452
422.938
421.439
419.97
418.546
417.183
415.897
414.701
413.603
412.615
411.745
410.987
410.335
409.775
409.296
408.881
408.518
408.194
407.899
407.626
407.371
407.131
406.899
406.662
406.397
406.074
405.665
405.156
404.547
403.843
403.05
402.169
401.202
400.146
398.997
397.747
396.4
394.962
393.356
391.808
390.324
388.83
387.136
385.173
383.194
381.475
379.907
378.303
376.734
375.22
373.586
371.747
369.707
367.539
365.285
362.964
360.588
358.164
355.69
353.162
350.57
347.913
345.191
342.415
339.602
336.772
333.95
331.164
328.448
325.836
323.364
321.061
318.95
317.05
315.361
313.869
312.552
311.374
310.296
309.281
308.305
307.354
306.425
305.525
304.648
303.744
302.722
301.506
300.069
298.399
296.507
294.43
292.221
289.922
287.556
285.132
282.66
280.159
277.655
275.173
272.731
270.329
267.942
265.538
263.088
260.586
258.041
255.467
252.873
250.256
247.601
244.895
242.119
239.297
236.43
233.523
230.58
227.603
224.596
221.557
218.489
215.398
212.297
209.193
206.093
202.996
199.9
196.799
193.69
190.566
187.427
184.269
181.092
177.895
174.678
171.439
168.171
456.536
456.411
456.186
455.946
455.689
455.425
455.162
454.911
454.674
454.457
454.255
454.057
453.855
453.638
453.383
453.081
452.731
452.329
451.869
451.35
450.77
450.131
449.438
448.694
447.901
447.06
446.17
445.228
444.233
443.181
442.07
440.896
439.66
438.362
437.008
435.608
434.171
432.709
431.23
429.736
428.229
426.705
425.166
423.615
422.06
420.513
418.992
417.516
416.105
414.78
413.557
412.452
411.474
410.627
409.906
409.303
408.803
408.389
408.041
407.739
407.465
407.204
406.95
406.699
406.454
406.219
405.989
405.749
405.47
405.123
404.682
404.137
403.486
402.735
401.888
400.949
399.919
398.797
397.583
396.277
394.89
393.391
391.931
390.401
388.835
387.061
385.068
383.125
381.466
379.971
378.412
376.829
375.188
373.394
371.427
369.323
367.13
364.866
362.548
360.188
357.79
355.348
352.851
350.285
347.642
344.922
342.137
339.303
336.442
333.579
330.742
327.968
325.3
322.777
320.435
318.304
316.398
314.721
313.259
311.983
310.853
309.821
308.84
307.879
306.925
305.977
305.055
304.172
303.295
302.327
301.171
299.79
298.171
296.319
294.269
292.079
289.795
287.441
285.021
282.541
280.021
277.49
274.982
272.522
270.114
267.736
265.345
262.904
260.404
257.855
255.274
252.677
250.063
247.413
244.706
241.923
239.102
236.241
233.36
230.455
227.512
224.524
221.494
218.429
215.342
212.245
209.146
206.052
202.962
199.872
196.777
193.671
190.55
187.411
184.252
181.072
177.87
174.645
171.395
168.113
457.149
457.013
456.787
456.567
456.333
456.09
455.847
455.615
455.395
455.192
454.998
454.794
454.572
454.322
454.031
453.695
453.31
452.871
452.377
451.825
451.214
450.547
449.824
449.047
448.216
447.33
446.386
445.384
444.32
443.192
441.999
440.741
439.421
438.046
436.625
435.172
433.697
432.209
430.71
429.197
427.664
426.106
424.52
422.909
421.282
419.653
418.045
416.48
414.986
413.591
412.32
411.194
410.218
409.39
408.712
408.176
407.762
407.446
407.199
406.993
406.8
406.602
406.386
406.149
405.892
405.625
405.361
405.104
404.839
404.537
404.162
403.69
403.107
402.415
401.617
400.72
399.728
398.646
397.478
396.226
394.89
393.488
392.037
390.523
388.933
387.167
385.207
383.31
381.658
380.16
378.611
376.994
375.241
373.313
371.243
369.079
366.847
364.562
362.239
359.888
357.509
355.091
352.618
350.069
347.432
344.704
341.898
339.034
336.133
333.215
330.31
327.461
324.716
322.125
319.731
317.57
315.654
313.991
312.565
311.344
310.279
309.314
308.39
307.467
306.525
305.566
304.617
303.71
302.84
301.909
300.801
299.472
297.905
296.099
294.083
291.92
289.658
287.321
284.907
282.419
279.875
277.308
274.761
272.269
269.847
267.475
265.101
262.675
260.183
257.63
255.038
252.429
249.81
247.163
244.457
241.666
238.85
235.992
233.128
230.262
227.365
224.412
221.401
218.348
215.27
212.181
209.09
206.004
202.923
199.841
196.753
193.652
190.534
187.395
184.235
181.052
177.845
174.613
171.352
168.057
457.792
457.69
457.534
457.353
457.147
456.928
456.709
456.496
456.289
456.086
455.879
455.656
455.403
455.115
454.786
454.412
453.987
453.51
452.98
452.393
451.749
451.049
450.292
449.477
448.602
447.666
446.667
445.602
444.471
443.273
442.009
440.684
439.303
437.876
436.416
434.933
433.437
431.93
430.408
428.861
427.277
425.648
423.973
422.255
420.508
418.751
417.01
415.315
413.7
412.201
410.851
409.674
408.684
407.887
407.277
406.838
406.545
406.363
406.257
406.188
406.123
406.033
405.899
405.714
405.475
405.195
404.89
404.581
404.278
403.974
403.635
403.226
402.717
402.096
401.363
400.523
399.584
398.552
397.436
396.241
394.972
393.632
392.218
390.768
389.17
387.507
385.607
383.786
382.128
380.58
378.987
377.284
375.401
373.351
371.193
368.967
366.687
364.373
362.038
359.69
357.323
354.922
352.465
349.925
347.285
344.539
341.703
338.8
335.845
332.857
329.865
326.918
324.075
321.396
318.932
316.726
314.794
313.146
311.763
310.606
309.62
308.742
307.902
307.043
306.138
305.184
304.214
303.277
302.402
301.49
300.414
299.127
297.609
295.852
293.878
291.748
289.514
287.197
284.794
282.298
279.724
277.112
274.512
271.972
269.521
267.15
264.799
262.402
259.927
257.374
254.764
252.13
249.49
246.836
244.131
241.319
238.522
235.669
232.823
229.994
227.151
224.249
221.275
218.245
215.182
212.106
209.026
205.951
202.88
199.807
196.727
193.631
190.516
187.379
184.217
181.031
177.82
174.581
171.311
168.004
458.651
458.581
458.465
458.314
458.137
457.93
457.731
457.527
457.321
457.111
456.884
456.629
456.339
456.013
455.646
455.233
454.769
454.255
453.689
453.067
452.389
451.653
450.857
449.999
449.076
448.087
447.03
445.906
444.715
443.459
442.142
440.77
439.35
437.893
436.409
434.906
433.386
431.846
430.277
428.665
426.997
425.265
423.468
421.613
419.715
417.8
415.898
414.046
412.287
410.666
409.224
407.992
406.988
406.218
405.678
405.346
405.189
405.163
405.221
405.314
405.399
405.443
405.421
405.322
405.145
404.894
404.583
404.236
403.877
403.523
403.17
402.788
402.337
401.79
401.131
400.359
399.483
398.511
397.453
396.317
395.109
393.838
392.492
391.087
389.574
387.994
386.281
384.557
382.896
381.275
379.583
377.734
375.69
373.515
371.268
368.973
366.641
364.292
361.939
359.587
357.226
354.834
352.385
349.849
347.199
344.43
341.556
338.603
335.582
332.505
329.407
326.344
323.386
320.603
318.057
315.793
313.842
312.209
310.872
309.784
308.884
308.101
307.361
306.59
305.745
304.816
303.84
302.885
301.988
301.08
300.029
298.775
297.299
295.59
293.663
291.572
289.368
287.073
284.683
282.181
279.574
276.908
274.241
271.631
269.127
266.749
264.439
262.096
259.655
257.099
254.456
251.778
249.097
246.418
243.716
240.98
238.099
235.251
232.435
229.652
226.868
224.031
221.111
218.118
215.08
212.022
208.957
205.894
202.835
199.773
196.701
193.611
190.5
187.363
184.201
181.011
177.795
174.549
171.271
167.955
459.726
459.67
459.574
459.442
459.28
459.097
458.903
458.699
458.485
458.254
457.998
457.705
457.376
457.012
456.61
456.158
455.656
455.108
454.508
453.852
453.14
452.366
451.529
450.625
449.652
448.609
447.497
446.319
445.078
443.778
442.422
441.019
439.574
438.095
436.59
435.06
433.504
431.914
430.278
428.582
426.813
424.964
423.034
421.032
418.976
416.892
414.815
412.789
410.865
409.1
407.549
406.25
405.226
404.481
404.011
403.793
403.785
403.93
404.167
404.436
404.684
404.871
404.968
404.963
404.854
404.653
404.375
404.03
403.639
403.231
402.827
402.425
401.999
401.509
400.923
400.227
399.421
398.515
397.519
396.444
395.296
394.093
392.823
391.475
390.084
388.599
387.064
385.475
383.855
382.174
380.346
378.31
376.089
373.787
371.449
369.08
366.692
364.305
361.93
359.568
357.206
354.817
352.371
349.832
347.171
344.376
341.46
338.449
335.351
332.173
328.958
325.771
322.688
319.792
317.155
314.832
312.853
311.23
309.938
308.923
308.108
307.418
306.779
306.109
305.344
304.456
303.491
302.529
301.611
300.7
299.667
298.439
296.997
295.334
293.453
291.4
289.225
286.953
284.578
282.072
279.43
276.704
273.954
271.239
268.648
266.256
264.009
261.75
259.358
256.794
254.102
251.36
248.619
245.889
243.162
240.398
237.535
234.709
231.949
229.231
226.517
223.756
220.906
217.966
214.964
211.929
208.883
205.836
202.79
199.739
196.675
193.592
190.484
187.349
184.185
180.993
177.772
174.52
171.234
167.908
460.992
460.942
460.853
460.729
460.574
460.395
460.197
459.982
459.749
459.494
459.206
458.876
458.508
458.108
457.672
457.185
456.648
456.068
455.438
454.751
454.004
453.194
452.315
451.364
450.341
449.246
448.083
446.857
445.574
444.238
442.853
441.425
439.959
438.459
436.927
435.362
433.76
432.11
430.4
428.615
426.744
424.781
422.723
420.579
418.365
416.109
413.852
411.644
409.548
407.631
405.959
404.581
403.523
402.799
402.401
402.298
402.439
402.757
403.177
403.625
404.039
404.372
404.591
404.68
404.635
404.473
404.222
403.903
403.521
403.087
402.633
402.181
401.736
401.273
400.746
400.122
399.389
398.549
397.616
396.601
395.515
394.364
393.169
391.899
390.583
389.225
387.81
386.354
384.796
383.069
381.115
378.913
376.531
374.124
371.7
369.263
366.822
364.395
361.992
359.616
357.247
354.857
352.41
349.869
347.196
344.378
341.419
338.346
335.168
331.886
328.553
325.24
322.021
318.992
316.245
313.852
311.833
310.218
308.978
308.047
307.329
306.731
306.186
305.615
304.936
304.109
303.171
302.21
301.277
300.361
299.344
298.139
296.726
295.104
293.265
291.244
289.091
286.839
284.482
281.977
279.304
276.513
273.655
270.796
268.083
265.669
263.498
261.332
258.993
256.415
253.659
250.838
248.016
245.204
242.424
239.647
236.808
234.017
231.343
228.725
226.102
223.429
220.662
217.789
214.834
211.83
208.806
205.778
202.747
199.707
196.652
193.575
190.47
187.335
184.171
180.976
177.75
174.492
171.199
167.865
462.428
462.378
462.289
462.163
462.003
461.815
461.603
461.368
461.109
460.823
460.501
460.136
459.731
459.298
458.831
458.311
457.743
457.133
456.475
455.76
454.984
454.14
453.221
452.225
451.153
450.008
448.796
447.526
446.204
444.835
443.423
441.971
440.481
438.955
437.392
435.789
434.138
432.428
430.648
428.785
426.827
424.767
422.604
420.342
417.999
415.604
413.201
410.851
408.623
406.593
404.834
403.4
402.315
401.596
401.236
401.206
401.451
401.895
402.449
403.031
403.57
404.014
404.33
404.499
404.514
404.38
404.137
403.827
403.465
403.045
402.571
402.07
401.575
401.096
400.603
400.039
399.374
398.601
397.728
396.768
395.737
394.637
393.486
392.29
391.028
389.751
388.416
387.034
385.536
383.799
381.764
379.442
376.973
374.482
371.99
369.496
367.008
364.542
362.111
359.714
357.335
354.94
352.491
349.948
347.27
344.434
341.437
338.305
335.048
331.671
328.223
324.785
321.419
318.24
315.364
312.88
310.813
309.204
308.019
307.183
306.575
306.075
305.619
305.132
304.537
303.78
302.881
301.93
300.989
300.067
299.066
297.886
296.498
294.909
293.106
291.107
288.969
286.736
284.401
281.903
279.206
276.345
273.356
270.318
267.46
265.011
262.906
260.818
258.518
255.921
253.09
250.169
247.242
244.308
241.427
238.632
235.857
233.144
230.596
228.125
225.627
223.058
220.385
217.591
214.693
211.728
208.731
205.722
202.707
199.68
196.633
193.561
190.459
187.325
184.158
180.96
177.73
174.467
171.167
167.826
464.028
463.974
463.877
463.741
463.566
463.358
463.12
462.855
462.563
462.241
461.884
461.485
461.047
460.58
460.084
459.536
458.938
458.301
457.618
456.877
456.076
455.208
454.255
453.218
452.099
450.904
449.643
448.327
446.964
445.561
444.119
442.639
441.122
439.566
437.97
436.327
434.63
432.87
431.035
429.113
427.096
424.975
422.747
420.418
418.002
415.531
413.05
410.625
408.33
406.242
404.435
402.963
401.857
401.131
400.782
400.779
401.066
401.566
402.18
402.816
403.403
403.888
404.239
404.441
404.49
404.383
404.14
403.814
403.451
403.055
402.595
402.07
401.522
400.998
400.498
399.971
399.366
398.656
397.838
396.927
395.935
394.879
393.758
392.599
391.39
390.131
388.84
387.481
386.02
384.288
382.233
379.873
377.362
374.824
372.288
369.755
367.231
364.732
362.271
359.851
357.455
355.052
352.601
350.059
347.383
344.54
341.519
338.339
335.016
331.555
328.004
324.443
320.947
317.633
314.627
312.017
309.92
308.298
307.147
306.392
305.894
305.496
305.113
304.69
304.166
303.48
302.627
301.693
300.75
299.823
298.835
297.68
296.313
294.748
292.972
290.99
288.862
286.644
284.333
281.853
279.143
276.213
273.083
269.855
266.834
264.325
262.26
260.223
257.93
255.301
252.384
249.328
246.257
243.18
240.161
237.309
234.608
232.042
229.684
227.42
225.092
222.65
220.083
217.378
214.547
211.627
208.661
205.673
202.674
199.658
196.619
193.551
190.451
187.316
184.148
180.947
177.713
174.444
171.138
167.789
465.862
465.799
465.688
465.53
465.328
465.087
464.811
464.505
464.169
463.805
463.408
462.973
462.5
461.998
461.47
460.898
460.272
459.607
458.899
458.135
457.302
456.444
455.456
454.383
453.221
451.978
450.664
449.295
447.882
446.434
444.952
443.437
441.887
440.297
438.665
436.985
435.249
433.45
431.578
429.623
427.579
425.438
423.198
420.862
418.445
415.976
413.5
411.08
408.788
406.701
404.887
403.402
402.275
401.528
401.152
401.12
401.376
401.843
402.427
403.032
403.585
404.041
404.365
404.54
404.573
404.472
404.231
403.881
403.493
403.101
402.669
402.147
401.561
400.978
400.442
399.924
399.36
398.701
397.932
397.061
396.101
395.067
393.973
392.82
391.629
390.384
389.082
387.709
386.232
384.535
382.519
380.186
377.685
375.137
372.583
370.029
367.484
364.959
362.47
360.022
357.603
355.187
352.732
350.194
347.528
344.694
341.669
338.462
335.093
331.572
327.942
324.283
320.681
317.258
314.149
311.462
309.274
307.609
306.456
305.745
305.329
305.023
304.702
304.321
303.848
303.222
302.414
301.5
300.559
299.626
298.645
297.512
296.162
294.61
292.855
290.89
288.769
286.56
284.272
281.821
279.115
276.133
272.881
269.483
266.298
263.698
261.623
259.581
257.242
254.541
251.523
248.301
245.024
241.758
238.591
235.672
233.04
230.669
228.576
226.594
224.496
222.213
219.763
217.154
214.398
211.532
208.6
205.634
202.649
199.644
196.611
193.546
190.447
187.311
184.141
180.936
177.698
174.424
171.112
167.757
467.873
467.797
467.663
467.472
467.23
466.943
466.618
466.259
465.871
465.456
465.013
464.537
464.025
463.485
462.92
462.324
461.676
460.986
460.26
459.484
458.648
457.744
456.751
455.662
454.475
453.194
451.831
450.404
448.93
447.42
445.884
444.321
442.728
441.101
439.435
437.722
435.958
434.136
432.249
430.292
428.258
426.144
423.948
421.674
419.333
416.95
414.565
412.233
410.019
407.991
406.211
404.726
403.581
402.79
402.351
402.233
402.383
402.728
403.184
403.664
404.099
404.452
404.698
404.803
404.774
404.637
404.39
404.025
403.603
403.193
402.777
402.274
401.665
401.027
400.438
399.904
399.36
398.735
397.998
397.152
396.211
395.187
394.096
392.944
391.736
390.479
389.152
387.748
386.232
384.547
382.603
380.364
377.923
375.399
372.85
370.296
367.745
365.207
362.696
360.219
357.773
355.337
352.873
350.34
347.69
344.881
341.877
338.675
335.294
331.749
328.082
324.369
320.702
317.206
314.021
311.26
308.993
307.273
306.085
305.365
304.979
304.725
304.441
304.073
303.617
303.028
302.257
301.359
300.421
299.481
298.499
297.378
296.04
294.492
292.752
290.804
288.687
286.476
284.203
281.79
279.116
276.121
272.806
269.306
265.998
263.28
261.106
258.965
256.51
253.68
250.515
247.089
243.548
240.03
236.694
233.724
231.179
229.037
227.278
225.653
223.846
221.757
219.439
216.93
214.253
211.445
208.55
205.606
202.634
199.636
196.609
193.546
190.447
187.31
184.136
180.928
177.685
174.406
171.088
167.728
469.892
469.799
469.634
469.402
469.111
468.771
468.39
467.974
467.526
467.055
466.559
466.036
465.479
464.896
464.293
463.667
463.004
462.298
461.553
460.766
459.925
459.015
458.019
456.925
455.727
454.424
453.025
451.547
450.01
448.433
446.83
445.205
443.56
441.889
440.187
438.447
436.664
434.832
432.947
431.007
429.008
426.95
424.832
422.657
420.435
418.186
415.939
413.739
411.64
409.701
407.977
406.517
405.348
404.501
403.976
403.739
403.743
403.92
404.199
404.51
404.79
405.004
405.132
405.149
405.044
404.85
404.58
404.208
403.763
403.326
402.906
402.413
401.79
401.109
400.469
399.907
399.363
398.756
398.037
397.201
396.263
395.239
394.138
392.975
391.746
390.459
389.104
387.657
386.111
384.423
382.536
380.409
378.065
375.597
373.074
370.533
367.988
365.449
362.926
360.428
357.954
355.494
353.017
350.485
347.852
345.076
342.114
338.948
335.591
332.062
328.401
324.68
320.995
317.47
314.243
311.427