/*--------------------------------*- C++ -*----------------------------------*\
  =========                 |
  \\      /  F ield         | OpenFOAM: The Open Source CFD Toolbox
   \\    /   O peration     | Website:  https://openfoam.org
    \\  /    A nd           | Version:  7
     \\/     M anipulation  |
\*---------------------------------------------------------------------------*/
FoamFile
{
    version     2.0;
    format      ascii;
    class       surfaceScalarField;
    location    "0.108";
    object      phi_0;
}
// * * * * * * * * * * * * * * * * * * * * * * * * * * * * * * * * * * * * * //

dimensions      [0 3 -1 0 0 0 0];

internalField   nonuniform List<scalar> 
24170
(
1.42984e-06
1.97294e-07
1.27929e-06
1.50555e-07
1.13095e-06
1.48337e-07
1.00416e-06
1.2679e-07
8.88805e-07
1.15353e-07
7.77546e-07
1.11259e-07
6.72524e-07
1.05022e-07
5.76538e-07
9.59857e-08
4.88893e-07
8.76456e-08
4.08683e-07
8.02097e-08
3.36655e-07
7.20279e-08
2.7391e-07
6.27448e-08
2.20742e-07
5.31681e-08
1.76582e-07
4.416e-08
1.39166e-07
3.74159e-08
1.06681e-07
3.24851e-08
7.70964e-08
2.95847e-08
2.0543e-08
5.65534e-08
1.68138e-06
2.05529e-07
1.65492e-06
1.77017e-07
1.61568e-06
1.87579e-07
1.57876e-06
1.63705e-07
1.54384e-06
1.5027e-07
1.50165e-06
1.53457e-07
1.44969e-06
1.56976e-07
1.39194e-06
1.53742e-07
1.33236e-06
1.47217e-07
1.27232e-06
1.40256e-07
1.21214e-06
1.32208e-07
1.15167e-06
1.23214e-07
1.09189e-06
1.12942e-07
1.03297e-06
1.03081e-07
9.75628e-07
9.47609e-08
9.1915e-07
8.8964e-08
8.59431e-07
8.93029e-08
8.81779e-08
7.91796e-07
1.81526e-06
2.89487e-07
1.8143e-06
1.77977e-07
1.80804e-06
1.93832e-07
1.78434e-06
1.87412e-07
1.75808e-06
1.76522e-07
1.73719e-06
1.74349e-07
1.71932e-06
1.7485e-07
1.70061e-06
1.72452e-07
1.67991e-06
1.67912e-07
1.65742e-06
1.62753e-07
1.6332e-06
1.56423e-07
1.60759e-06
1.48825e-07
1.58063e-06
1.39903e-07
1.55234e-06
1.31376e-07
1.52219e-06
1.24907e-07
1.49039e-06
1.20766e-07
1.45564e-06
1.24053e-07
1.28397e-07
1.41542e-06
1.98585e-06
3.27234e-07
1.96467e-06
1.99165e-07
1.94098e-06
2.17515e-07
1.91152e-06
2.16873e-07
1.88664e-06
2.01399e-07
1.87092e-06
1.90073e-07
1.86033e-06
1.85446e-07
1.84995e-06
1.82828e-07
1.83869e-06
1.79175e-07
1.82788e-06
1.7356e-07
1.81856e-06
1.65741e-07
1.81103e-06
1.56357e-07
1.8041e-06
1.46828e-07
1.79659e-06
1.38892e-07
1.7871e-06
1.34391e-07
1.77485e-06
1.33016e-07
1.76119e-06
1.37712e-07
1.44475e-07
1.74511e-06
2.11208e-06
3.7726e-07
2.09106e-06
2.20183e-07
2.07442e-06
2.34162e-07
2.04931e-06
2.41986e-07
2.02764e-06
2.23061e-07
2.01628e-06
2.01437e-07
2.01128e-06
1.90442e-07
2.00559e-06
1.88519e-07
1.99565e-06
1.89115e-07
1.98251e-06
1.867e-07
1.96951e-06
1.78748e-07
1.95965e-06
1.66209e-07
1.95375e-06
1.52728e-07
1.95071e-06
1.41936e-07
1.94869e-06
1.36413e-07
1.94578e-06
1.35921e-07
1.94258e-06
1.40915e-07
1.48761e-07
1.93829e-06
2.25415e-06
3.15424e-07
2.24954e-06
2.24787e-07
2.23591e-06
2.47788e-07
2.20956e-06
2.68344e-07
2.18382e-06
2.48801e-07
2.16712e-06
2.18131e-07
2.15714e-06
2.00423e-07
2.14825e-06
1.97411e-07
2.13751e-06
1.99856e-07
2.1258e-06
1.98408e-07
2.1159e-06
1.88651e-07
2.10998e-06
1.7213e-07
2.10836e-06
1.54345e-07
2.10964e-06
1.40657e-07
2.11204e-06
1.34013e-07
2.11384e-06
1.34119e-07
2.11488e-06
1.39874e-07
1.488e-07
2.11484e-06
2.47351e-06
3.3023e-07
2.41082e-06
2.87472e-07
2.3699e-06
2.88709e-07
2.35281e-06
2.85431e-07
2.34458e-06
2.57033e-07
2.33822e-06
2.2449e-07
2.33382e-06
2.04828e-07
2.33313e-06
1.98104e-07
2.33593e-06
1.97054e-07
2.33982e-06
1.94521e-07
2.34186e-06
1.86611e-07
2.34016e-06
1.73827e-07
2.33457e-06
1.59929e-07
2.32613e-06
1.49102e-07
2.31656e-06
1.43582e-07
2.30712e-06
1.43561e-07
2.29899e-06
1.47999e-07
1.55367e-07
2.29243e-06
2.60112e-06
3.69163e-07
2.55822e-06
3.30376e-07
2.5339e-06
3.13023e-07
2.53727e-06
2.82062e-07
2.54709e-06
2.4721e-07
2.54738e-06
2.24203e-07
2.5395e-06
2.12706e-07
2.53314e-06
2.04466e-07
2.53395e-06
1.96246e-07
2.53967e-06
1.88795e-07
2.5439e-06
1.82386e-07
2.54144e-06
1.76281e-07
2.53123e-06
1.70142e-07
2.51584e-06
1.64489e-07
2.49932e-06
1.60103e-07
2.48487e-06
1.58014e-07
2.47432e-06
1.58545e-07
1.6222e-07
2.46747e-06
2.77211e-06
4.74058e-07
2.73892e-06
3.63565e-07
2.74152e-06
3.10427e-07
2.74904e-06
2.74541e-07
2.74341e-06
2.52843e-07
2.72429e-06
2.43322e-07
2.70369e-06
2.33311e-07
2.69209e-06
2.16058e-07
2.69156e-06
1.96785e-07
2.69723e-06
1.83116e-07
2.70248e-06
1.7714e-07
2.70297e-06
1.75788e-07
2.69807e-06
1.75045e-07
2.68995e-06
1.7261e-07
2.68152e-06
1.68527e-07
2.67503e-06
1.64512e-07
2.67139e-06
1.62181e-07
1.63498e-07
2.67011e-06
2.97675e-06
4.9483e-07
2.96924e-06
3.71074e-07
2.97241e-06
3.07259e-07
2.96648e-06
2.80475e-07
2.95154e-06
2.67777e-07
2.93525e-06
2.59618e-07
2.92432e-06
2.44233e-07
2.91931e-06
2.21074e-07
2.9166e-06
1.99491e-07
2.91285e-06
1.86868e-07
2.90701e-06
1.82982e-07
2.89994e-06
1.82858e-07
2.89326e-06
1.81722e-07
2.88829e-06
1.77578e-07
2.88555e-06
1.71271e-07
2.88474e-06
1.65322e-07
2.88511e-06
1.61811e-07
1.62607e-07
2.886e-06
3.19094e-06
5.10778e-07
3.20317e-06
3.58844e-07
3.17967e-06
3.30763e-07
3.15105e-06
3.09096e-07
3.13337e-06
2.85451e-07
3.12479e-06
2.68203e-07
3.12029e-06
2.48733e-07
3.11743e-06
2.23929e-07
3.11596e-06
2.00961e-07
3.11607e-06
1.86761e-07
3.1175e-06
1.81555e-07
3.11961e-06
1.80743e-07
3.12172e-06
1.79615e-07
3.12307e-06
1.76225e-07
3.12308e-06
1.7126e-07
3.12143e-06
1.66979e-07
3.1183e-06
1.64935e-07
1.666e-07
3.11431e-06
2.88678e-06
5.07489e-07
2.87886e-06
3.6676e-07
2.88235e-06
3.27275e-07
2.87071e-06
3.20735e-07
2.84751e-06
3.08658e-07
2.82685e-06
2.88854e-07
2.81369e-06
2.61893e-07
2.80491e-06
2.32711e-07
2.79739e-06
2.08482e-07
2.79126e-06
1.92897e-07
2.78818e-06
1.84634e-07
2.78904e-06
1.79883e-07
2.79317e-06
1.75486e-07
2.79905e-06
1.70344e-07
2.80508e-06
1.65223e-07
2.81029e-06
1.61774e-07
2.81424e-06
1.60985e-07
1.63644e-07
2.81719e-06
3.55653e-06
5.53522e-07
3.52755e-06
3.95741e-07
3.50307e-06
3.51747e-07
3.47069e-06
3.53119e-07
3.44849e-06
3.30855e-07
3.44557e-06
2.91775e-07
3.45337e-06
2.54089e-07
3.45959e-06
2.26491e-07
3.45892e-06
2.09159e-07
3.45363e-06
1.98185e-07
3.44869e-06
1.89576e-07
3.44727e-06
1.813e-07
3.44968e-06
1.73076e-07
3.45422e-06
1.65805e-07
3.4589e-06
1.60543e-07
3.46239e-06
1.58282e-07
3.4642e-06
1.59172e-07
1.63326e-07
3.46452e-06
4.30223e-06
4.98972e-07
4.26485e-06
4.33117e-07
4.23805e-06
3.78546e-07
4.23752e-06
3.53652e-07
4.24891e-06
3.19464e-07
4.25778e-06
2.82909e-07
4.25705e-06
2.54821e-07
4.24876e-06
2.34774e-07
4.23938e-06
2.18537e-07
4.23416e-06
2.03407e-07
4.2345e-06
1.8924e-07
4.23858e-06
1.77223e-07
4.24352e-06
1.68136e-07
4.2469e-06
1.62423e-07
4.24772e-06
1.59718e-07
4.246e-06
1.60002e-07
4.24294e-06
1.62237e-07
1.65703e-07
4.24056e-06
5.1679e-06
5.29409e-07
5.14751e-06
4.53517e-07
5.11851e-06
4.07537e-07
5.10732e-06
3.64851e-07
5.1108e-06
3.15977e-07
5.12803e-06
2.65678e-07
5.1558e-06
2.27057e-07
5.18625e-06
2.04318e-07
5.21199e-06
1.92802e-07
5.22928e-06
1.86116e-07
5.23761e-06
1.80905e-07
5.2382e-06
1.76639e-07
5.23284e-06
1.73494e-07
5.22376e-06
1.71506e-07
5.21358e-06
1.69892e-07
5.20477e-06
1.68817e-07
5.19957e-06
1.67434e-07
1.66965e-07
5.19831e-06
6.37713e-06
6.10136e-07
6.31693e-06
5.13712e-07
6.27059e-06
4.53883e-07
6.2381e-06
3.9734e-07
6.23647e-06
3.17604e-07
6.26844e-06
2.33705e-07
6.31846e-06
1.77039e-07
6.36403e-06
1.58746e-07
6.38939e-06
1.67449e-07
6.39128e-06
1.84216e-07
6.37657e-06
1.95617e-07
6.35603e-06
1.9718e-07
6.33889e-06
1.90634e-07
6.33019e-06
1.80206e-07
6.3308e-06
1.69282e-07
6.33939e-06
1.6023e-07
6.35395e-06
1.52878e-07
1.47654e-07
6.37326e-06
7.76196e-06
4.65516e-07
7.80203e-06
4.73641e-07
7.79082e-06
4.65094e-07
7.77552e-06
4.12643e-07
7.75664e-06
3.36482e-07
7.73529e-06
2.55055e-07
7.71427e-06
1.98061e-07
7.696e-06
1.77018e-07
7.68309e-06
1.80352e-07
7.67851e-06
1.88798e-07
7.68471e-06
1.89418e-07
7.70255e-06
1.79339e-07
7.73071e-06
1.62478e-07
7.76596e-06
1.44949e-07
7.80386e-06
1.31382e-07
7.84037e-06
1.23728e-07
7.87178e-06
1.21463e-07
1.23577e-07
7.89586e-06
9.36337e-06
5.97914e-07
9.29125e-06
5.45755e-07
9.31515e-06
4.41202e-07
9.35561e-06
3.72174e-07
9.38576e-06
3.06334e-07
9.39506e-06
2.45758e-07
9.386e-06
2.07121e-07
9.37273e-06
1.90287e-07
9.37076e-06
1.82327e-07
9.38858e-06
1.70977e-07
9.42609e-06
1.51905e-07
9.47685e-06
1.28581e-07
9.53216e-06
1.07169e-07
9.5845e-06
9.26015e-08
9.62929e-06
8.6596e-08
9.66502e-06
8.80021e-08
9.69215e-06
9.43281e-08
1.02612e-07
9.71312e-06
1.11664e-05
5.42194e-07
1.13031e-05
4.09104e-07
1.14543e-05
2.89989e-07
1.15848e-05
2.41648e-07
1.16734e-05
2.17709e-07
1.17173e-05
2.01901e-07
1.17325e-05
1.91886e-07
1.17385e-05
1.84348e-07
1.17476e-05
1.7323e-07
1.17625e-05
1.56056e-07
1.17802e-05
1.34245e-07
1.17964e-05
1.12353e-07
1.18085e-05
9.5082e-08
1.18157e-05
8.53227e-08
1.18188e-05
8.35367e-08
1.18188e-05
8.79687e-08
1.1817e-05
9.61559e-08
1.05356e-07
1.18143e-05
8.23074e-06
4.32418e-07
8.2991e-06
3.40746e-07
8.32949e-06
2.59594e-07
8.35681e-06
2.14329e-07
8.38671e-06
1.87811e-07
8.42197e-06
1.66636e-07
8.46383e-06
1.50025e-07
8.51181e-06
1.36375e-07
8.55972e-06
1.25321e-07
8.59905e-06
1.16726e-07
8.62398e-06
1.09313e-07
8.63471e-06
1.01618e-07
8.63668e-06
9.3114e-08
8.63752e-06
8.44866e-08
8.64359e-06
7.74675e-08
8.65791e-06
7.36413e-08
8.68078e-06
7.3294e-08
7.64594e-08
8.70967e-06
7.21852e-06
4.30486e-07
7.25319e-06
3.06073e-07
7.30639e-06
2.064e-07
7.35518e-06
1.65533e-07
7.38991e-06
1.53087e-07
7.41201e-06
1.44529e-07
7.43064e-06
1.31397e-07
7.45393e-06
1.13088e-07
7.48557e-06
9.36776e-08
7.52468e-06
7.7618e-08
7.56705e-06
6.6939e-08
7.60754e-06
6.11284e-08
7.64227e-06
5.83878e-08
7.66967e-06
5.70836e-08
7.69099e-06
5.61509e-08
7.70895e-06
5.56765e-08
7.72677e-06
5.54752e-08
5.60763e-08
7.74716e-06
6.39492e-06
3.8445e-07
6.43846e-06
2.62533e-07
6.4521e-06
1.92766e-07
6.47145e-06
1.46174e-07
6.50133e-06
1.23208e-07
6.53097e-06
1.14891e-07
6.55515e-06
1.07217e-07
6.57537e-06
9.28685e-08
6.59638e-06
7.26694e-08
6.62144e-06
5.25616e-08
6.64998e-06
3.8391e-08
6.67836e-06
3.27487e-08
6.70234e-06
3.44159e-08
6.71911e-06
4.03111e-08
6.72862e-06
4.66346e-08
6.73322e-06
5.10775e-08
6.73627e-06
5.24268e-08
5.10124e-08
6.74134e-06
5.58407e-06
3.07166e-07
5.5591e-06
2.87504e-07
5.54393e-06
2.07942e-07
5.56875e-06
1.21355e-07
5.62517e-06
6.67853e-08
5.6934e-06
4.66652e-08
5.75447e-06
4.61406e-08
5.79885e-06
4.84914e-08
5.82627e-06
4.52529e-08
5.84047e-06
3.83618e-08
5.84564e-06
3.32152e-08
5.84587e-06
3.2521e-08
5.84504e-06
3.52482e-08
5.8465e-06
3.88513e-08
5.85249e-06
4.06407e-08
5.86388e-06
3.9686e-08
5.88047e-06
3.5835e-08
3.06525e-08
5.90083e-06
4.8606e-06
3.50885e-07
4.9096e-06
2.38509e-07
4.95109e-06
1.66447e-07
4.97013e-06
1.02315e-07
4.97858e-06
5.83381e-08
4.98727e-06
3.7974e-08
5.00223e-06
3.11778e-08
5.02498e-06
2.57487e-08
5.05263e-06
1.75939e-08
5.08045e-06
1.05447e-08
5.1043e-06
9.36851e-09
5.1224e-06
1.44183e-08
5.13546e-06
2.21903e-08
5.14591e-06
2.8403e-08
5.15628e-06
3.02676e-08
5.1682e-06
2.77674e-08
5.18221e-06
2.18208e-08
1.468e-08
5.19819e-06
4.2836e-06
2.84226e-07
4.33192e-06
1.90193e-07
4.37292e-06
1.25445e-07
4.39289e-06
8.23441e-08
4.40105e-06
5.01815e-08
4.40749e-06
3.15263e-08
4.41881e-06
1.98659e-08
4.4361e-06
8.45561e-09
4.45768e-06
-3.98402e-09
4.48026e-06
-1.20339e-08
4.5021e-06
-1.24768e-08
4.52255e-06
-6.02673e-09
4.54143e-06
3.3076e-09
4.55866e-06
1.11721e-08
4.57313e-06
1.57955e-08
4.58437e-06
1.6533e-08
4.59218e-06
1.40067e-08
9.40901e-09
4.59745e-06
3.68503e-06
2.85614e-07
3.74374e-06
1.31474e-07
3.76622e-06
1.02971e-07
3.77849e-06
7.00738e-08
3.8079e-06
2.0771e-08
3.8531e-06
-1.36782e-08
3.90106e-06
-2.80899e-08
3.93875e-06
-2.92391e-08
3.96003e-06
-2.52646e-08
3.96764e-06
-1.96408e-08
3.96831e-06
-1.31419e-08
3.96895e-06
-6.673e-09
3.97383e-06
-1.56936e-09
3.98394e-06
1.06312e-09
3.99861e-06
1.12767e-09
4.01597e-06
-8.25768e-10
4.03425e-06
-4.27648e-09
-8.40277e-09
4.05206e-06
3.2585e-06
1.53461e-07
3.3451e-06
4.48721e-08
3.38148e-06
6.65946e-08
3.40142e-06
5.01316e-08
3.41034e-06
1.18582e-08
3.4196e-06
-2.2942e-08
3.43309e-06
-4.15772e-08
3.4489e-06
-4.50517e-08
3.46264e-06
-3.90012e-08
3.47316e-06
-3.01631e-08
3.48283e-06
-2.28135e-08
3.49471e-06
-1.85557e-08
3.51055e-06
-1.74055e-08
3.52978e-06
-1.81627e-08
3.55025e-06
-1.93484e-08
3.56967e-06
-2.02429e-08
3.5858e-06
-2.04032e-08
-2.04616e-08
3.59785e-06
2.82124e-06
1.27964e-07
2.88267e-06
-1.65537e-08
2.92641e-06
2.28555e-08
2.97001e-06
6.53357e-09
2.99983e-06
-1.79632e-08
3.01438e-06
-3.74896e-08
3.02429e-06
-5.14899e-08
3.03711e-06
-5.78762e-08
3.05331e-06
-5.52006e-08
3.06957e-06
-4.64177e-08
3.08338e-06
-3.66273e-08
3.09464e-06
-2.98138e-08
3.10472e-06
-2.74871e-08
3.11532e-06
-2.87585e-08
3.12739e-06
-3.14198e-08
3.14084e-06
-3.36911e-08
3.1548e-06
-3.43674e-08
-3.37065e-08
3.16805e-06
2.50837e-06
1.21765e-08
2.53477e-06
-4.29466e-08
2.57494e-06
-1.73234e-08
2.61934e-06
-3.7866e-08
2.64765e-06
-4.62658e-08
2.65737e-06
-4.7214e-08
2.65591e-06
-5.00269e-08
2.65124e-06
-5.32034e-08
2.6487e-06
-5.26696e-08
2.6502e-06
-4.79152e-08
2.65483e-06
-4.12568e-08
2.66054e-06
-3.55212e-08
2.6656e-06
-3.25458e-08
2.66927e-06
-3.24312e-08
2.67163e-06
-3.37775e-08
2.67291e-06
-3.49706e-08
2.67327e-06
-3.47263e-08
-3.29898e-08
2.67255e-06
2.16498e-06
2.12203e-06
2.10471e-06
2.06684e-06
2.02057e-06
1.97336e-06
1.92333e-06
1.87013e-06
1.81746e-06
1.76955e-06
1.72829e-06
1.69277e-06
1.66022e-06
1.62779e-06
1.59401e-06
1.55904e-06
1.52432e-06
1.49133e-06
-1.93193e-07
1.93193e-07
-3.92065e-07
1.98872e-07
-5.40341e-07
1.48277e-07
-6.17534e-07
7.71928e-08
-6.07186e-07
-1.03485e-08
-5.11072e-07
-9.61139e-08
-3.38302e-07
-1.7277e-07
-1.1248e-07
-2.25822e-07
1.35602e-07
-2.48082e-07
3.82938e-07
-2.47336e-07
6.04995e-07
-2.22057e-07
7.74931e-07
-1.69936e-07
8.84549e-07
-1.09618e-07
9.40356e-07
-5.58069e-08
9.50377e-07
-1.00215e-08
9.37845e-07
1.25328e-08
9.35955e-07
1.89005e-09
9.57997e-07
-2.20425e-08
1.01109e-06
-5.30882e-08
1.10839e-06
-9.73097e-08
1.23201e-06
-1.23614e-07
1.33197e-06
-9.99662e-08
1.38956e-06
-5.75829e-08
1.41978e-06
-3.02189e-08
1.41101e-06
8.76677e-09
1.33779e-06
7.3218e-08
1.24326e-06
9.45322e-08
1.17685e-06
6.64069e-08
1.1189e-06
5.79524e-08
1.02639e-06
9.25099e-08
8.71741e-07
1.5465e-07
6.07907e-07
2.63834e-07
2.22035e-07
3.85871e-07
-2.16269e-07
4.38305e-07
-6.76181e-07
4.59912e-07
-1.13858e-06
4.62401e-07
-1.58798e-06
4.49392e-07
-2.01398e-06
4.26003e-07
-2.40793e-06
3.9395e-07
-2.76588e-06
3.57955e-07
-3.08696e-06
3.21079e-07
-3.37254e-06
2.85577e-07
-3.62486e-06
2.52323e-07
-3.8465e-06
2.21636e-07
-4.03978e-06
1.93281e-07
-4.20658e-06
1.66805e-07
-4.3482e-06
1.41617e-07
-4.46526e-06
1.17062e-07
-4.55779e-06
9.25249e-08
-4.62527e-06
6.74872e-08
-4.66697e-06
4.16944e-08
-4.68205e-06
1.5084e-08
-4.66959e-06
-1.24654e-08
-4.62877e-06
-4.08186e-08
-4.55883e-06
-6.99358e-08
-4.45812e-06
-1.00712e-07
-4.32484e-06
-1.33281e-07
-4.15743e-06
-1.6741e-07
-3.95482e-06
-2.02608e-07
-3.71718e-06
-2.37638e-07
-3.447e-06
-2.70189e-07
-3.15071e-06
-2.96283e-07
-2.84091e-06
-3.09808e-07
-2.53795e-06
-3.02957e-07
-2.26975e-06
-2.68199e-07
-2.06763e-06
-2.02115e-07
-1.95622e-06
-1.11414e-07
-1.94264e-06
-1.35754e-08
-2.01423e-06
7.15854e-08
-2.11639e-06
1.02158e-07
-2.13741e-06
2.10218e-08
-1.98972e-06
-1.4769e-07
-1.75066e-06
-2.39055e-07
-1.53311e-06
-2.17555e-07
-1.32787e-06
-2.05243e-07
-1.11836e-06
-2.0951e-07
-9.141e-07
-2.04257e-07
-6.9234e-07
-2.2176e-07
-4.39663e-07
-2.52676e-07
-1.50241e-07
-2.89422e-07
1.1984e-07
-2.70081e-07
2.91826e-07
-1.71987e-07
3.62046e-07
-7.02193e-08
3.83708e-07
-2.16624e-08
4.19174e-07
-3.54657e-08
5.42674e-07
-1.235e-07
7.92548e-07
-2.49874e-07
1.11762e-06
-3.25073e-07
1.53043e-06
-4.12811e-07
1.98894e-06
-4.58505e-07
2.05399e-06
-6.50514e-08
1.54502e-06
5.08971e-07
9.73441e-07
5.71577e-07
7.622e-07
2.1124e-07
9.01423e-07
-1.39222e-07
1.07186e-06
-1.70434e-07
9.97978e-07
7.38786e-08
5.95637e-07
4.02341e-07
-2.41841e-08
6.19821e-07
-6.52043e-07
6.27859e-07
-1.2091e-06
5.57054e-07
-1.68343e-06
4.74335e-07
-2.08453e-06
4.01097e-07
-2.42661e-06
3.4208e-07
-2.72279e-06
2.96183e-07
-2.98296e-06
2.6017e-07
-3.21384e-06
2.30878e-07
-3.41948e-06
2.05641e-07
-3.60161e-06
1.82126e-07
-3.76034e-06
1.58731e-07
-3.89487e-06
1.34536e-07
-4.00373e-06
1.08851e-07
-4.08503e-06
8.13076e-08
-4.137e-06
5.19629e-08
-4.1581e-06
2.11073e-08
-4.1478e-06
-1.03007e-08
-4.10615e-06
-4.16548e-08
-4.0333e-06
-7.28455e-08
-3.92967e-06
-1.03637e-07
-3.79597e-06
-1.33698e-07
-3.63312e-06
-1.62843e-07
-3.44193e-06
-1.91192e-07
-3.22286e-06
-2.19076e-07
-2.97599e-06
-2.46865e-07
-2.70127e-06
-2.74724e-07
-2.39908e-06
-3.02187e-07
-2.07151e-06
-3.27571e-07
-1.72371e-06
-3.47795e-07
-1.36442e-06
-3.59295e-07
-1.00453e-06
-3.59886e-07
-6.5483e-07
-3.49702e-07
-3.25269e-07
-3.29561e-07
-2.50749e-08
-3.00194e-07
2.45237e-07
-2.70312e-07
4.81526e-07
-2.36289e-07
6.86336e-07
-2.0481e-07
8.63497e-07
-1.77161e-07
1.01743e-06
-1.53933e-07
1.15262e-06
-1.35194e-07
1.27385e-06
-1.21223e-07
1.38665e-06
-1.128e-07
1.49742e-06
-1.10774e-07
1.61256e-06
-1.15141e-07
1.73666e-06
-1.24094e-07
1.87055e-06
-1.33894e-07
2.01067e-06
-1.40124e-07
2.15037e-06
-1.397e-07
2.28235e-06
-1.31976e-07
2.39984e-06
-1.17488e-07
2.49445e-06
-9.4607e-08
2.55246e-06
-5.80099e-08
2.55752e-06
-5.06258e-09
2.49925e-06
5.82671e-08
2.37582e-06
1.23429e-07
2.18662e-06
1.89202e-07
1.93398e-06
2.5264e-07
1.63616e-06
2.97816e-07
1.33608e-06
3.00087e-07
1.07853e-06
2.57544e-07
8.86986e-07
1.91546e-07
7.60552e-07
1.26434e-07
6.8271e-07
7.78416e-08
6.3467e-07
4.80398e-08
6.02067e-07
3.26035e-08
5.76701e-07
2.53664e-08
5.55402e-07
2.12988e-08
5.37735e-07
1.76669e-08
5.24054e-07
1.36812e-08
5.14342e-07
9.71173e-09
5.0822e-07
6.12167e-09
5.04536e-07
3.68372e-09
5.02627e-07
1.90982e-09
5.00317e-07
2.30925e-09
4.9808e-07
2.23723e-09
4.9147e-07
6.61031e-09
4.84561e-07
6.90919e-09
4.65403e-07
1.91578e-08
4.50941e-07
1.44623e-08
4.03844e-07
4.70966e-08
2.44846e-08
3.79359e-07
-1.06043e-07
2.99236e-07
-2.13624e-07
3.06453e-07
-2.73561e-07
2.08213e-07
-2.8727e-07
9.09018e-08
-2.43377e-07
-5.42417e-08
-1.26337e-07
-2.13154e-07
5.3278e-08
-3.52384e-07
2.68889e-07
-4.41433e-07
4.94571e-07
-4.73764e-07
7.02125e-07
-4.5489e-07
8.77868e-07
-3.978e-07
1.02164e-06
-3.13709e-07
1.13242e-06
-2.20394e-07
1.20891e-06
-1.32299e-07
1.24e-06
-4.11113e-08
1.21693e-06
3.56004e-08
1.15763e-06
6.11932e-08
1.114e-06
2.15899e-08
1.13627e-06
-7.53676e-08
1.22628e-06
-1.87318e-07
1.34202e-06
-2.39354e-07
1.42633e-06
-1.8427e-07
1.44803e-06
-7.92869e-08
1.41148e-06
6.32691e-09
1.32014e-06
1.0011e-07
1.17533e-06
2.18031e-07
9.47138e-07
3.22722e-07
6.07873e-07
4.05672e-07
1.56583e-07
5.09242e-07
-3.66396e-07
6.15489e-07
-9.05592e-07
6.93846e-07
-1.39856e-06
7.56798e-07
-1.81755e-06
8.04869e-07
-2.20099e-06
8.21737e-07
-2.5562e-06
8.15121e-07
-2.88084e-06
7.87041e-07
-3.17583e-06
7.44389e-07
-3.4411e-06
6.91272e-07
-3.67993e-06
6.32776e-07
-3.895e-06
5.73025e-07
-4.08887e-06
5.14952e-07
-4.26356e-06
4.60271e-07
-4.42078e-06
4.09541e-07
-4.56176e-06
3.6261e-07
-4.68724e-06
3.18762e-07
-4.7976e-06
2.77164e-07
-4.8928e-06
2.36824e-07
-4.97252e-06
1.96777e-07
-5.0363e-06
1.56307e-07
-5.08358e-06
1.14763e-07
-5.11367e-06
7.17889e-08
-5.12513e-06
2.6544e-08
-5.11725e-06
-2.03415e-08
-5.08951e-06
-6.85594e-08
-5.03987e-06
-1.19578e-07
-4.96745e-06
-1.7313e-07
-4.87164e-06
-2.291e-07
-4.75177e-06
-2.87278e-07
-4.60732e-06
-3.4705e-07
-4.43808e-06
-4.06886e-07
-4.24459e-06
-4.63672e-07
-4.02882e-06
-5.12058e-07
-3.79471e-06
-5.43919e-07
-3.54917e-06
-5.48489e-07
-3.30209e-06
-5.15284e-07
-3.06851e-06
-4.35694e-07
-2.86139e-06
-3.18533e-07
-2.67815e-06
-1.96818e-07
-2.48396e-06
-1.22603e-07
-2.23257e-06
-1.49231e-07
-1.92746e-06
-2.84089e-07
-1.62579e-06
-4.49359e-07
-1.34608e-06
-5.18771e-07
-1.07508e-06
-4.88553e-07
-8.07381e-07
-4.7294e-07
-5.46101e-07
-4.7079e-07
-2.95582e-07
-4.54775e-07
-4.49998e-08
-4.72343e-07
2.29208e-07
-5.26884e-07
5.77084e-07
-6.37299e-07
9.59727e-07
-6.52724e-07
1.22363e-06
-4.35894e-07
1.32721e-06
-1.73798e-07
1.31192e-06
-6.3688e-09
1.24272e-06
3.373e-08
1.19664e-06
-7.74177e-08
1.28483e-06
-3.38065e-07
1.54963e-06
-5.89873e-07
1.84319e-06
-7.06371e-07
2.06407e-06
-6.79382e-07
2.23404e-06
-2.35018e-07
2.16511e-06
5.77903e-07
1.7931e-06
9.43579e-07
1.51178e-06
4.92562e-07
1.26726e-06
1.05295e-07
7.33487e-07
3.63342e-07
-3.78746e-08
8.45241e-07
-7.83678e-07
1.14815e-06
-1.36158e-06
1.19772e-06
-1.82337e-06
1.08965e-06
-2.20379e-06
9.37477e-07
-2.52114e-06
7.91689e-07
-2.79053e-06
6.70486e-07
-3.02413e-06
5.75677e-07
-3.23069e-06
5.0275e-07
-3.41597e-06
4.45448e-07
-3.58341e-06
3.98312e-07
-3.73435e-06
3.56589e-07
-3.86876e-06
3.16528e-07
-3.98575e-06
2.75724e-07
-4.08385e-06
2.32635e-07
-4.16125e-06
1.8625e-07
-4.21603e-06
1.36088e-07
-4.24627e-06
8.22026e-08
-4.24995e-06
2.47865e-08
-4.2254e-06
-3.4851e-08
-4.17068e-06
-9.63729e-08
-4.08499e-06
-1.58535e-07
-3.96854e-06
-2.20084e-07
-3.82212e-06
-2.80124e-07
-3.6467e-06
-3.38261e-07
-3.44313e-06
-3.94755e-07
-3.21182e-06
-4.50394e-07
-2.95259e-06
-5.06089e-07
-2.66493e-06
-5.62385e-07
-2.34852e-06
-6.18599e-07
-2.0047e-06
-6.71389e-07
-1.63825e-06
-7.14249e-07
-1.25814e-06
-7.39398e-07
-8.75834e-07
-7.42196e-07
-5.02642e-07
-7.22894e-07
-1.48836e-07
-6.83367e-07
1.78385e-07
-6.27416e-07
4.71847e-07
-5.63774e-07
7.31794e-07
-4.96235e-07
9.59882e-07
-4.32898e-07
1.16007e-06
-3.77353e-07
1.33666e-06
-3.30517e-07
1.49367e-06
-2.92205e-07
1.63538e-06
-2.62931e-07
1.7671e-06
-2.44523e-07
1.89548e-06
-2.39156e-07
2.02765e-06
-2.47312e-07
2.16942e-06
-2.65865e-07
2.32317e-06
-2.87638e-07
2.48656e-06
-3.03518e-07
2.65301e-06
-3.06152e-07
2.81323e-06
-2.92198e-07
2.95718e-06
-2.61436e-07
3.07741e-06
-2.14837e-07
3.17308e-06
-1.53674e-07
3.24674e-06
-7.8728e-08
3.29563e-06
9.37434e-09
3.31201e-06
1.07057e-07
3.28348e-06
2.17724e-07
3.19869e-06
3.37431e-07
3.04775e-06
4.48764e-07
2.83452e-06
5.13311e-07
2.58099e-06
5.11073e-07
2.3243e-06
4.48235e-07
2.09758e-06
3.53156e-07
1.91742e-06
2.58e-07
1.78274e-06
1.82726e-07
1.68304e-06
1.32304e-07
1.60767e-06
1.00733e-07
1.54971e-06
7.92607e-08
1.5052e-06
6.21788e-08
1.4716e-06
4.72736e-08
1.44664e-06
3.46799e-08
1.42851e-06
2.42521e-08
1.41521e-06
1.69835e-08
1.40579e-06
1.1325e-08
1.3981e-06
1.00008e-08
1.3923e-06
8.03864e-09
1.38485e-06
1.40547e-08
1.37798e-06
1.37812e-08
1.365e-06
3.21419e-08
1.35106e-06
2.83959e-08
1.32622e-06
7.19385e-08
5.63534e-08
1.29435e-06
1.16926e-07
1.8231e-07
1.91819e-07
2.31559e-07
2.44286e-07
1.55746e-07
3.13262e-07
2.19259e-08
4.36306e-07
-1.77285e-07
6.05126e-07
-3.81975e-07
7.90061e-07
-5.37319e-07
9.64909e-07
-6.16282e-07
1.10943e-06
-6.18282e-07
1.21533e-06
-5.60789e-07
1.28376e-06
-4.66235e-07
1.3207e-06
-3.50648e-07
1.32295e-06
-2.22641e-07
1.29502e-06
-1.04367e-07
1.26461e-06
-1.07043e-08
1.22707e-06
7.31354e-08
1.17092e-06
1.17348e-07
1.1507e-06
4.18088e-08
1.16829e-06
-9.296e-08
1.13616e-06
-1.55187e-07
1.02572e-06
-1.28914e-07
8.58625e-07
-1.7174e-08
6.41311e-07
1.38027e-07
3.57709e-07
2.89929e-07
2.39628e-08
4.33856e-07
-3.4119e-07
5.83184e-07
-7.37017e-07
7.18549e-07
-1.15968e-06
8.28336e-07
-1.56621e-06
9.15767e-07
-1.93465e-06
9.83934e-07
-2.27006e-06
1.02926e-06
-2.56818e-06
1.05492e-06
-2.8223e-06
1.05899e-06
-3.04328e-06
1.04271e-06
-3.23833e-06
1.01018e-06
-3.41539e-06
9.64097e-07
-3.58017e-06
9.09168e-07
-3.73707e-06
8.48171e-07
-3.88888e-06
7.84591e-07
-4.03668e-06
7.20825e-07
-4.18043e-06
6.58699e-07
-4.31935e-06
5.9919e-07
-4.4523e-06
5.42498e-07
-4.57792e-06
4.88228e-07
-4.69476e-06
4.35604e-07
-4.80131e-06
3.8371e-07
-4.89606e-06
3.31581e-07
-4.97764e-06
2.78349e-07
-5.04471e-06
2.23378e-07
-5.09613e-06
1.66183e-07
-5.1309e-06
1.06562e-07
-5.14941e-06
4.50524e-08
-5.15098e-06
-1.87674e-08
-5.13349e-06
-8.60557e-08
-5.0989e-06
-1.54166e-07
-5.04852e-06
-2.23512e-07
-4.98347e-06
-2.94147e-07
-4.90482e-06
-3.65928e-07
-4.81342e-06
-4.38453e-07
-4.70945e-06
-5.1085e-07
-4.5919e-06
-5.81225e-07
-4.458e-06
-6.45954e-07
-4.30295e-06
-6.98969e-07
-4.11975e-06
-7.31697e-07
-3.90031e-06
-7.34716e-07
-3.63478e-06
-7.01229e-07
-3.31823e-06
-6.35079e-07
-2.9567e-06
-5.58351e-07
-2.56721e-06
-5.1209e-07
-2.18338e-06
-5.3306e-07
-1.84862e-06
-6.18851e-07
-1.58428e-06
-7.13696e-07
-1.35035e-06
-7.52709e-07
-1.09617e-06
-7.42735e-07
-8.31313e-07
-7.37792e-07
-5.67851e-07
-7.34253e-07
-3.02254e-07
-7.20373e-07
-3.63762e-08
-7.3822e-07
2.56595e-07
-8.19855e-07
6.64973e-07
-1.04568e-06
1.18962e-06
-1.17737e-06
1.66174e-06
-9.08017e-07
1.98218e-06
-4.94239e-07
2.13739e-06
-1.6158e-07
2.15393e-06
1.71928e-08
2.08995e-06
-1.34356e-08
2.05153e-06
-2.99647e-07
2.09326e-06
-6.31601e-07
2.16716e-06
-7.80276e-07
2.18471e-06
-6.96928e-07
2.11891e-06
-1.69225e-07
1.91612e-06
7.80696e-07
1.69018e-06
1.16952e-06
1.37989e-06
8.02857e-07
6.72055e-07
8.13128e-07
-2.44552e-07
1.27995e-06
-9.94237e-07
1.59493e-06
-1.49529e-06
1.6492e-06
-1.83138e-06
1.53381e-06
-2.0912e-06
1.34946e-06
-2.31813e-06
1.16441e-06
-2.53028e-06
1.00383e-06
-2.73362e-06
8.73829e-07
-2.92961e-06
7.71664e-07
-3.11801e-06
6.91152e-07
-3.29784e-06
6.25279e-07
-3.46742e-06
5.67889e-07
-3.62483e-06
5.13999e-07
-3.7681e-06
4.598e-07
-3.895e-06
4.02623e-07
-4.00302e-06
3.4066e-07
-4.08958e-06
2.7281e-07
-4.15211e-06
1.98617e-07
-4.18808e-06
1.18175e-07
-4.19523e-06
3.19349e-08
-4.17252e-06
-5.75678e-08
-4.11909e-06
-1.49799e-07
-4.0347e-06
-2.4292e-07
-3.91975e-06
-3.35036e-07
-3.77521e-06
-4.2467e-07
-3.60232e-06
-5.11144e-07
-3.40216e-06
-5.94921e-07
-3.17508e-06
-6.77472e-07
-2.92061e-06
-7.60563e-07
-2.63753e-06
-8.45462e-07
-2.32441e-06
-9.31714e-07
-1.98112e-06
-1.01469e-06
-1.6116e-06
-1.08376e-06
-1.22554e-06
-1.12547e-06
-8.36127e-07
-1.1316e-06
-4.55819e-07
-1.1032e-06
-9.55521e-08
-1.04363e-06
2.36319e-07
-9.59287e-07
5.32582e-07
-8.60038e-07
7.93355e-07
-7.57008e-07
1.02182e-06
-6.61363e-07
1.22309e-06
-5.78626e-07
1.4019e-06
-5.09323e-07
1.56195e-06
-4.52259e-07
1.70692e-06
-4.07899e-07
1.84178e-06
-3.79383e-07
1.9735e-06
-3.70874e-07
2.11053e-06
-3.8434e-07
2.26073e-06
-4.16066e-07
2.42822e-06
-4.55128e-07
2.61107e-06
-4.86371e-07
2.80199e-06
-4.97073e-07
2.99166e-06
-4.81867e-07
3.17177e-06
-4.41546e-07
3.33513e-06
-3.78196e-07
3.4731e-06
-2.91647e-07
3.57388e-06
-1.79503e-07
3.62653e-06
-4.32819e-08
3.63068e-06
1.02907e-07
3.60463e-06
2.4378e-07
3.56204e-06
3.80019e-07
3.49516e-06
5.15647e-07
3.38208e-06
6.26394e-07
3.21733e-06
6.75814e-07
3.01772e-06
6.47849e-07
2.80942e-06
5.61458e-07
2.61282e-06
4.54599e-07
2.4372e-06
3.5835e-07
2.28474e-06
2.84762e-07
2.15555e-06
2.29924e-07
2.0497e-06
1.85108e-07
1.96677e-06
1.45113e-07
1.90518e-06
1.08861e-07
1.86198e-06
7.78802e-08
1.83353e-06
5.27037e-08
1.81578e-06
3.47337e-08
1.80532e-06
2.17792e-08
1.79915e-06
1.6172e-08
1.79517e-06
1.20143e-08
1.79194e-06
1.72861e-08
1.78789e-06
1.78308e-08
1.78365e-06
3.63896e-08
1.77469e-06
3.73562e-08
1.76858e-06
7.8043e-08
7.74618e-08
1.74747e-06
1.21247e-07
6.10631e-08
2.26827e-07
1.2598e-07
3.93427e-07
-1.08537e-08
6.46267e-07
-2.30914e-07
9.2227e-07
-4.53287e-07
1.16036e-06
-6.20067e-07
1.32835e-06
-7.05307e-07
1.42164e-06
-7.09574e-07
1.45436e-06
-6.50998e-07
1.44162e-06
-5.48055e-07
1.39457e-06
-4.19179e-07
1.3238e-06
-2.79875e-07
1.2371e-06
-1.35949e-07
1.13602e-06
-3.28623e-09
1.01253e-06
1.12788e-07
8.8599e-07
1.99677e-07
8.18441e-07
1.84897e-07
7.74423e-07
8.58265e-08
6.40069e-07
4.13945e-08
3.87358e-07
9.75237e-08
5.7809e-08
2.00636e-07
-2.83888e-07
3.24523e-07
-6.18208e-07
4.72347e-07
-9.55977e-07
6.27698e-07
-1.29905e-06
7.76932e-07
-1.62524e-06
9.09373e-07
-1.92341e-06
1.01672e-06
-2.19317e-06
1.0981e-06
-2.43256e-06
1.15516e-06
-2.64043e-06
1.1918e-06
-2.8225e-06
1.21133e-06
-2.98263e-06
1.21505e-06
-3.12701e-06
1.20338e-06
-3.26284e-06
1.17854e-06
-3.3956e-06
1.14293e-06
-3.52997e-06
1.09847e-06
-3.6678e-06
1.047e-06
-3.80944e-06
9.89805e-07
-3.95345e-06
9.28602e-07
-4.09768e-06
8.65052e-07
-4.23983e-06
8.00858e-07
-4.37789e-06
7.37244e-07
-4.51e-06
6.74607e-07
-4.63447e-06
6.12704e-07
-4.74974e-06
5.50867e-07
-4.85414e-06
4.88116e-07
-4.94599e-06
4.23431e-07
-5.02359e-06
3.55947e-07
-5.08528e-06
2.85063e-07
-5.12961e-06
2.10515e-07
-5.1554e-06
1.32358e-07
-5.16105e-06
5.07021e-08
-5.14693e-06
-3.28957e-08
-5.1148e-06
-1.18184e-07
-5.06386e-06
-2.051e-07
-4.99512e-06
-2.9226e-07
-4.91049e-06
-3.78773e-07
-4.81253e-06
-4.63894e-07
-4.70412e-06
-5.46856e-07
-4.58813e-06
-6.26841e-07
-4.46661e-06
-7.02745e-07
-4.33974e-06
-7.72824e-07
-4.20438e-06
-8.34332e-07
-4.05287e-06
-8.83206e-07
-3.87354e-06
-9.14042e-07
-3.65283e-06
-9.2194e-07
-3.38051e-06
-9.07398e-07
-3.0578e-06
-8.81063e-07
-2.70737e-06
-8.62525e-07
-2.3703e-06
-8.70125e-07
-2.08424e-06
-9.04915e-07
-1.85225e-06
-9.45679e-07
-1.63463e-06
-9.7033e-07
-1.39866e-06
-9.78707e-07
-1.15649e-06
-9.79965e-07
-9.15055e-07
-9.75686e-07
-6.60628e-07
-9.748e-07
-3.93203e-07
-1.00564e-06
-9.492e-08
-1.11814e-06
2.71023e-07
-1.41162e-06
7.58796e-07
-1.66514e-06
1.23835e-06
-1.38757e-06
1.59305e-06
-8.48932e-07
1.83695e-06
-4.05481e-07
1.97083e-06
-1.1669e-07
2.06768e-06
-1.10287e-07
2.16699e-06
-3.98959e-07
2.22182e-06
-6.86432e-07
2.18447e-06
-7.42917e-07
1.96397e-06
-4.76432e-07
1.55629e-06
2.38453e-07
1.26199e-06
1.075e-06
1.12095e-06
1.31056e-06
6.29079e-07
1.29473e-06
-2.10122e-07
1.65233e-06
-9.33912e-07
2.00374e-06
-1.39698e-06
2.05799e-06
-1.67827e-06
1.93049e-06
-1.87814e-06
1.73367e-06
-2.058e-06
1.52932e-06
-2.2386e-06
1.34501e-06
-2.42367e-06
1.18891e-06
-2.61135e-06
1.0615e-06
-2.79879e-06
9.59107e-07
-2.98324e-06
8.75605e-07
-3.16204e-06
8.04074e-07
-3.33233e-06
7.38183e-07
-3.49126e-06
6.7293e-07
-3.63614e-06
6.0468e-07
-3.76439e-06
5.30876e-07
-3.87347e-06
4.49735e-07
-3.96081e-06
3.60155e-07
-4.02389e-06
2.61694e-07
-4.06031e-06
1.54594e-07
-4.06775e-06
3.93686e-08
-4.04561e-06
-7.96994e-08
-3.99295e-06
-2.02466e-07
-3.90967e-06
-3.26201e-07
-3.79659e-06
-4.48117e-07
-3.65508e-06
-5.66172e-07
-3.48686e-06
-6.79367e-07
-3.29337e-06
-7.8841e-07
-3.07503e-06
-8.95811e-07
-2.83087e-06
-1.00472e-06
-2.55865e-06
-1.11769e-06
-2.25517e-06
-1.23519e-06
-1.91797e-06
-1.35189e-06
-1.54927e-06
-1.45246e-06
-1.15953e-06
-1.5152e-06
-7.64816e-07
-1.52632e-06