/*--------------------------------*- C++ -*----------------------------------*\
  =========                 |
  \\      /  F ield         | OpenFOAM: The Open Source CFD Toolbox
   \\    /   O peration     | Website:  https://openfoam.org
    \\  /    A nd           | Version:  7
     \\/     M anipulation  |
\*---------------------------------------------------------------------------*/
FoamFile
{
    version     2.0;
    format      ascii;
    class       volSymmTensorField;
    location    "0.108";
    object      UPrime2Mean;
}
// * * * * * * * * * * * * * * * * * * * * * * * * * * * * * * * * * * * * * //

dimensions      [0 2 -2 0 0 0 0];

internalField   nonuniform List<symmTensor> 
12225
(
(0.00432484 -6.34366e-05 0 0.000487278 0 0)
(0.0201199 -0.000837362 0 0.000195413 0 0)
(0.0287152 -0.00123018 0 0.000155235 0 0)
(0.0381219 -0.00151645 0 0.000138518 0 0)
(0.0545177 -0.00190968 0 0.00013171 0 0)
(0.0790843 -0.00242238 0 0.000130919 0 0)
(0.112194 -0.00305815 0 0.000139413 0 0)
(0.154235 -0.00357574 0 0.000131186 0 0)
(0.205563 -0.00438736 0 0.000143204 0 0)
(0.265745 -0.00430591 0 0.000112363 0 0)
(0.336297 -0.0057646 0 0.000134462 0 0)
(0.411743 -0.00386111 0 7.75912e-05 0 0)
(0.50384 -0.00869471 0 0.000191747 0 0)
(0.592806 -0.00121955 0 0.000129909 0 0)
(0.725419 -0.0200415 0 0.000881645 0 0)
(0.85221 0.00833564 0 0.00101698 0 0)
(1.10521 -0.07427 0 0.00978965 0 0)
(1.47352 0.028763 0 0.00478804 0 0)
(0.0037527 6.60576e-05 0 0.000640386 0 0)
(0.0135694 -0.000392046 0 0.000199315 0 0)
(0.0146516 -0.000673104 0 0.00021413 0 0)
(0.0150425 -0.000845841 0 0.000278211 0 0)
(0.0177545 -0.00120149 0 0.000362078 0 0)
(0.02268 -0.00186328 0 0.000472638 0 0)
(0.0303069 -0.00281507 0 0.000590345 0 0)
(0.0419303 -0.00418382 0 0.000756641 0 0)
(0.0580545 -0.00569091 0 0.000864584 0 0)
(0.0815487 -0.00795455 0 0.0010799 0 0)
(0.111227 -0.00971289 0 0.00110175 0 0)
(0.153363 -0.0134606 0 0.00142009 0 0)
(0.201795 -0.0148312 0 0.00130709 0 0)
(0.27326 -0.0226358 0 0.00208277 0 0)
(0.349188 -0.0233148 0 0.00188285 0 0)
(0.47983 -0.0455638 0 0.00501929 0 0)
(0.610107 -0.055227 0 0.00560654 0 0)
(0.870851 -0.148935 0 0.0339897 0 0)
(0.00388941 0.000130084 0 0.000827772 0 0)
(0.0135877 -0.000547931 0 0.000364993 0 0)
(0.0140541 -0.000924619 0 0.000375967 0 0)
(0.0134948 -0.00104989 0 0.000461947 0 0)
(0.0144995 -0.00125152 0 0.000584609 0 0)
(0.0162588 -0.00163665 0 0.000746121 0 0)
(0.0186516 -0.00223491 0 0.000985047 0 0)
(0.0218143 -0.00300283 0 0.00122247 0 0)
(0.0261732 -0.0041079 0 0.00158605 0 0)
(0.0320356 -0.00529745 0 0.00184509 0 0)
(0.0405232 -0.00730691 0 0.00235152 0 0)
(0.0518658 -0.00902803 0 0.00254438 0 0)
(0.0686191 -0.0130818 0 0.00345344 0 0)
(0.0907711 -0.0157303 0 0.00359608 0 0)
(0.124224 -0.0260785 0 0.00629398 0 0)
(0.168939 -0.0330192 0 0.0071445 0 0)
(0.233902 -0.0660683 0 0.0198775 0 0)
(0.316804 -0.109174 0 0.0404015 0 0)
(0.00391839 -0.000148509 0 0.000930724 0 0)
(0.0135382 -0.000793978 0 0.000435362 0 0)
(0.0139937 -0.00109973 0 0.000441401 0 0)
(0.0133843 -0.00123185 0 0.000564324 0 0)
(0.0141718 -0.00144056 0 0.000720432 0 0)
(0.0155524 -0.00182663 0 0.000926317 0 0)
(0.0173392 -0.00237814 0 0.00118217 0 0)
(0.019597 -0.00310194 0 0.00153209 0 0)
(0.0223922 -0.00395417 0 0.00190468 0 0)
(0.0260783 -0.00510589 0 0.00241288 0 0)
(0.0308834 -0.00646311 0 0.00289944 0 0)
(0.0376349 -0.00857433 0 0.00366439 0 0)
(0.0467425 -0.01118 0 0.00444415 0 0)
(0.0599913 -0.0158446 0 0.00603108 0 0)
(0.078143 -0.0223882 0 0.00822532 0 0)
(0.103814 -0.0348816 0 0.0134777 0 0)
(0.137125 -0.0565124 0 0.0247422 0 0)
(0.171538 -0.0906052 0 0.0494397 0 0)
(0.00429628 -0.000116625 0 0.00104063 0 0)
(0.0133061 -0.000863652 0 0.000560176 0 0)
(0.0136175 -0.00115817 0 0.000545994 0 0)
(0.0130528 -0.00129312 0 0.000689417 0 0)
(0.0138634 -0.0015194 0 0.000879018 0 0)
(0.015194 -0.00193354 0 0.00111509 0 0)
(0.0168737 -0.00253693 0 0.00143997 0 0)
(0.0189565 -0.00330228 0 0.00182801 0 0)
(0.0215392 -0.00427838 0 0.00234499 0 0)
(0.0248199 -0.00545035 0 0.00291137 0 0)
(0.0290971 -0.00709239 0 0.00368969 0 0)
(0.0347852 -0.00918506 0 0.00457599 0 0)
(0.042461 -0.0124472 0 0.00600627 0 0)
(0.0529248 -0.0169839 0 0.00793708 0 0)
(0.06697 -0.0245879 0 0.0116323 0 0)
(0.0850629 -0.0363469 0 0.0181523 0 0)
(0.106107 -0.0552002 0 0.0311513 0 0)
(0.123745 -0.0834966 0 0.0595316 0 0)
(0.00379688 -0.00015645 0 0.00118026 0 0)
(0.0130814 -0.00102544 0 0.000705272 0 0)
(0.0132769 -0.00128802 0 0.000700171 0 0)
(0.012694 -0.00139832 0 0.000901749 0 0)
(0.013467 -0.00163371 0 0.00115606 0 0)
(0.0146788 -0.00207474 0 0.0014602 0 0)
(0.0161851 -0.00270825 0 0.00184067 0 0)
(0.0180674 -0.00352694 0 0.00232863 0 0)
(0.0204193 -0.00455229 0 0.00292836 0 0)
(0.0234032 -0.00586704 0 0.00367893 0 0)
(0.0272758 -0.00761299 0 0.00461951 0 0)
(0.0323323 -0.0100309 0 0.00588496 0 0)
(0.0390396 -0.0134865 0 0.00767807 0 0)
(0.0477511 -0.0185417 0 0.0104242 0 0)
(0.0589786 -0.0261952 0 0.0149972 0 0)
(0.072066 -0.0374789 0 0.0228952 0 0)
(0.0859761 -0.0540399 0 0.0373171 0 0)
(0.0957708 -0.0750785 0 0.0623448 0 0)
(0.00375389 -0.000244888 0 0.00139338 0 0)
(0.0126893 -0.00117692 0 0.000918117 0 0)
(0.0127904 -0.00140047 0 0.000873709 0 0)
(0.012198 -0.00149665 0 0.00107937 0 0)
(0.0129265 -0.00173222 0 0.00136868 0 0)
(0.0140359 -0.00218959 0 0.00171925 0 0)
(0.0153811 -0.00285673 0 0.00216652 0 0)
(0.0170414 -0.00371915 0 0.00273554 0 0)
(0.0191172 -0.0048121 0 0.00346321 0 0)
(0.0217608 -0.0062149 0 0.00438014 0 0)
(0.0251858 -0.00809773 0 0.00556393 0 0)
(0.0295997 -0.010685 0 0.00716504 0 0)
(0.0352838 -0.0143234 0 0.00944 0 0)
(0.0423517 -0.0195087 0 0.0129015 0 0)
(0.0509153 -0.0268812 0 0.018314 0 0)
(0.0601085 -0.0372065 0 0.0273006 0 0)
(0.0689165 -0.0507528 0 0.0416562 0 0)
(0.0738689 -0.0665553 0 0.0645715 0 0)
(0.0035903 -0.000163331 0 0.00137584 0 0)
(0.012498 -0.0012794 0 0.000950154 0 0)
(0.0125764 -0.00147693 0 0.000981043 0 0)
(0.0119385 -0.00151855 0 0.0012462 0 0)
(0.0126481 -0.00174796 0 0.00160395 0 0)
(0.0137314 -0.00221729 0 0.0020324 0 0)
(0.014997 -0.00289472 0 0.00256732 0 0)
(0.0164957 -0.00377718 0 0.00325377 0 0)
(0.0183126 -0.0049091 0 0.00413124 0 0)
(0.0205798 -0.0063799 0 0.00525275 0 0)
(0.0234669 -0.00834466 0 0.00670913 0 0)
(0.0271059 -0.0110096 0 0.00867938 0 0)
(0.0316419 -0.0146677 0 0.0114487 0 0)
(0.0370402 -0.0196854 0 0.0155351 0 0)
(0.0431838 -0.0264834 0 0.021676 0 0)
(0.0492494 -0.0353681 0 0.031155 0 0)
(0.0543771 -0.0461687 0 0.0452489 0 0)
(0.0563997 -0.0577858 0 0.0658914 0 0)
(0.00410005 -0.000393558 0 0.00142174 0 0)
(0.012658 -0.00159056 0 0.00108557 0 0)
(0.0123998 -0.00177071 0 0.0011415 0 0)
(0.0116945 -0.00179018 0 0.00144034 0 0)
(0.0123431 -0.00203205 0 0.00186251 0 0)
(0.0132746 -0.00253329 0 0.00237511 0 0)
(0.0143347 -0.00324398 0 0.00300646 0 0)
(0.0156066 -0.00415138 0 0.00380739 0 0)
(0.0171611 -0.00530061 0 0.00483281 0 0)
(0.0190843 -0.00678289 0 0.0061565 0 0)
(0.0214805 -0.00874082 0 0.00788309 0 0)
(0.0244148 -0.0113586 0 0.0102155 0 0)
(0.027929 -0.0148592 0 0.0134355 0 0)
(0.0318892 -0.0194901 0 0.0180479 0 0)
(0.0360797 -0.0254557 0 0.0246687 0 0)
(0.0397942 -0.0327846 0 0.0343082 0 0)
(0.0424434 -0.0410986 0 0.0477596 0 0)
(0.0427034 -0.0493658 0 0.0661105 0 0)
(0.00364656 -0.000299405 0 0.00153433 0 0)
(0.0125059 -0.00160247 0 0.00119853 0 0)
(0.0123447 -0.00178358 0 0.0012953 0 0)
(0.0116353 -0.0017811 0 0.00163028 0 0)
(0.0122205 -0.00201228 0 0.00209464 0 0)
(0.0130549 -0.00251484 0 0.00266713 0 0)
(0.0139778 -0.00322954 0 0.00337815 0 0)
(0.0150598 -0.0041419 0 0.00428515 0 0)
(0.0163613 -0.00529764 0 0.0054554 0 0)
(0.0179459 -0.00678025 0 0.00697553 0 0)
(0.0198747 -0.00870597 0 0.0089596 0 0)
(0.0221499 -0.0112114 0 0.0116121 0 0)
(0.0247359 -0.0144493 0 0.015206 0 0)
(0.0274488 -0.0185502 0 0.0201936 0 0)
(0.0300613 -0.0235722 0 0.0270663 0 0)
(0.0320252 -0.0293759 0 0.0365758 0 0)
(0.0330212 -0.0355414 0 0.0491522 0 0)
(0.0322254 -0.041206 0 0.0654404 0 0)
(0.00384767 -0.000299643 0 0.00175311 0 0)
(0.0123649 -0.00183483 0 0.00144753 0 0)
(0.0119094 -0.00206331 0 0.00153827 0 0)
(0.011065 -0.00200857 0 0.00190757 0 0)
(0.0115819 -0.00220632 0 0.00243459 0 0)
(0.0123472 -0.00269395 0 0.00309636 0 0)
(0.0131735 -0.00338829 0 0.00391672 0 0)
(0.0141149 -0.00426264 0 0.00495318 0 0)
(0.0152129 -0.00535613 0 0.00627545 0 0)
(0.0165017 -0.00674532 0 0.00798416 0 0)
(0.0180062 -0.00852847 0 0.0102021 0 0)
(0.0196946 -0.0108017 0 0.0131273 0 0)
(0.0215012 -0.013655 0 0.0170035 0 0)
(0.0232422 -0.0171254 0 0.0222137 0 0)
(0.0247333 -0.0211775 0 0.0291232 0 0)
(0.0255746 -0.0255887 0 0.0382695 0 0)
(0.0256441 -0.0299809 0 0.0498339 0 0)
(0.0244257 -0.0336669 0 0.0642061 0 0)
(0.00372421 -0.000365708 0 0.00181258 0 0)
(0.0123361 -0.00182573 0 0.00152232 0 0)
(0.0118799 -0.00206178 0 0.00165775 0 0)
(0.0109568 -0.00200407 0 0.00206321 0 0)
(0.0113567 -0.00219409 0 0.0026378 0 0)
(0.0119827 -0.0026791 0 0.00336854 0 0)
(0.0126554 -0.00336557 0 0.00427544 0 0)
(0.0134199 -0.00421553 0 0.00541255 0 0)
(0.0142921 -0.00526081 0 0.00686061 0 0)
(0.0152747 -0.00656431 0 0.0087247 0 0)
(0.0163625 -0.00819871 0 0.0111262 0 0)
(0.0175041 -0.0102202 0 0.0142503 0 0)
(0.0186296 -0.0126668 0 0.0183052 0 0)
(0.0195942 -0.0155171 0 0.0236059 0 0)
(0.0202683 -0.0186837 0 0.0304071 0 0)
(0.0203925 -0.0219298 0 0.0390923 0 0)
(0.0199462 -0.024934 0 0.0496903 0 0)
(0.0186019 -0.0271753 0 0.0624636 0 0)
(0.00391847 -0.000456778 0 0.00201606 0 0)
(0.0126688 -0.0020128 0 0.00176291 0 0)
(0.0120564 -0.00218396 0 0.001896 0 0)
(0.0109795 -0.00203307 0 0.00233182 0 0)
(0.0112371 -0.00214883 0 0.00294889 0 0)
(0.0117128 -0.00257327 0 0.00374486 0 0)
(0.012221 -0.00320068 0 0.00474305 0 0)
(0.0127962 -0.00397481 0 0.00599061 0 0)
(0.0134344 -0.00490863 0 0.00756044 0 0)
(0.0141212 -0.00604949 0 0.00955312 0 0)
(0.0148363 -0.00745088 0 0.0120871 0 0)
(0.015532 -0.00914357 0 0.0153309 0 0)
(0.0161425 -0.0111297 0 0.0194585 0 0)
(0.0165562 -0.0133522 0 0.024724 0 0)
(0.016681 -0.0156948 0 0.0312933 0 0)
(0.0163533 -0.017935 0 0.0394412 0 0)
(0.0156131 -0.0198016 0 0.0491007 0 0)
(0.0142467 -0.0209085 0 0.0604676 0 0)
(0.00343024 -0.000513169 0 0.00233789 0 0)
(0.0120608 -0.00213311 0 0.00211266 0 0)
(0.0114571 -0.00225108 0 0.00219147 0 0)
(0.0104002 -0.00203466 0 0.00262936 0 0)
(0.0106382 -0.00208725 0 0.00328572 0 0)
(0.0110462 -0.00245086 0 0.0041441 0 0)
(0.0114156 -0.00299806 0 0.00521976 0 0)
(0.011771 -0.00365335 0 0.00655794 0 0)
(0.0121203 -0.00441767 0 0.00822699 0 0)
(0.0124699 -0.00532791 0 0.0103246 0 0)
(0.0128189 -0.00642465 0 0.0129574 0 0)
(0.0131276 -0.00771327 0 0.0162701 0 0)
(0.0133329 -0.00916526 0 0.0203929 0 0)
(0.0133399 -0.0106883 0 0.0255138 0 0)
(0.0130854 -0.0121623 0 0.0317165 0 0)
(0.0124838 -0.0133797 0 0.039188 0 0)
(0.0116174 -0.0141588 0 0.0477893 0 0)
(0.0103581 -0.0141993 0 0.0576869 0 0)
(0.00389374 -0.000357914 0 0.00246253 0 0)
(0.0123953 -0.00227378 0 0.00237841 0 0)
(0.0116704 -0.00247437 0 0.0025104 0 0)
(0.0105348 -0.00227582 0 0.00299685 0 0)
(0.0106818 -0.00231574 0 0.00371129 0 0)
(0.0109666 -0.00262751 0 0.00463515 0 0)
(0.0111899 -0.00308807 0 0.00578541 0 0)
(0.0113774 -0.00362752 0 0.00720221 0 0)
(0.0115313 -0.00424309 0 0.00894669 0 0)
(0.0116503 -0.00495516 0 0.0111048 0 0)
(0.0117243 -0.00577595 0 0.0137645 0 0)
(0.0117164 -0.00667718 0 0.0170388 0 0)
(0.0115811 -0.0076064 0 0.0210118 0 0)
(0.0112676 -0.00845833 0 0.0258124 0 0)
(0.0107683 -0.00913455 0 0.0314563 0 0)
(0.010058 -0.00946353 0 0.038071 0 0)
(0.00925454 -0.00934763 0 0.0454809 0 0)
(0.00825852 -0.00855745 0 0.053842 0 0)
(0.0041519 -0.000307239 0 0.00281603 0 0)
(0.0123922 -0.00227729 0 0.00255713 0 0)
(0.0114322 -0.00248541 0 0.00259449 0 0)
(0.0100853 -0.00221945 0 0.00306589 0 0)
(0.0100013 -0.00217847 0 0.00378816 0 0)
(0.0100625 -0.00241756 0 0.00474475 0 0)
(0.0101226 -0.00278957 0 0.00594039 0 0)
(0.0101987 -0.00318994 0 0.0074009 0 0)
(0.010241 -0.00359366 0 0.00917315 0 0)
(0.0102044 -0.00400962 0 0.0113233 0 0)
(0.0100738 -0.00444161 0 0.0139136 0 0)
(0.00984208 -0.00485581 0 0.0170235 0 0)
(0.0095082 -0.00519917 0 0.0206969 0 0)
(0.00907534 -0.00537805 0 0.0250157 0 0)
(0.00856794 -0.00531824 0 0.0299527 0 0)
(0.00800451 -0.004893 0 0.0355958 0 0)
(0.00748683 -0.00405924 0 0.0417668 0 0)
(0.00694606 -0.00265947 0 0.0486189 0 0)
(0.0039641 -0.000372309 0 0.0029714 0 0)
(0.0124785 -0.00250784 0 0.00271322 0 0)
(0.0114054 -0.00272146 0 0.00275453 0 0)
(0.00997916 -0.00237399 0 0.00325181 0 0)
(0.00985156 -0.0022581 0 0.0039962 0 0)
(0.00982877 -0.00242483 0 0.00497366 0 0)
(0.00975142 -0.00268501 0 0.00617931 0 0)
(0.0096589 -0.00290277 0 0.00762009 0 0)
(0.00953041 -0.00304128 0 0.00932569 0 0)
(0.00934542 -0.00311289 0 0.0113427 0 0)
(0.00910154 -0.00313105 0 0.0137113 0 0)
(0.00880472 -0.00307276 0 0.0164872 0 0)
(0.00846316 -0.00289409 0 0.019689 0 0)
(0.00809804 -0.00251515 0 0.0233664 0 0)
(0.00773614 -0.00188071 0 0.0274663 0 0)
(0.00741707 -0.000898072 0 0.0320515 0 0)
(0.00721846 0.000438397 0 0.0369457 0 0)
(0.00710999 0.00224371 0 0.0423007 0 0)
(0.00364826 -0.000381958 0 0.00300264 0 0)
(0.0123003 -0.00248969 0 0.00295264 0 0)
(0.0111423 -0.00264318 0 0.00284106 0 0)
(0.00957453 -0.00229788 0 0.0031965 0 0)
(0.00931955 -0.0021681 0 0.00386022 0 0)
(0.00913248 -0.00223429 0 0.00474527 0 0)
(0.00886506 -0.00231499 0 0.00581515 0 0)
(0.00860669 -0.00230844 0 0.00707298 0 0)
(0.0083696 -0.00219363 0 0.00854447 0 0)
(0.00814269 -0.00197728 0 0.0102656 0 0)
(0.00792251 -0.00165864 0 0.0122592 0 0)
(0.00771348 -0.0012099 0 0.0145521 0 0)
(0.00752268 -0.000592647 0 0.0171385 0 0)
(0.00737838 0.000247532 0 0.0200422 0 0)
(0.00730966 0.00133789 0 0.0232073 0 0)
(0.0073661 0.002728 0 0.0266849 0 0)
(0.00760337 0.00440199 0 0.0303334 0 0)
(0.00801495 0.00642526 0 0.0342804 0 0)
(0.00383698 -0.000202148 0 0.00280379 0 0)
(0.0126722 -0.00218815 0 0.00265764 0 0)
(0.0112257 -0.00232169 0 0.00255883 0 0)
(0.00945878 -0.00189039 0 0.00293485 0 0)
(0.00907813 -0.00158319 0 0.00353574 0 0)
(0.00875913 -0.00144415 0 0.00427832 0 0)
(0.00840172 -0.00132479 0 0.00515657 0 0)
(0.00812318 -0.00112265 0 0.00618113 0 0)
(0.00793041 -0.000796879 0 0.00735917 0 0)
(0.00780155 -0.000337818 0 0.00870086 0 0)
(0.00772895 0.000256113 0 0.0102113 0 0)
(0.00772246 0.000997915 0 0.0119033 0 0)
(0.00780339 0.00190395 0 0.0137654 0 0)
(0.00801364 0.00300336 0 0.0158106 0 0)
(0.00838528 0.00430299 0 0.0179927 0 0)
(0.0089624 0.005833 0 0.0203487 0 0)
(0.00977824 0.00756889 0 0.022773 0 0)
(0.0108253 0.00955915 0 0.0253583 0 0)
(0.00403554 -0.000246351 0 0.00327262 0 0)
(0.0121438 -0.00205182 0 0.00290078 0 0)
(0.0105932 -0.00207359 0 0.00262569 0 0)
(0.00886383 -0.001584 0 0.00283743 0 0)
(0.00842841 -0.00121218 0 0.00325324 0 0)
(0.00808086 -0.000991233 0 0.00379024 0 0)
(0.00774549 -0.00079066 0 0.00443058 0 0)
(0.00751895 -0.000506097 0 0.0051688 0 0)
(0.0074068 -8.93978e-05 0 0.00600516 0 0)
(0.0073971 0.00046802 0 0.00694659 0 0)
(0.00749067 0.00115969 0 0.00799608 0 0)
(0.00770397 0.00198559 0 0.00915971 0 0)
(0.00805914 0.00294931 0 0.0104272 0 0)
(0.00859097 0.00406637 0 0.0118051 0 0)
(0.00932476 0.00533769 0 0.0132572 0 0)
(0.0102924 0.00678003 0 0.014809 0 0)
(0.0115136 0.00837207 0 0.0163897 0 0)
(0.0129844 0.0101421 0 0.0180555 0 0)
(0.00422238 -0.000361428 0 0.0029506 0 0)
(0.0123479 -0.00186705 0 0.00255907 0 0)
(0.0108071 -0.00174316 0 0.00213688 0 0)
(0.00911007 -0.00119386 0 0.00219881 0 0)
(0.00870049 -0.000791405 0 0.00247706 0 0)
(0.00837706 -0.000532196 0 0.00286857 0 0)
(0.00808549 -0.000284934 0 0.00333273 0 0)
(0.0079345 4.35928e-05 0 0.00385279 0 0)
(0.00792767 0.000493306 0 0.00442662 0 0)
(0.00804904 0.0010696 0 0.00506038 0 0)
(0.00830404 0.00176319 0 0.00575644 0 0)
(0.00871418 0.00256798 0 0.00651908 0 0)
(0.00930289 0.00348031 0 0.00734146 0 0)
(0.0100984 0.00450807 0 0.00822976 0 0)
(0.0111168 0.00564957 0 0.00916314 0 0)
(0.0123818 0.00691792 0 0.0101612 0 0)
(0.0139076 0.00829593 0 0.011179 0 0)
(0.015688 0.00980927 0 0.0122565 0 0)
(0.0036998 -0.000176384 0 0.00281176 0 0)
(0.0120372 -0.00160858 0 0.00202801 0 0)
(0.0105468 -0.00158545 0 0.00164868 0 0)
(0.00881776 -0.00111305 0 0.00169741 0 0)
(0.008359 -0.000719317 0 0.00191338 0 0)
(0.00799363 -0.000453661 0 0.00221397 0 0)
(0.00767413 -0.000219952 0 0.00256092 0 0)
(0.00751186 7.71695e-05 0 0.00294783 0 0)
(0.00752004 0.000491573 0 0.00338022 0 0)
(0.00769704 0.00103355 0 0.00386286 0 0)
(0.00805411 0.00168915 0 0.0043921 0 0)
(0.00860777 0.0024431 0 0.004965 0 0)
(0.00937209 0.00328538 0 0.00557358 0 0)
(0.0103675 0.00421762 0 0.00621989 0 0)
(0.0116067 0.00523797 0 0.00688656 0 0)
(0.0131091 0.00635672 0 0.00758744 0 0)
(0.0148845 0.00755845 0 0.00828954 0 0)
(0.016927 0.00886107 0 0.00902049 0 0)
(0.00400917 -0.000276415 0 0.00245441 0 0)
(0.0118271 -0.00147711 0 0.00191174 0 0)
(0.0102552 -0.00130795 0 0.00152508 0 0)
(0.00854403 -0.000811418 0 0.00144001 0 0)
(0.00810174 -0.00043891 0 0.00151473 0 0)
(0.00775668 -0.000187236 0 0.00166744 0 0)
(0.00747545 3.82214e-05 0 0.00185142 0 0)
(0.0073841 0.000307354 0 0.00205261 0 0)
(0.00749543 0.000658023 0 0.00227855 0 0)
(0.00779691 0.00110131 0 0.00254044 0 0)
(0.00829597 0.00163211 0 0.00283953 0 0)
(0.00901056 0.00224232 0 0.0031715 0 0)
(0.00995838 0.00292573 0 0.00352772 0 0)
(0.0111566 0.00368247 0 0.0039082 0 0)
(0.0126188 0.0045082 0 0.00430181 0 0)
(0.0143545 0.00540621 0 0.00472045 0 0)
(0.0163775 0.00636567 0 0.00514426 0 0)
(0.018663 0.00739496 0 0.00558988 0 0)
(0.00400404 -0.000377315 0 0.0021606 0 0)
(0.0116467 -0.00135276 0 0.0015279 0 0)
(0.00980889 -0.000999713 0 0.00120301 0 0)
(0.00813432 -0.000441075 0 0.00117126 0 0)
(0.00790378 -5.07843e-05 0 0.00125055 0 0)
(0.00776555 0.000195933 0 0.00137504 0 0)
(0.00765552 0.000411094 0 0.00152008 0 0)
(0.00773529 0.000678274 0 0.0016815 0 0)
(0.00805275 0.00103559 0 0.00186007 0 0)
(0.00860653 0.00148398 0 0.00205579 0 0)
(0.00939797 0.00200793 0 0.00226579 0 0)
(0.0104381 0.00259222 0 0.00248907 0 0)
(0.0117402 0.00322741 0 0.00272358 0 0)
(0.013319 0.00391366 0 0.00297228 0 0)
(0.0151783 0.00464751 0 0.0032291 0 0)
(0.0173186 0.00543394 0 0.00350418 0 0)
(0.0197424 0.00626308 0 0.00378408 0 0)
(0.0224242 0.00714759 0 0.00407604 0 0)
(0.00436205 -0.000292448 0 0.00192725 0 0)
(0.0118245 -0.0011308 0 0.00123862 0 0)
(0.00985207 -0.000853607 0 0.000840755 0 0)
(0.00810743 -0.000457318 0 0.000767199 0 0)
(0.0078175 -0.00017506 0 0.000791111 0 0)
(0.00762516 8.20571e-06 0 0.00082257 0 0)
(0.00748697 0.000159319 0 0.000854897 0 0)
(0.00757236 0.000335797 0 0.000908561 0 0)
(0.00791882 0.000570795 0 0.00099101 0 0)
(0.0085147 0.000871225 0 0.00109464 0 0)
(0.00936267 0.00122762 0 0.00120977 0 0)
(0.0104789 0.00162994 0 0.00133295 0 0)
(0.0118789 0.00207283 0 0.00146365 0 0)
(0.0135698 0.0025564 0 0.00160378 0 0)
(0.0155494 0.00307793 0 0.00174953 0 0)
(0.0178087 0.00363873 0 0.00190622 0 0)
(0.0203494 0.0042308 0 0.0020662 0 0)
(0.0231371 0.00486308 0 0.0022345 0 0)
(0.00422454 -0.000252477 0 0.00178217 0 0)
(0.0115511 -0.000876552 0 0.000999612 0 0)
(0.00944473 -0.000715992 0 0.000658551 0 0)
(0.00776788 -0.000362932 0 0.000624839 0 0)
(0.0075695 -5.72575e-05 0 0.000648198 0 0)
(0.00749663 0.000155339 0 0.00067296 0 0)
(0.00756856 0.000326638 0 0.000694331 0 0)
(0.00794192 0.00050689 0 0.000719965 0 0)
(0.00860299 0.000724187 0 0.00075637 0 0)
(0.00950087 0.00098728 0 0.000803066 0 0)
(0.0106325 0.00129232 0 0.000857528 0 0)
(0.01203 0.00163411 0 0.000919053 0 0)
(0.0137261 0.00200862 0 0.000987481 0 0)
(0.015738 0.0024149 0 0.00106409 0 0)
(0.0180668 0.00284917 0 0.00114648 0 0)
(0.0207015 0.00331223 0 0.0012384 0 0)
(0.0236414 0.00379616 0 0.00133539 0 0)
(0.0268479 0.00430923 0 0.00144075 0 0)
(0.00355272 -0.000365551 0 0.00149786 0 0)
(0.0108474 -0.000508945 0 0.000681768 0 0)
(0.00877212 -0.000287378 0 0.000381555 0 0)
(0.00730073 -9.60371e-05 0 0.000324231 0 0)
(0.00726457 4.72899e-05 0 0.000303865 0 0)
(0.00731179 0.000130093 0 0.000298345 0 0)
(0.00748438 0.000193876 0 0.000307665 0 0)
(0.00795487 0.000276719 0 0.000325284 0 0)
(0.00872998 0.000392128 0 0.000346574 0 0)
(0.00977835 0.000537797 0 0.000369898 0 0)
(0.0111079 0.000707137 0 0.00039547 0 0)
(0.0127476 0.000894795 0 0.000424256 0 0)
(0.0147161 0.00109808 0 0.000456885 0 0)
(0.0170101 0.00131775 0 0.000494978 0 0)
(0.0196137 0.00155366 0 0.000538144 0 0)
(0.0225035 0.001809 0 0.000588817 0 0)
(0.0256776 0.00207906 0 0.000644713 0 0)
(0.029098 0.0023712 0 0.000706142 0 0)
(0.00423869 -0.000366622 0 0.0012324 0 0)
(0.0107752 -0.000627502 0 0.00050842 0 0)
(0.00846359 -0.000461633 0 0.000343477 0 0)
(0.00720475 -0.000208274 0 0.000309928 0 0)
(0.00733378 -3.32218e-05 0 0.00026723 0 0)
(0.00749371 6.54149e-05 0 0.000228043 0 0)
(0.00784234 0.000143813 0 0.000207277 0 0)
(0.00857401 0.000225591 0 0.000199414 0 0)
(0.00966841 0.000310874 0 0.000198066 0 0)
(0.0110647 0.000400263 0 0.000200709 0 0)
(0.0127489 0.000498809 0 0.000207238 0 0)
(0.0147399 0.000611827 0 0.000218327 0 0)
(0.0170532 0.00074262 0 0.000234649 0 0)
(0.0196915 0.000892134 0 0.000256567 0 0)
(0.0226414 0.00105809 0 0.000283517 0 0)
(0.025891 0.0012374 0 0.000316963 0 0)
(0.029436 0.00142453 0 0.000355777 0 0)
(0.033248 0.00161991 0 0.000398922 0 0)
(0.0036252 -0.00020088 0 0.000933762 0 0)
(0.0101373 -7.85089e-06 0 0.00023457 0 0)
(0.0079065 -5.73254e-05 0 0.000144155 0 0)
(0.00675402 -2.65591e-05 0 0.000129344 0 0)
(0.00699011 -3.00458e-05 0 0.000126948 0 0)
(0.00728496 -5.8806e-05 0 0.000127504 0 0)
(0.00777704 -9.11833e-05 0 0.000128109 0 0)
(0.00863048 -0.000121005 0 0.000129379 0 0)
(0.00979277 -0.000146909 0 0.000132836 0 0)
(0.0111795 -0.000164968 0 0.000138655 0 0)
(0.012758 -0.000170779 0 0.000145933 0 0)
(0.0145464 -0.000162828 0 0.000153869 0 0)
(0.0165591 -0.000140526 0 0.0001626 0 0)
(0.0188256 -0.000102662 0 0.000173218 0 0)
(0.0213321 -4.70287e-05 0 0.000186119 0 0)
(0.0241156 2.7626e-05 0 0.000202433 0 0)
(0.02714 0.000121518 0 0.000221937 0 0)
(0.0304668 0.000235932 0 0.000243624 0 0)
(0.0038497 -0.00028988 0 0.000723818 0 0)
(0.0107141 -2.55131e-05 0 0.000214293 0 0)
(0.00933068 2.34467e-05 0 0.000132048 0 0)
(0.00882439 8.00659e-05 0 9.93837e-05 0 0)
(0.00950839 9.40331e-05 0 8.02323e-05 0 0)
(0.0101759 0.000101202 0 6.72018e-05 0 0)
(0.0108618 0.000109666 0 5.77821e-05 0 0)
(0.0117188 0.000117528 0 5.1612e-05 0 0)
(0.0128017 0.000125584 0 4.79339e-05 0 0)
(0.0141325 0.00013693 0 4.59651e-05 0 0)
(0.0157309 0.000154926 0 4.52804e-05 0 0)
(0.0176187 0.000181981 0 4.56587e-05 0 0)
(0.0198265 0.00021951 0 4.68815e-05 0 0)
(0.0223945 0.00026786 0 4.87068e-05 0 0)
(0.0253782 0.000326359 0 5.10689e-05 0 0)
(0.0288085 0.000393682 0 5.42738e-05 0 0)
(0.0327488 0.000468348 0 5.78727e-05 0 0)
(0.0371699 0.000551841 0 6.12609e-05 0 0)
(0.00219575 -0.00566041 9.69248e-23 0.0150584 -2.1806e-22 8.72299e-38)
(0.0254173 -0.0206109 -2.82809e-22 0.0170785 1.85946e-22 8.60091e-38)
(0.0673699 -0.0284166 0 0.0127483 0 0)
(0.11066 -0.0268873 0 0.0081241 0 0)
(0.143357 -0.0194482 0 0.00517044 0 0)
(0.163112 -0.0114268 6.35122e-22 0.00470547 -4.13123e-23 8.10137e-38)
(0.174873 -0.00641185 0 0.00608524 0 0)
(0.184093 -0.00590462 0 0.00873038 0 0)
(0.200302 -0.0112096 0 0.0119381 0 0)
(0.232939 -0.0219234 0 0.0150049 0 0)
(0.291162 -0.0352598 -7.49335e-22 0.0154499 3.71014e-23 7.50405e-38)
(0.378397 -0.0448322 0 0.0131698 0 0)
(0.490583 -0.052165 0 0.0115871 0 0)
(0.620668 -0.0606408 0 0.010376 0 0)
(0.763278 -0.0666005 0 0.00921766 0 0)
(0.915587 -0.0687587 -9.43176e-22 0.00794575 5.99691e-23 6.93595e-38)
(1.06922 -0.0668577 0 0.00664973 0 0)
(1.21344 -0.0598956 0 0.00547194 0 0)
(1.34109 -0.0492745 0 0.0049048 0 0)
(1.44846 -0.0369163 0 0.00503497 0 0)
(1.53535 -0.0245915 0 0.00566708 0 0)
(1.60308 -0.0139937 0 0.00650863 0 0)
(1.65458 -0.00603064 0 0.0075753 0 0)
(1.69434 -0.000276112 -1.66067e-21 0.00902951 1.31318e-22 6.08714e-38)
(1.72671 0.00294038 1.80855e-21 0.0100437 -1.37315e-22 5.98622e-38)
(1.7565 0.00154255 -1.9684e-21 0.00981859 1.45053e-22 5.88645e-38)
(1.79073 -0.00408248 -2.13882e-21 0.0108921 1.54134e-22 5.78782e-38)
(1.83313 -0.0102449 0 0.0131587 0 0)
(1.88124 -0.0153865 0 0.0158232 0 0)
(1.93283 -0.0201544 2.68076e-21 0.0197646 -1.47938e-22 5.4988e-38)
(1.98842 -0.0267548 2.8582e-21 0.026641 -1.34666e-22 5.40474e-38)
(2.05304 -0.037004 0 0.0357443 0 0)
(2.12792 -0.0504932 0 0.0432028 0 0)
(2.21 -0.0616878 3.37347e-21 0.044986 -1.18093e-22 5.12939e-38)
(2.29732 -0.0675507 0 0.0435764 0 0)
(2.39201 -0.0739271 0 0.0433535 0 0)
(2.4972 -0.0865515 -3.87337e-21 0.0446678 1.178e-22 4.86425e-38)
(2.61185 -0.0996811 0 0.0457903 0 0)
(2.73671 -0.102066 -4.18023e-21 0.04443 1.09184e-22 4.69313e-38)
(2.86769 -0.107057 -8.647e-21 0.0469471 2.12071e-22 1.8437e-37)
(3.01225 -0.116578 0 0.046832 0 0)
(3.15869 -0.113159 0 0.0466712 0 0)
(3.30659 -0.122684 0 0.0428429 0 0)
(3.48381 -0.1399 0 0.0417347 0 0)
(3.67169 -0.142823 0 0.0414371 0 0)
(3.86106 -0.128083 -9.97921e-21 0.0390539 1.68161e-22 1.65173e-37)
(4.03799 -0.114104 -1.01288e-20 0.0356138 1.57832e-22 1.62128e-37)
(4.20588 -0.106313 -1.02533e-20 0.0295651 1.39047e-22 1.59125e-37)
(4.36309 -0.0963779 0 0.0259145 0 0)
(4.50354 -0.0865704 1.04295e-20 0.0240801 -1.13149e-22 1.53248e-37)
(4.62621 -0.0780052 0 0.0229428 0 0)
(4.72886 -0.0695096 -1.05217e-20 0.0222566 9.18025e-23 1.47541e-37)
(4.81376 -0.0603757 -1.05361e-20 0.0222667 8.43522e-23 1.4475e-37)
(4.88645 -0.0529618 0 0.0228061 0 0)
(4.95589 -0.05029 0 0.0232455 0 0)
(5.03306 -0.0524694 0 0.0235316 0 0)
(5.12177 -0.0552499 -1.0395e-20 0.0228924 5.23526e-23 1.33999e-37)
(5.20823 -0.0534894 0 0.0210819 0 0)
(5.27655 -0.0493864 0 0.0200719 0 0)
(5.32736 -0.0440082 0 0.0203693 0 0)
(5.36313 -0.0373907 0 0.0217648 0 0)
(5.38403 -0.030932 0 0.0238806 0 0)
(5.3939 -0.0270709 0 0.0258224 0 0)
(5.40052 -0.0274489 0 0.0266289 0 0)
(5.41414 -0.0307471 0 0.0270036 0 0)
(5.446 -0.0372005 9.68195e-21 0.0278124 -4.22344e-23 1.12115e-37)
(5.50808 -0.0465543 0 0.0280383 0 0)
(5.60605 -0.0554045 0 0.0273552 0 0)
(5.73343 -0.0585647 -9.55541e-21 0.0257624 4.90914e-23 1.05494e-37)
(5.86097 -0.050517 -9.52545e-21 0.0223276 5.16338e-23 1.03358e-37)
(5.95256 -0.0280527 0 0.0177885 0 0)
(5.96156 -0.0186162 9.50748e-21 0.0171498 -5.803e-23 9.91909e-38)
(5.94929 -0.0360823 -9.50659e-21 0.0142996 5.21642e-23 9.71588e-38)
(5.98011 -0.0453105 0 0.0120961 0 0)
(6.02831 -0.0439773 9.46943e-21 0.0126623 -4.26133e-23 9.31953e-38)
(6.10155 -0.0514892 0 0.0147854 0 0)
(6.21644 -0.0638938 0 0.0189349 0 0)
(6.37321 -0.0739135 -9.35983e-21 0.0234853 3.96917e-23 8.74956e-38)
(6.56204 -0.0800858 0 0.0246903 0 0)
(6.76542 -0.0802773 9.24787e-21 0.0221698 -3.61242e-23 8.38548e-38)
(6.96162 -0.074025 0 0.0189206 0 0)
(7.12891 -0.0629209 -9.0956e-21 0.0162004 2.59828e-23 8.03374e-38)
(7.25414 -0.049054 -8.99894e-21 0.0142877 2.02983e-23 7.86239e-38)
(7.33153 -0.0339216 -8.88812e-21 0.0131595 1.41671e-23 7.694e-38)
(7.35904 -0.018407 -1.7525e-20 0.0126682 1.68528e-23 3.01141e-37)
(7.33669 -0.00339756 1.72444e-20 0.0127074 -9.78572e-24 2.94638e-37)
(7.2653 0.00972875 0 0.0131426 0 0)
(7.14914 0.0183804 0 0.0138138 0 0)
(6.99933 0.022128 0 0.0143487 0 0)
(6.83074 0.0250263 1.59473e-20 0.0142589 7.60594e-24 2.69745e-37)
(6.64425 0.0249434 1.56104e-20 0.0142627 5.20778e-24 2.63793e-37)
(6.46507 0.0134792 -1.52787e-20 0.0138359 -9.32613e-24 2.57948e-37)
(6.33251 0.00155823 0 0.0126364 0 0)
(6.23762 -0.00260414 1.46351e-20 0.0122427 3.33452e-24 2.46568e-37)
(6.15742 -0.0026392 1.43378e-20 0.0117506 1.1473e-24 2.41031e-37)
(6.08048 -0.000278239 1.40536e-20 0.0109894 7.08037e-26 2.35593e-37)
(6.00395 0.00350163 0 0.0100201 0 0)
(5.93271 0.00512985 0 0.00938311 0 0)
(5.87563 0.00294608 0 0.00849549 0 0)
(5.83082 0.00130407 1.29991e-20 0.00692139 4.32745e-24 2.1481e-37)
(5.78782 0.00206511 0 0.00546298 0 0)
(5.73864 0.00450903 0 0.00433937 0 0)
(5.67877 0.00778418 -1.21943e-20 0.00351497 -1.59476e-23 2.00198e-37)
(5.60612 0.0113511 0 0.00291021 0 0)
(5.5198 0.0149721 0 0.0024534 0 0)
(5.41922 0.0186145 -1.13361e-20 0.00209443 -2.49774e-23 1.86381e-37)
(5.30359 0.0223467 0 0.00180284 0 0)
(5.17167 0.0262493 0 0.00156455 0 0)
(5.0219 0.0303669 1.03988e-20 0.00137498 3.34007e-23 1.73322e-37)
(4.85261 0.0346986 1.00611e-20 0.00123385 3.63457e-23 1.69132e-37)
(4.66226 0.0391915 0 0.00114288 0 0)
(4.44961 0.0437285 -9.34222e-21 0.00110244 -4.19089e-23 1.60987e-37)
(4.21418 0.0481207 0 0.00111271 0 0)
(3.95668 0.0521052 8.57365e-21 0.00116912 4.57756e-23 1.53148e-37)
(3.67935 0.0553722 0 0.00126249 0 0)
(3.38609 0.057615 7.78743e-21 0.00137873 4.63105e-23 1.45606e-37)
(3.0823 0.058593 7.40307e-21 0.00149819 4.50714e-23 1.41944e-37)
(2.77451 0.0581914 0 0.00160079 0 0)
(2.46991 0.0564428 0 0.00166904 0 0)
(2.17535 0.0535002 0 0.00168992 0 0)
(1.89627 0.0496675 0 0.00166263 0 0)
(1.63641 0.0453022 0 0.00159678 0 0)
(1.39804 0.0407265 0 0.00150652 0 0)
(1.18208 0.03614 0 0.00140295 0 0)
(0.98859 0.0317236 5.11833e-21 0.00129947 1.92756e-23 1.151e-37)
(0.817227 0.0276002 -4.93816e-21 0.00121051 -1.63842e-23 1.12035e-37)
(0.667282 0.0235885 0 0.00111584 0 0)
(0.538218 0.0197369 0 0.00101771 0 0)
(0.429497 0.0160715 0 0.000913951 0 0)
(0.340306 0.0126576 0 0.000805065 0 0)
(0.269404 0.00957928 -8.57896e-21 0.000694977 -9.02187e-24 3.90435e-37)
(0.215141 0.00689989 0 0.000588557 0 0)
(0.175511 0.00465828 8.22897e-21 0.00049127 2.70203e-24 3.68957e-37)
(0.148232 0.00284677 -8.07555e-21 0.000406402 -1.43553e-25 3.58548e-37)
(0.131004 0.00142649 0 0.0003351 0 0)
(0.121767 0.000355285 0 0.00027814 0 0)
(0.118737 -0.000425199 0 0.00023413 0 0)
(0.120408 -0.000971186 7.55176e-21 0.000201364 -7.10671e-24 3.19023e-37)
(0.12555 -0.00133149 7.43721e-21 0.000178185 -8.41585e-24 3.09653e-37)
(0.133175 -0.00154758 0 0.000163237 0 0)
(0.142485 -0.00165245 7.2235e-21 0.00015531 -1.06631e-23 2.91503e-37)
(0.152863 -0.00167064 7.12366e-21 0.000153324 -1.16186e-23 2.82717e-37)
(0.163776 -0.00161203 -7.02814e-21 0.000156143 1.24859e-23 2.74119e-37)
(0.174756 -0.00148283 0 0.000162499 0 0)
(0.185387 -0.00128643 0 0.000171493 0 0)