# vtk DataFile Version 2.0
sampleSurface
ASCII
DATASET POLYDATA
POINTS 502 double
-0.0206 0 -0.0005
-0.0190172 0 -0.0005
-0.0190172 0 0.0005
-0.0206 0 0.0005
-0.0174976 0 -0.0005
-0.0174976 0 0.0005
-0.0160387 0 -0.0005
-0.0160387 0 0.0005
-0.0146381 0 -0.0005
-0.0146381 0 0.0005
-0.0132934 0 -0.0005
-0.0132934 0 0.0005
-0.0120025 0 -0.0005
-0.0120025 0 0.0005
-0.0107632 0 -0.0005
-0.0107632 0 0.0005
-0.00957337 0 -0.0005
-0.00957337 0 0.0005
-0.00843108 0 -0.0005
-0.00843108 0 0.0005
-0.00733443 0 -0.0005
-0.00733443 0 0.0005
-0.0062816 0 -0.0005
-0.0062816 0 0.0005
-0.00527083 0 -0.0005
-0.00527083 0 0.0005
-0.00430044 0 -0.0005
-0.00430044 0 0.0005
-0.00336883 0 -0.0005
-0.00336883 0 0.0005
-0.00247443 0 -0.0005
-0.00247443 0 0.0005
-0.00161577 0 -0.0005
-0.00161577 0 0.0005
-0.000791418 0 -0.0005
-0.000791418 0 0.0005
0 0 -0.0005
0 0 0.0005
0 -0.0254 -0.0005
0 -0.0254 0.0005
0 -0.0242711 0.0005
0 -0.0242711 -0.0005
0 -0.0231422 0.0005
0 -0.0231422 -0.0005
0 -0.0220133 0.0005
0 -0.0220133 -0.0005
0 -0.0208844 0.0005
0 -0.0208844 -0.0005
0 -0.0197556 0.0005
0 -0.0197556 -0.0005
0 -0.0186267 0.0005
0 -0.0186267 -0.0005
0 -0.0174978 0.0005
0 -0.0174978 -0.0005
0 -0.0163689 0.0005
0 -0.0163689 -0.0005
0 -0.01524 0.0005
0 -0.01524 -0.0005
0 -0.0141111 0.0005
0 -0.0141111 -0.0005
0 -0.0129822 0.0005
0 -0.0129822 -0.0005
0 -0.0118533 0.0005
0 -0.0118533 -0.0005
0 -0.0107244 0.0005
0 -0.0107244 -0.0005
0 -0.00959556 0.0005
0 -0.00959556 -0.0005
0 -0.00846667 0.0005
0 -0.00846667 -0.0005
0 -0.00726604 0.0005
0 -0.00726604 -0.0005
0 -0.00618989 0.0005
0 -0.00618989 -0.0005
0 -0.00522531 0.0005
0 -0.00522531 -0.0005
0 -0.00436073 0.0005
0 -0.00436073 -0.0005
0 -0.00358579 0.0005
0 -0.00358579 -0.0005
0 -0.00289118 0.0005
0 -0.00289118 -0.0005
0 -0.0022686 0.0005
0 -0.0022686 -0.0005
0 -0.00171055 0.0005
0 -0.00171055 -0.0005
0 -0.00121037 0.0005
0 -0.00121037 -0.0005
0 -0.000762037 0.0005
0 -0.000762037 -0.0005
0 -0.000360188 0.0005
0 -0.000360188 -0.0005
0.000528387 -0.0254 -0.0005
0.000528387 -0.0254 0.0005
0.00106088 -0.0254 -0.0005
0.00106088 -0.0254 0.0005
0.00159752 -0.0254 -0.0005
0.00159752 -0.0254 0.0005
0.00213833 -0.0254 -0.0005
0.00213833 -0.0254 0.0005
0.00268334 -0.0254 -0.0005
0.00268334 -0.0254 0.0005
0.00323259 -0.0254 -0.0005
0.00323259 -0.0254 0.0005
0.00378611 -0.0254 -0.0005
0.00378611 -0.0254 0.0005
0.00434393 -0.0254 -0.0005
0.00434393 -0.0254 0.0005
0.00490609 -0.0254 -0.0005
0.00490609 -0.0254 0.0005
0.00547262 -0.0254 -0.0005
0.00547262 -0.0254 0.0005
0.00604356 -0.0254 -0.0005
0.00604356 -0.0254 0.0005
0.00661893 -0.0254 -0.0005
0.00661893 -0.0254 0.0005
0.00719878 -0.0254 -0.0005
0.00719878 -0.0254 0.0005
0.00778313 -0.0254 -0.0005
0.00778313 -0.0254 0.0005
0.00837203 -0.0254 -0.0005
0.00837203 -0.0254 0.0005
0.00896551 -0.0254 -0.0005
0.00896551 -0.0254 0.0005
0.0095636 -0.0254 -0.0005
0.0095636 -0.0254 0.0005
0.0101663 -0.0254 -0.0005
0.0101663 -0.0254 0.0005
0.0107738 -0.0254 -0.0005
0.0107738 -0.0254 0.0005
0.0113859 -0.0254 -0.0005
0.0113859 -0.0254 0.0005
0.0120028 -0.0254 -0.0005
0.0120028 -0.0254 0.0005
0.0126245 -0.0254 -0.0005
0.0126245 -0.0254 0.0005
0.0132511 -0.0254 -0.0005
0.0132511 -0.0254 0.0005
0.0138825 -0.0254 -0.0005
0.0138825 -0.0254 0.0005
0.0145188 -0.0254 -0.0005
0.0145188 -0.0254 0.0005
0.0151601 -0.0254 -0.0005
0.0151601 -0.0254 0.0005
0.0158063 -0.0254 -0.0005
0.0158063 -0.0254 0.0005
0.0164576 -0.0254 -0.0005
0.0164576 -0.0254 0.0005
0.0171139 -0.0254 -0.0005
0.0171139 -0.0254 0.0005
0.0177754 -0.0254 -0.0005
0.0177754 -0.0254 0.0005
0.018442 -0.0254 -0.0005
0.018442 -0.0254 0.0005
0.0191137 -0.0254 -0.0005
0.0191137 -0.0254 0.0005
0.0197907 -0.0254 -0.0005
0.0197907 -0.0254 0.0005
0.020473 -0.0254 -0.0005
0.020473 -0.0254 0.0005
0.0211606 -0.0254 -0.0005
0.0211606 -0.0254 0.0005
0.0218535 -0.0254 -0.0005
0.0218535 -0.0254 0.0005
0.0225517 -0.0254 -0.0005
0.0225517 -0.0254 0.0005
0.0232555 -0.0254 -0.0005
0.0232555 -0.0254 0.0005
0.0239647 -0.0254 -0.0005
0.0239647 -0.0254 0.0005
0.0246794 -0.0254 -0.0005
0.0246794 -0.0254 0.0005
0.0253996 -0.0254 -0.0005
0.0253996 -0.0254 0.0005
0.0261255 -0.0254 -0.0005
0.0261255 -0.0254 0.0005
0.026857 -0.0254 -0.0005
0.026857 -0.0254 0.0005
0.0275942 -0.0254 -0.0005
0.0275942 -0.0254 0.0005
0.0283371 -0.0254 -0.0005
0.0283371 -0.0254 0.0005
0.0290858 -0.0254 -0.0005
0.0290858 -0.0254 0.0005
0.0298403 -0.0254 -0.0005
0.0298403 -0.0254 0.0005
0.0306007 -0.0254 -0.0005
0.0306007 -0.0254 0.0005
0.031367 -0.0254 -0.0005
0.031367 -0.0254 0.0005
0.0321393 -0.0254 -0.0005
0.0321393 -0.0254 0.0005
0.0329175 -0.0254 -0.0005
0.0329175 -0.0254 0.0005
0.0337019 -0.0254 -0.0005
0.0337019 -0.0254 0.0005
0.0344923 -0.0254 -0.0005
0.0344923 -0.0254 0.0005
0.0352888 -0.0254 -0.0005
0.0352888 -0.0254 0.0005
0.0360916 -0.0254 -0.0005
0.0360916 -0.0254 0.0005
0.0369006 -0.0254 -0.0005
0.0369006 -0.0254 0.0005
0.0377158 -0.0254 -0.0005
0.0377158 -0.0254 0.0005
0.0385375 -0.0254 -0.0005
0.0385375 -0.0254 0.0005
0.0393655 -0.0254 -0.0005
0.0393655 -0.0254 0.0005
0.0401999 -0.0254 -0.0005
0.0401999 -0.0254 0.0005
0.0410408 -0.0254 -0.0005
0.0410408 -0.0254 0.0005
0.0418883 -0.0254 -0.0005
0.0418883 -0.0254 0.0005
0.0427424 -0.0254 -0.0005
0.0427424 -0.0254 0.0005
0.0436031 -0.0254 -0.0005
0.0436031 -0.0254 0.0005
0.0444704 -0.0254 -0.0005
0.0444704 -0.0254 0.0005
0.0453446 -0.0254 -0.0005
0.0453446 -0.0254 0.0005
0.0462255 -0.0254 -0.0005
0.0462255 -0.0254 0.0005
0.0471133 -0.0254 -0.0005
0.0471133 -0.0254 0.0005
0.048008 -0.0254 -0.0005
0.048008 -0.0254 0.0005
0.0489096 -0.0254 -0.0005
0.0489096 -0.0254 0.0005
0.0498183 -0.0254 -0.0005
0.0498183 -0.0254 0.0005
0.050734 -0.0254 -0.0005
0.050734 -0.0254 0.0005
0.0516568 -0.0254 -0.0005
0.0516568 -0.0254 0.0005
0.0525868 -0.0254 -0.0005
0.0525868 -0.0254 0.0005
0.053524 -0.0254 -0.0005
0.053524 -0.0254 0.0005
0.0544686 -0.0254 -0.0005
0.0544686 -0.0254 0.0005
0.0554204 -0.0254 -0.0005
0.0554204 -0.0254 0.0005
0.0563797 -0.0254 -0.0005
0.0563797 -0.0254 0.0005
0.0573464 -0.0254 -0.0005
0.0573464 -0.0254 0.0005
0.0583206 -0.0254 -0.0005
0.0583206 -0.0254 0.0005
0.0593025 -0.0254 -0.0005
0.0593025 -0.0254 0.0005
0.0602919 -0.0254 -0.0005
0.0602919 -0.0254 0.0005
0.0612891 -0.0254 -0.0005
0.0612891 -0.0254 0.0005
0.0622939 -0.0254 -0.0005
0.0622939 -0.0254 0.0005
0.0633067 -0.0254 -0.0005
0.0633067 -0.0254 0.0005
0.0643272 -0.0254 -0.0005
0.0643272 -0.0254 0.0005
0.0653557 -0.0254 -0.0005
0.0653557 -0.0254 0.0005
0.0663923 -0.0254 -0.0005
0.0663923 -0.0254 0.0005
0.0674368 -0.0254 -0.0005
0.0674368 -0.0254 0.0005
0.0684895 -0.0254 -0.0005
0.0684895 -0.0254 0.0005
0.0695504 -0.0254 -0.0005
0.0695504 -0.0254 0.0005
0.0706195 -0.0254 -0.0005
0.0706195 -0.0254 0.0005
0.0716969 -0.0254 -0.0005
0.0716969 -0.0254 0.0005
0.0727828 -0.0254 -0.0005
0.0727828 -0.0254 0.0005
0.073877 -0.0254 -0.0005
0.073877 -0.0254 0.0005
0.0749798 -0.0254 -0.0005
0.0749798 -0.0254 0.0005
0.0760911 -0.0254 -0.0005
0.0760911 -0.0254 0.0005
0.0772111 -0.0254 -0.0005
0.0772111 -0.0254 0.0005
0.0783398 -0.0254 -0.0005
0.0783398 -0.0254 0.0005
0.0794772 -0.0254 -0.0005
0.0794772 -0.0254 0.0005
0.0806235 -0.0254 -0.0005
0.0806235 -0.0254 0.0005
0.0817787 -0.0254 -0.0005
0.0817787 -0.0254 0.0005
0.0829429 -0.0254 -0.0005
0.0829429 -0.0254 0.0005
0.0841162 -0.0254 -0.0005
0.0841162 -0.0254 0.0005
0.0852985 -0.0254 -0.0005
0.0852985 -0.0254 0.0005
0.0864901 -0.0254 -0.0005
0.0864901 -0.0254 0.0005
0.0876909 -0.0254 -0.0005
0.0876909 -0.0254 0.0005
0.0889011 -0.0254 -0.0005
0.0889011 -0.0254 0.0005
0.0901207 -0.0254 -0.0005
0.0901207 -0.0254 0.0005
0.0913497 -0.0254 -0.0005
0.0913497 -0.0254 0.0005
0.0925883 -0.0254 -0.0005
0.0925883 -0.0254 0.0005
0.0938366 -0.0254 -0.0005
0.0938366 -0.0254 0.0005
0.0950945 -0.0254 -0.0005
0.0950945 -0.0254 0.0005
0.0963622 -0.0254 -0.0005
0.0963622 -0.0254 0.0005
0.0976398 -0.0254 -0.0005
0.0976398 -0.0254 0.0005
0.0989273 -0.0254 -0.0005
0.0989273 -0.0254 0.0005
0.100225 -0.0254 -0.0005
0.100225 -0.0254 0.0005
0.101532 -0.0254 -0.0005
0.101532 -0.0254 0.0005
0.10285 -0.0254 -0.0005
0.10285 -0.0254 0.0005
0.104178 -0.0254 -0.0005
0.104178 -0.0254 0.0005
0.105517 -0.0254 -0.0005
0.105517 -0.0254 0.0005
0.106865 -0.0254 -0.0005
0.106865 -0.0254 0.0005
0.108225 -0.0254 -0.0005
0.108225 -0.0254 0.0005
0.109594 -0.0254 -0.0005
0.109594 -0.0254 0.0005
0.110975 -0.0254 -0.0005
0.110975 -0.0254 0.0005
0.112366 -0.0254 -0.0005
0.112366 -0.0254 0.0005
0.113768 -0.0254 -0.0005
0.113768 -0.0254 0.0005
0.115181 -0.0254 -0.0005
0.115181 -0.0254 0.0005
0.116605 -0.0254 -0.0005
0.116605 -0.0254 0.0005
0.11804 -0.0254 -0.0005
0.11804 -0.0254 0.0005
0.119486 -0.0254 -0.0005
0.119486 -0.0254 0.0005
0.120943 -0.0254 -0.0005
0.120943 -0.0254 0.0005
0.122412 -0.0254 -0.0005
0.122412 -0.0254 0.0005
0.123892 -0.0254 -0.0005
0.123892 -0.0254 0.0005
0.125384 -0.0254 -0.0005
0.125384 -0.0254 0.0005
0.126887 -0.0254 -0.0005
0.126887 -0.0254 0.0005
0.128402 -0.0254 -0.0005
0.128402 -0.0254 0.0005
0.129928 -0.0254 -0.0005
0.129928 -0.0254 0.0005
0.131467 -0.0254 -0.0005
0.131467 -0.0254 0.0005
0.133017 -0.0254 -0.0005
0.133017 -0.0254 0.0005
0.13458 -0.0254 -0.0005
0.13458 -0.0254 0.0005
0.136155 -0.0254 -0.0005
0.136155 -0.0254 0.0005
0.137742 -0.0254 -0.0005
0.137742 -0.0254 0.0005
0.139341 -0.0254 -0.0005
0.139341 -0.0254 0.0005
0.140953 -0.0254 -0.0005
0.140953 -0.0254 0.0005
0.142577 -0.0254 -0.0005
0.142577 -0.0254 0.0005
0.144214 -0.0254 -0.0005
0.144214 -0.0254 0.0005
0.145863 -0.0254 -0.0005
0.145863 -0.0254 0.0005
0.147526 -0.0254 -0.0005
0.147526 -0.0254 0.0005
0.149201 -0.0254 -0.0005
0.149201 -0.0254 0.0005
0.15089 -0.0254 -0.0005
0.15089 -0.0254 0.0005
0.152591 -0.0254 -0.0005
0.152591 -0.0254 0.0005
0.154306 -0.0254 -0.0005
0.154306 -0.0254 0.0005
0.156034 -0.0254 -0.0005
0.156034 -0.0254 0.0005
0.157775 -0.0254 -0.0005
0.157775 -0.0254 0.0005
0.159531 -0.0254 -0.0005
0.159531 -0.0254 0.0005
0.161299 -0.0254 -0.0005
0.161299 -0.0254 0.0005
0.163082 -0.0254 -0.0005
0.163082 -0.0254 0.0005
0.164878 -0.0254 -0.0005
0.164878 -0.0254 0.0005
0.166688 -0.0254 -0.0005
0.166688 -0.0254 0.0005
0.168513 -0.0254 -0.0005
0.168513 -0.0254 0.0005
0.170351 -0.0254 -0.0005
0.170351 -0.0254 0.0005
0.172204 -0.0254 -0.0005
0.172204 -0.0254 0.0005
0.174071 -0.0254 -0.0005
0.174071 -0.0254 0.0005
0.175953 -0.0254 -0.0005
0.175953 -0.0254 0.0005
0.177849 -0.0254 -0.0005
0.177849 -0.0254 0.0005
0.17976 -0.0254 -0.0005
0.17976 -0.0254 0.0005
0.181686 -0.0254 -0.0005
0.181686 -0.0254 0.0005
0.183627 -0.0254 -0.0005
0.183627 -0.0254 0.0005
0.185583 -0.0254 -0.0005
0.185583 -0.0254 0.0005
0.187555 -0.0254 -0.0005
0.187555 -0.0254 0.0005
0.189541 -0.0254 -0.0005
0.189541 -0.0254 0.0005
0.191543 -0.0254 -0.0005
0.191543 -0.0254 0.0005
0.193561 -0.0254 -0.0005
0.193561 -0.0254 0.0005
0.195594 -0.0254 -0.0005
0.195594 -0.0254 0.0005
0.197643 -0.0254 -0.0005
0.197643 -0.0254 0.0005
0.199708 -0.0254 -0.0005
0.199708 -0.0254 0.0005
0.201789 -0.0254 -0.0005
0.201789 -0.0254 0.0005
0.203886 -0.0254 -0.0005
0.203886 -0.0254 0.0005
0.206 -0.0254 -0.0005
0.206 -0.0254 0.0005
0.208047 -0.0251856 -0.0005
0.208047 -0.0251856 0.0005
0.210173 -0.0249628 -0.0005
0.210173 -0.0249628 0.0005
0.212382 -0.0247314 -0.0005
0.212382 -0.0247314 0.0005
0.214677 -0.024491 -0.0005
0.214677 -0.024491 0.0005
0.217061 -0.0242412 -0.0005
0.217061 -0.0242412 0.0005
0.219538 -0.0239817 -0.0005
0.219538 -0.0239817 0.0005
0.222112 -0.0237121 -0.0005
0.222112 -0.0237121 0.0005
0.224785 -0.023432 -0.0005
0.224785 -0.023432 0.0005
0.227563 -0.023141 -0.0005
0.227563 -0.023141 0.0005
0.230449 -0.0228387 -0.0005
0.230449 -0.0228387 0.0005
0.233447 -0.0225246 -0.0005
0.233447 -0.0225246 0.0005
0.236562 -0.0221983 -0.0005
0.236562 -0.0221983 0.0005
0.239797 -0.0218593 -0.0005
0.239797 -0.0218593 0.0005
0.243159 -0.0215071 -0.0005
0.243159 -0.0215071 0.0005
0.246652 -0.0211412 -0.0005
0.246652 -0.0211412 0.0005
0.250281 -0.0207611 -0.0005
0.250281 -0.0207611 0.0005
0.254051 -0.0203661 -0.0005
0.254051 -0.0203661 0.0005
0.257967 -0.0199558 -0.0005
0.257967 -0.0199558 0.0005
0.262036 -0.0195295 -0.0005
0.262036 -0.0195295 0.0005
0.266264 -0.0190867 -0.0005
0.266264 -0.0190867 0.0005
0.270655 -0.0186266 -0.0005
0.270655 -0.0186266 0.0005
0.275218 -0.0181486 -0.0005
0.275218 -0.0181486 0.0005
0.279959 -0.017652 -0.0005
0.279959 -0.017652 0.0005
0.284883 -0.017136 -0.0005
0.284883 -0.017136 0.0005
0.29 -0.0166 -0.0005
0.29 -0.0166 0.0005

POLYGONS 250 1250
4 0 1 2 3
4 1 4 5 2
4 4 6 7 5
4 6 8 9 7
4 8 10 11 9
4 10 12 13 11
4 12 14 15 13
4 14 16 17 15
4 16 18 19 17
4 18 20 21 19
4 20 22 23 21
4 22 24 25 23
4 24 26 27 25
4 26 28 29 27
4 28 30 31 29
4 30 32 33 31
4 32 34 35 33
4 34 36 37 35
4 38 39 40 41
4 41 40 42 43
4 43 42 44 45
4 45 44 46 47
4 47 46 48 49
4 49 48 50 51
4 51 50 52 53
4 53 52 54 55
4 55 54 56 57
4 57 56 58 59
4 59 58 60 61
4 61 60 62 63
4 63 62 64 65
4 65 64 66 67
4 67 66 68 69
4 69 68 70 71
4 71 70 72 73
4 73 72 74 75
4 75 74 76 77
4 77 76 78 79
4 79 78 80 81
4 81 80 82 83
4 83 82 84 85
4 85 84 86 87
4 87 86 88 89
4 89 88 90 91
4 91 90 37 36
4 38 92 93 39
4 92 94 95 93
4 94 96 97 95
4 96 98 99 97
4 98 100 101 99
4 100 102 103 101
4 102 104 105 103
4 104 106 107 105
4 106 108 109 107
4 108 110 111 109
4 110 112 113 111
4 112 114 115 113
4 114 116 117 115
4 116 118 119 117
4 118 120 121 119
4 120 122 123 121
4 122 124 125 123
4 124 126 127 125
4 126 128 129 127
4 128 130 131 129
4 130 132 133 131
4 132 134 135 133
4 134 136 137 135
4 136 138 139 137
4 138 140 141 139
4 140 142 143 141
4 142 144 145 143
4 144 146 147 145
4 146 148 149 147
4 148 150 151 149
4 150 152 153 151
4 152 154 155 153
4 154 156 157 155
4 156 158 159 157
4 158 160 161 159
4 160 162 163 161
4 162 164 165 163
4 164 166 167 165
4 166 168 169 167
4 168 170 171 169
4 170 172 173 171
4 172 174 175 173
4 174 176 177 175
4 176 178 179 177
4 178 180 181 179
4 180 182 183 181
4 182 184 185 183
4 184 186 187 185
4 186 188 189 187
4 188 190 191 189
4 190 192 193 191
4 192 194 195 193
4 194 196 197 195
4 196 198 199 197
4 198 200 201 199
4 200 202 203 201
4 202 204 205 203
4 204 206 207 205
4 206 208 209 207
4 208 210 211 209
4 210 212 213 211
4 212 214 215 213
4 214 216 217 215
4 216 218 219 217
4 218 220 221 219
4 220 222 223 221
4 222 224 225 223
4 224 226 227 225
4 226 228 229 227
4 228 230 231 229
4 230 232 233 231
4 232 234 235 233
4 234 236 237 235
4 236 238 239 237
4 238 240 241 239
4 240 242 243 241
4 242 244 245 243
4 244 246 247 245
4 246 248 249 247
4 248 250 251 249
4 250 252 253 251
4 252 254 255 253
4 254 256 257 255
4 256 258 259 257
4 258 260 261 259
4 260 262 263 261
4 262 264 265 263
4 264 266 267 265
4 266 268 269 267
4 268 270 271 269
4 270 272 273 271
4 272 274 275 273
4 274 276 277 275
4 276 278 279 277
4 278 280 281 279
4 280 282 283 281
4 282 284 285 283
4 284 286 287 285
4 286 288 289 287
4 288 290 291 289
4 290 292 293 291
4 292 294 295 293
4 294 296 297 295
4 296 298 299 297
4 298 300 301 299
4 300 302 303 301
4 302 304 305 303
4 304 306 307 305
4 306 308 309 307
4 308 310 311 309
4 310 312 313 311
4 312 314 315 313
4 314 316 317 315
4 316 318 319 317
4 318 320 321 319
4 320 322 323 321
4 322 324 325 323
4 324 326 327 325
4 326 328 329 327
4 328 330 331 329
4 330 332 333 331
4 332 334 335 333
4 334 336 337 335
4 336 338 339 337
4 338 340 341 339
4 340 342 343 341
4 342 344 345 343
4 344 346 347 345
4 346 348 349 347
4 348 350 351 349
4 350 352 353 351
4 352 354 355 353
4 354 356 357 355
4 356 358 359 357
4 358 360 361 359
4 360 362 363 361
4 362 364 365 363
4 364 366 367 365
4 366 368 369 367
4 368 370 371 369
4 370 372 373 371
4 372 374 375 373
4 374 376 377 375
4 376 378 379 377
4 378 380 381 379
4 380 382 383 381
4 382 384 385 383
4 384 386 387 385
4 386 388 389 387
4 388 390 391 389
4 390 392 393 391
4 392 394 395 393
4 394 396 397 395
4 396 398 399 397
4 398 400 401 399
4 400 402 403 401
4 402 404 405 403
4 404 406 407 405
4 406 408 409 407
4 408 410 411 409
4 410 412 413 411
4 412 414 415 413
4 414 416 417 415
4 416 418 419 417
4 418 420 421 419
4 420 422 423 421
4 422 424 425 423
4 424 426 427 425
4 426 428 429 427
4 428 430 431 429
4 430 432 433 431
4 432 434 435 433
4 434 436 437 435
4 436 438 439 437
4 438 440 441 439
4 440 442 443 441
4 442 444 445 443
4 444 446 447 445
4 446 448 449 447
4 448 450 451 449
4 450 452 453 451
4 452 454 455 453
4 454 456 457 455
4 456 458 459 457
4 458 460 461 459
4 460 462 463 461
4 462 464 465 463
4 464 466 467 465
4 466 468 469 467
4 468 470 471 469
4 470 472 473 471
4 472 474 475 473
4 474 476 477 475
4 476 478 479 477
4 478 480 481 479
4 480 482 483 481
4 482 484 485 483
4 484 486 487 485
4 486 488 489 487
4 488 490 491 489
4 490 492 493 491
4 492 494 495 493
4 494 496 497 495
4 496 498 499 497
4 498 500 501 499
POINT_DATA 502
FIELD attributes 1
U 3 502 float
1.56871 0.0758005 -0.00359563
0.786143 0.0377226 -0.00177193
0.786143 0.0377226 -0.00177193
1.56871 0.0758005 -0.00359563
0.0243443 0.000660879 0
0.0243443 0.000660879 0
0.0217452 0.000545922 0
0.0217452 0.000545922 0
0.0194276 0.000464573 0
0.0194276 0.000464573 0
0.0172019 0.000408244 0
0.0172019 0.000408244 0
0.0151142 0.000358683 0
0.0151142 0.000358683 0
0.0131915 0.000314587 0
0.0131915 0.000314587 0
0.0114191 0.000273418 0
0.0114191 0.000273418 0
0.00979642 0.000229215 0
0.00979642 0.000229215 0
0.00832603 0.000183353 0
0.00832603 0.000183353 0
0.00702682 0.00014033 0
0.00702682 0.00014033 0
0.00589758 0.00010238 0
0.00589758 0.00010238 0
0.00494589 7.02745e-05 0
0.00494589 7.02745e-05 0
0.00409608 4.42757e-05 0
0.00409608 4.42757e-05 0
0.00338089 3.93328e-05 0
0.00338089 3.93328e-05 0
0.00258977 3.01216e-05 0
0.00258977 3.01216e-05 0
0.00196463 -2.75198e-05 0
0.00196463 -2.75198e-05 0
0.000751048 0.000366997 0
0.000751048 0.000366997 0
-7.68695e-06 8.29871e-05 6.23436e-23
-7.68695e-06 8.29871e-05 6.23436e-23
7.93387e-06 -1.98097e-05 -1.6863e-22
7.93387e-06 -1.98097e-05 -1.6863e-22
-1.45807e-05 -0.000311674 -1.99833e-22
-1.45807e-05 -0.000311674 -1.99833e-22
0.00012908 -0.000861614 3.9941e-22
0.00012908 -0.000861614 3.9941e-22
0.000461612 -0.00260788 1.3336e-22
0.000461612 -0.00260788 1.3336e-22
0.000494685 -0.00486007 -2.66082e-22
0.000494685 -0.00486007 -2.66082e-22
0.000253202 -0.00598254 0
0.000253202 -0.00598254 0
4.61606e-05 -0.00623912 -5.35058e-22
4.61606e-05 -0.00623912 -5.35058e-22
-9.38144e-05 -0.00588512 7.04304e-26
-9.38144e-05 -0.00588512 7.04304e-26
-0.000156663 -0.00516732 5.35129e-22
-0.000156663 -0.00516732 5.35129e-22
-0.000191204 -0.00426703 -5.42999e-22
-0.000191204 -0.00426703 -5.42999e-22
-0.000226463 -0.00315638 2.40833e-25
-0.000226463 -0.00315638 2.40833e-25
-0.000210354 -0.00204029 5.4324e-22
-0.000210354 -0.00204029 5.4324e-22
-0.000159335 -0.0010438 5.51183e-22
-0.000159335 -0.0010438 5.51183e-22
-9.34533e-05 -0.000275405 -1.20977e-25
-9.34533e-05 -0.000275405 -1.20977e-25
-3.88186e-06 0.000172661 -5.61075e-22
-3.88186e-06 0.000172661 -5.61075e-22
0.000107612 0.000199262 0
0.000107612 0.000199262 0
0.000121548 -0.000228256 0
0.000121548 -0.000228256 0
-6.18472e-05 -0.000743487 0
-6.18472e-05 -0.000743487 0
-0.000171825 -0.000920753 0
-0.000171825 -0.000920753 0
0.000100899 -0.0010082 0
0.000100899 -0.0010082 0
0.000372421 -0.00155848 0
0.000372421 -0.00155848 0
0.000254329 -0.00222461 0
0.000254329 -0.00222461 0
-5.85539e-05 -0.00229507 0
-5.85539e-05 -0.00229507 0
-0.000374753 -0.00174556 0
-0.000374753 -0.00174556 0
-0.000599794 -0.000878698 0
-0.000599794 -0.000878698 0
-0.000410571 0.000165861 0
-0.000410571 0.000165861 0
-4.89268e-06 5.28441e-05 2.6009e-25
-4.89268e-06 5.28441e-05 2.6009e-25
2.38567e-05 -6.40199e-06 -3.09912e-23
2.38567e-05 -6.40199e-06 -3.09912e-23
9.0042e-05 -5.57653e-05 0
9.0042e-05 -5.57653e-05 0
0.000179506 -8.30447e-05 0
0.000179506 -8.30447e-05 0
0.000273707 -8.62458e-05 3.00562e-23
0.000273707 -8.62458e-05 3.00562e-23
0.000356918 -7.32439e-05 3.01102e-23
0.000356918 -7.32439e-05 3.01102e-23
0.000419488 -5.08649e-05 0
0.000419488 -5.08649e-05 0
0.000453169 -2.36415e-05 0
0.000453169 -2.36415e-05 0
0.000456629 3.86006e-06 0
0.000456629 3.86006e-06 0
0.000431191 2.84381e-05 -2.89751e-23
0.000431191 2.84381e-05 -2.89751e-23
0.000380522 4.70281e-05 -2.90303e-23
0.000380522 4.70281e-05 -2.90303e-23
0.00030955 5.81027e-05 0
0.00030955 5.81027e-05 0
0.000223571 6.27768e-05 0
0.000223571 6.27768e-05 0
0.000125925 6.46008e-05 0
0.000125925 6.46008e-05 0
1.80061e-05 6.79734e-05 -2.79594e-23
1.80061e-05 6.79734e-05 -2.79594e-23
-9.80336e-05 7.71969e-05 -2.80159e-23
-9.80336e-05 7.71969e-05 -2.80159e-23
-0.00021809 9.25504e-05 0
-0.00021809 9.25504e-05 0
-0.00033744 0.000106132 0
-0.00033744 0.000106132 0
-0.000450586 0.000107861 0
-0.000450586 0.000107861 0
-0.000552359 9.61894e-05 0
-0.000552359 9.61894e-05 0
-0.000641516 8.03278e-05 0
-0.000641516 8.03278e-05 0
-0.000720805 7.30766e-05 0
-0.000720805 7.30766e-05 0
-0.000792806 7.97552e-05 -2.63291e-23
-0.000792806 7.97552e-05 -2.63291e-23
-0.000857758 9.26264e-05 -2.58004e-25
-0.000857758 9.26264e-05 -2.58004e-25
-0.000916376 9.92851e-05 2.58212e-25
-0.000916376 9.92851e-05 2.58212e-25
-0.000973671 9.45196e-05 -5.17176e-23
-0.000973671 9.45196e-05 -5.17176e-23
-0.0010375 8.11219e-05 -2.57884e-23
-0.0010375 8.11219e-05 -2.57884e-23
-0.00111359 6.4381e-05 0
-0.00111359 6.4381e-05 0
-0.00120319 4.92055e-05 2.51346e-23
-0.00120319 4.92055e-05 2.51346e-23
-0.00130379 3.94788e-05 5.01337e-23
-0.00130379 3.94788e-05 5.01337e-23
-0.00141116 3.63024e-05 2.49992e-23
-0.00141116 3.63024e-05 2.49992e-23
-0.00152008 3.8969e-05 0
-0.00152008 3.8969e-05 0
-0.00162693 4.60564e-05 2.43728e-23
-0.00162693 4.60564e-05 2.43728e-23
-0.0017292 5.46102e-05 2.44328e-23
-0.0017292 5.46102e-05 2.44328e-23
-0.00182322 6.5485e-05 0
-0.00182322 6.5485e-05 0
-0.00191053 8.04046e-05 -2.38427e-23
-0.00191053 8.04046e-05 -2.38427e-23
-0.00198932 0.000108819 -2.39033e-23
-0.00198932 0.000108819 -2.39033e-23
-0.00206456 0.000162555 -2.35125e-23
-0.00206456 0.000162555 -2.35125e-23
-0.0021489 0.000237802 -7.02797e-23
-0.0021489 0.000237802 -7.02797e-23
-0.00224534 0.000308257 -4.68287e-23
-0.00224534 0.000308257 -4.68287e-23
-0.00237216 0.000176702 0
-0.00237216 0.000176702 0
-0.00236006 -0.000248163 0
-0.00236006 -0.000248163 0
-0.00207132 -0.000549213 0
-0.00207132 -0.000549213 0
-0.00173315 -0.000544083 0
-0.00173315 -0.000544083 0
-0.00141362 -0.000501647 -4.49166e-23
-0.00141362 -0.000501647 -4.49166e-23
-0.00107144 -0.000487115 -8.96641e-23
-0.00107144 -0.000487115 -8.96641e-23
-0.000781228 -0.000457912 -8.90674e-23
-0.000781228 -0.000457912 -8.90674e-23
-0.000540195 -0.000425552 -4.44454e-23
-0.000540195 -0.000425552 -4.44454e-23
-0.000307942 -0.00039739 4.36837e-23
-0.000307942 -0.00039739 4.36837e-23
-2.15764e-05 -0.000382793 4.38103e-23
-2.15764e-05 -0.000382793 4.38103e-23
0.000338772 -0.000367971 -4.29652e-23
0.000338772 -0.000367971 -4.29652e-23
0.000736083 -0.000322449 -8.56721e-23
0.000736083 -0.000322449 -8.56721e-23
0.00112206 -0.000235294 -4.2707e-23
0.00112206 -0.000235294 -4.2707e-23
0.00145 -0.00012388 0
0.00145 -0.00012388 0
0.00168016 -9.10917e-06 0
0.00168016 -9.10917e-06 0
0.0017912 0.000102225 -4.09595e-23
0.0017912 0.000102225 -4.09595e-23
0.0017766 0.000199508 -4.10864e-23
0.0017766 0.000199508 -4.10864e-23
0.00163798 0.000252888 0
0.00163798 0.000252888 0
0.00137989 0.000246377 0
0.00137989 0.000246377 0
0.00101469 0.000211146 0
0.00101469 0.000211146 0
0.000569401 0.000186635 0
0.000569401 0.000186635 0
7.80487e-05 0.000171013 0
7.80487e-05 0.000171013 0
-0.00040367 0.000144761 0
-0.00040367 0.000144761 0
-0.000792109 9.39526e-05 0
-0.000792109 9.39526e-05 0
-0.00101206 9.45415e-06 3.71442e-23
-0.00101206 9.45415e-06 3.71442e-23
-0.00100748 -9.65427e-05 3.7269e-23
-0.00100748 -9.65427e-05 3.7269e-23
-0.000747272 -0.000182911 0
-0.000747272 -0.000182911 0
-0.000230134 -0.000140515 -3.62918e-23
-0.000230134 -0.000140515 -3.62918e-23
0.000389205 8.68789e-05 -7.24357e-23
0.000389205 8.68789e-05 -7.24357e-23
0.000782022 0.000246117 -3.61441e-23
0.000782022 0.000246117 -3.61441e-23
0.000857397 0.000108155 3.54086e-23
0.000857397 0.000108155 3.54086e-23
0.000881189 -0.000125199 4.42169e-25
0.000881189 -0.000125199 4.42169e-25
0.00103406 -0.000147786 -3.52169e-23
0.00103406 -0.000147786 -3.52169e-23
0.00125822 4.03232e-05 3.44355e-23
0.00125822 4.03232e-05 3.44355e-23
0.00148073 5.7412e-05 3.45604e-23
0.00148073 5.7412e-05 3.45604e-23
0.00168291 -0.00033173 0
0.00168291 -0.00033173 0
0.00176699 -0.000512921 -3.34531e-23
0.00176699 -0.000512921 -3.34531e-23
0.00126464 7.65389e-05 -3.35775e-23
0.00126464 7.65389e-05 -3.35775e-23
5.99694e-05 0.000703182 3.27774e-23
5.99694e-05 0.000703182 3.27774e-23
-0.0012515 0.000788406 3.29012e-23
-0.0012515 0.000788406 3.29012e-23
-0.00237475 0.000676653 -3.17859e-23
-0.00237475 0.000676653 -3.17859e-23
-0.00333945 0.000570799 -6.3175e-23
-0.00333945 0.000570799 -6.3175e-23
-0.00415669 0.000480604 -6.21414e-23
-0.00415669 0.000480604 -6.21414e-23
-0.00485988 0.000408286 -9.13763e-23
-0.00485988 0.000408286 -9.13763e-23
-0.00547172 0.000350857 -1.2117e-24
-0.00547172 0.000350857 -1.2117e-24
-0.00600943 0.000304578 5.97646e-23
-0.00600943 0.000304578 5.97646e-23
-0.00648408 0.000265864 0
-0.00648408 0.000265864 0
-0.00690235 0.000231753 0
-0.00690235 0.000231753 0
-0.00726759 0.000200091 5.60025e-23
-0.00726759 0.000200091 5.60025e-23
-0.00758088 0.000169548 1.11458e-22
-0.00758088 0.000169548 1.11458e-22
-0.00784204 0.000139445 9.5448e-25
-0.00784204 0.000139445 9.5448e-25
-0.00805033 0.000109669 -5.47253e-23
-0.00805033 0.000109669 -5.47253e-23
-0.00820517 8.04251e-05 5.31933e-23
-0.00820517 8.04251e-05 5.31933e-23
-0.00830658 5.21315e-05 1.06031e-22
-0.00830658 5.21315e-05 1.06031e-22
-0.00835512 2.56064e-05 1.04919e-22
-0.00835512 2.56064e-05 1.04919e-22
-0.00835418 1.39418e-06 5.23042e-23
-0.00835418 1.39418e-06 5.23042e-23
-0.00830799 -2.04998e-05 0
-0.00830799 -2.04998e-05 0
-0.00821952 -4.00532e-05 0
-0.00821952 -4.00532e-05 0
-0.00809222 -5.73497e-05 5.03529e-23
-0.00809222 -5.73497e-05 5.03529e-23
-0.0079296 -7.25175e-05 5.05733e-23
-0.0079296 -7.25175e-05 5.05733e-23
-0.0077353 -8.56542e-05 0
-0.0077353 -8.56542e-05 0
-0.00751274 -9.69293e-05 -4.93462e-23
-0.00751274 -9.69293e-05 -4.93462e-23
-0.00726507 -0.00010655 -4.95666e-23
-0.00726507 -0.00010655 -4.95666e-23
-0.00699511 -0.000114741 0
-0.00699511 -0.000114741 0
-0.00670536 -0.000121704 -4.84514e-23
-0.00670536 -0.000121704 -4.84514e-23
-0.00639803 -0.000127587 -4.86721e-23
-0.00639803 -0.000127587 -4.86721e-23
-0.00607515 -0.000132486 0
-0.00607515 -0.000132486 0
-0.00573865 -0.000136449 4.75768e-23
-0.00573865 -0.000136449 4.75768e-23
-0.00539046 -0.000139482 9.50743e-23
-0.00539046 -0.000139482 9.50743e-23
-0.00503259 -0.000141553 4.74975e-23
-0.00503259 -0.000141553 4.74975e-23
-0.00466721 -0.000142613 -4.66484e-23
-0.00466721 -0.000142613 -4.66484e-23
-0.00429664 -0.000142614 -4.6869e-23
-0.00429664 -0.000142614 -4.6869e-23
-0.00392334 -0.000141541 4.59679e-23
-0.00392334 -0.000141541 4.59679e-23
-0.0035498 -0.000139434 4.61879e-23
-0.0035498 -0.000139434 4.61879e-23
-0.00317845 -0.000136387 4.52223e-23
-0.00317845 -0.000136387 4.52223e-23
-0.00281152 -0.000132523 9.02644e-23
-0.00281152 -0.000132523 9.02644e-23
-0.00245096 -0.000128012 4.50415e-23
-0.00245096 -0.000128012 4.50415e-23
-0.00209824 -0.000123077 0
-0.00209824 -0.000123077 0
-0.00175435 -0.000117921 0
-0.00175435 -0.000117921 0
-0.00141976 -0.000112758 0
-0.00141976 -0.000112758 0
-0.00109447 -0.000107777 0
-0.00109447 -0.000107777 0
-0.00077799 -0.000103183 0
-0.00077799 -0.000103183 0
-0.000469354 -9.90095e-05 0
-0.000469354 -9.90095e-05 0
-0.00016741 -9.52353e-05 4.1115e-23
-0.00016741 -9.52353e-05 4.1115e-23
0.000128992 -9.20986e-05 7.19017e-25
0.000128992 -9.20986e-05 7.19017e-25
0.000421218 -8.94172e-05 -4.08132e-23
0.000421218 -8.94172e-05 -4.08132e-23
0.000710541 -8.68362e-05 0
0.000710541 -8.68362e-05 0
0.000997453 -8.41721e-05 0
0.000997453 -8.41721e-05 0
0.00128147 -8.10473e-05 0
0.00128147 -8.10473e-05 0
0.00156102 -7.70299e-05 -7.61032e-23
0.00156102 -7.70299e-05 -7.61032e-23
0.00183322 -7.16872e-05 -7.65029e-23
0.00183322 -7.16872e-05 -7.65029e-23
0.00209379 -6.4629e-05 7.41028e-23
0.00209379 -6.4629e-05 7.41028e-23
0.00233722 -5.56321e-05 1.38308e-24
0.00233722 -5.56321e-05 1.38308e-24
0.00255748 -4.49221e-05 -7.35026e-23
0.00255748 -4.49221e-05 -7.35026e-23
0.0027491 -3.3088e-05 0
0.0027491 -3.3088e-05 0
0.00290775 -2.04118e-05 0
0.00290775 -2.04118e-05 0
0.00303005 -7.35282e-06 6.92259e-23
0.00303005 -7.35282e-06 6.92259e-23
0.00311516 4.89403e-06 1.37877e-22
0.00311516 4.89403e-06 1.37877e-22
0.00316449 1.62702e-05 6.86481e-23
0.00316449 1.62702e-05 6.86481e-23
0.00317844 2.76211e-05 6.64028e-23
0.00317844 2.76211e-05 6.64028e-23
0.00315908 3.84464e-05 1.32249e-22
0.00315908 3.84464e-05 1.32249e-22
0.00311044 4.81611e-05 1.27482e-24
0.00311044 4.81611e-05 1.27482e-24
0.00303506 5.74067e-05 -6.49272e-23
0.00303506 5.74067e-05 -6.49272e-23
0.00293428 6.65634e-05 0
0.00293428 6.65634e-05 0
0.00280935 7.44431e-05 -6.18819e-23
0.00280935 7.44431e-05 -6.18819e-23
0.00266366 7.85503e-05 -6.22304e-23
0.00266366 7.85503e-05 -6.22304e-23
0.00250434 7.66953e-05 0
0.00250434 7.66953e-05 0
0.00234182 6.86278e-05 0
0.00234182 6.86278e-05 0
0.0021873 5.60854e-05 0
0.0021873 5.60854e-05 0
0.0020498 4.17509e-05 5.75308e-23
0.0020498 4.17509e-05 5.75308e-23
0.00193439 2.81531e-05 1.1454e-22
0.00193439 2.81531e-05 1.1454e-22
0.00184205 1.69318e-05 5.70057e-23
0.00184205 1.69318e-05 5.70057e-23
0.00177081 8.71051e-06 5.49901e-23
0.00177081 8.71051e-06 5.49901e-23
0.00171717 3.33821e-06 5.53101e-23
0.00171717 3.33821e-06 5.53101e-23
0.00167736 2.28982e-07 0
0.00167736 2.28982e-07 0
0.00164797 -1.33475e-06 5.24878e-23
0.00164797 -1.33475e-06 5.24878e-23
0.0016263 -1.98349e-06 5.27967e-23
0.0016263 -1.98349e-06 5.27967e-23
0.00161031 -2.15315e-06 5.0834e-23
0.00161031 -2.15315e-06 5.0834e-23
0.00159848 -2.08985e-06 5.11354e-23
0.00159848 -2.08985e-06 5.11354e-23
0.00158965 -1.90263e-06 0
0.00158965 -1.90263e-06 0
0.00158295 -1.6232e-06 4.83705e-23