/*--------------------------------*- C++ -*----------------------------------*\
  =========                 |
  \\      /  F ield         | OpenFOAM: The Open Source CFD Toolbox
   \\    /   O peration     | Website:  https://openfoam.org
    \\  /    A nd           | Version:  7
     \\/     M anipulation  |
\*---------------------------------------------------------------------------*/
FoamFile
{
    version     2.0;
    format      ascii;
    class       surfaceScalarField;
    location    "0.008";
    object      phi_0;
}
// * * * * * * * * * * * * * * * * * * * * * * * * * * * * * * * * * * * * * //

dimensions      [0 3 -1 0 0 0 0];

internalField   nonuniform List<scalar> 
24170
(
1.39801e-06
1.93027e-07
1.27595e-06
1.22064e-07
1.15281e-06
1.23133e-07
1.03454e-06
1.18272e-07
9.24906e-07
1.09637e-07
8.29007e-07
9.58996e-08
7.51219e-07
7.77879e-08
6.92308e-07
5.89104e-08
6.4926e-07
4.30483e-08
6.19436e-07
2.98237e-08
6.00535e-07
1.89014e-08
5.91756e-07
8.77867e-09
5.9277e-07
-1.01376e-09
6.01641e-07
-8.87088e-09
6.20482e-07
-1.88415e-08
6.40817e-07
-2.03349e-08
6.73243e-07
-3.24254e-08
-3.65399e-08
7.09783e-07
1.69645e-06
2.33535e-07
1.67517e-06
1.43348e-07
1.64963e-06
1.48666e-07
1.61432e-06
1.53582e-07
1.56923e-06
1.5473e-07
1.52058e-06
1.4455e-07
1.4786e-06
1.1977e-07
1.44885e-06
8.86566e-08
1.43015e-06
6.17505e-08
1.41855e-06
4.14238e-08
1.41072e-06
2.67314e-08
1.40593e-06
1.3569e-08
1.40358e-06
1.33828e-09
1.40598e-06
-1.12768e-08
1.41103e-06
-2.38844e-08
1.42419e-06
-3.35014e-08
1.43845e-06
-4.6682e-08
-6.42862e-08
1.4662e-06
1.79489e-06
3.09369e-07
1.77115e-06
1.67089e-07
1.77384e-06
1.45977e-07
1.77056e-06
1.56862e-07
1.76014e-06
1.65149e-07
1.74759e-06
1.57105e-07
1.73885e-06
1.28505e-07
1.73628e-06
9.12342e-08
1.73807e-06
5.99604e-08
1.74095e-06
3.85394e-08
1.74386e-06
2.38215e-08
1.74586e-06
1.15648e-08
1.74799e-06
-7.89588e-10
1.7502e-06
-1.34881e-08
1.75388e-06
-2.75614e-08
1.76121e-06
-4.08269e-08
1.76987e-06
-5.53428e-08
-7.4374e-08
1.77995e-06
1.93845e-06
4.23617e-07
1.89702e-06
2.08521e-07
1.88361e-06
1.59388e-07
1.87831e-06
1.62158e-07
1.88005e-06
1.6341e-07
1.88605e-06
1.51106e-07
1.89136e-06
1.23197e-07
1.89344e-06
8.91474e-08
1.89372e-06
5.96846e-08
1.89503e-06
3.72348e-08
1.89884e-06
2.00026e-08
1.90499e-06
5.41968e-09
1.91171e-06
-7.50799e-09
1.91839e-06
-2.01685e-08
1.9245e-06
-3.36761e-08
1.9313e-06
-4.76222e-08
1.93838e-06
-6.24245e-08
-7.85787e-08
1.94258e-06
2.09257e-06
4.18236e-07
2.05417e-06
2.46929e-07
2.01386e-06
1.99692e-07
1.9973e-06
1.78724e-07
2.00728e-06
1.53428e-07
2.02494e-06
1.3345e-07
2.03342e-06
1.1471e-07
2.03112e-06
9.14504e-08
2.02624e-06
6.45603e-08
2.02591e-06
3.75683e-08
2.03172e-06
1.41923e-08
2.04064e-06
-3.49848e-09
2.0502e-06
-1.70676e-08
2.05831e-06
-2.82796e-08
2.06499e-06
-4.03532e-08
2.07133e-06
-5.39661e-08
2.07782e-06
-6.89151e-08
-8.37134e-08
2.08296e-06
2.2141e-06
3.62027e-07
2.19672e-06
2.64311e-07
2.17111e-06
2.25294e-07
2.15876e-06
1.91074e-07
2.15826e-06
1.53927e-07
2.16263e-06
1.29085e-07
2.16721e-06
1.10129e-07
2.17193e-06
8.67341e-08
2.17827e-06
5.822e-08
2.18549e-06
3.0341e-08
2.19161e-06
8.07804e-09
2.196e-06
-7.88766e-09
2.19862e-06
-1.96948e-08
2.20188e-06
-3.15317e-08
2.20705e-06
-4.55292e-08
2.21471e-06
-6.1621e-08
2.22445e-06
-7.86581e-08
-9.37423e-08
2.23448e-06
2.41045e-06
4.15896e-07
2.37291e-06
3.01857e-07
2.35162e-06
2.46575e-07
2.33755e-06
2.05149e-07
2.33276e-06
1.58719e-07
2.3377e-06
1.24141e-07
2.34745e-06
1.00386e-07
2.35633e-06
7.78476e-08
2.36113e-06
5.34263e-08
2.36161e-06
2.98618e-08
2.36006e-06
9.62146e-09
2.35939e-06
-7.21661e-09
2.36267e-06
-2.29753e-08
2.37034e-06
-3.92048e-08
2.38172e-06
-5.69087e-08
2.39492e-06
-7.48159e-08
2.40802e-06
-9.17609e-08
-1.05454e-07
2.41973e-06
2.55358e-06
4.43928e-07
2.55063e-06
3.04804e-07
2.53379e-06
2.63416e-07
2.51573e-06
2.23213e-07
2.50276e-06
1.71682e-07
2.50195e-06
1.24951e-07
2.51241e-06
8.99315e-08
2.52716e-06
6.30983e-08
2.53994e-06
4.06476e-08
2.54832e-06
2.1477e-08
2.55318e-06
4.76547e-09
2.55748e-06
-1.15156e-08
2.56305e-06
-2.85467e-08
2.57075e-06
-4.69061e-08
2.57993e-06
-6.60934e-08
2.58978e-06
-8.46669e-08
2.59994e-06
-1.01915e-07
-1.15887e-07
2.61037e-06
2.75207e-06
3.42642e-07
2.79004e-06
2.66832e-07
2.78742e-06
2.6603e-07
2.77538e-06
2.35257e-07
2.75651e-06
1.90547e-07
2.74146e-06
1.40003e-07
2.73849e-06
9.29064e-08
2.74528e-06
5.63081e-08
2.75512e-06
3.08057e-08
2.7636e-06
1.29968e-08
2.77019e-06
-1.82328e-09
2.77521e-06
-1.65379e-08
2.77986e-06
-3.31955e-08
2.7847e-06
-5.17446e-08
2.79023e-06
-7.16274e-08
2.7968e-06
-9.12363e-08
2.80487e-06
-1.09981e-07
-1.26002e-07
2.81498e-06
2.96032e-06
2.72911e-07
2.95782e-06
2.69337e-07
2.94836e-06
2.7549e-07
2.94156e-06
2.42057e-07
2.93865e-06
1.9345e-07
2.94313e-06
1.35526e-07
2.95459e-06
8.14495e-08
2.96854e-06
4.23514e-08
2.98107e-06
1.82808e-08
2.99035e-06
3.71159e-09
2.99693e-06
-8.39855e-09
3.00128e-06
-2.08911e-08
3.00395e-06
-3.58608e-08
3.00557e-06
-5.33679e-08
3.0071e-06
-7.31606e-08
3.00944e-06
-9.35717e-08
3.01354e-06
-1.14085e-07
-1.32205e-07
3.01975e-06
3.17732e-06
3.01793e-07
3.17379e-06
2.72873e-07
3.15688e-06
2.92399e-07
3.14906e-06
2.49876e-07
3.15511e-06
1.87394e-07
3.16398e-06
1.26658e-07
3.16668e-06
7.87502e-08
3.16413e-06
4.49036e-08
3.16261e-06
1.97968e-08
3.16724e-06
-9.19954e-10
3.17573e-06
-1.6882e-08
3.18561e-06
-3.07755e-08
3.19333e-06
-4.35745e-08
3.19761e-06
-5.76509e-08
3.19917e-06
-7.47187e-08
3.19971e-06
-9.41107e-08
3.20093e-06
-1.15312e-07
-1.3564e-07
3.20437e-06
2.86439e-06
2.42218e-07
2.8477e-06
2.89561e-07
2.84334e-06
2.96758e-07
2.86047e-06
2.32744e-07
2.88044e-06
1.67429e-07
2.88741e-06
1.19683e-07
2.88203e-06
8.41319e-08
2.87427e-06
5.26632e-08
2.8721e-06
2.19715e-08
2.87685e-06
-5.67394e-09
2.88737e-06
-2.74017e-08
2.89802e-06
-4.14246e-08
2.90578e-06
-5.13331e-08
2.90955e-06
-6.14215e-08
2.91034e-06
-7.55047e-08
2.91024e-06
-9.40173e-08
2.91123e-06
-1.163e-07
-1.38686e-07
2.91428e-06
3.4851e-06
2.72743e-07
3.45575e-06
3.18906e-07
3.47018e-06
2.8233e-07
3.50053e-06
2.02398e-07
3.52314e-06
1.44822e-07
3.53016e-06
1.12657e-07
3.52591e-06
8.83825e-08
3.51905e-06
5.95194e-08
3.51602e-06
2.5004e-08
3.51842e-06
-8.0734e-09
3.52196e-06
-3.09445e-08
3.52463e-06
-4.40901e-08
3.5247e-06
-5.14055e-08
3.52365e-06
-6.03704e-08
3.5242e-06
-7.60495e-08
3.52855e-06
-9.83705e-08
3.53772e-06
-1.25475e-07
-1.51375e-07
3.55041e-06
4.33749e-06
3.5178e-07
4.30312e-06
3.5327e-07
4.31388e-06
2.71572e-07
4.31573e-06
2.00545e-07
4.29957e-06
1.60988e-07
4.28351e-06
1.28718e-07
4.28201e-06
8.98741e-08
4.29456e-06
4.69705e-08
4.30921e-06
1.03541e-08
4.31511e-06
-1.39726e-08
4.30884e-06
-2.46708e-08
4.29313e-06
-2.83797e-08
4.27637e-06
-3.46472e-08
4.26637e-06
-5.03677e-08
4.26697e-06
-7.66545e-08
4.27766e-06
-1.09058e-07
4.29502e-06
-1.42835e-07
-1.71428e-07
4.31507e-06
5.35334e-06
4.62788e-07
5.29912e-06
4.07496e-07
5.26952e-06
3.01164e-07
5.23856e-06
2.31509e-07
5.21924e-06
1.80302e-07
5.22469e-06
1.23271e-07
5.25046e-06
6.41025e-08
5.28001e-06
1.74214e-08
5.29739e-06
-7.02417e-09
5.29534e-06
-1.19192e-08
5.27944e-06
-8.77813e-09
5.26091e-06
-9.84907e-09
5.24878e-06
-2.25117e-08
5.24666e-06
-4.82511e-08
5.25201e-06
-8.20019e-08
5.26064e-06
-1.17691e-07
5.26835e-06
-1.50545e-07
-1.7714e-07
5.27406e-06
6.38077e-06
5.93219e-07
6.35679e-06
4.31483e-07
6.35249e-06
3.05465e-07
6.3351e-06
2.48892e-07
6.31815e-06
1.97253e-07
6.31658e-06
1.24845e-07
6.33064e-06
5.00397e-08
6.35037e-06
-2.30378e-09
6.36947e-06
-2.61261e-08
6.38546e-06
-2.79095e-08
6.40074e-06
-2.40622e-08
6.41744e-06
-2.65433e-08
6.4348e-06
-3.98757e-08
6.44968e-06
-6.31268e-08
6.45973e-06
-9.20612e-08
6.46397e-06
-1.21921e-07
6.46253e-06
-1.49109e-07
-1.71472e-07
6.45686e-06
7.6538e-06
5.09168e-07
7.76789e-06
3.17394e-07
7.83124e-06
2.42118e-07
7.86677e-06
2.13357e-07
7.89048e-06
1.73548e-07
7.89435e-06
1.20966e-07
7.87394e-06
7.04549e-08
7.83943e-06
3.22017e-08
7.80582e-06
7.49269e-09
7.78607e-06
-8.16431e-09
7.78347e-06
-2.14585e-08
7.79452e-06
-3.7594e-08
7.81187e-06
-5.72263e-08
7.8278e-06
-7.90587e-08
7.83691e-06
-1.01175e-07
7.8371e-06
-1.22109e-07
7.82858e-06
-1.40592e-07
-1.56284e-07
7.8134e-06
9.41652e-06
3.56037e-07
9.49657e-06
2.37337e-07
9.51088e-06
2.27807e-07
9.504e-06
2.20245e-07
9.49765e-06
1.79899e-07
9.49779e-06
1.2082e-07
9.50096e-06
6.72886e-08
9.50261e-06
3.05491e-08
9.50215e-06
7.95623e-09
9.50346e-06
-9.474e-09
9.50863e-06
-2.66305e-08
9.51591e-06
-4.48774e-08
9.52266e-06
-6.39768e-08
9.52706e-06
-8.34563e-08
9.52843e-06
-1.02547e-07
9.52708e-06
-1.20757e-07
9.52413e-06
-1.37644e-07
-1.52736e-07
9.52059e-06
1.16044e-05
4.29579e-07
1.15416e-05
3.00124e-07
1.15183e-05
2.51115e-07
1.15288e-05
2.09734e-07
1.15551e-05
1.53661e-07
1.15842e-05
9.16991e-08
1.16144e-05
3.70992e-08
1.16482e-05
-3.3106e-09
1.16867e-05
-3.04928e-08
1.17236e-05
-4.64198e-08
1.17529e-05
-5.58731e-08
1.17711e-05
-6.31436e-08
1.17783e-05
-7.11394e-08
1.17766e-05
-8.17721e-08
1.17691e-05
-9.50029e-08
1.17579e-05
-1.09578e-07
1.17439e-05
-1.23707e-07
-1.35665e-07
1.17269e-05
8.38841e-06
3.16392e-07
8.42188e-06
2.66655e-07
8.41282e-06
2.60171e-07
8.42925e-06
1.93307e-07
8.47314e-06
1.09768e-07
8.52025e-06
4.459e-08
8.55104e-06
6.30856e-09
8.55794e-06
-1.02078e-08
8.54953e-06
-2.20855e-08
8.53862e-06
-3.55111e-08
8.53326e-06
-5.05053e-08
8.53473e-06
-6.46198e-08
8.53953e-06
-7.59342e-08
8.54262e-06
-8.48609e-08
8.54039e-06
-9.27823e-08
8.53154e-06
-1.00718e-07
8.51685e-06
-1.09019e-07
-1.172e-07
8.49838e-06
7.41406e-06
5.03381e-07
7.36387e-06
3.16847e-07
7.39165e-06
2.32389e-07
7.41714e-06
1.67815e-07
7.41716e-06
1.09748e-07
7.40158e-06
6.01753e-08
7.38871e-06
1.91744e-08
7.39332e-06
-1.48205e-08
7.4093e-06
-3.80624e-08
7.42513e-06
-5.13396e-08
7.43246e-06
-5.78393e-08
7.42886e-06
-6.10221e-08
7.41688e-06
-6.39522e-08
7.40076e-06
-6.87428e-08
7.3844e-06
-7.64144e-08
7.37027e-06
-8.65934e-08
7.35961e-06
-9.83605e-08
-1.09985e-07
7.3524e-06
6.44342e-06
4.5764e-07
6.44778e-06
3.12489e-07
6.48231e-06
1.97857e-07
6.51474e-06
1.35381e-07
6.53139e-06
9.31059e-08
6.5395e-06
5.20613e-08
6.54867e-06
1.00042e-08
6.55459e-06
-2.07404e-08
6.55638e-06
-3.98554e-08
6.55169e-06
-4.66472e-08
6.54087e-06
-4.70169e-08
6.52776e-06
-4.79106e-08
6.51703e-06
-5.32198e-08
6.51207e-06
-6.37858e-08
6.51348e-06
-7.78288e-08
6.51942e-06
-9.25298e-08
6.52667e-06
-1.05607e-07
-1.15131e-07
6.53181e-06
5.58072e-06
4.26952e-07
5.60226e-06
2.90945e-07
5.64466e-06
1.55461e-07
5.70063e-06
7.94129e-08
5.75929e-06
3.44498e-08
5.80433e-06
7.01434e-09
5.82382e-06
-9.48765e-09
5.81975e-06
-1.66667e-08
5.80063e-06
-2.07394e-08
5.77919e-06
-2.52043e-08
5.76362e-06
-3.14498e-08
5.75671e-06
-4.09982e-08
5.75729e-06
-5.3793e-08
5.76209e-06
-6.85926e-08
5.76796e-06
-8.36945e-08
5.77267e-06
-9.72468e-08
5.77517e-06
-1.08103e-07
-1.15103e-07
5.77514e-06
4.91084e-06
3.98261e-07
4.95441e-06
2.47374e-07
4.97511e-06
1.34762e-07
4.98287e-06
7.16534e-08
4.97858e-06
3.87416e-08
4.96982e-06
1.57749e-08
4.96339e-06
-3.05881e-09
4.96463e-06
-1.79034e-08
4.97489e-06
-3.10006e-08
4.99004e-06
-4.03567e-08
5.00485e-06
-4.62617e-08
5.01544e-06
-5.1587e-08
5.02086e-06
-5.92113e-08
5.02262e-06
-7.03571e-08
5.02283e-06
-8.3903e-08
5.02285e-06
-9.72603e-08
5.02307e-06
-1.08328e-07
-1.14667e-07
5.02264e-06
4.27866e-06
3.6018e-07
4.30379e-06
2.22251e-07
4.32902e-06
1.09525e-07
4.34522e-06
5.54606e-08
4.35957e-06
2.43871e-08
4.37187e-06
3.4723e-09
4.38508e-06
-1.62676e-08
4.39852e-06
-3.13403e-08
4.41009e-06
-4.25718e-08
4.41991e-06
-5.01792e-08
4.42896e-06
-5.53088e-08
4.43774e-06
-6.03639e-08
4.44582e-06
-6.72936e-08
4.45205e-06
-7.65871e-08
4.45503e-06
-8.6883e-08
4.45387e-06
-9.61027e-08
4.44832e-06
-1.02783e-07
-1.05905e-07
4.43956e-06
3.71084e-06
3.76597e-07
3.7776e-06
1.55497e-07
3.82683e-06
6.0286e-08
3.85997e-06
2.23206e-08
3.8887e-06
-4.33738e-09
3.91105e-06
-1.88788e-08
3.92264e-06
-2.78571e-08
3.92764e-06
-3.63376e-08
3.93146e-06
-4.63965e-08
3.93806e-06
-5.67818e-08
3.94816e-06
-6.54058e-08
3.959e-06
-7.12032e-08
3.9662e-06
-7.44927e-08
3.9662e-06
-7.65886e-08
3.95794e-06
-7.86228e-08
3.94291e-06
-8.10713e-08
3.92405e-06
-8.39275e-08
-8.63474e-08
3.9045e-06
3.26493e-06
2.28931e-07
3.34895e-06
7.14843e-08
3.35922e-06
5.00134e-08
3.36625e-06
1.52901e-08
3.38661e-06
-2.46951e-08
3.41146e-06
-4.37346e-08
3.43281e-06
-4.92029e-08
3.449e-06
-5.25271e-08
3.46022e-06
-5.76141e-08
3.46614e-06
-6.27109e-08
3.46653e-06
-6.57899e-08
3.46206e-06
-6.67313e-08
3.45422e-06
-6.666e-08
3.44498e-06
-6.73398e-08
3.43606e-06
-6.97102e-08
3.42874e-06
-7.37452e-08
3.42337e-06
-7.85635e-08
-8.26137e-08
3.41964e-06
2.83897e-06
1.86194e-07
2.88806e-06
2.23927e-08
2.93008e-06
7.99521e-09
2.975e-06
-2.96274e-08
3.00746e-06
-5.71545e-08
3.02642e-06
-6.26934e-08
3.03633e-06
-5.91185e-08
3.041e-06
-5.71952e-08
3.04241e-06
-5.90217e-08
3.04221e-06
-6.25136e-08
3.04217e-06
-6.57533e-08
3.04351e-06
-6.80694e-08
3.04641e-06
-6.95611e-08
3.05025e-06
-7.11729e-08
3.05399e-06
-7.34579e-08
3.05678e-06
-7.65319e-08
3.05749e-06
-7.92772e-08
-8.03379e-08
3.05522e-06
2.51289e-06
4.96048e-08
2.57896e-06
-4.3679e-08
2.61553e-06
-2.85701e-08
2.63785e-06
-5.19448e-08
2.64636e-06
-6.56707e-08
2.64872e-06
-6.50503e-08
2.64915e-06
-5.95492e-08
2.64699e-06
-5.50355e-08
2.64129e-06
-5.33255e-08
2.6327e-06
-5.39244e-08
2.62231e-06
-5.53639e-08
2.61047e-06
-5.62294e-08
2.59705e-06
-5.6135e-08
2.58173e-06
-5.58574e-08
2.56445e-06
-5.6178e-08
2.54532e-06
-5.73987e-08
2.52435e-06
-5.83058e-08
-5.78102e-08
2.50182e-06
2.19244e-06
2.14876e-06
2.12019e-06
2.06824e-06
2.00257e-06
1.93752e-06
1.87797e-06
1.82294e-06
1.76961e-06
1.71569e-06
1.66032e-06
1.60409e-06
1.54796e-06
1.4921e-06
1.43592e-06
1.37852e-06
1.32022e-06
1.26241e-06
-4.67913e-08
4.67913e-08
-9.1378e-08
4.45868e-08
-1.34483e-07
4.31054e-08
-1.77155e-07
4.26714e-08
-2.18913e-07
4.17586e-08
-2.59294e-07
4.03809e-08
-2.97871e-07
3.85764e-08
-3.34221e-07
3.63502e-08
-3.67916e-07
3.36953e-08
-3.98508e-07
3.05915e-08
-4.25556e-07
2.70484e-08
-4.48634e-07
2.30781e-08
-4.67317e-07
1.86829e-08
-4.81218e-07
1.39004e-08
-4.89974e-07
8.75682e-09
-4.93306e-07
3.33166e-09
-4.90916e-07
-2.3901e-09
-4.82637e-07
-8.27904e-09
-4.68362e-07
-1.42754e-08
-4.48105e-07
-2.02561e-08
-4.21879e-07
-2.62267e-08
-3.89832e-07
-3.2047e-08
-3.52136e-07
-3.76959e-08
-3.09039e-07
-4.30971e-08
-2.60861e-07
-4.81777e-08
-2.0796e-07
-5.29008e-08
-1.5076e-07
-5.72006e-08
-8.97276e-08
-6.1032e-08
-2.5182e-08
-6.45456e-08
4.21645e-08
-6.73465e-08
1.11963e-07
-6.97986e-08
1.8373e-07
-7.17671e-08
2.56995e-07
-7.3265e-08
3.31306e-07
-7.43111e-08
4.06235e-07
-7.49292e-08
4.81383e-07
-7.51473e-08
5.56379e-07
-7.4996e-08
6.30887e-07
-7.45081e-08
7.04604e-07
-7.37169e-08
7.7726e-07
-7.26563e-08
8.48619e-07
-7.13594e-08
9.18478e-07
-6.98585e-08
9.86662e-07
-6.81844e-08
1.05303e-06
-6.63663e-08
1.11746e-06
-6.44311e-08
1.17986e-06
-6.24037e-08
1.24017e-06
-6.03069e-08
1.29833e-06
-5.81613e-08
1.35432e-06
-5.5985e-08
1.40811e-06
-5.37944e-08
1.45971e-06
-5.16038e-08
1.50914e-06
-4.94256e-08
1.55641e-06
-4.72702e-08
1.60156e-06
-4.51469e-08
1.64462e-06
-4.3063e-08
1.68565e-06
-4.10249e-08
1.72468e-06
-3.90377e-08
1.76179e-06
-3.71053e-08
1.79702e-06
-3.52309e-08
1.83044e-06
-3.34167e-08
1.8621e-06
-3.16644e-08
1.89208e-06
-2.99748e-08
1.92042e-06
-2.83484e-08
1.94721e-06
-2.67851e-08
1.97249e-06
-2.52845e-08
1.99634e-06
-2.38457e-08
2.01881e-06
-2.24678e-08
2.03996e-06
-2.11495e-08
2.05985e-06
-1.98895e-08
2.07853e-06
-1.86859e-08
2.09607e-06
-1.75373e-08
2.11251e-06
-1.64419e-08
2.12791e-06
-1.53977e-08
2.14231e-06
-1.44031e-08
2.15577e-06
-1.34561e-08
2.16832e-06
-1.25549e-08
2.18002e-06
-1.16976e-08
2.1909e-06
-1.08824e-08
2.20101e-06
-1.01075e-08
2.21038e-06
-9.37115e-09
2.21905e-06
-8.67165e-09
2.22706e-06
-8.0073e-09
2.23444e-06
-7.37656e-09
2.24121e-06
-6.77779e-09
2.24742e-06
-6.20956e-09
2.25309e-06
-5.67035e-09
2.25825e-06
-5.15878e-09
2.26293e-06
-4.67356e-09
2.26714e-06
-4.21336e-09
2.27092e-06
-3.77677e-09
2.27428e-06
-3.36308e-09
2.27725e-06
-2.97079e-09
2.27985e-06
-2.59824e-09
2.2821e-06
-2.24609e-09
2.28401e-06
-1.91235e-09
2.2856e-06
-1.59358e-09
2.28689e-06
-1.29342e-09
2.28791e-06
-1.01068e-09
2.28864e-06
-7.35504e-10
2.28912e-06
-4.7534e-10
2.28935e-06
-2.33386e-10
2.28934e-06
9.52979e-12
2.28906e-06
2.75629e-10
2.28854e-06
5.29029e-10
2.28777e-06
7.69949e-10
2.28677e-06
9.96436e-10
2.28557e-06
1.20094e-09
2.28419e-06
1.38113e-09
2.28265e-06
1.53941e-09
2.28097e-06
1.68031e-09
2.27916e-06
1.80861e-09
2.27723e-06
1.92804e-09
2.27519e-06
2.04079e-09
2.27304e-06
2.14806e-09
2.27079e-06
2.25038e-09
2.26844e-06
2.34809e-09
2.266e-06
2.44131e-09
2.26347e-06
2.53041e-09
2.26086e-06
2.61545e-09
2.25816e-06
2.69685e-09
2.25538e-06
2.77467e-09
2.25253e-06
2.84926e-09
2.24961e-06
2.92075e-09
2.24662e-06
2.98943e-09
2.24357e-06
3.05545e-09
2.24045e-06
3.11897e-09
2.23727e-06
3.18025e-09
2.23403e-06
3.23938e-09
2.23073e-06
3.29653e-09
2.22738e-06
3.35189e-09
2.22398e-06
3.4055e-09
2.22052e-06
3.45759e-09
2.21701e-06
3.50816e-09
2.21345e-06
3.55745e-09
2.20985e-06
3.60552e-09
2.2062e-06
3.65255e-09
2.2025e-06
3.69851e-09
2.19875e-06
3.74365e-09
2.19497e-06
3.78794e-09
2.19113e-06
3.83152e-09
2.18726e-06
3.87446e-09
2.18334e-06
3.91685e-09
2.17938e-06
3.95885e-09
2.17538e-06
4.0005e-09
2.17134e-06
4.04195e-09
2.16726e-06
4.08329e-09
2.16313e-06
4.12469e-09
2.15897e-06
4.16627e-09
2.15476e-06
4.2082e-09
2.15051e-06
4.25065e-09
2.14621e-06
4.29378e-09
2.14188e-06
4.33791e-09
2.13749e-06
4.38335e-09
2.13306e-06
4.43045e-09
2.12858e-06
4.47972e-09
2.12405e-06
4.53176e-09
2.11946e-06
4.58736e-09
2.11482e-06
4.64743e-09
2.1101e-06
4.71324e-09
2.10532e-06
4.78634e-09
2.10045e-06
4.8688e-09
2.09548e-06
4.96327e-09
2.09041e-06
5.07312e-09
2.08521e-06
5.20313e-09
2.07985e-06
5.35861e-09
2.0743e-06
5.54915e-09
2.06852e-06
5.78223e-09
2.06244e-06
6.07783e-09
2.05599e-06
6.45226e-09
2.04907e-06
6.91928e-09
2.04145e-06
7.61726e-09
2.0332e-06
8.25507e-09
2.02324e-06
9.96085e-09
2.01292e-06
1.03201e-08
1.99758e-06
1.53373e-08
1.98366e-06
1.39184e-08
1.95426e-06
2.9405e-08
1.93077e-06
2.34803e-08
1.84835e-06
8.24249e-08
8.29575e-08
1.76539e-06
-4.85623e-08
9.53535e-08
-9.45106e-08
9.05351e-08
-1.38756e-07
8.7351e-08
-1.8242e-07
8.63348e-08
-2.24966e-07
8.43054e-08
-2.65895e-07
8.13089e-08
-3.04755e-07
7.74372e-08
-3.41107e-07
7.27023e-08
-3.74504e-07
6.70919e-08
-4.04508e-07
6.05949e-08
-4.30695e-07
5.32364e-08
-4.52645e-07
4.50271e-08
-4.69979e-07
3.60176e-08
-4.82341e-07
2.6262e-08
-4.89404e-07
1.58195e-08
-4.90909e-07
4.837e-09
-4.86426e-07
-6.87301e-09
-4.75788e-07
-1.89169e-08
-4.58895e-07
-3.11688e-08
-4.35673e-07
-4.3478e-08
-4.06203e-07
-5.56966e-08
-3.70571e-07
-6.76789e-08
-3.29016e-07
-7.92513e-08
-2.81815e-07
-9.02976e-08
-2.29288e-07
-1.00705e-07
-1.71853e-07
-1.10335e-07
-1.0994e-07
-1.19114e-07
-4.39788e-08
-1.26993e-07
2.53491e-08
-1.33874e-07
9.78285e-08
-1.39826e-07
1.72801e-07
-1.44771e-07
2.49776e-07
-1.48742e-07
3.28273e-07
-1.51762e-07
4.07831e-07
-1.5387e-07
4.88017e-07
-1.55115e-07
5.68424e-07
-1.55554e-07
6.48678e-07
-1.55251e-07
7.28442e-07
-1.54272e-07
8.07411e-07
-1.52685e-07
8.85314e-07
-1.50559e-07
9.61916e-07
-1.47961e-07
1.03701e-06
-1.44955e-07
1.11043e-06
-1.41603e-07
1.18203e-06
-1.37963e-07
1.25168e-06
-1.34087e-07
1.31931e-06
-1.30026e-07
1.38482e-06
-1.25824e-07
1.44818e-06
-1.21522e-07
1.50935e-06
-1.17155e-07
1.56832e-06
-1.12756e-07
1.62506e-06
-1.08352e-07
1.67961e-06
-1.03968e-07
1.73196e-06
-9.96235e-08
1.78215e-06
-9.53378e-08
1.83021e-06
-9.11251e-08
1.87619e-06
-8.69981e-08
1.92011e-06
-8.29668e-08
1.96205e-06
-7.90394e-08
2.00204e-06
-7.52222e-08
2.04014e-06
-7.15199e-08
2.07642e-06
-6.7936e-08
2.11091e-06
-6.44726e-08
2.1437e-06
-6.1131e-08
2.17482e-06
-5.79113e-08
2.20435e-06
-5.48132e-08
2.23234e-06
-5.18356e-08
2.25885e-06
-4.89768e-08
2.28393e-06
-4.62348e-08
2.30765e-06
-4.3607e-08
2.33006e-06
-4.1091e-08
2.3512e-06
-3.86836e-08
2.37114e-06
-3.63819e-08
2.38993e-06
-3.41825e-08
2.40761e-06
-3.20822e-08
2.42423e-06
-3.00776e-08
2.43984e-06
-2.81652e-08
2.45448e-06
-2.63418e-08
2.4682e-06
-2.46039e-08
2.48105e-06
-2.29483e-08
2.49305e-06
-2.13715e-08
2.50424e-06
-1.98705e-08
2.51468e-06
-1.8442e-08
2.52439e-06
-1.7083e-08
2.5334e-06
-1.57905e-08
2.54175e-06
-1.45616e-08
2.54947e-06
-1.33935e-08
2.5566e-06
-1.22835e-08
2.56315e-06
-1.1229e-08
2.56917e-06
-1.02273e-08
2.57467e-06
-9.27598e-09
2.57968e-06
-8.37286e-09
2.58422e-06
-7.51543e-09
2.58833e-06
-6.70168e-09
2.59201e-06
-5.92978e-09
2.59529e-06
-5.19702e-09
2.5982e-06
-4.50155e-09
2.60075e-06
-3.84248e-09
2.60296e-06
-3.2169e-09
2.60484e-06
-2.62218e-09
2.60643e-06
-2.05854e-09
2.60772e-06
-1.52453e-09
2.60874e-06
-1.01724e-09
2.60955e-06
-5.29918e-10
2.61014e-06
-5.83605e-11
2.61053e-06
3.75664e-10
2.61074e-06
7.88943e-10
2.61077e-06
1.17284e-09
2.61062e-06
1.53147e-09
2.61029e-06
1.86828e-09
2.60978e-06
2.18666e-09
2.6091e-06
2.48947e-09
2.60825e-06
2.7785e-09
2.60724e-06
3.0545e-09
2.60607e-06
3.31795e-09
2.60475e-06
3.56899e-09
2.60329e-06
3.80809e-09
2.60169e-06
4.03565e-09
2.59997e-06
4.25218e-09
2.59813e-06
4.45829e-09
2.59617e-06
4.65457e-09
2.5941e-06
4.84156e-09
2.59193e-06
5.01984e-09
2.58966e-06
5.18992e-09
2.5873e-06
5.35237e-09
2.58485e-06
5.50771e-09
2.58231e-06
5.65638e-09
2.57969e-06
5.79876e-09
2.577e-06
5.93534e-09
2.57423e-06
6.06649e-09
2.57139e-06
6.19261e-09
2.56848e-06
6.31403e-09
2.5655e-06
6.43112e-09
2.56247e-06
6.54413e-09
2.55937e-06
6.65345e-09
2.55622e-06
6.75935e-09
2.55301e-06
6.86205e-09
2.54975e-06
6.96192e-09
2.54643e-06
7.05914e-09
2.54306e-06
7.15394e-09
2.53965e-06
7.24659e-09
2.53619e-06
7.3373e-09
2.53268e-06
7.42623e-09
2.52912e-06
7.51372e-09
2.52552e-06
7.59996e-09
2.52188e-06
7.68526e-09
2.51819e-06
7.76984e-09
2.51446e-06
7.85396e-09
2.51069e-06
7.9379e-09
2.50688e-06
8.02203e-09
2.50302e-06
8.10666e-09
2.49912e-06
8.19222e-09
2.49518e-06
8.27925e-09
2.4912e-06
8.36822e-09
2.48717e-06
8.45998e-09
2.48309e-06
8.55534e-09
2.47897e-06
8.65547e-09
2.47479e-06
8.76168e-09
2.47057e-06
8.87578e-09
2.46628e-06
8.99999e-09
2.46193e-06
9.13715e-09
2.45751e-06
9.29101e-09
2.453e-06
9.46613e-09
2.44841e-06
9.66904e-09
2.4437e-06
9.9071e-09
2.43887e-06
1.01928e-08
2.43388e-06
1.05358e-08
2.4287e-06
1.09666e-08
2.42329e-06
1.14834e-08
2.41756e-06
1.21895e-08
2.4115e-06
1.2973e-08
2.40483e-06
1.42908e-08
2.39772e-06
1.53681e-08
2.38937e-06
1.83089e-08
2.38034e-06
1.93525e-08
2.36882e-06
2.68477e-08
2.35562e-06
2.71258e-08
2.3372e-06
4.7827e-08
2.31235e-06
4.83294e-08
2.28099e-06
1.13782e-07
1.27692e-07
2.23625e-06
-5.02748e-08
1.45628e-07
-9.87001e-08
1.3896e-07
-1.45831e-07
1.34482e-07
-1.92471e-07
1.32975e-07
-2.38044e-07
1.29878e-07
-2.82056e-07
1.25321e-07
-3.24064e-07
1.19445e-07
-3.63599e-07
1.12238e-07
-4.00183e-07
1.03676e-07
-4.33332e-07
9.37431e-08
-4.62551e-07
8.2456e-08
-4.87352e-07
6.9828e-08
-5.07258e-07
5.59232e-08
-5.21833e-07
4.08377e-08
-5.30677e-07
2.46633e-08
-5.33443e-07
7.6029e-09
-5.29755e-07
-1.05606e-08
-5.19366e-07
-2.9306e-08
-5.02201e-07
-4.83343e-08
-4.78208e-07
-6.74709e-08
-4.47482e-07
-8.64227e-08
-4.10177e-07
-1.04984e-07
-3.66589e-07
-1.2284e-07
-3.17037e-07
-1.39849e-07
-2.61934e-07
-1.55808e-07
-2.01736e-07
-1.70533e-07
-1.36964e-07
-1.83886e-07
-6.81393e-08
-1.95818e-07
4.13169e-09
-2.06145e-07
7.93662e-08
-2.1506e-07
1.56967e-07
-2.22373e-07
2.36409e-07
-2.28183e-07
3.17184e-07
-2.32537e-07
3.98816e-07
-2.35501e-07
4.80859e-07
-2.37158e-07
5.62907e-07
-2.37601e-07
6.44588e-07
-2.36933e-07
7.25574e-07
-2.35257e-07
8.05571e-07
-2.32682e-07
8.84324e-07
-2.29312e-07
9.61613e-07
-2.25251e-07
1.03725e-06
-2.20596e-07
1.11109e-06
-2.15439e-07
1.183e-06
-2.09868e-07
1.25287e-06
-2.03961e-07
1.32063e-06
-1.97792e-07
1.38624e-06
-1.91425e-07
1.44963e-06
-1.84921e-07
1.51081e-06
-1.7833e-07
1.56975e-06
-1.717e-07
1.62647e-06
-1.6507e-07
1.68098e-06
-1.58475e-07
1.7333e-06
-1.51945e-07
1.78347e-06
-1.45505e-07
1.83152e-06
-1.39177e-07
1.8775e-06
-1.32978e-07
1.92146e-06
-1.26921e-07
1.96344e-06
-1.2102e-07
2.0035e-06
-1.15282e-07
2.04169e-06
-1.09714e-07
2.07807e-06
-1.04321e-07
2.11271e-06
-9.91063e-08
2.14565e-06
-9.40708e-08
2.17695e-06
-8.92151e-08
2.20668e-06
-8.45386e-08
2.23488e-06
-8.00396e-08
2.26162e-06
-7.57158e-08
2.28695e-06
-7.15642e-08
2.31092e-06
-6.75815e-08
2.3336e-06
-6.37637e-08
2.35502e-06
-6.01068e-08
2.37524e-06
-5.66062e-08
2.39432e-06
-5.32575e-08
2.41229e-06
-5.00559e-08
2.42921e-06
-4.69966e-08
2.44512e-06
-4.40748e-08
2.46007e-06
-4.12856e-08
2.47409e-06
-3.86243e-08
2.48722e-06
-3.6086e-08
2.49952e-06
-3.36661e-08
2.51101e-06
-3.136e-08
2.52173e-06
-2.9163e-08
2.53172e-06
-2.70707e-08
2.541e-06
-2.5079e-08
2.54963e-06
-2.31834e-08
2.55761e-06
-2.138e-08
2.56499e-06
-1.96647e-08
2.5718e-06
-1.80338e-08
2.57806e-06
-1.64834e-08
2.58379e-06
-1.501e-08
2.58903e-06
-1.36101e-08
2.59379e-06
-1.22802e-08
2.59811e-06
-1.10175e-08
2.602e-06
-9.81862e-09
2.60548e-06
-8.68014e-09
2.60858e-06
-7.59981e-09
2.61131e-06
-6.57499e-09
2.61369e-06
-5.60143e-09
2.61575e-06
-4.67737e-09
2.61749e-06
-3.80076e-09
2.61893e-06
-2.96724e-09
2.62009e-06
-2.17537e-09
2.62099e-06
-1.42456e-09
2.62164e-06
-7.1581e-10
2.62208e-06
-5.65119e-11
2.62228e-06
5.83861e-10
2.62228e-06
1.17882e-09
2.62207e-06
1.74016e-09
2.62166e-06
2.27054e-09
2.62108e-06
2.77378e-09
2.62031e-06
3.25254e-09
2.61939e-06
3.70822e-09
2.6183e-06
4.14187e-09
2.61706e-06
4.55438e-09
2.61568e-06
4.9466e-09
2.61417e-06
5.31942e-09
2.61253e-06
5.67378e-09
2.61078e-06
6.0107e-09
2.6089e-06
6.33109e-09
2.60692e-06
6.6359e-09
2.60484e-06
6.92606e-09
2.60265e-06
7.20245e-09
2.60038e-06
7.46587e-09
2.59801e-06
7.71725e-09
2.59556e-06
7.95726e-09
2.59303e-06
8.18669e-09
2.59043e-06
8.4062e-09
2.58775e-06
8.61641e-09
2.58499e-06
8.81799e-09
2.58217e-06
9.01156e-09
2.57929e-06
9.19761e-09
2.57635e-06
9.37675e-09
2.57334e-06
9.54943e-09
2.57028e-06
9.71615e-09
2.56716e-06
9.87732e-09
2.56399e-06
1.00335e-08
2.56077e-06
1.01849e-08
2.55749e-06
1.03322e-08
2.55417e-06
1.04755e-08
2.5508e-06
1.06153e-08
2.54739e-06
1.07519e-08
2.54393e-06
1.08856e-08
2.54042e-06
1.10169e-08
2.53688e-06
1.11462e-08
2.53329e-06
1.12738e-08
2.52966e-06
1.14e-08
2.52599e-06
1.15254e-08
2.52228e-06
1.16503e-08
2.51852e-06
1.17752e-08
2.51473e-06
1.19007e-08
2.51089e-06
1.20273e-08
2.50702e-06
1.21558e-08
2.5031e-06
1.2287e-08
2.49914e-06
1.24221e-08
2.49513e-06
1.25622e-08
2.49108e-06
1.2709e-08
2.48697e-06
1.28645e-08
2.48282e-06
1.30312e-08
2.47861e-06
1.32123e-08
2.47433e-06
1.34119e-08
2.46999e-06
1.36354e-08
2.46556e-06
1.38893e-08
2.46105e-06
1.4183e-08
2.45643e-06
1.45266e-08
2.45168e-06
1.49393e-08
2.44679e-06
1.54316e-08
2.4417e-06
1.60536e-08
2.43639e-06
1.67896e-08
2.43078e-06
1.78076e-08
2.42483e-06
1.89222e-08
2.41834e-06
2.07798e-08
2.4113e-06
2.24024e-08
2.40334e-06
2.62682e-08
2.39426e-06
2.84347e-08
2.38374e-06
3.73726e-08
2.37025e-06
4.06121e-08
2.35543e-06
6.26497e-08
2.33236e-06
7.13961e-08
2.31476e-06
1.31387e-07
1.66161e-07
2.27629e-06
-5.37077e-08
1.99336e-07
-1.06712e-07
1.91965e-07
-1.58794e-07
1.86563e-07
-2.10416e-07
1.84598e-07
-2.60922e-07
1.80383e-07
-3.09819e-07
1.74219e-07
-3.56643e-07
1.66268e-07
-4.00885e-07
1.5648e-07
-4.42011e-07
1.44803e-07
-4.79471e-07
1.31203e-07
-5.12702e-07
1.15687e-07
-5.41136e-07
9.8262e-08
-5.64217e-07
7.90042e-08
-5.81413e-07
5.80336e-08
-5.92244e-07
3.54941e-08
-5.96309e-07
1.16681e-08
-5.9316e-07
-1.37093e-08
-5.82493e-07
-3.99735e-08
-5.64183e-07
-6.66439e-08
-5.38271e-07
-9.33827e-08
-5.04862e-07
-1.19833e-07
-4.64233e-07
-1.45612e-07
-4.16669e-07
-1.70404e-07
-3.62669e-07
-1.93849e-07
-3.02787e-07
-2.15691e-07
-2.37591e-07
-2.35729e-07
-1.67686e-07
-2.53791e-07
-9.38254e-08
-2.69679e-07
-1.64685e-08
-2.83501e-07
6.35651e-08
-2.95094e-07
1.45736e-07
-3.04544e-07
2.29452e-07
-3.11899e-07
3.14162e-07
-3.17247e-07
3.99361e-07
-3.20701e-07
4.84592e-07
-3.22389e-07
5.69444e-07
-3.22453e-07
6.53554e-07
-3.21043e-07
7.36606e-07
-3.18309e-07
8.18326e-07
-3.14402e-07
8.98482e-07
-3.09469e-07
9.7688e-07
-3.03649e-07
1.05336e-06
-2.97077e-07
1.1278e-06
-2.89876e-07
1.20009e-06
-2.82161e-07
1.27017e-06
-2.74036e-07
1.33797e-06
-2.65597e-07
1.40347e-06
-2.56927e-07
1.46666e-06
-2.48103e-07
1.52752e-06
-2.39191e-07
1.58606e-06
-2.30249e-07
1.64232e-06
-2.21329e-07
1.69632e-06
-2.12473e-07
1.7481e-06
-2.03719e-07
1.79769e-06
-1.95098e-07
1.84515e-06
-1.86636e-07
1.89052e-06
-1.78354e-07
1.93387e-06
-1.7027e-07
1.97525e-06
-1.62397e-07
2.01471e-06
-1.54746e-07
2.05232e-06
-1.47323e-07
2.08814e-06
-1.40136e-07
2.12222e-06
-1.33186e-07
2.15462e-06
-1.26475e-07
2.18541e-06
-1.20003e-07
2.21464e-06
-1.13769e-07
2.24237e-06
-1.07771e-07
2.26866e-06
-1.02004e-07
2.29356e-06
-9.64647e-08
2.31713e-06
-9.11489e-08
2.33941e-06
-8.60511e-08
2.36047e-06
-8.11657e-08
2.38035e-06
-7.6487e-08
2.39911e-06
-7.20089e-08
2.41678e-06
-6.77253e-08
2.43341e-06
-6.36298e-08
2.44905e-06
-5.97162e-08
2.46374e-06
-5.59783e-08
2.47753e-06
-5.24096e-08
2.49045e-06
-4.90041e-08
2.50254e-06
-4.57556e-08
2.51383e-06
-4.2658e-08
2.52438e-06
-3.97055e-08
2.5342e-06
-3.68922e-08
2.54333e-06
-3.42126e-08
2.55181e-06
-3.16611e-08
2.55966e-06
-2.92325e-08
2.56692e-06
-2.69215e-08
2.57361e-06
-2.47231e-08
2.57976e-06
-2.26323e-08
2.58539e-06
-2.06444e-08
2.59054e-06
-1.8755e-08
2.59521e-06
-1.69596e-08
2.59945e-06
-1.5254e-08
2.60327e-06
-1.36342e-08
2.60668e-06
-1.2096e-08
2.60972e-06
-1.06355e-08
2.61239e-06
-9.24936e-09
2.61473e-06
-7.93369e-09
2.61673e-06
-6.6846e-09
2.61843e-06
-5.4991e-09
2.61984e-06
-4.37539e-09
2.62097e-06
-3.31047e-09
2.62185e-06
-2.29882e-09
2.62247e-06
-1.33726e-09
2.62284e-06
-4.26255e-10
2.62299e-06
4.29792e-10
2.62293e-06
1.23838e-09
2.62267e-06
2.00232e-09
2.62222e-06
2.72605e-09
2.62158e-06
3.41226e-09
2.62077e-06
4.06348e-09
2.61979e-06
4.68204e-09
2.61867e-06
5.26975e-09
2.61739e-06
5.82813e-09
2.61598e-06
6.35871e-09
2.61444e-06
6.86284e-09
2.61277e-06
7.34181e-09
2.61098e-06
7.79701e-09
2.60908e-06
8.22979e-09
2.60708e-06
8.64134e-09
2.60497e-06
9.0329e-09
2.60277e-06
9.40575e-09
2.60047e-06
9.76095e-09
2.59809e-06
1.00997e-08
2.59562e-06
1.0423e-08
2.59308e-06
1.07319e-08
2.59046e-06
1.10273e-08
2.58776e-06
1.13099e-08
2.585e-06