/*--------------------------------*- C++ -*----------------------------------*\
  =========                 |
  \\      /  F ield         | OpenFOAM: The Open Source CFD Toolbox
   \\    /   O peration     | Website:  https://openfoam.org
    \\  /    A nd           | Version:  7
     \\/     M anipulation  |
\*---------------------------------------------------------------------------*/
FoamFile
{
    version     2.0;
    format      ascii;
    class       volScalarField;
    location    "0.008";
    object      s_0;
}
// * * * * * * * * * * * * * * * * * * * * * * * * * * * * * * * * * * * * * //

dimensions      [0 0 0 0 0 0 0];

internalField   nonuniform List<scalar> 
12225
(
1
1
1
1
1
1
1
1
1
0.999997
0.999983
0.999919
0.999701
0.999098
0.997661
0.993978
0.983378
0.971926
1
1
1
1
1
1
1
1
1
1
1
0.999999
0.999997
0.999994
0.999993
0.999992
0.99999
0.999981
1
1
1
1
1
1
1
1
1
1
1
1
1
1
1
1
1
1
1
1
1
1
1
1
1
1
1
1
1
1
1
1
1
1
1
1
1
1
1
1
1
1
1
1
1
1
1
1
1
1
1
1
1
1
1
1
1
1
1
1
1
1
1
1
1
1
1
1
1
1
1
1
1
1
1
1
1
1
1
1
1
1
1
1
1
1
1
1
1
1
1
1
1
1
1
1
1
1
1
1
1
1
1
1
1
1
1
1
1
1
1
1
1
1
1
1
1
1
1
1
1
1
1
1
1
1
1
1
1
1
1
1
1
1
1
1
1
1
1
1
1
1
1
1
1
1
1
1
1
1
1
1
1
1
1
1
1
1
1
1
1
1
1
1
1
1
1
1
1
1
1
1
1
1
1
1
1
1
1
1
1
1
1
1
1
1
1
1
1
1
1
1
1
1
1
1
1
1
1
1
1
1
1
1
1
1
1
1
1
1
1
1
1
1
1
1
1
1
1
1
1
1
1
1
1
1
1
1
1
1
1
1
1
1
1
1
1
1
1
1
1
1
1
1
1
1
1
1
1
1
1
1
1
1
1
1
1
1
1
1
1
1
1
1
1
1
1
1
1
1
1
1
1
1
1
1
1
1
1
1
1
1
1
1
1
1
1
1
1
1
1
1
1
1
1
1
1
1
1
1
1
1
1
1
1
1
1
1
1
1
1
1
1
1
1
1
1
1
1
1
1
1
1
1
1
1
1
1
1
1
1
1
1
1
1
1
1
1
1
1
1
1
1
1
1
1
1
1
1
1
1
1
1
1
1
1
1
1
1
1
1
1
1
1
1
1
1
1
1
1
1
1
1
1
1
1
1
1
1
1
1
1
1
1
1
1
1
1
1
1
1
1
1
1
1
1
1
1
1
1
1
1
1
1
1
1
1
1
1
1
1
1
1
1
1
1
1
1
1
1
1
1
1
1
1
1
1
1
1
1
1
1
1
1
1
1
1
1
1
1
1
1
1
1
1
1
1
1
1
1
1
1
1
1
1
1
1
1
1
1
1
1
1
1
1
1
1
1
1
1
1
1
1
1
1
1
1
1
1
1
1
1
1
1
1
1
1
1
1
1
1
1
1
1
1
1
1
1
1
1
1
1
1
1
1.45404e-35
5.39974e-34
1.0666e-32
1.6089e-31
1.99138e-30
2.00039e-29
1.66605e-28
1.23017e-27
8.80435e-27
6.43298e-26
4.72584e-25
3.37823e-24
2.31987e-23
1.52899e-22
9.62215e-22
5.75353e-21
3.39764e-20
1.55324e-19
5.07356e-19
1.2091e-18
2.17231e-18
3.03131e-18
3.42408e-18
3.18874e-18
2.51014e-18
1.70285e-18
1.01314e-18
5.35832e-19
2.5589e-19
1.10681e-19
4.38903e-20
1.60414e-20
5.43668e-21
1.71807e-21
5.08733e-22
1.41769e-22
3.73265e-23
9.31795e-24
2.21242e-24
5.01067e-25
1.08525e-25
2.25313e-26
4.49351e-27
8.6252e-28
1.59624e-28
2.8528e-29
4.93086e-30
8.2534e-31
1.33947e-31
2.11014e-32
3.23008e-33
4.80895e-34
6.96948e-35
9.84034e-36
1.35456e-36
1.81914e-37
2.38496e-38
3.0542e-39
3.82254e-40
4.67799e-41
5.60044e-42
6.56185e-43
7.52742e-44
8.4575e-45
9.31029e-46
1.0045e-46
1.06249e-47
1.10209e-48
1.12131e-49
1.11933e-50
1.0965e-51
1.05428e-52
9.9514e-54
9.22276e-55
8.39364e-56
7.50257e-57
6.58702e-58
5.68109e-59
4.81365e-60
4.00727e-61
3.27777e-62
2.63439e-63
2.0805e-64
1.61451e-65
1.23111e-66
9.22415e-68
6.79058e-69
4.91146e-70
3.48977e-71
2.43563e-72
1.66952e-73
1.12371e-74
7.42488e-76
4.81491e-77
3.06334e-78
1.91109e-79
1.16855e-80
6.99885e-82
4.10102e-83
2.34841e-84
1.31257e-85
7.14907e-87
3.84453e-88
2.04114e-89
1.06983e-90
5.53555e-92
2.82744e-93
1.4256e-94
7.09513e-96
3.48547e-97
1.68999e-98
8.08753e-100
3.81984e-101
1.78058e-102
8.19135e-104
3.71896e-105
1.66631e-106
7.36809e-108
3.2153e-109
1.38471e-110
5.88147e-112
2.41496e-113
1.81548e-114
1.41014e-115
5.59557e-117
2.16957e-118
8.28936e-120
3.15572e-121
1.20277e-122
4.57174e-124
1.67704e-125
1.01256e-126
5.6844e-128
2.53162e-129
9.68681e-131
3.35578e-132
1.12223e-133
3.71573e-135
1.22883e-136
4.05549e-138
1.29269e-139
7.41895e-141
3.97107e-142
1.24257e-143
4.12247e-145
1.3047e-146
3.91693e-148
1.14217e-149
3.29401e-151
9.45234e-153
2.71877e-154
1.3958e-155
7.12701e-157
1.84212e-158
4.88764e-160
1.32253e-161
3.55025e-163
9.349e-165
2.42144e-166
6.10848e-168
2.34224e-169
8.78204e-171
3.22005e-172
7.55735e-174
1.72514e-175
4.02e-177
9.44328e-179
2.19729e-180
5.03014e-182
1.11327e-183
4.33491e-185
1.54949e-186
3.60052e-188
8.13064e-190
1.68542e-191
3.36439e-193
6.67122e-195
1.31034e-196
2.51277e-198
7.57672e-200
2.10051e-33
8.53459e-32
1.88454e-30
3.14257e-29
4.19459e-28
4.50448e-27
4.04465e-26
3.26898e-25
2.56686e-24
2.01306e-23
1.54172e-22
1.12501e-21
7.77486e-21
5.09788e-20
3.15845e-19
1.83518e-18
1.03907e-17
4.36738e-17
1.32066e-16
2.94016e-16
4.96256e-16
6.53774e-16
7.08788e-16
6.32373e-16
4.81999e-16
3.18096e-16
1.85089e-16
9.61588e-17
4.51596e-17
1.93462e-17
7.61833e-18
2.77286e-18
9.38295e-19
2.96735e-19
8.81125e-20
2.46692e-20
6.53649e-21
1.64462e-21
3.94124e-22
9.02073e-23
1.97684e-23
4.15722e-24
8.40677e-25
1.63781e-25
3.07924e-26
5.59567e-27
9.8425e-28
1.67793e-28
2.77571e-29
4.46055e-30
6.97036e-31
1.06018e-31
1.57086e-32
2.26921e-33
3.19821e-34
4.40082e-35
5.91603e-36
7.77411e-37
9.99158e-38
1.25661e-38
1.54725e-39
1.86597e-40
2.20502e-41
2.5542e-42
2.90129e-43
3.23271e-44
3.53447e-45
3.79308e-46
3.99663e-47
4.13565e-48
4.20388e-49
4.19869e-50
4.12126e-51
3.97637e-52
3.77196e-53
3.51843e-54
3.22779e-55
2.91274e-56
2.58586e-57
2.25877e-58
1.94158e-59
1.64252e-60
1.36767e-61
1.12102e-62
9.04579e-64
7.18653e-65
5.62168e-66
4.33032e-67
3.28482e-68
2.45396e-69
1.80557e-70
1.30851e-71
9.34071e-73
6.56812e-74
4.54969e-75
3.10471e-76
2.08726e-77
1.3825e-78
9.02196e-80
5.80096e-81
3.67518e-82
2.2943e-83
1.4113e-84
8.55446e-86
5.11639e-87
3.01985e-88
1.7589e-89
1.01091e-90
5.73313e-92
3.20818e-93
1.77133e-94
9.64943e-96
5.18622e-97
2.75001e-98
1.43861e-99
7.42447e-101
3.78004e-102
1.89858e-103
9.40718e-105
4.59816e-106
2.21718e-107
1.05466e-108
4.94899e-110
2.29096e-111
1.0462e-112
4.71324e-114
2.09475e-115
9.1846e-117
3.97293e-118
1.69547e-119
7.13856e-121
2.96537e-122
1.21536e-123
4.9147e-125
1.96096e-126
7.72026e-128
2.99914e-129
1.14967e-130
4.3489e-132
1.62339e-133
5.98024e-135
2.1741e-136
7.80047e-138
2.76219e-139
9.65371e-141
3.33008e-142
1.13384e-143
3.81064e-145
1.26418e-146
4.13996e-148
1.33838e-149
4.27137e-151
1.34579e-152
4.18626e-154
1.28565e-155
3.89839e-157
1.16714e-158
3.45027e-160
1.00713e-161
2.90289e-163
8.26229e-165
2.32222e-166
6.44535e-168
1.76659e-169
4.78158e-171
1.27807e-172
3.37344e-174
8.79261e-176
2.2629e-177
5.75015e-179
1.44249e-180
3.57178e-182
8.72785e-184
2.1038e-185
5.00014e-187
1.17088e-188
2.69778e-190
6.1069e-192
1.35146e-193
2.92156e-195
1.94352e-31
9.01081e-30
2.2763e-28
4.14769e-27
5.82178e-26
6.55163e-25
6.2861e-24
5.52424e-23
4.6612e-22
3.78354e-21
2.89688e-20
2.06885e-19
1.38016e-18
8.63582e-18
5.05393e-17
2.74875e-16
1.44196e-15
5.62272e-15
1.58264e-14
3.29814e-14
5.23695e-14
6.55019e-14
6.80803e-14
5.82637e-14
4.30343e-14
2.76469e-14
1.57389e-14
8.02772e-15
3.71396e-15
1.57163e-15
6.13838e-16
2.22212e-16
7.49585e-17
2.3679e-17
7.03568e-18
1.97408e-18
5.24905e-19
1.32691e-19
3.19817e-20
7.36882e-21
1.62691e-21
3.44935e-22
7.03677e-23
1.38373e-23
2.62713e-24
4.82298e-25
8.57333e-26
1.47751e-26
2.47148e-27
4.0169e-28
6.34979e-29
9.77125e-30
1.46496e-30
2.14152e-31
3.05454e-32
4.25387e-33
5.78768e-34
7.69758e-35
1.0013e-35
1.27454e-36
1.58825e-37
1.93843e-38
2.31805e-39
2.71711e-40
3.12287e-41
3.52056e-42
3.89419e-43
4.22766e-44
4.50589e-45
4.716e-46
4.84829e-47
4.89695e-48
4.86048e-49
4.74177e-50
4.54772e-51
4.28862e-52
3.97728e-53
3.62802e-54
3.25562e-55
2.87435e-56
2.49714e-57
2.13501e-58
1.79663e-59
1.48821e-60
1.21356e-61
9.74303e-63
7.70186e-64
5.99518e-65
4.59565e-66
3.46945e-67
2.57971e-68
1.88932e-69
1.36298e-70
9.68599e-72
6.781e-73
4.6769e-74
3.17803e-75
2.1277e-76
1.40356e-77
9.12309e-79
5.84323e-80
3.68791e-81
2.29372e-82
1.40588e-83
8.49264e-85
5.06192e-86
2.977e-87
1.72749e-88
9.89015e-90
5.58638e-91
3.11303e-92
1.71139e-93
9.28146e-95
4.96564e-96
2.62071e-97
1.3644e-98
7.00702e-100
3.54973e-101
1.77387e-102
8.74409e-104
4.25178e-105
2.03935e-106
9.64897e-108
4.50341e-109
2.07337e-110
9.41663e-112
4.21893e-113
1.86468e-114
8.13038e-116
3.49728e-117
1.48413e-118
6.21364e-120
2.56663e-121
1.04601e-122
4.20604e-124
1.66874e-125
6.5327e-127
2.52347e-128
9.61879e-130
3.61801e-131
1.34295e-132
4.91935e-134
1.77838e-135
6.34488e-137
2.2342e-138
7.76482e-140
2.6636e-141
9.0188e-143
3.01429e-144
9.94475e-146
3.23884e-147
1.04132e-148
3.30521e-150
1.03572e-151
3.20429e-153
9.7877e-155
2.9519e-156
8.7904e-158
2.58473e-159
7.50465e-161
2.15163e-162
6.09163e-164
1.70309e-165
4.70201e-167
1.28196e-168
3.4515e-170
9.17653e-172
2.40919e-173
6.24548e-175
1.59855e-176
4.03929e-178
1.00746e-179
2.47965e-181
6.02101e-183
1.44139e-184
3.40076e-186
7.89299e-188
1.80208e-189
4.02579e-191
8.83325e-193
1.5075e-29
8.03291e-28
2.24992e-26
4.32422e-25
6.28766e-24
7.42311e-23
7.61809e-22
7.15193e-21
6.25664e-20
5.07173e-19
3.7781e-18
2.58623e-17
1.63645e-16
9.61669e-16
5.23654e-15
2.63028e-14
1.26405e-13
4.55487e-13
1.19077e-12
2.31963e-12
3.45899e-12
4.13344e-12
4.11172e-12
3.37899e-12
2.42224e-12
1.51657e-12
8.4607e-13
4.24452e-13
1.93826e-13
8.10856e-14
3.14373e-14
1.13317e-14
3.81463e-15
1.20486e-15
3.58551e-16
1.00906e-16
2.6946e-17
6.84858e-18
1.66123e-18
3.85534e-19
8.58e-20
1.83484e-20
3.77761e-21
7.50044e-22
1.43844e-22
2.66842e-23
4.79456e-24
8.35412e-25
1.41316e-25
2.32309e-26
3.71479e-27
5.78324e-28
8.77257e-29
1.29755e-29
1.87267e-30
2.63886e-31
3.63285e-32
4.88871e-33
6.434e-34
8.28549e-35
1.04448e-35
1.28947e-36
1.55964e-37
1.84883e-38
2.14876e-39
2.44926e-40
2.7389e-41
3.00564e-42
3.23771e-43
3.42446e-44
3.55719e-45
3.62981e-46
3.63929e-47
3.58588e-48
3.47301e-49
3.30696e-50
3.09626e-51
2.85103e-52
2.58221e-53
2.30075e-54
2.01693e-55
1.73986e-56
1.47703e-57
1.23414e-58
1.01505e-59
8.21856e-61
6.55139e-62
5.14206e-63
3.97411e-64
3.02465e-65
2.26711e-66
1.67363e-67
1.21693e-68
8.71588e-70
6.14928e-71
4.27391e-72
2.92641e-73
1.97412e-74
1.31208e-75
8.59236e-77
5.54432e-78
3.52521e-79
2.20872e-80
1.36373e-81
8.29778e-83
4.9789e-84
2.94753e-85
1.72156e-86
9.9199e-88
5.63904e-89
3.16231e-90
1.74942e-91
9.54689e-93
5.13927e-94
2.72899e-95
1.42942e-96
7.38529e-98
3.76377e-99
1.89201e-100
9.38146e-102
4.58842e-103
2.21362e-104
1.05341e-105
4.94477e-107
2.28958e-108
1.04577e-109
4.71181e-111
2.09422e-112
9.18225e-114
3.97169e-115
1.69477e-116
7.13452e-118
2.96312e-119
1.21416e-120
4.90857e-122
1.95794e-123
7.70586e-125
2.99249e-126
1.1467e-127
4.33591e-129
1.61787e-130
5.9573e-132
2.16478e-133
7.76339e-135
2.74774e-136
9.59847e-138
3.30936e-139
1.12621e-140
3.783e-142
1.25434e-143
4.10556e-145
1.32653e-146
4.23126e-148
1.33242e-149
4.14234e-151
1.27145e-152
3.85313e-154
1.15293e-155
3.40629e-157
9.93707e-159
2.8625e-160
8.14237e-162
2.28709e-163
6.34379e-165
1.73759e-166
4.69981e-168
1.25528e-169
3.31065e-171
8.6214e-173
2.21669e-174
5.6265e-176
1.40969e-177
3.48524e-179
8.5013e-181
2.04438e-182
4.84625e-184
1.13032e-185
2.59471e-187
5.8365e-189
1.291e-190
1.20907e-27
7.11392e-26
2.10145e-24
4.15465e-23
6.24467e-22
7.73498e-21
8.33769e-20
8.03846e-19
6.98133e-18
5.46347e-17
3.86267e-16
2.48337e-15
1.46311e-14
7.9359e-14
3.95618e-13
1.80907e-12
7.85013e-12
2.59613e-11
6.2734e-11
1.14078e-10
1.59559e-10
1.82982e-10
1.74303e-10
1.37797e-10
9.60381e-11
5.8684e-11
3.21404e-11
1.59002e-11
7.17918e-12
2.9752e-12
1.14583e-12
4.11819e-13
1.38525e-13
4.37999e-14
1.3069e-14
3.69282e-15
9.91293e-16
2.53527e-16
6.19379e-17
1.44888e-17
3.2523e-18
7.01924e-19
1.45919e-19
2.92668e-20
5.67195e-21
1.06362e-21
1.93234e-22
3.40512e-23
5.8264e-24
9.68976e-25
1.56771e-25
2.4696e-26
3.79077e-27
5.67395e-28
8.28681e-29
1.18169e-29
1.64621e-30
2.24162e-31
2.98509e-32
3.88929e-33
4.96013e-34
6.19449e-35
7.57835e-36
9.08571e-37
1.06784e-37
1.23072e-38
1.3914e-39
1.54349e-40
1.6805e-41
1.79625e-42
1.88535e-43
1.94366e-44
1.96853e-45
1.95906e-46
1.91613e-47
1.84227e-48
1.74144e-49
1.61869e-50
1.47973e-51
1.33056e-52
1.177e-53
1.02439e-54
8.77322e-56
7.39438e-57
6.13399e-58
5.00873e-59
4.02621e-60
3.18631e-61
2.48278e-62
1.90495e-63
1.43931e-64
1.07098e-65
7.84855e-67
5.66513e-68
4.02778e-69
2.82086e-70
1.94616e-71
1.32275e-72
8.85726e-74
5.84339e-75
3.79831e-76
2.43272e-77
1.53529e-78
9.54769e-80
5.85111e-81
3.53506e-82
2.10705e-83
1.23896e-84
7.18675e-86
4.11233e-87
2.32122e-88
1.29243e-89
7.09831e-91
3.84548e-92
2.05488e-93
1.08308e-94
5.63073e-96
2.88734e-97
1.46036e-98
7.28528e-100
3.58478e-101
1.73984e-102
8.32897e-104
3.93291e-105
1.83181e-106
8.41593e-108
3.81402e-109
1.70503e-110
7.51896e-112
3.27092e-113
1.40371e-114
5.94282e-116
2.48213e-117
1.02279e-118
4.15801e-120
1.66778e-121
6.60021e-123
2.57723e-124
9.9298e-126
3.77513e-127
1.41626e-128
5.24305e-130
1.91546e-131
6.90591e-133
2.45723e-134
8.62897e-136
2.99073e-137
1.02309e-138
3.45452e-140
1.15136e-141
3.78787e-143
1.23015e-144
3.94383e-146
1.2482e-147
3.90008e-149
1.20309e-150
3.66416e-152
1.10183e-153
3.27138e-155
9.59038e-157
2.77613e-158
7.93509e-160
2.23965e-161
6.24211e-163
1.71794e-164
4.66883e-166
1.25293e-167
3.32013e-169
8.68698e-171
2.2441e-172
5.72298e-174
1.44066e-175
3.57878e-177
8.77165e-179
2.1198e-180
5.05076e-182
1.18455e-183
2.73584e-185
6.20277e-187
1.38567e-188
1.07552e-25
6.60395e-24
1.99387e-22
4.02593e-21
6.22156e-20
7.89763e-19
8.55717e-18
8.06619e-17
6.68334e-16
4.90864e-15
3.22445e-14
1.91193e-13
1.03138e-12
5.08359e-12
2.28782e-11
9.40554e-11
3.63447e-10
1.0951e-09
2.4343e-09
4.12784e-09
5.4225e-09
5.98302e-09
5.47727e-09
4.1795e-09
2.83728e-09
1.69553e-09
9.13711e-10
4.46789e-10
2.00016e-10
8.23546e-11
3.15448e-11
1.13246e-11
3.81276e-12
1.20873e-12
3.62144e-13
1.0288e-13
2.77957e-14
7.16156e-15
1.76399e-15
4.16321e-16
9.43409e-17
2.05652e-17
4.31995e-18
8.75838e-19
1.71632e-19
3.25523e-20
5.98281e-21
1.06673e-21
1.84707e-22
3.10888e-23
5.09096e-24
8.11753e-25
1.26126e-25
1.91092e-26
2.82502e-27
4.07759e-28
5.74952e-29
7.92378e-30
1.06787e-30
1.40796e-31
1.8169e-32
2.29572e-33
2.84129e-34
3.4457e-35
4.09592e-36
4.7739e-37
5.45728e-38
6.12045e-39
6.73613e-40
7.27729e-41
7.7191e-42
8.04083e-43
8.22749e-44
8.27098e-45
8.1706e-46
7.93306e-47
7.57171e-48
7.10536e-49
6.55673e-50
5.95061e-51
5.31216e-52
4.66525e-53
4.03114e-54
3.42753e-55
2.86804e-56
2.36202e-57
1.91479e-58
1.52806e-59
1.20054e-60
9.28682e-62
7.07368e-63
5.30571e-64
3.91914e-65
2.85112e-66
2.04289e-67
1.4418e-68
1.00234e-69
6.86442e-71
4.63115e-72
3.07816e-73
2.01572e-74
1.30054e-75
8.26787e-77
5.17912e-78
3.19688e-79
1.94515e-80
1.16751e-81
6.91258e-83
4.03715e-84
2.32573e-85
1.32156e-86
7.4071e-88
4.09485e-89
2.23281e-90
1.20083e-91
6.36981e-93
3.33258e-94
1.71966e-95
8.75211e-97
4.39329e-98
2.17509e-99
1.06213e-100
5.1156e-102
2.43018e-103
1.1387e-104
5.2628e-106
2.39921e-107
1.07888e-108
4.78566e-110
2.09402e-111
9.03864e-113
3.84873e-114
1.61672e-115
6.6999e-117
2.73923e-118
1.10491e-119
4.39724e-121
1.72662e-122
6.68948e-124
2.55729e-125
9.64657e-127
3.59076e-128
1.31896e-129
4.78111e-131
1.71036e-132
6.03844e-134
2.10404e-135
7.23588e-137
2.45613e-138
8.22903e-140
2.72144e-141
8.88413e-143
2.86295e-144
9.10772e-146
2.86033e-147
8.86847e-149
2.71469e-150
8.20434e-152
2.44812e-153
7.21274e-155
2.09824e-156
6.02712e-158
1.70951e-159
4.78789e-161
1.32414e-162
3.61611e-164
9.75129e-166
2.59648e-167
6.82642e-169
1.77199e-170
4.54089e-172
1.14866e-173
2.86747e-175
7.06331e-177
1.71581e-178
4.10999e-180
9.69654e-182
2.25373e-183
5.15134e-185
1.16078e-186
1.04446e-23
6.5009e-22
1.98108e-20
4.0286e-19
6.21294e-18
7.7279e-17
8.02651e-16
7.11514e-15
5.46987e-14
3.69535e-13
2.2191e-12
1.19595e-11
5.82672e-11
2.57645e-10
1.03413e-09
3.7776e-09
1.28267e-08
3.49726e-08
7.1234e-08
1.12414e-07
1.39514e-07
1.48326e-07
1.31117e-07
9.71993e-08
6.44359e-08
3.77561e-08
2.00738e-08
9.73106e-09
4.33295e-09
1.77799e-09
6.78895e-10
2.43971e-10
8.23837e-11
2.62361e-11
7.90667e-12
2.2619e-12
6.15981e-13
1.60101e-13
3.98087e-14
9.48987e-15
2.1732e-15
4.78944e-16
1.0175e-16
2.08697e-17
4.1384e-18
7.9441e-19
1.47797e-19
2.66791e-20
4.67728e-21
7.97146e-22
1.32183e-22
2.13427e-23
3.358e-24
5.15184e-25
7.71206e-26
1.12709e-26
1.60905e-27
2.24502e-28
3.06282e-29
4.08757e-30
5.33871e-31
6.82661e-32
8.54936e-33
1.049e-33
1.26145e-34
1.48716e-35
1.71935e-36
1.94992e-37
2.16983e-38
2.36975e-39
2.54071e-40
2.67473e-41
2.7655e-42
2.80884e-43
2.803e-44
2.74882e-45
2.64956e-46
2.5106e-47
2.33901e-48
2.14289e-49
1.93084e-50
1.71132e-51
1.49214e-52
1.28008e-53
1.0806e-54
8.97715e-56
7.34015e-57
5.90753e-58
4.68039e-59
3.65066e-60
2.80355e-61
2.11996e-62
1.57856e-63
1.15754e-64
8.35959e-66
5.94609e-67
4.16582e-68
2.87487e-69
1.95436e-70
1.30883e-71
8.63526e-73
5.61305e-74
3.59479e-75
2.26839e-76
1.41042e-77
8.64391e-79
5.22532e-80
3.11564e-81
1.83233e-82
1.06286e-83
6.08074e-85
3.43117e-86
1.90954e-87
1.04812e-88
5.67394e-90
3.02933e-91
1.59513e-92
8.28379e-94
4.24276e-95
2.14317e-96
1.06771e-97
5.24619e-99
2.54235e-100
1.21515e-101
5.72849e-103
2.6636e-104
1.22159e-105
5.52613e-107
2.46583e-108
1.08533e-109
4.71224e-111
2.01824e-112
8.52719e-114
3.5542e-115
1.46147e-116
5.92879e-118
2.3729e-119
9.37015e-121
3.65072e-122
1.40343e-123
5.32347e-125
1.99254e-126
7.35938e-128
2.68233e-129
9.64792e-131
3.42469e-132
1.19975e-133
4.14814e-135
1.41556e-136
4.76792e-138
1.58515e-139
5.20196e-141
1.68513e-142
5.38873e-144
1.70114e-145
5.30158e-147
1.63117e-148
4.95492e-150
1.48603e-151
4.40033e-153
1.28654e-154
3.71405e-156
1.05869e-157
2.97987e-159
8.28197e-161
2.2729e-162
6.15936e-164
1.64813e-165
4.35442e-167
1.13588e-168
2.92522e-170
7.4365e-172
1.86582e-173
4.61963e-175
1.1282e-176
2.71748e-178
6.45054e-180
1.5092e-181
3.47717e-183
7.90401e-185
1.07927e-21
6.65943e-20
1.99483e-18
3.9356e-17
5.79396e-16
6.76921e-15
6.51732e-14
5.306e-13
3.72332e-12
2.28544e-11
1.24134e-10
6.01924e-10
2.62253e-09
1.03044e-08
3.65554e-08
1.17574e-07
3.47094e-07
8.51433e-07
1.58473e-06
2.32482e-06
2.74885e-06
2.81876e-06
2.41997e-06
1.76046e-06
1.14447e-06
6.60104e-07
3.47327e-07
1.6748e-07
7.4427e-08
3.05393e-08
1.16683e-08
4.20705e-09
1.42829e-09
4.57938e-10
1.39101e-10
4.01469e-11
1.1039e-11
2.8989e-12
7.28679e-13
1.75687e-13
4.07071e-14
9.08001e-15
1.95292e-15
4.05607e-16
8.14589e-17
1.58389e-17
2.98513e-18
5.45903e-19
9.69626e-20
1.67426e-20
2.81279e-21
4.60129e-22
7.33438e-23
1.13993e-23
1.72859e-24
2.55893e-25
3.70005e-26
5.22828e-27
7.22298e-28
9.76048e-29
1.29063e-29
1.67063e-30
2.11769e-31
2.62965e-32
3.19986e-33
3.81677e-34
4.46394e-35
5.12059e-36
5.76257e-37
6.36379e-38
6.89801e-39
7.34073e-40
7.6711e-41
7.87351e-42
7.93886e-43
7.86519e-44
7.65774e-45
7.32836e-46
6.89444e-47
6.37742e-48
5.8011e-49
5.18986e-50
4.56709e-51
3.95383e-52
3.36777e-53
2.82269e-54
2.32823e-55
1.89007e-56
1.51029e-57
1.18798e-58
9.1996e-60
7.01405e-61
5.26557e-62
3.8925e-63
2.83367e-64
2.03159e-65
1.43455e-66
9.97724e-68
6.83515e-69
4.61265e-70
3.06648e-71
2.00833e-72
1.29586e-73
8.23816e-75
5.1602e-76
3.18584e-77
1.9399e-78
1.165e-79
6.90009e-81
4.03056e-82
2.32194e-83
1.3192e-84
7.39163e-86
4.08447e-87
2.22584e-88
1.19623e-89
6.34012e-91
3.31391e-92
1.70823e-93
8.68398e-95
4.35372e-96
2.15266e-97
1.04972e-98
5.04842e-100
2.3946e-101
1.12025e-102
5.16901e-104
2.35245e-105
1.05601e-106
4.67577e-108
2.04217e-109
8.79822e-111
3.73915e-112
1.56761e-113
6.4834e-115
2.64534e-116
1.06484e-117
4.2289e-119
1.657e-120
6.40596e-122
2.44358e-123
9.19741e-125
3.41596e-126
1.25194e-127
4.52788e-129
1.61607e-130
5.69237e-132
1.97884e-133
6.78931e-135
2.29909e-136
7.68449e-138
2.53523e-139
8.2562e-141
2.65409e-142
8.4225e-144
2.63857e-145
8.16044e-147
2.49166e-148
7.5112e-150
2.23556e-151
6.56949e-153
1.90615e-154
5.46099e-156
1.54483e-157
4.31514e-159
1.19018e-160
3.24142e-162
8.71679e-164
2.31454e-165
6.06795e-167
1.57056e-168
4.01302e-170
1.01208e-171
2.51908e-173
6.18596e-175
1.49854e-176
3.57939e-178
8.4311e-180
1.95777e-181
4.48873e-183
1.10256e-19
6.50606e-18
1.8434e-16
3.39872e-15
4.62292e-14
4.94638e-13
4.33697e-12
3.20354e-11
2.03344e-10
1.1255e-09
5.49136e-09
2.38073e-08
9.22369e-08
3.20417e-07
9.99752e-07
2.81292e-06
7.15851e-06
1.57425e-05
2.67376e-05
3.64599e-05
4.15468e-05
4.10746e-05
3.45059e-05
2.49321e-05
1.60279e-05
9.15157e-06
4.78348e-06
2.30288e-06
1.02538e-06
4.22329e-07
1.62162e-07
5.8842e-08
2.01407e-08
6.51786e-09
2.00017e-09
5.83645e-10
1.62351e-10
4.31517e-11
1.0983e-11
2.68217e-12
6.29646e-13
1.42326e-13
3.10262e-14
6.53205e-15
1.32991e-15
2.62163e-16
5.00941e-17
9.28793e-18
1.67256e-18
2.92794e-19
4.98673e-20
8.26938e-21
1.3361e-21
2.10476e-22
3.23463e-23
4.85237e-24
7.1092e-25
1.01775e-25
1.42434e-26
1.94954e-27
2.61078e-28
3.42213e-29
4.39205e-30
5.52117e-31
6.80032e-32
8.20906e-33
9.71519e-34
1.12751e-34
1.28357e-35
1.43369e-36
1.57156e-37
1.69101e-38
1.78647e-39
1.85341e-40
1.88868e-41
1.89077e-42
1.85992e-43
1.79804e-44
1.70854e-45
1.59604e-46
1.46595e-47
1.32409e-48
1.17623e-49
1.02779e-50
8.83508e-52
7.47237e-53
6.21868e-54
5.09304e-55
4.10523e-56
3.25704e-57
2.54373e-58
1.95578e-59
1.48049e-60
1.10347e-61
8.09868e-63
5.85329e-64
4.16625e-65
2.92063e-66
2.0166e-67
1.37151e-68
9.18836e-70
6.06398e-71
3.94257e-72
2.52537e-73
1.59372e-74
9.91344e-76
6.0812e-77
3.67876e-78
2.19462e-79
1.2911e-80
7.49029e-82
4.28527e-83
2.41766e-84
1.34508e-85
7.3796e-87
3.99257e-88
2.13013e-89
1.12071e-90
5.81464e-92
2.97505e-93
1.50111e-94
7.46941e-96
3.66539e-97
1.77387e-98
8.46643e-100
3.98533e-101
1.85021e-102
8.47197e-104
3.82615e-105
1.70437e-106
7.48866e-108
3.24558e-109
1.38753e-110
5.85146e-112
2.43429e-113
9.99034e-115
4.04483e-116
1.61564e-117
6.36694e-119
2.47554e-120
9.4968e-122
3.59474e-123
1.34262e-124
4.94827e-126
1.79961e-127
6.45872e-129
2.28755e-130
7.9959e-132
2.75836e-133
9.39154e-135
3.15602e-136
1.04683e-137
3.42737e-139
1.10766e-140
3.53371e-142
1.11288e-143
3.45995e-145
1.06197e-146
3.21803e-148
9.62752e-150
2.84379e-151
8.29376e-153
2.38829e-154
6.79063e-156
1.90647e-157
5.28508e-159
1.44669e-160
3.91018e-162
1.04354e-163
2.74979e-165
7.15386e-167
1.83742e-168
4.65849e-170
1.16577e-171
2.87883e-173
7.01484e-175
1.68621e-176
3.99892e-178
9.35744e-180
2.16338e-181
9.55095e-18
5.20831e-16
1.35515e-14
2.28225e-13
2.83099e-12
2.75895e-11
2.1978e-10
1.47082e-09
8.43442e-09
4.20383e-08
1.83974e-07
7.12125e-07
2.45018e-06
7.51565e-06
2.05967e-05
5.05793e-05
0.000111084
0.000218362
0.000338375
0.000430888
0.000476227
0.000456114
0.000378169
0.000274383
0.00017702
0.000100968
5.27021e-05
2.54346e-05
1.13975e-05
4.73278e-06
1.8347e-06
6.72607e-07
2.32853e-07
7.62784e-08
2.37102e-08
7.01148e-09
1.97732e-09
5.32987e-10
1.37606e-10
3.40942e-11
8.1213e-12
1.8629e-12
4.12129e-13
8.80574e-14
1.81948e-14
3.63998e-15
7.05823e-16
1.32795e-16
2.42641e-17
4.3095e-18
7.4459e-19
1.25246e-19
2.05244e-20
3.27883e-21
5.10944e-22
7.77099e-23
1.15414e-23
1.67468e-24
2.3752e-25
3.29418e-26
4.46943e-27
5.93443e-28
7.7141e-29
9.82014e-30
1.22466e-30
1.49663e-31
1.79282e-32
2.10573e-33
2.42564e-34
2.74105e-35
3.03934e-36
3.30758e-37
3.5335e-38
3.70644e-39
3.81813e-40
3.86341e-41
3.84058e-42
3.75151e-43
3.6014e-44
3.39831e-45
3.15245e-46
2.87536e-47
2.57902e-48
2.27508e-49
1.97412e-50
1.68514e-51
1.41527e-52
1.16957e-53
9.51149e-55
7.61283e-56
5.99738e-57
4.65086e-58
3.55058e-59
2.66867e-60
1.97493e-61
1.43915e-62
1.03272e-63
7.29811e-65
5.07949e-66
3.48205e-67
2.35115e-68
1.5638e-69
1.0246e-70
6.61347e-72
4.20553e-73
2.63601e-74
1.62922e-75
9.92922e-77
5.96696e-78
3.53585e-79
2.06604e-80
1.19038e-81
6.76291e-83
3.78864e-84
2.09284e-85
1.13996e-86
6.12284e-88
3.24283e-89
1.6936e-90
8.72201e-92
4.42943e-93
2.21826e-94
1.09551e-95
5.33543e-97
2.56259e-98
1.21382e-99
5.67034e-101
2.61246e-102
1.1871e-103
5.3203e-105
2.35183e-106
1.02544e-107
4.4102e-109
1.87097e-110
7.82971e-112
3.23229e-113
1.31636e-114
5.28872e-116
2.0963e-117
8.19779e-119
3.16298e-120
1.20411e-121
4.52292e-123
1.67638e-124
6.13113e-126
2.21278e-127
7.881e-129
2.77003e-130
9.60868e-132
3.28953e-133
1.1115e-134
3.70686e-136
1.22023e-137
3.96484e-139
1.27168e-140
4.02634e-142
1.25846e-143
3.88311e-145
1.18288e-146
3.55749e-148
1.05632e-149
3.09675e-151
8.96381e-153
2.56189e-154
7.22971e-156
2.01455e-157
5.54286e-159
1.50588e-160
4.03966e-162
1.07e-163
2.79831e-165
7.22531e-167
1.84175e-168
4.63436e-170
1.151e-171
2.82144e-173
6.82556e-175
1.62983e-176
3.84259e-178
8.956e-180
5.98711e-16
2.97247e-14
7.08141e-13
1.08944e-11
1.22653e-10
1.08135e-09
7.805e-09
4.74206e-08
2.46872e-07
1.1145e-06
4.40007e-06
1.52846e-05
4.69121e-05
0.000127598
0.000308455
0.00066447
0.00127615
0.00222384
0.0031447
0.0037798
0.00407451
0.00381124
0.00315076
0.00231505
0.00152681
0.000884244
0.000464743
0.000225934
0.000102389
4.30769e-05
1.69461e-05
6.30449e-06
2.21544e-06
7.3701e-07
2.32724e-07
6.99277e-08
2.00408e-08
5.49022e-09
1.44068e-09
3.62808e-10
8.78377e-11
2.0478e-11
4.60413e-12
9.99682e-13
2.09886e-13
4.26601e-14
8.40333e-15
1.60587e-15
2.9799e-16
5.37407e-17
9.42681e-18
1.60958e-18
2.67698e-19
4.33958e-20
6.86091e-21
1.0585e-21
1.59443e-22
2.34607e-23
3.3736e-24
4.743e-25
6.52224e-26
8.77585e-27
1.15581e-27
1.49053e-28
1.88271e-29
2.33e-30
2.82604e-31
3.36025e-32
3.91788e-33
4.48047e-34
5.02684e-35
5.53431e-36
5.98032e-37
6.3441e-38
6.60825e-39
6.7602e-40
6.79311e-41
6.70644e-42
6.50585e-43
6.20263e-44
5.81268e-45
5.35514e-46
4.8509e-47
4.32107e-48
3.7856e-49
3.26219e-50
2.76545e-51
2.30651e-52
1.89289e-53
1.5287e-54
1.21503e-55
9.50525e-57
7.31964e-58
5.54884e-59
4.14131e-60
3.04319e-61
2.20195e-62
1.56893e-63
1.10089e-64
7.60785e-66
5.17819e-67
3.47152e-68
2.29249e-69
1.49131e-70
9.55703e-72
6.03706e-73
3.75997e-74
2.30887e-75
1.3979e-76
8.34469e-78
4.91142e-79
2.85014e-80
1.63076e-81
9.19983e-83
5.11728e-84
2.80654e-85
1.51769e-86
8.09237e-88
4.25459e-89
2.20564e-90
1.1275e-91
5.68336e-93
2.82497e-94
1.38468e-95
6.69303e-97
3.19039e-98
1.49977e-99
6.95302e-101
3.1791e-102
1.4336e-103
6.37613e-105
2.79708e-106
1.21027e-107
5.16543e-109
2.17464e-110
9.03107e-112
3.69978e-113
1.49524e-114
5.96157e-116
2.34497e-117
9.10034e-119
3.48446e-120
1.31639e-121
4.90706e-123
1.80494e-124
6.55118e-126
2.34645e-127
8.29374e-129
2.89304e-130
9.95949e-132
3.38388e-133
1.13476e-134
3.75592e-136
1.22707e-137
3.95714e-139
1.25968e-140
3.95847e-142
1.22799e-143
3.76074e-145
1.13706e-146
3.39415e-148
1.00031e-149
2.91074e-151
8.36276e-153
2.37237e-154
6.64519e-156
1.83795e-157
5.01951e-159
1.35361e-160
3.60431e-162
9.47634e-164
2.46001e-165
6.30509e-167
1.59546e-168
3.98562e-170
9.82927e-172
2.39321e-173
5.75383e-175
1.36662e-176
3.21041e-178
2.27471e-14
1.0164e-12
2.20256e-11
3.10827e-10
3.23839e-09
2.65301e-08
1.77419e-07
9.92488e-07
4.72905e-06
1.9449e-05
6.96718e-05
0.000218709
0.000604147
0.0014737
0.00318478
0.00610751
0.0104055
0.0159335
0.020671
0.0238929
0.0253102
0.0236101
0.0195893
0.0147548
0.0100469
0.00607789
0.00326504
0.00161048
0.000742067
0.000318141
0.00012772
4.84469e-05
1.7351e-05
5.88292e-06
1.8932e-06
5.79689e-07
1.69275e-07
4.7243e-08
1.26274e-08
3.23856e-09
7.98385e-10
1.89495e-10
4.33668e-11
9.58265e-12
2.04707e-12
4.23259e-13
8.47959e-14
1.64769e-14
3.10822e-15
5.69717e-16
1.01547e-16
1.76142e-17
2.97541e-18
4.89784e-19
7.86137e-20
1.23105e-20
1.88177e-21
2.80922e-22
4.09767e-23
5.84263e-24
8.14663e-25
1.11126e-25
1.48345e-26
1.93868e-27
2.48114e-28
3.11059e-29
3.82128e-30
4.60116e-31
5.43169e-32
6.28812e-33
7.1405e-34
7.95535e-35
8.69778e-36
9.334e-37
9.83391e-38
1.01735e-38
1.03366e-39
1.03164e-40
1.01158e-41
9.74679e-43
9.22966e-44
8.59089e-45
7.86111e-46
7.07268e-47
6.25746e-48
5.44481e-49
4.66007e-50
3.92355e-51
3.25006e-52
2.64898e-53
2.12464e-54
1.67708e-55
1.30294e-56
9.96411e-58
7.50122e-59
5.55956e-60
4.05693e-61
2.91498e-62
2.06245e-63
1.43705e-64
9.86119e-66
6.66469e-67
4.43659e-68
2.90912e-69
1.87907e-70
1.19644e-71
7.51001e-73
4.64726e-74
2.83507e-75
1.70507e-76
1.01097e-77
5.90955e-79
3.40563e-80
1.93496e-81
1.08388e-82
5.98597e-84
3.25938e-85
1.74981e-86
9.26208e-88
4.83387e-89
2.48748e-90
1.26215e-91
6.31478e-93
3.11539e-94
1.5156e-95
7.27082e-97
3.43972e-98
1.60478e-99
7.38365e-101
3.35046e-102
1.49943e-103
6.61837e-105
2.88132e-106
1.23726e-107
5.24051e-109
2.18949e-110
9.0237e-112
3.66869e-113
1.47142e-114
5.8221e-116
2.27275e-117
8.75323e-119
3.32618e-120
1.24709e-121
4.61361e-123
1.68419e-124
6.06682e-126
2.15659e-127
7.56535e-129
2.61913e-130
8.94889e-132
3.01773e-133
1.0044e-134
3.29959e-136
1.06994e-137
3.42468e-139
1.08207e-140
3.37505e-142
1.03923e-143
3.15907e-145
9.48071e-147
2.80911e-148
8.2178e-150
2.37363e-151
6.76943e-153
1.90627e-154
5.30046e-156
1.45529e-157
3.94544e-159
1.05622e-160
2.79203e-162
7.28775e-164
1.87831e-165
4.7801e-167
1.20118e-168
2.98054e-170
7.30395e-172
1.76808e-173
4.23006e-175
1.00139e-176
4.37211e-13
1.825e-11
3.69289e-10
4.84914e-09
4.70887e-08
3.59841e-07
2.24457e-06
1.17269e-05
5.21836e-05
0.000199816
0.00066327
0.0019213
0.00488624
0.010954
0.0216557
0.0377105
0.05548
0.0718554
0.0868937
0.100083
0.10672
0.106956
0.089605
0.0699265
0.0489712
0.0319487
0.018052
0.00915524
0.00431641
0.00189796
0.000782652
0.000304119
0.000111518
3.86933e-05
1.27363e-05
3.98691e-06
1.18968e-06
3.39141e-07
9.25542e-08
2.42277e-08
6.09403e-09
1.4753e-09
3.44266e-10
7.75424e-11
1.68798e-11
3.55535e-12
7.25368e-13
1.43492e-13
2.75486e-14
5.13746e-15
9.31381e-16
1.64272e-16
2.82075e-17
4.71863e-18
7.69459e-19
1.22383e-19
1.89959e-20
2.87885e-21
4.26191e-22
6.16607e-23
8.72191e-24
1.20666e-24
1.63338e-25
2.16407e-26
2.80724e-27
3.56655e-28
4.43921e-29
5.41468e-30
6.47391e-31
7.58923e-32
8.72513e-33
9.8399e-34
1.08881e-34
1.18235e-35
1.26027e-36
1.31885e-37
1.35524e-38
1.36776e-39
1.35598e-40
1.32074e-41
1.26408e-42
1.18904e-43
1.09937e-44
9.99265e-46
8.93038e-47
7.84818e-48
6.78319e-49
5.76657e-50
4.82251e-51
3.96778e-52
3.2121e-53
2.55884e-54
2.0061e-55
1.54795e-56
1.1757e-57
8.79038e-59
6.47034e-60
4.68908e-61
3.34597e-62
2.35105e-63
1.6268e-64
1.10858e-65
7.44029e-67
4.91842e-68
3.2029e-69
2.05589e-70
1.30076e-71
8.11229e-73
4.9871e-74
3.02216e-75
1.80535e-76
1.06313e-77
6.1716e-79
3.53187e-80
1.99257e-81
1.10823e-82
6.07665e-84
3.28491e-85
1.75071e-86
9.19918e-88
4.7658e-89
2.43437e-90
1.22605e-91
6.08862e-93
2.98143e-94
1.43959e-95
6.8545e-97
3.21845e-98
1.49026e-99
6.80517e-101
3.0647e-102
1.36121e-103
5.96293e-105
2.57638e-106
1.09797e-107
4.61541e-109
1.91377e-110
7.82781e-112
3.15848e-113
1.25724e-114
4.93715e-116
1.91279e-117
7.31147e-119
2.75744e-120
1.02609e-121
3.76756e-123
1.36504e-124
4.88038e-126
1.72189e-127
5.99531e-129