/*--------------------------------*- C++ -*----------------------------------*\
  =========                 |
  \\      /  F ield         | OpenFOAM: The Open Source CFD Toolbox
   \\    /   O peration     | Website:  https://openfoam.org
    \\  /    A nd           | Version:  7
     \\/     M anipulation  |
\*---------------------------------------------------------------------------*/
FoamFile
{
    version     2.0;
    format      ascii;
    class       volVectorField;
    location    "0.008";
    object      U;
}
// * * * * * * * * * * * * * * * * * * * * * * * * * * * * * * * * * * * * * //

dimensions      [0 1 -1 0 0 0 0];

internalField   nonuniform List<vector> 
12225
(
(4.7482 0.158346 0)
(4.18809 0.105792 0)
(3.78459 0.0939747 0)
(3.42338 0.0801822 0)
(3.07029 0.065808 0)
(2.74245 0.0524208 0)
(2.46705 0.03986 0)
(2.25077 0.0296226 0)
(2.09264 0.0215867 0)
(1.97525 0.0144424 0)
(1.90471 0.00661412 0)
(1.85469 0.000466734 0)
(1.85373 -0.00648925 0)
(1.85628 -0.010078 0)
(1.91338 -0.0212579 0)
(1.9699 -0.0149115 0)
(2.02938 -0.0312333 0)
(2.19886 -0.0254913 0)
(5.09837 0.115253 0)
(4.95595 0.0605073 0)
(4.85222 0.0783186 0)
(4.77679 0.0927127 0)
(4.66884 0.0999922 0)
(4.52453 0.0978903 0)
(4.38374 0.0870717 0)
(4.27523 0.0701969 0)
(4.20448 0.0540108 0)
(4.16005 0.039697 0)
(4.13457 0.0287824 0)
(4.11429 0.0165436 0)
(4.1081 0.00469076 0)
(4.1022 -0.00908571 0)
(4.11831 -0.0218669 0)
(4.13816 -0.0332511 0)
(4.17479 -0.0483124 0)
(4.24011 -0.0661539 0)
(5.02493 0.168606 0)
(4.87979 0.12176 0)
(4.83013 0.120466 0)
(4.83427 0.123672 0)
(4.82502 0.128323 0)
(4.79131 0.126195 0)
(4.75765 0.109887 0)
(4.74047 0.0836916 0)
(4.73927 0.0585596 0)
(4.74591 0.0396121 0)
(4.75425 0.0252616 0)
(4.76125 0.0129921 0)
(4.76718 -0.000734672 0)
(4.77192 -0.0129673 0)
(4.78006 -0.0285617 0)
(4.7913 -0.0420995 0)
(4.81128 -0.0596902 0)
(4.83284 -0.0866269 0)
(5.0645 0.205443 0)
(4.90888 0.107511 0)
(4.80812 0.0890176 0)
(4.77738 0.107615 0)
(4.78103 0.124211 0)
(4.79726 0.123617 0)
(4.81472 0.103076 0)
(4.82337 0.0736633 0)
(4.82294 0.0488287 0)
(4.82192 0.0321051 0)
(4.82763 0.0207019 0)
(4.84089 0.0106483 0)
(4.85827 -0.000242373 0)
(4.87552 -0.0141977 0)
(4.89161 -0.0311953 0)
(4.90582 -0.0498953 0)
(4.92125 -0.0712432 0)
(4.93535 -0.0958388 0)
(5.04167 0.30055 0)
(4.98806 0.17118 0)
(4.83552 0.132067 0)
(4.74055 0.124866 0)
(4.74287 0.118349 0)
(4.79393 0.110335 0)
(4.8326 0.0972125 0)
(4.836 0.0790575 0)
(4.82019 0.0585513 0)
(4.80961 0.0376814 0)
(4.81576 0.0181607 0)
(4.83532 0.000452567 0)
(4.85905 -0.0149407 0)
(4.88009 -0.0284751 0)
(4.89704 -0.0423288 0)
(4.91085 -0.0580264 0)
(4.9245 -0.0765026 0)
(4.93822 -0.0980069 0)
(4.93955 0.225885 0)
(4.94613 0.161669 0)
(4.85099 0.14734 0)
(4.78909 0.137631 0)
(4.77741 0.118098 0)
(4.79042 0.102843 0)
(4.80317 0.0913732 0)
(4.811 0.0762764 0)
(4.82085 0.0554339 0)
(4.83588 0.0318903 0)
(4.85171 0.0106271 0)
(4.86329 -0.00558392 0)
(4.87053 -0.0179697 0)
(4.87595 -0.029968 0)
(4.884 -0.0451845 0)
(4.89682 -0.0644541 0)
(4.91602 -0.0875743 0)
(4.93762 -0.111042 0)
(5.06989 0.259933 0)
(4.96797 0.201866 0)
(4.90218 0.174496 0)
(4.8479 0.144148 0)
(4.82136 0.116172 0)
(4.82666 0.100875 0)
(4.84694 0.0906883 0)
(4.86771 0.0749608 0)
(4.88169 0.0522936 0)
(4.88581 0.0284489 0)
(4.88289 0.00792874 0)
(4.87907 -0.00812868 0)
(4.88058 -0.0217232 0)
(4.89083 -0.0367486 0)
(4.91075 -0.0553921 0)
(4.93613 -0.0772555 0)
(4.9644 -0.10097 0)
(4.98944 -0.123147 0)
(4.95846 0.277926 0)
(4.95896 0.204584 0)
(4.92661 0.17406 0)
(4.87835 0.158113 0)
(4.8363 0.129236 0)
(4.82261 0.098316 0)
(4.83616 0.0749815 0)
(4.8634 0.0575469 0)
(4.89109 0.0420195 0)
(4.91129 0.0267919 0)
(4.92275 0.0118944 0)
(4.92982 -0.00392878 0)
(4.93879 -0.0225352 0)
(4.95126 -0.0439478 0)
(4.96772 -0.0678433 0)
(4.98563 -0.0925156 0)
(5.00526 -0.116934 0)
(5.02418 -0.138485 0)
(4.94195 0.247771 0)
(5.0363 0.202218 0)
(5.04064 0.202473 0)
(5.02008 0.175607 0)
(4.98226 0.138274 0)
(4.946 0.104867 0)
(4.92977 0.0779306 0)
(4.93544 0.0554396 0)
(4.95207 0.0355651 0)
(4.96875 0.0179176 0)
(4.98182 0.000925229 0)
(4.99179 -0.0160684 0)
(5.00025 -0.0342542 0)
(5.00848 -0.0547557 0)
(5.01743 -0.0777775 0)
(5.02765 -0.102194 0)
(5.04049 -0.127436 0)
(5.05617 -0.151142 0)
(5.00338 0.207711 0)
(4.99814 0.178698 0)
(4.97441 0.18169 0)
(4.95448 0.173974 0)
(4.93797 0.155398 0)
(4.93654 0.120611 0)
(4.95198 0.0783207 0)
(4.97554 0.042793 0)
(4.99866 0.0199359 0)
(5.01686 0.00669215 0)
(5.02937 -0.0020042 0)
(5.0381 -0.0134771 0)
(5.04396 -0.0298795 0)
(5.04769 -0.0511135 0)
(5.04944 -0.0764518 0)
(5.05245 -0.10385 0)
(5.0566 -0.132736 0)
(5.06579 -0.160226 0)
(5.00996 0.189403 0)
(5.00322 0.192789 0)
(4.97424 0.213596 0)
(4.94244 0.188896 0)
(4.93814 0.146898 0)
(4.95329 0.101182 0)
(4.96495 0.0629207 0)
(4.96372 0.0368474 0)
(4.95757 0.0193327 0)
(4.95832 0.00516967 0)
(4.96892 -0.00961297 0)
(4.98446 -0.0246968 0)
(4.99928 -0.0414853 0)
(5.00918 -0.0610943 0)
(5.01348 -0.084657 0)
(5.01423 -0.111286 0)
(5.01506 -0.140756 0)
(5.01778 -0.170597 0)
(5.02863 0.218747 0)
(4.98345 0.201679 0)
(4.95098 0.213981 0)
(4.9629 0.186568 0)
(5.00227 0.145791 0)
(5.02797 0.105773 0)
(5.02652 0.0716525 0)
(5.01079 0.0432984 0)
(4.99964 0.0184874 0)
(5.00159 -0.00257413 0)
(5.01556 -0.0194516 0)
(5.03515 -0.0325281 0)
(5.0528 -0.0443781 0)
(5.06301 -0.0585149 0)
(5.06689 -0.0781181 0)
(5.06594 -0.10346 0)
(5.0666 -0.134214 0)
(5.06878 -0.167227 0)
(4.99508 0.216066 0)
(4.94545 0.2249 0)
(4.94229 0.216815 0)
(4.97977 0.1632 0)
(5.02204 0.11518 0)
(5.04225 0.0890484 0)
(5.04142 0.07386 0)
(5.03087 0.055919 0)
(5.02238 0.0301773 0)
(5.02187 -0.000404138 0)
(5.02709 -0.0272608 0)
(5.03214 -0.0467559 0)
(5.0343 -0.0594599 0)
(5.03279 -0.0707421 0)
(5.03142 -0.0867248 0)
(5.03351 -0.110098 0)
(5.04292 -0.141652 0)
(5.0586 -0.17638 0)
(5.06934 0.20248 0)
(5.04609 0.241184 0)
(5.05346 0.200534 0)
(5.06459 0.148483 0)
(5.05301 0.118385 0)
(5.02612 0.0995572 0)
(5.01173 0.0780263 0)
(5.0199 0.0490767 0)
(5.04031 0.0165718 0)
(5.0558 -0.0110748 0)
(5.05584 -0.0286954 0)
(5.04099 -0.0366271 0)
(5.01955 -0.0418339 0)
(5.00172 -0.0537606 0)
(4.99492 -0.0782275 0)
(5.00133 -0.114141 0)
(5.01845 -0.158386 0)
(5.04094 -0.202083 0)
(5.12397 0.298052 0)
(5.11379 0.261694 0)
(5.08311 0.202306 0)
(5.04941 0.160413 0)
(5.02213 0.137456 0)
(5.01206 0.113029 0)
(5.02804 0.0788104 0)
(5.0594 0.0407073 0)
(5.08621 0.00970375 0)
(5.09455 -0.00668394 0)
(5.08397 -0.0105282 0)
(5.06462 -0.0123929 0)
(5.04802 -0.0234882 0)
(5.04076 -0.0494228 0)
(5.04283 -0.0888002 0)
(5.05027 -0.135616 0)
(5.05924 -0.183715 0)
(5.06516 -0.226916 0)
(5.00185 0.356232 0)
(5.01785 0.318081 0)
(5.00657 0.2427 0)
(4.99896 0.192366 0)
(4.98644 0.145841 0)
(4.97597 0.0869722 0)
(4.98064 0.0283199 0)
(4.99622 -0.00981679 0)
(5.01316 -0.0201937 0)
(5.02698 -0.0126313 0)
(5.03872 -0.0030531 0)
(5.05106 -0.00360599 0)
(5.06475 -0.0189852 0)
(5.07816 -0.0483216 0)
(5.08868 -0.0871988 0)
(5.09459 -0.130159 0)
(5.09596 -0.172835 0)
(5.09272 -0.211944 0)
(4.90162 0.394196 0)
(4.986 0.256121 0)
(5.031 0.183398 0)
(5.068 0.171895 0)
(5.09545 0.160336 0)
(5.10671 0.123567 0)
(5.1006 0.0696846 0)
(5.08133 0.0181047 0)
(5.05775 -0.0171154 0)
(5.03864 -0.0344318 0)
(5.03041 -0.0412703 0)
(5.034 -0.0477629 0)
(5.04487 -0.0607641 0)
(5.05666 -0.0828619 0)
(5.06548 -0.112648 0)
(5.06883 -0.146868 0)
(5.06669 -0.181659 0)
(5.05851 -0.214276 0)
(4.97472 0.224092 0)
(5.01316 0.159856 0)
(5.03089 0.157041 0)
(5.03541 0.143708 0)
(5.03504 0.106711 0)
(5.03468 0.0692904 0)
(5.03664 0.0485364 0)
(5.03894 0.0431104 0)
(5.03965 0.0404143 0)
(5.03983 0.0297497 0)
(5.04148 0.00810744 0)
(5.04474 -0.0215493 0)
(5.04895 -0.0539049 0)
(5.05221 -0.0845538 0)
(5.05411 -0.111127 0)
(5.05384 -0.133914 0)
(5.05305 -0.154222 0)
(5.05062 -0.174075 0)
(5.01634 0.263885 0)
(5.02563 0.178423 0)
(5.01341 0.164612 0)
(5.00475 0.178473 0)
(5.01711 0.172151 0)
(5.03215 0.13139 0)
(5.04427 0.0705937 0)
(5.05799 0.0128922 0)
(5.0748 -0.0274953 0)
(5.092 -0.0494362 0)
(5.10698 -0.0593063 0)
(5.11801 -0.0651497 0)
(5.12407 -0.073257 0)
(5.1252 -0.0881212 0)
(5.12307 -0.111237 0)
(5.11879 -0.141182 0)
(5.11369 -0.175112 0)
(5.10689 -0.208678 0)
(4.98368 0.214005 0)
(5.01626 0.177262 0)
(5.00149 0.171728 0)
(4.99519 0.133254 0)
(5.01584 0.0807182 0)
(5.04919 0.036055 0)
(5.0751 0.00768806 0)
(5.08623 -0.00905393 0)
(5.08469 -0.0213985 0)
(5.07728 -0.0332332 0)
(5.07138 -0.0452056 0)
(5.07051 -0.0574108 0)
(5.07343 -0.0700367 0)
(5.07668 -0.0836933 0)
(5.07738 -0.0981867 0)
(5.07434 -0.113003 0)
(5.06739 -0.127108 0)
(5.05743 -0.139799 0)
(5.04781 0.241862 0)
(5.03319 0.201727 0)
(5.03386 0.187461 0)
(5.05176 0.141979 0)
(5.06677 0.081685 0)
(5.05914 0.0333905 0)
(5.045 0.00568186 0)
(5.04195 -0.00723515 0)
(5.05126 -0.0168092 0)
(5.06391 -0.030726 0)
(5.07248 -0.0490589 0)
(5.07393 -0.0679348 0)
(5.06877 -0.0839587 0)
(5.05885 -0.0965953 0)
(5.04737 -0.108022 0)
(5.03637 -0.120667 0)
(5.02796 -0.136391 0)
(5.02157 -0.155272 0)
(5.02448 0.360263 0)
(5.04151 0.220984 0)
(5.06628 0.147458 0)
(5.09032 0.114124 0)
(5.11547 0.0946944 0)
(5.12737 0.0691035 0)
(5.13118 0.0307841 0)
(5.13622 -0.0106153 0)
(5.141 -0.0416262 0)
(5.14073 -0.0557245 0)
(5.13455 -0.0561125 0)
(5.12457 -0.0507817 0)
(5.11448 -0.0473565 0)
(5.10751 -0.0508061 0)
(5.10615 -0.0622641 0)
(5.10906 -0.079758 0)
(5.11537 -0.100378 0)
(5.12027 -0.120432 0)
(4.97901 0.276132 0)
(5.01908 0.203107 0)
(5.05405 0.126231 0)
(5.09642 0.078038 0)
(5.15693 0.0423572 0)
(5.2127 0.0122736 0)
(5.24419 -0.00990725 0)
(5.24893 -0.0236706 0)
(5.23586 -0.0299824 0)
(5.21545 -0.0321494 0)
(5.19702 -0.0354301 0)
(5.18651 -0.0447133 0)
(5.18446 -0.0612394 0)
(5.18755 -0.0832735 0)
(5.19292 -0.107572 0)
(5.19793 -0.13095 0)
(5.20175 -0.151213 0)
(5.20286 -0.166804 0)
(5.03744 0.245259 0)
(5.09309 0.184589 0)
(5.12791 0.102175 0)
(5.1487 0.0498672 0)
(5.15841 0.0200401 0)
(5.15076 0.00420958 0)
(5.13691 -0.000917182 0)
(5.1313 -0.00144059 0)
(5.13851 -0.0043665 0)
(5.15396 -0.0117224 0)
(5.17105 -0.0216741 0)
(5.18479 -0.033129 0)
(5.19326 -0.0459713 0)
(5.19675 -0.060467 0)
(5.19754 -0.0765751 0)
(5.19732 -0.0931982 0)
(5.19769 -0.109386 0)
(5.19772 -0.122927 0)
(5.05647 0.241894 0)
(5.07471 0.149907 0)
(5.1159 0.0829395 0)
(5.15201 0.0489457 0)
(5.17783 0.0327744 0)
(5.19223 0.0176446 0)
(5.2037 -0.00369532 0)
(5.21749 -0.0278426 0)
(5.23283 -0.0480299 0)
(5.24687 -0.0599463 0)
(5.25855 -0.0648038 0)
(5.26904 -0.0680459 0)
(5.27923 -0.0752744 0)
(5.28838 -0.0894567 0)
(5.29464 -0.109447 0)
(5.29619 -0.131361 0)
(5.29276 -0.151333 0)
(5.28385 -0.165241 0)
(4.98993 0.252383 0)
(5.08026 0.16224 0)
(5.18181 0.0813726 0)
(5.25222 0.0409452 0)
(5.29746 0.0120152 0)
(5.32742 -0.00735541 0)
(5.34761 -0.0164162 0)
(5.35854 -0.0201348 0)
(5.36395 -0.0234603 0)
(5.37039 -0.0292818 0)
(5.38205 -0.0379446 0)
(5.39763 -0.0486223 0)
(5.41176 -0.0601701 0)
(5.41827 -0.0715761 0)
(5.41335 -0.0818855 0)
(5.39733 -0.090514 0)
(5.37351 -0.0975285 0)
(5.3464 -0.103206 0)
(4.99133 0.147358 0)
(5.18237 0.0307098 0)
(5.26376 0.000606389 0)
(5.28217 -0.00793542 0)
(5.29832 -0.0170936 0)
(5.32837 -0.0233918 0)
(5.36385 -0.0301906 0)
(5.39537 -0.0417262 0)
(5.41902 -0.0575112 0)
(5.43351 -0.0733156 0)
(5.4387 -0.0850447 0)
(5.43543 -0.0911598 0)
(5.42558 -0.0928478 0)
(5.41163 -0.0931128 0)
(5.39688 -0.0948413 0)
(5.3836 -0.0994546 0)
(5.37376 -0.106791 0)
(5.36663 -0.115233 0)
(5.0147 0.179044 0)
(5.10886 0.0765599 0)
(5.24463 0.0722621 0)
(5.34098 0.031891 0)
(5.39962 -0.0141901 0)
(5.4357 -0.0381332 0)
(5.45978 -0.0435746 0)
(5.47481 -0.0420162 0)
(5.48129 -0.0401671 0)
(5.48171 -0.0394362 0)
(5.48037 -0.0398381 0)
(5.48105 -0.0417804 0)
(5.48502 -0.0457287 0)
(5.49141 -0.0525034 0)
(5.49869 -0.061859 0)
(5.50488 -0.0730111 0)
(5.50897 -0.0843797 0)
(5.50823 -0.0936877 0)
(5.0035 0.0381841 0)
(5.25145 -0.0445307 0)
(5.40301 -0.0535931 0)
(5.46251 -0.069781 0)
(5.47443 -0.0702364 0)
(5.47556 -0.0610002 0)
(5.47946 -0.0547401 0)
(5.48106 -0.0565416 0)
(5.47405 -0.0645162 0)
(5.45864 -0.0746678 0)
(5.43827 -0.0838441 0)
(5.41538 -0.0903121 0)
(5.38976 -0.0937478 0)
(5.36044 -0.0955517 0)
(5.32656 -0.0972254 0)
(5.28891 -0.100041 0)
(5.24685 -0.103762 0)
(5.2029 -0.10718 0)
(5.04734 0.066215 0)
(5.16002 -0.00653035 0)
(5.13452 0.0132077 0)
(5.00509 -0.00286682 0)
(4.8405 -0.0261452 0)
(4.67713 -0.0387454 0)
(4.52967 -0.0396455 0)
(4.39638 -0.0342008 0)
(4.2698 -0.0278147 0)
(4.14331 -0.0237027 0)
(4.01328 -0.0224595 0)
(3.88022 -0.0230254 0)
(3.74657 -0.0246456 0)
(3.61374 -0.0274534 0)
(3.48094 -0.0315884 0)
(3.34646 -0.0367183 0)
(3.20757 -0.0404218 0)
(3.07036 -0.0410771 0)
(-0.0218219 0.0444034 -1.43358e-20)
(-0.0625369 0.0426215 1.42321e-20)
(-0.100394 0.0411757 0)
(-0.139164 0.0405208 0)
(-0.176713 0.0394627 0)
(-0.213599 0.0380155 -1.38005e-20)
(-0.248971 0.0362262 0)
(-0.282657 0.0340945 0)
(-0.314154 0.0316211 0)
(-0.343111 0.0287842 0)
(-0.369159 0.0256037 1.32506e-20)
(-0.391861 0.0221075 0)
(-0.41087 0.018279 0)
(-0.42576 0.0141769 0)
(-0.436214 0.00982914 0)
(-0.442011 0.00527054 1.26848e-20)
(-0.442799 0.000636973 0)
(-0.438366 -0.00404323 0)
(-0.428637 -0.00875807 0)
(-0.413483 -0.0133723 0)
(-0.392951 -0.0179402 0)
(-0.367266 -0.0222859 0)
(-0.336254 -0.0264653 0)
(-0.300254 -0.0303997 1.17463e-20)
(-0.259621 -0.0340156 -1.16281e-20)
(-0.214487 -0.0373171 1.15101e-20)
(-0.165323 -0.0402449 1.13926e-20)
(-0.112312 -0.0427705 0)
(-0.0559895 -0.0450486 0)
(0.00332476 -0.0467471 -1.10432e-20)
(0.0652154 -0.0481735 -1.09263e-20)
(0.128945 -0.0492246 0)
(0.194297 -0.0499181 0)
(0.260876 -0.0502755 -1.0581e-20)
(0.328293 -0.0503212 0)
(0.396178 -0.0500822 0)
(0.464184 -0.0495868 1.02487e-20)
(0.53199 -0.0488636 0)
(0.599306 -0.0479416 1.00349e-20)
(0.665871 -0.0468487 1.98607e-20)
(0.731455 -0.0456121 0)
(0.795855 -0.0442572 0)
(0.858899 -0.0428081 0)
(0.920441 -0.0412866 0)
(0.98036 -0.0397129 0)
(1.03856 -0.0381048 1.86679e-20)
(1.09496 -0.0364784 1.84786e-20)
(1.1495 -0.0348475 1.82917e-20)
(1.20216 -0.0332244 0)
(1.25289 -0.0316193 -1.79249e-20)
(1.3017 -0.030041 0)
(1.34859 -0.0284968 1.75665e-20)
(1.39357 -0.0269926 1.73903e-20)
(1.43666 -0.0255332 0)
(1.47789 -0.0241223 0)
(1.5173 -0.0227627 0)
(1.55493 -0.0214563 1.6703e-20)
(1.59082 -0.0202042 0)
(1.62502 -0.019007 0)
(1.6576 -0.0178647 0)
(1.68859 -0.016777 0)
(1.71805 -0.015743 0)
(1.74604 -0.0147616 0)
(1.77261 -0.0138316 0)
(1.79783 -0.0129513 0)
(1.82173 -0.0121192 -1.52424e-20)
(1.84439 -0.0113334 0)
(1.86585 -0.0105921 0)
(1.88616 -0.00989344 1.47775e-20)
(1.90537 -0.00923543 1.46247e-20)
(1.92354 -0.0086162 0)
(1.94072 -0.00803385 -1.43223e-20)
(1.95694 -0.00748651 1.41727e-20)
(1.97225 -0.00697237 0)
(1.9867 -0.00648965 -1.38764e-20)
(2.00033 -0.00603664 0)
(2.01318 -0.00561169 0)
(2.02529 -0.00521322 1.34393e-20)
(2.03669 -0.00483969 0)
(2.04742 -0.00448967 -1.31527e-20)
(2.05751 -0.00416178 0)
(2.067 -0.0038547 1.28698e-20)
(2.07591 -0.00356719 1.27298e-20)
(2.08428 -0.00329804 1.25907e-20)
(2.09213 -0.00304619 2.49049e-20)
(2.09949 -0.00281054 -2.46302e-20)
(2.10639 -0.00259002 0)
(2.11285 -0.00238384 0)
(2.11889 -0.0021909 0)
(2.12453 -0.00201024 -2.35495e-20)
(2.12981 -0.00184166 -2.32837e-20)
(2.13472 -0.00168375 2.30196e-20)
(2.13931 -0.0015353 0)
(2.14357 -0.00139777 -2.24967e-20)
(2.14754 -0.00126896 -2.22379e-20)
(2.15122 -0.0011454 -2.19807e-20)
(2.15464 -0.00103261 0)
(2.1578 -0.000929044 0)
(2.16072 -0.00082295 0)
(2.1634 -0.00072453 -2.09688e-20)
(2.16588 -0.000638088 0)
(2.16815 -0.000535856 0)
(2.17019 -0.000417349 2.02273e-20)
(2.17201 -0.000294427 0)
(2.17362 -0.000181941 0)
(2.17502 -8.34233e-05 1.95003e-20)
(2.17623 -2.38937e-06 0)
(2.17728 5.92951e-05 0)
(2.17819 0.000103726 -1.87877e-20)
(2.17898 0.000135326 -1.85533e-20)
(2.17966 0.000158723 0)
(2.18024 0.000177455 1.8089e-20)
(2.18073 0.000193629 0)
(2.18114 0.000208313 -1.76309e-20)
(2.18146 0.000221944 0)
(2.18171 0.000234707 -1.71788e-20)
(2.18189 0.000246659 -1.6955e-20)
(2.18199 0.000257859 0)
(2.18203 0.000268329 0)
(2.18202 0.000278113 0)
(2.18194 0.000287238 0)
(2.18181 0.000295746 0)
(2.18163 0.00030367 0)
(2.1814 0.000311062 0)
(2.18113 0.000317948 -1.52163e-20)
(2.18081 0.000324373 1.50053e-20)
(2.18046 0.00033036 0)
(2.18006 0.000335952 0)
(2.17963 0.000341164 0)
(2.17916 0.00034603 0)
(2.17866 0.000350553 2.79409e-20)
(2.17813 0.00035477 0)
(2.17757 0.000358695 -2.71315e-20)
(2.17698 0.000362373 2.67307e-20)
(2.17637 0.000365818 0)
(2.17573 0.000369064 0)
(2.17506 0.000372112 0)
(2.17437 0.000374992 -2.51525e-20)
(2.17366 0.000377706 -2.47642e-20)
(2.17292 0.000380284 0)
(2.17217 0.000382732 -2.39948e-20)
(2.17139 0.00038508 -2.36137e-20)
(2.17059 0.000387351 2.32349e-20)
(2.16978 0.000389572 0)
(2.16894 0.000391765 0)
(2.16808 0.000393968 2.21126e-20)
(2.16721 0.000396214 0)
(2.16632 0.000398542 0)
(2.1654 0.000400987 0)
(2.16447 0.000403595 0)
(2.16352 0.000406423 -2.02869e-20)
(2.16255 0.000409544 -1.99283e-20)
(2.16155 0.000413047 0)
(2.16053 0.000417042 -1.92174e-20)
(2.15949 0.000421661 0)
(2.15842 0.000427074 0)
(2.15732 0.000433491 -1.81663e-20)
(2.15618 0.000441185 0)
(2.155 0.000450497 -1.74756e-20)
(2.15378 0.000461878 0)
(2.1525 0.000475876 0)
(2.15115 0.000493271 -1.6454e-20)
(2.14972 0.000514896 0)
(2.1482 0.000542289 -1.57821e-20)
(2.14655 0.000576354 0)
(2.14474 0.000621017 0)
(2.14274 0.000675237 0)
(2.14049 0.000751221 1.44594e-20)
(2.1379 0.000839453 0)
(2.13495 0.000969109 -1.38077e-20)
(2.13126 0.00113852 0)
(2.12721 0.00131103 0)
(2.12137 0.00179478 0)
(2.11528 0.00176926 0)
(2.10557 0.00344493 0)
(2.09394 0.0024014 0)
(2.07827 0.00794316 0)
(2.04707 0.00391475 2.24795e-20)
(2.02278 0.0255671 0)
(1.9076 0.0195168 0)
(-0.0223431 0.134498 4.30258e-20)
(-0.0651076 0.126805 -4.27149e-20)
(-0.103684 0.121399 0)
(-0.143443 0.119197 2.80537e-20)
(-0.181854 0.115662 0)
(-0.219348 0.110875 1.37995e-20)
(-0.255109 0.104969 -2.74026e-20)
(-0.288913 0.0979964 -2.71839e-20)
(-0.320298 0.0899643 0)
(-0.348885 0.0808656 -2.67434e-20)
(-0.374249 0.0707595 -1.32502e-20)
(-0.396065 0.0596895 0)
(-0.413985 0.0477224 0)
(-0.427557 0.0349584 0)
(-0.436602 0.021473 0)
(-0.440765 0.00744272 -1.26855e-20)
(-0.4398 -0.00696286 0)
(-0.433501 -0.0215754 2.49252e-20)
(-0.421557 -0.0362957 0)
(-0.403922 -0.0508219 0)
(-0.380604 -0.0651017 -2.42179e-20)
(-0.351832 -0.0788713 0)
(-0.317578 -0.0920113 2.37427e-20)
(-0.277971 -0.104357 -1.17464e-20)
(-0.233515 -0.115785 1.16281e-20)
(-0.184358 -0.126179 -1.15101e-20)
(-0.13093 -0.135443 -1.13926e-20)
(-0.0737591 -0.143527 0)
(-0.0128835 -0.150508 0)
(0.0511266 -0.156143 1.10414e-20)
(0.117475 -0.160678 -1.09297e-20)
(0.185901 -0.164055 0)
(0.25599 -0.166327 0)
(0.32733 -0.167556 1.05781e-20)
(0.399526 -0.167817 0)
(0.472201 -0.167191 0)
(0.545003 -0.165765 -1.02456e-20)
(0.617608 -0.163625 0)
(0.689725 -0.16086 1.00346e-20)
(0.761093 -0.157555 -1.98542e-20)
(0.831481 -0.153791 0)
(0.900689 -0.149646 0)
(0.968542 -0.145193 -3.84944e-20)
(1.0349 -0.140497 -3.80997e-20)
(1.09963 -0.135621 -3.77105e-20)
(1.16264 -0.130619 1.86654e-20)
(1.22386 -0.125539 -1.8472e-20)
(1.28322 -0.120424 -5.48592e-20)
(1.34068 -0.115313 3.62049e-20)
(1.39622 -0.110237 1.79183e-20)
(1.44982 -0.105224 0)
(1.50148 -0.100298 -1.756e-20)
(1.55121 -0.0954768 1.73869e-20)
(1.59903 -0.0907771 0)
(1.64495 -0.0862111 0)
(1.68902 -0.0817886 0)
(1.73127 -0.0775168 -1.66966e-20)
(1.77173 -0.0734006 0)
(1.81046 -0.0694433 3.27277e-20)
(1.84749 -0.0656464 0)
(1.88288 -0.06201 3.20709e-20)
(1.91667 -0.0585331 0)
(1.94892 -0.0552138 -3.14248e-20)
(1.97967 -0.0520494 0)
(2.00899 -0.0490364 3.07887e-20)
(2.03691 -0.0461709 -1.5238e-20)
(2.0635 -0.0434486 0)
(2.0888 -0.0408649 -2.98522e-20)
(2.11286 -0.0384149 -1.47715e-20)
(2.13574 -0.0360937 -1.46188e-20)
(2.15747 -0.0338962 0)
(2.17811 -0.0318172 -1.43178e-20)
(2.19771 -0.0298518 -1.41669e-20)
(2.2163 -0.0279947 0)
(2.23393 -0.0262412 1.38707e-20)
(2.25064 -0.0245862 -2.74492e-20)
(2.26648 -0.0230252 0)
(2.28148 -0.0215533 -1.34338e-20)
(2.29568 -0.0201663 0)
(2.30912 -0.0188597 3.94428e-20)
(2.32183 -0.0176294 0)
(2.33385 -0.0164714 -3.85944e-20)
(2.34521 -0.0153819 -1.27246e-20)
(2.35594 -0.0143572 1.25861e-20)
(2.36607 -0.0133939 2.48959e-20)
(2.37564 -0.0124885 -2.46213e-20)
(2.38466 -0.0116379 0)
(2.39317 -0.0108391 0)
(2.40118 -0.0100893 0)
(2.40874 -0.00938544 7.06209e-20)
(2.41585 -0.00872537 2.32744e-20)
(2.42255 -0.00810647 -2.30105e-20)
(2.42884 -0.00752587 0)
(2.43477 -0.00698227 -2.24885e-20)
(2.44033 -0.0064734 2.22291e-20)
(2.44556 -0.00599544 2.19721e-20)
(2.45047 -0.00554861 0)
(2.45507 -0.00513169 0)
(2.45939 -0.00473789 0)
(2.46344 -0.00436919 2.09607e-20)
(2.46724 -0.00402568 0)
(2.47079 -0.00369549 -4.09304e-20)
(2.47415 -0.00338333 -6.06592e-20)
(2.47732 -0.00309181 3.99519e-20)
(2.48032 -0.00281366 0)
(2.48316 -0.00254897 1.94933e-20)
(2.48586 -0.00230808 0)
(2.48842 -0.00209193 3.80334e-20)
(2.49083 -0.00189809 -1.87809e-20)
(2.4931 -0.00172315 -1.85466e-20)
(2.49522 -0.00156341 0)
(2.49721 -0.001416 -5.42473e-20)
(2.49906 -0.00127909 3.57055e-20)
(2.50078 -0.00115162 1.76245e-20)
(2.50238 -0.00103301 0)
(2.50386 -0.000922741 1.71726e-20)
(2.50524 -0.000820407 5.08468e-20)
(2.50652 -0.000725528 0)
(2.5077 -0.000637652 3.30118e-20)
(2.50879 -0.000556304 3.25731e-20)
(2.5098 -0.000481052 3.21373e-20)
(2.51074 -0.000411468 0)
(2.5116 -0.000347163 0)
(2.51239 -0.000287741 0)
(2.51312 -0.000232867 -1.52111e-20)
(2.51379 -0.000182191 -1.50002e-20)
(2.5144 -0.00013543 0)
(2.51497 -9.22753e-05 -2.91649e-20)
(2.51548 -5.24814e-05 -2.87512e-20)
(2.51595 -1.57755e-05 0)
(2.51638 1.80418e-05 -2.79317e-20)
(2.51677 4.92021e-05 -5.50517e-20)
(2.51713 7.78802e-05 2.71226e-20)
(2.51745 0.000104299 2.6722e-20)
(2.51774 0.000128619 0)
(2.518 0.000151038 0)
(2.51823 0.000171683 0)
(2.51844 0.000190721 2.51445e-20)
(2.51863 0.000208264 -2.47564e-20)
(2.51879 0.00022446 -4.87413e-20)
(2.51893 0.00023942 2.39873e-20)
(2.51906 0.000253276 -2.36064e-20)
(2.51917 0.000266153 -2.32278e-20)
(2.51926 0.00027818 0)
(2.51933 0.000289484 0)
(2.51939 0.000300199 2.2106e-20)
(2.51944 0.000310456 0)
(2.51947 0.000320391 0)
(2.51949 0.000330146 -4.20089e-20)
(2.5195 0.000339881 0)
(2.5195 0.000349779 -2.02811e-20)
(2.51948 0.000360056 1.99226e-20)
(2.51945 0.000370972 0)
(2.51941 0.000382839 -1.92119e-20)
(2.51935 0.000396036 0)
(2.51928 0.000411025 0)
(2.51918 0.000428381 1.81613e-20)
(2.51907 0.000448824 -3.56302e-20)
(2.51893 0.000473266 1.74708e-20)
(2.51876 0.000502862 0)
(2.51855 0.000539091 0)
(2.5183 0.000583852 -1.64496e-20)
(2.51799 0.000639604 0)
(2.51761 0.000709538 -1.5778e-20)
(2.51714 0.000797903 0)
(2.51655 0.000910021 0)
(2.51584 0.00105437 0)
(2.51489 0.00123703 -1.44556e-20)
(2.51378 0.00148592 0)
(2.51218 0.00177581 1.38042e-20)
(2.51045 0.0022643 0)
(2.50764 0.00265019 0)
(2.50487 0.00382657 -2.56754e-20)
(2.49968 0.00406277 2.50354e-20)
(2.49503 0.00729126 0)
(2.48493 0.00667289 0)
(2.47645 0.0160781 0)
(2.45556 0.0136251 -6.74371e-20)
(2.43984 0.0466226 0)
(2.40002 0.0492833 4.24098e-20)
(-0.0227431 0.228123 3.77618e-23)
(-0.067683 0.215378 5.69974e-20)
(-0.108629 0.206545 0)
(-0.151025 0.202724 -5.61361e-20)
(-0.192083 0.196595 0)
(-0.23231 0.188335 0)
(-0.270855 0.178209 -3.64214e-23)
(-0.307468 0.166271 2.71797e-20)
(-0.341707 0.152531 2.69961e-20)
(-0.373124 0.137011 2.67393e-20)
(-0.401278 0.119793 0)
(-0.425743 0.100933 0)
(-0.446086 0.0805828 -2.61042e-20)
(-0.461896 0.0588751 -5.17553e-20)
(-0.472758 0.0359759 5.12989e-20)
(-0.478303 0.0121411 0)
(-0.478263 -0.0124748 5.03743e-20)
(-0.47241 -0.0374839 -2.49219e-20)
(-0.460446 -0.0625998 0)
(-0.442331 -0.0875678 4.89565e-20)
(-0.418177 -0.111966 2.42137e-20)
(-0.388116 -0.135567 -4.80007e-20)
(-0.352146 -0.157934 -2.37381e-20)
(-0.310618 -0.178961 0)
(-0.263968 -0.198391 4.65632e-20)
(-0.21239 -0.21599 4.60859e-20)
(-0.156477 -0.231633 0)
(-0.0966988 -0.245291 4.51386e-20)
(-0.0332717 -0.256761 0)
(0.0332052 -0.26631 4.41965e-20)
(0.102008 -0.273758 2.18504e-20)
(0.172727 -0.279245 0)
(0.244953 -0.282864 0)
(0.318256 -0.284729 0)
(0.392227 -0.28497 0)
(0.466483 -0.283733 0)
(0.54067 -0.281166 0)
(0.614472 -0.27742 4.05615e-20)
(0.687606 -0.272644 -6.01988e-20)
(0.759823 -0.266982 0)
(0.830907 -0.260574 0)
(0.90067 -0.253548 0)
(0.968958 -0.246026 -7.84208e-24)
(1.03564 -0.238117 3.80941e-20)
(1.10061 -0.229921 7.54174e-20)
(1.16378 -0.221528 -7.46498e-20)
(1.2251 -0.213018 -3.69496e-20)
(1.28452 -0.20446 3.65694e-20)
(1.342 -0.195915 6.10455e-24)
(1.39753 -0.187435 3.58418e-20)
(1.4511 -0.179064 0)
(1.50274 -0.17084 3.51249e-20)
(1.55244 -0.162792 5.22523e-24)
(1.60023 -0.154947 0)
(1.64614 -0.147323 0)
(1.69021 -0.139935 -3.37362e-20)
(1.73247 -0.132795 0)
(1.77296 -0.125911 0)
(1.81174 -0.119287 3.27332e-20)
(1.84885 -0.112925 6.47988e-20)
(1.88433 -0.106827 -3.20687e-20)
(1.91824 -0.100989 0)
(1.95062 -0.0954086 3.14229e-20)
(1.98153 -0.0900817 0)
(2.01102 -0.0850028 3.0793e-20)
(2.03914 -0.0801655 3.04727e-20)
(2.06593 -0.075563 -6.03265e-20)
(2.09145 -0.071188 -2.98558e-20)
(2.11575 -0.0670329 0)
(2.13887 -0.0630896 5.84799e-20)
(2.16086 -0.0593503 0)
(2.18176 -0.0558068 8.59034e-20)
(2.20163 -0.0524511 5.66716e-20)
(2.22049 -0.0492752 5.6077e-20)
(2.2384 -0.0462711 -5.54864e-20)
(2.2554 -0.0434312 8.2348e-20)
(2.27152 -0.0407478 0)
(2.2868 -0.0382137 0)
(2.30129 -0.0358216 -5.3163e-20)
(2.315 -0.0335646 -7.88864e-20)
(2.32799 -0.0314361 0)
(2.34029 -0.0294297 2.57292e-20)
(2.35192 -0.027539 0)
(2.36292 -0.0257582 -7.55149e-20)
(2.37331 -0.0240816 1.73179e-24)
(2.38313 -0.0225038 -1.61591e-24)
(2.3924 -0.0210195 4.86964e-20)
(2.40115 -0.0196238 0)
(2.40941 -0.0183119 -4.7616e-20)
(2.41719 -0.0170794 1.21637e-24)
(2.42453 -0.0159219 0)
(2.43145 -0.0148352 0)
(2.43796 -0.0138158 0)
(2.44408 -0.0128598 4.49754e-20)
(2.44985 -0.0119626 0)
(2.45527 -0.0111225 0)
(2.46036 -0.0103362 0)
(2.46515 -0.00959795 0)
(2.46964 -0.00890766 0)
(2.47386 -0.0082627 4.19217e-20)
(2.47782 -0.00765809 0)
(2.48152 -0.00709678 4.09297e-20)
(2.48499 -0.00657378 4.04389e-20)
(2.48824 -0.00608334 -3.99513e-20)
(2.49131 -0.00562095 0)
(2.49419 -0.00520093 -3.89857e-20)
(2.49688 -0.00481684 0)
(2.4994 -0.00446019 -3.80328e-20)
(2.50176 -0.00412664 3.7561e-20)
(2.50397 -0.00381281 1.11278e-19)
(2.50602 -0.0035167 0)
(2.50794 -0.00323767 1.08494e-19)
(2.50973 -0.00297559 3.57053e-20)
(2.51139 -0.0027303 0)
(2.51294 -0.00250142 6.95906e-20)
(2.51439 -0.00228832 6.86898e-20)
(2.51573 -0.00209024 -1.01692e-19)
(2.51698 -0.00190634 0)
(2.51814 -0.00173576 -3.30113e-20)
(2.51922 -0.00157766 -3.25726e-20)
(2.52023 -0.00143123 -9.64104e-20)
(2.52116 -0.00129569 0)
(2.52202 -0.0011703 0)
(2.52282 -0.00105437 0)
(2.52357 -0.000947243 -3.04218e-20)
(2.52426 -0.000848312 0)
(2.52489 -0.000757026 0)
(2.52548 -0.000672848 2.91644e-20)
(2.52603 -0.000595271 2.87507e-20)
(2.52653 -0.000523802 0)
(2.527 -0.000457997 0)
(2.52743 -0.000397439 5.50509e-20)
(2.52782 -0.00034175 0)
(2.52819 -0.000290557 -5.34431e-20)
(2.52853 -0.000243525 -5.26469e-20)
(2.52884 -0.000200313 0)
(2.52913 -0.00016063 0)
(2.52939 -0.000124183 5.02883e-20)
(2.52964 -9.07106e-05 1.03213e-26)
(2.52986 -5.99518e-05 8.47504e-27)
(2.53007 -3.16647e-05 0)
(2.53026 -5.60023e-06 9.4424e-20)
(2.53043 1.84833e-05 0)
(2.53059 4.08254e-05 0)
(2.53074 6.16567e-05 0)
(2.53087 8.1197e-05 -4.42112e-20)
(2.53099 9.96654e-05 0)
(2.5311 0.000117299 8.54763e-20)
(2.5312 0.000134356 4.20082e-20)
(2.53129 0.000151118 0)
(2.53137 0.00016789 4.05615e-20)
(2.53143 0.000185022 0)
(2.53149 0.000202922 0)
(2.53153 0.000222077 1.1527e-19)
(2.53156 0.00024308 -7.54376e-20)
(2.53158 0.000266656 0)
(2.53158 0.000293703 -7.26441e-20)
(2.53156 0.000325339 3.56296e-20)
(2.53151 0.000362977 0)
(2.53144 0.000408383 0)
(2.53133 0.000463871 0)
(2.53118 0.000532234 9.86959e-20)
(2.53098 0.00061754 0)
(2.53071 0.000723894 3.15554e-20)
(2.53035 0.00085961 0)
(2.52988 0.00102858 0)
(2.52929 0.00125267 0)
(2.52847 0.00152318 0)
(2.52749 0.00191404 0)
(2.52606 0.00233913 0)
(2.52445 0.0030865 5.39234e-20)
(2.52192 0.00370092 0)
(2.51922 0.00532788 2.56749e-20)
(2.51466 0.00605685 -7.51075e-20)
(2.50988 0.00997511 0)
(2.50153 0.0108165 0)
(2.49281 0.0207999 4.625e-20)
(2.4775 0.0235573 4.49621e-20)
(2.46267 0.0523719 -4.37075e-20)
(2.44137 0.0661527 -4.2407e-20)
(-0.0237445 0.326439 -8.62697e-20)
(-0.0727224 0.310494 -8.56457e-20)
(-0.117887 0.298863 -5.67016e-20)
(-0.164754 0.293515 -2.81872e-20)
(-0.210228 0.284751 0)
(-0.254822 0.273006 5.53999e-20)
(-0.297686 0.258636 -2.7534e-20)
(-0.33856 0.241641 0)
(-0.376946 0.222023 -2.69905e-20)
(-0.41233 0.199798 0)
(-0.444221 0.175048 5.31978e-20)
(-0.472134 0.147846 0)
(-0.495534 0.118357 2.60992e-20)
(-0.513929 0.0868381 5.17457e-20)
(-0.526884 0.0534832 -5.12899e-20)
(-0.534014 0.018679 0)
(-0.534839 -0.0172117 -5.0366e-20)
(-0.529033 -0.0537643 0)
(-0.516534 -0.0904483 0)
(-0.49714 -0.126844 -4.89463e-20)
(-0.470918 -0.162383 0)
(-0.438093 -0.196619 -7.13476e-23)
(-0.398864 -0.229084 0)
(-0.353713 -0.259393 0)
(-0.30295 -0.287234 5.5986e-23)
(-0.24696 -0.312364 -4.6075e-20)
(-0.186526 -0.334565 -4.56464e-20)
(-0.122069 -0.353705 -4.51282e-20)
(-0.05413 -0.369802 0)
(0.016691 -0.382909 -8.84117e-20)
(0.0898054 -0.393015 0)
(0.164511 -0.400282 -4.32721e-20)
(0.240443 -0.404866 0)
(0.317138 -0.40695 0)
(0.394166 -0.406741 4.18901e-20)
(0.471136 -0.404458 0)
(0.547695 -0.400322 -4.10024e-20)
(0.623537 -0.394558 1.53358e-23)
(0.698392 -0.387382 8.027e-20)
(0.772031 -0.379003 -7.94441e-20)
(0.844259 -0.369618 0)
(0.914914 -0.35941 0)
(0.983863 -0.348548 -3.85114e-20)
(1.051 -0.337185 0)
(1.11624 -0.325459 -3.77055e-20)
(1.17954 -0.313493 3.73219e-20)
(1.24083 -0.301394 3.69434e-20)
(1.30011 -0.289257 0)
(1.35735 -0.277164 -3.62009e-20)
(1.41257 -0.265183 -3.58365e-20)
(1.46577 -0.253374 7.09683e-20)
(1.51696 -0.241784 -3.51202e-20)
(1.56619 -0.230455 -3.47679e-20)
(1.61347 -0.219418 0)
(1.65886 -0.208699 0)
(1.70239 -0.198316 3.37325e-20)
(1.7441 -0.188284 0)
(1.78405 -0.178612 0)
(1.82229 -0.169306 -6.54522e-20)
(1.85886 -0.160367 -6.4793e-20)
(1.89382 -0.151795 0)
(1.92722 -0.143588 0)
(1.95911 -0.13574 0)