/*--------------------------------*- C++ -*----------------------------------*\
  =========                 |
  \\      /  F ield         | OpenFOAM: The Open Source CFD Toolbox
   \\    /   O peration     | Website:  https://openfoam.org
    \\  /    A nd           | Version:  7
     \\/     M anipulation  |
\*---------------------------------------------------------------------------*/
FoamFile
{
    version     2.0;
    format      ascii;
    class       volScalarField;
    location    "5";
    object      p;
}
// * * * * * * * * * * * * * * * * * * * * * * * * * * * * * * * * * * * * * //

dimensions      [0 2 -2 0 0 0 0];

internalField   nonuniform List<scalar> 
918
(
4.70752
17.6486
0.236201
4.62977
0.153329
16.7417
1.66068
3.15519
4.16986
1.00691
0.794855
3.47948
12.7516
6.91067
2.00677
0.282898
3.31635
0.817241
4.06958
0.293771
2.63521
4.33603
4.46084
4.19077
3.38834
3.96231
9.46675
0.276613
0.0367028
0.141464
0.138261
0.0924626
0.0753071
14.1301
15.2648
15.718
3.73272
1.61484
1.86079
1.95808
1.56371
1.38192
3.16796
3.19135
2.37502
3.13644
3.12
3.88806
4.15377
4.1708
4.21826
4.17964
4.22686
1.64241
0.987918
0.954481
1.03731
1.05405
0.903222
0.852756
0.896377
0.758841
0.719923
3.46364
3.50626
3.53122
3.46128
3.44764
15.9198
14.9862
15.6162
13.5635
13.9163
11.9454
11.17
7.4413
7.91184
6.42337
5.85924
1.55512
1.29409
2.35063
2.7783
0.0313992
0.347513
0.402706
3.32538
3.33874
3.30332
3.29041
2.31799
0.888023
0.926867
4.0026
3.95773
4.32755
4.37865
4.26027
4.27947
0.367044
0.419159
0.242851
0.259214
0.206291
2.91005
3.01249
4.14326
4.06079
3.42744
3.39459
3.41
3.10975
3.36326
3.36411
5.0701
5.42788
4.54072
5.01084
8.85504
8.21178
10.2237
10.9116
0.109224
0.0412357
0.229784
0.126341
0.186375
3.70144
3.66397
3.7373
3.75881
3.78882
1.43165
1.23581
1.73475
1.83902
2.07652
2.13699
1.02986
1.27025
1.12099
2.43728
3.2073
3.2255
2.21736
2.33424
2.26432
2.4547
2.51047
3.81087
3.86413
3.83057
3.99082
3.91325
3.94638
4.24433
4.17685
4.21649
1.74926
1.84599
1.56923
1.48626
0.837862
0.908152
0.867839
1.05369
1.04098
0.978073
1.04031
0.847688
0.810261
1.01142
0.938064
0.981417
0.675257
0.630578
3.43384
3.40477
3.50724
3.54566
3.63355
3.60799
3.55418
3.58351
9.98918
10.5152
10.6553
10.0286
0.219327
-0.532191
3.13327
3.45504
0.0672657
0.0578068
0.0329013
0.0859704
0.0723083
0.0295116
0.601857
0.557272
0.452327
0.514489
3.34646
3.35199
2.36876
2.42028
2.26684
2.19701
3.83942
3.85824
3.9192
3.87963
0.577758
0.470166
0.528215
3.09658
3.04369
3.07717
3.04827
2.97696
3.18091
3.23891
3.35768
3.36585
3.36154
5.43983
5.81802
11.2135
11.633
11.7028
12.2658
13.9029
13.6469
12.6447
3.57716
3.63772
3.61137
3.81602
3.76288
3.79284
3.65527
3.70878
3.67689
1.05579
0.916577
2.18618
2.11192
1.92042
2.00955
2.48555
2.50894
3.2726
3.23897
3.25946
2.58221
2.63793
1.40053
1.32878
3.27639
3.36358
3.31354
9.34641
8.43554
9.49105
8.93047
8.26163
8.74245
0.639561
-0.0535404
0.365309
4.63316
3.82559
4.25415
0.750174
0.638338
0.677372
2.4653
2.48729
1.93908
2.1134
2.03688
6.19371
6.68748
7.62129
6.40807
7.02923
7.62376
7.32506
2.39172
2.27136
2.32893
2.55915
2.56116
2.88538
2.71166
2.7769
1.1007
1.25067
1.17425
2.51681
2.5548
2.5359
4.10332
4.16552
0.184976
0.260318
4.21031
4.18732
0.0454426
0.111113
3.82698
1.75546
2.5678
3.92971
3.87148
4.13913
1.0733
1.67679
0.848551
0.976875
0.753095
3.50464
3.50171
3.36409
0.123282
0.354441
0.377058
1.06696
4.06949
3.99616
4.12459
4.16342
4.16515
0.166377
0.196635
0.134684
0.318406
0.238333
0.284772
3.70692
3.70816
1.96223
4.1227
4.15946
4.16182
3.97742
4.09081
3.98888
0.291475
0.200798
0.2359
2.93528
3.18992
3.71153
3.29557
3.61831
3.58462
3.29128
4.56955
4.09443
4.11754
4.57381
3.19924
3.1287
2.62422
2.45227
2.67888
2.65784
3.91249
3.87927
3.84577
3.82636
4.02638
3.97523
4.07206
3.99889
4.05189
4.08904
1.10997
1.08689
1.08733
0.977832
1.72457
1.87499
1.56762
1.56047
1.23259
0.798889
0.773207
0.874402
0.913023
0.939184
0.795269
0.89944
0.83822
0.686763
0.666473
0.8894
0.814983
0.853467
3.52001
3.54181
3.47299
3.4657
3.528
3.56925
3.40043
3.47669
3.43568
3.2312
3.33369
3.27678
0.152528
0.161783
0.128188
0.392809
0.440868
0.289385
0.228567
0.294432
0.260247
0.223623
0.393787
0.440318
1.24493
1.1555
2.43315
2.22965
1.99308
3.89159
3.97087
3.90018
4.01748
4.07279
4.0887
4.04402
3.98593
3.73033
3.75621
3.6774
3.66482
2.03974
1.70729
2.14954
2.15049
1.77154
3.35467
3.16408
3.02158
3.06984
3.28822
3.59617
2.79942
2.75729
2.73812
2.08438
2.98872
2.37981
2.82811
2.61575
5.43647
5.84394
5.44206
4.94195
5.01741
1.13499
2.82134
2.31756
2.33245
2.57014
2.46959
3.02379
3.20447
3.22442
3.08974
3.09726
3.16328
3.11591
3.14103
3.13919
3.15231
2.95673
2.93577
2.80533
2.80398
3.29559
3.0049
3.05084
3.07994
3.79688
3.86132
3.82416
3.72783
3.80095
3.75325
3.72485
3.74789
3.9254
3.89777
3.86482
3.91036
1.0928
1.07534
1.25074
1.19849
1.11637
0.999914
1.23842
1.5169
1.41022
1.91943
2.04003
1.49864
1.36448
1.35011
1.58916
1.69954
1.72583
1.23595
1.29759
1.41222
1.3122
1.47218
1.38484
0.896361
0.94685
0.979268
0.92185
1.02157
1.15385
1.07619
0.768511
0.821177
0.727485
0.681366
1.08735
1.03186
1.01552
1.1481
0.381594
0.413601
0.456649
0.692161
0.607087
0.649626
3.64102
3.58042
3.61059
3.42231
3.44741
3.4338
3.36893
3.67438
3.62332
3.64989
3.42905
3.46474
3.40739
3.44045
3.50369
3.53291
3.69287
3.66075
3.51599
3.55419
3.50247
3.48833
3.36814
3.32983
3.29003
0.322267
0.227117
0.279994
0.26453
0.194184
0.225344
0.633826
0.504599
0.585202
0.520674
0.577193
0.37242
0.356246
1.52868
1.67293
1.70422
1.42033
1.40012
2.43168
2.47968
2.25499
2.18673
2.25338
2.33278
2.32627
1.96524
2.10951
2.06879
2.37535
2.5379
3.96318
3.9665
3.93078
3.9071
3.92494
2.18779
2.34875
2.45054
2.54077
1.68441
1.82785
2.35863
2.25166
2.38283
2.16204
3.33629
3.34547
3.32053
3.34984
3.3638
3.12227
3.1623
3.21756
3.21356
3.2972
3.29625
3.22333
3.26336
3.27073
3.21762
3.19433
3.19551
3.19283
3.15257
3.13628
3.4498
3.44024
3.47105
3.4003
3.43059
3.32567
3.36742
3.4039
3.40476
3.32438
3.25529
3.24407
3.28363
3.29269
3.33817
3.35048
2.40267
2.50334
1.78467
1.56115
1.64824
1.15834
1.12375
1.46279
1.75909
1.27362
1.07224
0.547139
2.66684
3.42026
3.09548
3.08732
3.06694
3.05654
3.03552
3.03258
3.04462
3.26192
3.2442
3.26575
3.05215
3.07462
3.05177
3.06136
2.88311
2.83499
2.79999
2.79309
2.61214
2.65374
2.91133
2.83365
2.74557
2.76009
3.11321
2.9869
3.07653
3.06684
2.961
2.92816
3.1369
3.22289
3.24814
3.21501
3.03172
3.02001
3.06312
3.09353
3.09798
3.1408
3.77552
3.82896
3.84761
3.81817
3.7881
3.79882
3.77159
3.79456
3.84226
3.86186
3.8421
0.978161
1.00707
1.05096
1.01316
1.16105
1.15316
1.30825
1.2878
1.07948
1.12588
1.13489
1.10814
1.05929
1.04502
1.43214
1.51558
1.55652
1.46786
1.81083
1.90426
2.01515
1.96955
1.69801
1.68456
1.76556
1.08769
1.06169
1.02411
1.11931
1.14929
0.78924
0.716204
0.675486
0.794137
0.838974
0.625713
0.520857
0.552184
0.619852
0.638517
0.574211
3.64616
3.61018
3.57735
3.55272
3.56962
3.62038
3.65957
3.61909
3.63869
3.62944
3.58304
3.56423
3.58947
0.506046
0.426964
0.448165
0.508262
0.459787
0.419457
0.448223
2.10156
1.87457
1.97321
1.86226
1.60347
1.64518
2.12439
2.28648
2.24029
2.50822
2.47475
2.46512
2.38835
2.45394
2.24064
2.42151
2.32681
2.50576
2.48876
2.52923
2.42517
2.57538
2.56345
2.73864
2.5115
2.45186
2.74591
2.60134
2.65728
2.59401
2.7919
1.748
1.87687
2.20909
2.27101
1.8404
2.01893
1.81056
1.9211
2.24294
2.43123
2.48593
3.28897
3.31127
3.3157
3.28151
3.30569
3.37336
3.33911
3.35495
3.37395
3.3587
1.15085
1.42161
0.756589
1.59779
1.86632
2.63388
2.54868
3.0733
2.9879
3.01605
3.02235
3.04102
3.02081
2.99242
3.01422
2.8515
2.97464
2.92929
2.96997
2.86943
2.78883
3.12993
3.15099
3.14146
3.17724
3.19279
3.22519
3.75241
3.73002
3.74674
3.73608
3.68327
3.68501
1.27796
1.21851
1.38384
1.3876
1.29834
1.23306
0.644018
0.609195
0.553922
0.524251
0.554351
0.602271
2.1878
2.16705
1.95881
2.09948
2.04249
1.77267
1.84449
1.95096
2.03537
2.20217
2.28605
2.44872
2.36061
2.36147
2.19597
2.26564
2.1725
2.01015
2.07741
2.15896
2.18823
2.12871
1.57638
1.83662
3.14408
3.01215
2.67642
2.43598
2.29803
2.65521
2.92694
2.88052
2.94067
2.96981
2.98114
1.83132
1.77216
2.27463
2.61419
2.37187
1.98923
2.06361
2.29482
2.43317
)
;

boundaryField
{
    wall-4
    {
        type            zeroGradient;
    }
    velocity-inlet-5
    {
        type            zeroGradient;
    }
    velocity-inlet-6
    {
        type            zeroGradient;
    }
    pressure-outlet-7
    {
        type            fixedValue;
        value           uniform 0;
    }
    wall-8
    {
        type            zeroGradient;
    }
    frontAndBackPlanes
    {
        type            empty;
    }
}


// ************************************************************************* //
