/*--------------------------------*- C++ -*----------------------------------*\
  =========                 |
  \\      /  F ield         | OpenFOAM: The Open Source CFD Toolbox
   \\    /   O peration     | Website:  https://openfoam.org
    \\  /    A nd           | Version:  7
     \\/     M anipulation  |
\*---------------------------------------------------------------------------*/
FoamFile
{
    version     2.0;
    format      ascii;
    class       volScalarField;
    location    "0.08";
    object      k_0;
}
// * * * * * * * * * * * * * * * * * * * * * * * * * * * * * * * * * * * * * //

dimensions      [0 2 -2 0 0 0 0];

internalField   nonuniform List<scalar> 
12225
(
1.92959e-05
1.81454e-05
1.67464e-05
1.53398e-05
1.40727e-05
1.27197e-05
1.15664e-05
1.04142e-05
9.07853e-06
7.92863e-06
6.90257e-06
5.82839e-06
4.96841e-06
4.61031e-06
4.44375e-06
4.4356e-06
1.34529e-05
1.88638e-05
1.99816e-05
1.99e-05
1.97251e-05
1.93885e-05
1.90851e-05
1.87591e-05
1.84358e-05
1.80242e-05
1.74833e-05
1.70371e-05
1.64996e-05
1.59138e-05
1.54736e-05
1.48027e-05
1.45071e-05
1.39036e-05
1.62916e-05
1.64396e-05
1.99996e-05
1.93554e-05
1.90101e-05
1.89918e-05
1.89869e-05
1.89826e-05
1.89766e-05
1.89504e-05
1.88594e-05
1.86314e-05
1.8441e-05
1.82007e-05
1.80831e-05
1.78824e-05
1.77899e-05
1.75753e-05
1.82263e-05
1.81011e-05
2.01877e-05
2.00878e-05
1.94843e-05
1.78196e-05
1.72423e-05
1.72978e-05
1.77137e-05
1.81421e-05
1.81968e-05
1.80186e-05
1.7543e-05
1.72555e-05
1.7156e-05
1.71465e-05
1.72337e-05
1.73586e-05
1.76989e-05
1.77681e-05
2.01894e-05
2.10343e-05
2.13111e-05
2.08613e-05
2.05434e-05
2.07478e-05
2.19932e-05
2.31594e-05
2.33522e-05
2.31101e-05
2.1641e-05
1.9259e-05
1.81564e-05
1.78324e-05
1.78079e-05
1.78419e-05
1.79795e-05
1.8034e-05
2.2295e-05
2.18845e-05
2.18845e-05
2.3092e-05
2.45954e-05
2.53951e-05
2.57656e-05
2.5816e-05
2.56559e-05
2.50307e-05
2.4508e-05
2.41378e-05
2.39047e-05
2.3786e-05
2.36916e-05
2.35385e-05
2.32174e-05
2.23598e-05
2.12236e-05
2.33883e-05
2.31353e-05
2.31741e-05
2.43367e-05
2.58405e-05
2.62186e-05
2.61529e-05
2.55549e-05
2.46935e-05
2.43018e-05
2.42017e-05
2.42663e-05
2.48447e-05
2.56816e-05
2.59494e-05
2.59429e-05
2.56956e-05
2.09161e-05
2.34856e-05
2.75379e-05
2.71631e-05
2.57744e-05
2.52438e-05
2.45866e-05
2.38997e-05
2.33978e-05
2.32136e-05
2.32483e-05
2.37081e-05
2.50824e-05
2.60532e-05
2.6398e-05
2.64177e-05
2.6222e-05
2.54287e-05
2.02049e-05
2.11251e-05
2.33786e-05
3.06007e-05
3.26554e-05
3.10846e-05
2.58449e-05
2.30151e-05
2.221e-05
2.21652e-05
2.25494e-05
2.41595e-05
2.56568e-05
2.63333e-05
2.65093e-05
2.64901e-05
2.62219e-05
2.51456e-05
2.00939e-05
2.19726e-05
3.23007e-05
3.66797e-05
3.36992e-05
2.6429e-05
2.26496e-05
2.1246e-05
2.09489e-05
2.09767e-05
2.13718e-05
2.25266e-05
2.33671e-05
2.37981e-05
2.39462e-05
2.395e-05
2.38257e-05
2.32566e-05
2.06972e-05
2.20027e-05
2.35827e-05
2.75801e-05
2.78269e-05
2.6577e-05
2.37231e-05
2.2073e-05
2.14611e-05
2.13174e-05
2.13159e-05
2.13321e-05
2.13535e-05
2.1378e-05
2.1434e-05
2.16575e-05
2.20391e-05
2.2162e-05
2.06409e-05
2.08348e-05
2.09793e-05
2.12083e-05
2.12686e-05
2.16448e-05
2.26721e-05
2.28398e-05
2.26866e-05
2.25087e-05
2.22242e-05
2.18457e-05
2.15089e-05
2.13009e-05
2.12368e-05
2.12496e-05
2.13854e-05
2.18103e-05
2.19915e-05
2.07174e-05
2.03468e-05
2.04103e-05
2.08139e-05
2.12714e-05
2.12546e-05
2.10652e-05
2.10861e-05
2.14316e-05
2.17996e-05
2.18759e-05
2.18535e-05
2.1698e-05
2.15078e-05
2.14535e-05
2.14563e-05
2.15238e-05
2.05506e-05
2.04812e-05
2.0462e-05
2.04533e-05
2.03369e-05
2.01854e-05
2.01603e-05
2.01894e-05
2.03536e-05
2.1078e-05
2.21661e-05
2.26407e-05
2.27184e-05
2.26548e-05
2.22537e-05
2.17611e-05
2.14225e-05
2.12557e-05
2.0713e-05
2.06057e-05
2.05206e-05
2.06347e-05
2.0772e-05
2.08056e-05
2.08031e-05
2.07623e-05
2.07489e-05
2.07718e-05
2.08272e-05
2.08354e-05
2.08309e-05
2.08097e-05
2.07339e-05
2.06499e-05
2.05828e-05
2.05576e-05
2.08291e-05
2.08559e-05
2.07318e-05
2.10419e-05
2.16247e-05
2.16179e-05
2.15424e-05
2.13333e-05
2.09404e-05
2.06386e-05
2.04682e-05
2.03989e-05
2.03829e-05
2.03838e-05
2.03963e-05
2.04169e-05
2.04258e-05
2.0432e-05
2.01734e-05
2.03571e-05
2.08216e-05
2.14558e-05
2.15835e-05
2.14874e-05
2.10323e-05
2.06052e-05
2.04076e-05
2.0351e-05
2.03536e-05
2.04018e-05
2.04513e-05
2.04638e-05
2.04627e-05
2.04467e-05
2.0404e-05
2.03862e-05
2.15262e-05
2.11505e-05
2.11591e-05
2.11641e-05
2.08072e-05
2.04035e-05
2.02472e-05
2.01974e-05
2.01883e-05
2.01922e-05
2.02201e-05
2.03319e-05
2.05032e-05
2.06166e-05
2.06723e-05
2.0695e-05
2.07192e-05
2.07819e-05
2.04533e-05
2.07285e-05
2.06807e-05
2.05513e-05
2.05038e-05
2.04245e-05
2.02949e-05
2.02112e-05
2.01852e-05
2.01854e-05
2.02059e-05
2.02917e-05
2.04735e-05
2.06242e-05
2.06609e-05
2.06541e-05
2.06306e-05
2.0572e-05
2.07355e-05
2.0882e-05
2.09841e-05
2.089e-05
2.07334e-05
2.05942e-05
2.04208e-05
2.03348e-05
2.0328e-05
2.03435e-05
2.03592e-05
2.03652e-05
2.03771e-05
2.0427e-05
2.04821e-05
2.05107e-05
2.05199e-05
2.05161e-05
2.0183e-05
2.04335e-05
2.04402e-05
2.03635e-05
2.03009e-05
2.02832e-05
2.03187e-05
2.03151e-05
2.03031e-05
2.03054e-05
2.0306e-05
2.03012e-05
2.02926e-05
2.02915e-05
2.0302e-05
2.03644e-05
2.04556e-05
2.05117e-05
2.03659e-05
2.03396e-05
2.03661e-05
2.03504e-05
2.03482e-05
2.04566e-05
2.11959e-05
2.15648e-05
2.1333e-05
2.06925e-05
2.03914e-05
2.02703e-05
2.02296e-05
2.02241e-05
2.02294e-05
2.02519e-05
2.02707e-05
2.02789e-05
2.00999e-05
2.00706e-05
2.02229e-05
2.03179e-05
2.04384e-05
2.06475e-05
2.07452e-05
2.0701e-05
2.04674e-05
2.02174e-05
2.01033e-05
2.00767e-05
2.00859e-05
2.01788e-05
2.0297e-05
2.03243e-05
2.03333e-05
2.03624e-05
2.01319e-05
2.01068e-05
2.02157e-05
2.0529e-05
2.07814e-05
2.08662e-05
2.09035e-05
2.09874e-05
2.13313e-05
2.20767e-05
2.23104e-05
2.22445e-05
2.17634e-05
2.10664e-05
2.06936e-05
2.05176e-05
2.04447e-05
2.04268e-05
2.00175e-05
2.00607e-05
2.01958e-05
2.05051e-05
2.06521e-05
2.06919e-05
2.07435e-05
2.09715e-05
2.18301e-05
2.22572e-05
2.22103e-05
2.16807e-05
2.07933e-05
2.03311e-05
2.0148e-05
2.00995e-05
2.01018e-05
2.01625e-05
2.00991e-05
2.00614e-05
2.00713e-05
2.01905e-05
2.0301e-05
2.03295e-05
2.03537e-05
2.04343e-05
2.08068e-05
2.1264e-05
2.13647e-05
2.12948e-05
2.08698e-05
2.04672e-05
2.03723e-05
2.03814e-05
2.05011e-05
2.10209e-05
2.00049e-05
1.9995e-05
1.99972e-05
2.00775e-05
2.02428e-05
2.02869e-05
2.02529e-05
2.00676e-05
1.99223e-05
1.98641e-05
1.98715e-05
1.99317e-05
2.01198e-05
2.05327e-05
2.15177e-05
2.27925e-05
2.44535e-05
2.52476e-05
2.02384e-05
1.84156e-05
1.37487e-05
1.42289e-05
1.67325e-05
2.01389e-05
2.58046e-05
3.21642e-05
3.91286e-05
4.35801e-05
4.80557e-05
5.13855e-05
5.75213e-05
6.69342e-05
8.18726e-05
9.19335e-05
0.000104935
0.000113904
3.39608e-05
0.000120371
0.0001356
0.000175812
0.000257671
0.000345579
0.000427034
0.000483467
0.000507171
0.000512566
0.000517044
0.000527051
0.000553817
0.000598998
0.000645213
0.000680359
0.000712659
0.000734753
0.00293664
0.0027669
0.00223991
0.00203942
0.00202673
0.00207164
0.00210807
0.00210668
0.0020674
0.001945
0.00184413
0.00177369
0.00171201
0.00164427
0.00156831
0.00148739
0.00141213
0.00135683
0.00817564
0.00933733
0.00727299
0.00651048
0.00643262
0.00643361
0.0063865
0.00627727
0.00617486
0.00595007
0.00623487
0.0069053
0.0069646
0.00682811
0.00660274
0.00641924
0.00628029
0.00618431
0.00610559
0.00603023
0.00596489
0.00592778
0.00589953
0.0058548
0.00582185
0.00581561
0.0058191
0.00582673
0.00584144
0.00586752
0.00592243
0.00599844
0.00605197
0.00616604
0.0062812
0.00650286
0.0066668
0.00711319
0.00869108
0.00724469
0.00399116
0.00477001
0.00651584
0.00725456
0.00760234
0.00798967
0.00837133
0.00843977
0.00811197
0.00793635
0.00854298
0.0103534
0.0132456
0.0172941
0.0218515
0.0276982
0.0323215
0.0337274
0.0331322
0.0352293
0.0482146
0.0842981
0.104405
0.107816
0.114597
0.123916
0.105932
0.023918
0.00280346
0.00135975
0.00117016
0.00119466
0.00121916
0.00118229
0.00106644
0.000954024
0.000833286
0.00066071
0.00057537
0.000425522
0.000349182
0.000273798
0.000206885
0.000174544
0.000151901
0.000144272
0.000145032
0.000146093
0.000147626
0.000148826
0.000150181
0.000151289
0.000152234
0.000153067
0.000153909
0.000154703
0.00015546
0.000155883
0.00015609
0.000156009
0.000155353
0.000154589
0.000153182
0.000150941
0.000148553
0.000146039
0.000143198
0.000140331
0.000137888
0.000134999
0.00013267
0.000130408
0.000128229
0.000126187
0.000124165
0.00012212
0.000119952
0.000117623
0.000114691
0.000110794
0.000106117
0.000100763
9.4652e-05
8.77817e-05
8.02201e-05
7.21781e-05
6.41957e-05
5.68119e-05
5.0468e-05
4.5151e-05
4.04544e-05
3.60559e-05
3.16951e-05
2.71459e-05
2.24331e-05
1.77299e-05
1.34926e-05
1.0108e-05
7.55279e-06
5.68172e-06
4.32548e-06
3.33619e-06
2.60389e-06
2.05318e-06
1.6328e-06
1.30816e-06
1.05647e-06
8.61207e-07
7.08481e-07
5.87431e-07
4.90361e-07
4.11799e-07
3.47673e-07
2.94828e-07
2.5078e-07
2.13613e-07
1.81886e-07
1.54567e-07
1.30917e-07
1.1042e-07
9.26665e-08
7.73422e-08
6.41539e-08
5.2872e-08
4.32505e-08
3.5121e-08
2.82642e-08
2.2568e-08
1.78099e-08
1.39445e-08
1.07293e-08
8.21607e-09
6.09976e-09
4.60825e-09
3.01855e-09
5.31597e-09
4.32033e-09
1.29168e-07
5.69791e-06
4.26724e-06
0.00766793
0.00791424
0.00764102
0.00701827
0.00680163
0.00671738
0.00654699
0.00621655
0.0059126
0.00534672
0.00509583
0.00496007
0.00483199
0.00473357
0.00470138
0.00466572
0.00465687
0.00466067
0.00467178
0.00470112
0.00473106
0.00476996
0.00483933
0.00488823
0.00496248
0.0050159
0.00506589
0.00511369
0.00511482
0.00510217
0.00505614
0.00501705
0.00501744
0.00503762
0.00509142
0.0052246
0.00540514
0.00561927
0.00648852
0.00682053
0.006789
0.00682603
0.00680477
0.00647095
0.00561561
0.00528941
0.00536335
0.00494051
0.00412004
0.00347407
0.00313991
0.00318398
0.00336135
0.00362357
0.0040763
0.00497427
0.00617444
0.00660568
0.0067143
0.0071226
0.00941523
0.0115222
0.0146057
0.0363134
0.0977638
0.0709732
0.0266951
0.00506586
0.00132977
0.00079791
0.000632882
0.000542041
0.000471797
0.000396441
0.000332284
0.000299711
0.000264459
0.000241329
0.000229921
0.00022211
0.000219912
0.000219715
0.00022489
0.000232819
0.000243123
0.000253991
0.000264853
0.000276046
0.000286243
0.000296253
0.000306313
0.000316873
0.000326682
0.000335534
0.000343818
0.000351937
0.000359283
0.00036448
0.00036675
0.000367562
0.000365826
0.000360367
0.000354101
0.000340907
0.000326568
0.000310933
0.000291626
0.00027041
0.000252893
0.00023547
0.000221429
0.000207824
0.000196051
0.00018631
0.000178691
0.000172948
0.000168472
0.000164879
0.000162518
0.000161565
0.000161555
0.000162105
0.000162697
0.000162645
0.000161727
0.000159285
0.000154653
0.000147422
0.000137662
0.000126759
0.000115963
0.000105707
9.63546e-05
8.78989e-05
7.99882e-05
7.24986e-05
6.52994e-05
5.82923e-05
5.16217e-05
4.53946e-05
3.96374e-05
3.43059e-05
2.93536e-05
2.48074e-05
2.07211e-05
1.71082e-05
1.39934e-05
1.1434e-05
9.39497e-06
7.74562e-06
6.3939e-06
5.28203e-06
4.37159e-06
3.63263e-06
3.03746e-06
2.55909e-06
2.1721e-06
1.85442e-06
1.58792e-06
1.36062e-06
1.16456e-06
9.94498e-07
8.46292e-07
7.17247e-07
6.04527e-07
5.06651e-07
4.21289e-07
3.48199e-07
2.84879e-07
2.31777e-07
1.85406e-07
1.48139e-07
1.14552e-07
9.0322e-08
6.54803e-08
5.34996e-08
3.64331e-08
3.95583e-08
6.62524e-07
8.24482e-07
0.00680837
0.00785485
0.00788041
0.00766648
0.00715368
0.00666729
0.00579915
0.00507742
0.00457702
0.00438229
0.00434217
0.00436361
0.00442552
0.00453963
0.00469855
0.00482943
0.0050797
0.00533443
0.00561391
0.00605588
0.00642985
0.00692868
0.00743921
0.00788163
0.00840434
0.00879312
0.00915232
0.00947619
0.00953278
0.00948103
0.00931545
0.00894103
0.00815058
0.00742168
0.00671067
0.00616361
0.00582393
0.00566066
0.0056744
0.00579682
0.00593168
0.00615333
0.00645907
0.00644508
0.00632795
0.00607126
0.00561086
0.00499858
0.00419526
0.00382201
0.00388673
0.00427837
0.00454897
0.00461344
0.00448814
0.00433476
0.00429765
0.00449624
0.00515293
0.00575029
0.00737828
0.0118873
0.0343063
0.0522112
0.0426493
0.0143106
0.00416262
0.00100111
0.000511233
0.000401782
0.000356486
0.000322434
0.000305234
0.000287867
0.000278014
0.000273718
0.00027208
0.000275709
0.000291748
0.000310941
0.000338981
0.000372699
0.000412565
0.00045682
0.000501249
0.000539609
0.000574337
0.000606216
0.000631703
0.000650482
0.000666251
0.000677577
0.000683135
0.000684672
0.000684689
0.000683292
0.000680895
0.000678098
0.000674473
0.000668595
0.000660972
0.00065377
0.000645823
0.000633963
0.000621984
0.000609
0.000592645
0.000571845
0.000545789
0.000510644
0.000470012
0.000424964
0.000375857
0.000324664
0.000277661
0.000238814
0.000210885
0.000188845
0.000172648
0.000162215
0.000156375
0.000153729
0.00015328
0.000155046
0.000158848
0.000162343
0.000164091
0.000164314
0.000163637
0.000159638
0.000148662
0.000135557
0.000122075
0.000109459
9.92058e-05
9.12714e-05
8.41652e-05
7.70139e-05
6.99179e-05
6.33097e-05
5.75571e-05
5.27823e-05
4.88562e-05
4.54618e-05
4.22496e-05
3.89991e-05
3.56084e-05
3.20195e-05
2.82893e-05
2.45825e-05
2.10293e-05
1.77232e-05
1.47305e-05
1.20946e-05
9.83526e-06
7.949e-06
6.41132e-06
5.18298e-06
4.2172e-06
3.46492e-06
2.87989e-06
2.42254e-06
2.0603e-06
1.76776e-06
1.52583e-06
1.32176e-06
1.14602e-06
9.91772e-07
8.5568e-07
7.32714e-07
6.25467e-07
5.25107e-07
4.42676e-07
3.58894e-07
3.01024e-07
2.27969e-07
1.95786e-07
1.27643e-07
1.41186e-07
1.37312e-07
0.00211742
0.0042642
0.00513118
0.00518432
0.00492916
0.0043001
0.00407018
0.0040813
0.00414497
0.00428808
0.00453204
0.00495598
0.00547208
0.00599655
0.00658497
0.00730265
0.00808295
0.00895655
0.00988282
0.0106978
0.0114795
0.0122517
0.0129718
0.0136528
0.0143243
0.0148943
0.0153879
0.0159047
0.0163069
0.0164417
0.016432
0.0163217
0.0159692
0.0150134
0.0134924
0.0116185
0.00954402
0.00790695
0.00680792
0.00627065
0.00604483
0.00588153
0.00585444
0.00588838
0.00599272
0.00598523
0.00592184
0.00574796
0.00531028
0.00501649
0.00494513
0.00496774
0.00504788
0.00519047
0.0052348
0.005184
0.00477983
0.00447769
0.00466322
0.00673302
0.0179136
0.0334264
0.0371885
0.0299456
0.0102549
0.00301841
0.000928183
0.000442741
0.000377207
0.000362952
0.000357392
0.000353998
0.00037062
0.000396705
0.00043724
0.000496349
0.00056763
0.000637901
0.000707836
0.000766152
0.000805621
0.00084247
0.000857161
0.000862453
0.000863148
0.000859975
0.00085205
0.000841883
0.000833703
0.000822037
0.000809296
0.00079449
0.000779998
0.000766725
0.000753061
0.00073891
0.000726961
0.000717389
0.000709881
0.000702221
0.000694166
0.000686402
0.000677679
0.000666221
0.000657029
0.000650227
0.000646943
0.00064875
0.000655025
0.000655081
0.000649611
0.000640136
0.000624856
0.000602392
0.0005664
0.000515125
0.000448891
0.000376248
0.00030332
0.000241752
0.000199119
0.000170693
0.000153486
0.000144936
0.000141955
0.00014217
0.000147608
0.000158431
0.00016762
0.000173348
0.000175675
0.000176
0.000175192
0.000170892
0.000158899
0.000144501
0.000131263
0.000119224
0.000107218
9.48291e-05
8.27436e-05
7.19045e-05
6.29451e-05
5.59764e-05
5.05487e-05
4.61961e-05
4.26422e-05
3.96733e-05
3.69735e-05
3.41371e-05
3.09809e-05
2.75695e-05
2.40557e-05
2.05724e-05
1.72521e-05
1.42045e-05
1.14915e-05
9.14156e-06
7.16612e-06
5.56227e-06
4.30902e-06
3.36411e-06
2.66884e-06
2.15998e-06
1.78512e-06
1.50289e-06
1.28435e-06
1.10865e-06
9.63253e-07
8.38541e-07
7.30943e-07
6.33984e-07
5.49146e-07
4.70072e-07
4.01239e-07
3.3608e-07
2.81187e-07
2.2805e-07
1.86357e-07
1.46246e-07
0.00201849
0.00299381
0.00316074
0.00337301
0.0034582
0.00363833
0.00400733
0.0044334
0.00493111
0.00551113
0.00621945
0.00676027
0.00728324
0.00794895
0.00875866
0.00957336
0.0103421
0.0110402
0.0116847
0.0123863
0.0130949
0.0137651
0.0143942
0.0149789
0.0155104
0.0159929
0.0164581
0.0168968
0.0172479
0.0174992
0.0176756
0.0177978
0.0178475
0.0177916
0.0174547
0.0164646
0.0149606
0.0130208
0.0108504
0.0088759
0.00741065
0.00652244
0.00607509
0.00594312
0.00577175
0.00567087
0.00564095
0.00559768
0.00549456
0.00531893
0.00514176
0.00512135
0.00517348
0.00531488
0.00538286
0.00531001
0.0046807
0.00444621
0.00543416
0.0155016
0.0285767
0.0309909
0.0224095
0.00811098
0.00258346
0.000868851
0.000469732
0.00040723
0.000400957
0.000434977
0.000497726
0.000600987
0.000706152
0.000803934
0.000874136
0.000920577
0.000940482
0.000950729
0.00095357
0.000950684
0.000942998
0.000914384
0.000873776
0.000841439
0.000812306
0.000772533
0.000733624
0.000707735
0.000681806
0.000663268
0.000649433
0.00063612
0.000628925
0.00062781
0.000629589
0.000634706
0.000643051
0.000653115
0.000664584
0.000673816
0.000678104
0.000677305
0.000666629
0.000639682
0.000607725
0.000570593
0.000537203
0.000511172
0.000492589
0.000498185
0.000522997
0.000559365
0.000599455
0.000624272
0.000629049
0.000623639
0.000606418
0.000579114
0.000540524
0.000481627
0.000402097
0.000314612
0.000237553
0.000186187
0.000155662
0.00013994
0.000133476
0.00013211
0.000134031
0.000145019
0.000159981
0.000169909
0.000174365
0.000175193
0.000174255
0.000168524
0.000152939
0.000138081
0.000126589
0.000117026
0.000107657
9.78217e-05
8.79164e-05
7.87892e-05
7.12541e-05
6.54164e-05
6.07442e-05
5.66854e-05
5.31355e-05
5.03076e-05
4.80916e-05
4.59205e-05
4.31962e-05
3.97013e-05
3.55266e-05
3.08129e-05
2.56826e-05
2.03868e-05
1.53685e-05
1.10685e-05
7.71347e-06
5.31863e-06
3.72115e-06
2.69622e-06
2.04274e-06
1.61729e-06
1.32557e-06
1.11163e-06
9.42986e-07
8.04945e-07
6.89307e-07
5.91717e-07
5.09659e-07
4.38471e-07
3.78361e-07
3.23092e-07
2.76551e-07
2.31222e-07
1.94769e-07
1.58834e-07
0.00155609
0.00221669
0.00265194
0.00341559
0.00408721
0.00481154
0.00524127
0.00553865
0.00591172
0.00644785
0.00688468
0.0072626
0.00789852
0.00879192
0.00968456
0.0104006
0.0109383
0.0113014
0.0114743
0.0115303
0.0115496
0.0115821
0.0116272
0.0116655
0.0117001
0.0117511
0.0118377
0.0119902
0.0122041
0.0124882
0.0128334
0.0132069
0.0135542
0.0138293
0.0139843
0.0139792
0.0137337
0.0131486
0.0121986
0.0110163
0.00968626
0.00832148
0.00728773
0.00661392
0.00612783
0.00582982
0.00559893
0.00544239
0.0053686
0.0053372
0.00532139
0.00524531
0.00515322
0.00509938
0.00498652
0.00453617
0.00420229
0.00442563
0.00897921
0.0227264
0.0264337
0.0182038
0.00704651
0.00237544
0.000890537
0.000519146
0.000466157
0.000484648
0.00059187
0.00078062
0.000927772
0.00100413
0.00103189
0.00104322
0.00103245
0.00100419
0.000986145
0.000947136
0.000918477
0.000853544
0.000784079
0.000719889
0.000658134
0.000623992
0.000607499
0.000603091
0.000609794
0.000621909
0.000629464
0.000636182
0.000644177
0.000651519
0.000662656
0.000683533
0.000721171
0.000773429
0.000843042
0.000921048
0.00100541
0.00107952
0.00112939
0.00114676
0.00114285
0.00108814
0.000984847
0.00083888
0.000687714
0.000564591
0.000466801
0.00039568
0.000350207
0.00032359
0.000314693
0.000340481
0.000400712
0.000471559
0.000533886
0.000566977
0.000570165
0.000556952
0.00052682
0.000487381
0.000427623
0.000342781
0.000253937
0.00018978
0.000152814
0.000133931
0.000126306
0.000124605
0.00012625
0.000137151
0.000154346
0.000165189
0.000169652
0.000170189
0.00016852
0.000159347
0.000140722
0.000126374
0.000116153
0.000107939
9.98581e-05
9.12208e-05
8.25941e-05
7.50957e-05
6.94303e-05
6.54265e-05
6.23343e-05
5.94839e-05
5.66871e-05
5.41257e-05
5.19467e-05
4.99801e-05
4.7779e-05
4.48548e-05
4.08993e-05
3.59155e-05
3.02419e-05
2.44668e-05
1.91756e-05
1.46785e-05
1.10291e-05
8.14465e-06
5.91998e-06
4.29417e-06
3.21095e-06
2.50807e-06
1.97205e-06
1.52442e-06
1.16155e-06
8.81725e-07
6.74378e-07
5.23536e-07
4.15415e-07
3.36204e-07
2.77327e-07
2.30618e-07
1.91853e-07
1.59454e-07
0.00146688
0.00287333
0.00406647
0.00481622
0.00508002
0.00532348
0.00552728
0.00576777
0.00630365
0.00687179
0.00700749
0.00701661
0.00697504
0.00691701
0.00689815
0.00687181
0.0068104
0.00674018
0.00669103
0.00664904
0.00661523
0.00658928
0.00657171
0.00656281
0.00656419
0.00656922
0.00657673
0.00659798
0.00661716
0.00664753
0.00668189
0.00673132
0.006801
0.00692077
0.00706951
0.00725593
0.00749273
0.00776068
0.00798809
0.00806773
0.00794969
0.00757742
0.00705862
0.00654082
0.00610785
0.00577117
0.00545515
0.00522277
0.00512145
0.00511424
0.00510504
0.00503145
0.00492868
0.00476431
0.00432903
0.00405416
0.00411753
0.00549346
0.0153725
0.0223301
0.0178124
0.00681965
0.0024287
0.000956407
0.000587408
0.000530835
0.000594195
0.000855168
0.00109386
0.00119966
0.00123339
0.00117345
0.00113388
0.00106504
0.00101226
0.000943825
0.000851595
0.00076542
0.00070306
0.000672691
0.000667451
0.00067419
0.000707262
0.0007675
0.000877341
0.00103623
0.00122924
0.00134123
0.00141442
0.00144759
0.00145972
0.00145975
0.00146646
0.00149102
0.00157593
0.00169733
0.00187774
0.0020731
0.00227316
0.00243551
0.00251342
0.00249872
0.00239871
0.00220592
0.00199482
0.00178583
0.00154603
0.0012558
0.000956871
0.000685511
0.000476884
0.000349981
0.000271665
0.000225128
0.00020061
0.000191816
0.000209579
0.000272851
0.000360046
0.000438497
0.000485505
0.00049347
0.000481019
0.000445854
0.000396964
0.000320614
0.000235619
0.000175295
0.000141457
0.000125027
0.000118948
0.000118081
0.000120731
0.00013385
0.000149707
0.000158122
0.000160604
0.000160283
0.000156044
0.000140122
0.000123062
0.000111949
0.000104354
9.78349e-05
9.08877e-05
8.32615e-05
7.5795e-05
6.96949e-05
6.55348e-05
6.28253e-05
6.0515e-05
5.78538e-05
5.48449e-05
5.20185e-05
4.98191e-05
4.81422e-05
4.63868e-05
4.38861e-05
4.03042e-05
3.57482e-05
3.06211e-05
2.54044e-05
2.04982e-05
1.61619e-05
1.25182e-05
9.58646e-06
7.30865e-06
5.56915e-06
4.21382e-06
3.12578e-06
2.26235e-06
1.60327e-06
1.12016e-06
7.79338e-07
5.45636e-07
3.90653e-07
2.86973e-07
2.20747e-07
1.72149e-07
1.43679e-07
0.00251715
0.00399101
0.00474714
0.00511452
0.00528033
0.00546351
0.00558269
0.00567705
0.00579284
0.00588207
0.00590717
0.00590449
0.00585257
0.00580455
0.00575643
0.0057128
0.00566243
0.00561107
0.00556599
0.00552459
0.00548663
0.00546416
0.00545532
0.00546761
0.00549397
0.00552049
0.00556047
0.00560994
0.00565237
0.0057034
0.00574021
0.00575818
0.00574615
0.00568731
0.00558677
0.00542575
0.00525119
0.00505691
0.0048696
0.00476155
0.0047618
0.00483666
0.00492507
0.00496438
0.00495544
0.00490169
0.00479469
0.00464484
0.00454606
0.00451714
0.00450524
0.0044682
0.00431385
0.00399963
0.00388182
0.00397516
0.00474864
0.0100794
0.0177447
0.0190494
0.0077054
0.00271687
0.00109358
0.000667867
0.000605887
0.000701216
0.00109552
0.00132711
0.00140829
0.00143208
0.00130082
0.00119728
0.00111517
0.000991112
0.000864194
0.000797775
0.000761228
0.000746462
0.000743758
0.000808353
0.000986056
0.0012837
0.00177535
0.00246952
0.00329822
0.00414147
0.00481595
0.00513329
0.00524268
0.00514347
0.00492322
0.00452487
0.0042906
0.00402
0.00391615
0.00388468
0.00398814
0.00415883
0.00423565
0.00413408
0.00384583
0.00344678
0.00300245
0.00258629
0.00228036
0.00208511
0.00192844
0.00176426
0.00156937
0.00133248
0.00105984
0.000772619
0.000527711
0.000341709
0.00022966
0.000168857
0.000136151
0.000120688
0.000118801
0.000138921
0.000202126
0.00029137
0.000371796
0.000413479
0.000416733
0.000394801
0.000343331
0.000270914
0.000197473
0.000151002
0.000126254
0.000115312
0.000112103
0.000112399
0.000117314
0.000131806
0.000142497
0.000146858
0.000147332
0.000145615
0.000135806
0.000117767
0.000105966
9.89234e-05
9.37308e-05
8.83722e-05
8.21672e-05
7.55054e-05
6.93398e-05
6.46454e-05
6.16866e-05
5.97243e-05
5.76488e-05
5.49217e-05
5.1817e-05
4.89774e-05
4.6827e-05
4.5296e-05
4.37791e-05
4.16341e-05
3.85438e-05
3.45798e-05
3.00652e-05
2.53944e-05
2.09043e-05
1.6829e-05
1.32978e-05
1.03537e-05
7.96049e-06
6.02269e-06
4.44247e-06
3.17732e-06
2.20282e-06
1.48692e-06
9.80922e-07
6.39854e-07
4.15146e-07
2.77178e-07
1.88782e-07
1.36892e-07
0.00284677
0.00437468
0.00501193
0.00524893
0.00540427
0.00547513
0.00551297
0.00553963
0.00556113
0.00557002
0.00557254
0.00556811
0.0055583
0.00551585
0.00544299
0.00534801
0.00525652
0.0051621
0.00505975
0.0049553
0.00484297
0.00471954
0.00465057
0.00462113
0.0046142
0.00466923
0.0047745
0.00491412
0.00507353
0.00523128
0.00539898
0.00555347
0.00568728
0.0057654
0.00580228
0.00579465
0.00564313
0.00534197
0.00487718
0.00438387
0.0040695
0.00386365
0.00378173
0.00374273
0.00373967
0.00376083
0.00381668
0.00387275
0.00389883
0.00389781
0.00383643
0.00371917
0.00367415
0.00371375
0.00400217
0.00509165
0.00896915
0.0146175
0.0170245
0.0101453
0.00334022
0.00128238
0.000745973
0.000667017
0.000745262
0.00122823
0.00158272
0.00167341
0.00167649
0.00149021
0.00127432
0.0011603
0.000994593
0.000871764
0.000828956
0.000813828
0.00082295
0.000931808
0.00119289
0.00174571
0.00274249
0.00432367
0.00663927
0.00956658
0.0126152
0.0148686
0.0158936
0.016215
0.0155549
0.0145733
0.01373
0.011905
0.010626
0.00923531
0.00823626
0.0073896
0.00665624
0.00597758
0.00534913
0.00478511
0.00426943
0.00374686
0.00318767
0.00266093
0.00225784
0.00199989
0.00187918
0.00177601
0.00164702
0.00147903
0.00128497
0.00108727
0.000890539
0.000694777
0.000492887
0.000318395
0.000192693
0.000126821
9.49162e-05
7.99972e-05
7.50937e-05
8.06496e-05
0.000110705
0.000189416
0.000283284
0.000343033
0.000353818
0.000337095
0.000282017
0.000211918
0.000157641
0.000127253
0.000112507
0.000107015
0.000106216
0.000107614
0.000115269
0.000125809
0.000131203
0.000132516
0.000131948
0.000127573
0.000112799
9.95777e-05
9.23658e-05
8.84053e-05
8.47503e-05
7.98928e-05
7.4115e-05
6.83236e-05
6.34579e-05
6.01099e-05
5.81567e-05
5.66153e-05
5.44665e-05
5.1588e-05
4.85437e-05
4.58528e-05
4.38095e-05
4.23746e-05
4.10636e-05
3.9279e-05
3.66831e-05
3.32917e-05
2.93331e-05
2.51116e-05
2.0917e-05
1.69852e-05
1.34771e-05
1.04672e-05
7.94365e-06
5.85619e-06
4.17282e-06
2.8717e-06
1.91056e-06
1.23407e-06
7.74749e-07
4.77967e-07
2.9309e-07
1.80265e-07
0.00309895
0.00467352
0.00516943
0.0053427
0.00541598
0.00544882
0.00546119
0.00546497
0.00544851
0.00541349
0.00535646
0.0052708
0.00514294
0.00494547
0.004681
0.00430407
0.00382679
0.00344966
0.0031424
0.0028401
0.00261518
0.00247838
0.0023693
0.00228744
0.00223249
0.00220701
0.00220316
0.00226318
0.00242609
0.00271194
0.00310702
0.00359282
0.00418326
0.0048221
0.00544206
0.0058496
0.00614937
0.00630083
0.00627329
0.0059737
0.00528717
0.00444495
0.0040896
0.00388767
0.00378717
0.00373063
0.00366071
0.00361091
0.00353806
0.00341108
0.00339523
0.00348217
0.00389423
0.0054744
0.00792767
0.0102827
0.0131697
0.0147323
0.0133612
0.00448804
0.00160748
0.000846332
0.000706825
0.000749643
0.00109601
0.0016069
0.00181345
0.0018602
0.00179446
0.0014854
0.00119402
0.00106474
0.000931911
0.000880996
0.000870751
0.000942721
0.00116276
0.00171315
0.00281953
0.00489038
0.00838533
0.0137219
0.0208847
0.0288036
0.0334694
0.0355826
0.0361564
0.034225
0.0297359
0.025096
0.020126
0.0162929
0.0135768
0.0115269
0.00996057
0.00868084
0.00754076
0.00648382
0.00558869
0.00488053
0.00429896
0.00375263
0.00316194
0.00248499
0.00175956
0.00133798
0.00125383
0.00129119
0.00135716
0.00136906
0.00127219
0.00111311
0.000950997
0.000799694
0.000659585
0.000526283
0.000382659
0.000237989
0.000141092
9.00733e-05
6.61608e-05
5.55882e-05
5.25516e-05
5.60915e-05
7.68658e-05
0.000148676
0.000246618
0.00029646
0.000301113
0.000277986
0.000214965
0.000159148
0.000126297
0.000109516
0.000102457
0.00010067
0.000100901
0.000103509
0.000111172
0.000116797
0.00011892
0.000118897
0.000116843
0.000107426
9.4377e-05
8.68903e-05
8.31986e-05
8.05843e-05
7.70475e-05
7.21104e-05
6.67437e-05
6.19669e-05
5.84606e-05
5.63261e-05
5.50107e-05
5.34946e-05
5.11762e-05
4.82706e-05
4.53376e-05
4.27636e-05
4.07823e-05
3.94574e-05
3.84378e-05
3.71025e-05
3.49841e-05
3.20043e-05
2.83388e-05
2.42779e-05
2.01413e-05
1.62119e-05
1.2686e-05
9.64942e-06
7.10922e-06
5.05515e-06
3.46504e-06
2.29175e-06
1.46559e-06
9.056e-07
5.4827e-07
3.13042e-07
0.00353927
0.00495018
0.00524532
0.00534694
0.00538692
0.00539417
0.00537342
0.00531688
0.00521676
0.0050543
0.00478763
0.00433717
0.00368784
0.00319451
0.00270576
0.00241764
0.00225021
0.00212436
0.00201601
0.00193978
0.00190222
0.00187933
0.00183888
0.00178698
0.00170599
0.00160971
0.00148302
0.00135136
0.00124651
0.00115662
0.00110368
0.00112591
0.0012655
0.00155044
0.00209079
0.00303989
0.00427223
0.00556703
0.00627921
0.00657539
0.00663497
0.00640723
0.00559127
0.00508462
0.00484469
0.00475737
0.00471306
0.00470793
0.00476156
0.00493492
0.00549602
0.00791982
0.0109461
0.0125138
0.0126384
0.0128856
0.0134477
0.0132456
0.00613457
0.00210278
0.000968687
0.00072818
0.000739594
0.00105145
0.00192058
0.00225303
0.00230681
0.00221256
0.00189932
0.00149236
0.00119097
0.00105331
0.000957777
0.000940888
0.00103488
0.00135425
0.0021033
0.00371548
0.00688586
0.0127904
0.0230189
0.0386473
0.0495421
0.0550728
0.0575392
0.0580131
0.0539272
0.0470214
0.0387048
0.029934
0.0222382
0.0170726
0.0138059
0.0114895
0.00982765
0.00857778
0.00748046
0.00639572
0.00532558
0.00437161
0.00365841
0.00312421
0.00252973
0.00172826
0.0011717
0.000936793
0.000834768
0.000810334
0.000826948
0.000878817
0.0009275
0.000929562
0.000880773
0.000789424
0.000676313
0.000565593
0.000468269
0.000367073
0.000249496
0.000151666
9.17512e-05
6.06318e-05
4.68604e-05
4.1641e-05
4.13403e-05
4.67968e-05
7.46342e-05
0.000165821
0.000242514
0.000263845
0.000256782
0.000213221
0.000156559
0.000123255
0.000105954
9.8205e-05
9.5745e-05
9.55783e-05
9.64885e-05
0.000100825
0.000106337
0.000108889
0.000109187
0.000107965
0.000101623
8.97222e-05
8.2263e-05
7.87468e-05
7.66293e-05
7.38953e-05
6.97325e-05
6.47775e-05
6.02264e-05
5.67557e-05
5.4347e-05
5.29862e-05
5.20611e-05
5.04374e-05
4.77817e-05
4.47199e-05
4.19753e-05
3.97239e-05
3.793e-05
3.67329e-05
3.6018e-05
3.50957e-05
3.32186e-05
3.02887e-05
2.65598e-05
2.24068e-05
1.8225e-05
1.43304e-05
1.0908e-05
8.02314e-06
5.68987e-06
3.88556e-06
2.56154e-06
1.62313e-06
1.00764e-06
5.80823e-07
0.00361289
0.00496549
0.00524114
0.00531403
0.00532398
0.00528589
0.00517362
0.00495568
0.00457007
0.003904
0.00333225
0.00280695
0.00255729
0.00240148
0.00233478
0.00230332
0.002291
0.00229289
0.00239276
0.00253151
0.0026632
0.00275894
0.00281035
0.00282875
0.00277979
0.00266428
0.0024373
0.00208851
0.00165891
0.00125836
0.00100338
0.000826069
0.000737599
0.000697761
0.000711279
0.00083887
0.00115982
0.00192139
0.00374442