/*--------------------------------*- C++ -*----------------------------------*\
  =========                 |
  \\      /  F ield         | OpenFOAM: The Open Source CFD Toolbox
   \\    /   O peration     | Website:  https://openfoam.org
    \\  /    A nd           | Version:  7
     \\/     M anipulation  |
\*---------------------------------------------------------------------------*/
FoamFile
{
    version     2.0;
    format      ascii;
    class       volScalarField;
    location    "0.08";
    object      s;
}
// * * * * * * * * * * * * * * * * * * * * * * * * * * * * * * * * * * * * * //

dimensions      [0 0 0 0 0 0 0];

internalField   nonuniform List<scalar> 
12225
(
1
1
1
1
1
1
1
1
1
1
1
1
1
1
1
1
1
1
1
1
1
1
1
1
1
1
1
1
1
1
1
1
1
1
1
1
1
1
1
1
1
1
1
1
1
1
1
1
1
1
1
1
1
1
1
1
1
1
1
1
1
1
1
1
1
1
1
1
1
1
1
1
1
1
1
1
1
1
1
1
1
1
1
1
1
1
1
1
1
1
1
1
1
1
1
1
1
1
1
1
1
1
1
1
1
1
1
1
1
1
1
1
1
1
1
1
1
1
1
1
1
1
1
1
1
1
1
1
1
1
1
1
1
1
1
1
1
1
1
1
1
1
1
1
1
1
1
1
1
1
1
1
1
1
1
1
1
1
1
1
1
1
1
1
1
1
1
1
1
1
1
1
1
1
1
1
1
1
1
1
1
1
1
1
1
1
1
1
1
1
1
1
1
1
1
1
1
1
1
1
1
1
1
1
1
1
1
1
1
1
1
1
1
1
1
1
1
1
1
1
1
1
1
1
1
1
1
1
1
1
1
1
1
1
1
1
1
1
1
1
1
1
1
1
1
1
1
1
1
1
1
1
1
1
1
1
1
1
1
1
1
1
1
1
1
1
1
1
1
1
1
1
1
1
1
1
1
1
1
1
1
1
1
1
1
1
1
1
1
1
1
1
1
1
1
1
1
1
1
1
1
1
1
1
1
1
1
1
1
1
1
1
1
1
1
1
1
1
1
1
1
1
1
1
1
1
1
1
1
1
1
1
1
1
1
1
1
1
1
1
1
1
1
1
1
1
1
1
1
1
1
1
1
1
1
1
1
1
1
1
1
1
1
1
1
1
1
1
1
1
1
1
1
1
1
1
1
1
1
1
1
1
1
1
1
1
1
1
1
1
1
1
1
1
1
1
1
1
1
1
1
1
1
1
1
1
1
1
1
1
1
1
1
1
1
1
1
1
1
1
1
1
1
1
1
1
1
1
1
1
1
1
1
1
1
1
1
1
1
1
1
1
1
1
1
1
1
1
1
1
1
1
1
1
1
1
1
1
1
1
1
1
1
1
1
1
1
1
1
1
1
1
1
1
1
1
1
1
1
1
1
1
1
1
1
1
1
1
1
1
1
1
1
1
1
1
1
1
1
1
1
1
1
1
1
1
1
1
1
1
1
1
1
1
1
1
1
1
1
1
1
1
1
1
1
1
1
1
1
1
1
1
1
1
1
1
1
1
1
1
0.15486
0.151306
0.147775
0.148688
0.153179
0.168714
0.195754
0.227364
0.270801
0.296048
0.319903
0.33766
0.356772
0.372639
0.385304
0.394875
0.401601
0.406904
0.41058
0.413617
0.416189
0.417951
0.419566
0.420888
0.421854
0.42285
0.423741
0.424298
0.42454
0.424881
0.425987
0.428371
0.429796
0.431006
0.433172
0.435134
0.438015
0.446046
0.484739
0.451613
0.148008
0.0316937
0.0299704
0.037242
0.0474049
0.0600233
0.0752288
0.0896746
0.100951
0.110682
0.12012
0.127483
0.134601
0.137984
0.13199
0.111701
0.0983108
0.104979
0.13186
0.15674
0.169213
0.17259
0.180521
0.195788
0.229461
0.368769
0.724303
0.857894
0.870221
0.871428
0.872631
0.873548
0.874444
0.874949
0.875728
0.876775
0.877625
0.8786
0.879559
0.880522
0.881408
0.882535
0.883752
0.884585
0.885618
0.886652
0.887565
0.88845
0.889098
0.889589
0.889907
0.890318
0.890649
0.890903
0.890997
0.891105
0.891211
0.891281
0.89138
0.891433
0.891519
0.891567
0.891632
0.891708
0.891552
0.891189
0.890756
0.889886
0.888777
0.88725
0.885338
0.883059
0.880325
0.877162
0.873611
0.869628
0.865629
0.861784
0.858166
0.854729
0.851007
0.846667
0.842359
0.837237
0.82823
0.814962
0.801294
0.786529
0.763156
0.728657
0.692528
0.656923
0.601268
0.513295
0.40833
0.30279
0.208648
0.133234
0.0786445
0.0428334
0.0215086
0.00996611
0.00427195
0.00169609
0.000617275
0.000198625
6.0905e-05
3.09206e-05
1.57936e-05
7.83484e-06
3.76243e-06
1.75643e-06
8.00774e-07
3.5812e-07
1.57797e-07
6.87988e-08
2.98008e-08
1.28705e-08
5.55852e-09
2.40589e-09
1.04502e-09
4.55747e-10
1.99502e-10
8.75765e-11
3.84965e-11
1.69152e-11
7.41489e-12
3.23613e-12
1.40333e-12
6.03466e-13
2.56808e-13
1.07925e-13
4.46747e-14
1.81645e-14
7.22492e-15
2.79935e-15
1.04923e-15
3.77886e-16
1.29249e-16
-1.97671e-16
0.151284
0.157221
0.156605
0.149588
0.102664
0.110289
0.142264
0.206504
0.28937
0.363306
0.41297
0.445829
0.461092
0.468056
0.469267
0.468716
0.46732
0.465474
0.462558
0.459419
0.456751
0.453948
0.450433
0.44711
0.445031
0.442878
0.440585
0.440003
0.440244
0.44109
0.443119
0.446631
0.449635
0.451158
0.452979
0.454578
0.455283
0.456741
0.46944
0.472181
0.456346
0.442594
0.404931
0.223453
0.07447
0.0422115
0.0519808
0.0667463
0.0799071
0.097436
0.116802
0.140747
0.167184
0.196442
0.240362
0.276548
0.2745
0.251422
0.252517
0.266933
0.30117
0.302199
0.289804
0.285232
0.45458
0.772294
0.851767
0.874024
0.878934
0.884173
0.888243
0.892046
0.895345
0.898422
0.901395
0.903942
0.906558
0.909217
0.911149
0.91276
0.914128
0.914756
0.915017
0.915084
0.914749
0.913402
0.911427
0.909138
0.906996
0.904679
0.902767
0.900787
0.898817
0.89665
0.894524
0.892691
0.891109
0.889694
0.888826
0.88856
0.889245
0.890794
0.893228
0.897163
0.901226
0.90625
0.911503
0.916133
0.920397
0.924507
0.928263
0.931448
0.933908
0.935536
0.936417
0.936708
0.935592
0.932871
0.928571
0.922827
0.916632
0.911781
0.9079
0.905584
0.905274
0.907286
0.913591
0.922276
0.932758
0.94481
0.956275
0.964894
0.972537
0.97743
0.977307
0.973694
0.964192
0.943422
0.909104
0.866335
0.814084
0.741547
0.639135
0.51399
0.389957
0.28794
0.20927
0.148968
0.103461
0.0699247
0.0459211
0.0292836
0.0181312
0.0109035
0.00637292
0.00362377
0.00200707
0.00108434
0.00057235
0.000295652
0.000149714
7.44435e-05
3.64021e-05
1.75282e-05
8.31935e-06
3.89512e-06
1.79954e-06
8.2058e-07
3.69148e-07
1.63843e-07
7.16431e-08
3.0874e-08
1.30667e-08
5.44029e-09
2.20919e-09
8.80639e-10
3.37275e-10
1.26876e-10
4.51755e-11
-2.54577e-10
0.106533
0.128645
0.132877
0.135334
0.157171
0.220204
0.328208
0.426723
0.47349
0.494578
0.495478
0.493535
0.489138
0.480795
0.473086
0.460627
0.44641
0.430398
0.412979
0.396474
0.379854
0.363291
0.348389
0.33412
0.320524
0.310418
0.301481
0.293358
0.291144
0.291911
0.294906
0.303529
0.318089
0.336307
0.366185
0.390614
0.417514
0.432518
0.446408
0.46139
0.465853
0.474566
0.47459
0.463791
0.42226
0.326235
0.17778
0.109204
0.0845664
0.0737808
0.0748004
0.102187
0.162086
0.192496
0.239545
0.323659
0.368285
0.385141
0.406807
0.42278
0.435186
0.438707
0.481273
0.648676
0.802667
0.863207
0.87984
0.885794
0.889184
0.892416
0.895433
0.897305
0.898763
0.900371
0.901381
0.901924
0.902059
0.901167
0.898399
0.894103
0.887678
0.879157
0.868161
0.855044
0.840893
0.826799
0.814294
0.80386
0.79492
0.787869
0.781578
0.777009
0.773698
0.771117
0.770108
0.769929
0.770135
0.770854
0.772218
0.774426
0.777325
0.780356
0.783695
0.787968
0.792275
0.798508
0.806366
0.816797
0.829727
0.844517
0.861209
0.87934
0.898588
0.916113
0.930122
0.939636
0.947164
0.952539
0.955551
0.956479
0.955068
0.948113
0.937133
0.923595
0.908965
0.896294
0.888287
0.884118
0.882974
0.883745
0.888927
0.904139
0.923959
0.942959
0.958185
0.970167
0.980467
0.987373
0.989608
0.989545
0.988304
0.984115
0.971338
0.955965
0.943966
0.926815
0.892158
0.809416
0.673177
0.527719
0.397196
0.293075
0.212387
0.150436
0.103855
0.0697997
0.0456715
0.0291183
0.018114
0.0110142
0.00655907
0.0038339
0.0022047
0.00125042
0.000701212
0.000389857
0.000215355
0.000118427
6.48233e-05
3.53061e-05
1.90509e-05
1.01675e-05
5.32304e-06
2.73803e-06
1.36561e-06
6.67318e-07
3.12067e-07
1.42269e-07
6.37568e-08
2.01496e-08
0.0101792
0.0388011
0.114459
0.244234
0.395782
0.480906
0.515979
0.521335
0.518698
0.511288
0.498081
0.476209
0.451111
0.421249
0.388424
0.363082
0.341431
0.321624
0.303383
0.286506
0.27113
0.25651
0.243169
0.231299
0.220377
0.209866
0.202121
0.194637
0.187212
0.183234
0.182799
0.183634
0.187264
0.196196
0.214138
0.239255
0.277555
0.319275
0.361103
0.400386
0.431947
0.456454
0.469245
0.482417
0.48299
0.475902
0.452413
0.396581
0.322852
0.251759
0.23779
0.24553
0.270794
0.322358
0.398666
0.470192
0.504322
0.510566
0.504418
0.508947
0.543378
0.660681
0.740736
0.824524
0.866305
0.88042
0.885037
0.887255
0.889354
0.891083
0.891739
0.890851
0.887903
0.88357
0.876135
0.86501
0.84973
0.828439
0.804899
0.784202
0.76198
0.744616
0.729086
0.720427
0.716758
0.71552
0.715316
0.716332
0.718105
0.720336
0.722946
0.726063
0.729625
0.733452
0.737667
0.742153
0.747413
0.753341
0.759261
0.764598
0.768872
0.772085
0.774039
0.774596
0.773934
0.772282
0.770207
0.768851
0.769368
0.770811
0.773943
0.779211
0.787306
0.801124
0.821512
0.848384
0.87805
0.908594
0.935067
0.953384
0.964794
0.972031
0.975502
0.976268
0.97424
0.963974
0.942778
0.91902
0.898018
0.885151
0.879147
0.877636
0.878335
0.883642
0.901397
0.924275
0.943859
0.959465
0.97176
0.981259
0.988365
0.992932
0.994802
0.995065
0.994895
0.994055
0.991258
0.98157
0.967512
0.956006
0.938321
0.898195
0.78547
0.60869
0.450034
0.323701
0.227716
0.156341
0.104701
0.0684581
0.0437879
0.0274746
0.0169634
0.0103408
0.0062424
0.00374177
0.00222997
0.00132224
0.000778595
0.000454463
0.000261529
0.000148079
8.18883e-05
4.4309e-05
2.32198e-05
1.18863e-05
5.84316e-06
2.79546e-06
1.30355e-06
5.04416e-07
0.0375083
0.250023
0.466881
0.530392
0.549813
0.54721
0.540106
0.5265
0.505515
0.472624
0.444059
0.416654
0.389952
0.364548
0.341346
0.320778
0.302704
0.287269
0.273016
0.258167
0.244589
0.232338
0.221718
0.2117
0.203019
0.194985
0.187795
0.18018
0.174045
0.169233
0.166193
0.164101
0.163115
0.163554
0.167836
0.175879
0.191942
0.229221
0.255777
0.280679
0.325994
0.373557
0.423145
0.460697
0.475756
0.491055
0.498471
0.496589
0.489954
0.472525
0.459313
0.460402
0.467339
0.4846
0.523369
0.55262
0.56308
0.556208
0.535124
0.573622
0.725502
0.788426
0.838897
0.867435
0.878819
0.88248
0.884037
0.884494
0.882669
0.877569
0.86789
0.851629
0.827095
0.800731
0.770689
0.745627
0.724034
0.710066
0.703327
0.698967
0.697156
0.696803
0.699184
0.705295
0.71232
0.723541
0.737737
0.751383
0.765196
0.777488
0.788039
0.798359
0.808148
0.816854
0.825508
0.832824
0.838489
0.841541
0.842085
0.841247
0.839501
0.838284
0.837867
0.837751
0.838479
0.840679
0.841698
0.839589
0.832436
0.821376
0.80669
0.790532
0.779636
0.776276
0.777249
0.782966
0.793481
0.808568
0.832035
0.864716
0.901837
0.936297
0.961164
0.975157
0.982367
0.985155
0.985394
0.982334
0.968563
0.939995
0.912105
0.892673
0.883113
0.880489
0.881044
0.886815
0.907523
0.932029
0.950695
0.964801
0.975726
0.983945
0.989764
0.993727
0.996411
0.997811
0.998135
0.998035
0.997588
0.996758
0.995214
0.991902
0.984623
0.969606
0.936735
0.844154
0.654877
0.479589
0.340064
0.235645
0.159985
0.106648
0.0699977
0.0453743
0.029123
0.0185445
0.0117201
0.00734957
0.00456146
0.00279534
0.00168306
0.000993159
0.000571123
0.000320283
0.000174017
9.20125e-05
4.69104e-05
2.31482e-05
1.1176e-05
4.65373e-06
0.443914
0.545872
0.573449
0.570964
0.561742
0.546973
0.527475
0.5058
0.48163
0.454378
0.425537
0.396763
0.368631
0.342994
0.321501
0.304409
0.291741
0.28334
0.279809
0.279006
0.278941
0.278552
0.277555
0.276126
0.27436
0.271591
0.267759
0.261719
0.255092
0.246835
0.23994
0.23197
0.225844
0.220018
0.212821
0.207674
0.206327
0.211713
0.224285
0.239765
0.258518
0.284531
0.328515
0.378769
0.425796
0.466877
0.491604
0.50668
0.518421
0.525934
0.532846
0.538097
0.543366
0.555776
0.577399
0.588983
0.589232
0.565417
0.560667
0.70474
0.809337
0.845536
0.867316
0.876179
0.879088
0.880154
0.877143
0.868774
0.850201
0.817967
0.781826
0.743224
0.721009
0.705066
0.697096
0.693967
0.693589
0.697982
0.702385
0.709477
0.723958
0.746869
0.776532
0.810017
0.833864
0.852348
0.863614
0.869905
0.873307
0.876151
0.878053
0.879144
0.87927
0.878659
0.876746
0.87349
0.868948
0.862883
0.855105
0.84637
0.838054
0.832407
0.830089
0.829627
0.834086
0.843824
0.85581
0.869842
0.883528
0.894723
0.902833
0.905557
0.896132
0.874052
0.846815
0.821162
0.803995
0.800879
0.805486
0.818354
0.835917
0.859453
0.891937
0.929088
0.959903
0.977883
0.986622
0.989891
0.990374
0.988629
0.978916
0.95083
0.920754
0.900581
0.891144
0.889029
0.890262
0.899452
0.925112
0.94774
0.963704
0.97482
0.982871
0.988926
0.993213
0.995974
0.997647
0.998681
0.999217
0.999377
0.999371
0.99926
0.998861
0.997778
0.995012
0.98791
0.970097
0.921493
0.775862
0.580216
0.419104
0.295778
0.205318
0.140864
0.0957003
0.0644278
0.0429564
0.0283282
0.0184265
0.0117911
0.00739133
0.00452822
0.00269935
0.00156513
0.000879361
0.00047943
0.000252645
0.000128395
6.40017e-05
2.80516e-05
0.608115
0.598229
0.586732
0.57359
0.556802
0.542156
0.525917
0.510082
0.485443
0.455979
0.436619
0.425952
0.4187
0.416621
0.417168
0.424799
0.43733
0.45031
0.462533
0.474124
0.485575
0.49551
0.503471
0.508118
0.510195
0.508593
0.504241
0.497306
0.488315
0.477555
0.464367
0.448574
0.433442
0.416381
0.40108
0.384148
0.368399
0.351931
0.336781
0.325029
0.320134
0.324549
0.345679
0.377956
0.414004
0.450591
0.48293
0.508847
0.529947
0.544571
0.552346
0.56155
0.578744
0.597413
0.608425
0.610392
0.599471
0.564948
0.624173
0.796994
0.846965
0.865657
0.87361
0.875761
0.875911
0.869537
0.85091
0.811583
0.756069
0.719595
0.697404
0.685638
0.682058
0.682702
0.688293
0.695823
0.7065
0.727612
0.758526
0.80933
0.844722
0.871193
0.88218
0.886779
0.888196
0.887922
0.882814
0.878603
0.874934
0.871441
0.868531
0.866134
0.863206
0.858357
0.85031
0.838994
0.823318
0.802793
0.775762
0.743838
0.717564
0.701632
0.694873
0.693116
0.698044
0.715097
0.739648
0.774626
0.818353
0.863705
0.897821
0.923168
0.939064
0.947823
0.951582
0.947134
0.929305
0.898466
0.867649
0.845259
0.839351
0.845268
0.861186
0.880751
0.907163
0.940076
0.968031
0.983661
0.990775
0.993094
0.993237
0.991295
0.981377
0.953969
0.928132
0.912651
0.90666
0.90614
0.909229
0.925199
0.949074
0.965848
0.97708
0.984605
0.989774
0.993446
0.99605
0.997741
0.998748
0.999323
0.99964
0.999763
0.999775
0.999741
0.999576
0.999031
0.997416
0.992732
0.979356
0.940683
0.818074
0.626856
0.465162
0.338432
0.242689
0.172
0.120492
0.083287
0.0566177
0.0377367
0.0245784
0.0156049
0.00963138
0.0057707
0.00335018
0.00188392
0.0010253
0.000537225
0.000276357
0.000126753
0.609117
0.596361
0.590796
0.590118
0.595558
0.594776
0.583201
0.564783
0.555981
0.550314
0.548473
0.552939
0.570145
0.589404
0.605075
0.621025
0.642452
0.666832
0.687717
0.706099
0.722913
0.735201
0.744401
0.749024
0.750851
0.749151
0.74496
0.73637
0.725409
0.710962
0.692994
0.674009
0.653375
0.632159
0.611761
0.592036
0.57514
0.560614
0.54869
0.535465
0.520779
0.506268
0.495717
0.491282
0.492962
0.502971
0.519037
0.538058
0.556965
0.574581
0.592183
0.608177
0.617642
0.620051
0.618917
0.608045
0.576108
0.577007
0.736992
0.838272
0.862641
0.870827
0.873085
0.872445
0.863684
0.837156
0.773791
0.71673
0.687942
0.673856
0.668801
0.672306
0.678743
0.688236
0.705406
0.736122
0.791221
0.834896
0.863812
0.875523
0.879809
0.880316
0.873387
0.858745
0.835268
0.804884
0.777716
0.758787
0.742716
0.728796
0.722321
0.718993
0.717504
0.713981
0.705004
0.691198
0.670806
0.645753
0.6194
0.60688
0.604611
0.606558
0.610717
0.616077
0.622025
0.628446
0.635349
0.645227
0.663313
0.698373
0.760032
0.835685
0.899441
0.936801
0.957813
0.969318
0.975007
0.976825
0.973194
0.958743
0.931815
0.903578
0.884752
0.881761
0.890337
0.90916
0.932092
0.959444
0.979882
0.990197
0.994288
0.995257
0.994945
0.991992
0.97945
0.95643
0.939416
0.930691
0.928439
0.929135
0.935497
0.954464
0.970464
0.980789
0.987389
0.991709
0.994623
0.99662
0.997984
0.998874
0.9994
0.99969
0.99984
0.999894
0.999898
0.999874
0.999752
0.999323
0.997958
0.993783
0.981379
0.944805
0.829066
0.649535
0.495443
0.371037
0.273159
0.197549
0.140049
0.0970637
0.0655818
0.0431041
0.0275063
0.0170235
0.010204
0.00591876
0.00332475
0.00179725
0.000953948
0.000456595
0.610189
0.613758
0.615116
0.619066
0.621347
0.62578
0.632031
0.631514
0.631096
0.639324
0.653997
0.664583
0.685133
0.714137
0.737614
0.763663
0.790091
0.809947
0.828282
0.844729
0.855729
0.866373
0.872212
0.87633
0.877939
0.876683
0.87114
0.862523
0.849406
0.832641
0.81107
0.785312
0.7573
0.731382
0.703904
0.677635
0.654234
0.634425
0.619364
0.610875
0.606715
0.604597
0.60408
0.604639
0.606549
0.610073
0.613848
0.618797
0.623784
0.626894
0.627782
0.626718
0.619219
0.613038
0.605532
0.586572
0.577705
0.654098
0.812573
0.85691
0.8679
0.870477
0.870398
0.861819
0.832855
0.757127
0.695194
0.669202
0.659769
0.657371
0.666798
0.67554
0.692583
0.725923
0.783521
0.832141
0.857163
0.867696
0.870699
0.869195
0.853092
0.817817
0.757172
0.669954
0.584316
0.526851
0.493211
0.479419
0.476651
0.479948
0.494609
0.507524
0.520268
0.530268
0.537653
0.542997
0.547371
0.552078
0.558243
0.566615
0.576443
0.586008
0.594869
0.603161
0.610561
0.616547
0.620823
0.623969
0.628059
0.636254
0.653668
0.691882
0.764819
0.842653
0.903835
0.946017
0.969922
0.981454
0.986996
0.98931
0.989164
0.984968
0.971436
0.946968
0.924814
0.916371
0.920067
0.936574
0.957807
0.977818
0.989732
0.994921
0.996515
0.996613
0.99571
0.99119
0.977954
0.964155
0.955136
0.951353
0.951013
0.952838
0.96218
0.975988
0.984996
0.990509
0.993904
0.996075
0.997513
0.998475
0.999109
0.999513
0.999748
0.999874
0.999933
0.999948
0.999945
0.999915
0.999787
0.999346
0.997951
0.993715
0.981282
0.945009
0.832453
0.663359
0.514721
0.390216
0.288706
0.208075
0.145799
0.0991574
0.06538
0.0417538
0.0258261
0.0154505
0.00895399
0.00499411
0.00273465
0.00136314
0.618607
0.621508
0.621129
0.630794
0.636888
0.643963
0.660308
0.672848
0.691886
0.720616
0.74488
0.772222
0.803369
0.834054
0.855278
0.874129
0.892239
0.900531
0.908968
0.915714
0.918961
0.92257
0.925555
0.928328
0.932602
0.935697
0.939082
0.94228
0.943945
0.943743
0.938294
0.927173
0.906391
0.871969
0.82749
0.774229
0.720381
0.677631
0.643616
0.622171
0.610523
0.603888
0.598554
0.596198
0.596774
0.59843
0.602053
0.605255
0.60561
0.601507
0.595637
0.594149
0.595257
0.599898
0.598071
0.588954
0.620792
0.774964
0.846163
0.864189
0.867875
0.868475
0.860355
0.831964
0.769341
0.696897
0.664484
0.652497
0.649131
0.658617
0.674876
0.698226
0.750344
0.813386
0.843998
0.858788
0.863135
0.86349
0.849754
0.808994
0.718024
0.563276
0.437629
0.374904
0.345832
0.335089
0.3339
0.349393
0.374922
0.401271
0.431549
0.456517
0.476084
0.491037
0.502466
0.511926
0.52117
0.531787
0.544325
0.55789
0.570957
0.582438
0.592423
0.601416
0.609251
0.615402
0.619601
0.622266
0.624988
0.63005
0.640514
0.662949
0.715007
0.780099
0.838323
0.887285
0.928913
0.960704
0.980384
0.989525
0.993485
0.995064
0.995229
0.993652
0.986835
0.968002
0.948984
0.942635
0.946128
0.961376
0.978488
0.990088
0.995522
0.997394
0.997675
0.997346
0.995497
0.989558
0.981143
0.974088
0.96992
0.968719
0.969151
0.972457
0.9816
0.988824
0.993209
0.995807
0.997377
0.998361
0.998993
0.999401
0.999661
0.999821
0.99991
0.999955
0.999971
0.999972
0.999964
0.999923
0.999769
0.999273
0.997763
0.993308
0.980432
0.942676
0.826857
0.659326
0.509802
0.382394
0.277964
0.195626
0.133244
0.0877945
0.0559843
0.0345249
0.0206346
0.0118745
0.0067053
0.00347396
0.620972
0.630121
0.643813
0.663248
0.669968
0.684292
0.718448
0.749917
0.773499
0.811662
0.84106
0.862416
0.887065
0.898972
0.908061
0.913422
0.917694
0.919285
0.919971
0.920137
0.919791
0.919245
0.919434
0.9213
0.925306
0.931003
0.938264
0.946178
0.954337
0.961941
0.967474
0.971211
0.973518
0.970801
0.960827
0.937977
0.89243
0.816694
0.728775
0.665626
0.626177
0.604778
0.588487
0.575864
0.570022
0.564848
0.562075
0.561678
0.562546
0.564689
0.575341
0.610576
0.617394
0.611238
0.606817
0.630877
0.750264
0.831581
0.858879
0.865432
0.866873
0.86357
0.845434
0.79541
0.70279
0.655619
0.642644
0.641097
0.651357
0.677758
0.716593
0.761113
0.814616
0.845349
0.855598
0.858283
0.85547
0.832742
0.765141
0.613681
0.425909
0.33372
0.284273
0.262047
0.254186
0.253617
0.27296
0.299406
0.334448
0.376418
0.417915
0.450919
0.474432
0.492111
0.50493
0.514001
0.522145
0.532024
0.5448
0.559953
0.574643
0.586627
0.596166
0.60447
0.611693
0.617142
0.620768
0.623211
0.626128
0.631462
0.642222
0.664752
0.712263
0.772331
0.826916
0.871303
0.906019
0.934151
0.95816
0.977724
0.989556
0.994852
0.996963
0.997685
0.997636
0.996372
0.990571
0.974435
0.963075
0.961732
0.967382
0.981257
0.991254
0.996242
0.99809
0.99845
0.998312
0.997454
0.994829
0.990354
0.985668
0.982192
0.980653
0.980608
0.981911
0.986877
0.992164
0.995393
0.997259
0.99834
0.99899
0.999391
0.99964
0.999795
0.999889
0.999943
0.999972
0.999984
0.999986
0.999983
0.999968
0.999911
0.99972
0.999136
0.997399
0.99225
0.976823
0.928665
0.7884
0.615922
0.464994
0.338909
0.238546
0.162177
0.106604
0.067728
0.0417007
0.0247368
0.0144047
0.00775307
0.62472
0.645935
0.678232
0.711427
0.727097
0.749302
0.790473
0.819215
0.842634
0.873978
0.888391
0.898335
0.904788
0.907036
0.907826
0.90788
0.902477
0.891675
0.883953
0.877978
0.873692
0.871767
0.870823
0.87032
0.870074
0.871156
0.875106
0.883933
0.899949
0.922516
0.94742
0.966252
0.977838
0.983278
0.985204
0.985101
0.97717
0.954938
0.904351
0.801802
0.709795
0.662492
0.632329
0.613358
0.606501
0.603793
0.609881
0.617096
0.639815
0.676515
0.684266
0.681387
0.663236
0.642292
0.667233
0.752057
0.821584
0.852591
0.86255
0.864862
0.86402
0.853316
0.814458
0.740569
0.667514
0.635704
0.626955
0.628154
0.651502
0.694474
0.750141
0.800548
0.834971
0.849792
0.85408
0.850548
0.825529
0.747777
0.558292
0.382166
0.284715
0.23789
0.214985
0.20503
0.202267
0.21209
0.231807
0.266709
0.313699
0.367529
0.416054
0.460211
0.497593
0.524064
0.541053
0.547852
0.550064
0.553441
0.561864
0.578562
0.595294
0.606337
0.612499
0.616875
0.620737
0.623278
0.624773
0.626372
0.628596
0.63337
0.645576
0.674742
0.724433
0.778853
0.82907
0.871075
0.904124
0.92953
0.949583
0.965844
0.979628
0.989969
0.995526
0.997833
0.998658
0.998814
0.998522
0.996604
0.988214
0.977414
0.974375
0.976069
0.984658
0.992896
0.997028
0.99865
0.999034
0.999005
0.998664
0.997587
0.995145
0.992119
0.989584
0.988255
0.988022
0.988608
0.991284
0.994798
0.99703
0.998316
0.999029
0.999428
0.999662
0.999805
0.999891
0.999942
0.99997
0.999985
0.999992
0.999993
0.999992
0.999986
0.999961
0.999878
0.999616
0.998809
0.996317
0.988442
0.962897
0.876674
0.695812
0.526381
0.383255
0.268989
0.182288
0.11929
0.0756239
0.0461906
0.0276766
0.015426
0.633016
0.669102
0.706672
0.757369
0.779807
0.804451
0.842416
0.863236
0.881216
0.895315
0.900415
0.902578
0.903336
0.901283
0.892556
0.879827
0.871726
0.867995
0.866044
0.865164
0.864871
0.864833
0.864282
0.863286
0.861106
0.858153
0.854893
0.851712
0.849676
0.848293
0.8616
0.897684
0.941469
0.971126
0.985324
0.990645
0.99227
0.989717
0.976867
0.940258
0.847578
0.763669
0.7293
0.719113
0.722918
0.725052
0.73957
0.745628
0.745863
0.740708
0.734247
0.725743
0.718738
0.725221
0.769679
0.820096
0.847477
0.858981
0.862271
0.862764
0.855432
0.829662
0.777718
0.694774
0.630834
0.617409
0.614842
0.618288
0.644962
0.692982
0.751151
0.805741
0.835613
0.846669
0.847184
0.826741
0.74798
0.574224
0.398731
0.277904
0.221049
0.193123
0.180114
0.175513
0.177478
0.188398
0.211738
0.252531
0.307003
0.371104
0.443396
0.506286
0.549407
0.571585
0.579187
0.581299
0.582187
0.584149
0.589154
0.602665
0.618221
0.629447
0.635295
0.63608
0.635574
0.634296
0.631591
0.629782
0.629754
0.63209
0.639817
0.663627
0.71518
0.77468
0.828505
0.873227
0.907762
0.932653
0.949694
0.963849
0.975486
0.984709
0.991869
0.996355
0.998416
0.999172
0.99935
0.999249
0.998357
0.993716
0.98579
0.983068
0.983605
0.988562
0.994722
0.99782
0.999066
0.999403
0.999413
0.999283
0.998843
0.997658
0.995707
0.994015
0.993081
0.992859
0.993133
0.994618
0.996785
0.998193
0.999015
0.999469
0.999711
0.99984
0.999911
0.999951
0.999974
0.999987
0.999993
0.999996
0.999997
0.999996
0.999993
0.99998
0.999936
0.999789
0.999315
0.997768
0.992622
0.975151
0.914802
0.746998
0.562979
0.408362
0.285451
0.192421
0.125559
0.0789083
0.0486124
0.0279797
0.638635
0.69827
0.743525
0.79124
0.819744
0.839995
0.870445
0.884032
0.89458
0.899195
0.900309
0.900439
0.895232
0.882094
0.874655
0.87128
0.870057
0.869783
0.87141
0.873073
0.873793
0.874096
0.874211
0.874265
0.873966
0.872782
0.869505
0.862625
0.850544
0.839091
0.834369
0.832829
0.850328
0.906101
0.960633
0.984727
0.993175
0.995324
0.994871
0.985964
0.955064
0.871176
0.810926
0.785596
0.780808
0.783437
0.781628
0.778716
0.776187
0.774531
0.772035
0.770404
0.775259
0.791508
0.822605
0.844415
0.854962
0.859338
0.86099
0.858279
0.842349
0.81278
0.76307
0.692926
0.61427
0.58301
0.583245
0.598285
0.62742
0.681278
0.742829
0.800799
0.829862
0.83744
0.830212
0.778928
0.636333
0.457586
0.310448
0.225742
0.188622
0.171758
0.164588
0.164235
0.169278
0.180557
0.205211
0.250744
0.328692
0.422743
0.509813
0.566699
0.587081
0.593036
0.59353
0.593021
0.593439
0.595637
0.601543
0.613848
0.627361
0.638338
0.645137
0.648253
0.648721
0.647561
0.642219
0.635645
0.632774
0.632663
0.635336
0.643848
0.667577
0.727812
0.797341
0.856809
0.902592
0.934623
0.954946
0.966244
0.975493
0.983567
0.989798
0.994354
0.997373
0.998905
0.99949
0.999629
0.999572
0.998994
0.995815
0.990537
0.988763
0.989053
0.992176
0.996422
0.998538
0.999386
0.999633
0.999654
0.999603
0.999393
0.998776
0.997634
0.996669
0.996151
0.996031
0.996154
0.996949
0.998202
0.999007
0.999472
0.999727
0.99986
0.999928
0.999963
0.999981
0.99999
0.999995
0.999998
0.999998
0.999998
0.999998
0.999996
0.999988
0.999958
0.999855
0.999505
0.998302
0.994119
0.979423
0.927498
0.769196
0.576739
0.416221
0.289142
0.194199
0.125519
0.0794546
0.0471358
0.648227
0.712712
0.759773
0.80629
0.842254
0.860756
0.882943
0.892202
0.897091
0.898755
0.898426
0.892607
0.88028
0.8746
0.872342
0.871801
0.872446
0.874103
0.874675
0.874847
0.874854
0.87476
0.874813
0.87523
0.875892
0.876936
0.877943
0.87823
0.876107
0.866475
0.842506
0.826536
0.823264
0.837763
0.886514
0.956907
0.984863
0.995129
0.997405
0.997232
0.989271
0.954727
0.852921
0.808943
0.797365
0.799046
0.800399
0.800243
0.801233
0.80193
0.802342
0.805006
0.813153
0.825395
0.841989
0.850377
0.855508
0.858139
0.857881
0.851949
0.835153
0.808814
0.764363
0.700216
0.619622
0.574444
0.55151
0.547013
0.571991
0.634184
0.710536
0.778366
0.808951
0.814681
0.79532
0.70192
0.552578
0.38575
0.271384
0.21208
0.184606
0.170019
0.164152
0.165083
0.170295
0.184378
0.218003
0.293563
0.394325
0.491187
0.564663
0.594759
0.603141
0.603693
0.602913
0.602207
0.603215
0.60685
0.616143
0.628288
0.638485
0.6459
0.651089
0.654432
0.656023
0.656238
0.654316
0.646747
0.641209
0.639475
0.639654
0.643121
0.656463
0.696803
0.770741
0.837728
0.890408
0.92876
0.955182
0.971093
0.979024
0.98466
0.989681
0.993697
0.996515
0.998337
0.999314
0.999699
0.99978
0.999728
0.999232
0.996666
0.993445
0.992544
0.992841
0.995077
0.997796
0.99911
0.999627
0.999781
0.9998
0.999777
0.999669
0.999314
0.998706
0.998249
0.998039
0.998008
0.998067
0.998445
0.999087
0.999504
0.999743
0.999871
0.999937
0.999969
0.999985
0.999993
0.999997
0.999998
0.999999
0.999999
0.999999
0.999999
0.999997
0.999991
0.999966
0.999879
0.999569
0.998456
0.994448
0.979988
0.92811
0.767931
0.572422
0.410186
0.283723
0.188607
0.122645
0.0748938
0.651929
0.728372
0.779789
0.822053
0.857639
0.87196
0.887551
0.893603
0.896527
0.897001
0.892903
0.882501
0.875529
0.872934
0.872199
0.872421
0.873423
0.873809
0.873444
0.872234
0.871781
0.872148
0.872801
0.873032
0.873273
0.873826
0.875768
0.878658
0.880302
0.879396
0.872533
0.843162
0.822408
0.823737
0.841042
0.902071
0.962894
0.988217
0.996969
0.998821
0.998554
0.99118
0.949735
0.850269
0.810498
0.805782
0.811947
0.817211
0.820165
0.821001
0.821744
0.825146
0.83133
0.838219
0.845917
0.85017
0.85322
0.852715
0.847174
0.834727
0.821402
0.803335
0.771989
0.726351
0.653609
0.585597
0.551494
0.530648
0.520438
0.532669
0.586138
0.675116
0.722838
0.731761
0.697679
0.599522
0.477574
0.358301
0.27545
0.220644
0.19317
0.177388
0.175957
0.179415
0.190159
0.215219
0.269916
0.369639
0.477254
0.562709
0.601879
0.614684
0.616093
0.615786
0.615963
0.617782
0.622986
0.632731
0.647976
0.657423
0.660931
0.661826
0.662949
0.665873
0.669003
0.670442
0.670226
0.666263
0.659788
0.657471
0.657668
0.659746
0.667852
0.697176
0.76931
0.837395
0.890362
0.927958
0.954087
0.972421
0.983242
0.988289
0.991345
0.994046
0.99636
0.998021
0.999059
0.999615
0.99983
0.999863
0.9998
0.99929
0.997186
0.995477
0.995139
0.995492
0.997197
0.998776
0.999509
0.999792
0.999878
0.999889
0.999878
0.999817
0.99961
0.999344
0.999183
0.99913
0.999131
0.999173
0.999363
0.999626
0.999797
0.999896
0.999949
0.999976
0.999989
0.999995
0.999998
0.999999
0.999999
1
1
1
0.999999
0.999998
0.999992
0.999969
0.999884
0.99957
0.998405
0.99409
0.978234
0.92076
0.75045
0.554975
0.395765
0.270724
0.180881
0.1136
0.651916
0.726562
0.780915
0.823037
0.860223
0.876207
0.887529
0.893129
0.895062
0.89404
0.888493
0.879192
0.873949
0.872033
0.871787
0.87247
0.87342
0.873544
0.872184
0.869454
0.869331
0.87102
0.87276
0.873454
0.873334
0.873327
0.873742
0.875496
0.879906
0.880684
0.87833
0.862994
0.83289
0.823803
0.83128
0.874982
0.944863
0.980271
0.993963
0.998596
0.999623
0.999552
0.995216
0.960561
0.851894
0.811447
0.81357
0.822887
0.830938
0.833606
0.833906
0.835671
0.838486
0.84193
0.845477
0.846983
0.844848
0.838046
0.826948
0.814193
0.804789
0.793309
0.776516
0.752108
0.71342
0.645071
0.577909
0.540215
0.518487
0.504876
0.5039
0.525996
0.550152
0.557042
0.54494
0.497155
0.425492
0.358426
0.290535
0.247
0.216797
0.202989
0.204515
0.212385
0.232238
0.278153
0.367522
0.485418
0.578677
0.619243
0.632201
0.632534
0.631438
0.631456
0.633595
0.640626
0.654289
0.668715
0.673237
0.672051
0.670604
0.670406
0.671251
0.676263
0.686987
0.69406
0.697051
0.697203
0.693734
0.691871
0.692923
0.697542
0.709883
0.741688
0.809243
0.871837
0.91918
0.948062
0.964197
0.975744
0.985314
0.991378
0.99418
0.995635
0.996892
0.998061
0.998957
0.999518
0.999805
0.999903
0.999905
0.999809
0.999177
0.997658
0.996956
0.996903
0.997343
0.998598
0.999397
0.999759
0.999896
0.999937
0.999942
0.999935
0.999895
0.99979
0.999708
0.999672
0.999667
0.999675
0.999717
0.999819
0.999897
0.999945
0.999972
0.999986
0.999993
0.999997
0.999999
0.999999
1
1
1
1
1
0.999999
0.999998
0.999992
0.999967
0.999874
0.999519
0.998168
0.993084
0.974251
0.905976
0.720757
0.530581
0.374005
0.257001
0.166026
0.651365
0.718511
0.776945
0.819568
0.857772
0.875402
0.886606
0.891991
0.893646
0.893057
0.889039
0.879978
0.874435
0.872157
0.871622
0.872032
0.873138
0.873507
0.873166
0.871619
0.871417
0.871856
0.873316
0.873963
0.873935
0.873891
0.874037
0.875228
0.879288
0.880733
0.878919
0.866366
0.836158
0.826926
0.830751
0.866954
0.939171
0.977627
0.99297
0.998046
0.999505
0.999895
0.999912
0.997577
0.962746
0.845714
0.812116
0.818193
0.829859
0.837055
0.840091
0.84198
0.842892
0.843686
0.84505
0.844719
0.841421
0.833006
0.82031
0.806912
0.796874
0.787869
0.777623
0.763454
0.743802
0.711876
0.659624