/*--------------------------------*- C++ -*----------------------------------*\
  =========                 |
  \\      /  F ield         | OpenFOAM: The Open Source CFD Toolbox
   \\    /   O peration     | Website:  https://openfoam.org
    \\  /    A nd           | Version:  7
     \\/     M anipulation  |
\*---------------------------------------------------------------------------*/
FoamFile
{
    version     2.0;
    format      ascii;
    class       surfaceScalarField;
    location    "0.07";
    object      phi;
}
// * * * * * * * * * * * * * * * * * * * * * * * * * * * * * * * * * * * * * //

dimensions      [0 3 -1 0 0 0 0];

internalField   nonuniform List<scalar> 
24170
(
1.37243e-06
2.02735e-07
1.24698e-06
1.25453e-07
1.1233e-06
1.23686e-07
1.00696e-06
1.16334e-07
8.91161e-07
1.15801e-07
7.8107e-07
1.10091e-07
6.85333e-07
9.57372e-08
6.06356e-07
7.8977e-08
5.40487e-07
6.58694e-08
4.82715e-07
5.7772e-08
4.30129e-07
5.25856e-08
3.82167e-07
4.79618e-08
3.39031e-07
4.31367e-08
3.00504e-07
3.85263e-08
2.65366e-07
3.51385e-08
2.32479e-07
3.28866e-08
1.98198e-07
3.42811e-08
3.6339e-08
1.61859e-07
1.65448e-06
2.60078e-07
1.64017e-06
1.39766e-07
1.62329e-06
1.40571e-07
1.59073e-06
1.48892e-07
1.54976e-06
1.56771e-07
1.50267e-06
1.57182e-07
1.45174e-06
1.46664e-07
1.40211e-06
1.28612e-07
1.35882e-06
1.09156e-07
1.32199e-06
9.4599e-08
1.28737e-06
8.72078e-08
1.25031e-06
8.50203e-08
1.20881e-06
8.4639e-08
1.16415e-06
8.31871e-08
1.1181e-06
8.11866e-08
1.07335e-06
7.76413e-08
1.02736e-06
8.02649e-08
8.43354e-08
9.79366e-07
1.79213e-06
3.24095e-07
1.75955e-06
1.72353e-07
1.75582e-06
1.443e-07
1.75137e-06
1.53341e-07
1.73979e-06
1.68346e-07
1.72047e-06
1.76505e-07
1.69752e-06
1.69617e-07
1.67744e-06
1.4869e-07
1.66448e-06
1.22119e-07
1.65875e-06
1.00326e-07
1.65707e-06
8.88886e-08
1.65561e-06
8.64767e-08
1.65114e-06
8.91157e-08
1.64202e-06
9.23016e-08
1.62777e-06
9.5438e-08
1.6084e-06
9.7011e-08
1.58545e-06
1.03216e-07
1.14956e-07
1.55483e-06
1.92715e-06
3.6382e-07
1.89574e-06
2.03767e-07
1.88487e-06
1.5517e-07
1.87013e-06
1.68076e-07
1.8549e-06
1.83581e-07
1.84561e-06
1.85792e-07
1.84332e-06
1.71907e-07
1.84488e-06
1.47135e-07
1.84629e-06
1.20708e-07
1.84593e-06
1.00685e-07
1.84475e-06
9.00723e-08
1.84462e-06
8.66016e-08
1.84649e-06
8.72472e-08
1.84953e-06
8.92651e-08
1.85241e-06
9.25545e-08
1.85265e-06
9.67648e-08
1.85022e-06
1.05649e-07
1.20752e-07
1.84443e-06
2.04517e-06
3.40851e-07
2.03843e-06
2.10497e-07
2.0266e-06
1.67005e-07
2.01404e-06
1.80638e-07
2.00857e-06
1.89046e-07
2.0105e-06
1.83867e-07
2.0158e-06
1.66609e-07
2.02119e-06
1.41746e-07
2.02527e-06
1.16629e-07
2.02783e-06
9.81228e-08
2.02914e-06
8.87637e-08
2.0295e-06
8.62337e-08
2.0297e-06
8.70489e-08
2.02989e-06
8.90764e-08
2.03023e-06
9.22113e-08
2.02957e-06
9.7425e-08
2.02854e-06
1.06683e-07
1.21496e-07
2.0278e-06
2.21894e-06
4.22222e-07
2.17958e-06
2.4986e-07
2.16884e-06
1.77742e-07
2.1702e-06
1.79283e-07
2.17468e-06
1.8457e-07
2.17772e-06
1.80819e-07
2.17754e-06
1.66792e-07
2.17573e-06
1.43554e-07
2.17519e-06
1.17176e-07
2.17746e-06
9.58515e-08
2.18203e-06
8.41932e-08
2.18688e-06
8.13837e-08
2.19014e-06
8.37821e-08
2.19064e-06
8.85813e-08
2.18877e-06
9.40773e-08
2.18533e-06
1.00868e-07
2.18276e-06
1.09257e-07
1.21042e-07
2.18321e-06
2.40042e-06
4.62289e-07
2.37881e-06
2.71472e-07
2.35591e-06
2.0064e-07
2.33573e-06
1.99463e-07
2.32256e-06
1.97734e-07
2.3207e-06
1.8268e-07
2.32779e-06
1.59701e-07
2.33822e-06
1.33129e-07
2.34742e-06
1.07974e-07
2.35333e-06
8.9938e-08
2.35567e-06
8.18558e-08
2.35469e-06
8.23605e-08
2.35114e-06
8.73404e-08
2.34611e-06
9.36076e-08
2.34136e-06
9.88276e-08
2.33853e-06
1.03693e-07
2.33969e-06
1.08102e-07
1.14386e-07
2.34634e-06
2.56878e-06
4.8471e-07
2.56857e-06
2.71686e-07
2.54713e-06
2.22084e-07
2.52366e-06
2.22927e-07
2.51451e-06
2.06884e-07
2.52233e-06
1.74858e-07
2.53544e-06
1.46593e-07
2.54181e-06
1.26765e-07
2.53857e-06
1.11215e-07
2.53034e-06
9.81598e-08
2.52301e-06
8.91855e-08
2.51949e-06
8.58823e-08
2.51965e-06
8.71779e-08
2.5221e-06
9.116e-08
2.52565e-06
9.52749e-08
2.53015e-06
9.92004e-08
2.53611e-06
1.02138e-07
1.05372e-07
2.54513e-06
2.78597e-06
4.93744e-07
2.7405e-06
3.17151e-07
2.72075e-06
2.41836e-07
2.72516e-06
2.18517e-07
2.73647e-06
1.95575e-07
2.73789e-06
1.7344e-07
2.72725e-06
1.5723e-07
2.7124e-06
1.41619e-07
2.70056e-06
1.23055e-07
2.6942e-06
1.04513e-07
2.6929e-06
9.04927e-08
2.69566e-06
8.31233e-08
2.70182e-06
8.10183e-08
2.71105e-06
8.19216e-08
2.72273e-06
8.36006e-08
2.73643e-06
8.5498e-08
2.75165e-06
8.69191e-08
8.88371e-08
2.76819e-06
2.91028e-06
4.96714e-07
2.90639e-06
3.21038e-07
2.92395e-06
2.24271e-07
2.94999e-06
1.92484e-07
2.9652e-06
1.8036e-07
2.96347e-06
1.75172e-07
2.95081e-06
1.69889e-07
2.93495e-06
1.57479e-07
2.9195e-06
1.38504e-07
2.90529e-06
1.18723e-07
2.89343e-06
1.02353e-07
2.88636e-06
9.01906e-08
2.88647e-06
8.09117e-08
2.89476e-06
7.36346e-08
2.91033e-06
6.80293e-08
2.93105e-06
6.47801e-08
2.95456e-06
6.34049e-08
6.47763e-08
2.97862e-06
3.20098e-06
4.24616e-07
3.21387e-06
3.08145e-07
3.21664e-06
2.2151e-07
3.21412e-06
1.94995e-07
3.20543e-06
1.89052e-07
3.1918e-06
1.88805e-07
3.1771e-06
1.84593e-07
3.16409e-06
1.70481e-07
3.15308e-06
1.49514e-07
3.14372e-06
1.28086e-07
3.13674e-06
1.09335e-07
3.1337e-06
9.32326e-08
3.13566e-06
7.89465e-08
3.14257e-06
6.67275e-08
3.15363e-06
5.69721e-08
3.16761e-06
5.07983e-08
3.18368e-06
4.73294e-08
4.68803e-08
3.20158e-06
2.8245e-06
3.88387e-07
2.86421e-06
2.68436e-07
2.87175e-06
2.13965e-07
2.8595e-06
2.07248e-07
2.84075e-06
2.07799e-07
2.82752e-06
2.02035e-07
2.82465e-06
1.87464e-07
2.82964e-06
1.65497e-07
2.83744e-06
1.41708e-07
2.84473e-06
1.20798e-07
2.85063e-06
1.03436e-07
2.85563e-06
8.82303e-08
2.86052e-06
7.40555e-08
2.86574e-06
6.15107e-08
2.87166e-06
5.10467e-08
2.87866e-06
4.3804e-08
2.88731e-06
3.86749e-08
3.58609e-08
2.89833e-06
3.45599e-06
3.31086e-07
3.49122e-06
2.33201e-07
3.48936e-06
2.15828e-07
3.47984e-06
2.16761e-07
3.47504e-06
2.126e-07
3.47287e-06
2.0421e-07
3.47176e-06
1.88572e-07
3.47105e-06
1.66207e-07
3.4701e-06
1.42657e-07
3.46888e-06
1.22023e-07
3.46808e-06
1.04234e-07
3.46843e-06
8.78769e-08
3.47044e-06
7.20447e-08
3.47428e-06
5.76721e-08
3.47996e-06
4.53695e-08
3.48765e-06
3.61126e-08
3.49738e-06
2.8951e-08
2.3492e-08
3.50974e-06
4.29995e-06
3.15324e-07
4.30158e-06
2.31563e-07
4.28356e-06
2.33858e-07
4.25824e-06
2.42077e-07
4.24108e-06
2.29757e-07
4.23645e-06
2.08841e-07
4.23861e-06
1.86411e-07
4.23915e-06
1.65672e-07
4.23518e-06
1.46624e-07
4.23057e-06
1.2663e-07
4.23074e-06
1.04061e-07
4.23782e-06
8.08013e-08
4.24998e-06
5.98815e-08
4.26374e-06
4.3919e-08
4.27616e-06
3.29414e-08
4.28637e-06
2.59115e-08
4.29488e-06
2.04391e-08
1.48581e-08
4.30351e-06
5.15383e-06
5.37875e-07
5.12154e-06
2.63854e-07
5.13137e-06
2.24028e-07
5.14127e-06
2.32177e-07
5.15223e-06
2.18789e-07
5.1657e-06
1.95376e-07
5.17916e-06
1.72952e-07
5.18813e-06
1.56697e-07
5.19257e-06
1.4219e-07
5.19623e-06
1.2297e-07
5.20175e-06
9.85415e-08
5.20849e-06
7.40556e-08
5.21383e-06
5.45417e-08
5.21618e-06
4.15707e-08
5.21604e-06
3.30872e-08
5.21562e-06
2.63255e-08
5.21769e-06
1.83674e-08
8.60464e-09
5.22395e-06
6.47269e-06
5.05287e-07
6.41428e-06
3.22264e-07
6.35383e-06
2.84473e-07
6.31918e-06
2.66829e-07
6.31456e-06
2.23411e-07
6.33424e-06
1.75687e-07
6.36057e-06
1.46628e-07
6.38041e-06
1.36857e-07
6.39097e-06
1.31629e-07
6.39514e-06
1.18804e-07
6.39641e-06
9.7265e-08
6.39745e-06
7.30132e-08
6.4002e-06
5.17951e-08
6.4061e-06
3.5674e-08
6.4158e-06
2.33811e-08
6.42915e-06
1.2981e-08
6.44475e-06
2.76594e-09
-8.6938e-09
6.46205e-06
7.85347e-06
4.35066e-07
7.80053e-06
3.75201e-07
7.75488e-06
3.30125e-07
7.7411e-06
2.80605e-07
7.74715e-06
2.1737e-07
7.7627e-06
1.60132e-07
7.77918e-06
1.30145e-07
7.79222e-06
1.23818e-07
7.80049e-06
1.23364e-07
7.80377e-06
1.15522e-07
7.80337e-06
9.76674e-08
7.80209e-06
7.42889e-08
7.80286e-06
5.10275e-08
7.80716e-06
3.13682e-08
7.81436e-06
1.61801e-08
7.82286e-06
4.48145e-09
7.83047e-06
-4.83715e-09
-1.31898e-08
7.83496e-06
9.43996e-06
4.9265e-07
9.3783e-06
4.36863e-07
9.36567e-06
3.42754e-07
9.39111e-06
2.55168e-07
9.41179e-06
1.96682e-07
9.40949e-06
1.62432e-07
9.3993e-06
1.40342e-07
9.40079e-06
1.22324e-07
9.41972e-06
1.04433e-07
9.44899e-06
8.62518e-08
9.47826e-06
6.83989e-08
9.50172e-06
5.08289e-08
9.51901e-06
3.37425e-08
9.53274e-06
1.76398e-08
9.54541e-06
3.50523e-09
9.55868e-06
-8.78442e-09
9.57233e-06
-1.84914e-08
-2.55465e-08
9.58469e-06
1.13142e-05
4.23318e-07
1.13789e-05
3.72136e-07
1.14066e-05
3.15119e-07
1.14256e-05
2.36119e-07
1.14501e-05
1.72216e-07
1.14841e-05
1.28457e-07
1.15263e-05
9.80725e-08
1.15733e-05
7.5352e-08
1.16199e-05
5.78151e-08
1.16622e-05
4.39732e-08
1.16992e-05
3.14143e-08
1.1732e-05
1.80327e-08
1.17619e-05
3.82358e-09
1.17911e-05
-1.15215e-08
1.18186e-05
-2.40601e-08
1.18424e-05
-3.25993e-08
1.18607e-05
-3.67681e-08
-3.69731e-08
1.18722e-05
8.3171e-06
2.98711e-07
8.38287e-06
3.06371e-07
8.41403e-06
2.83957e-07
8.42531e-06
2.2484e-07
8.43952e-06
1.58001e-07
8.46496e-06
1.0302e-07
8.49441e-06
6.86243e-08
8.51945e-06
5.03121e-08
8.53827e-06
3.8993e-08
8.55372e-06
2.85273e-08
8.56916e-06
1.59695e-08
8.58686e-06
3.32869e-10
8.60356e-06
-1.28698e-08
8.61732e-06
-2.52854e-08
8.62724e-06
-3.39829e-08
8.63287e-06
-3.82225e-08
8.63451e-06
-3.84083e-08
-3.5459e-08
8.63299e-06
7.46105e-06
4.20466e-07
7.42327e-06
3.4415e-07
7.43812e-06
2.6911e-07
7.4683e-06
1.94654e-07
7.4966e-06
1.29705e-07
7.51842e-06
8.12003e-08
7.53798e-06
4.90658e-08
7.56015e-06
2.81371e-08
7.58498e-06
1.41655e-08
7.60817e-06
5.3408e-09
7.62317e-06
9.64068e-10
7.62472e-06
-1.21662e-09
7.61517e-06
-3.3179e-09
7.59677e-06
-6.88382e-09
7.57521e-06
-1.24222e-08
7.55573e-06
-1.87425e-08
7.5423e-06
-2.49786e-08
-2.94509e-08
7.53629e-06
6.40893e-06
3.53284e-07
6.45532e-06
2.97761e-07
6.49326e-06
2.3117e-07
6.52234e-06
1.65565e-07
6.53658e-06
1.15467e-07
6.53994e-06
7.78419e-08
6.54398e-06
4.50243e-08
6.55692e-06
1.5198e-08
6.57854e-06
-7.45676e-09
6.60319e-06
-1.93035e-08
6.62614e-06
-2.19896e-08
6.64258e-06
-1.76552e-08
6.65016e-06
-1.09025e-08
6.6492e-06
-5.92215e-09
6.64222e-06
-5.44067e-09
6.63305e-06
-9.56733e-09
6.62517e-06
-1.70985e-08
-2.55084e-08
6.62122e-06
5.47333e-06
3.35053e-07
5.54996e-06
2.21129e-07
5.62389e-06
1.57234e-07
5.67127e-06
1.18187e-07
5.69609e-06
9.06474e-08
5.70927e-06
6.46624e-08
5.71758e-06
3.67184e-08
5.72277e-06
1.00015e-08
5.72935e-06
-1.40291e-08
5.74051e-06
-3.04659e-08
5.75666e-06
-3.81451e-08
5.77764e-06
-3.8636e-08
5.80144e-06
-3.47027e-08
5.82538e-06
-2.98568e-08
5.84661e-06
-2.66689e-08
5.86308e-06
-2.60385e-08
5.87354e-06
-2.75639e-08
-3.01898e-08
5.87822e-06
4.82075e-06
2.53655e-07
4.87852e-06
1.63363e-07
4.91293e-06
1.22817e-07
4.94055e-06
9.05683e-08
4.97481e-06
5.63867e-08
5.0162e-06
2.32712e-08
5.05318e-06
-2.57459e-10
5.07339e-06
-1.0206e-08
5.07484e-06
-1.54848e-08
5.06388e-06
-1.95013e-08
5.0496e-06
-2.38665e-08
5.03923e-06
-2.82638e-08
5.03652e-06
-3.19978e-08
5.04191e-06
-3.52478e-08
5.05357e-06
-3.83284e-08
5.06864e-06
-4.11065e-08
5.08447e-06
-4.33901e-08
-4.41882e-08
5.09846e-06
4.28673e-06
2.99259e-07
4.2662e-06
1.83889e-07
4.26742e-06
1.216e-07
4.28712e-06
7.08674e-08
4.3128e-06
3.07082e-08
4.33665e-06
-5.80388e-10
4.36365e-06
-2.72587e-08
4.39419e-06
-4.07498e-08
4.42421e-06
-4.55051e-08
4.44782e-06
-4.31038e-08
4.4605e-06
-3.65544e-08
4.46221e-06
-2.99709e-08
4.45674e-06
-2.65325e-08
4.44917e-06
-2.7671e-08
4.44373e-06
-3.28894e-08
4.44268e-06
-4.00618e-08
4.44648e-06
-4.71876e-08
-5.18031e-08
4.4541e-06
3.68626e-06
3.14988e-07
3.76622e-06
1.03932e-07
3.8346e-06
5.32248e-08
3.86956e-06
3.59083e-08
3.88317e-06
1.70975e-08
3.88834e-06
-5.75336e-09
3.88903e-06
-2.79489e-08
3.89208e-06
-4.38022e-08
3.89596e-06
-4.93796e-08
3.89932e-06
-4.64706e-08
3.9018e-06
-3.90335e-08
3.90384e-06
-3.20112e-08
3.90663e-06
-2.93146e-08
3.91122e-06
-3.22666e-08
3.91768e-06
-3.93489e-08
3.92521e-06
-4.75873e-08
3.93255e-06
-5.45357e-08
-5.7956e-08
3.93871e-06
3.23752e-06
1.71995e-07
3.32904e-06
1.24098e-08
3.36534e-06
1.69242e-08
3.37544e-06
2.58124e-08
3.3827e-06
9.84258e-09
3.39833e-06
-2.13877e-08
3.41883e-06
-4.84472e-08
3.4352e-06
-6.01784e-08
3.44287e-06
-5.70448e-08
3.44358e-06
-4.71811e-08
3.44316e-06
-3.86139e-08
3.44654e-06
-3.53948e-08
3.45496e-06
-3.77299e-08
3.46641e-06
-4.37198e-08
3.47765e-06
-5.05911e-08
3.48615e-06
-5.60834e-08
3.49062e-06
-5.90094e-08
-5.89408e-08
3.49161e-06
2.88797e-06
1.48819e-07
2.93847e-06
-3.80903e-08
2.96358e-06
-8.19252e-09
2.99182e-06
-2.42286e-09
3.01707e-06
-1.54076e-08
3.03207e-06
-3.63838e-08
3.03746e-06
-5.38427e-08
3.03755e-06
-6.02687e-08
3.03732e-06
-5.68132e-08
3.04035e-06
-5.02137e-08
3.0481e-06
-4.63583e-08
3.05962e-06
-4.69185e-08
3.07221e-06
-5.03187e-08
3.08288e-06
-5.43939e-08
3.08976e-06
-5.74697e-08
3.09256e-06
-5.88843e-08
3.09214e-06
-5.85846e-08
-5.68241e-08
3.09002e-06
2.54561e-06
4.58849e-08
2.57306e-06
-6.55376e-08
2.59324e-06
-2.83763e-08
2.62254e-06
-3.17212e-08
2.64963e-06
-4.25012e-08
2.6659e-06
-5.26556e-08
2.66968e-06
-5.76146e-08
2.66459e-06
-5.51792e-08
2.65695e-06
-4.91814e-08
2.65177e-06
-4.50276e-08
2.65024e-06
-4.48312e-08
2.65038e-06
-4.7061e-08
2.64918e-06
-4.91114e-08
2.64437e-06
-4.95829e-08
2.63528e-06
-4.83792e-08
2.62252e-06
-4.61257e-08
2.60732e-06
-4.33834e-08
-4.06263e-08
2.59112e-06
2.1822e-06
2.11666e-06
2.08829e-06
2.05656e-06
2.01406e-06
1.96141e-06
1.90379e-06
1.84861e-06
1.79943e-06
1.7544e-06
1.70957e-06
1.66251e-06
1.6134e-06
1.56382e-06
1.51544e-06
1.46931e-06
1.42593e-06
1.3853e-06
-3.02514e-07
3.02514e-07
-5.93801e-07
2.91287e-07
-8.21883e-07
2.28082e-07
-9.68519e-07
1.46636e-07
-1.01868e-06
5.01593e-08
-9.80989e-07
-3.76894e-08
-8.66087e-07
-1.14902e-07
-6.75747e-07
-1.9034e-07
-4.15155e-07
-2.60592e-07
-9.60913e-08
-3.19064e-07
2.61099e-07
-3.57191e-07
6.3874e-07
-3.77641e-07
1.0192e-06
-3.8046e-07
1.38742e-06
-3.68222e-07
1.73193e-06
-3.44509e-07
2.04497e-06
-3.13044e-07
2.3222e-06
-2.77229e-07
2.56164e-06
-2.39438e-07
2.76276e-06
-2.01117e-07
2.92576e-06
-1.63003e-07
3.05109e-06
-1.25334e-07
3.13912e-06
-8.80254e-08
3.18984e-06
-5.07159e-08
3.20358e-06
-1.37391e-08
3.1791e-06
2.44789e-08
3.11468e-06
6.44208e-08
3.00928e-06
1.05398e-07
2.86142e-06
1.47855e-07
2.67048e-06
1.90945e-07
2.43277e-06
2.37709e-07
2.15016e-06
2.82604e-07
1.81595e-06
3.34218e-07
1.43886e-06
3.77087e-07
1.03307e-06
4.05787e-07
6.0844e-07
4.24632e-07
2.64018e-07
3.44422e-07
4.05577e-08
2.2346e-07
-1.07003e-07
1.47561e-07
-2.04338e-07
9.73355e-08
-2.5027e-07
4.59317e-08
-2.44908e-07
-5.36221e-09
-2.01795e-07
-4.31128e-08
-1.2214e-07
-7.96553e-08
-9.83015e-09
-1.1231e-07
1.27334e-07
-1.37164e-07
2.85677e-07
-1.58343e-07
4.46397e-07
-1.6072e-07
5.83745e-07
-1.37347e-07
6.6603e-07
-8.22853e-08
6.7268e-07
-6.64987e-09
7.19778e-07
-4.70985e-08
8.85935e-07
-1.66157e-07
1.0591e-06
-1.73163e-07
1.13067e-06
-7.1576e-08
1.05395e-06
7.67218e-08
7.46542e-07
3.07411e-07
2.28303e-07
5.18239e-07
-3.59596e-07
5.87899e-07
-9.47607e-07
5.88011e-07
-1.51462e-06
5.67017e-07
-2.04805e-06
5.33426e-07
-2.54207e-06
4.94021e-07
-2.99498e-06
4.5291e-07
-3.40765e-06
4.12667e-07
-3.78243e-06
3.74777e-07
-4.12234e-06
3.39916e-07
-4.43049e-06
3.08152e-07
-4.70961e-06
2.79113e-07
-4.9618e-06
2.5219e-07
-5.18849e-06
2.26694e-07
-5.39043e-06
2.0194e-07
-5.56773e-06
1.773e-07
-5.71997e-06
1.52238e-07
-5.84639e-06
1.26416e-07
-5.94612e-06
9.97344e-08
-6.01844e-06
7.23231e-08
-6.06297e-06
4.45289e-08
-6.07979e-06
1.68197e-08
-6.07018e-06
-9.61721e-09
-6.03571e-06
-3.44681e-08
-5.97711e-06
-5.8599e-08
-5.89534e-06
-8.17712e-08
-5.7915e-06
-1.0384e-07
-5.66673e-06
-1.24769e-07
-5.52225e-06
-1.44476e-07
-5.35937e-06
-1.62878e-07
-5.17953e-06
-1.79838e-07
-4.98434e-06
-1.95195e-07
-4.77558e-06
-2.08762e-07
-4.55521e-06
-2.2037e-07
-4.32529e-06
-2.29919e-07
-4.08793e-06
-2.37358e-07
-3.84523e-06
-2.42703e-07
-3.59922e-06
-2.46006e-07
-3.3518e-06
-2.47421e-07
-3.1046e-06
-2.47203e-07
-2.85889e-06
-2.45705e-07
-2.61552e-06
-2.43368e-07
-2.37487e-06
-2.40648e-07
-2.13695e-06
-2.37921e-07
-1.90152e-06
-2.35438e-07
-1.66825e-06
-2.33265e-07
-1.43705e-06
-2.31205e-07
-1.20818e-06
-2.28868e-07
-9.8244e-07
-2.25738e-07
-7.61174e-07
-2.21266e-07
-5.46166e-07
-2.15008e-07
-3.39498e-07
-2.06668e-07
-1.43201e-07
-1.96297e-07
4.09675e-08
-1.84168e-07
2.12203e-07
-1.71235e-07
3.69377e-07
-1.57174e-07
5.12334e-07
-1.42957e-07
6.415e-07
-1.29166e-07
7.57766e-07
-1.16267e-07
8.62334e-07
-1.04568e-07
9.56513e-07
-9.41791e-08
1.0415e-06
-8.49894e-08
1.1182e-06
-7.66967e-08
1.18712e-06
-6.89191e-08
1.24837e-06
-6.12494e-08
1.3017e-06
-5.33372e-08
1.34677e-06
-4.50612e-08
1.38318e-06
-3.6411e-08
1.4106e-06
-2.74187e-08
1.42911e-06
-1.85105e-08
1.43913e-06
-1.00254e-08
1.44082e-06
-1.69123e-09
1.4346e-06
6.21825e-09
1.42167e-06
1.29364e-08
1.40338e-06
1.82836e-08
1.38094e-06
2.24493e-08
1.35537e-06
2.55676e-08
1.32762e-06
2.77476e-08
1.29852e-06
2.90973e-08
1.26883e-06
2.96898e-08
1.23924e-06
2.9591e-08
1.21034e-06
2.89058e-08
1.18256e-06
2.77746e-08
1.15622e-06
2.63448e-08
1.13147e-06
2.47422e-08
1.10841e-06
2.30605e-08
1.08705e-06
2.13602e-08
1.06738e-06
1.96769e-08
1.04934e-06
1.8034e-08
1.03289e-06
1.64512e-08
1.01794e-06
1.49468e-08
1.00441e-06
1.35371e-08
9.92173e-07
1.2235e-08
9.81124e-07
1.10485e-08
9.71146e-07
9.97881e-09
9.62125e-07
9.02086e-09
9.53959e-07
8.16585e-09
9.46555e-07
7.40425e-09
9.39825e-07
6.73e-09
9.33688e-07
6.13706e-09
9.28059e-07
5.62881e-09
9.2285e-07
5.20849e-09
9.17981e-07
4.86937e-09
9.1337e-07
4.61108e-09
9.08936e-07
4.43348e-09
9.04608e-07
4.32792e-09
9.00299e-07
4.30936e-09
8.95924e-07
4.37491e-09
8.91355e-07
4.56873e-09
8.86495e-07
4.86068e-09
8.81149e-07
5.34549e-09
8.75231e-07
5.91785e-09
8.68404e-07
6.82785e-09
8.60621e-07
7.78261e-09
8.51177e-07
9.44406e-09
8.40279e-07
1.0898e-08
8.26234e-07
1.40446e-08
8.10231e-07
1.60037e-08
7.87771e-07
2.24593e-08
7.63594e-07
2.41774e-08
7.2464e-07
3.89539e-08
6.8868e-07
3.59599e-08
6.14196e-07
7.44843e-08
5.07489e-08
5.63447e-07
-4.11779e-08
3.43692e-07
-1.20402e-07
3.70511e-07
-1.74385e-07
2.82065e-07
-1.70801e-07
1.43052e-07
-1.15353e-07
-5.28897e-09
-6.69243e-09
-1.4635e-07
1.5317e-07
-2.74764e-07
3.64537e-07
-4.01707e-07
6.23202e-07
-5.19257e-07
9.16679e-07
-6.12541e-07
1.22937e-06
-6.69886e-07
1.54588e-06
-6.9415e-07
1.8535e-06
-6.88076e-07
2.1428e-06
-6.57521e-07
2.40813e-06
-6.09839e-07
2.64666e-06
-5.5158e-07
2.85715e-06
-4.87713e-07
3.03923e-06
-4.2152e-07
3.19295e-06
-3.54838e-07
3.31848e-06
-2.8853e-07
3.41603e-06
-2.22883e-07
3.48599e-06
-1.57985e-07
3.52912e-06
-9.38493e-08
3.54601e-06
-3.06268e-08
3.53668e-06
3.38098e-08
3.50204e-06
9.90568e-08
3.44338e-06
1.64063e-07
3.36063e-06
2.306e-07
3.25347e-06
2.98107e-07
3.12299e-06
3.68189e-07
2.96698e-06
4.38611e-07
2.79193e-06
5.0927e-07
2.59162e-06
5.77395e-07
2.36877e-06
6.28641e-07
2.13328e-06
6.60122e-07
1.84021e-06
6.37488e-07
1.48987e-06
5.738e-07
1.14748e-06
4.89949e-07
8.62491e-07
3.82328e-07
6.5595e-07
2.52472e-07
5.18702e-07
1.31886e-07
4.5784e-07
1.77495e-08
4.70849e-07
-9.26644e-08
5.35487e-07
-1.76947e-07
6.37279e-07
-2.38956e-07
7.96253e-07
-3.17318e-07
9.93374e-07
-3.57841e-07
1.14983e-06
-2.93802e-07
1.33572e-06
-2.68178e-07
1.56253e-06
-2.33458e-07
1.61631e-06
-1.00875e-07
1.37376e-06
7.63903e-08
8.30326e-07
3.7027e-07
4.63564e-08
7.12394e-07
-7.65289e-07
8.88367e-07
-1.45961e-06
1.00174e-06
-2.0163e-06
1.07492e-06
-2.50556e-06
1.07716e-06
-2.95464e-06
1.03709e-06
-3.36107e-06
9.73452e-07
-3.72623e-06
8.98588e-07
-4.05292e-06
8.20705e-07
-4.34492e-06
7.44913e-07
-4.60628e-06
6.74029e-07
-4.84083e-06
6.09323e-07
-5.05189e-06
5.50983e-07
-5.24222e-06
4.98482e-07
-5.41393e-06
4.50823e-07
-5.5685e-06
4.06758e-07
-5.70675e-06
3.64941e-07
-5.82884e-06
3.24029e-07
-5.93458e-06
2.83045e-07
-6.02342e-06
2.41076e-07
-6.09453e-06
1.97524e-07
-6.14705e-06
1.52258e-07
-6.18024e-06
1.05511e-07
-6.19353e-06
5.78237e-08
-6.18625e-06
9.53641e-09
-6.15756e-06
-3.8304e-08
-6.1065e-06
-8.55349e-08
-6.03331e-06
-1.31786e-07
-5.9385e-06
-1.76585e-07
-5.82276e-06
-2.1958e-07
-5.68703e-06
-2.60494e-07
-5.53239e-06
-2.99121e-07
-5.36003e-06
-3.35233e-07
-5.17132e-06
-3.68551e-07
-4.9678e-06
-3.98711e-07
-4.75125e-06
-4.25314e-07
-4.52361e-06
-4.4801e-07
-4.28695e-06
-4.66583e-07
-4.04334e-06
-4.80961e-07
-3.79488e-06
-4.91169e-07
-3.54355e-06
-4.97339e-07
-3.2912e-06
-4.99763e-07
-3.03947e-06
-4.98938e-07
-2.78959e-06
-4.95586e-07
-2.54234e-06
-4.90619e-07
-2.29798e-06
-4.85001e-07
-2.05638e-06
-4.79528e-07
-1.8171e-06
-4.74709e-07
-1.57971e-06
-4.70659e-07
-1.34399e-06
-4.66926e-07
-1.1102e-06
-4.62659e-07
-8.79169e-07
-4.56767e-07
-6.52346e-07
-4.48089e-07
-4.31675e-07
-4.35679e-07
-2.19518e-07
-4.18825e-07
-1.83295e-08
-3.97486e-07
1.71544e-07
-3.74041e-07
3.47303e-07
-3.46995e-07
5.08807e-07
-3.18678e-07
6.56255e-07
-2.90405e-07
7.90493e-07
-2.63403e-07
9.12797e-07
-2.38571e-07
1.02467e-06
-2.16443e-07
1.12766e-06
-1.97171e-07
1.22318e-06
-1.80503e-07
1.31233e-06
-1.65849e-07
1.39583e-06
-1.52414e-07
1.47392e-06
-1.39344e-07
1.54651e-06
-1.25923e-07
1.61318e-06
-1.11731e-07
1.67339e-06
-9.66224e-08
1.72674e-06
-8.07734e-08
1.7729e-06
-6.46682e-08
1.8117e-06
-4.88296e-08
1.84372e-06
-3.37114e-08
1.86976e-06
-1.9821e-08
1.89027e-06
-7.56661e-09
1.9056e-06
2.94675e-09
1.91634e-06
1.17142e-08
1.92318e-06
1.87274e-08
1.92682e-06
2.41025e-08
1.92791e-06
2.80143e-08
1.92697e-06
3.06222e-08
1.9245e-06
3.20696e-08
1.92086e-06
3.25444e-08
1.91637e-06
3.22602e-08
1.91129e-06
3.14284e-08
1.9058e-06
3.02313e-08
1.90005e-06
2.88095e-08
1.89415e-06
2.72569e-08
1.8882e-06
2.56252e-08
1.8823e-06
2.39384e-08
1.87655e-06
2.2206e-08
1.87106e-06
2.04334e-08
1.86597e-06
1.86296e-08
1.86139e-06
1.68098e-08
1.85744e-06
1.4995e-08
1.85422e-06
1.32088e-08
1.85176e-06
1.14755e-08
1.85011e-06
9.81893e-09
1.84925e-06
8.26274e-09
1.84915e-06
6.83328e-09
1.84973e-06
5.5507e-09
1.85092e-06
4.43909e-09
1.8526e-06
3.53344e-09
1.85464e-06
2.82745e-09
1.85693e-06
2.32428e-09
1.85934e-06
2.01687e-09
1.86178e-06
1.88495e-09
1.86415e-06
1.94452e-09
1.86634e-06
2.18688e-09
1.86823e-06
2.67933e-09
1.86971e-06
3.37567e-09
1.87063e-06
4.43173e-09
1.8709e-06
5.6448e-09
1.87025e-06
7.47316e-09
1.86871e-06
9.3305e-09
1.86567e-06
1.24818e-08
1.86144e-06
1.51288e-08
1.85462e-06
2.08608e-08
1.8463e-06
2.43204e-08
1.83318e-06
3.5588e-08
1.81826e-06
3.90929e-08
1.79431e-06
6.2907e-08
1.76751e-06
6.27541e-08
1.72628e-06
1.15715e-07
1.03766e-07
1.67326e-06
1.96687e-07
1.47005e-07
3.24097e-07
2.43101e-07
4.39639e-07
1.66523e-07
5.65366e-07
1.7326e-08
7.24141e-07
-1.64064e-07
9.13177e-07
-3.35387e-07
1.13614e-06
-4.97726e-07
1.3831e-06
-6.48665e-07
1.63811e-06
-7.74271e-07
1.88642e-06
-8.60845e-07
2.11934e-06
-9.02806e-07
2.32769e-06
-9.02504e-07
2.51168e-06
-8.72071e-07
2.67387e-06
-8.19706e-07
2.81798e-06
-7.53947e-07
2.94747e-06
-6.81076e-07
3.06453e-06
-6.04767e-07
3.16978e-06
-5.26771e-07
3.26266e-06
-4.47724e-07
3.34187e-06
-3.67736e-07
3.40578e-06
-2.86792e-07
3.45275e-06
-2.04959e-07
3.48143e-06
-1.22524e-07
3.49078e-06
-3.99783e-08
3.48081e-06
4.37775e-08
3.45167e-06
1.28195e-07
3.40392e-06
2.11813e-07
3.33914e-06
2.95378e-07
3.25878e-06
3.78471e-07
3.1655e-06
4.61471e-07
3.06162e-06
5.4249e-07
2.9517e-06
6.1919e-07
2.83856e-06
6.90538e-07
2.71868e-06
7.48518e-07
2.58807e-06
7.90732e-07
2.4238e-06
8.01755e-07
2.23169e-06
7.65909e-07
2.03561e-06
6.86033e-07
1.83603e-06
5.81912e-07
1.64316e-06
4.45341e-07
1.48073e-06
2.94315e-07
1.35017e-06
1.4831e-07
1.27382e-06
-1.63171e-08
1.26029e-06
-1.63413e-07
1.31876e-06
-2.9743e-07
1.42966e-06
-4.28224e-07
1.60296e-06
-5.31135e-07
1.75359e-06
-4.44438e-07
1.65877e-06
-1.73358e-07
1.299e-06
1.2632e-07
6.35872e-07
5.6225e-07
-2.63853e-07
9.76115e-07
-1.08704e-06
1.19346e-06
-1.71289e-06
1.33824e-06
-2.23368e-06
1.40916e-06
-2.66491e-06
1.43297e-06
-3.00291e-06
1.41292e-06
-3.28206e-06
1.35632e-06
-3.52414e-06
1.27917e-06
-3.74187e-06
1.19118e-06
-3.94311e-06
1.09983e-06
-4.1325e-06
1.01009e-06
-4.3127e-06
9.25113e-07
-4.48517e-06
8.46503e-07
-4.65064e-06
7.74792e-07
-4.80937e-06
7.0971e-07
-4.96132e-06
6.50435e-07
-5.10622e-06
5.95715e-07
-5.24344e-06
5.43981e-07
-5.37198e-06
4.93483e-07
-5.49043e-06
4.42479e-07
-5.59688e-06
3.89488e-07
-5.68921e-06
3.33415e-07
-5.76538e-06
2.73688e-07
-5.82345e-06
2.10325e-07
-5.86178e-06
1.43843e-07
-5.87898e-06
7.50235e-08
-5.87408e-06
4.63994e-09
-5.8474e-06
-6.49873e-08
-5.79876e-06
-1.34177e-07
-5.72853e-06
-2.02009e-07
-5.63726e-06
-2.67857e-07
-5.52562e-06
-3.31226e-07
-5.39439e-06
-3.91716e-07
-5.24453e-06
-4.48985e-07
-5.0771e-06
-5.02664e-07
-4.89337e-06
-5.52279e-07
-4.69485e-06
-5.97227e-07
-4.48333e-06
-6.36838e-07
-4.26081e-06
-6.70535e-07
-4.0294e-06
-6.97991e-07
-3.79123e-06
-7.19126e-07
-3.5484e-06
-7.34003e-07
-3.30295e-06
-7.4279e-07
-3.05683e-06
-7.4588e-07
-2.81177e-06
-7.44004e-07
-2.56906e-06
-7.38293e-07
-2.32944e-06
-7.30238e-07
-2.09296e-06
-7.21477e-07
-1.85912e-06
-7.13376e-07
-1.62707e-06
-7.06755e-07
-1.39595e-06
-7.01781e-07
-1.16521e-06
-6.97662e-07
-9.34969e-07
-6.92902e-07
-7.06147e-07
-6.85589e-07
-4.80559e-07
-6.73678e-07
-2.60754e-07
-6.55483e-07
-4.95836e-08
-6.29996e-07
1.51569e-07
-5.98638e-07
3.38425e-07
-5.60897e-07
5.09773e-07
-5.18343e-07
6.64192e-07
-4.73097e-07
8.01387e-07
-4.27601e-07
9.22395e-07
-3.84411e-07
1.02945e-06
-3.45622e-07
1.12539e-06
-3.12385e-07
1.21301e-06
-2.84794e-07
1.29459e-06
-2.62085e-07
1.37172e-06
-2.42977e-07
1.4453e-06
-2.25991e-07
1.51565e-06
-2.09696e-07
1.58265e-06
-1.92924e-07
1.64585e-06
-1.74928e-07
1.70461e-06
-1.55388e-07
1.75829e-06
-1.34446e-07
1.80626e-06
-1.12646e-07
1.84818e-06
-9.07422e-08
1.88405e-06
-6.95875e-08
1.91422e-06
-4.99927e-08
1.93922e-06
-3.25587e-08
1.95973e-06
-1.75699e-08
1.97645e-06
-4.99943e-09
1.98995e-06
5.21966e-09
2.0007e-06
1.33566e-08
2.0091e-06
1.96095e-08
2.01559e-06
2.41364e-08
2.02053e-06
2.71257e-08
2.02431e-06
2.87678e-08
2.02727e-06
2.93054e-08
2.02968e-06
2.90137e-08
2.03175e-06
2.81597e-08
2.03359e-06
2.69741e-08
2.03522e-06
2.56253e-08
2.03663e-06
2.42145e-08
2.03778e-06
2.27875e-08
2.03864e-06
2.13474e-08
2.0392e-06
1.98688e-08
2.03952e-06
1.83126e-08
2.03969e-06
1.66404e-08
2.03986e-06
1.4825e-08
2.04021e-06
1.28566e-08
2.04094e-06
1.07468e-08
2.04223e-06
8.5315e-09
2.04422e-06
6.26782e-09
2.04702e-06
4.03565e-09
2.05068e-06
1.89494e-09
2.0552e-06
-8.00523e-11
2.06051e-06
-1.78061e-09
2.06655e-06
-3.20793e-09
2.07318e-06
-4.31161e-09
2.08027e-06
-5.07521e-09
2.08768e-06
-5.52257e-09
2.09526e-06
-5.63827e-09
2.10291e-06
-5.45997e-09
2.1105e-06
-4.90957e-09
2.11796e-06
-4.08413e-09
2.12517e-06
-2.78224e-09
2.1321e-06
-1.28259e-09
2.13858e-06
9.96375e-10
2.14459e-06
3.32286e-09
2.14987e-06
7.19386e-09
2.15444e-06
1.05586e-08
2.15793e-06
1.73722e-08
2.16021e-06
2.20441e-08
2.16103e-06
3.47633e-08
2.15937e-06
4.07528e-08
2.15659e-06
6.5686e-08
2.14733e-06
7.20221e-08
2.1414e-06
1.21636e-07
1.29714e-07
2.11546e-06
1.47564e-07
-5.592e-10
2.83624e-07
1.07041e-07
4.55733e-07
-5.58566e-09
6.83321e-07
-2.10262e-07
9.48086e-07
-4.28829e-07
1.24103e-06
-6.28332e-07
1.53708e-06
-7.93774e-07
1.80649e-06
-9.18073e-07
2.02972e-06
-9.97502e-07
2.20087e-06
-1.032e-06
2.32582e-06
-1.02776e-06
2.41854e-06
-9.95221e-07
2.49185e-06
-9.45386e-07
2.55837e-06
-8.86219e-07
2.62647e-06
-8.22051e-07
2.69968e-06
-7.54285e-07
2.7776e-06
-6.82687e-07
2.85732e-06
-6.06493e-07
2.93469e-06
-5.2509e-07
3.00539e-06
-4.3844e-07
3.0656e-06
-3.46996e-07
3.11254e-06
-2.51897e-07
3.14462e-06
-1.5461e-07
3.16157e-06
-5.6926e-08
3.1643e-06
4.10459e-08
3.15327e-06
1.39231e-07
3.12959e-06
2.35494e-07
3.09439e-06
3.30577e-07
3.04784e-06
4.25018e-07
2.99068e-06
5.18627e-07
2.92263e-06
6.10544e-07
2.84482e-06
6.97001e-07
2.76026e-06
7.75094e-07
2.6689e-06
8.39881e-07
2.57611e-06
8.83522e-07
2.47497e-06
9.02893e-07
2.3626e-06
8.78275e-07
2.23392e-06
8.14717e-07
2.09655e-06
7.19281e-07
1.96045e-06
5.81445e-07
1.82121e-06
4.33551e-07
1.73227e-06
2.37256e-07
1.63718e-06
7.87657e-08
1.52773e-06
-5.39557e-08
1.57895e-06
-3.48654e-07
1.71008e-06
-5.59351e-07
1.58994e-06
-4.10997e-07
1.16863e-06
-2.31314e-08
4.50506e-07
5.44769e-07
-4.24273e-07
1.0011e-06
-1.1711e-06
1.30908e-06
-1.72802e-06
1.53304e-06
-2.1847e-06
1.65014e-06
-2.53697e-06
1.69051e-06
-2.81279e-06
1.68498e-06
-3.02872e-06
1.6489e-06
-3.20329e-06
1.58748e-06
-3.35496e-06
1.50799e-06
-3.4953e-06
1.41951e-06
-3.63211e-06
1.32799e-06
-3.76947e-06
1.2372e-06
-3.90896e-06
1.14958e-06
-4.05052e-06
1.06668e-06
-4.19335e-06
9.8933e-07
-4.33636e-06
9.178e-07
-4.47846e-06
8.51812e-07
-4.6186e-06
7.90574e-07
-4.75566e-06
7.32775e-07
-4.8883e-06
6.7662e-07
-5.01481e-06
6.19997e-07
-5.13308e-06
5.60752e-07
-5.24063e-06
4.97034e-07
-5.33483e-06
4.27612e-07
-5.4132e-06
3.52066e-07
-5.47367e-06
2.70795e-07
-5.51468e-06
1.84846e-07
-5.53516e-06
9.55014e-08
-5.53346e-06
2.94688e-09
-5.51129e-06
-8.71639e-08
-5.46756e-06
-1.77903e-07
-5.40231e-06
-2.67262e-07
-5.316e-06
-3.54166e-07
-5.20928e-06
-4.37948e-07
-5.08297e-06
-5.1802e-07
-4.93808e-06
-5.93878e-07
-4.77578e-06
-6.64964e-07
-4.59747e-06
-7.30584e-07
-4.40483e-06
-7.89873e-07
-4.19976e-06
-8.41907e-07
-3.98435e-06
-8.85944e-07
-3.7607e-06
-9.21642e-07
-3.5308e-06
-9.49024e-07
-3.29658e-06
-9.68223e-07
-3.06002e-06
-9.79356e-07
-2.82314e-06
-9.82758e-07
-2.58787e-06
-9.79275e-07
-2.35572e-06
-9.70438e-07
-2.12753e-06
-9.5843e-07
-1.90319e-06
-9.45814e-07
-1.68171e-06
-9.3486e-07
-1.46155e-06
-9.26909e-07
-1.24103e-06
-9.22301e-07
-1.01875e-06
-9.19944e-07
-7.94093e-07
-9.17561e-07
-5.67639e-07
-9.12043e-07
-3.41429e-07
-8.99889e-07
-1.18514e-07
-8.78397e-07
9.78914e-08
-8.46402e-07
3.03211e-07
-8.03958e-07
4.95149e-07
-7.52835e-07
6.72374e-07
-6.95568e-07
8.33597e-07
-6.3432e-07
9.76906e-07
-5.70909e-07
1.10039e-06
-5.07898e-07
1.20383e-06
-4.4906e-07
1.2897e-06
-3.98257e-07
1.36257e-06
-3.57659e-07
1.42738e-06
-3.26896e-07
1.48803e-06
-3.03628e-07
1.54676e-06
-2.84718e-07
1.6043e-06
-2.67235e-07
1.66039e-06
-2.49021e-07
1.71434e-06
-2.28879e-07
1.7654e-06
-2.06444e-07
1.81288e-06
-1.81921e-07
1.85613e-06
-1.55903e-07
1.89464e-06
-1.29249e-07
1.92805e-06
-1.03001e-07
1.9563e-06
-7.82454e-08
1.97967e-06
-5.59209e-08
1.99873e-06
-3.66321e-08
2.01429e-06
-2.0559e-08