/*--------------------------------*- C++ -*----------------------------------*\
  =========                 |
  \\      /  F ield         | OpenFOAM: The Open Source CFD Toolbox
   \\    /   O peration     | Website:  https://openfoam.org
    \\  /    A nd           | Version:  7
     \\/     M anipulation  |
\*---------------------------------------------------------------------------*/
FoamFile
{
    version     2.0;
    format      ascii;
    class       volScalarField;
    location    "0.07";
    object      pPrime2Mean;
}
// * * * * * * * * * * * * * * * * * * * * * * * * * * * * * * * * * * * * * //

dimensions      [0 4 -4 0 0 0 0];

internalField   nonuniform List<scalar> 
12225
(
5.12604e+06
5.04449e+06
4.96026e+06
4.879e+06
4.80093e+06
4.72582e+06
4.65345e+06
4.58362e+06
4.51611e+06
4.45066e+06
4.38702e+06
4.32488e+06
4.26389e+06
4.20357e+06
4.14331e+06
4.08212e+06
4.01827e+06
3.94744e+06
5.12611e+06
5.04453e+06
4.9603e+06
4.87904e+06
4.80098e+06
4.72587e+06
4.65352e+06
4.5837e+06
4.5162e+06
4.45077e+06
4.38716e+06
4.32507e+06
4.26414e+06
4.20392e+06
4.14383e+06
4.08295e+06
4.01984e+06
3.951e+06
5.12623e+06
5.04461e+06
4.96039e+06
4.87914e+06
4.80108e+06
4.72599e+06
4.65365e+06
4.58386e+06
4.5164e+06
4.45102e+06
4.38748e+06
4.32548e+06
4.26469e+06
4.20469e+06
4.14494e+06
4.08472e+06
4.02297e+06
3.95837e+06
5.12637e+06
5.04475e+06
4.96053e+06
4.87929e+06
4.80125e+06
4.72618e+06
4.65388e+06
4.58414e+06
4.51673e+06
4.45144e+06
4.38801e+06
4.32616e+06
4.26559e+06
4.20592e+06
4.14673e+06
4.08747e+06
4.02762e+06
3.96719e+06
5.12654e+06
5.04494e+06
4.96073e+06
4.87951e+06
4.8015e+06
4.72647e+06
4.65422e+06
4.58454e+06
4.51723e+06
4.45205e+06
4.38877e+06
4.32715e+06
4.26689e+06
4.20769e+06
4.14923e+06
4.09119e+06
4.03345e+06
3.97673e+06
5.1268e+06
5.04521e+06
4.96102e+06
4.87982e+06
4.80184e+06
4.72686e+06
4.65468e+06
4.5851e+06
4.5179e+06
4.45288e+06
4.38982e+06
4.32848e+06
4.26863e+06
4.21003e+06
4.15245e+06
4.09579e+06
4.0402e+06
3.98662e+06
5.12713e+06
5.04557e+06
4.9614e+06
4.88023e+06
4.8023e+06
4.72739e+06
4.65529e+06
4.58582e+06
4.51878e+06
4.45397e+06
4.39118e+06
4.33021e+06
4.27086e+06
4.21296e+06
4.15639e+06
4.10119e+06
4.04766e+06
3.99669e+06
5.12756e+06
5.04603e+06
4.96188e+06
4.88075e+06
4.80288e+06
4.72805e+06
4.65607e+06
4.58675e+06
4.51991e+06
4.45535e+06
4.39288e+06
4.33235e+06
4.27359e+06
4.21649e+06
4.16101e+06
4.10728e+06
4.05565e+06
4.00684e+06
5.12815e+06
5.04663e+06
4.9625e+06
4.88141e+06
4.80361e+06
4.72889e+06
4.65705e+06
4.58791e+06
4.5213e+06
4.45704e+06
4.39497e+06
4.33494e+06
4.27684e+06
4.22061e+06
4.16626e+06
4.11396e+06
4.06405e+06
4.01705e+06
5.12885e+06
5.04737e+06
4.96326e+06
4.88222e+06
4.80451e+06
4.72991e+06
4.65824e+06
4.58932e+06
4.52298e+06
4.45907e+06
4.39745e+06
4.33799e+06
4.28062e+06
4.2253e+06
4.17209e+06
4.12115e+06
4.07276e+06
4.0273e+06
5.12988e+06
5.04828e+06
4.96419e+06
4.88321e+06
4.8056e+06
4.73115e+06
4.65967e+06
4.591e+06
4.52498e+06
4.46148e+06
4.40035e+06
4.34152e+06
4.28491e+06
4.23053e+06
4.17842e+06
4.12875e+06
4.08171e+06
4.03755e+06
5.13082e+06
5.04929e+06
4.96521e+06
4.88429e+06
4.80679e+06
4.73249e+06
4.66122e+06
4.59281e+06
4.52713e+06
4.46403e+06
4.40341e+06
4.34518e+06
4.2893e+06
4.23577e+06
4.18464e+06
4.13603e+06
4.09009e+06
4.04696e+06
5.13211e+06
5.05046e+06
4.96638e+06
4.88552e+06
4.80814e+06
4.73401e+06
4.66297e+06
4.59485e+06
4.52952e+06
4.46686e+06
4.40676e+06
4.34915e+06
4.294e+06
4.2413e+06
4.1911e+06
4.14347e+06
4.0985e+06
4.05627e+06
5.13382e+06
5.05202e+06
4.96793e+06
4.88715e+06
4.80992e+06
4.73601e+06
4.66525e+06
4.5975e+06
4.53261e+06
4.47047e+06
4.411e+06
4.35411e+06
4.29979e+06
4.248e+06
4.19879e+06
4.15217e+06
4.10818e+06
4.06685e+06
5.13605e+06
5.05407e+06
4.96997e+06
4.88929e+06
4.81225e+06
4.73862e+06
4.66822e+06
4.6009e+06
4.53655e+06
4.47504e+06
4.41628e+06
4.36022e+06
4.3068e+06
4.25599e+06
4.2078e+06
4.1622e+06
4.11918e+06
4.07872e+06
5.1388e+06
5.05671e+06
4.97261e+06
4.89207e+06
4.81527e+06
4.74197e+06
4.67201e+06
4.60523e+06
4.54149e+06
4.4807e+06
4.42276e+06
4.36759e+06
4.31513e+06
4.26533e+06
4.21815e+06
4.17355e+06
4.13147e+06
4.09184e+06
5.14226e+06
5.06002e+06
4.97596e+06
4.8956e+06
4.8191e+06
4.74621e+06
4.67676e+06
4.61059e+06
4.54756e+06
4.48757e+06
4.4305e+06
4.37626e+06
4.32478e+06
4.27598e+06
4.22979e+06
4.18613e+06
4.14492e+06
4.10607e+06
5.14624e+06
5.064e+06
4.98005e+06
4.89993e+06
4.82379e+06
4.75138e+06
4.68251e+06
4.61702e+06
4.55475e+06
4.49559e+06
4.43942e+06
4.38612e+06
4.33559e+06
4.28774e+06
4.24247e+06
4.19967e+06
4.15926e+06
4.12111e+06
5.15085e+06
5.0686e+06
4.98481e+06
4.90498e+06
4.82926e+06
4.75738e+06
4.68913e+06
4.62434e+06
4.56286e+06
4.50452e+06
4.44921e+06
4.3968e+06
4.34716e+06
4.30017e+06
4.25571e+06
4.21368e+06
4.17395e+06
4.13642e+06
5.15449e+06
5.07233e+06
4.98873e+06
4.90919e+06
4.83383e+06
4.76238e+06
4.69462e+06
4.63037e+06
4.56945e+06
4.51171e+06
4.45701e+06
4.40521e+06
4.35616e+06
4.30974e+06
4.26583e+06
4.22429e+06
4.18502e+06
4.14787e+06
5.15663e+06
5.07474e+06
4.99135e+06
4.91204e+06
4.83695e+06
4.76579e+06
4.69836e+06
4.63445e+06
4.5739e+06
4.51654e+06
4.46222e+06
4.41079e+06
4.3621e+06
4.31603e+06
4.27244e+06
4.2312e+06
4.19219e+06
4.15528e+06
5.15833e+06
5.07646e+06
4.99322e+06
4.91411e+06
4.83923e+06
4.7683e+06
4.7011e+06
4.63745e+06
4.57715e+06
4.52006e+06
4.46599e+06
4.41482e+06
4.36638e+06
4.32054e+06
4.27716e+06
4.23612e+06
4.19729e+06
4.16054e+06
5.15905e+06
5.07755e+06
4.99452e+06
4.91557e+06
4.84086e+06
4.7701e+06
4.70308e+06
4.6396e+06
4.57949e+06
4.52257e+06
4.46869e+06
4.41769e+06
4.36942e+06
4.32374e+06
4.28051e+06
4.23961e+06
4.20089e+06
4.16425e+06
5.15964e+06
5.07827e+06
4.9954e+06
4.91659e+06
4.84201e+06
4.77137e+06
4.70447e+06
4.64112e+06
4.58114e+06
4.52435e+06
4.47059e+06
4.41971e+06
4.37156e+06
4.32599e+06
4.28286e+06
4.24204e+06
4.20341e+06
4.16684e+06
5.15997e+06
5.07872e+06
4.99598e+06
4.91729e+06
4.84279e+06
4.77225e+06
4.70544e+06
4.64218e+06
4.58228e+06
4.52558e+06
4.47191e+06
4.42111e+06
4.37303e+06
4.32753e+06
4.28447e+06
4.24371e+06
4.20513e+06
4.16861e+06
5.15991e+06
5.07897e+06
4.99636e+06
4.91775e+06
4.84332e+06
4.77284e+06
4.70609e+06
4.64288e+06
4.58305e+06
4.5264e+06
4.47279e+06
4.42204e+06
4.37401e+06
4.32856e+06
4.28555e+06
4.24483e+06
4.20629e+06
4.1698e+06
5.15987e+06
5.07911e+06
4.99659e+06
4.91804e+06
4.84366e+06
4.77322e+06
4.70651e+06
4.64334e+06
4.58354e+06
4.52693e+06
4.47335e+06
4.42264e+06
4.37465e+06
4.32923e+06
4.28624e+06
4.24555e+06
4.20703e+06
4.17056e+06
5.15989e+06
5.0792e+06
4.99673e+06
4.91822e+06
4.84387e+06
4.77345e+06
4.70676e+06
4.64362e+06
4.58384e+06
4.52726e+06
4.4737e+06
4.42301e+06
4.37504e+06
4.32963e+06
4.28666e+06
4.24599e+06
4.20748e+06
4.17102e+06
5.15991e+06
5.07924e+06
4.99681e+06
4.91831e+06
4.84398e+06
4.77357e+06
4.7069e+06
4.64377e+06
4.584e+06
4.52743e+06
4.47388e+06
4.42321e+06
4.37524e+06
4.32985e+06
4.28689e+06
4.24622e+06
4.20772e+06
4.17127e+06
5.15992e+06
5.07926e+06
4.99684e+06
4.91835e+06
4.84402e+06
4.77362e+06
4.70696e+06
4.64383e+06
4.58407e+06
4.5275e+06
4.47396e+06
4.42329e+06
4.37533e+06
4.32994e+06
4.28698e+06
4.24632e+06
4.20782e+06
4.17137e+06
3.33549e+06
3.33523e+06
3.33469e+06
3.33388e+06
3.33278e+06
3.33141e+06
3.32973e+06
3.32777e+06
3.3255e+06
3.32293e+06
3.32006e+06
3.31688e+06
3.31338e+06
3.30958e+06
3.30545e+06
3.30101e+06
3.29626e+06
3.29119e+06
3.2858e+06
3.28009e+06
3.27407e+06
3.26773e+06
3.26108e+06
3.25411e+06
3.24684e+06
3.23926e+06
3.23137e+06
3.22318e+06
3.2147e+06
3.20591e+06
3.19684e+06
3.18747e+06
3.17783e+06
3.1679e+06
3.15769e+06
3.14721e+06
3.13646e+06
3.12544e+06
3.11417e+06
3.10264e+06
3.09086e+06
3.07883e+06
3.06655e+06
3.05404e+06
3.0413e+06
3.02832e+06
3.01512e+06
3.0017e+06
2.98806e+06
2.9742e+06
2.96014e+06
2.94587e+06
2.93141e+06
2.91674e+06
2.90188e+06
2.88684e+06
2.87161e+06
2.85619e+06
2.8406e+06
2.82484e+06
2.8089e+06
2.7928e+06
2.77654e+06
2.76011e+06
2.74353e+06
2.7268e+06
2.70991e+06
2.69288e+06
2.6757e+06
2.65838e+06
2.64093e+06
2.62333e+06
2.60561e+06
2.58775e+06
2.56977e+06
2.55166e+06
2.53343e+06
2.51508e+06
2.49661e+06
2.47803e+06
2.45933e+06
2.44053e+06
2.42162e+06
2.4026e+06
2.38348e+06
2.36426e+06
2.34494e+06
2.32552e+06
2.30601e+06
2.2864e+06
2.26671e+06
2.24693e+06
2.22706e+06
2.20711e+06
2.18707e+06
2.16696e+06
2.14676e+06
2.12649e+06
2.10615e+06
2.08573e+06
2.06524e+06
2.04469e+06
2.02406e+06
2.00337e+06
1.98262e+06
1.96181e+06
1.94093e+06
1.92e+06
1.89902e+06
1.87798e+06
1.85688e+06
1.83574e+06
1.81455e+06
1.79331e+06
1.77203e+06
1.75071e+06
1.72935e+06
1.70795e+06
1.68651e+06
1.66505e+06
1.64355e+06
1.62202e+06
1.60046e+06
1.57888e+06
1.55728e+06
1.53566e+06
1.51402e+06
1.49236e+06
1.4707e+06
1.44902e+06
1.42734e+06
1.40565e+06
1.38396e+06
1.36227e+06
1.34058e+06
1.3189e+06
1.29723e+06
1.27557e+06
1.25393e+06
1.2323e+06
1.2107e+06
1.18912e+06
1.16757e+06
1.14605e+06
1.12457e+06
1.10312e+06
1.08172e+06
1.06036e+06
1.03905e+06
1.01779e+06
996594
975455
954381
933376
912445
891590
870818
850132
829537
809038
788640
768348
748168
728103
708161
688348
668668
649129
629738
610501
591428
572527
553809
535284
516968
498879
481041
463490
446289
429572
3.3367e+06
3.33643e+06
3.33589e+06
3.33507e+06
3.33397e+06
3.33258e+06
3.3309e+06
3.32893e+06
3.32665e+06
3.32406e+06
3.32117e+06
3.31797e+06
3.31446e+06
3.31063e+06
3.30649e+06
3.30203e+06
3.29725e+06
3.29216e+06
3.28674e+06
3.28101e+06
3.27497e+06
3.2686e+06
3.26192e+06
3.25493e+06
3.24764e+06
3.24003e+06
3.23212e+06
3.2239e+06
3.21539e+06
3.20658e+06
3.19748e+06
3.18809e+06
3.17842e+06
3.16847e+06
3.15824e+06
3.14773e+06
3.13696e+06
3.12593e+06
3.11463e+06
3.10308e+06
3.09128e+06
3.07923e+06
3.06694e+06
3.05441e+06
3.04165e+06
3.02865e+06
3.01544e+06
3.002e+06
2.98834e+06
2.97448e+06
2.9604e+06
2.94612e+06
2.93164e+06
2.91696e+06
2.90209e+06
2.88704e+06
2.87179e+06
2.85637e+06
2.84077e+06
2.825e+06
2.80905e+06
2.79295e+06
2.77667e+06
2.76024e+06
2.74365e+06
2.72691e+06
2.71002e+06
2.69298e+06
2.6758e+06
2.65847e+06
2.64101e+06
2.62341e+06
2.60568e+06
2.58782e+06
2.56983e+06
2.55172e+06
2.53349e+06
2.51513e+06
2.49666e+06
2.47808e+06
2.45938e+06
2.44057e+06
2.42166e+06
2.40263e+06
2.38351e+06
2.36429e+06
2.34496e+06
2.32554e+06
2.30603e+06
2.28643e+06
2.26673e+06
2.24695e+06
2.22708e+06
2.20712e+06
2.18709e+06
2.16697e+06
2.14678e+06
2.12651e+06
2.10616e+06
2.08574e+06
2.06525e+06
2.0447e+06
2.02407e+06
2.00338e+06
1.98263e+06
1.96181e+06
1.94094e+06
1.92001e+06
1.89902e+06
1.87798e+06
1.85689e+06
1.83574e+06
1.81455e+06
1.79332e+06
1.77204e+06
1.75071e+06
1.72935e+06
1.70795e+06
1.68652e+06
1.66505e+06
1.64355e+06
1.62202e+06
1.60046e+06
1.57888e+06
1.55728e+06
1.53566e+06
1.51402e+06
1.49236e+06
1.4707e+06
1.44902e+06
1.42734e+06
1.40565e+06
1.38396e+06
1.36227e+06
1.34058e+06
1.3189e+06
1.29723e+06
1.27557e+06
1.25393e+06
1.2323e+06
1.2107e+06
1.18912e+06
1.16757e+06
1.14605e+06
1.12457e+06
1.10312e+06
1.08172e+06
1.06036e+06
1.03905e+06
1.01779e+06
996594
975456
954381
933376
912445
891590
870818
850132
829537
809038
788640
768348
748167
728103
708161
688347
668667
649127
629736
610499
591425
572523
553803
535277
516958
498865
481020
463458
446231
429436
3.33912e+06
3.33884e+06
3.3383e+06
3.33747e+06
3.33635e+06
3.33495e+06
3.33325e+06
3.33124e+06
3.32894e+06
3.32633e+06
3.32341e+06
3.32017e+06
3.31662e+06
3.31276e+06
3.30857e+06
3.30407e+06
3.29925e+06
3.2941e+06
3.28864e+06
3.28286e+06
3.27676e+06
3.27035e+06
3.26362e+06
3.25658e+06
3.24923e+06
3.24157e+06
3.23361e+06
3.22534e+06
3.21678e+06
3.20792e+06
3.19877e+06
3.18933e+06
3.17961e+06
3.16961e+06
3.15933e+06
3.14878e+06
3.13797e+06
3.12689e+06
3.11555e+06
3.10396e+06
3.09212e+06
3.08003e+06
3.06771e+06
3.05514e+06
3.04234e+06
3.02932e+06
3.01607e+06
3.0026e+06
2.98892e+06
2.97502e+06
2.96092e+06
2.94661e+06
2.9321e+06
2.9174e+06
2.90251e+06
2.88743e+06
2.87217e+06
2.85673e+06
2.84111e+06
2.82532e+06
2.80935e+06
2.79323e+06
2.77694e+06
2.76049e+06
2.74389e+06
2.72713e+06
2.71023e+06
2.69318e+06
2.67598e+06
2.65865e+06
2.64118e+06
2.62357e+06
2.60583e+06
2.58796e+06
2.56996e+06
2.55184e+06
2.5336e+06
2.51524e+06
2.49676e+06
2.47817e+06
2.45947e+06
2.44065e+06
2.42173e+06
2.40271e+06
2.38358e+06
2.36435e+06
2.34502e+06
2.3256e+06
2.30608e+06
2.28647e+06
2.26677e+06
2.24699e+06
2.22711e+06
2.20716e+06
2.18712e+06
2.167e+06
2.1468e+06
2.12653e+06
2.10618e+06
2.08576e+06
2.06527e+06
2.04472e+06
2.02409e+06
2.0034e+06
1.98264e+06
1.96183e+06
1.94095e+06
1.92002e+06
1.89903e+06
1.87799e+06
1.8569e+06
1.83575e+06
1.81456e+06
1.79332e+06
1.77204e+06
1.75072e+06
1.72936e+06
1.70796e+06
1.68652e+06
1.66505e+06
1.64355e+06
1.62202e+06
1.60047e+06
1.57889e+06
1.55728e+06
1.53566e+06
1.51402e+06
1.49237e+06
1.4707e+06
1.44902e+06
1.42734e+06
1.40565e+06
1.38396e+06
1.36227e+06
1.34058e+06
1.3189e+06
1.29723e+06
1.27557e+06
1.25393e+06
1.2323e+06
1.2107e+06
1.18912e+06
1.16757e+06
1.14605e+06
1.12457e+06
1.10312e+06
1.08172e+06
1.06036e+06
1.03905e+06
1.01779e+06
996595
975456
954382
933376
912445
891590
870818
850132
829537
809038
788640
768347
748166
728102
708159
688345
668664
649124
629732
610494
591418
572514
553792
535262
516938
498837
480980
463396
446126
429222
3.34276e+06
3.34248e+06
3.34192e+06
3.34108e+06
3.33994e+06
3.33851e+06
3.33678e+06
3.33474e+06
3.33239e+06
3.32974e+06
3.32677e+06
3.32348e+06
3.31987e+06
3.31595e+06
3.3117e+06
3.30713e+06
3.30224e+06
3.29703e+06
3.29149e+06
3.28564e+06
3.27947e+06
3.27297e+06
3.26617e+06
3.25905e+06
3.25162e+06
3.24388e+06
3.23584e+06
3.2275e+06
3.21886e+06
3.20992e+06
3.2007e+06
3.19118e+06
3.18139e+06
3.17132e+06
3.16097e+06
3.15036e+06
3.13948e+06
3.12833e+06
3.11693e+06
3.10528e+06
3.09338e+06
3.08124e+06
3.06885e+06
3.05624e+06
3.04339e+06
3.03031e+06
3.01702e+06
3.0035e+06
2.98977e+06
2.97583e+06
2.96169e+06
2.94734e+06
2.9328e+06
2.91806e+06
2.90314e+06
2.88802e+06
2.87273e+06
2.85726e+06
2.84161e+06
2.82579e+06
2.8098e+06
2.79365e+06
2.77734e+06
2.76087e+06
2.74425e+06
2.72747e+06
2.71055e+06
2.69348e+06
2.67626e+06
2.65891e+06
2.64142e+06
2.6238e+06
2.60605e+06
2.58816e+06
2.57016e+06
2.55202e+06
2.53377e+06
2.5154e+06
2.49691e+06
2.47831e+06
2.4596e+06
2.44077e+06
2.42185e+06
2.40281e+06
2.38368e+06
2.36444e+06
2.34511e+06
2.32568e+06
2.30616e+06
2.28654e+06
2.26684e+06
2.24705e+06
2.22717e+06
2.20721e+06
2.18717e+06
2.16705e+06
2.14685e+06
2.12657e+06
2.10622e+06
2.0858e+06
2.0653e+06
2.04474e+06
2.02412e+06
2.00342e+06
1.98267e+06
1.96185e+06
1.94097e+06
1.92004e+06
1.89905e+06
1.878e+06
1.85691e+06
1.83576e+06
1.81457e+06
1.79333e+06
1.77205e+06
1.75073e+06
1.72936e+06
1.70796e+06
1.68653e+06
1.66506e+06
1.64356e+06
1.62203e+06
1.60047e+06
1.57889e+06
1.55729e+06
1.53566e+06
1.51402e+06
1.49237e+06
1.4707e+06
1.44902e+06
1.42734e+06
1.40565e+06
1.38396e+06
1.36227e+06
1.34058e+06
1.3189e+06
1.29723e+06
1.27557e+06
1.25393e+06
1.2323e+06
1.2107e+06
1.18912e+06
1.16757e+06
1.14605e+06
1.12457e+06
1.10312e+06
1.08172e+06
1.06036e+06
1.03905e+06
1.01779e+06
996595
975456
954382
933377
912445
891590
870817
850131
829536
809037
788639
768346
748165
728100
708157
688342
668661
649120
629726
610486
591409
572502
553775
535240
516909
498796
480922
463310
445986
428974
3.34766e+06
3.34737e+06
3.34679e+06
3.34592e+06
3.34476e+06
3.34329e+06
3.34151e+06
3.33943e+06
3.33703e+06
3.33431e+06
3.33127e+06
3.32791e+06
3.32423e+06
3.32022e+06
3.31589e+06
3.31123e+06
3.30625e+06
3.30094e+06
3.2953e+06
3.28935e+06
3.28307e+06
3.27648e+06
3.26957e+06
3.26234e+06
3.25481e+06
3.24696e+06
3.23882e+06
3.23037e+06
3.22162e+06
3.21259e+06
3.20326e+06
3.19365e+06
3.18376e+06
3.17359e+06
3.16315e+06
3.15245e+06
3.14148e+06
3.13025e+06
3.11876e+06
3.10703e+06
3.09505e+06
3.08283e+06
3.07038e+06
3.05769e+06
3.04477e+06
3.03163e+06
3.01827e+06
3.00469e+06
2.99091e+06
2.97691e+06
2.96271e+06
2.94831e+06
2.93372e+06
2.91894e+06
2.90396e+06
2.88881e+06
2.87347e+06
2.85796e+06
2.84227e+06
2.82642e+06
2.8104e+06
2.79421e+06
2.77787e+06
2.76137e+06
2.74472e+06
2.72791e+06
2.71096e+06
2.69387e+06
2.67663e+06
2.65926e+06
2.64175e+06
2.62411e+06
2.60634e+06
2.58844e+06
2.57041e+06
2.55226e+06
2.534e+06
2.51561e+06
2.49711e+06
2.47849e+06
2.45977e+06
2.44094e+06
2.422e+06
2.40295e+06
2.38381e+06
2.36457e+06
2.34522e+06
2.32579e+06
2.30626e+06
2.28664e+06
2.26693e+06
2.24713e+06
2.22725e+06
2.20728e+06
2.18723e+06
2.16711e+06
2.1469e+06
2.12662e+06
2.10627e+06
2.08584e+06
2.06535e+06
2.04478e+06
2.02415e+06
2.00345e+06
1.9827e+06
1.96188e+06
1.941e+06
1.92006e+06
1.89907e+06
1.87802e+06
1.85693e+06
1.83578e+06
1.81459e+06
1.79335e+06
1.77206e+06
1.75074e+06
1.72937e+06
1.70797e+06
1.68654e+06
1.66507e+06
1.64356e+06
1.62203e+06
1.60048e+06
1.5789e+06
1.55729e+06
1.53567e+06
1.51403e+06
1.49237e+06
1.47071e+06
1.44903e+06
1.42734e+06
1.40565e+06
1.38396e+06
1.36227e+06
1.34058e+06
1.3189e+06
1.29723e+06
1.27557e+06
1.25393e+06
1.23231e+06
1.2107e+06
1.18912e+06
1.16757e+06
1.14605e+06
1.12457e+06
1.10312e+06
1.08172e+06
1.06036e+06
1.03905e+06
1.01779e+06
996595
975456
954382
933377
912445
891590
870817
850131
829536
809036
788638
768345
748163
728098
708154
688338
668656
649114
629718
610476
591396
572485
553754
535212
516871
498745
480850
463204
445824
428713
3.35384e+06
3.35354e+06
3.35294e+06
3.35204e+06
3.35083e+06
3.34932e+06
3.34748e+06
3.34533e+06
3.34286e+06
3.34006e+06
3.33694e+06
3.33349e+06
3.32971e+06
3.32559e+06
3.32115e+06
3.31638e+06
3.31127e+06
3.30584e+06
3.30008e+06
3.294e+06
3.28759e+06
3.28086e+06
3.27382e+06
3.26646e+06
3.25879e+06
3.25081e+06
3.24253e+06
3.23395e+06
3.22508e+06
3.21591e+06
3.20646e+06
3.19672e+06
3.18671e+06
3.17642e+06
3.16587e+06
3.15505e+06
3.14397e+06
3.13263e+06
3.12104e+06
3.10921e+06
3.09713e+06
3.08482e+06
3.07227e+06
3.05949e+06
3.04649e+06
3.03327e+06
3.01983e+06
3.00618e+06
2.99231e+06
2.97825e+06
2.96398e+06
2.94952e+06
2.93487e+06
2.92002e+06
2.90499e+06
2.88978e+06
2.87439e+06
2.85883e+06
2.8431e+06
2.8272e+06
2.81113e+06
2.79491e+06
2.77852e+06
2.76199e+06
2.7453e+06
2.72846e+06
2.71148e+06
2.69436e+06
2.67709e+06
2.65969e+06
2.64216e+06
2.62449e+06
2.6067e+06
2.58878e+06
2.57073e+06
2.55256e+06
2.53428e+06
2.51587e+06
2.49735e+06
2.47872e+06
2.45998e+06
2.44114e+06
2.42219e+06
2.40313e+06
2.38397e+06
2.36472e+06
2.34537e+06
2.32592e+06
2.30638e+06
2.28675e+06
2.26703e+06
2.24723e+06
2.22734e+06
2.20737e+06
2.18731e+06
2.16718e+06
2.14697e+06
2.12669e+06
2.10633e+06
2.0859e+06
2.0654e+06
2.04483e+06
2.02419e+06
2.00349e+06
1.98273e+06
1.96191e+06
1.94103e+06
1.92009e+06
1.89909e+06
1.87805e+06
1.85695e+06
1.8358e+06
1.81461e+06
1.79336e+06
1.77208e+06
1.75075e+06
1.72939e+06
1.70798e+06
1.68655e+06
1.66508e+06
1.64357e+06
1.62204e+06
1.60048e+06
1.5789e+06
1.5573e+06
1.53567e+06
1.51403e+06
1.49238e+06
1.47071e+06
1.44903e+06
1.42735e+06
1.40566e+06
1.38396e+06
1.36227e+06
1.34059e+06
1.31891e+06
1.29723e+06
1.27558e+06
1.25393e+06
1.23231e+06
1.2107e+06
1.18912e+06
1.16757e+06
1.14605e+06
1.12457e+06
1.10312e+06
1.08172e+06
1.06036e+06
1.03905e+06
1.0178e+06
996595
975456
954382
933377
912445
891590
870817
850130
829535
809035
788637
768343
748161
728095
708151
688334
668650
649106
629709
610464
591380
572465
553728
535178
516826
498684
480765
463083
445647
428451
3.36134e+06
3.36102e+06
3.36039e+06
3.35946e+06
3.3582e+06
3.35662e+06
3.35472e+06
3.35249e+06
3.34993e+06
3.34703e+06
3.3438e+06
3.34023e+06
3.33633e+06
3.33208e+06
3.3275e+06
3.32258e+06
3.31733e+06
3.31175e+06
3.30583e+06
3.29959e+06
3.29302e+06
3.28613e+06
3.27892e+06
3.2714e+06
3.26356e+06
3.25542e+06
3.24698e+06
3.23824e+06
3.22921e+06
3.21989e+06
3.21028e+06
3.2004e+06
3.19023e+06
3.1798e+06
3.16911e+06
3.15815e+06
3.14694e+06
3.13547e+06
3.12376e+06
3.1118e+06
3.09961e+06
3.08718e+06
3.07452e+06
3.06164e+06
3.04854e+06
3.03522e+06
3.02168e+06
3.00794e+06
2.99399e+06
2.97984e+06
2.9655e+06
2.95096e+06
2.93623e+06
2.92131e+06
2.90621e+06
2.89094e+06
2.87549e+06
2.85987e+06
2.84408e+06
2.82812e+06
2.81201e+06
2.79573e+06
2.77931e+06
2.76272e+06
2.74599e+06
2.72912e+06
2.7121e+06
2.69494e+06
2.67764e+06
2.66021e+06
2.64264e+06
2.62495e+06
2.60712e+06
2.58918e+06
2.57111e+06
2.55292e+06
2.53461e+06
2.51618e+06
2.49765e+06
2.479e+06
2.46024e+06
2.44138e+06
2.42241e+06
2.40334e+06
2.38417e+06
2.3649e+06
2.34554e+06
2.32608e+06
2.30653e+06
2.28689e+06
2.26716e+06
2.24735e+06
2.22745e+06
2.20747e+06
2.18741e+06
2.16727e+06
2.14705e+06
2.12676e+06
2.1064e+06
2.08596e+06
2.06546e+06
2.04488e+06
2.02424e+06
2.00354e+06
1.98278e+06
1.96195e+06
1.94106e+06
1.92012e+06
1.89913e+06
1.87808e+06
1.85697e+06
1.83582e+06
1.81463e+06
1.79338e+06
1.7721e+06
1.75077e+06
1.7294e+06
1.708e+06
1.68656e+06
1.66509e+06
1.64358e+06
1.62205e+06
1.60049e+06
1.57891e+06
1.5573e+06
1.53568e+06
1.51404e+06
1.49238e+06
1.47071e+06
1.44904e+06
1.42735e+06
1.40566e+06
1.38397e+06
1.36228e+06
1.34059e+06
1.31891e+06
1.29724e+06
1.27558e+06
1.25393e+06
1.23231e+06
1.2107e+06
1.18913e+06
1.16758e+06
1.14606e+06
1.12457e+06
1.10313e+06
1.08172e+06
1.06036e+06
1.03905e+06
1.0178e+06
996596
975457
954382
933377
912445
891590
870817
850130
829534
809034
788635
768341
748159
728092
708146
688328
668643
649098
629698
610450
591362
572442
553698
535139
516774
498615
480671
462953
445464
428192
3.37022e+06
3.36987e+06
3.36921e+06
3.36823e+06
3.36691e+06
3.36526e+06
3.36327e+06
3.36094e+06
3.35827e+06
3.35525e+06
3.35188e+06
3.34817e+06
3.34411e+06
3.33971e+06
3.33496e+06
3.32987e+06
3.32444e+06
3.31867e+06
3.31257e+06
3.30613e+06
3.29937e+06
3.29228e+06
3.28488e+06
3.27716e+06
3.26913e+06
3.2608e+06
3.25216e+06
3.24323e+06
3.23401e+06
3.22451e+06
3.21472e+06
3.20466e+06
3.19433e+06
3.18373e+06
3.17287e+06
3.16175e+06
3.15038e+06
3.13876e+06
3.1269e+06
3.11481e+06
3.10248e+06
3.08992e+06
3.07713e+06
3.06413e+06
3.0509e+06
3.03747e+06
3.02383e+06
3.00998e+06
2.99593e+06
2.98168e+06
2.96724e+06
2.95262e+06
2.9378e+06
2.9228e+06
2.90763e+06
2.89228e+06
2.87676e+06
2.86106e+06
2.84521e+06
2.82919e+06
2.81302e+06
2.79669e+06
2.78021e+06
2.76357e+06
2.7468e+06
2.72987e+06
2.71281e+06
2.69561e+06
2.67827e+06
2.6608e+06
2.6432e+06
2.62547e+06
2.60762e+06
2.58964e+06
2.57154e+06
2.55332e+06
2.53499e+06
2.51654e+06
2.49798e+06
2.47931e+06
2.46053e+06
2.44165e+06
2.42267e+06
2.40358e+06
2.38439e+06
2.36511e+06
2.34573e+06
2.32626e+06
2.3067e+06
2.28705e+06
2.26731e+06
2.24748e+06
2.22758e+06
2.20759e+06
2.18752e+06
2.16737e+06
2.14715e+06
2.12685e+06
2.10648e+06
2.08604e+06
2.06552e+06
2.04495e+06
2.0243e+06
2.00359e+06
1.98283e+06
1.962e+06
1.94111e+06
1.92016e+06
1.89916e+06
1.87811e+06
1.85701e+06
1.83585e+06
1.81465e+06
1.79341e+06
1.77212e+06
1.75079e+06
1.72942e+06
1.70801e+06
1.68657e+06
1.6651e+06
1.6436e+06
1.62206e+06
1.6005e+06
1.57892e+06
1.55731e+06
1.53569e+06
1.51405e+06
1.49239e+06
1.47072e+06
1.44904e+06
1.42735e+06
1.40566e+06
1.38397e+06
1.36228e+06
1.34059e+06
1.31891e+06
1.29724e+06
1.27558e+06
1.25394e+06
1.23231e+06
1.21071e+06
1.18913e+06
1.16758e+06
1.14606e+06
1.12457e+06
1.10313e+06
1.08172e+06
1.06036e+06
1.03905e+06
1.0178e+06
996597
975457
954383
933377
912445
891590
870816
850129
829534
809033
788634
768339
748156
728088
708142
688322
668636
649088
629685
610434
591342
572416
553665
535095
516717
498539
480570
462816
445277
427940
3.38053e+06
3.38016e+06
3.37946e+06
3.37841e+06
3.37702e+06
3.37528e+06
3.37319e+06
3.37073e+06
3.36793e+06
3.36476e+06
3.36123e+06
3.35735e+06
3.3531e+06
3.34851e+06
3.34356e+06
3.33826e+06
3.33261e+06
3.32662e+06
3.32029e+06
3.31363e+06
3.30664e+06
3.29932e+06
3.29169e+06
3.28374e+06
3.27548e+06
3.26692e+06
3.25807e+06
3.24892e+06
3.23948e+06
3.22976e+06
3.21977e+06
3.2095e+06
3.19897e+06
3.18818e+06
3.17713e+06
3.16583e+06
3.15428e+06
3.14249e+06
3.13047e+06
3.11821e+06
3.10572e+06
3.09301e+06
3.08008e+06
3.06694e+06
3.05358e+06
3.04002e+06
3.02625e+06
3.01229e+06
2.99812e+06
2.98377e+06
2.96922e+06
2.95449e+06
2.93958e+06
2.92449e+06
2.90923e+06
2.89379e+06
2.87819e+06
2.86242e+06
2.84649e+06
2.8304e+06
2.81416e+06
2.79777e+06
2.78122e+06
2.76454e+06
2.7477e+06
2.73073e+06
2.71362e+06
2.69637e+06
2.67899e+06
2.66147e+06
2.64383e+06
2.62607e+06
2.60818e+06
2.59017e+06
2.57203e+06
2.55379e+06
2.53542e+06
2.51695e+06
2.49836e+06
2.47967e+06
2.46087e+06
2.44196e+06
2.42296e+06
2.40385e+06
2.38465e+06
2.36535e+06
2.34595e+06
2.32647e+06
2.30689e+06
2.28723e+06
2.26748e+06
2.24764e+06
2.22772e+06
2.20772e+06
2.18764e+06
2.16749e+06
2.14725e+06
2.12695e+06
2.10657e+06
2.08612e+06
2.0656e+06
2.04502e+06
2.02437e+06
2.00366e+06
1.98288e+06
1.96205e+06
1.94115e+06
1.92021e+06
1.8992e+06
1.87815e+06
1.85704e+06
1.83588e+06
1.81468e+06
1.79343e+06
1.77214e+06
1.75081e+06
1.72944e+06
1.70803e+06
1.68659e+06
1.66512e+06
1.64361e+06
1.62207e+06
1.60051e+06
1.57893e+06
1.55732e+06
1.5357e+06
1.51405e+06
1.4924e+06
1.47073e+06
1.44905e+06
1.42736e+06
1.40567e+06
1.38397e+06
1.36228e+06
1.34059e+06
1.31891e+06
1.29724e+06
1.27558e+06
1.25394e+06
1.23231e+06
1.21071e+06
1.18913e+06
1.16758e+06
1.14606e+06
1.12457e+06
1.10313e+06
1.08172e+06
1.06036e+06
1.03905e+06
1.0178e+06
996597
975458
954383
933377
912445
891589
870816
850129
829533
809032
788632
768337
748153
728084
708137
688316
668627
649077
629672
610417
591320
572388
553628
535049
516656
498460
480465
462676
445091
427698
3.39235e+06
3.39195e+06
3.3912e+06
3.39008e+06
3.3886e+06
3.38675e+06
3.38453e+06
3.38193e+06
3.37895e+06
3.37561e+06
3.37188e+06
3.36779e+06
3.36333e+06
3.3585e+06
3.35331e+06
3.34776e+06
3.34186e+06
3.33561e+06
3.32902e+06
3.32209e+06
3.31484e+06
3.30725e+06
3.29935e+06
3.29114e+06
3.28262e+06
3.2738e+06
3.26469e+06
3.25528e+06
3.2456e+06
3.23564e+06
3.22541e+06
3.21491e+06
3.20415e+06
3.19314e+06
3.18188e+06
3.17037e+06
3.15863e+06
3.14664e+06
3.13443e+06
3.12199e+06
3.10933e+06
3.09646e+06
3.08337e+06
3.07007e+06
3.05656e+06
3.04286e+06
3.02895e+06
3.01485e+06
3.00056e+06
2.98608e+06
2.97142e+06
2.95658e+06
2.94156e+06
2.92636e+06
2.911e+06
2.89547e+06
2.87978e+06
2.86392e+06
2.84791e+06
2.83175e+06
2.81543e+06
2.79897e+06
2.78236e+06
2.7656e+06
2.74871e+06
2.73168e+06
2.71451e+06
2.69721e+06
2.67978e+06
2.66222e+06
2.64454e+06
2.62673e+06
2.6088e+06
2.59075e+06
2.57258e+06
2.5543e+06
2.5359e+06
2.5174e+06
2.49878e+06
2.48006e+06
2.46124e+06
2.44231e+06
2.42328e+06
2.40415e+06
2.38493e+06
2.36561e+06
2.3462e+06
2.3267e+06
2.3071e+06
2.28743e+06
2.26766e+06
2.24781e+06
2.22788e+06
2.20787e+06
2.18778e+06
2.16761e+06
2.14737e+06
2.12706e+06
2.10667e+06
2.08621e+06
2.06569e+06
2.0451e+06
2.02444e+06
2.00372e+06
1.98294e+06
1.96211e+06
1.94121e+06
1.92025e+06
1.89925e+06
1.87819e+06
1.85708e+06
1.83592e+06
1.81471e+06
1.79346e+06
1.77217e+06
1.75084e+06
1.72946e+06
1.70805e+06
1.68661e+06
1.66513e+06
1.64362e+06
1.62209e+06
1.60053e+06
1.57894e+06
1.55733e+06
1.53571e+06
1.51406e+06
1.4924e+06
1.47073e+06
1.44905e+06
1.42736e+06
1.40567e+06
1.38398e+06
1.36229e+06
1.3406e+06
1.31892e+06
1.29724e+06
1.27558e+06
1.25394e+06
1.23231e+06
1.21071e+06
1.18913e+06
1.16758e+06
1.14606e+06
1.12458e+06
1.10313e+06
1.08172e+06
1.06037e+06
1.03906e+06
1.0178e+06
996598
975458
954384
933378
912445
891589
870816
850128
829532
809031
788630
768335
748149
728080
708131
688309
668618
649066
629657
610399
591297
572358
553590
534999
516593
498377
480357
462536
444909
427466
3.40579e+06
3.40535e+06
3.40454e+06
3.40333e+06
3.40174e+06
3.39975e+06
3.39737e+06
3.39459e+06
3.39142e+06
3.38786e+06
3.3839e+06
3.37955e+06
3.37483e+06
3.36972e+06
3.36425e+06
3.35841e+06
3.35221e+06
3.34566e+06
3.33876e+06
3.33152e+06
3.32396e+06
3.31607e+06
3.30786e+06
3.29934e+06
3.29052e+06
3.28141e+06
3.27201e+06
3.26232e+06
3.25236e+06
3.24212e+06
3.23163e+06
3.22087e+06
3.20986e+06
3.19861e+06
3.18711e+06
3.17537e+06
3.1634e+06
3.15121e+06
3.13879e+06
3.12615e+06
3.1133e+06
3.10024e+06
3.08697e+06
3.0735e+06
3.05983e+06
3.04596e+06
3.03191e+06
3.01766e+06
3.00323e+06
2.98862e+06
2.97383e+06
2.95887e+06
2.94373e+06
2.92842e+06
2.91295e+06
2.89731e+06
2.88152e+06
2.86557e+06
2.84947e+06
2.83322e+06
2.81682e+06
2.80028e+06
2.78359e+06
2.76677e+06
2.74981e+06
2.73272e+06
2.71549e+06
2.69813e+06
2.68065e+06
2.66304e+06
2.6453e+06
2.62745e+06
2.60948e+06
2.59139e+06
2.57318e+06
2.55486e+06
2.53643e+06
2.51789e+06
2.49925e+06
2.4805e+06
2.46164e+06
2.44269e+06
2.42363e+06
2.40448e+06
2.38524e+06
2.3659e+06
2.34647e+06
2.32695e+06
2.30734e+06
2.28764e+06
2.26786e+06
2.248e+06
2.22806e+06
2.20803e+06
2.18793e+06
2.16775e+06
2.1475e+06
2.12718e+06
2.10678e+06
2.08632e+06
2.06579e+06
2.04519e+06
2.02452e+06
2.0038e+06
1.98301e+06
1.96217e+06
1.94127e+06
1.92031e+06
1.8993e+06
1.87823e+06
1.85712e+06
1.83596e+06
1.81475e+06
1.79349e+06
1.7722e+06
1.75086e+06
1.72949e+06
1.70808e+06
1.68663e+06
1.66515e+06
1.64364e+06
1.6221e+06
1.60054e+06
1.57895e+06
1.55734e+06
1.53572e+06
1.51407e+06
1.49241e+06
1.47074e+06
1.44906e+06
1.42737e+06
1.40568e+06
1.38398e+06
1.36229e+06
1.3406e+06
1.31892e+06
1.29725e+06
1.27559e+06
1.25394e+06
1.23232e+06
1.21071e+06
1.18913e+06
1.16758e+06
1.14606e+06
1.12458e+06
1.10313e+06
1.08173e+06
1.06037e+06
1.03906e+06
1.0178e+06
996599
975459
954384
933378
912445
891589
870815
850128
829531
809029
788628
768332
748146
728075
708125
688302
668609
649054
629642
610380
591272
572327
553550
534948
516527
498293
480249
462396
444732
427245
3.42096e+06
3.42048e+06
3.41958e+06
3.41827e+06
3.41654e+06
3.41439e+06
3.41182e+06
3.40882e+06
3.4054e+06
3.40157e+06
3.39733e+06
3.39269e+06
3.38765e+06
3.38222e+06
3.37641e+06
3.37022e+06
3.36367e+06
3.35677e+06
3.34952e+06
3.34192e+06
3.334e+06
3.32576e+06
3.31721e+06
3.30834e+06
3.29919e+06
3.28974e+06
3.28001e+06
3.27e+06
3.25973e+06
3.2492e+06
3.2384e+06
3.22736e+06
3.21607e+06
3.20455e+06
3.19279e+06
3.1808e+06
3.16859e+06
3.15616e+06
3.14351e+06
3.13066e+06
3.1176e+06
3.10433e+06
3.09087e+06
3.07721e+06
3.06337e+06
3.04933e+06
3.03511e+06
3.02071e+06
3.00613e+06
2.99137e+06
2.97644e+06
2.96134e+06
2.94607e+06
2.93064e+06
2.91505e+06
2.8993e+06
2.8834e+06
2.86735e+06
2.85115e+06
2.83481e+06
2.81832e+06
2.8017e+06
2.78493e+06
2.76803e+06
2.751e+06
2.73384e+06
2.71655e+06
2.69913e+06
2.68159e+06
2.66392e+06
2.64614e+06
2.62823e+06
2.61021e+06
2.59208e+06
2.57383e+06
2.55547e+06
2.537e+06
2.51843e+06
2.49975e+06
2.48097e+06