/*--------------------------------*- C++ -*----------------------------------*\
  =========                 |
  \\      /  F ield         | OpenFOAM: The Open Source CFD Toolbox
   \\    /   O peration     | Website:  https://openfoam.org
    \\  /    A nd           | Version:  7
     \\/     M anipulation  |
\*---------------------------------------------------------------------------*/
FoamFile
{
    version     2.0;
    format      ascii;
    class       volScalarField;
    location    "0.07";
    object      s_0;
}
// * * * * * * * * * * * * * * * * * * * * * * * * * * * * * * * * * * * * * //

dimensions      [0 0 0 0 0 0 0];

internalField   nonuniform List<scalar> 
12225
(
1
1
1
1
1
1
1
1
1
1
1
1
1
1
1
1
1
1
1
1
1
1
1
1
1
1
1
1
1
1
1
1
1
1
1
1
1
1
1
1
1
1
1
1
1
1
1
1
1
1
1
1
1
1
1
1
1
1
1
1
1
1
1
1
1
1
1
1
1
1
1
1
1
1
1
1
1
1
1
1
1
1
1
1
1
1
1
1
1
1
1
1
1
1
1
1
1
1
1
1
1
1
1
1
1
1
1
1
1
1
1
1
1
1
1
1
1
1
1
1
1
1
1
1
1
1
1
1
1
1
1
1
1
1
1
1
1
1
1
1
1
1
1
1
1
1
1
1
1
1
1
1
1
1
1
1
1
1
1
1
1
1
1
1
1
1
1
1
1
1
1
1
1
1
1
1
1
1
1
1
1
1
1
1
1
1
1
1
1
1
1
1
1
1
1
1
1
1
1
1
1
1
1
1
1
1
1
1
1
1
1
1
1
1
1
1
1
1
1
1
1
1
1
1
1
1
1
1
1
1
1
1
1
1
1
1
1
1
1
1
1
1
1
1
1
1
1
1
1
1
1
1
1
1
1
1
1
1
1
1
1
1
1
1
1
1
1
1
1
1
1
1
1
1
1
1
1
1
1
1
1
1
1
1
1
1
1
1
1
1
1
1
1
1
1
1
1
1
1
1
1
1
1
1
1
1
1
1
1
1
1
1
1
1
1
1
1
1
1
1
1
1
1
1
1
1
1
1
1
1
1
1
1
1
1
1
1
1
1
1
1
1
1
1
1
1
1
1
1
1
1
1
1
1
1
1
1
1
1
1
1
1
1
1
1
1
1
1
1
1
1
1
1
1
1
1
1
1
1
1
1
1
1
1
1
1
1
1
1
1
1
1
1
1
1
1
1
1
1
1
1
1
1
1
1
1
1
1
1
1
1
1
1
1
1
1
1
1
1
1
1
1
1
1
1
1
1
1
1
1
1
1
1
1
1
1
1
1
1
1
1
1
1
1
1
1
1
1
1
1
1
1
1
1
1
1
1
1
1
1
1
1
1
1
1
1
1
1
1
1
1
1
1
1
1
1
1
1
1
1
1
1
1
1
1
1
1
1
1
1
1
1
1
1
1
1
1
1
1
1
1
1
1
1
1
1
1
1
1
1
1
1
1
1
1
1
1
1
1
1
1
1
1
1
1
1
1
1
1
1
1
1
1
1
1
1
1
1
1
1
0.0219221
0.0643926
0.10266
0.132987
0.154096
0.169023
0.183763
0.211726
0.258659
0.304629
0.340411
0.373809
0.41225
0.455542
0.487152
0.507498
0.52482
0.535856
0.537962
0.537351
0.535182
0.529628
0.521672
0.508347
0.490282
0.469567
0.447034
0.420282
0.387668
0.350982
0.304336
0.238172
0.169514
0.132064
0.116478
0.0702575
0.0124435
0.00753815
0.010461
0.0133249
0.0147429
0.0165309
0.0201926
0.0241945
0.0280573
0.0313554
0.0333517
0.034934
0.0375051
0.0448737
0.0656759
0.0874684
0.108704
0.135346
0.239313
0.597012
0.78718
0.815706
0.818612
0.821711
0.824356
0.826621
0.828987
0.831156
0.833285
0.834834
0.836151
0.837558
0.839077
0.840501
0.841752
0.842821
0.843715
0.844804
0.845548
0.846432
0.847458
0.848232
0.848805
0.849694
0.850389
0.850793
0.851496
0.851851
0.852418
0.852943
0.853412
0.85375
0.854098
0.854397
0.8547
0.854971
0.855091
0.855145
0.855152
0.854999
0.854689
0.85439
0.853963
0.853561
0.852808
0.852104
0.851059
0.849725
0.848149
0.846051
0.843363
0.839956
0.83558
0.830003
0.822882
0.813939
0.802876
0.78944
0.773365
0.754498
0.732515
0.706674
0.676456
0.640584
0.597642
0.547372
0.488517
0.420252
0.346541
0.270693
0.193308
0.124859
0.0765606
0.0449201
0.0251584
0.0133964
0.00675605
0.00321807
0.00144571
0.000613448
0.000246911
9.28889e-05
3.00106e-05
9.92108e-06
5.11094e-06
2.54993e-06
1.22783e-06
5.74763e-07
2.62472e-07
1.17148e-07
5.1199e-08
2.1957e-08
9.26034e-09
3.84964e-09
1.58116e-09
6.43178e-10
2.59725e-10
1.04353e-10
4.18021e-11
1.67241e-11
6.69132e-12
2.67976e-12
1.0748e-12
4.31834e-13
1.73794e-13
7.00132e-14
2.81855e-14
1.13065e-14
4.50214e-15
1.77195e-15
6.86512e-16
2.60908e-16
9.69988e-17
3.52029e-17
1.24518e-17
4.28691e-18
1.43468e-18
4.65966e-19
1.46593e-19
4.4517e-20
1.30251e-20
3.57324e-21
9.4028e-22
-8.22451e-22
0.0156028
0.0483285
0.065954
0.0681033
0.0558426
0.0438899
0.0597494
0.0960565
0.173495
0.279435
0.393755
0.486593
0.558498
0.606542
0.63512
0.653691
0.666228
0.675947
0.683307
0.689159
0.694219
0.698696
0.701863
0.705874
0.705905
0.703984
0.698485
0.684828
0.668422
0.631992
0.578275
0.52596
0.412249
0.271041
0.192482
0.136817
0.0894977
0.0509337
0.0302342
0.0205847
0.0155098
0.0149026
0.0172979
0.0232816
0.0368648
0.0569382
0.0726254
0.0806989
0.092674
0.10304
0.106039
0.113233
0.22155
0.612854
0.745969
0.798427
0.820806
0.826569
0.83029
0.833414
0.836228
0.838915
0.841407
0.843483
0.84518
0.846583
0.848268
0.84984
0.851162
0.85235
0.853445
0.854372
0.855141
0.85583
0.856293
0.856989
0.857583
0.858035
0.858344
0.858982
0.859517
0.860036
0.860497
0.861017
0.861725
0.862473
0.863294
0.864005
0.864827
0.865787
0.866827
0.867949
0.869123
0.870167
0.87112
0.872317
0.873671
0.874466
0.875432
0.876303
0.876931
0.877832
0.879035
0.880638
0.882802
0.885602
0.889269
0.893884
0.899621
0.906602
0.914973
0.924712
0.935286
0.945972
0.955566
0.962754
0.968286
0.972712
0.976131
0.978691
0.980499
0.981567
0.98193
0.98135
0.977785
0.967394
0.953498
0.93126
0.888953
0.822269
0.731806
0.622422
0.503227
0.387615
0.287498
0.206617
0.144175
0.0978473
0.0646527
0.041611
0.0260918
0.0159427
0.00949622
0.00551766
0.00313024
0.00173591
0.000942313
0.000501442
0.000261973
0.000134565
6.80479e-05
3.39145e-05
1.66729e-05
8.08982e-06
3.87512e-06
1.83256e-06
8.5544e-07
3.94102e-07
1.79204e-07
8.04663e-08
3.5707e-08
1.56683e-08
6.79659e-09
2.90998e-09
1.22649e-09
5.07294e-10
2.05272e-10
8.10666e-11
3.11827e-11
1.1672e-11
4.24582e-12
1.50131e-12
5.15012e-13
1.71645e-13
5.53081e-14
1.72935e-14
5.21366e-15
1.42825e-15
3.92157e-16
-1.63064e-15
0.00759266
0.0171895
0.0269344
0.0250807
0.0200167
0.0280611
0.05696
0.119348
0.248976
0.401967
0.518283
0.586495
0.631266
0.648953
0.657494
0.663049
0.666655
0.668227
0.668053
0.668117
0.668548
0.669957
0.672803
0.678354
0.685293
0.692028
0.698975
0.703695
0.704199
0.702534
0.696722
0.684116
0.656795
0.600082
0.467386
0.316816
0.212195
0.140876
0.0943173
0.0692044
0.0514807
0.0473407
0.0497373
0.0579992
0.0758984
0.0977153
0.13094
0.165113
0.172871
0.177083
0.275308
0.567088
0.721458
0.794263
0.817335
0.826751
0.830607
0.832419
0.834405
0.835797
0.837354
0.839037
0.840518
0.841441
0.841911
0.842347
0.843313
0.843813
0.844035
0.844309
0.844502
0.844577
0.844697
0.844786
0.845018
0.845772
0.846228
0.846402
0.846818
0.847387
0.847544
0.847626
0.847975
0.848333
0.848496
0.84919
0.850374
0.851689
0.853487
0.855827
0.85854
0.861394
0.864422
0.867257
0.869819
0.872557
0.875726
0.877472
0.879194
0.879907
0.879748
0.877978
0.875492
0.87279
0.870484
0.868384
0.86655
0.865339
0.864855
0.865048
0.865932
0.86756
0.870826
0.87666
0.886326
0.900838
0.918155
0.935359
0.949582
0.960785
0.969993
0.977549
0.983614
0.988437
0.992117
0.994682
0.996245
0.997034
0.997328
0.997356
0.996771
0.994242
0.987638
0.972532
0.935617
0.843254
0.714717
0.576131
0.44294
0.328028
0.23539
0.163847
0.110816
0.072962
0.0468545
0.0294037
0.018068
0.0108935
0.00645769
0.00377167
0.00217468
0.00124021
0.000700942
0.000393488
0.000220002
0.000122875
6.86697e-05
3.8271e-05
2.11287e-05
1.1496e-05
6.14179e-06
3.21423e-06
1.64487e-06
8.22222e-07
4.00974e-07
1.90669e-07
8.82829e-08
3.97831e-08
1.74361e-08
7.46556e-09
3.12036e-09
1.27452e-09
5.07421e-10
1.97417e-10
7.45766e-11
2.75373e-11
9.79021e-12
3.40126e-12
1.14044e-12
3.01511e-13
0.00217594
0.00548025
0.00633169
0.0146321
0.0517186
0.151924
0.312244
0.508591
0.605877
0.651084
0.66192
0.664656
0.661911
0.654713
0.640994
0.621967
0.596992
0.578781
0.557103
0.544461
0.530528
0.528312
0.530352
0.536574
0.547575
0.564118
0.592979
0.622048
0.646886
0.67119
0.684862
0.685437
0.683055
0.67324
0.643228
0.569804
0.42862
0.326128
0.249409
0.199702
0.169742
0.147857
0.148927
0.156756
0.17906
0.233343
0.273021
0.28869
0.407465
0.566016
0.693377
0.772586
0.808661
0.822229
0.826976
0.829095
0.830574
0.831648
0.832233
0.832439
0.832492
0.832859
0.833687
0.834961
0.835694
0.836629
0.837183
0.837367
0.837415
0.837266
0.836779
0.836218
0.835947
0.835874
0.836001
0.836598
0.836685
0.836342
0.835425
0.834006
0.832114
0.829681
0.826646
0.823291
0.820138
0.818113
0.817446
0.817805
0.821048
0.826521
0.833773
0.840787
0.84765
0.854364
0.861611
0.86911
0.876777
0.883082
0.889775
0.896054
0.901788
0.907748
0.911363
0.912937
0.90982
0.903442
0.894413
0.884784
0.877403
0.871542
0.867739
0.865568
0.864292
0.863655
0.863575
0.864261
0.867329
0.876461
0.893622
0.91428
0.932595
0.947041
0.958646
0.968346
0.976728
0.983931
0.98983
0.994128
0.996818
0.998337
0.99913
0.999538
0.99964
0.99959
0.999223
0.997956
0.994831
0.987907
0.971344
0.924219
0.78888
0.615153
0.460302
0.332592
0.232992
0.158506
0.105018
0.0679888
0.0431581
0.0269512
0.016609
0.01013
0.00613063
0.00368976
0.00221148
0.00131869
0.000779124
0.000454525
0.000261082
0.000147306
8.14809e-05
4.41269e-05
2.33742e-05
1.21037e-05
6.12368e-06
3.02673e-06
1.46067e-06
6.88416e-07
3.16428e-07
1.41915e-07
6.18725e-08
2.63412e-08
1.09385e-08
4.44091e-09
1.7531e-09
6.76477e-10
2.52167e-10
9.17997e-11
3.21965e-11
1.00917e-11
0.000195643
0.00116455
0.036097
0.142094
0.364306
0.570176
0.651722
0.678537
0.681366
0.674585
0.659536
0.626798
0.585567
0.538519
0.494151
0.447243
0.411198
0.380795
0.355368
0.340251
0.328399
0.328689
0.332215
0.34086
0.359333
0.373977
0.402785
0.439095
0.470212
0.530437
0.601977
0.648804
0.669561
0.66992
0.664783
0.644514
0.582607
0.473935
0.402724
0.366032
0.335838
0.322639
0.302705
0.304698
0.317355
0.348467
0.48206
0.621876
0.687011
0.752534
0.794909
0.814399
0.822254
0.825062
0.826332
0.826871
0.826596
0.82521
0.824524
0.82444
0.826066
0.826876
0.828294
0.828799
0.829118
0.829202
0.828805
0.827366
0.825057
0.821936
0.818581
0.815798
0.814618
0.814161
0.81406
0.814132
0.813495
0.811291
0.807565
0.802544
0.796132
0.787806
0.777391
0.770159
0.768687
0.76905
0.771613
0.777304
0.786218
0.797883
0.809596
0.820041
0.828904
0.836288
0.843797
0.851771
0.860052
0.867818
0.877718
0.888601
0.899543
0.909833
0.919279
0.927385
0.934975
0.940358
0.94241
0.93813
0.926093
0.910293
0.895343
0.884978
0.877811
0.872882
0.868509
0.864474
0.862107
0.861686
0.863163
0.870702
0.892591
0.920142
0.942181
0.956838
0.966837
0.974314
0.980512
0.986022
0.99086
0.994588
0.997057
0.998506
0.999284
0.999675
0.999846
0.999886
0.999873
0.999777
0.999396
0.99811
0.994308
0.984036
0.954049
0.85501
0.662492
0.489208
0.349704
0.243463
0.165642
0.110505
0.0725476
0.0470202
0.030162
0.0191788
0.0120887
0.00753859
0.00464044
0.00281256
0.0016744
0.000977061
0.000557939
0.000311453
0.000169842
9.04527e-05
4.70369e-05
2.38859e-05
1.18428e-05
5.73439e-06
2.7101e-06
1.25045e-06
5.62492e-07
2.46686e-07
1.05124e-07
4.37486e-08
1.77147e-08
6.99854e-09
2.67822e-09
9.97461e-10
3.59665e-10
1.18437e-10
0.00463199
0.05354
0.202958
0.528514
0.663057
0.696463
0.694239
0.680386
0.643032
0.580559
0.524465
0.470306
0.425554
0.378542
0.342759
0.302227
0.273811
0.245048
0.226239
0.21249
0.204475
0.205768
0.211898
0.226664
0.248747
0.283407
0.309086
0.334559
0.372789
0.404142
0.44798
0.541995
0.618385
0.652911
0.65741
0.6519
0.628873
0.558797
0.510769
0.473427
0.456194
0.453763
0.435429
0.375845
0.382655
0.56296
0.69659
0.744008
0.781856
0.805009
0.816218
0.820392
0.821794
0.822164
0.820068
0.817197
0.81577
0.815276
0.815969
0.816877
0.817529
0.818329
0.818558
0.818133
0.816356
0.813859
0.81065
0.806782
0.801814
0.796588
0.791824
0.789805
0.789103
0.788835
0.788629
0.788032
0.785238
0.779678
0.772483
0.764846
0.756146
0.747939
0.745926
0.746583
0.750783
0.75782
0.764611
0.772873
0.785012
0.800476
0.816497
0.831254
0.84263
0.85005
0.855036
0.858773
0.862462
0.866435
0.87214
0.879942
0.889799
0.901431
0.913807
0.925977
0.936465
0.945717
0.9539
0.959934
0.962709
0.960593
0.94961
0.929536
0.910406
0.899473
0.893292
0.885792
0.876764
0.868221
0.863082
0.862143
0.864252
0.874583
0.903541
0.935373
0.956571
0.969272
0.977079
0.982493
0.986814
0.990598
0.993848
0.996336
0.997991
0.998974
0.999508
0.999777
0.999903
0.999949
0.999954
0.999939
0.99985
0.999497
0.998234
0.994016
0.980881
0.938619
0.801077
0.604951
0.442124
0.315437
0.220712
0.15199
0.103215
0.0691906
0.0457814
0.0298635
0.0191669
0.0120766
0.0074538
0.00449858
0.00265141
0.00152493
0.00085553
0.00046819
0.000249948
0.000130207
6.61953e-05
3.28511e-05
1.59117e-05
7.52319e-06
3.46934e-06
1.56059e-06
6.83366e-07
2.91016e-07
1.20618e-07
4.86985e-08
1.90754e-08
7.2541e-09
2.67849e-09
9.12414e-10
0.0385627
0.172655
0.546129
0.693688
0.711782
0.69763
0.641055
0.55339
0.509247
0.475748
0.435521
0.398697
0.349762
0.300573
0.255328
0.219768
0.194218
0.173505
0.157326
0.145071
0.132743
0.12561
0.125714
0.12949
0.141459
0.172453
0.226099
0.27957
0.323394
0.35141
0.377563
0.433745
0.527992
0.603014
0.637936
0.643062
0.633731
0.597095
0.563102
0.544176
0.540695
0.527545
0.439466
0.411912
0.568245
0.721846
0.771416
0.79481
0.809157
0.815263
0.817526
0.818458
0.815778
0.809158
0.805775
0.804641
0.804409
0.804965
0.805445
0.805594
0.805391
0.804362
0.802595
0.800166
0.797047
0.792688
0.788241
0.783255
0.777871
0.772
0.766287
0.76079
0.755065
0.749026
0.742583
0.735745
0.728609
0.720992
0.715336
0.713443
0.713214
0.71608
0.723399
0.733014
0.743504
0.755138
0.766005
0.780222
0.800824
0.824707
0.847198
0.86649
0.881231
0.892143
0.900344
0.906229
0.909326
0.908931
0.905116
0.902026
0.900683
0.904451
0.913321
0.924289
0.935412
0.945628
0.954862
0.962937
0.969715
0.974296
0.975759
0.973412
0.961997
0.938863
0.920153
0.912334
0.908709
0.902635
0.888805
0.876505
0.870726
0.870602
0.876429
0.89887
0.932475
0.957806
0.972613
0.980911
0.985892
0.989379
0.992194
0.994574
0.996513
0.997941
0.998877
0.999429
0.999727
0.999878
0.999947
0.999974
0.999978
0.999972
0.999928
0.999737
0.999007
0.996414
0.987749
0.959656
0.863589
0.673449
0.505232
0.370455
0.266611
0.188632
0.13121
0.0896445
0.0600539
0.0393701
0.0252115
0.0157473
0.00958472
0.00568223
0.0032809
0.00184546
0.00101158
0.000540598
0.000281754
0.000143267
7.10772e-05
3.44102e-05
1.62497e-05
7.48412e-06
3.35827e-06
1.46722e-06
6.22567e-07
2.57051e-07
1.03052e-07
4.00609e-08
1.51419e-08
5.31919e-09
0.223988
0.471571
0.708309
0.72606
0.688083
0.590007
0.520888
0.49412
0.469953
0.438512
0.386447
0.326496
0.279697
0.243119
0.215176
0.192964
0.174424
0.158009
0.143743
0.130609
0.118486
0.108546
0.104128
0.103507
0.10655
0.121092
0.166335
0.228584
0.289271
0.327452
0.349934
0.387621
0.476788
0.570682
0.61896
0.630776
0.627946
0.608625
0.593886
0.591895
0.585725
0.519834
0.43629
0.5376
0.7192
0.77901
0.800788
0.810441
0.814401
0.815296
0.814625
0.808897
0.80034
0.796571
0.795061
0.794549
0.794437
0.794532
0.794409
0.793343
0.791861
0.789857
0.78745
0.784672
0.781309
0.777399
0.772614
0.767232
0.760385
0.751537
0.739888
0.725191
0.710132
0.694422
0.679329
0.665649
0.658576
0.655512
0.654711
0.658018
0.668609
0.679155
0.690826
0.705781
0.720435
0.736702
0.754106
0.774419
0.797894
0.823673
0.847078
0.86703
0.882695
0.895177
0.90583
0.915588
0.924269
0.930895
0.935494
0.938501
0.940522
0.941305
0.941524
0.943371
0.947114
0.951924
0.957914
0.96454
0.971204
0.97724
0.981721
0.984072
0.984014
0.980733
0.967649
0.945645
0.931717
0.927169
0.924743
0.918155
0.90269
0.892248
0.889272
0.89169
0.907626
0.937425
0.962057
0.9773
0.985405
0.989692
0.992282
0.994236
0.995884
0.997239
0.998278
0.999005
0.999465
0.999731
0.999873
0.999944
0.999976
0.999987
0.999988
0.999982
0.999945
0.999785
0.999181
0.997051
0.98993
0.967015
0.890024
0.713585
0.547609
0.410239
0.300595
0.215386
0.150747
0.102902
0.0684106
0.0442475
0.0278265
0.0170128
0.0101143
0.00584989
0.00329355
0.00180614
0.000965239
0.000502938
0.000255564
0.00012667
6.12319e-05
2.88635e-05
1.32586e-05
5.93181e-06
2.58016e-06
1.09024e-06
4.47479e-07
1.78027e-07
6.8908e-08
2.49379e-08
0.373514
0.67739
0.745205
0.690367
0.562419
0.51585
0.497118
0.480303
0.448052
0.394347
0.344003
0.301996
0.265932
0.236901
0.215673
0.200654
0.187296
0.173189
0.157367
0.141324
0.129998
0.121789
0.1172
0.113513
0.122163
0.164174
0.211248
0.254575
0.299175
0.333862
0.353948
0.386644
0.464358
0.548912
0.600922
0.62227
0.624681
0.620185
0.620366
0.617264
0.58324
0.474536
0.494125
0.693898
0.776435
0.801728
0.810341
0.813287
0.81404
0.812277
0.803624
0.792834
0.788236
0.786161
0.785287
0.784961
0.78474
0.784398
0.783643
0.782109
0.780496
0.779397
0.77732
0.774898
0.771397
0.766779
0.759949
0.750912
0.73856
0.72147
0.697299
0.675029
0.653013
0.636823
0.625562
0.619645
0.615962
0.613413
0.611937
0.610882
0.609225
0.612856
0.620356
0.630505
0.645898
0.66278
0.685004
0.707799
0.734879
0.765995
0.795082
0.819942
0.83958
0.854984
0.868977
0.883556
0.898361
0.912156
0.924125
0.93426
0.94282
0.950432
0.957357
0.963722
0.96955
0.974181
0.976386
0.976757
0.977098
0.979517
0.983653
0.987353
0.989607
0.990078
0.989168
0.984752
0.970759
0.954848
0.946989
0.944966
0.943081
0.93615
0.924699
0.918691
0.918301
0.925292
0.947539
0.968181
0.982022
0.989505
0.993219
0.995111
0.996294
0.997265
0.998099
0.998769
0.999258
0.999584
0.999781
0.999892
0.99995
0.999979
0.99999
0.999993
0.999992
0.999984
0.999942
0.999776
0.999181
0.997167
0.990609
0.969748
0.900366
0.733209
0.568558
0.428456
0.313851
0.223349
0.154299
0.103424
0.0672487
0.0424272
0.0259857
0.0154624
0.00894573
0.00503613
0.00276069
0.00147443
0.000767516
0.000389517
0.000192737
9.29733e-05
4.37073e-05
2.00113e-05
8.91682e-06
3.85864e-06
1.62193e-06
6.60847e-07
2.62034e-07
9.76203e-08
0.47062
0.746331
0.733359
0.576317
0.524623
0.506877
0.494046
0.473564
0.43009
0.382575
0.344016
0.318457
0.301435
0.291764
0.287645
0.280272
0.267189
0.252587
0.234182
0.222833
0.21862
0.21766
0.228388
0.23681
0.241788
0.25849
0.272749
0.291999
0.318734
0.346109
0.366837
0.403785
0.482824
0.557904
0.603964
0.623178
0.630071
0.635969
0.633413
0.61443
0.521599
0.483225
0.649656
0.76376
0.799419
0.809564
0.812239
0.812838
0.811072
0.802158
0.788888
0.782797
0.780141
0.778888
0.778015
0.776841
0.775864
0.77519
0.774845
0.774514
0.77351
0.771471
0.768726
0.764257
0.757938
0.748572
0.733839
0.713645
0.687719
0.661773
0.640507
0.622105
0.608222
0.599555
0.589873
0.57776
0.558335
0.537685
0.515218
0.50039
0.492809
0.490047
0.497197
0.508668
0.523683
0.541187
0.560062
0.579724
0.598959
0.62155
0.652441
0.68612
0.716521
0.740059
0.760082
0.781601
0.804069
0.824976
0.84479
0.864836
0.886254
0.909007
0.931664
0.951699
0.967262
0.977932
0.984751
0.988867
0.990628
0.989829
0.988388
0.989064
0.991707
0.993488
0.994053
0.993844
0.992472
0.987459
0.975915
0.966715
0.96325
0.962649
0.961755
0.958118
0.951241
0.948139
0.949184
0.95931
0.975211
0.986248
0.992617
0.995771
0.997237
0.997958
0.998446
0.998872
0.999239
0.999524
0.999723
0.99985
0.999923
0.999964
0.999984
0.999993
0.999996
0.999996
0.999994
0.999981
0.999928
0.999736
0.999087
0.996975
0.99019
0.968251
0.894097
0.722963
0.556296
0.413566
0.297324
0.206755
0.139119
0.0906358
0.0572249
0.0350497
0.0208473
0.0120532
0.00677968
0.00371251
0.00198018
0.00102914
0.000521275
0.000257321
0.000123775
5.7985e-05
2.64413e-05
1.17226e-05
5.04634e-06
2.10604e-06
8.55494e-07
3.27848e-07
0.540647
0.762378
0.651317
0.545193
0.520169
0.508075
0.498578
0.471898
0.438205
0.431899
0.431245
0.421305
0.402286
0.387998
0.377062
0.361222
0.353288
0.347728
0.336733
0.325366
0.316165
0.304033
0.297654
0.295546
0.297877
0.303016
0.311039
0.325033
0.345504
0.37029
0.401822
0.450876
0.523351
0.580519
0.616366
0.634538
0.643262
0.640979
0.628242
0.558243
0.502038
0.583658
0.741001
0.792928
0.80776
0.811331
0.811902
0.810203
0.801612
0.788714
0.78017
0.776238
0.77432
0.773073
0.772612
0.772475
0.772098
0.770949
0.7698
0.768182
0.764956
0.759482
0.7519
0.740597
0.727123
0.709139
0.686303
0.661777
0.638213
0.618178
0.60244
0.588444
0.577162
0.559376
0.531248
0.487394
0.439307
0.399229
0.368134
0.352822
0.347169
0.354327
0.375604
0.404483
0.438675
0.47625
0.507224
0.532577
0.55122
0.562958
0.572903
0.584073
0.597279
0.610572
0.623376
0.63899
0.659108
0.678991
0.695119
0.711293
0.733631
0.767047
0.813623
0.868208
0.915778
0.952837
0.975792
0.987756
0.993161
0.995432
0.995979
0.995033
0.994215
0.994906
0.996217
0.996689
0.996684
0.996317
0.994894
0.990149
0.982703
0.978442
0.977628
0.977744
0.977585
0.975963
0.972004
0.970824
0.972835
0.981649
0.989939
0.994852
0.997369
0.998506
0.998989
0.99923
0.999416
0.999588
0.999733
0.99984
0.999911
0.999954
0.999977
0.99999
0.999996
0.999998
0.999998
0.999997
0.999992
0.999972
0.999898
0.999644
0.99881
0.996088
0.987086
0.956496
0.851681
0.667053
0.500264
0.361526
0.25205
0.16973
0.110546
0.0697329
0.0426596
0.0253394
0.0146289
0.00821516
0.00449044
0.00239017
0.00123929
0.000625995
0.000308045
0.000147621
6.8865e-05
3.1243e-05
1.37747e-05
5.88786e-06
2.44992e-06
9.6506e-07
0.596565
0.751417
0.606362
0.539529
0.527331
0.527852
0.526887
0.525557
0.531755
0.529355
0.501674
0.483342
0.479801
0.476978
0.466913
0.458725
0.452071
0.441732
0.429291
0.419156
0.41274
0.406799
0.402935
0.39837
0.396026
0.395051
0.399844
0.407162
0.423977
0.454951
0.505023
0.559137
0.600197
0.626238
0.639552
0.644509
0.643461
0.630824
0.573564
0.523807
0.542938
0.708386
0.782248
0.804598
0.810233
0.811175
0.809621
0.801881
0.79013
0.7799
0.77398
0.771288
0.769935
0.768939
0.767806
0.766328
0.764709
0.762649
0.759548
0.755018
0.745951
0.729946
0.711065
0.69571
0.681154
0.662564
0.640849
0.617335
0.600602
0.585832
0.577032
0.563152
0.538266
0.488458
0.417939
0.35053
0.29464
0.261727
0.246303
0.241125
0.246025
0.262124
0.288233
0.328881
0.37932
0.430927
0.477008
0.512373
0.538243
0.554527
0.562745
0.568032
0.57284
0.577477
0.581661
0.586709
0.594724
0.604596
0.613115
0.619291
0.625184
0.634638
0.653663
0.694149
0.770715
0.863142
0.92932
0.96787
0.986792
0.994623
0.997313
0.998129
0.9981
0.997534
0.997484
0.998009
0.998351
0.998393
0.998309
0.997926
0.996579
0.992798
0.989326
0.98818
0.988275
0.988485
0.988234
0.98657
0.984835
0.984896
0.987648
0.993077
0.996472
0.998294
0.999161
0.999535
0.999691
0.999772
0.999833
0.999885
0.999928
0.999958
0.999977
0.999989
0.999995
0.999998
0.999999
0.999999
0.999999
0.999996
0.999986
0.99995
0.999825
0.9994
0.997967
0.993078
0.976063
0.916603
0.749755
0.563977
0.408137
0.284426
0.191252
0.124318
0.0782507
0.047764
0.028307
0.0163035
0.00913266
0.00497834
0.002642
0.00136533
0.000687152
0.000336731
0.00016063
7.45291e-05
3.36231e-05
1.47137e-05
6.26858e-06
2.53572e-06
0.618653
0.730301
0.589714
0.544522
0.541846
0.552154
0.574074
0.582418
0.586071
0.595779
0.621179
0.631441
0.636164
0.639655
0.641282
0.638561
0.629665
0.625097
0.613606
0.60077
0.589436
0.576932
0.563638
0.555296
0.551402
0.550587
0.557007
0.567071
0.580253
0.59628
0.605124
0.620737
0.631427
0.637475
0.640007
0.638162
0.618858
0.573289
0.541688
0.544053
0.6714
0.767483
0.800037
0.809212
0.810998
0.810397
0.805427
0.795617
0.785432
0.776692
0.770591
0.768126
0.766785
0.765641
0.764335
0.762202
0.759293
0.755922
0.750007
0.738262
0.71731
0.695277
0.676448
0.662513
0.644543
0.618723
0.598297
0.585967
0.578491
0.571565
0.556644
0.524044
0.456695
0.373759
0.29709
0.240786
0.208868
0.193806
0.188396
0.18942
0.201779
0.223032
0.249292
0.284992
0.333106
0.391963
0.449934
0.497727
0.531843
0.552863
0.562656
0.567745
0.571224
0.574102
0.576341
0.578635
0.582529
0.588664
0.59552
0.601088
0.60506
0.608582
0.613824
0.624293
0.647446
0.705764
0.819743
0.912295
0.962184
0.985671
0.995061
0.998156
0.999014
0.999202
0.999115
0.999024
0.999137
0.999299
0.999326
0.999303
0.999189
0.998775
0.997388
0.995717
0.994915
0.994782
0.99476
0.994645
0.993945
0.992733
0.992486
0.993106
0.99566
0.997804
0.998947
0.99951
0.999765
0.999873
0.999921
0.999946
0.999963
0.999975
0.999985
0.999991
0.999996
0.999998
0.999999
0.999999
0.999999
0.999999
0.999998
0.999992
0.99997
0.999891
0.999616
0.998651
0.995242
0.983093
0.940067
0.799153
0.601593
0.434469
0.301916
0.202356
0.131099
0.0822471
0.0500394
0.0295574
0.0169656
0.00946929
0.00514222
0.00271781
0.0013984
0.000700408
0.000341459
0.000161922
7.46705e-05
3.34247e-05
1.45684e-05
6.04433e-06
0.632049
0.72018
0.585386
0.553161
0.551965
0.565998
0.604597
0.65287
0.681771
0.696723
0.71379
0.730184
0.743505
0.755397
0.76091
0.762863
0.758429
0.74565
0.72782
0.707196
0.679492
0.659274
0.636202
0.617503
0.60278
0.59482
0.591064
0.590236
0.593181
0.600104
0.609207
0.616287
0.619686
0.619478
0.610762
0.591342
0.568716
0.555946
0.558386
0.644891
0.751388
0.79348
0.80736
0.810865
0.811253
0.809783
0.803865
0.794142
0.784866
0.776744
0.769804
0.766947
0.765389
0.763946
0.762349
0.759999
0.75625
0.750136
0.740585
0.720811
0.694746
0.669838
0.649974
0.630148
0.607799
0.592387
0.582747
0.573871
0.565878
0.549738
0.515446
0.45272
0.368227
0.286949
0.22428
0.188428
0.170775
0.162875
0.160482
0.165389
0.178319
0.205737
0.239436
0.276063
0.323928
0.383555
0.443621
0.494198
0.530529
0.553678
0.567935
0.573991
0.575887
0.576865
0.578028
0.579576
0.582389
0.58747
0.594082
0.600255
0.604972
0.608395
0.61179
0.617422
0.628398
0.649914
0.699869
0.812583
0.910238
0.962439
0.986304
0.995581
0.998611
0.999435
0.999648
0.999685
0.999684
0.999709
0.999751
0.999754
0.999744
0.999698
0.999527
0.998982
0.998453
0.998186
0.998072
0.997997
0.997858
0.997419
0.996829
0.996652
0.996786
0.997691
0.998822
0.999439
0.999744
0.999884
0.999944
0.99997
0.999982
0.999988
0.999992
0.999995
0.999997
0.999998
0.999999
1
1
1
1
0.999998
0.999994
0.999978
0.999918
0.999701
0.998909
0.996021
0.985501
0.947686
0.817776
0.61476
0.442059
0.305756
0.203983
0.131559
0.0821735
0.0497749
0.0292695
0.0167224
0.00928872
0.00501871
0.0026386
0.00134997
0.000672143
0.000325505
0.000153305
7.01032e-05
3.12246e-05
1.327e-05
0.645368
0.712372
0.588533
0.567746
0.56975
0.589359
0.631274
0.682773
0.725257
0.767741
0.820069
0.849085
0.862977
0.874177
0.879633
0.882294
0.883247
0.882225
0.877949
0.870713
0.855363
0.827024
0.78631
0.738057
0.687639
0.650569
0.620208
0.603491
0.590623
0.583039
0.579126
0.577599
0.57797
0.577931
0.576172
0.572984
0.570512
0.581103
0.650594
0.74164
0.7863
0.804228
0.810074
0.811246
0.811226
0.80916
0.802944
0.793525
0.784785
0.777238
0.769673
0.766047
0.764191
0.762722
0.761157
0.758984
0.755519
0.749207
0.735282
0.708331
0.675436
0.646088
0.624721
0.610719
0.594984
0.578271
0.564611
0.556431
0.545013
0.522253
0.476914
0.401803
0.314046
0.239291
0.190508
0.165876
0.15419
0.150008
0.151448
0.156962
0.169803
0.198761
0.239014
0.285132
0.338838
0.401003
0.461634
0.511617
0.546144
0.567553
0.578354
0.583299
0.585019
0.585401
0.586368
0.588817
0.591523
0.595215
0.602502
0.612573
0.622968
0.630889
0.63463
0.636303
0.639356
0.648838
0.67548
0.73739
0.83611
0.921325
0.967931
0.98858
0.996414
0.998952
0.999655
0.999835
0.999883
0.999898
0.999913
0.999918
0.999917
0.99991
0.999886
0.999792
0.999606
0.999476
0.999403
0.999362
0.999319
0.999225
0.998976
0.998764
0.998701
0.998734
0.999013
0.999477
0.999748
0.999885
0.999949
0.999977
0.999989
0.999994
0.999997
0.999998
0.999999
0.999999
1
1
1
1
1
1
0.999999
0.999995
0.999981
0.999928
0.999726
0.998967
0.996118
0.98555
0.947068
0.814038
0.608209
0.434683
0.298882
0.198267
0.127168
0.0789941
0.0475822
0.0278195
0.0158003
0.00872295
0.0046835
0.00244611
0.00124293
0.000614209
0.000295165
0.000137733
6.25996e-05
2.72038e-05
0.65072
0.709184
0.590558
0.57426
0.585504
0.630412
0.709777
0.808247
0.856186
0.88369
0.897621
0.903669
0.906387
0.907635
0.908084
0.908765
0.909288
0.911117
0.914812
0.919679
0.924149
0.929156
0.933088
0.923434
0.897625
0.844941
0.782028
0.721326
0.684404
0.651962
0.627899
0.61046
0.600532
0.595875
0.598407
0.607047
0.634116
0.689346
0.747902
0.783468
0.800931
0.808279
0.810554
0.811164
0.810735
0.807623
0.800687
0.791429
0.783193
0.776028
0.768373
0.763592
0.761187
0.759817
0.758606
0.756909
0.754128
0.748752
0.736662
0.709507
0.675666
0.64379
0.618721
0.598608
0.576306
0.562021
0.55502
0.547242
0.533339
0.505436
0.445723
0.356119
0.27567
0.215641
0.178181
0.158094
0.149372
0.148476
0.150217
0.156239
0.170417
0.203584
0.268943
0.339502
0.41267
0.482963
0.539384
0.575235
0.593567
0.598777
0.597504
0.59497
0.593339
0.593377
0.595248
0.601298
0.611431
0.61905
0.627155
0.641009
0.660437
0.681933
0.697469
0.701728
0.701575
0.699009
0.700725
0.726503
0.798189
0.878181
0.940761
0.975972
0.991583
0.997383
0.999257
0.999785
0.999917
0.999954
0.999968
0.999973
0.999973
0.999972
0.999968
0.999954
0.999909
0.999864
0.999837
0.999821
0.99981
0.999791
0.999737
0.999655
0.999607
0.999597
0.999612
0.999704
0.999838
0.999918
0.999961
0.999982
0.999992
0.999996
0.999998
0.999999
0.999999
1
1
1
1
1
1
1
1
0.999999
0.999995
0.999982
0.999928
0.999718
0.998904
0.995775
0.984007
0.940756
0.794768
0.58836
0.417496
0.285131
0.187906
0.119733
0.0738792
0.0441952
0.025657
0.0144664
0.00792748
0.00422367
0.00218848
0.00110251
0.000540039
0.000256846
0.000118959
5.27537e-05
0.654861
0.709612
0.599459
0.588453
0.620452
0.717469
0.831182
0.877308
0.89603
0.902378
0.90365
0.902439
0.897975
0.891757
0.886745
0.884399
0.883341
0.882997
0.882949
0.88673
0.897321
0.918403
0.945445
0.957704
0.964396
0.966957
0.948193
0.904676
0.839959
0.797748
0.763614
0.735168
0.714654
0.704312
0.700781
0.717013
0.738618
0.765637
0.78705
0.800319
0.806913
0.809534
0.810357
0.810404
0.808527
0.802889
0.793493
0.783077
0.774644
0.767329
0.760498
0.754835
0.751831
0.750815
0.750937
0.750924
0.749591
0.74594
0.736842
0.715857
0.681264
0.647994
0.621632
0.59955
0.576918
0.552168
0.536713
0.531399
0.519889
0.489375
0.430514
0.356012
0.280025
0.221646
0.184809
0.16333
0.154292
0.154609
0.15863
0.170139
0.1962
0.256267
0.334801
0.41693
0.501828
0.574128
0.620477
0.637698
0.637479
0.635038
0.629662
0.623526
0.618199
0.614594
0.613416
0.615876
0.632536
0.658935
0.672183
0.68111
0.696724
0.722714
0.757024
0.787447
0.800137
0.800411
0.793904
0.788303
0.802061
0.863559
0.924193
0.963598
0.984939
0.994663
0.998343
0.999532
0.99987
0.999957
0.999981
0.999988
0.99999
0.99999
0.99999
0.999987
0.999978
0.999964
0.999954
0.999949
0.999947
0.999943
0.999935
0.999916
0.999903
0.999898
0.999899
0.999913
0.999946
0.999969
0.999984
0.999992
0.999996
0.999998
0.999999
1
1
1
1
1
1
1
1
1
1
1
0.999999
0.999995
0.99998
0.999919
0.999675
0.998709
0.994949
0.98071
0.928206
0.762422
0.558868
0.393515
0.26675
0.174485
0.110338
0.0675492
0.0400845
0.0230796
0.0129048
0.00701108
0.00370255
0.00190038
0.000948081
0.000459161
0.000216476
9.78218e-05
0.656907
0.720714
0.616193
0.606692
0.656483
0.778746
0.865447
0.89282
0.900686
0.902111
0.900194
0.888899
0.87628
0.872301
0.871659