/*--------------------------------*- C++ -*----------------------------------*\
  =========                 |
  \\      /  F ield         | OpenFOAM: The Open Source CFD Toolbox
   \\    /   O peration     | Website:  https://openfoam.org
    \\  /    A nd           | Version:  7
     \\/     M anipulation  |
\*---------------------------------------------------------------------------*/
FoamFile
{
    version     2.0;
    format      ascii;
    class       volVectorField;
    location    "0.07";
    object      UMean;
}
// * * * * * * * * * * * * * * * * * * * * * * * * * * * * * * * * * * * * * //

dimensions      [0 1 -1 0 0 0 0];

internalField   nonuniform List<vector> 
12225
(
(4.7728 0.164651 0)
(4.17692 0.111599 0)
(3.71495 0.0982894 0)
(3.34469 0.081776 0)
(3.01117 0.0686016 0)
(2.70016 0.058905 0)
(2.41268 0.0505481 0)
(2.15281 0.042688 0)
(1.92395 0.0344579 0)
(1.72661 0.0269681 0)
(1.56254 0.0187343 0)
(1.42816 0.0131115 0)
(1.32491 0.00500064 0)
(1.24478 0.00420705 0)
(1.18747 -0.00613192 0)
(1.1483 0.00265589 0)
(1.12034 -0.0192759 0)
(1.1138 -0.000664449 0)
(5.02343 0.112911 0)
(4.87671 0.0734496 0)
(4.75876 0.0897982 0)
(4.66877 0.0894986 0)
(4.57504 0.0881029 0)
(4.46964 0.0885941 0)
(4.35441 0.0889571 0)
(4.23506 0.0872836 0)
(4.11409 0.0839801 0)
(3.9967 0.0780465 0)
(3.88182 0.0716601 0)
(3.77655 0.0624322 0)
(3.67445 0.0555407 0)
(3.58788 0.044527 0)
(3.49943 0.0407574 0)
(3.4335 0.0272641 0)
(3.35632 0.026929 0)
(3.30486 0.000828321 0)
(4.99683 0.172795 0)
(4.877 0.122906 0)
(4.79841 0.131229 0)
(4.76779 0.12592 0)
(4.75217 0.118961 0)
(4.73626 0.115775 0)
(4.71789 0.113937 0)
(4.69781 0.111597 0)
(4.67615 0.107155 0)
(4.6523 0.101671 0)
(4.62625 0.0936303 0)
(4.59764 0.086186 0)
(4.56809 0.0759286 0)
(4.53673 0.0693121 0)
(4.50724 0.0584936 0)
(4.4758 0.0538017 0)
(4.45014 0.0415223 0)
(4.41719 0.028859 0)
(4.9937 0.188918 0)
(4.89636 0.120283 0)
(4.81897 0.119308 0)
(4.78434 0.115532 0)
(4.77108 0.108698 0)
(4.76335 0.104753 0)
(4.75798 0.10327 0)
(4.75545 0.101571 0)
(4.75567 0.0986986 0)
(4.75733 0.09402 0)
(4.75939 0.0884836 0)
(4.76049 0.0814381 0)
(4.76104 0.0747782 0)
(4.75985 0.0669274 0)
(4.75946 0.0606427 0)
(4.7571 0.0525985 0)
(4.75839 0.044695 0)
(4.75486 0.0334884 0)
(4.99771 0.21491 0)
(4.9239 0.144688 0)
(4.8544 0.136062 0)
(4.81765 0.131792 0)
(4.80218 0.12302 0)
(4.79331 0.115795 0)
(4.7869 0.111292 0)
(4.78338 0.107665 0)
(4.78329 0.103157 0)
(4.7857 0.0976387 0)
(4.78972 0.0909475 0)
(4.79408 0.0838401 0)
(4.79882 0.0761245 0)
(4.80323 0.0686019 0)
(4.80841 0.0609289 0)
(4.81345 0.0528097 0)
(4.82006 0.0441824 0)
(4.82529 0.0319239 0)
(4.99341 0.229981 0)
(4.93918 0.159021 0)
(4.8801 0.141642 0)
(4.84472 0.135397 0)
(4.82915 0.125735 0)
(4.82106 0.116571 0)
(4.81531 0.110167 0)
(4.81182 0.105218 0)
(4.81125 0.10011 0)
(4.81313 0.0940911 0)
(4.81664 0.087303 0)
(4.82073 0.0798974 0)
(4.82528 0.072276 0)
(4.82976 0.064465 0)
(4.83495 0.056553 0)
(4.84012 0.0482124 0)
(4.84638 0.0387956 0)
(4.85154 0.0276953 0)
(4.99588 0.244081 0)
(4.95536 0.17533 0)
(4.90514 0.151048 0)
(4.87114 0.141913 0)
(4.85505 0.131587 0)
(4.84751 0.121151 0)
(4.8427 0.11296 0)
(4.83963 0.106593 0)
(4.83891 0.10055 0)
(4.84038 0.093975 0)
(4.84345 0.0867708 0)
(4.84722 0.0791002 0)
(4.85153 0.0711956 0)
(4.85586 0.0630553 0)
(4.86081 0.054786 0)
(4.86553 0.0459565 0)
(4.87108 0.036433 0)
(4.87521 0.0256735 0)
(5.00108 0.255058 0)
(4.97194 0.190288 0)
(4.93072 0.160859 0)
(4.89933 0.14789 0)
(4.88297 0.136463 0)
(4.87548 0.124877 0)
(4.87108 0.115031 0)
(4.86817 0.107106 0)
(4.86719 0.099987 0)
(4.86826 0.0927086 0)
(4.87102 0.0849992 0)
(4.87459 0.0769412 0)
(4.87874 0.0686966 0)
(4.88285 0.0602945 0)
(4.88746 0.0516944 0)
(4.89164 0.0427001 0)
(4.89648 0.0331429 0)
(4.89974 0.0228124 0)
(5.00142 0.261568 0)
(4.98134 0.202341 0)
(4.94912 0.169864 0)
(4.92185 0.153203 0)
(4.90621 0.140497 0)
(4.89894 0.128152 0)
(4.89524 0.117107 0)
(4.89312 0.107842 0)
(4.89263 0.0996616 0)
(4.89387 0.0916943 0)
(4.89663 0.0835427 0)
(4.90016 0.0751578 0)
(4.90423 0.066652 0)
(4.90822 0.0580286 0)
(4.91254 0.0492563 0)
(4.9163 0.0401875 0)
(4.92048 0.0307294 0)
(4.92315 0.0208222 0)
(4.99765 0.26844 0)
(4.9845 0.213502 0)
(4.95983 0.179088 0)
(4.93668 0.159154 0)
(4.92223 0.144767 0)
(4.91535 0.131503 0)
(4.91227 0.119297 0)
(4.9108 0.108676 0)
(4.91066 0.09934 0)
(4.91195 0.0905882 0)
(4.91462 0.0819345 0)
(4.91808 0.0732238 0)
(4.92209 0.0644676 0)
(4.92605 0.0556728 0)
(4.93021 0.0468011 0)
(4.9338 0.0377782 0)
(4.93758 0.0285323 0)
(4.94004 0.0190934 0)
(4.99559 0.272387 0)
(4.9867 0.221873 0)
(4.96713 0.186681 0)
(4.94726 0.164108 0)
(4.93395 0.147857 0)
(4.92734 0.133648 0)
(4.92464 0.120576 0)
(4.92366 0.108896 0)
(4.92383 0.0985454 0)
(4.92512 0.0890014 0)
(4.92759 0.0797856 0)
(4.93079 0.0706788 0)
(4.93454 0.061639 0)
(4.93822 0.0526711 0)
(4.94209 0.043736 0)
(4.94535 0.0347894 0)
(4.94887 0.0257691 0)
(4.95108 0.0167208 0)
(5.00238 0.27489 0)
(4.99654 0.228832 0)
(4.98115 0.193934 0)
(4.96449 0.169598 0)
(4.95277 0.151591 0)
(4.94679 0.136306 0)
(4.9445 0.122403 0)
(4.94395 0.109858 0)
(4.94438 0.0986366 0)
(4.94564 0.0883928 0)
(4.94784 0.0786987 0)
(4.95062 0.0692875 0)
(4.95391 0.0600515 0)
(4.95712 0.0509731 0)
(4.96053 0.0420009 0)
(4.96333 0.0331282 0)
(4.96642 0.0242788 0)
(4.96827 0.0155411 0)
(5.0004 0.277881 0)
(4.99731 0.233866 0)
(4.98588 0.199233 0)
(4.97269 0.173499 0)
(4.96305 0.153808 0)
(4.95798 0.137338 0)
(4.95618 0.122628 0)
(4.95605 0.109369 0)
(4.95686 0.097463 0)
(4.95837 0.0866434 0)
(4.96066 0.0765249 0)
(4.96343 0.0668304 0)
(4.96667 0.0574145 0)
(4.96978 0.0482362 0)
(4.97309 0.0392491 0)
(4.97573 0.0304576 0)
(4.97872 0.0217934 0)
(4.98035 0.0133304 0)
(5.00939 0.280531 0)
(5.0089 0.239825 0)
(5.0009 0.205913 0)
(4.99076 0.179047 0)
(4.9832 0.157758 0)
(4.9793 0.140012 0)
(4.97815 0.12439 0)
(4.97854 0.110315 0)
(4.97982 0.0975993 0)
(4.98167 0.0860321 0)
(4.98413 0.0753364 0)
(4.98693 0.0652605 0)
(4.9901 0.0556299 0)
(4.99309 0.0463678 0)
(4.99624 0.0373997 0)
(4.99871 0.0287262 0)
(5.0015 0.0202649 0)
(5.00302 0.0121066 0)
(5.00314 0.279306 0)
(5.00557 0.241754 0)
(5.00146 0.208805 0)
(4.99525 0.181258 0)
(4.99076 0.158623 0)
(4.98889 0.139632 0)
(4.98907 0.123111 0)
(4.99046 0.108365 0)
(4.99255 0.0950471 0)
(4.99506 0.0829328 0)
(4.99797 0.0718034 0)
(5.00105 0.0614567 0)
(5.00438 0.051709 0)
(5.0075 0.0424503 0)
(5.01073 0.033572 0)
(5.01335 0.0250617 0)
(5.01624 0.0168319 0)
(5.01799 0.00897276 0)
(5.01248 0.281842 0)
(5.01511 0.246058 0)
(5.01284 0.213466 0)
(5.0093 0.18523 0)
(5.00736 0.16143 0)
(5.00739 0.141244 0)
(5.00879 0.123696 0)
(5.01101 0.108087 0)
(5.01371 0.0940256 0)
(5.01667 0.0812877 0)
(5.01987 0.0696733 0)
(5.02312 0.058993 0)
(5.02649 0.0490487 0)
(5.02965 0.0397228 0)
(5.03281 0.0308899 0)
(5.03542 0.0225523 0)
(5.03812 0.0145961 0)
(5.03988 0.00713813 0)
(4.99963 0.279986 0)
(5.00305 0.244371 0)
(5.00296 0.211853 0)
(5.00254 0.183135 0)
(5.00371 0.158366 0)
(5.0063 0.137182 0)
(5.00969 0.118885 0)
(5.01347 0.102772 0)
(5.01745 0.088327 0)
(5.0215 0.0752554 0)
(5.0256 0.0633596 0)
(5.02958 0.0524954 0)
(5.03352 0.0424937 0)
(5.03714 0.0332439 0)
(5.04066 0.0245949 0)
(5.04363 0.016527 0)
(5.04664 0.0088957 0)
(5.04879 0.00179109 0)
(5.00259 0.284089 0)
(5.00795 0.245879 0)
(5.01052 0.211804 0)
(5.01291 0.182056 0)
(5.01678 0.156348 0)
(5.02184 0.13419 0)
(5.02736 0.11499 0)
(5.03287 0.098182 0)
(5.03824 0.0833109 0)
(5.04337 0.0700632 0)
(5.04828 0.0581867 0)
(5.05287 0.0474983 0)
(5.05723 0.0377909 0)
(5.06113 0.0289474 0)
(5.06489 0.0207842 0)
(5.068 0.0132866 0)
(5.07115 0.00626173 0)
(5.07333 -0.000168119 0)
(5.00309 0.278634 0)
(5.01212 0.238755 0)
(5.01894 0.20286 0)
(5.02558 0.171638 0)
(5.03354 0.144922 0)
(5.04232 0.122068 0)
(5.05104 0.102344 0)
(5.0592 0.0851303 0)
(5.06673 0.0699596 0)
(5.07367 0.0564983 0)
(5.08011 0.0444751 0)
(5.08596 0.0336937 0)
(5.09133 0.0239658 0)
(5.09605 0.01518 0)
(5.1004 0.00717744 0)
(5.10404 -8.37483e-05 0)
(5.10757 -0.00678007 0)
(5.11022 -0.0128588 0)
(5.00127 0.274416 0)
(5.01164 0.230406 0)
(5.02172 0.190964 0)
(5.0329 0.157542 0)
(5.04547 0.130056 0)
(5.05809 0.107508 0)
(5.06964 0.0887178 0)
(5.07987 0.0727671 0)
(5.08905 0.0590372 0)
(5.09742 0.0471253 0)
(5.10516 0.0367044 0)
(5.11221 0.0275232 0)
(5.11866 0.0193289 0)
(5.12437 0.011982 0)
(5.12959 0.00529096 0)
(5.13404 -0.000769895 0)
(5.13826 -0.0063985 0)
(5.14158 -0.0114968 0)
(5.00126 0.2715 0)
(5.0137 0.220301 0)
(5.02818 0.176578 0)
(5.04476 0.141269 0)
(5.06233 0.113084 0)
(5.07901 0.0900132 0)
(5.09375 0.0704701 0)
(5.10655 0.0536212 0)
(5.11783 0.0391079 0)
(5.12788 0.0266923 0)
(5.13686 0.0160619 0)
(5.14473 0.00689263 0)
(5.1517 -0.00112689 0)
(5.15775 -0.00819984 0)
(5.16325 -0.0145283 0)
(5.16797 -0.0201913 0)
(5.17248 -0.0253563 0)
(5.17609 -0.0299953 0)
(5.00698 0.265346 0)
(5.0235 0.204763 0)
(5.04439 0.157307 0)
(5.06717 0.122722 0)
(5.089 0.097519 0)
(5.10803 0.0780122 0)
(5.12414 0.0618998 0)
(5.13821 0.0482065 0)
(5.15101 0.0365368 0)
(5.16269 0.026577 0)
(5.1732 0.01795 0)
(5.18242 0.0103363 0)
(5.19052 0.00348124 0)
(5.19752 -0.00271793 0)
(5.2038 -0.00837073 0)
(5.20918 -0.0134643 0)
(5.21423 -0.0181532 0)
(5.21832 -0.0223581 0)
(5.0018 0.260649 0)
(5.02801 0.187968 0)
(5.06051 0.135007 0)
(5.09318 0.0985169 0)
(5.12169 0.0718501 0)
(5.14474 0.0502441 0)
(5.16338 0.0320157 0)
(5.17925 0.01707 0)
(5.19331 0.00524794 0)
(5.20577 -0.00408595 0)
(5.21667 -0.0117225 0)
(5.226 -0.0182541 0)
(5.23406 -0.0240207 0)
(5.24096 -0.0291662 0)
(5.2471 -0.0337977 0)
(5.25229 -0.0379527 0)
(5.25708 -0.0417341 0)
(5.26085 -0.0451298 0)
(5.00452 0.244063 0)
(5.03997 0.16393 0)
(5.08371 0.115157 0)
(5.12378 0.0878346 0)
(5.15535 0.0692364 0)
(5.17955 0.0527738 0)
(5.19967 0.0378557 0)
(5.2178 0.0253084 0)
(5.23431 0.0152191 0)
(5.24879 0.00698107 0)
(5.26116 -5.88462e-05 0)
(5.27162 -0.00625665 0)
(5.28067 -0.011772 0)
(5.2885 -0.0166588 0)
(5.29547 -0.0210351 0)
(5.30143 -0.0249471 0)
(5.30688 -0.0285456 0)
(5.3113 -0.0317895 0)
(5.00472 0.227988 0)
(5.05647 0.126653 0)
(5.11856 0.0721205 0)
(5.16882 0.0441128 0)
(5.20332 0.0242628 0)
(5.22793 0.00694564 0)
(5.24864 -0.00683177 0)
(5.26753 -0.0165956 0)
(5.28444 -0.0235269 0)
(5.29886 -0.0290501 0)
(5.31096 -0.0339244 0)
(5.32117 -0.0383225 0)
(5.33007 -0.0422369 0)
(5.33782 -0.0456855 0)
(5.34479 -0.0487509 0)
(5.35074 -0.0515078 0)
(5.3562 -0.0540412 0)
(5.3606 -0.0563679 0)
(5.01494 0.211524 0)
(5.08853 0.112702 0)
(5.16839 0.0774311 0)
(5.22512 0.0613173 0)
(5.26051 0.0433481 0)
(5.28643 0.0253041 0)
(5.30987 0.0111591 0)
(5.33147 0.00134681 0)
(5.35007 -0.00578809 0)
(5.3653 -0.0116618 0)
(5.37781 -0.0168583 0)
(5.38834 -0.021494 0)
(5.3975 -0.025605 0)
(5.40543 -0.0292494 0)
(5.41244 -0.0325236 0)
(5.41837 -0.0354704 0)
(5.42374 -0.0381708 0)
(5.42812 -0.0405985 0)
(5.00861 0.159554 0)
(5.12131 0.0339362 0)
(5.21976 0.00624242 0)
(5.27666 -0.00304422 0)
(5.30892 -0.0170793 0)
(5.33473 -0.0293581 0)
(5.35939 -0.0368476 0)
(5.38186 -0.0413385 0)
(5.40078 -0.0448736 0)
(5.41622 -0.0481722 0)
(5.42911 -0.0512012 0)
(5.44015 -0.0538714 0)
(5.44985 -0.0561929 0)
(5.45828 -0.0582444 0)
(5.46572 -0.0600828 0)
(5.47205 -0.061767 0)
(5.47779 -0.0633299 0)
(5.48249 -0.0648036 0)
(5.01492 0.153335 0)
(5.177 0.0583853 0)
(5.30039 0.0446526 0)
(5.36061 0.0282269 0)
(5.39348 0.00889675 0)
(5.42185 -0.00484927 0)
(5.44869 -0.0128664 0)
(5.47202 -0.0182714 0)
(5.49105 -0.0228594 0)
(5.50638 -0.0270326 0)
(5.51895 -0.0307299 0)
(5.52944 -0.0339805 0)
(5.53822 -0.0368342 0)
(5.54546 -0.0394171 0)
(5.55136 -0.0417399 0)
(5.55601 -0.0439101 0)
(5.55968 -0.0458968 0)
(5.56231 -0.0478061 0)
(5.01843 0.0184548 0)
(5.22938 -0.052323 0)
(5.35535 -0.0347601 0)
(5.40913 -0.0431997 0)
(5.43912 -0.0533388 0)
(5.46263 -0.0579065 0)
(5.48046 -0.0596042 0)
(5.49119 -0.0608089 0)
(5.49491 -0.0620573 0)
(5.4929 -0.0632457 0)
(5.48632 -0.0642458 0)
(5.47628 -0.0650686 0)
(5.46322 -0.0657187 0)
(5.44794 -0.066278 0)
(5.43034 -0.0667225 0)
(5.41152 -0.0671514 0)
(5.39068 -0.067511 0)
(5.36972 -0.0679421 0)
(4.9675 0.0710169 0)
(5.10251 -0.000176485 0)
(5.07414 -0.000407838 0)
(4.96004 -0.0108842 0)
(4.83231 -0.0186346 0)
(4.70767 -0.0216758 0)
(4.58662 -0.0228254 0)
(4.4676 -0.0235568 0)
(4.35019 -0.0241056 0)
(4.23504 -0.0244418 0)
(4.12288 -0.0245731 0)
(4.01443 -0.0245515 0)
(3.90971 -0.0244232 0)
(3.80918 -0.0242407 0)
(3.71213 -0.0240128 0)
(3.6195 -0.0237847 0)
(3.52956 -0.0235308 0)
(3.44473 -0.0233411 0)
(-0.023836 0.0475799 1.24713e-21)
(-0.0555178 0.0197879 -1.23798e-21)
(-0.0553685 -0.0132572 0)
(-0.0285657 -0.0415346 0)
(0.0209993 -0.0643939 0)
(0.088262 -0.0812993 1.19864e-21)
(0.167297 -0.0921712 0)
(0.254005 -0.0979358 0)
(0.344331 -0.0990704 0)
(0.434912 -0.0968208 0)
(0.523064 -0.0917092 -1.13305e-21)
(0.606368 -0.0844632 0)
(0.682804 -0.0753775 0)
(0.750658 -0.0646642 0)
(0.808153 -0.0524533 0)
(0.853595 -0.0388508 -1.0171e-21)
(0.885333 -0.0239174 0)
(0.901925 -0.00774936 0)
(0.902157 0.00954565 0)
(0.884175 0.0276934 0)
(0.84739 0.0461782 0)
(0.791616 0.0643098 0)
(0.71759 0.0812186 0)
(0.626771 0.0958833 -9.2118e-22)
(0.52145 0.107218 9.2001e-22)
(0.404283 0.114204 -9.18805e-22)
(0.279042 0.116676 -9.16756e-22)
(0.14993 0.113531 0)
(0.0223287 0.105097 0)
(-0.100574 0.0886113 9.00969e-22)
(-0.211705 0.0637483 8.92089e-22)
(-0.310475 0.0407592 0)
(-0.403596 0.0262884 0)
(-0.497293 0.0217463 8.55852e-22)
(-0.59104 0.0253845 0)
(-0.682397 0.0299526 0)
(-0.77099 0.0309056 -8.12909e-22)
(-0.858831 0.0331789 0)
(-0.946993 0.0472255 -7.80621e-22)
(-1.03998 0.0629025 -1.52664e-21)
(-1.13647 0.0639547 0)
(-1.22977 0.0665558 0)
(-1.32425 0.0743787 0)
(-1.41743 0.0729699 0)
(-1.50585 0.0644788 0)
(-1.58798 0.0631469 -1.29235e-21)
(-1.66744 0.0613681 -1.2549e-21)
(-1.73979 0.0526175 -1.21915e-21)
(-1.80445 0.0462807 0)
(-1.86395 0.041139 1.15798e-21)
(-1.91632 0.0343798 0)
(-1.96274 0.0271009 -1.11591e-21)
(-2.00474 0.0233674 -1.10199e-21)
(-2.04306 0.024973 0)
(-2.07666 0.0282903 0)
(-2.10371 0.0283549 0)
(-2.12158 0.0231428 -1.08257e-21)
(-2.12786 0.0150874 0)
(-2.12297 0.00716571 0)
(-2.10797 7.16245e-05 0)
(-2.08396 -0.00610343 0)
(-2.05212 -0.0113818 0)
(-2.01351 -0.0158178 0)
(-1.96912 -0.019503 0)
(-1.91981 -0.0225303 0)
(-1.86636 -0.025006 1.17953e-21)
(-1.8094 -0.0270206 0)
(-1.74947 -0.0286657 0)
(-1.68697 -0.0300237 -1.23959e-21)
(-1.62218 -0.0311658 -1.26116e-21)
(-1.55535 -0.0321566 0)
(-1.4866 -0.0330452 1.30632e-21)
(-1.41602 -0.0338703 -1.32988e-21)
(-1.34362 -0.0346628 0)
(-1.26942 -0.0354391 1.37887e-21)
(-1.19337 -0.0362046 0)
(-1.11545 -0.0369629 0)
(-1.0356 -0.0376977 -1.45677e-21)
(-0.953826 -0.0383882 0)
(-0.870269 -0.0390017 1.51095e-21)
(-0.785025 -0.0395061 0)
(-0.698323 -0.0398748 -1.56545e-21)
(-0.610425 -0.0400853 -1.59224e-21)
(-0.521627 -0.0401354 -1.6184e-21)
(-0.432207 -0.04004 -3.28747e-21)
(-0.342402 -0.0398265 3.33616e-21)
(-0.252383 -0.0395253 0)
(-0.16228 -0.0391605 0)
(-0.0722116 -0.0387486 0)
(0.0177214 -0.0382965 3.50687e-21)
(0.107402 -0.03779 3.54251e-21)
(0.196684 -0.037211 -3.57482e-21)
(0.285378 -0.0365373 0)
(0.373243 -0.0357403 3.62812e-21)
(0.459987 -0.0348045 3.64843e-21)
(0.54528 -0.0337146 3.6641e-21)
(0.62876 -0.0324648 0)
(0.71005 -0.0310694 0)
(0.788806 -0.029528 0)
(0.864723 -0.0278757 3.67745e-21)
(0.937522 -0.0261161 0)
(1.00696 -0.0242872 0)
(1.07284 -0.0223976 -3.63806e-21)
(1.13497 -0.0204768 0)
(1.19321 -0.0185377 0)
(1.24748 -0.0166041 -3.56504e-21)
(1.2977 -0.0146899 0)
(1.34388 -0.0128203 0)
(1.38602 -0.0110161 3.46899e-21)
(1.42422 -0.00928872 3.43368e-21)
(1.4586 -0.00764414 0)
(1.48932 -0.00610182 -3.36023e-21)
(1.51654 -0.00467 0)
(1.54046 -0.00335261 3.28486e-21)
(1.56127 -0.00214945 0)
(1.57918 -0.00105729 3.20921e-21)
(1.59438 -7.08675e-05 3.17161e-21)
(1.60707 0.000816194 0)
(1.61741 0.00160998 0)
(1.62559 0.00231652 0)
(1.63175 0.00294143 0)
(1.63606 0.00348578 0)
(1.63868 0.00394984 0)
(1.63975 0.00433639 0)
(1.63944 0.00464602 2.88409e-21)
(1.63792 0.00488018 -2.85007e-21)
(1.63534 0.00504609 0)
(1.63186 0.00514581 0)
(1.62764 0.00517222 0)
(1.62284 0.00512617 0)
(1.61762 0.00501825 -5.37255e-21)
(1.6121 0.00485977 0)
(1.60641 0.00466065 5.24699e-21)
(1.60064 0.00443072 -5.1853e-21)
(1.59488 0.00417944 0)
(1.58921 0.00391527 0)
(1.58369 0.00364605 0)
(1.57837 0.00337897 4.94532e-21)
(1.57327 0.0031198 4.88692e-21)
(1.56843 0.00287249 0)
(1.56385 0.00263952 4.77189e-21)
(1.55954 0.00242233 4.71522e-21)
(1.55549 0.00222164 -4.6591e-21)
(1.55171 0.00203778 0)
(1.54817 0.0018707 0)
(1.54487 0.00172 -4.4938e-21)
(1.54179 0.00158494 0)
(1.53891 0.00146445 0)
(1.5362 0.00135729 0)
(1.53364 0.00126216 0)
(1.53122 0.00117782 4.22766e-21)
(1.52892 0.00110323 4.17572e-21)
(1.52671 0.0010376 0)
(1.52458 0.000980376 4.07304e-21)
(1.5225 0.000931254 0)
(1.52047 0.000890053 0)
(1.51845 0.000856772 3.92191e-21)
(1.51644 0.000831445 0)
(1.51441 0.000814496 3.82301e-21)
(1.51234 0.000806183 0)
(1.5102 0.000807534 0)
(1.50799 0.000819422 3.67737e-21)
(1.50562 0.00084437 0)
(1.50313 0.000883289 3.58211e-21)
(1.50035 0.000941736 0)
(1.49742 0.00101865 0)
(1.49395 0.00112793 0)
(1.49031 0.00125954 -3.39645e-21)
(1.48567 0.00145524 0)
(1.48088 0.00166769 3.30651e-21)
(1.47429 0.00203083 0)
(1.4675 0.00235199 0)
(1.4577 0.00308931 0)
(1.44698 0.00349753 0)
(1.43229 0.00521853 0)
(1.41206 0.00540331 0)
(1.39204 0.010188 0)
(1.34314 0.00861047 -5.97594e-21)
(1.32716 0.0250921 0)
(1.17667 0.0177513 0)
(-0.00809536 0.111643 -3.72862e-21)
(-0.021651 0.0369823 3.70085e-21)
(-0.0116906 -0.0469823 0)
(0.0158795 -0.121055 -2.41726e-21)
(0.0600936 -0.180759 0)
(0.11595 -0.224798 -1.19957e-21)
(0.180627 -0.253505 2.35697e-21)
(0.250854 -0.268569 2.33411e-21)
(0.323573 -0.272058 0)
(0.39566 -0.266058 2.27433e-21)
(0.465487 -0.252539 1.134e-21)
(0.531478 -0.233036 0)
(0.592127 -0.208448 0)
(0.645836 -0.179267 0)
(0.690868 -0.145748 0)
(0.725552 -0.108119 1.01797e-21)
(0.748209 -0.0667164 0)
(0.757431 -0.0221506 -1.90974e-21)
(0.751845 0.0246996 0)
(0.73167 0.0726487 0)
(0.696257 0.120148 1.82695e-21)
(0.645534 0.165588 0)
(0.58019 0.207558 -1.80746e-21)
(0.501283 0.24486 9.22128e-22)
(0.41052 0.276294 -9.2099e-22)
(0.31004 0.300046 9.19827e-22)
(0.202463 0.314458 9.1782e-22)
(0.0906858 0.318193 0)
(-0.0218199 0.311618 0)
(-0.133892 0.29663 -9.02121e-22)
(-0.247654 0.277075 8.68855e-22)
(-0.371708 0.267421 0)
(-0.504457 0.271574 0)
(-0.639798 0.273513 -8.56997e-22)
(-0.771609 0.263669 0)
(-0.900833 0.247721 0)
(-1.03072 0.238911 8.14053e-22)
(-1.16047 0.233772 0)
(-1.28238 0.225587 -7.29403e-22)
(-1.39647 0.220345 1.5288e-21)
(-1.50613 0.217981 0)
(-1.60786 0.210966 0)
(-1.70219 0.200185 2.70123e-21)
(-1.79109 0.191715 2.6206e-21)
(-1.8754 0.181712 2.54004e-21)
(-1.9512 0.168235 -1.16773e-21)
(-2.02183 0.153804 1.25674e-21)
(-2.08841 0.140559 3.53942e-21)
(-2.1506 0.128366 -2.25657e-21)
(-2.20889 0.114864 -1.1596e-21)
(-2.26381 0.102138 0)
(-2.31426 0.0936002 1.11745e-21)
(-2.35639 0.0856564 -1.00081e-21)
(-2.38616 0.0716354 0)
(-2.40003 0.0518187 0)
(-2.39921 0.029468 0)
(-2.38626 0.00645467 1.08392e-21)
(-2.36293 -0.015576 0)
(-2.33057 -0.0355202 -2.1112e-21)
(-2.29041 -0.0530598 0)
(-2.24349 -0.0681509 -2.15628e-21)
(-2.19078 -0.0809226 0)
(-2.13312 -0.0915796 2.21715e-21)
(-2.07128 -0.100362 0)
(-2.00596 -0.107517 -2.28979e-21)
(-1.93773 -0.113299 1.14898e-21)
(-1.86707 -0.117936 0)
(-1.79439 -0.12167 2.41278e-21)
(-1.71996 -0.124714 1.24018e-21)
(-1.64398 -0.127275 1.2617e-21)
(-1.56651 -0.129515 0)
(-1.48759 -0.131566 1.28659e-21)
(-1.40722 -0.133511 1.33028e-21)
(-1.32537 -0.135411 0)
(-1.242 -0.137298 -1.3792e-21)
(-1.15706 -0.139192 2.79174e-21)
(-1.07047 -0.141115 0)
(-0.982149 -0.14304 1.45701e-21)
(-0.892008 -0.144909 0)
(-0.800007 -0.146605 -4.51845e-21)
(-0.706281 -0.148004 0)
(-0.611036 -0.148991 4.68335e-21)
(-0.514575 -0.1495 1.59237e-21)
(-0.417217 -0.149514 -1.60652e-21)
(-0.319273 -0.149084 -3.26493e-21)
(-0.220988 -0.148291 3.31465e-21)
(-0.122526 -0.147231 0)
(-0.0239973 -0.145985 0)
(0.0745007 -0.144601 0)
(0.172896 -0.143087 -1.05025e-20)
(0.271102 -0.141412 -3.54254e-21)
(0.368985 -0.139514 3.57483e-21)
(0.466369 -0.13732 0)
(0.56302 -0.134755 3.61389e-21)
(0.658639 -0.13176 -3.64837e-21)
(0.752901 -0.128299 -3.66403e-21)
(0.845434 -0.124361 0)
(0.935862 -0.119973 0)
(1.02384 -0.115168 0)
(1.10909 -0.110014 -3.67731e-21)
(1.19132 -0.10457 0)
(1.27032 -0.0989033 7.30387e-21)
(1.3459 -0.0930695 1.09076e-20)
(1.41788 -0.0871362 -7.22808e-21)
(1.48615 -0.0811461 0)
(1.55061 -0.0751703 -3.56037e-21)
(1.61122 -0.0692555 0)
(1.66796 -0.0634604 -7.00166e-21)
(1.72087 -0.0578304 3.46539e-21)
(1.77006 -0.052403 3.43035e-21)
(1.81567 -0.0472133 0)
(1.85783 -0.0423057 1.00773e-20)
(1.89672 -0.0377038 -6.6424e-21)
(1.93254 -0.0334185 -3.28457e-21)
(1.96548 -0.0294487 0)
(1.99573 -0.0257834 -3.2089e-21)
(2.02347 -0.0224055 -9.51225e-21)
(2.04888 -0.0192948 0)
(2.0721 -0.0164315 -6.19263e-21)
(2.09328 -0.013799 -6.11954e-21)
(2.11257 -0.0113842 -6.04726e-21)
(2.13008 -0.00917994 0)
(2.14595 -0.00718228 0)
(2.16029 -0.00538756 0)
(2.17324 -0.00379311 2.883e-21)
(2.18493 -0.00239544 2.84968e-21)
(2.19546 -0.00118652 0)
(2.20498 -0.000158899 5.56534e-21)
(2.21357 0.000693376 5.49989e-21)
(2.22133 0.00138205 0)
(2.22833 0.00192354 5.3717e-21)
(2.23466 0.00233379 1.06165e-20)
(2.2404 0.00262639 -5.24612e-21)
(2.24562 0.00281631 -5.18399e-21)
(2.25039 0.00291762 0)
(2.25477 0.00294323 0)
(2.2588 0.00290609 0)
(2.26254 0.00281896 -4.94441e-21)
(2.26602 0.00269387 4.88587e-21)
(2.26929 0.00254152 9.65631e-21)
(2.27238 0.00237106 -4.77098e-21)
(2.27532 0.00219013 4.71426e-21)
(2.27813 0.00200504 4.65819e-21)
(2.28083 0.0018211 0)
(2.28344 0.0016428 0)
(2.28597 0.00147395 -4.49289e-21)
(2.28844 0.00131759 0)
(2.29086 0.00117603 0)
(2.29322 0.0010507 8.66382e-21)
(2.29553 0.000942307 0)
(2.29778 0.000850837 4.22678e-21)
(2.29998 0.000775876 -4.17486e-21)
(2.3021 0.000716731 0)
(2.30415 0.000672678 4.07216e-21)
(2.3061 0.000643016 0)
(2.30796 0.000627241 0)
(2.3097 0.000625069 -3.92108e-21)
(2.31133 0.000636445 7.74284e-21)
(2.31281 0.000662146 -3.82218e-21)
(2.31414 0.000702976 0)
(2.3153 0.000761898 0)
(2.31628 0.000839748 3.67646e-21)
(2.31704 0.000944116 0)
(2.3176 0.00107279 3.58117e-21)
(2.31785 0.00124568 0)
(2.31785 0.00144688 0)
(2.31743 0.00173255 0)
(2.31667 0.00203954 3.39569e-21)
(2.31529 0.00253074 0)
(2.31343 0.00298635 -3.30576e-21)
(2.31064 0.00388674 0)
(2.30695 0.00452145 0)
(2.30213 0.00631911 6.35072e-21)
(2.29497 0.00706563 -6.2676e-21)
(2.2874 0.0110307 0)
(2.2726 0.0114729 0)
(2.26243 0.0212483 0)
(2.22834 0.0202035 1.79075e-20)
(2.22058 0.0478381 0)
(2.13646 0.0456392 -1.16801e-20)
(0.00915654 0.113195 7.05504e-24)
(0.0212121 0.0281846 -4.92096e-21)
(0.0478762 -0.084638 0)
(0.0806082 -0.185547 4.83114e-21)
(0.122162 -0.267094 0)
(0.169025 -0.326616 0)
(0.219179 -0.365369 -2.09261e-23)
(0.269946 -0.385135 -2.33588e-21)
(0.320063 -0.388987 -2.27613e-21)
(0.369116 -0.380035 -2.27599e-21)
(0.4167 -0.360875 0)
(0.462085 -0.333142 0)
(0.504078 -0.297578 2.09848e-21)
(0.541106 -0.254415 4.09148e-21)
(0.571258 -0.203731 -3.9851e-21)
(0.592615 -0.145848 0)
(0.603134 -0.0814574 -3.78542e-21)
(0.601207 -0.0118433 1.91099e-21)
(0.585251 0.0613321 0)
(0.554799 0.135979 -3.57313e-21)
(0.509336 0.209771 -1.82815e-21)
(0.449326 0.280095 3.51227e-21)
(0.376286 0.344378 1.80869e-21)
(0.292635 0.400225 0)
(0.200606 0.44569 -3.50899e-21)
(0.102264 0.478878 -3.51575e-21)
(-0.000389867 0.49824 0)
(-0.105799 0.502702 -3.51756e-21)
(-0.212774 0.492113 0)
(-0.322258 0.47215 -3.48341e-21)
(-0.440922 0.466112 -1.76341e-21)
(-0.56817 0.47349 0)
(-0.694982 0.475208 0)
(-0.819888 0.469692 0)
(-0.945049 0.463474 0)
(-1.07217 0.457785 0)
(-1.19805 0.448438 0)
(-1.32145 0.436174 -2.97879e-21)
(-1.4415 0.424648 4.40268e-21)
(-1.5563 0.409794 0)
(-1.66481 0.390211 0)
(-1.76794 0.371493 0)
(-1.86518 0.352947 -1.71743e-22)
(-1.95448 0.330927 -2.62261e-21)
(-2.03623 0.305542 -4.90474e-21)
(-2.11163 0.281121 4.74708e-21)
(-2.18295 0.259884 2.20917e-21)
(-2.25015 0.239835 -2.31999e-21)
(-2.31301 0.220515 1.73994e-22)
(-2.36891 0.20351 -2.03592e-21)
(-2.41479 0.183661 0)
(-2.44592 0.155378 -1.97075e-21)
(-2.45975 0.120477 1.52361e-22)
(-2.45838 0.0823981 0)
(-2.44413 0.0437525 0)
(-2.41938 0.00619659 1.9521e-21)
(-2.38605 -0.0292445 0)
(-2.34567 -0.061639 0)
(-2.2994 -0.0904032 -1.91487e-21)
(-2.24809 -0.115378 -4.08675e-21)
(-2.19244 -0.136672 2.15644e-21)
(-2.13303 -0.154551 0)
(-2.07035 -0.16935 -2.21717e-21)
(-2.00484 -0.181443 0)
(-1.93693 -0.19119 -2.1875e-21)
(-1.86699 -0.198945 -2.32916e-21)
(-1.79536 -0.205055 4.65578e-21)
(-1.72231 -0.209879 2.33446e-21)
(-1.64801 -0.213762 0)
(-1.57254 -0.217036 -4.93257e-21)
(-1.49589 -0.219965 0)
(-1.418 -0.222739 -7.71638e-21)
(-1.33877 -0.225466 -5.22125e-21)
(-1.25813 -0.228201 -5.32118e-21)
(-1.17601 -0.230979 5.42315e-21)
(-1.09233 -0.233835 -8.31868e-21)
(-1.00699 -0.23681 0)
(-0.919837 -0.239892 0)
(-0.830722 -0.242987 5.85253e-21)
(-0.739599 -0.245865 8.97188e-21)
(-0.64657 -0.248261 0)
(-0.551891 -0.249929 -3.11756e-21)
(-0.455933 -0.250738 0)
(-0.35911 -0.250666 9.63501e-21)
(-0.261819 -0.249808 3.75301e-23)
(-0.164363 -0.248336 -3.57357e-23)
(-0.0669206 -0.246444 -6.71034e-21)
(0.0304138 -0.24429 0)
(0.127603 -0.241965 6.88568e-21)
(0.224628 -0.239476 3.01902e-23)
(0.32145 -0.23676 0)
(0.417981 -0.233706 0)
(0.51406 -0.230169 0)
(0.609457 -0.226021 -7.24178e-21)
(0.70387 -0.221142 0)
(0.796959 -0.215472 0)
(0.888334 -0.209002 0)
(0.977605 -0.201765 0)
(1.06442 -0.193844 0)
(1.1485 -0.185338 -7.33261e-21)
(1.22958 -0.176368 0)
(1.30745 -0.167036 -7.30368e-21)
(1.38191 -0.15745 -7.26956e-21)
(1.45282 -0.147714 7.22789e-21)
(1.52006 -0.137914 0)
(1.58352 -0.128166 7.12501e-21)
(1.64318 -0.118533 0)
(1.69904 -0.109103 7.00144e-21)
(1.75115 -0.0999566 -6.93388e-21)
(1.79962 -0.0911652 -2.05799e-20)
(1.84459 -0.082807 0)
(1.88625 -0.0749423 -2.01424e-20)
(1.9248 -0.0676026 -6.63405e-21)
(1.96048 -0.0607969 0)
(1.99351 -0.0545151 -1.29757e-20)
(2.02413 -0.0487333 -1.28255e-20)
(2.05252 -0.0434188 1.90168e-20)
(2.07886 -0.0385353 0)
(2.1033 -0.0340483 6.1925e-21)
(2.12596 -0.0299284 6.11942e-21)
(2.14696 -0.0261539 1.81378e-20)
(2.16641 -0.0227096 0)
(2.18442 -0.0195853 0)
(2.20108 -0.0167744 0)
(2.2165 -0.0142705 5.76431e-21)
(2.23079 -0.0120642 0)
(2.24405 -0.0101429 0)
(2.25638 -0.00849127 -5.56523e-21)
(2.2679 -0.0070882 -5.49977e-21)
(2.27868 -0.00590999 0)
(2.28882 -0.00493386 0)
(2.29838 -0.00413829 -1.06162e-20)
(2.30742 -0.00350085 0)
(2.316 -0.00300145 1.03681e-20)
(2.32416 -0.00262131 1.02456e-20)
(2.33194 -0.0023426 0)
(2.33938 -0.00214727 0)
(2.34651 -0.00201865 -9.88797e-21)
(2.35335 -0.00194278 -2.93669e-25)
(2.35994 -0.00190804 -2.39845e-25)
(2.36629 -0.0019047 0)
(2.37242 -0.00192452 -1.88563e-20)
(2.37835 -0.00196067 0)
(2.3841 -0.00200738 0)
(2.38967 -0.00205959 0)
(2.39509 -0.00211274 8.98541e-21)
(2.40036 -0.00216272 0)
(2.40551 -0.00220581 -1.75396e-20)
(2.41054 -0.0022388 -8.66342e-21)
(2.41546 -0.00225906 0)
(2.42029 -0.00226449 -8.45316e-21)
(2.42502 -0.00225353 0)
(2.42965 -0.00222506 0)
(2.43419 -0.00217839 -2.44317e-20)
(2.43863 -0.002113 1.60847e-20)
(2.44295 -0.00202865 0)
(2.44716 -0.00192488 1.56832e-20)
(2.45123 -0.00180164 -7.74241e-21)
(2.45516 -0.00165751 0)
(2.45893 -0.00149259 0)
(2.46253 -0.00130236 0)
(2.46594 -0.00108787 -2.20574e-20)
(2.46915 -0.00083651 0)
(2.47213 -0.000554982 -7.16206e-21)
(2.47487 -0.000210586 0)
(2.47733 0.000168296 0)
(2.47951 0.000667931 0)
(2.48128 0.00119181 0)
(2.48274 0.00197228 0)
(2.48355 0.0027084 0)
(2.48406 0.00403479 -1.30423e-20)
(2.48339 0.00506275 0)
(2.48261 0.00753141 -6.35027e-21)
(2.47941 0.00891115 1.87964e-20)
(2.47695 0.0139552 0)
(2.46903 0.0157048 0)
(2.46463 0.0270433 -1.20574e-20)
(2.44762 0.0295938 -1.19321e-20)
(2.44236 0.0575199 1.17751e-20)
(2.41069 0.064912 1.16794e-20)
(0.0107336 0.0543529 7.42602e-21)
(0.0340822 -0.0405763 7.37614e-21)
(0.0698912 -0.161768 4.8738e-21)
(0.111892 -0.269314 2.40915e-21)
(0.156657 -0.35538 0)
(0.198626 -0.415851 -4.70476e-21)
(0.236005 -0.451733 2.29848e-21)
(0.269407 -0.467167 0)
(0.300762 -0.467052 2.27786e-21)
(0.331618 -0.455137 0)
(0.362486 -0.43325 -4.29976e-21)
(0.392673 -0.401633 0)
(0.420643 -0.359723 -2.1001e-21)
(0.44432 -0.306774 -4.09463e-21)
(0.461475 -0.242347 3.98815e-21)
(0.470137 -0.166592 0)
(0.468335 -0.0804293 3.78821e-21)
(0.454879 0.0140954 0)
(0.428174 0.114222 0)
(0.388264 0.215935 3.57575e-21)
(0.334956 0.31503 0)
(0.268788 0.407374 -1.44283e-22)
(0.191355 0.489434 0)
(0.104971 0.558501 0)
(0.0119934 0.612968 1.29166e-22)
(-0.0857578 0.652009 3.51833e-21)
(-0.18665 0.675158 3.39995e-21)
(-0.289863 0.682527 3.52007e-21)
(-0.396288 0.67916 0)
(-0.512591 0.679935 6.85349e-21)
(-0.637511 0.68694 0)
(-0.762274 0.688108 3.28679e-21)
(-0.886115 0.683818 0)
(-1.01034 0.67702 0)
(-1.13478 0.667959 -3.09159e-21)
(-1.25763 0.654503 0)
(-1.37828 0.639118 2.92117e-21)
(-1.49699 0.623213 1.54584e-22)
(-1.61073 0.602453 -5.62013e-21)
(-1.71896 0.577612 5.25334e-21)
(-1.8221 0.551911 0)
(-1.91803 0.523049 0)
(-2.00594 0.489625 2.12627e-21)
(-2.0857 0.453915 0)
(-2.15792 0.418725 2.36441e-21)
(-2.22564 0.386657 -2.28482e-21)
(-2.28971 0.358215 -2.2104e-21)
(-2.347 0.332648 0)
(-2.3935 0.301909 2.08488e-21)
(-2.42403 0.260728 2.03672e-21)
(-2.43783 0.212209 -3.5964e-21)
(-2.43674 0.159427 1.9712e-21)
(-2.42285 0.1052 1.95317e-21)
(-2.39849 0.0516378 0)
(-2.3657 0.000472375 0)
(-2.32619 -0.0471677 -1.952e-21)
(-2.28126 -0.0905329 0)
(-2.23191 -0.129207 0)
(-2.17884 -0.163107 4.02576e-21)
(-2.12257 -0.192377 4.08602e-21)
(-2.06347 -0.217295 0)
(-2.00185 -0.238227 0)
(-1.93796 -0.25557 0)
(-1.87207 -0.269727 0)
(-1.80442 -0.281099 4.4762e-21)
(-1.7353 -0.290065 -4.44907e-21)
(-1.66496 -0.297047 -4.65472e-21)
(-1.59367 -0.302474 -9.39273e-21)
(-1.52157 -0.306813 0)
(-1.44868 -0.310512 8.8812e-23)
(-1.37486 -0.31395 0)
(-1.29993 -0.317368 5.12226e-21)
(-1.22368 -0.320878 8.00798e-23)
(-1.14596 -0.324492 5.32022e-21)
(-1.06671 -0.328205 -5.42221e-21)
(-0.985892 -0.332064 7.44898e-23)
(-0.903431 -0.33615 0)