/*--------------------------------*- C++ -*----------------------------------*\
  =========                 |
  \\      /  F ield         | OpenFOAM: The Open Source CFD Toolbox
   \\    /   O peration     | Website:  https://openfoam.org
    \\  /    A nd           | Version:  7
     \\/     M anipulation  |
\*---------------------------------------------------------------------------*/
FoamFile
{
    version     2.0;
    format      ascii;
    class       volSymmTensorField;
    location    "0.07";
    object      UPrime2Mean;
}
// * * * * * * * * * * * * * * * * * * * * * * * * * * * * * * * * * * * * * //

dimensions      [0 2 -2 0 0 0 0];

internalField   nonuniform List<symmTensor> 
12225
(
(0.00443406 -0.000149449 0 0.000502794 0 0)
(0.029195 -0.00127913 0 0.000235788 0 0)
(0.0423871 -0.00188158 0 0.000211946 0 0)
(0.0566431 -0.00231817 0 0.000199198 0 0)
(0.081256 -0.00290204 0 0.000193384 0 0)
(0.117754 -0.00364861 0 0.000192165 0 0)
(0.16631 -0.00454497 0 0.000202595 0 0)
(0.227179 -0.00523771 0 0.000186944 0 0)
(0.300411 -0.00633021 0 0.000201357 0 0)
(0.385297 -0.00609224 0 0.000154136 0 0)
(0.483449 -0.00814034 0 0.000185788 0 0)
(0.58771 -0.00526181 0 0.000105 0 0)
(0.714072 -0.0123125 0 0.000270173 0 0)
(0.835908 -0.001214 0 0.00018957 0 0)
(1.01806 -0.0288756 0 0.00130037 0 0)
(1.19494 0.0134811 0 0.00155868 0 0)
(1.54394 -0.109926 0 0.0148739 0 0)
(2.09189 0.0414686 0 0.00728648 0 0)
(0.00427301 4.56196e-05 0 0.000677826 0 0)
(0.0197289 -0.000612526 0 0.000240975 0 0)
(0.0215104 -0.00102142 0 0.000283706 0 0)
(0.0220813 -0.00127558 0 0.000378888 0 0)
(0.0260917 -0.00179628 0 0.000499093 0 0)
(0.0333365 -0.00274379 0 0.000655196 0 0)
(0.0443931 -0.00407134 0 0.00081707 0 0)
(0.0610042 -0.00595056 0 0.00104367 0 0)
(0.0835804 -0.00795725 0 0.00117738 0 0)
(0.11626 -0.0109967 0 0.00146065 0 0)
(0.156617 -0.0132058 0 0.00146211 0 0)
(0.214316 -0.0182787 0 0.00189149 0 0)
(0.278527 -0.0197867 0 0.00170666 0 0)
(0.376145 -0.0306919 0 0.00279288 0 0)
(0.474554 -0.0310047 0 0.0024888 0 0)
(0.656089 -0.063022 0 0.00704155 0 0)
(0.821741 -0.0759725 0 0.00782785 0 0)
(1.1948 -0.215889 0 0.0508387 0 0)
(0.00416704 0.000141064 0 0.000858478 0 0)
(0.0195299 -0.0009167 0 0.00043344 0 0)
(0.0205336 -0.00144202 0 0.000504342 0 0)
(0.0198744 -0.00158922 0 0.000646455 0 0)
(0.0214447 -0.00186669 0 0.000830586 0 0)
(0.0240411 -0.00241531 0 0.00106211 0 0)
(0.0275003 -0.00324802 0 0.00139614 0 0)
(0.0320284 -0.00428871 0 0.00171216 0 0)
(0.0381889 -0.00577634 0 0.00219782 0 0)
(0.0464527 -0.00734533 0 0.0025096 0 0)
(0.0583409 -0.0100628 0 0.00317167 0 0)
(0.0742453 -0.0122976 0 0.00336859 0 0)
(0.0975358 -0.0178777 0 0.00460143 0 0)
(0.128446 -0.0213037 0 0.00470751 0 0)
(0.174766 -0.0359542 0 0.00851618 0 0)
(0.23731 -0.0454176 0 0.00957991 0 0)
(0.327227 -0.0933931 0 0.028239 0 0)
(0.442755 -0.156343 0 0.058704 0 0)
(0.00389389 -0.000248095 0 0.000980779 0 0)
(0.0191918 -0.00121437 0 0.000519979 0 0)
(0.0201209 -0.00163943 0 0.000582377 0 0)
(0.0193966 -0.00179601 0 0.000771365 0 0)
(0.0207207 -0.00207426 0 0.000995884 0 0)
(0.0228526 -0.00261344 0 0.00128208 0 0)
(0.0255185 -0.00337722 0 0.00162969 0 0)
(0.0288406 -0.00436585 0 0.00210022 0 0)
(0.0329312 -0.00551872 0 0.00258617 0 0)
(0.0383306 -0.0070927 0 0.00324811 0 0)
(0.0453573 -0.00895339 0 0.00386398 0 0)
(0.0552295 -0.011901 0 0.00486724 0 0)
(0.0685048 -0.0155345 0 0.00588033 0 0)
(0.0878166 -0.022157 0 0.00803841 0 0)
(0.114234 -0.0314762 0 0.0110444 0 0)
(0.151565 -0.0495605 0 0.0185062 0 0)
(0.199947 -0.0811327 0 0.0347671 0 0)
(0.249072 -0.131102 0 0.0710347 0 0)
(0.00446027 -0.000211567 0 0.0011528 0 0)
(0.0189698 -0.00139575 0 0.000669774 0 0)
(0.019584 -0.00183411 0 0.000726171 0 0)
(0.0188777 -0.00200059 0 0.000959133 0 0)
(0.0202342 -0.00229715 0 0.0012398 0 0)
(0.0222904 -0.00287196 0 0.00157355 0 0)
(0.0247871 -0.0037158 0 0.00202572 0 0)
(0.027832 -0.00477644 0 0.00255504 0 0)
(0.0316039 -0.00612379 0 0.00325494 0 0)
(0.0364219 -0.00774045 0 0.00400303 0 0)
(0.0427458 -0.0100437 0 0.00503995 0 0)
(0.0511793 -0.0129965 0 0.00621091 0 0)
(0.0625712 -0.0176653 0 0.00814947 0 0)
(0.0780694 -0.0241805 0 0.010782 0 0)
(0.0988554 -0.0352229 0 0.0159525 0 0)
(0.125545 -0.0523874 0 0.0252182 0 0)
(0.156502 -0.0800903 0 0.0439788 0 0)
(0.181976 -0.121799 0 0.0855712 0 0)
(0.00408777 -0.000294156 0 0.00119693 0 0)
(0.0187364 -0.00161426 0 0.000800672 0 0)
(0.0191174 -0.00197256 0 0.000904053 0 0)
(0.0182894 -0.00209381 0 0.00121794 0 0)
(0.0195102 -0.00239443 0 0.00158631 0 0)
(0.0213714 -0.0029962 0 0.0020141 0 0)
(0.0236321 -0.00387391 0 0.00253957 0 0)
(0.026407 -0.00500943 0 0.00320672 0 0)
(0.0298493 -0.00643572 0 0.00401933 0 0)
(0.0342222 -0.00827941 0 0.00503218 0 0)
(0.0399237 -0.0107525 0 0.00630083 0 0)
(0.0473901 -0.0142044 0 0.00801909 0 0)
(0.0573058 -0.0191655 0 0.0104748 0 0)
(0.0701693 -0.0264612 0 0.0142839 0 0)
(0.0867291 -0.0375709 0 0.0207135 0 0)
(0.105961 -0.0540314 0 0.0319705 0 0)
(0.126284 -0.0782999 0 0.0527745 0 0)
(0.140211 -0.10914 0 0.0891814 0 0)
(0.00377085 -0.000339102 0 0.00145206 0 0)
(0.018353 -0.00182369 0 0.0010993 0 0)
(0.0186178 -0.00217849 0 0.001152 0 0)
(0.0177483 -0.00232313 0 0.00147939 0 0)
(0.0189201 -0.00266687 0 0.00190846 0 0)
(0.020678 -0.003324 0 0.00240995 0 0)
(0.0227849 -0.00427536 0 0.00303512 0 0)
(0.0253456 -0.00550122 0 0.00382031 0 0)
(0.0284939 -0.00705401 0 0.00481809 0 0)
(0.0324477 -0.00904793 0 0.0060705 0 0)
(0.037527 -0.0117336 0 0.00768835 0 0)
(0.0440422 -0.0154406 0 0.00988784 0 0)
(0.0524166 -0.0206786 0 0.0130353 0 0)
(0.0628079 -0.0281778 0 0.0178734 0 0)
(0.0753781 -0.0388872 0 0.025512 0 0)
(0.08879 -0.0539407 0 0.038335 0 0)
(0.101519 -0.0737379 0 0.0589728 0 0)
(0.108272 -0.0967964 0 0.0921283 0 0)
(0.00379246 -0.000317863 0 0.00133868 0 0)
(0.0180673 -0.00197744 0 0.00111822 0 0)
(0.0182993 -0.00227563 0 0.00131728 0 0)
(0.0173772 -0.00235945 0 0.00172852 0 0)
(0.0184428 -0.00271423 0 0.00224447 0 0)
(0.0200429 -0.00340726 0 0.00284947 0 0)
(0.0219263 -0.00439082 0 0.00359321 0 0)
(0.0241801 -0.00565959 0 0.00453655 0 0)
(0.0269292 -0.00728131 0 0.00573533 0 0)
(0.0303585 -0.00938968 0 0.00726716 0 0)
(0.0347026 -0.0122133 0 0.00926455 0 0)
(0.0401404 -0.0160529 0 0.0119859 0 0)
(0.0468828 -0.02134 0 0.0158387 0 0)
(0.0548638 -0.0286165 0 0.0215709 0 0)
(0.0639097 -0.0385106 0 0.0302496 0 0)
(0.0727541 -0.051473 0 0.0437514 0 0)
(0.0801042 -0.0672552 0 0.0639339 0 0)
(0.0826462 -0.0841834 0 0.0936125 0 0)
(0.00452783 -0.000538435 0 0.00146219 0 0)
(0.0182465 -0.00241386 0 0.00133748 0 0)
(0.0180316 -0.00265987 0 0.00157676 0 0)
(0.0170861 -0.00267762 0 0.00203781 0 0)
(0.018203 -0.00303925 0 0.00264598 0 0)
(0.0197172 -0.00378287 0 0.0033729 0 0)
(0.0213789 -0.0048257 0 0.00425838 0 0)
(0.0233315 -0.00615104 0 0.00537146 0 0)
(0.0256964 -0.0078263 0 0.00678688 0 0)
(0.0286027 -0.00998448 0 0.00860971 0 0)
(0.0322014 -0.0128349 0 0.0109913 0 0)
(0.0365805 -0.0166464 0 0.0142263 0 0)
(0.0417977 -0.0217467 0 0.0187212 0 0)
(0.0476445 -0.028501 0 0.0252061 0 0)
(0.0537993 -0.0372167 0 0.0345693 0 0)
(0.0591782 -0.047934 0 0.0482779 0 0)
(0.0628983 -0.0600961 0 0.0674693 0 0)
(0.0629089 -0.0721516 0 0.0936942 0 0)
(0.00400213 -0.000450282 0 0.00167602 0 0)
(0.0180714 -0.00244478 0 0.00147154 0 0)
(0.0179128 -0.00269852 0 0.00174774 0 0)
(0.0169249 -0.0026736 0 0.00226295 0 0)
(0.0178939 -0.00300069 0 0.00293747 0 0)
(0.0191967 -0.00373052 0 0.00375478 0 0)
(0.0206026 -0.00476901 0 0.00475743 0 0)
(0.0222355 -0.00608958 0 0.0060237 0 0)
(0.0241924 -0.00775775 0 0.00764713 0 0)
(0.0265655 -0.00989917 0 0.00975217 0 0)
(0.029439 -0.0126887 0 0.0125037 0 0)
(0.0328111 -0.0163291 0 0.0161988 0 0)
(0.0366294 -0.0210444 0 0.0212311 0 0)
(0.0406196 -0.0270271 0 0.0282532 0 0)
(0.0444443 -0.0343615 0 0.0379701 0 0)
(0.0472619 -0.0428422 0 0.0514639 0 0)
(0.0485756 -0.0518438 0 0.0693377 0 0)
(0.0471147 -0.0600897 0 0.0924902 0 0)
(0.00414497 -0.000556712 0 0.00189751 0 0)
(0.0179729 -0.00282335 0 0.00177376 0 0)
(0.0174084 -0.0030914 0 0.0020789 0 0)
(0.0161152 -0.00296694 0 0.00266028 0 0)
(0.0168701 -0.00323506 0 0.00343097 0 0)
(0.018011 -0.00394139 0 0.00437757 0 0)
(0.0192495 -0.00495484 0 0.00553522 0 0)
(0.0206568 -0.00622966 0 0.00698358 0 0)
(0.0222908 -0.00782018 0 0.0088209 0 0)
(0.0242021 -0.00983956 0 0.0111923 0 0)
(0.0264269 -0.0124341 0 0.0142766 0 0)
(0.0289161 -0.015747 0 0.0183611 0 0)
(0.0315688 -0.0199095 0 0.0237973 0 0)
(0.0341075 -0.0249763 0 0.0311341 0 0)
(0.0362461 -0.0308911 0 0.040893 0 0)
(0.0373705 -0.0373261 0 0.0538354 0 0)
(0.0372775 -0.0437179 0 0.0702066 0 0)
(0.0351636 -0.0490584 0 0.0905283 0 0)
(0.00395527 -0.000550734 0 0.00194307 0 0)
(0.01777 -0.00288838 0 0.00188281 0 0)
(0.0172698 -0.00322167 0 0.0022084 0 0)
(0.0159634 -0.00307882 0 0.00283435 0 0)
(0.0166355 -0.00332442 0 0.00367915 0 0)
(0.0176241 -0.00401754 0 0.00473425 0 0)
(0.0186579 -0.00500373 0 0.00602624 0 0)
(0.0198155 -0.00622281 0 0.00762849 0 0)
(0.0211325 -0.00772463 0 0.00965416 0 0)
(0.0226207 -0.00960708 0 0.0122541 0 0)
(0.0242708 -0.0119822 0 0.0156049 0 0)
(0.0259976 -0.0149339 0 0.0199748 0 0)
(0.0276827 -0.0185161 0 0.0256642 0 0)
(0.0290949 -0.0226904 0 0.033124 0 0)
(0.0300327 -0.0273232 0 0.0427146 0 0)
(0.0300898 -0.0320585 0 0.0549729 0 0)
(0.0292413 -0.0364283 0 0.0699213 0 0)
(0.0269548 -0.0396541 0 0.0879057 0 0)
(0.00381714 -0.000667945 0 0.00224059 0 0)
(0.0177122 -0.00301612 0 0.00223002 0 0)
(0.0170585 -0.00326731 0 0.0025215 0 0)
(0.0156372 -0.00303316 0 0.00317469 0 0)
(0.0161819 -0.00321719 0 0.00407599 0 0)
(0.017009 -0.0038629 0 0.00521953 0 0)
(0.0178431 -0.00479524 0 0.00663399 0 0)
(0.0187488 -0.00593161 0 0.00838801 0 0)
(0.0197411 -0.0072995 0 0.0105882 0 0)
(0.0208141 -0.00897498 0 0.0133787 0 0)
(0.0219392 -0.0110389 0 0.016928 0 0)
(0.0230305 -0.0135341 0 0.0214759 0 0)
(0.0239706 -0.0164593 0 0.0272686 0 0)
(0.0245755 -0.0197268 0 0.0346661 0 0)
(0.0247003 -0.0231646 0 0.0439007 0 0)
(0.0240964 -0.0264445 0 0.0553539 0 0)
(0.0228246 -0.0291734 0 0.0689139 0 0)
(0.0205576 -0.03079 0 0.0848361 0 0)
(0.00391979 -0.000735592 0 0.00267865 0 0)
(0.0175555 -0.00317083 0 0.00267469 0 0)
(0.0167464 -0.00333047 0 0.00298844 0 0)
(0.0152296 -0.00297007 0 0.0036862 0 0)
(0.0156258 -0.00302785 0 0.00465874 0 0)
(0.0162433 -0.00355654 0 0.00589393 0 0)
(0.016807 -0.00435724 0 0.00741674 0 0)
(0.0173664 -0.00531477 0 0.00929772 0 0)
(0.0179264 -0.00643018 0 0.0116382 0 0)
(0.0184874 -0.00775883 0 0.0145777 0 0)
(0.0190377 -0.00936062 0 0.0182672 0 0)
(0.0195116 -0.0112428 0 0.0229105 0 0)
(0.019811 -0.0133614 0 0.0286914 0 0)
(0.0197952 -0.0155826 0 0.0358737 0 0)
(0.0193712 -0.0177303 0 0.0445728 0 0)
(0.0184048 -0.0195064 0 0.0550429 0 0)
(0.0170232 -0.0206428 0 0.0670764 0 0)
(0.0150093 -0.0207169 0 0.0808829 0 0)
(0.00413634 -0.000495139 0 0.00271344 0 0)
(0.0176179 -0.00344034 0 0.0029817 0 0)
(0.0166214 -0.00369769 0 0.00337349 0 0)
(0.0149649 -0.00332434 0 0.00415038 0 0)
(0.0152642 -0.00333554 0 0.00520058 0 0)
(0.0157535 -0.0037763 0 0.00652056 0 0)
(0.0161232 -0.00444375 0 0.00815092 0 0)
(0.0164199 -0.00522207 0 0.0101535 0 0)
(0.0166608 -0.00610313 0 0.0126128 0 0)
(0.0168555 -0.00711799 0 0.0156467 0 0)
(0.0169895 -0.00828644 0 0.0193779 0 0)
(0.0170032 -0.00957036 0 0.0239648 0 0)
(0.016819 -0.010893 0 0.0295258 0 0)
(0.0163579 -0.0121065 0 0.0362398 0 0)
(0.0155991 -0.0130658 0 0.0441269 0 0)
(0.0145049 -0.0135308 0 0.0533575 0 0)
(0.0132383 -0.0133516 0 0.0636749 0 0)
(0.0116526 -0.0122137 0 0.075278 0 0)
(0.00426787 -0.000506034 0 0.00293812 0 0)
(0.0175031 -0.00348002 0 0.00290718 0 0)
(0.0162513 -0.00370784 0 0.00327892 0 0)
(0.0143757 -0.00324413 0 0.00412799 0 0)
(0.0144243 -0.00315669 0 0.00525645 0 0)
(0.0146419 -0.00349313 0 0.00665563 0 0)
(0.0147896 -0.00401518 0 0.00835776 0 0)
(0.0149162 -0.00457407 0 0.0104189 0 0)
(0.0149773 -0.00513925 0 0.0129116 0 0)
(0.0149225 -0.00572272 0 0.0159317 0 0)
(0.0147309 -0.00632866 0 0.0195694 0 0)
(0.0143893 -0.00690818 0 0.0239354 0 0)
(0.0138931 -0.00738664 0 0.0290887 0 0)
(0.0132439 -0.00762893 0 0.0351386 0 0)
(0.0124724 -0.00753221 0 0.0420433 0 0)
(0.0116003 -0.00690978 0 0.0499143 0 0)
(0.0107697 -0.0057096 0 0.0584934 0 0)
(0.00987133 -0.00369049 0 0.0679792 0 0)
(0.00412587 -0.00049406 0 0.00302474 0 0)
(0.0177544 -0.00360396 0 0.00304531 0 0)
(0.0163365 -0.00394302 0 0.00351315 0 0)
(0.0142445 -0.00344297 0 0.00441781 0 0)
(0.0141281 -0.0032612 0 0.00556615 0 0)
(0.0141778 -0.0034831 0 0.00698247 0 0)
(0.0141221 -0.00384394 0 0.00868548 0 0)
(0.0140205 -0.00415857 0 0.0107058 0 0)
(0.0138536 -0.00437837 0 0.0130954 0 0)
(0.0135953 -0.00451684 0 0.0159242 0 0)
(0.0132399 -0.00458561 0 0.0192509 0 0)
(0.0127923 -0.00454321 0 0.023148 0 0)
(0.012264 -0.00432325 0 0.0276303 0 0)
(0.0116864 -0.00381017 0 0.0327572 0 0)
(0.0111029 -0.00293073 0 0.0384498 0 0)
(0.0105693 -0.00155156 0 0.0447898 0 0)
(0.0101979 0.000324651 0 0.0515292 0 0)
(0.00993292 0.00287258 0 0.0588753 0 0)
(0.00409704 -0.000514104 0 0.00306549 0 0)
(0.0176676 -0.00371896 0 0.0032869 0 0)
(0.0162517 -0.00400004 0 0.00354929 0 0)
(0.0140626 -0.00351632 0 0.00427988 0 0)
(0.0137236 -0.00333101 0 0.00531712 0 0)
(0.0134627 -0.00342284 0 0.00660869 0 0)
(0.0130917 -0.00353724 0 0.00814786 0 0)
(0.0127336 -0.00353217 0 0.00995099 0 0)
(0.0124008 -0.0033799 0 0.0120475 0 0)
(0.0120768 -0.00309227 0 0.0144819 0 0)
(0.0117515 -0.00266798 0 0.0172853 0 0)
(0.0114261 -0.0020659 0 0.0204951 0 0)
(0.0111113 -0.00123086 0 0.0241028 0 0)
(0.0108515 -8.7194e-05 0 0.0281393 0 0)
(0.0106934 0.00140488 0 0.0325254 0 0)
(0.0107074 0.00331701 0 0.0373263 0 0)
(0.0109736 0.00562857 0 0.0423406 0 0)
(0.0114712 0.00843719 0 0.0477443 0 0)
(0.00395414 -0.000323506 0 0.00304472 0 0)
(0.0177094 -0.00340713 0 0.00308488 0 0)
(0.0158863 -0.00357343 0 0.00321271 0 0)
(0.0134405 -0.0028474 0 0.00385472 0 0)
(0.0129825 -0.00234741 0 0.00474456 0 0)
(0.0126011 -0.00213079 0 0.00581465 0 0)
(0.0121486 -0.00196024 0 0.0070729 0 0)
(0.0117922 -0.00167517 0 0.0085351 0 0)
(0.0115462 -0.00121325 0 0.0102084 0 0)
(0.0113849 -0.000560684 0 0.0121012 0 0)
(0.0113003 0.000283417 0 0.0142141 0 0)
(0.0113055 0.00133476 0 0.016561 0 0)
(0.0114266 0.00261305 0 0.0191272 0 0)
(0.0117178 0.00415608 0 0.0219308 0 0)
(0.0122216 0.00597287 0 0.0249098 0 0)
(0.0130001 0.00810541 0 0.0281142 0 0)
(0.0141006 0.0105177 0 0.0313983 0 0)
(0.0155155 0.0132788 0 0.0348963 0 0)
(0.00422549 -0.000575215 0 0.00341275 0 0)
(0.0171537 -0.0031604 0 0.00320497 0 0)
(0.0150862 -0.00308847 0 0.00317546 0 0)
(0.012636 -0.00234339 0 0.00365007 0 0)
(0.0121004 -0.00180157 0 0.00430946 0 0)
(0.0116797 -0.00149035 0 0.005095 0 0)
(0.0112444 -0.00121089 0 0.00601842 0 0)
(0.0109354 -0.000811799 0 0.0070852 0 0)
(0.0107634 -0.000224754 0 0.00829172 0 0)
(0.0107198 0.000563447 0 0.00963933 0 0)
(0.0108177 0.00154491 0 0.0111263 0 0)
(0.0110878 0.00271844 0 0.0127584 0 0)
(0.0115632 0.00408558 0 0.0145211 0 0)
(0.0122896 0.00566287 0 0.0164237 0 0)
(0.013299 0.0074469 0 0.0184198 0 0)
(0.0146301 0.00945983 0 0.0205452 0 0)
(0.0163104 0.0116688 0 0.0227048 0 0)
(0.0183284 0.0141189 0 0.0249839 0 0)
(0.00430706 -0.000426222 0 0.00306646 0 0)
(0.0172599 -0.00278082 0 0.00280008 0 0)
(0.0151525 -0.00259086 0 0.00264909 0 0)
(0.0127135 -0.00179151 0 0.00292214 0 0)
(0.0121799 -0.00120801 0 0.00338161 0 0)
(0.0117456 -0.000834201 0 0.00395791 0 0)
(0.0113295 -0.000477458 0 0.00461874 0 0)
(0.011099 -5.5531e-06 0 0.00534998 0 0)
(0.0110636 0.000634787 0 0.00615141 0 0)
(0.0112047 0.00144903 0 0.00703277 0 0)
(0.0115363 0.00242444 0 0.0079992 0 0)
(0.012095 0.00355502 0 0.00905664 0 0)
(0.0129172 0.00483785 0 0.0101933 0 0)
(0.0140416 0.00628308 0 0.011415 0 0)
(0.0154892 0.00788503 0 0.0126907 0 0)
(0.0172851 0.00966033 0 0.0140457 0 0)
(0.0194432 0.0115804 0 0.0154195 0 0)
(0.0219546 0.0136845 0 0.0168701 0 0)
(0.00400084 -0.000324768 0 0.0028964 0 0)
(0.0171371 -0.0024625 0 0.00223854 0 0)
(0.0150166 -0.00238962 0 0.00203962 0 0)
(0.0125134 -0.00168671 0 0.00224686 0 0)
(0.0119214 -0.00111529 0 0.00260519 0 0)
(0.0114587 -0.000732743 0 0.00305197 0 0)
(0.0110439 -0.000388524 0 0.00355842 0 0)
(0.0108349 4.83874e-05 0 0.00411921 0 0)
(0.0108484 0.000643494 0 0.00473744 0 0)
(0.0110844 0.00140778 0 0.00541648 0 0)
(0.0115634 0.00232415 0 0.00615151 0 0)
(0.0123159 0.00337516 0 0.00693983 0 0)
(0.0133679 0.00454944 0 0.00777064 0 0)
(0.0147518 0.00584975 0 0.00864798 0 0)
(0.0164858 0.0072719 0 0.00955079 0 0)
(0.018593 0.00882835 0 0.0104996 0 0)
(0.0210852 0.010493 0 0.0114502 0 0)
(0.0239501 0.0122925 0 0.0124419 0 0)
(0.00410397 -0.000405597 0 0.00245589 0 0)
(0.0166237 -0.00217449 0 0.00202684 0 0)
(0.0144563 -0.00192744 0 0.0017917 0 0)
(0.012011 -0.0011986 0 0.00181163 0 0)
(0.0114486 -0.000647033 0 0.00196747 0 0)
(0.010993 -0.000284131 0 0.00219762 0 0)
(0.0106088 3.51032e-05 0 0.00246136 0 0)
(0.0104962 0.000422621 0 0.00274672 0 0)
(0.0106745 0.000929472 0 0.0030641 0 0)
(0.0111211 0.00156283 0 0.00342703 0 0)
(0.0118445 0.00231096 0 0.00383675 0 0)
(0.0128716 0.00316167 0 0.00428919 0 0)
(0.0142275 0.00410792 0 0.00477404 0 0)
(0.0159361 0.00515092 0 0.00529143 0 0)
(0.0180145 0.00628521 0 0.00582655 0 0)
(0.0204712 0.00751619 0 0.00639383 0 0)
(0.0233225 0.00882835 0 0.00696647 0 0)
(0.0265341 0.0102362 0 0.00756823 0 0)
(0.00447139 -0.0006081 0 0.00212682 0 0)
(0.0166771 -0.00202372 0 0.00165624 0 0)
(0.014057 -0.00153231 0 0.00147437 0 0)
(0.0115931 -0.000738939 0 0.00154031 0 0)
(0.0112564 -0.000172937 0 0.00169326 0 0)
(0.0110409 0.000194674 0 0.00188523 0 0)
(0.0108684 0.000520521 0 0.00209396 0 0)
(0.010974 0.000918175 0 0.00231795 0 0)
(0.0114205 0.00143538 0 0.00256188 0 0)
(0.0122027 0.00206835 0 0.00282795 0 0)
(0.013316 0.00279514 0 0.00311291 0 0)
(0.0147693 0.00359908 0 0.003416 0 0)
(0.0165801 0.00447274 0 0.00373525 0 0)
(0.018772 0.00541977 0 0.00407474 0 0)
(0.0213571 0.00643468 0 0.00442499 0 0)
(0.02434 0.00752267 0 0.0047983 0 0)
(0.0277256 0.00866605 0 0.00517502 0 0)
(0.0314827 0.0098834 0 0.00556523 0 0)
(0.00487681 -0.000437391 0 0.00200525 0 0)
(0.0167741 -0.00171748 0 0.00134811 0 0)
(0.0139372 -0.00131848 0 0.00101844 0 0)
(0.0113835 -0.000710128 0 0.000982586 0 0)
(0.0109752 -0.000290762 0 0.0010307 0 0)
(0.0106765 -4.2782e-05 0 0.00108085 0 0)
(0.0104483 0.00015546 0 0.0011344 0 0)
(0.0105634 0.000401365 0 0.00121752 0 0)
(0.0110748 0.000738515 0 0.00133597 0 0)
(0.0119444 0.00116535 0 0.00147866 0 0)
(0.0131586 0.00166161 0 0.00163326 0 0)
(0.014734 0.00221425 0 0.00179643 0 0)
(0.0166963 0.00281855 0 0.00196885 0 0)
(0.0190618 0.0034758 0 0.00215458 0 0)
(0.0218345 0.00418248 0 0.00234895 0 0)
(0.0250043 0.00494011 0 0.00255771 0 0)
(0.028576 0.00573631 0 0.00276928 0 0)
(0.0325037 0.00658579 0 0.00299033 0 0)
(0.00445731 -0.000442419 0 0.00197847 0 0)
(0.0162585 -0.00136498 0 0.00115008 0 0)
(0.0132155 -0.00110795 0 0.000799544 0 0)
(0.0107954 -0.000575823 0 0.000811141 0 0)
(0.0105769 -0.000121043 0 0.000863845 0 0)
(0.0104758 0.000181365 0 0.000898842 0 0)
(0.0105353 0.000419096 0 0.000924007 0 0)
(0.0110261 0.000673061 0 0.000956974 0 0)
(0.0119527 0.000982234 0 0.00100492 0 0)
(0.0132439 0.00135372 0 0.00106577 0 0)
(0.0148828 0.00177935 0 0.00113727 0 0)
(0.016901 0.00225192 0 0.001219 0 0)
(0.0193347 0.00276671 0 0.00131004 0 0)
(0.0222024 0.00332214 0 0.00141223 0 0)
(0.0255062 0.00391173 0 0.0015229 0 0)
(0.0292292 0.00453643 0 0.00164668 0 0)
(0.0333779 0.00518511 0 0.00177662 0 0)
(0.0379 0.00587113 0 0.00191632 0 0)
(0.00369269 -0.000469734 0 0.00153505 0 0)
(0.0154191 -0.000752189 0 0.000697612 0 0)
(0.012515 -0.00047159 0 0.000392416 0 0)
(0.0103749 -0.000183444 0 0.0003614 0 0)
(0.010355 4.63466e-05 0 0.000354633 0 0)
(0.0104226 0.000172914 0 0.000353703 0 0)
(0.0106619 0.000257445 0 0.000369477 0 0)
(0.0113471 0.000361477 0 0.000395379 0 0)
(0.0124853 0.000509833 0 0.000424732 0 0)
(0.0140186 0.000700515 0 0.000455566 0 0)
(0.0159464 0.000925589 0 0.000488681 0 0)
(0.0183043 0.00117824 0 0.00052613 0 0)
(0.0211214 0.00145387 0 0.000569304 0 0)
(0.0243995 0.00175137 0 0.00062 0 0)
(0.0281239 0.00206862 0 0.000676931 0 0)
(0.0322625 0.00240924 0 0.000741851 0 0)
(0.0368171 0.00276609 0 0.000811431 0 0)
(0.0417293 0.00314973 0 0.000887294 0 0)
(0.00456427 -0.000439251 0 0.00114961 0 0)
(0.0153047 -0.000893603 0 0.000500625 0 0)
(0.0119722 -0.000665203 0 0.000373874 0 0)
(0.0101018 -0.000285701 0 0.000351255 0 0)
(0.0103168 -2.31046e-05 0 0.000306038 0 0)
(0.0105872 0.000121548 0 0.000263279 0 0)
(0.0111541 0.000232324 0 0.000241184 0 0)
(0.0122962 0.000345569 0 0.000232119 0 0)
(0.0139614 0.000462098 0 0.000230485 0 0)
(0.016046 0.000583961 0 0.000234909 0 0)
(0.0185306 0.000719318 0 0.000244869 0 0)
(0.0214518 0.000874333 0 0.000260468 0 0)
(0.0248371 0.00105096 0 0.000282229 0 0)
(0.0286886 0.00124819 0 0.000310576 0 0)
(0.032982 0.00146218 0 0.000345 0 0)
(0.0376941 0.0016895 0 0.000386947 0 0)
(0.042818 0.00192397 0 0.000435234 0 0)
(0.048313 0.0021695 0 0.000489429 0 0)
(0.00359469 -0.00015875 0 0.000864841 0 0)
(0.0141658 6.31711e-05 0 0.000223197 0 0)
(0.0109261 -2.82406e-05 0 0.000145125 0 0)
(0.0093156 1.17717e-05 0 0.00013451 0 0)
(0.00979041 2.90547e-06 0 0.000136427 0 0)
(0.010323 -4.87908e-05 0 0.000140944 0 0)
(0.0111143 -0.000111222 0 0.000146064 0 0)
(0.0123993 -0.000170304 0 0.000152261 0 0)
(0.0140942 -0.000222081 0 0.000160479 0 0)
(0.0160805 -0.000263045 0 0.000170402 0 0)
(0.018323 -0.000289068 0 0.000181629 0 0)
(0.0208562 -0.000297771 0 0.00019439 0 0)
(0.0236975 -0.000286376 0 0.000208798 0 0)
(0.0268794 -0.000252438 0 0.000225065 0 0)
(0.0303693 -0.000194554 0 0.000242868 0 0)
(0.0342105 -0.00011399 0 0.000263684 0 0)
(0.0383435 -1.24983e-05 0 0.00028783 0 0)
(0.0428609 0.000110883 0 0.000314582 0 0)
(0.00400818 -0.00028653 0 0.000730049 0 0)
(0.0152291 -3.5907e-05 0 0.000221483 0 0)
(0.0132809 2.35904e-05 0 0.00013523 0 0)
(0.0125972 0.000101531 0 9.85203e-05 0 0)
(0.0137008 0.000122215 0 7.77852e-05 0 0)
(0.0147391 0.000135033 0 6.49122e-05 0 0)
(0.0157678 0.000155013 0 5.58391e-05 0 0)
(0.0170395 0.000177268 0 5.00161e-05 0 0)
(0.0186487 0.000197948 0 4.71085e-05 0 0)
(0.020623 0.000217977 0 4.63741e-05 0 0)
(0.0229716 0.000241581 0 4.72532e-05 0 0)
(0.0257061 0.00027418 0 4.9366e-05 0 0)
(0.0288617 0.000320079 0 5.2358e-05 0 0)
(0.0324925 0.000380516 0 5.59504e-05 0 0)
(0.0366719 0.00045366 0 6.01287e-05 0 0)
(0.0414193 0.000536763 0 6.5208e-05 0 0)
(0.046812 0.000627488 0 7.06633e-05 0 0)
(0.0527765 0.000728486 0 7.58658e-05 0 0)
(0.00207551 -0.00525476 1.30565e-22 0.0134437 -2.73473e-22 1.34027e-37)
(0.0232321 -0.0190057 -3.6308e-22 0.0158633 2.25529e-22 1.32152e-37)
(0.0623859 -0.0266143 0 0.012294 0 0)
(0.104227 -0.0263055 0 0.00857121 0 0)
(0.138862 -0.0212702 0 0.0065687 0 0)
(0.164983 -0.0164884 8.41789e-22 0.00680427 -5.82881e-23 1.24477e-37)
(0.189391 -0.0154597 0 0.00843702 0 0)
(0.21967 -0.0191049 0 0.0104327 0 0)
(0.264298 -0.0270509 0 0.0118968 0 0)
(0.329395 -0.0372884 0 0.0125763 0 0)
(0.41772 -0.0481096 -1.00952e-21 0.0123725 3.49059e-23 1.15299e-37)
(0.52896 -0.0577532 0 0.0115377 0 0)
(0.659881 -0.065067 0 0.0102707 0 0)
(0.805333 -0.0693282 0 0.00878015 0 0)
(0.958903 -0.0701438 0 0.00723927 0 0)
(1.11355 -0.0674205 -1.26523e-21 0.00578555 9.39154e-23 1.06571e-37)
(1.262 -0.0612954 0 0.00452689 0 0)
(1.39756 -0.0520937 0 0.0035599 0 0)
(1.51434 -0.0403443 0 0.00298142 0 0)
(1.60618 -0.0268805 0 0.0028769 0 0)
(1.67035 -0.0128321 0 0.00328622 0 0)
(1.70592 0.000538263 0 0.00416742 0 0)
(1.7148 0.0120544 0 0.00538941 0 0)
(1.70122 0.0207911 -2.6361e-21 0.00675281 2.55571e-22 9.35296e-38)
(1.67056 0.0262445 2.90577e-21 0.00805528 -2.65694e-22 9.1979e-38)
(1.62875 0.0280935 -3.18611e-21 0.00920195 2.6969e-22 9.0446e-38)
(1.58184 0.0265703 -3.47099e-21 0.010395 2.6842e-22 8.89306e-38)
(1.53522 0.0214751 0 0.0121641 0 0)
(1.49413 0.0124352 0 0.0160515 0 0)
(1.4648 -0.00286646 4.28807e-21 0.022823 -2.17101e-22 8.449e-38)
(1.45825 -0.0268772 4.52435e-21 0.03309 -1.77834e-22 8.30448e-38)
(1.48496 -0.0579578 0 0.04392 0 0)
(1.54778 -0.0899661 0 0.0505516 0 0)
(1.63876 -0.115209 5.13326e-21 0.0514866 -1.12696e-22 7.8814e-38)
(1.75978 -0.133496 0 0.0477575 0 0)
(1.91781 -0.149366 0 0.0471986 0 0)
(2.1109 -0.165758 -5.70234e-21 0.0506375 1.24079e-22 7.47401e-38)
(2.32807 -0.176812 0 0.0531431 0 0)
(2.56836 -0.172888 -6.07199e-21 0.0523969 1.40824e-22 7.21107e-38)
(2.82333 -0.169559 -1.25222e-20 0.0556462 3.13535e-22 2.83288e-37)
(3.09058 -0.17739 0 0.0524587 0 0)
(3.36807 -0.172976 0 0.0470758 0 0)
(3.64362 -0.15999 0 0.0448259 0 0)
(3.91431 -0.1584 0 0.0429136 0 0)
(4.18049 -0.161544 0 0.039287 0 0)
(4.44153 -0.149929 -1.46922e-20 0.0383913 2.95189e-22 2.53791e-37)
(4.68537 -0.141299 -1.49893e-20 0.0386615 2.80663e-22 2.49111e-37)
(4.91714 -0.139272 -1.52524e-20 0.0340879 2.51126e-22 2.44497e-37)
(5.12646 -0.128778 0 0.0308491 0 0)
(5.29984 -0.1154 1.5676e-20 0.0287737 -2.13857e-22 2.35467e-37)
(5.44109 -0.105857 0 0.0271015 0 0)
(5.54683 -0.0990616 -1.59741e-20 0.0261579 1.72603e-22 2.26698e-37)
(5.61398 -0.0859613 -1.60761e-20 0.0263541 1.58008e-22 2.2241e-37)
(5.64538 -0.0613558 0 0.025334 0 0)
(5.65363 -0.0333677 0 0.0217245 0 0)
(5.65474 -0.0167117 0 0.0197106 0 0)
(5.66865 -0.0174578 -1.62034e-20 0.0188771 1.26678e-22 2.0589e-37)
(5.70951 -0.0259515 0 0.0168034 0 0)
(5.7745 -0.0333514 0 0.01444 0 0)
(5.85636 -0.038317 0 0.012288 0 0)
(5.94916 -0.0410983 0 0.0104171 0 0)
(6.04795 -0.0421493 0 0.00883141 0 0)
(6.14875 -0.0418744 0 0.00750269 0 0)
(6.24855 -0.0406204 0 0.00639465 0 0)
(6.34483 -0.0386293 0 0.00546885 0 0)
(6.43578 -0.0360839 1.52236e-20 0.00469229 -1.72951e-23 1.72265e-37)
(6.51974 -0.0330809 0 0.00403613 0 0)
(6.59527 -0.0296913 0 0.00347871 0 0)
(6.66089 -0.0259604 -1.46741e-20 0.00300347 -1.16711e-24 1.62091e-37)
(6.71527 -0.0219154 -1.44694e-20 0.00259786 -6.53371e-24 1.5881e-37)
(6.75723 -0.0175771 0 0.00225235 0 0)
(6.7855 -0.0129536 1.4026e-20 0.00195874 1.6623e-23 1.52407e-37)
(6.79888 -0.00805137 -1.37867e-20 0.00170987 -2.14616e-23 1.49285e-37)
(6.79614 -0.00288416 0 0.00149974 0 0)
(6.77602 0.00252789 1.32714e-20 0.00132341 3.09214e-23 1.43195e-37)
(6.73733 0.00814803 0 0.00117817 0 0)
(6.67901 0.0138954 0 0.00106409 0 0)
(6.60024 0.0196556 -1.24042e-20 0.000981706 -4.43209e-23 1.34437e-37)
(6.50075 0.0252849 0 0.000930662 0 0)
(6.38128 0.0306629 1.17673e-20 0.000907033 5.17725e-23 1.28843e-37)
(6.24221 0.0357094 0 0.000904697 0 0)
(6.08467 0.0403469 -1.10953e-20 0.000916564 -5.72651e-23 1.23439e-37)
(5.90984 0.0445491 -1.07507e-20 0.000935184 -5.919e-23 1.20806e-37)
(5.71914 0.0483203 -1.04029e-20 0.000955342 -6.05835e-23 1.18219e-37)
(5.51377 0.0517061 -2.01076e-20 0.000975052 -1.22998e-22 4.62705e-37)
(5.29483 0.0547574 1.941e-20 0.000995591 1.23981e-22 4.52712e-37)
(5.06319 0.0575147 0 0.00102027 0 0)
(4.81972 0.0599814 0 0.00105244 0 0)
(4.56539 0.0621269 0 0.00109459 0 0)
(4.30146 0.0638797 1.66837e-20 0.00114733 1.21165e-22 4.14463e-37)
(4.02955 0.0651433 1.60323e-20 0.00120861 1.18824e-22 4.05318e-37)
(3.75176 0.065811 -1.53992e-20 0.00127467 -1.15759e-22 3.96337e-37)
(3.47068 0.0657879 0 0.0013403 0 0)
(3.18926 0.0650045 1.4201e-20 0.00139904 1.07372e-22 3.78851e-37)
(2.9107 0.0634394 1.3642e-20 0.00144495 1.02116e-22 3.70343e-37)
(2.63828 0.0611164 1.31131e-20 0.00147247 9.62669e-23 3.61988e-37)
(2.37518 0.0581099 0 0.00147771 0 0)
(2.12423 0.0545421 0 0.00145952 0 0)
(1.8877 0.050541 0 0.00141744 0 0)
(1.66722 0.0462705 1.13183e-20 0.00135493 6.98938e-23 3.30054e-37)
(1.4639 0.0418529 0 0.00127423 0 0)
(1.27832 0.0374317 0 0.00118075 0 0)
(1.11067 0.0330939 -1.02903e-20 0.00107761 -5.07321e-23 3.07603e-37)
(0.960714 0.0289328 0 0.00096953 0 0)
(0.827907 0.0249998 0 0.000859259 0 0)
(0.711436 0.0213466 -9.48207e-21 0.000750248 -3.41925e-23 2.86373e-37)
(0.610312 0.017997 0 0.00064448 0 0)
(0.523342 0.0149809 0 0.000544908 0 0)
(0.449273 0.0123124 8.84055e-21 0.000453808 2.07098e-23 2.66308e-37)
(0.386759 0.00998015 8.65568e-21 0.000372003 1.69162e-23 2.59869e-37)
(0.334391 0.00795729 0 0.000299342 0 0)
(0.290853 0.00623458 -8.32056e-21 0.000237011 -1.02986e-23 2.47354e-37)
(0.25495 0.00478589 0 0.000184793 0 0)
(0.225569 0.00358029 8.0239e-21 0.000141978 4.93958e-24 2.3531e-37)
(0.201715 0.00258518 0 0.000107527 0 0)
(0.182519 0.00176901 7.75829e-21 8.02826e-05 6.98347e-25 2.23722e-37)
(0.167236 0.00110294 7.63528e-21 5.91037e-05 -1.05665e-24 2.18095e-37)
(0.155234 0.000561687 0 4.29636e-05 0 0)
(0.145978 0.00012407 0 3.10178e-05 0 0)
(0.139016 -0.000227799 0 2.25809e-05 0 0)
(0.13397 -0.000509385 0 1.70789e-05 0 0)
(0.130517 -0.00073259 0 1.40334e-05 0 0)
(0.128383 -0.000907582 0 1.29879e-05 0 0)
(0.127337 -0.00104391 0 1.34731e-05 0 0)
(0.127189 -0.00114887 6.81891e-21 1.50688e-05 -8.49408e-24 1.76849e-37)
(0.127782 -0.0012286 -6.73182e-21 1.73431e-05 8.74499e-24 1.7214e-37)
(0.128989 -0.00128915 0 1.98895e-05 0 0)
(0.13071 -0.00133355 0 2.23838e-05 0 0)
(0.132855 -0.00136137 0 2.44266e-05 0 0)
(0.135348 -0.00137311 0 2.5673e-05 0 0)
(0.138122 -0.00137058 -1.26446e-20 2.60152e-05 1.65772e-23 5.99899e-37)
(0.14112 -0.00135506 0 2.5494e-05 0 0)
(0.144286 -0.00132733 1.23308e-20 2.42158e-05 -1.49611e-23 5.669e-37)
(0.147568 -0.0012883 -1.21751e-20 2.23451e-05 1.40229e-23 5.50907e-37)
(0.150916 -0.00123915 0 2.00768e-05 0 0)
(0.15428 -0.00118121 0 1.76006e-05 0 0)
(0.157614 -0.00111618 0 1.50927e-05 0 0)
(0.160875 -0.00104617 1.15549e-20 1.27031e-05 -1.01065e-23 4.90177e-37)
(0.164026 -0.000973311 1.13997e-20 1.05322e-05 -9.19965e-24 4.7578e-37)
(0.167036 -0.000899451 0 8.62634e-06 0 0)
(0.169883 -0.000826118 1.10888e-20 6.99356e-06 -7.56294e-24 4.47893e-37)
(0.172547 -0.000754534 1.09331e-20 5.61989e-06 -6.84068e-24 4.34393e-37)
(0.175017 -0.000685683 -1.07773e-20 4.48131e-06 6.18219e-24 4.21182e-37)
(0.177286 -0.000620366 0 3.55046e-06 0 0)
(0.179352 -0.000559201 0 2.79938e-06 0 0)
(0.181217 -0.00050259 -1.03096e-20 2.20039e-06 4.5722e-24 3.8324e-37)
(0.182889 -0.00045071 0 1.727e-06 0 0)
(0.184378 -0.0004035 0 1.35493e-06 0 0)
(0.185697 -0.000360724 0 1.06304e-06 0 0)