# vtk DataFile Version 2.0
sampleSurface
ASCII
DATASET POLYDATA
POINTS 502 double
-0.0206 0 -0.0005
-0.0190172 0 -0.0005
-0.0190172 0 0.0005
-0.0206 0 0.0005
-0.0174976 0 -0.0005
-0.0174976 0 0.0005
-0.0160387 0 -0.0005
-0.0160387 0 0.0005
-0.0146381 0 -0.0005
-0.0146381 0 0.0005
-0.0132934 0 -0.0005
-0.0132934 0 0.0005
-0.0120025 0 -0.0005
-0.0120025 0 0.0005
-0.0107632 0 -0.0005
-0.0107632 0 0.0005
-0.00957337 0 -0.0005
-0.00957337 0 0.0005
-0.00843108 0 -0.0005
-0.00843108 0 0.0005
-0.00733443 0 -0.0005
-0.00733443 0 0.0005
-0.0062816 0 -0.0005
-0.0062816 0 0.0005
-0.00527083 0 -0.0005
-0.00527083 0 0.0005
-0.00430044 0 -0.0005
-0.00430044 0 0.0005
-0.00336883 0 -0.0005
-0.00336883 0 0.0005
-0.00247443 0 -0.0005
-0.00247443 0 0.0005
-0.00161577 0 -0.0005
-0.00161577 0 0.0005
-0.000791418 0 -0.0005
-0.000791418 0 0.0005
0 0 -0.0005
0 0 0.0005
0 -0.0254 -0.0005
0 -0.0254 0.0005
0 -0.0242711 0.0005
0 -0.0242711 -0.0005
0 -0.0231422 0.0005
0 -0.0231422 -0.0005
0 -0.0220133 0.0005
0 -0.0220133 -0.0005
0 -0.0208844 0.0005
0 -0.0208844 -0.0005
0 -0.0197556 0.0005
0 -0.0197556 -0.0005
0 -0.0186267 0.0005
0 -0.0186267 -0.0005
0 -0.0174978 0.0005
0 -0.0174978 -0.0005
0 -0.0163689 0.0005
0 -0.0163689 -0.0005
0 -0.01524 0.0005
0 -0.01524 -0.0005
0 -0.0141111 0.0005
0 -0.0141111 -0.0005
0 -0.0129822 0.0005
0 -0.0129822 -0.0005
0 -0.0118533 0.0005
0 -0.0118533 -0.0005
0 -0.0107244 0.0005
0 -0.0107244 -0.0005
0 -0.00959556 0.0005
0 -0.00959556 -0.0005
0 -0.00846667 0.0005
0 -0.00846667 -0.0005
0 -0.00726604 0.0005
0 -0.00726604 -0.0005
0 -0.00618989 0.0005
0 -0.00618989 -0.0005
0 -0.00522531 0.0005
0 -0.00522531 -0.0005
0 -0.00436073 0.0005
0 -0.00436073 -0.0005
0 -0.00358579 0.0005
0 -0.00358579 -0.0005
0 -0.00289118 0.0005
0 -0.00289118 -0.0005
0 -0.0022686 0.0005
0 -0.0022686 -0.0005
0 -0.00171055 0.0005
0 -0.00171055 -0.0005
0 -0.00121037 0.0005
0 -0.00121037 -0.0005
0 -0.000762037 0.0005
0 -0.000762037 -0.0005
0 -0.000360188 0.0005
0 -0.000360188 -0.0005
0.000528387 -0.0254 -0.0005
0.000528387 -0.0254 0.0005
0.00106088 -0.0254 -0.0005
0.00106088 -0.0254 0.0005
0.00159752 -0.0254 -0.0005
0.00159752 -0.0254 0.0005
0.00213833 -0.0254 -0.0005
0.00213833 -0.0254 0.0005
0.00268334 -0.0254 -0.0005
0.00268334 -0.0254 0.0005
0.00323259 -0.0254 -0.0005
0.00323259 -0.0254 0.0005
0.00378611 -0.0254 -0.0005
0.00378611 -0.0254 0.0005
0.00434393 -0.0254 -0.0005
0.00434393 -0.0254 0.0005
0.00490609 -0.0254 -0.0005
0.00490609 -0.0254 0.0005
0.00547262 -0.0254 -0.0005
0.00547262 -0.0254 0.0005
0.00604356 -0.0254 -0.0005
0.00604356 -0.0254 0.0005
0.00661893 -0.0254 -0.0005
0.00661893 -0.0254 0.0005
0.00719878 -0.0254 -0.0005
0.00719878 -0.0254 0.0005
0.00778313 -0.0254 -0.0005
0.00778313 -0.0254 0.0005
0.00837203 -0.0254 -0.0005
0.00837203 -0.0254 0.0005
0.00896551 -0.0254 -0.0005
0.00896551 -0.0254 0.0005
0.0095636 -0.0254 -0.0005
0.0095636 -0.0254 0.0005
0.0101663 -0.0254 -0.0005
0.0101663 -0.0254 0.0005
0.0107738 -0.0254 -0.0005
0.0107738 -0.0254 0.0005
0.0113859 -0.0254 -0.0005
0.0113859 -0.0254 0.0005
0.0120028 -0.0254 -0.0005
0.0120028 -0.0254 0.0005
0.0126245 -0.0254 -0.0005
0.0126245 -0.0254 0.0005
0.0132511 -0.0254 -0.0005
0.0132511 -0.0254 0.0005
0.0138825 -0.0254 -0.0005
0.0138825 -0.0254 0.0005
0.0145188 -0.0254 -0.0005
0.0145188 -0.0254 0.0005
0.0151601 -0.0254 -0.0005
0.0151601 -0.0254 0.0005
0.0158063 -0.0254 -0.0005
0.0158063 -0.0254 0.0005
0.0164576 -0.0254 -0.0005
0.0164576 -0.0254 0.0005
0.0171139 -0.0254 -0.0005
0.0171139 -0.0254 0.0005
0.0177754 -0.0254 -0.0005
0.0177754 -0.0254 0.0005
0.018442 -0.0254 -0.0005
0.018442 -0.0254 0.0005
0.0191137 -0.0254 -0.0005
0.0191137 -0.0254 0.0005
0.0197907 -0.0254 -0.0005
0.0197907 -0.0254 0.0005
0.020473 -0.0254 -0.0005
0.020473 -0.0254 0.0005
0.0211606 -0.0254 -0.0005
0.0211606 -0.0254 0.0005
0.0218535 -0.0254 -0.0005
0.0218535 -0.0254 0.0005
0.0225517 -0.0254 -0.0005
0.0225517 -0.0254 0.0005
0.0232555 -0.0254 -0.0005
0.0232555 -0.0254 0.0005
0.0239647 -0.0254 -0.0005
0.0239647 -0.0254 0.0005
0.0246794 -0.0254 -0.0005
0.0246794 -0.0254 0.0005
0.0253996 -0.0254 -0.0005
0.0253996 -0.0254 0.0005
0.0261255 -0.0254 -0.0005
0.0261255 -0.0254 0.0005
0.026857 -0.0254 -0.0005
0.026857 -0.0254 0.0005
0.0275942 -0.0254 -0.0005
0.0275942 -0.0254 0.0005
0.0283371 -0.0254 -0.0005
0.0283371 -0.0254 0.0005
0.0290858 -0.0254 -0.0005
0.0290858 -0.0254 0.0005
0.0298403 -0.0254 -0.0005
0.0298403 -0.0254 0.0005
0.0306007 -0.0254 -0.0005
0.0306007 -0.0254 0.0005
0.031367 -0.0254 -0.0005
0.031367 -0.0254 0.0005
0.0321393 -0.0254 -0.0005
0.0321393 -0.0254 0.0005
0.0329175 -0.0254 -0.0005
0.0329175 -0.0254 0.0005
0.0337019 -0.0254 -0.0005
0.0337019 -0.0254 0.0005
0.0344923 -0.0254 -0.0005
0.0344923 -0.0254 0.0005
0.0352888 -0.0254 -0.0005
0.0352888 -0.0254 0.0005
0.0360916 -0.0254 -0.0005
0.0360916 -0.0254 0.0005
0.0369006 -0.0254 -0.0005
0.0369006 -0.0254 0.0005
0.0377158 -0.0254 -0.0005
0.0377158 -0.0254 0.0005
0.0385375 -0.0254 -0.0005
0.0385375 -0.0254 0.0005
0.0393655 -0.0254 -0.0005
0.0393655 -0.0254 0.0005
0.0401999 -0.0254 -0.0005
0.0401999 -0.0254 0.0005
0.0410408 -0.0254 -0.0005
0.0410408 -0.0254 0.0005
0.0418883 -0.0254 -0.0005
0.0418883 -0.0254 0.0005
0.0427424 -0.0254 -0.0005
0.0427424 -0.0254 0.0005
0.0436031 -0.0254 -0.0005
0.0436031 -0.0254 0.0005
0.0444704 -0.0254 -0.0005
0.0444704 -0.0254 0.0005
0.0453446 -0.0254 -0.0005
0.0453446 -0.0254 0.0005
0.0462255 -0.0254 -0.0005
0.0462255 -0.0254 0.0005
0.0471133 -0.0254 -0.0005
0.0471133 -0.0254 0.0005
0.048008 -0.0254 -0.0005
0.048008 -0.0254 0.0005
0.0489096 -0.0254 -0.0005
0.0489096 -0.0254 0.0005
0.0498183 -0.0254 -0.0005
0.0498183 -0.0254 0.0005
0.050734 -0.0254 -0.0005
0.050734 -0.0254 0.0005
0.0516568 -0.0254 -0.0005
0.0516568 -0.0254 0.0005
0.0525868 -0.0254 -0.0005
0.0525868 -0.0254 0.0005
0.053524 -0.0254 -0.0005
0.053524 -0.0254 0.0005
0.0544686 -0.0254 -0.0005
0.0544686 -0.0254 0.0005
0.0554204 -0.0254 -0.0005
0.0554204 -0.0254 0.0005
0.0563797 -0.0254 -0.0005
0.0563797 -0.0254 0.0005
0.0573464 -0.0254 -0.0005
0.0573464 -0.0254 0.0005
0.0583206 -0.0254 -0.0005
0.0583206 -0.0254 0.0005
0.0593025 -0.0254 -0.0005
0.0593025 -0.0254 0.0005
0.0602919 -0.0254 -0.0005
0.0602919 -0.0254 0.0005
0.0612891 -0.0254 -0.0005
0.0612891 -0.0254 0.0005
0.0622939 -0.0254 -0.0005
0.0622939 -0.0254 0.0005
0.0633067 -0.0254 -0.0005
0.0633067 -0.0254 0.0005
0.0643272 -0.0254 -0.0005
0.0643272 -0.0254 0.0005
0.0653557 -0.0254 -0.0005
0.0653557 -0.0254 0.0005
0.0663923 -0.0254 -0.0005
0.0663923 -0.0254 0.0005
0.0674368 -0.0254 -0.0005
0.0674368 -0.0254 0.0005
0.0684895 -0.0254 -0.0005
0.0684895 -0.0254 0.0005
0.0695504 -0.0254 -0.0005
0.0695504 -0.0254 0.0005
0.0706195 -0.0254 -0.0005
0.0706195 -0.0254 0.0005
0.0716969 -0.0254 -0.0005
0.0716969 -0.0254 0.0005
0.0727828 -0.0254 -0.0005
0.0727828 -0.0254 0.0005
0.073877 -0.0254 -0.0005
0.073877 -0.0254 0.0005
0.0749798 -0.0254 -0.0005
0.0749798 -0.0254 0.0005
0.0760911 -0.0254 -0.0005
0.0760911 -0.0254 0.0005
0.0772111 -0.0254 -0.0005
0.0772111 -0.0254 0.0005
0.0783398 -0.0254 -0.0005
0.0783398 -0.0254 0.0005
0.0794772 -0.0254 -0.0005
0.0794772 -0.0254 0.0005
0.0806235 -0.0254 -0.0005
0.0806235 -0.0254 0.0005
0.0817787 -0.0254 -0.0005
0.0817787 -0.0254 0.0005
0.0829429 -0.0254 -0.0005
0.0829429 -0.0254 0.0005
0.0841162 -0.0254 -0.0005
0.0841162 -0.0254 0.0005
0.0852985 -0.0254 -0.0005
0.0852985 -0.0254 0.0005
0.0864901 -0.0254 -0.0005
0.0864901 -0.0254 0.0005
0.0876909 -0.0254 -0.0005
0.0876909 -0.0254 0.0005
0.0889011 -0.0254 -0.0005
0.0889011 -0.0254 0.0005
0.0901207 -0.0254 -0.0005
0.0901207 -0.0254 0.0005
0.0913497 -0.0254 -0.0005
0.0913497 -0.0254 0.0005
0.0925883 -0.0254 -0.0005
0.0925883 -0.0254 0.0005
0.0938366 -0.0254 -0.0005
0.0938366 -0.0254 0.0005
0.0950945 -0.0254 -0.0005
0.0950945 -0.0254 0.0005
0.0963622 -0.0254 -0.0005
0.0963622 -0.0254 0.0005
0.0976398 -0.0254 -0.0005
0.0976398 -0.0254 0.0005
0.0989273 -0.0254 -0.0005
0.0989273 -0.0254 0.0005
0.100225 -0.0254 -0.0005
0.100225 -0.0254 0.0005
0.101532 -0.0254 -0.0005
0.101532 -0.0254 0.0005
0.10285 -0.0254 -0.0005
0.10285 -0.0254 0.0005
0.104178 -0.0254 -0.0005
0.104178 -0.0254 0.0005
0.105517 -0.0254 -0.0005
0.105517 -0.0254 0.0005
0.106865 -0.0254 -0.0005
0.106865 -0.0254 0.0005
0.108225 -0.0254 -0.0005
0.108225 -0.0254 0.0005
0.109594 -0.0254 -0.0005
0.109594 -0.0254 0.0005
0.110975 -0.0254 -0.0005
0.110975 -0.0254 0.0005
0.112366 -0.0254 -0.0005
0.112366 -0.0254 0.0005
0.113768 -0.0254 -0.0005
0.113768 -0.0254 0.0005
0.115181 -0.0254 -0.0005
0.115181 -0.0254 0.0005
0.116605 -0.0254 -0.0005
0.116605 -0.0254 0.0005
0.11804 -0.0254 -0.0005
0.11804 -0.0254 0.0005
0.119486 -0.0254 -0.0005
0.119486 -0.0254 0.0005
0.120943 -0.0254 -0.0005
0.120943 -0.0254 0.0005
0.122412 -0.0254 -0.0005
0.122412 -0.0254 0.0005
0.123892 -0.0254 -0.0005
0.123892 -0.0254 0.0005
0.125384 -0.0254 -0.0005
0.125384 -0.0254 0.0005
0.126887 -0.0254 -0.0005
0.126887 -0.0254 0.0005
0.128402 -0.0254 -0.0005
0.128402 -0.0254 0.0005
0.129928 -0.0254 -0.0005
0.129928 -0.0254 0.0005
0.131467 -0.0254 -0.0005
0.131467 -0.0254 0.0005
0.133017 -0.0254 -0.0005
0.133017 -0.0254 0.0005
0.13458 -0.0254 -0.0005
0.13458 -0.0254 0.0005
0.136155 -0.0254 -0.0005
0.136155 -0.0254 0.0005
0.137742 -0.0254 -0.0005
0.137742 -0.0254 0.0005
0.139341 -0.0254 -0.0005
0.139341 -0.0254 0.0005
0.140953 -0.0254 -0.0005
0.140953 -0.0254 0.0005
0.142577 -0.0254 -0.0005
0.142577 -0.0254 0.0005
0.144214 -0.0254 -0.0005
0.144214 -0.0254 0.0005
0.145863 -0.0254 -0.0005
0.145863 -0.0254 0.0005
0.147526 -0.0254 -0.0005
0.147526 -0.0254 0.0005
0.149201 -0.0254 -0.0005
0.149201 -0.0254 0.0005
0.15089 -0.0254 -0.0005
0.15089 -0.0254 0.0005
0.152591 -0.0254 -0.0005
0.152591 -0.0254 0.0005
0.154306 -0.0254 -0.0005
0.154306 -0.0254 0.0005
0.156034 -0.0254 -0.0005
0.156034 -0.0254 0.0005
0.157775 -0.0254 -0.0005
0.157775 -0.0254 0.0005
0.159531 -0.0254 -0.0005
0.159531 -0.0254 0.0005
0.161299 -0.0254 -0.0005
0.161299 -0.0254 0.0005
0.163082 -0.0254 -0.0005
0.163082 -0.0254 0.0005
0.164878 -0.0254 -0.0005
0.164878 -0.0254 0.0005
0.166688 -0.0254 -0.0005
0.166688 -0.0254 0.0005
0.168513 -0.0254 -0.0005
0.168513 -0.0254 0.0005
0.170351 -0.0254 -0.0005
0.170351 -0.0254 0.0005
0.172204 -0.0254 -0.0005
0.172204 -0.0254 0.0005
0.174071 -0.0254 -0.0005
0.174071 -0.0254 0.0005
0.175953 -0.0254 -0.0005
0.175953 -0.0254 0.0005
0.177849 -0.0254 -0.0005
0.177849 -0.0254 0.0005
0.17976 -0.0254 -0.0005
0.17976 -0.0254 0.0005
0.181686 -0.0254 -0.0005
0.181686 -0.0254 0.0005
0.183627 -0.0254 -0.0005
0.183627 -0.0254 0.0005
0.185583 -0.0254 -0.0005
0.185583 -0.0254 0.0005
0.187555 -0.0254 -0.0005
0.187555 -0.0254 0.0005
0.189541 -0.0254 -0.0005
0.189541 -0.0254 0.0005
0.191543 -0.0254 -0.0005
0.191543 -0.0254 0.0005
0.193561 -0.0254 -0.0005
0.193561 -0.0254 0.0005
0.195594 -0.0254 -0.0005
0.195594 -0.0254 0.0005
0.197643 -0.0254 -0.0005
0.197643 -0.0254 0.0005
0.199708 -0.0254 -0.0005
0.199708 -0.0254 0.0005
0.201789 -0.0254 -0.0005
0.201789 -0.0254 0.0005
0.203886 -0.0254 -0.0005
0.203886 -0.0254 0.0005
0.206 -0.0254 -0.0005
0.206 -0.0254 0.0005
0.208047 -0.0251856 -0.0005
0.208047 -0.0251856 0.0005
0.210173 -0.0249628 -0.0005
0.210173 -0.0249628 0.0005
0.212382 -0.0247314 -0.0005
0.212382 -0.0247314 0.0005
0.214677 -0.024491 -0.0005
0.214677 -0.024491 0.0005
0.217061 -0.0242412 -0.0005
0.217061 -0.0242412 0.0005
0.219538 -0.0239817 -0.0005
0.219538 -0.0239817 0.0005
0.222112 -0.0237121 -0.0005
0.222112 -0.0237121 0.0005
0.224785 -0.023432 -0.0005
0.224785 -0.023432 0.0005
0.227563 -0.023141 -0.0005
0.227563 -0.023141 0.0005
0.230449 -0.0228387 -0.0005
0.230449 -0.0228387 0.0005
0.233447 -0.0225246 -0.0005
0.233447 -0.0225246 0.0005
0.236562 -0.0221983 -0.0005
0.236562 -0.0221983 0.0005
0.239797 -0.0218593 -0.0005
0.239797 -0.0218593 0.0005
0.243159 -0.0215071 -0.0005
0.243159 -0.0215071 0.0005
0.246652 -0.0211412 -0.0005
0.246652 -0.0211412 0.0005
0.250281 -0.0207611 -0.0005
0.250281 -0.0207611 0.0005
0.254051 -0.0203661 -0.0005
0.254051 -0.0203661 0.0005
0.257967 -0.0199558 -0.0005
0.257967 -0.0199558 0.0005
0.262036 -0.0195295 -0.0005
0.262036 -0.0195295 0.0005
0.266264 -0.0190867 -0.0005
0.266264 -0.0190867 0.0005
0.270655 -0.0186266 -0.0005
0.270655 -0.0186266 0.0005
0.275218 -0.0181486 -0.0005
0.275218 -0.0181486 0.0005
0.279959 -0.017652 -0.0005
0.279959 -0.017652 0.0005
0.284883 -0.017136 -0.0005
0.284883 -0.017136 0.0005
0.29 -0.0166 -0.0005
0.29 -0.0166 0.0005

POLYGONS 250 1250
4 0 1 2 3
4 1 4 5 2
4 4 6 7 5
4 6 8 9 7
4 8 10 11 9
4 10 12 13 11
4 12 14 15 13
4 14 16 17 15
4 16 18 19 17
4 18 20 21 19
4 20 22 23 21
4 22 24 25 23
4 24 26 27 25
4 26 28 29 27
4 28 30 31 29
4 30 32 33 31
4 32 34 35 33
4 34 36 37 35
4 38 39 40 41
4 41 40 42 43
4 43 42 44 45
4 45 44 46 47
4 47 46 48 49
4 49 48 50 51
4 51 50 52 53
4 53 52 54 55
4 55 54 56 57
4 57 56 58 59
4 59 58 60 61
4 61 60 62 63
4 63 62 64 65
4 65 64 66 67
4 67 66 68 69
4 69 68 70 71
4 71 70 72 73
4 73 72 74 75
4 75 74 76 77
4 77 76 78 79
4 79 78 80 81
4 81 80 82 83
4 83 82 84 85
4 85 84 86 87
4 87 86 88 89
4 89 88 90 91
4 91 90 37 36
4 38 92 93 39
4 92 94 95 93
4 94 96 97 95
4 96 98 99 97
4 98 100 101 99
4 100 102 103 101
4 102 104 105 103
4 104 106 107 105
4 106 108 109 107
4 108 110 111 109
4 110 112 113 111
4 112 114 115 113
4 114 116 117 115
4 116 118 119 117
4 118 120 121 119
4 120 122 123 121
4 122 124 125 123
4 124 126 127 125
4 126 128 129 127
4 128 130 131 129
4 130 132 133 131
4 132 134 135 133
4 134 136 137 135
4 136 138 139 137
4 138 140 141 139
4 140 142 143 141
4 142 144 145 143
4 144 146 147 145
4 146 148 149 147
4 148 150 151 149
4 150 152 153 151
4 152 154 155 153
4 154 156 157 155
4 156 158 159 157
4 158 160 161 159
4 160 162 163 161
4 162 164 165 163
4 164 166 167 165
4 166 168 169 167
4 168 170 171 169
4 170 172 173 171
4 172 174 175 173
4 174 176 177 175
4 176 178 179 177
4 178 180 181 179
4 180 182 183 181
4 182 184 185 183
4 184 186 187 185
4 186 188 189 187
4 188 190 191 189
4 190 192 193 191
4 192 194 195 193
4 194 196 197 195
4 196 198 199 197
4 198 200 201 199
4 200 202 203 201
4 202 204 205 203
4 204 206 207 205
4 206 208 209 207
4 208 210 211 209
4 210 212 213 211
4 212 214 215 213
4 214 216 217 215
4 216 218 219 217
4 218 220 221 219
4 220 222 223 221
4 222 224 225 223
4 224 226 227 225
4 226 228 229 227
4 228 230 231 229
4 230 232 233 231
4 232 234 235 233
4 234 236 237 235
4 236 238 239 237
4 238 240 241 239
4 240 242 243 241
4 242 244 245 243
4 244 246 247 245
4 246 248 249 247
4 248 250 251 249
4 250 252 253 251
4 252 254 255 253
4 254 256 257 255
4 256 258 259 257
4 258 260 261 259
4 260 262 263 261
4 262 264 265 263
4 264 266 267 265
4 266 268 269 267
4 268 270 271 269
4 270 272 273 271
4 272 274 275 273
4 274 276 277 275
4 276 278 279 277
4 278 280 281 279
4 280 282 283 281
4 282 284 285 283
4 284 286 287 285
4 286 288 289 287
4 288 290 291 289
4 290 292 293 291
4 292 294 295 293
4 294 296 297 295
4 296 298 299 297
4 298 300 301 299
4 300 302 303 301
4 302 304 305 303
4 304 306 307 305
4 306 308 309 307
4 308 310 311 309
4 310 312 313 311
4 312 314 315 313
4 314 316 317 315
4 316 318 319 317
4 318 320 321 319
4 320 322 323 321
4 322 324 325 323
4 324 326 327 325
4 326 328 329 327
4 328 330 331 329
4 330 332 333 331
4 332 334 335 333
4 334 336 337 335
4 336 338 339 337
4 338 340 341 339
4 340 342 343 341
4 342 344 345 343
4 344 346 347 345
4 346 348 349 347
4 348 350 351 349
4 350 352 353 351
4 352 354 355 353
4 354 356 357 355
4 356 358 359 357
4 358 360 361 359
4 360 362 363 361
4 362 364 365 363
4 364 366 367 365
4 366 368 369 367
4 368 370 371 369
4 370 372 373 371
4 372 374 375 373
4 374 376 377 375
4 376 378 379 377
4 378 380 381 379
4 380 382 383 381
4 382 384 385 383
4 384 386 387 385
4 386 388 389 387
4 388 390 391 389
4 390 392 393 391
4 392 394 395 393
4 394 396 397 395
4 396 398 399 397
4 398 400 401 399
4 400 402 403 401
4 402 404 405 403
4 404 406 407 405
4 406 408 409 407
4 408 410 411 409
4 410 412 413 411
4 412 414 415 413
4 414 416 417 415
4 416 418 419 417
4 418 420 421 419
4 420 422 423 421
4 422 424 425 423
4 424 426 427 425
4 426 428 429 427
4 428 430 431 429
4 430 432 433 431
4 432 434 435 433
4 434 436 437 435
4 436 438 439 437
4 438 440 441 439
4 440 442 443 441
4 442 444 445 443
4 444 446 447 445
4 446 448 449 447
4 448 450 451 449
4 450 452 453 451
4 452 454 455 453
4 454 456 457 455
4 456 458 459 457
4 458 460 461 459
4 460 462 463 461
4 462 464 465 463
4 464 466 467 465
4 466 468 469 467
4 468 470 471 469
4 470 472 473 471
4 472 474 475 473
4 474 476 477 475
4 476 478 479 477
4 478 480 481 479
4 480 482 483 481
4 482 484 485 483
4 484 486 487 485
4 486 488 489 487
4 488 490 491 489
4 490 492 493 491
4 492 494 495 493
4 494 496 497 495
4 496 498 499 497
4 498 500 501 499
POINT_DATA 502
FIELD attributes 1
U 3 502 float
1.61041 0.10866 0.00314616
0.807036 0.0539292 0.00155043
0.807036 0.0539292 0.00155043
1.61041 0.10866 0.00314616
0.0249938 0.000740824 0
0.0249938 0.000740824 0
0.0222696 0.000650198 0
0.0222696 0.000650198 0
0.019827 0.000508218 0
0.019827 0.000508218 0
0.017556 0.00040984 0
0.017556 0.00040984 0
0.0154515 0.000344893 0
0.0154515 0.000344893 0
0.0135819 0.000287621 0
0.0135819 0.000287621 0
0.0119643 0.000240584 0
0.0119643 0.000240584 0
0.0105579 0.000206479 0
0.0105579 0.000206479 0
0.00930822 0.000178619 0
0.00930822 0.000178619 0
0.00820293 0.00014869 0
0.00820293 0.00014869 0
0.00725566 0.000113336 0
0.00725566 0.000113336 0
0.00648577 7.5207e-05 0
0.00648577 7.5207e-05 0
0.00587106 3.85359e-05 0
0.00587106 3.85359e-05 0
0.00539217 4.49622e-06 0
0.00539217 4.49622e-06 0
0.00502271 -3.19443e-06 0
0.00502271 -3.19443e-06 0
0.00462302 -1.97136e-05 0
0.00462302 -1.97136e-05 0
0.002136 0.000239818 0
0.002136 0.000239818 0
-0.000203023 0.00048284 1.86314e-23
-0.000203023 0.00048284 1.86314e-23
-0.000200094 0.00155865 -5.02162e-23
-0.000200094 0.00155865 -5.02162e-23
-2.85349e-05 0.00282651 -5.94903e-23
-2.85349e-05 0.00282651 -5.94903e-23
0.000226317 0.00248986 1.1901e-22
0.000226317 0.00248986 1.1901e-22
0.000181765 0.00161481 3.95958e-23
0.000181765 0.00161481 3.95958e-23
-0.00015919 0.00122536 -7.93726e-23
-0.00015919 0.00122536 -7.93726e-23
-9.64877e-05 0.000848032 0
-9.64877e-05 0.000848032 0
0.000525328 -0.00129627 -1.5941e-22
0.000525328 -0.00129627 -1.5941e-22
0.000721477 -0.00433239 -1.07217e-25
0.000721477 -0.00433239 -1.07217e-25
0.000440658 -0.00610113 1.59303e-22
0.000440658 -0.00610113 1.59303e-22
0.000264311 -0.00710571 -1.58239e-22
0.000264311 -0.00710571 -1.58239e-22
0.000135771 -0.00766514 -2.82512e-27
0.000135771 -0.00766514 -2.82512e-27
1.3559e-05 -0.00769564 1.58236e-22
1.3559e-05 -0.00769564 1.58236e-22
-6.79324e-05 -0.00739181 1.61071e-22
-6.79324e-05 -0.00739181 1.61071e-22
-0.000143435 -0.0067579 -5.66989e-26
-0.000143435 -0.0067579 -5.66989e-26
-0.000206014 -0.00582952 -1.63983e-22
-0.000206014 -0.00582952 -1.63983e-22
-0.000250346 -0.00463619 0
-0.000250346 -0.00463619 0
-0.000264239 -0.00343272 0
-0.000264239 -0.00343272 0
-0.000247992 -0.00235799 0
-0.000247992 -0.00235799 0
-0.000212876 -0.00147254 0
-0.000212876 -0.00147254 0
-0.000170818 -0.000792396 0
-0.000170818 -0.000792396 0
-0.000129749 -0.000303454 0
-0.000129749 -0.000303454 0
-9.93414e-05 3.06791e-05 0
-9.93414e-05 3.06791e-05 0
-7.6022e-05 0.000263781 0
-7.6022e-05 0.000263781 0
-7.4659e-05 0.00041788 0
-7.4659e-05 0.00041788 0
-3.81183e-05 0.000559299 0
-3.81183e-05 0.000559299 0
0.000132062 0.000560033 0
0.000132062 0.000560033 0
-0.000424985 0.000469464 9.13547e-26
-0.000424985 0.000469464 9.13547e-26
-0.000822596 0.00039302 -9.24807e-24
-0.000822596 0.00039302 -9.24807e-24
-0.00107997 0.000226567 0
-0.00107997 0.000226567 0
-0.00113113 9.08342e-06 0
-0.00113113 9.08342e-06 0
-0.000977828 -0.000204346 8.99818e-24
-0.000977828 -0.000204346 8.99818e-24
-0.000654271 -0.000372106 9.01434e-24
-0.000654271 -0.000372106 9.01434e-24
-0.00020711 -0.000474522 0
-0.00020711 -0.000474522 0
0.000306809 -0.000521215 0
0.000306809 -0.000521215 0
0.000841696 -0.0005288 0
0.000841696 -0.0005288 0
0.00136677 -0.000506854 -8.72075e-24
0.00136677 -0.000506854 -8.72075e-24
0.00186468 -0.000466569 -8.73737e-24
0.00186468 -0.000466569 -8.73737e-24
0.00232199 -0.000416681 0
0.00232199 -0.000416681 0
0.00273239 -0.000362997 0
0.00273239 -0.000362997 0
0.00309345 -0.000308558 0
0.00309345 -0.000308558 0
0.00340417 -0.000254747 -8.22215e-24
0.00340417 -0.000254747 -8.22215e-24
0.00366468 -0.000202168 -8.23876e-24
0.00366468 -0.000202168 -8.23876e-24
0.00387509 -0.000151046 0
0.00387509 -0.000151046 0
0.00403591 -0.000101319 0
0.00403591 -0.000101319 0
0.00414683 -5.26991e-05 0
0.00414683 -5.26991e-05 0
0.00420868 -4.58624e-06 0
0.00420868 -4.58624e-06 0
0.00422102 4.36916e-05 0
0.00422102 4.36916e-05 0
0.00418116 9.29231e-05 0
0.00418116 9.29231e-05 0
0.00409007 0.00014283 -7.59853e-24
0.00409007 0.00014283 -7.59853e-24
0.00394903 0.000193342 -6.69554e-26
0.00394903 0.000193342 -6.69554e-26
0.00375777 0.000243757 6.26648e-26
0.00375777 0.000243757 6.26648e-26
0.00351756 0.000294349 -1.49794e-23
0.00351756 0.000294349 -1.49794e-23
0.00322678 0.000344869 -7.47695e-24
0.00322678 0.000344869 -7.47695e-24
0.00288889 0.000393149 0
0.00288889 0.000393149 0
0.00250204 0.000440945 7.33468e-24
0.00250204 0.000440945 7.33468e-24
0.00207081 0.000474494 1.46397e-23
0.00207081 0.000474494 1.46397e-23
0.00160309 0.00050171 7.30514e-24
0.00160309 0.00050171 7.30514e-24
0.00109561 0.000465213 0
0.00109561 0.000465213 0
0.000632755 0.0002541 7.11322e-24
0.000632755 0.0002541 7.11322e-24
0.000307925 -1.23756e-05 7.13074e-24
0.000307925 -1.23756e-05 7.13074e-24
0.000103582 -0.000150982 0
0.000103582 -0.000150982 0
-9.38926e-06 -0.000176919 -6.93895e-24
-9.38926e-06 -0.000176919 -6.93895e-24
-3.62777e-05 -0.000169351 -6.95659e-24
-3.62777e-05 -0.000169351 -6.95659e-24
1.06648e-06 -0.000165853 -6.83089e-24
1.06648e-06 -0.000165853 -6.83089e-24
8.58348e-05 -0.00018313 -2.04052e-23
8.58348e-05 -0.00018313 -2.04052e-23
0.000232153 -0.000214414 -1.35921e-23
0.000232153 -0.000214414 -1.35921e-23
0.000451341 -0.000204027 0
0.000451341 -0.000204027 0
0.000658231 -9.83764e-05 0
0.000658231 -9.83764e-05 0
0.00074583 8.96278e-05 0
0.00074583 8.96278e-05 0
0.000833125 0.000223503 0
0.000833125 0.000223503 0
0.00107211 0.000108943 -1.29108e-23
0.00107211 0.000108943 -1.29108e-23
0.00137618 -0.000336984 -2.57614e-23
0.00137618 -0.000336984 -2.57614e-23
0.00159093 -0.000837745 -2.55407e-23
0.00159093 -0.000837745 -2.55407e-23
0.00164895 -0.000875713 -1.27261e-23
0.00164895 -0.000875713 -1.27261e-23
0.00144855 -0.00033045 1.24214e-23
0.00144855 -0.00033045 1.24214e-23
0.000834689 0.000332472 1.24574e-23
0.000834689 0.000332472 1.24574e-23
-7.68256e-05 0.000672618 -1.2212e-23
-7.68256e-05 0.000672618 -1.2212e-23
-0.00104477 0.000747984 -2.42839e-23
-0.00104477 0.000747984 -2.42839e-23
-0.00199309 0.000748004 -1.20716e-23
-0.00199309 0.000748004 -1.20716e-23
-0.00289507 0.000713452 0
-0.00289507 0.000713452 0
-0.0037291 0.000657225 0
-0.0037291 0.000657225 0
-0.00448544 0.00059117 -1.10682e-23
-0.00448544 0.00059117 -1.10682e-23
-0.00516281 0.000523806 -1.11025e-23
-0.00516281 0.000523806 -1.11025e-23
-0.00576513 0.000460153 0
-0.00576513 0.000460153 0
-0.00629879 0.000402534 0
-0.00629879 0.000402534 0
-0.00677089 0.000351529 0
-0.00677089 0.000351529 0
-0.00718824 0.0003068 0
-0.00718824 0.0003068 0
-0.00755673 0.000267539 0
-0.00755673 0.000267539 0
-0.00788109 0.000232702 0
-0.00788109 0.000232702 0
-0.00816486 0.000201223 0
-0.00816486 0.000201223 0
-0.00841046 0.000172185 9.0345e-24
-0.00841046 0.000172185 9.0345e-24
-0.00861949 0.000144924 9.06486e-24
-0.00861949 0.000144924 9.06486e-24
-0.00879303 0.000119097 0
-0.00879303 0.000119097 0
-0.0089321 9.47003e-05 -8.60211e-24
-0.0089321 9.47003e-05 -8.60211e-24
-0.00903785 7.1978e-05 -1.71212e-23
-0.00903785 7.1978e-05 -1.71212e-23
-0.00911165 5.11497e-05 -8.51898e-24
-0.00911165 5.11497e-05 -8.51898e-24
-0.00915517 3.22323e-05 8.30981e-24
-0.00915517 3.22323e-05 8.30981e-24
-0.00917047 1.53165e-05 9.80329e-26
-0.00917047 1.53165e-05 9.80329e-26
-0.00916114 7.5074e-07 -8.27059e-24
-0.00916114 7.5074e-07 -8.27059e-24
-0.00913029 -1.16729e-05 8.1414e-24
-0.00913029 -1.16729e-05 8.1414e-24
-0.00907969 -2.23218e-05 8.17094e-24
-0.00907969 -2.23218e-05 8.17094e-24
-0.00901185 -3.1301e-05 0
-0.00901185 -3.1301e-05 0
-0.00892897 -3.88947e-05 -8.06639e-24
-0.00892897 -3.88947e-05 -8.06639e-24
-0.00883288 -4.53275e-05 -8.09638e-24
-0.00883288 -4.53275e-05 -8.09638e-24
-0.00872514 -5.08852e-05 8.05158e-24
-0.00872514 -5.08852e-05 8.05158e-24
-0.00860673 -5.59048e-05 8.08201e-24
-0.00860673 -5.59048e-05 8.08201e-24
-0.00847812 -6.07264e-05 -8.05614e-24
-0.00847812 -6.07264e-05 -8.05614e-24
-0.00833914 -6.57128e-05 -1.61514e-23
-0.00833914 -6.57128e-05 -1.61514e-23
-0.00818895 -7.12029e-05 -1.61718e-23
-0.00818895 -7.12029e-05 -1.61718e-23
-0.0080261 -7.74999e-05 -2.42915e-23
-0.0080261 -7.74999e-05 -2.42915e-23
-0.00784858 -8.48449e-05 -2.473e-26
-0.00784858 -8.48449e-05 -2.473e-26
-0.00765394 -9.33888e-05 1.62868e-23
-0.00765394 -9.33888e-05 1.62868e-23
-0.00743951 -0.000103172 0
-0.00743951 -0.000103172 0
-0.00720261 -0.000114106 0
-0.00720261 -0.000114106 0
-0.00694084 -0.00012596 1.64561e-23
-0.00694084 -0.00012596 1.64561e-23
-0.00665238 -0.000138369 3.30541e-23
-0.00665238 -0.000138369 3.30541e-23
-0.00633623 -0.000150847 -9.97485e-27
-0.00633623 -0.000150847 -9.97485e-27
-0.00599247 -0.000162823 -1.66776e-23
-0.00599247 -0.000162823 -1.66776e-23
-0.00562238 -0.000173698 1.67612e-23
-0.00562238 -0.000173698 1.67612e-23
-0.00522844 -0.000182915 3.36599e-23
-0.00522844 -0.000182915 3.36599e-23
-0.00481422 -0.000190025 3.37837e-23
-0.00481422 -0.000190025 3.37837e-23
-0.00438417 -0.000194712 1.69561e-23
-0.00438417 -0.000194712 1.69561e-23
-0.0039434 -0.000196785 0
-0.0039434 -0.000196785 0
-0.00349737 -0.000196176 0
-0.00349737 -0.000196176 0
-0.0030513 -0.000192974 1.69374e-23
-0.0030513 -0.000192974 1.69374e-23
-0.00261003 -0.000187407 1.70116e-23
-0.00261003 -0.000187407 1.70116e-23
-0.00217812 -0.000179805 0
-0.00217812 -0.000179805 0
-0.0017597 -0.000170562 -1.67661e-23
-0.0017597 -0.000170562 -1.67661e-23
-0.00135821 -0.000160133 -1.6841e-23
-0.00135821 -0.000160133 -1.6841e-23
-0.000976239 -0.00014893 0
-0.000976239 -0.00014893 0
-0.000615174 -0.000137378 -1.6437e-23
-0.000615174 -0.000137378 -1.6437e-23
-0.000275855 -0.000125883 -1.65119e-23
-0.000275855 -0.000125883 -1.65119e-23
4.09982e-05 -0.000115168 0
4.09982e-05 -0.000115168 0
0.000336645 -0.000105204 1.59929e-23
0.000336645 -0.000105204 1.59929e-23
0.000613562 -9.56781e-05 3.18963e-23
0.000613562 -9.56781e-05 3.18963e-23
0.000873158 -8.67744e-05 1.5903e-23
0.000873158 -8.67744e-05 1.5903e-23
0.00111612 -7.82492e-05 -1.54917e-23
0.00111612 -7.82492e-05 -1.54917e-23
0.00134274 -6.98088e-05 -1.55649e-23
0.00134274 -6.98088e-05 -1.55649e-23
0.00155261 -6.11982e-05 1.51469e-23
0.00155261 -6.11982e-05 1.51469e-23
0.00174478 -5.2288e-05 1.52193e-23
0.00174478 -5.2288e-05 1.52193e-23
0.00191806 -4.31123e-05 1.47991e-23
0.00191806 -4.31123e-05 1.47991e-23
0.00207136 -3.38419e-05 2.9496e-23
0.00207136 -3.38419e-05 2.9496e-23
0.00220404 -2.47529e-05 1.46964e-23
0.00220404 -2.47529e-05 1.46964e-23
0.00231609 -1.61439e-05 0
0.00231609 -1.61439e-05 0
0.00240818 -8.244e-06 0
0.00240818 -8.244e-06 0
0.00248153 -1.25278e-06 0
0.00248153 -1.25278e-06 0
0.00253788 4.76361e-06 0
0.00253788 4.76361e-06 0
0.00257901 9.87464e-06 0
0.00257901 9.87464e-06 0
0.00260691 1.40783e-05 0
0.00260691 1.40783e-05 0
0.00262341 1.75971e-05 1.32708e-23
0.00262341 1.75971e-05 1.32708e-23
0.00262951 2.08016e-05 2.30224e-25
0.00262951 2.08016e-05 2.30224e-25
0.00262643 2.36287e-05 -1.31753e-23
0.00262643 2.36287e-05 -1.31753e-23
0.00261563 2.5834e-05 0
0.00261563 2.5834e-05 0
0.00259823 2.73772e-05 0
0.00259823 2.73772e-05 0
0.00257538 2.82823e-05 0
0.00257538 2.82823e-05 0
0.00254824 2.85422e-05 -2.46351e-23
0.00254824 2.85422e-05 -2.46351e-23
0.00251794 2.81825e-05 -2.47645e-23
0.00251794 2.81825e-05 -2.47645e-23
0.00248552 2.73011e-05 2.4022e-23
0.00248552 2.73011e-05 2.4022e-23
0.00245192 2.60361e-05 4.30184e-25
0.00245192 2.60361e-05 4.30184e-25
0.00241792 2.45313e-05 -2.38457e-23
0.00241792 2.45313e-05 -2.38457e-23
0.00238417 2.29157e-05 0
0.00238417 2.29157e-05 0
0.00235113 2.12876e-05 0
0.00235113 2.12876e-05 0
0.00231917 1.97061e-05 2.25318e-23
0.00231917 1.97061e-05 2.25318e-23
0.00228856 1.81948e-05 4.48947e-23
0.00228856 1.81948e-05 4.48947e-23
0.00225954 1.67565e-05 2.23618e-23
0.00225954 1.67565e-05 2.23618e-23
0.00223231 1.53882e-05 2.16638e-23
0.00223231 1.53882e-05 2.16638e-23
0.00220704 1.4089e-05 4.31615e-23
0.00220704 1.4089e-05 4.31615e-23
0.00218389 1.28624e-05 4.01768e-25
0.00218389 1.28624e-05 4.01768e-25
0.00216294 1.17132e-05 -2.12122e-23
0.00216294 1.17132e-05 -2.12122e-23
0.00214423 1.06439e-05 0
0.00214423 1.06439e-05 0
0.00212773 9.65445e-06 -2.02558e-23
0.00212773 9.65445e-06 -2.02558e-23
0.00211339 8.74237e-06 -2.03698e-23
0.00211339 8.74237e-06 -2.03698e-23
0.00210106 7.90066e-06 0
0.00210106 7.90066e-06 0
0.0020906 7.1253e-06 0
0.0020906 7.1253e-06 0
0.00208181 6.416e-06 0
0.00208181 6.416e-06 0
0.00207453 5.77075e-06 1.8892e-23
0.00207453 5.77075e-06 1.8892e-23
0.00206856 5.18836e-06 3.76247e-23
0.00206856 5.18836e-06 3.76247e-23
0.00206373 4.66778e-06 1.87316e-23
0.00206373 4.66778e-06 1.87316e-23
0.00205988 4.20948e-06 1.80925e-23
0.00205988 4.20948e-06 1.80925e-23
0.00205684 3.81367e-06 1.81978e-23
0.00205684 3.81367e-06 1.81978e-23
0.00205449 3.47493e-06 0
0.00205449 3.47493e-06 0
0.0020527 3.18319e-06 1.73052e-23
0.0020527 3.18319e-06 1.73052e-23
0.00205137 2.92936e-06 1.74071e-23
0.00205137 2.92936e-06 1.74071e-23
0.00205041 2.70305e-06 1.67867e-23
0.00205041 2.70305e-06 1.67867e-23
0.00204973 2.48883e-06 1.68863e-23
0.00204973 2.48883e-06 1.68863e-23
0.00204922 2.28418e-06 0
0.00204922 2.28418e-06 0
0.00204879 2.11231e-06 1.60178e-23
0.00204879 2.11231e-06 1.60178e-23
0.00204829 2.00541e-06 1.61138e-23
0.00204829 2.00541e-06 1.61138e-23