# vtk DataFile Version 2.0
sampleSurface
ASCII
DATASET POLYDATA
POINTS 502 double
-0.0206 0 -0.0005
-0.0190172 0 -0.0005
-0.0190172 0 0.0005
-0.0206 0 0.0005
-0.0174976 0 -0.0005
-0.0174976 0 0.0005
-0.0160387 0 -0.0005
-0.0160387 0 0.0005
-0.0146381 0 -0.0005
-0.0146381 0 0.0005
-0.0132934 0 -0.0005
-0.0132934 0 0.0005
-0.0120025 0 -0.0005
-0.0120025 0 0.0005
-0.0107632 0 -0.0005
-0.0107632 0 0.0005
-0.00957337 0 -0.0005
-0.00957337 0 0.0005
-0.00843108 0 -0.0005
-0.00843108 0 0.0005
-0.00733443 0 -0.0005
-0.00733443 0 0.0005
-0.0062816 0 -0.0005
-0.0062816 0 0.0005
-0.00527083 0 -0.0005
-0.00527083 0 0.0005
-0.00430044 0 -0.0005
-0.00430044 0 0.0005
-0.00336883 0 -0.0005
-0.00336883 0 0.0005
-0.00247443 0 -0.0005
-0.00247443 0 0.0005
-0.00161577 0 -0.0005
-0.00161577 0 0.0005
-0.000791418 0 -0.0005
-0.000791418 0 0.0005
0 0 -0.0005
0 0 0.0005
0 -0.0254 -0.0005
0 -0.0254 0.0005
0 -0.0242711 0.0005
0 -0.0242711 -0.0005
0 -0.0231422 0.0005
0 -0.0231422 -0.0005
0 -0.0220133 0.0005
0 -0.0220133 -0.0005
0 -0.0208844 0.0005
0 -0.0208844 -0.0005
0 -0.0197556 0.0005
0 -0.0197556 -0.0005
0 -0.0186267 0.0005
0 -0.0186267 -0.0005
0 -0.0174978 0.0005
0 -0.0174978 -0.0005
0 -0.0163689 0.0005
0 -0.0163689 -0.0005
0 -0.01524 0.0005
0 -0.01524 -0.0005
0 -0.0141111 0.0005
0 -0.0141111 -0.0005
0 -0.0129822 0.0005
0 -0.0129822 -0.0005
0 -0.0118533 0.0005
0 -0.0118533 -0.0005
0 -0.0107244 0.0005
0 -0.0107244 -0.0005
0 -0.00959556 0.0005
0 -0.00959556 -0.0005
0 -0.00846667 0.0005
0 -0.00846667 -0.0005
0 -0.00726604 0.0005
0 -0.00726604 -0.0005
0 -0.00618989 0.0005
0 -0.00618989 -0.0005
0 -0.00522531 0.0005
0 -0.00522531 -0.0005
0 -0.00436073 0.0005
0 -0.00436073 -0.0005
0 -0.00358579 0.0005
0 -0.00358579 -0.0005
0 -0.00289118 0.0005
0 -0.00289118 -0.0005
0 -0.0022686 0.0005
0 -0.0022686 -0.0005
0 -0.00171055 0.0005
0 -0.00171055 -0.0005
0 -0.00121037 0.0005
0 -0.00121037 -0.0005
0 -0.000762037 0.0005
0 -0.000762037 -0.0005
0 -0.000360188 0.0005
0 -0.000360188 -0.0005
0.000528387 -0.0254 -0.0005
0.000528387 -0.0254 0.0005
0.00106088 -0.0254 -0.0005
0.00106088 -0.0254 0.0005
0.00159752 -0.0254 -0.0005
0.00159752 -0.0254 0.0005
0.00213833 -0.0254 -0.0005
0.00213833 -0.0254 0.0005
0.00268334 -0.0254 -0.0005
0.00268334 -0.0254 0.0005
0.00323259 -0.0254 -0.0005
0.00323259 -0.0254 0.0005
0.00378611 -0.0254 -0.0005
0.00378611 -0.0254 0.0005
0.00434393 -0.0254 -0.0005
0.00434393 -0.0254 0.0005
0.00490609 -0.0254 -0.0005
0.00490609 -0.0254 0.0005
0.00547262 -0.0254 -0.0005
0.00547262 -0.0254 0.0005
0.00604356 -0.0254 -0.0005
0.00604356 -0.0254 0.0005
0.00661893 -0.0254 -0.0005
0.00661893 -0.0254 0.0005
0.00719878 -0.0254 -0.0005
0.00719878 -0.0254 0.0005
0.00778313 -0.0254 -0.0005
0.00778313 -0.0254 0.0005
0.00837203 -0.0254 -0.0005
0.00837203 -0.0254 0.0005
0.00896551 -0.0254 -0.0005
0.00896551 -0.0254 0.0005
0.0095636 -0.0254 -0.0005
0.0095636 -0.0254 0.0005
0.0101663 -0.0254 -0.0005
0.0101663 -0.0254 0.0005
0.0107738 -0.0254 -0.0005
0.0107738 -0.0254 0.0005
0.0113859 -0.0254 -0.0005
0.0113859 -0.0254 0.0005
0.0120028 -0.0254 -0.0005
0.0120028 -0.0254 0.0005
0.0126245 -0.0254 -0.0005
0.0126245 -0.0254 0.0005
0.0132511 -0.0254 -0.0005
0.0132511 -0.0254 0.0005
0.0138825 -0.0254 -0.0005
0.0138825 -0.0254 0.0005
0.0145188 -0.0254 -0.0005
0.0145188 -0.0254 0.0005
0.0151601 -0.0254 -0.0005
0.0151601 -0.0254 0.0005
0.0158063 -0.0254 -0.0005
0.0158063 -0.0254 0.0005
0.0164576 -0.0254 -0.0005
0.0164576 -0.0254 0.0005
0.0171139 -0.0254 -0.0005
0.0171139 -0.0254 0.0005
0.0177754 -0.0254 -0.0005
0.0177754 -0.0254 0.0005
0.018442 -0.0254 -0.0005
0.018442 -0.0254 0.0005
0.0191137 -0.0254 -0.0005
0.0191137 -0.0254 0.0005
0.0197907 -0.0254 -0.0005
0.0197907 -0.0254 0.0005
0.020473 -0.0254 -0.0005
0.020473 -0.0254 0.0005
0.0211606 -0.0254 -0.0005
0.0211606 -0.0254 0.0005
0.0218535 -0.0254 -0.0005
0.0218535 -0.0254 0.0005
0.0225517 -0.0254 -0.0005
0.0225517 -0.0254 0.0005
0.0232555 -0.0254 -0.0005
0.0232555 -0.0254 0.0005
0.0239647 -0.0254 -0.0005
0.0239647 -0.0254 0.0005
0.0246794 -0.0254 -0.0005
0.0246794 -0.0254 0.0005
0.0253996 -0.0254 -0.0005
0.0253996 -0.0254 0.0005
0.0261255 -0.0254 -0.0005
0.0261255 -0.0254 0.0005
0.026857 -0.0254 -0.0005
0.026857 -0.0254 0.0005
0.0275942 -0.0254 -0.0005
0.0275942 -0.0254 0.0005
0.0283371 -0.0254 -0.0005
0.0283371 -0.0254 0.0005
0.0290858 -0.0254 -0.0005
0.0290858 -0.0254 0.0005
0.0298403 -0.0254 -0.0005
0.0298403 -0.0254 0.0005
0.0306007 -0.0254 -0.0005
0.0306007 -0.0254 0.0005
0.031367 -0.0254 -0.0005
0.031367 -0.0254 0.0005
0.0321393 -0.0254 -0.0005
0.0321393 -0.0254 0.0005
0.0329175 -0.0254 -0.0005
0.0329175 -0.0254 0.0005
0.0337019 -0.0254 -0.0005
0.0337019 -0.0254 0.0005
0.0344923 -0.0254 -0.0005
0.0344923 -0.0254 0.0005
0.0352888 -0.0254 -0.0005
0.0352888 -0.0254 0.0005
0.0360916 -0.0254 -0.0005
0.0360916 -0.0254 0.0005
0.0369006 -0.0254 -0.0005
0.0369006 -0.0254 0.0005
0.0377158 -0.0254 -0.0005
0.0377158 -0.0254 0.0005
0.0385375 -0.0254 -0.0005
0.0385375 -0.0254 0.0005
0.0393655 -0.0254 -0.0005
0.0393655 -0.0254 0.0005
0.0401999 -0.0254 -0.0005
0.0401999 -0.0254 0.0005
0.0410408 -0.0254 -0.0005
0.0410408 -0.0254 0.0005
0.0418883 -0.0254 -0.0005
0.0418883 -0.0254 0.0005
0.0427424 -0.0254 -0.0005
0.0427424 -0.0254 0.0005
0.0436031 -0.0254 -0.0005
0.0436031 -0.0254 0.0005
0.0444704 -0.0254 -0.0005
0.0444704 -0.0254 0.0005
0.0453446 -0.0254 -0.0005
0.0453446 -0.0254 0.0005
0.0462255 -0.0254 -0.0005
0.0462255 -0.0254 0.0005
0.0471133 -0.0254 -0.0005
0.0471133 -0.0254 0.0005
0.048008 -0.0254 -0.0005
0.048008 -0.0254 0.0005
0.0489096 -0.0254 -0.0005
0.0489096 -0.0254 0.0005
0.0498183 -0.0254 -0.0005
0.0498183 -0.0254 0.0005
0.050734 -0.0254 -0.0005
0.050734 -0.0254 0.0005
0.0516568 -0.0254 -0.0005
0.0516568 -0.0254 0.0005
0.0525868 -0.0254 -0.0005
0.0525868 -0.0254 0.0005
0.053524 -0.0254 -0.0005
0.053524 -0.0254 0.0005
0.0544686 -0.0254 -0.0005
0.0544686 -0.0254 0.0005
0.0554204 -0.0254 -0.0005
0.0554204 -0.0254 0.0005
0.0563797 -0.0254 -0.0005
0.0563797 -0.0254 0.0005
0.0573464 -0.0254 -0.0005
0.0573464 -0.0254 0.0005
0.0583206 -0.0254 -0.0005
0.0583206 -0.0254 0.0005
0.0593025 -0.0254 -0.0005
0.0593025 -0.0254 0.0005
0.0602919 -0.0254 -0.0005
0.0602919 -0.0254 0.0005
0.0612891 -0.0254 -0.0005
0.0612891 -0.0254 0.0005
0.0622939 -0.0254 -0.0005
0.0622939 -0.0254 0.0005
0.0633067 -0.0254 -0.0005
0.0633067 -0.0254 0.0005
0.0643272 -0.0254 -0.0005
0.0643272 -0.0254 0.0005
0.0653557 -0.0254 -0.0005
0.0653557 -0.0254 0.0005
0.0663923 -0.0254 -0.0005
0.0663923 -0.0254 0.0005
0.0674368 -0.0254 -0.0005
0.0674368 -0.0254 0.0005
0.0684895 -0.0254 -0.0005
0.0684895 -0.0254 0.0005
0.0695504 -0.0254 -0.0005
0.0695504 -0.0254 0.0005
0.0706195 -0.0254 -0.0005
0.0706195 -0.0254 0.0005
0.0716969 -0.0254 -0.0005
0.0716969 -0.0254 0.0005
0.0727828 -0.0254 -0.0005
0.0727828 -0.0254 0.0005
0.073877 -0.0254 -0.0005
0.073877 -0.0254 0.0005
0.0749798 -0.0254 -0.0005
0.0749798 -0.0254 0.0005
0.0760911 -0.0254 -0.0005
0.0760911 -0.0254 0.0005
0.0772111 -0.0254 -0.0005
0.0772111 -0.0254 0.0005
0.0783398 -0.0254 -0.0005
0.0783398 -0.0254 0.0005
0.0794772 -0.0254 -0.0005
0.0794772 -0.0254 0.0005
0.0806235 -0.0254 -0.0005
0.0806235 -0.0254 0.0005
0.0817787 -0.0254 -0.0005
0.0817787 -0.0254 0.0005
0.0829429 -0.0254 -0.0005
0.0829429 -0.0254 0.0005
0.0841162 -0.0254 -0.0005
0.0841162 -0.0254 0.0005
0.0852985 -0.0254 -0.0005
0.0852985 -0.0254 0.0005
0.0864901 -0.0254 -0.0005
0.0864901 -0.0254 0.0005
0.0876909 -0.0254 -0.0005
0.0876909 -0.0254 0.0005
0.0889011 -0.0254 -0.0005
0.0889011 -0.0254 0.0005
0.0901207 -0.0254 -0.0005
0.0901207 -0.0254 0.0005
0.0913497 -0.0254 -0.0005
0.0913497 -0.0254 0.0005
0.0925883 -0.0254 -0.0005
0.0925883 -0.0254 0.0005
0.0938366 -0.0254 -0.0005
0.0938366 -0.0254 0.0005
0.0950945 -0.0254 -0.0005
0.0950945 -0.0254 0.0005
0.0963622 -0.0254 -0.0005
0.0963622 -0.0254 0.0005
0.0976398 -0.0254 -0.0005
0.0976398 -0.0254 0.0005
0.0989273 -0.0254 -0.0005
0.0989273 -0.0254 0.0005
0.100225 -0.0254 -0.0005
0.100225 -0.0254 0.0005
0.101532 -0.0254 -0.0005
0.101532 -0.0254 0.0005
0.10285 -0.0254 -0.0005
0.10285 -0.0254 0.0005
0.104178 -0.0254 -0.0005
0.104178 -0.0254 0.0005
0.105517 -0.0254 -0.0005
0.105517 -0.0254 0.0005
0.106865 -0.0254 -0.0005
0.106865 -0.0254 0.0005
0.108225 -0.0254 -0.0005
0.108225 -0.0254 0.0005
0.109594 -0.0254 -0.0005
0.109594 -0.0254 0.0005
0.110975 -0.0254 -0.0005
0.110975 -0.0254 0.0005
0.112366 -0.0254 -0.0005
0.112366 -0.0254 0.0005
0.113768 -0.0254 -0.0005
0.113768 -0.0254 0.0005
0.115181 -0.0254 -0.0005
0.115181 -0.0254 0.0005
0.116605 -0.0254 -0.0005
0.116605 -0.0254 0.0005
0.11804 -0.0254 -0.0005
0.11804 -0.0254 0.0005
0.119486 -0.0254 -0.0005
0.119486 -0.0254 0.0005
0.120943 -0.0254 -0.0005
0.120943 -0.0254 0.0005
0.122412 -0.0254 -0.0005
0.122412 -0.0254 0.0005
0.123892 -0.0254 -0.0005
0.123892 -0.0254 0.0005
0.125384 -0.0254 -0.0005
0.125384 -0.0254 0.0005
0.126887 -0.0254 -0.0005
0.126887 -0.0254 0.0005
0.128402 -0.0254 -0.0005
0.128402 -0.0254 0.0005
0.129928 -0.0254 -0.0005
0.129928 -0.0254 0.0005
0.131467 -0.0254 -0.0005
0.131467 -0.0254 0.0005
0.133017 -0.0254 -0.0005
0.133017 -0.0254 0.0005
0.13458 -0.0254 -0.0005
0.13458 -0.0254 0.0005
0.136155 -0.0254 -0.0005
0.136155 -0.0254 0.0005
0.137742 -0.0254 -0.0005
0.137742 -0.0254 0.0005
0.139341 -0.0254 -0.0005
0.139341 -0.0254 0.0005
0.140953 -0.0254 -0.0005
0.140953 -0.0254 0.0005
0.142577 -0.0254 -0.0005
0.142577 -0.0254 0.0005
0.144214 -0.0254 -0.0005
0.144214 -0.0254 0.0005
0.145863 -0.0254 -0.0005
0.145863 -0.0254 0.0005
0.147526 -0.0254 -0.0005
0.147526 -0.0254 0.0005
0.149201 -0.0254 -0.0005
0.149201 -0.0254 0.0005
0.15089 -0.0254 -0.0005
0.15089 -0.0254 0.0005
0.152591 -0.0254 -0.0005
0.152591 -0.0254 0.0005
0.154306 -0.0254 -0.0005
0.154306 -0.0254 0.0005
0.156034 -0.0254 -0.0005
0.156034 -0.0254 0.0005
0.157775 -0.0254 -0.0005
0.157775 -0.0254 0.0005
0.159531 -0.0254 -0.0005
0.159531 -0.0254 0.0005
0.161299 -0.0254 -0.0005
0.161299 -0.0254 0.0005
0.163082 -0.0254 -0.0005
0.163082 -0.0254 0.0005
0.164878 -0.0254 -0.0005
0.164878 -0.0254 0.0005
0.166688 -0.0254 -0.0005
0.166688 -0.0254 0.0005
0.168513 -0.0254 -0.0005
0.168513 -0.0254 0.0005
0.170351 -0.0254 -0.0005
0.170351 -0.0254 0.0005
0.172204 -0.0254 -0.0005
0.172204 -0.0254 0.0005
0.174071 -0.0254 -0.0005
0.174071 -0.0254 0.0005
0.175953 -0.0254 -0.0005
0.175953 -0.0254 0.0005
0.177849 -0.0254 -0.0005
0.177849 -0.0254 0.0005
0.17976 -0.0254 -0.0005
0.17976 -0.0254 0.0005
0.181686 -0.0254 -0.0005
0.181686 -0.0254 0.0005
0.183627 -0.0254 -0.0005
0.183627 -0.0254 0.0005
0.185583 -0.0254 -0.0005
0.185583 -0.0254 0.0005
0.187555 -0.0254 -0.0005
0.187555 -0.0254 0.0005
0.189541 -0.0254 -0.0005
0.189541 -0.0254 0.0005
0.191543 -0.0254 -0.0005
0.191543 -0.0254 0.0005
0.193561 -0.0254 -0.0005
0.193561 -0.0254 0.0005
0.195594 -0.0254 -0.0005
0.195594 -0.0254 0.0005
0.197643 -0.0254 -0.0005
0.197643 -0.0254 0.0005
0.199708 -0.0254 -0.0005
0.199708 -0.0254 0.0005
0.201789 -0.0254 -0.0005
0.201789 -0.0254 0.0005
0.203886 -0.0254 -0.0005
0.203886 -0.0254 0.0005
0.206 -0.0254 -0.0005
0.206 -0.0254 0.0005
0.208047 -0.0251856 -0.0005
0.208047 -0.0251856 0.0005
0.210173 -0.0249628 -0.0005
0.210173 -0.0249628 0.0005
0.212382 -0.0247314 -0.0005
0.212382 -0.0247314 0.0005
0.214677 -0.024491 -0.0005
0.214677 -0.024491 0.0005
0.217061 -0.0242412 -0.0005
0.217061 -0.0242412 0.0005
0.219538 -0.0239817 -0.0005
0.219538 -0.0239817 0.0005
0.222112 -0.0237121 -0.0005
0.222112 -0.0237121 0.0005
0.224785 -0.023432 -0.0005
0.224785 -0.023432 0.0005
0.227563 -0.023141 -0.0005
0.227563 -0.023141 0.0005
0.230449 -0.0228387 -0.0005
0.230449 -0.0228387 0.0005
0.233447 -0.0225246 -0.0005
0.233447 -0.0225246 0.0005
0.236562 -0.0221983 -0.0005
0.236562 -0.0221983 0.0005
0.239797 -0.0218593 -0.0005
0.239797 -0.0218593 0.0005
0.243159 -0.0215071 -0.0005
0.243159 -0.0215071 0.0005
0.246652 -0.0211412 -0.0005
0.246652 -0.0211412 0.0005
0.250281 -0.0207611 -0.0005
0.250281 -0.0207611 0.0005
0.254051 -0.0203661 -0.0005
0.254051 -0.0203661 0.0005
0.257967 -0.0199558 -0.0005
0.257967 -0.0199558 0.0005
0.262036 -0.0195295 -0.0005
0.262036 -0.0195295 0.0005
0.266264 -0.0190867 -0.0005
0.266264 -0.0190867 0.0005
0.270655 -0.0186266 -0.0005
0.270655 -0.0186266 0.0005
0.275218 -0.0181486 -0.0005
0.275218 -0.0181486 0.0005
0.279959 -0.017652 -0.0005
0.279959 -0.017652 0.0005
0.284883 -0.017136 -0.0005
0.284883 -0.017136 0.0005
0.29 -0.0166 -0.0005
0.29 -0.0166 0.0005

POLYGONS 250 1250
4 0 1 2 3
4 1 4 5 2
4 4 6 7 5
4 6 8 9 7
4 8 10 11 9
4 10 12 13 11
4 12 14 15 13
4 14 16 17 15
4 16 18 19 17
4 18 20 21 19
4 20 22 23 21
4 22 24 25 23
4 24 26 27 25
4 26 28 29 27
4 28 30 31 29
4 30 32 33 31
4 32 34 35 33
4 34 36 37 35
4 38 39 40 41
4 41 40 42 43
4 43 42 44 45
4 45 44 46 47
4 47 46 48 49
4 49 48 50 51
4 51 50 52 53
4 53 52 54 55
4 55 54 56 57
4 57 56 58 59
4 59 58 60 61
4 61 60 62 63
4 63 62 64 65
4 65 64 66 67
4 67 66 68 69
4 69 68 70 71
4 71 70 72 73
4 73 72 74 75
4 75 74 76 77
4 77 76 78 79
4 79 78 80 81
4 81 80 82 83
4 83 82 84 85
4 85 84 86 87
4 87 86 88 89
4 89 88 90 91
4 91 90 37 36
4 38 92 93 39
4 92 94 95 93
4 94 96 97 95
4 96 98 99 97
4 98 100 101 99
4 100 102 103 101
4 102 104 105 103
4 104 106 107 105
4 106 108 109 107
4 108 110 111 109
4 110 112 113 111
4 112 114 115 113
4 114 116 117 115
4 116 118 119 117
4 118 120 121 119
4 120 122 123 121
4 122 124 125 123
4 124 126 127 125
4 126 128 129 127
4 128 130 131 129
4 130 132 133 131
4 132 134 135 133
4 134 136 137 135
4 136 138 139 137
4 138 140 141 139
4 140 142 143 141
4 142 144 145 143
4 144 146 147 145
4 146 148 149 147
4 148 150 151 149
4 150 152 153 151
4 152 154 155 153
4 154 156 157 155
4 156 158 159 157
4 158 160 161 159
4 160 162 163 161
4 162 164 165 163
4 164 166 167 165
4 166 168 169 167
4 168 170 171 169
4 170 172 173 171
4 172 174 175 173
4 174 176 177 175
4 176 178 179 177
4 178 180 181 179
4 180 182 183 181
4 182 184 185 183
4 184 186 187 185
4 186 188 189 187
4 188 190 191 189
4 190 192 193 191
4 192 194 195 193
4 194 196 197 195
4 196 198 199 197
4 198 200 201 199
4 200 202 203 201
4 202 204 205 203
4 204 206 207 205
4 206 208 209 207
4 208 210 211 209
4 210 212 213 211
4 212 214 215 213
4 214 216 217 215
4 216 218 219 217
4 218 220 221 219
4 220 222 223 221
4 222 224 225 223
4 224 226 227 225
4 226 228 229 227
4 228 230 231 229
4 230 232 233 231
4 232 234 235 233
4 234 236 237 235
4 236 238 239 237
4 238 240 241 239
4 240 242 243 241
4 242 244 245 243
4 244 246 247 245
4 246 248 249 247
4 248 250 251 249
4 250 252 253 251
4 252 254 255 253
4 254 256 257 255
4 256 258 259 257
4 258 260 261 259
4 260 262 263 261
4 262 264 265 263
4 264 266 267 265
4 266 268 269 267
4 268 270 271 269
4 270 272 273 271
4 272 274 275 273
4 274 276 277 275
4 276 278 279 277
4 278 280 281 279
4 280 282 283 281
4 282 284 285 283
4 284 286 287 285
4 286 288 289 287
4 288 290 291 289
4 290 292 293 291
4 292 294 295 293
4 294 296 297 295
4 296 298 299 297
4 298 300 301 299
4 300 302 303 301
4 302 304 305 303
4 304 306 307 305
4 306 308 309 307
4 308 310 311 309
4 310 312 313 311
4 312 314 315 313
4 314 316 317 315
4 316 318 319 317
4 318 320 321 319
4 320 322 323 321
4 322 324 325 323
4 324 326 327 325
4 326 328 329 327
4 328 330 331 329
4 330 332 333 331
4 332 334 335 333
4 334 336 337 335
4 336 338 339 337
4 338 340 341 339
4 340 342 343 341
4 342 344 345 343
4 344 346 347 345
4 346 348 349 347
4 348 350 351 349
4 350 352 353 351
4 352 354 355 353
4 354 356 357 355
4 356 358 359 357
4 358 360 361 359
4 360 362 363 361
4 362 364 365 363
4 364 366 367 365
4 366 368 369 367
4 368 370 371 369
4 370 372 373 371
4 372 374 375 373
4 374 376 377 375
4 376 378 379 377
4 378 380 381 379
4 380 382 383 381
4 382 384 385 383
4 384 386 387 385
4 386 388 389 387
4 388 390 391 389
4 390 392 393 391
4 392 394 395 393
4 394 396 397 395
4 396 398 399 397
4 398 400 401 399
4 400 402 403 401
4 402 404 405 403
4 404 406 407 405
4 406 408 409 407
4 408 410 411 409
4 410 412 413 411
4 412 414 415 413
4 414 416 417 415
4 416 418 419 417
4 418 420 421 419
4 420 422 423 421
4 422 424 425 423
4 424 426 427 425
4 426 428 429 427
4 428 430 431 429
4 430 432 433 431
4 432 434 435 433
4 434 436 437 435
4 436 438 439 437
4 438 440 441 439
4 440 442 443 441
4 442 444 445 443
4 444 446 447 445
4 446 448 449 447
4 448 450 451 449
4 450 452 453 451
4 452 454 455 453
4 454 456 457 455
4 456 458 459 457
4 458 460 461 459
4 460 462 463 461
4 462 464 465 463
4 464 466 467 465
4 466 468 469 467
4 468 470 471 469
4 470 472 473 471
4 472 474 475 473
4 474 476 477 475
4 476 478 479 477
4 478 480 481 479
4 480 482 483 481
4 482 484 485 483
4 484 486 487 485
4 486 488 489 487
4 488 490 491 489
4 490 492 493 491
4 492 494 495 493
4 494 496 497 495
4 496 498 499 497
4 498 500 501 499
POINT_DATA 502
FIELD attributes 1
U 3 502 float
1.63318 0.12074 -0.00060959
0.817957 0.0598619 -0.000300406
0.817957 0.0598619 -0.000300406
1.63318 0.12074 -0.00060959
0.0244737 0.000656076 0
0.0244737 0.000656076 0
0.0220499 0.000546902 0
0.0220499 0.000546902 0
0.0201006 0.000453006 0
0.0201006 0.000453006 0
0.0183457 0.000389747 0
0.0183457 0.000389747 0
0.0167481 0.000328945 0
0.0167481 0.000328945 0
0.0154239 0.000234227 0
0.0154239 0.000234227 0
0.0145448 0.000119413 0
0.0145448 0.000119413 0
0.0141049 2.40195e-05 0
0.0141049 2.40195e-05 0
0.0141205 -5.26752e-05 0
0.0141205 -5.26752e-05 0
0.0144209 -9.76627e-05 0
0.0144209 -9.76627e-05 0
0.0149841 -0.0001303 0
0.0149841 -0.0001303 0
0.0155847 -0.000124591 0
0.0155847 -0.000124591 0
0.0163679 -0.000154099 0
0.0163679 -0.000154099 0
0.0170889 -0.000125399 0
0.0170889 -0.000125399 0
0.0180377 -0.000246757 0
0.0180377 -0.000246757 0
0.0190258 -0.000271686 0
0.0190258 -0.000271686 0
0.00941979 5.475e-05 0
0.00941979 5.475e-05 0
-1.64497e-05 2.27931e-05 7.43997e-24
-1.64497e-05 2.27931e-05 7.43997e-24
-2.70375e-05 7.97774e-05 -2.00964e-23
-2.70375e-05 7.97774e-05 -2.00964e-23
-3.87024e-05 0.000185622 -2.37758e-23
-3.87024e-05 0.000185622 -2.37758e-23
-4.16696e-05 0.000291515 4.74048e-23
-4.16696e-05 0.000291515 4.74048e-23
-4.6304e-05 0.000418625 1.58296e-23
-4.6304e-05 0.000418625 1.58296e-23
-5.27366e-05 0.000576575 -3.15345e-23
-5.27366e-05 0.000576575 -3.15345e-23
-6.12916e-05 0.000776337 0
-6.12916e-05 0.000776337 0
-7.24029e-05 0.00103239 -6.11946e-23
-7.24029e-05 0.00103239 -6.11946e-23
-8.67008e-05 0.00136222 -1.00599e-26
-8.67008e-05 0.00136222 -1.00599e-26
-0.000105232 0.00179087 6.11845e-23
-0.000105232 0.00179087 6.11845e-23
-0.000129333 0.00234475 -5.82169e-23
-0.000129333 0.00234475 -5.82169e-23
-0.000159837 0.00306889 -2.07737e-26
-0.000159837 0.00306889 -2.07737e-26
-0.000198948 0.00399016 5.81961e-23
-0.000198948 0.00399016 5.81961e-23
-0.000238645 0.005164 5.23422e-23
-0.000238645 0.005164 5.23422e-23
-0.000272655 0.00654117 4.03016e-26
-0.000272655 0.00654117 4.03016e-26
-0.000291106 0.00810707 -5.32288e-23
-0.000291106 0.00810707 -5.32288e-23
-0.000233792 0.00975249 0
-0.000233792 0.00975249 0
-6.60806e-05 0.0109134 0
-6.60806e-05 0.0109134 0
0.000200523 0.0112424 0
0.000200523 0.0112424 0
0.000545731 0.0106484 0
0.000545731 0.0106484 0
0.000900397 0.00902143 0
0.000900397 0.00902143 0
0.00118622 0.00670727 0
0.00118622 0.00670727 0
0.00132898 0.00387152 0
0.00132898 0.00387152 0
0.00100974 0.00142027 0
0.00100974 0.00142027 0
-0.00061771 -0.000615785 0
-0.00061771 -0.000615785 0
-0.00229101 -0.000340133 0
-0.00229101 -0.000340133 0
-0.000704111 0.000640105 0
-0.000704111 0.000640105 0
-2.00773e-05 1.3494e-05 3.01899e-26
-2.00773e-05 1.3494e-05 3.01899e-26
-2.15269e-05 2.37034e-06 -3.69928e-24
-2.15269e-05 2.37034e-06 -3.69928e-24
-1.84249e-05 7.26664e-08 0
-1.84249e-05 7.26664e-08 0
-1.50457e-05 -1.19137e-06 0
-1.50457e-05 -1.19137e-06 0
-9.57031e-06 -3.02627e-06 3.60459e-24
-9.57031e-06 -3.02627e-06 3.60459e-24
-2.18205e-06 -5.35921e-06 3.61107e-24
-2.18205e-06 -5.35921e-06 3.61107e-24
7.97429e-06 -8.10985e-06 0
7.97429e-06 -8.10985e-06 0
2.11648e-05 -1.12309e-05 0
2.11648e-05 -1.12309e-05 0
3.78266e-05 -1.46741e-05 0
3.78266e-05 -1.46741e-05 0
5.83351e-05 -1.83934e-05 -3.51559e-24
5.83351e-05 -1.83934e-05 -3.51559e-24
8.30139e-05 -2.2336e-05 -3.52229e-24
8.30139e-05 -2.2336e-05 -3.52229e-24
0.000112134 -2.64454e-05 0
0.000112134 -2.64454e-05 0
0.000145911 -3.06615e-05 0
0.000145911 -3.06615e-05 0
0.0001845 -3.49234e-05 0
0.0001845 -3.49234e-05 0
0.000227995 -3.91702e-05 -3.44494e-24
0.000227995 -3.91702e-05 -3.44494e-24
0.000276424 -4.33424e-05 -3.45189e-24
0.000276424 -4.33424e-05 -3.45189e-24
0.000329756 -4.73834e-05 0
0.000329756 -4.73834e-05 0
0.000387895 -5.12405e-05 0
0.000387895 -5.12405e-05 0
0.000450688 -5.48661e-05 0
0.000450688 -5.48661e-05 0
0.000517927 -5.82187e-05 0
0.000517927 -5.82187e-05 0
0.000589356 -6.12636e-05 0
0.000589356 -6.12636e-05 0
0.000664676 -6.39732e-05 0
0.000664676 -6.39732e-05 0
0.000743553 -6.63275e-05 -3.34562e-24
0.000743553 -6.63275e-05 -3.34562e-24
0.000825626 -6.83135e-05 -2.04454e-26
0.000825626 -6.83135e-05 -2.04454e-26
0.00091051 -6.99256e-05 2.08814e-26
0.00091051 -6.99256e-05 2.08814e-26
0.000997808 -7.11644e-05 -6.6319e-24
0.000997808 -7.11644e-05 -6.6319e-24
0.00108712 -7.20365e-05 -3.31282e-24
0.00108712 -7.20365e-05 -3.31282e-24
0.00117804 -7.25538e-05 0
0.00117804 -7.25538e-05 0
0.00127017 -7.27324e-05 3.26068e-24
0.00127017 -7.27324e-05 3.26068e-24
0.00136313 -7.25921e-05 6.51312e-24
0.00136313 -7.25921e-05 6.51312e-24
0.00145654 -7.21555e-05 3.25248e-24
0.00145654 -7.21555e-05 3.25248e-24
0.00155005 -7.14472e-05 0
0.00155005 -7.14472e-05 0
0.00164334 -7.0493e-05 3.1936e-24
0.00164334 -7.0493e-05 3.1936e-24
0.0017361 -6.93194e-05 3.20146e-24
0.0017361 -6.93194e-05 3.20146e-24
0.00182805 -6.79529e-05 0
0.00182805 -6.79529e-05 0
0.00191894 -6.64194e-05 -3.13766e-24
0.00191894 -6.64194e-05 -3.13766e-24
0.00200854 -6.47444e-05 -3.14564e-24
0.00200854 -6.47444e-05 -3.14564e-24
0.00209665 -6.29518e-05 -3.09797e-24
0.00209665 -6.29518e-05 -3.09797e-24
0.00218309 -6.10642e-05 -9.26101e-24
0.00218309 -6.10642e-05 -9.26101e-24
0.00226773 -5.91029e-05 -6.17113e-24
0.00226773 -5.91029e-05 -6.17113e-24
0.00235042 -5.70871e-05 0
0.00235042 -5.70871e-05 0
0.00243107 -5.50347e-05 0
0.00243107 -5.50347e-05 0
0.00250959 -5.29614e-05 0
0.00250959 -5.29614e-05 0
0.00258593 -5.08816e-05 0
0.00258593 -5.08816e-05 0
0.00266002 -4.88078e-05 -5.89548e-24
0.00266002 -4.88078e-05 -5.89548e-24
0.00273184 -4.67509e-05 -1.17624e-23
0.00273184 -4.67509e-05 -1.17624e-23
0.00280138 -4.47204e-05 -1.16722e-23
0.00280138 -4.47204e-05 -1.16722e-23
0.00286863 -4.27243e-05 -5.82172e-24
0.00286863 -4.27243e-05 -5.82172e-24
0.00293358 -4.07693e-05 5.71385e-24
0.00293358 -4.07693e-05 5.71385e-24
0.00299627 -3.8861e-05 5.73041e-24
0.00299627 -3.8861e-05 5.73041e-24
0.00305672 -3.70039e-05 -5.62176e-24
0.00305672 -3.70039e-05 -5.62176e-24
0.00311494 -3.52016e-05 -1.12139e-23
0.00311494 -3.52016e-05 -1.12139e-23
0.003171 -3.34566e-05 -5.59218e-24
0.003171 -3.34566e-05 -5.59218e-24
0.00322492 -3.1771e-05 0
0.00322492 -3.1771e-05 0
0.00327676 -3.01461e-05 0
0.00327676 -3.01461e-05 0
0.00332656 -2.85823e-05 -5.39053e-24
0.00332656 -2.85823e-05 -5.39053e-24
0.00337438 -2.70801e-05 -5.40722e-24
0.00337438 -2.70801e-05 -5.40722e-24
0.00342028 -2.56391e-05 0
0.00342028 -2.56391e-05 0
0.00346432 -2.42588e-05 0
0.00346432 -2.42588e-05 0
0.00350654 -2.29382e-05 0
0.00350654 -2.29382e-05 0
0.00354702 -2.16762e-05 0
0.00354702 -2.16762e-05 0
0.00358581 -2.04715e-05 0
0.00358581 -2.04715e-05 0
0.00362297 -1.93227e-05 0
0.00362297 -1.93227e-05 0
0.00365855 -1.8228e-05 0
0.00365855 -1.8228e-05 0
0.00369263 -1.71858e-05 4.9803e-24
0.00369263 -1.71858e-05 4.9803e-24
0.00372525 -1.61943e-05 4.99704e-24
0.00372525 -1.61943e-05 4.99704e-24
0.00375647 -1.52518e-05 0
0.00375647 -1.52518e-05 0
0.00378635 -1.43563e-05 -4.84711e-24
0.00378635 -1.43563e-05 -4.84711e-24
0.00381494 -1.3506e-05 -9.66702e-24
0.00381494 -1.3506e-05 -9.66702e-24
0.0038423 -1.26992e-05 -4.81991e-24
0.0038423 -1.26992e-05 -4.81991e-24
0.00386847 -1.19339e-05 4.71614e-24
0.00386847 -1.19339e-05 4.71614e-24
0.00389351 -1.12085e-05 5.98265e-26
0.00389351 -1.12085e-05 5.98265e-26
0.00391746 -1.05211e-05 -4.68967e-24
0.00391746 -1.05211e-05 -4.68967e-24
0.00394038 -9.87008e-06 4.58752e-24
0.00394038 -9.87008e-06 4.58752e-24
0.0039623 -9.25377e-06 4.60417e-24
0.0039623 -9.25377e-06 4.60417e-24
0.00398328 -8.67054e-06 0
0.00398328 -8.67054e-06 0
0.00400335 -8.11884e-06 -4.46134e-24
0.00400335 -8.11884e-06 -4.46134e-24
0.00402257 -7.59715e-06 -4.47793e-24
0.00402257 -7.59715e-06 -4.47793e-24
0.00404095 -7.10402e-06 4.3786e-24
0.00404095 -7.10402e-06 4.3786e-24
0.00405856 -6.63803e-06 4.39514e-24
0.00405856 -6.63803e-06 4.39514e-24
0.00407542 -6.19784e-06 -4.29695e-24
0.00407542 -6.19784e-06 -4.29695e-24
0.00409156 -5.78215e-06 -8.56998e-24
0.00409156 -5.78215e-06 -8.56998e-24
0.00410703 -5.3897e-06 -8.48941e-24
0.00410703 -5.3897e-06 -8.48941e-24
0.00412186 -5.0193e-06 -1.25859e-23
0.00412186 -5.0193e-06 -1.25859e-23
0.00413607 -4.66985e-06 -1.12003e-25
0.00413607 -4.66985e-06 -1.12003e-25
0.0041497 -4.34014e-06 8.30665e-24
0.0041497 -4.34014e-06 8.30665e-24
0.00416278 -4.02921e-06 0
0.00416278 -4.02921e-06 0
0.00417534 -3.73615e-06 0
0.00417534 -3.73615e-06 0
0.0041874 -3.45946e-06 7.96252e-24
0.0041874 -3.45946e-06 7.96252e-24
0.004199 -3.19893e-06 1.5881e-23
0.004199 -3.19893e-06 1.5881e-23
0.00421014 -2.95373e-06 1.08395e-25
0.00421014 -2.95373e-06 1.08395e-25
0.00422087 -2.72068e-06 -7.84235e-24
0.00422087 -2.72068e-06 -7.84235e-24
0.00423119 -2.50212e-06 7.6596e-24
0.00423119 -2.50212e-06 7.6596e-24
0.00424114 -2.29824e-06 1.52769e-23
0.00424114 -2.29824e-06 1.52769e-23
0.00425074 -2.09793e-06 1.51285e-23
0.00425074 -2.09793e-06 1.51285e-23
0.00425999 -1.90642e-06 7.54322e-24
0.00425999 -1.90642e-06 7.54322e-24
0.00426893 -1.73357e-06 0
0.00426893 -1.73357e-06 0
0.00427757 -1.54726e-06 0
0.00427757 -1.54726e-06 0
0.00428589 -1.32488e-06 7.22046e-24
0.00428589 -1.32488e-06 7.22046e-24
0.00429387 -1.09635e-06 7.25207e-24
0.00429387 -1.09635e-06 7.25207e-24
0.00430153 -8.93982e-07 0
0.00430153 -8.93982e-07 0
0.0043089 -7.27475e-07 -7.00745e-24
0.0043089 -7.27475e-07 -7.00745e-24
0.00431601 -5.9605e-07 -7.03875e-24
0.00431601 -5.9605e-07 -7.03875e-24
0.0043229 -4.9438e-07 0
0.0043229 -4.9438e-07 0
0.00432962 -4.13677e-07 -6.79864e-24
0.00432962 -4.13677e-07 -6.79864e-24
0.00433616 -3.45894e-07 -6.8296e-24
0.00433616 -3.45894e-07 -6.8296e-24
0.00434257 -2.85795e-07 0
0.00434257 -2.85795e-07 0
0.00434883 -2.30609e-07 6.59387e-24
0.00434883 -2.30609e-07 6.59387e-24
0.00435497 -1.79079e-07 1.3151e-23
0.00435497 -1.79079e-07 1.3151e-23
0.004361 -1.30684e-07 6.55698e-24
0.004361 -1.30684e-07 6.55698e-24
0.00436692 -8.51873e-08 -6.39303e-24
0.00436692 -8.51873e-08 -6.39303e-24
0.00437275 -4.24409e-08 -6.42326e-24
0.00437275 -4.24409e-08 -6.42326e-24
0.00437849 -2.32221e-09 6.26127e-24
0.00437849 -2.32221e-09 6.26127e-24
0.00438415 3.52864e-08 6.29123e-24
0.00438415 3.52864e-08 6.29123e-24
0.00438973 7.05058e-08 6.13117e-24
0.00438973 7.05058e-08 6.13117e-24
0.00439525 1.03458e-07 1.22276e-23
0.00439525 1.03458e-07 1.22276e-23
0.00440072 1.34263e-07 6.09628e-24
0.00440072 1.34263e-07 6.09628e-24
0.00440613 1.63042e-07 0
0.00440613 1.63042e-07 0
0.00441149 1.89922e-07 0
0.00441149 1.89922e-07 0
0.00441682 2.15016e-07 0
0.00441682 2.15016e-07 0
0.00442211 2.38432e-07 0
0.00442211 2.38432e-07 0
0.00442737 2.60283e-07 0
0.00442737 2.60283e-07 0
0.0044326 2.80684e-07 0
0.0044326 2.80684e-07 0
0.00443782 2.99745e-07 5.56536e-24
0.00443782 2.99745e-07 5.56536e-24
0.00444302 3.1754e-07 8.93177e-26
0.00444302 3.1754e-07 8.93177e-26
0.00444821 3.34122e-07 -5.53256e-24
0.00444821 3.34122e-07 -5.53256e-24
0.0044534 3.4955e-07 0
0.0044534 3.4955e-07 0
0.00445858 3.63909e-07 0
0.00445858 3.63909e-07 0
0.00446376 3.77296e-07 0
0.00446376 3.77296e-07 0
0.00446895 3.89796e-07 -1.04096e-23
0.00446895 3.89796e-07 -1.04096e-23
0.00447415 4.01476e-07 -1.04643e-23
0.00447415 4.01476e-07 -1.04643e-23
0.00447935 4.12395e-07 1.01748e-23
0.00447935 4.12395e-07 1.01748e-23
0.00448457 4.22607e-07 1.70382e-25
0.00448457 4.22607e-07 1.70382e-25
0.00448981 4.32165e-07 -1.0112e-23
0.00448981 4.32165e-07 -1.0112e-23
0.00449506 4.41128e-07 0
0.00449506 4.41128e-07 0
0.00450034 4.49545e-07 0
0.00450034 4.49545e-07 0
0.00450564 4.57468e-07 9.59936e-24
0.00450564 4.57468e-07 9.59936e-24
0.00451097 4.64948e-07 1.91377e-23
0.00451097 4.64948e-07 1.91377e-23
0.00451632 4.7203e-07 9.53799e-24
0.00451632 4.7203e-07 9.53799e-24
0.00452171 4.78747e-07 9.26175e-24
0.00452171 4.78747e-07 9.26175e-24
0.00452713 4.85138e-07 1.84632e-23
0.00452713 4.85138e-07 1.84632e-23
0.00453258 4.91248e-07 1.61332e-25
0.00453258 4.91248e-07 1.61332e-25
0.00453807 4.97151e-07 -9.09001e-24
0.00453807 4.97151e-07 -9.09001e-24
0.00454359 5.02921e-07 0
0.00454359 5.02921e-07 0
0.00454916 5.08611e-07 -8.71122e-24
0.00454916 5.08611e-07 -8.71122e-24
0.00455476 5.1426e-07 -8.76028e-24
0.00455476 5.1426e-07 -8.76028e-24
0.0045604 5.19928e-07 0
0.0045604 5.19928e-07 0
0.00456608 5.25693e-07 0
0.00456608 5.25693e-07 0
0.0045718 5.3165e-07 0
0.0045718 5.3165e-07 0
0.00457757 5.37904e-07 8.17484e-24
0.00457757 5.37904e-07 8.17484e-24
0.00458337 5.44571e-07 1.6291e-23
0.00458337 5.44571e-07 1.6291e-23
0.00458922 5.51795e-07 8.11574e-24
0.00458922 5.51795e-07 8.11574e-24
0.0045951 5.59758e-07 7.85933e-24
0.0045951 5.59758e-07 7.85933e-24
0.00460102 5.68682e-07 7.90506e-24
0.00460102 5.68682e-07 7.90506e-24
0.00460697 5.7885e-07 0
0.00460697 5.7885e-07 0
0.00461295 5.90619e-07 7.54831e-24
0.00461295 5.90619e-07 7.54831e-24
0.00461895 6.04442e-07 7.59274e-24
0.00461895 6.04442e-07 7.59274e-24
0.00462497 6.20892e-07 7.34337e-24
0.00462497 6.20892e-07 7.34337e-24
0.00463099 6.40701e-07 7.38692e-24
0.00463099 6.40701e-07 7.38692e-24
0.004637 6.64806e-07 0
0.004637 6.64806e-07 0
0.00464299 6.9442e-07 7.03951e-24
0.00464299 6.9442e-07 7.03951e-24
0.00464893 7.31111e-07 7.08171e-24
0.00464893 7.31111e-07 7.08171e-24
0.00465479 7.76929e-07 6.8393e-24
0.00465479 7.76929e-07 6.8393e-24
0.00466052 8.3455e-07 6.88059e-24