/*--------------------------------*- C++ -*----------------------------------*\
  =========                 |
  \\      /  F ield         | OpenFOAM: The Open Source CFD Toolbox
   \\    /   O peration     | Website:  https://openfoam.org
    \\  /    A nd           | Version:  7
     \\/     M anipulation  |
\*---------------------------------------------------------------------------*/
FoamFile
{
    version     2.0;
    format      ascii;
    class       volScalarField;
    location    "0.002";
    object      k_0;
}
// * * * * * * * * * * * * * * * * * * * * * * * * * * * * * * * * * * * * * //

dimensions      [0 2 -2 0 0 0 0];

internalField   nonuniform List<scalar> 
12225
(
1.89108e-05
1.8577e-05
2.15929e-05
3.98829e-05
0.000139667
0.000425945
0.000458841
0.000470175
0.00030458
0.000243259
0.000192861
9.70675e-05
9.7092e-05
0.000287152
0.00024902
0.000292474
0.000615783
0.00632901
1.99303e-05
1.99803e-05
2.11362e-05
2.74297e-05
4.98808e-05
6.97707e-05
7.21564e-05
7.04632e-05
5.63437e-05
3.64037e-05
2.18955e-05
1.1156e-05
7.98735e-06
9.28639e-06
8.70805e-06
9.21435e-06
1.18023e-05
6.15672e-05
1.99975e-05
1.92444e-05
1.95038e-05
2.09917e-05
2.25329e-05
2.25394e-05
2.15041e-05
1.7496e-05
1.13929e-05
6.86803e-06
3.83821e-06
2.00501e-06
1.08484e-06
6.55332e-07
3.8758e-07
3.35077e-07
3.25764e-07
9.07883e-07
2.00493e-05
1.98536e-05
1.93027e-05
1.86924e-05
1.72598e-05
1.69646e-05
1.82036e-05
1.87835e-05
1.70597e-05
1.09575e-05
5.95959e-06
3.12015e-06
1.62299e-06
8.17801e-07
3.38182e-07
2.66885e-07
1.35305e-07
3.16141e-07
2.06284e-05
2.09283e-05
2.13383e-05
2.28148e-05
2.81467e-05
3.2742e-05
3.34959e-05
3.24204e-05
2.61259e-05
1.51228e-05
8.05592e-06
4.06774e-06
1.97656e-06
9.32264e-07
4.28391e-07
1.96869e-07
8.90874e-08
4.15367e-08
2.02387e-05
2.09075e-05
2.23688e-05
2.47907e-05
3.08605e-05
3.47296e-05
3.49674e-05
3.36277e-05
2.6723e-05
1.54192e-05
8.1873e-06
4.11727e-06
1.98826e-06
9.30333e-07
4.25295e-07
1.91659e-07
8.54375e-08
3.78954e-08
2.03819e-05
2.08977e-05
2.13097e-05
2.26816e-05
2.82284e-05
3.28026e-05
3.34717e-05
3.24134e-05
2.62192e-05
1.5121e-05
8.00033e-06
4.00811e-06
1.92811e-06
8.9948e-07
4.09972e-07
1.83942e-07
8.1332e-08
3.6301e-08
2.01615e-05
2.06464e-05
2.14041e-05
2.23966e-05
2.72123e-05
3.23942e-05
3.32026e-05
3.22114e-05
2.61864e-05
1.51548e-05
8.03903e-06
4.03443e-06
1.94181e-06
9.04884e-07
4.11388e-07
1.83903e-07
8.08204e-08
3.63082e-08
2.00637e-05
2.14257e-05
2.43426e-05
2.54384e-05
2.90426e-05
3.43378e-05
3.52632e-05
3.43214e-05
2.86712e-05
1.68644e-05
8.97119e-06
4.49261e-06
2.15162e-06
9.95515e-07
4.47954e-07
1.97282e-07
8.48489e-08
3.67571e-08
2.07094e-05
2.18659e-05
2.22218e-05
2.27988e-05
2.55221e-05
3.1455e-05
3.37024e-05
3.34247e-05
2.95299e-05
1.8147e-05
9.5816e-06
4.78003e-06
2.27709e-06
1.04542e-06
4.65538e-07
2.02062e-07
8.54639e-08
3.63684e-08
2.07364e-05
2.35305e-05
2.4287e-05
2.43564e-05
2.85307e-05
3.88987e-05
4.15345e-05
4.07347e-05
3.46413e-05
2.0319e-05
1.06222e-05
5.21659e-06
2.44165e-06
1.09915e-06
4.7919e-07
2.03484e-07
8.39957e-08
3.4455e-08
2.08224e-05
2.25927e-05
2.31087e-05
2.36458e-05
2.72157e-05
3.45993e-05
3.63074e-05
3.5604e-05
3.02807e-05
1.78288e-05
9.36647e-06
4.61952e-06
2.17024e-06
9.80245e-07
4.28706e-07
1.8246e-07
7.54586e-08
3.10549e-08
2.07584e-05
2.11179e-05
2.12734e-05
2.21428e-05
2.74431e-05
3.71882e-05
3.98161e-05
3.9325e-05
3.43107e-05
2.06748e-05
1.08071e-05
5.30304e-06
2.47205e-06
1.10487e-06
4.7657e-07
1.99404e-07
8.08804e-08
3.25971e-08
2.22339e-05
2.0856e-05
2.05431e-05
2.15948e-05
2.80437e-05
3.85746e-05
4.15963e-05
4.11768e-05
3.6189e-05
2.1985e-05
1.14513e-05
5.5972e-06
2.59507e-06
1.15177e-06
4.925e-07
2.03977e-07
8.18279e-08
3.25922e-08
2.36429e-05
2.26372e-05
2.11302e-05
2.18568e-05
2.8122e-05
4.04119e-05
4.44052e-05
4.41529e-05
3.93892e-05
2.44796e-05
1.27276e-05
6.20605e-06
2.86597e-06
1.26483e-06
5.36959e-07
2.20463e-07
8.75605e-08
3.44889e-08
2.10195e-05
2.09226e-05
2.09119e-05
2.19042e-05
2.8158e-05
4.23719e-05
4.74888e-05
4.75085e-05
4.34141e-05
2.83836e-05
1.48739e-05
7.28834e-06
3.37237e-06
1.48716e-06
6.29368e-07
2.57049e-07
1.01367e-07
3.95769e-08
2.10353e-05
2.12821e-05
2.12476e-05
2.21261e-05
2.85298e-05
4.64314e-05
5.47711e-05
5.55752e-05
5.23531e-05
3.69695e-05
1.94528e-05
9.51748e-06
4.37993e-06
1.91254e-06
7.98051e-07
3.20063e-07
1.23517e-07
4.70979e-08
2.01486e-05
2.02813e-05
2.05356e-05
2.16005e-05
2.73135e-05
4.7096e-05
5.88106e-05
6.02033e-05
5.73469e-05
4.2161e-05
2.23277e-05
1.08854e-05
4.97006e-06
2.14584e-06
8.82878e-07
3.48547e-07
1.32282e-07
4.96019e-08
2.01404e-05
2.06826e-05
2.12594e-05
2.27249e-05
2.90267e-05
4.82006e-05
5.89406e-05
6.03776e-05
5.76243e-05
4.27133e-05
2.26463e-05
1.10208e-05
5.01283e-06
2.1521e-06
8.78806e-07
3.43609e-07
1.28926e-07
4.77407e-08
2.00207e-05
2.02703e-05
2.08088e-05
2.22602e-05
2.81432e-05
4.44261e-05
5.28908e-05
5.38845e-05
5.09814e-05
3.63669e-05
1.88709e-05
9.02761e-06
4.03657e-06
1.70263e-06
6.82943e-07
2.62319e-07
9.67261e-08
3.52168e-08
2.02407e-05
2.03276e-05
2.07333e-05
2.22151e-05
2.95232e-05
4.95821e-05
5.85087e-05
5.91427e-05
5.51768e-05
3.76248e-05
1.92579e-05
9.11825e-06
4.03419e-06
1.68344e-06
6.67985e-07
2.53813e-07
9.25955e-08
3.33651e-08
2.08379e-05
2.06234e-05
2.082e-05
2.22943e-05
3.05553e-05
4.66743e-05
5.17256e-05
5.14814e-05
4.62679e-05
2.89959e-05
1.47206e-05
6.92453e-06
3.04403e-06
1.26281e-06
4.98286e-07
1.88295e-07
6.83243e-08
2.44955e-08
2.02119e-05
2.0164e-05
2.03524e-05
2.15543e-05
2.78345e-05
3.85884e-05
4.17953e-05
4.15108e-05
3.71742e-05
2.3262e-05
1.18848e-05
5.60719e-06
2.47046e-06
1.02698e-06
4.0613e-07
1.5388e-07
5.60288e-08
2.01717e-08
2.07681e-05
2.03938e-05
2.04057e-05
2.14092e-05
2.70292e-05
3.69286e-05
4.07218e-05
4.07396e-05
3.73115e-05
2.43713e-05
1.24711e-05
5.86434e-06
2.57016e-06
1.0637e-06
4.19322e-07
1.58582e-07
5.7835e-08
2.10427e-08
2.10177e-05
2.0666e-05
2.05916e-05
2.1489e-05
2.70537e-05
4.16653e-05
4.85724e-05
4.91389e-05
4.60573e-05
3.18454e-05
1.63256e-05
7.66854e-06
3.36295e-06
1.40277e-06
5.63185e-07
2.1827e-07
8.28012e-08
3.20486e-08
2.03852e-05
2.04047e-05
2.0539e-05
2.19749e-05
2.97944e-05
4.43096e-05
4.96347e-05
4.96948e-05
4.58633e-05
3.06613e-05
1.58045e-05
7.47786e-06
3.30814e-06
1.39755e-06
5.72339e-07
2.29647e-07
9.2441e-08
3.79158e-08
2.00097e-05
2.0023e-05
2.0164e-05
2.122e-05
2.54865e-05
2.85052e-05
2.88362e-05
2.77625e-05
2.19158e-05
1.21759e-05
6.07849e-06
2.80438e-06
1.21101e-06
4.94009e-07
1.91919e-07
7.16405e-08
2.59714e-08
9.47228e-09
2.02316e-05
1.74207e-05
1.26344e-05
1.35766e-05
1.87272e-05
2.8412e-05
3.11639e-05
2.9928e-05
2.2656e-05
1.18242e-05
5.57671e-06
2.45399e-06
1.02185e-06
4.06203e-07
1.55525e-07
5.81933e-08
2.23729e-08
1.04122e-08
3.23656e-05
6.64357e-05
9.40613e-05
0.000177249
0.000286653
0.000310624
0.000299332
0.000252222
0.000151072
7.81839e-05
3.6747e-05
1.60467e-05
6.60511e-06
2.59046e-06
9.83905e-07
3.77539e-07
1.67347e-07
1.10103e-07
0.00224284
0.00210859
0.00203929
0.00191846
0.00174257
0.00148177
0.00110627
0.00070901
0.000395549
0.000197771
9.04681e-05
3.8364e-05
1.52183e-05
5.7326e-06
2.17459e-06
1.00056e-06
7.21428e-07
7.32774e-07
2.06117e-07
1.31874e-07
4.53596e-08
2.05257e-08
9.03047e-09
4.55683e-09
3.32582e-09
2.65509e-09
2.02496e-09
1.61057e-09
1.32639e-09
1.07173e-09
8.37454e-10
6.30751e-10
4.58258e-10
3.26226e-10
2.25078e-10
1.58411e-10
1.23203e-10
1.03621e-10
8.97062e-11
7.79505e-11
6.74133e-11
5.78871e-11
4.93259e-11
4.17047e-11
3.49871e-11
2.91256e-11
2.40615e-11
1.97276e-11
1.60537e-11
1.29685e-11
1.04017e-11
8.28483e-12
6.55319e-12
5.14769e-12
4.01595e-12
3.11209e-12
2.39599e-12
1.83306e-12
1.39384e-12
1.05361e-12
7.91896e-13
5.91916e-13
4.40075e-13
3.25492e-13
2.39523e-13
1.75386e-13
1.27803e-13
9.26845e-14
6.69001e-14
4.80662e-14
3.43762e-14
2.44743e-14
1.73501e-14
1.22521e-14
8.62397e-15
6.05596e-15
4.24831e-15
2.98295e-15
2.10229e-15
1.49296e-15
1.07405e-15
7.87986e-16
5.94054e-16
4.6364e-16
3.76703e-16
3.19317e-16
2.81847e-16
2.57768e-16
2.42591e-16
2.33248e-16
2.27672e-16
2.245e-16
2.22846e-16
2.22157e-16
2.22045e-16
2.22045e-16
2.22045e-16
2.22045e-16
2.22045e-16
2.22045e-16
2.22045e-16
2.22045e-16
2.22045e-16
2.22045e-16
2.22045e-16
2.22045e-16
2.22045e-16
2.22045e-16
2.22045e-16
2.22045e-16
2.22045e-16
2.22045e-16
2.22045e-16
2.22045e-16
2.22045e-16
2.22045e-16
2.22045e-16
2.22045e-16
2.22045e-16
2.22045e-16
2.22045e-16
2.22045e-16
2.22045e-16
2.22045e-16
2.22045e-16
2.22045e-16
2.22045e-16
2.22045e-16
2.22045e-16
2.22045e-16
2.22045e-16
2.22045e-16
2.22045e-16
2.22045e-16
2.22045e-16
2.22045e-16
2.22045e-16
2.22045e-16
2.22045e-16
2.22045e-16
2.22045e-16
2.22045e-16
2.22045e-16
2.22045e-16
2.22045e-16
2.22045e-16
2.22045e-16
2.22045e-16
2.22045e-16
2.22045e-16
2.22045e-16
2.22045e-16
2.22045e-16
2.22045e-16
2.22045e-16
2.22045e-16
2.22045e-16
2.22045e-16
2.22045e-16
2.22045e-16
2.22045e-16
2.22045e-16
2.22045e-16
2.22045e-16
2.22045e-16
2.22045e-16
2.22045e-16
2.22045e-16
2.22045e-16
2.22045e-16
2.22045e-16
2.22045e-16
2.22045e-16
2.22045e-16
2.22045e-16
2.34116e-16
3.05545e-16
5.99614e-16
4.37884e-15
1.06563e-13
1.06499e-12
6.12801e-12
2.37966e-11
6.7699e-11
1.59466e-10
3.27758e-10
6.30225e-10
1.17367e-09
2.12325e-09
3.89174e-09
7.02098e-09
1.3193e-08
2.69674e-08
5.57044e-08
1.76834e-07
1.46338e-07
8.02834e-08
1.03912e-07
8.52092e-07
5.06568e-07
7.36016e-07
5.51624e-07
2.70176e-07
1.51303e-07
1.19697e-07
9.90856e-08
7.74592e-08
6.07537e-08
5.07477e-08
4.16622e-08
3.31948e-08
2.56332e-08
1.92298e-08
1.42199e-08
1.03028e-08
7.55994e-09
6.07951e-09
5.25265e-09
4.63702e-09
4.09741e-09
3.60233e-09
3.14632e-09
2.72906e-09
2.35066e-09
2.01061e-09
1.70786e-09
1.44075e-09
1.20713e-09
1.00458e-09
8.30461e-10
6.82078e-10
5.56664e-10
4.5147e-10
3.63854e-10
2.91391e-10
2.3191e-10
1.83457e-10
1.44274e-10
1.12808e-10
8.77098e-11
6.78215e-11
5.21623e-11
3.99083e-11
3.03759e-11
2.30024e-11
1.73304e-11
1.29911e-11
9.68866e-12
7.18848e-12
5.30557e-12
3.89482e-12
2.84337e-12
2.06402e-12
1.48956e-12
1.06851e-12
7.61671e-13
5.39379e-13
3.79314e-13
2.6479e-13
1.83389e-13
1.25948e-13
8.57256e-14
5.77927e-14
3.8572e-14
2.54755e-14
1.66474e-14
1.07705e-14
6.94198e-15
4.48128e-15
2.91431e-15
1.92223e-15
1.2964e-15
9.02011e-16
6.52986e-16
4.95249e-16
3.95121e-16
3.31555e-16
2.91264e-16
2.65782e-16
2.49706e-16
2.39568e-16
2.33189e-16
2.2918e-16
2.26594e-16
2.24996e-16
2.2407e-16
2.2346e-16
2.23016e-16
2.22704e-16
2.22491e-16
2.22348e-16
2.22253e-16
2.22189e-16
2.22146e-16
2.22118e-16
2.221e-16
2.22086e-16
2.22076e-16
2.22069e-16
2.22063e-16
2.22059e-16
2.22056e-16
2.22053e-16
2.22051e-16
2.2205e-16
2.22048e-16
2.22048e-16
2.22047e-16
2.22046e-16
2.22046e-16
2.22045e-16
2.22045e-16
2.22045e-16
2.22045e-16
2.22045e-16
2.22045e-16
2.22045e-16
2.22045e-16
2.22045e-16
2.22045e-16
2.22045e-16
2.22045e-16
2.22045e-16
2.22045e-16
2.22045e-16
2.22045e-16
2.22045e-16
2.22045e-16
2.22045e-16
2.22045e-16
2.22045e-16
2.22045e-16
2.22045e-16
2.22045e-16
2.22045e-16
2.22045e-16
2.22045e-16
2.22045e-16
2.22045e-16
2.22045e-16
2.22045e-16
2.22045e-16
2.22045e-16
2.22045e-16
2.22045e-16
2.22045e-16
2.22045e-16
2.22045e-16
2.22045e-16
2.22045e-16
2.22045e-16
2.22045e-16
2.22045e-16
2.22045e-16
2.22074e-16
2.22377e-16
2.2401e-16
2.30594e-16
2.90358e-16
1.52411e-15
1.17934e-14
5.94509e-14
2.12064e-13
6.12381e-13
1.41675e-12
2.89664e-12
5.56881e-12
1.04423e-11
1.89634e-11
3.53595e-11
6.4571e-11
1.21668e-10
2.49806e-10
5.47044e-10
2.07326e-09
3.15761e-09
3.49392e-09
5.87572e-09
1.0491e-06
2.6842e-07
8.59911e-07
1.30842e-06
1.33085e-06
1.2871e-06
1.20392e-06
1.11438e-06
1.01738e-06
9.04702e-07
7.79962e-07
6.55217e-07
5.36464e-07
4.28718e-07
3.35712e-07
2.60456e-07
2.0034e-07
1.54832e-07
1.28109e-07
1.14079e-07
1.02879e-07
9.25803e-08
8.28761e-08
7.37512e-08
6.5234e-08
5.73504e-08
5.01136e-08
4.35257e-08
3.75777e-08
3.22493e-08
2.75134e-08
2.33361e-08
1.96802e-08
1.65046e-08
1.37662e-08
1.14199e-08
9.42075e-09
7.7279e-09
6.30463e-09
5.11648e-09
4.13084e-09
3.31812e-09
2.65187e-09
2.10886e-09
1.66877e-09
1.31406e-09
1.02966e-09
8.02832e-10
6.2286e-10
4.80793e-10
3.69209e-10
2.82019e-10
2.1424e-10
1.61827e-10
1.21518e-10
9.06853e-11
6.72345e-11
4.95026e-11
3.61777e-11
2.62297e-11
1.88548e-11
1.34279e-11
9.46744e-12
6.60289e-12
4.55129e-12
3.09793e-12
2.08052e-12
1.37653e-12
9.05305e-13
5.96742e-13
3.93802e-13
2.59986e-13
1.71629e-13
1.13262e-13
7.47034e-14
4.92334e-14
3.24182e-14
2.1333e-14
1.4042e-14
9.25929e-15
6.12974e-15
4.08639e-15
2.75317e-15
1.88427e-15
1.31919e-15
9.44041e-16
7.02869e-16
5.6455e-16
4.68941e-16
3.93148e-16
3.3896e-16
3.01939e-16
2.76971e-16
2.60205e-16
2.48813e-16
2.41033e-16
2.35931e-16
2.32398e-16
2.29841e-16
2.27959e-16
2.26563e-16
2.25518e-16
2.24729e-16
2.24129e-16
2.23667e-16
2.23311e-16
2.23033e-16
2.22817e-16
2.22648e-16
2.22515e-16
2.22411e-16
2.22329e-16
2.22265e-16
2.22215e-16
2.22175e-16
2.22144e-16
2.2212e-16
2.22101e-16
2.22087e-16
2.22076e-16
2.22067e-16
2.22061e-16
2.22056e-16
2.22052e-16
2.22049e-16
2.22047e-16
2.22045e-16
2.22045e-16
2.22045e-16
2.22045e-16
2.22045e-16
2.22045e-16
2.22045e-16
2.22045e-16
2.22045e-16
2.22045e-16
2.22045e-16
2.22045e-16
2.22045e-16
2.22045e-16
2.22045e-16
2.22045e-16
2.22045e-16
2.22045e-16
2.22045e-16
2.22045e-16
2.22045e-16
2.22045e-16
2.22045e-16
2.22045e-16
2.22045e-16
2.22045e-16
2.22045e-16
2.22045e-16
2.22045e-16
2.22045e-16
2.22045e-16
2.22046e-16
2.22061e-16
2.22129e-16
2.22645e-16
2.3103e-16
2.95656e-16
5.85954e-16
1.54315e-15
4.18477e-15
9.4361e-15
1.92065e-14
3.70107e-14
7.00579e-14
1.28188e-13
2.43475e-13
4.51533e-13
8.72915e-13
1.78276e-12
4.13728e-12
1.48909e-11
4.03086e-11
6.26111e-11
1.33675e-10
1.29667e-06
2.2296e-07
4.3011e-07
1.29535e-06
1.48336e-06
1.49041e-06
1.46684e-06
1.42551e-06
1.38362e-06
1.33876e-06
1.29063e-06
1.23934e-06
1.18511e-06
1.12828e-06
1.06922e-06
1.00843e-06
9.46372e-07
8.83642e-07
8.20823e-07
7.58452e-07
6.97059e-07
6.37174e-07
5.79284e-07
5.23814e-07
4.71119e-07
4.21479e-07
3.75092e-07
3.32085e-07
2.92514e-07
2.56368e-07
2.23584e-07
1.94051e-07
1.67621e-07
1.44121e-07
1.23355e-07
1.05121e-07
8.91937e-08
7.53445e-08
6.33648e-08
5.30646e-08
4.42554e-08
3.67581e-08
3.04072e-08
2.50522e-08
2.05572e-08
1.68008e-08
1.36752e-08
1.10858e-08
8.9498e-09
7.1952e-09
5.75995e-09
4.59088e-09
3.64263e-09
2.87676e-09
2.2609e-09
1.76784e-09
1.37489e-09
1.06323e-09
8.17289e-10
6.2425e-10
4.73609e-10
3.5678e-10
2.66785e-10
1.97964e-10
1.45747e-10
1.06458e-10
7.71542e-11
5.54951e-11
3.96222e-11
2.80909e-11
1.97897e-11
1.38636e-11
9.66496e-12
6.71003e-12
4.64236e-12
3.20272e-12
2.20452e-12
1.51481e-12
1.03961e-12
7.12922e-13
4.88723e-13
3.35063e-13
2.2985e-13
1.57841e-13
1.0857e-13
7.48714e-14
5.17888e-14
3.59352e-14
2.50582e-14
1.75986e-14
1.24597e-14
8.90444e-15
6.43028e-15
4.69981e-15
3.48929e-15
2.62825e-15
1.99927e-15
1.53665e-15
1.19782e-15
9.50892e-16
7.70725e-16
6.38418e-16
5.40358e-16
4.66948e-16
4.11479e-16
3.69222e-16
3.36801e-16
3.11773e-16
2.92348e-16
2.77206e-16
2.65361e-16
2.56069e-16
2.48765e-16
2.43016e-16
2.38488e-16
2.3492e-16
2.32106e-16
2.29887e-16
2.2814e-16
2.26764e-16
2.2568e-16
2.24823e-16
2.2414e-16
2.2359e-16
2.2314e-16
2.22763e-16
2.22448e-16
2.22109e-16
2.22045e-16
2.22045e-16
2.22045e-16
2.22045e-16
2.22045e-16
2.22045e-16
2.22045e-16
2.22045e-16
2.22045e-16
2.22045e-16
2.22045e-16
2.22045e-16
2.22045e-16
2.22045e-16
2.22045e-16
2.22045e-16
2.22045e-16
2.22045e-16
2.22045e-16
2.22045e-16
2.22045e-16
2.22045e-16
2.22045e-16
2.22045e-16
2.22045e-16
2.22045e-16
2.22045e-16
2.22045e-16
2.22045e-16
2.22045e-16
2.22045e-16
2.22045e-16
2.22045e-16
2.22045e-16
2.22045e-16
2.23407e-16
2.29231e-16
2.45803e-16
2.78308e-16
3.39857e-16
4.55219e-16
6.79306e-16
1.09751e-15
1.99753e-15
3.85111e-15
8.0687e-15
1.90944e-14
5.03023e-14
1.72252e-13
6.5738e-13
5.19955e-12
7.45683e-12
1.68126e-06
2.50838e-07
2.59674e-07
1.24565e-06
1.54587e-06
1.56944e-06
1.55237e-06
1.51195e-06
1.47056e-06
1.42602e-06
1.37765e-06
1.32539e-06
1.26939e-06
1.20994e-06
1.14744e-06
1.08245e-06
1.01557e-06
9.47527e-07
8.7903e-07
8.10833e-07
7.43649e-07
6.78142e-07
6.14902e-07
5.54437e-07
4.97158e-07
4.43375e-07
3.93306e-07
3.47071e-07
3.04711e-07
2.66189e-07
2.3141e-07
2.00221e-07
1.72436e-07
1.47832e-07
1.26175e-07
1.07217e-07
9.07228e-08
7.64619e-08
6.41954e-08
5.36887e-08
4.47283e-08
3.71219e-08
3.06942e-08
2.52864e-08
2.07561e-08
1.69767e-08
1.38365e-08
1.12378e-08
9.09544e-09
7.33603e-09
5.89659e-09
4.72329e-09
3.7704e-09
2.99932e-09
2.37763e-09
1.87817e-09
1.47839e-09
1.15952e-09
9.06116e-10
7.05464e-10
5.47163e-10
4.2274e-10
3.25308e-10
2.49306e-10
1.90252e-10
1.4455e-10
1.09326e-10
8.22939e-11
6.16399e-11
4.5931e-11
3.40397e-11
2.50827e-11
1.83706e-11
1.33679e-11
9.66056e-12
6.92962e-12
4.93076e-12
3.47781e-12
2.42951e-12
1.67927e-12
1.14698e-12
7.73018e-13
5.13116e-13
3.34644e-13
2.1377e-13
1.33304e-13
8.0605e-14
4.68469e-14
2.59395e-14
1.35989e-14
6.42006e-15
2.6868e-15
1.117e-15
5.23861e-16
3.22471e-16
2.59626e-16
2.40692e-16
2.34245e-16
2.31217e-16
2.29278e-16
2.27831e-16
2.26696e-16
2.25793e-16
2.2507e-16
2.24489e-16
2.2402e-16
2.23641e-16
2.23333e-16
2.23084e-16
2.22882e-16
2.22719e-16
2.22586e-16
2.22478e-16
2.22391e-16
2.22321e-16
2.22264e-16
2.22219e-16
2.22182e-16
2.22153e-16
2.22129e-16
2.22111e-16
2.22096e-16
2.22084e-16
2.22075e-16
2.22067e-16
2.22061e-16
2.22056e-16
2.22051e-16
2.22048e-16
2.22046e-16
2.22045e-16
2.22045e-16
2.22045e-16
2.22045e-16
2.22045e-16
2.22045e-16
2.22045e-16
2.22045e-16
2.22045e-16
2.22045e-16
2.22045e-16
2.22045e-16
2.22045e-16
2.22045e-16
2.22045e-16
2.22045e-16
2.22045e-16
2.22045e-16
2.22045e-16
2.22045e-16
2.22045e-16
2.22045e-16
2.22045e-16
2.22045e-16
2.22045e-16
2.22045e-16
2.22071e-16
2.22178e-16
2.22478e-16
2.23227e-16
2.25061e-16
2.29506e-16
2.40065e-16
2.64367e-16
3.18458e-16
4.3683e-16
7.01224e-16
1.3234e-15
2.88162e-15
7.01645e-15
1.85257e-14
5.18157e-14
1.50813e-13
4.50537e-13
1.33562e-12
3.82186e-12
9.30076e-12
2.39024e-11
2.24466e-11
9.99939e-12
2.2433e-06
3.33487e-07
1.79104e-07
1.29551e-06
1.66542e-06
1.70335e-06
1.6914e-06
1.65317e-06
1.61191e-06
1.56699e-06
1.51706e-06
1.46189e-06
1.40157e-06
1.33645e-06
1.26705e-06
1.19412e-06
1.11851e-06
1.04118e-06
9.63143e-07
8.85394e-07
8.08879e-07
7.3446e-07
6.62886e-07
5.94774e-07
5.30605e-07
4.70723e-07
4.1534e-07
3.64551e-07
3.18347e-07
2.76633e-07
2.39241e-07
2.05949e-07
1.76499e-07
1.50604e-07
1.27969e-07
1.08292e-07
9.12747e-08
7.66273e-08
6.4092e-08
5.34086e-08
4.43447e-08
3.66882e-08
3.02476e-08
2.48517e-08
2.0349e-08
1.66062e-08
1.35066e-08
1.09493e-08
8.8469e-09
7.12473e-09
5.71898e-09
4.57552e-09
3.64862e-09
2.89985e-09
2.29704e-09
1.81339e-09
1.42668e-09
1.11854e-09
8.73848e-10
6.80225e-10
5.2755e-10
4.07593e-10
3.13685e-10
2.40446e-10
1.83543e-10
1.39504e-10
1.05557e-10
7.94995e-11
5.95831e-11
4.44285e-11
3.29508e-11
2.43003e-11
1.78135e-11
1.29752e-11
9.38668e-12
6.74087e-12
4.80246e-12
3.39195e-12
2.37308e-12
1.64297e-12
1.12428e-12
7.59306e-13
5.05224e-13
3.3041e-13
2.11757e-13
1.32569e-13
8.05495e-14
4.70991e-14
2.62874e-14
1.39171e-14
6.72194e-15
2.84175e-15
1.17568e-15
5.32791e-16
3.12545e-16
2.45703e-16
2.27657e-16
2.23288e-16
2.22328e-16
2.22131e-16
2.22089e-16
2.22077e-16
2.22071e-16
2.22067e-16
2.22063e-16
2.2206e-16
2.22057e-16
2.22055e-16
2.22053e-16
2.22052e-16
2.2205e-16
2.22049e-16
2.22048e-16
2.22048e-16
2.22047e-16
2.22047e-16
2.22046e-16
2.22046e-16
2.22046e-16
2.22045e-16
2.22045e-16
2.22045e-16
2.22045e-16
2.22045e-16
2.22045e-16
2.22045e-16
2.22045e-16
2.22045e-16
2.22045e-16
2.22045e-16
2.22045e-16
2.22045e-16
2.22045e-16
2.22045e-16
2.22045e-16
2.22045e-16
2.22045e-16
2.22045e-16
2.22045e-16
2.22045e-16
2.22045e-16
2.22045e-16
2.22045e-16
2.22045e-16
2.22045e-16
2.22045e-16
2.22045e-16
2.22045e-16
2.22045e-16
2.22045e-16
2.22045e-16
2.22045e-16
2.22045e-16
2.22045e-16
2.22045e-16
2.22045e-16
2.22045e-16
2.22288e-16
2.2314e-16
2.25244e-16
2.29746e-16
2.38826e-16
2.56146e-16
2.90616e-16
3.5639e-16
4.83199e-16
7.48429e-16
1.33863e-15
2.74496e-15
6.31361e-15
1.58406e-14
4.22338e-14
1.16697e-13
3.28058e-13
8.9832e-13
2.3424e-12
6.03087e-12
1.08193e-11
9.97101e-12
3.76909e-12
3.04255e-06
4.62058e-07
1.5468e-07
1.39712e-06
1.82502e-06
1.8794e-06
1.87469e-06
1.84243e-06
1.80384e-06
1.76052e-06
1.71011e-06
1.65211e-06
1.58652e-06
1.51378e-06
1.43465e-06
1.35024e-06
1.26183e-06
1.17088e-06
1.07883e-06
9.87136e-07
8.97112e-07
8.09923e-07
7.26539e-07
6.47724e-07
5.74035e-07
5.05833e-07
4.43301e-07
3.86466e-07
3.35232e-07
2.89396e-07
2.48678e-07
2.12744e-07
1.81229e-07
1.5375e-07
1.29924e-07
1.09369e-07
9.17112e-08
7.66413e-08
6.38224e-08
5.29654e-08
4.38081e-08
3.6115e-08
2.96765e-08
2.43082e-08
1.98481e-08
1.61557e-08
1.31094e-08
1.06046e-08
8.55186e-09
6.87519e-09
5.51011e-09
4.4023e-09
3.50619e-09
2.78367e-09
2.20296e-09
1.73774e-09
1.36625e-09
1.07056e-09
8.35997e-10
6.50537e-10
5.04402e-10
3.8965e-10
2.99858e-10
2.29853e-10
1.75474e-10
1.33394e-10
1.0096e-10
7.60625e-11
5.70308e-11
4.25466e-11
3.15736e-11
2.33003e-11
1.70937e-11
1.24618e-11
9.0242e-12
6.48787e-12
4.62814e-12
3.27361e-12
2.29413e-12
1.59136e-12
1.09139e-12
7.39024e-13
4.93247e-13
3.23768e-13
2.08439e-13
1.31216e-13
8.02951e-14
4.73804e-14
2.67768e-14
1.43965e-14
7.18788e-15
3.09867e-15
1.30029e-15
5.84841e-16
3.31184e-16
2.51439e-16
2.29164e-16
2.23605e-16
2.22356e-16
2.22102e-16
2.22054e-16
2.22046e-16
2.22045e-16
2.22045e-16
2.22045e-16
2.22045e-16
2.22045e-16
2.22045e-16
2.22045e-16
2.22045e-16
2.22045e-16
2.22045e-16
2.22045e-16
2.22045e-16
2.22045e-16
2.22045e-16
2.22045e-16
2.22045e-16
2.22045e-16
2.22045e-16
2.22045e-16
2.22045e-16
2.22045e-16
2.22045e-16
2.22045e-16
2.22045e-16
2.22045e-16
2.22045e-16
2.22045e-16
2.22045e-16
2.22045e-16
2.22045e-16
2.22045e-16
2.22045e-16
2.22045e-16
2.22045e-16
2.22045e-16
2.22045e-16
2.22045e-16
2.22045e-16
2.22045e-16
2.22045e-16
2.22045e-16
2.22045e-16
2.22045e-16
2.22045e-16
2.22045e-16
2.22045e-16
2.22045e-16
2.22045e-16
2.22045e-16
2.22045e-16
2.22045e-16
2.22045e-16
2.22045e-16
2.22045e-16
2.22045e-16
2.22157e-16
2.22776e-16
2.24486e-16
2.28268e-16
2.35979e-16
2.5078e-16
2.7992e-16
3.36578e-16
4.44105e-16
6.65789e-16
1.14803e-15
2.26848e-15
5.0372e-15
1.22031e-14
3.12832e-14
8.22787e-14
2.16404e-13
5.43399e-13
1.28224e-12
3.21981e-12
3.44689e-12
2.22022e-12
6.81018e-13
4.16476e-06
6.49291e-07
1.54773e-07
1.52922e-06
2.03101e-06
2.11169e-06
2.12084e-06
2.10203e-06
2.07132e-06
2.03358e-06
1.98497e-06
1.92443e-06
1.85188e-06
1.768e-06
1.67411e-06
1.57202e-06
1.46389e-06
1.35201e-06
1.23868e-06
1.12606e-06
1.01604e-06
9.10259e-07
8.09964e-07
7.16087e-07
6.2924e-07
5.49744e-07
4.77683e-07
4.12943e-07
3.5525e-07
3.04216e-07
2.59381e-07
2.20238e-07
1.86268e-07
1.56946e-07
1.31762e-07
1.10204e-07
9.18906e-08
7.63736e-08
6.32752e-08
5.2262e-08
4.30357e-08
3.53334e-08
2.8925e-08
2.36106e-08
1.92174e-08
1.55971e-08
1.26229e-08
1.01868e-08
8.19733e-09
6.57752e-09
5.26256e-09
4.19819e-09
3.33921e-09
2.64804e-09
2.09355e-09
1.65005e-09
1.2964e-09
1.01526e-09
7.92466e-10
6.16466e-10
4.77882e-10
3.69123e-10
2.8406e-10
2.17761e-10
1.66272e-10
1.26434e-10
9.57265e-11
7.21512e-11
5.41268e-11
4.04056e-11
3.00068e-11
2.21626e-11
1.62744e-11
1.18772e-11
8.61126e-12
6.19942e-12
4.4292e-12
3.13839e-12
2.20376e-12
1.53219e-12
1.05361e-12
7.15659e-13
4.79408e-13
3.16061e-13
2.04569e-13
1.29621e-13
7.99891e-14
4.7701e-14
2.7352e-14
1.49777e-14
7.74166e-15
3.47528e-15
1.48293e-15
6.6237e-16
3.59884e-16
2.60725e-16
2.31807e-16
2.24271e-16
2.22506e-16
2.22132e-16
2.2206e-16
2.22047e-16
2.22045e-16
2.22045e-16
2.22045e-16
2.22045e-16
2.22045e-16
2.22045e-16
2.22045e-16
2.22045e-16
2.22045e-16
2.22045e-16
2.22045e-16
2.22045e-16
2.22045e-16
2.22045e-16
2.22045e-16
2.22045e-16
2.22045e-16
2.22045e-16
2.22045e-16
2.22045e-16
2.22045e-16
2.22045e-16
2.22045e-16
2.22045e-16
2.22045e-16
2.22045e-16
2.22045e-16
2.22045e-16
2.22045e-16
2.22045e-16
2.22045e-16
2.22045e-16
2.22045e-16
2.22045e-16
2.22045e-16
2.22045e-16
2.22045e-16
2.22045e-16
2.22045e-16
2.22045e-16
2.22045e-16
2.22045e-16
2.22045e-16
2.22045e-16
2.22045e-16
2.22045e-16
2.22045e-16
2.22045e-16
2.22045e-16
2.22045e-16
2.22045e-16
2.22045e-16
2.22045e-16
2.22045e-16
2.22045e-16
2.22047e-16
2.2243e-16
2.23669e-16
2.26593e-16
2.32707e-16
2.44861e-16
2.67938e-16
3.13897e-16
4.01756e-16
5.77659e-16
9.51161e-16
1.7953e-15
3.81349e-15
8.83969e-15
2.16026e-14
5.36193e-14
1.3062e-13
2.95747e-13
7.86351e-13
1.038e-12
8.08806e-13
3.17172e-13
9.53928e-14
5.73391e-06
9.16563e-07
1.75958e-07
1.6921e-06
2.29508e-06
2.42005e-06
2.45887e-06
2.46579e-06
2.45607e-06
2.43222e-06
2.39028e-06
2.32799e-06
2.24532e-06
2.14367e-06
2.02562e-06
1.89456e-06
1.75433e-06
1.6089e-06
1.46202e-06
1.31705e-06
1.17679e-06
1.04347e-06
9.1869e-07
8.03495e-07
6.9844e-07
6.03675e-07
5.19029e-07
4.44077e-07
3.78222e-07
3.20767e-07
2.70963e-07
2.28043e-07
1.91254e-07
1.59861e-07
1.33135e-07
1.10599e-07
9.16161e-08
7.56737e-08
6.23351e-08
5.12113e-08
4.1963e-08
3.42965e-08
2.79594e-08
2.27356e-08
1.8441e-08
1.49199e-08
1.20404e-08
9.69187e-09
7.7812e-09
6.23089e-09
4.97623e-09
3.96349e-09
3.14819e-09
2.4936e-09
1.96947e-09
1.55096e-09
1.21772e-09
9.53133e-10
7.43674e-10
5.78353e-10
4.48271e-10
3.46237e-10
2.66468e-10
2.0431e-10
1.56045e-10
1.18702e-10
8.99158e-11
6.78111e-11
5.0906e-11
3.80313e-11
2.82688e-11
2.09001e-11
1.53649e-11
1.12279e-11
8.15231e-12
5.87856e-12
4.20765e-12
2.98758e-12
2.10281e-12
1.46596e-12
1.01121e-12
6.8937e-13
4.63785e-13
3.07326e-13
2.00157e-13
1.27794e-13
7.96313e-14
4.80718e-14
2.80044e-14
1.56883e-14
8.32635e-15
3.96111e-15
1.75251e-15
7.94654e-16
4.15421e-16
2.80599e-16
2.37926e-16
2.25914e-16
2.22896e-16
2.22215e-16
2.22076e-16
2.2205e-16
2.22045e-16
2.22045e-16
2.22045e-16
2.22045e-16
2.22045e-16
2.22045e-16
2.22045e-16
2.22045e-16
2.22045e-16
2.22045e-16
2.22045e-16
2.22045e-16
2.22045e-16
2.22045e-16
2.22045e-16
2.22045e-16
2.22045e-16
2.22045e-16
2.22045e-16
2.22045e-16
2.22045e-16
2.22045e-16
2.22045e-16
2.22045e-16
2.22045e-16
2.22045e-16
2.22045e-16
2.22045e-16
2.22045e-16
2.22045e-16
2.22045e-16
2.22045e-16
2.22045e-16
2.22045e-16
2.22045e-16
2.22045e-16
2.22045e-16
2.22045e-16
2.22045e-16
2.22045e-16
2.22045e-16
2.22045e-16
2.22045e-16
2.22045e-16
2.22045e-16
2.22045e-16
2.22045e-16
2.22045e-16
2.22045e-16
2.22045e-16
2.22045e-16
2.22045e-16
2.22045e-16
2.22045e-16
2.22045e-16
2.22045e-16
2.22139e-16
2.22848e-16
2.24868e-16
2.2934e-16
2.38438e-16
2.56043e-16
2.90157e-16
3.57824e-16
4.88671e-16
7.60083e-16
1.35117e-15
2.70458e-15
5.91303e-15
1.35819e-14
3.13289e-14
6.93737e-14
1.59085e-13
2.81405e-13
2.16608e-13
9.34048e-14
3.18761e-14
9.46111e-15
7.92677e-06
1.28824e-06
2.18933e-07
1.89172e-06
2.63946e-06
2.84309e-06
2.94376e-06
3.00591e-06
3.04189e-06
3.0506e-06
3.02597e-06
2.96156e-06
2.86052e-06
2.72609e-06
2.56391e-06
2.38097e-06
2.18468e-06
1.98221e-06
1.77989e-06
1.58301e-06
1.39563e-06
1.22065e-06
1.0599e-06
9.14266e-07
7.8397e-07
6.6864e-07
5.67502e-07
4.79525e-07
4.03548e-07
3.38355e-07
2.82737e-07
2.3553e-07
1.95598e-07
1.61883e-07
1.33759e-07
1.1025e-07
9.0648e-08
7.43614e-08
6.08669e-08
4.97139e-08
4.05182e-08
3.29536e-08
2.67446e-08
2.16594e-08
1.75035e-08
1.41144e-08
1.13564e-08
9.11688e-09
7.30224e-09
5.83513e-09
4.65162e-09
3.69905e-09
2.93414e-09
2.32137e-09
1.83167e-09
1.44131e-09
1.13094e-09
8.84801e-10
6.90142e-10
5.36627e-10
4.15909e-10
3.21266e-10
2.47297e-10
1.89669e-10
1.44923e-10
1.10299e-10
8.36036e-11
6.3098e-11
4.74085e-11
3.5453e-11
2.63816e-11
1.9529e-11
1.43766e-11
1.05217e-11
7.65261e-12
5.5288e-12
3.96581e-12
2.82268e-12
1.9922e-12
1.3932e-12
9.64509e-13
6.60298e-13
4.46431e-13
2.97575e-13
1.95191e-13
1.2572e-13
7.91977e-14
4.84817e-14
2.87481e-14
1.6515e-14
9.01191e-15
4.54753e-15
2.09036e-15
9.72707e-16
4.97784e-16
3.13527e-16
2.49318e-16
2.29352e-16
2.2381e-16
2.22431e-16
2.22122e-16
2.22059e-16
2.22047e-16
2.22045e-16
2.22045e-16
2.22045e-16
2.22045e-16
2.22045e-16
2.22045e-16
2.22045e-16
2.22045e-16
2.22045e-16
2.22045e-16
2.22045e-16
2.22045e-16
2.22045e-16
2.22045e-16
2.22045e-16
2.22045e-16
2.22045e-16
2.22045e-16
2.22045e-16
2.22045e-16
2.22045e-16
2.22045e-16
2.22045e-16
2.22045e-16
2.22045e-16
2.22045e-16
2.22045e-16
2.22045e-16
2.22045e-16
2.22045e-16
2.22045e-16
2.22045e-16
2.22045e-16
2.22045e-16
2.22045e-16
2.22045e-16
2.22045e-16
2.22045e-16
2.22045e-16
2.22045e-16
2.22045e-16
2.22045e-16
2.22045e-16
2.22045e-16
2.22045e-16
2.22045e-16
2.22045e-16
2.22045e-16
2.22045e-16
2.22045e-16
2.22045e-16
2.22045e-16
2.22045e-16
2.22045e-16
2.22045e-16
2.22045e-16
2.22239e-16
2.23263e-16
2.26022e-16
2.32022e-16
2.44141e-16
2.67456e-16
3.12944e-16
4.03409e-16
5.82059e-16
9.54388e-16
1.76019e-15
3.54342e-15
7.4738e-15
1.55351e-14
3.47783e-14
5.71865e-14
5.05716e-14
2.49722e-14
8.78833e-15
2.71351e-15
9.80285e-16
1.09785e-05
1.78941e-06
3.13367e-07
2.19178e-06
3.12878e-06
3.47527e-06
3.70274e-06
3.88745e-06
4.02424e-06
4.10234e-06
4.11047e-06
4.04208e-06
3.89539e-06
3.68936e-06
3.43612e-06
3.15084e-06
2.84857e-06
2.54262e-06
2.24378e-06
1.96004e-06
1.69684e-06
1.45736e-06
1.2429e-06
1.05346e-06
8.88079e-07
7.45125e-07
6.22575e-07
5.18256e-07
4.30022e-07
3.55794e-07
2.93628e-07
2.41659e-07
1.98327e-07
1.62667e-07
1.33147e-07
1.08774e-07
8.87136e-08
7.22357e-08
5.87254e-08
4.76669e-08
3.86297e-08
3.12558e-08
2.52484e-08
2.03615e-08
1.63924e-08
1.31736e-08
1.05675e-08
8.46086e-09
6.76086e-09
5.39144e-09
4.2903e-09
3.40655e-09
2.69867e-09
2.13281e-09
1.68146e-09
1.32224e-09
1.037e-09
8.11045e-10
6.32506e-10
4.91796e-10
3.81205e-10
2.94528e-10
2.26795e-10
1.74029e-10
1.33052e-10
1.01337e-10
7.68744e-11
5.80749e-11
4.36822e-11
3.27064e-11
2.43705e-11
1.80674e-11
1.33227e-11
9.76821e-12
7.11886e-12
5.15472e-12
3.70677e-12
2.64576e-12
1.8733e-12
1.31481e-12
9.14036e-13
6.28774e-13
4.27538e-13
2.86913e-13
1.89736e-13
1.23421e-13
7.8702e-14
4.89204e-14
2.95464e-14
1.74735e-14
9.82351e-15
5.2461e-15
2.62442e-15
1.29157e-15
6.63266e-16
3.8695e-16
2.77258e-16
2.38564e-16
2.26472e-16
2.23113e-16
2.22278e-16
2.22091e-16
2.22053e-16
2.22046e-16
2.22045e-16
2.22045e-16
2.22045e-16
2.22045e-16
2.22045e-16
2.22045e-16
2.22045e-16
2.22045e-16
2.22045e-16
2.22045e-16
2.22045e-16
2.22045e-16
2.22045e-16
2.22045e-16
2.22045e-16
2.22045e-16