/*--------------------------------*- C++ -*----------------------------------*\
  =========                 |
  \\      /  F ield         | OpenFOAM: The Open Source CFD Toolbox
   \\    /   O peration     | Website:  https://openfoam.org
    \\  /    A nd           | Version:  7
     \\/     M anipulation  |
\*---------------------------------------------------------------------------*/
FoamFile
{
    version     2.0;
    format      ascii;
    class       volScalarField;
    location    "0.002";
    object      p;
}
// * * * * * * * * * * * * * * * * * * * * * * * * * * * * * * * * * * * * * //

dimensions      [0 2 -2 0 0 0 0];

internalField   nonuniform List<scalar> 
12225
(
-58.8977
-62.275
-64.7443
-66.2514
-66.9363
-67.0825
-66.9799
-66.7975
-66.5721
-66.3398
-66.1252
-65.9589
-65.9233
-65.9945
-66.0263
-66.5072
-67.2935
-68.9452
-58.3331
-62.3421
-64.799
-66.272
-66.9492
-67.0924
-66.9858
-66.8021
-66.5775
-66.3361
-66.1251
-65.9577
-65.9062
-65.9672
-66.0276
-66.3687
-67.1999
-67.9714
-58.2953
-62.5614
-64.9476
-66.3356
-66.9776
-67.1089
-66.999
-66.8129
-66.5846
-66.3373
-66.1179
-65.9499
-65.8759
-65.9188
-65.9817
-66.2634
-66.8313
-67.452
-58.2684
-62.8529
-65.1623
-66.4461
-67.0386
-67.1482
-67.0263
-66.8302
-66.5942
-66.3373
-66.1076
-65.9334
-65.8423
-65.8512
-65.9095
-66.0935
-66.5196
-67.01
-59.0542
-63.3318
-65.4856
-66.6326
-67.145
-67.2163
-67.0681
-66.8562
-66.6082
-66.3371
-66.0955
-65.911
-65.7954
-65.7708
-65.8029
-65.9175
-66.2003
-66.5288
-59.692
-63.9991
-65.9216
-66.8893
-67.2928
-67.3046
-67.1257
-66.8907
-66.624
-66.3383
-66.0787
-65.8766
-65.7407
-65.6771
-65.6662
-65.7141
-65.8707
-66.0697
-61.8623
-64.9064
-66.4821
-67.231
-67.4952
-67.4289
-67.2008
-66.9348
-66.6451
-66.3375
-66.0574
-65.8364
-65.6717
-65.5655
-65.5098
-65.4944
-65.5419
-65.6161
-63.9844
-66.0413
-67.1776
-67.6561
-67.7446
-67.5729
-67.2904
-66.9867
-66.6678
-66.336
-66.0323
-65.7843
-65.5902
-65.4437
-65.3345
-65.2542
-65.2121
-65.1845
-64.7699
-67.3154
-68.0103
-68.1665
-68.0531
-67.7613
-67.4023
-67.0493
-66.6939
-66.3317
-65.9996
-65.7237
-65.4968
-65.3059
-65.1455
-65.0078
-64.8879
-64.7675
-68.0968
-68.9249
-68.9836
-68.7645
-68.4131
-67.9744
-67.528
-67.1182
-66.7213
-66.3249
-65.9615
-65.6535
-65.3908
-65.1584
-64.9484
-64.7527
-64.5653
-64.3733
-71.6273
-70.8041
-70.0752
-69.4263
-68.8121
-68.2132
-67.6654
-67.1894
-66.7455
-66.3112
-65.9135
-65.5721
-65.2738
-65
-64.7427
-64.4965
-64.2537
-64.0012
-74.637
-72.6109
-71.1572
-70.0781
-69.2042
-68.4428
-67.7941
-67.2531
-66.7636
-66.2924
-65.8616
-65.4883
-65.157
-64.8472
-64.5509
-64.2631
-63.9763
-63.68
-78.1769
-74.4209
-72.2179
-70.7196
-69.5932
-68.6741
-67.9228
-67.3136
-66.7752
-66.2649
-65.8002
-65.3954
-65.0326
-64.6896
-64.3578
-64.0337
-63.711
-63.38
-81.4015
-76.3914
-73.3936
-71.4292
-70.0206
-68.9226
-68.0544
-67.368
-66.7745
-66.2202
-65.7172
-65.2774
-64.8804
-64.5025
-64.1353
-63.7762
-63.4197
-63.0581
-83.4738
-77.9539
-74.4028
-72.0698
-70.4044
-69.1392
-68.1561
-67.391
-66.7404
-66.1405
-65.5982
-65.1228
-64.6919
-64.2806
-63.8807
-63.4905
-63.1061
-62.721
-85.5447
-79.2928
-75.1914
-72.5265
-70.6424
-69.233
-68.159
-67.3312
-66.6355
-65.9992
-65.4243
-64.9184
-64.4581
-64.0185
-63.5918
-63.1776
-62.7727
-62.3718
-85.7603
-78.9584
-74.89
-72.3148
-70.4653
-69.0594
-67.9786
-67.1395
-66.4263
-65.7691
-65.1729
-64.6464
-64.1663
-63.7078
-63.2641
-62.8357
-62.42
-62.0128
-79.3887
-75.7532
-73.1376
-71.1846
-69.691
-68.4633
-67.4684
-66.6842
-66.008
-65.3735
-64.7898
-64.269
-63.7905
-63.3315
-62.887
-62.4587
-62.045
-61.6426
-70.7556
-70.6367
-69.9009
-68.9955
-68.1019
-67.2597
-66.5383
-65.9265
-65.3608
-64.7998
-64.2661
-63.7798
-63.3259
-62.886
-62.4577
-62.0445
-61.646
-61.2596
-66.9569
-67.3481
-67.3066
-67.041
-66.6155
-66.0969
-65.5807
-65.1233
-64.6718
-64.1967
-63.7297
-63.2955
-62.883
-62.477
-62.0774
-61.6894
-61.3136
-60.9483
-61.7468
-64.8444
-65.5518
-65.6467
-65.4801
-65.1628
-64.8175
-64.4895
-64.1363
-63.7356
-63.3255
-62.9356
-62.5583
-62.1811
-61.8059
-61.439
-61.0819
-60.7338
-66.2028
-64.5246
-64.5112
-64.6234
-64.6027
-64.4349
-64.2126
-63.9808
-63.7035
-63.3626
-62.9997
-62.6476
-62.3011
-61.9493
-61.5955
-61.2471
-60.9063
-60.5728
-63.131
-63.4697
-63.6896
-63.9015
-63.9877
-63.9072
-63.7587
-63.5969
-63.3765
-63.0796
-62.7519
-62.429
-62.1067
-61.7749
-61.4381
-61.1044
-60.7766
-60.4545
-63.745
-62.4949
-62.8296
-63.2177
-63.4385
-63.4712
-63.4115
-63.3093
-63.1321
-62.8679
-62.567
-62.2668
-61.9633
-61.647
-61.3233
-61.001
-60.6829
-60.3695
-59.457
-61.1637
-62.2095
-62.8097
-63.1126
-63.1904
-63.1674
-63.1043
-62.9568
-62.7156
-62.4345
-62.1511
-61.8613
-61.5564
-61.2423
-60.9282
-60.6174
-60.3102
-56.4888
-59.966
-61.58
-62.3944
-62.7917
-62.9455
-62.9809
-62.9534
-62.8303
-62.608
-62.3424
-62.0715
-61.7915
-61.4945
-61.1873
-60.879
-60.5731
-60.2703
-55.3653
-59.594
-61.3681
-62.2296
-62.6338
-62.8032
-62.8722
-62.8663
-62.7545
-62.5418
-62.2852
-62.0214
-61.7471
-61.4549
-61.152
-60.8474
-60.5448
-60.2448
-56.25
-59.4262
-61.1693
-62.0461
-62.4786
-62.6961
-62.7951
-62.8053
-62.7033
-62.499
-62.2496
-61.9908
-61.72
-61.4311
-61.1309
-60.8287
-60.528
-60.2297
-58.0382
-59.6628
-61.1809
-61.9758
-62.4122
-62.6465
-62.7626
-62.7811
-62.6827
-62.4818
-62.2349
-61.977
-61.7068
-61.4191
-61.1204
-60.8193
-60.5195
-60.2219
-58.6325
-59.7901
-61.1703
-61.9128
-62.3623
-62.6175
-62.7483
-62.7746
-62.678
-62.4782
-62.2322
-61.9739
-61.7029
-61.4151
-61.117
-60.8163
-60.5167
-60.2192
-51.8482
-51.839
-51.8251
-51.8052
-51.7794
-51.7478
-51.7103
-51.6671
-51.6185
-51.5645
-51.5054
-51.4415
-51.3731
-51.3004
-51.2238
-51.1436
-51.06
-50.9736
-50.8845
-50.793
-50.6995
-50.6041
-50.5072
-50.409
-50.3095
-50.2091
-50.1078
-50.0058
-49.9031
-49.7998
-49.6959
-49.5915
-49.4866
-49.3811
-49.2751
-49.1685
-49.0612
-48.9533
-48.8446
-48.7351
-48.6247
-48.5134
-48.4011
-48.2878
-48.1733
-48.0576
-47.9406
-47.8224
-47.7027
-47.5816
-47.4591
-47.335
-47.2093
-47.0821
-46.9532
-46.8226
-46.6903
-46.5563
-46.4205
-46.283
-46.1436
-46.0025
-45.8595
-45.7147
-45.5681
-45.4196
-45.2692
-45.117
-44.9629
-44.8069
-44.6491
-44.4894
-44.3279
-44.1644
-43.9991
-43.832
-43.6629
-43.492
-43.3193
-43.1447
-42.9682
-42.7899
-42.6097
-42.4277
-42.2438
-42.0581
-41.8706
-41.6812
-41.49
-41.297
-41.1021
-40.9054
-40.7068
-40.5063
-40.3041
-40.0999
-39.894
-39.6862
-39.4766
-39.2651
-39.0518
-38.8366
-38.6196
-38.4007
-38.1799
-37.9573
-37.7328
-37.5065
-37.2783
-37.0482
-36.8162
-36.5823
-36.3465
-36.1088
-35.8691
-35.6275
-35.3839
-35.1383
-34.8908
-34.6413
-34.3898
-34.1363
-33.8807
-33.6231
-33.3635
-33.1018
-32.8381
-32.5723
-32.3044
-32.0344
-31.7623
-31.4881
-31.2117
-30.9331
-30.6524
-30.3694
-30.0842
-29.7968
-29.5071
-29.2152
-28.921
-28.6244
-28.3255
-28.0243
-27.7207
-27.4147
-27.1063
-26.7955
-26.4823
-26.1666
-25.8485
-25.5279
-25.2048
-24.8792
-24.551
-24.2203
-23.8869
-23.551
-23.2124
-22.8712
-22.5272
-22.1805
-21.831
-21.4786
-21.1234
-20.7652
-20.404
-20.0396
-19.672
-19.3008
-18.926
-18.5472
-18.1638
-17.7754
-17.3806
-16.9778
-16.5641
-16.1301
-15.6758
-15.1464
-51.8898
-51.8806
-51.8662
-51.8458
-51.8193
-51.7868
-51.7483
-51.7041
-51.6542
-51.5989
-51.5384
-51.4731
-51.4032
-51.329
-51.2509
-51.1691
-51.0842
-50.9963
-50.9058
-50.813
-50.7182
-50.6217
-50.5237
-50.4244
-50.324
-50.2227
-50.1206
-50.0178
-49.9144
-49.8104
-49.706
-49.601
-49.4956
-49.3897
-49.2832
-49.1762
-49.0686
-48.9603
-48.8513
-48.7415
-48.6309
-48.5193
-48.4068
-48.2932
-48.1784
-48.0625
-47.9454
-47.8269
-47.707
-47.5858
-47.463
-47.3388
-47.213
-47.0856
-46.9565
-46.8258
-46.6933
-46.5592
-46.4233
-46.2856
-46.1461
-46.0049
-45.8618
-45.7169
-45.5701
-45.4215
-45.2711
-45.1187
-44.9646
-44.8085
-44.6506
-44.4909
-44.3292
-44.1657
-44.0004
-43.8331
-43.664
-43.4931
-43.3203
-43.1456
-42.9691
-42.7907
-42.6105
-42.4285
-42.2446
-42.0588
-41.8713
-41.6818
-41.4906
-41.2975
-41.1026
-40.9059
-40.7073
-40.5068
-40.3045
-40.1004
-39.8945
-39.6867
-39.477
-39.2655
-39.0522
-38.837
-38.6199
-38.401
-38.1803
-37.9576
-37.7332
-37.5068
-37.2786
-37.0485
-36.8165
-36.5826
-36.3467
-36.109
-35.8693
-35.6277
-35.3841
-35.1385
-34.891
-34.6415
-34.39
-34.1364
-33.8809
-33.6233
-33.3636
-33.102
-32.8382
-32.5724
-32.3046
-32.0346
-31.7625
-31.4882
-31.2118
-30.9332
-30.6525
-30.3695
-30.0843
-29.7969
-29.5073
-29.2153
-28.9211
-28.6245
-28.3256
-28.0244
-27.7208
-27.4148
-27.1064
-26.7956
-26.4824
-26.1667
-25.8486
-25.528
-25.2049
-24.8793
-24.5511
-24.2204
-23.8871
-23.5511
-23.2125
-22.8713
-22.5273
-22.1806
-21.8311
-21.4788
-21.1236
-20.7654
-20.4042
-20.0399
-19.6723
-19.3012
-18.9265
-18.5477
-18.1646
-17.7764
-17.382
-16.9803
-16.568
-16.1432
-15.7033
-15.2561
-51.9735
-51.9639
-51.9487
-51.9272
-51.8993
-51.8651
-51.8246
-51.7781
-51.7257
-51.6677
-51.6044
-51.5361
-51.4632
-51.3859
-51.3047
-51.22
-51.132
-51.0412
-50.948
-50.8525
-50.7552
-50.6563
-50.5561
-50.4547
-50.3524
-50.2493
-50.1455
-50.0412
-49.9364
-49.8312
-49.7255
-49.6195
-49.5131
-49.4062
-49.2989
-49.1911
-49.0828
-48.9738
-48.8642
-48.7538
-48.6426
-48.5305
-48.4174
-48.3034
-48.1882
-48.0718
-47.9543
-47.8354
-47.7152
-47.5935
-47.4705
-47.3459
-47.2197
-47.092
-46.9626
-46.8316
-46.6989
-46.5645
-46.4284
-46.2904
-46.1507
-46.0092
-45.8659
-45.7208
-45.5738
-45.425
-45.2744
-45.1219
-44.9676
-44.8114
-44.6533
-44.4934
-44.3316
-44.168
-44.0025
-43.8352
-43.666
-43.4949
-43.322
-43.1472
-42.9706
-42.7922
-42.6119
-42.4297
-42.2458
-42.06
-41.8723
-41.6828
-41.4915
-41.2984
-41.1035
-40.9066
-40.708
-40.5075
-40.3051
-40.101
-39.895
-39.6871
-39.4775
-39.2659
-39.0526
-38.8373
-38.6203
-38.4013
-38.1806
-37.9579
-37.7334
-37.5071
-37.2788
-37.0487
-36.8167
-36.5828
-36.3469
-36.1092
-35.8695
-35.6278
-35.3842
-35.1387
-34.8912
-34.6416
-34.3901
-34.1366
-33.881
-33.6234
-33.3637
-33.1021
-32.8383
-32.5725
-32.3047
-32.0347
-31.7625
-31.4883
-31.2119
-30.9333
-30.6526
-30.3696
-30.0844
-29.797
-29.5073
-29.2154
-28.9211
-28.6246
-28.3257
-28.0244
-27.7208
-27.4148
-27.1064
-26.7956
-26.4824
-26.1668
-25.8486
-25.528
-25.2049
-24.8793
-24.5511
-24.2204
-23.8871
-23.5512
-23.2126
-22.8713
-22.5274
-22.1807
-21.8312
-21.4789
-21.1237
-20.7656
-20.4044
-20.0401
-19.6726
-19.3016
-18.927
-18.5485
-18.1656
-17.7778
-17.3841
-16.9838
-16.5742
-16.1561
-15.7253
-15.293
-52.1003
-52.0901
-52.0738
-52.0506
-52.0205
-51.9835
-51.9399
-51.8898
-51.8336
-51.7714
-51.7037
-51.6308
-51.5531
-51.4711
-51.3852
-51.2958
-51.2033
-51.1081
-51.0106
-50.9111
-50.81
-50.7075
-50.6039
-50.4994
-50.3942
-50.2884
-50.1822
-50.0756
-49.9687
-49.8615
-49.7541
-49.6465
-49.5386
-49.4303
-49.3218
-49.2128
-49.1034
-48.9934
-48.8828
-48.7716
-48.6595
-48.5467
-48.4329
-48.3181
-48.2023
-48.0853
-47.9671
-47.8477
-47.7269
-47.6047
-47.4811
-47.3561
-47.2294
-47.1013
-46.9715
-46.84
-46.7069
-46.5721
-46.4356
-46.2973
-46.1573
-46.0155
-45.8718
-45.7264
-45.5792
-45.4301
-45.2792
-45.1265
-44.9719
-44.8154
-44.6572
-44.4971
-44.3351
-44.1713
-44.0056
-43.8381
-43.6687
-43.4975
-43.3244
-43.1495
-42.9728
-42.7942
-42.6138
-42.4316
-42.2475
-42.0616
-41.8738
-41.6842
-41.4929
-41.2997
-41.1046
-40.9077
-40.709
-40.5085
-40.3061
-40.1018
-39.8958
-39.6879
-39.4782
-39.2666
-39.0532
-38.8379
-38.6208
-38.4019
-38.1811
-37.9584
-37.7339
-37.5075
-37.2792
-37.0491
-36.8171
-36.5831
-36.3473
-36.1095
-35.8698
-35.6281
-35.3845
-35.1389
-34.8914
-34.6418
-34.3903
-34.1367
-33.8812
-33.6235
-33.3639
-33.1022
-32.8385
-32.5727
-32.3048
-32.0348
-31.7627
-31.4884
-31.212
-30.9334
-30.6527
-30.3697
-30.0845
-29.7971
-29.5074
-29.2155
-28.9212
-28.6247
-28.3257
-28.0245
-27.7209
-27.4149
-27.1065
-26.7957
-26.4825
-26.1668
-25.8487
-25.5281
-25.205
-24.8794
-24.5512
-24.2205
-23.8872
-23.5512
-23.2127
-22.8714
-22.5275
-22.1808
-21.8314
-21.4791
-21.1239
-20.7658
-20.4047
-20.0405
-19.673
-19.3022
-18.9278
-18.5495
-18.167
-17.7799
-17.3872
-16.9886
-16.5824
-16.17
-15.7506
-15.3412
-52.2726
-52.2615
-52.2435
-52.2179
-52.1847
-52.1439
-52.0958
-52.0407
-51.9789
-51.9109
-51.8369
-51.7576
-51.6735
-51.5849
-51.4925
-51.3967
-51.2979
-51.1968
-51.0935
-50.9886
-50.8823
-50.775
-50.6669
-50.5582
-50.4491
-50.3398
-50.2303
-50.1207
-50.011
-49.9014
-49.7916
-49.6819
-49.572
-49.462
-49.3518
-49.2413
-49.1304
-49.0191
-48.9073
-48.7949
-48.6818
-48.5679
-48.4531
-48.3374
-48.2207
-48.1029
-47.9839
-47.8637
-47.7422
-47.6193
-47.4951
-47.3694
-47.2421
-47.1134
-46.983
-46.851
-46.7174
-46.5821
-46.4451
-46.3063
-46.1658
-46.0236
-45.8795
-45.7337
-45.5861
-45.4367
-45.2854
-45.1324
-44.9775
-44.8207
-44.6622
-44.5018
-44.3395
-44.1755
-44.0096
-43.8418
-43.6723
-43.5008
-43.3276
-43.1525
-42.9756
-42.7969
-42.6163
-42.4339
-42.2497
-42.0636
-41.8758
-41.6861
-41.4946
-41.3013
-41.1061
-40.9092
-40.7103
-40.5097
-40.3072
-40.1029
-39.8968
-39.6889
-39.4791
-39.2675
-39.054
-38.8387
-38.6215
-38.4025
-38.1817
-37.959
-37.7345
-37.508
-37.2798
-37.0496
-36.8175
-36.5835
-36.3477
-36.1099
-35.8701
-35.6284
-35.3848
-35.1392
-34.8917
-34.6421
-34.3905
-34.137
-33.8814
-33.6238
-33.3641
-33.1024
-32.8387
-32.5729
-32.305
-32.035
-31.7628
-31.4886
-31.2122
-30.9336
-30.6528
-30.3698
-30.0847
-29.7972
-29.5076
-29.2156
-28.9213
-28.6247
-28.3258
-28.0246
-27.7209
-27.4149
-27.1065
-26.7957
-26.4825
-26.1669
-25.8487
-25.5281
-25.205
-24.8794
-24.5513
-24.2205
-23.8872
-23.5513
-23.2128
-22.8715
-22.5276
-22.1809
-21.8315
-21.4793
-21.1242
-20.7661
-20.4051
-20.041
-19.6736
-19.303
-18.9288
-18.5509
-18.1689
-17.7825
-17.391
-16.9944
-16.5917
-16.1852
-15.7749
-15.3757
-52.4934
-52.481
-52.4608
-52.432
-52.3945
-52.3486
-52.2945
-52.2326
-52.1634
-52.0874
-52.0053
-51.9175
-51.8247
-51.7275
-51.6266
-51.5225
-51.4157
-51.3068
-51.1963
-51.0844
-50.9717
-50.8583
-50.7446
-50.6307
-50.5168
-50.403
-50.2895
-50.1762
-50.0632
-49.9504
-49.8378
-49.7255
-49.6132
-49.501
-49.3887
-49.2764
-49.1638
-49.0508
-48.9375
-48.8237
-48.7092
-48.594
-48.4781
-48.3612
-48.2434
-48.1246
-48.0046
-47.8835
-47.7611
-47.6373
-47.5122
-47.3857
-47.2577
-47.1282
-46.9972
-46.8645
-46.7302
-46.5943
-46.4567
-46.3174
-46.1763
-46.0335
-45.889
-45.7427
-45.5946
-45.4447
-45.2931
-45.1396
-44.9843
-44.8272
-44.6683
-44.5076
-44.345
-44.1807
-44.0145
-43.8464
-43.6766
-43.5049
-43.3315
-43.1562
-42.979
-42.8001
-42.6193
-42.4367
-42.2523
-42.0661
-41.8781
-41.6883
-41.4967
-41.3032
-41.108
-40.9109
-40.712
-40.5112
-40.3087
-40.1043
-39.8981
-39.69
-39.4802
-39.2685
-39.055
-38.8396
-38.6224
-38.4033
-38.1825
-37.9597
-37.7351
-37.5087
-37.2804
-37.0502
-36.8181
-36.5841
-36.3481
-36.1103
-35.8706
-35.6289
-35.3852
-35.1396
-34.892
-34.6424
-34.3908
-34.1372
-33.8816
-33.624
-33.3644
-33.1027
-32.8389
-32.5731
-32.3052
-32.0352
-31.763
-31.4888
-31.2123
-30.9338
-30.653
-30.37
-30.0848
-29.7974
-29.5077
-29.2157
-28.9214
-28.6248
-28.3259
-28.0246
-27.721
-27.415
-27.1066
-26.7958
-26.4826
-26.1669
-25.8488
-25.5282
-25.2051
-24.8795
-24.5513
-24.2206
-23.8873
-23.5514
-23.2129
-22.8716
-22.5277
-22.1811
-21.8317
-21.4795
-21.1244
-20.7665
-20.4055
-20.0415
-19.6744
-19.3039
-18.93
-18.5525
-18.1711
-17.7855
-17.3954
-17.0008
-16.6016
-16.1999
-15.7969
-15.4036
-52.7667
-52.7526
-52.7296
-52.6965
-52.6534
-52.6006
-52.5386
-52.4678
-52.3889
-52.3027
-52.2099
-52.1111
-52.0074
-51.8993
-51.7876
-51.6731
-51.5563
-51.4379
-51.3184
-51.1981
-51.0774
-50.9567
-50.8363
-50.7162
-50.5966
-50.4776
-50.3593
-50.2416
-50.1246
-50.0082
-49.8923
-49.7769
-49.6619
-49.5471
-49.4324
-49.3179
-49.2032
-49.0884
-48.9732
-48.8577
-48.7417
-48.625
-48.5076
-48.3894
-48.2703
-48.1503
-48.0291
-47.9069
-47.7834
-47.6586
-47.5326
-47.4051
-47.2762
-47.1458
-47.0139
-46.8804
-46.7454
-46.6087
-46.4704
-46.3304
-46.1887
-46.0453
-45.9002
-45.7533
-45.6046
-45.4542
-45.3021
-45.1481
-44.9924
-44.8349
-44.6755
-44.5144
-44.3515
-44.1867
-44.0202
-43.8519
-43.6817
-43.5098
-43.336
-43.1604
-42.9831
-42.8039
-42.6229
-42.4401
-42.2555
-42.0691
-41.8809
-41.6909
-41.4991
-41.3055
-41.1101
-40.9129
-40.7139
-40.513
-40.3103
-40.1059
-39.8995
-39.6914
-39.4815
-39.2697
-39.0561
-38.8407
-38.6234
-38.4043
-38.1834
-37.9606
-37.736
-37.5095
-37.2811
-37.0508
-36.8187
-36.5847
-36.3487
-36.1109
-35.8711
-35.6293
-35.3857
-35.14
-34.8924
-34.6428
-34.3912
-34.1376
-33.8819
-33.6243
-33.3646
-33.1029
-32.8392
-32.5733
-32.3054
-32.0354
-31.7633
-31.489
-31.2125
-30.9339
-30.6532
-30.3702
-30.085
-29.7975
-29.5078
-29.2158
-28.9215
-28.6249
-28.326
-28.0247
-27.7211
-27.4151
-27.1067
-26.7959
-26.4826
-26.167
-25.8489
-25.5283
-25.2052
-24.8795
-24.5514
-24.2207
-23.8874
-23.5515
-23.213
-22.8718
-22.5279
-22.1813
-21.8319
-21.4798
-21.1248
-20.7669
-20.406
-20.0422
-19.6752
-19.305
-18.9314
-18.5543
-18.1735
-17.7889
-17.4002
-17.0077
-16.6116
-16.214
-15.8165
-15.428
-53.0978
-53.0817
-53.0549
-53.0163
-52.9658
-52.9041
-52.8317
-52.7494
-52.658
-52.5586
-52.4521
-52.3396
-52.222
-52.1003
-51.9755
-51.8482
-51.7193
-51.5894
-51.4591
-51.3288
-51.1988
-51.0696
-50.9413
-50.814
-50.6879
-50.5629
-50.4391
-50.3165
-50.195
-50.0744
-49.9548
-49.8359
-49.7177
-49.6
-49.4827
-49.3656
-49.2486
-49.1316
-49.0144
-48.8969
-48.7791
-48.6607
-48.5417
-48.4219
-48.3014
-48.1799
-48.0574
-47.9338
-47.8091
-47.6832
-47.5559
-47.4274
-47.2974
-47.166
-47.0332
-46.8988
-46.7628
-46.6253
-46.4862
-46.3454
-46.2029
-46.0588
-45.913
-45.7654
-45.6162
-45.4652
-45.3124
-45.1579
-45.0017
-44.8436
-44.6838
-44.5222
-44.3589
-44.1937
-44.0268
-43.8581
-43.6876
-43.5153
-43.3412
-43.1654
-42.9877
-42.8082
-42.627
-42.444
-42.2591
-42.0725
-41.8841
-41.6939
-41.5019
-41.3082
-41.1126
-40.9152
-40.716
-40.5151
-40.3123
-40.1077
-39.9012
-39.693
-39.483
-39.2711
-39.0574
-38.8419
-38.6246
-38.4054
-38.1844
-37.9616
-37.7369
-37.5103
-37.2819
-37.0516
-36.8194
-36.5854
-36.3494
-36.1115
-35.8716
-35.6299
-35.3862
-35.1405
-34.8928
-34.6432
-34.3915
-34.1379
-33.8823
-33.6246
-33.365
-33.1032
-32.8395
-32.5736
-32.3057
-32.0357
-31.7635
-31.4892
-31.2128
-30.9342
-30.6534
-30.3704
-30.0852
-29.7977
-29.508
-29.216
-28.9217
-28.625
-28.3261
-28.0248
-27.7211
-27.4151
-27.1067
-26.7959
-26.4827
-26.167
-25.8489
-25.5283
-25.2052
-24.8796
-24.5515
-24.2208
-23.8875
-23.5516
-23.2131
-22.8719
-22.528
-22.1815
-21.8322
-21.48
-21.1251
-20.7673
-20.4066
-20.0429
-19.6761
-19.3061
-18.9329
-18.5563
-18.1762
-17.7926
-17.4053
-17.0147
-16.6214
-16.2272
-15.8341
-15.4486
-53.4937
-53.4751
-53.4435
-53.3976
-53.3375
-53.2641
-53.1782
-53.081
-52.9736
-52.8574
-52.7338
-52.6039
-52.4692
-52.3309
-52.1899
-52.0473
-51.9039
-51.7605
-51.6176
-51.4756
-51.335
-51.196
-51.0588
-50.9234
-50.7899
-50.6583
-50.5285
-50.4003
-50.2738
-50.1487
-50.0249
-49.9022
-49.7805
-49.6595
-49.5392
-49.4193
-49.2997
-49.1802
-49.0608
-48.9412
-48.8212
-48.7009
-48.5801
-48.4586
-48.3364
-48.2133
-48.0893
-47.9642
-47.8381
-47.7108
-47.5823
-47.4525
-47.3214
-47.1889
-47.0549
-46.9195
-46.7825
-46.644
-46.5039
-46.3623
-46.219
-46.074
-45.9274
-45.7791
-45.6292
-45.4775
-45.3241
-45.169
-45.0121
-44.8535
-44.6932
-44.5311
-44.3672
-44.2016
-44.0342
-43.8651
-43.6942
-43.5215
-43.3471
-43.1709
-42.9929
-42.8131
-42.6316
-42.4483
-42.2632
-42.0763
-41.8877
-41.6973
-41.5051
-41.3111
-41.1154
-40.9178
-40.7185
-40.5173
-40.3144
-40.1096
-39.9031
-39.6948
-39.4846
-39.2726
-39.0589
-38.8433
-38.6259
-38.4066
-38.1856
-37.9627
-37.7379
-37.5113
-37.2828
-37.0525
-36.8203
-36.5861
-36.3501
-36.1121
-35.8723
-35.6305
-35.3867
-35.141
-34.8933
-34.6436
-34.392
-34.1383
-33.8827
-33.625
-33.3653
-33.1036
-32.8398
-32.5739
-32.306
-32.0359
-31.7638
-31.4895
-31.213
-30.9344
-30.6536
-30.3706
-30.0853
-29.7979
-29.5081
-29.2161
-28.9218
-28.6251
-28.3262
-28.0249
-27.7212
-27.4152
-27.1068
-26.796
-26.4828
-26.1671
-25.849
-25.5284
-25.2053
-24.8797
-24.5515
-24.2209
-23.8876
-23.5517
-23.2132
-22.872
-22.5282
-22.1817
-21.8324
-21.4804
-21.1255
-20.7678
-20.4072
-20.0436
-19.6771
-19.3074
-18.9345
-18.5585
-18.1791
-17.7964
-17.4105
-17.0217
-16.6308
-16.2395
-15.8496
-15.4661
-53.9635
-53.9416
-53.904
-53.8485
-53.7759
-53.6872
-53.5838
-53.4673
-53.3394
-53.2019
-53.0566
-52.9053
-52.7495
-52.5908
-52.4305
-52.2697
-52.1094
-51.9502
-51.7928
-51.6376
-51.485
-51.3351
-51.1879
-51.0436
-50.902
-50.7631
-50.6267
-50.4926
-50.3606
-50.2305
-50.1022
-49.9754
-49.8498
-49.7253
-49.6017
-49.4788
-49.3564
-49.2342
-49.1122
-48.9902
-48.8681
-48.7456
-48.6227
-48.4993
-48.3752
-48.2504
-48.1247
-47.998
-47.8703
-47.7415
-47.6116
-47.4804
-47.348
-47.2142
-47.079
-46.9424
-46.8043
-46.6647
-46.5236
-46.381
-46.2367
-46.0909
-45.9434
-45.7943
-45.6435
-45.4911
-45.337
-45.1812
-45.0237
-44.8644
-44.7035
-44.5408
-44.3764
-44.2103
-44.0425
-43.8729
-43.7015
-43.5284
-43.3536
-43.177
-42.9987
-42.8186
-42.6367
-42.4531
-42.2677
-42.0806
-41.8917
-41.701
-41.5086
-41.3144
-41.1185
-40.9207
-40.7212
-40.5199
-40.3168
-40.1119
-39.9052
-39.6967
-39.4865
-39.2744
-39.0605
-38.8448
-38.6273
-38.408
-38.1868
-37.9639
-37.7391
-37.5124
-37.2838
-37.0534
-36.8212
-36.587
-36.3509
-36.1129
-35.873
-35.6311
-35.3873
-35.1416
-34.8938
-34.6441
-34.3925
-34.1388
-33.8831
-33.6254
-33.3657
-33.104
-32.8402
-32.5743
-32.3063
-32.0362
-31.7641
-31.4897
-31.2133
-30.9346
-30.6538
-30.3708
-30.0856
-29.7981
-29.5083
-29.2162
-28.9219
-28.6253
-28.3263
-28.025
-27.7213
-27.4153
-27.1069
-26.7961
-26.4828
-26.1672
-25.849
-25.5284
-25.2054
-24.8798
-24.5516
-24.2209
-23.8877
-23.5518
-23.2133
-22.8722
-22.5284
-22.1819
-21.8327
-21.4807
-21.1259
-20.7683
-20.4078
-20.0444
-19.6781
-19.3087
-18.9363
-18.5607
-18.182
-17.8003
-17.4156
-17.0285
-16.6398
-16.2508
-15.8633
-15.4812
-54.5191
-54.4932
-54.4479
-54.38
-54.2909
-54.1821
-54.0558
-53.9142
-53.7599
-53.5953
-53.4229
-53.2449
-53.0634
-52.8802
-52.6969
-52.5147
-52.3346
-52.1574
-51.9837
-51.8137
-51.6477
-51.4857
-51.3278
-51.1738
-51.0235
-50.8767
-50.7332
-50.5927
-50.455
-50.3196
-50.1865
-50.0552
-49.9255
-49.7973
-49.6701
-49.5439
-49.4184
-49.2933
-49.1686
-49.044
-48.9194
-48.7946
-48.6695
-48.5439
-48.4178
-48.291
-48.1634
-48.035
-47.9056
-47.7752
-47.6436
-47.511
-47.377
-47.2419
-47.1053
-46.9674
-46.8281
-46.6874
-46.5452
-46.4014
-46.2562
-46.1093
-45.9609
-45.8109
-45.6592
-45.506
-45.3511
-45.1945
-45.0363
-44.8764
-44.7148
-44.5515
-44.3865
-44.2198
-44.0514
-43.8813
-43.7095
-43.536
-43.3607
-43.1837
-43.0049
-42.8245
-42.6423
-42.4583
-42.2726
-42.0852
-41.896
-41.7051
-41.5124
-41.318
-41.1218
-40.9239
-40.7242
-40.5227
-40.3194
-40.1143
-39.9075
-39.6989
-39.4885
-39.2763
-39.0623
-38.8465
-38.6289
-38.4095
-38.1882
-37.9652
-37.7403
-37.5136
-37.285
-37.0545
-36.8221
-36.5879
-36.3518
-36.1137
-35.8738
-35.6319
-35.388
-35.1422
-34.8944
-34.6447
-34.393
-34.1393
-33.8836
-33.6259
-33.3662
-33.1044
-32.8406
-32.5747
-32.3067
-32.0366
-31.7644
-31.4901
-31.2136
-30.9349
-30.6541
-30.371
-30.0858
-29.7982
-29.5085
-29.2164
-28.922
-28.6254
-28.3264
-28.0251
-27.7214
-27.4154
-27.1069
-26.7961
-26.4829
-26.1672
-25.8491
-25.5285
-25.2054
-24.8798
-24.5517
-24.221
-23.8878
-23.5519
-23.2135
-22.8724
-22.5286
-22.1821
-21.8329
-21.481
-21.1263
-20.7688
-20.4085
-20.0453
-19.6792
-19.3101
-18.938
-18.563
-18.185
-17.8041
-17.4207
-17.035
-16.6481
-16.261
-15.8754
-15.4942
-55.1759
-55.1461
-55.0915
-55.0068
-54.8961
-54.761
-54.6039
-54.4296
-54.2414
-54.0423
-53.8358
-53.6248
-53.4119
-53.1993
-52.9888
-52.7816
-52.5789
-52.3813
-52.1892
-52.0028
-51.8222
-51.6472
-51.4777
-51.3133
-51.1538
-50.9987
-50.8477
-50.7004
-50.5565
-50.4156
-50.2773
-50.1414
-50.0074
-49.8751
-49.7442
-49.6144
-49.4856
-49.3574
-49.2297
-49.1023
-48.9751
-48.8477
-48.7202
-48.5923
-48.464
-48.3351
-48.2054
-48.0751
-47.9438
-47.8116
-47.6784
-47.544
-47.4085
-47.2718
-47.1339
-46.9946
-46.8539
-46.7119
-46.5684
-46.4235
-46.2771
-46.1292
-45.9798
-45.8288
-45.6762
-45.5221
-45.3663
-45.2089
-45.0499
-44.8893
-44.727
-44.563
-44.3974
-44.2301
-44.0611
-43.8905
-43.7181
-43.5441
-43.3683
-43.1909
-43.0117
-42.8309
-42.6483
-42.464
-42.278
-42.0902
-41.9007
-41.7095
-41.5166
-41.3219
-41.1255
-40.9273
-40.7274
-40.5256
-40.3222
-40.117
-39.91
-39.7012
-39.4906
-39.2783
-39.0642
-38.8483
-38.6306
-38.4111
-38.1898
-37.9666
-37.7416
-37.5148
-37.2862
-37.0556
-36.8232
-36.5889
-36.3527
-36.1146
-35.8746
-35.6326
-35.3887
-35.1429
-34.8951
-34.6453
-34.3936
-34.1398
-33.8841
-33.6264
-33.3666
-33.1048
-32.841
-32.5751
-32.307
-32.0369
-31.7647
-31.4904
-31.2139
-30.9352
-30.6544
-30.3713
-30.086
-29.7984
-29.5086
-29.2165
-28.9222
-28.6255
-28.3265
-28.0252
-27.7215
-27.4154
-27.107
-26.7962
-26.483
-26.1673
-25.8492
-25.5286
-25.2055
-24.8799
-24.5518
-24.2211
-23.8879
-23.552
-23.2136
-22.8725
-22.5288
-22.1824
-21.8332
-21.4814
-21.1268
-20.7694
-20.4092
-20.0462
-19.6803
-19.3115
-18.9398
-18.5653
-18.188
-17.808
-17.4256
-17.0413
-16.6558
-16.2703
-15.8861
-15.5055
-55.9597
-55.9233
-55.8544
-55.7495
-55.6122
-55.4455
-55.2406
-55.0248
-54.7936
-54.5503
-54.3007
-54.0484
-53.797
-53.549
-53.3063
-53.0703
-52.8418
-52.6212
-52.4088
-52.2045
-52.008
-51.8191
-51.6372
-51.4618
-51.2924
-51.1286
-50.9698
-50.8155
-50.6651
-50.5183
-50.3747
-50.2337
-50.0952
-49.9586
-49.8237
-49.6902
-49.5578
-49.4263
-49.2954
-49.165
-49.0349
-48.9048
-48.7747
-48.6443
-48.5136
-48.3824
-48.2506
-48.1181
-47.9848
-47.8507
-47.7156
-47.5795
-47.4423
-47.3039
-47.1644
-47.0236
-46.8816
-46.7382
-46.5934
-46.4472
-46.2996
-46.1505
-46
-45.848
-45.6944
-45.5393
-45.3826
-45.2243
-45.0645
-44.9031
-44.74
-44.5753
-44.409
-44.2411
-44.0715
-43.9003
-43.7273
-43.5528
-43.3765
-43.1986
-43.019
-42.8377
-42.6547
-42.47
-42.2836
-42.0955
-41.9057
-41.7142
-41.521
-41.326
-41.1294
-40.9309
-40.7308
-40.5289
-40.3252
-40.1198
-39.9126
-39.7037
-39.493
-39.2805
-39.0662
-38.8502
-38.6324
-38.4128
-38.1914
-37.9682
-37.7431
-37.5162
-37.2874
-37.0568
-36.8243
-36.59
-36.3537
-36.1156
-35.8755
-35.6335
-35.3895
-35.1436
-34.8958
-34.6459
-34.3942
-34.1404
-33.8847
-33.6269
-33.3671
-33.1053
-32.8414
-32.5755
-32.3075
-32.0373
-31.7651
-31.4907
-31.2142
-30.9355
-30.6546
-30.3715
-30.0862
-29.7986
-29.5088
-29.2167
-28.9223
-28.6256
-28.3266
-28.0253
-27.7216
-27.4155
-27.1071
-26.7963
-26.483
-26.1674
-25.8493
-25.5287
-25.2056
-24.88
-24.5519
-24.2212
-23.888
-23.5522
-23.2137
-22.8727
-22.529
-22.1826
-21.8335
-21.4817
-21.1272
-20.7699
-20.4099
-20.047
-19.6814
-19.3129
-18.9416
-18.5676
-18.1909
-17.8117
-17.4303
-17.0471
-16.6629
-16.2787
-15.8955
-15.5152
-56.9049
-56.8604
-56.774
-56.6416
-56.4662
-56.2512
-56.0026
-55.728
-55.4371
-55.1322
-54.8265
-54.5219
-54.2228
-53.9321
-53.6514
-53.3818
-53.1239
-52.8776
-52.6427
-52.4188
-52.2052
-52.0013
-51.8062
-51.6192
-51.4396
-51.2666
-51.0995
-50.9377
-50.7806
-50.6277
-50.4784
-50.3322
-50.1887
-50.0476
-49.9085
-49.771
-49.6348
-49.4997
-49.3655
-49.2319
-49.0986
-48.9656
-48.8327
-48.6997
-48.5664
-48.4327
-48.2986
-48.1639
-48.0284
-47.8922
-47.7552
-47.6172
-47.4781
-47.3381
-47.1969
-47.0545
-46.9109
-46.766
-46.6199
-46.4723
-46.3235
-46.1732
-46.0215
-45.8683
-45.7137
-45.5575
-45.3999
-45.2407
-45.08
-44.9177
-44.7538
-44.5884
-44.4214
-44.2527
-44.0825
-43.9106
-43.7371
-43.562
-43.3852
-43.2068
-43.0267
-42.845
-42.6615
-42.4764
-42.2897
-42.1012
-41.9111
-41.7192
-41.5257
-41.3304
-41.1335
-40.9348
-40.7344
-40.5323
-40.3284
-40.1228
-39.9154
-39.7063
-39.4954
-39.2828
-39.0684
-38.8523
-38.6344
-38.4146
-38.1931
-37.9698
-37.7446
-37.5176
-37.2888
-37.0581
-36.8256
-36.5911
-36.3548
-36.1166
-35.8764
-35.6343
-35.3903
-35.1444
-34.8965
-34.6466
-34.3948
-34.141
-33.8853
-33.6275
-33.3677
-33.1058
-32.8419
-32.5759
-32.3079
-32.0377
-31.7655
-31.4911
-31.2145
-30.9358
-30.6549
-30.3718
-30.0864
-29.7988
-29.509
-29.2169
-28.9224
-28.6257
-28.3267
-28.0254
-27.7217
-27.4156
-27.1072
-26.7963
-26.4831
-26.1674
-25.8493
-25.5287
-25.2057
-24.8801
-24.552
-24.2213
-23.8881
-23.5523
-23.2139
-22.8728
-22.5292
-22.1828
-21.8338
-21.4821
-21.1277
-20.7705
-20.4106
-20.0479
-19.6825
-19.3143
-18.9434
-18.5698
-18.1937
-17.8152
-17.4347
-17.0525
-16.6694
-16.2862
-15.9038
-15.5237
-58.0775
-58.023
-57.9161
-57.7508
-57.5271
-57.2507
-56.9285
-56.5709
-56.1973
-55.8147
-55.434
-55.0596
-54.7001
-54.3566
-54.03
-53.7208
-53.4286
-53.153
-52.8929
-52.6473
-52.4149
-52.1947
-51.9855
-51.7861
-51.5955
-51.4127
-51.237
-51.0673
-50.9031
-50.7437
-50.5883
-50.4366
-50.288
-50.1421
-49.9984
-49.8566
-49.7164
-49.5776
-49.4397
-49.3027
-49.1662
-49.03
-48.8941
-48.7582
-48.6222
-48.486
-48.3493
-48.2122
-48.0745
-47.9361
-47.797
-47.6569
-47.516
-47.3741
-47.2311
-47.0871
-46.9418
-46.7954
-46.6478
-46.4988
-46.3486
-46.197
-46.0441
-45.8897
-45.734
-45.5768
-45.4181
-45.2579
-45.0963
-44.9331
-44.7684
-44.6022
-44.4344
-44.265
-44.0941
-43.9215
-43.7474
-43.5717
-43.3944
-43.2154
-43.0348
-42.8526
-42.6687
-42.4832
-42.296
-42.1072
-41.9167
-41.7245
-41.5306
-41.3351
-41.1378
-40.9389
-40.7382
-40.5358
-40.3317
-40.1259
-39.9184
-39.7091
-39.498
-39.2853
-39.0707
-38.8545
-38.6364
-38.4166
-38.1949
-37.9715
-37.7462
-37.5192
-37.2902
-37.0595
-36.8268
-36.5923
-36.3559
-36.1176
-35.8774
-35.6353
-35.3912
-35.1452
-34.8973
-34.6474
-34.3955
-34.1417
-33.8859
-33.6281
-33.3682
-33.1063
-32.8424
-32.5764
-32.3083
-32.0382
-31.7659
-31.4915
-31.2149
-30.9362
-30.6552
-30.3721
-30.0867
-29.799
-29.5092
-29.217
-28.9226
-28.6259
-28.3268
-28.0255
-27.7218
-27.4157
-27.1073
-26.7964
-26.4832
-26.1675
-25.8494
-25.5288
-25.2057
-24.8802
-24.552
-24.2214
-23.8882
-23.5524
-23.214
-22.873
-22.5294
-22.1831
-21.8341
-21.4824
-21.1281
-20.771
-20.4113
-20.0488
-19.6836
-19.3157
-18.9451
-18.572
-18.1964
-17.8186
-17.4389
-17.0576
-16.6754
-16.2929
-15.9111
-15.5311
-59.6054
-59.5584
-59.439
-59.2393
-58.9636
-58.6089
-58.1767
-57.6941
-57.1959
-56.6924
-56.205
-55.7137
-55.2726
-54.8579
-54.4706
-54.11
-53.7747
-53.4628
-53.1721
-52.9006
-52.6464
-52.4074
-52.182
-51.9686
-51.7658
-51.5722
-51.3868
-51.2085
-51.0364
-50.8698
-50.7079
-50.5501
-50.3958
-50.2446
-50.0959
-49.9495
-49.8049
-49.6619
-49.5201
-49.3792
-49.2392
-49.0997
-48.9605
-48.8215
-48.6825
-48.5434
-48.4041
-48.2644
-48.1242
-47.9834
-47.8419
-47.6998
-47.5567
-47.4128
-47.2679
-47.122