/*--------------------------------*- C++ -*----------------------------------*\
  =========                 |
  \\      /  F ield         | OpenFOAM: The Open Source CFD Toolbox
   \\    /   O peration     | Website:  https://openfoam.org
    \\  /    A nd           | Version:  7
     \\/     M anipulation  |
\*---------------------------------------------------------------------------*/
FoamFile
{
    version     2.0;
    format      ascii;
    class       surfaceScalarField;
    location    "0.002";
    object      phi;
}
// * * * * * * * * * * * * * * * * * * * * * * * * * * * * * * * * * * * * * //

dimensions      [0 3 -1 0 0 0 0];

internalField   nonuniform List<scalar> 
24170
(
1.40564e-06
1.81462e-07
1.2683e-06
1.37344e-07
1.13785e-06
1.30442e-07
1.06309e-06
7.47645e-08
1.04062e-06
2.24682e-08
1.05206e-06
-1.14408e-08
1.08151e-06
-2.94494e-08
1.11609e-06
-3.45782e-08
1.14925e-06
-3.31615e-08
1.17824e-06
-2.89875e-08
1.21876e-06
-4.0525e-08
1.25349e-06
-3.4722e-08
1.27821e-06
-2.47244e-08
1.35766e-06
-7.94537e-08
1.43614e-06
-7.84764e-08
1.46057e-06
-2.44331e-08
1.59843e-06
-1.37855e-07
-2.14188e-07
1.81262e-06
1.64867e-06
2.38191e-07
1.63334e-06
1.52668e-07
1.61394e-06
1.49842e-07
1.59914e-06
8.95634e-08
1.59507e-06
2.65438e-08
1.60145e-06
-1.78209e-08
1.62098e-06
-4.89838e-08
1.65149e-06
-6.50887e-08
1.68307e-06
-6.47442e-08
1.72358e-06
-6.94954e-08
1.76596e-06
-8.29004e-08
1.80146e-06
-7.02239e-08
1.85053e-06
-7.3799e-08
1.91231e-06
-1.41225e-07
1.96201e-06
-1.2818e-07
2.04883e-06
-1.11251e-07
2.14433e-06
-2.33355e-07
-3.60986e-07
2.29112e-06
1.77135e-06
2.80729e-07
1.77689e-06
1.47124e-07
1.78125e-06
1.45478e-07
1.76215e-06
1.08665e-07
1.74114e-06
4.75573e-08
1.73845e-06
-1.51323e-08
1.75714e-06
-6.76786e-08
1.78939e-06
-9.73367e-08
1.83209e-06
-1.07439e-07
1.874e-06
-1.11404e-07
1.91263e-06
-1.2153e-07
1.9608e-06
-1.18395e-07
2.01504e-06
-1.28044e-07
2.04896e-06
-1.75144e-07
2.11324e-06
-1.92461e-07
2.20203e-06
-2.00041e-07
2.28022e-06
-3.11539e-07
-4.48533e-07
2.36776e-06
1.91882e-06
3.37636e-07
1.9098e-06
1.5615e-07
1.91253e-06
1.42746e-07
1.89772e-06
1.23475e-07
1.88118e-06
6.41012e-08
1.8803e-06
-1.42508e-08
1.89734e-06
-8.4728e-08
1.92919e-06
-1.29178e-07
1.9681e-06
-1.46349e-07
2.01008e-06
-1.53384e-07
2.05199e-06
-1.63448e-07
2.10092e-06
-1.6732e-07
2.14857e-06
-1.757e-07
2.19459e-06
-2.21157e-07
2.25761e-06
-2.55482e-07
2.33996e-06
-2.82395e-07
2.41139e-06
-3.82969e-07
-5.20094e-07
2.48295e-06
2.08717e-06
3.52419e-07
2.0553e-06
1.88024e-07
2.03523e-06
1.62811e-07
2.0184e-06
1.40311e-07
2.00932e-06
7.3175e-08
2.01599e-06
-2.09163e-08
2.0382e-06
-1.0694e-07
2.07108e-06
-1.6206e-07
2.11141e-06
-1.86678e-07
2.1553e-06
-1.97266e-07
2.19802e-06
-2.06173e-07
2.24484e-06
-2.14137e-07
2.29792e-06
-2.2878e-07
2.34725e-06
-2.7049e-07
2.40419e-06
-3.12421e-07
2.47812e-06
-3.56328e-07
2.54686e-06
-4.51709e-07
-5.83593e-07
2.61036e-06
2.22357e-06
3.41628e-07
2.21765e-06
1.93943e-07
2.1962e-06
1.84261e-07
2.17416e-06
1.62349e-07
2.16439e-06
8.29461e-08
2.17236e-06
-2.88928e-08
2.19496e-06
-1.29541e-07
2.22803e-06
-1.95122e-07
2.26776e-06
-2.26408e-07
2.31034e-06
-2.39847e-07
2.35429e-06
-2.50124e-07
2.40239e-06
-2.62239e-07
2.45351e-06
-2.799e-07
2.50238e-06
-3.19357e-07
2.55866e-06
-3.68705e-07
2.6269e-06
-4.24571e-07
2.68875e-06
-5.13552e-07
-6.33333e-07
2.73849e-06
2.39262e-06
4.13105e-07
2.36515e-06
2.21415e-07
2.35985e-06
1.89559e-07
2.3586e-06
1.63603e-07
2.35599e-06
8.555e-08
2.35957e-06
-3.24661e-08
2.3739e-06
-1.43878e-07
2.40019e-06
-2.21406e-07
2.43569e-06
-2.61908e-07
2.47715e-06
-2.81312e-07
2.52098e-06
-2.93952e-07
2.56712e-06
-3.08379e-07
2.61729e-06
-3.30069e-07
2.66785e-06
-3.69919e-07
2.72033e-06
-4.21189e-07
2.77732e-06
-4.8156e-07
2.82948e-06
-5.65708e-07
-6.76416e-07
2.87256e-06
2.55705e-06
3.48392e-07
2.54669e-06
2.31777e-07
2.55223e-06
1.84018e-07
2.55049e-06
1.65347e-07
2.53991e-06
9.61302e-08
2.53454e-06
-2.70953e-08
2.54572e-06
-1.55055e-07
2.57257e-06
-2.48261e-07
2.60995e-06
-2.99286e-07
2.65217e-06
-3.23535e-07
2.69627e-06
-3.38048e-07
2.74255e-06
-3.54662e-07
2.79105e-06
-3.78569e-07
2.83839e-06
-4.17258e-07
2.88586e-06
-4.68656e-07
2.93596e-06
-5.31658e-07
2.98141e-06
-6.11167e-07
-7.09493e-07
3.01449e-06
2.77184e-06
3.87437e-07
2.77276e-06
2.30849e-07
2.75434e-06
2.02438e-07
2.72707e-06
1.92623e-07
2.71134e-06
1.11862e-07
2.71512e-06
-3.08807e-08
2.73506e-06
-1.74992e-07
2.76578e-06
-2.78982e-07
2.80272e-06
-3.36224e-07
2.84299e-06
-3.63812e-07
2.88522e-06
-3.80278e-07
2.92864e-06
-3.98081e-07
2.97326e-06
-4.23184e-07
3.01764e-06
-4.61644e-07
3.06075e-06
-5.11758e-07
3.10175e-06
-5.72666e-07
3.1358e-06
-6.45209e-07
-7.31763e-07
3.15807e-06
2.93236e-06
4.82855e-07
2.92491e-06
2.38302e-07
2.92462e-06
2.02728e-07
2.92076e-06
1.96485e-07
2.91777e-06
1.14843e-07
2.92329e-06
-3.63938e-08
2.94119e-06
-1.92898e-07
2.96925e-06
-3.07043e-07
3.00414e-06
-3.71107e-07
3.04278e-06
-4.02456e-07
3.08307e-06
-4.20563e-07
3.12416e-06
-4.39179e-07
3.16559e-06
-4.6461e-07
3.20526e-06
-5.01317e-07
3.24171e-06
-5.48201e-07
3.27453e-06
-6.05488e-07
3.30061e-06
-6.71286e-07
-7.46659e-07
3.3155e-06
3.20802e-06
4.10723e-07
3.20249e-06
2.43828e-07
3.17427e-06
2.30947e-07
3.15695e-06
2.13809e-07
3.15496e-06
1.16834e-07
3.16286e-06
-4.42937e-08
3.17759e-06
-2.07629e-07
3.19918e-06
-3.28636e-07
3.22725e-06
-3.99175e-07
3.26009e-06
-4.35297e-07
3.29569e-06
-4.56158e-07
3.33231e-06
-4.75807e-07
3.36846e-06
-5.00754e-07
3.4024e-06
-5.35257e-07
3.43259e-06
-5.78397e-07
3.45737e-06
-6.30265e-07
3.47386e-06
-6.87777e-07
-7.51561e-07
3.47876e-06
2.87325e-06
4.07613e-07
2.87659e-06
2.40485e-07
2.85831e-06
2.49223e-07
2.84259e-06
2.29528e-07
2.83698e-06
1.22452e-07
2.83937e-06
-4.6684e-08
2.85082e-06
-2.19087e-07
2.87076e-06
-3.48573e-07
2.89663e-06
-4.25045e-07
2.92541e-06
-4.64076e-07
2.95485e-06
-4.85601e-07
2.98359e-06
-5.04543e-07
3.01069e-06
-5.27857e-07
3.03493e-06
-5.59493e-07
3.05497e-06
-5.98434e-07
3.06961e-06
-6.44907e-07
3.07719e-06
-6.95363e-07
-7.50185e-07
3.07582e-06
3.51599e-06
4.30203e-07
3.48722e-06
2.69258e-07
3.47356e-06
2.62883e-07
3.46478e-06
2.38304e-07
3.45792e-06
1.29315e-07
3.45969e-06
-4.84545e-08
3.47384e-06
-2.33238e-07
3.49794e-06
-3.72674e-07
3.52745e-06
-4.54546e-07
3.55859e-06
-4.95223e-07
3.58912e-06
-5.1613e-07
3.6178e-06
-5.33219e-07
3.64367e-06
-5.53728e-07
3.66553e-06
-5.81349e-07
3.68213e-06
-6.15041e-07
3.6921e-06
-6.54872e-07
3.69375e-06
-6.97015e-07
-7.41702e-07
3.68527e-06
4.1933e-06
5.01604e-07
4.17792e-06
2.8464e-07
4.19168e-06
2.49118e-07
4.19747e-06
2.32517e-07
4.20135e-06
1.25436e-07
4.21214e-06
-5.92433e-08
4.23308e-06
-2.5418e-07
4.2615e-06
-4.01088e-07
4.29336e-06
-4.86413e-07
4.32528e-06
-5.27137e-07
4.35512e-06
-5.45969e-07
4.38164e-06
-5.59746e-07
4.40396e-06
-5.76048e-07
4.42095e-06
-5.98339e-07
4.4314e-06
-6.25492e-07
4.43396e-06
-6.57429e-07
4.42734e-06
-6.90395e-07
-7.24726e-07
4.41036e-06
5.23181e-06
5.65399e-07
5.16488e-06
3.51571e-07
5.15936e-06
2.54644e-07
5.17686e-06
2.15009e-07
5.19017e-06
1.12128e-07
5.19931e-06
-6.83842e-08
5.20892e-06
-2.63782e-07
5.22359e-06
-4.15766e-07
5.2432e-06
-5.06015e-07
5.26504e-06
-5.48981e-07
5.28629e-06
-5.67217e-07
5.3047e-06
-5.78159e-07
5.31862e-06
-5.89966e-07
5.32656e-06
-6.06283e-07
5.32728e-06
-6.26208e-07
5.31949e-06
-6.49644e-07
5.30223e-06
-6.73132e-07
-6.97175e-07
5.27468e-06
6.1931e-06
3.29335e-07
6.28499e-06
2.59684e-07
6.31902e-06
2.20607e-07
6.33741e-06
1.96625e-07
6.34687e-06
1.02666e-07
6.35273e-06
-7.42475e-08
6.36033e-06
-2.71379e-07
6.37078e-06
-4.26216e-07
6.38345e-06
-5.18681e-07
6.3964e-06
-5.61932e-07
6.40745e-06
-5.78275e-07
6.41471e-06
-5.85413e-07
6.41665e-06
-5.91905e-07
6.41199e-06
-6.01628e-07
6.39963e-06
-6.13849e-07
6.37855e-06
-6.28562e-07
6.34819e-06
-6.4277e-07
-6.57169e-07
6.30818e-06
7.81466e-06
1.74325e-07
7.82708e-06
2.4726e-07
7.79619e-06
2.51505e-07
7.77631e-06
2.165e-07
7.76842e-06
1.1056e-07
7.76779e-06
-7.36156e-08
7.76996e-06
-2.73555e-07
7.77183e-06
-4.28086e-07
7.77216e-06
-5.19006e-07
7.77031e-06
-5.60082e-07
7.76531e-06
-5.73275e-07
7.75578e-06
-5.75884e-07
7.74053e-06
-5.76658e-07
7.71852e-06
-5.79615e-07
7.68896e-06
-5.84294e-07
7.6512e-06
-5.90799e-07
7.60508e-06
-5.96654e-07
-6.02653e-07
7.55057e-06
9.53277e-06
3.53043e-07
9.52996e-06
2.50066e-07
9.58362e-06
1.97847e-07
9.6274e-06
1.72718e-07
9.63707e-06
1.00893e-07
9.6135e-06
-5.0044e-08
9.57145e-06
-2.31506e-07
9.52755e-06
-3.84185e-07
9.48863e-06
-4.80084e-07
9.45374e-06
-5.25196e-07
9.41975e-06
-5.3929e-07
9.38384e-06
-5.39973e-07
9.34409e-06
-5.36901e-07
9.29899e-06
-5.34521e-07
9.24771e-06
-5.33015e-07
9.18968e-06
-5.32767e-07
9.12497e-06
-5.31941e-07
-5.31348e-07
9.05366e-06
1.16579e-05
4.47677e-07
1.15943e-05
3.13737e-07
1.15469e-05
2.4523e-07
1.1521e-05
1.98557e-07
1.15135e-05
1.08479e-07
1.15123e-05
-4.89301e-08
1.15106e-05
-2.29773e-07
1.15e-05
-3.73589e-07
1.14769e-05
-4.56997e-07
1.1442e-05
-4.90251e-07
1.13969e-05
-4.94254e-07
1.13434e-05
-4.86379e-07
1.12823e-05
-4.75881e-07
1.12145e-05
-4.66678e-07
1.11404e-05
-4.58906e-07
1.10603e-05
-4.52735e-07
1.09751e-05
-4.46672e-07
-4.4135e-07
1.08851e-05
8.4085e-06
2.90821e-07
8.46244e-06
2.59797e-07
8.48937e-06
2.18297e-07
8.50171e-06
1.86216e-07
8.50895e-06
1.01238e-07
8.51124e-06
-5.12142e-08
8.49961e-06
-2.18141e-07
8.47328e-06
-3.47267e-07
8.43551e-06
-4.19222e-07
8.38985e-06
-4.44587e-07
8.33906e-06
-4.43471e-07
8.28468e-06
-4.31995e-07
8.22738e-06
-4.18581e-07
8.16739e-06
-4.06691e-07
8.10496e-06
-3.96474e-07
8.04023e-06
-3.88008e-07
7.97359e-06
-3.80029e-07
-3.73065e-07
7.9053e-06
7.26896e-06
3.29582e-07
7.32086e-06
2.07898e-07
7.37396e-06
1.65197e-07
7.4198e-06
1.40375e-07
7.44968e-06
7.1358e-08
7.45641e-06
-5.79497e-08
7.4411e-06
-2.02833e-07
7.40843e-06
-3.14592e-07
7.36468e-06
-3.75468e-07
7.31495e-06
-3.94859e-07
7.26212e-06
-3.90638e-07
7.20731e-06
-3.77188e-07
7.15094e-06
-3.62208e-07
7.09316e-06
-3.48918e-07
7.03423e-06
-3.3754e-07
6.97429e-06
-3.28072e-07
6.91368e-06
-3.1941e-07
-3.11919e-07
6.85253e-06
6.52289e-06
3.33533e-07
6.48065e-06
2.50138e-07
6.44745e-06
1.98395e-07
6.44242e-06
1.45409e-07
6.45748e-06
5.6298e-08
6.46981e-06
-7.02776e-08
6.46846e-06
-2.01487e-07
6.44986e-06
-2.95998e-07
6.41709e-06
-3.42696e-07
6.37489e-06
-3.52655e-07
6.32704e-06
-3.42786e-07
6.27594e-06
-3.26089e-07
6.22303e-06
-3.09301e-07
6.16911e-06
-2.94997e-07
6.11468e-06
-2.83117e-07
6.06002e-06
-2.73404e-07
6.00539e-06
-2.64786e-07
-2.57454e-07
5.95093e-06
5.4998e-06
3.61434e-07
5.60964e-06
1.40299e-07
5.68465e-06
1.23392e-07
5.70209e-06
1.27966e-07
5.68718e-06
7.12086e-08
5.66684e-06
-4.99396e-08
5.64684e-06
-1.81488e-07
5.62495e-06
-2.7411e-07
5.59639e-06
-3.14134e-07
5.55983e-06
-3.16093e-07
5.5168e-06
-2.99754e-07
5.46967e-06
-2.78966e-07
5.42052e-06
-2.60144e-07
5.37062e-06
-2.451e-07
5.32071e-06
-2.33209e-07
5.27111e-06
-2.23798e-07
5.22205e-06
-2.15726e-07
-2.0899e-07
5.17358e-06
4.91591e-06
3.05046e-07
4.91215e-06
1.44062e-07
4.92666e-06
1.08882e-07
4.93507e-06
1.19562e-07
4.9422e-06
6.40786e-08
4.94692e-06
-5.46612e-08
4.94444e-06
-1.79008e-07
4.92856e-06
-2.58235e-07
4.89979e-06
-2.85358e-07
4.86163e-06
-2.77935e-07
4.81791e-06
-2.56032e-07
4.77163e-06
-2.32687e-07
4.72473e-06
-2.1325e-07
4.67819e-06
-1.98561e-07
4.63243e-06
-1.87446e-07
4.58754e-06
-1.78907e-07
4.5436e-06
-1.7179e-07
-1.65951e-07
4.50057e-06
4.30924e-06
2.35215e-07
4.31406e-06
1.39235e-07
4.32406e-06
9.88794e-08
4.35392e-06
8.97097e-08
4.38607e-06
3.19215e-08
4.40413e-06
-7.27133e-08
4.39324e-06
-1.68118e-07
4.35874e-06
-2.23739e-07
4.31204e-06
-2.38654e-07
4.26176e-06
-2.27658e-07
4.21212e-06
-2.06388e-07
4.16453e-06
-1.85098e-07
4.11919e-06
-1.67909e-07
4.0758e-06
-1.55179e-07
4.03406e-06
-1.45703e-07
3.99368e-06
-1.38522e-07
3.95453e-06
-1.32639e-07
-1.27868e-07
3.91644e-06
3.74503e-06
2.85833e-07
3.77395e-06
1.10308e-07
3.79843e-06
7.44055e-08
3.829e-06
5.91364e-08
3.86458e-06
-3.65853e-09
3.87779e-06
-8.59253e-08
3.86257e-06
-1.52898e-07
3.8253e-06
-1.86467e-07
3.77756e-06
-1.9091e-07
3.72734e-06
-1.77443e-07
3.67867e-06
-1.57718e-07
3.63306e-06
-1.39482e-07
3.59062e-06
-1.25469e-07
3.55083e-06
-1.15392e-07
3.51312e-06
-1.07998e-07
3.47705e-06
-1.02443e-07
3.44234e-06
-9.79358e-08
-9.42976e-08
3.40877e-06
3.26548e-06
2.35006e-07
3.3135e-06
6.229e-08
3.34502e-06
4.28809e-08
3.37854e-06
2.56156e-08
3.40085e-06
-2.59636e-08
3.40238e-06
-8.74575e-08
3.38022e-06
-1.30743e-07
3.3424e-06
-1.48643e-07
3.2976e-06
-1.46107e-07
3.25172e-06
-1.31566e-07
3.20766e-06
-1.13655e-07
3.16652e-06
-9.83498e-08
3.12842e-06
-8.73644e-08
3.09289e-06
-7.98585e-08
3.05939e-06
-7.45028e-08
3.02751e-06
-7.05561e-08
2.99697e-06
-6.73972e-08
-6.48565e-08
2.96753e-06
2.85403e-06
1.17152e-07
2.9172e-06
-8.74016e-10
2.94556e-06
1.45185e-08
2.98614e-06
-1.49704e-08
3.02216e-06
-6.19811e-08
3.03204e-06
-9.73374e-08
3.00868e-06
-1.07384e-07
2.96162e-06
-1.01581e-07
2.9059e-06
-9.03919e-08
2.85216e-06
-7.78247e-08
2.80465e-06
-6.61418e-08
2.76365e-06
-5.73494e-08
2.72782e-06
-5.15351e-08
2.69558e-06
-4.76203e-08
2.66577e-06
-4.46869e-08
2.63767e-06
-4.24628e-08
2.61092e-06
-4.06409e-08
-3.91852e-08
2.58525e-06
2.521e-06
4.21386e-08
2.55047e-06
-3.03494e-08
2.57608e-06
-1.10837e-08
2.60769e-06
-4.65878e-08
2.62928e-06
-8.3571e-08
2.62598e-06
-9.40314e-08
2.59727e-06
-7.86751e-08
2.5528e-06
-5.71098e-08
2.50385e-06
-4.1441e-08
2.45763e-06
-3.16126e-08
2.41692e-06
-2.543e-08
2.38173e-06
-2.21553e-08
2.35089e-06
-2.06915e-08
2.32305e-06
-1.9788e-08
2.29728e-06
-1.891e-08
2.27297e-06
-1.81554e-08
2.24982e-06
-1.74884e-08
-1.69825e-08
2.22761e-06
2.15123e-06
2.12088e-06
2.1098e-06
2.06321e-06
1.97964e-06
1.88561e-06
1.80693e-06
1.74982e-06
1.70838e-06
1.67677e-06
1.65134e-06
1.62918e-06
1.60849e-06
1.5887e-06
1.56979e-06
1.55164e-06
1.53415e-06
1.51717e-06
3.45619e-08
-3.45619e-08
7.96769e-08
-4.51151e-08
1.252e-07
-4.55226e-08
1.7091e-07
-4.57101e-08
2.1701e-07
-4.61004e-08
2.63551e-07
-4.65406e-08
3.10544e-07
-4.69934e-08
3.57996e-07
-4.74521e-08
4.05907e-07
-4.79111e-08
4.54271e-07
-4.83634e-08
5.03072e-07
-4.88011e-08
5.52288e-07
-4.92158e-08
6.01887e-07
-4.9599e-08
6.51829e-07
-4.99421e-08
7.02065e-07
-5.02368e-08
7.52541e-07
-5.04755e-08
8.03192e-07
-5.06512e-08
8.5395e-07
-5.07577e-08
9.0474e-07
-5.079e-08
9.55484e-07
-5.07441e-08
1.0061e-06
-5.0617e-08
1.05651e-06
-5.04071e-08
1.10662e-06
-5.01137e-08
1.15636e-06
-4.97375e-08
1.20564e-06
-4.92799e-08
1.25438e-06
-4.87433e-08
1.30251e-06
-4.8131e-08
1.34996e-06
-4.7447e-08
1.39666e-06
-4.66957e-08
1.44254e-06
-4.58822e-08
1.48755e-06
-4.50117e-08
1.53164e-06
-4.40897e-08
1.57476e-06
-4.3122e-08
1.61688e-06
-4.21142e-08
1.65795e-06
-4.10719e-08
1.69795e-06
-4.00007e-08
1.73685e-06
-3.8906e-08
1.77465e-06
-3.77928e-08
1.81131e-06
-3.66661e-08
1.84684e-06
-3.55304e-08
1.88123e-06
-3.43901e-08
1.91448e-06
-3.3249e-08
1.94659e-06
-3.21109e-08
1.97757e-06
-3.09791e-08
2.00743e-06
-2.98565e-08
2.03618e-06
-2.87459e-08
2.06382e-06
-2.76496e-08
2.09039e-06
-2.65698e-08
2.1159e-06
-2.55082e-08
2.14037e-06
-2.44665e-08
2.16382e-06
-2.34461e-08
2.18626e-06
-2.2448e-08
2.20774e-06
-2.14731e-08
2.22826e-06
-2.05223e-08
2.24786e-06
-1.95961e-08
2.26655e-06
-1.86949e-08
2.28437e-06
-1.78191e-08
2.30134e-06
-1.69686e-08
2.31748e-06
-1.61438e-08
2.33283e-06
-1.53444e-08
2.3474e-06
-1.45703e-08
2.36122e-06
-1.38214e-08
2.37431e-06
-1.30974e-08
2.38671e-06
-1.23979e-08
2.39844e-06
-1.17226e-08
2.40951e-06
-1.1071e-08
2.41995e-06
-1.04428e-08
2.42979e-06
-9.83729e-09
2.43904e-06
-9.25416e-09
2.44773e-06
-8.69272e-09
2.45589e-06
-8.1526e-09
2.46352e-06
-7.63311e-09
2.47065e-06
-7.13374e-09
2.47731e-06
-6.65393e-09
2.4835e-06
-6.1931e-09
2.48925e-06
-5.75071e-09
2.49458e-06
-5.32617e-09
2.4995e-06
-4.91892e-09
2.50402e-06
-4.52839e-09
2.50818e-06
-4.15405e-09
2.51197e-06
-3.79534e-09
2.51543e-06
-3.45169e-09
2.51855e-06
-3.12268e-09
2.52136e-06
-2.80767e-09
2.52386e-06
-2.50624e-09
2.52608e-06
-2.21777e-09
2.52802e-06
-1.94194e-09
2.5297e-06
-1.67809e-09
2.53113e-06
-1.42585e-09
2.53231e-06
-1.18448e-09
2.53326e-06
-9.54133e-10
2.534e-06
-7.33335e-10
2.53452e-06
-5.20365e-10
2.53484e-06
-3.19734e-10
2.53496e-06
-1.2386e-10
2.53488e-06
8.03771e-11
2.5346e-06
2.83314e-10
2.53413e-06
4.65206e-10
2.5335e-06
6.29512e-10
2.53272e-06
7.80848e-10
2.5318e-06
9.22552e-10
2.53074e-06
1.05676e-09
2.52956e-06
1.18446e-09
2.52825e-06
1.30634e-09
2.52683e-06
1.42269e-09
2.5253e-06
1.53388e-09
2.52366e-06
1.64014e-09
2.52191e-06
1.74172e-09
2.52007e-06
1.83883e-09
2.51814e-06
1.93171e-09
2.51612e-06
2.0206e-09
2.51402e-06
2.10569e-09
2.51183e-06
2.18718e-09
2.50956e-06
2.26529e-09
2.50722e-06
2.3402e-09
2.50481e-06
2.41215e-09
2.50233e-06
2.48119e-09
2.49978e-06
2.54766e-09
2.49717e-06
2.61146e-09
2.4945e-06
2.67295e-09
2.49177e-06
2.73216e-09
2.48898e-06
2.78937e-09
2.48613e-06
2.8447e-09
2.48323e-06
2.89831e-09
2.48028e-06
2.95026e-09
2.47728e-06
3.00056e-09
2.47423e-06
3.04945e-09
2.47114e-06
3.0969e-09
2.46799e-06
3.14309e-09
2.46481e-06
3.18813e-09
2.46157e-06
3.23203e-09
2.4583e-06
3.27496e-09
2.45498e-06
3.31693e-09
2.45162e-06
3.35806e-09
2.44823e-06
3.39843e-09
2.44479e-06
3.43811e-09
2.44131e-06
3.47711e-09
2.43779e-06
3.51562e-09
2.43424e-06
3.5535e-09
2.43065e-06
3.59092e-09
2.42702e-06
3.62787e-09
2.42336e-06
3.66451e-09
2.41966e-06
3.70094e-09
2.41592e-06
3.73724e-09
2.41215e-06
3.77348e-09
2.40834e-06
3.80977e-09
2.40449e-06
3.84617e-09
2.40061e-06
3.88282e-09
2.39669e-06
3.91983e-09
2.39273e-06
3.95734e-09
2.38873e-06
3.99547e-09
2.3847e-06
4.03448e-09
2.38063e-06
4.07462e-09
2.37651e-06
4.11618e-09
2.37235e-06
4.15956e-09
2.36814e-06
4.20527e-09
2.36389e-06
4.25398e-09
2.35958e-06
4.30645e-09
2.35522e-06
4.36373e-09
2.35079e-06
4.42714e-09
2.34629e-06
4.49843e-09
2.34171e-06
4.57979e-09
2.33704e-06
4.67416e-09
2.33226e-06
4.78534e-09
2.32734e-06
4.91839e-09
2.32226e-06
5.08008e-09
2.31698e-06
5.2794e-09
2.31145e-06
5.52879e-09
2.3056e-06
5.84541e-09
2.29935e-06
6.25334e-09
2.29256e-06
6.78844e-09
2.28506e-06
7.49955e-09
2.27658e-06
8.48306e-09
2.26678e-06
9.79873e-09
2.25482e-06
1.19577e-08
2.24056e-06
1.42617e-08
2.21847e-06
2.20951e-08
2.19442e-06
2.40442e-08
2.11846e-06
7.59604e-08
8.3378e-08
2.03508e-06
3.52373e-08
-6.97992e-08
8.19222e-08
-9.17999e-08
1.28939e-07
-9.2539e-08
1.76095e-07
-9.28669e-08
2.23645e-07
-9.36499e-08
2.71654e-07
-9.45494e-08
3.20142e-07
-9.54823e-08
3.69122e-07
-9.64321e-08
4.18597e-07
-9.73856e-08
4.6856e-07
-9.83267e-08
5.18998e-07
-9.92385e-08
5.69885e-07
-1.00103e-07
6.21187e-07
-1.00901e-07
6.72862e-07
-1.01617e-07
7.24856e-07
-1.02231e-07
7.77108e-07
-1.02728e-07
8.29552e-07
-1.03095e-07
8.82111e-07
-1.03317e-07
9.34707e-07
-1.03386e-07
9.87257e-07
-1.03293e-07
1.03967e-06
-1.03033e-07
1.09187e-06
-1.02602e-07
1.14375e-06
-1.02e-07
1.19524e-06
-1.01228e-07
1.24625e-06
-1.0029e-07
1.2967e-06
-9.91902e-08
1.34651e-06
-9.79367e-08
1.3956e-06
-9.65374e-08
1.4439e-06
-9.50019e-08
1.49136e-06
-9.33404e-08
1.53791e-06
-9.1564e-08
1.58351e-06
-8.96839e-08
1.6281e-06
-8.77118e-08
1.67164e-06
-8.56594e-08
1.71411e-06
-8.3538e-08
1.75547e-06
-8.1359e-08
1.79569e-06
-7.91331e-08
1.83477e-06
-7.68707e-08
1.87269e-06
-7.45818e-08
1.90943e-06
-7.22755e-08
1.945e-06
-6.99603e-08
1.9794e-06
-6.76444e-08
2.01262e-06
-6.5335e-08
2.04468e-06
-6.30387e-08
2.07559e-06
-6.07617e-08
2.10535e-06
-5.85091e-08
2.13399e-06
-5.62858e-08
2.16151e-06
-5.40961e-08
2.18795e-06
-5.19436e-08
2.21331e-06
-4.98315e-08
2.23763e-06
-4.77624e-08
2.26092e-06
-4.57386e-08
2.28321e-06
-4.3762e-08
2.30452e-06
-4.18341e-08
2.32488e-06
-3.99559e-08
2.34431e-06
-3.81284e-08
2.36285e-06
-3.63522e-08
2.38051e-06
-3.46274e-08
2.39732e-06
-3.29544e-08
2.41331e-06
-3.13328e-08
2.4285e-06
-2.97627e-08
2.44292e-06
-2.82433e-08
2.4566e-06
-2.67744e-08
2.46955e-06
-2.53551e-08
2.48182e-06
-2.39847e-08
2.49341e-06
-2.26624e-08
2.50435e-06
-2.13873e-08
2.51467e-06
-2.01584e-08
2.52439e-06
-1.89746e-08
2.53354e-06
-1.7835e-08
2.54212e-06
-1.67384e-08
2.55017e-06
-1.56838e-08
2.55771e-06
-1.46699e-08
2.56475e-06
-1.36956e-08
2.57132e-06
-1.27599e-08
2.57743e-06
-1.18616e-08
2.5831e-06
-1.09995e-08
2.58835e-06
-1.01724e-08
2.59321e-06
-9.37936e-09
2.59767e-06
-8.6191e-09
2.60177e-06
-7.89064e-09
2.60551e-06
-7.19279e-09
2.60891e-06
-6.52461e-09
2.61199e-06
-5.88489e-09
2.61475e-06
-5.27273e-09
2.61722e-06
-4.68702e-09
2.61941e-06
-4.12689e-09
2.62132e-06
-3.59122e-09
2.62297e-06
-3.07909e-09
2.62438e-06
-2.58964e-09
2.62555e-06
-2.12205e-09
2.62649e-06
-1.67536e-09
2.62722e-06
-1.24902e-09
2.62774e-06
-8.41446e-10
2.62807e-06
-4.51749e-10
2.62822e-06
-7.52381e-11
2.62823e-06
2.72847e-10
2.62809e-06
6.09049e-10
2.62779e-06
9.30445e-10
2.62733e-06
1.23744e-09
2.62672e-06
1.53079e-09
2.62597e-06
1.81083e-09
2.62508e-06
2.07819e-09
2.62405e-06
2.33346e-09
2.62289e-06
2.57718e-09
2.62162e-06
2.80992e-09
2.62023e-06
3.03217e-09
2.61872e-06
3.24446e-09
2.61711e-06
3.44723e-09
2.61541e-06
3.64103e-09
2.6136e-06
3.82626e-09
2.6117e-06
4.00343e-09
2.60972e-06
4.17294e-09
2.60765e-06
4.3353e-09
2.6055e-06
4.49075e-09
2.60327e-06
4.63985e-09
2.60097e-06
4.78287e-09
2.59859e-06
4.92014e-09
2.59615e-06
5.05195e-09
2.59365e-06
5.17867e-09
2.59108e-06
5.30061e-09
2.58845e-06
5.41822e-09
2.58576e-06
5.53181e-09
2.58302e-06
5.64163e-09
2.58022e-06
5.74788e-09
2.57737e-06
5.85067e-09
2.57447e-06
5.95021e-09
2.57152e-06
6.04678e-09
2.56852e-06
6.14062e-09
2.56548e-06
6.23188e-09
2.56239e-06
6.3208e-09
2.55926e-06
6.40753e-09
2.55608e-06
6.49224e-09
2.55287e-06
6.5751e-09
2.54961e-06
6.65631e-09
2.54631e-06
6.73592e-09
2.54297e-06
6.81421e-09
2.5396e-06
6.89119e-09
2.53618e-06
6.96692e-09
2.53273e-06
7.04157e-09
2.52925e-06
7.11524e-09
2.52572e-06
7.18814e-09
2.52216e-06
7.26054e-09
2.51857e-06
7.33258e-09
2.51494e-06
7.40443e-09
2.51127e-06
7.47625e-09
2.50757e-06
7.54819e-09
2.50383e-06
7.62045e-09
2.50006e-06
7.6933e-09
2.49625e-06
7.767e-09
2.4924e-06
7.84186e-09
2.48852e-06
7.91834e-09
2.4846e-06
7.9968e-09
2.48063e-06
8.07801e-09
2.47663e-06
8.1626e-09
2.47258e-06
8.2516e-09
2.46849e-06
8.34614e-09
2.46435e-06
8.44783e-09
2.46016e-06
8.55858e-09
2.4559e-06
8.68094e-09
2.45158e-06
8.81817e-09
2.44719e-06
8.97444e-09
2.44271e-06
9.15527e-09
2.43812e-06
9.36792e-09
2.43342e-06
9.6218e-09
2.42857e-06
9.92969e-09
2.42354e-06
1.03085e-08
2.41829e-06
1.07815e-08
2.41275e-06
1.13806e-08
2.40686e-06
1.21504e-08
2.40049e-06
1.3157e-08
2.3935e-06
1.44904e-08
2.38566e-06
1.63219e-08
2.37666e-06
1.87929e-08
2.36596e-06
2.26598e-08
2.35273e-06
2.74973e-08
2.3355e-06
3.93182e-08
2.31063e-06
4.89149e-08
2.28491e-06
1.0168e-07
1.23695e-07
2.2446e-06
3.49923e-08
-1.04791e-07
8.134e-08
-1.38148e-07
1.28083e-07
-1.39282e-07
1.75008e-07
-1.39792e-07
2.2237e-07
-1.41012e-07
2.70242e-07
-1.42422e-07
3.18651e-07
-1.43891e-07
3.67612e-07
-1.45393e-07
4.17132e-07
-1.46905e-07
4.67205e-07
-1.484e-07
5.17816e-07
-1.4985e-07
5.68939e-07
-1.51225e-07
6.20533e-07
-1.52496e-07
6.7255e-07
-1.53634e-07
7.2493e-07
-1.54611e-07
7.77605e-07
-1.55402e-07
8.30496e-07
-1.55986e-07
8.83521e-07
-1.56342e-07
9.36592e-07
-1.56457e-07
9.89615e-07
-1.56317e-07
1.0425e-06
-1.55916e-07
1.09515e-06
-1.55249e-07
1.14746e-06
-1.54317e-07
1.19936e-06
-1.53122e-07
1.25074e-06
-1.51672e-07
1.30152e-06
-1.49976e-07
1.35163e-06
-1.48044e-07
1.40099e-06
-1.45892e-07
1.44952e-06
-1.43533e-07
1.49716e-06
-1.40985e-07
1.54386e-06
-1.38265e-07
1.58957e-06
-1.35391e-07
1.63424e-06
-1.3238e-07
1.67783e-06
-1.2925e-07
1.72031e-06
-1.2602e-07
1.76166e-06
-1.22705e-07
1.80185e-06
-1.19323e-07
1.84087e-06
-1.15889e-07
1.8787e-06
-1.12419e-07
1.91535e-06
-1.08924e-07
1.95081e-06
-1.0542e-07
1.98508e-06
-1.01917e-07
2.01817e-06
-9.84258e-08
2.05009e-06
-9.49569e-08
2.08085e-06
-9.1519e-08
2.11046e-06
-8.81198e-08
2.13894e-06
-8.47665e-08
2.16631e-06
-8.14651e-08
2.19259e-06
-7.82211e-08
2.21779e-06
-7.50389e-08
2.24195e-06
-7.19226e-08
2.26509e-06
-6.88752e-08
2.28723e-06
-6.58996e-08
2.30839e-06
-6.29979e-08
2.32861e-06
-6.01716e-08
2.3479e-06
-5.74219e-08
2.3663e-06
-5.47496e-08
2.38383e-06
-5.21551e-08
2.40051e-06
-4.96386e-08
2.41638e-06
-4.71998e-08
2.43145e-06
-4.48384e-08
2.44576e-06
-4.25535e-08
2.45933e-06
-4.03445e-08
2.47219e-06
-3.82102e-08
2.48435e-06
-3.61495e-08
2.49585e-06
-3.41612e-08
2.50671e-06
-3.22438e-08
2.51695e-06
-3.03958e-08
2.52659e-06
-2.86158e-08
2.53565e-06
-2.69021e-08
2.54417e-06
-2.52531e-08
2.55215e-06
-2.36671e-08
2.55963e-06
-2.21424e-08
2.56661e-06
-2.06773e-08
2.57312e-06
-1.927e-08
2.57917e-06
-1.7919e-08
2.5848e-06
-1.66224e-08
2.59e-06
-1.53786e-08
2.59481e-06
-1.41858e-08
2.59923e-06
-1.30424e-08
2.60329e-06
-1.19467e-08
2.60699e-06
-1.08971e-08
2.61036e-06
-9.89204e-09
2.61341e-06
-8.92986e-09
2.61614e-06
-8.00907e-09
2.61858e-06
-7.12809e-09
2.62074e-06
-6.28549e-09
2.62263e-06
-5.4798e-09
2.62426e-06
-4.70945e-09
2.62565e-06
-3.97338e-09
2.62679e-06
-3.26994e-09
2.62772e-06
-2.59788e-09
2.62842e-06
-1.95514e-09
2.62892e-06
-1.33967e-09
2.62922e-06
-7.54931e-10
2.62935e-06
-2.03795e-10
2.6293e-06
3.282e-10
2.62907e-06
8.34851e-10
2.62868e-06
1.31918e-09
2.62814e-06
1.78126e-09
2.62745e-06
2.2223e-09
2.62661e-06
2.6434e-09
2.62565e-06
3.04537e-09
2.62455e-06
3.42912e-09
2.62333e-06
3.7955e-09
2.622e-06
4.14536e-09
2.62055e-06
4.47941e-09
2.619e-06
4.79846e-09
2.61734e-06
5.10319e-09
2.61559e-06
5.39436e-09
2.61374e-06
5.67272e-09
2.6118e-06
5.93891e-09
2.60978e-06
6.19356e-09
2.60768e-06
6.43737e-09
2.6055e-06
6.67091e-09
2.60325e-06
6.89477e-09
2.60092e-06
7.10945e-09
2.59852e-06
7.31547e-09
2.59606e-06
7.51323e-09
2.59354e-06
7.70332e-09
2.59095e-06
7.88629e-09
2.58831e-06
8.06277e-09
2.58561e-06
8.23312e-09
2.58285e-06
8.39781e-09
2.58004e-06
8.55694e-09
2.57718e-06
8.71092e-09
2.57427e-06
8.86005e-09
2.57131e-06
9.00465e-09
2.56831e-06
9.14511e-09
2.56526e-06
9.28173e-09
2.56217e-06
9.41474e-09
2.55903e-06
9.54448e-09
2.55585e-06
9.67117e-09
2.55263e-06
9.79507e-09
2.54937e-06
9.91637e-09
2.54607e-06
1.00354e-08
2.54273e-06
1.01523e-08
2.53936e-06
1.02672e-08
2.53594e-06
1.03802e-08
2.53249e-06
1.04916e-08
2.52901e-06
1.06015e-08
2.52548e-06
1.07103e-08
2.52193e-06
1.08183e-08
2.51833e-06
1.09258e-08
2.51471e-06
1.10329e-08
2.51104e-06
1.114e-08
2.50734e-06
1.12471e-08
2.50361e-06
1.13548e-08
2.49984e-06
1.14633e-08
2.49603e-06
1.1573e-08
2.49219e-06
1.16845e-08
2.48831e-06
1.17982e-08
2.48439e-06
1.1915e-08
2.48043e-06
1.20357e-08
2.47644e-06
1.21615e-08
2.47239e-06
1.22938e-08
2.4683e-06
1.24343e-08
2.46417e-06
1.25853e-08
2.45998e-06
1.27498e-08
2.45573e-06
1.29315e-08
2.45141e-06
1.31352e-08
2.44702e-06
1.33671e-08
2.44254e-06
1.36353e-08
2.43795e-06
1.39506e-08
2.43325e-06
1.43269e-08
2.42839e-06
1.4783e-08
2.42336e-06
1.53439e-08
2.4181e-06
1.60436e-08
2.41255e-06
1.6929e-08
2.40663e-06
1.80654e-08
2.40024e-06
1.95481e-08
2.39322e-06
2.15095e-08
2.38536e-06
2.41897e-08
2.37632e-06
2.78306e-08
2.36562e-06
3.3354e-08
2.35245e-06
4.06728e-08
2.33636e-06
5.54075e-08
2.31387e-06
7.14071e-08
2.292e-06
1.23544e-07
1.6626e-07
2.24944e-06
3.4417e-08
-1.39208e-07
8.04054e-08
-1.84136e-07
1.26808e-07
-1.85684e-07
1.73425e-07
-1.86409e-07
2.20543e-07
-1.88129e-07
2.68252e-07
-1.9013e-07
3.16589e-07
-1.92229e-07
3.65579e-07
-1.94383e-07
4.15232e-07
-1.96558e-07
4.65545e-07
-1.98713e-07
5.165e-07
-2.00804e-07
5.68063e-07
-2.02788e-07
6.20188e-07
-2.04621e-07
6.72815e-07
-2.0626e-07
7.2587e-07
-2.07666e-07
7.79272e-07
-2.08804e-07
8.32927e-07
-2.09641e-07
8.86738e-07
-2.10154e-07
9.40602e-07
-2.1032e-07
9.94412e-07
-2.10127e-07
1.04806e-06
-2.09565e-07
1.10144e-06
-2.08631e-07
1.15445e-06
-2.07328e-07
1.20699e-06
-2.05662e-07
1.25896e-06
-2.03644e-07
1.31028e-06
-2.01289e-07
1.36085e-06
-1.98616e-07
1.4106e-06
-1.95645e-07
1.45947e-06
-1.92398e-07
1.50738e-06
-1.88899e-07
1.55429e-06
-1.85172e-07
1.60014e-06
-1.81242e-07
1.6449e-06
-1.77135e-07
1.68852e-06
-1.72874e-07
1.73098e-06
-1.68485e-07
1.77227e-06
-1.6399e-07
1.81236e-06
-1.59411e-07
1.85124e-06
-1.54769e-07
1.8889e-06
-1.50084e-07
1.92535e-06
-1.45374e-07
1.96059e-06
-1.40656e-07
1.99462e-06
-1.35945e-07
2.02745e-06
-1.31256e-07
2.05909e-06
-1.26601e-07
2.08956e-06
-1.21992e-07
2.11888e-06
-1.17439e-07
2.14707e-06
-1.1295e-07
2.17414e-06
-1.08534e-07
2.20011e-06
-1.04198e-07
2.22502e-06
-9.99462e-08
2.24888e-06
-9.57849e-08
2.27172e-06
-9.17176e-08
2.29357e-06
-8.77477e-08
2.31445e-06
-8.38777e-08
2.33439e-06
-8.01097e-08
2.35341e-06
-7.64448e-08
2.37155e-06
-7.28841e-08
2.38882e-06
-6.94279e-08
2.40526e-06
-6.60762e-08
2.42089e-06
-6.28286e-08
2.43573e-06
-5.96845e-08
2.44982e-06
-5.66428e-08
2.46318e-06
-5.37023e-08
2.47583e-06
-5.08616e-08
2.4878e-06
-4.81192e-08
2.49911e-06
-4.54731e-08
2.50979e-06
-4.29217e-08
2.51986e-06
-4.04627e-08
2.52934e-06
-3.80943e-08
2.53825e-06
-3.58141e-08
2.54662e-06
-3.36201e-08
2.55446e-06
-3.15099e-08
2.5618e-06
-2.94813e-08
2.56865e-06
-2.7532e-08
2.57504e-06
-2.56598e-08
2.58099e-06
-2.38622e-08
2.5865e-06
-2.21371e-08
2.5916e-06
-2.04822e-08
2.59631e-06
-1.88952e-08
2.60064e-06
-1.73738e-08
2.60461e-06
-1.59159e-08
2.60824e-06
-1.45193e-08
2.61153e-06
-1.31819e-08
2.6145e-06
-1.19016e-08
2.61716e-06
-1.06763e-08
2.61954e-06
-9.504e-09
2.62164e-06
-8.38268e-09
2.62347e-06
-7.31052e-09
2.62504e-06
-6.28538e-09
2.62638e-06
-5.30563e-09
2.62748e-06
-4.36936e-09
2.62835e-06
-3.47473e-09
2.62902e-06
-2.62011e-09
2.62948e-06
-1.80447e-09
2.62976e-06
-1.02791e-09
2.62984e-06
-2.83497e-10
2.62974e-06
4.20314e-10
2.62948e-06
1.09505e-09
2.62906e-06
1.73918e-09
2.62849e-06
2.35414e-09
2.62777e-06
2.94116e-09
2.62691e-06
3.50157e-09
2.62592e-06
4.03656e-09
2.6248e-06
4.54727e-09
2.62356e-06
5.03491e-09
2.62221e-06
5.50048e-09
2.62074e-06
5.94505e-09
2.61917e-06
6.36959e-09
2.6175e-06
6.77515e-09
2.61573e-06
7.16266e-09
2.61387e-06
7.53305e-09
2.61192e-06
7.88731e-09
2.60989e-06
8.22625e-09
2.60778e-06
8.55066e-09
2.60559e-06
8.86145e-09
2.60332e-06
9.15935e-09
2.60099e-06
9.44498e-09
2.59858e-06
9.71901e-09
2.59611e-06
9.98215e-09
2.59358e-06
1.02351e-08
2.59099e-06
1.04786e-08
2.58834e-06
1.07135e-08
2.58563e-06
1.09402e-08
2.58287e-06
1.11592e-08
2.58006e-06
1.13709e-08
2.57719e-06
1.15756e-08
2.57428e-06
1.17739e-08
2.57132e-06
1.19663e-08
2.56831e-06
1.2153e-08