/*--------------------------------*- C++ -*----------------------------------*\
  =========                 |
  \\      /  F ield         | OpenFOAM: The Open Source CFD Toolbox
   \\    /   O peration     | Website:  https://openfoam.org
    \\  /    A nd           | Version:  7
     \\/     M anipulation  |
\*---------------------------------------------------------------------------*/
FoamFile
{
    version     2.0;
    format      ascii;
    class       surfaceScalarField;
    location    "0.002";
    object      phi_0;
}
// * * * * * * * * * * * * * * * * * * * * * * * * * * * * * * * * * * * * * //

dimensions      [0 3 -1 0 0 0 0];

internalField   nonuniform List<scalar> 
24170
(
1.39926e-06
1.80081e-07
1.26457e-06
1.34683e-07
1.13643e-06
1.28144e-07
1.06364e-06
7.27887e-08
1.0426e-06
2.1043e-08
1.05496e-06
-1.23623e-08
1.08491e-06
-2.99454e-08
1.11965e-06
-3.47485e-08
1.1528e-06
-3.31486e-08
1.18187e-06
-2.90639e-08
1.22251e-06
-4.06393e-08
1.25672e-06
-3.42163e-08
1.28203e-06
-2.53125e-08
1.36255e-06
-8.05119e-08
1.43925e-06
-7.67062e-08
1.46258e-06
-2.33293e-08
1.60356e-06
-1.40976e-07
-2.1725e-07
1.82081e-06
1.64131e-06
2.2652e-07
1.62968e-06
1.46311e-07
1.61255e-06
1.45281e-07
1.59913e-06
8.62061e-08
1.59596e-06
2.42104e-08
1.60306e-06
-1.94621e-08
1.62322e-06
-5.01048e-08
1.65404e-06
-6.55709e-08
1.68579e-06
-6.48934e-08
1.72655e-06
-6.98285e-08
1.76868e-06
-8.27636e-08
1.80411e-06
-6.96478e-08
1.85375e-06
-7.49488e-08
1.91527e-06
-1.42032e-07
1.9646e-06
-1.2604e-07
2.05251e-06
-1.11236e-07
2.14865e-06
-2.3712e-07
-3.63731e-07
2.29513e-06
1.76435e-06
2.75275e-07
1.77365e-06
1.37006e-07
1.77959e-06
1.39347e-07
1.76125e-06
1.0454e-07
1.7412e-06
4.42587e-08
1.73967e-06
-1.79227e-08
1.75927e-06
-6.97124e-08
1.79209e-06
-9.83893e-08
1.83504e-06
-1.07837e-07
1.87681e-06
-1.11603e-07
1.91549e-06
-1.21444e-07
1.96393e-06
-1.18091e-07
2.01772e-06
-1.28732e-07
2.05143e-06
-1.7575e-07
2.11688e-06
-1.9149e-07
2.20613e-06
-2.00477e-07
2.28349e-06
-3.14489e-07
-4.51365e-07
2.37113e-06
1.91072e-06
3.12758e-07
1.90623e-06
1.41493e-07
1.91084e-06
1.34737e-07
1.89699e-06
1.1839e-07
1.88145e-06
5.97967e-08
1.88162e-06
-1.80904e-08
1.89953e-06
-8.76212e-08
1.93192e-06
-1.30781e-07
1.97104e-06
-1.46958e-07
2.01307e-06
-1.53634e-07
2.05506e-06
-1.63432e-07
2.10401e-06
-1.67041e-07
2.15142e-06
-1.76135e-07
2.19762e-06
-2.21953e-07
2.26136e-06
-2.55231e-07
2.34381e-06
-2.8293e-07
2.41489e-06
-3.85571e-07
-5.23219e-07
2.48675e-06
2.07912e-06
3.25268e-07
2.05101e-06
1.69611e-07
2.03322e-06
1.52523e-07
2.01788e-06
1.33725e-07
2.01e-06
6.76777e-08
2.01768e-06
-2.57664e-08
2.04062e-06
-1.10566e-07
2.07397e-06
-1.64128e-07
2.11455e-06
-1.8754e-07
2.15846e-06
-1.97542e-07
2.20117e-06
-2.06139e-07
2.24812e-06
-2.13993e-07
2.30114e-06
-2.29158e-07
2.35039e-06
-2.71197e-07
2.40777e-06
-3.12614e-07
2.48207e-06
-3.57231e-07
2.55081e-06
-4.54314e-07
-5.86942e-07
2.61454e-06
2.21605e-06
2.8086e-07
2.21414e-06
1.71522e-07
2.19437e-06
1.72296e-07
2.17377e-06
1.5432e-07
2.16528e-06
7.61719e-08
2.17424e-06
-3.47266e-08
2.19752e-06
-1.33849e-07
2.23103e-06
-1.97637e-07
2.27098e-06
-2.27493e-07
2.31362e-06
-2.40183e-07
2.35764e-06
-2.50152e-07
2.40581e-06
-2.62166e-07
2.45683e-06
-2.80174e-07
2.5057e-06
-3.20072e-07
2.56245e-06
-3.69362e-07
2.63096e-06
-4.25743e-07
2.69258e-06
-5.15936e-07
-6.36482e-07
2.74212e-06
2.38564e-06
3.54962e-07
2.36231e-06
1.94848e-07
2.35916e-06
1.75447e-07
2.35908e-06
1.54405e-07
2.35719e-06
7.8061e-08
2.36143e-06
-3.89646e-08
2.37638e-06
-1.48806e-07
2.40317e-06
-2.24422e-07
2.43898e-06
-2.63309e-07
2.48059e-06
-2.81786e-07
2.52445e-06
-2.94014e-07
2.57065e-06
-3.08367e-07
2.62085e-06
-3.30373e-07
2.67141e-06
-3.70636e-07
2.72408e-06
-4.22026e-07
2.78121e-06
-4.82877e-07
2.83333e-06
-5.6806e-07
-6.79646e-07
2.8765e-06
2.55492e-06
3.24748e-07
2.54519e-06
2.04575e-07
2.55246e-06
1.68176e-07
2.55124e-06
1.55624e-07
2.54111e-06
8.8191e-08
2.53644e-06
-3.42913e-08
2.54838e-06
-1.60749e-07
2.5758e-06
-2.51841e-07
2.61349e-06
-3.00995e-07
2.65581e-06
-3.24108e-07
2.69994e-06
-3.38142e-07
2.74626e-06
-3.54694e-07
2.79474e-06
-3.78849e-07
2.84205e-06
-4.17941e-07
2.88967e-06
-4.69649e-07
2.93993e-06
-5.33136e-07
2.98528e-06
-6.13414e-07
-7.124e-07
3.01804e-06
2.76767e-06
3.27682e-07
2.77245e-06
1.99795e-07
2.7545e-06
1.86132e-07
2.72784e-06
1.82283e-07
2.71306e-06
1.0297e-07
2.71774e-06
-3.89711e-08
2.73827e-06
-1.81286e-07
2.76933e-06
-2.829e-07
2.80644e-06
-3.38096e-07
2.84677e-06
-3.64447e-07
2.88902e-06
-3.80388e-07
2.93245e-06
-3.98124e-07
2.97707e-06
-4.23471e-07
3.02146e-06
-4.62327e-07
3.0646e-06
-5.12787e-07
3.10559e-06
-5.74135e-07
3.13949e-06
-6.47305e-07
-7.34496e-07
3.16158e-06
2.93046e-06
4.21753e-07
2.92648e-06
2.03772e-07
2.9267e-06
1.85918e-07
2.92303e-06
1.85954e-07
2.92034e-06
1.05656e-07
2.92629e-06
-4.49205e-08
2.94461e-06
-1.99606e-07
2.97297e-06
-3.11259e-07
3.00802e-06
-3.73152e-07
3.04673e-06
-4.03156e-07
3.08703e-06
-4.20683e-07
3.12813e-06
-4.39223e-07
3.16953e-06
-4.64874e-07
3.20915e-06
-5.01943e-07
3.24557e-06
-5.49208e-07
3.27836e-06
-6.06932e-07
3.3043e-06
-6.73242e-07
-7.49095e-07
3.3189e-06
3.21363e-06
3.46219e-07
3.20586e-06
2.11542e-07
3.17719e-06
2.14583e-07
3.16005e-06
2.03102e-07
3.15834e-06
1.07367e-07
3.16642e-06
-5.30013e-08
3.18129e-06
-2.14476e-07
3.20302e-06
-3.32998e-07
3.23122e-06
-4.01346e-07
3.26413e-06
-4.36071e-07
3.29975e-06
-4.56301e-07
3.33637e-06
-4.75841e-07
3.37248e-06
-5.00979e-07
3.40636e-06
-5.35824e-07
3.43648e-06
-5.79335e-07
3.46114e-06
-6.31593e-07
3.47742e-06
-6.89521e-07
-7.53708e-07
3.48203e-06
2.88066e-06
3.43545e-07
2.88189e-06
2.10315e-07
2.86216e-06
2.34312e-07
2.846e-06
2.1926e-07
2.84031e-06
1.13058e-07
2.84275e-06
-5.54344e-08
2.85435e-06
-2.26075e-07
2.87442e-06
-3.53069e-07
2.90034e-06
-4.27274e-07
2.92911e-06
-4.64833e-07
2.95849e-06
-4.85684e-07
2.98715e-06
-5.04506e-07
3.01418e-06
-5.28005e-07
3.03832e-06
-5.59968e-07
3.05825e-06
-5.99267e-07
3.07277e-06
-6.46108e-07
3.08018e-06
-6.96926e-07
-7.52085e-07
3.07855e-06
3.52898e-06
3.79064e-07
3.49563e-06
2.43671e-07
3.47999e-06
2.49945e-07
3.47e-06
2.29253e-07
3.4625e-06
1.20556e-07
3.46415e-06
-5.70842e-08
3.47839e-06
-2.40314e-07
3.50254e-06
-3.77218e-07
3.53199e-06
-4.56727e-07
3.56303e-06
-4.95867e-07
3.59343e-06
-5.16082e-07
3.62197e-06
-5.33055e-07
3.64772e-06
-5.53752e-07
3.66944e-06
-5.81691e-07
3.6859e-06
-6.15727e-07
3.69569e-06
-6.55892e-07
3.6971e-06
-6.98342e-07
-7.43302e-07
3.68832e-06
4.21302e-06
4.71678e-07
4.19222e-06
2.64465e-07
4.20236e-06
2.39805e-07
4.20558e-06
2.26037e-07
4.20807e-06
1.18066e-07
4.21825e-06
-6.7267e-08
4.23894e-06
-2.60998e-07
4.26717e-06
-4.05455e-07
4.29885e-06
-4.88402e-07
4.33055e-06
-5.27568e-07
4.36017e-06
-5.45708e-07
4.3865e-06
-5.59384e-07
4.40864e-06
-5.75884e-07
4.42544e-06
-5.9849e-07
4.43568e-06
-6.2597e-07
4.438e-06
-6.58212e-07
4.4311e-06
-6.91445e-07
-7.26004e-07
4.4138e-06
5.25907e-06
5.47663e-07
5.18403e-06
3.39513e-07
5.17412e-06
2.49709e-07
5.18844e-06
2.11723e-07
5.19931e-06
1.07191e-07
5.20694e-06
-7.48945e-08
5.21573e-06
-2.6979e-07
5.23001e-06
-4.1973e-07
5.24935e-06
-5.0775e-07
5.27098e-06
-5.4919e-07
5.292e-06
-5.66736e-07
5.3102e-06
-5.77576e-07
5.32389e-06
-5.89579e-07
5.3316e-06
-6.06199e-07
5.33206e-06
-6.26432e-07
5.32399e-06
-6.50145e-07
5.30641e-06
-6.73865e-07
-6.981e-07
5.27851e-06
6.23943e-06
3.25377e-07
6.31482e-06
2.64127e-07
6.3398e-06
2.24731e-07
6.35253e-06
1.98987e-07
6.3586e-06
1.01127e-07
6.36242e-06
-7.87171e-08
6.3688e-06
-2.76171e-07
6.37849e-06
-4.2942e-07
6.39064e-06
-5.199e-07
6.4032e-06
-5.61745e-07
6.41392e-06
-5.77461e-07
6.42088e-06
-5.8453e-07
6.42253e-06
-5.9123e-07
6.41758e-06
-6.01253e-07
6.40492e-06
-6.13769e-07
6.38351e-06
-6.2874e-07
6.35281e-06
-6.4316e-07
-6.57729e-07
6.31244e-06
7.87265e-06
1.94986e-07
7.85968e-06
2.771e-07
7.81806e-06
2.66349e-07
7.79274e-06
2.24303e-07
7.78165e-06
1.1222e-07
7.77896e-06
-7.60257e-08
7.77971e-06
-2.7692e-07
7.78058e-06
-4.30289e-07
7.78019e-06
-5.19517e-07
7.77782e-06
-5.59372e-07
7.7724e-06
-5.7204e-07
7.7625e-06
-5.74632e-07
7.74691e-06
-5.7564e-07
7.72456e-06
-5.78907e-07
7.69467e-06
-5.83879e-07
7.65657e-06
-5.90634e-07
7.6101e-06
-5.96693e-07
-6.02854e-07
7.55523e-06
9.55498e-06
4.01847e-07
9.55428e-06
2.77801e-07
9.60464e-06
2.15983e-07
9.64462e-06
1.84329e-07
9.65059e-06
1.06247e-07
9.6243e-06
-4.97335e-08
9.58055e-06
-2.33172e-07
9.53579e-06
-3.85527e-07
9.4964e-06
-4.80125e-07
9.46118e-06
-5.24153e-07
9.4269e-06
-5.37758e-07
9.3907e-06
-5.38432e-07
9.35065e-06
-5.35592e-07
9.30525e-06
-5.33513e-07
9.25367e-06
-5.32292e-07
9.19532e-06
-5.32286e-07
9.13028e-06
-5.31659e-07
-5.31224e-07
9.05865e-06
1.16575e-05
4.72355e-07
1.16019e-05
3.33436e-07
1.15569e-05
2.60945e-07
1.1532e-05
2.09282e-07
1.15246e-05
1.13645e-07
1.1523e-05
-4.81415e-08
1.15207e-05
-2.30881e-07
1.15093e-05
-3.74165e-07
1.14855e-05
-4.56294e-07
1.14499e-05
-4.88574e-07
1.14044e-05
-4.92208e-07
1.13503e-05
-4.84416e-07
1.1289e-05
-4.74212e-07
1.12208e-05
-4.65349e-07
1.11464e-05
-4.57883e-07
1.10661e-05
-4.51967e-07
1.09805e-05
-4.46112e-07
-4.40955e-07
1.08903e-05
8.41434e-06
3.38586e-07
8.46527e-06
2.82505e-07
8.49327e-06
2.32947e-07
8.50641e-06
1.96142e-07
8.51406e-06
1.05991e-07
8.51643e-06
-5.05077e-08
8.5044e-06
-2.18855e-07
8.47767e-06
-3.47435e-07
8.43958e-06
-4.18203e-07
8.39371e-06
-4.42708e-07
8.34281e-06
-4.41302e-07
8.28834e-06
-4.29948e-07
8.23096e-06
-4.16838e-07
8.1709e-06
-4.05284e-07
8.10838e-06
-3.95368e-07
8.04357e-06
-3.8715e-07
7.97683e-06
-3.79373e-07
-3.7257e-07
7.90844e-06
7.24661e-06
2.95337e-07
7.31686e-06
2.12258e-07
7.37484e-06
1.74961e-07
7.42233e-06
1.48655e-07
7.45264e-06
7.56826e-08
7.45922e-06
-5.70886e-08
7.44361e-06
-2.03243e-07
7.41071e-06
-3.14532e-07
7.36687e-06
-3.74368e-07
7.31716e-06
-3.92998e-07
7.26438e-06
-3.88523e-07
7.20963e-06
-3.75191e-07
7.15329e-06
-3.60499e-07
7.09553e-06
-3.47528e-07
7.0366e-06
-3.36435e-07
6.97665e-06
-3.27204e-07
6.91601e-06
-3.18735e-07
-3.11396e-07
6.85484e-06
6.52555e-06
3.49604e-07
6.47723e-06
2.60583e-07
6.44509e-06
2.07097e-07
6.44213e-06
1.51622e-07
6.45863e-06
5.91748e-08
6.4715e-06
-6.99533e-08
6.47018e-06
-2.01924e-07
6.45143e-06
-2.9578e-07
6.41852e-06
-3.41461e-07
6.37626e-06
-3.5074e-07
6.32842e-06
-3.40684e-07
6.27738e-06
-3.24143e-07
6.22453e-06
-3.07657e-07
6.17068e-06
-2.9367e-07
6.11631e-06
-2.82066e-07
6.06168e-06
-2.72577e-07
6.00709e-06
-2.6414e-07
-2.5695e-07
5.95264e-06
5.49886e-06
3.54091e-07
5.61053e-06
1.48914e-07
5.68423e-06
1.33401e-07
5.701e-06
1.34852e-07
5.68625e-06
7.39207e-08
5.66661e-06
-5.0308e-08
5.64725e-06
-1.82565e-07
5.6257e-06
-2.74231e-07
5.59721e-06
-3.12974e-07
5.56063e-06
-3.14156e-07
5.51759e-06
-2.97647e-07
5.47051e-06
-2.77064e-07
5.42143e-06
-2.58579e-07
5.37163e-06
-2.43865e-07
5.32181e-06
-2.32246e-07
5.27228e-06
-2.23048e-07
5.22328e-06
-2.15142e-07
-2.08534e-07
5.17486e-06
4.92112e-06
3.48505e-07
4.90984e-06
1.60198e-07
4.92437e-06
1.18867e-07
4.93345e-06
1.25781e-07
4.94148e-06
6.58862e-08
4.94681e-06
-5.56334e-08
4.9446e-06
-1.80358e-07
4.92873e-06
-2.58366e-07
4.89991e-06
-2.8415e-07
4.86175e-06
-2.75997e-07
4.8181e-06
-2.53995e-07
4.77194e-06
-2.30907e-07
4.72519e-06
-2.11828e-07
4.67879e-06
-1.97465e-07
4.63315e-06
-1.86607e-07
4.58836e-06
-1.78261e-07
4.54451e-06
-1.7129e-07
-1.65563e-07
4.50154e-06
4.30363e-06
2.71564e-07
4.30939e-06
1.54441e-07
4.3216e-06
1.0665e-07
4.35315e-06
9.42347e-08
4.38596e-06
3.30727e-08
4.40387e-06
-7.35343e-08
4.3925e-06
-1.68992e-07
4.35774e-06
-2.23605e-07
4.31108e-06
-2.37492e-07
4.26105e-06
-2.25962e-07
4.2117e-06
-2.04653e-07
4.1644e-06
-1.83604e-07
4.1193e-06
-1.66728e-07
4.07611e-06
-1.54277e-07
4.03452e-06
-1.45017e-07
3.99426e-06
-1.37997e-07
3.95521e-06
-1.32236e-07
-1.27555e-07
3.9172e-06
3.73227e-06
3.00204e-07
3.76884e-06
1.17866e-07
3.79584e-06
7.96546e-08
3.82799e-06
6.20813e-08
3.86415e-06
-3.0831e-09
3.87715e-06
-8.65361e-08
3.8615e-06
-1.53344e-07
3.82401e-06
-1.86115e-07
3.77633e-06
-1.89813e-07
3.72636e-06
-1.75995e-07
3.67801e-06
-1.56302e-07
3.63271e-06
-1.38299e-07
3.59053e-06
-1.24554e-07
3.55096e-06
-1.14703e-07
3.51342e-06
-1.07478e-07
3.47747e-06
-1.02047e-07
3.44287e-06
-9.76325e-08
-9.40628e-08
3.40937e-06
3.25452e-06
2.15163e-07
3.30909e-06
6.32957e-08
3.34292e-06
4.58194e-08
3.37743e-06
2.75774e-08
3.39994e-06
-2.56023e-08
3.40122e-06
-8.78167e-08
3.37881e-06
-1.30934e-07
3.34094e-06
-1.4824e-07
3.2963e-06
-1.45173e-07
3.2507e-06
-1.30399e-07
3.20695e-06
-1.12551e-07
3.16611e-06
-9.74596e-08
3.12826e-06
-8.66989e-08
3.09292e-06
-7.93688e-08
3.05959e-06
-7.41394e-08
3.02782e-06
-7.02828e-08
2.99738e-06
-6.71892e-08
-6.4696e-08
2.96801e-06
2.84804e-06
7.97018e-08
2.9137e-06
-2.35703e-09
2.94371e-06
1.58092e-08
2.98549e-06
-1.42037e-08
3.02174e-06
-6.18579e-08
3.03107e-06
-9.71443e-08
3.00698e-06
-1.06842e-07
2.95958e-06
-1.00839e-07
2.90402e-06
-8.9609e-08
2.8507e-06
-7.70842e-08
2.80367e-06
-6.55167e-08
2.76308e-06
-5.68708e-08
2.72756e-06
-5.11809e-08
2.69555e-06
-4.73546e-08
2.66589e-06
-4.44855e-08
2.63792e-06
-4.23095e-08
2.61125e-06
-4.05236e-08
-3.90942e-08
2.58565e-06
2.51797e-06
1.49705e-08
2.54753e-06
-3.19135e-08
2.57423e-06
-1.08887e-08
2.60677e-06
-4.67455e-08
2.62859e-06
-8.36784e-08
2.62498e-06
-9.35383e-08
2.59592e-06
-7.77776e-08
2.55136e-06
-5.62789e-08
2.50261e-06
-4.08642e-08
2.45676e-06
-3.1237e-08
2.41644e-06
-2.51914e-08
2.38158e-06
-2.20078e-08
2.35099e-06
-2.05905e-08
2.32334e-06
-1.97075e-08
2.2977e-06
-1.88446e-08
2.27349e-06
-1.81046e-08
2.25042e-06
-1.74492e-08
-1.69522e-08
2.22828e-06
2.1513e-06
2.11939e-06
2.1085e-06
2.06175e-06
1.97807e-06
1.88454e-06
1.80676e-06
1.75048e-06
1.70962e-06
1.67838e-06
1.65319e-06
1.63118e-06
1.61059e-06
1.59088e-06
1.57204e-06
1.55393e-06
1.53648e-06
1.51953e-06
3.47601e-08
-3.47601e-08
8.004e-08
-4.52798e-08
1.2572e-07
-4.56799e-08
1.71587e-07
-4.58671e-08
2.17843e-07
-4.62557e-08
2.64536e-07
-4.6693e-08
3.11678e-07
-4.71422e-08
3.59274e-07
-4.75965e-08
4.07325e-07
-4.80504e-08
4.55822e-07
-4.84969e-08
5.0475e-07
-4.89284e-08
5.54087e-07
-4.93365e-08
6.03799e-07
-4.97126e-08
6.53848e-07
-5.00483e-08
7.04183e-07
-5.03355e-08
7.5475e-07
-5.05666e-08
8.05484e-07
-5.07346e-08
8.56318e-07
-5.08335e-08
9.07176e-07
-5.08584e-08
9.57981e-07
-5.08051e-08
1.00865e-06
-5.0671e-08
1.05911e-06
-5.04544e-08
1.10926e-06
-5.01547e-08
1.15903e-06
-4.97724e-08
1.20834e-06
-4.93092e-08
1.25711e-06
-4.87674e-08
1.30526e-06
-4.81503e-08
1.35272e-06
-4.74619e-08
1.39943e-06
-4.67066e-08
1.44532e-06
-4.58895e-08
1.49033e-06
-4.50157e-08
1.53443e-06
-4.40909e-08
1.57755e-06
-4.31207e-08
1.61966e-06
-4.21107e-08
1.66072e-06
-4.10665e-08
1.70072e-06
-3.99937e-08
1.73961e-06
-3.88976e-08
1.7774e-06
-3.77833e-08
1.81405e-06
-3.66556e-08
1.84957e-06
-3.55192e-08
1.88395e-06
-3.43783e-08
1.91719e-06
-3.32369e-08
1.94929e-06
-3.20985e-08
1.98025e-06
-3.09665e-08
2.0101e-06
-2.98438e-08
2.03883e-06
-2.87332e-08
2.06647e-06
-2.7637e-08
2.09302e-06
-2.65573e-08
2.11852e-06
-2.54959e-08
2.14297e-06
-2.44545e-08
2.16641e-06
-2.34343e-08
2.18884e-06
-2.24365e-08
2.21031e-06
-2.14619e-08
2.23082e-06
-2.05115e-08
2.2504e-06
-1.95856e-08
2.26909e-06
-1.86847e-08
2.2869e-06
-1.78093e-08
2.30386e-06
-1.69592e-08
2.31999e-06
-1.61347e-08
2.33533e-06
-1.53356e-08
2.34989e-06
-1.45619e-08
2.3637e-06
-1.38133e-08
2.37679e-06
-1.30897e-08
2.38918e-06
-1.23905e-08
2.4009e-06
-1.17155e-08
2.41196e-06
-1.10642e-08
2.4224e-06
-1.04362e-08
2.43223e-06
-9.83101e-09
2.44148e-06
-9.24814e-09
2.45016e-06
-8.68695e-09
2.45831e-06
-8.14707e-09
2.46594e-06
-7.62781e-09
2.47307e-06
-7.12866e-09
2.47972e-06
-6.64906e-09
2.48591e-06
-6.18843e-09
2.49165e-06
-5.74623e-09
2.49697e-06
-5.32186e-09
2.50189e-06
-4.91478e-09
2.50641e-06
-4.52441e-09
2.51056e-06
-4.15023e-09
2.51435e-06
-3.79166e-09
2.5178e-06
-3.44815e-09
2.52092e-06
-3.11926e-09
2.52373e-06
-2.80437e-09
2.52623e-06
-2.50304e-09
2.52844e-06
-2.21468e-09
2.53038e-06
-1.93894e-09
2.53206e-06
-1.67518e-09
2.53348e-06
-1.42303e-09
2.53466e-06
-1.18176e-09
2.53561e-06
-9.51498e-10
2.53635e-06
-7.30752e-10
2.53686e-06
-5.17865e-10
2.53718e-06
-3.1731e-10
2.5373e-06
-1.21373e-10
2.53722e-06
8.2999e-11
2.53693e-06
2.85658e-10
2.53647e-06
4.6727e-10
2.53583e-06
6.31394e-10
2.53505e-06
7.82631e-10
2.53413e-06
9.24292e-10
2.53307e-06
1.05849e-09
2.53188e-06
1.18618e-09
2.53058e-06
1.30807e-09
2.52915e-06
1.42442e-09
2.52762e-06
1.53561e-09
2.52597e-06
1.64188e-09
2.52423e-06
1.74345e-09
2.52239e-06
1.84056e-09
2.52046e-06
1.93344e-09
2.51843e-06
2.02233e-09
2.51633e-06
2.10742e-09
2.51414e-06
2.18891e-09
2.51187e-06
2.26702e-09
2.50953e-06
2.34193e-09
2.50711e-06
2.41389e-09
2.50463e-06
2.48294e-09
2.50208e-06
2.54941e-09
2.49947e-06
2.61321e-09
2.49679e-06
2.67471e-09
2.49406e-06
2.73393e-09
2.49127e-06
2.79116e-09
2.48842e-06
2.84651e-09
2.48552e-06
2.90014e-09
2.48257e-06
2.9521e-09
2.47957e-06
3.00241e-09
2.47652e-06
3.05131e-09
2.47342e-06
3.09877e-09
2.47027e-06
3.14497e-09
2.46708e-06
3.19001e-09
2.46385e-06
3.23392e-09
2.46057e-06
3.27685e-09
2.45725e-06
3.31883e-09
2.45389e-06
3.35997e-09
2.45049e-06
3.40034e-09
2.44705e-06
3.44003e-09
2.44357e-06
3.47904e-09
2.44006e-06
3.51755e-09
2.4365e-06
3.55544e-09
2.43291e-06
3.59285e-09
2.42928e-06
3.62981e-09
2.42561e-06
3.66647e-09
2.42191e-06
3.70291e-09
2.41817e-06
3.73924e-09
2.41439e-06
3.7755e-09
2.41058e-06
3.81181e-09
2.40673e-06
3.84823e-09
2.40285e-06
3.8849e-09
2.39893e-06
3.92193e-09
2.39497e-06
3.95946e-09
2.39097e-06
3.99759e-09
2.38693e-06
4.03663e-09
2.38286e-06
4.07679e-09
2.37874e-06
4.11836e-09
2.37458e-06
4.16176e-09
2.37037e-06
4.20749e-09
2.36611e-06
4.25621e-09
2.3618e-06
4.30871e-09
2.35744e-06
4.366e-09
2.35301e-06
4.42944e-09
2.34851e-06
4.50075e-09
2.34393e-06
4.58214e-09
2.33925e-06
4.67655e-09
2.33446e-06
4.78776e-09
2.32954e-06
4.92086e-09
2.32446e-06
5.08261e-09
2.31918e-06
5.28199e-09
2.31364e-06
5.53148e-09
2.3078e-06
5.84821e-09
2.30154e-06
6.25628e-09
2.29475e-06
6.79156e-09
2.28725e-06
7.50296e-09
2.27876e-06
8.48665e-09
2.26896e-06
9.80345e-09
2.25699e-06
1.19608e-08
2.24272e-06
1.4273e-08
2.22064e-06
2.20863e-08
2.19655e-06
2.40845e-08
2.12063e-06
7.59251e-08
8.34609e-08
2.03717e-06
3.54372e-08
-7.01973e-08
8.22851e-08
-9.21277e-08
1.29457e-07
-9.28522e-08
1.7677e-07
-9.31794e-08
2.24473e-07
-9.39589e-08
2.72632e-07
-9.48524e-08
3.21268e-07
-9.57776e-08
3.70389e-07
-9.67183e-08
4.2e-07
-9.76611e-08
4.70094e-07
-9.85905e-08
5.20655e-07
-9.94893e-08
5.71658e-07
-1.0034e-07
6.23069e-07
-1.01124e-07
6.74845e-07
-1.01824e-07
7.26932e-07
-1.02423e-07
7.79269e-07
-1.02904e-07
8.3179e-07
-1.03255e-07
8.84418e-07
-1.03462e-07
9.37076e-07
-1.03516e-07
9.89679e-07
-1.03408e-07
1.04214e-06
-1.03134e-07
1.09438e-06
-1.02689e-07
1.1463e-06
-1.02074e-07
1.19781e-06
-1.0129e-07
1.24884e-06
-1.0034e-07
1.29931e-06
-9.92303e-08
1.34912e-06
-9.79672e-08
1.39822e-06
-9.65591e-08
1.44653e-06
-9.50157e-08
1.49399e-06
-9.3347e-08
1.54054e-06
-9.15642e-08
1.58612e-06
-8.96785e-08
1.6307e-06
-8.77014e-08
1.67424e-06
-8.56447e-08
1.71669e-06
-8.35196e-08
1.75804e-06
-8.13374e-08
1.79825e-06
-7.91089e-08
1.83731e-06
-7.68444e-08
1.87521e-06
-7.45537e-08
1.91193e-06
-7.2246e-08
1.94748e-06
-6.99299e-08
1.98186e-06
-6.76132e-08
2.01507e-06
-6.53033e-08
2.04711e-06
-6.30068e-08
2.07799e-06
-6.07297e-08
2.10774e-06
-5.84773e-08
2.13635e-06
-5.62543e-08
2.16386e-06
-5.4065e-08
2.19028e-06
-5.19131e-08
2.21563e-06
-4.98015e-08
2.23992e-06
-4.77331e-08
2.2632e-06
-4.57101e-08
2.28547e-06
-4.37343e-08
2.30677e-06
-4.18072e-08
2.32711e-06
-3.99299e-08
2.34653e-06
-3.81032e-08
2.36505e-06
-3.63278e-08
2.38269e-06
-3.46039e-08
2.39949e-06
-3.29317e-08
2.41546e-06
-3.1311e-08
2.43064e-06
-2.97417e-08
2.44505e-06
-2.82231e-08
2.45872e-06
-2.6755e-08
2.47167e-06
-2.53364e-08
2.48392e-06
-2.39668e-08
2.4955e-06
-2.26452e-08
2.50643e-06
-2.13708e-08
2.51674e-06
-2.01426e-08
2.52646e-06
-1.89595e-08
2.53559e-06
-1.78205e-08
2.54417e-06
-1.67245e-08
2.55221e-06
-1.56704e-08
2.55974e-06
-1.4657e-08
2.56677e-06
-1.36833e-08
2.57333e-06
-1.27481e-08
2.57943e-06
-1.18502e-08
2.5851e-06
-1.09886e-08
2.59035e-06
-1.01619e-08
2.59519e-06
-9.3693e-09
2.59965e-06
-8.60942e-09
2.60374e-06
-7.88133e-09
2.60748e-06
-7.18383e-09
2.61087e-06
-6.51597e-09
2.61395e-06
-5.87656e-09
2.61671e-06
-5.26469e-09
2.61917e-06
-4.67925e-09
2.62135e-06
-4.11938e-09
2.62326e-06
-3.58395e-09
2.62491e-06
-3.07205e-09
2.62631e-06
-2.58283e-09
2.62748e-06
-2.11547e-09
2.62841e-06
-1.66898e-09
2.62914e-06
-1.24283e-09
2.62966e-06
-8.3541e-10
2.62998e-06
-4.45888e-10
2.63013e-06
-6.93938e-11
2.63014e-06
2.78317e-10
2.63e-06
6.1447e-10
2.62969e-06
9.35777e-10
2.62923e-06
1.24269e-09
2.62862e-06
1.53595e-09
2.62786e-06
1.81592e-09
2.62696e-06
2.08321e-09
2.62593e-06
2.33841e-09
2.62478e-06
2.58208e-09
2.6235e-06
2.81475e-09
2.6221e-06
3.03695e-09
2.6206e-06
3.24918e-09
2.61899e-06
3.45189e-09
2.61727e-06
3.64564e-09
2.61546e-06
3.83083e-09
2.61356e-06
4.00795e-09
2.61158e-06
4.17743e-09
2.6095e-06
4.33976e-09
2.60735e-06
4.49518e-09
2.60512e-06
4.64425e-09
2.60281e-06
4.78726e-09
2.60044e-06
4.92451e-09
2.598e-06
5.0563e-09
2.59549e-06
5.183e-09
2.59292e-06
5.30494e-09
2.59029e-06
5.42256e-09
2.5876e-06
5.53618e-09
2.58485e-06
5.64602e-09
2.58205e-06
5.75228e-09
2.5792e-06
5.85507e-09
2.57629e-06
5.95462e-09
2.57334e-06
6.05119e-09
2.57034e-06
6.14503e-09
2.5673e-06
6.2363e-09
2.5642e-06
6.32523e-09
2.56107e-06
6.41196e-09
2.55789e-06
6.49667e-09
2.55467e-06
6.57954e-09
2.55141e-06
6.66076e-09
2.54811e-06
6.74037e-09
2.54477e-06
6.81867e-09
2.54139e-06
6.89565e-09
2.53798e-06
6.97139e-09
2.53452e-06
7.04605e-09
2.53103e-06
7.11973e-09
2.52751e-06
7.19265e-09
2.52395e-06
7.26509e-09
2.52035e-06
7.33717e-09
2.51671e-06
7.40907e-09
2.51305e-06
7.48093e-09
2.50934e-06
7.55291e-09
2.5056e-06
7.62521e-09
2.50182e-06
7.6981e-09
2.49801e-06
7.77184e-09
2.49416e-06
7.84673e-09
2.49028e-06
7.92326e-09
2.48635e-06
8.00176e-09
2.48239e-06
8.083e-09
2.47838e-06
8.16764e-09
2.47433e-06
8.25668e-09
2.47024e-06
8.35127e-09
2.46609e-06
8.45301e-09
2.46189e-06
8.56381e-09
2.45764e-06
8.68623e-09
2.45331e-06
8.82353e-09
2.44892e-06
8.97988e-09
2.44443e-06
9.16081e-09
2.43985e-06
9.37356e-09
2.43514e-06
9.62757e-09
2.43029e-06
9.93562e-09
2.42525e-06
1.03147e-08
2.42e-06
1.07879e-08
2.41446e-06
1.13873e-08
2.40856e-06
1.21575e-08
2.40218e-06
1.31646e-08
2.39519e-06
1.44989e-08
2.38734e-06
1.63311e-08
2.37834e-06
1.88044e-08
2.36763e-06
2.26704e-08
2.35439e-06
2.75189e-08
2.33715e-06
3.93215e-08
2.31226e-06
4.89741e-08
2.28652e-06
1.01671e-07
1.23835e-07
2.24614e-06
3.51989e-08
-1.05396e-07
8.17175e-08
-1.38646e-07
1.28624e-07
-1.39759e-07
1.75712e-07
-1.40267e-07
2.23234e-07
-1.41481e-07
2.71263e-07
-1.42881e-07
3.19824e-07
-1.44339e-07
3.68932e-07
-1.45826e-07
4.18592e-07
-1.47321e-07
4.68799e-07
-1.48797e-07
5.19536e-07
-1.50227e-07
5.70776e-07
-1.5158e-07
6.22481e-07
-1.52828e-07
6.74599e-07
-1.53942e-07
7.27072e-07
-1.54895e-07
7.7983e-07
-1.55662e-07
8.32797e-07
-1.56222e-07
8.85889e-07
-1.56554e-07
9.39018e-07
-1.56645e-07
9.92093e-07
-1.56483e-07
1.04502e-06
-1.5606e-07
1.0977e-06
-1.55373e-07
1.15005e-06
-1.54421e-07
1.20197e-06
-1.53208e-07
1.25337e-06
-1.51741e-07
1.30417e-06
-1.50029e-07
1.35428e-06
-1.48083e-07
1.40364e-06
-1.45917e-07
1.45217e-06
-1.43547e-07
1.49981e-06
-1.40989e-07
1.54651e-06
-1.38259e-07
1.59221e-06
-1.35376e-07
1.63686e-06
-1.32358e-07
1.68044e-06
-1.29222e-07
1.72291e-06
-1.25986e-07
1.76424e-06
-1.22667e-07
1.80441e-06
-1.19282e-07
1.84341e-06
-1.15845e-07
1.88123e-06
-1.12372e-07
1.91786e-06
-1.08876e-07
1.9533e-06
-1.0537e-07
1.98755e-06
-1.01866e-07
2.02062e-06
-9.83741e-08
2.05252e-06
-9.4905e-08
2.08326e-06
-9.14672e-08
2.11285e-06
-8.80684e-08
2.14131e-06
-8.47156e-08
2.16866e-06
-8.1415e-08
2.19492e-06
-7.81718e-08
2.22011e-06
-7.49907e-08
2.24425e-06
-7.18755e-08
2.26737e-06
-6.88293e-08
2.28949e-06
-6.5855e-08
2.31064e-06
-6.29546e-08
2.33084e-06
-6.01296e-08
2.35012e-06
-5.73813e-08
2.3685e-06
-5.47104e-08
2.38601e-06
-5.21173e-08
2.40268e-06
-4.96021e-08
2.41854e-06
-4.71647e-08
2.4336e-06
-4.48045e-08
2.4479e-06
-4.25209e-08
2.46145e-06
-4.03131e-08
2.4743e-06
-3.81801e-08
2.48645e-06
-3.61206e-08
2.49794e-06
-3.41334e-08
2.50879e-06
-3.22171e-08
2.51901e-06
-3.03703e-08
2.52865e-06
-2.85913e-08
2.5377e-06
-2.68785e-08
2.54621e-06
-2.52305e-08
2.55418e-06
-2.36454e-08
2.56165e-06
-2.21215e-08
2.56862e-06
-2.06573e-08
2.57513e-06
-1.92509e-08
2.58118e-06
-1.79006e-08
2.58679e-06
-1.66048e-08
2.59199e-06
-1.53616e-08
2.59679e-06
-1.41695e-08
2.60121e-06
-1.30267e-08
2.60526e-06
-1.19316e-08
2.60896e-06
-1.08826e-08
2.61232e-06
-9.87803e-09
2.61536e-06
-8.91636e-09
2.61809e-06
-7.99605e-09
2.62053e-06
-7.11551e-09
2.62268e-06
-6.27333e-09
2.62457e-06
-5.46803e-09
2.62619e-06
-4.69807e-09
2.62757e-06
-3.96238e-09
2.62872e-06
-3.25931e-09
2.62963e-06
-2.58758e-09
2.63034e-06
-1.94512e-09
2.63083e-06
-1.32991e-09
2.63113e-06
-7.45483e-10
2.63126e-06
-1.9466e-10
2.6312e-06
3.37217e-10
2.63097e-06
8.4366e-10
2.63058e-06
1.3278e-09
2.63003e-06
1.7897e-09
2.62933e-06
2.2306e-09
2.6285e-06
2.65156e-09
2.62753e-06
3.05341e-09
2.62643e-06
3.43705e-09
2.62521e-06
3.80332e-09
2.62387e-06
4.15308e-09
2.62242e-06
4.48702e-09
2.62086e-06
4.80598e-09
2.6192e-06
5.11062e-09
2.61745e-06
5.4017e-09
2.6156e-06
5.67998e-09
2.61366e-06
5.9461e-09
2.61164e-06
6.20069e-09
2.60953e-06
6.44444e-09
2.60735e-06
6.67793e-09
2.60509e-06
6.90174e-09
2.60276e-06
7.11639e-09
2.60037e-06
7.32238e-09
2.5979e-06
7.52011e-09
2.59538e-06
7.71017e-09
2.59279e-06
7.89314e-09
2.59014e-06
8.06964e-09
2.58744e-06
8.24001e-09
2.58468e-06
8.40472e-09
2.58187e-06
8.56387e-09
2.579e-06
8.71786e-09
2.57609e-06
8.86699e-09
2.57313e-06
9.0116e-09
2.57012e-06
9.15205e-09
2.56707e-06
9.28868e-09
2.56397e-06
9.42169e-09
2.56083e-06
9.55144e-09
2.55765e-06
9.67814e-09
2.55443e-06
9.80205e-09
2.55117e-06
9.92336e-09
2.54787e-06
1.00424e-08
2.54453e-06
1.01593e-08
2.54115e-06
1.02742e-08
2.53773e-06
1.03873e-08
2.53428e-06
1.04986e-08
2.53079e-06
1.06086e-08
2.52726e-06
1.07174e-08
2.5237e-06
1.08255e-08
2.52011e-06
1.0933e-08
2.51648e-06
1.10402e-08
2.51281e-06
1.11473e-08
2.50911e-06
1.12545e-08
2.50537e-06
1.13623e-08
2.5016e-06
1.14708e-08
2.49779e-06
1.15806e-08
2.49395e-06
1.16921e-08
2.49006e-06
1.18059e-08
2.48614e-06
1.19228e-08
2.48218e-06
1.20436e-08
2.47818e-06
1.21694e-08
2.47413e-06
1.23018e-08
2.47004e-06
1.24424e-08
2.4659e-06
1.25935e-08
2.46171e-06
1.27581e-08
2.45745e-06
1.29399e-08
2.45313e-06
1.31436e-08
2.44874e-06
1.33756e-08
2.44426e-06
1.3644e-08
2.43967e-06
1.39595e-08
2.43496e-06
1.4336e-08
2.4301e-06
1.47923e-08
2.42507e-06
1.53536e-08
2.4198e-06
1.60537e-08
2.41425e-06
1.69396e-08
2.40833e-06
1.80766e-08
2.40193e-06
1.95601e-08
2.39491e-06
2.15228e-08
2.38704e-06
2.42043e-08
2.37799e-06
2.78483e-08
2.36729e-06
3.33717e-08
2.35411e-06
4.07026e-08
2.338e-06
5.54257e-08
2.3155e-06
7.1474e-08
2.2936e-06
1.23574e-07
1.66427e-07
2.25101e-06
3.46346e-08
-1.40031e-07
8.08054e-08
-1.84817e-07
1.27382e-07
-1.86335e-07
1.74173e-07
-1.87058e-07
2.21461e-07
-1.88769e-07
2.69336e-07
-1.90756e-07
3.17834e-07
-1.92837e-07
3.66978e-07
-1.9497e-07
4.16777e-07
-1.9712e-07
4.67228e-07
-1.99248e-07
5.18312e-07
-2.0131e-07
5.69995e-07
-2.03264e-07
6.22231e-07
-2.05064e-07
6.74958e-07
-2.0667e-07
7.28105e-07
-2.08042e-07
7.81588e-07
-2.09145e-07
8.35316e-07
-2.0995e-07
8.8919e-07
-2.10429e-07
9.43109e-07
-2.10564e-07
9.96965e-07
-2.10339e-07
1.05065e-06
-2.09748e-07
1.10407e-06
-2.08786e-07
1.1571e-06
-2.07457e-07
1.20966e-06
-2.05766e-07
1.26164e-06
-2.03726e-07
1.31297e-06
-2.0135e-07
1.36354e-06
-1.98659e-07
1.41329e-06
-1.9567e-07
1.46215e-06
-1.92408e-07
1.51006e-06
-1.88895e-07
1.55696e-06
-1.85156e-07
1.6028e-06
-1.81215e-07
1.64754e-06
-1.77099e-07
1.69115e-06
-1.72831e-07
1.73359e-06
-1.68435e-07
1.77486e-06
-1.63934e-07
1.81493e-06
-1.5935e-07
1.85379e-06
-1.54705e-07
1.89143e-06
-1.50017e-07
1.92786e-06
-1.45304e-07
1.96308e-06
-1.40585e-07
1.99709e-06
-1.35873e-07
2.02989e-06
-1.31184e-07
2.06152e-06
-1.26529e-07
2.09197e-06
-1.2192e-07
2.12127e-06
-1.17367e-07
2.14943e-06
-1.1288e-07
2.17648e-06
-1.08465e-07
2.20244e-06
-1.04129e-07
2.22733e-06
-9.98796e-08
2.25117e-06
-9.57198e-08
2.274e-06
-9.16543e-08
2.29583e-06
-8.76862e-08
2.31669e-06
-8.3818e-08
2.33662e-06
-8.00518e-08
2.35562e-06
-7.63889e-08
2.37374e-06
-7.28301e-08
2.391e-06
-6.93758e-08
2.40743e-06
-6.60259e-08
2.42304e-06
-6.27802e-08
2.43788e-06
-5.96378e-08
2.45195e-06
-5.65979e-08
2.4653e-06
-5.36592e-08
2.47794e-06
-5.08202e-08
2.4899e-06
-4.80794e-08
2.5012e-06
-4.54349e-08
2.51187e-06
-4.2885e-08
2.52192e-06
-4.04275e-08
2.53139e-06
-3.80604e-08
2.5403e-06
-3.57817e-08
2.54865e-06
-3.35889e-08
2.55649e-06
-3.148e-08
2.56382e-06
-2.94526e-08
2.57067e-06
-2.75045e-08
2.57705e-06
-2.56333e-08
2.58299e-06
-2.38368e-08
2.58849e-06
-2.21128e-08
2.59359e-06
-2.04587e-08
2.59829e-06
-1.88726e-08
2.60262e-06
-1.73521e-08
2.60658e-06
-1.58951e-08
2.6102e-06
-1.44993e-08
2.61348e-06
-1.31626e-08
2.61645e-06
-1.1883e-08
2.61911e-06
-1.06583e-08
2.62148e-06
-9.48664e-09
2.62358e-06
-8.3659e-09
2.6254e-06
-7.29429e-09
2.62697e-06
-6.26969e-09
2.6283e-06
-5.29047e-09
2.6294e-06
-4.3547e-09
2.63027e-06
-3.46052e-09
2.63093e-06
-2.60632e-09
2.63139e-06
-1.79104e-09
2.63166e-06
-1.01486e-09
2.63174e-06
-2.70762e-10
2.63164e-06
4.32632e-10
2.63138e-06
1.10714e-09
2.63096e-06
1.75103e-09
2.63038e-06
2.36575e-09
2.62966e-06
2.95256e-09
2.6288e-06
3.51277e-09
2.6278e-06
4.04759e-09
2.62668e-06
4.55815e-09
2.62544e-06
5.04564e-09
2.62408e-06
5.51106e-09
2.62261e-06
5.95549e-09
2.62104e-06
6.37988e-09
2.61936e-06
6.78531e-09
2.61759e-06
7.1727e-09
2.61573e-06
7.54298e-09
2.61378e-06
7.89714e-09
2.61174e-06
8.23599e-09
2.60963e-06
8.56033e-09
2.60744e-06
8.87105e-09
2.60517e-06
9.16889e-09
2.60283e-06
9.45447e-09
2.60042e-06
9.72845e-09
2.59795e-06
9.99155e-09
2.59542e-06
1.02444e-08
2.59282e-06
1.04879e-08
2.59017e-06
1.07228e-08
2.58746e-06
1.09496e-08
2.5847e-06
1.11686e-08
2.58188e-06
1.13803e-08
2.57901e-06
1.15851e-08
2.5761e-06
1.17834e-08
2.57313e-06
1.19757e-08
2.57012e-06
1.21625e-08
2.56707e-06