/*--------------------------------*- C++ -*----------------------------------*\
  =========                 |
  \\      /  F ield         | OpenFOAM: The Open Source CFD Toolbox
   \\    /   O peration     | Website:  https://openfoam.org
    \\  /    A nd           | Version:  7
     \\/     M anipulation  |
\*---------------------------------------------------------------------------*/
FoamFile
{
    version     2.0;
    format      ascii;
    class       volScalarField;
    location    "0.002";
    object      pPrime2Mean;
}
// * * * * * * * * * * * * * * * * * * * * * * * * * * * * * * * * * * * * * //

dimensions      [0 4 -4 0 0 0 0];

internalField   nonuniform List<scalar> 
12225
(
1.76925e+08
1.74095e+08
1.71175e+08
1.6836e+08
1.65659e+08
1.63061e+08
1.6056e+08
1.58147e+08
1.55815e+08
1.53555e+08
1.51358e+08
1.49213e+08
1.47108e+08
1.45026e+08
1.42946e+08
1.40835e+08
1.38632e+08
1.36189e+08
1.76928e+08
1.74096e+08
1.71176e+08
1.68361e+08
1.6566e+08
1.63063e+08
1.60562e+08
1.5815e+08
1.55818e+08
1.53559e+08
1.51363e+08
1.49219e+08
1.47116e+08
1.45038e+08
1.42964e+08
1.40863e+08
1.38686e+08
1.36311e+08
1.76931e+08
1.74099e+08
1.71178e+08
1.68364e+08
1.65663e+08
1.63067e+08
1.60567e+08
1.58155e+08
1.55825e+08
1.53568e+08
1.51374e+08
1.49234e+08
1.47135e+08
1.45064e+08
1.43003e+08
1.40925e+08
1.38794e+08
1.36565e+08
1.76935e+08
1.74102e+08
1.71183e+08
1.68369e+08
1.65669e+08
1.63073e+08
1.60574e+08
1.58165e+08
1.55837e+08
1.53582e+08
1.51392e+08
1.49257e+08
1.47166e+08
1.45107e+08
1.43064e+08
1.41019e+08
1.38954e+08
1.36869e+08
1.76939e+08
1.74108e+08
1.71189e+08
1.68376e+08
1.65677e+08
1.63083e+08
1.60586e+08
1.58178e+08
1.55853e+08
1.53603e+08
1.51418e+08
1.49291e+08
1.47211e+08
1.45168e+08
1.4315e+08
1.41147e+08
1.39155e+08
1.37198e+08
1.76946e+08
1.74116e+08
1.71197e+08
1.68386e+08
1.65688e+08
1.63096e+08
1.60601e+08
1.58197e+08
1.55876e+08
1.53631e+08
1.51454e+08
1.49337e+08
1.47271e+08
1.45248e+08
1.43261e+08
1.41306e+08
1.39388e+08
1.37539e+08
1.76954e+08
1.74126e+08
1.71209e+08
1.68398e+08
1.65703e+08
1.63113e+08
1.60622e+08
1.58222e+08
1.55907e+08
1.53669e+08
1.51501e+08
1.49396e+08
1.47348e+08
1.45349e+08
1.43397e+08
1.41492e+08
1.39645e+08
1.37886e+08
1.76965e+08
1.74139e+08
1.71223e+08
1.68415e+08
1.65722e+08
1.63135e+08
1.60648e+08
1.58253e+08
1.55945e+08
1.53716e+08
1.51559e+08
1.4947e+08
1.47442e+08
1.45471e+08
1.43556e+08
1.41702e+08
1.39921e+08
1.38236e+08
1.76981e+08
1.74156e+08
1.71242e+08
1.68436e+08
1.65745e+08
1.63163e+08
1.6068e+08
1.58292e+08
1.55992e+08
1.53774e+08
1.51631e+08
1.49559e+08
1.47553e+08
1.45613e+08
1.43737e+08
1.41933e+08
1.4021e+08
1.38588e+08
1.77e+08
1.74177e+08
1.71265e+08
1.68461e+08
1.65774e+08
1.63196e+08
1.6072e+08
1.5834e+08
1.5605e+08
1.53843e+08
1.51716e+08
1.49664e+08
1.47683e+08
1.45774e+08
1.43938e+08
1.4218e+08
1.4051e+08
1.38942e+08
1.77028e+08
1.74203e+08
1.71293e+08
1.68492e+08
1.6581e+08
1.63237e+08
1.60768e+08
1.58397e+08
1.56118e+08
1.53925e+08
1.51816e+08
1.49785e+08
1.47831e+08
1.45954e+08
1.44156e+08
1.42442e+08
1.40819e+08
1.39295e+08
1.77054e+08
1.74232e+08
1.71324e+08
1.68526e+08
1.65848e+08
1.63282e+08
1.6082e+08
1.58458e+08
1.56191e+08
1.54013e+08
1.5192e+08
1.4991e+08
1.47982e+08
1.46135e+08
1.4437e+08
1.42693e+08
1.41108e+08
1.39619e+08
1.77089e+08
1.74266e+08
1.71359e+08
1.68565e+08
1.65892e+08
1.63332e+08
1.60879e+08
1.58527e+08
1.56272e+08
1.54109e+08
1.52035e+08
1.50047e+08
1.48144e+08
1.46325e+08
1.44593e+08
1.42949e+08
1.41398e+08
1.3994e+08
1.77136e+08
1.74311e+08
1.71406e+08
1.68616e+08
1.65949e+08
1.63398e+08
1.60955e+08
1.58617e+08
1.56377e+08
1.54233e+08
1.5218e+08
1.50217e+08
1.48343e+08
1.46556e+08
1.44858e+08
1.43249e+08
1.41731e+08
1.40305e+08
1.77196e+08
1.7437e+08
1.71468e+08
1.68684e+08
1.66025e+08
1.63484e+08
1.61055e+08
1.58732e+08
1.56511e+08
1.54389e+08
1.52362e+08
1.50427e+08
1.48584e+08
1.46831e+08
1.45168e+08
1.43594e+08
1.4211e+08
1.40714e+08
1.7727e+08
1.74446e+08
1.71548e+08
1.68772e+08
1.66123e+08
1.63596e+08
1.61182e+08
1.58879e+08
1.5668e+08
1.54583e+08
1.52584e+08
1.5068e+08
1.4887e+08
1.47152e+08
1.45524e+08
1.43985e+08
1.42533e+08
1.41166e+08
1.77364e+08
1.74543e+08
1.71651e+08
1.68884e+08
1.66249e+08
1.63737e+08
1.61342e+08
1.5906e+08
1.56887e+08
1.54817e+08
1.52849e+08
1.50978e+08
1.49202e+08
1.47518e+08
1.45925e+08
1.44419e+08
1.42997e+08
1.41656e+08
1.77473e+08
1.74662e+08
1.7178e+08
1.69025e+08
1.66404e+08
1.6391e+08
1.61536e+08
1.59279e+08
1.57132e+08
1.55092e+08
1.53154e+08
1.51316e+08
1.49573e+08
1.47923e+08
1.46361e+08
1.44885e+08
1.43491e+08
1.42174e+08
1.77613e+08
1.74809e+08
1.71936e+08
1.69193e+08
1.66588e+08
1.64113e+08
1.61761e+08
1.59529e+08
1.57409e+08
1.55398e+08
1.53491e+08
1.51683e+08
1.49971e+08
1.4835e+08
1.46817e+08
1.45367e+08
1.43997e+08
1.42702e+08
1.77756e+08
1.74945e+08
1.72074e+08
1.69339e+08
1.66745e+08
1.64284e+08
1.6195e+08
1.59735e+08
1.57635e+08
1.55645e+08
1.53759e+08
1.51972e+08
1.50281e+08
1.4868e+08
1.47165e+08
1.45732e+08
1.44378e+08
1.43097e+08
1.77847e+08
1.75038e+08
1.7217e+08
1.69441e+08
1.66854e+08
1.64403e+08
1.62079e+08
1.59876e+08
1.57789e+08
1.55811e+08
1.53938e+08
1.52164e+08
1.50485e+08
1.48896e+08
1.47393e+08
1.4597e+08
1.44625e+08
1.43352e+08
1.77923e+08
1.75109e+08
1.72242e+08
1.69516e+08
1.66936e+08
1.64491e+08
1.62175e+08
1.5998e+08
1.57901e+08
1.55932e+08
1.54068e+08
1.52303e+08
1.50632e+08
1.49051e+08
1.47555e+08
1.4614e+08
1.448e+08
1.43533e+08
1.77963e+08
1.75156e+08
1.72293e+08
1.69571e+08
1.66995e+08
1.64555e+08
1.62244e+08
1.60055e+08
1.57982e+08
1.56019e+08
1.54161e+08
1.52402e+08
1.50737e+08
1.49162e+08
1.47671e+08
1.4626e+08
1.44925e+08
1.43661e+08
1.77996e+08
1.75189e+08
1.72329e+08
1.6961e+08
1.67037e+08
1.646e+08
1.62293e+08
1.60108e+08
1.58039e+08
1.56081e+08
1.54227e+08
1.52472e+08
1.50811e+08
1.49239e+08
1.47752e+08
1.46344e+08
1.45011e+08
1.4375e+08
1.78016e+08
1.75211e+08
1.72353e+08
1.69636e+08
1.67065e+08
1.64632e+08
1.62327e+08
1.60145e+08
1.58079e+08
1.56123e+08
1.54272e+08
1.5252e+08
1.50862e+08
1.49292e+08
1.47807e+08
1.46401e+08
1.45071e+08
1.43811e+08
1.78021e+08
1.75224e+08
1.72369e+08
1.69654e+08
1.67085e+08
1.64653e+08
1.6235e+08
1.6017e+08
1.58106e+08
1.56152e+08
1.54302e+08
1.52552e+08
1.50896e+08
1.49328e+08
1.47844e+08
1.4644e+08
1.4511e+08
1.43852e+08
1.78025e+08
1.75232e+08
1.72379e+08
1.69665e+08
1.67098e+08
1.64666e+08
1.62365e+08
1.60186e+08
1.58123e+08
1.5617e+08
1.54322e+08
1.52573e+08
1.50918e+08
1.49351e+08
1.47868e+08
1.46465e+08
1.45136e+08
1.43878e+08
1.7803e+08
1.75237e+08
1.72385e+08
1.69672e+08
1.67105e+08
1.64675e+08
1.62374e+08
1.60195e+08
1.58133e+08
1.56181e+08
1.54334e+08
1.52586e+08
1.50931e+08
1.49365e+08
1.47883e+08
1.4648e+08
1.45152e+08
1.43894e+08
1.78032e+08
1.7524e+08
1.72388e+08
1.69676e+08
1.67109e+08
1.64679e+08
1.62379e+08
1.60201e+08
1.58139e+08
1.56187e+08
1.5434e+08
1.52592e+08
1.50938e+08
1.49372e+08
1.47891e+08
1.46488e+08
1.4516e+08
1.43903e+08
1.78034e+08
1.75241e+08
1.7239e+08
1.69677e+08
1.67111e+08
1.64681e+08
1.62381e+08
1.60203e+08
1.58141e+08
1.5619e+08
1.54343e+08
1.52595e+08
1.50941e+08
1.49375e+08
1.47894e+08
1.46491e+08
1.45163e+08
1.43906e+08
1.15072e+08
1.15063e+08
1.15044e+08
1.15016e+08
1.14978e+08
1.14931e+08
1.14873e+08
1.14805e+08
1.14727e+08
1.14639e+08
1.14539e+08
1.1443e+08
1.14309e+08
1.14178e+08
1.14035e+08
1.13882e+08
1.13718e+08
1.13543e+08
1.13357e+08
1.1316e+08
1.12952e+08
1.12734e+08
1.12504e+08
1.12264e+08
1.12013e+08
1.11751e+08
1.11479e+08
1.11197e+08
1.10904e+08
1.10601e+08
1.10288e+08
1.09965e+08
1.09632e+08
1.09289e+08
1.08937e+08
1.08576e+08
1.08205e+08
1.07825e+08
1.07436e+08
1.07038e+08
1.06631e+08
1.06216e+08
1.05793e+08
1.05361e+08
1.04921e+08
1.04473e+08
1.04018e+08
1.03555e+08
1.03084e+08
1.02606e+08
1.02121e+08
1.01629e+08
1.01129e+08
1.00623e+08
1.00111e+08
9.95917e+07
9.90662e+07
9.85345e+07
9.79966e+07
9.74527e+07
9.6903e+07
9.63475e+07
9.57864e+07
9.52197e+07
9.46476e+07
9.40703e+07
9.34877e+07
9.29001e+07
9.23075e+07
9.171e+07
9.11078e+07
9.05009e+07
8.98894e+07
8.92734e+07
8.86531e+07
8.80284e+07
8.73995e+07
8.67665e+07
8.61295e+07
8.54885e+07
8.48436e+07
8.4195e+07
8.35426e+07
8.28866e+07
8.22271e+07
8.1564e+07
8.08976e+07
8.02278e+07
7.95548e+07
7.88786e+07
7.81992e+07
7.75168e+07
7.68314e+07
7.61432e+07
7.5452e+07
7.47581e+07
7.40615e+07
7.33622e+07
7.26604e+07
7.19561e+07
7.12493e+07
7.05401e+07
6.98286e+07
6.91148e+07
6.83989e+07
6.76808e+07
6.69607e+07
6.62386e+07
6.55145e+07
6.47887e+07
6.4061e+07
6.33316e+07
6.26005e+07
6.18679e+07
6.11337e+07
6.03981e+07
5.96611e+07
5.89229e+07
5.81834e+07
5.74427e+07
5.6701e+07
5.59583e+07
5.52146e+07
5.44701e+07
5.37249e+07
5.29789e+07
5.22324e+07
5.14853e+07
5.07378e+07
4.999e+07
4.92419e+07
4.84936e+07
4.77453e+07
4.6997e+07
4.62489e+07
4.55009e+07
4.47533e+07
4.40061e+07
4.32594e+07
4.25134e+07
4.17681e+07
4.10236e+07
4.02802e+07
3.95378e+07
3.87966e+07
3.80567e+07
3.73183e+07
3.65815e+07
3.58463e+07
3.5113e+07
3.43816e+07
3.36523e+07
3.29253e+07
3.22006e+07
3.14785e+07
3.0759e+07
3.00424e+07
2.93287e+07
2.86182e+07
2.7911e+07
2.72073e+07
2.65073e+07
2.5811e+07
2.51188e+07
2.44309e+07
2.37473e+07
2.30684e+07
2.23943e+07
2.17253e+07
2.10617e+07
2.04037e+07
1.97516e+07
1.91058e+07
1.84667e+07
1.78348e+07
1.72108e+07
1.65954e+07
1.59899e+07
1.53965e+07
1.48197e+07
1.15113e+08
1.15104e+08
1.15086e+08
1.15057e+08
1.15019e+08
1.14971e+08
1.14913e+08
1.14845e+08
1.14767e+08
1.14677e+08
1.14578e+08
1.14467e+08
1.14346e+08
1.14214e+08
1.14071e+08
1.13917e+08
1.13752e+08
1.13577e+08
1.1339e+08
1.13192e+08
1.12983e+08
1.12764e+08
1.12533e+08
1.12292e+08
1.12041e+08
1.11778e+08
1.11505e+08
1.11222e+08
1.10928e+08
1.10624e+08
1.1031e+08
1.09986e+08
1.09653e+08
1.09309e+08
1.08956e+08
1.08594e+08
1.08222e+08
1.07841e+08
1.07452e+08
1.07053e+08
1.06646e+08
1.0623e+08
1.05806e+08
1.05374e+08
1.04933e+08
1.04485e+08
1.04029e+08
1.03565e+08
1.03094e+08
1.02615e+08
1.0213e+08
1.01637e+08
1.01137e+08
1.00631e+08
1.00118e+08
9.95985e+07
9.90727e+07
9.85406e+07
9.80024e+07
9.74582e+07
9.69081e+07
9.63524e+07
9.57909e+07
9.5224e+07
9.46517e+07
9.40741e+07
9.34914e+07
9.29035e+07
9.23107e+07
9.17131e+07
9.11106e+07
9.05036e+07
8.98919e+07
8.92758e+07
8.86553e+07
8.80305e+07
8.74015e+07
8.67683e+07
8.61312e+07
8.54901e+07
8.48451e+07
8.41964e+07
8.35439e+07
8.28878e+07
8.22282e+07
8.15651e+07
8.08986e+07
8.02287e+07
7.95556e+07
7.88794e+07
7.82e+07
7.75175e+07
7.68321e+07
7.61438e+07
7.54526e+07
7.47586e+07
7.4062e+07
7.33627e+07
7.26608e+07
7.19564e+07
7.12496e+07
7.05404e+07
6.98289e+07
6.91151e+07
6.83991e+07
6.7681e+07
6.69609e+07
6.62388e+07
6.55147e+07
6.47888e+07
6.40611e+07
6.33317e+07
6.26006e+07
6.1868e+07
6.11338e+07
6.03982e+07
5.96612e+07
5.89229e+07
5.81834e+07
5.74428e+07
5.6701e+07
5.59583e+07
5.52147e+07
5.44702e+07
5.37249e+07
5.29789e+07
5.22324e+07
5.14853e+07
5.07378e+07
4.999e+07
4.92419e+07
4.84937e+07
4.77453e+07
4.6997e+07
4.62489e+07
4.55009e+07
4.47533e+07
4.40061e+07
4.32594e+07
4.25134e+07
4.17681e+07
4.10236e+07
4.02802e+07
3.95378e+07
3.87966e+07
3.80567e+07
3.73183e+07
3.65815e+07
3.58463e+07
3.5113e+07
3.43816e+07
3.36523e+07
3.29253e+07
3.22006e+07
3.14785e+07
3.0759e+07
3.00424e+07
2.93287e+07
2.86182e+07
2.7911e+07
2.72073e+07
2.65073e+07
2.5811e+07
2.51188e+07
2.44308e+07
2.37473e+07
2.30683e+07
2.23942e+07
2.17252e+07
2.10616e+07
2.04035e+07
1.97514e+07
1.91056e+07
1.84665e+07
1.78345e+07
1.72103e+07
1.65947e+07
1.59888e+07
1.53945e+07
1.4815e+07
1.15197e+08
1.15187e+08
1.15169e+08
1.1514e+08
1.15101e+08
1.15053e+08
1.14994e+08
1.14925e+08
1.14846e+08
1.14756e+08
1.14655e+08
1.14543e+08
1.14421e+08
1.14287e+08
1.14143e+08
1.13987e+08
1.13821e+08
1.13644e+08
1.13455e+08
1.13256e+08
1.13045e+08
1.12824e+08
1.12592e+08
1.12349e+08
1.12095e+08
1.11831e+08
1.11556e+08
1.11271e+08
1.10976e+08
1.1067e+08
1.10355e+08
1.10029e+08
1.09694e+08
1.09348e+08
1.08994e+08
1.0863e+08
1.08257e+08
1.07874e+08
1.07483e+08
1.07083e+08
1.06675e+08
1.06258e+08
1.05832e+08
1.05399e+08
1.04957e+08
1.04508e+08
1.04051e+08
1.03586e+08
1.03114e+08
1.02634e+08
1.02147e+08
1.01654e+08
1.01153e+08
1.00646e+08
1.00132e+08
9.96121e+07
9.90855e+07
9.85527e+07
9.80139e+07
9.74691e+07
9.69184e+07
9.63621e+07
9.58001e+07
9.52327e+07
9.46599e+07
9.40818e+07
9.34986e+07
9.29103e+07
9.23171e+07
9.17191e+07
9.11163e+07
9.05089e+07
8.98969e+07
8.92805e+07
8.86597e+07
8.80346e+07
8.74054e+07
8.6772e+07
8.61346e+07
8.54933e+07
8.48481e+07
8.41992e+07
8.35465e+07
8.28903e+07
8.22305e+07
8.15672e+07
8.09006e+07
8.02306e+07
7.95574e+07
7.8881e+07
7.82015e+07
7.75189e+07
7.68334e+07
7.6145e+07
7.54537e+07
7.47597e+07
7.40629e+07
7.33636e+07
7.26616e+07
7.19572e+07
7.12503e+07
7.0541e+07
6.98295e+07
6.91156e+07
6.83996e+07
6.76815e+07
6.69613e+07
6.62392e+07
6.55151e+07
6.47892e+07
6.40614e+07
6.3332e+07
6.26009e+07
6.18682e+07
6.1134e+07
6.03984e+07
5.96614e+07
5.89231e+07
5.81836e+07
5.74429e+07
5.67012e+07
5.59584e+07
5.52148e+07
5.44703e+07
5.3725e+07
5.2979e+07
5.22325e+07
5.14854e+07
5.07379e+07
4.99901e+07
4.9242e+07
4.84937e+07
4.77454e+07
4.69971e+07
4.62489e+07
4.5501e+07
4.47533e+07
4.40061e+07
4.32594e+07
4.25134e+07
4.17681e+07
4.10237e+07
4.02802e+07
3.95378e+07
3.87966e+07
3.80567e+07
3.73183e+07
3.65815e+07
3.58463e+07
3.5113e+07
3.43816e+07
3.36523e+07
3.29253e+07
3.22006e+07
3.14785e+07
3.0759e+07
3.00424e+07
2.93287e+07
2.86182e+07
2.7911e+07
2.72073e+07
2.65072e+07
2.5811e+07
2.51188e+07
2.44308e+07
2.37472e+07
2.30682e+07
2.23941e+07
2.17251e+07
2.10614e+07
2.04033e+07
1.97511e+07
1.91052e+07
1.8466e+07
1.78338e+07
1.72093e+07
1.65933e+07
1.59866e+07
1.53908e+07
1.48077e+07
1.15323e+08
1.15313e+08
1.15294e+08
1.15265e+08
1.15225e+08
1.15176e+08
1.15116e+08
1.15046e+08
1.14965e+08
1.14873e+08
1.14771e+08
1.14657e+08
1.14533e+08
1.14397e+08
1.14251e+08
1.14093e+08
1.13924e+08
1.13744e+08
1.13554e+08
1.13352e+08
1.13139e+08
1.12915e+08
1.1268e+08
1.12434e+08
1.12178e+08
1.11911e+08
1.11634e+08
1.11346e+08
1.11048e+08
1.10739e+08
1.10421e+08
1.10093e+08
1.09755e+08
1.09407e+08
1.0905e+08
1.08684e+08
1.08309e+08
1.07924e+08
1.07531e+08
1.07129e+08
1.06718e+08
1.06299e+08
1.05872e+08
1.05436e+08
1.04993e+08
1.04542e+08
1.04083e+08
1.03617e+08
1.03143e+08
1.02662e+08
1.02174e+08
1.01679e+08
1.01177e+08
1.00669e+08
1.00154e+08
9.96324e+07
9.91047e+07
9.85709e+07
9.80311e+07
9.74853e+07
9.69338e+07
9.63766e+07
9.58138e+07
9.52456e+07
9.46721e+07
9.40933e+07
9.35094e+07
9.29205e+07
9.23267e+07
9.17281e+07
9.11248e+07
9.05169e+07
8.99044e+07
8.92875e+07
8.86663e+07
8.80408e+07
8.74112e+07
8.67774e+07
8.61397e+07
8.54981e+07
8.48526e+07
8.42034e+07
8.35504e+07
8.28939e+07
8.22339e+07
8.15704e+07
8.09035e+07
8.02334e+07
7.95599e+07
7.88834e+07
7.82037e+07
7.7521e+07
7.68353e+07
7.61468e+07
7.54554e+07
7.47612e+07
7.40644e+07
7.33649e+07
7.26629e+07
7.19583e+07
7.12514e+07
7.0542e+07
6.98304e+07
6.91165e+07
6.84004e+07
6.76822e+07
6.6962e+07
6.62398e+07
6.55156e+07
6.47897e+07
6.40619e+07
6.33324e+07
6.26013e+07
6.18686e+07
6.11343e+07
6.03987e+07
5.96617e+07
5.89233e+07
5.81838e+07
5.74431e+07
5.67014e+07
5.59586e+07
5.52149e+07
5.44704e+07
5.37251e+07
5.29791e+07
5.22326e+07
5.14855e+07
5.0738e+07
4.99901e+07
4.9242e+07
4.84938e+07
4.77454e+07
4.69971e+07
4.62489e+07
4.5501e+07
4.47534e+07
4.40061e+07
4.32595e+07
4.25134e+07
4.17681e+07
4.10237e+07
4.02802e+07
3.95378e+07
3.87966e+07
3.80568e+07
3.73183e+07
3.65815e+07
3.58463e+07
3.5113e+07
3.43816e+07
3.36523e+07
3.29253e+07
3.22006e+07
3.14785e+07
3.0759e+07
3.00424e+07
2.93287e+07
2.86182e+07
2.7911e+07
2.72073e+07
2.65072e+07
2.5811e+07
2.51187e+07
2.44307e+07
2.37471e+07
2.30681e+07
2.2394e+07
2.17249e+07
2.10611e+07
2.0403e+07
1.97507e+07
1.91047e+07
1.84652e+07
1.78328e+07
1.72079e+07
1.65913e+07
1.59837e+07
1.5386e+07
1.47991e+07
1.15492e+08
1.15482e+08
1.15462e+08
1.15432e+08
1.15391e+08
1.15341e+08
1.1528e+08
1.15208e+08
1.15125e+08
1.15031e+08
1.14926e+08
1.1481e+08
1.14683e+08
1.14545e+08
1.14395e+08
1.14234e+08
1.14063e+08
1.13879e+08
1.13685e+08
1.13479e+08
1.13263e+08
1.13035e+08
1.12797e+08
1.12548e+08
1.12288e+08
1.12017e+08
1.11736e+08
1.11445e+08
1.11143e+08
1.10831e+08
1.10509e+08
1.10178e+08
1.09837e+08
1.09486e+08
1.09126e+08
1.08756e+08
1.08378e+08
1.0799e+08
1.07594e+08
1.07189e+08
1.06776e+08
1.06354e+08
1.05924e+08
1.05486e+08
1.05041e+08
1.04587e+08
1.04126e+08
1.03658e+08
1.03182e+08
1.02699e+08
1.02209e+08
1.01712e+08
1.01209e+08
1.00699e+08
1.00182e+08
9.96593e+07
9.91302e+07
9.8595e+07
9.80539e+07
9.75068e+07
9.69541e+07
9.63958e+07
9.58319e+07
9.52627e+07
9.46882e+07
9.41085e+07
9.35238e+07
9.2934e+07
9.23395e+07
9.17401e+07
9.11361e+07
9.05275e+07
8.99144e+07
8.92969e+07
8.86751e+07
8.8049e+07
8.74189e+07
8.67847e+07
8.61465e+07
8.55044e+07
8.48585e+07
8.42089e+07
8.35556e+07
8.28988e+07
8.22384e+07
8.15746e+07
8.09075e+07
8.0237e+07
7.95634e+07
7.88866e+07
7.82067e+07
7.75237e+07
7.68379e+07
7.61491e+07
7.54576e+07
7.47633e+07
7.40663e+07
7.33667e+07
7.26645e+07
7.19598e+07
7.12528e+07
7.05433e+07
6.98316e+07
6.91176e+07
6.84014e+07
6.76831e+07
6.69628e+07
6.62406e+07
6.55164e+07
6.47903e+07
6.40625e+07
6.3333e+07
6.26018e+07
6.1869e+07
6.11348e+07
6.03991e+07
5.9662e+07
5.89237e+07
5.81841e+07
5.74434e+07
5.67016e+07
5.59588e+07
5.52151e+07
5.44706e+07
5.37253e+07
5.29793e+07
5.22327e+07
5.14856e+07
5.07381e+07
4.99902e+07
4.92421e+07
4.84938e+07
4.77455e+07
4.69972e+07
4.6249e+07
4.5501e+07
4.47534e+07
4.40062e+07
4.32595e+07
4.25135e+07
4.17682e+07
4.10237e+07
4.02802e+07
3.95378e+07
3.87967e+07
3.80568e+07
3.73184e+07
3.65815e+07
3.58463e+07
3.5113e+07
3.43816e+07
3.36523e+07
3.29253e+07
3.22006e+07
3.14785e+07
3.0759e+07
3.00424e+07
2.93287e+07
2.86182e+07
2.7911e+07
2.72072e+07
2.65072e+07
2.58109e+07
2.51187e+07
2.44306e+07
2.3747e+07
2.30679e+07
2.23938e+07
2.17246e+07
2.10608e+07
2.04025e+07
1.97501e+07
1.91039e+07
1.84642e+07
1.78315e+07
1.72061e+07
1.65888e+07
1.598e+07
1.53804e+07
1.47901e+07
1.15705e+08
1.15694e+08
1.15674e+08
1.15643e+08
1.15601e+08
1.15549e+08
1.15486e+08
1.15411e+08
1.15326e+08
1.15229e+08
1.15122e+08
1.15003e+08
1.14872e+08
1.1473e+08
1.14577e+08
1.14412e+08
1.14236e+08
1.14048e+08
1.1385e+08
1.1364e+08
1.13419e+08
1.13187e+08
1.12944e+08
1.1269e+08
1.12425e+08
1.1215e+08
1.11864e+08
1.11568e+08
1.11262e+08
1.10946e+08
1.1062e+08
1.10284e+08
1.09938e+08
1.09583e+08
1.09219e+08
1.08846e+08
1.08463e+08
1.08072e+08
1.07672e+08
1.07264e+08
1.06847e+08
1.06422e+08
1.05989e+08
1.05548e+08
1.051e+08
1.04643e+08
1.0418e+08
1.03708e+08
1.0323e+08
1.02745e+08
1.02253e+08
1.01754e+08
1.01248e+08
1.00736e+08
1.00217e+08
9.96927e+07
9.91618e+07
9.86249e+07
9.80821e+07
9.75336e+07
9.69794e+07
9.64196e+07
9.58545e+07
9.5284e+07
9.47083e+07
9.41274e+07
9.35416e+07
9.29508e+07
9.23552e+07
9.1755e+07
9.115e+07
9.05406e+07
8.99267e+07
8.93084e+07
8.86859e+07
8.80592e+07
8.74284e+07
8.67936e+07
8.61549e+07
8.55123e+07
8.48659e+07
8.42158e+07
8.35621e+07
8.29048e+07
8.2244e+07
8.15799e+07
8.09124e+07
8.02416e+07
7.95676e+07
7.88905e+07
7.82103e+07
7.75272e+07
7.68411e+07
7.61521e+07
7.54603e+07
7.47658e+07
7.40686e+07
7.33689e+07
7.26665e+07
7.19617e+07
7.12545e+07
7.05449e+07
6.9833e+07
6.91189e+07
6.84027e+07
6.76843e+07
6.69639e+07
6.62415e+07
6.55173e+07
6.47911e+07
6.40632e+07
6.33337e+07
6.26024e+07
6.18696e+07
6.11353e+07
6.03996e+07
5.96625e+07
5.89241e+07
5.81845e+07
5.74437e+07
5.67019e+07
5.59591e+07
5.52154e+07
5.44708e+07
5.37255e+07
5.29795e+07
5.22329e+07
5.14858e+07
5.07382e+07
4.99903e+07
4.92422e+07
4.84939e+07
4.77456e+07
4.69973e+07
4.62491e+07
4.55011e+07
4.47535e+07
4.40062e+07
4.32596e+07
4.25135e+07
4.17682e+07
4.10238e+07
4.02803e+07
3.95379e+07
3.87967e+07
3.80568e+07
3.73184e+07
3.65815e+07
3.58464e+07
3.5113e+07
3.43816e+07
3.36524e+07
3.29253e+07
3.22006e+07
3.14785e+07
3.0759e+07
3.00424e+07
2.93287e+07
2.86182e+07
2.79109e+07
2.72072e+07
2.65071e+07
2.58108e+07
2.51186e+07
2.44305e+07
2.37468e+07
2.30677e+07
2.23935e+07
2.17243e+07
2.10604e+07
2.0402e+07
1.97494e+07
1.9103e+07
1.84631e+07
1.78299e+07
1.7204e+07
1.65859e+07
1.59758e+07
1.53743e+07
1.47811e+07
1.15964e+08
1.15953e+08
1.15931e+08
1.15899e+08
1.15855e+08
1.15801e+08
1.15735e+08
1.15658e+08
1.1557e+08
1.1547e+08
1.15358e+08
1.15235e+08
1.151e+08
1.14954e+08
1.14796e+08
1.14626e+08
1.14445e+08
1.14252e+08
1.14048e+08
1.13833e+08
1.13606e+08
1.13368e+08
1.1312e+08
1.1286e+08
1.1259e+08
1.12309e+08
1.12018e+08
1.11716e+08
1.11405e+08
1.11083e+08
1.10751e+08
1.1041e+08
1.1006e+08
1.097e+08
1.09331e+08
1.08953e+08
1.08566e+08
1.0817e+08
1.07766e+08
1.07353e+08
1.06933e+08
1.06504e+08
1.06067e+08
1.05622e+08
1.0517e+08
1.0471e+08
1.04243e+08
1.03769e+08
1.03288e+08
1.028e+08
1.02305e+08
1.01803e+08
1.01295e+08
1.0078e+08
1.00259e+08
9.97324e+07
9.91994e+07
9.86605e+07
9.81158e+07
9.75654e+07
9.70095e+07
9.6448e+07
9.58813e+07
9.53093e+07
9.47321e+07
9.41499e+07
9.35628e+07
9.29708e+07
9.2374e+07
9.17726e+07
9.11667e+07
9.05562e+07
8.99414e+07
8.93222e+07
8.86989e+07
8.80714e+07
8.74398e+07
8.68043e+07
8.61649e+07
8.55216e+07
8.48746e+07
8.4224e+07
8.35697e+07
8.2912e+07
8.22507e+07
8.15861e+07
8.09182e+07
8.0247e+07
7.95727e+07
7.88952e+07
7.82147e+07
7.75312e+07
7.68449e+07
7.61556e+07
7.54636e+07
7.47689e+07
7.40715e+07
7.33715e+07
7.26689e+07
7.19639e+07
7.12566e+07
7.05468e+07
6.98348e+07
6.91206e+07
6.84042e+07
6.76857e+07
6.69652e+07
6.62427e+07
6.55183e+07
6.47921e+07
6.40641e+07
6.33345e+07
6.26032e+07
6.18703e+07
6.11359e+07
6.04001e+07
5.9663e+07
5.89246e+07
5.81849e+07
5.74441e+07
5.67023e+07
5.59594e+07
5.52157e+07
5.44711e+07
5.37257e+07
5.29797e+07
5.22331e+07
5.14859e+07
5.07384e+07
4.99905e+07
4.92424e+07
4.84941e+07
4.77457e+07
4.69974e+07
4.62492e+07
4.55012e+07
4.47535e+07
4.40063e+07
4.32596e+07
4.25136e+07
4.17682e+07
4.10238e+07
4.02803e+07
3.95379e+07
3.87967e+07
3.80568e+07
3.73184e+07
3.65815e+07
3.58464e+07
3.5113e+07
3.43817e+07
3.36524e+07
3.29253e+07
3.22006e+07
3.14785e+07
3.0759e+07
3.00424e+07
2.93287e+07
2.86181e+07
2.79109e+07
2.72071e+07
2.6507e+07
2.58107e+07
2.51184e+07
2.44303e+07
2.37466e+07
2.30675e+07
2.23932e+07
2.17239e+07
2.10599e+07
2.04014e+07
1.97487e+07
1.9102e+07
1.84617e+07
1.78281e+07
1.72017e+07
1.65826e+07
1.59713e+07
1.5368e+07
1.47721e+07
1.1627e+08
1.16258e+08
1.16235e+08
1.16201e+08
1.16156e+08
1.16099e+08
1.1603e+08
1.1595e+08
1.15858e+08
1.15753e+08
1.15637e+08
1.15509e+08
1.15369e+08
1.15217e+08
1.15053e+08
1.14877e+08
1.1469e+08
1.14491e+08
1.1428e+08
1.14058e+08
1.13825e+08
1.13581e+08
1.13325e+08
1.13059e+08
1.12782e+08
1.12494e+08
1.12196e+08
1.11888e+08
1.1157e+08
1.11242e+08
1.10905e+08
1.10557e+08
1.10201e+08
1.09835e+08
1.0946e+08
1.09077e+08
1.08684e+08
1.08283e+08
1.07874e+08
1.07457e+08
1.07031e+08
1.06598e+08
1.06157e+08
1.05708e+08
1.05251e+08
1.04788e+08
1.04317e+08
1.03839e+08
1.03354e+08
1.02863e+08
1.02365e+08
1.0186e+08
1.01349e+08
1.00831e+08
1.00308e+08
9.97784e+07
9.92429e+07
9.87016e+07
9.81547e+07
9.76022e+07
9.70442e+07
9.64808e+07
9.59122e+07
9.53385e+07
9.47597e+07
9.41759e+07
9.35872e+07
9.29938e+07
9.23957e+07
9.17931e+07
9.11859e+07
9.05743e+07
8.99583e+07
8.93382e+07
8.87138e+07
8.80854e+07
8.7453e+07
8.68166e+07
8.61764e+07
8.55324e+07
8.48848e+07
8.42334e+07
8.35786e+07
8.29202e+07
8.22584e+07
8.15933e+07
8.09249e+07
8.02533e+07
7.95785e+07
7.89007e+07
7.82198e+07
7.7536e+07
7.68492e+07
7.61597e+07
7.54674e+07
7.47724e+07
7.40747e+07
7.33745e+07
7.26717e+07
7.19665e+07
7.12589e+07
7.0549e+07
6.98368e+07
6.91224e+07
6.84059e+07
6.76873e+07
6.69666e+07
6.6244e+07
6.55196e+07
6.47932e+07
6.40652e+07
6.33354e+07
6.2604e+07
6.18711e+07
6.11367e+07
6.04008e+07
5.96636e+07
5.89251e+07
5.81854e+07
5.74446e+07
5.67027e+07
5.59598e+07
5.5216e+07
5.44714e+07
5.3726e+07
5.29799e+07
5.22333e+07
5.14861e+07
5.07386e+07
4.99907e+07
4.92425e+07
4.84942e+07
4.77458e+07
4.69975e+07
4.62493e+07
4.55013e+07
4.47536e+07
4.40064e+07
4.32597e+07
4.25136e+07
4.17683e+07
4.10238e+07
4.02804e+07
3.9538e+07
3.87968e+07
3.80569e+07
3.73184e+07
3.65816e+07
3.58464e+07
3.51131e+07
3.43817e+07
3.36524e+07
3.29253e+07
3.22006e+07
3.14785e+07
3.0759e+07
3.00423e+07
2.93287e+07
2.86181e+07
2.79109e+07
2.72071e+07
2.6507e+07
2.58106e+07
2.51183e+07
2.44302e+07
2.37464e+07
2.30673e+07
2.23929e+07
2.17235e+07
2.10594e+07
2.04007e+07
1.97478e+07
1.91008e+07
1.84602e+07
1.78262e+07
1.71991e+07
1.65791e+07
1.59666e+07
1.53615e+07
1.47634e+07
1.16626e+08
1.16613e+08
1.16589e+08
1.16553e+08
1.16505e+08
1.16445e+08
1.16372e+08
1.16288e+08
1.16191e+08
1.16081e+08
1.1596e+08
1.15826e+08
1.15679e+08
1.1552e+08
1.1535e+08
1.15167e+08
1.14972e+08
1.14765e+08
1.14547e+08
1.14317e+08
1.14076e+08
1.13823e+08
1.1356e+08
1.13286e+08
1.13001e+08
1.12706e+08
1.124e+08
1.12084e+08
1.11759e+08
1.11423e+08
1.11079e+08
1.10724e+08
1.10361e+08
1.09989e+08
1.09607e+08
1.09217e+08
1.08819e+08
1.08412e+08
1.07997e+08
1.07574e+08
1.07143e+08
1.06704e+08
1.06258e+08
1.05804e+08
1.05343e+08
1.04875e+08
1.044e+08
1.03918e+08
1.0343e+08
1.02934e+08
1.02432e+08
1.01924e+08
1.0141e+08
1.00889e+08
1.00363e+08
9.98302e+07
9.9292e+07
9.87481e+07
9.81986e+07
9.76437e+07
9.70834e+07
9.65179e+07
9.59472e+07
9.53715e+07
9.47908e+07
9.42052e+07
9.36149e+07
9.30199e+07
9.24202e+07
9.18161e+07
9.12076e+07
9.05947e+07
8.99775e+07
8.93562e+07
8.87307e+07
8.81013e+07
8.74678e+07
8.68306e+07
8.61895e+07
8.55447e+07
8.48962e+07
8.42441e+07
8.35886e+07
8.29296e+07
8.22672e+07
8.16015e+07
8.09325e+07
8.02604e+07
7.95851e+07
7.89068e+07
7.82255e+07
7.75413e+07
7.68542e+07
7.61643e+07
7.54716e+07
7.47763e+07
7.40784e+07
7.33779e+07
7.26749e+07
7.19694e+07
7.12616e+07
7.05515e+07
6.98391e+07
6.91245e+07
6.84078e+07
6.76891e+07
6.69683e+07
6.62456e+07
6.5521e+07
6.47945e+07
6.40664e+07
6.33365e+07
6.2605e+07
6.1872e+07
6.11375e+07
6.04016e+07
5.96643e+07
5.89257e+07
5.8186e+07
5.74451e+07
5.67032e+07
5.59602e+07
5.52164e+07
5.44717e+07
5.37263e+07
5.29802e+07
5.22336e+07
5.14864e+07
5.07388e+07
4.99908e+07
4.92427e+07
4.84943e+07
4.7746e+07
4.69976e+07
4.62494e+07
4.55014e+07
4.47537e+07
4.40065e+07
4.32598e+07
4.25137e+07
4.17684e+07
4.10239e+07
4.02804e+07
3.9538e+07
3.87968e+07
3.80569e+07
3.73185e+07
3.65816e+07
3.58464e+07
3.51131e+07
3.43817e+07
3.36524e+07
3.29253e+07
3.22007e+07
3.14785e+07
3.0759e+07
3.00423e+07
2.93286e+07
2.86181e+07
2.79108e+07
2.7207e+07
2.65069e+07
2.58105e+07
2.51182e+07
2.443e+07
2.37462e+07
2.3067e+07
2.23925e+07
2.1723e+07
2.10588e+07
2.03999e+07
1.97468e+07
1.90996e+07
1.84586e+07
1.78241e+07
1.71963e+07
1.65755e+07
1.59618e+07
1.53551e+07
1.47551e+07
1.17034e+08
1.1702e+08
1.16994e+08
1.16955e+08
1.16904e+08
1.1684e+08
1.16764e+08
1.16674e+08
1.16571e+08
1.16456e+08
1.16327e+08
1.16186e+08
1.16032e+08
1.15865e+08
1.15686e+08
1.15495e+08
1.15291e+08
1.15075e+08
1.14848e+08
1.14609e+08
1.14359e+08
1.14097e+08
1.13824e+08
1.13541e+08
1.13247e+08
1.12943e+08
1.12628e+08
1.12304e+08
1.1197e+08
1.11626e+08
1.11273e+08
1.10911e+08
1.1054e+08
1.1016e+08
1.09771e+08
1.09374e+08
1.08968e+08
1.08555e+08
1.08133e+08
1.07704e+08
1.07267e+08
1.06823e+08
1.06371e+08
1.05912e+08
1.05446e+08
1.04973e+08
1.04493e+08
1.04006e+08
1.03513e+08
1.03014e+08
1.02508e+08
1.01996e+08
1.01477e+08
1.00953e+08
1.00423e+08
9.98878e+07
9.93465e+07
9.87996e+07
9.82474e+07
9.76898e+07
9.7127e+07
9.6559e+07
9.5986e+07
9.54081e+07
9.48253e+07
9.42378e+07
9.36456e+07
9.30488e+07
9.24475e+07
9.18417e+07
9.12316e+07
9.06173e+07
8.99988e+07
8.93761e+07
8.87495e+07
8.81189e+07
8.74843e+07
8.6846e+07
8.6204e+07
8.55582e+07
8.49089e+07
8.4256e+07
8.35997e+07
8.29399e+07
8.22769e+07
8.16105e+07
8.09409e+07
8.02682e+07
7.95924e+07
7.89136e+07
7.82319e+07
7.75472e+07
7.68597e+07
7.61694e+07
7.54764e+07
7.47807e+07
7.40825e+07
7.33817e+07
7.26784e+07
7.19727e+07
7.12646e+07
7.05543e+07
6.98417e+07
6.91269e+07
6.841e+07
6.76911e+07
6.69701e+07
6.62472e+07
6.55225e+07
6.4796e+07
6.40677e+07
6.33377e+07
6.26061e+07
6.1873e+07
6.11384e+07
6.04024e+07
5.96651e+07
5.89264e+07
5.81866e+07
5.74457e+07
5.67037e+07
5.59607e+07
5.52168e+07
5.44721e+07
5.37267e+07
5.29806e+07
5.22339e+07
5.14866e+07
5.0739e+07
4.99911e+07
4.92429e+07
4.84945e+07
4.77461e+07
4.69977e+07
4.62495e+07
4.55015e+07
4.47538e+07
4.40066e+07
4.32598e+07
4.25138e+07
4.17684e+07
4.1024e+07
4.02805e+07
3.95381e+07
3.87969e+07
3.8057e+07
3.73185e+07
3.65816e+07
3.58465e+07
3.51131e+07
3.43817e+07
3.36524e+07
3.29254e+07
3.22007e+07
3.14785e+07
3.0759e+07
3.00423e+07
2.93286e+07
2.86181e+07
2.79108e+07
2.7207e+07
2.65068e+07
2.58104e+07
2.5118e+07
2.44298e+07
2.3746e+07
2.30667e+07
2.23921e+07
2.17225e+07
2.10581e+07
2.03991e+07
1.97458e+07
1.90983e+07
1.84569e+07
1.78219e+07
1.71935e+07
1.65718e+07
1.5957e+07
1.53489e+07
1.47471e+07
1.17497e+08
1.17482e+08
1.17454e+08
1.17413e+08
1.17358e+08
1.17289e+08
1.17207e+08
1.17111e+08
1.17001e+08
1.16878e+08
1.16742e+08
1.16592e+08
1.16429e+08
1.16253e+08
1.16064e+08
1.15862e+08
1.15648e+08
1.15422e+08
1.15184e+08
1.14934e+08
1.14673e+08
1.14401e+08
1.14118e+08
1.13824e+08
1.1352e+08
1.13205e+08
1.12881e+08
1.12547e+08
1.12203e+08
1.1185e+08
1.11488e+08
1.11116e+08
1.10736e+08
1.10348e+08
1.09951e+08
1.09546e+08
1.09133e+08
1.08712e+08
1.08283e+08
1.07847e+08
1.07404e+08
1.06953e+08
1.06495e+08
1.0603e+08
1.05558e+08
1.05079e+08
1.04594e+08
1.04103e+08
1.03605e+08
1.031e+08
1.0259e+08
1.02074e+08
1.01552e+08
1.01024e+08
1.0049e+08
9.99508e+07
9.94061e+07
9.88561e+07
9.83007e+07
9.77402e+07
9.71746e+07
9.6604e+07
9.60285e+07
9.54482e+07
9.48632e+07
9.42734e+07
9.36792e+07
9.30804e+07
9.24772e+07
9.18698e+07
9.1258e+07
9.06421e+07
9.00221e+07
8.9398e+07
8.877e+07
8.81381e+07
8.75024e+07
8.6863e+07
8.62198e+07
8.55731e+07
8.49228e+07
8.4269e+07
8.36118e+07
8.29513e+07
8.22875e+07
8.16204e+07
8.09502e+07
8.02769e+07
7.96005e+07
7.89211e+07
7.82388e+07
7.75537e+07
7.68657e+07
7.6175e+07
7.54816e+07
7.47855e+07
7.40869e+07
7.33858e+07
7.26822e+07
7.19762e+07
7.12679e+07
7.05573e+07
6.98445e+07
6.91295e+07
6.84124e+07
6.76932e+07
6.69721e+07
6.62491e+07
6.55242e+07
6.47975e+07
6.40691e+07
6.3339e+07
6.26073e+07
6.18741e+07
6.11394e+07
6.04033e+07
5.96659e+07
5.89272e+07
5.81873e+07
5.74463e+07
5.67043e+07
5.59612e+07
5.52173e+07
5.44726e+07