/*--------------------------------*- C++ -*----------------------------------*\
  =========                 |
  \\      /  F ield         | OpenFOAM: The Open Source CFD Toolbox
   \\    /   O peration     | Website:  https://openfoam.org
    \\  /    A nd           | Version:  7
     \\/     M anipulation  |
\*---------------------------------------------------------------------------*/
FoamFile
{
    version     2.0;
    format      ascii;
    class       volScalarField;
    location    "0.002";
    object      s_0;
}
// * * * * * * * * * * * * * * * * * * * * * * * * * * * * * * * * * * * * * //

dimensions      [0 0 0 0 0 0 0];

internalField   nonuniform List<scalar> 
12225
(
1
0.999862
0.997404
0.977767
0.879777
0.576431
0.306479
0.151265
0.0699783
0.0306998
0.0132972
0.00545509
0.00220855
0.00101518
0.000425724
0.000155295
8.74525e-05
4.7857e-05
1
0.99995
0.999256
0.99482
0.975673
0.903314
0.66021
0.38006
0.203249
0.10274
0.0498076
0.0233055
0.0106255
0.00478777
0.0021344
0.000949649
0.000428553
0.000200288
1
0.999964
0.999455
0.995732
0.976661
0.898866
0.644778
0.371572
0.200157
0.102185
0.0498859
0.0235351
0.0108476
0.0048958
0.00217365
0.000970173
0.000435542
0.000199702
1
0.999966
0.999488
0.996005
0.978325
0.906635
0.663976
0.383933
0.20662
0.105121
0.0511547
0.024044
0.0110121
0.0049407
0.00218998
0.00097131
0.000430598
0.000194466
1
0.999965
0.99947
0.9959
0.978092
0.906848
0.666354
0.386305
0.208028
0.105802
0.0514081
0.0240937
0.0109992
0.00492257
0.00217068
0.000952895
0.000417261
0.000186026
1
0.999966
0.999484
0.995993
0.978622
0.909656
0.675072
0.392901
0.211697
0.107462
0.0520432
0.0242988
0.0110337
0.0049055
0.00214819
0.000934938
0.000404275
0.00017711
1
0.999969
0.999535
0.996453
0.981105
0.919066
0.697247
0.405241
0.217118
0.10957
0.0527665
0.0244884
0.0110472
0.00487925
0.00212059
0.000911979
0.000387832
0.000166785
1
0.99997
0.999553
0.996529
0.981077
0.917659
0.691873
0.401539
0.215195
0.108634
0.0522894
0.0242247
0.0108896
0.0047795
0.00205851
0.000875209
0.000367024
0.000155185
1
0.99997
0.999551
0.996468
0.980853
0.917897
0.695547
0.40621
0.218379
0.110197
0.0528759
0.0243745
0.0108859
0.00474205
0.00202414
0.000850309
0.000350912
0.000145556
1
0.999969
0.99954
0.996466
0.981083
0.919416
0.700851
0.410119
0.220328
0.110922
0.0530253
0.0243216
0.010789
0.00465652
0.00196478
0.000813699
0.000330224
0.000134441
1
0.999972
0.999584
0.996789
0.982844
0.926648
0.720808
0.422592
0.226147
0.113222
0.053779
0.0244875
0.010771
0.00460256
0.00191886
0.000783283
0.000312479
0.000124766
1
0.999972
0.999578
0.996714
0.982223
0.923342
0.710018
0.414632
0.221631
0.110821
0.052498
0.0237899
0.0103913
0.00439986
0.00181368
0.000730496
0.000287006
0.000112712
1
0.999971
0.999569
0.996679
0.982116
0.923018
0.709268
0.414336
0.221449
0.110573
0.0522137
0.0235453
0.0102253
0.00429934
0.00175674
0.000700049
0.000271678
0.000105248
1
0.999968
0.999545
0.996548
0.981627
0.921854
0.70793
0.414234
0.221372
0.110287
0.051869
0.0232486
0.0100011
0.00415394
0.00167357
0.000656364
0.000250298
9.51738e-05
1
0.999972
0.999589
0.996898
0.983545
0.929591
0.729874
0.428172
0.227729
0.112599
0.0524863
0.0232917
0.00990605
0.00406111
0.00161194
0.000621786
0.000232917
8.69283e-05
1
0.999973
0.999603
0.996968
0.983722
0.929902
0.730458
0.428271
0.227305
0.111923
0.0517853
0.0227379
0.00954978
0.00385933
0.00150755
0.000571435
0.000210113
7.69231e-05
1
0.999974
0.999619
0.997049
0.984082
0.931496
0.736398
0.43287
0.229336
0.112319
0.0515677
0.0224222
0.0093048
0.00370769
0.00142543
0.000530957
0.000191654
6.88405e-05
1
0.999977
0.999668
0.997444
0.986065
0.938689
0.756852
0.444728
0.23361
0.113139
0.0512672
0.0219669
0.00897125
0.00351394
0.00132665
0.00048489
0.000171666
6.04678e-05
1
0.999973
0.999598
0.996913
0.983382
0.928355
0.725228
0.42243
0.221953
0.107589
0.0487089
0.0207913
0.00843479
0.00327381
0.00122242
0.000441275
0.000154164
5.3564e-05
1
0.999973
0.999612
0.997039
0.984112
0.931627
0.736086
0.430123
0.22551
0.108746
0.048884
0.020699
0.00832459
0.00320125
0.00118348
0.000422676
0.000146034
5.0165e-05
1
0.999974
0.999626
0.997179
0.984976
0.935347
0.74836
0.439371
0.230493
0.111023
0.0497891
0.0210069
0.00840925
0.00321594
0.00118155
0.000419165
0.00014381
4.905e-05
1
0.999973
0.999599
0.996952
0.983805
0.930816
0.734178
0.429068
0.225038
0.108461
0.0486515
0.0205151
0.00819983
0.00312827
0.00114579
0.000405044
0.000138431
4.70265e-05
1
0.999973
0.999614
0.997059
0.984091
0.930821
0.731845
0.426587
0.223548
0.107738
0.0483274
0.0203702
0.00813406
0.00309854
0.00113273
0.000399536
0.000136221
4.61585e-05
1
0.999971
0.999591
0.996941
0.983858
0.931601
0.739056
0.435725
0.230108
0.111364
0.0500208
0.0210703
0.00839728
0.00318996
0.00116232
0.000408506
0.00013876
4.68414e-05
1
0.999975
0.999649
0.997435
0.986725
0.94413
0.784196
0.472297
0.250457
0.12091
0.0540217
0.0226104
0.00895136
0.00337852
0.00122354
0.000427582
0.000144477
4.85359e-05
1
0.999977
0.99968
0.997651
0.987721
0.947725
0.796764
0.483194
0.256641
0.123876
0.0552794
0.0230927
0.00912143
0.00343434
0.0012407
0.000432529
0.000145812
4.88774e-05
1
0.999978
0.999698
0.997758
0.988138
0.949043
0.801044
0.486856
0.258478
0.124622
0.0555274
0.023156
0.00912976
0.00343121
0.00123739
0.000430656
0.000144956
4.85208e-05
1
0.999981
0.999746
0.998133
0.99018
0.957619
0.834316
0.524265
0.278742
0.134185
0.0595169
0.0246809
0.0096771
0.00361876
0.00129939
0.000450572
0.000151189
5.04751e-05
1
0.999981
0.999733
0.997997
0.989175
0.952471
0.814065
0.500197
0.265245
0.1273
0.0563283
0.0233015
0.00911062
0.00339623
0.0012154
0.000419983
0.000140424
4.67169e-05
1
0.999976
0.999622
0.996756
0.979934
0.900828
0.615562
0.307637
0.137858
0.0566191
0.0216524
0.00780139
0.00267104
0.000874735
0.000275508
8.38667e-05
2.47292e-05
7.26046e-06
7.73022e-45
8.35412e-42
1.02462e-40
5.42355e-40
7.51579e-40
5.54922e-40
2.23171e-40
6.89663e-41
1.79827e-41
4.17968e-42
8.91454e-43
1.75467e-43
3.19117e-44
5.37723e-45
8.42816e-46
1.23389e-46
1.69385e-47
2.18803e-48
2.66787e-49
3.07909e-50
3.37223e-51
3.51268e-52
3.48735e-53
3.30616e-54
2.9985e-55
2.6059e-56
2.17353e-57
1.74247e-58
1.3445e-59
9.99814e-61
7.17426e-62
4.97329e-63
3.33428e-64
2.16426e-65
1.36145e-66
8.30792e-68
4.92235e-69
2.8341e-70
1.587e-71
8.64948e-73
4.59176e-74
2.376e-75
1.19917e-76
5.90689e-78
2.84144e-79
1.33558e-80
6.13737e-82
2.75869e-83
1.2135e-84
5.22628e-86
2.2047e-87
9.11356e-89
3.69298e-90
1.46749e-91
5.72044e-93
2.18817e-94
8.21609e-96
3.02903e-97
1.09676e-98
3.90123e-100
1.36356e-101
4.68414e-103
1.58181e-104
5.25212e-106
1.71494e-107
5.50774e-109
1.74011e-110
5.40911e-112
1.65456e-113
4.98083e-115
1.47584e-116
4.30477e-118
1.23617e-119
3.49518e-121
9.73128e-123
2.6682e-124
7.2053e-126
1.9165e-127
5.0214e-129
1.29607e-130
3.29576e-132
8.25718e-134
2.03838e-135
4.9584e-137
1.18857e-138
2.80774e-140
6.53672e-142
1.49986e-143
3.39194e-145
7.56072e-147
1.66116e-148
3.59748e-150
7.67922e-152
1.61582e-153
3.35113e-155
6.85836e-157
1.38774e-158
2.7762e-160
5.49086e-162
1.07369e-163
2.0757e-165
3.96738e-167
7.49721e-169
1.40075e-170
2.58755e-172
4.72605e-174
8.53485e-176
1.52402e-177
2.69089e-179
4.69809e-181
8.11111e-183
1.38479e-184
2.33802e-186
3.90379e-188
6.44631e-190
1.05278e-191
1.70053e-193
2.71683e-195
4.29328e-197
6.71086e-199
1.03764e-200
1.58711e-202
2.40147e-204
3.59477e-206
5.32358e-208
7.79988e-210
1.13068e-211
1.6217e-213
2.30141e-215
3.23165e-217
4.49026e-219
6.17373e-221
8.39971e-223
1.13092e-224
1.50681e-226
1.98681e-228
2.59257e-230
3.34805e-232
4.27903e-234
5.4125e-236
6.77573e-238
8.39509e-240
1.02946e-241
1.24944e-243
1.50087e-245
1.78442e-247
2.09982e-249
2.44566e-251
2.81933e-253
3.21685e-255
3.63287e-257
4.06075e-259
4.49261e-261
4.91958e-263
5.33203e-265
5.71994e-267
6.07328e-269
6.38242e-271
6.63858e-273
6.83422e-275
6.96341e-277
7.02209e-279
7.00835e-281
6.92242e-283
6.76676e-285
6.54583e-287
6.26597e-289
5.935e-291
5.56189e-293
5.15634e-295
4.72833e-297
4.28772e-299
3.84389e-301
3.40532e-303
2.97947e-305
2.57221e-307
2.18877e-309
1.8294e-311
1.50009e-313
1.16945e-315
3.33574e-42
3.18148e-39
3.98064e-38
2.18839e-37
3.31737e-37
2.64857e-37
1.16218e-37
3.74387e-38
1.00605e-38
2.3865e-39
5.1769e-40
1.03437e-40
1.90564e-41
3.24636e-42
5.13554e-43
7.57806e-44
1.04746e-44
1.36131e-45
1.66905e-46
1.93627e-47
2.13109e-48
2.2306e-49
2.22525e-50
2.12004e-51
1.93251e-52
1.68833e-53
1.41595e-54
1.14167e-55
8.86233e-57
6.63195e-58
4.79027e-59
3.3436e-60
2.2578e-61
1.47649e-62
9.36005e-64
5.75761e-65
3.43961e-66
1.99732e-67
1.12827e-68
6.20484e-70
3.32448e-71
1.73656e-72
8.84949e-74
4.4023e-75
2.13911e-76
1.01584e-77
4.71726e-79
2.14314e-80
9.53049e-82
4.15037e-83
1.77074e-84
7.40458e-86
3.03594e-87
1.22094e-88
4.81789e-90
1.86606e-91
7.09642e-93
2.65048e-94
9.7253e-96
3.50664e-97
1.24278e-98
4.33032e-100
1.48375e-101
5.00042e-103
1.65785e-104
5.40828e-106
1.73629e-107
5.48664e-109
1.7068e-110
5.22775e-112
1.57676e-113
4.68371e-115
1.3704e-116
3.94997e-118
1.1217e-119
3.13865e-121
8.65458e-123
2.35195e-124
6.29991e-126
1.66344e-127
4.33001e-129
1.11127e-130
2.81215e-132
7.01752e-134
1.72701e-135
4.19188e-137
1.0036e-138
2.37022e-140
5.52236e-142
1.26942e-143
2.87918e-145
6.44382e-147
1.4232e-148
3.10221e-150
6.67404e-152
1.41724e-153
2.97423e-155
6.17013e-157
1.26534e-158
2.56514e-160
5.14062e-162
1.01841e-163
1.99449e-165
3.86151e-167
7.39098e-169
1.39854e-170
2.61628e-172
4.83882e-174
8.84819e-176
1.5997e-177
2.8596e-179
5.05437e-181
8.83362e-183
1.52663e-184
2.60897e-186
4.4092e-188
7.36918e-190
1.21805e-191
1.9912e-193
3.21945e-195
5.14855e-197
8.14404e-199
1.27427e-200
1.97229e-202
3.0198e-204
4.57406e-206
6.85422e-208
1.01616e-209
1.49048e-211
2.16305e-213
3.10597e-215
4.41299e-217
6.20417e-219
8.63106e-221
1.18819e-222
1.61867e-224
2.18219e-226
2.91139e-228
3.84405e-230
5.02306e-232
6.496e-234
8.31436e-236
1.05323e-237
1.3205e-239
1.63862e-241
2.01256e-243
2.44654e-245
2.9437e-247
3.50572e-249
4.13243e-251
4.82151e-253
5.56813e-255
6.36484e-257
7.20144e-259
8.06502e-261
8.94017e-263
9.80935e-265
1.06534e-266
1.14522e-268
1.21854e-270
1.28333e-272
1.33776e-274
1.38024e-276
1.40949e-278
1.42457e-280
1.42498e-282
1.41064e-284
1.38192e-286
1.3396e-288
1.28484e-290
1.21911e-292
1.14414e-294
1.06182e-296
9.74102e-299
8.82933e-301
7.90146e-303
6.97326e-305
6.05887e-307
5.16231e-309
4.31395e-311
6.88879e-40
5.73628e-37
7.30716e-36
4.18422e-35
6.95837e-35
6.03842e-35
2.9241e-35
9.83762e-36
2.73203e-36
6.6197e-37
1.46057e-37
2.96199e-38
5.52584e-39
9.51107e-40
1.51728e-40
2.25437e-41
3.13387e-42
4.09257e-43
5.03881e-44
5.86752e-45
6.48041e-46
6.80575e-47
6.81193e-48
6.5117e-49
5.95636e-50
5.22271e-51
4.39693e-52
3.55959e-53
2.77501e-54
2.08601e-55
1.5139e-56
1.06197e-57
7.20842e-59
4.7395e-60
3.02144e-61
1.86934e-62
1.12341e-63
6.56335e-65
3.73072e-66
2.06475e-67
1.11342e-68
5.85411e-70
3.003e-71
1.50386e-72
7.35654e-74
3.51717e-75
1.64436e-76
7.52145e-78
3.36757e-79
1.47652e-80
6.34246e-82
2.67024e-83
1.10226e-84
4.46297e-86
1.77304e-87
6.91374e-89
2.64694e-90
9.95268e-92
3.67641e-93
1.33448e-94
4.76112e-96
1.67002e-97
5.76033e-99
1.95423e-100
6.52218e-102
2.14181e-103
6.92179e-105
2.20179e-106
6.89484e-108
2.12583e-109
6.45429e-111
1.92995e-112
5.68428e-114
1.64927e-115
4.71459e-117
1.32795e-118
3.68599e-120
1.00834e-121
2.71881e-123
7.22631e-125
1.89348e-126
4.8916e-128
1.24602e-129
3.12985e-131
7.7532e-133
1.89424e-134
4.56481e-136
1.08512e-137
2.54469e-139
5.88748e-141
1.34399e-142
3.02736e-144
6.72931e-146
1.47619e-147
3.19609e-149
6.83026e-151
1.44214e-152
3.00976e-154
6.20884e-156
1.26603e-157
2.55174e-159
5.08384e-161
1.00119e-162
1.94903e-164
3.75062e-166
7.13481e-168
1.34173e-169
2.4944e-171
4.58451e-173
8.3303e-175
1.49652e-176
2.65812e-178
4.66821e-180
8.10634e-182
1.39192e-183
2.3634e-185
3.96832e-187
6.58934e-189
1.08208e-190
1.75743e-192
2.82302e-194
4.48524e-196
7.04871e-198
1.09573e-199
1.68495e-201
2.56315e-203
3.85729e-205
5.74287e-207
8.45922e-209
1.23283e-210
1.7777e-212
2.53638e-214
3.58085e-216
5.00248e-218
6.91553e-220
9.46062e-222
1.28079e-223
1.71599e-225
2.27529e-227
2.98576e-229
3.87774e-231
4.98445e-233
6.34128e-235
7.98483e-237
9.95152e-239
1.22759e-240
1.49887e-242
1.81145e-244
2.16691e-246
2.56576e-248
3.00712e-250
3.48858e-252
4.00601e-254
4.55348e-256
5.1232e-258
5.70569e-260
6.28988e-262
6.86348e-264
7.4133e-266
7.92577e-268
8.38748e-270
8.78569e-272
9.10894e-274
9.34758e-276
9.4942e-278
9.54399e-280
9.49498e-282
9.34812e-284
9.10723e-286
8.77879e-288
8.37159e-290
7.89632e-292
7.36502e-294
6.79049e-296
6.1857e-298
5.56322e-300
4.93415e-302
4.31022e-304
3.69612e-306
3.11307e-308
9.12347e-38
6.59335e-35
8.52905e-34
5.10148e-33
9.32597e-33
8.87358e-33
4.7713e-33
1.68729e-33
4.86141e-34
1.20465e-34
2.70392e-35
5.56583e-36
1.05132e-36
1.82762e-37
2.93862e-38
4.39352e-39
6.13814e-40
8.0486e-41
9.94347e-42
1.16135e-42
1.28618e-43
1.35433e-44
1.35916e-45
1.30283e-46
1.19521e-47
1.05128e-48
8.8806e-50
7.21573e-51
5.64745e-52
4.26321e-53
3.10792e-54
2.19057e-55
1.49441e-56
9.87766e-58
6.33179e-59
3.93989e-60
2.38177e-61
1.39999e-62
8.00755e-64
4.46003e-65
2.42072e-66
1.28116e-67
6.61597e-69
3.33557e-70
1.64279e-71
7.90798e-73
3.72259e-74
1.71449e-75
7.72928e-77
3.41233e-78
1.4759e-79
6.2565e-81
2.60041e-82
1.0601e-83
4.24034e-85
1.66473e-86
6.4167e-88
2.42904e-89
9.03307e-91
3.30087e-92
1.18556e-93
4.18622e-95
1.45353e-96
4.9639e-98
1.66764e-99
5.51248e-101
1.79322e-102
5.74165e-104
1.80978e-105
5.61647e-107
1.71639e-108
5.16585e-110
1.53142e-111
4.47232e-113
1.28678e-114
3.64801e-116
1.01915e-117
2.80606e-119
7.61506e-121
2.03709e-122
5.37213e-124
1.39677e-125
3.5808e-127
9.05216e-129
2.25672e-130
5.54869e-132
1.34564e-133
3.21902e-135
7.59648e-137
1.76859e-138
4.06256e-140
9.20801e-142
2.05947e-143
4.54572e-145
9.90239e-147
2.12911e-148
4.52246e-150
9.49457e-152
1.97016e-153
4.0407e-155
8.19111e-157
1.64121e-158
3.25034e-160
6.36273e-162
1.23117e-163
2.35482e-165
4.45223e-167
8.32125e-169
1.53746e-170
2.80824e-172
5.07104e-174
9.05326e-176
1.59799e-177
2.78883e-179
4.81241e-181
8.21137e-183
1.38547e-184
2.31166e-186
3.81431e-188
6.22432e-190
1.00454e-191
1.60349e-193
2.53163e-195
3.9536e-197
6.10747e-199
9.33304e-201
1.4109e-202
2.11009e-204
3.12213e-206
4.57052e-208
6.62004e-210
9.48752e-212
1.34542e-213
1.88794e-215
2.62157e-217
3.60238e-219
4.89875e-221
6.59268e-223
8.78072e-225
1.15745e-226
1.51003e-228
1.94981e-230
2.49189e-232
3.15213e-234
3.94662e-236
4.89102e-238
5.99973e-240
7.28496e-242
8.75568e-244
1.04166e-245
1.22669e-247
1.42995e-249
1.65002e-251
1.88468e-253
2.13092e-255
2.38496e-257
2.64227e-259
2.89771e-261
3.14567e-263
3.38025e-265
3.59549e-267
3.78562e-269
3.94528e-271
4.06979e-273
4.15537e-275
4.19927e-277
4.19997e-279
4.1572e-281
4.07197e-283
3.9465e-285
3.78414e-287
3.58913e-289
3.36647e-291
3.12161e-293
2.8602e-295
2.58797e-297
2.31005e-299
2.03221e-301
1.75744e-303
1.49582e-305
8.72511e-36
5.43548e-33
7.12747e-32
4.46698e-31
8.98547e-31
9.49652e-31
5.665e-31
2.1295e-31
6.39375e-32
1.62241e-32
3.7039e-33
7.73685e-34
1.47906e-34
2.59537e-35
4.20291e-36
6.31772e-37
8.86256e-38
1.16575e-38
1.44379e-39
1.6898e-40
1.87494e-41
1.97787e-42
1.98867e-43
1.91017e-44
1.75637e-45
1.54883e-46
1.31212e-47
1.06956e-48
8.40072e-50
6.36632e-51
4.66075e-52
3.30001e-53
2.26222e-54
1.50296e-55
9.6865e-57
6.06145e-58
3.68588e-59
2.17974e-60
1.25456e-61
7.03258e-63
3.84204e-64
2.04699e-65
1.06424e-66
5.40237e-68
2.67913e-69
1.29866e-70
6.15616e-72
2.85525e-73
1.29628e-74
5.76319e-76
2.51026e-77
1.07161e-78
4.48523e-80
1.84128e-81
7.41632e-83
2.93181e-84
1.13788e-85
4.33708e-87
1.62391e-88
5.97458e-90
2.16043e-91
7.6801e-93
2.68463e-94
9.22966e-96
3.12147e-97
1.03869e-98
3.40133e-100
1.09627e-101
3.4783e-103
1.08658e-104
3.34241e-106
1.01258e-107
3.02148e-109
8.88157e-111
2.57211e-112
7.3395e-114
2.06381e-115
5.71931e-117
1.56218e-118
4.20604e-120
1.11638e-121
2.92136e-123
7.53755e-125
1.91772e-126
4.81157e-128
1.19061e-129
2.90581e-131
6.99542e-133
1.66128e-134
3.89215e-136
8.99671e-138
2.05191e-139
4.61792e-141
1.0256e-142
2.24794e-144
4.86297e-146
1.03928e-147
2.19511e-149
4.58225e-151
9.45367e-153
1.92764e-154
3.88471e-156
7.73761e-158
1.52327e-159
2.96402e-161
5.70068e-163
1.08374e-164
2.03652e-166
3.78296e-168
6.94651e-170
1.26098e-171
2.26294e-173
4.0149e-175
7.04257e-177
1.22141e-178
2.09449e-180
3.55144e-182
5.95467e-184
9.87317e-186
1.6189e-187
2.62523e-189
4.21036e-191
6.67874e-193
1.04788e-194
1.62627e-196
2.49664e-198
3.79159e-200
5.69647e-202
8.467e-204
1.24512e-205
1.81162e-207
2.60805e-209
3.71514e-211
5.23673e-213
7.30444e-215
1.00825e-216
1.37728e-218
1.86192e-220
2.49113e-222
3.29869e-224
4.32322e-226
5.60794e-228
7.20012e-230
9.1501e-232
1.15098e-233
1.4331e-235
1.76627e-237
2.15483e-239
2.60226e-241
3.11083e-243
3.68121e-245
4.3122e-247
5.00038e-249
5.7399e-251
6.52235e-253
7.33673e-255
8.1696e-257
9.00528e-259
9.8263e-261
1.06139e-262
1.13489e-264
1.20121e-266
1.25852e-268
1.30519e-270
1.33982e-272
1.36133e-274
1.36902e-276
1.36256e-278
1.34206e-280
1.30803e-282
1.26136e-284
1.20326e-286
1.13523e-288
1.05896e-290
9.76271e-293
8.89042e-295
7.99052e-297
7.08359e-299
6.18378e-301
5.32743e-303
6.42722e-34
3.42393e-31
4.54705e-30
2.99536e-29
6.63156e-29
7.90908e-29
5.21336e-29
2.11208e-29
6.63794e-30
1.72703e-30
4.00766e-31
8.48995e-32
1.64151e-32
2.90503e-33
4.73344e-34
7.14624e-35
1.00551e-35
1.32536e-36
1.64383e-37
1.92597e-38
2.13893e-39
2.2584e-40
2.27311e-41
2.18616e-42
2.01332e-43
1.77885e-44
1.51048e-45
1.23459e-46
9.72731e-48
7.39767e-49
5.43703e-50
3.8662e-51
2.66269e-52
1.77786e-53
1.15189e-54
7.2484e-56
4.43341e-57
2.63775e-58
1.52772e-59
8.61914e-61
4.74003e-62
2.54251e-63
1.33095e-64
6.80344e-66
3.39774e-67
1.65871e-68
7.91922e-70
3.69937e-71
1.69161e-72
7.57505e-74
3.32323e-75
1.42888e-76
6.02353e-78
2.49047e-79
1.01027e-80
4.02211e-82
1.57206e-83
6.03409e-85
2.27511e-86
8.42857e-88
3.06888e-89
1.09845e-90
3.86599e-92
1.33816e-93
4.55633e-95
1.52639e-96
5.03195e-98
1.6327e-99
5.21486e-101
1.63989e-102
5.07794e-104
1.54853e-105
4.65125e-107
1.37623e-108
4.01178e-110
1.15227e-111
3.26132e-113
9.09699e-115
2.50098e-116
6.77755e-118
1.81061e-119
4.76879e-121
1.23839e-122
3.1711e-124
8.00758e-126
1.99419e-127
4.89823e-129
1.18673e-130
2.83623e-132
6.68706e-134
1.55549e-135
3.57002e-137
8.08488e-139
1.8068e-140
3.98483e-142
8.67369e-144
1.86522e-145
3.96387e-147
8.32485e-149
1.72784e-150
3.54409e-152
7.18434e-154
1.43931e-155
2.84984e-157
5.57686e-159
1.07864e-160
2.06199e-162
3.89616e-164
7.2768e-166
1.34341e-167
2.45166e-169
4.42292e-171
7.88808e-173
1.3908e-174
2.42441e-176
4.17846e-178
7.12054e-180
1.19982e-181
1.99914e-183
3.29396e-185
5.36734e-187
8.64941e-189
1.37855e-190
2.17313e-192
3.38842e-194
5.22613e-196
7.97356e-198
1.20347e-199
1.797e-201
2.65469e-203
3.88013e-205
5.61137e-207
8.02966e-209
1.13697e-210
1.59311e-212
2.20901e-214
3.03126e-216
4.1166e-218
5.53294e-220
7.3602e-222
9.69064e-224
1.26286e-225
1.62895e-227
2.07981e-229
2.6285e-231
3.2883e-233
4.07211e-235
4.99184e-237
6.05758e-239
7.27679e-241
8.65343e-243
1.0187e-244
1.18719e-246
1.36964e-248
1.56427e-250
1.76861e-252
1.97957e-254
2.19345e-256
2.40602e-258
2.61266e-260
2.80851e-262
2.98865e-264
3.14826e-266
3.2829e-268
3.38863e-270
3.46224e-272
3.50137e-274
3.50465e-276
3.47174e-278
3.40336e-280
3.30122e-282
3.16799e-284
3.00708e-286
2.82259e-288
2.619e-290
2.40115e-292
2.17388e-294
1.94268e-296
1.71224e-298
1.49069e-300
3.8007e-32
1.71459e-29
2.30601e-28
1.6011e-27
3.9079e-27
5.32339e-27
3.88529e-27
1.71736e-27
5.6699e-28
1.51432e-28
3.56764e-29
7.65689e-30
1.49576e-30
2.6667e-31
4.36675e-32
6.61341e-33
9.32233e-34
1.22987e-34
1.52587e-35
1.78774e-36
1.98518e-37
2.09597e-38
2.10996e-39
2.0302e-40
1.87126e-41
1.65543e-42
1.4081e-43
1.15344e-44
9.11212e-46
6.95154e-47
5.12747e-48
3.66073e-49
2.53235e-50
1.69897e-51
1.10646e-52
7.00075e-54
4.30672e-55
2.57788e-56
1.50243e-57
8.53161e-59
4.72325e-60
2.55084e-61
1.34464e-62
6.9221e-64
3.48183e-65
1.71209e-66
8.2338e-68
3.87458e-69
1.78479e-70
8.05131e-72
3.55825e-73
1.54121e-74
6.54486e-76
2.72586e-77
1.11383e-78
4.46662e-80
1.75842e-81
6.79787e-83
2.58139e-84
9.63112e-86
3.53147e-87
1.27289e-88
4.51114e-90
1.57229e-91
5.3904e-93
1.81818e-94
6.03474e-96
1.97135e-97
6.33908e-99
2.00684e-100
6.25586e-102
1.92049e-103
5.80691e-105
1.72959e-106
5.07522e-108
1.46735e-109
4.18049e-111
1.17376e-112
3.24814e-114
8.86001e-116
2.38242e-117
6.31576e-119
1.6508e-120
4.25461e-122
1.08133e-123
2.71033e-125
6.70019e-127
1.63375e-128
3.92961e-130
9.32419e-132
2.18274e-133
5.04141e-135
1.14892e-136
2.58377e-138
5.73413e-140
1.25593e-141
2.71783e-143
5.81185e-145
1.22813e-146
2.56457e-148
5.29213e-150
1.07919e-151
2.17482e-153
4.33127e-155
8.52479e-157
1.65821e-158
3.1878e-160
6.05698e-162
1.13749e-163
2.11142e-165
3.87401e-167
7.02615e-169
1.25969e-170
2.23263e-172
3.91198e-174
6.77674e-176
1.16067e-177
1.96555e-179
3.29127e-181
5.44967e-183
8.92328e-185
1.44494e-186
2.314e-188
3.66515e-190
5.74189e-192
8.89764e-194
1.36387e-195
2.0681e-197
3.10236e-199
4.60421e-201
6.76055e-203
9.82183e-205
1.41191e-206
2.00837e-208
2.82698e-210
3.93786e-212
5.42845e-214
7.406e-216
1e-217
1.33642e-219
1.76775e-221
2.31446e-223
2.99945e-225
3.84775e-227
4.88604e-229
6.14185e-231
7.64264e-233
9.41448e-235
1.14806e-236
1.38597e-238
1.65641e-240
1.95981e-242
2.29558e-244
2.66198e-246
3.05602e-248
3.47331e-250
3.90815e-252
4.35347e-254
4.80105e-256
5.24168e-258
5.66547e-260
6.06216e-262
6.42154e-264
6.73385e-266
6.99021e-268
7.18302e-270
7.30629e-272
7.35598e-274
7.33009e-276
7.22885e-278
7.05464e-280
6.81191e-282
6.5069e-284
6.14746e-286
5.74259e-288
5.30232e-290
4.83709e-292
4.35889e-294
3.87869e-296
3.41335e-298
1.85957e-30
7.01603e-28
9.5636e-27
7.01416e-26
1.89475e-25
2.96866e-25
2.41746e-25
1.17986e-25
4.0984e-26
1.12477e-26
2.68535e-27
5.8294e-28
1.14891e-28
2.06053e-29
3.38617e-30
5.13749e-31
7.24563e-32
9.55581e-33
1.18455e-33
1.38632e-34
1.53769e-35
1.62189e-36
1.63154e-37
1.56932e-38
1.44661e-39
1.28052e-40
1.09042e-41
8.94693e-43
7.08354e-44
5.41865e-45
4.00971e-46
2.87335e-47
1.99597e-48
1.34528e-49
8.80509e-51
5.60103e-52
3.4653e-53
2.08669e-54
1.2238e-55
6.99464e-57
3.89841e-58
2.11992e-59
1.12538e-60
5.83504e-62
2.95647e-63
1.4645e-64
7.0956e-66
3.36403e-67
1.56129e-68
7.09631e-70
3.1599e-71
1.37901e-72
5.90022e-74
2.47584e-75
1.01923e-76
4.11773e-78
1.63307e-79
6.35973e-81
2.43266e-82
9.14213e-84
3.37634e-85
1.22569e-86
4.37474e-88
1.53552e-89
5.30127e-91
1.80058e-92
6.01775e-94
1.97935e-95
6.4084e-97
2.04262e-98
6.41061e-100
1.9813e-101
6.0311e-103
1.80841e-104
5.342e-106
1.55478e-107
4.45901e-109
1.26026e-110
3.51057e-112
9.63904e-114
2.60896e-115
6.96174e-117
1.83157e-118
4.75137e-120
1.21546e-121
3.06636e-123
7.62953e-125
1.8724e-126
4.53271e-128
1.08244e-129
2.5502e-131
5.92778e-133
1.35954e-134
3.07681e-136
6.87151e-138
1.51457e-139
3.29857e-141
7.09844e-143
1.5094e-144
3.1714e-146
6.58434e-148
1.3508e-149
2.73841e-151
5.48581e-153
1.086e-154
2.1246e-156
4.10767e-158
7.84869e-160
1.48217e-161
2.76637e-163
5.10333e-165
9.30558e-167
1.67725e-168
2.98837e-170
5.2635e-172
9.16507e-174
1.57776e-175
2.68539e-177
4.51919e-179
7.52005e-181
1.2374e-182
2.0135e-184
3.24016e-186
5.15678e-188
8.1173e-190
1.26383e-191
1.9464e-193
2.96527e-195
4.469e-197
6.66333e-199
9.82945e-201
1.43465e-202
2.07188e-204
2.96078e-206
4.18685e-208
5.8591e-210
8.11438e-212
1.11219e-213
1.50875e-215
2.02576e-217
2.69219e-219
3.5415e-221
4.61151e-223
5.94411e-225
7.58456e-227
9.58039e-229
1.198e-230
1.48305e-232
1.81756e-234
2.20528e-236
2.64903e-238
3.15036e-240
3.70927e-242
4.32388e-244
4.99022e-246
5.70199e-248
6.45052e-250
7.22476e-252
8.01148e-254
8.79548e-256
9.56008e-258
1.02876e-259
1.096e-261
1.15597e-263
1.20701e-265
1.24764e-267
1.27666e-269
1.29313e-271
1.29649e-273
1.28655e-275
1.2635e-277
1.2279e-279
1.18067e-281
1.12304e-283
1.05649e-285
9.82731e-288
9.03635e-290
8.2133e-292
7.37927e-294
6.56283e-296
7.72334e-29
2.39605e-26
3.31451e-25
2.57315e-24
7.73712e-24
1.39715e-23
1.28361e-23
7.00276e-24
2.55733e-24
7.21709e-25
1.74174e-25
3.81531e-26
7.57204e-27
1.3637e-27
2.24535e-28
3.40764e-29
4.80197e-30
6.32317e-31
7.82289e-32
9.13595e-33
1.01124e-33
1.06462e-34
1.06932e-35
1.02741e-36
9.46513e-38
8.37806e-39
7.13815e-40
5.86347e-41
4.65025e-42
3.56545e-43
2.64592e-44
1.90251e-45
1.32674e-46
8.98133e-48
5.9068e-49
3.77705e-50
2.34991e-51
1.42344e-52
8.40026e-54
4.83246e-55
2.7115e-56
1.48475e-57
7.93812e-59
4.14588e-60
2.11618e-61
1.05614e-62
5.15591e-64
2.46314e-65
1.15197e-66
5.27636e-68
2.36769e-69
1.04127e-70
4.4896e-72
1.89843e-73
7.87527e-75
3.20591e-76
1.2811e-77
5.02667e-79
1.93716e-80
7.33412e-82
2.7286e-83
9.97801e-85
3.58724e-86
1.26819e-87
4.40968e-89
1.50839e-90
5.07679e-92
1.68155e-93
5.48216e-95
1.75948e-96
5.56002e-98
1.73018e-99
5.30257e-101
1.60075e-102
4.76052e-104
1.39487e-105
4.02723e-107
1.14583e-108
3.21311e-110
8.88092e-112
2.4197e-113
6.49943e-115
1.72122e-116
4.49451e-118
1.1573e-119
2.93876e-121
7.35984e-123
1.81799e-124
4.42959e-126
1.06468e-127
2.52455e-129
5.90599e-131
1.36324e-132
3.10493e-134
6.97854e-136
1.54822e-137
3.39365e-139
7.34965e-141
1.57267e-142
3.32493e-144
6.94559e-146
1.43359e-147
2.92372e-149
5.89187e-151
1.17325e-152
2.30863e-154
4.48912e-156
8.6263e-158
1.63817e-159
3.07454e-161
5.70302e-163
1.04556e-164
1.89468e-166
3.39376e-168
6.00902e-170
1.05178e-171
1.81998e-173
3.11352e-175
5.26623e-177
8.80716e-179
1.4564e-180
2.38156e-182
3.85122e-184
6.1591e-186
9.74187e-188
1.52404e-189
2.35835e-191
3.60992e-193
5.46626e-195
8.18863e-197
1.21362e-198
1.77963e-200
2.58212e-202
3.70717e-204
5.26686e-206
7.405e-208
1.03035e-209
1.41888e-211
1.93389e-213
2.60891e-215
3.48374e-217
4.60476e-219
6.025e-221
7.8039e-223
1.00065e-224
1.27023e-226
1.59631e-228
1.98611e-230
2.4465e-232
2.98367e-234
3.60268e-236
4.30702e-238
5.09809e-240
5.97476e-242
6.93298e-244
7.96537e-246
9.06108e-248
1.02057e-249
1.13813e-251
1.25668e-253
1.37385e-255
1.48708e-257
1.59368e-259
1.69097e-261
1.77635e-263
1.84744e-265
1.90216e-267
1.93885e-269
1.95632e-271
1.95393e-273
1.93161e-275
1.88985e-277
1.82973e-279
1.75282e-281
1.66116e-283
1.55719e-285
1.4437e-287
1.32388e-289
1.20107e-291
1.07939e-293
2.79447e-27
6.9553e-25
9.7772e-24
8.04386e-23
2.71354e-22
5.63585e-22
5.92998e-22
3.63095e-22
1.39707e-22
4.05613e-23
9.86413e-24
2.17301e-24
4.33211e-25
7.81783e-26
1.28729e-26
1.95112e-27
2.74348e-28
3.60278e-29
4.44404e-30
5.17434e-31
5.71093e-32
5.99681e-33
6.00999e-34
5.76452e-35
5.30434e-36
4.69236e-37
3.99801e-38
3.28621e-39
2.60959e-40
2.00463e-41
1.49135e-42
1.07563e-43
7.5282e-45
5.11729e-46
3.38106e-47
2.17293e-48
1.3593e-49
8.28197e-51
4.91769e-52
2.84735e-53
1.60843e-54
8.86881e-56
4.77571e-57
2.51258e-58
1.29211e-59
6.4978e-61
3.19663e-62
1.53904e-63
7.25438e-65
3.34892e-66
1.51467e-67
6.71404e-69
2.91776e-70
1.24351e-71
5.19905e-73
2.13303e-74
8.59005e-76
3.39657e-77
1.31901e-78
5.03186e-80
1.88622e-81
6.94932e-83
2.51696e-84
8.96382e-86
3.13965e-87
1.08175e-88
3.66706e-90
1.22329e-91
4.01642e-93
1.29813e-94
4.13083e-96
1.29437e-97
3.99434e-99
1.2141e-100
3.63536e-102
1.07243e-103
3.11729e-105
8.92927e-107
2.52076e-108
7.01401e-110
1.92382e-111
5.2019e-113
1.38676e-114
3.64516e-116
9.44807e-118
2.415e-119
6.08792e-121
1.51368e-122
3.71228e-124
8.98094e-126
2.14342e-127
5.04692e-129
1.17249e-130
2.68771e-132
6.07964e-134
1.35771e-135
2.99547e-137
6.52912e-139
1.40599e-140
2.99123e-142
6.28735e-144
1.3057e-145
2.67907e-147
5.43127e-149
1.08794e-150
2.15334e-152
4.21146e-154
8.13919e-156
1.55444e-157
2.93377e-159
5.47213e-161
1.00875e-162
1.83791e-164
3.30978e-166
5.89154e-168
1.03666e-169
1.80318e-171
3.10074e-173
5.27151e-175
8.86077e-177
1.47265e-178
2.42016e-180
3.93304e-182
6.3209e-184
1.00466e-185
1.57936e-187
2.45574e-189
3.77704e-191
5.74667e-193
8.6497e-195
1.28804e-196
1.89772e-198
2.76648e-200
3.99066e-202
5.69645e-204
8.04696e-206
1.12499e-207
1.5566e-209
2.13176e-211
2.88969e-213
3.87736e-215
5.15004e-217
6.77159e-219
8.81438e-221
1.13587e-222
1.44916e-224
1.83047e-226
2.28919e-228
2.83454e-230
3.47515e-232
4.21853e-234
5.07051e-236
6.03462e-238
7.11149e-240
8.29824e-242
9.58801e-244
1.09696e-245
1.2427e-247
1.394e-249
1.54838e-251
1.70295e-253
1.85455e-255
1.99978e-257
2.13513e-259
2.25715e-261
2.36254e-263
2.44834e-265
2.51203e-267
2.55165e-269
2.5659e-271
2.55419e-273
2.51671e-275
2.45438e-277
2.36884e-279
2.26244e-281
2.13812e-283
1.99939e-285
1.85032e-287
1.69533e-289
1.53967e-291
9.08822e-26
1.74809e-23
2.49874e-22
2.17345e-21
8.31558e-21
1.97901e-20
2.41841e-20
1.65981e-20
6.74848e-21
2.01531e-21
4.9209e-22
1.08508e-22
2.16636e-23
3.90752e-24
6.42127e-25
9.70392e-26
1.35972e-26
1.77892e-27
2.18598e-28
2.53584e-29
2.78918e-30
2.91973e-31
2.91836e-32
2.79312e-33
2.56603e-34
2.26771e-35
1.93142e-36
1.58797e-37
1.26216e-38
9.71057e-40
7.23986e-41
5.23616e-42
3.67697e-43
2.50913e-44
1.6651e-45
1.07534e-46
6.76263e-48
4.14391e-49
2.47556e-50
1.44255e-51
8.20344e-53
4.55488e-54
2.47039e-55
1.30933e-56
6.78432e-58
3.43802e-59
1.70459e-60
8.27187e-62
3.93018e-63
1.82893e-64
8.33876e-66
3.72622e-67
1.63243e-68
7.01347e-70
2.95592e-71
1.22247e-72
4.96237e-74
1.97773e-75
7.74073e-77
2.97609e-78
1.12426e-79
4.1739e-81
1.52327e-82
5.46588e-84
1.9288e-85
6.69493e-87
2.28622e-88
7.6822e-90
2.54053e-91
8.27004e-93
2.65037e-94
8.36346e-96
2.59902e-97
7.95498e-99
2.39845e-100
7.12423e-102
2.08503e-103
6.01321e-105
1.70908e-106
4.78773e-108
1.32205e-109
3.59878e-111
9.65818e-113
2.55566e-114
6.66829e-116
1.71579e-117
4.35399e-119
1.08972e-120
2.69015e-122
6.55096e-124
1.57373e-125
3.72977e-127
8.72143e-129
2.01224e-130
4.58124e-132
1.02991e-133
2.28721e-135
5.01776e-137
1.08747e-138
2.32826e-140
4.92452e-142
1.02902e-143
2.1243e-145
4.33267e-147
8.7308e-149
1.7383e-150
3.41965e-152
6.64723e-154
1.27678e-155
2.42341e-157
4.54558e-159
8.42602e-161
1.54364e-162
2.79498e-164
5.002e-166
8.84833e-168
1.54723e-169
2.67453e-171
4.57048e-173
7.72189e-175
1.2899e-176
2.13053e-178
3.4797e-180
5.62013e-182
8.9769e-184
1.41811e-185
2.21577e-187
3.42449e-189
5.23545e-191
7.91816e-193
1.18477e-194
1.75393e-196
2.56912e-198
3.72372e-200
5.34092e-202
7.581e-204