/*--------------------------------*- C++ -*----------------------------------*\
  =========                 |
  \\      /  F ield         | OpenFOAM: The Open Source CFD Toolbox
   \\    /   O peration     | Website:  https://openfoam.org
    \\  /    A nd           | Version:  7
     \\/     M anipulation  |
\*---------------------------------------------------------------------------*/
FoamFile
{
    version     2.0;
    format      ascii;
    class       volVectorField;
    location    "0.002";
    object      U_0;
}
// * * * * * * * * * * * * * * * * * * * * * * * * * * * * * * * * * * * * * //

dimensions      [0 1 -1 0 0 0 0];

internalField   nonuniform List<vector> 
12225
(
(4.79526 0.16076 0)
(4.18155 0.115669 0)
(3.68258 0.106225 0)
(3.39933 0.0665669 0)
(3.28428 0.0255417 0)
(3.27112 -8.77707e-05 0)
(3.33929 -0.0158594 0)
(3.45712 -0.0104473 0)
(3.57192 -0.0219871 0)
(3.6649 -0.00564525 0)
(3.76127 -0.0175685 0)
(3.91018 -0.0185342 0)
(3.97899 -0.016868 0)
(4.07806 -0.0304427 0)
(4.53898 -0.0772305 0)
(4.43373 0.0555475 0)
(4.85706 -0.190161 0)
(5.02554 -0.0465302 0)
(4.96929 0.099009 0)
(4.79643 0.0683758 0)
(4.70262 0.0741154 0)
(4.68744 0.0399964 0)
(4.67774 0.00489908 0)
(4.67763 -0.0202112 0)
(4.69916 -0.0324416 0)
(4.7923 -0.0494306 0)
(4.89314 -0.0376043 0)
(4.98188 -0.0469095 0)
(5.12683 -0.0635982 0)
(5.23811 -0.0494926 0)
(5.31614 -0.0351438 0)
(5.55177 -0.145971 0)
(5.69905 -0.101214 0)
(5.81282 -0.106115 0)
(6.1578 -0.174145 0)
(6.51535 -0.427281 0)
(4.92269 0.164466 0)
(4.84206 0.112831 0)
(4.84295 0.11864 0)
(4.83575 0.0848119 0)
(4.78485 0.0339399 0)
(4.73655 -0.00771598 0)
(4.75802 -0.0483514 0)
(4.83975 -0.0624358 0)
(4.95197 -0.0771207 0)
(5.07547 -0.0836868 0)
(5.18056 -0.0920893 0)
(5.28535 -0.0912558 0)
(5.44365 -0.118303 0)
(5.58161 -0.160532 0)
(5.66591 -0.177621 0)
(5.88447 -0.168192 0)
(6.15565 -0.365668 0)
(6.36065 -0.551479 0)
(4.96799 0.182807 0)
(4.8744 0.0760187 0)
(4.85875 0.0769022 0)
(4.84986 0.0681354 0)
(4.81457 0.0332362 0)
(4.78257 -0.0197518 0)
(4.79853 -0.0652289 0)
(4.87219 -0.102647 0)
(4.97493 -0.11329 0)
(5.07783 -0.119801 0)
(5.18166 -0.140064 0)
(5.29672 -0.144468 0)
(5.42411 -0.149451 0)
(5.54764 -0.213605 0)
(5.67273 -0.25617 0)
(5.85557 -0.292234 0)
(6.06463 -0.417651 0)
(6.24923 -0.594882 0)
(5.03836 0.207353 0)
(4.93393 0.109717 0)
(4.84502 0.105196 0)
(4.80506 0.0979686 0)
(4.78622 0.0543775 0)
(4.77746 -0.0094984 0)
(4.80803 -0.0763706 0)
(4.88424 -0.119382 0)
(4.98007 -0.144614 0)
(5.0814 -0.162222 0)
(5.18324 -0.172681 0)
(5.28503 -0.186316 0)
(5.40632 -0.213987 0)
(5.53708 -0.26605 0)
(5.65243 -0.312861 0)
(5.79711 -0.369995 0)
(5.97824 -0.511324 0)
(6.14228 -0.715434 0)
(4.9414 0.197332 0)
(4.95762 0.11441 0)
(4.89221 0.106339 0)
(4.83541 0.0956014 0)
(4.80718 0.0480732 0)
(4.80225 -0.0292804 0)
(4.83429 -0.102837 0)
(4.90511 -0.156424 0)
(4.99522 -0.185177 0)
(5.08689 -0.199615 0)
(5.17884 -0.21858 0)
(5.27991 -0.238842 0)
(5.39361 -0.260817 0)
(5.50637 -0.314318 0)
(5.6152 -0.38412 0)
(5.7491 -0.462332 0)
(5.89976 -0.590392 0)
(6.02876 -0.76998 0)
(4.99973 0.182051 0)
(4.9236 0.115317 0)
(4.88228 0.129681 0)
(4.88084 0.122356 0)
(4.88447 0.0634575 0)
(4.87625 -0.0265965 0)
(4.88797 -0.113804 0)
(4.9387 -0.177111 0)
(5.01174 -0.213803 0)
(5.09113 -0.238632 0)
(5.17718 -0.258364 0)
(5.26985 -0.280417 0)
(5.37009 -0.315722 0)
(5.47615 -0.373043 0)
(5.58053 -0.441615 0)
(5.68928 -0.527845 0)
(5.80354 -0.659706 0)
(5.90559 -0.839804 0)
(4.98117 0.233931 0)
(4.92686 0.14183 0)
(4.92443 0.111739 0)
(4.93616 0.100223 0)
(4.9222 0.0549531 0)
(4.89239 -0.0309612 0)
(4.89251 -0.125167 0)
(4.93964 -0.20021 0)
(5.01151 -0.248018 0)
(5.08843 -0.276873 0)
(5.16854 -0.300554 0)
(5.2548 -0.329701 0)
(5.34819 -0.366345 0)
(5.44184 -0.421965 0)
(5.53036 -0.499175 0)
(5.62154 -0.596246 0)
(5.71574 -0.721665 0)
(5.79545 -0.883318 0)
(4.986 0.19333 0)
(5.01586 0.128776 0)
(4.99247 0.121736 0)
(4.93942 0.12159 0)
(4.89813 0.074735 0)
(4.88 -0.0241136 0)
(4.90017 -0.134898 0)
(4.95644 -0.223106 0)
(5.02561 -0.278973 0)
(5.09342 -0.313859 0)
(5.16388 -0.341785 0)
(5.24084 -0.372371 0)
(5.32153 -0.413537 0)
(5.40171 -0.4741 0)
(5.47957 -0.550959 0)
(5.55432 -0.645988 0)
(5.62259 -0.76741 0)
(5.6752 -0.920144 0)
(4.94284 0.243088 0)
(4.92958 0.136165 0)
(4.9234 0.132354 0)
(4.92378 0.138528 0)
(4.91449 0.0796482 0)
(4.90436 -0.0355412 0)
(4.9204 -0.158652 0)
(4.9687 -0.254141 0)
(5.0296 -0.314574 0)
(5.08961 -0.352091 0)
(5.15215 -0.381565 0)
(5.22024 -0.415223 0)
(5.29111 -0.459068 0)
(5.35985 -0.518381 0)
(5.42303 -0.59473 0)
(5.48004 -0.690978 0)
(5.53019 -0.805981 0)
(5.56616 -0.943031 0)
(5.04834 0.240767 0)
(5.05589 0.130342 0)
(5.00792 0.125344 0)
(4.96853 0.128755 0)
(4.95596 0.077085 0)
(4.9528 -0.0341887 0)
(4.96589 -0.162475 0)
(5.00214 -0.267725 0)
(5.04812 -0.337651 0)
(5.09374 -0.382322 0)
(5.14356 -0.416872 0)
(5.20036 -0.453383 0)
(5.25929 -0.498486 0)
(5.31464 -0.558369 0)
(5.36447 -0.633164 0)
(5.40726 -0.723924 0)
(5.44032 -0.82978 0)
(5.45823 -0.954034 0)
(5.0011 0.226829 0)
(5.0411 0.142702 0)
(5.01096 0.162432 0)
(4.97377 0.158469 0)
(4.9558 0.0825967 0)
(4.94244 -0.0454373 0)
(4.94874 -0.181124 0)
(4.98479 -0.29024 0)
(5.03293 -0.363484 0)
(5.07862 -0.411089 0)
(5.12522 -0.447684 0)
(5.17586 -0.485506 0)
(5.22618 -0.531184 0)
(5.27133 -0.589477 0)
(5.30958 -0.660603 0)
(5.33942 -0.746491 0)
(5.35931 -0.844241 0)
(5.36538 -0.955416 0)
(5.05592 0.215513 0)
(5.01949 0.146957 0)
(4.98735 0.166681 0)
(4.97272 0.158125 0)
(4.95863 0.0863362 0)
(4.9409 -0.0405312 0)
(4.94628 -0.183652 0)
(4.98335 -0.303423 0)
(5.03019 -0.385233 0)
(5.07117 -0.437655 0)
(5.11063 -0.476188 0)
(5.1528 -0.514187 0)
(5.19354 -0.55866 0)
(5.22805 -0.614386 0)
(5.25516 -0.681483 0)
(5.27384 -0.76097 0)
(5.28267 -0.849457 0)
(5.27839 -0.948616 0)
(4.95818 0.255821 0)
(4.9177 0.156891 0)
(4.92536 0.166657 0)
(4.93549 0.166653 0)
(4.93806 0.092359 0)
(4.93207 -0.0491742 0)
(4.94378 -0.206564 0)
(4.9819 -0.333775 0)
(5.02552 -0.417553 0)
(5.06017 -0.469364 0)
(5.09145 -0.506375 0)
(5.12431 -0.542369 0)
(5.15476 -0.584215 0)
(5.17824 -0.635992 0)
(5.19395 -0.697255 0)
(5.20126 -0.768807 0)
(5.19933 -0.847002 0)
(5.18576 -0.933114 0)
(5.10639 0.35276 0)
(5.00151 0.215117 0)
(4.97809 0.173146 0)
(4.9879 0.158354 0)
(5.00442 0.0826751 0)
(5.00082 -0.0571467 0)
(4.99968 -0.215624 0)
(5.01875 -0.348331 0)
(5.04305 -0.438127 0)
(5.06021 -0.493402 0)
(5.07614 -0.530918 0)
(5.09532 -0.565136 0)
(5.11296 -0.603474 0)
(5.12404 -0.649945 0)
(5.12782 -0.704003 0)
(5.12407 -0.766116 0)
(5.11241 -0.832559 0)
(5.09094 -0.904628 0)
(4.93271 0.270714 0)
(4.9589 0.193628 0)
(4.99704 0.148644 0)
(5.01454 0.135256 0)
(5.02111 0.0750387 0)
(5.01347 -0.0554624 0)
(5.01031 -0.215009 0)
(5.02483 -0.353289 0)
(5.04161 -0.448473 0)
(5.04862 -0.506988 0)
(5.05301 -0.545176 0)
(5.06029 -0.577579 0)
(5.06606 -0.611892 0)
(5.06554 -0.65213 0)
(5.05837 -0.697817 0)
(5.04476 -0.749379 0)
(5.0248 -0.803443 0)
(4.99693 -0.861429 0)
(5.12992 0.145176 0)
(5.08866 0.18058 0)
(5.07181 0.181472 0)
(5.05717 0.161007 0)
(5.04587 0.0796017 0)
(5.02961 -0.0690919 0)
(5.02295 -0.236591 0)
(5.03276 -0.374209 0)
(5.04092 -0.465314 0)
(5.03679 -0.519051 0)
(5.02926 -0.552227 0)
(5.02464 -0.578964 0)
(5.01879 -0.606586 0)
(5.00723 -0.638683 0)
(4.98999 -0.67472 0)
(4.96775 -0.71501 0)
(4.94089 -0.756584 0)
(4.9081 -0.800903 0)
(5.03665 0.195273 0)
(5.07669 0.206652 0)
(5.0826 0.182641 0)
(5.11729 0.154608 0)
(5.13718 0.0848905 0)
(5.11701 -0.045102 0)
(5.08701 -0.201072 0)
(5.07097 -0.338462 0)
(5.05692 -0.434942 0)
(5.03429 -0.493578 0)
(5.01105 -0.528549 0)
(4.99284 -0.553598 0)
(4.97507 -0.576615 0)
(4.95307 -0.601644 0)
(4.92693 -0.62875 0)
(4.89747 -0.658488 0)
(4.86515 -0.688571 0)
(4.82878 -0.720488 0)
(5.06047 0.257567 0)
(5.0679 0.14821 0)
(5.0429 0.11284 0)
(5.0342 0.112761 0)
(5.02656 0.0796043 0)
(5.01296 -0.025171 0)
(5.00737 -0.172298 0)
(5.01403 -0.308639 0)
(5.01438 -0.404749 0)
(4.99801 -0.460804 0)
(4.97508 -0.490807 0)
(4.95351 -0.509087 0)
(4.93052 -0.524154 0)
(4.90274 -0.540206 0)
(4.87112 -0.557623 0)
(4.83707 -0.576936 0)
(4.80129 -0.596402 0)
(4.76284 -0.617296 0)
(5.02079 0.268102 0)
(5.02506 0.245324 0)
(5.04112 0.213778 0)
(5.05994 0.167572 0)
(5.07192 0.082396 0)
(5.06376 -0.0502183 0)
(5.05379 -0.196908 0)
(5.05114 -0.316732 0)
(5.03927 -0.392853 0)
(5.0106 -0.431769 0)
(4.9766 -0.448568 0)
(4.94541 -0.4564 0)
(4.91427 -0.462517 0)
(4.87973 -0.470174 0)
(4.8427 -0.479483 0)
(4.80449 -0.490696 0)
(4.76564 -0.502356 0)
(4.7253 -0.515412 0)
(4.95972 0.181127 0)
(4.97762 0.126977 0)
(5.01339 0.110738 0)
(5.06253 0.117929 0)
(5.09381 0.0780647 0)
(5.09444 -0.0267903 0)
(5.08445 -0.158472 0)
(5.07602 -0.271307 0)
(5.05659 -0.343932 0)
(5.02072 -0.380297 0)
(4.98049 -0.394468 0)
(4.94394 -0.399166 0)
(4.9081 -0.401629 0)
(4.86948 -0.405186 0)
(4.829 -0.410209 0)
(4.78806 -0.41697 0)
(4.7471 -0.424288 0)
(4.70537 -0.432922 0)
(5.1256 0.220924 0)
(5.10285 0.174757 0)
(5.06293 0.141249 0)
(5.0584 0.103692 0)
(5.06996 0.0411855 0)
(5.07287 -0.0567881 0)
(5.07227 -0.166127 0)
(5.07294 -0.255692 0)
(5.05964 -0.311571 0)
(5.02611 -0.337838 0)
(4.98521 -0.345927 0)
(4.94633 -0.346256 0)
(4.90751 -0.344977 0)
(4.8659 -0.344983 0)
(4.82275 -0.346622 0)
(4.77965 -0.350042 0)
(4.73699 -0.35422 0)
(4.69412 -0.3597 0)
(4.88636 0.208522 0)
(5.01065 0.149442 0)
(5.09713 0.130139 0)
(5.1462 0.103534 0)
(5.14888 0.0419685 0)
(5.11551 -0.0550703 0)
(5.08922 -0.160813 0)
(5.0816 -0.242624 0)
(5.06804 -0.28804 0)
(5.03527 -0.304146 0)
(4.99378 -0.30406 0)
(4.95292 -0.298355 0)
(4.91139 -0.292707 0)
(4.86696 -0.289367 0)
(4.82132 -0.288273 0)
(4.77621 -0.289231 0)
(4.73197 -0.291207 0)
(4.68802 -0.294515 0)
(5.07232 0.219957 0)
(5.06944 0.0645254 0)
(5.09058 0.0703715 0)
(5.11197 0.101505 0)
(5.12489 0.0730186 0)
(5.11965 -0.0212512 0)
(5.11469 -0.134431 0)
(5.11517 -0.219315 0)
(5.09973 -0.261297 0)
(5.06052 -0.270638 0)
(5.01207 -0.263736 0)
(4.96529 -0.252734 0)
(4.91903 -0.243474 0)
(4.87098 -0.237667 0)
(4.82261 -0.234757 0)
(4.77549 -0.234146 0)
(4.72979 -0.234742 0)
(4.68483 -0.236641 0)
(5.07256 0.214205 0)
(5.10941 0.124806 0)
(5.12047 0.077445 0)
(5.16361 0.0676251 0)
(5.21504 0.0212695 0)
(5.23469 -0.0666406 0)
(5.22953 -0.15673 0)
(5.20928 -0.215765 0)
(5.1661 -0.237921 0)
(5.10304 -0.234988 0)
(5.03799 -0.221441 0)
(4.98074 -0.207132 0)
(4.92803 -0.196272 0)
(4.87589 -0.189527 0)
(4.82487 -0.185884 0)
(4.77598 -0.184506 0)
(4.72901 -0.184353 0)
(4.68322 -0.185382 0)
(5.0266 0.167913 0)
(5.10322 0.101902 0)
(5.16021 0.0842348 0)
(5.21817 0.0780366 0)
(5.27415 0.0329786 0)
(5.29666 -0.0430112 0)
(5.2863 -0.113644 0)
(5.25642 -0.16002 0)
(5.20292 -0.179501 0)
(5.13026 -0.179483 0)
(5.05705 -0.170031 0)
(4.99334 -0.15902 0)
(4.93584 -0.150284 0)
(4.88042 -0.144639 0)
(4.82721 -0.141407 0)
(4.77686 -0.139984 0)
(4.72889 -0.139584 0)
(4.68244 -0.140141 0)
(5.01354 0.166172 0)
(5.11809 0.0398008 0)
(5.21961 0.0170453 0)
(5.29712 0.00617498 0)
(5.33984 -0.034504 0)
(5.34243 -0.0927472 0)
(5.31899 -0.137102 0)
(5.2791 -0.15701 0)
(5.21869 -0.156782 0)
(5.14205 -0.145079 0)
(5.06622 -0.130271 0)
(5.00018 -0.117824 0)
(4.94062 -0.109408 0)
(4.88357 -0.10443 0)
(4.82918 -0.101686 0)
(4.77798 -0.100454 0)
(4.7294 -0.100054 0)
(4.68254 -0.100385 0)
(4.97133 0.133555 0)
(5.17245 0.0580276 0)
(5.28843 0.0528071 0)
(5.36728 0.0367615 0)
(5.43424 -0.00103562 0)
(5.46635 -0.0418342 0)
(5.44854 -0.073841 0)
(5.38785 -0.0926397 0)
(5.29537 -0.0985542 0)
(5.18983 -0.0943546 0)
(5.09382 -0.0855141 0)
(5.01576 -0.07727 0)
(4.94984 -0.0716544 0)
(4.88971 -0.0683364 0)
(4.83386 -0.066449 0)
(4.78188 -0.0655879 0)
(4.73291 -0.065299 0)
(4.68584 -0.0655359 0)
(5.0101 -0.0297269 0)
(5.23567 -0.0555656 0)
(5.32998 -0.030356 0)
(5.38839 -0.0537951 0)
(5.43926 -0.0899376 0)
(5.44889 -0.108052 0)
(5.41002 -0.0998539 0)
(5.33758 -0.0797447 0)
(5.24189 -0.0622459 0)
(5.13735 -0.0502506 0)
(5.04306 -0.0424348 0)
(4.9661 -0.0381625 0)
(4.90084 -0.0363859 0)
(4.84127 -0.0357201 0)
(4.78583 -0.035334 0)
(4.73424 -0.0352044 0)
(4.68546 -0.0352272 0)
(4.63888 -0.0355031 0)
(4.90259 0.0500203 0)
(5.07962 0.0124906 0)
(5.09537 0.0143077 0)
(5.00785 -0.0101318 0)
(4.82873 -0.0325838 0)
(4.58583 -0.0393565 0)
(4.37039 -0.0316074 0)
(4.22354 -0.0207451 0)
(4.11746 -0.0141219 0)
(4.02934 -0.0107703 0)
(3.95962 -0.00893197 0)
(3.90556 -0.00836155 0)
(3.8572 -0.00859648 0)
(3.80947 -0.00894052 0)
(3.76299 -0.00910173 0)
(3.71908 -0.00921341 0)
(3.6767 -0.00930392 0)
(3.63634 -0.00945279 0)
(0.0131429 -0.0322908 -3.02719e-20)
(0.0499853 -0.0412557 3.00526e-20)
(0.0912293 -0.0412562 0)
(0.131905 -0.041136 0)
(0.172817 -0.0411909 0)
(0.214154 -0.0412822 -2.91476e-20)
(0.25593 -0.0413802 0)
(0.298146 -0.0414792 0)
(0.340806 -0.0415745 0)
(0.383906 -0.0416604 0)
(0.427439 -0.0417305 2.80187e-20)
(0.471389 -0.0417779 0)
(0.515731 -0.0417961 0)
(0.560435 -0.0417786 0)
(0.605462 -0.0417193 0)
(0.650766 -0.041613 2.68968e-20)
(0.696296 -0.0414551 0)
(0.741992 -0.0412416 0)
(0.787792 -0.04097 0)
(0.833628 -0.0406382 0)
(0.87943 -0.0402455 0)
(0.925126 -0.0397919 0)
(0.97064 -0.0392783 0)
(1.0159 -0.0387067 2.5133e-20)
(1.06083 -0.0380795 -2.49163e-20)
(1.10536 -0.0373998 2.47006e-20)
(1.14943 -0.0366716 2.44858e-20)
(1.19296 -0.0358988 0)
(1.23589 -0.0350859 0)
(1.27817 -0.0342377 -2.38477e-20)
(1.31974 -0.0333588 -2.36371e-20)
(1.36054 -0.0324543 0)
(1.40055 -0.0315288 0)
(1.43972 -0.030587 -2.30119e-20)
(1.47801 -0.0296335 0)
(1.51539 -0.0286726 0)
(1.55184 -0.0277083 2.23966e-20)
(1.58735 -0.0267444 0)
(1.62189 -0.0257844 2.19919e-20)
(1.65545 -0.0248315 4.35824e-20)
(1.68803 -0.0238885 0)
(1.71963 -0.0229582 0)
(1.75024 -0.0220427 0)
(1.77986 -0.0211441 0)
(1.80851 -0.020264 0)
(1.83619 -0.0194041 4.12205e-20)
(1.86291 -0.0185653 4.08345e-20)
(1.88868 -0.0177489 4.04507e-20)
(1.91352 -0.0169555 0)
(1.93745 -0.0161858 -3.96896e-20)
(1.96047 -0.0154401 0)
(1.98262 -0.0147188 3.89372e-20)
(2.00391 -0.014022 3.85643e-20)
(2.02436 -0.0133496 0)
(2.044 -0.0127016 0)
(2.06283 -0.0120778 0)
(2.08089 -0.0114779 3.7094e-20)
(2.0982 -0.0109014 0)
(2.11477 -0.0103482 0)
(2.13064 -0.00981751 0)
(2.14582 -0.00930901 0)
(2.16033 -0.00882209 0)
(2.17421 -0.0083562 0)
(2.18746 -0.00791074 0)
(2.20011 -0.00748511 0)
(2.21218 -0.00707867 -3.39109e-20)
(2.2237 -0.00669083 0)
(2.23468 -0.00632093 0)
(2.24514 -0.00596837 3.28881e-20)
(2.2551 -0.0056325 3.25514e-20)
(2.26458 -0.00531274 0)
(2.2736 -0.00500843 -3.18843e-20)
(2.28218 -0.00471902 3.15538e-20)
(2.29033 -0.00444389 0)
(2.29808 -0.00418248 -3.08993e-20)
(2.30543 -0.00393421 0)
(2.31241 -0.00369856 0)
(2.31902 -0.00347494 2.9933e-20)
(2.3253 -0.00326289 0)
(2.33124 -0.00306185 -2.92991e-20)
(2.33686 -0.00287137 0)
(2.34219 -0.00269092 2.86735e-20)
(2.34723 -0.0025201 2.83637e-20)
(2.35198 -0.0023584 2.80559e-20)
(2.35648 -0.00220542 5.55004e-20)
(2.36072 -0.00206069 -5.48929e-20)
(2.36473 -0.00192387 0)
(2.3685 -0.00179448 0)
(2.37206 -0.00167222 0)
(2.37541 -0.00155633 -5.25029e-20)
(2.37856 -0.00144726 -5.19152e-20)
(2.38152 -0.00134331 5.13315e-20)
(2.3843 -0.00124245 0)
(2.3869 -0.00115025 -5.01757e-20)
(2.38935 -0.00105513 -4.96036e-20)
(2.39163 -0.00094648 -4.90353e-20)
(2.39373 -0.000847945 0)
(2.39567 -0.000767671 0)
(2.39748 -0.00070124 0)
(2.39915 -0.000644031 -4.67999e-20)
(2.40071 -0.000592766 0)
(2.40217 -0.00054548 0)
(2.40351 -0.000501243 4.51623e-20)
(2.40476 -0.000459677 0)
(2.40592 -0.000420567 0)
(2.407 -0.000383811 4.35576e-20)
(2.40799 -0.000349282 0)
(2.4089 -0.000316908 0)
(2.40974 -0.000286572 -4.19849e-20)
(2.41051 -0.000258194 -4.14676e-20)
(2.41122 -0.000231654 0)
(2.41186 -0.00020687 4.04435e-20)
(2.41245 -0.000183728 0)
(2.41298 -0.000162141 -3.94331e-20)
(2.41346 -0.000142023 0)
(2.41389 -0.000123263 -3.8436e-20)
(2.41428 -0.000105809 -3.79425e-20)
(2.41462 -8.95465e-05 0)
(2.41492 -7.44587e-05 0)
(2.41519 -6.04512e-05 0)
(2.41542 -4.74459e-05 0)
(2.41561 -3.5362e-05 0)
(2.41577 -2.40986e-05 0)
(2.41591 -1.36194e-05 0)
(2.41601 -3.87628e-06 -3.41099e-20)
(2.41609 5.141e-06 3.36449e-20)
(2.41614 1.34912e-05 0)
(2.41617 2.12059e-05 0)
(2.41618 2.8345e-05 0)
(2.41617 3.4935e-05 0)
(2.41614 4.10298e-05 6.27295e-20)
(2.41609 4.66484e-05 0)
(2.41602 5.18444e-05 -6.09465e-20)
(2.41593 5.66302e-05 6.00635e-20)
(2.41583 6.10564e-05 0)
(2.41572 6.51372e-05 0)
(2.41559 6.89113e-05 0)
(2.41545 7.24061e-05 -5.65876e-20)
(2.41529 7.55951e-05 -5.57323e-20)
(2.41513 7.85344e-05 0)
(2.41495 8.12105e-05 -5.40378e-20)
(2.41476 8.371e-05 -5.31985e-20)
(2.41457 8.60629e-05 5.23644e-20)
(2.41436 8.83228e-05 0)
(2.41414 9.04873e-05 0)
(2.41391 9.26035e-05 4.98929e-20)
(2.41368 9.46745e-05 0)
(2.41343 9.67446e-05 0)
(2.41318 9.88321e-05 0)
(2.41292 0.000100991 0)
(2.41264 0.000103253 -4.58732e-20)
(2.41236 0.000105687 -4.50836e-20)
(2.41206 0.000108352 0)
(2.41175 0.000111346 -4.35185e-20)
(2.41143 0.000114764 0)
(2.41109 0.000118753 0)
(2.41073 0.000123469 -4.12051e-20)
(2.41035 0.000129139 0)
(2.40994 0.000136023 -3.9685e-20)
(2.4095 0.000144477 0)
(2.40903 0.000154933 0)
(2.4085 0.000167974 -3.7437e-20)
(2.40792 0.000184331 0)
(2.40726 0.000204985 -3.59591e-20)
(2.4065 0.000231193 0)
(2.40562 0.000264664 0)
(2.40459 0.00030765 0)
(2.40335 0.000363245 3.30512e-20)
(2.40185 0.000435708 0)
(2.4 0.000531038 -3.16201e-20)
(2.39768 0.000658156 0)
(2.39473 0.00082906 0)
(2.39094 0.00106905 0)
(2.38582 0.00138534 0)
(2.37928 0.00194472 0)
(2.36896 0.00238591 0)
(2.35729 0.00483637 0)
(2.3296 0.0037106 5.20508e-20)
(2.30794 0.0225889 0)
(2.20402 0.0185327 0)
(0.0125387 -0.0993791 9.0842e-20)
(0.051713 -0.129229 -9.01809e-20)
(0.0938626 -0.129366 0)
(0.135839 -0.128906 5.92242e-20)
(0.178056 -0.12904 0)
(0.220691 -0.129311 2.91448e-20)
(0.263784 -0.129611 -5.78648e-20)
(0.307345 -0.129918 -5.74119e-20)
(0.351381 -0.130215 0)
(0.395891 -0.130483 -5.65069e-20)
(0.440867 -0.1307 -2.80155e-20)
(0.486292 -0.130846 0)
(0.532141 -0.130898 0)
(0.57838 -0.130838 0)
(0.624967 -0.130645 0)
(0.671853 -0.130304 -2.68931e-20)
(0.71898 -0.129801 0)
(0.766287 -0.129124 5.2913e-20)
(0.813705 -0.128265 0)
(0.861163 -0.127218 0)
(0.908584 -0.125981 -5.15845e-20)
(0.955893 -0.124554 0)
(1.00301 -0.122941 5.07071e-20)
(1.04986 -0.121147 -2.51291e-20)
(1.09636 -0.119182 2.49124e-20)
(1.14245 -0.117054 -2.46967e-20)
(1.18804 -0.114776 -2.44819e-20)
(1.23307 -0.112361 0)
(1.27748 -0.109822 0)
(1.3212 -0.107174 2.38439e-20)
(1.36419 -0.104432 -2.36422e-20)
(1.40638 -0.101611 0)
(1.44775 -0.0987257 0)
(1.48824 -0.0957906 2.30082e-20)
(1.52782 -0.0928196 0)
(1.56646 -0.089826 0)
(1.60415 -0.0868222 -2.23931e-20)
(1.64085 -0.0838198 0)
(1.67656 -0.0808298 2.19943e-20)
(1.71127 -0.0778618 -4.35757e-20)
(1.74496 -0.0749248 0)
(1.77763 -0.0720267 0)
(1.80929 -0.0691746 -8.478e-20)
(1.83994 -0.0663746 -8.39947e-20)
(1.86958 -0.0636322 -8.32138e-20)
(1.89823 -0.0609516 4.12227e-20)
(1.92589 -0.0583369 -4.08288e-20)
(1.95258 -0.0557911 -1.21342e-19)
(1.97831 -0.0533166 8.0134e-20)
(2.0031 -0.0509152 3.96843e-20)
(2.02697 -0.0485884 0)
(2.04994 -0.046337 -3.89321e-20)
(2.07202 -0.0441614 3.85647e-20)
(2.09324 -0.0420616 0)
(2.11363 -0.0400375 0)
(2.13319 -0.0380882 0)
(2.15195 -0.0362131 -3.70894e-20)
(2.16995 -0.0344111 0)
(2.18719 -0.0326809 7.27385e-20)
(2.2037 -0.0310211 0)
(2.21951 -0.0294301 7.1311e-20)
(2.23463 -0.0279063 0)
(2.24909 -0.0264479 -6.99006e-20)
(2.26292 -0.0250532 0)
(2.27613 -0.0237202 6.85072e-20)
(2.28874 -0.0224471 -3.39097e-20)
(2.30078 -0.021232 0)
(2.31226 -0.0200729 -6.6449e-20)
(2.32321 -0.0189679 -3.28846e-20)
(2.33365 -0.0179151 -3.2548e-20)
(2.3436 -0.0169126 0)
(2.35307 -0.0159584 -3.18828e-20)
(2.36209 -0.0150508 -3.15507e-20)
(2.37067 -0.0141879 0)
(2.37882 -0.013368 3.08963e-20)
(2.38658 -0.0125893 -6.11457e-20)
(2.39395 -0.0118501 0)
(2.40094 -0.0111487 -2.99302e-20)
(2.40759 -0.0104835 0)
(2.41389 -0.00985303 8.78904e-20)
(2.41987 -0.00925568 0)
(2.42553 -0.00868997 -8.60136e-20)
(2.4309 -0.00815453 -2.83612e-20)
(2.43599 -0.00764792 2.80543e-20)
(2.4408 -0.00716884 5.54971e-20)
(2.44536 -0.00671596 -5.48896e-20)
(2.44966 -0.0062881 0)
(2.45374 -0.00588399 0)
(2.45758 -0.00550247 0)
(2.46122 -0.00514234 1.57497e-19)
(2.46465 -0.00480287 5.19112e-20)
(2.46788 -0.00448228 -5.13275e-20)
(2.47093 -0.00417912 0)
(2.47382 -0.00389489 -5.01727e-20)
(2.47652 -0.00362504 4.95999e-20)
(2.47909 -0.00336592 4.90317e-20)
(2.48153 -0.00311771 0)
(2.48385 -0.00288774 0)
(2.48605 -0.00267761 0)
(2.48812 -0.00248382 4.67965e-20)
(2.49007 -0.00230364 0)
(2.4919 -0.00213544 -9.14029e-20)
(2.49362 -0.00197815 -1.35478e-19)
(2.49523 -0.00183096 8.92417e-20)
(2.49674 -0.00169324 0)
(2.49816 -0.00156444 4.35549e-20)
(2.49948 -0.00144402 0)
(2.50072 -0.00133155 8.50056e-20)
(2.50188 -0.00122653 -4.19822e-20)
(2.50297 -0.00112854 -4.14651e-20)
(2.50398 -0.00103714 0)
(2.50493 -0.000951948 -1.21323e-19)
(2.50581 -0.000872574 7.98681e-20)
(2.50664 -0.000798663 3.94305e-20)
(2.5074 -0.000729889 0)
(2.50812 -0.000665895 3.84336e-20)
(2.50879 -0.00060642 1.1382e-19)
(2.50941 -0.000551152 0)
(2.50999 -0.000499896 7.39259e-20)
(2.51053 -0.000452355 7.29584e-20)
(2.51103 -0.000408253 7.19973e-20)
(2.51149 -0.00036732 0)
(2.51192 -0.000329297 0)
(2.51232 -0.000294022 0)
(2.51269 -0.000261327 -3.4108e-20)
(2.51304 -0.000231107 -3.36429e-20)
(2.51336 -0.000203173 0)
(2.51365 -0.000177389 -6.54442e-20)
(2.51393 -0.00015357 -6.45324e-20)
(2.51418 -0.000131604 0)
(2.51441 -0.000111328 -6.27262e-20)
(2.51463 -9.26574e-05 -1.23664e-19)
(2.51483 -7.54325e-05 6.09433e-20)
(2.51501 -5.95884e-05 6.00605e-20)
(2.51518 -4.49819e-05 0)
(2.51534 -3.1544e-05 0)
(2.51549 -1.91662e-05 0)
(2.51562 -7.77526e-06 5.65848e-20)
(2.51574 2.64074e-06 -5.57297e-20)
(2.51586 1.22074e-05 -1.0976e-19)
(2.51596 2.09616e-05 5.40353e-20)
(2.51606 2.90758e-05 -5.31961e-20)
(2.51614 3.66275e-05 -5.23621e-20)
(2.51622 4.37483e-05 0)
(2.5163 5.04842e-05 0)
(2.51636 5.69543e-05 4.98909e-20)
(2.51643 6.32064e-05 0)
(2.51648 6.93623e-05 0)
(2.51653 7.54985e-05 -9.49292e-20)
(2.51657 8.17627e-05 0)
(2.51661 8.82698e-05 -4.58714e-20)
(2.51663 9.52136e-05 4.50819e-20)
(2.51665 0.000102781 0)
(2.51667 0.000111244 -4.3517e-20)
(2.51667 0.000120896 0)
(2.51666 0.000132147 0)
(2.51664 0.000145466 4.12037e-20)
(2.5166 0.00016149 -8.0883e-20)
(2.51654 0.000180982 3.96836e-20)
(2.51645 0.000204959 0)
(2.51634 0.000234678 0)
(2.51618 0.000271808 -3.74358e-20)
(2.51598 0.000318458 0)
(2.51571 0.000377428 -3.59581e-20)
(2.51536 0.000452344 0)
(2.5149 0.000548061 0)
(2.51431 0.000671021 0)
(2.51355 0.00083 -3.30502e-20)
(2.51255 0.00103705 0)
(2.51124 0.00130899 3.16192e-20)
(2.50954 0.00167071 0)
(2.50727 0.00215578 0)
(2.50429 0.00283061 -5.89994e-20)
(2.50016 0.00373803 5.75997e-20)
(2.49484 0.0052096 0)
(2.48647 0.00686086 0)
(2.47683 0.0118132 0)
(2.45823 0.0140512 -1.5616e-19)
(2.44047 0.042635 0)
(2.41703 0.04913 9.86454e-20)
(0.0124022 -0.166082 5.13872e-23)
(0.0514155 -0.216609 1.20297e-19)
(0.0932386 -0.216743 0)
(0.134989 -0.215937 -1.18482e-19)
(0.177029 -0.216189 0)
(0.219526 -0.2167 0)
(0.262528 -0.217272 -4.59186e-23)
(0.306051 -0.217865 5.74045e-20)
(0.350102 -0.218448 5.69951e-20)
(0.394685 -0.218983 5.64996e-20)
(0.439789 -0.219433 0)
(0.485399 -0.219759 0)
(0.531484 -0.219922 -5.51826e-20)
(0.578006 -0.219887 -1.09462e-19)
(0.624919 -0.219621 1.08561e-19)
(0.672164 -0.219096 0)
(0.71968 -0.218286 1.06765e-19)
(0.767394 -0.217173 -5.29059e-20)
(0.815232 -0.215744 0)
(0.863112 -0.213988 1.0409e-19)
(0.910954 -0.211905 5.15776e-20)
(0.958673 -0.209495 -1.02323e-19)
(1.00619 -0.206765 -5.07003e-20)
(1.05341 -0.203727 0)
(1.10026 -0.200396 9.97012e-20)
(1.14666 -0.19679 9.88351e-20)
(1.19254 -0.19293 0)
(1.23783 -0.188838 9.71156e-20)
(1.28245 -0.18454 0)
(1.32636 -0.180059 9.54135e-20)
(1.3695 -0.175423 4.727e-20)
(1.41181 -0.170656 0)
(1.45326 -0.165783 0)
(1.49381 -0.16083 0)
(1.53342 -0.15582 0)
(1.57207 -0.150774 0)
(1.60973 -0.145715 0)
(1.64639 -0.140661 8.87848e-20)
(1.68204 -0.135631 -1.31955e-19)
(1.71667 -0.13064 0)
(1.75027 -0.125703 0)
(1.78284 -0.120835 0)
(1.81438 -0.116045 -1.55048e-23)
(1.84491 -0.111344 8.39883e-20)
(1.87442 -0.106742 1.66429e-19)
(1.90293 -0.102245 -1.64876e-19)
(1.93046 -0.0978592 -8.16722e-20)
(1.95701 -0.0935901 8.08922e-20)
(1.9826 -0.0894414 1.11965e-23)
(2.00725 -0.0854162 7.9381e-20)
(2.03098 -0.0815165 0)
(2.0538 -0.0777436 7.78753e-20)
(2.07575 -0.0740981 8.94827e-24)
(2.09684 -0.07058 0)
(2.11709 -0.0671889 0)
(2.13652 -0.0639235 -7.49162e-20)
(2.15517 -0.0607824 0)
(2.17304 -0.0577638 0)
(2.19016 -0.0548655 7.27484e-20)
(2.20656 -0.0520852 1.44052e-19)
(2.22226 -0.0494202 -7.13086e-20)
(2.23728 -0.0468677 0)
(2.25165 -0.0444248 6.98985e-20)
(2.26538 -0.0420885 0)
(2.2785 -0.0398556 6.85142e-20)
(2.29102 -0.0377229 6.78152e-20)
(2.30298 -0.0356873 -1.34266e-19)
(2.31439 -0.0337454 -6.64548e-20)
(2.32527 -0.0318942 0)
(2.33564 -0.0301303 1.302e-19)
(2.34552 -0.0284506 0)
(2.35493 -0.026852 1.91294e-19)
(2.36388 -0.0253313 1.26209e-19)
(2.3724 -0.0238856 1.24896e-19)
(2.38051 -0.0225117 -1.23591e-19)
(2.38821 -0.0212069 1.83439e-19)
(2.39554 -0.0199683 0)
(2.40249 -0.0187931 0)
(2.40909 -0.0176787 -1.18454e-19)
(2.41535 -0.0166223 -1.75783e-19)
(2.42129 -0.0156215 0)
(2.42693 -0.0146739 5.73423e-20)
(2.43226 -0.013777 0)
(2.43732 -0.0129285 -1.68325e-19)
(2.4421 -0.0121263 2.33474e-24)
(2.44663 -0.0113681 -2.17472e-24)
(2.45092 -0.010652 1.08573e-19)
(2.45496 -0.0099759 0)
(2.45879 -0.00933785 -1.06183e-19)
(2.4624 -0.00873632 1.6285e-24)
(2.46582 -0.00816916 0)
(2.46903 -0.00763518 0)
(2.47207 -0.00713383 0)
(2.47493 -0.00666062 1.00344e-19)
(2.47762 -0.0062186 0)
(2.48016 -0.00581018 0)
(2.48255 -0.00542542 0)
(2.48481 -0.00505853 0)
(2.48692 -0.00471008 0)
(2.48891 -0.00438094 9.3594e-20)
(2.49078 -0.0040712 0)
(2.49254 -0.00378056 9.14027e-20)
(2.49418 -0.0035083 9.03185e-20)
(2.49573 -0.00325347 -8.92415e-20)
(2.49718 -0.0030151 0)
(2.49854 -0.00279224 -8.71092e-20)
(2.49981 -0.00258404 0)
(2.501 -0.00238963 -8.50054e-20)
(2.50211 -0.00220821 8.3964e-20)
(2.50315 -0.00203898 2.4879e-19)
(2.50413 -0.00188121 0)
(2.50504 -0.00173419 2.42646e-19)
(2.50589 -0.00159727 7.98684e-20)
(2.50668 -0.00146981 0)
(2.50742 -0.00135123 1.55722e-19)
(2.50811 -0.00124097 1.53735e-19)
(2.50875 -0.0011385 -2.27641e-19)
(2.50935 -0.00104336 0)
(2.5099 -0.000955122 -7.39257e-20)
(2.51042 -0.000873301 -7.29582e-20)
(2.51091 -0.000797421 -2.15992e-19)
(2.51135 -0.00072698 0)
(2.51177 -0.000661576 0)
(2.51216 -0.000600912 0)
(2.51252 -0.000544763 -6.82158e-20)
(2.51285 -0.000492883 0)
(2.51316 -0.000444988 0)
(2.51345 -0.000400785 6.5444e-20)
(2.51371 -0.00035999 6.45321e-20)
(2.51396 -0.000322364 0)
(2.51419 -0.000287669 0)
(2.5144 -0.00025571 1.23663e-19)
(2.5146 -0.000226272 0)
(2.51478 -0.000199181 -1.20121e-19)
(2.51494 -0.000174257 -1.18366e-19)
(2.5151 -0.000151325 0)
(2.51524 -0.000130239 0)
(2.51537 -0.000110895 1.13169e-19)
(2.5155 -9.32021e-05 -4.43334e-26)
(2.51561 -7.70166e-05 -4.30579e-26)
(2.51571 -6.2185e-05 0)
(2.51581 -4.84593e-05 2.12784e-19)
(2.5159 -3.56632e-05 0)
(2.51598 -2.36374e-05 0)
(2.51606 -1.22828e-05 0)
(2.51613 -1.45667e-06 -9.97813e-20)
(2.51619 8.95581e-06 0)
(2.51625 1.91283e-05 1.93073e-19)
(2.5163 2.92231e-05 9.49288e-20)
(2.51634 3.94595e-05 0)
(2.51638 5.00574e-05 9.17425e-20)
(2.51641 6.13098e-05 0)
(2.51644 7.35384e-05 0)
(2.51645 8.71671e-05 2.61101e-19)
(2.51646 0.000102691 -1.70965e-19)
(2.51645 0.000120755 0)
(2.51643 0.000142134 -1.64814e-19)
(2.5164 0.000167837 8.08827e-20)
(2.51634 0.000199113 0)
(2.51626 0.000237579 0)
(2.51615 0.000285279 0)
(2.516 0.000344871 2.24614e-19)
(2.51579 0.000419762 0)
(2.51552 0.000514424 7.19157e-20)
(2.51517 0.000634682 0)
(2.51472 0.00078827 0)
(2.51412 0.000985475 0)
(2.51335 0.00124022 0)
(2.51234 0.00157157 0)
(2.51102 0.00200597 0)
(2.50929 0.00258204 1.23637e-19)
(2.50701 0.00335249 0)
(2.504 0.00441451 5.8999e-20)
(2.49988 0.0058597 -1.72799e-19)
(2.49453 0.00807839 0)
(2.48644 0.0110103 0)
(2.47717 0.0170983 1.06873e-19)
(2.46033 0.0241224 1.04109e-19)
(2.44558 0.0470413 -1.01379e-19)
(2.41889 0.0649889 -9.86415e-20)
(0.0120154 -0.232165 -1.81979e-19)
(0.050809 -0.303633 -1.80642e-19)
(0.0922782 -0.303877 -1.19566e-19)
(0.133743 -0.302807 -5.93978e-20)
(0.175549 -0.303281 0)
(0.217874 -0.30415 1.16834e-19)
(0.260779 -0.305126 -5.80257e-20)
(0.304289 -0.306145 0)
(0.348418 -0.307157 -5.69878e-20)
(0.393171 -0.308104 0)
(0.438539 -0.308924 1.12274e-19)
(0.4845 -0.309559 0)
(0.531019 -0.309949 5.51753e-20)
(0.578051 -0.310041 1.09447e-19)
(0.625537 -0.309784 -1.08546e-19)
(0.673408 -0.309137 0)
(0.721588 -0.308063 -1.0675e-19)
(0.769994 -0.306537 0)
(0.818536 -0.30454 0)
(0.867121 -0.302061 -1.04075e-19)
(0.915656 -0.299099 0)
(0.964046 -0.295659 -6.58618e-23)
(1.0122 -0.291754 0)
(1.06002 -0.287403 0)
(1.10742 -0.282629 5.59728e-23)
(1.15432 -0.277462 -9.88213e-20)
(1.20065 -0.271934 -9.801e-20)
(1.24632 -0.266079 -9.71024e-20)
(1.29128 -0.259933 0)
(1.33546 -0.253534 -1.90845e-19)
(1.37881 -0.24692 0)
(1.42128 -0.240128 -9.37559e-20)
(1.46284 -0.233194 0)
(1.50344 -0.226153 0)
(1.54306 -0.219039 9.12588e-20)
(1.58168 -0.211883 0)
(1.61927 -0.204715 -8.96173e-20)
(1.65583 -0.197562 2.7993e-23)
(1.69134 -0.190449 1.75962e-19)
(1.7258 -0.183398 -1.74379e-19)
(1.75921 -0.17643 0)
(1.79158 -0.169563 0)
(1.8229 -0.162813 -8.48243e-20)
(1.85318 -0.156193 0)
(1.88245 -0.149714 -8.32149e-20)
(1.9107 -0.143388 8.24384e-20)
(1.93796 -0.137222 8.16662e-20)
(1.96424 -0.131222 0)
(1.98957 -0.125394 -8.0135e-20)
(2.01395 -0.119742 -7.93759e-20)
(2.03741 -0.114268 1.5727e-19)
(2.05997 -0.108974 -7.78709e-20)
(2.08166 -0.10386 -7.71248e-20)
(2.10249 -0.0989258 0)
(2.12248 -0.0941707 0)
(2.14167 -0.089593 7.49127e-20)
(2.16007 -0.0851902 0)
(2.17771 -0.0809598 0)
(2.19461 -0.0768985 -1.45479e-19)
(2.21079 -0.0730029 -1.44047e-19)
(2.22628 -0.0692693 0)
(2.2411 -0.0656935 0)
(2.25527 -0.0622715 0)
(2.26881 -0.058999 0)
(2.28175 -0.0558714 -1.37016e-19)
(2.2941 -0.0528843 1.35647e-19)
(2.30589 -0.0500332 1.34263e-19)
(2.31714 -0.0473135 2.65809e-19)
(2.32787 -0.0447206 0)
(2.33809 -0.0422502 8.83081e-24)