/*--------------------------------*- C++ -*----------------------------------*\
  =========                 |
  \\      /  F ield         | OpenFOAM: The Open Source CFD Toolbox
   \\    /   O peration     | Website:  https://openfoam.org
    \\  /    A nd           | Version:  7
     \\/     M anipulation  |
\*---------------------------------------------------------------------------*/
FoamFile
{
    version     2.0;
    format      ascii;
    class       volVectorField;
    location    "0.002";
    object      UMean;
}
// * * * * * * * * * * * * * * * * * * * * * * * * * * * * * * * * * * * * * //

dimensions      [0 1 -1 0 0 0 0];

internalField   nonuniform List<vector> 
12225
(
(4.86816 0.15125 0)
(4.54465 0.0777318 0)
(4.34559 0.0417708 0)
(4.26187 0.0124109 0)
(4.27066 -0.00364628 0)
(4.34156 -0.00975629 0)
(4.43441 -0.0116036 0)
(4.52526 -0.0096283 0)
(4.60854 -0.0150376 0)
(4.70054 -0.00610409 0)
(4.80627 -0.029174 0)
(4.93584 0.00129494 0)
(5.07117 -0.0625393 0)
(5.29559 0.0233237 0)
(5.51072 -0.151245 0)
(5.87649 0.0977247 0)
(6.37952 -0.472961 0)
(7.40156 0.119917 0)
(5.10598 0.0968092 0)
(5.1517 0.0365568 0)
(5.12726 0.0205801 0)
(5.10225 -0.00288211 0)
(5.11567 -0.0197157 0)
(5.17416 -0.0287507 0)
(5.25199 -0.0325745 0)
(5.34722 -0.0370564 0)
(5.42543 -0.0354716 0)
(5.54142 -0.051348 0)
(5.63121 -0.0448086 0)
(5.79242 -0.0780589 0)
(5.89851 -0.0646592 0)
(6.17117 -0.148594 0)
(6.29086 -0.0939789 0)
(6.78205 -0.310877 0)
(7.03598 -0.316928 0)
(7.84158 -0.906711 0)
(5.07422 0.154469 0)
(5.15284 0.0762274 0)
(5.13849 0.0430252 0)
(5.11382 0.00439293 0)
(5.12999 -0.0262289 0)
(5.19151 -0.0436245 0)
(5.27883 -0.0556187 0)
(5.36887 -0.0583906 0)
(5.46385 -0.0726638 0)
(5.55824 -0.0717506 0)
(5.67184 -0.103658 0)
(5.79236 -0.0972356 0)
(5.95167 -0.169264 0)
(6.11225 -0.153679 0)
(6.35199 -0.303194 0)
(6.62378 -0.32328 0)
(6.97718 -0.670651 0)
(7.37777 -1.03703 0)
(5.07934 0.151425 0)
(5.17753 0.0597133 0)
(5.16501 0.0242778 0)
(5.13781 -0.0124248 0)
(5.15113 -0.0450244 0)
(5.20823 -0.0674283 0)
(5.28782 -0.0802974 0)
(5.37496 -0.0912308 0)
(5.46141 -0.0981514 0)
(5.55724 -0.11715 0)
(5.6618 -0.131252 0)
(5.78619 -0.166838 0)
(5.92518 -0.199034 0)
(6.09364 -0.275808 0)
(6.29624 -0.349292 0)
(6.53849 -0.516399 0)
(6.82181 -0.770393 0)
(7.08085 -1.15766 0)
(5.05521 0.184488 0)
(5.15918 0.0847184 0)
(5.15126 0.0355485 0)
(5.13067 -0.010106 0)
(5.15073 -0.0523485 0)
(5.21033 -0.0825097 0)
(5.29019 -0.103492 0)
(5.37374 -0.116049 0)
(5.45871 -0.133365 0)
(5.54975 -0.148424 0)
(5.65205 -0.179358 0)
(5.76812 -0.210346 0)
(5.90254 -0.270747 0)
(6.05505 -0.339284 0)
(6.23396 -0.455332 0)
(6.43727 -0.627824 0)
(6.65057 -0.883374 0)
(6.81924 -1.29867 0)
(5.0639 0.184245 0)
(5.18119 0.0800844 0)
(5.17055 0.0219575 0)
(5.14364 -0.0279088 0)
(5.16085 -0.0735667 0)
(5.21861 -0.107978 0)
(5.29494 -0.130837 0)
(5.37439 -0.148217 0)
(5.45482 -0.165254 0)
(5.54078 -0.188749 0)
(5.63817 -0.220503 0)
(5.74685 -0.264884 0)
(5.87059 -0.327508 0)
(6.00614 -0.416858 0)
(6.16146 -0.542542 0)
(6.32226 -0.723423 0)
(6.47837 -0.985324 0)
(6.58394 -1.34187 0)
(5.0798 0.205678 0)
(5.21386 0.0994903 0)
(5.21515 0.0304432 0)
(5.18544 -0.0297342 0)
(5.19172 -0.0839723 0)
(5.23726 -0.12517 0)
(5.3036 -0.154178 0)
(5.37519 -0.17588 0)
(5.44916 -0.198426 0)
(5.52943 -0.226177 0)
(5.62007 -0.263797 0)
(5.71991 -0.315842 0)
(5.83123 -0.38677 0)
(5.94978 -0.485945 0)
(6.07784 -0.618055 0)
(6.20096 -0.805424 0)
(6.31099 -1.04863 0)
(6.36712 -1.3641 0)
(5.07475 0.211821 0)
(5.22094 0.0962309 0)
(5.2269 0.0213851 0)
(5.19208 -0.0408257 0)
(5.1925 -0.0980824 0)
(5.23502 -0.144497 0)
(5.29953 -0.178838 0)
(5.36873 -0.205761 0)
(5.43904 -0.232285 0)
(5.51396 -0.264471 0)
(5.59737 -0.307386 0)
(5.6877 -0.365221 0)
(5.78521 -0.442666 0)
(5.88497 -0.547652 0)
(5.98717 -0.684537 0)
(6.07813 -0.865544 0)
(6.14932 -1.08991 0)
(6.17 -1.36611 0)
(5.07763 0.215255 0)
(5.22802 0.10623 0)
(5.2286 0.0262429 0)
(5.19176 -0.0437806 0)
(5.19459 -0.108595 0)
(5.239 -0.162396 0)
(5.30187 -0.202858 0)
(5.36616 -0.23463 0)
(5.42969 -0.26525 0)
(5.49688 -0.301802 0)
(5.57128 -0.348958 0)
(5.65037 -0.411757 0)
(5.73314 -0.493863 0)
(5.81436 -0.601443 0)
(5.8926 -0.736917 0)
(5.95493 -0.908497 0)
(5.99555 -1.11239 0)
(5.99139 -1.35054 0)
(5.04171 0.217429 0)
(5.20785 0.108579 0)
(5.22625 0.0233209 0)
(5.19649 -0.0551142 0)
(5.19881 -0.127129 0)
(5.24001 -0.185804 0)
(5.29852 -0.229828 0)
(5.35769 -0.264639 0)
(5.41513 -0.298248 0)
(5.47501 -0.337894 0)
(5.54027 -0.388492 0)
(5.60793 -0.45451 0)
(5.67612 -0.538683 0)
(5.73929 -0.645755 0)
(5.79573 -0.776699 0)
(5.83436 -0.935922 0)
(5.8515 -1.11757 0)
(5.82937 -1.3222 0)
(5.10907 0.219164 0)
(5.25939 0.109531 0)
(5.26447 0.0208196 0)
(5.22743 -0.0607722 0)
(5.22328 -0.13639 0)
(5.25574 -0.200317 0)
(5.30424 -0.250137 0)
(5.3535 -0.290119 0)
(5.40137 -0.327925 0)
(5.45161 -0.371001 0)
(5.50632 -0.424354 0)
(5.5618 -0.492041 0)
(5.61538 -0.576336 0)
(5.66166 -0.680415 0)
(5.69907 -0.803871 0)
(5.71803 -0.948911 0)
(5.71697 -1.10912 0)
(5.68239 -1.28417 0)
(5.07582 0.227384 0)
(5.2411 0.12093 0)
(5.25244 0.0232901 0)
(5.21667 -0.0686035 0)
(5.21164 -0.150843 0)
(5.24295 -0.2186 0)
(5.29031 -0.271288 0)
(5.33739 -0.313874 0)
(5.38106 -0.354065 0)
(5.42488 -0.399108 0)
(5.47108 -0.453776 0)
(5.51606 -0.521634 0)
(5.55718 -0.604239 0)
(5.58944 -0.703655 0)
(5.61177 -0.818662 0)
(5.61614 -0.950057 0)
(5.6026 -1.09124 0)
(5.56022 -1.24201 0)
(5.06531 0.213131 0)
(5.22979 0.120563 0)
(5.24728 0.0213762 0)
(5.21414 -0.0731958 0)
(5.20798 -0.158913 0)
(5.23706 -0.231487 0)
(5.28148 -0.288926 0)
(5.32416 -0.335128 0)
(5.36163 -0.377624 0)
(5.39769 -0.423822 0)
(5.43472 -0.4786 0)
(5.46923 -0.545183 0)
(5.49856 -0.624629 0)
(5.5182 -0.718189 0)
(5.52764 -0.823995 0)
(5.52019 -0.942112 0)
(5.49705 -1.06625 0)
(5.44932 -1.19651 0)
(5.03092 0.224836 0)
(5.19834 0.115615 0)
(5.22559 0.0135663 0)
(5.20054 -0.0852042 0)
(5.19779 -0.176565 0)
(5.22679 -0.253434 0)
(5.26852 -0.313027 0)
(5.30623 -0.35999 0)
(5.33665 -0.402548 0)
(5.36401 -0.448197 0)
(5.39094 -0.501546 0)
(5.4142 -0.565256 0)
(5.43131 -0.639784 0)
(5.43839 -0.725602 0)
(5.43557 -0.82044 0)
(5.41754 -0.92392 0)
(5.3865 -1.0302 0)
(5.33526 -1.13979 0)
(5.0818 0.242834 0)
(5.24615 0.113768 0)
(5.2687 0.0069981 0)
(5.23684 -0.0946714 0)
(5.22376 -0.189199 0)
(5.23958 -0.268928 0)
(5.26776 -0.331195 0)
(5.29266 -0.380114 0)
(5.31087 -0.42333 0)
(5.32626 -0.468083 0)
(5.34111 -0.518884 0)
(5.35209 -0.578101 0)
(5.35671 -0.645834 0)
(5.35173 -0.722045 0)
(5.33785 -0.80432 0)
(5.31101 -0.892102 0)
(5.274 -0.980297 0)
(5.22101 -1.06989 0)
(5.07761 0.228806 0)
(5.2547 0.106541 0)
(5.27793 0.000770266 0)
(5.24069 -0.0993555 0)
(5.22235 -0.194925 0)
(5.23236 -0.277631 0)
(5.25298 -0.342833 0)
(5.2688 -0.393467 0)
(5.27672 -0.436733 0)
(5.28098 -0.479643 0)
(5.28417 -0.526583 0)
(5.28336 -0.579705 0)
(5.27637 -0.638966 0)
(5.26071 -0.704076 0)
(5.23758 -0.772773 0)
(5.20399 -0.844587 0)
(5.16298 -0.91531 0)
(5.10982 -0.986312 0)
(5.1142 0.228174 0)
(5.27749 0.111436 0)
(5.2921 -0.00192385 0)
(5.24675 -0.109369 0)
(5.22068 -0.208255 0)
(5.2235 -0.291312 0)
(5.23599 -0.354815 0)
(5.24199 -0.402596 0)
(5.23889 -0.442161 0)
(5.23168 -0.480275 0)
(5.22335 -0.520961 0)
(5.21143 -0.566018 0)
(5.19402 -0.615254 0)
(5.16936 -0.668248 0)
(5.13893 -0.723045 0)
(5.10061 -0.779343 0)
(5.05728 -0.833828 0)
(5.00521 -0.88805 0)
(5.15165 0.234025 0)
(5.3213 0.123074 0)
(5.3375 0.0125642 0)
(5.2874 -0.0928937 0)
(5.24731 -0.190536 0)
(5.23167 -0.273626 0)
(5.2266 -0.338377 0)
(5.21739 -0.386984 0)
(5.20086 -0.425441 0)
(5.18148 -0.45992 0)
(5.16198 -0.494505 0)
(5.14004 -0.531203 0)
(5.11384 -0.570137 0)
(5.08212 -0.61109 0)
(5.04636 -0.652613 0)
(5.00513 -0.69462 0)
(4.96085 -0.734655 0)
(4.9107 -0.774244 0)
(5.07764 0.218123 0)
(5.24408 0.11438 0)
(5.25925 0.0162505 0)
(5.21365 -0.0787533 0)
(5.18439 -0.170237 0)
(5.17993 -0.250618 0)
(5.18079 -0.313248 0)
(5.17196 -0.358474 0)
(5.15192 -0.391739 0)
(5.12683 -0.419266 0)
(5.10062 -0.445388 0)
(5.07204 -0.472305 0)
(5.03982 -0.500394 0)
(5.00344 -0.52958 0)
(4.96436 -0.558839 0)
(4.9218 -0.588185 0)
(4.87758 -0.615877 0)
(4.82982 -0.643208 0)
(5.09819 0.244081 0)
(5.26347 0.12891 0)
(5.27951 0.0169145 0)
(5.23406 -0.0848071 0)
(5.19957 -0.173544 0)
(5.18588 -0.244514 0)
(5.17679 -0.295274 0)
(5.15838 -0.32901 0)
(5.12959 -0.352058 0)
(5.09684 -0.370369 0)
(5.06399 -0.387719 0)
(5.0299 -0.405864 0)
(4.99324 -0.425039 0)
(4.9537 -0.445118 0)
(4.91248 -0.465302 0)
(4.86917 -0.485593 0)
(4.825 -0.504714 0)
(4.7788 -0.523666 0)
(5.0867 0.225498 0)
(5.26392 0.117219 0)
(5.28737 0.0234358 0)
(5.24401 -0.0640938 0)
(5.20801 -0.144688 0)
(5.1906 -0.210556 0)
(5.17611 -0.257562 0)
(5.15194 -0.287762 0)
(5.11782 -0.306941 0)
(5.0804 -0.320919 0)
(5.0435 -0.333502 0)
(5.00602 -0.346509 0)
(4.9666 -0.360322 0)
(4.92507 -0.374905 0)
(4.88247 -0.389646 0)
(4.83862 -0.404542 0)
(4.79439 -0.418596 0)
(4.74902 -0.432595 0)
(5.07451 0.2348 0)
(5.2416 0.116489 0)
(5.26285 0.015393 0)
(5.22363 -0.0683777 0)
(5.19392 -0.137508 0)
(5.1813 -0.191345 0)
(5.16906 -0.228501 0)
(5.14508 -0.251386 0)
(5.10967 -0.265106 0)
(5.07013 -0.274587 0)
(5.03084 -0.283013 0)
(4.99114 -0.291914 0)
(4.94981 -0.30163 0)
(4.90686 -0.31212 0)
(4.86327 -0.322871 0)
(4.81901 -0.333848 0)
(4.77468 -0.344246 0)
(4.72983 -0.354674 0)
(5.06556 0.218517 0)
(5.25721 0.104977 0)
(5.28705 0.0108764 0)
(5.24318 -0.0661964 0)
(5.20355 -0.128523 0)
(5.18365 -0.17499 0)
(5.16858 -0.204669 0)
(5.14345 -0.220563 0)
(5.10673 -0.228304 0)
(5.06542 -0.232864 0)
(5.02416 -0.237159 0)
(4.9826 -0.242423 0)
(4.93966 -0.248808 0)
(4.8955 -0.256138 0)
(4.85106 -0.263894 0)
(4.80638 -0.271971 0)
(4.76188 -0.279696 0)
(4.71731 -0.287519 0)
(5.03706 0.209736 0)
(5.22951 0.0945625 0)
(5.26965 0.0158163 0)
(5.23844 -0.0497936 0)
(5.20889 -0.107815 0)
(5.19406 -0.152318 0)
(5.17922 -0.178776 0)
(5.15147 -0.190265 0)
(5.11109 -0.1935 0)
(5.06629 -0.194078 0)
(5.0222 -0.195031 0)
(4.97844 -0.197454 0)
(4.93385 -0.201327 0)
(4.88855 -0.206314 0)
(4.84333 -0.211859 0)
(4.79825 -0.217788 0)
(4.75355 -0.223529 0)
(4.7091 -0.229401 0)
(5.08707 0.204672 0)
(5.28601 0.0683329 0)
(5.33558 -0.0120248 0)
(5.30579 -0.0679865 0)
(5.26843 -0.113262 0)
(5.24064 -0.14406 0)
(5.2119 -0.158744 0)
(5.17179 -0.161968 0)
(5.1221 -0.160028 0)
(5.07111 -0.157339 0)
(5.02309 -0.155998 0)
(4.97686 -0.156565 0)
(4.93067 -0.158753 0)
(4.88434 -0.162091 0)
(4.83846 -0.166023 0)
(4.79302 -0.170343 0)
(4.74814 -0.174579 0)
(4.70373 -0.17895 0)
(5.07855 0.188557 0)
(5.30677 0.0660857 0)
(5.37116 0.00475038 0)
(5.34149 -0.0418693 0)
(5.2995 -0.0823846 0)
(5.26603 -0.108834 0)
(5.23084 -0.120955 0)
(5.18464 -0.123921 0)
(5.12996 -0.122711 0)
(5.07524 -0.120561 0)
(5.02456 -0.11921 0)
(4.97645 -0.119285 0)
(4.92899 -0.120645 0)
(4.88183 -0.122933 0)
(4.83543 -0.125717 0)
(4.78971 -0.128827 0)
(4.74467 -0.131905 0)
(4.70027 -0.135095 0)
(5.07468 0.144289 0)
(5.3313 0.00471418 0)
(5.40436 -0.037813 0)
(5.36493 -0.0670128 0)
(5.31382 -0.0906828 0)
(5.27598 -0.10191 0)
(5.23814 -0.102595 0)
(5.18961 -0.0984856 0)
(5.13312 -0.0934369 0)
(5.07704 -0.089327 0)
(5.02523 -0.0869478 0)
(4.97619 -0.0863237 0)
(4.92802 -0.0869951 0)
(4.88038 -0.088481 0)
(4.83366 -0.0903824 0)
(4.78776 -0.0925467 0)
(4.74262 -0.0947059 0)
(4.69824 -0.0969523 0)
(5.08762 0.14606 0)
(5.39439 0.033886 0)
(5.48144 0.00153683 0)
(5.43705 -0.0293298 0)
(5.3783 -0.0526176 0)
(5.32894 -0.0632987 0)
(5.27633 -0.0658132 0)
(5.21395 -0.0645894 0)
(5.14727 -0.06192 0)
(5.08482 -0.0592042 0)
(5.02938 -0.0574422 0)
(4.97843 -0.0569143 0)
(4.92931 -0.0573101 0)
(4.88123 -0.058253 0)
(4.83431 -0.0594662 0)
(4.78832 -0.0608669 0)
(4.74321 -0.0622644 0)
(4.69886 -0.0637472 0)
(5.04944 0.0129941 0)
(5.39704 -0.0534243 0)
(5.48572 -0.0501529 0)
(5.43781 -0.0597464 0)
(5.37688 -0.0618108 0)
(5.32391 -0.0542449 0)
(5.26793 -0.0447993 0)
(5.20377 -0.0380037 0)
(5.13656 -0.0340075 0)
(5.07407 -0.0317772 0)
(5.01871 -0.0308229 0)
(4.96791 -0.0308259 0)
(4.91906 -0.0313304 0)
(4.87129 -0.0320294 0)
(4.82472 -0.0327713 0)
(4.77905 -0.0335865 0)
(4.73432 -0.0343603 0)
(4.69026 -0.0352018 0)
(5.03051 0.0659891 0)
(5.30428 -0.00231813 0)
(5.24403 -0.0120118 0)
(5.04639 -0.0212463 0)
(4.87249 -0.0225701 0)
(4.75518 -0.0180738 0)
(4.67526 -0.0132199 0)
(4.60877 -0.0104067 0)
(4.54706 -0.00914671 0)
(4.49218 -0.00856912 0)
(4.44411 -0.00842787 0)
(4.3991 -0.00861676 0)
(4.35455 -0.00892036 0)
(4.31029 -0.00921643 0)
(4.26676 -0.00946986 0)
(4.22412 -0.00972944 0)
(4.18199 -0.00995299 0)
(4.14105 -0.0102022 0)
(0.0214752 -0.047854 5.35495e-20)
(0.070195 -0.0529483 -5.3213e-20)
(0.12115 -0.05258 0)
(0.172034 -0.052382 0)
(0.223129 -0.0522273 0)
(0.274482 -0.0520391 5.1752e-20)
(0.326055 -0.0518093 0)
(0.377802 -0.0515375 0)
(0.429681 -0.0512228 0)
(0.481646 -0.0508641 0)
(0.53365 -0.0504604 -4.99317e-20)
(0.585642 -0.0500106 0)
(0.637572 -0.0495139 0)
(0.689384 -0.0489699 0)
(0.741023 -0.0483784 0)
(0.792432 -0.0477396 -4.81141e-20)
(0.843553 -0.0470542 0)
(0.894328 -0.0463232 0)
(0.944698 -0.0455481 0)
(0.994606 -0.0447308 0)
(1.04399 -0.0438734 0)
(1.09281 -0.0429787 0)
(1.141 -0.0420497 0)
(1.1885 -0.0410893 -4.52093e-20)
(1.23528 -0.0401012 4.48468e-20)
(1.28129 -0.0390889 -4.44846e-20)
(1.32648 -0.038056 -4.41227e-20)
(1.37082 -0.0370063 0)
(1.41427 -0.0359435 0)
(1.4568 -0.0348713 4.30394e-20)
(1.49838 -0.0337933 4.26792e-20)
(1.53899 -0.032713 0)
(1.57861 -0.0316337 0)
(1.61723 -0.0305586 4.16024e-20)
(1.65483 -0.0294905 0)
(1.69139 -0.0284323 0)
(1.72693 -0.0273865 -4.05324e-20)
(1.76143 -0.0263552 0)
(1.7949 -0.0253406 -3.98236e-20)
(1.82733 -0.0243445 -7.89415e-20)
(1.85874 -0.0233685 0)
(1.88914 -0.022414 0)
(1.91852 -0.021482 0)
(1.94691 -0.0205737 0)
(1.97433 -0.0196898 0)
(2.00077 -0.0188308 -7.47566e-20)
(2.02627 -0.0179974 -7.40683e-20)
(2.05084 -0.0171897 -7.33828e-20)
(2.0745 -0.0164079 0)
(2.09727 -0.0156522 7.20208e-20)
(2.11916 -0.0149225 0)
(2.14021 -0.0142185 -7.0671e-20)
(2.16043 -0.0135401 -7.00009e-20)
(2.17985 -0.012887 0)
(2.19848 -0.0122588 0)
(2.21634 -0.011655 0)
(2.23348 -0.0110752 -6.73538e-20)
(2.24989 -0.0105189 0)
(2.26561 -0.00998551 0)
(2.28065 -0.00947441 0)
(2.29505 -0.00898508 0)
(2.30881 -0.00851683 0)
(2.32197 -0.0080691 0)
(2.33454 -0.0076412 0)
(2.34655 -0.00723254 0)
(2.35801 -0.00684243 6.16044e-20)
(2.36894 -0.00647029 0)
(2.37936 -0.00611542 0)
(2.3893 -0.00577726 -5.97543e-20)
(2.39877 -0.00545514 -5.91452e-20)
(2.40778 -0.0051485 0)
(2.41636 -0.00485669 5.79383e-20)
(2.42452 -0.0045792 -5.73406e-20)
(2.43229 -0.00431537 0)
(2.43966 -0.00406473 5.61565e-20)
(2.44667 -0.00382666 0)
(2.45333 -0.0036007 0)
(2.45964 -0.00338627 -5.4409e-20)
(2.46563 -0.00318296 0)
(2.47131 -0.00299017 5.3263e-20)
(2.4767 -0.00280755 0)
(2.48179 -0.00263454 -5.21321e-20)
(2.48662 -0.00247082 -5.15723e-20)
(2.49119 -0.00231582 -5.10163e-20)
(2.4955 -0.00216925 -1.00928e-19)
(2.49958 -0.00203062 9.98309e-20)
(2.50343 -0.00189964 0)
(2.50707 -0.00177574 0)
(2.5105 -0.00165874 0)
(2.51373 -0.00154814 9.55167e-20)
(2.51678 -0.0014436 9.44565e-20)
(2.51964 -0.00134379 -9.34036e-20)
(2.52234 -0.00124867 0)
(2.52487 -0.00115595 9.13195e-20)
(2.52724 -0.00106257 9.02883e-20)
(2.52946 -0.00097442 8.92642e-20)
(2.53152 -0.00089721 0)
(2.53346 -0.00082938 0)
(2.53526 -0.000768249 0)
(2.53695 -0.000711933 8.52381e-20)
(2.53854 -0.000659461 0)
(2.54001 -0.000610217 0)
(2.5414 -0.000563947 -8.22912e-20)
(2.54268 -0.000520449 0)
(2.54389 -0.000479568 0)
(2.545 -0.000441225 -7.94053e-20)
(2.54604 -0.000405263 0)
(2.54701 -0.000371638 0)
(2.54791 -0.000340176 7.6579e-20)
(2.54874 -0.000310823 7.565e-20)
(2.5495 -0.000283398 0)
(2.55021 -0.000257846 -7.38111e-20)
(2.55087 -0.000234001 0)
(2.55147 -0.00021181 7.19976e-20)
(2.55202 -0.000191135 0)
(2.55253 -0.000171885 7.0209e-20)
(2.55299 -0.000153994 6.93239e-20)
(2.55341 -0.000137337 0)
(2.5538 -0.000121961 0)
(2.55415 -0.000107673 0)
(2.55446 -9.44611e-05 0)
(2.55474 -8.21403e-05 0)
(2.555 -7.06474e-05 0)
(2.55522 -5.99471e-05 0)
(2.55542 -5.00023e-05 6.24577e-20)
(2.5556 -4.08287e-05 -6.16255e-20)
(2.55575 -3.23468e-05 0)
(2.55588 -2.45482e-05 0)
(2.55598 -1.73466e-05 0)
(2.55607 -1.07284e-05 0)
(2.55615 -4.62066e-06 -1.15095e-19)
(2.5562 9.83419e-07 0)
(2.55624 6.1538e-06 1.11908e-19)
(2.55626 1.08863e-05 -1.10331e-19)
(2.55627 1.52544e-05 0)
(2.55627 1.92523e-05 0)
(2.55625 2.29471e-05 0)
(2.55623 2.63209e-05 1.04124e-19)
(2.55619 2.93568e-05 1.02598e-19)
(2.55614 3.2116e-05 0)
(2.55608 3.45698e-05 9.95745e-20)
(2.55602 3.68733e-05 9.80775e-20)
(2.55594 3.90125e-05 -9.65901e-20)
(2.55586 4.10818e-05 0)
(2.55577 4.30464e-05 0)
(2.55567 4.49807e-05 -9.21845e-20)
(2.55557 4.68523e-05 0)
(2.55545 4.87326e-05 0)
(2.55533 5.06146e-05 0)
(2.5552 5.25706e-05 0)
(2.55507 5.46128e-05 8.50249e-20)
(2.55492 5.6823e-05 8.36196e-20)
(2.55476 5.92504e-05 0)
(2.5546 6.19979e-05 8.08347e-20)
(2.55442 6.51503e-05 0)
(2.55423 6.88604e-05 0)
(2.55402 7.3277e-05 7.67206e-20)
(2.55379 7.86311e-05 0)
(2.55354 8.51674e-05 7.40189e-20)
(2.55325 9.32471e-05 0)
(2.55293 0.000103286 0)
(2.55257 0.000115867 7.00262e-20)
(2.55215 0.000131701 0)
(2.55165 0.000151756 6.74035e-20)
(2.55106 0.000177262 0)
(2.55035 0.000209901 0)
(2.54949 0.000251866 0)
(2.54843 0.000306197 -6.22498e-20)
(2.5471 0.000377034 0)
(2.54543 0.000470264 5.97189e-20)
(2.5433 0.000594385 0)
(2.54054 0.000761922 0)
(2.53693 0.000993737 0)
(2.53208 0.00131551 0)
(2.52558 0.00181172 0)
(2.51599 0.00244389 0)
(2.50346 0.0041057 0)
(2.47832 0.00492088 -9.99079e-20)
(2.45259 0.0182414 0)
(2.34884 0.0217401 0)
(0.0211485 -0.145257 -1.60759e-19)
(0.0715499 -0.162138 1.59749e-19)
(0.12323 -0.161058 0)
(0.175054 -0.160408 -1.05042e-19)
(0.227098 -0.15992 0)
(0.279391 -0.159342 -5.17828e-20)
(0.331904 -0.158641 1.02851e-19)
(0.384598 -0.157813 1.02122e-19)
(0.437428 -0.156856 0)
(0.49035 -0.155765 1.00665e-19)
(0.543314 -0.154535 4.99606e-20)
(0.59627 -0.153164 0)
(0.649164 -0.151649 0)
(0.701939 -0.149989 0)
(0.75454 -0.148182 0)
(0.806905 -0.14623 4.81406e-20)
(0.858976 -0.144134 0)
(0.910691 -0.141898 -9.48395e-20)
(0.961991 -0.139526 0)
(1.01282 -0.137025 0)
(1.06311 -0.134401 9.26561e-20)
(1.11281 -0.131662 0)
(1.16186 -0.128817 -9.12013e-20)
(1.21022 -0.125877 4.5231e-20)
(1.25782 -0.122851 -4.48679e-20)
(1.30464 -0.119752 4.45051e-20)
(1.35062 -0.11659 4.41425e-20)
(1.39572 -0.113377 0)
(1.43991 -0.110124 0)
(1.48316 -0.106842 -4.30574e-20)
(1.52544 -0.103543 4.27067e-20)
(1.56673 -0.100238 0)
(1.607 -0.0969353 0)
(1.64625 -0.0936459 -4.16182e-20)
(1.68446 -0.0903785 0)
(1.72162 -0.0871414 0)
(1.75773 -0.0839422 4.05467e-20)
(1.79279 -0.0807878 0)
(1.82679 -0.0776845 -3.98441e-20)
(1.85975 -0.0746377 7.89672e-20)
(1.89166 -0.0716525 0)
(1.92254 -0.0687328 0)
(1.9524 -0.0658824 1.53734e-19)
(1.98125 -0.0631041 1.52339e-19)
(2.0091 -0.0604004 1.50949e-19)
(2.03598 -0.057773 -7.47875e-20)
(2.06189 -0.0552235 7.40885e-20)
(2.08686 -0.0527527 2.20216e-19)
(2.11091 -0.0503612 -1.45447e-19)
(2.13405 -0.0480491 -7.2039e-20)
(2.15632 -0.0458163 0)
(2.17772 -0.0436623 7.06881e-20)
(2.19829 -0.0415865 -7.00243e-20)
(2.21803 -0.0395878 0)
(2.23699 -0.0376652 0)
(2.25517 -0.0358172 0)
(2.27261 -0.0340426 6.73685e-20)
(2.28932 -0.0323396 0)
(2.30533 -0.0307067 -1.32134e-19)
(2.32065 -0.029142 0)
(2.33532 -0.0276437 -1.29555e-19)
(2.34935 -0.02621 0)
(2.36277 -0.0248389 1.27004e-19)
(2.37559 -0.0235285 0)
(2.38783 -0.0222769 -1.24484e-19)
(2.39953 -0.0210821 6.16189e-20)
(2.41069 -0.0199422 0)
(2.42133 -0.0188552 1.20759e-19)
(2.43149 -0.0178193 5.97649e-20)
(2.44116 -0.0168325 5.91555e-20)
(2.45038 -0.0158931 0)
(2.45917 -0.0149991 5.79503e-20)
(2.46752 -0.0141489 5.73502e-20)
(2.47548 -0.0133406 0)
(2.48304 -0.0125726 -5.61657e-20)
(2.49023 -0.0118432 1.1116e-19)
(2.49706 -0.0111508 0)
(2.50355 -0.0104939 5.44176e-20)
(2.50971 -0.00987093 0)
(2.51555 -0.00928035 -1.59815e-19)
(2.52109 -0.00872088 0)
(2.52635 -0.008191 1.56421e-19)
(2.53133 -0.00768952 5.15802e-20)
(2.53605 -0.00721496 -5.10249e-20)
(2.54051 -0.00676626 -1.00945e-19)
(2.54473 -0.00634206 9.98474e-20)
(2.54873 -0.00594135 0)
(2.55251 -0.00556273 0)
(2.55608 -0.00520538 0)
(2.55944 -0.00486814 -2.86593e-19)
(2.56262 -0.00454985 -9.44703e-20)
(2.56562 -0.00424918 9.34172e-20)
(2.56845 -0.00396531 0)
(2.57112 -0.0036969 9.13336e-20)
(2.57364 -0.00344245 -9.03014e-20)
(2.57602 -0.00320225 -8.92773e-20)
(2.57828 -0.00297736 0)
(2.58042 -0.00276854 0)
(2.58243 -0.00257417 0)
(2.58433 -0.00239252 -8.52508e-20)
(2.58611 -0.00222242 0)
(2.58778 -0.00206299 1.66559e-19)
(2.58935 -0.00191355 2.46911e-19)
(2.59082 -0.00177349 -1.6267e-19)
(2.5922 -0.00164226 0)
(2.59349 -0.00151942 -7.94177e-20)
(2.5947 -0.00140451 0)
(2.59584 -0.00129715 -1.55053e-19)
(2.5969 -0.00119688 7.65911e-20)
(2.59789 -0.00110335 7.56619e-20)
(2.59882 -0.0010161 0)
(2.59968 -0.000934799 2.21468e-19)
(2.60049 -0.000859036 -1.45825e-19)
(2.60124 -0.000788522 -7.20089e-20)
(2.60195 -0.000722891 0)
(2.6026 -0.000661826 -7.022e-20)
(2.60321 -0.000605086 -2.08005e-19)
(2.60378 -0.000552369 0)
(2.60431 -0.000503578 -1.35165e-19)
(2.6048 -0.000458322 -1.33431e-19)
(2.60526 -0.000416409 -1.31709e-19)
(2.60568 -0.000377422 0)
(2.60608 -0.00034114 0)
(2.60645 -0.000307401 0)
(2.60679 -0.000276111 6.24678e-20)
(2.6071 -0.000247222 6.16354e-20)
(2.60739 -0.000220548 0)
(2.60766 -0.000195991 1.19975e-19)
(2.60791 -0.000173329 1.18344e-19)
(2.60815 -0.000152486 0)
(2.60836 -0.000133261 1.15114e-19)
(2.60856 -0.00011561 2.2703e-19)
(2.60874 -9.93385e-05 -1.11927e-19)
(2.60891 -8.4432e-05 -1.10349e-19)
(2.60906 -7.06912e-05 0)
(2.6092 -5.81073e-05 0)
(2.60934 -4.6509e-05 0)
(2.60946 -3.5918e-05 -1.04141e-19)
(2.60957 -2.63105e-05 1.02615e-19)
(2.60967 -1.75913e-05 2.02196e-19)
(2.60976 -9.74688e-06 -9.95912e-20)
(2.60985 -2.50214e-06 9.80939e-20)
(2.60993 4.20388e-06 9.66063e-20)
(2.61 1.05846e-05 0)
(2.61006 1.6628e-05 0)
(2.61012 2.24862e-05 -9.22001e-20)
(2.61018 2.81425e-05 0)
(2.61023 3.37535e-05 0)
(2.61027 3.93514e-05 1.75754e-19)
(2.6103 4.51144e-05 0)
(2.61033 5.11209e-05 8.50395e-20)
(2.61036 5.75935e-05 -8.3634e-20)
(2.61037 6.46864e-05 0)
(2.61038 7.26954e-05 8.08487e-20)
(2.61038 8.18907e-05 0)
(2.61036 9.27045e-05 0)
(2.61034 0.000105589 -7.6734e-20)
(2.61029 0.000121201 1.50758e-19)
(2.61023 0.000140292 -7.40319e-20)
(2.61014 0.0001639 0)
(2.61001 0.000193279 0)
(2.60985 0.000230117 7.00385e-20)
(2.60963 0.000276523 0)
(2.60935 0.000335329 6.74153e-20)
(2.60899 0.000410168 0)
(2.60851 0.000505939 0)
(2.6079 0.000629101 0)
(2.6071 0.000788496 6.22612e-20)
(2.60606 0.000996197 0)
(2.60471 0.0012692 -5.97299e-20)
(2.60293 0.00163198 0)
(2.60058 0.00212023 0)
(2.59745 0.00279196 1.11984e-19)
(2.59322 0.00372552 -1.09526e-19)
(2.5875 0.00512055 0)
(2.5792 0.00706132 0)
(2.56815 0.0110584 0)
(2.54975 0.0156692 2.99765e-19)
(2.52873 0.0382164 0)
(2.50044 0.0552562 -1.90593e-19)
(0.0211539 -0.243085 -2.61922e-23)
(0.0719838 -0.271632 -2.13138e-19)
(0.12387 -0.269762 0)
(0.175956 -0.268642 2.10211e-19)
(0.228282 -0.267822 0)
(0.280868 -0.266858 0)
(0.333683 -0.265694 2.55131e-23)
(0.386687 -0.26432 -1.02172e-19)
(0.439835 -0.262729 -1.01468e-19)
(0.493082 -0.260913 -1.00713e-19)
(0.546376 -0.258863 0)
(0.599664 -0.256575 0)
(0.652891 -0.254041 9.85511e-20)
(0.705999 -0.25126 1.95644e-19)
(0.758925 -0.248231 -1.94185e-19)
(0.811608 -0.244953 0)
(0.863986 -0.241431 -1.91268e-19)
(0.915994 -0.237671 9.4881e-20)
(0.967569 -0.23368 0)
(1.01865 -0.229469 -1.86892e-19)
(1.06917 -0.225049 -9.2694e-20)
(1.11908 -0.220437 1.83975e-19)
(1.16832 -0.215646 9.12369e-20)
(1.21683 -0.210695 0)
(1.26457 -0.205601 -1.79603e-19)
(1.31148 -0.200384 -1.78147e-19)
(1.35754 -0.195063 0)
(1.40269 -0.189658 -1.7524e-19)
(1.4469 -0.184188 0)
(1.49014 -0.178673 -1.72339e-19)
(1.5324 -0.17313 -8.54292e-20)
(1.57363 -0.167579 0)
(1.61384 -0.162036 0)
(1.653 -0.156517 0)
(1.69111 -0.151037 0)
(1.72815 -0.14561 0)
(1.76413 -0.140249 0)
(1.79904 -0.134965 -1.60842e-19)
(1.83289 -0.129769 2.39119e-19)
(1.86568 -0.124669 0)
(1.89743 -0.119673 0)
(1.92813 -0.114789 0)
(1.95781 -0.110023 1.96981e-23)
(1.98648 -0.105378 -1.52365e-19)
(2.01416 -0.100858 -3.01966e-19)
(2.04085 -0.0964677 2.99194e-19)
(2.06659 -0.0922081 1.48225e-19)
(2.09138 -0.0880808 -1.46835e-19)
(2.11525 -0.0840866 -1.43563e-23)
(2.13823 -0.0802257 -1.44118e-19)
(2.16032 -0.0764977 0)
(2.18156 -0.0729018 -1.41412e-19)
(2.20196 -0.0694367 -1.14795e-23)
(2.22155 -0.0661007 0)
(2.24035 -0.062892 0)
(2.25839 -0.0598081 1.36079e-19)
(2.27568 -0.0568467 0)
(2.29225 -0.0540052 0)
(2.30813 -0.0512805 -1.32161e-19)
(2.32333 -0.0486699 -2.61716e-19)
(2.33787 -0.0461702 1.29564e-19)
(2.35178 -0.0437782 0)
(2.36508 -0.0414908 -1.27012e-19)
(2.3778 -0.0393047 0)
(2.38994 -0.0372166 -1.24502e-19)
(2.40154 -0.0352234 -1.23241e-19)
(2.4126 -0.0333217 2.44007e-19)
(2.42316 -0.0315084 1.20773e-19)
(2.43323 -0.0297802 0)
(2.44282 -0.0281341 -2.36644e-19)
(2.45197 -0.0265668 0)
(2.46067 -0.0250755 -3.47714e-19)
(2.46896 -0.0236571 -2.29418e-19)
(2.47685 -0.0223087 -2.2704e-19)
(2.48435 -0.0210275 2.24678e-19)
(2.49148 -0.0198107 -3.33493e-19)
(2.49825 -0.0186557 0)
(2.50469 -0.0175599 0)
(2.5108 -0.0165206 2.15381e-19)
(2.51659 -0.0155355 3.19641e-19)
(2.52209 -0.0146022 0)
(2.52731 -0.0137184 -1.04283e-19)
(2.53225 -0.0128819 0)
(2.53692 -0.0120905 3.06153e-19)
(2.54135 -0.0113421 -2.88572e-24)
(2.54554 -0.0106348 2.6827e-24)
(2.54951 -0.00996667 -1.97517e-19)
(2.55326 -0.00933572 0)
(2.5568 -0.00874029 1.93201e-19)
(2.56014 -0.00817876 -1.99291e-24)
(2.56329 -0.00764929 0)
(2.56627 -0.00715091 0)
(2.56907 -0.00668204 0)
(2.57172 -0.00624225 -1.82667e-19)
(2.57421 -0.00583102 0)
(2.57655 -0.00544367 0)
(2.57877 -0.00507661 0)
(2.58085 -0.00472951 0)
(2.58281 -0.00440254 0)
(2.58465 -0.00409528 -1.70504e-19)
(2.58638 -0.00380689 0)
(2.588 -0.00353645 -1.6656e-19)
(2.58952 -0.003283 -1.64609e-19)
(2.59096 -0.00304552 1.62671e-19)
(2.5923 -0.00282319 0)
(2.59355 -0.00261514 1.58836e-19)
(2.59473 -0.00242066 0)
(2.59583 -0.00223898 1.55054e-19)
(2.59686 -0.0020694 -1.53183e-19)
(2.59783 -0.00191118 -4.53975e-19)
(2.59873 -0.00176366 0)
(2.59957 -0.00162616 -4.4294e-19)
(2.60036 -0.00149811 -1.45827e-19)
(2.60109 -0.00137888 0)
(2.60177 -0.00126796 -2.84448e-19)
(2.60241 -0.00116477 -2.80883e-19)
(2.60301 -0.00106889 4.16013e-19)
(2.60356 -0.000979938 0)
(2.60407 -0.000897506 1.35166e-19)
(2.60455 -0.000821109 1.33432e-19)
(2.605 -0.000750225 3.9513e-19)
(2.60541 -0.000684295 0)
(2.6058 -0.00062298 0)
(2.60616 -0.000566022 0)
(2.60649 -0.000513302 1.24937e-19)
(2.60679 -0.000464601 0)
(2.60708 -0.000419686 0)
(2.60734 -0.00037827 -1.19976e-19)
(2.60759 -0.000340093 -1.18345e-19)
(2.60781 -0.00030492 0)
(2.60802 -0.000272528 0)
(2.60821 -0.000242732 -2.27032e-19)
(2.60839 -0.000215318 0)
(2.60856 -0.000190143 2.207e-19)
(2.60871 -0.000166999 2.17566e-19)
(2.60885 -0.000145737 0)
(2.60898 -0.000126227 0)
(2.6091 -0.000108424 -2.08285e-19)
(2.6092 -9.2265e-05 -1.70282e-27)
(2.6093 -7.76318e-05 -7.11838e-27)
(2.6094 -6.43379e-05 0)
(2.60948 -5.2073e-05 -3.9238e-19)
(2.60956 -4.0662e-05 0)
(2.60963 -2.98933e-05 0)
(2.6097 -1.96931e-05 0)
(2.60975 -9.90537e-06 1.84402e-19)
(2.60981 -4.58087e-07 0)
(2.60986 8.84048e-06 -3.57239e-19)
(2.6099 1.81166e-05 -1.75756e-19)
(2.60994 2.76047e-05 0)
(2.60997 3.74975e-05 -1.70081e-19)
(2.60999 4.8105e-05 0)
(2.61001 5.97273e-05 0)
(2.61001 7.28108e-05 -4.85097e-19)
(2.61001 8.78382e-05 3.17878e-19)
(2.61 0.000105476 0)
(2.60997 0.000126495 3.06939e-19)
(2.60993 0.00015194 -1.50759e-19)
(2.60986 0.000183065 0)
(2.60978 0.000221533 0)
(2.60965 0.000269418 0)
(2.60949 0.000329437 -4.20235e-19)
(2.60928 0.000405062 0)
(2.609 0.000500862 -1.34832e-19)
(2.60863 0.000622776 0)
(2.60816 0.000778711 0)
(2.60755 0.000979168 0)
(2.60675 0.00123839 0)
(2.60572 0.00157582 0)
(2.60437 0.00201865 0)
(2.6026 0.00260574 -2.33902e-19)
(2.60026 0.00339348 0)
(2.59717 0.00447103 -1.11986e-19)
(2.593 0.00596709 3.28578e-19)
(2.58739 0.00815766 0)
(2.57943 0.01134 0)
(2.56905 0.0169325 -2.04543e-19)
(2.55273 0.02537 -1.99846e-19)
(2.53557 0.0458138 1.95137e-19)
(2.50565 0.0717565 1.9062e-19)
(0.0210764 -0.341609 3.21993e-19)
(0.0725678 -0.382028 3.19975e-19)
(0.124844 -0.379381 2.11877e-19)
(0.177364 -0.377808 1.05243e-19)
(0.230142 -0.376674 0)
(0.283191 -0.375345 -2.07491e-19)
(0.336485 -0.373735 1.03051e-19)
(0.389981 -0.37183 0)
(0.443635 -0.369618 1.0152e-19)
(0.497399 -0.367086 0)
(0.55122 -0.36422 -2.00191e-19)
(0.605041 -0.361011 0)
(0.658802 -0.35745 -9.86004e-20)
(0.71244 -0.353532 -1.95741e-19)
(0.765888 -0.349255 1.94281e-19)
(0.81908 -0.34462 0)
(0.871947 -0.339632 1.91359e-19)
(0.924421 -0.334301 0)
(0.976433 -0.328638 0)
(1.02792 -0.32266 1.86976e-19)
(1.07881 -0.316384 0)
(1.12904 -0.309832 6.20377e-23)
(1.17857 -0.303028 0)
(1.22732 -0.295997 0)
(1.27526 -0.288767 -5.75911e-23)
(1.32232 -0.281365 1.78216e-19)
(1.36849 -0.27382 1.76813e-19)
(1.4137 -0.26616 1.75304e-19)
(1.45794 -0.258413 0)
(1.50117 -0.250608 3.44844e-19)
(1.54337 -0.242769 0)
(1.58452 -0.234924 1.69546e-19)
(1.6246 -0.227096 0)
(1.66362 -0.219308 0)
(1.70154 -0.21158 -1.65216e-19)
(1.73839 -0.203933 0)
(1.77415 -0.196383 1.62346e-19)
(1.80882 -0.188947 -3.52238e-23)
(1.84242 -0.181639 -3.1895e-19)
(1.87495 -0.17447 3.16143e-19)
(1.90642 -0.167452 0)
(1.93685 -0.160595 0)
(1.96624 -0.153904 1.53867e-19)
(1.99462 -0.147388 0)
(2.022 -0.141051 1.51019e-19)
(2.04841 -0.134897 -1.49631e-19)
(2.07385 -0.128929 -1.48249e-19)
(2.09835 -0.123148 0)
(2.12194 -0.117555 1.45502e-19)
(2.14463 -0.11215 1.44138e-19)
(2.16645 -0.106933 -2.85597e-19)
(2.18742 -0.101902 1.41429e-19)
(2.20756 -0.0970542 1.40085e-19)
(2.22689 -0.0923884 0)
(2.24545 -0.0879012 0)
(2.26324 -0.0835895 -1.36093e-19)
(2.2803 -0.0794495 0)
(2.29665 -0.0754775 0)
(2.3123 -0.0716693 2.64327e-19)
(2.32729 -0.0680208 2.61737e-19)
(2.34163 -0.0645275 0)
(2.35535 -0.0611851 0)
(2.36847 -0.057989 0)
(2.381 -0.0549345 0)
(2.39297 -0.0520172 2.49006e-19)
(2.40441 -0.0492325 -2.4652e-19)
(2.41532 -0.0465757 -2.44019e-19)
(2.42573 -0.0440424 -4.83111e-19)