/*--------------------------------*- C++ -*----------------------------------*\
  =========                 |
  \\      /  F ield         | OpenFOAM: The Open Source CFD Toolbox
   \\    /   O peration     | Website:  https://openfoam.org
    \\  /    A nd           | Version:  7
     \\/     M anipulation  |
\*---------------------------------------------------------------------------*/
FoamFile
{
    version     2.0;
    format      ascii;
    class       volScalarField;
    location    "0.068";
    object      k_0;
}
// * * * * * * * * * * * * * * * * * * * * * * * * * * * * * * * * * * * * * //

dimensions      [0 2 -2 0 0 0 0];

internalField   nonuniform List<scalar> 
12225
(
1.93582e-05
1.81013e-05
1.65741e-05
1.5268e-05
1.41704e-05
1.23708e-05
1.16824e-05
1.35548e-05
1.36374e-05
9.16312e-06
6.93326e-06
5.79592e-06
5.2677e-06
5.12409e-06
4.94132e-06
5.65854e-06
9.82934e-06
5.41919e-06
1.99818e-05
1.98847e-05
1.96272e-05
1.94174e-05
1.91906e-05
1.86288e-05
1.85399e-05
1.96093e-05
2.05855e-05
1.98187e-05
1.78624e-05
1.65505e-05
1.57869e-05
1.51589e-05
1.44252e-05
1.44082e-05
1.7908e-05
1.65462e-05
2.00175e-05
1.92939e-05
1.92153e-05
1.92737e-05
1.93035e-05
1.92432e-05
1.91838e-05
1.9305e-05
1.94754e-05
1.93925e-05
1.9013e-05
1.8518e-05
1.82114e-05
1.79347e-05
1.7693e-05
1.74451e-05
1.76619e-05
1.76134e-05
2.07261e-05
2.19087e-05
2.1371e-05
2.0319e-05
1.95363e-05
1.85822e-05
1.82474e-05
1.80441e-05
1.79444e-05
1.78109e-05
1.74377e-05
1.69848e-05
1.66695e-05
1.64769e-05
1.63859e-05
1.63603e-05
1.63804e-05
1.64608e-05
2.3227e-05
2.30281e-05
2.21157e-05
2.28654e-05
2.59826e-05
2.72323e-05
2.69995e-05
2.39579e-05
1.68254e-05
1.52533e-05
1.52853e-05
1.55074e-05
1.55314e-05
1.5497e-05
1.55013e-05
1.55415e-05
1.56636e-05
1.60288e-05
2.06128e-05
2.09667e-05
2.15434e-05
2.33933e-05
2.77113e-05
2.97222e-05
2.97905e-05
2.81759e-05
2.379e-05
2.16693e-05
2.09103e-05
2.06614e-05
2.05924e-05
2.05539e-05
2.04927e-05
2.04524e-05
2.04915e-05
2.04301e-05
2.01876e-05
2.14868e-05
2.20538e-05
2.29817e-05
2.52625e-05
2.69861e-05
2.72984e-05
2.66747e-05
2.43944e-05
2.28263e-05
2.21883e-05
2.20302e-05
2.20456e-05
2.22755e-05
2.33483e-05
2.52134e-05
2.67358e-05
2.74063e-05
2.22204e-05
2.89253e-05
2.75557e-05
2.28339e-05
2.147e-05
2.18081e-05
2.28392e-05
2.31384e-05
2.31089e-05
2.28835e-05
2.25233e-05
2.23425e-05
2.22975e-05
2.23227e-05
2.25543e-05
2.35797e-05
2.5419e-05
2.67349e-05
2.58886e-05
2.59053e-05
2.22065e-05
2.08632e-05
2.08873e-05
2.12353e-05
2.1468e-05
2.16314e-05
2.19306e-05
2.26777e-05
2.32961e-05
2.34945e-05
2.34865e-05
2.32592e-05
2.27464e-05
2.25695e-05
2.25741e-05
2.27246e-05
2.23466e-05
2.40003e-05
2.3215e-05
2.19282e-05
2.15037e-05
2.10874e-05
2.08216e-05
2.07627e-05
2.08401e-05
2.13982e-05
2.29928e-05
2.41925e-05
2.46691e-05
2.47237e-05
2.46194e-05
2.41525e-05
2.31529e-05
2.23105e-05
2.24134e-05
2.18563e-05
2.13321e-05
2.17568e-05
2.21582e-05
2.18997e-05
2.11104e-05
2.05895e-05
2.04613e-05
2.05155e-05
2.08561e-05
2.2093e-05
2.40674e-05
2.5375e-05
2.59765e-05
2.61109e-05
2.60784e-05
2.5868e-05
2.0241e-05
2.05741e-05
2.12081e-05
2.15259e-05
2.15637e-05
2.15733e-05
2.15482e-05
2.14461e-05
2.11422e-05
2.10125e-05
2.10323e-05
2.12641e-05
2.23298e-05
2.39332e-05
2.48678e-05
2.52942e-05
2.54199e-05
2.54538e-05
2.00582e-05
2.06108e-05
2.16471e-05
2.17848e-05
2.15471e-05
2.148e-05
2.15306e-05
2.15024e-05
2.12793e-05
2.0994e-05
2.09272e-05
2.09609e-05
2.12324e-05
2.18256e-05
2.21508e-05
2.23001e-05
2.2347e-05
2.245e-05
2.00636e-05
2.0833e-05
2.13031e-05
2.10366e-05
2.07705e-05
2.09495e-05
2.2044e-05
2.27821e-05
2.27136e-05
2.21278e-05
2.13746e-05
2.10639e-05
2.0999e-05
2.1012e-05
2.10866e-05
2.113e-05
2.11319e-05
2.1124e-05
2.03636e-05
2.08724e-05
2.0925e-05
2.07834e-05
2.0792e-05
2.14961e-05
2.32191e-05
2.35202e-05
2.33155e-05
2.27105e-05
2.24281e-05
2.23692e-05
2.23776e-05
2.23916e-05
2.23813e-05
2.22963e-05
2.19519e-05
2.14619e-05
2.08809e-05
2.10882e-05
2.0979e-05
2.07619e-05
2.06241e-05
2.06234e-05
2.07219e-05
2.10849e-05
2.19808e-05
2.27369e-05
2.31958e-05
2.3398e-05
2.34444e-05
2.34306e-05
2.33105e-05
2.28832e-05
2.23578e-05
2.19616e-05
2.03978e-05
2.02493e-05
2.03998e-05
2.07186e-05
2.07442e-05
2.06928e-05
2.07117e-05
2.0995e-05
2.22883e-05
2.35889e-05
2.40526e-05
2.41083e-05
2.40002e-05
2.34394e-05
2.2618e-05
2.20671e-05
2.16484e-05
2.1405e-05
2.01222e-05
2.0124e-05
2.02435e-05
2.06992e-05
2.09567e-05
2.09848e-05
2.09622e-05
2.097e-05
2.10922e-05
2.16163e-05
2.2055e-05
2.21538e-05
2.21266e-05
2.18904e-05
2.13093e-05
2.08973e-05
2.06503e-05
2.05111e-05
2.00497e-05
2.01053e-05
2.03217e-05
2.07774e-05
2.09428e-05
2.09435e-05
2.08141e-05
2.05578e-05
2.04617e-05
2.04532e-05
2.04811e-05
2.05351e-05
2.05505e-05
2.05491e-05
2.05308e-05
2.048e-05
2.04444e-05
2.04231e-05
2.0044e-05
2.02927e-05
2.05683e-05
2.06498e-05
2.06437e-05
2.05774e-05
2.04336e-05
2.03189e-05
2.02628e-05
2.02539e-05
2.02601e-05
2.02875e-05
2.03284e-05
2.03689e-05
2.04144e-05
2.04637e-05
2.05089e-05
2.05508e-05
2.03599e-05
2.03819e-05
2.054e-05
2.09735e-05
2.11149e-05
2.10954e-05
2.08986e-05
2.07038e-05
2.0633e-05
2.05311e-05
2.04533e-05
2.04432e-05
2.046e-05
2.05478e-05
2.06605e-05
2.07266e-05
2.07573e-05
2.07633e-05
2.04996e-05
2.07097e-05
2.0638e-05
2.05683e-05
2.05543e-05
2.05472e-05
2.05177e-05
2.04797e-05
2.04862e-05
2.0584e-05
2.0614e-05
2.06446e-05
2.08312e-05
2.11248e-05
2.13109e-05
2.14044e-05
2.14366e-05
2.14392e-05
2.01015e-05
2.02072e-05
2.04254e-05
2.0588e-05
2.06523e-05
2.06685e-05
2.06816e-05
2.0721e-05
2.08051e-05
2.08578e-05
2.09058e-05
2.10155e-05
2.11573e-05
2.12674e-05
2.13252e-05
2.13421e-05
2.13417e-05
2.13337e-05
2.01128e-05
2.03541e-05
2.04495e-05
2.04559e-05
2.04103e-05
2.0327e-05
2.02905e-05
2.02858e-05
2.03139e-05
2.04885e-05
2.06946e-05
2.0736e-05
2.06932e-05
2.0561e-05
2.04974e-05
2.04716e-05
2.04252e-05
2.03435e-05
2.00735e-05
2.03694e-05
2.0512e-05
2.05008e-05
2.04931e-05
2.0459e-05
2.03435e-05
2.02054e-05
2.01656e-05
2.01819e-05
2.02194e-05
2.02157e-05
2.01927e-05
2.01793e-05
2.01761e-05
2.01726e-05
2.01611e-05
2.01425e-05
2.00217e-05
2.0213e-05
2.03874e-05
2.07321e-05
2.22478e-05
2.39293e-05
2.39903e-05
2.31858e-05
2.15118e-05
2.06729e-05
2.03277e-05
2.02123e-05
2.0189e-05
2.01899e-05
2.02065e-05
2.02329e-05
2.02583e-05
2.02648e-05
2.00498e-05
2.00346e-05
2.00432e-05
2.00835e-05
2.01356e-05
2.01497e-05
2.01539e-05
2.00457e-05
1.99551e-05
1.99733e-05
2.00967e-05
2.04278e-05
2.09875e-05
2.13332e-05
2.19402e-05
2.22682e-05
2.29165e-05
2.32617e-05
2.0284e-05
1.86632e-05
1.60099e-05
1.63446e-05
1.81534e-05
2.40246e-05
3.26687e-05
3.85765e-05
4.41465e-05
5.03712e-05
5.7375e-05
6.40924e-05
7.12171e-05
7.67577e-05
8.41139e-05
8.94822e-05
9.68626e-05
0.000102848
3.31265e-05
0.000132119
0.000142352
0.000163659
0.000243438
0.000385257
0.0004699
0.000504932
0.00052424
0.000551413
0.000584587
0.000616702
0.000643034
0.000654014
0.000654573
0.000653722
0.000651162
0.000646752
0.00282529
0.0027038
0.00252815
0.0024759
0.00247013
0.00246226
0.00241325
0.00222191
0.00199893
0.00187505
0.00182024
0.001772
0.0016915
0.00158014
0.00146112
0.00135513
0.00127537
0.00122531
0.00282731
0.00584211
0.0063902
0.00547621
0.00525167
0.00596626
0.00621499
0.00636133
0.00675017
0.00806314
0.00962901
0.00961723
0.00909007
0.00777134
0.00679925
0.00616623
0.00566066
0.00528183
0.00499721
0.00469699
0.00451497
0.00426284
0.00406309
0.0038731
0.00365519
0.00352312
0.00343301
0.00330944
0.00316842
0.00299174
0.00264369
0.00236447
0.00173931
0.00118561
0.00117645
0.0020179
0.00291708
0.00335798
0.00365197
0.0038532
0.00413601
0.00477011
0.00626944
0.0102449
0.0160395
0.020232
0.0234217
0.0281947
0.033337
0.0357616
0.0376277
0.0426418
0.0643945
0.0694811
0.0287685
0.00374693
0.00131828
0.000969744
0.000989959
0.00103217
0.00105842
0.00104899
0.000984551
0.000897711
0.000777113
0.000679879
0.000577966
0.000463906
0.000407097
0.00030946
0.000253692
0.0002182
0.000171025
0.000148023
0.000134771
0.000129769
0.000131321
0.00013261
0.000134223
0.000134999
0.000135915
0.000136482
0.000136812
0.000137007
0.000137108
0.000136966
0.00013635
0.000135761
0.000135072
0.000133997
0.000132958
0.000131703
0.000130199
0.000128566
0.000126413
0.000124169
0.000121402
0.00011849
0.000115231
0.000111678
0.000107824
0.000103497
9.83432e-05
9.29306e-05
8.75527e-05
8.18328e-05
7.61969e-05
7.05392e-05
6.50066e-05
5.9682e-05
5.49122e-05
5.09196e-05
4.73903e-05
4.40482e-05
4.08163e-05
3.7667e-05
3.45882e-05
3.1562e-05
2.85848e-05
2.56675e-05
2.28294e-05
2.00319e-05
1.71959e-05
1.44108e-05
1.18409e-05
9.5805e-06
7.65772e-06
6.07206e-06
4.78866e-06
3.76343e-06
2.95115e-06
2.31174e-06
1.81161e-06
1.42289e-06
1.12256e-06
8.91621e-07
7.1446e-07
5.78385e-07
4.73317e-07
3.91426e-07
3.26737e-07
2.74769e-07
2.32229e-07
1.96762e-07
1.66722e-07
1.40987e-07
1.18791e-07
9.9602e-08
8.30298e-08
6.87684e-08
5.65609e-08
4.61795e-08
3.74149e-08
3.00726e-08
2.39718e-08
1.89455e-08
1.48406e-08
1.15185e-08
8.85496e-09
6.73982e-09
5.07669e-09
3.78263e-09
2.78651e-09
2.0288e-09
1.45906e-09
1.03628e-09
7.26178e-10
5.02157e-10
3.42007e-10
2.29702e-10
1.51529e-10
9.84829e-11
6.26548e-11
3.91065e-11
2.40241e-11
1.31288e-11
3.54495e-11
1.20813e-08
1.86241e-06
1.56066e-06
0.00223579
0.00469237
0.0055721
0.00631773
0.00708127
0.00751971
0.00775995
0.00748422
0.00663088
0.00601167
0.00578496
0.00538852
0.00496526
0.00459095
0.00418417
0.00391528
0.00374265
0.00363775
0.00357758
0.00353502
0.00352164
0.00352052
0.00352426
0.00352777
0.00351975
0.00348653
0.00342581
0.00332813
0.00326112
0.00312938
0.00293089
0.00264002
0.00227859
0.00207459
0.00163406
0.00149736
0.0015124
0.00164819
0.00193665
0.00190484
0.00164746
0.00136465
0.00128034
0.00130794
0.00162589
0.00277994
0.00336475
0.00372278
0.00461906
0.00837471
0.0308508
0.044009
0.0348064
0.0180336
0.0053798
0.00141809
0.00078782
0.000622667
0.000560722
0.000494257
0.000438539
0.000388456
0.000341515
0.000307976
0.000277968
0.00025788
0.000243871
0.000232188
0.000226695
0.000221246
0.00021904
0.000217897
0.000217287
0.000217103
0.000217033
0.000216903
0.000216948
0.000217043
0.000217134
0.000217421
0.000217753
0.000218013
0.000218298
0.000218485
0.000218585
0.000218563
0.000218301
0.000217824
0.000217275
0.000216404
0.000215467
0.000214151
0.000212566
0.000210732
0.00020871
0.000206566
0.000204292
0.000201848
0.000199497
0.000197178
0.000195039
0.000193252
0.000190666
0.000187045
0.00018303
0.000178239
0.000172825
0.0001668
0.00016007
0.000152386
0.000143526
0.000133872
0.000124747
0.000116874
0.000109467
0.000102268
9.53116e-05
8.85507e-05
8.19136e-05
7.53819e-05
6.90102e-05
6.2982e-05
5.75266e-05
5.26106e-05
4.80327e-05
4.36292e-05
3.93152e-05
3.50755e-05
3.09528e-05
2.69908e-05
2.32402e-05
1.97627e-05
1.66178e-05
1.38439e-05
1.14527e-05
9.43272e-06
7.75528e-06
6.3819e-06
5.27055e-06
4.37959e-06
3.66956e-06
3.10405e-06
2.65045e-06
2.28097e-06
1.97345e-06
1.71152e-06
1.48395e-06
1.28352e-06
1.10571e-06
9.47631e-07
8.0729e-07
6.83162e-07
5.73956e-07
4.78504e-07
3.95691e-07
3.24431e-07
2.63648e-07
2.12283e-07
1.69283e-07
1.33645e-07
1.04411e-07
8.06855e-08
6.1635e-08
4.65225e-08
3.46758e-08
2.55173e-08
1.85229e-08
1.32649e-08
9.35708e-09
6.50539e-09
4.44787e-09
2.99189e-09
1.97345e-09
1.28446e-09
7.98581e-10
5.22568e-10
2.61125e-10
1.00903e-09
2.50585e-07
3.0228e-07
0.000902766
0.00219504
0.00327168
0.00372159
0.00470852
0.00737617
0.00831302
0.00809228
0.00734894
0.00561826
0.00409198
0.00351533
0.00331889
0.00325319
0.003227
0.00323059
0.00322748
0.00321755
0.00321741
0.00321495
0.00320649
0.00318754
0.00314956
0.003086
0.00304064
0.00301101
0.00300164
0.00300302
0.00300321
0.00298657
0.00292085
0.00273918
0.00239445
0.00220183
0.00193022
0.00162025
0.00144292
0.00142189
0.00144713
0.00155404
0.00155089
0.0014606
0.00122153
0.00117332
0.00124847
0.00159523
0.00247784
0.00493027
0.0155049
0.0214439
0.0253461
0.0164498
0.00637933
0.00258996
0.000924698
0.000485676
0.000378789
0.000335854
0.000307602
0.000286297
0.000267724
0.000257556
0.000246843
0.00023996
0.000235138
0.000230177
0.000227682
0.000224818
0.000223385
0.000221583
0.000220746
0.000220282
0.000220108
0.000220179
0.000221099
0.000222592
0.000224384
0.000226829
0.000229565
0.000232514
0.000235429
0.000237995
0.000240376
0.000242319
0.000243803
0.000244849
0.000245391
0.000245637
0.000245688
0.000244982
0.000243796
0.000241802
0.000239185
0.000236011
0.000232327
0.000228475
0.000224679
0.000220476
0.000216662
0.000213012
0.000209434
0.000206347
0.000204572
0.000203273
0.000202195
0.000200577
0.000198201
0.000194934
0.000190859
0.000186525
0.000181898
0.000176107
0.000167876
0.00015768
0.000147769
0.000138382
0.000129228
0.000120264
0.000111456
0.000102443
9.26929e-05
8.26568e-05
7.33756e-05
6.58889e-05
6.04229e-05
5.64164e-05
5.33119e-05
5.07124e-05
4.83006e-05
4.57805e-05
4.28763e-05
3.94873e-05
3.57078e-05
3.17277e-05
2.7732e-05
2.38573e-05
2.0199e-05
1.68326e-05
1.38235e-05
1.122e-05
9.04144e-06
7.27425e-06
5.87736e-06
4.79337e-06
3.96023e-06
3.31999e-06
2.82348e-06
2.43181e-06
2.1157e-06
1.85387e-06
1.63128e-06
1.43749e-06
1.26539e-06
1.11036e-06
9.69621e-07
8.41588e-07
7.25255e-07
6.19843e-07
5.24922e-07
4.40202e-07
3.65326e-07
2.99886e-07
2.43328e-07
1.95074e-07
1.54413e-07
1.20637e-07
9.29438e-08
7.05812e-08
5.27927e-08
3.88553e-08
2.81556e-08
2.00055e-08
1.40021e-08
9.53838e-09
6.43532e-09
4.12478e-09
2.72388e-09
1.45896e-09
7.93318e-09
2.25622e-08
0.000989905
0.00169132
0.00205329
0.00363521
0.00847769
0.0093774
0.00880231
0.00737886
0.0047172
0.00345903
0.00302423
0.00295871
0.00296238
0.00300085
0.00304932
0.00316332
0.00324288
0.00332982
0.0034548
0.003548
0.00361874
0.0036415
0.00363281
0.00360484
0.0035434
0.00346601
0.00341216
0.00335197
0.00327102
0.00320147
0.0031022
0.00292673
0.00259518
0.00231856
0.00206131
0.00175947
0.00150906
0.00141465
0.00138089
0.00136038
0.00132779
0.00117799
0.00110286
0.00121604
0.00187214
0.00395005
0.0107301
0.014296
0.0158759
0.0142516
0.00715891
0.00330419
0.00132334
0.000617187
0.00038111
0.000322264
0.000305652
0.000298891
0.000292915
0.00028685
0.000280954
0.00027749
0.000273273
0.000269728
0.000267437
0.000264182
0.000262769
0.000261033
0.000260189
0.00025986
0.000259862
0.000260194
0.00026128
0.00026333
0.000266462
0.000270702
0.000276077
0.000281693
0.000288062
0.000294491
0.000300234
0.000304784
0.000308283
0.0003107
0.000311865
0.000312496
0.00031279
0.000312758
0.000312406
0.000311619
0.000308319
0.000302675
0.000295691
0.000286737
0.000275913
0.000264803
0.000254668
0.000243448
0.000233421
0.000224157
0.000216048
0.000209218
0.000204938
0.000203519
0.000203074
0.000203016
0.000202652
0.000201521
0.000199518
0.000196296
0.000192686
0.000189782
0.000186965
0.000182055
0.000173464
0.000162111
0.000150531
0.000140515
0.000131766
0.000124321
0.000118017
0.000111747
0.0001042
9.52846e-05
8.63039e-05
7.85668e-05
7.23102e-05
6.73269e-05
6.32482e-05
5.98129e-05
5.6785e-05
5.37992e-05
5.0572e-05
4.70821e-05
4.33783e-05
3.93855e-05
3.49618e-05
3.01125e-05
2.5116e-05
2.03716e-05
1.61684e-05
1.26524e-05
9.83254e-06
7.63068e-06
5.93715e-06
4.64642e-06
3.67122e-06
2.94206e-06
2.4011e-06
1.99878e-06
1.69484e-06
1.45938e-06
1.2714e-06
1.11671e-06
9.85729e-07
8.71752e-07
7.70158e-07
6.78116e-07
5.93865e-07
5.16295e-07
4.44793e-07
3.793e-07
3.19905e-07
2.66705e-07
2.19675e-07
1.78684e-07
1.43465e-07
1.13637e-07
8.87713e-08
6.83291e-08
5.18488e-08
3.8663e-08
2.84746e-08
2.04177e-08
1.4664e-08
9.90427e-09
7.06107e-09
4.37783e-09
2.97153e-09
2.85325e-09
0.00419109
0.00440979
0.0104506
0.0152061
0.0135478
0.00999581
0.00587732
0.0035579
0.00286574
0.00281633
0.0028544
0.00298218
0.00313327
0.00341422
0.00359123
0.00386792
0.00408262
0.00440987
0.00463517
0.00485722
0.00499528
0.00498118
0.004915
0.00476916
0.00455349
0.00431537
0.00413771
0.0039885
0.00384566
0.00374563
0.00364433
0.00348347
0.00308848
0.00262544
0.00227499
0.0019539
0.00167006
0.00147661
0.0013858
0.00133945
0.00122434
0.00114048
0.00125417
0.00216579
0.0067231
0.0105539
0.0117097
0.0122175
0.00889523
0.00402492
0.00182379
0.000863575
0.000472518
0.000347861
0.000313635
0.00030532
0.000302169
0.000298858
0.000295679
0.000293157
0.000289564
0.000287703
0.000285557
0.000284258
0.000283229
0.000282809
0.00028303
0.000284915
0.00028801
0.000290867
0.000294136
0.0002986
0.000304421
0.000311668
0.000320172
0.000330251
0.000341575
0.000353242
0.000364625
0.000372288
0.000374653
0.000375036
0.000374561
0.000374548
0.000375435
0.000377539
0.000381207
0.000386436
0.000393584
0.000398236
0.000399104
0.000394184
0.000385702
0.000369463
0.000346558
0.000323373
0.000302619
0.000280009
0.000260625
0.00024322
0.000227481
0.000213526
0.000201577
0.000194747
0.000192115
0.000193975
0.000197306
0.000200002
0.000200695
0.000199428
0.000196334
0.000192768
0.000190489
0.0001897
0.000188868
0.000186256
0.000177285
0.000160644
0.000143769
0.000131251
0.000122648
0.000116581
0.00011173
0.000106474
9.93705e-05
9.06625e-05
8.22202e-05
7.54196e-05
7.02022e-05
6.62081e-05
6.32477e-05
6.11921e-05
5.96646e-05
5.80544e-05
5.60026e-05
5.36493e-05
5.125e-05
4.87463e-05
4.57422e-05
4.18727e-05
3.71177e-05
3.17677e-05
2.62675e-05
2.10123e-05
1.62429e-05
1.20843e-05
8.63819e-06
6.00849e-06
4.22095e-06
3.11654e-06
2.43031e-06
1.95926e-06
1.60256e-06
1.3209e-06
1.09742e-06
9.20946e-07
7.81395e-07
6.69558e-07
5.77662e-07
4.99933e-07
4.32503e-07
3.72574e-07
3.18256e-07
2.69014e-07
2.24791e-07
1.8558e-07
1.5133e-07
1.21877e-07
9.69266e-08
7.60589e-08
5.88684e-08
4.48927e-08
3.37327e-08
2.49214e-08
1.81477e-08
1.29307e-08
9.10448e-09
6.23577e-09
4.20126e-09
2.81124e-09
0.00616646
0.0134217
0.0111196
0.00561355
0.00314209
0.0023297
0.00234163
0.00241995
0.00265151
0.00305109
0.0034131
0.00366514
0.00385306
0.00414822
0.00440833
0.00497225
0.00548333
0.00646832
0.00704409
0.00778963
0.00810092
0.00802783
0.00777732
0.00724206
0.00658951
0.00590811
0.00533003
0.00488265
0.00455714
0.00433713
0.00419228
0.00406882
0.0038309
0.00337483
0.0028716
0.00254829
0.00216402
0.00175436
0.00163907
0.00146054
0.0012548
0.00130218
0.00251344
0.00714237
0.00919808
0.00999706
0.00923836
0.0052808
0.0027339
0.00124061
0.00063667
0.000412591
0.000337002
0.000315865
0.000310234
0.000308071
0.000307337
0.000306943
0.000306922
0.000306307
0.000305151
0.000304716
0.000304614
0.000306846
0.000312088
0.000318591
0.000324827
0.000329717
0.000334852
0.00034061
0.000347274
0.000355292
0.000365599
0.00037789
0.000392058
0.00040784
0.000424077
0.00043291
0.000435865
0.000436463
0.000432835
0.000419091
0.000407823
0.000405864
0.000406177
0.000409375
0.000418596
0.000438113
0.000472414
0.000506497
0.000516738
0.000519735
0.000517618
0.000498231
0.00046464
0.000427247
0.00038789
0.000341441
0.000297384
0.000264019
0.000237946
0.000217566
0.000200958
0.00018558
0.000173307
0.000167801
0.000170353
0.000179337
0.000188734
0.000194817
0.000196182
0.000193977
0.000189847
0.000188582
0.000189197
0.000190546
0.000190535
0.000188116
0.000177147
0.000152627
0.000131445
0.000118591
0.000111483
0.000107345
0.000103813
9.90874e-05
9.27062e-05
8.50705e-05
7.77284e-05
7.16667e-05
6.68592e-05
6.3233e-05
6.07802e-05
5.93322e-05
5.83178e-05
5.69453e-05
5.48516e-05
5.23529e-05
5.00021e-05
4.798e-05
4.59108e-05
4.31911e-05
3.9445e-05
3.4732e-05
2.94494e-05
2.41021e-05
1.91245e-05
1.48099e-05
1.12807e-05
8.51675e-06
6.40962e-06
4.80767e-06
3.57603e-06
2.63434e-06
1.93056e-06
1.41803e-06
1.05319e-06
7.97782e-07
6.20221e-07
4.95894e-07
4.06636e-07
3.40081e-07
2.88531e-07
2.46483e-07
2.10177e-07
1.77388e-07
1.47622e-07
1.20987e-07
9.76151e-08
7.75205e-08
6.06041e-08
4.66399e-08
3.53321e-08
2.63437e-08
1.93208e-08
1.39329e-08
9.88283e-09
6.87603e-09
4.71297e-09
3.1353e-09
0.0061591
0.00442137
0.00203356
0.00150435
0.00161017
0.00191029
0.00234894
0.00298501
0.00349459
0.00366737
0.00375322
0.00392243
0.00418772
0.00473951
0.00567602
0.00743916
0.00939085
0.01184
0.013288
0.0150064
0.0153033
0.01502
0.0142085
0.0125477
0.010751
0.00896504
0.00741896
0.00640419
0.0056418
0.00506642
0.00478809
0.0046374
0.00433308
0.00370834
0.00321995
0.00283492
0.00248859
0.00229835
0.00195318
0.00149426
0.00142371
0.00235914
0.00635539
0.00805364
0.00852318
0.0070352
0.00366788
0.00186032
0.000963828
0.000542143
0.000385431
0.000334851
0.000320659
0.000317749
0.000319451
0.000322574
0.000324069
0.000325134
0.000325935
0.000327121
0.000328378
0.000332192
0.000339862
0.000350098
0.000359131
0.000366958
0.000375769
0.000384197
0.000391903
0.000400749
0.000412417
0.000427181
0.000445616
0.000466949
0.000489184
0.000511543
0.000527355
0.000534869
0.00053786
0.000536772
0.000522715
0.000496801
0.000472178
0.000464423
0.000461939
0.000462874
0.000473501
0.00050085
0.000551558
0.000577557
0.00058149
0.000580232
0.000572304
0.000555177
0.000530159
0.00050282
0.000474151
0.000440644
0.000396931
0.000338806
0.000280989
0.000235066
0.000205467
0.000184682
0.000168171
0.000153995
0.00014447
0.000142668
0.000149544
0.000165348
0.000180093
0.000187352
0.000187823
0.000183563
0.000181158
0.000182265
0.000187323
0.00018975
0.000189035
0.000182978
0.000161972
0.000132786
0.000113971
0.000104342
0.000100091
9.8117e-05
9.54024e-05
9.10648e-05
8.52411e-05
7.8601e-05
7.23898e-05
6.71725e-05
6.30111e-05
6.0017e-05
5.82299e-05
5.73469e-05
5.66059e-05
5.51503e-05
5.27268e-05
4.98476e-05
4.72991e-05
4.5429e-05
4.38787e-05
4.193e-05
3.90325e-05
3.50873e-05
3.03946e-05
2.54296e-05
2.06387e-05
1.63362e-05
1.26832e-05
9.70729e-06
7.33422e-06
5.44496e-06
3.95223e-06
2.80495e-06
1.95438e-06
1.34625e-06
9.25947e-07
6.44015e-07
4.59193e-07
3.39308e-07
2.607e-07
2.07395e-07
1.69608e-07
1.41675e-07
1.19518e-07
1.00421e-07
8.32408e-08
6.78675e-08
5.43594e-08
4.27499e-08
3.30039e-08
2.50155e-08
1.86171e-08
1.36009e-08
9.75159e-09
6.85953e-09
4.73524e-09
3.209e-09
0.00157585
0.00125898
0.00111431
0.00130585
0.00185334
0.0026405
0.00332017
0.00363573
0.00371315
0.00374325
0.00385937
0.00423344
0.00516341
0.00708184
0.0100836
0.0137137
0.0166801
0.0189373
0.0203279
0.0214655
0.0219348
0.0218379
0.0213339
0.0199518
0.0169955
0.013651
0.0105375
0.00823633
0.00676704
0.00574799
0.00515154
0.00485366
0.00462788
0.00416888
0.00363794
0.0031476
0.00280674
0.00244088
0.00187447
0.00156536
0.00210124
0.00546845
0.00714332
0.0075155
0.0059631
0.00298879
0.00149395
0.0007951
0.000494503
0.000374837
0.000334671
0.000323733
0.000321689
0.000323868
0.000330036
0.000334246
0.000337626
0.000341733
0.000348645
0.000358516
0.00037022
0.000384733
0.000401142
0.00041542
0.000429764
0.000446874
0.00046479
0.000484021
0.000503351
0.000523599
0.000550407
0.000586061
0.000628663
0.000672769
0.000715575
0.000759351
0.000793308
0.000808165
0.000811695
0.000786561
0.00077565
0.00073861
0.000673869
0.000643515
0.000604206
0.000586069
0.000577415
0.000575213
0.000586185
0.000585334
0.000582464
0.000572701
0.000550079
0.000518
0.000490441
0.000473019
0.000459697
0.000445044
0.00042486
0.000390865
0.000343625
0.000289652
0.000238474
0.000200565
0.000173944
0.000153803
0.000139254
0.000129281
0.00012531
0.000127067
0.000137198
0.000157165
0.00017189
0.00017648
0.000174417
0.000170153
0.000170185
0.00017544
0.000182168
0.000183235
0.000179611
0.000163367
0.000133147
0.000109985
9.74587e-05
9.16421e-05
8.98291e-05
8.92859e-05
8.79723e-05
8.39983e-05
7.80748e-05
7.21148e-05
6.67747e-05
6.2409e-05
5.91378e-05
5.69808e-05
5.57816e-05
5.51596e-05
5.45139e-05
5.31446e-05
5.02661e-05
4.70332e-05
4.43485e-05
4.2557e-05
4.13347e-05
3.99473e-05
3.77547e-05
3.4537e-05
3.04809e-05
2.59844e-05
2.14656e-05
1.7252e-05
1.35426e-05
1.0406e-05
7.81141e-06
5.70074e-06
4.03477e-06
2.77244e-06
1.85581e-06
1.21685e-06
7.88189e-07
5.10526e-07
3.36054e-07
2.28829e-07
1.6338e-07
1.22627e-07
9.61336e-08
7.80377e-08
6.48145e-08
5.40357e-08
4.45224e-08
3.6036e-08
2.85887e-08
2.22078e-08
1.68874e-08
1.2574e-08
9.16886e-09
6.55239e-09
4.58104e-09
3.14572e-09
0.000564422
0.000866921
0.00104668
0.00174348
0.00269525
0.00329854
0.00362283
0.00372388
0.00368288
0.00374607
0.00414497
0.00529916
0.00744301
0.010458
0.0139425
0.0170268
0.0192174
0.0208854
0.0219735
0.0228484
0.0233682
0.023465
0.0232958
0.0224109
0.0199492
0.0164003
0.0125767
0.00972709
0.0080583
0.00687966
0.00594513
0.00540311
0.00490386
0.00427253
0.00364999
0.00315275
0.00281288
0.00229899
0.00177144
0.00197468
0.00462179
0.00641103
0.00678592
0.00550482
0.00271825
0.00135283
0.000730743
0.000469328
0.000369825
0.000335493
0.000325868
0.000324245
0.000329131
0.000340084
0.000350037
0.000360132
0.000371327
0.000386142
0.000408668
0.000438171
0.000469075
0.00049712
0.000519218
0.000539616
0.000562008
0.000593764
0.000636918
0.000689705
0.00074927
0.000818379
0.000900831
0.00100512
0.00112769
0.00124485
0.00134177
0.00144224
0.00152193
0.00155406
0.00154866
0.00144694
0.00140263
0.00129322
0.00113235
0.00104117
0.000915342
0.000814051
0.000738016
0.000679443
0.000628013
0.000578102
0.000536324
0.000482229
0.000412232
0.000346425
0.000298403
0.000271394
0.000260844
0.000275637
0.000309418
0.00034031
0.000337804
0.000301377
0.000256557
0.000217893
0.0001909
0.000170603
0.000148804
0.00012939
0.000118879
0.000114093
0.000114492
0.000119596
0.000133286
0.000151108
0.000160524
0.000161186
0.000157077
0.000154956
0.000157053
0.000165454
0.00016926
0.000167926
0.000156475
0.00012966
0.000105919
9.19219e-05
8.50056e-05
8.22952e-05
8.18284e-05
8.16277e-05
8.07088e-05
7.71567e-05
7.12406e-05
6.57683e-05
6.12146e-05
5.77881e-05
5.54989e-05
5.41827e-05
5.35212e-05
5.30647e-05
5.22999e-05
5.04498e-05
4.70973e-05
4.38318e-05
4.13235e-05
3.97471e-05
3.88142e-05
3.78779e-05
3.62714e-05
3.36521e-05
3.009e-05
2.59129e-05
2.15383e-05
1.73365e-05
1.35511e-05
1.02893e-05
7.56806e-06
5.37817e-06
3.69259e-06
2.45406e-06
1.58349e-06
9.96387e-07
6.15449e-07
3.77003e-07
2.32557e-07
1.47428e-07
9.80966e-08
6.93604e-08
5.2019e-08
4.09985e-08
3.34912e-08
2.76731e-08
2.26395e-08
1.8173e-08
1.42608e-08
1.09276e-08
8.16864e-09
5.96688e-09
4.24684e-09
2.97344e-09
0.000543787
0.00101536
0.00131935
0.0023816
0.00315542
0.00350771
0.00368082
0.00362312
0.00356147
0.00384572
0.00470398
0.00610649
0.00829789
0.0114001
0.0147624
0.0175035
0.0194098
0.0208212
0.0216851
0.0224534
0.022901
0.0230974
0.0226771
0.0208721
0.0181299
0.0148529
0.0115737
0.00925195
0.00787662
0.00681764
0.00597432
0.00540111
0.00482499
0.00416422
0.00355044
0.00308581
0.0026197
0.00197784
0.00197089
0.0039449
0.00580738
0.00622228
0.0054266
0.00266658
0.0013164
0.000716411
0.000463869
0.000366563
0.000333579
0.000324375
0.000322833
0.000325989
0.000334772
0.00034593
0.000360496
0.000376473
0.000392899
0.000417615
0.000452647
0.000498215
0.000548009
0.000597489
0.000647528
0.000703072
0.000769334
0.000854214
0.000966055
0.00110931
0.00128278
0.00149422
0.00173468
0.00199879
0.00229468
0.00262597
0.00289294
0.00313677
0.00332489
0.00341429
0.00339312
0.00310896
0.00287233
0.00250036
0.00209637
0.00175064
0.0014346
0.00118363
0.00096298
0.000792456
0.000674568
0.000587399
0.000510295
0.000428917
0.000355613
0.00029388
0.000242975
0.000201885
0.000169954
0.000147279
0.000136809
0.000144074
0.00017677
0.000209108
0.00021469
0.000199925
0.000184027
0.000175722
0.000166881
0.000151271
0.000127054
0.000111829
0.000106543
0.000106332
0.000109702
0.000116151
0.000129317
0.000141477
0.000145026
0.000142927
0.000137788
0.000137029
0.000141235
0.000148359
0.000149342
0.00014385
0.000123655
0.000101483
8.71727e-05
7.98294e-05
7.66132e-05
7.57422e-05
7.56572e-05
7.54724e-05
7.4408e-05
7.0367e-05
6.44855e-05
5.96478e-05
5.60695e-05
5.37246e-05
5.23986e-05
5.17562e-05
5.13844e-05
5.08513e-05
4.96659e-05
4.67806e-05
4.34166e-05
4.05869e-05
3.84656e-05
3.70495e-05
3.62282e-05
3.56513e-05
3.47029e-05
3.25764e-05
2.91533e-05
2.49871e-05
2.05518e-05
1.62996e-05
1.249e-05
9.24134e-06
6.5913e-06
4.53137e-06
3.00729e-06
1.93102e-06
1.20289e-06
7.29402e-07
4.32696e-07
2.53182e-07
1.48124e-07
8.84687e-08
5.53616e-08
3.70835e-08
2.67258e-08
2.05572e-08
1.65825e-08
1.35985e-08
1.10396e-08
8.77685e-09
6.79544e-09
5.12822e-09
3.7506e-09
2.69657e-09
0.000595992
0.001241
0.00162173
0.00294842
0.00331194
0.00352417
0.00349195
0.00342984
0.00357176
0.00399519
0.00483454
0.00603086
0.00760127
0.00948208
0.0112758
0.0129046
0.0144833
0.0157754
0.0167772
0.0175232
0.0178836
0.0180022
0.0174245
0.0158251
0.0139105
0.011552
0.00952701
0.00816736
0.00728644
0.00646012
0.00575687
0.00517276
0.00452813
0.00387165
0.00329279
0.00273269
0.00213927
0.00207595
0.00350483
0.00530661
0.0057535
0.00540242
0.00280731
0.00136206
0.000734587
0.000472567
0.00036992
0.000333995
0.000323549
0.000321509
0.000322445
0.000327825
0.000338188
0.00035129
0.0003702
0.000394539
0.000433164
0.000484266
0.000553306
0.000638504
0.00073761
0.000841963
0.000950576
0.00107413
0.00122537
0.00143366
0.00172296
0.0020768
0.00247503
0.00290029
0.00335948
0.00391074
0.00470202
0.00553223
0.00636501
0.00720246
0.00786005
0.00814663
0.00802313
0.00745525
0.00659411
0.00552055
0.00450685
0.00347639
0.00268768
0.00202714
0.00152624
0.00113442
0.000859335
0.000679085
0.000550042
0.000453837
0.000380068
0.000320811
0.000269517
0.000222764
0.000181195
0.00014672
0.000120204
0.000102144
9.14409e-05
8.72614e-05
8.99773e-05
9.53171e-05
0.000105417
0.000127971
0.000155802
0.000162231
0.000155577
0.00013005
0.00010791
0.000101055
0.000100601
0.00010307
0.000105775
0.000111341
0.000122097
0.000127996
0.000127788
0.000122366
0.000118296
0.000118923
0.000125478
0.000129318
0.000127818
0.000116063
9.66834e-05
8.31322e-05
7.58038e-05
7.23648e-05
7.11444e-05
7.09258e-05
7.08063e-05
7.03546e-05
6.84089e-05
6.3082e-05
5.79646e-05
5.42121e-05
5.17681e-05
5.03984e-05
4.97555e-05
4.94416e-05
4.90623e-05
4.82665e-05
4.61436e-05
4.27199e-05
3.96581e-05
3.73177e-05
3.57019e-05
3.46956e-05
3.40931e-05
3.36029e-05
3.2763e-05
3.08266e-05
2.72323e-05
2.28541e-05
1.83375e-05
1.41424e-05
1.0499e-05
7.50022e-06
5.15719e-06
3.41865e-06
2.18945e-06
1.3577e-06
8.16984e-07
4.78277e-07
2.73424e-07
1.53653e-07
8.59059e-08
4.87817e-08
2.89768e-08
1.85404e-08
1.29409e-08
9.79541e-09
7.84784e-09
6.40203e-09
5.15267e-09
4.05774e-09
3.08183e-09
2.30545e-09
0.000660794
0.00142053
0.00214402
0.0031178
0.00331627
0.00334407
0.00333742
0.0033885