/*--------------------------------*- C++ -*----------------------------------*\
  =========                 |
  \\      /  F ield         | OpenFOAM: The Open Source CFD Toolbox
   \\    /   O peration     | Website:  https://openfoam.org
    \\  /    A nd           | Version:  7
     \\/     M anipulation  |
\*---------------------------------------------------------------------------*/
FoamFile
{
    version     2.0;
    format      ascii;
    class       volScalarField;
    location    "0.068";
    object      nut;
}
// * * * * * * * * * * * * * * * * * * * * * * * * * * * * * * * * * * * * * //

dimensions      [0 2 -1 0 0 0 0];

internalField   nonuniform List<scalar> 
12225
(
0
0
0
0
0
0
0
2.4887e-11
1.37925e-10
0
0
0
0
0
0
7.97941e-11
8.558e-10
0
0
0
0
0
0
0
0
1.69718e-10
2.59084e-10
0
0
0
0
0
0
4.24425e-11
8.70431e-10
0
0
5.71447e-10
0
0
0
1.08144e-12
2.11298e-10
2.57339e-10
1.57747e-10
0
0
0
0
0
0
0
3.13282e-10
0
0
2.84255e-08
1.21653e-08
1.6243e-09
1.95044e-10
0
0
0
0
0
0
0
0
0
0
0
0
0
0
2.24627e-07
1.05452e-07
0
0
0
0
0
0
0
0
1.59467e-10
5.60641e-10
0
0
0
0
0
0
1.92966e-07
2.18685e-07
3.57717e-08
0
2.68575e-08
1.33849e-07
1.91303e-07
9.08727e-08
5.21448e-08
2.77806e-08
7.61881e-09
0
0
0
0
0
0
0
6.26303e-07
7.11523e-07
7.17391e-07
3.89197e-07
4.01124e-07
4.076e-07
1.31965e-07
1.26792e-08
0
0
0
0
0
0
0
0
0
4.61508e-07
9.02296e-07
8.01133e-07
5.99056e-07
4.4735e-07
1.74583e-07
2.93896e-08
0
0
0
0
0
0
0
0
0
0
0
3.55642e-07
8.74011e-07
7.87494e-07
4.45827e-07
2.31326e-07
0
0
0
0
0
0
0
9.92014e-09
8.26437e-10
0
0
0
0
1.72345e-08
8.07138e-07
6.25739e-07
8.39963e-08
9.07905e-08
0
0
0
0
0
0
0
0
0
0
0
0
0
0
3.13409e-07
2.41417e-07
4.0377e-08
9.98315e-08
0
0
0
0
0
0
0
0
0
0
0
0
0
0
0
4.36668e-08
3.70943e-07
3.45534e-07
1.7297e-07
0
0
0
0
0
0
0
0
0
0
0
0
0
0
3.02707e-07
6.55777e-07
9.12992e-07
1.12618e-06
1.94621e-06
1.83284e-06
0
0
0
0
0
0
0
0
0
0
2.2685e-07
0
2.27935e-08
2.7676e-07
5.18053e-07
1.09935e-06
1.47788e-06
1.75912e-06
1.1222e-06
0
0
0
0
0
0
0
0
0
2.7694e-07
6.94706e-08
0
4.1632e-08
2.1958e-08
3.44559e-07
9.92147e-07
1.21795e-06
5.6308e-07
0
0
0
0
0
0
0
0
0
0
0
7.34544e-08
1.54804e-07
1.55635e-07
1.67472e-07
0
0
0
0
0
0
0
0
0
0
0
0
5.28737e-07
1.49776e-07
0
0
4.40999e-08
1.52654e-08
0
0
0
0
0
0
0
0
0
0
0
0
1.64069e-07
0
0
0
0
0
0
0
0
0
0
0
0
0
0
0
0
0
4.37362e-07
4.78003e-07
8.18229e-08
0
0
0
0
0
0
0
0
0
0
0
0
0
0
0
1.99099e-07
3.70521e-07
0
0
0
0
0
0
0
0
0
0
0
0
0
0
0
0
0
2.54078e-07
0
0
0
0
0
0
0
5.81059e-08
0
0
0
0
0
0
0
0
0
0
0
0
0
0
0
0
0
4.01645e-08
6.16191e-08
0
0
0
0
0
0
0
0
0
0
0
0
0
0
0
0
1.0036e-07
2.62413e-07
2.06375e-07
0
0
0
0
0
0
0
0
0
0
0
0
0
0
0
1.69194e-07
2.63711e-07
2.39323e-07
1.82361e-07
1.00022e-07
0
0
0
0
0
0
0
0
1.37735e-07
2.17368e-07
1.0023e-07
0
0
6.44872e-09
4.14694e-08
3.7331e-08
1.93279e-08
5.00468e-09
0
0
0
0
0
0
0
0
2.27881e-07
2.87257e-07
1.95613e-07
7.81145e-08
0
0
0
0
0
0
0
0
0
0
8.1405e-08
0
0
0
0
0
0
0
0
0
0
0
0
0
0
0
0
0
8.82208e-09
0
0
0
0
0
0
0
0
0
0
0
0
0
0
0
0
0
9.23773e-09
0
0
0
0
0
0
0
0
0
0
0
0
0
0
0
0
0
7.36539e-08
0
0
0
0
0
0
0
0
0
0
0
0
0
0
0
0
0
0
1.091e-06
2.99474e-06
2.28832e-06
0
0
0
0
0
0
1.21051e-06
1.15521e-06
5.13018e-07
0
0
0
0
0
0
0
0
0
0
0
1.39772e-08
5.88175e-08
8.93188e-08
1.03004e-07
9.52422e-08
6.33551e-08
9.58585e-09
0
0
8.12596e-08
1.06054e-07
0
0
0
1.4146e-07
0
0
0
0
1.42445e-07
1.96623e-06
2.17479e-06
2.03054e-06
3.44037e-06
9.79408e-06
1.6777e-05
2.27988e-05
3.0491e-05
4.22484e-05
3.68664e-05
1.41809e-05
2.23061e-06
3.94924e-07
4.40002e-08
0
0
1.29541e-08
3.2578e-08
4.39614e-08
4.83757e-08
4.73233e-08
4.41234e-08
3.90992e-08
3.27984e-08
2.80522e-08
2.1751e-08
1.70433e-08
1.31117e-08
9.07939e-09
5.97786e-09
3.21647e-09
5.90741e-10
0
0
0
0
0
0
0
0
0
0
0
0
0
0
0
0
0
0
0
0
0
0
0
0
0
0
0
0
0
0
0
0
0
0
0
0
0
0
0
0
0
0
0
0
0
0
0
0
0
0
0
0
0
0
0
0
0
0
0
0
0
0
0
0
0
0
0
0
0
0
0
0
0
0
0
0
0
0
0
0
0
0
0
0
0
0
0
0
0
0
0
0
0
0
0
0
0
0
0
0
0
5.4971e-12
5.32658e-10
3.6414e-11
0
0
2.26404e-06
3.07101e-06
0
0
0
0
0
4.7018e-07
1.30709e-06
1.53031e-06
1.26323e-06
7.17698e-07
1.60912e-07
0
0
0
0
0
0
0
0
0
2.79803e-08
8.00483e-08
1.1538e-07
1.29617e-07
1.14846e-07
6.76906e-08
0
0
7.99047e-08
2.85883e-07
1.62013e-07
0
0
1.15479e-07
4.44901e-07
5.71654e-07
3.13053e-07
0
0
0
3.43346e-07
1.26835e-06
1.8113e-06
7.31065e-07
6.67475e-07
4.37484e-07
1.65611e-06
2.51573e-06
2.58134e-06
2.9325e-06
2.0087e-06
8.16053e-07
3.1941e-07
1.08431e-07
3.68694e-08
2.55583e-08
3.21503e-08
3.89124e-08
4.17562e-08
4.18046e-08
3.97165e-08
3.6946e-08
3.38106e-08
3.04064e-08
2.71402e-08
2.36957e-08
2.02868e-08
1.67934e-08
1.3195e-08
9.47359e-09
5.5963e-09
1.54174e-09
0
0
0
0
0
0
0
0
0
0
0
0
0
0
0
0
0
0
0
0
0
0
0
0
0
0
0
0
0
0
0
0
0
0
0
0
0
0
0
0
0
0
0
0
0
0
0
0
0
0
0
0
0
0
0
0
0
0
0
0
0
0
0
0
0
0
0
0
0
0
0
0
0
0
0
0
0
0
0
0
0
0
0
0
0
0
0
0
0
0
0
0
0
0
0
0
0
0
0
0
0
1.14527e-12
2.87765e-10
0
1.20601e-08
2.72748e-07
5.79293e-07
0
0
0
0
0
0
0
7.79992e-07
1.12363e-06
1.23328e-06
1.17462e-06
9.56281e-07
5.98437e-07
1.60793e-07
0
0
0
0
0
0
0
1.59915e-07
2.84995e-07
3.48774e-07
3.33081e-07
2.34021e-07
9.04992e-08
0
0
1.23482e-07
4.9654e-07
3.96329e-07
1.63003e-07
3.98012e-07
7.94255e-07
1.07064e-06
1.31314e-06
1.6823e-06
1.34046e-06
0
0
0
0
0
0
0
0
0
2.78237e-07
2.17054e-07
3.17299e-07
3.92779e-07
2.65223e-07
1.52605e-07
1.13742e-07
1.19304e-07
1.39915e-07
1.57374e-07
1.66075e-07
1.63642e-07
1.54868e-07
1.42526e-07
1.28353e-07
1.14439e-07
1.00663e-07
8.77074e-08
7.52278e-08
6.34211e-08
5.20776e-08
4.10709e-08
3.02508e-08
1.94669e-08
8.48748e-09
0
0
0
0
0
0
0
0
0
0
0
0
0
0
0
0
0
0
0
0
0
0
0
0
0
0
0
0
0
0
0
0
0
0
0
0
0
0
0
0
0
0
0
0
0
0
0
0
1.19198e-10
8.81291e-10
1.25775e-09
1.3141e-09
1.18257e-09
9.6875e-10
6.84458e-10
3.30156e-10
0
0
0
0
0
0
0
0
0
0
0
0
0
0
0
0
0
0
0
0
0
0
0
0
0
0
0
0
0
0
0
0
0
0
0
0
0
0
0
0
0
0
0
0
0
0
7.86912e-11
0
4.91607e-07
1.66286e-06
1.16929e-06
9.59398e-07
9.2472e-07
3.37363e-07
0
0
0
0
4.63744e-07
6.61003e-07
5.8445e-07
3.26305e-07
0
0
0
0
0
0
0
0
0
0
8.17515e-06
6.82288e-06
4.61392e-06
2.96597e-06
1.77589e-06
9.21742e-07
3.49518e-07
2.13193e-10
0
5.29387e-08
1.67001e-07
2.81327e-07
6.13063e-07
8.80055e-07
9.47018e-07
8.28342e-07
5.28112e-07
0
0
0
0
0
0
0
0
0
2.64609e-08
1.31595e-07
1.87212e-09
0
6.07489e-08
5.59873e-08
7.94124e-08
1.5932e-07
2.58755e-07
3.31002e-07
3.56341e-07
3.45741e-07
3.15816e-07
2.81283e-07
2.49289e-07
2.21247e-07
1.98588e-07
1.7963e-07
1.63676e-07
1.49163e-07
1.34457e-07
1.17797e-07
9.74275e-08
7.19296e-08
4.11429e-08
7.15206e-09
0
0
0
0
0
0
0
0
0
0
0
0
0
0
0
0
0
0
0
0
0
0
0
0
0
0
0
0
0
0
0
0
0
0
0
0
0
0
0
0
0
0
0
0
0
0
0
0
0
0
0
1.02581e-08
1.62057e-08
1.70419e-08
1.53278e-08
1.25644e-08
9.52377e-09
6.68504e-09
4.28726e-09
2.34096e-09
7.83637e-10
0
0
0
0
0
0
0
0
0
0
0
0
0
0
0
0
0
0
0
0
0
0
0
0
0
0
0
0
0
0
0
0
0
0
0
0
0
0
0
0
0
6.11523e-11
0
2.5157e-06
1.56035e-06
2.11238e-06
2.41723e-06
2.15459e-06
1.67872e-06
1.08021e-06
5.99026e-07
1.92859e-07
0
0
0
0
0
0
0
0
0
0
0
0
0
0
0
1.13128e-05
1.01097e-05
8.41057e-06
6.86294e-06
5.22917e-06
3.5851e-06
2.11078e-06
9.12851e-07
5.48227e-08
0
0
0
0
0
0
0
0
0
0
0
0
0
0
0
1.90682e-07
1.95694e-07
7.59897e-08
3.124e-08
0
0
1.47508e-07
2.65062e-07
3.08172e-07
2.85775e-07
2.35804e-07
1.84294e-07
1.41095e-07
1.08748e-07
8.54218e-08
6.94209e-08
5.89852e-08
5.27816e-08
4.96675e-08
4.86644e-08
4.86461e-08
4.83436e-08
4.66024e-08
4.21369e-08
3.34456e-08
1.91911e-08
0
0
0
0
0
0
0
0
0
0
0
0
0
0
0
0
0
0
1.73202e-09
4.63349e-09
3.50055e-09
0
0
0
0
0
0
0
0
0
0
0
0
0
0
0
0
0
0
0
0
0
0
0
0
0
0
0
0
0
0
0
0
0
0
0
0
0
0
3.10351e-09
1.02785e-08
8.92998e-09
1.74569e-09
0
0
0
0
0
0
4.38525e-09
7.81329e-09
8.77097e-09
7.82014e-09
6.19722e-09
4.73898e-09
3.65308e-09
2.83455e-09
2.13879e-09
1.48631e-09
9.06843e-10
4.28329e-10
2.72063e-11
0
0
0
0
0
0
0
0
0
0
0
0
0
0
0
0
0
0
0
0
0
0
1.03609e-10
0
1.0887e-06
1.11888e-06
1.33824e-06
1.17253e-06
9.86535e-07
8.66455e-07
7.56686e-07
3.89187e-07
0
0
0
0
0
0
0
0
0
0
0
0
0
0
0
1.02706e-05
8.5095e-06
6.3501e-06
5.10765e-06
4.53101e-06
4.32234e-06
3.96233e-06
3.02042e-06
1.74519e-06
6.10031e-07
0
0
0
0
0
0
0
0
0
0
0
0
0
8.14855e-08
9.74242e-08
4.58462e-08
1.18726e-08
1.00143e-08
1.08369e-07
2.76114e-07
4.49245e-07
5.15329e-07
4.95411e-07
4.31728e-07
3.51657e-07
2.72666e-07
2.05017e-07
1.5221e-07
1.14038e-07
8.80698e-08
7.19794e-08
6.34161e-08
6.01678e-08
6.03723e-08
6.23339e-08
6.46886e-08
6.61496e-08
6.55775e-08
6.15339e-08
5.17529e-08
3.30244e-08
2.72936e-09
0
0
0
0
0
0
0
0
0
0
0
0
0
0
0
0
0
0
0
0
0
0
0
0
0
0
0
0
0
0
0
0
0
0
0
0
0
0
0
0
0
0
0
0
0
0
0
0
0
0
0
0
0
0
0
0
0
0
0
0
0
0
0
0
0
0
0
0
0
0
0
0
0
0
0
0
0
0
0
0
0
0
0
0
0
0
0
0
0
0
0
0
0
0
0
0
0
0
0
0
0
0
0
0
0
1.13112e-06
6.05634e-07
3.57247e-07
3.90607e-07
5.5937e-07
6.15993e-07
2.39864e-07
0
0
0
0
0
0
0
0
0
0
0
0
0
0
0
1.13147e-06
6.72345e-06
5.90701e-06
4.43486e-06
3.3287e-06
2.61062e-06
2.17246e-06
2.04661e-06
2.0475e-06
1.65799e-06
8.96332e-07
2.13602e-07
0
0
0
0
0
0
0
0
0
0
0
0
0
0
0
1.88856e-08
3.41373e-07
5.84548e-07
6.71866e-07
6.64821e-07
6.11843e-07
5.31868e-07
4.36065e-07
3.40839e-07
2.57196e-07
1.91199e-07
1.43284e-07
1.11799e-07
9.34678e-08
8.45757e-08
8.16033e-08
8.21442e-08
8.47661e-08
8.82406e-08
9.18274e-08
9.52924e-08
9.82845e-08
9.90243e-08
9.24693e-08
6.80074e-08
1.06934e-08
0
0
0
0
0
0
0
0
0
0
0
0
0
0
0
0
0
0
0
0
0
0
0
0
0
0
0
0
0
0
0
0
0
0
0
0
0
0
0
0
0
0
0
0
0
0
0
0
0
0
0
0
0
0
0
0
0
0
0
0
0
0
0
0
0
0
0
0
0
0
0
0
0
0
0
0
0
0
0
0
0
0
0
0
0
0
0
0
0
0
0
0
0
0
0
0
0
0
0
0
0
0
0
0
0
1.77802e-07
2.6348e-07
3.36783e-07
4.88409e-07
6.7262e-07
1.15071e-07
0
0
0
0
0
2.75932e-07
3.15485e-07
0
0
0
0
0
0
0
0
0
0
0
7.17756e-07
1.04561e-06
8.95259e-07
6.00609e-07
3.00998e-07
1.72913e-07
4.53876e-07
8.27527e-07
7.49228e-07
3.60255e-07
0
0
0
0
0
0
0
0
0
0
0
0
0
0
4.02053e-08
4.57816e-07
6.42661e-07
6.33346e-07
5.7156e-07
5.13444e-07
4.57635e-07
3.91031e-07
3.17611e-07
2.48081e-07
1.91203e-07
1.50338e-07
1.24337e-07
1.10135e-07
1.03794e-07
1.01581e-07
1.01572e-07
1.03128e-07
1.06256e-07
1.12083e-07
1.21982e-07
1.37768e-07
1.61974e-07
1.96166e-07
2.35938e-07
2.52704e-07
1.51493e-07
0
0
0
0
0
0
0
0
0
0
0
0
0
0
0
0
0
0
0
0
0
0
0
0
0
0
0
0
0
0
0
0
0
0
0
0
0
0
0
0
0
0
0
0
0
0
0
0
0
0
0
0
0
0
0
0
0
0
0
0
0
0
0
0
0
0
0
0
0
0
0
0
0
0
0
0
0
0
0
0
0
0
0
0
0
0
0
0
0
0
0
0
0
0
0
0
0
0
0
0
0
0
0
0
0
6.53355e-09
4.44891e-08
1.56469e-07
4.24722e-07
0
0
1.17092e-07
2.13495e-08
0
1.45929e-08
1.0973e-07
0
0
0
0
0
0
0
0
0
0
0
0
0
0
0
0
0
0
0
0
0
0
1.75201e-07
1.03792e-07
0
0
0
0
0
0
0
0
0
0
0
0
8.57439e-08
5.40608e-07
5.76273e-07
4.04147e-07
2.88005e-07
2.45047e-07
2.34146e-07
2.24468e-07
2.03751e-07
1.7379e-07
1.43776e-07
1.22043e-07
1.11318e-07
1.09132e-07
1.11244e-07
1.14205e-07
1.16774e-07
1.1858e-07
1.20423e-07
1.23287e-07
1.28874e-07
1.40212e-07
1.62438e-07
2.03292e-07
2.76008e-07
3.99831e-07
5.86335e-07
6.92953e-07
0
0
0
0
0
0
0
6.91629e-09
1.51629e-08
1.37726e-08
8.48227e-09
1.05554e-09
0
0
0
0
0
0
0
0
0
0
0
0
0
0
0
0
0
0
0
0
0
0
0
0
0
0
0
0
0
0
0
0
0
0
0
0
0
0
0
0
0
0
0
0
0
0
0
0
0
0
0
0
0
0
0
0
0
0
0
0
0
0
0
0
0
0
0
0
0
0
0
0
0
0
0
0
0
0
0
0
0
0
0
0
0
0
0
0
0
0
0
0
0
0
0
0
0
2.32044e-08
7.37756e-07
5.85457e-07
1.43592e-07
0
0
0
0
0
2.72937e-07
7.41654e-07
1.09934e-06
1.1776e-06
8.07428e-07
0
0
0
0
0
0
0
0
0
0
0
0
0
0
0
0
0
0
0
0
0
0
0
0
0
0
0
0
1.64952e-07
5.52766e-07
2.11355e-07
0
0
0
0
1.62263e-08
4.39674e-08
5.57329e-08
5.62471e-08
5.55596e-08
6.16326e-08
7.6658e-08
9.62512e-08
1.13708e-07
1.23967e-07
1.2479e-07
1.15988e-07
1.0004e-07
8.10857e-08
6.30953e-08
4.82915e-08
3.76731e-08
3.30089e-08
3.99367e-08
6.92572e-08
1.3367e-07
2.27912e-07
2.7822e-07
2.61683e-07
3.1515e-07
3.85897e-07
4.16298e-07
4.12578e-07
3.69007e-07
3.02007e-07
2.28471e-07
1.60947e-07
1.08204e-07
6.86655e-08
4.21793e-08
2.60032e-08
1.68145e-08
1.05017e-08
1.32425e-08
3.08427e-08
4.95248e-08
4.94123e-08
2.40939e-08
0
0
0
0
0
0
0
0
0
0
0
0
0
0
0
0
0
0
0
0
0
0
0
0
0
0
0
0
0
0
0
0
0
0
0
0
0
0
0
0
0
0
0
0
0
0
0
0
0
0
0
0
0
0
0
0
0
0
0
0
0
0
0
0
0
0
0
0
0
0
0
0
0
0
0
0
0
0
0
0
0
0
0
0
0
0
0
0
2.831e-07
3.10738e-07
0
0
0
0
0
0
5.30347e-08
4.78394e-07
9.2055e-07
1.30129e-06
1.50586e-06
1.29195e-06
2.25936e-07
0
0
0
0
0
0
0
0
0
0
0
0
0
0
0
0
0
0
0
0
0
0
0
0
0
0
1.67003e-07
0
0
0
0
0
0
0
0
0
0
0
0
2.86005e-08
6.79518e-08
1.05686e-07
1.27798e-07
1.24119e-07
9.46686e-08
4.89139e-08
5.88996e-10
0
0
0
0
0
0
1.61243e-07
5.14839e-07
9.31196e-07
3.77048e-07
0
0
3.12957e-08
2.92017e-07
4.36307e-07
4.78965e-07
4.46782e-07
3.5752e-07
2.53638e-07
1.49961e-07
5.92528e-08
0
0
0
0
0
0
0
0
0
0
0
0
0
0
0
0
0
0
0
0
0
0
0
0
0
0
0
0
0
0
0
0
0
0
0
0
0
0
0
0
0
0
0
0
0
0
0
0
0
0
0
0
0
0
0
0
0
0
0
0
0
0
0
0
0
0
0
0
0
0
0
0
0
0
0
0
0
0
0
0
0
0
0
0
0
0
0
0
0
0
0
0
0
0
0
0
0
0
0
0
0
0
0
0
0
0
0
1.59083e-07
4.55919e-07
6.71563e-07
6.12352e-07
0
0
0
0
0
0
0
0
0
0
0
0
0
0
0
0
2.08181e-07
3.7212e-07
1.22256e-07
1.3698e-07
6.60849e-08
0
0
0
0
9.73503e-08
0
0
0
0
0
0
0
0
0
0
0
0
0
0
1.17123e-08
6.42727e-08
1.00519e-07
1.032e-07
6.71017e-08
4.95447e-09
0
0
0
0
0
6.56251e-09
2.22961e-07
6.55119e-07
1.45893e-06
2.76503e-06
2.32856e-06
0
0
0
0
0
0
3.07058e-07
4.52578e-07
4.69579e-07
4.1247e-07
3.13802e-07
1.97406e-07
6.84628e-08
0
0
0
0
0
0
0
0
0
0
0
0
0
0
0
0
0
0
0
0
0
0
0
0
0
0
0
0
0
0
0
0
0
5.66196e-09
6.29082e-09
2.99757e-09
0
0
0
0
0
0
0
0
0
0
0
0
0
0
0
0
0
0
0
0
0
0
2.81753e-09
9.5253e-09
0
0
0
0
0
0
0
0
0
0
0
0
0
0
0
0
0
0
0
0
0
0
0
0
0
0
0
0
0
0
0
0
0
0
0
0
0
0
0
0
0
0
0
0
0
0
0
0
0
1.11714e-08
0
0
0
0
0
0
0
0
0
0
0
0
4.81689e-08
5.22303e-07
9.32753e-07
1.28933e-06
1.85297e-06
1.67611e-06
9.27321e-07
6.75468e-07
4.28068e-07
2.45198e-07
1.41716e-07
2.98095e-07
8.01371e-07
0
0
0
0
0
0
0
0
0
0
0
0
0
0
0
4.39667e-09
5.58561e-08
7.38673e-08
4.99403e-08
0
0
0
0
0
0
1.15246e-07
3.89968e-07
8.77761e-07
1.66028e-06
2.43861e-06
1.56056e-06
0
0
0
0
0
0
0
0
8.80625e-08
2.68729e-07
3.45427e-07
3.59484e-07
3.35473e-07
2.77905e-07
1.64851e-07
0
0
0
0
0
0
0
0
0
0
0
0
0
0
0
0
0
0
0
0
0
0
0
0
0
0
0
0
0
0
5.37715e-09
1.11195e-08
1.81797e-08
2.26984e-08
2.1983e-08
1.9273e-08
1.83022e-08
1.89669e-08
1.90293e-08
1.37746e-08
2.41186e-09
0
0
0
0
0
0
0
0
0
0
0
0
8.48814e-10
0
0
0
0
7.1854e-09
1.05215e-08
0
0
0
0
0
0
0
0
0
0
0
0
0
0
0
0
0
0
0
0
0
0
0
0
0
0
0
0
0
0
0
0
0
0
0
0
0
0
0
0
0
0
0
0
0
0
0
0
0
0
4.0627e-08
1.64886e-07
3.42723e-07
5.26316e-07
6.62487e-07
7.39772e-07
7.89572e-07
8.50333e-07
9.46694e-07
1.08177e-06
1.23951e-06
1.40821e-06
1.54851e-06
1.70542e-06
2.07967e-06
2.2913e-06
1.67226e-06
1.29458e-06
9.66204e-07
7.33024e-07
6.73192e-07
1.00511e-06
9.83009e-07
2.16187e-07
0
0
0
0
0
0
0
0
0
0
0
0
0
0
0
0
2.58599e-08
2.46182e-08
0
0
0
0
0
0
9.75148e-08
3.0815e-07
6.3605e-07
1.06384e-06
1.27472e-06
3.48184e-07
0
0
0
0
0
0
0
0
0
0
1.42582e-08
1.51172e-07
1.95507e-07
2.04101e-07
2.22197e-07
2.45992e-07
2.11828e-07
5.01913e-08
0
0
0
0
0
0
0
0
0
0
0
0
0
0
0
0
0
0
0
0
0
0
0
0
0
0
0
0
1.91913e-08
3.31152e-08
4.08728e-08
4.64407e-08
4.31782e-08
3.34552e-08
2.64054e-08
2.68493e-08
3.13388e-08
3.41726e-08
2.90265e-08
1.63348e-08
2.38575e-09
0
0
0
0
0
0
0
0
0
0
2.31005e-09
6.0368e-09
5.35037e-09
2.62279e-09
1.14239e-09
2.42489e-09
4.97754e-09
2.39453e-09
0
0
0
0
0
0
0
0
0
0
0
0
0
0
0
0
0
0
0
0
0
0
0
0
0
0
0
0
0
0
0
0
0
0
0
0
0
0
0
0
0
0
0
0
0
0
0
0
3.13608e-07
5.90412e-07
7.98504e-07
9.6404e-07
1.10458e-06
1.21552e-06
1.28228e-06
1.30304e-06
1.28121e-06
1.22927e-06
1.16892e-06
1.10459e-06
1.06501e-06
1.10455e-06
1.36164e-06
1.89718e-06
1.97894e-06
1.71522e-06
1.41927e-06
1.21551e-06
1.24624e-06
1.35504e-06
9.08375e-07
4.0545e-07
1.34236e-07
0
0
0
0
0
0
0
0
0
0
0
0
0
0
0
0
0
0
0
0
0
0
0
2.42735e-08
1.58476e-07
3.24988e-07
4.66222e-07
3.48733e-07
0
0
0
0
0
0
0
0
0
0
0
0
0
1.04672e-07
1.47946e-07
1.27769e-07
9.93241e-08
9.01727e-08
1.13283e-07
1.36014e-07
7.80371e-08
0
0
0
0
0
0
0
0
0
0
0
0
0
0
0
0
0
0
0
0
0
0
0
0
0
0
0
1.12555e-08
5.4937e-08
7.48009e-08
8.40509e-08
7.6517e-08
4.55015e-08
1.37428e-08
3.31473e-09
1.4214e-08
3.23155e-08
4.39898e-08
4.25744e-08
3.10008e-08
1.6156e-08
1.6443e-09
0
0
0
0
0
0
0
0
0
5.83052e-09
9.76377e-09
8.22733e-09
4.77586e-09
1.86534e-09
0
0
0
0
0
0
0
0
0
0
0
0
0
0
0
0
0
0
0
0
0
0
0
0
0
0
0
0
0
0
0
0
0
0
0
0
0
0
0
0
0
0
0
0
0
0
0
0
0
1.50188e-07
4.28163e-07
6.84032e-07
8.72367e-07
9.80327e-07
1.01762e-06
9.75271e-07
8.71962e-07
7.24738e-07
5.62924e-07
3.84741e-07
1.81865e-07
0
0
0
2.14281e-07
1.00836e-06
1.34867e-06
1.36786e-06
1.31673e-06
1.30716e-06
1.14252e-06
7.93075e-07
4.89368e-07
2.88129e-07
1.43106e-07
1.98918e-08
0
0
0
0
0
0
0
0
0
0
0
0
0
0
0
0
0
0
0
0
0
0
0
0
0
0
0
0
0
0
0
0
0
0
0
0
0
0
0
0
6.56088e-08
1.33128e-07
1.35071e-07
1.0894e-07
6.19706e-08
0
0
0
0
0
0
0
0
0
0
0
0
0
0
0
0
0
0
0
0
0
0
0
0
0
0
0
0
0
0
0
3.97947e-08
7.86394e-08
9.46634e-08
9.2217e-08
4.96974e-08
0
0
0
0
2.39553e-08
4.97825e-08
5.4035e-08
4.42853e-08
2.6193e-08
3.10462e-09
0
0
0
0
0
0
0
0
0
8.72877e-09
1.02668e-08
6.28481e-09
1.32882e-09
0
0
0
0
0
0
0
0
0
0
0
0
0
0
0
0
0
0
0
0
0
0
0
0
0
0
0
0
0
0
0
0
0
0
0
0
0
0
0
0
0
0
0
0
1.66662e-07
4.91893e-07
6.43882e-07
3.68916e-07
0
0
0
0
0
0
4.32752e-07
7.0737e-07
6.81733e-07
4.5295e-07
1.8314e-07
0
0
0
0
0
6.63972e-08
4.29141e-07
6.77095e-07
8.18154e-07
8.53524e-07
7.67631e-07
6.08559e-07
4.50349e-07
3.24989e-07
2.26816e-07
1.44436e-07
6.79074e-08
0
0
0
0
0
0
0
0
0
0
0
0
0
0
0
0
0
0
0
0
0
0
0
0
0
0
0
0
0
0
0
0
0
0
0
0
0
0
0
0
8.24891e-08
1.15424e-07
1.02264e-07
7.80932e-08
6.67651e-08
3.79355e-08
0
0
0
0
0
0
0
0
0
0
0
0
0
0
3.56562e-08
4.55683e-08
2.32887e-08
2.61409e-09
0
0
0
0
0
4.98581e-09
1.76429e-08
1.99402e-08
1.14058e-08
0
0
5.23917e-09
3.98845e-08
7.72839e-08
9.89051e-08
1.01475e-07
7.32408e-08
0
0
0
0
0
1.99663e-08
4.65001e-08
4.83122e-08
3.74356e-08
1.93913e-08
0
0
0
0
0
0
0
0
0
1.60507e-09
7.05727e-09
3.59987e-09
0
0
0
0
0
0
0
0
0
0
0
0
0
0
0
0
0
0
0
0
0
0
0
0
0
0
0
0
0
0
0
0
0
0
0
0
0
0
0
0
0
0
9.27907e-08
5.99285e-07
1.13893e-06
1.7847e-06
2.45741e-06
2.68156e-06
0
0
0
0
0
0
0
0
2.68295e-07
7.0069e-07
6.33062e-07
3.8978e-07
1.60489e-07
1.5268e-08
0
0
1.0388e-07
2.62761e-07
4.1461e-07
5.28245e-07
5.65195e-07
5.32228e-07
4.5799e-07
3.69196e-07
2.9158e-07
2.29128e-07
1.7708e-07
1.29177e-07
8.2054e-08
3.08981e-08
0
0
0
0
0
0
0
0
0
7.30248e-09
1.21513e-08
3.76649e-09
0
0
0
0
2.02266e-08
3.52596e-08
0
0
0
0
0
0
0
0
0
0
0
0
0
0
0
0
0
0
0
4.67377e-08
1.27247e-07
1.01827e-07
9.84725e-08
9.97474e-08
5.94253e-08
1.34742e-08
6.15715e-09
3.99954e-09
0
0
0
0
0
0
0
0
0
0
0
0
0
1.78923e-08
5.98245e-08
5.70741e-08
4.37784e-08
3.73745e-08
2.97894e-08
1.51678e-08
3.82346e-09
6.73004e-09
2.06398e-08
3.93589e-08
5.96382e-08
7.24122e-08
7.38817e-08
6.92637e-08
6.80699e-08
7.73405e-08
9.4505e-08
1.06112e-07
1.03244e-07
8.51506e-08
4.83511e-08
0
0
0
0
0
3.00684e-08
3.91937e-08
2.89031e-08
1.4452e-08
3.22846e-09
0
0
0
0
0
0
0
0
0
0
0
0
0
0
0
0
0
0
0
0
0
0
0
0
0
0
0
0
0
0
0
0
0
0
0
0
0
0
0
0
0
0
0
0
0
0
0
0
0
0
0
0
8.30746e-08
2.90782e-07
5.01104e-07
7.05373e-07
8.18982e-07
6.29253e-07
0
0
0
0
0
0
0
0
0
0
2.98964e-07
4.81991e-07
3.8982e-07
2.7052e-07
1.87414e-07
1.46614e-07
1.46707e-07
1.90533e-07
2.67706e-07
3.38084e-07
3.68997e-07
3.6235e-07
3.27356e-07
2.78016e-07
2.2974e-07
1.87793e-07
1.53305e-07
1.24306e-07
9.59435e-08
6.7173e-08
3.75264e-08
7.92684e-09
0
0
0
0
0
0
0
0
3.16503e-09
1.19235e-08
1.28221e-08
5.08473e-09
0
0
3.83151e-09
3.59197e-08
6.93071e-08
6.1937e-08
0
0
0
0
0
0
0
0
0
0
0
0
0
0
0
0
0
0
3.49706e-08
1.51883e-07
1.27726e-07
8.51857e-08
9.96486e-08
9.82393e-08
2.25399e-08
0
0
0
0
0
0
0
0
0
0
0
0
0
0
0
5.85574e-08
7.65345e-08
6.18908e-08
5.07707e-08
5.2082e-08
6.14186e-08
6.59981e-08
6.05501e-08
5.21885e-08
5.15926e-08
6.26131e-08
8.31682e-08
1.03275e-07
1.12839e-07
1.13448e-07
1.10411e-07
1.08198e-07
1.08879e-07
1.08105e-07
9.76415e-08
8.08101e-08
6.24345e-08
3.8956e-08
1.27226e-08
0
0
8.84714e-09
2.6861e-08
3.323e-08
2.22252e-08
6.1068e-09
0
0
0
0
0
0
0
8.67471e-11
0
0
0
0
0
0
0
0
0
0
0
0
0
0
0
0
0
0
0
0
0
0
0
0
0
0
0
0
0
0
0
0
0
0
0
0
0
0
0
0
0
0
0
0
2.65413e-08
1.06565e-08
0
0
0
0
0
0
0
0
0
9.68417e-08
2.0491e-07
0
0
0
0
0
2.2785e-07
2.25481e-07
1.65659e-07
1.63641e-07
1.55583e-07
1.43708e-07
1.51077e-07
1.88194e-07
2.21684e-07
2.29677e-07
2.1855e-07
1.95954e-07
1.64025e-07
1.33638e-07
1.07331e-07
8.68568e-08
7.13148e-08
5.62252e-08
4.10992e-08
2.77483e-08
1.61473e-08
5.38214e-09
0
0
0
0
0
0
0
0
2.52902e-09
7.60628e-09
7.43101e-09
2.02408e-09
0
2.75464e-10
2.07812e-08
5.40147e-08
7.22264e-08
5.30967e-08
9.62274e-09
0
1.13279e-08
1.34812e-07
3.3694e-07
5.91272e-07
8.33471e-07
1.07009e-06
1.23882e-06
1.25167e-06
1.41028e-06
1.52347e-06
1.02199e-06
1.141e-09
0
0
0
0
1.09435e-07
1.54817e-07
1.02058e-07
7.62139e-08
9.52275e-08
7.44281e-08
0
0
0
0
0
0
0
0
0
0
0
0
0
0
6.857e-08
1.7452e-07
1.80558e-07
1.35166e-07
8.53366e-08
6.33763e-08
7.03646e-08
8.82781e-08
1.00699e-07
1.02275e-07
9.91927e-08
9.99168e-08
1.11185e-07
1.27718e-07
1.36857e-07
1.36932e-07
1.32955e-07
1.27056e-07
1.19813e-07
1.11024e-07
9.81042e-08
8.09972e-08
6.71931e-08
5.63409e-08
4.43243e-08
3.28681e-08
2.65433e-08
2.80869e-08
3.46832e-08
3.58565e-08
2.28183e-08
4.27402e-09
0
0
0
0
0
0
0
1.0543e-08
7.64922e-09
0
0
0
0
0
0
0
0
0
0
0
0
0
0
0
0
0
0
0
0
0
0
0
0
0
0
0
0
0
0
0
0
0
0
0
0
0
0
0
0
0
3.02557e-08
6.15957e-08
3.236e-08
0
0
0
0
0
0
0
0
0
0
0
7.12541e-08
2.01924e-07
0
0
0
0
9.24577e-08
1.2255e-07
9.70473e-08
9.22188e-08
1.21186e-07
1.18638e-07
1.09372e-07
1.25508e-07
1.42041e-07
1.3696e-07
1.23223e-07
1.07618e-07
8.56514e-08
6.3314e-08
4.50931e-08
3.35149e-08
2.72672e-08
2.21212e-08
1.74081e-08
1.54808e-08
1.62602e-08
1.81002e-08
1.98812e-08
2.06715e-08
1.93017e-08
1.51075e-08
8.63837e-09
1.54308e-09
0
0
0
0
0
0
0
0
0
2.72987e-09
2.4028e-08
3.72058e-08
4.77641e-08
8.20007e-08
1.82428e-07
3.70931e-07
5.96743e-07
9.03621e-07
1.17672e-06
1.49876e-06
1.75538e-06
2.1193e-06
2.88616e-06
3.72067e-06
3.29557e-06
2.19071e-07
0
0
0
0
7.52946e-08
1.52335e-07
1.41223e-07
9.48139e-08
8.22867e-08
9.30178e-08
3.66484e-08
0
0
0
0
0
0
0
0
0
0
1.70956e-08
1.62347e-08
4.19617e-08
1.51569e-07
2.52907e-07
2.78049e-07
2.32338e-07
1.73562e-07
1.19864e-07
9.60441e-08
1.02879e-07
1.21587e-07
1.36964e-07
1.43058e-07
1.45368e-07
1.47839e-07
1.55667e-07
1.60972e-07
1.57389e-07
1.49741e-07
1.41507e-07
1.31088e-07
1.17276e-07
1.03213e-07
8.80533e-08
7.53665e-08
6.74189e-08
5.96488e-08
5.09316e-08
4.36627e-08
4.05211e-08
4.11327e-08
3.93542e-08
2.65727e-08
6.4614e-09
0
0
9.83644e-10
2.43046e-10
0
0
1.41288e-09
8.65308e-09
1.38473e-08
6.84091e-09
0
0
0
0
0
0
0
0
0
0
0
0
7.04456e-09
0
0
0
0
0
0
0
0
0
0
0
0
0
0
0
0
0
0
0
0
0
0
0
0
0
0
0
3.37426e-08
6.00579e-08
4.15104e-08
0
0
0
0
0
0
0
0
0
0
0
3.62431e-08
2.81364e-07
1.31882e-07
0
0
6.52478e-09
9.0246e-08
8.36088e-08
5.49544e-08
4.41608e-08
5.09078e-08
7.20857e-08
7.0403e-08
6.91997e-08
7.10963e-08
6.4355e-08
5.37543e-08
4.3007e-08
2.7912e-08
1.20714e-08
4.42614e-10
0
0
0
1.11963e-09
6.42088e-09
1.46668e-08
2.43278e-08
3.34953e-08
4.00414e-08
4.21702e-08
3.93582e-08
3.14958e-08
2.07675e-08
8.91531e-09
0
0
0
0
0
0
0
0
0
0
0
2.25482e-08
1.0153e-07
2.24532e-07
3.94759e-07
5.10005e-07
6.31712e-07
7.21119e-07
8.33899e-07
9.56953e-07
1.32763e-06
2.05546e-06
3.1957e-06
4.82622e-06
5.44761e-07
0
0
0
0
7.30613e-08
1.39726e-07
1.55756e-07
1.16434e-07
7.70045e-08
6.98103e-08
6.19125e-08
0
0
0
0
0
0
0
0
0
0
6.47059e-08
9.94038e-08
1.30215e-07
1.97694e-07
2.7188e-07
3.12744e-07
2.92627e-07
2.43884e-07
1.93036e-07
1.51474e-07
1.36037e-07
1.43241e-07
1.59399e-07
1.73889e-07
1.82346e-07
1.86082e-07
1.86285e-07
1.86576e-07
1.80178e-07
1.67606e-07
1.55777e-07
1.4382e-07
1.27526e-07
1.1132e-07
9.80034e-08
8.68674e-08
7.96763e-08
7.20649e-08
6.1617e-08
5.17958e-08
4.5548e-08
4.32024e-08
3.99817e-08
2.86599e-08
8.78522e-09
0
0
1.23922e-09
6.1557e-09
5.3227e-09
4.35749e-09
4.60067e-09
6.07074e-09
1.05821e-08
1.22773e-08
2.42532e-09
0
0
0
0
0
0
0
0
0
0
0
2.21145e-08
4.61981e-09
0
0
0
0
0
0
0
0
0
0
0
0
0
0
0
0
0
0
0
0
0
3.55321e-09
1.37842e-08
0
0
0
0
2.82286e-08
4.39286e-08
8.12812e-09
0
0
0
0
0
0
0
0
0
3.16248e-08
2.16178e-07
4.17265e-07
3.19717e-07
0
3.10817e-08
1.19386e-07
1.50316e-07
9.86764e-08
4.64497e-08
2.42545e-08
1.6042e-08
1.69466e-08
2.73953e-08
2.58712e-08
1.60775e-08
3.17366e-09
0
0
0
0
0
0
0
0
0
1.0761e-09
1.34603e-08
2.69643e-08
3.96403e-08
4.87054e-08
5.24453e-08
5.10576e-08
4.44538e-08
3.43582e-08
2.22312e-08
8.44872e-09
0
0
0
0
0
0
0
0
0
0
0
9.16e-08
1.93724e-07
2.51127e-07
2.12266e-07
1.40579e-07
7.76514e-08
3.35896e-08
7.76478e-08
2.98218e-07
7.00078e-07
1.28915e-06
2.14635e-06
1.22547e-06
0
0
0
0
6.76948e-08
1.17746e-07
1.39525e-07
1.14197e-07
6.9447e-08
4.42615e-08
4.09414e-08
2.92509e-08
0
0
0
0
0
6.73132e-09
0
0
5.08838e-08
8.52831e-08
1.02106e-07
1.28139e-07
1.7848e-07
2.42266e-07
2.9643e-07
3.10797e-07
2.90418e-07
2.45607e-07
2.06353e-07
1.80629e-07
1.74957e-07
1.81963e-07
1.95616e-07
2.08967e-07
2.16645e-07
2.1622e-07
2.10816e-07
2.03225e-07
1.89231e-07
1.73156e-07
1.58124e-07
1.40262e-07
1.21768e-07
1.08827e-07
9.9227e-08
9.25355e-08
8.51406e-08
7.23028e-08
5.8126e-08
4.79816e-08
4.3222e-08
3.95468e-08
2.97055e-08
1.06541e-08
0
0
0
8.28561e-09
1.0792e-08
9.98303e-09
8.11791e-09
5.00065e-09
4.46481e-09
9.13757e-09
8.97312e-09
0
0
0
0
0
0
0
0
0
0
0
0
3.26381e-08
0
0
0
0
0
0
0
0
0
0
0
0
0
0
0
0
0
0
0
0
0
3.21797e-08
4.80217e-08
0
0
0
0
0
0
1.58843e-09
0
0
0
0
0
0
0
0
0
1.25244e-07
2.93826e-07
4.76401e-07
6.45001e-07
4.52362e-07
2.21033e-07
2.06935e-07
2.13266e-07
1.41236e-07
6.87148e-08
3.39511e-08
1.65037e-08
4.90661e-09
2.96702e-10
0
0
0
0
0
0
0
0
0
0
0
0
0
1.28351e-08
2.77757e-08
4.10755e-08
5.00304e-08
5.32451e-08
5.1788e-08
4.6002e-08
3.74506e-08
2.74171e-08
1.52845e-08
2.09532e-09
0
0
0
0
0
0
0
0
0
4.20635e-09
1.28071e-07
1.77665e-07
9.43459e-08
0
0
0
0
0
0
8.27314e-09
3.20849e-07
7.60703e-07
9.87155e-07
0
0
0
0
5.16045e-08
9.15488e-08
1.09438e-07
9.46932e-08
5.94312e-08
3.14256e-08
1.97641e-08
2.09063e-08
2.02873e-08
4.62523e-09
0
0
0
2.50046e-08
4.69902e-08
6.66623e-08
9.86759e-08
1.08098e-07
1.09803e-07
1.28394e-07
1.73143e-07
2.42775e-07
2.98661e-07
3.14197e-07
3.11399e-07
2.846e-07
2.49462e-07
2.24509e-07
2.11157e-07
2.08587e-07
2.13093e-07
2.26161e-07
2.38136e-07
2.41658e-07
2.33271e-07
2.22175e-07
2.08793e-07
1.91974e-07
1.73882e-07
1.53379e-07
1.32173e-07
1.18632e-07
1.10254e-07
1.03517e-07
9.65343e-08
8.35087e-08
6.56542e-08
5.09345e-08
4.30696e-08
3.92254e-08
3.08792e-08
1.25559e-08
0
0
0
7.64268e-09
1.37989e-08
1.42655e-08
1.16916e-08
5.48844e-09
0
4.60055e-10
7.76005e-09
5.0272e-09
0
0
0
0
0
0
0
0
0
0
0
9.25493e-09
1.46747e-08
0
0
0
0
0
0
0
0
0
0
0
0
0
0
0
0
0
0
0
0
2.85156e-08
4.71256e-09
0
0
0
0
0
0
0
0
0
0
3.64883e-08
1.40268e-07
1.73713e-07
0
0
3.04291e-08
1.75732e-07
3.39376e-07
6.36382e-07
7.56462e-07
4.53407e-07
2.70277e-07
2.59328e-07
2.4963e-07
1.68845e-07
9.46134e-08
5.03017e-08
3.15148e-08
1.51605e-08
5.07245e-10
0
0
0
0
0
0
0
0
0
0
0
0
0
1.23143e-08
2.81435e-08
4.09278e-08
4.89272e-08
5.07479e-08
4.81748e-08
4.20901e-08
3.38876e-08
2.49834e-08
1.48328e-08
3.43755e-09
0
0
0
0
0
0
0
0
0
1.09877e-07
2.77441e-07
2.39393e-07
0
0
0
0
0
0
0
0
0
2.26313e-07
7.45988e-07
0
0
0
0
3.52941e-08
6.58955e-08
7.68574e-08
6.76765e-08
4.73048e-08
2.71852e-08
1.27651e-08
9.13388e-09
1.5873e-08
1.79961e-08
8.51146e-09
0
0
1.46582e-08
5.00443e-08
8.96259e-08
1.14462e-07
1.22329e-07
1.23939e-07
1.4152e-07
1.87001e-07
2.66497e-07
3.23047e-07
3.36361e-07
3.31978e-07
3.07965e-07
2.79371e-07
2.61045e-07
2.47893e-07
2.38695e-07
2.32941e-07
2.37108e-07
2.50332e-07
2.58522e-07
2.53838e-07
2.38605e-07
2.23194e-07
2.06668e-07
1.87269e-07
1.64065e-07
1.39933e-07
1.24943e-07
1.17754e-07
1.10956e-07
1.04103e-07
9.24965e-08
7.42293e-08
5.63666e-08
4.54898e-08
4.0768e-08
3.35364e-08
1.54772e-08
0
0
0
5.01304e-09
1.46252e-08
1.69458e-08
1.5002e-08
7.46227e-09
0
0
0
7.10492e-09
2.38497e-11
0
0
0
0
0
0
0
0
0
0
0
1.45463e-08
0
0
0
0
0
0
0
0
0
0
0
0
0
0
0
0
0
0
0
0
0
0
0
0
0
0
0
0
0
0
0
0
0
0
1.2438e-08
0
0
4.04917e-08
2.09249e-07
4.75963e-07
5.74246e-07
4.47472e-07
3.4205e-07
2.8213e-07
2.9227e-07
2.51892e-07
1.73105e-07
9.40657e-08
5.95678e-08
4.23932e-08
2.87029e-08
1.24866e-08
0
0
0
0
0
0
0
0
0
0
0
0
0
1.16112e-08
2.86942e-08
4.12815e-08
4.86408e-08
4.9338e-08
4.54116e-08
3.85415e-08
2.98157e-08
2.06414e-08
1.12215e-08
9.18619e-10
0
0
0
0
0
0
0
0
3.9391e-08
2.85094e-07
5.79514e-07
4.08323e-07
0
0
0
0
0
0
0
0
0
1.46737e-08
4.65195e-07
5.37614e-07
0
0
0
2.78641e-08
4.75328e-08
5.23068e-08
4.59794e-08
3.50963e-08
2.34533e-08
1.194e-08
5.72363e-09
8.42301e-09
1.58023e-08
1.69375e-08
1.17848e-08
9.14217e-09
1.87323e-08
5.85012e-08
1.09629e-07
1.3059e-07
1.3318e-07
1.36879e-07
1.60074e-07
2.1163e-07
2.9791e-07
3.5105e-07
3.61619e-07
3.55811e-07
3.28345e-07
2.97056e-07
2.81876e-07
2.74e-07
2.64511e-07
2.52474e-07
2.46797e-07
2.54374e-07
2.64462e-07
2.64589e-07
2.49751e-07
2.31537e-07
2.13676e-07
1.9205e-07
1.65154e-07
1.3846e-07
1.22967e-07
1.18293e-07
1.11688e-07
1.04372e-07
9.48583e-08
8.04329e-08
6.39098e-08
5.15703e-08
4.53456e-08
3.85021e-08
2.0491e-08
0
0
0
1.07431e-09
1.33617e-08
1.76523e-08
1.73103e-08
1.03181e-08
0
0
0
0
5.33829e-09
0
0
0
0
0
0
0
0
0
0
0
0
4.44091e-09
0
0
0
0
0
0
0
0
0
0
0
0
0
0
0
0
0
0
0
0
0
0
0
0
0
0
0
0
0
0
0
0
0
0
0
1.92568e-07
3.37008e-07
3.71399e-07
3.40742e-07
2.94493e-07
2.52469e-07
2.83364e-07
2.77007e-07
2.80705e-07
2.28841e-07
1.52479e-07
8.85254e-08
5.86906e-08
4.55245e-08
3.46256e-08
2.23688e-08
2.47175e-09
0
0
0
0
0
0
0
0
0
0
0
0
1.02375e-08
2.88112e-08
4.197e-08
4.93003e-08
4.97425e-08
4.51815e-08
3.77068e-08
2.83039e-08
1.82746e-08
8.43836e-09
0
0
0
0
0
0
0
0
0
1.02232e-07
4.66701e-07
1.05781e-06
5.9642e-07
0
0
0
0
0
0
0
0
0
0
1.49393e-07
3.47151e-07
1.46779e-08
0
0
2.31276e-08
3.32139e-08
3.41632e-08
2.95143e-08
2.26073e-08
1.59331e-08
9.90412e-09
6.36502e-09
7.24682e-09
1.40407e-08
2.14491e-08
2.34815e-08
2.42222e-08
3.9525e-08
9.04222e-08
1.35218e-07
1.46235e-07
1.44314e-07
1.49961e-07
1.77046e-07
2.3139e-07
3.16862e-07
3.61855e-07
3.69729e-07
3.6374e-07
3.37505e-07
2.99265e-07
2.83489e-07
2.78765e-07
2.73167e-07
2.59944e-07
2.48027e-07
2.48769e-07
2.5681e-07
2.58871e-07
2.4645e-07
2.271e-07
2.07923e-07
1.8305e-07
1.50696e-07
1.20593e-07
1.05629e-07
1.06488e-07
1.02683e-07
9.48683e-08
8.70882e-08
7.80049e-08
6.7361e-08
5.7299e-08
5.01679e-08
4.3126e-08
2.67774e-08
0
0
0
0
1.01487e-08
1.61955e-08
1.76645e-08
1.25826e-08
0
0
0
0
1.91186e-09
2.52673e-09
0
0