/*--------------------------------*- C++ -*----------------------------------*\
  =========                 |
  \\      /  F ield         | OpenFOAM: The Open Source CFD Toolbox
   \\    /   O peration     | Website:  https://openfoam.org
    \\  /    A nd           | Version:  7
     \\/     M anipulation  |
\*---------------------------------------------------------------------------*/
FoamFile
{
    version     2.0;
    format      ascii;
    class       surfaceScalarField;
    location    "0.068";
    object      phi;
}
// * * * * * * * * * * * * * * * * * * * * * * * * * * * * * * * * * * * * * //

dimensions      [0 3 -1 0 0 0 0];

internalField   nonuniform List<scalar> 
24170
(
1.38199e-06
1.8376e-07
1.24582e-06
1.36164e-07
1.09585e-06
1.49978e-07
9.719e-07
1.23946e-07
8.73498e-07
9.84026e-08
7.86411e-07
8.70872e-08
7.03156e-07
8.32551e-08
6.22433e-07
8.07228e-08
5.45694e-07
7.67383e-08
4.75966e-07
6.97282e-08
4.16115e-07
5.98514e-08
3.67114e-07
4.9001e-08
3.27434e-07
3.96797e-08
2.94054e-07
3.33804e-08
2.62756e-07
3.12977e-08
2.31669e-07
3.10871e-08
1.94754e-07
3.69144e-08
4.16221e-08
1.53132e-07
1.66133e-06
2.10262e-07
1.63357e-06
1.63919e-07
1.59369e-06
1.89863e-07
1.56308e-06
1.5455e-07
1.53797e-06
1.23519e-07
1.50509e-06
1.19968e-07
1.46164e-06
1.26704e-07
1.41263e-06
1.2973e-07
1.36327e-06
1.26096e-07
1.31652e-06
1.16478e-07
1.27352e-06
1.02856e-07
1.2335e-06
8.90156e-08
1.19412e-06
7.90645e-08
1.15312e-06
7.43766e-08
1.1101e-06
7.4322e-08
1.0649e-06
7.62899e-08
1.0181e-06
8.37108e-08
9.45796e-08
9.65142e-07
1.7296e-06
3.28582e-07
1.70219e-06
1.91329e-07
1.71257e-06
1.79483e-07
1.72141e-06
1.45708e-07
1.72674e-06
1.18194e-07
1.72998e-06
1.16729e-07
1.72911e-06
1.27574e-07
1.72231e-06
1.36532e-07
1.70959e-06
1.38811e-07
1.69309e-06
1.32985e-07
1.6757e-06
1.20245e-07
1.65943e-06
1.05282e-07
1.64407e-06
9.44281e-08
1.62802e-06
9.04288e-08
1.60947e-06
9.28651e-08
1.58673e-06
9.90305e-08
1.56072e-06
1.09723e-07
1.25175e-07
1.53012e-06
1.91339e-06
3.6253e-07
1.9048e-06
1.99913e-07
1.89189e-06
1.92398e-07
1.87196e-06
1.65641e-07
1.85502e-06
1.35134e-07
1.84956e-06
1.22186e-07
1.85366e-06
1.23475e-07
1.86027e-06
1.29917e-07
1.86375e-06
1.3533e-07
1.86241e-06
1.34329e-07
1.85765e-06
1.25004e-07
1.85211e-06
1.10828e-07
1.84772e-06
9.88151e-08
1.84471e-06
9.34331e-08
1.84206e-06
9.5519e-08
1.83806e-06
1.03034e-07
1.8327e-06
1.15079e-07
1.31947e-07
1.82593e-06
2.08393e-06
3.5887e-07
2.06039e-06
2.23446e-07
2.05948e-06
1.93314e-07
2.0584e-06
1.6672e-07
2.04808e-06
1.4545e-07
2.03366e-06
1.36603e-07
2.021e-06
1.3614e-07
2.01186e-06
1.39058e-07
2.00562e-06
1.41569e-07
2.00124e-06
1.3871e-07
1.99827e-06
1.27977e-07
1.99676e-06
1.12333e-07
1.99717e-06
9.84061e-08
1.99916e-06
9.14402e-08
2.00218e-06
9.25047e-08
2.00478e-06
1.00428e-07
2.00712e-06
1.12741e-07
1.29034e-07
2.01003e-06
2.2159e-06
4.02262e-07
2.19496e-06
2.44377e-07
2.18992e-06
1.98355e-07
2.18876e-06
1.67886e-07
2.1848e-06
1.49407e-07
2.17426e-06
1.47141e-07
2.16033e-06
1.5007e-07
2.14916e-06
1.50235e-07
2.14495e-06
1.45774e-07
2.14726e-06
1.36405e-07
2.15223e-06
1.23008e-07
2.15572e-06
1.08837e-07
2.15598e-06
9.81458e-08
2.15348e-06
9.39457e-08
2.15026e-06
9.57208e-08
2.14802e-06
1.02672e-07
2.14892e-06
1.1184e-07
1.23427e-07
2.15452e-06
2.39425e-06
3.60134e-07
2.38296e-06
2.55668e-07
2.37303e-06
2.08284e-07
2.36058e-06
1.80336e-07
2.34208e-06
1.67911e-07
2.3231e-06
1.66118e-07
2.31036e-06
1.62806e-07
2.30695e-06
1.53644e-07
2.31191e-06
1.40814e-07
2.32123e-06
1.27091e-07
2.32994e-06
1.14296e-07
2.33454e-06
1.0424e-07
2.33439e-06
9.82879e-08
2.33125e-06
9.70858e-08
2.32784e-06
9.91304e-08
2.32684e-06
1.03675e-07
2.33015e-06
1.08526e-07
1.14109e-07
2.33947e-06
2.60092e-06
4.11997e-07
2.56503e-06
2.91565e-07
2.52697e-06
2.46336e-07
2.50961e-06
1.977e-07
2.5069e-06
1.70618e-07
2.50939e-06
1.63632e-07
2.51108e-06
1.61118e-07
2.50997e-06
1.54757e-07
2.50719e-06
1.43592e-07
2.50464e-06
1.29643e-07
2.50354e-06
1.15389e-07
2.50443e-06
1.03355e-07
2.50762e-06
9.50961e-08
2.51335e-06
9.13569e-08
2.52133e-06
9.11542e-08
2.53142e-06
9.35831e-08
2.54308e-06
9.68633e-08
1.00537e-07
2.55665e-06
2.7308e-06
4.58089e-07
2.68924e-06
3.33131e-07
2.69033e-06
2.45245e-07
2.69554e-06
1.92491e-07
2.6947e-06
1.71457e-07
2.69735e-06
1.60977e-07
2.70705e-06
1.51415e-07
2.71919e-06
1.42625e-07
2.72781e-06
1.34971e-07
2.72986e-06
1.27586e-07
2.72598e-06
1.19269e-07
2.71934e-06
1.09996e-07
2.71379e-06
1.00652e-07
2.71219e-06
9.29536e-08
2.71561e-06
8.77379e-08
2.72373e-06
8.54564e-08
2.73564e-06
8.49569e-08
8.58607e-08
2.75032e-06
2.96271e-06
4.53466e-07
2.93991e-06
3.55936e-07
2.90942e-06
2.75737e-07
2.884e-06
2.17913e-07
2.86994e-06
1.85516e-07
2.87335e-06
1.57565e-07
2.89117e-06
1.33598e-07
2.91225e-06
1.21546e-07
2.92607e-06
1.2115e-07
2.92863e-06
1.2502e-07
2.92273e-06
1.25168e-07
2.9144e-06
1.1833e-07
2.90902e-06
1.06035e-07
2.90918e-06
9.2791e-08
2.91506e-06
8.18572e-08
2.92528e-06
7.52383e-08
2.93839e-06
7.18503e-08
7.0697e-08
2.95355e-06
3.17004e-06
4.49753e-07
3.15469e-06
3.71279e-07
3.14765e-06
2.82781e-07
3.1374e-06
2.28167e-07
3.12952e-06
1.93387e-07
3.12738e-06
1.59711e-07
3.12908e-06
1.31899e-07
3.13236e-06
1.18264e-07
3.13709e-06
1.16419e-07
3.14425e-06
1.17863e-07
3.15383e-06
1.15583e-07
3.16395e-06
1.08215e-07
3.17183e-06
9.81491e-08
3.17539e-06
8.92345e-08
3.17463e-06
8.26204e-08
3.17152e-06
7.83406e-08
3.1689e-06
7.44701e-08
6.95566e-08
3.17004e-06
2.82138e-06
4.23639e-07
2.84865e-06
3.44014e-07
2.85433e-06
2.77093e-07
2.84914e-06
2.33358e-07
2.84337e-06
1.99156e-07
2.83968e-06
1.63403e-07
2.83699e-06
1.34592e-07
2.83618e-06
1.19068e-07
2.83938e-06
1.13217e-07
2.84754e-06
1.09707e-07
2.85931e-06
1.03815e-07
2.87168e-06
9.58418e-08
2.88158e-06
8.82542e-08
2.88728e-06
8.35306e-08
2.88867e-06
8.12329e-08
2.88726e-06
7.97464e-08
2.88504e-06
7.66896e-08
7.04182e-08
2.88418e-06
3.4846e-06
4.22479e-07
3.46933e-06
3.59284e-07
3.45073e-06
2.95686e-07
3.43827e-06
2.45818e-07
3.43293e-06
2.04497e-07
3.4293e-06
1.67032e-07
3.42624e-06
1.37655e-07
3.42562e-06
1.19694e-07
3.42877e-06
1.10066e-07
3.43573e-06
1.02748e-07
3.44556e-06
9.39776e-08
3.457e-06
8.44068e-08
3.46879e-06
7.64659e-08
3.48032e-06
7.20007e-08
3.49125e-06
7.03022e-08
3.50179e-06
6.92081e-08
3.51229e-06
6.61846e-08
5.95735e-08
3.52314e-06
4.25672e-06
4.24128e-07
4.25671e-06
3.59299e-07
4.22486e-06
3.27533e-07
4.20791e-06
2.62771e-07
4.21444e-06
1.97971e-07
4.22407e-06
1.57393e-07
4.22368e-06
1.3805e-07
4.21585e-06
1.27524e-07
4.20948e-06
1.16431e-07
4.21023e-06
1.02007e-07
4.21799e-06
8.62166e-08
4.22966e-06
7.27307e-08
4.24247e-06
6.36542e-08
4.25549e-06
5.89839e-08
4.26891e-06
5.68801e-08
4.28328e-06
5.48401e-08
4.29871e-06
5.07567e-08
4.38151e-08
4.31447e-06
5.22687e-06
4.8277e-07
5.20569e-06
3.80478e-07
5.1813e-06
3.51931e-07
5.16868e-06
2.75384e-07
5.16107e-06
2.05581e-07
5.14552e-06
1.72943e-07
5.12419e-06
1.59384e-07
5.10892e-06
1.4279e-07
5.10607e-06
1.19284e-07
5.11209e-06
9.59848e-08
5.11969e-06
7.86178e-08
5.12498e-06
6.74395e-08
5.12936e-06
5.92751e-08
5.13687e-06
5.14741e-08
5.15045e-06
4.33066e-08
5.1703e-06
3.49876e-08
5.19416e-06
2.68974e-08
1.94888e-08
5.21848e-06
6.41416e-06
3.69102e-07
6.38935e-06
4.0529e-07
6.35811e-06
3.8317e-07
6.33804e-06
2.95448e-07
6.327e-06
2.16622e-07
6.32703e-06
1.72917e-07
6.33742e-06
1.48997e-07
6.35333e-06
1.26878e-07
6.36898e-06
1.03635e-07
6.3807e-06
8.42596e-08
6.38765e-06
7.16736e-08
6.39085e-06
6.42351e-08
6.39201e-06
5.81187e-08
6.39269e-06
5.07922e-08
6.39419e-06
4.17994e-08
6.39734e-06
3.18449e-08
6.40246e-06
2.17756e-08
1.22496e-08
6.4097e-06
7.77937e-06
5.10239e-07
7.72461e-06
4.6005e-07
7.72244e-06
3.85336e-07
7.7148e-06
3.03093e-07
7.70234e-06
2.29077e-07
7.69567e-06
1.79588e-07
7.69468e-06
1.49984e-07
7.69177e-06
1.29792e-07
7.68385e-06
1.1156e-07
7.67524e-06
9.28702e-08
7.67217e-06
7.47379e-08
7.67745e-06
5.89587e-08
7.68917e-06
4.63972e-08
7.7036e-06
3.63619e-08
7.7177e-06
2.76938e-08
7.72991e-06
1.9639e-08
7.74003e-06
1.16585e-08
3.80358e-09
7.74847e-06
9.23481e-06
5.08091e-07
9.28625e-06
4.08611e-07
9.34426e-06
3.27322e-07
9.37646e-06
2.70895e-07
9.38792e-06
2.17613e-07
9.39885e-06
1.68657e-07
9.41767e-06
1.31168e-07
9.44008e-06
1.07379e-07
9.45733e-06
9.43157e-08
9.46347e-06
8.6727e-08
9.45835e-06
7.98566e-08
9.44626e-06
7.10556e-08
9.43342e-06
5.92365e-08
9.42489e-06
4.4889e-08
9.42268e-06
2.99083e-08
9.42648e-06
1.5838e-08
9.43467e-06
3.46798e-09
-6.61076e-09
9.44508e-06
1.13555e-05
4.62066e-07
1.14401e-05
3.23972e-07
1.15097e-05
2.57693e-07
1.1566e-05
2.14647e-07
1.16142e-05
1.69362e-07
1.16553e-05
1.27632e-07
1.16873e-05
9.91599e-08
1.17072e-05
8.74123e-08
1.17143e-05
8.72475e-08
1.17119e-05
8.91212e-08
1.17066e-05
8.52058e-08
1.17038e-05
7.3789e-08
1.17063e-05
5.67968e-08
1.17134e-05
3.77649e-08
1.17232e-05
2.00966e-08
1.17332e-05
5.79186e-09
1.17423e-05
-5.5756e-09
-1.37627e-08
1.17494e-05
8.40842e-06
4.57146e-07
8.40122e-06
3.31175e-07
8.3961e-06
2.62814e-07
8.41055e-06
2.00192e-07
8.43877e-06
1.41146e-07
8.46705e-06
9.93448e-08
8.48801e-06
7.82044e-08
8.50215e-06
7.3269e-08
8.5129e-06
7.65009e-08
8.52212e-06
7.9901e-08
8.53068e-06
7.66497e-08
8.54052e-06
6.39426e-08
8.553e-06
4.4322e-08
8.56854e-06
2.22245e-08
8.58697e-06
1.66026e-09
8.60619e-06
-1.34266e-08
8.62504e-06
-2.44207e-08
-3.122e-08
8.64249e-06
7.30066e-06
3.86689e-07
7.37286e-06
2.58969e-07
7.4383e-06
1.97377e-07
7.46835e-06
1.70142e-07
7.45984e-06
1.49659e-07
7.43459e-06
1.24588e-07
7.41703e-06
9.57637e-08
7.41991e-06
7.03901e-08
7.44211e-06
5.43046e-08
7.47361e-06
4.84031e-08
7.50373e-06
4.65247e-08
7.52579e-06
4.18808e-08
7.53879e-06
3.1325e-08
7.54529e-06
1.57197e-08
7.5486e-06
-1.6459e-09
7.55303e-06
-1.78572e-08
7.5586e-06
-2.99912e-08
-3.76447e-08
7.56503e-06
6.34627e-06
2.74249e-07
6.39931e-06
2.05934e-07
6.43453e-06
1.6215e-07
6.46797e-06
1.36707e-07
6.48845e-06
1.29175e-07
6.49587e-06
1.17175e-07
6.50068e-06
9.09547e-08
6.51423e-06
5.68413e-08
6.54069e-06
2.78376e-08
6.57845e-06
1.06452e-08
6.62177e-06
3.20073e-09
6.66354e-06
1.19218e-10
6.6972e-06
-2.34025e-09
6.7197e-06
-6.78395e-09
6.73091e-06
-1.28533e-08
6.73225e-06
-1.91963e-08
6.72666e-06
-2.44027e-08
-2.8112e-08
6.71713e-06
5.5248e-06
2.57923e-07
5.54815e-06
1.8258e-07
5.59561e-06
1.14693e-07
5.65291e-06
7.94082e-08
5.70622e-06
7.58681e-08
5.74995e-06
7.34365e-08
5.77988e-06
6.10291e-08
5.79457e-06
4.21537e-08
5.79808e-06
2.43248e-08
5.79723e-06
1.14916e-08
5.79769e-06
2.7422e-09
5.80308e-06
-5.27256e-09
5.81355e-06
-1.28096e-08
5.82689e-06
-2.01229e-08
5.84064e-06
-2.66e-08
5.85273e-06
-3.12862e-08
5.86192e-06
-3.35949e-08
-3.37038e-08
5.86751e-06
4.91286e-06
3.21573e-07
4.89133e-06
2.04108e-07
4.87551e-06
1.30516e-07
4.87257e-06
8.235e-08
4.89352e-06
5.492e-08
4.93442e-06
3.25295e-08
4.98107e-06
1.43844e-08
5.01988e-06
3.34422e-09
5.04415e-06
4.70337e-11
5.05377e-06
1.88086e-09
5.05328e-06
3.22679e-09
5.04746e-06
5.52188e-10
5.04046e-06
-5.81665e-09
5.03561e-06
-1.52675e-08
5.03378e-06
-2.47697e-08
5.03491e-06
-3.24238e-08
5.03853e-06
-3.72147e-08
-3.90621e-08
5.04389e-06
4.19325e-06
2.29891e-07
4.27906e-06
1.18299e-07
4.33195e-06
7.76195e-08
4.34438e-06
6.9927e-08
4.3398e-06
5.95008e-08
4.34119e-06
3.11318e-08
4.3573e-06
-1.71979e-09
4.38608e-06
-2.54353e-08
4.41785e-06
-3.17244e-08
4.44717e-06
-2.74419e-08
4.47108e-06
-2.06801e-08
4.48849e-06
-1.68566e-08
4.50024e-06
-1.75708e-08
4.5063e-06
-2.13285e-08
4.50701e-06
-2.54791e-08
4.50304e-06
-2.84534e-08
4.49556e-06
-2.97372e-08
-3.03372e-08
4.48684e-06
3.66321e-06
1.64734e-07
3.72501e-06
5.64944e-08
3.75696e-06
4.5674e-08
3.77316e-06
5.37254e-08
3.79184e-06
4.08201e-08
3.819e-06
3.9744e-09
3.84734e-06
-3.0064e-08
3.87026e-06
-4.83501e-08
3.88705e-06
-4.85126e-08
3.8996e-06
-3.99975e-08
3.91043e-06
-3.1506e-08
3.9209e-06
-2.73288e-08
3.931e-06
-2.76748e-08
3.94023e-06
-3.05508e-08
3.94838e-06
-3.36308e-08
3.95561e-06
-3.56886e-08
3.96246e-06
-3.65896e-08
-3.71696e-08
3.9693e-06
3.25634e-06
7.28748e-08
3.31202e-06
8.10841e-10
3.32428e-06
3.34147e-08
3.33821e-06
3.97949e-08
3.36761e-06
1.1421e-08
3.39731e-06
-2.57288e-08
3.41545e-06
-4.82046e-08
3.42158e-06
-5.44704e-08
3.42333e-06
-5.02675e-08
3.4265e-06
-4.3172e-08
3.43283e-06
-3.7827e-08
3.44119e-06
-3.56935e-08
3.44989e-06
-3.63706e-08
3.45799e-06
-3.86555e-08
3.46574e-06
-4.13776e-08
3.47387e-06
-4.38215e-08
3.48313e-06
-4.58467e-08
-4.784e-08
3.4938e-06
2.84089e-06
7.95997e-08
2.8967e-06
-5.49954e-08
2.92932e-06
7.9099e-10
2.96358e-06
5.53519e-09
2.99417e-06
-1.917e-08
3.01338e-06
-4.49406e-08
3.02381e-06
-5.86365e-08
3.03148e-06
-6.2134e-08
3.04183e-06
-6.06249e-08
3.05603e-06
-5.7365e-08
3.07184e-06
-5.36384e-08
3.08619e-06
-5.00445e-08
3.09699e-06
-4.71721e-08
3.10387e-06
-4.55328e-08
3.10768e-06
-4.51898e-08
3.10979e-06
-4.59315e-08
3.1113e-06
-4.73519e-08
-4.91308e-08
3.11259e-06
2.53711e-06
3.85448e-08
2.55993e-06
-7.78174e-08
2.59251e-06
-3.17938e-08
2.62861e-06
-3.05633e-08
2.65386e-06
-4.44209e-08
2.66416e-06
-5.52411e-08
2.66434e-06
-5.88113e-08
2.66004e-06
-5.78399e-08
2.6551e-06
-5.56768e-08
2.65103e-06
-5.32961e-08
2.6478e-06
-5.04151e-08
2.64473e-06
-4.69731e-08
2.64097e-06
-4.34102e-08
2.63574e-06
-4.03011e-08
2.62853e-06
-3.79839e-08
2.6191e-06
-3.65021e-08
2.60749e-06
-3.57397e-08
-3.56717e-08
2.59403e-06
2.20149e-06
2.12368e-06
2.09188e-06
2.06132e-06
2.0169e-06
1.96166e-06
1.90285e-06
1.84501e-06
1.78933e-06
1.73603e-06
1.68562e-06
1.63864e-06
1.59523e-06
1.55493e-06
1.51695e-06
1.48045e-06
1.44471e-06
1.40904e-06
-3.15291e-07
3.15291e-07
-6.24787e-07
3.09496e-07
-8.74922e-07
2.50135e-07
-1.03651e-06
1.61589e-07
-1.09163e-06
5.51187e-08
-1.03466e-06
-5.69726e-08
-8.67347e-07
-1.6731e-07
-5.98335e-07
-2.69012e-07
-2.54706e-07
-3.4363e-07
1.32524e-07
-3.8723e-07
5.35924e-07
-4.03399e-07
9.33828e-07
-3.97904e-07
1.31111e-06
-3.77281e-07
1.6584e-06
-3.47287e-07
1.97071e-06
-3.12314e-07
2.24596e-06
-2.75246e-07
2.48353e-06
-2.37576e-07
2.68352e-06
-1.99984e-07
2.84609e-06
-1.62574e-07
2.97135e-06
-1.25261e-07
3.05895e-06
-8.75984e-08
3.10829e-06
-4.93421e-08
3.11909e-06
-1.0795e-08
3.08906e-06
3.00253e-08
3.01628e-06
7.27856e-08
2.89993e-06
1.16343e-07
2.73942e-06
1.60516e-07
2.53588e-06
2.03539e-07
2.28977e-06
2.46106e-07
2.00723e-06
2.82547e-07
1.69164e-06
3.15588e-07
1.35535e-06
3.36286e-07
1.00649e-06
3.48859e-07
6.33205e-07
3.73288e-07
3.09441e-07
3.23764e-07
9.01156e-08
2.19325e-07
-5.47704e-08
1.44886e-07
-1.44926e-07
9.01557e-08
-1.84466e-07
3.954e-08
-1.74641e-07
-9.82471e-09
-1.24711e-07
-4.99306e-08
-4.04258e-08
-8.4285e-08
7.87767e-08
-1.19203e-07
2.2548e-07
-1.46703e-07
3.73266e-07
-1.47787e-07
4.97177e-07
-1.2391e-07
5.86714e-07
-8.95376e-08
6.50697e-07
-6.39825e-08
7.81454e-07
-1.30757e-07
9.70389e-07
-1.88935e-07
1.10202e-06
-1.31633e-07
1.11791e-06
-1.58842e-08
9.85329e-07
1.32577e-07
6.03671e-07
3.81657e-07
2.64729e-08
5.77199e-07
-5.8155e-07
6.08023e-07
-1.15786e-06
5.76312e-07
-1.68926e-06
5.31393e-07
-2.17272e-06
4.83466e-07
-2.60976e-06
4.37044e-07
-3.0042e-06
3.94431e-07
-3.36057e-06
3.56374e-07
-3.6834e-06
3.2283e-07
-3.97674e-06
2.93339e-07
-4.24396e-06
2.67216e-07
-4.48767e-06
2.43717e-07
-4.70982e-06
2.22148e-07
-4.9117e-06
2.01877e-07
-5.09406e-06
1.82366e-07
-5.25724e-06
1.63182e-07
-5.40123e-06
1.43987e-07
-5.52575e-06
1.24521e-07
-5.63037e-06
1.04617e-07
-5.7146e-06
8.42292e-08
-5.77798e-06
6.33776e-08
-5.82005e-06
4.207e-08
-5.84043e-06
2.0384e-08
-5.83896e-06
-1.47047e-09
-5.81727e-06
-2.16903e-08
-5.77533e-06
-4.19361e-08
-5.71348e-06
-6.18488e-08
-5.63245e-06
-8.1036e-08
-5.53301e-06
-9.94342e-08
-5.4162e-06
-1.16814e-07
-5.28315e-06
-1.3305e-07
-5.13502e-06
-1.48134e-07
-4.97285e-06
-1.62165e-07
-4.79748e-06
-1.75368e-07
-4.6095e-06
-1.87988e-07
-4.4093e-06
-2.002e-07
-4.19728e-06
-2.12013e-07
-3.97403e-06
-2.23252e-07
-3.74044e-06
-2.33589e-07
-3.49783e-06
-2.42608e-07
-3.24791e-06
-2.49922e-07
-2.99264e-06
-2.55272e-07
-2.73409e-06
-2.58548e-07
-2.4743e-06
-2.59789e-07
-2.21512e-06
-2.59183e-07
-1.95813e-06
-2.56982e-07
-1.70476e-06
-2.5337e-07
-1.45632e-06
-2.48444e-07
-1.21408e-06
-2.42238e-07
-9.79362e-07
-2.34721e-07
-7.53538e-07
-2.25824e-07
-5.38037e-07
-2.15501e-07
-3.34242e-07
-2.03795e-07
-1.43304e-07
-1.90938e-07
3.40951e-08
-1.77399e-07
1.98221e-07
-1.64126e-07
3.4874e-07
-1.50519e-07
4.86209e-07
-1.37469e-07
6.1157e-07
-1.25361e-07
7.25976e-07
-1.14407e-07
8.30582e-07
-1.04605e-07
9.26328e-07
-9.57466e-08
1.0138e-06
-8.74691e-08
1.09314e-06
-7.93444e-08
1.16416e-06
-7.10199e-08
1.22645e-06
-6.22892e-08
1.27953e-06
-5.30837e-08
1.3231e-06
-4.35684e-08
1.35711e-06
-3.40103e-08
1.38173e-06
-2.46123e-08
1.39753e-06
-1.58056e-08
1.40537e-06
-7.83687e-09
1.40577e-06
-4.02456e-10
1.39945e-06
6.3207e-09
1.38756e-06
1.1885e-08
1.37125e-06
1.63123e-08
1.35144e-06
1.98109e-08
1.32896e-06
2.24853e-08
1.30457e-06
2.43875e-08
1.27899e-06
2.55813e-08
1.25286e-06
2.61296e-08
1.22676e-06
2.60957e-08
1.20119e-06
2.55763e-08
1.17649e-06
2.46979e-08
1.15291e-06
2.35823e-08
1.13058e-06
2.23215e-08
1.10961e-06
2.0979e-08
1.09001e-06
1.95943e-08
1.07182e-06
1.81916e-08
1.05503e-06
1.67895e-08
1.03962e-06
1.54062e-08
1.02556e-06
1.40609e-08
1.01279e-06
1.2773e-08
1.00123e-06
1.15594e-08
9.90796e-07
1.04337e-08
9.81393e-07
9.40321e-09
9.72923e-07
8.47031e-09
9.65288e-07
7.63461e-09
9.58401e-07
6.88737e-09
9.5217e-07
6.23111e-09
9.46502e-07
5.66825e-09
9.41309e-07
5.19252e-09
9.36507e-07
4.80211e-09
9.32017e-07
4.49039e-09
9.27763e-07
4.25399e-09
9.23678e-07
4.08429e-09
9.197e-07
3.97772e-09
9.15766e-07
3.93411e-09
9.11791e-07
3.97526e-09
9.07694e-07
4.09705e-09
9.03358e-07
4.33579e-09
8.98694e-07
4.66389e-09
8.93527e-07
5.16743e-09
8.8777e-07
5.75737e-09
8.81088e-07
6.68201e-09
8.73439e-07
7.64847e-09
8.64119e-07
9.32042e-09
8.53327e-07
1.07914e-08
8.39369e-07
1.3958e-08
8.23423e-07
1.59464e-08
8.00987e-07
2.24354e-08
7.76764e-07
2.42238e-08
7.37702e-07
3.9062e-08
7.01371e-07
3.63303e-08
6.26452e-07
7.49198e-08
5.19459e-08
5.74506e-07
-1.01879e-07
4.17171e-07
-2.33001e-07
4.40617e-07
-3.19201e-07
3.36334e-07
-3.45209e-07
1.87597e-07
-3.20513e-07
3.04233e-08
-2.28435e-07
-1.49051e-07
-4.47743e-08
-3.50971e-07
2.20597e-07
-5.34383e-07
5.43197e-07
-6.66229e-07
8.9208e-07
-7.36113e-07
1.24228e-06
-7.53604e-07
1.57734e-06
-7.32958e-07
1.88872e-06
-6.88663e-07
2.1728e-06
-6.31366e-07
2.42828e-06
-5.67792e-07
2.65473e-06
-5.01694e-07
2.85203e-06
-4.34885e-07
3.0201e-06
-3.68046e-07
3.15881e-06
-3.01284e-07
3.26803e-06
-2.34488e-07
3.34795e-06
-1.67518e-07
3.39893e-06
-1.00318e-07
3.42118e-06
-3.30518e-08
3.41523e-06
3.59825e-08
3.3821e-06
1.05909e-07
3.32243e-06
1.76017e-07
3.23604e-06
2.46907e-07
3.12253e-06
3.1705e-07
2.98281e-06
3.85826e-07
2.81603e-06
4.4932e-07
2.62642e-06
5.05205e-07
2.41392e-06
5.48786e-07
2.18993e-06
5.72849e-07
1.97972e-06
5.83498e-07
1.74412e-06
5.59364e-07
1.45365e-06
5.09795e-07
1.16364e-06
4.34889e-07
9.12438e-07
3.41362e-07
7.20004e-07
2.31973e-07
6.01486e-07
1.08694e-07
5.5739e-07
-5.83504e-09
5.64201e-07
-9.10959e-08
6.07994e-07
-1.62996e-07
7.12882e-07
-2.51591e-07
8.73579e-07
-3.08483e-07
1.05372e-06
-3.04053e-07
1.30777e-06
-3.4359e-07
1.53339e-06
-2.89603e-07
1.50627e-06
-1.03629e-07
1.20079e-06
1.16544e-07
6.08872e-07
4.60282e-07
-1.86085e-07
7.79073e-07
-9.81008e-07
9.275e-07
-1.62952e-06
1.03017e-06
-2.12959e-06
1.07727e-06
-2.56666e-06
1.04509e-06
-2.96714e-06
9.76794e-07
-3.32912e-06
8.93376e-07
-3.65417e-06
8.08511e-07
-3.94572e-06
7.28595e-07
-4.20776e-06
6.56475e-07
-4.44413e-06
5.92738e-07
-4.65813e-06
5.36831e-07
-4.85243e-06
4.87647e-07
-5.0291e-06
4.43883e-07
-5.18963e-06
4.04249e-07
-5.33506e-06
3.67575e-07
-5.46601e-06
3.32831e-07
-5.5828e-06
2.99154e-07
-5.68547e-06
2.65846e-07
-5.77386e-06
2.32382e-07
-5.84773e-06
1.98387e-07
-5.90667e-06
1.63562e-07
-5.95021e-06
1.27762e-07
-5.97784e-06
9.1016e-08
-5.98919e-06
5.34151e-08
-5.98362e-06
1.4817e-08
-5.96112e-06
-2.39769e-08
-5.91996e-06
-6.28431e-08
-5.86012e-06
-1.01777e-07
-5.78178e-06
-1.4019e-07
-5.68526e-06
-1.77554e-07
-5.57139e-06
-2.13311e-07
-5.44118e-06
-2.47025e-07
-5.29582e-06
-2.78411e-07
-5.13652e-06
-3.07432e-07
-4.96434e-06
-3.34344e-07
-4.78006e-06
-3.59644e-07
-4.58414e-06
-3.83909e-07
-4.37679e-06
-4.0755e-07
-4.1582e-06
-4.3061e-07
-3.92875e-06
-4.52702e-07
-3.68924e-06
-4.73099e-07
-3.44093e-06
-4.9091e-07
-3.18556e-06
-5.05301e-07
-2.92512e-06
-5.15708e-07
-2.66175e-06
-5.21913e-07
-2.39752e-06
-5.24025e-07
-2.13424e-06
-5.2246e-07
-1.87344e-06
-5.1778e-07
-1.61643e-06
-5.10382e-07
-1.36441e-06
-5.00463e-07
-1.11859e-06
-4.88064e-07
-8.80225e-07
-4.73083e-07
-6.50742e-07
-4.55307e-07
-4.3166e-07
-4.34584e-07
-2.24454e-07
-4.11001e-07
-3.06769e-08
-3.84715e-07
1.50973e-07
-3.5905e-07
3.18643e-07
-3.31796e-07
4.73303e-07
-3.05179e-07
6.15814e-07
-2.7998e-07
7.4738e-07
-2.56927e-07
8.69382e-07
-2.36408e-07
9.83182e-07
-2.18405e-07
1.08993e-06
-2.0249e-07
1.19037e-06
-1.87911e-07
1.2848e-06
-1.73781e-07
1.3731e-06
-1.59316e-07
1.4548e-06
-1.43992e-07
1.52936e-06
-1.27636e-07
1.59624e-06
-1.1045e-07
1.6551e-06
-9.28716e-08
1.70596e-06
-7.54694e-08
1.74901e-06
-5.88586e-08
1.78468e-06
-4.3512e-08
1.81397e-06
-2.96887e-08
1.83785e-06
-1.7562e-08
1.85695e-06
-7.21322e-09
1.8718e-06
1.46243e-09
1.88297e-06
8.64702e-09
1.89105e-06
1.44022e-08
1.89661e-06
1.88266e-08
1.90011e-06
2.20838e-08
1.9019e-06
2.43315e-08
1.90231e-06
2.56866e-08
1.90159e-06
2.63016e-08
1.89993e-06
2.63518e-08
1.89752e-06
2.59932e-08
1.8945e-06
2.53427e-08
1.891e-06
2.44817e-08
1.88714e-06
2.3455e-08
1.88305e-06
2.22789e-08
1.87888e-06
2.09571e-08
1.8748e-06
1.9494e-08
1.87095e-06
1.79031e-08
1.86752e-06
1.62095e-08
1.86463e-06
1.44483e-08
1.8624e-06
1.26617e-08
1.86091e-06
1.08935e-08
1.86019e-06
9.18636e-09
1.86025e-06
7.58303e-09
1.86103e-06
6.10511e-09
1.86247e-06
4.78536e-09
1.86448e-06
3.6617e-09
1.86693e-06
2.7381e-09
1.86972e-06
2.01921e-09
1.87271e-06
1.49411e-09
1.87582e-06
1.14916e-09
1.87894e-06
9.60105e-10
1.88201e-06
9.14678e-10
1.88493e-06
1.0128e-09
1.88762e-06
1.28637e-09
1.88999e-06
1.72639e-09
1.89193e-06
2.39141e-09
1.89337e-06
3.2292e-09
1.89415e-06
4.38073e-09
1.89424e-06
5.67315e-09
1.89336e-06
7.5637e-09
1.89153e-06
9.46924e-09
1.88819e-06
1.26631e-08
1.88362e-06
1.53652e-08
1.87641e-06
2.11637e-08
1.86764e-06
2.47148e-08
1.854e-06
3.60787e-08
1.83848e-06
3.97411e-08
1.81385e-06
6.36915e-08
1.7863e-06
6.38825e-08
1.74405e-06
1.17174e-07
1.06057e-07
1.68994e-06
1.73185e-07
2.43986e-07
2.91778e-07
3.22024e-07
4.05584e-07
2.22529e-07
5.07029e-07
8.61519e-08
6.2323e-07
-8.5778e-08
7.92744e-07
-3.18565e-07
1.01426e-06
-5.72487e-07
1.26393e-06
-7.84053e-07
1.51702e-06
-9.19319e-07
1.7589e-06
-9.7799e-07
1.98162e-06
-9.76324e-07
2.18582e-06
-9.37165e-07
2.37491e-06
-8.77746e-07
2.55086e-06
-8.07315e-07
2.71419e-06
-7.31131e-07
2.86428e-06
-6.51784e-07
2.99981e-06
-5.70407e-07
3.11913e-06
-4.87367e-07
3.22054e-06
-4.02695e-07
3.30242e-06
-3.1637e-07
3.36328e-06
-2.28379e-07
3.40191e-06
-1.38943e-07
3.41735e-06
-4.84956e-08
3.40975e-06
4.35801e-08
3.37887e-06
1.3679e-07
3.32567e-06
2.29217e-07
3.25212e-06
3.20463e-07
3.15958e-06
4.09584e-07
3.05105e-06
4.94362e-07
2.92821e-06
5.72158e-07
2.79532e-06
6.3809e-07
2.65468e-06
6.89426e-07
2.50807e-06
7.19464e-07
2.36407e-06
7.27495e-07
2.2087e-06
7.14731e-07
2.04888e-06
6.69622e-07
1.88385e-06
5.9992e-07
1.7218e-06
5.03407e-07
1.56906e-06
3.8471e-07
1.41241e-06
2.65343e-07
1.3092e-06
9.7383e-08
1.28111e-06
-6.30084e-08
1.28168e-06
-1.63567e-07
1.32515e-06
-2.95062e-07
1.46733e-06
-4.50661e-07
1.59126e-06
-4.2798e-07
1.43675e-06
-1.89084e-07
9.99345e-07
1.47802e-07
2.65365e-07
6.3035e-07
-6.03074e-07
9.84983e-07
-1.33645e-06
1.19366e-06
-1.8912e-06
1.33382e-06
-2.35754e-06
1.39384e-06
-2.72544e-06
1.39808e-06
-3.00244e-06
1.35427e-06
-3.23296e-06
1.2756e-06
-3.43971e-06
1.18354e-06
-3.63438e-06
1.08805e-06
-3.82125e-06
9.95381e-07
-4.00182e-06
9.0916e-07
-4.17616e-06
8.3082e-07
-4.3439e-06
7.60471e-07
-4.50449e-06
6.9742e-07
-4.6574e-06
6.40555e-07
-4.80214e-06
5.88628e-07
-4.93825e-06
5.4036e-07
-5.06523e-06
4.94552e-07
-5.18251e-06
4.50107e-07
-5.28942e-06
4.0607e-07
-5.38521e-06
3.61636e-07
-5.46901e-06
3.16179e-07
-5.53987e-06
2.69254e-07
-5.59689e-06
2.20574e-07
-5.63911e-06
1.6999e-07
-5.6656e-06
1.17498e-07
-5.67542e-06
6.3235e-08
-5.66778e-06
7.17937e-09
-5.64267e-06
-4.90826e-08
-5.59928e-06
-1.06232e-07
-5.53766e-06
-1.63398e-07
-5.45806e-06
-2.19794e-07
-5.36099e-06
-2.74618e-07
-5.24732e-06
-3.26982e-07
-5.11823e-06
-3.76119e-07
-4.9751e-06
-4.21536e-07
-4.81936e-06
-4.63178e-07
-4.65217e-06
-5.01531e-07
-4.47428e-06
-5.37538e-07
-4.28587e-06
-5.72318e-07
-4.08671e-06
-6.06706e-07
-3.87648e-06
-6.40846e-07
-3.65511e-06
-6.74063e-07
-3.42316e-06
-7.05049e-07
-3.18186e-06
-7.32218e-07
-2.93304e-06
-7.54121e-07
-2.67893e-06
-7.69814e-07
-2.42185e-06
-7.78992e-07
-2.16394e-06
-7.81936e-07
-1.907e-06
-7.79403e-07
-1.65242e-06
-7.72354e-07
-1.40139e-06
-7.61415e-07
-1.15497e-06
-7.46882e-07
-9.14355e-07
-7.28681e-07
-6.80995e-07
-7.06442e-07
-4.56507e-07
-6.79795e-07
-2.42684e-07
-6.48407e-07
-4.16686e-08
-6.12016e-07
1.46734e-07
-5.73117e-07
3.18716e-07
-5.31031e-07
4.74551e-07
-4.87632e-07
6.14732e-07
-4.45359e-07
7.41008e-07
-4.06256e-07
8.55784e-07
-3.71703e-07
9.61541e-07
-3.42165e-07
1.06044e-06
-3.17304e-07
1.15411e-06
-2.96164e-07
1.24357e-06
-2.77363e-07
1.32918e-06
-2.59398e-07
1.41082e-06
-2.40958e-07
1.48797e-06
-2.21143e-07
1.55991e-06
-1.99571e-07
1.62586e-06
-1.76395e-07
1.68517e-06
-1.5219e-07
1.73752e-06
-1.27819e-07
1.7829e-06
-1.04237e-07
1.82165e-06
-8.22567e-08
1.85441e-06
-6.24542e-08
1.88197e-06
-4.51243e-08
1.90507e-06
-3.03106e-08
1.92442e-06
-1.78864e-08
1.94065e-06
-7.58533e-09
1.95422e-06
8.31354e-10
1.9656e-06
7.44949e-09
1.97513e-06
1.25536e-08
1.9832e-06
1.62602e-08
1.99016e-06
1.87333e-08
1.99629e-06
2.01704e-08
2.00181e-06
2.08332e-08
2.00684e-06
2.0958e-08
2.01145e-06
2.07347e-08
2.01563e-06
2.03031e-08
2.01935e-06
1.97369e-08
2.02257e-06
1.90521e-08
2.0253e-06
1.82288e-08
2.02757e-06
1.72283e-08
2.02946e-06
1.60096e-08
2.03113e-06
1.45438e-08
2.03275e-06
1.28244e-08
2.03454e-06
1.08712e-08
2.03671e-06
8.72825e-09
2.03943e-06
6.46335e-09
2.04284e-06
4.1755e-09
2.04703e-06
1.91488e-09
2.05203e-06
-2.14808e-10
2.0578e-06
-2.11128e-09
2.0643e-06
-3.76074e-09
2.07142e-06
-5.10663e-09
2.07905e-06
-6.13515e-09
2.08705e-06
-6.84964e-09
2.09529e-06
-7.27953e-09
2.10365e-06
-7.44398e-09
2.11203e-06
-7.3682e-09
2.12034e-06
-7.02563e-09
2.12852e-06
-6.45022e-09
2.13648e-06
-5.57175e-09
2.1442e-06
-4.48945e-09
2.15158e-06
-2.99391e-09
2.15858e-06
-1.33423e-09
2.16506e-06
1.08364e-09
2.171e-06
3.53312e-09
2.17614e-06
7.5266e-09
2.18046e-06
1.10431e-08
2.18358e-06
1.8042e-08
2.18534e-06
2.29518e-08
2.18548e-06
3.59403e-08
2.18295e-06
4.22697e-08
2.17909e-06
6.75512e-08
2.1686e-06
7.43755e-08
2.16118e-06
1.24599e-07
1.33446e-07
2.13379e-06
1.98645e-07
4.53407e-08
3.70435e-07
1.50234e-07
5.38078e-07
5.48861e-08
7.56828e-07
-1.32598e-07
1.04337e-06
-3.72324e-07
1.35546e-06
-6.30648e-07
1.63832e-06
-8.55348e-07
1.86418e-06
-1.00991e-06
2.03353e-06
-1.08867e-06
2.1632e-06
-1.10766e-06
2.27345e-06
-1.08657e-06
2.37771e-06
-1.04142e-06
2.48151e-06
-9.8155e-07
2.5861e-06
-9.11898e-07
2.69027e-06
-8.35302e-07
2.79188e-06
-7.53398e-07
2.88841e-06
-6.66937e-07
2.97716e-06
-5.76114e-07
3.05544e-06
-4.80973e-07
3.12079e-06
-3.81721e-07
3.17134e-06
-2.78933e-07
3.20587e-06
-1.73473e-07
3.22413e-06
-6.67583e-08
3.2256e-06
4.21113e-08
3.20925e-06
1.5314e-07
3.1758e-06
2.62666e-07
3.12521e-06
3.71054e-07
3.05758e-06
4.77217e-07
2.97277e-06
5.79167e-07
2.87176e-06
6.73172e-07
2.7562e-06
7.53654e-07
2.62956e-06
8.16059e-07
2.49837e-06
8.50662e-07
2.36566e-06
8.60197e-07
2.24321e-06
8.3719e-07
2.12633e-06
7.86498e-07
2.00742e-06
7.18831e-07
1.8946e-06
6.16225e-07
1.76873e-06
5.10583e-07
1.66716e-06
3.66913e-07
1.55517e-06
2.09368e-07
1.41812e-06
7.4045e-08
1.4389e-06
-1.84347e-07
1.5457e-06
-4.01865e-07
1.40754e-06
-3.12504e-07
9.27557e-07
5.20088e-08
1.36409e-07
6.02064e-07
-7.21499e-07
1.00571e-06
-1.39067e-06
1.29952e-06
-1.90977e-06
1.50408e-06
-2.32334e-06
1.60723e-06
-2.62563e-06
1.63611e-06
-2.85118e-06
1.6194e-06
-3.02268e-06
1.56957e-06
-3.16304e-06
1.49463e-06
-3.29273e-06
1.40529e-06
-3.42084e-06
1.31165e-06
-3.55216e-06
1.21938e-06
-3.68749e-06
1.13071e-06
-3.82567e-06
1.04733e-06
-3.96485e-06
9.7e-07
-4.10321e-06
8.9883e-07
-4.23918e-06
8.33393e-07
-4.37147e-06
7.7285e-07
-4.49901e-06
7.16165e-07
-4.62083e-06
6.62183e-07
-4.73603e-06
6.09751e-07
-4.84369e-06
5.57762e-07
-4.94283e-06
5.05215e-07
-5.03245e-06
4.5125e-07
-5.11145e-06
3.95184e-07
-5.17872e-06
3.36523e-07
-5.23312e-06
2.74971e-07
-5.27355e-06
2.10424e-07
-5.29896e-06
1.42905e-07
-5.30828e-06
7.25572e-08
-5.30036e-06
-7.39872e-10
-5.27526e-06
-7.41879e-08
-5.2321e-06
-1.4939e-07
-5.17074e-06
-2.24756e-07
-5.09148e-06
-2.99056e-07
-4.99511e-06
-3.70986e-07
-4.88289e-06
-4.39204e-07
-4.75649e-06
-5.0252e-07
-4.61783e-06
-5.60197e-07
-4.46875e-06
-6.12256e-07
-4.31064e-06
-6.5964e-07
-4.14409e-06
-7.04092e-07
-3.96873e-06
-7.47674e-07
-3.78345e-06
-7.91987e-07
-3.58689e-06
-8.37401e-07
-3.37818e-06
-8.82777e-07
-3.15738e-06
-9.25849e-07
-2.9257e-06
-9.63894e-07
-2.68537e-06
-9.94452e-07
-2.43921e-06
-1.01598e-06
-2.1901e-06
-1.0281e-06
-1.94053e-06
-1.03151e-06
-1.69223e-06
-1.0277e-06
-1.44605e-06
-1.01854e-06
-1.20231e-06
-1.00516e-06
-9.61303e-07
-9.87885e-07
-7.23915e-07
-9.6607e-07
-4.92e-07
-9.38357e-07
-2.68041e-07
-9.03754e-07
-5.44365e-08
-8.62012e-07
1.4884e-07
-8.15292e-07
3.39072e-07
-7.6335e-07
5.1499e-07
-7.06949e-07
6.74155e-07
-6.46797e-07
8.1398e-07
-5.85185e-07
9.33846e-07
-5.26122e-07
1.03605e-06
-4.73906e-07
1.12502e-06
-4.31136e-07
1.20554e-06
-3.97824e-07
1.28135e-06
-3.71969e-07
1.35462e-06
-3.50632e-07
1.4261e-06
-3.30884e-07
1.49557e-06
-3.10428e-07
1.56232e-06
-2.87894e-07
1.62556e-06
-2.62805e-07
1.68452e-06
-2.35362e-07
1.73855e-06
-2.06215e-07
1.78704e-06
-1.76307e-07
1.82958e-06
-1.4678e-07
1.86612e-06
-1.188e-07
1.89701e-06
-9.33433e-08
1.92291e-06
-7.1018e-08
1.94462e-06
-5.20276e-08
1.96297e-06
-3.62376e-08
1.97865e-06
-2.32616e-08
1.99211e-06
-1.26279e-08
2.00349e-06
-3.92991e-09
2.01283e-06
3.21695e-09
2.02011e-06