/*--------------------------------*- C++ -*----------------------------------*\
  =========                 |
  \\      /  F ield         | OpenFOAM: The Open Source CFD Toolbox
   \\    /   O peration     | Website:  https://openfoam.org
    \\  /    A nd           | Version:  7
     \\/     M anipulation  |
\*---------------------------------------------------------------------------*/
FoamFile
{
    version     2.0;
    format      ascii;
    class       volScalarField;
    location    "0.068";
    object      pMean;
}
// * * * * * * * * * * * * * * * * * * * * * * * * * * * * * * * * * * * * * //

dimensions      [0 2 -2 0 0 0 0];

internalField   nonuniform List<scalar> 
12225
(
-2.0909
-0.942523
-0.510797
-0.398914
-0.342827
-0.303489
-0.282482
-0.282842
-0.301182
-0.330468
-0.363575
-0.396205
-0.426013
-0.45633
-0.489405
-0.546416
-0.631763
-0.881378
-1.76344
-0.931118
-0.514445
-0.395025
-0.343476
-0.306836
-0.285876
-0.285076
-0.302106
-0.330088
-0.362303
-0.393665
-0.423606
-0.451449
-0.487361
-0.530285
-0.619134
-0.713954
-1.59167
-0.95055
-0.538084
-0.397005
-0.345676
-0.310983
-0.288756
-0.285044
-0.298591
-0.323348
-0.352631
-0.382595
-0.41103
-0.440548
-0.472853
-0.51847
-0.579299
-0.66805
-1.3939
-0.914646
-0.53715
-0.385603
-0.336278
-0.306733
-0.286237
-0.28106
-0.292166
-0.31436
-0.341898
-0.370311
-0.398886
-0.427332
-0.460659
-0.500432
-0.554939
-0.622289
-1.22593
-0.878438
-0.542571
-0.38293
-0.33012
-0.303688
-0.284911
-0.278434
-0.286762
-0.306335
-0.331581
-0.358649
-0.385934
-0.41429
-0.445649
-0.482944
-0.52848
-0.580546
-1.06788
-0.823968
-0.534705
-0.374216
-0.316858
-0.293272
-0.277764
-0.271449
-0.277921
-0.295226
-0.318728
-0.34455
-0.371116
-0.39865
-0.428532
-0.462584
-0.5012
-0.543837
-0.925836
-0.760126
-0.518735
-0.364369
-0.302551
-0.280564
-0.268514
-0.263362
-0.268537
-0.28375
-0.30536
-0.329869
-0.355457
-0.382051
-0.410329
-0.441241
-0.474724
-0.510028
-0.794156
-0.687046
-0.491911
-0.349538
-0.285192
-0.263641
-0.254716
-0.2514
-0.25609
-0.269723
-0.289858
-0.313268
-0.337925
-0.36346
-0.390106
-0.418401
-0.447967
-0.478191
-0.673742
-0.609344
-0.455457
-0.328886
-0.264941
-0.243275
-0.236979
-0.236136
-0.241335
-0.253935
-0.272663
-0.294987
-0.318854
-0.343486
-0.368754
-0.394898
-0.421503
-0.448166
-0.560253
-0.528015
-0.409424
-0.301027
-0.240778
-0.219296
-0.21501
-0.21666
-0.222998
-0.235347
-0.253214
-0.274627
-0.297692
-0.32146
-0.345578
-0.370077
-0.394598
-0.418873
-0.451187
-0.44409
-0.355148
-0.265611
-0.21183
-0.191586
-0.189059
-0.193271
-0.201402
-0.21413
-0.231531
-0.252363
-0.274913
-0.298108
-0.321409
-0.344756
-0.367823
-0.390494
-0.357722
-0.365305
-0.298289
-0.225799
-0.179952
-0.162245
-0.161449
-0.167879
-0.177978
-0.191695
-0.209232
-0.229764
-0.251964
-0.274816
-0.297667
-0.32037
-0.342627
-0.364421
-0.266756
-0.286477
-0.237626
-0.180634
-0.143416
-0.129328
-0.130631
-0.139312
-0.151466
-0.16656
-0.184693
-0.205415
-0.227636
-0.250415
-0.273075
-0.295462
-0.317266
-0.338547
-0.155666
-0.191681
-0.161699
-0.120829
-0.0942515
-0.0858862
-0.0904996
-0.102043
-0.116981
-0.134213
-0.153605
-0.174895
-0.19739
-0.220372
-0.243203
-0.265654
-0.287417
-0.308577
-0.0394965
-0.0853769
-0.0696416
-0.0441284
-0.0297528
-0.0292701
-0.038832
-0.0541078
-0.0722868
-0.0922997
-0.113849
-0.136675
-0.160234
-0.183969
-0.207364
-0.230258
-0.252403
-0.273913
0.091888
0.0418693
0.0449164
0.0550768
0.055711
0.0460641
0.0295106
0.00894821
-0.0137545
-0.0376485
-0.0623219
-0.0875405
-0.112975
-0.138281
-0.16306
-0.187154
-0.210353
-0.232714
0.241182
0.189711
0.184186
0.180089
0.166036
0.14405
0.117948
0.0899307
0.0610353
0.0317477
0.00239647
-0.0267545
-0.0554185
-0.0833787
-0.110432
-0.136548
-0.161625
-0.18581
0.436506
0.375201
0.355125
0.335133
0.305262
0.268938
0.230696
0.192742
0.155748
0.119743
0.0846961
0.0506618
0.0178167
-0.0137504
-0.0439575
-0.0728686
-0.100392
-0.126624
0.704608
0.623193
0.581066
0.539404
0.488884
0.433263
0.377654
0.324561
0.274481
0.227075
0.182062
0.139411
0.0992176
0.0614592
0.0260199
-0.00738754
-0.0389444
-0.0689768
0.951714
0.865464
0.806823
0.741221
0.66605
0.589738
0.518645
0.454086
0.394787
0.339272
0.286827
0.237362
0.190977
0.147598
0.107068
0.0691313
0.0336301
0.000298148
1.18928
1.09251
1.0101
0.914221
0.810372
0.710392
0.620298
0.539952
0.467236
0.400519
0.339233
0.283213
0.232123
0.185337
0.142205
0.102102
0.0646852
0.0295674
1.43571
1.31644
1.19865
1.06806
0.939943
0.826566
0.728963
0.642011
0.561506
0.486314
0.41696
0.353828
0.296597
0.244504
0.196765
0.152645
0.111692
0.0735027
1.71517
1.54622
1.36865
1.18658
1.02324
0.888067
0.77605
0.67826
0.589629
0.509082
0.436802
0.372359
0.314597
0.262122
0.213934
0.169429
0.128334
0.0902463
2.00028
1.77982
1.53904
1.31574
1.13618
0.995523
0.875861
0.765349
0.662697
0.57049
0.489844
0.419372
0.356758
0.300122
0.248377
0.200834
0.157037
0.116444
2.2755
1.96988
1.62771
1.34871
1.15366
1.01159
0.889086
0.774794
0.670199
0.578328
0.49882
0.429075
0.366578
0.309756
0.257861
0.210379
0.166921
0.126939
2.64442
2.21796
1.77278
1.45359
1.25112
1.09897
0.957918
0.825411
0.708989
0.610868
0.527662
0.454914
0.389704
0.330627
0.276979
0.228108
0.183385
0.142114
2.96028
2.30512
1.75536
1.43935
1.25928
1.11043
0.964783
0.829586
0.713614
0.616662
0.533941
0.461073
0.395598
0.336355
0.282653
0.233817
0.189219
0.148206
3.47913
2.53081
1.83403
1.50238
1.31928
1.15281
0.991786
0.849486
0.730884
0.632218
0.547754
0.473352
0.406736
0.346712
0.292455
0.243229
0.198276
0.156902
3.70745
2.49355
1.79729
1.51252
1.33229
1.15844
0.993897
0.851845
0.734106
0.63574
0.551179
0.476634
0.40994
0.34992
0.295675
0.246555
0.201729
0.160724
4.51537
2.53913
1.79803
1.54613
1.35386
1.16915
1.00143
0.858831
0.740598
0.64159
0.556465
0.481509
0.414525
0.354297
0.299893
0.250679
0.205824
0.165
-0.742938
-0.749282
-0.759138
-0.765979
-0.768641
-0.770919
-0.779186
-0.800673
-0.84079
-0.901982
-0.983838
-1.0833
-1.19584
-1.31583
-1.437
-1.55272
-1.65639
-1.74198
-1.80482
-1.84224
-1.85366
-1.84091
-1.80848
-1.76304
-1.71222
-1.66332
-1.62239
-1.5941
-1.57956
-1.57935
-1.59222
-1.61841
-1.65731
-1.70351
-1.75284
-1.80514
-1.86372
-1.9312
-2.00849
-2.09958
-2.20578
-2.32454
-2.45107
-2.58359
-2.71719
-2.84748
-2.97316
-3.09174
-3.19697
-3.28345
-3.34796
-3.387
-3.39969
-3.38929
-3.36076
-3.31681
-3.2558
-3.17582
-3.07612
-2.95704
-2.81973
-2.6658
-2.49713
-2.31566
-2.1233
-1.92175
-1.71249
-1.49669
-1.27521
-1.04863
-0.817379
-0.581789
-0.342155
-0.0987743
0.148055
0.398043
0.650879
0.906187
1.1634
1.4217
1.68006
1.93727
2.19212
2.4435
2.69047
2.93232
3.16855
3.39869
3.62228
3.83874
4.04735
4.24719
4.43719
4.61616
4.78291
4.93631
5.0754
5.19949
5.30825
5.40171
5.48022
5.54442
5.59519
5.63358
5.66083
5.67822
5.68708
5.68871
5.68435
5.67518
5.66222
5.6464
5.62846
5.60907
5.58875
5.56791
5.54689
5.52593
5.50522
5.48492
5.46512
5.44589
5.42728
5.40932
5.39202
5.37538
5.35937
5.34398
5.32919
5.31498
5.30133
5.2882
5.27558
5.26343
5.25174
5.24046
5.22959
5.21909
5.20894
5.1991
5.18956
5.18029
5.17127
5.16247
5.15388
5.14546
5.13721
5.12909
5.12111
5.11322
5.10543
5.09771
5.09005
5.08245
5.07488
5.06735
5.05986
5.05238
5.04494
5.03754
5.03019
5.02289
5.01569
5.0086
5.00168
4.99498
4.98856
4.98256
4.97706
4.97231
4.96842
4.96589
4.96486
4.96633
4.97046
4.9794
4.99348
5.01725
5.05326
5.10529
-0.801395
-0.811669
-0.827724
-0.839888
-0.846323
-0.850286
-0.859161
-0.880457
-0.9211
-0.983284
-1.06657
-1.1681
-1.28344
-1.40706
-1.53275
-1.65386
-1.76373
-1.85614
-1.92587
-1.96902
-1.9837
-1.97091
-1.93478
-1.88213
-1.82143
-1.76176
-1.7109
-1.67453
-1.65582
-1.65638
-1.67651
-1.71283
-1.76312
-1.82551
-1.89222
-1.95653
-2.02692
-2.11407
-2.21119
-2.31212
-2.42685
-2.55303
-2.68051
-2.81186
-2.94926
-3.08195
-3.20564
-3.32059
-3.4192
-3.49553
-3.55007
-3.58377
-3.59266
-3.57505
-3.53641
-3.48006
-3.40543
-3.31156
-3.19829
-3.06633
-2.91707
-2.75232
-2.57407
-2.38428
-2.18479
-1.97722
-1.7629
-1.54288
-1.31788
-1.0884
-0.854758
-0.617209
-0.375958
-0.131216
0.116783
0.367803
0.621591
0.877831
1.13601
1.39535
1.6548
1.91313
2.16907
2.42144
2.66926
2.91184
3.1487
3.37944
3.60365
3.82081
4.03022
4.23098
4.42202
4.60212
4.77004
4.92461
5.06483
5.18998
5.2997
5.39403
5.4733
5.53817
5.58952
5.62842
5.65611
5.67389
5.68308
5.685
5.68091
5.67199
5.65927
5.64366
5.62594
5.60676
5.58664
5.56599
5.54514
5.52434
5.50378
5.4836
5.4639
5.44476
5.42624
5.40835
5.39111
5.37453
5.35858
5.34326
5.32854
5.3144
5.30082
5.28775
5.27519
5.26309
5.25144
5.24021
5.22937
5.2189
5.20877
5.19896
5.18944
5.18018
5.17117
5.16239
5.1538
5.14539
5.13714
5.12903
5.12104
5.11316
5.10536
5.09764
5.08999
5.08238
5.07482
5.06729
5.05978
5.05231
5.04486
5.03745
5.03009
5.02278
5.01556
5.00845
5.0015
4.99476
4.9883
4.98224
4.97667
4.9718
4.9678
4.96504
4.96381
4.9648
4.96859
4.97629
4.98958
5.00907
5.04008
5.06907
-0.850409
-0.860566
-0.879334
-0.897673
-0.91407
-0.929983
-0.95163
-0.985754
-1.03781
-1.11002
-1.202
-1.3115
-1.43474
-1.56671
-1.70129
-1.83154
-1.95009
-2.04984
-2.12492
-2.17111
-2.18618
-2.1713
-2.131
-2.07221
-2.00295
-1.93135
-1.86543
-1.81258
-1.77903
-1.76959
-1.78668
-1.82895
-1.88996
-1.96384
-2.04953
-2.14808
-2.25773
-2.3778
-2.50777
-2.64379
-2.7823
-2.92296
-3.06496
-3.20514
-3.34265
-3.47559
-3.59882
-3.70732
-3.79922
-3.87031
-3.91525
-3.93468
-3.92903
-3.89788
-3.84239
-3.76421
-3.66482
-3.54552
-3.40772
-3.25311
-3.08356
-2.90096
-2.70718
-2.50403
-2.29314
-2.07594
-1.8536
-1.62702
-1.39676
-1.16309
-0.926083
-0.685753
-0.442148
-0.195388
0.0543298
0.306799
0.561866
0.819403
1.07911
1.3403
1.60187
1.86247
2.12064
2.37507
2.6247
2.86882
3.10703
3.33903
3.56453
3.78311
3.99417
4.19682
4.38996
4.57233
4.74261
4.89953
5.04201
5.16928
5.28094
5.377
5.45783
5.52407
5.57664
5.61663
5.64526
5.66386
5.67379
5.67636
5.67288
5.66452
5.65233
5.63724
5.62002
5.60132
5.58167
5.56148
5.54106
5.52066
5.50047
5.48062
5.46123
5.44237
5.4241
5.40644
5.38941
5.37302
5.35725
5.34209
5.32752
5.31351
5.30005
5.2871
5.27464
5.26265
5.25108
5.23993
5.22917
5.21876
5.20868
5.19891
5.18942
5.18019
5.1712
5.16242
5.15384
5.14543
5.13718
5.12906
5.12107
5.11318
5.10538
5.09765
5.08999
5.08237
5.07479
5.06725
5.05974
5.05224
5.04478
5.03735
5.02996
5.02262
5.01536
5.0082
5.00119
4.99437
4.98781
4.98161
4.97588
4.97078
4.9665
4.9633
4.96158
4.96166
4.96445
4.97007
4.98074
4.99449
5.01689
5.03174
-0.86992
-0.876605
-0.893763
-0.919471
-0.951655
-0.989405
-1.03511
-1.09269
-1.16582
-1.25665
-1.3655
-1.49103
-1.63011
-1.77787
-1.92786
-2.0724
-2.20328
-2.31248
-2.39347
-2.44126
-2.45382
-2.43301
-2.38451
-2.31652
-2.23802
-2.15819
-2.08545
-2.02762
-1.99072
-1.98157
-2.00035
-2.04392
-2.10927
-2.19375
-2.2956
-2.41469
-2.55036
-2.70018
-2.8607
-3.02817
-3.19855
-3.36746
-3.53197
-3.69066
-3.84103
-3.97981
-4.10567
-4.21287
-4.29582
-4.35423
-4.38589
-4.38886
-4.36267
-4.30795
-4.2263
-4.11988
-3.99117
-3.84262
-3.67678
-3.49605
-3.30265
-3.09859
-2.8858
-2.66597
-2.44062
-2.21105
-1.97837
-1.74335
-1.50639
-1.26747
-1.0263
-0.78258
-0.536092
-0.286842
-0.0350092
0.219212
0.475771
0.73478
0.996299
1.2599
1.52447
1.7884
2.04996
2.30755
2.55996
2.80642
3.04664
3.28048
3.50785
3.72849
3.94189
4.14722
4.34336
4.52898
4.70263
4.86289
5.00859
5.13884
5.25323
5.35175
5.43479
5.50303
5.55738
5.59895
5.62899
5.64886
5.65992
5.66355
5.66102
5.65354
5.64217
5.62785
5.61138
5.59341
5.57447
5.55495
5.53517
5.51537
5.49572
5.47637
5.45743
5.43896
5.42103
5.40368
5.38692
5.37077
5.35522
5.34026
5.32587
5.31204
5.29873
5.28593
5.2736
5.26172
5.25027
5.23922
5.22854
5.2182
5.20819
5.19848
5.18904
5.17986
5.1709
5.16215
5.1536
5.14521
5.13697
5.12887
5.12089
5.11301
5.10522
5.0975
5.08983
5.08222
5.07464
5.0671
5.05958
5.05208
5.0446
5.03715
5.02973
5.02236
5.01506
5.00785
5.00076
4.99385
4.98718
4.98082
4.97489
4.96951
4.96489
4.96119
4.95884
4.95794
4.95942
4.96294
4.97043
4.97919
4.99294
4.99645
-0.887449
-0.891479
-0.912775
-0.949217
-0.998396
-1.0579
-1.12752
-1.20927
-1.30603
-1.41999
-1.55185
-1.7003
-1.86196
-2.03138
-2.20132
-2.36327
-2.50808
-2.62697
-2.71292
-2.76031
-2.76801
-2.7396
-2.68273
-2.60713
-2.52303
-2.43995
-2.36633
-2.30952
-2.27534
-2.26833
-2.29028
-2.34002
-2.41518
-2.51407
-2.63541
-2.77794
-2.93951
-3.11688
-3.30614
-3.50235
-3.70001
-3.89434
-4.08158
-4.25832
-4.42233
-4.56968
-4.69604
-4.79908
-4.87492
-4.9205
-4.93346
-4.91282
-4.85902
-4.77363
-4.65948
-4.51978
-4.35786
-4.17732
-3.98142
-3.77291
-3.55421
-3.32746
-3.0945
-2.85688
-2.61601
-2.37311
-2.12923
-1.88509
-1.64093
-1.39651
-1.15117
-0.904108
-0.654743
-0.402894
-0.148766
0.107313
0.365286
0.625559
0.88876
1.15499
1.42324
1.69155
1.95772
2.21971
2.47601
2.72574
2.9687
3.20497
3.43471
3.65789
3.87417
4.08283
4.28274
4.47246
4.65037
4.81487
4.96461
5.09863
5.21643
5.31804
5.40388
5.47464
5.53128
5.57493
5.60687
5.62845
5.64107
5.64612
5.6449
5.63863
5.6284
5.61516
5.59971
5.58271
5.5647
5.54607
5.52713
5.50812
5.4892
5.47052
5.45217
5.43424
5.41679
5.39987
5.38349
5.36768
5.35244
5.33776
5.32363
5.31003
5.29694
5.28433
5.27218
5.26047
5.24916
5.23824
5.22768
5.21746
5.20754
5.19791
5.18854
5.17942
5.17052
5.16181
5.15329
5.14494
5.13673
5.12865
5.12068
5.11282
5.10503
5.09732
5.08966
5.08205
5.07447
5.06693
5.0594
5.05189
5.0444
5.03692
5.02948
5.02207
5.01471
5.00744
5.00027
4.99325
4.98644
4.9799
4.97374
4.96805
4.96302
4.95877
4.95566
4.95372
4.95368
4.95508
4.95916
4.96333
4.96912
4.96492
-0.924436
-0.931662
-0.960746
-1.00886
-1.07213
-1.14747
-1.23542
-1.3384
-1.45892
-1.59835
-1.75622
-1.92977
-2.11429
-2.30352
-2.48994
-2.66502
-2.81966
-2.945
-3.03343
-3.08038
-3.08567
-3.05436
-2.99532
-2.91953
-2.8382
-2.76108
-2.69615
-2.65014
-2.62815
-2.63349
-2.66776
-2.73066
-2.82132
-2.93878
-3.08134
-3.24674
-3.43168
-3.6321
-3.84311
-4.05927
-4.27511
-4.48588
-4.68794
-4.87756
-5.05038
-5.20252
-5.3296
-5.42724
-5.49161
-5.51961
-5.50966
-5.46193
-5.37782
-5.26027
-5.11262
-4.93885
-4.74336
-4.53036
-4.30375
-4.06702
-3.82301
-3.5738
-3.321
-3.06585
-2.80945
-2.55288
-2.29719
-2.04319
-1.79129
-1.54121
-1.29193
-1.04196
-0.789958
-0.535304
-0.278368
-0.0199705
0.239437
0.500378
0.764331
1.03254
1.30451
1.57784
1.84949
2.11683
2.37788
2.63157
2.87774
3.11672
3.34898
3.57481
3.79412
4.00636
4.21043
4.40477
4.58758
4.75701
4.91148
5.04987
5.17166
5.27685
5.36591
5.43959
5.49891
5.54506
5.57933
5.60307
5.61766
5.62449
5.62492
5.62019
5.61142
5.59956
5.58541
5.56964
5.55277
5.53522
5.51729
5.49924
5.48121
5.46334
5.44573
5.42847
5.41161
5.39521
5.37931
5.36392
5.34905
5.33471
5.32089
5.30756
5.29472
5.28234
5.2704
5.25888
5.24774
5.23697
5.22655
5.21644
5.20663
5.1971
5.18781
5.17876
5.16992
5.16127
5.1528
5.14448
5.13631
5.12826
5.12032
5.11248
5.10471
5.09702
5.08937
5.08178
5.07421
5.06666
5.05914
5.05162
5.04412
5.03662
5.02915
5.0217
5.0143
5.00695
4.99969
4.99255
4.98559
4.97885
4.97244
4.9664
4.96093
4.95608
4.95215
4.94912
4.94747
4.94674
4.9475
4.94754
4.94675
4.93686
-0.966885
-0.985454
-1.02778
-1.08677
-1.15944
-1.24622
-1.34934
-1.47122
-1.61315
-1.7745
-1.95253
-2.14305
-2.34097
-2.54049
-2.73507
-2.91723
-3.07816
-3.20902
-3.30217
-3.3536
-3.36402
-3.33902
-3.28813
-3.22321
-3.15573
-3.09565
-3.05073
-3.02674
-3.02774
-3.05626
-3.11328
-3.1985
-3.31115
-3.44976
-3.61218
-3.79567
-3.99677
-4.21144
-4.43528
-4.66348
-4.89128
-5.11451
-5.32919
-5.53112
-5.71509
-5.87542
-6.00663
-6.10348
-6.16161
-6.17816
-6.15182
-6.08203
-5.97007
-5.81897
-5.63346
-5.41953
-5.18334
-4.93084
-4.66724
-4.39675
-4.12253
-3.8468
-3.57109
-3.29634
-3.02309
-2.75176
-2.48289
-2.21737
-1.95608
-1.69906
-1.44512
-1.19197
-0.937059
-0.678787
-0.4175
-0.155057
0.10712
0.369188
0.633101
0.901827
1.17655
1.45472
1.73213
2.00511
2.27113
2.52895
2.7784
3.02004
3.25468
3.48294
3.70508
3.92075
4.12895
4.32806
4.51602
4.69074
4.8504
4.99365
5.11984
5.22897
5.32151
5.39837
5.46066
5.50962
5.54657
5.57283
5.58977
5.59877
5.60119
5.59831
5.59128
5.58107
5.5685
5.55421
5.53871
5.52243
5.50569
5.48872
5.47171
5.45478
5.43804
5.42155
5.40539
5.38962
5.37427
5.35938
5.34496
5.33102
5.31755
5.30456
5.29201
5.2799
5.26821
5.2569
5.24597
5.23538
5.22513
5.21517
5.2055
5.19608
5.1869
5.17794
5.16918
5.1606
5.15218
5.14392
5.13579
5.12778
5.11988
5.11206
5.10433
5.09665
5.08903
5.08145
5.07389
5.06636
5.05883
5.05131
5.0438
5.03628
5.02878
5.02129
5.01383
5.00641
4.99905
4.99179
4.98466
4.97771
4.97101
4.96461
4.95865
4.95318
4.94838
4.94422
4.94094
4.93812
4.93579
4.9321
4.92599
4.9116
-1.02389
-1.05215
-1.10602
-1.17089
-1.24879
-1.34322
-1.45697
-1.59138
-1.74586
-1.91773
-2.10328
-2.29833
-2.49868
-2.70027
-2.89824
-3.08603
-3.25498
-3.39532
-3.49963
-3.56376
-3.58849
-3.57964
-3.54712
-3.50317
-3.45989
-3.4273
-3.41269
-3.4209
-3.45471
-3.51516
-3.60179
-3.71347
-3.84887
-4.00644
-4.1846
-4.38141
-4.59452
-4.82114
-5.0581
-5.30163
-5.54779
-5.79237
-6.03073
-6.25692
-6.46401
-6.64467
-6.79146
-6.89735
-6.95655
-6.96481
-6.91948
-6.82064
-6.67098
-6.4755
-6.24118
-5.97619
-5.68917
-5.38812
-5.07971
-4.76898
-4.45939
-4.15309
-3.85115
-3.55384
-3.26094
-2.9722
-2.6878
-2.4085
-2.13517
-1.86808
-1.60639
-1.34806
-1.08967
-0.827704
-0.561346
-0.293082
-0.0255799
0.240032
0.505014
0.773378
1.04923
1.33095
1.61342
1.89155
2.16208
2.42357
2.67591
2.91985
3.15645
3.38673
3.61123
3.82986
4.04176
4.24532
4.43831
4.61837
4.78332
4.93155
5.06223
5.17534
5.27148
5.35168
5.41716
5.46921
5.50913
5.53823
5.55787
5.56939
5.57415
5.57344
5.56843
5.56012
5.54934
5.53674
5.52283
5.508
5.49259
5.47684
5.46095
5.44506
5.42927
5.41366
5.39828
5.38321
5.3685
5.35417
5.34026
5.32678
5.31373
5.3011
5.2889
5.2771
5.26568
5.25463
5.24392
5.23355
5.22347
5.21368
5.20415
5.19487
5.18581
5.17695
5.16828
5.15978
5.15143
5.14323
5.13515
5.12719
5.11933
5.11155
5.10384
5.0962
5.0886
5.08104
5.0735
5.06598
5.05846
5.05094
5.04342
5.03589
5.02836
5.02082
5.0133
5.0058
4.99834
4.99095
4.98364
4.97647
4.96947
4.9627
4.95623
4.9501
4.94441
4.93911
4.93425
4.92939
4.92425
4.91724
4.90684
4.88884
-1.11044
-1.14006
-1.19027
-1.25191
-1.32907
-1.42515
-1.54184
-1.67895
-1.83453
-2.00525
-2.18757
-2.37828
-2.57485
-2.77508
-2.97609
-3.17182
-3.35252
-3.5077
-3.62891
-3.71207
-3.75817
-3.77338
-3.76791
-3.7543
-3.74482
-3.74891
-3.77292
-3.82034
-3.89225
-3.98775
-4.10488
-4.24172
-4.39718
-4.57113
-4.76396
-4.97558
-5.20544
-5.45235
-5.71416
-5.98767
-6.26857
-6.55154
-6.8296
-7.09447
-7.33702
-7.54723
-7.71493
-7.83092
-7.88788
-7.88103
-7.80868
-7.67193
-7.47517
-7.22559
-6.93234
-6.60626
-6.25869
-5.90014
-5.5392
-5.18204
-4.83233
-4.49169
-4.1604
-3.83794
-3.52338
-3.21553
-2.91351
-2.61755
-2.3288
-2.04826
-1.77562
-1.50896
-1.24479
-0.978046
-0.706189
-0.431457
-0.157556
0.11346
0.381931
0.65182
0.928862
1.21304
1.49932
1.78149
2.05564
2.32002
2.57452
2.82012
3.05818
3.28996
3.5163
3.73738
3.95246
4.15998
4.35757
4.54257
4.71238
4.86517
4.99999
5.11686
5.21649
5.30009
5.36895
5.42436
5.46758
5.49986
5.5225
5.53684
5.54423
5.54596
5.54322
5.53703
5.52824
5.51751
5.50533
5.4921
5.47814
5.46372
5.44904
5.43426
5.4195
5.40483
5.39031
5.37602
5.36199
5.34829
5.33494
5.32197
5.30938
5.29718
5.28535
5.27389
5.26279
5.25202
5.24157
5.23142
5.22155
5.21195
5.20259
5.19346
5.18454
5.1758
5.16723
5.15882
5.15056
5.14242
5.13441
5.1265
5.11868
5.11095
5.10328
5.09567
5.08811
5.08057
5.07306
5.06555
5.05804
5.05052
5.04299
5.03545
5.02789
5.02031
5.01273
5.00515
4.99759
4.99005
4.98256
4.97515
4.96785
4.96068
4.9537
4.9469
4.94033
4.93388
4.92749
4.92072
4.91304
4.9031
4.88924
4.86829
-1.18869
-1.21362
-1.2544
-1.31002
-1.38352
-1.47652
-1.58968
-1.72211
-1.87115
-2.0333
-2.20548
-2.38549
-2.57262
-2.76682
-2.96655
-3.1662
-3.3559
-3.52463
-3.66431
-3.77161
-3.84782
-3.89856
-3.93345
-3.96369
-3.99979
-4.05004
-4.11952
-4.21003
-4.3207
-4.4493
-4.59378
-4.75332
-4.92861
-5.1216
-5.33499
-5.57138
-5.83195
-6.11614
-6.42147
-6.74344
-7.07602
-7.41147
-7.74032
-8.05186
-8.33463
-8.57672
-8.76636
-8.89298
-8.94827
-8.92697
-8.82675
-8.64904
-8.39948
-8.08731
-7.72482
-7.32622
-6.90615
-6.47815
-6.05331
-5.63942
-5.24084
-4.85908
-4.49367
-4.14303
-3.80496
-3.47695
-3.15689
-2.84395
-2.53906
-2.24355
-1.95771
-1.68003
-1.40729
-1.13352
-0.854569
-0.572054
-0.290447
-0.0125028
0.261871
0.535969
0.816037
1.10334
1.39284
1.67817
1.95496
2.22123
2.47705
2.72362
2.96261
3.19549
3.42326
3.64635
3.86421
4.07514
4.27659
4.46561
4.63937
4.79593
4.93432
5.05463
5.15769
5.24473
5.31712
5.37611
5.42288
5.45857
5.48441
5.50176
5.51198
5.51637
5.51609
5.51219
5.50552
5.49677
5.48644
5.47492
5.46252
5.44952
5.43612
5.42252
5.40884
5.39516
5.38156
5.3681
5.35483
5.34181
5.32908
5.31666
5.30458
5.29284
5.28143
5.27035
5.25958
5.24912
5.23895
5.22906
5.21942
5.21002
5.20085
5.19189
5.18311
5.1745
5.16605
5.15775
5.14957
5.14152
5.13357
5.12572
5.11796
5.11027
5.10265
5.09508
5.08755
5.08004
5.07255
5.06506
5.05757
5.05006
5.04252
5.03496
5.02738
5.01976
5.01212
5.00446
4.99678
4.9891
4.98143
4.97378
4.96616
4.95859
4.95109
4.94362
4.93618
4.92862
4.92078
4.9122
4.90227
4.88977
4.87307
4.8497
-1.22893
-1.24951
-1.28448
-1.33461
-1.40306
-1.49049
-1.59729
-1.72211
-1.86188
-2.01314
-2.17324
-2.34063
-2.51546
-2.69894
-2.89087
-3.08679
-3.27849
-3.45646
-3.61392
-3.7484
-3.86123
-3.95687
-4.04259
-4.1268
-4.21725
-4.3197
-4.43745
-4.571
-4.71886
-4.87915
-5.05125
-5.2367
-5.43883
-5.66212
-5.91112
-6.18914
-6.49726
-6.83399
-7.19482
-7.57304
-7.96091
-8.34955
-8.72884
-9.08755
-9.4131
-9.69161
-9.90851
-10.0504
-10.1066
-10.0706
-9.94006
-9.71762
-9.41091
-9.0318
-8.59543
-8.11897
-7.62019
-7.1158
-6.61965
-6.14156
-5.68711
-5.25823
-4.85421
-4.47255
-4.10953
-3.76092
-3.42282
-3.09303
-2.77185
-2.46102
-2.16112
-1.87079
-1.58642
-1.30182
-1.01218
-0.719408
-0.428187
-0.141186
0.141616
0.423129
0.709288
1.00132
1.29451
1.58259
1.86116
2.12847
2.38489
2.6319
2.87142
3.10512
3.33413
3.55901
3.77912
3.99271
4.19696
4.38877
4.56534
4.72482
4.86634
4.99
5.09658
5.18722
5.26323
5.32582
5.37613
5.41524
5.44431
5.46469
5.47778
5.4849
5.48723
5.48576
5.48134
5.47466
5.46625
5.45651
5.44575
5.43425
5.42222
5.40986
5.39732
5.38469
5.37206
5.35948
5.34703
5.33474
5.32267
5.31086
5.29933
5.28808
5.27713
5.26646
5.25607
5.24594
5.23608
5.22646
5.21707
5.2079
5.19893
5.19015
5.18153
5.17307
5.16475
5.15656
5.14849
5.14052
5.13264
5.12486
5.11716
5.10952
5.10194
5.09441
5.08692
5.07945
5.07199
5.06453
5.05705
5.04954
5.04201
5.03444
5.02683
5.01917
5.01147
5.00373
4.99595
4.98812
4.98026
4.97236
4.96444
4.95646
4.94844
4.94031
4.93202
4.92339
4.91419
4.90396
4.89202
4.87727
4.85823
4.83287
-1.22963
-1.24728
-1.27851
-1.32466
-1.38885
-1.47131
-1.5722
-1.68999
-1.82182
-1.96458
-2.11572
-2.27387
-2.4395
-2.61425
-2.79881
-2.99042
-3.18321
-3.37026
-3.54615
-3.70854
-3.8581
-3.9977
-4.13213
-4.26729
-4.40862
-4.5601
-4.72358
-4.8991
-5.08581
-5.28317
-5.49236
-5.71636
-5.9595
-6.22661
-6.52174
-6.84708
-7.20224
-7.58443
-7.98863
-8.4086
-8.8374
-9.2669
-9.68729
-10.0864
-10.4492
-10.7583
-10.9959
-11.1468
-11.1996
-11.148
-10.9903
-10.73
-10.3758
-9.94128
-9.44333
-8.90146
-8.33583
-7.7656
-7.20658
-6.67024
-6.16352
-5.68925
-5.247
-4.83383
-4.44493
-4.07454
-3.71717
-3.3696
-3.03159
-2.70471
-2.38977
-2.08504
-1.78616
-1.48678
-1.18308
-0.877182
-0.573671
-0.275018
0.0189604
0.311145
0.606715
0.905784
1.20361
1.49441
1.77427
2.04206
2.29869
2.54605
2.78614
3.02066
3.25083
3.4771
3.69875
3.91395
4.11978
4.31314
4.49149
4.65322
4.79757
4.92455
5.03473
5.12905
5.20862
5.27461
5.32816
5.37041
5.40256
5.42592
5.44186
5.45173
5.45669
5.45774
5.45569
5.45119
5.44478
5.43689
5.42784
5.4179
5.40732
5.39628
5.38494
5.37342
5.36182
5.35018
5.33859
5.3271
5.31575
5.30459
5.29366
5.28295
5.27248
5.26226
5.25227
5.24251
5.23298
5.22366
5.21454
5.20561
5.19685
5.18826
5.17983
5.17152
5.16334
5.15527
5.14731
5.13943
5.13165
5.12393
5.11629
5.10871
5.10119
5.0937
5.08625
5.07881
5.07138
5.06394
5.05648
5.04899
5.04146
5.03388
5.02624
5.01855
5.01079
5.00297
4.99508
4.98711
4.97906
4.97092
4.96268
4.95432
4.94578
4.93702
4.92791
4.91826
4.9078
4.89605
4.88233
4.86564
4.84463
4.81762
-1.19759
-1.21332
-1.24342
-1.28799
-1.34999
-1.42985
-1.52768
-1.64213
-1.77081
-1.91097
-2.06046
-2.21815
-2.38439
-2.56032
-2.74655
-2.9414
-3.14084
-3.33958
-3.53328
-3.71964
-3.89861
-4.0721
-4.24404
-4.41925
-4.60234
-4.7968
-5.00418
-5.22421
-5.4558
-5.69804
-5.95153
-6.21795
-6.50014
-6.80163
-7.12574
-7.4752
-7.85075
-8.251
-8.67254
-9.11015
-9.55709
-10.0053
-10.4444
-10.8614
-11.2399
-11.5613
-11.8078
-11.9632
-12.0165
-11.961
-11.7939
-11.5177
-11.1407
-10.677
-10.1448
-9.5655
-8.96095
-8.35085
-7.75203
-7.17704
-6.63389
-6.12652
-5.65467
-5.21548
-4.80352
-4.41213
-4.03521
-3.66949
-3.3148
-2.97236
-2.64221
-2.32176
-2.00563
-1.68817
-1.36723
-1.04563
-0.727522
-0.414898
-0.106924
0.19954
0.50766
0.815703
1.11884
1.41227
1.69327
1.96162
2.21885
2.46703
2.70809
2.9436
3.17468
3.40174
3.62408
3.83985
4.04614
4.24003
4.41933
4.58269
4.72944
4.85945
4.97301
5.07077
5.15365
5.22273
5.27919
5.32426
5.35923
5.38545
5.40427
5.41695
5.42461
5.42822
5.42857
5.42633
5.42202
5.41605
5.40877
5.40047
5.3914
5.38175
5.37169
5.36136
5.35083
5.34021
5.32954
5.31889
5.30832
5.29787
5.28758
5.27745
5.26751
5.25776
5.24821
5.23884
5.22966
5.22065
5.21182
5.20315
5.19463
5.18625
5.178
5.16986
5.16183
5.15389
5.14605
5.13828
5.13058
5.12295
5.11537
5.10786
5.10038
5.09294
5.08553
5.07813
5.07073
5.06332
5.05588
5.0484
5.04087
5.03328
5.02563
5.0179
5.01009
5.00219
4.99419
4.98608
4.97785
4.96948
4.96093
4.95218
4.94315
4.93377
4.92388
4.91328
4.90165
4.88853
4.87323
4.85485
4.83218
4.8038
-1.14526
-1.16027
-1.19082
-1.23633
-1.29949
-1.38093
-1.48092
-1.59854
-1.73231
-1.88036
-2.04108
-2.21306
-2.39543
-2.58747
-2.78824
-2.99578
-3.20685
-3.41756
-3.62458
-3.82632
-4.02333
-4.21826
-4.41538
-4.61967
-4.83547
-5.06539
-5.30953
-5.56587
-5.83128
-6.10282
-6.37935
-6.66146
-6.95179
-7.2545
-7.57435
-7.91587
-8.28151
-8.67079
-9.0808
-9.50658
-9.94128
-10.3775
-10.8061
-11.215
-11.5893
-11.911
-12.1617
-12.3247
-12.3881
-12.3443
-12.1899
-11.9265
-11.561
-11.1066
-10.5813
-10.0063
-9.40285
-8.79039
-8.18551
-7.60108
-7.04589
-6.52479
-6.03852
-5.5844
-5.15693
-4.74939
-4.35634
-3.97538
-3.60664
-3.2507
-2.90628
-2.56923
-2.23397
-1.89656
-1.55697
-1.21865
-0.884893
-0.556578
-0.231897
0.0914648
0.413512
0.730887
1.03925
1.33529
1.61772
1.88731
2.14584
2.39536
2.6376
2.87401
3.10571
3.33314
3.55558
3.77109
3.97689
4.17039
4.34981
4.51409
4.66267
4.79522
4.91172
5.01251
5.0983
5.17012
5.2292
5.27689
5.31456
5.34358
5.36525
5.38076
5.39117
5.39739
5.40019
5.40023
5.39804
5.39405
5.38861
5.38202
5.37452
5.36634
5.35763
5.34854
5.33917
5.32961
5.31992
5.31018
5.30044
5.29074
5.28112
5.27162
5.26224
5.25299
5.2439
5.23495
5.22614
5.21747
5.20894
5.20054
5.19227
5.18411
5.17606
5.1681
5.16023
5.15244
5.14471
5.13705
5.12945
5.12191
5.11441
5.10696
5.09954
5.09215
5.08478
5.07742
5.07005
5.06267
5.05525
5.04778
5.04026
5.03266
5.02499
5.01723
5.00937
5.00139
4.99329
4.98505
4.97664
4.96804
4.9592
4.95007
4.94058
4.93061
4.91999
4.9085
4.89581
4.88144
4.86475
4.8449
4.82082
4.79128
-1.0885
-1.10368
-1.13644
-1.18579
-1.25454
-1.34321
-1.45286
-1.58377
-1.73582
-1.90754
-2.09677
-2.3005
-2.5155
-2.73847
-2.96622
-3.19529
-3.42184
-3.64236
-3.85492
-4.05989
-4.25995
-4.45929
-4.66274
-4.87474
-5.09833
-5.33437
-5.58147
-5.83661
-6.09611
-6.35689
-6.61799
-6.88059
-7.14765
-7.42382
-7.71407
-8.02331
-8.35416
-8.70846
-9.08322
-9.47418
-9.87555
-10.281
-10.6824
-11.0694
-11.4283
-11.7429
-11.9957
-12.1704
-12.2546
-12.2398
-12.1216
-11.9003
-11.581
-11.1742
-10.6957
-10.1652
-9.6025
-9.02533
-8.44913
-7.88638
-7.34628
-6.83434
-6.35215
-5.89743
-5.46519
-5.04981
-4.64752
-4.25727
-3.87933
-3.51313
-3.15565
-2.80213
-2.44817
-2.09226
-1.73615
-1.38296
-1.03422
-0.689224
-0.346572
-0.00651641
0.328191
0.653259
0.965912
1.26437
1.54856
1.81974
2.07977
2.33056
2.57383
2.81112
3.04356
3.27137
3.49355
3.70811
3.91258
4.10485
4.28359
4.4481
4.59785
4.73234
4.85121
4.95452
5.0428
5.11702
5.1785
5.22868
5.26898
5.30076
5.32525
5.34356
5.35669
5.3655
5.37075
5.37309
5.37305
5.37108
5.36752
5.36269
5.35684
5.35018
5.34288
5.33509
5.32693
5.31848
5.30982
5.30103
5.29215
5.28324
5.27434
5.26548
5.25669
5.24798
5.23937
5.23085
5.22244
5.21413
5.20592
5.19781
5.18979
5.18187
5.17402
5.16625
5.15855
5.1509
5.14331
5.13577
5.12828
5.12082
5.1134
5.10602
5.09866
5.09133
5.08401
5.07668
5.06935
5.06199
5.05459
5.04714
5.03962
5.03202
5.02433
5.01654
5.00863
5.00059
4.99239
4.98402
4.97544
4.96662
4.9575
4.94802
4.93808
4.92756
4.91626
4.90396
4.89029
4.87481
4.8569
4.83577
4.81049
4.77997
-1.04116
-1.05816
-1.09537
-1.15268
-1.23394
-1.34032
-1.47426
-1.63671
-1.82729
-2.04274
-2.27853
-2.52914
-2.78863
-3.05014
-3.30689
-3.55334
-3.78563
-4.00156
-4.20057
-4.38427
-4.55618
-4.72116
-4.88493
-5.05311
-5.23046
-5.41942
-5.62007
-5.83129
-6.04963
-6.27321
-6.49949
-6.72835
-6.96143
-7.20197
-7.45419
-7.72234
-8.00968
-8.31823
-8.64694
-8.99261
-9.35046
-9.71481
-10.0788
-10.4339
-10.769
-11.0709
-11.3245
-11.5151
-11.6302
-11.6602
-11.5993
-11.4452
-11.2006
-10.873
-10.4753
-10.0242
-9.53645
-9.02761
-8.5111
-7.99831
-7.49829
-7.01694
-6.55654
-6.11558
-5.69055
-5.27801
-4.87622
-4.48504
-4.1042
-3.73173
-3.36397
-2.99693
-2.62865
-2.25959
-1.89173
-1.52612
-1.1626
-0.800839
-0.441903
-0.0889011
0.254328
0.584466
0.899814
1.19987
1.4853
1.75763
2.01876
2.27066
2.5152
2.75385
2.98736
3.21544
3.43685
3.64976
3.85224
4.04276
4.22039
4.38459
4.53478
4.67035
4.79078
4.89597
4.98632
5.06276
5.1266
5.17927
5.2222
5.25672
5.28399
5.30506
5.32089
5.3323
5.34003
5.34473
5.34691
5.34703
5.34544
5.34244
5.3383
5.33323
5.32741
5.32099
5.31408
5.30679
5.29921
5.2914
5.28343
5.27535
5.2672
5.25902
5.25084
5.24269
5.23459
5.22653
5.21853
5.2106
5.20273
5.19493
5.18719
5.1795
5.17188
5.1643
5.15678
5.14929
5.14185
5.13443
5.12705
5.11969
5.11236
5.10505
5.09776
5.09048
5.0832
5.07592
5.06862
5.06129
5.05391
5.04647
5.03896
5.03136
5.02366
5.01584
5.00788
4.99977
4.99149
4.98299
4.97426
4.96523
4.95585
4.94603
4.93568
4.92464
4.91272
4.89967
4.88513
4.86866
4.84966
4.82743
4.80112
4.76977
-1.02676
-1.04822
-1.09517
-1.16956
-1.27765
-1.42135