/*--------------------------------*- C++ -*----------------------------------*\
  =========                 |
  \\      /  F ield         | OpenFOAM: The Open Source CFD Toolbox
   \\    /   O peration     | Website:  https://openfoam.org
    \\  /    A nd           | Version:  7
     \\/     M anipulation  |
\*---------------------------------------------------------------------------*/
FoamFile
{
    version     2.0;
    format      ascii;
    class       volScalarField;
    location    "0.068";
    object      s;
}
// * * * * * * * * * * * * * * * * * * * * * * * * * * * * * * * * * * * * * //

dimensions      [0 0 0 0 0 0 0];

internalField   nonuniform List<scalar> 
12225
(
1
1
1
1
1
1
1
1
1
1
1
1
1
1
1
1
1
1
1
1
1
1
1
1
1
1
1
1
1
1
1
1
1
1
1
1
1
1
1
1
1
1
1
1
1
1
1
1
1
1
1
1
1
1
1
1
1
1
1
1
1
1
1
1
1
1
1
1
1
1
1
1
1
1
1
1
1
1
1
1
1
1
1
1
1
1
1
1
1
1
1
1
1
1
1
1
1
1
1
1
1
1
1
1
1
1
1
1
1
1
1
1
1
1
1
1
1
1
1
1
1
1
1
1
1
1
1
1
1
1
1
1
1
1
1
1
1
1
1
1
1
1
1
1
1
1
1
1
1
1
1
1
1
1
1
1
1
1
1
1
1
1
1
1
1
1
1
1
1
1
1
1
1
1
1
1
1
1
1
1
1
1
1
1
1
1
1
1
1
1
1
1
1
1
1
1
1
1
1
1
1
1
1
1
1
1
1
1
1
1
1
1
1
1
1
1
1
1
1
1
1
1
1
1
1
1
1
1
1
1
1
1
1
1
1
1
1
1
1
1
1
1
1
1
1
1
1
1
1
1
1
1
1
1
1
1
1
1
1
1
1
1
1
1
1
1
1
1
1
1
1
1
1
1
1
1
1
1
1
1
1
1
1
1
1
1
1
1
1
1
1
1
1
1
1
1
1
1
1
1
1
1
1
1
1
1
1
1
1
1
1
1
1
1
1
1
1
1
1
1
1
1
1
1
1
1
1
1
1
1
1
1
1
1
1
1
1
1
1
1
1
1
1
1
1
1
1
1
1
1
1
1
1
1
1
1
1
1
1
1
1
1
1
1
1
1
1
1
1
1
1
1
1
1
1
1
1
1
1
1
1
1
1
1
1
1
1
1
1
1
1
1
1
1
1
1
1
1
1
1
1
1
1
1
1
1
1
1
1
1
1
1
1
1
1
1
1
1
1
1
1
1
1
1
1
1
1
1
1
1
1
1
1
1
1
1
1
1
1
1
1
1
1
1
1
1
1
1
1
1
1
1
1
1
1
1
1
1
1
1
1
1
1
1
1
1
1
1
1
1
1
1
1
1
1
1
1
1
1
1
1
1
1
1
1
1
1
1
1
1
1
1
1
1
1
1
1
1
1
1
1
1
1
1
1
1
1
1
1
1
1
1
1
1
1
1
1
1
1
1
1
1
1
1
1
1
1
1
1
1
1
1
1
1
1
1
1
1
1
1
0.00801296
0.0237959
0.0393432
0.0579917
0.078913
0.101088
0.129425
0.165378
0.200315
0.23695
0.265783
0.30426
0.342004
0.367174
0.386632
0.394034
0.393435
0.390179
0.382645
0.371031
0.351806
0.332423
0.302973
0.270264
0.237403
0.205247
0.174658
0.147366
0.126481
0.114593
0.110988
0.111783
0.115105
0.112237
0.0677224
0.0114438
0.00500954
0.00705037
0.00932721
0.0121966
0.0139537
0.0157536
0.0199247
0.023991
0.0260602
0.0276014
0.0306541
0.0373775
0.0529127
0.0791084
0.0994987
0.122197
0.245037
0.622644
0.790633
0.810325
0.812213
0.81372
0.814721
0.815253
0.816108
0.817175
0.818235
0.819473
0.820592
0.821923
0.823048
0.824134
0.825393
0.826749
0.828179
0.829579
0.831178
0.832171
0.833329
0.8346
0.835674
0.836895
0.838204
0.83937
0.840425
0.841354
0.842205
0.843072
0.843803
0.844551
0.845229
0.845905
0.846468
0.84689
0.84727
0.847649
0.847895
0.848036
0.848097
0.848096
0.847858
0.847537
0.846832
0.846009
0.844947
0.843458
0.841586
0.83904
0.835809
0.831701
0.826378
0.819726
0.811468
0.801203
0.788771
0.773977
0.756712
0.736717
0.713505
0.686472
0.654693
0.61721
0.573127
0.521346
0.462222
0.396409
0.325175
0.253383
0.18564
0.12416
0.0760507
0.0448126
0.0253559
0.0136969
0.00702819
0.00341475
0.00156845
0.000680927
0.00028028
0.000109863
3.97242e-05
1.1833e-05
4.85355e-06
2.44626e-06
1.18073e-06
5.57118e-07
2.56784e-07
1.15617e-07
5.09284e-08
2.19884e-08
9.32284e-09
3.88931e-09
1.59969e-09
6.50008e-10
2.61456e-10
1.0431e-10
4.13536e-11
1.6319e-11
6.41979e-12
2.52091e-12
9.89266e-13
3.88393e-13
1.52702e-13
6.01375e-14
2.36957e-14
9.31443e-15
3.6372e-15
1.40438e-15
5.33912e-16
1.99191e-16
7.27516e-17
2.59712e-17
9.05243e-18
3.07853e-18
1.02085e-18
3.29836e-19
1.03742e-19
3.17142e-20
9.40593e-21
2.69668e-21
7.45669e-22
1.92196e-22
4.90066e-23
-3.45368e-23
0.00634915
0.0189793
0.0282654
0.0354526
0.042644
0.0535498
0.0864701
0.15627
0.28462
0.406276
0.506071
0.588075
0.642399
0.675269
0.691002
0.700567
0.70493
0.705109
0.70446
0.701881
0.698808
0.692056
0.684779
0.673855
0.650342
0.619545
0.568056
0.503433
0.424055
0.318333
0.235282
0.185144
0.157825
0.146493
0.124499
0.0787391
0.0461055
0.027491
0.0181836
0.0138714
0.0134059
0.0149584
0.0196874
0.0331438
0.0499748
0.0591981
0.0678533
0.0870205
0.0942074
0.113191
0.312035
0.646035
0.739854
0.796918
0.818336
0.823249
0.826399
0.8284
0.830225
0.831804
0.833351
0.835036
0.836593
0.838096
0.839427
0.840697
0.841512
0.842454
0.843592
0.844967
0.846233
0.847267
0.848154
0.848802
0.849663
0.850459
0.851256
0.851913
0.852715
0.853625
0.854438
0.855126
0.855875
0.856689
0.857393
0.85808
0.85896
0.859946
0.8608
0.861684
0.862644
0.863787
0.864909
0.866078
0.867293
0.868714
0.870017
0.871648
0.87333
0.875483
0.878088
0.881033
0.884742
0.889204
0.894615
0.901039
0.908697
0.917455
0.927126
0.937487
0.947828
0.95681
0.963289
0.968479
0.972639
0.975895
0.978387
0.980173
0.981277
0.981728
0.981259
0.977688
0.969405
0.956659
0.935348
0.904679
0.85657
0.78513
0.690667
0.579027
0.461945
0.351865
0.258144
0.183338
0.126429
0.08481
0.0553942
0.0352444
0.0218501
0.0132045
0.00778305
0.00447823
0.00251807
0.00138548
0.000747009
0.00039527
0.000205559
0.000105205
5.30508e-05
2.6381e-05
1.2945e-05
6.26997e-06
2.99784e-06
1.4147e-06
6.58746e-07
3.02621e-07
1.37181e-07
6.14173e-08
2.71964e-08
1.19231e-08
5.17132e-09
2.21268e-09
9.30196e-10
3.82679e-10
1.53584e-10
6.00164e-11
2.28119e-11
8.43199e-12
3.03065e-12
1.05973e-12
3.60406e-13
1.19306e-13
3.83841e-14
1.20183e-14
3.6455e-15
1.07473e-15
3.06335e-16
7.67238e-17
2.2042e-17
-7.6237e-17
0.00319017
0.00844717
0.0127304
0.0120153
0.0103948
0.0188224
0.0548188
0.138619
0.319854
0.492108
0.625213
0.691595
0.717126
0.725623
0.72859
0.728113
0.726586
0.724101
0.721447
0.718239
0.716206
0.714308
0.714387
0.714408
0.71349
0.710092
0.701836
0.68813
0.662857
0.627465
0.549903
0.448238
0.361923
0.28074
0.247819
0.215792
0.156742
0.108912
0.0755642
0.054524
0.0480945
0.0493348
0.0534202
0.0624262
0.08062
0.116933
0.135381
0.171227
0.417086
0.630947
0.743661
0.794551
0.81467
0.823255
0.825871
0.826798
0.827332
0.827517
0.827016
0.82618
0.824867
0.823645
0.822858
0.822508
0.822428
0.822483
0.822768
0.823089
0.824282
0.825736
0.826737
0.828436
0.83009
0.830947
0.83275
0.834778
0.835772
0.837099
0.838768
0.83982
0.840885
0.842314
0.843627
0.84506
0.846579
0.84793
0.849346
0.850782
0.852178
0.853571
0.854878
0.856329
0.858083
0.859189
0.860397
0.861632
0.8622
0.862482
0.862034
0.861459
0.86128
0.860648
0.86006
0.859722
0.859691
0.86016
0.861116
0.862752
0.865666
0.870198
0.877221
0.888215
0.903835
0.921155
0.937323
0.950051
0.960574
0.969399
0.97675
0.982823
0.987873
0.991813
0.994564
0.996254
0.997095
0.997388
0.997402
0.996979
0.995423
0.991335
0.981436
0.957805
0.896353
0.786328
0.655607
0.518908
0.392151
0.285525
0.201128
0.137434
0.0913209
0.0591357
0.0373954
0.0231398
0.0140405
0.00837161
0.00491543
0.00284787
0.00163119
0.000925317
0.00052085
0.000291608
0.000162863
9.09717e-05
5.06962e-05
2.80105e-05
1.52677e-05
8.18012e-06
4.29717e-06
2.2098e-06
1.11127e-06
5.46134e-07
2.62118e-07
1.2281e-07
5.61314e-08
2.50204e-08
1.08639e-08
4.59087e-09
1.88867e-09
7.5969e-10
2.98505e-10
1.14675e-10
4.29674e-11
1.57363e-11
5.59974e-12
1.94742e-12
6.52714e-13
2.13716e-13
6.7456e-14
1.69186e-14
0.00102431
0.0026754
0.0031201
0.00569773
0.0237384
0.083442
0.222778
0.468378
0.636522
0.704715
0.726762
0.732485
0.729718
0.721501
0.706617
0.685623
0.669256
0.650595
0.638406
0.625951
0.621596
0.622876
0.627165
0.636066
0.650316
0.668217
0.679702
0.680375
0.678376
0.672535
0.658425
0.622201
0.568807
0.508335
0.455738
0.421906
0.381444
0.3186
0.250021
0.195772
0.154355
0.141926
0.146887
0.162158
0.182026
0.21552
0.44809
0.634656
0.73259
0.784099
0.809775
0.81962
0.822803
0.823719
0.823908
0.821591
0.817649
0.810951
0.806752
0.804088
0.802896
0.802627
0.803967
0.806596
0.807891
0.809493
0.812479
0.814654
0.81624
0.818765
0.821136
0.82287
0.824709
0.826444
0.828099
0.829559
0.830541
0.831421
0.832311
0.833118
0.834081
0.83533
0.837064
0.839206
0.841384
0.843383
0.84519
0.847004
0.848787
0.850671
0.85259
0.854749
0.857909
0.860332
0.863334
0.867139
0.870006
0.874056
0.877276
0.879156
0.879557
0.878682
0.875609
0.871724
0.867661
0.863896
0.861499
0.860425
0.860286
0.860631
0.861112
0.861717
0.863113
0.867767
0.87954
0.898162
0.917906
0.934296
0.947614
0.958373
0.967445
0.975556
0.982858
0.989138
0.993823
0.99672
0.998315
0.999138
0.999527
0.999686
0.999733
0.999718
0.999419
0.998181
0.994558
0.98474
0.956576
0.867704
0.700026
0.537447
0.395838
0.281416
0.193779
0.129678
0.084658
0.0541152
0.0339881
0.0210413
0.0128771
0.00781078
0.00470655
0.00282213
0.00168273
0.000994153
0.000580184
0.000333613
0.000188565
0.000104563
5.67999e-05
3.01963e-05
1.57011e-05
7.98247e-06
3.96704e-06
1.92706e-06
9.1482e-07
4.24439e-07
1.9236e-07
8.51717e-08
3.67886e-08
1.55035e-08
6.34977e-09
2.54188e-09
9.92996e-10
3.79249e-10
1.40884e-10
5.1143e-11
1.79457e-11
6.14875e-12
2.02722e-12
6.05384e-13
0.000145042
0.000504843
0.0153542
0.0702326
0.1995
0.452072
0.641491
0.719121
0.742027
0.741008
0.731545
0.71021
0.666673
0.614459
0.56993
0.53214
0.504494
0.47693
0.45888
0.443157
0.437163
0.438737
0.444316
0.457109
0.478322
0.503726
0.547539
0.599046
0.63722
0.65481
0.654339
0.648548
0.6331
0.605867
0.5788
0.55072
0.528457
0.502245
0.431319
0.373041
0.331574
0.280264
0.267186
0.271251
0.376624
0.613965
0.719293
0.773677
0.801764
0.814356
0.819273
0.820735
0.821079
0.817905
0.810791
0.800855
0.794369
0.7912
0.78992
0.789576
0.789878
0.791964
0.794564
0.796626
0.79858
0.800895
0.803062
0.804815
0.806633
0.808251
0.809211
0.809822
0.810204
0.810254
0.810044
0.809579
0.808938
0.808412
0.80825
0.808624
0.810122
0.812682
0.81645
0.820859
0.824965
0.827714
0.82943
0.830918
0.831583
0.832163
0.833922
0.836548
0.841468
0.846879
0.854152
0.861206
0.867553
0.874415
0.880446
0.886663
0.892811
0.898072
0.901421
0.902916
0.899007
0.890428
0.880813
0.872745
0.867706
0.865367
0.864387
0.862919
0.860783
0.858992
0.858721
0.86111
0.87308
0.898898
0.925412
0.944802
0.957783
0.966803
0.973747
0.979631
0.98513
0.990243
0.994275
0.996935
0.99847
0.999281
0.999675
0.99985
0.999917
0.99993
0.999916
0.999809
0.999335
0.99761
0.99219
0.97542
0.920085
0.759449
0.572531
0.416591
0.294045
0.202236
0.136056
0.089885
0.0585204
0.0376544
0.0239909
0.0151399
0.00944982
0.00582346
0.00353533
0.0021094
0.00123438
0.00070724
0.000396271
0.000216977
0.000116059
6.0639e-05
3.09486e-05
1.54317e-05
7.51782e-06
3.57895e-06
1.66464e-06
7.56535e-07
3.35714e-07
1.45462e-07
6.14467e-08
2.52866e-08
1.01175e-08
3.95328e-09
1.50321e-09
5.57613e-10
2.00424e-10
7.01201e-11
2.37226e-11
7.40309e-12
0.00199634
0.0322956
0.127949
0.351506
0.619512
0.727357
0.75871
0.757653
0.744585
0.703339
0.627692
0.552937
0.505684
0.470969
0.442278
0.414211
0.387516
0.365089
0.346976
0.333676
0.326998
0.328292
0.333092
0.342045
0.359708
0.375826
0.403037
0.432295
0.496208
0.576425
0.621849
0.636055
0.633998
0.628953
0.621009
0.610756
0.602427
0.586505
0.556845
0.52092
0.418362
0.317094
0.312854
0.478258
0.67231
0.754401
0.791375
0.808238
0.815434
0.81783
0.818459
0.816603
0.81059
0.799492
0.789231
0.783914
0.781319
0.780222
0.779924
0.779986
0.781059
0.783053
0.78465
0.785727
0.78685
0.787668
0.78819
0.788386
0.788406
0.788227
0.787616
0.786668
0.785416
0.783841
0.782222
0.780612
0.778935
0.778112
0.777902
0.779077
0.783525
0.7902
0.79868
0.80747
0.811219
0.811767
0.811068
0.807946
0.80035
0.792047
0.789328
0.788522
0.791111
0.79933
0.812733
0.826024
0.841703
0.858612
0.873765
0.885542
0.895566
0.904603
0.912884
0.919721
0.924858
0.927259
0.922166
0.90803
0.891523
0.880346
0.8759
0.875167
0.874467
0.87004
0.861339
0.856574
0.856007
0.85934
0.874399
0.909373
0.94026
0.959118
0.970182
0.977078
0.98205
0.9862
0.990021
0.993432
0.996113
0.997901
0.998945
0.999503
0.999778
0.999905
0.999956
0.999971
0.99997
0.999946
0.999821
0.999297
0.997319
0.99051
0.967871
0.88974
0.701247
0.521722
0.377194
0.266535
0.184845
0.126166
0.084891
0.0563334
0.0368449
0.0237147
0.0149902
0.00928631
0.00562776
0.00333184
0.00192532
0.00108542
0.000596949
0.000320318
0.00016774
8.57521e-05
4.28062e-05
2.08708e-05
9.93909e-06
4.62358e-06
2.10022e-06
9.31474e-07
4.02931e-07
1.69978e-07
6.9738e-08
2.78356e-08
1.08132e-08
4.09127e-09
1.50183e-09
5.35344e-10
1.85049e-10
5.95017e-11
0.0299427
0.116919
0.380744
0.671524
0.760244
0.772711
0.762706
0.722446
0.635964
0.53496
0.492908
0.467874
0.443844
0.419369
0.387715
0.349911
0.307743
0.26585
0.24247
0.218176
0.218105
0.223989
0.240527
0.268721
0.297963
0.324762
0.341042
0.362443
0.391015
0.435159
0.530747
0.594578
0.621311
0.62778
0.632993
0.633119
0.632018
0.627646
0.613245
0.551313
0.395575
0.350455
0.490411
0.692102
0.767516
0.798277
0.810499
0.81473
0.815702
0.815592
0.810837
0.801182
0.790514
0.782839
0.777434
0.775109
0.774051
0.77364
0.773552
0.773691
0.774351
0.774841
0.775007
0.774944
0.774474
0.773845
0.773038
0.77196
0.770738
0.768784
0.766503
0.763786
0.760722
0.757577
0.754144
0.750544
0.74732
0.745732
0.74515
0.745871
0.75065
0.75741
0.766582
0.7755
0.778368
0.778663
0.775818
0.767305
0.755822
0.752201
0.752093
0.754428
0.760179
0.768916
0.779508
0.790272
0.801832
0.815601
0.834163
0.858604
0.884043
0.903875
0.91725
0.928294
0.936745
0.943253
0.947884
0.948078
0.941454
0.920716
0.898431
0.888072
0.887116
0.888994
0.888032
0.878185
0.864562
0.859576
0.86054
0.869935
0.899991
0.937375
0.961354
0.974402
0.981442
0.985735
0.988957
0.991774
0.994237
0.996285
0.99782
0.998828
0.999414
0.999725
0.999878
0.999949
0.999978
0.999986
0.999985
0.999973
0.999903
0.999599
0.998416
0.994131
0.979586
0.930019
0.777486
0.59112
0.438268
0.318104
0.226539
0.158433
0.108776
0.073226
0.04825
0.0310649
0.0195136
0.0119465
0.00712413
0.00413759
0.00234079
0.00129045
0.000693552
0.00036357
0.000185969
9.28523e-05
4.52605e-05
2.15419e-05
1.00095e-05
4.54003e-06
2.00879e-06
8.66655e-07
3.64135e-07
1.48784e-07
5.90591e-08
2.28079e-08
8.55103e-09
3.10933e-09
1.09785e-09
3.62829e-10
0.13402
0.295102
0.664949
0.772082
0.782285
0.762434
0.686167
0.559421
0.502984
0.476945
0.462288
0.442578
0.413202
0.357595
0.281368
0.214465
0.171784
0.144569
0.128402
0.114255
0.110379
0.1121
0.120178
0.142949
0.202337
0.263546
0.300905
0.338533
0.361303
0.384924
0.436983
0.533971
0.597054
0.623155
0.637585
0.644392
0.645926
0.642697
0.61827
0.50298
0.390312
0.481658
0.687219
0.770241
0.799895
0.810669
0.813986
0.814559
0.813106
0.806405
0.797882
0.790192
0.780973
0.774168
0.771235
0.769789
0.769007
0.768668
0.768496
0.76808
0.767268
0.76662
0.765494
0.76402
0.762197
0.760297
0.758058
0.755541
0.75259
0.748527
0.743579
0.737659
0.730962
0.723862
0.716456
0.709283
0.703003
0.698091
0.69568
0.694715
0.695293
0.699197
0.703078
0.710479
0.719122
0.726433
0.731977
0.738687
0.74355
0.745595
0.748247
0.753969
0.763964
0.776465
0.788083
0.796481
0.803219
0.809534
0.816902
0.829501
0.848506
0.875558
0.904701
0.927444
0.942115
0.952634
0.95996
0.963842
0.964806
0.962737
0.952643
0.926264
0.906855
0.902447
0.904852
0.906503
0.902271
0.885591
0.874705
0.873206
0.879399
0.904913
0.940191
0.965637
0.979497
0.986411
0.989947
0.992123
0.99398
0.995666
0.997085
0.998181
0.998955
0.999445
0.999726
0.999873
0.999944
0.999977
0.99999
0.999993
0.999991
0.999979
0.999917
0.99966
0.998683
0.99521
0.983529
0.944499
0.816891
0.635132
0.480702
0.355311
0.256578
0.180904
0.124393
0.0833101
0.0542856
0.0343919
0.0211791
0.0126796
0.00738307
0.00418377
0.00230878
0.00124153
0.000650928
0.000332894
0.000166113
8.08944e-05
3.84454e-05
1.78297e-05
8.06562e-06
3.55738e-06
1.52832e-06
6.39064e-07
2.59457e-07
1.02368e-07
3.92187e-08
1.45649e-08
5.25527e-09
1.78381e-09
0.197691
0.56003
0.768999
0.7896
0.766715
0.665534
0.542733
0.497231
0.477924
0.466858
0.450857
0.411835
0.332066
0.243777
0.192094
0.158491
0.135887
0.119942
0.108235
0.0981364
0.092713
0.0903352
0.0917866
0.104355
0.153394
0.221397
0.263885
0.297575
0.334182
0.365754
0.396261
0.465146
0.553375
0.612262
0.639309
0.649931
0.65061
0.642372
0.582849
0.437716
0.459459
0.670303
0.765941
0.79912
0.810064
0.81328
0.813856
0.812673
0.806016
0.797327
0.78988
0.78058
0.772708
0.768647
0.766797
0.765845
0.765073
0.764411
0.763464
0.761905
0.760381
0.757426
0.754045
0.749074
0.743558
0.737725
0.731399
0.724306
0.715915
0.704795
0.690775
0.677172
0.664574
0.654648
0.646046
0.63892
0.633913
0.631505
0.630715
0.632743
0.637149
0.644924
0.656333
0.669732
0.684163
0.69997
0.716477
0.732722
0.744086
0.75326
0.766865
0.789045
0.818386
0.847434
0.868747
0.879043
0.882209
0.876517
0.861908
0.847033
0.84746
0.862103
0.885371
0.911137
0.935188
0.953048
0.96503
0.973114
0.976779
0.976829
0.976
0.971811
0.956013
0.932693
0.922993
0.923305
0.926628
0.926247
0.91717
0.903314
0.898952
0.901589
0.91994
0.948705
0.971017
0.984176
0.990698
0.993752
0.995219
0.996203
0.997142
0.998006
0.998711
0.999226
0.999568
0.999776
0.999891
0.99995
0.999979
0.999991
0.999995
0.999996
0.999993
0.999978
0.999909
0.999644
0.998696
0.995467
0.984842
0.94972
0.833404
0.655649
0.499731
0.369922
0.265896
0.185482
0.125504
0.0823538
0.0524126
0.0323684
0.0194112
0.0113134
0.00641384
0.00353975
0.00190305
0.000997238
0.000509556
0.000253953
0.00012346
5.85475e-05
2.70761e-05
1.22064e-05
5.36067e-06
2.29146e-06
9.52263e-07
3.8404e-07
1.50387e-07
5.70796e-08
2.10544e-08
7.33627e-09
0.261076
0.694964
0.794856
0.780504
0.686152
0.555335
0.50647
0.486184
0.474962
0.463957
0.427864
0.35337
0.271376
0.216367
0.179856
0.154131
0.137301
0.127521
0.120273
0.116311
0.110356
0.104475
0.11529
0.157968
0.207233
0.24723
0.271597
0.288267
0.310522
0.339128
0.386307
0.468432
0.558634
0.616894
0.645446
0.652448
0.649686
0.615692
0.482836
0.459888
0.644782
0.757323
0.796442
0.808869
0.812448
0.81319
0.812703
0.808565
0.800483
0.793749
0.785787
0.77555
0.769113
0.766389
0.764961
0.763945
0.762749
0.76091
0.758666
0.75572
0.750355
0.742144
0.730992
0.715922
0.698874
0.682558
0.668932
0.652177
0.635519
0.620021
0.606969
0.596972
0.586915
0.581695
0.577271
0.575108
0.57431
0.576985
0.583426
0.59118
0.603375
0.617182
0.632678
0.649352
0.668079
0.688576
0.710674
0.733844
0.758818
0.784572
0.813011
0.842687
0.869716
0.892501
0.911171
0.926406
0.938897
0.947871
0.950685
0.943929
0.922496
0.902796
0.897444
0.909953
0.930072
0.948558
0.96369
0.974745
0.98233
0.985904
0.986163
0.98549
0.983459
0.977364
0.960459
0.946883
0.944163
0.946604
0.948941
0.948051
0.940555
0.933012
0.932154
0.93972
0.96042
0.977282
0.988134
0.993745
0.996351
0.99749
0.998013
0.998413
0.998825
0.999205
0.999505
0.999715
0.999847
0.999923
0.999963
0.999984
0.999993
0.999997
0.999998
0.999997
0.999992
0.99997
0.999885
0.999579
0.998543
0.995124
0.983877
0.945982
0.822309
0.642311
0.483785
0.352172
0.247805
0.168607
0.111
0.0707667
0.0437365
0.0262331
0.0152865
0.00866239
0.00477744
0.00256608
0.00134302
0.000685156
0.000340788
0.000165269
7.81371e-05
3.60035e-05
1.61598e-05
7.05967e-06
2.99955e-06
1.23736e-06
4.95375e-07
1.92241e-07
7.251e-08
2.5924e-08
0.331211
0.758835
0.797849
0.735194
0.599591
0.528316
0.499904
0.486033
0.479641
0.461546
0.413194
0.336479
0.267551
0.237695
0.221863
0.205029
0.197798
0.194096
0.192749
0.195616
0.197949
0.199996
0.213659
0.229428
0.242524
0.256644
0.272601
0.290451
0.314868
0.347881
0.405698
0.495231
0.585173
0.63478
0.650279
0.650557
0.622345
0.516804
0.482462
0.602847
0.746621
0.793171
0.807405
0.81144
0.812246
0.812019
0.809351
0.8031
0.79487
0.788163
0.780775
0.7722
0.766351
0.762938
0.761368
0.760338
0.75856
0.755645
0.75088
0.742898
0.726094
0.702784
0.674
0.650047
0.63595
0.621056
0.606991
0.592281
0.580223
0.570402
0.56515
0.558559
0.552597
0.546983
0.539835
0.533203
0.529759
0.528153
0.530255
0.53695
0.54832
0.56351
0.582574
0.603826
0.629221
0.65819
0.691104
0.726916
0.762037
0.795152
0.825329
0.851538
0.874176
0.893911
0.911292
0.926959
0.941353
0.954016
0.964
0.970957
0.974935
0.974401
0.967963
0.957203
0.952155
0.954268
0.964165
0.974297
0.982762
0.988763
0.991802
0.992419
0.992124
0.991146
0.988929
0.982317
0.970495
0.964334
0.964479
0.967924
0.969664
0.969209
0.964714
0.960967
0.961925
0.971269
0.983478
0.991391
0.995769
0.997878
0.998777
0.999107
0.999255
0.999404
0.999571
0.999722
0.999836
0.99991
0.999954
0.999978
0.99999
0.999996
0.999998
0.999999
0.999998
0.999997
0.999988
0.999954
0.999833
0.999418
0.998032
0.993397
0.977586
0.922635
0.764947
0.582418
0.427133
0.301841
0.205795
0.135564
0.0864062
0.0533646
0.0319774
0.0186129
0.0105339
0.005801
0.00311044
0.00162458
0.000826788
0.000410057
0.000198192
9.33303e-05
4.28048e-05
1.91074e-05
8.29586e-06
3.49923e-06
1.43234e-06
5.68338e-07
2.19189e-07
8.03573e-08
0.393821
0.781816
0.784574
0.684918
0.572517
0.522234
0.503171
0.499073
0.492795
0.468228
0.422072
0.373934
0.357051
0.343529
0.314594
0.284105
0.269494
0.25803
0.24705
0.242461
0.241008
0.242637
0.243282
0.248899
0.258463
0.270208
0.288115
0.312378
0.346723
0.398952
0.491492
0.57718
0.624198
0.63964
0.644009
0.612668
0.536696
0.508777
0.572948
0.732826
0.789884
0.807016
0.811449
0.811207
0.810359
0.806696
0.798655
0.78973
0.782901
0.77594
0.770573
0.76539
0.76173
0.759454
0.75827
0.757223
0.755178
0.750862
0.741861
0.721266
0.692858
0.661624
0.636674
0.621466
0.605234
0.587499
0.568784
0.557484
0.548989
0.543926
0.535909
0.523928
0.506623
0.486091
0.461826
0.439593
0.424845
0.418236
0.417115
0.427103
0.443657
0.465376
0.490303
0.5157
0.541647
0.568267
0.605129
0.653796
0.710132
0.761226
0.800701
0.829943
0.850705
0.866721
0.881574
0.897634
0.915517
0.934507
0.952692
0.967499
0.977564
0.983897
0.987851
0.989929
0.989908
0.987439
0.983009
0.981343
0.983721
0.989355
0.993418
0.995513
0.996138
0.996118
0.995803
0.995053
0.993162
0.987583
0.981363
0.979622
0.981061
0.98386
0.984471
0.983707
0.980681
0.979686
0.981758
0.988809
0.994147
0.997163
0.998678
0.999358
0.999632
0.999733
0.999785
0.999834
0.999884
0.999926
0.999957
0.999977
0.999989
0.999995
0.999998
0.999999
0.999999
0.999999
0.999998
0.999994
0.999977
0.999916
0.999703
0.99897
0.996446
0.987625
0.956613
0.849229
0.655148
0.481984
0.340852
0.232242
0.152769
0.0971997
0.0599157
0.0358316
0.020813
0.0117527
0.00645634
0.00345238
0.00179767
0.000911719
0.000450417
0.000216727
0.000101542
4.62984e-05
2.0532e-05
8.84761e-06
3.70202e-06
1.50141e-06
5.91875e-07
2.2234e-07
0.460013
0.783921
0.76755
0.66211
0.564688
0.527027
0.515311
0.512013
0.512601
0.513857
0.505771
0.477264
0.439038
0.424462
0.415977
0.399638
0.385152
0.375034
0.36175
0.352639
0.346345
0.343023
0.34233
0.345857
0.352712
0.370123
0.396019
0.43906
0.483844
0.539731
0.58699
0.610725
0.621891
0.623762
0.589168
0.548417
0.532656
0.568527
0.720423
0.786375
0.807423
0.812852
0.811813
0.809397
0.8041
0.791231
0.78081
0.768513
0.757589
0.751328
0.748433
0.747712
0.749562
0.752043
0.751683
0.750626
0.748987
0.743614
0.726851
0.695927
0.659319
0.629532
0.610268
0.593399
0.571295
0.554495
0.54222
0.53696
0.528864
0.514839
0.492471
0.458077
0.406731
0.358218
0.316654
0.289192
0.27346
0.267221
0.273937
0.295436
0.329212
0.370525
0.412413
0.455483
0.492135
0.520516
0.539725
0.558684
0.585726
0.632039
0.69108
0.741374
0.773071
0.79128
0.806718
0.824166
0.84517
0.871094
0.901648
0.932853
0.959084
0.976902
0.987049
0.992326
0.995205
0.996726
0.997012
0.996181
0.993878
0.992777
0.994103
0.996588
0.997803
0.998241
0.9983
0.998238
0.998021
0.997454
0.995654
0.992381
0.990614
0.990665
0.992092
0.992815
0.992682
0.991445
0.990297
0.99052
0.993066
0.996393
0.998251
0.999198
0.999639
0.999827
0.999902
0.999933
0.999951
0.999964
0.999976
0.999985
0.999991
0.999995
0.999998
0.999999
1
1
1
0.999999
0.999996
0.999986
0.999948
0.999809
0.999318
0.99757
0.991293
0.968889
0.889763
0.69843
0.51353
0.362425
0.246248
0.161488
0.10243
0.062946
0.0375274
0.0217284
0.0122282
0.00669328
0.00356511
0.00184847
0.000933129
0.000458616
0.000219414
0.000102138
4.62403e-05
2.0342e-05
8.69189e-06
3.6012e-06
1.4502e-06
5.5766e-07
0.489132
0.784145
0.760089
0.650272
0.56664
0.539641
0.529468
0.527098
0.527629
0.53313
0.544406
0.552468
0.556309
0.558233
0.558895
0.555741
0.551086
0.543872
0.535976
0.527623
0.519144
0.514246
0.511725
0.511245
0.514771
0.524465
0.53634
0.545532
0.564196
0.576027
0.588241
0.59486
0.586108
0.56751
0.556063
0.552842
0.584997
0.716383
0.783806
0.808279
0.814667
0.814306
0.810549
0.803221
0.787039
0.771647
0.75794
0.745814
0.735043
0.728261
0.723841
0.722096
0.724386
0.735015
0.740965
0.740919
0.738238
0.727291
0.70307
0.667548
0.636846
0.610045
0.587788
0.567069
0.547074
0.52943
0.520801
0.50885
0.487554
0.450799
0.392852
0.326922
0.270565
0.228882
0.203236
0.190246
0.185633
0.188285
0.198138
0.213705
0.239076
0.284502
0.347706
0.411589
0.465626
0.505719
0.530294
0.544476
0.55401
0.564019
0.581587
0.607597
0.634645
0.659516
0.683256
0.705851
0.727321
0.753835
0.793628
0.845995
0.899647
0.943263
0.971404
0.986772
0.994071
0.997192
0.998517
0.999015
0.998985
0.998431
0.997707
0.997685
0.998458
0.99908
0.999315
0.999363
0.99935
0.999287
0.999094
0.998438
0.997297
0.996654
0.996565
0.996872
0.997094
0.997027
0.996501
0.995868
0.995812
0.996446
0.998071
0.999072
0.999578
0.999815
0.999918
0.99996
0.999977
0.999985
0.999989
0.999993
0.999995
0.999997
0.999998
0.999999
1
1
1
1
0.999999
0.999997
0.99999
0.99996
0.999852
0.999454
0.997986
0.992584
0.972972
0.902759
0.715461
0.52353
0.367854
0.248813
0.162451
0.102599
0.0627818
0.0372681
0.0214818
0.0120328
0.00655384
0.00347254
0.00179042
0.000898363
0.00043864
0.000208337
9.62202e-05
4.31799e-05
1.88218e-05
7.95837e-06
3.2708e-06
1.28593e-06
0.514732
0.784498
0.756868
0.647197
0.57644
0.556806
0.552782
0.552534
0.555263
0.563336
0.575646
0.591016
0.606516
0.618284
0.625744
0.629216
0.630201
0.625109
0.617336
0.607637
0.593244
0.582892
0.569429
0.561571
0.555655
0.553105
0.552382
0.555146
0.559507
0.562477
0.564542
0.563965
0.563649
0.564511
0.57342
0.619568
0.725612
0.785477
0.809795
0.81686
0.817905
0.813447
0.804533
0.782778
0.761653
0.747235
0.729864
0.716291
0.708296
0.703956
0.701488
0.700395
0.700649
0.708101
0.719859
0.723978
0.722027
0.711619
0.687451
0.656289
0.626573
0.600559
0.578831
0.553121
0.528811
0.503889
0.486701
0.463387
0.424182
0.367664
0.300992
0.241672
0.199522
0.174726
0.16192
0.156501
0.155836
0.160377
0.171917
0.189693
0.20902
0.239909
0.295243
0.368282
0.438533
0.49377
0.528253
0.545389
0.554042
0.55944
0.565607
0.572641
0.580132
0.588219
0.598665
0.610044
0.619448
0.629097
0.647491
0.690049
0.771701
0.864078
0.928639
0.96683
0.986271
0.994829
0.998115
0.999232
0.999592
0.999656
0.999557
0.999389
0.999342
0.999472
0.999692
0.999777
0.999791
0.999786
0.99976
0.999673
0.999391
0.999097
0.998972
0.998965
0.999004
0.999004
0.998942
0.99868
0.99846
0.998426
0.998566
0.999129
0.99958
0.999809
0.999917
0.999965
0.999984
0.999992
0.999995
0.999997
0.999998
0.999999
0.999999
1
1
1
1
1
1
0.999999
0.999998
0.999991
0.999965
0.999866
0.999488
0.998052
0.992656
0.97276
0.900744
0.709469
0.516066
0.360451
0.24241
0.157397
0.0988674
0.0601672
0.0355151
0.0203519
0.0113307
0.00613227
0.00322759
0.00165238
0.000822863
0.000398486
0.000187601
8.58051e-05
3.81167e-05
1.64263e-05
6.88185e-06
2.76277e-06
0.528
0.786781
0.760199
0.664299
0.592291
0.571528
0.56756
0.568985
0.581403
0.60709
0.640562
0.679721
0.722182
0.756666
0.779078
0.790744
0.795946
0.796998
0.783832
0.768055
0.738686
0.704802
0.668499
0.64105
0.617056
0.600495
0.586542
0.576875
0.570352
0.567941
0.571161
0.57748
0.589833
0.615635
0.675075
0.748454
0.791751
0.812156
0.819671
0.821639
0.817665
0.808664
0.787604
0.765875
0.749521
0.733361
0.715221
0.698924
0.687338
0.681758
0.679076
0.678904
0.680012
0.683883
0.693356
0.69873
0.697952
0.691725
0.672907
0.646913
0.623663
0.597168
0.569465
0.533506
0.503174
0.477137
0.458468
0.422676
0.370137
0.305133
0.243681
0.197567
0.169193
0.154092
0.147115
0.145896
0.147016
0.151111
0.161231
0.183485
0.203631
0.230193
0.281713
0.355489
0.430244
0.489558
0.531644
0.555689
0.565559
0.568152
0.568631
0.570703
0.574132
0.577908
0.583143
0.5885
0.592233
0.595124
0.599876
0.610316
0.637614
0.719968
0.843157
0.922983
0.966623
0.987216
0.995632
0.998629
0.999558
0.999811
0.999873
0.999867
0.999844
0.999843
0.999873
0.999919
0.999935
0.999937
0.999934
0.999921
0.999873
0.999788
0.999735
0.999719
0.999719
0.999718
0.999709
0.999664
0.999576
0.999536
0.999535
0.999579
0.999737
0.999865
0.999936
0.999971
0.999987
0.999995
0.999997
0.999999
0.999999
1
1
1
1
1
1
1
1
1
1
0.999998
0.999992
0.999966
0.999864
0.999462
0.997896
0.991914
0.969596
0.888202
0.687829
0.497069
0.344774
0.230324
0.148572
0.0927072
0.056035
0.0328432
0.0186836
0.0103234
0.00554333
0.00289361
0.00146854
0.00072448
0.000347343
0.000161747
7.31393e-05
3.20818e-05
1.36785e-05
5.59675e-06
0.534922
0.792378
0.772605
0.679885
0.617806
0.603263
0.602317
0.620859
0.675444
0.769557
0.836302
0.865088
0.883284
0.892895
0.896749
0.899376
0.903928
0.909436
0.914227
0.918565
0.920927
0.911112
0.88757
0.840527
0.78547
0.741696
0.711224
0.689227
0.667632
0.658054
0.657392
0.671775
0.697274
0.739802
0.772837
0.801364
0.816096
0.822793
0.824906
0.822882
0.815569
0.800936
0.781475
0.763606
0.74891
0.732439
0.714441
0.697318
0.682692
0.673646
0.667717
0.66447
0.663583
0.665409
0.671262
0.67633
0.676359
0.673321
0.662434
0.639929
0.619854
0.598833
0.571638
0.534919
0.498365
0.4598
0.429683
0.390705
0.341415
0.285101
0.233337
0.194107
0.168339
0.152728
0.14598
0.145679
0.147041
0.151267
0.160575
0.186178
0.218005
0.243504
0.290405
0.363762
0.443853
0.506751
0.543819
0.563021
0.571704
0.575319
0.577327
0.577714
0.578299
0.580803
0.585754
0.589707
0.591963
0.593354
0.595453
0.600246
0.611716
0.640095
0.726878
0.853535
0.931455
0.971805
0.989718
0.996659
0.999021
0.999724
0.999905
0.99995
0.999958
0.999958
0.999959
0.999969
0.999978
0.99998
0.99998
0.999978
0.999971
0.99995
0.999932
0.999925
0.999924
0.999924
0.999923
0.999917
0.9999
0.999888
0.999886
0.999891
0.99992
0.999953
0.999974
0.999987
0.999993
0.999997
0.999999
0.999999
1
1
1
1
1
1
1
1
1
1
1
0.999999
0.999998
0.999991
0.999962
0.999844
0.99937
0.997493
0.990255
0.963117
0.863897
0.655105
0.469804
0.323318
0.214363
0.137227
0.0849601
0.0509378
0.0296068
0.0166978
0.00914447
0.00486496
0.0025149
0.00126311
0.000616252
0.000291912
0.000134226
5.98568e-05
2.59371e-05
1.07967e-05
0.525227
0.797031
0.790804
0.7262
0.678013
0.669283
0.680385
0.741872