/*--------------------------------*- C++ -*----------------------------------*\
  =========                 |
  \\      /  F ield         | OpenFOAM: The Open Source CFD Toolbox
   \\    /   O peration     | Website:  https://openfoam.org
    \\  /    A nd           | Version:  7
     \\/     M anipulation  |
\*---------------------------------------------------------------------------*/
FoamFile
{
    version     2.0;
    format      ascii;
    class       volScalarField;
    location    "0.068";
    object      s_0;
}
// * * * * * * * * * * * * * * * * * * * * * * * * * * * * * * * * * * * * * //

dimensions      [0 0 0 0 0 0 0];

internalField   nonuniform List<scalar> 
12225
(
1
1
1
1
1
1
1
1
1
1
1
1
1
1
1
1
1
1
1
1
1
1
1
1
1
1
1
1
1
1
1
1
1
1
1
1
1
1
1
1
1
1
1
1
1
1
1
1
1
1
1
1
1
1
1
1
1
1
1
1
1
1
1
1
1
1
1
1
1
1
1
1
1
1
1
1
1
1
1
1
1
1
1
1
1
1
1
1
1
1
1
1
1
1
1
1
1
1
1
1
1
1
1
1
1
1
1
1
1
1
1
1
1
1
1
1
1
1
1
1
1
1
1
1
1
1
1
1
1
1
1
1
1
1
1
1
1
1
1
1
1
1
1
1
1
1
1
1
1
1
1
1
1
1
1
1
1
1
1
1
1
1
1
1
1
1
1
1
1
1
1
1
1
1
1
1
1
1
1
1
1
1
1
1
1
1
1
1
1
1
1
1
1
1
1
1
1
1
1
1
1
1
1
1
1
1
1
1
1
1
1
1
1
1
1
1
1
1
1
1
1
1
1
1
1
1
1
1
1
1
1
1
1
1
1
1
1
1
1
1
1
1
1
1
1
1
1
1
1
1
1
1
1
1
1
1
1
1
1
1
1
1
1
1
1
1
1
1
1
1
1
1
1
1
1
1
1
1
1
1
1
1
1
1
1
1
1
1
1
1
1
1
1
1
1
1
1
1
1
1
1
1
1
1
1
1
1
1
1
1
1
1
1
1
1
1
1
1
1
1
1
1
1
1
1
1
1
1
1
1
1
1
1
1
1
1
1
1
1
1
1
1
1
1
1
1
1
1
1
1
1
1
1
1
1
1
1
1
1
1
1
1
1
1
1
1
1
1
1
1
1
1
1
1
1
1
1
1
1
1
1
1
1
1
1
1
1
1
1
1
1
1
1
1
1
1
1
1
1
1
1
1
1
1
1
1
1
1
1
1
1
1
1
1
1
1
1
1
1
1
1
1
1
1
1
1
1
1
1
1
1
1
1
1
1
1
1
1
1
1
1
1
1
1
1
1
1
1
1
1
1
1
1
1
1
1
1
1
1
1
1
1
1
1
1
1
1
1
1
1
1
1
1
1
1
1
1
1
1
1
1
1
1
1
1
1
1
1
1
1
1
1
1
1
1
1
1
1
1
1
1
1
1
1
1
1
1
1
1
1
1
1
1
1
1
1
1
1
1
1
1
1
1
1
1
1
1
1
1
1
1
1
1
1
1
1
1
1
1
1
0.00797181
0.0236752
0.039131
0.0576838
0.0785433
0.100681
0.129
0.164984
0.199808
0.23639
0.265212
0.303576
0.341211
0.366295
0.38571
0.39299
0.392361
0.389055
0.381479
0.369772
0.350515
0.331067
0.301506
0.268792
0.235981
0.20393
0.173512
0.146483
0.125935
0.114362
0.11094
0.111819
0.115148
0.112173
0.0672665
0.0113281
0.00500519
0.00704748
0.00932169
0.0121911
0.0139507
0.015752
0.0199259
0.0239874
0.0260449
0.0275905
0.0306653
0.0374372
0.0530698
0.0793071
0.0995967
0.122587
0.247778
0.626021
0.791198
0.81032
0.812197
0.813701
0.814705
0.815235
0.816079
0.817139
0.818192
0.819426
0.82054
0.821867
0.822996
0.824077
0.825328
0.826677
0.828105
0.829498
0.831107
0.832112
0.833262
0.834535
0.835611
0.836825
0.838133
0.839304
0.840364
0.841298
0.842148
0.843018
0.843752
0.8445
0.845179
0.845856
0.846423
0.846848
0.847227
0.847607
0.847854
0.847995
0.848056
0.848054
0.847816
0.847495
0.84679
0.845963
0.844896
0.843404
0.841524
0.83897
0.835728
0.831606
0.826265
0.819592
0.81131
0.801017
0.788556
0.773731
0.756435
0.736405
0.713152
0.68607
0.654231
0.616678
0.572515
0.520651
0.461456
0.395588
0.324339
0.252588
0.18493
0.123585
0.0756615
0.044567
0.0252071
0.0136107
0.00698074
0.00339009
0.0015564
0.00067539
0.000277889
0.000108882
3.93354e-05
1.16982e-05
4.82706e-06
2.42845e-06
1.17161e-06
5.5273e-07
2.54718e-07
1.14665e-07
5.05007e-08
2.18004e-08
9.24182e-09
3.85501e-09
1.5854e-09
6.44131e-10
2.59065e-10
1.03347e-10
4.09675e-11
1.61651e-11
6.35859e-12
2.49662e-12
9.79629e-13
3.84569e-13
1.51183e-13
5.9533e-14
2.34546e-14
9.21819e-15
3.59889e-15
1.38924e-15
5.28005e-16
1.96926e-16
7.19007e-17
2.56588e-17
8.94058e-18
3.03949e-18
1.00758e-18
3.25447e-19
1.0233e-19
3.12735e-20
9.27257e-21
2.6577e-21
7.34684e-22
1.89309e-22
4.82654e-23
-3.39613e-23
0.00631859
0.0188908
0.0281399
0.0353178
0.0425546
0.0535657
0.0866187
0.156635
0.284982
0.406475
0.506101
0.588172
0.642439
0.675247
0.690931
0.700501
0.704796
0.70495
0.704275
0.701627
0.698505
0.691644
0.684299
0.673211
0.649457
0.618369
0.566483
0.501637
0.421799
0.316318
0.234186
0.18469
0.157746
0.146474
0.124364
0.0785331
0.0459655
0.0274102
0.0181402
0.0138522
0.0134027
0.0149607
0.0197114
0.0332286
0.0500172
0.059172
0.0678876
0.087082
0.0941712
0.1137
0.316724
0.647725
0.740502
0.797287
0.818413
0.823253
0.826417
0.828419
0.830242
0.831818
0.833353
0.835029
0.836582
0.838083
0.839413
0.840689
0.841507
0.842435
0.843556
0.844922
0.846193
0.847234
0.848127
0.848773
0.849626
0.85042
0.851218
0.851874
0.852672
0.853585
0.854406
0.855099
0.855847
0.856664
0.857373
0.85806
0.858935
0.859924
0.860782
0.861667
0.862626
0.86377
0.864898
0.866071
0.867286
0.86871
0.870017
0.871654
0.873344
0.875504
0.878119
0.881076
0.884799
0.889278
0.894707
0.901151
0.908832
0.917604
0.927288
0.937655
0.947985
0.956931
0.963377
0.96855
0.972694
0.975937
0.978417
0.980193
0.981287
0.981728
0.981236
0.977595
0.969257
0.956425
0.934995
0.904152
0.855785
0.784083
0.689392
0.577631
0.460571
0.350649
0.257148
0.182563
0.125852
0.0843948
0.0551051
0.0350492
0.0217222
0.0131231
0.00773276
0.00444802
0.00250041
0.00137542
0.000741412
0.000392225
0.000203937
0.000104357
5.26146e-05
2.61602e-05
1.28348e-05
6.21571e-06
2.97147e-06
1.40205e-06
6.52757e-07
2.99823e-07
1.35893e-07
6.08321e-08
2.69342e-08
1.18069e-08
5.1203e-09
2.1905e-09
9.20668e-10
3.78656e-10
1.51921e-10
5.93462e-11
2.25491e-11
8.33188e-12
2.99361e-12
1.04641e-12
3.55758e-13
1.17729e-13
3.78648e-14
1.18522e-14
3.59403e-15
1.05925e-15
3.01837e-16
7.55626e-17
2.17158e-17
-7.50264e-17
0.00317468
0.00841503
0.0126799
0.0119638
0.0103704
0.0188502
0.0549876
0.139028
0.320598
0.492799
0.625892
0.691991
0.717408
0.725861
0.728767
0.728279
0.726732
0.72425
0.721556
0.718326
0.716267
0.714352
0.71442
0.714416
0.713445
0.709915
0.701529
0.687663
0.662232
0.626385
0.548097
0.447
0.361275
0.280759
0.248312
0.215908
0.156624
0.108755
0.0754108
0.054447
0.0480778
0.0493186
0.0534011
0.0624246
0.0807581
0.11707
0.135378
0.171993
0.420858
0.632378
0.744442
0.794848
0.814784
0.823291
0.825873
0.82679
0.827324
0.827508
0.826981
0.826127
0.824788
0.823537
0.822741
0.822386
0.822304
0.822362
0.822657
0.822966
0.824137
0.825607
0.826611
0.8283
0.829987
0.83085
0.832628
0.834685
0.835708
0.837021
0.838702
0.839777
0.840837
0.842265
0.843582
0.845013
0.846537
0.847891
0.849307
0.850745
0.852144
0.853539
0.854846
0.856288
0.85804
0.859149
0.860346
0.861576
0.862138
0.862413
0.861967
0.861398
0.861229
0.8606
0.86002
0.859689
0.859669
0.860149
0.861114
0.862771
0.865711
0.870278
0.877355
0.888426
0.904103
0.921427
0.937549
0.950224
0.960716
0.969516
0.976846
0.982902
0.987938
0.991861
0.994597
0.996272
0.997103
0.99739
0.9974
0.996966
0.995385
0.991247
0.98124
0.957334
0.895183
0.784812
0.653933
0.517272
0.390715
0.284356
0.200221
0.136761
0.0908417
0.058806
0.0371756
0.0229974
0.0139506
0.0083162
0.00488196
0.00282802
0.00161959
0.000918633
0.000517042
0.000289461
0.000161661
9.03002e-05
5.03173e-05
2.77963e-05
1.51475e-05
8.11346e-06
4.26088e-06
2.19045e-06
1.10118e-06
5.40998e-07
2.59568e-07
1.21576e-07
5.55489e-08
2.47527e-08
1.07442e-08
4.5388e-09
1.86666e-09
7.50598e-10
2.9484e-10
1.13232e-10
4.24136e-11
1.55287e-11
5.5242e-12
1.92057e-12
6.43519e-13
2.10642e-13
6.64653e-14
1.66656e-14
0.00101953
0.00266398
0.00310775
0.00567462
0.0236965
0.083415
0.222817
0.468609
0.636793
0.704991
0.727081
0.732762
0.729985
0.721775
0.706888
0.685936
0.669581
0.650938
0.638745
0.626304
0.622024
0.623318
0.627628
0.636514
0.650793
0.668585
0.679755
0.680298
0.678258
0.672319
0.658034
0.62139
0.568227
0.508177
0.456086
0.422414
0.381641
0.318508
0.249739
0.195474
0.154117
0.141832
0.146797
0.162076
0.181855
0.216011
0.451062
0.635894
0.733449
0.784475
0.809923
0.819668
0.822818
0.823711
0.823887
0.821549
0.81758
0.810841
0.806606
0.803933
0.802735
0.802463
0.803769
0.806413
0.807746
0.80932
0.812299
0.814515
0.816099
0.818606
0.821001
0.822753
0.824598
0.826344
0.82801
0.829491
0.830494
0.831386
0.832288
0.833106
0.834069
0.835309
0.837029
0.839163
0.841346
0.843357
0.845175
0.846995
0.848785
0.850677
0.852599
0.854742
0.857895
0.860317
0.863292
0.867092
0.86995
0.873987
0.877182
0.879035
0.879419
0.878542
0.875475
0.871592
0.867539
0.863801
0.861437
0.860388
0.860266
0.860622
0.861108
0.861721
0.863146
0.867887
0.879799
0.898489
0.918197
0.934525
0.947793
0.958517
0.967567
0.975665
0.982956
0.989218
0.993878
0.996752
0.998332
0.999146
0.99953
0.999687
0.999734
0.999717
0.999413
0.998159
0.994494
0.984551
0.955987
0.865847
0.697916
0.535524
0.394236
0.280159
0.192837
0.129003
0.0841916
0.0538033
0.0337851
0.0209121
0.0127962
0.00776092
0.00467613
0.0028037
0.00167155
0.000987382
0.000576113
0.000331192
0.000187146
0.000103745
5.63385e-05
2.99415e-05
1.55635e-05
7.90998e-06
3.92974e-06
1.90833e-06
9.05633e-07
4.20043e-07
1.90308e-07
8.42362e-08
3.6373e-08
1.53234e-08
6.27403e-09
2.51078e-09
9.8054e-10
3.74374e-10
1.3903e-10
5.04541e-11
1.76986e-11
6.06218e-12
1.99805e-12
5.96524e-13
0.000144703
0.000503174
0.0152911
0.0700093
0.199032
0.451586
0.641431
0.719262
0.742279
0.741285
0.731878
0.710597
0.667065
0.614862
0.57031
0.532535
0.504918
0.477332
0.459305
0.443591
0.437671
0.439262
0.444868
0.457745
0.4789
0.504415
0.548449
0.599721
0.637593
0.654796
0.654215
0.648314
0.632732
0.605757
0.578966
0.551071
0.528931
0.502445
0.430777
0.372843
0.331119
0.279787
0.266924
0.270983
0.378674
0.615096
0.720108
0.774115
0.801979
0.814437
0.819287
0.820724
0.821065
0.817865
0.810705
0.800761
0.79425
0.791071
0.789778
0.789429
0.789713
0.791772
0.794378
0.796452
0.798405
0.800716
0.802892
0.804653
0.806475
0.808114
0.809099
0.809722
0.810135
0.810203
0.810018
0.809583
0.80897
0.808449
0.808287
0.80865
0.810116
0.812638
0.816369
0.820769
0.824915
0.827725
0.829481
0.831016
0.831738
0.832356
0.83412
0.836734
0.841644
0.847025
0.85425
0.861284
0.867584
0.874397
0.8804
0.886599
0.892706
0.897919
0.901249
0.902725
0.898778
0.890159
0.880572
0.872559
0.86759
0.8653
0.864339
0.862871
0.860736
0.858961
0.858716
0.86119
0.873416
0.899352
0.925797
0.94505
0.957944
0.966917
0.973837
0.979709
0.985207
0.99031
0.994323
0.996965
0.998487
0.99929
0.999679
0.999852
0.999918
0.99993
0.999916
0.999807
0.999325
0.997577
0.992084
0.975068
0.918862
0.756908
0.570357
0.414846
0.292711
0.201258
0.135363
0.0894079
0.0581997
0.0374426
0.0238528
0.0150505
0.00939238
0.00578687
0.00351228
0.00209508
0.00122564
0.000702008
0.000393209
0.000215229
0.000115085
6.01098e-05
3.06682e-05
1.52869e-05
7.44483e-06
3.54305e-06
1.64741e-06
7.48465e-07
3.32027e-07
1.43818e-07
6.07327e-08
2.49846e-08
9.99349e-09
3.90354e-09
1.48382e-09
5.50243e-10
1.97712e-10
6.91491e-11
2.33865e-11
7.29619e-12
0.00198494
0.0322075
0.127642
0.350726
0.619208
0.727387
0.758945
0.757934
0.744933
0.703896
0.628347
0.55354
0.505991
0.471201
0.442566
0.414533
0.387873
0.3655
0.347378
0.334106
0.327421
0.32871
0.33349
0.342442
0.360069
0.37619
0.40339
0.432861
0.497246
0.577038
0.622049
0.635951
0.633887
0.628923
0.621137
0.611045
0.60274
0.58667
0.556966
0.520537
0.416748
0.316388
0.31292
0.480566
0.673255
0.754891
0.79164
0.808351
0.815465
0.81783
0.818453
0.81655
0.810478
0.799431
0.789184
0.78383
0.781222
0.780115
0.77981
0.779865
0.780912
0.782891
0.784498
0.78558
0.786702
0.787525
0.788059
0.78827
0.788294
0.78813
0.787541
0.786616
0.78539
0.78384
0.782243
0.780658
0.779002
0.778165
0.777947
0.779065
0.783431
0.790052
0.798493
0.807354
0.811338
0.811959
0.811332
0.808357
0.801022
0.792656
0.789895
0.789074
0.791592
0.799712
0.813105
0.826415
0.842101
0.858942
0.873911
0.885607
0.895561
0.904558
0.912759
0.919531
0.92468
0.92704
0.921838
0.907608
0.891154
0.880103
0.875775
0.875092
0.874392
0.869889
0.861206
0.856506
0.855991
0.859422
0.874815
0.909961
0.940645
0.959343
0.970312
0.977161
0.982112
0.986256
0.990072
0.993476
0.996145
0.997921
0.998956
0.999508
0.999781
0.999906
0.999957
0.999971
0.99997
0.999946
0.999818
0.999285
0.997277
0.990367
0.967382
0.887996
0.698728
0.519691
0.375608
0.265346
0.183979
0.125551
0.0844607
0.0560368
0.036643
0.023579
0.0149003
0.0092278
0.00559048
0.00330864
0.00191124
0.00107711
0.000592165
0.00031764
0.00016628
8.49769e-05
4.2405e-05
2.06683e-05
9.83945e-06
4.57574e-06
2.07781e-06
9.21235e-07
3.98371e-07
1.67999e-07
6.89027e-08
2.74931e-08
1.06766e-08
4.03824e-09
1.48187e-09
5.28055e-10
1.82468e-10
5.86546e-11
0.0299189
0.116746
0.380086
0.671328
0.760325
0.772932
0.763054
0.723242
0.636931
0.535355
0.493077
0.468002
0.444077
0.419645
0.388138
0.350523
0.308494
0.26666
0.243224
0.218948
0.218891
0.224799
0.241387
0.269432
0.298507
0.325084
0.341228
0.36273
0.391322
0.435801
0.531471
0.594858
0.621342
0.62788
0.633174
0.633351
0.632255
0.627832
0.613159
0.549991
0.394073
0.350459
0.492718
0.693112
0.767917
0.798454
0.810574
0.814754
0.815708
0.815556
0.810742
0.801111
0.790474
0.782792
0.777372
0.775035
0.773971
0.773556
0.773466
0.773597
0.774241
0.774732
0.774898
0.774836
0.774368
0.773741
0.77294
0.771869
0.770665
0.768732
0.76647
0.763776
0.760733
0.757614
0.754216
0.750648
0.747434
0.745839
0.745254
0.745945
0.75068
0.757427
0.766579
0.775698
0.778721
0.779066
0.776371
0.767996
0.756244
0.752347
0.752159
0.75437
0.760028
0.768708
0.779291
0.790081
0.801675
0.815616
0.834458
0.859003
0.88445
0.904002
0.917303
0.928293
0.936624
0.943079
0.947699
0.947857
0.941057
0.920132
0.897989
0.887856
0.887019
0.888933
0.887913
0.877895
0.864363
0.859502
0.860545
0.870167
0.900618
0.937882
0.961636
0.97455
0.981522
0.985786
0.988999
0.991811
0.994269
0.996311
0.997839
0.99884
0.99942
0.999728
0.99988
0.999949
0.999978
0.999986
0.999985
0.999972
0.999901
0.999592
0.99839
0.99404
0.979276
0.928932
0.775012
0.589001
0.436575
0.316795
0.225552
0.157704
0.108247
0.0728489
0.0479865
0.0308848
0.0193935
0.0118687
0.00707507
0.00410757
0.00232295
0.00128015
0.00068777
0.000360413
0.00018429
9.19831e-05
4.48217e-05
2.1326e-05
9.90593e-06
4.49155e-06
1.98667e-06
8.56825e-07
3.59883e-07
1.46996e-07
5.83292e-08
2.25183e-08
8.43957e-09
3.06775e-09
1.0828e-09
3.57741e-10
0.133734
0.294634
0.664615
0.772151
0.782515
0.762923
0.687202
0.560238
0.503269
0.476982
0.46236
0.442731
0.413561
0.358586
0.282313
0.215162
0.172153
0.144767
0.128528
0.114345
0.110548
0.11232
0.12053
0.143601
0.203398
0.26422
0.301343
0.33882
0.361452
0.385174
0.43748
0.534443
0.597295
0.62336
0.637801
0.64458
0.646064
0.642707
0.61782
0.500848
0.389801
0.483891
0.688457
0.770672
0.800053
0.810722
0.814001
0.814569
0.81308
0.806327
0.79785
0.790183
0.781008
0.774141
0.77119
0.769737
0.768944
0.7686
0.768426
0.768012
0.767193
0.766532
0.765402
0.763917
0.762082
0.760173
0.75793
0.755413
0.752477
0.748447
0.743532
0.737651
0.730994
0.723941
0.716595
0.709475
0.703238
0.698345
0.695946
0.694988
0.695579
0.699494
0.703375
0.710743
0.719388
0.726695
0.732113
0.738699
0.743495
0.745515
0.748076
0.753641
0.763432
0.775772
0.787325
0.795746
0.80256
0.808987
0.816525
0.829322
0.848501
0.875916
0.905066
0.927683
0.942198
0.952658
0.959866
0.963687
0.964633
0.962511
0.95216
0.925626
0.906505
0.902298
0.904801
0.906414
0.902035
0.885238
0.874531
0.873145
0.879544
0.90544
0.940688
0.965939
0.979652
0.986487
0.989987
0.99215
0.994005
0.995688
0.997103
0.998194
0.998964
0.999451
0.999729
0.999874
0.999945
0.999977
0.99999
0.999993
0.999991
0.999979
0.999916
0.999654
0.998662
0.995136
0.983283
0.943655
0.814638
0.633037
0.478965
0.353919
0.255492
0.180079
0.123781
0.0828697
0.0539778
0.0341835
0.0210425
0.0125928
0.00732973
0.00415198
0.00229039
0.0012312
0.000645285
0.000329893
0.000164559
8.01105e-05
3.80599e-05
1.7645e-05
7.97935e-06
3.51813e-06
1.51094e-06
6.31573e-07
2.56324e-07
1.01097e-07
3.87179e-08
1.43739e-08
5.18448e-09
1.75921e-09
0.197091
0.559147
0.768914
0.789783
0.767267
0.666868
0.543278
0.497392
0.477933
0.466853
0.451018
0.412474
0.33327
0.244303
0.19225
0.158471
0.135774
0.119823
0.108114
0.0980155
0.0926341
0.0903004
0.0917906
0.10451
0.153868
0.221748
0.264094
0.297697
0.334271
0.365812
0.396407
0.46549
0.553779
0.612583
0.639532
0.650046
0.650646
0.642236
0.581168
0.436873
0.461159
0.671815
0.766482
0.799296
0.810116
0.81329
0.813862
0.812668
0.806008
0.797358
0.789931
0.780614
0.772722
0.768631
0.766768
0.765811
0.765035
0.764365
0.763416
0.761848
0.760313
0.757336
0.753925
0.748927
0.743374
0.737505
0.731154
0.724051
0.715677
0.704601
0.690648
0.677095
0.664533
0.654666
0.646137
0.639072
0.634106
0.63172
0.630937
0.632966
0.637329
0.645038
0.656381
0.669746
0.684126
0.699872
0.716312
0.732511
0.743821
0.752838
0.766132
0.787957
0.817072
0.846047
0.867341
0.87759
0.880675
0.874908
0.860328
0.845813
0.846892
0.861863
0.885365
0.911285
0.935421
0.953208
0.965124
0.973122
0.976674
0.976697
0.975849
0.971561
0.955425
0.932205
0.92278
0.923217
0.926574
0.926118
0.91682
0.903057
0.898829
0.901623
0.920352
0.949112
0.971302
0.984326
0.990769
0.993784
0.995235
0.996217
0.997155
0.998018
0.99872
0.999232
0.999572
0.999778
0.999892
0.999951
0.999979
0.999991
0.999995
0.999996
0.999993
0.999977
0.999908
0.999638
0.998676
0.9954
0.98462
0.948966
0.831274
0.653566
0.497946
0.368458
0.264737
0.184598
0.124854
0.0818929
0.0520975
0.0321606
0.0192788
0.0112319
0.00636521
0.00351161
0.00188724
0.0009886
0.000504965
0.000251577
0.000122263
5.79598e-05
2.67951e-05
1.20756e-05
5.30133e-06
2.26529e-06
9.41046e-07
3.79378e-07
1.48508e-07
5.63458e-08
2.07761e-08
7.23683e-09
0.260182
0.694459
0.794943
0.780931
0.687543
0.555954
0.506639
0.486183
0.474932
0.464058
0.428455
0.354234
0.27183
0.216457
0.179744
0.153925
0.136997
0.127145
0.119874
0.115923
0.110064
0.104162
0.114944
0.157768
0.20725
0.247286
0.271623
0.288235
0.310445
0.339062
0.386408
0.468773
0.559037
0.617202
0.645626
0.652482
0.649634
0.614645
0.481651
0.460378
0.646879
0.75804
0.796675
0.80893
0.812453
0.813189
0.812689
0.808554
0.800486
0.793779
0.785856
0.775627
0.769123
0.766369
0.76493
0.763914
0.762719
0.760875
0.758614
0.755657
0.750265
0.742012
0.730784
0.715584
0.698508
0.682127
0.668515
0.651807
0.635195
0.619762
0.606753
0.596825
0.586807
0.581608
0.577238
0.575118
0.574342
0.577032
0.583506
0.591278
0.603465
0.617286
0.632784
0.649442
0.668118
0.688548
0.710561
0.733632
0.758485
0.784056
0.812451
0.842245
0.869438
0.892353
0.911096
0.92634
0.938782
0.947637
0.950201
0.942919
0.920928
0.901395
0.896557
0.909766
0.930066
0.948668
0.963815
0.974851
0.982386
0.985869
0.986077
0.985383
0.983316
0.977071
0.959981
0.946591
0.944041
0.946576
0.948873
0.947922
0.94028
0.932839
0.932085
0.939926
0.960731
0.977504
0.988262
0.993807
0.996379
0.997502
0.998019
0.998419
0.998831
0.99921
0.999509
0.999717
0.999848
0.999924
0.999964
0.999984
0.999993
0.999997
0.999998
0.999997
0.999992
0.99997
0.999883
0.999572
0.998522
0.995052
0.983638
0.945158
0.820105
0.640179
0.481958
0.350684
0.246647
0.167744
0.110383
0.0703428
0.0434564
0.0260545
0.0151765
0.00859677
0.00473949
0.00254476
0.00133138
0.00067898
0.000337597
0.000163664
7.73511e-05
3.56287e-05
1.59858e-05
6.98117e-06
2.96511e-06
1.22269e-06
4.89322e-07
1.89821e-07
7.15703e-08
2.5579e-08
0.330188
0.758574
0.798013
0.736126
0.600549
0.528625
0.499968
0.485993
0.479602
0.461823
0.413846
0.337227
0.267548
0.237123
0.221199
0.204335
0.197064
0.193386
0.192054
0.195001
0.197451
0.19953
0.213273
0.229176
0.242365
0.256495
0.27244
0.290305
0.314742
0.3478
0.405812
0.495573
0.585559
0.634974
0.650316
0.650495
0.621466
0.515637
0.482337
0.605353
0.747543
0.793511
0.807508
0.81145
0.812236
0.811978
0.809272
0.803001
0.794776
0.788067
0.780721
0.772197
0.766344
0.7629
0.76132
0.760294
0.758526
0.755615
0.750836
0.742808
0.725929
0.702532
0.673675
0.649715
0.635578
0.620704
0.606638
0.59198
0.579962
0.570164
0.564942
0.558401
0.552458
0.546899
0.53985
0.533304
0.529982
0.528482
0.530728
0.5375
0.54893
0.56415
0.583226
0.604473
0.629849
0.658802
0.691627
0.727283
0.762243
0.795275
0.825424
0.851645
0.874326
0.894116
0.91154
0.927222
0.9416
0.954214
0.964126
0.971007
0.974836
0.974043
0.967157
0.956232
0.951431
0.953922
0.964179
0.974369
0.98285
0.988815
0.991801
0.992378
0.992066
0.991068
0.988809
0.982035
0.970206
0.964191
0.964422
0.96793
0.969622
0.969125
0.964543
0.960876
0.961934
0.971481
0.983637
0.991488
0.995819
0.9979
0.998786
0.99911
0.999257
0.999406
0.999573
0.999724
0.999837
0.999911
0.999954
0.999978
0.99999
0.999996
0.999998
0.999999
0.999998
0.999997
0.999988
0.999953
0.99983
0.999409
0.998002
0.993297
0.977239
0.921428
0.762506
0.58028
0.425358
0.300441
0.204744
0.134811
0.0858888
0.0530227
0.0317596
0.018479
0.0104541
0.00575489
0.00308458
0.00161049
0.000819321
0.000406208
0.000196262
9.23881e-05
4.23573e-05
1.89007e-05
8.20306e-06
3.45878e-06
1.41524e-06
5.61339e-07
2.16405e-07
7.93079e-08
0.392712
0.781732
0.78499
0.685924
0.573177
0.522448
0.503125
0.49896
0.492806
0.468457
0.422514
0.373545
0.356224
0.342803
0.314163
0.283516
0.26876
0.257381
0.24641
0.241823
0.240382
0.242131
0.242869
0.248509
0.258125
0.269909
0.287826
0.312106
0.346501
0.398844
0.491704
0.57737
0.624266
0.639626
0.643876
0.611797
0.535903
0.508615
0.575137
0.734022
0.790322
0.807174
0.811516
0.811201
0.810286
0.806507
0.798326
0.789347
0.782517
0.775557
0.77027
0.765206
0.76161
0.759363
0.758187
0.757149
0.755121
0.750824
0.741811
0.721143
0.692655
0.661377
0.63643
0.621241
0.604986
0.587282
0.568562
0.557273
0.548772
0.543702
0.535696
0.523743
0.506496
0.486092
0.462032
0.440029
0.425476
0.41899
0.418091
0.428167
0.444759
0.466449
0.491343
0.516675
0.542604
0.569449
0.606708
0.655717
0.712065
0.762576
0.801818
0.830873
0.851581
0.867643
0.882553
0.898638
0.916494
0.935384
0.953379
0.96794
0.977797
0.984003
0.987885
0.989849
0.989718
0.987066
0.982625
0.981112
0.983729
0.989408
0.993455
0.99552
0.996121
0.996093
0.995768
0.995004
0.993068
0.987389
0.98122
0.979563
0.981073
0.983856
0.984444
0.983644
0.980599
0.979658
0.981819
0.988925
0.994213
0.997198
0.998695
0.999365
0.999635
0.999735
0.999786
0.999835
0.999884
0.999927
0.999958
0.999977
0.999989
0.999995
0.999998
0.999999
0.999999
0.999999
0.999998
0.999994
0.999977
0.999915
0.999698
0.998954
0.99639
0.987429
0.955926
0.847028
0.652809
0.479992
0.339272
0.231054
0.151918
0.096616
0.0595309
0.0355871
0.0206628
0.0116634
0.00640488
0.00342359
0.00178202
0.000903455
0.000446172
0.000214606
0.000100511
4.58114e-05
2.03083e-05
8.74786e-06
3.65886e-06
1.48333e-06
5.84515e-07
2.19493e-07
0.458972
0.783935
0.768035
0.663136
0.565208
0.527145
0.515259
0.511858
0.512381
0.513627
0.505596
0.47738
0.438561
0.423602
0.415009
0.39864
0.384011
0.373889
0.3606
0.351438
0.345187
0.341849
0.341154
0.344794
0.351706
0.369174
0.395206
0.438503
0.483546
0.539583
0.586884
0.610652
0.621807
0.623477
0.588506
0.548086
0.532541
0.569993
0.721704
0.786909
0.807629
0.812967
0.811843
0.809347
0.803902
0.790809
0.780384
0.768065
0.757074
0.750811
0.747901
0.747188
0.749112
0.751807
0.75151
0.750473
0.748851
0.743483
0.726659
0.695686
0.659078
0.629288
0.610015
0.593131
0.571016
0.554197
0.541928
0.536659
0.52856
0.5145
0.492109
0.45776
0.406618
0.358303
0.316938
0.289663
0.274137
0.267987
0.274889
0.296605
0.330529
0.371632
0.413374
0.456239
0.492752
0.520903
0.540075
0.559322
0.587124
0.634626
0.694001
0.744063
0.775281
0.793189
0.808597
0.826056
0.847111
0.873054
0.903469
0.934321
0.960071
0.977445
0.987292
0.992427
0.995244
0.99672
0.996964
0.996068
0.993719
0.992696
0.994124
0.996608
0.997809
0.998235
0.99829
0.998225
0.998003
0.997423
0.995578
0.992297
0.990568
0.990647
0.992103
0.992806
0.992661
0.991399
0.990275
0.990523
0.993127
0.996434
0.998273
0.999209
0.999644
0.999829
0.999903
0.999934
0.999951
0.999964
0.999976
0.999985
0.999992
0.999996
0.999998
0.999999
1
1
1
0.999999
0.999996
0.999986
0.999947
0.999806
0.999308
0.997531
0.991153
0.968389
0.888002
0.695847
0.511398
0.360734
0.24498
0.160583
0.101811
0.0625396
0.0372701
0.0215709
0.0121349
0.00663967
0.00353523
0.0018323
0.000924622
0.000454266
0.000217251
0.000101093
4.57496e-05
2.01183e-05
8.59293e-06
3.55878e-06
1.43254e-06
5.50655e-07
0.488169
0.784191
0.760622
0.651308
0.56707
0.539761
0.529409
0.52695
0.527411
0.532723
0.543827
0.5518
0.555542
0.557374
0.557997
0.554801
0.550111
0.542912
0.535032
0.526728
0.518311
0.513478
0.511047
0.510656
0.514223
0.523984
0.536012
0.545255
0.563996
0.575908
0.588063
0.594682
0.585811
0.567178
0.555902
0.552865
0.58613
0.717767
0.784386
0.808528
0.814821
0.814353
0.810537
0.803034
0.786525
0.771172
0.757371
0.745236
0.734504
0.727749
0.72334
0.72159
0.723865
0.734529
0.740653
0.740667
0.737998
0.727011
0.702768
0.667265
0.636628
0.609864
0.587594
0.56681
0.546804
0.52906
0.52038
0.508348
0.486951
0.450128
0.392167
0.326408
0.270228
0.228725
0.203264
0.190383
0.18582
0.188583
0.19849
0.214165
0.239844
0.285849
0.349129
0.412775
0.466448
0.506178
0.530487
0.544559
0.554113
0.564373
0.582485
0.609201
0.63685
0.662054
0.685847
0.708493
0.730161
0.757074
0.797191
0.849115
0.90218
0.944881
0.972284
0.987179
0.994231
0.997247
0.998535
0.999011
0.998967
0.998387
0.997666
0.997668
0.998471
0.999083
0.999314
0.999359
0.999346
0.999281
0.999083
0.998411
0.997269
0.996634
0.996553
0.996871
0.997089
0.997018
0.996481
0.995857
0.995808
0.996467
0.998094
0.999084
0.999584
0.999818
0.999919
0.99996
0.999977
0.999985
0.999989
0.999993
0.999995
0.999997
0.999998
0.999999
1
1
1
1
0.999999
0.999997
0.99999
0.99996
0.99985
0.999445
0.997953
0.992462
0.972531
0.901187
0.712765
0.521324
0.366116
0.247518
0.161532
0.101974
0.0623733
0.0370106
0.0213249
0.0119403
0.00650095
0.00344321
0.00177463
0.000890103
0.000434441
0.000206264
9.52255e-05
4.27167e-05
1.86124e-05
7.86665e-06
3.23178e-06
1.27008e-06
0.513758
0.78456
0.757423
0.648257
0.576837
0.556844
0.552699
0.552414
0.55502
0.562903
0.575013
0.590192
0.605584
0.617307
0.624737
0.628196
0.629175
0.624088
0.61633
0.606744
0.592442
0.58223
0.568946
0.561152
0.55533
0.552857
0.5522
0.555007
0.559423
0.562395
0.564452
0.563884
0.563564
0.564459
0.573598
0.620717
0.726844
0.786028
0.810081
0.817017
0.817975
0.813464
0.80435
0.782305
0.761257
0.746813
0.729389
0.715761
0.707764
0.703454
0.701022
0.69996
0.700214
0.707638
0.719433
0.723598
0.721655
0.711244
0.687096
0.656019
0.626384
0.600395
0.578635
0.5528
0.52841
0.50342
0.486159
0.462688
0.42333
0.366742
0.300205
0.241129
0.199201
0.174581
0.161884
0.156528
0.155923
0.160539
0.172184
0.189915
0.209306
0.240541
0.296278
0.369451
0.439511
0.494444
0.528518
0.545432
0.554021
0.559446
0.565695
0.572854
0.580506
0.588774
0.599428
0.610998
0.620585
0.630591
0.649807
0.694214
0.776765
0.867671
0.93078
0.967931
0.98676
0.995015
0.998175
0.999249
0.999596
0.999653
0.999547
0.999378
0.999334
0.999473
0.999693
0.999776
0.99979
0.999784
0.999758
0.999669
0.999382
0.99909
0.998967
0.998962
0.999002
0.999001
0.998938
0.998672
0.998456
0.998424
0.99857
0.999139
0.999585
0.999812
0.999918
0.999965
0.999984
0.999992
0.999995
0.999997
0.999998
0.999999
0.999999
1
1
1
1
1
1
0.999999
0.999998
0.999991
0.999965
0.999864
0.999479
0.998019
0.992533
0.97231
0.899124
0.706737
0.513851
0.35872
0.24113
0.156496
0.0982582
0.0597714
0.0352671
0.0202017
0.0112427
0.00608227
0.00320004
0.00163765
0.00081521
0.000394626
0.000185711
8.49062e-05
3.77021e-05
1.62409e-05
6.80136e-06
2.72935e-06
0.526983
0.78684
0.760759
0.665481
0.592846
0.571671
0.567558
0.568825
0.580843
0.606107
0.639191
0.67791
0.720043
0.754642
0.777162
0.788901
0.794127
0.795177
0.781913
0.766089
0.736808
0.702974
0.666866
0.639909
0.616143
0.599783
0.586021
0.576519
0.570123
0.567758
0.571081
0.577446
0.589915
0.61605
0.675893
0.749149
0.792202
0.812412
0.819811
0.821736
0.817705
0.808556
0.787352
0.765692
0.749392
0.73319
0.715029
0.698687
0.687038
0.68143
0.678734
0.678559
0.679678
0.683533
0.692973
0.698325
0.69754
0.691301
0.672489
0.646579
0.623415
0.596945
0.56917
0.533124
0.502725
0.476587
0.457781
0.421798
0.36916
0.304207
0.242977
0.197122
0.168947
0.153967
0.147072
0.145894
0.147035
0.151177
0.16143
0.183715
0.203781
0.230606
0.282578
0.356594
0.43121
0.49024
0.532062
0.555805
0.565485
0.568004
0.568514
0.570708
0.574174
0.577987
0.58325
0.588605
0.592339
0.595295
0.600228
0.611105
0.639728
0.725415
0.847365
0.925322
0.96776
0.987694
0.995807
0.998685
0.999572
0.999814
0.999872
0.999866
0.999842
0.999842
0.999873
0.999919
0.999935
0.999936
0.999933
0.99992
0.999871
0.999786
0.999734
0.999718
0.999718
0.999717
0.999708
0.999662
0.999575
0.999535
0.999534
0.99958
0.999739
0.999867
0.999937
0.999972
0.999988
0.999995
0.999998
0.999999
0.999999
1
1
1
1
1
1
1
1
1
0.999999
0.999998
0.999991
0.999965
0.999861
0.999453
0.99786
0.991777
0.969089
0.886366
0.685126
0.494893
0.343088
0.229088
0.147708
0.0921278
0.0556613
0.0326107
0.0185439
0.0102421
0.00549753
0.00286858
0.00145526
0.000717644
0.000343927
0.000160091
7.23606e-05
3.1727e-05
1.35214e-05
5.53024e-06
0.533848
0.792429
0.773215
0.681268
0.618391
0.603486
0.602357
0.620204
0.673689
0.76678
0.835082
0.864291
0.882559
0.892493
0.896504
0.899129
0.90361
0.909124
0.913955
0.918061
0.920251
0.91016
0.886182
0.838677
0.783739
0.740551
0.710165
0.688381
0.66694
0.657462
0.657108
0.671752
0.697516
0.740234
0.773329
0.801693
0.816315
0.822936
0.825019
0.82294
0.815566
0.800875
0.781414
0.763566
0.748865
0.732363
0.714345
0.697204
0.68256
0.673504
0.667552
0.664279
0.663362
0.665178
0.670992
0.675997
0.676015
0.672945
0.662013
0.639573
0.619561
0.598595
0.571332
0.534537
0.497876
0.459224
0.428976
0.38987
0.340511
0.284257
0.232665
0.193634
0.168026
0.152545
0.14592
0.145651
0.147031
0.151287
0.160678
0.186524
0.217964
0.243454
0.290817
0.364513
0.444553
0.507156
0.544057
0.563153
0.571735
0.575292
0.577251
0.577603
0.5782
0.580759
0.585656
0.589548
0.591787
0.593198
0.595378
0.600341
0.612161
0.641616
0.731933
0.857301
0.933521
0.972767
0.990106
0.996797
0.999064
0.999735
0.999907
0.99995
0.999958
0.999957
0.999959
0.999969
0.999978
0.99998
0.99998
0.999978
0.99997
0.999949
0.999932
0.999925
0.999924
0.999924
0.999923
0.999917
0.999899
0.999887
0.999885
0.999891
0.99992
0.999953
0.999974
0.999987
0.999993
0.999997
0.999999
0.999999
1
1
1
1
1
1
1
1
1
1
1
0.999999
0.999998
0.999991
0.999961
0.999841
0.999359
0.997449
0.990089
0.9625
0.861657
0.652562
0.467698
0.321704
0.21319
0.136415
0.0844199
0.0505923
0.0293938
0.0165709
0.00907132
0.00482411
0.00249278
0.00125149
0.000610333
0.000288988
0.000132825
5.9207e-05
2.56444e-05
1.06705e-05
0.523981