/*--------------------------------*- C++ -*----------------------------------*\
  =========                 |
  \\      /  F ield         | OpenFOAM: The Open Source CFD Toolbox
   \\    /   O peration     | Website:  https://openfoam.org
    \\  /    A nd           | Version:  7
     \\/     M anipulation  |
\*---------------------------------------------------------------------------*/
FoamFile
{
    version     2.0;
    format      ascii;
    class       volVectorField;
    location    "0.068";
    object      UMean;
}
// * * * * * * * * * * * * * * * * * * * * * * * * * * * * * * * * * * * * * //

dimensions      [0 1 -1 0 0 0 0];

internalField   nonuniform List<vector> 
12225
(
(4.7731 0.164825 0)
(4.17705 0.11185 0)
(3.71529 0.0984507 0)
(3.34603 0.0818361 0)
(3.01363 0.0686641 0)
(2.70323 0.059026 0)
(2.41574 0.0506833 0)
(2.1556 0.0427501 0)
(1.9267 0.0343675 0)
(1.72978 0.0267606 0)
(1.56658 0.0184512 0)
(1.43323 0.0128672 0)
(1.33126 0.00471221 0)
(1.25228 0.00402712 0)
(1.19653 -0.00656599 0)
(1.15893 0.00243708 0)
(1.13322 -0.0202954 0)
(1.13024 -0.00119463 0)
(5.02324 0.112771 0)
(4.87622 0.0732745 0)
(4.75843 0.0894191 0)
(4.66894 0.0889594 0)
(4.57568 0.0876075 0)
(4.47055 0.0882823 0)
(4.3554 0.0888429 0)
(4.23604 0.0872664 0)
(4.11508 0.0839381 0)
(3.99788 0.0778538 0)
(3.88342 0.0713255 0)
(3.77883 0.0619362 0)
(3.6775 0.0549951 0)
(3.59193 0.0438182 0)
(3.5045 0.0399891 0)
(3.44015 0.0261035 0)
(3.36454 0.0254461 0)
(3.31607 -0.00170608 0)
(4.99688 0.173076 0)
(4.87796 0.123094 0)
(4.79999 0.131181 0)
(4.76967 0.125718 0)
(4.75419 0.118811 0)
(4.73828 0.115792 0)
(4.71975 0.114084 0)
(4.69934 0.111757 0)
(4.67726 0.107159 0)
(4.65302 0.10142 0)
(4.62672 0.0930802 0)
(4.59806 0.0854489 0)
(4.56867 0.0750061 0)
(4.53769 0.0683192 0)
(4.50879 0.0571983 0)
(4.47814 0.0522362 0)
(4.45344 0.0391541 0)
(4.42183 0.0254459 0)
(4.99404 0.188644 0)
(4.89697 0.119944 0)
(4.81963 0.118815 0)
(4.78501 0.114921 0)
(4.77179 0.108186 0)
(4.76415 0.104513 0)
(4.75886 0.103312 0)
(4.75639 0.101761 0)
(4.75661 0.098853 0)
(4.7582 0.0939734 0)
(4.76013 0.0881818 0)
(4.76113 0.0808792 0)
(4.76164 0.074008 0)
(4.76054 0.0659058 0)
(4.76036 0.0593013 0)
(4.75833 0.0507372 0)
(4.76001 0.0420504 0)
(4.75689 0.0297097 0)
(4.99753 0.214684 0)
(4.92362 0.144608 0)
(4.85404 0.135827 0)
(4.81695 0.131466 0)
(4.80102 0.122777 0)
(4.7918 0.115731 0)
(4.7853 0.111383 0)
(4.7819 0.107809 0)
(4.78206 0.103206 0)
(4.78477 0.0974749 0)
(4.78908 0.0905145 0)
(4.79372 0.0831594 0)
(4.79874 0.0752065 0)
(4.80344 0.0674368 0)
(4.80892 0.0594147 0)
(4.81424 0.0507767 0)
(4.82109 0.0414008 0)
(4.82636 0.0280251 0)
(4.99379 0.229978 0)
(4.93961 0.158938 0)
(4.88026 0.141397 0)
(4.84456 0.13506 0)
(4.82867 0.125458 0)
(4.82035 0.116444 0)
(4.81456 0.110177 0)
(4.81117 0.105268 0)
(4.81082 0.100064 0)
(4.81291 0.0938287 0)
(4.81661 0.0867708 0)
(4.82086 0.0790971 0)
(4.82558 0.0712279 0)
(4.83026 0.0631468 0)
(4.83569 0.0548899 0)
(4.84107 0.0460489 0)
(4.84747 0.0359388 0)
(4.85255 0.0238765 0)
(4.9961 0.244108 0)
(4.95589 0.175401 0)
(4.90563 0.15102 0)
(4.87139 0.14185 0)
(4.85497 0.13158 0)
(4.84718 0.121216 0)
(4.84231 0.113055 0)
(4.83938 0.106641 0)
(4.83891 0.100455 0)
(4.84063 0.0936555 0)
(4.8439 0.0861881 0)
(4.84779 0.078249 0)
(4.85218 0.0700819 0)
(4.85656 0.0616462 0)
(4.86155 0.053019 0)
(4.86625 0.0436985 0)
(4.8717 0.0335529 0)
(4.87552 0.0219798 0)
(5.00043 0.254697 0)
(4.97128 0.190073 0)
(4.93019 0.160614 0)
(4.89898 0.14765 0)
(4.88268 0.136315 0)
(4.87516 0.124818 0)
(4.87081 0.11499 0)
(4.86805 0.106998 0)
(4.86729 0.0997391 0)
(4.86856 0.0922687 0)
(4.87146 0.0843458 0)
(4.8751 0.07607 0)
(4.87929 0.0676056 0)
(4.8834 0.0589482 0)
(4.88798 0.0500341 0)
(4.89202 0.0406143 0)
(4.89659 0.0305368 0)
(4.89938 0.0195485 0)
(5.00039 0.26165 0)
(4.98107 0.202284 0)
(4.94924 0.169694 0)
(4.92205 0.153085 0)
(4.90654 0.140503 0)
(4.89952 0.128209 0)
(4.89604 0.117112 0)
(4.89399 0.10772 0)
(4.89341 0.0993665 0)
(4.89442 0.0911945 0)
(4.89691 0.0828187 0)
(4.90018 0.0741985 0)
(4.90406 0.0654555 0)
(4.90788 0.0565755 0)
(4.91206 0.0475191 0)
(4.91564 0.0380993 0)
(4.91956 0.0282429 0)
(4.92181 0.0178582 0)
(4.99681 0.268238 0)
(4.98368 0.213281 0)
(4.95883 0.178763 0)
(4.93578 0.158812 0)
(4.92182 0.144451 0)
(4.9156 0.131252 0)
(4.91311 0.119148 0)
(4.91198 0.108613 0)
(4.91193 0.0992838 0)
(4.91312 0.0904311 0)
(4.91558 0.0815887 0)
(4.91877 0.0726338 0)
(4.92251 0.0636124 0)
(4.92619 0.0545333 0)
(4.93007 0.045365 0)
(4.93334 0.0360084 0)
(4.93675 0.0264157 0)
(4.93875 0.0165999 0)
(4.99317 0.271859 0)
(4.98468 0.221754 0)
(4.96537 0.186384 0)
(4.9458 0.163645 0)
(4.9329 0.147317 0)
(4.92671 0.133108 0)
(4.92435 0.120119 0)
(4.92364 0.108551 0)
(4.92397 0.098261 0)
(4.92532 0.0886781 0)
(4.92773 0.0793302 0)
(4.93076 0.0700266 0)
(4.93425 0.0607614 0)
(4.93759 0.05155 0)
(4.9411 0.0423629 0)
(4.94399 0.033146 0)
(4.94709 0.0238596 0)
(4.94887 0.01455 0)
(5.00308 0.274911 0)
(4.99705 0.228612 0)
(4.9815 0.193431 0)
(4.96478 0.168945 0)
(4.95299 0.150903 0)
(4.94685 0.135683 0)
(4.94438 0.121927 0)
(4.94367 0.109537 0)
(4.944 0.0984103 0)
(4.94519 0.0881789 0)
(4.94728 0.0784293 0)
(4.9499 0.0689106 0)
(4.95295 0.0595236 0)
(4.95585 0.0502473 0)
(4.95891 0.0410354 0)
(4.96132 0.0318897 0)
(4.96398 0.022773 0)
(4.96532 0.0137921 0)
(5.00021 0.277879 0)
(4.99707 0.233769 0)
(4.98571 0.198962 0)
(4.97271 0.173123 0)
(4.96324 0.153409 0)
(4.95833 0.13699 0)
(4.95667 0.122379 0)
(4.95668 0.109205 0)
(4.95761 0.0973271 0)
(4.95919 0.086468 0)
(4.96149 0.0762625 0)
(4.96418 0.0664533 0)
(4.96727 0.0569079 0)
(4.97014 0.0475819 0)
(4.97314 0.0384337 0)
(4.97537 0.0294635 0)
(4.97791 0.0206379 0)
(4.97898 0.0120309 0)
(5.00969 0.280586 0)
(5.00921 0.239377 0)
(5.00121 0.205152 0)
(4.99128 0.178151 0)
(4.98386 0.156846 0)
(4.97999 0.139189 0)
(4.9788 0.123731 0)
(4.97917 0.109829 0)
(4.98047 0.0972507 0)
(4.98232 0.0857732 0)
(4.98475 0.0751271 0)
(4.98745 0.0650626 0)
(4.99047 0.0554042 0)
(4.99327 0.0460649 0)
(4.9962 0.036984 0)
(4.99838 0.0281668 0)
(5.00084 0.0195826 0)
(5.00191 0.0113277 0)
(5.0048 0.279532 0)
(5.00684 0.241776 0)
(5.00227 0.208421 0)
(4.99578 0.180685 0)
(4.99111 0.158112 0)
(4.98914 0.139271 0)
(4.98934 0.122851 0)
(4.99085 0.108132 0)
(4.99314 0.0948092 0)
(4.99582 0.0826916 0)
(4.99886 0.0715615 0)
(5.00204 0.0611995 0)
(5.00542 0.05142 0)
(5.00856 0.0421187 0)
(5.01175 0.0332119 0)
(5.01425 0.0246932 0)
(5.01693 0.016504 0)
(5.0184 0.00871922 0)
(5.01255 0.282227 0)
(5.01532 0.246236 0)
(5.01304 0.213193 0)
(5.00938 0.18471 0)
(5.00726 0.160827 0)
(5.00716 0.140607 0)
(5.00851 0.123035 0)
(5.01071 0.107452 0)
(5.0134 0.0934907 0)
(5.01631 0.0808933 0)
(5.01942 0.0693978 0)
(5.02256 0.05878 0)
(5.0258 0.0488494 0)
(5.0288 0.0395218 0)
(5.03179 0.0307032 0)
(5.03423 0.022414 0)
(5.03677 0.0145487 0)
(5.03835 0.00721637 0)
(4.99895 0.2799 0)
(5.00271 0.244288 0)
(5.00273 0.211507 0)
(5.00227 0.182688 0)
(5.00335 0.157991 0)
(5.00595 0.136867 0)
(5.00943 0.118552 0)
(5.01331 0.102403 0)
(5.01741 0.087969 0)
(5.02159 0.0749622 0)
(5.02583 0.0631583 0)
(5.02994 0.0523826 0)
(5.03396 0.04245 0)
(5.03763 0.0332495 0)
(5.04116 0.0246427 0)
(5.0441 0.016623 0)
(5.04707 0.00906183 0)
(5.04917 0.00205435 0)
(5.00389 0.284137 0)
(5.00938 0.24566 0)
(5.0119 0.211473 0)
(5.01417 0.181628 0)
(5.01795 0.155807 0)
(5.02293 0.133536 0)
(5.02835 0.114258 0)
(5.03372 0.0974443 0)
(5.03891 0.0826355 0)
(5.04385 0.0694897 0)
(5.04862 0.0577249 0)
(5.05313 0.0471408 0)
(5.05747 0.0375259 0)
(5.0614 0.0287702 0)
(5.0652 0.0206985 0)
(5.06837 0.0133109 0)
(5.07159 0.00641691 0)
(5.07385 0.000153358 0)
(5.00415 0.278362 0)
(5.0133 0.238439 0)
(5.02007 0.20276 0)
(5.02649 0.171611 0)
(5.03408 0.144852 0)
(5.04249 0.122002 0)
(5.05088 0.102361 0)
(5.05875 0.0852444 0)
(5.06604 0.0701126 0)
(5.07277 0.0566124 0)
(5.07906 0.0444956 0)
(5.08483 0.0336042 0)
(5.09017 0.0237766 0)
(5.09488 0.0149184 0)
(5.09925 0.00687332 0)
(5.10293 -0.000397707 0)
(5.10652 -0.00707965 0)
(5.10925 -0.0131127 0)
(5.00193 0.274074 0)
(5.01228 0.230364 0)
(5.0224 0.191144 0)
(5.03359 0.15784 0)
(5.0461 0.130415 0)
(5.05865 0.107884 0)
(5.07014 0.0890828 0)
(5.08032 0.0730992 0)
(5.08945 0.0593159 0)
(5.09779 0.0473329 0)
(5.1055 0.0368299 0)
(5.11255 0.0275637 0)
(5.11903 0.0192935 0)
(5.12476 0.0118872 0)
(5.13003 0.00516015 0)
(5.13451 -0.000906909 0)
(5.13875 -0.00650982 0)
(5.14208 -0.0115457 0)
(5.00015 0.271485 0)
(5.01254 0.220241 0)
(5.02692 0.176591 0)
(5.04334 0.141394 0)
(5.06077 0.113328 0)
(5.07744 0.090336 0)
(5.09234 0.0708129 0)
(5.10541 0.0539289 0)
(5.11699 0.0393323 0)
(5.12731 0.0267911 0)
(5.13653 0.01601 0)
(5.1446 0.00668762 0)
(5.15174 -0.00146268 0)
(5.15791 -0.0086248 0)
(5.16348 -0.0149942 0)
(5.16824 -0.0206469 0)
(5.17275 -0.0257558 0)
(5.17635 -0.0302977 0)
(5.0064 0.265545 0)
(5.02302 0.204855 0)
(5.044 0.157612 0)
(5.06687 0.123084 0)
(5.08878 0.0977391 0)
(5.10784 0.0780111 0)
(5.12397 0.0617027 0)
(5.13808 0.0478864 0)
(5.15092 0.0361636 0)
(5.16263 0.0261859 0)
(5.17315 0.0175466 0)
(5.18234 0.00992531 0)
(5.19036 0.00308261 0)
(5.19723 -0.00306892 0)
(5.20335 -0.00863978 0)
(5.20854 -0.0136291 0)
(5.21341 -0.0182068 0)
(5.21734 -0.0223083 0)
(5.00241 0.260811 0)
(5.02877 0.187963 0)
(5.06127 0.135134 0)
(5.09387 0.0988256 0)
(5.12233 0.0722495 0)
(5.14528 0.0506301 0)
(5.16375 0.0323184 0)
(5.17939 0.0172605 0)
(5.19321 0.00531992 0)
(5.20546 -0.00411631 0)
(5.21618 -0.0118269 0)
(5.22537 -0.0183953 0)
(5.23336 -0.0241622 0)
(5.24022 -0.0292745 0)
(5.24636 -0.0338464 0)
(5.25157 -0.0379283 0)
(5.25639 -0.041638 0)
(5.2602 -0.0449753 0)
(5.00459 0.244197 0)
(5.0401 0.164133 0)
(5.08387 0.11522 0)
(5.12405 0.087893 0)
(5.15583 0.0693421 0)
(5.1803 0.0529149 0)
(5.20064 0.0380159 0)
(5.21895 0.025457 0)
(5.23555 0.0153296 0)
(5.25006 0.00702736 0)
(5.2624 -9.73449e-05 0)
(5.27281 -0.00638405 0)
(5.2818 -0.0119694 0)
(5.28958 -0.0168893 0)
(5.29657 -0.0212582 0)
(5.30257 -0.0251289 0)
(5.30812 -0.0286648 0)
(5.31266 -0.0318375 0)
(5.00687 0.228166 0)
(5.05899 0.126957 0)
(5.12081 0.0723863 0)
(5.17056 0.0443409 0)
(5.20468 0.0244389 0)
(5.22913 0.00703365 0)
(5.24979 -0.00683173 0)
(5.2687 -0.0166414 0)
(5.28562 -0.0235755 0)
(5.30004 -0.0290855 0)
(5.31212 -0.0339548 0)
(5.32226 -0.0383672 0)
(5.33105 -0.0423094 0)
(5.33865 -0.0457869 0)
(5.34543 -0.0488793 0)
(5.3512 -0.0516578 0)
(5.3565 -0.0542101 0)
(5.36079 -0.0565515 0)
(5.0145 0.211584 0)
(5.08824 0.112926 0)
(5.16844 0.077831 0)
(5.22559 0.0617559 0)
(5.26141 0.0436854 0)
(5.28773 0.0255171 0)
(5.31142 0.0112977 0)
(5.33313 0.00146175 0)
(5.35175 -0.00569749 0)
(5.36695 -0.0116134 0)
(5.3794 -0.0168491 0)
(5.38984 -0.0214978 0)
(5.39889 -0.0255903 0)
(5.4067 -0.0291943 0)
(5.41357 -0.0324266 0)
(5.4194 -0.0353474 0)
(5.42467 -0.0380492 0)
(5.42897 -0.0405072 0)
(5.00895 0.159467 0)
(5.12147 0.0340255 0)
(5.21997 0.00621866 0)
(5.2771 -0.0032122 0)
(5.30954 -0.0173138 0)
(5.33537 -0.0295603 0)
(5.35998 -0.0369703 0)
(5.38241 -0.0413854 0)
(5.40135 -0.0448582 0)
(5.41686 -0.0481078 0)
(5.42978 -0.0511018 0)
(5.44081 -0.0537501 0)
(5.45047 -0.056063 0)
(5.45886 -0.0581203 0)
(5.4663 -0.0599805 0)
(5.47265 -0.0616989 0)
(5.47842 -0.0633035 0)
(5.48314 -0.0648142 0)
(5.01432 0.153637 0)
(5.1768 0.0586068 0)
(5.30044 0.0448657 0)
(5.36082 0.0283756 0)
(5.3938 0.00902018 0)
(5.42224 -0.00472013 0)
(5.4491 -0.0127608 0)
(5.47243 -0.0182246 0)
(5.49142 -0.0228671 0)
(5.50665 -0.0270606 0)
(5.51906 -0.0307438 0)
(5.52935 -0.0339627 0)
(5.53793 -0.0367857 0)
(5.545 -0.0393494 0)
(5.55077 -0.0416675 0)
(5.55531 -0.0438423 0)
(5.55891 -0.0458383 0)
(5.56147 -0.0477512 0)
(5.01736 0.0184143 0)
(5.22881 -0.0524294 0)
(5.3549 -0.0348991 0)
(5.40861 -0.0433829 0)
(5.43849 -0.0535271 0)
(5.46193 -0.0580456 0)
(5.47973 -0.059659 0)
(5.49044 -0.0607757 0)
(5.49416 -0.061937 0)
(5.49212 -0.0630373 0)
(5.48553 -0.0639606 0)
(5.4755 -0.0647376 0)
(5.46248 -0.065383 0)
(5.44728 -0.0659736 0)
(5.42977 -0.0664719 0)
(5.41104 -0.06696 0)
(5.39028 -0.067374 0)
(5.36939 -0.0678447 0)
(4.96761 0.0708998 0)
(5.10255 -0.000153027 0)
(5.07411 -0.000337177 0)
(4.95992 -0.0107836 0)
(4.8321 -0.0185237 0)
(4.70744 -0.0215848 0)
(4.58642 -0.0227791 0)
(4.46744 -0.0235558 0)
(4.35013 -0.0241257 0)
(4.23519 -0.0244559 0)
(4.12334 -0.0245706 0)
(4.01529 -0.0245385 0)
(3.91098 -0.0244104 0)
(3.8108 -0.0242356 0)
(3.71404 -0.0240184 0)
(3.6216 -0.0237996 0)
(3.53179 -0.0235514 0)
(3.44704 -0.0233581 0)
(-0.0205705 0.038691 1.28625e-21)
(-0.044591 0.00957328 -1.27727e-21)
(-0.0370576 -0.0222379 0)
(-0.00410134 -0.0487412 0)
(0.0496804 -0.0691626 0)
(0.118819 -0.0834224 1.23863e-21)
(0.197732 -0.0916322 0)
(0.282167 -0.0948761 0)
(0.368179 -0.0939622 0)
(0.452791 -0.0901753 0)
(0.53373 -0.0842431 -1.16698e-21)
(0.609201 -0.0766217 0)
(0.677682 -0.0675728 0)
(0.737685 -0.057206 0)
(0.787696 -0.0455375 0)
(0.826164 -0.0325607 -1.05034e-21)
(0.851477 -0.018256 0)
(0.862193 -0.00267948 0)
(0.857065 0.0140791 0)
(0.834187 0.0317424 0)
(0.792935 0.0497783 0)
(0.733115 0.0674665 0)
(0.655492 0.0838943 0)
(0.561539 0.0979932 -9.59303e-22)
(0.453749 0.108601 9.58082e-22)
(0.334853 0.114683 -9.56577e-22)
(0.208752 0.11605 -9.53981e-22)
(0.0798147 0.111638 0)
(-0.0464219 0.101727 0)
(-0.166539 0.0835938 9.35427e-22)
(-0.273509 0.0569301 9.25465e-22)
(-0.366374 0.032289 0)
(-0.452835 0.0173993 0)
(-0.539143 0.0119233 8.86789e-22)
(-0.624388 0.0172798 0)
(-0.70971 0.0287926 0)
(-0.795335 0.0345112 -8.43378e-22)
(-0.881918 0.0371856 0)
(-0.970171 0.0504583 -8.10277e-22)
(-1.06484 0.0659629 -1.58495e-21)
(-1.16439 0.0672345 0)
(-1.26167 0.0704616 0)
(-1.36112 0.0790368 0)
(-1.46019 0.0776437 0)
(-1.55508 0.0683065 0)
(-1.64367 0.0659424 -1.34027e-21)
(-1.72927 0.0632343 -1.30127e-21)
(-1.80672 0.0535085 -1.26427e-21)
(-1.87519 0.0460039 0)
(-1.93838 0.0400331 1.20139e-21)
(-1.99568 0.0351805 0)
(-2.04734 0.0341609 -1.1569e-21)
(-2.09291 0.0367596 -1.14223e-21)
(-2.132 0.0372546 0)
(-2.16098 0.0311281 0)
(-2.17651 0.021602 0)
(-2.17907 0.0122317 -1.12404e-21)
(-2.16966 0.00368171 0)
(-2.14963 -0.00385234 0)
(-2.12017 -0.0103548 0)
(-2.08253 -0.0158576 0)
(-2.03788 -0.0204507 0)
(-1.98727 -0.0242245 0)
(-1.93164 -0.0272886 0)
(-1.87181 -0.0297413 0)
(-1.80849 -0.0316881 1.26096e-21)
(-1.74229 -0.0332145 0)
(-1.67368 -0.0344051 0)
(-1.60304 -0.0353344 -1.33472e-21)
(-1.53065 -0.0360658 -1.36021e-21)
(-1.45673 -0.0366566 0)
(-1.38142 -0.0371495 1.41202e-21)
(-1.3048 -0.0375776 -1.43824e-21)
(-1.22692 -0.0379678 0)
(-1.14781 -0.0383347 1.49103e-21)
(-1.06747 -0.0386854 0)
(-0.985862 -0.0390303 0)
(-0.902977 -0.0393632 -1.57037e-21)
(-0.818822 -0.0396727 0)
(-0.733461 -0.0399278 1.62255e-21)
(-0.647007 -0.0400948 0)
(-0.559652 -0.0401476 -1.67288e-21)
(-0.471646 -0.0400636 -1.6969e-21)
(-0.383245 -0.0398424 -1.71992e-21)
(-0.294699 -0.0394982 -3.4836e-21)
(-0.206212 -0.0390576 3.52493e-21)
(-0.117926 -0.0385483 0)
(-0.0299467 -0.0379925 0)
(0.0576276 -0.0374046 0)
(0.144716 -0.0367912 3.66381e-21)
(0.231223 -0.0361388 3.69139e-21)
(0.317029 -0.0354308 -3.71574e-21)
(0.401975 -0.0346471 0)
(0.485858 -0.0337604 3.75374e-21)
(0.568423 -0.0327561 3.76682e-21)
(0.649384 -0.0316179 3.77558e-21)
(0.728415 -0.0303383 0)
(0.805173 -0.0289279 0)
(0.879336 -0.0273823 0)
(0.950618 -0.0257334 3.76489e-21)
(1.01875 -0.0239822 0)
(1.08349 -0.0221665 0)
(1.14465 -0.0202962 -3.71123e-21)
(1.20207 -0.0184039 0)
(1.25563 -0.0165064 0)
(1.30527 -0.0146316 -3.62724e-21)
(1.35096 -0.0127971 0)
(1.39274 -0.0110288 0)
(1.43069 -0.00934268 3.52376e-21)
(1.46494 -0.0077335 3.48673e-21)
(1.49564 -0.00622201 0)
(1.52295 -0.00481382 -3.41074e-21)
(1.54702 -0.00351157 0)
(1.56804 -0.00231472 3.33374e-21)
(1.58619 -0.00122081 0)
(1.60164 -0.000226678 3.25699e-21)
(1.61457 0.000670901 3.21897e-21)
(1.62515 0.00147449 0)
(1.63355 0.00218598 0)
(1.63994 0.00280847 0)
(1.64448 0.00334507 0)
(1.64736 0.00379675 0)
(1.64873 0.00416699 0)
(1.64878 0.00445941 0)
(1.64767 0.00467844 2.92887e-21)
(1.64556 0.00483324 -2.89454e-21)
(1.6426 0.00492614 0)
(1.63893 0.00495275 0)
(1.63472 0.00491441 0)
(1.63008 0.0048201 0)
(1.62515 0.00467906 -5.45811e-21)
(1.62003 0.00449966 0)
(1.61481 0.00429043 5.33104e-21)
(1.60957 0.0040605 -5.26857e-21)
(1.60438 0.00381823 0)
(1.59931 0.00357082 0)
(1.59438 0.00332447 0)
(1.58965 0.00308414 5.0252e-21)
(1.58512 0.00285323 4.96589e-21)
(1.58081 0.0026339 0)
(1.57673 0.00242749 4.84901e-21)
(1.57289 0.00223487 4.79139e-21)
(1.56928 0.00205657 -4.73429e-21)
(1.5659 0.00189284 0)
(1.56272 0.00174361 0)
(1.55975 0.00160846 -4.56603e-21)
(1.55695 0.00148669 0)
(1.55433 0.0013774 0)
(1.55184 0.00127958 0)
(1.54949 0.00119229 0)
(1.54724 0.00111468 4.29479e-21)
(1.54508 0.00104607 4.24181e-21)
(1.543 0.000985954 0)
(1.54097 0.000933985 4.13704e-21)
(1.53898 0.000889952 0)
(1.53702 0.000853654 0)
(1.53506 0.000824963 3.98276e-21)
(1.53309 0.000803815 0)
(1.53109 0.000790544 3.88174e-21)
(1.52905 0.000785377 0)
(1.52693 0.000789373 0)
(1.52473 0.000803657 3.73294e-21)
(1.52236 0.00083078 0)
(1.51988 0.000871694 3.63559e-21)
(1.51711 0.000931557 0)
(1.51418 0.00100934 0)
(1.51071 0.00111877 0)
(1.50707 0.00125011 -3.44576e-21)
(1.50245 0.0014448 0)
(1.49767 0.00165537 3.35376e-21)
(1.49111 0.00201609 0)
(1.48437 0.00233258 0)
(1.47462 0.00306673 0)
(1.46398 0.00346551 0)
(1.44938 0.00518601 0)
(1.4293 0.00535379 0)
(1.40933 0.0101536 0)
(1.36079 0.00856477 -6.05515e-21)
(1.3444 0.0251392 0)
(1.1946 0.0179449 0)
(-0.0080183 0.0920591 -3.84691e-21)
(-0.0187172 0.0168911 3.81949e-21)
(-0.00592097 -0.0649597 0)
(0.0235058 -0.134681 -2.49783e-21)
(0.0684333 -0.188758 0)
(0.124203 -0.226725 -1.23961e-21)
(0.187482 -0.248912 2.43664e-21)
(0.254501 -0.257379 2.4121e-21)
(0.322303 -0.255092 0)
(0.388395 -0.244911 2.34761e-21)
(0.451677 -0.229037 1.16796e-21)
(0.510983 -0.208734 0)
(0.565012 -0.184543 0)
(0.612353 -0.156546 0)
(0.651399 -0.124635 0)
(0.680514 -0.0887695 1.05122e-21)
(0.698001 -0.0491122 0)
(0.702411 -0.00618355 -1.98228e-21)
(0.692341 0.0391627 0)
(0.668003 0.0857216 0)
(0.628738 0.131897 1.90321e-21)
(0.574461 0.176018 0)
(0.505874 0.216617 -1.88533e-21)
(0.424078 0.252443 9.6027e-22)
(0.330731 0.282228 -9.59082e-22)
(0.228067 0.304099 9.57618e-22)
(0.118787 0.316337 9.55065e-22)
(0.00587943 0.317578 0)
(-0.10714 0.308211 0)
(-0.218998 0.290196 -9.36597e-22)
(-0.331991 0.267659 9.04542e-22)
(-0.454813 0.255447 0)
(-0.586032 0.258139 0)
(-0.719317 0.259124 -8.87948e-22)
(-0.848304 0.248897 0)
(-0.97496 0.234425 0)
(-1.10093 0.228741 8.44529e-22)
(-1.2254 0.22796 0)
(-1.34334 0.224819 -7.57289e-22)
(-1.45578 0.224357 1.58714e-21)
(-1.56538 0.225514 0)
(-1.66872 0.220835 0)
(-1.76612 0.212071 2.80454e-21)
(-1.85912 0.205635 2.72031e-21)
(-1.94876 0.197079 2.6362e-21)
(-2.03103 0.183779 -1.21261e-21)
(-2.10875 0.168148 1.30315e-21)
(-2.18271 0.152316 3.67293e-21)
(-2.25238 0.138641 -2.34299e-21)
(-2.31566 0.127961 -1.20305e-21)
(-2.36954 0.11658 0)
(-2.41066 0.0995775 1.15849e-21)
(-2.43484 0.0774941 -1.0398e-21)
(-2.44342 0.0523862 0)
(-2.43859 0.0258322 0)
(-2.42191 -1.3673e-05 0)
(-2.39487 -0.0237735 1.1254e-21)
(-2.35874 -0.0449649 0)
(-2.31451 -0.0634066 -2.21087e-21)
(-2.26333 -0.0791703 0)
(-2.20619 -0.0924315 -2.27324e-21)
(-2.14396 -0.103433 0)
(-2.07742 -0.112436 2.35386e-21)
(-2.00726 -0.119699 0)
(-1.93412 -0.125468 -2.44655e-21)
(-1.85853 -0.129984 1.23406e-21)
(-1.78093 -0.133458 0)
(-1.70168 -0.136109 2.59737e-21)
(-1.62106 -0.138131 1.33526e-21)
(-1.53924 -0.13971 1.3607e-21)
(-1.45629 -0.140987 0)
(-1.37225 -0.14208 1.39456e-21)
(-1.28713 -0.143056 1.43861e-21)
(-1.20091 -0.143964 0)
(-1.1136 -0.144834 -1.49133e-21)
(-1.02515 -0.145686 3.02029e-21)
(-0.935518 -0.146553 0)
(-0.844621 -0.147426 1.57059e-21)
(-0.752389 -0.148262 0)
(-0.65885 -0.148959 -4.85493e-21)
(-0.564115 -0.149401 0)
(-0.468392 -0.149484 5.00706e-21)
(-0.37195 -0.14915 1.69703e-21)
(-0.27509 -0.148385 -1.70917e-21)
(-0.178086 -0.147239 -3.46307e-21)
(-0.081157 -0.145792 3.5052e-21)
(0.0155625 -0.144132 0)
(0.111982 -0.142335 0)
(0.208021 -0.140441 0)
(0.303624 -0.138458 -1.09746e-20)
(0.398723 -0.136357 -3.69141e-21)
(0.493209 -0.134082 3.71574e-21)
(0.586936 -0.131566 0)
(0.679704 -0.128738 3.74069e-21)
(0.771257 -0.125543 -3.76675e-21)
(0.86131 -0.121941 -3.7755e-21)
(0.949529 -0.117917 0)
(1.03557 -0.113484 0)
(1.11912 -0.108666 0)
(1.19989 -0.103518 -3.76475e-21)
(1.27763 -0.098094 0)
(1.3521 -0.0924581 7.45993e-21)
(1.42314 -0.08667 1.1128e-20)
(1.49058 -0.0808073 -7.36709e-21)
(1.55432 -0.074925 0)
(1.61433 -0.0691066 -3.6231e-21)
(1.67058 -0.0634063 0)
(1.72311 -0.0578845 -7.11572e-21)
(1.77203 -0.0525673 3.52043e-21)
(1.81749 -0.0474763 3.48362e-21)
(1.85962 -0.0426552 0)
(1.89858 -0.0381208 1.0229e-20)
(1.93453 -0.0338791 -6.74177e-21)
(1.96764 -0.0299263 -3.33345e-21)
(1.99807 -0.0262524 0)
(2.02599 -0.0228446 -3.25669e-21)
(2.05155 -0.0196907 -9.65449e-21)
(2.07489 -0.0167811 0)
(2.09615 -0.0141092 -6.28605e-21)
(2.11547 -0.0116701 -6.2123e-21)
(2.13299 -0.00945992 -6.13938e-21)
(2.14887 -0.00747548 0)
(2.16323 -0.00571125 0)
(2.17624 -0.00415937 0)
(2.18802 -0.00280972 2.92786e-21)
(2.1987 -0.00164787 2.89416e-21)
(2.20842 -0.000661183 0)
(2.21726 0.000159325 5.65306e-21)
(2.22532 0.00082855 5.58693e-21)
(2.23267 0.00136382 0)
(2.23937 0.00177958 5.45727e-21)
(2.24551 0.00208828 1.07862e-20)
(2.25113 0.00230163 -5.33019e-21)
(2.2563 0.00243184 -5.26734e-21)
(2.26107 0.00249107 0)
(2.26548 0.00249104 0)
(2.26958 0.00244295 0)
(2.27342 0.00235733 -5.02431e-21)
(2.27701 0.00224344 4.96489e-21)
(2.28041 0.00210928 9.81248e-21)
(2.28364 0.00196176 -4.84812e-21)
(2.28671 0.00180697 4.79046e-21)
(2.28966 0.0016502 4.73341e-21)
(2.29251 0.00149614 0)
(2.29526 0.00134879 0)
(2.29794 0.00121143 -4.56514e-21)
(2.30054 0.00108653 0)
(2.30307 0.000975741 0)
(2.30552 0.000879877 8.80222e-21)
(2.30791 0.000799065 0)
(2.31021 0.00073292 4.29392e-21)
(2.31243 0.000680794 -4.24096e-21)
(2.31455 0.000641928 0)
(2.31657 0.000615653 4.13618e-21)
(2.31848 0.000601236 0)
(2.32026 0.000598245 0)
(2.32191 0.000606576 -3.98195e-21)
(2.32342 0.000626543 7.86247e-21)
(2.32477 0.000659195 -3.88094e-21)
(2.32597 0.000705631 0)
(2.32698 0.000769091 0)
(2.32782 0.000850451 3.73205e-21)
(2.32842 0.000957009 0)
(2.32882 0.00108652 3.63466e-21)
(2.32891 0.00125867 0)
(2.32876 0.00145799 0)
(2.32818 0.00174058 0)
(2.32729 0.00204363 3.44501e-21)
(2.32576 0.00252905 0)
(2.32377 0.0029781 -3.35303e-21)
(2.32088 0.00386927 0)
(2.31708 0.00449438 0)
(2.31217 0.00627793 6.43921e-21)
(2.30495 0.00701138 -6.35411e-21)
(2.29732 0.0109573 0)
(2.28253 0.0113863 0)
(2.27228 0.0211514 0)
(2.2384 0.0201257 1.81451e-20)
(2.2303 0.0478766 0)
(2.14696 0.0458978 -1.18324e-20)
(0.0061331 0.0969381 8.6182e-24)
(0.0154489 0.00510553 -5.07773e-21)
(0.0396584 -0.104978 0)
(0.07019 -0.199398 4.98909e-21)
(0.109725 -0.274246 0)
(0.154052 -0.326853 0)
(0.200232 -0.35714 -2.30464e-23)
(0.246033 -0.367847 -2.41389e-21)
(0.290954 -0.363821 -2.35229e-21)
(0.334962 -0.34934 -2.3493e-21)
(0.377891 -0.327243 0)
(0.419083 -0.298809 0)
(0.457271 -0.264138 2.17193e-21)
(0.490778 -0.222805 4.23874e-21)
(0.517592 -0.174363 -4.13331e-21)
(0.535704 -0.118793 0)
(0.542988 -0.0566008 -3.93676e-21)
(0.537797 0.0109927 1.98356e-21)
(0.518528 0.082316 0)
(0.484743 0.155226 -3.73041e-21)
(0.435956 0.227322 -1.90444e-21)
(0.372687 0.29591 3.67287e-21)
(0.296531 0.358338 1.8866e-21)
(0.210009 0.412144 0)
(0.115429 0.455336 -3.6706e-21)
(0.0149131 0.485957 -3.67616e-21)
(-0.089497 0.502397 0)
(-0.196231 0.503544 -3.67306e-21)
(-0.304132 0.48927 0)
(-0.414217 0.465434 -3.6311e-21)
(-0.533448 0.456155 -1.83252e-21)
(-0.661255 0.460974 0)
(-0.788436 0.460577 0)
(-0.913479 0.453596 0)
(-1.03849 0.447017 0)
(-1.1653 0.442629 0)
(-1.29034 0.435863 0)
(-1.41225 0.427093 -3.09146e-21)
(-1.53092 0.419794 4.56955e-21)
(-1.64485 0.409802 0)
(-1.75248 0.395706 0)
(-1.85542 0.382599 0)
(-1.95397 0.368359 -1.79231e-22)
(-2.04582 0.349452 -2.72234e-21)
(-2.13157 0.327418 -5.09098e-21)
(-2.21267 0.304912 4.92797e-21)
(-2.28989 0.283823 2.29544e-21)
(-2.35954 0.26428 -2.40837e-21)
(-2.41801 0.239529 1.76963e-22)
(-2.46051 0.206209 -2.11751e-21)
(-2.486 0.167457 0)
(-2.49604 0.125579 -2.05064e-21)
(-2.49194 0.0827146 1.51131e-22)
(-2.47581 0.040173 0)
(-2.4495 -0.000880481 0)
(-2.41472 -0.0391498 2.04164e-21)
(-2.37274 -0.0737399 0)
(-2.32457 -0.104227 0)
(-2.27096 -0.130556 -2.03113e-21)
(-2.21261 -0.152921 -4.3186e-21)
(-2.15008 -0.171644 2.27337e-21)
(-2.08392 -0.187099 0)
(-2.0146 -0.199663 -2.35387e-21)
(-1.94256 -0.209717 0)
(-1.86826 -0.217606 -2.35421e-21)
(-1.79207 -0.223657 -2.49561e-21)
(-1.71434 -0.22819 5.01533e-21)
(-1.63536 -0.231533 2.52639e-21)
(-1.55532 -0.234005 0)
(-1.47433 -0.235909 -5.34012e-21)
(-1.3924 -0.237481 0)
(-1.30949 -0.238887 -8.36347e-21)
(-1.22555 -0.240213 -5.66516e-21)
(-1.14054 -0.241497 -5.7737e-21)
(-1.05444 -0.242768 5.88217e-21)
(-0.967223 -0.244062 -9.01051e-21)
(-0.878831 -0.245433 0)
(-0.789132 -0.246889 0)
(-0.697994 -0.248359 6.31338e-21)
(-0.60538 -0.24964 9.65193e-21)
(-0.511381 -0.250494 0)
(-0.416237 -0.250698 -3.33387e-21)
(-0.320291 -0.250139 0)
(-0.223929 -0.248804 1.0251e-20)
(-0.127515 -0.24679 3.4453e-23)
(-0.0313216 -0.244262 -3.30072e-23)
(0.0644966 -0.241401 -7.07654e-21)
(0.159862 -0.238352 0)
(0.254746 -0.235199 7.2193e-21)
(0.349137 -0.231942 2.8144e-23)
(0.443009 -0.228526 0)
(0.536292 -0.22485 0)
(0.628855 -0.22078 0)
(0.720507 -0.216199 -7.49419e-21)
(0.810987 -0.210993 0)
(0.900002 -0.205098 0)
(0.987206 -0.198494 0)
(1.07224 -0.191197 0)
(1.15478 -0.183267 0)
(1.23454 -0.174784 -7.51019e-21)
(1.31127 -0.165856 0)
(1.38474 -0.156583 -7.45973e-21)
(1.45477 -0.14708 -7.41674e-21)
(1.52122 -0.137468 7.3669e-21)
(1.58399 -0.127859 0)
(1.64305 -0.118393 7.24996e-21)
(1.69839 -0.109143 0)
(1.75011 -0.100193 7.1155e-21)
(1.79832 -0.0915973 -7.04371e-21)
(1.84318 -0.0834146 -2.08998e-20)
(1.88489 -0.0756935 0)
(1.92362 -0.0684549 -2.04467e-20)
(1.95959 -0.0617028 -6.73399e-21)
(1.99299 -0.0554263 0)
(2.02397 -0.0496048 -1.31697e-20)
(2.05271 -0.044214 -1.30175e-20)
(2.07934 -0.0392308 1.9302e-20)
(2.104 -0.0346368 0)
(2.1268 -0.0304198 6.28593e-21)
(2.14787 -0.0265722 6.21219e-21)
(2.16734 -0.0230887 1.84146e-20)
(2.18533 -0.0199619 0)
(2.20196 -0.0171812 0)
(2.21736 -0.0147321 0)
(2.23165 -0.0125946 5.85421e-21)
(2.24495 -0.0107457 0)
(2.25738 -0.0091604 0)
(2.26902 -0.00781187 -5.65295e-21)
(2.27997 -0.00667245 -5.58681e-21)
(2.29031 -0.00571757 0)
(2.3001 -0.00492587 0)
(2.3094 -0.00427775 -1.0786e-20)
(2.31824 -0.00375415 0)
(2.32668 -0.00333852 1.05348e-20)
(2.33474 -0.00301552 1.04107e-20)
(2.34246 -0.00277067 0)
(2.34986 -0.00259021 0)
(2.35697 -0.00246237 -1.00478e-20)
(2.36382 -0.0023775 -2.55928e-25)
(2.37041 -0.00232734 -2.10528e-25)
(2.37676 -0.00230473 0)
(2.3829 -0.00230312 -1.91611e-20)
(2.38884 -0.00231644 0)
(2.3946 -0.002339 0)
(2.40019 -0.00236543 0)
(2.40563 -0.00239077 9.12992e-21)
(2.41093 -0.00241061 0)
(2.41611 -0.00242121 -1.78205e-20)
(2.42117 -0.00241962 -8.80183e-21)
(2.42612 -0.00240371 0)
(2.43095 -0.00237209 -8.58745e-21)
(2.43568 -0.00232401 0)
(2.44028 -0.0022592 0)
(2.44477 -0.00217783 -2.48158e-20)
(2.44912 -0.00208015 1.63366e-20)
(2.45333 -0.0019667 0)
(2.45739 -0.00183763 1.59267e-20)
(2.4613 -0.00169324 -7.86205e-21)
(2.46503 -0.00153215 0)
(2.46859 -0.00135412 0)
(2.47195 -0.00115414 0)
(2.47512 -0.000932759 -2.2391e-20)
(2.47807 -0.000677173 0)
(2.48078 -0.000393877 -7.26906e-21)
(2.48326 -5.02942e-05 0)
(2.48544 0.000325656 0)
(2.48734 0.000819911 0)
(2.48883 0.00133662 0)
(2.49 0.00210682 0)
(2.49052 0.00283158 0)
(2.49074 0.00414196 -1.32274e-20)
(2.48979 0.00515441 0)
(2.48872 0.00759911 -6.43877e-21)
(2.48524 0.00895999 1.9056e-20)
(2.48248 0.0139699 0)
(2.47432 0.0157062 0)
(2.46956 0.0270115 -1.22191e-20)
(2.4524 0.0296048 -1.20905e-20)
(2.44663 0.0575902 1.193e-20)
(2.41511 0.0652549 1.18317e-20)
(0.00883872 0.0531316 7.65554e-21)
(0.0282697 -0.0502279 7.60426e-21)
(0.0610422 -0.170863 5.02298e-21)
(0.0995869 -0.27447 2.48034e-21)
(0.139367 -0.354072 0)
(0.174762 -0.405345 -4.85473e-21)
(0.204949 -0.430896 2.37218e-21)
(0.231754 -0.437106 0)
(0.257938 -0.430464 2.35406e-21)
(0.285183 -0.415116 0)
(0.313655 -0.392427 -4.45368e-21)
(0.342149 -0.361803 0)
(0.368674 -0.321849 -2.17359e-21)
(0.390861 -0.271189 -4.24198e-21)
(0.406305 -0.209004 4.13646e-21)
(0.41294 -0.135266 0)
(0.408757 -0.0508572 3.93964e-21)
(0.392596 0.0421247 0)
(0.362906 0.140825 0)
(0.319825 0.2411 3.73314e-21)
(0.263245 0.338622 0)
(0.193785 0.429147 -1.37797e-22)
(0.11313 0.50907 0)
(0.0236814 0.575628 0)
(-0.0721416 0.627206 1.23438e-22)
(-0.172469 0.662977 3.67882e-21)
(-0.275632 0.682479 3.56355e-21)
(-0.380788 0.685839 3.67565e-21)
(-0.488871 0.6783 0)
(-0.606754 0.675239 7.15308e-21)
(-0.733146 0.678935 0)
(-0.859064 0.677121 3.42767e-21)
(-0.983762 0.670379 0)
(-1.10872 0.662037 0)
(-1.23378 0.652477 -3.21463e-21)
(-1.35719 0.639806 0)
(-1.47836 0.626539 3.03304e-21)
(-1.59726 0.613621 1.60619e-22)
(-1.71108 0.597248 -5.83126e-21)
(-1.81905 0.577505 5.44772e-21)
(-1.92207 0.557007 0)
(-2.01836 0.53475 0)
(-2.10556 0.507458 2.20181e-21)
(-2.18622 0.476854 0)
(-2.26279 0.447855 2.4545e-21)
(-2.33305 0.420589 -2.37289e-21)
(-2.39189 0.385279 -2.29672e-21)
(-2.43388 0.338753 0)
(-2.45965 0.285609 2.16843e-21)
(-2.47052 0.228257 2.11832e-21)
(-2.46801 0.168848 -3.7532e-21)
(-2.45375 0.10918 2.05104e-21)
(-2.42948 0.0510651 2.03364e-21)
(-2.39685 -0.00418636 0)
(-2.35726 -0.0554968 0)
(-2.31185 -0.10211 -2.0415e-21)
(-2.26149 -0.143627 0)
(-2.20686 -0.179951 0)
(-2.14847 -0.211267 4.24161e-21)
(-2.08677 -0.237903 4.31784e-21)
(-2.02211 -0.260252 0)
(-1.95482 -0.278741 0)
(-1.88518 -0.293788 0)
(-1.8135 -0.305799 0)
(-1.74006 -0.315163 4.79968e-21)
(-1.66518 -0.322235 -4.80007e-21)
(-1.58916 -0.327417 -5.01432e-21)
(-1.51228 -0.331109 -1.0154e-20)
(-1.43473 -0.333754 0)
(-1.35653 -0.335772 8.13232e-23)
(-1.2776 -0.337512 0)
(-1.19778 -0.339186 5.55577e-21)
(-1.11691 -0.340876 7.25963e-23)
(-1.03489 -0.342571 5.77286e-21)
(-0.951713 -0.344262 -5.88136e-21)