/*--------------------------------*- C++ -*----------------------------------*\
  =========                 |
  \\      /  F ield         | OpenFOAM: The Open Source CFD Toolbox
   \\    /   O peration     | Website:  https://openfoam.org
    \\  /    A nd           | Version:  7
     \\/     M anipulation  |
\*---------------------------------------------------------------------------*/
FoamFile
{
    version     2.0;
    format      ascii;
    class       volSymmTensorField;
    location    "0.068";
    object      UPrime2Mean;
}
// * * * * * * * * * * * * * * * * * * * * * * * * * * * * * * * * * * * * * //

dimensions      [0 2 -2 0 0 0 0];

internalField   nonuniform List<symmTensor> 
12225
(
(0.00445145 -0.000150561 0 0.000507776 0 0)
(0.0300255 -0.00131243 0 0.000238709 0 0)
(0.0436005 -0.00193645 0 0.000216875 0 0)
(0.0581822 -0.0023873 0 0.000204827 0 0)
(0.0833814 -0.00299447 0 0.000198737 0 0)
(0.120857 -0.0037701 0 0.000197118 0 0)
(0.170838 -0.00469511 0 0.000207738 0 0)
(0.233554 -0.00540123 0 0.000191696 0 0)
(0.308961 -0.00650976 0 0.000206265 0 0)
(0.396265 -0.00624843 0 0.000156817 0 0)
(0.497078 -0.00833915 0 0.00018838 0 0)
(0.604071 -0.00537289 0 0.000105945 0 0)
(0.733637 -0.0126103 0 0.000275061 0 0)
(0.858495 -0.00120206 0 0.000193852 0 0)
(1.0451 -0.0295868 0 0.00133195 0 0)
(1.2261 0.0139595 0 0.00160281 0 0)
(1.5835 -0.112699 0 0.0152749 0 0)
(2.14388 0.0429967 0 0.00749048 0 0)
(0.00429344 5.49816e-05 0 0.000658732 0 0)
(0.0202552 -0.0006255 0 0.000235797 0 0)
(0.0220959 -0.00104766 0 0.000282805 0 0)
(0.0226751 -0.00130623 0 0.000378987 0 0)
(0.0267916 -0.00183908 0 0.000503971 0 0)
(0.0342362 -0.00281332 0 0.000668293 0 0)
(0.0456125 -0.00418345 0 0.000838716 0 0)
(0.0627233 -0.00612326 0 0.00107394 0 0)
(0.085982 -0.00819039 0 0.00121188 0 0)
(0.119617 -0.0113121 0 0.00150209 0 0)
(0.161114 -0.0135746 0 0.00150107 0 0)
(0.220408 -0.0187767 0 0.00193844 0 0)
(0.286358 -0.0203111 0 0.00174625 0 0)
(0.386599 -0.0314943 0 0.00285723 0 0)
(0.487579 -0.0317797 0 0.00254125 0 0)
(0.673804 -0.0646037 0 0.00720143 0 0)
(0.843507 -0.0777755 0 0.00798029 0 0)
(1.22549 -0.221234 0 0.0521066 0 0)
(0.00426359 0.000139338 0 0.000866582 0 0)
(0.0199654 -0.000943652 0 0.000440225 0 0)
(0.0208831 -0.00146937 0 0.000516342 0 0)
(0.0201777 -0.00161641 0 0.00066213 0 0)
(0.021815 -0.00190827 0 0.000847499 0 0)
(0.0245156 -0.00248298 0 0.00108392 0 0)
(0.0280977 -0.00335202 0 0.00143025 0 0)
(0.032784 -0.00443461 0 0.00175743 0 0)
(0.0391677 -0.00596848 0 0.00225616 0 0)
(0.0477285 -0.00757598 0 0.00257349 0 0)
(0.0600113 -0.0103603 0 0.00324905 0 0)
(0.0764053 -0.0126504 0 0.00344622 0 0)
(0.100377 -0.0183845 0 0.00470507 0 0)
(0.132168 -0.0218986 0 0.00480928 0 0)
(0.17979 -0.0369443 0 0.00870637 0 0)
(0.244057 -0.0466253 0 0.00977544 0 0)
(0.336423 -0.095861 0 0.0288726 0 0)
(0.454975 -0.160372 0 0.060018 0 0)
(0.00396922 -0.000227697 0 0.000968084 0 0)
(0.0196855 -0.00121532 0 0.000505033 0 0)
(0.0206321 -0.00165347 0 0.000574889 0 0)
(0.0198956 -0.00181515 0 0.000771062 0 0)
(0.0212774 -0.0021049 0 0.00100086 0 0)
(0.0234855 -0.00267305 0 0.00129829 0 0)
(0.0262296 -0.00347609 0 0.00166407 0 0)
(0.0296388 -0.00450359 0 0.00215558 0 0)
(0.033838 -0.005692 0 0.00265888 0 0)
(0.0393926 -0.00730819 0 0.00333969 0 0)
(0.0466349 -0.00921661 0 0.00397037 0 0)
(0.0568125 -0.0122426 0 0.00499703 0 0)
(0.07049 -0.0159758 0 0.00603148 0 0)
(0.0903679 -0.0227831 0 0.00823771 0 0)
(0.117543 -0.0323583 0 0.0113056 0 0)
(0.155936 -0.0509345 0 0.0189285 0 0)
(0.205692 -0.0833606 0 0.0355431 0 0)
(0.256209 -0.134675 0 0.0726192 0 0)
(0.00446528 -0.000216252 0 0.00113933 0 0)
(0.0194773 -0.00142901 0 0.000672368 0 0)
(0.02012 -0.00188563 0 0.000737378 0 0)
(0.0193689 -0.00205875 0 0.000978956 0 0)
(0.0207286 -0.00236065 0 0.00126783 0 0)
(0.022828 -0.00294893 0 0.00161357 0 0)
(0.0254063 -0.00381639 0 0.00208203 0 0)
(0.0285607 -0.00490906 0 0.00262845 0 0)
(0.0324647 -0.0062998 0 0.00334865 0 0)
(0.0374423 -0.00796865 0 0.00411602 0 0)
(0.0439647 -0.0103425 0 0.00517759 0 0)
(0.0526527 -0.0133811 0 0.00637467 0 0)
(0.0643795 -0.0181823 0 0.00835815 0 0)
(0.0803256 -0.0248789 0 0.0110503 0 0)
(0.101708 -0.036227 0 0.0163397 0 0)
(0.129164 -0.0538649 0 0.0258131 0 0)
(0.161015 -0.0823357 0 0.0449986 0 0)
(0.18724 -0.12522 0 0.0875514 0 0)
(0.00417808 -0.000306378 0 0.00120842 0 0)
(0.0192589 -0.00167016 0 0.00081259 0 0)
(0.0196578 -0.00203438 0 0.000920246 0 0)
(0.0188083 -0.0021563 0 0.00124345 0 0)
(0.0200541 -0.00246613 0 0.00162087 0 0)
(0.0219586 -0.00308577 0 0.00206246 0 0)
(0.0242878 -0.00398877 0 0.00260782 0 0)
(0.0271541 -0.00515623 0 0.0032978 0 0)
(0.0307026 -0.00662149 0 0.00413351 0 0)
(0.0352005 -0.00851515 0 0.00517135 0 0)
(0.0410615 -0.0110568 0 0.0064695 0 0)
(0.0487385 -0.014606 0 0.00822764 0 0)
(0.0589383 -0.019707 0 0.0107412 0 0)
(0.0721745 -0.0272067 0 0.0146401 0 0)
(0.0892148 -0.0386242 0 0.0212221 0 0)
(0.109007 -0.0555408 0 0.0327427 0 0)
(0.129924 -0.0804862 0 0.0540366 0 0)
(0.144274 -0.112207 0 0.0912893 0 0)
(0.00375299 -0.000321448 0 0.00145738 0 0)
(0.0187869 -0.00185756 0 0.00111792 0 0)
(0.0190794 -0.00222461 0 0.00117782 0 0)
(0.0182027 -0.00237204 0 0.00151483 0 0)
(0.0194267 -0.00272682 0 0.00195471 0 0)
(0.0212553 -0.00341039 0 0.00247215 0 0)
(0.023433 -0.00439522 0 0.00311802 0 0)
(0.0260616 -0.00565452 0 0.00392632 0 0)
(0.0292878 -0.00724548 0 0.00495078 0 0)
(0.0333459 -0.00929117 0 0.00623573 0 0)
(0.0385678 -0.0120513 0 0.00789482 0 0)
(0.0452721 -0.0158636 0 0.0101485 0 0)
(0.053894 -0.0212508 0 0.0133723 0 0)
(0.0645957 -0.0289634 0 0.0183274 0 0)
(0.0775427 -0.0399784 0 0.0261511 0 0)
(0.0913584 -0.0554642 0 0.0392825 0 0)
(0.104473 -0.0758402 0 0.0604155 0 0)
(0.111439 -0.0995985 0 0.0943584 0 0)
(0.0038215 -0.000317547 0 0.00135482 0 0)
(0.0185082 -0.00201842 0 0.00112938 0 0)
(0.0187805 -0.00233309 0 0.00134305 0 0)
(0.0178602 -0.00242535 0 0.00177176 0 0)
(0.0189603 -0.00279506 0 0.00230599 0 0)
(0.020597 -0.00351088 0 0.00293123 0 0)
(0.0225216 -0.00452166 0 0.00369747 0 0)
(0.0248389 -0.00582382 0 0.00466707 0 0)
(0.0276782 -0.00748928 0 0.005898 0 0)
(0.0312184 -0.00965566 0 0.00747009 0 0)
(0.0356952 -0.0125576 0 0.00951903 0 0)
(0.0412937 -0.0165052 0 0.0123097 0 0)
(0.0482333 -0.0219433 0 0.016261 0 0)
(0.0564476 -0.0294295 0 0.0221399 0 0)
(0.0657589 -0.0396112 0 0.0310411 0 0)
(0.0748653 -0.0529561 0 0.0448845 0 0)
(0.0824339 -0.0692184 0 0.0655754 0 0)
(0.0850461 -0.0866937 0 0.0959913 0 0)
(0.00448414 -0.000530471 0 0.00146802 0 0)
(0.0187251 -0.00247179 0 0.00135496 0 0)
(0.0185032 -0.00273859 0 0.00161532 0 0)
(0.017514 -0.00276028 0 0.00209522 0 0)
(0.0186511 -0.00313096 0 0.00272179 0 0)
(0.0202125 -0.00389551 0 0.00346977 0 0)
(0.0219339 -0.00496991 0 0.00438148 0 0)
(0.0239508 -0.00633438 0 0.00552585 0 0)
(0.0263866 -0.00805839 0 0.00697877 0 0)
(0.0293801 -0.0102794 0 0.00884853 0 0)
(0.0330918 -0.0132133 0 0.0112909 0 0)
(0.0376124 -0.017138 0 0.0146085 0 0)
(0.0429967 -0.0223925 0 0.0192187 0 0)
(0.049024 -0.0293541 0 0.0258707 0 0)
(0.0553602 -0.0383389 0 0.0354775 0 0)
(0.0608881 -0.0493915 0 0.0495422 0 0)
(0.0646982 -0.0619432 0 0.0692344 0 0)
(0.0646727 -0.0744106 0 0.0961398 0 0)
(0.00398176 -0.000479288 0 0.00168591 0 0)
(0.0185072 -0.00254276 0 0.00149037 0 0)
(0.0183607 -0.00279466 0 0.001782 0 0)
(0.0173324 -0.00276537 0 0.00231373 0 0)
(0.0183151 -0.00310698 0 0.00300924 0 0)
(0.0196464 -0.0038617 0 0.00385324 0 0)
(0.0210868 -0.00492772 0 0.00488934 0 0)
(0.022764 -0.00627881 0 0.00619714 0 0)
(0.0247763 -0.0079873 0 0.00787092 0 0)
(0.0272214 -0.0101861 0 0.0100375 0 0)
(0.0301931 -0.0130553 0 0.0128659 0 0)
(0.0336911 -0.0168021 0 0.016661 0 0)
(0.0376532 -0.0216569 0 0.0218278 0 0)
(0.0417859 -0.0278201 0 0.0290367 0 0)
(0.0457336 -0.0353799 0 0.0390126 0 0)
(0.0486272 -0.0441285 0 0.0528652 0 0)
(0.0499558 -0.0534254 0 0.0712166 0 0)
(0.0484099 -0.0619642 0 0.0949886 0 0)
(0.00402094 -0.000618904 0 0.0019162 0 0)
(0.0182915 -0.00290135 0 0.0018101 0 0)
(0.0177315 -0.00317687 0 0.00212182 0 0)
(0.0164334 -0.00305724 0 0.00272038 0 0)
(0.0172559 -0.00334021 0 0.0035142 0 0)
(0.0184682 -0.00407081 0 0.00448914 0 0)
(0.0197654 -0.00511234 0 0.00568205 0 0)
(0.0212249 -0.00641956 0 0.00717585 0 0)
(0.0229124 -0.00805239 0 0.00907089 0 0)
(0.0248836 -0.0101299 0 0.0115135 0 0)
(0.0271761 -0.0128032 0 0.014685 0 0)
(0.0297382 -0.0162197 0 0.0188805 0 0)
(0.0324639 -0.0205138 0 0.0244633 0 0)
(0.0350658 -0.0257423 0 0.0319982 0 0)
(0.0372493 -0.0318488 0 0.0420217 0 0)
(0.038381 -0.0384991 0 0.0553157 0 0)
(0.0382458 -0.0451169 0 0.0721351 0 0)
(0.0360129 -0.0506642 0 0.0930175 0 0)
(0.00396537 -0.000544834 0 0.00196473 0 0)
(0.0181853 -0.00293468 0 0.00189503 0 0)
(0.0176777 -0.00327692 0 0.00223871 0 0)
(0.0163609 -0.00313815 0 0.00288795 0 0)
(0.0170812 -0.00340054 0 0.00375899 0 0)
(0.0181158 -0.00412214 0 0.00484737 0 0)
(0.0191878 -0.00514439 0 0.00618186 0 0)
(0.0203809 -0.0064049 0 0.0078374 0 0)
(0.0217348 -0.00795462 0 0.0099284 0 0)
(0.0232631 -0.00989502 0 0.0126086 0 0)
(0.0249553 -0.0123427 0 0.0160591 0 0)
(0.0267203 -0.0153854 0 0.0205559 0 0)
(0.0284341 -0.0190806 0 0.0264076 0 0)
(0.0298583 -0.0233916 0 0.0340771 0 0)
(0.0307861 -0.0281833 0 0.0439344 0 0)
(0.0307982 -0.0330906 0 0.0565314 0 0)
(0.0298649 -0.0376303 0 0.0718934 0 0)
(0.027426 -0.0410006 0 0.0903795 0 0)
(0.003862 -0.000674943 0 0.0022673 0 0)
(0.0181976 -0.00309343 0 0.00226003 0 0)
(0.0175344 -0.00335656 0 0.0025722 0 0)
(0.0160743 -0.00312193 0 0.00325135 0 0)
(0.0166325 -0.00331453 0 0.00418219 0 0)
(0.0174781 -0.00397987 0 0.00536243 0 0)
(0.0183302 -0.00493895 0 0.00682178 0 0)
(0.0192569 -0.00610753 0 0.00862972 0 0)
(0.020274 -0.00751419 0 0.0108959 0 0)
(0.0213767 -0.0092367 0 0.0137689 0 0)
(0.0225364 -0.0113582 0 0.017422 0 0)
(0.0236648 -0.0139238 0 0.0221014 0 0)
(0.0246396 -0.0169333 0 0.0280604 0 0)
(0.0252695 -0.0202981 0 0.035669 0 0)
(0.0254016 -0.0238432 0 0.0451662 0 0)
(0.0247764 -0.0272332 0 0.0569444 0 0)
(0.0234499 -0.0300634 0 0.0708907 0 0)
(0.0210766 -0.0317577 0 0.0872688 0 0)
(0.00394085 -0.000713766 0 0.00267108 0 0)
(0.0179886 -0.00322705 0 0.00269623 0 0)
(0.0171706 -0.00340065 0 0.00303769 0 0)
(0.0156352 -0.00303152 0 0.00375724 0 0)
(0.016051 -0.00309361 0 0.00475798 0 0)
(0.016682 -0.00364254 0 0.00603104 0 0)
(0.0172567 -0.00447068 0 0.00760311 0 0)
(0.0178335 -0.00545921 0 0.0095462 0 0)
(0.0184167 -0.00661047 0 0.011963 0 0)
(0.0190013 -0.00798126 0 0.0149958 0 0)
(0.0195727 -0.00963229 0 0.0187988 0 0)
(0.0200631 -0.0115703 0 0.0235815 0 0)
(0.0203717 -0.0137504 0 0.0295329 0 0)
(0.020355 -0.0160364 0 0.0369246 0 0)
(0.0199174 -0.0182496 0 0.0458755 0 0)
(0.0189189 -0.0200851 0 0.056647 0 0)
(0.0174865 -0.0212667 0 0.0690272 0 0)
(0.0153879 -0.0213592 0 0.0832336 0 0)
(0.00410471 -0.000515701 0 0.00271739 0 0)
(0.0180295 -0.00353133 0 0.00298803 0 0)
(0.0170461 -0.00378572 0 0.00343265 0 0)
(0.0153695 -0.00340816 0 0.00424957 0 0)
(0.0156923 -0.00342483 0 0.0053371 0 0)
(0.0161985 -0.00388189 0 0.00669694 0 0)
(0.016577 -0.00457303 0 0.00837639 0 0)
(0.016877 -0.00537712 0 0.0104404 0 0)
(0.017114 -0.00628306 0 0.0129752 0 0)
(0.0173003 -0.00732328 0 0.0161015 0 0)
(0.0174252 -0.00852024 0 0.0199442 0 0)
(0.0174305 -0.00983657 0 0.0246656 0 0)
(0.0172379 -0.0111948 0 0.0303887 0 0)
(0.0167667 -0.0124433 0 0.0372988 0 0)
(0.0159951 -0.0134327 0 0.0454175 0 0)
(0.0148826 -0.0139148 0 0.0549199 0 0)
(0.0135939 -0.0137355 0 0.0655421 0 0)
(0.0119731 -0.0125695 0 0.0774883 0 0)
(0.00423996 -0.000510393 0 0.00296363 0 0)
(0.0178978 -0.00355544 0 0.00295255 0 0)
(0.016648 -0.00381434 0 0.00335537 0 0)
(0.0147603 -0.00334422 0 0.00423108 0 0)
(0.0148301 -0.00325278 0 0.0053918 0 0)
(0.0150572 -0.00359992 0 0.00682915 0 0)
(0.0152051 -0.00414163 0 0.00857974 0 0)
(0.0153309 -0.00472053 0 0.0107035 0 0)
(0.0153904 -0.00530126 0 0.0132754 0 0)
(0.0153317 -0.00589692 0 0.0163905 0 0)
(0.0151327 -0.00651617 0 0.020139 0 0)
(0.0147794 -0.00711182 0 0.0246351 0 0)
(0.0142661 -0.00760664 0 0.0299404 0 0)
(0.0135931 -0.00785907 0 0.0361683 0 0)
(0.0127913 -0.00776078 0 0.0432762 0 0)
(0.0118818 -0.00711823 0 0.051379 0 0)
(0.0110115 -0.0058772 0 0.0602105 0 0)
(0.0100685 -0.00379013 0 0.0699746 0 0)
(0.00412016 -0.000529711 0 0.00300729 0 0)
(0.018204 -0.00368965 0 0.00306129 0 0)
(0.0167704 -0.00406648 0 0.00356338 0 0)
(0.0146377 -0.0035599 0 0.00451625 0 0)
(0.0145212 -0.0033645 0 0.00571583 0 0)
(0.0145721 -0.00358426 0 0.00717604 0 0)
(0.0145145 -0.00395597 0 0.00892628 0 0)
(0.0144082 -0.00428558 0 0.0110048 0 0)
(0.0142349 -0.00451582 0 0.0134659 0 0)
(0.0139689 -0.00465747 0 0.0163823 0 0)
(0.013603 -0.0047243 0 0.0198122 0 0)
(0.0131406 -0.00467673 0 0.0238272 0 0)
(0.0125941 -0.00444788 0 0.0284424 0 0)
(0.0119973 -0.00391881 0 0.0337198 0 0)
(0.0113955 -0.00301373 0 0.0395795 0 0)
(0.010847 -0.00159488 0 0.0461055 0 0)
(0.0104666 0.000335174 0 0.0530423 0 0)
(0.0101978 0.00295688 0 0.0606023 0 0)
(0.00406596 -0.000529223 0 0.00306784 0 0)
(0.0180689 -0.00382558 0 0.00331691 0 0)
(0.0166343 -0.00411581 0 0.00361814 0 0)
(0.0143849 -0.00360509 0 0.00438465 0 0)
(0.0140384 -0.00340296 0 0.00545445 0 0)
(0.0137821 -0.00349142 0 0.00678157 0 0)
(0.013418 -0.00360896 0 0.00836287 0 0)
(0.0130656 -0.00360906 0 0.010218 0 0)
(0.0127345 -0.00346094 0 0.0123793 0 0)
(0.0124081 -0.00317284 0 0.0148914 0 0)
(0.0120778 -0.00274103 0 0.0177834 0 0)
(0.011746 -0.00212334 0 0.0210921 0 0)
(0.0114237 -0.00126436 0 0.0248086 0 0)
(0.0111557 -8.72056e-05 0 0.0289655 0 0)
(0.0109897 0.00144846 0 0.0334814 0 0)
(0.0109984 0.00341603 0 0.0384238 0 0)
(0.0112658 0.00579392 0 0.0435847 0 0)
(0.0117715 0.00868204 0 0.0491445 0 0)
(0.00399248 -0.000300783 0 0.00303425 0 0)
(0.0181321 -0.00350814 0 0.00312153 0 0)
(0.0162594 -0.00367674 0 0.00329315 0 0)
(0.0137634 -0.00292281 0 0.00395985 0 0)
(0.0133084 -0.0024111 0 0.00487477 0 0)
(0.0129266 -0.002192 0 0.00597881 0 0)
(0.0124683 -0.00201652 0 0.00727773 0 0)
(0.0121017 -0.00172037 0 0.00878424 0 0)
(0.0118426 -0.00124326 0 0.0105064 0 0)
(0.0116703 -0.000573949 0 0.0124534 0 0)
(0.0115792 0.000289944 0 0.0146245 0 0)
(0.0115827 0.0013682 0 0.0170341 0 0)
(0.0117061 0.00268297 0 0.019669 0 0)
(0.0120047 0.00427312 0 0.0225507 0 0)
(0.012522 0.00614642 0 0.0256163 0 0)
(0.0133233 0.00834501 0 0.0289168 0 0)
(0.0144577 0.0108303 0 0.0323018 0 0)
(0.0159186 0.0136735 0 0.0359082 0 0)
(0.00429086 -0.000593355 0 0.0034439 0 0)
(0.017597 -0.00326248 0 0.00325119 0 0)
(0.0154762 -0.00319417 0 0.00324055 0 0)
(0.0129671 -0.00242591 0 0.00374076 0 0)
(0.0124267 -0.00186572 0 0.00442637 0 0)
(0.011999 -0.00154156 0 0.00523729 0 0)
(0.0115519 -0.00125118 0 0.00618784 0 0)
(0.011235 -0.000839962 0 0.00728575 0 0)
(0.0110608 -0.000236466 0 0.00852742 0 0)
(0.011019 0.000574481 0 0.00991306 0 0)
(0.0111214 0.00158614 0 0.0114406 0 0)
(0.0113993 0.0027977 0 0.0131172 0 0)
(0.0118869 0.00420975 0 0.0149295 0 0)
(0.0126323 0.00583773 0 0.0168883 0 0)
(0.0136691 0.00767682 0 0.0189456 0 0)
(0.0150375 0.00974965 0 0.021137 0 0)
(0.0167657 0.0120227 0 0.0233638 0 0)
(0.0188419 0.0145429 0 0.0257126 0 0)
(0.00436235 -0.000449477 0 0.00310074 0 0)
(0.017691 -0.00286632 0 0.00283926 0 0)
(0.0155233 -0.00267079 0 0.00270292 0 0)
(0.0129973 -0.00184498 0 0.00299457 0 0)
(0.0124324 -0.00123589 0 0.00347324 0 0)
(0.0119899 -0.000843115 0 0.00406799 0 0)
(0.0115779 -0.000473565 0 0.00474874 0 0)
(0.0113539 1.07186e-05 0 0.00550193 0 0)
(0.0113236 0.000668439 0 0.00632585 0 0)
(0.0114723 0.00150591 0 0.00722887 0 0)
(0.0118189 0.0025088 0 0.00821653 0 0)
(0.0124023 0.00367023 0 0.00929763 0 0)
(0.0132578 0.0049881 0 0.0104633 0 0)
(0.0144233 0.00647425 0 0.0117209 0 0)
(0.0159196 0.00812325 0 0.0130375 0 0)
(0.0177729 0.00995186 0 0.0144366 0 0)
(0.0199983 0.0119296 0 0.015854 0 0)
(0.0225863 0.0140962 0 0.0173494 0 0)
(0.00409138 -0.000342054 0 0.00291257 0 0)
(0.0176091 -0.00253797 0 0.00225707 0 0)
(0.0154323 -0.00246576 0 0.00207341 0 0)
(0.0128562 -0.00174082 0 0.00229889 0 0)
(0.0122493 -0.00115257 0 0.00267098 0 0)
(0.0117777 -0.000760581 0 0.0031285 0 0)
(0.0113558 -0.000405344 0 0.00364762 0 0)
(0.0111436 4.78305e-05 0 0.00422543 0 0)
(0.0111567 0.000663371 0 0.00486315 0 0)
(0.0113954 0.00145101 0 0.00556312 0 0)
(0.0118822 0.00239272 0 0.00632061 0 0)
(0.0126484 0.00347079 0 0.00713266 0 0)
(0.0137201 0.00467451 0 0.00798849 0 0)
(0.0151303 0.0060088 0 0.0088934 0 0)
(0.0168994 0.00747125 0 0.00982568 0 0)
(0.0190548 0.00907528 0 0.010805 0 0)
(0.0216111 0.0107933 0 0.0117846 0 0)
(0.0245581 0.0126521 0 0.0128051 0 0)
(0.00417274 -0.000435473 0 0.00247316 0 0)
(0.0170688 -0.00224123 0 0.00206337 0 0)
(0.0148473 -0.00199316 0 0.00182872 0 0)
(0.0123314 -0.00124918 0 0.00184851 0 0)
(0.0117511 -0.000684357 0 0.00200855 0 0)
(0.011277 -0.000315017 0 0.00224433 0 0)
(0.0108733 8.30481e-06 0 0.00251372 0 0)
(0.0107507 0.000405349 0 0.00280727 0 0)
(0.0109342 0.000931294 0 0.00313724 0 0)
(0.0114011 0.00159125 0 0.00351566 0 0)
(0.0121556 0.002369 0 0.00394173 0 0)
(0.0132207 0.00324937 0 0.00441018 0 0)
(0.0146199 0.00422489 0 0.00491039 0 0)
(0.0163779 0.00529841 0 0.00544342 0 0)
(0.0185148 0.0064661 0 0.00599481 0 0)
(0.021041 0.00773424 0 0.0065794 0 0)
(0.0239748 0.00908643 0 0.00716918 0 0)
(0.027281 0.010537 0 0.00778833 0 0)
(0.00456149 -0.000616179 0 0.00215628 0 0)
(0.0171244 -0.00207938 0 0.00168851 0 0)
(0.0144366 -0.00157537 0 0.00151157 0 0)
(0.0119049 -0.000762488 0 0.00158027 0 0)
(0.0115423 -0.000185921 0 0.00173741 0 0)
(0.0112928 0.000189788 0 0.00193565 0 0)
(0.0110932 0.000526169 0 0.00215109 0 0)
(0.0111924 0.000937991 0 0.00238168 0 0)
(0.0116521 0.0014716 0 0.00263243 0 0)
(0.0124617 0.00212313 0 0.00290595 0 0)
(0.0136153 0.00287207 0 0.00319902 0 0)
(0.015123 0.0037024 0 0.00351103 0 0)
(0.0170007 0.00460567 0 0.00384002 0 0)
(0.019268 0.00558396 0 0.00419017 0 0)
(0.0219328 0.00663031 0 0.00455146 0 0)
(0.0249985 0.00774947 0 0.00493608 0 0)
(0.0284712 0.00892352 0 0.00532364 0 0)
(0.0323218 0.0101725 0 0.00572494 0 0)
(0.00472809 -0.000460026 0 0.00202923 0 0)
(0.0170126 -0.00179248 0 0.00135862 0 0)
(0.0141329 -0.00138389 0 0.00102631 0 0)
(0.0115571 -0.00076329 0 0.000995813 0 0)
(0.011184 -0.000327327 0 0.00104983 0 0)
(0.0109099 -5.9955e-05 0 0.00110514 0 0)
(0.0106926 0.000154414 0 0.00116337 0 0)
(0.0108139 0.000411156 0 0.00125013 0 0)
(0.0113325 0.000757273 0 0.00137225 0 0)
(0.0122177 0.00119454 0 0.00151925 0 0)
(0.0134611 0.00170302 0 0.00167811 0 0)
(0.0150806 0.00226903 0 0.00184492 0 0)
(0.0171017 0.00288809 0 0.00202078 0 0)
(0.0195414 0.00356253 0 0.00221068 0 0)
(0.0224046 0.0042898 0 0.00241019 0 0)
(0.0256803 0.00507165 0 0.00262522 0 0)
(0.0293717 0.00589465 0 0.00284368 0 0)
(0.0334294 0.00677308 0 0.00307241 0 0)
(0.00447468 -0.000429761 0 0.00197613 0 0)
(0.0166856 -0.00140625 0 0.00115891 0 0)
(0.0135534 -0.00115393 0 0.00080973 0 0)
(0.0110505 -0.000608981 0 0.000822431 0 0)
(0.0108139 -0.000137392 0 0.000873123 0 0)
(0.0106929 0.000182501 0 0.000903826 0 0)
(0.0107383 0.000432884 0 0.000930262 0 0)
(0.0112348 0.000696299 0 0.000968239 0 0)
(0.0121868 0.00101678 0 0.00102154 0 0)
(0.013519 0.00140128 0 0.00108788 0 0)
(0.0152129 0.00183945 0 0.00116399 0 0)
(0.0173006 0.00232333 0 0.00124907 0 0)
(0.0198183 0.00284892 0 0.00134333 0 0)
(0.022783 0.00341607 0 0.00144944 0 0)
(0.0261949 0.00401967 0 0.00156422 0 0)
(0.0300362 0.00466145 0 0.00169185 0 0)
(0.0343129 0.00532961 0 0.00182527 0 0)
(0.0389721 0.00603711 0 0.00196876 0 0)
(0.00373396 -0.000487671 0 0.00154892 0 0)
(0.0158357 -0.000768236 0 0.000705981 0 0)
(0.012847 -0.000481135 0 0.000399782 0 0)
(0.0106531 -0.000185811 0 0.000368539 0 0)
(0.0106366 5.28657e-05 0 0.000361416 0 0)
(0.0107066 0.000183917 0 0.000360737 0 0)
(0.0109481 0.000272961 0 0.000375455 0 0)
(0.011647 0.000381996 0 0.000399461 0 0)
(0.0128178 0.000533302 0 0.000428232 0 0)
(0.0143999 0.000726014 0 0.000460103 0 0)
(0.0163891 0.000954189 0 0.000494865 0 0)
(0.0188202 0.00121177 0 0.000533884 0 0)
(0.0217219 0.00149475 0 0.000578339 0 0)
(0.025095 0.00180231 0 0.000630197 0 0)
(0.0289255 0.00213145 0 0.000688619 0 0)
(0.0331823 0.00248449 0 0.000755864 0 0)
(0.0378686 0.00285329 0 0.000828741 0 0)
(0.0429239 0.00324858 0 0.000908597 0 0)
(0.00464101 -0.000447248 0 0.00115041 0 0)
(0.015727 -0.000924887 0 0.00049304 0 0)
(0.012303 -0.00069294 0 0.000366761 0 0)
(0.0103743 -0.000303552 0 0.000343227 0 0)
(0.0105896 -3.21583e-05 0 0.000298948 0 0)
(0.0108649 0.000120186 0 0.000258521 0 0)
(0.0114494 0.000237495 0 0.000238621 0 0)
(0.0126295 0.000356123 0 0.000232878 0 0)
(0.0143504 0.000477206 0 0.000234429 0 0)
(0.0165035 0.00060287 0 0.000240524 0 0)
(0.0190659 0.00074141 0 0.000251204 0 0)
(0.0220712 0.00089976 0 0.000267439 0 0)
(0.0255474 0.00108077 0 0.000289961 0 0)
(0.0295008 0.00128364 0 0.000319138 0 0)
(0.0339106 0.00150419 0 0.000354489 0 0)
(0.0387551 0.00173861 0 0.000397619 0 0)
(0.0440265 0.00198047 0 0.00044738 0 0)
(0.0496815 0.00223417 0 0.000503295 0 0)
(0.00362536 -0.000171184 0 0.00087363 0 0)
(0.0145454 6.08027e-05 0 0.000223787 0 0)
(0.0112266 -3.31123e-05 0 0.000146617 0 0)
(0.0095717 7.77152e-06 0 0.000136599 0 0)
(0.0100496 -1.74862e-06 0 0.000138901 0 0)
(0.0105829 -5.142e-05 0 0.000143595 0 0)
(0.0113914 -0.000109807 0 0.000147821 0 0)
(0.0127178 -0.000166718 0 0.000152752 0 0)
(0.0144701 -0.000218792 0 0.00016024 0 0)
(0.0165213 -0.000261297 0 0.000170201 0 0)
(0.0188325 -0.000288629 0 0.000181874 0 0)
(0.0214397 -0.00029766 0 0.000195001 0 0)
(0.0243629 -0.000286105 0 0.000209683 0 0)
(0.027638 -0.000252292 0 0.000226496 0 0)
(0.0312322 -0.000194806 0 0.000245396 0 0)
(0.0351888 -0.000114146 0 0.00026779 0 0)
(0.0394458 -1.13905e-05 0 0.000293758 0 0)
(0.0440987 0.000114855 0 0.000322283 0 0)
(0.00406422 -0.000289871 0 0.000741013 0 0)
(0.0156192 -2.86511e-05 0 0.000225957 0 0)
(0.0136475 3.14875e-05 0 0.00013596 0 0)
(0.0129594 0.000106242 0 9.82541e-05 0 0)
(0.0140882 0.000124131 0 7.71207e-05 0 0)
(0.0151479 0.000136433 0 6.42665e-05 0 0)
(0.0162092 0.000157142 0 5.58266e-05 0 0)
(0.0175268 0.000180959 0 5.07291e-05 0 0)
(0.0191894 0.000203437 0 4.81612e-05 0 0)
(0.0212193 0.000224963 0 4.75239e-05 0 0)
(0.0236245 0.000249661 0 4.84344e-05 0 0)
(0.0264179 0.000283015 0 5.06066e-05 0 0)
(0.0296374 0.000329818 0 5.37335e-05 0 0)
(0.033341 0.000391911 0 5.74956e-05 0 0)
(0.037609 0.000467562 0 6.18313e-05 0 0)
(0.0424658 0.000553609 0 6.70652e-05 0 0)
(0.0479938 0.000647382 0 7.26836e-05 0 0)
(0.0541182 0.000751263 0 7.80559e-05 0 0)
(0.0017633 -0.00439333 1.29917e-22 0.0110735 -2.69297e-22 1.37937e-37)
(0.0197358 -0.0156577 -3.58692e-22 0.0126776 2.18071e-22 1.36007e-37)
(0.0524814 -0.0216393 0 0.0098316 0 0)
(0.0863354 -0.0209058 0 0.00700472 0 0)
(0.114143 -0.0171066 0 0.00596551 0 0)
(0.137144 -0.0147031 8.23569e-22 0.00684615 -5.69552e-23 1.28108e-37)
(0.162535 -0.01649 0 0.00867176 0 0)
(0.198364 -0.022677 0 0.0104034 0 0)
(0.252131 -0.0320948 0 0.0113253 0 0)
(0.327808 -0.0425251 0 0.011396 0 0)
(0.425886 -0.0522959 -1.0259e-21 0.0107833 4.47501e-23 1.18662e-37)
(0.544072 -0.0602248 0 0.00972459 0 0)
(0.678194 -0.065589 0 0.00844036 0 0)
(0.822964 -0.0679974 0 0.00708974 0 0)
(0.972325 -0.0672754 0 0.00577504 0 0)
(1.11987 -0.0633838 -1.33366e-21 0.00456717 1.04004e-22 1.0968e-37)
(1.25893 -0.0564059 0 0.00353446 0 0)
(1.38337 -0.0465876 0 0.00276144 0 0)
(1.4877 -0.0343845 0 0.00234657 0 0)
(1.56595 -0.0205923 0 0.00238477 0 0)
(1.61569 -0.00635034 0 0.0029264 0 0)
(1.63631 0.00701798 0 0.00393828 0 0)
(1.63026 0.0182278 0 0.00529408 0 0)
(1.6023 0.0262271 -2.8001e-21 0.00679163 2.65932e-22 9.62582e-38)
(1.55924 0.0303076 3.08091e-21 0.00822018 -2.75388e-22 9.46623e-38)
(1.50787 0.0301036 -3.37111e-21 0.00945834 2.78293e-22 9.30846e-38)
(1.45533 0.02584 -3.6642e-21 0.0106798 2.75534e-22 9.1525e-38)
(1.40815 0.0174954 0 0.0123891 0 0)
(1.3724 0.00473464 0 0.0161188 0 0)
(1.35526 -0.0145024 4.49337e-21 0.0226095 -2.17422e-22 8.69547e-38)
(1.36705 -0.0423914 4.72922e-21 0.0324339 -1.75071e-22 8.54673e-38)
(1.41881 -0.0762693 0 0.0426965 0 0)
(1.50806 -0.107991 0 0.0492633 0 0)
(1.62528 -0.133005 5.32909e-21 0.0496227 -1.0532e-22 8.11131e-38)
(1.77235 -0.147008 0 0.0467995 0 0)
(1.94802 -0.154954 0 0.0484548 0 0)
(2.15221 -0.167572 -5.89526e-21 0.0516677 1.31526e-22 7.69202e-38)
(2.37788 -0.178771 0 0.0541426 0 0)
(2.6251 -0.17535 -6.27376e-21 0.0535717 1.48316e-22 7.42142e-38)
(2.88472 -0.171881 -1.29394e-20 0.056954 3.28938e-22 2.91551e-37)
(3.15418 -0.179393 0 0.053621 0 0)
(3.43147 -0.173688 0 0.0479211 0 0)
(3.70314 -0.158669 0 0.0453812 0 0)
(3.96534 -0.156056 0 0.0434104 0 0)
(4.21851 -0.159716 0 0.0399279 0 0)
(4.4635 -0.148929 -1.52156e-20 0.0392342 3.08657e-22 2.61194e-37)
(4.68928 -0.14145 -1.55285e-20 0.0396611 2.92004e-22 2.56377e-37)
(4.90494 -0.141292 -1.58048e-20 0.0350522 2.60013e-22 2.51629e-37)
(5.10211 -0.133254 0 0.031745 0 0)
(5.26169 -0.121636 1.6248e-20 0.0295602 -2.18114e-22 2.42336e-37)
(5.38039 -0.10643 0 0.0275528 0 0)
(5.45925 -0.0806115 -1.65632e-20 0.0242689 1.87395e-22 2.33311e-37)
(5.50692 -0.0470582 -1.66712e-20 0.0205564 1.81911e-22 2.28898e-37)
(5.53448 -0.0246959 0 0.0201243 0 0)
(5.56984 -0.0244279 0 0.0200724 0 0)
(5.63197 -0.0327686 0 0.0178465 0 0)
(5.71552 -0.0395131 -1.67631e-20 0.0152103 1.14955e-22 2.11896e-37)
(5.81239 -0.0434409 0 0.0127432 0 0)
(5.91609 -0.0447805 0 0.0106072 0 0)
(6.02065 -0.0441137 0 0.00882724 0 0)
(6.12195 -0.042033 0 0.00737117 0 0)
(6.21717 -0.0390585 0 0.00618946 0 0)
(6.30438 -0.0355398 0 0.00522859 0 0)
(6.38241 -0.0317221 0 0.00444318 0 0)
(6.45029 -0.0277384 0 0.00379517 0 0)
(6.50755 -0.0236741 1.55049e-20 0.00325604 1.27948e-24 1.77291e-37)
(6.55365 -0.0195463 0 0.00280311 0 0)
(6.58807 -0.015367 0 0.00242103 0 0)
(6.61021 -0.0111409 -1.48247e-20 0.00209903 -1.89254e-23 1.6682e-37)
(6.61952 -0.00687075 -1.4576e-20 0.00182936 -2.37523e-23 1.63443e-37)
(6.61555 -0.00256378 0 0.00160613 0 0)
(6.59781 0.00177805 1.40477e-20 0.00142375 3.23334e-23 1.56853e-37)
(6.56588 0.00614911 -1.37687e-20 0.00127674 -3.61906e-23 1.53639e-37)
(6.51931 0.0105383 0 0.00115975 0 0)
(6.45767 0.014935 1.31826e-20 0.00106764 4.32311e-23 1.47372e-37)
(6.38055 0.0193282 0 0.000996629 0 0)
(6.2876 0.0236876 0 0.000945351 0 0)
(6.17864 0.0279697 -1.22398e-20 0.000913284 -5.22699e-23 1.38359e-37)
(6.05389 0.0321013 0 0.000900209 0 0)
(5.91374 0.0360009 1.15771e-20 0.000903667 5.69266e-23 1.32602e-37)
(5.75893 0.0396036 0 0.000919163 0 0)
(5.59044 0.0428565 -1.08983e-20 0.000940893 -5.9977e-23 1.2704e-37)
(5.40942 0.0457519 -1.05565e-20 0.000962631 -6.08471e-23 1.2433e-37)
(5.21696 0.0483197 -1.02153e-20 0.000980371 -6.13155e-23 1.21667e-37)
(5.01401 0.0506159 -1.97513e-20 0.000993362 -1.22871e-22 4.76202e-37)
(4.80126 0.0526988 1.90775e-20 0.00100405 1.22519e-22 4.65918e-37)
(4.57924 0.0546045 0 0.00101669 0 0)
(4.34846 0.0563313 0 0.00103542 0 0)
(4.10955 0.0578421 0 0.0010633 0 0)
(3.86344 0.059064 1.64736e-20 0.00110152 1.16441e-22 4.26553e-37)
(3.61141 0.0599002 1.58555e-20 0.00114852 1.137e-22 4.17142e-37)
(3.35517 0.0602462 -1.52555e-20 0.00120111 -1.10375e-22 4.07898e-37)
(3.09691 0.0600078 0 0.00125461 0 0)
(2.83915 0.0591121 1.41205e-20 0.00130298 1.01826e-22 3.89903e-37)
(2.58473 0.057531 1.3591e-20 0.00134058 9.66365e-23 3.81146e-37)
(2.33653 0.0552754 1.30896e-20 0.00136189 9.09271e-23 3.72548e-37)
(2.09741 0.0524032 0 0.00136281 0 0)
(1.86997 0.049019 0 0.00134181 0 0)
(1.65631 0.0452315 0 0.00129782 0 0)
(1.45796 0.0411942 1.13853e-20 0.00123398 6.54089e-23 3.39682e-37)
(1.27596 0.0370209 0 0.00115218 0 0)
(1.11084 0.0328556 0 0.00105797 0 0)
(0.962712 0.0287875 -1.04061e-20 0.000954684 -4.68498e-23 3.16576e-37)
(0.831252 0.0249165 0 0.000847633 0 0)
(0.715787 0.0212974 0 0.000740103 0 0)
(0.615371 0.0179837 -9.6323e-21 0.000636122 -3.08971e-23 2.94726e-37)
(0.528881 0.0149956 0 0.000537977 0 0)
(0.455044 0.012354 0 0.000448497 0 0)
(0.392556 0.0100545 9.01228e-21 0.000368983 1.80974e-23 2.74076e-37)
(0.34002 0.00805352 8.83207e-21 0.000298112 1.45114e-23 2.67449e-37)
(0.296141 0.00634435 0 0.000237174 0 0)
(0.259794 0.00489961 -8.50339e-21 0.000185751 -8.31207e-24 2.54569e-37)
(0.229917 0.00368921 0 0.000143125 0 0)
(0.205565 0.00268249 8.21039e-21 0.000108356 3.30053e-24 2.42174e-37)
(0.185905 0.00185051 0 8.04446e-05 0 0)
(0.170216 0.00116743 7.94667e-21 5.84577e-05 -6.76367e-25 2.30248e-37)
(0.157873 0.000610683 7.82417e-21 4.15582e-05 -2.32267e-24 2.24457e-37)
(0.148337 0.000161044 0 2.90387e-05 0 0)
(0.141142 -0.000198082 0 2.02956e-05 0 0)
(0.135886 -0.000482029 0 1.4746e-05 0 0)
(0.13223 -0.00070463 0 1.1841e-05 0 0)
(0.129885 -0.000877417 0 1.10154e-05 0 0)
(0.128614 -0.00101097 0 1.16691e-05 0 0)
(0.128223 -0.00111363 0 1.32894e-05 0 0)
(0.128557 -0.00119199 7.00469e-21 1.54356e-05 -8.80007e-24 1.82008e-37)
(0.129494 -0.00125209 -6.91608e-21 1.77496e-05 8.93363e-24 1.77162e-37)
(0.130937 -0.00129647 0 1.9951e-05 0 0)
(0.132799 -0.00132482 0 2.17252e-05 0 0)
(0.135003 -0.00133744 0 2.28152e-05 0 0)
(0.137487 -0.00133593 0 2.31493e-05 0 0)
(0.140191 -0.00132153 -1.29906e-20 2.2753e-05 1.60481e-23 6.17399e-37)
(0.143063 -0.00129511 0 2.17026e-05 0 0)
(0.146051 -0.00125765 1.26655e-20 2.01261e-05 -1.43086e-23 5.83437e-37)
(0.149107 -0.00121061 -1.2504e-20 1.8198e-05 1.33523e-23 5.66977e-37)
(0.152186 -0.00115562 0 1.60915e-05 0 0)
(0.155243 -0.00109441 0 1.39546e-05 0 0)
(0.158242 -0.00102883 0 1.19056e-05 0 0)
(0.161148 -0.000960706 1.18601e-20 1.00234e-05 -9.57453e-24 5.04476e-37)
(0.163935 -0.000891557 1.16992e-20 8.34558e-06 -8.72885e-24 4.89659e-37)
(0.16658 -0.000822608 0 6.88026e-06 0 0)
(0.169064 -0.000754858 1.13772e-20 5.6203e-06 -7.20969e-24 4.60958e-37)
(0.171376 -0.000689149 1.12161e-20 4.55145e-06 -6.53935e-24 4.47064e-37)
(0.173506 -0.000626213 -1.10551e-20 3.65676e-06 5.92725e-24 4.33468e-37)
(0.175453 -0.000566663 0 2.91789e-06 0 0)
(0.177216 -0.000510948 0 2.31533e-06 0 0)
(0.178801 -0.000459313 -1.05725e-20 1.82903e-06 4.4236e-24 3.94419e-37)
(0.180217 -0.000411826 0 1.43962e-06 0 0)