/*--------------------------------*- C++ -*----------------------------------*\
  =========                 |
  \\      /  F ield         | OpenFOAM: The Open Source CFD Toolbox
   \\    /   O peration     | Website:  https://openfoam.org
    \\  /    A nd           | Version:  7
     \\/     M anipulation  |
\*---------------------------------------------------------------------------*/
FoamFile
{
    version     2.0;
    format      ascii;
    class       volScalarField;
    location    "0.092";
    object      nut;
}
// * * * * * * * * * * * * * * * * * * * * * * * * * * * * * * * * * * * * * //

dimensions      [0 2 -1 0 0 0 0];

internalField   nonuniform List<scalar> 
12225
(
0
0
0
0
0
0
0
0
0
0
0
0
0
0
0
1.36193e-09
0
0
0
0
0
0
0
0
0
0
0
0
0
0
0
0
0
9.96099e-10
0
0
0
4.5124e-10
7.26543e-11
0
0
0
0
0
0
0
0
0
0
0
0
8.87308e-10
0
0
0
1.88611e-08
1.56057e-08
3.70186e-09
0
0
0
0
0
0
0
0
0
1.59941e-10
0
5.60214e-10
0
0
1.01477e-07
3.18795e-07
2.71505e-07
9.33045e-08
0
0
0
0
5.82241e-10
1.61018e-09
1.60239e-09
1.22112e-09
6.00944e-10
1.57439e-10
0
0
0
0
6.78364e-08
3.09913e-07
2.95727e-07
1.71557e-07
9.16022e-08
3.40418e-08
4.30648e-08
4.71933e-08
4.13549e-08
4.10049e-08
2.83137e-08
1.02667e-08
0
0
0
0
0
0
2.98312e-07
5.21382e-07
3.70778e-07
2.92619e-07
2.24035e-07
9.27245e-08
1.10171e-07
1.2354e-07
7.95879e-08
5.15064e-08
3.06693e-08
1.04407e-08
2.34595e-09
5.26807e-09
1.22441e-08
1.70965e-08
1.93467e-08
1.57936e-08
6.64838e-07
5.58975e-07
3.91383e-07
4.77236e-07
3.28977e-07
1.2545e-07
2.33585e-07
1.69268e-07
7.71639e-08
3.8405e-08
1.94915e-08
1.79983e-09
0
0
1.02752e-08
1.8961e-08
2.23199e-08
1.63971e-08
9.28288e-07
8.93135e-07
8.54942e-07
6.32405e-07
2.03846e-07
3.26699e-07
9.52881e-07
5.39332e-07
1.75432e-07
7.99869e-08
6.25561e-08
3.5874e-08
1.31621e-08
7.51453e-09
1.32784e-08
1.80223e-08
1.47607e-08
1.35131e-09
8.37194e-07
9.95033e-07
1.17025e-06
8.60976e-07
4.52198e-07
6.35302e-07
6.05738e-07
2.56262e-07
8.94356e-08
4.29545e-08
2.63833e-08
6.59516e-09
0
0
7.31356e-09
1.60874e-08
1.26753e-08
7.9842e-10
2.59125e-07
1.00551e-06
1.65135e-06
1.17481e-06
6.36709e-07
2.60868e-07
1.28078e-07
5.63872e-08
3.41162e-08
1.95383e-08
0
0
0
0
0
1.71387e-09
2.09796e-09
0
0
0
1.86897e-06
1.3181e-06
6.02879e-07
6.21836e-08
3.97597e-09
1.39164e-08
3.86766e-08
4.04283e-08
5.07075e-09
0
0
0
0
0
0
0
0
6.16068e-07
1.58442e-06
1.3205e-06
7.08106e-07
0
0
3.12945e-08
1.21848e-07
1.15165e-07
3.63961e-08
0
0
0
0
0
0
0
8.86935e-07
7.47918e-07
7.60205e-07
6.01396e-07
1.71241e-07
2.84666e-07
0
3.18762e-07
4.48984e-07
1.34484e-07
0
0
0
0
0
0
0
0
8.20791e-07
8.05699e-07
1.50776e-07
0
1.9836e-07
5.59432e-07
0
8.91175e-08
1.19653e-10
0
0
0
0
0
0
7.70047e-09
4.85e-08
5.80872e-08
0
0
0
7.83145e-09
1.05021e-07
2.22476e-07
1.74587e-07
0
0
0
0
0
0
0
0
3.222e-08
4.48408e-08
4.36903e-08
0
0
0
1.98199e-07
0
0
0
7.63037e-09
2.03339e-08
3.69916e-08
5.12095e-09
0
0
0
0
4.92643e-08
9.07285e-08
1.36533e-07
0
0
0
7.60598e-08
0
2.4822e-07
4.1714e-07
1.81621e-07
9.49543e-08
9.29758e-08
6.63021e-08
0
0
0
0
4.27752e-09
4.52119e-08
1.29575e-07
0
0
9.52726e-08
1.27363e-07
6.85479e-08
4.24134e-07
6.49529e-07
5.19607e-07
2.47194e-07
2.1895e-08
0
0
0
0
0
0
0
0
0
0
8.10062e-08
2.00959e-07
1.36643e-07
3.47114e-07
7.1595e-07
5.30585e-07
1.86997e-07
6.51976e-08
3.08737e-08
0
0
0
0
0
0
0
0
0
0
6.03242e-08
7.25624e-08
2.91694e-07
5.3534e-07
2.29341e-07
0
0
0
0
0
0
0
0
0
0
2.0588e-07
2.94446e-07
0
0
2.67985e-08
8.02496e-08
0
0
0
0
0
0
0
9.75211e-09
2.58975e-08
2.4847e-08
2.02813e-08
1.23833e-08
0
6.94739e-08
8.16237e-08
0
0
0
0
0
0
0
0
0
0
0
0
0
0
0
2.49206e-08
1.72196e-07
1.69847e-07
0
0
0
0
0
0
0
0
0
0
0
0
0
0
0
0
5.6707e-08
0
0
0
0
0
0
0
0
0
0
0
0
0
0
0
0
0
0
0
0
0
0
0
0
0
0
0
0
0
0
0
0
0
0
0
0
0
0
0
0
0
0
0
0
0
0
0
0
0
0
0
0
1.97076e-09
0
0
0
0
0
0
0
0
0
0
0
0
0
0
0
0
0
4.62155e-09
0
0
0
0
0
0
0
0
0
0
0
0
0
0
0
0
0
4.01476e-08
0
0
0
0
0
0
0
0
0
0
0
0
0
0
0
0
0
1.54616e-06
1.84089e-06
2.06782e-06
1.7624e-06
1.09628e-06
4.88046e-07
5.94767e-08
0
0
0
0
0
8.55861e-07
2.29058e-06
4.41292e-06
7.14344e-06
9.44416e-06
9.16946e-06
7.07432e-06
4.93206e-06
3.26145e-06
2.03515e-06
1.18504e-06
7.4844e-07
7.70913e-07
1.07794e-06
1.30666e-06
1.26419e-06
1.04882e-06
8.08082e-07
6.09043e-07
4.55649e-07
3.2754e-07
2.2484e-07
1.66418e-07
1.9034e-07
3.42171e-07
6.20368e-07
8.32598e-07
8.20461e-07
5.80499e-07
2.76947e-07
7.85923e-08
0
0
0
0
0
0
0
0
0
0
0
0
0
0
0
0
0
0
0
0
0
0
0
2.66107e-06
5.75517e-06
6.36687e-08
0
7.08061e-06
5.31031e-06
0
0
2.05471e-06
6.98098e-06
2.0066e-05
4.40119e-05
5.64124e-05
5.01404e-05
1.76714e-05
2.88052e-06
5.33184e-07
8.32055e-08
1.90372e-08
3.3756e-08
5.27973e-08
6.18415e-08
6.08387e-08
5.41681e-08
4.54185e-08
3.5233e-08
2.58901e-08
1.83356e-08
1.13442e-08
5.4324e-09
0
0
0
0
0
0
0
0
0
0
0
0
0
0
0
0
0
0
0
0
0
0
0
0
0
0
0
0
0
0
0
0
0
0
0
0
0
0
0
0
0
0
0
0
0
0
0
0
0
0
0
0
0
0
0
0
0
0
0
0
0
0
0
0
0
0
0
0
0
0
0
2.14832e-12
8.73046e-12
2.20159e-11
2.16e-11
3.97509e-11
2.44738e-11
5.75627e-11
2.53894e-11
1.08829e-10
1.18759e-10
2.78647e-10
2.38566e-09
0
1.10419e-06
1.84478e-06
2.79058e-06
3.13093e-06
2.67387e-06
1.80217e-06
8.08985e-07
0
0
0
0
0
0
0
1.74809e-07
7.68405e-07
2.00341e-06
3.85931e-06
5.5958e-06
6.34888e-06
5.49015e-06
3.30204e-06
1.46755e-06
5.61357e-07
8.71841e-08
0
0
0
0
0
0
0
5.80083e-08
1.67589e-07
2.62935e-07
3.86065e-07
6.0623e-07
9.19652e-07
1.12319e-06
1.04979e-06
7.42183e-07
4.21789e-07
2.59154e-07
2.26667e-07
2.21146e-07
1.73602e-07
5.64492e-08
0
0
0
1.90799e-07
3.24911e-07
7.65089e-08
0
0
0
0
0
0
0
0
0
0
0
0
0
1.53751e-07
0
0
0
0
0
1.35008e-07
2.01258e-06
4.90209e-06
1.20064e-05
1.27594e-05
1.36058e-05
1.16167e-05
7.17174e-06
3.31756e-06
1.39045e-06
6.20092e-07
2.62007e-07
1.36174e-07
1.0388e-07
9.57073e-08
8.98082e-08
8.19598e-08
7.27158e-08
6.27772e-08
5.24034e-08
4.1867e-08
3.13303e-08
2.09477e-08
1.08392e-08
8.65657e-10
0
0
0
0
0
0
0
0
0
0
0
0
0
0
0
0
0
0
0
0
0
0
0
0
0
0
0
0
0
0
6.51473e-09
8.93617e-10
0
0
0
0
0
0
0
0
0
0
0
0
0
0
0
0
0
0
0
0
0
0
0
0
0
0
0
0
0
0
0
0
0
0
0
0
9.69215e-12
4.905e-11
8.89743e-11
9.78184e-11
1.32996e-10
1.16777e-10
1.63987e-10
1.15722e-10
1.9382e-10
1.19219e-10
2.40081e-10
2.45921e-10
2.61601e-10
1.33538e-09
0
4.55408e-07
1.64544e-06
2.61125e-06
3.20725e-06
3.12737e-06
2.4341e-06
1.56898e-06
7.33788e-07
1.03389e-07
0
0
1.09458e-08
5.88141e-08
1.19532e-07
2.6992e-07
5.32911e-07
8.27208e-07
1.02792e-06
1.05019e-06
5.56368e-07
0
0
0
0
0
0
0
0
0
0
0
0
0
0
5.40431e-08
8.21911e-07
1.42987e-06
1.69759e-06
1.59063e-06
1.23295e-06
8.8502e-07
7.96056e-07
9.28263e-07
1.12117e-06
1.35275e-06
1.60096e-06
1.73733e-06
1.68351e-06
1.50156e-06
1.29729e-06
1.13779e-06
1.06857e-06
1.09206e-06
1.24775e-06
1.86972e-06
2.84078e-06
2.73413e-06
1.59621e-06
0
0
0
0
0
0
0
0
0
0
0
0
0
0
0
3.82044e-06
7.45889e-06
2.75048e-06
2.03664e-06
1.8376e-06
1.01819e-06
7.19897e-07
6.70415e-07
6.07314e-07
5.26335e-07
4.94677e-07
4.86455e-07
4.69387e-07
4.34325e-07
3.81965e-07
3.25398e-07
2.68755e-07
2.16625e-07
1.70107e-07
1.29119e-07
9.33245e-08
6.21884e-08
3.44714e-08
8.62496e-09
0
0
0
0
0
0
0
0
0
0
0
0
0
0
0
0
0
0
0
0
0
0
0
0
0
0
0
0
0
0
0
0
0
2.26561e-08
3.80126e-08
4.25456e-08
3.97982e-08
3.35287e-08
2.61859e-08
1.90455e-08
1.29532e-08
8.15951e-09
4.63585e-09
2.24932e-09
3.94763e-10
0
0
0
0
0
0
0
0
0
0
0
0
0
0
0
0
0
0
0
0
0
1.20259e-10
3.55095e-10
4.81851e-10
5.00326e-10
5.1357e-10
4.55341e-10
4.63099e-10
3.74378e-10
4.22321e-10
3.06544e-10
4.02731e-10
2.996e-10
3.58057e-10
5.38797e-10
0
1.49457e-09
0
2.29119e-07
1.05215e-06
2.27053e-06
2.82553e-06
1.45556e-06
1.67322e-07
0
0
4.09009e-08
1.6429e-06
3.23077e-06
3.28979e-06
2.28493e-06
1.30112e-06
5.99364e-07
1.21101e-07
0
0
0
0
0
0
0
0
0
0
0
0
0
0
0
0
0
0
0
0
0
0
0
0
0
2.17444e-07
3.77537e-07
4.72759e-07
5.33686e-07
5.74365e-07
5.84726e-07
5.69012e-07
5.40753e-07
5.22932e-07
5.41257e-07
6.40851e-07
8.24586e-07
1.05835e-06
1.58025e-06
2.76555e-06
3.09172e-06
2.09336e-06
5.7793e-07
0
0
0
0
0
0
0
3.35916e-07
8.02304e-07
1.04686e-06
9.04855e-07
4.80569e-07
0
1.04056e-06
3.30145e-06
8.0209e-07
1.60165e-07
2.17541e-07
2.89537e-07
1.04967e-07
4.78123e-08
1.45962e-07
2.42624e-07
3.09123e-07
3.20073e-07
2.9199e-07
2.59447e-07
2.39581e-07
2.3232e-07
2.37284e-07
2.49118e-07
2.66391e-07
2.86892e-07
3.10807e-07
3.32065e-07
3.17174e-07
1.81499e-07
0
0
0
0
0
0
0
0
0
0
0
0
0
0
0
0
0
0
0
0
0
0
0
0
0
0
0
0
0
0
0
0
0
0
0
0
0
0
0
0
0
0
0
0
0
0
0
0
5.51625e-09
2.87166e-09
2.46574e-09
2.73994e-09
5.46224e-10
0
0
0
0
0
0
0
0
0
0
0
0
0
6.66106e-10
1.31743e-09
1.70095e-09
1.85943e-09
1.78915e-09
1.64608e-09
1.36922e-09
1.15959e-09
8.68522e-10
7.23853e-10
5.33143e-10
3.79737e-10
4.65421e-10
0
8.6987e-10
0
2.28368e-09
0
5.40513e-08
2.90713e-07
1.39145e-06
1.50846e-06
0
0
0
0
4.9444e-07
5.13223e-06
8.2191e-06
6.13426e-06
2.97922e-06
9.78414e-07
0
0
0
0
0
0
0
0
0
0
0
0
0
0
0
0
0
0
0
0
0
0
0
0
6.03513e-08
2.55906e-07
4.25032e-07
5.39768e-07
5.98014e-07
6.14542e-07
5.9461e-07
5.57778e-07
5.13677e-07
4.73878e-07
4.3604e-07
4.06987e-07
3.89128e-07
4.03556e-07
4.5741e-07
5.41211e-07
8.53003e-07
1.59173e-06
1.28282e-06
0
0
0
0
0
0
0
0
0
0
8.54886e-07
1.30476e-06
1.44483e-06
1.80209e-06
2.01747e-06
9.73871e-07
2.2753e-08
0
0
0
0
0
0
1.93511e-08
5.78783e-08
2.6872e-08
0
0
0
0
0
8.0734e-09
1.74097e-08
2.1544e-08
1.98673e-08
1.16186e-08
0
0
0
0
0
3.83976e-09
8.32035e-09
6.75782e-09
1.80753e-09
0
0
0
0
0
0
0
0
0
0
0
0
0
0
0
0
0
0
0
0
0
0
0
0
0
0
0
0
0
0
0
0
0
0
0
0
0
0
0
0
0
0
0
1.54871e-08
3.65885e-08
9.27846e-09
0
0
0
0
0
0
0
0
0
0
0
0
0
0
0
0
0
0
0
0
0
0
1.007e-09
5.90189e-10
1.51575e-09
0
1.67501e-09
0
2.65591e-09
0
4.82927e-09
0
4.90714e-09
9.5047e-08
6.51213e-07
0
0
0
0
9.64692e-07
4.76479e-06
8.66758e-06
9.99629e-06
7.80781e-06
4.14668e-06
1.55052e-06
2.361e-07
0
0
0
0
0
0
0
0
0
0
0
0
0
0
0
0
0
0
0
0
0
0
0
0
0
0
1.34004e-07
3.17575e-07
4.53191e-07
5.17851e-07
5.2478e-07
4.9228e-07
4.45415e-07
3.9261e-07
3.49651e-07
3.25663e-07
3.21872e-07
3.52369e-07
4.21214e-07
6.48595e-07
9.48262e-07
0
0
0
0
0
0
0
0
0
0
0
3.88859e-06
3.62332e-06
2.42938e-06
1.85827e-06
8.37102e-07
0
0
0
0
0
0
0
0
1.65396e-08
2.1117e-08
4.59571e-09
0
0
0
8.34461e-09
1.78197e-08
2.19992e-08
2.04825e-08
1.29979e-08
0
0
0
0
0
0
2.68607e-08
3.93134e-08
3.91615e-08
3.41936e-08
2.72232e-08
1.90931e-08
1.06578e-08
1.93566e-09
0
0
0
0
0
0
0
0
0
0
0
0
0
0
0
0
0
0
0
0
0
0
0
0
0
0
0
0
0
0
0
0
0
0
0
0
0
0
0
0
0
3.30596e-08
7.1851e-08
4.87915e-08
0
0
0
0
0
0
0
0
0
0
0
0
0
0
0
0
0
0
0
0
0
0
0
0
0
8.411e-09
0
1.42569e-08
0
1.43402e-08
0
0
0
1.53458e-07
0
5.33942e-07
1.61224e-06
2.65398e-06
4.2983e-06
6.6635e-06
8.37923e-06
8.50473e-06
6.72663e-06
3.70247e-06
1.48492e-06
3.63179e-07
0
0
0
0
0
0
0
0
0
0
0
0
0
0
0
0
0
0
0
0
0
0
0
0
0
0
0
0
0
0
2.41112e-07
3.7213e-07
3.97481e-07
3.69049e-07
3.19712e-07
2.80117e-07
2.52426e-07
2.37488e-07
2.53638e-07
3.53972e-07
5.73787e-07
0
0
0
0
0
0
0
0
0
0
4.06909e-07
3.0267e-06
4.79962e-06
2.20741e-06
8.49594e-07
0
0
0
0
0
0
0
0
0
8.11408e-08
6.84757e-08
4.05537e-08
2.06721e-08
1.35967e-08
1.43379e-08
1.74047e-08
1.82807e-08
1.54632e-08
8.39889e-09
0
0
0
0
0
0
1.48985e-08
5.80935e-08
6.00884e-08
5.23043e-08
4.19643e-08
3.21069e-08
2.1943e-08
1.2831e-08
3.53573e-09
0
0
0
0
0
0
0
0
0
0
0
0
0
0
0
0
0
0
0
0
0
0
0
0
0
0
0
0
0
0
0
0
0
0
0
0
0
0
0
0
0
1.73782e-08
4.87257e-08
8.72794e-08
6.83381e-08
0
0
0
0
0
0
0
0
3.62351e-09
2.87481e-09
0
0
0
0
0
0
6.7444e-10
0
0
0
0
0
0
1.59795e-09
1.10745e-08
7.40316e-09
1.49308e-08
0
0
0
0
0
0
1.70676e-06
2.45545e-06
3.08997e-06
3.64885e-06
4.35122e-06
5.2217e-06
5.86231e-06
5.79861e-06
4.69461e-06
2.92116e-06
1.50823e-06
6.00319e-07
7.009e-09
0
0
0
0
0
0
0
0
0
0
0
0
1.16488e-07
0
0
0
0
0
0
0
0
0
0
0
0
0
0
0
0
0
0
1.17395e-07
2.64832e-07
2.83696e-07
2.60988e-07
2.2924e-07
1.91749e-07
1.55072e-07
1.70024e-07
7.24053e-07
6.09399e-07
0
0
0
0
0
0
0
0
0
8.47653e-08
8.57705e-07
1.61839e-06
8.91821e-07
1.84421e-07
0
0
0
0
0
0
0
0
3.93988e-08
1.10352e-07
7.4526e-08
3.76606e-08
1.65124e-08
1.12063e-08
1.3126e-08
1.70365e-08
1.95058e-08
1.8074e-08
9.88088e-09
0
0
0
0
0
0
1.21986e-07
1.37084e-07
1.06869e-07
7.2756e-08
4.33402e-08
2.20483e-08
6.23143e-09
0
0
0
0
0
0
0
0
0
0
0
0
0
0
0
0
0
0
0
0
0
0
0
0
0
0
0
0
0
1.06706e-09
0
0
1.44586e-09
2.0675e-08
3.05367e-08
0
0
0
0
0
0
0
7.09564e-10
2.12756e-08
3.62164e-08
5.71651e-08
9.08209e-08
6.90702e-08
0
0
0
0
0
0
0
0
4.14317e-08
3.05575e-08
1.55715e-08
6.8583e-09
0
0
0
0
0
1.2735e-08
9.56997e-09
1.48863e-09
0
0
1.64158e-09
9.33299e-09
8.76252e-09
1.43368e-08
4.96065e-09
0
0
0
0
0
8.11545e-07
1.44996e-06
1.86677e-06
2.24506e-06
2.65266e-06
3.05318e-06
3.4142e-06
3.50494e-06
3.14193e-06
2.45603e-06
1.65888e-06
9.15442e-07
2.95307e-07
0
0
0
0
0
0
0
0
3.48521e-07
1.00139e-06
1.39791e-06
1.28373e-06
7.42907e-07
7.80506e-08
0
0
0
0
0
0
0
5.48873e-08
2.10671e-07
2.65871e-07
1.75152e-07
0
0
0
0
0
0
0
0
1.40923e-07
2.19604e-07
2.11545e-07
1.84241e-07
1.5131e-07
1.32971e-07
5.01775e-07
7.98899e-08
0
0
3.39827e-08
0
0
0
0
0
0
0
0
0
0
0
0
0
0
0
0
0
0
0
2.38407e-08
6.77409e-08
3.60379e-08
1.01369e-08
5.48799e-09
1.22063e-08
1.99604e-08
2.58286e-08
2.81691e-08
2.45087e-08
1.10623e-08
0
0
0
0
0
7.30603e-07
7.18387e-07
5.23747e-07
3.51621e-07
2.12075e-07
1.02655e-07
2.33401e-08
0
0
0
0
0
0
0
0
0
0
0
0
0
0
0
0
0
0
0
0
0
0
0
0
0
0
0
0
0
4.91491e-09
1.88058e-08
2.49263e-08
2.49331e-08
2.2874e-08
2.61402e-08
4.81613e-08
8.45189e-08
8.53644e-08
3.96457e-08
9.48965e-09
7.38312e-09
1.2746e-08
5.95773e-09
1.90345e-08
3.42393e-08
4.36484e-08
4.88752e-08
5.992e-08
8.56739e-08
5.42896e-08
0
0
0
0
0
0
0
1.60679e-08
5.17785e-08
4.46919e-08
2.68771e-08
1.15218e-08
0
0
0
0
0
1.05953e-08
1.96856e-08
7.21739e-09
2.21138e-09
9.93422e-10
6.61027e-09
7.24468e-09
1.20394e-08
7.35791e-09
5.72195e-09
0
0
0
0
0
5.22867e-07
7.97662e-07
1.01408e-06
1.22099e-06
1.4371e-06
1.65323e-06
1.76477e-06
1.74517e-06
1.57006e-06
1.25112e-06
8.34994e-07
3.84967e-07
0
0
0
0
0
6.70901e-07
1.75789e-06
2.98735e-06
3.58085e-06
3.28229e-06
2.58527e-06
1.93241e-06
1.41818e-06
1.11966e-06
9.43215e-07
7.68218e-07
5.36049e-07
2.89986e-07
1.22296e-07
1.04431e-07
2.27541e-07
4.23405e-07
6.51351e-07
8.9732e-07
1.14735e-06
1.35938e-06
1.44267e-06
1.27353e-06
7.01303e-07
0
0
0
0
0
8.55941e-09
1.66702e-07
1.75177e-07
1.38994e-07
8.49042e-08
0
0
0
0
9.96098e-08
4.40268e-07
4.56993e-07
3.75411e-07
2.75989e-07
1.5703e-07
0
0
0
0
0
3.27267e-08
0
0
0
0
0
0
0
0
0
2.85533e-08
1.35882e-08
1.09206e-08
2.26218e-08
3.26292e-08
3.57923e-08
3.7407e-08
3.75823e-08
3.32482e-08
1.65973e-08
0
0
0
0
0
2.43668e-06
1.67503e-06
1.19328e-06
8.26126e-07
5.45238e-07
3.28319e-07
1.59699e-07
2.44995e-08
0
0
0
0
0
0
0
0
0
0
0
0
0
0
0
0
0
0
0
0
0
0
0
0
0
0
0
0
1.69874e-08
3.97622e-08
5.68263e-08
6.79387e-08
8.10484e-08
9.36132e-08
1.04938e-07
1.4141e-07
1.89383e-07
1.98543e-07
1.77959e-07
1.64693e-07
1.54784e-07
1.191e-07
6.75537e-08
6.05897e-08
6.16514e-08
6.12226e-08
5.7908e-08
5.87064e-08
7.13197e-08
2.02145e-08
0
0
0
0
0
0
0
2.81147e-08
5.5104e-08
5.31022e-08
3.34678e-08
1.19599e-08
0
0
0
0
0
6.30028e-09
2.37401e-08
1.50762e-08
5.11278e-09
5.73446e-09
5.51701e-09
9.03624e-09
6.03711e-09
6.28e-09
0
0
0
0
0
0
0
1.06748e-08
1.58569e-07
3.03887e-07
4.22643e-07
4.97856e-07
5.27465e-07
5.03463e-07
4.27275e-07
3.21257e-07
2.39261e-07
2.70838e-07
5.14635e-07
1.00058e-06
1.48298e-06
1.67508e-06
1.77026e-06
2.12203e-06
2.45851e-06
2.31684e-06
1.96013e-06
1.71818e-06
1.78999e-06
2.07243e-06
2.28852e-06
2.10638e-06
1.36339e-06
2.87214e-07
0
0
0
0
0
0
0
0
8.75004e-10
5.29077e-07
1.12406e-06
1.50065e-06
1.34332e-06
3.71465e-07
0
0
0
0
4.57072e-09
1.82293e-07
1.62665e-07
1.14856e-07
7.88894e-09
0
0
0
0
3.96054e-07
6.37239e-07
8.07746e-07
8.97146e-07
8.90587e-07
7.67338e-07
5.51786e-07
2.96875e-07
3.98811e-08
7.60821e-07
7.03887e-07
2.39614e-07
0
0
0
0
0
0
0
1.43188e-08
5.3335e-08
4.43636e-08
4.96581e-08
5.62443e-08
5.31075e-08
4.79389e-08
4.88721e-08
5.35842e-08
5.49904e-08
3.76438e-08
0
0
0
0
1.14691e-06
2.65521e-06
1.91972e-06
1.39391e-06
1.03389e-06
7.47863e-07
5.3358e-07
3.47986e-07
1.80547e-07
2.37979e-08
0
0
0
0
0
0
0
5.63247e-09
3.9023e-09
0
0
0
0
0
0
0
0
0
0
0
0
0
0
0
0
0
0
3.80217e-08
7.05735e-08
9.9855e-08
1.20934e-07
1.40124e-07
1.71927e-07
2.11186e-07
2.51753e-07
2.87613e-07
3.19143e-07
3.21285e-07
3.07271e-07
2.98818e-07
2.80741e-07
2.02057e-07
1.14313e-07
9.07167e-08
8.00439e-08
7.23987e-08
6.19424e-08
5.12721e-08
4.00991e-08
0
0
0
0
0
0
0
8.4501e-09
4.10564e-08
5.87047e-08
5.46684e-08
3.21986e-08
6.289e-09
0
0
0
0
0
2.24095e-09
2.29851e-08
1.6774e-08
9.49913e-09
5.58821e-09
6.98827e-09
3.78823e-09
4.04978e-09
0
0
0
0
0
0
0
0
0
0
0
0
0
0
0
5.06178e-08
3.35346e-07
6.54389e-07
7.85444e-07
6.09542e-07
3.19242e-07
1.81006e-07
3.04807e-07
5.6565e-07
7.2294e-07
7.08329e-07
8.37586e-07
1.33928e-06
2.29934e-06
3.68546e-06
5.10865e-06
5.14986e-06
2.17182e-06
0
0
0
0
0
0
0
0
0
0
0
0
4.02459e-07
1.07553e-06
1.12969e-06
2.80922e-07
0
0
0
0
1.50774e-07
1.79779e-07
1.15527e-07
5.27471e-08
0
0
0
0
4.28755e-07
7.24143e-07
8.51232e-07
9.15456e-07
8.84821e-07
7.36214e-07
4.53474e-07
9.97414e-08
4.80709e-07
1.88877e-06
1.14691e-06
5.18305e-07
2.3793e-08
0
0
0
0
0
0
1.43495e-07
1.07364e-07
8.29162e-08
7.22775e-08
6.15521e-08
5.1555e-08
5.01234e-08
5.77815e-08
6.97986e-08
7.49641e-08
4.80553e-08
0
0
0
0
0
1.64379e-06
1.43223e-06
1.10826e-06
8.4004e-07
6.18641e-07
4.52011e-07
3.2705e-07
2.15102e-07
1.09246e-07
8.03437e-09
0
0
0
0
0
3.07518e-08
9.0905e-08
8.38717e-08
2.89156e-08
0
0
0
0
0
0
0
0
0
0
0
0
0
0
0
0
4.11559e-09
7.83987e-08
1.31817e-07
1.7638e-07
2.16394e-07
2.46796e-07
2.82315e-07
3.35158e-07
3.88625e-07
4.20226e-07
4.29139e-07
4.34045e-07
4.24202e-07
4.15435e-07
4.06687e-07
3.76864e-07
2.50993e-07
1.45688e-07
1.11732e-07
9.28624e-08
7.92346e-08
6.03026e-08
3.25976e-08
0
0
0
0
0
0
0
5.43276e-09
3.4384e-08
5.21016e-08
5.88831e-08
4.91487e-08
2.43234e-08
0
0
0
0
0
0
1.86632e-09
1.73133e-08
1.71858e-08
9.53615e-09
7.70245e-09
2.58693e-09
1.51148e-09
0
0
0
0
0
0
0
0
0
0
0
0
0
0
0
2.49345e-07
4.29192e-07
4.3855e-07
2.85889e-07
8.16455e-08
0
0
2.90499e-08
9.09597e-08
1.04235e-07
2.0649e-07
5.42001e-07
1.21039e-06
2.30911e-06
3.97057e-06
6.48725e-06
8.7962e-06
0
0
0
0
0
0
0
0
0
0
0
0
0
0
9.74275e-08
6.69778e-07
6.42075e-07
0
0
0
0
5.6981e-08
1.49469e-07
8.4618e-08
2.3592e-08
0
0
0
0
0
2.83271e-07
2.07048e-07
6.43257e-09
0
0
0
0
1.1291e-06
2.1989e-06
1.41608e-06
7.03374e-07
1.08274e-07
0
0
0
0
0
0
7.41942e-08
5.52286e-08
5.06545e-08
4.4819e-08
3.97172e-08
4.10302e-08
4.94212e-08
6.17401e-08
7.15142e-08
5.99766e-08
2.37918e-09
0
0
0
0
0
9.79048e-07
1.08977e-06
8.35537e-07
5.58731e-07
3.28103e-07
1.97231e-07
1.447e-07
1.15961e-07
8.51116e-08
3.82919e-08
0
0
0
0
2.17799e-08
1.55662e-07
2.27665e-07
1.9092e-07
1.00033e-07
0
0
0
0
0
0
0
0
0
0
0
0
0
0
0
0
0
1.17078e-07
2.15999e-07
2.8678e-07
3.46837e-07
3.96172e-07
4.39302e-07
4.89792e-07
5.37578e-07
5.57078e-07
5.43327e-07
5.20541e-07
5.08749e-07
5.00265e-07
4.95902e-07
4.86157e-07
4.37212e-07
2.69005e-07
1.66231e-07
1.24693e-07
9.98349e-08
7.87019e-08
4.75611e-08
0
0
0
0
0
0
0
1.566e-08
4.03143e-08
5.21335e-08
5.57792e-08
5.33304e-08
3.85991e-08
1.27192e-08
0
0
0
0
0
0
2.09847e-09
1.36217e-08
1.28129e-08
1.12674e-08
3.74014e-09
9.16847e-10
0
0
0
0
0
0
0
0
0
0
0
0
0
2.07358e-08
2.30969e-07
3.59775e-07
3.55821e-07
2.47086e-07
8.993e-08
0
0
0
0
0
0
7.29316e-08
2.32602e-07
4.53411e-07
6.47558e-07
6.22941e-07
0
0
0
0
0
0
0
0
0
0
0
0
0
0
0
0
0
2.2805e-07
4.73299e-07
2.17234e-07
0
0
0
7.03311e-08
1.20415e-07
5.4509e-08
6.89662e-10
0
0
0
0
0
0
0
0
0
0
0
0
1.61074e-06
2.01865e-06
1.59856e-06
1.05077e-06
5.80972e-07
0
0
0
0
0
0
0
0
0
0
6.8247e-09
1.98667e-08
2.97029e-08
3.16487e-08
2.05211e-08
0
0
0
0
0
0
0
8.24202e-07
1.02452e-06
7.98873e-07
4.93541e-07
2.2747e-07
7.80724e-08
4.15573e-08
5.1078e-08
4.74505e-08
2.06128e-08
0
0
0
1.49656e-09
1.46162e-07
3.28686e-07
3.92046e-07
3.10706e-07
1.80347e-07
4.34339e-08
0
0
0
0
0
0
0
0
0
0
0
0
0
0
0
0
1.32788e-07
2.77727e-07
3.87695e-07
4.70801e-07
5.37195e-07
5.89571e-07
6.34313e-07
6.61051e-07
6.57772e-07
6.24991e-07
5.76699e-07
5.43119e-07
5.39682e-07
5.43796e-07
5.43373e-07
5.31693e-07
4.46699e-07
2.68116e-07
1.75724e-07
1.28412e-07
9.86517e-08
6.59964e-08
1.64984e-08
0
0
0
0
0
0
4.11123e-08
6.05709e-08
6.40527e-08
5.85372e-08
5.22256e-08
4.42678e-08
2.54115e-08
0
0
0
0
0
0
0
4.03018e-09
7.77758e-09
1.25076e-08
6.12971e-09
3.46576e-09
0
0
0
0
0
0
0
0
0
0
0
0
7.40576e-08
2.47993e-07
3.585e-07
3.63886e-07
2.83849e-07
1.58351e-07
3.97806e-08
0
0
0
2.02708e-08
2.91759e-08
7.1553e-09
0
0
0
0
0
0
0
0
0
0
0
0
0
0
0
0
0
0
0
0
0
0
2.16549e-07
4.02489e-07
2.7728e-07
0
0
0
1.66926e-07
9.94871e-08
2.40655e-08
0
0
0
0
0
0
0
0
0
0
0
0
7.1702e-07
1.26363e-06
1.51508e-06
1.538e-06
1.57567e-06
2.37789e-06
5.01458e-06
1.17208e-06
1.07907e-07
0
0
0
0
0
0
0
0
0
0
0
0
0
0
0
0
0
0
0
1.11177e-07
4.72889e-07
4.20887e-07
2.97094e-07
2.1747e-07
1.59782e-07
1.19005e-07
9.375e-08
5.81431e-08
1.79631e-08
0
0
0
8.98444e-08
2.96911e-07
4.86121e-07
5.26904e-07
4.18152e-07
2.58687e-07
9.42617e-08
0
0
0
0
0
0
0
0
0
0
0
0
0
0
0
7.83058e-09
1.27455e-07
2.75126e-07
4.10442e-07
5.18208e-07
5.98314e-07
6.51666e-07
6.89284e-07
7.04794e-07
6.81997e-07
6.40631e-07
5.85709e-07
5.39438e-07
5.24373e-07
5.40506e-07
5.528e-07
5.55795e-07
5.33068e-07
4.04655e-07
2.56351e-07
1.7283e-07
1.2231e-07
8.48575e-08
3.67982e-08
0
0
0
0
0
5.62588e-08
9.67441e-08
1.04977e-07
9.46917e-08
7.59635e-08
5.80736e-08
4.71703e-08
3.41683e-08
8.59633e-09
0
0
0
0
0
0
0
7.8617e-10
7.71215e-09
4.65987e-09
7.21064e-09
0
0
0
0
0
0
0
0
0
0
0
1.08286e-07
2.60877e-07
3.55674e-07
3.81026e-07
3.29793e-07
2.28166e-07
1.2108e-07
4.94547e-08
2.99684e-08
4.71496e-08
7.82748e-08
1.04744e-07
9.64069e-08
1.26032e-08
0
0
0
0
0
0
0
0
0
0
0
0
0
0
0
0
0
0
4.3774e-08
0
0
0
2.84938e-07
4.08479e-07
3.08989e-07
0
0
2.09665e-07
2.30521e-07
6.96307e-08
0
0
0
0
0
0
0
0
0
0
0
2.12882e-07
5.80248e-07
6.99721e-07
8.59322e-07
1.06852e-06
1.34604e-06
1.99305e-06
3.69755e-06
4.21949e-06
1.17852e-06
2.51285e-07
6.49534e-08
1.9478e-07
1.21103e-07
0
0
0
0
0
0
0
0
0
0
0
0
0
0
0
0
0
0
1.10822e-08
4.79428e-09
1.36675e-07
2.36281e-07
2.37392e-07
1.81555e-07
1.09799e-07
5.01736e-08
7.69253e-09
0
4.40606e-08
2.17313e-07
4.80163e-07
6.41733e-07
6.34434e-07
5.0231e-07
3.35572e-07
1.59207e-07
0
0
0
0
0
0
0
0
0
0
0
0
0
0
0
4.14632e-08
1.19909e-07
2.17896e-07
3.4464e-07
4.68162e-07
5.65862e-07
6.25406e-07
6.57005e-07
6.70218e-07
6.48335e-07
6.1064e-07
5.67274e-07
5.2563e-07
5.0168e-07
5.05599e-07
5.29716e-07
5.47735e-07
5.49673e-07
4.90371e-07
3.52539e-07
2.37969e-07
1.60419e-07
1.08415e-07
5.73259e-08
0
0
0
0
8.73824e-08
2.49583e-07
2.48549e-07
2.12407e-07
1.67823e-07
1.24247e-07
8.74747e-08
6.20645e-08
4.48828e-08
1.8869e-08
0
0
0
0
0
0
0
0
1.34433e-09
0
7.48181e-09
0
1.05721e-07
0
0
0
0
0
0
0
4.37251e-08
1.56496e-07
2.51129e-07
3.30515e-07
3.64395e-07
3.40235e-07
2.69195e-07
1.77749e-07
1.03748e-07
7.1965e-08
8.20964e-08
1.19526e-07
1.70982e-07
2.19873e-07
2.25273e-07
1.40439e-07
0
0
0
0
0
0
0
0
0
0
0
0
0
0
3.70107e-07
6.42548e-07
5.61946e-07
4.18317e-07
2.71084e-07
6.47866e-08
0
8.40789e-08
3.27517e-07
3.78338e-07
3.49099e-07
2.2546e-07
0
4.70782e-07
1.87578e-07
3.00898e-08
0
0
0
0
0
0
0
0
0
0
0
1.57901e-07
4.2255e-07
4.95028e-07
6.05791e-07
8.05004e-07
1.11868e-06
1.65307e-06
2.40007e-06
2.14735e-06
8.94918e-07
2.6812e-07
2.52177e-07
4.60489e-07
3.12739e-07
8.43927e-08
0
0
0
0
0
0
0
0
0
0
0
0
0
0
1.54665e-07
1.04229e-06
1.10037e-06
6.44875e-07
3.27157e-07
3.11361e-07
3.31365e-07
2.88607e-07
2.23383e-07
1.50658e-07
8.86457e-08
4.4436e-08
4.164e-08
1.42247e-07
4.08565e-07
6.89231e-07
7.97344e-07
7.46681e-07
5.9518e-07
4.19061e-07
2.3275e-07
3.87054e-08
0
0
0
0
0
0
0
0
0
0
0
0
0
9.55704e-09
8.75796e-08
1.54407e-07
2.23936e-07
2.92932e-07
3.68304e-07
4.54922e-07
5.15314e-07
5.46888e-07
5.62259e-07
5.63239e-07
5.47296e-07
5.2689e-07
5.02068e-07
4.82656e-07
4.76903e-07
4.8786e-07
5.16234e-07
5.30112e-07
5.1025e-07
4.03928e-07
2.98799e-07
2.09452e-07
1.38391e-07
8.08721e-08
1.74637e-08
0
0
3.75672e-08
2.40579e-07
4.7891e-07
5.52373e-07
4.60876e-07
3.35653e-07
2.34318e-07
1.62833e-07
1.12332e-07
7.3655e-08
3.26864e-08
0
0
0
0
0
0
0
0
0
0
2.47651e-09
0
3.87503e-06
8.13195e-07
6.25406e-08
4.64081e-08
2.7051e-08
4.4695e-08
1.03677e-07
1.86009e-07
2.70841e-07
3.38147e-07
3.64468e-07
3.62393e-07
3.35278e-07
2.79271e-07
2.06623e-07
1.35478e-07
9.3391e-08
9.24765e-08
1.27426e-07
1.91469e-07
2.73008e-07
3.50062e-07
3.86317e-07
3.43287e-07
1.97297e-07
0
0
0
0
0
0
0
0
0
0
0
7.64717e-07
2.58632e-06
2.08537e-06
1.36369e-06
8.01384e-07
4.47741e-07
2.28792e-07
6.48856e-08
3.9844e-08
2.25814e-07
3.56437e-07
3.5589e-07
4.76156e-07
6.74397e-07
2.57469e-07
4.72291e-07
1.378e-07
1.67026e-08
0
0
0
0
0
0
0
0
0
0
0
0
2.84071e-07
3.9888e-07
4.86257e-07
6.2511e-07
8.41416e-07
1.11579e-06
1.30288e-06
1.05115e-06
4.86932e-07
1.085e-07
2.25178e-07
4.78825e-07
4.19458e-07
1.69969e-07
6.89654e-09
0
0
0
0
0
0
0
0
0
3.43382e-07
1.21968e-06
2.27812e-06
3.50955e-06
4.50461e-06
4.5051e-06
3.24026e-06
1.61675e-06
7.26327e-07
4.65525e-07
3.74746e-07
3.298e-07
2.67874e-07
1.91639e-07
1.29788e-07
8.9632e-08
1.10997e-07
2.97188e-07
6.64378e-07
9.1816e-07
9.75218e-07
8.82542e-07
7.23654e-07
5.23797e-07
3.28022e-07
1.10815e-07
0
0
0
0
0
0
0
0
0
0
0
0
0
6.44002e-08
1.84797e-07
2.37372e-07
2.8238e-07
3.34128e-07
3.78278e-07
4.11746e-07
4.5336e-07
4.86214e-07
5.02204e-07
5.09619e-07
5.08879e-07
5.041e-07
4.94554e-07
4.82299e-07
4.76782e-07
4.76801e-07
4.93049e-07
5.10232e-07
5.04631e-07
4.30373e-07
3.2724e-07
2.54628e-07
1.7863e-07
1.12117e-07
4.55087e-08
0
1.35852e-08
1.30285e-07
3.09728e-07
4.73648e-07
5.0971e-07
5.42795e-07
5.43275e-07
4.17397e-07
2.95785e-07
2.13883e-07
1.46164e-07
6.30059e-08
0
0
0
0
0
0
0
0
0
0
0
0
3.75508e-06
1.46595e-06
2.44225e-07
1.41297e-07
1.99974e-07
2.43842e-07
2.93845e-07
3.59348e-07
4.25942e-07
4.68437e-07
4.54029e-07
3.96033e-07
3.16319e-07
2.26615e-07
1.43061e-07
7.79744e-08
4.87663e-08
6.31394e-08
1.15271e-07
1.98252e-07
2.99932e-07
3.93613e-07
4.52278e-07
4.49962e-07
3.68931e-07
2.00607e-07
0
0
0
0
0
0
0
0
0
0
5.29256e-06
3.28495e-06
1.85673e-06
1.00617e-06
5.14374e-07
2.64149e-07
1.44895e-07
1.06901e-07
2.09394e-07
3.64775e-07
3.98647e-07
4.26915e-07
8.9734e-07
1.57513e-06
1.09646e-06
3.70096e-07
1.07881e-07
2.52501e-08
0
0
0
0
0
0
0
0
0
0
0
0
1.42223e-07
3.07786e-07
3.75039e-07
4.51967e-07
5.71303e-07
6.68502e-07
6.44808e-07
4.05686e-07
4.87873e-08
0
0
0
3.31579e-07
2.48555e-07
4.71196e-08
0
0
0
0
0
0
7.331e-08
4.16245e-07
1.28774e-06
2.76814e-06
4.68164e-06
6.72443e-06
8.59627e-06
9.71759e-06
8.95246e-06
5.29154e-06
1.64903e-06
3.27218e-07
1.48827e-07
2.41072e-07
3.15137e-07
2.83154e-07
2.30865e-07
1.82776e-07
1.49129e-07
2.09822e-07
5.06337e-07
9.30669e-07
1.13932e-06
1.15133e-06
1.03181e-06
8.5838e-07
6.32937e-07
4.64665e-07
2.44178e-07
3.19094e-08
0
0
0
0
0
0
0
0
0
0
0
0
2.18746e-07
4.14089e-07
4.42041e-07
4.20595e-07
4.16813e-07
4.29669e-07
4.46355e-07
4.6083e-07
4.73816e-07
4.85023e-07
4.90875e-07
4.92938e-07
4.91147e-07
4.90079e-07
4.85554e-07
4.82164e-07
4.813e-07
4.82417e-07
4.93926e-07
4.89668e-07
4.40466e-07
3.32544e-07
2.69626e-07
2.12037e-07
1.47246e-07
8.19136e-08
3.39578e-08
6.64585e-08
1.97073e-07
3.53822e-07
4.70865e-07
5.30434e-07
4.77753e-07
4.62958e-07
4.77257e-07
3.86386e-07
2.85398e-07
1.96937e-07
7.71335e-08
0
0
0
0
0
0
0
0
0
0
0
0
1.64677e-06
2.2088e-06
5.85564e-07
2.20059e-07
2.33144e-07
3.00036e-07
3.33847e-07
3.87967e-07
4.36051e-07
4.66581e-07
4.51005e-07
3.89715e-07
3.04747e-07
2.08908e-07
1.18084e-07
4.49424e-08
3.19705e-09
2.11255e-09
4.0938e-08
1.11966e-07
2.09349e-07
3.09678e-07
3.85957e-07
4.19452e-07
3.95854e-07
3.11539e-07
1.64244e-07
0
0
0
0
0
0
0
0
1.4055e-06
2.38736e-06
1.64564e-06
9.42571e-07
4.83758e-07
2.31123e-07
1.27193e-07
1.08081e-07
1.91409e-07
3.87578e-07
4.86755e-07
4.83342e-07
7.17591e-07
1.95744e-06
2.27444e-06
9.70974e-07
2.62349e-07
9.73149e-08
4.09757e-08
1.93996e-08
1.5862e-08
2.0612e-08
2.30985e-08
2.52898e-08
2.62639e-08
2.50601e-08
2.03402e-08
8.08781e-09
0
0
0
0
1.7512e-07
2.40531e-07
2.74389e-07
3.12578e-07
3.23557e-07
2.39224e-07
5.84782e-08
0
0
0
0
0
2.02442e-07
1.1681e-07
0
0
0
0
0
5.16099e-08
2.58359e-07
9.07133e-07
2.33682e-06
4.47162e-06
7.12128e-06
1.01369e-05
1.29778e-05
1.54549e-05
1.50634e-05
6.47377e-06
0
0
0
7.91293e-08
3.11788e-07
3.24171e-07
2.88214e-07
2.36604e-07
2.06317e-07
3.29241e-07
7.54068e-07
1.1745e-06
1.33814e-06
1.30787e-06
1.21382e-06
9.3099e-07
7.65436e-07
6.2669e-07
4.55439e-07
1.60936e-07
0
0
0
0
0
0
0
0
0
0
0
0
5.42407e-07
8.81073e-07
8.66309e-07
7.22961e-07
5.95304e-07
5.25085e-07
4.97148e-07
4.92987e-07
4.96423e-07
4.97224e-07
4.95877e-07
4.93176e-07
4.91097e-07
4.90307e-07
4.89883e-07
4.89646e-07
4.90305e-07
4.85374e-07
4.85814e-07
4.77007e-07
4.39553e-07
3.40278e-07
2.62547e-07
2.2188e-07
1.73278e-07
1.19695e-07
7.50928e-08
1.15399e-07
2.50142e-07
3.83804e-07
4.4632e-07
4.87947e-07
5.20063e-07
4.79961e-07
4.32291e-07
3.71791e-07
2.59261e-07
1.32246e-07
0
0
0
0
0
0
0
0
0
0
0
0
0
5.9598e-07
2.14295e-06
7.59002e-07
2.9312e-07
2.65733e-07
2.64023e-07
2.10227e-07
2.61515e-07
3.15272e-07
3.37607e-07
3.3298e-07
2.95166e-07
2.38644e-07
1.71643e-07
1.00862e-07
3.57502e-08
0
0
0
4.46679e-09
6.20516e-08
1.38591e-07
2.16524e-07
2.74459e-07
2.98388e-07
2.8374e-07
2.31319e-07
1.46232e-07
3.43203e-08
0
0
0
0
0
1.03436e-07
6.43874e-07
7.71456e-07
5.36971e-07
2.5983e-07
7.16659e-08
1.18522e-08
3.61734e-08
1.35912e-07
3.77088e-07
5.78276e-07
6.20703e-07
6.93174e-07
1.56397e-06
2.93485e-06
2.05923e-06
6.29466e-07
2.09807e-07
1.03612e-07
5.96226e-08
4.19879e-08
3.99699e-08
4.33065e-08
4.45261e-08
4.45916e-08
4.89545e-08
4.7872e-08
4.50166e-08
3.30901e-08
1.81702e-08
0
0
0
0
9.63487e-08
1.09001e-07
8.60667e-08
4.3055e-08
0
0
0
0
0
0
0
0
8.86509e-08
3.82122e-08
0
0
0
0
2.76845e-08
2.66588e-07
9.7057e-07
2.63302e-06
4.98238e-06
8.08149e-06
1.18038e-05
1.58478e-05
2.15239e-05
2.5976e-05
3.4668e-06
0
0
0
1.30575e-07
3.77214e-07
3.79676e-07
3.34892e-07
2.62509e-07
2.42881e-07
4.82111e-07
1.01702e-06
1.40955e-06
1.5236e-06
1.49222e-06
1.28912e-06
8.3599e-07
8.86218e-07
7.29425e-07
6.47218e-07
3.29547e-07
0
0
0
0
0
0
0
0
0
0
0
0
7.9629e-07
1.61858e-06
1.60848e-06
1.26254e-06
9.22441e-07
7.0146e-07
5.87363e-07
5.40976e-07
5.24239e-07
5.15868e-07
5.08833e-07
5.03475e-07