/*--------------------------------*- C++ -*----------------------------------*\
  =========                 |
  \\      /  F ield         | OpenFOAM: The Open Source CFD Toolbox
   \\    /   O peration     | Website:  https://openfoam.org
    \\  /    A nd           | Version:  7
     \\/     M anipulation  |
\*---------------------------------------------------------------------------*/
FoamFile
{
    version     2.0;
    format      ascii;
    class       surfaceScalarField;
    location    "0.092";
    object      phi_0;
}
// * * * * * * * * * * * * * * * * * * * * * * * * * * * * * * * * * * * * * //

dimensions      [0 3 -1 0 0 0 0];

internalField   nonuniform List<scalar> 
24170
(
1.41512e-06
2.13666e-07
1.28388e-06
1.31236e-07
1.13737e-06
1.46518e-07
9.93118e-07
1.44249e-07
8.64441e-07
1.28677e-07
7.54963e-07
1.09477e-07
6.57925e-07
9.70378e-08
5.67691e-07
9.02343e-08
4.84011e-07
8.36803e-08
4.0871e-07
7.53004e-08
3.42433e-07
6.62771e-08
2.8467e-07
5.77633e-08
2.34122e-07
5.0548e-08
1.89861e-07
4.42606e-08
1.49963e-07
3.98986e-08
1.12123e-07
3.78396e-08
7.84007e-08
3.37226e-08
1.94451e-08
5.89556e-08
1.67427e-06
2.69512e-07
1.66083e-06
1.44673e-07
1.62795e-06
1.79402e-07
1.57838e-06
1.93813e-07
1.52272e-06
1.84341e-07
1.46933e-06
1.62869e-07
1.41873e-06
1.47638e-07
1.36756e-06
1.41403e-07
1.31451e-06
1.36734e-07
1.26012e-06
1.29693e-07
1.20595e-06
1.20445e-07
1.15206e-06
1.1165e-07
1.09859e-06
1.04021e-07
1.04398e-06
9.88683e-08
9.88307e-07
9.55707e-08
9.322e-07
9.39474e-08
8.70672e-07
9.52505e-08
9.12965e-08
7.9882e-07
1.78363e-06
3.08528e-07
1.7456e-06
1.82708e-07
1.72884e-06
1.96161e-07
1.71949e-06
2.03166e-07
1.70961e-06
1.94218e-07
1.69864e-06
1.73841e-07
1.68853e-06
1.57745e-07
1.67929e-06
1.50639e-07
1.66899e-06
1.47032e-07
1.65554e-06
1.43147e-07
1.63786e-06
1.3812e-07
1.61612e-06
1.33395e-07
1.59063e-06
1.29511e-07
1.5622e-06
1.27296e-07
1.53082e-06
1.26956e-07
1.49692e-06
1.27842e-07
1.45844e-06
1.33734e-07
1.36037e-07
1.4137e-06
1.96408e-06
3.16315e-07
1.90855e-06
2.38235e-07
1.87863e-06
2.26085e-07
1.86407e-06
2.17728e-07
1.85759e-06
2.00696e-07
1.85437e-06
1.77063e-07
1.85209e-06
1.6002e-07
1.84949e-06
1.53239e-07
1.84502e-06
1.51508e-07
1.83787e-06
1.50295e-07
1.82817e-06
1.47821e-07
1.81737e-06
1.44198e-07
1.80638e-06
1.40503e-07
1.79601e-06
1.37663e-07
1.78567e-06
1.37294e-07
1.77447e-06
1.39045e-07
1.76269e-06
1.4551e-07
1.51494e-07
1.74723e-06
2.1116e-06
3.99978e-07
2.0497e-06
3.00137e-07
2.02055e-06
2.55238e-07
2.00896e-06
2.29314e-07
2.00516e-06
2.04497e-07
2.00354e-06
1.78687e-07
2.00213e-06
1.61429e-07
1.99941e-06
1.55956e-07
1.99361e-06
1.57308e-07
1.98444e-06
1.59463e-07
1.97319e-06
1.59078e-07
1.962e-06
1.55391e-07
1.95245e-06
1.50051e-07
1.94516e-06
1.44949e-07
1.94005e-06
1.42409e-07
1.93601e-06
1.43079e-07
1.93342e-06
1.48104e-07
1.55766e-07
1.92915e-06
2.25041e-06
3.95742e-07
2.20184e-06
3.48705e-07
2.18414e-06
2.72939e-07
2.18156e-06
2.31892e-07
2.17725e-06
2.08814e-07
2.16636e-06
1.89571e-07
2.15272e-06
1.75075e-07
2.14054e-06
1.68134e-07
2.13067e-06
1.67178e-07
2.12216e-06
1.67968e-07
2.1142e-06
1.67042e-07
2.10661e-06
1.6298e-07
2.09977e-06
1.56892e-07
2.09392e-06
1.50793e-07
2.08937e-06
1.46964e-07
2.08568e-06
1.46762e-07
2.08304e-06
1.50754e-07
1.58639e-07
2.08016e-06
2.37255e-06
4.99379e-07
2.36194e-06
3.59311e-07
2.38114e-06
2.53747e-07
2.37907e-06
2.33955e-07
2.35539e-06
2.32496e-07
2.32805e-06
2.16914e-07
2.3099e-06
1.93224e-07
2.30213e-06
1.75909e-07
2.29879e-06
1.70516e-07
2.29422e-06
1.72541e-07
2.28656e-06
1.74699e-07
2.27701e-06
1.72524e-07
2.26801e-06
1.659e-07
2.26125e-06
1.57549e-07
2.25724e-06
1.50979e-07
2.2554e-06
1.486e-07
2.25473e-06
1.51421e-07
1.5891e-07
2.25446e-06
2.58603e-06
5.27311e-07
2.56148e-06
3.83863e-07
2.54305e-06
2.72176e-07
2.53264e-06
2.4437e-07
2.52448e-06
2.40652e-07
2.5158e-06
2.25596e-07
2.50661e-06
2.02409e-07
2.49813e-06
1.84392e-07
2.49148e-06
1.77166e-07
2.48693e-06
1.77091e-07
2.48402e-06
1.77611e-07
2.48185e-06
1.74698e-07
2.47956e-06
1.68189e-07
2.47631e-06
1.60797e-07
2.47151e-06
1.55772e-07
2.4651e-06
1.55017e-07
2.45728e-06
1.59238e-07
1.67233e-07
2.44896e-06
2.7856e-06
4.12106e-07
2.78902e-06
3.80448e-07
2.75582e-06
3.05373e-07
2.7286e-06
2.71587e-07
2.71405e-06
2.55206e-07
2.70616e-06
2.33483e-07
2.70036e-06
2.08216e-07
2.69522e-06
1.8953e-07
2.69056e-06
1.81829e-07
2.68633e-06
1.81319e-07
2.68249e-06
1.81447e-07
2.67895e-06
1.78244e-07
2.67551e-06
1.71624e-07
2.67189e-06
1.64415e-07
2.66768e-06
1.59986e-07
2.66251e-06
1.60185e-07
2.65639e-06
1.65364e-07
1.74106e-07
2.64951e-06
2.94871e-06
5.27071e-07
2.94128e-06
3.87879e-07
2.92865e-06
3.18005e-07
2.90621e-06
2.94019e-07
2.88306e-06
2.78358e-07
2.86615e-06
2.50397e-07
2.85837e-06
2.15995e-07
2.85772e-06
1.90181e-07
2.8603e-06
1.79247e-07
2.86324e-06
1.78382e-07
2.86532e-06
1.7936e-07
2.86624e-06
1.7733e-07
2.8659e-06
1.71964e-07
2.86429e-06
1.66022e-07
2.86175e-06
1.62521e-07
2.85866e-06
1.63276e-07
2.85584e-06
1.68191e-07
1.76376e-07
2.85357e-06
3.17423e-06
5.25886e-07
3.13584e-06
4.2627e-07
3.10612e-06
3.47719e-07
3.09748e-06
3.02667e-07
3.10114e-06
2.74694e-07
3.10496e-06
2.46578e-07
3.10327e-06
2.17681e-07
3.09639e-06
1.9706e-07
3.08808e-06
1.87564e-07
3.08174e-06
1.84715e-07
3.07831e-06
1.82799e-07
3.07645e-06
1.79183e-07
3.07445e-06
1.73967e-07
3.07136e-06
1.69111e-07
3.06765e-06
1.66228e-07
3.06433e-06
1.66602e-07
3.06276e-06
1.69754e-07
1.75665e-07
3.06348e-06
2.86365e-06
4.5326e-07
2.89576e-06
3.94159e-07
2.87136e-06
3.72125e-07
2.84207e-06
3.31951e-07
2.83e-06
2.86764e-07
2.83082e-06
2.45757e-07
2.83351e-06
2.14993e-07
2.83236e-06
1.9821e-07
2.82771e-06
1.92214e-07
2.82173e-06
1.907e-07
2.81558e-06
1.88944e-07
2.80929e-06
1.85476e-07
2.80254e-06
1.80721e-07
2.79549e-06
1.76162e-07
2.78878e-06
1.72934e-07
2.78342e-06
1.71957e-07
2.78012e-06
1.73057e-07
1.76232e-07
2.77955e-06
3.5102e-06
5.43333e-07
3.45553e-06
4.48828e-07
3.44225e-06
3.85405e-07
3.44013e-06
3.34074e-07
3.44869e-06
2.78195e-07
3.46076e-06
2.33695e-07
3.4656e-06
2.10152e-07
3.45947e-06
2.04333e-07
3.44715e-06
2.04536e-07
3.43607e-06
2.01786e-07
3.43101e-06
1.94001e-07
3.43281e-06
1.83675e-07
3.43931e-06
1.74226e-07
3.44742e-06
1.68043e-07
3.45449e-06
1.65866e-07
3.45932e-06
1.67128e-07
3.46174e-06
1.70642e-07
1.75038e-07
3.46293e-06
4.21728e-06
5.30142e-07
4.24203e-06
4.24076e-07
4.23608e-06
3.91352e-07
4.22323e-06
3.4693e-07
4.21218e-06
2.89239e-07
4.20476e-06
2.41119e-07
4.19855e-06
2.16361e-07
4.19295e-06
2.09931e-07
4.18942e-06
2.08069e-07
4.18942e-06
2.01789e-07
4.19345e-06
1.89961e-07
4.20104e-06
1.76089e-07
4.21084e-06
1.64424e-07
4.22099e-06
1.57892e-07
4.2301e-06
1.56759e-07
4.23745e-06
1.5978e-07
4.24351e-06
1.6458e-07
1.69384e-07
4.24917e-06
5.20676e-06
5.2997e-07
5.15392e-06
4.76913e-07
5.13598e-06
4.09295e-07
5.14237e-06
3.40535e-07
5.14983e-06
2.81775e-07
5.14757e-06
2.43382e-07
5.13623e-06
2.27702e-07
5.12117e-06
2.2499e-07
5.10738e-06
2.2186e-07
5.09818e-06
2.10991e-07
5.09542e-06
1.9272e-07
5.09932e-06
1.7219e-07
5.10855e-06
1.55191e-07
5.121e-06
1.45441e-07
5.13474e-06
1.43017e-07
5.14859e-06
1.45934e-07
5.16233e-06
1.50839e-07
1.55493e-07
5.17622e-06
6.23414e-06
5.52426e-07
6.25753e-06
4.5352e-07
6.26908e-06
3.97746e-07
6.26613e-06
3.43483e-07
6.26666e-06
2.81253e-07
6.27605e-06
2.33988e-07
6.28866e-06
2.15089e-07
6.29816e-06
2.15491e-07
6.30344e-06
2.16584e-07
6.3074e-06
2.07032e-07
6.31307e-06
1.87049e-07
6.32175e-06
1.63513e-07
6.33346e-06
1.43473e-07
6.3479e-06
1.31002e-07
6.36456e-06
1.26361e-07
6.38297e-06
1.27525e-07
6.40244e-06
1.31363e-07
1.36016e-07
6.42192e-06
7.64498e-06
4.249e-07
7.65909e-06
4.3941e-07
7.65331e-06
4.03525e-07
7.64087e-06
3.55924e-07
7.62622e-06
2.95896e-07
7.61671e-06
2.43502e-07
7.6187e-06
2.13097e-07
7.63593e-06
1.98264e-07
7.66522e-06
1.87291e-07
7.6983e-06
1.7395e-07
7.72672e-06
1.58632e-07
7.74604e-06
1.44194e-07
7.75696e-06
1.32546e-07
7.7637e-06
1.24264e-07
7.77145e-06
1.18619e-07
7.78368e-06
1.15295e-07
7.80198e-06
1.13062e-07
1.12338e-07
7.82565e-06
9.19502e-06
4.32564e-07
9.2329e-06
4.0153e-07
9.28827e-06
3.48152e-07
9.32975e-06
3.14447e-07
9.34642e-06
2.79231e-07
9.34922e-06
2.40699e-07
9.35853e-06
2.03782e-07
9.38351e-06
1.73291e-07
9.41957e-06
1.51233e-07
9.4567e-06
1.36818e-07
9.48692e-06
1.28411e-07
9.50722e-06
1.23893e-07
9.51917e-06
1.20591e-07
9.52664e-06
1.16798e-07
9.53413e-06
1.11128e-07
9.54516e-06
1.04266e-07
9.56203e-06
9.61953e-08
8.90316e-08
9.58533e-06
1.12983e-05
3.84752e-07
1.13294e-05
3.70439e-07
1.13432e-05
3.34306e-07
1.13562e-05
3.01439e-07
1.13851e-05
2.50366e-07
1.14313e-05
1.94483e-07
1.1482e-05
1.53069e-07
1.15233e-05
1.32058e-07
1.15513e-05
1.23194e-07
1.15713e-05
1.16765e-07
1.15916e-05
1.08158e-07
1.16173e-05
9.8167e-08
1.16487e-05
8.92113e-08
1.16825e-05
8.29957e-08
1.17148e-05
7.88552e-08
1.17434e-05
7.56497e-08
1.17678e-05
7.18298e-08
6.68153e-08
1.179e-05
8.34236e-06
4.64806e-07
8.31419e-06
3.98611e-07
8.34903e-06
2.99466e-07
8.42013e-06
2.30342e-07
8.47721e-06
1.93285e-07
8.50544e-06
1.66249e-07
8.5164e-06
1.42109e-07
8.52683e-06
1.21629e-07
8.54522e-06
1.04807e-07
8.57223e-06
8.97556e-08
8.60501e-06
7.53736e-08
8.64015e-06
6.30316e-08
8.6745e-06
5.4856e-08
8.70553e-06
5.19654e-08
8.7313e-06
5.30862e-08
8.75113e-06
5.58243e-08
8.76516e-06
5.77963e-08
5.72555e-08
8.77472e-06
7.17021e-06
5.30724e-07
7.19573e-06
3.7309e-07
7.27355e-06
2.21641e-07
7.35476e-06
1.49132e-07
7.41512e-06
1.3293e-07
7.45112e-06
1.30252e-07
7.4728e-06
1.20426e-07
7.48981e-06
1.04616e-07
7.50549e-06
8.91316e-08
7.51878e-06
7.64664e-08
7.52831e-06
6.58376e-08
7.53473e-06
5.66133e-08
7.54039e-06
4.91997e-08
7.54809e-06
4.42664e-08
7.55955e-06
4.16273e-08
7.575e-06
4.0367e-08
7.59353e-06
3.92698e-08
3.73197e-08
7.61347e-06
6.36985e-06
5.79861e-07
6.40506e-06
3.37874e-07
6.43119e-06
1.95519e-07
6.44081e-06
1.39511e-07
6.45597e-06
1.1777e-07
6.48438e-06
1.01834e-07
6.52149e-06
8.33227e-08
6.55817e-06
6.79391e-08
6.58771e-06
5.95894e-08
6.60794e-06
5.62317e-08
6.62082e-06
5.29647e-08
6.63083e-06
4.66039e-08
6.6425e-06
3.75233e-08
6.65866e-06
2.81108e-08
6.67932e-06
2.09635e-08
6.7027e-06
1.6988e-08
6.72588e-06
1.6088e-08
1.71532e-08
6.74605e-06
5.52644e-06
4.27908e-07
5.58842e-06
2.759e-07
5.61586e-06
1.68076e-07
5.62108e-06
1.34284e-07
5.62167e-06
1.17181e-07
5.6298e-06
9.37076e-08
5.64512e-06
6.80082e-08
5.66477e-06
4.82883e-08
5.68888e-06
3.54728e-08
5.71919e-06
2.59217e-08
5.75559e-06
1.65702e-08
5.79477e-06
7.42214e-09
5.83152e-06
7.75083e-10
5.86173e-06
-2.10554e-09
5.8826e-06
9.69225e-11
5.89454e-06
5.04851e-09
5.89897e-06
1.16533e-08
1.72181e-08
5.89891e-06
4.82118e-06
3.23445e-07
4.8781e-06
2.18979e-07
4.9114e-06
1.34775e-07
4.94034e-06
1.05347e-07
4.97161e-06
8.5906e-08
5.00226e-06
6.30641e-08
5.02636e-06
4.3909e-08
5.04465e-06
2.99917e-08
5.06282e-06
1.73064e-08
5.08572e-06
3.01995e-09
5.11208e-06
-9.78381e-09
5.1379e-06
-1.84038e-08
5.15903e-06
-2.03505e-08
5.1731e-06
-1.61767e-08
5.18147e-06
-8.27048e-09
5.18632e-06
1.93757e-10
5.19056e-06
7.41753e-09
1.11752e-08
5.1966e-06
4.23595e-06
3.97105e-07
4.2616e-06
1.9333e-07
4.28495e-06
1.11427e-07
4.30646e-06
8.38336e-08
4.32528e-06
6.70869e-08
4.34016e-06
4.8178e-08
4.35552e-06
2.85566e-08
4.37555e-06
9.95952e-09
4.40068e-06
-7.82708e-09
4.42693e-06
-2.32291e-08
4.45073e-06
-3.35827e-08
4.46944e-06
-3.71128e-08
4.48316e-06
-3.40668e-08
4.49364e-06
-2.66593e-08
4.50327e-06
-1.79052e-08
4.51389e-06
-1.04238e-08
4.5267e-06
-5.39313e-09
-3.36166e-09
4.54124e-06
3.73556e-06
2.87888e-07
3.76757e-06
1.61319e-07
3.78404e-06
9.4951e-08
3.81139e-06
5.6487e-08
3.84771e-06
3.07656e-08
3.88266e-06
1.32287e-08
3.91082e-06
3.93386e-10
3.93005e-06
-9.26559e-09
3.94146e-06
-1.92433e-08
3.94659e-06
-2.83529e-08
3.94826e-06
-3.52544e-08
3.94986e-06
-3.87141e-08
3.95386e-06
-3.80657e-08
3.96116e-06
-3.39612e-08
3.97141e-06
-2.81542e-08
3.98354e-06
-2.25555e-08
3.99655e-06
-1.83981e-08
-1.64108e-08
4.0096e-06
3.17964e-06
3.18069e-07
3.25582e-06
8.5135e-08
3.30635e-06
4.44197e-08
3.34702e-06
1.58203e-08
3.38429e-06
-6.50868e-09
3.41551e-06
-1.79879e-08
3.43784e-06
-2.19378e-08
3.45287e-06
-2.42991e-08
3.46151e-06
-2.78835e-08
3.46534e-06
-3.21755e-08
3.46633e-06
-3.62425e-08
3.46693e-06
-3.93148e-08
3.46925e-06
-4.0386e-08
3.47433e-06
-3.90485e-08
3.48223e-06
-3.60553e-08
3.49245e-06
-3.27758e-08
3.50429e-06
-3.02329e-08
-2.91976e-08
3.51708e-06
2.81393e-06
1.80463e-07
2.8967e-06
2.35872e-09
2.94126e-06
-1.3739e-10
2.97279e-06
-1.5715e-08
2.99104e-06
-2.47523e-08
3.00024e-06
-2.71909e-08
3.00915e-06
-3.08515e-08
3.02108e-06
-3.62248e-08
3.03468e-06
-4.14834e-08
3.04818e-06
-4.56801e-08
3.06093e-06
-4.89912e-08
3.07292e-06
-5.13035e-08
3.0841e-06
-5.15676e-08
3.09421e-06
-4.91518e-08
3.10292e-06
-4.47644e-08
3.11018e-06
-4.00415e-08
3.1162e-06
-3.62527e-08
-3.44733e-08
3.12148e-06
2.48579e-06
5.31895e-08
2.52985e-06
-4.17029e-08
2.56386e-06
-3.41501e-08
2.59867e-06
-5.0525e-08
2.62597e-06
-5.20474e-08
2.64672e-06
-4.79412e-08
2.66198e-06
-4.61132e-08
2.67155e-06
-4.57935e-08
2.67618e-06
-4.61184e-08
2.67767e-06
-4.71631e-08
2.67708e-06
-4.8404e-08
2.67427e-06
-4.84963e-08
2.66888e-06
-4.61767e-08
2.66123e-06
-4.15046e-08
2.65234e-06
-3.58702e-08
2.64327e-06
-3.0977e-08
2.63492e-06
-2.78938e-08
-2.69357e-08
2.62738e-06
2.15698e-06
2.11528e-06
2.08112e-06
2.0306e-06
1.97855e-06
1.93061e-06
1.8845e-06
1.8387e-06
1.79259e-06
1.74542e-06
1.69702e-06
1.64852e-06
1.60235e-06
1.56084e-06
1.52497e-06
1.49399e-06
1.4661e-06
1.43916e-06
-1.369e-08
1.369e-08
1.53705e-08
-2.90605e-08
9.13666e-08
-7.59961e-08
1.88902e-07
-9.75356e-08
2.80985e-07
-9.20828e-08
3.48882e-07
-6.78969e-08
3.82473e-07
-3.35907e-08
3.77876e-07
4.59674e-09
3.39076e-07
3.88e-08
2.7071e-07
6.8366e-08
1.80615e-07
9.00947e-08
7.83301e-08
1.02285e-07
-2.65005e-08
1.04831e-07
-1.27278e-07
1.00777e-07
-2.21847e-07
9.45692e-08
-3.12288e-07
9.04412e-08
-3.99992e-07
8.77039e-08
-4.79141e-07
7.91489e-08
-5.44143e-07
6.50023e-08
-5.95801e-07
5.16583e-08
-6.4075e-07
4.49483e-08
-6.84666e-07
4.39165e-08
-7.27e-07
4.23333e-08
-7.66489e-07
3.94898e-08
-8.07503e-07
4.10141e-08
-8.62839e-07
5.53353e-08
-9.41078e-07
7.82392e-08
-1.04116e-06
1.00079e-07
-1.16017e-06
1.19014e-07
-1.29694e-06
1.36765e-07
-1.45033e-06
1.53399e-07
-1.61791e-06
1.67576e-07
-1.79662e-06
1.78705e-07
-1.98428e-06
1.87664e-07
-2.17634e-06
1.92063e-07
-2.3548e-06
1.78461e-07
-2.48263e-06
1.27823e-07
-2.52139e-06
3.87669e-08
-2.46929e-06
-5.21061e-08
-2.36879e-06
-1.00493e-07
-2.26109e-06
-1.07704e-07
-2.15567e-06
-1.05426e-07
-2.03791e-06
-1.17754e-07
-1.89851e-06
-1.39403e-07
-1.74954e-06
-1.48967e-07
-1.59836e-06
-1.5118e-07
-1.42972e-06
-1.68641e-07
-1.23186e-06
-1.9786e-07
-1.00126e-06
-2.30596e-07
-7.35966e-07
-2.65298e-07
-4.42464e-07
-2.93501e-07
-1.30344e-07
-3.1212e-07
1.88941e-07
-3.19286e-07
5.03352e-07
-3.14411e-07
8.19549e-07
-3.16197e-07
1.13826e-06
-3.18709e-07
1.42088e-06
-2.82621e-07
1.61486e-06
-1.93982e-07
1.68049e-06
-6.56321e-08
1.61146e-06
6.90312e-08
1.432e-06
1.7946e-07
1.18021e-06
2.51788e-07
8.92621e-07
2.87592e-07
5.91549e-07
3.01072e-07
2.80533e-07
3.11016e-07
-1.98322e-08
3.00365e-07
-2.55117e-07
2.35285e-07
-3.79794e-07
1.24677e-07
-3.64119e-07
-1.5675e-08
-2.37787e-07
-1.26332e-07
-8.67403e-08
-1.51047e-07
7.06284e-09
-9.38032e-08
9.57775e-08
-8.87147e-08
2.51751e-07
-1.55974e-07
4.41299e-07
-1.89548e-07
5.82786e-07
-1.41487e-07
7.39706e-07
-1.5692e-07
9.37275e-07
-1.97569e-07
9.7414e-07
-3.68641e-08
7.19431e-07
2.54709e-07
2.18039e-07
5.01392e-07
-3.59602e-07
5.77641e-07
-9.30051e-07
5.70449e-07
-1.47074e-06
5.40691e-07
-1.9692e-06
4.98459e-07
-2.42337e-06
4.54168e-07
-2.83463e-06
4.11257e-07
-3.20529e-06
3.70664e-07
-3.53748e-06
3.32186e-07
-3.8326e-06
2.95123e-07
-4.0914e-06
2.58799e-07
-4.31401e-06
2.2261e-07
-4.50014e-06
1.86135e-07
-4.64936e-06
1.49218e-07
-4.7613e-06
1.11937e-07
-4.83609e-06
7.47931e-08
-4.87468e-06
3.85932e-08
-4.87819e-06
3.50965e-09
-4.8508e-06
-2.73907e-08
-4.79512e-06
-5.56866e-08
-4.71389e-06
-8.12232e-08
-4.61024e-06
-1.03653e-07
-4.48714e-06
-1.23103e-07
-4.34727e-06
-1.3987e-07
-4.19291e-06
-1.54356e-07
-4.02584e-06
-1.67076e-07
-3.84727e-06
-1.78563e-07
-3.65797e-06
-1.89301e-07
-3.45831e-06
-1.9966e-07
-3.24848e-06
-2.09828e-07
-3.02869e-06
-2.19795e-07
-2.79936e-06
-2.29327e-07
-2.56138e-06
-2.37983e-07
-2.31618e-06
-2.45204e-07
-2.06576e-06
-2.50417e-07
-1.81264e-06
-2.53117e-07
-1.55965e-06
-2.52993e-07
-1.3096e-06
-2.50047e-07
-1.06519e-06
-2.44415e-07
-8.28789e-07
-2.364e-07
-6.0234e-07
-2.26449e-07
-3.87152e-07
-2.15188e-07
-1.84493e-07
-2.02659e-07
4.78748e-09
-1.8928e-07
1.82674e-07
-1.77887e-07
3.47636e-07
-1.64962e-07
5.00397e-07
-1.52762e-07
6.41686e-07
-1.41288e-07
7.7248e-07
-1.30795e-07
8.93922e-07
-1.21442e-07
1.00719e-06
-1.13268e-07
1.11333e-06
-1.06138e-07
1.21302e-06
-9.96865e-08
1.30628e-06
-9.32619e-08
1.3923e-06
-8.60228e-08
1.46962e-06
-7.73164e-08
1.53622e-06
-6.66065e-08
1.58941e-06
-5.31899e-08
1.62685e-06
-3.74388e-08
1.64727e-06
-2.04135e-08
1.64909e-06
-1.82595e-09
1.63173e-06
1.73568e-08
1.59695e-06
3.47817e-08
1.54717e-06
4.97833e-08
1.484e-06
6.31722e-08
1.40843e-06
7.55632e-08
1.32199e-06
8.64455e-08
1.22801e-06
9.39739e-08
1.13216e-06
9.58535e-08
1.04115e-06
9.10147e-08
9.60913e-07
8.02338e-08
8.94857e-07
6.6056e-08
8.43473e-07
5.13838e-08
8.05173e-07
3.83001e-08
7.77399e-07
2.77733e-08
7.57521e-07
1.9878e-08
7.43322e-07
1.41993e-08
7.33135e-07
1.01867e-08
7.25761e-07
7.37402e-09
7.20355e-07
5.40623e-09
7.16301e-07
4.05379e-09
7.13122e-07
3.17931e-09
7.10425e-07
2.69697e-09
7.07914e-07
2.51121e-09
7.05329e-07
2.58489e-09
7.02501e-07
2.82817e-09
6.99217e-07
3.28352e-09
6.95378e-07
3.8395e-09
6.90667e-07
4.71094e-09
6.8505e-07
5.61737e-09
6.77849e-07
7.20105e-09
6.6926e-07
8.58898e-09
6.57659e-07
1.16001e-08
6.44219e-07
1.34407e-08
6.24607e-07
1.96122e-08
6.03665e-07
2.09414e-08
5.68723e-07
3.49423e-08
5.38129e-07
3.05936e-08
4.71659e-07
6.64706e-08
4.04811e-08
4.31178e-07
6.60905e-09
7.08098e-09
1.29494e-07
-1.51946e-07
3.1409e-07
-2.60591e-07
5.04496e-07
-2.87942e-07
6.70682e-07
-2.58269e-07
7.99784e-07
-1.96999e-07
8.85994e-07
-1.19801e-07
9.26944e-07
-3.63532e-08
9.21272e-07
4.44719e-08
8.71897e-07
1.17741e-07
7.83439e-07
1.78553e-07
6.63619e-07
2.22105e-07
5.20931e-07
2.47519e-07
3.66683e-07
2.55025e-07
2.12959e-07
2.48294e-07
7.11723e-08
2.32228e-07
-4.41309e-08
2.03007e-07
-1.33805e-07
1.68823e-07
-2.14515e-07
1.45712e-07
-2.91152e-07
1.28296e-07
-3.47929e-07
1.01725e-07
-3.76258e-07
7.22456e-08
-4.03821e-07
6.98964e-08
-4.65962e-07
1.01631e-07
-5.70232e-07
1.45284e-07
-7.14141e-07
1.99245e-07
-8.95247e-07
2.59345e-07
-1.10483e-06
3.09659e-07
-1.32997e-06
3.44157e-07
-1.55818e-06
3.64974e-07
-1.77867e-06
3.7389e-07
-1.98135e-06
3.70254e-07
-2.15452e-06
3.51882e-07
-2.284e-06
3.17143e-07
-2.35825e-06
2.66305e-07
-2.38035e-06
2.00565e-07
-2.37625e-06
1.23719e-07
-2.38442e-06
4.69411e-08
-2.41619e-06
-2.03382e-08
-2.43549e-06
-8.11907e-08
-2.40679e-06
-1.36408e-07
-2.32258e-06
-1.89632e-07
-2.20202e-06
-2.38309e-07
-2.06081e-06
-2.8062e-07
-1.89357e-06
-3.16206e-07
-1.69532e-06
-3.49429e-07
-1.47335e-06
-3.90615e-07
-1.23124e-06
-4.39966e-07
-9.70141e-07
-4.91695e-07
-6.93492e-07
-5.41947e-07
-4.02315e-07
-5.84679e-07
-9.70275e-08
-6.17407e-07
2.17905e-07
-6.34219e-07
5.29914e-07
-6.26419e-07
8.66143e-07
-6.52425e-07
1.25164e-06
-7.04208e-07
1.627e-06
-6.57975e-07
1.92472e-06
-4.91702e-07
2.10352e-06
-2.44435e-07
2.1388e-06
3.37529e-08
2.03999e-06
2.78268e-07
1.84822e-06
4.43556e-07
1.59098e-06
5.44828e-07
1.2533e-06
6.38753e-07
8.45143e-07
7.19176e-07
4.32508e-07
7.13001e-07
8.04431e-08
5.8735e-07
-1.71533e-07
3.76653e-07
-2.85189e-07
9.79811e-08
-1.90469e-07
-2.21053e-07
7.77303e-08
-4.19246e-07
3.41238e-07
-3.57311e-07
5.23111e-07
-2.70588e-07
7.38736e-07
-3.71598e-07
1.03342e-06
-4.84235e-07
1.33101e-06
-4.39072e-07
1.3832e-06
-2.09118e-07
9.55378e-07
2.30258e-07
1.80723e-07
7.37792e-07
-6.01908e-07
1.03734e-06
-1.23374e-06
1.13323e-06
-1.76849e-06
1.11239e-06
-2.23786e-06
1.03981e-06
-2.64866e-06
9.51495e-07
-3.01235e-06
8.62147e-07
-3.33662e-06
7.78432e-07
-3.6273e-06
7.01939e-07
-3.88836e-06
6.31724e-07
-4.12203e-06
5.65859e-07
-4.32921e-06
5.02298e-07
-4.51025e-06
4.39843e-07
-4.66476e-06
3.77123e-07
-4.79179e-06
3.13158e-07
-4.89037e-06
2.478e-07
-4.95986e-06
1.81426e-07
-4.99993e-06
1.14866e-07
-5.01067e-06
4.93337e-08
-4.99332e-06
-1.38424e-08
-4.94734e-06
-7.33722e-08
-4.87456e-06
-1.28462e-07
-4.77764e-06
-1.78146e-07
-4.65933e-06
-2.21959e-07
-4.52252e-06
-2.59914e-07
-4.36988e-06
-2.92513e-07
-4.20363e-06
-3.20606e-07
-4.02546e-06
-3.45248e-07
-3.83647e-06
-3.67549e-07
-3.63726e-06
-3.88508e-07
-3.42806e-06
-4.0886e-07
-3.20892e-06
-4.28972e-07
-2.97991e-06
-4.48801e-07
-2.74139e-06
-4.67854e-07
-2.49416e-06
-4.85207e-07
-2.23969e-06
-4.99675e-07
-1.98005e-06
-5.10053e-07
-1.71785e-06
-5.15323e-07
-1.45602e-06
-5.14824e-07
-1.19746e-06
-5.08607e-07
-9.449e-07
-4.96972e-07
-7.00689e-07
-4.8061e-07
-4.66758e-07
-4.6038e-07
-2.4421e-07
-4.37736e-07
-3.47959e-08
-4.12074e-07
1.63396e-07
-3.87473e-07
3.48005e-07
-3.62495e-07
5.20129e-07
-3.37086e-07
6.80096e-07
-3.12729e-07
8.28725e-07
-2.89917e-07
9.67085e-07
-2.69154e-07
1.09645e-06
-2.50805e-07
1.21818e-06
-2.35e-07
1.33357e-06
-2.21534e-07
1.44364e-06
-2.09755e-07
1.54892e-06
-1.98535e-07
1.64942e-06
-1.86523e-07
1.74454e-06
-1.72438e-07
1.83296e-06
-1.55031e-07
1.91316e-06
-1.33386e-07
1.98306e-06
-1.07336e-07
2.04007e-06
-7.74233e-08
2.08313e-06
-4.48881e-08
2.11196e-06
-1.14711e-08
2.12582e-06
2.09156e-08
2.12564e-06
4.99599e-08
2.11377e-06
7.50444e-08
2.09321e-06
9.61259e-08
2.06655e-06
1.13101e-07
2.03554e-06
1.24991e-07
2.00145e-06
1.29939e-07
1.96531e-06
1.2716e-07
1.92864e-06
1.16896e-07
1.89307e-06
1.01633e-07
1.85978e-06
8.46754e-08
1.82932e-06
6.87587e-08
1.80167e-06
5.54179e-08
1.77656e-06
4.49945e-08
1.7537e-06
3.70534e-08
1.733e-06
3.08884e-08
1.71448e-06
2.58926e-08
1.69818e-06
2.17118e-08
1.684e-06
1.82252e-08
1.67176e-06
1.54226e-08
1.66115e-06
1.33062e-08
1.65185e-06
1.1815e-08
1.64352e-06
1.09177e-08
1.63592e-06
1.04207e-08
1.62884e-06
1.03632e-08
1.62216e-06
1.05198e-08
1.61562e-06
1.12506e-08
1.60922e-06
1.20253e-08
1.60238e-06
1.40374e-08
1.59533e-06
1.56358e-08
1.5867e-06
2.02293e-08
1.57747e-06
2.26785e-08
1.56443e-06
3.26439e-08
1.5505e-06
3.48755e-08
1.52895e-06
5.64911e-08
1.50564e-06
5.3902e-08
1.47059e-06
1.01527e-07
8.43515e-08
1.42672e-06
8.95654e-08
-8.24845e-08
3.37308e-07
-3.99688e-07
5.94187e-07
-5.17471e-07
8.11526e-07
-5.0528e-07
9.81704e-07
-4.28446e-07
1.1097e-06
-3.24998e-07
1.19953e-06
-2.09629e-07
1.2539e-06
-9.07188e-08
1.27189e-06
2.6476e-08
1.24859e-06
1.41042e-07
1.18617e-06
2.40971e-07
1.08616e-06
3.22119e-07
9.56605e-07
3.77073e-07
8.09249e-07
4.02381e-07
6.55807e-07
4.01735e-07
5.06385e-07
3.8165e-07
3.63735e-07
3.45657e-07
2.31306e-07
3.01252e-07
1.10726e-07
2.66293e-07
1.18011e-09
2.37841e-07
-9.97214e-08
2.02626e-07
-2.23155e-07
1.9568e-07
-4.01836e-07
2.48577e-07
-6.38161e-07
3.37956e-07
-9.14819e-07
4.21941e-07
-1.2057e-06
4.90124e-07
-1.49158e-06
5.45225e-07
-1.76542e-06
5.83498e-07
-2.02508e-06
6.03821e-07
-2.26818e-06
6.08075e-07
-2.49124e-06
5.96948e-07
-2.69015e-06
5.6916e-07
-2.8604e-06
5.22137e-07
-2.99791e-06
4.54656e-07
-3.10046e-06
3.68855e-07
-3.16952e-06
2.6962e-07
-3.21035e-06
1.6455e-07
-3.22413e-06
6.07187e-08
-3.20913e-06
-3.53324e-08
-3.16633e-06
-1.23996e-07
-3.08823e-06
-2.14504e-07
-2.97419e-06
-3.03673e-07
-2.825e-06
-3.875e-07
-2.64298e-06
-4.62644e-07
-2.43095e-06
-5.28228e-07
-2.19245e-06
-5.87938e-07
-1.93702e-06
-6.46044e-07
-1.67331e-06
-7.03671e-07
-1.40432e-06
-7.60687e-07
-1.12934e-06
-8.1693e-07
-8.42516e-07
-8.71499e-07
-5.37256e-07
-9.22667e-07
-2.07069e-07
-9.64405e-07
1.44874e-07
-9.78362e-07
5.50619e-07
-1.05817e-06
1.05268e-06
-1.20627e-06
1.56247e-06
-1.16777e-06
2.00595e-06
-9.35177e-07
2.36165e-06
-6.0014e-07
2.592e-06
-1.96596e-07
2.64044e-06
2.29831e-07
2.49972e-06
5.84277e-07
2.23465e-06
8.09901e-07
1.92707e-06
9.46329e-07
1.61841e-06
1.02783e-06
1.31135e-06
1.02006e-06
1.00025e-06
8.98457e-07
6.83402e-07
6.93498e-07
3.96164e-07
3.85219e-07
2.15209e-07
-4.00981e-08
2.01251e-07
-4.05288e-07
3.8403e-07
-5.4009e-07
6.8992e-07
-5.76478e-07
1.05655e-06
-7.38227e-07
1.34238e-06
-7.70067e-07
1.28041e-06
-3.77096e-07
7.15244e-07
3.56044e-07
-1.37298e-07
1.0828e-06
-8.79741e-07
1.48023e-06
-1.42416e-06
1.58176e-06
-1.83773e-06
1.5468e-06
-2.17438e-06
1.44903e-06
-2.46773e-06
1.33317e-06
-2.73591e-06
1.21967e-06
-2.99023e-06
1.11646e-06
-3.23569e-06
1.0239e-06
-3.47322e-06
9.39466e-07
-3.70125e-06
8.59755e-07
-3.91688e-06
7.81487e-07
-4.11677e-06
7.02188e-07
-4.29711e-06
6.20185e-07
-4.45436e-06
5.3438e-07
-4.58545e-06
4.44247e-07
-4.68774e-06
3.50086e-07
-4.75928e-06
2.52968e-07
-4.79892e-06
1.54506e-07
-4.80614e-06
5.65518e-08
-4.78204e-06
-3.79447e-08
-4.72838e-06
-1.27034e-07
-4.6476e-06
-2.09236e-07
-4.54276e-06
-2.82988e-07
-4.41711e-06
-3.47605e-07
-4.27385e-06
-4.03178e-07
-4.11583e-06
-4.50528e-07
-3.94539e-06
-4.9105e-07
-3.76418e-06
-5.26461e-07
-3.57318e-06
-5.58548e-07
-3.37277e-06
-5.88911e-07
-3.16293e-06
-6.18706e-07
-2.94343e-06
-6.48471e-07
-2.71413e-06
-6.78099e-07
-2.4752e-06
-7.06783e-07
-2.22741e-06
-7.32997e-07
-1.9723e-06
-7.54784e-07
-1.71221e-06
-7.70147e-07
-1.45002e-06
-7.77515e-07
-1.18905e-06
-7.75793e-07
-9.32464e-07
-7.65193e-07
-6.83196e-07
-7.4624e-07
-4.43509e-07
-7.20297e-07
-2.15474e-07
-6.88415e-07
-5.29332e-10
-6.5268e-07
2.03357e-07
-6.1596e-07
3.9303e-07
-5.77146e-07
5.68904e-07
-5.38369e-07
7.31765e-07
-4.99947e-07
8.82144e-07
-4.63107e-07
1.02095e-06
-4.28728e-07
1.14939e-06
-3.97586e-07
1.26885e-06
-3.70267e-07
1.38084e-06
-3.46992e-07
1.48673e-06
-3.27423e-07
1.58747e-06
-3.10496e-07
1.68332e-06
-2.94385e-07
1.77359e-06
-2.76794e-07
1.85682e-06
-2.55669e-07
1.93175e-06
-2.29959e-07
1.99833e-06
-1.99967e-07
2.05759e-06
-1.66592e-07
2.11037e-06
-1.30206e-07
2.15619e-06
-9.07128e-08
2.19343e-06
-4.87109e-08
2.22002e-06
-5.67113e-09
2.23473e-06
3.52511e-08
2.23758e-06
7.21959e-08
2.23097e-06
1.02733e-07
2.21864e-06
1.25432e-07
2.20407e-06
1.39566e-07
2.1891e-06
1.44901e-07
2.17436e-06
1.41902e-07
2.1598e-06
1.31456e-07
2.14535e-06
1.16085e-07
2.13118e-06
9.88447e-08
2.11754e-06
8.23944e-08
2.10455e-06
6.84112e-08
2.0921e-06
5.74488e-08
2.07991e-06
4.9235e-08
2.06769e-06
4.31154e-08
2.05516e-06
3.84188e-08
2.04224e-06
3.46302e-08
2.02903e-06
3.1437e-08
2.01579e-06
2.86613e-08
2.00286e-06
2.62386e-08
1.99057e-06
2.41055e-08
1.97917e-06
2.23156e-08
1.96882e-06
2.07744e-08
1.95951e-06
1.96698e-08
1.95124e-06
1.87899e-08
1.94383e-06
1.86584e-08
1.93721e-06
1.86526e-08
1.93105e-06
2.01953e-08
1.92526e-06
2.14266e-08
1.91944e-06
2.60485e-08
1.91337e-06
2.87433e-08
1.90692e-06
3.91004e-08
1.89905e-06
4.27456e-08
1.89134e-06
6.42021e-08
1.87873e-06
6.65076e-08
1.87082e-06
1.09434e-07
1.09124e-07
1.84605e-06
2.90443e-07
-3.72927e-07
5.95804e-07
-7.05049e-07
8.13002e-07
-7.34669e-07
9.60096e-07
-6.52375e-07
1.06398e-06
-5.3233e-07
1.14222e-06
-4.03241e-07
1.19697e-06
-2.6438e-07
1.2273e-06
-1.21046e-07
1.23266e-06
2.112e-08
1.21473e-06
1.58965e-07
1.17265e-06
2.83054e-07
1.10161e-06
3.93156e-07
1.00074e-06
4.77951e-07
8.75889e-07
5.27228e-07
7.35078e-07
5.42547e-07
5.79054e-07
5.37674e-07
4.09255e-07
5.15456e-07
2.41223e-07
4.69283e-07
8.00415e-08
4.27475e-07
-9.55516e-08
4.13434e-07
-3.29499e-07
4.36574e-07
-6.44165e-07
5.10345e-07
-1.00348e-06
6.0789e-07
-1.36038e-06
6.94859e-07
-1.70158e-06
7.63137e-07
-2.02408e-06
8.12627e-07
-2.3222e-06
8.43344e-07
-2.5929e-06
8.54201e-07
-2.83432e-06
8.45241e-07
-3.04469e-06
8.1844e-07
-3.22247e-06
7.74734e-07
-3.36725e-06
7.13942e-07
-3.4806e-06
6.35479e-07
-3.56575e-06
5.39807e-07
-3.62579e-06
4.28899e-07
-3.66136e-06
3.05187e-07
-3.67021e-06
1.73404e-07
-3.65069e-06
4.11962e-08
-3.59179e-06
-9.42365e-08
-3.49086e-06
-2.24924e-07
-3.35834e-06
-3.47024e-07
-3.20007e-06
-4.61943e-07
-3.01844e-06
-5.69133e-07
-2.81507e-06
-6.66011e-07
-2.59184e-06
-7.51453e-07
-2.35179e-06
-8.27988e-07
-2.09903e-06
-8.98804e-07
-1.83624e-06
-9.66469e-07
-1.5641e-06
-1.03282e-06
-1.28254e-06
-1.09849e-06
-9.89325e-07
-1.16471e-06
-6.78617e-07
-1.23338e-06
-3.38202e-07
-1.30482e-06
4.97621e-08
-1.36633e-06
4.86373e-07
-1.49478e-06
9.89981e-07
-1.70988e-06
1.4792e-06
-1.65699e-06
1.88226e-06
-1.33824e-06
2.23082e-06
-9.48698e-07
2.55718e-06
-5.22964e-07
2.85203e-06
-6.50132e-08
3.01474e-06
4.21564e-07
2.98464e-06
8.4e-07
2.78656e-06
1.14441e-06
2.50038e-06
1.31402e-06
2.19023e-06
1.3302e-06
1.88558e-06
1.20311e-06
1.62358e-06
9.55497e-07
1.41225e-06
5.96557e-07
1.21786e-06
1.54284e-07
1.0785e-06
-2.6592e-07
1.06481e-06
-5.26407e-07
1.18777e-06
-6.99431e-07
1.30175e-06
-8.52215e-07
1.13594e-06
-6.0425e-07
5.51402e-07
2.07439e-07
-2.31758e-07
1.1392e-06
-8.97081e-07
1.74812e-06
-1.35161e-06
1.93476e-06
-1.67214e-06
1.90228e-06
-1.92397e-06
1.79864e-06
-2.14655e-06
1.67161e-06
-2.3641e-06
1.55072e-06
-2.58751e-06
1.44308e-06
-2.81963e-06
1.34858e-06
-3.0578e-06
1.26207e-06
-3.2963e-06
1.17797e-06
-3.52864e-06
1.0921e-06
-3.74886e-06
1.00171e-06
-3.95193e-06
9.0525e-07
-4.13338e-06
8.01638e-07
-4.28932e-06
6.90317e-07
-4.41647e-06
5.71402e-07
-4.51221e-06
4.45831e-07
-4.57466e-06
3.15417e-07
-4.60288e-06
1.82719e-07
-4.59662e-06
5.02931e-08
-4.5581e-06
-7.64632e-08
-4.48921e-06
-1.95924e-07
-4.39288e-06
-3.05564e-07
-4.2728e-06
-4.03068e-07
-4.13283e-06
-4.87579e-07
-3.97663e-06
-5.59379e-07
-3.80736e-06
-6.19794e-07
-3.62747e-06
-6.70943e-07
-3.43854e-06
-7.15392e-07
-3.24132e-06
-7.5577e-07
-3.03582e-06
-7.94403e-07
-2.8216e-06
-8.32932e-07
-2.59798e-06
-8.72091e-07
-2.36438e-06
-9.11692e-07
-2.12067e-06
-9.50497e-07
-1.86752e-06
-9.86142e-07
-1.60663e-06
-1.01568e-06
-1.34082e-06
-1.03596e-06
-1.07348e-06
-1.04485e-06
-8.08638e-07
-1.04064e-06
-5.50035e-07
-1.0238e-06
-3.01191e-07
-9.95083e-07
-6.45433e-08
-9.56945e-07
1.59139e-07
-9.12097e-07
3.68482e-07
-8.62023e-07
5.61936e-07
-8.09413e-07
7.39961e-07
-7.55171e-07
9.02554e-07
-7.00962e-07
1.05048e-06
-6.47873e-07
1.18458e-06
-5.97204e-07
1.30606e-06
-5.5021e-07
1.41655e-06
-5.08082e-07
1.51811e-06
-4.71822e-07
1.61309e-06
-4.4197e-07