/*--------------------------------*- C++ -*----------------------------------*\
  =========                 |
  \\      /  F ield         | OpenFOAM: The Open Source CFD Toolbox
   \\    /   O peration     | Website:  https://openfoam.org
    \\  /    A nd           | Version:  7
     \\/     M anipulation  |
\*---------------------------------------------------------------------------*/
FoamFile
{
    version     2.0;
    format      ascii;
    class       volVectorField;
    location    "0.092";
    object      UMean;
}
// * * * * * * * * * * * * * * * * * * * * * * * * * * * * * * * * * * * * * //

dimensions      [0 1 -1 0 0 0 0];

internalField   nonuniform List<vector> 
12225
(
(4.77033 0.164283 0)
(4.17205 0.111531 0)
(3.70746 0.0984056 0)
(3.3346 0.0819925 0)
(2.99793 0.0689427 0)
(2.68261 0.0594127 0)
(2.38955 0.051251 0)
(2.12326 0.0434648 0)
(1.88736 0.0353626 0)
(1.68285 0.0278649 0)
(1.51065 0.0199545 0)
(1.36813 0.0142253 0)
(1.25471 0.00692231 0)
(1.16472 0.00551257 0)
(1.09389 -0.00273091 0)
(1.04199 0.00394214 0)
(0.993935 -0.0124554 0)
(0.969113 -0.00144694 0)
(5.02157 0.113634 0)
(4.87331 0.0744285 0)
(4.75445 0.0908934 0)
(4.66362 0.0907491 0)
(4.56859 0.0895723 0)
(4.46117 0.0904482 0)
(4.34318 0.0912555 0)
(4.2202 0.0900723 0)
(4.09485 0.087083 0)
(3.97227 0.0816263 0)
(3.85156 0.0755071 0)
(3.73954 0.0671171 0)
(3.62975 0.0605791 0)
(3.53402 0.0511409 0)
(3.43479 0.0477304 0)
(3.35601 0.0371813 0)
(3.2625 0.0380017 0)
(3.19359 0.0173286 0)
(4.99445 0.17231 0)
(4.87334 0.122889 0)
(4.79444 0.131618 0)
(4.76384 0.126674 0)
(4.7479 0.12014 0)
(4.73123 0.117489 0)
(4.71168 0.116333 0)
(4.69005 0.114634 0)
(4.66631 0.110886 0)
(4.63998 0.105953 0)
(4.61086 0.0987886 0)
(4.57887 0.0920527 0)
(4.54511 0.0833324 0)
(4.50915 0.0777625 0)
(4.47363 0.0696692 0)
(4.43541 0.0667398 0)
(4.40083 0.0594458 0)
(4.35763 0.0516489 0)
(4.99075 0.189979 0)
(4.89182 0.121457 0)
(4.81392 0.120667 0)
(4.7792 0.11711 0)
(4.76553 0.110618 0)
(4.75698 0.107226 0)
(4.75057 0.106427 0)
(4.74692 0.105493 0)
(4.74593 0.103317 0)
(4.74613 0.0994166 0)
(4.74646 0.0946635 0)
(4.74548 0.0887498 0)
(4.74362 0.083362 0)
(4.73955 0.077416 0)
(4.73585 0.0733908 0)
(4.72944 0.0686094 0)
(4.72608 0.0652301 0)
(4.71716 0.0600193 0)
(4.99565 0.214463 0)
(4.92026 0.144733 0)
(4.85027 0.136572 0)
(4.81336 0.132812 0)
(4.79739 0.124638 0)
(4.7877 0.118099 0)
(4.78035 0.114372 0)
(4.77585 0.111527 0)
(4.77473 0.107833 0)
(4.77597 0.103138 0)
(4.77865 0.097469 0)
(4.78144 0.0915564 0)
(4.78439 0.0854804 0)
(4.78667 0.0799499 0)
(4.78943 0.0750025 0)
(4.79164 0.0704034 0)
(4.79521 0.0664967 0)
(4.79732 0.060818 0)
(4.99011 0.230836 0)
(4.93431 0.160075 0)
(4.87451 0.142979 0)
(4.83872 0.137114 0)
(4.82253 0.127936 0)
(4.81365 0.11942 0)
(4.80708 0.113798 0)
(4.80276 0.109701 0)
(4.80131 0.105457 0)
(4.80217 0.100359 0)
(4.80452 0.0946274 0)
(4.80728 0.0885429 0)
(4.81031 0.0826089 0)
(4.81309 0.0769793 0)
(4.81636 0.0719131 0)
(4.81944 0.0672612 0)
(4.82354 0.0626946 0)
(4.8268 0.0578821 0)
(4.99971 0.244773 0)
(4.95818 0.176257 0)
(4.90737 0.152343 0)
(4.87258 0.143718 0)
(4.85529 0.133965 0)
(4.8464 0.124185 0)
(4.84032 0.116754 0)
(4.83611 0.111219 0)
(4.83429 0.106061 0)
(4.83461 0.100452 0)
(4.83644 0.0943752 0)
(4.83885 0.088113 0)
(4.84168 0.0820073 0)
(4.84438 0.0762036 0)
(4.8476 0.0708973 0)
(4.85055 0.0658946 0)
(4.85448 0.0611379 0)
(4.85736 0.0563993 0)
(5.00116 0.255393 0)
(4.97147 0.191266 0)
(4.93049 0.162509 0)
(4.89928 0.150245 0)
(4.88259 0.139493 0)
(4.8744 0.128589 0)
(4.86928 0.119491 0)
(4.8657 0.112409 0)
(4.86405 0.106221 0)
(4.86432 0.0999907 0)
(4.86609 0.0935037 0)
(4.8685 0.0869521 0)
(4.87137 0.0805929 0)
(4.87414 0.074598 0)
(4.87743 0.069003 0)
(4.88041 0.0637962 0)
(4.88435 0.0588194 0)
(4.8873 0.0540995 0)
(5.0032 0.261603 0)
(4.9821 0.202892 0)
(4.94939 0.171055 0)
(4.92187 0.155176 0)
(4.90596 0.143282 0)
(4.89834 0.131716 0)
(4.89417 0.121463 0)
(4.89145 0.113074 0)
(4.89022 0.105885 0)
(4.89059 0.0990557 0)
(4.89236 0.0922246 0)
(4.89485 0.0854416 0)
(4.89786 0.0788889 0)
(4.90083 0.0727076 0)
(4.90427 0.0669045 0)
(4.90744 0.0614958 0)
(4.91143 0.0563296 0)
(4.91459 0.0515358 0)
(4.99706 0.269155 0)
(4.98322 0.215088 0)
(4.95826 0.181291 0)
(4.93514 0.161905 0)
(4.92077 0.148118 0)
(4.91393 0.135558 0)
(4.91082 0.124195 0)
(4.90921 0.114562 0)
(4.90876 0.106324 0)
(4.90957 0.0987838 0)
(4.91161 0.0914906 0)
(4.91433 0.0843897 0)
(4.91758 0.0775604 0)
(4.92085 0.0711306 0)
(4.92452 0.0650731 0)
(4.92797 0.0594424 0)
(4.93213 0.0540627 0)
(4.93565 0.0491184 0)
(4.99473 0.271446 0)
(4.98518 0.222438 0)
(4.96587 0.188005 0)
(4.94662 0.166106 0)
(4.93372 0.150591 0)
(4.92719 0.137186 0)
(4.92436 0.125027 0)
(4.92317 0.114404 0)
(4.92308 0.105237 0)
(4.92407 0.0970156 0)
(4.9262 0.0892827 0)
(4.92904 0.0818865 0)
(4.93247 0.0748162 0)
(4.93597 0.0681667 0)
(4.9399 0.0618837 0)
(4.94361 0.0560348 0)
(4.94803 0.0504279 0)
(4.95182 0.0452614 0)
(5.00373 0.274768 0)
(4.99626 0.230091 0)
(4.98039 0.195785 0)
(4.9639 0.171996 0)
(4.95224 0.154694 0)
(4.94598 0.140255 0)
(4.94324 0.127328 0)
(4.94222 0.115873 0)
(4.94224 0.105838 0)
(4.94318 0.0968922 0)
(4.94512 0.0886331 0)
(4.94777 0.0808558 0)
(4.95104 0.07347 0)
(4.95447 0.0665356 0)
(4.95835 0.0599707 0)
(4.96205 0.0538612 0)
(4.96644 0.0479827 0)
(4.97027 0.0425555 0)
(4.99935 0.277847 0)
(4.99503 0.23485 0)
(4.98371 0.200865 0)
(4.97109 0.175754 0)
(4.96176 0.156831 0)
(4.95666 0.141277 0)
(4.95465 0.127584 0)
(4.95429 0.115403 0)
(4.95492 0.104628 0)
(4.95632 0.0950389 0)
(4.95858 0.086287 0)
(4.96141 0.0781532 0)
(4.96482 0.0704885 0)
(4.9683 0.0633062 0)
(4.97219 0.0565008 0)
(4.97583 0.0501502 0)
(4.98015 0.0440238 0)
(4.98379 0.0383238 0)
(5.00466 0.280718 0)
(5.00311 0.240443 0)
(4.99508 0.207252 0)
(4.98537 0.181173 0)
(4.97803 0.160734 0)
(4.97408 0.143966 0)
(4.97284 0.129439 0)
(4.97321 0.11652 0)
(4.97453 0.104991 0)
(4.97647 0.0946756 0)
(4.97908 0.0853274 0)
(4.98212 0.0767458 0)
(4.98567 0.0687426 0)
(4.98928 0.0612804 0)
(4.9933 0.0542132 0)
(4.99703 0.0475974 0)
(5.00142 0.0411867 0)
(5.00506 0.0351884 0)
(5.00285 0.279417 0)
(5.00353 0.242771 0)
(4.99881 0.210454 0)
(4.99253 0.183632 0)
(4.9879 0.161815 0)
(4.98575 0.143711 0)
(4.98569 0.128121 0)
(4.98698 0.114351 0)
(4.98914 0.102073 0)
(4.99185 0.0910969 0)
(4.99509 0.081195 0)
(4.99866 0.0721739 0)
(5.00264 0.0638218 0)
(5.00662 0.0560591 0)
(5.01095 0.0487152 0)
(5.01494 0.0418232 0)
(5.01949 0.0351427 0)
(5.02328 0.0288586 0)
(5.00935 0.281733 0)
(5.011 0.246994 0)
(5.00871 0.215116 0)
(5.00548 0.187687 0)
(5.00365 0.164761 0)
(5.00366 0.145498 0)
(5.00509 0.128905 0)
(5.00745 0.114271 0)
(5.01042 0.101196 0)
(5.01377 0.0894701 0)
(5.01748 0.0789017 0)
(5.02136 0.0693327 0)
(5.02552 0.0605544 0)
(5.02964 0.0524659 0)
(5.03399 0.0448605 0)
(5.03803 0.037751 0)
(5.04244 0.0308704 0)
(5.04618 0.0244138 0)
(5.0001 0.280138 0)
(5.00216 0.245455 0)
(5.00188 0.213696 0)
(5.00176 0.18573 0)
(5.00313 0.161731 0)
(5.00588 0.14128 0)
(5.00952 0.123679 0)
(5.01366 0.108276 0)
(5.01812 0.0945986 0)
(5.02272 0.0823616 0)
(5.02744 0.0713393 0)
(5.03213 0.0613636 0)
(5.03689 0.0522241 0)
(5.0415 0.0438042 0)
(5.04617 0.0359032 0)
(5.0505 0.0285135 0)
(5.05503 0.0214013 0)
(5.05892 0.0147106 0)
(5.00086 0.283875 0)
(5.00485 0.24658 0)
(5.00717 0.213431 0)
(5.00983 0.184461 0)
(5.01395 0.159412 0)
(5.0192 0.137888 0)
(5.02493 0.119359 0)
(5.03071 0.103291 0)
(5.03642 0.0892158 0)
(5.04197 0.0767821 0)
(5.04744 0.0656889 0)
(5.05269 0.0557235 0)
(5.05786 0.0466489 0)
(5.06273 0.0383472 0)
(5.06758 0.0306066 0)
(5.07195 0.0234332 0)
(5.07646 0.0165727 0)
(5.08016 0.0102012 0)
(5.00018 0.279365 0)
(5.00762 0.239883 0)
(5.01408 0.204677 0)
(5.02093 0.174037 0)
(5.0291 0.147779 0)
(5.03807 0.125364 0)
(5.04701 0.106097 0)
(5.0555 0.0893386 0)
(5.06349 0.0745881 0)
(5.07102 0.0614995 0)
(5.07816 0.0498025 0)
(5.08482 0.0393019 0)
(5.09109 0.0297894 0)
(5.09676 0.021138 0)
(5.10213 0.0131572 0)
(5.10685 0.00581356 0)
(5.11152 -0.00110122 0)
(5.11534 -0.00748584 0)
(5.00355 0.275256 0)
(5.01278 0.23197 0)
(5.02296 0.193095 0)
(5.03457 0.160119 0)
(5.0473 0.133013 0)
(5.05993 0.110825 0)
(5.07155 0.0923978 0)
(5.08199 0.0768043 0)
(5.09149 0.0634023 0)
(5.10027 0.0517738 0)
(5.10849 0.0415803 0)
(5.1161 0.0325571 0)
(5.12319 0.0244339 0)
(5.12958 0.0170595 0)
(5.13553 0.0102317 0)
(5.14074 0.00393466 0)
(5.14573 -0.00203667 0)
(5.14982 -0.00755605 0)
(5.00084 0.271907 0)
(5.01218 0.221079 0)
(5.02691 0.177898 0)
(5.0443 0.143226 0)
(5.0625 0.115584 0)
(5.07963 0.0928559 0)
(5.09483 0.0734867 0)
(5.10819 0.0567307 0)
(5.12012 0.0422961 0)
(5.13087 0.0299676 0)
(5.14059 0.0194289 0)
(5.14923 0.0103271 0)
(5.15698 0.00231772 0)
(5.16379 -0.00483019 0)
(5.17003 -0.0113337 0)
(5.17544 -0.0172712 0)
(5.18059 -0.0228032 0)
(5.1848 -0.0278871 0)
(5.00438 0.266533 0)
(5.01991 0.205784 0)
(5.04085 0.158734 0)
(5.06429 0.124554 0)
(5.08681 0.0996393 0)
(5.10635 0.0803798 0)
(5.12285 0.0644957 0)
(5.13727 0.0509825 0)
(5.15045 0.0394142 0)
(5.16259 0.0294658 0)
(5.17365 0.0207786 0)
(5.18348 0.0130705 0)
(5.19223 0.00611169 0)
(5.19989 -0.000198259 0)
(5.20679 -0.00599177 0)
(5.21276 -0.0112786 0)
(5.21832 -0.0162364 0)
(5.22287 -0.020789 0)
(4.99841 0.261085 0)
(5.02317 0.188436 0)
(5.0554 0.135848 0)
(5.08844 0.0998219 0)
(5.11753 0.0735158 0)
(5.14118 0.0521292 0)
(5.16043 0.0340191 0)
(5.17691 0.0191283 0)
(5.19158 0.00732624 0)
(5.20462 -0.00201333 0)
(5.21607 -0.00969092 0)
(5.22594 -0.0162986 0)
(5.23454 -0.0221665 0)
(5.24197 -0.0274327 0)
(5.24866 -0.0322108 0)
(5.25439 -0.0365599 0)
(5.25972 -0.0405988 0)
(5.26402 -0.044336 0)
(5.00619 0.245214 0)
(5.04016 0.16498 0)
(5.08375 0.116128 0)
(5.12419 0.0888569 0)
(5.15605 0.0704153 0)
(5.18044 0.0541546 0)
(5.2008 0.039419 0)
(5.21934 0.0269739 0)
(5.23638 0.0168896 0)
(5.25142 0.00859764 0)
(5.26426 0.00148312 0)
(5.27508 -0.0047974 0)
(5.28441 -0.010411 0)
(5.29246 -0.0154272 0)
(5.29966 -0.0199811 0)
(5.30585 -0.0241302 0)
(5.31156 -0.0280293 0)
(5.31624 -0.0316314 0)
(5.00296 0.22906 0)
(5.05378 0.12747 0)
(5.11593 0.0733124 0)
(5.16665 0.0456031 0)
(5.20158 0.0258285 0)
(5.22653 0.00841744 0)
(5.24756 -0.00548219 0)
(5.26686 -0.015299 0)
(5.28427 -0.0222275 0)
(5.29929 -0.027733 0)
(5.31201 -0.0325956 0)
(5.3228 -0.0370061 0)
(5.33223 -0.0409778 0)
(5.34045 -0.0445486 0)
(5.34782 -0.0478111 0)
(5.35413 -0.0508375 0)
(5.35991 -0.0537014 0)
(5.3646 -0.0564099 0)
(5.01445 0.212705 0)
(5.08715 0.113216 0)
(5.16725 0.077992 0)
(5.22476 0.0620828 0)
(5.26085 0.0442524 0)
(5.28731 0.0262651 0)
(5.31119 0.012084 0)
(5.3332 0.00219276 0)
(5.35221 -0.00501392 0)
(5.36786 -0.010948 0)
(5.38081 -0.0161894 0)
(5.39178 -0.0208519 0)
(5.40138 -0.0249845 0)
(5.40973 -0.0286743 0)
(5.41716 -0.0320487 0)
(5.42349 -0.0351701 0)
(5.42924 -0.0381228 0)
(5.43395 -0.0408747 0)
(5.00974 0.160382 0)
(5.1223 0.035178 0)
(5.22166 0.00714573 0)
(5.27961 -0.00221009 0)
(5.31253 -0.0161989 0)
(5.3387 -0.0284264 0)
(5.36368 -0.0359356 0)
(5.38658 -0.0405157 0)
(5.40602 -0.0441429 0)
(5.42201 -0.0475044 0)
(5.43542 -0.0505777 0)
(5.44696 -0.0532963 0)
(5.45716 -0.0556933 0)
(5.4661 -0.0578697 0)
(5.47408 -0.0598957 0)
(5.48093 -0.0618328 0)
(5.48719 -0.0637034 0)
(5.49236 -0.0655248 0)
(5.01774 0.152785 0)
(5.17871 0.0583575 0)
(5.30253 0.0446293 0)
(5.36361 0.0284033 0)
(5.39716 0.00927654 0)
(5.42614 -0.00439734 0)
(5.45362 -0.0124425 0)
(5.47766 -0.01793 0)
(5.49737 -0.0226112 0)
(5.51334 -0.0268568 0)
(5.52649 -0.0306045 0)
(5.53753 -0.0339031 0)
(5.54685 -0.0368236 0)
(5.55464 -0.0395108 0)
(5.56108 -0.0419857 0)
(5.56623 -0.0443579 0)
(5.57037 -0.0465898 0)
(5.57342 -0.0487795 0)
(5.02004 0.0199034 0)
(5.23021 -0.0516581 0)
(5.35684 -0.0342319 0)
(5.41161 -0.0427551 0)
(5.44234 -0.0529295 0)
(5.46648 -0.0575651 0)
(5.48495 -0.059354 0)
(5.49632 -0.0606481 0)
(5.50063 -0.0619681 0)
(5.49913 -0.0632073 0)
(5.49299 -0.0642506 0)
(5.48336 -0.0651307 0)
(5.47067 -0.0658697 0)
(5.45574 -0.0665606 0)
(5.43841 -0.0671832 0)
(5.41977 -0.067833 0)
(5.39898 -0.0684477 0)
(5.37792 -0.0691574 0)
(4.96676 0.0704143 0)
(5.10155 -0.000721857 0)
(5.07354 -0.000631608 0)
(4.9601 -0.0110307 0)
(4.83292 -0.0187338 0)
(4.70863 -0.0217587 0)
(4.58778 -0.0229326 0)
(4.46879 -0.023705 0)
(4.35126 -0.0242876 0)
(4.2359 -0.0246466 0)
(4.12344 -0.0248009 0)
(4.01461 -0.0248149 0)
(3.90939 -0.02474 0)
(3.80817 -0.0246282 0)
(3.71021 -0.0244853 0)
(3.61639 -0.0243516 0)
(3.52498 -0.0241971 0)
(3.43837 -0.0241062 0)
(-0.0338303 0.083206 8.59551e-22)
(-0.0920759 0.0515046 -8.51924e-22)
(-0.115557 0.0139034 0)
(-0.10673 -0.0214862 0)
(-0.0673755 -0.0521038 0)
(-0.00585562 -0.0752715 8.20097e-22)
(0.0718916 -0.0920345 0)
(0.161941 -0.103509 0)
(0.259824 -0.1093 0)
(0.361957 -0.110388 0)
(0.464347 -0.107332 -7.7816e-22)
(0.56327 -0.10135 0)
(0.655938 -0.0928322 0)
(0.740323 -0.0821533 0)
(0.814314 -0.0696184 0)
(0.876079 -0.0555075 -6.84863e-22)
(0.924173 -0.0400367 0)
(0.957617 -0.0235999 0)
(0.975725 -0.00672132 0)
(0.977403 0.0100896 0)
(0.962497 0.0265144 0)
(0.931038 0.0423987 0)
(0.883684 0.0574476 0)
(0.821622 0.0709471 -6.04139e-22)
(0.746588 0.0818923 6.04621e-22)
(0.660372 0.0894501 -6.05753e-22)
(0.565399 0.0936033 -6.06929e-22)
(0.464506 0.0936886 0)
(0.361472 0.0901447 0)
(0.258462 0.0810019 6.07077e-22)
(0.160505 0.0661506 6.05489e-22)
(0.0677406 0.0533262 0)
(-0.0254663 0.0477458 0)
(-0.124144 0.0501199 5.94903e-22)
(-0.228637 0.0593378 0)
(-0.337549 0.0676532 0)
(-0.448571 0.0658837 -5.75826e-22)
(-0.559074 0.0591333 0)
(-0.667678 0.0614472 -5.56627e-22)
(-0.776559 0.0624658 -1.09144e-21)
(-0.879137 0.0561278 0)
(-0.975942 0.0578642 0)
(-1.06878 0.0488098 0)
(-1.1429 0.0306839 0)
(-1.20582 0.0229133 0)
(-1.26019 0.0273932 -9.40794e-22)
(-1.31272 0.032189 -9.16675e-22)
(-1.35995 0.0295355 -8.93403e-22)
(-1.39976 0.0263529 0)
(-1.43345 0.0230091 8.53843e-22)
(-1.46103 0.0193958 0)
(-1.48441 0.0169076 -8.26582e-22)
(-1.50429 0.0162536 -8.17483e-22)
(-1.52049 0.0162436 0)
(-1.53203 0.01504 0)
(-1.53846 0.0126628 0)
(-1.54101 0.0095974 -8.03135e-22)
(-1.54191 0.00581477 0)
(-1.54277 0.00191927 0)
(-1.54299 -0.00114762 0)
(-1.54176 -0.00292194 0)
(-1.54006 -0.00283796 0)
(-1.53933 -0.00138914 0)
(-1.54007 0.000204766 0)
(-1.54214 0.00240484 0)
(-1.54539 0.00544177 8.31817e-22)
(-1.54812 0.0077334 0)
(-1.54804 0.00856621 0)
(-1.54461 0.00823195 -8.29582e-22)
(-1.53899 0.00688547 -8.25904e-22)
(-1.5332 0.00374387 0)
(-1.52762 -0.000440349 8.1668e-22)
(-1.52136 -0.00208169 -8.12675e-22)
(-1.51544 0.000222105 0)
(-1.51254 0.00388577 8.07792e-22)
(-1.51384 0.00543694 0)
(-1.51926 0.0062512 0)
(-1.52976 0.0102219 -8.04092e-22)
(-1.54337 0.0146784 0)
(-1.553 0.0146479 7.97671e-22)
(-1.55275 0.00946858 0)
(-1.54014 0.00213359 -7.94395e-22)
(-1.51545 -0.00491185 -7.97319e-22)
(-1.47998 -0.0111066 -8.04268e-22)
(-1.43492 -0.0164351 -1.63082e-21)
(-1.38142 -0.020967 1.66127e-21)
(-1.32047 -0.0247944 0)
(-1.25294 -0.0279993 0)
(-1.17963 -0.0306642 0)
(-1.10151 -0.0328752 1.85051e-21)
(-1.01905 -0.0347051 1.9098e-21)
(-0.932905 -0.0361928 -1.97174e-21)
(-0.843581 -0.0373707 0)
(-0.751646 -0.0382483 2.09933e-21)
(-0.6576 -0.0388473 2.16307e-21)
(-0.56196 -0.0391802 2.22564e-21)
(-0.465202 -0.0392666 0)
(-0.367803 -0.0391339 0)
(-0.27018 -0.0387972 0)
(-0.172706 -0.0382888 2.45151e-21)
(-0.0757305 -0.037611 0)
(0.0203989 -0.0367834 0)
(0.115319 -0.0357972 -2.58298e-21)
(0.208647 -0.0346578 0)
(0.29999 -0.0333609 0)
(0.388953 -0.0319164 -2.67357e-21)
(0.475153 -0.0303347 0)
(0.558266 -0.0286423 0)
(0.638017 -0.0268704 2.7211e-21)
(0.714202 -0.0250505 2.72797e-21)
(0.786671 -0.0232209 0)
(0.855352 -0.0214035 -2.72984e-21)
(0.92025 -0.0196378 0)
(0.981414 -0.0179404 2.71798e-21)
(1.03895 -0.0163227 0)
(1.09298 -0.0147996 2.69473e-21)
(1.14364 -0.0133654 2.67948e-21)
(1.19108 -0.0120139 0)
(1.23543 -0.0107379 0)
(1.27683 -0.00952175 0)
(1.31534 -0.00835868 0)
(1.35103 -0.00723615 0)
(1.38393 -0.00615186 0)
(1.41407 -0.00508413 0)
(1.44145 -0.00405014 2.49593e-21)
(1.46605 -0.00303746 -2.46785e-21)
(1.4879 -0.00204381 0)
(1.507 -0.00107373 0)
(1.52334 -0.000131914 0)
(1.53695 0.000776671 0)
(1.54786 0.00164671 -4.64346e-21)
(1.5561 0.00247283 0)
(1.56174 0.00324989 4.52659e-21)
(1.56484 0.0039729 -4.46905e-21)
(1.56551 0.0046344 0)
(1.56386 0.00522547 0)
(1.56001 0.00574121 0)
(1.55415 0.0061748 4.2476e-21)
(1.54644 0.00651622 4.19469e-21)
(1.53712 0.00676901 0)
(1.52638 0.00693208 4.09187e-21)
(1.5145 0.006984 4.04189e-21)
(1.50177 0.00691431 -3.9928e-21)
(1.48847 0.00672843 0)
(1.4749 0.00642921 0)
(1.46133 0.0060108 -3.85045e-21)
(1.44808 0.00546811 0)
(1.43546 0.00481481 0)
(1.42376 0.00409625 0)
(1.41321 0.00337866 0)
(1.4039 0.00272559 3.62735e-21)
(1.39582 0.00217972 3.5847e-21)
(1.38887 0.00175597 0)
(1.38289 0.00144675 3.5011e-21)
(1.37769 0.00123216 0)
(1.37314 0.00108885 0)
(1.36907 0.000996066 3.37902e-21)
(1.36538 0.000937787 0)
(1.36197 0.000903928 3.29938e-21)
(1.35877 0.000888204 0)
(1.35568 0.000888487 0)
(1.35268 0.000902997 3.18218e-21)
(1.34965 0.000933849 0)
(1.3466 0.000979777 3.10553e-21)
(1.34333 0.00104716 0)
(1.33998 0.00113315 0)
(1.33611 0.00125458 0)
(1.3321 0.00140028 -2.95617e-21)
(1.32708 0.00161454 0)
(1.32192 0.0018504 2.8839e-21)
(1.31486 0.00223694 0)
(1.30761 0.00259517 0)
(1.29713 0.00335174 0)
(1.28575 0.00382788 0)
(1.27015 0.00553489 0)
(1.24883 0.00582875 0)
(1.22829 0.0104554 0)
(1.17694 0.00884871 -5.25909e-21)
(1.16463 0.0245281 0)
(1.00981 0.0156916 0)
(0.00105615 0.168811 -2.56848e-21)
(-0.00579317 0.107941 2.54639e-21)
(0.00968542 0.0108958 0)
(0.0405587 -0.0814391 -1.65613e-21)
(0.0902444 -0.158596 0)
(0.152298 -0.21657 -8.20887e-22)
(0.22818 -0.258501 1.60885e-21)
(0.311791 -0.286543 1.59253e-21)
(0.399713 -0.301709 0)
(0.487307 -0.304712 1.54892e-21)
(0.571626 -0.29702 7.79034e-22)
(0.650542 -0.28041 0)
(0.722549 -0.256454 0)
(0.786319 -0.226594 0)
(0.840577 -0.192109 0)
(0.884305 -0.154205 6.85634e-22)
(0.916678 -0.113912 0)
(0.936735 -0.0721023 -1.25266e-21)
(0.943079 -0.0293923 0)
(0.935867 0.0135444 0)
(0.915381 0.055805 1.18454e-21)
(0.882493 0.0962242 0)
(0.837866 0.133448 -1.17055e-21)
(0.781558 0.16666 6.04889e-22)
(0.714105 0.19558 -6.05396e-22)
(0.6369 0.219667 6.06562e-22)
(0.552077 0.237958 6.07778e-22)
(0.46194 0.249021 0)
(0.369378 0.252665 0)
(0.275569 0.25009 -6.08018e-22)
(0.179204 0.244292 5.76575e-22)
(0.0740065 0.246315 0)
(-0.0388948 0.259343 0)
(-0.154472 0.271177 -5.95862e-22)
(-0.26858 0.274258 0)
(-0.381862 0.27255 0)
(-0.496545 0.274044 5.76796e-22)
(-0.614413 0.273927 0)
(-0.730365 0.267189 -5.10947e-22)
(-0.844448 0.256051 1.09327e-21)
(-0.957889 0.240981 0)
(-1.06293 0.223077 0)
(-1.16123 0.196415 1.93915e-21)
(-1.25245 0.168983 1.88735e-21)
(-1.33932 0.144555 1.83621e-21)
(-1.41206 0.123527 -8.43591e-22)
(-1.47252 0.107128 9.18088e-22)
(-1.52287 0.091874 2.58719e-21)
(-1.56434 0.0759301 -1.65212e-21)
(-1.59877 0.0609589 -8.55083e-22)
(-1.6281 0.0497553 0)
(-1.65332 0.0409165 8.27765e-22)
(-1.6738 0.0314074 -7.35237e-22)
(-1.68937 0.0198784 0)
(-1.69979 0.007629 0)
(-1.70462 -0.00231132 0)
(-1.70478 -0.00653541 8.04147e-22)
(-1.70203 -0.00523055 0)
(-1.69829 -0.00233741 -1.54317e-21)
(-1.69486 -0.0017971 0)
(-1.69204 -0.00262652 -1.55462e-21)
(-1.69045 -0.0026129 0)
(-1.69055 -0.00124174 1.57316e-21)
(-1.69296 0.000905126 0)
(-1.69707 0.00177382 -1.59245e-21)
(-1.70071 -0.00104708 7.67332e-22)
(-1.70191 -0.00786818 0)
(-1.69948 -0.0161234 1.60761e-21)
(-1.69249 -0.0220414 8.30264e-22)
(-1.6815 -0.0229156 8.2655e-22)
(-1.66931 -0.0190686 0)
(-1.65969 -0.0147818 7.73925e-22)
(-1.65322 -0.0130627 8.13246e-22)
(-1.64817 -0.0115447 0)
(-1.64573 -0.0065497 -8.08275e-22)
(-1.64762 0.00125322 1.5647e-21)
(-1.65483 0.00958122 0)
(-1.66304 0.0144091 8.04484e-22)
(-1.66175 0.00904275 0)
(-1.6456 -0.00628276 -2.34106e-21)
(-1.61674 -0.0252472 0)
(-1.577 -0.0439768 2.33806e-21)
(-1.52803 -0.0609839 7.97647e-22)
(-1.47103 -0.0759138 -7.66646e-22)
(-1.40703 -0.0888164 -1.56294e-21)
(-1.33683 -0.0998842 1.59998e-21)
(-1.26112 -0.109341 0)
(-1.18045 -0.117399 0)
(-1.09528 -0.124239 0)
(-1.00586 -0.129996 -5.51033e-21)
(-0.912757 -0.134776 -1.91002e-21)
(-0.816385 -0.138639 1.97191e-21)
(-0.717267 -0.141632 0)
(-0.615844 -0.14379 2.07008e-21)
(-0.512613 -0.145158 -2.16314e-21)
(-0.408 -0.145782 -2.22569e-21)
(-0.302453 -0.145721 0)
(-0.196363 -0.145042 0)
(-0.0900911 -0.143804 0)
(0.0160365 -0.142068 -2.45147e-21)
(0.121695 -0.139868 0)
(0.226561 -0.137224 5.07147e-21)
(0.330299 -0.134129 7.73472e-21)
(0.432545 -0.130583 -5.22297e-21)
(0.532918 -0.126574 0)
(0.631041 -0.122131 -2.66295e-21)
(0.726539 -0.117291 0)
(0.819101 -0.112121 -5.41081e-21)
(0.90847 -0.106698 2.71305e-21)
(0.99446 -0.101123 2.72059e-21)
(1.07695 -0.0954965 0)
(1.15587 -0.0899138 8.18279e-21)
(1.23125 -0.0844624 -5.44495e-21)
(1.30314 -0.0792034 -2.71772e-21)
(1.37164 -0.0741769 0)
(1.43688 -0.0694116 -2.69445e-21)
(1.49901 -0.0648997 -8.03368e-21)
(1.55816 -0.0606201 0)
(1.61447 -0.0565516 -5.2816e-21)
(1.66805 -0.0526565 -5.23966e-21)
(1.71899 -0.0489079 -5.19454e-21)
(1.76732 -0.0452726 0)
(1.8131 -0.0417205 0)
(1.85633 -0.0382376 0)
(1.89701 -0.0348318 2.49328e-21)
(1.93514 -0.0314679 2.46745e-21)
(1.97073 -0.028152 0)
(2.00376 -0.0248911 4.81738e-21)
(2.03423 -0.0216931 4.75874e-21)
(2.06216 -0.0185681 0)
(2.08755 -0.0155284 4.6426e-21)
(2.11044 -0.0125867 9.16487e-21)
(2.13086 -0.00975667 -4.52571e-21)
(2.1489 -0.00705234 -4.46566e-21)
(2.16461 -0.00448994 0)
(2.17809 -0.0020879 0)
(2.18943 0.000134483 0)
(2.19876 0.00215646 -4.24665e-21)
(2.20622 0.00395784 4.19216e-21)
(2.21195 0.00552563 8.2822e-21)
(2.21613 0.00684862 -4.09088e-21)
(2.21894 0.00791194 4.03974e-21)
(2.22052 0.00871046 3.99179e-21)
(2.22108 0.00925368 0)
(2.22077 0.00955187 0)
(2.21977 0.00960775 -3.84889e-21)
(2.21823 0.00941988 0)
(2.2163 0.00899188 0)
(2.21411 0.00834446 7.42703e-21)
(2.21179 0.00752785 0)
(2.20945 0.00662022 3.62651e-21)
(2.20721 0.0057059 -3.58369e-21)
(2.20515 0.00485184 0)
(2.20332 0.00409752 3.50033e-21)
(2.20175 0.00345711 0)
(2.20044 0.00292791 0)
(2.19939 0.0024993 -3.37805e-21)
(2.19859 0.00215876 6.67627e-21)
(2.198 0.00189529 -3.29843e-21)
(2.19761 0.00169936 0)
(2.19736 0.00156516 0)
(2.19723 0.00148546 3.18124e-21)
(2.19713 0.00146177 0)
(2.19707 0.00148652 3.10453e-21)
(2.19692 0.00157721 0)
(2.19672 0.0017149 0)
(2.19623 0.00195733 0)
(2.19559 0.00223743 2.95529e-21)
(2.19439 0.00272418 0)
(2.19287 0.00319132 -2.88304e-21)
(2.19041 0.00413209 0)
(2.18718 0.00481755 0)
(2.1827 0.0067041 5.55682e-21)
(2.17599 0.00753157 -5.49033e-21)
(2.16875 0.0116222 0)
(2.15411 0.0121193 0)
(2.14464 0.0219125 0)
(2.10959 0.0205601 1.5758e-20)
(2.10483 0.0470265 0)
(2.01603 0.0427175 -1.02971e-20)
(0.0184909 0.104178 1.09094e-24)
(0.0580781 0.0426674 -3.3907e-21)
(0.109426 -0.0690425 0)
(0.16255 -0.178256 3.31597e-21)
(0.22404 -0.273469 0)
(0.292799 -0.349725 0)
(0.36512 -0.405942 -1.98162e-23)
(0.436241 -0.440794 -1.59413e-21)
(0.503004 -0.455011 -1.53717e-21)
(0.563773 -0.450769 -1.5504e-21)
(0.617882 -0.431483 0)
(0.665095 -0.400468 0)
(0.705337 -0.360219 1.39015e-21)
(0.738136 -0.312506 2.69386e-21)
(0.762559 -0.258809 -2.60736e-21)
(0.777979 -0.200492 0)
(0.783995 -0.138107 -2.44633e-21)
(0.780433 -0.0715548 1.25359e-21)
(0.766545 -0.00258665 0)
(0.741239 0.0650042 -2.27739e-21)
(0.703682 0.128131 -1.18535e-21)
(0.654152 0.186231 2.23263e-21)
(0.593051 0.241119 1.17137e-21)
(0.5219 0.292958 0)
(0.442393 0.338432 -2.24288e-21)
(0.356819 0.374295 -2.25612e-21)
(0.267752 0.398892 0)
(0.177197 0.411334 -2.28015e-21)
(0.086525 0.411571 0)
(-0.00472084 0.404132 -2.28552e-21)
(-0.101333 0.4071 -1.18408e-21)
(-0.202793 0.420313 0)
(-0.301997 0.429628 0)
(-0.397773 0.433824 0)
(-0.491853 0.437653 0)
(-0.585387 0.441823 0)
(-0.67684 0.441534 0)
(-0.766127 0.43671 -2.07081e-21)
(-0.853108 0.429821 3.09274e-21)
(-0.937835 0.415603 0)
(-1.01996 0.393504 0)
(-1.09891 0.369159 0)
(-1.17576 0.337112 -1.29443e-22)
(-1.24932 0.297537 -1.88924e-21)
(-1.31771 0.258523 -3.54111e-21)
(-1.3801 0.223404 3.43799e-21)
(-1.4359 0.192573 1.60098e-21)
(-1.48514 0.163787 -1.69376e-21)
(-1.52882 0.137417 1.37302e-22)
(-1.56792 0.114761 -1.4831e-21)
(-1.60179 0.0960881 0)
(-1.62951 0.0798441 -1.44056e-21)
(-1.65113 0.0643421 1.2407e-22)
(-1.66763 0.0485079 0)
(-1.68013 0.0315516 0)
(-1.68822 0.0150807 1.43137e-21)
(-1.69235 0.00192335 0)
(-1.69252 -0.00679303 0)
(-1.68865 -0.0116655 -1.34771e-21)
(-1.6821 -0.0140974 -2.90208e-21)
(-1.67533 -0.0141865 1.55487e-21)
(-1.66996 -0.0111316 0)
(-1.66655 -0.00499342 -1.57334e-21)
(-1.66464 0.00202501 0)
(-1.66325 0.0065684 -1.39818e-21)
(-1.66188 0.00653896 -1.59996e-21)
(-1.66065 0.00175591 3.03485e-21)
(-1.66012 -0.00660303 1.44467e-21)
(-1.66005 -0.0163575 0)
(-1.65943 -0.0230634 -3.07001e-21)
(-1.65692 -0.0232011 0)
(-1.65201 -0.019614 -4.64842e-21)
(-1.64655 -0.016657 -3.04164e-21)
(-1.64292 -0.011643 -3.02348e-21)
(-1.64242 -0.000972229 3.00446e-21)
(-1.64468 0.0121396 -4.55051e-21)
(-1.64585 0.0192786 0)
(-1.63715 0.0118168 0)
(-1.61424 -0.00997505 2.94227e-21)
(-1.58014 -0.0383146 4.47855e-21)
(-1.53793 -0.0672845 0)
(-1.48869 -0.0944659 -1.54299e-21)
(-1.43319 -0.118817 0)
(-1.37189 -0.140154 4.60312e-21)
(-1.3052 -0.158634 1.00107e-22)
(-1.2335 -0.174592 -9.16584e-23)
(-1.15711 -0.188385 -3.25875e-21)
(-1.07636 -0.200326 0)
(-0.991557 -0.210636 3.47264e-21)
(-0.90302 -0.219448 6.55021e-23)
(-0.811114 -0.226826 0)
(-0.716215 -0.232821 0)
(-0.618733 -0.237455 0)
(-0.519093 -0.240778 -4.16908e-21)
(-0.417732 -0.242835 0)
(-0.315071 -0.243709 0)
(-0.211528 -0.243496 0)
(-0.107493 -0.242296 0)
(-0.00330607 -0.240212 0)
(0.100731 -0.237321 -4.85536e-21)
(0.20433 -0.233687 0)
(0.307195 -0.22933 -5.07128e-21)
(0.408993 -0.224248 -5.15164e-21)
(0.509355 -0.218427 5.2228e-21)
(0.607881 -0.211858 0)
(0.704164 -0.204587 5.3362e-21)
(0.797822 -0.196664 0)
(0.888535 -0.188206 5.41061e-21)
(0.97605 -0.179359 -5.43374e-21)
(1.06019 -0.170281 -1.63199e-20)
(1.14087 -0.161142 0)
(1.21806 -0.152102 -1.63384e-20)
(1.2918 -0.143293 -5.42599e-21)
(1.36221 -0.134817 0)
(1.42941 -0.126743 -1.08042e-20)
(1.49354 -0.119095 -1.07546e-20)
(1.55478 -0.111863 1.60496e-20)
(1.61328 -0.105008 0)
(1.66916 -0.0984939 5.28139e-21)
(1.72252 -0.0922645 5.23946e-21)
(1.77344 -0.0862736 1.55732e-20)
(1.82197 -0.0804642 0)
(1.86812 -0.0748138 0)
(1.91189 -0.0692806 0)
(1.95329 -0.0638499 4.9808e-21)
(1.9923 -0.0584973 0)
(2.02893 -0.0532284 0)
(2.06316 -0.0480534 -4.81717e-21)
(2.09502 -0.0429862 -4.75854e-21)
(2.12451 -0.0380446 0)
(2.15168 -0.0332485 0)
(2.17656 -0.0286189 -9.16451e-21)
(2.1992 -0.0241768 0)
(2.21968 -0.0199448 8.93346e-21)
(2.23809 -0.0159466 8.81636e-21)
(2.25453 -0.0122052 0)
(2.26912 -0.00874305 0)
(2.28202 -0.0055836 -8.4885e-21)
(2.29337 -0.00275039 -2.44644e-24)
(2.3033 -0.000263865 -2.17995e-24)
(2.31195 0.00185742 0)
(2.31944 0.00360413 -1.61588e-20)
(2.32591 0.00497549 0)
(2.33151 0.00598162 0)
(2.33636 0.00663918 0)
(2.34063 0.00696991 7.69786e-21)
(2.34443 0.00699535 0)
(2.34784 0.00674078 -1.50307e-20)
(2.3509 0.00624376 -7.42654e-21)
(2.35363 0.00556573 0)
(2.35608 0.00478876 -7.25233e-21)
(2.35827 0.00399454 0)
(2.36028 0.00324543 0)
(2.36215 0.00257654 -2.10002e-20)
(2.36394 0.0019986 1.38359e-20)
(2.36569 0.00150678 0)
(2.36745 0.00109105 1.35117e-20)
(2.36923 0.000742375 -6.67574e-21)
(2.37106 0.000456987 0)
(2.37296 0.000232999 0)
(2.37492 7.44532e-05 0)
(2.37696 -2.06815e-05 -1.90859e-20)
(2.37907 -4.17322e-05 0)
(2.38122 1.3244e-06 -6.20864e-21)
(2.38341 0.000138948 0)
(2.38557 0.000339361 0)
(2.38771 0.000690224 0)
(2.38967 0.0010903 0)
(2.39154 0.00178064 0)
(2.39297 0.00244901 0)
(2.39431 0.0037544 -1.13861e-20)
(2.39462 0.00477172 0)
(2.39509 0.00730099 -5.55629e-21)
(2.39318 0.00870638 1.64644e-20)
(2.39247 0.0138889 0)
(2.38603 0.0155945 0)
(2.38421 0.0270117 -1.05975e-20)
(2.36852 0.0289589 -1.04994e-20)
(2.3674 0.0560191 1.03725e-20)
(2.33532 0.0606527 1.02961e-20)
(0.0129375 0.00665712 5.12606e-21)
(0.0617106 -0.0886191 5.08958e-21)
(0.123224 -0.205196 3.35708e-21)
(0.196857 -0.321414 1.65129e-21)
(0.274118 -0.425002 0)
(0.345311 -0.502727 -3.19704e-21)
(0.405169 -0.549529 1.54115e-21)
(0.451753 -0.56757 0)
(0.48662 -0.5612 1.53849e-21)
(0.512268 -0.53575 0)
(0.530519 -0.497002 -2.83247e-21)
(0.543223 -0.448976 0)
(0.552965 -0.393166 -1.3912e-21)
(0.560206 -0.330595 -2.69585e-21)
(0.562525 -0.262631 2.60923e-21)
(0.558427 -0.190553 0)
(0.546785 -0.115211 2.44794e-21)
(0.526899 -0.0359943 0)
(0.497428 0.0482909 0)
(0.457333 0.134972 2.27902e-21)
(0.40551 0.219788 0)
(0.34131 0.300755 -1.4495e-22)
(0.266732 0.374969 0)
(0.185847 0.438602 0)
(0.101423 0.48954 1.36192e-22)
(0.0152101 0.527107 2.25819e-21)
(-0.0712873 0.551171 2.13909e-21)
(-0.157247 0.56208 2.28216e-21)
(-0.243241 0.563931 0)
(-0.334184 0.568366 4.4457e-21)
(-0.42905 0.577274 0)
(-0.521049 0.581772 2.13688e-21)
(-0.609472 0.582407 0)
(-0.695354 0.581495 0)
(-0.778454 0.579273 -2.05982e-21)
(-0.857495 0.573833 0)
(-0.932431 0.566468 1.98104e-21)
(-1.00357 0.557644 1.38482e-22)
(-1.06937 0.543318 -3.90804e-21)
(-1.13055 0.523034 3.65886e-21)
(-1.18768 0.498602 0)
(-1.23974 0.468775 0)
(-1.28669 0.431388 1.50869e-21)
(-1.32985 0.388287 0)
(-1.36985 0.343961 1.70459e-21)
(-1.40605 0.301529 -1.65189e-21)
(-1.43795 0.261911 -1.60215e-21)
(-1.46568 0.225474 0)
(-1.49005 0.192334 1.51693e-21)
(-1.51088 0.162558 1.48386e-21)
(-1.52787 0.13554 -2.59826e-21)
(-1.54081 0.11033 1.44099e-21)
(-1.55007 0.0861176 1.43091e-21)
(-1.55615 0.0623326 0)
(-1.5594 0.0377356 0)
(-1.55995 0.015493 -1.43141e-21)
(-1.55874 0.000286768 0)
(-1.55715 -0.00932718 0)
(-1.55547 -0.015417 2.89097e-21)
(-1.55342 -0.0183471 2.90177e-21)
(-1.55192 -0.0172067 0)
(-1.55173 -0.0126675 0)
(-1.55264 -0.00688911 0)
(-1.55335 -0.00223853 0)
(-1.55294 -0.000491545 2.99012e-21)
(-1.55167 -0.00245154 -2.80975e-21)
(-1.55059 -0.00758123 -3.03411e-21)
(-1.55074 -0.0145424 -5.91313e-21)
(-1.55242 -0.0215092 0)
(-1.55564 -0.0264853 1.70955e-22)
(-1.55966 -0.0280156 0)
(-1.5623 -0.02614 3.05644e-21)
(-1.56319 -0.02219 1.54183e-22)