/*--------------------------------*- C++ -*----------------------------------*\
  =========                 |
  \\      /  F ield         | OpenFOAM: The Open Source CFD Toolbox
   \\    /   O peration     | Website:  https://openfoam.org
    \\  /    A nd           | Version:  7
     \\/     M anipulation  |
\*---------------------------------------------------------------------------*/
FoamFile
{
    version     2.0;
    format      ascii;
    class       surfaceScalarField;
    location    "0.003";
    object      phi;
}
// * * * * * * * * * * * * * * * * * * * * * * * * * * * * * * * * * * * * * //

dimensions      [0 3 -1 0 0 0 0];

internalField   nonuniform List<scalar> 
24170
(
1.38964e-06
1.60688e-07
1.26365e-06
1.25983e-07
1.13482e-06
1.2883e-07
1.02412e-06
1.10706e-07
9.42568e-07
8.155e-08
8.99293e-07
4.32749e-08
8.9192e-07
7.37227e-09
9.0797e-07
-1.60492e-08
9.37352e-07
-2.9382e-08
9.74657e-07
-3.73058e-08
1.00525e-06
-3.05885e-08
1.04439e-06
-3.91414e-08
1.09297e-06
-4.85871e-08
1.14493e-06
-5.19571e-08
1.19705e-06
-5.21156e-08
1.24956e-06
-5.25129e-08
1.3864e-06
-1.36838e-07
-1.3884e-07
1.52524e-06
1.6273e-06
1.83079e-07
1.62982e-06
1.2347e-07
1.6106e-06
1.48048e-07
1.579e-06
1.42309e-07
1.55398e-06
1.06568e-07
1.5435e-06
5.37562e-08
1.5431e-06
7.7639e-09
1.54957e-06
-2.25148e-08
1.56507e-06
-4.48829e-08
1.59015e-06
-6.23877e-08
1.61946e-06
-5.98963e-08
1.65575e-06
-7.54345e-08
1.70527e-06
-9.8099e-08
1.76147e-06
-1.08161e-07
1.81371e-06
-1.04353e-07
1.8923e-06
-1.31105e-07
1.95919e-06
-2.03732e-07
-2.6311e-07
2.08346e-06
1.76813e-06
1.71245e-07
1.75504e-06
1.36566e-07
1.74148e-06
1.61606e-07
1.74201e-06
1.41781e-07
1.75297e-06
9.56061e-08
1.75797e-06
4.87569e-08
1.75207e-06
1.36612e-08
1.74232e-06
-1.27636e-08
1.73941e-06
-4.19785e-08
1.74932e-06
-7.22941e-08
1.77916e-06
-8.97362e-08
1.81746e-06
-1.13735e-07
1.86355e-06
-1.44186e-07
1.91185e-06
-1.56467e-07
1.97558e-06
-1.6808e-07
2.04389e-06
-1.99411e-07
2.1075e-06
-2.67348e-07
-3.4113e-07
2.18552e-06
1.90202e-06
2.01279e-07
1.8731e-06
1.6548e-07
1.86564e-06
1.69067e-07
1.87566e-06
1.31765e-07
1.89116e-06
8.01004e-08
1.8982e-06
4.17171e-08
1.89275e-06
1.91146e-08
1.88368e-06
-3.69522e-09
1.88058e-06
-3.88792e-08
1.89149e-06
-8.31982e-08
1.9195e-06
-1.17754e-07
1.95697e-06
-1.512e-07
1.99954e-06
-1.86761e-07
2.0521e-06
-2.09026e-07
2.1126e-06
-2.28577e-07
2.17794e-06
-2.64746e-07
2.23858e-06
-3.27989e-07
-4.02288e-07
2.29973e-06
2.05835e-06
2.13128e-07
2.05013e-06
1.737e-07
2.04539e-06
1.73809e-07
2.04406e-06
1.3309e-07
2.04067e-06
8.34932e-08
2.03126e-06
5.11222e-08
2.0192e-06
3.11763e-08
2.01163e-06
3.88019e-09
2.01455e-06
-4.17992e-08
2.03006e-06
-9.87113e-08
2.06049e-06
-1.48186e-07
2.10043e-06
-1.91136e-07
2.14569e-06
-2.32026e-07
2.19817e-06
-2.615e-07
2.25599e-06
-2.864e-07
2.31744e-06
-3.26195e-07
2.37549e-06
-3.86042e-07
-4.57143e-07
2.43035e-06
2.21754e-06
2.40164e-07
2.18556e-06
2.05681e-07
2.18742e-06
1.71953e-07
2.19855e-06
1.21958e-07
2.19964e-06
8.24032e-08
2.18873e-06
6.2037e-08
2.1749e-06
4.50008e-08
2.16848e-06
1.02999e-08
2.1735e-06
-4.68127e-08
2.19082e-06
-1.16032e-07
2.22108e-06
-1.78454e-07
2.26005e-06
-2.30099e-07
2.30357e-06
-2.75549e-07
2.35354e-06
-3.11475e-07
2.40942e-06
-3.42275e-07
2.46703e-06
-3.83808e-07
2.52117e-06
-4.40174e-07
-5.06787e-07
2.57081e-06
2.36747e-06
3.42238e-07
2.35302e-06
2.20127e-07
2.36033e-06
1.64652e-07
2.36118e-06
1.21108e-07
2.35664e-06
8.69401e-08
2.35278e-06
6.58974e-08
2.35208e-06
4.56953e-08
2.35442e-06
7.96333e-09
2.36137e-06
-5.37595e-08
2.37463e-06
-1.29295e-07
2.39792e-06
-2.01743e-07
2.4313e-06
-2.63483e-07
2.4718e-06
-3.16045e-07
2.51889e-06
-3.58564e-07
2.57079e-06
-3.94174e-07
2.62307e-06
-4.36088e-07
2.6724e-06
-4.89509e-07
-5.51461e-07
2.71708e-06
2.58043e-06
3.13855e-07
2.54361e-06
2.56946e-07
2.52744e-06
1.8082e-07
2.52547e-06
1.23078e-07
2.53113e-06
8.12812e-08
2.53922e-06
5.78081e-08
2.54384e-06
4.10738e-08
2.54366e-06
8.14415e-09
2.54321e-06
-5.33068e-08
2.55068e-06
-1.36769e-07
2.57135e-06
-2.22409e-07
2.6044e-06
-2.96532e-07
2.64485e-06
-3.56499e-07
2.69034e-06
-4.04051e-07
2.73943e-06
-4.43267e-07
2.78823e-06
-4.84879e-07
2.83298e-06
-5.34266e-07
-5.9047e-07
2.87199e-06
2.79396e-06
3.62065e-07
2.78319e-06
2.67715e-07
2.76194e-06
2.02067e-07
2.75489e-06
1.30129e-07
2.75562e-06
8.05547e-08
2.74994e-06
6.34849e-08
2.73649e-06
5.45207e-08
2.72406e-06
2.0579e-08
2.7223e-06
-5.15454e-08
2.73458e-06
-1.49053e-07
2.75971e-06
-2.47536e-07
2.79425e-06
-3.3107e-07
2.83408e-06
-3.96332e-07
2.87688e-06
-4.46855e-07
2.9211e-06
-4.87482e-07
2.9637e-06
-5.27477e-07
3.0019e-06
-5.72469e-07
-6.22938e-07
3.03437e-06
2.97344e-06
3.45898e-07
2.95459e-06
2.86566e-07
2.92705e-06
2.29606e-07
2.91577e-06
1.41412e-07
2.91653e-06
7.97972e-08
2.91902e-06
6.09865e-08
2.9193e-06
5.42401e-08
2.92082e-06
1.90675e-08
2.92863e-06
-5.93559e-08
2.94448e-06
-1.64906e-07
2.96847e-06
-2.71523e-07
2.99942e-06
-3.62019e-07
3.03473e-06
-4.31648e-07
3.07225e-06
-4.84371e-07
3.11065e-06
-5.25886e-07
3.1476e-06
-5.64428e-07
3.18003e-06
-6.04894e-07
-6.48926e-07
3.20602e-06
3.12475e-06
3.08307e-07
3.15951e-06
2.5181e-07
3.16938e-06
2.19735e-07
3.17405e-06
1.36739e-07
3.17381e-06
8.00352e-08
3.16762e-06
6.71825e-08
3.16105e-06
6.08128e-08
3.15979e-06
2.03198e-08
3.16539e-06
-6.4954e-08
3.17736e-06
-1.76878e-07
3.19563e-06
-2.89785e-07
3.21993e-06
-3.86328e-07
3.24892e-06
-4.60637e-07
3.28062e-06
-5.1607e-07
3.3129e-06
-5.58166e-07
3.34311e-06
-5.9464e-07
3.36855e-06
-6.30332e-07
-6.67997e-07
3.38762e-06
2.88392e-06
3.25019e-07
2.83715e-06
2.9858e-07
2.83044e-06
2.26446e-07
2.84477e-06
1.22403e-07
2.85601e-06
6.87989e-08
2.856e-06
6.71923e-08
2.85005e-06
6.67604e-08
2.84479e-06
2.55823e-08
2.84417e-06
-6.4339e-08
2.84994e-06
-1.82641e-07
2.8631e-06
-3.02954e-07
2.88311e-06
-4.06333e-07
2.90764e-06
-4.85164e-07
2.93373e-06
-5.42162e-07
2.95894e-06
-5.83382e-07
2.98136e-06
-6.17056e-07
2.99907e-06
-6.48037e-07
-6.79735e-07
3.0108e-06
3.5183e-06
3.81875e-07
3.47937e-06
3.37504e-07
3.47297e-06
2.32847e-07
3.47714e-06
1.1824e-07
3.48016e-06
6.57733e-08
3.47873e-06
6.86226e-08
3.47328e-06
7.22146e-08
3.46754e-06
3.13145e-08
3.4652e-06
-6.19946e-08
3.47117e-06
-1.88616e-07
3.4863e-06
-3.18084e-07
3.50861e-06
-4.28636e-07
3.53459e-06
-5.11152e-07
3.56093e-06
-5.68497e-07
3.58506e-06
-6.07514e-07
3.60506e-06
-6.37052e-07
3.61919e-06
-6.6217e-07
-6.86954e-07
3.62641e-06
4.24694e-06
3.88374e-07
4.24389e-06
3.40552e-07
4.22402e-06
2.52719e-07
4.2012e-06
1.4106e-07
4.18978e-06
7.71968e-08
4.18999e-06
6.84111e-08
4.19474e-06
6.74634e-08
4.20041e-06
2.56381e-08
4.211e-06
-7.25839e-08
4.22706e-06
-2.0467e-07
4.24818e-06
-3.39208e-07
4.27237e-06
-4.52822e-07
4.29726e-06
-5.36046e-07
4.32054e-06
-5.91771e-07
4.3402e-06
-6.2718e-07
4.35476e-06
-6.51611e-07
4.36284e-06
-6.70245e-07
-6.8763e-07
4.36351e-06
5.15401e-06
3.61906e-07
5.18046e-06
3.14106e-07
5.19523e-06
2.3795e-07
5.18326e-06
1.53031e-07
5.16617e-06
9.42825e-08
5.16264e-06
7.19388e-08
5.17226e-06
5.78448e-08
5.18648e-06
1.14249e-08
5.19828e-06
-8.43857e-08
5.20796e-06
-2.14348e-07
5.21753e-06
-3.48779e-07
5.22829e-06
-4.63588e-07
5.23982e-06
-5.47569e-07
5.25049e-06
-6.02444e-07
5.25839e-06
-6.35082e-07
5.26175e-06
-6.54973e-07
5.25902e-06
-6.67512e-07
-6.77818e-07
5.24921e-06
6.32488e-06
3.7132e-07
6.30705e-06
3.3193e-07
6.29867e-06
2.46332e-07
6.30079e-06
1.50914e-07
6.31018e-06
8.4886e-08
6.32174e-06
6.03781e-08
6.33193e-06
4.76583e-08
6.33912e-06
4.23653e-09
6.34367e-06
-8.8935e-08
6.34769e-06
-2.1837e-07
6.35244e-06
-3.53526e-07
6.35749e-06
-4.68644e-07
6.36136e-06
-5.51437e-07
6.36235e-06
-6.03431e-07
6.359e-06
-6.3174e-07
6.35018e-06
-6.46152e-07
6.33499e-06
-6.52315e-07
-6.55682e-07
6.31285e-06
7.59862e-06
3.14427e-07
7.68224e-06
2.48306e-07
7.74616e-06
1.82415e-07
7.78431e-06
1.12762e-07
7.79763e-06
7.15706e-08
7.79427e-06
6.37354e-08
7.78436e-06
5.75668e-08
7.77496e-06
1.36344e-08
7.76983e-06
-8.37994e-08
7.7653e-06
-2.13846e-07
7.75866e-06
-3.46879e-07
7.7488e-06
-4.58783e-07
7.73549e-06
-5.38135e-07
7.7184e-06
-5.86338e-07
7.69693e-06
-6.1027e-07
7.67035e-06
-6.1957e-07
7.63807e-06
-6.20037e-07
-6.17371e-07
7.59976e-06
9.64392e-06
3.31742e-07
9.58968e-06
3.02548e-07
9.56206e-06
2.1003e-07
9.55276e-06
1.22067e-07
9.56053e-06
6.37984e-08
9.58433e-06
3.99338e-08
9.61035e-06
3.15457e-08
9.62212e-06
1.86884e-09
9.60845e-06
-7.01315e-08
9.57486e-06
-1.80253e-07
9.53034e-06
-3.02355e-07
9.48187e-06
-4.10318e-07
9.43287e-06
-4.89133e-07
9.38381e-06
-5.37279e-07
9.33383e-06
-5.60293e-07
9.28162e-06
-5.67362e-07
9.22621e-06
-5.64626e-07
-5.57967e-07
9.16681e-06
1.16808e-05
5.22233e-07
1.15418e-05
4.4155e-07
1.15043e-05
2.47544e-07
1.15035e-05
1.22935e-07
1.15043e-05
6.29209e-08
1.14975e-05
4.67982e-08
1.14857e-05
4.33425e-08
1.14738e-05
1.3762e-08
1.14643e-05
-6.06353e-08
1.14536e-05
-1.69524e-07
1.14374e-05
-2.86195e-07
1.14124e-05
-3.85351e-07
1.1377e-05
-4.53706e-07
1.13311e-05
-4.91335e-07
1.12757e-05
-5.04928e-07
1.12122e-05
-5.03914e-07
1.11422e-05
-4.94555e-07
-4.82506e-07
1.10667e-05
8.39808e-06
5.1844e-07
8.4729e-06
3.66726e-07
8.50063e-06
2.19819e-07
8.50685e-06
1.16709e-07
8.50692e-06
6.28508e-08
8.50435e-06
4.93678e-08
8.5014e-06
4.62982e-08
8.49808e-06
1.70792e-08
8.49045e-06
-5.3004e-08
8.47605e-06
-1.55125e-07
8.45185e-06
-2.62e-07
8.41723e-06
-3.50726e-07
8.3735e-06
-4.09973e-07
8.32268e-06
-4.4052e-07
8.2668e-06
-4.49049e-07
8.20734e-06
-4.44452e-07
8.14544e-06
-4.32651e-07
-4.18819e-07
8.08175e-06
7.27608e-06
3.73513e-07
7.31844e-06
3.24365e-07
7.32153e-06
2.16732e-07
7.32854e-06
1.09697e-07
7.34576e-06
4.5627e-08
7.37039e-06
2.47404e-08
7.39682e-06
1.98627e-08
7.41624e-06
-2.33972e-09
7.42574e-06
-6.25016e-08
7.4189e-06
-1.48288e-07
7.3959e-06
-2.38999e-07
7.35947e-06
-3.14289e-07
7.31352e-06
-3.64024e-07
7.26153e-06
-3.88528e-07
7.206e-06
-3.93519e-07
7.1484e-06
-3.86855e-07
7.08967e-06
-3.73926e-07
-3.59454e-07
7.03031e-06
6.34114e-06
4.08799e-07
6.39847e-06
2.67028e-07
6.45323e-06
1.61976e-07
6.47987e-06
8.30564e-08
6.48025e-06
4.52423e-08
6.4698e-06
3.51927e-08
6.46133e-06
2.83303e-08
6.46112e-06
-2.12263e-09
6.45808e-06
-5.94674e-08
6.44914e-06
-1.39342e-07
6.431e-06
-2.20865e-07
6.40384e-06
-2.87123e-07
6.36867e-06
-3.28861e-07
6.32688e-06
-3.46732e-07
6.28006e-06
-3.46703e-07
6.22974e-06
-3.36538e-07
6.1773e-06
-3.21483e-07
-3.05865e-07
6.12371e-06
5.58062e-06
4.22032e-07
5.58924e-06
2.58406e-07
5.59805e-06
1.5317e-07
5.62149e-06
5.9617e-08
5.66041e-06
6.32626e-09
5.69612e-06
-5.22662e-10
5.71296e-06
1.14919e-08
5.70356e-06
7.27421e-09
5.68158e-06
-3.74879e-08
5.6532e-06
-1.10957e-07
5.62372e-06
-1.91383e-07
5.59312e-06
-2.56529e-07
5.55978e-06
-2.95516e-07
5.52233e-06
-3.09288e-07
5.4806e-06
-3.0497e-07
5.43531e-06
-2.91248e-07
5.38768e-06
-2.73857e-07
-2.57078e-07
5.3389e-06
4.82884e-06
4.58384e-07
4.85749e-06
2.29758e-07
4.89899e-06
1.11668e-07
4.92816e-06
3.04503e-08
4.94735e-06
-1.28654e-08
4.95964e-06
-1.28101e-08
4.96519e-06
5.93554e-09
4.96717e-06
5.29879e-09
4.96247e-06
-3.27914e-08
4.95329e-06
-1.01776e-07
4.93743e-06
-1.75528e-07
4.91343e-06
-2.32527e-07
4.88119e-06
-2.63271e-07
4.84216e-06
-2.70265e-07
4.79862e-06
-2.61421e-07
4.75259e-06
-2.45228e-07
4.70571e-06
-2.26972e-07
-2.1035e-07
4.65898e-06
4.28454e-06
4.83625e-07
4.33796e-06
1.76347e-07
4.38475e-06
6.48784e-08
4.39094e-06
2.42571e-08
4.37648e-06
1.59655e-09
4.36424e-06
-5.68671e-10
4.36717e-06
3.00079e-09
4.38228e-06
-9.81148e-09
4.39856e-06
-4.90747e-08
4.40217e-06
-1.05379e-07
4.38732e-06
-1.60686e-07
4.35506e-06
-2.00264e-07
4.31093e-06
-2.19135e-07
4.26102e-06
-2.20358e-07
4.20983e-06
-2.1023e-07
4.15977e-06
-1.95169e-07
4.11189e-06
-1.79091e-07
-1.64807e-07
4.06635e-06
3.69008e-06
3.78536e-07
3.77071e-06
9.57215e-08
3.80141e-06
3.41809e-08
3.81226e-06
1.34027e-08
3.81965e-06
-5.79764e-09
3.83076e-06
-1.16789e-08
3.84906e-06
-1.52986e-08
3.87099e-06
-3.1739e-08
3.88533e-06
-6.34136e-08
3.88299e-06
-1.03039e-07
3.86196e-06
-1.39652e-07
3.82598e-06
-1.64286e-07
3.78077e-06
-1.73929e-07
3.73159e-06
-1.71181e-07
3.68217e-06
-1.60802e-07
3.63449e-06
-1.47497e-07
3.58946e-06
-1.34059e-07
-1.22501e-07
3.54716e-06
3.26251e-06
2.5207e-07
3.31062e-06
4.76036e-08
3.32968e-06
1.51238e-08
3.34293e-06
1.50203e-10
3.35544e-06
-1.83031e-08
3.37107e-06
-2.73103e-08
3.39146e-06
-3.56875e-08
3.41185e-06
-5.21255e-08
3.42307e-06
-7.4638e-08
3.41751e-06
-9.74755e-08
3.39386e-06
-1.16e-07
3.35625e-06
-1.26677e-07
3.3108e-06
-1.28483e-07
3.26292e-06
-1.23304e-07
3.2161e-06
-1.13975e-07
3.17189e-06
-1.03295e-07
3.13078e-06
-9.29493e-08
-8.43357e-08
3.09262e-06
2.83875e-06
1.33705e-07
2.89422e-06
-7.86387e-09
2.91593e-06
-6.58245e-09
2.94009e-06
-2.40146e-08
2.95824e-06
-3.64522e-08
2.97377e-06
-4.28339e-08
2.99595e-06
-5.78707e-08
3.02293e-06
-7.91074e-08
3.04258e-06
-9.42856e-08
3.04343e-06
-9.83256e-08
3.02145e-06
-9.40192e-08
2.98033e-06
-8.55623e-08
2.92824e-06
-7.63856e-08
2.87347e-06
-6.85431e-08
2.82163e-06
-6.21311e-08
2.77502e-06
-5.66868e-08
2.73388e-06
-5.18099e-08
-4.78362e-08
2.69738e-06
2.51391e-06
6.11095e-08
2.54517e-06
-3.91265e-08
2.57697e-06
-3.8388e-08
2.59635e-06
-4.33905e-08
2.60161e-06
-4.17175e-08
2.60583e-06
-4.70454e-08
2.61419e-06
-6.62299e-08
2.61967e-06
-8.45931e-08
2.61342e-06
-8.80306e-08
2.59198e-06
-7.68942e-08
2.55735e-06
-5.93855e-08
2.51434e-06
-4.25465e-08
2.46834e-06
-3.0388e-08
2.42354e-06
-2.37498e-08
2.38227e-06
-2.08579e-08
2.34515e-06
-1.9562e-08
2.31198e-06
-1.86392e-08
-1.79256e-08
2.28207e-06
2.1462e-06
2.10708e-06
2.06869e-06
2.0253e-06
1.98358e-06
1.93653e-06
1.8703e-06
1.78571e-06
1.69768e-06
1.62079e-06
1.5614e-06
1.51885e-06
1.48847e-06
1.46472e-06
1.44386e-06
1.4243e-06
1.40566e-06
1.38773e-06
1.87233e-08
-1.87233e-08
5.04222e-08
-3.16989e-08
8.3388e-08
-3.29658e-08
1.16645e-07
-3.32573e-08
1.50471e-07
-3.38253e-08
1.85036e-07
-3.45654e-08
2.20443e-07
-3.54065e-08
2.56771e-07
-3.6329e-08
2.94093e-07
-3.73212e-08
3.32462e-07
-3.83698e-08
3.71922e-07
-3.94593e-08
4.12495e-07
-4.0573e-08
4.54188e-07
-4.1693e-08
4.96989e-07
-4.28015e-08
5.4087e-07
-4.38804e-08
5.85782e-07
-4.49126e-08
6.31664e-07
-4.58817e-08
6.78437e-07
-4.6773e-08
7.2601e-07
-4.75731e-08
7.74281e-07
-4.82707e-08
8.23138e-07
-4.88567e-08
8.72461e-07
-4.93238e-08
9.22128e-07
-4.9667e-08
9.72012e-07
-4.98834e-08
1.02198e-06
-4.99722e-08
1.07192e-06
-4.99341e-08
1.12169e-06
-4.97718e-08
1.17118e-06
-4.94894e-08
1.22027e-06
-4.90921e-08
1.26886e-06
-4.85862e-08
1.31684e-06
-4.79788e-08
1.36411e-06
-4.72778e-08
1.41061e-06
-4.64912e-08
1.45623e-06
-4.56274e-08
1.50093e-06
-4.4695e-08
1.54463e-06
-4.37023e-08
1.58729e-06
-4.26577e-08
1.62886e-06
-4.1569e-08
1.6693e-06
-4.0444e-08
1.70859e-06
-3.92899e-08
1.7467e-06
-3.81136e-08
1.78363e-06
-3.69214e-08
1.81934e-06
-3.57191e-08
1.85386e-06
-3.45122e-08
1.88716e-06
-3.33054e-08
1.91927e-06
-3.21031e-08
1.95017e-06
-3.09094e-08
1.9799e-06
-2.97277e-08
2.00846e-06
-2.85609e-08
2.03588e-06
-2.74119e-08
2.06216e-06
-2.62828e-08
2.08733e-06
-2.51757e-08
2.11143e-06
-2.4092e-08
2.13446e-06
-2.30333e-08
2.15646e-06
-2.20006e-08
2.17745e-06
-2.09947e-08
2.19747e-06
-2.00163e-08
2.21654e-06
-1.90657e-08
2.23468e-06
-1.81433e-08
2.25193e-06
-1.72493e-08
2.26831e-06
-1.63836e-08
2.28386e-06
-1.5546e-08
2.2986e-06
-1.47365e-08
2.31255e-06
-1.39547e-08
2.32575e-06
-1.32001e-08
2.33822e-06
-1.24724e-08
2.34999e-06
-1.17712e-08
2.36109e-06
-1.10957e-08
2.37154e-06
-1.04456e-08
2.38136e-06
-9.82015e-09
2.39057e-06
-9.21884e-09
2.39921e-06
-8.64094e-09
2.4073e-06
-8.08584e-09
2.41485e-06
-7.5529e-09
2.4219e-06
-7.04145e-09
2.42845e-06
-6.55084e-09
2.43453e-06
-6.08042e-09
2.44016e-06
-5.62954e-09
2.44535e-06
-5.1975e-09
2.45014e-06
-4.78373e-09
2.45452e-06
-4.38757e-09
2.45853e-06
-4.00836e-09
2.46218e-06
-3.64558e-09
2.46548e-06
-3.29854e-09
2.46844e-06
-2.96673e-09
2.47109e-06
-2.64947e-09
2.47344e-06
-2.34634e-09
2.4755e-06
-2.05658e-09
2.47728e-06
-1.77988e-09
2.47879e-06
-1.51562e-09
2.48005e-06
-1.2626e-09
2.48108e-06
-1.02211e-09
2.48187e-06
-7.91507e-10
2.48244e-06
-5.68021e-10
2.4828e-06
-3.59399e-10
2.48295e-06
-1.57939e-10
2.4829e-06
5.46938e-11
2.48262e-06
2.75228e-10
2.48215e-06
4.75301e-10
2.48149e-06
6.54405e-10
2.48068e-06
8.15709e-10
2.47971e-06
9.63614e-10
2.47861e-06
1.1017e-09
2.47738e-06
1.23229e-09
2.47602e-06
1.35643e-09
2.47455e-06
1.47481e-09
2.47296e-06
1.58779e-09
2.47127e-06
1.69564e-09
2.46947e-06
1.79866e-09
2.46757e-06
1.89708e-09
2.46558e-06
1.9912e-09
2.4635e-06
2.08121e-09
2.46133e-06
2.16733e-09
2.45908e-06
2.24978e-09
2.45675e-06
2.32878e-09
2.45435e-06
2.40456e-09
2.45187e-06
2.47721e-09
2.44932e-06
2.54707e-09
2.44671e-06
2.6141e-09
2.44403e-06
2.67862e-09
2.44129e-06
2.7407e-09
2.43849e-06
2.80061e-09
2.43563e-06
2.85847e-09
2.43272e-06
2.91445e-09
2.42975e-06
2.96859e-09
2.42673e-06
3.02091e-09
2.42365e-06
3.07168e-09
2.42053e-06
3.12089e-09
2.41737e-06
3.16875e-09
2.41415e-06
3.21534e-09
2.41089e-06
3.26073e-09
2.40758e-06
3.30505e-09
2.40424e-06
3.34834e-09
2.40085e-06
3.39071e-09
2.39741e-06
3.43226e-09
2.39394e-06
3.47307e-09
2.39043e-06
3.51315e-09
2.38687e-06
3.55271e-09
2.38328e-06
3.59166e-09
2.37965e-06
3.6301e-09
2.37598e-06
3.66811e-09
2.37228e-06
3.70579e-09
2.36854e-06
3.74329e-09
2.36475e-06
3.78065e-09
2.36094e-06
3.81792e-09
2.35708e-06
3.85519e-09
2.35319e-06
3.89255e-09
2.34926e-06
3.93015e-09
2.34529e-06
3.96811e-09
2.34128e-06
4.00656e-09
2.33724e-06
4.04565e-09
2.33315e-06
4.08565e-09
2.32903e-06
4.12679e-09
2.32486e-06
4.16939e-09
2.32064e-06
4.21387e-09
2.31638e-06
4.26075e-09
2.31207e-06
4.31071e-09
2.30771e-06
4.36455e-09
2.30328e-06
4.42335e-09
2.29879e-06
4.48845e-09
2.29423e-06
4.56166e-09
2.28959e-06
4.64523e-09
2.28485e-06
4.7422e-09
2.27999e-06
4.85645e-09
2.275e-06
4.9932e-09
2.26984e-06
5.1594e-09
2.26447e-06
5.36432e-09
2.25885e-06
5.62071e-09
2.25291e-06
5.94643e-09
2.24654e-06
6.36549e-09
2.23962e-06
6.91789e-09
2.23198e-06
7.64198e-09
2.2233e-06
8.679e-09
2.21336e-06
9.94052e-09
2.20091e-06
1.2451e-08
2.1869e-06
1.40058e-08
2.16272e-06
2.418e-08
2.14048e-06
2.22394e-08
2.06055e-06
7.99324e-08
8.29753e-08
1.97758e-06
1.91945e-08
-3.79177e-08
5.25244e-08
-6.50288e-08
8.70134e-08
-6.74548e-08
1.2175e-07
-6.79943e-08
1.57077e-07
-6.91521e-08
1.9319e-07
-7.06782e-08
2.30204e-07
-7.24205e-08
2.68211e-07
-7.43359e-08
3.07288e-07
-7.63978e-08
3.47494e-07
-7.85765e-08
3.88874e-07
-8.08386e-08
4.31449e-07
-8.31481e-08
4.75224e-07
-8.5468e-08
5.20183e-07
-8.77608e-08
5.66291e-07
-8.99888e-08
6.13495e-07
-9.21164e-08
6.61724e-07
-9.41101e-08
7.1089e-07
-9.59394e-08
7.60895e-07
-9.75776e-08
8.11626e-07
-9.90017e-08
8.62962e-07
-1.00193e-07
9.14777e-07
-1.01139e-07
9.66939e-07
-1.01828e-07
1.01931e-06
-1.02257e-07
1.07176e-06
-1.02423e-07
1.12416e-06
-1.0233e-07
1.17637e-06
-1.01983e-07
1.22827e-06
-1.01391e-07
1.27974e-06
-1.00565e-07
1.33068e-06
-9.9519e-08
1.38097e-06
-9.82677e-08
1.43051e-06
-9.6827e-08
1.47924e-06
-9.52135e-08
1.52705e-06
-9.34446e-08
1.5739e-06
-9.15375e-08
1.6197e-06
-8.95093e-08
1.66442e-06
-8.73768e-08
1.70801e-06
-8.5156e-08
1.75043e-06
-8.28626e-08
1.79165e-06
-8.05109e-08
1.83165e-06
-7.81149e-08
1.87042e-06
-7.56872e-08
1.90794e-06
-7.32395e-08
1.94421e-06
-7.07827e-08
1.97923e-06
-6.83264e-08
2.013e-06
-6.58794e-08
2.04554e-06
-6.34497e-08
2.07686e-06
-6.10442e-08
2.10697e-06
-5.8669e-08
2.13589e-06
-5.63294e-08
2.16363e-06
-5.40301e-08
2.19023e-06
-5.1775e-08
2.21571e-06
-4.95673e-08
2.24008e-06
-4.74099e-08
2.26339e-06
-4.53048e-08
2.28565e-06
-4.32538e-08
2.30689e-06
-4.12583e-08
2.32714e-06
-3.93191e-08
2.34644e-06
-3.74369e-08
2.3648e-06
-3.56119e-08
2.38226e-06
-3.38441e-08
2.39885e-06
-3.21335e-08
2.41459e-06
-3.04795e-08
2.42952e-06
-2.88816e-08
2.44366e-06
-2.7339e-08
2.45704e-06
-2.5851e-08
2.46968e-06
-2.44166e-08
2.48162e-06
-2.30347e-08
2.49288e-06
-2.17042e-08
2.50348e-06
-2.04239e-08
2.51346e-06
-1.91927e-08
2.52282e-06
-1.80092e-08
2.53161e-06
-1.68721e-08
2.53984e-06
-1.57802e-08
2.54753e-06
-1.47322e-08
2.5547e-06
-1.37267e-08
2.56139e-06
-1.27624e-08
2.56759e-06
-1.18379e-08
2.57335e-06
-1.09522e-08
2.57867e-06
-1.01036e-08
2.58357e-06
-9.29112e-09
2.58808e-06
-8.51337e-09
2.5922e-06
-7.76921e-09
2.59596e-06
-7.05731e-09
2.59937e-06
-6.37657e-09
2.60245e-06
-5.72578e-09
2.6052e-06
-5.10385e-09
2.60766e-06
-4.50956e-09
2.60982e-06
-3.94191e-09
2.6117e-06
-3.39966e-09
2.61332e-06
-2.88202e-09
2.61469e-06
-2.38784e-09
2.61581e-06
-1.91623e-09
2.61671e-06
-1.46647e-09
2.61739e-06
-1.03737e-09
2.61786e-06
-6.27633e-10
2.61815e-06
-2.34438e-10
2.61828e-06
1.38675e-10
2.61827e-06
4.9084e-10
2.6181e-06
8.27378e-10
2.61776e-06
1.14823e-09
2.61727e-06
1.45481e-09
2.61663e-06
1.74744e-09
2.61583e-06
2.02658e-09
2.6149e-06
2.29283e-09
2.61382e-06
2.5468e-09
2.61262e-06
2.78905e-09
2.6113e-06
3.02014e-09
2.60986e-06
3.2406e-09
2.6083e-06
3.45103e-09
2.60664e-06
3.65191e-09
2.60488e-06
3.84378e-09
2.60302e-06
4.0271e-09
2.60107e-06
4.20241e-09
2.59903e-06
4.37004e-09
2.5969e-06
4.53052e-09
2.59469e-06
4.68424e-09
2.59241e-06
4.83153e-09
2.59005e-06
4.97279e-09
2.58762e-06
5.10838e-09
2.58512e-06
5.23865e-09
2.58256e-06
5.36403e-09
2.57993e-06
5.48484e-09
2.57725e-06
5.60138e-09
2.5745e-06
5.71386e-09
2.5717e-06
5.82243e-09
2.56884e-06
5.92734e-09
2.56593e-06
6.02888e-09
2.56298e-06
6.12736e-09
2.55997e-06
6.22293e-09
2.55691e-06
6.31586e-09
2.55381e-06
6.40632e-09
2.55067e-06
6.49449e-09
2.54748e-06
6.5806e-09
2.54424e-06
6.66483e-09
2.54097e-06
6.74726e-09
2.53765e-06
6.8282e-09
2.5343e-06
6.90768e-09
2.5309e-06
6.98586e-09
2.52747e-06
7.06288e-09
2.524e-06
7.13888e-09
2.52049e-06
7.21403e-09
2.51695e-06
7.28861e-09
2.51337e-06
7.36274e-09
2.50975e-06
7.4366e-09
2.50609e-06
7.51031e-09
2.5024e-06
7.58406e-09
2.49867e-06
7.65805e-09
2.49491e-06
7.73256e-09
2.49111e-06
7.80788e-09
2.48727e-06
7.88431e-09
2.48339e-06
7.96235e-09
2.47948e-06
8.04237e-09
2.47552e-06
8.12513e-09
2.47152e-06
8.2113e-09
2.46748e-06
8.30193e-09
2.46339e-06
8.39816e-09
2.45926e-06
8.50162e-09
2.45507e-06
8.61427e-09
2.45082e-06
8.73869e-09
2.4465e-06
8.87819e-09
2.44211e-06
9.03699e-09
2.43763e-06
9.2207e-09
2.43305e-06
9.43666e-09
2.42835e-06
9.69442e-09
2.4235e-06
1.00069e-08
2.41847e-06
1.03914e-08
2.41322e-06
1.08711e-08
2.40769e-06
1.14791e-08
2.4018e-06
1.22586e-08
2.39543e-06
1.32842e-08
2.38845e-06
1.46209e-08
2.38061e-06
1.65247e-08
2.37166e-06
1.8887e-08
2.36091e-06
2.32002e-08
2.34778e-06
2.71337e-08
2.3305e-06
4.14661e-08
2.30596e-06
4.67732e-08
2.27946e-06
1.06437e-07
1.22312e-07
2.24012e-06
1.83459e-08
-5.62637e-08
5.05841e-08
-9.7267e-08
8.40487e-08
-1.00919e-07
1.17828e-07
-1.01774e-07
1.52282e-07
-1.03605e-07
1.87623e-07
-1.0602e-07
2.23984e-07
-1.08781e-07
2.61468e-07
-1.1182e-07
3.00161e-07
-1.1509e-07
3.40128e-07
-1.18544e-07
3.81414e-07
-1.22125e-07
4.2404e-07
-1.25774e-07
4.68003e-07
-1.29431e-07
5.13277e-07
-1.33035e-07
5.59816e-07
-1.36527e-07
6.0755e-07
-1.3985e-07
6.56393e-07
-1.42953e-07
7.06241e-07
-1.45788e-07
7.56979e-07
-1.48315e-07
8.08477e-07
-1.50499e-07
8.60597e-07
-1.52314e-07
9.13199e-07
-1.5374e-07
9.66135e-07
-1.54765e-07
1.01926e-06
-1.55382e-07
1.07243e-06
-1.55592e-07
1.1255e-06
-1.55402e-07
1.17834e-06
-1.54822e-07
1.23082e-06
-1.53867e-07
1.28281e-06
-1.52558e-07
1.33421e-06
-1.50914e-07
1.3849e-06
-1.48962e-07
1.4348e-06
-1.46725e-07
1.48381e-06
-1.4423e-07
1.53187e-06
-1.41503e-07
1.57891e-06
-1.38573e-07
1.62486e-06
-1.35463e-07
1.66969e-06
-1.32201e-07
1.71334e-06
-1.28811e-07
1.75579e-06
-1.25315e-07
1.79702e-06
-1.21736e-07
1.837e-06
-1.18094e-07
1.87572e-06
-1.14409e-07
1.91318e-06
-1.10697e-07
1.94937e-06
-1.06974e-07
1.9843e-06
-1.03255e-07
2.01797e-06
-9.95535e-08
2.0504e-06
-9.58799e-08
2.0816e-06
-9.22448e-08
2.11159e-06
-8.86572e-08
2.14039e-06
-8.51248e-08
2.16801e-06
-8.16545e-08
2.19449e-06
-7.82517e-08
2.21984e-06
-7.49213e-08
2.2441e-06
-7.16673e-08
2.26729e-06
-6.84928e-08
2.28943e-06
-6.54002e-08
2.31057e-06
-6.23914e-08
2.33071e-06
-5.94678e-08
2.34991e-06
-5.66301e-08
2.36817e-06
-5.38787e-08
2.38554e-06
-5.12136e-08
2.40204e-06
-4.86345e-08
2.41771e-06
-4.61407e-08
2.43256e-06
-4.37314e-08
2.44662e-06
-4.14054e-08
2.45993e-06
-3.91615e-08
2.47251e-06
-3.69982e-08
2.48439e-06
-3.49139e-08
2.4956e-06
-3.2907e-08
2.50615e-06
-3.09757e-08
2.51607e-06
-2.91182e-08
2.5254e-06
-2.73326e-08
2.53414e-06
-2.56168e-08
2.54233e-06
-2.39691e-08
2.54999e-06
-2.23874e-08
2.55713e-06
-2.08698e-08
2.56378e-06
-1.94142e-08
2.56996e-06
-1.80188e-08
2.57569e-06
-1.66815e-08
2.58099e-06
-1.54003e-08
2.58587e-06
-1.41736e-08
2.59036e-06
-1.29992e-08
2.59446e-06
-1.18754e-08
2.5982e-06
-1.08003e-08
2.6016e-06
-9.77227e-09
2.60466e-06
-8.78938e-09
2.60741e-06
-7.85e-09
2.60985e-06
-6.95246e-09
2.61201e-06
-6.095e-09
2.61388e-06
-5.27607e-09
2.6155e-06
-4.49434e-09
2.61685e-06
-3.74772e-09
2.61797e-06
-3.03467e-09
2.61886e-06
-2.35478e-09
2.61953e-06
-1.70487e-09
2.61999e-06
-1.08556e-09
2.62025e-06
-5.01048e-10
2.62034e-06
5.39256e-11
2.62024e-06
5.90647e-10
2.61997e-06
1.10046e-09
2.61953e-06
1.58695e-09
2.61893e-06
2.05075e-09
2.61819e-06
2.49304e-09
2.6173e-06
2.91473e-09
2.61627e-06
3.31676e-09
2.61512e-06
3.70014e-09
2.61384e-06
4.06574e-09
2.61245e-06
4.41447e-09
2.61094e-06
4.74712e-09
2.60933e-06
5.06454e-09
2.60761e-06
5.36757e-09
2.6058e-06
5.65695e-09
2.60389e-06
5.93336e-09
2.6019e-06
6.1976e-09
2.59982e-06
6.45029e-09
2.59766e-06
6.69209e-09
2.59542e-06
6.92359e-09
2.5931e-06
7.14542e-09
2.59072e-06
7.35802e-09
2.58826e-06
7.56202e-09
2.58575e-06
7.75802e-09
2.58316e-06
7.94663e-09
2.58052e-06
8.12825e-09
2.57782e-06
8.30341e-09
2.57506e-06
8.47226e-09
2.57225e-06
8.63524e-09
2.56938e-06
8.79271e-09
2.56646e-06
8.94504e-09
2.5635e-06
9.09267e-09
2.56049e-06
9.23593e-09
2.55743e-06
9.37509e-09
2.55432e-06
9.51053e-09
2.55117e-06
9.64251e-09
2.54798e-06
9.77131e-09
2.54475e-06
9.89717e-09
2.54148e-06
1.00204e-08
2.53817e-06
1.01413e-08
2.53481e-06
1.02599e-08
2.53142e-06
1.03766e-08
2.52799e-06
1.04914e-08
2.52453e-06
1.06047e-08
2.52103e-06
1.07167e-08
2.51749e-06
1.08279e-08
2.51391e-06
1.09383e-08
2.5103e-06
1.10482e-08
2.50665e-06
1.11578e-08
2.50297e-06
1.12675e-08
2.49925e-06
1.13775e-08
2.49549e-06
1.14883e-08
2.4917e-06
1.16001e-08
2.48787e-06
1.17136e-08
2.484e-06
1.18294e-08
2.4801e-06
1.19482e-08
2.47615e-06
1.20709e-08
2.47217e-06
1.21986e-08
2.46813e-06
1.23329e-08
2.46406e-06
1.24755e-08
2.45993e-06
1.26287e-08
2.45575e-06
1.27955e-08
2.45151e-06
1.29797e-08
2.4472e-06
1.3186e-08
2.44282e-06
1.34209e-08
2.43834e-06
1.36924e-08
2.43377e-06
1.40115e-08
2.42907e-06
1.43923e-08
2.42423e-06
1.48535e-08
2.4192e-06
1.54207e-08
2.41394e-06
1.61278e-08
2.4084e-06
1.70229e-08
2.40248e-06
1.81692e-08
2.3961e-06
1.96731e-08
2.38908e-06
2.16351e-08
2.38121e-06
2.43977e-08
2.37218e-06
2.7911e-08
2.36149e-06
3.38913e-08
2.34826e-06
4.03637e-08
2.33258e-06
5.71463e-08
2.30955e-06
6.98021e-08
2.28905e-06
1.26941e-07
1.63842e-07
2.24752e-06
1.68185e-08
-7.30822e-08
4.75535e-08
-1.28002e-07
7.95343e-08
-1.329e-07
1.1191e-07
-1.3415e-07
1.45089e-07
-1.36783e-07
1.7932e-07
-1.40251e-07
2.14762e-07
-1.44224e-07
2.51542e-07
-1.48599e-07
2.89758e-07
-1.53306e-07
3.29485e-07
-1.58271e-07
3.70768e-07
-1.63407e-07
4.13621e-07
-1.68628e-07
4.58032e-07
-1.73841e-07
5.03955e-07
-1.78959e-07
5.51322e-07
-1.83895e-07
6.0004e-07
-1.88568e-07
6.49994e-07
-1.92907e-07
7.01051e-07
-1.96846e-07
7.53066e-07
-2.0033e-07
8.05882e-07
-2.03315e-07
8.59335e-07
-2.05767e-07
9.13258e-07
-2.07663e-07
9.67484e-07
-2.0899e-07
1.02185e-06
-2.09745e-07
1.07619e-06
-2.09932e-07
1.13035e-06
-2.09566e-07
1.18419e-06
-2.08664e-07
1.23758e-06
-2.07252e-07
1.29038e-06
-2.05359e-07
1.34248e-06
-2.03018e-07
1.39379e-06
-2.00264e-07
1.44419e-06
-1.97132e-07
1.49362e-06
-1.93661e-07
1.54201e-06
-1.89888e-07
1.58929e-06
-1.85849e-07
1.6354e-06
-1.81581e-07
1.68032e-06
-1.77117e-07
1.724e-06
-1.72492e-07
1.76642e-06
-1.67736e-07
1.80756e-06
-1.62877e-07
1.84741e-06
-1.57944e-07
1.88596e-06
-1.52961e-07
1.92322e-06
-1.47951e-07
1.95918e-06
-1.42934e-07
1.99385e-06
-1.3793e-07
2.02725e-06
-1.32954e-07
2.05939e-06
-1.28022e-07
2.0903e-06
-1.23146e-07
2.11998e-06
-1.18338e-07
2.14846e-06
-1.13608e-07
2.17577e-06
-1.08964e-07
2.20193e-06
-1.04413e-07
2.22697e-06
-9.99621e-08
2.25092e-06
-9.56149e-08
2.2738e-06
-9.13756e-08
2.29565e-06
-8.72474e-08
2.31649e-06
-8.32322e-08
2.33635e-06
-7.93318e-08
2.35527e-06
-7.55469e-08
2.37327e-06
-7.18778e-08
2.39038e-06
-6.83244e-08
2.40663e-06
-6.48861e-08
2.42205e-06
-6.1562e-08
2.43667e-06
-5.83507e-08
2.45052e-06
-5.52507e-08
2.46362e-06
-5.22602e-08
2.476e-06
-4.93773e-08
2.48768e-06
-4.65997e-08
2.4987e-06
-4.39254e-08
2.50908e-06
-4.13517e-08
2.51883e-06
-3.88763e-08
2.528e-06
-3.64967e-08
2.53659e-06
-3.42103e-08
2.54464e-06
-3.20144e-08
2.55216e-06
-2.99064e-08
2.55917e-06
-2.78837e-08
2.5657e-06
-2.59437e-08
2.57176e-06
-2.40837e-08
2.57738e-06
-2.23012e-08
2.58258e-06
-2.05934e-08
2.58736e-06
-1.89581e-08
2.59175e-06
-1.73925e-08
2.59577e-06
-1.58943e-08
2.59943e-06
-1.44611e-08
2.60275e-06
-1.30903e-08
2.60574e-06
-1.17799e-08
2.60842e-06
-1.05273e-08
2.6108e-06
-9.33054e-09
2.61289e-06
-8.18717e-09
2.61471e-06
-7.09513e-09
2.61627e-06
-6.05241e-09
2.61758e-06
-5.05688e-09
2.61865e-06
-4.10659e-09
2.61949e-06
-3.20031e-09
2.62013e-06
-2.33746e-09
2.62056e-06
-1.51449e-09
2.62078e-06
-7.28527e-10
2.62082e-06
1.98504e-11
2.62068e-06
7.31518e-10
2.62037e-06
1.41119e-09
2.61989e-06
2.05929e-09
2.61927e-06
2.67765e-09
2.61849e-06
3.26736e-09
2.61758e-06
3.82959e-09
2.61653e-06
4.36572e-09
2.61535e-06
4.87693e-09
2.61405e-06
5.36445e-09
2.61264e-06
5.82938e-09
2.61111e-06
6.27292e-09
2.60948e-06
6.69614e-09
2.60775e-06
7.10007e-09
2.60592e-06
7.48583e-09
2.604e-06
7.85432e-09
2.60199e-06
8.20647e-09
2.5999e-06
8.54324e-09
2.59772e-06
8.86548e-09
2.59547e-06
9.17394e-09
2.59315e-06
9.46941e-09
2.59075e-06
9.75266e-09
2.58829e-06
1.00244e-08
2.58576e-06
1.02855e-08
2.58317e-06
1.05368e-08
2.58052e-06
1.07787e-08
2.57782e-06
1.10118e-08
2.57505e-06
1.12366e-08
2.57223e-06
1.14535e-08
2.56936e-06
1.16631e-08
2.56644e-06
1.18658e-08
2.56347e-06
1.20623e-08
2.56046e-06
1.22528e-08
2.55739e-06
1.24379e-08
2.55428e-06
1.2618e-08
2.55113e-06
1.27935e-08