/*--------------------------------*- C++ -*----------------------------------*\
  =========                 |
  \\      /  F ield         | OpenFOAM: The Open Source CFD Toolbox
   \\    /   O peration     | Website:  https://openfoam.org
    \\  /    A nd           | Version:  7
     \\/     M anipulation  |
\*---------------------------------------------------------------------------*/
FoamFile
{
    version     2.0;
    format      ascii;
    class       volScalarField;
    location    "0.003";
    object      s;
}
// * * * * * * * * * * * * * * * * * * * * * * * * * * * * * * * * * * * * * //

dimensions      [0 0 0 0 0 0 0];

internalField   nonuniform List<scalar> 
12225
(
1
0.999999
0.999981
0.99969
0.997138
0.982746
0.923224
0.725558
0.485545
0.31285
0.185625
0.112949
0.0692305
0.0397451
0.023114
0.013201
0.0112601
0.00705379
1
1
0.999996
0.999948
0.999649
0.998514
0.995599
0.987376
0.962406
0.885116
0.67551
0.463182
0.30712
0.198835
0.126134
0.0793514
0.049935
0.0316895
1
1
0.999998
0.999984
0.999894
0.999458
0.99763
0.990823
0.967923
0.894091
0.687907
0.474877
0.316709
0.20565
0.131281
0.0832947
0.0522662
0.0328065
1
1
0.999999
0.999988
0.999914
0.999537
0.99791
0.991823
0.971335
0.905874
0.712562
0.492552
0.328035
0.212512
0.135159
0.0850578
0.0528351
0.0328758
1
1
0.999999
0.999988
0.999915
0.999528
0.997856
0.991675
0.971266
0.907082
0.717243
0.49731
0.33182
0.215023
0.136463
0.0855229
0.0527982
0.032573
1
1
0.999999
0.999989
0.999918
0.999547
0.997954
0.992135
0.973261
0.915101
0.738161
0.514134
0.343049
0.221588
0.139674
0.086708
0.0530303
0.0323865
1
1
0.999999
0.99999
0.999927
0.999605
0.998251
0.993326
0.977054
0.925767
0.761403
0.528358
0.350125
0.22467
0.140733
0.0867336
0.0525402
0.0317483
1
1
0.999999
0.99999
0.999932
0.99963
0.998344
0.993555
0.977401
0.925867
0.760376
0.527416
0.349405
0.223989
0.140074
0.0860172
0.0516991
0.0309152
1
1
0.999999
0.999991
0.999936
0.999642
0.998362
0.993562
0.977498
0.927046
0.766203
0.534859
0.355541
0.227933
0.14175
0.0863037
0.0513822
0.0303981
1
1
0.999999
0.99999
0.999931
0.999628
0.998344
0.993667
0.978412
0.931381
0.780613
0.546619
0.362385
0.230774
0.142435
0.0859337
0.0505827
0.0295474
1
1
0.999999
0.999992
0.999941
0.999679
0.99856
0.994453
0.980793
0.937673
0.79585
0.555983
0.366201
0.231719
0.142014
0.084909
0.0494338
0.028528
1
1
0.999999
0.999992
0.999941
0.999677
0.998537
0.994279
0.979953
0.934504
0.785586
0.546676
0.359372
0.226642
0.138134
0.082004
0.0473091
0.0270076
1
1
0.999999
0.999992
0.99994
0.999672
0.998519
0.994227
0.97981
0.934166
0.784928
0.546246
0.358929
0.226034
0.137205
0.0809403
0.0463702
0.0262629
1
1
0.999999
0.99999
0.999933
0.99964
0.998411
0.993953
0.9794
0.934433
0.789301
0.551732
0.362454
0.227292
0.137146
0.0802062
0.0454184
0.0253854
1
1
0.999999
0.999992
0.999942
0.999691
0.998639
0.994834
0.982285
0.942833
0.81311
0.569274
0.371617
0.231024
0.138079
0.0799146
0.0447036
0.0246503
1
1
0.999999
0.999992
0.999945
0.999705
0.998695
0.99499
0.982635
0.943589
0.815043
0.570189
0.371235
0.229671
0.136043
0.0777513
0.0428731
0.0232874
1
1
0.999999
0.999993
0.999951
0.99973
0.998783
0.995275
0.983569
0.946681
0.826187
0.580152
0.376421
0.231052
0.135535
0.0766144
0.0417248
0.0223592
1
1
0.999999
0.999994
0.999958
0.999775
0.998996
0.996082
0.98606
0.953311
0.844608
0.595124
0.38244
0.232257
0.134512
0.0749246
0.0401565
0.0211752
1
1
0.999999
0.999992
0.999946
0.999707
0.998687
0.994899
0.982165
0.941681
0.807742
0.559305
0.359277
0.21828
0.126446
0.0703747
0.0376245
0.0197392
1
1
0.999999
0.999993
0.99995
0.999732
0.998801
0.995369
0.983884
0.947473
0.828051
0.578984
0.372263
0.225485
0.129861
0.0717042
0.0379887
0.0197513
1
1
0.999999
0.999993
0.999951
0.999741
0.998865
0.995671
0.98499
0.950953
0.83944
0.59059
0.379443
0.229514
0.131921
0.0726633
0.0383815
0.0198857
1
1
0.999999
0.999993
0.99995
0.999731
0.998799
0.995364
0.983889
0.947515
0.828113
0.579039
0.372321
0.225478
0.129748
0.0715084
0.0377643
0.0195456
1
1
0.999999
0.999993
0.999953
0.999751
0.998896
0.995698
0.984763
0.949436
0.832598
0.583084
0.375112
0.227337
0.130897
0.0721522
0.0380872
0.0196916
1
1
0.999999
0.999993
0.999952
0.999744
0.998872
0.995693
0.985197
0.952459
0.847809
0.60665
0.394656
0.241007
0.139285
0.0768341
0.0405072
0.0208897
1
1
0.999999
0.999994
0.999962
0.999797
0.99912
0.99671
0.988924
0.96488
0.889881
0.673928
0.439413
0.268319
0.154531
0.0847626
0.0443877
0.0227356
1
1
0.999999
0.999995
0.999966
0.999824
0.999241
0.997158
0.99034
0.968966
0.90183
0.69749
0.455359
0.27801
0.159959
0.0875908
0.0457654
0.0233825
1
1
1
0.999996
0.99997
0.999843
0.999322
0.997454
0.991299
0.971886
0.910904
0.718452
0.470408
0.287075
0.164867
0.0900354
0.0469011
0.023891
1
1
1
0.999996
0.999976
0.999878
0.999477
0.998033
0.993242
0.978039
0.930313
0.771151
0.511779
0.312912
0.17929
0.0974597
0.0504813
0.0255708
1
1
1
0.999996
0.999975
0.99986
0.999328
0.997163
0.98932
0.964053
0.891455
0.685559
0.447026
0.270739
0.153779
0.0828909
0.042582
0.0214026
1
1
0.999999
0.999992
0.999934
0.999567
0.99757
0.98795
0.946804
0.784435
0.472269
0.254587
0.127672
0.0605639
0.0274353
0.0119522
0.00501387
0.00207973
3.1212e-41
1.54246e-37
2.178e-36
1.61387e-35
6.23858e-35
1.91393e-34
3.90478e-34
5.92187e-34
5.76476e-34
3.75888e-34
1.76117e-34
7.02134e-35
2.44737e-35
7.71862e-36
2.22195e-36
5.84685e-37
1.41041e-37
3.13217e-38
6.43269e-39
1.22708e-39
2.18288e-40
3.63469e-41
5.68404e-42
8.37458e-43
1.16587e-43
1.5378e-44
1.92668e-45
2.29834e-46
2.61625e-47
2.84781e-48
2.97006e-49
2.97331e-50
2.86214e-51
2.65354e-52
2.37305e-53
2.05005e-54
1.71309e-55
1.38646e-56
1.08809e-57
8.28949e-59
6.13696e-60
4.41937e-61
3.09843e-62
2.11672e-63
1.41013e-64
9.16743e-66
5.81991e-67
3.61021e-68
2.18949e-69
1.2989e-70
7.54122e-72
4.28676e-73
2.38679e-74
1.30215e-75
6.96336e-77
3.65109e-78
1.87758e-79
9.47242e-81
4.68942e-82
2.27862e-83
1.08695e-84
5.09122e-86
2.34199e-87
1.05822e-88
4.69743e-90
2.04884e-91
8.78178e-93
3.69948e-94
1.53193e-95
6.23633e-97
2.49612e-98
9.8241e-100
3.80241e-101
1.44746e-102
5.41976e-104
1.99626e-105
7.23361e-107
2.57888e-108
9.04648e-110
3.12271e-111
1.06076e-112
3.54621e-114
1.1668e-115
3.77868e-117
1.20451e-118
3.77947e-120
1.16738e-121
3.54945e-123
1.06241e-124
3.13041e-126
9.08e-128
2.59266e-129
7.28711e-131
2.01589e-132
5.48901e-134
1.47085e-135
3.88183e-137
1.01235e-138
2.60876e-140
6.64266e-142
1.67127e-143
4.15476e-145
1.02056e-146
2.47696e-148
5.94006e-150
1.40751e-151
3.29536e-153
7.62328e-155
1.7425e-156
3.93545e-158
8.78236e-160
1.93654e-161
4.21931e-163
9.08367e-165
1.93237e-166
4.06195e-168
8.43716e-170
1.73174e-171
3.51234e-173
7.03956e-175
1.39423e-176
2.72878e-178
5.27781e-180
1.00878e-181
1.90547e-183
3.55693e-185
6.56183e-187
1.19635e-188
2.15565e-190
3.83879e-192
6.75636e-194
1.17528e-195
2.02063e-197
3.43367e-199
5.76714e-201
9.57422e-203
1.57107e-204
2.54824e-206
4.08556e-208
6.47492e-210
1.01437e-211
1.57091e-213
2.40492e-215
3.63964e-217
5.44542e-219
8.05431e-221
1.17777e-222
1.70267e-224
2.43364e-226
3.43906e-228
4.80501e-230
6.63784e-232
9.06665e-234
1.22451e-235
1.63525e-237
2.15933e-239
2.81952e-241
3.64049e-243
4.64815e-245
5.86871e-247
7.32742e-249
9.04709e-251
1.10463e-252
1.33376e-254
1.59251e-256
1.88029e-258
2.19528e-260
2.53429e-262
2.89263e-264
3.26401e-266
3.64058e-268
4.01291e-270
4.37013e-272
4.69988e-274
4.98888e-276
5.17849e-278
9.48582e-280
1.60737e-281
1.68729e-283
1.62903e-285
9.53223e-39
3.81686e-35
5.44356e-34
4.2057e-33
1.75302e-32
5.91601e-32
1.37167e-31
2.33466e-31
2.43127e-31
1.66817e-31
8.03777e-32
3.26103e-32
1.14769e-32
3.64559e-33
1.05604e-33
2.79293e-34
6.76322e-35
1.50629e-35
3.10046e-36
5.92521e-37
1.05579e-37
1.76084e-38
2.75846e-39
4.07212e-40
5.68177e-41
7.5138e-42
9.44207e-43
1.13018e-43
1.29145e-44
1.41178e-45
1.47933e-46
1.48858e-47
1.44091e-48
1.34388e-49
1.20951e-50
1.05195e-51
8.85334e-53
7.21915e-54
5.71014e-55
4.386e-56
3.27492e-57
2.37937e-58
1.68363e-59
1.16124e-60
7.81307e-62
5.13178e-63
3.2927e-64
2.06512e-65
1.26677e-66
7.60404e-68
4.46884e-69
2.57245e-70
1.45105e-71
8.0236e-73
4.35069e-74
2.31415e-75
1.20782e-76
6.18737e-78
3.11185e-79
1.53689e-80
7.45543e-82
3.55305e-83
1.66385e-84
7.6575e-86
3.46417e-87
1.54071e-88
6.73781e-90
2.89774e-91
1.22576e-92
5.10058e-94
2.08812e-95
8.4115e-97
3.33447e-98
1.30097e-99
4.99633e-101
1.88897e-102
7.03142e-104
2.57722e-105
9.30246e-107
3.30697e-108
1.15796e-109
3.99425e-111
1.35737e-112
4.54492e-114
1.49955e-115
4.87582e-117
1.56252e-118
4.93555e-120
1.5368e-121
4.71747e-123
1.42774e-124
4.26066e-126
1.2538e-127
3.63862e-129
1.04145e-130
2.94017e-132
8.18769e-134
2.25059e-135
6.11153e-137
1.63955e-138
4.34531e-140
1.13773e-141
2.94295e-143
7.52051e-145
1.89861e-146
4.73531e-148
1.16677e-149
2.84022e-151
6.83042e-153
1.62284e-154
3.80925e-156
8.83375e-158
2.02393e-159
4.5814e-161
1.0246e-162
2.264e-164
4.94271e-166
1.06618e-167
2.27234e-169
4.78527e-171
9.95715e-173
2.04722e-174
4.15915e-176
8.34951e-178
1.65631e-179
3.24678e-181
6.28933e-183
1.20394e-184
2.2775e-186
4.25771e-188
7.86622e-190
1.43627e-191
2.59178e-193
4.6223e-195
8.14752e-197
1.41941e-198
2.4441e-200
4.15973e-202
6.9977e-204
1.16359e-205
1.91253e-207
3.10736e-209
4.99067e-211
7.92353e-213
1.24361e-214
1.92957e-216
2.95979e-218
4.48844e-220
6.72937e-222
9.97486e-224
1.46185e-225
2.11823e-227
3.03478e-229
4.29907e-231
6.02179e-233
8.34044e-235
1.14228e-236
1.547e-238
2.07178e-240
2.74374e-242
3.5933e-244
4.65374e-246
5.96033e-248
7.5492e-250
9.45566e-252
1.17122e-253
1.4346e-255
1.73761e-257
2.08104e-259
2.46421e-261
2.88468e-263
3.33784e-265
3.81665e-267
4.31126e-269
4.80872e-271
5.2923e-273
5.7404e-275
6.12679e-277
6.40788e-279
6.56795e-281
1.36704e-36
4.37984e-33
6.34159e-32
5.13462e-31
2.33168e-30
8.70592e-30
2.29949e-29
4.38699e-29
4.9269e-29
3.52909e-29
1.7527e-29
7.24042e-30
2.57163e-30
8.2198e-31
2.39421e-31
6.35934e-32
1.54459e-32
3.44694e-33
7.10403e-34
1.35875e-34
2.42251e-35
4.0423e-36
6.33603e-37
9.36012e-38
1.30723e-38
1.73083e-39
2.17833e-40
2.61222e-41
2.9915e-42
3.27848e-43
3.44514e-44
3.47765e-45
3.37793e-46
3.16224e-47
2.85739e-48
2.49566e-49
2.10966e-50
1.72819e-51
1.37349e-52
1.06019e-53
7.95638e-55
5.81072e-56
4.13348e-57
2.8664e-58
1.93923e-59
1.28088e-60
8.26543e-62
5.214e-63
3.21718e-64
1.94273e-65
1.14866e-66
6.65296e-68
3.77625e-69
2.10134e-70
1.14677e-71
6.13963e-73
3.22569e-74
1.66355e-75
8.42357e-77
4.18893e-78
2.04622e-79
9.82051e-81
4.63157e-82
2.14691e-83
9.78281e-85
4.38275e-86
1.93076e-87
8.3651e-89
3.56481e-90
1.49445e-91
6.16397e-93
2.50167e-94
9.99173e-96
3.92776e-97
1.51982e-98
5.78937e-100
2.17126e-101
8.01821e-103
2.91593e-104
1.04437e-105
3.68432e-107
1.28034e-108
4.38336e-110
1.47856e-111
4.91438e-113
1.60966e-114
5.1961e-116
1.65325e-117
5.18507e-119
1.60312e-120
4.88665e-122
1.46868e-123
4.35259e-125
1.27207e-126
3.66649e-128
1.04232e-129
2.92281e-131
8.08668e-133
2.21013e-134
5.96677e-136
1.59124e-137
4.19186e-139
1.09082e-140
2.80402e-142
7.12012e-144
1.78598e-145
4.42541e-147
1.08323e-148
2.61927e-150
6.25664e-152
1.47641e-153
3.44177e-155
7.92634e-157
1.80338e-158
4.05352e-160
9.00148e-162
1.97488e-163
4.28075e-165
9.16766e-167
1.93984e-168
4.05554e-170
8.37755e-172
1.70993e-173
3.44856e-175
6.8724e-177
1.35331e-178
2.63337e-180
5.06361e-182
9.62174e-184
1.80675e-185
3.35279e-187
6.1487e-189
1.1144e-190
1.99612e-192
3.53371e-194
6.18276e-196
1.06918e-197
1.82746e-199
3.0873e-201
5.15534e-203
8.50926e-205
1.38833e-206
2.23907e-208
3.56968e-210
5.62584e-212
8.76499e-214
1.34999e-215
2.05559e-217
3.09442e-219
4.60541e-221
6.77663e-223
9.85884e-225
1.41813e-226
2.01692e-228
2.83635e-230
3.944e-232
5.42285e-234
7.37294e-236
9.91254e-238
1.31785e-239
1.73258e-241
2.25252e-243
2.89599e-245
3.68195e-247
4.62924e-249
5.75558e-251
7.07625e-253
8.60273e-255
1.0341e-256
1.22899e-258
1.4439e-260
1.6767e-262
1.92399e-264
2.18089e-266
2.44079e-268
2.69526e-270
2.93295e-272
3.1422e-274
3.30102e-276
3.4063e-278
1.24852e-34
3.17264e-31
4.67654e-30
3.98533e-29
1.99292e-28
8.32592e-28
2.5012e-27
5.32639e-27
6.50787e-27
4.82696e-27
2.47701e-27
1.04264e-27
3.73594e-28
1.20038e-28
3.51297e-29
9.36531e-30
2.28027e-30
5.0962e-31
1.05117e-31
2.01142e-32
3.58717e-33
5.98739e-34
9.38863e-35
1.38783e-35
1.93999e-36
2.5718e-37
3.24186e-38
3.8952e-39
4.47116e-40
4.9133e-41
5.17881e-42
5.24537e-43
5.11379e-44
4.80634e-45
4.36145e-46
3.82639e-47
3.24978e-48
2.67516e-49
2.13683e-50
1.65799e-51
1.25089e-52
9.18518e-54
6.5701e-55
4.58172e-56
3.11739e-57
2.07096e-58
1.34419e-59
8.52958e-61
5.29447e-62
3.21645e-63
1.9134e-64
1.11508e-65
6.36883e-67
3.56644e-68
1.95878e-69
1.05548e-70
5.58169e-72
2.89766e-73
1.47708e-74
7.39503e-76
3.63704e-77
1.75758e-78
8.34688e-80
3.89627e-81
1.78797e-82
8.06725e-84
3.57939e-85
1.56196e-86
6.70448e-88
2.83107e-89
1.1762e-90
4.80847e-92
1.93454e-93
7.66025e-95
2.98573e-96
1.14563e-97
4.32789e-99
1.60985e-100
5.89686e-102
2.12727e-103
7.55847e-105
2.64545e-106
9.12136e-108
3.09853e-109
1.03712e-110
3.42075e-112
1.11191e-113
3.56217e-115
1.12485e-116
3.50144e-118
1.07451e-119
3.25102e-121
9.6987e-123
2.85316e-124
8.27738e-126
2.36838e-127
6.68393e-129
1.86085e-130
5.11716e-132
1.3899e-133
3.72889e-135
9.88132e-137
2.58639e-138
6.68682e-140
1.70764e-141
4.30749e-143
1.07328e-144
2.64157e-146
6.42217e-148
1.54232e-149
3.65887e-151
8.57445e-153
1.985e-154
4.53957e-156
1.0256e-157
2.28908e-159
5.0474e-161
1.09953e-162
2.36643e-164
5.03185e-166
1.05712e-167
2.19426e-169
4.50017e-171
9.11921e-173
1.82592e-174
3.61251e-176
7.06238e-178
1.36432e-179
2.60442e-181
4.91302e-183
9.15876e-185
1.68727e-186
3.07185e-188
5.52708e-190
9.82833e-192
1.72727e-193
3.0002e-195
5.15059e-197
8.73958e-199
1.46576e-200
2.42985e-202
3.98157e-204
6.44906e-206
1.03256e-207
1.63426e-209
2.55697e-211
3.95491e-213
6.04736e-215
9.1416e-217
1.36621e-218
2.01865e-220
2.94891e-222
4.25923e-224
6.08245e-226
8.58843e-228
1.19907e-229
1.65533e-231
2.25963e-233
3.05009e-235
4.07117e-237
5.37355e-239
7.01366e-241
9.0526e-243
1.15544e-244
1.45837e-246
1.82023e-248
2.24656e-250
2.74171e-252
3.30838e-254
3.94699e-256
4.65502e-258
5.42642e-260
6.25089e-262
7.11336e-264
7.99286e-266
8.86307e-268
9.68776e-270
1.04309e-271
1.10288e-273
1.14761e-275
8.27541e-33
1.64083e-29
2.47034e-28
2.22732e-27
1.24083e-26
5.86697e-26
2.00323e-25
4.72313e-25
6.31633e-25
4.8204e-25
2.55939e-25
1.09816e-25
3.96745e-26
1.2794e-26
3.75704e-27
1.00423e-27
2.44879e-28
5.47633e-29
1.12971e-29
2.16141e-30
3.85398e-31
6.43232e-32
1.0088e-32
1.49191e-33
2.08722e-34
2.7704e-35
3.49798e-36
4.21167e-37
4.84648e-38
5.34118e-39
5.64832e-40
5.74179e-41
5.62006e-42
5.30485e-43
4.83581e-44
4.26301e-45
3.63884e-46
3.0111e-47
2.41816e-48
1.88667e-49
1.43148e-50
1.05719e-51
7.60625e-53
5.33574e-54
3.65219e-55
2.44092e-56
1.59398e-57
1.01768e-58
6.35609e-60
3.88549e-61
2.32593e-62
1.36408e-63
7.84073e-65
4.41895e-66
2.44276e-67
1.3249e-68
7.05277e-70
3.68578e-71
1.89149e-72
9.53414e-74
4.72128e-75
2.29733e-76
1.09863e-77
5.16441e-79
2.38671e-80
1.08456e-81
4.84667e-83
2.13023e-84
9.21004e-86
3.9174e-87
1.63941e-88
6.75122e-90
2.73606e-91
1.09136e-92
4.28501e-94
1.65624e-95
6.30266e-97
2.36156e-98
8.71346e-100
3.16621e-101
1.13315e-102
3.99463e-104
1.38722e-105
4.74607e-107
1.59986e-108
5.31411e-110
1.73947e-111
5.61149e-113
1.78424e-114
5.59215e-116
1.7278e-117
5.26297e-119
1.58062e-120
4.68082e-122
1.36693e-123
3.93672e-125
1.11821e-126
3.13318e-128
8.67057e-130
2.36979e-131
6.39698e-133
1.70547e-134
4.4908e-136
1.16793e-137
3.00003e-139
7.61126e-141
1.90729e-142
4.72074e-144
1.1541e-145
2.78691e-147
6.64749e-149
1.56622e-150
3.64519e-152
8.38039e-154
1.90325e-155
4.26995e-157
9.46359e-159
2.07207e-160
4.48203e-162
9.57811e-164
2.02222e-165
4.2182e-167
8.69338e-169
1.7702e-170
3.56152e-172
7.0801e-174
1.39073e-175
2.69933e-177
5.17713e-179
9.81185e-181
1.8376e-182
3.40094e-184
6.22021e-186
1.12429e-187
2.00831e-189
3.54544e-191
6.18595e-193
1.06672e-194
1.81808e-196
3.06268e-198
5.09951e-200
8.39273e-202
1.36533e-203
2.19552e-205
3.48993e-207
5.48383e-209
8.51826e-211
1.30806e-212
1.98574e-214
2.98021e-216
4.42192e-218
6.48671e-220
9.40803e-222
1.34909e-223
1.91278e-225
2.6815e-227
3.71695e-229
5.09453e-231
6.90455e-233
9.25315e-235
1.22623e-236
1.60691e-238
2.08231e-240
2.66835e-242
3.38125e-244
4.23689e-246
5.24982e-248
6.43211e-250
7.79207e-252
9.33276e-254
1.10504e-255
1.29329e-257
1.49579e-259
1.70917e-261
1.92863e-263
2.14816e-265
2.35947e-267
2.55479e-269
2.72113e-271
2.85954e-273
4.32707e-31
6.4911e-28
1.00233e-26
9.62527e-26
6.04809e-25
3.26687e-24
1.26773e-23
3.27485e-23
4.79876e-23
3.75698e-23
2.06382e-23
9.02767e-24
3.28624e-24
1.0613e-24
3.12131e-25
8.35262e-26
2.03719e-26
4.5537e-27
9.38616e-28
1.79421e-28
3.19681e-29
5.3329e-30
8.36269e-31
1.23714e-31
1.73213e-32
2.30197e-33
2.91162e-34
3.51351e-35
4.05404e-36
4.48194e-37
4.75662e-38
4.85452e-39
4.77218e-40
4.52549e-41
4.14578e-42
3.67375e-43
3.15291e-44
2.62369e-45
2.11926e-46
1.6633e-47
1.26965e-48
9.43445e-50
6.83024e-51
4.82155e-52
3.32118e-53
2.23387e-54
1.46814e-55
9.43384e-57
5.93016e-58
3.64867e-59
2.1984e-60
1.29772e-61
7.50838e-63
4.25959e-64
2.37031e-65
1.2942e-66
6.93564e-68
3.64911e-69
1.88544e-70
9.56894e-72
4.7713e-73
2.33786e-74
1.12587e-75
5.3299e-77
2.48074e-78
1.13537e-79
5.11033e-81
2.26241e-82
9.85278e-84
4.22145e-85
1.77963e-86
7.38261e-88
3.01403e-89
1.21112e-90
4.79038e-92
1.86526e-93
7.15055e-95
2.69903e-96
1.0032e-97
3.6721e-99
1.32383e-100
4.70087e-102
1.64434e-103
5.66643e-105
1.92385e-106
6.43599e-108
2.12167e-109
6.89283e-111
2.20704e-112
6.96548e-114
2.167e-115
6.6461e-117
2.00961e-118
5.99142e-120
1.76138e-121
5.10643e-123
1.46001e-124
4.11786e-126
1.14695e-127
3.15486e-129
8.56993e-131
2.29901e-132
6.09083e-134
1.59364e-135
4.11799e-137
1.05092e-138
2.64881e-140
6.59376e-142
1.62116e-143
3.93673e-145
9.44217e-147
2.23688e-148
5.2343e-150
1.20984e-151
2.76223e-153
6.22969e-155
1.38789e-156
3.05449e-158
6.64088e-160
1.42635e-161
3.02658e-163
6.34471e-165
1.31406e-166
2.68891e-168
5.43627e-170
1.08593e-171
2.14331e-173
4.1799e-175
8.05475e-177
1.53375e-178
2.8859e-180
5.36592e-182
9.85946e-184
1.79027e-185
3.21256e-187
5.69717e-189
9.98515e-191
1.72961e-192
2.96106e-194
5.01031e-196
8.37935e-198
1.38514e-199
2.26322e-201
3.65526e-203
5.83552e-205
9.20916e-207
1.43665e-208
2.21555e-210
3.37772e-212
5.0908e-214
7.58543e-216
1.11742e-217
1.62743e-219
2.34342e-221
3.33634e-223
4.69647e-225
6.53675e-227
8.99605e-229
1.22419e-230
1.64726e-232
2.19178e-234
2.88376e-236
3.75193e-238
4.82707e-240
6.14112e-242
7.7258e-244
9.61088e-246
1.18221e-247
1.43787e-249
1.72905e-251
2.0555e-253
2.41542e-255
2.80514e-257
3.21883e-259
3.64809e-261
4.0822e-263
4.50692e-265
4.90825e-267
5.26671e-269
5.57932e-271
1.92784e-29
2.05977e-26
3.28021e-25
3.38396e-24
2.42816e-23
1.50606e-22
6.63126e-22
1.85684e-21
2.9641e-21
2.38445e-21
1.35265e-21
6.0315e-22
2.21047e-22
7.13024e-23
2.09467e-23
5.6008e-24
1.36405e-24
3.04332e-25
6.26061e-26
1.1946e-26
2.12539e-27
3.54211e-28
5.55205e-29
8.21453e-30
1.15095e-30
1.5316e-31
1.94087e-32
2.34779e-33
2.717e-34
3.01415e-35
3.21139e-36
3.29169e-37
3.25112e-38
3.09867e-39
2.85392e-40
2.54325e-41
2.19551e-42
1.8381e-43
1.49399e-44
1.18004e-45
9.06623e-47
6.78131e-48
4.94216e-49
3.51215e-50
2.43557e-51
1.64929e-52
1.0913e-53
7.06003e-55
4.46815e-56
2.76783e-57
1.67902e-58
9.97877e-60
5.81284e-61
3.32018e-62
1.86018e-63
1.02263e-64
5.51797e-66
2.92326e-67
1.52087e-68
7.77252e-70
3.90273e-71
1.92576e-72
9.33985e-74
4.45306e-75
2.0875e-76
9.62294e-78
4.36275e-79
1.94554e-80
8.53493e-82
3.68374e-83
1.56442e-84
6.53795e-86
2.68902e-87
1.08856e-88
4.33772e-90
1.7016e-91
6.57178e-93
2.49905e-94
9.35777e-96
3.45074e-97
1.25324e-98
4.48305e-100
1.57968e-101
5.48348e-103
1.87531e-104
6.31907e-106
2.09815e-107
6.86526e-109
2.21386e-110
7.03645e-112
2.20445e-113
6.8081e-115
2.07284e-116
6.22234e-118
1.84172e-119
5.3754e-121
1.5472e-122
4.39322e-124
1.23178e-125
3.41034e-127
9.32362e-129
2.51709e-130
6.71035e-132
1.76657e-133
4.59264e-135
1.17909e-136
2.98947e-138
7.48532e-140
1.85099e-141
4.52048e-143
1.09034e-144
2.59743e-146
6.11145e-148
1.42027e-149
3.26015e-151
7.39184e-153
1.6555e-154
3.66247e-156
8.00394e-158
1.72793e-159
3.68513e-161
7.76418e-163
1.61609e-164
3.32331e-166
6.75187e-168
1.3553e-169
2.68793e-171
5.2672e-173
1.01984e-174
1.95113e-176
3.68853e-178
6.89036e-180
1.27193e-181
2.32023e-183
4.18265e-185
7.4514e-187
1.3119e-188
2.2827e-190
3.92549e-192
6.67186e-194
1.12077e-195
1.86088e-197
3.05392e-199
4.95388e-201
7.94318e-203
1.25897e-204
1.97249e-206
3.05497e-208
4.67737e-210
7.0796e-212
1.05935e-213
1.56712e-215
2.29196e-217
3.31412e-219
4.73796e-221
6.69711e-223
9.3598e-225
1.29341e-226
1.76729e-228
2.38774e-230
3.18994e-232
4.21405e-234
5.50481e-236
7.11076e-238
9.08281e-240
1.14724e-241
1.43288e-243
1.76962e-245
2.16096e-247
2.60907e-249
3.1143e-251
3.67471e-253
4.28554e-255
4.93878e-257
5.62268e-259
6.32193e-261
7.01661e-263
7.68693e-265
8.30742e-267
8.87276e-269
8.12484e-28
5.45924e-25
9.03455e-24
1.01214e-22
8.37782e-22
5.95404e-21
2.9519e-20
8.897e-20
1.525e-19
1.26939e-19
7.40559e-20
3.36546e-20
1.24068e-20
3.98466e-21
1.16513e-21
3.10521e-22
7.53638e-23
1.67544e-23
3.43523e-24
6.53625e-25
1.16033e-25
1.93084e-26
3.02413e-27
4.4742e-28
6.27321e-29
8.35953e-30
1.06151e-30
1.28751e-31
1.49484e-32
1.66463e-33
1.78117e-34
1.83436e-35
1.82108e-36
1.74524e-37
1.61676e-38
1.44956e-39
1.25931e-40
1.06122e-41
8.68347e-43
6.90583e-44
5.34274e-45
4.02445e-46
2.95387e-47
2.11421e-48
1.47668e-49
1.00716e-50
6.71212e-52
4.37351e-53
2.78775e-54
1.73924e-55
1.06258e-56
6.36001e-58
3.73111e-59
2.14622e-60
1.21095e-61
6.70414e-63
3.64303e-64
1.94361e-65
1.01836e-66
5.24133e-68
2.65052e-69
1.31722e-70
6.43433e-72
3.08989e-73
1.45897e-74
6.77452e-76
3.09383e-77
1.38982e-78
6.14202e-80
2.67059e-81
1.14259e-82
4.8107e-84
1.99342e-85
8.13022e-87
3.26407e-88
1.29006e-89
5.01982e-91
1.92324e-92
7.25572e-94
2.69567e-95
9.8634e-97
3.55465e-98
1.26186e-99
4.41274e-101
1.52026e-102
5.16037e-104
1.72595e-105
5.68846e-107
1.84763e-108
5.91462e-110
1.86621e-111
5.80433e-113
1.77965e-114
5.37952e-116
1.60328e-117
4.71162e-119
1.36538e-120
3.90365e-122
1.10193e-123
3.07122e-125
8.45171e-127
2.29648e-128
6.16131e-130
1.63223e-131
4.26971e-133
1.10289e-134
2.81312e-136
7.08567e-138
1.76245e-139
4.3292e-141
1.05018e-142
2.51591e-144
5.95273e-146
1.39103e-147
3.21047e-149
7.31853e-151
1.64784e-152
3.66482e-154
8.05099e-156
1.7471e-157
3.74515e-159
7.93076e-161
1.65908e-162
3.42875e-164
7.0006e-166
1.41213e-167
2.81428e-169
5.54145e-171
1.07809e-172
2.07239e-174
3.93629e-176
7.38773e-178
1.37011e-179
2.51091e-181
4.54725e-183
8.13804e-185
1.43931e-186
2.51574e-188
4.34574e-190
7.41922e-192
1.25188e-193
2.08777e-195
3.44139e-197
5.60692e-199
9.02956e-201
1.43738e-202
2.26176e-204
3.51808e-206
5.40952e-208
8.22271e-210
1.23562e-211
1.83562e-213
2.69597e-215
3.91464e-217
5.61985e-219
7.9767e-221
1.11943e-222
1.5533e-224
2.13111e-226
2.89108e-228
3.87813e-230
5.14399e-232
6.74684e-234
8.75037e-236
1.12223e-237
1.42318e-239
1.7847e-241
2.21303e-243
2.71338e-245
3.2894e-247
3.94254e-249
4.67143e-251
5.47119e-253
6.33291e-255
7.24306e-257
8.18371e-259
9.13186e-261
1.0064e-262
1.09527e-264
1.17898e-266
3.79938e-26
1.26364e-23
2.19659e-22
2.70347e-21
2.58838e-20
2.07874e-19
1.14158e-18
3.69097e-18
6.64009e-18
5.79139e-18
3.45249e-18
1.5984e-18
5.92144e-19
1.88704e-19
5.46681e-20
1.44791e-20
3.49356e-21
7.72405e-22
1.57604e-22
2.98678e-23
5.28607e-24
8.77804e-25
1.37331e-25
2.03145e-26
2.85025e-27
3.80394e-28
4.84133e-29
5.8895e-30
6.86259e-31
7.67409e-32
8.25008e-33
8.54055e-34
8.52626e-35
8.22012e-36
7.66306e-37
6.91594e-38
6.04938e-39
5.13376e-40
4.2311e-41
3.38972e-42
2.64208e-43
2.0052e-44
1.48298e-45
1.06954e-46
7.52745e-48
5.17333e-49
3.47405e-50
2.28086e-51
1.46487e-52
9.20803e-54
5.66775e-55
3.41769e-56
2.01985e-57
1.17043e-58
6.6523e-60
3.70982e-61
2.0306e-62
1.09124e-63
5.75908e-65
2.98563e-66
1.52079e-67
7.61278e-69
3.74579e-70
1.81195e-71
8.61832e-73
4.03123e-74
1.8546e-75
8.39303e-77
3.73674e-78
1.63689e-79
7.0558e-81
2.99305e-82
1.24958e-83
5.13497e-85
2.07716e-86
8.27178e-88
3.24309e-89
1.25195e-90
4.75899e-92
1.78147e-93
6.56769e-95
2.38479e-96
8.52948e-98
3.00515e-99
1.04307e-100
3.56696e-102
1.20186e-103
3.99036e-105
1.30559e-106
4.20992e-108
1.33796e-109
4.19132e-111
1.29428e-112
3.9401e-114
1.18256e-115
3.49951e-117
1.02116e-118
2.94002e-120
8.35656e-122
2.34494e-123
6.49631e-125
1.77682e-126
4.79808e-128
1.27924e-129
3.36744e-131
8.75241e-133
2.24617e-134
5.69187e-136
1.42422e-137
3.51901e-139
8.58611e-141
2.0688e-142
4.92261e-144
1.15676e-145
2.68457e-147
6.15319e-149
1.39295e-150
3.11451e-152
6.87828e-154
1.50043e-155
3.23304e-157
6.88143e-159
1.44688e-160
3.00525e-162
6.16652e-164
1.25003e-165
2.50344e-167
4.95336e-169
9.68325e-171
1.87031e-172
3.56934e-174
6.73064e-176
1.2541e-177
2.30901e-179
4.20096e-181
7.55288e-183
1.34193e-184
2.35619e-186
4.08852e-188
7.01147e-190
1.18836e-191
1.99067e-193
3.29585e-195
5.39345e-197
8.72384e-199
1.39477e-200
2.20424e-202
3.44342e-204
5.31748e-206
8.11741e-208
1.225e-209
1.82755e-211
2.69545e-213
3.93035e-215
5.66602e-217
8.07576e-219
1.13804e-220
1.58565e-222
2.18445e-224
2.9756e-226
4.00783e-228
5.33772e-230
7.0294e-232
9.15383e-234
1.17873e-235
1.50089e-237
1.88978e-239
2.35284e-241
2.89658e-243
3.52593e-245
4.2436e-247
5.04939e-249
5.93941e-251
6.90557e-253
7.93493e-255
9.00996e-257
1.01083e-258
1.12064e-260
1.2279e-262
1.33154e-264
1.52089e-24
2.72246e-22
5.03071e-21
6.85655e-20
7.48856e-19
6.58826e-18
3.89947e-17
1.34794e-16
2.47299e-16
2.2997e-16
1.38767e-16
6.54624e-17
2.43421e-17
7.67151e-18
2.18944e-18
5.74269e-19
1.37384e-19
3.01441e-20
6.11097e-21
1.15209e-21
2.03107e-22
3.36395e-23
5.25543e-24
7.77177e-25
1.09125e-25
1.45884e-26
1.86141e-27
2.27192e-28
2.6579e-29
2.98593e-30
3.22667e-31
3.35922e-32
3.37409e-33
3.27406e-34
3.07303e-35
2.79316e-36
2.46118e-37
2.10449e-38
1.7479e-39
1.41136e-40
1.10886e-41
8.48354e-43
6.32507e-44
4.59886e-45
3.26306e-46
2.26082e-47
1.53052e-48
1.01296e-49
6.55781e-51
4.15497e-52
2.57767e-53
1.56653e-54
9.33008e-56
5.44811e-57
3.12021e-58
1.75328e-59
9.6692e-61
5.23521e-62
2.78358e-63
1.45383e-64
7.46044e-66
3.7623e-67
1.86494e-68
9.0883e-70
4.35489e-71
2.05218e-72
9.51175e-74
4.33678e-75
1.94531e-76
8.58568e-78
3.7288e-79
1.59373e-80
6.70426e-82
2.77598e-83
1.13148e-84
4.54027e-86
1.7937e-87
6.97731e-89
2.67256e-90
1.0081e-91
3.74491e-93
1.37019e-94
4.93797e-96
1.75299e-97
6.1306e-99
2.11229e-100
7.17067e-102
2.39859e-103
7.90629e-105
2.56829e-106
8.2224e-108
2.59461e-109
8.07037e-111
2.47455e-112
7.48021e-114
2.22934e-115
6.55114e-117
1.89966e-118
5.43757e-120
1.53643e-121
4.28554e-123
1.18003e-124
3.20766e-126
8.60794e-128
2.28053e-129
5.965e-131
1.5404e-132
3.9275e-134
9.88713e-136
2.45758e-137
6.03175e-139
1.4618e-140
3.49831e-142
8.26731e-144
1.9294e-145
4.44678e-147
1.01216e-148
2.27533e-150
5.05183e-152
1.10783e-153
2.39957e-155
5.13385e-157
1.08496e-158
2.26497e-160
4.67087e-162
9.51562e-164
1.9151e-165
3.80781e-167
7.47998e-169
1.45171e-170
2.78372e-172
5.27415e-174
9.87347e-176
1.82638e-177
3.33834e-179
6.02972e-181
1.07623e-182
1.89829e-184
3.30892e-186
5.70012e-188
9.70441e-190
1.63287e-191
2.71547e-193
4.46332e-195
7.25108e-197
1.16437e-198
1.84813e-200
2.89961e-202
4.49699e-204
6.89431e-206
1.04486e-207
1.56543e-209
2.3186e-211
3.39508e-213
4.91489e-215
7.0344e-217
9.95408e-219
1.39266e-220
1.9265e-222
2.63501e-224
3.56364e-226
4.76551e-228
6.30143e-230
8.23924e-232
1.06527e-233
1.36194e-235
1.72181e-237
2.15247e-239
2.66078e-241
3.2523e-243
3.93069e-245
4.69699e-247
5.54903e-249
6.48081e-251
7.48204e-253
8.53826e-255
9.63097e-257
1.07403e-258
1.18456e-260
1.29368e-262
4.62855e-23
5.57209e-21
1.12864e-19
1.7235e-18
2.09219e-17
1.94279e-16
1.19609e-15
4.37466e-15
7.93976e-15
8.01621e-15
4.84484e-15
2.32971e-15
8.68409e-16
2.69913e-16
7.54053e-17
1.95074e-17
4.61416e-18
1.00254e-18
2.01598e-19
3.7765e-20
6.62647e-21
1.09408e-21
1.70642e-22
2.5226e-23
3.54503e-24
4.74826e-25
6.07588e-26
7.44326e-27
8.74648e-28
9.87606e-29
1.07329e-29
1.12429e-30
1.13675e-31
1.11079e-32
1.05026e-33
9.61922e-35
8.54292e-36
7.36406e-37
6.16691e-38
5.02146e-39
3.97881e-40
3.07022e-41
2.30884e-42
1.69326e-43
1.21183e-44
8.46875e-46
5.78243e-47
3.85974e-48
2.51997e-49
1.61006e-50
1.00718e-51
6.17142e-53
3.70565e-54
2.18133e-55
1.25927e-56
7.13208e-58
3.96418e-59
2.16306e-60
1.159e-61
6.09983e-63
3.15411e-64
1.60272e-65
8.0049e-67
3.93052e-68
1.89766e-69
9.01012e-71
4.20775e-72
1.93301e-73
8.73656e-75
3.88522e-76
1.70022e-77
7.32243e-79
3.10387e-80
1.29505e-81
5.31918e-83
2.15084e-84
8.56273e-86
3.35651e-87
1.29559e-88
4.92473e-90
1.84358e-91
6.79729e-93
2.46851e-94
8.83061e-96
3.11194e-97
1.08041e-98
3.69564e-100
1.24557e-101
4.1367e-103
1.35387e-104
4.36684e-106
1.38822e-107
4.34988e-109
1.34356e-110
4.09101e-112
1.22808e-113
3.63479e-115
1.06169e-116
3.06085e-118
8.70995e-120
2.44641e-121
6.78256e-123
1.85617e-124
5.0143e-126
1.33716e-127
3.52008e-129
9.14798e-131
2.34702e-132
5.94482e-134
1.48665e-135
3.67059e-137
8.94826e-139
2.15392e-140
5.11949e-142
1.20155e-143
2.7848e-145
6.37373e-147
1.44065e-148
3.21591e-150
7.08997e-152
1.54381e-153
3.32023e-155
7.05314e-157
1.47996e-158
3.0675e-160
6.28059e-162
1.27032e-163
2.53826e-165
5.01051e-167
9.77158e-169
1.88277e-170
3.58422e-172
6.74166e-174
1.25294e-175
2.30087e-177
4.17514e-179
7.48646e-181
1.32654e-182
2.32282e-184
4.01952e-186
6.87398e-188
1.16179e-189
1.94065e-191
3.20388e-193
5.22789e-195
8.4316e-197
1.34412e-198
2.11797e-200
3.2989e-202
5.07922e-204
7.7306e-206
1.16313e-207
1.73004e-209
2.54393e-211
3.69816e-213
5.31508e-215
7.55244e-217
1.06103e-218
1.47381e-220
2.02414e-222
2.74872e-224
3.69081e-226
4.9003e-228
6.4334e-230
8.35182e-232
1.07214e-233
1.36097e-235
1.70837e-237
2.12053e-239
2.60275e-241
3.15893e-243
3.791e-245
4.49844e-247
5.27773e-249
6.1221e-251
7.02148e-253
7.96283e-255
8.93175e-257
9.91373e-259
1.0901e-260
1.17663e-21
1.10532e-19
2.50578e-18
4.26677e-17
5.56519e-16
5.31102e-15
3.32824e-14
1.25602e-13
2.22092e-13
2.44455e-13
1.47906e-13
7.22177e-14
2.69416e-14
8.24693e-15
2.24169e-15