/*--------------------------------*- C++ -*----------------------------------*\
  =========                 |
  \\      /  F ield         | OpenFOAM: The Open Source CFD Toolbox
   \\    /   O peration     | Website:  https://openfoam.org
    \\  /    A nd           | Version:  7
     \\/     M anipulation  |
\*---------------------------------------------------------------------------*/
FoamFile
{
    version     2.0;
    format      ascii;
    class       volVectorField;
    location    "0.003";
    object      U;
}
// * * * * * * * * * * * * * * * * * * * * * * * * * * * * * * * * * * * * * //

dimensions      [0 1 -1 0 0 0 0];

internalField   nonuniform List<vector> 
12225
(
(4.78539 0.154703 0)
(4.14873 0.133447 0)
(3.7157 0.10725 0)
(3.35634 0.0828713 0)
(3.0558 0.0591752 0)
(2.86509 0.0358244 0)
(2.79013 0.0129188 0)
(2.80783 -0.00403323 0)
(2.88702 -0.0143157 0)
(2.99883 -0.0156482 0)
(3.12131 -0.0169647 0)
(3.18131 -0.016416 0)
(3.3928 -0.0333224 0)
(3.45744 -0.00917809 0)
(3.75521 -0.0501522 0)
(3.71833 0.0103622 0)
(4.22118 -0.175255 0)
(4.32905 0.00257668 0)
(4.91883 0.0706781 0)
(4.7779 0.0398504 0)
(4.72652 0.0716824 0)
(4.65043 0.0792789 0)
(4.57161 0.0651458 0)
(4.52804 0.0309308 0)
(4.51681 -0.00232209 0)
(4.52036 -0.0243405 0)
(4.5467 -0.0389993 0)
(4.61936 -0.0554436 0)
(4.69357 -0.0423121 0)
(4.78392 -0.0607902 0)
(4.92149 -0.0706247 0)
(5.07036 -0.102041 0)
(5.23827 -0.0726841 0)
(5.39844 -0.127185 0)
(5.65141 -0.169858 0)
(5.86752 -0.308987 0)
(4.9542 0.136073 0)
(4.8455 0.10902 0)
(4.74385 0.124921 0)
(4.72259 0.120413 0)
(4.76531 0.093221 0)
(4.809 0.055533 0)
(4.80323 0.0169709 0)
(4.76732 -0.010788 0)
(4.74701 -0.0373894 0)
(4.75687 -0.0577943 0)
(4.80507 -0.071198 0)
(4.90835 -0.0903525 0)
(5.03036 -0.130493 0)
(5.15111 -0.135405 0)
(5.29571 -0.155553 0)
(5.49148 -0.185504 0)
(5.67286 -0.30226 0)
(5.84193 -0.399823 0)
(4.97063 0.106239 0)
(4.83186 0.0886682 0)
(4.73728 0.104613 0)
(4.73619 0.0870393 0)
(4.79414 0.0519428 0)
(4.84171 0.0211872 0)
(4.83977 0.00382026 0)
(4.80829 -0.0113055 0)
(4.78807 -0.0367678 0)
(4.79866 -0.0741694 0)
(4.84684 -0.101006 0)
(4.9353 -0.133906 0)
(5.04178 -0.169884 0)
(5.15594 -0.198897 0)
(5.29834 -0.224991 0)
(5.46658 -0.276262 0)
(5.62605 -0.360004 0)
(5.77286 -0.466969 0)
(4.95126 0.13397 0)
(4.91842 0.113665 0)
(4.86 0.11944 0)
(4.84239 0.0965715 0)
(4.85079 0.0642661 0)
(4.84832 0.0414331 0)
(4.81864 0.0266481 0)
(4.7842 0.00517206 0)
(4.77729 -0.0310493 0)
(4.80312 -0.0779298 0)
(4.85619 -0.122892 0)
(4.94131 -0.167536 0)
(5.0474 -0.215145 0)
(5.16004 -0.252703 0)
(5.2877 -0.28618 0)
(5.43426 -0.342455 0)
(5.57732 -0.433997 0)
(5.7074 -0.549183 0)
(4.99756 0.146004 0)
(4.89067 0.132358 0)
(4.84123 0.127451 0)
(4.85309 0.0968331 0)
(4.87783 0.0624278 0)
(4.87539 0.0402894 0)
(4.8412 0.025451 0)
(4.80904 0.00161019 0)
(4.80745 -0.042382 0)
(4.8363 -0.102462 0)
(4.8888 -0.160285 0)
(4.96585 -0.211821 0)
(5.05991 -0.263407 0)
(5.16136 -0.309437 0)
(5.27593 -0.354078 0)
(5.40574 -0.416837 0)
(5.53097 -0.503705 0)
(5.64357 -0.610722 0)
(4.9357 0.174224 0)
(4.88901 0.125618 0)
(4.88843 0.101614 0)
(4.8811 0.0758836 0)
(4.87447 0.0597659 0)
(4.87332 0.054744 0)
(4.8697 0.0458249 0)
(4.86666 0.0151927 0)
(4.87563 -0.0403441 0)
(4.89905 -0.110196 0)
(4.93548 -0.179373 0)
(4.99178 -0.243822 0)
(5.0696 -0.304892 0)
(5.16071 -0.359613 0)
(5.26159 -0.411484 0)
(5.3713 -0.477125 0)
(5.47767 -0.565045 0)
(5.57444 -0.67228 0)
(5.03503 0.219708 0)
(4.9548 0.175266 0)
(4.89782 0.129726 0)
(4.86898 0.0960707 0)
(4.87185 0.0683285 0)
(4.89633 0.0477092 0)
(4.91231 0.0288228 0)
(4.91172 -0.00166443 0)
(4.90809 -0.0523311 0)
(4.91482 -0.123637 0)
(4.94062 -0.202709 0)
(4.99119 -0.277757 0)
(5.06361 -0.346508 0)
(5.1476 -0.409846 0)
(5.23799 -0.470182 0)
(5.33381 -0.539028 0)
(5.42556 -0.62385 0)
(5.50628 -0.724615 0)
(5.03043 0.211521 0)
(5.05275 0.155231 0)
(5.00054 0.116594 0)
(4.95956 0.0812099 0)
(4.9593 0.054315 0)
(4.96455 0.0430411 0)
(4.94558 0.0378325 0)
(4.91397 0.0154535 0)
(4.89859 -0.0415852 0)
(4.91112 -0.126666 0)
(4.94622 -0.220498 0)
(4.99873 -0.309076 0)
(5.06576 -0.387923 0)
(5.14144 -0.457513 0)
(5.22 -0.521315 0)
(5.2987 -0.590637 0)
(5.37204 -0.673291 0)
(5.43611 -0.770184 0)
(5.01306 0.232984 0)
(5.00499 0.207676 0)
(4.94423 0.166389 0)
(4.90306 0.104185 0)
(4.896 0.0632053 0)
(4.90578 0.0534458 0)
(4.9078 0.0497667 0)
(4.90414 0.0196762 0)
(4.9115 -0.0489835 0)
(4.93443 -0.1459 0)
(4.96817 -0.250481 0)
(5.0121 -0.347073 0)
(5.06733 -0.429965 0)
(5.1298 -0.50223 0)
(5.19404 -0.569119 0)
(5.25771 -0.638946 0)
(5.31676 -0.7173 0)
(5.36652 -0.806968 0)
(4.87971 0.188322 0)
(4.94834 0.155235 0)
(4.96934 0.145631 0)
(4.97549 0.0990715 0)
(4.97969 0.0580904 0)
(4.9746 0.0437241 0)
(4.9608 0.0392658 0)
(4.95121 0.0126476 0)
(4.95602 -0.0540045 0)
(4.97307 -0.153293 0)
(4.99667 -0.263674 0)
(5.02745 -0.367741 0)
(5.06828 -0.458247 0)
(5.11712 -0.53657 0)
(5.16852 -0.606523 0)
(5.21812 -0.675982 0)
(5.26209 -0.751004 0)
(5.29751 -0.835075 0)
(5.08055 0.196712 0)
(4.97364 0.185177 0)
(4.92564 0.157507 0)
(4.9405 0.0956669 0)
(4.97063 0.0578299 0)
(4.98044 0.0560209 0)
(4.97016 0.0555644 0)
(4.95599 0.020326 0)
(4.95128 -0.0582574 0)
(4.95823 -0.16698 0)
(4.9745 -0.284385 0)
(5.00118 -0.394307 0)
(5.03958 -0.488909 0)
(5.08545 -0.569139 0)
(5.13166 -0.639488 0)
(5.17356 -0.707473 0)
(5.20873 -0.777717 0)
(5.2348 -0.854216 0)
(5.05947 0.225849 0)
(4.99371 0.203552 0)
(4.96602 0.149094 0)
(4.96606 0.0784009 0)
(4.97289 0.0468537 0)
(4.97493 0.051963 0)
(4.96744 0.0557898 0)
(4.95552 0.0247271 0)
(4.94961 -0.0526707 0)
(4.95459 -0.165277 0)
(4.96978 -0.290935 0)
(4.99464 -0.410187 0)
(5.02881 -0.512076 0)
(5.06786 -0.596281 0)
(5.10549 -0.667077 0)
(5.13741 -0.732267 0)
(5.16183 -0.797068 0)
(5.17727 -0.866464 0)
(4.98146 0.248543 0)
(4.98866 0.240496 0)
(4.96948 0.177789 0)
(4.93634 0.0928089 0)
(4.9148 0.0483407 0)
(4.91102 0.0498864 0)
(4.91322 0.0570324 0)
(4.91617 0.0262687 0)
(4.92654 -0.0583335 0)
(4.94576 -0.181783 0)
(4.96816 -0.316768 0)
(4.99229 -0.4414 0)
(5.02012 -0.544757 0)
(5.04975 -0.627344 0)
(5.07645 -0.694398 0)
(5.09674 -0.754386 0)
(5.10995 -0.812164 0)
(5.11513 -0.87282 0)
(4.95414 0.231681 0)
(4.96951 0.20253 0)
(4.99695 0.160202 0)
(4.9959 0.106789 0)
(4.9761 0.0705691 0)
(4.96365 0.0609126 0)
(4.96562 0.0550635 0)
(4.97661 0.0172246 0)
(4.99182 -0.0681106 0)
(5.00571 -0.191025 0)
(5.01456 -0.327177 0)
(5.0211 -0.454402 0)
(5.0305 -0.560198 0)
(5.0425 -0.643618 0)
(5.05305 -0.709079 0)
(5.05874 -0.764792 0)
(5.059 -0.815622 0)
(5.0529 -0.867365 0)
(4.97082 0.263679 0)
(4.98947 0.232514 0)
(4.97226 0.179755 0)
(4.96786 0.120618 0)
(4.97561 0.0721138 0)
(4.98407 0.0480009 0)
(4.99013 0.0345878 0)
(4.99454 -5.05751e-05 0)
(5.00071 -0.0783101 0)
(5.00759 -0.19638 0)
(5.01118 -0.331529 0)
(5.01221 -0.459806 0)
(5.01454 -0.566321 0)
(5.01778 -0.648676 0)
(5.01841 -0.710842 0)
(5.01368 -0.761122 0)
(5.00402 -0.80451 0)
(4.98904 -0.847107 0)
(4.89868 0.16471 0)
(4.9545 0.17338 0)
(4.99047 0.138564 0)
(5.02579 0.0809238 0)
(5.04825 0.0452798 0)
(5.04983 0.0429974 0)
(5.03918 0.0439393 0)
(5.02902 0.0081742 0)
(5.02699 -0.0799182 0)
(5.02884 -0.206971 0)
(5.02592 -0.345668 0)
(5.01749 -0.472264 0)
(5.00844 -0.573808 0)
(4.99976 -0.649369 0)
(4.98877 -0.703651 0)
(4.9732 -0.74512 0)
(4.95391 -0.778762 0)
(4.93068 -0.810844 0)
(5.13275 0.214631 0)
(5.09852 0.158296 0)
(5.08325 0.118881 0)
(5.07136 0.0893343 0)
(5.07113 0.0707854 0)
(5.08207 0.0631328 0)
(5.09561 0.0529173 0)
(5.10402 0.0164892 0)
(5.10513 -0.0604606 0)
(5.096 -0.173171 0)
(5.07466 -0.301815 0)
(5.04617 -0.424214 0)
(5.01854 -0.525257 0)
(4.99371 -0.601034 0)
(4.969 -0.65431 0)
(4.94185 -0.692599 0)
(4.91301 -0.720974 0)
(4.88219 -0.745881 0)
(5.05739 0.272556 0)
(5.0501 0.285303 0)
(5.01924 0.184865 0)
(5.0074 0.0851422 0)
(5.01208 0.016185 0)
(5.01241 -0.0108872 0)
(5.00371 -0.0092924 0)
(4.99448 -0.0166703 0)
(4.99218 -0.0641374 0)
(4.99263 -0.155855 0)
(4.98765 -0.272176 0)
(4.97601 -0.387123 0)
(4.96157 -0.482052 0)
(4.94496 -0.551115 0)
(4.92413 -0.596706 0)
(4.8979 -0.626362 0)
(4.86831 -0.645654 0)
(4.83605 -0.661037 0)
(4.9597 0.359564 0)
(5.03621 0.272659 0)
(5.0471 0.146306 0)
(5.05764 0.0831926 0)
(5.06096 0.0680496 0)
(5.06203 0.072345 0)
(5.05815 0.0686537 0)
(5.0521 0.0329086 0)
(5.05096 -0.0450505 0)
(5.0499 -0.154133 0)
(5.03946 -0.271726 0)
(5.01887 -0.376588 0)
(4.9938 -0.45635 0)
(4.96649 -0.509524 0)
(4.9358 -0.540766 0)
(4.90108 -0.558072 0)
(4.86444 -0.566951 0)
(4.8266 -0.573206 0)
(5.00103 0.244353 0)
(4.99666 0.203874 0)
(4.99218 0.157829 0)
(4.99963 0.0855865 0)
(5.01194 0.026306 0)
(5.02947 0.00478858 0)
(5.04542 0.00636443 0)
(5.05842 -0.00353741 0)
(5.07079 -0.0485917 0)
(5.07673 -0.130112 0)
(5.06718 -0.228775 0)
(5.04335 -0.321535 0)
(5.01308 -0.393724 0)
(4.98024 -0.441928 0)
(4.94446 -0.469522 0)
(4.90538 -0.483563 0)
(4.86506 -0.48931 0)
(4.8243 -0.492206 0)
(4.9874 0.254135 0)
(4.99894 0.218247 0)
(5.03546 0.135401 0)
(5.07708 0.0713246 0)
(5.09332 0.0431583 0)
(5.08653 0.035471 0)
(5.07218 0.0281469 0)
(5.06568 0.00105787 0)
(5.06894 -0.0565639 0)
(5.06997 -0.136734 0)
(5.0599 -0.22305 0)
(5.03902 -0.299964 0)
(5.01284 -0.357724 0)
(4.98349 -0.394532 0)
(4.94968 -0.413689 0)
(4.91104 -0.42142 0)
(4.86998 -0.422331 0)
(4.82787 -0.421159 0)
(5.00988 0.266225 0)
(5.03785 0.151713 0)
(5.03512 0.0968492 0)
(5.04811 0.0500407 0)
(5.0855 0.0209836 0)
(5.12726 0.0141503 0)
(5.15022 0.0126633 0)
(5.14745 -0.00612473 0)
(5.13188 -0.0522924 0)
(5.11279 -0.121951 0)
(5.08747 -0.201001 0)
(5.05751 -0.272201 0)
(5.02746 -0.323901 0)
(4.99691 -0.353764 0)
(4.96241 -0.365748 0)
(4.92269 -0.366864 0)
(4.88 -0.362289 0)
(4.83599 -0.35676 0)
(4.96014 0.278285 0)
(5.00535 0.181683 0)
(5.04394 0.112686 0)
(5.09357 0.0402699 0)
(5.122 -0.00857837 0)
(5.13587 -0.0121897 0)
(5.13938 0.0103916 0)
(5.13884 0.0189032 0)
(5.14099 -0.0119943 0)
(5.13976 -0.0798495 0)
(5.12758 -0.162433 0)
(5.10393 -0.235922 0)
(5.07299 -0.286379 0)
(5.03674 -0.312105 0)
(4.99464 -0.318742 0)
(4.94753 -0.314612 0)
(4.89851 -0.305683 0)
(4.84959 -0.296827 0)
(5.04203 0.301767 0)
(5.10542 0.126954 0)
(5.18858 0.0387914 0)
(5.23432 0.00136018 0)
(5.22757 -0.0144656 0)
(5.20066 -0.01165 0)
(5.18731 -0.00316685 0)
(5.19694 -0.00981399 0)
(5.22251 -0.0471333 0)
(5.24317 -0.108414 0)
(5.23814 -0.174087 0)
(5.20558 -0.227143 0)
(5.15657 -0.259311 0)
(5.1002 -0.271499 0)
(5.04023 -0.26951 0)
(4.97925 -0.260433 0)
(4.92021 -0.248943 0)
(4.86452 -0.238775 0)
(4.96548 0.277781 0)
(5.08925 0.10005 0)
(5.1693 0.0555263 0)
(5.21557 0.0355661 0)
(5.22628 0.0157111 0)
(5.22757 0.0101339 0)
(5.24094 0.00894305 0)
(5.27025 -0.00425738 0)
(5.30298 -0.0350011 0)
(5.31811 -0.0802169 0)
(5.30201 -0.128758 0)
(5.25809 -0.168706 0)
(5.19912 -0.193785 0)
(5.13424 -0.20424 0)
(5.06699 -0.203882 0)
(4.99988 -0.197706 0)
(4.93573 -0.189208 0)
(4.87602 -0.181383 0)
(5.05303 0.195738 0)
(5.12795 0.0292448 0)
(5.21477 -0.00968099 0)
(5.2566 -0.0164481 0)
(5.26796 -0.0240306 0)
(5.27864 -0.0286737 0)
(5.30198 -0.0341862 0)
(5.33628 -0.0500398 0)
(5.3689 -0.0776471 0)
(5.38003 -0.110432 0)
(5.35673 -0.140267 0)
(5.30343 -0.160624 0)
(5.23439 -0.16909 0)
(5.16044 -0.167585 0)
(5.08611 -0.159843 0)
(5.014 -0.149785 0)
(4.94637 -0.139804 0)
(4.88422 -0.131863 0)
(5.00429 0.1314 0)
(5.14139 0.0365897 0)
(5.24743 0.0307282 0)
(5.30555 0.0153243 0)
(5.32961 -0.0012286 0)
(5.34571 -0.0108775 0)
(5.37456 -0.0204777 0)
(5.42201 -0.0346781 0)
(5.47357 -0.050696 0)
(5.50066 -0.0659872 0)
(5.48218 -0.0799053 0)
(5.41957 -0.0909376 0)
(5.33012 -0.0975255 0)
(5.23142 -0.0995749 0)
(5.13436 -0.0978261 0)
(5.04482 -0.0937459 0)
(4.96526 -0.0886558 0)
(4.89577 -0.0842368 0)
(5.05909 0.0268774 0)
(5.2118 -0.0439419 0)
(5.34123 -0.0377818 0)
(5.38908 -0.048838 0)
(5.39119 -0.0530361 0)
(5.38963 -0.0563543 0)
(5.40249 -0.0735193 0)
(5.42055 -0.0980514 0)
(5.42609 -0.113894 0)
(5.40243 -0.113743 0)
(5.34296 -0.100421 0)
(5.25707 -0.0812881 0)
(5.16093 -0.0636717 0)
(5.06598 -0.0517254 0)
(4.97664 -0.0452913 0)
(4.89523 -0.0422526 0)
(4.82191 -0.0406599 0)
(4.75741 -0.0399234 0)
(4.91989 0.0687944 0)
(5.08601 -0.00430927 0)
(5.02835 -0.0126917 0)
(4.88623 -0.0112175 0)
(4.7696 -0.00870636 0)
(4.6735 -0.0157079 0)
(4.54266 -0.0314502 0)
(4.3544 -0.0429841 0)
(4.14143 -0.0419063 0)
(3.94328 -0.0316813 0)
(3.77946 -0.0195025 0)
(3.65711 -0.010096 0)
(3.57245 -0.00520808 0)
(3.5117 -0.00432658 0)
(3.46036 -0.00546219 0)
(3.41252 -0.00683726 0)
(3.3664 -0.00773928 0)
(3.32371 -0.00833423 0)
(0.00510015 -0.0169845 -2.53599e-20)
(0.0291333 -0.0281458 2.51768e-20)
(0.0594857 -0.0289858 0)
(0.0887947 -0.0290534 0)
(0.118547 -0.0293595 0)
(0.148953 -0.0298057 -2.44172e-20)
(0.180099 -0.0303319 0)
(0.212058 -0.03092 0)
(0.244896 -0.0315585 0)
(0.278674 -0.0322348 0)
(0.313435 -0.0329347 2.34614e-20)
(0.349211 -0.0336434 0)
(0.386017 -0.0343458 0)
(0.423853 -0.0350269 0)
(0.462702 -0.0356723 0)
(0.502533 -0.0362684 2.25048e-20)
(0.543298 -0.036803 0)
(0.584937 -0.0372653 0)
(0.627375 -0.0376461 0)
(0.670528 -0.0379381 0)
(0.714302 -0.0381359 0)
(0.758596 -0.0382359 0)
(0.803301 -0.0382363 0)
(0.848306 -0.038137 2.09965e-20)
(0.8935 -0.0379396 -2.08114e-20)
(0.938767 -0.0376469 2.06273e-20)
(0.983996 -0.037263 2.04442e-20)
(1.02908 -0.036793 0)
(1.07391 -0.036243 0)
(1.11838 -0.0356194 -1.9901e-20)
(1.16241 -0.0349292 -1.97221e-20)
(1.20591 -0.0341796 0)
(1.24878 -0.033378 0)
(1.29097 -0.0325318 -1.91922e-20)
(1.3324 -0.0316481 0)
(1.37301 -0.0307338 0)
(1.41275 -0.0297957 1.86722e-20)
(1.45159 -0.0288398 0)
(1.48947 -0.0278722 1.83311e-20)
(1.52638 -0.0268981 3.63243e-20)
(1.56228 -0.0259225 0)
(1.59716 -0.0249498 0)
(1.631 -0.0239841 0)
(1.6638 -0.0230289 0)
(1.69555 -0.0220872 0)
(1.72626 -0.0211618 3.43417e-20)
(1.75593 -0.020255 3.40185e-20)
(1.78456 -0.0193686 3.36973e-20)
(1.81217 -0.0185044 0)
(1.83877 -0.0176635 -3.30608e-20)
(1.86437 -0.016847 0)
(1.889 -0.0160557 3.2432e-20)
(1.91268 -0.0152901 3.21206e-20)
(1.93541 -0.0145505 0)
(1.95724 -0.0138371 0)
(1.97817 -0.0131499 0)
(1.99824 -0.0124887 3.08935e-20)
(2.01746 -0.0118533 0)
(2.03586 -0.0112435 0)
(2.05346 -0.0106586 0)
(2.0703 -0.0100983 0)
(2.08639 -0.009562 0)
(2.10176 -0.00904909 0)
(2.11643 -0.00855893 0)
(2.13043 -0.00809088 0)
(2.14378 -0.00764423 -2.82402e-20)
(2.15651 -0.00721831 0)
(2.16863 -0.00681239 0)
(2.18018 -0.0064258 2.73881e-20)
(2.19116 -0.0060578 2.71076e-20)
(2.20161 -0.00570772 0)
(2.21154 -0.00537484 -2.65518e-20)
(2.22098 -0.00505851 2.62766e-20)
(2.22995 -0.00475802 0)
(2.23846 -0.00447275 -2.57314e-20)
(2.24653 -0.00420203 0)
(2.25418 -0.00394527 0)
(2.26144 -0.00370182 2.49265e-20)
(2.26831 -0.00347113 0)
(2.27481 -0.00325258 -2.43985e-20)
(2.28096 -0.00304567 0)
(2.28677 -0.00284982 2.38773e-20)
(2.29227 -0.00266453 2.36192e-20)
(2.29746 -0.00248927 2.33629e-20)
(2.30235 -0.00232361 4.62163e-20)
(2.30697 -0.002167 -4.57103e-20)
(2.31132 -0.00201909 0)
(2.31541 -0.00187926 0)
(2.31927 -0.00174732 0)
(2.32289 -0.00162275 -4.37192e-20)
(2.32629 -0.00150431 -4.32296e-20)
(2.32949 -0.00139385 4.27432e-20)
(2.33249 -0.00128822 0)
(2.33529 -0.00118404 -4.17803e-20)
(2.33791 -0.00109128 -4.13036e-20)
(2.34037 -0.000998525 -4.083e-20)
(2.34265 -0.000884807 0)
(2.34475 -0.000771036 0)
(2.34667 -0.000676712 0)
(2.34842 -0.000601051 -3.89674e-20)
(2.35004 -0.000539702 0)
(2.35154 -0.000488265 0)
(2.35292 -0.000442942 3.76028e-20)
(2.3542 -0.000401478 0)
(2.35537 -0.000362835 0)
(2.35646 -0.000326598 3.62655e-20)
(2.35745 -0.000292558 0)
(2.35836 -0.000260612 0)
(2.35919 -0.000230643 -3.49548e-20)
(2.35994 -0.000202574 -3.45237e-20)
(2.36062 -0.000176293 0)
(2.36124 -0.000151725 3.36702e-20)
(2.36179 -0.00012877 0)
(2.36229 -0.000107342 -3.2828e-20)
(2.36273 -8.73576e-05 0)
(2.36311 -6.87239e-05 -3.1997e-20)
(2.36345 -5.13669e-05 -3.15857e-20)
(2.36373 -3.51974e-05 0)
(2.36398 -2.01564e-05 0)
(2.36418 -6.19017e-06 0)
(2.36434 6.78955e-06 0)
(2.36447 1.88542e-05 0)
(2.36456 3.00914e-05 0)
(2.36462 4.05423e-05 0)
(2.36465 5.02526e-05 -2.83911e-20)
(2.36464 5.92371e-05 2.80035e-20)
(2.36461 6.75604e-05 0)
(2.36456 7.52602e-05 0)
(2.36448 8.24022e-05 0)
(2.36438 8.90083e-05 0)
(2.36425 9.51327e-05 5.22058e-20)
(2.36411 0.00010079 0)
(2.36394 0.000106034 -5.07195e-20)
(2.36376 0.000110878 4.99835e-20)
(2.36356 0.000115372 0)
(2.36334 0.000119531 0)
(2.36311 0.000123392 0)
(2.36286 0.00012699 -4.7086e-20)
(2.36259 0.000130318 -4.6373e-20)
(2.36232 0.00013341 0)
(2.36203 0.000136273 -4.49605e-20)
(2.36173 0.000138959 -4.42609e-20)
(2.36141 0.000141504 4.35657e-20)
(2.36109 0.000143953 0)
(2.36075 0.000146308 0)
(2.3604 0.000148605 4.15055e-20)
(2.36004 0.000150863 0)
(2.35967 0.000153125 0)
(2.35929 0.000155416 0)
(2.3589 0.000157788 0)
(2.35849 0.00016028 -3.81547e-20)
(2.35807 0.000162959 -3.74966e-20)
(2.35764 0.000165891 0)
(2.35719 0.000169173 -3.6192e-20)
(2.35673 0.00017291 0)
(2.35625 0.000177252 0)
(2.35575 0.000182366 -3.42635e-20)
(2.35522 0.000188485 0)
(2.35466 0.000195885 -3.29964e-20)
(2.35407 0.000204934 0)
(2.35344 0.000216091 0)
(2.35276 0.000229962 -3.11224e-20)
(2.35201 0.000247316 0)
(2.35118 0.000269176 -2.98905e-20)
(2.35025 0.000296866 0)
(2.3492 0.00033217 0)
(2.34798 0.000377455 0)
(2.34655 0.000435961 2.74663e-20)
(2.34485 0.000512182 0)
(2.34278 0.000612295 -2.62732e-20)
(2.34024 0.000746281 0)
(2.33702 0.000923679 0)
(2.333 0.00118381 0)
(2.32747 0.00148115 0)
(2.32073 0.00218605 0)
(2.30972 0.00229394 0)
(2.29773 0.00578095 0)
(2.26936 0.00297753 4.32085e-20)
(2.24704 0.0243301 0)
(2.14197 0.0189266 0)
(0.00433975 -0.0537583 7.6108e-20)
(0.0306787 -0.0911656 -7.55554e-20)
(0.061912 -0.0939931 0)
(0.092637 -0.09408 4.96199e-20)
(0.123743 -0.0949719 0)
(0.155505 -0.096334 2.44156e-20)
(0.188053 -0.097955 -4.84748e-20)
(0.221474 -0.0997729 -4.80918e-20)
(0.255844 -0.101749 0)
(0.291224 -0.103843 -4.73243e-20)
(0.327662 -0.106009 -2.34592e-20)
(0.365191 -0.108199 0)
(0.403824 -0.110366 0)
(0.443558 -0.112462 0)
(0.484372 -0.114442 0)
(0.52623 -0.116266 -2.25019e-20)
(0.569077 -0.117893 0)
(0.612845 -0.119293 4.42568e-20)
(0.657454 -0.120437 0)
(0.702809 -0.121302 0)
(0.74881 -0.121873 -4.31195e-20)
(0.795346 -0.122138 0)
(0.842303 -0.122094 4.23687e-20)
(0.889562 -0.121739 -2.09928e-20)
(0.937004 -0.12108 2.08076e-20)
(0.98451 -0.120125 -2.06235e-20)
(1.03196 -0.118887 -2.04403e-20)
(1.07925 -0.117383 0)
(1.12626 -0.115631 0)
(1.17289 -0.113651 1.98971e-20)
(1.21904 -0.111465 -1.97252e-20)
(1.26462 -0.109095 0)
(1.30956 -0.106564 0)
(1.35377 -0.103895 1.91883e-20)
(1.39719 -0.101109 0)
(1.43975 -0.0982283 0)
(1.48142 -0.0952728 -1.86684e-20)
(1.52213 -0.092262 0)
(1.56186 -0.0892137 1.8332e-20)
(1.60057 -0.0861445 -3.63169e-20)
(1.63824 -0.0830698 0)
(1.67485 -0.0800031 0)
(1.71039 -0.076957 -7.06406e-20)
(1.74485 -0.0739424 -6.99817e-20)
(1.77823 -0.070969 -6.9327e-20)
(1.81053 -0.068045 3.43414e-20)
(1.84174 -0.0651779 -3.40117e-20)
(1.87189 -0.0623736 -1.01078e-19)
(1.90098 -0.0596372 6.67486e-20)
(1.92902 -0.0569728 3.30543e-20)
(1.95604 -0.0543838 0)
(1.98204 -0.0518726 -3.24258e-20)
(2.00706 -0.0494411 3.2119e-20)
(2.0311 -0.0470903 0)
(2.05419 -0.0448209 0)
(2.07636 -0.0426331 0)
(2.09763 -0.0405266 -3.08877e-20)
(2.11802 -0.0385007 0)
(2.13756 -0.0365546 6.05744e-20)
(2.15627 -0.034687 0)
(2.17419 -0.0328964 5.93844e-20)
(2.19132 -0.0311812 0)
(2.2077 -0.0295397 -5.82089e-20)
(2.22336 -0.02797 0)
(2.23831 -0.02647 5.70478e-20)
(2.25259 -0.0250378 -2.82375e-20)
(2.26622 -0.0236711 0)
(2.27921 -0.0223679 -5.53331e-20)
(2.2916 -0.021126 -2.73834e-20)
(2.30341 -0.0199432 -2.7103e-20)
(2.31465 -0.0188174 0)
(2.32536 -0.0177464 -2.6549e-20)
(2.33554 -0.0167282 -2.62723e-20)
(2.34523 -0.0157606 0)
(2.35444 -0.0148417 2.57272e-20)
(2.3632 -0.0139693 -5.09157e-20)
(2.37151 -0.0131417 0)
(2.37941 -0.0123568 -2.49225e-20)
(2.3869 -0.0116129 0)
(2.39401 -0.010908 7.3185e-20)
(2.40075 -0.0102406 0)
(2.40714 -0.00960891 -7.16217e-20)
(2.41318 -0.00901129 -2.36157e-20)
(2.41891 -0.00844616 2.33601e-20)
(2.42433 -0.00791204 4.62108e-20)
(2.42946 -0.00740741 -4.57048e-20)
(2.43431 -0.00693093 0)
(2.43889 -0.00648114 0)
(2.44322 -0.00605686 0)
(2.44731 -0.00565671 1.3114e-19)
(2.45116 -0.00527915 4.32235e-20)
(2.4548 -0.00492399 -4.27373e-20)
(2.45823 -0.00458888 0)
(2.46146 -0.00427144 -4.17752e-20)
(2.46451 -0.0039752 4.1298e-20)
(2.46738 -0.00369563 4.08246e-20)
(2.47008 -0.00342482 0)
(2.47266 -0.00316521 0)
(2.47512 -0.00291967 0)
(2.47745 -0.00269543 3.89623e-20)
(2.47966 -0.00249101 0)
(2.48174 -0.00230281 -7.60997e-20)
(2.48369 -0.00212831 -1.12794e-19)
(2.48553 -0.00196582 7.42989e-20)
(2.48725 -0.00181416 0)
(2.48885 -0.00167253 3.62612e-20)
(2.49036 -0.00154028 0)
(2.49177 -0.00141684 7.07689e-20)
(2.49309 -0.00130167 -3.49507e-20)
(2.49432 -0.00119427 -3.45196e-20)
(2.49547 -0.00109415 0)
(2.49655 -0.00100086 -1.00998e-19)
(2.49755 -0.000913972 6.64875e-20)
(2.49848 -0.000833097 3.28241e-20)
(2.49935 -0.000757859 0)
(2.50016 -0.000687895 3.19932e-20)
(2.50092 -0.00062287 9.47459e-20)
(2.50162 -0.000562466 0)
(2.50228 -0.000506412 6.15351e-20)
(2.50288 -0.000454443 6.07288e-20)
(2.50345 -0.000406249 5.99277e-20)
(2.50397 -0.00036155 0)
(2.50446 -0.000320066 0)
(2.50491 -0.000281616 0)
(2.50533 -0.00024602 -2.8388e-20)
(2.50571 -0.000213148 -2.80004e-20)
(2.50607 -0.000182781 0)
(2.5064 -0.000154753 -5.44658e-20)
(2.50671 -0.000128848 -5.37058e-20)
(2.50699 -0.000104949 0)
(2.50725 -8.28763e-05 -5.22003e-20)
(2.50749 -6.25399e-05 -1.0291e-19)
(2.50772 -4.37704e-05 5.07143e-20)
(2.50792 -2.6485e-05 4.99784e-20)
(2.50811 -1.05357e-05 0)
(2.50828 4.16164e-06 0)
(2.50844 1.77249e-05 0)
(2.50859 3.02464e-05 4.70813e-20)
(2.50873 4.17719e-05 -4.63686e-20)
(2.50885 5.23995e-05 -9.13204e-20)
(2.50897 6.22e-05 4.49562e-20)
(2.50907 7.13115e-05 -4.42568e-20)
(2.50916 7.98277e-05 -4.35616e-20)
(2.50925 8.78538e-05 0)
(2.50933 9.54323e-05 0)
(2.5094 0.000102669 4.15018e-20)
(2.50947 0.000109639 0)
(2.50952 0.00011647 0)
(2.50957 0.000123258 -7.89589e-20)
(2.50961 0.000130151 0)
(2.50965 0.000137278 -3.81515e-20)
(2.50968 0.000144833 3.74934e-20)
(2.5097 0.000153013 0)
(2.50971 0.000162098 -3.6189e-20)
(2.50971 0.000172394 0)
(2.5097 0.000184316 0)
(2.50967 0.00019835 3.42608e-20)
(2.50963 0.000215143 -6.7251e-20)
(2.50956 0.000235482 3.29938e-20)
(2.50947 0.000260399 0)
(2.50935 0.000291186 0)
(2.50919 0.000329539 -3.11201e-20)
(2.50898 0.00037762 0)
(2.5087 0.000438282 -2.98883e-20)
(2.50835 0.000515235 0)
(2.50789 0.000613424 0)
(2.50729 0.00073945 0)
(2.50651 0.000902213 -2.74643e-20)
(2.50551 0.00111426 0)
(2.5042 0.00139197 2.62713e-20)
(2.50249 0.00176372 0)
(2.5002 0.00225349 0)
(2.49728 0.00296299 -4.90081e-20)
(2.493 0.00382462 4.78408e-20)
(2.48801 0.00551949 0)
(2.47909 0.00670437 0)
(2.47029 0.0130068 0)
(2.45141 0.0130709 -1.2963e-19)
(2.43381 0.0448852 0)
(2.4093 0.0486577 8.18539e-20)
(0.00401658 -0.0892611 4.76423e-23)
(0.0294692 -0.152532 1.00798e-19)
(0.0597234 -0.15708 0)
(0.0895704 -0.157207 -9.92769e-20)
(0.119865 -0.15878 0)
(0.150895 -0.161183 0)
(0.182808 -0.164047 -4.23065e-23)
(0.215704 -0.16726 4.80877e-20)
(0.249667 -0.170753 4.77436e-20)
(0.284767 -0.17445 4.73201e-20)
(0.321054 -0.178269 0)
(0.358561 -0.182125 0)
(0.397297 -0.185933 -4.62002e-20)
(0.437253 -0.189608 -9.16287e-20)
(0.478398 -0.193073 9.08578e-20)
(0.520682 -0.196254 0)
(0.564038 -0.199086 8.932e-20)
(0.608384 -0.201512 -4.42519e-20)
(0.653624 -0.203487 0)
(0.69965 -0.204973 8.70287e-20)
(0.746344 -0.205945 4.31144e-20)
(0.793583 -0.206387 -8.55154e-20)
(0.841239 -0.206292 -4.23636e-20)
(0.889183 -0.205664 0)
(0.937285 -0.204514 8.32722e-20)
(0.985417 -0.202859 8.25325e-20)
(1.03346 -0.200724 0)
(1.08128 -0.198138 8.10661e-20)
(1.12879 -0.195133 0)
(1.17586 -0.191747 7.96175e-20)
(1.2224 -0.188015 3.94386e-20)
(1.26833 -0.183977 0)
(1.31355 -0.179673 0)
(1.35801 -0.175139 0)
(1.40162 -0.170415 0)
(1.44434 -0.165535 0)
(1.48612 -0.160535 0)
(1.52692 -0.155446 7.40071e-20)
(1.56669 -0.150298 -1.09982e-19)
(1.60543 -0.14512 0)
(1.64309 -0.139936 0)
(1.67968 -0.134769 0)
(1.71517 -0.129639 -1.24476e-23)
(1.74957 -0.124565 6.99758e-20)
(1.78287 -0.119562 1.38654e-19)
(1.81508 -0.114644 -1.37353e-19)
(1.8462 -0.109823 -6.80349e-20)
(1.87625 -0.105109 6.73824e-20)
(1.90523 -0.10051 9.22671e-24)
(1.93317 -0.0960327 6.61184e-20)
(1.96008 -0.0916824 0)
(1.98597 -0.0874632 6.48604e-20)
(2.01087 -0.0833779 7.49368e-24)
(2.03481 -0.0794283 0)
(2.0578 -0.0756155 0)
(2.07987 -0.0719396 -6.23904e-20)
(2.10104 -0.0684 0)
(2.12133 -0.0649957 0)
(2.14078 -0.061725 6.05827e-20)
(2.15941 -0.0585859 1.19961e-19)
(2.17723 -0.0555759 -5.93821e-20)
(2.19429 -0.0526924 0)
(2.2106 -0.0499323 5.82069e-20)
(2.22618 -0.0472925 0)
(2.24107 -0.0447696 5.70537e-20)
(2.25528 -0.0423603 5.64711e-20)
(2.26885 -0.040061 -1.11806e-19)
(2.28179 -0.0378681 -5.53381e-20)
(2.29413 -0.0357781 0)
(2.30589 -0.0337873 1.08419e-19)
(2.31709 -0.0318922 0)
(2.32775 -0.0300891 1.59291e-19)
(2.3379 -0.0283747 1.05095e-19)
(2.34755 -0.0267453 1.04001e-19)
(2.35673 -0.0251976 -1.02914e-19)
(2.36546 -0.0237283 1.52749e-19)
(2.37375 -0.0223341 0)
(2.38162 -0.0210119 0)
(2.38909 -0.0197586 -9.86349e-20)
(2.39617 -0.0185711 -1.46372e-19)
(2.40289 -0.0174465 0)
(2.40926 -0.0163821 4.77476e-20)
(2.4153 -0.0153752 0)
(2.42101 -0.014423 -1.40159e-19)
(2.42642 -0.0135231 2.06997e-24)
(2.43154 -0.012673 -1.92841e-24)
(2.43638 -0.0118703 9.04042e-20)
(2.44095 -0.0111129 0)
(2.44527 -0.0103984 -8.84133e-20)
(2.44935 -0.00972477 1.44357e-24)
(2.45321 -0.00909048 0)
(2.45684 -0.00849249 0)
(2.46026 -0.0079301 0)
(2.46349 -0.00740303 8.35494e-20)
(2.46653 -0.00690515 0)
(2.46939 -0.00643828 0)
(2.47208 -0.00600804 0)
(2.47463 -0.00560638 0)
(2.47702 -0.00522776 0)
(2.47927 -0.00486846 7.79254e-20)
(2.48138 -0.00452761 0)
(2.48336 -0.00420534 7.60995e-20)
(2.48522 -0.00390202 7.5196e-20)
(2.48696 -0.00361751 -7.42986e-20)
(2.48859 -0.00335116 0)
(2.49013 -0.00310206 -7.25218e-20)
(2.49156 -0.00286932 0)
(2.4929 -0.002652 -7.07686e-20)
(2.49416 -0.00244922 6.99009e-20)
(2.49533 -0.0022601 2.07117e-19)
(2.49643 -0.0020838 0)
(2.49745 -0.00191954 2.01997e-19)
(2.49841 -0.00176658 6.64877e-20)
(2.4993 -0.00162421 0)
(2.50013 -0.00149178 1.29629e-19)
(2.50091 -0.00136866 1.27973e-19)
(2.50163 -0.00125425 -1.89491e-19)
(2.50231 -0.00114802 0)
(2.50293 -0.00104948 -6.15349e-20)
(2.50352 -0.000958115 -6.07285e-20)
(2.50406 -0.000873432 -1.79783e-19)
(2.50456 -0.000794929 0)
(2.50503 -0.000722147 0)
(2.50547 -0.000654709 0)
(2.50587 -0.000592314 -5.67759e-20)
(2.50625 -0.000534676 0)
(2.5066 -0.000481474 0)
(2.50692 -0.000432382 5.44656e-20)
(2.50722 -0.000387079 5.37056e-20)
(2.5075 -0.000345292 0)
(2.50776 -0.000306755 0)
(2.50799 -0.000271243 1.02909e-19)
(2.50822 -0.00023852 0)
(2.50842 -0.000208382 -9.99564e-20)
(2.50861 -0.000180625 -9.8494e-20)
(2.50878 -0.000155064 0)
(2.50895 -0.000131513 0)
(2.5091 -0.000109834 9.41623e-20)
(2.50924 -8.9909e-05 -1.4913e-26)
(2.50937 -7.15976e-05 -1.54845e-26)
(2.50948 -5.47488e-05 0)
(2.50959 -3.91561e-05 1.77026e-19)
(2.5097 -2.46302e-05 0)
(2.50979 -1.10043e-05 0)
(2.50988 1.83162e-06 0)
(2.50996 1.40188e-05 -8.30032e-20)
(2.51003 2.56905e-05 0)
(2.51009 3.70259e-05 1.60597e-19)
(2.51015 4.82048e-05 7.89585e-20)
(2.51021 5.94542e-05 0)
(2.51025 7.1011e-05 7.63026e-20)
(2.51029 8.31753e-05 0)
(2.51032 9.62837e-05 0)
(2.51034 0.000110767 2.17133e-19)
(2.51035 0.000127133 -1.42169e-19)
(2.51035 0.000146034 0)
(2.51034 0.00016826 -1.37043e-19)
(2.5103 0.000194828 6.72507e-20)
(2.51025 0.000227005 0)
(2.51017 0.000266423 0)
(2.51006 0.000315147 0)
(2.50991 0.000375855 1.8672e-19)
(2.50971 0.000451989 0)
(2.50944 0.00054805 5.97762e-20)
(2.50909 0.000669919 0)
(2.50863 0.000825379 0)
(2.50804 0.00102483 0)
(2.50726 0.0012822 0)
(2.50625 0.00161713 0)
(2.50493 0.00205486 0)
(2.5032 0.00263934 1.02718e-19)
(2.5009 0.0034083 0)
(2.49793 0.00450688 4.90078e-20)
(2.49368 0.0058962 -1.43523e-19)
(2.48861 0.0083138 0)
(2.48009 0.0108916 0)
(2.47149 0.0178935 8.87344e-20)
(2.45469 0.0233461 8.64231e-20)
(2.43931 0.0491339 -8.41458e-20)
(2.41563 0.0635598 -8.18505e-20)
(0.00329938 -0.122706 -1.52507e-19)
(0.0274443 -0.211806 -1.51388e-19)
(0.056374 -0.218243 -1.00208e-19)
(0.0849309 -0.218579 -4.97866e-20)
(0.114033 -0.221043 0)
(0.144 -0.224738 9.79092e-20)
(0.175007 -0.229129 -4.8629e-20)
(0.207178 -0.234046 0)
(0.240611 -0.23938 -4.774e-20)
(0.275387 -0.245011 0)
(0.311563 -0.250812 9.40393e-20)
(0.349165 -0.25665 0)
(0.388199 -0.262395 4.61961e-20)
(0.42864 -0.267921 9.16202e-20)
(0.470441 -0.27311 -9.0849e-20)
(0.513532 -0.277852 0)
(0.557821 -0.282054 -8.93104e-20)
(0.603203 -0.285633 0)
(0.649554 -0.288525 0)
(0.69674 -0.290682 -8.70182e-20)
(0.744621 -0.292069 0)
(0.793049 -0.292668 -5.4475e-23)
(0.841876 -0.292478 0)
(0.890954 -0.291506 0)
(0.940138 -0.289775 4.5158e-23)
(0.989288 -0.287315 -8.25213e-20)
(1.03827 -0.284165 -8.18259e-20)
(1.08696 -0.280373 -8.1055e-20)
(1.13524 -0.275987 0)
(1.18299 -0.271064 -1.59247e-19)
(1.23013 -0.265658 0)
(1.27657 -0.259827 -7.8207e-20)
(1.32221 -0.253627 0)
(1.367 -0.247116 0)
(1.41088 -0.240345 7.60927e-20)
(1.45379 -0.233367 0)
(1.49568 -0.226231 -7.47067e-20)
(1.53654 -0.218981 2.20679e-23)
(1.57632 -0.21166 1.46657e-19)
(1.615 -0.204306 -1.45324e-19)
(1.65257 -0.196954 0)
(1.68903 -0.189634 0)
(1.72436 -0.182376 -7.06744e-20)
(1.75856 -0.175204 0)
(1.79165 -0.168139 -6.93263e-20)
(1.82362 -0.1612 6.86757e-20)
(1.8545 -0.154403 6.80292e-20)
(1.88428 -0.14776 0)
(1.91299 -0.141283 -6.67482e-20)
(1.94065 -0.134981 -6.61137e-20)
(1.96728 -0.128861 1.30989e-19)
(1.99289 -0.122927 -6.48562e-20)
(2.01751 -0.117183 -6.42332e-20)
(2.04117 -0.111632 0)
(2.06388 -0.106275 0)
(2.08568 -0.101111 6.23871e-20)
(2.10658 -0.0961389 0)
(2.12661 -0.0913578 0)
(2.14581 -0.0867649 -1.21149e-19)
(2.16419 -0.0823572 -1.19955e-19)
(2.18178 -0.078131 0)
(2.1986 -0.0740826 0)
(2.21469 -0.0702075 0)
(2.23006 -0.0665014 0)
(2.24475 -0.0629595 -1.14096e-19)
(2.25876 -0.0595769 1.12956e-19)
(2.27214 -0.0563486 1.11803e-19)
(2.2849 -0.0532697 2.21342e-19)
(2.29707 -0.0503351 0)