/*--------------------------------*- C++ -*----------------------------------*\
  =========                 |
  \\      /  F ield         | OpenFOAM: The Open Source CFD Toolbox
   \\    /   O peration     | Website:  https://openfoam.org
    \\  /    A nd           | Version:  7
     \\/     M anipulation  |
\*---------------------------------------------------------------------------*/
FoamFile
{
    version     2.0;
    format      ascii;
    class       surfaceScalarField;
    location    "2";
    object      phi;
}
// * * * * * * * * * * * * * * * * * * * * * * * * * * * * * * * * * * * * * //

dimensions      [0 3 -1 0 0 0 0];

internalField   nonuniform List<scalar> 
1300
(
3.75095
5.62643
-4.95774
3.75095
-4.3406
5.62643
-4.07357
4.07357
-0.925429
0.925429
1.92689
1.82406
-3.57501
3.57501
-3.58327
3.58327
-1.98492
1.98492
-3.88504
3.88504
-3.21486
3.21486
1.70238
-1.70238
-3.29992
3.29992
-1.32333
1.32333
-3.87433
3.87433
2.21968
-2.21968
-3.59245
3.59245
-1.19095
1.19095
-1.32179
5.07275
2.42916
2.42916
-1.78723
1.78723
-3.73525
3.73525
4.65217
-4.65217
8.12826
-8.12826
-3.17051
-3.59382
1.26316
-8.50898
-3.07745
-3.07745
-8.39062
8.39062
-2.76419
2.86224
2.06539
-2.06539
-0.695337
0.695337
-3.88136
-0.192202
-3.88136
4.17176
-0.098197
4.17176
-1.03607
0.110644
-1.03607
2.92208
-2.92208
0.836584
0.0888448
0.836584
2.06428
-2.06428
-1.89728
3.82417
1.85367
-1.71564
6.78838
-2.03532
3.85938
-3.07051
3.07051
-3.64917
0.0741665
-3.64917
3.62154
-0.0465339
3.62154
-3.4983
3.4983
-3.57531
-0.00796532
-3.57531
3.58584
-0.00256694
3.58584
2.10373
-2.10373
-2.00977
0.0248443
-2.00977
1.97482
0.0100999
1.97482
1.35957
4.26686
-6.986
9.84825
-4.26686
0.381819
3.50152
0.383512
3.50152
-3.18772
-0.02714
-3.18772
3.32679
-0.11193
3.32679
1.3981
0.30428
1.3981
-2.09734
0.394958
-2.09734
-3.60801
-3.68305
-3.37858
0.0786545
-3.37858
-1.33796
0.0146327
-1.33796
1.28702
0.036301
1.28702
-2.26411
2.26411
-4.06002
0.185692
-4.06002
2.06559
0.154092
2.06559
1.67043
2.08052
5.42138
-5.42138
3.2017
-3.5988
0.00634781
-3.5988
-3.62082
-4.50744
3.62082
-0.028366
-0.897339
-0.293606
-0.897339
2.16539
0.263771
2.16539
1.90581
0.0690122
-1.90581
0.118584
2.36504
-2.36504
1.22877
0.558455
1.22877
-3.58032
3.58032
3.47084
-0.144053
-3.47084
-0.264412
4.47382
0.178348
4.47382
-4.78683
0.134658
-4.78683
3.66506
-7.25888
-3.6448
3.19193
0.107988
-3.19193
0.114487
2.08125
-0.0158616
2.08125
-2.04494
2.04494
-2.06086
-0.0045285
-2.06086
-0.532882
-0.162455
-0.532882
0.87676
-0.181423
0.87676
-3.56947
-0.311898
-3.56947
-4.16093
0.100912
4.16093
0.0108334
1.37996
-1.37996
-1.13105
0.0949775
-1.13105
-3.20077
-0.368695
3.20077
-0.278694
-2.74786
-0.174215
-2.74786
-2.06901
0.00814274
2.06901
-0.00473017
2.05232
0.113065
-2.05232
-0.0119522
-1.77023
3.85076
-1.98072
3.83439
-2.93939
-0.131116
-2.93939
3.27322
-0.202717
3.27322
3.82658
0.0477506
-3.82658
0.177401
3.62338
-0.00183569
3.62338
-3.46564
-0.0326583
-3.46564
3.55585
-0.0575491
3.55585
3.59712
0.0262538
-3.59712
0.0218161
3.63098
-0.0451383
3.63098
2.13964
-0.0359097
2.13964
-2.08251
-0.0212185
-2.08251
2.0513
-2.0513
2.00545
0.0458537
-2.00545
-0.00432083
-14.4011
14.5358
-0.183778
-14.2174
3.31775
3.31775
0.80141
0.59669
0.80141
-2.55016
0.452824
-2.55016
3.63642
-7.28123
3.63368
-7.24169
3.68399
-12.193
3.64983
-7.33289
3.51495
-3.51495
3.46514
0.0498101
-3.46514
0.0865614
-1.30646
-0.0314978
-1.30646
-2.06829
-0.195825
-2.06829
2.54053
-0.276412
2.54053
-2.08323
2.08323
-2.06075
-0.0224806
2.06075
0.0048399
3.62413
0.00685079
-3.62413
0.0253283
0.798678
0.0379065
-0.798678
-0.0986617
2.43768
-0.0726376
2.43768
-2.24664
-0.118407
-2.24664
-1.26465
-0.0418112
1.26465
-0.0358767
-3.93851
0.358185
-3.93851
-14.1119
-0.105483
-13.7284
-4.89231
-4.89231
3.4983
13.3466
-2.08182
-0.000692058
2.08182
-0.000565981
2.04349
0.0397328
-2.04349
-0.00144863
-2.04994
-0.00135699
2.04994
-0.0050006
-0.445663
-0.0872196
-0.445663
-1.13685
1.13685
-1.01881
-0.118049
1.01881
-0.142046
1.52038
-0.140417
1.52038
1.22892
0.0581054
-1.22892
0.0978691
-2.58877
-0.159097
-2.58877
3.36143
-0.0882092
3.36143
-2.17445
-0.0721893
2.17445
-0.0348051
-0.0935247
14.6293
-3.22422
0.0365038
3.22422
-14.8077
14.8442
-0.466055
0.0203925
0.466055
0.335355
3.10106
0.479269
-3.10105
0.550893
3.51672
0.0391296
-3.51672
0.00176974
-1.92724
-0.141054
-1.92724
-2.78103
-0.158357
2.78103
-0.240505
-14.934
-0.306397
15.2404
-15.046
4.24491
0.228918
-4.24491
15.0731
-1.24894
-0.131027
1.24894
-0.112081
1.66499
-0.14461
1.66499
2.55651
-0.118828
-2.55651
-0.0322578
-3.41647
-0.0491692
3.41647
-0.0550387
-1.8121
-0.115139
1.8121
-0.147107
-4.36725
4.63102
2.42113
-3.60236
-3.65652
-8.1098
1.56242
2.28833
4.76413
-7.40515
-4.78782
-7.29066
8.65806
-8.10717
-7.92433
8.22861
8.19761
-8.37182
-6.29285
6.29769
6.90898
-6.91371
1.85881
1.96536
11.4867
-11.4125
-10.9511
10.8199
10.9126
-10.9206
11.3655
-11.3982
-13.1712
13.2104
-6.09112
6.11596
-7.08604
7.06482
-7.17931
7.14451
-3.65068
-3.59101
9.56016
-9.4815
12.5951
-12.5887
-12.3168
12.5025
3.51927
1.11175
3.63233
-2.09972
3.95853
-1.75966
4.18079
3.6313
-7.28198
3.64993
-7.30645
6.38565
6.20942
-6.35729
-1.75251
-6.31585
6.29999
-6.23692
6.23192
11.9854
-12.1776
-2.01704
3.9824
-1.81736
4.10569
-3.70809
-2.58476
3.554
1.21013
5.77728
3.78288
-5.88527
-1.40539
-8.17505
8.05622
-8.36964
8.25124
0.255326
7.30692
-7.56224
3.99058
-2.79296
10.0999
5.8651
6.31792
7.32809
-6.84882
0.779078
-8.34132
-8.60573
-2.61683
2.71181
2.48185
-2.393
6.7024
1.49521
6.42371
-5.8017
-2.57012
-5.9608
4.10937
2.18832
4.08689
4.32244
2.58654
4.33058
3.28636
-3.32051
0.034151
-3.39295
6.67931
0.661895
-5.97772
-4.76758
7.40115
4.08552
7.35461
-7.70528
-3.70721
-7.52788
-6.45095
-4.50011
-6.60931
6.98594
3.834
6.78323
-8.31089
8.25585
7.13983
3.77279
7.13727
-7.14846
-3.77213
-7.12665
11.3546
-2.98067
-8.37393
-7.27586
-5.89539
7.33341
4.03212
7.95779
5.25258
7.95956
3.90942
7.44518
-7.94154
2.04615
-4.01323
-2.07789
-4.01755
3.88045
2.23551
3.89055
-4.44983
-2.63621
-4.45052
-4.44983
-2.72948
4.48574
2.57908
-4.53334
-3.8363
4.60553
2.53897
3.34442
-8.13224
3.98846
-7.57947
-6.61862
-2.86288
-6.53206
4.47081
2.8765
-7.34731
-2.81117
11.8701
-5.66071
10.1176
-7.74204
-4.84669
-7.71671
-9.5316
-2.78524
-9.43069
-5.38268
5.24162
-5.74293
5.46652
11.5483
-6.47868
-5.06964
-4.20827
-2.70543
4.22023
-0.587892
-4.02333
4.05748
-0.064796
4.11599
5.22774
4.63985
-4.07262
-2.1643
-4.07407
4.05612
2.1758
4.05477
9.27604
2.70932
9.17784
-8.04252
-4.13503
-8.35442
4.47216
-4.63461
3.07744
-3.11925
5.40627
2.84497
-5.33363
-2.84142
6.4688
-3.21823
-3.25057
-14.3022
10.1726
4.12958
-4.2023
-0.211718
0.979227
-5.23224
-2.69209
4.83728
1.48064
11.6532
8.96115
-7.04119
7.39937
8.19924
8.05518
-0.550549
2.55746
-2.53707
5.28106
-0.698006
-4.58306
6.09134
-6.46003
-2.26308
-6.42913
4.16604
-0.036326
1.39896
-1.69257
-2.09021
-0.526619
-1.99234
1.56186
0.919991
1.59976
0.985224
1.72658
-2.93988
0.555773
2.38411
-1.95466
-1.83723
-3.91428
-0.624922
4.5392
5.84946
2.20676
-5.8172
-0.143602
2.7978
-2.7615
-1.10523
-2.80905
1.8661
-2.97132
-3.64695
-2.06407
5.71102
-3.53723
-0.536843
3.4975
0.589396
-4.00229
-2.31355
4.00682
0.323757
-3.34256
6.70909
-3.36653
-5.50686
2.78745
3.89186
4.97577
-5.22439
2.6428
2.5816
-1.33254
6.2763
1.07831
6.27447
-10.0683
6.36106
8.30042
4.20212
-8.34817
0.82029
-9.24798
10.5472
-9.21406
-1.3331
5.46206
5.0851
5.82694
5.72137
-3.98035
9.8073
-1.21454
-7.99952
10.4625
-6.2604
6.34037
-12.6008
-12.0617
4.06222
-7.62122
9.3026
-1.68138
-2.56537
-5.74552
10.1866
-0.949495
-9.23709
5.83373
-5.83672
-5.9623
11.799
-8.8174
9.73443
-2.86668
-6.86775
-7.00413
-4.39406
7.0533
1.20256
-10.8274
12.8735
-3.38217
6.15
0.987265
6.10486
4.28566
-6.54849
2.26284
4.53174
-7.39842
2.79026
-9.33875
-5.36135
10.4577
-5.09638
-8.22423
-7.32686
-0.897371
2.2359
10.6376
-7.48848
5.84954
1.63894
3.45654
0.598229
-3.50239
-0.515162
0.410742
4.86692
-5.27767
4.30129
4.3703
3.82538
1.04155
4.06684
2.23314
-4.06627
-0.384247
-4.33117
1.60169
-1.75209
-3.78724
5.38893
-4.26688
0.47964
-2.92032
-3.7989
6.71922
-4.99821
3.30986
3.39923
5.48566
-5.27764
1.47874
-2.63638
-2.64125
2.78813
-4.54022
2.03405
3.35487
4.57303
0.736729
5.29964
5.15809
-8.17614
0.596673
8.94096
-7.53557
1.78804
6.17153
-7.63758
0.310727
-6.22134
1.25068
-6.91139
-6.09663
7.12004
-9.90528
-5.48073
8.53328
0.644555
-8.54412
-0.886575
-3.6787
-1.70398
-3.79384
-1.93365
-3.80928
-5.914
-1.23652
-4.67749
4.00511
-4.33458
-2.27473
4.57509
0.891432
-4.28881
4.15779
-4.40831
4.2637
0.136158
3.92132
4.77601
2.07058
-2.58878
4.65936
-7.45621
10.1655
-11.9043
4.44812
4.75811
-8.89315
-7.14621
2.6708
1.80136
2.48938
6.73732
-8.04424
1.30692
-7.08034
8.30418
-1.22384
-10.8919
3.81159
-4.1546
2.8371
0.24033
2.80561
0.791607
2.49936
-3.29097
-2.32764
-2.36352
-2.40701
-3.64206
6.04907
1.14663
-3.52918
2.38255
-3.63038
4.77701
-0.107955
-3.42123
5.54071
-3.04134
5.78104
-3.73834
2.0427
3.42746
5.82824
-2.40078
4.64013
-1.79516
1.84335
-4.24413
-1.79871
-3.23969
5.4752
-3.47953
3.95917
-0.197539
4.15671
-4.37298
1.15475
-0.547605
3.8227
3.94128
4.42118
-3.37964
3.07352
-4.86868
-1.17062
-4.13195
-0.777074
-1.1121
-5.70141
6.81351
5.92359
-7.0357
-3.08628
6.6455
-3.55922
5.25065
-3.61698
-1.63367
-1.72342
-2.91119
1.81064
0.746827
5.99748
0.0864353
-3.70342
-2.45064
-2.11528
4.84657
0.434496
-2.24845
6.37803
1.26922
0.129738
0.335272
1.26449
1.66115
-1.32587
0.526738
1.13441
-1.16583
2.05097
0.746828
-2.10908
0.116733
-1.35942
3.22552
1.02469
-1.94468
0.618805
2.41419
-3.1122
4.94099
-1.80986
-3.13113
7.35518
1.88296
-3.69282
4.54617
-4.58249
2.80442
-3.42934
-0.888402
-5.47089
-3.97569
-2.59662
4.97917
-3.45245
5.65922
1.33222
-5.51561
6.84784
-3.7185
1.65444
-3.15995
3.90678
-1.05851
-2.10144
2.77732
2.9337
-3.00266
0.193606
-0.225345
2.31989
-2.54524
-0.651428
-2.60609
-4.92763
5.25138
-2.31828
4.96107
2.34108
-2.10306
7.06413
1.99455
-4.09761
-3.51231
-4.04915
-1.51601
3.45976
-0.962584
-6.16406
-7.83033
6.13781
0.136658
-9.9373
11.2235
-1.28623
-5.85178
-0.509278
5.97133
-8.19513
0.796717
-5.40488
5.81865
6.89696
7.03362
-9.14394
-0.0931491
-5.30994
1.34307
-6.65302
6.42817
-3.07786
7.14007
-7.62087
5.34614
-6.72944
5.80698
-0.84604
6.03408
-3.77125
2.33984
-6.73391
-5.53135
7.69551
-3.92272
8.68278
-4.49413
13.1769
-7.8763
7.63194
5.54497
-1.51216
-6.20455
-7.53911
6.02695
0.0928381
6.1977
5.29744
-3.0643
4.91319
2.26324
-4.89963
-2.27698
-6.97036
2.07074
-3.57114
-2.01033
4.08107
3.47533
4.07356
1.43981
-3.5584
7.27607
-8.17344
-2.17969
-3.91694
7.43958
-1.41263
4.3185
-8.23544
-2.59289
5.73501
-0.596479
-5.13853
0.74367
-6.2244
2.79067
-9.01507
7.11461
-8.00119
1.44902
-5.60362
-2.8398
-2.95188
-1.43748
-2.97083
-4.85813
3.42064
-1.04654
3.11125
-5.94317
5.34669
-2.36101
5.78165
-3.22861
-0.565234
3.37571
0.88799
6.66964
-0.699381
-6.44683
-1.02781
6.26625
-5.23844
3.81876
-6.40079
-0.13454
3.68755
3.66763
-7.8536
-1.03955
-7.48638
-3.06406
4.86542
3.58144
9.50503
1.46079
5.0993
-0.233883
6.5601
2.25549
2.11345
-4.43955
5.74647
2.37396
6.82208
-0.89775
2.94045
1.90786
1.92249
0.839007
2.41719
1.52409
3.57194
0.280967
-2.08255
3.60724
-5.72252
-0.096174
-5.12583
3.10278
5.56986
-2.46708
5.15762
-4.72313
-0.080817
2.64607
-1.46736
-1.17871
-1.93698
-1.33763
-0.203219
-1.37217
1.99098
1.85334
-1.78776
-0.149221
0.115567
-4.09125
3.31377
-3.12017
-0.186467
6.66137
-2.77784
0.232602
-1.12341
-2.37348
-2.9001
2.78337
6.70674
0.357393
3.34021
5.60877
3.29522
0.230927
4.90453
-6.58591
-4.43422
-6.67906
-0.250887
5.72045
2.10811
8.52949
7.65308
6.24045
-1.99499
-10.1684
8.31748
-2.57101
7.09364
-1.95511
-7.05996
7.09056
3.07497
-7.73511
-0.266072
-7.32603
-9.89704
-0.41967
5.76636
-6.24997
5.68474
3.98077
0.696721
-2.25843
-0.693452
2.37647
-0.263025
6.29707
-2.08654
-6.97026
9.0568
-3.48332
3.38714
5.5328
0.845228
4.35409
-0.369037
-7.3393
-9.80638
-1.29695
-1.81525
-4.42808
0.111124
-1.96447
5.03139
-1.64424
3.39772
7.41255
7.33174
-1.94893
-5.08677
5.50814
-2.11043
5.22131
)
;

boundaryField
{
    wall-4
    {
        type            calculated;
        value           uniform 0;
    }
    velocity-inlet-5
    {
        type            calculated;
        value           uniform -3.75095;
    }
    velocity-inlet-6
    {
        type            calculated;
        value           uniform -5.62643;
    }
    pressure-outlet-7
    {
        type            calculated;
        value           nonuniform List<scalar> 8(4.95774 4.3406 6.76433 7.24582 7.29107 7.30986 7.2701 7.33382);
    }
    wall-8
    {
        type            calculated;
        value           uniform 0;
    }
    frontAndBackPlanes
    {
        type            empty;
        value           nonuniform 0();
    }
}


// ************************************************************************* //
