/*--------------------------------*- C++ -*----------------------------------*\
  =========                 |
  \\      /  F ield         | OpenFOAM: The Open Source CFD Toolbox
   \\    /   O peration     | Website:  https://openfoam.org
    \\  /    A nd           | Version:  7
     \\/     M anipulation  |
\*---------------------------------------------------------------------------*/
FoamFile
{
    version     2.0;
    format      ascii;
    class       volScalarField;
    location    "0.082";
    object      nut;
}
// * * * * * * * * * * * * * * * * * * * * * * * * * * * * * * * * * * * * * //

dimensions      [0 2 -1 0 0 0 0];

internalField   nonuniform List<scalar> 
12225
(
0
0
0
0
0
0
4.46382e-11
0
0
0
0
0
0
0
0
0
0
0
0
0
0
0
0
2.29498e-10
3.49251e-10
1.447e-11
0
0
0
0
0
0
0
0
0
0
0
0
0
0
7.4131e-10
1.21651e-09
1.04384e-09
1.82485e-10
0
0
0
0
0
0
0
9.2882e-12
0
0
0
5.96359e-09
8.9066e-09
4.63069e-09
2.73558e-09
1.90667e-09
7.68972e-10
0
0
0
0
0
0
0
0
2.80172e-10
0
0
0
0
1.35065e-07
5.50971e-08
0
0
0
0
0
0
4.82624e-10
9.32567e-10
8.52395e-10
7.05863e-10
0
0
0
0
0
0
2.1758e-07
1.19564e-07
0
0
0
1.35019e-09
1.35367e-08
1.41257e-08
0
0
0
0
0
0
0
0
0
2.26896e-07
4.67619e-07
2.40535e-07
0
0
0
6.76261e-09
0
0
0
0
0
0
0
0
0
0
1.54074e-07
3.63147e-07
7.75623e-07
8.73189e-07
4.24394e-07
1.05072e-07
5.68458e-08
0
0
0
0
0
0
0
0
0
0
3.15256e-10
1.95378e-07
3.81817e-07
9.76087e-07
1.00842e-06
6.24519e-07
3.80092e-07
1.42853e-07
0
0
0
0
0
0
0
0
0
0
0
1.62151e-07
5.47314e-07
1.18477e-06
9.77497e-07
6.73812e-07
3.56729e-07
3.55969e-08
0
0
0
0
0
0
0
0
0
0
0
0
4.21935e-07
8.7171e-07
6.76003e-07
4.3957e-07
1.82613e-07
0
0
0
0
0
0
2.8816e-08
1.84745e-08
0
0
0
0
0
4.82126e-07
5.67373e-07
3.05958e-07
0
0
0
0
6.89321e-09
0
0
0
0
0
0
0
0
0
0
6.87971e-07
5.6253e-07
3.46548e-07
0
0
0
0
2.01852e-08
1.85461e-08
0
0
0
0
0
0
1.7675e-08
4.26033e-08
2.68e-07
7.94237e-07
8.14149e-07
7.8397e-07
2.0342e-07
0
0
0
1.21116e-07
1.91508e-07
0
0
0
0
0
0
4.81996e-08
5.5382e-08
1.34588e-07
8.48388e-07
1.14776e-06
6.99432e-07
3.59455e-08
0
1.36733e-07
2.9189e-07
3.69956e-07
5.95551e-07
1.26017e-07
0
0
0
0
0
0
0
4.21361e-07
8.42136e-07
5.44122e-07
2.45692e-07
0
0
9.65138e-07
8.57464e-07
5.05426e-07
4.54311e-07
0
0
0
0
0
0
0
0
0
0
6.25834e-08
9.63755e-08
0
0
6.57816e-07
5.95587e-07
3.44737e-07
0
0
0
0
0
0
0
0
0
0
0
0
3.73672e-08
0
0
1.80604e-07
1.52363e-07
0
0
0
0
0
0
0
0
0
6.72873e-09
0
0
0
1.79003e-07
0
0
1.43687e-07
3.62886e-07
2.65455e-07
0
0
0
0
0
0
0
0
0
0
0
0
0
0
0
0
0
0
0
0
0
6.9935e-08
2.8956e-07
3.6118e-07
3.10604e-07
1.38338e-07
0
0
0
0
0
0
0
0
0
0
0
0
0
0
0
6.21565e-09
1.15887e-07
1.48633e-07
1.23302e-07
0
0
0
0
0
0
0
0
0
0
0
0
0
0
0
5.96874e-08
1.66524e-07
2.28114e-07
0
0
1.12569e-08
8.11029e-08
6.29465e-08
0
0
0
0
0
0
0
0
0
0
6.82858e-08
2.04423e-07
2.93047e-07
3.02142e-07
0
0
8.36895e-08
1.48925e-07
0
0
0
0
0
0
4.64355e-08
8.72764e-08
1.56031e-08
0
0
0
0
9.49103e-07
0
0
0
4.04566e-09
0
0
0
0
0
2.48173e-08
4.9168e-08
8.52957e-09
0
0
0
0
0
8.55869e-07
0
0
0
0
5.47038e-08
2.01435e-08
0
0
0
0
0
0
0
0
0
0
5.74449e-09
0
0
0
0
0
0
0
0
0
0
0
0
0
0
0
0
1.08103e-09
1.6339e-09
4.33398e-09
0
0
0
0
0
0
0
0
0
0
0
0
0
0
0
0
0
7.25877e-09
0
0
0
0
0
0
0
0
0
0
0
0
0
0
0
0
0
6.22491e-08
0
0
0
0
0
0
0
0
0
0
0
0
0
0
0
0
0
0
2.74592e-06
6.19397e-06
6.74625e-07
0
0
0
0
0
0
4.10768e-07
5.49236e-07
3.49052e-07
7.91511e-08
0
0
0
0
0
0
0
0
0
0
0
0
0
0
0
0
0
0
0
0
0
0
0
0
1.91197e-08
3.52112e-07
0
0
0
0
0
0
0
7.33029e-07
5.25562e-06
1.01339e-05
1.23725e-05
1.03878e-05
4.76649e-06
0
0
0
0
0
0
0
3.51348e-09
1.05201e-06
4.21339e-07
1.664e-06
1.33886e-05
3.37713e-05
4.53161e-05
5.40058e-05
4.93392e-05
1.87743e-05
3.608e-06
7.16705e-07
1.13449e-07
0
0
2.11674e-08
4.35037e-08
5.45698e-08
5.60834e-08
5.19234e-08
4.17847e-08
3.35787e-08
2.42215e-08
1.61921e-08
1.01397e-08
5.01369e-09
4.44752e-10
0
0
0
0
0
0
0
0
0
0
0
0
0
0
0
0
0
0
0
0
0
0
0
0
0
0
0
0
0
0
0
0
0
0
0
0
0
0
0
0
0
0
0
0
0
0
0
0
0
0
0
0
0
0
0
0
0
0
0
0
0
0
0
0
0
0
0
0
0
0
0
0
0
0
0
0
0
0
0
0
0
0
0
0
0
0
0
0
6.05176e-12
4.26816e-12
7.34371e-11
1.60144e-09
0
0
0
0
0
0
0
0
0
0
0
3.564e-07
5.12003e-07
2.6575e-07
0
0
0
0
0
0
0
0
0
0
0
0
0
0
0
0
0
0
0
0
0
0
0
0
0
0
0
0
0
0
0
0
0
0
0
7.22594e-07
1.70735e-06
2.28361e-06
2.38084e-06
1.68168e-06
1.24081e-09
0
0
0
0
1.81196e-07
5.52424e-07
1.46468e-06
2.08491e-06
2.96754e-06
7.89107e-06
6.49563e-06
5.66174e-06
6.98804e-06
5.77532e-06
4.66292e-06
2.84546e-06
1.33388e-06
6.0339e-07
2.45795e-07
9.76694e-08
5.47236e-08
5.10115e-08
5.39489e-08
5.43449e-08
5.27786e-08
4.92196e-08
4.44111e-08
3.88611e-08
3.30099e-08
2.60503e-08
1.87865e-08
1.03805e-08
1.61024e-09
0
0
0
0
0
0
0
0
0
0
0
0
0
0
0
0
0
0
0
0
0
0
0
0
0
0
0
0
0
0
0
0
0
0
0
0
0
0
0
0
0
0
0
0
0
0
0
0
0
0
0
0
0
0
0
0
0
0
0
0
0
0
0
0
0
0
0
0
0
0
0
0
0
0
0
0
0
0
1.79459e-12
0
0
0
0
0
0
0
0
0
1.71976e-11
1.86248e-11
3.28169e-11
6.92632e-10
0
2.88132e-06
3.26969e-06
1.85242e-06
5.84313e-07
0
0
0
0
0
0
0
0
0
0
0
0
0
0
0
0
0
0
0
0
0
0
0
0
0
0
0
0
0
0
0
0
0
0
0
0
0
0
0
0
0
0
0
0
0
4.14352e-08
5.10762e-08
1.52307e-08
0
3.31268e-08
0
0
0
9.86432e-08
6.04261e-07
1.02527e-06
2.53052e-06
4.73438e-06
2.61829e-06
1.03392e-06
5.43761e-07
6.95274e-07
6.4154e-07
3.98653e-07
4.35644e-07
5.14405e-07
4.40817e-07
3.3871e-07
2.81562e-07
2.63573e-07
2.63659e-07
2.6655e-07
2.62653e-07
2.51419e-07
2.35652e-07
2.17369e-07
1.9507e-07
1.68263e-07
1.36253e-07
1.02896e-07
7.01663e-08
3.95705e-08
1.06701e-08
0
0
0
0
0
0
0
0
0
0
0
0
0
0
0
0
0
0
0
0
0
0
0
0
0
0
0
0
0
0
0
0
0
0
0
0
0
0
0
0
0
0
5.54005e-09
9.69943e-09
1.12255e-08
1.09947e-08
9.49897e-09
7.53631e-09
5.69319e-09
4.07763e-09
2.69038e-09
1.30693e-09
0
0
0
0
0
0
0
0
0
0
0
0
0
0
0
0
0
0
0
0
0
0
0
3.04846e-11
5.90656e-11
6.47408e-11
6.12563e-11
3.81056e-11
2.21263e-11
0
0
0
0
0
0
0
0
5.5408e-11
0
5.13435e-10
0
5.72127e-07
1.30271e-06
1.56647e-06
1.45536e-06
9.47795e-07
0
0
0
0
0
0
3.88056e-07
5.17108e-07
4.1856e-07
2.55615e-07
1.25576e-07
3.94367e-08
0
0
0
0
0
0
0
0
0
0
0
0
0
0
0
0
0
0
0
0
0
0
0
0
0
0
0
0
0
0
0
0
0
0
0
3.90221e-09
5.12637e-07
1.0252e-06
1.0407e-06
1.20153e-06
1.5429e-06
9.35092e-07
0
6.04395e-07
5.05983e-07
2.93314e-07
0
0
0
0
0
0
6.54668e-08
1.47561e-07
2.21811e-07
2.99683e-07
3.57873e-07
3.88679e-07
3.99319e-07
3.94867e-07
3.75075e-07
3.59088e-07
3.51854e-07
3.62405e-07
3.95352e-07
4.52832e-07
5.41452e-07
6.51266e-07
6.28482e-07
8.11428e-09
0
0
0
0
0
0
0
0
0
0
0
0
0
0
0
0
0
0
0
0
0
0
0
0
0
0
0
0
0
0
0
0
0
0
0
0
0
0
0
0
0
0
0
0
0
0
0
1.69833e-08
3.35478e-08
4.38429e-08
4.64041e-08
4.03948e-08
2.8597e-08
1.49878e-08
3.24102e-09
0
0
0
0
0
0
0
0
0
0
2.59071e-10
8.33584e-10
1.15401e-09
1.26674e-09
1.22676e-09
1.09448e-09
9.23294e-10
7.57677e-10
6.20517e-10
5.22491e-10
4.50264e-10
3.97982e-10
3.43013e-10
2.90943e-10
2.19015e-10
1.55585e-10
6.87979e-11
1.39571e-11
0
0
0
0
0
0
1.66131e-11
0
7.51787e-10
0
0
3.10633e-07
5.88256e-07
6.42192e-10
0
0
0
0
5.08426e-07
5.13113e-07
3.14264e-07
1.7212e-07
6.31199e-08
0
0
0
0
0
0
0
0
0
0
0
0
0
0
0
9.31225e-09
4.61271e-08
7.59318e-08
9.32783e-08
9.65579e-08
7.52117e-08
4.07886e-08
0
0
0
0
3.55973e-08
6.61402e-08
2.27208e-08
0
0
0
0
0
0
0
0
0
8.81919e-08
1.11229e-06
2.25911e-06
3.09764e-06
2.89932e-06
2.46067e-06
1.25361e-06
0
0
0
0
4.66129e-07
6.8899e-07
3.42208e-07
9.566e-08
0
0
0
1.26283e-08
1.14299e-07
1.45226e-07
1.3449e-07
1.14243e-07
8.96288e-08
6.5342e-08
4.59103e-08
3.31162e-08
2.66119e-08
2.46465e-08
2.55798e-08
2.69402e-08
2.44894e-08
1.01016e-08
0
0
0
0
0
0
0
0
0
0
0
0
0
0
0
0
0
0
0
0
0
0
0
0
0
0
0
0
0
0
0
0
0
0
0
0
0
0
0
0
0
0
0
0
0
0
0
0
0
0
0
0
0
0
0
0
1.20143e-08
2.10347e-08
2.47585e-08
2.57667e-08
2.34935e-08
1.62509e-08
5.96277e-09
0
0
0
0
0
0
0
0
0
0
0
0
0
0
0
5.22209e-10
7.29344e-10
7.72054e-10
7.39766e-10
6.90685e-10
5.91991e-10
5.10069e-10
2.957e-10
2.27972e-10
0
0
0
0
0
1.78031e-10
0
1.19529e-09
0
0
0
0
0
0
2.38205e-07
6.37616e-08
5.66565e-08
1.97115e-07
2.37388e-07
2.09221e-07
9.1275e-08
0
0
0
0
0
0
0
0
0
0
0
0
0
4.51837e-08
1.19507e-07
1.96685e-07
2.74085e-07
3.48797e-07
4.18291e-07
4.77668e-07
5.24087e-07
5.52854e-07
5.65722e-07
5.6055e-07
5.35019e-07
5.05292e-07
4.6271e-07
4.17856e-07
3.80062e-07
3.16888e-07
2.66234e-07
2.48519e-07
1.99968e-07
1.11404e-07
0
0
0
0
0
9.4929e-07
4.69653e-06
4.19928e-06
2.60544e-06
8.29184e-07
0
0
0
0
0
0
4.16933e-07
7.6681e-07
5.34393e-07
2.41878e-07
3.76209e-08
7.64963e-09
9.59539e-08
1.43386e-07
1.48175e-07
1.39918e-07
1.20672e-07
8.99128e-08
5.64613e-08
2.57573e-08
5.18829e-10
0
0
0
0
0
6.92758e-08
2.33304e-07
3.5977e-08
0
0
0
0
0
0
0
0
0
0
0
0
0
0
0
0
0
0
0
0
0
0
0
0
0
0
0
0
0
0
0
0
0
0
0
0
0
0
0
0
0
0
0
0
0
0
0
0
0
0
0
0
0
0
0
0
5.72213e-09
1.71056e-08
1.35267e-08
5.99088e-09
5.07966e-09
7.68998e-09
7.07228e-09
1.50871e-09
0
0
0
0
0
0
0
0
0
0
0
0
0
0
0
0
0
0
0
2.68299e-09
1.98464e-09
2.35411e-10
0
0
0
0
0
0
0
0
0
0
0
0
0
2.31284e-07
5.75423e-08
0
0
0
0
0
0
0
0
0
0
0
0
0
0
0
0
0
0
0
8.96367e-08
2.11692e-07
3.39404e-07
4.68452e-07
5.94446e-07
7.13938e-07
8.21805e-07
9.14798e-07
9.87231e-07
1.0382e-06
1.06394e-06
1.06231e-06
1.0279e-06
9.48553e-07
8.3202e-07
7.04806e-07
5.68678e-07
4.41062e-07
3.52279e-07
2.86105e-07
2.06649e-07
1.00569e-07
0
0
0
0
0
8.23679e-07
8.29004e-07
0
0
0
0
0
0
0
0
0
2.53876e-08
1.3206e-07
2.54095e-07
3.71393e-07
3.78547e-07
3.21238e-07
2.76907e-07
2.41614e-07
1.91131e-07
1.34281e-07
7.75604e-08
2.58428e-08
0
0
0
0
0
7.5822e-08
2.59105e-07
7.09023e-07
7.25883e-07
0
0
0
0
0
0
0
0
0
0
0
0
0
0
0
0
0
0
0
0
0
0
0
0
0
0
0
0
0
0
0
0
0
0
0
0
0
0
0
0
0
0
0
0
0
0
0
0
0
0
0
0
0
0
0
0
0
0
0
1.10422e-08
2.23879e-08
2.07021e-08
1.91374e-08
2.15622e-08
2.18921e-08
1.72179e-08
9.25035e-09
1.91239e-10
0
0
0
0
0
0
0
0
0
0
0
0
0
0
0
0
0
0
0
0
0
0
0
0
0
0
0
0
0
0
0
0
0
0
0
0
0
0
0
0
0
0
0
0
0
0
0
0
0
0
0
0
3.75434e-09
1.75192e-07
3.45809e-07
5.12914e-07
6.76081e-07
8.34696e-07
9.86147e-07
1.12638e-06
1.2497e-06
1.34416e-06
1.4091e-06
1.44699e-06
1.45682e-06
1.43584e-06
1.3799e-06
1.2864e-06
1.16165e-06
1.02608e-06
8.89967e-07
7.48531e-07
5.90944e-07
4.07395e-07
1.86644e-07
0
0
0
0
0
0
6.02201e-07
0
0
0
0
0
0
0
0
0
0
0
1.61541e-07
3.90265e-07
4.29355e-07
4.14523e-07
3.66777e-07
2.88991e-07
2.0462e-07
1.17602e-07
4.00663e-08
0
0
0
0
1.3568e-08
1.27765e-07
3.99273e-07
9.95391e-07
1.79374e-06
0
0
0
0
0
0
9.89433e-10
1.6113e-08
3.3781e-09
0
0
0
0
0
0
0
0
0
0
0
0
0
0
0
0
0
0
0
0
0
0
0
0
0
0
0
0
0
0
0
0
0
0
0
0
0
0
0
0
0
0
0
0
0
0
0
0
0
0
0
0
1.20758e-08
3.39901e-08
4.75055e-08
4.86029e-08
4.42735e-08
3.7083e-08
2.66695e-08
1.41535e-08
6.51707e-10
0
0
0
0
0
0
0
0
0
0
0
0
0
0
0
0
0
0
0
0
0
0
0
0
0
0
0
0
0
0
0
0
0
0
0
0
0
0
0
0
0
0
0
0
0
0
0
0
0
0
0
0
0
0
7.4946e-08
2.01398e-07
3.50479e-07
5.12442e-07
6.7788e-07
8.40699e-07
1.00396e-06
1.16245e-06
1.31356e-06
1.45132e-06
1.54972e-06
1.54834e-06
1.47893e-06
1.36441e-06
1.26963e-06
1.18525e-06
1.09206e-06
9.90267e-07
8.76297e-07
7.20064e-07
4.82315e-07
1.07964e-07
0
0
0
0
1.92146e-06
3.42595e-07
0
0
0
0
0
0
0
0
0
0
2.11065e-07
4.02207e-07
4.61455e-07
4.36879e-07
3.64083e-07
2.68005e-07
1.582e-07
5.49931e-08
0
0
0
0
1.68049e-08
1.24074e-07
3.77412e-07
9.06587e-07
1.80364e-06
1.5363e-06
0
0
1.94162e-07
8.36311e-07
1.01321e-06
9.46024e-07
7.88174e-07
6.37523e-07
5.14831e-07
3.79498e-07
2.48957e-07
1.36257e-07
3.96014e-08
0
0
0
0
0
0
0
0
0
0
0
0
0
0
0
0
0
0
0
0
0
0
0
0
0
0
0
0
0
0
0
0
0
0
0
0
0
0
0
0
0
0
0
2.34691e-10
0
0
0
0
1.49091e-08
3.30406e-08
5.1764e-08
6.78717e-08
6.92311e-08
5.4771e-08
3.65399e-08
1.93692e-08
3.52994e-09
0
0
0
0
0
0
8.41848e-09
0
0
0
0
0
0
0
0
0
0
0
0
0
0
0
0
0
0
0
0
0
0
0
0
0
0
0
0
0
0
0
0
0
0
0
0
0
0
1.03649e-07
2.20029e-07
1.50973e-07
0
0
0
0
0
0
0
0
0
0
0
1.08963e-09
2.71263e-07
4.47408e-07
5.74765e-07
6.98396e-07
8.7635e-07
1.13295e-06
1.31018e-06
1.30357e-06
1.20173e-06
1.09324e-06
1.00605e-06
9.14044e-07
7.93163e-07
6.5437e-07
5.07735e-07
3.39223e-07
1.01958e-07
0
0
8.75949e-07
2.09638e-06
2.36792e-06
1.48179e-06
0
0
0
0
0
0
0
0
2.00457e-08
4.0795e-07
5.07874e-07
4.41851e-07
3.61763e-07
2.79623e-07
1.72937e-07
6.352e-08
0
0
0
0
1.51286e-08
1.01982e-07
2.96749e-07
6.94679e-07
1.37309e-06
2.23013e-06
2.75505e-07
0
0
0
2.12574e-07
5.77211e-07
6.55032e-07
5.4569e-07
4.23831e-07
2.93634e-07
1.72923e-07
7.09787e-08
0
0
0
0
0
0
0
0
0
0
0
0
0
0
0
0
0
0
0
0
7.02961e-09
0
0
0
0
0
0
0
0
0
0
0
0
0
0
0
0
0
0
0
0
0
0
0
0
0
5.1356e-09
5.61375e-09
7.19188e-09
1.56004e-08
3.01598e-08
4.6838e-08
6.05643e-08
7.15615e-08
8.0608e-08
7.76409e-08
5.5337e-08
2.82396e-08
6.70137e-09
0
0
0
0
0
0
0
1.76704e-08
1.28694e-08
0
0
0
0
0
0
0
0
0
0
0
0
0
0
0
0
0
0
0
0
0
0
0
0
0
0
0
0
0
0
0
0
0
4.65159e-07
1.06209e-06
1.55021e-06
1.7754e-06
1.5745e-06
9.08428e-07
0
0
0
0
0
0
0
0
0
0
0
0
0
0
1.95161e-07
3.30248e-07
3.60771e-07
3.95634e-07
5.4354e-07
7.76864e-07
8.61321e-07
7.8182e-07
6.3976e-07
4.84379e-07
3.14912e-07
1.0088e-07
0
0
0
0
0
0
0
1.56966e-06
3.46848e-06
1.4739e-06
1.81294e-07
0
0
0
0
0
0
3.72872e-07
7.36389e-07
4.04412e-07
2.65753e-07
2.24484e-07
1.50644e-07
5.34766e-08
0
0
0
0
1.32471e-08
7.98928e-08
2.0182e-07
4.35775e-07
8.74183e-07
1.50877e-06
1.5064e-06
0
0
0
0
0
1.3727e-07
4.93677e-07
4.83828e-07
3.45701e-07
2.15761e-07
1.10047e-07
4.50588e-08
1.03235e-08
0
0
0
0
0
0
0
0
3.7951e-08
1.23761e-08
0
0
0
0
0
0
0
0
0
0
0
0
0
0
0
0
0
0
0
0
0
0
0
0
0
0
0
3.46547e-09
1.58931e-08
4.20596e-09
0
0
0
0
0
6.53327e-09
1.63096e-08
2.25705e-08
3.3861e-08
4.99968e-08
6.68198e-08
7.99707e-08
8.55082e-08
8.52157e-08
8.29113e-08
7.25214e-08
4.62307e-08
1.54245e-08
0
0
0
0
0
0
0
0
1.99491e-08
2.44155e-08
3.32828e-09
0
0
0
0
0
0
0
0
0
0
0
0
0
0
0
0
0
0
0
0
0
0
0
0
0
0
0
0
0
4.34836e-07
1.04526e-06
1.50353e-06
1.80436e-06
1.9789e-06
2.01844e-06
1.80119e-06
1.29174e-06
5.80904e-07
0
0
0
0
0
0
0
0
0
0
0
0
0
0
2.05441e-07
3.70803e-07
3.26575e-07
1.97759e-07
1.64884e-07
3.01696e-07
3.8184e-07
2.40947e-07
0
0
0
0
0
0
0
0
0
0
4.28541e-06
4.76975e-06
1.61926e-06
4.31114e-07
0
0
0
0
0
0
0
0
0
0
5.01161e-08
2.32654e-08
0
0
0
0
2.69504e-09
5.6964e-08
1.21299e-07
2.12718e-07
3.75905e-07
5.89925e-07
6.21721e-07
0
0
0
0
0
0
0
4.53675e-07
4.45112e-07
2.86324e-07
1.49068e-07
5.10182e-08
1.37312e-09
0
0
4.33408e-09
7.32096e-09
0
0
0
5.03123e-09
1.97431e-08
2.79531e-08
2.061e-08
0
0
0
0
0
0
0
0
0
0
0
0
0
0
0
0
0
0
0
0
0
0
0
0
0
0
0
7.07901e-09
4.95278e-08
7.04258e-08
7.02751e-08
4.77729e-08
1.37681e-08
0
8.2985e-09
2.32187e-08
3.72749e-08
4.9681e-08
6.48303e-08
8.3981e-08
1.00888e-07
1.10927e-07
1.12238e-07
1.03621e-07
8.96721e-08
7.66813e-08
6.10843e-08
3.43966e-08
2.91321e-09
0
0
0
0
0
0
0
0
1.9845e-08
2.78545e-08
8.08831e-09
0
0
0
0
0
0
0
0
0
0
0
0
0
0
0
0
0
0
0
0
0
0
0
0
0
0
0
5.56979e-07
9.73652e-07
1.18922e-06
1.32411e-06
1.50321e-06
1.78984e-06
2.22207e-06
2.6418e-06
2.65289e-06
1.89953e-06
6.38129e-07
0
0
0
0
6.08557e-07
1.19992e-06
1.58515e-06
1.58345e-06
1.03178e-06
0
0
0
0
0
2.305e-08
2.8348e-07
2.65631e-07
1.23507e-07
0
0
0
0
0
0
0
0
0
0
0
0
0
5.96872e-06
4.49005e-06
1.79428e-06
4.43206e-07
0
0
0
0
0
0
0
0
0
0
0
0
0
0
0
0
3.78101e-08
7.53226e-08
9.25239e-08
6.55267e-08
0
0
0
0
0
0
0
0
0
0
0
1.13499e-07
1.05402e-07
2.60668e-08
0
0
0
0
0
0
0
0
0
2.88829e-09
2.59406e-08
1.72712e-08
0
0
0
0
0
0
0
0
0
0
0
0
0
8.61367e-09
0
0
0
0
0
0
0
0
0
0
0
0
0
0
0
4.57351e-08
9.71497e-08
1.21403e-07
1.2579e-07
1.10423e-07
8.12488e-08
6.63449e-08
7.5966e-08
9.58682e-08
1.12765e-07
1.31151e-07
1.48886e-07
1.62789e-07
1.65632e-07
1.56587e-07
1.38229e-07
1.12648e-07
8.7131e-08
6.78977e-08
5.02714e-08
2.25162e-08
0
0
0
0
0
0
0
0
0
1.97717e-08
2.50303e-08
6.27032e-09
0
0
0
0
0
0
0
0
0
0
0
0
0
0
0
0
0
0
0
0
0
0
0
0
0
4.47597e-07
7.25182e-07
8.35089e-07
9.40632e-07
1.14125e-06
1.60295e-06
2.45435e-06
3.7234e-06
5.44048e-06
6.92527e-06
6.12609e-06
2.33282e-07
0
0
0
0
0
0
0
6.79005e-07
1.41213e-06
1.39937e-06
2.5567e-07
0
0
0
0
0
1.26975e-07
1.15802e-07
0
0
0
0
0
0
0
0
0
0
0
0
0
8.69799e-06
6.0664e-06
3.15755e-06
1.27873e-06
1.51537e-07
0
0
0
0
0
0
0
0
0
0
0
0
0
8.06818e-09
3.21357e-08
6.04662e-08
6.64955e-08
0
0
0
0
0
0
0
0
0
0
0
0
0
0
8.43111e-08
2.23813e-08
0
0
0
0
0
0
0
0
0
0
0
1.29837e-08
2.79501e-09
0
0
0
0
0
0
0
0
0
2.03632e-08
4.9603e-08
6.47765e-08
6.00829e-08
3.86647e-08
1.25986e-08
0
8.66402e-10
5.16506e-10
0
6.21092e-09
2.64746e-08
3.78549e-08
2.94114e-08
4.10654e-09
0
0
0
0
2.43571e-08
9.77173e-08
1.48593e-07
1.69321e-07
1.73679e-07
1.61302e-07
1.41002e-07
1.393e-07
1.66339e-07
2.23803e-07
2.70566e-07
2.89614e-07
2.88775e-07
2.72998e-07
2.42338e-07
2.02134e-07
1.60039e-07
1.19934e-07
8.83214e-08
6.65572e-08
4.44683e-08
8.60473e-09
0
0
0
0
0
0
0
0
6.35513e-09
1.83081e-08
1.73201e-08
0
0
0
0
0
0
0
0
0
0
0
0
0
0
0
0
0
0
0
0
0
0
0
0
1.52683e-07
3.29491e-07
4.19181e-07
5.04839e-07
6.44721e-07
9.5482e-07
1.54918e-06
2.49369e-06
3.82607e-06
5.4885e-06
7.03076e-06
3.55973e-06
0
0
0
0
0
0
0
0
0
0
2.85792e-07
7.12017e-07
0
0
0
0
0
0
7.28785e-08
2.34192e-08
0
0
0
0
0
0
0
0
0
0
0
2.42864e-06
5.59558e-06
6.81512e-06
5.70693e-06
4.22587e-06
3.46864e-06
1.16483e-06
2.89886e-07
4.88325e-09
0
0
0
0
0
0
0
0
7.9956e-09
2.59296e-08
4.80371e-08
7.8055e-08
1.06783e-07
8.73602e-08
0
0
0
0
0
0
0
0
0
0
0
0
0
8.30775e-08
1.27897e-07
3.74105e-08
0
0
3.09931e-09
7.2889e-10
0
4.14814e-09
1.24595e-08
8.06881e-09
0
0
0
6.52576e-10
1.4544e-08
1.22752e-08
0
0
0
0
0
0
0
0
0
8.61366e-09
2.86055e-08
3.74579e-08
3.82062e-08
2.77435e-08
1.30111e-08
6.06235e-09
2.41468e-09
0
1.18049e-09
2.97164e-08
6.42114e-08
7.54927e-08
6.6483e-08
4.50003e-08
1.1308e-08
0
0
4.27732e-09
8.12482e-08
1.59659e-07
2.00276e-07
2.15789e-07
2.20272e-07
2.09917e-07
2.01648e-07
2.17447e-07
2.59874e-07
3.19755e-07
3.78537e-07
4.22699e-07
4.3172e-07
3.9252e-07
3.2274e-07
2.48636e-07
1.87855e-07
1.42227e-07
1.09948e-07
8.26851e-08
4.1754e-08
0
0
0
0
0
0
0
0
0
9.45814e-09
1.24614e-08
4.77983e-09
0
0
0
0
0
0
0
0
0
0
0
0
0
0
0
0
0
0
0
0
0
0
0
0
0
0
6.03767e-08
1.584e-07
3.02196e-07
5.23933e-07
7.86966e-07
9.41829e-07
7.34239e-07
0
0
0
0
0
0
0
0
0
0
0
0
0
6.54718e-08
2.94497e-07
0
0
0
0
0
5.50625e-08
2.94e-08
0
0
0
0
0
0
6.53441e-08
3.16895e-07
4.96019e-07
6.22645e-07
7.9554e-07
1.13913e-06
1.63223e-06
2.17914e-06
2.66631e-06
2.73844e-06
1.75455e-06
7.97602e-07
3.28693e-07
8.95595e-08
0
0
0
0
0
0
7.32289e-08
6.21534e-08
2.92935e-08
1.74357e-08
3.35249e-08
6.96512e-08
1.07821e-07
9.63471e-08
0
0
0
0
0
0
0
0
0
0
0
0
0
2.72641e-07
1.73007e-07
6.12633e-08
2.28489e-08
1.85462e-08
1.3969e-08
6.91689e-10
0
0
4.71043e-09
8.68362e-09
2.26995e-09
0
0
0
5.60725e-10
8.08809e-09
1.1654e-08
1.22302e-08
9.03236e-09
2.61925e-09
0
0
0
0
0
3.35928e-09
2.42824e-08
4.12862e-08
6.03077e-08
6.70297e-08
5.53412e-08
3.97925e-08
2.24292e-08
6.25983e-10
0
1.6473e-09
4.96734e-08
9.7764e-08
1.11342e-07
1.02356e-07
8.44907e-08
5.81676e-08
3.56642e-08
2.76829e-08
7.52214e-08
1.60268e-07
2.32331e-07
2.6318e-07
2.76229e-07
2.82604e-07
2.74398e-07
2.79601e-07
3.02336e-07
3.34365e-07
3.61859e-07
3.77156e-07
4.03268e-07
4.49274e-07
4.53218e-07
3.81868e-07
2.95961e-07
2.34107e-07
1.93704e-07
1.59673e-07
1.13297e-07
2.37e-08
0
0
0
0
0
0
0
0
4.33201e-09
5.45097e-09
5.97251e-10
0
0
0
0
0
0
0
0
0
0
0
0
0
0
0
0
1.1636e-07
1.65747e-07
2.0663e-07
1.91286e-07
9.44881e-08
0
0
0
0
0
0
0
0
0
0
0
0
0
0
0
0
0
0
0
0
0
0
0
0
0
5.38407e-08
3.53693e-07
3.35674e-09
0
0
0
7.25402e-09
5.42088e-08
2.00988e-08
0
0
0
0
0
0
0
5.97601e-08
1.36955e-07
2.34091e-07
4.1676e-07
6.72677e-07
9.46149e-07
1.20594e-06
1.36115e-06
1.20807e-06
7.97763e-07
4.43257e-07
2.33215e-07
1.02557e-07
0
0
0
0
0
0
6.98886e-08
1.25073e-07
1.0435e-07
6.06849e-08
3.59167e-08
4.23496e-08
6.33339e-08
5.88153e-08
0
0
0
0
0
0
0
0
0
0
0
0
2.39584e-07
2.94769e-07
1.63863e-07
7.43216e-08
4.17267e-08
3.11415e-08
1.84007e-08
8.7296e-10
0
0
4.31155e-09
5.12441e-09
0
0
0
0
0
0
0
0
0
9.79049e-10
2.93129e-09
3.63752e-09
2.96818e-09
5.7156e-09
1.7616e-08
4.01434e-08
6.75633e-08
9.02724e-08
1.02007e-07
9.64715e-08
7.88565e-08
6.42773e-08
5.83156e-08
4.35526e-08
1.83412e-08
3.33111e-09
2.36622e-08
8.01064e-08
1.28119e-07
1.4558e-07
1.42046e-07
1.29e-07
1.09913e-07
9.81848e-08
1.03933e-07
1.63623e-07
2.61027e-07
3.12517e-07
3.33692e-07
3.47911e-07
3.50141e-07
3.44317e-07
3.49955e-07
3.60622e-07
3.7377e-07
3.8412e-07
3.77537e-07
3.59907e-07
3.75469e-07
3.99026e-07
3.59989e-07
2.99423e-07
2.54225e-07
2.1954e-07
1.75096e-07
9.03935e-08
0
0
0
0
0
0
0
0
1.28146e-09
0
0
0
0
0
0
0
0
0
0
0
0
0
0
0
0
5.75926e-09
1.44958e-07
4.65878e-07
5.79388e-07
6.22292e-07
5.81307e-07
4.38138e-07
1.84489e-07
0
0
0
0
0
0
0
0
0
0
0
0
0
0
0
0
0
4.05736e-07
5.29557e-07
4.26433e-07
2.95911e-07
1.65272e-07
5.98988e-09
0
1.34207e-07
3.26665e-07
1.48943e-07
0
0
0
6.22906e-08
5.27954e-08
7.17183e-09
0
0
0
0
0
0
0
4.27329e-09
6.50745e-08
1.33754e-07
2.626e-07
4.19252e-07
5.55812e-07
6.48975e-07
6.56909e-07
5.42653e-07
3.72178e-07
2.3106e-07
1.41809e-07
8.1049e-08
2.85497e-08
0
0
0
0
0
0
2.3754e-10
9.21798e-08
1.21752e-07
1.12001e-07
9.91551e-08
9.48999e-08
8.76271e-08
6.41599e-08
1.38253e-08
0
0
0
0
0
0
0
0
0
0
0
1.3447e-07
1.00217e-07
5.52493e-08
3.48161e-08
2.43409e-08
1.18225e-08
0
0
2.77638e-09
9.02186e-09
7.18415e-09
0
0
0
0
0
0
0
5.18372e-10
7.16539e-10
0
0
0
0
3.85564e-09
2.0065e-08
4.8796e-08
9.51854e-08
1.36567e-07
1.36972e-07
1.09131e-07
7.71179e-08
5.64616e-08
5.72685e-08
6.81738e-08
6.24058e-08
4.37085e-08
3.67214e-08
6.63902e-08
1.23224e-07
1.65801e-07
1.89747e-07
1.89951e-07
1.78784e-07
1.70127e-07
1.70904e-07
1.97724e-07
2.90764e-07
3.69598e-07
4.00795e-07
4.17377e-07
4.26728e-07
4.11485e-07
4.00489e-07
3.90701e-07
3.81352e-07
3.77768e-07
3.84167e-07
3.86866e-07
3.59497e-07
3.36483e-07
3.31579e-07
2.99406e-07
2.56265e-07
2.14577e-07
1.6334e-07
7.84571e-08
0
0
0
0
0
0
0
0
0
0
0
0
0
0
0
0
0
0
0
0
0
0
0
0
1.24019e-07
2.63252e-07
3.94595e-07
5.93049e-07
7.54507e-07
8.21745e-07
7.84819e-07
6.6413e-07
4.5063e-07
1.63375e-07
0
0
0
0
0
0
0
0
0
0
0
0
0
0
6.16299e-07
2.24435e-06
1.90561e-06
1.31841e-06
8.58809e-07
5.57715e-07
3.23787e-07
1.13386e-07
5.05628e-08
1.89007e-07
3.3432e-07
2.77608e-07
0
0
6.58342e-08
1.36134e-07
6.14687e-08
3.14339e-09
0
0
0
0
0
0
0
0
3.85312e-08
1.02559e-07
1.71031e-07
2.35961e-07
2.85871e-07
3.14097e-07
3.01786e-07
2.38854e-07
1.60241e-07
9.93164e-08
6.31009e-08
4.08824e-08
2.66238e-08
2.02729e-08
1.49918e-08
0
0
0
0
0
0
3.47911e-09
8.42334e-08
1.26815e-07
1.46113e-07
1.57923e-07
1.85335e-07
2.55689e-07
4.3363e-07
9.3812e-07
1.75308e-06
2.90363e-06
4.59489e-06
6.60858e-06
8.35097e-06
0
0
0
0
0
2.96121e-08
2.17517e-08
1.79464e-08
1.45876e-08
7.66049e-09
1.68568e-09
1.85754e-09
5.57954e-09
5.50347e-09
5.60119e-11
0
0
0
0
1.11603e-09
6.72155e-10
0
4.51082e-10
3.74995e-09
8.31811e-09
1.24836e-08
1.38662e-08
1.3161e-08
1.68358e-08
3.35143e-08
7.16296e-08
1.31528e-07
1.60616e-07
1.35921e-07
1.02365e-07
7.51865e-08
5.56813e-08
4.83519e-08
5.70052e-08
7.18231e-08
7.43042e-08
6.88621e-08
7.7956e-08
1.19773e-07
1.76872e-07
2.16866e-07
2.45129e-07
2.44698e-07
2.35363e-07
2.38439e-07
2.52842e-07
3.1858e-07
4.21687e-07
4.66838e-07
4.85963e-07
4.9842e-07
4.79717e-07
4.49023e-07
4.17442e-07
3.84208e-07
3.52585e-07
3.29636e-07
3.27382e-07
3.47111e-07
3.55168e-07
3.27731e-07
2.81661e-07
2.23535e-07
1.6015e-07
8.15595e-08
0
0
0
0
0
0
0
0
0
0
0
0
0
0
0
0
0
0
0
0
0
0
0
0
0
7.42966e-07
7.35049e-07
5.82593e-07
5.60747e-07
7.08561e-07
7.90086e-07
7.83649e-07
6.85655e-07
5.3841e-07
3.40749e-07
1.22883e-07
0
0
0
0
0
0
0
0
0
0
0
0
0
4.23779e-06
3.12854e-06
1.87364e-06
1.12775e-06
6.8551e-07
4.2361e-07
2.60624e-07
1.46249e-07
1.57598e-07
2.79877e-07
3.93555e-07
5.7024e-07
1.01806e-06
3.32646e-07
3.75545e-07
1.70403e-07
7.01863e-08
1.25629e-08
0
0
4.87417e-11
7.5e-11
0
0
0
0
0
7.41724e-08
1.16324e-07
1.35476e-07
1.45271e-07
1.47496e-07
1.29735e-07
9.11756e-08
4.95931e-08
1.97678e-08
5.72374e-09
1.27491e-09
2.62472e-09
1.31164e-08
3.72265e-08
5.89378e-08
5.32754e-08
2.7746e-09
0
0
0
0
0
0
3.34604e-08
8.87199e-08
1.5657e-07
2.86235e-07
5.61355e-07
1.20895e-06
2.1054e-06
3.53074e-06
5.50954e-06
7.67452e-06
9.71913e-06
0
0
0
0
0
0
0
7.44211e-10
7.35016e-09
6.83862e-09
5.47947e-09
6.28948e-09
6.29191e-09
1.7104e-09
0
0
0
0
5.67181e-09
9.43743e-09
7.18914e-09
2.45892e-09
0
0
5.12596e-09
1.27839e-08
1.93417e-08
2.54897e-08
3.8865e-08
7.43132e-08
1.36905e-07
1.82484e-07
1.5819e-07
1.11571e-07
7.76988e-08
5.79165e-08
4.80961e-08
4.49777e-08
4.72892e-08
5.82333e-08
7.45108e-08
8.65617e-08
9.85588e-08
1.28833e-07
1.86807e-07
2.43052e-07
2.84269e-07
3.1477e-07
3.05909e-07
3.01653e-07
3.14282e-07
3.53097e-07
4.58954e-07
5.22561e-07
5.46354e-07
5.60434e-07
5.44591e-07
4.99242e-07
4.48335e-07
3.88381e-07
3.25906e-07
2.70682e-07
2.29734e-07
2.10578e-07
2.24775e-07
2.55266e-07
2.14808e-07
1.30003e-07
3.22665e-08
0
0
0
0
0
0
0
0
0
0
0
0
0
0
0
0
0
0
0
0
0
0
0
0
0
0
1.9088e-06
9.49261e-07
4.24911e-07
3.35048e-07
4.66245e-07
5.69127e-07
6.0341e-07
5.64621e-07
4.59897e-07
3.36678e-07
2.00334e-07
6.96803e-08
0
0
0
0
0
0
0
0
0
0
0
0
1.92509e-06
1.66459e-06
1.06785e-06
6.5909e-07
4.13808e-07
3.00505e-07
2.39097e-07
2.19003e-07
2.82013e-07
3.99361e-07
6.33144e-07
1.55671e-06
2.43048e-06
1.46484e-06
4.6957e-07
1.80632e-07
7.9489e-08
2.73531e-08
1.06166e-08
1.40766e-08
1.83724e-08
1.63314e-08
1.24827e-08
6.41357e-09
0
0
0
1.64042e-08
5.79012e-08
6.9369e-08
6.27959e-08
4.97705e-08
2.87335e-08
4.05216e-09
0
0
0
0
0
0
9.82444e-09
4.11465e-08
7.27401e-08
7.95135e-08
4.30221e-08
0
0
0
0
0
0
0
0
1.2967e-07
4.18318e-07
9.44622e-07
1.76659e-06
3.11829e-06
4.71506e-06
6.23417e-06
5.94822e-06
0
0
0
0
0
0
0
0
0
4.26333e-09
5.75013e-09
6.28437e-09
4.14891e-09
0
0
0
0
5.05567e-09
1.22234e-08
1.47921e-08
1.21126e-08
7.04897e-09
3.37934e-09
4.31048e-09
1.0982e-08
2.08409e-08
3.16401e-08
4.93844e-08
8.86106e-08
1.55255e-07
2.08832e-07
1.90757e-07
1.41431e-07
9.57245e-08
5.99091e-08
3.7339e-08
2.91073e-08
3.1691e-08
3.737e-08
4.48579e-08
6.06969e-08
8.51948e-08
1.11249e-07
1.45197e-07
1.98978e-07
2.72792e-07
3.29461e-07
3.72367e-07
3.86862e-07
3.69886e-07
3.77272e-07
4.01475e-07
4.85926e-07
5.66513e-07
5.95868e-07
6.0998e-07
5.99704e-07
5.46925e-07
4.83069e-07
4.01267e-07
3.106e-07
2.2733e-07
1.60287e-07
1.11033e-07
8.37763e-08
8.84335e-08
6.53312e-08
0
0
0
0
0
0
0
0
0
0
0
0
0
0
0
0
0
0
0
0
0
0
0
0
0
0
0
0
1.83572e-06
7.69119e-07
2.35898e-07
1.67094e-07
1.85351e-07
2.5568e-07
3.10529e-07
3.18853e-07
2.75275e-07
1.96213e-07
1.17281e-07
4.16042e-08
0
0
0
0
0
0
0
0
0
0
0
1.49181e-07
4.31467e-07
4.06514e-07
2.78939e-07
1.87329e-07
1.77805e-07
2.32381e-07
3.02485e-07
3.73668e-07
4.59942e-07
6.54698e-07
1.40721e-06
2.56122e-06
1.57427e-06
1.05773e-06
3.55294e-07
1.59189e-07
8.32138e-08
4.29653e-08
3.02271e-08
3.4304e-08
3.79756e-08
3.47349e-08
2.82828e-08
2.31346e-08
1.60388e-08
4.74342e-09
0
0
0
0
0
0
0
0
0
0
0
0
0
0
0
8.03744e-09
3.62234e-08
6.91978e-08
8.72819e-08
7.01575e-08
1.51837e-08
0
0
0
0
0
0
4.25228e-08
3.35584e-07
8.11137e-07
1.61205e-06
2.78043e-06
4.00539e-06
4.95589e-06
2.78187e-06
0
0
0
0
0
0
0
0
0
1.94237e-09
6.55875e-09
7.39215e-09
4.24557e-09
0
0
0
4.08595e-09
1.09302e-08
1.60641e-08
1.73249e-08
1.48773e-08
1.08357e-08
8.3974e-09
1.14247e-08
2.1865e-08
3.96228e-08
6.82023e-08
1.20472e-07
2.00246e-07
2.62037e-07
2.44552e-07
1.83241e-07
1.19867e-07
7.0104e-08
3.77981e-08
1.78009e-08
7.91567e-09
1.07179e-08
2.20217e-08
3.34464e-08
4.79996e-08
7.55883e-08
1.14559e-07
1.59899e-07
2.15307e-07
3.02922e-07
3.86803e-07
4.3902e-07
4.70425e-07
4.50652e-07
4.41487e-07
4.57548e-07
5.11563e-07
6.00015e-07
6.34438e-07
6.47109e-07
6.41022e-07
5.85625e-07
5.16086e-07
4.20874e-07
3.08046e-07
2.03247e-07
1.20428e-07
5.80173e-08
1.21922e-08
0
0
0
0
0
0
0
0
0
0
0
0
0
0
0
0
0
0
0
0
0
0
0
0
2.27049e-08
0
0
0
0
0
2.61424e-06
7.21855e-07
2.06032e-07
1.41943e-07
3.00772e-08
0
4.23124e-08
6.72131e-08
5.25446e-08
1.26854e-08
0
0
0
0
0
0
0
0
0
3.18654e-08
7.2959e-08
1.09707e-07
1.13873e-07
4.70665e-08
0
0
0
4.73515e-08
2.1712e-07
3.8684e-07
5.01648e-07
5.62546e-07
7.11583e-07
1.29058e-06
2.21272e-06
1.43273e-06
9.12968e-07
6.70011e-07
2.76092e-07
1.55653e-07
9.49355e-08
6.2102e-08
5.25896e-08
5.5475e-08
5.61903e-08
5.17365e-08
4.39054e-08
3.49968e-08
2.79701e-08
1.97971e-08
4.95992e-09
0
0
0
0
0
0
0
0
0
0
0
0
0
0
0
1.07113e-08
3.49554e-08
6.36888e-08
8.88383e-08
9.21448e-08
6.49907e-08
1.75976e-08
0
0
0
1.71247e-08
1.80203e-07
4.73826e-07
9.65271e-07
1.7566e-06
2.7068e-06
3.66598e-06
3.93553e-06
1.03517e-06
0
0
0
0
0
0
0
0
0
0
7.55095e-09
9.86222e-09
7.08312e-09
3.46532e-09
3.13857e-09
6.8254e-09
1.2661e-08
1.78461e-08
2.00715e-08
1.89129e-08
1.64685e-08
1.54587e-08
1.87863e-08
3.02373e-08
5.27078e-08
9.20029e-08
1.58862e-07
2.5117e-07
3.2015e-07
3.09513e-07
2.5044e-07
1.7368e-07
9.7001e-08
4.27595e-08
1.15358e-08
0
0
0
9.64322e-10
2.16312e-08
4.03497e-08
6.76331e-08
1.14634e-07
1.73729e-07
2.38919e-07
3.32591e-07
4.52145e-07
5.21749e-07
5.60885e-07
5.52329e-07
5.15301e-07
5.19639e-07
5.47422e-07
6.23722e-07
6.6282e-07
6.73751e-07
6.68978e-07
6.1306e-07
5.40701e-07
4.41317e-07
3.15338e-07
1.96352e-07
1.04573e-07
3.62204e-08
0
0
0
0
0
0
0
0
0
0
0
0
0
0
0
0
0
0
0
0
0
0
0
0
0
1.93446e-08
4.47273e-08
0
0
0
0
1.43814e-06
4.30621e-07
8.85187e-08
7.73228e-08
0
0
0
0
0
0
0
0
0
0
0
0
0
0
0
4.98807e-08
1.18038e-07
1.58668e-07
1.19396e-07
0
0
0
0
2.17864e-07
4.50613e-07
6.22978e-07
6.95454e-07
8.22267e-07
1.29818e-06
1.81493e-06
1.13468e-06
6.92457e-07
6.38779e-07
4.24018e-07
2.23458e-07
1.41505e-07
9.68161e-08
7.49583e-08
7.19858e-08
7.49783e-08
7.26739e-08
6.48728e-08
5.59324e-08
4.46209e-08
3.4237e-08
2.57329e-08
1.69786e-08
0
0
0
0
0
0
0
0
0
0
0
0
0
0
0
4.5923e-09
1.91298e-08
4.00372e-08
6.67488e-08
9.30558e-08
1.13715e-07
1.22187e-07
1.16762e-07
1.21137e-07
1.57108e-07
2.47717e-07
4.34535e-07
7.51963e-07
1.27034e-06
1.93381e-06
2.68636e-06
3.23637e-06
2.84943e-06
4.49942e-07
0
0
0
0
0
0
0
0
0
0
1.01207e-08
1.4464e-08
1.31144e-08
1.13718e-08
1.26655e-08
1.66163e-08
2.12476e-08
2.42849e-08
2.38246e-08
2.0898e-08
2.04677e-08
2.69758e-08
4.47445e-08
7.93056e-08
1.37106e-07
2.19792e-07
3.09803e-07
3.67113e-07
3.5742e-07
3.04939e-07
2.36157e-07
1.48457e-07
6.66418e-08
1.63232e-08
0
0
0
0
0
5.29633e-09
3.57631e-08
6.7488e-08
1.19131e-07
1.91175e-07
2.71681e-07
3.70363e-07
5.21572e-07
6.20251e-07
6.64804e-07
6.73002e-07
6.09026e-07
5.86765e-07
5.96995e-07
6.43093e-07
6.82682e-07
6.91986e-07
6.87067e-07
6.30176e-07
5.52953e-07
4.55326e-07
3.26957e-07
2.0257e-07
1.07378e-07
3.65039e-08
0
0
0
0
0
0
0
0
0
0
0
0
0
0
0
0
0
0
0
0
0
0
0
0
0
0
5.81979e-08