/*--------------------------------*- C++ -*----------------------------------*\
  =========                 |
  \\      /  F ield         | OpenFOAM: The Open Source CFD Toolbox
   \\    /   O peration     | Website:  https://openfoam.org
    \\  /    A nd           | Version:  7
     \\/     M anipulation  |
\*---------------------------------------------------------------------------*/
FoamFile
{
    version     2.0;
    format      ascii;
    class       volVectorField;
    location    "0.082";
    object      U;
}
// * * * * * * * * * * * * * * * * * * * * * * * * * * * * * * * * * * * * * //

dimensions      [0 1 -1 0 0 0 0];

internalField   nonuniform List<vector> 
12225
(
(4.76032 0.156682 0)
(4.11622 0.11832 0)
(3.6155 0.103411 0)
(3.22297 0.0866647 0)
(2.88611 0.072703 0)
(2.58571 0.0630161 0)
(2.29885 0.0565851 0)
(2.02563 0.0488577 0)
(1.77408 0.0402388 0)
(1.5476 0.0332492 0)
(1.34508 0.0277772 0)
(1.16625 0.0220015 0)
(1.00845 0.0160903 0)
(0.874067 0.0105519 0)
(0.750985 0.00778762 0)
(0.652377 0.00673503 0)
(0.523078 0.00984344 0)
(0.463511 -0.00294807 0)
(4.8527 0.109338 0)
(4.71306 0.0830185 0)
(4.64931 0.0994596 0)
(4.60086 0.0928304 0)
(4.5234 0.0834497 0)
(4.42417 0.0805301 0)
(4.3092 0.084969 0)
(4.17877 0.0907069 0)
(4.03468 0.0927471 0)
(3.88751 0.090703 0)
(3.74658 0.0870313 0)
(3.61718 0.0841004 0)
(3.48959 0.0813898 0)
(3.36572 0.0794031 0)
(3.2252 0.0769995 0)
(3.09389 0.076423 0)
(2.92205 0.0781256 0)
(2.79751 0.0795729 0)
(4.91608 0.199779 0)
(4.8016 0.110544 0)
(4.75602 0.110278 0)
(4.73193 0.116511 0)
(4.69996 0.118644 0)
(4.66169 0.118183 0)
(4.63037 0.121967 0)
(4.60952 0.127999 0)
(4.59075 0.130102 0)
(4.56685 0.125953 0)
(4.53727 0.118162 0)
(4.50236 0.111409 0)
(4.46172 0.107748 0)
(4.41331 0.108385 0)
(4.35708 0.112645 0)
(4.29222 0.12014 0)
(4.21991 0.130581 0)
(4.13871 0.142615 0)
(4.86854 0.208627 0)
(4.84625 0.114946 0)
(4.75969 0.121497 0)
(4.71556 0.125116 0)
(4.70115 0.115308 0)
(4.68976 0.105355 0)
(4.67865 0.102937 0)
(4.67889 0.105296 0)
(4.6923 0.107224 0)
(4.70884 0.107459 0)
(4.71869 0.107503 0)
(4.71456 0.109095 0)
(4.69706 0.112336 0)
(4.6671 0.11699 0)
(4.63243 0.123364 0)
(4.59398 0.131596 0)
(4.56028 0.143661 0)
(4.52492 0.159764 0)
(4.91004 0.211674 0)
(4.88679 0.114199 0)
(4.84907 0.114748 0)
(4.81651 0.12514 0)
(4.78588 0.125789 0)
(4.76039 0.121867 0)
(4.74393 0.119554 0)
(4.73971 0.118037 0)
(4.74468 0.115231 0)
(4.75147 0.1125 0)
(4.7557 0.112783 0)
(4.75518 0.11769 0)
(4.75015 0.126427 0)
(4.73962 0.13664 0)
(4.72512 0.146707 0)
(4.70663 0.156149 0)
(4.68799 0.166475 0)
(4.6676 0.179045 0)
(5.00376 0.215361 0)
(4.93558 0.123672 0)
(4.87852 0.130488 0)
(4.841 0.148244 0)
(4.8186 0.141349 0)
(4.80155 0.124065 0)
(4.78855 0.112993 0)
(4.78213 0.109542 0)
(4.7791 0.108889 0)
(4.77333 0.108923 0)
(4.76359 0.110164 0)
(4.75257 0.113576 0)
(4.74388 0.119403 0)
(4.73774 0.127258 0)
(4.73364 0.136913 0)
(4.72911 0.148149 0)
(4.72432 0.161512 0)
(4.71737 0.177852 0)
(4.96345 0.2148 0)
(4.9607 0.140544 0)
(4.88696 0.137372 0)
(4.84345 0.146212 0)
(4.83092 0.144852 0)
(4.82491 0.134298 0)
(4.81616 0.122701 0)
(4.8087 0.115114 0)
(4.80654 0.112125 0)
(4.80912 0.113192 0)
(4.81401 0.117854 0)
(4.81789 0.125571 0)
(4.8186 0.135129 0)
(4.81397 0.145283 0)
(4.80475 0.155152 0)
(4.79173 0.165095 0)
(4.77899 0.175504 0)
(4.76747 0.18804 0)
(5.03685 0.198758 0)
(4.94578 0.144384 0)
(4.89091 0.153034 0)
(4.85323 0.15841 0)
(4.84823 0.14719 0)
(4.85266 0.132706 0)
(4.84226 0.123833 0)
(4.81977 0.119307 0)
(4.79936 0.115294 0)
(4.78962 0.111078 0)
(4.79106 0.108809 0)
(4.79984 0.111033 0)
(4.81122 0.118633 0)
(4.82121 0.13061 0)
(4.82838 0.144662 0)
(4.83183 0.159212 0)
(4.8343 0.173163 0)
(4.83481 0.18694 0)
(4.98205 0.249182 0)
(4.88256 0.18136 0)
(4.83215 0.167254 0)
(4.82697 0.157733 0)
(4.83456 0.145252 0)
(4.83334 0.136784 0)
(4.83019 0.132146 0)
(4.84005 0.126493 0)
(4.86482 0.11861 0)
(4.89357 0.112098 0)
(4.91408 0.111015 0)
(4.92092 0.116731 0)
(4.9161 0.127475 0)
(4.90509 0.140569 0)
(4.89373 0.153567 0)
(4.88499 0.165406 0)
(4.8812 0.17604 0)
(4.88077 0.186578 0)
(4.94247 0.287328 0)
(4.94815 0.212544 0)
(4.94584 0.170484 0)
(4.92155 0.152339 0)
(4.88875 0.14829 0)
(4.85636 0.142514 0)
(4.83528 0.12797 0)
(4.83297 0.108974 0)
(4.84513 0.0940242 0)
(4.86098 0.0889826 0)
(4.87271 0.0945767 0)
(4.87793 0.107839 0)
(4.87928 0.124148 0)
(4.87994 0.139955 0)
(4.88339 0.153463 0)
(4.88983 0.164803 0)
(4.89977 0.174635 0)
(4.91096 0.184508 0)
(4.89903 0.261185 0)
(4.88826 0.178871 0)
(4.89885 0.173031 0)
(4.88489 0.170212 0)
(4.87978 0.166857 0)
(4.87938 0.156316 0)
(4.87345 0.137159 0)
(4.86435 0.115584 0)
(4.85706 0.100065 0)
(4.85356 0.0958603 0)
(4.8544 0.102658 0)
(4.85915 0.116051 0)
(4.86709 0.130485 0)
(4.8769 0.142446 0)
(4.88742 0.150681 0)
(4.89831 0.156822 0)
(4.9093 0.162052 0)
(4.92106 0.168859 0)
(5.07745 0.275952 0)
(5.01935 0.218612 0)
(4.96991 0.176206 0)
(4.91162 0.156476 0)
(4.88097 0.155822 0)
(4.87336 0.155411 0)
(4.87553 0.143733 0)
(4.88096 0.123651 0)
(4.88733 0.10417 0)
(4.89492 0.0925725 0)
(4.90621 0.0912801 0)
(4.9223 0.0986558 0)
(4.94117 0.110543 0)
(4.95869 0.123916 0)
(4.97118 0.136358 0)
(4.97699 0.147515 0)
(4.97773 0.157022 0)
(4.97504 0.164626 0)
(5.03508 0.238815 0)
(4.97864 0.233833 0)
(4.90629 0.223968 0)
(4.8355 0.204548 0)
(4.81663 0.179337 0)
(4.83476 0.151174 0)
(4.86262 0.123606 0)
(4.88755 0.101148 0)
(4.90625 0.0867857 0)
(4.91915 0.0816269 0)
(4.9285 0.0850359 0)
(4.93639 0.0954122 0)
(4.94406 0.109923 0)
(4.95132 0.126155 0)
(4.95916 0.141572 0)
(4.96694 0.154854 0)
(4.97692 0.164868 0)
(4.9878 0.171366 0)
(5.02746 0.267999 0)
(4.92224 0.282445 0)
(4.87467 0.232723 0)
(4.87754 0.181671 0)
(4.90452 0.152296 0)
(4.92319 0.135919 0)
(4.92745 0.122779 0)
(4.92805 0.108309 0)
(4.93002 0.0941342 0)
(4.93169 0.0846804 0)
(4.93178 0.0826798 0)
(4.93228 0.0878934 0)
(4.93564 0.0975916 0)
(4.94335 0.108887 0)
(4.95547 0.119519 0)
(4.97121 0.128542 0)
(4.98928 0.135051 0)
(5.00855 0.139604 0)
(4.96194 0.261502 0)
(5.01693 0.308847 0)
(5.00416 0.257568 0)
(4.94562 0.197083 0)
(4.92026 0.160455 0)
(4.93038 0.135249 0)
(4.94899 0.111126 0)
(4.96027 0.0891344 0)
(4.96234 0.0755831 0)
(4.95977 0.073644 0)
(4.95822 0.080718 0)
(4.96036 0.0918513 0)
(4.96555 0.102848 0)
(4.97195 0.112064 0)
(4.97841 0.119248 0)
(4.98521 0.124823 0)
(4.99273 0.128719 0)
(5.00223 0.13091 0)
(4.94335 0.272378 0)
(4.96787 0.27185 0)
(4.97257 0.2798 0)
(4.97266 0.226637 0)
(4.99242 0.154788 0)
(5.01279 0.110684 0)
(5.01439 0.101053 0)
(4.99546 0.106659 0)
(4.96729 0.107658 0)
(4.94444 0.0989437 0)
(4.93646 0.0871287 0)
(4.94397 0.0807054 0)
(4.96143 0.0828016 0)
(4.98148 0.0915923 0)
(4.99952 0.102076 0)
(5.01368 0.110397 0)
(5.02512 0.113988 0)
(5.03495 0.112988 0)
(4.95789 0.258288 0)
(4.91257 0.271413 0)
(4.92474 0.245001 0)
(4.97007 0.180849 0)
(5.00333 0.134881 0)
(4.99956 0.122716 0)
(4.98012 0.130505 0)
(4.96797 0.136149 0)
(4.96644 0.125794 0)
(4.96849 0.101287 0)
(4.96815 0.0740927 0)
(4.96436 0.0555582 0)
(4.96015 0.0505798 0)
(4.95857 0.0574451 0)
(4.96247 0.0703459 0)
(4.97185 0.0834798 0)
(4.98698 0.0923591 0)
(5.00558 0.0957693 0)
(4.92826 0.347064 0)
(4.90025 0.296845 0)
(4.9155 0.191481 0)
(4.93607 0.129026 0)
(4.95525 0.115713 0)
(4.97229 0.122681 0)
(4.99579 0.126542 0)
(5.02527 0.119746 0)
(5.05203 0.108295 0)
(5.06755 0.101214 0)
(5.06884 0.101282 0)
(5.05947 0.104569 0)
(5.047 0.105476 0)
(5.03758 0.100474 0)
(5.03486 0.0886048 0)
(5.03948 0.0723606 0)
(5.05102 0.0532481 0)
(5.06743 0.0359689 0)
(5.02478 0.228182 0)
(5.04133 0.255302 0)
(5.04131 0.211285 0)
(5.02498 0.160694 0)
(5.00873 0.114543 0)
(5.01569 0.0764516 0)
(5.03938 0.0536952 0)
(5.06127 0.0484116 0)
(5.07497 0.0560674 0)
(5.08216 0.0684942 0)
(5.08551 0.078506 0)
(5.08785 0.082008 0)
(5.09109 0.0779955 0)
(5.09477 0.0681071 0)
(5.09737 0.0543354 0)
(5.09795 0.0390792 0)
(5.09706 0.0233359 0)
(5.09467 0.00816141 0)
(4.95062 0.246604 0)
(4.98411 0.211788 0)
(5.02287 0.199928 0)
(5.06919 0.161731 0)
(5.09182 0.10346 0)
(5.09059 0.0570201 0)
(5.08484 0.0397814 0)
(5.08232 0.0482623 0)
(5.08193 0.0679231 0)
(5.08421 0.0854974 0)
(5.09108 0.0955024 0)
(5.1025 0.0988406 0)
(5.11736 0.0976894 0)
(5.13373 0.0937289 0)
(5.15009 0.0871513 0)
(5.1641 0.0774793 0)
(5.17596 0.0643173 0)
(5.18382 0.0470623 0)
(5.04857 0.204231 0)
(5.02133 0.158676 0)
(5.00611 0.132009 0)
(5.00729 0.120983 0)
(5.01263 0.112904 0)
(5.01507 0.095766 0)
(5.01563 0.0750023 0)
(5.01665 0.0605706 0)
(5.01994 0.0544646 0)
(5.02768 0.0516754 0)
(5.0417 0.0459997 0)
(5.06161 0.0354658 0)
(5.08577 0.0222222 0)
(5.11168 0.00953033 0)
(5.1382 -0.000189121 0)
(5.16321 -0.00682532 0)
(5.18702 -0.0112094 0)
(5.20743 -0.0150192 0)
(4.93978 0.22935 0)
(4.95826 0.196617 0)
(4.98232 0.185249 0)
(5.02013 0.131034 0)
(5.05049 0.0732215 0)
(5.07211 0.0400384 0)
(5.09142 0.0336964 0)
(5.11167 0.0439617 0)
(5.13326 0.0564633 0)
(5.15365 0.060537 0)
(5.16916 0.0538373 0)
(5.17835 0.0400206 0)
(5.18355 0.0246561 0)
(5.18877 0.0115196 0)
(5.19783 0.000980473 0)
(5.21182 -0.00742462 0)
(5.23108 -0.0154968 0)
(5.25306 -0.0235309 0)
(5.03559 0.164807 0)
(5.05447 0.11688 0)
(5.08246 0.106076 0)
(5.11131 0.0925386 0)
(5.11462 0.0806952 0)
(5.09422 0.062875 0)
(5.07558 0.0367367 0)
(5.07636 0.0131682 0)
(5.09712 0.00273742 0)
(5.13009 0.00463207 0)
(5.16647 0.0109611 0)
(5.20003 0.0129218 0)
(5.22873 0.00547423 0)
(5.25274 -0.011563 0)
(5.27272 -0.0342458 0)
(5.28858 -0.0570218 0)
(5.29968 -0.0759042 0)
(5.30455 -0.0876352 0)
(5.08949 0.152677 0)
(5.0452 0.156428 0)
(5.03847 0.143605 0)
(5.07587 0.11295 0)
(5.1394 0.0896238 0)
(5.20288 0.0721604 0)
(5.25399 0.05104 0)
(5.28766 0.0263702 0)
(5.30426 0.00530647 0)
(5.31028 -0.00777309 0)
(5.31437 -0.0158443 0)
(5.3209 -0.0229131 0)
(5.32973 -0.0300948 0)
(5.33865 -0.036516 0)
(5.34512 -0.040176 0)
(5.34703 -0.0404748 0)
(5.34392 -0.0375755 0)
(5.33656 -0.0333668 0)
(4.93759 0.198039 0)
(5.02539 0.141899 0)
(5.10259 0.0719557 0)
(5.17369 0.019981 0)
(5.21967 -0.00996713 0)
(5.24495 -0.0266058 0)
(5.26398 -0.0321639 0)
(5.28292 -0.0276712 0)
(5.3014 -0.0173153 0)
(5.31675 -0.00699635 0)
(5.32721 -0.00286043 0)
(5.33327 -0.00782683 0)
(5.33569 -0.0201994 0)
(5.3352 -0.0353985 0)
(5.33405 -0.049125 0)
(5.33417 -0.0590681 0)
(5.33712 -0.0647212 0)
(5.34305 -0.0675165 0)
(5.13731 0.225342 0)
(5.19653 0.108718 0)
(5.25826 0.0822007 0)
(5.30513 0.0659679 0)
(5.32533 0.0493097 0)
(5.33271 0.0344419 0)
(5.34202 0.0163896 0)
(5.35376 -0.00265922 0)
(5.36625 -0.0163392 0)
(5.38044 -0.0227059 0)
(5.397 -0.023863 0)
(5.41431 -0.0239294 0)
(5.42951 -0.0259483 0)
(5.4397 -0.0302784 0)
(5.44446 -0.0356064 0)
(5.44487 -0.0407594 0)
(5.44337 -0.0449791 0)
(5.44165 -0.0482884 0)
(5.04584 0.22691 0)
(5.09788 0.0800757 0)
(5.22785 0.0156374 0)
(5.33343 -0.0105554 0)
(5.38652 -0.0279124 0)
(5.40861 -0.0386188 0)
(5.4155 -0.0430169 0)
(5.4167 -0.0416795 0)
(5.42054 -0.0367654 0)
(5.43326 -0.0324563 0)
(5.45602 -0.0320284 0)
(5.48452 -0.0360019 0)
(5.51206 -0.0426903 0)
(5.5327 -0.0497142 0)
(5.54407 -0.0555394 0)
(5.54703 -0.0600217 0)
(5.54474 -0.0637698 0)
(5.54018 -0.0678218 0)
(4.97853 0.217026 0)
(5.18136 0.0731529 0)
(5.32185 0.0172786 0)
(5.38024 -0.000243939 0)
(5.40191 0.00411151 0)
(5.4165 0.0100627 0)
(5.43396 0.0074735 0)
(5.45621 -0.00462452 0)
(5.48385 -0.0217777 0)
(5.51648 -0.0381454 0)
(5.55146 -0.0494887 0)
(5.58468 -0.0543118 0)
(5.61203 -0.0535097 0)
(5.63119 -0.0492092 0)
(5.64207 -0.0438384 0)
(5.64616 -0.0398636 0)
(5.64577 -0.0386478 0)
(5.6424 -0.0413098 0)
(5.06119 0.0180155 0)
(5.28272 -0.0341315 0)
(5.41387 -0.0297602 0)
(5.43583 -0.0452219 0)
(5.43982 -0.0530757 0)
(5.46554 -0.0538749 0)
(5.50452 -0.0566314 0)
(5.53601 -0.0617517 0)
(5.54785 -0.0667845 0)
(5.5397 -0.0707183 0)
(5.51768 -0.0732552 0)
(5.48979 -0.0739752 0)
(5.46226 -0.0726741 0)
(5.43904 -0.0697333 0)
(5.42078 -0.0660046 0)
(5.40695 -0.0628924 0)
(5.39456 -0.0611474 0)
(5.3825 -0.0617484 0)
(4.94194 0.111288 0)
(5.14228 0.00158272 0)
(5.10721 -0.0135909 0)
(4.9766 -0.014818 0)
(4.84961 -0.0157164 0)
(4.73683 -0.0180464 0)
(4.62613 -0.0208337 0)
(4.51025 -0.0226481 0)
(4.38928 -0.0237771 0)
(4.26537 -0.0251753 0)
(4.14018 -0.0269649 0)
(4.01629 -0.0285052 0)
(3.89672 -0.0291611 0)
(3.78488 -0.0287031 0)
(3.68219 -0.0275026 0)
(3.589 -0.026243 0)
(3.50238 -0.0255055 0)
(3.42106 -0.0260524 0)
(-0.0598463 0.18296 -4.72331e-20)
(-0.200588 0.12391 4.68789e-20)
(-0.302967 0.0894715 0)
(-0.35133 0.033721 0)
(-0.34226 -0.0191188 0)
(-0.301486 -0.059642 -4.55136e-20)
(-0.227287 -0.0962019 0)
(-0.126271 -0.126566 0)
(-0.000250091 -0.148419 0)
(0.144227 -0.159147 0)
(0.296462 -0.161261 4.37907e-20)
(0.447696 -0.156185 0)
(0.593521 -0.145212 0)
(0.729423 -0.130338 0)
(0.851687 -0.113454 0)
(0.959195 -0.0964186 4.20467e-20)
(1.05265 -0.0805703 0)
(1.13365 -0.0668052 0)
(1.20426 -0.055563 0)
(1.26667 -0.0470146 0)
(1.32315 -0.0409881 0)
(1.37566 -0.0370695 0)
(1.42605 -0.0348336 0)
(1.47548 -0.0335933 3.93032e-20)
(1.52493 -0.033013 -3.89603e-20)
(1.57472 -0.032245 3.86181e-20)
(1.62473 -0.0311907 3.82769e-20)
(1.67458 -0.0284274 0)
(1.72226 -0.0245439 0)
(1.76791 -0.0174713 -3.72627e-20)
(1.8051 -0.0069176 -3.69285e-20)
(1.83685 0.00657139 0)
(1.85112 0.0289287 0)
(1.85027 0.0535551 -3.59377e-20)
(1.8178 0.09593 0)
(1.74989 0.132242 0)
(1.64713 0.200702 3.49652e-20)
(1.45879 0.255235 0)
(1.26785 0.326454 3.43455e-20)
(0.917435 0.508886 6.81117e-20)
(0.476927 0.307127 0)
(0.254475 -0.198867 0)
(0.183225 -0.459456 0)
(0.137722 -0.345799 0)
(0.0976159 -0.0767941 0)
(0.0873327 0.101532 6.46897e-20)
(0.0579587 0.155798 6.4119e-20)
(-0.04488 0.141705 6.35469e-20)
(-0.195167 0.115391 0)
(-0.361804 0.0980078 -6.23904e-20)
(-0.525123 0.0842054 0)
(-0.662589 0.0646939 6.12753e-20)
(-0.748218 0.0354573 6.0722e-20)
(-0.764074 0.00431778 0)
(-0.712613 -0.0212657 0)
(-0.594926 -0.0423903 0)
(-0.417884 -0.0522446 5.83551e-20)
(-0.243919 -0.0488762 0)
(-0.134092 -0.0731817 0)
(-0.0207106 -0.126669 0)
(0.189608 -0.180396 0)
(0.470612 -0.149037 0)
(0.670068 -0.00432868 0)
(0.62071 0.135245 0)
(0.547875 0.115031 0)
(0.675685 -0.113052 -5.31114e-20)
(0.873074 -0.397161 0)
(1.00295 -0.452646 0)
(0.915557 -0.144783 5.15041e-20)
(0.531504 0.204571 5.10749e-20)
(-0.0102542 0.338568 0)
(-0.563543 0.362117 -5.01896e-20)
(-1.11099 0.357246 4.97524e-20)
(-1.63559 0.341426 0)
(-2.12879 0.320247 -4.89762e-20)
(-2.58812 0.296732 0)
(-3.01296 0.272455 0)
(-3.40343 0.248125 4.79424e-20)
(-3.75978 0.224032 0)
(-4.08205 0.200229 -4.72681e-20)
(-4.36995 0.176592 0)
(-4.62271 0.15292 4.6562e-20)
(-4.83924 0.129162 4.6187e-20)
(-5.01854 0.105487 4.57927e-20)
(-5.16003 0.0822197 9.07532e-20)
(-5.26382 0.0597969 -8.98747e-20)
(-5.33064 0.038791 0)
(-5.36189 0.0197606 0)
(-5.3598 0.00304366 0)
(-5.33032 -0.0115061 -8.59136e-20)
(-5.27468 -0.0240984 -8.48339e-20)
(-5.19651 -0.0351515 8.37321e-20)
(-5.09693 -0.0449701 0)
(-4.9782 -0.0538281 -8.14874e-20)
(-4.84096 -0.062017 -8.03552e-20)
(-4.68629 -0.0696103 -7.92226e-20)
(-4.51487 -0.0766648 0)
(-4.32788 -0.0829889 0)
(-4.12693 -0.088373 0)
(-3.91421 -0.0925608 -7.47655e-20)
(-3.69243 -0.0953709 0)
(-3.46457 -0.0967349 0)
(-3.23366 -0.0967014 7.15884e-20)
(-3.00257 -0.0954149 0)
(-2.77384 -0.0930818 0)
(-2.54955 -0.0899586 6.85962e-20)
(-2.33109 -0.0863237 0)
(-2.11918 -0.0824509 0)
(-1.91403 -0.0786219 -6.57715e-20)
(-1.7153 -0.0750826 -6.48603e-20)
(-1.52226 -0.0719909 0)
(-1.33384 -0.0694663 6.30751e-20)
(-1.14869 -0.0675764 0)
(-0.965369 -0.0662803 -6.13323e-20)
(-0.782666 -0.0654183 0)
(-0.599819 -0.0647714 -5.96297e-20)
(-0.416695 -0.0641212 -5.87948e-20)
(-0.233681 -0.0632033 0)
(-0.0519165 -0.0618798 0)
(0.127127 -0.0597301 0)
(0.30171 -0.0568448 0)
(0.469661 -0.053227 0)
(0.629029 -0.0489654 0)
(0.778108 -0.0441895 0)
(0.915523 -0.0390518 -5.25014e-20)
(1.04028 -0.0337127 5.17771e-20)
(1.15175 -0.0283047 0)
(1.24962 -0.0229046 0)
(1.33384 -0.0175891 0)
(1.4046 -0.0125683 0)
(1.46259 -0.00800108 9.66142e-20)
(1.50857 -0.00364995 0)
(1.54295 0.000498498 -9.39367e-20)
(1.56677 0.00394413 9.26127e-20)
(1.58141 0.00719394 0)
(1.5861 0.0113878 0)
(1.58005 0.0164029 0)
(1.56294 0.0214271 -8.73967e-20)
(1.5348 0.0257021 -8.61121e-20)
(1.49665 0.028577 0)
(1.45039 0.0296847 -8.35663e-20)
(1.39846 0.0290626 -8.23047e-20)
(1.3435 0.0270765 8.10501e-20)
(1.28804 0.0241827 0)
(1.23423 0.0208364 0)
(1.1837 0.0174338 7.73248e-20)
(1.13747 0.0142673 0)
(1.09602 0.0115124 0)
(1.0594 0.00923281 0)
(1.02734 0.0074047 0)
(0.99944 0.00595662 -7.1231e-20)
(0.975225 0.00480809 -7.00296e-20)
(0.954232 0.00389366 0)
(0.936031 0.00316976 -6.76449e-20)
(0.920226 0.00261086 0)
(0.906467 0.00220025 0)
(0.894431 0.00192262 -6.41142e-20)
(0.883845 0.00175731 0)
(0.874444 0.00167984 -6.17915e-20)
(0.86603 0.00166261 0)
(0.858374 0.00168544 0)
(0.851355 0.00172976 -5.83544e-20)
(0.844731 0.00178958 0)
(0.83848 0.00185398 -5.60939e-20)
(0.832268 0.00193201 0)
(0.826239 0.00201484 0)
(0.819818 0.00212961 0)
(0.81347 0.00226323 5.16462e-20)
(0.806059 0.00248842 0)
(0.798706 0.00277136 -4.94582e-20)
(0.789183 0.00320279 0)
(0.779676 0.00364717 0)
(0.766307 0.00443401 0)
(0.752224 0.00509746 0)
(0.733115 0.00672796 0)
(0.707952 0.00733082 0)
(0.685165 0.0114213 0)
(0.625824 0.00960698 8.19174e-20)
(0.625194 0.0227866 0)
(0.456528 0.00867158 0)
(0.0418555 0.338543 1.4173e-19)
(0.0582615 0.365354 -1.40714e-19)
(0.0794809 0.221236 0)
(0.107615 0.0519294 9.24674e-20)
(0.157148 -0.0866095 0)
(0.22615 -0.187903 4.5514e-20)
(0.32454 -0.27297 -9.03336e-20)
(0.44101 -0.347201 -8.96136e-20)
(0.569716 -0.405934 0)
(0.699343 -0.441617 -8.81852e-20)
(0.822307 -0.452495 -4.37082e-20)
(0.93471 -0.440876 0)
(1.03477 -0.412047 0)
(1.12108 -0.373108 0)
(1.19342 -0.330493 0)
(1.25292 -0.288959 -4.20049e-20)
(1.30135 -0.251515 0)
(1.34079 -0.219785 8.27243e-20)
(1.37339 -0.194405 0)
(1.40139 -0.175175 0)
(1.42693 -0.161508 -8.06801e-20)
(1.45202 -0.1526 0)
(1.47821 -0.147493 7.93097e-20)
(1.50674 -0.145097 -3.92979e-20)
(1.5384 -0.144514 3.89567e-20)
(1.57409 -0.144521 -3.86157e-20)
(1.61372 -0.144153 -3.82754e-20)
(1.6581 -0.141842 0)
(1.70605 -0.136411 0)
(1.75747 -0.126476 3.72611e-20)
(1.81145 -0.109254 -3.69436e-20)
(1.86582 -0.0853002 0)
(1.91909 -0.04865 0)
(1.96977 -0.00224967 3.5927e-20)
(2.02038 0.0635523 0)
(2.0581 0.141155 0)
(2.09161 0.236508 -3.49232e-20)
(2.09974 0.3534 0)
(2.10237 0.45553 3.43254e-20)
(2.08311 0.612631 -6.7898e-20)
(2.02802 0.692057 0)
(1.94739 0.659579 0)
(1.64849 0.617083 -1.32455e-19)
(1.14346 0.484697 -1.31328e-19)
(0.779728 0.182635 -1.3029e-19)
(0.519293 -0.0369137 6.463e-20)
(0.309537 0.0342487 -6.40646e-20)
(0.162311 0.205507 -1.90555e-19)
(0.04346 0.319525 1.25975e-19)
(-0.0744266 0.354114 6.24304e-20)
(-0.193985 0.329455 0)
(-0.288754 0.248022 -6.13309e-20)
(-0.333933 0.115854 6.08774e-20)
(-0.337064 -0.0436881 0)
(-0.310296 -0.201499 0)
(-0.239448 -0.349192 0)
(-0.0852996 -0.433812 -5.83746e-20)
(0.126415 -0.342127 0)
(0.29857 -0.214744 1.14308e-19)
(0.473508 -0.270651 0)
(0.736585 -0.43849 1.11831e-19)
(1.00418 -0.4615 0)
(1.19657 -0.211628 -1.09529e-19)
(1.34655 0.0562872 0)
(1.54428 -0.10826 1.073e-19)
(1.54525 -0.360817 -5.30789e-20)
(0.987813 -0.0399219 0)
(0.146959 0.473947 -1.04146e-19)
(-0.579198 0.775405 -5.15508e-20)
(-1.20311 0.93149 -5.09914e-20)
(-1.74737 0.969265 0)
(-2.22905 0.946261 -5.02249e-20)
(-2.66256 0.894939 -4.95766e-20)
(-3.05295 0.831515 0)
(-3.40598 0.764294 4.88347e-20)
(-3.72585 0.697719 -9.72125e-20)
(-4.01608 0.633638 0)
(-4.27931 0.572428 -4.7848e-20)
(-4.51731 0.513665 0)
(-4.73093 0.456528 1.41756e-19)
(-4.92018 0.400038 0)
(-5.08448 0.343361 -1.39683e-19)
(-5.2229 0.286092 -4.61484e-20)
(-5.33439 0.228369 4.58893e-20)
(-5.41808 0.170829 9.09459e-20)
(-5.47364 0.114482 -9.00626e-20)
(-5.50139 0.0605465 0)
(-5.50223 0.010201 0)
(-5.47788 -0.0357106 0)
(-5.42735 -0.0765645 2.57827e-19)
(-5.35393 -0.112594 8.48178e-20)
(-5.25882 -0.144443 -8.37157e-20)
(-5.14472 -0.172925 0)
(-5.01232 -0.198814 -8.15437e-20)
(-4.863 -0.222787 8.03383e-20)
(-4.69704 -0.245109 7.92055e-20)
(-4.51525 -0.265702 0)
(-4.31854 -0.284057 0)
(-4.10854 -0.299472 0)
(-3.88754 -0.311231 7.47483e-20)
(-3.6584 -0.318845 0)
(-3.42423 -0.322173 -1.45265e-19)
(-3.18812 -0.321437 -2.1476e-19)
(-2.9529 -0.317129 1.41151e-19)
(-2.721 -0.309897 0)
(-2.4943 -0.300504 6.86189e-20)
(-2.27394 -0.289758 0)
(-2.06042 -0.278427 1.33405e-19)
(-1.85365 -0.267282 -6.57933e-20)
(-1.65305 -0.257026 -6.48824e-20)
(-1.45764 -0.248103 0)
(-1.26617 -0.240873 -1.89235e-19)
(-1.0771 -0.235549 1.24415e-19)
(-0.888841 -0.232002 6.13272e-20)
(-0.700043 -0.229778 0)
(-0.509926 -0.228283 5.96258e-20)
(-0.318265 -0.226856 1.76397e-19)
(-0.125446 -0.224573 0)
(0.0675723 -0.220757 1.14315e-19)
(0.259213 -0.21473 1.12674e-19)
(0.447421 -0.20645 1.11066e-19)
(0.629971 -0.195982 0)
(0.804752 -0.183605 0)
(0.96991 -0.169723 0)
(1.12395 -0.15479 -5.24877e-20)
(1.26576 -0.139257 -5.17585e-20)
(1.39457 -0.123527 0)
(1.50988 -0.107928 -1.00693e-19)
(1.6115 -0.0927476 -9.93075e-20)
(1.69968 -0.0782895 0)
(1.77497 -0.0647643 -9.65788e-20)
(1.83813 -0.0521407 -1.90476e-19)
(1.89084 -0.0404856 9.39014e-20)
(1.93479 -0.0300403 9.25828e-20)
(1.97048 -0.0204496 0)
(1.99984 -0.0110421 0)
(2.025 -0.00162914 0)
(2.04636 0.00770942 8.73552e-20)
(2.06386 0.016752 -8.60727e-20)
(2.0771 0.0250895 -1.69577e-19)
(2.08539 0.0322583 8.35125e-20)
(2.08817 0.0377926 -8.22513e-20)
(2.08515 0.0413625 -8.09891e-20)
(2.07642 0.0429075 0)
(2.06254 0.042594 0)
(2.04441 0.0407714 7.72589e-20)
(2.02321 0.0378839 0)
(2.00019 0.0343773 0)
(1.97658 0.0306349 -1.47171e-19)
(1.95341 0.0269442 0)
(1.93145 0.0234901 -7.11671e-20)
(1.91114 0.0203672 6.9968e-20)
(1.8927 0.0176038 0)
(1.87614 0.0151876 -6.75858e-20)
(1.86138 0.0130864 0)
(1.84831 0.0112619 0)
(1.83678 0.00967787 6.40604e-20)
(1.82668 0.00830407 -1.25794e-19)
(1.81789 0.00711891 6.17406e-20)
(1.81035 0.00610772 0)
(1.80394 0.00526428 0)
(1.79862 0.00458152 -5.83073e-20)
(1.79423 0.00406046 0)
(1.79076 0.00368457 -5.60494e-20)
(1.78794 0.00346544 0)
(1.78586 0.00336628 0)
(1.7841 0.00343996 0)
(1.78289 0.00360112 -5.16059e-20)
(1.78152 0.00402216 0)
(1.78051 0.00445795 4.94197e-20)
(1.77868 0.00545295 0)
(1.77676 0.00622384 0)
(1.77336 0.00833011 -9.23696e-20)
(1.7683 0.00935767 9.02374e-20)
(1.76233 0.0138143 0)
(1.74868 0.0144329 0)
(1.74171 0.0242665 0)
(1.70429 0.0217825 -2.45551e-19)
(1.70936 0.04447 0)
(1.60671 0.0329142 1.55574e-19)
(0.046028 0.00130413 2.21753e-23)
(0.151128 0.0774751 1.876e-19)
(0.25552 0.018905 0)
(0.357955 -0.101705 -1.84772e-19)
(0.468578 -0.239336 0)
(0.587254 -0.375722 0)
(0.70596 -0.498017 -4.47051e-23)
(0.814269 -0.593171 8.94854e-20)
(0.902257 -0.649842 8.88519e-20)
(0.964616 -0.66416 8.80936e-20)
(1.00188 -0.641041 0)
(1.01648 -0.590084 0)
(1.01271 -0.522431 -8.61913e-20)
(0.994521 -0.447588 -1.71082e-19)
(0.966792 -0.373073 1.69778e-19)
(0.934597 -0.304287 0)
(0.901645 -0.245075 1.67146e-19)
(0.870335 -0.197526 -8.28318e-20)
(0.842174 -0.162264 0)
(0.818287 -0.139051 1.63116e-19)
(0.799133 -0.126634 8.08168e-20)
(0.785429 -0.123121 -1.60385e-19)
(0.77817 -0.12677 -7.94559e-20)
(0.777813 -0.135699 0)
(0.78489 -0.148028 1.56258e-19)
(0.800669 -0.161741 1.54881e-19)
(0.8256 -0.175197 0)
(0.861024 -0.186351 1.52133e-19)
(0.907071 -0.193551 0)
(0.963846 -0.1952 1.49402e-19)
(1.0325 -0.188314 7.40022e-20)
(1.11061 -0.172531 0)
(1.2005 -0.143308 0)
(1.29703 -0.101775 0)
(1.40437 -0.0413475 0)
(1.51896 0.037796 0)
(1.63868 0.132887 0)
(1.76802 0.25584 1.38666e-19)
(1.8963 0.374294 -2.05958e-19)
(2.02889 0.509109 0)
(2.14696 0.617053 0)
(2.23258 0.646677 0)
(2.25802 0.696898 -2.07179e-23)
(2.20069 0.776309 1.30954e-19)
(2.12016 0.801933 2.59754e-19)
(1.93653 0.770971 -2.57599e-19)
(1.60418 0.68205 -1.27737e-19)
(1.27936 0.569392 1.26661e-19)
(1.04444 0.489048 4.6984e-23)
(0.853847 0.43653 1.24709e-19)
(0.702041 0.373365 0)
(0.592651 0.260333 1.22703e-19)
(0.51575 0.102334 6.11654e-23)
(0.461635 -0.0563372 0)
(0.418617 -0.19029 0)
(0.419108 -0.365786 -1.18045e-19)
(0.49065 -0.581898 0)
(0.580028 -0.621588 0)
(0.71775 -0.550611 1.14211e-19)
(0.970049 -0.683559 2.25924e-19)
(1.27852 -0.912879 -1.11649e-19)
(1.53487 -0.823516 0)
(1.6762 -0.499531 1.09401e-19)
(1.72759 -0.378465 0)
(1.39239 -0.0436754 1.07614e-19)
(0.49689 0.684916 1.06281e-19)
(-0.437087 1.19779 -2.10536e-19)
(-1.1448 1.41082 -1.04313e-19)
(-1.6749 1.49417 0)
(-2.09622 1.50672 2.04228e-19)
(-2.44053 1.461 0)
(-2.73654 1.37991 3.00853e-19)
(-3.00224 1.283 1.99215e-19)
(-3.24855 1.18159 1.9772e-19)
(-3.48208 1.08236 -1.96286e-19)
(-3.70588 0.988229 2.92069e-19)
(-3.92109 0.899713 0)
(-4.1275 0.816024 0)
(-4.32405 0.73568 -1.90877e-19)
(-4.50893 0.656885 -2.84096e-19)
(-4.67966 0.5779 0)
(-4.83327 0.497367 9.3185e-20)
(-4.96641 0.414586 0)
(-5.0757 0.329737 -2.75386e-19)
(-5.15824 0.243829 3.43096e-22)
(-5.21219 0.158453 -3.22549e-22)
(-5.23686 0.0756654 1.78423e-19)
(-5.23273 -0.00246974 0)
(-5.20118 -0.0743874 -1.74351e-19)
(-5.14438 -0.139032 2.02463e-22)
(-5.06556 -0.19652 0)
(-4.96708 -0.247433 0)
(-4.85082 -0.292939 0)
(-4.71789 -0.334372 1.6305e-19)
(-4.56879 -0.372777 0)
(-4.40365 -0.408703 0)
(-4.22268 -0.441903 0)
(-4.02664 -0.47152 0)
(-3.81718 -0.496245 0)
(-3.59679 -0.514775 1.49634e-19)
(-3.36869 -0.526216 0)
(-3.13638 -0.530327 1.45275e-19)
(-2.90328 -0.527563 1.43196e-19)
(-2.67245 -0.51889 -1.4116e-19)
(-2.44656 -0.50552 0)
(-2.22768 -0.488819 -1.37211e-19)
(-2.01705 -0.470269 0)
(-1.81519 -0.451228 -1.33412e-19)
(-1.622 -0.433011 1.31561e-19)
(-1.43662 -0.4168 3.89314e-19)
(-1.25766 -0.403179 0)
(-1.08338 -0.392557 3.78593e-19)
(-0.911626 -0.385197 1.24505e-19)
(-0.740326 -0.380821 0)
(-0.567605 -0.378808 2.42007e-19)
(-0.392446 -0.378038 2.3861e-19)
(-0.214149 -0.377399 -3.52848e-19)
(-0.0327855 -0.374904 0)
(0.150752 -0.369506 -1.14278e-19)
(0.334956 -0.360377 -1.12637e-19)
(0.517896 -0.347197 -3.33127e-19)
(0.6974 -0.330123 0)
(0.871288 -0.309687 0)
(1.03751 -0.286618 0)
(1.19422 -0.261676 -1.04962e-19)
(1.33986 -0.235553 0)
(1.47318 -0.208826 0)
(1.59325 -0.181972 1.0067e-19)
(1.69942 -0.155561 9.92863e-20)
(1.79117 -0.130353 0)
(1.86811 -0.10702 0)
(1.93047 -0.0860175 1.90444e-19)
(1.97961 -0.067704 0)
(2.01771 -0.0519676 -1.85135e-19)
(2.04747 -0.0382648 -1.82516e-19)
(2.07166 -0.0261563 0)
(2.09252 -0.0151296 0)
(2.11189 -0.00481009 1.74714e-19)
(2.13078 0.00486871 -7.88121e-24)
(2.1495 0.0139872 -7.41584e-24)
(2.16773 0.0222092 0)
(2.1846 0.029225 3.2897e-19)
(2.19904 0.0347841 0)
(2.21001 0.0387669 0)
(2.21675 0.0411708 0)
(2.21891 0.0420489 -1.54487e-19)
(2.2166 0.04153 0)
(2.21027 0.0398247 2.99145e-19)
(2.20065 0.0372077 1.47135e-19)
(2.18864 0.0339878 0)
(2.17515 0.0304691 1.42298e-19)
(2.16105 0.0269118 0)
(2.14709 0.023508 0)
(2.13384 0.0203758 4.05407e-19)
(2.12169 0.0175692 -2.65546e-19)
(2.11087 0.0150965 0)
(2.10145 0.0129381 -2.56172e-19)
(2.09342 0.0110595 1.25761e-19)
(2.08668 0.00942216 0)
(2.0811 0.00798758 0)
(2.07654 0.00672864 0)
(2.07285 0.00562183 3.49754e-19)
(2.06991 0.00466672 0)
(2.06766 0.0038464 1.1207e-19)
(2.06607 0.00319078 0)
(2.06512 0.00266164 0)
(2.0649 0.00235076 0)
(2.06535 0.00214361 0)
(2.06669 0.0023119 0)
(2.06858 0.0025117 0)
(2.07156 0.00350022 1.93294e-19)
(2.07448 0.00424788 0)
(2.07887 0.00676477 9.23456e-20)
(2.08146 0.00807997 -2.70642e-19)
(2.08703 0.0135817 0)
(2.08634 0.0150404 0)
(2.0938 0.0266572 1.67792e-19)
(2.0836 0.0265219 1.63649e-19)
(2.09675 0.0507114 -1.5953e-19)
(2.06486 0.0460332 -1.55517e-19)
(-0.015771 -0.0955929 -2.83713e-19)
(0.0637182 -0.114188 -2.8161e-19)
(0.213831 -0.23514 -1.86288e-19)
(0.383404 -0.40481 -9.24621e-20)
(0.542949 -0.565419 0)
(0.667938 -0.688469 1.81949e-19)
(0.746157 -0.759419 -9.03593e-20)
(0.772962 -0.776127 0)
(0.750261 -0.738637 -8.88876e-20)
(0.688826 -0.656055 0)
(0.599247 -0.546038 1.75414e-19)
(0.494492 -0.429924 0)
(0.393994 -0.325426 8.63557e-20)
(0.308135 -0.242056 1.71439e-19)
(0.233826 -0.181431 -1.70154e-19)
(0.167276 -0.140779 0)
(0.10429 -0.115878 -1.67543e-19)
(0.0437938 -0.102411 0)
(-0.0142423 -0.0967548 0)
(-0.0684713 -0.0968427 -1.63474e-19)
(-0.116956 -0.101816 0)
(-0.159189 -0.111581 -1.50641e-22)
(-0.193669 -0.126521 0)
(-0.218258 -0.146746 0)
(-0.231155 -0.171709 1.36492e-22)
(-0.230549 -0.200353 -1.55118e-19)
(-0.215211 -0.23112 -1.53869e-19)
(-0.183473 -0.261992 -1.52395e-19)
(-0.135025 -0.290978 0)
(-0.0686243 -0.315143 -2.99535e-19)
(0.0157596 -0.331925 0)
(0.117048 -0.339031 -1.47077e-19)
(0.23711 -0.332491 0)
(0.371765 -0.311762 0)
(0.523882 -0.271919 1.4297e-19)
(0.691759 -0.211482 0)
(0.871929 -0.133609 -1.40272e-19)
(1.06989 -0.0301743 9.90539e-24)
(1.27309 0.0838782 2.7514e-19)
(1.48326 0.209458 -2.72479e-19)
(1.70252 0.346507 0)
(1.91106 0.461829 0)
(2.09734 0.571791 -1.32337e-19)
(2.24821 0.68786 0)
(2.36473 0.770617 -1.29827e-19)
(2.4326 0.8294 1.28638e-19)
(2.43401 0.878212 1.27458e-19)
(2.38689 0.9008 0)
(2.30397 0.877999 -1.25316e-19)
(2.18849 0.807645 -1.24314e-19)
(2.0523 0.691546 2.46603e-19)
(1.9227 0.529179 -1.22327e-19)
(1.7884 0.332523 -1.21299e-19)
(1.66622 0.0990815 0)
(1.53301 -0.133234 0)
(1.41495 -0.367124 1.17804e-19)
(1.39911 -0.637991 0)
(1.32432 -0.723817 0)
(1.28464 -0.723428 -2.28045e-19)
(1.47021 -0.986631 -2.25608e-19)
(1.64681 -1.21339 0)
(1.62587 -1.11211 0)
(1.35017 -0.452669 0)
(0.668161 0.54914 0)
(-0.162501 1.31486 -2.15027e-19)
(-0.892422 1.77124 2.12792e-19)
(-1.4228 1.94384 2.09915e-19)
(-1.80189 1.96942 4.16129e-19)
(-2.09824 1.93271 0)
(-2.33688 1.85479 6.38962e-22)
(-2.54442 1.7542 0)
(-2.73694 1.6437 -2.007e-19)
(-2.92504 1.53166 6.55243e-22)
(-3.11258 1.42254 -1.97691e-19)
(-3.30088 1.31804 1.96275e-19)
(-3.48922 1.2184 5.70438e-22)
(-3.6763 1.12295 0)
(-3.86087 1.03039 1.92744e-19)
(-4.04165 0.938966 1.90908e-19)
(-4.21714 0.846479 3.79626e-19)
(-4.38481 0.750806 0)
(-4.54098 0.650221 -1.87272e-19)
(-4.68076 0.543858 0)
(-4.79867 0.431952 3.67992e-19)
(-4.88976 0.315947 -1.82109e-19)
(-4.95024 0.198805 1.80353e-19)
(-4.97804 0.0845878 -1.78494e-19)
(-4.97336 -0.0229991 -3.53732e-19)
(-4.93824 -0.121692 1.74409e-19)
(-4.87607 -0.210429 -1.72239e-19)
(-4.79058 -0.288732 0)