# vtk DataFile Version 2.0
sampleSurface
ASCII
DATASET POLYDATA
POINTS 502 double
-0.0206 0 -0.0005
-0.0190172 0 -0.0005
-0.0190172 0 0.0005
-0.0206 0 0.0005
-0.0174976 0 -0.0005
-0.0174976 0 0.0005
-0.0160387 0 -0.0005
-0.0160387 0 0.0005
-0.0146381 0 -0.0005
-0.0146381 0 0.0005
-0.0132934 0 -0.0005
-0.0132934 0 0.0005
-0.0120025 0 -0.0005
-0.0120025 0 0.0005
-0.0107632 0 -0.0005
-0.0107632 0 0.0005
-0.00957337 0 -0.0005
-0.00957337 0 0.0005
-0.00843108 0 -0.0005
-0.00843108 0 0.0005
-0.00733443 0 -0.0005
-0.00733443 0 0.0005
-0.0062816 0 -0.0005
-0.0062816 0 0.0005
-0.00527083 0 -0.0005
-0.00527083 0 0.0005
-0.00430044 0 -0.0005
-0.00430044 0 0.0005
-0.00336883 0 -0.0005
-0.00336883 0 0.0005
-0.00247443 0 -0.0005
-0.00247443 0 0.0005
-0.00161577 0 -0.0005
-0.00161577 0 0.0005
-0.000791418 0 -0.0005
-0.000791418 0 0.0005
0 0 -0.0005
0 0 0.0005
0 -0.0254 -0.0005
0 -0.0254 0.0005
0 -0.0242711 0.0005
0 -0.0242711 -0.0005
0 -0.0231422 0.0005
0 -0.0231422 -0.0005
0 -0.0220133 0.0005
0 -0.0220133 -0.0005
0 -0.0208844 0.0005
0 -0.0208844 -0.0005
0 -0.0197556 0.0005
0 -0.0197556 -0.0005
0 -0.0186267 0.0005
0 -0.0186267 -0.0005
0 -0.0174978 0.0005
0 -0.0174978 -0.0005
0 -0.0163689 0.0005
0 -0.0163689 -0.0005
0 -0.01524 0.0005
0 -0.01524 -0.0005
0 -0.0141111 0.0005
0 -0.0141111 -0.0005
0 -0.0129822 0.0005
0 -0.0129822 -0.0005
0 -0.0118533 0.0005
0 -0.0118533 -0.0005
0 -0.0107244 0.0005
0 -0.0107244 -0.0005
0 -0.00959556 0.0005
0 -0.00959556 -0.0005
0 -0.00846667 0.0005
0 -0.00846667 -0.0005
0 -0.00726604 0.0005
0 -0.00726604 -0.0005
0 -0.00618989 0.0005
0 -0.00618989 -0.0005
0 -0.00522531 0.0005
0 -0.00522531 -0.0005
0 -0.00436073 0.0005
0 -0.00436073 -0.0005
0 -0.00358579 0.0005
0 -0.00358579 -0.0005
0 -0.00289118 0.0005
0 -0.00289118 -0.0005
0 -0.0022686 0.0005
0 -0.0022686 -0.0005
0 -0.00171055 0.0005
0 -0.00171055 -0.0005
0 -0.00121037 0.0005
0 -0.00121037 -0.0005
0 -0.000762037 0.0005
0 -0.000762037 -0.0005
0 -0.000360188 0.0005
0 -0.000360188 -0.0005
0.000528387 -0.0254 -0.0005
0.000528387 -0.0254 0.0005
0.00106088 -0.0254 -0.0005
0.00106088 -0.0254 0.0005
0.00159752 -0.0254 -0.0005
0.00159752 -0.0254 0.0005
0.00213833 -0.0254 -0.0005
0.00213833 -0.0254 0.0005
0.00268334 -0.0254 -0.0005
0.00268334 -0.0254 0.0005
0.00323259 -0.0254 -0.0005
0.00323259 -0.0254 0.0005
0.00378611 -0.0254 -0.0005
0.00378611 -0.0254 0.0005
0.00434393 -0.0254 -0.0005
0.00434393 -0.0254 0.0005
0.00490609 -0.0254 -0.0005
0.00490609 -0.0254 0.0005
0.00547262 -0.0254 -0.0005
0.00547262 -0.0254 0.0005
0.00604356 -0.0254 -0.0005
0.00604356 -0.0254 0.0005
0.00661893 -0.0254 -0.0005
0.00661893 -0.0254 0.0005
0.00719878 -0.0254 -0.0005
0.00719878 -0.0254 0.0005
0.00778313 -0.0254 -0.0005
0.00778313 -0.0254 0.0005
0.00837203 -0.0254 -0.0005
0.00837203 -0.0254 0.0005
0.00896551 -0.0254 -0.0005
0.00896551 -0.0254 0.0005
0.0095636 -0.0254 -0.0005
0.0095636 -0.0254 0.0005
0.0101663 -0.0254 -0.0005
0.0101663 -0.0254 0.0005
0.0107738 -0.0254 -0.0005
0.0107738 -0.0254 0.0005
0.0113859 -0.0254 -0.0005
0.0113859 -0.0254 0.0005
0.0120028 -0.0254 -0.0005
0.0120028 -0.0254 0.0005
0.0126245 -0.0254 -0.0005
0.0126245 -0.0254 0.0005
0.0132511 -0.0254 -0.0005
0.0132511 -0.0254 0.0005
0.0138825 -0.0254 -0.0005
0.0138825 -0.0254 0.0005
0.0145188 -0.0254 -0.0005
0.0145188 -0.0254 0.0005
0.0151601 -0.0254 -0.0005
0.0151601 -0.0254 0.0005
0.0158063 -0.0254 -0.0005
0.0158063 -0.0254 0.0005
0.0164576 -0.0254 -0.0005
0.0164576 -0.0254 0.0005
0.0171139 -0.0254 -0.0005
0.0171139 -0.0254 0.0005
0.0177754 -0.0254 -0.0005
0.0177754 -0.0254 0.0005
0.018442 -0.0254 -0.0005
0.018442 -0.0254 0.0005
0.0191137 -0.0254 -0.0005
0.0191137 -0.0254 0.0005
0.0197907 -0.0254 -0.0005
0.0197907 -0.0254 0.0005
0.020473 -0.0254 -0.0005
0.020473 -0.0254 0.0005
0.0211606 -0.0254 -0.0005
0.0211606 -0.0254 0.0005
0.0218535 -0.0254 -0.0005
0.0218535 -0.0254 0.0005
0.0225517 -0.0254 -0.0005
0.0225517 -0.0254 0.0005
0.0232555 -0.0254 -0.0005
0.0232555 -0.0254 0.0005
0.0239647 -0.0254 -0.0005
0.0239647 -0.0254 0.0005
0.0246794 -0.0254 -0.0005
0.0246794 -0.0254 0.0005
0.0253996 -0.0254 -0.0005
0.0253996 -0.0254 0.0005
0.0261255 -0.0254 -0.0005
0.0261255 -0.0254 0.0005
0.026857 -0.0254 -0.0005
0.026857 -0.0254 0.0005
0.0275942 -0.0254 -0.0005
0.0275942 -0.0254 0.0005
0.0283371 -0.0254 -0.0005
0.0283371 -0.0254 0.0005
0.0290858 -0.0254 -0.0005
0.0290858 -0.0254 0.0005
0.0298403 -0.0254 -0.0005
0.0298403 -0.0254 0.0005
0.0306007 -0.0254 -0.0005
0.0306007 -0.0254 0.0005
0.031367 -0.0254 -0.0005
0.031367 -0.0254 0.0005
0.0321393 -0.0254 -0.0005
0.0321393 -0.0254 0.0005
0.0329175 -0.0254 -0.0005
0.0329175 -0.0254 0.0005
0.0337019 -0.0254 -0.0005
0.0337019 -0.0254 0.0005
0.0344923 -0.0254 -0.0005
0.0344923 -0.0254 0.0005
0.0352888 -0.0254 -0.0005
0.0352888 -0.0254 0.0005
0.0360916 -0.0254 -0.0005
0.0360916 -0.0254 0.0005
0.0369006 -0.0254 -0.0005
0.0369006 -0.0254 0.0005
0.0377158 -0.0254 -0.0005
0.0377158 -0.0254 0.0005
0.0385375 -0.0254 -0.0005
0.0385375 -0.0254 0.0005
0.0393655 -0.0254 -0.0005
0.0393655 -0.0254 0.0005
0.0401999 -0.0254 -0.0005
0.0401999 -0.0254 0.0005
0.0410408 -0.0254 -0.0005
0.0410408 -0.0254 0.0005
0.0418883 -0.0254 -0.0005
0.0418883 -0.0254 0.0005
0.0427424 -0.0254 -0.0005
0.0427424 -0.0254 0.0005
0.0436031 -0.0254 -0.0005
0.0436031 -0.0254 0.0005
0.0444704 -0.0254 -0.0005
0.0444704 -0.0254 0.0005
0.0453446 -0.0254 -0.0005
0.0453446 -0.0254 0.0005
0.0462255 -0.0254 -0.0005
0.0462255 -0.0254 0.0005
0.0471133 -0.0254 -0.0005
0.0471133 -0.0254 0.0005
0.048008 -0.0254 -0.0005
0.048008 -0.0254 0.0005
0.0489096 -0.0254 -0.0005
0.0489096 -0.0254 0.0005
0.0498183 -0.0254 -0.0005
0.0498183 -0.0254 0.0005
0.050734 -0.0254 -0.0005
0.050734 -0.0254 0.0005
0.0516568 -0.0254 -0.0005
0.0516568 -0.0254 0.0005
0.0525868 -0.0254 -0.0005
0.0525868 -0.0254 0.0005
0.053524 -0.0254 -0.0005
0.053524 -0.0254 0.0005
0.0544686 -0.0254 -0.0005
0.0544686 -0.0254 0.0005
0.0554204 -0.0254 -0.0005
0.0554204 -0.0254 0.0005
0.0563797 -0.0254 -0.0005
0.0563797 -0.0254 0.0005
0.0573464 -0.0254 -0.0005
0.0573464 -0.0254 0.0005
0.0583206 -0.0254 -0.0005
0.0583206 -0.0254 0.0005
0.0593025 -0.0254 -0.0005
0.0593025 -0.0254 0.0005
0.0602919 -0.0254 -0.0005
0.0602919 -0.0254 0.0005
0.0612891 -0.0254 -0.0005
0.0612891 -0.0254 0.0005
0.0622939 -0.0254 -0.0005
0.0622939 -0.0254 0.0005
0.0633067 -0.0254 -0.0005
0.0633067 -0.0254 0.0005
0.0643272 -0.0254 -0.0005
0.0643272 -0.0254 0.0005
0.0653557 -0.0254 -0.0005
0.0653557 -0.0254 0.0005
0.0663923 -0.0254 -0.0005
0.0663923 -0.0254 0.0005
0.0674368 -0.0254 -0.0005
0.0674368 -0.0254 0.0005
0.0684895 -0.0254 -0.0005
0.0684895 -0.0254 0.0005
0.0695504 -0.0254 -0.0005
0.0695504 -0.0254 0.0005
0.0706195 -0.0254 -0.0005
0.0706195 -0.0254 0.0005
0.0716969 -0.0254 -0.0005
0.0716969 -0.0254 0.0005
0.0727828 -0.0254 -0.0005
0.0727828 -0.0254 0.0005
0.073877 -0.0254 -0.0005
0.073877 -0.0254 0.0005
0.0749798 -0.0254 -0.0005
0.0749798 -0.0254 0.0005
0.0760911 -0.0254 -0.0005
0.0760911 -0.0254 0.0005
0.0772111 -0.0254 -0.0005
0.0772111 -0.0254 0.0005
0.0783398 -0.0254 -0.0005
0.0783398 -0.0254 0.0005
0.0794772 -0.0254 -0.0005
0.0794772 -0.0254 0.0005
0.0806235 -0.0254 -0.0005
0.0806235 -0.0254 0.0005
0.0817787 -0.0254 -0.0005
0.0817787 -0.0254 0.0005
0.0829429 -0.0254 -0.0005
0.0829429 -0.0254 0.0005
0.0841162 -0.0254 -0.0005
0.0841162 -0.0254 0.0005
0.0852985 -0.0254 -0.0005
0.0852985 -0.0254 0.0005
0.0864901 -0.0254 -0.0005
0.0864901 -0.0254 0.0005
0.0876909 -0.0254 -0.0005
0.0876909 -0.0254 0.0005
0.0889011 -0.0254 -0.0005
0.0889011 -0.0254 0.0005
0.0901207 -0.0254 -0.0005
0.0901207 -0.0254 0.0005
0.0913497 -0.0254 -0.0005
0.0913497 -0.0254 0.0005
0.0925883 -0.0254 -0.0005
0.0925883 -0.0254 0.0005
0.0938366 -0.0254 -0.0005
0.0938366 -0.0254 0.0005
0.0950945 -0.0254 -0.0005
0.0950945 -0.0254 0.0005
0.0963622 -0.0254 -0.0005
0.0963622 -0.0254 0.0005
0.0976398 -0.0254 -0.0005
0.0976398 -0.0254 0.0005
0.0989273 -0.0254 -0.0005
0.0989273 -0.0254 0.0005
0.100225 -0.0254 -0.0005
0.100225 -0.0254 0.0005
0.101532 -0.0254 -0.0005
0.101532 -0.0254 0.0005
0.10285 -0.0254 -0.0005
0.10285 -0.0254 0.0005
0.104178 -0.0254 -0.0005
0.104178 -0.0254 0.0005
0.105517 -0.0254 -0.0005
0.105517 -0.0254 0.0005
0.106865 -0.0254 -0.0005
0.106865 -0.0254 0.0005
0.108225 -0.0254 -0.0005
0.108225 -0.0254 0.0005
0.109594 -0.0254 -0.0005
0.109594 -0.0254 0.0005
0.110975 -0.0254 -0.0005
0.110975 -0.0254 0.0005
0.112366 -0.0254 -0.0005
0.112366 -0.0254 0.0005
0.113768 -0.0254 -0.0005
0.113768 -0.0254 0.0005
0.115181 -0.0254 -0.0005
0.115181 -0.0254 0.0005
0.116605 -0.0254 -0.0005
0.116605 -0.0254 0.0005
0.11804 -0.0254 -0.0005
0.11804 -0.0254 0.0005
0.119486 -0.0254 -0.0005
0.119486 -0.0254 0.0005
0.120943 -0.0254 -0.0005
0.120943 -0.0254 0.0005
0.122412 -0.0254 -0.0005
0.122412 -0.0254 0.0005
0.123892 -0.0254 -0.0005
0.123892 -0.0254 0.0005
0.125384 -0.0254 -0.0005
0.125384 -0.0254 0.0005
0.126887 -0.0254 -0.0005
0.126887 -0.0254 0.0005
0.128402 -0.0254 -0.0005
0.128402 -0.0254 0.0005
0.129928 -0.0254 -0.0005
0.129928 -0.0254 0.0005
0.131467 -0.0254 -0.0005
0.131467 -0.0254 0.0005
0.133017 -0.0254 -0.0005
0.133017 -0.0254 0.0005
0.13458 -0.0254 -0.0005
0.13458 -0.0254 0.0005
0.136155 -0.0254 -0.0005
0.136155 -0.0254 0.0005
0.137742 -0.0254 -0.0005
0.137742 -0.0254 0.0005
0.139341 -0.0254 -0.0005
0.139341 -0.0254 0.0005
0.140953 -0.0254 -0.0005
0.140953 -0.0254 0.0005
0.142577 -0.0254 -0.0005
0.142577 -0.0254 0.0005
0.144214 -0.0254 -0.0005
0.144214 -0.0254 0.0005
0.145863 -0.0254 -0.0005
0.145863 -0.0254 0.0005
0.147526 -0.0254 -0.0005
0.147526 -0.0254 0.0005
0.149201 -0.0254 -0.0005
0.149201 -0.0254 0.0005
0.15089 -0.0254 -0.0005
0.15089 -0.0254 0.0005
0.152591 -0.0254 -0.0005
0.152591 -0.0254 0.0005
0.154306 -0.0254 -0.0005
0.154306 -0.0254 0.0005
0.156034 -0.0254 -0.0005
0.156034 -0.0254 0.0005
0.157775 -0.0254 -0.0005
0.157775 -0.0254 0.0005
0.159531 -0.0254 -0.0005
0.159531 -0.0254 0.0005
0.161299 -0.0254 -0.0005
0.161299 -0.0254 0.0005
0.163082 -0.0254 -0.0005
0.163082 -0.0254 0.0005
0.164878 -0.0254 -0.0005
0.164878 -0.0254 0.0005
0.166688 -0.0254 -0.0005
0.166688 -0.0254 0.0005
0.168513 -0.0254 -0.0005
0.168513 -0.0254 0.0005
0.170351 -0.0254 -0.0005
0.170351 -0.0254 0.0005
0.172204 -0.0254 -0.0005
0.172204 -0.0254 0.0005
0.174071 -0.0254 -0.0005
0.174071 -0.0254 0.0005
0.175953 -0.0254 -0.0005
0.175953 -0.0254 0.0005
0.177849 -0.0254 -0.0005
0.177849 -0.0254 0.0005
0.17976 -0.0254 -0.0005
0.17976 -0.0254 0.0005
0.181686 -0.0254 -0.0005
0.181686 -0.0254 0.0005
0.183627 -0.0254 -0.0005
0.183627 -0.0254 0.0005
0.185583 -0.0254 -0.0005
0.185583 -0.0254 0.0005
0.187555 -0.0254 -0.0005
0.187555 -0.0254 0.0005
0.189541 -0.0254 -0.0005
0.189541 -0.0254 0.0005
0.191543 -0.0254 -0.0005
0.191543 -0.0254 0.0005
0.193561 -0.0254 -0.0005
0.193561 -0.0254 0.0005
0.195594 -0.0254 -0.0005
0.195594 -0.0254 0.0005
0.197643 -0.0254 -0.0005
0.197643 -0.0254 0.0005
0.199708 -0.0254 -0.0005
0.199708 -0.0254 0.0005
0.201789 -0.0254 -0.0005
0.201789 -0.0254 0.0005
0.203886 -0.0254 -0.0005
0.203886 -0.0254 0.0005
0.206 -0.0254 -0.0005
0.206 -0.0254 0.0005
0.208047 -0.0251856 -0.0005
0.208047 -0.0251856 0.0005
0.210173 -0.0249628 -0.0005
0.210173 -0.0249628 0.0005
0.212382 -0.0247314 -0.0005
0.212382 -0.0247314 0.0005
0.214677 -0.024491 -0.0005
0.214677 -0.024491 0.0005
0.217061 -0.0242412 -0.0005
0.217061 -0.0242412 0.0005
0.219538 -0.0239817 -0.0005
0.219538 -0.0239817 0.0005
0.222112 -0.0237121 -0.0005
0.222112 -0.0237121 0.0005
0.224785 -0.023432 -0.0005
0.224785 -0.023432 0.0005
0.227563 -0.023141 -0.0005
0.227563 -0.023141 0.0005
0.230449 -0.0228387 -0.0005
0.230449 -0.0228387 0.0005
0.233447 -0.0225246 -0.0005
0.233447 -0.0225246 0.0005
0.236562 -0.0221983 -0.0005
0.236562 -0.0221983 0.0005
0.239797 -0.0218593 -0.0005
0.239797 -0.0218593 0.0005
0.243159 -0.0215071 -0.0005
0.243159 -0.0215071 0.0005
0.246652 -0.0211412 -0.0005
0.246652 -0.0211412 0.0005
0.250281 -0.0207611 -0.0005
0.250281 -0.0207611 0.0005
0.254051 -0.0203661 -0.0005
0.254051 -0.0203661 0.0005
0.257967 -0.0199558 -0.0005
0.257967 -0.0199558 0.0005
0.262036 -0.0195295 -0.0005
0.262036 -0.0195295 0.0005
0.266264 -0.0190867 -0.0005
0.266264 -0.0190867 0.0005
0.270655 -0.0186266 -0.0005
0.270655 -0.0186266 0.0005
0.275218 -0.0181486 -0.0005
0.275218 -0.0181486 0.0005
0.279959 -0.017652 -0.0005
0.279959 -0.017652 0.0005
0.284883 -0.017136 -0.0005
0.284883 -0.017136 0.0005
0.29 -0.0166 -0.0005
0.29 -0.0166 0.0005

POLYGONS 250 1250
4 0 1 2 3
4 1 4 5 2
4 4 6 7 5
4 6 8 9 7
4 8 10 11 9
4 10 12 13 11
4 12 14 15 13
4 14 16 17 15
4 16 18 19 17
4 18 20 21 19
4 20 22 23 21
4 22 24 25 23
4 24 26 27 25
4 26 28 29 27
4 28 30 31 29
4 30 32 33 31
4 32 34 35 33
4 34 36 37 35
4 38 39 40 41
4 41 40 42 43
4 43 42 44 45
4 45 44 46 47
4 47 46 48 49
4 49 48 50 51
4 51 50 52 53
4 53 52 54 55
4 55 54 56 57
4 57 56 58 59
4 59 58 60 61
4 61 60 62 63
4 63 62 64 65
4 65 64 66 67
4 67 66 68 69
4 69 68 70 71
4 71 70 72 73
4 73 72 74 75
4 75 74 76 77
4 77 76 78 79
4 79 78 80 81
4 81 80 82 83
4 83 82 84 85
4 85 84 86 87
4 87 86 88 89
4 89 88 90 91
4 91 90 37 36
4 38 92 93 39
4 92 94 95 93
4 94 96 97 95
4 96 98 99 97
4 98 100 101 99
4 100 102 103 101
4 102 104 105 103
4 104 106 107 105
4 106 108 109 107
4 108 110 111 109
4 110 112 113 111
4 112 114 115 113
4 114 116 117 115
4 116 118 119 117
4 118 120 121 119
4 120 122 123 121
4 122 124 125 123
4 124 126 127 125
4 126 128 129 127
4 128 130 131 129
4 130 132 133 131
4 132 134 135 133
4 134 136 137 135
4 136 138 139 137
4 138 140 141 139
4 140 142 143 141
4 142 144 145 143
4 144 146 147 145
4 146 148 149 147
4 148 150 151 149
4 150 152 153 151
4 152 154 155 153
4 154 156 157 155
4 156 158 159 157
4 158 160 161 159
4 160 162 163 161
4 162 164 165 163
4 164 166 167 165
4 166 168 169 167
4 168 170 171 169
4 170 172 173 171
4 172 174 175 173
4 174 176 177 175
4 176 178 179 177
4 178 180 181 179
4 180 182 183 181
4 182 184 185 183
4 184 186 187 185
4 186 188 189 187
4 188 190 191 189
4 190 192 193 191
4 192 194 195 193
4 194 196 197 195
4 196 198 199 197
4 198 200 201 199
4 200 202 203 201
4 202 204 205 203
4 204 206 207 205
4 206 208 209 207
4 208 210 211 209
4 210 212 213 211
4 212 214 215 213
4 214 216 217 215
4 216 218 219 217
4 218 220 221 219
4 220 222 223 221
4 222 224 225 223
4 224 226 227 225
4 226 228 229 227
4 228 230 231 229
4 230 232 233 231
4 232 234 235 233
4 234 236 237 235
4 236 238 239 237
4 238 240 241 239
4 240 242 243 241
4 242 244 245 243
4 244 246 247 245
4 246 248 249 247
4 248 250 251 249
4 250 252 253 251
4 252 254 255 253
4 254 256 257 255
4 256 258 259 257
4 258 260 261 259
4 260 262 263 261
4 262 264 265 263
4 264 266 267 265
4 266 268 269 267
4 268 270 271 269
4 270 272 273 271
4 272 274 275 273
4 274 276 277 275
4 276 278 279 277
4 278 280 281 279
4 280 282 283 281
4 282 284 285 283
4 284 286 287 285
4 286 288 289 287
4 288 290 291 289
4 290 292 293 291
4 292 294 295 293
4 294 296 297 295
4 296 298 299 297
4 298 300 301 299
4 300 302 303 301
4 302 304 305 303
4 304 306 307 305
4 306 308 309 307
4 308 310 311 309
4 310 312 313 311
4 312 314 315 313
4 314 316 317 315
4 316 318 319 317
4 318 320 321 319
4 320 322 323 321
4 322 324 325 323
4 324 326 327 325
4 326 328 329 327
4 328 330 331 329
4 330 332 333 331
4 332 334 335 333
4 334 336 337 335
4 336 338 339 337
4 338 340 341 339
4 340 342 343 341
4 342 344 345 343
4 344 346 347 345
4 346 348 349 347
4 348 350 351 349
4 350 352 353 351
4 352 354 355 353
4 354 356 357 355
4 356 358 359 357
4 358 360 361 359
4 360 362 363 361
4 362 364 365 363
4 364 366 367 365
4 366 368 369 367
4 368 370 371 369
4 370 372 373 371
4 372 374 375 373
4 374 376 377 375
4 376 378 379 377
4 378 380 381 379
4 380 382 383 381
4 382 384 385 383
4 384 386 387 385
4 386 388 389 387
4 388 390 391 389
4 390 392 393 391
4 392 394 395 393
4 394 396 397 395
4 396 398 399 397
4 398 400 401 399
4 400 402 403 401
4 402 404 405 403
4 404 406 407 405
4 406 408 409 407
4 408 410 411 409
4 410 412 413 411
4 412 414 415 413
4 414 416 417 415
4 416 418 419 417
4 418 420 421 419
4 420 422 423 421
4 422 424 425 423
4 424 426 427 425
4 426 428 429 427
4 428 430 431 429
4 430 432 433 431
4 432 434 435 433
4 434 436 437 435
4 436 438 439 437
4 438 440 441 439
4 440 442 443 441
4 442 444 445 443
4 444 446 447 445
4 446 448 449 447
4 448 450 451 449
4 450 452 453 451
4 452 454 455 453
4 454 456 457 455
4 456 458 459 457
4 458 460 461 459
4 460 462 463 461
4 462 464 465 463
4 464 466 467 465
4 466 468 469 467
4 468 470 471 469
4 470 472 473 471
4 472 474 475 473
4 474 476 477 475
4 476 478 479 477
4 478 480 481 479
4 480 482 483 481
4 482 484 485 483
4 484 486 487 485
4 486 488 489 487
4 488 490 491 489
4 490 492 493 491
4 492 494 495 493
4 494 496 497 495
4 496 498 499 497
4 498 500 501 499
POINT_DATA 502
FIELD attributes 1
U 3 502 float
1.60822 0.081855 -0.00507862
0.805667 0.0406749 -0.00250275
0.805667 0.0406749 -0.00250275
1.60822 0.081855 -0.00507862
0.024403 0.000655146 0
0.024403 0.000655146 0
0.0217525 0.000590469 0
0.0217525 0.000590469 0
0.0195603 0.000481748 0
0.0195603 0.000481748 0
0.017553 0.00040503 0
0.017553 0.00040503 0
0.0155271 0.000362643 0
0.0155271 0.000362643 0
0.0135112 0.000312862 0
0.0135112 0.000312862 0
0.0116583 0.000250732 0
0.0116583 0.000250732 0
0.0100465 0.000198116 0
0.0100465 0.000198116 0
0.0086698 0.000160423 0
0.0086698 0.000160423 0
0.00749501 0.00012993 0
0.00749501 0.00012993 0
0.00648394 0.000101054 0
0.00648394 0.000101054 0
0.0056334 7.25748e-05 0
0.0056334 7.25748e-05 0
0.00491728 4.8562e-05 0
0.00491728 4.8562e-05 0
0.00433298 3.35676e-05 0
0.00433298 3.35676e-05 0
0.00380058 4.5803e-05 0
0.00380058 4.5803e-05 0
0.00325419 4.54578e-05 0
0.00325419 4.54578e-05 0
0.00144156 0.000377505 0
0.00144156 0.000377505 0
3.28684e-05 -8.7537e-05 -1.20341e-23
3.28684e-05 -8.7537e-05 -1.20341e-23
6.16038e-05 -0.000369931 3.25442e-23
6.16038e-05 -0.000369931 3.25442e-23
7.47279e-05 -0.00080489 3.8555e-23
7.47279e-05 -0.00080489 3.8555e-23
3.28419e-05 -0.000964208 -7.70721e-23
3.28419e-05 -0.000964208 -7.70721e-23
-1.33743e-05 -0.000880593 -2.56997e-23
-1.33743e-05 -0.000880593 -2.56997e-23
-4.37615e-05 -0.000622681 5.13662e-23
-4.37615e-05 -0.000622681 5.13662e-23
-5.63847e-05 -0.000263422 0
-5.63847e-05 -0.000263422 0
-5.32493e-05 0.000119084 1.02542e-22
-5.32493e-05 0.000119084 1.02542e-22
-3.73834e-05 0.000467378 1.06122e-26
-3.73834e-05 0.000467378 1.06122e-26
-1.18697e-05 0.000731271 -1.02531e-22
-1.18697e-05 0.000731271 -1.02531e-22
2.11737e-05 0.000875581 1.02894e-22
2.11737e-05 0.000875581 1.02894e-22
5.69374e-05 0.000868811 -4.30651e-28
5.69374e-05 0.000868811 -4.30651e-28
8.39777e-05 0.000691252 -1.02894e-22
8.39777e-05 0.000691252 -1.02894e-22
7.03814e-05 0.000355428 -1.03633e-22
7.03814e-05 0.000355428 -1.03633e-22
-8.71106e-06 -4.86012e-06 6.95762e-27
-8.71106e-06 -4.86012e-06 6.95762e-27
-8.68603e-05 -0.000185661 1.05477e-22
-8.68603e-05 -0.000185661 1.05477e-22
-0.000112781 -8.34281e-05 0
-0.000112781 -8.34281e-05 0
-0.000105028 0.000192412 0
-0.000105028 0.000192412 0
3.10337e-05 0.000222019 0
3.10337e-05 0.000222019 0
0.000276584 -0.000507411 0
0.000276584 -0.000507411 0
0.000331892 -0.00151727 0
0.000331892 -0.00151727 0
0.000131346 -0.00194334 0
0.000131346 -0.00194334 0
-0.000105689 -0.00178312 0
-0.000105689 -0.00178312 0
-0.000285721 -0.00128721 0
-0.000285721 -0.00128721 0
-0.00039877 -0.000596287 0
-0.00039877 -0.000596287 0
-0.000305771 0.00011594 0
-0.000305771 0.00011594 0
-1.43424e-05 0.000560473 0
-1.43424e-05 0.000560473 0
9.26318e-05 -0.000123177 -5.12256e-26
9.26318e-05 -0.000123177 -5.12256e-26
0.000227559 -0.000168274 5.98114e-24
0.000227559 -0.000168274 5.98114e-24
0.000376735 -0.00017849 0
0.000376735 -0.00017849 0
0.000524416 -0.000177926 0
0.000524416 -0.000177926 0
0.000671641 -0.000175054 -5.81603e-24
0.000671641 -0.000175054 -5.81603e-24
0.000818974 -0.000172323 -5.82648e-24
0.000818974 -0.000172323 -5.82648e-24
0.000966765 -0.000170004 0
0.000966765 -0.000170004 0
0.0011152 -0.000167665 0
0.0011152 -0.000167665 0
0.00126399 -0.00016464 0
0.00126399 -0.00016464 0
0.0014122 -0.000160171 5.65729e-24
0.0014122 -0.000160171 5.65729e-24
0.00155815 -0.000153462 5.66807e-24
0.00155815 -0.000153462 5.66807e-24
0.00169947 -0.000143717 0
0.00169947 -0.000143717 0
0.00183308 -0.000130182 0
0.00183308 -0.000130182 0
0.00195532 -0.00011225 0
0.00195532 -0.00011225 0
0.002062 -8.96415e-05 5.53103e-24
0.002062 -8.96415e-05 5.53103e-24
0.00214909 -6.2093e-05 5.54219e-24
0.00214909 -6.2093e-05 5.54219e-24
0.00221253 -3.04632e-05 0
0.00221253 -3.04632e-05 0
0.00224994 3.58256e-06 0
0.00224994 3.58256e-06 0
0.00225877 3.89504e-05 0
0.00225877 3.89504e-05 0
0.00223518 7.38672e-05 0
0.00223518 7.38672e-05 0
0.00217841 0.000102868 0
0.00217841 0.000102868 0
0.00209191 0.000112095 0
0.00209191 0.000112095 0
0.00198222 8.19661e-05 5.25861e-24
0.00198222 8.19661e-05 5.25861e-24
0.00185414 2.3685e-06 5.63134e-26
0.00185414 2.3685e-06 5.63134e-26
0.00170235 -0.000102303 -5.42846e-26
0.00170235 -0.000102303 -5.42846e-26
0.00151242 -0.000167732 1.03146e-23
0.00151242 -0.000167732 1.03146e-23
0.00125941 -0.000104884 5.14339e-24
0.00125941 -0.000104884 5.14339e-24
0.00089147 0.000124811 0
0.00089147 0.000124811 0
0.000372345 0.000394249 -5.00905e-24
0.000372345 0.000394249 -5.00905e-24
-0.000248134 0.000546878 -9.99145e-24
-0.000248134 0.000546878 -9.99145e-24
-0.000897569 0.000595094 -4.98244e-24
-0.000897569 0.000595094 -4.98244e-24
-0.00154769 0.000606848 0
-0.00154769 0.000606848 0
-0.0021864 0.000600316 -4.91026e-24
-0.0021864 0.000600316 -4.91026e-24
-0.00280505 0.000581074 -4.92236e-24
-0.00280505 0.000581074 -4.92236e-24
-0.00339774 0.000553797 0
-0.00339774 0.000553797 0
-0.00396095 0.000521753 4.92435e-24
-0.00396095 0.000521753 4.92435e-24
-0.00449281 0.00048718 4.93687e-24
-0.00449281 0.00048718 4.93687e-24
-0.00499244 0.000451655 4.95368e-24
-0.00499244 0.000451655 4.95368e-24
-0.00545948 0.000416204 1.49061e-23
-0.00545948 0.000416204 1.49061e-23
-0.00589367 0.000381149 9.96561e-24
-0.00589367 0.000381149 9.96561e-24
-0.00629449 0.000346449 0
-0.00629449 0.000346449 0
-0.00666118 0.000311959 0
-0.00666118 0.000311959 0
-0.0069927 0.000277485 0
-0.0069927 0.000277485 0
-0.00728768 0.000242886 0
-0.00728768 0.000242886 0
-0.00754461 0.000208108 1.00126e-23
-0.00754461 0.000208108 1.00126e-23
-0.00776199 0.000173206 2.00239e-23
-0.00776199 0.000173206 2.00239e-23
-0.00793843 0.000138333 1.99492e-23
-0.00793843 0.000138333 1.99492e-23
-0.00807276 0.000103769 9.96588e-24
-0.00807276 0.000103769 9.96588e-24
-0.00816434 7.00612e-05 -9.79262e-24
-0.00816434 7.00612e-05 -9.79262e-24
-0.008213 3.80136e-05 -9.82099e-24
-0.008213 3.80136e-05 -9.82099e-24
-0.00821928 8.31791e-06 9.57606e-24
-0.00821928 8.31791e-06 9.57606e-24
-0.00818674 -1.87966e-05 1.90475e-23
-0.00818674 -1.87966e-05 1.90475e-23
-0.00811802 -4.35451e-05 9.47133e-24
-0.00811802 -4.35451e-05 9.47133e-24
-0.00801471 -6.60766e-05 0
-0.00801471 -6.60766e-05 0
-0.00787986 -8.64245e-05 0
-0.00787986 -8.64245e-05 0
-0.00771594 -0.000104609 8.79279e-24
-0.00771594 -0.000104609 8.79279e-24
-0.00752576 -0.000120645 8.82002e-24
-0.00752576 -0.000120645 8.82002e-24
-0.0073119 -0.00013465 0
-0.0073119 -0.00013465 0
-0.00707685 -0.000146729 0
-0.00707685 -0.000146729 0
-0.00682299 -0.000157028 0
-0.00682299 -0.000157028 0
-0.00655249 -0.000165668 0
-0.00655249 -0.000165668 0
-0.00626749 -0.000172744 0
-0.00626749 -0.000172744 0
-0.00597004 -0.00017833 0
-0.00597004 -0.00017833 0
-0.00566222 -0.000182476 0
-0.00566222 -0.000182476 0
-0.00534609 -0.000185258 -7.16255e-24
-0.00534609 -0.000185258 -7.16255e-24
-0.00502361 -0.000186803 -7.18661e-24
-0.00502361 -0.000186803 -7.18661e-24
-0.00469658 -0.000187287 0
-0.00469658 -0.000187287 0
-0.00436644 -0.000186923 6.67445e-24
-0.00436644 -0.000186923 6.67445e-24
-0.00403431 -0.000185908 1.32184e-23
-0.00403431 -0.000185908 1.32184e-23
-0.00370099 -0.000184373 6.54362e-24
-0.00370099 -0.000184373 6.54362e-24
-0.00336716 -0.000182358 -6.22862e-24
-0.00336716 -0.000182358 -6.22862e-24
-0.00303358 -0.00017981 -1.60212e-25
-0.00303358 -0.00017981 -1.60212e-25
-0.00270124 -0.000176613 6.11218e-24
-0.00270124 -0.000176613 6.11218e-24
-0.0023714 -0.000172626 -5.83228e-24
-0.0023714 -0.000172626 -5.83228e-24
-0.00204563 -0.000167738 -5.85344e-24
-0.00204563 -0.000167738 -5.85344e-24
-0.00172567 -0.000161889 0
-0.00172567 -0.000161889 0
-0.00141336 -0.000155091 5.49588e-24
-0.00141336 -0.000155091 5.49588e-24
-0.00111039 -0.000147479 5.51632e-24
-0.00111039 -0.000147479 5.51632e-24
-0.000818338 -0.00013922 -5.30619e-24
-0.000818338 -0.00013922 -5.30619e-24
-0.000538406 -0.000130437 -5.32624e-24
-0.000538406 -0.000130437 -5.32624e-24
-0.000271748 -0.000121354 5.1412e-24
-0.000271748 -0.000121354 5.1412e-24
-1.97712e-05 -0.000112441 1.02268e-23
-1.97712e-05 -0.000112441 1.02268e-23
0.000217402 -0.000103626 1.00795e-23
0.000217402 -0.000103626 1.00795e-23
0.000440702 -9.47969e-05 1.48659e-23
0.000440702 -9.47969e-05 1.48659e-23
0.000650318 -8.62613e-05 1.67024e-25
0.000650318 -8.62613e-05 1.67024e-25
0.000846227 -7.80747e-05 -9.76264e-24
0.000846227 -7.80747e-05 -9.76264e-24
0.0010288 -7.02817e-05 0
0.0010288 -7.02817e-05 0
0.0011985 -6.29117e-05 0
0.0011985 -6.29117e-05 0
0.00135588 -5.59822e-05 -9.26508e-24
0.00135588 -5.59822e-05 -9.26508e-24
0.00150151 -4.95018e-05 -1.8463e-23
0.00150151 -4.95018e-05 -1.8463e-23
0.001636 -4.34722e-05 -1.39786e-25
0.001636 -4.34722e-05 -1.39786e-25
0.00176 -3.78896e-05 9.09551e-24
0.00176 -3.78896e-05 9.09551e-24
0.00187413 -3.27454e-05 -8.86033e-24
0.00187413 -3.27454e-05 -8.86033e-24
0.00197906 -2.80259e-05 -1.76616e-23
0.00197906 -2.80259e-05 -1.76616e-23
0.0020754 -2.3713e-05 -1.74704e-23
0.0020754 -2.3713e-05 -1.74704e-23
0.00216377 -1.97842e-05 -8.70614e-24
0.00216377 -1.97842e-05 -8.70614e-24
0.00224476 -1.62134e-05 0
0.00224476 -1.62134e-05 0
0.00231891 -1.29721e-05 0
0.00231891 -1.29721e-05 0
0.00238672 -1.0031e-05 -8.29946e-24
0.00238672 -1.0031e-05 -8.29946e-24
0.00244866 -7.36142e-06 -8.33579e-24
0.00244866 -7.36142e-06 -8.33579e-24
0.00250513 -4.93689e-06 0
0.00250513 -4.93689e-06 0
0.00255648 -2.73458e-06 8.02902e-24
0.00255648 -2.73458e-06 8.02902e-24
0.00260304 -7.36342e-07 8.06488e-24
0.00260304 -7.36342e-07 8.06488e-24
0.00264508 1.07182e-06 0
0.00264508 1.07182e-06 0
0.00268287 2.69903e-06 7.76269e-24
0.00268287 2.69903e-06 7.76269e-24
0.00271664 4.15065e-06 7.79805e-24
0.00271664 4.15065e-06 7.79805e-24
0.00274663 5.43105e-06 0
0.00274663 5.43105e-06 0
0.00277306 6.5405e-06 -7.49992e-24
0.00277306 6.5405e-06 -7.49992e-24
0.00279617 7.48149e-06 -1.49478e-23
0.00279617 7.48149e-06 -1.49478e-23
0.00281617 8.25988e-06 -7.44771e-24
0.00281617 8.25988e-06 -7.44771e-24
0.00283333 8.87329e-06 7.2405e-24
0.00283333 8.87329e-06 7.2405e-24
0.00284787 9.33432e-06 7.27473e-24
0.00284787 9.33432e-06 7.27473e-24
0.00286003 9.65763e-06 -7.06935e-24
0.00286003 9.65763e-06 -7.06935e-24
0.00287006 9.8331e-06 -7.10317e-24
0.00287006 9.8331e-06 -7.10317e-24
0.00287821 9.90045e-06 -6.89961e-24
0.00287821 9.90045e-06 -6.89961e-24
0.00288458 9.92899e-06 -1.37483e-23
0.00288458 9.92899e-06 -1.37483e-23
0.00288937 9.90954e-06 -6.84846e-24
0.00288937 9.90954e-06 -6.84846e-24
0.00289281 9.80124e-06 0
0.00289281 9.80124e-06 0
0.0028951 9.60236e-06 0
0.0028951 9.60236e-06 0
0.00289643 9.32897e-06 0
0.00289643 9.32897e-06 0
0.00289698 8.99651e-06 0
0.00289698 8.99651e-06 0
0.00289691 8.62193e-06 0
0.00289691 8.62193e-06 0
0.00289637 8.2204e-06 0
0.00289637 8.2204e-06 0
0.00289545 7.8037e-06 -6.15336e-24
0.00289545 7.8037e-06 -6.15336e-24
0.00289426 7.38772e-06 -1.12481e-25
0.00289426 7.38772e-06 -1.12481e-25
0.00289286 6.98875e-06 6.1033e-24
0.00289286 6.98875e-06 6.1033e-24
0.00289131 6.60461e-06 0
0.00289131 6.60461e-06 0
0.00288968 6.21806e-06 0
0.00288968 6.21806e-06 0
0.00288799 5.82221e-06 0
0.00288799 5.82221e-06 0
0.0028863 5.43796e-06 1.13436e-23
0.0028863 5.43796e-06 1.13436e-23
0.00288459 5.08608e-06 1.14032e-23
0.00288459 5.08608e-06 1.14032e-23
0.00288288 4.76641e-06 -1.10283e-23
0.00288288 4.76641e-06 -1.10283e-23
0.00288119 4.47583e-06 -2.15098e-25
0.00288119 4.47583e-06 -2.15098e-25
0.00287951 4.21254e-06 1.09297e-23
0.00287951 4.21254e-06 1.09297e-23
0.00287787 3.97334e-06 0
0.00287787 3.97334e-06 0
0.00287627 3.75346e-06 0
0.00287627 3.75346e-06 0
0.00287473 3.54779e-06 -1.02524e-23
0.00287473 3.54779e-06 -1.02524e-23
0.00287326 3.35159e-06 -2.04074e-23
0.00287326 3.35159e-06 -2.04074e-23
0.00287187 3.16194e-06 -1.01544e-23
0.00287187 3.16194e-06 -1.01544e-23
0.00287059 2.97943e-06 -9.79507e-24
0.00287059 2.97943e-06 -9.79507e-24
0.00286944 2.80781e-06 -1.9493e-23
0.00286944 2.80781e-06 -1.9493e-23
0.0028684 2.65199e-06 -2.03845e-25
0.0028684 2.65199e-06 -2.03845e-25
0.00286749 2.51585e-06 9.54625e-24
0.00286749 2.51585e-06 9.54625e-24
0.0028667 2.40084e-06 0
0.0028667 2.40084e-06 0
0.002866 2.3057e-06 9.04586e-24
0.002866 2.3057e-06 9.04586e-24
0.00286539 2.22717e-06 9.0968e-24
0.00286539 2.22717e-06 9.0968e-24
0.00286484 2.16112e-06 0
0.00286484 2.16112e-06 0
0.00286435 2.10372e-06 0
0.00286435 2.10372e-06 0
0.00286391 2.05213e-06 0
0.00286391 2.05213e-06 0
0.00286351 2.00484e-06 -8.31194e-24
0.00286351 2.00484e-06 -8.31194e-24
0.00286313 1.96149e-06 -1.65266e-23
0.00286313 1.96149e-06 -1.65266e-23
0.00286277 1.92256e-06 -8.21403e-24
0.00286277 1.92256e-06 -8.21403e-24
0.00286242 1.88896e-06 -7.87839e-24
0.00286242 1.88896e-06 -7.87839e-24
0.00286206 1.86165e-06 -7.92424e-24
0.00286206 1.86165e-06 -7.92424e-24
0.00286168 1.84154e-06 0
0.00286168 1.84154e-06 0
0.00286127 1.82948e-06 -7.44954e-24
0.00286127 1.82948e-06 -7.44954e-24
0.00286081 1.82636e-06 -7.49339e-24
0.00286081 1.82636e-06 -7.49339e-24
0.00286027 1.83331e-06 -7.16606e-24
0.00286027 1.83331e-06 -7.16606e-24
0.00285963 1.85173e-06 -7.20855e-24
0.00285963 1.85173e-06 -7.20855e-24
0.00285886 1.88368e-06 0
0.00285886 1.88368e-06 0
0.00285791 1.93159e-06 -6.74413e-24
0.00285791 1.93159e-06 -6.74413e-24
0.00285673 1.99943e-06 -6.78455e-24
0.00285673 1.99943e-06 -6.78455e-24