/*--------------------------------*- C++ -*----------------------------------*\
  =========                 |
  \\      /  F ield         | OpenFOAM: The Open Source CFD Toolbox
   \\    /   O peration     | Website:  https://openfoam.org
    \\  /    A nd           | Version:  7
     \\/     M anipulation  |
\*---------------------------------------------------------------------------*/
FoamFile
{
    version     2.0;
    format      ascii;
    class       volScalarField;
    location    "0.048";
    object      k_0;
}
// * * * * * * * * * * * * * * * * * * * * * * * * * * * * * * * * * * * * * //

dimensions      [0 2 -2 0 0 0 0];

internalField   nonuniform List<scalar> 
12225
(
1.93262e-05
1.80248e-05
1.67446e-05
1.52932e-05
1.41572e-05
1.29327e-05
1.14334e-05
1.00716e-05
8.76511e-06
7.58539e-06
6.51468e-06
5.32113e-06
4.2864e-06
3.92378e-06
3.56255e-06
3.56286e-06
3.54332e-06
5.18145e-06
1.99788e-05
1.98774e-05
1.96624e-05
1.94537e-05
1.91094e-05
1.88517e-05
1.83375e-05
1.78242e-05
1.73555e-05
1.6794e-05
1.61519e-05
1.56036e-05
1.4941e-05
1.45227e-05
1.40656e-05
1.33671e-05
1.29214e-05
1.2493e-05
1.99986e-05
1.93234e-05
1.90828e-05
1.90528e-05
1.8969e-05
1.88978e-05
1.87907e-05
1.86375e-05
1.85152e-05
1.83713e-05
1.82069e-05
1.80694e-05
1.79296e-05
1.77895e-05
1.76911e-05
1.74677e-05
1.7332e-05
1.70494e-05
2.0016e-05
1.99218e-05
1.95883e-05
1.83474e-05
1.78729e-05
1.79428e-05
1.80152e-05
1.79208e-05
1.75095e-05
1.71953e-05
1.70879e-05
1.70796e-05
1.71334e-05
1.72852e-05
1.73845e-05
1.74026e-05
1.73997e-05
1.73958e-05
2.01944e-05
2.10882e-05
2.12255e-05
2.1107e-05
2.14177e-05
2.27389e-05
2.33292e-05
2.32987e-05
2.2707e-05
2.03333e-05
1.85525e-05
1.79442e-05
1.76959e-05
1.75165e-05
1.73472e-05
1.72383e-05
1.72066e-05
1.72003e-05
2.0312e-05
2.21314e-05
2.21721e-05
2.18503e-05
2.20007e-05
2.27759e-05
2.39969e-05
2.56923e-05
2.68049e-05
2.69388e-05
2.67557e-05
2.61908e-05
2.48316e-05
2.23747e-05
2.05122e-05
1.94141e-05
1.8784e-05
1.83044e-05
2.07351e-05
2.23061e-05
2.22129e-05
2.17716e-05
2.14308e-05
2.15064e-05
2.21247e-05
2.37366e-05
2.52396e-05
2.64593e-05
2.73573e-05
2.77692e-05
2.77558e-05
2.72835e-05
2.54368e-05
2.31558e-05
2.17873e-05
2.0864e-05
2.08556e-05
2.16273e-05
2.13396e-05
2.09552e-05
2.05027e-05
2.02219e-05
2.03714e-05
2.19557e-05
2.65439e-05
2.88963e-05
2.90648e-05
2.8591e-05
2.74253e-05
2.62959e-05
2.52342e-05
2.42947e-05
2.37784e-05
2.31558e-05
2.01267e-05
2.14618e-05
2.49945e-05
2.50981e-05
2.32272e-05
2.22101e-05
2.24341e-05
2.39802e-05
2.895e-05
3.26319e-05
3.37762e-05
3.37625e-05
3.29923e-05
3.02708e-05
2.79068e-05
2.66823e-05
2.61997e-05
2.59876e-05
2.003e-05
2.03632e-05
2.16721e-05
2.47792e-05
2.51815e-05
2.43454e-05
2.36844e-05
2.395e-05
2.61053e-05
3.07184e-05
3.28893e-05
3.33511e-05
3.32695e-05
3.26697e-05
3.18909e-05
3.15539e-05
3.14033e-05
3.11488e-05
2.0078e-05
2.13089e-05
2.36316e-05
2.36767e-05
2.24819e-05
2.1732e-05
2.16309e-05
2.17811e-05
2.28685e-05
2.64591e-05
2.95154e-05
3.09002e-05
3.12366e-05
3.11988e-05
3.09936e-05
3.08633e-05
3.0738e-05
3.04964e-05
2.09445e-05
2.13016e-05
2.13694e-05
2.09843e-05
2.0614e-05
2.0582e-05
2.06576e-05
2.10378e-05
2.23446e-05
2.39589e-05
2.52795e-05
2.62811e-05
2.69497e-05
2.73795e-05
2.75718e-05
2.75962e-05
2.75315e-05
2.72922e-05
2.02344e-05
2.09293e-05
2.1148e-05
2.07674e-05
2.04766e-05
2.05261e-05
2.10906e-05
2.2837e-05
2.38207e-05
2.40101e-05
2.39543e-05
2.36274e-05
2.34358e-05
2.34043e-05
2.34252e-05
2.35061e-05
2.35226e-05
2.35689e-05
2.03069e-05
2.09035e-05
2.08292e-05
2.04966e-05
2.04708e-05
2.06495e-05
2.13107e-05
2.19686e-05
2.23335e-05
2.24001e-05
2.2267e-05
2.18703e-05
2.16481e-05
2.15535e-05
2.15276e-05
2.15295e-05
2.15507e-05
2.16417e-05
2.00285e-05
2.01851e-05
2.03835e-05
2.04894e-05
2.06596e-05
2.10582e-05
2.14916e-05
2.17329e-05
2.17798e-05
2.17041e-05
2.15058e-05
2.1397e-05
2.12291e-05
2.09906e-05
2.08331e-05
2.07953e-05
2.08091e-05
2.08744e-05
2.02183e-05
2.02003e-05
2.06589e-05
2.09535e-05
2.0984e-05
2.09204e-05
2.07979e-05
2.07296e-05
2.06992e-05
2.0684e-05
2.06651e-05
2.06206e-05
2.04603e-05
2.02758e-05
2.02299e-05
2.02342e-05
2.02504e-05
2.02844e-05
2.00589e-05
2.02076e-05
2.03807e-05
2.04985e-05
2.05543e-05
2.05014e-05
2.04171e-05
2.04154e-05
2.04689e-05
2.05251e-05
2.05286e-05
2.04905e-05
2.03295e-05
2.02151e-05
2.02015e-05
2.02562e-05
2.04193e-05
2.04827e-05
2.00155e-05
2.02541e-05
2.0644e-05
2.10027e-05
2.10648e-05
2.0937e-05
2.07304e-05
2.06143e-05
2.05517e-05
2.05214e-05
2.0507e-05
2.04911e-05
2.04543e-05
2.03753e-05
2.03103e-05
2.02724e-05
2.02561e-05
2.02516e-05
2.00274e-05
2.03232e-05
2.05215e-05
2.06208e-05
2.09165e-05
2.11049e-05
2.10581e-05
2.08665e-05
2.05632e-05
2.03772e-05
2.02905e-05
2.02784e-05
2.02915e-05
2.03084e-05
2.0381e-05
2.0482e-05
2.05468e-05
2.05677e-05
2.03377e-05
2.05769e-05
2.06577e-05
2.0727e-05
2.10088e-05
2.13872e-05
2.14122e-05
2.12507e-05
2.08166e-05
2.05725e-05
2.04828e-05
2.04665e-05
2.04751e-05
2.05421e-05
2.0627e-05
2.06774e-05
2.07349e-05
2.07904e-05
2.04208e-05
2.08683e-05
2.09014e-05
2.07712e-05
2.06739e-05
2.06617e-05
2.06572e-05
2.06458e-05
2.06096e-05
2.05307e-05
2.04584e-05
2.03995e-05
2.03686e-05
2.0366e-05
2.03947e-05
2.0498e-05
2.05816e-05
2.06363e-05
2.00922e-05
2.02651e-05
2.0365e-05
2.04254e-05
2.054e-05
2.07988e-05
2.10245e-05
2.11418e-05
2.11722e-05
2.11662e-05
2.11059e-05
2.08833e-05
2.06637e-05
2.0548e-05
2.05035e-05
2.04946e-05
2.04959e-05
2.05096e-05
2.02792e-05
2.00929e-05
2.01846e-05
2.06385e-05
2.09817e-05
2.11065e-05
2.11017e-05
2.10382e-05
2.09325e-05
2.088e-05
2.08263e-05
2.07476e-05
2.066e-05
2.05867e-05
2.05393e-05
2.05167e-05
2.05107e-05
2.05101e-05
2.00421e-05
2.00548e-05
2.01633e-05
2.04254e-05
2.06071e-05
2.067e-05
2.06717e-05
2.06461e-05
2.05296e-05
2.0393e-05
2.03293e-05
2.03108e-05
2.03091e-05
2.03108e-05
2.03197e-05
2.03526e-05
2.04697e-05
2.08195e-05
2.01843e-05
2.02105e-05
2.02205e-05
2.02829e-05
2.03282e-05
2.03705e-05
2.03517e-05
2.02858e-05
2.02183e-05
2.01747e-05
2.01547e-05
2.01504e-05
2.01519e-05
2.01646e-05
2.0223e-05
2.04716e-05
2.1236e-05
2.18578e-05
2.04252e-05
2.0353e-05
2.018e-05
2.00976e-05
2.01358e-05
2.0517e-05
2.06626e-05
2.05044e-05
2.01954e-05
2.00253e-05
1.99476e-05
1.99251e-05
1.99238e-05
1.99283e-05
1.99494e-05
2.00281e-05
2.0306e-05
2.0985e-05
2.00383e-05
2.00273e-05
1.99856e-05
1.9906e-05
1.98225e-05
1.97698e-05
1.96902e-05
1.95219e-05
1.91407e-05
1.82198e-05
1.73742e-05
1.69414e-05
1.68157e-05
1.66914e-05
1.63369e-05
1.61137e-05
1.61217e-05
1.61277e-05
2.0176e-05
1.86499e-05
1.50069e-05
1.47767e-05
1.5889e-05
1.94417e-05
2.41185e-05
2.66571e-05
2.95051e-05
3.29454e-05
3.99223e-05
4.9421e-05
6.10221e-05
7.27815e-05
8.40988e-05
9.15241e-05
9.90367e-05
0.000102612
2.78523e-05
0.000101642
0.000141711
0.000172546
0.000240397
0.000312108
0.000351896
0.0003719
0.000394431
0.000429605
0.000475906
0.000531427
0.000598046
0.000672099
0.000735853
0.000770181
0.000777146
0.000775858
0.00167131
0.00189272
0.00201455
0.00202823
0.00201013
0.00194036
0.00185861
0.00181164
0.00179673
0.00179569
0.00179994
0.0018149
0.00182452
0.0018257
0.00182007
0.00178803
0.00166298
0.00149194
1.70021e-05
0.000116583
0.000193548
0.000192142
0.000179201
0.000152501
0.000143298
0.000142992
0.000144031
0.000149042
0.000158158
0.00016483
0.000168574
0.000176203
0.000189734
0.000199821
0.000200942
0.000199114
0.000189867
0.000197269
0.000222586
0.00026939
0.000377448
0.000468548
0.000622273
0.000839432
0.000999928
0.00136327
0.00233633
0.00269483
0.0033583
0.0037222
0.00564264
0.00894439
0.0091579
0.0107941
0.0276885
0.0422888
0.0106598
0.00160389
0.000715443
0.000634993
0.000673385
0.000694582
0.000642985
0.000576528
0.000450175
0.000379964
0.000274488
0.000217035
0.000145596
0.000114442
8.04136e-05
6.44047e-05
5.5462e-05
5.20718e-05
5.23771e-05
5.24889e-05
5.252e-05
5.2511e-05
5.26889e-05
5.30783e-05
5.36306e-05
5.42818e-05
5.47795e-05
5.49524e-05
5.49916e-05
5.47762e-05
5.39034e-05
5.23586e-05
5.04832e-05
4.86829e-05
4.72217e-05
4.61377e-05
4.52777e-05
4.44633e-05
4.36988e-05
4.30546e-05
4.24129e-05
4.16879e-05
4.07605e-05
3.9359e-05
3.7402e-05
3.5123e-05
3.29927e-05
3.15626e-05
2.9137e-05
2.70481e-05
2.52967e-05
2.33044e-05
2.15498e-05
1.9964e-05
1.82679e-05
1.65856e-05
1.49516e-05
1.34106e-05
1.19408e-05
1.05539e-05
9.26251e-06
8.07841e-06
7.0107e-06
6.062e-06
5.22575e-06
4.49048e-06
3.84792e-06
3.2903e-06
2.80891e-06
2.39456e-06
2.03839e-06
1.73229e-06
1.4691e-06
1.24244e-06
1.04684e-06
8.77846e-07
7.31609e-07
6.05453e-07
4.96877e-07
4.04051e-07
3.25672e-07
2.6048e-07
2.07523e-07
1.64648e-07
1.30057e-07
1.02296e-07
8.01375e-08
6.25356e-08
4.86046e-08
3.76122e-08
2.89647e-08
2.21854e-08
1.68927e-08
1.27806e-08
9.60318e-09
7.16256e-09
5.29993e-09
3.8882e-09
2.82627e-09
2.03415e-09
1.4488e-09
1.02066e-09
7.10929e-10
4.89478e-10
3.33107e-10
2.24097e-10
1.49057e-10
9.80288e-11
6.37486e-11
4.09956e-11
2.60735e-11
1.64024e-11
1.02076e-11
6.28499e-12
3.82933e-12
2.30911e-12
1.37828e-12
8.14445e-13
4.76511e-13
2.76074e-13
1.58409e-13
9.00394e-14
5.07142e-14
2.83237e-14
1.57028e-14
8.66076e-15
4.7695e-15
2.64234e-15
1.48843e-15
8.7323e-16
5.42562e-16
3.76178e-16
2.84924e-16
2.44974e-16
2.27414e-16
2.50447e-16
2.74673e-16
3.30881e-16
3.66253e-15
1.36086e-12
5.48786e-10
2.09221e-07
1.58233e-05
0.000125419
0.000196004
0.000239781
0.000270054
0.000282088
0.000302445
0.000336636
0.000360178
0.000425652
0.00047205
0.000521004
0.000553752
0.00062465
0.000671993
0.000705425
0.000731361
0.000762875
0.000760055
0.000745073
0.00071343
0.000660503
0.000610247
0.000606524
0.000629504
0.000699408
0.000844643
0.00103841
0.00166997
0.00184693
0.00211719
0.00253287
0.00330219
0.00800756
0.0139025
0.015097
0.0160839
0.00824456
0.00206176
0.000654544
0.000441414
0.000390355
0.000359571
0.000318986
0.0002752
0.000247609
0.000215476
0.000201221
0.000183407
0.000173166
0.000159703
0.000156052
0.000155129
0.000155124
0.000155693
0.00015671
0.00015763
0.000158253
0.000159138
0.000160485
0.000162615
0.000165237
0.000168282
0.000171574
0.000173793
0.000174525
0.000174728
0.000174462
0.000172661
0.000168854
0.000163575
0.000157828
0.000152354
0.000147171
0.00014213
0.000137872
0.000135795
0.000135025
0.000134409
0.000132432
0.000128729
0.000121818
0.000113278
0.000106216
9.78769e-05
9.22871e-05
8.50166e-05
7.99035e-05
7.47631e-05
7.01676e-05
6.59753e-05
6.21564e-05
5.87818e-05
5.5542e-05
5.22518e-05
4.8705e-05
4.50004e-05
4.11905e-05
3.72994e-05
3.33532e-05
2.94442e-05
2.57412e-05
2.24461e-05
1.9521e-05
1.68675e-05
1.44999e-05
1.24295e-05
1.06477e-05
9.12847e-06
7.83865e-06
6.74928e-06
5.83516e-06
5.07156e-06
4.43351e-06
3.89792e-06
3.44419e-06
3.05489e-06
2.71589e-06
2.41544e-06
2.14433e-06
1.89503e-06
1.66214e-06
1.4428e-06
1.23844e-06
1.05154e-06
8.83483e-07
7.34582e-07
6.0446e-07
4.92277e-07
3.96868e-07
3.16797e-07
2.50467e-07
1.96197e-07
1.52299e-07
1.17162e-07
8.93097e-08
6.74355e-08
5.04101e-08
3.72767e-08
2.72487e-08
1.96773e-08
1.40297e-08
9.87277e-09
6.85785e-09
4.70387e-09
3.18612e-09
2.13112e-09
1.40773e-09
9.18424e-10
5.91884e-10
3.76845e-10
2.37078e-10
1.47402e-10
9.05926e-11
5.50504e-11
3.30827e-11
1.96652e-11
1.15644e-11
6.72858e-12
3.87389e-12
2.20711e-12
1.24452e-12
6.94583e-13
3.83806e-13
2.10004e-13
1.13909e-13
6.11951e-14
3.27818e-14
1.72827e-14
9.36666e-15
4.81123e-15
2.71783e-15
1.56019e-15
4.03027e-15
5.36133e-15
9.08497e-15
3.45907e-14
7.31576e-13
6.53788e-10
1.92907e-08
8.46076e-06
6.07886e-05
9.08863e-05
0.000157498
0.00024036
0.000341805
0.000429035
0.00054379
0.000648154
0.000819455
0.00093447
0.00107145
0.00120562
0.00135168
0.00143187
0.00148634
0.00165051
0.00180601
0.00187032
0.00185369
0.00179456
0.00167519
0.00145223
0.00122387
0.000960232
0.000847182
0.000868903
0.000937984
0.00111801
0.00151549
0.00337158
0.00772654
0.00935341
0.009814
0.0105387
0.00620345
0.00276726
0.00117301
0.000494458
0.000345898
0.000313708
0.000301124
0.000285851
0.000272605
0.00025837
0.000243321
0.00022772
0.000220764
0.000211403
0.000204946
0.000201071
0.000200479
0.000201723
0.000207819
0.000218009
0.000228527
0.000237763
0.000245772
0.000253512
0.000261057
0.000268625
0.00027614
0.000283728
0.000291218
0.000295295
0.000296293
0.000296133
0.00029384
0.000288909
0.000282371
0.00027465
0.000265752
0.000255407
0.000243685
0.000232018
0.000223207
0.000218758
0.000216065
0.000210479
0.000204987
0.000199712
0.000191698
0.000180466
0.00016826
0.000155654
0.000142637
0.00012728
0.000115332
0.000104498
9.5312e-05
8.82049e-05
8.21679e-05
7.76823e-05
7.3874e-05
7.05442e-05
6.76076e-05
6.48758e-05
6.22208e-05
5.95623e-05
5.67828e-05
5.3708e-05
5.01838e-05
4.60615e-05
4.14714e-05
3.66493e-05
3.178e-05
2.70933e-05
2.28195e-05
1.91208e-05
1.5982e-05
1.32558e-05
1.09152e-05
8.95856e-06
7.36806e-06
6.10366e-06
5.11509e-06
4.34867e-06
3.75263e-06
3.28201e-06
2.90117e-06
2.58413e-06
2.31392e-06
2.07882e-06
1.86847e-06
1.67541e-06
1.49491e-06
1.32445e-06
1.16383e-06
1.01336e-06
8.73438e-07
7.44605e-07
6.27564e-07
5.23096e-07
4.31379e-07
3.51987e-07
2.84146e-07
2.26888e-07
1.79153e-07
1.39855e-07
1.07904e-07
8.22502e-08
6.19144e-08
4.60049e-08
3.37265e-08
2.43843e-08
1.73826e-08
1.22161e-08
8.46376e-09
5.78152e-09
3.89427e-09
2.58682e-09
1.69465e-09
1.095e-09
6.98007e-10
4.39101e-10
2.72685e-10
1.67212e-10
1.0127e-10
6.05869e-11
3.58113e-11
2.09145e-11
1.207e-11
6.88372e-12
3.88059e-12
2.16231e-12
1.19204e-12
6.49154e-13
3.51758e-13
1.855e-13
1.03366e-13
4.60208e-14
3.45636e-14
2.52709e-14
4.14807e-13
3.5493e-13
8.92774e-13
6.06668e-12
4.61265e-12
1.38202e-10
1.0819e-09
9.21781e-06
4.8655e-05
7.76545e-05
0.000152634
0.000268511
0.000373171
0.000478298
0.000619486
0.000796298
0.000989856
0.00123974
0.00151713
0.00175433
0.00209229
0.00232254
0.00257357
0.0032597
0.00380076
0.00404202
0.00421291
0.00414902
0.00395905
0.00347929
0.00259169
0.00169184
0.00125143
0.00106274
0.00102601
0.0012786
0.00426643
0.00713664
0.00757582
0.0074948
0.00530549
0.00280105
0.00143627
0.000688269
0.000425239
0.00034696
0.000331951
0.000328663
0.000334891
0.000337755
0.000344188
0.000349155
0.000359167
0.000374455
0.000386503
0.000391869
0.000393885
0.000394328
0.00039327
0.00039445
0.000398351
0.000407782
0.000417782
0.000424714
0.000430682
0.000436053
0.000442005
0.000447463
0.00045155
0.000454605
0.000457009
0.000457989
0.000455658
0.000443058
0.000424698
0.000401571
0.00038042
0.000360678
0.000341964
0.000326699
0.000313745
0.000299781
0.000284495
0.000269046
0.000251477
0.000240143
0.000229564
0.000219613
0.0002083
0.000200315
0.000188904
0.000180672
0.000169599
0.000156575
0.000145496
0.000134078
0.000122563
0.000110168
9.90157e-05
8.98302e-05
8.32911e-05
7.85727e-05
7.48691e-05
7.18644e-05
6.92577e-05
6.68541e-05
6.45763e-05
6.24033e-05
6.02701e-05
5.8119e-05
5.58898e-05
5.34808e-05
5.07136e-05
4.74579e-05
4.36694e-05
3.93982e-05
3.47827e-05
3.00038e-05
2.51689e-05
2.05003e-05
1.63314e-05
1.28063e-05
9.91186e-06
7.63307e-06
5.90035e-06
4.61477e-06
3.67603e-06
2.99495e-06
2.49884e-06
2.13202e-06
1.85345e-06
1.63349e-06
1.45214e-06
1.29663e-06
1.15722e-06
1.02736e-06
9.06015e-07
7.93867e-07
6.90915e-07
5.96447e-07
5.1015e-07
4.32086e-07
3.62304e-07
3.00695e-07
2.46977e-07
2.0071e-07
1.61338e-07
1.2823e-07
1.00725e-07
7.81571e-08
5.98868e-08
4.52933e-08
3.3795e-08
2.48634e-08
1.80279e-08
1.28774e-08
9.05871e-09
6.27451e-09
4.27915e-09
2.87367e-09
1.90058e-09
1.23824e-09
7.94937e-10
5.03061e-10
3.13876e-10
1.93107e-10
1.17164e-10
7.01095e-11
4.13821e-11
2.4095e-11
1.38443e-11
7.84939e-12
4.39629e-12
2.42991e-12
1.33092e-12
7.19479e-13
3.86981e-13
2.02686e-13
1.12413e-13
6.0083e-14
4.81247e-14
6.52663e-14
7.29733e-14
6.10191e-13
6.4462e-13
6.51263e-12
5.71232e-11
1.35267e-05
5.74447e-05
8.51618e-05
0.000187196
0.000299219
0.000405639
0.000545723
0.000693647
0.000919254
0.00117821
0.00158998
0.00190323
0.0022841
0.00291987
0.00375281
0.00473906
0.00619965
0.00716461
0.00825812
0.00860399
0.00841312
0.00759397
0.00688148
0.00612081
0.00397967
0.00204734
0.0011735
0.00137948
0.00392465
0.00589587
0.00630648
0.00474379
0.002796
0.00169473
0.000866767
0.000537189
0.000408621
0.000378845
0.000375087
0.000413766
0.000472656
0.000524298
0.000549416
0.000570719
0.000580304
0.000587455
0.000590894
0.000598332
0.000607408
0.000622128
0.000633824
0.00063775
0.000638789
0.00063955
0.000644279
0.000648782
0.000649203
0.00063914
0.000630395
0.000627113
0.000623332
0.000618851
0.000611772
0.000605276
0.000593334
0.000588219
0.000576639
0.000562365
0.000541447
0.000507934
0.000468217
0.000421238
0.000376014
0.000348117
0.000333537
0.000315
0.000303797
0.000286023
0.000273309
0.000257506
0.000236724
0.000212204
0.000196446
0.000181301
0.00017518
0.000169052
0.000158866
0.000150119
0.000141521
0.000133719
0.000125706
0.000116898
0.000107558
9.85349e-05
8.99558e-05
8.27177e-05
7.74883e-05
7.36094e-05
7.05628e-05
6.80285e-05
6.57983e-05
6.37558e-05
6.18072e-05
5.991e-05
5.80262e-05
5.61244e-05
5.4096e-05
5.17764e-05
4.90806e-05
4.61606e-05
4.31419e-05
4.00012e-05
3.64868e-05
3.21838e-05
2.70991e-05
2.17462e-05
1.68159e-05
1.27431e-05
9.49714e-06
7.00405e-06
5.15104e-06
3.81139e-06
2.86489e-06
2.20755e-06
1.75521e-06
1.44335e-06
1.22449e-06
1.06644e-06
9.49226e-07
8.56785e-07
7.75568e-07
6.96334e-07
6.15736e-07
5.36645e-07
4.61442e-07
3.91709e-07
3.28446e-07
2.72153e-07
2.22925e-07
1.80555e-07
1.44622e-07
1.14571e-07
8.97642e-08
6.95249e-08
5.32086e-08
4.02214e-08
3.00205e-08
2.21169e-08
1.60778e-08
1.1528e-08
8.14924e-09
5.67763e-09
3.89802e-09
2.63746e-09
1.75899e-09
1.15634e-09
7.49122e-10
4.78077e-10
3.00468e-10
1.85927e-10
1.13255e-10
6.79054e-11
4.00766e-11
2.32846e-11
1.3322e-11
7.50808e-12
4.172e-12
2.28642e-12
1.23907e-12
6.64074e-13
3.55019e-13
1.87699e-13
1.01679e-13
5.31926e-14
3.29083e-14
1.85381e-14
5.73807e-14
6.63081e-14
5.53178e-13
3.45587e-12
1.55655e-05
6.27549e-05
9.21689e-05
0.000210102
0.000323522
0.000442212
0.000576314
0.0007472
0.000984139
0.00142055
0.00186535
0.0024473
0.00341623
0.00516915
0.00712075
0.00873934
0.0107096
0.0118149
0.0126281
0.0134924
0.013648
0.013231
0.010945
0.00689726
0.00367676
0.00181747
0.0015654
0.00354353
0.00489429
0.00518972
0.00344269
0.00180796
0.00105899
0.000669004
0.000478283
0.000420248
0.000410625
0.000432224
0.000523889
0.000642294
0.000699611
0.000727279
0.000748079
0.000777405
0.000815264
0.000858237
0.000909739
0.000951489
0.000992065
0.0010211
0.00105666
0.00107317
0.00107909
0.00107668
0.0010397
0.00101842
0.00100225
0.000947123
0.000868812
0.000816828
0.000765571
0.000736796
0.000693014
0.000672329
0.000637532
0.00062226
0.000611816
0.000603024
0.000599904
0.000592485
0.000583705
0.000570307
0.000545972
0.000499096
0.000442308
0.000416027
0.000404798
0.000402022
0.00040015
0.000382259
0.000344531
0.000286205
0.000241645
0.000202621
0.000182035
0.000170248
0.000158857
0.000149338
0.000141289
0.000134408
0.000127352
0.00012002
0.000112648
0.000106456
0.000100492
9.39138e-05
8.64713e-05
7.99412e-05
7.51578e-05
7.15422e-05
6.8698e-05
6.63082e-05
6.41732e-05
6.21101e-05
6.01447e-05
5.83283e-05
5.66219e-05
5.4913e-05
5.29843e-05
5.0578e-05
4.78745e-05
4.51813e-05
4.26512e-05
4.03681e-05
3.81015e-05
3.52511e-05
3.11472e-05
2.58653e-05
2.03273e-05
1.54119e-05
1.13976e-05
8.2401e-06
5.84842e-06
4.09972e-06
2.86368e-06
2.01755e-06
1.45489e-06
1.08895e-06
8.52207e-07
6.96271e-07
5.90925e-07
5.19134e-07
4.68963e-07
4.27283e-07
3.85261e-07
3.40744e-07
2.95778e-07
2.52235e-07
2.1154e-07
1.7464e-07
1.42039e-07
1.13886e-07
9.00663e-08
7.02887e-08
5.41454e-08
4.11746e-08
3.09079e-08
2.28992e-08
1.67412e-08
1.20739e-08
8.58744e-09
6.02127e-09
4.16077e-09
2.83254e-09
1.89912e-09
1.25357e-09
8.1434e-10
5.20416e-10
3.27059e-10
2.02071e-10
1.22707e-10
7.32179e-11
4.29202e-11
2.4714e-11
1.39785e-11
7.76631e-12
4.24186e-12
2.27662e-12
1.20583e-12
6.2583e-13
3.26819e-13
1.61335e-13
9.19741e-14
3.99474e-14
5.53244e-14
4.81649e-14
6.33136e-13
6.63438e-13
3.89594e-12
4.18123e-12
1.67327e-05
6.493e-05
0.000100292
0.000235132
0.000339144
0.000457566
0.000601934
0.000813774
0.00119968
0.00176477
0.00254785
0.00379694
0.00576464
0.00816403
0.0104076
0.0124971
0.0144579
0.0166254
0.0173974
0.0171143
0.0157174
0.013421
0.0100807
0.0053931
0.00258459
0.00204655
0.00328498
0.00415947
0.0043629
0.00288392
0.0013955
0.000808701
0.000556261
0.000453655
0.000423938
0.000431834
0.000480632
0.000619686
0.000722776
0.000803319
0.000842854
0.000886236
0.000944779
0.0010148
0.00111962
0.00123376
0.00136084
0.00148361
0.00161389
0.00174042
0.0018391
0.00188042
0.00189078
0.00184074
0.00172703
0.00166992
0.00157
0.00139851
0.00120863
0.00108383
0.000929996
0.000862678
0.000763561
0.000715442
0.000667304
0.000628497
0.000609625
0.000580734
0.000565946
0.000560015
0.000561021
0.000578606
0.000589012
0.00059435
0.000590637
0.000577245
0.00055773
0.000543937
0.000534191
0.000505877
0.000466
0.000431005
0.000383009
0.000318171
0.000271154
0.000231533
0.000198193
0.000171396
0.000151618
0.000138212
0.000128207
0.000120149
0.000113048
0.000107271
0.000102261
9.75813e-05
9.26805e-05
8.66768e-05
7.99127e-05
7.44364e-05
7.0488e-05
6.75666e-05
6.52672e-05
6.33364e-05
6.15212e-05
5.97131e-05
5.79254e-05
5.6248e-05
5.47248e-05
5.31666e-05
5.10732e-05
4.83075e-05
4.54022e-05
4.2827e-05
4.07117e-05
3.90243e-05
3.75418e-05
3.56505e-05
3.25391e-05
2.7895e-05
2.24226e-05
1.71825e-05
1.27412e-05
9.15453e-06
6.3874e-06
4.34324e-06
2.89531e-06
1.91057e-06
1.26636e-06
8.59725e-07
6.1042e-07
4.5927e-07
3.66085e-07
3.07284e-07
2.70573e-07
2.45899e-07
2.23991e-07
2.00251e-07
1.75044e-07
1.49711e-07
1.25422e-07
1.03052e-07
8.31439e-08
6.59405e-08
5.14522e-08
3.95261e-08
2.99093e-08
2.23005e-08
1.63865e-08
1.1867e-08
8.46945e-09
5.95616e-09
4.12652e-09
2.81575e-09
1.89178e-09
1.25105e-09
8.14055e-10
5.21022e-10
3.27881e-10
2.02799e-10
1.23239e-10
7.35553e-11
4.31032e-11
2.47913e-11
1.39919e-11
7.74444e-12
4.20519e-12
2.23826e-12
1.16638e-12
5.96519e-13
3.0774e-13
1.36959e-13
7.54409e-14
6.0072e-14
1.34801e-13
1.55449e-13
5.30001e-13
6.23455e-13
8.67668e-13
1.57982e-12
1.7872e-05
6.53122e-05
0.000111633
0.000250692
0.000354177
0.000478703
0.000650037
0.000930901
0.00140964
0.00212855
0.00321394
0.0048966
0.0070914
0.00939507
0.0119304
0.0147092
0.0168424
0.0174122
0.0174361
0.016585
0.0146644
0.0116464
0.0062578
0.00336044
0.00266783
0.00311978
0.00363012
0.00374206
0.00253567
0.0012014
0.00068864
0.000495105
0.000426917
0.000410427
0.000433923
0.000488108
0.000601961
0.000708787
0.00082064
0.00091305
0.00100571
0.00112194
0.00127386
0.00147162
0.00171631
0.00201112
0.00235189
0.00273044
0.00315991
0.00361936
0.00403972
0.00424588
0.00432573
0.00429615
0.00390905
0.00367874
0.00326493
0.00283434
0.00228242
0.00194342
0.00147138
0.00127404
0.0010684
0.000872925
0.000787039
0.00068313
0.000636241
0.000584903
0.000553197
0.000519673
0.000501371
0.000494178
0.000496192
0.000529921
0.00057362
0.000597811
0.000602466
0.000587259
0.00056905
0.000533169
0.0004908
0.000469079
0.00045256
0.000436258
0.000423192
0.000401757
0.000358549
0.000298266
0.000236102
0.000189469
0.000155189
0.000131877
0.000117055
0.000107795
0.000101693
9.72235e-05
9.35508e-05
8.95322e-05
8.48481e-05
7.88566e-05
7.28777e-05
6.8597e-05
6.56341e-05
6.34988e-05
6.17934e-05
6.01745e-05
5.85675e-05
5.69493e-05
5.53612e-05
5.39421e-05
5.26766e-05
5.11037e-05
4.86778e-05
4.55818e-05
4.25972e-05
4.01749e-05
3.84173e-05
3.72044e-05
3.62403e-05
3.49279e-05
3.24843e-05
2.84082e-05
2.31256e-05
1.77877e-05
1.31448e-05
9.34682e-06
6.4068e-06
4.2454e-06
2.73193e-06
1.71965e-06
1.0712e-06
6.72384e-07
4.36131e-07
3.00308e-07
2.22652e-07
1.77443e-07
1.51152e-07
1.36025e-07
1.2473e-07
1.12682e-07
9.91852e-08
8.50569e-08
7.11402e-08
5.81233e-08
4.64644e-08
3.63972e-08
2.79728e-08
2.11136e-08
1.56636e-08
1.1428e-08
8.20293e-09
5.79423e-09
4.02806e-09
2.75592e-09
1.85553e-09
1.22922e-09
8.01028e-10
5.13348e-10
3.2344e-10
2.00288e-10
1.21854e-10
7.28088e-11
4.2709e-11
2.45851e-11
1.38832e-11
7.68695e-12
4.17242e-12
2.21999e-12
1.15647e-12
5.88194e-13
2.98236e-13
1.44033e-13
6.53142e-14
3.12536e-14
3.75035e-14
4.61749e-14
7.04132e-14
1.39737e-13
1.93558e-13
3.78548e-13
2.06987e-05
6.03707e-05
0.000126052
0.000257419
0.000363084
0.000493245
0.000679545
0.000988017
0.00150153
0.00226689
0.00346954
0.00530192
0.00754733
0.00954681
0.0112651
0.0133922
0.0149979
0.01555
0.0154285
0.0134737
0.0103984
0.00629781
0.00397495
0.00322689
0.00309863
0.00324774
0.00326234
0.0022097
0.00106667
0.000616055
0.00045243
0.00039974
0.000388247
0.000416353
0.000469086
0.000569107
0.000711612
0.000857089
0.001022
0.00118569
0.0014026
0.0016359
0.0019173
0.00231066
0.0029456
0.00368821
0.00461929
0.00578689
0.00709124
0.00845949
0.00965383
0.010276
0.0105154
0.0104601
0.00940229
0.00862692
0.00717542
0.00611558
0.0049161
0.00406529
0.00302631
0.00232322
0.00193956
0.00142422
0.00120069
0.000959328
0.00080222
0.000688631
0.000612368
0.000556115
0.000507684
0.000481046
0.000467987
0.000462509
0.000467938
0.000503956
0.000551348
0.000564197
0.000561435
0.000528188
0.000484668
0.000464225
0.000454061
0.000450773
0.000456356
0.000463948
0.000467597
0.000463699
0.000437424
0.000373074
0.000285285
0.000205325
0.000153411
0.000121721
0.000104846
9.61617e-05
9.12804e-05
8.84298e-05
8.56903e-05
8.18627e-05
7.6998e-05
7.11404e-05
6.64125e-05
6.32748e-05
6.12592e-05
5.99187e-05
5.85688e-05
5.71387e-05
5.56593e-05
5.41924e-05
5.28381e-05
5.16426e-05
5.0317e-05
4.8335e-05
4.54764e-05
4.23271e-05
3.95864e-05
3.7552e-05
3.6235e-05
3.54333e-05
3.47975e-05
3.38262e-05
3.17792e-05
2.78383e-05
2.25703e-05
1.71856e-05
1.24998e-05
8.70191e-06
5.81258e-06
3.73725e-06
2.32261e-06
1.40345e-06
8.32183e-07
4.91643e-07
2.9644e-07
1.88331e-07
1.29584e-07
9.73488e-08
7.97433e-08
7.08465e-08
6.55099e-08
5.99661e-08
5.32423e-08
4.57969e-08
3.82231e-08
3.10266e-08
2.45503e-08
1.89745e-08
1.43486e-08
1.06306e-08
7.72445e-09
5.50921e-09
3.85907e-09
2.65602e-09
1.79661e-09
1.19455e-09
7.80729e-10
5.01542e-10
3.16639e-10
1.96418e-10
1.19686e-10
7.16185e-11
4.20708e-11
2.42526e-11
1.37153e-11
7.60599e-12
4.13468e-12
2.20257e-12
1.14965e-12
5.86932e-13
2.93916e-13
1.44179e-13
6.94347e-14
3.12481e-14
1.45256e-14
9.59654e-15
9.62254e-15
1.27158e-14
2.16657e-14
6.34635e-14
3.04068e-05
5.51231e-05
0.000131843
0.000247748
0.000354379
0.000480746
0.000672413
0.000981355
0.00143071
0.00201709
0.00286994
0.00421897
0.00593627
0.00744331
0.0085001
0.00958174
0.0101775
0.0103928
0.00971258
0.00763598
0.00563297
0.00407166
0.00342178
0.00315158
0.00303582
0.00284205
0.00184493
0.000929532
0.000555354
0.000417837
0.000373826
0.000365
0.000392592
0.000451713
0.000572275
0.000731865
0.000867446
0.0010344
0.001212
0.00144513
0.00180492
0.00227389
0.00299465
0.00406939
0.00527883
0.00696869
0.00939373
0.0122887
0.0154751
0.0185395
0.0207474
0.0217953
0.0221256
0.0213089
0.0194428
0.0169014
0.0138758
0.0108372
0.00861384
0.00636058
0.00502878
0.00365453
0.00297579
0.00223507
0.00179994
0.00147345
0.00120768
0.0009912
0.000799566
0.000676877
0.000587688
0.000521258
0.000473973
0.000449273
0.000435679
0.000429581
0.000433157
0.000451375
0.000449835
0.000435088
0.000402431
0.00038321
0.000373536
0.000372817
0.000385084
0.000411526
0.000447106
0.000476551
0.000496698
0.000500446
0.000481662
0.000412648
0.000294743
0.000191898
0.000135243
0.000105488
9.16815e-05
8.53693e-05
8.23454e-05
8.09952e-05
7.83317e-05
7.4331e-05
6.90412e-05
6.39567e-05
6.052e-05
5.84381e-05
5.74859e-05
5.661e-05
5.55255e-05
5.42472e-05
5.2898e-05
5.16115e-05
5.0402e-05
4.907e-05
4.72509e-05
4.46645e-05
4.16124e-05
3.87854e-05
3.66057e-05
3.51743e-05
3.43621e-05
3.38747e-05
3.33592e-05
3.24427e-05
3.04787e-05
2.62563e-05
2.07701e-05
1.54246e-05
1.08963e-05
7.34396e-06
4.73926e-06
2.93973e-06
1.76029e-06
1.02287e-06
5.81122e-07
3.26743e-07
1.85621e-07
1.09943e-07
7.03147e-08
4.99116e-08
3.98117e-08
3.53457e-08
3.30929e-08
3.07374e-08
2.75531e-08
2.37499e-08
1.9733e-08
1.58556e-08
1.23738e-08
9.40768e-09
6.98266e-09
5.06734e-09
3.59975e-09
2.50556e-09
1.71002e-09
1.14503e-09
7.52532e-10
4.85567e-10
3.07644e-10
1.91397e-10
1.16917e-10
7.0115e-11
4.12709e-11
2.38375e-11
1.35062e-11
7.50453e-12
4.08774e-12
2.18206e-12
1.14119e-12
5.84481e-13
2.93113e-13
1.43929e-13
6.92833e-14
3.26376e-14
1.49878e-14
6.70792e-15
3.34872e-15
2.75465e-15
3.11234e-15
8.58461e-15
6.14475e-05
5.41577e-05
0.000113062
0.000219588
0.00031258
0.000419674
0.000575655
0.000876958
0.00134804
0.00184928
0.00232127
0.00295499
0.00399109
0.00513307
0.00579819
0.00620094
0.00636409
0.00633717
0.00562376
0.00477162
0.00386371
0.00335816
0.00303985
0.00276816
0.00234618
0.00147195
0.000793967
0.000502061
0.000388556
0.00035168
0.000344284
0.000364032
0.00040827
0.000498401
0.00064832
0.00078119
0.0009378
0.0011441
0.00142619
0.00192672
0.00267805
0.00364306
0.00492114
0.0065532
0.0091145
0.0132064
0.0189114
0.0258122
0.0329943
0.039047
0.04377
0.0463858
0.0474068
0.0463821
0.0419045
0.0360483
0.0291192
0.0213195
0.0154126
0.010501
0.00705092
0.00513667
0.00355458
0.00262726
0.00204079
0.0016412
0.00139196
0.00121621
0.00105053
0.000881469
0.00072472
0.000594022
0.000506527
0.00044895
0.000417834
0.000397021
0.000376777
0.00035646
0.000339197
0.000317535
0.000294975
0.000271087
0.000248194
0.000228354
0.000214675
0.00021293
0.000233886
0.000300763
0.000401131
0.0004855
0.000514097
0.000507989
0.000469534
0.000365927
0.000237223
0.000152062
0.000108462
8.84964e-05
8.01115e-05
7.61967e-05
7.51673e-05
7.43239e-05
7.1279e-05
6.66933e-05
6.15717e-05
5.7733e-05
5.54291e-05
5.46348e-05
5.42196e-05
5.35679e-05
5.26361e-05
5.15031e-05
5.02906e-05
4.90177e-05
4.75501e-05
4.56783e-05
4.32208e-05
4.03266e-05
3.75395e-05
3.533e-05
3.38544e-05
3.30506e-05
3.26711e-05
3.2367e-05
3.1851e-05
3.08063e-05
2.84276e-05
2.34907e-05
1.78111e-05
1.27239e-05
8.62923e-06
5.58209e-06
3.4593e-06
2.06221e-06
1.18739e-06
6.63397e-07
3.6192e-07
1.94807e-07
1.05365e-07
5.90509e-08
3.57076e-08
2.39884e-08
1.81799e-08
1.57158e-08
1.49812e-08
1.46259e-08
1.38652e-08
1.19732e-08
9.77333e-09
7.72165e-09
5.91796e-09
4.41375e-09
3.20938e-09
2.27808e-09
1.58021e-09
1.07219e-09
7.12201e-10
4.63459e-10
2.95623e-10
1.8491e-10
1.13447e-10
6.82793e-11
4.03141e-11
2.33487e-11
1.3263e-11