/*--------------------------------*- C++ -*----------------------------------*\
  =========                 |
  \\      /  F ield         | OpenFOAM: The Open Source CFD Toolbox
   \\    /   O peration     | Website:  https://openfoam.org
    \\  /    A nd           | Version:  7
     \\/     M anipulation  |
\*---------------------------------------------------------------------------*/
FoamFile
{
    version     2.0;
    format      ascii;
    class       volScalarField;
    location    "0.048";
    object      p;
}
// * * * * * * * * * * * * * * * * * * * * * * * * * * * * * * * * * * * * * //

dimensions      [0 2 -2 0 0 0 0];

internalField   nonuniform List<scalar> 
12225
(
54.1909
49.5311
47.4335
46.0942
45.1491
44.4116
43.7656
43.1551
42.5793
42.0511
41.5668
41.1134
40.6849
40.285
39.9118
39.5546
39.1892
38.8223
53.8543
49.4035
47.3857
46.0788
45.1372
44.3995
43.7541
43.145
42.5714
42.0468
41.5658
41.114
40.6857
40.2861
39.9147
39.5601
39.2029
38.8617
52.9106
49.0907
47.2607
46.0337
45.1107
44.3748
43.732
43.1305
42.5648
42.0445
41.5649
41.1145
40.6894
40.2922
39.9217
39.5672
39.2183
38.875
51.1826
48.675
47.1032
45.9772
45.0807
44.3492
43.71
43.1161
42.5575
42.0403
41.5621
41.1142
40.6924
40.2967
39.9266
39.574
39.2315
38.8995
49.5796
48.1546
46.8832
45.8798
45.0331
44.3168
43.6837
43.0965
42.5444
42.0312
41.5555
41.1105
40.6919
40.2987
39.9304
39.581
39.2456
38.9262
48.5394
47.6205
46.6305
45.7628
44.9756
44.2781
43.6522
43.0729
42.529
42.021
41.5481
41.1058
40.6902
40.2998
39.9336
39.5878
39.2598
38.9525
47.4648
47.0504
46.3493
45.6214
44.9055
44.2368
43.6214
43.0489
42.5111
42.0069
41.5366
41.0972
40.6851
40.2979
39.9348
39.5937
39.2738
38.9771
46.3033
46.4989
46.0557
45.4639
44.8233
44.1862
43.5818
43.0162
42.4855
41.987
41.5207
41.0852
40.6773
40.2943
39.9353
39.5993
39.2862
38.9972
45.6039
45.9676
45.7534
45.2995
44.7353
44.1336
43.5436
42.986
42.4613
41.9667
41.5032
41.0704
40.6656
40.2861
39.9311
39.6001
39.2937
39.0117
45.6118
45.4888
45.4779
45.1474
44.65
44.0797
43.5006
42.9464
42.4252
41.9353
41.4767
41.0489
40.6493
40.2753
39.9257
39.6006
39.2996
39.0224
43.852
44.9619
45.2353
45.0159
44.5661
44.0194
43.4524
42.9062
42.3908
41.9049
41.4492
41.0241
40.6271
40.2564
39.9112
39.591
39.2952
39.0225
42.8527
44.5704
45.0778
44.9346
44.5129
43.979
43.4149
42.8669
42.3485
41.8633
41.4113
40.9912
40.6006
40.2362
39.8965
39.5807
39.2884
39.0177
42.3324
44.347
45.018
44.908
44.4762
43.933
43.3673
42.8193
42.3042
41.8227
41.3738
40.9569
40.5691
40.2076
39.8714
39.5595
39.2707
39.0033
40.5175
44.353
45.141
44.9596
44.476
43.9066
43.3247
42.7654
42.2429
41.7596
41.314
40.9026
40.5217
40.1674
39.8379
39.5313
39.2463
38.9801
43.4966
45.4451
45.6195
45.1643
44.5228
43.8728
43.2553
42.6808
42.1549
41.6749
41.2346
40.8287
40.4528
40.1037
39.7797
39.4786
39.1985
38.9369
47.9917
47.6358
46.5802
45.5485
44.6288
43.8508
43.1723
42.5692
42.034
41.5548
41.1204
40.7233
40.3575
40.0186
39.7034
39.4095
39.1345
38.8755
57.4322
50.9313
47.7448
45.9073
44.6443
43.7129
42.972
42.3552
41.8271
41.361
40.9409
40.5582
40.2065
39.8809
39.5782
39.2956
39.0304
38.78
57.7043
51.2911
47.7566
45.6487
44.2914
43.3351
42.5981
42.0043
41.5081
41.0746
40.685
40.3304
40.004
39.7002
39.415
39.1464
38.8925
38.6515
50.0244
47.2682
45.2708
43.9208
43.0086
42.3474
41.8098
41.3581
40.9682
40.6156
40.2884
39.9832
39.697
39.4262
39.1685
38.9228
38.6884
38.4634
43.5117
41.9733
41.7073
41.5511
41.3609
41.1346
40.8839
40.6294
40.3799
40.1332
39.8884
39.6472
39.4112
39.1806
38.9552
38.7357
38.5229
38.3164
30.3905
36.4216
38.7187
39.6961
40.0936
40.2119
40.1866
40.0844
39.9384
39.7647
39.5734
39.3734
39.1699
38.9654
38.7616
38.5597
38.3607
38.1652
28.892
34.736
37.3539
38.6473
39.2695
39.5576
39.6653
39.6632
39.5934
39.4815
39.3409
39.1804
39.0076
38.8272
38.6427
38.4569
38.2715
38.0877
33.3342
35.2647
37.1052
38.2306
38.8479
39.1823
39.3453
39.3884
39.3528
39.2679
39.1516
39.0136
38.8603
38.6952
38.5238
38.3489
38.1726
37.9963
32.7898
35.7161
37.2174
38.1086
38.6429
38.9682
39.1463
39.2106
39.1961
39.1309
39.0343
38.9149
38.7816
38.6247
38.4621
38.2948
38.1245
37.9528
35.1108
36.6431
37.5497
38.153
38.5687
38.8512
39.0156
39.0832
39.0776
39.0261
38.9408
38.8296
38.6937
38.5533
38.3993
38.2383
38.074
37.9082
36.0613
37.6135
37.954
38.2827
38.5926
38.8274
38.9661
39.018
39.0114
38.9643
38.8864
38.7824
38.6569
38.5185
38.3686
38.2114
38.05
37.8861
40.1016
38.6357
38.2614
38.3645
38.6048
38.8017
38.9187
38.9675
38.9641
38.9215
38.8473
38.7463
38.6242
38.4878
38.3406
38.1861
38.0271
37.8658
42.0064
39.4434
38.5341
38.4675
38.6485
38.8097
38.9044
38.9441
38.9407
38.9004
38.8282
38.7293
38.6093
38.4744
38.3289
38.176
38.0183
37.858
43.2357
39.7992
38.6482
38.5241
38.6671
38.805
38.8897
38.9285
38.9274
38.8886
38.8164
38.717
38.5971
38.4629
38.3185
38.1668
38.0097
37.85
44.1535
39.9737
38.6963
38.5681
38.6875
38.8098
38.8873
38.9236
38.9229
38.8854
38.8145
38.7156
38.5956
38.4611
38.3167
38.1654
38.0091
37.8504
32.7931
32.8031
32.8132
32.8041
32.7673
32.7014
32.6074
32.4882
32.3464
32.1851
32.0083
31.8208
31.6294
31.4425
31.2702
31.1236
31.0135
30.9493
30.9359
30.9734
31.0576
31.179
31.3223
31.4662
31.5943
31.6757
31.7129
31.6976
31.6046
31.5836
31.5259
31.4043
31.4426
31.3624
31.2114
31.0934
31.0602
31.23
31.538
31.5485
31.1976
30.5457
29.7181
28.8021
27.8587
26.9279
26.0362
25.2013
24.4357
23.7486
23.1474
22.6377
22.2234
21.9067
21.6876
21.5637
21.5308
21.584
21.7169
21.921
22.1856
22.4999
22.8535
23.236
23.6377
24.0493
24.4625
24.8702
25.2666
25.6482
26.0135
26.3636
26.7021
27.0348
27.3697
27.7164
28.085
28.4827
28.9102
29.3621
29.8277
30.2946
30.7506
31.1855
31.5919
31.9654
32.3039
32.6066
32.8729
33.1027
33.2959
33.4527
33.5734
33.659
33.7105
33.7286
33.7167
33.6774
33.6135
33.528
33.424
33.3043
33.1716
33.0282
32.8761
32.7171
32.5526
32.3837
32.2115
32.0366
31.8597
31.6813
31.5016
31.3212
31.1401
30.9585
30.7768
30.5949
30.413
30.2311
30.0493
29.8675
29.6858
29.504
29.3221
29.1401
28.9579
28.7754
28.5925
28.4092
28.2253
28.0408
27.8556
27.6697
27.483
27.2954
27.1069
26.9174
26.7269
26.5352
26.3424
26.1483
25.9529
25.7562
25.5581
25.3585
25.1574
24.9547
24.7505
24.5447
24.3373
24.1282
23.9175
23.7051
23.491
23.2751
23.0575
22.8382
22.6172
22.3944
22.1699
21.9437
21.7159
21.4865
21.2554
21.0229
20.789
20.5537
20.3173
20.0799
19.8417
19.6032
19.3646
19.1267
18.89
18.6557
18.4249
18.1986
17.9817
17.7627
32.7578
32.7644
32.7624
32.7393
32.6908
32.6166
32.5173
32.394
32.2481
32.0817
31.8977
31.701
31.4982
31.2982
31.1115
30.9493
30.8228
30.7421
30.715
30.7448
30.8291
30.959
31.1188
31.2879
31.4474
31.5706
31.6516
31.6838
31.651
31.6278
31.5631
31.3788
31.2638
31.2601
31.3149
31.1717
30.781
30.6767
30.8025
30.7401
30.3805
29.7662
28.9978
28.1488
27.2734
26.4062
25.5711
24.7845
24.0589
23.4042
22.8298
22.3431
21.9499
21.6538
21.4563
21.3562
21.3493
21.4282
21.584
21.8073
22.0887
22.4184
22.7858
23.1808
23.5936
24.015
24.4369
24.8519
25.2542
25.6396
26.0064
26.3549
26.6886
27.0131
27.3371
27.6714
28.028
28.4169
28.8404
29.2924
29.7609
30.2319
30.6923
31.1317
31.5425
31.9203
32.2632
32.5703
32.841
33.0751
33.2724
33.4331
33.5574
33.646
33.6997
33.72
33.7097
33.6716
33.6084
33.5235
33.4199
33.3004
33.1679
33.0246
32.8727
32.7138
32.5495
32.3808
32.2087
32.034
31.8573
31.679
31.4995
31.3191
31.1381
30.9567
30.7751
30.5933
30.4114
30.2296
30.0478
29.8661
29.6845
29.5028
29.3211
29.1392
28.9571
28.7747
28.5919
28.4086
28.2248
28.0403
27.8552
27.6694
27.4827
27.2952
27.1067
26.9173
26.7267
26.5351
26.3423
26.1482
25.9528
25.7561
25.558
25.3584
25.1573
24.9547
24.7505
24.5447
24.3373
24.1283
23.9175
23.7051
23.491
23.2751
23.0575
22.8382
22.6171
22.3943
22.1699
21.9437
21.7158
21.4863
21.2553
21.0227
20.7887
20.5533
20.3168
20.0793
19.841
19.6022
19.3634
19.125
18.8878
18.6526
18.4209
18.1922
17.9731
17.7488
32.7109
32.7077
32.6845
32.6402
32.5746
32.4869
32.3761
32.2412
32.0821
31.8995
31.6956
31.4748
31.2444
31.0147
30.7986
30.611
30.4662
30.3765
30.3494
30.3878
30.4901
30.6462
30.8398
31.0522
31.2687
31.4799
31.6617
31.8099
31.924
31.9681
31.8164
31.8382
31.6869
31.3109
31.1201
30.9433
30.6534
30.3363
30.0223
29.6521
29.1766
28.5922
27.9215
27.1916
26.4301
25.6598
24.9011
24.1725
23.4909
22.8713
22.3263
21.8661
21.4989
21.23
21.0624
20.9945
21.0209
21.1332
21.3229
21.5801
21.8941
22.2538
22.6486
23.0679
23.5023
23.9428
24.3814
24.8108
25.2248
25.6184
25.9886
26.3351
26.6601
26.9691
27.2716
27.5808
27.9125
28.2814
28.6941
29.1444
29.6175
30.0962
30.5655
31.0143
31.4348
31.8223
32.1749
32.4917
32.7719
33.0152
33.2212
33.3899
33.5214
33.6164
33.6745
33.6992
33.6922
33.6564
33.595
33.5113
33.4085
33.2897
33.1577
33.0149
32.8634
32.705
32.5411
32.3729
32.2013
32.027
31.8507
31.6729
31.4938
31.3138
31.1332
30.9521
30.7708
30.5893
30.4077
30.2262
30.0447
29.8633
29.6819
29.5004
29.319
29.1373
28.9555
28.7733
28.5907
28.4077
28.2241
28.0398
27.8548
27.6691
27.4825
27.2951
27.1067
26.9173
26.7268
26.5352
26.3424
26.1483
25.9529
25.7562
25.5581
25.3585
25.1574
24.9548
24.7506
24.5448
24.3374
24.1283
23.9176
23.7051
23.491
23.2751
23.0575
22.8381
22.6171
22.3942
22.1697
21.9435
21.7156
21.486
21.2549
21.0222
20.788
20.5525
20.3158
20.0779
19.8392
19.5999
19.3604
19.121
18.8826
18.6451
18.4107
18.1769
17.9505
17.7152
32.6468
32.6303
32.5884
32.5263
32.4443
32.3402
32.2113
32.0552
31.8703
31.6562
31.4142
31.1486
30.8681
30.5859
30.3193
30.088
29.9116
29.8061
29.782
29.8436
29.9883
30.2015
30.462
30.7482
31.0365
31.3097
31.5795
31.8021
31.944
32.0887
31.9181
31.6736
31.4737
31.1791
30.823
30.4417
30.0299
29.5986
29.1344
28.6315
28.0853
27.4934
26.8572
26.183
25.4825
24.77
24.0619
23.3755
22.7287
22.1387
21.6214
21.1904
20.8558
20.6234
20.496
20.4727
20.5439
20.7057
20.948
21.258
21.622
22.0273
22.4621
22.9163
23.3808
23.8475
24.3089
24.7581
25.1884
25.5941
25.9704
26.3151
26.6286
26.9153
27.1846
27.4528
27.7414
28.0739
28.4648
28.9099
29.3899
29.881
30.3645
30.8287
31.2653
31.6692
32.0381
32.3708
32.6663
32.9239
33.1433
33.3241
33.4664
33.5704
33.6366
33.6674
33.6652
33.633
33.5743
33.4925
33.3911
33.2735
33.1424
33.0005
32.8499
32.6923
32.5293
32.3619
32.191
32.0175
31.8419
31.6646
31.4861
31.3067
31.1265
30.9459
30.765
30.5838
30.4026
30.2214
30.0402
29.8591
29.678
29.4968
29.3157
29.1343
28.9528
28.7709
28.5885
28.4057
28.2223
28.0382
27.8534
27.6678
27.4814
27.2941
27.1058
26.9165
26.7261
26.5346
26.3418
26.1478
25.9525
25.7559
25.5578
25.3582
25.1572
24.9546
24.7505
24.5447
24.3373
24.1282
23.9175
23.7051
23.4909
23.275
23.0574
22.838
22.6169
22.3941
22.1695
21.9432
21.7153
21.4856
21.2544
21.0216
20.7873
20.5515
20.3145
20.0763
19.8372
19.5972
19.357
19.1164
18.8764
18.6366
18.399
18.1607
17.9264
17.6821
32.5721
32.5455
32.4924
32.4175
32.3199
32.1961
32.0423
31.8545
31.6295
31.3656
31.0633
30.7271
30.3681
30.0052
29.6631
29.3698
29.1525
29.0306
29.0162
29.1161
29.3246
29.6161
29.958
30.3232
30.6929
31.0434
31.3458
31.5884
31.7729
31.8178
31.7193
31.4543
31.0988
30.6836
30.2164
29.7155
29.204
28.6906
28.1677
27.6253
27.0579
26.4626
25.8376
25.184
24.5077
23.819
23.132
22.4639
21.8339
21.2617
20.7662
20.3633
20.0631
19.8711
19.7905
19.8225
19.9664
20.2054
20.5226
20.9018
21.3284
21.7889
22.2716
22.7664
23.2648
23.7595
24.244
24.7122
25.1578
25.5745
25.956
26.2979
26.5977
26.8566
27.0824
27.2946
27.522
27.7996
28.1558
28.5912
29.0801
29.5872
30.0886
30.5719
31.0296
31.4563
31.8485
32.204
32.5212
32.799
33.0368
33.2342
33.3912
33.5078
33.5846
33.6239
33.6281
33.6008
33.5455
33.4662
33.3667
33.2506
33.1208
32.9801
32.8307
32.6744
32.5126
32.3464
32.1768
32.0044
31.8298
31.6534
31.4757
31.2969
31.1174
30.9374
30.7569
30.5763
30.3955
30.2147
30.0339
29.8532
29.6725
29.4918
29.311
29.13
28.9489
28.7673
28.5853
28.4028
28.2197
28.0359
27.8514
27.6661
27.4799
27.2927
27.1046
26.9155
26.7252
26.5338
26.3412
26.1473
25.952
25.7554
25.5574
25.3579
25.1569
24.9544
24.7503
24.5446
24.3372
24.1282
23.9174
23.705
23.4909
23.275
23.0573
22.8379
22.6168
22.3939
22.1693
21.943
21.7149
21.4852
21.2538
21.0209
20.7864
20.5504
20.3131
20.0745
19.8348
19.5942
19.353
19.1112
18.8695
18.6275
18.3863
18.1437
17.9016
17.6503
32.5238
32.4919
32.433
32.3483
32.2355
32.09
31.9065
31.6788
31.4016
31.0712
30.6874
30.2553
29.7909
29.3215
28.883
28.5148
28.2518
28.1182
28.1261
28.2777
28.5563
28.9284
29.358
29.8031
30.2186
30.5787
30.8862
31.1147
31.2261
31.2178
31.0721
30.7929
30.4086
29.9467
29.4344
28.8945
28.3486
27.8069
27.269
26.7247
26.1624
25.5722
24.9502
24.2968
23.6175
22.9224
22.2267
21.5495
20.9128
20.3396
19.8516
19.4673
19.2009
19.0615
19.0499
19.1581
19.374
19.6861
20.0778
20.5306
21.0264
21.549
22.085
22.6238
23.1572
23.6788
24.1834
24.6662
25.1223
25.5463
25.932
26.2726
26.5621
26.7982
26.9878
27.1491
27.3159
27.5323
27.8417
28.2555
28.7447
29.2605
29.7716
30.2679
30.7441
31.1948
31.614
31.9968
32.3402
32.6421
32.9021
33.1199
33.2952
33.4274
33.518
33.5683
33.5809
33.5596
33.5087
33.4326
33.3355
33.2212
33.0931
32.954
32.8062
32.6515
32.4913
32.3268
32.1588
31.9879
31.8148
31.6397
31.4631
31.2854
31.1066
30.9273
30.7474
30.5673
30.387
30.2066
30.0263
29.846
29.6658
29.4855
29.3052
29.1247
28.944
28.7629
28.5813
28.3992
28.2165
28.033
27.8488
27.6637
27.4777
27.2908
27.1029
26.9139
26.7238
26.5326
26.3401
26.1463
25.9512
25.7547
25.5568
25.3574
25.1565
24.954
24.75
24.5443
24.337
24.128
23.9173
23.7049
23.4908
23.2749
23.0572
22.8378
22.6167
22.3937
22.1691
21.9427
21.7146
21.4847
21.2532
21.0201
20.7854
20.5492
20.3115
20.0725
19.8322
19.5909
19.3487
19.1056
18.8622
18.6178
18.3733
18.1265
17.8779
17.6204
32.5502
32.516
32.4542
32.363
32.2386
32.0751
31.8651
31.6002
31.2725
30.8763
30.4109
29.8844
29.3202
28.7577
28.2452
27.8284
27.5468
27.4227
27.4621
27.6582
27.9811
28.3902
28.8433
29.2882
29.6919
30.0359
30.3023
30.4697
30.5296
30.4707
30.2877
29.9975
29.6132
29.1546
28.6481
28.1196
27.5887
27.0622
26.5357
25.9972
25.4323
24.8282
24.1797
23.4887
22.7634
22.0172
21.2685
20.54
19.8575
19.2484
18.7393
18.3531
18.1062
18.0069
18.0544
18.2415
18.5549
18.9731
19.4727
20.0292
20.6203
21.227
21.8347
22.4326
23.0129
23.5702
24.1001
24.5992
25.0641
25.4911
25.8759
26.2147
26.5041
26.7417
26.929
27.0789
27.2181
27.3941
27.6569
28.0304
28.4907
28.9878
29.4843
29.9723
30.4503
30.9142
31.3548
31.7631
32.1322
32.4589
32.7423
32.9821
33.1777
33.329
33.4358
33.4995
33.5226
33.509
33.4636
33.3913
33.2971
33.1852
33.0592
32.922
32.7761
32.6234
32.4652
32.3026
32.1366
31.9677
31.7963
31.623
31.4479
31.2715
31.0939
30.9154
30.7363
30.5567
30.377
30.1971
30.0172
29.8374
29.6576
29.4779
29.2981
29.1182
28.938
28.7574
28.5763
28.3947
28.2123
28.0293
27.8454
27.6607
27.475
27.2884
27.1007
26.912
26.7221
26.531
26.3387
26.1451
25.9502
25.7538
25.556
25.3568
25.156
24.9536
24.7496
24.544
24.3368
24.1278
23.9172
23.7048
23.4907
23.2748
23.0571
22.8377
22.6165
22.3936
22.1689
21.9424
21.7142
21.4842
21.2526
21.0193
20.7843
20.5478
20.3098
20.0703
19.8295
19.5874
19.3441
19.0998
18.8545
18.6079
18.3601
18.1094
17.8553
17.5927
32.6821
32.6483
32.5876
32.4954
32.3676
32.1972
31.9754
31.6924
31.3388
30.9075
30.3979
29.8216
29.2094
28.6083
28.0779
27.6633
27.3945
27.2896
27.3455
27.5426
27.8469
28.2194
28.6156
28.9943
29.3274
29.597
29.7906
29.8991
29.9095
29.8107
29.6055
29.304
28.9179
28.4695
27.9829
27.4813
26.9772
26.4695
25.9462
25.3901
24.7864
24.1266
23.4096
22.6399
21.8279
20.9901
20.1484
19.3295
18.5651
17.8894
17.3362
16.9333
16.6985
16.6418
16.7665
17.0619
17.502
18.0577
18.6973
19.3883
20.1018
20.8152
21.5133
22.1858
22.8267
23.4319
23.9986
24.5242
25.0061
25.4418
25.8291
26.1669
26.4554
26.6959
26.8926
27.0563
27.2087
27.3782
27.6028
27.9187
28.3195
28.7723
29.2379
29.7058
30.1742
30.6402
31.0935
31.5199
31.9088
32.2558
32.5599
32.8213
33.039
33.2115
33.3374
33.4169
33.4523
33.4481
33.4094
33.3421
33.2516
33.1426
33.0191
32.8844
32.7408
32.5904
32.4344
32.2742
32.1104
31.9437
31.7746
31.6032
31.4301
31.2553
31.0791
30.9019
30.7238
30.545
30.3659
30.1865
30.0071
29.8277
29.6484
29.4692
29.29
29.1106
28.931
28.751
28.5705
28.3893
28.2075
28.0249
27.8414
27.6571
27.4718
27.2855
27.0981
26.9096
26.72
26.5291
26.337
26.1436
25.9489
25.7527
25.5551
25.3559
25.1553
24.953
24.7492
24.5437
24.3365
24.1276
23.917
23.7047
23.4905
23.2747
23.057
22.8376
22.6164
22.3934
22.1686
21.9421
21.7137
21.4837
21.2519
21.0184
20.7832
20.5464
20.308
20.068
19.8266
19.5837
19.3394
19.0937
18.8466
18.5978
18.347
18.0928
17.834
17.567
32.9325
32.9004
32.8456
32.7595
32.6386
32.4755
32.2613
31.9859
31.6396
31.2141
30.7102
30.1402
29.5391
28.9571
28.4474
28.0561
27.812
27.7133
27.7505
27.9003
28.1313
28.4082
28.6954
28.9641
29.1955
29.3781
29.501
29.5482
29.5042
29.3635
29.1288
28.807
28.413
27.9688
27.4962
27.0123
26.5204
26.0111
25.466
24.8656
24.1974
23.4576
22.6488
21.7771
20.8531
19.8933
18.9225
17.9736
17.0867
16.3064
15.6774
15.2382
15.0168
15.0222
15.2411
15.6577
16.2482
16.9742
17.7907
18.6523
19.5196
20.3639
21.1677
21.9229
22.6272
23.2817
23.8877
24.4445
24.9501
25.4014
25.7965
26.1356
26.4218
26.6604
26.8594
27.0296
27.1862
27.3481
27.5447
27.8154
28.1659
28.5785
29.0184
29.4707
29.9318
30.398
30.8577
31.2922
31.688
32.0419
32.3568
32.635
32.8748
33.0716
33.2204
33.319
33.3694
33.3761
33.3455
33.2842
33.1983
33.0931
32.9728
32.8411
32.7004
32.5527
32.3994
32.2417
32.0805
31.9163
31.7495
31.5805
31.4094
31.2366
31.0622
30.8865
30.7097
30.532
30.3536
30.1749
29.996
29.8171
29.6382
29.4595
29.2808
29.102
28.923
28.7436
28.5637
28.3832
28.2019
28.0198
27.8368
27.6529
27.468
27.282
27.095
26.9068
26.7175
26.5269
26.335
26.1419
25.9473
25.7513
25.5539
25.355
25.1544
24.9524
24.7486
24.5432
24.3361
24.1273
23.9168
23.7045
23.4904
23.2746
23.0569
22.8375
22.6162
22.3932
22.1684
21.9417
21.7133
21.4831
21.2512
21.0175
20.7821
20.5449
20.3061
20.0657
19.8236
19.5799
19.3345
19.0875
18.8387
18.5878
18.3342
18.0768
17.8141
17.5432
33.2905
33.2671
33.2213
33.1483
33.0449
32.9038
32.7172
32.4758
32.1701
31.7919
31.3419
30.8314
30.2891
29.758
29.2856
28.9116
28.6614
28.5314
28.5109
28.5788
28.7091
28.8739
29.0476
29.211
29.3506
29.4525
29.499
29.4722
29.3622
29.1668
28.8885
28.5355
28.1238
27.6728
27.2005
26.7162
26.2155
25.6825
25.0947
24.4329
23.687
22.8552
21.9387
20.9405
19.8688
18.7415
17.5893
16.4544
15.389
14.4521
13.7034
13.1941
12.9588
13.0095
13.3348
13.9124
14.7031
15.653
16.7014
17.787
18.8562
19.8693
20.8056
21.6581
22.43
23.1299
23.7674
24.3485
24.8742
25.3417
25.7484
26.0937
26.3806
26.6153
26.8074
26.9704
27.1193
27.273
27.4567
27.7045
28.0266
28.4131
28.8366
29.2813
29.7415
30.2122
30.6795
31.1189
31.5114
31.8534
32.1572
32.4347
32.6873
32.907
33.082
33.2041
33.2725
33.2922
33.2711
33.217
33.1369
33.0364
32.9202
32.792
32.6547
32.5103
32.3602
32.2056
32.0472
31.8857
31.7215
31.5549
31.3863
31.2156
31.0432
30.8693
30.694
30.5176
30.3403
30.1625
29.9842
29.8058
29.6274
29.4491
29.2709
29.0926
28.9142
28.7355
28.5562
28.3763
28.1956
28.0141
27.8316
27.6481
27.4637
27.2781
27.0914
26.9036
26.7146
26.5243
26.3328
26.1398
25.9455
25.7498
25.5526
25.3538
25.1535
24.9516
24.748
24.5427
24.3358
24.127
23.9166
23.7043
23.4903
23.2745
23.0568
22.8374
22.6161
22.393
22.1681
21.9414
21.7129
21.4826
21.2505
21.0166
20.7809
20.5434
20.3042
20.0632
19.8205
19.576
19.3296
19.0813
18.8309
18.5779
18.3218
18.0614
17.7954
17.5213
33.7283
33.7116
33.6791
33.6246
33.5463
33.4383
33.2942
33.1065
32.8671
32.5685
32.2088
31.7949
31.3457
30.8925
30.4741
30.125
29.858
29.6803
29.5855
29.5596
29.5847
29.6413
29.711
29.7774
29.8232
29.8296
29.7796
29.6618
29.4715
29.208
28.8746
28.4809
28.0413
27.5721
27.0858
26.5844
26.0579
25.4852
24.8419
24.1087
23.2762
22.34
21.2961
20.1417
18.8827
17.541
16.1573
14.7875
13.4987
12.3651
11.4628
10.8564
10.5871
10.6722
11.1074
11.8613
12.88
14.0919
15.4167
16.7738
18.0915
19.316
20.4181
21.39
22.2402
22.9874
23.6513
24.2475
24.7842
25.2618
25.6775
26.0291
26.3184
26.5525
26.7425
26.902
27.0476
27.1996
27.381
27.6184
27.9206
28.2823
28.6865
29.1203
29.5784
30.0534
30.5279
30.975
31.3729
31.7114
31.9997
32.2583
32.5023
32.73
32.9258
33.0727
33.162
33.1967
33.186
33.1399
33.0666
32.972
32.8611
32.7374
32.604
32.4633
32.3168
32.1656
32.0105
31.852
31.6907
31.5268
31.3607
31.1924
31.0222
30.8502
30.6766
30.5017
30.3258
30.149
29.9717
29.794
29.6161
29.4383
29.2605
29.0827
28.9048
28.7267
28.548
28.3687
28.1887
28.0077
27.8258
27.6428
27.4588
27.2737
27.0875
26.9
26.7114
26.5214
26.3302
26.1376
25.9435
25.7481
25.5511
25.3526
25.1525
24.9507
24.7473
24.5422
24.3353
24.1267
23.9163
23.7042
23.4902
23.2744
23.0567
22.8373
22.616
22.3929
22.1679
21.9411
21.7125
21.482
21.2497
21.0156
20.7797
20.5419
20.3023
20.0608
19.8174
19.5721
19.3248
19.0752
18.8232
18.5683
18.3099
18.0469
17.7779
17.501
34.1998
34.1896
34.1709
34.1367
34.0858
34.0143
33.9173
33.7897
33.6256
33.4187
33.1649
32.8662
32.5323
32.1823
31.8404
31.5351
31.2748
31.0677
30.9139
30.8072
30.7367
30.6891
30.6494
30.6019
30.5305
30.4204
30.2608
30.0451
29.7698
29.4346
29.0438
28.6062
28.134
27.6394
27.1291
26.5998
26.037
25.417
24.7138
23.9076
22.9866
21.9419
20.763
19.4423
17.9849
16.4183
14.7951
13.1856
11.6704
10.3365
9.2739
8.56331
8.25508
8.36928
8.89983
9.81079
11.0388
12.4975
14.0882
15.7124
17.282
18.7293
20.0133
21.1185
22.0547
22.8512
23.541
24.1499
24.6925
25.1733
25.5925
25.9492
26.244
26.4819
26.673
26.8325
26.9765
27.1268
27.3062
27.5337
27.8176
28.1535
28.5297
28.9366
29.3752
29.8469
30.3367
30.8087
31.228
31.5792
31.8713
32.1224
32.3504
32.5671
32.7667
32.9299
33.0391
33.0903
33.0913
33.0538
32.9876
32.8998
32.7951
32.677
32.5484
32.4119
32.2693
32.1219
31.9704
31.8154
31.6572
31.4963
31.3329
31.1672
30.9993
30.8295
30.6578
30.4846
30.31
30.1345
29.9582
29.7814
29.6043
29.4271
29.2498
29.0725
28.895
28.7174
28.5393
28.3606
28.1812
28.0008
27.8194
27.637
27.4535
27.2689
27.0831
26.896
26.7078
26.5182
26.3273
26.135
25.9413
25.7461
25.5494
25.3512
25.1513
24.9497
24.7465
24.5416
24.3349
24.1264
23.9161
23.704
23.49
23.2743
23.0566
22.8372
22.6159
22.3927
22.1677
21.9408
21.7121
21.4815
21.249
21.0147
20.7785
20.5404
20.3004
20.0584
19.8144
19.5683
19.3199
19.0692
18.8157
18.559
18.2985
18.0332
17.7617
17.4823
34.664
34.6592
34.6519
34.636
34.6093
34.5698
34.5145
34.4401
34.3426
34.2176
34.0607
33.8699
33.6486
33.4066
33.1568
32.9051
32.6666
32.45
32.2583
32.0895
31.9375
31.7934
31.6467
31.4862
31.3013
31.083
30.8247
30.5217
30.1714
29.7741
29.3339
28.8582
28.3562
27.8357
27.2987
26.7384
26.1376
25.4715
24.7139
23.8433
22.8447
21.7046
20.4072
18.9419
17.3127
15.552
13.7222
11.9058
10.1959
8.6903
7.48848
6.68219
6.33211
6.46121
7.06892
8.11147
9.51195
11.17
12.9721
14.8066
16.5733
18.2001
19.6378
20.8618
21.8748
22.7137
23.4253
24.0453
24.593
25.0749
25.4909
25.8434
26.1396
26.3861
26.5891
26.757
26.9037
27.05
27.2205
27.4358
27.704
28.0191
28.3662
28.7358
29.1356
29.5825
30.0772
30.5851
31.0546
31.449
31.7641
32.0193
32.2365
32.4351
32.6228
32.7871
32.9076
32.9731
32.9867
32.959
32.9009
32.8204
32.7226
32.6109
32.488
32.3563
32.2179
32.0745
31.927
31.7757
31.621
31.4633
31.3028
31.1399
30.9745
30.807
30.6374
30.466
30.2931
30.1189
29.9438
29.7681
29.5919
29.4155
29.2388
29.062
28.8851
28.7079
28.5303
28.3521
28.1732
27.9934
27.8126
27.6307
27.4477
27.2636
27.0783
26.8917
26.7038
26.5147
26.3241
26.1322
25.9389
25.744
25.5476
25.3496
25.15
24.9487
24.7457
24.5409
24.3344
24.126
23.9158
23.7038
23.4899
23.2742
23.0566
22.8371
22.6158
22.3926
22.1675
21.9405
21.7117
21.481
21.2483
21.0138
20.7773
20.5389
20.2985
20.056
19.8114
19.5645
19.3152
19.0633
18.8085
18.5502
18.2878
18.0203
17.7466
17.4651
35.0956
35.0939
35.0935
35.0912
35.0826
35.0671
35.0428
35.0074
34.9584
34.893
34.8073
34.698
34.5602
34.3978
34.2159
34.0197
33.815
33.6065
33.3972
33.1876
32.9758
32.7574
32.5271
32.2789
32.0073
31.7071
31.3744
31.0059
30.6003
30.1585
29.6841
29.1822
28.6588
28.1176
27.5575
26.9704
26.3373
25.6344
24.8362
23.9198
22.8675
21.6629
20.2874
18.729
16.99
15.1053
13.1438
11.1962
9.36509
7.75735
6.47818
5.61742
5.24088
5.37839
6.03106
7.14596
8.63926
10.4023
12.3136
14.256
16.1206
17.8379
19.3551
20.6487
21.7096
22.5745
23.3012
23.9316
24.4845
24.9645
25.3717
25.711
25.9967
26.2454
26.4666
26.6631
26.8385
27.0041
27.1809
27.3919
27.6493
27.9475
28.2661
28.5923
28.9407
29.3457
29.8273
30.3586
30.8771
31.3243
31.676
31.9452
32.1573
32.3379
32.5059
32.6589
32.7787
32.8505
32.8733
32.8553
32.8063
32.7341
32.6441
32.5396
32.4231
32.2969
32.1632
32.0239
31.8804
31.7331
31.5821
31.4279
31.2705
31.1105
30.9479
30.7829
30.6156
30.4462
30.275
30.1024
29.9286
29.754
29.5788
29.4033
29.2275
29.0513
28.875
28.6982
28.5211
28.3434
28.165
27.9857
27.8054
27.624
27.4416
27.2579
27.0731
26.8869
26.6995
26.5108
26.3207
26.1292
25.9362
25.7417
25.5456
25.3479
25.1486
24.9476
24.7448
24.5402
24.3339
24.1256
23.9156
23.7036
23.4898
23.2741
23.0565
22.8371
22.6157
22.3924
22.1673
21.9403
21.7113
21.4805
21.2477
21.0129
20.7762
20.5374
20.2966
20.0536
19.8084
19.5609
19.3107
19.0577
18.8016
18.5418
18.2777
18.0083
17.7327
17.4493
35.4869
35.4846
35.4877
35.4933
35.4971
35.4974
35.4922
35.4804
35.4607
35.4312
35.3858
35.3221
35.2395
35.133
35.001
34.8445
34.6664
34.4692
34.2548
34.0238
33.776
33.5107
33.2262
32.9206
32.5919
32.2377
31.8558
31.445
31.0051
30.5375
30.0447
29.5297
28.9954
28.4425
27.867
27.2636
26.6089
25.8845
25.0654
24.1289
23.0553
21.8275
20.4282
18.8456
17.0818
15.1707
13.1803
11.2033
9.34564
7.71682
6.42188
5.54925
5.15817
5.28037
5.92529
7.03627
8.52483
10.2823
12.187
14.1214
15.9799
17.686
19.1998
20.5048
21.5818
22.4508
23.178
23.8163
24.3793
24.8591
25.2508
25.5642
25.8264
26.067
26.3034
26.5383
26.7658
26.9841
27.2037
27.4418
27.7108
28.0066
28.3058
28.5878
28.8717
29.2125
29.6521
30.1758
30.7194
31.209
31.597
31.8819
32.0925
32.2612
32.4114
32.5483
32.6593
32.7302
32.7573
32.7463
32.7053
32.6415
32.5597
32.4631
32.3537
32.2337
32.1053
31.9705
31.8311
31.6877
31.5408
31.3902
31.2362
31.0792
30.9195
30.7571
30.5923
30.4251
30.2559
30.0849
29.9125
29.7391
29.5651
29.3906
29.2157
29.0404
28.8647
28.6886
28.5119
28.3346
28.1566
27.9777
27.7979
27.617
27.435
27.2518
27.0675
26.8819
26.6949
26.5067
26.317
26.1259
25.9333
25.7392
25.5435
25.3462
25.1471
24.9464
24.7439
24.5395
24.3333
24.1253
23.9153
23.7035
23.4897
23.2741
23.0565
22.837
22.6157
22.3924
22.1671
21.94
21.711
21.48
21.247
21.0121
20.7751
20.536
20.2948
20.0514
19.8056
19.5574
19.3064
19.0524
18.7951
18.5339
18.2683
17.9973
17.7199
17.4349
35.8503
35.8451
35.848
35.8561
35.8649
35.8713
35.8746
35.8733
35.8651
35.848
35.823
35.7853
35.7312
35.6564
35.5571
35.43
35.2735
35.0876
34.8738
34.6335
34.3676
34.077
33.7622
33.4234
33.0607
32.6741
32.2635
31.8289
31.3711
30.8916
30.3921
29.8738
29.3377
28.7826
28.203
27.5897
26.9284
26.2003
25.3835
24.4563
23.3993
22.1961
20.8333
19.3018
17.6057
15.7746
13.8687
11.9735
10.1902
8.62397
7.37319
6.52152
6.12353
6.20748
6.78137
7.80217
9.18241
10.8167
12.5915
14.3989
16.1443
17.752
19.1858
20.4407
21.501
22.3614
23.0787
23.7182
24.2963
24.7846
25.1592
25.4327
25.6502
25.8619
26.098
26.3606
26.6381
26.9196
27.2033
27.4955
27.802
28.1188
28.4254
28.6944
28.9344
29.2064
29.5771
30.0554
30.5855
31.0883
31.5014
31.8042
32.019
32.1826
32.3212
32.4428
32.5412
32.6075
32.6375
32.6331
32.5997
32.5435
32.4694
32.3805
32.2786
32.1655
32.043
31.9134
31.7784
31.6393
31.4964
31.3497
31.1993
31.0455
30.8888
30.7293
30.5671
30.4024
30.2353
30.0661
29.8953
29.7233
29.5505
29.3771
29.2033
29.029
28.8542
28.6788
28.5026
28.3258
28.1481
27.9695
27.7901
27.6096
27.428
27.2454
27.0615
26.8764
26.69
26.5022
26.313
26.1223
25.9302
25.7365
25.5412
25.3442
25.1456
24.9451
24.7429
24.5388
24.3328
24.1249
23.9151
23.7034
23.4897
23.2741
23.0565
22.8371
22.6157
22.3923
22.1671
21.9399
21.7107
21.4796
21.2464
21.0113
20.7741
20.5347
20.2932
20.0493
19.803
19.5541
19.3023
19.0474
18.789
18.5266
18.2596
17.9871
17.7082
17.4217
36.1652
36.1603
36.1645
36.1732
36.1814
36.188
36.1908
36.1882
36.1799
36.1653
36.1429
36.1106
36.0652
36.0026
35.9182
35.8077
35.6673
35.4945
35.2883
35.0491
34.7781
34.477
34.1474
33.791
33.4099
33.0055
32.5795
32.1333
31.6683
31.1858
30.6868
30.1717
29.6403
29.0901
28.5152
27.9072
27.254
26.5398
25.7466
24.8555
23.8492
22.7138
21.4393
20.0213
18.4665
16.8002
15.0711
13.3506
11.7259
10.2904
9.13187
8.32528
7.922
7.94707
8.40645
9.2684
10.4562
11.8744
13.4222
15.0071
16.5533
17.9958
19.298
20.4603
21.475
22.3155
23.0164
23.6532
24.252
24.7595
25.1164
25.3287
25.4723
25.6347
25.8641
26.1539
26.474
26.7964
27.1116
27.4331
27.7821
28.1573
28.5204
28.822
29.0638
29.3091
29.6254
30.0352
30.5098
30.985
31.3937
31.7039
31.9272
32.0943
32.2294
32.341
32.4278
32.4869
32.5173
32.5193
32.4944
32.4462
32.3791
32.2969
32.2016
32.0949
31.9785
31.8543
31.7242
31.5894
31.4506
31.308
31.1613
31.0109
30.8571
30.7004
30.5409
30.3787
30.2139
30.0467
29.8776
29.7071
29.5356
29.3634
29.1906
29.0174
28.8436
28.669
28.4935
28.3171
28.1398
27.9615
27.7823
27.6021
27.4209
27.2386
27.0552
26.8706
26.6847
26.4974
26.3087
26.1186
25.9269
25.7336
25.5388
25.3422
25.1439
24.9438
24.7418
24.538
24.3322
24.1245
23.9149
23.7033
23.4897
23.2741
23.0566
22.8371
22.6157
22.3923
22.167
21.9397
21.7104
21.4792
21.2459
21.0106
20.7731
20.5335
20.2916
20.0473
19.8005
19.5509
19.2985
19.0428
18.7834
18.5199
18.2516
17.9778
17.6975
17.4098
36.4079
36.4099
36.4229
36.4349
36.4361
36.4329
36.4279
36.4206
36.4088
36.3918
36.3683
36.3365
36.2934
36.2356
36.1585
36.0576
35.9285
35.7667
35.5699
35.3372
35.0691
34.7665
34.4316
34.0649
33.6719
33.255
32.8172
32.3614
31.89
31.4048
30.907
30.3966
29.8723
29.331
28.7672
28.173
27.5375
26.8475
26.088
25.2436
24.3001
23.2459
22.0739
20.7832
19.3826
17.8948
16.3595
14.8348
13.3924
12.1115
11.0674
10.3245
9.92813
9.89955
10.242
10.9304
11.9028
13.0794
14.3764
15.718
17.0461
18.3088
19.4703
20.5315
21.4917
22.3119
22.9936
23.6152
24.2278
24.7604
25.1072
25.249
25.2934
25.3816
25.5991
25.9303
26.3137
26.6946
27.0454
27.3765
27.7249
28.1194
28.5345
28.8989
29.1797
29.4305
29.7191
30.0708
30.4804
30.9115
31.3012
31.6074
31.8338
32.005
32.1406
32.2484
32.3294
32.3838
32.4125
32.4165
32.3968
32.3552
32.2947
32.2187
32.1292
32.0279
31.9166
31.7974
31.6717
31.5411
31.4062
31.2673
31.1243
30.9772