/*--------------------------------*- C++ -*----------------------------------*\
  =========                 |
  \\      /  F ield         | OpenFOAM: The Open Source CFD Toolbox
   \\    /   O peration     | Website:  https://openfoam.org
    \\  /    A nd           | Version:  7
     \\/     M anipulation  |
\*---------------------------------------------------------------------------*/
FoamFile
{
    version     2.0;
    format      ascii;
    class       surfaceScalarField;
    location    "0.048";
    object      phi;
}
// * * * * * * * * * * * * * * * * * * * * * * * * * * * * * * * * * * * * * //

dimensions      [0 3 -1 0 0 0 0];

internalField   nonuniform List<scalar> 
24170
(
1.38788e-06
2.1414e-07
1.24486e-06
1.43018e-07
1.11216e-06
1.32701e-07
1.00072e-06
1.11441e-07
9.01422e-07
9.92979e-08
8.01932e-07
9.94894e-08
6.98958e-07
1.02975e-07
5.99085e-07
9.98727e-08
5.09434e-07
8.9651e-08
4.31856e-07
7.75777e-08
3.65065e-07
6.67912e-08
3.07487e-07
5.75779e-08
2.5836e-07
4.91267e-08
2.17267e-07
4.10933e-08
1.83021e-07
3.42463e-08
1.53654e-07
2.93668e-08
1.27038e-07
2.66156e-08
1.2953e-08
1.14085e-07
1.65296e-06
2.82122e-07
1.62694e-06
1.69037e-07
1.59044e-06
1.69203e-07
1.5521e-06
1.49775e-07
1.515e-06
1.36404e-07
1.47643e-06
1.38057e-07
1.43527e-06
1.44139e-07
1.39145e-06
1.43692e-07
1.34392e-06
1.37175e-07
1.29103e-06
1.30472e-07
1.23386e-06
1.23962e-07
1.17542e-06
1.16011e-07
1.11904e-06
1.05506e-07
1.06549e-06
9.46483e-08
1.0135e-06
8.62327e-08
9.6365e-07
7.92197e-08
9.14711e-07
7.55552e-08
6.83236e-08
8.5934e-07
1.76433e-06
3.06278e-07
1.74268e-06
1.90681e-07
1.73401e-06
1.77876e-07
1.73115e-06
1.52637e-07
1.7278e-06
1.39757e-07
1.72189e-06
1.43967e-07
1.71504e-06
1.50989e-07
1.70806e-06
1.50671e-07
1.69948e-06
1.45755e-07
1.68667e-06
1.43285e-07
1.66755e-06
1.4308e-07
1.64253e-06
1.41028e-07
1.61363e-06
1.34404e-07
1.5836e-06
1.24677e-07
1.55343e-06
1.16407e-07
1.52358e-06
1.09071e-07
1.49427e-06
1.04862e-07
1.0012e-07
1.46248e-06
1.93389e-06
4.02304e-07
1.90493e-06
2.19644e-07
1.89214e-06
1.90666e-07
1.8781e-06
1.6668e-07
1.86518e-06
1.52672e-07
1.85511e-06
1.54036e-07
1.84927e-06
1.56836e-07
1.84824e-06
1.517e-07
1.85126e-06
1.42737e-07
1.85616e-06
1.38382e-07
1.85942e-06
1.39819e-07
1.85824e-06
1.42203e-07
1.85117e-06
1.41474e-07
1.8389e-06
1.36948e-07
1.82351e-06
1.31801e-07
1.80655e-06
1.26031e-07
1.79043e-06
1.20982e-07
1.15676e-07
1.77487e-06
2.05956e-06
3.91111e-07
2.04233e-06
2.36875e-07
2.03201e-06
2.00987e-07
2.01893e-06
1.79761e-07
2.00223e-06
1.6937e-07
1.9885e-06
1.67765e-07
1.98262e-06
1.62713e-07
1.98501e-06
1.49312e-07
1.99338e-06
1.34366e-07
2.00445e-06
1.2732e-07
2.01417e-06
1.30096e-07
2.01893e-06
1.37443e-07
2.01668e-06
1.43727e-07
2.00782e-06
1.45803e-07
1.99545e-06
1.44167e-07
1.98228e-06
1.3921e-07
1.97149e-06
1.31765e-07
1.23431e-07
1.96374e-06
2.25583e-06
4.6487e-07
2.21026e-06
2.82451e-07
2.18781e-06
2.23432e-07
2.17493e-06
1.92641e-07
2.17063e-06
1.73676e-07
2.17466e-06
1.6373e-07
2.18085e-06
1.56531e-07
2.183e-06
1.47154e-07
2.18001e-06
1.37358e-07
2.17448e-06
1.32852e-07
2.16859e-06
1.35979e-07
2.16231e-06
1.43727e-07
2.15461e-06
1.51426e-07
2.14513e-06
1.55282e-07
2.13542e-06
1.53881e-07
2.12694e-06
1.47691e-07
2.12127e-06
1.37438e-07
1.26306e-07
2.11839e-06
2.40088e-06
4.80744e-07
2.37627e-06
3.07063e-07
2.36422e-06
2.3548e-07
2.35466e-06
2.02199e-07
2.34788e-06
1.80456e-07
2.3466e-06
1.65013e-07
2.34922e-06
1.53913e-07
2.35207e-06
1.44297e-07
2.35236e-06
1.37073e-07
2.34941e-06
1.35801e-07
2.34387e-06
1.41522e-07
2.33647e-06
1.51124e-07
2.3279e-06
1.6e-07
2.31877e-06
1.64406e-07
2.31015e-06
1.62503e-07
2.30282e-06
1.55022e-07
2.29707e-06
1.43184e-07
1.30575e-07
2.2928e-06
2.54876e-06
4.82718e-07
2.51267e-06
3.43154e-07
2.5029e-06
2.45251e-07
2.5064e-06
1.98696e-07
2.51296e-06
1.73904e-07
2.51801e-06
1.59962e-07
2.52036e-06
1.51559e-07
2.51943e-06
1.45228e-07
2.51518e-06
1.41327e-07
2.50874e-06
1.42234e-07
2.5017e-06
1.4856e-07
2.49516e-06
1.57667e-07
2.48974e-06
1.65423e-07
2.48589e-06
1.68252e-07
2.48385e-06
1.64549e-07
2.48359e-06
1.55276e-07
2.48423e-06
1.42546e-07
1.29672e-07
2.48513e-06
2.72969e-06
4.5998e-07
2.72394e-06
3.48899e-07
2.71918e-06
2.50011e-07
2.71488e-06
2.03002e-07
2.71132e-06
1.77458e-07
2.7079e-06
1.63385e-07
2.70067e-06
1.58794e-07
2.68812e-06
1.57779e-07
2.67406e-06
1.55379e-07
2.66452e-06
1.51783e-07
2.66324e-06
1.49832e-07
2.67008e-06
1.50826e-07
2.68225e-06
1.53256e-07
2.6961e-06
1.54402e-07
2.70829e-06
1.52359e-07
2.71665e-06
1.46918e-07
2.7197e-06
1.39494e-07
1.31625e-07
2.71775e-06
2.95301e-06
4.05506e-07
2.97766e-06
3.24245e-07
2.97251e-06
2.55166e-07
2.94902e-06
2.26493e-07
2.91437e-06
2.12103e-07
2.88501e-06
1.92747e-07
2.87249e-06
1.71319e-07
2.8764e-06
1.53863e-07
2.88931e-06
1.42469e-07
2.90349e-06
1.3761e-07
2.91459e-06
1.38733e-07
2.9218e-06
1.4361e-07
2.92605e-06
1.4901e-07
2.92817e-06
1.52277e-07
2.92854e-06
1.51986e-07
2.927e-06
1.48461e-07
2.9235e-06
1.42998e-07
1.36954e-07
2.91817e-06
3.17477e-06
4.10746e-07
3.1696e-06
3.29419e-07
3.15132e-06
2.73438e-07
3.13737e-06
2.40446e-07
3.13185e-06
2.17626e-07
3.13099e-06
1.93608e-07
3.13226e-06
1.70044e-07
3.13386e-06
1.52261e-07
3.13395e-06
1.42379e-07
3.13203e-06
1.39527e-07
3.12926e-06
1.41511e-07
3.12698e-06
1.45885e-07
3.1258e-06
1.50197e-07
3.12543e-06
1.52641e-07
3.12514e-06
1.52278e-07
3.1242e-06
1.49403e-07
3.12224e-06
1.44951e-07
1.40248e-07
3.11895e-06
2.86477e-06
4.19357e-07
2.83802e-06
3.56165e-07
2.81758e-06
2.93879e-07
2.807e-06
2.5103e-07
2.81008e-06
2.14546e-07
2.82099e-06
1.82695e-07
2.83057e-06
1.60469e-07
2.83242e-06
1.50408e-07
2.82641e-06
1.48387e-07
2.81736e-06
1.48577e-07
2.81079e-06
1.48087e-07
2.80972e-06
1.46948e-07
2.81391e-06
1.46007e-07
2.82089e-06
1.45659e-07
2.82777e-06
1.45407e-07
2.83251e-06
1.44655e-07
2.83404e-06
1.43425e-07
1.41051e-07
2.83324e-06
3.48852e-06
4.59301e-07
3.4865e-06
3.58182e-07
3.45812e-06
3.22256e-07
3.44601e-06
2.63144e-07
3.45944e-06
2.01115e-07
3.48053e-06
1.61604e-07
3.48927e-06
1.51729e-07
3.47984e-06
1.59842e-07
3.46124e-06
1.66985e-07
3.44644e-06
1.63377e-07
3.44318e-06
1.51346e-07
3.45111e-06
1.39018e-07
3.46464e-06
1.32472e-07
3.47726e-06
1.3304e-07
3.48447e-06
1.38198e-07
3.4847e-06
1.44423e-07
3.47892e-06
1.49206e-07
1.50779e-07
3.46919e-06
4.2555e-06
3.42205e-07
4.25026e-06
3.63421e-07
4.22433e-06
3.48185e-07
4.2166e-06
2.7088e-07
4.21986e-06
1.97848e-07
4.22075e-06
1.60714e-07
4.21636e-06
1.56125e-07
4.21301e-06
1.63189e-07
4.21744e-06
1.62553e-07
4.23087e-06
1.49949e-07
4.24903e-06
1.33184e-07
4.2659e-06
1.2215e-07
4.27701e-06
1.21364e-07
4.28088e-06
1.29171e-07
4.27848e-06
1.40595e-07
4.27227e-06
1.50634e-07
4.26487e-06
1.56606e-07
1.57136e-07
4.25851e-06
5.20574e-06
3.51676e-07
5.19759e-06
3.71568e-07
5.20303e-06
3.42747e-07
5.21486e-06
2.59045e-07
5.21453e-06
1.98183e-07
5.20402e-06
1.71224e-07
5.19483e-06
1.65314e-07
5.19347e-06
1.64553e-07
5.19758e-06
1.5844e-07
5.20136e-06
1.46168e-07
5.2017e-06
1.32843e-07
5.19995e-06
1.239e-07
5.19952e-06
1.21791e-07
5.20304e-06
1.25653e-07
5.21075e-06
1.3289e-07
5.22091e-06
1.40466e-07
5.23085e-06
1.4667e-07
1.5093e-07
5.23706e-06
6.38824e-06
3.88239e-07
6.36471e-06
3.95105e-07
6.3851e-06
3.22355e-07
6.3983e-06
2.45843e-07
6.40071e-06
1.9578e-07
6.40005e-06
1.71879e-07
6.3987e-06
1.66663e-07
6.39511e-06
1.68144e-07
6.38701e-06
1.66539e-07
6.37506e-06
1.58124e-07
6.36311e-06
1.44787e-07
6.35572e-06
1.31292e-07
6.35551e-06
1.22005e-07
6.36218e-06
1.18976e-07
6.3736e-06
1.21473e-07
6.38673e-06
1.27339e-07
6.39943e-06
1.33963e-07
1.3956e-07
6.4108e-06
7.74744e-06
5.47598e-07
7.73939e-06
4.03156e-07
7.75891e-06
3.02834e-07
7.75829e-06
2.4647e-07
7.75089e-06
2.0318e-07
7.75057e-06
1.72192e-07
7.75866e-06
1.5858e-07
7.76839e-06
1.58405e-07
7.77321e-06
1.61721e-07
7.7709e-06
1.60433e-07
7.76372e-06
1.51968e-07
7.75676e-06
1.38255e-07
7.75547e-06
1.23295e-07
7.76374e-06
1.10701e-07
7.7826e-06
1.02613e-07
7.81024e-06
9.96998e-08
7.84363e-06
1.00572e-07
1.04839e-07
7.87836e-06
9.61008e-06
4.7152e-07
9.63753e-06
3.75708e-07
9.62072e-06
3.19638e-07
9.58571e-06
2.81483e-07
9.54948e-06
2.3941e-07
9.52895e-06
1.92727e-07
9.5284e-06
1.59123e-07
9.53967e-06
1.47136e-07
9.55139e-06
1.50001e-07
9.55682e-06
1.55006e-07
9.55568e-06
1.53101e-07
9.55175e-06
1.42186e-07
9.54985e-06
1.25201e-07
9.55365e-06
1.069e-07
9.56487e-06
9.13863e-08
9.58324e-06
8.13352e-08
9.60706e-06
7.67534e-08
7.79777e-08
9.63392e-06
1.14211e-05
4.21613e-07
1.1578e-05
2.18829e-07
1.16552e-05
2.42389e-07
1.16614e-05
2.75244e-07
1.16396e-05
2.61223e-07
1.16112e-05
2.21141e-07
1.15888e-05
1.81537e-07
1.15833e-05
1.52656e-07
1.16013e-05
1.31984e-07
1.16419e-05
1.14401e-07
1.16974e-05
9.75802e-08
1.17573e-05
8.23149e-08
1.18122e-05
7.03017e-08
1.18563e-05
6.27835e-08
1.18877e-05
5.99776e-08
1.19079e-05
6.11625e-08
1.19197e-05
6.50007e-08
7.01961e-08
1.19274e-05
8.58718e-06
4.00207e-07
8.54872e-06
2.57288e-07
8.51959e-06
2.71518e-07
8.51312e-06
2.81715e-07
8.52493e-06
2.49415e-07
8.54559e-06
2.00479e-07
8.57312e-06
1.54002e-07
8.6093e-06
1.16485e-07
8.6513e-06
8.99824e-08
8.69192e-06
7.37805e-08
8.72465e-06
6.48497e-08
8.74741e-06
5.95506e-08
8.76285e-06
5.48608e-08
8.77589e-06
4.97484e-08
8.79045e-06
4.54111e-08
8.80802e-06
4.3596e-08
8.82784e-06
4.51813e-08
5.06244e-08
8.84741e-06
7.41245e-06
4.16052e-07
7.35439e-06
3.1535e-07
7.33133e-06
2.94573e-07
7.34991e-06
2.63135e-07
7.37651e-06
2.22812e-07
7.3998e-06
1.77196e-07
7.42723e-06
1.26566e-07
7.46562e-06
7.80939e-08
7.51334e-06
4.22619e-08
7.56199e-06
2.51343e-08
7.60351e-06
2.33317e-08
7.63363e-06
2.94257e-08
7.65192e-06
3.65687e-08
7.6606e-06
4.107e-08
7.66357e-06
4.24428e-08
7.66492e-06
4.22438e-08
7.66827e-06
4.18355e-08
4.25999e-08
7.67629e-06
6.37533e-06
4.20625e-07
6.39024e-06
3.00436e-07
6.43153e-06
2.53288e-07
6.47961e-06
2.1505e-07
6.52948e-06
1.72943e-07
6.57588e-06
1.30796e-07
6.61069e-06
9.17581e-08
6.63037e-06
5.84113e-08
6.6397e-06
3.29326e-08
6.64753e-06
1.73119e-08
6.65923e-06
1.1631e-08
6.67504e-06
1.36083e-08
6.69209e-06
1.95182e-08
6.70713e-06
2.60355e-08
6.7187e-06
3.08763e-08
6.72742e-06
3.35158e-08
6.73519e-06
3.40649e-08
3.35011e-08
6.74429e-06
5.58951e-06
4.12407e-07
5.60816e-06
2.81788e-07
5.65137e-06
2.10072e-07
5.69109e-06
1.75327e-07
5.7306e-06
1.33434e-07
5.77278e-06
8.86183e-08
5.81055e-06
5.39856e-08
5.83744e-06
3.15258e-08
5.85231e-06
1.8061e-08
5.85818e-06
1.14417e-08
5.8595e-06
1.03156e-08
5.86011e-06
1.29969e-08
5.86243e-06
1.71984e-08
5.86726e-06
2.12007e-08
5.87472e-06
2.34151e-08
5.88464e-06
2.36041e-08
5.89672e-06
2.19853e-08
1.93971e-08
5.91082e-06
4.80168e-06
3.84387e-07
4.86386e-06
2.19608e-07
4.93008e-06
1.43849e-07
4.98335e-06
1.22055e-07
5.01884e-06
9.79468e-08
5.03944e-06
6.80187e-08
5.05446e-06
3.89598e-08
5.07185e-06
1.4135e-08
5.09355e-06
-3.63397e-09
5.11754e-06
-1.25491e-08
5.14093e-06
-1.30728e-08
5.16154e-06
-7.61767e-09
5.17883e-06
-9.15134e-11
5.19264e-06
7.39537e-09
5.20424e-06
1.1816e-08
5.21466e-06
1.3186e-08
5.22464e-06
1.19971e-08
9.27414e-09
5.23477e-06
4.27064e-06
4.0072e-07
4.31849e-06
1.71765e-07
4.37362e-06
8.87174e-08
4.41995e-06
7.57206e-08
4.45083e-06
6.70732e-08
4.46688e-06
5.19644e-08
4.47387e-06
3.19673e-08
4.47779e-06
1.02175e-08
4.48414e-06
-9.97951e-09
4.49431e-06
-2.27227e-08
4.50772e-06
-2.64812e-08
4.52323e-06
-2.31325e-08
4.53996e-06
-1.6817e-08
4.55834e-06
-1.09832e-08
4.57778e-06
-7.63018e-09
4.59768e-06
-6.71035e-09
4.61686e-06
-7.18577e-09
-7.81817e-09
4.63396e-06
3.72923e-06
3.50964e-07
3.76086e-06
1.40139e-07
3.8043e-06
4.52767e-08
3.84724e-06
3.27871e-08
3.88551e-06
2.87964e-08
3.92053e-06
1.69473e-08
3.95215e-06
3.48767e-10
3.97737e-06
-1.50007e-08
3.99531e-06
-2.79272e-08
4.00747e-06
-3.48804e-08
4.01635e-06
-3.53561e-08
4.02432e-06
-3.1108e-08
4.03259e-06
-2.50889e-08
4.04137e-06
-1.97603e-08
4.05001e-06
-1.62736e-08
4.05785e-06
-1.45501e-08
4.06451e-06
-1.38371e-08
-1.34833e-08
4.07017e-06
3.28119e-06
2.59913e-07
3.3336e-06
8.77228e-08
3.35935e-06
1.95309e-08
3.38996e-06
2.18144e-09
3.42875e-06
-1.00026e-08
3.46647e-06
-2.07726e-08
3.49354e-06
-2.67132e-08
3.50927e-06
-3.07391e-08
3.51722e-06
-3.5875e-08
3.52274e-06
-4.03989e-08
3.52945e-06
-4.2064e-08
3.53861e-06
-4.02647e-08
3.54953e-06
-3.60133e-08
3.56077e-06
-3.0996e-08
3.57097e-06
-2.648e-08
3.5795e-06
-2.30778e-08
3.58629e-06
-2.06258e-08
-1.90198e-08
3.59182e-06
2.87171e-06
2.05198e-07
2.95483e-06
4.60793e-09
2.987e-06
-1.26372e-08
3.00895e-06
-1.9776e-08
3.03164e-06
-3.26914e-08
3.05399e-06
-4.3117e-08
3.07199e-06
-4.47149e-08
3.08254e-06
-4.1296e-08
3.08609e-06
-3.9421e-08
3.08623e-06
-4.05397e-08
3.08666e-06
-4.24942e-08
3.08943e-06
-4.30329e-08
3.09487e-06
-4.14564e-08
3.10245e-06
-3.85679e-08
3.11135e-06
-3.53824e-08
3.12094e-06
-3.26664e-08
3.13076e-06
-3.04506e-08
-2.87033e-08
3.14044e-06
2.5213e-06
5.66417e-08
2.58354e-06
-5.76344e-08
2.60991e-06
-3.90073e-08
2.63076e-06
-4.063e-08
2.64533e-06
-4.72624e-08
2.65316e-06
-5.09417e-08
2.65813e-06
-4.96813e-08
2.66299e-06
-4.61574e-08
2.66726e-06
-4.36993e-08
2.66952e-06
-4.27965e-08
2.66914e-06
-4.21168e-08
2.66673e-06
-4.06153e-08
2.66354e-06
-3.82677e-08
2.66069e-06
-3.57201e-08
2.65875e-06
-3.34411e-08
2.65768e-06
-3.15949e-08
2.65712e-06
-2.98951e-08
-2.8302e-08
2.65672e-06
2.18945e-06
2.13182e-06
2.09281e-06
2.05218e-06
2.00492e-06
1.95398e-06
1.9043e-06
1.85814e-06
1.81444e-06
1.77164e-06
1.72953e-06
1.68891e-06
1.65064e-06
1.61492e-06
1.58148e-06
1.54989e-06
1.51999e-06
1.49169e-06
-1.00711e-08
1.00711e-08
7.20126e-08
-8.20837e-08
2.10927e-07
-1.38915e-07
3.73723e-07
-1.62796e-07
5.43546e-07
-1.69823e-07
7.13238e-07
-1.69692e-07
8.80243e-07
-1.67005e-07
1.0437e-06
-1.63458e-07
1.20305e-06
-1.59348e-07
1.35738e-06
-1.54332e-07
1.50519e-06
-1.47812e-07
1.64424e-06
-1.39046e-07
1.77152e-06
-1.27285e-07
1.88333e-06
-1.11804e-07
1.97548e-06
-9.21516e-08
2.04343e-06
-6.7952e-08
2.08288e-06
-3.94521e-08
2.09043e-06
-7.54355e-09
2.06159e-06
2.88378e-08
1.99413e-06
6.74593e-08
1.88682e-06
1.07307e-07
1.74152e-06
1.45307e-07
1.55924e-06
1.8228e-07
1.34779e-06
2.11447e-07
1.11134e-06
2.36447e-07
8.61099e-07
2.50242e-07
6.36392e-07
2.24707e-07
4.1837e-07
2.18022e-07
2.93025e-07
1.25345e-07
2.85037e-07
7.98782e-09
2.86375e-07
-1.33857e-09
3.66682e-07
-8.03068e-08
6.2085e-07
-2.54168e-07
8.12617e-07
-1.91767e-07
8.68502e-07
-5.58859e-08
8.43547e-07
2.49557e-08
6.46183e-07
1.97364e-07
1.75421e-07
4.70762e-07
-4.78279e-07
6.537e-07
-1.14506e-06
6.66785e-07
-1.75003e-06
6.04969e-07
-2.27408e-06
5.24043e-07
-2.72589e-06
4.51809e-07
-3.11466e-06
3.88777e-07
-3.45001e-06
3.3535e-07
-3.74045e-06
2.90441e-07
-3.99273e-06
2.52279e-07
-4.212e-06
2.19269e-07
-4.40192e-06
1.89915e-07
-4.56499e-06
1.63076e-07
-4.7029e-06
1.37908e-07
-4.81679e-06
1.1389e-07
-4.90753e-06
9.07376e-08
-4.97586e-06
6.8331e-08
-5.02256e-06
4.66995e-08
-5.04849e-06
2.59295e-08
-5.05459e-06
6.09933e-09
-5.04279e-06
-1.17982e-08
-5.0141e-06
-2.86944e-08
-4.96957e-06
-4.45261e-08
-4.9104e-06
-5.91735e-08
-4.83759e-06
-7.28055e-08
-4.75222e-06
-8.53713e-08
-4.65548e-06
-9.67439e-08
-4.5488e-06
-1.06674e-07
-4.43399e-06
-1.14811e-07
-4.31325e-06
-1.20737e-07
-4.18921e-06
-1.24041e-07
-4.06477e-06
-1.2444e-07
-3.94285e-06
-1.21926e-07
-3.82595e-06
-1.16896e-07
-3.71572e-06
-1.10227e-07
-3.61245e-06
-1.03278e-07
-3.51465e-06
-9.77928e-08
-3.41898e-06
-9.56731e-08
-3.32038e-06
-9.86048e-08
-3.21275e-06
-1.07628e-07
-3.09014e-06
-1.22607e-07
-2.94841e-06
-1.4173e-07
-2.78642e-06
-1.61995e-07
-2.60584e-06
-1.80579e-07
-2.41042e-06
-1.95414e-07
-2.20483e-06
-2.05595e-07
-1.99367e-06
-2.11156e-07
-1.78104e-06
-2.12635e-07
-1.57008e-06
-2.10957e-07
-1.36293e-06
-2.07149e-07
-1.16101e-06
-2.01921e-07
-9.65101e-07
-1.95909e-07
-7.75673e-07
-1.89428e-07
-5.93064e-07
-1.82609e-07
-4.17606e-07
-1.75458e-07
-2.49688e-07
-1.67918e-07
-8.97973e-08
-1.59891e-07
6.16444e-08
-1.51442e-07
2.04321e-07
-1.42676e-07
3.37753e-07
-1.33432e-07
4.61669e-07
-1.23916e-07
5.7597e-07
-1.14301e-07
6.80722e-07
-1.04752e-07
7.76137e-07
-9.54145e-08
8.62543e-07
-8.64063e-08
9.40356e-07
-7.78127e-08
1.01004e-06
-6.96855e-08
1.07209e-06
-6.20481e-08
1.12699e-06
-5.49019e-08
1.17523e-06
-4.82349e-08
1.21725e-06
-4.20289e-08
1.25352e-06
-3.62662e-08
1.28445e-06
-3.09328e-08
1.31047e-06
-2.60197e-08
1.332e-06
-2.1525e-08
1.34944e-06
-1.7446e-08
1.36323e-06
-1.37815e-08
1.37375e-06
-1.05278e-08
1.38142e-06
-7.66716e-09
1.3866e-06
-5.18263e-09
1.38964e-06
-3.04073e-09
1.39084e-06
-1.19453e-09
1.39045e-06
3.88353e-10
1.38871e-06
1.74442e-09
1.38578e-06
2.92812e-09
1.38185e-06
3.92582e-09
1.37709e-06
4.76319e-09
1.37161e-06
5.47808e-09
1.36554e-06
6.07268e-09
1.359e-06
6.54033e-09
1.35212e-06
6.88085e-09
1.34502e-06
7.09865e-09
1.33782e-06
7.20278e-09
1.33061e-06
7.20556e-09
1.32349e-06
7.12283e-09
1.31652e-06
6.97195e-09
1.30975e-06
6.76942e-09
1.30321e-06
6.53091e-09
1.29694e-06
6.27301e-09
1.29093e-06
6.01234e-09
1.28517e-06
5.75985e-09
1.27965e-06
5.51671e-09
1.27437e-06
5.28077e-09
1.26932e-06
5.05686e-09
1.26446e-06
4.85723e-09
1.25977e-06
4.69188e-09
1.25521e-06
4.56116e-09
1.25075e-06
4.45784e-09
1.24638e-06
4.37145e-09
1.24208e-06
4.29744e-09
1.23784e-06
4.23398e-09
1.23366e-06
4.18084e-09
1.22953e-06
4.13755e-09
1.22542e-06
4.10482e-09
1.22134e-06
4.0846e-09
1.21726e-06
4.0798e-09
1.21316e-06
4.09392e-09
1.20904e-06
4.12705e-09
1.20486e-06
4.17926e-09
1.20061e-06
4.24989e-09
1.19627e-06
4.33789e-09
1.19182e-06
4.44448e-09
1.18726e-06
4.56927e-09
1.18254e-06
4.71835e-09
1.17764e-06
4.89294e-09
1.17254e-06
5.10814e-09
1.16718e-06
5.3601e-09
1.16149e-06
5.68546e-09
1.15543e-06
6.05955e-09
1.14885e-06
6.57664e-09
1.14171e-06
7.14364e-09
1.1337e-06
8.00932e-09
1.12483e-06
8.86967e-09
1.11442e-06
1.0413e-08
1.10273e-06
1.16857e-08
1.08807e-06
1.46654e-08
1.07168e-06
1.63901e-08
1.04895e-06
2.27316e-08
1.02448e-06
2.4461e-08
9.84843e-07
3.9641e-08
9.45815e-07
3.90283e-08
8.66246e-07
7.95688e-08
6.66921e-08
7.99554e-07
5.15465e-08
-4.14754e-08
1.77936e-07
-2.08473e-07
3.25635e-07
-2.86614e-07
4.75699e-07
-3.1286e-07
6.24596e-07
-3.18721e-07
7.73197e-07
-3.18292e-07
9.22518e-07
-3.16326e-07
1.07285e-06
-3.13794e-07
1.22375e-06
-3.10247e-07
1.37401e-06
-3.04593e-07
1.52164e-06
-2.95439e-07
1.66382e-06
-2.81226e-07
1.79688e-06
-2.60344e-07
1.91657e-06
-2.3149e-07
2.01838e-06
-1.93963e-07
2.09784e-06
-1.4742e-07
2.15069e-06
-9.23005e-08
2.17269e-06
-2.95374e-08
2.16392e-06
3.76014e-08
2.12493e-06
1.06453e-07
2.05625e-06
1.75988e-07
1.96114e-06
2.40419e-07
1.84074e-06
3.02681e-07
1.70273e-06
3.49456e-07
1.55429e-06
3.84888e-07
1.39686e-06
4.07672e-07
1.22967e-06
3.91896e-07
1.10147e-06
3.46214e-07
9.6774e-07
2.5908e-07
8.88023e-07
8.77049e-08
1.00071e-06
-1.14022e-07
1.00656e-06
-8.61628e-08
7.51326e-07
1.06945e-09
3.5895e-07
2.00609e-07
-2.48072e-07
5.51136e-07
-9.87147e-07
7.6403e-07
-1.69944e-06
9.09652e-07
-2.24996e-06
1.02129e-06
-2.6611e-06
1.06484e-06
-3.0095e-06
1.01518e-06
-3.32487e-06
9.2034e-07
-3.6135e-06
8.12678e-07
-3.87297e-06
7.1128e-07
-4.10513e-06
6.20937e-07
-4.31289e-06
5.43107e-07
-4.49892e-06
4.7647e-07
-4.66514e-06
4.18499e-07
-4.81263e-06
3.66761e-07
-4.94225e-06
3.19538e-07
-5.05428e-06
2.75106e-07
-5.14853e-06
2.32151e-07
-5.22475e-06
1.90119e-07
-5.28289e-06
1.48872e-07
-5.32302e-06
1.0846e-07
-5.34535e-06
6.90349e-08
-5.3504e-06
3.09776e-08
-5.33883e-06
-5.4673e-09
-5.31073e-06
-3.98994e-08
-5.26685e-06
-7.25784e-08
-5.20799e-06
-1.03385e-07
-5.13493e-06
-1.32237e-07
-5.04866e-06
-1.59069e-07
-4.95028e-06
-1.8375e-07
-4.84103e-06
-2.05997e-07
-4.72238e-06
-2.25324e-07
-4.59615e-06
-2.41038e-07
-4.46459e-06
-2.52302e-07
-4.33035e-06
-2.58281e-07
-4.19643e-06
-2.58361e-07
-4.0659e-06
-2.52451e-07
-3.94151e-06
-2.41294e-07
-3.82507e-06
-2.26662e-07
-3.71698e-06
-2.11373e-07
-3.61566e-06
-1.99111e-07
-3.51735e-06
-1.93985e-07
-3.41625e-06
-1.99699e-07
-3.30533e-06
-2.1855e-07
-3.17752e-06
-2.50414e-07
-3.02757e-06
-2.91677e-07
-2.85454e-06
-3.35032e-07
-2.66107e-06
-3.74042e-07
-2.45215e-06
-4.04341e-07
-2.23341e-06
-4.24328e-07
-2.01001e-06
-4.34558e-07
-1.78624e-06
-4.36406e-07
-1.56531e-06
-4.31891e-07
-1.34909e-06
-4.2337e-07
-1.13864e-06
-4.12368e-07
-9.3442e-07
-4.00129e-07
-7.36636e-07
-3.87212e-07
-5.45431e-07
-3.73814e-07
-3.61013e-07
-3.59875e-07
-1.83778e-07
-3.45153e-07
-1.42192e-08
-3.29449e-07
1.478e-07
-3.1346e-07
3.01175e-07
-2.96052e-07
4.45684e-07
-2.77941e-07
5.81113e-07
-2.59344e-07
7.07401e-07
-2.4059e-07
8.24662e-07
-2.22013e-07
9.33161e-07
-2.03914e-07
1.03329e-06
-1.86537e-07
1.12554e-06
-1.70056e-07
1.21042e-06
-1.5457e-07
1.28849e-06
-1.40117e-07
1.36027e-06
-1.26679e-07
1.42623e-06
-1.14203e-07
1.48683e-06
-1.02621e-07
1.54242e-06
-9.18625e-08
1.59336e-06
-8.18688e-08
1.63994e-06
-7.26002e-08
1.68245e-06
-6.4038e-08
1.72118e-06
-5.61771e-08
1.75642e-06
-4.90228e-08
1.78848e-06
-4.25828e-08
1.81767e-06
-3.68543e-08
1.84431e-06
-3.18251e-08
1.86874e-06
-2.74676e-08
1.89128e-06
-2.37339e-08
1.91224e-06
-2.05721e-08
1.93189e-06
-1.79126e-08
1.95049e-06
-1.56657e-08
1.96818e-06
-1.37664e-08
1.9851e-06
-1.21567e-08
2.00134e-06
-1.07618e-08
2.01695e-06
-9.53895e-09
2.03195e-06
-8.46161e-09
2.04635e-06
-7.51214e-09
2.06012e-06
-6.67504e-09
2.07326e-06
-5.93782e-09
2.08576e-06
-5.291e-09
2.09761e-06
-4.72566e-09
2.10881e-06
-4.23101e-09
2.11937e-06
-3.79524e-09
2.12931e-06
-3.40763e-09
2.13864e-06
-3.05593e-09
2.14738e-06
-2.72266e-09
2.15553e-06
-2.39228e-09
2.16311e-06
-2.06145e-09
2.17012e-06
-1.73485e-09
2.17659e-06
-1.40722e-09
2.1825e-06
-1.05565e-09
2.18784e-06
-6.54382e-10
2.1926e-06
-1.95971e-10
2.19677e-06
2.88165e-10
2.20036e-06
7.82203e-10
2.20338e-06
1.28006e-09
2.20583e-06
1.77667e-09
2.20775e-06
2.26909e-09
2.20913e-06
2.75583e-09
2.21e-06
3.23788e-09
2.21036e-06
3.71717e-09
2.21025e-06
4.19371e-09
2.20967e-06
4.6713e-09
2.20865e-06
5.14786e-09
2.20721e-06
5.62462e-09
2.20535e-06
6.10073e-09
2.20311e-06
6.57771e-09
2.2005e-06
7.06013e-09
2.19752e-06
7.54878e-09
2.19418e-06
8.05457e-09
2.1905e-06
8.58084e-09
2.18645e-06
9.15317e-09
2.18204e-06
9.76685e-09
2.17724e-06
1.04872e-08
2.17203e-06
1.12732e-08
2.16631e-06
1.22939e-08
2.16007e-06
1.33799e-08
2.1531e-06
1.49828e-08
2.14544e-06
1.65353e-08
2.13656e-06
1.92862e-08
2.12676e-06
2.14907e-08
2.11477e-06
2.6648e-08
2.10155e-06
2.96133e-08
2.08408e-06
4.02021e-08
2.06488e-06
4.36633e-08
2.03717e-06
6.73476e-08
2.00621e-06
6.99926e-08
1.95916e-06
1.26621e-07
1.26975e-07
1.89887e-06
1.08274e-07
-1.49749e-07
2.49432e-07
-3.49632e-07
3.79063e-07
-4.16245e-07
5.00548e-07
-4.34345e-07
6.22453e-07
-4.40625e-07
7.49296e-07
-4.45135e-07
8.82484e-07
-4.49515e-07
1.02197e-06
-4.53278e-07
1.16687e-06
-4.55144e-07
1.31547e-06
-4.53198e-07
1.46517e-06
-4.45142e-07
1.61224e-06
-4.28291e-07
1.75182e-06
-3.99921e-07
1.87811e-06
-3.57783e-07
1.98479e-06
-3.00646e-07
2.06542e-06
-2.28049e-07
2.11456e-06
-1.41437e-07
2.12925e-06
-4.42263e-08
2.10721e-06
5.96358e-08
2.04859e-06
1.65074e-07
1.95754e-06
2.67037e-07
1.83957e-06
3.58388e-07
1.70429e-06
4.37966e-07
1.55022e-06
5.03524e-07
1.38601e-06
5.49096e-07
1.22537e-06
5.68312e-07
1.06378e-06
5.5349e-07
9.06468e-07
5.03526e-07
7.50529e-07
4.15019e-07
6.4543e-07
1.92804e-07
4.30397e-07
1.0101e-07
-1.70336e-08
3.61268e-07
-7.32878e-07
7.16914e-07
-1.45495e-06
9.22683e-07
-2.02051e-06
1.1167e-06
-2.50894e-06
1.25246e-06
-2.92419e-06
1.32491e-06
-3.23244e-06
1.32953e-06
-3.44112e-06
1.27352e-06
-3.60507e-06
1.17914e-06
-3.7578e-06
1.07307e-06
-3.91218e-06
9.67061e-07
-4.06895e-06
8.68047e-07
-4.2268e-06
7.78785e-07
-4.38306e-06
6.99372e-07
-4.53491e-06
6.28316e-07
-4.6795e-06
5.63093e-07
-4.81426e-06
5.01517e-07
-4.9364e-06
4.4168e-07
-5.04363e-06
3.82334e-07
-5.13419e-06
3.22714e-07
-5.2067e-06
2.62623e-07
-5.26013e-06
2.02304e-07
-5.29393e-06
1.42257e-07
-5.30799e-06
8.30987e-08
-5.30242e-06
2.54053e-08
-5.27886e-06
-2.90267e-08
-5.23858e-06
-8.01751e-08
-5.1828e-06
-1.28359e-07
-5.11289e-06
-1.73294e-07
-5.03026e-06
-2.14871e-07
-4.93628e-06
-2.53043e-07
-4.83233e-06
-2.877e-07
-4.71978e-06
-3.18553e-07
-4.60005e-06
-3.45049e-07
-4.47475e-06
-3.66337e-07
-4.34573e-06
-3.81322e-07
-4.2152e-06
-3.88818e-07
-4.08574e-06
-3.87816e-07
-3.96029e-06
-3.77905e-07
-3.84179e-06
-3.59789e-07
-3.73269e-06
-3.35765e-07
-3.63409e-06
-3.0997e-07
-3.54491e-06
-2.88291e-07
-3.46107e-06
-2.77827e-07
-3.37534e-06
-2.85426e-07
-3.27838e-06
-3.1551e-07
-3.16061e-06
-3.68188e-07
-3.01489e-06
-4.37397e-07
-2.83984e-06
-5.10084e-07
-2.64003e-06
-5.73848e-07
-2.42298e-06
-6.21395e-07
-2.19619e-06
-6.51113e-07
-1.96571e-06
-6.65035e-07
-1.7363e-06
-6.65817e-07
-1.51158e-06
-6.56616e-07
-1.29341e-06
-6.41543e-07
-1.08243e-06
-6.23346e-07
-8.7866e-07
-6.03897e-07
-6.81898e-07
-5.83974e-07
-4.92045e-07
-5.63668e-07
-3.09139e-07
-5.42781e-07
-1.33489e-07
-5.20803e-07
3.46853e-08
-4.97624e-07
1.94552e-07
-4.73327e-07
3.45787e-07
-4.47287e-07
4.87903e-07
-4.20057e-07
6.20645e-07
-3.92086e-07
7.43954e-07
-3.63899e-07
8.57962e-07
-3.3602e-07
9.6296e-07
-3.08913e-07
1.05937e-06
-2.82949e-07
1.14772e-06
-2.58401e-07
1.22859e-06
-2.3544e-07
1.30262e-06
-2.14154e-07
1.3705e-06
-1.94551e-07
1.43287e-06
-1.76574e-07
1.49036e-06
-1.60116e-07
1.54354e-06
-1.45036e-07
1.59285e-06
-1.31182e-07
1.63866e-06
-1.18416e-07
1.68126e-06
-1.06633e-07
1.72085e-06
-9.57702e-08
1.75764e-06
-8.58076e-08
1.79181e-06
-7.67544e-08
1.82358e-06
-6.86297e-08
1.85321e-06
-6.14471e-08
1.88094e-06
-5.52029e-08
1.90707e-06
-4.98633e-08
1.93186e-06
-4.53669e-08
1.95558e-06
-4.16324e-08
1.97847e-06
-3.85497e-08
2.0007e-06
-3.59992e-08
2.02241e-06
-3.38683e-08
2.0437e-06
-3.20466e-08
2.0646e-06
-3.04392e-08
2.08512e-06
-2.89801e-08
2.10523e-06
-2.7628e-08
2.12491e-06
-2.63498e-08
2.1441e-06
-2.51268e-08
2.16276e-06
-2.39501e-08
2.18085e-06
-2.28165e-08
2.19834e-06
-2.1725e-08
2.21522e-06
-2.06744e-08
2.23147e-06
-1.96626e-08
2.2471e-06
-1.86822e-08
2.2621e-06
-1.77206e-08
2.27647e-06
-1.67667e-08
2.29023e-06
-1.58164e-08
2.30336e-06
-1.48659e-08
2.31585e-06
-1.39025e-08
2.32771e-06
-1.29088e-08
2.33893e-06
-1.18758e-08
2.34954e-06
-1.08052e-08
2.35953e-06
-9.70314e-09
2.36889e-06
-8.57585e-09
2.3776e-06
-7.42826e-09
2.38564e-06
-6.26843e-09
2.39301e-06
-5.1031e-09
2.3997e-06
-3.93566e-09
2.40571e-06
-2.76626e-09
2.41102e-06
-1.59274e-09
2.41563e-06
-4.20205e-10
2.41955e-06
7.51785e-10
2.4228e-06
1.90315e-09
2.42539e-06
3.03324e-09
2.42735e-06
4.13959e-09
2.4287e-06
5.22364e-09
2.42947e-06
6.29144e-09
2.42968e-06
7.34039e-09
2.42935e-06
8.38754e-09
2.4285e-06
9.43177e-09
2.42714e-06
1.05114e-08
2.42529e-06
1.16111e-08
2.42296e-06
1.28229e-08
2.42015e-06
1.40817e-08
2.41683e-06
1.56118e-08
2.41302e-06
1.71929e-08
2.40862e-06
1.93835e-08
2.40364e-06
2.15167e-08
2.3979e-06
2.50233e-08
2.39138e-06
2.80129e-08
2.38382e-06
3.42003e-08
2.375e-06
3.84403e-08
2.36486e-06
5.03428e-08
2.35214e-06
5.63772e-08
2.33849e-06
8.09988e-08
2.3185e-06
8.99853e-08
2.30177e-06
1.43348e-07
1.61359e-07
2.26739e-06
1.30623e-07
-2.80372e-07
2.56396e-07
-4.75406e-07
3.61881e-07
-5.21729e-07
4.6447e-07
-5.36934e-07
5.73007e-07
-5.49162e-07
6.89965e-07
-5.62093e-07
8.1612e-07
-5.7567e-07
9.51749e-07
-5.88907e-07
1.09625e-06
-5.99644e-07
1.24779e-06
-6.04744e-07
1.40317e-06
-6.00517e-07
1.55747e-06
-5.82586e-07
1.70411e-06
-5.46563e-07
1.83524e-06
-4.88917e-07
1.94259e-06
-4.07994e-07
2.01823e-06
-3.03685e-07
2.05609e-06
-1.79307e-07
2.05268e-06
-4.08137e-08
2.00445e-06
1.07869e-07
1.91297e-06
2.56549e-07
1.7839e-06
3.96111e-07
1.6222e-06
5.20087e-07
1.43776e-06
6.22407e-07
1.24509e-06
6.96193e-07
1.05699e-06
7.37197e-07
8.7026e-07
7.55041e-07
6.66895e-07
7.56855e-07
4.67176e-07
7.03245e-07
3.19344e-07
5.62851e-07
-5.18575e-08
5.64006e-07
-7.5743e-07
8.06583e-07
-1.43882e-06
1.04266e-06
-1.97175e-06
1.24984e-06
-2.45705e-06
1.40799e-06
-2.85128e-06
1.51092e-06
-3.1504e-06
1.55158e-06
-3.36762e-06
1.54213e-06
-3.52254e-06
1.48446e-06
-3.64455e-06
1.39552e-06
-3.75525e-06
1.28985e-06
-3.86599e-06
1.1838e-06
-3.98265e-06
1.08373e-06
-4.10723e-06
9.92623e-07
-4.23851e-06
9.10066e-07
-4.37315e-06
8.34015e-07
-4.50697e-06
7.62132e-07
-4.63573e-06
6.91853e-07
-4.75545e-06
6.21233e-07
-4.86252e-06
5.48755e-07
-4.95382e-06
4.73629e-07
-5.02678e-06
3.95673e-07
-5.07953e-06
3.15377e-07
-5.11106e-06
2.33834e-07
-5.12113e-06
1.52323e-07
-5.10985e-06
7.18182e-08
-5.07757e-06
-6.87294e-09
-5.02805e-06
-7.85395e-08
-4.9617e-06
-1.46526e-07
-4.88097e-06
-2.09094e-07
-4.78874e-06
-2.65521e-07
-4.68783e-06
-3.15788e-07
-4.58076e-06
-3.60112e-07
-4.46977e-06
-3.98684e-07
-4.35678e-06
-4.31543e-07
-4.24339e-06
-4.58446e-07
-4.13089e-06
-4.78829e-07
-4.0204e-06
-4.91819e-07
-3.91287e-06
-4.96349e-07
-3.80929e-06
-4.91397e-07
-3.71083e-06
-4.76362e-07
-3.61896e-06
-4.51662e-07
-3.53525e-06
-4.19465e-07
-3.46081e-06
-3.84419e-07
-3.39509e-06
-3.54007e-07
-3.3346e-06
-3.38315e-07
-3.27146e-06
-3.48563e-07
-3.19443e-06
-3.92546e-07
-3.09185e-06
-4.70767e-07
-2.95559e-06
-5.73651e-07
-2.78421e-06
-6.81464e-07
-2.58469e-06
-7.73377e-07
-2.36731e-06
-8.38772e-07
-2.14056e-06
-8.77861e-07
-1.90988e-06
-8.95714e-07
-1.67935e-06
-8.9635e-07
-1.45277e-06
-8.83194e-07
-1.23259e-06
-8.61726e-07
-1.01962e-06
-8.36319e-07
-8.13981e-07
-8.09532e-07
-6.15351e-07
-7.82603e-07
-4.23704e-07
-7.55315e-07
-2.39094e-07
-7.2739e-07
-6.18948e-08
-6.98003e-07
1.07406e-07
-6.66925e-07
2.67948e-07
-6.33869e-07
4.19332e-07
-5.98672e-07
5.61126e-07
-5.61851e-07
6.93131e-07
-5.24091e-07
8.15382e-07
-4.8615e-07
9.28125e-07
-4.48762e-07
1.03176e-06
-4.12549e-07
1.12677e-06
-3.77961e-07
1.21364e-06
-3.45271e-07
1.29281e-06
-3.14609e-07
1.36468e-06
-2.86021e-07
1.42965e-06
-2.5952e-07
1.48818e-06
-2.35113e-07
1.54087e-06
-2.12805e-07
1.58842e-06
-1.92577e-07
1.63159e-06
-1.74361e-07
1.67119e-06
-1.58015e-07
1.7079e-06
-1.43343e-07
1.74226e-06
-1.30124e-07
1.77462e-06
-1.18169e-07
1.80522e-06
-1.0735e-07
1.83419e-06
-9.76052e-08
1.86167e-06
-8.89227e-08
1.88777e-06
-8.13093e-08
1.91267e-06
-7.47595e-08
1.93654e-06
-6.92356e-08
1.95957e-06
-6.46619e-08
1.98194e-06
-6.09212e-08
2.00381e-06
-5.78672e-08
2.02528e-06
-5.53457e-08
2.04644e-06
-5.32057e-08
2.06732e-06
-5.13136e-08
2.0879e-06
-4.95659e-08
2.10817e-06
-4.7891e-08
2.12806e-06
-4.62423e-08
2.14753e-06
-4.45977e-08
2.16653e-06
-4.29517e-08