/*--------------------------------*- C++ -*----------------------------------*\
  =========                 |
  \\      /  F ield         | OpenFOAM: The Open Source CFD Toolbox
   \\    /   O peration     | Website:  https://openfoam.org
    \\  /    A nd           | Version:  7
     \\/     M anipulation  |
\*---------------------------------------------------------------------------*/
FoamFile
{
    version     2.0;
    format      ascii;
    class       surfaceScalarField;
    location    "0.048";
    object      phi_0;
}
// * * * * * * * * * * * * * * * * * * * * * * * * * * * * * * * * * * * * * //

dimensions      [0 3 -1 0 0 0 0];

internalField   nonuniform List<scalar> 
24170
(
1.37913e-06
1.97523e-07
1.24023e-06
1.38901e-07
1.10896e-06
1.31271e-07
9.98113e-07
1.10847e-07
8.99034e-07
9.90792e-08
7.99538e-07
9.9496e-08
6.9653e-07
1.03007e-07
5.96711e-07
9.98197e-08
5.07155e-07
8.9556e-08
4.29636e-07
7.75182e-08
3.62845e-07
6.67911e-08
3.05231e-07
5.76143e-08
2.56055e-07
4.9176e-08
2.14896e-07
4.11592e-08
1.80532e-07
3.43639e-08
1.50942e-07
2.95897e-08
1.23925e-07
2.70168e-08
1.3848e-08
1.10077e-07
1.6441e-06
2.58263e-07
1.62203e-06
1.60971e-07
1.58683e-06
1.66471e-07
1.54909e-06
1.48579e-07
1.5123e-06
1.35869e-07
1.47394e-06
1.37861e-07
1.43295e-06
1.44001e-07
1.38922e-06
1.4354e-07
1.34167e-06
1.37115e-07
1.28865e-06
1.30538e-07
1.23137e-06
1.2407e-07
1.1729e-06
1.16085e-07
1.11652e-06
1.05555e-07
1.06292e-06
9.47557e-08
1.01083e-06
8.64567e-08
9.60818e-07
7.95992e-08
9.11549e-07
7.62853e-08
6.97862e-08
8.55611e-07
1.75684e-06
2.61662e-07
1.73776e-06
1.8005e-07
1.73055e-06
1.73681e-07
1.72835e-06
1.50778e-07
1.72514e-06
1.39074e-07
1.71926e-06
1.4374e-07
1.7125e-06
1.50764e-07
1.70562e-06
1.50418e-07
1.69707e-06
1.4567e-07
1.68417e-06
1.43439e-07
1.6649e-06
1.4334e-07
1.63974e-06
1.41237e-07
1.61077e-06
1.34526e-07
1.58072e-06
1.24813e-07
1.5505e-06
1.16669e-07
1.52057e-06
1.09535e-07
1.4911e-06
1.05753e-07
1.01785e-07
1.4591e-06
1.92632e-06
3.65619e-07
1.90019e-06
2.06183e-07
1.88829e-06
1.85578e-07
1.87468e-06
1.64396e-07
1.86195e-06
1.51803e-07
1.852e-06
1.53685e-07
1.84633e-06
1.56437e-07
1.84552e-06
1.51227e-07
1.84873e-06
1.4246e-07
1.85371e-06
1.38455e-07
1.85691e-06
1.4014e-07
1.85557e-06
1.42584e-07
1.84828e-06
1.41817e-07
1.8358e-06
1.37287e-07
1.82025e-06
1.32217e-07
1.80318e-06
1.2661e-07
1.78701e-06
1.21916e-07
1.1723e-07
1.77157e-06
2.05474e-06
3.64136e-07
2.03777e-06
2.23157e-07
2.02804e-06
1.95303e-07
2.01525e-06
1.77185e-07
1.99869e-06
1.6837e-07
1.98518e-06
1.67193e-07
1.97962e-06
1.61993e-07
1.98233e-06
1.48517e-07
1.99093e-06
1.33858e-07
2.00207e-06
1.27321e-07
2.01168e-06
1.30534e-07
2.01616e-06
1.38098e-07
2.01357e-06
1.44409e-07
2.00443e-06
1.46428e-07
1.9919e-06
1.44747e-07
1.97869e-06
1.39822e-07
1.96802e-06
1.32587e-07
1.24697e-07
1.96055e-06
2.25001e-06
4.38497e-07
2.20545e-06
2.67712e-07
2.18365e-06
2.17103e-07
2.17134e-06
1.89497e-07
2.16751e-06
1.72204e-07
2.17182e-06
1.62884e-07
2.17799e-06
1.55821e-07
2.17997e-06
1.46537e-07
2.17681e-06
1.37014e-07
2.1712e-06
1.32931e-07
2.16528e-06
1.36459e-07
2.15892e-06
1.44455e-07
2.15112e-06
1.52213e-07
2.14156e-06
1.55988e-07
2.13184e-06
1.54467e-07
2.12343e-06
1.48222e-07
2.11794e-06
1.3808e-07
1.27277e-07
2.11536e-06
2.39729e-06
4.43699e-07
2.3722e-06
2.92808e-07
2.36032e-06
2.28976e-07
2.35092e-06
1.98897e-07
2.34439e-06
1.78741e-07
2.3433e-06
1.63973e-07
2.34599e-06
1.53131e-07
2.34881e-06
1.43714e-07
2.34901e-06
1.36818e-07
2.34596e-06
1.35977e-07
2.34033e-06
1.42087e-07
2.33287e-06
1.51919e-07
2.32425e-06
1.60831e-07
2.31512e-06
1.65121e-07
2.30653e-06
1.63053e-07
2.29928e-06
1.55473e-07
2.29367e-06
1.4369e-07
1.3133e-07
2.28962e-06
2.54705e-06
4.68721e-07
2.50879e-06
3.3106e-07
2.49929e-06
2.38483e-07
2.50297e-06
1.9521e-07
2.50959e-06
1.72125e-07
2.51458e-06
1.5898e-07
2.51681e-06
1.509e-07
2.51574e-06
1.44783e-07
2.51138e-06
1.41179e-07
2.5049e-06
1.42457e-07
2.49788e-06
1.49112e-07
2.4914e-06
1.58401e-07
2.48607e-06
1.66157e-07
2.48235e-06
1.68844e-07
2.48044e-06
1.64962e-07
2.48032e-06
1.55593e-07
2.48108e-06
1.42926e-07
1.30288e-07
2.48212e-06
2.72918e-06
4.62476e-07
2.72118e-06
3.39062e-07
2.71576e-06
2.43899e-07
2.71111e-06
1.99865e-07
2.70745e-06
1.75786e-07
2.70391e-06
1.62515e-07
2.69646e-06
1.58356e-07
2.68374e-06
1.57496e-07
2.66977e-06
1.55154e-07
2.66055e-06
1.51681e-07
2.65971e-06
1.49947e-07
2.66694e-06
1.51167e-07
2.67937e-06
1.53735e-07
2.6933e-06
1.54913e-07
2.70541e-06
1.52849e-07
2.71358e-06
1.47419e-07
2.71643e-06
1.40085e-07
1.32396e-07
2.71432e-06
2.95222e-06
3.80995e-07
2.9756e-06
3.15681e-07
2.96874e-06
2.50761e-07
2.94417e-06
2.24435e-07
2.90917e-06
2.10781e-07
2.88016e-06
1.91529e-07
2.86829e-06
1.70226e-07
2.87278e-06
1.53005e-07
2.88599e-06
1.41936e-07
2.90022e-06
1.37458e-07
2.91122e-06
1.38943e-07
2.91831e-06
1.44076e-07
2.92245e-06
1.49596e-07
2.92449e-06
1.52877e-07
2.92478e-06
1.52556e-07
2.92317e-06
1.49029e-07
2.91963e-06
1.43623e-07
1.37706e-07
2.91432e-06
3.17472e-06
3.87429e-07
3.16712e-06
3.23277e-07
3.14734e-06
2.70541e-07
3.13297e-06
2.38806e-07
3.12751e-06
2.16246e-07
3.12677e-06
1.92267e-07
3.12811e-06
1.68879e-07
3.1297e-06
1.51415e-07
3.12972e-06
1.41922e-07
3.12774e-06
1.39437e-07
3.12497e-06
1.41714e-07
3.12276e-06
1.46285e-07
3.12166e-06
1.50693e-07
3.12138e-06
1.53162e-07
3.12114e-06
1.52793e-07
3.12024e-06
1.49931e-07
3.11833e-06
1.45528e-07
1.40916e-07
3.11512e-06
2.86582e-06
4.18904e-07
2.83586e-06
3.53238e-07
2.8142e-06
2.92201e-07
2.80334e-06
2.49663e-07
2.80657e-06
2.13021e-07
2.81755e-06
1.81287e-07
2.82695e-06
1.59476e-07
2.82849e-06
1.49873e-07
2.82227e-06
1.48142e-07
2.81324e-06
1.48465e-07
2.8069e-06
1.48054e-07
2.80617e-06
1.47021e-07
2.81064e-06
1.46226e-07
2.81777e-06
1.4603e-07
2.82466e-06
1.45902e-07
2.82934e-06
1.45248e-07
2.83078e-06
1.44088e-07
1.41773e-07
2.82993e-06
3.48936e-06
4.3499e-07
3.48469e-06
3.5791e-07
3.454e-06
3.22894e-07
3.44178e-06
2.61876e-07
3.45553e-06
1.99274e-07
3.47645e-06
1.60366e-07
3.48456e-06
1.51366e-07
3.47457e-06
1.59861e-07
3.4559e-06
1.66812e-07
3.44153e-06
1.62843e-07
3.4389e-06
1.50682e-07
3.44734e-06
1.38581e-07
3.46108e-06
1.32477e-07
3.47362e-06
1.33495e-07
3.48056e-06
1.38961e-07
3.48049e-06
1.4532e-07
3.4745e-06
1.50078e-07
1.51556e-07
3.46472e-06
4.265e-06
3.64628e-07
4.24792e-06
3.74991e-07
4.21932e-06
3.51496e-07
4.21114e-06
2.70051e-07
4.21421e-06
1.96212e-07
4.21482e-06
1.59748e-07
4.21037e-06
1.55817e-07
4.20733e-06
1.629e-07
4.21229e-06
1.6185e-07
4.2262e-06
1.48935e-07
4.24459e-06
1.32295e-07
4.2614e-06
1.21774e-07
4.27226e-06
1.21617e-07
4.27584e-06
1.29912e-07
4.27324e-06
1.41559e-07
4.26698e-06
1.5158e-07
4.25967e-06
1.57386e-07
1.57733e-07
4.2535e-06
5.20862e-06
3.88165e-07
5.19314e-06
3.90472e-07
5.19671e-06
3.47927e-07
5.20781e-06
2.58951e-07
5.20694e-06
1.97083e-07
5.19638e-06
1.70299e-07
5.18761e-06
1.64595e-07
5.18674e-06
1.6377e-07
5.19113e-06
1.57462e-07
5.19493e-06
1.45128e-07
5.19523e-06
1.31997e-07
5.19355e-06
1.23452e-07
5.19337e-06
1.21801e-07
5.19723e-06
1.26047e-07
5.20527e-06
1.33522e-07
5.21566e-06
1.41189e-07
5.22566e-06
1.4739e-07
1.51601e-07
5.23179e-06
6.37756e-06
4.46985e-07
6.35285e-06
4.15181e-07
6.37429e-06
3.26482e-07
6.38801e-06
2.45237e-07
6.39093e-06
1.94157e-07
6.39084e-06
1.70395e-07
6.38991e-06
1.65522e-07
6.38652e-06
1.67158e-07
6.37848e-06
1.655e-07
6.36663e-06
1.56982e-07
6.35496e-06
1.43666e-07
6.34801e-06
1.304e-07
6.34831e-06
1.21503e-07
6.35544e-06
1.18911e-07
6.36719e-06
1.21776e-07
6.3805e-06
1.27881e-07
6.39328e-06
1.3461e-07
1.40193e-07
6.40469e-06
7.69664e-06
5.54197e-07
7.71218e-06
3.99644e-07
7.74e-06
2.98662e-07
7.74305e-06
2.42183e-07
7.73794e-06
1.9927e-07
7.73929e-06
1.69041e-07
7.74846e-06
1.56356e-07
7.75871e-06
1.56906e-07
7.76366e-06
1.60551e-07
7.76136e-06
1.59282e-07
7.75429e-06
1.50743e-07
7.74765e-06
1.37033e-07
7.74693e-06
1.22227e-07
7.75592e-06
1.09915e-07
7.77551e-06
1.02185e-07
7.80378e-06
9.96199e-08
7.83759e-06
1.00791e-07
1.05264e-07
7.87252e-06
9.5512e-06
4.175e-07
9.6016e-06
3.49238e-07
9.59537e-06
3.04895e-07
9.56587e-06
2.71685e-07
9.53314e-06
2.31997e-07
9.51517e-06
1.87019e-07
9.51638e-06
1.55142e-07
9.52861e-06
1.44675e-07
9.54067e-06
1.4849e-07
9.54613e-06
1.53821e-07
9.54502e-06
1.51855e-07
9.54126e-06
1.4079e-07
9.53972e-06
1.23769e-07
9.54402e-06
1.05615e-07
9.5558e-06
9.04084e-08
9.57468e-06
8.07434e-08
9.59891e-06
7.65616e-08
7.8135e-08
9.62603e-06
1.13943e-05
3.77887e-07
1.15572e-05
1.86325e-07
1.16374e-05
2.24721e-07
1.16451e-05
2.63945e-07
1.16244e-05
2.52687e-07
1.1597e-05
2.14467e-07
1.15756e-05
1.76561e-07
1.15712e-05
1.4902e-07
1.15905e-05
1.29203e-07
1.16322e-05
1.1212e-07
1.16884e-05
9.56517e-08
1.17485e-05
8.07306e-08
1.18031e-05
6.90976e-08
1.18468e-05
6.19805e-08
1.18776e-05
5.95548e-08
1.18973e-05
6.10579e-08
1.19087e-05
6.51326e-08
7.04656e-08
1.19164e-05
8.58453e-06
3.13328e-07
8.54648e-06
2.24376e-07
8.51534e-06
2.55861e-07
8.50776e-06
2.7152e-07
8.51913e-06
2.41324e-07
8.53956e-06
1.94031e-07
8.56712e-06
1.49003e-07
8.60346e-06
1.12683e-07
8.64549e-06
8.71738e-08
8.68585e-06
7.17619e-08
8.71809e-06
6.34046e-08
8.74038e-06
5.84462e-08
8.75554e-06
5.39346e-08
8.76856e-06
4.89627e-08
8.78329e-06
4.48274e-08
8.80106e-06
4.32848e-08
8.82101e-06
4.51824e-08
5.08869e-08
8.84059e-06
7.44716e-06
4.08556e-07
7.36614e-06
3.05402e-07
7.33505e-06
2.86948e-07
7.35007e-06
2.56499e-07
7.3744e-06
2.17001e-07
7.39636e-06
1.72064e-07
7.42334e-06
1.22023e-07
7.46172e-06
7.43011e-08
7.50942e-06
3.94814e-08
7.55776e-06
2.34196e-08
7.59873e-06
2.24324e-08
7.6282e-06
2.8978e-08
7.64587e-06
3.62649e-08
7.65408e-06
4.07547e-08
7.6568e-06
4.21091e-08
7.65813e-06
4.19522e-08
7.66166e-06
4.16507e-08
4.25397e-08
7.67001e-06
6.40368e-06
4.6244e-07
6.40329e-06
3.05796e-07
6.43754e-06
2.52692e-07
6.48194e-06
2.12107e-07
6.52963e-06
1.6931e-07
6.57445e-06
1.27245e-07
6.60789e-06
8.85779e-08
6.62648e-06
5.57089e-08
6.63519e-06
3.07788e-08
6.64282e-06
1.57841e-08
6.65455e-06
1.07031e-08
6.67038e-06
1.31447e-08
6.68732e-06
1.93291e-08
6.70214e-06
2.59392e-08
6.71348e-06
3.0769e-08
6.72207e-06
3.33614e-08
6.72985e-06
3.38685e-08
3.32886e-08
6.7391e-06
5.59811e-06
4.13126e-07
5.61548e-06
2.8843e-07
5.65544e-06
2.12729e-07
5.69261e-06
1.74936e-07
5.73063e-06
1.31291e-07
5.77178e-06
8.60912e-08
5.80859e-06
5.17666e-08
5.83456e-06
2.97473e-08
5.84864e-06
1.66943e-08
5.85397e-06
1.04596e-08
5.85498e-06
9.68601e-09
5.85549e-06
1.26397e-08
5.85781e-06
1.70108e-08
5.86271e-06
2.10311e-08
5.87028e-06
2.32059e-08
5.8803e-06
2.33342e-08
5.89251e-06
2.16667e-08
1.90597e-08
5.90673e-06
4.81196e-06
4.20247e-07
4.86908e-06
2.31305e-07
4.93307e-06
1.48742e-07
4.98443e-06
1.23579e-07
5.01827e-06
9.74478e-08
5.03773e-06
6.66285e-08
5.05221e-06
3.72861e-08
5.06946e-06
1.24968e-08
5.09111e-06
-4.95487e-09
5.115e-06
-1.34322e-08
5.1382e-06
-1.35086e-08
5.1586e-06
-7.75869e-09
5.17555e-06
5.34576e-11
5.18917e-06
7.41291e-09
5.20064e-06
1.17429e-08
5.21097e-06
1.29948e-08
5.22093e-06
1.17111e-08
8.93669e-09
5.23105e-06
4.27179e-06
4.15878e-07
4.32028e-06
1.8282e-07
4.37475e-06
9.42697e-08
4.42017e-06
7.81573e-08
4.44993e-06
6.76917e-08
4.46507e-06
5.14903e-08
4.47151e-06
3.0842e-08
4.47518e-06
8.82315e-09
4.4815e-06
-1.12701e-08
4.49168e-06
-2.36181e-08
4.5051e-06
-2.69272e-08
4.5206e-06
-2.32503e-08
4.53742e-06
-1.67729e-08
4.55583e-06
-1.09947e-08
4.57531e-06
-7.74024e-09
4.59521e-06
-6.90207e-09
4.61432e-06
-7.39962e-09
-8.00745e-09
4.63126e-06
3.73042e-06
4.08487e-07
3.75994e-06
1.53293e-07
3.80409e-06
5.01232e-08
3.84702e-06
3.52273e-08
3.885e-06
2.97118e-08
3.91976e-06
1.67309e-08
3.95104e-06
-4.34494e-10
3.97588e-06
-1.60165e-08
3.9934e-06
-2.87932e-08
4.00522e-06
-3.54355e-08
4.01388e-06
-3.55951e-08
4.02176e-06
-3.11304e-08
4.03002e-06
-2.50251e-08
4.03875e-06
-1.97327e-08
4.04733e-06
-1.63155e-08
4.05507e-06
-1.4645e-08
4.06162e-06
-1.39494e-08
-1.35926e-08
4.06721e-06
3.27667e-06
2.92329e-07
3.33116e-06
9.88013e-08
3.35801e-06
2.3275e-08
3.38927e-06
3.96962e-09
3.42836e-06
-9.37892e-09
3.46587e-06
-2.07809e-08
3.49244e-06
-2.70063e-08
3.50764e-06
-3.12095e-08
3.51523e-06
-3.63911e-08
3.52063e-06
-4.08299e-08
3.52736e-06
-4.23247e-08
3.53658e-06
-4.03471e-08
3.54752e-06
-3.5973e-08
3.55871e-06
-3.09147e-08
3.5688e-06
-2.64105e-08
3.5772e-06
-2.30403e-08
3.58387e-06
-2.06208e-08
-1.90464e-08
3.58932e-06
2.86474e-06
2.28219e-07
2.95242e-06
1.11206e-08
2.98533e-06
-9.63136e-09
3.00767e-06
-1.83762e-08
3.03068e-06
-3.23854e-08
3.05308e-06
-4.3182e-08
3.07083e-06
-4.47525e-08
3.08096e-06
-4.13466e-08
3.08416e-06
-3.95855e-08
3.08413e-06
-4.07994e-08
3.08455e-06
-4.27463e-08
3.08739e-06
-4.31943e-08
3.09294e-06
-4.15151e-08
3.10059e-06
-3.85653e-08
3.10954e-06
-3.53626e-08
3.11915e-06
-3.26547e-08
3.12899e-06
-3.04527e-08
-2.87204e-08
3.13866e-06
2.51536e-06
5.06782e-08
2.5804e-06
-5.39206e-08
2.60802e-06
-3.72557e-08
2.62948e-06
-3.98306e-08
2.64422e-06
-4.71318e-08
2.65204e-06
-5.10005e-08
2.657e-06
-4.97133e-08
2.66185e-06
-4.61923e-08
2.66605e-06
-4.37863e-08
2.66817e-06
-4.29185e-08
2.66765e-06
-4.22249e-08
2.66514e-06
-4.06821e-08
2.66192e-06
-3.83011e-08
2.6591e-06
-3.57433e-08
2.6572e-06
-3.3468e-08
2.65617e-06
-3.16245e-08
2.65564e-06
-2.9919e-08
-2.83188e-08
2.65524e-06
2.18228e-06
2.12836e-06
2.09111e-06
2.05128e-06
2.00414e-06
1.95314e-06
1.90343e-06
1.85724e-06
1.81345e-06
1.77053e-06
1.72831e-06
1.68763e-06
1.64933e-06
1.61358e-06
1.58011e-06
1.54849e-06
1.51857e-06
1.49025e-06
-9.99728e-09
9.99728e-09
7.21336e-08
-8.21308e-08
2.11026e-07
-1.38893e-07
3.73754e-07
-1.62727e-07
5.43488e-07
-1.69735e-07
7.13091e-07
-1.69603e-07
8.80015e-07
-1.66924e-07
1.04341e-06
-1.6339e-07
1.2027e-06
-1.59293e-07
1.35699e-06
-1.54291e-07
1.50477e-06
-1.47783e-07
1.6438e-06
-1.39027e-07
1.77107e-06
-1.27272e-07
1.88286e-06
-1.11792e-07
1.975e-06
-9.21383e-08
2.04293e-06
-6.79308e-08
2.08235e-06
-3.94161e-08
2.08983e-06
-7.48628e-09
2.06091e-06
2.89262e-08
1.99333e-06
6.75829e-08
1.88586e-06
1.07465e-07
1.74036e-06
1.45498e-07
1.55787e-06
1.82497e-07
1.34622e-06
2.1165e-07
1.10952e-06
2.367e-07
8.59226e-07
2.5029e-07
6.34445e-07
2.24781e-07
4.16237e-07
2.18208e-07
2.91313e-07
1.24924e-07
2.83258e-07
8.05477e-09
2.84247e-07
-9.89289e-10
3.65407e-07
-8.11598e-08
6.20223e-07
-2.54816e-07
8.11126e-07
-1.90904e-07
8.66491e-07
-5.53644e-08
8.41178e-07
2.53127e-08
6.42582e-07
1.98597e-07
1.70499e-07
4.72083e-07
-4.83331e-07
6.5383e-07
-1.15002e-06
6.66693e-07
-1.75518e-06
6.05153e-07
-2.27946e-06
5.24283e-07
-2.73139e-06
4.51927e-07
-3.12016e-06
3.8877e-07
-3.45537e-06
3.35215e-07
-3.74557e-06
2.902e-07
-3.99753e-06
2.51958e-07
-4.21643e-06
2.18895e-07
-4.40594e-06
1.89513e-07
-4.5686e-06
1.62665e-07
-4.7061e-06
1.37501e-07
-4.8196e-06
1.13497e-07
-4.90997e-06
9.03664e-08
-4.97796e-06
6.79899e-08
-5.02436e-06
4.63978e-08
-5.05004e-06
2.56797e-08
-5.05594e-06
5.90659e-09
-5.04402e-06
-1.19248e-08
-5.01526e-06
-2.87585e-08
-4.97074e-06
-4.45217e-08
-4.91163e-06
-5.91069e-08
-4.83895e-06
-7.2684e-08
-4.75374e-06
-8.5207e-08
-4.65719e-06
-9.65533e-08
-4.55071e-06
-1.06479e-07
-4.43607e-06
-1.14636e-07
-4.31546e-06
-1.20608e-07
-4.19148e-06
-1.2398e-07
-4.06702e-06
-1.24462e-07
-3.94498e-06
-1.22036e-07
-3.8279e-06
-1.17085e-07
-3.71743e-06
-1.10473e-07
-3.61388e-06
-1.03548e-07
-3.51583e-06
-9.80485e-08
-3.41995e-06
-9.58771e-08
-3.32122e-06
-9.87282e-08
-3.21357e-06
-1.07657e-07
-3.09102e-06
-1.22551e-07
-2.9494e-06
-1.4162e-07
-2.78752e-06
-1.61873e-07
-2.60704e-06
-1.80483e-07
-2.41167e-06
-1.95369e-07
-2.20607e-06
-2.05604e-07
-1.99486e-06
-2.11209e-07
-1.78214e-06
-2.12716e-07
-1.57109e-06
-2.11048e-07
-1.36386e-06
-2.07233e-07
-1.16187e-06
-2.01987e-07
-9.65924e-07
-1.9595e-07
-7.76483e-07
-1.89441e-07
-5.93889e-07
-1.82594e-07
-4.18472e-07
-1.75417e-07
-2.50617e-07
-1.67855e-07
-9.0808e-08
-1.59809e-07
6.05379e-08
-1.51346e-07
2.03108e-07
-1.4257e-07
3.36429e-07
-1.33321e-07
4.60232e-07
-1.23803e-07
5.74422e-07
-1.1419e-07
6.79067e-07
-1.04645e-07
7.74381e-07
-9.5314e-08
8.60694e-07
-8.63134e-08
9.38422e-07
-7.77278e-08
1.00803e-06
-6.96086e-08
1.07001e-06
-6.19789e-08
1.12485e-06
-5.48398e-08
1.17303e-06
-4.81793e-08
1.21501e-06
-4.19792e-08
1.25123e-06
-3.6222e-08
1.28212e-06
-3.08937e-08
1.30811e-06
-2.59855e-08
1.3296e-06
-2.14957e-08
1.34703e-06
-1.74215e-08
1.36079e-06
-1.37616e-08
1.3713e-06
-1.05124e-08
1.37896e-06
-7.65606e-09
1.38413e-06
-5.17544e-09
1.38717e-06
-3.03696e-09
1.38836e-06
-1.19367e-09
1.38798e-06
3.86808e-10
1.38623e-06
1.74103e-09
1.38331e-06
2.92341e-09
1.37939e-06
3.92024e-09
1.37463e-06
4.75713e-09
1.36916e-06
5.47181e-09
1.3631e-06
6.06618e-09
1.35656e-06
6.53363e-09
1.34969e-06
6.87394e-09
1.3426e-06
7.09155e-09
1.3354e-06
7.19553e-09
1.3282e-06
7.19822e-09
1.32109e-06
7.11548e-09
1.31412e-06
6.96466e-09
1.30736e-06
6.76227e-09
1.30084e-06
6.52397e-09
1.29457e-06
6.26636e-09
1.28856e-06
6.00607e-09
1.28281e-06
5.75397e-09
1.2773e-06
5.51115e-09
1.27202e-06
5.27548e-09
1.26697e-06
5.05188e-09
1.26212e-06
4.85265e-09
1.25743e-06
4.68771e-09
1.25287e-06
4.55735e-09
1.24842e-06
4.45432e-09
1.24405e-06
4.36806e-09
1.23976e-06
4.29415e-09
1.23553e-06
4.23078e-09
1.23135e-06
4.17771e-09
1.22721e-06
4.13447e-09
1.22311e-06
4.10177e-09
1.21903e-06
4.08159e-09
1.21495e-06
4.0768e-09
1.21086e-06
4.09097e-09
1.20674e-06
4.1241e-09
1.20256e-06
4.17629e-09
1.19832e-06
4.24686e-09
1.19398e-06
4.33477e-09
1.18954e-06
4.44126e-09
1.18497e-06
4.56592e-09
1.18026e-06
4.71486e-09
1.17537e-06
4.8893e-09
1.17027e-06
5.10433e-09
1.16491e-06
5.35609e-09
1.15923e-06
5.68123e-09
1.15317e-06
6.05506e-09
1.1466e-06
6.57185e-09
1.13946e-06
7.13848e-09
1.13146e-06
8.00372e-09
1.1226e-06
8.8635e-09
1.11219e-06
1.04061e-08
1.10051e-06
1.16779e-08
1.08586e-06
1.46564e-08
1.06948e-06
1.63794e-08
1.04676e-06
2.27188e-08
1.02231e-06
2.44449e-08
9.82692e-07
3.96202e-08
9.43693e-07
3.89994e-08
8.6417e-07
7.95227e-08
6.65968e-08
7.97573e-07
5.15959e-08
-4.15986e-08
1.77956e-07
-2.08491e-07
3.25564e-07
-2.86501e-07
4.7552e-07
-3.12683e-07
6.24316e-07
-3.1853e-07
7.72827e-07
-3.18114e-07
9.22074e-07
-3.16171e-07
1.07235e-06
-3.13664e-07
1.2232e-06
-3.10143e-07
1.37342e-06
-3.04514e-07
1.52102e-06
-2.95383e-07
1.66319e-06
-2.8119e-07
1.79623e-06
-2.60321e-07
1.91592e-06
-2.31473e-07
2.01772e-06
-1.93942e-07
2.09717e-06
-1.47385e-07
2.15e-06
-9.22413e-08
2.17195e-06
-2.94372e-08
2.16312e-06
3.77524e-08
2.12403e-06
1.06676e-07
2.05522e-06
1.76271e-07
1.95995e-06
2.40773e-07
1.83936e-06
3.03086e-07
1.70118e-06
3.49829e-07
1.55252e-06
3.85357e-07
1.39476e-06
4.08053e-07
1.22738e-06
3.92158e-07
1.09924e-06
3.46354e-07
9.65248e-07
2.58914e-07
8.86082e-07
8.7221e-08
9.9874e-07
-1.13647e-07
1.00279e-06
-8.52149e-08
7.46492e-07
1.48714e-09
3.53089e-07
2.02499e-07
-2.54989e-07
5.52714e-07
-9.93961e-07
7.64285e-07
-1.70527e-06
9.09906e-07
-2.2548e-06
1.02162e-06
-2.66607e-06
1.06509e-06
-3.01481e-06
1.01544e-06
-3.33021e-06
9.20553e-07
-3.61869e-06
8.12765e-07
-3.87793e-06
7.11163e-07
-4.10979e-06
6.20635e-07
-4.31721e-06
5.42636e-07
-4.50289e-06
4.75874e-07
-4.66875e-06
4.1782e-07
-4.81589e-06
3.66037e-07
-4.94518e-06
3.18805e-07
-5.0569e-06
2.74384e-07
-5.15086e-06
2.31454e-07
-5.22682e-06
1.8946e-07
-5.28471e-06
1.48258e-07
-5.32462e-06
1.07904e-07
-5.34678e-06
6.8552e-08
-5.35168e-06
3.05795e-08
-5.34e-06
-5.76857e-09
-5.31184e-06
-4.00867e-08
-5.26795e-06
-7.26479e-08
-5.20914e-06
-1.03333e-07
-5.13618e-06
-1.32069e-07
-5.05007e-06
-1.58798e-07
-4.95187e-06
-1.83401e-07
-4.84282e-06
-2.05605e-07
-4.72437e-06
-2.24933e-07
-4.59831e-06
-2.40696e-07
-4.46685e-06
-2.5206e-07
-4.33265e-06
-2.58182e-07
-4.19868e-06
-2.58435e-07
-4.06801e-06
-2.52706e-07
-3.94338e-06
-2.41711e-07
-3.82666e-06
-2.27194e-07
-3.71826e-06
-2.11951e-07
-3.61666e-06
-1.99653e-07
-3.51812e-06
-1.94408e-07
-3.41691e-06
-1.99942e-07
-3.30598e-06
-2.18585e-07
-3.17827e-06
-2.50259e-07
-3.02849e-06
-2.91406e-07
-2.85561e-06
-3.34746e-07
-2.66227e-06
-3.73827e-07
-2.45339e-06
-4.04248e-07
-2.23464e-06
-4.24359e-07
-2.01116e-06
-4.34683e-07
-1.78729e-06
-4.36588e-07
-1.56625e-06
-4.32089e-07
-1.34993e-06
-4.23549e-07
-1.13941e-06
-4.12507e-07
-9.35149e-07
-4.00213e-07
-7.37352e-07
-3.87239e-07
-5.46162e-07
-3.73784e-07
-3.61786e-07
-3.59793e-07
-1.84616e-07
-3.45025e-07
-1.51438e-08
-3.29281e-07
1.46782e-07
-3.13271e-07
3.00053e-07
-2.95841e-07
4.44451e-07
-2.77719e-07
5.79768e-07
-2.5912e-07
7.05948e-07
-2.40369e-07
8.23105e-07
-2.21802e-07
9.31508e-07
-2.03717e-07
1.03155e-06
-1.86357e-07
1.12372e-06
-1.69892e-07
1.20853e-06
-1.54423e-07
1.28654e-06
-1.39986e-07
1.35826e-06
-1.26562e-07
1.42418e-06
-1.14099e-07
1.48473e-06
-1.02528e-07
1.54029e-06
-9.17795e-08
1.59119e-06
-8.17945e-08
1.63774e-06
-7.25341e-08
1.68022e-06
-6.39797e-08
1.71892e-06
-5.61268e-08
1.75414e-06
-4.89806e-08
1.78618e-06
-4.25488e-08
1.81535e-06
-3.68283e-08
1.84198e-06
-3.1807e-08
1.8664e-06
-2.74569e-08
1.88894e-06
-2.37298e-08
1.9099e-06
-2.05736e-08
1.92956e-06
-1.79187e-08
1.94816e-06
-1.56753e-08
1.96586e-06
-1.37782e-08
1.98278e-06
-1.21698e-08
1.99903e-06
-1.07753e-08
2.01465e-06
-9.55238e-09
2.02966e-06
-8.47453e-09
2.04406e-06
-7.52432e-09
2.05783e-06
-6.68638e-09
2.07098e-06
-5.94831e-09
2.08348e-06
-5.30068e-09
2.09533e-06
-4.73461e-09
2.10653e-06
-4.23926e-09
2.1171e-06
-3.80283e-09
2.12703e-06
-3.41462e-09
2.13636e-06
-3.06229e-09
2.1451e-06
-2.72833e-09
2.15325e-06
-2.39723e-09
2.16083e-06
-2.06581e-09
2.16784e-06
-1.73873e-09
2.1743e-06
-1.41054e-09
2.18021e-06
-1.0582e-09
2.18556e-06
-6.56034e-10
2.19031e-06
-1.96915e-10
2.19448e-06
2.87605e-10
2.19806e-06
7.81778e-10
2.20108e-06
1.2797e-09
2.20353e-06
1.77631e-09
2.20544e-06
2.26865e-09
2.20682e-06
2.75526e-09
2.20769e-06
3.23715e-09
2.20805e-06
3.71622e-09
2.20794e-06
4.19246e-09
2.20736e-06
4.66976e-09
2.20634e-06
5.14595e-09
2.20489e-06
5.6223e-09
2.20304e-06
6.09793e-09
2.2008e-06
6.57442e-09
2.19818e-06
7.05633e-09
2.1952e-06
7.54443e-09
2.19187e-06
8.04966e-09
2.18818e-06
8.57535e-09
2.18414e-06
9.14707e-09
2.17974e-06
9.76014e-09
2.17494e-06
1.04799e-08
2.16973e-06
1.12652e-08
2.16402e-06
1.22852e-08
2.15778e-06
1.33704e-08
2.15081e-06
1.49724e-08
2.14315e-06
1.65237e-08
2.13429e-06
1.92732e-08
2.12449e-06
2.14758e-08
2.11252e-06
2.66306e-08
2.0993e-06
2.95927e-08
2.08184e-06
4.0177e-08
2.06266e-06
4.3632e-08
2.03497e-06
6.73067e-08
2.00403e-06
6.99367e-08
1.95702e-06
1.26535e-07
1.26822e-07
1.8968e-06
1.0825e-07
-1.49849e-07
2.49281e-07
-3.49521e-07
3.78764e-07
-4.15985e-07
5.00125e-07
-4.34043e-07
6.21928e-07
-4.40333e-07
7.48682e-07
-4.44869e-07
8.81789e-07
-4.49277e-07
1.0212e-06
-4.53072e-07
1.16602e-06
-4.5497e-07
1.31457e-06
-4.5306e-07
1.46422e-06
-4.45038e-07
1.61125e-06
-4.2822e-07
1.75081e-06
-3.99878e-07
1.8771e-06
-3.5776e-07
1.98378e-06
-3.00627e-07
2.06441e-06
-2.28013e-07
2.11354e-06
-1.41367e-07
2.1282e-06
-4.40983e-08
2.1061e-06
5.98461e-08
2.04739e-06
1.65389e-07
1.9562e-06
2.67457e-07
1.83807e-06
3.58911e-07
1.70255e-06
4.38603e-07
1.54818e-06
5.04202e-07
1.3838e-06
5.49732e-07
1.223e-06
5.68852e-07
1.06126e-06
5.539e-07
9.03646e-07
5.03968e-07
7.47444e-07
4.15117e-07
6.41901e-07
1.92764e-07
4.26103e-07
1.02151e-07
-2.30349e-08
3.63923e-07
-7.39955e-07
7.18407e-07
-1.46092e-06
9.23459e-07
-2.02539e-06
1.11718e-06
-2.5137e-06
1.2526e-06
-2.92897e-06
1.32518e-06
-3.2372e-06
1.32984e-06
-3.44598e-06
1.27388e-06
-3.61004e-06
1.1795e-06
-3.76272e-06
1.07324e-06
-3.91695e-06
9.66996e-07
-4.07351e-06
8.67715e-07
-4.2311e-06
7.78226e-07
-4.38708e-06
6.98622e-07
-4.53864e-06
6.2743e-07
-4.68294e-06
5.62122e-07
-4.81741e-06
5.00506e-07
-4.93927e-06
4.40666e-07
-5.04623e-06
3.81345e-07
-5.13655e-06
3.21772e-07
-5.20883e-06
2.61744e-07
-5.26208e-06
2.01502e-07
-5.29572e-06
1.41543e-07
-5.30965e-06
8.24882e-08
-5.30399e-06
2.49129e-08
-5.28039e-06
-2.93674e-08
-5.2401e-06
-8.03688e-08
-5.18436e-06
-1.28394e-07
-5.11452e-06
-1.73167e-07
-5.032e-06
-2.14591e-07
-4.93817e-06
-2.52632e-07
-4.83437e-06
-2.87196e-07
-4.72197e-06
-3.18006e-07
-4.60239e-06
-3.44519e-07
-4.47719e-06
-3.6589e-07
-4.34823e-06
-3.81026e-07
-4.21768e-06
-3.88732e-07
-4.08813e-06
-3.87984e-07
-3.96249e-06
-3.78341e-07
-3.84373e-06
-3.60471e-07
-3.7343e-06
-3.36628e-07
-3.63534e-06
-3.10909e-07
-3.54582e-06
-2.89169e-07
-3.46173e-06
-2.78501e-07
-3.37589e-06
-2.85783e-07
-3.27898e-06
-3.15499e-07
-3.16139e-06
-3.67849e-07
-3.01592e-06
-4.36869e-07
-2.84111e-06
-5.09561e-07
-2.64144e-06
-5.73492e-07
-2.42441e-06
-6.21279e-07
-2.19756e-06
-6.51216e-07
-1.96695e-06
-6.65291e-07
-1.73738e-06
-6.66154e-07
-1.51251e-06
-6.56963e-07
-1.29421e-06
-6.41844e-07
-1.08315e-06
-6.23569e-07
-8.79338e-07
-6.04027e-07
-6.82568e-07
-5.84009e-07
-4.9274e-07
-5.63613e-07
-3.09887e-07
-5.42646e-07
-1.34312e-07
-5.20599e-07
3.37731e-08
-4.97367e-07
1.93529e-07
-4.73027e-07
3.44648e-07
-4.4696e-07
4.86644e-07
-4.19716e-07
6.19267e-07
-3.91742e-07
7.42461e-07
-3.63563e-07
8.56358e-07
-3.357e-07
9.61256e-07
-3.08614e-07
1.05758e-06
-2.82676e-07
1.14584e-06
-2.58154e-07
1.22663e-06
-2.3522e-07
1.30061e-06
-2.1396e-07
1.36843e-06
-1.94381e-07
1.43075e-06
-1.76426e-07
1.48821e-06
-1.59987e-07
1.54135e-06
-1.44923e-07
1.59064e-06
-1.31082e-07
1.63644e-06
-1.18328e-07
1.67901e-06
-1.06555e-07
1.71859e-06
-9.57021e-08
1.75535e-06
-8.57492e-08
1.78951e-06
-7.67061e-08
1.82128e-06
-6.8592e-08
1.85089e-06
-6.14202e-08
1.87862e-06
-5.51867e-08
1.90475e-06
-4.98572e-08
1.92954e-06
-4.53697e-08
1.95327e-06
-4.16426e-08
1.97616e-06
-3.85657e-08
1.9984e-06
-3.60192e-08
2.02012e-06
-3.38905e-08
2.04141e-06
-3.20694e-08
2.06232e-06
-3.04614e-08
2.08285e-06
-2.90008e-08
2.10297e-06
-2.76469e-08
2.12265e-06
-2.63665e-08
2.14184e-06
-2.51414e-08
2.16051e-06
-2.39626e-08
2.1786e-06
-2.28272e-08
2.19609e-06
-2.17341e-08
2.21297e-06
-2.06822e-08
2.22923e-06
-1.96692e-08
2.24485e-06
-1.86877e-08
2.25985e-06
-1.7725e-08
2.27422e-06
-1.677e-08
2.28797e-06
-1.58187e-08
2.3011e-06
-1.48672e-08
2.3136e-06
-1.39028e-08
2.32545e-06
-1.2908e-08
2.33666e-06
-1.18741e-08
2.34727e-06
-1.08026e-08
2.35726e-06
-9.69976e-09
2.36661e-06
-8.57189e-09
2.37531e-06
-7.42387e-09
2.38335e-06
-6.26378e-09
2.39072e-06
-5.09833e-09
2.39741e-06
-3.93087e-09
2.40341e-06
-2.76152e-09
2.40871e-06
-1.58815e-09
2.41332e-06
-4.16013e-10
2.41723e-06
7.5553e-10
2.42047e-06
1.90611e-09
2.42306e-06
3.03538e-09
2.42502e-06
4.14077e-09
2.42637e-06
5.22384e-09
2.42713e-06
6.29059e-09
2.42734e-06
7.33845e-09
2.427e-06
8.38448e-09
2.42615e-06
9.42755e-09
2.42479e-06
1.0506e-08
2.42295e-06
1.16045e-08
2.42061e-06
1.28151e-08
2.41781e-06
1.40726e-08
2.41449e-06
1.56013e-08
2.41068e-06
1.7181e-08
2.40628e-06
1.937e-08
2.4013e-06
2.15014e-08
2.39557e-06
2.50057e-08
2.38905e-06
2.79925e-08
2.38151e-06
3.41763e-08
2.37269e-06
3.84116e-08
2.36256e-06
5.03075e-08
2.34986e-06
5.63332e-08
2.33622e-06
8.09412e-08
2.31625e-06
8.99072e-08
2.29956e-06
1.43232e-07
1.61171e-07
2.26521e-06
1.30493e-07
-2.80342e-07
2.5607e-07
-4.75098e-07
3.6139e-07
-5.21305e-07
4.63847e-07
-5.36499e-07
5.72258e-07
-5.48745e-07
6.89087e-07
-5.61698e-07
8.15108e-07
-5.75299e-07
9.50603e-07
-5.88567e-07
1.09498e-06
-5.99343e-07
1.24641e-06
-6.0449e-07
1.40168e-06
-6.00316e-07
1.5559e-06
-5.8244e-07
1.7025e-06
-5.46471e-07
1.83361e-06
-4.8887e-07
1.94095e-06
-4.07968e-07
2.01658e-06
-3.03643e-07
2.05444e-06
-1.79223e-07
2.051e-06
-4.0661e-08
2.0027e-06
1.08141e-07
1.91114e-06
2.56956e-07
1.78194e-06
3.96654e-07
1.6201e-06
5.20746e-07
1.43557e-06
6.23137e-07
1.24284e-06
6.96937e-07
1.05462e-06
7.3795e-07
8.67604e-07
7.55864e-07
6.63727e-07
7.57777e-07
4.6389e-07
7.03806e-07
3.15637e-07
5.63369e-07
-5.72662e-08
5.65667e-07
-7.6367e-07
8.08555e-07
-1.44379e-06
1.04404e-06
-1.97606e-06
1.25068e-06
-2.4609e-06
1.4083e-06
-2.85478e-06
1.51106e-06
-3.154e-06
1.55183e-06
-3.37142e-06
1.54259e-06
-3.52657e-06
1.48499e-06
-3.64868e-06
1.39599e-06
-3.75932e-06
1.29013e-06
-3.86989e-06
1.18381e-06
-3.98634e-06
1.08345e-06
-4.11069e-06
9.92065e-07
-4.24176e-06
9.09292e-07
-4.37622e-06
8.33085e-07
-4.50989e-06
7.61103e-07
-4.63854e-06
6.90772e-07
-4.75817e-06
6.20135e-07
-4.86518e-06
5.47671e-07
-4.95641e-06
4.72584e-07
-5.02933e-06
3.94688e-07
-5.08206e-06
3.14469e-07
-5.11357e-06
2.33018e-07
-5.12364e-06
1.51615e-07
-5.11238e-06
7.12263e-08
-5.08018e-06
-7.29211e-09
-5.03071e-06
-7.88314e-08
-4.96442e-06
-1.46661e-07
-4.88375e-06
-2.09062e-07
-4.79159e-06
-2.65327e-07
-4.69073e-06
-3.1545e-07
-4.5837e-06
-3.59661e-07
-4.47274e-06
-3.98164e-07
-4.35974e-06
-4.31007e-07
-4.24629e-06
-4.5796e-07
-4.13372e-06
-4.7846e-07
-4.02311e-06
-4.91636e-07
-3.91543e-06
-4.96412e-07
-3.81167e-06
-4.91747e-07
-3.71299e-06
-4.77018e-07
-3.62086e-06
-4.52601e-07
-3.53687e-06
-4.20619e-07
-3.46212e-06
-3.85662e-07
-3.39613e-06
-3.55161e-07
-3.33546e-06
-3.3917e-07
-3.27231e-06
-3.48935e-07
-3.19545e-06
-3.92362e-07
-3.09319e-06
-4.7011e-07
-2.95729e-06
-5.72767e-07
-2.78617e-06
-6.80682e-07
-2.58671e-06
-7.72943e-07
-2.36923e-06
-8.38761e-07
-2.14226e-06
-8.7819e-07
-1.91131e-06
-8.96243e-07
-1.6805e-06
-8.9696e-07
-1.45369e-06
-8.83778e-07
-1.23332e-06
-8.62208e-07
-1.02023e-06
-8.36658e-07
-8.14541e-07
-8.09719e-07
-6.15905e-07
-7.82644e-07
-4.24294e-07
-7.55224e-07
-2.39755e-07
-7.27185e-07
-6.26501e-08
-6.97704e-07
1.06537e-07
-6.66554e-07
2.66954e-07
-6.33444e-07
4.18207e-07
-5.98214e-07
5.59871e-07
-5.61379e-07
6.91749e-07
-5.2362e-07
8.1388e-07
-4.85694e-07
9.26511e-07
-4.48331e-07
1.03005e-06
-4.12149e-07
1.12496e-06
-3.77595e-07
1.21175e-06
-3.44939e-07
1.29084e-06
-3.1431e-07
1.36263e-06
-2.85753e-07
1.42753e-06
-2.59281e-07
1.48601e-06
-2.34903e-07
1.53865e-06
-2.12623e-07
1.58615e-06
-1.92423e-07
1.6293e-06
-1.74231e-07
1.66888e-06
-1.57908e-07
1.70557e-06
-1.43253e-07
1.73992e-06
-1.3005e-07
1.77228e-06
-1.18108e-07
1.80288e-06
-1.073e-07
1.83185e-06
-9.75667e-08
1.85933e-06
-8.88958e-08
1.88543e-06
-8.12942e-08
1.91033e-06
-7.47561e-08
1.93421e-06
-6.92431e-08
1.95724e-06
-6.46789e-08
1.97962e-06
-6.09457e-08
2.0015e-06
-5.78969e-08
2.02299e-06
-5.53781e-08
2.04416e-06
-5.32386e-08
2.06504e-06
-5.13454e-08
2.08564e-06
-4.95952e-08
2.10591e-06
-4.7917e-08
2.1258e-06
-4.62647e-08
2.14528e-06
-4.46165e-08
2.16428e-06
-4.29673e-08
2.18278e-06
-4.1322e-08