/*--------------------------------*- C++ -*----------------------------------*\
  =========                 |
  \\      /  F ield         | OpenFOAM: The Open Source CFD Toolbox
   \\    /   O peration     | Website:  https://openfoam.org
    \\  /    A nd           | Version:  7
     \\/     M anipulation  |
\*---------------------------------------------------------------------------*/
FoamFile
{
    version     2.0;
    format      ascii;
    class       volScalarField;
    location    "0.048";
    object      s;
}
// * * * * * * * * * * * * * * * * * * * * * * * * * * * * * * * * * * * * * //

dimensions      [0 0 0 0 0 0 0];

internalField   nonuniform List<scalar> 
12225
(
1
1
1
1
1
1
1
1
1
1
1
1
1
1
1
1
1
1
1
1
1
1
1
1
1
1
1
1
1
1
1
1
1
1
1
1
1
1
1
1
1
1
1
1
1
1
1
1
1
1
1
1
1
1
1
1
1
1
1
1
1
1
1
1
1
1
1
1
1
1
1
1
1
1
1
1
1
1
1
1
1
1
1
1
1
1
1
1
1
1
1
1
1
1
1
1
1
1
1
1
1
1
1
1
1
1
1
1
1
1
1
1
1
1
1
1
1
1
1
1
1
1
1
1
1
1
1
1
1
1
1
1
1
1
1
1
1
1
1
1
1
1
1
1
1
1
1
1
1
1
1
1
1
1
1
1
1
1
1
1
1
1
1
1
1
1
1
1
1
1
1
1
1
1
1
1
1
1
1
1
1
1
1
1
1
1
1
1
1
1
1
1
1
1
1
1
1
1
1
1
1
1
1
1
1
1
1
1
1
1
1
1
1
1
1
1
1
1
1
1
1
1
1
1
1
1
1
1
1
1
1
1
1
1
1
1
1
1
1
1
1
1
1
1
1
1
1
1
1
1
1
1
1
1
1
1
1
1
1
1
1
1
1
1
1
1
1
1
1
1
1
1
1
1
1
1
1
1
1
1
1
1
1
1
1
1
1
1
1
1
1
1
1
1
1
1
1
1
1
1
1
1
1
1
1
1
1
1
1
1
1
1
1
1
1
1
1
1
1
1
1
1
1
1
1
1
1
1
1
1
1
1
1
1
1
1
1
1
1
1
1
1
1
1
1
1
1
1
1
1
1
1
1
1
1
1
1
1
1
1
1
1
1
1
1
1
1
1
1
1
1
1
1
1
1
1
1
1
1
1
1
1
1
1
1
1
1
1
1
1
1
1
1
1
1
1
1
1
1
1
1
1
1
1
1
1
1
1
1
1
1
1
1
1
1
1
1
1
1
1
1
1
1
1
1
1
1
1
1
1
1
1
1
1
1
1
1
1
1
1
1
1
1
1
1
1
1
1
1
1
1
1
1
1
1
1
1
1
1
1
1
1
1
1
1
1
1
1
1
1
1
1
1
1
1
1
1
1
1
1
1
1
1
1
1
1
1
1
1
1
1
1
1
1
1
1
1
1
1
1
1
1
1
1
1
1
1
1
1
1
1
1
1
1
1
1
1
1
1
1
1
1
1
1
1
1
1
1
1
1
1
1
1
1
1
1
1
1
1
1
1.24788e-08
1.24378e-06
8.64568e-06
3.08099e-05
8.19926e-05
0.000191505
0.000375364
0.000895114
0.00138693
0.0024934
0.00378638
0.00519071
0.0067202
0.00798118
0.00911498
0.0096531
0.00949739
0.0089711
0.00800097
0.00709325
0.00624511
0.005435
0.00462824
0.003824
0.00300639
0.00219483
0.00141605
0.000733804
0.000270286
7.89225e-05
7.86076e-05
0.000365953
0.00191416
0.0131866
0.0187252
0.0176988
0.0416809
0.251089
0.456675
0.580585
0.629118
0.640313
0.642
0.641664
0.638914
0.63257
0.623049
0.612514
0.603823
0.598197
0.593228
0.584809
0.578235
0.576865
0.576717
0.577515
0.580515
0.585928
0.590659
0.595999
0.600884
0.605763
0.610477
0.614626
0.617548
0.618696
0.619058
0.618836
0.616593
0.611718
0.605412
0.598888
0.592548
0.58739
0.58498
0.583839
0.583411
0.583331
0.583166
0.580556
0.575002
0.566213
0.554155
0.538405
0.519032
0.497051
0.472019
0.444365
0.414687
0.383018
0.349723
0.315203
0.279855
0.244187
0.209022
0.175187
0.144088
0.117264
0.095502
0.0762135
0.0591253
0.0445023
0.0324916
0.0230532
0.0159277
0.0106913
0.00693547
0.00434018
0.0026198
0.00152442
0.000854059
0.000460239
0.000238367
0.000118556
5.656e-05
2.58267e-05
1.12451e-05
4.63775e-06
1.78045e-06
6.28931e-07
2.15965e-07
7.18877e-08
2.31434e-08
7.19691e-09
2.18378e-09
5.59611e-10
1.71333e-10
6.98684e-11
2.70224e-11
1.01565e-11
3.7578e-12
1.37011e-12
4.90695e-13
1.72197e-13
5.91798e-14
1.99328e-14
6.58623e-15
2.13643e-15
6.80586e-16
2.12954e-16
6.54555e-17
1.97657e-17
5.86459e-18
1.70996e-18
4.90058e-19
1.38072e-19
3.82491e-20
1.04195e-20
2.79141e-21
7.35508e-22
1.90622e-22
4.85967e-23
1.21875e-23
3.00691e-24
7.29849e-25
1.74287e-25
4.09468e-26
9.46451e-27
2.15226e-27
4.81505e-28
1.05973e-28
2.29428e-29
4.88549e-30
1.02309e-30
2.10651e-31
4.2631e-32
8.47669e-33
1.65511e-33
3.17137e-34
5.95786e-35
1.09631e-35
1.97296e-36
3.46778e-37
5.93692e-38
9.88228e-39
1.59057e-39
2.47024e-40
3.65204e-41
5.13683e-42
6.37795e-43
4.58016e-07
1.1909e-05
7.50833e-05
0.000281954
0.000808509
0.00195637
0.00426125
0.010478
0.0165164
0.0302135
0.0408121
0.0565216
0.0684168
0.0785853
0.0858594
0.0893258
0.0884907
0.0848791
0.0768482
0.0655132
0.0526748
0.0399881
0.0282799
0.0188485
0.0117513
0.00692022
0.00395205
0.00204223
0.00111685
0.00052693
0.000630746
0.00200934
0.00394664
0.0444182
0.177226
0.219764
0.336999
0.498901
0.625816
0.720062
0.764737
0.808626
0.831246
0.861718
0.87728
0.895443
0.908772
0.918326
0.930906
0.937617
0.947288
0.952118
0.958879
0.962409
0.96627
0.968091
0.968922
0.96911
0.969118
0.969235
0.969417
0.969648
0.969994
0.970395
0.970819
0.971295
0.97184
0.972532
0.973326
0.974161
0.975109
0.975685
0.975995
0.976175
0.976234
0.976192
0.976306
0.976808
0.977482
0.977927
0.978161
0.977719
0.977101
0.976509
0.974044
0.970656
0.966311
0.960542
0.953083
0.943763
0.932045
0.917525
0.899507
0.877139
0.849364
0.814828
0.772073
0.719487
0.656513
0.58644
0.510807
0.431373
0.351192
0.275067
0.20925
0.157872
0.116377
0.0829263
0.0572367
0.0384224
0.0250905
0.0159237
0.00982788
0.00590526
0.00345869
0.00197724
0.00110481
0.000604172
0.000323712
0.000170065
8.76281e-05
4.429e-05
2.19551e-05
1.06698e-05
5.0802e-06
2.3682e-06
1.08022e-06
4.81908e-07
2.10205e-07
8.96343e-08
3.7363e-08
1.52253e-08
6.06571e-09
2.36276e-09
8.99915e-10
3.35122e-10
1.21988e-10
4.33869e-11
1.50708e-11
5.11062e-12
1.69079e-12
5.45044e-13
1.70857e-13
5.20663e-14
1.55328e-14
4.55023e-15
1.3086e-15
3.69425e-16
1.02366e-16
2.78394e-17
7.43016e-18
1.946e-18
5.00109e-19
1.26109e-19
3.12015e-20
7.57429e-21
1.80404e-21
4.21592e-22
9.66689e-23
2.17491e-23
4.80138e-24
1.04011e-24
2.21098e-25
4.6121e-26
9.44109e-27
1.89651e-27
3.73826e-28
7.23016e-29
1.37184e-29
2.55322e-30
4.65904e-31
8.334e-32
1.45979e-32
2.50353e-33
4.1932e-34
6.86162e-35
1.09014e-35
1.68414e-36
2.59264e-37
-3.95977e-38
4.49188e-06
6.10161e-05
0.000378029
0.0014993
0.00455396
0.0115853
0.0266101
0.0627175
0.0989075
0.157799
0.202782
0.261536
0.289079
0.31882
0.328575
0.324701
0.313396
0.290245
0.262309
0.230535
0.19541
0.158394
0.120256
0.0848756
0.0534408
0.0305196
0.0174593
0.00997045
0.00430987
0.00144615
0.00574228
0.0676701
0.229684
0.294103
0.445124
0.556257
0.696912
0.769379
0.828552
0.857002
0.876069
0.893809
0.902947
0.916661
0.924255
0.933039
0.93966
0.943796
0.949835
0.952689
0.955159
0.956408
0.957065
0.957132
0.956621
0.955121
0.952971
0.950956
0.94838
0.946175
0.944321
0.942766
0.942011
0.941796
0.942686
0.945551
0.949187
0.953818
0.958842
0.96375
0.968698
0.973177
0.97593
0.977061
0.977462
0.977526
0.977456
0.977651
0.979056
0.981821
0.984299
0.986229
0.988946
0.992828
0.994449
0.99559
0.996806
0.997442
0.997785
0.997976
0.998023
0.997754
0.997177
0.996223
0.99475
0.99253
0.989206
0.98426
0.976929
0.966065
0.949967
0.926171
0.89112
0.839929
0.766991
0.67021
0.558375
0.440857
0.329457
0.237372
0.168222
0.115619
0.0770646
0.0499722
0.0315602
0.0194389
0.0116955
0.00688407
0.0039695
0.00224465
0.00124563
0.000678576
0.000362873
0.000190419
9.80011e-05
4.94349e-05
2.44258e-05
1.18156e-05
5.59348e-06
2.59072e-06
1.17387e-06
5.20332e-07
2.25646e-07
9.57444e-08
3.97552e-08
1.61554e-08
6.42564e-09
2.5015e-09
9.53191e-10
3.55512e-10
1.29776e-10
4.63604e-11
1.62049e-11
5.54149e-12
1.85364e-12
6.06459e-13
1.94058e-13
6.07304e-14
1.85875e-14
5.56378e-15
1.62869e-15
4.66241e-16
1.30618e-16
3.59235e-17
9.7083e-18
2.57765e-18
6.7232e-19
1.7225e-19
4.33446e-20
1.07121e-20
2.59984e-21
6.19624e-22
1.4501e-22
3.33222e-23
7.5182e-24
1.66541e-24
3.62168e-25
7.73158e-26
1.61995e-26
3.33124e-27
6.72e-28
1.32996e-28
2.57939e-29
4.90495e-30
9.12017e-31
1.66116e-31
2.94419e-32
5.10531e-33
8.52675e-34
1.35755e-34
1.86195e-05
0.000220668
0.00141374
0.00586366
0.0183184
0.0477839
0.113856
0.232902
0.346771
0.433266
0.474386
0.497117
0.494571
0.483261
0.458002
0.427139
0.389539
0.353182
0.317224
0.279029
0.240114
0.200778
0.159921
0.119003
0.0802195
0.0474412
0.0238527
0.00947889
0.00375695
0.0302198
0.182274
0.34467
0.45361
0.579093
0.698442
0.777804
0.823478
0.844782
0.856493
0.862501
0.865788
0.866395
0.859621
0.856846
0.851749
0.848926
0.844913
0.841289
0.837801
0.832748
0.826178
0.819224
0.812404
0.806474
0.798592
0.791311
0.786426
0.780512
0.773989
0.768281
0.764314
0.761099
0.759758
0.75966
0.765404
0.775579
0.791292
0.813703
0.837504
0.858348
0.879941
0.896877
0.904423
0.907373
0.907991
0.907384
0.904881
0.903957
0.906999
0.919136
0.93329
0.943332
0.955512
0.97115
0.97868
0.984874
0.990945
0.994523
0.996483
0.997886
0.998635
0.999113
0.9994
0.99957
0.999666
0.999717
0.999733
0.999687
0.999538
0.999245
0.99871
0.99775
0.996026
0.992935
0.987315
0.976831
0.956982
0.919866
0.854331
0.750848
0.61485
0.468826
0.336895
0.235396
0.160109
0.105773
0.0680587
0.0427274
0.0262119
0.0157325
0.00924659
0.00532411
0.00300347
0.00165958
0.000897758
0.000475171
0.000245931
0.000124404
6.14827e-05
2.96811e-05
1.39955e-05
6.44626e-06
2.90074e-06
1.27552e-06
5.48212e-07
2.30353e-07
9.46479e-08
3.80339e-08
1.49497e-08
5.74835e-09
2.16232e-09
7.9573e-10
2.86466e-10
1.00888e-10
3.47581e-11
1.17146e-11
3.86237e-12
1.24578e-12
3.93096e-13
1.21351e-13
3.66517e-14
1.08314e-14
3.1321e-15
8.86198e-16
2.45359e-16
6.65036e-17
1.76847e-17
4.61878e-18
1.18467e-18
2.9839e-19
7.38031e-20
1.79248e-20
4.2747e-21
1.00096e-21
2.30123e-22
5.19432e-23
1.15101e-23
2.50379e-24
5.34565e-25
1.12018e-25
2.30285e-26
4.64503e-27
9.18344e-28
1.78048e-28
3.37721e-29
6.27676e-30
1.13694e-30
2.0154e-31
3.45621e-32
5.73624e-33
4.56861e-05
0.000597204
0.00406991
0.0175041
0.0551563
0.147182
0.342566
0.493503
0.548823
0.568099
0.566819
0.554803
0.529936
0.494976
0.44117
0.3851
0.326044
0.275241
0.240518
0.215727
0.20033
0.180385
0.150195
0.113298
0.0755618
0.0424255
0.0164266
0.0102692
0.0485524
0.223592
0.447704
0.547811
0.677985
0.762288
0.809505
0.830264
0.836884
0.838189
0.82737
0.795826
0.742516
0.711948
0.686886
0.669503
0.659574
0.651728
0.644477
0.636942
0.628951
0.620929
0.614292
0.608616
0.602106
0.596515
0.591286
0.587242
0.583978
0.578747
0.572916
0.566643
0.56054
0.554172
0.548077
0.541969
0.538381
0.53699
0.53979
0.555053
0.581552
0.624691
0.681199
0.736007
0.758877
0.766412
0.767038
0.762442
0.748888
0.742958
0.744636
0.773531
0.816305
0.847914
0.883758
0.913965
0.93492
0.954191
0.97119
0.981166
0.988252
0.992781
0.995592
0.997331
0.998398
0.999049
0.999442
0.999671
0.999799
0.999873
0.999916
0.99994
0.999952
0.999955
0.999944
0.999899
0.999784
0.99952
0.998917
0.997525
0.994257
0.98648
0.967699
0.921554
0.822068
0.678367
0.516043
0.36772
0.254268
0.171018
0.111956
0.0714698
0.0445426
0.0271207
0.0161361
0.00938022
0.0053257
0.0029517
0.00159617
0.000841816
0.000432882
0.000217016
0.000106074
5.05592e-05
2.35069e-05
1.06645e-05
4.72271e-06
2.04219e-06
8.62562e-07
3.55947e-07
1.43541e-07
5.65762e-08
2.17978e-08
8.21003e-09
3.02311e-09
1.08832e-09
3.83064e-10
1.31828e-10
4.43586e-11
1.45949e-11
4.69564e-12
1.47736e-12
4.54574e-13
1.36802e-13
4.0271e-14
1.15973e-14
3.26773e-15
9.00973e-16
2.43089e-16
6.42314e-17
1.66553e-17
4.23894e-18
1.05893e-18
2.59648e-19
6.24908e-20
1.47627e-20
3.42312e-21
7.79092e-22
1.74035e-22
3.81561e-23
8.20918e-24
1.73319e-24
3.58957e-25
7.29313e-26
1.45247e-26
2.83617e-27
5.42036e-28
1.01469e-28
1.85379e-29
3.31194e-30
5.74678e-31
9.66885e-32
7.95487e-05
0.00125553
0.00919707
0.0407613
0.128039
0.356729
0.543535
0.600327
0.614201
0.610738
0.590238
0.55652
0.495358
0.408249
0.291304
0.190778
0.130505
0.0987443
0.0854051
0.0872903
0.0954904
0.114953
0.118309
0.0963984
0.0515089
0.0235922
0.0193969
0.0591998
0.235993
0.504653
0.622698
0.723544
0.792941
0.820952
0.829651
0.829657
0.817823
0.780199
0.697742
0.646858
0.622522
0.610513
0.603588
0.599773
0.597581
0.595362
0.592705
0.589887
0.586725
0.584159
0.582314
0.580092
0.577228
0.574962
0.572778
0.570395
0.56732
0.562739
0.556293
0.54848
0.539236
0.528765
0.519027
0.508288
0.497037
0.485171
0.474662
0.468978
0.466549
0.467882
0.479819
0.503684
0.542189
0.572732
0.582238
0.584016
0.582513
0.58594
0.60788
0.645373
0.692775
0.74156
0.776603
0.820089
0.862105
0.898144
0.931148
0.954181
0.971491
0.982451
0.989461
0.993715
0.99624
0.99773
0.99862
0.999163
0.999497
0.9997
0.999825
0.999901
0.999946
0.99997
0.999982
0.999987
0.999989
0.999989
0.999982
0.999955
0.999877
0.999651
0.999008
0.997169
0.991896
0.976813
0.933845
0.820444
0.654221
0.483608
0.339959
0.232234
0.154183
0.0996238
0.0626876
0.0384197
0.0229296
0.0133218
0.00753177
0.00414272
0.00221657
0.00115375
0.000584351
0.00028809
0.000138314
6.47001e-05
2.95022e-05
1.31196e-05
5.69216e-06
2.41037e-06
9.96478e-07
4.02284e-07
1.5862e-07
6.10948e-08
2.29888e-08
8.45138e-09
3.03577e-09
1.06553e-09
3.65465e-10
1.22498e-10
4.01284e-11
1.28482e-11
4.02111e-12
1.23028e-12
3.68025e-13
1.07651e-13
3.07964e-14
8.61772e-15
2.35924e-15
6.31966e-16
1.65748e-16
4.26396e-17
1.07607e-17
2.66417e-18
6.47138e-19
1.5423e-19
3.60652e-20
8.27502e-21
1.86295e-21
4.11519e-22
8.91844e-23
1.89625e-23
3.95448e-24
8.08845e-25
1.62167e-25
3.18707e-26
6.13227e-27
1.15538e-27
2.12662e-28
3.82607e-29
6.70326e-30
1.14024e-30
0.000111649
0.00212301
0.0165718
0.0752611
0.235452
0.52571
0.625738
0.644889
0.644012
0.626965
0.584115
0.499916
0.382529
0.223104
0.117329
0.063808
0.0418489
0.0289979
0.0306517
0.0392683
0.057405
0.0773079
0.0723615
0.0479342
0.0308946
0.0291711
0.0718851
0.241599
0.542244
0.675029
0.753422
0.808458
0.829221
0.834013
0.826181
0.807069
0.743835
0.650692
0.613103
0.597656
0.592422
0.591155
0.591905
0.592166
0.592179
0.592026
0.591511
0.591328
0.591426
0.592164
0.593074
0.59353
0.593811
0.593911
0.593468
0.593322
0.593592
0.593644
0.593673
0.592396
0.59115
0.585056
0.57679
0.561485
0.541206
0.515536
0.489768
0.473244
0.45983
0.454948
0.453321
0.453143
0.455944
0.463958
0.47587
0.49257
0.50931
0.530968
0.565892
0.607536
0.654992
0.703823
0.725603
0.740043
0.76475
0.805281
0.852076
0.896605
0.932046
0.95771
0.975097
0.985994
0.992323
0.995791
0.997643
0.998634
0.999182
0.999504
0.9997
0.999819
0.999892
0.999938
0.999967
0.999983
0.999991
0.999995
0.999996
0.999997
0.999996
0.999992
0.999975
0.999915
0.999715
0.999052
0.996892
0.989972
0.968228
0.901171
0.742834
0.562542
0.401448
0.277142
0.18538
0.12027
0.0757038
0.0462313
0.0273885
0.0157398
0.00877563
0.00474824
0.00249436
0.00127294
0.000631478
0.000304722
0.000143129
6.54779e-05
2.919e-05
1.26867e-05
5.37775e-06
2.22398e-06
8.97522e-07
3.53532e-07
1.35941e-07
5.10341e-08
1.87072e-08
6.69627e-09
2.34084e-09
7.99206e-10
2.66523e-10
8.68249e-11
2.76333e-11
8.59326e-12
2.61145e-12
7.7566e-13
2.2522e-13
6.39392e-14
1.77518e-14
4.82078e-15
1.28084e-15
3.33316e-16
8.50449e-17
2.12771e-17
5.22017e-18
1.25604e-18
2.96416e-19
6.86124e-20
1.55782e-20
3.46943e-21
7.57887e-22
1.62387e-22
3.41208e-23
7.03043e-24
1.41989e-24
2.81052e-25
5.44772e-26
1.03386e-26
1.91819e-27
3.47873e-28
6.15481e-29
1.05894e-29
0.000144815
0.00293933
0.024275
0.113209
0.348156
0.603697
0.664638
0.674431
0.666019
0.628928
0.556284
0.443316
0.277886
0.124505
0.0558116
0.028382
0.0197747
0.0197756
0.0228534
0.0305716
0.0402597
0.0444834
0.0409769
0.0374161
0.0425979
0.0928481
0.266839
0.573457
0.712106
0.780401
0.821024
0.837665
0.84113
0.830154
0.805209
0.73618
0.639536
0.604137
0.591846
0.588568
0.588228
0.589826
0.590381
0.590391
0.589241
0.586925
0.583849
0.579246
0.573436
0.567009
0.560249
0.553951
0.55063
0.549392
0.551176
0.555935
0.566015
0.571116
0.58269
0.5883
0.596855
0.600669
0.602946
0.603413
0.600066
0.592137
0.574148
0.540249
0.50374
0.482111
0.472616
0.467872
0.465336
0.464289
0.465429
0.471283
0.486011
0.514193
0.554
0.600207
0.649157
0.695677
0.712812
0.716719
0.712259
0.703501
0.714551
0.760753
0.826542
0.885373
0.929208
0.960458
0.979621
0.990036
0.995215
0.997675
0.998823
0.999367
0.99964
0.999788
0.999873
0.999924
0.999955
0.999974
0.999986
0.999992
0.999996
0.999998
0.999999
0.999999
0.999999
0.999997
0.99999
0.999963
0.99986
0.999487
0.998172
0.993682
0.978762
0.930487
0.79104
0.602061
0.431872
0.298453
0.199062
0.128256
0.0798595
0.0480717
0.0279872
0.0157687
0.00860433
0.00455084
0.00233511
0.00116346
0.000563368
0.000265313
0.000121603
5.42754e-05
2.36014e-05
1.00028e-05
4.13329e-06
1.6656e-06
6.54688e-07
2.51052e-07
9.39338e-08
3.42974e-08
1.22218e-08
4.25095e-09
1.44334e-09
4.78447e-10
1.54861e-10
4.89504e-11
1.5113e-11
4.55828e-12
1.34337e-12
3.86927e-13
1.08941e-13
2.99908e-14
8.07446e-15
2.12715e-15
5.4906e-16
1.38892e-16
3.44378e-17
8.37045e-18
1.99464e-18
4.66041e-19
1.06772e-19
2.39877e-20
5.28466e-21
1.14168e-21
2.41835e-22
5.02243e-23
1.02235e-23
2.03939e-24
3.98448e-25
7.62196e-26
1.42625e-26
2.60948e-27
4.6638e-28
8.119e-29
0.000205952
0.00331084
0.0289067
0.136167
0.403466
0.642314
0.693729
0.693567
0.674413
0.628915
0.546443
0.416098
0.231892
0.0913708
0.0422946
0.0257457
0.0216225
0.0212183
0.0239838
0.0309195
0.0372863
0.0407825
0.044778
0.0629669
0.133067
0.332048
0.611328
0.741701
0.803655
0.833621
0.846393
0.849283
0.838803
0.815116
0.753502
0.646761
0.605502
0.591562
0.587819
0.587243
0.587545
0.588044
0.586579
0.581204
0.571157
0.554407
0.530622
0.50544
0.479954
0.461788
0.442964
0.433914
0.42979
0.429131
0.438658
0.448536
0.464873
0.479807
0.501712
0.518885
0.541366
0.560018
0.579549
0.593996
0.603531
0.60732
0.607073
0.603139
0.586408
0.562418
0.540214
0.532541
0.529867
0.529346
0.531518
0.532311
0.532033
0.543004
0.576261
0.627454
0.676347
0.702484
0.713566
0.716782
0.707908
0.682907
0.659581
0.646254
0.653009
0.701762
0.786754
0.874047
0.93296
0.968415
0.986045
0.994098
0.997541
0.998946
0.999514
0.999754
0.999865
0.999922
0.999954
0.999973
0.999984
0.999991
0.999995
0.999997
0.999999
0.999999
1
1
0.999999
0.999998
0.999993
0.999972
0.99989
0.999577
0.998436
0.994424
0.980749
0.935336
0.796984
0.600277
0.427124
0.291853
0.191767
0.121299
0.0739344
0.0434707
0.0246829
0.0135506
0.00720123
0.00370885
0.0018532
0.000899229
0.000424077
0.000194514
8.68253e-05
3.77345e-05
1.59735e-05
6.58827e-06
2.64831e-06
1.03773e-06
3.96465e-07
1.47706e-07
5.36693e-08
1.90219e-08
6.57719e-09
2.21897e-09
7.30563e-10
2.34764e-10
7.36472e-11
2.2559e-11
6.74872e-12
1.97224e-12
5.63175e-13
1.57175e-13
4.28832e-14
1.14424e-14
2.98899e-15
7.64809e-16
1.91722e-16
4.70929e-17
1.13361e-17
2.67461e-18
6.18567e-19
1.40243e-19
3.1172e-20
6.79274e-21
1.45112e-21
3.03887e-22
6.23723e-23
1.25447e-23
2.47148e-24
4.7679e-25
9.00188e-26
1.66248e-26
3.00213e-27
5.28873e-28
0.000336511
0.0032995
0.0303071
0.143486
0.422939
0.656975
0.712134
0.717574
0.701247
0.652237
0.578246
0.462185
0.287434
0.131339
0.0678055
0.0424875
0.0340486
0.0318172
0.0328236
0.0408545
0.050606
0.0667744
0.105446
0.203228
0.44082
0.662303
0.770754
0.822139
0.845474
0.854591
0.856722
0.848478
0.829269
0.780431
0.672706
0.61389
0.594306
0.588323
0.586777
0.586314
0.585742
0.58279
0.573591
0.553627
0.521489
0.487587
0.45545
0.421193
0.396767
0.373071
0.361183
0.355162
0.353384
0.358756
0.370267
0.383314
0.403314
0.425861
0.44799
0.469954
0.487809
0.510337
0.529727
0.552569
0.573698
0.59558
0.608101
0.612563
0.612326
0.6044
0.587603
0.577297
0.573678
0.573676
0.582587
0.596867
0.611421
0.630432
0.654801
0.68818
0.718994
0.733321
0.741727
0.749761
0.751058
0.735746
0.696027
0.649701
0.615752
0.601841
0.611059
0.669032
0.788068
0.896846
0.953994
0.98098
0.992672
0.997309
0.999019
0.999625
0.999841
0.999923
0.999959
0.999976
0.999986
0.999992
0.999995
0.999997
0.999999
0.999999
1
1
1
1
1
0.999998
0.999993
0.999969
0.999873
0.999508
0.998164
0.993387
0.97687
0.920985
0.757777
0.555288
0.387046
0.258306
0.16535
0.101706
0.0602139
0.0343695
0.0189436
0.0100973
0.0052118
0.00260806
0.00126659
0.000597465
0.00027394
0.000122156
5.30035e-05
2.23868e-05
9.207e-06
3.6881e-06
1.43929e-06
5.47319e-07
2.02843e-07
7.32799e-08
2.58099e-08
8.86426e-09
2.96916e-09
9.70162e-10
3.09292e-10
9.62294e-11
2.92259e-11
8.66687e-12
2.5102e-12
7.10276e-13
1.96399e-13
5.30874e-14
1.40386e-14
3.63452e-15
9.21404e-16
2.28784e-16
5.56483e-17
1.32619e-17
3.09704e-18
7.0881e-19
1.58998e-19
3.49586e-20
7.53393e-21
1.59141e-21
3.29447e-22
6.68297e-23
1.3281e-23
2.58486e-24
4.92546e-25
9.18502e-26
1.67611e-26
2.98794e-27
0.000690122
0.00172521
0.0198388
0.113274
0.388007
0.659898
0.723198
0.729762
0.725102
0.70056
0.643892
0.559986
0.444919
0.298028
0.172423
0.119657
0.0966236
0.0888083
0.0884982
0.11153
0.148452
0.225013
0.376143
0.565621
0.718083
0.799405
0.837648
0.854706
0.860938
0.862192
0.856781
0.84284
0.806632
0.720826
0.635026
0.602015
0.590528
0.586742
0.585348
0.584442
0.5804
0.567407
0.53778
0.491328
0.448127
0.409426
0.365298
0.327519
0.299579
0.275782
0.262777
0.254572
0.251637
0.254588
0.266175
0.289861
0.315563
0.35129
0.388474
0.431229
0.458775
0.486349
0.509121
0.538237
0.563651
0.582593
0.600428
0.614696
0.622036
0.624216
0.611047
0.595856
0.588013
0.585744
0.59236
0.60835
0.631226
0.657388
0.686113
0.716029
0.74442
0.774296
0.800796
0.820305
0.837639
0.851634
0.851569
0.812641
0.714601
0.621201
0.585977
0.586976
0.618789
0.7278
0.867735
0.942935
0.977223
0.991696
0.997179
0.999079
0.9997
0.999897
0.99996
0.999982
0.999991
0.999995
0.999997
0.999998
0.999999
0.999999
1
1
1
1
1
1
0.999999
0.999997
0.999988
0.999951
0.999802
0.999236
0.997145
0.989644
0.96334
0.872588
0.666516
0.47211
0.318619
0.205617
0.127213
0.0756297
0.0432967
0.0239132
0.0127634
0.00659278
0.00329968
0.00160185
0.000754889
0.000345587
0.000153777
6.65415e-05
2.8011e-05
1.14748e-05
4.57574e-06
1.77659e-06
6.71768e-07
2.47427e-07
8.8789e-08
3.10488e-08
1.05827e-08
3.51649e-09
1.13944e-09
3.60127e-10
1.1105e-10
3.34196e-11
9.81833e-12
2.81681e-12
7.894e-13
2.16172e-13
5.78812e-14
1.51647e-14
3.88868e-15
9.76229e-16
2.39983e-16
5.77798e-17
1.36276e-17
3.14903e-18
7.13025e-19
1.58213e-19
3.44043e-20
7.33194e-21
1.53125e-21
3.13366e-22
6.28316e-23
1.23403e-23
2.37372e-24
4.47049e-25
8.24427e-26
1.48703e-26
0.00187764
0.000957518
0.0119258
0.0772778
0.294814
0.625828
0.731958
0.749516
0.747654
0.734037
0.706756
0.659189
0.595671
0.524381
0.444803
0.371892
0.335254
0.321319
0.328127
0.392563
0.46514
0.580658
0.677493
0.772293
0.823363
0.848904
0.86009
0.864033
0.864698
0.861934
0.852296
0.825681
0.760304
0.671029
0.616953
0.59676
0.589009
0.585851
0.584304
0.581316
0.57132
0.542684
0.491
0.434897
0.390102
0.340873
0.284993
0.247572
0.220822
0.194373
0.180669
0.170388
0.166605
0.166257
0.177701
0.196688
0.224308
0.258955
0.296617
0.343366
0.397105
0.436361
0.468518
0.51356
0.558901
0.589849
0.604896
0.615198
0.630295
0.638964
0.643111
0.632802
0.615579
0.603895
0.603995
0.617129
0.649669
0.684659
0.719696
0.752946
0.780903
0.802097
0.820295
0.83823
0.857714
0.878969
0.898143
0.908289
0.897065
0.809538
0.657988
0.596897
0.596465
0.636418
0.748917
0.871007
0.942834
0.977476
0.99204
0.9974
0.999187
0.999755
0.999927
0.999977
0.999992
0.999997
0.999999
0.999999
0.999999
1
1
1
1
1
1
1
1
1
0.999999
0.999994
0.999976
0.9999
0.9996
0.998455
0.994206
0.978785
0.923884
0.752427
0.537351
0.364993
0.236558
0.14675
0.0873838
0.0500668
0.0276591
0.0147591
0.00761808
0.00380825
0.00184557
0.000867787
0.000396157
0.000175685
7.5721e-05
3.17309e-05
1.29324e-05
5.12782e-06
1.9786e-06
7.43127e-07
2.71737e-07
9.67645e-08
3.35639e-08
1.1343e-08
3.73591e-09
1.19952e-09
3.75565e-10
1.14702e-10
3.41824e-11
9.94322e-12
2.82416e-12
7.83501e-13
2.12428e-13
5.63272e-14
1.46114e-14
3.70902e-15
9.21582e-16
2.24193e-16
5.34093e-17
1.24625e-17
2.84874e-18
6.38003e-19
1.40009e-19
3.01073e-20
6.34434e-21
1.31003e-21
2.65054e-22
5.25401e-23
1.02032e-23
1.94084e-24
3.61707e-25
6.59997e-26
0.0048409
0.000570225
0.00425216
0.033855
0.168924
0.51002
0.718743
0.759613
0.766052
0.762103
0.750396
0.731363
0.697803
0.662584
0.636654
0.6137
0.602464
0.59933
0.622789
0.659836
0.70755
0.761557
0.804313
0.838114
0.85342
0.860647
0.863549
0.864249
0.86257
0.854873
0.833955
0.784601
0.713917
0.652965
0.612293
0.595575
0.588474
0.584954
0.581185
0.572566
0.550876
0.506922
0.447052
0.390292
0.340215
0.281825
0.231005
0.201028
0.171207
0.151334
0.139787
0.131791
0.129067
0.130202
0.137214
0.153348
0.18066
0.219792
0.260971
0.301026
0.350893
0.397805
0.429841
0.457453
0.521496
0.589433
0.619548
0.629763
0.632512
0.639121
0.64889
0.651847
0.647682
0.639175
0.63628
0.640819
0.661406
0.700224
0.736078
0.764066
0.784408
0.798711
0.806301
0.810128
0.822417
0.845762
0.879788
0.911522
0.925664
0.921824
0.857602
0.705169
0.645697
0.647661
0.714309
0.834342
0.917343
0.962569
0.984448
0.994152
0.998012
0.999378
0.999818
0.999948
0.999985
0.999996
0.999999
0.999999
1
1
1
1
1
1
1
1
1
1
1
0.999999
0.999997
0.999985
0.999937
0.99974
0.998967
0.996002
0.984901
0.944242
0.802095
0.577504
0.393102
0.254936
0.158111
0.0940714
0.0538326
0.0296932
0.0158143
0.00814413
0.00406018
0.00196139
0.000918841
0.000417694
0.000184354
7.90357e-05
3.29262e-05
1.33339e-05
5.25053e-06
2.01095e-06
7.49323e-07
2.71721e-07
9.59138e-08
3.2966e-08
1.10359e-08
3.59953e-09
1.14424e-09
3.54631e-10
1.07195e-10
3.16131e-11
9.09943e-12
2.55727e-12
7.02051e-13
1.88398e-13
4.94373e-14
1.26895e-14
3.18693e-15
7.83364e-16
1.88507e-16
4.44182e-17
1.02507e-17
2.31729e-18
5.13218e-19
1.11368e-19
2.36806e-20
4.93411e-21
1.00745e-21
2.01564e-22
3.95196e-23
7.5926e-24
1.42985e-24
2.63876e-25
0.0110325
0.000769942
0.00123365
0.0119786
0.0711911
0.288433
0.645141
0.75851
0.778783
0.781456
0.776754
0.765932
0.7577
0.745201
0.736584
0.732643
0.731643
0.741441
0.756181
0.778568
0.801426
0.823126
0.837941
0.850754
0.856408
0.859422
0.860309
0.857314
0.847616
0.82508
0.777603
0.721326
0.672901
0.635152
0.608905
0.595906
0.589121
0.585284
0.581119
0.571412
0.547704
0.500181
0.43369
0.369785
0.317769
0.260581
0.205788
0.175536
0.149685
0.130511
0.118269
0.111688
0.109776
0.115435
0.120742
0.133658
0.154721
0.194455
0.246651
0.288276
0.334973
0.384571
0.420861
0.440586
0.468451
0.543631
0.612312
0.634751
0.637001
0.631616
0.625551
0.633716
0.640216
0.640157
0.640104
0.642268
0.649201
0.671431
0.707107
0.737548
0.753646
0.75277
0.73887
0.702155
0.684134
0.694122
0.744284
0.838736
0.908604
0.933794
0.933807
0.887997
0.795695
0.759228
0.761667
0.82832
0.911782
0.958766
0.981959
0.992541
0.997102
0.998946
0.999643
0.999888
0.999967
0.999991
0.999998
0.999999
1
1
1
1
1
1
1
1
1
1
1
1
0.999999
0.999998
0.999989
0.999952
0.999796
0.999166
0.996674
0.98709
0.95116
0.820683
0.592167
0.402352
0.260248
0.160934
0.0954548
0.054448
0.0299301
0.0158821
0.00814633
0.00404342
0.00194384
0.000905783
0.000409366
0.000179538
7.64467e-05
3.16147e-05
1.27028e-05
4.9606e-06
1.88331e-06
6.95338e-07
2.49739e-07
8.72834e-08
2.96942e-08
9.8369e-09
3.17429e-09
9.98154e-10
3.0597e-10
9.14663e-11
2.66755e-11
7.59292e-12
2.11034e-12
5.73068e-13
1.52104e-13
3.94738e-14
1.00198e-14
2.48843e-15
6.04832e-16
1.43913e-16
3.35292e-17
7.65061e-18
1.71001e-18
3.74452e-19
8.03423e-20
1.68919e-20
3.48055e-21
7.02853e-22
1.39122e-22
2.69935e-23
5.13602e-24
9.58395e-25
0.0205765
0.00239887
0.000356496
0.00256179
0.0200761
0.10218
0.362888
0.689568
0.776517
0.796192
0.799946
0.798326
0.789856
0.779906
0.776897
0.776825
0.782244
0.793474
0.801219
0.811137
0.821885
0.830614
0.839453
0.846718
0.849009
0.847071
0.840341
0.825328
0.795208
0.754684
0.714926
0.677539
0.646041
0.620546
0.604276
0.595252
0.589913
0.586559
0.582605
0.573589
0.552436
0.508176
0.442595
0.376576
0.323886
0.268948
0.212376
0.178972
0.153344
0.133802
0.121122
0.113045
0.110762
0.112149
0.117228
0.129877
0.149154
0.185978
0.243514
0.290634
0.333667
0.38223
0.420842
0.44028
0.45979
0.497918
0.57549
0.623981
0.634651
0.62821
0.595539
0.572122
0.567943
0.569275
0.571213
0.574964
0.57854
0.583432
0.601023
0.640677
0.662582
0.668272
0.663703
0.646385
0.609658
0.578204
0.579657
0.636914
0.801888
0.907817
0.943812
0.951918
0.943145
0.926193
0.913975
0.908061
0.92644
0.962127
0.982486
0.992433
0.996931
0.998828
0.999576
0.999853
0.999951
0.999985
0.999995
0.999999
1
1
1
1
1
1
1
1
1
1
1
1
1
1
0.999998
0.99999
0.999957
0.999811
0.999204
0.996743
0.987075
0.950229
0.815313
0.584729
0.395103
0.254176
0.156343
0.0922465
0.0523422
0.0286186
0.0151014
0.00770032
0.00379813
0.00181374
0.00083915
0.000376384
0.000163749
6.91322e-05
2.83343e-05
1.12781e-05
4.36107e-06
1.63884e-06
5.98701e-07
2.12698e-07
7.35112e-08
2.47254e-08
8.09656e-09
2.58227e-09
8.02468e-10
2.43086e-10
7.18092e-11
2.06955e-11
5.82167e-12
1.59932e-12
4.29266e-13
1.12612e-13
2.88851e-14
7.24673e-15
1.7788e-15
4.27327e-16
1.00498e-16
2.31435e-17
5.21997e-18
1.15334e-18
2.49679e-19
5.29658e-20
1.10123e-20
2.24424e-21
4.48408e-22
8.78506e-23
1.68841e-23
3.18464e-24
0.0278694
0.00689299
0.00108841
0.000390676
0.00298483
0.0224779
0.109212
0.364195
0.687412
0.778789
0.80281
0.812911
0.816008
0.814427
0.807535
0.800051
0.798754
0.802717
0.810291
0.815568
0.818962
0.82093
0.819277
0.811528
0.799252
0.780423
0.755367
0.72684
0.702476
0.678198
0.653654
0.633791
0.618658
0.606546
0.597602
0.59166
0.588958
0.58662
0.584331
0.579648
0.566717
0.535782
0.471523
0.402359
0.346264
0.29634
0.241126
0.199244
0.170833
0.14946
0.136521
0.126049
0.125506
0.128025
0.135124
0.152385
0.180285
0.214154
0.281987
0.343381
0.377729
0.412728
0.448155
0.464401
0.471178
0.490434
0.546303
0.608273
0.629463
0.626577
0.59333
0.555155
0.539816
0.528052
0.51503
0.504656
0.501444
0.504137
0.520075
0.56904
0.616031
0.638618
0.642176
0.638173
0.611982
0.561024
0.542565
0.550817
0.626804
0.811473
0.9188
0.9596
0.975402
0.981552
0.982876
0.983351
0.984259
0.987527
0.992313
0.995715
0.997843
0.999023
0.999601
0.999851
0.999948
0.999983
0.999995
0.999998
1
1
1
1
1
1
1
1
1
1
1
1
1
1
1
0.999998
0.999991
0.999956
0.999804
0.99915
0.996442
0.985622
0.943895
0.79351
0.562627
0.377056
0.240721
0.146986
0.0861063
0.0485096
0.0263302
0.0137894
0.00697612
0.00341263
0.00161559
0.000740713
0.000329084
0.000141753
5.92279e-05
2.40143e-05
9.45215e-06
3.61303e-06
1.3417e-06
4.84226e-07
1.6991e-07
5.79896e-08
1.92585e-08
6.22625e-09
1.96046e-09
6.01466e-10
1.7988e-10
5.24657e-11
1.49316e-11
4.14847e-12
1.12567e-12
2.9844e-13
7.73384e-14
1.95969e-14
4.85722e-15
1.17797e-15
2.79617e-16
6.49819e-17
1.47889e-17
3.29679e-18
7.20048e-19
1.54109e-19
3.23286e-20
6.64837e-21
1.34072e-21
2.65181e-22
5.14684e-23
9.80944e-24
0.0302444
0.0140478
0.00717488
0.00250869
0.000282608
0.00201667
0.0177691
0.0928984
0.314731
0.650471
0.773511
0.806236
0.818526
0.825675
0.828831
0.827675
0.822894
0.816912
0.815443
0.816679
0.816786
0.813348
0.802955
0.784784
0.758499
0.725412
0.689271
0.65682
0.635997
0.61952