/*--------------------------------*- C++ -*----------------------------------*\
  =========                 |
  \\      /  F ield         | OpenFOAM: The Open Source CFD Toolbox
   \\    /   O peration     | Website:  https://openfoam.org
    \\  /    A nd           | Version:  7
     \\/     M anipulation  |
\*---------------------------------------------------------------------------*/
FoamFile
{
    version     2.0;
    format      ascii;
    class       volScalarField;
    location    "0.048";
    object      s_0;
}
// * * * * * * * * * * * * * * * * * * * * * * * * * * * * * * * * * * * * * //

dimensions      [0 0 0 0 0 0 0];

internalField   nonuniform List<scalar> 
12225
(
1
1
1
1
1
1
1
1
1
1
1
1
1
1
1
1
1
1
1
1
1
1
1
1
1
1
1
1
1
1
1
1
1
1
1
1
1
1
1
1
1
1
1
1
1
1
1
1
1
1
1
1
1
1
1
1
1
1
1
1
1
1
1
1
1
1
1
1
1
1
1
1
1
1
1
1
1
1
1
1
1
1
1
1
1
1
1
1
1
1
1
1
1
1
1
1
1
1
1
1
1
1
1
1
1
1
1
1
1
1
1
1
1
1
1
1
1
1
1
1
1
1
1
1
1
1
1
1
1
1
1
1
1
1
1
1
1
1
1
1
1
1
1
1
1
1
1
1
1
1
1
1
1
1
1
1
1
1
1
1
1
1
1
1
1
1
1
1
1
1
1
1
1
1
1
1
1
1
1
1
1
1
1
1
1
1
1
1
1
1
1
1
1
1
1
1
1
1
1
1
1
1
1
1
1
1
1
1
1
1
1
1
1
1
1
1
1
1
1
1
1
1
1
1
1
1
1
1
1
1
1
1
1
1
1
1
1
1
1
1
1
1
1
1
1
1
1
1
1
1
1
1
1
1
1
1
1
1
1
1
1
1
1
1
1
1
1
1
1
1
1
1
1
1
1
1
1
1
1
1
1
1
1
1
1
1
1
1
1
1
1
1
1
1
1
1
1
1
1
1
1
1
1
1
1
1
1
1
1
1
1
1
1
1
1
1
1
1
1
1
1
1
1
1
1
1
1
1
1
1
1
1
1
1
1
1
1
1
1
1
1
1
1
1
1
1
1
1
1
1
1
1
1
1
1
1
1
1
1
1
1
1
1
1
1
1
1
1
1
1
1
1
1
1
1
1
1
1
1
1
1
1
1
1
1
1
1
1
1
1
1
1
1
1
1
1
1
1
1
1
1
1
1
1
1
1
1
1
1
1
1
1
1
1
1
1
1
1
1
1
1
1
1
1
1
1
1
1
1
1
1
1
1
1
1
1
1
1
1
1
1
1
1
1
1
1
1
1
1
1
1
1
1
1
1
1
1
1
1
1
1
1
1
1
1
1
1
1
1
1
1
1
1
1
1
1
1
1
1
1
1
1
1
1
1
1
1
1
1
1
1
1
1
1
1
1
1
1
1
1
1
1
1
1
1
1
1
1
1
1
1
1
1
1
1
1
1
1
1
1
1
1
1
1
1
1
1
1
1
1
1
1
1
1
1
1
1
1
1
1
1.23768e-08
1.23791e-06
8.60298e-06
3.0663e-05
8.16214e-05
0.000190653
0.000373836
0.000891403
0.00138139
0.00248504
0.00377377
0.00517117
0.00669624
0.00795415
0.00908543
0.00962065
0.00946504
0.00893957
0.00797195
0.00706695
0.00622153
0.0054137
0.00460911
0.00380721
0.00299225
0.00218385
0.00140841
0.000729506
0.000268593
7.85458e-05
7.86054e-05
0.000367571
0.00192975
0.0132548
0.0186966
0.0176874
0.0421493
0.252829
0.456436
0.579742
0.628742
0.640223
0.642004
0.641717
0.63909
0.632905
0.623504
0.612976
0.604183
0.598468
0.593574
0.58533
0.578389
0.576879
0.576698
0.577417
0.580289
0.585605
0.590273
0.595551
0.600399
0.605238
0.609933
0.614086
0.617066
0.61825
0.618627
0.61844
0.616289
0.611497
0.605229
0.598715
0.592378
0.587151
0.584681
0.583499
0.583013
0.582876
0.582678
0.580066
0.574511
0.565722
0.553668
0.537924
0.518543
0.496548
0.471499
0.443821
0.414115
0.382418
0.349097
0.314556
0.279197
0.24353
0.208385
0.17459
0.143561
0.116834
0.095146
0.0758977
0.0588533
0.0442769
0.0323129
0.0229177
0.0158284
0.01062
0.00688587
0.00430706
0.00259858
0.00151136
0.000846348
0.000455873
0.000236001
0.000117329
5.59526e-05
2.55397e-05
1.11162e-05
4.58296e-06
1.75876e-06
6.21057e-07
2.13181e-07
7.0932e-08
2.28256e-08
7.09489e-09
2.1518e-09
5.50289e-10
1.6922e-10
6.89199e-11
2.66267e-11
1.00026e-11
3.70008e-12
1.34882e-12
4.82938e-13
1.69419e-13
5.82048e-14
1.95978e-14
6.47353e-15
2.09925e-15
6.68542e-16
2.09124e-16
6.42592e-17
1.93987e-17
5.75401e-18
1.67723e-18
4.80539e-19
1.35351e-19
3.74849e-20
1.02084e-20
2.7341e-21
7.20206e-22
1.86604e-22
4.75592e-23
1.1924e-23
2.94109e-24
7.13678e-25
1.70379e-25
4.00178e-26
9.24729e-27
2.10231e-27
4.70203e-28
1.03458e-28
2.23925e-29
4.76706e-30
9.98024e-31
2.05437e-31
4.15647e-32
8.26244e-33
1.61283e-33
3.08949e-34
5.80232e-35
1.06737e-35
1.92027e-36
3.37404e-37
5.77446e-38
9.60842e-39
1.54592e-39
2.4e-40
3.54681e-41
4.98688e-42
6.19026e-43
4.56692e-07
1.18607e-05
7.47847e-05
0.000280888
0.000805642
0.00194978
0.00424797
0.0104436
0.0164641
0.0301347
0.0406952
0.056357
0.0682059
0.0783446
0.0856053
0.0890452
0.0882101
0.0846049
0.0765911
0.0652809
0.0524766
0.0398254
0.0281546
0.0187585
0.0116895
0.00688201
0.00392861
0.00202919
0.00111043
0.000523638
0.000629462
0.00200087
0.00397664
0.0450374
0.178484
0.220669
0.33734
0.498574
0.62508
0.719764
0.76464
0.808727
0.831377
0.861848
0.877534
0.895625
0.909077
0.918547
0.931114
0.937794
0.947441
0.952255
0.958963
0.962468
0.966303
0.968114
0.968935
0.969113
0.969122
0.96924
0.969423
0.969654
0.970001
0.970404
0.970829
0.971303
0.971841
0.972523
0.97331
0.974137
0.975083
0.975671
0.975987
0.97617
0.976231
0.976186
0.976292
0.976785
0.977456
0.9779
0.978134
0.977684
0.977045
0.976441
0.973973
0.970569
0.966203
0.960411
0.952922
0.943563
0.931795
0.917216
0.899122
0.876662
0.848775
0.814101
0.771183
0.718409
0.655283
0.585111
0.509406
0.429943
0.349801
0.273813
0.208239
0.157091
0.115743
0.0824308
0.0568687
0.0381597
0.0249082
0.0158012
0.00974822
0.00585508
0.00342801
0.001959
0.00109425
0.00059821
0.000320419
0.000168284
8.66847e-05
4.37997e-05
2.17051e-05
1.05447e-05
5.0189e-06
2.33876e-06
1.06638e-06
4.75544e-07
2.07344e-07
8.83775e-08
3.68235e-08
1.49991e-08
5.97301e-09
2.32565e-09
8.85393e-10
3.2957e-10
1.19913e-10
4.26299e-11
1.48012e-11
5.01685e-12
1.65898e-12
5.34531e-13
1.67476e-13
5.10122e-14
1.52128e-14
4.45489e-15
1.28072e-15
3.61422e-16
1.00112e-16
2.72164e-17
7.26125e-18
1.90106e-18
4.88384e-19
1.23108e-19
3.04478e-20
7.38865e-21
1.75919e-21
4.10963e-22
9.4198e-23
2.11856e-23
4.67534e-24
1.01245e-24
2.15143e-25
4.48633e-26
9.18048e-27
1.84353e-27
3.6326e-28
7.02345e-29
1.33218e-29
2.47858e-30
4.52137e-31
8.0851e-32
1.41574e-32
2.42721e-33
4.0641e-34
6.64828e-35
1.05592e-35
1.63079e-36
2.50955e-37
-3.81988e-38
4.47287e-06
6.08049e-05
0.000376821
0.00149488
0.00454168
0.0115556
0.026548
0.0625602
0.0986474
0.157498
0.202293
0.260916
0.288327
0.318092
0.327772
0.323879
0.312531
0.289359
0.261458
0.229735
0.194688
0.157761
0.119739
0.0844739
0.0531546
0.0303598
0.0173767
0.00991196
0.00426859
0.00143461
0.00580847
0.0682506
0.230417
0.294655
0.445025
0.555976
0.69645
0.769147
0.828364
0.856869
0.875866
0.893606
0.902705
0.916336
0.923986
0.932736
0.939445
0.943561
0.949623
0.952556
0.955062
0.956337
0.957051
0.95713
0.956661
0.955217
0.953115
0.951161
0.94864
0.946461
0.944632
0.943092
0.942327
0.942106
0.942945
0.945751
0.949338
0.95391
0.958891
0.963766
0.968683
0.973159
0.97597
0.977131
0.97755
0.977623
0.977562
0.977755
0.979144
0.981898
0.984379
0.986298
0.98897
0.992847
0.994473
0.995605
0.996811
0.997444
0.997786
0.997976
0.998018
0.997744
0.997162
0.996199
0.994715
0.992477
0.989129
0.984146
0.976762
0.96582
0.94961
0.92565
0.890365
0.83885
0.765507
0.668386
0.556392
0.438884
0.327716
0.236047
0.167219
0.114871
0.0765314
0.0496053
0.0313156
0.0192807
0.0115961
0.00682318
0.00393308
0.00222333
0.0012334
0.00067169
0.000359068
0.000188356
9.6903e-05
4.88619e-05
2.4133e-05
1.16691e-05
5.52175e-06
2.55639e-06
1.15781e-06
5.12984e-07
2.22361e-07
9.43086e-08
3.91417e-08
1.58991e-08
6.3209e-09
2.45964e-09
9.36827e-10
3.49255e-10
1.27436e-10
4.5504e-11
1.58984e-11
5.43428e-12
1.81697e-12
5.94193e-13
1.90048e-13
5.94491e-14
1.81873e-14
5.44157e-15
1.59222e-15
4.556e-16
1.27584e-16
3.50763e-17
9.47584e-18
2.515e-18
6.55735e-19
1.67938e-19
4.22439e-20
1.04362e-20
2.53194e-21
6.03219e-22
1.41118e-22
3.24161e-23
7.31108e-24
1.61894e-24
3.51934e-25
7.51039e-26
1.57304e-26
3.23362e-27
6.52076e-28
1.29007e-28
2.50115e-29
4.75452e-30
8.83743e-31
1.60912e-31
2.85097e-32
4.94202e-33
8.2513e-34
1.31331e-34
1.85388e-05
0.000220021
0.00141009
0.00585019
0.0182813
0.0476889
0.113664
0.232478
0.346185
0.432574
0.473743
0.496482
0.493927
0.482559
0.457205
0.4262
0.388485
0.35209
0.316129
0.277974
0.239144
0.1999
0.159148
0.118365
0.0797395
0.0471238
0.0236693
0.00939174
0.00373583
0.0305696
0.183061
0.345232
0.453852
0.578966
0.697986
0.777654
0.823371
0.844703
0.856324
0.862276
0.865478
0.865895
0.858862
0.855824
0.850616
0.84771
0.843707
0.840142
0.836798
0.831967
0.825605
0.81883
0.812161
0.806449
0.798797
0.791618
0.786899
0.781208
0.774842
0.769211
0.765314
0.762134
0.760779
0.760658
0.766249
0.776267
0.79175
0.813923
0.837574
0.858311
0.879811
0.896898
0.904619
0.907667
0.908325
0.907776
0.905334
0.9044
0.907374
0.919397
0.933542
0.943573
0.955609
0.971235
0.978793
0.984942
0.990978
0.994553
0.996502
0.997897
0.998642
0.999117
0.999403
0.999571
0.999667
0.999717
0.999732
0.999685
0.999534
0.999237
0.998697
0.997726
0.995983
0.992859
0.987177
0.976576
0.956509
0.919016
0.852915
0.748788
0.612443
0.466462
0.334956
0.233962
0.159057
0.105031
0.0675531
0.0423932
0.0259971
0.0155978
0.00916409
0.00527467
0.00297446
0.00164291
0.000888383
0.000470012
0.000243155
0.000122945
6.07341e-05
2.93062e-05
1.38123e-05
6.35894e-06
2.86012e-06
1.25708e-06
5.40039e-07
2.26816e-07
9.31521e-08
3.74159e-08
1.47002e-08
5.64984e-09
2.12431e-09
7.81391e-10
2.81178e-10
9.89804e-11
3.40857e-11
1.14828e-11
3.78425e-12
1.22003e-12
3.84801e-13
1.18737e-13
3.58465e-14
1.05888e-14
3.0606e-15
8.6559e-16
2.3955e-16
6.49019e-17
1.72522e-17
4.5041e-18
1.15481e-18
2.90759e-19
7.18886e-20
1.74532e-20
4.16067e-21
9.73891e-22
2.23817e-22
5.05008e-23
1.11863e-23
2.43246e-24
5.19145e-25
1.08747e-25
2.2348e-26
4.50613e-27
8.90563e-28
1.72601e-28
3.27273e-29
6.08044e-30
1.101e-30
1.95102e-31
3.34467e-32
5.54931e-33
4.55091e-05
0.000595759
0.00406141
0.0174725
0.0550713
0.146933
0.342052
0.493027
0.548307
0.567536
0.56628
0.554284
0.529403
0.494248
0.440318
0.384119
0.32489
0.274088
0.239377
0.214622
0.199376
0.179529
0.14943
0.112656
0.0750811
0.0420972
0.016282
0.0102565
0.0488745
0.224669
0.448203
0.548048
0.677816
0.762228
0.809477
0.830297
0.836909
0.838179
0.827278
0.795549
0.741851
0.710822
0.685775
0.668338
0.658472
0.650796
0.643755
0.636397
0.628546
0.620622
0.614055
0.608504
0.602114
0.596603
0.591439
0.58744
0.58423
0.579081
0.573295
0.567051
0.560985
0.554663
0.548607
0.542523
0.538918
0.537513
0.540205
0.555303
0.581614
0.624453
0.680644
0.735993
0.75925
0.766973
0.767662
0.763283
0.749905
0.743831
0.745313
0.77383
0.81663
0.848233
0.883962
0.914224
0.935155
0.954347
0.971301
0.981259
0.988311
0.992821
0.995617
0.997348
0.998409
0.999055
0.999446
0.999673
0.9998
0.999874
0.999917
0.999941
0.999952
0.999955
0.999943
0.999897
0.999781
0.999513
0.998901
0.997487
0.99417
0.986276
0.967211
0.920365
0.820011
0.675777
0.513421
0.365572
0.252682
0.169871
0.111157
0.07093
0.044188
0.0268937
0.0159944
0.00929384
0.00527433
0.00292189
0.00157931
0.000832528
0.000427899
0.000214413
0.00010475
4.99041e-05
2.31911e-05
1.05162e-05
4.6548e-06
2.01188e-06
8.4936e-07
3.50336e-07
1.41213e-07
5.56328e-08
2.14244e-08
8.0657e-09
2.9686e-09
1.06821e-09
3.75813e-10
1.29273e-10
4.34791e-11
1.4299e-11
4.59835e-12
1.44609e-12
4.44754e-13
1.33787e-13
3.93659e-14
1.13317e-14
3.19149e-15
8.79569e-16
2.37211e-16
6.2653e-17
1.62397e-17
4.13156e-18
1.0317e-18
2.52875e-19
6.08375e-20
1.43666e-20
3.33002e-21
7.57617e-22
1.69174e-22
3.70766e-23
7.97397e-24
1.68291e-24
3.48416e-25
7.07639e-26
1.40879e-26
2.7499e-27
5.25362e-28
9.83126e-29
1.7955e-29
3.2067e-30
5.56225e-31
9.3553e-32
7.93001e-05
0.00125307
0.00918114
0.0406987
0.127858
0.356089
0.54305
0.599861
0.613727
0.610256
0.589748
0.556044
0.494781
0.407498
0.290445
0.190029
0.129904
0.0982409
0.0849295
0.0868032
0.0949613
0.114402
0.117711
0.0957668
0.0510161
0.0234152
0.0193629
0.05956
0.237213
0.505289
0.623004
0.723559
0.793032
0.821128
0.829879
0.829877
0.818019
0.780484
0.697919
0.646549
0.622089
0.610037
0.603181
0.599425
0.597293
0.595159
0.59258
0.58983
0.586709
0.584152
0.582332
0.580163
0.577323
0.575056
0.572878
0.570483
0.567414
0.562853
0.556403
0.548565
0.539313
0.528849
0.519151
0.508446
0.497225
0.485384
0.474845
0.46909
0.466618
0.467877
0.479686
0.503457
0.542008
0.573131
0.582835
0.584645
0.583019
0.586188
0.607771
0.645112
0.692546
0.741508
0.776907
0.820569
0.862502
0.898535
0.931491
0.954445
0.971675
0.982574
0.989537
0.993759
0.996265
0.997744
0.998629
0.999168
0.9995
0.999702
0.999826
0.999902
0.999947
0.99997
0.999982
0.999987
0.999989
0.999989
0.999981
0.999955
0.999874
0.999645
0.99899
0.997117
0.991751
0.976404
0.932692
0.817956
0.651404
0.480985
0.337936
0.230737
0.153116
0.098888
0.0621955
0.0380999
0.0227277
0.0131979
0.00745795
0.00410001
0.00219258
0.00114067
0.000577429
0.000284532
0.000136537
6.38366e-05
2.90941e-05
1.29317e-05
5.60796e-06
2.37358e-06
9.80799e-07
3.95766e-07
1.55977e-07
6.00484e-08
2.25844e-08
8.29883e-09
2.97958e-09
1.04532e-09
3.58366e-10
1.20063e-10
3.93126e-11
1.25812e-11
3.93574e-12
1.20362e-12
3.59885e-13
1.05223e-13
3.00884e-14
8.41589e-15
2.30298e-15
6.16628e-16
1.6166e-16
4.15713e-17
1.0487e-17
2.59538e-18
6.30183e-19
1.50131e-19
3.50932e-20
8.04892e-21
1.81136e-21
3.99973e-22
8.66496e-23
1.84167e-23
3.83924e-24
7.84987e-25
1.57326e-25
3.09082e-26
5.94495e-27
1.11969e-27
2.06021e-28
3.7053e-29
6.48944e-30
1.1035e-30
0.000111357
0.00211929
0.0165445
0.0751321
0.234999
0.525063
0.625276
0.64444
0.643593
0.626611
0.583722
0.499552
0.382271
0.223108
0.117211
0.0636924
0.0417272
0.0288818
0.0305233
0.0391043
0.0571222
0.0768078
0.071797
0.0474817
0.0307441
0.0291398
0.072284
0.243002
0.543064
0.675505
0.753647
0.808696
0.829501
0.83432
0.826509
0.807552
0.744763
0.650994
0.613065
0.597494
0.592242
0.590978
0.591786
0.592099
0.592126
0.591988
0.591507
0.59134
0.591446
0.592179
0.593102
0.593565
0.593845
0.593945
0.593508
0.593365
0.59365
0.593707
0.593738
0.592463
0.591201
0.585059
0.57674
0.56144
0.541179
0.515546
0.489783
0.473334
0.45983
0.45491
0.453263
0.453076
0.455835
0.463809
0.475749
0.492508
0.50926
0.530775
0.565547
0.607073
0.65445
0.703582
0.72567
0.740356
0.765532
0.806374
0.853118
0.897456
0.932706
0.958167
0.975389
0.98616
0.99241
0.995833
0.997664
0.998644
0.999188
0.999507
0.999702
0.99982
0.999892
0.999938
0.999967
0.999983
0.999991
0.999995
0.999996
0.999997
0.999996
0.999992
0.999974
0.999914
0.999709
0.999033
0.99683
0.989778
0.967628
0.899341
0.739874
0.559695
0.399143
0.275395
0.184112
0.119383
0.0751051
0.0458406
0.027142
0.0155895
0.00868699
0.00469769
0.00246645
0.00125802
0.000623745
0.000300833
0.00014123
6.45762e-05
2.87737e-05
1.24995e-05
5.29583e-06
2.18903e-06
8.82991e-07
3.47641e-07
1.33611e-07
5.01355e-08
1.8369e-08
6.5721e-09
2.29634e-09
7.83643e-10
2.6121e-10
8.50541e-11
2.70571e-11
8.41019e-12
2.55464e-12
7.58441e-13
2.2012e-13
6.24636e-14
1.73345e-14
4.70538e-15
1.24964e-15
3.25065e-16
8.29062e-17
2.07337e-17
5.08485e-18
1.223e-18
2.88506e-19
6.67556e-20
1.51508e-20
3.37297e-21
7.36536e-22
1.57754e-22
3.31348e-23
6.82475e-24
1.37785e-24
2.72631e-25
5.28259e-26
1.00216e-26
1.85873e-27
3.36972e-28
5.95987e-29
1.02506e-29
0.000144351
0.00293437
0.0242228
0.112933
0.347299
0.60306
0.664218
0.674087
0.665792
0.628754
0.556314
0.443702
0.278648
0.124962
0.055951
0.0284067
0.0197748
0.0197544
0.0227928
0.0304517
0.0400421
0.0442114
0.0407676
0.0372807
0.0426316
0.09336
0.26848
0.574437
0.712704
0.780793
0.82135
0.837996
0.841475
0.83056
0.805835
0.737224
0.639981
0.604247
0.591814
0.588499
0.588149
0.589757
0.590341
0.59037
0.589244
0.586928
0.583826
0.579191
0.573342
0.56688
0.560116
0.553832
0.550531
0.54931
0.551172
0.555878
0.56605
0.571177
0.582753
0.588373
0.596943
0.600765
0.603046
0.603514
0.600151
0.592162
0.574135
0.540212
0.503665
0.481931
0.472401
0.46765
0.465124
0.464082
0.465206
0.471023
0.485697
0.513813
0.553548
0.599671
0.648539
0.695368
0.712738
0.716742
0.712463
0.704004
0.715828
0.762846
0.828718
0.886855
0.930326
0.961134
0.979988
0.99021
0.995292
0.997708
0.998836
0.999373
0.999643
0.999789
0.999874
0.999925
0.999955
0.999974
0.999986
0.999992
0.999996
0.999998
0.999999
0.999999
0.999999
0.999997
0.99999
0.999962
0.999857
0.999476
0.998134
0.993553
0.978342
0.92915
0.788014
0.59907
0.429407
0.296561
0.19768
0.127288
0.0792087
0.0476511
0.0277257
0.0156121
0.00851394
0.00450047
0.00230798
0.00114931
0.000556219
0.000261809
0.000119935
5.35034e-05
2.3254e-05
9.85064e-06
4.06838e-06
1.63863e-06
6.43772e-07
2.46746e-07
9.22774e-08
3.36763e-08
1.19946e-08
4.16992e-09
1.41515e-09
4.68878e-10
1.51692e-10
4.79261e-11
1.47898e-11
4.45875e-12
1.31344e-12
3.78132e-13
1.06417e-13
2.9283e-14
7.88043e-15
2.07516e-15
5.3542e-16
1.35387e-16
3.35551e-17
8.15265e-18
1.94197e-18
4.53557e-19
1.03872e-19
2.33271e-20
5.13716e-21
1.10939e-21
2.34909e-22
4.87676e-23
9.92335e-24
1.97879e-24
3.86467e-25
7.39014e-26
1.38238e-26
2.52833e-27
4.51719e-28
7.8611e-29
0.000204981
0.00330574
0.0288241
0.135775
0.402477
0.64176
0.693401
0.69329
0.67428
0.629039
0.546796
0.416805
0.232959
0.0919082
0.0425229
0.0258272
0.0216407
0.0212142
0.0239267
0.0308154
0.0371765
0.0406815
0.0447126
0.0631139
0.133785
0.333989
0.612433
0.742381
0.804116
0.83398
0.846722
0.84961
0.839205
0.815727
0.754641
0.64738
0.605722
0.591605
0.587804
0.587216
0.587504
0.588016
0.586585
0.581182
0.571084
0.554209
0.53037
0.505114
0.479537
0.461441
0.44268
0.433675
0.42957
0.428914
0.438444
0.448377
0.464773
0.479697
0.501646
0.518846
0.54134
0.560012
0.579595
0.594069
0.603606
0.607398
0.607094
0.603156
0.586352
0.562284
0.539914
0.532147
0.529433
0.528896
0.531039
0.531816
0.531493
0.542359
0.575549
0.626732
0.675755
0.702168
0.713365
0.7166
0.707701
0.682647
0.659419
0.646237
0.654067
0.704407
0.789851
0.876346
0.934344
0.969105
0.986358
0.994228
0.997591
0.998964
0.999521
0.999757
0.999866
0.999922
0.999954
0.999973
0.999985
0.999991
0.999995
0.999998
0.999999
0.999999
1
1
0.999999
0.999998
0.999993
0.999972
0.999887
0.999567
0.998402
0.994309
0.980362
0.934065
0.793855
0.597191
0.424607
0.289933
0.190378
0.12034
0.0733024
0.0430717
0.0244412
0.0134098
0.0071222
0.00366605
0.00183079
0.00088787
0.000418496
0.000191853
8.55927e-05
3.71796e-05
1.57306e-05
6.4848e-06
2.6054e-06
1.02041e-06
3.89652e-07
1.45095e-07
5.26947e-08
1.86673e-08
6.45142e-09
2.17548e-09
7.15898e-10
2.29941e-10
7.21e-11
2.20747e-11
6.60075e-12
1.92811e-12
5.50322e-13
1.53519e-13
4.1867e-14
1.11664e-14
2.91566e-15
7.45739e-16
1.86865e-16
4.58813e-17
1.104e-17
2.60372e-18
6.01935e-19
1.36419e-19
3.03103e-20
6.60244e-21
1.40993e-21
2.95151e-22
6.05567e-23
1.21751e-23
2.39778e-24
4.62406e-25
8.72719e-26
1.61118e-26
2.90847e-27
5.12199e-28
0.00033346
0.00328862
0.0302103
0.143045
0.421859
0.65638
0.711875
0.717398
0.701216
0.652441
0.57884
0.463474
0.289356
0.13243
0.0683819
0.0427887
0.034223
0.0319449
0.0328904
0.0409045
0.0507197
0.0670434
0.10607
0.204349
0.44272
0.663441
0.771438
0.822592
0.845809
0.854875
0.856994
0.848823
0.829752
0.781243
0.673703
0.614227
0.594409
0.58834
0.586769
0.586298
0.58573
0.582789
0.57359
0.553548
0.521283
0.48742
0.455284
0.420965
0.396538
0.372785
0.360861
0.354824
0.353045
0.358447
0.37007
0.383162
0.403159
0.42575
0.447944
0.469907
0.487798
0.510282
0.529654
0.552386
0.573483
0.595491
0.60806
0.612524
0.612219
0.604243
0.587441
0.577128
0.573506
0.573505
0.582395
0.59665
0.611121
0.630038
0.654314
0.68769
0.718582
0.732881
0.741051
0.748847
0.749843
0.734037
0.694059
0.648367
0.614985
0.601696
0.611917
0.671979
0.791778
0.898986
0.955053
0.981446
0.992859
0.997377
0.999042
0.999632
0.999843
0.999924
0.999959
0.999976
0.999986
0.999992
0.999995
0.999997
0.999999
0.999999
1
1
1
1
1
0.999998
0.999992
0.999968
0.99987
0.999497
0.998125
0.99325
0.976399
0.919406
0.754357
0.552206
0.384616
0.256496
0.164074
0.100852
0.0596686
0.0340364
0.0187483
0.00998725
0.00515197
0.00257665
0.00125064
0.00058962
0.000270197
0.000120424
5.22243e-05
2.20462e-05
9.06224e-06
3.62825e-06
1.41521e-06
5.37889e-07
1.99248e-07
7.19448e-08
2.53271e-08
8.69411e-09
2.91073e-09
9.50607e-10
3.02911e-10
9.41991e-11
2.85957e-11
8.47601e-12
2.45378e-12
6.93995e-13
1.91811e-13
5.18242e-14
1.36987e-14
3.54502e-15
8.98341e-16
2.22965e-16
5.4211e-17
1.29142e-17
3.01463e-18
6.89678e-19
1.54645e-19
3.39886e-20
7.32208e-21
1.54607e-21
3.19942e-22
6.48776e-23
1.28883e-23
2.50752e-24
4.77637e-25
8.90382e-26
1.62422e-26
2.89444e-27
0.000682849
0.00171756
0.0197497
0.112768
0.386605
0.659184
0.722924
0.729613
0.725038
0.700737
0.644478
0.561083
0.446687
0.300638
0.174228
0.120861
0.0975577
0.0896248
0.0892806
0.112449
0.14973
0.227011
0.37835
0.567663
0.719017
0.799992
0.838012
0.854959
0.861137
0.862373
0.857033
0.843174
0.807127
0.721614
0.635553
0.60223
0.590602
0.58676
0.585346
0.584442
0.580423
0.56744
0.537757
0.49119
0.44792
0.409216
0.365009
0.327135
0.299175
0.275345
0.262377
0.25425
0.251354
0.254454
0.265989
0.289742
0.315508
0.351333
0.38862
0.431339
0.458884
0.486434
0.509137
0.538076
0.56341
0.582233
0.600197
0.614548
0.621856
0.623978
0.610733
0.595659
0.587844
0.585605
0.592242
0.608229
0.63104
0.657143
0.685817
0.715643
0.743931
0.773737
0.80031
0.819831
0.837073
0.850779
0.850037
0.8092
0.710537
0.619106
0.585334
0.586949
0.620064
0.731683
0.87049
0.944195
0.977782
0.991917
0.997257
0.999104
0.999708
0.999899
0.999961
0.999982
0.999991
0.999995
0.999997
0.999998
0.999999
0.999999
1
1
1
1
1
1
0.999999
0.999997
0.999988
0.99995
0.999798
0.999219
0.997084
0.989428
0.962586
0.869995
0.663027
0.469257
0.316441
0.204058
0.126158
0.074951
0.0428799
0.023668
0.0126249
0.00651733
0.00326004
0.00158171
0.000744985
0.000340866
0.000151595
6.55621e-05
2.75841e-05
1.1294e-05
4.50128e-06
1.74678e-06
6.60153e-07
2.43025e-07
8.71647e-08
3.04654e-08
1.03786e-08
3.44697e-09
1.11637e-09
3.52662e-10
1.08695e-10
3.26955e-11
9.60108e-12
2.75321e-12
7.71222e-13
2.11099e-13
5.64982e-14
1.4796e-14
3.79253e-15
9.51692e-16
2.33854e-16
5.62812e-17
1.32688e-17
3.0649e-18
6.93702e-19
1.53865e-19
3.34459e-20
7.12499e-21
1.48747e-21
3.04292e-22
6.09895e-23
1.19741e-23
2.30245e-24
4.33471e-25
7.99104e-26
1.44085e-26
0.00186195
0.000950979
0.0118521
0.0768538
0.293396
0.62478
0.731633
0.74935
0.747594
0.734145
0.707107
0.659885
0.596728
0.525891
0.446945
0.374417
0.337768
0.323835
0.330657
0.395045
0.467563
0.582448
0.678786
0.773003
0.823746
0.849127
0.860224
0.864126
0.864783
0.862064
0.852451
0.825867
0.760581
0.671616
0.617247
0.596893
0.589066
0.58587
0.584306
0.581319
0.571351
0.542735
0.491008
0.434771
0.389909
0.340722
0.284781
0.247226
0.220506
0.194115
0.180452
0.170225
0.166486
0.166193
0.177621
0.196654
0.224288
0.258932
0.296625
0.343681
0.397424
0.436765
0.468946
0.513967
0.558865
0.58965
0.604539
0.614983
0.630182
0.638919
0.64298
0.632416
0.615135
0.603482
0.603692
0.616923
0.649544
0.68447
0.719463
0.752794
0.7809
0.802197
0.820471
0.838528
0.858102
0.879371
0.898404
0.908176
0.895782
0.804491
0.654351
0.595702
0.596156
0.637383
0.751572
0.873109
0.943974
0.978005
0.992252
0.997472
0.99921
0.999763
0.999929
0.999978
0.999992
0.999997
0.999999
0.999999
0.999999
1
1
1
1
1
1
1
1
1
0.999999
0.999994
0.999975
0.999897
0.999591
0.998422
0.994081
0.978337
0.9223
0.748738
0.534173
0.362536
0.234782
0.145541
0.0866034
0.0495866
0.0273763
0.0145991
0.00753099
0.00376251
0.00182236
0.000856392
0.000390738
0.000173187
7.46036e-05
3.12458e-05
1.27279e-05
5.04405e-06
1.94525e-06
7.3022e-07
2.66878e-07
9.49854e-08
3.29299e-08
1.11231e-08
3.66166e-09
1.17509e-09
3.67738e-10
1.12257e-10
3.34379e-11
9.72206e-12
2.76006e-12
7.65369e-13
2.0742e-13
5.49752e-14
1.42546e-14
3.6169e-15
8.98315e-16
2.18442e-16
5.20181e-17
1.21329e-17
2.77231e-18
6.2064e-19
1.36145e-19
2.92653e-20
6.16455e-21
1.27242e-21
2.5735e-22
5.0994e-23
9.8993e-24
1.88236e-24
3.50682e-25
6.39656e-26
0.00481328
0.000565319
0.0042232
0.0336387
0.167972
0.508112
0.71818
0.759446
0.765953
0.762107
0.750532
0.731762
0.698474
0.663337
0.637567
0.614952
0.603887
0.600815
0.624235
0.661109
0.708597
0.762204
0.804668
0.838256
0.853468
0.86065
0.863555
0.864271
0.862558
0.854789
0.833745
0.78416
0.713791
0.653244
0.612518
0.595684
0.588526
0.584984
0.581205
0.572589
0.550946
0.507033
0.447081
0.390188
0.340097
0.281701
0.230753
0.200791
0.171013
0.151153
0.139658
0.131701
0.128994
0.130191
0.137204
0.153358
0.180733
0.219818
0.260908
0.301021
0.351044
0.397966
0.43
0.45788
0.522374
0.589664
0.619566
0.629595
0.632429
0.639181
0.649045
0.651955
0.647699
0.639123
0.636189
0.640826
0.661649
0.700572
0.736417
0.764368
0.784712
0.799113
0.806923
0.811211
0.823981
0.847603
0.881474
0.912408
0.925878
0.921267
0.853334
0.701052
0.643904
0.646942
0.715898
0.836023
0.91843
0.963156
0.984738
0.994284
0.998063
0.999396
0.999823
0.99995
0.999986
0.999996
0.999999
1
1
1
1
1
1
1
1
1
1
1
1
0.999999
0.999997
0.999985
0.999935
0.999735
0.998944
0.995915
0.984576
0.943058
0.798561
0.574148
0.390469
0.253027
0.15681
0.0932315
0.0533161
0.0293893
0.0156427
0.00805088
0.00401131
0.00193666
0.000906738
0.000411959
0.000181722
7.78642e-05
3.24205e-05
1.3122e-05
5.16429e-06
1.97686e-06
7.36232e-07
2.66833e-07
9.41395e-08
3.23395e-08
1.08207e-08
3.52754e-09
1.1208e-09
3.47195e-10
1.04896e-10
3.09205e-11
8.89589e-12
2.49891e-12
6.85719e-13
1.83934e-13
4.82446e-14
1.2378e-14
3.10738e-15
7.63491e-16
1.83649e-16
4.32558e-17
9.97845e-18
2.25484e-18
4.9919e-19
1.08282e-19
2.30155e-20
4.7937e-21
9.78411e-22
1.95682e-22
3.83521e-23
7.36561e-24
1.3866e-24
2.55804e-25
0.0109955
0.000764501
0.00122289
0.0118868
0.0706802
0.286484
0.643757
0.758159
0.778709
0.781429
0.776839
0.766093
0.757933
0.745551
0.73698
0.733106
0.732149
0.741993
0.756663
0.778929
0.801668
0.823207
0.837872
0.850658
0.856315
0.859325
0.860186
0.857098
0.847214
0.824316
0.776603
0.720625
0.6725
0.635024
0.608941
0.59597
0.589172
0.585319
0.581149
0.571469
0.547811
0.500329
0.433785
0.369754
0.317711
0.260571
0.205688
0.175396
0.149598
0.130433
0.118204
0.111638
0.109741
0.115428
0.120757
0.133683
0.154803
0.194662
0.24669
0.2882
0.335018
0.384687
0.420886
0.440645
0.468903
0.544964
0.612829
0.634881
0.637023
0.631651
0.626067
0.634464
0.640797
0.640561
0.640477
0.642659
0.649745
0.672409
0.70823
0.738548
0.754503
0.753781
0.739768
0.703352
0.686416
0.697506
0.749034
0.842569
0.910334
0.93417
0.933422
0.884612
0.791942
0.756634
0.760353
0.8296
0.912786
0.959327
0.982235
0.992668
0.997158
0.998969
0.999651
0.999891
0.999968
0.999991
0.999998
0.999999
1
1
1
1
1
1
1
1
1
1
1
1
0.999999
0.999998
0.999989
0.999951
0.999792
0.999147
0.9966
0.986806
0.950107
0.817227
0.588735
0.399647
0.258291
0.159604
0.094599
0.0539234
0.0296226
0.015709
0.00805263
0.00399452
0.00191921
0.000893785
0.000403713
0.000176959
7.53063e-05
3.11258e-05
1.24995e-05
4.87855e-06
1.85116e-06
6.83102e-07
2.45215e-07
8.5657e-08
2.91258e-08
9.64366e-09
3.11036e-09
9.77564e-10
2.99512e-10
8.94921e-11
2.60873e-11
7.42201e-12
2.06189e-12
5.59659e-13
1.48479e-13
3.85162e-14
9.77253e-15
2.42599e-15
5.89408e-16
1.40185e-16
3.26473e-17
7.44639e-18
1.66371e-18
3.64168e-19
7.81056e-20
1.64154e-20
3.38107e-21
6.82507e-22
1.35045e-22
2.61928e-23
4.98186e-24
9.29295e-25
0.0205438
0.00239032
0.000352379
0.00253599
0.0199014
0.101391
0.360476
0.688313
0.776122
0.796086
0.799957
0.798433
0.790139
0.78016
0.77708
0.776983
0.782313
0.793541
0.801318
0.811132
0.821805
0.830471
0.839258
0.846468
0.848728
0.846655
0.839719
0.82438
0.793808
0.753361
0.713864
0.676778
0.64556
0.620281
0.604163
0.595217
0.589917
0.586574
0.582644
0.573649
0.55254
0.508329
0.442714
0.376575
0.323837
0.268958
0.21233
0.178862
0.153273
0.133747
0.121081
0.113009
0.110753
0.112153
0.117252
0.129923
0.149209
0.186217
0.243654
0.290479
0.333629
0.382316
0.420822
0.440218
0.45996
0.498752
0.576737
0.624508
0.634796
0.628126
0.595241
0.57244
0.568629
0.570225
0.572322
0.57623
0.579911
0.584989
0.603173
0.642757
0.664047
0.669144
0.664127
0.646047
0.60905
0.578578
0.581134
0.642193
0.807722
0.910003
0.944344
0.951706
0.941853
0.92443
0.912013
0.906629
0.926482
0.962461
0.982703
0.992546
0.996983
0.99885
0.999584
0.999856
0.999952
0.999985
0.999996
0.999999
1
1
1
1
1
1
1
1
1
1
1
1
1
1
0.999998
0.99999
0.999956
0.999807
0.999185
0.996669
0.986787
0.949144
0.811786
0.581286
0.392414
0.252243
0.155039
0.0914122
0.0518338
0.0283221
0.0149356
0.00761105
0.00375183
0.00179057
0.000827943
0.000371142
0.000161376
6.80921e-05
2.78924e-05
1.1096e-05
4.2883e-06
1.61062e-06
5.88073e-07
2.08811e-07
7.21297e-08
2.42481e-08
7.9362e-09
2.52985e-09
7.85785e-10
2.37915e-10
7.02479e-11
2.02359e-11
5.68974e-12
1.56236e-12
4.19157e-13
1.09912e-13
2.81801e-14
7.06682e-15
1.73391e-15
4.16368e-16
9.78807e-17
2.25315e-17
5.0799e-18
1.12195e-18
2.42787e-19
5.1484e-20
1.07001e-20
2.17979e-21
4.35369e-22
8.52644e-23
1.63811e-23
3.08864e-24
0.0278683
0.00688283
0.00108135
0.000385333
0.00295111
0.0222593
0.108286
0.361593
0.685955
0.778376
0.802617
0.812844
0.816068
0.814604
0.80786
0.800302
0.798912
0.802741
0.810259
0.815528
0.818845
0.820739
0.818889
0.81091
0.798332
0.779163
0.753776
0.725114
0.701054
0.676957
0.652599
0.632946
0.618024
0.606108
0.597364
0.591501
0.588898
0.5866
0.584315
0.579676
0.566793
0.535925
0.471694
0.402424
0.346242
0.296321
0.241182
0.199209
0.170794
0.149437
0.136513
0.126057
0.125542
0.128072
0.135201
0.152582
0.180366
0.214387
0.282357
0.343256
0.377434
0.412661
0.447988
0.463971
0.470898
0.49077
0.547594
0.609043
0.629621
0.626466
0.592567
0.55472
0.539476
0.527618
0.514566
0.504312
0.501247
0.504077
0.520495
0.569994
0.6165
0.638605
0.641939
0.637723
0.610579
0.560128
0.542469
0.551613
0.631748
0.816474
0.920984
0.960249
0.975564
0.981385
0.982575
0.983022
0.983957
0.987374
0.99228
0.995723
0.997859
0.999035
0.999608
0.999854
0.999949
0.999983
0.999995
0.999998
1
1
1
1
1
1
1
1
1
1
1
1
1
1
1
0.999998
0.99999
0.999955
0.999799
0.99913
0.99636
0.985298
0.942663
0.789818
0.55922
0.374441
0.238862
0.145742
0.0853176
0.0480328
0.0260543
0.0136362
0.00689434
0.00337057
0.00159472
0.000730711
0.000324451
0.000139677
5.8327e-05
2.36356e-05
9.2979e-06
3.5521e-06
1.31835e-06
4.75541e-07
1.66774e-07
5.6889e-08
1.88832e-08
6.10179e-09
1.9203e-09
5.88853e-10
1.76022e-10
5.13158e-11
1.45975e-11
4.05376e-12
1.09947e-12
2.91363e-13
7.54713e-14
1.91155e-14
4.73588e-15
1.14806e-15
2.72404e-16
6.32795e-17
1.43956e-17
3.20784e-18
7.00345e-19
1.49833e-19
3.14196e-20
6.45896e-21
1.30204e-21
2.57433e-22
4.99462e-23
9.51587e-24
0.0302577
0.014046
0.007156
0.00249482
0.00027967
0.00199486
0.0175998
0.0920902
0.312324
0.64851
0.772929
0.806029
0.818442
0.825647
0.828921
0.827864
0.82317
0.817155
0.815528
0.816701
0.816786
0.813349
0.802931
0.784702
0.758297
0.725047
0.688718
0.656125
0.635232
0.618767
0.603139
0.591141
0.583644
0.579466