/*--------------------------------*- C++ -*----------------------------------*\
  =========                 |
  \\      /  F ield         | OpenFOAM: The Open Source CFD Toolbox
   \\    /   O peration     | Website:  https://openfoam.org
    \\  /    A nd           | Version:  7
     \\/     M anipulation  |
\*---------------------------------------------------------------------------*/
FoamFile
{
    version     2.0;
    format      ascii;
    class       volVectorField;
    location    "0.048";
    object      U_0;
}
// * * * * * * * * * * * * * * * * * * * * * * * * * * * * * * * * * * * * * //

dimensions      [0 1 -1 0 0 0 0];

internalField   nonuniform List<vector> 
12225
(
(4.72594 0.14757 0)
(4.09081 0.106274 0)
(3.63305 0.0931542 0)
(3.2821 0.0725877 0)
(2.97686 0.0603314 0)
(2.67417 0.0599182 0)
(2.349 0.0615181 0)
(2.02219 0.0556681 0)
(1.72353 0.0440384 0)
(1.46225 0.033556 0)
(1.23513 0.0263861 0)
(1.04049 0.0202141 0)
(0.87232 0.0138466 0)
(0.735349 0.00765676 0)
(0.614124 0.00322009 0)
(0.52349 0.00250716 0)
(0.422432 0.00215154 0)
(0.366527 -0.0104001 0)
(4.96137 0.130092 0)
(4.79348 0.0847683 0)
(4.66828 0.0922578 0)
(4.57477 0.0897506 0)
(4.48233 0.0880622 0)
(4.37552 0.0940021 0)
(4.25486 0.103979 0)
(4.13017 0.110817 0)
(4.00027 0.111777 0)
(3.85506 0.108175 0)
(3.68916 0.10231 0)
(3.51753 0.0956234 0)
(3.34583 0.0885444 0)
(3.19077 0.081791 0)
(3.03306 0.0759361 0)
(2.88787 0.070038 0)
(2.73859 0.0685334 0)
(2.60755 0.0538619 0)
(4.90624 0.169677 0)
(4.79157 0.117219 0)
(4.70683 0.127524 0)
(4.70517 0.117948 0)
(4.71616 0.110826 0)
(4.70663 0.115937 0)
(4.68458 0.125037 0)
(4.66472 0.129259 0)
(4.64696 0.129598 0)
(4.62046 0.131429 0)
(4.57613 0.135 0)
(4.51394 0.136723 0)
(4.43874 0.133102 0)
(4.35757 0.126074 0)
(4.27618 0.121248 0)
(4.19249 0.11781 0)
(4.11675 0.117358 0)
(4.03255 0.117572 0)
(4.99158 0.197103 0)
(4.89654 0.129052 0)
(4.81537 0.118622 0)
(4.77734 0.103178 0)
(4.75555 0.0994991 0)
(4.73112 0.109274 0)
(4.70817 0.120876 0)
(4.69785 0.126246 0)
(4.70265 0.127667 0)
(4.71551 0.131607 0)
(4.72792 0.138633 0)
(4.73093 0.144329 0)
(4.72112 0.145401 0)
(4.69504 0.142466 0)
(4.65968 0.139931 0)
(4.61589 0.137604 0)
(4.57623 0.137645 0)
(4.53315 0.138858 0)
(4.92267 0.249791 0)
(4.89605 0.139396 0)
(4.82855 0.12959 0)
(4.79555 0.127167 0)
(4.76615 0.125426 0)
(4.7324 0.128782 0)
(4.70753 0.130462 0)
(4.70308 0.12574 0)
(4.7184 0.11908 0)
(4.74446 0.118397 0)
(4.77148 0.12561 0)
(4.78956 0.136318 0)
(4.79297 0.145865 0)
(4.77831 0.151874 0)
(4.75155 0.155572 0)
(4.71906 0.157015 0)
(4.69064 0.157252 0)
(4.66785 0.157038 0)
(5.05569 0.221906 0)
(4.95809 0.159475 0)
(4.86476 0.141561 0)
(4.81467 0.126776 0)
(4.7994 0.123982 0)
(4.80846 0.128761 0)
(4.82544 0.130357 0)
(4.83532 0.124471 0)
(4.8327 0.116565 0)
(4.82145 0.115212 0)
(4.80808 0.123423 0)
(4.79474 0.13754 0)
(4.77988 0.152078 0)
(4.76079 0.16266 0)
(4.73896 0.167991 0)
(4.71806 0.168404 0)
(4.70241 0.164429 0)
(4.69323 0.159347 0)
(5.00642 0.293939 0)
(4.94709 0.19214 0)
(4.90237 0.158255 0)
(4.8675 0.145509 0)
(4.84893 0.135223 0)
(4.8458 0.127098 0)
(4.85123 0.1239 0)
(4.85817 0.123226 0)
(4.86156 0.123621 0)
(4.85857 0.127124 0)
(4.84924 0.13555 0)
(4.83516 0.147912 0)
(4.8184 0.161187 0)
(4.79999 0.171867 0)
(4.78171 0.177354 0)
(4.76487 0.177222 0)
(4.75199 0.171653 0)
(4.74126 0.163865 0)
(4.97724 0.285651 0)
(4.88067 0.199377 0)
(4.83472 0.154975 0)
(4.82276 0.135867 0)
(4.83321 0.127659 0)
(4.84865 0.123664 0)
(4.8588 0.119678 0)
(4.86022 0.115122 0)
(4.85392 0.113773 0)
(4.84255 0.119958 0)
(4.82896 0.134396 0)
(4.8154 0.153379 0)
(4.80391 0.171341 0)
(4.7951 0.183634 0)
(4.79028 0.187928 0)
(4.78804 0.18507 0)
(4.79002 0.176818 0)
(4.79061 0.167477 0)
(4.93879 0.303067 0)
(4.91805 0.229406 0)
(4.90523 0.170917 0)
(4.88847 0.143633 0)
(4.87471 0.130056 0)
(4.87173 0.125394 0)
(4.86695 0.127631 0)
(4.84854 0.132529 0)
(4.82092 0.137121 0)
(4.7972 0.142089 0)
(4.7874 0.149475 0)
(4.79388 0.159338 0)
(4.8132 0.169518 0)
(4.83874 0.176903 0)
(4.86404 0.17924 0)
(4.88289 0.176328 0)
(4.89384 0.169846 0)
(4.89284 0.162576 0)
(4.95031 0.258267 0)
(5.0025 0.219953 0)
(5.00985 0.167102 0)
(4.97975 0.144174 0)
(4.91712 0.132781 0)
(4.85631 0.125743 0)
(4.82249 0.125348 0)
(4.81929 0.128437 0)
(4.83732 0.130793 0)
(4.86285 0.131968 0)
(4.8851 0.134397 0)
(4.9 0.140081 0)
(4.90899 0.148458 0)
(4.91412 0.157206 0)
(4.9164 0.164155 0)
(4.91552 0.168381 0)
(4.91114 0.170807 0)
(4.90358 0.172085 0)
(4.99464 0.232094 0)
(4.985 0.196747 0)
(4.95687 0.175731 0)
(4.92335 0.174297 0)
(4.90401 0.178039 0)
(4.90023 0.170145 0)
(4.90341 0.151231 0)
(4.90712 0.131903 0)
(4.90862 0.120986 0)
(4.90681 0.121014 0)
(4.90255 0.130133 0)
(4.8981 0.144072 0)
(4.8955 0.157977 0)
(4.89477 0.168716 0)
(4.89502 0.174839 0)
(4.89432 0.177111 0)
(4.89229 0.176809 0)
(4.88801 0.176101 0)
(5.03016 0.267154 0)
(4.9673 0.228392 0)
(4.92199 0.194598 0)
(4.88916 0.169855 0)
(4.87916 0.150039 0)
(4.89485 0.13402 0)
(4.91789 0.123985 0)
(4.92954 0.121315 0)
(4.92413 0.124008 0)
(4.90824 0.129802 0)
(4.89278 0.137359 0)
(4.8859 0.145939 0)
(4.88981 0.154792 0)
(4.9013 0.16298 0)
(4.91494 0.169539 0)
(4.92562 0.174071 0)
(4.93154 0.177216 0)
(4.93064 0.179437 0)
(4.97943 0.262406 0)
(5.00857 0.232148 0)
(4.95661 0.209119 0)
(4.91715 0.186825 0)
(4.92053 0.163445 0)
(4.95337 0.142817 0)
(4.97988 0.132055 0)
(4.97764 0.133087 0)
(4.95228 0.140036 0)
(4.92451 0.145474 0)
(4.91119 0.146259 0)
(4.91655 0.144471 0)
(4.93484 0.143782 0)
(4.95582 0.146503 0)
(4.97113 0.152664 0)
(4.97605 0.16109 0)
(4.97117 0.170595 0)
(4.95862 0.179204 0)
(5.0183 0.256068 0)
(5.00409 0.241223 0)
(4.95537 0.23542 0)
(4.93649 0.189178 0)
(4.93835 0.134627 0)
(4.94184 0.106991 0)
(4.93811 0.113223 0)
(4.93146 0.135562 0)
(4.93158 0.150932 0)
(4.94353 0.14968 0)
(4.96431 0.138129 0)
(4.98643 0.12865 0)
(5.00358 0.129474 0)
(5.01201 0.141862 0)
(5.01242 0.161168 0)
(5.00614 0.181142 0)
(4.99804 0.197161 0)
(4.98885 0.205846 0)
(5.01608 0.221755 0)
(5.00589 0.252174 0)
(4.98696 0.248291 0)
(5.00453 0.195426 0)
(5.01344 0.155096 0)
(5.00295 0.139045 0)
(4.98994 0.13716 0)
(4.98557 0.13706 0)
(4.98911 0.130682 0)
(4.99445 0.119309 0)
(4.99658 0.110004 0)
(4.99493 0.108993 0)
(4.99325 0.117837 0)
(4.99457 0.133576 0)
(5.00089 0.151873 0)
(5.00991 0.168552 0)
(5.02092 0.181848 0)
(5.02867 0.191718 0)
(5.02728 0.261479 0)
(5.0146 0.278442 0)
(5.01673 0.235202 0)
(5.03729 0.177841 0)
(5.04447 0.142089 0)
(5.04099 0.129483 0)
(5.03996 0.132942 0)
(5.03993 0.14228 0)
(5.03601 0.149236 0)
(5.02755 0.150311 0)
(5.01733 0.146273 0)
(5.00897 0.140714 0)
(5.00619 0.137798 0)
(5.00933 0.140382 0)
(5.01759 0.148757 0)
(5.02777 0.161327 0)
(5.03869 0.175929 0)
(5.04775 0.190375 0)
(4.95118 0.322637 0)
(4.99094 0.255594 0)
(5.00087 0.200214 0)
(5.01167 0.1654 0)
(5.00935 0.141424 0)
(5.00541 0.12881 0)
(5.01012 0.128525 0)
(5.01819 0.133874 0)
(5.02351 0.136232 0)
(5.02422 0.131474 0)
(5.02069 0.121551 0)
(5.01526 0.11168 0)
(5.01207 0.106736 0)
(5.01424 0.109126 0)
(5.02377 0.118304 0)
(5.03941 0.132131 0)
(5.06028 0.147268 0)
(5.08289 0.161871 0)
(5.06796 0.318256 0)
(5.08614 0.26232 0)
(5.09676 0.215791 0)
(5.09156 0.188339 0)
(5.06816 0.163341 0)
(5.05126 0.139931 0)
(5.04925 0.128637 0)
(5.05511 0.133763 0)
(5.06211 0.149532 0)
(5.06689 0.165521 0)
(5.06803 0.172979 0)
(5.06618 0.168128 0)
(5.06405 0.152728 0)
(5.06433 0.131838 0)
(5.06854 0.111809 0)
(5.0768 0.0981691 0)
(5.08848 0.0928941 0)
(5.1024 0.0984915 0)
(4.94423 0.237345 0)
(5.0059 0.17822 0)
(5.0507 0.184643 0)
(5.07756 0.18784 0)
(5.06844 0.174337 0)
(5.05352 0.145282 0)
(5.04409 0.117636 0)
(5.03835 0.104342 0)
(5.04031 0.103821 0)
(5.05375 0.106756 0)
(5.07654 0.106067 0)
(5.1032 0.100755 0)
(5.12895 0.0933969 0)
(5.15067 0.087486 0)
(5.16709 0.084845 0)
(5.17783 0.0860366 0)
(5.18443 0.0899832 0)
(5.18751 0.0957234 0)
(5.10176 0.185699 0)
(5.08757 0.0830622 0)
(5.07235 0.142984 0)
(5.06236 0.198562 0)
(5.0622 0.20328 0)
(5.07112 0.183587 0)
(5.08657 0.161443 0)
(5.10634 0.141292 0)
(5.13009 0.121251 0)
(5.15537 0.101016 0)
(5.17779 0.0823253 0)
(5.19405 0.0674627 0)
(5.20448 0.0579816 0)
(5.21195 0.054313 0)
(5.21993 0.0564649 0)
(5.22952 0.063595 0)
(5.24115 0.0746512 0)
(5.25322 0.0883888 0)
(5.0767 0.251017 0)
(5.05483 0.198406 0)
(5.01145 0.200394 0)
(5.01275 0.19185 0)
(5.03039 0.162556 0)
(5.04617 0.125169 0)
(5.06182 0.0877698 0)
(5.08371 0.056633 0)
(5.11382 0.0377871 0)
(5.14802 0.033191 0)
(5.1798 0.0386883 0)
(5.20441 0.0465988 0)
(5.22039 0.0503672 0)
(5.22872 0.0477707 0)
(5.23174 0.0412542 0)
(5.23255 0.035428 0)
(5.23348 0.0336989 0)
(5.23717 0.0388053 0)
(4.97831 0.273704 0)
(5.01978 0.205878 0)
(5.03347 0.18919 0)
(5.06409 0.171225 0)
(5.1057 0.155484 0)
(5.14536 0.135814 0)
(5.17729 0.104176 0)
(5.19722 0.0654798 0)
(5.20602 0.0319251 0)
(5.21043 0.012329 0)
(5.2174 0.00813861 0)
(5.22877 0.0156645 0)
(5.2425 0.0291428 0)
(5.25546 0.0436174 0)
(5.26579 0.0556764 0)
(5.27327 0.064183 0)
(5.27926 0.068971 0)
(5.28548 0.070958 0)
(5.02058 0.263526 0)
(5.03965 0.19914 0)
(5.07354 0.166362 0)
(5.11039 0.140263 0)
(5.15012 0.104719 0)
(5.18801 0.0696738 0)
(5.2231 0.0454575 0)
(5.25137 0.0310865 0)
(5.26932 0.0216634 0)
(5.27732 0.014839 0)
(5.2792 0.0104147 0)
(5.27919 0.00875094 0)
(5.28019 0.00940199 0)
(5.28327 0.0112382 0)
(5.28889 0.0127751 0)
(5.29678 0.0135777 0)
(5.30697 0.0135507 0)
(5.31875 0.0135319 0)
(4.94395 0.27196 0)
(4.99794 0.172958 0)
(5.06308 0.122778 0)
(5.13495 0.108287 0)
(5.18893 0.0907049 0)
(5.21439 0.0651682 0)
(5.22587 0.0402408 0)
(5.23924 0.0214181 0)
(5.25986 0.00990853 0)
(5.285 0.00619651 0)
(5.31035 0.00955717 0)
(5.33315 0.0175635 0)
(5.35248 0.0269438 0)
(5.36806 0.034973 0)
(5.38087 0.0400241 0)
(5.39173 0.0415794 0)
(5.40229 0.0397504 0)
(5.41216 0.035447 0)
(5.02321 0.267241 0)
(5.08915 0.137538 0)
(5.15938 0.0829701 0)
(5.23519 0.0670754 0)
(5.28821 0.0524081 0)
(5.31138 0.0361435 0)
(5.31786 0.0185068 0)
(5.32055 -0.000328747 0)
(5.3262 -0.0176898 0)
(5.33684 -0.0295204 0)
(5.3515 -0.0335175 0)
(5.36864 -0.0305283 0)
(5.38767 -0.0238603 0)
(5.40851 -0.0170295 0)
(5.43136 -0.0120287 0)
(5.45492 -0.00965487 0)
(5.47877 -0.00959461 0)
(5.50033 -0.0109782 0)
(5.03812 0.265821 0)
(5.08161 0.113858 0)
(5.15807 0.0551768 0)
(5.23611 0.0518062 0)
(5.29303 0.0535283 0)
(5.33687 0.0473724 0)
(5.3785 0.0335813 0)
(5.41723 0.0152193 0)
(5.44751 -0.0018606 0)
(5.46764 -0.0132176 0)
(5.4807 -0.0171394 0)
(5.49101 -0.0148938 0)
(5.5016 -0.0100017 0)
(5.51329 -0.00598482 0)
(5.52548 -0.00460363 0)
(5.53682 -0.00553695 0)
(5.54674 -0.00733317 0)
(5.55462 -0.00831776 0)
(5.03887 0.211329 0)
(5.1576 0.0777078 0)
(5.25607 0.010343 0)
(5.30761 -0.00267502 0)
(5.35734 -0.00865207 0)
(5.41461 -0.0192024 0)
(5.46448 -0.0303059 0)
(5.49728 -0.0400041 0)
(5.51439 -0.047076 0)
(5.52317 -0.0504745 0)
(5.53155 -0.049947 0)
(5.54373 -0.0463358 0)
(5.55998 -0.0411838 0)
(5.57788 -0.0359269 0)
(5.59506 -0.0315402 0)
(5.60965 -0.0284708 0)
(5.62152 -0.0266099 0)
(5.63065 -0.0261512 0)
(4.98881 0.196522 0)
(5.22354 0.0657075 0)
(5.37791 0.0248233 0)
(5.42763 0.00869592 0)
(5.4495 -0.00372846 0)
(5.48378 -0.0110298 0)
(5.52266 -0.0121605 0)
(5.55012 -0.0127085 0)
(5.56169 -0.017209 0)
(5.56271 -0.024197 0)
(5.56146 -0.0300325 0)
(5.56368 -0.0325127 0)
(5.57128 -0.0316784 0)
(5.58345 -0.0290876 0)
(5.59879 -0.0261834 0)
(5.61572 -0.023889 0)
(5.63347 -0.0221504 0)
(5.65114 -0.0207946 0)
(4.99306 0.0490023 0)
(5.27476 -0.0465882 0)
(5.40787 -0.0362162 0)
(5.44865 -0.0343685 0)
(5.46881 -0.0443467 0)
(5.485 -0.0556202 0)
(5.49773 -0.0589713 0)
(5.50893 -0.0551483 0)
(5.51934 -0.050799 0)
(5.52657 -0.0497613 0)
(5.52804 -0.0514424 0)
(5.52421 -0.0535185 0)
(5.51745 -0.0543549 0)
(5.51083 -0.0538943 0)
(5.50564 -0.0528303 0)
(5.50293 -0.0519733 0)
(5.50118 -0.0515316 0)
(5.50109 -0.0516466 0)
(5.03299 0.0557432 0)
(5.13962 -0.0210699 0)
(5.06886 -0.0152451 0)
(4.94995 -0.0195865 0)
(4.82932 -0.0237841 0)
(4.70723 -0.0232702 0)
(4.58693 -0.022374 0)
(4.47381 -0.0236738 0)
(4.36792 -0.02643 0)
(4.26531 -0.0285041 0)
(4.16344 -0.0285992 0)
(4.06398 -0.0270195 0)
(3.96946 -0.0249713 0)
(3.88155 -0.0234786 0)
(3.79916 -0.0227068 0)
(3.7222 -0.022305 0)
(3.64834 -0.0215412 0)
(3.58025 -0.0202429 0)
(-0.0277665 0.0312624 1.85781e-20)
(0.011216 -0.0567476 -1.84441e-20)
(0.120962 -0.121281 0)
(0.257967 -0.151218 0)
(0.40615 -0.161112 0)
(0.557099 -0.161275 1.78581e-20)
(0.707075 -0.157358 0)
(0.854312 -0.15184 0)
(0.998083 -0.145516 0)
(1.13787 -0.138342 0)
(1.27268 -0.129965 -1.7069e-20)
(1.40104 -0.119812 0)
(1.52048 -0.107357 0)
(1.6284 -0.0920479 0)
(1.72069 -0.0735704 0)
(1.79461 -0.0516897 -1.6287e-20)
(1.84453 -0.0261 0)
(1.86981 0.00287251 0)
(1.86361 0.0354962 0)
(1.82423 0.0701184 0)
(1.74774 0.106245 0)
(1.63714 0.142208 0)
(1.49038 0.173572 0)
(1.31127 0.206349 -1.53523e-20)
(1.11436 0.218434 1.52546e-20)
(0.872078 0.23518 -1.51529e-20)
(0.679702 0.222166 -1.50465e-20)
(0.453265 0.147837 0)
(0.27029 0.0725714 0)
(0.270767 -0.0374019 1.46923e-20)
(0.23218 -0.115482 1.45647e-20)
(0.256398 -0.183898 0)
(0.431806 -0.239487 0)
(0.664288 -0.221712 1.416e-20)
(0.776436 -0.42171 0)
(0.766034 -0.620319 0)
(0.725577 -0.456294 -1.37573e-20)
(0.452865 0.0619078 0)
(-0.123937 0.482316 -1.35653e-20)
(-0.749915 0.587592 -2.6871e-20)
(-1.3519 0.542659 0)
(-1.86022 0.457921 0)
(-2.29866 0.385568 0)
(-2.67481 0.324332 0)
(-2.99913 0.273668 0)
(-3.28012 0.232306 -2.4458e-20)
(-3.52487 0.198358 -2.40555e-20)
(-3.73853 0.170164 -2.36694e-20)
(-3.92487 0.146182 0)
(-4.0864 0.125107 2.29541e-20)
(-4.22479 0.106043 0)
(-4.34112 0.0884381 -2.23224e-20)
(-4.4362 0.0719832 -2.20398e-20)
(-4.51072 0.0565027 0)
(-4.56532 0.0419473 0)
(-4.60079 0.0283424 0)
(-4.61794 0.0157959 -2.11259e-20)
(-4.61735 0.00454411 0)
(-4.60168 -0.00551499 0)
(-4.57102 -0.0147478 0)
(-4.52664 -0.0232285 0)
(-4.46933 -0.0310613 0)
(-4.40001 -0.038212 0)
(-4.31964 -0.0446163 0)
(-4.22935 -0.0501348 0)
(-4.13057 -0.0545818 1.99168e-20)
(-4.02507 -0.0577477 0)
(-3.9151 -0.0594204 0)
(-3.80321 -0.0594599 -1.9591e-20)
(-3.69218 -0.0578746 -1.94781e-20)
(-3.58459 -0.0548867 0)
(-3.48249 -0.0509795 1.92437e-20)
(-3.38691 -0.0468879 -1.91228e-20)
(-3.2974 -0.0435401 0)
(-3.21169 -0.0419309 1.88789e-20)
(-3.12556 -0.0429242 0)
(-3.03327 -0.0470218 0)
(-2.92874 -0.0540817 -1.85336e-20)
(-2.80739 -0.0631283 0)
(-2.6672 -0.0726745 1.83305e-20)
(-2.50875 -0.0813605 0)
(-2.33474 -0.088161 -1.81396e-20)
(-2.14914 -0.0926253 -1.80433e-20)
(-1.95632 -0.0947587 -1.7944e-20)
(-1.76037 -0.0948427 -3.56808e-20)
(-1.56455 -0.093351 3.54637e-20)
(-1.37098 -0.0907886 0)
(-1.18106 -0.0875258 0)
(-0.995859 -0.0838889 0)
(-0.816052 -0.0800478 3.44887e-20)
(-0.64209 -0.0760766 3.42186e-20)
(-0.474317 -0.0719944 -3.39384e-20)
(-0.313048 -0.0677953 0)
(-0.158674 -0.0634077 3.33491e-20)
(-0.0123692 -0.0589731 3.30382e-20)
(0.125692 -0.0544149 3.27124e-20)
(0.255799 -0.0497112 0)
(0.377374 -0.0449539 0)
(0.490201 -0.0402238 0)
(0.594218 -0.0355955 3.13412e-20)
(0.689519 -0.031134 0)
(0.776328 -0.0268909 0)
(0.854966 -0.0229022 -3.02863e-20)
(0.925826 -0.0191885 0)
(0.989339 -0.0157572 0)
(1.04595 -0.0126056 -2.92323e-20)
(1.0961 -0.00972539 0)
(1.14022 -0.00710605 0)
(1.17873 -0.00473834 2.81918e-20)
(1.21202 -0.00261437 2.78492e-20)
(1.24048 -0.000727473 0)
(1.26451 0.000926783 -2.71712e-20)
(1.28448 0.00235802 0)
(1.3008 0.00357585 2.65032e-20)
(1.31384 0.00459193 0)
(1.32399 0.00542967 2.58455e-20)
(1.3316 0.00610426 2.55205e-20)
(1.33702 0.00664156 0)
(1.34056 0.00707338 0)
(1.34249 0.00742246 0)
(1.34298 0.0077236 0)
(1.34225 0.00797103 0)
(1.34051 0.00813917 0)
(1.33789 0.00822045 0)
(1.33452 0.00822421 2.30119e-20)
(1.33051 0.00815657 -2.27093e-20)
(1.32599 0.00801555 0)
(1.32107 0.00779854 0)
(1.31589 0.00751177 0)
(1.31055 0.00716577 0)
(1.30517 0.00677424 -4.24597e-20)
(1.29982 0.00635293 0)
(1.2946 0.00591588 4.1306e-20)
(1.28955 0.00547464 -4.07353e-20)
(1.28472 0.00504081 0)
(1.28014 0.00462546 0)
(1.27582 0.00423502 0)
(1.27176 0.00387033 3.84915e-20)
(1.26794 0.0035308 3.794e-20)
(1.26437 0.00321722 0)
(1.26103 0.00292984 3.6848e-20)
(1.25791 0.00266498 3.63074e-20)
(1.25497 0.00241755 -3.57703e-20)
(1.25218 0.0021858 0)
(1.24952 0.00196948 0)
(1.24695 0.00177514 -3.41793e-20)
(1.24448 0.0016041 0)
(1.24207 0.0014536 0)
(1.23974 0.00132141 0)
(1.23746 0.00120623 0)
(1.23522 0.0011077 3.15931e-20)
(1.23303 0.00102596 3.10853e-20)
(1.23085 0.000960636 0)
(1.22868 0.000911092 3.00788e-20)
(1.22649 0.000876139 0)
(1.22426 0.00085421 0)
(1.22198 0.000843117 2.85913e-20)
(1.21963 0.000841346 0)
(1.21718 0.00084886 2.76142e-20)
(1.21464 0.000865335 0)
(1.21194 0.00089236 0)
(1.20911 0.000930299 2.61699e-20)
(1.20605 0.000982904 0)
(1.20282 0.00104991 2.5221e-20)
(1.19919 0.0011396 0)
(1.19537 0.00124844 0)
(1.19086 0.00139708 0)
(1.18613 0.0015696 -2.33568e-20)
(1.18019 0.00181952 0)
(1.17401 0.0020951 2.24418e-20)
(1.16572 0.00253694 0)
(1.15703 0.00297246 0)
(1.14499 0.00381522 0)
(1.13137 0.00445712 0)
(1.11393 0.00626292 0)
(1.08865 0.00697199 0)
(1.06631 0.0115554 0)
(1.00759 0.0112481 -3.78467e-20)
(0.995793 0.0251076 0)
(0.826062 0.0172138 0)
(-0.00141502 0.00506487 -5.57265e-20)
(0.0961969 -0.255934 5.53015e-20)
(0.224302 -0.402274 0)
(0.356478 -0.45798 -3.62748e-20)
(0.488185 -0.470102 0)
(0.619887 -0.465095 -1.78479e-20)
(0.752246 -0.454561 3.53651e-20)
(0.885474 -0.442437 3.50523e-20)
(1.01948 -0.429176 0)
(1.1536 -0.41374 3.44138e-20)
(1.28659 -0.394479 1.70626e-20)
(1.4162 -0.369534 0)
(1.53988 -0.337053 0)
(1.65373 -0.295494 0)
(1.75438 -0.244183 0)
(1.83704 -0.182701 1.62829e-20)
(1.89875 -0.111897 0)
(1.93438 -0.0329895 -3.19466e-20)
(1.94288 0.0518456 0)
(1.92575 0.139688 0)
(1.87954 0.228621 3.12233e-20)
(1.80828 0.310481 0)
(1.71227 0.392448 -3.08164e-20)
(1.59398 0.447273 1.53352e-20)
(1.46709 0.508639 -1.52341e-20)
(1.32069 0.528335 1.5129e-20)
(1.18906 0.456369 1.50205e-20)
(1.00932 0.504385 0)
(0.940374 0.293159 0)
(0.815097 0.0563654 -1.46701e-20)
(0.782001 0.11072 1.45794e-20)
(0.977354 -0.0786534 0)
(0.825531 -0.555505 0)
(0.535359 -0.35534 -1.41658e-20)
(0.125931 0.273572 0)
(-0.59933 0.702289 0)
(-1.25984 0.998068 1.37355e-20)
(-1.78054 1.22828 0)
(-2.21979 1.30632 -1.33297e-20)
(-2.5758 1.23146 2.67323e-20)
(-2.89131 1.09949 0)
(-3.16472 0.954376 0)
(-3.41206 0.822141 5.09124e-20)
(-3.63216 0.706276 5.01267e-20)
(-3.83014 0.608348 4.9338e-20)
(-4.00825 0.526174 -2.41496e-20)
(-4.16851 0.456366 2.40132e-20)
(-4.31223 0.395828 7.06921e-20)
(-4.43999 0.341706 -4.63521e-20)
(-4.55203 0.292009 -2.29267e-20)
(-4.64813 0.245336 0)
(-4.72805 0.200875 2.23017e-20)
(-4.7916 0.158212 -2.18815e-20)
(-4.8388 0.117235 0)
(-4.86974 0.078094 0)
(-4.88471 0.0410551 0)
(-4.88433 0.00630666 2.11156e-20)
(-4.86963 -0.025932 0)
(-4.83962 -0.0557036 -4.14719e-20)
(-4.79581 -0.0832504 0)
(-4.73862 -0.10859 -4.09188e-20)
(-4.66895 -0.131782 0)
(-4.58766 -0.152728 4.0442e-20)
(-4.49573 -0.171228 0)
(-4.39433 -0.186912 -4.0008e-20)
(-4.28489 -0.199264 1.98899e-20)
(-4.16925 -0.207677 0)
(-4.04963 -0.211571 3.93763e-20)
(-3.92868 -0.210595 1.95832e-20)
(-3.80929 -0.204859 1.94709e-20)
(-3.69425 -0.195132 0)
(-3.58582 -0.182941 1.92332e-20)
(-3.48521 -0.17053 1.91171e-20)
(-3.39202 -0.160681 0)
(-3.30379 -0.156331 -1.88739e-20)
(-3.21578 -0.159984 3.74864e-20)
(-3.12134 -0.173024 0)
(-3.01311 -0.194981 1.85283e-20)
(-2.88538 -0.22301 0)
(-2.73599 -0.252542 -5.49385e-20)
(-2.56619 -0.279165 0)
(-2.37974 -0.299732 5.43689e-20)
(-2.18167 -0.312982 1.80374e-20)
(-1.97698 -0.319156 -1.79114e-20)
(-1.77012 -0.319234 -3.56212e-20)
(-1.56449 -0.314708 3.54096e-20)
(-1.36205 -0.307181 0)
(-1.16392 -0.297739 0)
(-0.970845 -0.287319 0)
(-0.783229 -0.276374 -1.03421e-19)
(-0.601282 -0.265085 -3.42134e-20)
(-0.425224 -0.253464 3.39341e-20)
(-0.255283 -0.241428 0)
(-0.0918887 -0.228855 3.33341e-20)
(0.0637794 -0.21622 -3.30324e-20)
(0.211765 -0.202938 -3.27031e-20)
(0.352292 -0.189316 0)
(0.484668 -0.175545 0)
(0.608732 -0.161843 0)
(0.724473 -0.14842 -3.13322e-20)
(0.832033 -0.135457 0)
(0.931696 -0.123091 6.12555e-20)
(1.02385 -0.111413 9.08281e-20)
(1.10895 -0.100472 -5.98463e-20)
(1.1875 -0.0902804 0)
(1.25997 -0.080823 -2.92196e-20)
(1.32684 -0.0720695 0)
(1.38853 -0.0639817 -5.70504e-20)
(1.44542 -0.0565218 2.81788e-20)
(1.49782 -0.0496565 2.78361e-20)
(1.54603 -0.04336 0)
(1.59032 -0.0376157 8.14773e-20)
(1.63096 -0.032412 -5.36464e-20)
(1.6682 -0.0277399 -2.64911e-20)
(1.70233 -0.0235896 0)
(1.73364 -0.0199416 -2.58326e-20)
(1.76243 -0.0167715 -7.65205e-20)
(1.789 -0.014043 0)
(1.81368 -0.0117081 -4.97276e-20)
(1.83674 -0.00971609 -4.90926e-20)
(1.85852 -0.00800709 -4.84625e-20)
(1.87923 -0.00654223 0)
(1.89905 -0.00528939 0)
(1.91814 -0.00420865 0)
(1.93659 -0.00327033 2.29956e-20)
(1.95448 -0.00245377 2.26935e-20)
(1.97184 -0.00174683 0)
(1.98867 -0.00114898 4.41889e-20)
(2.00496 -0.000657079 4.35969e-20)
(2.02069 -0.000264276 0)
(2.03586 3.65984e-05 4.24263e-20)
(2.05046 0.000254007 8.36939e-20)
(2.06447 0.000399682 -4.12722e-20)
(2.07791 0.000486151 -4.07011e-20)
(2.09079 0.000524091 0)
(2.1031 0.000524979 0)
(2.11488 0.000504264 0)
(2.12614 0.000475023 -3.84578e-20)
(2.13687 0.00043912 3.79064e-20)
(2.14709 0.000392157 7.47177e-20)
(2.15682 0.000338822 -3.68149e-20)
(2.16604 0.000297948 3.62746e-20)
(2.17477 0.000288424 3.57378e-20)
(2.18296 0.000311998 0)
(2.19061 0.000357967 0)
(2.19772 0.00040754 -3.4148e-20)
(2.20431 0.000449862 0)
(2.21037 0.000486453 0)
(2.21591 0.000518853 6.51761e-20)
(2.22096 0.000547528 0)
(2.22553 0.000573035 3.15641e-20)
(2.22962 0.000596018 -3.10567e-20)
(2.23326 0.000620192 0)
(2.23646 0.000652549 3.00513e-20)
(2.23923 0.000692675 0)
(2.24161 0.000741396 0)
(2.24359 0.000798685 -2.85655e-20)
(2.24522 0.000864273 5.6152e-20)
(2.24648 0.000938966 -2.75895e-20)
(2.2474 0.00102353 0)
(2.24798 0.00112254 0)
(2.24824 0.00123737 2.61466e-20)
(2.24815 0.00137898 0)
(2.24775 0.00154535 2.51987e-20)
(2.24694 0.00176416 0)
(2.24583 0.00201548 0)
(2.24416 0.00237107 0)
(2.24214 0.00275185 2.33368e-20)
(2.23931 0.0033544 0)
(2.23598 0.00391971 -2.24228e-20)
(2.23149 0.00500076 0)
(2.22599 0.00580206 0)
(2.21915 0.00789337 4.21479e-20)
(2.20953 0.00890553 -4.12624e-20)
(2.19978 0.0133158 0)
(2.18098 0.0142067 0)
(2.16953 0.024372 0)
(2.12717 0.0239145 1.13425e-19)
(2.12299 0.049052 0)
(2.01573 0.0443514 -7.22886e-20)
(0.0360514 -0.161772 3.51704e-24)
(0.160588 -0.529278 -7.36844e-20)
(0.281044 -0.671469 0)
(0.391017 -0.706835 7.24971e-20)
(0.49807 -0.708635 0)
(0.608011 -0.703712 0)
(0.72336 -0.69851 -3.05713e-23)
(0.844498 -0.692841 -3.50422e-20)
(0.97088 -0.6847 -3.46854e-20)
(1.10145 -0.671358 -3.44047e-20)
(1.23444 -0.649773 0)
(1.36716 -0.616648 0)
(1.49583 -0.568685 3.33598e-20)
(1.6158 -0.503465 6.60604e-20)
(1.72156 -0.41981 -6.54174e-20)
(1.80759 -0.317663 0)
(1.86829 -0.19925 -6.42177e-20)
(1.89966 -0.0683836 3.19483e-20)
(1.89949 0.0696574 0)
(1.86675 0.208616 -6.26872e-20)
(1.80216 0.343759 -3.12234e-20)
(1.70839 0.464753 6.18576e-20)
(1.59358 0.574573 3.08165e-20)
(1.46487 0.659431 0)
(1.3179 0.705436 -6.07822e-20)
(1.17277 0.756288 -6.04304e-20)
(1.0196 0.77515 0)
(0.890839 0.583838 -5.97048e-20)
(0.749166 0.525523 0)
(0.610515 0.224551 -5.8916e-20)
(0.498154 -0.43461 -2.9145e-20)
(0.304242 -0.148795 0)
(-0.35147 0.563382 0)
(-1.0305 0.973031 0)
(-1.55971 1.30997 0)
(-2.07822 1.53228 0)
(-2.48668 1.68005 0)
(-2.80003 1.74281 -5.38083e-20)
(-3.0234 1.70194 7.9914e-20)
(-3.19003 1.57679 0)
(-3.33762 1.41674 0)
(-3.47908 1.25061 0)
(-3.62224 1.09732 -4.46118e-22)
(-3.76636 0.962923 -5.0091e-20)
(-3.91055 0.847449 -9.82539e-20)
(-4.05251 0.748218 9.67408e-20)
(-4.18942 0.660986 4.74747e-20)
(-4.31883 0.582128 -4.70454e-20)
(-4.43798 0.508492 2.64444e-22)
(-4.54475 0.438075 -4.54209e-20)
(-4.6372 0.369613 0)
(-4.71392 0.302568 -4.42235e-20)
(-4.77375 0.237011 2.1139e-22)
(-4.81587 0.173328 0)
(-4.83989 0.111882 0)
(-4.8462 0.0531153 4.23523e-20)
(-4.83567 -0.0024352 0)
(-4.80924 -0.0549985 0)
(-4.7682 -0.104125 -4.12394e-20)
(-4.71374 -0.149559 -8.21701e-20)
(-4.64707 -0.191282 4.09203e-20)
(-4.56942 -0.229269 0)
(-4.48196 -0.263459 -4.04429e-20)
(-4.38588 -0.293563 0)
(-4.28241 -0.31902 -3.99346e-20)
(-4.17287 -0.338961 -3.97976e-20)
(-4.05876 -0.352317 7.91322e-20)
(-3.94194 -0.358028 3.93446e-20)
(-3.82463 -0.355355 0)
(-3.70945 -0.344285 -7.78581e-20)
(-3.59921 -0.325944 0)
(-3.49659 -0.302856 -1.15397e-19)
(-3.40352 -0.278952 -7.64346e-20)
(-3.32036 -0.259277 -7.59269e-20)
(-3.24483 -0.24938 7.54105e-20)
(-3.17142 -0.254212 -1.12379e-19)
(-3.09151 -0.276668 0)
(-2.99496 -0.316231 0)
(-2.87353 -0.367768 7.34874e-20)
(-2.72432 -0.422118 1.0969e-19)
(-2.54994 -0.470128 0)
(-2.35634 -0.505889 -3.62247e-20)
(-2.15055 -0.527583 0)
(-1.93868 -0.536447 1.07423e-19)
(-1.72576 -0.53465 8.67755e-23)
(-1.51571 -0.525004 -7.80506e-23)
(-1.31056 -0.510696 -7.03279e-20)
(-1.11125 -0.493746 0)
(-0.918126 -0.475691 6.93837e-20)
(-0.731184 -0.457146 4.56273e-23)
(-0.550331 -0.438315 0)
(-0.375581 -0.419131 0)
(-0.207029 -0.399293 0)
(-0.0454264 -0.37871 -6.66663e-20)
(0.108486 -0.357715 0)
(0.254835 -0.33558 0)
(0.393267 -0.312916 0)
(0.523291 -0.290045 0)
(0.644715 -0.267354 0)
(0.757536 -0.245227 -6.26381e-20)
(0.861923 -0.223993 0)
(0.958184 -0.20391 -6.12449e-20)
(1.04674 -0.185142 -6.05414e-20)
(1.12808 -0.167767 5.9838e-20)
(1.20279 -0.151783 0)
(1.27146 -0.137126 5.8436e-20)
(1.33472 -0.123695 0)
(1.39319 -0.111373 5.70456e-20)
(1.44741 -0.10005 -5.63562e-20)
(1.49786 -0.0896364 -1.67004e-19)
(1.54494 -0.0800675 0)
(1.58892 -0.0713042 -1.62937e-19)
(1.63004 -0.063324 -5.3637e-20)
(1.66847 -0.0561172 0)
(1.70439 -0.0496782 -1.04628e-19)
(1.73799 -0.0439959 -1.03317e-19)
(1.76949 -0.0390493 1.53028e-19)
(1.79912 -0.0348053 0)
(1.82714 -0.0312126 4.97253e-20)
(1.85384 -0.0282115 4.90902e-20)
(1.87945 -0.0257378 1.45377e-19)
(1.90422 -0.0237033 0)
(1.92836 -0.0220205 0)
(1.95202 -0.0206162 0)
(1.97531 -0.0194314 4.59865e-20)
(1.99828 -0.0184167 0)
(2.02097 -0.0175334 0)
(2.04335 -0.0167488 -4.41855e-20)
(2.0654 -0.0160406 -4.35933e-20)
(2.08707 -0.0153948 0)
(2.10832 -0.0148009 0)
(2.1291 -0.0142507 -8.36855e-20)
(2.14938 -0.0137377 0)
(2.16914 -0.0132556 8.13934e-20)
(2.18836 -0.0127984 8.0259e-20)
(2.20704 -0.0123592 0)
(2.22516 -0.011929 0)
(2.24274 -0.0114998 -7.69048e-20)
(2.25978 -0.0110691 -2.56897e-25)
(2.27628 -0.0106382 -2.07835e-25)
(2.29222 -0.0102044 0)
(2.30759 -0.00975782 -1.45076e-19)
(2.32239 -0.00928775 0)
(2.33664 -0.00879189 0)
(2.35036 -0.00827181 0)
(2.36351 -0.00774049 6.82841e-20)
(2.37609 -0.00721095 0)
(2.38807 -0.00668795 -1.32395e-19)
(2.39944 -0.00617531 -6.51639e-20)
(2.41019 -0.00567442 0)
(2.42032 -0.0051842 -6.31159e-20)
(2.42981 -0.00470196 0)
(2.43866 -0.00422806 0)
(2.44685 -0.00377056 -1.80271e-19)
(2.45441 -0.00332917 1.18188e-19)
(2.46134 -0.00290303 0)
(2.46768 -0.00249403 1.14237e-19)
(2.47344 -0.0020999 -5.61399e-20)
(2.47864 -0.00171647 0)
(2.48331 -0.00134226 0)
(2.48746 -0.000968549 0)
(2.49111 -0.000594914 -1.56845e-19)
(2.49429 -0.000204285 0)
(2.49699 0.000196735 -5.03862e-20)
(2.49925 0.00065105 0)
(2.50103 0.0011279 0)
(2.50238 0.00173579 0)
(2.50319 0.002364 0)
(2.50359 0.00328999 0)
(2.50323 0.00416522 0)
(2.50255 0.0057224 -8.78548e-20)
(2.50053 0.0069464 0)
(2.49858 0.00980003 -4.21377e-20)
(2.49384 0.011449 1.2375e-19)
(2.49052 0.0171294 0)
(2.48071 0.0191847 0)
(2.47664 0.0313566 -7.72709e-20)
(2.45668 0.0336302 -7.55891e-20)
(2.45478 0.0610759 7.38772e-20)
(2.41534 0.0647748 7.22648e-20)
(0.059079 -0.409644 1.11363e-19)
(0.175781 -0.79152 1.1046e-19)
(0.27527 -0.888679 7.30343e-20)
(0.366239 -0.908849 3.62026e-20)
(0.459432 -0.91812 0)
(0.559343 -0.927523 -7.12069e-20)
(0.667242 -0.936631 3.52576e-20)
(0.783438 -0.943776 0)
(0.907779 -0.946401 3.46783e-20)
(1.03919 -0.940571 0)
(1.17581 -0.92155 -6.78984e-20)
(1.31404 -0.883765 0)
(1.4492 -0.821835 -3.33511e-20)
(1.57458 -0.731526 -6.60449e-20)
(1.68311 -0.611119 6.5406e-20)
(1.76742 -0.460612 0)
(1.82117 -0.284115 6.42185e-20)
(1.83947 -0.0891648 0)
(1.82045 0.115708 0)
(1.76197 0.319538 6.26906e-20)
(1.66551 0.511917 0)
(1.53523 0.682011 -2.32508e-22)
(1.37759 0.823385 0)
(1.20543 0.940928 0)
(1.02906 1.02717 1.19791e-22)
(0.861244 1.02058 6.04546e-20)
(0.711926 0.951579 6.00453e-20)
(0.477588 0.969565 5.97385e-20)
(0.340691 0.722515 0)
(0.254254 0.372954 1.17884e-19)
(-0.372568 0.749979 0)
(-1.01292 1.19036 5.76277e-20)
(-1.55383 1.51979 0)
(-2.02574 1.77489 0)
(-2.41736 1.97424 -5.54758e-20)
(-2.73116 2.07118 0)
(-2.95951 2.08693 5.40707e-20)
(-3.12284 2.02176 3.49331e-22)
(-3.24407 1.90331 -1.05831e-19)
(-3.34741 1.7497 1.04091e-19)
(-3.44899 1.58754 0)
(-3.55351 1.4299 0)
(-3.66551 1.28533 4.95364e-20)
(-3.78437 1.15593 0)
(-3.90818 1.04029 4.89289e-20)
(-4.03334 0.935753 -4.81919e-20)
(-4.15586 0.838766 -4.7465e-20)
(-4.272 0.746324 0)
(-4.37809 0.655846 4.60715e-20)
(-4.47115 0.565684 4.54185e-20)
(-4.54859 0.475019 -8.89933e-20)
(-4.60832 0.383952 4.42265e-20)
(-4.64895 0.293249 4.36952e-20)
(-4.67006 0.2038 0)
(-4.67169 0.116517 0)
(-4.65408 0.0326109 -4.23696e-20)
(-4.61902 -0.0466955 0)
(-4.5684 -0.11997 0)
(-4.50359 -0.186776 8.27458e-20)
(-4.42715 -0.247121 8.22037e-20)
(-4.34154 -0.301239 0)
(-4.24913 -0.34946 0)
(-4.15207 -0.391937 0)
(-4.05223 -0.428561 0)
(-3.95115 -0.458847 7.9976e-20)
(-3.85014 -0.481919 -7.95081e-20)
(-3.75026 -0.496603 -7.9161e-20)
(-3.65245 -0.50159 -1.5746e-19)
(-3.55762 -0.495752 0)
(-3.46681 -0.478639 1.20631e-23)
(-3.38131 -0.451154 0)
(-3.30259 -0.416194 7.69417e-20)
(-3.23219 -0.379026 1.85847e-23)
(-3.17098 -0.347223 7.5937e-20)
(-3.11755 -0.329989 -7.54183e-20)
(-3.06634 -0.336308 9.35582e-23)
(-3.00733 -0.371698 0)
(-2.9278 -0.435726 -7.37616e-20)
(-2.81695 -0.519746 -7.34783e-20)
(-2.67199 -0.607309 -1.45965e-19)
(-2.49833 -0.681867 0)
(-2.30451 -0.734336 7.21561e-20)
(-2.09873 -0.763602 0)
(-1.88696 -0.77332 -1.42989e-19)
(-1.67333 -0.767455 7.1166e-20)
(-1.46185 -0.750139 -7.07489e-20)
(-1.25474 -0.726589 7.03108e-20)
(-1.0533 -0.700228 1.39526e-19)
(-0.858268 -0.673194 -6.9369e-20)
(-0.669413 -0.646296 6.88651e-20)