/*--------------------------------*- C++ -*----------------------------------*\
  =========                 |
  \\      /  F ield         | OpenFOAM: The Open Source CFD Toolbox
   \\    /   O peration     | Website:  https://openfoam.org
    \\  /    A nd           | Version:  7
     \\/     M anipulation  |
\*---------------------------------------------------------------------------*/
FoamFile
{
    version     2.0;
    format      ascii;
    class       volScalarField;
    location    "0.032";
    object      k;
}
// * * * * * * * * * * * * * * * * * * * * * * * * * * * * * * * * * * * * * //

dimensions      [0 2 -2 0 0 0 0];

internalField   nonuniform List<scalar> 
12225
(
1.9386e-05
1.80616e-05
1.66296e-05
1.53363e-05
1.40712e-05
1.27253e-05
1.14477e-05
1.00258e-05
8.70053e-06
7.79981e-06
6.94157e-06
6.00075e-06
5.22176e-06
4.69603e-06
4.25601e-06
4.01265e-06
3.77131e-06
6.08988e-06
1.99803e-05
1.98724e-05
1.96451e-05
1.94382e-05
1.89831e-05
1.93622e-05
1.93584e-05
1.83795e-05
1.74236e-05
1.67669e-05
1.63852e-05
1.59571e-05
1.56021e-05
1.50843e-05
1.47562e-05
1.4287e-05
1.39359e-05
1.34149e-05
2.00004e-05
1.93613e-05
1.9178e-05
1.91017e-05
1.90412e-05
1.90838e-05
1.90621e-05
1.88391e-05
1.85631e-05
1.83475e-05
1.82405e-05
1.8138e-05
1.80838e-05
1.79726e-05
1.78927e-05
1.77218e-05
1.76078e-05
1.73302e-05
2.03906e-05
2.01179e-05
1.87048e-05
1.81614e-05
1.82018e-05
1.79595e-05
1.71832e-05
1.66527e-05
1.6398e-05
1.63006e-05
1.62981e-05
1.63644e-05
1.65856e-05
1.67924e-05
1.68868e-05
1.68952e-05
1.68915e-05
1.68585e-05
2.11735e-05
2.26979e-05
2.24484e-05
2.18372e-05
2.18148e-05
2.21301e-05
2.21597e-05
2.18971e-05
2.05695e-05
1.81555e-05
1.71667e-05
1.68185e-05
1.62187e-05
1.52427e-05
1.43374e-05
1.38071e-05
1.36167e-05
1.36269e-05
2.03497e-05
2.17547e-05
2.23509e-05
2.22748e-05
2.23678e-05
2.32298e-05
2.61739e-05
2.74414e-05
2.73012e-05
2.61779e-05
2.38354e-05
2.19294e-05
1.97595e-05
1.71683e-05
1.47512e-05
1.33123e-05
1.28714e-05
1.28437e-05
2.04775e-05
2.10816e-05
2.22667e-05
2.21349e-05
2.17882e-05
2.1928e-05
2.31709e-05
2.5645e-05
2.63599e-05
2.62613e-05
2.54587e-05
2.34923e-05
2.20562e-05
2.09069e-05
1.98667e-05
1.91975e-05
1.89352e-05
1.87572e-05
2.1337e-05
2.18341e-05
2.1665e-05
2.13895e-05
2.12571e-05
2.13943e-05
2.22244e-05
2.46481e-05
2.60339e-05
2.62283e-05
2.59916e-05
2.47997e-05
2.33134e-05
2.24414e-05
2.1935e-05
2.16109e-05
2.14435e-05
2.13407e-05
2.09014e-05
2.07894e-05
2.06472e-05
2.07211e-05
2.15122e-05
2.38861e-05
2.52532e-05
2.56577e-05
2.57875e-05
2.5788e-05
2.55968e-05
2.48027e-05
2.36869e-05
2.28457e-05
2.22394e-05
2.18356e-05
2.16043e-05
2.15077e-05
2.05596e-05
2.03836e-05
2.06607e-05
2.10769e-05
2.2344e-05
2.35286e-05
2.43695e-05
2.53463e-05
2.59668e-05
2.61269e-05
2.61183e-05
2.60242e-05
2.57551e-05
2.50199e-05
2.34566e-05
2.22111e-05
2.14569e-05
2.11607e-05
2.03615e-05
2.03573e-05
2.05041e-05
2.09985e-05
2.13763e-05
2.15039e-05
2.17309e-05
2.21588e-05
2.31269e-05
2.43293e-05
2.51312e-05
2.54609e-05
2.54851e-05
2.52957e-05
2.42855e-05
2.25605e-05
2.14377e-05
2.08894e-05
2.02447e-05
2.02458e-05
2.05867e-05
2.19063e-05
2.30819e-05
2.32065e-05
2.27577e-05
2.21253e-05
2.20301e-05
2.22983e-05
2.32172e-05
2.37678e-05
2.39339e-05
2.39174e-05
2.3634e-05
2.26217e-05
2.15994e-05
2.09982e-05
2.01444e-05
2.01397e-05
2.04508e-05
2.11457e-05
2.14972e-05
2.15442e-05
2.14631e-05
2.10036e-05
2.08945e-05
2.12952e-05
2.25225e-05
2.30942e-05
2.3174e-05
2.31414e-05
2.2953e-05
2.23036e-05
2.1554e-05
2.10629e-05
2.0122e-05
2.02057e-05
2.07703e-05
2.16177e-05
2.19055e-05
2.16024e-05
2.0621e-05
2.02058e-05
2.01941e-05
2.04666e-05
2.13085e-05
2.18956e-05
2.21152e-05
2.21614e-05
2.21586e-05
2.20549e-05
2.17056e-05
2.13439e-05
2.03655e-05
2.03828e-05
2.06313e-05
2.07149e-05
2.06259e-05
2.03547e-05
2.02344e-05
2.02273e-05
2.03155e-05
2.06189e-05
2.0806e-05
2.0872e-05
2.09342e-05
2.10539e-05
2.13407e-05
2.18922e-05
2.23391e-05
2.2459e-05
2.20349e-05
2.12656e-05
2.08693e-05
2.07341e-05
2.05242e-05
2.0409e-05
2.02751e-05
2.01933e-05
2.01839e-05
2.01961e-05
2.02417e-05
2.0315e-05
2.03855e-05
2.04666e-05
2.06482e-05
2.12895e-05
2.28571e-05
2.39033e-05
2.02794e-05
2.07866e-05
2.09505e-05
2.08236e-05
2.04483e-05
2.02623e-05
2.02005e-05
2.01878e-05
2.01923e-05
2.02354e-05
2.03104e-05
2.03418e-05
2.03634e-05
2.04014e-05
2.04902e-05
2.07795e-05
2.13924e-05
2.19203e-05
2.03899e-05
2.04608e-05
2.02898e-05
2.01562e-05
2.01325e-05
2.0156e-05
2.0283e-05
2.04105e-05
2.04524e-05
2.0453e-05
2.04183e-05
2.03799e-05
2.03818e-05
2.04484e-05
2.07533e-05
2.10049e-05
2.10469e-05
2.10231e-05
2.02779e-05
2.03282e-05
2.04646e-05
2.03479e-05
2.02562e-05
2.02674e-05
2.04192e-05
2.08415e-05
2.10728e-05
2.11245e-05
2.11087e-05
2.09802e-05
2.08176e-05
2.0777e-05
2.07978e-05
2.0889e-05
2.09152e-05
2.08935e-05
2.04688e-05
2.03448e-05
2.03733e-05
2.02844e-05
2.0208e-05
2.02231e-05
2.03586e-05
2.05132e-05
2.05714e-05
2.05827e-05
2.05813e-05
2.05794e-05
2.05856e-05
2.06133e-05
2.06304e-05
2.0637e-05
2.0636e-05
2.06122e-05
2.0188e-05
2.02206e-05
2.06777e-05
2.09372e-05
2.09393e-05
2.08156e-05
2.08148e-05
2.09326e-05
2.10184e-05
2.10328e-05
2.10248e-05
2.09698e-05
2.08285e-05
2.0719e-05
2.06565e-05
2.06274e-05
2.06206e-05
2.06251e-05
2.03e-05
2.03539e-05
2.05648e-05
2.07164e-05
2.06433e-05
2.05341e-05
2.05177e-05
2.05301e-05
2.06242e-05
2.11014e-05
2.16008e-05
2.16782e-05
2.16299e-05
2.14997e-05
2.13901e-05
2.12437e-05
2.10502e-05
2.08806e-05
2.01259e-05
2.03453e-05
2.04857e-05
2.04908e-05
2.04491e-05
2.04218e-05
2.03993e-05
2.03967e-05
2.04253e-05
2.07078e-05
2.12211e-05
2.1339e-05
2.13067e-05
2.11835e-05
2.1092e-05
2.09284e-05
2.06776e-05
2.04826e-05
2.0063e-05
2.00782e-05
2.02239e-05
2.03192e-05
2.04712e-05
2.07981e-05
2.09839e-05
2.10204e-05
2.10154e-05
2.10229e-05
2.11246e-05
2.12473e-05
2.12507e-05
2.11544e-05
2.08378e-05
2.05909e-05
2.04774e-05
2.04335e-05
2.02946e-05
2.02615e-05
2.02995e-05
2.03392e-05
2.04021e-05
2.04983e-05
2.06977e-05
2.10667e-05
2.13711e-05
2.16088e-05
2.18e-05
2.18991e-05
2.18988e-05
2.17356e-05
2.11678e-05
2.07523e-05
2.05268e-05
2.03983e-05
2.03982e-05
2.08161e-05
2.09843e-05
2.09505e-05
2.08548e-05
2.0827e-05
2.08035e-05
2.07373e-05
2.06905e-05
2.06919e-05
2.07519e-05
2.11033e-05
2.20299e-05
2.24461e-05
2.24517e-05
2.22574e-05
2.15768e-05
2.09116e-05
2.00301e-05
2.01e-05
2.01537e-05
2.01612e-05
2.01473e-05
2.00891e-05
1.9853e-05
1.95738e-05
1.95298e-05
1.95503e-05
1.95768e-05
1.95719e-05
1.95073e-05
1.93591e-05
1.92582e-05
1.91754e-05
1.90155e-05
1.85148e-05
2.01471e-05
1.76842e-05
1.74846e-05
1.8562e-05
2.02883e-05
2.17752e-05
2.36564e-05
2.72706e-05
3.34168e-05
3.83986e-05
4.19104e-05
4.49178e-05
4.78435e-05
5.05867e-05
5.46456e-05
6.29145e-05
8.1597e-05
9.77184e-05
2.99494e-05
8.13227e-05
0.000137577
0.000206837
0.000255568
0.000279821
0.000316262
0.000368559
0.000413755
0.00043796
0.00044835
0.000456833
0.000466772
0.00047778
0.000495534
0.000535779
0.000611823
0.00067188
0.0023977
0.00205481
0.00188667
0.00187971
0.00189901
0.00189763
0.00185518
0.00171953
0.00159734
0.00151013
0.00145021
0.00141518
0.00140015
0.00139693
0.00139685
0.00139693
0.00139506
0.00138309
2.32622e-06
5.82753e-06
1.19596e-05
2.1178e-05
3.55949e-05
5.51351e-05
7.83079e-05
0.00010365
0.000130994
0.000160817
0.000194868
0.000237863
0.000289057
0.000338444
0.000378768
0.000451985
0.000645539
0.000984645
0.00136925
0.00175561
0.00227974
0.00318643
0.00451153
0.00574665
0.00607807
0.00503578
0.00302361
0.0016757
0.00104038
0.000822068
0.000782026
0.000786774
0.000812617
0.00082751
0.000814315
0.000742524
0.000668396
0.000564156
0.000449238
0.000354909
0.00026289
0.000181636
0.000136163
9.24915e-05
6.31309e-05
4.84063e-05
4.07913e-05
3.8294e-05
3.86224e-05
3.86143e-05
3.80982e-05
3.78354e-05
3.74425e-05
3.67927e-05
3.59612e-05
3.44063e-05
3.30777e-05
3.21084e-05
3.09931e-05
2.9617e-05
2.79724e-05
2.66915e-05
2.55608e-05
2.3982e-05
2.24451e-05
2.10008e-05
1.94305e-05
1.79904e-05
1.65528e-05
1.46492e-05
1.3604e-05
1.1934e-05
1.07116e-05
9.40208e-06
8.26261e-06
7.19026e-06
6.24286e-06
5.39746e-06
4.65649e-06
4.06053e-06
3.56858e-06
3.13643e-06
2.74963e-06
2.40312e-06
2.09246e-06
1.81312e-06
1.56137e-06
1.33408e-06
1.1347e-06
9.51824e-07
7.87172e-07
6.44381e-07
5.2392e-07
4.22577e-07
3.38148e-07
2.68536e-07
2.1165e-07
1.65537e-07
1.28451e-07
9.8863e-08
7.54571e-08
5.71052e-08
4.28476e-08
3.18732e-08
2.35042e-08
1.71803e-08
1.24463e-08
8.93711e-09
6.36129e-09
4.48929e-09
3.14126e-09
2.18041e-09
1.50114e-09
1.02404e-09
6.95841e-10
4.7129e-10
3.17665e-10
2.12821e-10
1.41585e-10
9.34697e-11
6.12037e-11
3.97402e-11
2.55858e-11
1.63331e-11
1.03389e-11
6.49327e-12
4.04909e-12
2.50844e-12
1.54448e-12
9.45379e-13
5.75341e-13
3.48146e-13
2.09473e-13
1.25328e-13
7.45751e-14
4.4147e-14
2.60144e-14
1.52737e-14
8.94914e-15
5.24686e-15
3.09233e-15
1.846e-15
1.12956e-15
7.20569e-16
4.89045e-16
3.59498e-16
2.88345e-16
2.50572e-16
2.31887e-16
2.24083e-16
2.22066e-16
2.22045e-16
2.22045e-16
2.22045e-16
2.22045e-16
2.22045e-16
2.22045e-16
2.22045e-16
2.22045e-16
2.22045e-16
2.22045e-16
2.22045e-16
2.22045e-16
2.22045e-16
2.22045e-16
2.22045e-16
2.22045e-16
2.22045e-16
2.22045e-16
2.22045e-16
2.22045e-16
2.22045e-16
2.22045e-16
2.22045e-16
2.22045e-16
2.22045e-16
1.3914e-15
5.95386e-13
2.93362e-10
1.38762e-07
6.91357e-06
2.3568e-05
5.29972e-05
9.00127e-05
0.000138952
0.000203277
0.000277441
0.000357836
0.000447379
0.000550326
0.00067314
0.000828818
0.00104494
0.00138387
0.00192632
0.00258973
0.00326979
0.00384809
0.00424149
0.00445274
0.00451433
0.0044526
0.00430504
0.0037444
0.00288431
0.00198274
0.00129651
0.00088676
0.000662886
0.00054168
0.000470981
0.000420273
0.000380125
0.000329246
0.000276846
0.000239744
0.000210893
0.000180547
0.000164735
0.00015091
0.000144171
0.000141252
0.000140674
0.000142695
0.000145149
0.000147745
0.00014895
0.000150101
0.000150606
0.000150749
0.000149879
0.000149456
0.000147621
0.000144954
0.000139264
0.000132875
0.00012949
0.000125275
0.000119652
0.000113703
0.000107865
0.000103409
9.84829e-05
9.13903e-05
8.59673e-05
8.11058e-05
7.52637e-05
6.93863e-05
6.44431e-05
5.8023e-05
5.34036e-05
4.78768e-05
4.31699e-05
3.84838e-05
3.4155e-05
3.00025e-05
2.61936e-05
2.26995e-05
1.93773e-05
1.61788e-05
1.40495e-05
1.24398e-05
1.10705e-05
9.87362e-06
8.82401e-06
7.89158e-06
7.05535e-06
6.2975e-06
5.5958e-06
4.94953e-06
4.344e-06
3.77656e-06
3.24993e-06
2.76962e-06
2.33938e-06
1.96055e-06
1.63186e-06
1.3494e-06
1.10857e-06
9.04741e-07
7.33459e-07
5.90582e-07
4.72362e-07
3.75389e-07
2.96516e-07
2.32809e-07
1.81471e-07
1.40244e-07
1.07396e-07
8.14651e-08
6.11953e-08
4.55096e-08
3.34981e-08
2.44013e-08
1.75836e-08
1.25317e-08
8.83286e-09
6.15708e-09
4.24466e-09
2.89429e-09
1.95221e-09
1.30274e-09
8.60294e-10
5.62322e-10
3.638e-10
2.33107e-10
1.48139e-10
9.34167e-11
5.84819e-11
3.63597e-11
2.24558e-11
1.37788e-11
8.40012e-12
5.08796e-12
3.06175e-12
1.83048e-12
1.0873e-12
6.41784e-13
3.76502e-13
2.1959e-13
1.27382e-13
7.35401e-14
4.22942e-14
2.4267e-14
1.3922e-14
8.0134e-15
4.65108e-15
2.74239e-15
1.65979e-15
1.04526e-15
6.95916e-16
4.96887e-16
3.83042e-16
3.17567e-16
2.79617e-16
2.5741e-16
2.44237e-16
2.36308e-16
2.31435e-16
2.28392e-16
2.2644e-16
2.25172e-16
2.24319e-16
2.23741e-16
2.23334e-16
2.23052e-16
2.22847e-16
2.22706e-16
2.22605e-16
2.2254e-16
2.22493e-16
2.22463e-16
2.22445e-16
2.22426e-16
2.22421e-16
2.22504e-16
2.86796e-16
3.84501e-14
2.32964e-11
1.2331e-08
9.87913e-06
3.60581e-05
7.50957e-05
0.000125133
0.000193273
0.00028225
0.000383528
0.000496229
0.000624138
0.000768353
0.00092867
0.00110548
0.00129621
0.00150302
0.00173042
0.00195662
0.00215344
0.00227691
0.002331
0.00227558
0.00210617
0.00181753
0.00141244
0.00107994
0.000808738
0.000600328
0.000453451
0.000365747
0.000304841
0.000268931
0.000243327
0.000226058
0.0002131
0.000199616
0.00018957
0.000185018
0.000181727
0.000179182
0.000178072
0.000179355
0.000182366
0.000187202
0.000191782
0.000197587
0.000203955
0.000210268
0.000219739
0.000233188
0.000252184
0.000269491
0.000280781
0.000286054
0.000287997
0.000288146
0.000284531
0.000280361
0.000275351
0.000266432
0.0002562
0.000244995
0.00023494
0.000224227
0.000210401
0.000193309
0.00017866
0.000166383
0.000154857
0.000141582
0.000131229
0.000119714
0.000107936
9.72253e-05
8.6996e-05
7.75881e-05
6.88623e-05
6.08207e-05
5.29777e-05
4.51837e-05
3.77313e-05
3.09552e-05
2.53498e-05
2.12495e-05
1.82279e-05
1.56875e-05
1.35528e-05
1.17525e-05
1.01851e-05
8.82962e-06
7.68814e-06
6.73727e-06
5.94972e-06
5.28781e-06
4.71844e-06
4.21307e-06
3.75663e-06
3.33599e-06
2.94345e-06
2.57819e-06
2.24091e-06
1.93221e-06
1.65243e-06
1.40132e-06
1.17805e-06
9.81426e-07
8.10356e-07
6.6327e-07
5.38257e-07
4.33127e-07
3.45507e-07
2.73129e-07
2.13892e-07
1.65874e-07
1.27345e-07
9.67526e-08
7.27279e-08
5.40728e-08
3.97563e-08
2.89013e-08
2.07724e-08
1.47615e-08
1.03737e-08
7.21188e-09
4.96243e-09
3.38137e-09
2.282e-09
1.52497e-09
1.00901e-09
6.61219e-10
4.29325e-10
2.76284e-10
1.76261e-10
1.11524e-10
7.00076e-11
4.36006e-11
2.69392e-11
1.65119e-11
1.00396e-11
6.05569e-12
3.62398e-12
2.15216e-12
1.26873e-12
7.42797e-13
4.32175e-13
2.50101e-13
1.44122e-13
8.28176e-14
4.75407e-14
2.73217e-14
1.57629e-14
9.16191e-15
5.39024e-15
3.23119e-15
1.99102e-15
1.2755e-15
8.59688e-16
6.16138e-16
4.71412e-16
3.84456e-16
3.30806e-16
2.9755e-16
2.75974e-16
2.6228e-16
2.52827e-16
2.46778e-16
2.42329e-16
2.39538e-16
2.37348e-16
2.36116e-16
2.3512e-16
2.34674e-16
2.34316e-16
2.34231e-16
2.34468e-16
2.34147e-16
2.36619e-16
2.36992e-16
2.82565e-16
2.03874e-15
1.06497e-12
5.39495e-10
1.11973e-05
3.96045e-05
7.34396e-05
0.000105596
0.000146876
0.000198066
0.000257721
0.000334225
0.000430695
0.000531415
0.000625347
0.000715768
0.000799549
0.000871304
0.000925593
0.000966396
0.000985113
0.000979404
0.000934021
0.000859421
0.000755783
0.000636023
0.0005185
0.000430096
0.000351597
0.000303714
0.000269455
0.000252677
0.000241683
0.000236195
0.00023243
0.000231043
0.000232925
0.000237328
0.000246186
0.000258441
0.000269948
0.000285097
0.000297327
0.000313932
0.00032271
0.00033353
0.000340753
0.000351712
0.00035848
0.000363253
0.000365206
0.000365868
0.000365652
0.000363249
0.000362675
0.000362052
0.000359295
0.000354002
0.000349786
0.000348062
0.000346715
0.000343363
0.000339226
0.000335923
0.000331584
0.000327902
0.000322731
0.000312384
0.000297433
0.000276375
0.000252922
0.000227446
0.000203002
0.000181418
0.000161661
0.00014428
0.000128866
0.000115319
0.000102796
9.04346e-05
7.84516e-05
6.74325e-05
5.74742e-05
4.89437e-05
4.16146e-05
3.50951e-05
2.93781e-05
2.43803e-05
2.0062e-05
1.64177e-05
1.33489e-05
1.0852e-05
8.95327e-06
7.51871e-06
6.42172e-06
5.56489e-06
4.87926e-06
4.3276e-06
3.88126e-06
3.50626e-06
3.16062e-06
2.82481e-06
2.50706e-06
2.20784e-06
1.92878e-06
1.67224e-06
1.43957e-06
1.23082e-06
1.04467e-06
8.79798e-07
7.35207e-07
6.0965e-07
5.01638e-07
4.09545e-07
3.31701e-07
2.6646e-07
2.12249e-07
1.67604e-07
1.31181e-07
1.01743e-07
7.81758e-08
5.94889e-08
4.48172e-08
3.34126e-08
2.46387e-08
1.79611e-08
1.29376e-08
9.20551e-09
6.47054e-09
4.49471e-09
3.08695e-09
2.09714e-09
1.40997e-09
9.38597e-10
6.18852e-10
4.0416e-10
2.61423e-10
1.67484e-10
1.06288e-10
6.68095e-11
4.1589e-11
2.56375e-11
1.56515e-11
9.46496e-12
5.67207e-12
3.37056e-12
1.98783e-12
1.16484e-12
6.79144e-13
3.94635e-13
2.2899e-13
1.32984e-13
7.7506e-14
4.54804e-14
2.69701e-14
1.62266e-14
9.94642e-15
6.25216e-15
4.05417e-15
2.7368e-15
1.92757e-15
1.43115e-15
1.10889e-15
9.11234e-16
7.70619e-16
6.92249e-16
6.25056e-16
5.98786e-16
5.66172e-16
5.62034e-16
5.51164e-16
5.61402e-16
5.59052e-16
5.85875e-16
5.84155e-16
6.12747e-16
6.65433e-16
6.31939e-16
1.10249e-15
9.22635e-16
1.23178e-14
1.11411e-14
2.31707e-13
2.45886e-11
1.01214e-05
3.5423e-05
6.21987e-05
8.85328e-05
0.000121106
0.000157639
0.000195802
0.000237355
0.000282244
0.000325941
0.000363347
0.000395661
0.000423152
0.000447335
0.00046597
0.000474255
0.000475844
0.000459849
0.000433651
0.000399908
0.000360445
0.000320346
0.000289846
0.000268977
0.000258847
0.00025532
0.000254464
0.000255766
0.000260187
0.000271487
0.000281499
0.0002947
0.000307972
0.000316233
0.000324636
0.000333979
0.000346016
0.000358865
0.000377921
0.000398239
0.000412704
0.00042308
0.000428968
0.000435317
0.000440885
0.000450166
0.000461177
0.000464675
0.000464644
0.000446562
0.000431672
0.000426055
0.000414132
0.000391258
0.000374917
0.000362103
0.000355232
0.000348072
0.000340692
0.000337576
0.000335272
0.000334933
0.00033686
0.000338415
0.000337977
0.000332223
0.000312382
0.000276559
0.000236207
0.000205076
0.000180186
0.000159363
0.000142103
0.000127576
0.000115618
0.000105574
9.6014e-05
8.66653e-05
7.73741e-05
6.79959e-05
5.89794e-05
5.09357e-05
4.3988e-05
3.78821e-05
3.21535e-05
2.66426e-05
2.15056e-05
1.70456e-05
1.32799e-05
1.024e-05
7.92249e-06
6.22123e-06
4.99882e-06
4.11771e-06
3.46183e-06
2.96397e-06
2.6044e-06
2.35542e-06
2.1651e-06
1.99415e-06
1.80984e-06
1.61307e-06
1.41838e-06
1.23226e-06
1.05924e-06
9.01949e-07
7.6129e-07
6.37231e-07
5.29129e-07
4.35949e-07
3.56431e-07
2.89204e-07
2.32869e-07
1.86063e-07
1.47472e-07
1.1591e-07
9.03217e-08
6.97612e-08
5.33914e-08
4.04799e-08
3.03938e-08
2.25932e-08
1.66222e-08
1.21001e-08
8.71284e-09
6.20446e-09
4.36839e-09
3.04001e-09
2.09054e-09
1.42058e-09
9.53608e-10
6.31724e-10
4.12849e-10
2.66716e-10
1.70533e-10
1.07848e-10
6.7435e-11
4.16777e-11
2.5457e-11
1.53673e-11
9.1707e-12
5.41382e-12
3.16508e-12
1.83565e-12
1.05872e-12
6.09267e-13
3.51362e-13
2.04137e-13
1.202e-13
7.21605e-14
4.43887e-14
2.80621e-14
1.82399e-14
1.2167e-14
8.30206e-15
5.7769e-15
4.08859e-15
2.94045e-15
2.14845e-15
1.59759e-15
1.2106e-15
9.3966e-16
7.44409e-16
6.07922e-16
5.0872e-16
4.39357e-16
3.89924e-16
3.49241e-16
3.25066e-16
3.03515e-16
2.89818e-16
2.92434e-16
3.368e-16
5.58832e-16
1.88085e-15
5.53242e-15
9.63877e-14
1.25119e-13
6.58241e-13
2.24591e-12
8.21602e-06
2.92224e-05
5.09881e-05
7.16643e-05
9.70241e-05
0.000124642
0.000151813
0.000178967
0.000205412
0.000228933
0.000246805
0.000259771
0.000269225
0.0002758
0.000279503
0.000281049
0.000279095
0.000271932
0.000263609
0.000254239
0.000246245
0.000242207
0.000241058
0.000247283
0.000253638
0.000260602
0.000273241
0.000291173
0.000316241
0.00032871
0.000343966
0.000355483
0.000371476
0.000391681
0.000413056
0.000438405
0.000461658
0.000494872
0.000533797
0.000582264
0.000641388
0.000705651
0.000766971
0.000818993
0.000868132
0.000926522
0.000981386
0.00100364
0.00100664
0.000950085
0.000861583
0.000823885
0.000763396
0.000669492
0.000612238
0.000525919
0.000478525
0.000442154
0.000394783
0.000375661
0.000351206
0.000339025
0.000334539
0.000333363
0.000338012
0.000349533
0.000355359
0.000348836
0.000313427
0.000249687
0.000203612
0.000172857
0.000149964
0.000132807
0.000119312
0.000108523
9.97318e-05
9.17637e-05
8.44439e-05
7.75086e-05
7.06341e-05
6.3702e-05
5.68574e-05
5.06791e-05
4.53184e-05
4.06596e-05
3.63091e-05
3.13221e-05
2.55293e-05
1.95015e-05
1.43654e-05
1.04057e-05
7.45759e-06
5.36856e-06
3.94031e-06
2.98718e-06
2.34761e-06
1.90404e-06
1.58874e-06
1.37243e-06
1.24566e-06
1.17148e-06
1.10473e-06
1.02041e-06
9.18736e-07
8.11208e-07
7.04479e-07
6.02941e-07
5.09355e-07
4.25228e-07
3.51142e-07
2.87024e-07
2.3236e-07
1.86376e-07
1.4816e-07
1.16747e-07
9.11851e-08
7.05872e-08
5.41478e-08
4.1153e-08
3.09801e-08
2.30947e-08
1.70441e-08
1.24492e-08
8.99694e-09
6.43137e-09
4.54612e-09
3.17666e-09
2.19361e-09
1.49647e-09
1.0082e-09
6.70547e-10
4.40098e-10
2.84936e-10
1.81908e-10
1.14462e-10
7.09531e-11
4.33095e-11
2.60206e-11
1.53821e-11
8.94403e-12
5.11393e-12
2.87504e-12
1.5896e-12
8.649e-13
4.63745e-13
2.45648e-13
1.29095e-13
6.77606e-14
3.58825e-14
1.94271e-14
1.09286e-14
6.47712e-15
4.07887e-15
2.74108e-15
1.94565e-15
1.44074e-15
1.10251e-15
8.64542e-16
6.93421e-16
5.70303e-16
4.7965e-16
4.15196e-16
3.66733e-16
3.29297e-16
3.04278e-16
2.81637e-16
2.71377e-16
2.75431e-16
3.10185e-16
5.8349e-16
1.73776e-15
1.03155e-14
4.3522e-14
2.3095e-13
6.24457e-13
4.9559e-12
5.05305e-12
1.15142e-11
1.11762e-11
6.31688e-06
2.30932e-05
4.05727e-05
5.71927e-05
7.76898e-05
0.000100336
0.000121977
0.000142413
0.000161154
0.000177346
0.000188796
0.00019637
0.000201812
0.000206051
0.000208753
0.000210533
0.000211357
0.000211426
0.000212314
0.000214632
0.000219248
0.000227515
0.000238941
0.000252043
0.000270366
0.000299106
0.000344359
0.000375164
0.000395719
0.000414362
0.00043138
0.000452617
0.00047683
0.000509034
0.000553084
0.000612405
0.000684048
0.000776046
0.00088931
0.00104195
0.00124832
0.00146423
0.00168435
0.00187601
0.00198644
0.00214202
0.00222688
0.00226136
0.00226026
0.00210649
0.00193654
0.00184795
0.00159138
0.00138391
0.00127713
0.0010478
0.000881772
0.000787583
0.000631941
0.000561702
0.000474089
0.000397276
0.000354161
0.000330781
0.00032178
0.000319683
0.000339059
0.000354758
0.000353214
0.000321096
0.000248759
0.000198987
0.000163796
0.000139477
0.000121773
0.000108966
9.97689e-05
9.21118e-05
8.54272e-05
7.93956e-05
7.38441e-05
6.84439e-05
6.2845e-05
5.67057e-05
5.08231e-05
4.61399e-05
4.25141e-05
3.96422e-05
3.7025e-05
3.36317e-05
2.83092e-05
2.1686e-05
1.55375e-05
1.08395e-05
7.37182e-06
4.95084e-06
3.3376e-06
2.30333e-06
1.65714e-06
1.2529e-06
9.89262e-07
8.12099e-07
7.01447e-07
6.46404e-07
6.20041e-07
5.90773e-07
5.46917e-07
4.92418e-07
4.33351e-07
3.73848e-07
3.16889e-07
2.64414e-07
2.17514e-07
1.76622e-07
1.41707e-07
1.12422e-07
8.82422e-08
6.85534e-08
5.27242e-08
4.01478e-08
3.02678e-08
2.25906e-08
1.66893e-08
1.22018e-08
8.82644e-09
6.31555e-09
4.46868e-09
3.1258e-09
2.16084e-09
1.47578e-09
9.95416e-10
6.62851e-10
4.35597e-10
2.82378e-10
1.80494e-10
1.13703e-10
7.05557e-11
4.31027e-11
2.59079e-11
1.53124e-11
8.8931e-12
5.07198e-12
2.83879e-12
1.5583e-12
8.38495e-13
4.421e-13
2.28384e-13
1.15634e-13
5.7451e-14
2.80852e-14
1.35851e-14
6.57371e-15
3.24546e-15
1.6882e-15
9.63674e-16
6.23378e-16
4.60104e-16
3.74564e-16
3.28231e-16
2.99438e-16
2.7793e-16
2.6741e-16
2.54449e-16
2.45578e-16
2.56872e-16
3.08275e-16
4.64921e-16
8.78385e-16
2.01538e-15
4.99348e-15
1.32469e-14
3.3895e-14
8.95211e-14
2.12416e-13
6.5568e-13
1.11911e-12
3.70576e-12
3.90819e-12
4.41446e-12
5.81423e-12
4.6028e-06
1.76282e-05
3.14769e-05
4.5093e-05
6.16987e-05
8.10863e-05
0.000100414
0.000118922
0.000135015
0.000148323
0.000158531
0.000165893
0.000171378
0.000176327
0.000181174
0.000185615
0.000189875
0.000193703
0.000198822
0.000206069
0.000216004
0.00022915
0.000248794
0.000282126
0.000330355
0.000376229
0.000405064
0.000426616
0.000442261
0.00046725
0.000502324
0.000548704
0.000601981
0.000678194
0.000785691
0.0009333
0.0011305
0.00139727
0.0016764
0.00198191
0.00224527
0.00271645
0.00321201
0.00360702
0.00403051
0.00443072
0.00466646
0.00475573
0.00469472
0.00418468
0.00382073
0.00354312
0.00280203
0.00236766
0.00213646
0.00178325
0.00150924
0.00136143
0.00116411
0.000998715
0.000837174
0.000687778
0.000508299
0.000388269
0.000330201
0.000311498
0.000308189
0.000315801
0.000334889
0.000337456
0.000283985
0.000222226
0.000178012
0.000147456
0.000125998
0.000109695
9.78285e-05
9.00806e-05
8.42049e-05
7.90394e-05
7.40973e-05
6.93983e-05
6.50156e-05
6.08322e-05
5.61129e-05
5.04778e-05
4.55403e-05
4.21726e-05
3.98324e-05
3.80804e-05
3.64521e-05
3.38521e-05
2.90117e-05
2.22194e-05
1.56602e-05
1.06189e-05
6.94669e-06
4.43321e-06
2.80171e-06
1.78967e-06
1.18327e-06
8.26541e-07
6.13238e-07
4.79162e-07
3.94954e-07
3.51689e-07
3.36292e-07
3.27686e-07
3.12139e-07
2.87098e-07
2.5636e-07
2.23158e-07
1.8998e-07
1.58572e-07
1.30028e-07
1.04924e-07
8.34371e-08
6.54603e-08
5.07134e-08
3.88224e-08
2.93806e-08
2.19881e-08
1.62753e-08
1.19153e-08
8.62758e-09
6.17775e-09
4.37371e-09
3.06092e-09
2.11701e-09
1.44656e-09
9.76238e-10
6.50472e-10
4.27753e-10
2.77508e-10
1.77535e-10
1.11949e-10
6.9543e-11
4.25355e-11
2.56008e-11
1.51525e-11
8.81357e-12
5.03453e-12
2.82225e-12
1.55151e-12
8.35863e-13
4.41045e-13
2.27828e-13
1.15181e-13
5.69968e-14
2.76312e-14
1.31564e-14
6.19027e-15
2.91758e-15
1.41671e-15
7.44264e-16
4.49366e-16
3.22617e-16
2.68373e-16
2.45386e-16
2.35349e-16
2.3023e-16
2.2816e-16
2.26431e-16
2.25107e-16
2.29524e-16
2.66761e-16
3.88721e-16
7.08954e-16
1.57139e-15
3.76603e-15
9.66225e-15
2.38613e-14
6.02006e-14
1.35628e-13
4.12009e-13
6.26632e-13
1.34368e-12
1.57019e-12
1.72795e-12
2.23357e-12
3.18485e-06
1.30572e-05
2.36973e-05
3.48104e-05
4.84766e-05
6.53964e-05
8.30603e-05
0.000101024
0.00011755
0.000131403
0.000141698
0.000149284
0.000155779
0.000162566
0.00016951
0.000176605
0.000183668
0.000190454
0.000197421
0.000206472
0.000219138
0.000239173
0.000274349
0.000321585
0.000363947
0.000401485
0.000429192
0.000456688
0.000492148
0.000554121
0.000652091
0.000770963
0.000928702
0.00114746
0.00139836
0.00170954
0.00206649
0.00244738
0.00288278
0.00340489
0.00416064
0.00527191
0.00653239
0.00781975
0.0092789
0.0106214
0.0114811
0.0118366
0.0116816
0.0100072
0.00815205
0.0071032
0.00509088
0.00367185
0.00291145
0.00223769
0.0019074
0.00166152
0.00146152
0.00129644
0.00119184
0.00108741
0.000932471
0.00067207
0.000439057
0.000340404
0.000310112
0.000305347
0.000311783
0.000319566
0.00028961
0.000228091
0.000181371
0.000149271
0.000127101
0.000110468
9.70772e-05
8.71745e-05
8.07645e-05
7.62693e-05
7.23855e-05
6.85274e-05
6.47584e-05
6.12578e-05
5.79835e-05
5.45497e-05
4.9983e-05
4.4908e-05
4.12942e-05
3.90438e-05
3.75948e-05
3.65669e-05
3.53885e-05
3.30773e-05
2.81356e-05
2.11111e-05
1.45178e-05
9.52895e-06
6.00088e-06
3.66201e-06
2.196e-06
1.31961e-06
8.14707e-07
5.30209e-07
3.69572e-07
2.74547e-07
2.16331e-07
1.84724e-07
1.72639e-07
1.69713e-07
1.6625e-07
1.57097e-07
1.42249e-07
1.25246e-07
1.0733e-07
8.97843e-08
7.35044e-08
5.90189e-08
4.65629e-08
3.61523e-08
2.76583e-08
2.08708e-08
1.55453e-08
1.14349e-08
8.30965e-09
5.96669e-09
4.23359e-09
2.96818e-09
2.05599e-09
1.40676e-09
9.50555e-10
6.34117e-10
4.17494e-10
2.71181e-10
1.73708e-10
1.09682e-10
6.82334e-11
4.17994e-11
2.52003e-11
1.49429e-11
8.70911e-12
4.98569e-12
2.80147e-12
1.54401e-12
8.34112e-13
4.41405e-13
2.28692e-13
1.15961e-13
5.7545e-14
2.79666e-14
1.33398e-14
6.27916e-15
2.9534e-15
1.42499e-15
7.39579e-16
4.39702e-16
3.11728e-16
2.58382e-16
2.36682e-16
2.28037e-16
2.24584e-16
2.23285e-16
2.22724e-16
2.22431e-16
2.22584e-16
2.37702e-16
3.08191e-16
5.04788e-16
1.03057e-15
2.32582e-15
5.66823e-15
1.33037e-14
3.40099e-14
6.68594e-14
1.48061e-13
2.46174e-13
2.84646e-13
3.68111e-13
4.28491e-13
6.22883e-13
2.05439e-06
9.05793e-06
1.71608e-05
2.66205e-05
3.7667e-05
5.22995e-05
6.85806e-05
8.54808e-05
0.000102581
0.000118392
0.000130539
0.000139651
0.000146845
0.000154095
0.000163055
0.000172807
0.000182541
0.000191264
0.000201075
0.00021584
0.000239634
0.000268179
0.0003091
0.000344271
0.000385034
0.00042378
0.000461092
0.000516875
0.000607932
0.000752735
0.000910328
0.00106315
0.00125739
0.0014824
0.00185009
0.00229702
0.00284153
0.00356915
0.00458326
0.00599813
0.00808383
0.0110713
0.0149557
0.0196362
0.0248887
0.02974
0.0324585
0.0335262
0.0324973
0.0288789
0.0228073
0.0180409
0.0129513
0.0088729
0.00576873
0.0036557
0.00248053
0.00187062
0.00158598
0.00145844
0.00135652
0.00126307
0.00113739
0.000990065
0.000738708
0.000465379
0.000355145
0.000323582
0.000313756
0.000308676
0.000284133
0.000227282
0.000177516
0.000144732
0.00012358
0.000108491
9.62578e-05
8.57455e-05
7.77497e-05
7.24205e-05
6.90386e-05
6.58684e-05
6.25556e-05
5.9659e-05
5.73786e-05
5.50288e-05
5.23783e-05
4.88734e-05
4.4197e-05
4.03869e-05
3.80436e-05
3.67102e-05
3.59176e-05
3.52103e-05
3.4097e-05
3.16493e-05
2.59224e-05
1.85494e-05
1.23197e-05
7.76872e-06
4.68653e-06
2.73282e-06
1.56192e-06
8.91883e-07
5.21633e-07
3.21112e-07
2.12375e-07
1.5094e-07
1.14493e-07
9.45543e-08
8.63685e-08
8.44715e-08
8.38818e-08
8.20279e-08
7.59851e-08
6.73038e-08
5.80476e-08
4.86777e-08
3.97959e-08
3.17985e-08
2.48889e-08
1.91201e-08
1.444e-08
1.07354e-08
7.86479e-09
5.68213e-09
4.05067e-09
2.85026e-09
1.97998e-09
1.35793e-09
9.19398e-10
6.14425e-10
4.05201e-10
2.63622e-10
1.6914e-10
1.06976e-10
6.66672e-11
4.09166e-11
2.47179e-11
1.46889e-11
8.58143e-12
4.92527e-12
2.77526e-12
1.5342e-12
8.31525e-13
4.41593e-13
2.29662e-13
1.16927e-13
5.82757e-14
2.84499e-14
1.36327e-14
6.44471e-15
3.0409e-15
1.4683e-15
7.59778e-16
4.48501e-16
3.15158e-16
2.59449e-16
2.36738e-16
2.27699e-16
2.2418e-16
2.22849e-16
2.22357e-16
2.22154e-16
2.22119e-16
2.22837e-16
2.47889e-16
3.3871e-16
5.93122e-16
1.2031e-15
2.69332e-15
5.83421e-15
1.55997e-14
2.46139e-14
4.29567e-14
5.71722e-14
6.65088e-14
8.72123e-14
1.03304e-13
1.58294e-13
1.23069e-06
6.39007e-06
1.23975e-05
1.89177e-05
2.81452e-05
4.10144e-05
5.56219e-05
7.2108e-05
8.91902e-05
0.000105349
0.000120887
0.000132399
0.000140729
0.000148428
0.000157894
0.000170014
0.000183113
0.000196816
0.000216493
0.000238548
0.000261717
0.000290959
0.00032137
0.000354879
0.000390809
0.000436693
0.000496555
0.000583329
0.000702195
0.000838033
0.000982784
0.00119447
0.00152495
0.00213527
0.00301519
0.00392837
0.00495259
0.0064613
0.0085804
0.0115659
0.0162307
0.0237231
0.0357235
0.0484415
0.060849
0.0691874
0.0732632
0.0746035
0.070734
0.0642206
0.0526143
0.0395774
0.0279363
0.0198171
0.0127125
0.00800095
0.00485457
0.00295911
0.00197248
0.00155269
0.00142749
0.00140232
0.00134768
0.00114607
0.000920351
0.000667481
0.000465425
0.000386587
0.000352619
0.000316009
0.000273946
0.000214958
0.000160897
0.000125873
0.000108189
9.90762e-05
9.17086e-05
8.37044e-05
7.56683e-05
6.94817e-05
6.56584e-05
6.3163e-05
6.06549e-05
5.78013e-05
5.51778e-05
5.3519e-05
5.21062e-05
5.0075e-05
4.72161e-05
4.30714e-05
3.92938e-05
3.69072e-05
3.56598e-05
3.50954e-05
3.46081e-05
3.39135e-05
3.25768e-05
2.92666e-05
2.21972e-05
1.49859e-05
9.49336e-06
5.70256e-06
3.27803e-06
1.8226e-06
9.94101e-07
5.42309e-07
3.0347e-07
1.79098e-07
1.13829e-07
7.79701e-08
5.715e-08
4.58191e-08
4.07788e-08
3.92019e-08
3.90538e-08
3.89218e-08
3.78341e-08
3.4219e-08
2.96462e-08
2.49883e-08
2.04424e-08
1.62816e-08
1.266e-08
9.63294e-09
7.18703e-09
5.26669e-09
3.79585e-09
2.69351e-09
1.88323e-09
1.29805e-09
8.8233e-10
5.91538e-10
3.91156e-10
2.55084e-10
1.64016e-10
1.03953e-10
6.49187e-11
3.99306e-11
2.41786e-11
1.44049e-11
8.43881e-12
4.85813e-12
2.74652e-12