/*--------------------------------*- C++ -*----------------------------------*\
  =========                 |
  \\      /  F ield         | OpenFOAM: The Open Source CFD Toolbox
   \\    /   O peration     | Website:  https://openfoam.org
    \\  /    A nd           | Version:  7
     \\/     M anipulation  |
\*---------------------------------------------------------------------------*/
FoamFile
{
    version     2.0;
    format      ascii;
    class       volScalarField;
    location    "0.032";
    object      k_0;
}
// * * * * * * * * * * * * * * * * * * * * * * * * * * * * * * * * * * * * * //

dimensions      [0 2 -2 0 0 0 0];

internalField   nonuniform List<scalar> 
12225
(
1.93857e-05
1.80602e-05
1.66293e-05
1.53378e-05
1.40713e-05
1.2725e-05
1.14469e-05
1.00239e-05
8.70131e-06
7.8026e-06
6.94226e-06
5.99975e-06
5.22123e-06
4.69602e-06
4.25624e-06
4.01305e-06
3.77233e-06
6.08691e-06
1.99801e-05
1.98722e-05
1.96457e-05
1.94377e-05
1.89851e-05
1.93649e-05
1.93409e-05
1.83465e-05
1.74134e-05
1.6766e-05
1.63876e-05
1.59595e-05
1.56025e-05
1.50843e-05
1.47567e-05
1.42862e-05
1.39345e-05
1.34132e-05
2.00003e-05
1.93646e-05
1.91775e-05
1.91001e-05
1.90415e-05
1.90822e-05
1.90567e-05
1.88288e-05
1.85577e-05
1.83461e-05
1.82416e-05
1.81403e-05
1.80861e-05
1.79742e-05
1.78934e-05
1.77211e-05
1.76065e-05
1.73288e-05
2.03982e-05
2.0111e-05
1.87109e-05
1.81908e-05
1.82156e-05
1.79463e-05
1.7152e-05
1.66305e-05
1.63828e-05
1.62917e-05
1.62921e-05
1.63662e-05
1.6594e-05
1.67961e-05
1.6886e-05
1.68931e-05
1.68891e-05
1.68561e-05
2.12042e-05
2.26825e-05
2.24416e-05
2.18435e-05
2.1834e-05
2.21612e-05
2.21824e-05
2.19022e-05
2.05032e-05
1.81064e-05
1.71522e-05
1.6804e-05
1.61824e-05
1.51948e-05
1.42976e-05
1.37828e-05
1.3605e-05
1.36182e-05
2.03614e-05
2.17735e-05
2.2347e-05
2.22677e-05
2.23692e-05
2.32806e-05
2.62596e-05
2.74466e-05
2.72813e-05
2.60959e-05
2.37564e-05
2.18528e-05
1.96676e-05
1.70707e-05
1.46772e-05
1.32854e-05
1.28801e-05
1.28602e-05
2.04369e-05
2.10778e-05
2.22633e-05
2.21163e-05
2.17781e-05
2.19331e-05
2.32507e-05
2.56937e-05
2.63618e-05
2.62455e-05
2.53865e-05
2.34079e-05
2.19977e-05
2.08594e-05
1.98381e-05
1.91929e-05
1.89452e-05
1.87748e-05
2.12706e-05
2.17836e-05
2.16388e-05
2.13764e-05
2.12541e-05
2.14019e-05
2.22841e-05
2.47351e-05
2.60577e-05
2.62245e-05
2.59646e-05
2.47175e-05
2.32574e-05
2.24088e-05
2.19157e-05
2.16008e-05
2.144e-05
2.13425e-05
2.0805e-05
2.07634e-05
2.06419e-05
2.07269e-05
2.15725e-05
2.39755e-05
2.52891e-05
2.56672e-05
2.57864e-05
2.57813e-05
2.55726e-05
2.47431e-05
2.36379e-05
2.28086e-05
2.22126e-05
2.18184e-05
2.15957e-05
2.15049e-05
2.04693e-05
2.03539e-05
2.06624e-05
2.10933e-05
2.23955e-05
2.35613e-05
2.44048e-05
2.53769e-05
2.59781e-05
2.61255e-05
2.61137e-05
2.6014e-05
2.57332e-05
2.49559e-05
2.33815e-05
2.21574e-05
2.14282e-05
2.11474e-05
2.02957e-05
2.03502e-05
2.05129e-05
2.10189e-05
2.13832e-05
2.1508e-05
2.1739e-05
2.21771e-05
2.31717e-05
2.43728e-05
2.51587e-05
2.54712e-05
2.54872e-05
2.52754e-05
2.4192e-05
2.24813e-05
2.13905e-05
2.0866e-05
2.01912e-05
2.02472e-05
2.06103e-05
2.19606e-05
2.3095e-05
2.31952e-05
2.2719e-05
2.21087e-05
2.2029e-05
2.23289e-05
2.32597e-05
2.37822e-05
2.39335e-05
2.39089e-05
2.35954e-05
2.25466e-05
2.1549e-05
2.09703e-05
2.01023e-05
2.01421e-05
2.04723e-05
2.11614e-05
2.14961e-05
2.15399e-05
2.14508e-05
2.09845e-05
2.08962e-05
2.13344e-05
2.25677e-05
2.31021e-05
2.31701e-05
2.3133e-05
2.29271e-05
2.22494e-05
2.15137e-05
2.10391e-05
2.0111e-05
2.02114e-05
2.0802e-05
2.16301e-05
2.1894e-05
2.15649e-05
2.05874e-05
2.02001e-05
2.01978e-05
2.04948e-05
2.13483e-05
2.19132e-05
2.21193e-05
2.21611e-05
2.21556e-05
2.20394e-05
2.16784e-05
2.13242e-05
2.03444e-05
2.03857e-05
2.06382e-05
2.07123e-05
2.06168e-05
2.03445e-05
2.02327e-05
2.02287e-05
2.03267e-05
2.06344e-05
2.08121e-05
2.08751e-05
2.09385e-05
2.10619e-05
2.13642e-05
2.19191e-05
2.23547e-05
2.24675e-05
2.20459e-05
2.12084e-05
2.08509e-05
2.07233e-05
2.05167e-05
2.04036e-05
2.02705e-05
2.01923e-05
2.01844e-05
2.01974e-05
2.0244e-05
2.03164e-05
2.03862e-05
2.04702e-05
2.0664e-05
2.13617e-05
2.29453e-05
2.39537e-05
2.02925e-05
2.07967e-05
2.09513e-05
2.08138e-05
2.04365e-05
2.0258e-05
2.01993e-05
2.01878e-05
2.01931e-05
2.02393e-05
2.03123e-05
2.03422e-05
2.03642e-05
2.04039e-05
2.04982e-05
2.08109e-05
2.14271e-05
2.19414e-05
2.04034e-05
2.0462e-05
2.02808e-05
2.0153e-05
2.01321e-05
2.01581e-05
2.02901e-05
2.04144e-05
2.04537e-05
2.04533e-05
2.04161e-05
2.03794e-05
2.03824e-05
2.04561e-05
2.07711e-05
2.10081e-05
2.10427e-05
2.10153e-05
2.02625e-05
2.03246e-05
2.04654e-05
2.03421e-05
2.02548e-05
2.02687e-05
2.04324e-05
2.0858e-05
2.10792e-05
2.1126e-05
2.11073e-05
2.09706e-05
2.08127e-05
2.07763e-05
2.08002e-05
2.08912e-05
2.09125e-05
2.08874e-05
2.04486e-05
2.03309e-05
2.03686e-05
2.0279e-05
2.02068e-05
2.0225e-05
2.0367e-05
2.05175e-05
2.05726e-05
2.05826e-05
2.05809e-05
2.05793e-05
2.05863e-05
2.06151e-05
2.06313e-05
2.06375e-05
2.06359e-05
2.06086e-05
2.01548e-05
2.02175e-05
2.06941e-05
2.09368e-05
2.09332e-05
2.08101e-05
2.08159e-05
2.09398e-05
2.10211e-05
2.10336e-05
2.10244e-05
2.09638e-05
2.08208e-05
2.07143e-05
2.0654e-05
2.06265e-05
2.06207e-05
2.06263e-05
2.03075e-05
2.03566e-05
2.05733e-05
2.07161e-05
2.06378e-05
2.0532e-05
2.05177e-05
2.05314e-05
2.06324e-05
2.11251e-05
2.16036e-05
2.16699e-05
2.16175e-05
2.14885e-05
2.138e-05
2.12313e-05
2.10375e-05
2.08697e-05
2.01331e-05
2.03515e-05
2.04886e-05
2.04915e-05
2.04474e-05
2.04211e-05
2.03988e-05
2.03967e-05
2.04281e-05
2.07293e-05
2.12255e-05
2.13297e-05
2.12931e-05
2.11692e-05
2.10789e-05
2.09107e-05
2.06607e-05
2.04719e-05
2.00649e-05
2.00786e-05
2.02304e-05
2.03241e-05
2.04803e-05
2.08095e-05
2.0989e-05
2.10215e-05
2.10154e-05
2.10237e-05
2.11303e-05
2.12452e-05
2.12449e-05
2.11381e-05
2.08158e-05
2.05794e-05
2.04727e-05
2.04312e-05
2.03023e-05
2.02609e-05
2.03018e-05
2.03413e-05
2.04041e-05
2.05018e-05
2.07109e-05
2.10824e-05
2.13847e-05
2.16204e-05
2.18076e-05
2.19e-05
2.18951e-05
2.17116e-05
2.11311e-05
2.07323e-05
2.05151e-05
2.03907e-05
2.03808e-05
2.08274e-05
2.09883e-05
2.09485e-05
2.08529e-05
2.08267e-05
2.08031e-05
2.07358e-05
2.06913e-05
2.06939e-05
2.07601e-05
2.11429e-05
2.20711e-05
2.24542e-05
2.24491e-05
2.22322e-05
2.15231e-05
2.08732e-05
2.00305e-05
2.01012e-05
2.01549e-05
2.01618e-05
2.01468e-05
2.00856e-05
1.98408e-05
1.95699e-05
1.95311e-05
1.95523e-05
1.95762e-05
1.9569e-05
1.94968e-05
1.9349e-05
1.92505e-05
1.91642e-05
1.89867e-05
1.84715e-05
2.01477e-05
1.77201e-05
1.75366e-05
1.85838e-05
2.0227e-05
2.16812e-05
2.35744e-05
2.72506e-05
3.34062e-05
3.83277e-05
4.17998e-05
4.47881e-05
4.76897e-05
5.04514e-05
5.4663e-05
6.33889e-05
8.24212e-05
9.83491e-05
2.98843e-05
8.17004e-05
0.000138251
0.000207172
0.000254969
0.000279091
0.000316284
0.000369018
0.000413829
0.00043745
0.000447619
0.000456137
0.000466105
0.000477317
0.000495861
0.000538621
0.00061531
0.000674497
0.00237154
0.00204396
0.00188688
0.00188263
0.00190274
0.00190048
0.00185483
0.00171637
0.00159579
0.00150958
0.00145055
0.00141633
0.00140191
0.00139897
0.00139891
0.00139897
0.00139689
0.00138398
2.32099e-06
5.82316e-06
1.19534e-05
2.1181e-05
3.56196e-05
5.51828e-05
7.83742e-05
0.000103732
0.000131096
0.000160952
0.000195075
0.000238155
0.000289289
0.000338367
0.000378622
0.000452624
0.000647794
0.000986211
0.0013685
0.00175326
0.0022791
0.00318931
0.00451249
0.00573441
0.00604961
0.00499243
0.0029953
0.00166344
0.00103647
0.000821179
0.000782127
0.000786601
0.000812103
0.000827246
0.000813614
0.000741484
0.000667045
0.000563256
0.000448311
0.000353968
0.000262477
0.000181107
0.000135524
9.23651e-05
6.29907e-05
4.83247e-05
4.07601e-05
3.82872e-05
3.8618e-05
3.86095e-05
3.80868e-05
3.78079e-05
3.74139e-05
3.67652e-05
3.59492e-05
3.44021e-05
3.30544e-05
3.20761e-05
3.0967e-05
2.95998e-05
2.79521e-05
2.66594e-05
2.55317e-05
2.39598e-05
2.24198e-05
2.09745e-05
1.94044e-05
1.79639e-05
1.65312e-05
1.46268e-05
1.35809e-05
1.19148e-05
1.06923e-05
9.38464e-06
8.24636e-06
7.17555e-06
6.22958e-06
5.38564e-06
4.64623e-06
4.05195e-06
3.56107e-06
3.12969e-06
2.74355e-06
2.39763e-06
2.08749e-06
1.80862e-06
1.5573e-06
1.33041e-06
1.13132e-06
9.48738e-07
7.84456e-07
6.42085e-07
5.21988e-07
4.20951e-07
3.36795e-07
2.67421e-07
2.10741e-07
1.64803e-07
1.27862e-07
9.83958e-08
7.50895e-08
5.68187e-08
4.26264e-08
3.1704e-08
2.33759e-08
1.70838e-08
1.23746e-08
8.88419e-09
6.32265e-09
4.46133e-09
3.12123e-09
2.16618e-09
1.49112e-09
1.01705e-09
6.91013e-10
4.67959e-10
3.15375e-10
2.11257e-10
1.40523e-10
9.27548e-11
6.07265e-11
3.94245e-11
2.53789e-11
1.61987e-11
1.02526e-11
6.43826e-12
4.01435e-12
2.48668e-12
1.53095e-12
9.37014e-13
5.70205e-13
3.45012e-13
2.07571e-13
1.24182e-13
7.38883e-14
4.3738e-14
2.57724e-14
1.51313e-14
8.86592e-15
5.19851e-15
3.06441e-15
1.82998e-15
1.12042e-15
7.15398e-16
4.86148e-16
3.57898e-16
2.87483e-16
2.5013e-16
2.31685e-16
2.24014e-16
2.22061e-16
2.22045e-16
2.22045e-16
2.22045e-16
2.22045e-16
2.22045e-16
2.22045e-16
2.22045e-16
2.22045e-16
2.22045e-16
2.22045e-16
2.22045e-16
2.22045e-16
2.22045e-16
2.22045e-16
2.22045e-16
2.22045e-16
2.22045e-16
2.22045e-16
2.22045e-16
2.22045e-16
2.22045e-16
2.22045e-16
2.22045e-16
2.22045e-16
2.22045e-16
1.39067e-15
5.95108e-13
2.93274e-10
1.38747e-07
6.904e-06
2.35568e-05
5.29861e-05
9.00038e-05
0.000138955
0.000203292
0.00027746
0.000357856
0.000447417
0.00055042
0.000673367
0.000829355
0.00104616
0.00138628
0.00192905
0.00259026
0.00326661
0.00384031
0.00422961
0.00443777
0.0044976
0.00443495
0.00428742
0.00372282
0.00286644
0.00197018
0.00129019
0.000883977
0.000661649
0.00054096
0.000470348
0.000419557
0.000379503
0.00032892
0.000276396
0.000239178
0.000210582
0.000180387
0.000164602
0.00015086
0.000144119
0.00014119
0.000140605
0.000142655
0.000145093
0.000147727
0.000148939
0.000150083
0.00015058
0.000150716
0.000149806
0.000149361
0.000147541
0.000144917
0.000139281
0.000132808
0.000129357
0.00012518
0.000119581
0.000113628
0.00010775
0.000103269
9.83859e-05
9.1307e-05
8.58527e-05
8.09969e-05
7.51677e-05
6.92869e-05
6.43514e-05
5.79353e-05
5.3319e-05
4.78017e-05
4.30992e-05
3.84195e-05
3.40961e-05
2.99485e-05
2.61447e-05
2.26564e-05
1.93306e-05
1.61434e-05
1.40236e-05
1.24183e-05
1.10518e-05
9.85722e-06
8.80951e-06
7.87863e-06
7.04371e-06
6.28687e-06
5.58605e-06
4.94029e-06
4.33495e-06
3.76777e-06
3.24154e-06
2.76183e-06
2.33231e-06
1.95427e-06
1.62636e-06
1.34463e-06
1.10448e-06
9.01273e-07
7.30541e-07
5.88151e-07
4.70357e-07
3.73751e-07
2.95191e-07
2.31743e-07
1.80612e-07
1.39556e-07
1.0685e-07
8.10361e-08
6.08617e-08
4.52529e-08
3.33028e-08
2.42543e-08
1.74742e-08
1.24514e-08
8.7745e-09
6.11521e-09
4.21499e-09
2.87352e-09
1.93784e-09
1.29292e-09
8.53664e-10
5.57895e-10
3.60877e-10
2.312e-10
1.46908e-10
9.26291e-11
5.79825e-11
3.60455e-11
2.22597e-11
1.36572e-11
8.32526e-12
5.04219e-12
3.03395e-12
1.81371e-12
1.07726e-12
6.35809e-13
3.72971e-13
2.17518e-13
1.26174e-13
7.28407e-14
4.18915e-14
2.40365e-14
1.37908e-14
7.93898e-15
4.60902e-15
2.71865e-15
1.64639e-15
1.03769e-15
6.91631e-16
4.94454e-16
3.81654e-16
3.16769e-16
2.79154e-16
2.57138e-16
2.44075e-16
2.36209e-16
2.31373e-16
2.28353e-16
2.26415e-16
2.25155e-16
2.24307e-16
2.23732e-16
2.23328e-16
2.23047e-16
2.22843e-16
2.22703e-16
2.22603e-16
2.22538e-16
2.22491e-16
2.22462e-16
2.22443e-16
2.22425e-16
2.2242e-16
2.22503e-16
2.86765e-16
3.84369e-14
2.3291e-11
1.23284e-08
9.87255e-06
3.60446e-05
7.50915e-05
0.000125116
0.000193247
0.000282219
0.000383468
0.000496099
0.000623888
0.000767926
0.000927983
0.00110442
0.00129465
0.00150088
0.00172742
0.00195227
0.00214758
0.00226926
0.00232237
0.00226569
0.00209601
0.00180794
0.00140278
0.00107571
0.000805424
0.000598446
0.000452475
0.000365219
0.000304529
0.000268656
0.000243126
0.00022589
0.000213027
0.000199687
0.000189557
0.000184982
0.000181725
0.000179208
0.00017811
0.000179469
0.000182466
0.000187312
0.000191877
0.000197599
0.000204014
0.000210364
0.000219875
0.000233323
0.000252264
0.000269506
0.000280807
0.000286085
0.000288034
0.000288184
0.000284555
0.000280275
0.00027525
0.00026634
0.000256056
0.000244756
0.000234619
0.000223901
0.000210125
0.000193031
0.000178361
0.000166155
0.000154652
0.000141389
0.00013103
0.000119521
0.000107754
9.70505e-05
8.68356e-05
7.74408e-05
6.87281e-05
6.0703e-05
5.28632e-05
4.50753e-05
3.76322e-05
3.08695e-05
2.52819e-05
2.11996e-05
1.81868e-05
1.56533e-05
1.35246e-05
1.17291e-05
1.01656e-05
8.81337e-06
7.67461e-06
6.72612e-06
5.94054e-06
5.28003e-06
4.7116e-06
4.20673e-06
3.75063e-06
3.33015e-06
2.93775e-06
2.57271e-06
2.23571e-06
1.92735e-06
1.64795e-06
1.39725e-06
1.17439e-06
9.78171e-07
8.07514e-07
6.6082e-07
5.36176e-07
4.31378e-07
3.44051e-07
2.71928e-07
2.12911e-07
1.65082e-07
1.26711e-07
9.62524e-08
7.23371e-08
5.37712e-08
3.95262e-08
2.87281e-08
2.06436e-08
1.4667e-08
1.03052e-08
7.16297e-09
4.92793e-09
3.35731e-09
2.2654e-09
1.51363e-09
1.00135e-09
6.56099e-10
4.25942e-10
2.7407e-10
1.74828e-10
1.10604e-10
6.94227e-11
4.32317e-11
2.67085e-11
1.63687e-11
9.95155e-12
6.00197e-12
3.59149e-12
2.13268e-12
1.25714e-12
7.35963e-13
4.28176e-13
2.47778e-13
1.42782e-13
8.20489e-14
4.71019e-14
2.7072e-14
1.56211e-14
9.08139e-15
5.34446e-15
3.20509e-15
1.97607e-15
1.26688e-15
8.54675e-16
6.13186e-16
4.69646e-16
3.83377e-16
3.30132e-16
2.97116e-16
2.75687e-16
2.62084e-16
2.52688e-16
2.46675e-16
2.4225e-16
2.39475e-16
2.37295e-16
2.3607e-16
2.35079e-16
2.34634e-16
2.34278e-16
2.34195e-16
2.34427e-16
2.34105e-16
2.36564e-16
2.36937e-16
2.8241e-16
2.03801e-15
1.06479e-12
5.39399e-10
1.11884e-05
3.95829e-05
7.33974e-05
0.000105526
0.000146767
0.000197906
0.000257472
0.000333784
0.000430039
0.000530582
0.000624308
0.000714454
0.000797897
0.000869159
0.000922932
0.000963351
0.000981846
0.000975695
0.000930225
0.000855769
0.000752586
0.000633474
0.00051667
0.000428858
0.000350856
0.000303271
0.000269215
0.000252547
0.000241666
0.00023623
0.000232483
0.0002311
0.000233175
0.000237758
0.000246572
0.000258835
0.000270314
0.000285489
0.00029761
0.000314225
0.000323053
0.000333804
0.000340896
0.000351686
0.000358426
0.000363245
0.000365239
0.000365913
0.000365703
0.000363172
0.000362538
0.000361929
0.00035927
0.000354053
0.000349747
0.000348
0.000346671
0.000343351
0.00033918
0.00033582
0.000331414
0.000327661
0.000322421
0.000311998
0.000296917
0.000275819
0.000252462
0.000227036
0.000202667
0.000181146
0.000161427
0.000144075
0.00012868
0.000115144
0.000102615
9.02353e-05
7.82603e-05
6.72527e-05
5.73145e-05
4.88131e-05
4.14988e-05
3.49933e-05
2.9289e-05
2.43026e-05
1.99956e-05
1.63625e-05
1.33045e-05
1.08177e-05
8.92758e-06
7.49974e-06
6.40762e-06
5.55418e-06
4.87092e-06
4.3213e-06
3.87636e-06
3.50209e-06
3.15613e-06
2.8203e-06
2.50261e-06
2.2035e-06
1.92463e-06
1.66836e-06
1.436e-06
1.22758e-06
1.04174e-06
8.77182e-07
7.32899e-07
6.07638e-07
4.99903e-07
4.08064e-07
3.30448e-07
2.6541e-07
2.11378e-07
1.66887e-07
1.30598e-07
1.01274e-07
7.78012e-08
5.9193e-08
4.45858e-08
3.32336e-08
2.45016e-08
1.78575e-08
1.28602e-08
9.14842e-09
6.42907e-09
4.46503e-09
3.066e-09
2.08255e-09
1.39993e-09
9.31777e-10
6.14269e-10
4.01112e-10
2.59417e-10
1.66177e-10
1.05444e-10
6.6271e-11
4.12485e-11
2.54244e-11
1.55195e-11
9.38405e-12
5.623e-12
3.3411e-12
1.97032e-12
1.15452e-12
6.73116e-13
3.91138e-13
2.26972e-13
1.31824e-13
7.68411e-14
4.50992e-14
2.67507e-14
1.60993e-14
9.87201e-15
6.20816e-15
4.0278e-15
2.72068e-15
1.91749e-15
1.42464e-15
1.10457e-15
9.08224e-16
7.68472e-16
6.90602e-16
6.23779e-16
5.97691e-16
5.65244e-16
5.61148e-16
5.50342e-16
5.60569e-16
5.58221e-16
5.8498e-16
5.83237e-16
6.11876e-16
6.64182e-16
6.30735e-16
1.1e-15
9.20084e-16
1.22984e-14
1.11186e-14
2.31549e-13
2.45845e-11
1.011e-05
3.53903e-05
6.21392e-05
8.84309e-05
0.00012095
0.000157428
0.000195523
0.000236986
0.00028178
0.000325402
0.000362723
0.000394914
0.000422224
0.000446135
0.000464549
0.000472696
0.000474156
0.000458156
0.000432021
0.000398453
0.000359286
0.000319461
0.000289202
0.00026854
0.00025853
0.000255112
0.00025436
0.000255738
0.000260345
0.000271856
0.000282003
0.000295207
0.000308526
0.000316777
0.000325183
0.000334477
0.000346442
0.000359141
0.000378038
0.000398312
0.000412896
0.000423307
0.000429123
0.000435306
0.000440691
0.000449672
0.000460919
0.000464631
0.000464699
0.000446843
0.000431188
0.000425406
0.000413853
0.000391206
0.000374681
0.000361877
0.000355011
0.000347989
0.000340641
0.000337539
0.000335215
0.000334861
0.000336739
0.000338229
0.000337697
0.000331714
0.0003117
0.000275778
0.000235733
0.000204708
0.000179912
0.000159145
0.000141921
0.000127424
0.000115492
0.000105457
9.58899e-05
8.65324e-05
7.72289e-05
6.78363e-05
5.88283e-05
5.08008e-05
4.38709e-05
3.77738e-05
3.20471e-05
2.65389e-05
2.14104e-05
1.69659e-05
1.32141e-05
1.01897e-05
7.88597e-06
6.1957e-06
4.98138e-06
4.10556e-06
3.4531e-06
2.95773e-06
2.60086e-06
2.35333e-06
2.16362e-06
1.99236e-06
1.80737e-06
1.61028e-06
1.4155e-06
1.22942e-06
1.05656e-06
8.99481e-07
7.59063e-07
6.35254e-07
5.27397e-07
4.34452e-07
3.55152e-07
2.88121e-07
2.31962e-07
1.8531e-07
1.46851e-07
1.15404e-07
8.99127e-08
6.94338e-08
5.31319e-08
4.02762e-08
3.02356e-08
2.24716e-08
1.65297e-08
1.20306e-08
8.66118e-09
6.16652e-09
4.34086e-09
3.02026e-09
2.07657e-09
1.41081e-09
9.46863e-10
6.27123e-10
4.09759e-10
2.64676e-10
1.692e-10
1.06986e-10
6.68842e-11
4.13301e-11
2.52403e-11
1.5234e-11
9.08974e-12
5.36529e-12
3.13636e-12
1.81885e-12
1.04901e-12
6.03707e-13
3.482e-13
2.02347e-13
1.19185e-13
7.15825e-14
4.40553e-14
2.78662e-14
1.81219e-14
1.20939e-14
8.25553e-15
5.7465e-15
4.06831e-15
2.9267e-15
2.139e-15
1.59104e-15
1.20603e-15
9.36435e-16
7.4212e-16
6.06293e-16
5.0754e-16
4.38512e-16
3.8928e-16
3.4876e-16
3.24707e-16
3.0321e-16
2.89616e-16
2.9227e-16
3.36795e-16
5.59474e-16
1.88411e-15
5.54292e-15
9.64965e-14
1.25269e-13
6.5895e-13
2.2468e-12
8.20446e-06
2.91863e-05
5.09245e-05
7.15603e-05
9.68695e-05
0.000124441
0.000151563
0.000178663
0.000205056
0.000228544
0.000246391
0.000259315
0.000268709
0.000275208
0.000278833
0.000280338
0.000278358
0.000271221
0.000262942
0.000253649
0.000245757
0.000241804
0.000240703
0.00024699
0.000253418
0.000260437
0.000273248
0.00029137
0.000316672
0.000329217
0.000344527
0.000356067
0.000371926
0.000392128
0.000413536
0.000438957
0.000462209
0.000495271
0.000533926
0.00058212
0.000641259
0.000705887
0.000767727
0.0008199
0.000868415
0.000925679
0.000980465
0.00100308
0.0010064
0.00095135
0.000860911
0.000822006
0.000762861
0.000669042
0.000611523
0.000525642
0.000477773
0.000441852
0.000394425
0.000375318
0.000351174
0.000338944
0.000334502
0.000333356
0.000338006
0.000349346
0.000355039
0.000348368
0.000312503
0.000248845
0.000203169
0.000172528
0.000149732
0.000132635
0.000119177
0.000108418
9.96378e-05
9.16729e-05
8.43528e-05
7.74125e-05
7.05281e-05
6.3587e-05
5.67433e-05
5.0579e-05
4.52314e-05
4.05789e-05
3.62209e-05
3.12109e-05
2.54039e-05
1.93819e-05
1.4273e-05
1.03353e-05
7.40736e-06
5.33429e-06
3.91787e-06
2.97286e-06
2.33824e-06
1.89775e-06
1.5845e-06
1.37016e-06
1.24494e-06
1.1713e-06
1.10422e-06
1.01931e-06
9.17283e-07
8.09593e-07
7.02828e-07
6.01343e-07
5.07865e-07
4.2388e-07
3.4995e-07
2.8599e-07
2.31479e-07
1.85635e-07
1.47546e-07
1.16243e-07
9.07761e-08
7.02588e-08
5.38869e-08
4.09477e-08
3.08202e-08
2.29715e-08
1.69502e-08
1.23784e-08
8.94412e-09
6.39243e-09
4.51773e-09
3.15622e-09
2.17907e-09
1.48625e-09
1.00111e-09
6.65697e-10
4.36823e-10
2.82755e-10
1.80475e-10
1.13535e-10
7.0362e-11
4.29384e-11
2.57914e-11
1.52428e-11
8.86075e-12
5.065e-12
2.8468e-12
1.57358e-12
8.55983e-13
4.58867e-13
2.43026e-13
1.27707e-13
6.70362e-14
3.55077e-14
1.92337e-14
1.08281e-14
6.42379e-15
4.04962e-15
2.72417e-15
1.93526e-15
1.434e-15
1.09793e-15
8.61323e-16
6.91135e-16
5.68662e-16
4.78467e-16
4.1434e-16
3.66088e-16
3.28837e-16
3.0393e-16
2.81376e-16
2.71229e-16
2.75327e-16
3.1022e-16
5.84144e-16
1.7416e-15
1.03397e-14
4.36262e-14
2.31364e-13
6.25512e-13
4.96051e-12
5.05808e-12
1.15221e-11
1.11826e-11
6.30647e-06
2.30594e-05
4.05125e-05
5.70965e-05
7.75481e-05
0.000100156
0.000121765
0.00014217
0.000160883
0.000177063
0.000188514
0.00019608
0.000201502
0.000205723
0.000208411
0.000210178
0.000211015
0.000211091
0.000211988
0.000214323
0.000218947
0.00022721
0.000238637
0.000251769
0.000270193
0.000299092
0.000344459
0.000375493
0.000396055
0.00041484
0.000431952
0.000453309
0.000477459
0.000509532
0.000553524
0.000612998
0.000684964
0.000777044
0.00089022
0.0010423
0.00124778
0.00146423
0.00168523
0.00187881
0.00198846
0.00214173
0.00222616
0.00226044
0.00225927
0.00210719
0.00193349
0.00184507
0.00159225
0.00138209
0.00127557
0.00104805
0.00088056
0.000786771
0.000630945
0.000560636
0.000473745
0.00039696
0.000354092
0.000330824
0.000321828
0.000319702
0.000339143
0.000354783
0.000352815
0.000320417
0.000247995
0.000198463
0.000163435
0.000139229
0.000121599
0.000108847
9.9681e-05
9.2033e-05
8.53533e-05
7.93244e-05
7.37726e-05
6.83649e-05
6.27496e-05
5.65983e-05
5.073e-05
4.60682e-05
4.24562e-05
3.95933e-05
3.69708e-05
3.35444e-05
2.81778e-05
2.15452e-05
1.54246e-05
1.0754e-05
7.31091e-06
4.9097e-06
3.31114e-06
2.28702e-06
1.64735e-06
1.24692e-06
9.85463e-07
8.09711e-07
7.00393e-07
6.46293e-07
6.20127e-07
5.90556e-07
5.4633e-07
4.91616e-07
4.3244e-07
3.72908e-07
3.15978e-07
2.6357e-07
2.16757e-07
1.75962e-07
1.41144e-07
1.11951e-07
8.78544e-08
6.82389e-08
5.24724e-08
3.99487e-08
3.01123e-08
2.24705e-08
1.65975e-08
1.21325e-08
8.77472e-09
6.27737e-09
4.44083e-09
3.10573e-09
2.14654e-09
1.46572e-09
9.88434e-10
6.58066e-10
4.32361e-10
2.8022e-10
1.79075e-10
1.12783e-10
6.99686e-11
4.27337e-11
2.56796e-11
1.51735e-11
8.81005e-12
5.02321e-12
2.81067e-12
1.5424e-12
8.29682e-13
4.37315e-13
2.25841e-13
1.14312e-13
5.67781e-14
2.77501e-14
1.34216e-14
6.49547e-15
3.20857e-15
1.67095e-15
9.55572e-16
6.19492e-16
4.58141e-16
3.73493e-16
3.27603e-16
2.99014e-16
2.77653e-16
2.67209e-16
2.54269e-16
2.45495e-16
2.56868e-16
3.08424e-16
4.6533e-16
8.79286e-16
2.01728e-15
4.99743e-15
1.32552e-14
3.39128e-14
8.95611e-14
2.12507e-13
6.55897e-13
1.11954e-12
3.70769e-12
3.91052e-12
4.41687e-12
5.81732e-12
4.59433e-06
1.7599e-05
3.14242e-05
4.501e-05
6.15764e-05
8.09282e-05
0.000100228
0.000118719
0.000134805
0.000148111
0.000158325
0.000165691
0.000171174
0.000176117
0.000180966
0.000185415
0.000189692
0.000193531
0.00019864
0.00020587
0.000215769
0.000228865
0.000248499
0.000281855
0.000330141
0.000376104
0.00040509
0.000426789
0.000442503
0.000467559
0.000502875
0.000549434
0.000602797
0.000679022
0.000786641
0.000934539
0.00113222
0.00139973
0.00167962
0.00198663
0.00224829
0.0027168
0.00321507
0.00360967
0.0040298
0.00442689
0.00466281
0.00475207
0.00469116
0.00418075
0.00380776
0.00353534
0.00280269
0.00236267
0.00213257
0.00178301
0.00150771
0.00136035
0.00116288
0.000997748
0.000835907
0.000686637
0.000507663
0.000387982
0.000330053
0.000311406
0.000308107
0.000315847
0.000335052
0.000337135
0.000283562
0.000221858
0.000177723
0.000147228
0.000125808
0.000109543
9.77279e-05
9.00157e-05
8.41509e-05
7.89842e-05
7.40391e-05
6.93398e-05
6.49577e-05
6.07664e-05
5.60219e-05
5.03766e-05
4.54673e-05
4.21232e-05
3.97959e-05
3.80517e-05
3.64157e-05
3.37787e-05
2.88819e-05
2.20702e-05
1.55382e-05
1.05268e-05
6.88186e-06
4.39023e-06
2.7747e-06
1.77347e-06
1.17391e-06
8.21227e-07
6.10106e-07
4.77261e-07
3.93964e-07
3.51453e-07
3.3644e-07
3.27766e-07
3.11984e-07
2.86744e-07
2.5589e-07
2.22634e-07
1.89448e-07
1.58065e-07
1.29566e-07
1.04519e-07
8.30912e-08
6.51721e-08
5.04781e-08
3.86337e-08
2.92317e-08
2.18722e-08
1.61864e-08
1.18479e-08
8.57715e-09
6.14047e-09
4.34649e-09
3.04128e-09
2.10302e-09
1.43672e-09
9.69397e-10
6.45781e-10
4.2458e-10
2.7539e-10
1.76142e-10
1.11045e-10
6.89655e-11
4.21721e-11
2.53757e-11
1.50154e-11
8.73149e-12
4.98625e-12
2.79438e-12
1.53572e-12
8.27097e-13
4.36279e-13
2.25292e-13
1.13861e-13
5.63252e-14
2.72974e-14
1.29943e-14
6.1134e-15
2.88198e-15
1.40061e-15
7.37131e-16
4.46267e-16
3.21285e-16
2.678e-16
2.45135e-16
2.3523e-16
2.3017e-16
2.28126e-16
2.26404e-16
2.25094e-16
2.29583e-16
2.66953e-16
3.89124e-16
7.0975e-16
1.573e-15
3.76929e-15
9.66895e-15
2.38751e-14
6.02305e-14
1.35691e-13
4.12173e-13
6.26915e-13
1.34457e-12
1.57119e-12
1.729e-12
2.23481e-12
3.1786e-06
1.30334e-05
2.3654e-05
3.4743e-05
4.83763e-05
6.52641e-05
8.2901e-05
0.000100845
0.000117368
0.000131232
0.000141542
0.000149136
0.000155628
0.000162409
0.000169356
0.000176464
0.000183546
0.000190347
0.000197302
0.000206323
0.000218963
0.000238968
0.000274113
0.00032124
0.000363608
0.000401214
0.00042908
0.000456785
0.000492347
0.000554477
0.000652944
0.000771969
0.000929763
0.00114874
0.00140043
0.00171197
0.00206937
0.00245169
0.00288974
0.00341315
0.00416711
0.00527569
0.00653848
0.00782239
0.00927356
0.0106098
0.0114655
0.0118194
0.0116597
0.00999428
0.0081165
0.00707309
0.00508307
0.00365778
0.00290263
0.00223445
0.00190437
0.00165975
0.00146004
0.00129525
0.00118997
0.00108571
0.000930925
0.000671017
0.000438218
0.000339954
0.000309846
0.000305141
0.000311647
0.000319743
0.00028935
0.000227828
0.00018114
0.000149074
0.000126932
0.000110319
9.69541e-05
8.70952e-05
8.07193e-05
7.62368e-05
7.23495e-05
6.84861e-05
6.47151e-05
6.12138e-05
5.79358e-05
5.44854e-05
4.9887e-05
4.48242e-05
4.12422e-05
3.90121e-05
3.75741e-05
3.655e-05
3.53584e-05
3.30077e-05
2.79994e-05
2.09577e-05
1.4395e-05
9.43859e-06
5.93913e-06
3.62236e-06
2.1719e-06
1.30564e-06
8.06907e-07
5.25951e-07
3.67214e-07
2.73174e-07
2.15566e-07
1.84458e-07
1.72691e-07
1.6983e-07
1.6629e-07
1.56954e-07
1.42029e-07
1.24978e-07
1.07042e-07
8.95004e-08
7.32409e-08
5.87851e-08
4.63629e-08
3.59862e-08
2.75237e-08
2.0764e-08
1.54621e-08
1.13712e-08
8.26159e-09
5.93096e-09
4.20739e-09
2.94922e-09
2.04245e-09
1.39721e-09
9.43912e-10
6.29556e-10
4.14405e-10
2.69117e-10
1.72348e-10
1.08799e-10
6.76683e-11
4.14433e-11
2.49795e-11
1.48082e-11
8.6283e-12
4.93806e-12
2.77391e-12
1.52837e-12
8.25406e-13
4.36659e-13
2.26159e-13
1.14638e-13
5.68701e-14
2.763e-14
1.31759e-14
6.20126e-15
2.91726e-15
1.40863e-15
7.32351e-16
4.36586e-16
3.10417e-16
2.57842e-16
2.36465e-16
2.2795e-16
2.2455e-16
2.23271e-16
2.22717e-16
2.22428e-16
2.22587e-16
2.37801e-16
3.08494e-16
5.05429e-16
1.03182e-15
2.32829e-15
5.6732e-15
1.33137e-14
3.40281e-14
6.68943e-14
1.48087e-13
2.46379e-13
2.84898e-13
3.68389e-13
4.28798e-13
6.23277e-13
2.05043e-06
9.04053e-06
1.71277e-05
2.65667e-05
3.75877e-05
5.21933e-05
6.84499e-05
8.53299e-05
0.000102419
0.000118236
0.000130406
0.000139536
0.000146735
0.000153973
0.000162924
0.000172688
0.000182449
0.00019119
0.000201031
0.000215858
0.00023971
0.000268179
0.000308956
0.000343999
0.000384655
0.000423475
0.000460916
0.000516749
0.000607861
0.00075263
0.000910178
0.00106332
0.00125828
0.00148482
0.00185311
0.00230128
0.0028467
0.00357636
0.00459446
0.00601266
0.00809904
0.0110864
0.0149736
0.0196521
0.0248944
0.0297333
0.0324321
0.0334896
0.0324264
0.0288281
0.0227423
0.0179732
0.0129082
0.00882886
0.00574253
0.00363796
0.00247103
0.00186632
0.00158397
0.00145676
0.0013545
0.00126051
0.00113531
0.000988036
0.000736727
0.00046397
0.000354234
0.00032293
0.000313378
0.000308676
0.000284233
0.000227152
0.000177496
0.000144732
0.00012352
0.000108405
9.61518e-05
8.56489e-05
7.76878e-05
7.23981e-05
6.90188e-05
6.58398e-05
6.25242e-05
5.96364e-05
5.73559e-05
5.49943e-05
5.23311e-05
4.87957e-05
4.41108e-05
4.03301e-05
3.80115e-05
3.66932e-05
3.59067e-05
3.51964e-05
3.40667e-05
3.1571e-05
2.5769e-05
1.83975e-05
1.22047e-05
7.68779e-06
4.63361e-06
2.70032e-06
1.543e-06
8.81357e-07
5.15974e-07
3.1813e-07
2.10792e-07
1.50052e-07
1.13999e-07
9.43607e-08
8.63671e-08
8.4544e-08
8.39439e-08
8.20283e-08
7.58733e-08
6.71708e-08
5.78987e-08
4.85258e-08
3.96521e-08
3.16697e-08
2.47784e-08
1.90285e-08
1.43664e-08
1.06776e-08
7.82043e-09
5.64871e-09
4.02592e-09
2.83222e-09
1.96703e-09
1.34877e-09
9.13001e-10
6.10022e-10
4.02213e-10
2.61621e-10
1.6782e-10
1.06118e-10
6.6117e-11
4.05694e-11
2.45022e-11
1.45571e-11
8.50216e-12
4.87845e-12
2.7481e-12
1.51874e-12
8.22894e-13
4.36873e-13
2.27134e-13
1.15603e-13
5.75969e-14
2.81099e-14
1.34664e-14
6.36526e-15
3.00386e-15
1.45145e-15
7.52304e-16
4.45267e-16
3.13793e-16
2.58887e-16
2.36512e-16
2.2761e-16
2.24146e-16
2.22836e-16
2.22352e-16
2.22152e-16
2.22118e-16
2.22853e-16
2.48044e-16
3.39134e-16
5.9399e-16
1.20479e-15
2.69668e-15
5.84075e-15
1.56139e-14
2.46378e-14
4.30141e-14
5.72404e-14
6.65813e-14
8.72955e-14
1.03397e-13
1.58417e-13
1.2288e-06
6.37746e-06
1.23728e-05
1.88787e-05
2.80848e-05
4.09291e-05
5.55169e-05
7.1987e-05
8.90551e-05
0.000105211
0.000120767
0.000132305
0.000140652
0.000148346
0.000157794
0.000169916
0.000183042
0.000196825
0.00021665
0.000238747
0.000261836
0.000290941
0.000321214
0.00035463
0.000390426
0.000436213
0.000496015
0.000582678
0.000701572
0.000837458
0.000982284
0.00119419
0.00152526
0.00213598
0.00302042
0.0039394
0.00496607
0.00647501
0.00859581
0.0115837
0.0162553
0.0237749
0.0357708
0.0484731
0.0608598
0.0691886
0.0732484
0.0745752
0.0706399
0.0640985
0.0524986
0.0394861
0.0278376
0.019745
0.0126649
0.00796091
0.0048294
0.0029443
0.00196501
0.00155003
0.00142653
0.0014014
0.00134368
0.00114203
0.000917755
0.000665033
0.00046356
0.000385122
0.00035147
0.000315553
0.000273884
0.000214809
0.000160673
0.000125824
0.000108292
9.91378e-05
9.16825e-05
8.36282e-05
7.55876e-05
6.94233e-05
6.56381e-05
6.31391e-05
6.06183e-05
5.7757e-05
5.51492e-05
5.35098e-05
5.20843e-05
5.0037e-05
4.71517e-05
4.2989e-05
3.92352e-05
3.68752e-05
3.56466e-05
3.50888e-05
3.45998e-05
3.38973e-05
3.25378e-05
2.91528e-05
2.20338e-05
1.48496e-05
9.39454e-06
5.63701e-06
3.2375e-06
1.79899e-06
9.81025e-07
5.35357e-07
2.99883e-07
1.77272e-07
1.12887e-07
7.74538e-08
5.68684e-08
4.57008e-08
4.07596e-08
3.92311e-08
3.90933e-08
3.89517e-08
3.78208e-08
3.41499e-08
2.95744e-08
2.49126e-08
2.03688e-08
1.62147e-08
1.26023e-08
9.58522e-09
7.14889e-09
5.23705e-09
3.77339e-09
2.67686e-09
1.87112e-09
1.2894e-09
8.76248e-10
5.87329e-10
3.88288e-10
2.53157e-10
1.62742e-10
1.03122e-10
6.43851e-11
3.95931e-11
2.39685e-11
1.42761e-11
8.36125e-12
4.81219e-12
2.7198e-12
1.50855e-12
8.206e-13