/*--------------------------------*- C++ -*----------------------------------*\
  =========                 |
  \\      /  F ield         | OpenFOAM: The Open Source CFD Toolbox
   \\    /   O peration     | Website:  https://openfoam.org
    \\  /    A nd           | Version:  7
     \\/     M anipulation  |
\*---------------------------------------------------------------------------*/
FoamFile
{
    version     2.0;
    format      ascii;
    class       volScalarField;
    location    "0.032";
    object      nut;
}
// * * * * * * * * * * * * * * * * * * * * * * * * * * * * * * * * * * * * * //

dimensions      [0 2 -1 0 0 0 0];

internalField   nonuniform List<scalar> 
12225
(
0
0
0
0
0
0
0
0
0
0
0
0
0
0
0
0
0
0
0
0
0
0
0
2.66515e-10
2.95157e-10
0
0
0
0
0
0
0
0
0
0
0
0
1.56133e-10
1.11163e-10
1.89103e-11
6.24147e-10
1.30695e-09
1.02174e-09
0
0
0
0
0
0
0
0
0
0
0
4.50392e-08
2.10736e-08
8.76531e-09
1.76252e-09
1.13798e-09
1.83451e-09
7.69752e-10
0
0
0
0
0
0
0
0
0
0
0
1.16658e-07
3.0112e-07
7.11824e-08
0
0
0
2.26775e-09
1.00789e-09
0
0
0
0
0
1.74432e-10
5.4437e-10
4.04862e-12
3.67142e-10
0
0
1.92737e-07
1.29661e-07
9.04931e-08
1.0993e-07
1.38847e-07
1.53493e-07
1.61922e-07
1.57269e-07
1.1679e-07
4.68696e-08
1.2344e-08
4.83502e-09
4.60232e-09
4.02839e-09
2.49796e-09
4.386e-10
0
5.96865e-07
2.96162e-07
1.63716e-07
8.97316e-08
4.65941e-08
1.31003e-07
1.74291e-07
2.05368e-07
2.23713e-07
2.11079e-07
1.47555e-07
6.7229e-08
2.21128e-08
9.71311e-09
1.13603e-08
1.1671e-08
8.49659e-09
1.66043e-09
7.6022e-07
7.76257e-07
2.53656e-07
7.90287e-08
4.44107e-09
1.01934e-07
2.76485e-07
3.81816e-07
3.69135e-07
2.35763e-07
1.00654e-07
2.46119e-08
6.00261e-10
3.20009e-09
1.04736e-08
1.13652e-08
6.2807e-09
0
6.11816e-07
5.24984e-07
4.14365e-07
1.3325e-07
8.14187e-08
2.1094e-07
4.67318e-07
5.75699e-07
3.67109e-07
1.97785e-07
9.97784e-08
4.25979e-08
1.44538e-08
9.66885e-09
1.37327e-08
1.10736e-08
1.83148e-09
0
9.48467e-07
8.84176e-07
6.69749e-07
6.1621e-07
6.32074e-07
6.55508e-07
3.57983e-07
2.31064e-07
1.60501e-07
1.20147e-07
1.00175e-07
8.72101e-08
7.05009e-08
5.26281e-08
3.71082e-08
2.15363e-08
5.41329e-09
0
8.21809e-07
3.29009e-07
1.88584e-07
2.25149e-07
4.07982e-07
3.5539e-07
1.86958e-07
1.17298e-07
9.95899e-08
8.62438e-08
1.20742e-07
1.87973e-07
2.19147e-07
2.18136e-07
2.02927e-07
1.60828e-07
8.91062e-08
2.33575e-08
2.82069e-07
7.97737e-09
0
1.13769e-07
2.5571e-07
2.81743e-07
2.22924e-07
1.66364e-07
1.30754e-07
8.90399e-08
1.99578e-07
2.75623e-07
2.85625e-07
2.85588e-07
2.96983e-07
2.61978e-07
1.50307e-07
3.94335e-08
4.97955e-07
2.4738e-07
1.14621e-07
3.49265e-07
5.61543e-07
6.51843e-07
5.80154e-07
4.20608e-07
1.98106e-07
1.12125e-07
1.60712e-07
1.66886e-07
1.22935e-07
9.80712e-08
1.4574e-07
2.03144e-07
1.49687e-07
4.34892e-08
0
0
5.24641e-08
4.72673e-07
7.84933e-07
6.09811e-07
8.91164e-08
0
0
0
0
1.64103e-07
1.33827e-07
6.54093e-08
1.08436e-07
1.84574e-07
1.65949e-07
9.44447e-08
0
0
8.54116e-07
1.00823e-06
8.86223e-07
3.77953e-07
0
0
2.67665e-07
0
0
0
6.50628e-08
1.16635e-07
1.23125e-07
1.19379e-07
1.2902e-07
1.63871e-07
4.77937e-07
1.10502e-06
1.21111e-06
8.25644e-07
6.7161e-07
7.21546e-07
4.16098e-07
0
6.03578e-08
2.98243e-07
1.44954e-07
8.23717e-08
8.74645e-08
9.63751e-08
9.50343e-08
8.73775e-08
8.30482e-08
1.20951e-07
0
1.04323e-08
3.43147e-07
1.35222e-07
0
0
0
0
0
0
6.95636e-08
9.16058e-08
9.78972e-08
1.04963e-07
1.33928e-07
1.89323e-07
2.10967e-07
1.95989e-07
0
3.09023e-08
1.74048e-07
0
0
0
0
0
0
0
0
0
0
3.06823e-08
1.62732e-07
2.10532e-07
1.99381e-07
1.48831e-07
3.71132e-07
5.56824e-07
5.0599e-07
0
0
0
0
0
0
0
0
0
0
0
5.18845e-08
1.48014e-07
1.58419e-07
1.24002e-07
5.77669e-07
5.15296e-07
6.09153e-07
3.52854e-07
8.27815e-08
0
0
0
0
0
0
0
0
0
0
1.32829e-08
4.83636e-08
5.445e-08
2.45949e-07
3.70143e-08
2.78546e-07
7.54806e-07
9.97254e-07
4.4758e-07
0
0
0
0
0
6.14132e-08
5.7108e-08
8.04922e-09
0
0
0
0
6.72364e-08
0
0
2.194e-07
6.88081e-08
0
0
0
0
1.44264e-07
2.18758e-07
2.37717e-07
2.13759e-07
1.57304e-07
1.05145e-07
7.5648e-08
4.94724e-08
1.88534e-08
2.14922e-07
3.19254e-08
0
0
0
0
0
0
0
3.33628e-08
1.43147e-07
2.35573e-07
3.11621e-07
3.62679e-07
3.48311e-07
2.49377e-07
1.1922e-07
1.27879e-08
0
0
0
0
9.2398e-09
0
0
0
0
0
4.82986e-08
1.87681e-07
3.25234e-07
3.4725e-07
2.28678e-07
1.00144e-07
1.78004e-08
0
1.5424e-07
0
0
0
4.09116e-08
5.7759e-08
0
0
0
0
9.03186e-08
2.33651e-07
2.27366e-07
1.28309e-07
2.18773e-08
0
0
0
5.72689e-08
0
0
0
0
0
0
0
0
0
0
0
3.9106e-08
6.14465e-08
3.57526e-08
0
0
0
0
0
0
0
0
0
0
0
0
0
0
0
0
0
0
0
0
0
7.8581e-09
0
0
0
0
0
0
0
0
0
0
0
0
0
0
0
0
0
9.19392e-09
0
0
0
0
0
0
0
0
0
0
0
0
0
0
0
0
0
7.29278e-08
0
0
0
0
0
0
0
0
0
0
0
0
0
0
0
0
0
9.94886e-09
0
0
0
0
0
0
0
0
0
0
0
0
0
0
0
4.79699e-07
1.47359e-06
3.24624e-06
5.98996e-06
9.80473e-06
1.42372e-05
1.73006e-05
1.66197e-05
1.24711e-05
7.29529e-06
3.21821e-06
1.18209e-06
3.70159e-07
7.83346e-08
0
0
0
1.18617e-08
3.64941e-08
5.26393e-08
6.10111e-08
6.15505e-08
5.64346e-08
4.91167e-08
3.97613e-08
2.99002e-08
2.24309e-08
1.5168e-08
9.48708e-09
5.43357e-09
2.20129e-09
0
0
0
0
0
0
0
0
0
0
0
0
0
0
0
0
0
0
0
0
0
0
0
0
0
0
0
0
0
0
0
0
0
0
0
0
0
0
0
0
0
0
0
0
0
0
0
0
0
0
0
0
0
0
0
0
0
0
0
0
0
0
0
0
0
0
0
0
0
0
0
0
0
0
0
0
0
0
0
0
0
0
0
0
0
0
0
0
0
0
0
0
0
0
0
0
0
0
0
0
0
0
0
0
0
0
0
0
0
0
0
0
0
0
0
0
0
0
0
0
0
0
0
0
0
0
0
0
0
0
0
0
0
6.41139e-09
2.69452e-08
0
0
0
0
0
0
0
0
0
0
0
0
2.48138e-07
9.05611e-07
1.54564e-06
2.02986e-06
2.27143e-06
2.28423e-06
2.14403e-06
1.9361e-06
1.73339e-06
1.49256e-06
1.2081e-06
8.98079e-07
6.23558e-07
4.15846e-07
2.57099e-07
1.33715e-07
5.02567e-08
1.10917e-08
5.47927e-09
1.51685e-08
2.66399e-08
3.50187e-08
3.94063e-08
3.96827e-08
3.86595e-08
3.59579e-08
3.27909e-08
2.91084e-08
2.49381e-08
2.04203e-08
1.54697e-08
1.01643e-08
4.54909e-09
0
0
0
0
0
0
0
0
0
0
0
0
0
0
0
0
0
0
0
0
0
0
0
0
0
0
0
0
0
0
0
9.53567e-09
5.05335e-09
0
0
0
0
0
0
0
0
0
0
0
0
0
0
0
0
0
0
0
0
0
0
0
0
0
0
0
0
0
0
0
0
0
0
0
0
0
0
0
0
0
0
0
0
0
0
0
0
0
0
0
0
0
0
0
0
0
0
0
0
0
0
0
0
0
0
0
0
0
0
0
0
0
0
0
0
0
0
0
0
0
0
0
0
0
0
0
0
0
0
0
0
0
0
0
0
0
0
0
0
0
0
0
0
0
7.7447e-09
3.95915e-08
7.57309e-08
1.17691e-07
1.6805e-07
2.28871e-07
2.97472e-07
3.66548e-07
4.32387e-07
4.97517e-07
5.60843e-07
6.16773e-07
6.54615e-07
6.70561e-07
6.59243e-07
6.22957e-07
5.63489e-07
4.85133e-07
4.19269e-07
3.56912e-07
2.91466e-07
2.31084e-07
1.8387e-07
1.39053e-07
9.58501e-08
5.82158e-08
3.2648e-08
2.0067e-08
1.82145e-08
2.37697e-08
3.32303e-08
4.3301e-08
5.16908e-08
5.71843e-08
5.94057e-08
5.82016e-08
5.3882e-08
4.67553e-08
3.78822e-08
2.80678e-08
1.80255e-08
8.29365e-09
0
0
0
0
0
0
0
0
0
0
0
0
0
0
0
0
0
0
0
0
0
0
0
0
0
0
0
5.06731e-09
1.80897e-08
2.71747e-08
3.28243e-08
3.28662e-08
2.5381e-08
1.30946e-08
0
0
0
0
0
0
0
0
0
0
0
0
0
0
0
0
0
0
0
0
0
0
0
0
0
0
0
0
0
0
0
0
0
0
0
0
0
0
0
0
0
0
0
0
0
0
0
0
0
0
0
0
0
0
0
0
0
0
0
0
0
0
0
0
0
0
0
0
0
0
0
0
0
0
0
0
0
0
0
0
0
0
0
0
0
0
0
0
0
0
0
0
0
0
0
0
0
0
0
0
0
0
0
0
0
0
5.74235e-08
1.19311e-07
1.79741e-07
2.38461e-07
2.97687e-07
3.56085e-07
4.09839e-07
4.54804e-07
4.8959e-07
5.10437e-07
5.15652e-07
5.00565e-07
4.6878e-07
4.22709e-07
3.68585e-07
3.15212e-07
2.72267e-07
2.30185e-07
1.88799e-07
1.40233e-07
8.18287e-08
3.49827e-09
0
0
0
0
0
0
0
0
0
0
0
0
0
0
9.98293e-08
2.59738e-07
4.1837e-07
3.09848e-07
0
0
0
0
0
0
0
0
3.40696e-08
7.68111e-08
1.16779e-07
1.54498e-07
1.88448e-07
2.14746e-07
2.30856e-07
2.35666e-07
2.30541e-07
2.2011e-07
2.07359e-07
1.94795e-07
1.81562e-07
1.67158e-07
1.51659e-07
1.35224e-07
1.19138e-07
1.04048e-07
9.01458e-08
7.72038e-08
6.55489e-08
5.6336e-08
4.94197e-08
4.20462e-08
3.39311e-08
2.65487e-08
2.05818e-08
1.57515e-08
1.17416e-08
8.3233e-09
5.29382e-09
2.47177e-09
0
0
0
0
0
0
0
0
0
0
0
0
0
0
0
0
0
0
0
0
0
0
0
0
0
0
0
0
0
0
0
0
0
0
0
0
0
0
0
0
0
0
0
0
0
0
0
0
0
0
0
0
0
0
0
0
0
0
0
0
0
0
0
4.10825e-16
9.14167e-16
1.10895e-15
1.15e-15
1.11408e-15
1.05513e-15
9.85262e-16
9.31306e-16
8.76041e-16
8.51033e-16
8.12542e-16
8.20443e-16
7.87375e-16
8.34752e-16
7.91539e-16
8.90187e-16
8.01591e-16
9.77988e-16
7.82199e-16
1.07935e-15
7.56278e-16
1.08574e-15
1.02909e-15
4.39552e-16
3.4583e-15
0
3.53327e-14
0
4.00242e-13
0
0
0
0
0
0
0
0
0
0
0
0
0
8.16948e-09
5.54989e-08
9.89405e-08
1.35607e-07
1.64207e-07
1.81781e-07
1.88786e-07
1.84662e-07
1.68034e-07
1.37817e-07
9.30162e-08
2.91982e-08
0
0
0
0
0
0
0
0
0
0
0
0
0
0
4.10139e-09
1.09932e-07
2.31476e-07
3.8052e-07
5.79297e-07
8.69388e-07
1.3138e-06
1.96742e-06
1.49375e-06
0
0
0
0
0
0
0
0
0
0
0
0
0
0
0
5.06971e-08
1.39344e-07
1.95286e-07
2.21515e-07
2.25628e-07
2.13698e-07
1.92841e-07
1.70844e-07
1.49171e-07
1.29358e-07
1.12179e-07
9.73019e-08
8.47889e-08
7.5243e-08
6.81369e-08
6.05884e-08
5.06424e-08
4.01058e-08
3.04499e-08
2.21055e-08
1.51207e-08
9.53197e-09
5.35379e-09
2.55299e-09
9.31696e-10
1.11003e-10
0
0
0
0
0
0
0
0
0
0
0
0
0
0
0
0
0
0
0
0
0
0
0
0
0
0
0
0
0
0
0
0
0
0
0
0
0
0
0
0
0
0
0
0
0
9.67462e-13
6.26387e-12
7.98118e-12
7.87269e-12
6.92738e-12
5.70385e-12
4.49468e-12
3.43221e-12
2.56228e-12
1.88371e-12
1.37207e-12
9.9482e-13
7.20203e-13
5.21539e-13
3.78253e-13
2.75127e-13
2.01083e-13
1.47982e-13
1.09871e-13
8.23631e-14
6.23494e-14
4.75918e-14
3.66023e-14
2.82867e-14
2.19661e-14
1.70703e-14
1.32907e-14
1.02855e-14
7.91601e-15
5.94665e-15
4.28427e-15
2.85905e-15
1.41264e-15
3.07311e-16
0
0
0
0
0
0
0
1.00724e-14
0
5.39442e-13
0
2.79629e-12
0
0
0
0
0
0
0
0
0
0
0
0
0
0
0
0
0
0
0
0
0
0
0
0
0
0
0
0
0
0
0
0
0
0
0
1.68832e-08
1.23183e-07
2.11628e-07
2.82143e-07
3.39518e-07
3.97386e-07
4.75132e-07
5.96848e-07
7.91645e-07
1.08552e-06
1.46657e-06
1.66285e-06
4.59181e-07
0
0
0
0
0
0
0
0
0
0
0
0
0
0
0
0
0
0
1.00284e-07
2.05294e-07
2.47301e-07
2.42412e-07
2.0612e-07
1.69168e-07
1.3952e-07
1.16709e-07
9.96842e-08
8.75709e-08
7.99315e-08
7.44481e-08
6.71224e-08
5.79213e-08
4.87528e-08
3.97834e-08
3.08302e-08
2.20706e-08
1.38886e-08
6.58936e-09
4.77861e-10
0
0
0
0
0
0
0
0
0
0
0
0
0
0
0
0
0
0
0
0
0
0
0
0
0
0
0
0
0
0
0
0
0
0
0
0
0
0
0
0
0
0
0
0
0
0
0
0
0
0
0
0
0
0
0
0
0
0
0
0
0
0
0
0
0
0
0
0
1.24469e-14
1.63885e-14
1.54169e-14
1.2067e-14
7.78616e-15
3.05023e-15
0
0
0
0
0
0
0
0
1.82821e-15
1.11914e-14
1.03099e-13
2.32607e-13
1.38134e-12
2.63707e-12
1.10253e-11
9.34649e-12
4.42482e-11
0
2.38656e-11
0
0
0
0
0
0
0
0
0
0
0
0
0
0
0
0
0
0
0
0
0
0
0
0
0
0
0
0
0
0
0
0
0
8.44243e-08
1.83428e-07
2.34382e-07
2.44818e-07
2.30187e-07
2.06949e-07
1.87368e-07
1.83523e-07
2.04293e-07
2.52814e-07
3.32765e-07
4.3248e-07
5.05894e-07
4.84022e-07
2.78315e-07
0
0
0
0
0
0
0
0
0
0
0
0
0
0
0
0
0
0
0
0
1.76291e-07
2.51165e-07
2.48083e-07
1.99244e-07
1.54958e-07
1.22402e-07
1.01212e-07
8.80158e-08
7.92472e-08
7.16864e-08
6.36832e-08
5.62699e-08
4.99246e-08
4.38977e-08
3.74443e-08
3.01698e-08
2.20526e-08
1.36237e-08
5.44177e-09
0
0
0
0
0
0
0
0
0
0
0
0
0
0
0
0
0
0
0
0
0
0
0
0
0
0
0
0
0
0
0
0
0
0
0
0
0
0
0
0
0
0
0
0
0
0
0
0
0
0
0
0
0
0
0
0
0
0
0
0
0
0
0
0
0
0
0
0
0
0
0
0
0
0
0
0
0
0
9.86445e-14
2.43454e-13
4.60073e-13
7.25983e-13
1.30116e-12
2.01247e-12
3.62046e-12
5.13139e-12
8.94506e-12
1.05172e-11
1.92349e-11
1.31556e-11
2.39667e-11
0
0
0
0
0
0
0
0
0
0
0
0
0
0
0
0
0
0
0
0
0
0
0
0
0
0
0
0
0
0
0
0
0
1.75163e-08
1.25909e-07
1.83061e-07
1.93329e-07
1.6746e-07
1.06017e-07
5.47425e-09
0
0
0
0
0
0
0
1.30807e-07
2.94939e-07
2.98381e-07
2.38783e-07
3.22828e-07
5.22692e-07
7.36734e-07
8.96765e-07
8.95151e-07
8.35949e-07
7.19999e-07
4.95079e-07
2.05449e-07
0
0
0
0
0
0
0
0
0
0
0
1.45911e-07
2.28912e-07
2.11271e-07
1.64326e-07
1.26876e-07
1.03741e-07
8.95945e-08
7.81136e-08
6.74786e-08
5.87109e-08
5.17726e-08
4.61511e-08
4.13664e-08
3.71303e-08
3.30378e-08
2.8401e-08
2.23865e-08
1.47686e-08
6.3579e-09
0
0
0
0
0
0
0
0
0
0
0
0
0
0
0
0
0
0
0
0
0
0
0
0
0
0
0
0
0
0
0
0
0
0
0
0
0
0
0
0
0
0
0
0
0
0
0
0
0
0
0
0
0
0
0
0
0
0
0
0
0
0
0
0
0
0
0
0
0
0
0
0
0
0
0
0
0
1.42554e-14
1.42284e-13
3.04142e-13
4.99126e-13
8.89828e-13
1.38216e-12
2.40576e-12
3.37738e-12
5.50394e-12
6.23803e-12
1.02727e-11
5.7992e-12
5.9246e-12
0
0
0
0
0
0
0
0
0
0
0
0
0
0
0
0
0
0
0
0
0
0
0
0
0
0
0
0
0
0
0
0
2.30456e-08
1.17095e-07
1.61311e-07
1.54549e-07
9.25758e-08
0
0
0
0
0
0
0
0
1.79756e-07
8.44803e-07
1.56651e-06
1.73955e-06
3.96229e-07
0
0
0
0
2.67911e-08
3.46629e-07
4.49944e-07
4.72918e-07
4.63071e-07
4.76687e-07
4.5808e-07
3.32055e-07
4.14146e-08
0
0
0
0
0
0
0
0
0
1.34095e-07
1.8306e-07
1.55273e-07
1.22805e-07
1.00749e-07
8.54173e-08
7.23985e-08
6.10989e-08
5.25058e-08
4.64274e-08
4.18402e-08
3.78034e-08
3.37775e-08
2.98582e-08
2.64385e-08
2.35036e-08
2.0179e-08
1.50527e-08
7.65702e-09
0
0
0
0
0
0
0
0
0
0
0
0
0
0
0
0
0
0
0
0
0
0
0
0
0
0
0
0
0
0
0
0
0
0
0
0
0
0
0
0
0
0
0
0
0
0
0
0
0
0
0
0
0
0
0
0
0
0
0
0
0
0
0
0
0
0
0
0
0
0
0
0
0
0
0
0
0
5.05635e-14
1.61116e-13
2.8046e-13
5.02293e-13
7.76063e-13
1.3054e-12
1.7748e-12
2.76582e-12
2.74865e-12
3.30412e-12
8.93635e-13
0
0
0
0
0
0
0
0
0
0
0
0
0
0
0
0
0
0
0
0
0
0
0
0
0
0
0
0
0
0
0
0
0
7.49275e-08
1.14348e-07
9.85621e-08
2.44761e-08
0
0
0
0
0
0
0
0
7.62898e-07
2.21413e-06
4.58825e-06
8.01212e-06
1.03816e-05
3.87393e-07
0
0
0
0
0
4.60344e-07
6.99158e-07
5.83041e-07
3.38862e-07
1.41692e-07
6.32257e-08
1.05846e-07
1.95646e-07
2.01487e-07
1.33812e-08
0
0
0
0
0
0
0
0
1.24352e-07
1.33052e-07
1.10652e-07
9.05682e-08
7.55193e-08
6.34876e-08
5.35247e-08
4.53626e-08
3.92694e-08
3.53848e-08
3.31584e-08
3.11486e-08
2.83258e-08
2.47813e-08
2.13168e-08
1.85975e-08
1.6619e-08
1.40752e-08
9.06552e-09
1.07827e-09
0
0
0
0
0
0
0
0
0
0
0
0
0
0
0
0
0
0
0
0
0
0
0
0
0
0
0
0
0
0
0
0
0
0
0
0
0
0
0
0
0
0
0
0
0
0
0
0
0
0
0
0
0
0
0
0
0
0
0
0
0
0
0
0
0
0
0
0
0
0
0
0
0
0
0
0
5.32206e-14
1.19043e-13
2.2148e-13
3.36141e-13
5.39003e-13
6.7606e-13
9.80378e-13
6.70695e-13
3.4091e-13
0
0
0
0
0
0
0
0
0
0
0
0
0
0
0
0
0
0
0
0
0
0
0
0
0
0
0
0
0
0
0
0
0
8.71823e-09
4.93066e-08
4.71369e-08
2.91344e-09
0
0
0
0
0
0
0
1.41885e-07
9.89848e-07
2.61643e-06
5.66105e-06
1.0538e-05
1.75542e-05
2.12162e-05
0
0
0
0
0
0
0
8.90127e-07
1.09227e-06
8.46065e-07
4.74126e-07
1.73888e-07
3.85997e-09
0
5.00357e-08
1.81156e-07
2.10549e-07
0
0
0
0
0
0
0
4.5455e-08
1.03206e-07
9.10683e-08
7.11978e-08
5.84329e-08
5.08956e-08
4.51751e-08
3.94532e-08
3.36149e-08
2.88018e-08
2.61277e-08
2.55153e-08
2.53407e-08
2.3873e-08
2.0933e-08
1.7602e-08
1.4797e-08
1.29869e-08
1.17744e-08
9.22386e-09
3.23262e-09
0
0
0
0
0
0
0
0
0
0
0
0
0
0
0
0
0
0
0
0
0
0
0
0
0
0
0
0
0
0
0
0
0
0
0
0
0
0
0
0
0
0
0
0
0
0
0
0
0
0
0
0
0
0
0
0
0
0
0
0
0
0
0
0
0
0
0
0
0
0
0
0
0
0
0
0
1.08682e-14
4.85303e-14
7.27359e-14
1.12488e-13
9.3258e-14
5.60638e-14
0
0
0
0
0
0
0
7.05801e-11
0
0
0
0
0
0
0
0
0
0
0
0
0
0
0
0
0
0
0
0
0
0
0
0
0
0
0
0
0
0
0
0
0
0
0
0
0
0
3.90204e-07
1.27542e-06
3.00391e-06
5.33549e-06
7.58673e-06
7.26545e-06
1.21286e-07
0
0
0
0
0
0
0
0
4.17537e-07
6.48153e-07
5.60051e-07
3.96048e-07
2.35062e-07
9.2416e-08
2.55255e-08
1.13188e-07
3.04778e-07
3.69907e-07
8.49739e-08
0
0
2.50652e-08
1.81278e-07
0
0
8.06891e-08
8.24025e-08
6.12146e-08
4.64401e-08
3.94085e-08
3.64229e-08
3.41918e-08
3.08919e-08
2.66616e-08
2.27806e-08
2.09366e-08
2.12696e-08
2.18235e-08
2.06909e-08
1.7969e-08
1.4977e-08
1.24367e-08
1.05287e-08
9.53346e-09
8.5365e-09
4.9425e-09
0
0
0
0
0
0
0
0
0
0
0
0
0
0
0
0
0
0
0
0
0
0
0
0
0
0
0
0
0
0
0
0
0
0
0
0
0
0
0
0
0
0
0
0
0
0
0
0
0
0
0
0
0
0
0
0
0
0
0
0
0
0
0
0
0
0
0
0
0
0
0
0
0
0
0
0
0
0
0
0
0
0
0
0
0
0
0
0
8.95617e-09
6.70122e-09
4.77078e-09
0
0
0
0
0
0
0
0
0
0
0
0
0
0
0
0
0
3.35384e-09
7.59734e-09
1.23288e-08
1.68454e-08
1.67866e-08
4.8202e-09
0
0
0
0
0
0
0
0
0
0
0
0
0
3.35691e-09
2.29575e-07
4.8409e-07
4.62716e-07
0
0
0
0
0
0
0
0
0
0
0
0
1.38966e-07
2.1145e-07
2.12413e-07
2.17947e-07
1.63835e-07
7.06342e-08
7.29493e-08
2.45433e-07
4.11987e-07
3.45303e-07
0
0
0
2.41732e-07
4.2836e-08
0
6.1531e-08
7.94143e-08
5.97385e-08
4.34797e-08
3.52783e-08
3.22658e-08
3.11357e-08
2.96061e-08
2.67708e-08
2.30753e-08
1.99597e-08
1.90434e-08
2.01138e-08
2.0657e-08
1.8895e-08
1.57865e-08
1.305e-08
1.09385e-08
8.92513e-09
7.46143e-09
7.00436e-09
5.63021e-09
0
0
0
0
0
0
0
0
0
0
0
0
0
0
0
0
0
0
0
0
0
0
0
0
0
0
0
0
0
0
0
0
0
0
0
0
0
0
0
0
0
0
0
0
0
0
0
0
0
0
0
0
0
0
0
0
0
0
0
0
0
0
0
0
0
0
0
0
0
0
0
0
0
0
0
0
0
0
0
0
0
0
0
0
0
0
0
1.36055e-07
5.1077e-08
1.76279e-08
9.30433e-09
0
0
0
0
0
0
3.41424e-09
1.309e-08
2.42073e-08
3.44744e-08
4.21798e-08
4.71122e-08
5.19466e-08
5.81389e-08
6.64668e-08
7.58173e-08
8.18964e-08
8.82901e-08
9.56419e-08
1.03872e-07
1.06966e-07
9.25636e-08
4.91575e-08
0
0
0
0
0
3.11214e-09
7.10329e-08
7.96837e-08
4.11774e-08
0
0
0
0
0
0
0
0
0
0
0
0
0
0
0
0
0
0
0
2.85345e-09
0
0
2.38718e-08
8.87454e-08
4.94129e-08
1.04235e-08
1.19021e-07
3.16699e-07
3.79813e-07
1.40718e-07
0
0
2.51009e-07
3.10453e-07
0
5.46505e-08
7.10139e-08
5.35943e-08
3.89754e-08
3.19161e-08
3.01675e-08
3.03921e-08
2.9712e-08
2.72866e-08
2.3962e-08
2.07001e-08
1.8565e-08
1.86036e-08
2.00669e-08
2.02481e-08
1.78384e-08
1.45308e-08
1.20906e-08
1.02123e-08
7.79837e-09
5.29738e-09
4.48355e-09
5.04842e-09
2.59799e-09
0
0
0
0
0
0
0
0
0
0
0
0
0
0
0
0
0
0
0
0
0
0
0
0
0
0
0
0
0
0
0
0
0
0
0
0
0
0
0
0
0
0
0
0
0
0
0
0
0
0
0
0
0
0
0
0
0
0
0
0
0
0
0
0
0
0
0
0
0
0
0
0
0
0
0
0
0
0
0
0
0
0
0
0
0
7.03542e-07
1.4392e-07
4.40183e-08
2.25888e-08
1.37212e-08
5.73723e-09
9.30205e-09
1.51151e-08
2.3888e-08
3.54547e-08
4.83059e-08
6.6216e-08
8.39175e-08
1.00039e-07
1.12493e-07
1.20779e-07
1.26196e-07
1.33647e-07
1.44292e-07
1.58733e-07
1.74513e-07
1.84632e-07
1.92481e-07
2.03414e-07
2.12565e-07
2.06674e-07
1.66359e-07
7.82526e-08
0
0
0
0
0
2.09717e-07
3.94673e-07
4.6242e-07
3.90554e-07
1.74869e-07
0
0
0
0
0
0
0
0
0
0
0
0
5.42319e-07
9.29273e-07
6.317e-07
2.83698e-07
9.5951e-08
0
0
0
0
0
1.68797e-09
0
0
1.82103e-07
3.31092e-07
3.54012e-07
2.65301e-07
1.92357e-07
2.0188e-07
2.27993e-07
4.99758e-08
8.11774e-08
6.18573e-08
3.814e-08
2.51621e-08
2.06353e-08
2.14773e-08
2.50706e-08
2.77247e-08
2.6943e-08
2.34801e-08
1.99974e-08
1.78948e-08
1.7156e-08
1.78936e-08
1.92743e-08
1.90545e-08
1.65359e-08
1.37769e-08
1.20224e-08
1.01411e-08
6.61319e-09
2.30309e-09
6.0293e-10
3.24349e-09
5.598e-09
1.81359e-10
0
0
0
0
0
0
0
0
0
0
0
0
0
0
0
0
0
0
0
0
0
0
0
0
0
0
0
0
0
0
0
0
0
0
0
0
0
0
0
0
0
0
0
0
0
0
0
0
0
0
0
0
0
0
0
0
0
0
0
0
0
0
0
0
0
0
0
0
0
0
0
0
0
0
0
0
0
0
0
0
0
0
0
1.03719e-06
2.99743e-07
1.62229e-07
9.38712e-08
4.40647e-08
7.5297e-09
1.77118e-09
1.58934e-08
3.11997e-08
5.2096e-08
7.96087e-08
1.03861e-07
1.34127e-07
1.60606e-07
1.79613e-07
1.92589e-07
2.00924e-07
2.07587e-07
2.19344e-07
2.35276e-07
2.56016e-07
2.79871e-07
2.99116e-07
3.10327e-07
3.15884e-07
3.13683e-07
2.85859e-07
2.12188e-07
8.27369e-08
0
0
0
0
1.26975e-07
4.74931e-07
7.9505e-07
9.50076e-07
8.6217e-07
4.61738e-07
0
0
0
0
0
0
0
0
0
4.21622e-06
1.09518e-05
8.85983e-06
5.34749e-06
2.5166e-06
1.00697e-06
3.14943e-07
0
0
0
0
0
0
0
0
0
2.42709e-07
5.77619e-07
1.3735e-06
9.84608e-07
0
0
1.61548e-07
1.39315e-07
7.18458e-08
3.17436e-08
1.46938e-08
9.01842e-09
8.91604e-09
1.27966e-08
1.87191e-08
2.26159e-08
2.17943e-08
1.81896e-08
1.58253e-08
1.57101e-08
1.6426e-08
1.74272e-08
1.79462e-08
1.68959e-08
1.48013e-08
1.34791e-08
1.26177e-08
9.86028e-09
4.12115e-09
0
0
1.53254e-09
7.65937e-09
4.72523e-09
0
0
0
0
0
0
0
0
0
0
0
0
0
0
0
0
0
0
0
0
0
0
0
0
0
0
0
0
0
0
0
0
0
0
0
0
0
0
0
0
0
0
0
0
0
0
0
0
0
0
0
0
0
0
0
0
0
0
0
0
0
0
0
0
0
0
0
0
0
0
0
0
0
0
0
0
0
0
0
0
0
0
2.54423e-06
1.22452e-06
7.80622e-07
3.88903e-07
1.67825e-07
5.13376e-08
0
9.39442e-09
4.12228e-08
5.8069e-08
7.82201e-08
1.11022e-07
1.42751e-07
1.76586e-07
2.01878e-07
2.18953e-07
2.30272e-07
2.38333e-07
2.45893e-07
2.59152e-07
2.79237e-07
3.02929e-07
3.30944e-07
3.53803e-07
3.73335e-07
3.71212e-07
3.46597e-07
2.98567e-07
2.09594e-07
7.9158e-08
0
0
0
0
2.09357e-07
5.64727e-07
8.94282e-07
1.14707e-06
1.14519e-06
7.98819e-07
8.25492e-08
0
0
0
0
0
0
0
2.11622e-05
1.56035e-05
8.51242e-06
4.10702e-06
1.73811e-06
6.09855e-07
8.9069e-08
0
0
0
0
0
0
0
0
0
1.70897e-07
6.63217e-07
9.44246e-07
5.22091e-07
0
0
3.06864e-07
2.0438e-07
9.4544e-08
3.99992e-08
1.86801e-08
1.0765e-08
7.47928e-09
7.14598e-09
9.62087e-09
1.37482e-08
1.62162e-08
1.49989e-08
1.27501e-08
1.26952e-08
1.39832e-08
1.49306e-08
1.51199e-08
1.41163e-08
1.24094e-08
1.13541e-08
1.12769e-08
1.00388e-08
5.20017e-09
0
0
0
2.83114e-10
6.93617e-09
4.57297e-09
0
0
0
0
0
0
0
0
0
0
0
0
0
0
0
0
0
0
0
0
0
0
0
0
0
0
0
0
0
0
0
0
0
0
0
0
0
0
0
0
0
0
0
0
0
0
0
0
0
0
0
0
0
0
0
0
0
0
0
0
0
0
0
0
0
0
0
0
0
0
0
0
0
0
0
0
0
0
0
0
0
2.1536e-06
2.96775e-06
1.57684e-06
7.94129e-07
3.89178e-07
1.35372e-07
2.54371e-08
0
2.4008e-08
5.35645e-08
6.39853e-08
8.35018e-08
1.15352e-07
1.51334e-07
1.81829e-07
2.04458e-07
2.19076e-07
2.29231e-07
2.35159e-07
2.44071e-07
2.5572e-07
2.75592e-07
3.01109e-07
3.23851e-07
3.49141e-07
3.68616e-07
3.664e-07
3.37664e-07
2.78712e-07
1.95679e-07
9.12456e-08
0
0
0
1.51961e-08
1.88297e-07
4.46516e-07
7.02402e-07
9.53409e-07
1.0677e-06
8.7825e-07
4.86785e-07
0
0
0
0
0
6.02449e-07
4.51669e-06
4.45127e-06
2.81033e-06
1.34035e-06
4.67803e-07
3.94351e-08
0
0
0
0
7.36592e-09
2.84819e-08
0
0
0
0
1.15835e-07
2.76415e-07
3.12894e-07
1.92116e-07
3.23049e-08
1.12861e-07
3.87755e-07
2.44569e-07
1.20634e-07
5.7148e-08
3.2077e-08
2.27087e-08
1.80664e-08
1.58563e-08
1.52918e-08
1.53089e-08
1.56254e-08
1.52169e-08
1.36089e-08
1.29642e-08
1.39605e-08
1.47218e-08
1.47233e-08
1.35921e-08
1.15459e-08
9.67474e-09
8.56866e-09
7.36873e-09
4.37192e-09
0
0
0
0
1.12543e-09
6.27462e-09
3.40671e-09
0
0
0
0
0
0
0
0
0
0
0
0
0
0
0
0
0
0
0
0
0
0
0
0
0
0
0
0
0
0
0
0
0
0
0
0
0
0
0
0
0
0
0
0
0
0
0
0
0
0
0
0
0
0
0
0
0
0
0
0
0
0
0
0
0
0
0
0
0
0
0
0
0
0
0
0
0
0
0
0
7.14211e-07
2.33932e-06
2.19505e-06
1.1606e-06
8.29466e-07
6.09194e-07
3.07931e-07
1.82998e-07
1.25062e-07
0
3.76406e-08
5.95898e-08
7.63041e-08
1.00828e-07
1.30568e-07
1.57026e-07
1.76635e-07
1.89224e-07
1.976e-07
2.02038e-07
2.10454e-07
2.17311e-07
2.3841e-07
2.57601e-07
2.79704e-07
3.01128e-07
3.12804e-07
3.12789e-07
2.85934e-07
2.36001e-07
1.65801e-07
8.89122e-08
1.63283e-08
0
0
5.78674e-09
9.96774e-08
2.33979e-07
3.91288e-07
5.91882e-07
6.51728e-07
6.66511e-07
5.07886e-07
2.70431e-07
0
0
0
2.13978e-07
6.19617e-07
6.81093e-07
4.34763e-07
1.3093e-07
0
0
0
0
0
6.91951e-08
1.4481e-07
1.19261e-07
1.2257e-08
0
0
3.28451e-08
4.91061e-08
5.93998e-08
6.02184e-08
3.3949e-08
1.36892e-08
2.1173e-07
4.55191e-07
2.645e-07
1.45229e-07
7.83725e-08
4.78695e-08
3.52105e-08
2.93226e-08
2.70479e-08
2.67227e-08
2.58345e-08
2.36131e-08
2.09072e-08
1.8284e-08
1.68423e-08
1.70759e-08
1.72424e-08
1.67656e-08
1.56797e-08
1.38168e-08
1.16913e-08
9.32657e-09
5.57355e-09
1.89298e-09
0
0
0
0
0
4.62328e-09
7.15377e-09
3.16569e-09
0
0
0
0
0
0
0
0
0
0
0
0
0
0
0
0
0
0
0
0
0
0
0
0
0
0
0
0
0
0
0
0
0
0
0
0
0
0
0
0
0
0
0
0
0
0
0
0
0
0
0
0
0
0
0
0
0
0
0
0
0
0
0
0
0
0
0
0
0
0
0
0
0
0
0
0
0
0
0
1.82472e-07
8.1918e-07
1.88377e-06
5.32746e-07
4.07901e-07
3.34667e-07
5.49158e-08
0
0
0
7.46873e-09
3.377e-08
4.72156e-08
5.84401e-08
7.5811e-08
9.41371e-08
1.1343e-07
1.28685e-07
1.38858e-07
1.43118e-07
1.48254e-07
1.51422e-07
1.57954e-07
1.70657e-07
1.8689e-07
2.04951e-07
2.18729e-07
2.25895e-07
2.20994e-07
2.0049e-07
1.64083e-07
1.15134e-07
6.08942e-08
1.16332e-08
0
0
0
3.90778e-09
5.75675e-08
1.34231e-07
2.07968e-07
2.66718e-07
2.7552e-07
2.6258e-07
1.89931e-07
9.11851e-08
1.04307e-08
0
0
0
0
0
0
0
0
2.45029e-08
9.43245e-08
2.13341e-07
2.52507e-07
1.99044e-07
1.28922e-07
2.27557e-07
1.84983e-07
8.65999e-08
3.91248e-08
2.03086e-08
1.22734e-08
4.6905e-09
4.8071e-08
5.47127e-07
4.65588e-07
2.63895e-07
1.5951e-07
9.31228e-08
5.82288e-08
4.2914e-08
3.67755e-08
3.50071e-08
3.52994e-08
3.51762e-08
3.32415e-08
2.96412e-08
2.51786e-08
2.20235e-08
2.10961e-08
2.04844e-08
1.91532e-08
1.78411e-08
1.63715e-08
1.47965e-08
1.27578e-08
7.80804e-09
3.56316e-10
0
0
0
0
0
4.4824e-09
9.16323e-09
8.86367e-09
4.06552e-09
0
0
0
0
0
0
0
0
0
0
0
0
0
0
0
0
0
0
0
0
0
0
0
0
0
0
0
0
0
0
0
0
0
0
0
0
0
0
0
0
0
0
0
0
0
0
0
0
0
0
0
0
0
0
0
0
0
0
0
0
0
0
0
0
0
0
0
0
0
0
0
0
0
0
0
0
0
0
0
1.58355e-07
4.50089e-07
0
0
0
0
0
0
0
0
1.30196e-08
2.38763e-08
3.16238e-08
3.83863e-08
4.67892e-08
5.76918e-08
6.65328e-08
7.84302e-08
8.4301e-08
8.83567e-08
9.15564e-08
9.21637e-08
9.53469e-08
9.86314e-08
1.05937e-07
1.13886e-07
1.18958e-07
1.18947e-07
1.10373e-07
9.42902e-08
7.06013e-08
4.11018e-08
8.4634e-09
0
0
0
0
0
0
0
0
1.24873e-08
2.03974e-08
9.86042e-09
0
0
0
0
0
0
0
0
6.46515e-08
9.94436e-08
1.02534e-07
2.09598e-07
3.31098e-07
3.36677e-07
2.73398e-07
3.69747e-07
5.36642e-07
3.11105e-07
1.62355e-07
6.38655e-08
2.34534e-08
1.38978e-08
3.46478e-08
3.75405e-07
5.18501e-07
3.28375e-07
2.16848e-07
1.36014e-07
8.47927e-08
5.90336e-08
4.93948e-08
4.62652e-08
4.5309e-08
4.56908e-08
4.58641e-08
4.46516e-08
4.14798e-08
3.60177e-08
3.03207e-08
2.71266e-08
2.51286e-08
2.25634e-08
2.03662e-08
1.88286e-08
1.77378e-08
1.6476e-08
1.24848e-08
2.80393e-09
0
0
0
0
0
5.55327e-09
1.10968e-08
1.34997e-08
1.0877e-08
5.31807e-09
0
0
0
0
0
0
0
0
0
0
0
0
0
0
0
0
0
0
0
0
0
0
0
0
0
0
0
0
0
0
0
0
0
0
0
0
0
0
0
0
0
0
0
0
0
0
0
0
0
0
0
0
0
0
0
0
0
0
0
0
0
0
0
0
0
0
0
0
0
0
0
0
0
0
0
0
0
0
0
0
0
0
0
0
0
0
0
0
0
6.59321e-09
1.15874e-08
1.45122e-08
1.59276e-08
1.71834e-08
1.97828e-08
2.18322e-08
2.50683e-08
2.59593e-08
2.6727e-08
2.61011e-08
2.48581e-08
2.23483e-08
1.92125e-08
1.66559e-08
1.44634e-08
1.20075e-08
6.92183e-09
0
0
0
0
0
0
0
0
0
0
0
0
0
0
0
0
0
0
0
0
0
2.39682e-08
1.24975e-07
2.21689e-07
1.95681e-07
1.6757e-07
3.09607e-07
4.1093e-07
3.9274e-07
3.92737e-07
8.72788e-07
6.04004e-07
4.14318e-07
2.51077e-07
1.24785e-07
7.42033e-08
9.97148e-08
3.71667e-07
4.37588e-07
3.1505e-07
2.41226e-07
1.76134e-07
1.24478e-07
8.35297e-08
6.56586e-08
6.09034e-08
5.81515e-08
5.62763e-08
5.56553e-08
5.56674e-08
5.51339e-08
5.31171e-08
4.83726e-08
4.11844e-08
3.56683e-08
3.17709e-08
2.77956e-08
2.43079e-08
2.21009e-08
2.0934e-08
2.00554e-08
1.71685e-08
8.31073e-09
0
0
0
0
0
7.07786e-09
1.3243e-08
1.71671e-08
1.69504e-08
1.21749e-08
4.07648e-09
0
0
0
0
0
0
0
0
0
0
0
0
0
0
0
0
0
0
0
0
0
0
0
0
0
0
0
0
0
0
0
0
0
0
0
0
0
0
0
0
0
0
0
0
0
0
0
0
0
0
0
0
0
0
0
0
0
0
0
0
0
0
0
0
0
0
0
0
0
0
0
0
0
0
0
0
0
0
0
0
0
0
0
2.33614e-08
8.53108e-09
0
0
0
0
0
0
0
0
0
0
0
0
0
0
0
0
0
0
0
0
0
0
0
0
0
0
0
0
0
0
0
0
0
0
0
0
0
0
0
0
2.63362e-08
1.00194e-07
1.73464e-07
2.83207e-07
3.51121e-07
2.45614e-07
2.07818e-07
3.82085e-07
4.55227e-07
4.71742e-07
9.35192e-07
8.56151e-07
6.4872e-07
5.13147e-07
3.39743e-07
2.26976e-07
2.60238e-07
4.36934e-07
4.75081e-07
4.01914e-07
3.21899e-07
2.49739e-07
1.74585e-07
1.11265e-07
8.62854e-08
8.03554e-08
7.67345e-08
7.15264e-08
6.56e-08
6.22086e-08
6.10188e-08
6.10488e-08
6.06388e-08
5.81326e-08
5.19529e-08
4.52895e-08
3.99596e-08
3.4619e-08
2.9781e-08
2.66069e-08
2.49858e-08
2.39671e-08
2.14379e-08
1.44389e-08
1.76e-09
0
0
0
0
8.58216e-09
1.56359e-08
1.99954e-08
2.17364e-08
1.86231e-08
9.96969e-09
0
0
0
0
0
0
0
0
0
0
0
0
0
0
0
0
0
0
0
0
0
0
0
0
0
0
0
0
0
0
0
0
0
0
0
0
0
0
0
0
0
0
0
0
0
0
0
0
0
0
0
0
0
0
0
0
0
0
0
0
0
0
0
0
0
0
0
0
0
0
0
0
0
0
0
0
0
0
0
0
0
0
0
0
0
0
0
0
0
0
0
0
0
0
0
0
0
0
0
0
0
0
0
0
0
0
0
0
0
0
0
0
0
0
0
0
0
0
0
0
0
0
0
0
4.77865e-08
1.17238e-07
1.74058e-07
2.35391e-07
3.17652e-07
3.42157e-07
1.75412e-07
2.35269e-07
4.22262e-07
5.11149e-07
8.67117e-07
1.06821e-06
7.70238e-07
7.11532e-07
5.93865e-07
4.00734e-07
2.57347e-07
2.15932e-07
2.38824e-07
2.9385e-07
2.85951e-07
2.31048e-07
1.64038e-07
1.22105e-07
1.06531e-07
1.02584e-07
9.92259e-08
9.32951e-08
8.43346e-08
7.41181e-08
6.74772e-08
6.45985e-08
6.44187e-08
6.52591e-08
6.48384e-08
6.12756e-08
5.48669e-08
4.89414e-08
4.25868e-08
3.64752e-08
3.22444e-08
2.99695e-08
2.83942e-08
2.56164e-08
1.98957e-08
9.51009e-09
0
0
0
0
9.84306e-09
1.81539e-08
2.21125e-08
2.49117e-08
2.38364e-08
1.58809e-08
3.72385e-10
0
0
0
0
0
0
0
0
0
0
0
0
0
0
0
0
0
0
0
0
0
0
0
0
0
0
0
0
0
0
0
0
0
0
0
0
0
0
0
0
0
0
0
0
0
0
0
0
0
0
0
0
0
0
0
0
0
0
0
0
0
0
0
0
0
0
0
0
0
0
0
0
0
0
0
0
1.11626e-07
1.9611e-07
0
0
0
0
0
0
0
0
0
0
0
0
0
0
0
0
0
0
0
0
0
0
0
0
0
0
0
0
0
0
0
0
0
0
0
0
0
0
0
0
0
0
0
0
4.25617e-08
1.00707e-07
1.49318e-07
1.87465e-07
2.35653e-07
2.61935e-07
1.96219e-07
0
2.37291e-07
4.51453e-07
7.61512e-07
1.20079e-06
7.87652e-07
7.28229e-07
7.30951e-07
5.80623e-07
2.61871e-07
1.64433e-07
1.3999e-07
1.37414e-07
1.48923e-07
1.52048e-07
1.42775e-07
1.34098e-07
1.29585e-07
1.26618e-07
1.21226e-07
1.14488e-07
1.05919e-07
9.41668e-08
8.19054e-08
7.33235e-08
6.90898e-08
6.84443e-08
6.98634e-08
7.06884e-08
6.87376e-08
6.35422e-08
5.77745e-08
5.08163e-08
4.35617e-08
3.83609e-08
3.55273e-08
3.35165e-08
3.01945e-08
2.47597e-08
1.72041e-08
7.27169e-09
0
0
0
1.12229e-08
2.06514e-08
2.36257e-08
2.63972e-08
2.7191e-08
2.10286e-08
4.50998e-09
0
0
0
0
0
0
0
0
0
0
0
0
0
0
0
0
0
0
0
0
0
0
0
0
0
0
0
0
0
0
0
0
0
0
0
0
0
0
0
0
0
0
0
0
0
0
0
0
0
0
0
0
0
0
0
0
0
0
0
0
0
0
0
0
0
0
0
0
0
0
0
0
0
0
0
4.58597e-08
7.2205e-08
3.95138e-08
0
0
0
0
0
0
0
0
0
0
0
0
0
0
0
0
0
0
0
0
0
0
0
0
0
0
0
0
0
0
0
0
0
0
0
0
0
0
0
0
0
0
0
3.68302e-09
6.53201e-08
1.13974e-07
1.48848e-07
1.85739e-07
2.13023e-07
1.59094e-07
0
0
3.26694e-07
6.66193e-07
1.08272e-06
6.88396e-07
6.25383e-07
6.86245e-07
6.63362e-07
3.93369e-07
1.75541e-07
1.47525e-07
1.25817e-07
1.17078e-07
1.23689e-07
1.37426e-07
1.4615e-07
1.46308e-07
1.43333e-07
1.3624e-07
1.28376e-07
1.20639e-07
1.11564e-07
1.00072e-07
8.78749e-08
7.84144e-08
7.30058e-08
7.17965e-08
7.364e-08
7.55467e-08
7.47208e-08
7.05455e-08
6.52756e-08
5.80162e-08
4.97049e-08
4.36125e-08
4.04016e-08
3.83921e-08
3.46718e-08
2.89285e-08
2.34577e-08
1.72306e-08
9.31862e-09
4.18245e-09
4.5023e-09
1.34072e-08
2.29002e-08
2.44636e-08
2.61052e-08
2.81212e-08
2.43065e-08
8.22391e-09
0
0
0
0
0
0
0
0
0
0
0
0
0
0
0
0
0
0
0
0
0
0
0
0
0
0
0
0
0
0
0
0
0
0
0
0
0
0
0
0
0
0
0
0
0
0
0
0
0
0
0
0
0
0
0
0
0
0
0
0
0
0
0
0
0
0
0
0
0
0
0
0
0
0
0
0
3.05465e-08
3.85719e-08
1.47534e-08
0
0
0
0
0
0
0
0
0
0
0
0
0
0
0
0
0
0
0
0
0
0
0
0
0
0
0
0
0
0
0
0
0
0
0
0
0
0
0
0
0
0
4.06863e-08
9.65626e-08
1.32072e-07
1.55021e-07
1.75688e-07
1.53154e-07
4.82946e-08
0
3.05984e-07
5.96961e-07
6.14554e-07
4.48215e-07
4.40044e-07
5.09559e-07
5.82096e-07
5.38621e-07
2.01147e-07
1.68592e-07
1.47054e-07
1.29008e-07
1.22524e-07
1.29228e-07
1.39235e-07
1.43041e-07
1.41617e-07
1.37e-07
1.30291e-07
1.23895e-07
1.17005e-07
1.08981e-07
9.93118e-08
8.9606e-08
8.06927e-08
7.42865e-08
7.20154e-08
7.36594e-08
7.62853e-08
7.66874e-08
7.37991e-08
6.93483e-08
6.23966e-08
5.34602e-08
4.66147e-08
4.3011e-08
4.08579e-08
3.71105e-08