/*--------------------------------*- C++ -*----------------------------------*\
  =========                 |
  \\      /  F ield         | OpenFOAM: The Open Source CFD Toolbox
   \\    /   O peration     | Website:  https://openfoam.org
    \\  /    A nd           | Version:  7
     \\/     M anipulation  |
\*---------------------------------------------------------------------------*/
FoamFile
{
    version     2.0;
    format      ascii;
    class       surfaceScalarField;
    location    "0.032";
    object      phi;
}
// * * * * * * * * * * * * * * * * * * * * * * * * * * * * * * * * * * * * * //

dimensions      [0 3 -1 0 0 0 0];

internalField   nonuniform List<scalar> 
24170
(
1.42821e-06
2.11795e-07
1.26394e-06
1.6427e-07
1.11395e-06
1.49992e-07
9.93489e-07
1.20456e-07
8.89468e-07
1.04021e-07
7.90145e-07
9.93227e-08
6.92145e-07
9.80009e-08
6.00355e-07
9.17892e-08
5.20389e-07
7.99663e-08
4.53802e-07
6.65869e-08
3.9901e-07
5.47918e-08
3.53569e-07
4.54413e-08
3.1525e-07
3.83188e-08
2.82512e-07
3.27384e-08
2.53696e-07
2.88155e-08
2.2924e-07
2.44561e-08
2.03995e-07
2.52448e-08
1.78793e-08
1.86116e-07
1.6866e-06
2.33287e-07
1.65729e-06
1.9358e-07
1.6057e-06
2.01577e-07
1.55416e-06
1.72003e-07
1.51374e-06
1.44442e-07
1.48008e-06
1.32978e-07
1.44362e-06
1.34458e-07
1.3996e-06
1.35809e-07
1.35036e-06
1.29216e-07
1.3013e-06
1.15645e-07
1.256e-06
1.00092e-07
1.21468e-06
8.67617e-08
1.17589e-06
7.71038e-08
1.13814e-06
7.04953e-08
1.10048e-06
6.64704e-08
1.06084e-06
6.40987e-08
1.02119e-06
6.48909e-08
6.25624e-08
9.76509e-07
1.77635e-06
2.69101e-07
1.75892e-06
2.11007e-07
1.74819e-06
2.1231e-07
1.73356e-06
1.86635e-07
1.7191e-06
1.589e-07
1.71038e-06
1.41698e-07
1.70707e-06
1.37767e-07
1.70312e-06
1.39755e-07
1.69402e-06
1.38322e-07
1.6799e-06
1.29763e-07
1.66357e-06
1.16421e-07
1.64753e-06
1.02797e-07
1.63227e-06
9.23698e-08
1.61721e-06
8.55495e-08
1.60116e-06
8.2527e-08
1.58302e-06
8.22317e-08
1.56317e-06
8.47481e-08
8.57458e-08
1.53998e-06
1.9089e-06
3.22362e-07
1.87461e-06
2.4529e-07
1.87841e-06
2.08516e-07
1.87664e-06
1.88403e-07
1.86311e-06
1.72429e-07
1.85039e-06
1.54416e-07
1.846e-06
1.42161e-07
1.84767e-06
1.38084e-07
1.85029e-06
1.35702e-07
1.85138e-06
1.28675e-07
1.85111e-06
1.1669e-07
1.85035e-06
1.03555e-07
1.84907e-06
9.36522e-08
1.84651e-06
8.81124e-08
1.84193e-06
8.71088e-08
1.8352e-06
8.89557e-08
1.82721e-06
9.27431e-08
9.58932e-08
1.81706e-06
2.06697e-06
3.68421e-07
2.04196e-06
2.70298e-07
2.02918e-06
2.21297e-07
2.01416e-06
2.03431e-07
2.00029e-06
1.86293e-07
1.98993e-06
1.6478e-07
1.98447e-06
1.4762e-07
1.98412e-06
1.38428e-07
1.98768e-06
1.32141e-07
1.99308e-06
1.2328e-07
1.99819e-06
1.11576e-07
2.00152e-06
1.00225e-07
2.00249e-06
9.26858e-08
2.00096e-06
8.96378e-08
1.99766e-06
9.04074e-08
1.99323e-06
9.33932e-08
1.98893e-06
9.7043e-08
1.00389e-07
1.98443e-06
2.20723e-06
3.39849e-07
2.19069e-06
2.8684e-07
2.17659e-06
2.35398e-07
2.17384e-06
2.06181e-07
2.17767e-06
1.82469e-07
2.18043e-06
1.6202e-07
2.1787e-06
1.4935e-07
2.17403e-06
1.43097e-07
2.16932e-06
1.36848e-07
2.16569e-06
1.26912e-07
2.16231e-06
1.14953e-07
2.15798e-06
1.04561e-07
2.15245e-06
9.82087e-08
2.14622e-06
9.58716e-08
2.14042e-06
9.62103e-08
2.13578e-06
9.80279e-08
2.13293e-06
9.98949e-08
1.01879e-07
2.13144e-06
2.39331e-06
3.52986e-07
2.38843e-06
2.91715e-07
2.36982e-06
2.54007e-07
2.35226e-06
2.2374e-07
2.3436e-06
1.91129e-07
2.34125e-06
1.64372e-07
2.33814e-06
1.52464e-07
2.33109e-06
1.50148e-07
2.3218e-06
1.46134e-07
2.31321e-06
1.35505e-07
2.3068e-06
1.21359e-07
2.30238e-06
1.08981e-07
2.29919e-06
1.01396e-07
2.29658e-06
9.84811e-08
2.29447e-06
9.8324e-08
2.293e-06
9.9492e-08
2.29238e-06
1.00521e-07
1.01557e-07
2.2927e-06
2.61687e-06
3.77803e-07
2.57311e-06
3.35467e-07
2.54693e-06
2.80196e-07
2.53374e-06
2.36924e-07
2.53089e-06
1.93979e-07
2.53299e-06
1.62273e-07
2.53355e-06
1.51904e-07
2.52943e-06
1.54272e-07
2.52164e-06
1.53925e-07
2.51294e-06
1.44203e-07
2.50537e-06
1.28927e-07
2.49932e-06
1.1503e-07
2.49414e-06
1.06577e-07
2.489e-06
1.03625e-07
2.48363e-06
1.03695e-07
2.47845e-06
1.04669e-07
2.47412e-06
1.04855e-07
1.04167e-07
2.47151e-06
2.73582e-06
3.31871e-07
2.75049e-06
3.20799e-07
2.74948e-06
2.81202e-07
2.74544e-06
2.40969e-07
2.73458e-06
2.04835e-07
2.71836e-06
1.78493e-07
2.70371e-06
1.66559e-07
2.69522e-06
1.62763e-07
2.69234e-06
1.56804e-07
2.69222e-06
1.44319e-07
2.69262e-06
1.28533e-07
2.69248e-06
1.1517e-07
2.69157e-06
1.0748e-07
2.68998e-06
1.05214e-07
2.68781e-06
1.05866e-07
2.68549e-06
1.06989e-07
2.68323e-06
1.0712e-07
1.05821e-07
2.68157e-06
2.97026e-06
3.97441e-07
2.93589e-06
3.5517e-07
2.93503e-06
2.8206e-07
2.94252e-06
2.33481e-07
2.93916e-06
2.08192e-07
2.92719e-06
1.90467e-07
2.91922e-06
1.74526e-07
2.92146e-06
1.60523e-07
2.92954e-06
1.48729e-07
2.93514e-06
1.38717e-07
2.93338e-06
1.30295e-07
2.9249e-06
1.23647e-07
2.91362e-06
1.18762e-07
2.9035e-06
1.15334e-07
2.89666e-06
1.12702e-07
2.89329e-06
1.10367e-07
2.89242e-06
1.07986e-07
1.05704e-07
2.89254e-06
3.1625e-06
4.39869e-07
3.14065e-06
3.77021e-07
3.13374e-06
2.88972e-07
3.12908e-06
2.38135e-07
3.12227e-06
2.15002e-07
3.11952e-06
1.93223e-07
3.12499e-06
1.69052e-07
3.13629e-06
1.49223e-07
3.14734e-06
1.3768e-07
3.15297e-06
1.33087e-07
3.15142e-06
1.31848e-07
3.14411e-06
1.30953e-07
3.13399e-06
1.28884e-07
3.12387e-06
1.25453e-07
3.11579e-06
1.20778e-07
3.11053e-06
1.15631e-07
3.10836e-06
1.10156e-07
1.05556e-07
3.10851e-06
2.86356e-06
4.22107e-07
2.8566e-06
3.83978e-07
2.84515e-06
3.00424e-07
2.83541e-06
2.47873e-07
2.83545e-06
2.14963e-07
2.84165e-06
1.87021e-07
2.84627e-06
1.64429e-07
2.84594e-06
1.49556e-07
2.84142e-06
1.42206e-07
2.83458e-06
1.39919e-07
2.82701e-06
1.39425e-07
2.81976e-06
1.38202e-07
2.8136e-06
1.35044e-07
2.80909e-06
1.29966e-07
2.80654e-06
1.2332e-07
2.80604e-06
1.16135e-07
2.80735e-06
1.08849e-07
1.0282e-07
2.81008e-06
3.52032e-06
4.66512e-07
3.51057e-06
3.93732e-07
3.50848e-06
3.02507e-07
3.50902e-06
2.47331e-07
3.5075e-06
2.16491e-07
3.5007e-06
1.9382e-07
3.48957e-06
1.75553e-07
3.47846e-06
1.60666e-07
3.47092e-06
1.49745e-07
3.46726e-06
1.43585e-07
3.46552e-06
1.41163e-07
3.46369e-06
1.40036e-07
3.4609e-06
1.37831e-07
3.45781e-06
1.3305e-07
3.45575e-06
1.25383e-07
3.45579e-06
1.16095e-07
3.45854e-06
1.06097e-07
9.83166e-08
3.46305e-06
4.24593e-06
4.70973e-07
4.25871e-06
3.80955e-07
4.26295e-06
2.98267e-07
4.25807e-06
2.52205e-07
4.24444e-06
2.30123e-07
4.22957e-06
2.08692e-07
4.22447e-06
1.80656e-07
4.23301e-06
1.52123e-07
4.2497e-06
1.33054e-07
4.26523e-06
1.28056e-07
4.27232e-06
1.34072e-07
4.26862e-06
1.43741e-07
4.25651e-06
1.4994e-07
4.24129e-06
1.48269e-07
4.2287e-06
1.37968e-07
4.22251e-06
1.22287e-07
4.22425e-06
1.04364e-07
8.97187e-08
4.23284e-06
5.17114e-06
4.44033e-07
5.18023e-06
3.71862e-07
5.17008e-06
3.08415e-07
5.15418e-06
2.68108e-07
5.14787e-06
2.36434e-07
5.1538e-06
2.02764e-07
5.16275e-06
1.71708e-07
5.16571e-06
1.49157e-07
5.16173e-06
1.37035e-07
5.15649e-06
1.33301e-07
5.15622e-06
1.34343e-07
5.1635e-06
1.36454e-07
5.17735e-06
1.36093e-07
5.19451e-06
1.31105e-07
5.2115e-06
1.20988e-07
5.22574e-06
1.08043e-07
5.23558e-06
9.45242e-08
8.34113e-08
5.24189e-06
6.46457e-06
4.85954e-07
6.4018e-06
4.34628e-07
6.37468e-06
3.35536e-07
6.35643e-06
2.86354e-07
6.34653e-06
2.46337e-07
6.33799e-06
2.11303e-07
6.32464e-06
1.85058e-07
6.30817e-06
1.65624e-07
6.29619e-06
1.4902e-07
6.29676e-06
1.32726e-07
6.31296e-06
1.18149e-07
6.34119e-06
1.08226e-07
6.37354e-06
1.03741e-07
6.40119e-06
1.03452e-07
6.41793e-06
1.04246e-07
6.42189e-06
1.04083e-07
6.41487e-06
1.0155e-07
9.60558e-08
6.40222e-06
7.66921e-06
4.61343e-07
7.75667e-06
3.47169e-07
7.75773e-06
3.34478e-07
7.72386e-06
3.20223e-07
7.68966e-06
2.80534e-07
7.67178e-06
2.29184e-07
7.67471e-06
1.82128e-07
7.69212e-06
1.48216e-07
7.71628e-06
1.24855e-07
7.74221e-06
1.06799e-07
7.76775e-06
9.26123e-08
7.79203e-06
8.39448e-08
7.81395e-06
8.18153e-08
7.83197e-06
8.54345e-08
7.84483e-06
9.13859e-08
7.85256e-06
9.63511e-08
7.85659e-06
9.75253e-08
9.37448e-08
7.8589e-06
9.32454e-06
3.56064e-07
9.33628e-06
3.35425e-07
9.3328e-06
3.37963e-07
9.36294e-06
2.90081e-07
9.42011e-06
2.2336e-07
9.47818e-06
1.71118e-07
9.51662e-06
1.43689e-07
9.53215e-06
1.32686e-07
9.53177e-06
1.25229e-07
9.52448e-06
1.1409e-07
9.51804e-06
9.90511e-08
9.51838e-06
8.36066e-08
9.52884e-06
7.13541e-08
9.55019e-06
6.40828e-08
9.58037e-06
6.1211e-08
9.61586e-06
6.08631e-08
9.65238e-06
6.09982e-08
6.04696e-08
9.68566e-06
1.15394e-05
3.28701e-07
1.1541e-05
3.33818e-07
1.15726e-05
3.06384e-07
1.16369e-05
2.2575e-07
1.17016e-05
1.58691e-07
1.17494e-05
1.23313e-07
1.17794e-05
1.1362e-07
1.17953e-05
1.16779e-07
1.18e-05
1.20611e-07
1.17957e-05
1.18337e-07
1.17868e-05
1.07959e-07
1.17798e-05
9.06523e-08
1.17813e-05
6.98326e-08
1.17958e-05
4.95481e-08
1.18236e-05
3.33777e-08
1.18612e-05
2.33296e-08
1.19028e-05
1.93482e-08
2.13572e-08
1.19419e-05
8.45564e-06
4.00715e-07
8.48323e-06
3.06226e-07
8.53768e-06
2.51941e-07
8.55467e-06
2.0876e-07
8.54473e-06
1.68623e-07
8.52715e-06
1.40898e-07
8.51726e-06
1.23509e-07
8.5198e-06
1.14236e-07
8.53233e-06
1.08082e-07
8.55021e-06
1.00455e-07
8.56994e-06
8.82378e-08
8.58991e-06
7.06738e-08
8.61002e-06
4.97273e-08
8.63054e-06
2.90281e-08
8.65176e-06
1.21558e-08
8.67371e-06
1.38093e-09
8.69581e-06
-2.75315e-09
-5.23072e-10
8.71769e-06
7.43716e-06
4.71339e-07
7.4452e-06
2.98178e-07
7.46365e-06
2.33497e-07
7.47474e-06
1.97665e-07
7.48566e-06
1.5771e-07
7.50287e-06
1.23684e-07
7.52174e-06
1.04638e-07
7.53778e-06
9.81986e-08
7.55097e-06
9.48959e-08
7.5639e-06
8.75191e-08
7.57795e-06
7.41923e-08
7.59157e-06
5.70504e-08
7.60208e-06
3.92149e-08
7.60798e-06
2.31275e-08
7.61014e-06
9.99527e-09
7.61066e-06
8.63291e-10
7.61338e-06
-5.47433e-09
-7.43509e-09
7.6203e-06
6.37721e-06
4.61567e-07
6.40129e-06
2.74095e-07
6.43599e-06
1.98792e-07
6.46541e-06
1.68246e-07
6.48537e-06
1.37754e-07
6.50073e-06
1.08322e-07
6.5176e-06
8.77653e-08
6.54148e-06
7.43228e-08
6.57448e-06
6.19002e-08
6.61393e-06
4.80633e-08
6.65357e-06
3.45524e-08
6.68595e-06
2.46733e-08
6.70611e-06
1.90562e-08
6.71344e-06
1.57964e-08
6.71128e-06
1.21501e-08
6.70503e-06
7.11232e-09
6.69912e-06
4.42411e-10
-5.46184e-09
6.69714e-06
5.60873e-06
5.14709e-07
5.61016e-06
2.72675e-07
5.63733e-06
1.71616e-07
5.66069e-06
1.44889e-07
5.67509e-06
1.23354e-07
5.68692e-06
9.64896e-08
5.70594e-06
6.87442e-08
5.73783e-06
4.24384e-08
5.78065e-06
1.90717e-08
5.82709e-06
1.62668e-09
5.87128e-06
-9.64043e-09
5.90615e-06
-1.01958e-08
5.92839e-06
-3.17862e-09
5.93858e-06
5.60596e-09
5.93812e-06
1.26059e-08
5.92991e-06
1.53256e-08
5.91724e-06
1.31151e-08
7.33835e-09
5.90444e-06
4.80082e-06
4.71393e-07
4.85832e-06
2.15175e-07
4.90938e-06
1.20555e-07
4.96441e-06
8.98621e-08
5.0125e-06
7.52604e-08
5.05028e-06
5.87097e-08
5.07881e-06
4.02171e-08
5.10064e-06
2.06087e-08
5.11857e-06
1.13721e-09
5.13236e-06
-1.21653e-08
5.14244e-06
-1.97114e-08
5.15067e-06
-1.84296e-08
5.15806e-06
-1.05651e-08
5.16455e-06
-8.92181e-10
5.17018e-06
6.97902e-09
5.17592e-06
9.58696e-09
5.18216e-06
6.87872e-09
2.5455e-10
5.18924e-06
4.22879e-06
4.3072e-07
4.27022e-06
1.73749e-07
4.31515e-06
7.56253e-08
4.34679e-06
5.82205e-08
4.37741e-06
4.46403e-08
4.41419e-06
2.19266e-08
4.45324e-06
1.1727e-09
4.48936e-06
-1.55124e-08
4.51385e-06
-2.33561e-08
4.52697e-06
-2.5287e-08
4.53042e-06
-2.31556e-08
4.52929e-06
-1.73041e-08
4.52815e-06
-9.42983e-09
4.52947e-06
-2.2082e-09
4.53481e-06
1.64391e-09
4.54292e-06
1.474e-09
4.5527e-06
-2.90603e-09
-9.92079e-09
4.56288e-06
3.78791e-06
4.33164e-07
3.80298e-06
1.58687e-07
3.80702e-06
7.15862e-08
3.81696e-06
4.82779e-08
3.84306e-06
1.85384e-08
3.87634e-06
-1.13552e-08
3.90634e-06
-2.88251e-08
3.92531e-06
-3.44788e-08
3.93476e-06
-3.28125e-08
3.93835e-06
-2.88742e-08
3.94095e-06
-2.57576e-08
3.94739e-06
-2.37416e-08
3.9602e-06
-2.2246e-08
3.97921e-06
-2.1217e-08
4.00184e-06
-2.09871e-08
4.02504e-06
-2.1717e-08
4.0454e-06
-2.32734e-08
-2.51327e-08
4.06061e-06
3.21892e-06
2.69139e-07
3.29331e-06
8.42997e-08
3.31393e-06
5.09684e-08
3.34192e-06
2.02891e-08
3.37786e-06
-1.74027e-08
3.40835e-06
-4.18453e-08
3.42759e-06
-4.80629e-08
3.438e-06
-4.48944e-08
3.4447e-06
-3.95139e-08
3.45128e-06
-3.54536e-08
3.45973e-06
-3.42014e-08
3.47143e-06
-3.54413e-08
3.48691e-06
-3.77311e-08
3.50535e-06
-3.96521e-08
3.52448e-06
-4.01205e-08
3.54184e-06
-3.90734e-08
3.55532e-06
-3.67587e-08
-3.40982e-08
3.56429e-06
2.86209e-06
2.18314e-07
2.92594e-06
2.04476e-08
2.97983e-06
-2.91947e-09
3.02457e-06
-2.44469e-08
3.04793e-06
-4.07667e-08
3.05429e-06
-4.82031e-08
3.05693e-06
-5.07013e-08
3.06317e-06
-5.11346e-08
3.07219e-06
-4.85384e-08
3.08028e-06
-4.35428e-08
3.08558e-06
-3.94972e-08
3.08915e-06
-3.90112e-08
3.09308e-06
-4.16642e-08
3.09848e-06
-4.50509e-08
3.10499e-06
-4.66275e-08
3.11159e-06
-4.56801e-08
3.11745e-06
-4.26145e-08
-3.90498e-08
3.1224e-06
2.53137e-06
1.27083e-07
2.58361e-06
-3.17849e-08
2.61644e-06
-3.5754e-08
2.64054e-06
-4.85468e-08
2.65215e-06
-5.23718e-08
2.65433e-06
-5.03867e-08
2.65361e-06
-4.99789e-08
2.6531e-06
-5.06276e-08
2.65299e-06
-4.84303e-08
2.6529e-06
-4.34511e-08
2.65286e-06
-3.94536e-08
2.65302e-06
-3.91745e-08
2.65315e-06
-4.17898e-08
2.65245e-06
-4.43524e-08
2.65019e-06
-4.43718e-08
2.64604e-06
-4.15246e-08
2.64025e-06
-3.68337e-08
-3.23296e-08
2.63353e-06
2.17516e-06
2.14337e-06
2.10762e-06
2.05907e-06
2.0067e-06
1.95631e-06
1.90633e-06
1.85571e-06
1.80728e-06
1.76383e-06
1.72437e-06
1.6852e-06
1.64341e-06
1.59906e-06
1.55468e-06
1.51316e-06
1.47633e-06
1.444e-06
5.65463e-08
-5.65463e-08
1.34045e-07
-7.74991e-08
2.13138e-07
-7.90927e-08
2.90553e-07
-7.74148e-08
3.66128e-07
-7.55751e-08
4.40177e-07
-7.40488e-08
5.12911e-07
-7.27347e-08
5.8429e-07
-7.13784e-08
6.53982e-07
-6.96925e-08
7.21368e-07
-6.73857e-08
7.8557e-07
-6.42023e-08
8.45493e-07
-5.9923e-08
8.99895e-07
-5.44018e-08
9.47392e-07
-4.74971e-08
9.86332e-07
-3.89396e-08
1.01476e-06
-2.84286e-08
1.03066e-06
-1.58982e-08
1.03258e-06
-1.9176e-09
1.01815e-06
1.44251e-08
9.87525e-07
3.06266e-08
9.39469e-07
4.80559e-08
8.70242e-07
6.92264e-08
7.72678e-07
9.75648e-08
6.37411e-07
1.35267e-07
4.56775e-07
1.80636e-07
2.28507e-07
2.28268e-07
-4.42763e-08
2.72784e-07
-3.53098e-07
3.08822e-07
-6.84061e-07
3.30963e-07
-1.0234e-06
3.39335e-07
-1.36086e-06
3.37466e-07
-1.68997e-06
3.29112e-07
-2.00704e-06
3.17062e-07
-2.31005e-06
3.03016e-07
-2.59792e-06
2.87871e-07
-2.86994e-06
2.72012e-07
-3.12554e-06
2.55603e-07
-3.36421e-06
2.38673e-07
-3.58536e-06
2.21147e-07
-3.78824e-06
2.02878e-07
-3.97189e-06
1.83654e-07
-4.13521e-06
1.63318e-07
-4.27704e-06
1.4183e-07
-4.39627e-06
1.19227e-07
-4.49191e-06
9.5638e-08
-4.5632e-06
7.12919e-08
-4.60968e-06
4.6485e-08
-4.63132e-06
2.1638e-08
-4.62878e-06
-2.53572e-09
-4.60384e-06
-2.49426e-08
-4.55749e-06
-4.63519e-08
-4.49153e-06
-6.59604e-08
-4.40786e-06
-8.36678e-08
-4.30836e-06
-9.95017e-08
-4.19494e-06
-1.13417e-07
-4.06942e-06
-1.25524e-07
-3.93339e-06
-1.3603e-07
-3.78818e-06
-1.45205e-07
-3.63477e-06
-1.53413e-07
-3.47375e-06
-1.61018e-07
-3.30539e-06
-1.6836e-07
-3.12972e-06
-1.75669e-07
-2.94671e-06
-1.8301e-07
-2.75647e-06
-1.90244e-07
-2.55943e-06
-1.97039e-07
-2.35651e-06
-2.0292e-07
-2.14913e-06
-2.07383e-07
-1.93912e-06
-2.10006e-07
-1.72857e-06
-2.10546e-07
-1.51962e-06
-2.08959e-07
-1.31424e-06
-2.05376e-07
-1.11419e-06
-2.00045e-07
-9.20894e-07
-1.933e-07
-7.35384e-07
-1.85509e-07
-5.58392e-07
-1.76992e-07
-3.90368e-07
-1.68024e-07
-2.3145e-07
-1.58918e-07
-8.17256e-08
-1.49724e-07
5.88732e-08
-1.40599e-07
1.90855e-07
-1.31982e-07
3.14378e-07
-1.23523e-07
4.29736e-07
-1.15358e-07
5.3727e-07
-1.07534e-07
6.3734e-07
-1.0007e-07
7.30315e-07
-9.29744e-08
8.16563e-07
-8.6248e-08
8.96451e-07
-7.9888e-08
9.70339e-07
-7.38884e-08
1.03858e-06
-6.82405e-08
1.10151e-06
-6.29335e-08
1.15947e-06
-5.79535e-08
1.21275e-06
-5.32846e-08
1.26166e-06
-4.89082e-08
1.30646e-06
-4.48043e-08
1.34742e-06
-4.09518e-08
1.38475e-06
-3.73301e-08
1.41867e-06
-3.39196e-08
1.44937e-06
-3.07028e-08
1.47703e-06
-2.76652e-08
1.50183e-06
-2.47956e-08
1.52391e-06
-2.20858e-08
1.54345e-06
-1.95306e-08
1.56057e-06
-1.71275e-08
1.57545e-06
-1.48748e-08
1.58822e-06
-1.2773e-08
1.59904e-06
-1.08213e-08
1.60806e-06
-9.01896e-09
1.61543e-06
-7.36645e-09
1.62128e-06
-5.85756e-09
1.62578e-06
-4.49165e-09
1.62904e-06
-3.26379e-09
1.6312e-06
-2.15675e-09
1.63238e-06
-1.17953e-09
1.63269e-06
-3.12646e-10
1.6322e-06
4.88635e-10
1.63099e-06
1.20924e-09
1.62917e-06
1.82532e-09
1.62682e-06
2.34513e-09
1.62404e-06
2.78125e-09
1.6209e-06
3.14462e-09
1.61745e-06
3.44354e-09
1.61376e-06
3.68697e-09
1.60988e-06
3.88813e-09
1.60582e-06
4.05661e-09
1.60163e-06
4.19092e-09
1.59734e-06
4.29403e-09
1.59296e-06
4.37255e-09
1.58852e-06
4.4441e-09
1.58401e-06
4.50582e-09
1.57946e-06
4.55747e-09
1.57486e-06
4.59964e-09
1.57022e-06
4.63388e-09
1.56556e-06
4.66127e-09
1.56088e-06
4.68054e-09
1.55619e-06
4.69041e-09
1.5515e-06
4.6895e-09
1.54682e-06
4.67695e-09
1.54217e-06
4.65404e-09
1.53754e-06
4.62461e-09
1.53295e-06
4.59372e-09
1.52838e-06
4.56576e-09
1.52384e-06
4.54352e-09
1.51931e-06
4.5281e-09
1.51479e-06
4.51925e-09
1.51028e-06
4.51618e-09
1.50576e-06
4.518e-09
1.50124e-06
4.52403e-09
1.4967e-06
4.53388e-09
1.49215e-06
4.54735e-09
1.48759e-06
4.56445e-09
1.483e-06
4.58528e-09
1.47839e-06
4.61015e-09
1.47376e-06
4.63937e-09
1.46908e-06
4.67346e-09
1.46437e-06
4.7131e-09
1.45961e-06
4.75925e-09
1.4548e-06
4.81319e-09
1.44992e-06
4.87647e-09
1.44497e-06
4.95142e-09
1.43993e-06
5.04016e-09
1.43478e-06
5.1475e-09
1.42951e-06
5.27528e-09
1.42407e-06
5.43476e-09
1.41845e-06
5.62368e-09
1.41258e-06
5.87109e-09
1.40642e-06
6.15497e-09
1.39986e-06
6.55802e-09
1.39288e-06
6.98682e-09
1.38519e-06
7.68685e-09
1.37686e-06
8.3269e-09
1.36722e-06
9.64114e-09
1.35667e-06
1.05485e-08
1.34342e-06
1.32532e-08
1.32906e-06
1.43624e-08
1.30856e-06
2.04994e-08
1.28733e-06
2.1229e-08
1.25048e-06
3.68506e-08
1.21522e-06
3.52604e-08
1.13372e-06
8.14959e-08
7.61776e-08
1.05754e-06
3.96248e-08
-9.61711e-08
7.75906e-08
-1.15465e-07
1.13142e-07
-1.14644e-07
1.4788e-07
-1.12153e-07
1.82223e-07
-1.09917e-07
2.15973e-07
-1.07799e-07
2.48752e-07
-1.05513e-07
2.79954e-07
-1.02581e-07
3.08724e-07
-9.84616e-08
3.33905e-07
-9.25671e-08
3.54028e-07
-8.43258e-08
3.67235e-07
-7.31292e-08
3.71165e-07
-5.83324e-08
3.63155e-07
-3.94869e-08
3.40253e-07
-1.60376e-08
3.00046e-07
1.17788e-08
2.40252e-07
4.38954e-08
1.57746e-07
8.05884e-08
5.05813e-08
1.2159e-07
-8.57449e-08
1.66953e-07
-2.539e-07
2.16211e-07
-4.5432e-07
2.69647e-07
-6.83641e-07
3.26886e-07
-9.34899e-07
3.86525e-07
-1.19924e-06
4.44978e-07
-1.46758e-06
4.96608e-07
-1.73199e-06
5.37192e-07
-1.98707e-06
5.63905e-07
-2.23216e-06
5.76054e-07
-2.46808e-06
5.75251e-07
-2.69536e-06
5.64747e-07
-2.91393e-06
5.47688e-07
-3.12353e-06
5.26661e-07
-3.3239e-06
5.03383e-07
-3.51485e-06
4.78824e-07
-3.69623e-06
4.53393e-07
-3.86775e-06
4.27116e-07
-4.02877e-06
3.99699e-07
-4.1786e-06
3.70976e-07
-4.31661e-06
3.40884e-07
-4.44173e-06
3.08781e-07
-4.55273e-06
2.7431e-07
-4.64823e-06
2.37333e-07
-4.72689e-06
1.97894e-07
-4.78748e-06
1.5622e-07
-4.82894e-06
1.12759e-07
-4.85067e-06
6.82084e-08
-4.85247e-06
2.34417e-08
-4.83372e-06
-2.1285e-08
-4.79393e-06
-6.47317e-08
-4.7341e-06
-1.06189e-07
-4.65534e-06
-1.44713e-07
-4.55936e-06
-1.79649e-07
-4.44814e-06
-2.10724e-07
-4.32362e-06
-2.37933e-07
-4.1877e-06
-2.61452e-07
-4.04204e-06
-2.81686e-07
-3.88799e-06
-2.99252e-07
-3.7265e-06
-3.14907e-07
-3.55805e-06
-3.29466e-07
-3.38273e-06
-3.43684e-07
-3.20031e-06
-3.58093e-07
-3.01046e-06
-3.72854e-07
-2.81304e-06
-3.87669e-07
-2.60829e-06
-4.01786e-07
-2.39707e-06
-4.14134e-07
-2.18089e-06
-4.23566e-07
-1.96177e-06
-4.2913e-07
-1.74201e-06
-4.30307e-07
-1.52391e-06
-4.27052e-07
-1.30959e-06
-4.19698e-07
-1.10081e-06
-4.08831e-07
-8.98914e-07
-3.95193e-07
-7.04874e-07
-3.7955e-07
-5.19283e-07
-3.62582e-07
-3.42477e-07
-3.4483e-07
-1.74562e-07
-3.26834e-07
-1.53919e-08
-3.08894e-07
1.3554e-07
-2.9153e-07
2.78043e-07
-2.74485e-07
4.12536e-07
-2.58017e-07
5.39356e-07
-2.42178e-07
6.58847e-07
-2.27025e-07
7.71363e-07
-2.12586e-07
8.77262e-07
-1.98874e-07
9.76905e-07
-1.85891e-07
1.07065e-06
-1.73633e-07
1.15885e-06
-1.62088e-07
1.24185e-06
-1.51239e-07
1.31998e-06
-1.41064e-07
1.39356e-06
-1.31536e-07
1.4629e-06
-1.22622e-07
1.52827e-06
-1.14283e-07
1.58995e-06
-1.06477e-07
1.64816e-06
-9.91605e-08
1.70311e-06
-9.22878e-08
1.75501e-06
-8.58157e-08
1.80401e-06
-7.97045e-08
1.85027e-06
-7.39195e-08
1.8939e-06
-6.84321e-08
1.93504e-06
-6.32201e-08
1.97377e-06
-5.82671e-08
2.01021e-06
-5.35621e-08
2.04443e-06
-4.90977e-08
2.07653e-06
-4.48698e-08
2.10658e-06
-4.08752e-08
2.13467e-06
-3.71114e-08
2.16088e-06
-3.3576e-08
2.18529e-06
-3.02638e-08
2.20797e-06
-2.717e-08
2.22899e-06
-2.42881e-08
2.24844e-06
-2.16092e-08
2.26639e-06
-1.91298e-08
2.28292e-06
-1.68384e-08
2.29812e-06
-1.47117e-08
2.31207e-06
-1.27393e-08
2.32482e-06
-1.0924e-08
2.33642e-06
-9.26026e-09
2.34694e-06
-7.73522e-09
2.35642e-06
-6.33661e-09
2.36492e-06
-5.05678e-09
2.37249e-06
-3.88498e-09
2.37919e-06
-2.80578e-09
2.38506e-06
-1.81348e-09
2.39015e-06
-9.04204e-10
2.3945e-06
-4.9431e-11
2.39815e-06
7.20924e-10
2.40114e-06
1.4501e-09
2.40353e-06
2.12221e-09
2.40534e-06
2.74183e-09
2.40663e-06
3.31152e-09
2.40743e-06
3.83297e-09
2.40778e-06
4.31056e-09
2.40772e-06
4.7443e-09
2.40727e-06
5.13495e-09
2.40648e-06
5.48331e-09
2.40537e-06
5.7913e-09
2.40396e-06
6.06159e-09
2.40228e-06
6.30018e-09
2.40036e-06
6.51406e-09
2.39822e-06
6.70921e-09
2.39587e-06
6.88965e-09
2.39334e-06
7.05782e-09
2.39065e-06
7.21524e-09
2.3878e-06
7.36391e-09
2.38481e-06
7.50642e-09
2.38169e-06
7.64588e-09
2.37844e-06
7.78511e-09
2.37506e-06
7.92611e-09
2.37155e-06
8.06978e-09
2.36792e-06
8.21621e-09
2.36417e-06
8.36517e-09
2.36029e-06
8.51635e-09
2.35629e-06
8.67011e-09
2.35218e-06
8.82729e-09
2.34795e-06
8.98944e-09
2.3436e-06
9.15906e-09
2.33914e-06
9.33885e-09
2.33456e-06
9.5337e-09
2.32985e-06
9.74681e-09
2.32501e-06
9.98806e-09
2.32003e-06
1.0259e-08
2.31488e-06
1.05818e-08
2.30955e-06
1.09492e-08
2.30401e-06
1.14165e-08
2.29823e-06
1.19384e-08
2.29212e-06
1.26663e-08
2.28568e-06
1.34263e-08
2.27871e-06
1.46527e-08
2.27127e-06
1.57645e-08
2.26291e-06
1.80075e-08
2.25387e-06
1.95867e-08
2.24306e-06
2.40603e-08
2.2313e-06
2.61249e-08
2.21592e-06
3.58825e-08
2.19895e-06
3.81964e-08
2.17422e-06
6.15779e-08
2.14533e-06
6.41582e-08
2.10129e-06
1.25528e-07
1.34798e-07
2.04267e-06
-1.11485e-09
-9.50563e-08
-1.52937e-08
-1.01286e-07
-3.07343e-08
-9.92034e-08
-4.64643e-08
-9.64233e-08
-6.29313e-08
-9.34503e-08
-8.09323e-08
-8.97985e-08
-1.01378e-07
-8.5067e-08
-1.25405e-07
-7.85547e-08
-1.54353e-07
-6.95133e-08
-1.89569e-07
-5.73506e-08
-2.32559e-07
-4.13359e-08
-2.85003e-07
-2.06859e-08
-3.4852e-07
5.18508e-09
-4.23788e-07
3.57813e-08
-5.12191e-07
7.23648e-08
-6.14957e-07
1.14545e-07
-7.32923e-07
1.61861e-07
-8.66185e-07
2.1385e-07
-1.01455e-06
2.69952e-07
-1.17693e-06
3.29334e-07
-1.35165e-06
3.9093e-07
-1.5354e-06
4.53395e-07
-1.72328e-06
5.14769e-07
-1.90922e-06
5.72467e-07
-2.08766e-06
6.23416e-07
-2.25544e-06
6.64385e-07
-2.41173e-06
6.9349e-07
-2.55819e-06
7.10357e-07
-2.69829e-06
7.16155e-07
-2.83609e-06
7.13058e-07
-2.97478e-06
7.03431e-07
-3.11635e-06
6.89261e-07
-3.26168e-06
6.7199e-07
-3.41074e-06
6.5244e-07
-3.56282e-06
6.30904e-07
-3.71668e-06
6.0725e-07
-3.87059e-06
5.81035e-07
-4.02253e-06
5.51632e-07
-4.17004e-06
5.18487e-07
-4.31032e-06
4.81163e-07
-4.44077e-06
4.39234e-07
-4.55886e-06
3.92396e-07
-4.66209e-06
3.40561e-07
-4.74811e-06
2.83921e-07
-4.81484e-06
2.22946e-07
-4.86045e-06
1.58371e-07
-4.88356e-06
9.13172e-08
-4.8838e-06
2.36815e-08
-4.86074e-06
-4.43496e-08
-4.81489e-06
-1.10579e-07
-4.74803e-06
-1.73051e-07
-4.66198e-06
-2.30755e-07
-4.55877e-06
-2.82858e-07
-4.44062e-06
-3.28874e-07
-4.30982e-06
-3.68738e-07
-4.16856e-06
-4.02711e-07
-4.01879e-06
-4.31455e-07
-3.86201e-06
-4.56029e-07
-3.69918e-06
-4.7774e-07
-3.53064e-06
-4.9801e-07
-3.35612e-06
-5.182e-07
-3.1749e-06
-5.39312e-07
-2.98606e-06
-5.61692e-07
-2.78887e-06
-5.84861e-07
-2.58318e-06
-6.07484e-07
-2.36971e-06
-6.276e-07
-2.15025e-06
-6.43023e-07
-1.92744e-06
-6.51942e-07
-1.70431e-06
-6.53441e-07
-1.48377e-06
-6.47587e-07
-1.26831e-06
-6.35159e-07
-1.05983e-06
-6.17309e-07
-8.59631e-07
-5.95393e-07
-6.68482e-07
-5.70699e-07
-4.86725e-07
-5.4434e-07
-3.14347e-07
-5.17208e-07
-1.51201e-07
-4.8998e-07
3.01731e-09
-4.63112e-07
1.49224e-07
-4.37737e-07
2.87363e-07
-4.12624e-07
4.17884e-07
-3.88538e-07
5.4117e-07
-3.65464e-07
6.5756e-07
-3.43415e-07
7.67374e-07
-3.224e-07
8.70922e-07
-3.02422e-07
9.68518e-07
-2.83487e-07
1.06048e-06
-2.65598e-07
1.14715e-06
-2.48752e-07
1.22884e-06
-2.32937e-07
1.30591e-06
-2.1813e-07
1.37867e-06
-2.04296e-07
1.44744e-06
-1.91389e-07
1.51251e-06
-1.79352e-07
1.57415e-06
-1.68119e-07
1.63261e-06
-1.57621e-07
1.68811e-06
-1.47786e-07
1.74084e-06
-1.38546e-07
1.79097e-06
-1.29836e-07
1.83865e-06
-1.21599e-07
1.884e-06
-1.13788e-07
1.92715e-06
-1.06364e-07
1.96818e-06
-9.92987e-08
2.00719e-06
-9.257e-08
2.04425e-06
-8.61631e-08
2.07945e-06
-8.00672e-08
2.11285e-06
-7.42742e-08
2.14452e-06
-6.87774e-08
2.17451e-06
-6.35704e-08
2.20289e-06
-5.86455e-08
2.22972e-06
-5.39947e-08
2.25504e-06
-4.96088e-08
2.27891e-06
-4.54777e-08
2.30137e-06
-4.15902e-08
2.32246e-06
-3.79333e-08
2.34224e-06
-3.44914e-08
2.36075e-06
-3.12509e-08
2.37804e-06
-2.82081e-08
2.39413e-06
-2.53569e-08
2.40908e-06
-2.26846e-08
2.42293e-06
-2.0179e-08
2.4357e-06
-1.78298e-08
2.44744e-06
-1.56276e-08
2.4582e-06
-1.35618e-08
2.46801e-06
-1.16216e-08
2.4769e-06
-9.80301e-09
2.48496e-06
-8.10048e-09
2.49219e-06
-6.51211e-09
2.49865e-06
-5.01631e-09
2.50439e-06
-3.61296e-09
2.50943e-06
-2.30171e-09
2.51382e-06
-1.07824e-09
2.51759e-06
6.6396e-11
2.52076e-06
1.13654e-09
2.52338e-06
2.12653e-09
2.52548e-06
3.04007e-09
2.52708e-06
3.87979e-09
2.52822e-06
4.64917e-09
2.52893e-06
5.35137e-09
2.52924e-06
5.99335e-09
2.52917e-06
6.58286e-09
2.52875e-06
7.12688e-09
2.52801e-06
7.63068e-09
2.52697e-06
8.09792e-09
2.52566e-06
8.5315e-09
2.52408e-06
8.93481e-09
2.52228e-06
9.31213e-09
2.52026e-06
9.66874e-09
2.51803e-06
1.00099e-08
2.51562e-06
1.03398e-08
2.51303e-06
1.06614e-08
2.51027e-06
1.09762e-08
2.50735e-06
1.1285e-08
2.50427e-06
1.15885e-08
2.50106e-06
1.18874e-08
2.4977e-06
1.21838e-08
2.49421e-06
1.24795e-08
2.49059e-06
1.2779e-08
2.48684e-06
1.30849e-08
2.48297e-06
1.34057e-08
2.47898e-06
1.37436e-08
2.47485e-06
1.41149e-08
2.47059e-06
1.45172e-08
2.46619e-06
1.49863e-08
2.46163e-06
1.55029e-08
2.4569e-06
1.6151e-08
2.45198e-06
1.68571e-08
2.44681e-06
1.78303e-08
2.4414e-06
1.88393e-08
2.43563e-06
2.04235e-08
2.42949e-06
2.19039e-08
2.42281e-06
2.46909e-08
2.41551e-06
2.68819e-08
2.4074e-06
3.21726e-08
2.3981e-06
3.54301e-08
2.3877e-06
4.62784e-08
2.37453e-06
5.13698e-08
2.36075e-06
7.53565e-08
2.33982e-06
8.50865e-08
2.32353e-06
1.41814e-07
1.67851e-07
2.29048e-06
-3.20474e-08
-6.30089e-08
-7.78431e-08
-5.54903e-08
-1.24969e-07
-5.20775e-08
-1.74182e-07
-4.72105e-08
-2.26097e-07
-4.15356e-08
-2.814e-07
-3.4495e-08
-3.40826e-07
-2.56407e-08
-4.05205e-07
-1.41759e-08
-4.75572e-07
8.53747e-10
-5.51668e-07
1.87455e-08
-6.34466e-07
4.14615e-08
-7.24308e-07
6.9156e-08
-8.21363e-07
1.0224e-07
-9.2639e-07
1.40808e-07
-1.0388e-06
1.84778e-07
-1.15803e-06
2.33774e-07
-1.28341e-06
2.87237e-07
-1.41398e-06
3.44427e-07
-1.54842e-06
4.04386e-07
-1.68492e-06
4.65835e-07
-1.82118e-06
5.27191e-07
-1.95443e-06
5.86645e-07
-2.08188e-06
6.42221e-07
-2.20138e-06
6.91963e-07
-2.31223e-06
7.34269e-07
-2.41604e-06
7.68198e-07
-2.51618e-06
7.93628e-07
-2.61699e-06
8.11164e-07
-2.72274e-06
8.21901e-07
-2.83674e-06
8.27058e-07
-2.96097e-06
8.2766e-07
-3.09602e-06
8.24312e-07
-3.24122e-06
8.17189e-07
-3.39487e-06
8.06094e-07
-3.55459e-06
7.90624e-07
-3.71762e-06
7.70283e-07
-3.88108e-06
7.44489e-07
-4.04193e-06
7.12486e-07
-4.19726e-06
6.73812e-07
-4.34414e-06
6.28043e-07
-4.47974e-06
5.74836e-07
-4.60135e-06
5.14007e-07
-4.70639e-06
4.45596e-07
-4.79245e-06
3.69987e-07
-4.85746e-06
2.87956e-07
-4.89985e-06
2.00756e-07
-4.9184e-06
1.0987e-07
-4.91109e-06
1.63749e-08
-4.88083e-06
-7.46119e-08
-4.8284e-06
-1.63014e-07
-4.75463e-06
-2.46816e-07
-4.66141e-06
-3.23973e-07
-4.55112e-06
-3.93147e-07
-4.42643e-06
-4.53564e-07
-4.29006e-06
-5.05115e-07
-4.1445e-06
-5.48268e-07
-3.9919e-06
-5.84055e-07
-3.83388e-06
-6.1405e-07
-3.67138e-06
-6.40242e-07
-3.50453e-06
-6.64857e-07
-3.33261e-06
-6.90122e-07
-3.15405e-06
-7.17864e-07
-2.96676e-06
-7.48989e-07
-2.76882e-06
-7.82794e-07
-2.5593e-06
-8.17005e-07
-2.33875e-06
-8.48149e-07
-2.10956e-06
-8.72213e-07
-1.87564e-06
-8.85865e-07
-1.64153e-06
-8.87552e-07
-1.41138e-06
-8.77736e-07
-1.18841e-06
-8.58134e-07
-9.74837e-07
-8.30877e-07
-7.71953e-07
-7.98277e-07
-5.80347e-07
-7.62305e-07
-4.00097e-07
-7.2459e-07
-2.30946e-07
-6.86359e-07
-7.24572e-08
-6.48469e-07
7.65746e-08
-6.12143e-07
2.16196e-07
-5.77358e-07
3.4765e-07
-5.44078e-07
4.71614e-07
-5.12502e-07
5.88769e-07
-4.82619e-07
6.99684e-07
-4.5433e-07
8.04795e-07
-4.27511e-07
9.04423e-07
-4.0205e-07
9.98804e-07
-3.77868e-07
1.08813e-06
-3.54927e-07
1.1726e-06
-3.33219e-07
1.25242e-06
-3.12752e-07
1.32782e-06
-2.9353e-07
1.39906e-06
-2.75542e-07
1.46643e-06
-2.58754e-07
1.53018e-06
-2.43109e-07
1.59059e-06
-2.28529e-07
1.6479e-06
-2.14923e-07
1.7023e-06
-2.02194e-07
1.754e-06
-1.90247e-07
1.80316e-06
-1.78992e-07
1.84991e-06
-1.68351e-07
1.89438e-06
-1.58258e-07
1.93668e-06
-1.4866e-07
1.9769e-06
-1.39518e-07
2.01513e-06
-1.30801e-07
2.05145e-06
-1.22488e-07
2.08595e-06
-1.14565e-07
2.1187e-06
-1.07019e-07
2.14976e-06
-9.98397e-08
2.17921e-06
-9.30171e-08
2.2071e-06
-8.65404e-08
2.2335e-06
-8.03977e-08
2.25847e-06
-7.45763e-08
2.28206e-06
-6.90623e-08
2.30431e-06
-6.38405e-08
2.32527e-06
-5.88968e-08
2.34499e-06
-5.4215e-08
2.36352e-06
-4.97794e-08
2.38089e-06
-4.55799e-08
2.39714e-06
-4.16073e-08
2.41231e-06
-3.78491e-08
2.42642e-06
-3.42928e-08
2.43952e-06
-3.09269e-08
2.45163e-06
-2.77419e-08
2.4628e-06
-2.47286e-08
2.47306e-06
-2.18777e-08
2.48244e-06
-1.91807e-08
2.49097e-06
-1.66328e-08
2.49869e-06
-1.4231e-08
2.50563e-06
-1.19639e-08
2.51185e-06
-9.8259e-09
2.51736e-06
-7.81347e-09
2.5222e-06
-5.92153e-09
2.52642e-06