/*--------------------------------*- C++ -*----------------------------------*\
  =========                 |
  \\      /  F ield         | OpenFOAM: The Open Source CFD Toolbox
   \\    /   O peration     | Website:  https://openfoam.org
    \\  /    A nd           | Version:  7
     \\/     M anipulation  |
\*---------------------------------------------------------------------------*/
FoamFile
{
    version     2.0;
    format      ascii;
    class       volScalarField;
    location    "0.032";
    object      s_0;
}
// * * * * * * * * * * * * * * * * * * * * * * * * * * * * * * * * * * * * * //

dimensions      [0 0 0 0 0 0 0];

internalField   nonuniform List<scalar> 
12225
(
1
1
1
1
1
1
1
1
1
1
1
1
1
1
1
1
1
1
1
1
1
1
1
1
1
1
1
1
1
1
1
1
1
1
1
1
1
1
1
1
1
1
1
1
1
1
1
1
1
1
1
1
1
1
1
1
1
1
1
1
1
1
1
1
1
1
1
1
1
1
1
1
1
1
1
1
1
1
1
1
1
1
1
1
1
1
1
1
1
1
1
1
1
1
1
1
1
1
1
1
1
1
1
1
1
1
1
1
1
1
1
1
1
1
1
1
1
1
1
1
1
1
1
1
1
1
1
1
1
1
1
1
1
1
1
1
1
1
1
1
1
1
1
1
1
1
1
1
1
1
1
1
1
1
1
1
1
1
1
1
1
1
1
1
1
1
1
1
1
1
1
1
1
1
1
1
1
1
1
1
1
1
1
1
1
1
1
1
1
1
1
1
1
1
1
1
1
1
1
1
1
1
1
1
1
1
1
1
1
1
1
1
1
1
1
1
1
1
1
1
1
1
1
1
1
1
1
1
1
1
1
1
1
1
1
1
1
1
1
1
1
1
1
1
1
1
1
1
1
1
1
1
1
1
1
1
1
1
1
1
1
1
1
1
1
1
1
1
1
1
1
1
1
1
1
1
1
1
1
1
1
1
1
1
1
1
1
1
1
1
1
1
1
1
1
1
1
1
1
1
1
1
1
1
1
1
1
1
1
1
1
1
1
1
1
1
1
1
1
1
1
1
1
1
1
1
1
1
1
1
1
1
1
1
1
1
1
1
1
1
1
1
1
1
1
1
1
1
1
1
1
1
1
1
1
1
1
1
1
1
1
1
1
1
1
1
1
1
1
1
1
1
1
1
1
1
1
1
1
1
1
1
1
1
1
1
1
1
1
1
1
1
1
1
1
1
1
1
1
1
1
1
1
1
1
1
1
1
1
1
1
1
1
1
1
1
1
1
1
1
1
1
1
1
1
1
1
1
1
1
1
1
1
1
1
1
1
1
1
1
1
1
1
1
1
1
1
1
1
1
1
1
1
1
1
1
1
1
1
1
1
1
1
1
1
1
1
1
1
1
1
1
1
1
1
1
1
1
1
1
1
1
1
1
1
1
1
1
1
1
1
1
1
1
1
1
1
1
1
1
1
1
1
1
1
1
1
1
1
1
1
1
1
1
1
1
1
1
1
1
1
1
1
1
1
1
1
1
1
1
1
1
1
1
1
1
1
1
1
1
8.41203e-14
2.46296e-12
2.34084e-11
1.36333e-10
5.93141e-10
2.08906e-09
6.22618e-09
1.60855e-08
3.71632e-08
7.90011e-08
1.4471e-07
2.23299e-07
2.78929e-07
3.13927e-07
4.05768e-07
6.78029e-07
7.30466e-07
4.62413e-07
1.31957e-07
1.81226e-09
2.71272e-08
1.1279e-06
1.07866e-05
7.87632e-05
0.000438812
0.00166786
0.0041405
0.00815106
0.0139031
0.0207172
0.0275116
0.0336223
0.0389462
0.0435938
0.04765
0.0512575
0.0546548
0.0579534
0.061175
0.0643909
0.0675101
0.0704714
0.0735688
0.0769605
0.0804175
0.0837816
0.087061
0.0903275
0.0938018
0.097275
0.0990479
0.0998046
0.0999237
0.0985623
0.0972075
0.0947386
0.0917921
0.0886148
0.0843289
0.0799014
0.0761704
0.0713921
0.0661186
0.0606195
0.0558217
0.0495016
0.0437829
0.0380971
0.0319729
0.0268941
0.0217677
0.0174497
0.0135782
0.0103009
0.00760434
0.00546671
0.00383446
0.00261788
0.00173888
0.00112103
0.000702211
0.000427198
0.000252226
0.000144497
8.03156e-05
4.33044e-05
2.26476e-05
1.14887e-05
5.65318e-06
2.69847e-06
1.24958e-06
5.61371e-07
2.4466e-07
1.03436e-07
4.24143e-08
1.68654e-08
6.5014e-09
2.42888e-09
8.791e-10
3.08133e-10
1.04551e-10
3.43253e-11
1.08992e-11
3.34517e-12
9.91766e-13
2.83787e-13
7.8284e-14
2.07869e-14
5.30048e-15
1.29364e-15
3.00608e-16
6.58833e-17
1.34154e-17
2.44846e-18
4.19107e-19
7.05527e-20
1.17038e-20
1.86863e-21
2.79809e-22
7.57416e-23
2.02999e-23
5.22695e-24
1.28928e-24
3.0746e-25
7.16817e-26
1.64847e-26
3.76109e-27
8.56019e-28
2.00652e-28
3.67103e-29
3.72949e-30
4.46106e-31
1.00857e-31
2.19118e-32
4.60429e-33
9.46257e-34
1.90364e-34
3.74796e-35
7.24879e-36
1.41116e-36
2.3042e-37
1.89543e-38
1.8933e-39
3.58778e-40
6.49449e-41
1.14664e-41
2.00859e-42
3.49512e-43
6.01477e-44
1.00904e-44
1.45862e-45
9.65817e-47
8.86492e-48
1.51616e-48
2.48332e-49
3.9921e-50
6.31853e-51
9.69302e-52
1.3657e-52
1.25896e-53
7.03542e-55
9.56782e-56
1.40211e-56
2.04025e-57
2.90495e-58
3.98555e-59
4.9448e-60
3.68586e-61
1.91856e-62
2.42162e-63
3.15447e-64
4.0072e-65
4.9473e-66
5.92164e-67
6.64969e-68
5.13806e-69
2.05854e-70
1.89882e-71
1.89316e-72
-6.21931e-73
1.96506e-12
5.55204e-11
5.75452e-10
3.66443e-09
1.70689e-08
6.30201e-08
1.93792e-07
5.10808e-07
1.1899e-06
2.46174e-06
4.44857e-06
6.99587e-06
9.35236e-06
1.07199e-05
1.27431e-05
2.35897e-05
5.12206e-05
0.000102197
0.000193591
0.000356357
0.000642952
0.00114674
0.00203145
0.00357244
0.00619961
0.0104565
0.016845
0.0258943
0.0378041
0.0523822
0.0694483
0.0891639
0.111903
0.137977
0.167523
0.20059
0.237203
0.277348
0.321121
0.366817
0.405732
0.445686
0.47978
0.510937
0.539513
0.562677
0.58693
0.602124
0.61496
0.624146
0.628691
0.630695
0.631057
0.625769
0.620319
0.61138
0.599716
0.587444
0.572128
0.555202
0.53791
0.517466
0.494542
0.469323
0.442276
0.410405
0.375992
0.338939
0.298385
0.257936
0.217794
0.182155
0.151465
0.122489
0.0962778
0.0735354
0.0547605
0.0399103
0.0283966
0.0195852
0.0131209
0.00854998
0.00541248
0.00332467
0.00198243
0.00114742
0.000644571
0.000351495
0.000186106
9.56981e-05
4.78053e-05
2.32061e-05
1.09497e-05
5.02325e-06
2.24099e-06
9.72406e-07
4.10472e-07
1.68584e-07
6.73784e-08
2.62107e-08
9.92623e-09
3.66058e-09
1.31493e-09
4.60235e-10
1.57013e-10
5.22317e-11
1.69487e-11
5.36676e-12
1.65891e-12
5.00752e-13
1.4766e-13
4.25481e-14
1.19843e-14
3.30052e-15
8.88877e-16
2.34131e-16
6.03309e-17
1.52117e-17
3.75364e-18
9.0661e-19
2.14355e-19
4.96165e-20
1.12435e-20
2.49442e-21
5.41745e-22
1.15223e-22
2.41213e-23
4.97098e-24
1.00838e-24
2.01333e-25
3.95612e-26
7.65005e-27
1.45572e-27
2.72583e-28
5.02257e-29
9.10661e-30
1.62479e-30
2.85269e-31
4.92881e-32
8.38053e-33
1.40236e-33
2.30954e-34
3.74359e-35
5.97275e-36
9.38011e-37
1.45016e-37
2.2071e-38
3.30715e-39
4.87907e-40
7.08751e-41
1.01379e-41
1.42796e-42
1.98072e-43
2.70575e-44
3.64024e-45
4.82355e-46
6.2953e-47
8.09276e-48
1.02476e-48
1.27824e-49
1.57062e-50
1.90114e-51
2.26696e-52
2.66296e-53
3.08155e-54
3.51276e-55
3.94435e-56
4.36238e-57
4.75148e-58
5.09607e-59
5.38032e-60
5.59054e-61
5.71318e-62
5.74048e-63
5.6623e-64
5.48111e-65
5.1866e-66
4.79741e-67
4.29262e-68
3.37611e-69
2.49683e-11
7.10024e-10
7.77539e-09
5.19619e-08
2.4981e-07
9.38795e-07
2.90974e-06
7.69343e-06
1.7814e-05
3.69483e-05
7.01402e-05
0.000124138
0.000208058
0.000327924
0.000491239
0.00071237
0.00102535
0.00148573
0.0021844
0.00326744
0.00496585
0.00763756
0.0118213
0.0182981
0.028155
0.0428409
0.0642533
0.0946964
0.136754
0.193326
0.267461
0.36252
0.442374
0.530867
0.60762
0.6706
0.736665
0.774519
0.819896
0.841898
0.870041
0.891826
0.905379
0.920504
0.928241
0.93813
0.942658
0.946261
0.94845
0.949676
0.951343
0.953125
0.954085
0.955071
0.955745
0.956143
0.955857
0.954068
0.952835
0.950333
0.946973
0.942466
0.93747
0.930455
0.92153
0.909826
0.89473
0.875189
0.84955
0.816327
0.773094
0.71712
0.648493
0.572208
0.489634
0.403767
0.319654
0.244942
0.187391
0.138981
0.0993327
0.0688622
0.0465153
0.0304146
0.0192569
0.0118218
0.00703143
0.00405254
0.00226402
0.00122639
0.000644373
0.000328533
0.000162599
7.81476e-05
3.64849e-05
1.65518e-05
7.29859e-06
3.12908e-06
1.30469e-06
5.29233e-07
2.08923e-07
8.02959e-08
3.0057e-08
1.09631e-08
3.89819e-09
1.35188e-09
4.57478e-10
1.51135e-10
4.87667e-11
1.53758e-11
4.73904e-12
1.42841e-12
4.21199e-13
1.21545e-13
3.43345e-14
9.49699e-15
2.5729e-15
6.82893e-16
1.77615e-16
4.52787e-17
1.13158e-17
2.77288e-18
6.66359e-19
1.57066e-19
3.63183e-20
8.23952e-21
1.83423e-21
4.00715e-22
8.59242e-23
1.80867e-23
3.73788e-24
7.58982e-25
1.51737e-25
2.98683e-26
5.78846e-27
1.10439e-27
2.0743e-28
3.83524e-29
6.98032e-30
1.2506e-30
2.20555e-31
3.82889e-32
6.54323e-33
1.10073e-33
1.82285e-34
2.97174e-35
4.76957e-36
7.5365e-37
1.17247e-37
1.79594e-38
2.70868e-39
4.02274e-40
5.88306e-41
8.47269e-42
1.2017e-42
1.67861e-43
2.3094e-44
3.12943e-45
4.17702e-46
5.49186e-47
7.11282e-48
9.07501e-49
1.14063e-49
1.41237e-50
1.72289e-51
2.07048e-52
2.4512e-53
2.8587e-54
3.28392e-55
3.71563e-56
4.13965e-57
4.54128e-58
4.90199e-59
5.20725e-60
5.43434e-61
5.57582e-62
5.60049e-63
5.52118e-64
5.2839e-65
4.93705e-66
2.59946e-10
6.38101e-09
6.74163e-08
4.42411e-07
2.08493e-06
7.62507e-06
2.27494e-05
5.7113e-05
0.000125118
0.000243424
0.000428597
0.000696136
0.00106095
0.00154298
0.00217275
0.00301879
0.00419124
0.00587264
0.00835992
0.0121207
0.0178864
0.0267933
0.0405918
0.0619704
0.0950383
0.145963
0.223587
0.33981
0.458521
0.566308
0.670714
0.726378
0.793255
0.839078
0.869919
0.898495
0.912887
0.927438
0.935559
0.940808
0.946246
0.948681
0.950007
0.950622
0.950786
0.950611
0.949887
0.949514
0.948963
0.94999
0.952225
0.956457
0.960195
0.964703
0.968988
0.974003
0.977709
0.98003
0.983922
0.986097
0.987746
0.988845
0.990614
0.991553
0.992058
0.992338
0.992212
0.991383
0.989397
0.986363
0.981534
0.974207
0.963314
0.947188
0.923403
0.888549
0.837884
0.76497
0.665002
0.551208
0.432081
0.319764
0.23144
0.16344
0.110704
0.0725818
0.046047
0.028217
0.0167223
0.00958551
0.00531719
0.00285572
0.0014857
0.000749086
0.000366195
0.00017364
7.98939e-05
3.56835e-05
1.54768e-05
6.52124e-06
2.67056e-06
1.06341e-06
4.11945e-07
1.55326e-07
5.70356e-08
2.04071e-08
7.11839e-09
2.42202e-09
8.04243e-10
2.60748e-10
8.25804e-11
2.55587e-11
7.73355e-12
2.28852e-12
6.62537e-13
1.87707e-13
5.20589e-14
1.41374e-14
3.76029e-15
9.79826e-16
2.5018e-16
6.26069e-17
1.53584e-17
3.69409e-18
8.71338e-19
2.01586e-19
4.57519e-20
1.01883e-20
2.22647e-21
4.7755e-22
1.0055e-22
2.07859e-23
4.21903e-24
8.40984e-25
1.6482e-25
3.17961e-26
6.03784e-27
1.12854e-27
2.0762e-28
3.75951e-29
6.70043e-30
1.1754e-30
2.02951e-31
3.44925e-32
5.77029e-33
9.50219e-34
1.54034e-34
2.45806e-35
3.86161e-36
5.97258e-37
9.09483e-38
1.3636e-38
2.01309e-39
2.92646e-40
4.1894e-41
5.90623e-42
8.20055e-43
1.12143e-43
1.51048e-44
2.00399e-45
2.61896e-46
3.37158e-47
4.27585e-48
5.34203e-49
6.57491e-50
7.97219e-51
9.5226e-52
1.12053e-52
1.29875e-53
1.48273e-54
1.66687e-55
1.84525e-56
2.01015e-57
2.15525e-58
2.2708e-59
2.35273e-60
2.38832e-61
2.38055e-62
2.31075e-63
2.19662e-64
9.14556e-10
2.18871e-08
2.40658e-07
1.69859e-06
8.70075e-06
3.3911e-05
0.000103391
0.000254473
0.000522731
0.000921173
0.00141353
0.00195621
0.00273048
0.00396604
0.00567425
0.00792788
0.0111057
0.0158138
0.0223273
0.0318701
0.0472591
0.0723252
0.112633
0.179026
0.288826
0.424508
0.553676
0.662741
0.73858
0.808183
0.849
0.876409
0.897819
0.907561
0.914783
0.918589
0.92025
0.920892
0.91663
0.90669
0.894626
0.876942
0.856851
0.834162
0.812444
0.792281
0.778915
0.771354
0.7685
0.771422
0.783595
0.802301
0.821766
0.846956
0.870433
0.891884
0.912079
0.927212
0.945789
0.957657
0.967638
0.974145
0.982171
0.987615
0.991472
0.993457
0.995576
0.997027
0.997702
0.998231
0.998424
0.998473
0.99804
0.997083
0.995297
0.992135
0.986695
0.97739
0.961544
0.934759
0.889997
0.816409
0.70196
0.560761
0.414936
0.290183
0.199025
0.130648
0.0826963
0.0504769
0.02972
0.0168931
0.00927564
0.00492299
0.0025271
0.00125535
0.000603792
0.000281327
0.000127046
5.56369e-05
2.36406e-05
9.75215e-06
3.90795e-06
1.52221e-06
5.76703e-07
2.12643e-07
7.63557e-08
2.67165e-08
9.11405e-09
3.03298e-09
9.85081e-10
3.12406e-10
9.67827e-11
2.93009e-11
8.67216e-12
2.51005e-12
7.107e-13
1.96909e-13
5.34e-14
1.41784e-14
3.68663e-15
9.3897e-16
2.3431e-16
5.72978e-17
1.37336e-17
3.22717e-18
7.43591e-19
1.68038e-19
3.72494e-20
8.10129e-21
1.72898e-21
3.62164e-22
7.44692e-23
1.50342e-23
2.98031e-24
5.80329e-25
1.1118e-25
2.09589e-26
3.88784e-27
7.09666e-28
1.27471e-28
2.25313e-29
3.9192e-30
6.70896e-31
1.13026e-31
1.87407e-32
3.05842e-33
4.91283e-34
7.76802e-35
1.20908e-35
1.85265e-36
2.79478e-37
4.1509e-38
6.0702e-39
8.7409e-40
1.23944e-40
1.73078e-41
2.38024e-42
3.22397e-43
4.30105e-44
5.65182e-45
7.31565e-46
9.32785e-47
1.17163e-47
1.4497e-48
1.76709e-49
2.12185e-50
2.50984e-51
2.9242e-52
3.35574e-53
3.79206e-54
4.21952e-55
4.62058e-56
4.97967e-57
5.27506e-58
5.49428e-59
5.61166e-60
5.6264e-61
5.5089e-62
5.28412e-63
2.20615e-09
5.1518e-08
5.09564e-07
3.06462e-06
1.32598e-05
4.60185e-05
0.000135812
0.000341763
0.000742392
0.00145736
0.00269426
0.00470823
0.0074618
0.0106926
0.0143543
0.0188701
0.0249766
0.0334804
0.0466613
0.0690863
0.108636
0.176301
0.288144
0.422347
0.552047
0.673127
0.764652
0.818121
0.859036
0.881665
0.892557
0.897958
0.900312
0.900813
0.893584
0.87815
0.851186
0.809716
0.750273
0.703027
0.647684
0.610127
0.566905
0.543401
0.52212
0.511995
0.503974
0.500316
0.498916
0.498427
0.500898
0.507143
0.518334
0.537162
0.568948
0.6149
0.670724
0.734205
0.793056
0.835753
0.873542
0.904174
0.92862
0.950524
0.966599
0.976974
0.984875
0.991487
0.994559
0.997201
0.99838
0.999082
0.999428
0.999595
0.999671
0.999641
0.999437
0.998959
0.997949
0.995887
0.991728
0.983381
0.966748
0.933889
0.870668
0.757504
0.597289
0.428588
0.291014
0.191224
0.120392
0.0729345
0.0425237
0.0238843
0.0129338
0.00675773
0.00340915
0.00166175
0.000783173
0.000357132
0.000157684
6.74619e-05
2.79876e-05
1.12678e-05
4.40566e-06
1.67419e-06
6.18779e-07
2.22587e-07
7.79799e-08
2.66224e-08
8.86213e-09
2.87795e-09
9.12198e-10
2.82325e-10
8.53569e-11
2.52186e-11
7.28363e-12
2.05713e-12
5.6832e-13
1.53628e-13
4.06451e-14
1.05274e-14
2.67005e-15
6.63292e-16
1.61428e-16
3.8498e-17
8.99873e-18
2.06205e-18
4.63324e-19
1.021e-19
2.20703e-20
4.68082e-21
9.74203e-22
1.99009e-22
3.99093e-23
7.85811e-24
1.51985e-24
2.89138e-25
5.41093e-26
9.96144e-27
1.80414e-27
3.21465e-28
5.63549e-29
9.72046e-30
1.64977e-30
2.75527e-31
4.52832e-32
7.32429e-33
1.16594e-33
1.82683e-34
2.81746e-35
4.27744e-36
6.39299e-37
9.40694e-38
1.36284e-38
1.94412e-39
2.73092e-40
3.77771e-41
5.14647e-42
6.90516e-43
9.12524e-44
1.18779e-44
1.52293e-45
1.92343e-46
2.39296e-47
2.9327e-48
3.54047e-49
4.21031e-50
4.93159e-51
5.6894e-52
6.46332e-53
7.22985e-54
7.95946e-55
8.62359e-56
9.18606e-57
9.62053e-58
9.88785e-59
9.97593e-60
9.8501e-61
9.53394e-62
1.92061e-09
4.94101e-08
5.36882e-07
3.68236e-06
1.80913e-05
6.82395e-05
0.000207135
0.00052479
0.00113584
0.00216412
0.00372295
0.00609337
0.00970195
0.0145278
0.0204556
0.0281787
0.039615
0.0578555
0.0890277
0.145683
0.23706
0.355845
0.484034
0.614193
0.728928
0.809802
0.849595
0.87242
0.883322
0.88759
0.888815
0.883991
0.866232
0.831038
0.768763
0.703647
0.633256
0.576088
0.545123
0.510337
0.493537
0.478773
0.471684
0.467393
0.46538
0.4646
0.464395
0.464844
0.46493
0.462133
0.458053
0.45074
0.440822
0.427995
0.421047
0.412113
0.408768
0.423718
0.461153
0.53397
0.62463
0.715075
0.790427
0.851938
0.900264
0.936349
0.956077
0.974752
0.983813
0.991166
0.99489
0.997336
0.998632
0.999333
0.999673
0.999828
0.999895
0.999921
0.999915
0.999852
0.99967
0.999219
0.998131
0.995537
0.989415
0.975121
0.942093
0.866818
0.723096
0.536958
0.363299
0.237207
0.148016
0.0886019
0.0509259
0.0281362
0.0149572
0.00765767
0.00377934
0.00179975
0.000827743
0.000368028
0.000158337
6.59805e-05
2.66552e-05
1.0449e-05
3.97801e-06
1.472e-06
5.29827e-07
1.85629e-07
6.33466e-08
2.10681e-08
6.83263e-09
2.16185e-09
6.67633e-10
2.01329e-10
5.93061e-11
1.70717e-11
4.80379e-12
1.32179e-12
3.55748e-13
9.36807e-14
2.41438e-14
6.0915e-15
1.50494e-15
3.64164e-16
8.63308e-17
2.00552e-17
4.56648e-18
1.01936e-18
2.23132e-19
4.79048e-20
1.00895e-20
2.08507e-21
4.22885e-22
8.41897e-23
1.64555e-23
3.16068e-24
5.97001e-25
1.10898e-25
2.02605e-26
3.64065e-27
6.43484e-28
1.11881e-28
1.91367e-29
3.22031e-30
5.3319e-31
8.68664e-32
1.39264e-32
2.19722e-33
3.41184e-34
5.21455e-35
7.84495e-36
1.16183e-36
1.69395e-37
2.43166e-38
3.43695e-39
4.78348e-40
6.55603e-41
8.84896e-42
1.17631e-42
1.5401e-43
1.98607e-44
2.52275e-45
3.15644e-46
3.89022e-47
4.72278e-48
5.6476e-49
6.65187e-50
7.71645e-51
8.81473e-52
9.91465e-53
1.09765e-53
1.19592e-54
1.28141e-55
1.34997e-56
1.39666e-57
1.41879e-58
1.41286e-59
1.38046e-60
1.13867e-09
3.65887e-08
4.40017e-07
3.16208e-06
1.61375e-05
6.33267e-05
0.000202157
0.000556013
0.00135764
0.00292238
0.00562966
0.00972748
0.0154019
0.0235055
0.0344921
0.0490721
0.0707092
0.108041
0.17244
0.26557
0.378107
0.504556
0.628907
0.741015
0.821203
0.856772
0.872701
0.879079
0.881013
0.878575
0.861062
0.820896
0.741191
0.651748
0.598835
0.542869
0.51362
0.493665
0.484079
0.479336
0.478184
0.478495
0.481507
0.485941
0.490884
0.494759
0.496716
0.49781
0.499027
0.502175
0.505005
0.506918
0.5081
0.500605
0.477335
0.440637
0.396423
0.36341
0.344656
0.33771
0.34672
0.390534
0.487682
0.615628
0.75523
0.84762
0.902849
0.942949
0.966188
0.980912
0.989335
0.994053
0.996736
0.998248
0.999091
0.99956
0.999806
0.999917
0.999959
0.999975
0.99998
0.999972
0.999933
0.999812
0.999462
0.998477
0.995745
0.988318
0.968505
0.916614
0.788738
0.59193
0.399167
0.257237
0.158155
0.0930182
0.0524079
0.0283226
0.0147003
0.007337
0.00352579
0.00163336
0.000730345
0.000315586
0.000131933
5.3421e-05
2.09723e-05
7.99049e-06
2.95721e-06
1.06397e-06
3.72421e-07
1.2691e-07
4.2129e-08
1.36313e-08
4.30113e-09
1.32412e-09
3.97886e-10
1.16749e-10
3.3464e-11
9.37318e-12
2.56641e-12
6.87124e-13
1.79949e-13
4.611e-14
1.15637e-14
2.83908e-15
6.82578e-16
1.60743e-16
3.70879e-17
8.38604e-18
1.85871e-18
4.03925e-19
8.6084e-20
1.79959e-20
3.69105e-21
7.4292e-22
1.46769e-22
2.84735e-23
5.43003e-24
1.01806e-24
1.87671e-25
3.40176e-26
6.06361e-27
1.06296e-27
1.83274e-28
3.10825e-29
5.18567e-30
8.51144e-31
1.37451e-31
2.18411e-32
3.41526e-33
5.25568e-34
7.96024e-35
1.18673e-35
1.74157e-36
2.5161e-37
3.57886e-38
5.01214e-39
6.91184e-40
9.3861e-41
1.25523e-41
1.65323e-42
2.14454e-43
2.73998e-44
3.44812e-45
4.27415e-46
5.21855e-47
6.27594e-48
7.43387e-49
8.67236e-50
9.9629e-51
1.12697e-51
1.25487e-52
1.37517e-53
1.48241e-54
1.57145e-55
1.63688e-56
1.67485e-57
1.68205e-58
1.6592e-59
3.84553e-10
1.68154e-08
2.33319e-07
1.91663e-06
1.10087e-05
4.83477e-05
0.000170627
0.000496625
0.00124983
0.00277613
0.00554551
0.0102343
0.017779
0.0286705
0.0453289
0.0712198
0.110793
0.170258
0.253999
0.363553
0.490595
0.611526
0.719803
0.81266
0.853713
0.869623
0.874937
0.876202
0.870021
0.845293
0.778649
0.668411
0.581945
0.53841
0.504709
0.485534
0.47728
0.474061
0.47339
0.473872
0.474233
0.474902
0.474979
0.472241
0.466588
0.458654
0.451219
0.448283
0.448876
0.461545
0.480942
0.495992
0.51765
0.540204
0.554447
0.560469
0.551523
0.498415
0.416697
0.340972
0.309214
0.297118
0.303199
0.34705
0.454902
0.654391
0.805547
0.884008
0.934777
0.965628
0.98237
0.990885
0.995246
0.997481
0.99867
0.999296
0.999634
0.99982
0.999918
0.999966
0.999985
0.999992
0.999994
0.999992
0.99998
0.999933
0.999775
0.999254
0.99759
0.992431
0.976909
0.93147
0.804003
0.591582
0.392771
0.248137
0.149239
0.085653
0.046994
0.0246903
0.0124428
0.00602466
0.00280712
0.00126058
0.000546372
0.000228882
9.27862e-05
3.64426e-05
1.38819e-05
5.13349e-06
1.84451e-06
6.44457e-07
2.19107e-07
7.25348e-08
2.33948e-08
7.35536e-09
2.25536e-09
6.74764e-10
1.97059e-10
5.61984e-11
1.56565e-11
4.26254e-12
1.13446e-12
2.95259e-13
7.51703e-14
1.87263e-14
4.56611e-15
1.09008e-15
2.54862e-16
5.83723e-17
1.31002e-17
2.88159e-18
6.21404e-19
1.31404e-19
2.72547e-20
5.54584e-21
1.10734e-21
2.17028e-22
4.17947e-23
7.9103e-24
1.47157e-24
2.6911e-25
4.83824e-26
8.55261e-27
1.48665e-27
2.54135e-28
4.27274e-29
7.0661e-30
1.14955e-30
1.83989e-31
2.89742e-32
4.48983e-33
6.84678e-34
1.02759e-34
1.51799e-35
2.20734e-36
3.15978e-37
4.45316e-38
6.17924e-39
8.44284e-40
1.13594e-40
1.50511e-41
1.964e-42
2.52409e-43
3.19497e-44
3.98331e-45
4.89145e-46
5.91627e-47
7.04791e-48
8.26904e-49
9.55403e-50
1.08695e-50
1.21738e-51
1.34201e-52
1.4556e-53
1.5529e-54
1.62874e-55
1.67891e-56
1.70032e-57
1.6931e-58
5.98144e-11
5.52985e-09
9.52214e-08
8.88127e-07
5.67664e-06
2.74977e-05
0.000107237
0.00035101
0.000964507
0.00231535
0.00496694
0.00968572
0.017646
0.0312616
0.0520063
0.0824736
0.132665
0.214034
0.332124
0.466531
0.579805
0.676491
0.774856
0.840736
0.864525
0.871894
0.873239
0.86759
0.839158
0.767086
0.654413
0.561924
0.51744
0.494051
0.478108
0.47082
0.467446
0.465845
0.464431
0.461887
0.455299
0.438461
0.405868
0.354076
0.317375
0.283915
0.268267
0.262458
0.264582
0.279464
0.306615
0.339374
0.382848
0.439614
0.508596
0.566702
0.592158
0.600428
0.589326
0.52908
0.411082
0.320161
0.287717
0.288154
0.31583
0.400234
0.631754
0.778843
0.875322
0.935546
0.969393
0.98611
0.993641
0.99696
0.998485
0.999228
0.999598
0.999792
0.999895
0.999949
0.999977
0.99999
0.999996
0.999998
0.999998
0.999997
0.99999
0.999961
0.99985
0.999438
0.99797
0.992953
0.976453
0.924034
0.769178
0.540223
0.349645
0.214713
0.125296
0.0696497
0.0369666
0.0187739
0.00914233
0.0042773
0.00192614
0.00083628
0.000350613
0.000142143
5.57945e-05
2.12282e-05
7.83658e-06
2.80948e-06
9.78956e-07
3.31782e-07
1.09442e-07
3.51571e-08
1.10049e-08
3.35829e-09
9.99586e-10
2.90325e-10
8.23173e-11
2.27937e-11
6.1662e-12
1.63027e-12
4.21398e-13
1.06527e-13
2.63456e-14
6.37633e-15
1.51071e-15
3.50485e-16
7.96451e-17
1.77326e-17
3.86924e-18
8.27626e-19
1.73583e-19
3.57066e-20
7.20547e-21
1.42681e-21
2.77485e-22
5.30199e-23
9.95455e-24
1.83672e-24
3.33085e-25
5.93766e-26
1.04058e-26
1.79302e-27
3.03806e-28
5.06243e-29
8.29701e-30
1.33761e-30
2.12144e-31
3.31032e-32
5.08264e-33
7.67949e-34
1.14194e-34
1.67131e-35
2.40778e-36
3.41474e-37
4.76778e-38
6.5543e-39
8.87195e-40
1.18256e-40
1.55226e-41
2.00664e-42
2.55477e-43
3.20354e-44
3.9565e-45
4.8128e-46
5.76609e-47
6.80374e-48
7.90612e-49
9.04662e-50
1.01918e-50
1.13024e-51
1.23352e-52
1.32451e-53
1.39884e-54
1.45269e-55
1.4834e-56
1.49075e-57
6.67478e-12
1.16444e-09
2.72903e-08
3.17415e-07
2.39384e-06
1.32757e-05
5.7863e-05
0.000207572
0.000628411
0.00165427
0.00387987
0.00831012
0.0163778
0.0300874
0.053365
0.0955781
0.165209
0.268905
0.393927
0.512489
0.615865
0.713329
0.802322
0.85238
0.868043
0.871379
0.868388
0.849302
0.797217
0.701275
0.583115
0.510167
0.478238
0.463024
0.455722
0.452523
0.451041
0.449605
0.443765
0.425666
0.382719
0.318726
0.255467
0.218566
0.185526
0.169167
0.161192
0.158902
0.167267
0.180849
0.204503
0.235089
0.270161
0.303514
0.345669
0.441517
0.550619
0.602808
0.618032
0.619372
0.590091
0.487383
0.352857
0.295738
0.295898
0.324163
0.42391
0.628176
0.776679
0.880676
0.943141
0.975175
0.989746
0.995798
0.998208
0.999185
0.999608
0.999799
0.999895
0.999948
0.999975
0.999988
0.999995
0.999998
0.999999
0.999999
0.999999
0.999998
0.999992
0.999962
0.99984
0.99935
0.997481
0.990683
0.96701
0.887523
0.677174
0.450253
0.28168
0.166674
0.0936199
0.0500694
0.0255669
0.0124964
0.00586007
0.00264209
0.00114748
0.00048087
0.000194738
7.63117e-05
2.89707e-05
1.06661e-05
3.81185e-06
1.32345e-06
4.46731e-07
1.46705e-07
4.69001e-08
1.46043e-08
4.43192e-09
1.31137e-09
3.78514e-10
1.06624e-10
2.9324e-11
7.87705e-12
2.06749e-12
5.30421e-13
1.33062e-13
3.26507e-14
7.83938e-15
1.84231e-15
4.23905e-16
9.5529e-17
2.10906e-17
4.56299e-18
9.67696e-19
2.01219e-19
4.10347e-20
8.20925e-21
1.61233e-21
3.11015e-22
5.89326e-23
1.09709e-23
2.0068e-24
3.60748e-25
6.37385e-26
1.10702e-26
1.89028e-27
3.17368e-28
5.23993e-29
8.50868e-30
1.35902e-30
2.13533e-31
3.30085e-32
5.02063e-33
7.51459e-34
1.10691e-34
1.60478e-35
2.29014e-36
3.21726e-37
4.44964e-38
6.05918e-39
8.12425e-40
1.07266e-40
1.3947e-41
1.78589e-42
2.25219e-43
2.79734e-44
3.42201e-45
4.12298e-46
4.89245e-47
5.71749e-48
6.57982e-49
7.45599e-50
8.31793e-51
9.1342e-52
9.87143e-53
1.04973e-53
1.09822e-54
1.13051e-55
1.14628e-56
7.15083e-13
2.5753e-10
6.5301e-09
8.72508e-08
7.52782e-07
4.90912e-06
2.503e-05
0.000102657
0.000351319
0.00103712
0.00270607
0.00634695
0.0135454
0.0265897
0.0498555
0.09168
0.161891
0.267961
0.405884
0.546621
0.659666
0.735485
0.809315
0.85594
0.869856
0.871829
0.868238
0.845047
0.782982
0.670451
0.537879
0.479435
0.460077
0.45022
0.444554
0.442596
0.441477
0.434278
0.413349
0.360228
0.293772
0.226926
0.179172
0.149625
0.126329
0.114413
0.108273
0.106494
0.114203
0.127952
0.151377
0.186003
0.229111
0.26557
0.294731
0.333649
0.417708
0.541819
0.606469
0.625758
0.622101
0.600508
0.519251
0.380576
0.318224
0.316476
0.347229
0.459849
0.652731
0.807297
0.905516
0.958039
0.982764
0.993337
0.997508
0.999058
0.999624
0.999842
0.999928
0.999962
0.99998
0.99999
0.999995
0.999998
0.999999
1
1
1
0.999999
0.999998
0.999988
0.999942
0.999741
0.998906
0.99561
0.983213
0.938571
0.786162
0.53832
0.341613
0.204236
0.11554
0.0620859
0.0317954
0.0155644
0.00730197
0.0032908
0.0014276
0.00059722
0.000241306
9.42982e-05
3.56832e-05
1.30891e-05
4.65854e-06
1.61009e-06
5.40809e-07
1.76657e-07
5.61543e-08
1.73804e-08
5.24083e-09
1.54037e-09
4.41515e-10
1.23471e-10
3.37034e-11
8.98369e-12
2.3393e-12
5.95302e-13
1.48106e-13
3.60372e-14
8.57877e-15
1.99868e-15
4.55878e-16
1.01831e-16
2.22825e-17
4.7779e-18
1.00419e-18
2.0693e-19
4.18195e-20
8.29433e-21
1.61514e-21
3.08851e-22
5.80057e-23
1.07016e-23
1.93978e-24
3.45503e-25
6.04802e-26
1.04064e-26
1.76024e-27
2.92746e-28
4.78756e-29
7.7001e-30
1.21812e-30
1.89562e-31
2.90218e-32
4.37182e-33
6.48052e-34
9.45395e-35
1.35742e-35
1.91847e-36
2.66916e-37
3.65603e-38
4.93054e-39
6.5473e-40
8.56133e-41
1.10245e-41
1.39808e-42
1.74615e-43
2.14793e-44
2.60226e-45
3.10507e-46
3.64897e-47
4.22304e-48
4.81291e-49
5.40096e-50
5.96722e-51
6.49006e-52
6.94837e-53
7.32215e-54
7.59664e-55
7.7689e-56
2.64136e-11
-1.75644e-11
1.28699e-09
1.90327e-08
2.14664e-07
1.55985e-06
8.87877e-06
4.11806e-05
0.000159439
0.000530357
0.00154745
0.00401147
0.00928948
0.0197716
0.0409736
0.0799145
0.14662
0.25132
0.39074
0.53843
0.658995
0.744707
0.805312
0.853444
0.869609
0.873133
0.870145
0.849479
0.7917
0.682455
0.544782
0.473886
0.442699
0.432362
0.431777
0.429944
0.421944
0.398571
0.350905
0.288591
0.224531
0.169944
0.133999
0.110027
0.0947193
0.0860376
0.0823705
0.0822944
0.0886829
0.100971
0.119514
0.147321
0.194837
0.246876
0.281717
0.309076
0.367607
0.479269
0.567992
0.612062
0.620657
0.61124
0.57052
0.461498
0.367252
0.332291
0.333153
0.367172
0.517858
0.72763
0.864303
0.938705
0.974324
0.989889
0.996233
0.998659
0.999534
0.999837
0.999941
0.999978
0.999991
0.999996
0.999998
0.999999
0.999999
1
1
1
1
1
0.999999
0.999995
0.999973
0.99987
0.999414
0.997493
0.989816
0.960534
0.853008
0.604139
0.387214
0.232913
0.132223
0.0711666
0.0364563
0.0178335
0.00835429
0.00375725
0.00162573
0.000678026
0.000272997
0.000106264
4.00371e-05
1.46166e-05
5.17555e-06
1.77893e-06
5.94006e-07
1.92823e-07
6.08903e-08
1.87163e-08
5.60301e-09
1.6345e-09
4.6487e-10
1.28965e-10
3.49144e-11
9.2284e-12
2.38243e-12
6.0099e-13
1.48197e-13
3.57356e-14
8.42976e-15
1.94597e-15
4.39756e-16
9.73163e-17
2.10958e-17
4.481e-18
9.3293e-19
1.90436e-19
3.81377e-20
7.49608e-21
1.44638e-21
2.7402e-22
5.0982e-23
9.31681e-24
1.67266e-24
2.95063e-25
5.11512e-26
8.71564e-27
1.45986e-27
2.4041e-28
3.89302e-29
6.19968e-30
9.71086e-31
1.49625e-31
2.26811e-32
3.38287e-33
4.96496e-34
7.17137e-35
1.0195e-35
1.42665e-36
1.96529e-37
2.66536e-38
3.5591e-39
4.67963e-40
6.05897e-41
7.72551e-42
9.70105e-43
1.19975e-43
1.46135e-44
1.75313e-45
2.07142e-46
2.41051e-47
2.76262e-48
3.11801e-49
3.46548e-50
3.79265e-51
4.08729e-52
4.33752e-53
4.53419e-54
4.67517e-55
2.89192e-05
2.59559e-06
1.56707e-07
1.91737e-08
4.86935e-08
3.9572e-07
2.7338e-06
1.41223e-05
6.06752e-05
0.000224209
0.000722762
0.00205322
0.00518766
0.0120349
0.0264716
0.0552177
0.11121
0.210469
0.349083
0.50645
0.643274
0.737963
0.797175
0.845267
0.867147
0.872949
0.872843
0.86145
0.818656
0.718851
0.576981
0.485003
0.444323
0.425428
0.416301
0.413593
0.404787
0.383076
0.337885
0.279421
0.22058
0.170756
0.135152
0.110679
0.0958364
0.0831166
0.0751827
0.0760446
0.0815127
0.0937787
0.112187
0.136739
0.182727
0.23905
0.279062
0.304363
0.352168
0.457706
0.554822
0.595242
0.605239
0.599085
0.565036
0.471097
0.378122
0.336172
0.328863
0.337659
0.415262
0.64389
0.819806
0.917934
0.96586
0.986733
0.995095
0.998254
0.999398
0.999799
0.999935
0.999979
0.999993
0.999998
0.999999
1
1
1
1
1
1
1
1
0.999999
0.999997
0.999984
0.999918
0.999611
0.998256
0.992582
0.969947
0.883431
0.644301
0.413798
0.249256
0.141458
0.0760223
0.0388531
0.0189507
0.00884796
0.00396447
0.0017084
0.000709353
0.000284246
0.000110075
4.1245e-05
1.49695e-05
5.26756e-06
1.79868e-06
5.96462e-07
1.92224e-07
6.02446e-08
1.83732e-08
5.4559e-09
1.57834e-09
4.45061e-10
1.22389e-10
3.2838e-11
8.60058e-12
2.19983e-12
5.49726e-13
1.34271e-13
3.20676e-14
7.4915e-15
1.71258e-15
3.83234e-16
8.39764e-17
1.80249e-17
3.79096e-18
7.8149e-19
1.58001e-19
3.13415e-20
6.10104e-21
1.16576e-21
2.18688e-22
4.02848e-23
7.2886e-24
1.29543e-24
2.26217e-25
3.88199e-26
6.54745e-27
1.08554e-27
1.76947e-28
2.83613e-29
4.47046e-30
6.93079e-31
1.05699e-31
1.58589e-32
2.34121e-33
3.4011e-34
4.86249e-35
6.84233e-36
9.47757e-37
1.29235e-37
1.73495e-38
2.29329e-39
2.98487e-40
3.82575e-41
4.82903e-42
6.0031e-43
7.34993e-44
8.8633e-45
1.05274e-45
1.23158e-46
1.41912e-47
1.61059e-48
1.80039e-49
1.98224e-50
2.14983e-51
2.29689e-52
2.4184e-53
2.51307e-54
0.00266447
0.00027828
2.82098e-05
3.29667e-06
4.05227e-07
1.99511e-07
6.44101e-07
3.97872e-06
1.94192e-05
7.89028e-05
0.000277735
0.000858291
0.00235806
0.00592524
0.0138954
0.030619
0.0649245
0.13123
0.254049
0.435251
0.597159
0.713832
0.781759
0.829659
0.859823
0.870985
0.873022
0.870265
0.852752
0.79904
0.667597
0.528224
0.460782
0.429995
0.415581
0.407631
0.400807
0.385199
0.347344
0.292558
0.235569
0.186357
0.149878
0.123181
0.108084
0.0946416
0.0883254
0.0895442
0.0942604
0.104295
0.126539
0.149978
0.193221
0.251724
0.296497
0.319812
0.354471
0.452811
0.552941
0.592173
0.590468
0.566384
0.478005
0.388578
0.342054
0.316256
0.30918
0.314161
0.366872
0.575269
0.778481
0.896248
0.95603
0.98292
0.993841
0.99791
0.999321
0.999783
0.999931
0.999979
0.999994
0.999998
0.999999
1
1
1
1
1
1
1
1
1
1
0.999998
0.999988
0.999935
0.999682
0.998527
0.993515
0.972859
0.89164
0.654898
0.419769
0.252064
0.142471
0.0762153
0.0387619
0.0188107
0.00873684
0.00389358
0.00166845
0.00068871
0.000274281
0.000105532
3.92756e-05
1.41539e-05
4.94381e-06
1.67515e-06
5.51064e-07
1.76126e-07
5.47285e-08
1.65445e-08
4.86865e-09
1.39549e-09
3.89804e-10
1.06169e-10
2.82096e-11
7.31571e-12
1.85258e-12
4.58305e-13
1.10809e-13
2.61948e-14
6.0569e-15
1.37039e-15
3.03501e-16
6.58178e-17
1.39812e-17
2.91012e-18
5.93877e-19
1.18864e-19
2.3339e-20
4.49676e-21
8.50365e-22
1.57868e-22
2.87781e-23
5.15223e-24
9.06103e-25
1.56563e-25
2.65834e-26
4.43621e-27
7.27722e-28
1.17365e-28
1.8612e-29
2.90266e-30
4.45251e-31
6.71855e-32
9.97388e-33
1.45688e-33
2.09412e-34
2.96244e-35
4.12488e-36
5.65368e-37
7.6287e-38
1.01346e-38
1.32569e-39
1.70758e-40
2.16602e-41
2.7059e-42
3.32929e-43
4.03465e-44