/*--------------------------------*- C++ -*----------------------------------*\
  =========                 |
  \\      /  F ield         | OpenFOAM: The Open Source CFD Toolbox
   \\    /   O peration     | Website:  https://openfoam.org
    \\  /    A nd           | Version:  7
     \\/     M anipulation  |
\*---------------------------------------------------------------------------*/
FoamFile
{
    version     2.0;
    format      ascii;
    class       volVectorField;
    location    "0.032";
    object      U;
}
// * * * * * * * * * * * * * * * * * * * * * * * * * * * * * * * * * * * * * //

dimensions      [0 1 -1 0 0 0 0];

internalField   nonuniform List<vector> 
12225
(
(4.92813 0.172352 0)
(4.20486 0.120039 0)
(3.67096 0.106518 0)
(3.2778 0.0862508 0)
(2.95073 0.0746718 0)
(2.64019 0.0701156 0)
(2.32417 0.0643167 0)
(2.01813 0.0524011 0)
(1.74713 0.0383503 0)
(1.51975 0.0271348 0)
(1.33049 0.0196887 0)
(1.17499 0.0145791 0)
(1.04305 0.0103803 0)
(0.935251 0.00685044 0)
(0.836295 0.00413372 0)
(0.760728 0.00176724 0)
(0.676434 0.00481146 0)
(0.620882 -0.00683598 0)
(5.07959 0.128902 0)
(4.92127 0.102567 0)
(4.75341 0.103849 0)
(4.6031 0.0903764 0)
(4.48201 0.0812514 0)
(4.38327 0.0820316 0)
(4.28331 0.0914519 0)
(4.16404 0.100017 0)
(4.02476 0.100292 0)
(3.87955 0.0933991 0)
(3.73969 0.0840292 0)
(3.614 0.0756657 0)
(3.49596 0.0695944 0)
(3.38721 0.0650881 0)
(3.27447 0.0630202 0)
(3.17106 0.0591158 0)
(3.04158 0.0614499 0)
(2.95139 0.0558967 0)
(4.9496 0.148452 0)
(4.84662 0.142553 0)
(4.77207 0.165131 0)
(4.73867 0.151247 0)
(4.71008 0.130351 0)
(4.67993 0.121191 0)
(4.66319 0.124335 0)
(4.65577 0.130441 0)
(4.64044 0.130277 0)
(4.60879 0.122433 0)
(4.56559 0.110663 0)
(4.51978 0.0997552 0)
(4.47711 0.0924191 0)
(4.43607 0.0887801 0)
(4.39569 0.0880211 0)
(4.35009 0.0903864 0)
(4.30089 0.0953442 0)
(4.24224 0.0993493 0)
(4.98437 0.188674 0)
(4.81439 0.143602 0)
(4.76589 0.132046 0)
(4.77669 0.1205 0)
(4.76437 0.110593 0)
(4.72819 0.101769 0)
(4.70317 0.100128 0)
(4.70073 0.106121 0)
(4.70933 0.113186 0)
(4.71569 0.115245 0)
(4.71689 0.111392 0)
(4.71473 0.104555 0)
(4.71258 0.0988285 0)
(4.70789 0.095666 0)
(4.70069 0.0964237 0)
(4.68596 0.100322 0)
(4.66915 0.107743 0)
(4.64412 0.116314 0)
(4.98295 0.219735 0)
(4.90008 0.176492 0)
(4.83815 0.149933 0)
(4.79047 0.145154 0)
(4.76456 0.143283 0)
(4.74151 0.135326 0)
(4.72129 0.127578 0)
(4.7122 0.124387 0)
(4.71686 0.122648 0)
(4.72982 0.117531 0)
(4.74423 0.108391 0)
(4.75469 0.098519 0)
(4.75995 0.0923829 0)
(4.75914 0.0916737 0)
(4.75382 0.0964483 0)
(4.74445 0.105012 0)
(4.73416 0.115817 0)
(4.72304 0.126763 0)
(4.93159 0.225654 0)
(4.90562 0.185693 0)
(4.839 0.15552 0)
(4.80623 0.145362 0)
(4.81784 0.135324 0)
(4.83525 0.121774 0)
(4.8373 0.111982 0)
(4.82662 0.10927 0)
(4.81437 0.109693 0)
(4.80589 0.108515 0)
(4.79959 0.105093 0)
(4.79148 0.101621 0)
(4.78037 0.100606 0)
(4.7669 0.102668 0)
(4.75346 0.107291 0)
(4.74181 0.113889 0)
(4.73344 0.121182 0)
(4.72847 0.129108 0)
(4.95081 0.219437 0)
(4.97979 0.186141 0)
(4.93355 0.167685 0)
(4.87364 0.151833 0)
(4.84719 0.138494 0)
(4.84499 0.130568 0)
(4.84409 0.12947 0)
(4.8327 0.131191 0)
(4.81353 0.129563 0)
(4.79404 0.122245 0)
(4.77874 0.112096 0)
(4.76796 0.103663 0)
(4.76048 0.0999538 0)
(4.75473 0.101292 0)
(4.75014 0.106226 0)
(4.74645 0.113331 0)
(4.74427 0.12088 0)
(4.74338 0.128764 0)
(5.08472 0.241899 0)
(5.02144 0.211176 0)
(4.94636 0.182886 0)
(4.89389 0.165421 0)
(4.87994 0.142579 0)
(4.88614 0.121967 0)
(4.89301 0.115742 0)
(4.88984 0.121106 0)
(4.87669 0.126677 0)
(4.85948 0.125699 0)
(4.84351 0.119717 0)
(4.83061 0.113658 0)
(4.82027 0.110974 0)
(4.81064 0.112146 0)
(4.80073 0.115587 0)
(4.79022 0.120182 0)
(4.78085 0.124574 0)
(4.77298 0.129233 0)
(4.88519 0.210727 0)
(4.96952 0.21977 0)
(4.96369 0.19944 0)
(4.94901 0.174945 0)
(4.93622 0.149148 0)
(4.91082 0.132137 0)
(4.88086 0.130851 0)
(4.85968 0.138584 0)
(4.85044 0.142711 0)
(4.84891 0.13688 0)
(4.84997 0.124333 0)
(4.85054 0.11255 0)
(4.8497 0.10693 0)
(4.84743 0.108538 0)
(4.84422 0.114765 0)
(4.83979 0.122477 0)
(4.836 0.129123 0)
(4.83116 0.133529 0)
(5.01206 0.232234 0)
(4.9605 0.213858 0)
(4.93141 0.191662 0)
(4.94123 0.169531 0)
(4.94746 0.15415 0)
(4.92935 0.144377 0)
(4.90789 0.138967 0)
(4.90377 0.135804 0)
(4.91624 0.132008 0)
(4.93096 0.126412 0)
(4.93513 0.120485 0)
(4.92531 0.116716 0)
(4.90694 0.116435 0)
(4.8875 0.119232 0)
(4.87304 0.123641 0)
(4.86446 0.128077 0)
(4.86175 0.131838 0)
(4.86109 0.134858 0)
(4.96623 0.260042 0)
(4.94511 0.24392 0)
(4.92064 0.190686 0)
(4.91316 0.16204 0)
(4.90137 0.155108 0)
(4.88941 0.15031 0)
(4.89137 0.141694 0)
(4.90771 0.132908 0)
(4.92834 0.127591 0)
(4.94277 0.126031 0)
(4.94594 0.126438 0)
(4.93794 0.127059 0)
(4.92328 0.127164 0)
(4.90636 0.127085 0)
(4.89173 0.127221 0)
(4.88094 0.128146 0)
(4.87527 0.129627 0)
(4.87363 0.132207 0)
(4.97489 0.283464 0)
(4.99156 0.258708 0)
(4.97231 0.20715 0)
(4.9452 0.177974 0)
(4.93486 0.164142 0)
(4.9424 0.1496 0)
(4.95447 0.132934 0)
(4.95952 0.120004 0)
(4.95507 0.115022 0)
(4.94433 0.117687 0)
(4.93115 0.124841 0)
(4.91774 0.132924 0)
(4.9059 0.139366 0)
(4.89629 0.143023 0)
(4.89031 0.143403 0)
(4.88732 0.141465 0)
(4.8887 0.137748 0)
(4.89148 0.134303 0)
(5.02052 0.261192 0)
(5.02836 0.246092 0)
(5.01534 0.204346 0)
(5.01539 0.1767 0)
(5.01566 0.155846 0)
(5.00833 0.139154 0)
(4.9942 0.131439 0)
(4.97739 0.131671 0)
(4.96376 0.13542 0)
(4.95612 0.13913 0)
(4.95306 0.140795 0)
(4.95093 0.139859 0)
(4.94785 0.136864 0)
(4.94304 0.132967 0)
(4.93927 0.129167 0)
(4.93703 0.126293 0)
(4.93956 0.124419 0)
(4.94425 0.12473 0)
(4.96928 0.315402 0)
(4.9893 0.267727 0)
(4.99537 0.209859 0)
(4.99859 0.175855 0)
(4.987 0.16636 0)
(4.9646 0.163305 0)
(4.94984 0.154741 0)
(4.95283 0.139939 0)
(4.97051 0.126288 0)
(4.99217 0.12125 0)
(5.00714 0.126634 0)
(5.00904 0.1385 0)
(4.99867 0.15065 0)
(4.9807 0.157443 0)
(4.96312 0.156035 0)
(4.95105 0.147894 0)
(4.94866 0.134955 0)
(4.95469 0.123745 0)
(4.96297 0.264148 0)
(4.98456 0.22604 0)
(4.9786 0.200366 0)
(4.96449 0.188255 0)
(4.95072 0.178837 0)
(4.94992 0.159866 0)
(4.96033 0.133844 0)
(4.96806 0.111982 0)
(4.96672 0.103748 0)
(4.96042 0.110612 0)
(4.95662 0.127085 0)
(4.95984 0.14492 0)
(4.97051 0.156794 0)
(4.98634 0.1585 0)
(5.00353 0.149443 0)
(5.01911 0.133566 0)
(5.03111 0.114963 0)
(5.03789 0.100127 0)
(5.10942 0.311385 0)
(5.06462 0.286701 0)
(5.0423 0.223548 0)
(5.02134 0.191363 0)
(5.00927 0.169311 0)
(5.00302 0.153051 0)
(4.99564 0.145464 0)
(4.98292 0.143565 0)
(4.9696 0.141543 0)
(4.96368 0.136491 0)
(4.97033 0.129894 0)
(4.98915 0.124857 0)
(5.01485 0.122352 0)
(5.0402 0.121548 0)
(5.05854 0.120458 0)
(5.06682 0.118503 0)
(5.06505 0.115733 0)
(5.05587 0.112246 0)
(4.93395 0.310166 0)
(5.00716 0.264567 0)
(5.02748 0.232184 0)
(5.01228 0.2233 0)
(4.98387 0.205522 0)
(4.96611 0.179573 0)
(4.96267 0.153459 0)
(4.97036 0.132026 0)
(4.98485 0.115135 0)
(5.00152 0.100819 0)
(5.01823 0.0895414 0)
(5.03451 0.0841862 0)
(5.04995 0.0867335 0)
(5.06305 0.0968399 0)
(5.07328 0.110503 0)
(5.07956 0.123504 0)
(5.08351 0.131766 0)
(5.08456 0.132768 0)
(4.95164 0.231092 0)
(4.95749 0.188227 0)
(4.9528 0.218994 0)
(4.95462 0.227399 0)
(4.98227 0.204253 0)
(5.01895 0.169683 0)
(5.04481 0.138634 0)
(5.05786 0.116851 0)
(5.06148 0.102889 0)
(5.05864 0.0931017 0)
(5.05379 0.0857582 0)
(5.05144 0.0814404 0)
(5.05426 0.0812074 0)
(5.06267 0.0853743 0)
(5.07676 0.0919808 0)
(5.09433 0.0983234 0)
(5.11454 0.101562 0)
(5.13292 0.100164 0)
(5.00967 0.230117 0)
(5.02657 0.274485 0)
(5.02597 0.263098 0)
(5.04821 0.195956 0)
(5.0834 0.130342 0)
(5.10917 0.0950816 0)
(5.12422 0.0926723 0)
(5.13409 0.107517 0)
(5.1391 0.120093 0)
(5.13872 0.119755 0)
(5.13494 0.106588 0)
(5.1307 0.0864663 0)
(5.12901 0.0661645 0)
(5.1321 0.0503247 0)
(5.1415 0.0412823 0)
(5.15604 0.0388341 0)
(5.1742 0.0417524 0)
(5.19219 0.0490068 0)
(4.97869 0.200538 0)
(5.04062 0.192483 0)
(5.06277 0.169621 0)
(5.08328 0.130702 0)
(5.0899 0.104204 0)
(5.07758 0.0929753 0)
(5.06683 0.0898122 0)
(5.06562 0.0907312 0)
(5.07102 0.0943258 0)
(5.08023 0.098318 0)
(5.09169 0.0985049 0)
(5.10375 0.0910488 0)
(5.11578 0.0754637 0)
(5.12773 0.0548346 0)
(5.14007 0.0342405 0)
(5.15292 0.0186983 0)
(5.16609 0.0103106 0)
(5.17927 0.0112984 0)
(5.04642 0.290435 0)
(5.08612 0.20341 0)
(5.0904 0.182361 0)
(5.09953 0.17265 0)
(5.1108 0.148649 0)
(5.12038 0.122153 0)
(5.13357 0.105006 0)
(5.14656 0.0974498 0)
(5.15572 0.0927803 0)
(5.16352 0.0847079 0)
(5.17287 0.070431 0)
(5.18306 0.0508263 0)
(5.1918 0.0292145 0)
(5.19742 0.00957721 0)
(5.19989 -0.00519809 0)
(5.20037 -0.0133576 0)
(5.20093 -0.0153929 0)
(5.20381 -0.0111758 0)
(4.95682 0.29058 0)
(5.01493 0.181626 0)
(5.0334 0.131941 0)
(5.05943 0.110834 0)
(5.08454 0.0934635 0)
(5.09758 0.0787067 0)
(5.10861 0.0730719 0)
(5.12378 0.0760089 0)
(5.14537 0.080448 0)
(5.17443 0.0803612 0)
(5.20742 0.074206 0)
(5.23735 0.0642759 0)
(5.25851 0.0526195 0)
(5.26893 0.0400232 0)
(5.27007 0.0267298 0)
(5.26584 0.0137802 0)
(5.26021 0.00172311 0)
(5.25649 -0.00732078 0)
(5.00542 0.313098 0)
(5.04951 0.190161 0)
(5.06741 0.139363 0)
(5.08786 0.123171 0)
(5.11212 0.102852 0)
(5.12468 0.0801265 0)
(5.13519 0.0608577 0)
(5.15611 0.0435589 0)
(5.19001 0.0253333 0)
(5.23207 0.00733556 0)
(5.27505 -0.00645436 0)
(5.31199 -0.0127901 0)
(5.33809 -0.0114004 0)
(5.35241 -0.00526146 0)
(5.35635 0.00041915 0)
(5.35179 0.00231676 0)
(5.34172 -0.000704434 0)
(5.32924 -0.00719525 0)
(4.92025 0.310124 0)
(4.99657 0.15766 0)
(5.04597 0.103859 0)
(5.10789 0.0941189 0)
(5.17085 0.0911196 0)
(5.2173 0.078884 0)
(5.24867 0.0584166 0)
(5.27208 0.0345726 0)
(5.29191 0.0129584 0)
(5.30891 -0.0031913 0)
(5.32191 -0.0098313 0)
(5.33119 -0.00639423 0)
(5.3388 0.00423751 0)
(5.34563 0.0175267 0)
(5.35185 0.0280045 0)
(5.35761 0.0331981 0)
(5.36393 0.0317139 0)
(5.37049 0.0243557 0)
(4.99437 0.269872 0)
(5.03149 0.12498 0)
(5.09828 0.0560995 0)
(5.15219 0.0297173 0)
(5.19507 0.0168992 0)
(5.23214 0.00892536 0)
(5.27456 0.00370895 0)
(5.32058 -0.00165488 0)
(5.35864 -0.00989283 0)
(5.38138 -0.0204222 0)
(5.39026 -0.0286429 0)
(5.39023 -0.0301937 0)
(5.38753 -0.0252471 0)
(5.38672 -0.0174308 0)
(5.39076 -0.0112522 0)
(5.39907 -0.00934323 0)
(5.41044 -0.012865 0)
(5.42232 -0.0208912 0)
(5.12614 0.302078 0)
(5.16618 0.118386 0)
(5.19174 0.0558223 0)
(5.20821 0.0588125 0)
(5.23817 0.053411 0)
(5.27767 0.0283372 0)
(5.31893 -0.00085438 0)
(5.35323 -0.0198526 0)
(5.37382 -0.0261952 0)
(5.38169 -0.0225075 0)
(5.38389 -0.0140898 0)
(5.38844 -0.00431426 0)
(5.4009 0.00468599 0)
(5.4228 0.0111781 0)
(5.45243 0.0138671 0)
(5.48477 0.0117793 0)
(5.51618 0.00527307 0)
(5.54055 -0.00419029 0)
(4.92171 0.214318 0)
(5.10566 0.0742115 0)
(5.18777 0.0341691 0)
(5.23411 0.00679292 0)
(5.28274 -0.0241515 0)
(5.331 -0.0438096 0)
(5.36711 -0.0469279 0)
(5.3898 -0.0407575 0)
(5.40342 -0.0342315 0)
(5.41323 -0.0322942 0)
(5.42391 -0.0355704 0)
(5.43888 -0.0418353 0)
(5.45998 -0.0484237 0)
(5.487 -0.0538185 0)
(5.5176 -0.0572439 0)
(5.54725 -0.0587408 0)
(5.57262 -0.0585712 0)
(5.58996 -0.0570172 0)
(5.04485 0.150221 0)
(5.16765 0.0546521 0)
(5.33778 0.0433727 0)
(5.44431 0.0243036 0)
(5.49255 -0.000180873 0)
(5.50475 -0.0183018 0)
(5.50633 -0.0276649 0)
(5.51512 -0.0315965 0)
(5.53212 -0.0318508 0)
(5.54938 -0.0297182 0)
(5.56112 -0.0275925 0)
(5.56772 -0.0273837 0)
(5.57331 -0.0291277 0)
(5.58138 -0.0314764 0)
(5.59259 -0.0326994 0)
(5.60515 -0.0323744 0)
(5.61694 -0.0306839 0)
(5.62658 -0.0292323 0)
(5.06532 0.0972257 0)
(5.28241 -0.0282991 0)
(5.42032 -0.0441969 0)
(5.47107 -0.0568126 0)
(5.49042 -0.0595136 0)
(5.49628 -0.0570553 0)
(5.49584 -0.055687 0)
(5.49547 -0.0559389 0)
(5.49624 -0.0545188 0)
(5.49654 -0.050826 0)
(5.49587 -0.0481625 0)
(5.49543 -0.049933 0)
(5.49547 -0.0563096 0)
(5.49521 -0.0645844 0)
(5.49242 -0.0710067 0)
(5.4865 -0.0736146 0)
(5.47599 -0.0722421 0)
(5.46343 -0.0685511 0)
(4.98625 0.0967768 0)
(5.16231 -0.0065728 0)
(5.11927 -0.00398979 0)
(4.97858 -0.0110374 0)
(4.83645 -0.0181176 0)
(4.71272 -0.0212656 0)
(4.59622 -0.0246974 0)
(4.47666 -0.0286131 0)
(4.35731 -0.0298394 0)
(4.24765 -0.0280799 0)
(4.15039 -0.0263699 0)
(4.05868 -0.0270461 0)
(3.96268 -0.0293434 0)
(3.85906 -0.0305543 0)
(3.75153 -0.0288434 0)
(3.64858 -0.024647 0)
(3.55449 -0.0196841 0)
(3.47415 -0.0165111 0)
(0.0207883 -0.056278 -5.25476e-20)
(0.0818731 -0.0875197 5.21647e-20)
(0.154275 -0.0930754 0)
(0.223656 -0.0920358 0)
(0.291518 -0.0897338 0)
(0.358099 -0.0875735 -5.06084e-20)
(0.423449 -0.0856906 0)
(0.487628 -0.0838747 0)
(0.550529 -0.0818436 0)
(0.611751 -0.0793238 0)
(0.670643 -0.0761136 4.8719e-20)
(0.726321 -0.0720494 0)
(0.777726 -0.0671048 0)
(0.82373 -0.0613666 0)
(0.86307 -0.0549677 0)
(0.894084 -0.0480552 4.68882e-20)
(0.91517 -0.0406312 0)
(0.924545 -0.0337129 0)
(0.919577 -0.0307 0)
(0.899821 -0.0334037 0)
(0.864851 -0.0395107 0)
(0.813356 -0.0436633 0)
(0.741901 -0.0367638 0)
(0.642363 -0.0103924 4.40104e-20)
(0.504447 0.0360908 -4.3672e-20)
(0.320405 0.0958686 4.33391e-20)
(0.0933438 0.162466 4.30052e-20)
(-0.168896 0.224689 0)
(-0.459921 0.268988 0)
(-0.767073 0.291267 -4.18912e-20)
(-1.07595 0.296371 -4.15289e-20)
(-1.37848 0.291059 0)
(-1.67102 0.280171 0)
(-1.95144 0.266562 -4.05037e-20)
(-2.21872 0.251645 0)
(-2.47225 0.23598 0)
(-2.7115 0.219897 3.95471e-20)
(-2.93602 0.203635 0)
(-3.14532 0.1873 3.89301e-20)
(-3.33875 0.170816 7.72481e-20)
(-3.5155 0.153955 0)
(-3.67457 0.136582 0)
(-3.8148 0.118724 0)
(-3.93509 0.100496 0)
(-4.03453 0.0820834 0)
(-4.11232 0.0637013 7.34982e-20)
(-4.16786 0.0455501 7.28416e-20)
(-4.20085 0.0279638 7.21727e-20)
(-4.2113 0.0114546 0)
(-4.19992 -0.00364361 -7.07935e-20)
(-4.16962 -0.0173576 0)
(-4.12046 -0.0298086 6.93667e-20)
(-4.05448 -0.0408641 6.86403e-20)
(-3.97326 -0.0506172 0)
(-3.87846 -0.0590265 0)
(-3.77185 -0.0661931 0)
(-3.65486 -0.0722593 6.56929e-20)
(-3.52885 -0.0773907 0)
(-3.39478 -0.0818271 0)
(-3.2533 -0.0857861 0)
(-3.10474 -0.0894747 0)
(-2.94919 -0.0930314 0)
(-2.78662 -0.0964961 0)
(-2.61706 -0.0998007 0)
(-2.44081 -0.102772 0)
(-2.25852 -0.105169 -5.92027e-20)
(-2.07134 -0.10674 0)
(-1.88076 -0.107278 0)
(-1.68859 -0.106667 5.71717e-20)
(-1.49667 -0.1049 5.65173e-20)
(-1.30683 -0.102064 0)
(-1.12074 -0.0983084 -5.52441e-20)
(-0.939849 -0.0938344 5.4625e-20)
(-0.765311 -0.0888592 0)
(-0.59799 -0.0835576 -5.34196e-20)
(-0.438405 -0.0780905 0)
(-0.286874 -0.0726227 0)
(-0.143446 -0.0671695 5.16828e-20)
(-0.00881679 -0.0619055 0)
(0.117292 -0.0569554 -5.05434e-20)
(0.23598 -0.0521556 0)
(0.347235 -0.0475746 4.94143e-20)
(0.451301 -0.0432346 4.88612e-20)
(0.548458 -0.0391431 4.83152e-20)
(0.639011 -0.0353008 9.55513e-20)
(0.723276 -0.0317043 -9.44843e-20)
(0.801576 -0.0283477 0)
(0.874234 -0.025224 0)
(0.941567 -0.0223245 0)
(1.00389 -0.0196398 -9.03243e-20)
(1.0615 -0.0171592 -8.93083e-20)
(1.11468 -0.0148713 8.83011e-20)
(1.16372 -0.0127638 0)
(1.20886 -0.0108244 -8.63115e-20)
(1.25035 -0.00904071 -8.53284e-20)
(1.2884 -0.00740116 -8.4353e-20)
(1.32321 -0.00589528 0)
(1.35497 -0.00451406 0)
(1.38385 -0.00325006 0)
(1.41 -0.0020976 -8.05229e-20)
(1.43356 -0.00105221 0)
(1.45469 -0.000110684 0)
(1.47352 0.000729454 7.77219e-20)
(1.49018 0.00147096 0)
(1.50482 0.00211547 0)
(1.51757 0.00266663 7.49791e-20)
(1.52856 0.00312789 0)
(1.53795 0.00350183 0)
(1.54586 0.00379712 -7.22922e-20)
(1.55243 0.0040148 -7.14087e-20)
(1.55778 0.00416237 0)
(1.56204 0.00425656 6.96594e-20)
(1.56533 0.00428879 0)
(1.56778 0.00428369 -6.79334e-20)
(1.56941 0.00427807 0)
(1.57033 0.00425344 -6.623e-20)
(1.57063 0.00419158 -6.53868e-20)
(1.57041 0.00409595 0)
(1.56973 0.00397453 0)
(1.56868 0.00383433 0)
(1.56733 0.00368132 0)
(1.56572 0.00351919 0)
(1.56392 0.00335502 0)
(1.56194 0.00319831 0)
(1.55983 0.00304663 -5.88373e-20)
(1.55762 0.00288934 5.80424e-20)
(1.55532 0.00272257 0)
(1.55297 0.00256447 0)
(1.55056 0.0024195 0)
(1.5481 0.00228688 0)
(1.54561 0.00216566 1.08289e-19)
(1.54309 0.00205445 0)
(1.54054 0.00195225 -1.0524e-19)
(1.53798 0.00185736 1.0373e-19)
(1.53542 0.001767 0)
(1.53286 0.00167839 0)
(1.53032 0.00159041 0)
(1.52781 0.00150401 -9.77863e-20)
(1.52533 0.00142183 -9.63237e-20)
(1.52289 0.00134691 0)
(1.52049 0.00128136 -9.34259e-20)
(1.51813 0.00122566 -9.19906e-20)
(1.5158 0.00117874 9.05642e-20)
(1.51349 0.00113868 0)
(1.51119 0.0011034 0)
(1.50891 0.00107127 8.63375e-20)
(1.50663 0.00104132 0)
(1.50435 0.00101323 0)
(1.50208 0.000987085 0)
(1.4998 0.000963202 0)
(1.49751 0.000941883 -7.94632e-20)
(1.49521 0.00092338 -7.81131e-20)
(1.49289 0.000907817 0)
(1.49055 0.000895324 -7.54368e-20)
(1.48818 0.000885979 0)
(1.48579 0.000880006 0)
(1.48335 0.000877645 -7.14811e-20)
(1.48086 0.000879347 0)
(1.47831 0.000885641 -6.8882e-20)
(1.4757 0.000897291 0)
(1.47298 0.000915368 0)
(1.47018 0.000941005 -6.50389e-20)
(1.4672 0.00097658 0)
(1.46412 0.00102324 -6.25127e-20)
(1.46072 0.0010871 0)
(1.45721 0.00116613 0)
(1.45312 0.00127797 0)
(1.44895 0.0014059 5.75437e-20)
(1.4437 0.00160534 0)
(1.43848 0.00180528 -5.50997e-20)
(1.43126 0.0021844 0)
(1.42418 0.00247756 0)
(1.41369 0.003275 0)
(1.40276 0.00363011 0)
(1.38726 0.00553417 0)
(1.36664 0.00566322 0)
(1.34536 0.0107976 0)
(1.29533 0.00940117 9.11822e-20)
(1.2763 0.0260245 0)
(1.12244 0.0196633 0)
(0.0191747 -0.162403 1.57658e-19)
(0.0521103 -0.209509 -1.56518e-19)
(0.0848641 -0.207927 0)
(0.115736 -0.20062 1.02811e-19)
(0.1466 -0.194049 0)
(0.176946 -0.188611 5.06318e-20)
(0.206619 -0.183812 -1.00531e-19)
(0.235166 -0.178946 -9.97792e-20)
(0.261995 -0.173268 0)
(0.286213 -0.166036 -9.82912e-20)
(0.306716 -0.156571 -4.87686e-20)
(0.321944 -0.144287 0)
(0.330118 -0.128716 0)
(0.329058 -0.109332 0)
(0.316223 -0.0850479 0)
(0.288817 -0.0547173 -4.69692e-20)
(0.2449 -0.0180266 0)
(0.18239 0.0247937 9.25316e-20)
(0.0992152 0.0730538 0)
(-0.00857318 0.127139 0)
(-0.144484 0.188646 -9.03559e-20)
(-0.310295 0.259768 0)
(-0.50345 0.341576 8.88187e-20)
(-0.71935 0.43151 -4.40125e-20)
(-0.951611 0.5225 4.36221e-20)
(-1.19218 0.604588 -4.32316e-20)
(-1.43228 0.668656 -4.28438e-20)
(-1.66706 0.70962 0)
(-1.8944 0.726266 0)
(-2.11382 0.722498 4.17271e-20)
(-2.32488 0.704344 -4.14729e-20)
(-2.5276 0.677009 0)
(-2.72208 0.644584 0)
(-2.90827 0.609681 4.03906e-20)
(-3.08616 0.573793 0)
(-3.25567 0.537616 0)
(-3.41663 0.501367 -3.94659e-20)
(-3.56867 0.464912 0)
(-3.71126 0.427869 3.895e-20)
(-3.84371 0.389761 -7.71356e-20)
(-3.96514 0.350201 0)
(-4.07445 0.308954 0)
(-4.17043 0.265963 -1.50819e-19)
(-4.25175 0.221316 -1.49588e-19)
(-4.31717 0.175276 -1.48337e-19)
(-4.36566 0.1283 7.36084e-20)
(-4.39647 0.0810124 -7.28045e-20)
(-4.40911 0.034255 -2.16572e-19)
(-4.40353 -0.0109397 1.43063e-19)
(-4.37972 -0.0536914 7.07661e-20)
(-4.33626 -0.0933951 0)
(-4.2754 -0.129653 -6.93385e-20)
(-4.198 -0.1621 6.87079e-20)
(-4.10587 -0.190634 0)
(-4.00079 -0.215242 0)
(-3.88441 -0.23615 0)
(-3.75841 -0.253777 -6.56657e-20)
(-3.62406 -0.268689 0)
(-3.48239 -0.281576 1.2844e-19)
(-3.33395 -0.293139 0)
(-3.17893 -0.304011 1.25516e-19)
(-3.01719 -0.314627 0)
(-2.84845 -0.325132 -1.22632e-19)
(-2.67247 -0.335327 0)
(-2.48935 -0.344682 1.19796e-19)
(-2.29966 -0.352426 -5.92204e-20)
(-2.10456 -0.357723 0)
(-1.9057 -0.35988 -1.15666e-19)
(-1.70508 -0.358512 -5.71522e-20)
(-1.50472 -0.353598 -5.64991e-20)
(-1.30656 -0.345422 0)
(-1.11232 -0.334468 -5.52472e-20)
(-0.923441 -0.321351 -5.46118e-20)
(-0.740995 -0.306718 0)
(-0.565729 -0.291126 5.34097e-20)
(-0.398051 -0.275019 -1.05658e-19)
(-0.238128 -0.25889 0)
(-0.0859771 -0.242891 -5.1678e-20)
(0.0575536 -0.227477 0)
(0.193138 -0.21268 1.51593e-19)
(0.321983 -0.198451 0)
(0.443806 -0.184881 -1.48205e-19)
(0.558899 -0.172011 -4.88466e-20)
(0.667548 -0.15985 4.83056e-20)
(0.770057 -0.148394 9.55311e-20)
(0.866737 -0.137628 -9.44631e-20)
(0.957907 -0.127535 0)
(1.04388 -0.118092 0)
(1.12498 -0.109273 0)
(1.2015 -0.10105 2.70882e-19)
(1.27375 -0.0933934 8.92749e-20)
(1.34201 -0.0862676 -8.82668e-20)
(1.40654 -0.0796368 0)
(1.46759 -0.0734627 -8.62806e-20)
(1.52538 -0.0677071 8.52913e-20)
(1.58014 -0.0623323 8.43149e-20)
(1.63203 -0.057303 0)
(1.68122 -0.0525877 0)
(1.72786 -0.0481591 0)
(1.77206 -0.0439948 8.04808e-20)
(1.81394 -0.0400776 0)
(1.85359 -0.0363943 -1.57213e-19)
(1.8911 -0.032936 -2.33033e-19)
(1.92657 -0.0296957 1.53513e-19)
(1.96005 -0.026669 0)
(1.99164 -0.023852 7.49335e-20)
(2.0214 -0.0212403 0)
(2.04941 -0.0188308 1.46267e-19)
(2.07573 -0.016616 -7.2244e-20)
(2.10044 -0.01459 -7.13597e-20)
(2.1236 -0.0127468 0)
(2.14527 -0.0110724 -2.08825e-19)
(2.16555 -0.00956549 1.37485e-19)
(2.18447 -0.00821052 6.78813e-20)
(2.20214 -0.00697972 0)
(2.21863 -0.00587616 6.61776e-20)
(2.234 -0.00490463 1.96003e-19)
(2.2483 -0.00405645 0)
(2.26157 -0.00331798 1.2733e-19)
(2.27386 -0.00267705 1.25676e-19)
(2.28523 -0.00212526 1.24034e-19)
(2.29572 -0.00165144 0)
(2.30538 -0.00124105 0)
(2.31426 -0.000889078 0)
(2.32241 -0.000593234 -5.87866e-20)
(2.32986 -0.000337248 -5.79919e-20)
(2.33664 -9.72099e-05 0)
(2.3428 0.000116278 -1.12837e-19)
(2.34839 0.000299582 -1.11279e-19)
(2.35343 0.00045615 0)
(2.35797 0.000587575 -1.08193e-19)
(2.36206 0.000697553 -2.13331e-19)
(2.36571 0.000789404 1.05147e-19)
(2.36898 0.000862356 1.03639e-19)
(2.37189 0.000918247 0)
(2.37447 0.000958178 0)
(2.37675 0.000982422 0)
(2.37876 0.000992241 9.77008e-20)
(2.38053 0.000990677 -9.62398e-20)
(2.38207 0.000981362 -1.89576e-19)
(2.38341 0.000967594 9.33451e-20)
(2.38457 0.000952082 -9.19113e-20)
(2.38556 0.000936843 -9.04864e-20)
(2.38641 0.000923324 0)
(2.38714 0.000912507 0)
(2.38774 0.000904961 8.62645e-20)
(2.38824 0.000900838 0)
(2.38864 0.000899941 0)
(2.38894 0.000901848 -1.64239e-19)
(2.38914 0.000906128 0)
(2.38924 0.000912446 -7.93978e-20)
(2.38925 0.00092072 7.80491e-20)
(2.38916 0.000931047 0)
(2.38897 0.000943817 -7.53758e-20)
(2.3887 0.000959544 0)
(2.38833 0.000979025 0)
(2.38788 0.00100324 7.14243e-20)
(2.38734 0.00103334 -1.40245e-19)
(2.3867 0.00107114 6.8828e-20)
(2.38597 0.00111797 0)
(2.38514 0.00117758 0)
(2.3842 0.00125049 -6.49889e-20)
(2.38311 0.00134572 0)
(2.38191 0.001459 -6.24653e-20)
(2.38048 0.00161462 0)
(2.37892 0.00179063 0)
(2.37699 0.00205529 0)
(2.37489 0.00232582 -5.7501e-20)
(2.37219 0.00279917 0)
(2.36922 0.00320093 5.50592e-20)
(2.3653 0.00410319 0)
(2.36078 0.00465445 0)
(2.35499 0.00651468 -1.02892e-19)
(2.34731 0.00713476 1.00509e-19)
(2.33891 0.0113126 0)
(2.32384 0.0116224 0)
(2.31293 0.0218853 0)
(2.27831 0.0210193 -2.7335e-19)
(2.26972 0.0489902 0)
(2.18043 0.0476611 1.73089e-19)
(0.00558897 -0.198881 3.54876e-23)
(-0.00748909 -0.220981 2.08766e-19)
(-0.02009 -0.216288 0)
(-0.0343485 -0.211129 -2.05703e-19)
(-0.0483054 -0.20633 0)
(-0.063517 -0.200949 0)
(-0.0804405 -0.194414 -2.80656e-23)
(-0.100112 -0.185726 9.98193e-20)
(-0.123567 -0.173769 9.90979e-20)
(-0.151994 -0.157417 9.83319e-20)
(-0.186688 -0.135459 0)
(-0.229105 -0.10663 0)
(-0.280752 -0.0695302 -9.61307e-20)
(-0.34251 -0.0232331 -1.90772e-19)
(-0.415301 0.0323204 1.89282e-19)
(-0.500316 0.0965775 0)
(-0.598508 0.168709 1.86274e-19)
(-0.710423 0.247893 -9.23786e-20)
(-0.836214 0.333382 0)
(-0.975578 0.424041 1.8172e-19)
(-1.12747 0.518207 9.00912e-20)
(-1.28946 0.614342 -1.78677e-19)
(-1.45747 0.709531 -8.85627e-20)
(-1.62636 0.799545 0)
(-1.79108 0.87912 1.74166e-19)
(-1.94762 0.942988 1.72695e-19)
(-2.094 0.987164 0)
(-2.2308 1.01 1.6983e-19)
(-2.36049 1.01248 0)
(-2.48665 0.997923 1.6708e-19)
(-2.61242 0.971096 8.27579e-20)
(-2.74011 0.936409 0)
(-2.87099 0.897363 0)
(-3.00545 0.856183 0)
(-3.14321 0.813987 0)
(-3.28344 0.771046 0)
(-3.4248 0.72707 0)
(-3.56553 0.681432 1.57013e-19)
(-3.70347 0.633373 -2.33612e-19)
(-3.83625 0.582166 0)
(-3.96145 0.527266 0)
(-4.0767 0.468303 0)
(-4.17966 0.405164 -2.4301e-22)
(-4.26807 0.338039 1.49558e-19)
(-4.3398 0.26743 2.96867e-19)
(-4.39308 0.194205 -2.94325e-19)
(-4.42647 0.119675 -1.45984e-19)
(-4.43904 0.0453762 1.4442e-19)
(-4.43052 -0.0273655 2.21818e-22)
(-4.40114 -0.0972605 1.41849e-19)
(-4.35199 -0.162912 0)
(-4.28451 -0.223155 1.38937e-19)
(-4.20051 -0.277068 1.61469e-22)
(-4.10189 -0.324135 0)
(-3.99073 -0.364298 0)
(-3.86907 -0.39794 -1.32963e-19)
(-3.73879 -0.425834 0)
(-3.6014 -0.449082 0)
(-3.45798 -0.468961 1.28584e-19)
(-3.30903 -0.486812 2.5405e-19)
(-3.15448 -0.503844 -1.25482e-19)
(-2.99376 -0.520929 0)
(-2.82606 -0.538395 1.22596e-19)
(-2.65058 -0.555877 0)
(-2.46697 -0.572334 1.19907e-19)
(-2.27559 -0.586232 1.18362e-19)
(-2.07771 -0.595897 -2.34096e-19)
(-1.87548 -0.599949 -1.15741e-19)
(-1.67151 -0.597666 0)
(-1.46845 -0.589081 2.2606e-19)
(-1.26864 -0.574827 0)
(-1.07403 -0.555884 3.31398e-19)
(-0.886084 -0.533428 2.18474e-19)
(-0.705777 -0.508598 2.16041e-19)
(-0.533631 -0.482394 -2.13652e-19)
(-0.369815 -0.455579 3.16937e-19)
(-0.214228 -0.428814 0)
(-0.0666996 -0.402512 0)
(0.0723286 -0.377509 -2.04413e-19)
(0.20376 -0.353073 -3.03146e-19)
(0.328717 -0.329761 0)
(0.447057 -0.307603 9.87855e-20)
(0.559068 -0.286636 0)
(0.665021 -0.26687 -2.89788e-19)
(0.765178 -0.248296 1.69895e-23)
(0.859806 -0.23089 -1.58383e-23)
(0.949184 -0.214622 1.86796e-19)
(1.0336 -0.199453 0)
(1.11336 -0.185341 -1.82636e-19)
(1.18876 -0.172238 1.21565e-23)
(1.26011 -0.160088 0)
(1.3277 -0.148835 0)
(1.3918 -0.138413 0)
(1.45267 -0.128758 1.72545e-19)
(1.51056 -0.119801 0)
(1.56567 -0.111476 0)
(1.6182 -0.103719 0)
(1.6683 -0.0964721 0)
(1.71613 -0.0896851 0)
(1.76181 -0.0833148 1.60963e-19)
(1.80545 -0.077326 0)
(1.84713 -0.0716911 1.57206e-19)
(1.88695 -0.0663884 1.55349e-19)
(1.92499 -0.0614014 -1.53506e-19)
(1.9613 -0.0567169 0)
(1.99596 -0.0523234 -1.49858e-19)
(2.02903 -0.0482111 0)
(2.06056 -0.0443698 -1.46259e-19)
(2.0906 -0.0407885 1.44479e-19)
(2.11921 -0.0374565 4.28134e-19)
(2.14644 -0.0343604 0)
(2.17232 -0.0314882 4.17629e-19)
(2.19691 -0.0288257 1.37479e-19)
(2.22025 -0.0263622 0)
(2.24236 -0.0240915 2.68091e-19)
(2.2633 -0.0220008 2.64694e-19)
(2.2831 -0.0200775 -3.91979e-19)
(2.30181 -0.0183089 0)
(2.31946 -0.016682 -1.27319e-19)
(2.33607 -0.0151842 -1.25665e-19)
(2.3517 -0.0138067 -3.72069e-19)
(2.36636 -0.0125402 0)
(2.3801 -0.0113728 0)
(2.39296 -0.0102972 0)
(2.40497 -0.0093096 -1.17562e-19)
(2.41617 -0.00839866 0)
(2.42662 -0.00754345 0)
(2.43634 -0.00675367 1.12825e-19)
(2.44537 -0.00603037 1.11267e-19)
(2.45376 -0.00536843 0)
(2.46154 -0.00476337 0)
(2.46874 -0.0042122 2.13305e-19)
(2.47538 -0.00371349 0)
(2.4815 -0.00326194 -2.07251e-19)
(2.48713 -0.00285896 -2.04254e-19)
(2.4923 -0.00250259 0)
(2.49704 -0.00218891 0)
(2.50138 -0.00191501 1.95375e-19)
(2.50534 -0.0016756 -1.246e-25)
(2.50896 -0.00146443 -1.09796e-25)
(2.51225 -0.00127621 0)
(2.51525 -0.00110754 3.67593e-19)
(2.51797 -0.000956641 0)
(2.52045 -0.000822407 0)
(2.52269 -0.000703182 0)
(2.52473 -0.000596209 -1.72504e-19)
(2.52657 -0.000497916 0)
(2.52824 -0.000404753 3.33923e-19)
(2.52975 -0.000314004 1.64215e-19)
(2.53111 -0.000224172 0)
(2.53233 -0.000134852 1.58772e-19)
(2.53342 -4.63079e-05 0)
(2.53438 4.10926e-05 0)
(2.53523 0.000127185 4.52189e-19)
(2.53597 0.000212423 -2.96161e-19)
(2.5366 0.000297582 0)
(2.53714 0.000384445 -2.85656e-19)
(2.53758 0.000474474 1.40224e-19)
(2.53792 0.000571204 0)
(2.53817 0.000676005 0)
(2.53832 0.000795866 0)
(2.53838 0.00093013 3.89877e-19)
(2.53833 0.00109431 0)
(2.53815 0.00127964 1.24912e-19)
(2.53785 0.0015244 0)
(2.53737 0.00179381 0)
(2.53675 0.00218716 0)
(2.53583 0.00258911 0)
(2.53474 0.00326468 0)
(2.53314 0.00386286 0)
(2.53136 0.00510149 2.15362e-19)
(2.52857 0.00596731 0)
(2.52579 0.0084019 1.02876e-19)
(2.52082 0.00958942 -3.01482e-19)
(2.51659 0.0147397 0)
(2.50743 0.016306 0)
(2.5014 0.0281052 1.86855e-19)
(2.48413 0.0307617 1.82202e-19)
(2.47706 0.0598125 -1.77591e-19)
(2.44754 0.0685195 -1.7305e-19)
(-0.0070896 -0.157811 -3.15547e-19)
(-0.0493774 -0.155864 -3.13283e-19)
(-0.0893438 -0.149519 -2.07332e-19)
(-0.132432 -0.141298 -1.02937e-19)
(-0.177025 -0.132219 0)
(-0.22462 -0.121472 2.02704e-19)
(-0.275526 -0.10825 -1.00624e-19)
(-0.330636 -0.0911708 0)
(-0.390656 -0.0688618 -9.90333e-20)
(-0.455928 -0.0401646 0)
(-0.526757 -0.00436288 1.95088e-19)
(-0.603804 0.0393884 0)
(-0.687402 0.0918865 9.60148e-20)
(-0.777793 0.153542 1.90515e-19)
(-0.875012 0.224053 -1.89e-19)
(-0.978619 0.302646 0)
(-1.08814 0.388258 -1.8597e-19)
(-1.20294 0.479637 0)
(-1.32208 0.575277 0)
(-1.44421 0.673158 -1.8143e-19)
(-1.56748 0.770646 0)
(-1.6895 0.864638 -3.71649e-23)
(-1.80755 0.951636 0)
(-1.91919 1.02806 0)
(-2.02313 1.09081 9.34188e-23)
(-2.11983 1.1378 -1.72566e-19)
(-2.21168 1.16838 -1.71289e-19)
(-2.30233 1.18339 -1.69752e-19)
(-2.39579 1.18491 0)
(-2.49558 1.17573 -3.34265e-19)
(-2.60412 1.15868 0)
(-2.72255 1.13588 -1.64634e-19)
(-2.85081 1.10862 0)
(-2.98775 1.07737 0)
(-3.13151 1.04213 1.60869e-19)
(-3.27973 1.00251 0)
(-3.42983 0.957937 -1.58441e-19)
(-3.57908 0.907712 2.89913e-22)
(-3.72478 0.851103 3.11823e-19)
(-3.86427 0.787465 -3.09761e-19)
(-3.99495 0.71629 0)
(-4.11425 0.637384 0)
(-4.21969 0.550953 -1.51655e-19)
(-4.30898 0.457653 0)
(-4.38001 0.358559 -1.48523e-19)
(-4.43084 0.255162 1.47258e-19)
(-4.4599 0.149321 1.45965e-19)
(-4.46683 0.0431943 0)
(-4.45213 -0.0607502 -1.43257e-19)
(-4.41644 -0.16064 -1.41831e-19)
(-4.36083 -0.254108 2.81319e-19)
(-4.28677 -0.33922 -1.38912e-19)
(-4.19614 -0.414552 -1.37428e-19)
(-4.09131 -0.479389 0)
(-3.97468 -0.533719 0)
(-3.84861 -0.578217 1.32933e-19)
(-3.71519 -0.614167 0)
(-3.57609 -0.643366 0)
(-3.43245 -0.667941 -2.56928e-19)
(-3.28467 -0.690092 -2.53984e-19)
(-3.13236 -0.711826 0)
(-2.97427 -0.73464 0)
(-2.8086 -0.759186 0)
(-2.63343 -0.784967 0)
(-2.44749 -0.810213 -2.39585e-19)
(-2.2507 -0.832123 2.36988e-19)
(-2.04466 -0.847589 2.34019e-19)
(-1.83248 -0.854071 4.62758e-19)
(-1.61815 -0.850347 0)
(-1.40555 -0.83668 1.22837e-22)
(-1.19783 -0.814377 0)
(-0.997391 -0.785235 -2.20904e-19)
(-0.805816 -0.7513 7.7046e-23)
(-0.624 -0.714422 -2.16003e-19)
(-0.452286 -0.676132 2.13619e-19)
(-0.290582 -0.637636 5.19657e-23)
(-0.138563 -0.599752 0)
(0.0037853 -0.56332 2.06702e-19)
(0.137145 -0.528762 2.04343e-19)
(0.262862 -0.495414 4.04118e-19)
(0.381655 -0.463716 0)
(0.49409 -0.43364 -1.97569e-19)
(0.600705 -0.405155 0)