/*--------------------------------*- C++ -*----------------------------------*\
  =========                 |
  \\      /  F ield         | OpenFOAM: The Open Source CFD Toolbox
   \\    /   O peration     | Website:  https://openfoam.org
    \\  /    A nd           | Version:  7
     \\/     M anipulation  |
\*---------------------------------------------------------------------------*/
FoamFile
{
    version     2.0;
    format      ascii;
    class       volVectorField;
    location    "0.032";
    object      U_0;
}
// * * * * * * * * * * * * * * * * * * * * * * * * * * * * * * * * * * * * * //

dimensions      [0 1 -1 0 0 0 0];

internalField   nonuniform List<vector> 
12225
(
(4.93452 0.170898 0)
(4.21458 0.120514 0)
(3.68074 0.106507 0)
(3.28856 0.0862069 0)
(2.96234 0.0747017 0)
(2.65213 0.070136 0)
(2.33625 0.0642234 0)
(2.03055 0.0522261 0)
(1.76009 0.0381889 0)
(1.53332 0.0270259 0)
(1.34463 0.0196132 0)
(1.18969 0.0145054 0)
(1.05834 0.0102825 0)
(0.951231 0.00670885 0)
(0.853237 0.00392429 0)
(0.779057 0.00145981 0)
(0.69757 0.00420852 0)
(0.649392 -0.00900872 0)
(5.08771 0.134092 0)
(4.93238 0.103555 0)
(4.76227 0.103395 0)
(4.61244 0.0899194 0)
(4.493 0.080873 0)
(4.39566 0.0818353 0)
(4.29629 0.091422 0)
(4.17704 0.0999792 0)
(4.03779 0.100143 0)
(3.89295 0.0931596 0)
(3.75375 0.0837605 0)
(3.6288 0.0753952 0)
(3.51144 0.0692962 0)
(3.40337 0.0647023 0)
(3.29153 0.0624448 0)
(3.18916 0.0581646 0)
(3.06201 0.0596678 0)
(2.97506 0.0507867 0)
(4.95595 0.161572 0)
(4.85825 0.144962 0)
(4.78229 0.165247 0)
(4.74924 0.150597 0)
(4.72108 0.129625 0)
(4.69169 0.120724 0)
(4.6759 0.124126 0)
(4.66904 0.130282 0)
(4.65383 0.129988 0)
(4.62226 0.121972 0)
(4.57942 0.110096 0)
(4.53428 0.0991653 0)
(4.49242 0.0918192 0)
(4.45223 0.0880777 0)
(4.41281 0.0870889 0)
(4.36829 0.0889066 0)
(4.32066 0.0926405 0)
(4.26346 0.0936319 0)
(4.9884 0.201245 0)
(4.82311 0.145705 0)
(4.77736 0.131525 0)
(4.78828 0.119819 0)
(4.7752 0.109899 0)
(4.73918 0.101043 0)
(4.71517 0.099621 0)
(4.71367 0.105881 0)
(4.72281 0.112999 0)
(4.72952 0.114888 0)
(4.73115 0.1108 0)
(4.72957 0.103789 0)
(4.72806 0.0979407 0)
(4.724 0.0946112 0)
(4.71745 0.0950584 0)
(4.7035 0.0982985 0)
(4.68764 0.104419 0)
(4.6631 0.110341 0)
(4.98506 0.22929 0)
(4.90879 0.178152 0)
(4.84797 0.149312 0)
(4.80057 0.144659 0)
(4.77535 0.142691 0)
(4.7529 0.134498 0)
(4.73333 0.126779 0)
(4.725 0.123749 0)
(4.73042 0.122032 0)
(4.74401 0.116751 0)
(4.75889 0.107414 0)
(4.76969 0.0974388 0)
(4.77526 0.0912713 0)
(4.7748 0.0904608 0)
(4.76997 0.0949148 0)
(4.76124 0.102759 0)
(4.75162 0.112225 0)
(4.74064 0.120932 0)
(4.93832 0.23177 0)
(4.91324 0.186805 0)
(4.8483 0.154533 0)
(4.81724 0.144393 0)
(4.83019 0.134265 0)
(4.84794 0.120644 0)
(4.84986 0.111012 0)
(4.83918 0.108529 0)
(4.82725 0.109033 0)
(4.81922 0.10777 0)
(4.81333 0.104211 0)
(4.80554 0.100616 0)
(4.79475 0.0994567 0)
(4.78173 0.101247 0)
(4.76888 0.105379 0)
(4.75793 0.111154 0)
(4.75014 0.117175 0)
(4.74521 0.123336 0)
(4.95384 0.216762 0)
(4.98793 0.186963 0)
(4.94248 0.166594 0)
(4.88348 0.150473 0)
(4.85839 0.137297 0)
(4.85707 0.129617 0)
(4.85638 0.128706 0)
(4.8449 0.130427 0)
(4.82584 0.128618 0)
(4.80675 0.121068 0)
(4.79204 0.110762 0)
(4.78186 0.102256 0)
(4.77495 0.0984659 0)
(4.76973 0.0995813 0)
(4.76565 0.104051 0)
(4.76243 0.110378 0)
(4.76052 0.116802 0)
(4.75946 0.123281 0)
(5.08665 0.239477 0)
(5.02816 0.210645 0)
(4.95444 0.181207 0)
(4.90399 0.163615 0)
(4.89158 0.140738 0)
(4.89859 0.120491 0)
(4.90567 0.114799 0)
(4.9024 0.120411 0)
(4.88925 0.125843 0)
(4.8723 0.124562 0)
(4.85679 0.118337 0)
(4.84439 0.112135 0)
(4.8345 0.109304 0)
(4.82522 0.110186 0)
(4.8156 0.113112 0)
(4.80531 0.116943 0)
(4.79603 0.120341 0)
(4.78801 0.1239 0)
(4.89061 0.214692 0)
(4.9785 0.219403 0)
(4.97326 0.197244 0)
(4.95983 0.17262 0)
(4.94734 0.147112 0)
(4.9219 0.130722 0)
(4.8923 0.129992 0)
(4.87182 0.13783 0)
(4.86332 0.141618 0)
(4.86235 0.135321 0)
(4.8638 0.122473 0)
(4.86465 0.110612 0)
(4.86407 0.104991 0)
(4.86202 0.106468 0)
(4.85899 0.112294 0)
(4.85467 0.119315 0)
(4.85081 0.125037 0)
(4.84567 0.128454 0)
(5.01009 0.232966 0)
(4.96558 0.21159 0)
(4.94089 0.188851 0)
(4.95279 0.167061 0)
(4.959 0.152199 0)
(4.9407 0.142825 0)
(4.9199 0.137611 0)
(4.91684 0.134457 0)
(4.93006 0.130555 0)
(4.9449 0.12483 0)
(4.94876 0.118808 0)
(4.93861 0.114956 0)
(4.92021 0.114523 0)
(4.90102 0.117019 0)
(4.88696 0.120943 0)
(4.87872 0.124731 0)
(4.87613 0.127754 0)
(4.87523 0.130048 0)
(4.96516 0.253364 0)
(4.95008 0.238452 0)
(4.93028 0.186419 0)
(4.92427 0.159312 0)
(4.91277 0.153225 0)
(4.90142 0.148611 0)
(4.90429 0.13999 0)
(4.92133 0.131275 0)
(4.94219 0.126081 0)
(4.95646 0.124574 0)
(4.95932 0.12489 0)
(4.95109 0.125279 0)
(4.93638 0.125053 0)
(4.91958 0.124577 0)
(4.90519 0.12426 0)
(4.89461 0.124679 0)
(4.88904 0.125627 0)
(4.88731 0.127699 0)
(4.97912 0.264327 0)
(4.99954 0.250909 0)
(4.98249 0.202393 0)
(4.95633 0.17492 0)
(4.94702 0.161789 0)
(4.9553 0.147394 0)
(4.96754 0.130846 0)
(4.97241 0.118182 0)
(4.96778 0.113512 0)
(4.957 0.116371 0)
(4.94391 0.123512 0)
(4.93068 0.131368 0)
(4.91905 0.137413 0)
(4.90968 0.140554 0)
(4.9039 0.140355 0)
(4.90106 0.137829 0)
(4.90247 0.133569 0)
(4.90509 0.129691 0)
(5.02452 0.242067 0)
(5.04155 0.238392 0)
(5.02694 0.19945 0)
(5.02763 0.173342 0)
(5.02791 0.153151 0)
(5.02042 0.136962 0)
(5.00619 0.129727 0)
(4.98953 0.130249 0)
(4.97629 0.134051 0)
(4.96908 0.137622 0)
(4.96631 0.13902 0)
(4.9643 0.137752 0)
(4.96123 0.134403 0)
(4.95642 0.130151 0)
(4.9527 0.125996 0)
(4.95053 0.122767 0)
(4.95312 0.120571 0)
(4.9577 0.120611 0)
(4.97642 0.302927 0)
(5.00404 0.260021 0)
(5.00836 0.204791 0)
(5.01091 0.172618 0)
(4.99875 0.164149 0)
(4.97633 0.161319 0)
(4.96221 0.152589 0)
(4.96606 0.137673 0)
(4.98434 0.124184 0)
(5.00612 0.119492 0)
(5.02075 0.125159 0)
(5.02209 0.137037 0)
(5.01124 0.148853 0)
(4.99304 0.15502 0)
(4.97554 0.152871 0)
(4.96376 0.144042 0)
(4.96174 0.130628 0)
(4.96801 0.119226 0)
(4.97357 0.25724 0)
(5.00193 0.221403 0)
(4.99212 0.197146 0)
(4.97688 0.185627 0)
(4.9631 0.176278 0)
(4.96281 0.157074 0)
(4.97347 0.131048 0)
(4.98103 0.109596 0)
(4.97944 0.101989 0)
(4.97312 0.109364 0)
(4.96958 0.125994 0)
(4.97319 0.143565 0)
(4.98422 0.154822 0)
(5.00024 0.155722 0)
(5.0174 0.14589 0)
(5.03275 0.129446 0)
(5.04434 0.110573 0)
(5.05066 0.095778 0)
(5.11819 0.324288 0)
(5.08136 0.286016 0)
(5.05514 0.220284 0)
(5.03365 0.188377 0)
(5.02174 0.166573 0)
(5.01558 0.150664 0)
(5.00807 0.143463 0)
(4.99522 0.141737 0)
(4.98205 0.139624 0)
(4.9766 0.134382 0)
(4.98385 0.127658 0)
(5.00316 0.122564 0)
(5.02903 0.119986 0)
(5.05416 0.119031 0)
(5.07192 0.117715 0)
(5.07947 0.115518 0)
(5.07697 0.11251 0)
(5.06724 0.108849 0)
(4.93544 0.318102 0)
(5.01451 0.262258 0)
(5.03842 0.229234 0)
(5.02382 0.220532 0)
(4.99576 0.20253 0)
(4.97856 0.176551 0)
(4.97564 0.150636 0)
(4.98372 0.129436 0)
(4.99841 0.112664 0)
(5.01512 0.0983954 0)
(5.03179 0.087228 0)
(5.04798 0.0821 0)
(5.06328 0.0849245 0)
(5.07615 0.095214 0)
(5.08606 0.108837 0)
(5.09201 0.121557 0)
(5.09566 0.12932 0)
(5.09645 0.129777 0)
(4.95734 0.211053 0)
(4.96634 0.181102 0)
(4.9648 0.215757 0)
(4.96813 0.224372 0)
(4.99677 0.200929 0)
(5.03347 0.166479 0)
(5.05878 0.135844 0)
(5.07123 0.114474 0)
(5.07435 0.100756 0)
(5.0712 0.0910617 0)
(5.06623 0.0837648 0)
(5.06395 0.0795259 0)
(5.06693 0.0794089 0)
(5.07552 0.0836595 0)
(5.08976 0.0902238 0)
(5.10738 0.0963647 0)
(5.1275 0.0992597 0)
(5.14562 0.0974729 0)
(5.02172 0.218138 0)
(5.04834 0.270425 0)
(5.04336 0.258696 0)
(5.06449 0.19146 0)
(5.09873 0.126795 0)
(5.12357 0.0929565 0)
(5.13796 0.0916598 0)
(5.14737 0.106833 0)
(5.15198 0.119035 0)
(5.15125 0.118034 0)
(5.14722 0.104297 0)
(5.14287 0.0838894 0)
(5.14123 0.0635906 0)
(5.14448 0.0479502 0)
(5.15407 0.039193 0)
(5.16875 0.0370203 0)
(5.18689 0.0401668 0)
(5.20466 0.0475638 0)
(4.98589 0.198805 0)
(5.06144 0.19252 0)
(5.08014 0.168562 0)
(5.09892 0.129156 0)
(5.10387 0.102921 0)
(5.09068 0.0919489 0)
(5.07979 0.0888735 0)
(5.07863 0.0898314 0)
(5.08405 0.0934328 0)
(5.09322 0.0972913 0)
(5.1046 0.0971338 0)
(5.11654 0.0891953 0)
(5.12844 0.0731658 0)
(5.14029 0.0522929 0)
(5.15254 0.0317392 0)
(5.16526 0.0164753 0)
(5.1783 0.00854323 0)
(5.19135 0.010008 0)
(5.05637 0.301842 0)
(5.10899 0.206684 0)
(5.10662 0.18439 0)
(5.11428 0.172992 0)
(5.12472 0.147858 0)
(5.13402 0.121073 0)
(5.1471 0.104077 0)
(5.15984 0.0966348 0)
(5.16873 0.0918209 0)
(5.17638 0.0833888 0)
(5.18563 0.068705 0)
(5.19566 0.0487995 0)
(5.20413 0.0270853 0)
(5.20942 0.00754095 0)
(5.21159 -0.00699348 0)
(5.2119 -0.014847 0)
(5.21239 -0.0165474 0)
(5.21532 -0.0120327 0)
(4.96139 0.31302 0)
(5.02744 0.188213 0)
(5.04633 0.134241 0)
(5.0732 0.11137 0)
(5.09815 0.0930892 0)
(5.11092 0.078072 0)
(5.12191 0.072592 0)
(5.13717 0.0756416 0)
(5.15894 0.0799143 0)
(5.18818 0.079476 0)
(5.22112 0.0730344 0)
(5.25068 0.0629102 0)
(5.27121 0.0511203 0)
(5.28093 0.0383986 0)
(5.2815 0.0250259 0)
(5.27691 0.0120536 0)
(5.27116 4.94699e-05 0)
(5.2675 -0.00883005 0)
(5.00115 0.318446 0)
(5.05273 0.191837 0)
(5.07718 0.140418 0)
(5.10017 0.123461 0)
(5.12506 0.10235 0)
(5.13767 0.0793029 0)
(5.14847 0.0599424 0)
(5.16985 0.0425051 0)
(5.20415 0.0241146 0)
(5.24639 0.00607882 0)
(5.28921 -0.0075561 0)
(5.32562 -0.0135539 0)
(5.351 -0.0118534 0)
(5.36457 -0.00558215 0)
(5.36784 -6.96895e-05 0)
(5.36271 0.00152519 0)
(5.35224 -0.00180424 0)
(5.33958 -0.00846044 0)
(4.92165 0.296931 0)
(5.00326 0.152366 0)
(5.05708 0.102568 0)
(5.12157 0.0937329 0)
(5.18516 0.0906935 0)
(5.23137 0.0781091 0)
(5.26236 0.0573083 0)
(5.28545 0.0333307 0)
(5.30501 0.0117545 0)
(5.3217 -0.00408149 0)
(5.33441 -0.0103106 0)
(5.34351 -0.00645392 0)
(5.35098 0.00443286 0)
(5.35762 0.0177104 0)
(5.36365 0.0279258 0)
(5.3693 0.0327316 0)
(5.37554 0.0308059 0)
(5.38204 0.0230992 0)
(4.99837 0.251651 0)
(5.04048 0.117265 0)
(5.11059 0.0529508 0)
(5.16554 0.0283631 0)
(5.20886 0.0162422 0)
(5.24624 0.0085699 0)
(5.28896 0.00339521 0)
(5.33485 -0.00220451 0)
(5.37233 -0.010685 0)
(5.3943 -0.0212548 0)
(5.40248 -0.0292335 0)
(5.40202 -0.0304491 0)
(5.39916 -0.0252639 0)
(5.39839 -0.0174607 0)
(5.4026 -0.0114588 0)
(5.41102 -0.00987981 0)
(5.42239 -0.0137589 0)
(5.43422 -0.0220387 0)
(5.12985 0.277227 0)
(5.1784 0.108105 0)
(5.20374 0.052336 0)
(5.22116 0.0579347 0)
(5.25206 0.0526829 0)
(5.29191 0.0272953 0)
(5.33295 -0.00184518 0)
(5.36667 -0.0205018 0)
(5.38662 -0.0263908 0)
(5.39399 -0.0224061 0)
(5.39601 -0.0138269 0)
(5.40073 -0.00401959 0)
(5.41356 0.00489909 0)
(5.43589 0.0112128 0)
(5.46575 0.0136242 0)
(5.49809 0.0111992 0)
(5.52922 0.00439956 0)
(5.55305 -0.00524058 0)
(4.93593 0.193204 0)
(5.12395 0.0660596 0)
(5.20251 0.0306565 0)
(5.24859 0.00469878 0)
(5.29742 -0.025406 0)
(5.34529 -0.0443537 0)
(5.38068 -0.0469814 0)
(5.40275 -0.0405928 0)
(5.41604 -0.0341856 0)
(5.42575 -0.0325132 0)
(5.43649 -0.0359999 0)
(5.45166 -0.0423519 0)
(5.47299 -0.0489322 0)
(5.5002 -0.0542753 0)
(5.53081 -0.0576426 0)
(5.56024 -0.0590609 0)
(5.58518 -0.058806 0)
(5.60197 -0.0571749 0)
(5.05477 0.132464 0)
(5.18882 0.0488636 0)
(5.35621 0.0410318 0)
(5.46046 0.02306 0)
(5.50667 -0.000962521 0)
(5.51755 -0.0187919 0)
(5.51884 -0.0279369 0)
(5.5279 -0.0316976 0)
(5.54509 -0.0318408 0)
(5.5622 -0.0296772 0)
(5.5736 -0.0275948 0)
(5.5799 -0.0274628 0)
(5.58538 -0.0292642 0)
(5.59347 -0.0316198 0)
(5.60469 -0.0328187 0)
(5.61718 -0.0324588 0)
(5.62883 -0.030761 0)
(5.63832 -0.0293559 0)
(5.07832 0.0877639 0)
(5.30588 -0.0336718 0)
(5.43778 -0.0462168 0)
(5.48589 -0.0573044 0)
(5.50407 -0.0595056 0)
(5.50926 -0.0570327 0)
(5.50858 -0.0557546 0)
(5.50825 -0.0559937 0)
(5.50911 -0.0544816 0)
(5.50944 -0.0507589 0)
(5.50876 -0.0482078 0)
(5.50833 -0.0501797 0)
(5.50833 -0.0567204 0)
(5.50797 -0.0650275 0)
(5.50497 -0.0713483 0)
(5.49878 -0.0737888 0)
(5.48801 -0.0722611 0)
(5.47523 -0.0684776 0)
(5.00593 0.0909584 0)
(5.18618 -0.00779387 0)
(5.13616 -0.00424324 0)
(4.99319 -0.0112059 0)
(4.85057 -0.0182581 0)
(4.72669 -0.0213955 0)
(4.60984 -0.0248622 0)
(4.48988 -0.0287466 0)
(4.37039 -0.0298733 0)
(4.26086 -0.0280573 0)
(4.16366 -0.0263852 0)
(4.07169 -0.0271286 0)
(3.97515 -0.0294291 0)
(3.87097 -0.0305586 0)
(3.7631 -0.0287443 0)
(3.66009 -0.0244936 0)
(3.56614 -0.0195641 0)
(3.48596 -0.0164879 0)
(0.0208626 -0.0564471 4.07614e-20)
(0.0820634 -0.0876611 -4.04632e-20)
(0.154565 -0.0932027 0)
(0.224042 -0.0921582 0)
(0.291999 -0.0898546 0)
(0.358671 -0.0876932 3.92287e-20)
(0.424108 -0.0858089 0)
(0.488369 -0.0839911 0)
(0.551348 -0.0819579 0)
(0.612643 -0.0794361 0)
(0.671601 -0.076225 -3.76833e-20)
(0.72734 -0.0721618 0)
(0.778802 -0.0672212 0)
(0.82486 -0.0614893 0)
(0.864248 -0.0550971 0)
(0.895299 -0.0481916 -3.61503e-20)
(0.916418 -0.0407759 0)
(0.925811 -0.0338914 0)
(0.92086 -0.0309433 0)
(0.90112 -0.0336828 0)
(0.866161 -0.0397472 0)
(0.81466 -0.0437455 0)
(0.743147 -0.03658 0)
(0.643469 -0.00992963 -3.3796e-20)
(0.505369 0.0366873 3.35281e-20)
(0.321198 0.0963866 -3.32673e-20)
(0.0942449 0.162754 -3.30049e-20)
(-0.167806 0.224658 0)
(-0.458622 0.268775 0)
(-0.765449 0.291 3.20891e-20)
(-1.07402 0.296116 3.17639e-20)
(-1.37627 0.290826 0)
(-1.66855 0.279947 0)
(-1.9487 0.266338 3.0759e-20)
(-2.21573 0.25142 0)
(-2.469 0.235756 0)
(-2.70801 0.219675 -2.97399e-20)
(-2.93228 0.203413 0)
(-3.14133 0.187078 -2.90703e-20)
(-3.33451 0.170598 -5.74842e-20)
(-3.51102 0.153744 0)
(-3.66985 0.13638 0)
(-3.80984 0.118529 0)
(-3.9299 0.100304 0)
(-4.02911 0.0818941 0)
(-4.10667 0.0635192 -5.3881e-20)
(-4.16199 0.0453803 -5.33551e-20)
(-4.19477 0.0278062 -5.28535e-20)
(-4.20501 0.0113069 0)
(-4.19345 -0.0037801 5.19197e-20)
(-4.16296 -0.0174856 0)
(-4.11362 -0.0299299 -5.1072e-20)
(-4.04748 -0.0409791 -5.06763e-20)
(-3.9661 -0.0507257 0)
(-3.87114 -0.0591297 0)
(-3.76438 -0.0662901 0)
(-3.64726 -0.0723507 -4.9223e-20)
(-3.52111 -0.0774761 0)
(-3.38691 -0.081906 0)
(-3.24532 -0.0858579 0)
(-3.09666 -0.0895385 0)
(-2.94101 -0.0930864 0)
(-2.77836 -0.0965413 0)
(-2.60874 -0.0998354 0)
(-2.43244 -0.102796 0)
(-2.25013 -0.105182 4.62306e-20)
(-2.06292 -0.106743 0)
(-1.87236 -0.107271 0)
(-1.6802 -0.106652 -4.52156e-20)
(-1.48831 -0.104877 -4.48658e-20)
(-1.29851 -0.102035 0)
(-1.11247 -0.0982745 4.4145e-20)
(-0.931636 -0.0937967 -4.37739e-20)
(-0.757161 -0.0888188 0)
(-0.589909 -0.0835154 4.30117e-20)
(-0.430395 -0.0780472 0)
(-0.278937 -0.0725791 0)
(-0.135583 -0.0671259 -4.18284e-20)
(-0.00103336 -0.0618641 0)
(0.124998 -0.0569141 4.10041e-20)
(0.243614 -0.0521159 0)
(0.354799 -0.0475367 -4.01577e-20)
(0.458798 -0.0431987 -3.97351e-20)
(0.55589 -0.0391095 -3.93134e-20)
(0.646381 -0.0352696 -7.77859e-20)
(0.730589 -0.0316754 7.69481e-20)
(0.808835 -0.0283214 0)
(0.881443 -0.0252 0)
(0.948731 -0.0223029 0)
(1.01101 -0.0196205 7.36364e-20)
(1.06858 -0.017142 7.282e-20)
(1.12173 -0.0148559 -7.20087e-20)
(1.17073 -0.0127502 0)
(1.21585 -0.0108123 7.0402e-20)
(1.25731 -0.00902996 6.96067e-20)
(1.29534 -0.00739162 6.8817e-20)
(1.33013 -0.00588681 0)
(1.36187 -0.00450658 0)
(1.39072 -0.0032435 0)
(1.41685 -0.00209193 6.57135e-20)
(1.4404 -0.0010474 0)
(1.46151 -0.000106739 0)
(1.48032 0.000732535 -6.34438e-20)
(1.49697 0.00147318 0)
(1.51159 0.00211684 0)
(1.52433 0.00266718 -6.12228e-20)
(1.53532 0.00312764 0)
(1.5447 0.00350085 0)
(1.5526 0.00379548 5.90493e-20)
(1.55915 0.00401253 5.83351e-20)
(1.56451 0.00415962 0)
(1.56876 0.00425339 -5.69219e-20)
(1.57204 0.00428527 0)
(1.57449 0.00428015 5.55285e-20)
(1.57612 0.00427454 0)
(1.57703 0.00424977 5.41544e-20)
(1.57734 0.00418779 5.34745e-20)
(1.57711 0.00409211 0)
(1.57643 0.00397072 0)
(1.57539 0.00383062 0)
(1.57403 0.00367774 0)
(1.57243 0.00351578 0)
(1.57063 0.00335185 0)
(1.56866 0.0031954 0)
(1.56655 0.00304388 4.8201e-20)
(1.56433 0.00288671 -4.75618e-20)
(1.56204 0.00272008 0)
(1.55969 0.00256226 0)
(1.55728 0.00241755 0)
(1.55482 0.00228516 0)
(1.55233 0.00216415 -8.8858e-20)
(1.54981 0.00205312 0)
(1.54727 0.00195107 8.64094e-20)
(1.54471 0.00185632 -8.51971e-20)
(1.54215 0.00176605 0)
(1.53959 0.0016775 0)
(1.53705 0.00158956 0)
(1.53454 0.00150322 8.04259e-20)
(1.53206 0.00142112 7.92523e-20)
(1.52963 0.00134631 0)
(1.52723 0.00128086 7.69274e-20)
(1.52487 0.00122525 7.57761e-20)
(1.52254 0.00117842 -7.4632e-20)
(1.52023 0.00113841 0)
(1.51793 0.00110316 0)
(1.51565 0.00107104 -7.12426e-20)
(1.51337 0.00104111 0)
(1.51109 0.00101303 0)
(1.50882 0.000986897 0)
(1.50654 0.000963032 0)
(1.50425 0.000941732 6.5732e-20)
(1.50195 0.00092325 6.46499e-20)
(1.49963 0.000907707 0)
(1.49729 0.000895234 6.25053e-20)
(1.49493 0.000885907 0)
(1.49253 0.000879952 0)
(1.49009 0.000877607 5.93362e-20)
(1.48761 0.000879328 0)
(1.48506 0.00088564 5.72545e-20)
(1.48245 0.000897309 0)
(1.47973 0.000915407 0)
(1.47693 0.000941068 5.41772e-20)
(1.47395 0.000976672 0)
(1.47086 0.00102337 5.21553e-20)
(1.46746 0.00108727 0)
(1.46395 0.00116635 0)
(1.45986 0.00127826 0)
(1.45569 0.00140629 -4.81812e-20)
(1.45044 0.00160585 0)
(1.44521 0.00180594 4.62291e-20)
(1.438 0.00218529 0)
(1.43091 0.00247873 0)
(1.42042 0.0032766 0)
(1.40948 0.00363226 0)
(1.39396 0.00553738 0)
(1.37332 0.0056676 0)
(1.35201 0.0108051 0)
(1.30195 0.0094127 -7.73858e-20)
(1.28282 0.0260496 0)
(1.12878 0.0197278 0)
(0.0192258 -0.162804 -1.22303e-19)
(0.0522406 -0.209818 1.21414e-19)
(0.0850723 -0.208212 0)
(0.116018 -0.200892 -7.97354e-20)
(0.146953 -0.194308 0)
(0.177361 -0.188853 -3.92469e-20)
(0.207087 -0.184036 7.79091e-20)
(0.235679 -0.179149 7.72992e-20)
(0.262543 -0.173448 0)
(0.286784 -0.166192 7.60788e-20)
(0.307296 -0.156702 3.77217e-20)
(0.322518 -0.144395 0)
(0.330672 -0.128803 0)
(0.329577 -0.109389 0)
(0.316689 -0.0850621 0)
(0.289227 -0.054681 3.62129e-20)
(0.245252 -0.0179413 0)
(0.182684 0.0249253 -7.12646e-20)
(0.0994337 0.0732287 0)
(-0.00841352 0.127362 0)
(-0.144349 0.188906 6.94753e-20)
(-0.310106 0.260029 0)
(-0.503097 0.341772 -6.82275e-20)
(-0.718712 0.431555 3.37965e-20)
(-0.9506 0.522327 -3.34887e-20)
(-1.19076 0.604186 3.31837e-20)
(-1.43047 0.668073 3.28806e-20)
(-1.66493 0.708888 0)
(-1.89199 0.725508 0)
(-2.11115 0.721759 -3.19635e-20)
(-2.32196 0.703638 3.15752e-20)
(-2.52443 0.676336 0)
(-2.71868 0.643938 0)
(-2.90465 0.60906 -3.06733e-20)
(-3.08232 0.573194 0)
(-3.25163 0.537038 0)
(-3.41239 0.500804 2.96789e-20)
(-3.56424 0.46436 0)
(-3.70664 0.427327 -2.8954e-20)
(-3.83891 0.38923 5.74006e-20)
(-3.96016 0.349683 0)
(-4.06929 0.308448 0)
(-4.16508 0.265465 1.10948e-19)
(-4.24622 0.220826 1.09777e-19)
(-4.31146 0.174795 1.08647e-19)
(-4.35978 0.127831 -5.37139e-20)
(-4.39041 0.0805613 5.33279e-20)
(-4.40287 0.0338216 1.58369e-19)
(-4.39712 -0.011356 -1.04594e-19)
(-4.37312 -0.0540881 -5.18995e-20)
(-4.32949 -0.0937728 0)
(-4.26846 -0.130012 5.10512e-20)
(-4.1909 -0.162442 -5.05737e-20)
(-4.0986 -0.190959 0)
(-3.99337 -0.21555 0)
(-3.87685 -0.236441 0)
(-3.75071 -0.25405 4.92027e-20)
(-3.61624 -0.268944 0)
(-3.47444 -0.281812 -9.70025e-20)
(-3.32588 -0.293354 0)
(-3.17076 -0.304203 -9.56749e-20)
(-3.00893 -0.314793 0)
(-2.8401 -0.325269 9.43601e-20)
(-2.66407 -0.335434 0)
(-2.4809 -0.344757 -9.30498e-20)
(-2.29118 -0.35247 4.61792e-20)
(-2.09607 -0.357737 0)
(-1.89722 -0.359865 9.10589e-20)
(-1.69661 -0.358471 4.52002e-20)
(-1.49628 -0.353536 4.48514e-20)
(-1.29816 -0.345342 0)
(-1.10397 -0.334373 4.41195e-20)
(-0.915144 -0.321244 4.37633e-20)
(-0.732757 -0.306603 0)
(-0.557554 -0.291004 -4.30038e-20)
(-0.389942 -0.274894 8.52233e-20)
(-0.230085 -0.258764 0)
(-0.0780051 -0.242764 4.18245e-20)
(0.0654528 -0.227354 0)
(0.200967 -0.212559 -1.22972e-19)
(0.329745 -0.198334 0)
(0.451504 -0.184769 1.20433e-19)
(0.566533 -0.171905 3.97231e-20)
(0.675123 -0.15975 -3.92981e-20)
(0.777574 -0.1483 -7.77555e-20)
(0.874201 -0.137541 7.69178e-20)
(0.965321 -0.127455 0)
(1.05125 -0.118018 0)
(1.13231 -0.109206 0)
(1.20879 -0.100989 -2.20825e-19)
(1.28101 -0.093338 -7.27927e-20)
(1.34923 -0.0862174 7.19807e-20)
(1.41373 -0.0795911 0)
(1.47475 -0.0734211 7.0369e-20)
(1.53253 -0.0676688 -6.95764e-20)
(1.58726 -0.0622968 -6.87859e-20)
(1.63913 -0.0572699 0)
(1.6883 -0.0525566 0)
(1.73492 -0.0481296 0)
(1.7791 -0.0439669 -6.56791e-20)
(1.82096 -0.040051 0)
(1.8606 -0.0363691 1.28316e-19)
(1.8981 -0.0329121 1.90219e-19)
(1.93354 -0.0296732 -1.2532e-19)
(1.96701 -0.0266481 0)
(1.99858 -0.0238325 -6.11826e-20)
(2.02833 -0.0212224 0)
(2.05632 -0.0188145 -1.19456e-19)
(2.08262 -0.0166013 5.90076e-20)
(2.10731 -0.0145767 5.8293e-20)
(2.13046 -0.012735 0)
(2.15212 -0.0110621 1.70639e-19)
(2.17239 -0.00955653 -1.1236e-19)
(2.19129 -0.00820271 -5.54859e-20)
(2.20895 -0.00697295 0)
(2.22543 -0.00587044 -5.41115e-20)
(2.24078 -0.00489989 -1.60294e-19)
(2.25507 -0.00405256 0)
(2.26833 -0.00331482 -1.04171e-19)
(2.28061 -0.00267452 -1.0284e-19)
(2.29197 -0.00212329 -1.01517e-19)
(2.30245 -0.00164989 0)
(2.3121 -0.00123985 0)
(2.32097 -0.000888222 0)
(2.32911 -0.000592679 4.81591e-20)
(2.33656 -0.000336876 4.75204e-20)
(2.34333 -9.67545e-05 0)
(2.34948 0.000116634 9.2511e-20)
(2.35506 0.00029982 9.12589e-20)
(2.3601 0.000456273 0)
(2.36464 0.000587582 8.87797e-20)
(2.36872 0.000697507 1.75105e-19)
(2.37237 0.000789269 -8.63332e-20)
(2.37563 0.000862149 -8.51219e-20)
(2.37853 0.000917973 0)
(2.38111 0.000957836 0)
(2.38339 0.000982001 0)
(2.3854 0.000991756 -8.03556e-20)
(2.38716 0.000990151 7.91831e-20)
(2.3887 0.000980823 1.56037e-19)
(2.39004 0.000967058 -7.68609e-20)
(2.3912 0.000951566 7.57107e-20)
(2.39219 0.000936359 7.45679e-20)
(2.39304 0.000922882 0)
(2.39377 0.000912116 0)
(2.39437 0.000904625 -7.11823e-20)
(2.39487 0.000900555 0)
(2.39527 0.000899705 0)
(2.39557 0.00090165 1.35719e-19)
(2.39577 0.00090596 0)
(2.39587 0.0009123 6.56778e-20)
(2.39587 0.000920593 -6.4597e-20)
(2.39578 0.000930936 0)
(2.3956 0.000943721 6.24547e-20)
(2.39532 0.000959465 0)
(2.39496 0.000978965 0)
(2.3945 0.0010032 -5.9289e-20)
(2.39396 0.00103333 1.16492e-19)
(2.39332 0.00107116 -5.72095e-20)
(2.3926 0.00111803 0)
(2.39176 0.0011777 0)
(2.39082 0.00125067 5.41353e-20)
(2.38973 0.00134599 0)
(2.38853 0.00145937 5.21154e-20)
(2.3871 0.00161512 0)
(2.38553 0.00179131 0)
(2.38361 0.00205619 0)
(2.3815 0.00232702 4.81454e-20)
(2.37881 0.00280076 0)
(2.37583 0.00320303 -4.61952e-20)
(2.37191 0.004106 0)
(2.36738 0.00465821 0)
(2.36159 0.00651978 8.66283e-20)
(2.3539 0.00714175 -8.47339e-20)
(2.34549 0.0113225 0)
(2.3304 0.0116366 0)
(2.31946 0.0219075 0)
(2.28481 0.0210552 2.3196e-19)
(2.27614 0.0490593 0)
(2.18675 0.0478201 -1.47484e-19)
(0.00562906 -0.199433 -4.87583e-23)
(-0.00737871 -0.221444 -1.61968e-19)
(-0.0199059 -0.21673 0)
(-0.0340902 -0.211547 1.59556e-19)
(-0.0479788 -0.206717 0)
(-0.063128 -0.201299 0)
(-0.0799961 -0.194724 5.01262e-23)
(-0.0996182 -0.185995 -7.73296e-20)
(-0.123028 -0.173998 -7.67721e-20)
(-0.151417 -0.15759 -7.61094e-20)
(-0.18608 -0.135575 0)
(-0.228477 -0.106689 0)
(-0.280095 -0.0695364 7.43251e-20)
(-0.341811 -0.0232012 1.47411e-19)
(-0.414561 0.0323803 -1.46169e-19)
(-0.499525 0.0966545 0)
(-0.597655 0.168787 -1.43665e-19)
(-0.70948 0.247948 7.11452e-20)
(-0.835146 0.333384 0)
(-0.974342 0.423953 -1.39894e-19)
(-1.12601 0.517994 -6.92719e-20)
(-1.28775 0.613979 1.37381e-19)
(-1.45546 0.709004 6.80312e-20)
(-1.62403 0.798854 0)
(-1.78845 0.878278 -1.33627e-19)
(-1.94471 0.94202 -1.32384e-19)
(-2.09086 0.986109 0)
(-2.22748 1.00889 -1.29905e-19)
(-2.35703 1.01137 0)
(-2.48307 0.996846 -1.2741e-19)
(-2.60874 0.970063 -6.31528e-20)
(-2.73631 0.935423 0)
(-2.86708 0.896422 0)
(-3.00143 0.855282 0)
(-3.13908 0.813121 0)
(-3.27919 0.770209 0)
(-3.42043 0.726256 0)
(-3.56102 0.680636 -1.1704e-19)
(-3.69883 0.632588 1.73696e-19)
(-3.83146 0.58139 0)
(-3.9565 0.526497 0)
(-4.07158 0.46754 0)
(-4.17437 0.404408 -2.02106e-22)
(-4.2626 0.337292 -1.09754e-19)
(-4.33415 0.266692 -2.17046e-19)
(-4.38723 0.193478 2.14883e-19)
(-4.42044 0.118959 1.06307e-19)
(-4.43282 0.0446793 -1.05531e-19)
(-4.42411 -0.0280368 1.92141e-22)
(-4.39455 -0.0979092 -1.03495e-19)
(-4.34522 -0.163534 0)
(-4.27757 -0.223749 -1.0184e-19)
(-4.1934 -0.277634 1.3777e-22)
(-4.09463 -0.324671 0)
(-3.98332 -0.364806 0)
(-3.86151 -0.39842 9.8927e-20)
(-3.73109 -0.426286 0)
(-3.59357 -0.449504 0)
(-3.45002 -0.469351 -9.68351e-20)
(-3.30095 -0.487168 -1.92486e-19)
(-3.14629 -0.504161 9.56493e-20)
(-2.98548 -0.521203 0)
(-2.8177 -0.538623 -9.43324e-20)
(-2.64217 -0.556054 0)
(-2.45851 -0.572458 -9.28942e-20)
(-2.2671 -0.586303 -9.23621e-20)
(-2.06923 -0.595916 1.83293e-19)
(-1.86701 -0.599922 9.09363e-20)
(-1.66307 -0.597598 0)
(-1.46005 -0.588978 -1.79245e-19)
(-1.26029 -0.574696 0)
(-1.06574 -0.555731 -2.64636e-19)
(-0.877855 -0.533258 -1.74943e-19)
(-0.697615 -0.508415 -1.73448e-19)
(-0.525536 -0.482202 1.71926e-19)
(-0.361787 -0.45538 -2.55584e-19)
(-0.206266 -0.428612 0)
(-0.0588046 -0.402311 0)
(0.0801567 -0.377311 1.65587e-19)
(0.211526 -0.352879 2.45862e-19)
(0.336425 -0.329573 0)
(0.454707 -0.307423 -8.02715e-20)
(0.566664 -0.286465 0)
(0.672562 -0.266709 2.35747e-19)
(0.772667 -0.248146 1.09402e-23)
(0.867246 -0.230752 -1.02095e-23)
(0.956577 -0.214495 -1.52144e-19)
(1.04095 -0.199338 0)
(1.12067 -0.185237 1.48835e-19)
(1.19604 -0.172144 7.95888e-24)
(1.26735 -0.160004 0)
(1.33491 -0.148759 0)
(1.39899 -0.138346 0)
(1.45984 -0.128697 -1.40732e-19)
(1.5177 -0.119746 0)
(1.5728 -0.111425 0)
(1.62531 -0.103671 0)
(1.6754 -0.0964278 0)
(1.72321 -0.0896432 0)
(1.76887 -0.0832749 -1.31346e-19)
(1.81249 -0.0772878 0)
(1.85416 -0.0716544 -1.2831e-19)
(1.89397 -0.0663533 -1.26807e-19)
(1.93199 -0.0613677 1.25314e-19)
(1.96829 -0.0566847 0)
(2.00294 -0.0522927 1.22361e-19)
(2.03599 -0.048182 0)
(2.0675 -0.0443422 1.1945e-19)
(2.09753 -0.0407625 -1.1801e-19)
(2.12613 -0.037432 -3.49737e-19)
(2.15334 -0.0343374 0)
(2.17921 -0.0314666 -3.41252e-19)
(2.20378 -0.0288055 -1.1235e-19)
(2.2271 -0.0263432 0)
(2.2492 -0.0240738 -2.19166e-19)
(2.27013 -0.0219843 -2.16427e-19)
(2.28992 -0.020062 3.20561e-19)
(2.30861 -0.0182944 0)
(2.32624 -0.0166684 1.04162e-19)
(2.34285 -0.0151715 1.02831e-19)
(2.35846 -0.0137948 3.04524e-19)
(2.37311 -0.012529 0)
(2.38684 -0.0113622 0)
(2.39968 -0.0102873 0)
(2.41168 -0.0093004 9.63079e-20)
(2.42287 -0.00839008 0)
(2.43331 -0.00753524 0)
(2.44302 -0.00674602 -9.25007e-20)
(2.45204 -0.00602328 -9.12485e-20)
(2.46042 -0.00536187 0)
(2.46819 -0.00475734 0)
(2.47538 -0.0042067 -1.75084e-19)
(2.48201 -0.00370847 0)
(2.48812 -0.00325738 1.70222e-19)
(2.49375 -0.00285491 1.67816e-19)
(2.49891 -0.002499 0)
(2.50365 -0.00218575 0)
(2.50798 -0.00191226 -1.60689e-19)
(2.51194 -0.00167319 -8.42241e-26)
(2.51555 -0.00146231 -7.25968e-26)
(2.51884 -0.00127434 0)
(2.52184 -0.00110589 -3.028e-19)
(2.52456 -0.000955219 0)
(2.52703 -0.000821194 0)
(2.52927 -0.000702148 0)
(2.5313 -0.000595308 1.42344e-19)
(2.53314 -0.000497096 0)
(2.53481 -0.00040397 -2.75801e-19)
(2.53632 -0.000313231 -1.35699e-19)
(2.53768 -0.000223402 0)
(2.5389 -0.00013409 -1.31336e-19)
(2.53998 -4.55651e-05 0)
(2.54095 4.18037e-05 0)
(2.54179 0.000127857 -3.74674e-19)
(2.54253 0.000213055 2.45537e-19)
(2.54316 0.000298176 0)
(2.5437 0.000385011 2.37121e-19)
(2.54413 0.000475025 -1.16475e-19)
(2.54448 0.000571755 0)
(2.54473 0.000676575 0)
(2.54488 0.000796477 0)
(2.54493 0.000930811 -3.24765e-19)
(2.54488 0.0010951 0)
(2.5447 0.00128058 -1.04216e-19)
(2.5444 0.00152553 0)
(2.54392 0.00179522 0)
(2.54329 0.00218893 0)
(2.54238 0.00259136 0)
(2.54129 0.00326758 0)
(2.53968 0.00386664 0)
(2.5379 0.00510643 -1.80883e-19)
(2.5351 0.00597388 0)
(2.53231 0.0084107 -8.66152e-20)
(2.52733 0.00960145 2.54155e-19)
(2.52309 0.0147564 0)
(2.51391 0.01633 0)
(2.50786 0.0281414 -1.58235e-19)
(2.49055 0.0308193 -1.54604e-19)
(2.48343 0.0599138 1.50942e-19)
(2.45385 0.0687211 1.4745e-19)
(-0.00704319 -0.15854 2.44918e-19)
(-0.0492413 -0.1565 2.43153e-19)
(-0.0891156 -0.150134 1.60929e-19)
(-0.132112 -0.141883 7.99249e-20)
(-0.176614 -0.132766 0)
(-0.22412 -0.121974 -1.57268e-19)
(-0.274939 -0.108701 7.80945e-20)
(-0.32997 -0.0915672 0)
(-0.389876 -0.0691977 7.6722e-20)
(-0.45502 -0.0404566 0)
(-0.525743 -0.00461213 -1.5112e-19)
(-0.602671 0.0391767 0)
(-0.686152 0.0917052 -7.42355e-20)
(-0.776419 0.153375 -1.47212e-19)
(-0.873494 0.223884 1.45952e-19)
(-0.97694 0.302454 0)
(-1.08628 0.388018 1.43432e-19)
(-1.20088 0.479319 0)
(-1.31979 0.574847 0)
(-1.44169 0.672591 1.39672e-19)
(-1.56471 0.769927 0)
(-1.68648 0.863769 1.09874e-22)
(-1.80431 0.950631 0)
(-1.91576 1.02695 0)
(-2.01954 1.08962 -3.80047e-23)
(-2.11614 1.13656 1.32286e-19)
(-2.20792 1.16713 1.31048e-19)
(-2.29852 1.18215 1.29846e-19)
(-2.39195 1.1837 0)
(-2.49171 1.17457 2.54642e-19)
(-2.60022 1.15756 0)
(-2.71861 1.1348 1.247e-19)
(-2.84682 1.10757 0)
(-2.98369 1.07634 0)
(-3.12736 1.04111 -1.20761e-19)
(-3.27549 1.0015 0)
(-3.42547 0.956931 1.18106e-19)
(-3.5746 0.906706 2.16304e-22)
(-3.72017 0.850097 -2.3116e-19)
(-3.85953 0.786458 2.28328e-19)
(-3.99006 0.715281 0)
(-4.1092 0.636372 0)
(-4.21448 0.549938 1.1013e-19)
(-4.30359 0.456638 0)
(-4.37445 0.357549 1.08393e-19)
(-4.42509 0.254163 -1.07317e-19)
(-4.45395 0.148341 -1.06294e-19)
(-4.46067 0.0422415 0)
(-4.44579 -0.0616882 1.04381e-19)
(-4.40992 -0.161548 1.03482e-19)
(-4.35413 -0.254979 -2.04778e-19)
(-4.27989 -0.340051 1.01822e-19)
(-4.18909 -0.415341 1.01052e-19)
(-4.0841 -0.480137 0)
(-3.96731 -0.534427 0)
(-3.84109 -0.578886 -9.89044e-20)
(-3.70752 -0.614798 0)
(-3.56828 -0.643957 0)
(-3.42449 -0.668489 1.93765e-19)
(-3.27658 -0.690591 1.92436e-19)
(-3.12414 -0.712268 0)
(-2.96594 -0.73502 0)
(-2.80017 -0.759498 0)
(-2.62492 -0.785205 0)
(-2.43892 -0.810373 1.85853e-19)
(-2.24211 -0.832205 -1.8437e-19)
(-2.03607 -0.847595 -1.83232e-19)
(-1.82391 -0.854008 -3.63677e-19)
(-1.60963 -0.850226 0)
(-1.39709 -0.836511 9.91974e-23)
(-1.18944 -0.814171 0)
(-0.989074 -0.785001 1.76369e-19)
(-0.797581 -0.751045 5.7659e-23)
(-0.615851 -0.714154 1.73418e-19)
(-0.444225 -0.675856 -1.719e-19)
(-0.28261 -0.637359 3.61326e-23)
(-0.130678 -0.599477 0)
(0.0115851 -0.563052 -1.67159e-19)
(0.144867 -0.528502 -1.6553e-19)
(0.270518 -0.495161 -3.27679e-19)
(0.389254 -0.46347 0)
(0.501639 -0.433404 1.60467e-19)