/*--------------------------------*- C++ -*----------------------------------*\
  =========                 |
  \\      /  F ield         | OpenFOAM: The Open Source CFD Toolbox
   \\    /   O peration     | Website:  https://openfoam.org
    \\  /    A nd           | Version:  7
     \\/     M anipulation  |
\*---------------------------------------------------------------------------*/
FoamFile
{
    version     2.0;
    format      ascii;
    class       volScalarField;
    location    "0.039";
    object      k;
}
// * * * * * * * * * * * * * * * * * * * * * * * * * * * * * * * * * * * * * //

dimensions      [0 2 -2 0 0 0 0];

internalField   nonuniform List<scalar> 
12225
(
1.93989e-05
1.80235e-05
1.6686e-05
1.53351e-05
1.38807e-05
1.28656e-05
1.15456e-05
9.86642e-06
8.85254e-06
7.96508e-06
6.60799e-06
5.46969e-06
5.0325e-06
4.96382e-06
4.85481e-06
4.32471e-06
3.86714e-06
5.18201e-06
1.99823e-05
1.98833e-05
1.9686e-05
1.93674e-05
1.9061e-05
1.89827e-05
1.86729e-05
1.79074e-05
1.7412e-05
1.69812e-05
1.63884e-05
1.56467e-05
1.50352e-05
1.47388e-05
1.46531e-05
1.4544e-05
1.43689e-05
1.37948e-05
1.99989e-05
1.92803e-05
1.91588e-05
1.91412e-05
1.91185e-05
1.91393e-05
1.91405e-05
1.90203e-05
1.88166e-05
1.86787e-05
1.85584e-05
1.83944e-05
1.8198e-05
1.8047e-05
1.79756e-05
1.79432e-05
1.7914e-05
1.77965e-05
2.00824e-05
1.98885e-05
1.90215e-05
1.65368e-05
1.63928e-05
1.66804e-05
1.75602e-05
1.81509e-05
1.83352e-05
1.83616e-05
1.83643e-05
1.83759e-05
1.84572e-05
1.8712e-05
1.88894e-05
1.8945e-05
1.89418e-05
1.88477e-05
2.13395e-05
2.32122e-05
2.25708e-05
2.03917e-05
1.95928e-05
1.944e-05
2.00062e-05
2.08774e-05
2.10719e-05
2.10065e-05
2.09175e-05
2.09847e-05
2.15661e-05
2.28994e-05
2.36341e-05
2.38392e-05
2.378e-05
2.3187e-05
2.07132e-05
2.13825e-05
2.24341e-05
2.25369e-05
2.23194e-05
2.21683e-05
2.19979e-05
2.1925e-05
2.1931e-05
2.20087e-05
2.22976e-05
2.31826e-05
2.60939e-05
3.03696e-05
3.30712e-05
3.41535e-05
3.4289e-05
3.39208e-05
2.06368e-05
2.06249e-05
2.08552e-05
2.20459e-05
2.30096e-05
2.31103e-05
2.27919e-05
2.21418e-05
2.19358e-05
2.19341e-05
2.20551e-05
2.25722e-05
2.43869e-05
2.8171e-05
3.10799e-05
3.26753e-05
3.32299e-05
3.32946e-05
2.0878e-05
2.07407e-05
2.07395e-05
2.151e-05
2.22737e-05
2.23972e-05
2.2201e-05
2.19639e-05
2.19755e-05
2.22517e-05
2.33061e-05
2.46492e-05
2.60695e-05
2.7309e-05
2.79191e-05
2.81005e-05
2.81555e-05
2.83479e-05
2.1026e-05
2.32808e-05
2.30846e-05
2.30199e-05
2.38802e-05
2.43662e-05
2.42245e-05
2.36588e-05
2.355e-05
2.36973e-05
2.44773e-05
2.5788e-05
2.66433e-05
2.70295e-05
2.71011e-05
2.70397e-05
2.694e-05
2.69574e-05
2.25871e-05
2.25773e-05
2.20137e-05
2.24461e-05
2.27145e-05
2.27154e-05
2.2567e-05
2.23157e-05
2.22515e-05
2.25603e-05
2.36028e-05
2.42732e-05
2.45494e-05
2.46373e-05
2.47203e-05
2.49325e-05
2.53076e-05
2.57605e-05
2.06635e-05
2.07457e-05
2.11019e-05
2.17075e-05
2.24055e-05
2.28108e-05
2.284e-05
2.26677e-05
2.243e-05
2.23098e-05
2.22972e-05
2.23132e-05
2.23585e-05
2.24831e-05
2.28536e-05
2.31995e-05
2.33513e-05
2.34339e-05
2.04e-05
2.12827e-05
2.14704e-05
2.12858e-05
2.11947e-05
2.12306e-05
2.14036e-05
2.20714e-05
2.26412e-05
2.27239e-05
2.2621e-05
2.25222e-05
2.25278e-05
2.26502e-05
2.3203e-05
2.38135e-05
2.40633e-05
2.40824e-05
2.02763e-05
2.09288e-05
2.16032e-05
2.16463e-05
2.11104e-05
2.05546e-05
2.05366e-05
2.08106e-05
2.15669e-05
2.19705e-05
2.22778e-05
2.26492e-05
2.30631e-05
2.34949e-05
2.39001e-05
2.41869e-05
2.42741e-05
2.42307e-05
2.07587e-05
2.13228e-05
2.13084e-05
2.09261e-05
2.05589e-05
2.04335e-05
2.04391e-05
2.05894e-05
2.0811e-05
2.0945e-05
2.1129e-05
2.14982e-05
2.25057e-05
2.40182e-05
2.50518e-05
2.54951e-05
2.55347e-05
2.53682e-05
2.0302e-05
2.0255e-05
2.02116e-05
2.04207e-05
2.08878e-05
2.1026e-05
2.10306e-05
2.10056e-05
2.09228e-05
2.08876e-05
2.08908e-05
2.09835e-05
2.14962e-05
2.25993e-05
2.32592e-05
2.34651e-05
2.34544e-05
2.32897e-05
2.0279e-05
2.03944e-05
2.04116e-05
2.04764e-05
2.07038e-05
2.08066e-05
2.0809e-05
2.07524e-05
2.06665e-05
2.0616e-05
2.0605e-05
2.07363e-05
2.1244e-05
2.14752e-05
2.1484e-05
2.13721e-05
2.10801e-05
2.09387e-05
2.01985e-05
2.02505e-05
2.0258e-05
2.0259e-05
2.02631e-05
2.02948e-05
2.04607e-05
2.0694e-05
2.08038e-05
2.09717e-05
2.11984e-05
2.12969e-05
2.12702e-05
2.10429e-05
2.08118e-05
2.07228e-05
2.06974e-05
2.06951e-05
2.03141e-05
2.04028e-05
2.03771e-05
2.03808e-05
2.0461e-05
2.051e-05
2.05225e-05
2.05671e-05
2.06284e-05
2.0656e-05
2.0694e-05
2.07229e-05
2.07271e-05
2.07341e-05
2.07518e-05
2.07952e-05
2.09267e-05
2.10949e-05
2.16379e-05
2.20878e-05
2.15529e-05
2.07244e-05
2.04719e-05
2.04577e-05
2.04775e-05
2.04671e-05
2.03889e-05
2.0296e-05
2.02761e-05
2.02824e-05
2.0336e-05
2.05297e-05
2.07281e-05
2.08398e-05
2.08878e-05
2.09406e-05
2.08392e-05
2.07993e-05
2.05736e-05
2.04579e-05
2.04538e-05
2.04992e-05
2.055e-05
2.0548e-05
2.04583e-05
2.03489e-05
2.03465e-05
2.04019e-05
2.0642e-05
2.1297e-05
2.17556e-05
2.18963e-05
2.18961e-05
2.18286e-05
2.02608e-05
2.07917e-05
2.08359e-05
2.06877e-05
2.04967e-05
2.04509e-05
2.04487e-05
2.04515e-05
2.04462e-05
2.04257e-05
2.04268e-05
2.04611e-05
2.0609e-05
2.08847e-05
2.10115e-05
2.10269e-05
2.10076e-05
2.09097e-05
2.00594e-05
2.06583e-05
2.11768e-05
2.11878e-05
2.09195e-05
2.0605e-05
2.04915e-05
2.04864e-05
2.04924e-05
2.05338e-05
2.06991e-05
2.09318e-05
2.10695e-05
2.11511e-05
2.12017e-05
2.12223e-05
2.12263e-05
2.12265e-05
2.07431e-05
2.06802e-05
2.07162e-05
2.07053e-05
2.0561e-05
2.03942e-05
2.03364e-05
2.03287e-05
2.0343e-05
2.04382e-05
2.06657e-05
2.07682e-05
2.07962e-05
2.08014e-05
2.07946e-05
2.07616e-05
2.07261e-05
2.07114e-05
2.11723e-05
2.06453e-05
2.02836e-05
2.02597e-05
2.02544e-05
2.02237e-05
2.01902e-05
2.01898e-05
2.02399e-05
2.05179e-05
2.14891e-05
2.23428e-05
2.26381e-05
2.26476e-05
2.24991e-05
2.1893e-05
2.1196e-05
2.07465e-05
2.09536e-05
2.08931e-05
2.03778e-05
2.0253e-05
2.02431e-05
2.02416e-05
2.02401e-05
2.02444e-05
2.027e-05
2.03655e-05
2.06896e-05
2.15758e-05
2.24227e-05
2.29288e-05
2.30588e-05
2.29989e-05
2.25287e-05
2.15176e-05
2.00419e-05
2.02439e-05
2.0627e-05
2.08272e-05
2.08607e-05
2.08248e-05
2.06314e-05
2.04747e-05
2.04426e-05
2.04589e-05
2.05744e-05
2.07107e-05
2.0755e-05
2.07554e-05
2.07281e-05
2.06041e-05
2.03509e-05
2.01967e-05
2.00028e-05
2.0055e-05
2.00795e-05
2.00636e-05
2.001e-05
1.99218e-05
1.97767e-05
1.96647e-05
1.9651e-05
1.96836e-05
1.98454e-05
2.02553e-05
2.04814e-05
2.05265e-05
2.05348e-05
2.05415e-05
2.05615e-05
2.04681e-05
2.02291e-05
1.88286e-05
1.53051e-05
1.54745e-05
1.78255e-05
2.32045e-05
2.69091e-05
2.941e-05
3.17319e-05
3.5572e-05
4.45593e-05
5.57647e-05
6.39421e-05
6.79961e-05
7.17938e-05
7.45555e-05
8.0487e-05
8.61637e-05
3.08805e-05
9.10815e-05
0.000120081
0.000202062
0.000327233
0.000399329
0.000416803
0.000417562
0.000419398
0.000428441
0.000464258
0.000525982
0.000563886
0.000580702
0.000587508
0.000589566
0.000591217
0.000591362
0.00211993
0.00233331
0.00257507
0.0026774
0.00267613
0.00258253
0.00227284
0.00195062
0.00170379
0.00153999
0.0014513
0.00141292
0.00139953
0.00139319
0.00138285
0.00135504
0.00128374
0.00122489
8.58602e-06
2.38069e-05
2.48256e-05
2.67721e-05
3.36036e-05
4.45262e-05
5.7816e-05
7.35442e-05
9.19225e-05
0.000111507
0.000134817
0.000162275
0.000180437
0.000213246
0.000241728
0.000275065
0.00028648
0.000309078
0.000316199
0.000344328
0.000410281
0.000545689
0.000743725
0.000905429
0.00110831
0.00165658
0.00449427
0.00730685
0.00906812
0.0135703
0.0277037
0.0317314
0.0144407
0.00302056
0.00133143
0.00102281
0.00100419
0.00098366
0.000963097
0.000878889
0.000761338
0.000589208
0.000469933
0.000322914
0.000239767
0.000159563
0.000120991
8.5388e-05
6.97493e-05
6.27267e-05
6.12178e-05
6.07468e-05
5.90879e-05
5.82615e-05
5.62784e-05
5.44215e-05
5.26064e-05
4.99211e-05
4.73231e-05
4.4872e-05
4.25704e-05
4.11327e-05
3.91438e-05
3.71135e-05
3.55582e-05
3.42787e-05
3.31067e-05
3.20275e-05
3.09795e-05
3.0321e-05
2.94039e-05
2.81275e-05
2.70486e-05
2.61935e-05
2.46539e-05
2.29107e-05
2.15997e-05
1.95759e-05
1.81815e-05
1.62377e-05
1.46467e-05
1.30122e-05
1.14773e-05
1.00711e-05
8.80934e-06
7.72099e-06
6.79144e-06
5.97995e-06
5.2661e-06
4.63586e-06
4.07807e-06
3.58399e-06
3.14642e-06
2.75883e-06
2.41512e-06
2.10983e-06
1.83827e-06
1.59648e-06
1.38106e-06
1.18867e-06
1.01387e-06
8.5366e-07
7.09514e-07
5.8249e-07
4.72724e-07
3.79681e-07
3.02441e-07
2.39556e-07
1.88804e-07
1.47577e-07
1.14265e-07
8.76241e-08
6.65653e-08
5.00972e-08
3.73725e-08
2.76664e-08
2.02921e-08
1.47894e-08
1.07689e-08
7.82885e-09
5.67523e-09
4.09619e-09
2.9394e-09
2.09451e-09
1.48052e-09
1.03731e-09
7.19933e-10
4.94726e-10
3.36494e-10
2.26474e-10
1.50802e-10
9.93488e-11
6.47805e-11
4.18274e-11
2.67526e-11
1.69546e-11
1.06499e-11
6.63214e-12
4.0956e-12
2.5087e-12
1.52457e-12
9.19387e-13
5.50269e-13
3.26911e-13
1.92801e-13
1.12893e-13
6.56445e-14
3.792e-14
2.17763e-14
1.24482e-14
7.09961e-15
4.05621e-15
2.33769e-15
1.37475e-15
8.39524e-16
5.44746e-16
3.84306e-16
2.98561e-16
2.5422e-16
2.3283e-16
2.24147e-16
2.22052e-16
2.22045e-16
2.22045e-16
2.22045e-16
2.22045e-16
2.22045e-16
2.22045e-16
2.22045e-16
2.22045e-16
2.22045e-16
2.22045e-16
2.22045e-16
2.22045e-16
2.22045e-16
2.22045e-16
1.98056e-15
8.14041e-13
3.64351e-10
1.56336e-07
1.35252e-05
3.92086e-05
6.48144e-05
7.94969e-05
0.000106665
0.000143824
0.000192288
0.000251466
0.000320493
0.00039606
0.000481455
0.000576383
0.000683928
0.000799414
0.000929081
0.00109565
0.00119628
0.00126011
0.00137658
0.001447
0.00144761
0.00145279
0.001511
0.00175454
0.00268767
0.00722219
0.0148986
0.0175004
0.0168621
0.0154818
0.012939
0.00761192
0.00300255
0.00125761
0.000809764
0.00064034
0.000557756
0.000468295
0.000394087
0.000335008
0.000286154
0.000254718
0.000239269
0.000230617
0.000227348
0.000226378
0.000227653
0.000227732
0.000227375
0.000224483
0.000219404
0.000215174
0.00021032
0.000202274
0.000194325
0.000187091
0.000178584
0.000170545
0.000163042
0.000154558
0.000146302
0.000139372
0.00013302
0.000126852
0.000121542
0.000118373
0.000115244
0.000112437
0.000109429
0.000107395
0.000104228
0.000101344
9.86026e-05
9.60497e-05
9.01771e-05
8.32278e-05
7.97834e-05
7.38455e-05
6.77956e-05
6.3232e-05
5.79852e-05
5.29392e-05
4.7521e-05
4.195e-05
3.63342e-05
3.10219e-05
2.67036e-05
2.31807e-05
2.0161e-05
1.75859e-05
1.53915e-05
1.35045e-05
1.18628e-05
1.0429e-05
9.17664e-06
8.0846e-06
7.13417e-06
6.30771e-06
5.58817e-06
4.95996e-06
4.41189e-06
3.93254e-06
3.50798e-06
3.12684e-06
2.78006e-06
2.45805e-06
2.15224e-06
1.86327e-06
1.59475e-06
1.3506e-06
1.13269e-06
9.41171e-07
7.74904e-07
6.32146e-07
5.10924e-07
4.09102e-07
3.24625e-07
2.55359e-07
1.99163e-07
1.54063e-07
1.1821e-07
8.99335e-08
6.77655e-08
5.0529e-08
3.72654e-08
2.71747e-08
1.95889e-08
1.39553e-08
9.82378e-09
6.83267e-09
4.69477e-09
3.18618e-09
2.13647e-09
1.41673e-09
9.29345e-10
6.03212e-10
3.87502e-10
2.46433e-10
1.5519e-10
9.68065e-11
5.98364e-11
3.66592e-11
2.22676e-11
1.34129e-11
8.0129e-12
4.74797e-12
2.79059e-12
1.62696e-12
9.40972e-13
5.39959e-13
3.07492e-13
1.73849e-13
9.76461e-14
5.45391e-14
3.03372e-14
1.68439e-14
9.36698e-15
5.24527e-15
2.98162e-15
1.74127e-15
1.06171e-15
6.89329e-16
4.84734e-16
3.71976e-16
3.0924e-16
2.74089e-16
2.54032e-16
2.42499e-16
2.35542e-16
2.31779e-16
2.285e-16
2.28854e-16
2.28158e-16
2.53355e-16
2.54003e-16
2.43031e-16
3.27761e-16
5.00359e-14
2.88632e-11
1.48943e-08
1.07022e-05
3.66532e-05
6.8784e-05
0.000117116
0.000165402
0.000220975
0.000292435
0.000385963
0.000501137
0.000642378
0.000821599
0.00104589
0.0013202
0.00165635
0.00207063
0.00258822
0.00321815
0.00353147
0.00376721
0.00436668
0.00522047
0.00634551
0.00795364
0.0101718
0.0125687
0.0142157
0.0145582
0.0121303
0.00853937
0.00553996
0.0024676
0.00128554
0.000685061
0.000456863
0.000366369
0.000321387
0.000295232
0.000277593
0.000269309
0.000265736
0.00026472
0.000265115
0.000270147
0.00027696
0.000285025
0.000292486
0.000295958
0.000301069
0.000303372
0.000306841
0.000308322
0.000308872
0.000307431
0.000301669
0.00029528
0.000280787
0.000266357
0.000259365
0.000248636
0.000237179
0.000231302
0.000223808
0.000212243
0.000203578
0.000196627
0.000189938
0.000188131
0.000187447
0.000187066
0.000185798
0.000185504
0.00018606
0.000184704
0.000179202
0.000164679
0.000150121
0.000139697
0.000126838
0.000115332
0.000106458
9.82247e-05
9.11883e-05
8.50681e-05
7.9139e-05
7.31838e-05
6.60816e-05
5.79647e-05
4.99089e-05
4.27721e-05
3.63408e-05
3.07839e-05
2.61835e-05
2.2333e-05
1.89741e-05
1.6054e-05
1.35314e-05
1.13769e-05
9.56763e-06
8.07644e-06
6.87044e-06
5.90761e-06
5.14033e-06
4.52268e-06
4.01555e-06
3.58878e-06
3.22314e-06
2.90685e-06
2.62598e-06
2.36913e-06
2.12879e-06
1.90007e-06
1.68138e-06
1.47392e-06
1.27968e-06
1.10019e-06
9.36378e-07
7.88623e-07
6.56939e-07
5.41335e-07
4.41425e-07
3.56211e-07
2.84447e-07
2.2479e-07
1.75792e-07
1.36006e-07
1.0407e-07
7.87345e-08
5.88766e-08
4.35037e-08
3.1753e-08
2.28891e-08
1.62936e-08
1.14532e-08
7.95e-09
5.45065e-09
3.69255e-09
2.47234e-09
1.63607e-09
1.07011e-09
6.91971e-10
4.42549e-10
2.80057e-10
1.75425e-10
1.08797e-10
6.682e-11
4.06446e-11
2.44867e-11
1.46116e-11
8.63617e-12
5.05631e-12
2.93294e-12
1.68598e-12
9.60871e-13
5.43266e-13
3.04971e-13
1.70176e-13
9.45263e-14
5.23682e-14
2.90052e-14
1.61198e-14
9.02797e-15
5.13629e-15
2.99252e-15
1.81468e-15
1.15593e-15
7.91022e-16
5.80133e-16
4.62734e-16
3.90388e-16
3.5453e-16
3.25563e-16
5.54432e-16
4.83676e-16
5.44752e-15
3.80068e-15
1.48584e-15
1.19222e-15
6.15139e-15
4.10923e-12
7.01259e-10
1.46165e-05
4.73714e-05
8.08259e-05
0.000143187
0.000203383
0.000266956
0.000339212
0.00044085
0.000587155
0.000814102
0.00113832
0.0015667
0.00212563
0.00283782
0.00372086
0.00478293
0.00603633
0.00743905
0.00869291
0.00948351
0.0101141
0.0105952
0.0109691
0.0111287
0.0111921
0.00928436
0.00636158
0.00365544
0.00209273
0.00121824
0.000639413
0.000419722
0.000326074
0.000291657
0.000279968
0.000277357
0.000279975
0.000287081
0.000300075
0.00032426
0.000353546
0.000377327
0.000398307
0.000413712
0.000429134
0.000442664
0.00045102
0.000458174
0.000460243
0.000460446
0.000456028
0.000441463
0.000428902
0.000421989
0.00040398
0.000373124
0.000347829
0.000336306
0.000318456
0.000296779
0.000287516
0.000280199
0.000268316
0.00025859
0.00025308
0.000250247
0.000249906
0.000250918
0.000254618
0.000261017
0.000268907
0.00027805
0.000284286
0.000286331
0.000274162
0.000248002
0.000214891
0.000178452
0.000153945
0.000132729
0.000118266
0.000107155
9.84585e-05
9.14147e-05
8.52845e-05
7.96516e-05
7.44266e-05
6.94039e-05
6.43262e-05
5.90508e-05
5.35889e-05
4.7799e-05
4.19292e-05
3.63458e-05
3.12089e-05
2.6528e-05
2.22191e-05
1.83252e-05
1.48595e-05
1.18593e-05
9.39056e-06
7.45566e-06
5.98565e-06
4.89032e-06
4.08088e-06
3.47914e-06
3.02301e-06
2.66708e-06
2.38253e-06
2.15011e-06
1.9502e-06
1.76395e-06
1.57867e-06
1.3992e-06
1.22842e-06
1.06847e-06
9.21292e-07
7.87938e-07
6.6817e-07
5.6138e-07
4.67287e-07
3.8543e-07
3.15087e-07
2.5532e-07
2.05067e-07
1.63224e-07
1.28704e-07
1.00495e-07
7.76714e-08
5.93909e-08
4.49011e-08
3.35427e-08
2.47444e-08
1.80158e-08
1.29396e-08
9.16546e-09
6.40228e-09
4.41122e-09
2.99889e-09
2.01218e-09
1.33289e-09
8.71928e-10
5.635e-10
3.5993e-10
2.2729e-10
1.41911e-10
8.76044e-11
5.34704e-11
3.2269e-11
1.92565e-11
1.13651e-11
6.63625e-12
3.83577e-12
2.19633e-12
1.24706e-12
7.0311e-13
3.9424e-13
2.20347e-13
1.23005e-13
6.88978e-14
3.87863e-14
2.22668e-14
1.30674e-14
8.22738e-15
5.3199e-15
3.90954e-15
2.87853e-15
2.53076e-15
2.19556e-15
2.24691e-15
2.28802e-15
2.50733e-15
3.10397e-15
3.51217e-15
7.66794e-15
6.35175e-15
6.0339e-14
5.0662e-14
7.28039e-13
3.27523e-11
1.59176e-05
5.21068e-05
9.53943e-05
0.000156531
0.000219022
0.000284149
0.000353403
0.000448996
0.00062367
0.000917747
0.00133524
0.00190139
0.00265844
0.00360608
0.00470513
0.00586132
0.00691197
0.00779772
0.00847896
0.00886025
0.0089985
0.00873972
0.0079076
0.0064955
0.00450282
0.00298117
0.00172558
0.00106197
0.000616053
0.000415751
0.000319361
0.000285782
0.000276639
0.000276201
0.000285506
0.000300075
0.000330727
0.000371575
0.000416343
0.000461239
0.000498413
0.000539415
0.000584108
0.00062335
0.000663299
0.000694805
0.000726277
0.000756479
0.000773466
0.000778665
0.000778284
0.000750725
0.000716562
0.000703325
0.000674999
0.000607316
0.000551741
0.00052712
0.000493155
0.000434566
0.000396814
0.000377742
0.000354179
0.000328937
0.000314278
0.000306739
0.000301398
0.000299785
0.000299547
0.00030186
0.00030495
0.000305284
0.000306916
0.000318315
0.000323248
0.000322188
0.000305559
0.000262035
0.000210746
0.00016625
0.00013585
0.000116819
0.00010415
9.51675e-05
8.81237e-05
8.22945e-05
7.73018e-05
7.2976e-05
6.91572e-05
6.56363e-05
6.21621e-05
5.86533e-05
5.50259e-05
5.11254e-05
4.6945e-05
4.27536e-05
3.8669e-05
3.43809e-05
2.96902e-05
2.46141e-05
1.94534e-05
1.48642e-05
1.1172e-05
8.28206e-06
6.12865e-06
4.58097e-06
3.49872e-06
2.75517e-06
2.24369e-06
1.88257e-06
1.62143e-06
1.43414e-06
1.305e-06
1.20476e-06
1.11098e-06
1.00805e-06
8.97954e-07
7.87571e-07
6.81339e-07
5.82313e-07
4.92153e-07
4.11608e-07
3.40805e-07
2.79453e-07
2.26977e-07
1.8263e-07
1.45576e-07
1.14944e-07
8.98678e-08
6.95472e-08
5.32566e-08
4.0341e-08
3.02179e-08
2.23762e-08
1.63742e-08
1.18367e-08
8.45059e-09
5.95732e-09
4.14559e-09
2.84608e-09
1.92692e-09
1.28722e-09
8.49361e-10
5.53562e-10
3.56163e-10
2.26153e-10
1.41682e-10
8.75579e-11
5.33694e-11
3.20846e-11
1.90263e-11
1.11325e-11
6.43107e-12
3.6717e-12
2.07486e-12
1.16297e-12
6.48423e-13
3.61031e-13
2.01722e-13
1.13781e-13
6.51987e-14
3.81977e-14
2.29862e-14
1.42612e-14
9.10918e-15
6.00398e-15
4.0641e-15
2.80465e-15
2.02093e-15
1.47428e-15
1.16099e-15
9.15383e-16
7.73286e-16
7.59692e-16
1.28389e-15
2.24467e-15
4.78748e-14
6.25064e-14
4.13952e-13
2.30198e-12
1.61365e-05
5.38733e-05
0.000101796
0.000159475
0.000218752
0.000279954
0.000352713
0.00044726
0.000575569
0.000752976
0.00101918
0.00143026
0.00197068
0.00257655
0.00323649
0.00392064
0.00453323
0.00488444
0.00502479
0.0049442
0.0044852
0.00373168
0.00298969
0.00215385
0.00142981
0.00094484
0.000578521
0.000407818
0.000317934
0.000283954
0.000274015
0.000273613
0.000284537
0.00030368
0.000339571
0.000393774
0.000455632
0.000509021
0.000570382
0.000646808
0.000736562
0.000846036
0.00096205
0.00109551
0.00122865
0.0013429
0.00143732
0.00150157
0.00153151
0.00154003
0.00151342
0.00142372
0.00133027
0.00127992
0.00121802
0.00108711
0.000974627
0.000920289
0.00086788
0.000791817
0.000722441
0.00066691
0.00062179
0.000580476
0.000527294
0.000503177
0.000463402
0.000436621
0.000412796
0.000379632
0.000341731
0.000314534
0.000305058
0.000302524
0.000312742
0.000324113
0.000329934
0.000311283
0.000280616
0.000241732
0.000195406
0.000152268
0.000122234
0.000104105
9.25522e-05
8.46271e-05
7.86734e-05
7.39362e-05
7.00628e-05
6.67952e-05
6.39065e-05
6.11555e-05
5.85117e-05
5.58533e-05
5.29067e-05
4.952e-05
4.60581e-05
4.28755e-05
4.00342e-05
3.73094e-05
3.41343e-05
2.96962e-05
2.40574e-05
1.82529e-05
1.33592e-05
9.55858e-06
6.71249e-06
4.67132e-06
3.26305e-06
2.32438e-06
1.71541e-06
1.32408e-06
1.06707e-06
8.94264e-07
7.79812e-07
7.11433e-07
6.66396e-07
6.22472e-07
5.68707e-07
5.077e-07
4.44377e-07
3.82169e-07
3.23494e-07
2.69888e-07
2.22169e-07
1.80607e-07
1.45083e-07
1.15223e-07
9.0504e-08
7.032e-08
5.40481e-08
4.10897e-08
3.08933e-08
2.29655e-08
1.68754e-08
1.22539e-08
8.79036e-09
6.22751e-09
4.35569e-09
3.00665e-09
2.0476e-09
1.37532e-09
9.10795e-10
5.94501e-10
3.82328e-10
2.42156e-10
1.50998e-10
9.26646e-11
5.59482e-11
3.3225e-11
1.94026e-11
1.1141e-11
6.28979e-12
3.49178e-12
1.90695e-12
1.02551e-12
5.43892e-13
2.85117e-13
1.48474e-13
7.7478e-14
4.08589e-14
2.19947e-14
1.22428e-14
7.11837e-15
4.35685e-15
2.82707e-15
1.92309e-15
1.36794e-15
1.04512e-15
7.26754e-16
7.26445e-16
8.03998e-16
2.36344e-15
6.71315e-15
7.83084e-14
1.48386e-13
2.21666e-12
2.29284e-12
7.40184e-12
7.31857e-12
1.48663e-05
5.13081e-05
9.83822e-05
0.000151391
0.000204159
0.000253942
0.000310733
0.000388398
0.000496129
0.000627232
0.000775371
0.000952997
0.00116866
0.0014145
0.00168142
0.00195269
0.00212898
0.00221019
0.00222845
0.00204136
0.00178341
0.00142435
0.00109701
0.000767634
0.00054142
0.000399238
0.000318168
0.000285188
0.000273948
0.000273015
0.000283805
0.000308341
0.000353138
0.000410662
0.000476931
0.000541948
0.000616541
0.00070612
0.000821627
0.000967462
0.00115875
0.00140475
0.00169475
0.00199914
0.0022611
0.00247455
0.00265905
0.00276805
0.00280724
0.00280407
0.00262843
0.00240345
0.00216745
0.00204807
0.00178246
0.00153803
0.00135592
0.00124213
0.00109636
0.00101113
0.000933858
0.000892809
0.000837554
0.000813031
0.000786342
0.000775658
0.000753425
0.000731764
0.000674066
0.000590776
0.000485545
0.000373264
0.000318279
0.000296455
0.000289072
0.0002871
0.000288451
0.000290642
0.000281494
0.000259717
0.000228429
0.000193961
0.000158068
0.000127069
0.000105751
9.25741e-05
8.35832e-05
7.66749e-05
7.12945e-05
6.7375e-05
6.43556e-05
6.18559e-05
5.95443e-05
5.73144e-05
5.51376e-05
5.276e-05
4.97374e-05
4.64005e-05
4.34564e-05
4.0992e-05
3.89471e-05
3.71891e-05
3.51514e-05
3.18191e-05
2.65978e-05
2.04593e-05
1.4896e-05
1.04989e-05
7.17429e-06
4.78395e-06
3.14344e-06
2.06536e-06
1.38406e-06
9.67042e-07
7.1559e-07
5.60974e-07
4.64041e-07
4.06665e-07
3.77192e-07
3.57801e-07
3.34344e-07
3.03761e-07
2.69031e-07
2.32893e-07
1.97511e-07
1.64428e-07
1.34598e-07
1.08486e-07
8.61892e-08
6.7552e-08
5.22631e-08
3.99308e-08
3.01359e-08
2.24686e-08
1.65493e-08
1.20409e-08
8.65241e-09
6.13938e-09
4.30039e-09
2.97277e-09
2.02745e-09
1.36372e-09
9.04359e-10
5.91063e-10
3.80574e-10
2.41313e-10
1.50616e-10
9.2495e-11
5.5863e-11
3.31659e-11
1.93468e-11
1.10831e-11
6.23208e-12
3.4383e-12
1.8605e-12
9.87151e-13
5.13547e-13
2.62011e-13
1.31211e-13
6.46258e-14
3.14033e-14
1.51693e-14
7.37746e-15
3.6474e-15
1.94876e-15
1.12401e-15
6.5084e-16
5.99165e-16
8.45126e-16
1.86211e-15
5.73235e-15
1.67161e-14
5.07013e-14
1.26549e-13
4.4734e-13
7.20477e-13
2.3062e-12
2.40186e-12
2.7385e-12
3.72629e-12
1.2678e-05
4.5798e-05
8.85845e-05
0.000136953
0.000184647
0.000226944
0.000271214
0.000327708
0.000402132
0.000487699
0.000572497
0.000657804
0.000749485
0.000843731
0.000937085
0.00100647
0.00103902
0.00104792
0.000987349
0.000882859
0.000754926
0.000605257
0.000483541
0.000377256
0.000316914
0.000286083
0.000273175
0.000270569
0.000275318
0.000287354
0.000317262
0.000361501
0.000418418
0.000485614
0.000564631
0.000651094
0.00077361
0.000938994
0.00117311
0.00149481
0.0019121
0.00243642
0.00304476
0.00365095
0.00424915
0.00476941
0.00523059
0.00557482
0.00572927
0.0057655
0.00549865
0.00498133
0.00428099
0.00367276
0.00293729
0.00235902
0.00185042
0.00159641
0.00130372
0.00118456
0.00104846
0.000986934
0.000909543
0.000870255
0.000846318
0.000836554
0.000839479
0.000861607
0.00086883
0.000859314
0.000785517
0.000633115
0.000434895
0.000351254
0.000320196
0.000299763
0.000275518
0.000261185
0.000246501
0.000233361
0.000219123
0.000197106
0.000168682
0.000139861
0.00011647
9.96285e-05
8.86623e-05
8.1305e-05
7.54043e-05
7.0029e-05
6.57947e-05
6.276e-05
6.03205e-05
5.80118e-05
5.58829e-05
5.39565e-05
5.20745e-05
4.96872e-05
4.64268e-05
4.31803e-05
4.06038e-05
3.86894e-05
3.7282e-05
3.61642e-05
3.47344e-05
3.19947e-05
2.71927e-05
2.1036e-05
1.52282e-05
1.05785e-05
7.06612e-06
4.56233e-06
2.86922e-06
1.77858e-06
1.10649e-06
7.0817e-07
4.79111e-07
3.48288e-07
2.71812e-07
2.27784e-07
2.06612e-07
1.97304e-07
1.88266e-07
1.74437e-07
1.56471e-07
1.36372e-07
1.15864e-07
9.62338e-08
7.83116e-08
6.25514e-08
4.91144e-08
3.79539e-08
2.88921e-08
2.16809e-08
1.60459e-08
1.1716e-08
8.44101e-09
6.00105e-09
4.20972e-09
2.9135e-09
1.98896e-09
1.33899e-09
8.88672e-10
5.81274e-10
3.74575e-10
2.37712e-10
1.48505e-10
9.12888e-11
5.51924e-11
3.28025e-11
1.91548e-11
1.09842e-11
6.18227e-12
3.41336e-12
1.84775e-12
9.80218e-13
5.09377e-13
2.59219e-13
1.29183e-13
6.30693e-14
3.01964e-14
1.42209e-14
6.63633e-15
3.10067e-15
1.50411e-15
8.01339e-16
4.4957e-16
3.44312e-16
4.79004e-16
1.12069e-15
3.6059e-15
1.0659e-14
3.13599e-14
7.56321e-14
2.60378e-13
3.77652e-13
7.21732e-13
9.83327e-13
1.10171e-12
1.46412e-12
1.00226e-05
3.83571e-05
7.51797e-05
0.000118849
0.000163141
0.000199866
0.000234095
0.000274599
0.000325971
0.000384738
0.000438841
0.000479996
0.000513538
0.000546
0.000569864
0.000581263
0.000584447
0.000566308
0.000521062
0.000468065
0.000412151
0.000352086
0.000312424
0.0002849
0.000273246
0.000269919
0.000271329
0.000277988
0.000300119
0.00034912
0.000417085
0.000480014
0.000560442
0.000646793
0.000770435
0.000940415
0.00119735
0.00157811
0.00210841
0.00279128
0.003598
0.00453357
0.00562216
0.00697816
0.00861744
0.0103811
0.0121813
0.0138188
0.0146695
0.0149905
0.0146663
0.013075
0.0113337
0.00897098
0.00700325
0.0050909
0.00353726
0.00274177
0.00187101
0.00150434
0.00122379
0.00107854
0.00100423
0.000937802
0.000878534
0.00084166
0.000828216
0.000824901
0.000859794
0.00088503
0.000864444
0.000761597
0.000594161
0.000490075
0.000450348
0.000419588
0.000341005
0.000276391
0.000246894
0.000222072
0.000198144
0.000177145
0.000158711
0.000138367
0.000117364
0.000100646
8.93074e-05
8.20748e-05
7.6948e-05
7.26112e-05
6.82623e-05
6.44528e-05
6.16416e-05
5.9282e-05
5.6806e-05
5.44567e-05
5.25714e-05
5.09279e-05
4.9059e-05
4.62717e-05
4.28981e-05
4.00118e-05
3.79194e-05
3.6532e-05
3.56176e-05
3.48639e-05
3.37289e-05
3.13116e-05
2.64173e-05
2.01587e-05
1.43433e-05
9.7303e-06
6.31417e-06
3.93972e-06
2.38028e-06
1.40683e-06
8.26132e-07
4.93305e-07
3.08714e-07
2.08198e-07
1.52598e-07
1.21716e-07
1.07105e-07
1.024e-07
9.99716e-08
9.48291e-08
8.59788e-08
7.54775e-08
6.42775e-08
5.32545e-08
4.30794e-08
3.41033e-08
2.64668e-08
2.01659e-08
1.51032e-08
1.11294e-08
8.0751e-09
5.77196e-09
4.06583e-09
2.82298e-09
1.93207e-09
1.30338e-09
8.66548e-10
5.67669e-10
3.66321e-10
2.32784e-10
1.45618e-10
8.96339e-11
5.42669e-11
3.22999e-11
1.8891e-11
1.08511e-11
6.11823e-12
3.38439e-12
1.83572e-12
9.7586e-13
5.08182e-13
2.59145e-13
1.29384e-13
6.3254e-14
3.03057e-14
1.42617e-14
6.63042e-15
3.08091e-15
1.46771e-15
7.60802e-16
4.44589e-16
2.99524e-16
3.09748e-16
5.26742e-16
1.53813e-15
4.46621e-15
1.38634e-14
2.98617e-14
9.55889e-14
1.12963e-13
1.35974e-13
1.914e-13
2.35394e-13
3.74751e-13
7.06289e-06
2.92848e-05
6.05013e-05
9.92087e-05
0.000139387
0.000175108
0.000203543
0.000231071
0.000267707
0.000311579
0.000353827
0.000380875
0.00039298
0.000400597
0.000403707
0.000399029
0.000385903
0.000372204
0.000347786
0.000321415
0.000301478
0.000282069
0.000272769
0.000268906
0.000269742
0.000272638
0.000283779
0.00031012
0.000359552
0.000413375
0.000471433
0.000545761
0.000630473
0.000738905
0.000899277
0.00114376
0.0015126
0.00206885
0.00286548
0.00395475
0.00539144
0.00730395
0.00990502
0.0134126
0.0177435
0.0227397
0.0280987
0.0331187
0.035886
0.0370153
0.0368834
0.0327107
0.0283425
0.0217708
0.0164236
0.011717
0.0076738
0.00546161
0.00340559
0.00234347
0.00170662
0.00133688
0.00116084
0.00104988
0.0009873
0.000929852
0.000868064
0.0008189
0.000794588
0.000797556
0.000802226
0.000766357
0.00063913
0.000580416
0.000613712
0.000640952
0.00053321
0.000388679
0.000322473
0.000273119
0.000222414
0.000180493
0.000151887
0.00013135
0.000113453
9.87926e-05
8.76939e-05
8.05125e-05
7.64484e-05
7.29725e-05
6.94527e-05
6.56316e-05
6.22473e-05
5.97851e-05
5.7805e-05
5.56012e-05
5.31595e-05
5.11609e-05
4.95649e-05
4.78944e-05
4.5509e-05
4.23086e-05
3.92798e-05
3.70359e-05
3.56112e-05
3.4795e-05
3.42308e-05
3.35885e-05
3.24495e-05
2.98889e-05
2.44289e-05
1.79948e-05
1.24191e-05
8.13422e-06
5.08261e-06
3.04789e-06
1.76656e-06
9.98962e-07
5.58794e-07
3.15768e-07
1.85708e-07
1.1749e-07
8.13767e-08
6.19602e-08
5.26949e-08
4.97233e-08
4.92712e-08
4.87576e-08
4.66174e-08
4.06974e-08
3.43065e-08
2.82436e-08
2.26596e-08
1.77512e-08
1.36004e-08
1.02066e-08
7.51309e-09
5.43102e-09
3.85911e-09
2.69747e-09
1.85573e-09
1.25694e-09
8.38347e-10
5.50633e-10
3.56117e-10
2.26747e-10
1.42101e-10
8.76236e-11
5.31438e-11
3.16891e-11
1.85692e-11
1.06878e-11
6.03919e-12
3.34839e-12
1.82069e-12
9.70428e-13
5.06785e-13
2.59221e-13
1.2984e-13
6.36889e-14
3.06153e-14
1.44515e-14
6.7338e-15
3.13469e-15
1.49413e-15
7.6563e-16
4.5198e-16
3.11014e-16
2.55368e-16
2.56604e-16
4.21141e-16
9.84256e-16
2.56985e-15
5.96561e-15
9.45994e-15
1.69263e-14
2.21914e-14
3.42415e-14
4.44959e-14
8.0535e-14
4.45898e-06
2.213e-05
4.48635e-05
7.64794e-05
0.000115103
0.000149754
0.000176681
0.000201517
0.000227015
0.000255533
0.000288189
0.00032074
0.000335513
0.000338122
0.000335455
0.000324916
0.000309973
0.000297491
0.000284336
0.000273383
0.000267702
0.000264553
0.000263813
0.000268247
0.000274397
0.000290012
0.000331839
0.000391558
0.000450855
0.000509235
0.000573756
0.000658339
0.0007625
0.000934807
0.00119675
0.00161946
0.00221546
0.00310451
0.00446503
0.00644253
0.00928295
0.0134218
0.0196475
0.0283801
0.0391722
0.0508411
0.0616701
0.0700763
0.0748524
0.0769462
0.0771957
0.0701273
0.0622926
0.0494296
0.0359674
0.0250276
0.0163794
0.0101969
0.00645629
0.00382322
0.00241669
0.00165006
0.00126711
0.00109022
0.001015
0.000974589
0.000942686
0.000908952
0.000848757
0.000800408
0.000744052
0.000692708
0.00065128
0.000615935
0.000681717
0.00076299
0.00072356
0.000571545
0.00041596
0.000348394
0.000316608
0.000262873
0.000192019
0.000143235
0.000115878
9.86364e-05
8.6834e-05
7.8517e-05
7.35929e-05
7.1637e-05
6.94043e-05
6.64084e-05
6.28623e-05
5.9854e-05
5.78079e-05
5.61063e-05
5.41363e-05
5.18401e-05
4.97546e-05
4.80695e-05
4.63664e-05
4.41361e-05
4.1152e-05
3.8117e-05
3.58081e-05
3.43702e-05
3.36797e-05
3.33192e-05
3.29176e-05
3.22323e-05
3.08608e-05
2.7493e-05
2.11598e-05
1.48299e-05
9.78541e-06
6.12468e-06
3.65925e-06
2.09994e-06
1.16552e-06
6.31167e-07
3.37713e-07
1.82018e-07
1.01692e-07
6.10028e-08
4.02499e-08
2.94775e-08
2.44085e-08
2.26904e-08
2.24553e-08
2.25219e-08
2.23537e-08
2.09708e-08
1.75061e-08
1.42399e-08
1.1317e-08
8.76783e-09
6.63001e-09
4.89987e-09
3.54428e-09
2.51263e-09
1.7478e-09
1.19405e-09
8.01735e-10
5.29336e-10
3.43759e-10
2.19614e-10
1.38022e-10
8.53224e-11
5.18692e-11
3.09996e-11
1.82071e-11
1.05046e-11
5.95082e-12
3.30839e-12
1.8042e-12
9.64654e-13
5.05475e-13