/*--------------------------------*- C++ -*----------------------------------*\
  =========                 |
  \\      /  F ield         | OpenFOAM: The Open Source CFD Toolbox
   \\    /   O peration     | Website:  https://openfoam.org
    \\  /    A nd           | Version:  7
     \\/     M anipulation  |
\*---------------------------------------------------------------------------*/
FoamFile
{
    version     2.0;
    format      ascii;
    class       volScalarField;
    location    "0.039";
    object      p;
}
// * * * * * * * * * * * * * * * * * * * * * * * * * * * * * * * * * * * * * //

dimensions      [0 2 -2 0 0 0 0];

internalField   nonuniform List<scalar> 
12225
(
60.0406
54.5892
50.0933
46.6404
44.054
42.0841
40.5269
39.2366
38.1398
37.2077
36.4141
35.726
35.1174
34.578
34.0979
33.6669
33.2596
32.8236
60.5266
54.5343
50.0315
46.6031
44.0238
42.0574
40.503
39.2161
38.1237
37.1973
36.4083
35.7231
35.1158
34.5765
34.0969
33.6672
33.2655
32.845
60.6301
54.3463
49.869
46.505
43.9547
42.0022
40.4579
39.1825
38.1017
37.1828
36.3975
35.7143
35.1101
34.5739
34.0967
33.6662
33.2646
32.8568
60.6767
54.0872
49.6457
46.3646
43.8568
41.9238
40.393
39.1322
38.0651
37.1559
36.3771
35.6998
35.1011
34.5683
34.0921
33.6599
33.258
32.863
60.3398
53.6557
49.3064
46.1385
43.6998
41.8049
40.2988
39.0592
38.0102
37.1138
36.3438
35.6735
35.081
34.5527
34.0791
33.649
33.2504
32.8688
59.5933
53.0372
48.8565
45.8368
43.4943
41.6511
40.176
38.9619
37.9353
37.0564
36.2989
35.6379
35.0528
34.5302
34.0609
33.6348
33.2419
32.8737
58.0762
52.1906
48.2851
45.4449
43.2196
41.4471
40.0173
38.8372
37.8378
36.9791
36.2362
35.5867
35.0115
34.4972
34.0347
33.615
33.2299
32.8746
56.2736
51.1185
47.5654
44.9487
42.8727
41.1917
39.8181
38.6778
37.7109
36.8781
36.1549
35.5207
34.9581
34.4542
34.0003
33.5885
33.2126
32.869
54.3158
49.7954
46.7013
44.3553
42.4485
40.8755
39.5746
38.4867
37.5591
36.7561
36.0552
35.4384
34.89
34.398
33.9541
33.5519
33.1861
32.8533
51.1946
48.2212
45.6931
43.6527
41.9421
40.4969
39.2805
38.2513
37.3676
36.5992
35.9262
35.332
34.8022
34.3259
33.8957
33.5054
33.1508
32.8295
47.8355
46.4498
44.5533
42.8475
41.3504
40.0491
38.9325
37.9755
37.1461
36.4194
35.7784
35.2091
34.6992
34.2394
33.8229
33.4445
33.0997
32.7837
44.8548
44.8073
43.4369
42.0347
40.7377
39.5787
38.5641
37.6792
36.9018
36.2154
35.6077
35.0663
34.5797
34.1392
33.7394
33.3755
33.0431
32.7398
44.3276
43.3342
42.2691
41.1603
40.0717
39.0616
38.1546
37.3487
36.6317
35.9935
35.4244
34.913
34.4499
34.0285
33.6442
33.2933
32.9723
32.6781
42.8533
41.5695
40.8906
40.1083
39.2466
38.4064
37.632
36.9262
36.2829
35.7001
35.175
34.7006
34.2691
33.8746
33.5134
33.182
32.8768
32.5958
37.598
39.2136
39.2694
38.85
38.2493
37.6019
36.973
36.3816
35.8305
35.3232
34.8595
34.4342
34.0412
33.6774
33.3412
33.0304
32.7426
32.4753
35.3669
37.0927
37.5703
37.4228
37.0663
36.6279
36.1685
35.7109
35.2658
34.8426
34.4463
34.0769
33.7315
33.4084
33.1069
32.8256
32.5629
32.3171
33.5474
35.5266
35.9652
35.9248
35.7433
35.4886
35.192
34.8759
34.5545
34.2377
33.9309
33.6351
33.3495
33.075
32.8129
32.5635
32.3264
32.1007
38.8942
35.2804
34.478
34.2955
34.2381
34.1751
34.0686
33.9166
33.7313
33.5268
33.3122
33.0926
32.8723
32.6544
32.4414
32.2344
32.034
31.8405
27.3365
30.2275
31.4341
32.0825
32.4931
32.7187
32.8142
32.827
32.7834
32.6994
32.5869
32.4541
32.3075
32.1522
31.9921
31.8295
31.6665
31.5047
28.3256
28.5497
29.6503
30.5524
31.1867
31.6025
31.8667
32.0149
32.0758
32.0773
32.0377
31.9671
31.8735
31.764
31.6443
31.5175
31.386
31.2519
21.5188
26.2533
28.4775
29.722
30.4847
30.969
31.2851
31.4833
31.5905
31.6335
31.6338
31.6016
31.5428
31.4641
31.3713
31.2689
31.1594
31.045
22.6407
26.159
28.1773
29.3616
30.1144
30.6139
30.9567
31.1841
31.3177
31.3827
31.4024
31.3893
31.3493
31.2882
31.2115
31.1233
31.0261
30.9223
24.3438
27.0751
28.5135
29.3911
29.9911
30.4147
30.7267
30.9459
31.0836
31.1593
31.1933
31.1958
31.1715
31.1254
31.0627
30.9885
30.9042
30.8127
28.5754
28.5478
29.0308
29.5463
30.0086
30.375
30.6586
30.8615
30.9911
31.064
31.0973
31.1018
31.0824
31.0423
30.9855
30.9192
30.8383
30.7496
30.1962
29.4586
29.4731
29.6894
30.0104
30.318
30.5726
30.7572
30.8819
30.9556
30.9981
31.0101
30.9975
30.965
30.9165
30.8509
30.7788
30.6974
31.5882
30.1465
29.7863
29.8409
30.0872
30.3555
30.582
30.7411
30.8506
30.9244
30.9593
30.9687
30.9568
30.9267
30.8815
30.8219
30.7519
30.6722
32.5358
30.3619
29.8939
29.8894
30.0997
30.3553
30.5414
30.6908
30.805
30.8805
30.9189
30.9284
30.917
30.8896
30.8485
30.7944
30.7284
30.6515
30.5848
30.409
29.9621
29.9647
30.1819
30.3855
30.5516
30.6896
30.7977
30.8687
30.9025
30.9088
30.8972
30.8726
30.8357
30.7856
30.7218
30.6451
30.1884
30.193
29.929
29.993
30.1929
30.3833
30.5419
30.679
30.7889
30.8597
30.8897
30.8909
30.8771
30.8552
30.8245
30.781
30.7218
30.6463
31.2636
30.1728
29.9141
30.0295
30.216
30.3913
30.5446
30.6813
30.7914
30.8607
30.8879
30.8861
30.8707
30.8494
30.8207
30.7798
30.7228
30.6488
28.4726
28.4722
28.4542
28.4189
28.3652
28.2923
28.1997
28.0864
27.9512
27.7933
27.6126
27.4102
27.1889
26.9538
26.7124
26.475
26.2544
26.0643
25.9183
25.825
25.7883
25.8066
25.8715
25.966
26.0678
26.161
26.2436
26.3098
26.3429
26.3373
26.3249
26.3669
26.4805
26.5508
26.4389
26.1498
25.6953
25.1025
24.4048
23.6364
22.8294
22.0125
21.2106
20.4452
19.7344
19.0937
18.5358
18.0704
17.7045
17.4422
17.2856
17.2348
17.2869
17.435
17.6681
17.9742
18.3405
18.7542
19.203
19.6757
20.1625
20.6555
21.1487
21.6385
22.1235
22.6042
23.0832
23.564
24.0512
24.5484
25.0571
25.5755
26.0983
26.617
27.121
27.6002
28.0458
28.4517
28.8146
29.1327
29.4056
29.634
29.8194
29.9643
30.0715
30.1441
30.1842
30.1963
30.1833
30.1485
30.0947
30.0246
29.9405
29.8446
29.7388
29.6247
29.5038
29.3774
29.2465
29.112
28.9748
28.8354
28.6945
28.5523
28.4093
28.2657
28.1217
27.9774
27.8329
27.6883
27.5435
27.3985
27.2533
27.1078
26.962
26.8159
26.6694
26.5225
26.3752
26.2272
26.0787
25.9297
25.78
25.6297
25.4787
25.3271
25.1746
25.0214
24.8674
24.7126
24.5568
24.4002
24.2425
24.0839
23.9242
23.7635
23.6017
23.4387
23.2747
23.1094
22.943
22.7754
22.6066
22.4366
22.2653
22.0928
21.919
21.7439
21.5674
21.3897
21.2106
21.0301
20.8483
20.6651
20.4806
20.2946
20.1072
19.9185
19.7284
19.5368
19.3439
19.1497
18.954
18.7571
18.5589
18.3595
18.159
17.9574
17.7549
17.5518
17.348
17.1442
16.9406
16.7379
16.5366
16.3384
16.1439
15.9554
15.7762
15.6024
28.4657
28.4589
28.4359
28.397
28.3416
28.2685
28.1757
28.0617
27.9246
27.7633
27.577
27.3663
27.1337
26.884
26.6248
26.3668
26.1233
25.909
25.7372
25.6189
25.5659
25.581
25.6602
25.7905
25.948
26.1109
26.2752
26.4472
26.6243
26.6341
26.4273
26.262
26.2133
26.1406
25.9442
25.6013
25.1177
24.5162
23.8261
23.0772
22.2978
21.5135
20.7464
20.0147
19.3345
18.7207
18.1867
17.7438
17.401
17.1639
17.0344
17.012
17.0895
17.2591
17.5123
17.8379
18.2233
18.6554
19.1214
19.6096
20.1096
20.6131
21.1138
21.6079
22.0937
22.572
23.0457
23.5193
23.9983
24.4878
24.9908
25.5064
26.0296
26.5512
27.06
27.5446
27.9959
28.4076
28.7761
29.0996
29.3775
29.6104
29.7998
29.9481
30.058
30.1326
30.174
30.1873
30.1754
30.1414
30.0883
30.0186
29.935
29.8395
29.734
29.6202
29.4995
29.3733
29.2427
29.1084
28.9714
28.8322
28.6914
28.5494
28.4066
28.2632
28.1193
27.9752
27.8309
27.6864
27.5417
27.3968
27.2517
27.1063
26.9607
26.8146
26.6682
26.5214
26.374
26.2262
26.0778
25.9288
25.7792
25.629
25.4781
25.3265
25.1741
25.021
24.867
24.7122
24.5565
24.3998
24.2423
24.0837
23.924
23.7633
23.6015
23.4386
23.2746
23.1093
22.9429
22.7753
22.6065
22.4365
22.2653
22.0927
21.9189
21.7438
21.5674
21.3897
21.2106
21.0301
20.8483
20.6651
20.4805
20.2945
20.1072
19.9184
19.7283
19.5367
19.3438
19.1495
18.9539
18.757
18.5587
18.3593
18.1587
17.957
17.7545
17.5512
17.3473
17.1433
16.9393
16.7362
16.5345
16.3351
16.1397
15.9481
15.7664
15.5821
28.473
28.4609
28.4343
28.3932
28.3364
28.2618
28.1673
28.0503
27.9083
27.7394
27.5418
27.3153
27.061
26.7831
26.4886
26.189
25.9002
25.6411
25.4306
25.284
25.2144
25.2287
25.3305
25.5142
25.753
25.9958
26.1255
26.1452
26.1433
26.1263
26.0343
25.8693
25.6608
25.4026
25.0751
24.6658
24.1717
23.5991
22.9611
22.2743
21.5572
20.8287
20.1077
19.4134
18.7634
18.174
17.6601
17.2354
16.911
16.6948
16.5899
16.5922
16.6989
16.9025
17.1928
17.5571
17.9815
18.4515
18.953
19.4731
20.0006
20.5261
21.0426
21.5457
22.0337
22.5074
22.9707
23.4294
23.8913
24.3641
24.8535
25.361
25.8826
26.409
26.9269
27.4229
27.8864
28.3105
28.6914
29.0269
29.316
29.5589
29.7568
29.9121
30.0277
30.1061
30.1509
30.1666
30.1566
30.1242
30.0723
30.0037
29.9209
29.8262
29.7214
29.6083
29.4884
29.3628
29.2326
29.0989
28.9624
28.8237
28.6833
28.5418
28.3994
28.2564
28.113
27.9693
27.8253
27.6812
27.5369
27.3924
27.2477
27.1026
26.9573
26.8115
26.6654
26.5188
26.3718
26.2242
26.076
25.9273
25.7779
25.6279
25.4771
25.3257
25.1734
25.0204
24.8666
24.7118
24.5562
24.3996
24.242
24.0834
23.9238
23.7632
23.6014
23.4385
23.2744
23.1092
22.9429
22.7753
22.6065
22.4365
22.2652
22.0927
21.9189
21.7438
21.5674
21.3896
21.2105
21.0301
20.8482
20.665
20.4804
20.2945
20.1071
19.9183
19.7282
19.5366
19.3437
19.1493
18.9537
18.7567
18.5584
18.3588
18.1581
17.9563
17.7535
17.55
17.3458
17.1412
16.9367
16.7326
16.5297
16.328
16.1297
15.9326
15.7424
15.5433
28.5213
28.5079
28.4814
28.4414
28.386
28.3132
28.2204
28.105
27.964
27.7945
27.5941
27.3618
27.0981
26.8065
26.4939
26.172
25.8586
25.5744
25.334
25.1621
25.0679
25.0539
25.1173
25.2418
25.4025
25.5689
25.6964
25.7456
25.7102
25.6096
25.4507
25.2385
24.9707
24.6424
24.25
23.7923
23.2707
22.6902
22.0598
21.3911
20.6977
19.9948
19.2983
18.6254
17.9934
17.4195
16.9205
16.5114
16.2047
16.0092
15.9292
15.9636
16.1109
16.3639
16.7103
17.1345
17.6196
18.1486
18.7052
19.2751
19.8455
20.4058
20.9479
21.4662
21.9585
22.4259
22.8728
23.3071
23.7393
24.1814
24.6444
25.1347
25.651
26.1832
26.7151
27.2291
27.7124
28.157
28.5583
28.9137
29.2211
29.4802
29.6918
29.8582
29.9823
30.0659
30.1162
30.1358
30.1289
30.0988
30.0488
29.9818
29.9005
29.807
29.7033
29.5912
29.4722
29.3475
29.2183
29.0854
28.9496
28.8116
28.6719
28.531
28.3892
28.2469
28.104
27.9609
27.8176
27.674
27.5302
27.3862
27.2419
27.0973
26.9524
26.8071
26.6613
26.5151
26.3683
26.221
26.0732
25.9247
25.7756
25.6257
25.4752
25.3239
25.1719
25.019
24.8653
24.7107
24.5552
24.3987
24.2412
24.0827
23.9232
23.7626
23.6009
23.438
23.2741
23.1089
22.9425
22.775
22.6063
22.4363
22.2651
22.0926
21.9188
21.7437
21.5673
21.3895
21.2104
21.0299
20.8481
20.6649
20.4803
20.2943
20.1069
19.9182
19.728
19.5364
19.3434
19.1491
18.9533
18.7562
18.5579
18.3582
18.1574
17.9554
17.7524
17.5485
17.3439
17.1388
16.9336
16.7283
16.524
16.32
16.1185
15.9163
15.7177
15.5079
28.6203
28.6083
28.5843
28.5478
28.4971
28.4305
28.3457
28.2403
28.1116
27.9569
27.774
27.5619
27.3206
27.0525
26.7632
26.4622
26.1656
25.8964
25.6663
25.4908
25.3761
25.3226
25.3219
25.3572
25.4061
25.4455
25.4548
25.4131
25.3077
25.1391
24.9145
24.638
24.3075
23.9189
23.4703
22.9628
22.4013
21.793
21.1469
20.4729
19.7814
19.0837
18.3937
17.7269
17.0989
16.5273
16.03
15.6234
15.3217
15.1366
15.0791
15.1601
15.3699
15.6941
16.1158
16.6168
17.1779
17.78
18.4053
19.0374
19.6623
20.2677
20.8435
21.3827
21.8817
22.3406
22.7639
23.1611
23.5471
23.9397
24.3572
24.8135
25.3131
25.8485
26.399
26.9403
27.4545
27.9316
28.3659
28.753
29.0892
29.3729
29.6043
29.7858
29.9207
30.0133
30.0697
30.0943
30.0911
30.0642
30.0168
29.9522
29.8728
29.7812
29.6791
29.5684
29.4507
29.3271
29.1989
29.067
28.9321
28.795
28.6562
28.5162
28.3752
28.2337
28.0916
27.9493
27.8067
27.6639
27.5208
27.3775
27.2339
27.09
26.9456
26.8008
26.6556
26.5098
26.3635
26.2167
26.0692
25.9211
25.7723
25.6228
25.4726
25.3216
25.1698
25.0172
24.8637
24.7092
24.5539
24.3976
24.2402
24.0819
23.9224
23.7619
23.6003
23.4375
23.2736
23.1085
22.9422
22.7747
22.606
22.4361
22.2649
22.0924
21.9186
21.7435
21.5671
21.3894
21.2103
21.0298
20.848
20.6648
20.4802
20.2942
20.1068
19.918
19.7278
19.5362
19.3431
19.1487
18.9529
18.7558
18.5573
18.3575
18.1565
17.9543
17.751
17.5468
17.3418
17.136
16.93
16.7236
16.5176
16.3114
16.1063
15.8996
15.693
15.4756
28.7663
28.7568
28.7369
28.7064
28.6639
28.608
28.5371
28.4492
28.3424
28.2144
28.0637
27.8894
27.692
27.4737
27.2402
27.0018
26.7665
26.5398
26.3322
26.1523
26.0042
25.8866
25.7928
25.711
25.6265
25.5254
25.3968
25.2331
25.0274
24.7743
24.4714
24.1177
23.7121
23.2541
22.7453
22.19
21.5948
20.9673
20.3146
19.6418
18.9541
18.2581
17.5625
16.8802
16.2294
15.6311
15.1088
14.6863
14.3854
14.2218
14.203
14.3272
14.5896
14.9788
15.4767
16.0608
16.7071
17.3923
18.0951
18.7972
19.4829
20.1387
20.7536
21.3184
21.8269
22.2768
22.6706
23.0195
23.3432
23.6661
24.0147
24.4138
24.8778
25.4046
25.9705
26.5421
27.0959
27.6192
28.1028
28.5383
28.9175
29.2367
29.4957
29.6969
29.8451
29.9485
30.0124
30.0424
30.0436
30.0202
29.976
29.9143
29.8377
29.7485
29.6488
29.5403
29.4244
29.3025
29.1756
29.0449
28.9111
28.775
28.6372
28.4981
28.3581
28.2175
28.0764
27.935
27.7934
27.6515
27.5093
27.3668
27.224
27.0809
26.9372
26.7931
26.6485
26.5033
26.3576
26.2112
26.0642
25.9166
25.7682
25.6191
25.4692
25.3186
25.1671
25.0147
24.8615
24.7073
24.5521
24.396
24.2388
24.0806
23.9213
23.7609
23.5994
23.4368
23.2729
23.1079
22.9417
22.7743
22.6056
22.4357
22.2646
22.0921
21.9184
21.7433
21.5669
21.3892
21.2101
21.0296
20.8478
20.6646
20.48
20.294
20.1066
19.9178
19.7275
19.5359
19.3428
19.1483
18.9525
18.7552
18.5566
18.3567
18.1555
17.9531
17.7495
17.5449
17.3394
17.133
16.926
16.7184
16.5107
16.3023
16.0937
15.8829
15.6696
15.4462
28.9405
28.9333
28.9178
28.8937
28.8601
28.8157
28.7595
28.6901
28.606
28.5058
28.3882
28.2526
28.1008
27.9337
27.7533
27.5616
27.3643
27.1667
26.973
26.7857
26.6053
26.4301
26.2559
26.0763
25.884
25.6717
25.433
25.163
24.857
24.5111
24.1221
23.6887
23.2118
22.6948
22.143
21.5616
20.9547
20.3236
19.6677
18.9861
18.2789
17.5483
16.8006
16.0476
15.311
14.6209
14.0122
13.5208
13.1769
13.0016
13.0043
13.1815
13.5271
14.0229
14.6417
15.3518
16.1213
16.9207
17.7255
18.5162
19.2776
19.9972
20.6641
21.2677
21.798
22.2492
22.6234
22.9325
23.1971
23.4452
23.7101
24.0257
24.4207
24.9068
25.4667
26.0572
26.6477
27.2226
27.7682
28.2681
28.706
29.0733
29.3686
29.592
29.758
29.873
29.9449
29.9808
29.9865
29.9669
29.9262
29.8677
29.7943
29.7083
29.6116
29.5058
29.3925
29.2729
29.1481
29.019
28.8866
28.7517
28.6149
28.4768
28.3378
28.1982
28.0582
27.9179
27.7773
27.6365
27.4954
27.354
27.2121
27.0699
26.9271
26.7838
26.6399
26.4955
26.3504
26.2046
26.0582
25.9111
25.7632
25.6146
25.4651
25.3149
25.1638
25.0117
24.8588
24.7049
24.55
24.3941
24.2372
24.0791
23.92
23.7598
23.5984
23.4359
23.2721
23.1072
22.9411
22.7738
22.6052
22.4354
22.2642
22.0918
21.9181
21.7431
21.5667
21.389
21.2099
21.0294
20.8476
20.6644
20.4798
20.2938
20.1063
19.9175
19.7272
19.5355
19.3424
19.1479
18.952
18.7546
18.5559
18.3558
18.1545
17.9518
17.7479
17.5428
17.3368
17.1297
16.9217
16.7129
16.5035
16.2928
16.0811
15.8664
15.6478
15.4195
29.1199
29.1148
29.1033
29.0851
29.0593
29.0254
28.9821
28.9285
28.864
28.787
28.6966
28.5925
28.4733
28.3402
28.1942
28.0362
27.8671
27.6879
27.4995
27.3017
27.0936
26.8737
26.6396
26.3885
26.1168
25.8209
25.4969
25.141
24.7508
24.3245
23.8624
23.3663
22.8399
22.2878
21.7141
21.1204
20.5042
19.8583
19.1719
18.4346
17.6416
16.7959
15.9097
15.005
14.112
13.2707
12.5281
11.9322
11.523
11.3277
11.3605
11.6221
12.0918
12.7391
13.526
14.4093
15.3459
16.2977
17.2352
18.1374
18.9905
19.7849
20.5124
21.165
21.7351
22.2166
22.6097
22.9201
23.162
23.3664
23.5694
23.803
24.1013
24.4986
24.9989
25.5621
26.1565
26.7675
27.3759
27.9508
28.461
28.8879
29.2249
29.4781
29.662
29.7884
29.8681
29.9098
29.9201
29.9046
29.8675
29.8126
29.7428
29.6603
29.5672
29.4649
29.3548
29.2382
29.116
28.9893
28.8589
28.7256
28.5901
28.4531
28.3151
28.1765
28.0375
27.8983
27.7589
27.6193
27.4793
27.3391
27.1984
27.0572
26.9154
26.773
26.63
26.4864
26.342
26.197
26.0512
25.9047
25.7574
25.6093
25.4604
25.3105
25.1599
25.0082
24.8556
24.7021
24.5475
24.3919
24.2352
24.0774
23.9185
23.7584
23.5972
23.4348
23.2712
23.1064
22.9404
22.7732
22.6047
22.4349
22.2638
22.0915
21.9178
21.7428
21.5664
21.3887
21.2097
21.0292
20.8474
20.6642
20.4796
20.2935
20.1061
19.9172
19.7269
19.5352
19.342
19.1474
18.9514
18.754
18.5551
18.3549
18.1533
17.9504
17.7461
17.5406
17.334
17.1262
16.9173
16.7072
16.4961
16.2833
16.0687
15.8505
15.6274
15.3952
29.2906
29.2872
29.2788
29.2651
29.2455
29.2194
29.1859
29.1443
29.093
29.0313
28.9586
28.8739
28.7767
28.6665
28.543
28.4053
28.2526
28.0836
27.8969
27.6909
27.4639
27.2143
26.9402
26.6397
26.3112
25.9527
25.5628
25.1407
24.6864
24.2018
23.6899
23.1549
22.6013
22.0317
21.4455
20.8368
20.194
19.5004
18.7387
17.8962
16.9679
15.959
14.8872
13.7828
12.687
11.6506
10.7341
10.0022
9.51233
9.29936
9.37347
9.72693
10.3413
11.1771
12.1791
13.2843
14.431
15.5669
16.6556
17.6778
18.625
19.4947
20.2856
20.9944
21.6153
22.1433
22.5764
22.9164
23.1764
23.381
23.5569
23.728
23.9193
24.1927
24.5832
25.0742
25.6375
26.2632
26.9304
27.5913
28.1896
28.6883
29.0719
29.3571
29.5592
29.6961
29.7824
29.8292
29.8442
29.8331
29.8002
29.7493
29.6834
29.6049
29.5158
29.4175
29.3112
29.1981
29.0792
28.9553
28.8274
28.6963
28.5626
28.4271
28.2903
28.1527
28.0148
27.8766
27.7383
27.5999
27.4612
27.3222
27.1828
27.0427
26.9021
26.7608
26.6187
26.476
26.3325
26.1883
26.0432
25.8974
25.7507
25.6032
25.4549
25.3056
25.1554
25.0042
24.852
24.6988
24.5446
24.3893
24.2329
24.0753
23.9167
23.7568
23.5958
23.4336
23.2701
23.1055
22.9396
22.7725
22.6041
22.4344
22.2634
22.091
21.9174
21.7424
21.5661
21.3884
21.2094
21.029
20.8471
20.6639
20.4793
20.2933
20.1058
19.9169
19.7266
19.5348
19.3416
19.1469
18.9508
18.7533
18.5543
18.3539
18.1521
17.9488
17.7443
17.5383
17.3311
17.1225
16.9127
16.7014
16.4886
16.2738
16.0565
15.8353
15.6086
15.3732
29.4466
29.444
29.4375
29.4268
29.4112
29.3901
29.3629
29.3285
29.286
29.2344
29.1726
29.0999
29.0155
28.9187
28.8081
28.6823
28.5391
28.376
28.1905
27.9798
27.7412
27.4725
27.1714
26.8367
26.4674
26.0633
25.6254
25.1559
24.6584
24.1376
23.5984
23.0451
22.4799
21.9016
21.3029
20.6702
19.9832
19.2184
18.3543
17.377
16.283
15.0794
13.7859
12.4366
11.082
9.78827
8.63619
7.71499
7.10245
6.84335
6.95371
7.42658
8.23172
9.31194
10.5897
11.978
13.3919
14.7602
16.0356
17.1982
18.2456
19.1855
20.0282
20.7802
21.4434
22.0155
22.4948
22.8832
23.1849
23.4095
23.5728
23.6918
23.7822
23.9212
24.1866
24.5826
25.0875
25.7048
26.4239
27.185
27.8912
28.4741
28.9142
29.2304
29.4492
29.5953
29.6873
29.7385
29.758
29.7519
29.7241
29.6781
29.6168
29.5427
29.4579
29.3639
29.2619
29.1529
29.0377
28.9172
28.7923
28.6638
28.5325
28.3989
28.2637
28.1274
27.9905
27.8534
27.7161
27.5788
27.4414
27.3036
27.1655
27.0267
26.8873
26.7471
26.6062
26.4645
26.3219
26.1785
26.0343
25.8893
25.7433
25.5965
25.4487
25.3
25.1504
24.9997
24.848
24.6952
24.5414
24.3864
24.2303
24.0731
23.9147
23.755
23.5942
23.4322
23.269
23.1045
22.9387
22.7717
22.6034
22.4338
22.2628
22.0906
21.917
21.7421
21.5658
21.3881
21.2091
21.0287
20.8468
20.6636
20.479
20.293
20.1055
19.9166
19.7262
19.5344
19.3411
19.1464
18.9502
18.7525
18.5534
18.3528
18.1508
17.9473
17.7423
17.5359
17.3281
17.1188
16.908
16.6955
16.4812
16.2645
16.0448
15.8209
15.5912
15.353
29.5896
29.5875
29.5819
29.5727
29.5592
29.5409
29.517
29.4867
29.4489
29.4026
29.3469
29.2808
29.2035
29.1138
29.0105
28.8914
28.7538
28.5945
28.41
28.1966
27.9507
27.6693
27.3499
26.9911
26.593
26.157
25.6869
25.1876
24.6658
24.1278
23.5786
23.0207
22.4529
21.8686
21.2546
20.5907
19.8506
19.005
18.028
16.9041
15.629
14.2088
12.6636
11.0325
9.37862
7.78961
6.37048
5.23204
4.47115
4.14799
4.28554
4.88015
5.88842
7.2326
8.81237
10.5163
12.2363
13.8778
15.3758
16.7038
17.8641
18.8783
19.7693
20.555
21.2464
21.848
22.3609
22.7883
23.1346
23.4001
23.5804
23.6746
23.6977
23.7288
23.8812
24.1748
24.5968
25.1681
25.9087
26.7636
27.5747
28.2424
28.7398
29.0875
29.3234
29.4795
29.5787
29.6359
29.661
29.6605
29.6388
29.5989
29.5432
29.4743
29.3944
29.3051
29.2077
29.1031
28.992
28.8753
28.7537
28.6282
28.4995
28.3682
28.235
28.1004
27.9649
27.8289
27.6927
27.5565
27.4201
27.2836
27.1467
27.0093
26.8711
26.7322
26.5924
26.4518
26.3103
26.1678
26.0245
25.8803
25.7351
25.589
25.442
25.2939
25.1448
24.9947
24.8435
24.6912
24.5378
24.3832
24.2275
24.0706
23.9124
23.7531
23.5925
23.4307
23.2677
23.1034
22.9377
22.7708
22.6026
22.4331
22.2623
22.0901
21.9165
21.7416
21.5654
21.3878
21.2087
21.0283
20.8465
20.6633
20.4787
20.2926
20.1051
19.9162
19.7258
19.5339
19.3406
19.1458
18.9495
18.7518
18.5525
18.3517
18.1494
17.9456
17.7403
17.5335
17.3251
17.1151
16.9033
16.6897
16.4739
16.2554
16.0337
15.8074
15.5751
15.3346
29.7251
29.7231
29.717
29.7078
29.6947
29.6771
29.6543
29.6254
29.5895
29.5456
29.4925
29.4293
29.3551
29.2687
29.1687
29.0528
28.918
28.7608
28.577
28.3621
28.112
27.8225
27.4911
27.1167
26.7004
26.2452
25.7566
25.242
24.7099
24.1673
23.6181
23.0626
22.4961
21.9074
21.2784
20.5839
19.7932
18.8733
17.7946
16.5391
15.1007
13.4839
11.7099
9.8244
7.90503
6.05928
4.41112
3.08633
2.19846
1.81785
1.96855
2.64706
3.80974
5.36596
7.19664
9.1681
11.1524
13.0378
14.7406
16.2233
17.4874
18.5689
19.5045
20.3212
21.0341
21.6538
22.1844
22.6278
22.9939
23.2913
23.5126
23.6414
23.6787
23.6904
23.7874
24.0034
24.341
24.8353
25.5375
26.4093
27.2715
27.9939
28.5343
28.911
29.1671
29.3385
29.4498
29.5172
29.5511
29.5586
29.5445
29.5119
29.4632
29.4005
29.3261
29.2419
29.1494
29.0494
28.9427
28.83
28.7121
28.5899
28.464
28.3353
28.2043
28.0718
27.938
27.8035
27.6685
27.5333
27.398
27.2626
27.1268
26.9906
26.8538
26.7161
26.5776
26.4381
26.2976
26.1562
26.0139
25.8705
25.7262
25.5809
25.4346
25.2872
25.1388
24.9893
24.8386
24.6868
24.5339
24.3797
24.2244
24.0678
23.91
23.751
23.5907
23.4291
23.2663
23.1021
22.9367
22.7699
22.6018
22.4324
22.2616
22.0895
21.916
21.7412
21.565
21.3874
21.2084
21.028
20.8462
20.663
20.4783
20.2923
20.1048
19.9158
19.7254
19.5335
19.3401
19.1452
18.9488
18.751
18.5515
18.3506
18.1481
17.944
17.7383
17.531
17.3221
17.1113
16.8987
16.6839
16.4668
16.2467
16.023
15.7947
15.5602
15.3179
29.8574
29.8551
29.8485
29.8384
29.8243
29.8059
29.7825
29.7532
29.7171
29.6731
29.6201
29.5572
29.4834
29.3975
29.298
29.1827
29.0488
28.8924
28.7089
28.4936
28.2418
27.9491
27.6122
27.2305
26.8051
26.3408
25.8444
25.3247
24.7906
24.2501
23.7055
23.1554
22.5918
22.0004
21.3601
20.6432
19.8168
18.8464
17.7003
16.3571
14.8095
13.0607
11.1338
9.07901
6.98315
4.96705
3.16843
1.71998
0.737527
0.303027
0.446042
1.17267
2.43694
4.13305
6.12376
8.26082
10.4061
12.4427
14.2762
15.8576
17.1806
18.2951
19.2529
20.0912
20.8179
21.4421
21.9789
22.4352
22.811
23.1167
23.3627
23.5402
23.6431
23.7142
23.8261
24.0165
24.3054
24.7391
25.3761
26.1933
27.0289
27.748
28.2992
28.6942
28.9725
29.1661
29.2972
29.3808
29.4278
29.4462
29.4415
29.4178
29.3773
29.322
29.2539
29.1752
29.0876
28.9925
28.8904
28.7819
28.6679
28.5491
28.4262
28.3002
28.1717
28.0413
27.9096
27.7768
27.6433
27.5094
27.3753
27.2409
27.1062
26.9711
26.8355
26.699
26.5617
26.4234
26.2841
26.1437
26.0024
25.86
25.7166
25.5722
25.4266
25.28
25.1323
24.9834
24.8333
24.6821
24.5297
24.376
24.2211
24.0649
23.9075
23.7488
23.5888
23.4274
23.2648
23.1009
22.9356
22.769
22.601
22.4317
22.261
22.0889
21.9155
21.7407
21.5645
21.387
21.208
21.0276
20.8458
20.6626
20.478
20.2919
20.1044
19.9154
19.7249
19.533
19.3396
19.1446
18.9481
18.7501
18.5506
18.3494
18.1467
17.9423
17.7363
17.5286
17.319
17.1076
16.8941
16.6784
16.4599
16.2384
16.013
15.7828
15.5466
15.3026
29.9879
29.9864
29.9803
29.969
29.9535
29.9335
29.9078
29.8762
29.838
29.7922
29.7378
29.6736
29.5985
29.5112
29.4104
29.294
29.1594
29.0028
28.8199
28.6054
28.3546
28.0627
27.7265
27.3451
26.9197
26.455
25.959
25.4417
24.9083
24.3716
23.8316
23.2861
22.7258
22.1349
21.4911
20.7661
19.9272
18.9405
17.7747
16.4071
14.829
13.0436
11.0758
8.97842
6.84014
4.78356
2.94881
1.46927
0.458688
-0.00268478
0.126267
0.855276
2.13066
3.84305
5.85094
8.00457
10.1649
12.2168
14.0675
15.6647
16.9927
18.0968
19.0528
19.8998
20.6359
21.2535
21.7735
22.2233
22.6137
22.9443
23.2149
23.4256
23.5745
23.69
23.8266
24.0208
24.3008
24.7174
25.3187
26.0778
26.8549
27.5344
28.0699
28.4691
28.7633
28.9778
29.1301
29.2327
29.2955
29.3264
29.3323
29.3179
29.2862
29.2392
29.1783
29.1056
29.0233
28.933
28.8355
28.7315
28.6215
28.5062
28.3865
28.2633
28.1374
28.0093
27.8796
27.7488
27.6172
27.4848
27.352
27.2187
27.0851
26.9511
26.8165
26.6812
26.545
26.4078
26.2697
26.1305
25.9902
25.8488
25.7064
25.5628
25.4181
25.2723
25.1253
24.9771
24.8277
24.6771
24.5252
24.372
24.2176
24.0618
23.9048
23.7464
23.5867
23.4256
23.2633
23.0995
22.9344
22.7679
22.6001
22.4309
22.2603
22.0883
21.9149
21.7402
21.5641
21.3865
21.2076
21.0272
20.8454
20.6622
20.4776
20.2915
20.104
19.915
19.7245
19.5325
19.339
19.144
18.9474
18.7493
18.5496
18.3483
18.1453
17.9407
17.7343
17.5262
17.3161
17.104
16.8897
16.673
16.4534
16.2305
16.0036
15.7718
15.534
15.2887
30.1235
30.123
30.1179
30.1064
30.0884
30.0649
30.036
30.0011
29.9596
29.9106
29.8532
29.7864
29.7089
29.6192
29.5159
29.3972
29.2607
29.1031
28.9203
28.7077
28.4602
28.1732
27.8431
27.4687
27.0508
26.5938
26.1046
25.5924
25.0654
24.5313
23.9929
23.4487
22.89
22.3017
21.6625
20.9456
20.1205
19.1553
18.0215
16.6978
15.1744
13.4558
11.568
9.56262
7.52253
5.55988
3.805
2.38383
1.40639
0.947222
1.04452
1.71099
2.89942
4.5022
6.38488
8.40887
10.4433
12.3802
14.1379
15.6654
16.9422
18.0057
18.9321
19.7676
20.5027
21.1078
21.6003
22.0279
22.4197
22.7804
23.0993
23.3548
23.5271
23.6301
23.7151
23.8493
24.1125
24.5679
25.2221
25.9881
26.7338
27.3767
27.8901
28.2847
28.5846
28.8093
28.9736
29.0889
29.1637
29.2057
29.2211
29.2153
29.192
29.1531
29.0998
29.0336
28.9568
28.8712
28.7785
28.679
28.5731
28.4616
28.3451
28.2248
28.1014
27.9758
27.8483
27.7196
27.5899
27.4594
27.3281
27.1962
27.0637
26.9307
26.7971
26.6628
26.5277
26.3916
26.2546
26.1165
25.9773
25.837
25.6955
25.5529
25.4091
25.2641
25.1179
24.9705
24.8218
24.6718
24.5205
24.3678
24.2139
24.0586
23.9019
23.7439
23.5845
23.4238
23.2616
23.0981
22.9332
22.7669
22.5992
22.4301
22.2595
22.0877
21.9144
21.7397
21.5636
21.3861
21.2071
21.0268
20.845
20.6618
20.4772
20.2911
20.1036
19.9145
19.724
19.532
19.3384
19.1433
18.9467
18.7485
18.5486
18.3471
18.144
17.9391
17.7324
17.5238
17.3132
17.1005
16.8855
16.6678
16.4472
16.2231
15.9949
15.7617
15.5225
15.2761
30.2743
30.272
30.2687
30.2584
30.2383
30.2096
30.1746
30.1341
30.088
30.0352
29.9746
29.9049
29.8247
29.7323
29.626
29.504
29.3642
29.204
29.0202
28.8091
28.5661
28.287
27.9682
27.6075
27.2049
26.7631
26.2874
25.7854
25.265
24.7332
24.1944
23.6482
23.0886
22.5032
21.8737
21.1773
20.3877
19.4777
18.4226
17.2045
15.8151
14.2601
12.5645
10.7752
8.96295
7.221
5.65851
4.38312
3.48941
3.04468
3.08507
3.62301
4.62544
5.99893
7.62506
9.38618
11.1702
12.8822
14.454
15.8405
17.0197
18.019
18.9036
19.7167
20.4408
21.022
21.4623
21.8381
22.215
22.6099
22.9911
23.3076
23.5108
23.5761
23.5482
23.5733
23.8205
24.3647
25.1258
25.9382
26.6749
27.2874
27.7747
28.1565
28.4525
28.6772
28.8433
28.9616
29.0409
29.0884
29.1101
29.111
29.0945
29.0629
29.017
28.9578
28.8868
28.8062
28.718
28.6231
28.5218
28.4142
28.3012
28.1839
28.0633
27.9402
27.8152
27.6886
27.561
27.4324
27.303
27.1727
27.0416
26.9098
26.7771
26.6438
26.5096
26.3746
26.2386
26.1016
25.9635
25.8243
25.6839
25.5423
25.3995
25.2554
25.11
24.9634
24.8154
24.6661
24.5154
24.3634
24.21
24.0552
23.8989
23.7413
23.5823
23.4218
23.2599
23.0966
22.9319
22.7658
22.5982
22.4292
22.2588
22.087
21.9137
21.7391
21.563
21.3856
21.2067
21.0264
20.8446
20.6614
20.4768
20.2907
20.1031
19.9141
19.7235
19.5315
19.3379
19.1427
18.946
18.7476
18.5477
18.346
18.1426
17.9375
17.7305
17.5215
17.3105
17.0972
16.8814
16.663
16.4414
16.2162
15.9868
15.7524
15.512
15.2647
30.4397
30.4347
30.4339
30.4243
30.399
30.3617
30.3186
30.2715
30.2203
30.164
30.1011
30.0295
29.9472
29.8524
29.743
29.6171
29.4728
29.3081
29.121
28.9089
28.6689
28.3977
28.0919
27.749
27.3675
26.9479
26.493
26.0079
25.4989
24.9724
24.4333
23.8831
23.3192
22.7337
22.113
21.4394
20.6927
19.8512
18.8952
17.8104
16.591
15.2429
13.7885
12.2673
10.7367
9.26956
7.95077
6.86543
6.08911
5.67759
5.65933
6.04622
6.81841
7.90714
9.21777
10.6554
12.1308
13.5668
14.9101
16.1251
17.1884
18.1148
18.9577
19.7481
20.4476
20.9858
21.3538
21.6474
21.9782
22.4034
22.8753
23.2839
23.5372
23.5947
23.5121
23.4889
23.7451
24.3573
25.1698
25.9823
26.6856
27.2552
27.7073
28.066
28.3488
28.567
28.7305
28.8484
28.9289
28.979
29.0045
29.01
28.9988
28.973
28.9334
28.8806
28.8155
28.74
28.6563
28.5658
28.4688
28.3655
28.2563
28.142
28.0242
27.9037
27.7811
27.657
27.5315
27.405
27.2775
27.149
27.0195
26.8889
26.7574
26.6249
26.4916
26.3575
26.2224
26.0864
25.9494
25.8112
25.6719
25.5313
25.3895
25.2463
25.1018
24.956
24.8088
24.6602
24.5102
24.3588
24.2059
24.0516
23.8959
23.7387
23.58
23.4198
23.2582
23.0951
22.9306
22.7646
22.5972
22.4283
22.258
22.0863
21.9131
21.7385
21.5625
21.385
21.2062
21.0259
20.8441
20.661
20.4763
20.2902
20.1027
19.9136
19.723
19.5309
19.3373
19.1421
18.9452
18.7468
18.5467
18.3449
18.1413
17.9359
17.7286
17.5193
17.3078
17.094
16.8776
16.6584
16.4359
16.2098
15.9793
15.7439
15.5025
15.2543
30.5767
30.5746
30.5813
30.5718
30.5406
30.4947
30.4435
30.3916
30.3395
30.2844
30.2232
30.1528
30.0709
29.9751
29.8632
29.7331
29.5831
29.4119
29.2184
29.0015
28.7601
28.4924
28.1964
27.8697
27.51
27.116
26.6877
26.2268
25.7369
25.2225
24.6881
24.1366
23.568
22.9786
22.3603
21.7012
20.9866
20.2009
19.3295
18.362
17.2942
16.1318
14.8937
13.6122
12.3333
11.1139
10.0182
9.11089
8.4496
8.07924
8.02038
8.28499
8.85928
9.69292
10.7153
11.8554
13.047
14.2318
15.3697
16.4324
17.3937
18.2547
19.0581
19.8268
20.4944
20.962
21.2215
21.4103
21.6874
22.1434
22.723
23.2601
23.6127
23.7234
23.6736
23.677
23.9501
24.5567
25.328
26.0742
26.7089
27.2242
27.6406
27.9775
28.2468
28.4573
28.6175
28.7359
28.8196
28.8744
28.905
28.9157
28.9096
28.8888
28.8545
28.8071
28.7474
28.6767
28.597
28.5104
28.4175
28.3182
28.2127
28.1016
27.9864
27.8684
27.7483
27.6264
27.5031
27.3786
27.2529
27.1262
26.9984