/*--------------------------------*- C++ -*----------------------------------*\
  =========                 |
  \\      /  F ield         | OpenFOAM: The Open Source CFD Toolbox
   \\    /   O peration     | Website:  https://openfoam.org
    \\  /    A nd           | Version:  7
     \\/     M anipulation  |
\*---------------------------------------------------------------------------*/
FoamFile
{
    version     2.0;
    format      ascii;
    class       surfaceScalarField;
    location    "0.039";
    object      phi_0;
}
// * * * * * * * * * * * * * * * * * * * * * * * * * * * * * * * * * * * * * //

dimensions      [0 3 -1 0 0 0 0];

internalField   nonuniform List<scalar> 
24170
(
1.39645e-06
1.98831e-07
1.25981e-06
1.36639e-07
1.11639e-06
1.43426e-07
9.87659e-07
1.28726e-07
8.782e-07
1.09459e-07
7.8016e-07
9.80409e-08
6.85682e-07
9.44774e-08
5.95324e-07
9.03577e-08
5.13579e-07
8.17458e-08
4.42769e-07
7.08091e-08
3.82219e-07
6.05509e-08
3.3008e-07
5.2139e-08
2.85334e-07
4.47458e-08
2.4765e-07
3.76836e-08
2.15918e-07
3.17324e-08
1.89374e-07
2.65436e-08
1.63145e-07
2.62293e-08
2.51885e-08
1.37956e-07
1.67332e-06
2.23711e-07
1.64762e-06
1.62342e-07
1.61387e-06
1.77177e-07
1.57255e-06
1.70044e-07
1.52811e-06
1.53893e-07
1.48276e-06
1.43391e-07
1.43752e-06
1.39718e-07
1.39194e-06
1.3594e-07
1.345e-06
1.28686e-07
1.29604e-06
1.19772e-07
1.24558e-06
1.11013e-07
1.19545e-06
1.0227e-07
1.14772e-06
9.24663e-08
1.10267e-06
8.27359e-08
1.05988e-06
7.45251e-08
1.01761e-06
6.88101e-08
9.74567e-07
6.92757e-08
7.01081e-08
9.29647e-07
1.77707e-06
2.59651e-07
1.77002e-06
1.69396e-07
1.76e-06
1.87195e-07
1.74856e-06
1.81485e-07
1.73336e-06
1.69091e-07
1.7132e-06
1.63552e-07
1.69273e-06
1.60188e-07
1.67684e-06
1.51828e-07
1.66636e-06
1.39169e-07
1.65867e-06
1.27457e-07
1.65015e-06
1.19533e-07
1.63854e-06
1.13878e-07
1.62327e-06
1.07741e-07
1.60518e-06
1.00821e-07
1.58496e-06
9.47487e-08
1.56325e-06
9.05243e-08
1.54001e-06
9.25171e-08
9.66772e-08
1.51344e-06
1.93404e-06
2.61207e-07
1.91174e-06
1.91695e-07
1.89445e-06
2.04487e-07
1.87883e-06
1.97103e-07
1.86758e-06
1.80342e-07
1.86214e-06
1.68987e-07
1.86041e-06
1.61924e-07
1.85943e-06
1.52804e-07
1.8575e-06
1.411e-07
1.85407e-06
1.30887e-07
1.84885e-06
1.24757e-07
1.84183e-06
1.20899e-07
1.83317e-06
1.16401e-07
1.82381e-06
1.10177e-07
1.81465e-06
1.03908e-07
1.80594e-06
9.92371e-08
1.79877e-06
9.969e-08
1.0385e-07
1.79159e-06
2.06933e-06
2.61642e-07
2.04105e-06
2.19973e-07
2.02357e-06
2.21969e-07
2.01638e-06
2.04291e-07
2.01304e-06
1.83688e-07
2.00975e-06
1.72275e-07
2.0062e-06
1.65474e-07
2.0028e-06
1.56205e-07
1.99931e-06
1.44588e-07
1.99502e-06
1.35176e-07
1.9894e-06
1.30371e-07
1.98251e-06
1.27797e-07
1.97491e-06
1.23996e-07
1.96753e-06
1.17558e-07
1.96131e-06
1.10127e-07
1.95653e-06
1.04021e-07
1.95432e-06
1.01902e-07
1.04219e-07
1.95395e-06
2.22032e-06
3.30473e-07
2.19232e-06
2.4797e-07
2.19015e-06
2.24143e-07
2.18283e-06
2.11615e-07
2.16897e-06
1.97548e-07
2.15665e-06
1.8459e-07
2.15024e-06
1.71886e-07
2.1488e-06
1.57649e-07
2.14965e-06
1.43731e-07
2.15111e-06
1.33717e-07
2.15266e-06
1.2882e-07
2.15393e-06
1.26534e-07
2.15426e-06
1.23658e-07
2.1529e-06
1.18924e-07
2.14962e-06
1.13404e-07
2.14477e-06
1.08874e-07
2.13958e-06
1.07086e-07
1.08367e-07
2.13544e-06
2.40493e-06
3.69993e-07
2.38996e-06
2.62935e-07
2.38305e-06
2.3106e-07
2.36929e-06
2.25371e-07
2.34661e-06
2.20227e-07
2.32606e-06
2.05136e-07
2.31435e-06
1.836e-07
2.3101e-06
1.61894e-07
2.31006e-06
1.43774e-07
2.31297e-06
1.30805e-07
2.31879e-06
1.22999e-07
2.32637e-06
1.18958e-07
2.33315e-06
1.16881e-07
2.33621e-06
1.15863e-07
2.33398e-06
1.1563e-07
2.32664e-06
1.16216e-07
2.31609e-06
1.17638e-07
1.1917e-07
2.30529e-06
2.55847e-06
4.13347e-07
2.55397e-06
2.6744e-07
2.55344e-06
2.31582e-07
2.54578e-06
2.33029e-07
2.53127e-06
2.34743e-07
2.51864e-06
2.17761e-07
2.51349e-06
1.88759e-07
2.51446e-06
1.60923e-07
2.51673e-06
1.41506e-07
2.51667e-06
1.30857e-07
2.51361e-06
1.26065e-07
2.50848e-06
1.24087e-07
2.50236e-06
1.22999e-07
2.49596e-06
1.22267e-07
2.48963e-06
1.21951e-07
2.4837e-06
1.22151e-07
2.47862e-06
1.22713e-07
1.237e-07
2.47409e-06
2.82464e-06
4.08893e-07
2.77605e-06
3.16034e-07
2.73744e-06
2.70187e-07
2.72273e-06
2.47747e-07
2.71584e-06
2.41629e-07
2.70666e-06
2.26943e-07
2.69773e-06
1.97689e-07
2.6932e-06
1.65453e-07
2.69216e-06
1.42542e-07
2.69079e-06
1.32234e-07
2.68637e-06
1.30484e-07
2.67886e-06
1.31599e-07
2.67003e-06
1.31828e-07
2.6622e-06
1.30093e-07
2.657e-06
1.27157e-07
2.65494e-06
1.24204e-07
2.65559e-06
1.22063e-07
1.20987e-07
2.65831e-06
2.98972e-06
4.50526e-07
2.94055e-06
3.65199e-07
2.91145e-06
2.99292e-07
2.89165e-06
2.67545e-07
2.88004e-06
2.53241e-07
2.8754e-06
2.31584e-07
2.87569e-06
1.97397e-07
2.87813e-06
1.63016e-07
2.88055e-06
1.40121e-07
2.88266e-06
1.30125e-07
2.8854e-06
1.27739e-07
2.88956e-06
1.27443e-07
2.89499e-06
1.2639e-07
2.90084e-06
1.24248e-07
2.90578e-06
1.22213e-07
2.90887e-06
1.21116e-07
2.90927e-06
1.21668e-07
1.23681e-07
2.90657e-06
3.18111e-06
5.13195e-07
3.16322e-06
3.83092e-07
3.15961e-06
3.02894e-07
3.15337e-06
2.73785e-07
3.14709e-06
2.59521e-07
3.1399e-06
2.38777e-07
3.12706e-06
2.10235e-07
3.10804e-06
1.82042e-07
3.0879e-06
1.60254e-07
3.07302e-06
1.45005e-07
3.06701e-06
1.33755e-07
3.06973e-06
1.24724e-07
3.07861e-06
1.1751e-07
3.09023e-06
1.12625e-07
3.10175e-06
1.10695e-07
3.1112e-06
1.11661e-07
3.11776e-06
1.15111e-07
1.19436e-07
3.12201e-06
2.87172e-06
5.05549e-07
2.87749e-06
3.77323e-07
2.85871e-06
3.21672e-07
2.84754e-06
2.84955e-07
2.84568e-06
2.61381e-07
2.84205e-06
2.42403e-07
2.83101e-06
2.21278e-07
2.81573e-06
1.97322e-07
2.8036e-06
1.72383e-07
2.79986e-06
1.48744e-07
2.80479e-06
1.28828e-07
2.81482e-06
1.14686e-07
2.82521e-06
1.07122e-07
2.83236e-06
1.05482e-07
2.83491e-06
1.08138e-07
2.83329e-06
1.13283e-07
2.82908e-06
1.19326e-07
1.25251e-07
2.82326e-06
3.49411e-06
5.0358e-07
3.49825e-06
3.73184e-07
3.48302e-06
3.36901e-07
3.46512e-06
3.02856e-07
3.46166e-06
2.64847e-07
3.47189e-06
2.3217e-07
3.48527e-06
2.079e-07
3.49267e-06
1.89915e-07
3.4914e-06
1.73653e-07
3.48338e-06
1.56764e-07
3.47224e-06
1.39973e-07
3.46149e-06
1.25439e-07
3.45339e-06
1.15218e-07
3.44877e-06
1.10105e-07
3.44726e-06
1.09645e-07
3.44816e-06
1.12381e-07
3.45094e-06
1.16549e-07
1.20672e-07
3.45552e-06
4.31393e-06
5.47487e-07
4.24513e-06
4.41984e-07
4.20866e-06
3.73364e-07
4.19918e-06
3.12341e-07
4.21226e-06
2.51771e-07
4.23654e-06
2.07886e-07
4.25971e-06
1.84725e-07
4.27578e-06
1.73846e-07
4.28466e-06
1.64773e-07
4.28855e-06
1.52872e-07
4.2892e-06
1.3933e-07
4.28703e-06
1.27605e-07
4.28209e-06
1.2016e-07
4.27465e-06
1.17547e-07
4.26615e-06
1.18142e-07
4.2581e-06
1.20432e-07
4.25181e-06
1.22837e-07
1.24783e-07
4.2477e-06
5.21742e-06
6.16307e-07
5.17622e-06
4.83188e-07
5.17307e-06
3.76509e-07
5.17236e-06
3.1305e-07
5.16703e-06
2.57103e-07
5.16087e-06
2.14045e-07
5.15785e-06
1.87742e-07
5.16104e-06
1.70663e-07
5.17202e-06
1.53796e-07
5.18978e-06
1.35112e-07
5.21014e-06
1.18966e-07
5.22766e-06
1.1008e-07
5.23826e-06
1.09566e-07
5.24022e-06
1.15588e-07
5.23433e-06
1.24032e-07
5.22319e-06
1.3157e-07
5.21028e-06
1.35747e-07
1.35522e-07
5.19954e-06
6.25575e-06
5.43736e-07
6.27259e-06
4.66348e-07
6.29368e-06
3.55417e-07
6.322e-06
2.84728e-07
6.32972e-06
2.49388e-07
6.31821e-06
2.25551e-07
6.30805e-06
1.97902e-07
6.31349e-06
1.65223e-07
6.33219e-06
1.35094e-07
6.35213e-06
1.15173e-07
6.36333e-06
1.07766e-07
6.36355e-06
1.09859e-07
6.35662e-06
1.16504e-07
6.34868e-06
1.23526e-07
6.34457e-06
1.28145e-07
6.34656e-06
1.29574e-07
6.35437e-06
1.27943e-07
1.2478e-07
6.36511e-06
7.56371e-06
4.79851e-07
7.65324e-06
3.7682e-07
7.68206e-06
3.26593e-07
7.69752e-06
2.6927e-07
7.7142e-06
2.3271e-07
7.73175e-06
2.08001e-07
7.74685e-06
1.82794e-07
7.75781e-06
1.54266e-07
7.7629e-06
1.30009e-07
7.76118e-06
1.16886e-07
7.75404e-06
1.14915e-07
7.74489e-06
1.19001e-07
7.73796e-06
1.23438e-07
7.73661e-06
1.24874e-07
7.74204e-06
1.22713e-07
7.75341e-06
1.18203e-07
7.76858e-06
1.1278e-07
1.08134e-07
7.78522e-06
9.44744e-06
4.4258e-07
9.4573e-06
3.66962e-07
9.49195e-06
2.91941e-07
9.51583e-06
2.45394e-07
9.52518e-06
2.23356e-07
9.52289e-06
2.10293e-07
9.51724e-06
1.88446e-07
9.51349e-06
1.58008e-07
9.51306e-06
1.30444e-07
9.51697e-06
1.12971e-07
9.52619e-06
1.05695e-07
9.54067e-06
1.04527e-07
9.55916e-06
1.04949e-07
9.57994e-06
1.04088e-07
9.60152e-06
1.01137e-07
9.62265e-06
9.70698e-08
9.64276e-06
9.2671e-08
8.96947e-08
9.6612e-06
1.16855e-05
4.23709e-07
1.17229e-05
3.29632e-07
1.17168e-05
2.97972e-07
1.16962e-05
2.66062e-07
1.1668e-05
2.51514e-07
1.16434e-05
2.34872e-07
1.16268e-05
2.0506e-07
1.16196e-05
1.65272e-07
1.16213e-05
1.28724e-07
1.16296e-05
1.04598e-07
1.16419e-05
9.34762e-08
1.1656e-05
9.04317e-08
1.16713e-05
8.96581e-08
1.16879e-05
8.74599e-08
1.17069e-05
8.21626e-08
1.17291e-05
7.48535e-08
1.17554e-05
6.63669e-08
5.90029e-08
1.17861e-05
8.44928e-06
3.75586e-07
8.44009e-06
3.38829e-07
8.47177e-06
2.6629e-07
8.51319e-06
2.24641e-07
8.55025e-06
2.14453e-07
8.57063e-06
2.14492e-07
8.57407e-06
2.0162e-07
8.56602e-06
1.73325e-07
8.55522e-06
1.39527e-07
8.54875e-06
1.11066e-07
8.55004e-06
9.21802e-08
8.55945e-06
8.10292e-08
8.57585e-06
7.32534e-08
8.59772e-06
6.55957e-08
8.62323e-06
5.66453e-08
8.65069e-06
4.73955e-08
8.67825e-06
3.88053e-08
3.27784e-08
8.70448e-06
7.32075e-06
4.59324e-07
7.29848e-06
3.611e-07
7.29011e-06
2.74661e-07
7.31564e-06
1.9911e-07
7.36624e-06
1.6386e-07
7.42006e-06
1.60664e-07
7.46166e-06
1.60022e-07
7.48988e-06
1.4511e-07
7.5118e-06
1.17599e-07
7.53429e-06
8.85837e-08
7.5594e-06
6.70636e-08
7.58504e-06
5.53951e-08
7.60773e-06
5.05641e-08
7.62512e-06
4.82068e-08
7.63677e-06
4.49949e-08
7.64404e-06
4.01237e-08
7.64894e-06
3.3903e-08
2.77805e-08
7.65394e-06
6.35713e-06
4.61111e-07
6.38979e-06
3.2844e-07
6.40976e-06
2.54692e-07
6.43294e-06
1.75931e-07
6.46866e-06
1.28139e-07
6.51182e-06
1.17503e-07
6.55219e-06
1.19653e-07
6.58404e-06
1.13257e-07
6.60834e-06
9.33055e-08
6.62924e-06
6.76842e-08
6.64987e-06
4.64268e-08
6.67088e-06
3.4386e-08
6.69111e-06
3.03338e-08
6.70902e-06
3.03041e-08
6.72355e-06
3.04633e-08
6.73466e-06
2.90077e-08
6.74313e-06
2.54408e-08
2.07976e-08
6.75011e-06
5.58871e-06
4.48232e-07
5.57034e-06
3.46802e-07
5.5836e-06
2.4144e-07
5.59459e-06
1.64937e-07
5.61621e-06
1.06515e-07
5.66271e-06
7.10019e-08
5.72646e-06
5.59111e-08
5.78828e-06
5.1428e-08
5.833e-06
4.8587e-08
5.85662e-06
4.4072e-08
5.86431e-06
3.87327e-08
5.86479e-06
3.39052e-08
5.86561e-06
2.95121e-08
5.87095e-06
2.49703e-08
5.8816e-06
1.98109e-08
5.89625e-06
1.43589e-08
5.91276e-06
8.92409e-09
4.5201e-09
5.92904e-06
4.90566e-06
5.35066e-07
4.89713e-06
3.5533e-07
4.92644e-06
2.12131e-07
4.95802e-06
1.33355e-07
4.986e-06
7.85297e-08
5.01209e-06
4.49184e-08
5.03684e-06
3.11572e-08
5.06019e-06
2.80765e-08
5.08261e-06
2.61728e-08
5.10451e-06
2.21649e-08
5.12613e-06
1.71166e-08
5.14712e-06
1.29155e-08
5.16707e-06
9.56508e-09
5.18577e-06
6.27098e-09
5.20331e-06
2.26733e-09
5.2193e-06
-1.63277e-09
5.23418e-06
-5.9583e-09
-9.6827e-09
5.24839e-06
4.2144e-06
3.39077e-07
4.26957e-06
3.00162e-07
4.29651e-06
1.8519e-07
4.33153e-06
9.83345e-08
4.36103e-06
4.90301e-08
4.37901e-06
2.69397e-08
4.38985e-06
2.03116e-08
4.40123e-06
1.66949e-08
4.41755e-06
9.8527e-09
4.43902e-06
6.95283e-10
4.46398e-06
-7.83559e-09
4.48964e-06
-1.27519e-08
4.5144e-06
-1.51953e-08
4.53739e-06
-1.67201e-08
4.55831e-06
-1.86528e-08
4.57753e-06
-2.08487e-08
4.59481e-06
-2.32418e-08
-2.48487e-08
4.60998e-06
3.55559e-06
2.70322e-07
3.68596e-06
1.69792e-07
3.76703e-06
1.04116e-07
3.80985e-06
5.55167e-08
3.83935e-06
1.95258e-08
3.86507e-06
1.22769e-09
3.88696e-06
-1.58494e-09
3.90628e-06
-2.62437e-09
3.92417e-06
-8.03512e-09
3.94093e-06
-1.6061e-08
3.95529e-06
-2.21958e-08
3.96661e-06
-2.40728e-08
3.97461e-06
-2.32033e-08
3.97992e-06
-2.20251e-08
3.98359e-06
-2.23238e-08
3.98681e-06
-2.4068e-08
3.99045e-06
-2.68822e-08
-2.93492e-08
3.99495e-06
3.1835e-06
1.5466e-07
3.27145e-06
8.18399e-08
3.30874e-06
6.68206e-08
3.33068e-06
3.35835e-08
3.35072e-06
-5.21531e-10
3.37189e-06
-1.99428e-08
3.3933e-06
-2.29904e-08
3.41476e-06
-2.40799e-08
3.43625e-06
-2.95259e-08
3.45678e-06
-3.65922e-08
3.47436e-06
-3.97813e-08
3.48746e-06
-3.71743e-08
3.49581e-06
-3.15476e-08
3.50076e-06
-2.69786e-08
3.50442e-06
-2.59812e-08
3.50862e-06
-2.82641e-08
3.51431e-06
-3.25764e-08
-3.65699e-08
3.52153e-06
2.81051e-06
7.88624e-08
2.89341e-06
-1.05306e-09
2.92306e-06
3.71653e-08
2.9492e-06
7.44994e-09
2.97605e-06
-2.73737e-08
2.99951e-06
-4.34059e-08
3.02147e-06
-4.49533e-08
3.04299e-06
-4.55999e-08
3.0636e-06
-5.01361e-08
3.08187e-06
-5.48595e-08
3.0964e-06
-5.43056e-08
3.10661e-06
-4.7391e-08
3.11286e-06
-3.77913e-08
3.11619e-06
-3.03109e-08
3.11784e-06
-2.76378e-08
3.11892e-06
-2.93446e-08
3.11998e-06
-3.36331e-08
-3.77837e-08
3.1212e-06
2.4869e-06
8.74827e-09
2.53676e-06
-5.09093e-08
2.58254e-06
-8.60996e-09
2.61655e-06
-2.65694e-08
2.63416e-06
-4.49835e-08
2.64048e-06
-4.97196e-08
2.64336e-06
-4.78311e-08
2.64594e-06
-4.81832e-08
2.64828e-06
-5.24786e-08
2.64977e-06
-5.63431e-08
2.65053e-06
-5.50739e-08
2.65124e-06
-4.81014e-08
2.6522e-06
-3.87484e-08
2.65302e-06
-3.11332e-08
2.65281e-06
-2.7427e-08
2.65084e-06
-2.73755e-08
2.64667e-06
-2.9461e-08
-3.1515e-08
2.6404e-06
2.14586e-06
2.09495e-06
2.08634e-06
2.05977e-06
2.01479e-06
1.96507e-06
1.91724e-06
1.86905e-06
1.81658e-06
1.76023e-06
1.70516e-06
1.65706e-06
1.61831e-06
1.58718e-06
1.55975e-06
1.53237e-06
1.50291e-06
1.4714e-06
5.4125e-08
-5.4125e-08
1.552e-07
-1.01075e-07
2.7002e-07
-1.1482e-07
3.88043e-07
-1.18023e-07
5.07121e-07
-1.19079e-07
6.27596e-07
-1.20474e-07
7.50193e-07
-1.22597e-07
8.75359e-07
-1.25167e-07
1.00306e-06
-1.27696e-07
1.13265e-06
-1.29597e-07
1.26288e-06
-1.30228e-07
1.39175e-06
-1.28872e-07
1.51647e-06
-1.24717e-07
1.63347e-06
-1.17002e-07
1.73826e-06
-1.04787e-07
1.82567e-06
-8.74126e-08
1.89001e-06
-6.43374e-08
1.92555e-06
-3.55445e-08
1.92784e-06
-2.29182e-09
1.8908e-06
3.70441e-08
1.81219e-06
7.86066e-08
1.69271e-06
1.19482e-07
1.53546e-06
1.5725e-07
1.3502e-06
1.85262e-07
1.15968e-06
1.90515e-07
9.99233e-07
1.60452e-07
8.98521e-07
1.00711e-07
8.559e-07
4.26218e-08
8.33234e-07
2.26658e-08
7.86173e-07
4.70608e-08
6.50764e-07
1.35409e-07
3.59059e-07
2.91705e-07
-7.46266e-08
4.33686e-07
-5.65182e-07
4.90555e-07
-1.06727e-06
5.02091e-07
-1.56073e-06
4.93453e-07
-2.03275e-06
4.72021e-07
-2.47529e-06
4.42546e-07
-2.88387e-06
4.08583e-07
-3.25628e-06
3.72407e-07
-3.5918e-06
3.35516e-07
-3.89061e-06
2.98815e-07
-4.15339e-06
2.62778e-07
-4.38106e-06
2.27665e-07
-4.5746e-06
1.93541e-07
-4.73494e-06
1.60348e-07
-4.86295e-06
1.28009e-07
-4.95946e-06
9.65066e-08
-5.02542e-06
6.59648e-08
-5.0621e-06
3.66726e-08
-5.07105e-06
8.95686e-09
-5.05526e-06
-1.57923e-08
-5.01661e-06
-3.86506e-08
-4.95716e-06
-5.94462e-08
-4.87974e-06
-7.74233e-08
-4.78701e-06
-9.27295e-08
-4.68171e-06
-1.05298e-07
-4.56659e-06
-1.1512e-07
-4.44435e-06
-1.22246e-07
-4.3175e-06
-1.26852e-07
-4.1883e-06
-1.29194e-07
-4.05864e-06
-1.29661e-07
-3.92989e-06
-1.28745e-07
-3.80283e-06
-1.27068e-07
-3.67748e-06
-1.25346e-07
-3.5531e-06
-1.24379e-07
-3.42811e-06
-1.24989e-07
-3.30017e-06
-1.27942e-07
-3.16634e-06
-1.33829e-07
-3.02345e-06
-1.42893e-07
-2.86862e-06
-1.54827e-07
-2.69992e-06
-1.68699e-07
-2.51687e-06
-1.83054e-07
-2.32068e-06
-1.96185e-07
-2.11413e-06
-2.06548e-07
-1.90092e-06
-2.13214e-07
-1.68491e-06
-2.16006e-07
-1.46963e-06
-2.1528e-07
-1.25802e-06
-2.11619e-07
-1.05235e-06
-2.05665e-07
-8.54265e-07
-1.98086e-07
-6.64888e-07
-1.89378e-07
-4.84906e-07
-1.79982e-07
-3.14709e-07
-1.70197e-07
-1.5449e-07
-1.60219e-07
-4.35517e-09
-1.50135e-07
1.3659e-07
-1.40946e-07
2.6795e-07
-1.31359e-07
3.90047e-07
-1.22097e-07
5.03202e-07
-1.13156e-07
6.07753e-07
-1.0455e-07
7.0405e-07
-9.6297e-08
7.92458e-07
-8.84081e-08
8.73351e-07
-8.08937e-08
9.47115e-07
-7.37632e-08
1.01414e-06
-6.70253e-08
1.07483e-06
-6.06886e-08
1.12959e-06
-5.47603e-08
1.17883e-06
-4.92455e-08
1.22298e-06
-4.41456e-08
1.26244e-06
-3.94563e-08
1.2976e-06
-3.51674e-08
1.32887e-06
-3.12614e-08
1.35658e-06
-2.77138e-08
1.38107e-06
-2.44947e-08
1.40264e-06
-2.15697e-08
1.42155e-06
-1.8902e-08
1.438e-06
-1.64569e-08
1.4522e-06
-1.42009e-08
1.46431e-06
-1.2106e-08
1.47446e-06
-1.01542e-08
1.48279e-06
-8.32727e-09
1.48941e-06
-6.61849e-09
1.49444e-06
-5.03333e-09
1.498e-06
-3.55656e-09
1.5002e-06
-2.1989e-09
1.50118e-06
-9.8029e-10
1.50103e-06
1.44602e-10
1.49984e-06
1.19167e-09
1.49774e-06
2.10377e-09
1.49487e-06
2.86482e-09
1.49139e-06
3.48747e-09
1.4874e-06
3.98205e-09
1.48304e-06
4.36114e-09
1.4784e-06
4.64335e-09
1.47355e-06
4.84626e-09
1.46857e-06
4.9818e-09
1.46351e-06
5.06298e-09
1.4584e-06
5.10855e-09
1.45327e-06
5.1316e-09
1.44814e-06
5.13096e-09
1.44303e-06
5.10392e-09
1.43797e-06
5.06181e-09
1.43295e-06
5.02216e-09
1.42796e-06
4.99297e-09
1.42299e-06
4.96795e-09
1.41805e-06
4.94294e-09
1.41313e-06
4.9178e-09
1.40824e-06
4.89186e-09
1.40337e-06
4.86416e-09
1.39854e-06
4.83407e-09
1.39374e-06
4.80062e-09
1.38898e-06
4.76137e-09
1.38426e-06
4.71822e-09
1.37958e-06
4.67388e-09
1.37495e-06
4.63276e-09
1.37035e-06
4.59844e-09
1.36578e-06
4.57347e-09
1.36122e-06
4.55892e-09
1.35667e-06
4.55419e-09
1.35211e-06
4.55789e-09
1.34754e-06
4.56877e-09
1.34295e-06
4.58613e-09
1.33834e-06
4.60999e-09
1.3337e-06
4.6411e-09
1.32902e-06
4.68065e-09
1.32429e-06
4.73033e-09
1.3195e-06
4.79177e-09
1.31463e-06
4.8677e-09
1.30967e-06
4.9601e-09
1.3046e-06
5.07456e-09
1.29938e-06
5.21286e-09
1.294e-06
5.38741e-09
1.2884e-06
5.59507e-09
1.28253e-06
5.86836e-09
1.27635e-06
6.18405e-09
1.26972e-06
6.63069e-09
1.26261e-06
7.11308e-09
1.25472e-06
7.88272e-09
1.24611e-06
8.61217e-09
1.23608e-06
1.00284e-08
1.22499e-06
1.10962e-08
1.21106e-06
1.39273e-08
1.19573e-06
1.53293e-08
1.17416e-06
2.15679e-08
1.15133e-06
2.28287e-08
1.11307e-06
3.82635e-08
1.07558e-06
3.74922e-08
9.95295e-07
8.02814e-08
7.20206e-08
9.23275e-07
7.09836e-08
-1.25109e-07
1.58352e-07
-1.88443e-07
2.44413e-07
-2.00881e-07
3.31181e-07
-2.04791e-07
4.21126e-07
-2.09023e-07
5.15448e-07
-2.14797e-07
6.14576e-07
-2.21725e-07
7.18505e-07
-2.29096e-07
8.26876e-07
-2.36067e-07
9.38899e-07
-2.4162e-07
1.05328e-06
-2.44605e-07
1.1681e-06
-2.43693e-07
1.28076e-06
-2.37384e-07
1.38787e-06
-2.24108e-07
1.4853e-06
-2.02217e-07
1.56812e-06
-1.7023e-07
1.63127e-06
-1.27484e-07
1.67087e-06
-7.51541e-08
1.6856e-06
-1.70151e-08
1.67382e-06
4.88269e-08
1.63511e-06
1.17312e-07
1.56995e-06
1.84645e-07
1.48096e-06
2.46239e-07
1.37184e-06
2.94382e-07
1.24475e-06
3.17605e-07
1.08181e-06
3.23392e-07
8.46731e-07
3.35787e-07
4.95024e-07
3.94329e-07
-4.80318e-09
5.22493e-07
-6.08299e-07
6.50556e-07
-1.21144e-06
7.38548e-07
-1.72691e-06
8.07175e-07
-2.15021e-06
8.56986e-07
-2.5292e-06
8.69547e-07
-2.88201e-06
8.54906e-07
-3.20864e-06
8.20079e-07
-3.50939e-06
7.72774e-07
-3.78475e-06
7.17904e-07
-4.03553e-06
6.59355e-07
-4.26258e-06
5.99461e-07
-4.46672e-06
5.39653e-07
-4.64851e-06
4.80606e-07
-4.80815e-06
4.22419e-07
-4.94648e-06
3.65997e-07
-5.06376e-06
3.10819e-07
-5.15985e-06
2.56437e-07
-5.23453e-06
2.02694e-07
-5.28763e-06
1.49606e-07
-5.31907e-06
9.74002e-08
-5.32893e-06
4.65293e-08
-5.31773e-06
-2.24173e-09
-5.28412e-06
-4.94002e-08
-5.22994e-06
-9.28298e-08
-5.1569e-06
-1.32488e-07
-5.06668e-06
-1.67644e-07
-4.96172e-06
-1.97684e-07
-4.84472e-06
-2.22296e-07
-4.71849e-06
-2.4135e-07
-4.58579e-06
-2.54951e-07
-4.44922e-06
-2.63419e-07
-4.31111e-06
-2.6731e-07
-4.17337e-06
-2.67401e-07
-4.0374e-06
-2.64709e-07
-3.90398e-06
-2.60488e-07
-3.77312e-06
-2.56213e-07
-3.64397e-06
-2.53526e-07
-3.51481e-06
-2.54152e-07
-3.38302e-06
-2.59727e-07
-3.24529e-06
-2.71562e-07
-3.09788e-06
-2.90301e-07
-2.93727e-06
-3.15434e-07
-2.76107e-06
-3.44904e-07
-2.56869e-06
-3.75431e-07
-2.36164e-06
-4.03236e-07
-2.14339e-06
-4.248e-07
-1.91847e-06
-4.38139e-07
-1.69133e-06
-4.43144e-07
-1.46573e-06
-4.40875e-07
-1.24459e-06
-4.32759e-07
-1.03008e-06
-4.20181e-07
-8.2358e-07
-4.04581e-07
-6.26026e-07
-3.86932e-07
-4.3791e-07
-3.68098e-07
-2.59456e-07
-3.48651e-07
-9.06549e-08
-3.2902e-07
6.89516e-08
-3.09741e-07
2.19013e-07
-2.91007e-07
3.60274e-07
-2.72621e-07
4.92973e-07
-2.54796e-07
6.17442e-07
-2.37625e-07
7.34039e-07
-2.21147e-07
8.43121e-07
-2.0538e-07
9.45043e-07
-1.90329e-07
1.04015e-06
-1.76e-07
1.12878e-06
-1.62396e-07
1.21129e-06
-1.4953e-07
1.28801e-06
-1.37413e-07
1.35931e-06
-1.26061e-07
1.42556e-06
-1.1549e-07
1.48712e-06
-1.05706e-07
1.54437e-06
-9.67079e-08
1.59768e-06
-8.84825e-08
1.64742e-06
-8.10016e-08
1.69393e-06
-7.42233e-08
1.73753e-06
-6.8093e-08
1.77851e-06
-6.25457e-08
1.81711e-06
-5.75093e-08
1.85357e-06
-5.29114e-08
1.88805e-06
-4.86805e-08
1.92069e-06
-4.4753e-08
1.95162e-06
-4.10776e-08
1.9809e-06
-3.76109e-08
2.00861e-06
-3.43263e-08
2.03479e-06
-3.12094e-08
2.05948e-06
-2.82466e-08
2.08272e-06
-2.54402e-08
2.10454e-06
-2.28031e-08
2.12502e-06
-2.03371e-08
2.14423e-06
-1.80198e-08
2.1622e-06
-1.58664e-08
2.17896e-06
-1.3894e-08
2.19455e-06
-1.20971e-08
2.209e-06
-1.04671e-08
2.22235e-06
-8.99428e-09
2.23466e-06
-7.66093e-09
2.24595e-06
-6.44845e-09
2.25628e-06
-5.34495e-09
2.26568e-06
-4.33636e-09
2.27419e-06
-3.40103e-09
2.28184e-06
-2.52712e-09
2.28869e-06
-1.7181e-09
2.29476e-06
-9.64994e-10
2.30006e-06
-2.36476e-10
2.30463e-06
4.57322e-10
2.30849e-06
1.13169e-09
2.31168e-06
1.77415e-09
2.31424e-06
2.38181e-09
2.31621e-06
2.95273e-09
2.31761e-06
3.48647e-09
2.31849e-06
3.98375e-09
2.31888e-06
4.44252e-09
2.31882e-06
4.86532e-09
2.31833e-06
5.24898e-09
2.31745e-06
5.59743e-09
2.31621e-06
5.91346e-09
2.31464e-06
6.20442e-09
2.31276e-06
6.47512e-09
2.31061e-06
6.73017e-09
2.30819e-06
6.97328e-09
2.30554e-06
7.20605e-09
2.30267e-06
7.42868e-09
2.2996e-06
7.64116e-09
2.29634e-06
7.84428e-09
2.29291e-06
8.04076e-09
2.28932e-06
8.23495e-09
2.28556e-06
8.43247e-09
2.28165e-06
8.63942e-09
2.27759e-06
8.86108e-09
2.27335e-06
9.10339e-09
2.26894e-06
9.36979e-09
2.26435e-06
9.66941e-09
2.25955e-06
1.00043e-08
2.25455e-06
1.03958e-08
2.2493e-06
1.08363e-08
2.24379e-06
1.13838e-08
2.23798e-06
1.19935e-08
2.23179e-06
1.28247e-08
2.2252e-06
1.37013e-08
2.21801e-06
1.50698e-08
2.21027e-06
1.63487e-08
2.20151e-06
1.87947e-08
2.19197e-06
2.06311e-08
2.18051e-06
2.53926e-08
2.16797e-06
2.78652e-08
2.15155e-06
3.79871e-08
2.13347e-06
4.09111e-08
2.10735e-06
6.4385e-08
2.07749e-06
6.73545e-08
2.03166e-06
1.26108e-07
1.3161e-07
1.97207e-06
5.84757e-08
-1.83584e-07
1.08117e-07
-2.38085e-07
1.53796e-07
-2.4656e-07
2.02204e-07
-2.53198e-07
2.55153e-07
-2.61972e-07
3.12895e-07
-2.72538e-07
3.7525e-07
-2.84081e-07
4.41966e-07
-2.95811e-07
5.12699e-07
-3.06799e-07
5.86804e-07
-3.15725e-07
6.6312e-07
-3.20921e-07
7.40003e-07
-3.20576e-07
8.15306e-07
-3.12688e-07
8.86275e-07
-2.95077e-07
9.49427e-07
-2.6537e-07
1.00028e-06
-2.21078e-07
1.03383e-06
-1.61041e-07
1.04473e-06
-8.6048e-08
1.02908e-06
-1.36519e-09
9.81009e-07
9.68943e-08
8.99695e-07
1.98626e-07
7.80271e-07
3.0407e-07
6.16273e-07
4.10237e-07
3.97675e-07
5.1298e-07
1.0249e-07
6.12791e-07
-2.90135e-07
7.16017e-07
-7.72613e-07
8.18265e-07
-1.28436e-06
9.06074e-07
-1.74431e-06
9.82448e-07
-2.13744e-06
1.04368e-06
-2.48261e-06
1.08372e-06
-2.78048e-06
1.10505e-06
-3.02903e-06
1.10554e-06
-3.24512e-06
1.08564e-06
-3.44225e-06
1.05203e-06
-3.63041e-06
1.00824e-06
-3.81465e-06
9.57011e-07
-3.99682e-06
9.00076e-07
-4.17626e-06
8.38799e-07
-4.35097e-06
7.74166e-07
-4.51841e-06
7.07091e-07
-4.67601e-06
6.38207e-07
-4.82154e-06
5.67949e-07
-4.95224e-06
4.96702e-07
-5.066e-06
4.24572e-07
-5.16108e-06
3.51518e-07
-5.23601e-06
2.77623e-07
-5.28953e-06
2.03126e-07
-5.3206e-06
1.28475e-07
-5.32841e-06
5.43423e-08
-5.31263e-06
-1.80246e-08
-5.27545e-06
-8.65771e-08
-5.2172e-06
-1.51079e-07
-5.1395e-06
-2.10195e-07
-5.04437e-06
-2.62776e-07
-4.93416e-06
-3.07887e-07
-4.81161e-06
-3.4485e-07
-4.67963e-06
-3.73326e-07
-4.54125e-06
-3.93335e-07
-4.39941e-06
-4.0526e-07
-4.25685e-06
-4.09863e-07
-4.11597e-06
-4.08284e-07
-3.9786e-06
-4.0208e-07
-3.84586e-06
-3.93229e-07
-3.71795e-06
-3.8412e-07
-3.59402e-06
-3.77462e-07
-3.472e-06
-3.76167e-07
-3.34866e-06
-3.83069e-07
-3.21971e-06
-4.00515e-07
-3.08006e-06
-4.29951e-07
-2.92486e-06
-4.70628e-07
-2.75041e-06
-5.19356e-07
-2.55531e-06
-5.70526e-07
-2.34156e-06
-6.16995e-07
-2.11429e-06
-6.52067e-07
-1.88017e-06
-6.72254e-07
-1.64524e-06
-6.78081e-07
-1.41399e-06
-6.72126e-07
-1.18945e-06
-6.57293e-07
-9.736e-07
-6.36033e-07
-7.67419e-07
-6.10763e-07
-5.71476e-07
-5.82874e-07
-3.85994e-07
-5.5358e-07
-2.11006e-07
-5.23639e-07
-4.64749e-08
-4.93551e-07
1.08586e-07
-4.64802e-07
2.53771e-07
-4.36191e-07
3.89704e-07
-4.08554e-07
5.16874e-07
-3.81965e-07
6.35782e-07
-3.56533e-07
7.46955e-07
-3.3232e-07
8.50918e-07
-3.09343e-07
9.48176e-07
-2.87587e-07
1.03919e-06
-2.67016e-07
1.12438e-06
-2.47584e-07
1.2041e-06
-2.2925e-07
1.27868e-06
-2.1199e-07
1.34841e-06
-1.95796e-07
1.4136e-06
-1.80679e-07
1.47455e-06
-1.66656e-07
1.53159e-06
-1.53742e-07
1.58504e-06
-1.41936e-07
1.63525e-06
-1.31214e-07
1.68256e-06
-1.21529e-07
1.72728e-06
-1.12811e-07
1.7697e-06
-1.04967e-07
1.81008e-06
-9.78928e-08
1.84864e-06
-9.14755e-08
1.88557e-06
-8.56045e-08
1.92099e-06
-8.01776e-08
1.95502e-06
-7.51076e-08
1.98774e-06
-7.03229e-08
2.01918e-06
-6.57727e-08
2.0494e-06
-6.14243e-08
2.07841e-06
-5.72571e-08
2.10623e-06
-5.32658e-08
2.13288e-06
-4.9454e-08
2.15837e-06
-4.58224e-08
2.18271e-06
-4.23658e-08
2.20594e-06
-3.90907e-08
2.22806e-06
-3.60107e-08
2.24909e-06
-3.31267e-08
2.26905e-06
-3.04284e-08
2.28796e-06
-2.79044e-08
2.30583e-06
-2.55391e-08
2.3227e-06
-2.33155e-08
2.33858e-06
-2.12192e-08
2.35347e-06
-1.92353e-08
2.36742e-06
-1.73477e-08
2.38044e-06
-1.55443e-08
2.39254e-06
-1.38183e-08
2.40374e-06
-1.21654e-08
2.41408e-06
-1.05786e-08
2.42359e-06
-9.0496e-09
2.43229e-06
-7.56904e-09
2.4402e-06
-6.13949e-09
2.44735e-06
-4.76621e-09
2.45376e-06
-3.45303e-09
2.45944e-06
-2.20116e-09
2.46444e-06
-1.00861e-09
2.46875e-06
1.26371e-10
2.47241e-06
1.20391e-09
2.47545e-06
2.20912e-09
2.4779e-06
3.1492e-09
2.47979e-06
4.02329e-09
2.48116e-06
4.84178e-09
2.48202e-06
5.60699e-09
2.48243e-06
6.32366e-09
2.48241e-06
6.99674e-09
2.48198e-06
7.62979e-09
2.48119e-06
8.2252e-09
2.48004e-06
8.78473e-09
2.47858e-06
9.3108e-09
2.47681e-06
9.80712e-09
2.47476e-06
1.028e-08
2.47246e-06
1.07369e-08
2.46991e-06
1.11879e-08
2.46713e-06
1.16404e-08
2.46413e-06
1.21058e-08
2.46091e-06
1.25879e-08
2.45748e-06
1.31035e-08
2.45383e-06
1.36504e-08
2.44996e-06
1.42638e-08
2.44587e-06
1.4925e-08
2.44154e-06
1.57197e-08
2.43696e-06
1.65767e-08
2.43207e-06
1.77107e-08
2.42688e-06
1.88918e-08
2.42128e-06
2.06688e-08
2.41526e-06
2.23653e-08
2.40866e-06
2.54011e-08
2.4014e-06
2.78868e-08
2.39328e-06
3.35118e-08
2.38397e-06
3.71781e-08
2.37352e-06
4.84362e-08
2.36043e-06
5.39995e-08
2.34664e-06
7.81752e-08
2.32619e-06
8.78075e-08
2.30962e-06
1.42672e-07
1.6505e-07
2.27618e-06
2.75582e-08
-2.11143e-07
4.03853e-08
-2.50912e-07
5.21239e-08
-2.58299e-07
6.55023e-08
-2.66577e-07
8.05575e-08
-2.77028e-07
9.68229e-08
-2.88804e-07
1.13911e-07
-3.01169e-07
1.31331e-07
-3.13231e-07
1.48448e-07
-3.23917e-07
1.64205e-07
-3.31482e-07
1.76987e-07
-3.33703e-07
1.84577e-07
-3.28166e-07
1.84386e-07
-3.12497e-07
1.73704e-07
-2.84395e-07
1.49616e-07
-2.41282e-07
1.08959e-07
-1.80422e-07
4.80476e-08
-1.00129e-07
-3.83537e-08
3.53239e-10
-1.5285e-07
1.13131e-07
-2.95537e-07
2.39582e-07
-4.71964e-07
3.75053e-07
-6.82956e-07
5.15062e-07
-9.2754e-07
6.54821e-07
-1.20315e-06
7.88593e-07
-1.50157e-06
9.11203e-07
-1.80408e-06
1.01853e-06
-2.09388e-06
1.10807e-06
-2.36156e-06
1.17376e-06
-2.59558e-06
1.21646e-06
-2.79447e-06
1.24257e-06
-2.96812e-06
1.25736e-06
-3.12429e-06
1.26122e-06
-3.27223e-06
1.25348e-06
-3.42099e-06
1.23439e-06
-3.57446e-06
1.20551e-06
-3.73337e-06
1.16715e-06
-3.89598e-06
1.11962e-06
-4.05884e-06
1.06293e-06
-4.21824e-06
9.98201e-07
-4.37113e-06
9.27054e-07
-4.51521e-06
8.51175e-07
-4.64898e-06
7.71976e-07
-4.77131e-06
6.9028e-07
-4.88099e-06
6.06376e-07
-4.97671e-06
5.20291e-07
-5.05707e-06
4.31886e-07
-5.12059e-06
3.41139e-07
-5.16583e-06
2.48364e-07
-5.1915e-06
1.54149e-07
-5.19617e-06
5.9012e-08
-5.17998e-06
-3.42134e-08
-5.1441e-06
-1.22465e-07
-5.08842e-06
-2.06756e-07
-5.01408e-06
-2.84537e-07
-4.92307e-06
-3.53783e-07
-4.8178e-06
-4.13157e-07
-4.70079e-06
-4.61858e-07
-4.57457e-06
-4.99551e-07
-4.44165e-06
-5.26251e-07
-4.30461e-06
-5.423e-07
-4.16608e-06
-5.48394e-07
-4.0287e-06
-5.45661e-07
-3.89497e-06
-5.35813e-07
-3.76685e-06
-5.21354e-07
-3.64535e-06
-5.0562e-07
-3.53015e-06
-4.92653e-07
-3.41931e-06
-4.87016e-07
-3.30902e-06
-4.93356e-07
-3.19384e-06
-5.15697e-07
-3.06717e-06
-5.5662e-07
-2.92177e-06
-6.16022e-07
-2.7514e-06
-6.89731e-07
-2.55331e-06
-7.68616e-07
-2.3297e-06
-8.40602e-07
-2.088e-06
-8.93769e-07
-1.83832e-06
-9.21931e-07
-1.58929e-06
-9.27115e-07
-1.34669e-06
-9.14725e-07
-1.11394e-06
-8.90038e-07
-8.92721e-07
-8.57256e-07
-6.83348e-07
-8.20135e-07
-4.858e-07
-7.80422e-07
-2.99834e-07
-7.39546e-07
-1.25095e-07
-6.98377e-07
3.91557e-08
-6.57802e-07
1.928e-07
-6.18446e-07
3.36467e-07
-5.79859e-07
4.70357e-07
-5.42444e-07
5.94779e-07
-5.06387e-07
7.10093e-07
-4.71847e-07
8.1675e-07
-4.38976e-07
9.15314e-07
-4.07908e-07
1.00646e-06
-3.78735e-07
1.09094e-06
-3.51495e-07
1.16952e-06
-3.26162e-07
1.24292e-06
-3.02647e-07
1.31175e-06
-2.80821e-07
1.3765e-06
-2.60544e-07
1.43752e-06
-2.41699e-07
1.49507e-06
-2.24209e-07
1.54936e-06
-2.08038e-07
1.6006e-06
-1.93175e-07
1.649e-06
-1.79609e-07
1.69478e-06
-1.67314e-07
1.7382e-06
-1.56228e-07
1.77949e-06
-1.4626e-07
1.81889e-06
-1.37287e-07
1.85658e-06
-1.29168e-07
1.89273e-06
-1.21759e-07
1.92748e-06
-1.14919e-07
1.9609e-06
-1.08529e-07
1.99307e-06
-1.02491e-07
2.02402e-06
-9.67302e-08
2.0538e-06
-9.12013e-08
2.08242e-06
-8.58771e-08
2.1099e-06
-8.07463e-08
2.13626e-06
-7.58094e-08
2.16151e-06
-7.10727e-08
2.18568e-06
-6.65384e-08
2.2088e-06
-6.22108e-08
2.23089e-06
-5.80985e-08
2.25196e-06
-5.42015e-08
2.27204e-06
-5.05106e-08
2.29115e-06
-4.70132e-08
2.30931e-06
-4.3693e-08
2.32652e-06
-4.05336e-08
2.34282e-06
-3.75186e-08
2.35822e-06
-3.46315e-08
2.37273e-06
-3.1857e-08
2.38637e-06
-2.91837e-08
2.39915e-06
-2.66019e-08
2.41109e-06
-2.41035e-08
2.42219e-06