/*--------------------------------*- C++ -*----------------------------------*\
  =========                 |
  \\      /  F ield         | OpenFOAM: The Open Source CFD Toolbox
   \\    /   O peration     | Website:  https://openfoam.org
    \\  /    A nd           | Version:  7
     \\/     M anipulation  |
\*---------------------------------------------------------------------------*/
FoamFile
{
    version     2.0;
    format      ascii;
    class       volScalarField;
    location    "0.039";
    object      pPrime2Mean;
}
// * * * * * * * * * * * * * * * * * * * * * * * * * * * * * * * * * * * * * //

dimensions      [0 4 -4 0 0 0 0];

internalField   nonuniform List<scalar> 
12225
(
9.14077e+06
8.99499e+06
8.8445e+06
8.69937e+06
8.56e+06
8.42594e+06
8.29682e+06
8.17224e+06
8.05181e+06
7.93508e+06
7.82157e+06
7.71076e+06
7.60199e+06
7.49444e+06
7.38699e+06
7.27788e+06
7.16404e+06
7.03777e+06
9.14089e+06
8.99506e+06
8.84456e+06
8.69944e+06
8.56008e+06
8.42604e+06
8.29693e+06
8.17237e+06
8.05197e+06
7.93528e+06
7.82183e+06
7.71109e+06
7.60244e+06
7.49506e+06
7.38791e+06
7.27936e+06
7.16683e+06
7.0441e+06
9.14109e+06
8.9952e+06
8.84471e+06
8.6996e+06
8.56025e+06
8.42624e+06
8.29717e+06
8.17267e+06
8.05233e+06
7.93572e+06
7.8224e+06
7.71183e+06
7.60342e+06
7.49642e+06
7.3899e+06
7.28252e+06
7.17242e+06
7.05724e+06
9.14133e+06
8.99542e+06
8.84494e+06
8.69986e+06
8.56055e+06
8.42658e+06
8.29757e+06
8.17315e+06
8.05292e+06
7.93646e+06
7.82333e+06
7.71304e+06
7.60502e+06
7.49863e+06
7.39308e+06
7.28742e+06
7.1807e+06
7.07295e+06
9.1416e+06
8.99574e+06
8.84529e+06
8.70024e+06
8.56098e+06
8.42708e+06
8.29817e+06
8.17386e+06
8.05379e+06
7.93754e+06
7.82469e+06
7.71479e+06
7.60733e+06
7.50178e+06
7.39753e+06
7.29404e+06
7.1911e+06
7.08996e+06
9.142e+06
8.99619e+06
8.84577e+06
8.70077e+06
8.56157e+06
8.42777e+06
8.29898e+06
8.17484e+06
8.05499e+06
7.93902e+06
7.82655e+06
7.71717e+06
7.61044e+06
7.50594e+06
7.40328e+06
7.30224e+06
7.20313e+06
7.10759e+06
9.14252e+06
8.99677e+06
8.8464e+06
8.70147e+06
8.56236e+06
8.42868e+06
8.30006e+06
8.17613e+06
8.05655e+06
7.94096e+06
7.82897e+06
7.72024e+06
7.6144e+06
7.51116e+06
7.41029e+06
7.31186e+06
7.21642e+06
7.12553e+06
9.1432e+06
8.99754e+06
8.84722e+06
8.70236e+06
8.56337e+06
8.42985e+06
8.30143e+06
8.17778e+06
8.05855e+06
7.9434e+06
7.83201e+06
7.72405e+06
7.61927e+06
7.51745e+06
7.41853e+06
7.32272e+06
7.23066e+06
7.14364e+06
9.14414e+06
8.99851e+06
8.84826e+06
8.70349e+06
8.56464e+06
8.43131e+06
8.30315e+06
8.17982e+06
8.06101e+06
7.94641e+06
7.83571e+06
7.72867e+06
7.62506e+06
7.52479e+06
7.42789e+06
7.33463e+06
7.24563e+06
7.16184e+06
9.14527e+06
8.99973e+06
8.84954e+06
8.70488e+06
8.5662e+06
8.4331e+06
8.30524e+06
8.18231e+06
8.064e+06
7.95002e+06
7.84013e+06
7.7341e+06
7.63179e+06
7.53315e+06
7.43827e+06
7.34744e+06
7.26116e+06
7.1801e+06
9.14694e+06
9.00125e+06
8.8511e+06
8.70657e+06
8.56809e+06
8.43526e+06
8.30776e+06
8.18528e+06
8.06754e+06
7.95429e+06
7.84529e+06
7.74037e+06
7.63943e+06
7.54246e+06
7.44956e+06
7.36099e+06
7.27711e+06
7.19838e+06
9.14846e+06
9.00291e+06
8.85282e+06
8.70842e+06
8.57015e+06
8.43761e+06
8.31049e+06
8.18849e+06
8.07135e+06
7.95882e+06
7.85072e+06
7.74688e+06
7.64724e+06
7.55179e+06
7.46064e+06
7.37397e+06
7.29204e+06
7.21514e+06
9.15058e+06
9.00485e+06
8.85479e+06
8.71054e+06
8.57249e+06
8.44028e+06
8.31357e+06
8.19209e+06
8.07559e+06
7.96385e+06
7.85668e+06
7.75396e+06
7.65562e+06
7.56165e+06
7.47214e+06
7.38722e+06
7.30703e+06
7.23174e+06
9.15334e+06
9.00743e+06
8.85741e+06
8.71333e+06
8.57558e+06
8.44377e+06
8.31759e+06
8.19677e+06
8.08106e+06
7.97026e+06
7.86421e+06
7.76279e+06
7.66592e+06
7.57359e+06
7.48583e+06
7.40271e+06
7.32429e+06
7.25059e+06
9.15692e+06
9.01082e+06
8.86085e+06
8.717e+06
8.57963e+06
8.44834e+06
8.32281e+06
8.20279e+06
8.08804e+06
7.97837e+06
7.87361e+06
7.77365e+06
7.6784e+06
7.58782e+06
7.50188e+06
7.42058e+06
7.34388e+06
7.27175e+06
9.16135e+06
9.01518e+06
8.86532e+06
8.72177e+06
8.58488e+06
8.45422e+06
8.32949e+06
8.21043e+06
8.09681e+06
7.98843e+06
7.88513e+06
7.78676e+06
7.69323e+06
7.60445e+06
7.52033e+06
7.44081e+06
7.36578e+06
7.29513e+06
9.1669e+06
9.02068e+06
8.87101e+06
8.72785e+06
8.59154e+06
8.46166e+06
8.33787e+06
8.21992e+06
8.10757e+06
8.00062e+06
7.89888e+06
7.80219e+06
7.71041e+06
7.62341e+06
7.54106e+06
7.46322e+06
7.38975e+06
7.32048e+06
9.1734e+06
9.02736e+06
8.87801e+06
8.73537e+06
8.59976e+06
8.47075e+06
8.34803e+06
8.2313e+06
8.12033e+06
8.01487e+06
7.91474e+06
7.81972e+06
7.72965e+06
7.64435e+06
7.56364e+06
7.48734e+06
7.41528e+06
7.34727e+06
9.18116e+06
9.03527e+06
8.88629e+06
8.74423e+06
8.6094e+06
8.48135e+06
8.35975e+06
8.2443e+06
8.13471e+06
8.03075e+06
7.93216e+06
7.83873e+06
7.75023e+06
7.66647e+06
7.58722e+06
7.51229e+06
7.44147e+06
7.37455e+06
9.18805e+06
9.04209e+06
8.89335e+06
8.75175e+06
8.61754e+06
8.49025e+06
8.36951e+06
8.25501e+06
8.14644e+06
8.04354e+06
7.94604e+06
7.8537e+06
7.76627e+06
7.68352e+06
7.60524e+06
7.5312e+06
7.46117e+06
7.39496e+06
9.19223e+06
9.04661e+06
8.89815e+06
8.7569e+06
8.62313e+06
8.49635e+06
8.37618e+06
8.26229e+06
8.15437e+06
8.05214e+06
7.95531e+06
7.86363e+06
7.77685e+06
7.69472e+06
7.61701e+06
7.5435e+06
7.47395e+06
7.40816e+06
9.19562e+06
9.04991e+06
8.90165e+06
8.76069e+06
8.62725e+06
8.50085e+06
8.38109e+06
8.26764e+06
8.16018e+06
8.0584e+06
7.96204e+06
7.87081e+06
7.78447e+06
7.70275e+06
7.62543e+06
7.55227e+06
7.48304e+06
7.41753e+06
9.19724e+06
9.05208e+06
8.9041e+06
8.76339e+06
8.63022e+06
8.5041e+06
8.38464e+06
8.27149e+06
8.16435e+06
8.0629e+06
7.96685e+06
7.87594e+06
7.78989e+06
7.70846e+06
7.6314e+06
7.55848e+06
7.48946e+06
7.42414e+06
9.1986e+06
9.05357e+06
8.90579e+06
8.76529e+06
8.63232e+06
8.5064e+06
8.38715e+06
8.27422e+06
8.1673e+06
8.06607e+06
7.97024e+06
7.87954e+06
7.7937e+06
7.71246e+06
7.63557e+06
7.56281e+06
7.49394e+06
7.42875e+06
9.19943e+06
9.05452e+06
8.90693e+06
8.76659e+06
8.63377e+06
8.50799e+06
8.38889e+06
8.27611e+06
8.16934e+06
8.06826e+06
7.97258e+06
7.88202e+06
7.79632e+06
7.71521e+06
7.63844e+06
7.56579e+06
7.49702e+06
7.43191e+06
9.1995e+06
9.05506e+06
8.90767e+06
8.76745e+06
8.63474e+06
8.50907e+06
8.39006e+06
8.27738e+06
8.17071e+06
8.06973e+06
7.97415e+06
7.88369e+06
7.79808e+06
7.71705e+06
7.64037e+06
7.56778e+06
7.49908e+06
7.43402e+06
9.19955e+06
9.05539e+06
8.90814e+06
8.76801e+06
8.63536e+06
8.50976e+06
8.39082e+06
8.2782e+06
8.17159e+06
8.07068e+06
7.97517e+06
7.88477e+06
7.79921e+06
7.71824e+06
7.64161e+06
7.56907e+06
7.5004e+06
7.43538e+06
9.19967e+06
9.0556e+06
8.90842e+06
8.76834e+06
8.63574e+06
8.51018e+06
8.39127e+06
8.2787e+06
8.17213e+06
8.07126e+06
7.97578e+06
7.88542e+06
7.7999e+06
7.71896e+06
7.64236e+06
7.56985e+06
7.5012e+06
7.43621e+06
9.19976e+06
9.05571e+06
8.90857e+06
8.76852e+06
8.63595e+06
8.5104e+06
8.39152e+06
8.27897e+06
8.17242e+06
8.07157e+06
7.97611e+06
7.88577e+06
7.80027e+06
7.71935e+06
7.64276e+06
7.57026e+06
7.50163e+06
7.43665e+06
9.1998e+06
9.05576e+06
8.90863e+06
8.76859e+06
8.63603e+06
8.51049e+06
8.39162e+06
8.27908e+06
8.17254e+06
8.07169e+06
7.97625e+06
7.88591e+06
7.80042e+06
7.7195e+06
7.64292e+06
7.57043e+06
7.50181e+06
7.43683e+06
5.94666e+06
5.94619e+06
5.94523e+06
5.94379e+06
5.94184e+06
5.93938e+06
5.9364e+06
5.93289e+06
5.92885e+06
5.92427e+06
5.91915e+06
5.91347e+06
5.90724e+06
5.90045e+06
5.8931e+06
5.88519e+06
5.87671e+06
5.86767e+06
5.85806e+06
5.84788e+06
5.83714e+06
5.82584e+06
5.81399e+06
5.80157e+06
5.7886e+06
5.77509e+06
5.76103e+06
5.74643e+06
5.7313e+06
5.71564e+06
5.69946e+06
5.68277e+06
5.66556e+06
5.64786e+06
5.62966e+06
5.61098e+06
5.59181e+06
5.57218e+06
5.55208e+06
5.53152e+06
5.51051e+06
5.48906e+06
5.46718e+06
5.44487e+06
5.42215e+06
5.39901e+06
5.37547e+06
5.35154e+06
5.32721e+06
5.30251e+06
5.27743e+06
5.25199e+06
5.22619e+06
5.20004e+06
5.17355e+06
5.14672e+06
5.11956e+06
5.09208e+06
5.06428e+06
5.03617e+06
5.00775e+06
4.97904e+06
4.95004e+06
4.92076e+06
4.89119e+06
4.86135e+06
4.83125e+06
4.80088e+06
4.77025e+06
4.73937e+06
4.70825e+06
4.67689e+06
4.64528e+06
4.61345e+06
4.58139e+06
4.54911e+06
4.51661e+06
4.4839e+06
4.45098e+06
4.41785e+06
4.38453e+06
4.35101e+06
4.31729e+06
4.28339e+06
4.24931e+06
4.21504e+06
4.1806e+06
4.14599e+06
4.11121e+06
4.07626e+06
4.04116e+06
4.00589e+06
3.97048e+06
3.93491e+06
3.89919e+06
3.86333e+06
3.82733e+06
3.7912e+06
3.75493e+06
3.71853e+06
3.682e+06
3.64535e+06
3.60858e+06
3.5717e+06
3.5347e+06
3.49759e+06
3.46038e+06
3.42306e+06
3.38565e+06
3.34813e+06
3.31053e+06
3.27283e+06
3.23505e+06
3.19719e+06
3.15925e+06
3.12124e+06
3.08315e+06
3.045e+06
3.00679e+06
2.96851e+06
2.93018e+06
2.8918e+06
2.85337e+06
2.8149e+06
2.77638e+06
2.73783e+06
2.69925e+06
2.66065e+06
2.62202e+06
2.58337e+06
2.54471e+06
2.50605e+06
2.46737e+06
2.4287e+06
2.39004e+06
2.35139e+06
2.31275e+06
2.27414e+06
2.23555e+06
2.197e+06
2.15848e+06
2.12001e+06
2.08159e+06
2.04323e+06
2.00492e+06
1.96669e+06
1.92853e+06
1.89045e+06
1.85246e+06
1.81456e+06
1.77677e+06
1.73908e+06
1.70151e+06
1.66406e+06
1.62674e+06
1.58956e+06
1.55253e+06
1.51565e+06
1.47893e+06
1.44238e+06
1.40602e+06
1.36984e+06
1.33386e+06
1.29809e+06
1.26254e+06
1.22721e+06
1.19213e+06
1.15729e+06
1.12272e+06
1.08842e+06
1.05442e+06
1.02072e+06
987350
954324
921669
889419
857616
826326
795659
765855
5.94881e+06
5.94833e+06
5.94737e+06
5.94591e+06
5.94395e+06
5.94148e+06
5.93848e+06
5.93495e+06
5.93089e+06
5.92629e+06
5.92113e+06
5.91543e+06
5.90917e+06
5.90234e+06
5.89495e+06
5.887e+06
5.87848e+06
5.8694e+06
5.85975e+06
5.84953e+06
5.83875e+06
5.8274e+06
5.8155e+06
5.80304e+06
5.79002e+06
5.77646e+06
5.76236e+06
5.74771e+06
5.73254e+06
5.71683e+06
5.70061e+06
5.68387e+06
5.66663e+06
5.64888e+06
5.63064e+06
5.61192e+06
5.59271e+06
5.57304e+06
5.5529e+06
5.5323e+06
5.51126e+06
5.48978e+06
5.46787e+06
5.44553e+06
5.42277e+06
5.3996e+06
5.37603e+06
5.35207e+06
5.32772e+06
5.30299e+06
5.27789e+06
5.25243e+06
5.22661e+06
5.20044e+06
5.17392e+06
5.14707e+06
5.11989e+06
5.09239e+06
5.06457e+06
5.03645e+06
5.00802e+06
4.9793e+06
4.95028e+06
4.92098e+06
4.8914e+06
4.86155e+06
4.83143e+06
4.80105e+06
4.77042e+06
4.73953e+06
4.7084e+06
4.67702e+06
4.64541e+06
4.61357e+06
4.58151e+06
4.54922e+06
4.51671e+06
4.48399e+06
4.45107e+06
4.41793e+06
4.3846e+06
4.35108e+06
4.31736e+06
4.28346e+06
4.24937e+06
4.2151e+06
4.18066e+06
4.14604e+06
4.11126e+06
4.07631e+06
4.0412e+06
4.00593e+06
3.97051e+06
3.93494e+06
3.89922e+06
3.86336e+06
3.82736e+06
3.79122e+06
3.75495e+06
3.71855e+06
3.68202e+06
3.64537e+06
3.6086e+06
3.57171e+06
3.53471e+06
3.49761e+06
3.46039e+06
3.42307e+06
3.38565e+06
3.34814e+06
3.31054e+06
3.27284e+06
3.23506e+06
3.1972e+06
3.15926e+06
3.12124e+06
3.08316e+06
3.04501e+06
3.00679e+06
2.96852e+06
2.93018e+06
2.8918e+06
2.85337e+06
2.8149e+06
2.77638e+06
2.73784e+06
2.69926e+06
2.66065e+06
2.62202e+06
2.58337e+06
2.54471e+06
2.50605e+06
2.46737e+06
2.4287e+06
2.39004e+06
2.35139e+06
2.31275e+06
2.27414e+06
2.23555e+06
2.197e+06
2.15848e+06
2.12001e+06
2.08159e+06
2.04323e+06
2.00492e+06
1.96669e+06
1.92853e+06
1.89045e+06
1.85246e+06
1.81456e+06
1.77677e+06
1.73908e+06
1.70151e+06
1.66406e+06
1.62674e+06
1.58956e+06
1.55253e+06
1.51565e+06
1.47893e+06
1.44238e+06
1.40602e+06
1.36984e+06
1.33386e+06
1.29809e+06
1.26254e+06
1.22721e+06
1.19212e+06
1.15729e+06
1.12272e+06
1.08842e+06
1.05441e+06
1.02071e+06
987340
954310
921651
889393
857579
826269
795556
765612
5.95312e+06
5.95264e+06
5.95166e+06
5.95018e+06
5.9482e+06
5.94569e+06
5.94266e+06
5.93909e+06
5.93498e+06
5.93032e+06
5.92511e+06
5.91935e+06
5.91302e+06
5.90612e+06
5.89866e+06
5.89063e+06
5.88203e+06
5.87287e+06
5.86313e+06
5.85282e+06
5.84195e+06
5.83052e+06
5.81852e+06
5.80597e+06
5.79286e+06
5.77921e+06
5.76501e+06
5.75028e+06
5.73501e+06
5.71922e+06
5.7029e+06
5.68608e+06
5.66875e+06
5.65092e+06
5.6326e+06
5.61379e+06
5.59451e+06
5.57476e+06
5.55454e+06
5.53388e+06
5.51276e+06
5.49121e+06
5.46923e+06
5.44683e+06
5.42401e+06
5.40079e+06
5.37716e+06
5.35314e+06
5.32874e+06
5.30396e+06
5.27881e+06
5.2533e+06
5.22743e+06
5.20122e+06
5.17466e+06
5.14777e+06
5.12056e+06
5.09302e+06
5.06517e+06
5.03701e+06
5.00855e+06
4.9798e+06
4.95075e+06
4.92143e+06
4.89182e+06
4.86195e+06
4.83181e+06
4.80141e+06
4.77075e+06
4.73984e+06
4.70869e+06
4.6773e+06
4.64567e+06
4.61382e+06
4.58173e+06
4.54943e+06
4.51691e+06
4.48418e+06
4.45124e+06
4.4181e+06
4.38476e+06
4.35122e+06
4.3175e+06
4.28358e+06
4.24949e+06
4.21521e+06
4.18076e+06
4.14614e+06
4.11134e+06
4.07639e+06
4.04127e+06
4.006e+06
3.97058e+06
3.935e+06
3.89928e+06
3.86341e+06
3.82741e+06
3.79126e+06
3.75499e+06
3.71859e+06
3.68206e+06
3.6454e+06
3.60863e+06
3.57174e+06
3.53474e+06
3.49763e+06
3.46041e+06
3.42309e+06
3.38567e+06
3.34816e+06
3.31055e+06
3.27286e+06
3.23507e+06
3.19721e+06
3.15927e+06
3.12126e+06
3.08317e+06
3.04502e+06
3.0068e+06
2.96852e+06
2.93019e+06
2.89181e+06
2.85338e+06
2.8149e+06
2.77639e+06
2.73784e+06
2.69926e+06
2.66065e+06
2.62202e+06
2.58338e+06
2.54472e+06
2.50605e+06
2.46738e+06
2.42871e+06
2.39004e+06
2.35139e+06
2.31275e+06
2.27414e+06
2.23555e+06
2.197e+06
2.15848e+06
2.12001e+06
2.08159e+06
2.04323e+06
2.00493e+06
1.96669e+06
1.92853e+06
1.89045e+06
1.85246e+06
1.81456e+06
1.77677e+06
1.73908e+06
1.70151e+06
1.66406e+06
1.62674e+06
1.58956e+06
1.55253e+06
1.51565e+06
1.47893e+06
1.44238e+06
1.40602e+06
1.36984e+06
1.33386e+06
1.29809e+06
1.26253e+06
1.22721e+06
1.19212e+06
1.15728e+06
1.12271e+06
1.08841e+06
1.0544e+06
1.0207e+06
987320
954284
921615
889344
857508
826158
795368
765232
5.95963e+06
5.95913e+06
5.95813e+06
5.95662e+06
5.95459e+06
5.95204e+06
5.94895e+06
5.94532e+06
5.94114e+06
5.9364e+06
5.9311e+06
5.92524e+06
5.91881e+06
5.91181e+06
5.90424e+06
5.89609e+06
5.88737e+06
5.87808e+06
5.86821e+06
5.85777e+06
5.84677e+06
5.83519e+06
5.82306e+06
5.81037e+06
5.79712e+06
5.78333e+06
5.76899e+06
5.75412e+06
5.73872e+06
5.72279e+06
5.70634e+06
5.68938e+06
5.67192e+06
5.65397e+06
5.63552e+06
5.61659e+06
5.59719e+06
5.57733e+06
5.557e+06
5.53623e+06
5.51501e+06
5.49336e+06
5.47128e+06
5.44878e+06
5.42587e+06
5.40255e+06
5.37884e+06
5.35474e+06
5.33026e+06
5.30541e+06
5.28018e+06
5.2546e+06
5.22867e+06
5.20239e+06
5.17577e+06
5.14883e+06
5.12155e+06
5.09396e+06
5.06606e+06
5.03785e+06
5.00935e+06
4.98055e+06
4.95146e+06
4.9221e+06
4.89245e+06
4.86254e+06
4.83237e+06
4.80193e+06
4.77125e+06
4.74031e+06
4.70913e+06
4.67771e+06
4.64606e+06
4.61418e+06
4.58208e+06
4.54975e+06
4.51721e+06
4.48446e+06
4.45151e+06
4.41835e+06
4.38499e+06
4.35144e+06
4.3177e+06
4.28377e+06
4.24966e+06
4.21537e+06
4.18091e+06
4.14628e+06
4.11148e+06
4.07651e+06
4.04139e+06
4.00611e+06
3.97068e+06
3.93509e+06
3.89936e+06
3.86349e+06
3.82748e+06
3.79133e+06
3.75505e+06
3.71864e+06
3.68211e+06
3.64545e+06
3.60868e+06
3.57178e+06
3.53478e+06
3.49767e+06
3.46045e+06
3.42312e+06
3.3857e+06
3.34818e+06
3.31058e+06
3.27288e+06
3.23509e+06
3.19723e+06
3.15929e+06
3.12127e+06
3.08318e+06
3.04503e+06
3.00681e+06
2.96853e+06
2.9302e+06
2.89182e+06
2.85338e+06
2.81491e+06
2.7764e+06
2.73785e+06
2.69926e+06
2.66066e+06
2.62203e+06
2.58338e+06
2.54472e+06
2.50605e+06
2.46738e+06
2.42871e+06
2.39004e+06
2.35139e+06
2.31276e+06
2.27414e+06
2.23556e+06
2.197e+06
2.15849e+06
2.12002e+06
2.08159e+06
2.04323e+06
2.00493e+06
1.96669e+06
1.92853e+06
1.89045e+06
1.85246e+06
1.81456e+06
1.77677e+06
1.73908e+06
1.70151e+06
1.66406e+06
1.62674e+06
1.58956e+06
1.55253e+06
1.51565e+06
1.47893e+06
1.44238e+06
1.40602e+06
1.36984e+06
1.33386e+06
1.29808e+06
1.26253e+06
1.2272e+06
1.19211e+06
1.15727e+06
1.1227e+06
1.0884e+06
1.05438e+06
1.02068e+06
987290
954245
921563
889272
857405
826004
795119
764790
5.96836e+06
5.96784e+06
5.96681e+06
5.96526e+06
5.96318e+06
5.96056e+06
5.9574e+06
5.95368e+06
5.9494e+06
5.94455e+06
5.93913e+06
5.93314e+06
5.92658e+06
5.91943e+06
5.9117e+06
5.9034e+06
5.89451e+06
5.88504e+06
5.875e+06
5.86438e+06
5.85319e+06
5.84144e+06
5.82912e+06
5.81624e+06
5.8028e+06
5.78882e+06
5.7743e+06
5.75924e+06
5.74365e+06
5.72754e+06
5.71091e+06
5.69378e+06
5.67615e+06
5.65802e+06
5.63941e+06
5.62032e+06
5.60076e+06
5.58074e+06
5.56027e+06
5.53935e+06
5.51799e+06
5.4962e+06
5.47399e+06
5.45136e+06
5.42833e+06
5.4049e+06
5.38108e+06
5.35687e+06
5.33228e+06
5.30732e+06
5.28201e+06
5.25633e+06
5.23031e+06
5.20394e+06
5.17724e+06
5.15022e+06
5.12287e+06
5.09521e+06
5.06724e+06
5.03897e+06
5.0104e+06
4.98154e+06
4.9524e+06
4.92298e+06
4.89329e+06
4.86333e+06
4.83311e+06
4.80263e+06
4.7719e+06
4.74093e+06
4.70971e+06
4.67826e+06
4.64658e+06
4.61466e+06
4.58253e+06
4.55018e+06
4.51761e+06
4.48484e+06
4.45186e+06
4.41867e+06
4.3853e+06
4.35173e+06
4.31797e+06
4.28402e+06
4.2499e+06
4.21559e+06
4.18112e+06
4.14647e+06
4.11165e+06
4.07668e+06
4.04154e+06
4.00625e+06
3.97081e+06
3.93522e+06
3.89948e+06
3.8636e+06
3.82758e+06
3.79142e+06
3.75514e+06
3.71872e+06
3.68218e+06
3.64552e+06
3.60874e+06
3.57184e+06
3.53483e+06
3.49771e+06
3.46049e+06
3.42316e+06
3.38574e+06
3.34822e+06
3.31061e+06
3.27291e+06
3.23512e+06
3.19725e+06
3.15931e+06
3.12129e+06
3.0832e+06
3.04504e+06
3.00683e+06
2.96855e+06
2.93021e+06
2.89183e+06
2.8534e+06
2.81492e+06
2.7764e+06
2.73785e+06
2.69927e+06
2.66066e+06
2.62203e+06
2.58339e+06
2.54472e+06
2.50606e+06
2.46738e+06
2.42871e+06
2.39005e+06
2.35139e+06
2.31276e+06
2.27414e+06
2.23556e+06
2.197e+06
2.15849e+06
2.12002e+06
2.0816e+06
2.04323e+06
2.00493e+06
1.96669e+06
1.92853e+06
1.89045e+06
1.85246e+06
1.81456e+06
1.77677e+06
1.73908e+06
1.70151e+06
1.66406e+06
1.62674e+06
1.58956e+06
1.55253e+06
1.51565e+06
1.47893e+06
1.44238e+06
1.40601e+06
1.36983e+06
1.33385e+06
1.29808e+06
1.26252e+06
1.22719e+06
1.1921e+06
1.15726e+06
1.12268e+06
1.08838e+06
1.05436e+06
1.02065e+06
987252
954195
921496
889180
857276
825815
794830
764325
5.97938e+06
5.97883e+06
5.97777e+06
5.97616e+06
5.97401e+06
5.97131e+06
5.96804e+06
5.96421e+06
5.9598e+06
5.95481e+06
5.94924e+06
5.94308e+06
5.93634e+06
5.929e+06
5.92108e+06
5.91257e+06
5.90347e+06
5.89378e+06
5.88351e+06
5.87267e+06
5.86124e+06
5.84925e+06
5.83669e+06
5.82357e+06
5.8099e+06
5.79568e+06
5.78092e+06
5.76562e+06
5.7498e+06
5.73346e+06
5.71661e+06
5.69926e+06
5.68141e+06
5.66307e+06
5.64425e+06
5.62495e+06
5.6052e+06
5.58499e+06
5.56433e+06
5.54323e+06
5.52169e+06
5.49974e+06
5.47736e+06
5.45458e+06
5.43139e+06
5.40782e+06
5.38385e+06
5.35951e+06
5.33479e+06
5.30971e+06
5.28427e+06
5.25848e+06
5.23234e+06
5.20587e+06
5.17907e+06
5.15195e+06
5.12451e+06
5.09676e+06
5.0687e+06
5.04035e+06
5.01171e+06
4.98278e+06
4.95357e+06
4.92408e+06
4.89433e+06
4.86431e+06
4.83403e+06
4.8035e+06
4.77272e+06
4.7417e+06
4.71044e+06
4.67894e+06
4.64721e+06
4.61526e+06
4.58309e+06
4.5507e+06
4.51811e+06
4.4853e+06
4.45229e+06
4.41908e+06
4.38568e+06
4.35208e+06
4.3183e+06
4.28433e+06
4.25019e+06
4.21586e+06
4.18137e+06
4.1467e+06
4.11187e+06
4.07688e+06
4.04173e+06
4.00643e+06
3.97097e+06
3.93537e+06
3.89962e+06
3.86373e+06
3.8277e+06
3.79154e+06
3.75524e+06
3.71882e+06
3.68227e+06
3.6456e+06
3.60881e+06
3.57191e+06
3.5349e+06
3.49777e+06
3.46054e+06
3.42321e+06
3.38579e+06
3.34826e+06
3.31065e+06
3.27294e+06
3.23515e+06
3.19728e+06
3.15934e+06
3.12132e+06
3.08322e+06
3.04507e+06
3.00684e+06
2.96856e+06
2.93023e+06
2.89184e+06
2.85341e+06
2.81493e+06
2.77641e+06
2.73786e+06
2.69928e+06
2.66067e+06
2.62204e+06
2.58339e+06
2.54473e+06
2.50606e+06
2.46739e+06
2.42872e+06
2.39005e+06
2.3514e+06
2.31276e+06
2.27415e+06
2.23556e+06
2.19701e+06
2.15849e+06
2.12002e+06
2.0816e+06
2.04323e+06
2.00493e+06
1.96669e+06
1.92853e+06
1.89045e+06
1.85246e+06
1.81457e+06
1.77677e+06
1.73908e+06
1.70151e+06
1.66406e+06
1.62674e+06
1.58956e+06
1.55253e+06
1.51565e+06
1.47893e+06
1.44238e+06
1.40601e+06
1.36983e+06
1.33385e+06
1.29807e+06
1.26252e+06
1.22719e+06
1.19209e+06
1.15725e+06
1.12267e+06
1.08836e+06
1.05433e+06
1.02061e+06
987206
954134
921415
889071
857125
825601
794515
763856
5.99275e+06
5.99218e+06
5.99106e+06
5.98939e+06
5.98715e+06
5.98434e+06
5.98095e+06
5.97697e+06
5.9724e+06
5.96723e+06
5.96147e+06
5.9551e+06
5.94814e+06
5.94057e+06
5.9324e+06
5.92363e+06
5.91427e+06
5.90431e+06
5.89376e+06
5.88263e+06
5.87092e+06
5.85864e+06
5.84579e+06
5.83238e+06
5.81841e+06
5.8039e+06
5.78885e+06
5.77327e+06
5.75717e+06
5.74055e+06
5.72343e+06
5.7058e+06
5.68769e+06
5.66909e+06
5.65002e+06
5.63049e+06
5.6105e+06
5.59005e+06
5.56917e+06
5.54785e+06
5.52611e+06
5.50395e+06
5.48138e+06
5.45841e+06
5.43504e+06
5.41129e+06
5.38715e+06
5.36265e+06
5.33777e+06
5.31254e+06
5.28696e+06
5.26103e+06
5.23476e+06
5.20817e+06
5.18124e+06
5.15401e+06
5.12645e+06
5.0986e+06
5.07045e+06
5.042e+06
5.01326e+06
4.98425e+06
4.95495e+06
4.92539e+06
4.89556e+06
4.86547e+06
4.83513e+06
4.80453e+06
4.77369e+06
4.74261e+06
4.7113e+06
4.67975e+06
4.64797e+06
4.61598e+06
4.58376e+06
4.55133e+06
4.51869e+06
4.48585e+06
4.45281e+06
4.41956e+06
4.38613e+06
4.3525e+06
4.31869e+06
4.2847e+06
4.25053e+06
4.21619e+06
4.18167e+06
4.14698e+06
4.11214e+06
4.07713e+06
4.04196e+06
4.00664e+06
3.97117e+06
3.93555e+06
3.89979e+06
3.86389e+06
3.82785e+06
3.79167e+06
3.75537e+06
3.71894e+06
3.68238e+06
3.6457e+06
3.60891e+06
3.572e+06
3.53497e+06
3.49784e+06
3.46061e+06
3.42327e+06
3.38584e+06
3.34831e+06
3.31069e+06
3.27298e+06
3.23519e+06
3.19732e+06
3.15937e+06
3.12135e+06
3.08325e+06
3.04509e+06
3.00687e+06
2.96859e+06
2.93025e+06
2.89186e+06
2.85342e+06
2.81495e+06
2.77643e+06
2.73787e+06
2.69929e+06
2.66068e+06
2.62205e+06
2.5834e+06
2.54474e+06
2.50607e+06
2.46739e+06
2.42872e+06
2.39006e+06
2.3514e+06
2.31276e+06
2.27415e+06
2.23556e+06
2.19701e+06
2.15849e+06
2.12002e+06
2.0816e+06
2.04323e+06
2.00493e+06
1.9667e+06
1.92854e+06
1.89046e+06
1.85246e+06
1.81457e+06
1.77677e+06
1.73908e+06
1.70151e+06
1.66406e+06
1.62674e+06
1.58956e+06
1.55253e+06
1.51564e+06
1.47893e+06
1.44238e+06
1.40601e+06
1.36983e+06
1.33385e+06
1.29807e+06
1.26251e+06
1.22718e+06
1.19208e+06
1.15724e+06
1.12265e+06
1.08833e+06
1.0543e+06
1.02057e+06
987153
954064
921323
888948
856957
825368
794188
763395
6.00857e+06
6.00796e+06
6.00678e+06
6.00502e+06
6.00268e+06
5.99973e+06
5.99619e+06
5.99203e+06
5.98726e+06
5.98188e+06
5.97588e+06
5.96926e+06
5.96202e+06
5.95417e+06
5.9457e+06
5.93662e+06
5.92693e+06
5.91665e+06
5.90577e+06
5.89429e+06
5.88224e+06
5.86961e+06
5.85641e+06
5.84265e+06
5.82834e+06
5.81348e+06
5.79809e+06
5.78217e+06
5.76574e+06
5.74879e+06
5.73134e+06
5.7134e+06
5.69498e+06
5.67609e+06
5.65672e+06
5.6369e+06
5.61663e+06
5.59592e+06
5.57478e+06
5.55321e+06
5.53122e+06
5.50883e+06
5.48603e+06
5.46284e+06
5.43926e+06
5.4153e+06
5.39097e+06
5.36628e+06
5.34123e+06
5.31582e+06
5.29007e+06
5.26398e+06
5.23756e+06
5.21082e+06
5.18376e+06
5.15638e+06
5.1287e+06
5.10073e+06
5.07246e+06
5.0439e+06
5.01506e+06
4.98594e+06
4.95656e+06
4.9269e+06
4.89699e+06
4.86682e+06
4.83639e+06
4.80573e+06
4.77482e+06
4.74367e+06
4.71229e+06
4.68068e+06
4.64885e+06
4.6168e+06
4.58453e+06
4.55206e+06
4.51937e+06
4.48649e+06
4.4534e+06
4.42012e+06
4.38665e+06
4.35299e+06
4.31915e+06
4.28513e+06
4.25093e+06
4.21656e+06
4.18202e+06
4.14731e+06
4.11244e+06
4.07741e+06
4.04222e+06
4.00688e+06
3.97139e+06
3.93576e+06
3.89998e+06
3.86407e+06
3.82801e+06
3.79183e+06
3.75551e+06
3.71907e+06
3.6825e+06
3.64581e+06
3.60901e+06
3.57209e+06
3.53506e+06
3.49793e+06
3.46069e+06
3.42334e+06
3.3859e+06
3.34837e+06
3.31075e+06
3.27303e+06
3.23524e+06
3.19736e+06
3.15941e+06
3.12138e+06
3.08328e+06
3.04512e+06
3.00689e+06
2.96861e+06
2.93027e+06
2.89188e+06
2.85344e+06
2.81496e+06
2.77644e+06
2.73789e+06
2.6993e+06
2.66069e+06
2.62206e+06
2.58341e+06
2.54474e+06
2.50607e+06
2.4674e+06
2.42873e+06
2.39006e+06
2.35141e+06
2.31277e+06
2.27415e+06
2.23557e+06
2.19701e+06
2.1585e+06
2.12002e+06
2.0816e+06
2.04324e+06
2.00493e+06
1.9667e+06
1.92854e+06
1.89046e+06
1.85247e+06
1.81457e+06
1.77677e+06
1.73908e+06
1.70151e+06
1.66406e+06
1.62674e+06
1.58956e+06
1.55252e+06
1.51564e+06
1.47892e+06
1.44238e+06
1.40601e+06
1.36982e+06
1.33384e+06
1.29806e+06
1.2625e+06
1.22717e+06
1.19207e+06
1.15722e+06
1.12263e+06
1.0883e+06
1.05427e+06
1.02052e+06
987093
953987
921222
888813
856777
825124
793855
762946
6.02696e+06
6.0263e+06
6.02505e+06
6.02318e+06
6.0207e+06
6.0176e+06
6.01386e+06
6.00949e+06
6.00448e+06
5.99883e+06
5.99254e+06
5.98561e+06
5.97805e+06
5.96985e+06
5.96102e+06
5.95157e+06
5.9415e+06
5.93082e+06
5.91954e+06
5.90766e+06
5.8952e+06
5.88216e+06
5.86855e+06
5.85438e+06
5.83967e+06
5.82441e+06
5.80862e+06
5.79231e+06
5.77549e+06
5.75816e+06
5.74034e+06
5.72204e+06
5.70326e+06
5.68402e+06
5.66432e+06
5.64417e+06
5.62359e+06
5.60257e+06
5.58113e+06
5.55927e+06
5.53701e+06
5.51434e+06
5.49129e+06
5.46785e+06
5.44404e+06
5.41985e+06
5.3953e+06
5.37039e+06
5.34513e+06
5.31953e+06
5.29359e+06
5.26732e+06
5.24072e+06
5.21381e+06
5.18659e+06
5.15907e+06
5.13125e+06
5.10313e+06
5.07473e+06
5.04605e+06
5.01709e+06
4.98786e+06
4.95836e+06
4.92861e+06
4.8986e+06
4.86833e+06
4.83782e+06
4.80707e+06
4.77608e+06
4.74486e+06
4.71341e+06
4.68174e+06
4.64984e+06
4.61773e+06
4.58541e+06
4.55288e+06
4.52014e+06
4.48721e+06
4.45408e+06
4.42076e+06
4.38724e+06
4.35355e+06
4.31967e+06
4.28561e+06
4.25138e+06
4.21698e+06
4.18241e+06
4.14767e+06
4.11278e+06
4.07773e+06
4.04252e+06
4.00716e+06
3.97165e+06
3.936e+06
3.9002e+06
3.86427e+06
3.8282e+06
3.792e+06
3.75567e+06
3.71922e+06
3.68264e+06
3.64594e+06
3.60913e+06
3.5722e+06
3.53516e+06
3.49802e+06
3.46077e+06
3.42342e+06
3.38598e+06
3.34844e+06
3.31081e+06
3.27309e+06
3.23529e+06
3.19741e+06
3.15945e+06
3.12142e+06
3.08332e+06
3.04515e+06
3.00692e+06
2.96864e+06
2.93029e+06
2.8919e+06
2.85346e+06
2.81498e+06
2.77646e+06
2.7379e+06
2.69932e+06
2.6607e+06
2.62207e+06
2.58342e+06
2.54475e+06
2.50608e+06
2.46741e+06
2.42873e+06
2.39007e+06
2.35141e+06
2.31277e+06
2.27416e+06
2.23557e+06
2.19701e+06
2.1585e+06
2.12003e+06
2.0816e+06
2.04324e+06
2.00494e+06
1.9667e+06
1.92854e+06
1.89046e+06
1.85247e+06
1.81457e+06
1.77677e+06
1.73908e+06
1.70151e+06
1.66406e+06
1.62674e+06
1.58956e+06
1.55252e+06
1.51564e+06
1.47892e+06
1.44237e+06
1.406e+06
1.36982e+06
1.33383e+06
1.29806e+06
1.26249e+06
1.22716e+06
1.19205e+06
1.1572e+06
1.1226e+06
1.08827e+06
1.05423e+06
1.02047e+06
987029
953904
921113
888671
856589
824875
793524
762514
6.04804e+06
6.04733e+06
6.04598e+06
6.04399e+06
6.04135e+06
6.03805e+06
6.03408e+06
6.02945e+06
6.02415e+06
6.01817e+06
6.01154e+06
6.00424e+06
5.99628e+06
5.98767e+06
5.97841e+06
5.96852e+06
5.958e+06
5.94685e+06
5.9351e+06
5.92275e+06
5.90982e+06
5.8963e+06
5.88222e+06
5.86757e+06
5.85239e+06
5.83667e+06
5.82042e+06
5.80366e+06
5.7864e+06
5.76864e+06
5.7504e+06
5.73169e+06
5.71251e+06
5.69287e+06
5.67279e+06
5.65228e+06
5.63133e+06
5.60997e+06
5.5882e+06
5.56602e+06
5.54345e+06
5.52049e+06
5.49714e+06
5.47343e+06
5.44935e+06
5.4249e+06
5.40011e+06
5.37496e+06
5.34947e+06
5.32365e+06
5.2975e+06
5.27103e+06
5.24424e+06
5.21714e+06
5.18974e+06
5.16205e+06
5.13407e+06
5.1058e+06
5.07725e+06
5.04843e+06
5.01934e+06
4.98999e+06
4.96037e+06
4.9305e+06
4.90038e+06
4.87002e+06
4.83941e+06
4.80857e+06
4.77749e+06
4.74619e+06
4.71466e+06
4.68291e+06
4.65094e+06
4.61876e+06
4.58638e+06
4.55379e+06
4.521e+06
4.48801e+06
4.45483e+06
4.42146e+06
4.3879e+06
4.35416e+06
4.32024e+06
4.28615e+06
4.25188e+06
4.21745e+06
4.18285e+06
4.14808e+06
4.11316e+06
4.07808e+06
4.04285e+06
4.00746e+06
3.97193e+06
3.93626e+06
3.90045e+06
3.8645e+06
3.82841e+06
3.7922e+06
3.75585e+06
3.71939e+06
3.6828e+06
3.64609e+06
3.60926e+06
3.57232e+06
3.53528e+06
3.49812e+06
3.46087e+06
3.42351e+06
3.38606e+06
3.34851e+06
3.31087e+06
3.27315e+06
3.23535e+06
3.19746e+06
3.1595e+06
3.12146e+06
3.08336e+06
3.04519e+06
3.00696e+06
2.96867e+06
2.93032e+06
2.89193e+06
2.85348e+06
2.815e+06
2.77648e+06
2.73792e+06
2.69933e+06
2.66072e+06
2.62208e+06
2.58343e+06
2.54476e+06
2.50609e+06
2.46741e+06
2.42874e+06
2.39007e+06
2.35142e+06
2.31278e+06
2.27416e+06
2.23557e+06
2.19702e+06
2.1585e+06
2.12003e+06
2.08161e+06
2.04324e+06
2.00494e+06
1.9667e+06
1.92854e+06
1.89046e+06
1.85247e+06
1.81457e+06
1.77677e+06
1.73909e+06
1.70151e+06
1.66406e+06
1.62674e+06
1.58956e+06
1.55252e+06
1.51564e+06
1.47892e+06
1.44237e+06
1.406e+06
1.36982e+06
1.33383e+06
1.29805e+06
1.26248e+06
1.22714e+06
1.19204e+06
1.15718e+06
1.12258e+06
1.08824e+06
1.05419e+06
1.02042e+06
986960
953816
921000
888524
856397
824624
793199
762100
6.072e+06
6.07122e+06
6.06976e+06
6.06762e+06
6.06478e+06
6.06123e+06
6.05699e+06
6.05203e+06
6.04638e+06
6.04002e+06
6.03296e+06
6.02521e+06
6.01678e+06
6.00768e+06
5.99792e+06
5.98751e+06
5.97645e+06
5.96477e+06
5.95247e+06
5.93957e+06
5.92608e+06
5.91202e+06
5.89739e+06
5.88221e+06
5.86649e+06
5.85024e+06
5.83347e+06
5.81621e+06
5.79844e+06
5.7802e+06
5.76149e+06
5.74231e+06
5.72268e+06
5.70262e+06
5.68211e+06
5.66119e+06
5.63985e+06
5.61811e+06
5.59596e+06
5.57343e+06
5.55052e+06
5.52723e+06
5.50357e+06
5.47955e+06
5.45517e+06
5.43045e+06
5.40538e+06
5.37997e+06
5.35423e+06
5.32817e+06
5.30178e+06
5.27509e+06
5.24809e+06
5.22079e+06
5.19319e+06
5.16531e+06
5.13715e+06
5.10872e+06
5.08001e+06
5.05104e+06
5.02181e+06
4.99231e+06
4.96257e+06
4.93258e+06
4.90234e+06
4.87186e+06
4.84115e+06
4.8102e+06
4.77903e+06
4.74764e+06
4.71602e+06
4.68419e+06
4.65215e+06
4.6199e+06
4.58744e+06
4.55478e+06
4.52193e+06
4.48888e+06
4.45565e+06
4.42223e+06
4.38862e+06
4.35483e+06
4.32087e+06
4.28674e+06
4.25243e+06
4.21796e+06
4.18332e+06
4.14853e+06
4.11357e+06
4.07846e+06
4.04321e+06
4.0078e+06
3.97225e+06
3.93655e+06
3.90072e+06
3.86475e+06
3.82865e+06
3.79241e+06
3.75605e+06
3.71957e+06
3.68296e+06
3.64624e+06
3.60941e+06
3.57246e+06
3.5354e+06
3.49824e+06
3.46097e+06
3.42361e+06
3.38614e+06
3.34859e+06
3.31095e+06
3.27322e+06
3.23541e+06
3.19752e+06
3.15955e+06
3.12151e+06
3.0834e+06
3.04523e+06
3.00699e+06
2.9687e+06
2.93035e+06
2.89195e+06
2.85351e+06
2.81502e+06
2.7765e+06
2.73794e+06
2.69935e+06
2.66073e+06
2.62209e+06
2.58344e+06
2.54477e+06
2.5061e+06
2.46742e+06
2.42875e+06
2.39008e+06
2.35142e+06
2.31278e+06
2.27417e+06
2.23558e+06
2.19702e+06
2.15851e+06
2.12003e+06
2.08161e+06
2.04325e+06
2.00494e+06
1.9667e+06
1.92854e+06
1.89046e+06
1.85247e+06
1.81457e+06
1.77678e+06
1.73909e+06
1.70151e+06
1.66406e+06
1.62674e+06
1.58956e+06
1.55252e+06