/*--------------------------------*- C++ -*----------------------------------*\
  =========                 |
  \\      /  F ield         | OpenFOAM: The Open Source CFD Toolbox
   \\    /   O peration     | Website:  https://openfoam.org
    \\  /    A nd           | Version:  7
     \\/     M anipulation  |
\*---------------------------------------------------------------------------*/
FoamFile
{
    version     2.0;
    format      ascii;
    class       volVectorField;
    location    "0.039";
    object      U;
}
// * * * * * * * * * * * * * * * * * * * * * * * * * * * * * * * * * * * * * //

dimensions      [0 1 -1 0 0 0 0];

internalField   nonuniform List<vector> 
12225
(
(4.77876 0.163814 0)
(4.18956 0.110022 0)
(3.70732 0.111987 0)
(3.2902 0.0962778 0)
(2.93025 0.0757761 0)
(2.61358 0.0643033 0)
(2.30743 0.0587041 0)
(2.01005 0.0500878 0)
(1.73718 0.0382832 0)
(1.49778 0.0285474 0)
(1.29072 0.0227022 0)
(1.11394 0.0182956 0)
(0.960747 0.0135821 0)
(0.835274 0.00890179 0)
(0.723359 0.00461775 0)
(0.64062 0.00222191 0)
(0.549605 0.00465839 0)
(0.471494 -0.00110505 0)
(5.07761 0.102966 0)
(4.89297 0.080007 0)
(4.76672 0.0922562 0)
(4.66796 0.0938636 0)
(4.55326 0.0891167 0)
(4.4213 0.0871534 0)
(4.2817 0.0924553 0)
(4.14544 0.100437 0)
(4.01122 0.104149 0)
(3.87221 0.101673 0)
(3.72388 0.0955506 0)
(3.57382 0.0882225 0)
(3.42772 0.0807874 0)
(3.29554 0.0733734 0)
(3.16387 0.0675637 0)
(3.04807 0.0625088 0)
(2.91532 0.0629212 0)
(2.78991 0.0637699 0)
(4.9602 0.162449 0)
(4.89692 0.126398 0)
(4.81648 0.147293 0)
(4.78944 0.147593 0)
(4.76958 0.139776 0)
(4.72299 0.135643 0)
(4.65768 0.134442 0)
(4.60113 0.131209 0)
(4.56532 0.124946 0)
(4.54272 0.119202 0)
(4.52152 0.116269 0)
(4.49348 0.115087 0)
(4.45687 0.112374 0)
(4.41089 0.107933 0)
(4.35948 0.103399 0)
(4.30082 0.101053 0)
(4.2436 0.106992 0)
(4.17056 0.114868 0)
(5.0225 0.171727 0)
(4.95733 0.115396 0)
(4.85579 0.125043 0)
(4.80397 0.124592 0)
(4.77723 0.121513 0)
(4.76026 0.124425 0)
(4.74895 0.128938 0)
(4.74284 0.128252 0)
(4.73933 0.122406 0)
(4.73291 0.116381 0)
(4.72155 0.113801 0)
(4.70464 0.113547 0)
(4.68461 0.112946 0)
(4.66052 0.110881 0)
(4.63772 0.108997 0)
(4.61346 0.109154 0)
(4.59536 0.115619 0)
(4.57496 0.126471 0)
(4.9877 0.171585 0)
(4.94721 0.144963 0)
(4.84022 0.160752 0)
(4.79778 0.159676 0)
(4.79428 0.148688 0)
(4.79242 0.139581 0)
(4.78193 0.134642 0)
(4.7698 0.13043 0)
(4.76096 0.125623 0)
(4.75224 0.122472 0)
(4.74021 0.122874 0)
(4.72405 0.125184 0)
(4.7062 0.126512 0)
(4.68757 0.12548 0)
(4.67156 0.123511 0)
(4.65773 0.122608 0)
(4.64956 0.126311 0)
(4.6455 0.136024 0)
(4.99871 0.196295 0)
(4.92608 0.163722 0)
(4.88191 0.159668 0)
(4.85901 0.146317 0)
(4.83232 0.136196 0)
(4.80398 0.135626 0)
(4.78163 0.138281 0)
(4.77083 0.137277 0)
(4.76976 0.132617 0)
(4.77242 0.128872 0)
(4.77524 0.128896 0)
(4.77765 0.130887 0)
(4.77956 0.13145 0)
(4.77895 0.128897 0)
(4.77439 0.124549 0)
(4.76502 0.121167 0)
(4.75356 0.122139 0)
(4.74156 0.129044 0)
(5.0168 0.241049 0)
(4.99989 0.190876 0)
(4.96366 0.17043 0)
(4.93266 0.167908 0)
(4.88715 0.166341 0)
(4.83963 0.158728 0)
(4.80534 0.146615 0)
(4.78788 0.133405 0)
(4.78259 0.122512 0)
(4.78471 0.116613 0)
(4.79296 0.11627 0)
(4.80689 0.119629 0)
(4.82298 0.123932 0)
(4.83499 0.127552 0)
(4.83696 0.130549 0)
(4.8272 0.134042 0)
(4.80779 0.139402 0)
(4.784 0.146441 0)
(4.96368 0.281673 0)
(4.9655 0.18557 0)
(4.95803 0.163407 0)
(4.93915 0.166916 0)
(4.9078 0.17244 0)
(4.87869 0.167639 0)
(4.86129 0.155501 0)
(4.8574 0.14294 0)
(4.8612 0.132999 0)
(4.86381 0.125812 0)
(4.86038 0.121072 0)
(4.85148 0.118974 0)
(4.8401 0.119729 0)
(4.82768 0.123596 0)
(4.81555 0.130289 0)
(4.80316 0.138945 0)
(4.79244 0.148517 0)
(4.78258 0.157473 0)
(5.12278 0.292376 0)
(5.08295 0.205542 0)
(4.98104 0.183008 0)
(4.92333 0.185262 0)
(4.90444 0.190104 0)
(4.89134 0.18212 0)
(4.87335 0.161179 0)
(4.85912 0.138317 0)
(4.85405 0.123517 0)
(4.85289 0.119489 0)
(4.84818 0.123186 0)
(4.83658 0.129882 0)
(4.82073 0.136031 0)
(4.80432 0.140255 0)
(4.79213 0.143082 0)
(4.78466 0.145792 0)
(4.78395 0.14921 0)
(4.7859 0.154629 0)
(5.05427 0.305723 0)
(4.99822 0.260381 0)
(4.941 0.214449 0)
(4.88699 0.188113 0)
(4.85312 0.183412 0)
(4.83914 0.180148 0)
(4.83695 0.16586 0)
(4.83982 0.145253 0)
(4.84355 0.129165 0)
(4.84639 0.1232 0)
(4.8494 0.125794 0)
(4.85424 0.132158 0)
(4.86208 0.138232 0)
(4.87168 0.142414 0)
(4.88158 0.145227 0)
(4.8882 0.147739 0)
(4.89214 0.151205 0)
(4.889 0.15608 0)
(5.00159 0.331512 0)
(4.9774 0.257519 0)
(4.97956 0.222991 0)
(4.96268 0.214047 0)
(4.94501 0.209234 0)
(4.93575 0.192717 0)
(4.92251 0.165921 0)
(4.89646 0.141137 0)
(4.8626 0.127281 0)
(4.83208 0.12366 0)
(4.81383 0.124603 0)
(4.81059 0.125714 0)
(4.82011 0.125924 0)
(4.837 0.126277 0)
(4.85613 0.12872 0)
(4.87304 0.134168 0)
(4.88618 0.143253 0)
(4.89409 0.154599 0)
(4.96701 0.376081 0)
(5.03802 0.290627 0)
(5.01074 0.230002 0)
(4.97409 0.202658 0)
(4.9626 0.194773 0)
(4.96165 0.190919 0)
(4.94945 0.182989 0)
(4.92318 0.170515 0)
(4.89552 0.156084 0)
(4.87944 0.142234 0)
(4.88013 0.130834 0)
(4.89405 0.123107 0)
(4.91351 0.119322 0)
(4.92997 0.119459 0)
(4.93924 0.123236 0)
(4.93965 0.13039 0)
(4.9342 0.140344 0)
(4.92461 0.152186 0)
(4.97773 0.296633 0)
(5.01472 0.238759 0)
(5.00388 0.237333 0)
(4.96887 0.230044 0)
(4.94777 0.215527 0)
(4.95439 0.201032 0)
(4.97443 0.187503 0)
(4.99087 0.173626 0)
(4.99574 0.157912 0)
(4.98847 0.140442 0)
(4.97327 0.123651 0)
(4.95591 0.111211 0)
(4.94155 0.106191 0)
(4.9319 0.10942 0)
(4.92776 0.119609 0)
(4.92689 0.133862 0)
(4.9299 0.149436 0)
(4.9343 0.163873 0)
(5.08832 0.389562 0)
(5.02558 0.308219 0)
(4.95698 0.262741 0)
(4.92386 0.226994 0)
(4.92792 0.193957 0)
(4.95421 0.170605 0)
(4.98332 0.158395 0)
(5.00597 0.153984 0)
(5.02072 0.15274 0)
(5.0282 0.151207 0)
(5.03054 0.147935 0)
(5.0292 0.142959 0)
(5.02494 0.137488 0)
(5.01751 0.133025 0)
(5.00778 0.130791 0)
(4.99748 0.131915 0)
(4.98855 0.136097 0)
(4.98199 0.143638 0)
(5.03584 0.369378 0)
(4.98857 0.313242 0)
(4.97884 0.279231 0)
(4.97586 0.248473 0)
(4.97405 0.204635 0)
(4.96947 0.166957 0)
(4.96303 0.149818 0)
(4.96081 0.147249 0)
(4.96722 0.145241 0)
(4.98181 0.136907 0)
(5.00112 0.124952 0)
(5.02018 0.116151 0)
(5.03452 0.115123 0)
(5.04116 0.123028 0)
(5.03937 0.136642 0)
(5.03066 0.151938 0)
(5.01839 0.165443 0)
(5.0059 0.174357 0)
(4.96438 0.424086 0)
(4.93176 0.353136 0)
(4.9466 0.260236 0)
(4.97674 0.215973 0)
(4.99616 0.197422 0)
(4.99308 0.18586 0)
(4.97923 0.17234 0)
(4.97482 0.153857 0)
(4.98607 0.132702 0)
(5.00448 0.114331 0)
(5.01844 0.103755 0)
(5.02279 0.103474 0)
(5.01912 0.11249 0)
(5.01209 0.127563 0)
(5.00659 0.144088 0)
(5.00499 0.158571 0)
(5.00894 0.168491 0)
(5.01642 0.17367 0)
(4.88732 0.307558 0)
(4.92336 0.293906 0)
(4.95712 0.261362 0)
(4.97476 0.21718 0)
(4.98584 0.19104 0)
(4.99761 0.175123 0)
(5.00806 0.155029 0)
(5.0168 0.130292 0)
(5.02305 0.110599 0)
(5.02482 0.103898 0)
(5.02167 0.110214 0)
(5.01551 0.123489 0)
(5.00952 0.136284 0)
(5.00625 0.144017 0)
(5.00752 0.145995 0)
(5.01276 0.14418 0)
(5.02188 0.140794 0)
(5.03201 0.138756 0)
(5.0348 0.282084 0)
(5.01386 0.232101 0)
(5.0263 0.200767 0)
(5.04496 0.178915 0)
(5.05566 0.166826 0)
(5.05541 0.162455 0)
(5.05163 0.157288 0)
(5.04943 0.146515 0)
(5.0491 0.132434 0)
(5.05012 0.120637 0)
(5.0534 0.115053 0)
(5.05953 0.116094 0)
(5.06851 0.121343 0)
(5.07905 0.127609 0)
(5.09066 0.132897 0)
(5.10189 0.136702 0)
(5.11326 0.139326 0)
(5.12324 0.142018 0)
(5.08987 0.331992 0)
(5.0834 0.266257 0)
(5.10038 0.222175 0)
(5.09975 0.19662 0)
(5.08356 0.189311 0)
(5.07173 0.18003 0)
(5.06387 0.155793 0)
(5.05896 0.123829 0)
(5.05812 0.0983048 0)
(5.0607 0.0864803 0)
(5.06549 0.0862248 0)
(5.07143 0.0907937 0)
(5.07807 0.0943669 0)
(5.08502 0.0942878 0)
(5.09271 0.0904424 0)
(5.10155 0.0852543 0)
(5.11202 0.0800401 0)
(5.12435 0.0778028 0)
(5.02813 0.221001 0)
(5.00174 0.209711 0)
(5.02123 0.204487 0)
(5.04312 0.192395 0)
(5.07072 0.191184 0)
(5.09069 0.194086 0)
(5.09774 0.18595 0)
(5.09582 0.163558 0)
(5.09021 0.135601 0)
(5.08484 0.112652 0)
(5.08284 0.0999938 0)
(5.08587 0.0968288 0)
(5.09382 0.0986998 0)
(5.10549 0.101079 0)
(5.11991 0.100293 0)
(5.1358 0.0958256 0)
(5.15264 0.0878089 0)
(5.16866 0.0788282 0)
(4.98682 0.318694 0)
(4.97568 0.264919 0)
(4.96759 0.189487 0)
(4.97063 0.151939 0)
(5.00402 0.143946 0)
(5.04819 0.146463 0)
(5.08286 0.144347 0)
(5.10533 0.13141 0)
(5.12182 0.11151 0)
(5.13724 0.0919963 0)
(5.15375 0.0767907 0)
(5.17154 0.0653377 0)
(5.18891 0.0548765 0)
(5.2034 0.0434801 0)
(5.21373 0.0312145 0)
(5.22013 0.0201239 0)
(5.22427 0.0120043 0)
(5.22721 0.00903681 0)
(4.97704 0.24802 0)
(4.98375 0.203782 0)
(5.00759 0.183235 0)
(5.02259 0.13593 0)
(5.05099 0.110452 0)
(5.08913 0.115519 0)
(5.12456 0.127828 0)
(5.15203 0.126801 0)
(5.1737 0.108518 0)
(5.19197 0.0828426 0)
(5.20853 0.0624297 0)
(5.22499 0.0542504 0)
(5.24171 0.0573177 0)
(5.2573 0.066033 0)
(5.27062 0.0737193 0)
(5.28077 0.0763638 0)
(5.28867 0.0724827 0)
(5.29429 0.0632262 0)
(5.0453 0.294519 0)
(4.99343 0.232303 0)
(5.01828 0.176592 0)
(5.02666 0.121702 0)
(5.04027 0.0822547 0)
(5.07443 0.0667377 0)
(5.12764 0.0652348 0)
(5.18697 0.064196 0)
(5.23777 0.0562849 0)
(5.27035 0.0425722 0)
(5.28423 0.0279523 0)
(5.28643 0.0160798 0)
(5.28583 0.00777339 0)
(5.28793 0.00222728 0)
(5.29524 -0.0015958 0)
(5.30675 -0.0040636 0)
(5.32161 -0.00556958 0)
(5.33662 -0.00557216 0)
(5.10106 0.267297 0)
(5.04002 0.207918 0)
(5.07635 0.150973 0)
(5.10968 0.120886 0)
(5.14358 0.0865041 0)
(5.17502 0.0544227 0)
(5.2008 0.0364505 0)
(5.22371 0.0334438 0)
(5.24698 0.038715 0)
(5.27109 0.0457769 0)
(5.29479 0.0513447 0)
(5.31725 0.0549191 0)
(5.33859 0.0557536 0)
(5.35868 0.0533496 0)
(5.37777 0.0475764 0)
(5.39527 0.0389919 0)
(5.41154 0.028558 0)
(5.42625 0.0181912 0)
(5.01994 0.298475 0)
(5.0307 0.231529 0)
(5.07077 0.13603 0)
(5.12605 0.0680632 0)
(5.17312 0.0300024 0)
(5.20081 0.0147288 0)
(5.21331 0.012725 0)
(5.22316 0.0126785 0)
(5.23912 0.00741011 0)
(5.26267 -0.00322048 0)
(5.29155 -0.0145944 0)
(5.32254 -0.023782 0)
(5.35302 -0.0296888 0)
(5.38167 -0.0330691 0)
(5.40806 -0.0350809 0)
(5.43205 -0.0365786 0)
(5.45411 -0.0378608 0)
(5.47375 -0.0384149 0)
(4.79443 0.173282 0)
(4.92209 0.175141 0)
(5.08586 0.127314 0)
(5.18335 0.0810776 0)
(5.23183 0.0494084 0)
(5.26273 0.0319201 0)
(5.29137 0.0245059 0)
(5.3194 0.0199363 0)
(5.34591 0.0136615 0)
(5.37099 0.0068096 0)
(5.39348 0.00254925 0)
(5.41161 0.000819794 0)
(5.42503 0.000155297 0)
(5.43414 -0.00127998 0)
(5.44016 -0.00491 0)
(5.44466 -0.0101502 0)
(5.44915 -0.0165517 0)
(5.45465 -0.0223547 0)
(4.92145 0.128829 0)
(5.042 0.0400899 0)
(5.16408 0.0158481 0)
(5.2251 -0.00155907 0)
(5.24801 -0.0186356 0)
(5.27059 -0.0258803 0)
(5.30249 -0.0241484 0)
(5.33771 -0.0217109 0)
(5.37248 -0.0254273 0)
(5.40664 -0.0340215 0)
(5.43814 -0.0422394 0)
(5.46337 -0.0460215 0)
(5.48063 -0.0458091 0)
(5.49074 -0.044081 0)
(5.49691 -0.0433312 0)
(5.50238 -0.0444212 0)
(5.50993 -0.0472929 0)
(5.52002 -0.0505858 0)
(4.91567 0.126682 0)
(5.12106 0.080665 0)
(5.25627 0.0786057 0)
(5.31163 0.0508809 0)
(5.34452 0.0171491 0)
(5.38044 -0.00247477 0)
(5.42125 -0.0100647 0)
(5.46261 -0.0152322 0)
(5.5016 -0.0224483 0)
(5.53755 -0.029298 0)
(5.56847 -0.0310065 0)
(5.59184 -0.0262176 0)
(5.60704 -0.0185435 0)
(5.61555 -0.0133636 0)
(5.61969 -0.0140873 0)
(5.6218 -0.0203771 0)
(5.62362 -0.0304388 0)
(5.62562 -0.0402615 0)
(4.97651 -0.0190199 0)
(5.17577 -0.0749427 0)
(5.32768 -0.0258794 0)
(5.40937 -0.0352361 0)
(5.44365 -0.0556966 0)
(5.45815 -0.0638284 0)
(5.46732 -0.0620145 0)
(5.47453 -0.0606723 0)
(5.47979 -0.0640519 0)
(5.48351 -0.0693584 0)
(5.48595 -0.0713222 0)
(5.48799 -0.0673041 0)
(5.49012 -0.0591344 0)
(5.4926 -0.0509489 0)
(5.49347 -0.0460557 0)
(5.4918 -0.0454652 0)
(5.48535 -0.0487467 0)
(5.47509 -0.0539582 0)
(4.97277 0.0413645 0)
(5.02657 0.00557916 0)
(5.02586 0.0115601 0)
(4.95764 -0.000994428 0)
(4.84877 -0.00988912 0)
(4.72724 -0.0136199 0)
(4.61319 -0.0156893 0)
(4.50377 -0.0201027 0)
(4.38576 -0.0272155 0)
(4.25448 -0.0332246 0)
(4.11871 -0.034082 0)
(3.99378 -0.0294332 0)
(3.89012 -0.0225565 0)
(3.80868 -0.0175337 0)
(3.74072 -0.0164261 0)
(3.67769 -0.0188354 0)
(3.61025 -0.0228215 0)
(3.53835 -0.0254887 0)
(0.0128662 -0.0380726 4.1091e-21)
(0.0864521 -0.0927747 -4.07848e-21)
(0.188071 -0.113386 0)
(0.292119 -0.118832 0)
(0.397391 -0.11933 0)
(0.504048 -0.118919 3.93037e-21)
(0.612334 -0.118794 0)
(0.722621 -0.11903 0)
(0.835128 -0.119288 0)
(0.94967 -0.119096 0)
(1.06554 -0.117884 -3.69201e-21)
(1.1813 -0.115059 0)
(1.29492 -0.109936 0)
(1.40343 -0.101957 0)
(1.50366 -0.0904207 0)
(1.59075 -0.0749696 -3.40441e-21)
(1.66095 -0.0553243 0)
(1.70755 -0.0314747 0)
(1.72874 -0.00387716 0)
(1.71659 0.0278062 0)
(1.66809 0.0624617 0)
(1.5821 0.0985037 0)
(1.45944 0.136923 0)
(1.30301 0.170576 -3.14976e-21)
(1.12562 0.194567 3.1442e-21)
(0.958373 0.222724 -3.13835e-21)
(0.8369 0.216365 -3.13151e-21)
(0.776334 0.0809339 0)
(0.753497 -0.182978 0)
(0.726707 -0.377606 3.09122e-21)
(0.670628 -0.321694 3.05605e-21)
(0.507832 -0.0296165 0)
(0.160704 0.262127 0)
(-0.281343 0.381655 2.99091e-21)
(-0.738138 0.415891 0)
(-1.19351 0.421421 0)
(-1.63341 0.408373 -2.81444e-21)
(-2.04871 0.384155 0)
(-2.43459 0.353774 -2.62893e-21)
(-2.78849 0.320441 -5.05246e-21)
(-3.10939 0.28625 0)
(-3.39723 0.252599 0)
(-3.6525 0.220261 0)
(-3.87592 0.189591 0)
(-4.06827 0.160606 0)
(-4.23035 0.133223 -3.90819e-21)
(-4.36287 0.107323 -3.76772e-21)
(-4.46664 0.0828519 -3.64805e-21)
(-4.5425 0.0598849 0)
(-4.59138 0.0386424 3.47504e-21)
(-4.61427 0.0193783 0)
(-4.61242 0.00225517 -3.39091e-21)
(-4.58978 -0.0126552 -3.38004e-21)
(-4.54706 -0.0256236 0)
(-4.48721 -0.0367762 0)
(-4.41195 -0.0461272 0)
(-4.32419 -0.0536541 -3.49747e-21)
(-4.22607 -0.0593881 0)
(-4.12033 -0.0633803 0)
(-4.00916 -0.0657763 0)
(-3.89487 -0.0667528 0)
(-3.77929 -0.0665771 0)
(-3.66396 -0.0655593 0)
(-3.54982 -0.0640843 0)
(-3.43723 -0.062572 0)
(-3.3258 -0.0614814 4.06608e-21)
(-3.2144 -0.0612661 0)
(-3.10108 -0.0623379 0)
(-2.98324 -0.0649925 -4.23808e-21)
(-2.85792 -0.0693152 -4.29613e-21)
(-2.72229 -0.0750855 0)
(-2.57421 -0.0817664 4.41584e-21)
(-2.4127 -0.0885929 -4.47636e-21)
(-2.23826 -0.0947003 0)
(-2.05292 -0.0993226 4.59148e-21)
(-1.85979 -0.102009 0)
(-1.6624 -0.102681 0)
(-1.46406 -0.10153 -4.7243e-21)
(-1.26748 -0.0988687 0)
(-1.07484 -0.0950511 4.77522e-21)
(-0.887957 -0.0904342 0)
(-0.708196 -0.0852828 -4.79467e-21)
(-0.536453 -0.0798281 -4.79328e-21)
(-0.373235 -0.0742389 -4.78512e-21)
(-0.218768 -0.0686092 -9.54155e-21)
(-0.0733597 -0.0630187 9.50169e-21)
(0.0623042 -0.0580141 0)
(0.189098 -0.0528256 0)
(0.307884 -0.047878 0)
(0.418434 -0.0431641 9.24183e-21)
(0.521 -0.038688 9.16119e-21)
(0.615862 -0.0344534 -9.07647e-21)
(0.703323 -0.0304624 0)
(0.783703 -0.0267163 8.8979e-21)
(0.857334 -0.0232157 8.80539e-21)
(0.924561 -0.0199614 8.71147e-21)
(0.98574 -0.0169535 0)
(1.04124 -0.014191 0)
(1.09143 -0.0116712 0)
(1.13668 -0.00938868 8.32977e-21)
(1.17739 -0.00733522 0)
(1.21393 -0.00549929 0)
(1.24665 -0.00386625 -8.04494e-21)
(1.2759 -0.0024187 0)
(1.302 -0.00113807 0)
(1.32524 -4.86555e-06 -7.76613e-21)
(1.34587 0.000999622 0)
(1.36413 0.00189081 0)
(1.38019 0.00268318 7.49504e-21)
(1.39421 0.0033868 7.40647e-21)
(1.40635 0.00400514 0)
(1.41671 0.00454645 -7.232e-21)
(1.42541 0.00500977 0)
(1.43256 0.00538727 7.06095e-21)
(1.43827 0.00569568 0)
(1.44263 0.00592611 6.89317e-21)
(1.44579 0.00606216 6.81045e-21)
(1.44784 0.00615181 0)
(1.44881 0.00621456 0)
(1.44889 0.00621521 0)
(1.44817 0.00614324 0)
(1.44678 0.0060083 0)
(1.44486 0.0058201 0)
(1.44253 0.00558919 0)
(1.43989 0.00532816 6.1745e-21)
(1.43703 0.00504801 -6.09801e-21)
(1.43401 0.00475673 0)
(1.43089 0.00446201 0)
(1.42772 0.00417381 0)
(1.42453 0.0039013 0)
(1.42133 0.00364434 -1.14492e-20)
(1.41815 0.0033931 0)
(1.41502 0.00314243 1.11585e-20)
(1.41193 0.00289653 -1.10147e-20)
(1.40888 0.00267149 0)
(1.40587 0.00246986 0)
(1.40289 0.0022884 0)
(1.39994 0.00212538 1.04498e-20)
(1.39702 0.00197939 1.0311e-20)
(1.39413 0.00184811 0)
(1.39129 0.00172766 1.00364e-20)
(1.38847 0.00161543 9.90043e-21)
(1.38571 0.00150992 -9.7654e-21)
(1.38299 0.00141133 0)
(1.38032 0.00132079 0)
(1.37771 0.00124052 -9.36571e-21)
(1.37514 0.001172 0)
(1.37261 0.00111549 0)
(1.37011 0.00107002 0)
(1.36763 0.0010338 0)
(1.36516 0.00100482 8.71675e-21)
(1.36269 0.000981262 8.58943e-21)
(1.36021 0.000961732 0)
(1.35772 0.000945334 8.3372e-21)
(1.35521 0.000931736 0)
(1.35267 0.000921068 0)
(1.3501 0.00091394 7.96477e-21)
(1.34748 0.000911122 0)
(1.3448 0.000913758 7.72035e-21)
(1.34205 0.000922824 0)
(1.33918 0.000940051 0)
(1.33622 0.000966548 7.35947e-21)
(1.33306 0.00100567 0)
(1.32979 0.00105758 7.12273e-21)
(1.32616 0.00112984 0)
(1.32241 0.00121923 0)
(1.31802 0.00134566 0)
(1.31351 0.00149292 -6.65886e-21)
(1.30785 0.00171692 0)
(1.30212 0.00195333 6.43218e-21)
(1.29434 0.00236913 0)
(1.28646 0.00273163 0)
(1.27521 0.00355773 0)
(1.26295 0.00406512 0)
(1.24654 0.00591608 0)
(1.22356 0.0063768 0)
(1.20181 0.0112367 0)
(1.14737 0.0106135 -1.11627e-20)
(1.13186 0.0255654 0)
(0.969918 0.0186546 0)
(0.0273532 -0.170297 -1.23256e-20)
(0.101373 -0.292629 1.22309e-20)
(0.178956 -0.32145 0)
(0.255613 -0.325189 -8.0128e-21)
(0.334133 -0.325481 0)
(0.416066 -0.32769 -3.9305e-21)
(0.5022 -0.332125 7.77182e-21)
(0.592626 -0.337729 7.68167e-21)
(0.687112 -0.343087 0)
(0.785179 -0.346597 7.48421e-21)
(0.885983 -0.346631 3.69298e-21)
(0.988337 -0.341376 0)
(1.09003 -0.328823 0)
(1.18882 -0.307059 0)
(1.28072 -0.273816 0)
(1.36302 -0.227523 3.40606e-21)
(1.42943 -0.167138 0)
(1.47838 -0.0929516 -6.54947e-21)
(1.50222 -0.00771936 0)
(1.50536 0.0854915 0)
(1.48666 0.181946 6.31269e-21)
(1.44389 0.273558 0)
(1.37728 0.351897 -6.2484e-21)
(1.28868 0.404026 3.1488e-21)
(1.18158 0.396193 -3.14267e-21)
(1.05698 0.284496 3.13674e-21)
(0.889526 0.109376 3.1307e-21)
(0.647231 0.0634886 0)
(0.274225 0.264415 0)
(-0.276027 0.538795 -3.0941e-21)
(-0.846808 0.750676 3.02081e-21)
(-1.32536 0.912827 0)
(-1.73832 1.01389 0)
(-2.10774 1.04396 -2.97539e-21)
(-2.44543 1.02974 0)
(-2.75572 0.985767 0)
(-3.04121 0.924314 2.80299e-21)
(-3.3028 0.852897 0)
(-3.54175 0.777318 -2.46364e-21)
(-3.759 0.701029 5.03834e-21)
(-3.95539 0.626141 0)
(-4.13149 0.553647 0)
(-4.28781 0.48383 8.62006e-21)
(-4.42492 0.416612 8.25892e-21)
(-4.54309 0.35184 7.92288e-21)
(-4.64227 0.289278 -3.71397e-21)
(-4.72221 0.228758 3.76422e-21)
(-4.78263 0.170268 1.07657e-20)
(-4.82331 0.114069 -6.93569e-21)
(-4.84428 0.0606662 -3.4732e-21)
(-4.84588 0.0107198 0)
(-4.82853 -0.0351703 3.38941e-21)
(-4.79101 -0.0767968 -3.26294e-21)
(-4.73572 -0.113798 0)
(-4.66356 -0.145933 0)
(-4.57715 -0.172924 0)
(-4.47837 -0.194635 3.49586e-21)
(-4.37003 -0.21108 0)
(-4.25442 -0.222461 -7.18242e-21)
(-4.13416 -0.229179 0)
(-4.01137 -0.231808 -7.465e-21)
(-3.8881 -0.231114 0)
(-3.76582 -0.228037 7.74089e-21)
(-3.64556 -0.223693 0)
(-3.52763 -0.219343 -7.99443e-21)
(-3.41162 -0.216337 4.04734e-21)
(-3.29629 -0.21603 0)
(-3.17951 -0.21963 8.33537e-21)
(-3.05833 -0.228005 4.23676e-21)
(-2.92928 -0.241413 4.29476e-21)
(-2.78895 -0.259254 0)
(-2.63469 -0.279998 4.37727e-21)
(-2.46527 -0.301306 4.4748e-21)
(-2.2813 -0.320396 0)
(-2.08534 -0.334809 -4.58988e-21)
(-1.88127 -0.343146 9.25196e-21)
(-1.67329 -0.345277 0)
(-1.46505 -0.341911 4.72288e-21)
(-1.2593 -0.334087 0)
(-1.05816 -0.32288 -1.43047e-20)
(-0.863277 -0.309373 0)
(-0.675804 -0.294357 1.43691e-20)
(-0.496436 -0.278513 4.7925e-21)
(-0.325499 -0.262268 -4.77615e-21)
(-0.163062 -0.245963 -9.52663e-21)
(-0.0098996 -0.229945 9.488e-21)
(0.134257 -0.214856 0)
(0.270536 -0.199827 0)
(0.399023 -0.185385 0)
(0.519943 -0.171573 -2.77103e-20)
(0.633572 -0.158414 -9.1586e-21)
(0.740207 -0.145924 9.07386e-21)
(0.840151 -0.134106 0)
(0.933708 -0.12296 8.88974e-21)
(1.02118 -0.112483 -8.80267e-21)
(1.10287 -0.10267 -8.70868e-21)
(1.1791 -0.0935175 0)
(1.25017 -0.0850191 0)
(1.31642 -0.0771679 0)
(1.37818 -0.069953 -8.32668e-21)
(1.43581 -0.0633578 0)
(1.48964 -0.0573585 1.62689e-20)
(1.54001 -0.0519236 2.41216e-20)
(1.58727 -0.0470132 -1.58926e-20)
(1.6317 -0.0425812 0)
(1.67361 -0.0385764 -7.75989e-21)
(1.71324 -0.0349448 0)
(1.75082 -0.0316342 -1.5159e-20)
(1.78652 -0.0285956 7.48901e-21)
(1.8205 -0.0257858 7.4005e-21)
(1.85287 -0.0231725 0)
(1.88371 -0.0207289 2.16816e-20)
(1.9131 -0.0184377 -1.42819e-20)
(1.94109 -0.0162949 -7.05648e-21)
(1.9677 -0.0142886 0)
(1.99299 -0.0124215 -6.88853e-21)
(2.01696 -0.0107049 -2.04162e-20)
(2.03965 -0.00910945 0)
(2.06118 -0.00763285 -1.3284e-20)
(2.08156 -0.00631268 -1.31229e-20)
(2.10082 -0.00515772 -1.29633e-20)
(2.11899 -0.00415786 0)
(2.1361 -0.00330322 0)
(2.15219 -0.00258216 0)
(2.1673 -0.00197679 6.16901e-21)
(2.18146 -0.00146959 6.09289e-21)
(2.19471 -0.0010494 0)
(2.20709 -0.000703466 1.18833e-20)
(2.21864 -0.000413398 1.1734e-20)
(2.22938 -0.000169276 0)
(2.23936 2.68375e-05 1.14391e-20)
(2.24862 0.000183016 2.25862e-20)
(2.25716 0.000322929 -1.11484e-20)
(2.265 0.000466569 -1.10045e-20)
(2.27217 0.00060299 0)
(2.27872 0.000720922 0)
(2.28466 0.000820366 0)
(2.29003 0.000902487 -1.04402e-20)
(2.29487 0.000967541 1.03015e-20)
(2.29921 0.0010155 2.03277e-20)
(2.30309 0.00105009 -1.00272e-20)
(2.30653 0.00107362 9.89129e-21)
(2.30957 0.00108363 9.75647e-21)
(2.31224 0.00108349 0)
(2.31456 0.0010756 0)
(2.31657 0.00106317 -9.35718e-21)
(2.3183 0.00104871 0)
(2.31976 0.00103472 0)
(2.32099 0.00102287 1.79315e-20)
(2.322 0.00101372 0)
(2.32281 0.00100723 8.70896e-21)
(2.32344 0.0010035 -8.58183e-21)
(2.3239 0.00100309 0)
(2.32421 0.00100706 8.32986e-21)
(2.32438 0.00101668 0)
(2.32442 0.00103318 0)
(2.32433 0.00105766 -7.95791e-21)
(2.32411 0.00109097 1.56709e-20)
(2.32374 0.0011345 -7.71378e-21)
(2.32324 0.00118908 0)
(2.32258 0.00125832 0)
(2.32176 0.00134265 7.3532e-21)
(2.32073 0.00145176 0)
(2.31954 0.00158227 7.11667e-21)
(2.31806 0.00175983 0)
(2.31639 0.0019631 0)
(2.31429 0.00226219 0)
(2.31196 0.00257544 6.65349e-21)
(2.30896 0.00310162 0)
(2.3056 0.0035717 -6.42705e-21)
(2.30122 0.00455179 0)
(2.29608 0.00521489 0)
(2.28967 0.00717765 1.21894e-20)
(2.28095 0.00798895 -1.19732e-20)
(2.27187 0.0122634 0)
(2.25492 0.012908 0)
(2.24383 0.0230831 0)
(2.20534 0.0226684 3.34451e-20)
(2.19901 0.0489843 0)
(2.10062 0.0461909 -2.15183e-20)
(0.0298258 -0.309149 -8.02593e-24)
(0.0751931 -0.42305 -1.63122e-20)
(0.11651 -0.435872 0)
(0.157921 -0.441295 1.60337e-20)
(0.203208 -0.451269 0)
(0.252584 -0.464935 0)
(0.306287 -0.480444 6.16756e-24)
(0.363913 -0.496194 -7.68524e-21)
(0.425252 -0.510583 -7.59543e-21)
(0.489652 -0.521643 -7.48897e-21)
(0.556446 -0.527049 0)
(0.624659 -0.524182 0)
(0.692628 -0.510131 7.14617e-21)
(0.758109 -0.481734 1.40379e-20)
(0.818161 -0.435973 -1.37773e-20)
(0.870172 -0.369677 0)
(0.908738 -0.281812 -1.32654e-20)
(0.931246 -0.175905 6.55899e-21)
(0.93149 -0.0601065 0)
(0.904696 0.0577071 -1.2654e-20)
(0.850007 0.176109 -6.32276e-21)
(0.765916 0.295272 1.2432e-20)
(0.64402 0.409689 6.25915e-21)
(0.478023 0.51185 0)
(0.254461 0.611718 -1.23884e-20)
(-0.0531253 0.741828 -1.23981e-20)
(-0.467482 0.918186 0)
(-0.927377 1.10714 -1.22715e-20)
(-1.35996 1.26458 0)
(-1.75459 1.36649 -1.20307e-20)
(-2.09215 1.43367 -6.05047e-21)
(-2.37683 1.48111 0)
(-2.61939 1.49779 0)
(-2.82785 1.47502 0)
(-3.01538 1.42246 0)
(-3.19084 1.3476 0)
(-3.36108 1.25995 0)
(-3.52887 1.16521 -1.01259e-20)
(-3.69478 1.06788 1.48565e-20)
(-3.85747 0.970479 0)
(-4.01493 0.87439 0)
(-4.16483 0.780107 0)
(-4.30483 0.687576 -3.05437e-22)
(-4.43265 0.596564 -8.25649e-21)
(-4.54621 0.506916 -1.55631e-20)
(-4.64377 0.418485 1.49641e-20)
(-4.72372 0.331298 7.08825e-21)
(-4.78464 0.24557 -7.11966e-21)
(-4.82533 0.161732 2.41795e-22)
(-4.8451 0.0804124 -6.56448e-21)
(-4.84386 0.00244997 0)
(-4.82233 -0.0711693 -6.44376e-21)
(-4.78125 -0.139403 1.92332e-22)
(-4.72173 -0.200852 0)
(-4.6454 -0.254364 0)
(-4.55424 -0.299131 6.67816e-21)
(-4.45058 -0.33474 0)
(-4.33697 -0.361169 0)
(-4.2161 -0.378783 -7.02419e-21)
(-4.09069 -0.388294 -1.45182e-20)
(-3.96335 -0.390751 7.4638e-21)
(-3.83647 -0.387492 0)
(-3.71204 -0.38016 -7.7398e-21)
(-3.59143 -0.370681 0)
(-3.47524 -0.36124 -7.94442e-21)
(-3.36312 -0.354197 -8.11105e-21)
(-3.2537 -0.351973 1.63861e-20)
(-3.14441 -0.356805 8.25874e-21)
(-3.03152 -0.370396 0)
(-2.91039 -0.393456 -1.70036e-20)
(-2.77628 -0.42517 0)
(-2.62521 -0.462762 -2.62391e-20)
(-2.45494 -0.501667 -1.76898e-20)
(-2.26605 -0.53638 -1.79335e-20)
(-2.06227 -0.561963 1.8171e-20)
(-1.84943 -0.575838 -2.76408e-20)
(-1.63349 -0.578227 0)
(-1.41907 -0.570946 0)
(-1.20917 -0.556198 1.8892e-20)
(-1.00588 -0.535985 2.85239e-20)
(-0.810537 -0.51229 0)
(-0.623943 -0.486385 -9.57322e-21)
(-0.446526 -0.45937 0)
(-0.278367 -0.432014 2.86475e-20)
(-0.119501 -0.404827 2.40179e-23)
(0.0294407 -0.378824 -2.10212e-23)
(0.169116 -0.35347 -1.88602e-20)
(0.300674 -0.329074 0)
(0.424102 -0.305751 1.86028e-20)
(0.539822 -0.28356 1.30603e-23)
(0.648279 -0.262513 0)
(0.749934 -0.242593 0)
(0.845247 -0.223777 0)
(0.934657 -0.206044 -1.77826e-20)
(1.01856 -0.189378 0)
(1.0973 -0.173771 0)
(1.17119 -0.159219 0)
(1.24051 -0.145722 0)
(1.30552 -0.133275 0)
(1.36649 -0.121866 -1.66419e-20)
(1.42372 -0.111476 0)
(1.47751 -0.102069 -1.6268e-20)
(1.52816 -0.0935966 -1.60792e-20)
(1.57601 -0.0859967 1.58918e-20)
(1.62134 -0.0791943 0)
(1.66446 -0.0731051 1.55217e-20)
(1.70561 -0.0676395 0)
(1.74503 -0.0627087 1.51584e-20)
(1.7829 -0.0582268 -1.49794e-20)
(1.81936 -0.0541176 -4.44001e-20)
(1.85455 -0.0503178 0)
(1.88852 -0.0467741 -4.33539e-20)
(1.92136 -0.043451 -1.42761e-20)
(1.95309 -0.0403238 0)
(1.98374 -0.0373746 -2.78802e-20)
(2.01332 -0.0345981 -2.75464e-20)
(2.04185 -0.0319894 4.08253e-20)
(2.06935 -0.0295445 0)
(2.09581 -0.0272715 1.3283e-20)
(2.12125 -0.0251775 1.3122e-20)
(2.1457 -0.0232567 3.88846e-20)
(2.16916 -0.0214939 0)
(2.19165 -0.0198771 0)
(2.21319 -0.018396 0)
(2.23379 -0.0170365 1.23359e-20)
(2.25346 -0.0157831 0)
(2.27223 -0.0146245 0)
(2.29011 -0.0135497 -1.1882e-20)
(2.30711 -0.0125435 -1.17327e-20)
(2.32326 -0.0115962 0)
(2.33857 -0.0107073 0)
(2.35305 -0.00987316 -2.25834e-20)
(2.36672 -0.00907964 0)
(2.37962 -0.00830952 2.20064e-20)
(2.39178 -0.00757046 2.17207e-20)
(2.4032 -0.00687152 0)
(2.41392 -0.00621397 0)
(2.42394 -0.00559896 -2.0877e-20)
(2.43329 -0.00502575 -2.21062e-25)
(2.442 -0.00449128 -1.91268e-25)
(2.45007 -0.0039975 0)
(2.45754 -0.00354902 -3.95589e-20)
(2.46441 -0.00314093 0)
(2.47072 -0.00277268 0)
(2.47651 -0.00244321 0)
(2.4818 -0.00214473 1.87112e-20)
(2.48662 -0.00187345 0)
(2.491 -0.00162542 -3.63751e-20)
(2.49497 -0.00139715 -1.79283e-20)
(2.49857 -0.00118653 0)
(2.50183 -0.000992686 -1.74148e-20)
(2.50476 -0.000815387 0)
(2.50738 -0.000654052 0)
(2.50974 -0.000506857 -4.997e-20)
(2.51184 -0.000370225 3.28142e-20)
(2.5137 -0.000239401 0)
(2.51535 -0.000108769 3.18255e-20)
(2.51679 2.62092e-05 -1.5668e-20)
(2.51804 0.000170633 0)
(2.5191 0.000326373 0)
(2.51997 0.000499823 0)
(2.52066 0.000689716 -4.4111e-20)
(2.52117 0.000911176 0)
(2.52148 0.00115591 -1.42309e-20)
(2.5216 0.00146319 0)
(2.52147 0.00179859 0)
(2.52114 0.00226436 0)
(2.52046 0.00274426 0)
(2.51955 0.00351019 0)
(2.51806 0.00420826 0)
(2.51638 0.0055676 -2.52524e-20)
(2.51359 0.00657129 0)
(2.51088 0.00917561 -1.21871e-20)
(2.50575 0.0105577 3.5907e-20)
(2.50172 0.0159404 0)
(2.49211 0.0177477 0)
(2.48686 0.0297143 -2.26726e-20)
(2.46835 0.0322821 -2.22863e-20)
(2.46363 0.0604869 2.18663e-20)
(2.42966 0.0670782 2.15123e-20)
(0.0181203 -0.389678 2.47119e-20)
(0.0305902 -0.475222 2.45224e-20)
(0.0414516 -0.486554 1.6228e-20)
(0.0523745 -0.49802 8.06563e-21)
(0.0655051 -0.513309 0)
(0.0795832 -0.531339 -1.57843e-20)
(0.0947835 -0.55093 7.83439e-21)
(0.110403 -0.570553 0)
(0.126142 -0.58859 7.60137e-21)
(0.140985 -0.602487 0)
(0.153805 -0.608897 -1.48464e-20)
(0.163139 -0.604205 0)
(0.166875 -0.584638 -7.15644e-21)
(0.162497 -0.546239 -1.4061e-20)
(0.147741 -0.484441 1.3803e-20)
(0.119962 -0.394737 0)
(0.0767506 -0.27502 1.32967e-20)
(0.013227 -0.125003 0)
(-0.0787296 0.0508667 0)
(-0.191755 0.242273 1.26751e-20)
(-0.331395 0.445598 0)
(-0.501503 0.655821 2.32138e-23)
(-0.703869 0.867264 0)
(-0.936743 1.07283 0)
(-1.19573 1.26525 8.37375e-23)
(-1.47124 1.43618 1.23469e-20)
(-1.74882 1.57355 1.21495e-20)
(-2.00776 1.67656 1.22274e-20)
(-2.23445 1.74492 0)
(-2.42852 1.78213 2.37762e-20)
(-2.59462 1.79548 0)
(-2.74221 1.788 1.13976e-20)
(-2.87886 1.7619 0)
(-3.01314 1.71764 0)
(-3.15095 1.65869 -1.06655e-20)
(-3.29438 1.5868 0)
(-3.44262 1.50429 1.0059e-20)
(-3.59277 1.41266 3.94896e-22)
(-3.74139 1.31369 -1.915e-20)
(-3.88535 1.20914 1.80419e-20)
(-4.0223 1.10066 0)
(-4.15068 0.989613 0)
(-4.26933 0.877042 7.58694e-21)
(-4.37715 0.763707 0)
(-4.47301 0.649995 7.64156e-21)
(-4.55567 0.536019 -7.34761e-21)
(-4.62369 0.421996 -7.08851e-21)
(-4.67561 0.308286 0)
(-4.71014 0.195453 6.69428e-21)
(-4.72629 0.084406 6.56584e-21)
(-4.7235 -0.0235682 -1.23648e-20)
(-4.70212 -0.126546 6.44492e-21)
(-4.6625 -0.221704 6.44943e-21)
(-4.60539 -0.307237 0)
(-4.53235 -0.381571 0)
(-4.44534 -0.443695 -6.67829e-21)
(-4.34652 -0.492979 0)
(-4.23815 -0.529259 0)
(-4.12245 -0.552828 1.42045e-20)
(-4.00172 -0.564465 1.4517e-20)
(-3.8783 -0.565472 0)
(-3.75468 -0.557678 0)
(-3.6333 -0.543474 0)
(-3.51628 -0.525789 0)
(-3.40506 -0.507989 1.59364e-20)
(-3.29998 -0.493744 -1.6108e-20)
(-3.19995 -0.486912 -1.63844e-20)
(-3.10221 -0.491253 -3.30864e-20)
(-3.00226 -0.509793 0)
(-2.89408 -0.544088 1.48652e-22)
(-2.77073 -0.593225 0)
(-2.6259 -0.652924 1.74449e-20)
(-2.45565 -0.715495 1.95419e-22)
(-2.26005 -0.771216 1.79272e-20)
(-2.04423 -0.811009 -1.81645e-20)
(-1.81702 -0.830512 1.62348e-22)
(-1.58724 -0.831204 0)
(-1.36112 -0.817218 -1.86248e-20)
(-1.14223 -0.792757 -1.88872e-20)
(-0.932693 -0.761122 -3.78929e-20)
(-0.733428 -0.725375 0)
(-0.544581 -0.687092 1.90407e-20)
(-0.366144 -0.647707 0)
(-0.197783 -0.608147 -3.81319e-20)
(-0.0397162 -0.569224 1.90362e-20)
(0.108281 -0.531945 -1.89569e-20)
(0.247137 -0.49563 1.88536e-20)
(0.377186 -0.460913 3.74207e-20)
(0.498532 -0.427949 -1.85971e-20)