/*--------------------------------*- C++ -*----------------------------------*\
  =========                 |
  \\      /  F ield         | OpenFOAM: The Open Source CFD Toolbox
   \\    /   O peration     | Website:  https://openfoam.org
    \\  /    A nd           | Version:  7
     \\/     M anipulation  |
\*---------------------------------------------------------------------------*/
FoamFile
{
    version     2.0;
    format      ascii;
    class       volSymmTensorField;
    location    "0.039";
    object      UPrime2Mean;
}
// * * * * * * * * * * * * * * * * * * * * * * * * * * * * * * * * * * * * * //

dimensions      [0 2 -2 0 0 0 0];

internalField   nonuniform List<symmTensor> 
12225
(
(0.00499808 -0.000259772 0 0.00053436 0 0)
(0.0495506 -0.00220099 0 0.000312074 0 0)
(0.0728308 -0.00326126 0 0.000318063 0 0)
(0.0974597 -0.00398529 0 0.000309142 0 0)
(0.139175 -0.0049178 0 0.000302938 0 0)
(0.199925 -0.00607189 0 0.000299178 0 0)
(0.278831 -0.00734515 0 0.000307965 0 0)
(0.3748 -0.00814787 0 0.000269389 0 0)
(0.486071 -0.00950155 0 0.000279999 0 0)
(0.611112 -0.0086905 0 0.000199089 0 0)
(0.750977 -0.011686 0 0.00024657 0 0)
(0.896981 -0.00683095 0 0.000135243 0 0)
(1.07243 -0.0181848 0 0.000403314 0 0)
(1.24107 -0.000300706 0 0.000320822 0 0)
(1.50059 -0.0451285 0 0.00218359 0 0)
(1.75705 0.0239334 0 0.00278576 0 0)
(2.28138 -0.178762 0 0.0259372 0 0)
(3.1523 0.0701174 0 0.0129779 0 0)
(0.00473269 -0.00018208 0 0.000597864 0 0)
(0.0332141 -0.00119425 0 0.000257351 0 0)
(0.0366276 -0.0019061 0 0.000392975 0 0)
(0.0377472 -0.00231599 0 0.000560289 0 0)
(0.0446691 -0.00310866 0 0.000753158 0 0)
(0.0566574 -0.00454305 0 0.000991952 0 0)
(0.0743199 -0.00649162 0 0.00121944 0 0)
(0.100068 -0.00913923 0 0.00152167 0 0)
(0.13382 -0.011754 0 0.0016479 0 0)
(0.181572 -0.0157653 0 0.00199111 0 0)
(0.238093 -0.0182467 0 0.00190022 0 0)
(0.318786 -0.0251405 0 0.00247679 0 0)
(0.40442 -0.0263086 0 0.00215607 0 0)
(0.539788 -0.0423958 0 0.0038 0 0)
(0.66853 -0.0416042 0 0.00336678 0 0)
(0.929022 -0.0917525 0 0.0107453 0 0)
(1.14853 -0.110605 0 0.0119082 0 0)
(1.70755 -0.340184 0 0.0857748 0 0)
(0.00443329 -2.30385e-05 0 0.000891785 0 0)
(0.0327728 -0.00180353 0 0.000531533 0 0)
(0.0348103 -0.00262658 0 0.000732653 0 0)
(0.0336832 -0.00282434 0 0.00098543 0 0)
(0.036468 -0.00324148 0 0.00127486 0 0)
(0.0409329 -0.00408165 0 0.00161715 0 0)
(0.0466471 -0.00531427 0 0.00208998 0 0)
(0.0539174 -0.00677844 0 0.00247965 0 0)
(0.0636625 -0.00883121 0 0.00309016 0 0)
(0.0765698 -0.0108594 0 0.00338524 0 0)
(0.094909 -0.0146149 0 0.00420872 0 0)
(0.119014 -0.0174164 0 0.00431877 0 0)
(0.154111 -0.0255615 0 0.00603711 0 0)
(0.200194 -0.0299758 0 0.00604683 0 0)
(0.269851 -0.0527362 0 0.0119284 0 0)
(0.363591 -0.0664388 0 0.0133613 0 0)
(0.500034 -0.144259 0 0.044059 0 0)
(0.673148 -0.245592 0 0.0945296 0 0)
(0.00503482 -0.000497204 0 0.00102061 0 0)
(0.0329255 -0.00216199 0 0.000675833 0 0)
(0.0347298 -0.00283831 0 0.000862738 0 0)
(0.0334766 -0.00305545 0 0.00117307 0 0)
(0.035823 -0.00346319 0 0.00150929 0 0)
(0.0395418 -0.00428209 0 0.00192573 0 0)
(0.0440879 -0.0054334 0 0.00240743 0 0)
(0.0496472 -0.0068964 0 0.00303007 0 0)
(0.0564439 -0.00857532 0 0.00361829 0 0)
(0.0654104 -0.0108842 0 0.00444021 0 0)
(0.0770774 -0.0136061 0 0.00516328 0 0)
(0.0934089 -0.0180494 0 0.00647667 0 0)
(0.115276 -0.0235509 0 0.00780392 0 0)
(0.146937 -0.0339259 0 0.0109306 0 0)
(0.190161 -0.0486771 0 0.0154003 0 0)
(0.251003 -0.0779826 0 0.0271092 0 0)
(0.329858 -0.129868 0 0.0532768 0 0)
(0.407838 -0.212228 0 0.112863 0 0)
(0.00474978 -0.000364685 0 0.00125684 0 0)
(0.0318932 -0.00249964 0 0.000852269 0 0)
(0.0333269 -0.00316167 0 0.0010602 0 0)
(0.0321646 -0.00338459 0 0.00147148 0 0)
(0.0346192 -0.00384135 0 0.00191866 0 0)
(0.0382727 -0.00473981 0 0.00241854 0 0)
(0.0426051 -0.00602695 0 0.00306519 0 0)
(0.0477722 -0.00761518 0 0.00377424 0 0)
(0.0540993 -0.00964216 0 0.00470022 0 0)
(0.0621576 -0.0120828 0 0.00565181 0 0)
(0.072757 -0.0156359 0 0.00702556 0 0)
(0.0868937 -0.0202074 0 0.00858466 0 0)
(0.105993 -0.0275951 0 0.0113399 0 0)
(0.131904 -0.0379734 0 0.0151768 0 0)
(0.166625 -0.055916 0 0.0230943 0 0)
(0.211018 -0.0840422 0 0.037627 0 0)
(0.262308 -0.129961 0 0.067822 0 0)
(0.303434 -0.199392 0 0.136141 0 0)
(0.00466251 -0.000745091 0 0.00134555 0 0)
(0.0315915 -0.00298214 0 0.0010617 0 0)
(0.0325717 -0.00350033 0 0.0013466 0 0)
(0.0312261 -0.00364705 0 0.00187632 0 0)
(0.0334457 -0.00409785 0 0.00244113 0 0)
(0.0367451 -0.00501823 0 0.00306491 0 0)
(0.0406519 -0.0063444 0 0.00380551 0 0)
(0.045352 -0.00804952 0 0.00471853 0 0)
(0.0511406 -0.0102064 0 0.00580462 0 0)
(0.0585006 -0.0130339 0 0.00715922 0 0)
(0.0681192 -0.0168818 0 0.00887819 0 0)
(0.0807121 -0.0223217 0 0.0112786 0 0)
(0.097412 -0.0302331 0 0.0148251 0 0)
(0.119012 -0.0420015 0 0.0205169 0 0)
(0.146749 -0.0601269 0 0.0304232 0 0)
(0.178772 -0.0872086 0 0.0481784 0 0)
(0.212357 -0.127457 0 0.0816767 0 0)
(0.234539 -0.178675 0 0.140986 0 0)
(0.00482125 -0.000629442 0 0.00150808 0 0)
(0.0314486 -0.00333695 0 0.00139378 0 0)
(0.0321572 -0.00390448 0 0.00166577 0 0)
(0.03071 -0.00409931 0 0.00225549 0 0)
(0.0328123 -0.00465261 0 0.00293333 0 0)
(0.0359001 -0.00570053 0 0.00367216 0 0)
(0.0395173 -0.00717534 0 0.00456514 0 0)
(0.0438425 -0.00905205 0 0.00566419 0 0)
(0.0491335 -0.0114423 0 0.00704819 0 0)
(0.0557836 -0.0145484 0 0.00878787 0 0)
(0.064339 -0.0187839 0 0.0110663 0 0)
(0.0753135 -0.024688 0 0.0142362 0 0)
(0.0894022 -0.0331084 0 0.0188873 0 0)
(0.106836 -0.0452809 0 0.0262258 0 0)
(0.127845 -0.0628123 0 0.0380746 0 0)
(0.150074 -0.0876334 0 0.0583636 0 0)
(0.170867 -0.12042 0 0.0914766 0 0)
(0.181072 -0.158628 0 0.145262 0 0)
(0.00361149 -0.00054781 0 0.00168911 0 0)
(0.0301159 -0.00352081 0 0.0015947 0 0)
(0.030927 -0.00395551 0 0.00203264 0 0)
(0.0296035 -0.00401282 0 0.00272205 0 0)
(0.0316095 -0.00454211 0 0.00351579 0 0)
(0.0343516 -0.00561491 0 0.004399 0 0)
(0.0374792 -0.00712933 0 0.00545712 0 0)
(0.0412504 -0.0090859 0 0.00678603 0 0)
(0.0459058 -0.0116101 0 0.00847237 0 0)
(0.0517257 -0.0149233 0 0.0106404 0 0)
(0.0590707 -0.0193974 0 0.013507 0 0)
(0.0682217 -0.0255282 0 0.0174943 0 0)
(0.0795112 -0.0340315 0 0.0232644 0 0)
(0.0927999 -0.0458198 0 0.0320333 0 0)
(0.107752 -0.0619452 0 0.0455484 0 0)
(0.122163 -0.0831759 0 0.0668958 0 0)
(0.133797 -0.10908 0 0.0991652 0 0)
(0.136976 -0.13684 0 0.147034 0 0)
(0.00523873 -0.000924855 0 0.00167315 0 0)
(0.0307799 -0.00430894 0 0.00184011 0 0)
(0.030637 -0.00472178 0 0.00237899 0 0)
(0.0289381 -0.00465267 0 0.00316134 0 0)
(0.0308591 -0.00517118 0 0.00409639 0 0)
(0.0335149 -0.00633322 0 0.00515435 0 0)
(0.0364396 -0.00797539 0 0.00642127 0 0)
(0.0398445 -0.0100605 0 0.0080142 0 0)
(0.0439199 -0.0127036 0 0.0100461 0 0)
(0.0488746 -0.0161236 0 0.0126799 0 0)
(0.0549507 -0.0206607 0 0.0161556 0 0)
(0.0622757 -0.0267534 0 0.0209462 0 0)
(0.0709273 -0.0349441 0 0.0277105 0 0)
(0.0805271 -0.0458452 0 0.0376397 0 0)
(0.0905162 -0.0599759 0 0.0521966 0 0)
(0.0990145 -0.0774005 0 0.0737977 0 0)
(0.104542 -0.0971884 0 0.104334 0 0)
(0.103562 -0.1167 0 0.146373 0 0)
(0.00452714 -0.000943107 0 0.00189022 0 0)
(0.0304748 -0.00452776 0 0.00205541 0 0)
(0.0303638 -0.00484964 0 0.00268876 0 0)
(0.0286222 -0.00468859 0 0.00357237 0 0)
(0.0303321 -0.00516733 0 0.00464806 0 0)
(0.0326384 -0.00630658 0 0.00588671 0 0)
(0.0351071 -0.00791435 0 0.00735949 0 0)
(0.0379275 -0.00995285 0 0.00920045 0 0)
(0.0412447 -0.0125435 0 0.0115601 0 0)
(0.0452029 -0.0158945 0 0.0146379 0 0)
(0.0499495 -0.0202931 0 0.0186975 0 0)
(0.0554922 -0.0260744 0 0.0242173 0 0)
(0.0617513 -0.0336171 0 0.0318317 0 0)
(0.068246 -0.0432476 0 0.0426052 0 0)
(0.0743963 -0.0551151 0 0.0576913 0 0)
(0.078719 -0.0688622 0 0.0788743 0 0)
(0.0803929 -0.0834484 0 0.107145 0 0)
(0.077181 -0.0966725 0 0.143995 0 0)
(0.00472875 -0.00107785 0 0.00206063 0 0)
(0.0304886 -0.00511075 0 0.00236946 0 0)
(0.0297976 -0.00549276 0 0.00308228 0 0)
(0.0276627 -0.00521948 0 0.00405711 0 0)
(0.0291481 -0.00566573 0 0.00524681 0 0)
(0.0312768 -0.00684948 0 0.00665492 0 0)
(0.0335151 -0.00850658 0 0.00835094 0 0)
(0.035992 -0.0105524 0 0.0104664 0 0)
(0.0388027 -0.013088 0 0.0131549 0 0)
(0.0420223 -0.0163072 0 0.0166438 0 0)
(0.045706 -0.0204504 0 0.021218 0 0)
(0.049779 -0.0257565 0 0.0273426 0 0)
(0.0540786 -0.0324462 0 0.0355869 0 0)
(0.0581374 -0.0406214 0 0.0468475 0 0)
(0.0614546 -0.0501833 0 0.0619713 0 0)
(0.0629679 -0.0605863 0 0.0822045 0 0)
(0.0623084 -0.0708657 0 0.107936 0 0)
(0.058088 -0.0793213 0 0.140023 0 0)
(0.00414561 -0.000926508 0 0.00228981 0 0)
(0.0294259 -0.00512631 0 0.00265389 0 0)
(0.0287265 -0.00548962 0 0.00339554 0 0)
(0.02661 -0.00507561 0 0.00447476 0 0)
(0.0278979 -0.00539036 0 0.00581154 0 0)
(0.0296408 -0.00647004 0 0.00740955 0 0)
(0.0314016 -0.00801603 0 0.00932083 0 0)
(0.0333479 -0.00991113 0 0.0116705 0 0)
(0.0355467 -0.0122365 0 0.0146406 0 0)
(0.0380172 -0.015162 0 0.0184737 0 0)
(0.040741 -0.0188809 0 0.0234548 0 0)
(0.0435733 -0.023539 0 0.0300178 0 0)
(0.0462992 -0.0292279 0 0.0386475 0 0)
(0.0485099 -0.0358877 0 0.0500739 0 0)
(0.0498396 -0.0432821 0 0.064878 0 0)
(0.0495869 -0.0508108 0 0.08393 0 0)
(0.0476918 -0.0576597 0 0.107248 0 0)
(0.0432546 -0.0625199 0 0.135396 0 0)
(0.00438472 -0.00118688 0 0.00261203 0 0)
(0.0300336 -0.00544104 0 0.00298118 0 0)
(0.0289856 -0.00573955 0 0.00372636 0 0)
(0.0264849 -0.00518614 0 0.0048765 0 0)
(0.0274609 -0.00539105 0 0.00631916 0 0)
(0.0289274 -0.00640156 0 0.00807379 0 0)
(0.0303842 -0.0078831 0 0.0101872 0 0)
(0.0319368 -0.0096786 0 0.0127706 0 0)
(0.0336173 -0.0118346 0 0.0160013 0 0)
(0.0354235 -0.0144806 0 0.0201209 0 0)
(0.0373071 -0.0177526 0 0.0254056 0 0)
(0.0391077 -0.0217191 0 0.0322439 0 0)
(0.0406101 -0.0263768 0 0.0410287 0 0)
(0.0414855 -0.0315713 0 0.0523337 0 0)
(0.0414815 -0.0370117 0 0.0665221 0 0)
(0.0401663 -0.0421305 0 0.0841989 0 0)
(0.0376554 -0.0462819 0 0.105157 0 0)
(0.0333711 -0.0484836 0 0.129809 0 0)
(0.00447915 -0.00121637 0 0.0031143 0 0)
(0.0295935 -0.00542751 0 0.00360427 0 0)
(0.0283823 -0.00560766 0 0.00445295 0 0)
(0.0258825 -0.00493767 0 0.00568082 0 0)
(0.0267413 -0.0050059 0 0.00722655 0 0)
(0.0278956 -0.0058439 0 0.00912823 0 0)
(0.0288716 -0.00709691 0 0.0114367 0 0)
(0.0298122 -0.00858754 0 0.0142576 0 0)
(0.0307626 -0.0103403 0 0.0177452 0 0)
(0.0317221 -0.0124524 0 0.0221185 0 0)
(0.0326511 -0.0150145 0 0.027618 0 0)
(0.0334185 -0.0180261 0 0.0345713 0 0)
(0.0338484 -0.0214076 0 0.0432727 0 0)
(0.0336991 -0.0249323 0 0.0541458 0 0)
(0.0328238 -0.0283071 0 0.06737 0 0)
(0.0309915 -0.0310199 0 0.0833486 0 0)
(0.0284344 -0.0326341 0 0.101722 0 0)
(0.0247598 -0.0324009 0 0.122821 0 0)
(0.00449914 -0.000975685 0 0.00305057 0 0)
(0.0294786 -0.00612676 0 0.00386656 0 0)
(0.028105 -0.00642506 0 0.0049394 0 0)
(0.0253538 -0.00567262 0 0.00635684 0 0)
(0.0259316 -0.00562609 0 0.00804898 0 0)
(0.0267625 -0.00633258 0 0.010092 0 0)
(0.02739 -0.00741986 0 0.0125664 0 0)
(0.0279412 -0.00866934 0 0.0155694 0 0)
(0.0284292 -0.0100582 0 0.0192328 0 0)
(0.0288296 -0.0116434 0 0.0237467 0 0)
(0.029091 -0.0134708 0 0.0293108 0 0)
(0.0291081 -0.0154888 0 0.036178 0 0)
(0.0287617 -0.0175796 0 0.0445302 0 0)
(0.0279292 -0.0194984 0 0.0546396 0 0)
(0.026586 -0.0210017 0 0.0665158 0 0)
(0.0246691 -0.021669 0 0.0804084 0 0)
(0.0224607 -0.0212558 0 0.0958797 0 0)
(0.0196973 -0.0192008 0 0.113245 0 0)
(0.00467112 -0.00110344 0 0.00320835 0 0)
(0.029176 -0.00606994 0 0.00387148 0 0)
(0.027304 -0.00642711 0 0.00489084 0 0)
(0.0242619 -0.00560861 0 0.00636749 0 0)
(0.0245696 -0.0054289 0 0.00817303 0 0)
(0.0251012 -0.0059786 0 0.0103256 0 0)
(0.0254357 -0.00684762 0 0.0128886 0 0)
(0.025679 -0.00776763 0 0.0159618 0 0)
(0.0257897 -0.00867952 0 0.0196667 0 0)
(0.025711 -0.00960859 0 0.0241537 0 0)
(0.0254109 -0.0105713 0 0.0295596 0 0)
(0.0248551 -0.0114935 0 0.0360525 0 0)
(0.0240184 -0.0122512 0 0.0437128 0 0)
(0.0228915 -0.0126173 0 0.0526951 0 0)
(0.0215248 -0.0124162 0 0.0629098 0 0)
(0.0199607 -0.0113358 0 0.0745119 0 0)
(0.0184527 -0.00929504 0 0.0870683 0 0)
(0.0168227 -0.00589355 0 0.10089 0 0)
(0.00515561 -0.00102499 0 0.00339967 0 0)
(0.0298533 -0.00634463 0 0.00421456 0 0)
(0.0276329 -0.00684284 0 0.00535569 0 0)
(0.0242269 -0.00593833 0 0.00692158 0 0)
(0.0241858 -0.0055905 0 0.00876096 0 0)
(0.024349 -0.00592756 0 0.0109317 0 0)
(0.0242833 -0.00651033 0 0.0134933 0 0)
(0.0241083 -0.00703112 0 0.0165116 0 0)
(0.0238078 -0.00740313 0 0.0200691 0 0)
(0.0233584 -0.00764295 0 0.0242678 0 0)
(0.0227586 -0.00776843 0 0.0291834 0 0)
(0.0220135 -0.00771183 0 0.0349074 0 0)
(0.0211314 -0.0073669 0 0.0414474 0 0)
(0.0201585 -0.00654947 0 0.0488875 0 0)
(0.0191649 -0.00514914 0 0.057104 0 0)
(0.0182464 -0.00295159 0 0.0662182 0 0)
(0.017597 2.52146e-05 0 0.0758357 0 0)
(0.0171175 0.00407319 0 0.086264 0 0)
(0.00464781 -0.000929274 0 0.00348741 0 0)
(0.0291475 -0.00652096 0 0.00418921 0 0)
(0.0269087 -0.00699245 0 0.00499235 0 0)
(0.0233347 -0.00605549 0 0.00633961 0 0)
(0.0229478 -0.00565269 0 0.00803936 0 0)
(0.0226348 -0.00578886 0 0.0100468 0 0)
(0.022099 -0.00602041 0 0.0123662 0 0)
(0.0215605 -0.00608945 0 0.0150346 0 0)
(0.0210354 -0.00593751 0 0.0181109 0 0)
(0.0204964 -0.0055772 0 0.0216655 0 0)
(0.0199334 -0.00500664 0 0.025736 0 0)
(0.0193554 -0.00416226 0 0.030363 0 0)
(0.0187818 -0.00296295 0 0.0355158 0 0)
(0.0182844 -0.00129216 0 0.041225 0 0)
(0.017937 0.000904119 0 0.0473604 0 0)
(0.0178523 0.00374032 0 0.0540048 0 0)
(0.0181644 0.00717037 0 0.0608464 0 0)
(0.0188262 0.0113566 0 0.068142 0 0)
(0.00475416 -0.000773896 0 0.00335097 0 0)
(0.0295069 -0.00614643 0 0.00407905 0 0)
(0.0266627 -0.00631669 0 0.00475186 0 0)
(0.0225804 -0.00502107 0 0.00589586 0 0)
(0.021894 -0.00419536 0 0.00730693 0 0)
(0.0213219 -0.0038886 0 0.00895118 0 0)
(0.0205981 -0.00367903 0 0.010854 0 0)
(0.0199943 -0.00329324 0 0.0130358 0 0)
(0.0195349 -0.00263189 0 0.0154982 0 0)
(0.0191858 -0.00168034 0 0.018246 0 0)
(0.0189413 -0.000443707 0 0.0212737 0 0)
(0.0188275 0.00109858 0 0.0245938 0 0)
(0.0188851 0.00297377 0 0.0281788 0 0)
(0.0192002 0.0052348 0 0.0320492 0 0)
(0.0198401 0.00788947 0 0.0361148 0 0)
(0.0209013 0.0109958 0 0.0404417 0 0)
(0.0224589 0.0144893 0 0.0448153 0 0)
(0.0244885 0.0184731 0 0.0494173 0 0)
(0.00489097 -0.00105621 0 0.00347506 0 0)
(0.0288309 -0.00577799 0 0.00383773 0 0)
(0.025579 -0.00556583 0 0.00435318 0 0)
(0.0214715 -0.0042174 0 0.00534262 0 0)
(0.0206892 -0.00332381 0 0.00644262 0 0)
(0.0200362 -0.00289787 0 0.00763576 0 0)
(0.0192726 -0.00256031 0 0.00897375 0 0)
(0.0186599 -0.00203948 0 0.0104935 0 0)
(0.0182279 -0.00122706 0 0.0122047 0 0)
(0.0179714 -0.000113715 0 0.0141037 0 0)
(0.0179238 0.00128091 0 0.0161724 0 0)
(0.0181426 0.00295036 0 0.018403 0 0)
(0.0186801 0.00489445 0 0.0207632 0 0)
(0.019603 0.00713035 0 0.0232596 0 0)
(0.0209595 0.00964712 0 0.0258256 0 0)
(0.0228015 0.0124698 0 0.0285122 0 0)
(0.0251769 0.0155455 0 0.0311844 0 0)
(0.028047 0.018937 0 0.0339679 0 0)
(0.00488438 -0.000757704 0 0.00317821 0 0)
(0.0286938 -0.00494727 0 0.00332101 0 0)
(0.0252562 -0.00459463 0 0.00359734 0 0)
(0.021111 -0.00316317 0 0.00427166 0 0)
(0.0203326 -0.00213263 0 0.00510439 0 0)
(0.0197085 -0.00148753 0 0.00602288 0 0)
(0.0190609 -0.000897283 0 0.00699735 0 0)
(0.0186772 -0.000148181 0 0.00802834 0 0)
(0.0185723 0.000835679 0 0.00913781 0 0)
(0.0187169 0.00205524 0 0.0103476 0 0)
(0.019146 0.00348937 0 0.0116609 0 0)
(0.0199287 0.00512685 0 0.0130779 0 0)
(0.0211213 0.0069644 0 0.0145771 0 0)
(0.0227726 0.00901458 0 0.0161626 0 0)
(0.0249109 0.0112712 0 0.0177923 0 0)
(0.0275626 0.0137509 0 0.0194932 0 0)
(0.0307558 0.0164117 0 0.0211814 0 0)
(0.0344493 0.0192928 0 0.0229291 0 0)
(0.00442558 -0.000530755 0 0.00298858 0 0)
(0.0282501 -0.00410974 0 0.00262579 0 0)
(0.0247368 -0.00393832 0 0.00275748 0 0)
(0.0205492 -0.00270142 0 0.00325176 0 0)
(0.0197215 -0.00171739 0 0.0038735 0 0)
(0.0190843 -0.00106197 0 0.00457854 0 0)
(0.0184908 -0.000475812 0 0.00533174 0 0)
(0.0182109 0.000244865 0 0.00612069 0 0)
(0.0182609 0.00118746 0 0.00696113 0 0)
(0.0186371 0.00235325 0 0.00786985 0 0)
(0.0193818 0.00370883 0 0.00883979 0 0)
(0.0205511 0.00522849 0 0.00986031 0 0)
(0.0221825 0.00689726 0 0.0109082 0 0)
(0.0243135 0.00871932 0 0.0119809 0 0)
(0.0269585 0.0106846 0 0.0130442 0 0)
(0.0301435 0.0128109 0 0.0141255 0 0)
(0.0338835 0.0150554 0 0.0151688 0 0)
(0.0381578 0.0174614 0 0.0162378 0 0)
(0.00492671 -0.000731796 0 0.00270328 0 0)
(0.0279048 -0.00375148 0 0.00237698 0 0)
(0.0243909 -0.00332947 0 0.0023473 0 0)
(0.020272 -0.00207899 0 0.00256429 0 0)
(0.0193817 -0.00116484 0 0.00289008 0 0)
(0.0186072 -0.000576986 0 0.00326939 0 0)
(0.0179319 -4.36833e-05 0 0.00366542 0 0)
(0.0177235 0.000601027 0 0.00407246 0 0)
(0.0179938 0.00140386 0 0.00451364 0 0)
(0.0186711 0.00235567 0 0.00501143 0 0)
(0.0197504 0.00343622 0 0.00556465 0 0)
(0.0212679 0.00463344 0 0.00616041 0 0)
(0.0232585 0.00594538 0 0.00677933 0 0)
(0.0257582 0.00737923 0 0.00741935 0 0)
(0.0287962 0.00892638 0 0.00806069 0 0)
(0.032384 0.0105884 0 0.00871823 0 0)
(0.0365422 0.0123306 0 0.00935578 0 0)
(0.0412109 0.0141625 0 0.00999918 0 0)
(0.00501727 -0.00083061 0 0.002363 0 0)
(0.0277611 -0.00342674 0 0.00207725 0 0)
(0.0235005 -0.00266554 0 0.00202664 0 0)
(0.0193087 -0.0013391 0 0.002229 0 0)
(0.0187763 -0.000380777 0 0.00251092 0 0)
(0.0183909 0.000229324 0 0.002811 0 0)
(0.0180292 0.000748426 0 0.00310844 0 0)
(0.0181218 0.00135887 0 0.00341205 0 0)
(0.018774 0.00212686 0 0.00373285 0 0)
(0.0199473 0.00303779 0 0.00407189 0 0)
(0.0216042 0.00405425 0 0.00442027 0 0)
(0.023741 0.00514965 0 0.00477262 0 0)
(0.0263757 0.00631271 0 0.00512487 0 0)
(0.0295399 0.00754717 0 0.00548387 0 0)
(0.0332527 0.00884388 0 0.00583981 0 0)
(0.0375136 0.0102084 0 0.00621093 0 0)
(0.0423345 0.0116147 0 0.00657292 0 0)
(0.0476592 0.0130888 0 0.00693978 0 0)
(0.00529281 -0.000802878 0 0.00211241 0 0)
(0.0277198 -0.00304021 0 0.00168079 0 0)
(0.023043 -0.0023428 0 0.00145595 0 0)
(0.0187088 -0.00131741 0 0.00148439 0 0)
(0.018107 -0.000604823 0 0.0015748 0 0)
(0.0176791 -0.000167096 0 0.00165334 0 0)
(0.0173741 0.000183109 0 0.00173941 0 0)
(0.0176298 0.000589655 0 0.00186447 0 0)
(0.0184887 0.00111313 0 0.00202939 0 0)
(0.0198657 0.00174545 0 0.00221637 0 0)
(0.0217336 0.00245446 0 0.00240874 0 0)
(0.0241206 0.00322043 0 0.00260267 0 0)
(0.0270693 0.00403621 0 0.0027994 0 0)
(0.0306036 0.00490151 0 0.00300362 0 0)
(0.0347284 0.0058098 0 0.00320838 0 0)
(0.0394138 0.00675912 0 0.00342001 0 0)
(0.0446607 0.00772883 0 0.00362324 0 0)
(0.0503833 0.00873593 0 0.00382389 0 0)
(0.00520758 -0.000684728 0 0.00182947 0 0)
(0.0272476 -0.0023276 0 0.0011891 0 0)
(0.0221256 -0.00187998 0 0.000967594 0 0)
(0.0179321 -0.000983537 0 0.00106966 0 0)
(0.0175388 -0.000249632 0 0.00116404 0 0)
(0.0172813 0.000206424 0 0.00120215 0 0)
(0.0172564 0.000547768 0 0.00122849 0 0)
(0.0179368 0.00091798 0 0.00127631 0 0)
(0.0193121 0.00137476 0 0.00134564 0 0)
(0.021244 0.00191185 0 0.00142588 0 0)
(0.0236904 0.00250205 0 0.0015102 0 0)
(0.0266927 0.00312568 0 0.00159748 0 0)
(0.0303042 0.00377392 0 0.00168803 0 0)
(0.0345469 0.00444602 0 0.00178459 0 0)
(0.0394191 0.00513695 0 0.00188351 0 0)
(0.0448827 0.00585017 0 0.00198952 0 0)
(0.0509441 0.00656987 0 0.00209457 0 0)
(0.0575134 0.00731265 0 0.00220318 0 0)
(0.00361071 -0.000506995 0 0.00153226 0 0)
(0.0254115 -0.00110229 0 0.00072862 0 0)
(0.020485 -0.000691719 0 0.000457518 0 0)
(0.016759 -0.00021562 0 0.000464177 0 0)
(0.0167172 0.00015209 0 0.000473008 0 0)
(0.0167557 0.000342005 0 0.000476356 0 0)
(0.017046 0.000464241 0 0.000494632 0 0)
(0.0180721 0.000609038 0 0.000523554 0 0)
(0.0198337 0.000805828 0 0.00055538 0 0)
(0.0222144 0.00104619 0 0.000588259 0 0)
(0.0251926 0.00131533 0 0.000622784 0 0)
(0.028805 0.00160244 0 0.000660324 0 0)
(0.0330801 0.00190095 0 0.00070115 0 0)
(0.0380054 0.00220824 0 0.00074609 0 0)
(0.0435553 0.00252013 0 0.000793714 0 0)
(0.0496725 0.00283849 0 0.000846363 0 0)
(0.0563681 0.00315158 0 0.00090092 0 0)
(0.0635424 0.00347095 0 0.000959239 0 0)
(0.0055433 -0.000627773 0 0.00110769 0 0)
(0.0256689 -0.0013095 0 0.000483069 0 0)
(0.0199395 -0.000985982 0 0.000427109 0 0)
(0.0167576 -0.000360521 0 0.000414614 0 0)
(0.0172198 4.67367e-05 0 0.000360223 0 0)
(0.0176847 0.000246285 0 0.000310522 0 0)
(0.0185841 0.000389386 0 0.000285626 0 0)
(0.020419 0.000536115 0 0.000276904 0 0)
(0.0230937 0.000682216 0 0.000276039 0 0)
(0.0264151 0.000822442 0 0.000279774 0 0)
(0.030327 0.00096342 0 0.000288012 0 0)
(0.0348614 0.00111038 0 0.00030132 0 0)
(0.0400412 0.00126308 0 0.000318928 0 0)
(0.0458587 0.00141762 0 0.000339393 0 0)
(0.0522704 0.00156879 0 0.000362683 0 0)
(0.0592327 0.00171114 0 0.000392409 0 0)
(0.0667312 0.00183645 0 0.000428952 0 0)
(0.0746944 0.00194968 0 0.000471328 0 0)
(0.00381873 -8.22154e-05 0 0.000854791 0 0)
(0.0238573 0.000207883 0 0.000221531 0 0)
(0.0183825 1.66632e-05 0 0.000170905 0 0)
(0.0156577 6.82259e-05 0 0.000169891 0 0)
(0.0165435 4.42844e-05 0 0.000179617 0 0)
(0.0174403 -4.7568e-05 0 0.000189459 0 0)
(0.0187091 -0.000160912 0 0.000199336 0 0)
(0.0207651 -0.00027992 0 0.000210611 0 0)
(0.0234492 -0.000402223 0 0.000224287 0 0)
(0.0265301 -0.000521283 0 0.00024001 0 0)
(0.0299099 -0.000625906 0 0.000257036 0 0)
(0.0336034 -0.000709796 0 0.000275647 0 0)
(0.0376039 -0.000772066 0 0.000295961 0 0)
(0.0419326 -0.000817281 0 0.000317526 0 0)
(0.0465092 -0.000850026 0 0.000339615 0 0)
(0.0513673 -0.000876852 0 0.000364572 0 0)
(0.0563852 -0.000898821 0 0.000393678 0 0)
(0.061676 -0.000915603 0 0.000426393 0 0)
(0.00495713 -0.000362163 0 0.000714215 0 0)
(0.0257535 -9.33578e-05 0 0.000236986 0 0)
(0.0226935 2.41373e-05 0 0.000145908 0 0)
(0.0217343 0.000136629 0 0.000104074 0 0)
(0.0237529 0.000149365 0 8.14597e-05 0 0)
(0.0255578 0.000158435 0 6.88261e-05 0 0)
(0.0273144 0.000187782 0 6.13354e-05 0 0)
(0.0294686 0.000224205 0 5.79187e-05 0 0)
(0.0321554 0.000258616 0 5.78275e-05 0 0)
(0.0353949 0.000292602 0 5.99583e-05 0 0)
(0.0391856 0.000332182 0 6.37848e-05 0 0)
(0.043528 0.00038455 0 6.94628e-05 0 0)
(0.0484681 0.000455154 0 7.64009e-05 0 0)
(0.0540665 0.000541741 0 8.33761e-05 0 0)
(0.0604113 0.000636633 0 9.01523e-05 0 0)
(0.0674522 0.000733686 0 9.76923e-05 0 0)
(0.0752873 0.000833091 0 0.000105572 0 0)
(0.0837072 0.000940564 0 0.000112628 0 0)
(0.000289333 -0.000696643 1.55487e-22 0.00171121 -3.03737e-22 2.39722e-37)
(0.00377242 -0.00328754 -4.49257e-22 0.00294207 2.65325e-22 2.36369e-37)
(0.0125272 -0.00632441 0 0.00327773 0 0)
(0.0264113 -0.00927837 0 0.00333806 0 0)
(0.0455232 -0.0121809 0 0.00332551 0 0)
(0.0700781 -0.0151332 1.57008e-21 0.00332094 -2.61712e-22 2.22642e-37)
(0.100254 -0.0181808 0 0.00333946 0 0)
(0.136325 -0.0213285 0 0.00337423 0 0)
(0.178511 -0.0245357 0 0.00341186 0 0)
(0.226955 -0.0277269 0 0.0034376 0 0)
(0.281618 -0.0307932 -2.98219e-21 0.00343779 2.70547e-22 2.06228e-37)
(0.342205 -0.0335933 0 0.00340075 0 0)
(0.408123 -0.0359567 0 0.0033183 0 0)
(0.478359 -0.0377056 0 0.00319023 0 0)
(0.551558 -0.0386574 0 0.00302413 0 0)
(0.625835 -0.0386866 -4.40463e-21 0.00284336 2.88432e-22 1.90619e-37)
(0.699282 -0.0377096 0 0.00268058 0 0)
(0.76935 -0.0357587 0 0.00258461 0 0)
(0.834707 -0.0329274 0 0.00261062 0 0)
(0.892684 -0.0294476 0 0.00282272 0 0)
(0.942375 -0.0259414 0 0.00327634 0 0)
(0.984292 -0.0232353 0 0.0039819 0 0)
(1.02065 -0.0223921 0 0.00488645 0 0)
(1.05511 -0.0244684 -7.03326e-21 0.00586902 3.50515e-22 1.67292e-37)
(1.09239 -0.0299749 7.39569e-21 0.00687085 -3.46912e-22 1.64518e-37)
(1.13618 -0.0392772 -7.75783e-21 0.00792698 3.37897e-22 1.61776e-37)
(1.18853 -0.0523032 -8.11873e-21 0.00928398 3.25401e-22 1.59065e-37)
(1.24985 -0.0660106 0 0.0122873 0 0)
(1.31945 -0.0739882 0 0.01749 0 0)
(1.39655 -0.0721861 9.22019e-21 0.0201834 -3.44481e-22 1.51121e-37)
(1.48287 -0.0644186 9.59964e-21 0.0187096 -3.72998e-22 1.48535e-37)
(1.58328 -0.0607825 0 0.0188244 0 0)
(1.71046 -0.0694059 0 0.0210215 0 0)
(1.87634 -0.0854617 1.07126e-20 0.0217084 -3.83683e-22 1.40968e-37)
(2.08152 -0.101841 0 0.0211235 0 0)
(2.32205 -0.116113 0 0.0198896 0 0)
(2.59215 -0.127397 -1.1641e-20 0.0182767 3.16175e-22 1.33681e-37)
(2.88512 -0.135309 0 0.0164744 0 0)
(3.19384 -0.139754 -1.21308e-20 0.014612 2.64584e-22 1.28979e-37)
(3.51106 -0.140807 -2.46673e-20 0.0127732 4.76547e-22 5.06695e-37)
(3.82954 -0.138636 0 0.01101 0 0)
(4.14218 -0.133473 0 0.00935613 0 0)
(4.44214 -0.125599 0 0.00783254 0 0)
(4.7229 -0.115336 0 0.00645161 0 0)
(4.97838 -0.103052 0 0.00522155 0 0)
(5.20317 -0.0891343 -2.57491e-20 0.00414691 1.71168e-22 4.53942e-37)
(5.39292 -0.0740084 -2.56828e-20 0.00323181 1.25399e-22 4.45572e-37)
(5.54434 -0.0581045 -2.55443e-20 0.00247655 8.21713e-23 4.3732e-37)
(5.65497 -0.0419294 0 0.00188099 0 0)
(5.72376 -0.0260065 2.50604e-20 0.00143825 -5.25648e-24 4.2117e-37)
(5.75081 -0.0108573 0 0.00113567 0 0)
(5.73739 0.00311823 -2.43289e-20 0.000951304 -5.59125e-23 4.05486e-37)
(5.68787 0.0157087 -2.38875e-20 0.000858182 -8.01919e-23 3.97816e-37)
(5.60395 0.0268788 0 0.000831078 0 0)
(5.49014 0.0365401 0 0.000850646 0 0)
(5.34987 0.0446794 0 0.000900621 0 0)
(5.18759 0.0513111 -2.17875e-20 0.000967223 -1.40148e-22 3.68267e-37)
(5.00707 0.0565089 0 0.00104076 0 0)
(4.81219 0.0603888 0 0.00111264 0 0)
(4.60634 0.0630941 0 0.00117863 0 0)
(4.39268 0.0647671 0 0.0012358 0 0)
(4.17391 0.0655469 0 0.00128401 0 0)
(3.95253 0.0655535 0 0.00132258 0 0)
(3.7307 0.0648953 0 0.00135176 0 0)
(3.51038 0.0636683 0 0.00137057 0 0)
(3.29325 0.0619797 1.67748e-20 0.00137855 1.38415e-22 3.08121e-37)
(3.08068 0.0599411 0 0.00137405 0 0)
(2.87366 0.0576834 0 0.00135703 0 0)
(2.67275 0.0553338 -1.5332e-20 0.00132883 -1.21826e-22 2.89923e-37)
(2.47812 0.0529933 -1.48852e-20 0.0012925 -1.16159e-22 2.84053e-37)
(2.2897 0.0507142 0 0.00125249 0 0)
(2.1074 0.0484828 1.40406e-20 0.00121259 1.05131e-22 2.726e-37)
(1.93131 0.0462321 -1.36424e-20 0.0011747 -9.96848e-23 2.67015e-37)
(1.76182 0.0438717 0 0.00113806 0 0)
(1.59977 0.0413108 1.28945e-20 0.0010984 8.85498e-23 2.56122e-37)
(1.44616 0.0384996 0 0.00105033 0 0)
(1.30206 0.0354634 0 0.000990663 0 0)
(1.16833 0.0322651 -1.18991e-20 0.000918232 -7.06073e-23 2.40458e-37)
(1.04548 0.0290153 0 0.000835884 0 0)
(0.933768 0.0258103 1.132e-20 0.000747158 5.85349e-23 2.30452e-37)
(0.833003 0.022735 0 0.000656376 0 0)
(0.742779 0.0198654 -1.08037e-20 0.000568243 -4.72405e-23 2.20786e-37)
(0.662489 0.0172305 -1.05669e-20 0.000485113 -4.20497e-23 2.16076e-37)
(0.591371 0.014856 -1.03431e-20 0.000409387 -3.72145e-23 2.11449e-37)
(0.528618 0.0127426 -2.02627e-20 0.000341996 -6.54931e-23 8.27605e-37)
(0.473407 0.0108828 1.98614e-20 0.000283279 5.7277e-23 8.09731e-37)
(0.424884 0.00924568 0 0.000232155 0 0)
(0.382268 0.00781524 0 0.00018836 0 0)
(0.344919 0.00657191 0 0.000151263 0 0)
(0.31223 0.00549541 1.84438e-20 0.000120149 3.08934e-23 7.41317e-37)
(0.283651 0.00456644 1.81293e-20 9.42999e-05 2.57458e-23 7.24961e-37)
(0.258689 0.0037672 -1.78284e-20 7.30398e-05 -2.11032e-23 7.08896e-37)
(0.236905 0.00308162 0 5.57442e-05 0 0)
(0.217907 0.00249531 1.72632e-20 4.18461e-05 1.31895e-23 6.77621e-37)
(0.201349 0.00199545 1.69971e-20 3.08335e-05 9.85751e-24 6.62403e-37)
(0.186925 0.00157057 1.67408e-20 2.2246e-05 6.90209e-24 6.47459e-37)
(0.174365 0.00121049 0 1.56727e-05 0 0)
(0.163433 0.00090617 0 1.07505e-05 0 0)
(0.153922 0.000649661 0 7.16245e-06 0 0)
(0.145652 0.000433992 1.57995e-20 4.63524e-06 -1.7204e-24 5.90341e-37)
(0.138467 0.000253097 0 2.9372e-06 0 0)
(0.132231 0.000101721 0 1.87513e-06 0 0)
(0.126827 -2.46454e-05 -1.51649e-20 1.29051e-06 5.54007e-24 5.50184e-37)
(0.122155 -0.000129829 0 1.05546e-06 0 0)
(0.118127 -0.000217048 0 1.06808e-06 0 0)
(0.114669 -0.000289007 -1.4577e-20 1.24806e-06 7.7429e-24 5.12211e-37)
(0.111716 -0.000347933 0 1.53258e-06 0 0)
(0.109211 -0.000395686 0 1.87264e-06 0 0)
(0.107105 -0.000433808 1.40262e-20 2.23018e-06 -8.78695e-24 4.76322e-37)
(0.105355 -0.00046356 1.38494e-20 2.57591e-06 -8.9371e-24 4.64806e-37)
(0.103922 -0.000486057 0 2.88834e-06 0 0)
(0.102774 -0.000502255 -1.35047e-20 3.15246e-06 9.00686e-24 4.42422e-37)
(0.10188 -0.000512901 0 3.35804e-06 0 0)
(0.101212 -0.000518851 1.31702e-20 3.50241e-06 -8.82428e-24 4.2088e-37)
(0.100745 -0.000520756 0 3.58597e-06 0 0)
(0.100457 -0.000518993 1.28446e-20 3.60902e-06 -8.45115e-24 4.00155e-37)
(0.100327 -0.000514451 1.26847e-20 3.58418e-06 -8.21399e-24 3.9009e-37)
(0.100337 -0.000507675 0 3.52153e-06 0 0)
(0.100467 -0.000498078 0 3.4107e-06 0 0)
(0.100698 -0.0004854 0 3.24739e-06 0 0)
(0.101014 -0.000470083 0 3.04178e-06 0 0)
(0.101398 -0.000452687 0 2.80737e-06 0 0)
(0.101837 -0.000433746 0 2.55689e-06 0 0)
(0.102318 -0.000413801 0 2.30226e-06 0 0)
(0.102833 -0.000393319 1.1458e-20 2.05308e-06 -5.62431e-24 3.16317e-37)
(0.103371 -0.000372687 -1.13097e-20 1.81607e-06 5.29055e-24 3.07894e-37)
(0.103927 -0.000352222 0 1.59573e-06 0 0)
(0.104495 -0.000332192 0 1.39482e-06 0 0)
(0.105071 -0.000312763 0 1.21414e-06 0 0)
(0.105651 -0.000293991 0 1.05261e-06 0 0)
(0.106232 -0.000275871 -2.1164e-20 9.0838e-07 7.7023e-24 1.07299e-36)
(0.106812 -0.000258484 0 7.80578e-07 0 0)
(0.107388 -0.000242013 2.05934e-20 6.6934e-07 -6.77915e-24 1.01397e-36)
(0.10796 -0.000226633 -2.03104e-20 5.74369e-07 6.36802e-24 9.85364e-37)
(0.108527 -0.000212378 0 4.94046e-07 0 0)
(0.109088 -0.000199157 0 4.25899e-07 0 0)
(0.109641 -0.000186875 0 3.67849e-07 0 0)
(0.110186 -0.000175455 1.91939e-20 3.18239e-07 -5.03974e-24 8.76741e-37)
(0.110723 -0.00016483 1.89185e-20 2.75737e-07 -4.77477e-24 8.5099e-37)
(0.11125 -0.000154951 0 2.39299e-07 0 0)
(0.111767 -0.000145796 1.83722e-20 2.08158e-07 -4.30957e-24 8.0111e-37)
(0.112275 -0.00013737 1.81013e-20 1.8174e-07 -4.10687e-24 7.76964e-37)
(0.112772 -0.000129705 -1.78318e-20 1.59602e-07 3.92168e-24 7.53335e-37)
(0.113261 -0.000122823 0 1.41287e-07 0 0)
(0.113742 -0.000116731 0 1.26308e-07 0 0)
(0.114215 -0.000111396 -1.70321e-20 1.14126e-07 3.46133e-24 6.85471e-37)
(0.114683 -0.000106753 0 1.04202e-07 0 0)
(0.115147 -0.000102706 0 9.60368e-08 0 0)