/*--------------------------------*- C++ -*----------------------------------*\
  =========                 |
  \\      /  F ield         | OpenFOAM: The Open Source CFD Toolbox
   \\    /   O peration     | Website:  https://openfoam.org
    \\  /    A nd           | Version:  7
     \\/     M anipulation  |
\*---------------------------------------------------------------------------*/
FoamFile
{
    version     2.0;
    format      ascii;
    class       volScalarField;
    location    "0.061";
    object      k;
}
// * * * * * * * * * * * * * * * * * * * * * * * * * * * * * * * * * * * * * //

dimensions      [0 2 -2 0 0 0 0];

internalField   nonuniform List<scalar> 
12225
(
1.93263e-05
1.80858e-05
1.66215e-05
1.55144e-05
1.3887e-05
1.27538e-05
1.14771e-05
1.01794e-05
9.19352e-06
7.46209e-06
5.97447e-06
5.69103e-06
6.02966e-06
6.33281e-06
5.92067e-06
4.71641e-06
4.09195e-06
4.76952e-06
1.99786e-05
1.98851e-05
1.96914e-05
1.94751e-05
1.90627e-05
1.88173e-05
1.83639e-05
1.78781e-05
1.76918e-05
1.71414e-05
1.63418e-05
1.58157e-05
1.52956e-05
1.49399e-05
1.46193e-05
1.43113e-05
1.38382e-05
1.35317e-05
1.99992e-05
1.95898e-05
1.92923e-05
1.91781e-05
1.90879e-05
1.89873e-05
1.87582e-05
1.86332e-05
1.85699e-05
1.84229e-05
1.82062e-05
1.80253e-05
1.78462e-05
1.76846e-05
1.75909e-05
1.74894e-05
1.74183e-05
1.72716e-05
2.00942e-05
2.03456e-05
2.02872e-05
1.98336e-05
1.85427e-05
1.63595e-05
1.48595e-05
1.42526e-05
1.41375e-05
1.41578e-05
1.43792e-05
1.49197e-05
1.53447e-05
1.56552e-05
1.59712e-05
1.62589e-05
1.65541e-05
1.6766e-05
2.06789e-05
3.56757e-05
3.58377e-05
3.0112e-05
2.40799e-05
2.19615e-05
2.02215e-05
1.77248e-05
1.5844e-05
1.43741e-05
1.27448e-05
1.18368e-05
1.16538e-05
1.172e-05
1.21667e-05
1.36526e-05
1.52719e-05
1.62896e-05
2.11845e-05
3.39892e-05
3.46661e-05
3.00225e-05
2.43365e-05
2.2709e-05
2.26126e-05
2.27638e-05
2.26564e-05
2.20319e-05
2.00495e-05
1.83472e-05
1.76793e-05
1.75582e-05
1.76096e-05
1.7972e-05
1.91204e-05
1.97377e-05
2.09747e-05
2.46855e-05
2.43972e-05
2.3384e-05
2.25904e-05
2.24977e-05
2.26973e-05
2.31154e-05
2.32428e-05
2.32143e-05
2.31185e-05
2.29833e-05
2.28466e-05
2.27584e-05
2.27362e-05
2.27441e-05
2.28574e-05
2.28869e-05
2.06615e-05
2.15086e-05
2.1599e-05
2.1757e-05
2.31737e-05
2.40243e-05
2.40543e-05
2.38944e-05
2.34676e-05
2.3241e-05
2.31976e-05
2.32357e-05
2.35029e-05
2.45449e-05
2.58294e-05
2.66402e-05
2.71167e-05
2.72513e-05
2.06953e-05
2.07341e-05
2.0611e-05
2.0822e-05
2.25904e-05
2.48095e-05
2.52451e-05
2.51058e-05
2.41606e-05
2.3058e-05
2.26649e-05
2.26549e-05
2.29533e-05
2.42595e-05
2.5789e-05
2.67788e-05
2.73239e-05
2.75832e-05
2.02233e-05
2.02048e-05
2.03609e-05
2.1377e-05
2.24159e-05
2.28963e-05
2.38743e-05
2.43786e-05
2.43467e-05
2.39182e-05
2.34922e-05
2.34246e-05
2.35159e-05
2.40256e-05
2.46974e-05
2.50652e-05
2.51989e-05
2.52747e-05
2.05834e-05
2.06437e-05
2.07503e-05
2.14093e-05
2.15077e-05
2.14587e-05
2.20362e-05
2.35844e-05
2.39988e-05
2.39052e-05
2.35648e-05
2.34967e-05
2.35388e-05
2.37716e-05
2.39793e-05
2.40321e-05
2.40225e-05
2.39358e-05
2.33333e-05
2.50615e-05
2.48239e-05
2.28117e-05
2.17032e-05
2.1982e-05
2.3291e-05
2.35307e-05
2.33394e-05
2.26407e-05
2.21338e-05
2.20324e-05
2.20758e-05
2.23705e-05
2.28689e-05
2.31216e-05
2.31876e-05
2.31928e-05
2.30566e-05
2.29998e-05
2.16731e-05
2.0772e-05
2.06584e-05
2.09739e-05
2.14466e-05
2.14583e-05
2.12492e-05
2.09688e-05
2.09081e-05
2.09362e-05
2.10885e-05
2.12685e-05
2.14361e-05
2.16568e-05
2.18869e-05
2.20579e-05
2.14878e-05
2.33549e-05
2.3525e-05
2.24282e-05
2.15022e-05
2.14037e-05
2.13139e-05
2.11258e-05
2.10927e-05
2.11776e-05
2.14498e-05
2.16328e-05
2.16921e-05
2.16992e-05
2.17124e-05
2.17522e-05
2.17708e-05
2.17808e-05
2.20949e-05
2.20974e-05
2.18201e-05
2.15579e-05
2.1581e-05
2.15865e-05
2.14645e-05
2.12447e-05
2.12117e-05
2.12796e-05
2.17112e-05
2.24652e-05
2.28498e-05
2.30014e-05
2.30465e-05
2.29702e-05
2.24253e-05
2.16545e-05
2.0813e-05
2.15412e-05
2.22563e-05
2.23847e-05
2.19596e-05
2.11458e-05
2.08407e-05
2.07716e-05
2.07643e-05
2.07754e-05
2.08506e-05
2.11199e-05
2.14556e-05
2.1658e-05
2.17264e-05
2.17247e-05
2.16435e-05
2.13544e-05
2.12517e-05
2.12607e-05
2.1159e-05
2.08448e-05
2.06034e-05
2.04565e-05
2.04043e-05
2.03865e-05
2.03852e-05
2.03939e-05
2.04689e-05
2.05892e-05
2.06368e-05
2.0648e-05
2.06437e-05
2.06113e-05
2.05705e-05
2.05599e-05
2.03343e-05
2.05393e-05
2.05283e-05
2.04643e-05
2.04049e-05
2.04074e-05
2.04272e-05
2.04893e-05
2.05463e-05
2.0574e-05
2.05814e-05
2.05786e-05
2.05766e-05
2.05801e-05
2.05638e-05
2.0521e-05
2.05027e-05
2.04998e-05
2.09593e-05
2.1311e-05
2.09758e-05
2.05327e-05
2.03658e-05
2.03238e-05
2.03486e-05
2.04553e-05
2.08252e-05
2.133e-05
2.15783e-05
2.1646e-05
2.16415e-05
2.15523e-05
2.12266e-05
2.09451e-05
2.08074e-05
2.07581e-05
2.02058e-05
2.09005e-05
2.11462e-05
2.11045e-05
2.08676e-05
2.07906e-05
2.08297e-05
2.1066e-05
2.12428e-05
2.12892e-05
2.13386e-05
2.14432e-05
2.16117e-05
2.17131e-05
2.17162e-05
2.15782e-05
2.12144e-05
2.10423e-05
2.01963e-05
2.09396e-05
2.11554e-05
2.12307e-05
2.12033e-05
2.0956e-05
2.07609e-05
2.08014e-05
2.07176e-05
2.05938e-05
2.0591e-05
2.06726e-05
2.11247e-05
2.19408e-05
2.22465e-05
2.22471e-05
2.20351e-05
2.1444e-05
2.02036e-05
2.0754e-05
2.07641e-05
2.07108e-05
2.05474e-05
2.04642e-05
2.05277e-05
2.12362e-05
2.18638e-05
2.18749e-05
2.16909e-05
2.1407e-05
2.12222e-05
2.10645e-05
2.09317e-05
2.08581e-05
2.08179e-05
2.07604e-05
2.02322e-05
2.03517e-05
2.03889e-05
2.04707e-05
2.04982e-05
2.05109e-05
2.0648e-05
2.14853e-05
2.1764e-05
2.16209e-05
2.13066e-05
2.12103e-05
2.12104e-05
2.12196e-05
2.12241e-05
2.12486e-05
2.13378e-05
2.14121e-05
2.03693e-05
2.05129e-05
2.04092e-05
2.03777e-05
2.04292e-05
2.04889e-05
2.04853e-05
2.04083e-05
2.03029e-05
2.02876e-05
2.0321e-05
2.05259e-05
2.1337e-05
2.23605e-05
2.29e-05
2.30799e-05
2.31016e-05
2.30828e-05
2.01569e-05
2.01706e-05
2.01896e-05
2.03325e-05
2.06105e-05
2.06445e-05
2.06e-05
2.03904e-05
2.02471e-05
2.0228e-05
2.02547e-05
2.04295e-05
2.12361e-05
2.2553e-05
2.31824e-05
2.33344e-05
2.33347e-05
2.32799e-05
2.04346e-05
2.04239e-05
2.04941e-05
2.10287e-05
2.16758e-05
2.16386e-05
2.12108e-05
2.07479e-05
2.05753e-05
2.05394e-05
2.05452e-05
2.05971e-05
2.07989e-05
2.13651e-05
2.19336e-05
2.22975e-05
2.24524e-05
2.24852e-05
2.02193e-05
2.01462e-05
2.00949e-05
2.00897e-05
2.00811e-05
2.00172e-05
1.98367e-05
1.98099e-05
1.98428e-05
1.99572e-05
2.03086e-05
2.06537e-05
2.07448e-05
2.06769e-05
2.0429e-05
2.03659e-05
2.04348e-05
2.045e-05
2.03153e-05
1.59622e-05
1.34296e-05
1.47431e-05
1.74971e-05
2.29555e-05
2.90511e-05
3.27873e-05
3.54509e-05
3.96306e-05
4.88384e-05
6.167e-05
7.43785e-05
8.36416e-05
9.04975e-05
9.42363e-05
9.72184e-05
9.75505e-05
3.53098e-05
0.000132792
0.00017897
0.000207698
0.000258255
0.0003353
0.000397476
0.000429933
0.00045034
0.00048064
0.000533576
0.000603425
0.000664253
0.000694441
0.000700161
0.000699551
0.000696432
0.000686583
0.00324635
0.00320006
0.00287099
0.00246754
0.00230197
0.00220402
0.00210123
0.00201442
0.00196377
0.00194282
0.00193314
0.00191862
0.00188295
0.00177272
0.00160222
0.00145975
0.00135034
0.00127786
0.000211081
0.000604256
0.000807118
0.00099842
0.00121091
0.00152783
0.00207659
0.00214025
0.00203263
0.00168465
0.00144565
0.00126008
0.00112606
0.00102896
0.000952142
0.000903766
0.000854406
0.000816261
0.000776076
0.000742659
0.000720739
0.000675712
0.000677154
0.000689115
0.00071355
0.000750034
0.000779643
0.000769138
0.000733676
0.000640385
0.000649376
0.000860022
0.00167884
0.0023252
0.00268448
0.0030441
0.00358076
0.00455193
0.00657892
0.0113116
0.0175252
0.0190892
0.0162971
0.0149172
0.017297
0.0395199
0.0483077
0.0161576
0.00208675
0.00082922
0.000648732
0.000651864
0.000668471
0.000690584
0.000667536
0.000595501
0.000528384
0.000450671
0.000351133
0.000301757
0.000216851
0.000172858
0.000133566
0.000103673
8.48048e-05
7.57392e-05
7.22599e-05
7.22443e-05
7.55919e-05
7.81782e-05
8.00049e-05
8.24731e-05
8.37544e-05
8.50277e-05
8.59005e-05
8.63004e-05
8.6479e-05
8.65172e-05
8.61279e-05
8.52922e-05
8.46786e-05
8.38876e-05
8.22164e-05
8.02661e-05
7.87297e-05
7.71651e-05
7.53213e-05
7.36232e-05
7.22985e-05
7.07683e-05
6.8712e-05
6.65843e-05
6.44455e-05
6.23642e-05
6.05504e-05
5.85524e-05
5.59804e-05
5.34753e-05
5.13823e-05
4.88511e-05
4.64993e-05
4.42149e-05
4.19578e-05
3.97607e-05
3.75865e-05
3.54354e-05
3.32731e-05
3.11113e-05
2.89393e-05
2.67468e-05
2.45287e-05
2.22609e-05
1.98732e-05
1.74255e-05
1.50224e-05
1.27651e-05
1.0753e-05
9.00168e-06
7.47297e-06
6.15226e-06
5.02258e-06
4.07122e-06
3.27508e-06
2.61968e-06
2.0912e-06
1.6679e-06
1.33046e-06
1.06258e-06
8.50996e-07
6.84705e-07
5.54383e-07
4.52165e-07
3.71552e-07
3.0733e-07
2.55467e-07
2.12966e-07
1.77666e-07
1.48042e-07
1.23013e-07
1.01801e-07
8.38199e-08
6.86103e-08
5.57949e-08
4.50539e-08
3.61091e-08
2.87145e-08
2.26502e-08
1.77185e-08
1.37423e-08
1.05643e-08
8.04673e-09
6.07069e-09
4.53442e-09
3.35184e-09
2.45087e-09
1.77184e-09
1.26595e-09
8.93682e-10
6.23261e-10
4.2934e-10
2.92048e-10
1.96114e-10
1.29965e-10
8.49801e-11
5.48047e-11
3.48574e-11
2.18507e-11
1.3504e-11
8.21541e-12
4.92788e-12
2.90055e-12
1.69157e-12
9.46963e-13
5.60107e-13
2.5094e-13
2.0546e-13
1.84855e-12
8.41675e-10
3.59311e-07
5.89774e-07
0.000218973
0.000632805
0.00112271
0.00171399
0.00191537
0.00190861
0.0019499
0.00194076
0.00187365
0.00173349
0.00157465
0.00144137
0.00136271
0.00132537
0.00132073
0.00132471
0.00134002
0.00134404
0.00135056
0.00134603
0.00133315
0.00130754
0.00126418
0.00122145
0.00113516
0.00104245
0.000960237
0.000884053
0.000840446
0.000745692
0.00072987
0.000763989
0.000897816
0.00106401
0.00124295
0.00132021
0.00129428
0.00124241
0.00130546
0.00159264
0.00239854
0.00300064
0.00466077
0.013226
0.0215086
0.0219874
0.0110781
0.00295004
0.00082952
0.00048362
0.000382572
0.000341188
0.000302126
0.000268402
0.000236285
0.000210846
0.000195196
0.000184798
0.000179523
0.000177793
0.000177388
0.000182481
0.000189038
0.000196764
0.000204389
0.000213087
0.00021823
0.00022549
0.000229785
0.000232739
0.000234169
0.000234934
0.00023536
0.000235587
0.000235702
0.000235756
0.000235561
0.000234745
0.000233479
0.000232103
0.000230676
0.000228999
0.000226926
0.000224673
0.000222522
0.000220227
0.000217375
0.000214428
0.000211707
0.000208536
0.000204427
0.000199691
0.000194428
0.000188487
0.000182133
0.000175012
0.000166664
0.000158053
0.000149425
0.00013971
0.00013078
0.000121909
0.000114046
0.000106868
0.000100311
9.41477e-05
8.8175e-05
8.2526e-05
7.72818e-05
7.24429e-05
6.7954e-05
6.374e-05
5.97748e-05
5.59254e-05
5.20382e-05
4.79314e-05
4.358e-05
3.91626e-05
3.48813e-05
3.08266e-05
2.70215e-05
2.34648e-05
2.01787e-05
1.71871e-05
1.45088e-05
1.21618e-05
1.01455e-05
8.44146e-06
7.02242e-06
5.85656e-06
4.9091e-06
4.14451e-06
3.52898e-06
3.03173e-06
2.62543e-06
2.28681e-06
1.99744e-06
1.74413e-06
1.51843e-06
1.31548e-06
1.13267e-06
9.68514e-07
8.21974e-07
6.9211e-07
5.77953e-07
4.78486e-07
3.92641e-07
3.193e-07
2.57284e-07
2.05384e-07
1.62388e-07
1.27125e-07
9.84989e-08
7.55123e-08
5.72557e-08
4.29146e-08
3.17737e-08
2.32241e-08
1.67561e-08
1.19329e-08
8.38579e-09
5.81355e-09
3.97452e-09
2.67901e-09
1.77967e-09
1.16505e-09
7.51151e-10
4.77079e-10
2.98098e-10
1.83521e-10
1.10792e-10
6.63024e-11
3.80492e-11
2.30456e-11
1.07989e-11
8.3925e-12
8.30679e-12
3.44008e-10
6.83059e-08
9.67332e-08
0.000680842
0.00105243
0.0031188
0.00416393
0.00331994
0.00235707
0.00189853
0.00158966
0.00149681
0.00148952
0.00150166
0.00155303
0.00169769
0.00184502
0.00198408
0.0021531
0.00226893
0.00236123
0.00237994
0.0023697
0.00233701
0.00228889
0.00218806
0.00211135
0.00200574
0.00187093
0.00163362
0.00133612
0.00113848
0.000971881
0.000862479
0.000814443
0.000822231
0.0008418
0.000891915
0.00090865
0.000864414
0.00090239
0.00121531
0.00177316
0.00394231
0.0101174
0.011766
0.0129479
0.0099855
0.00386859
0.0015228
0.000538221
0.000309053
0.000254402
0.000233654
0.000223217
0.000215596
0.000210887
0.000209138
0.0002089
0.000211786
0.000220804
0.000231472
0.000246148
0.000259217
0.000270744
0.000277773
0.000282763
0.000285325
0.000287506
0.000288209
0.000288306
0.000287212
0.000283493
0.000279499
0.000276583
0.000273956
0.000271685
0.000270414
0.000269887
0.000269665
0.000269596
0.000269618
0.000269693
0.000269731
0.000269651
0.000269471
0.000269217
0.000268794
0.000268045
0.000266911
0.000265393
0.000263394
0.000261141
0.000258566
0.000255517
0.000252173
0.000248647
0.000244703
0.000240152
0.000234714
0.000228555
0.000221782
0.00021354
0.00020398
0.000192865
0.000181195
0.000169524
0.000157732
0.000145881
0.000134114
0.000122451
0.000111099
0.000100432
9.10567e-05
8.3532e-05
7.72749e-05
7.1985e-05
6.73605e-05
6.32675e-05
5.96473e-05
5.63784e-05
5.32352e-05
5.01591e-05
4.70641e-05
4.37929e-05
4.01935e-05
3.623e-05
3.20179e-05
2.77713e-05
2.37193e-05
2.00035e-05
1.66451e-05
1.36611e-05
1.10822e-05
8.92686e-06
7.18538e-06
5.81817e-06
4.76612e-06
3.96404e-06
3.35118e-06
2.87688e-06
2.50191e-06
2.19735e-06
1.9426e-06
1.72337e-06
1.52995e-06
1.3559e-06
1.19712e-06
1.05108e-06
9.16349e-07
7.92382e-07
6.791e-07
5.76417e-07
4.84298e-07
4.02661e-07
3.31222e-07
2.69477e-07
2.16763e-07
1.72316e-07
1.35318e-07
1.04923e-07
8.02827e-08
6.0586e-08
4.50712e-08
3.30378e-08
2.38503e-08
1.69516e-08
1.18557e-08
8.1587e-09
5.52047e-09
3.67392e-09
2.40078e-09
1.54284e-09
9.70709e-10
6.02414e-10
3.64406e-10
2.15573e-10
1.32077e-10
6.07871e-11
7.66632e-11
7.16735e-11
2.39085e-09
7.13877e-09
0.00423059
0.00521663
0.00755125
0.00595239
0.00364212
0.00224893
0.00160384
0.00144438
0.00143762
0.0014745
0.00158721
0.00187021
0.00214896
0.0025088
0.00278728
0.00291499
0.00298191
0.0030129
0.00300789
0.00299046
0.00295189
0.00290496
0.0028476
0.00274837
0.00267665
0.0025449
0.00240154
0.00222086
0.00188861
0.00159583
0.00132862
0.00108598
0.000917078
0.00085997
0.000812076
0.000773966
0.000802714
0.00134062
0.00416693
0.00849857
0.00937703
0.00976827
0.00822
0.00512007
0.00204073
0.000809228
0.000394098
0.000268852
0.000245721
0.000241853
0.000242535
0.000254191
0.000272988
0.000286641
0.000304187
0.000320383
0.000337192
0.000348096
0.0003532
0.000355383
0.000355945
0.000355583
0.000352077
0.000346245
0.000339243
0.000331803
0.000324885
0.000318114
0.000310094
0.000302029
0.000294888
0.000288649
0.000284331
0.000281664
0.000280821
0.000280692
0.000280852
0.000281452
0.000282484
0.000283828
0.000284867
0.000285194
0.000285276
0.00028524
0.000284772
0.000283531
0.000281452
0.00027832
0.000274085
0.000269555
0.000265164
0.000261425
0.000257789
0.00025414
0.000250478
0.000246867
0.000243006
0.000238861
0.000234423
0.000229218
0.000223386
0.000216353
0.000206997
0.00019661
0.000185966
0.00017547
0.000165416
0.000155587
0.000145716
0.000135337
0.000123845
0.00011102
9.85002e-05
8.79673e-05
8.04534e-05
7.50033e-05
7.08416e-05
6.74578e-05
6.46455e-05
6.22392e-05
6.01008e-05
5.81608e-05
5.62952e-05
5.41386e-05
5.14201e-05
4.80537e-05
4.40572e-05
3.94677e-05
3.43655e-05
2.88921e-05
2.33375e-05
1.81353e-05
1.36976e-05
1.02155e-05
7.64163e-06
5.79377e-06
4.47337e-06
3.52417e-06
2.83594e-06
2.33204e-06
1.95834e-06
1.67593e-06
1.45692e-06
1.28161e-06
1.13639e-06
1.01214e-06
9.02737e-07
8.03977e-07
7.13035e-07
6.28385e-07
5.49301e-07
4.75532e-07
4.07232e-07
3.44759e-07
2.88434e-07
2.38421e-07
1.94685e-07
1.57004e-07
1.25007e-07
9.82221e-08
7.61315e-08
5.81961e-08
4.38553e-08
3.25641e-08
2.38108e-08
1.7135e-08
1.2127e-08
8.43691e-09
5.7676e-09
3.87282e-09
2.55558e-09
1.65219e-09
1.05305e-09
6.49735e-10
4.048e-10
2.29891e-10
1.49295e-10
7.32997e-11
1.24107e-10
3.94662e-10
0.00265538
0.0123875
0.00971902
0.00458973
0.00220565
0.00154832
0.00141649
0.00143483
0.00153901
0.00176245
0.00210934
0.00255943
0.00283364
0.00310745
0.00323201
0.00325648
0.00328397
0.00332625
0.00334434
0.00333176
0.00329583
0.00325712
0.00321057
0.00312847
0.00303538
0.00293071
0.00273111
0.00257655
0.00238073
0.00199959
0.00170215
0.0013694
0.00111487
0.00094943
0.000819254
0.000823289
0.00149523
0.00577427
0.00803692
0.00843596
0.00795137
0.00531277
0.00245187
0.00122587
0.000565469
0.000334837
0.000273193
0.000262089
0.000264703
0.000288093
0.000310858
0.000329657
0.000339127
0.000350116
0.000359233
0.000368546
0.000373887
0.000375831
0.000376348
0.000376181
0.000373868
0.000369145
0.000362371
0.000353613
0.000344366
0.000335794
0.000326997
0.000317273
0.000307566
0.000298683
0.000290702
0.0002857
0.000283895
0.000283521
0.000283633
0.000284275
0.000285593
0.000287439
0.000289589
0.00029201
0.000293601
0.000293885
0.000293734
0.00029313
0.000292004
0.000289976
0.000286539
0.000282155
0.000276603
0.000270453
0.000263857
0.000256745
0.000249323
0.000242415
0.000236307
0.000231908
0.000229545
0.000228718
0.000228158
0.000226669
0.000223937
0.000220017
0.000214218
0.000204585
0.0001927
0.000180887
0.000169801
0.000160039
0.000151782
0.000144084
0.000136525
0.000128855
0.000120206
0.000109641
9.73482e-05
8.61747e-05
7.79838e-05
7.24062e-05
6.85002e-05
6.55864e-05
6.32294e-05
6.1243e-05
5.96168e-05
5.8306e-05
5.70114e-05
5.53002e-05
5.3001e-05
5.03428e-05
4.76174e-05
4.47659e-05
4.14088e-05
3.71673e-05
3.20626e-05
2.65763e-05
2.12869e-05
1.65851e-05
1.26384e-05
9.47557e-06
7.04284e-06
5.23576e-06
3.92033e-06
2.96786e-06
2.27909e-06
1.78247e-06
1.42504e-06
1.16665e-06
9.77005e-07
8.33821e-07
7.21402e-07
6.29353e-07
5.50761e-07
4.80781e-07
4.16178e-07
3.56183e-07
3.0122e-07
2.51622e-07
2.07593e-07
1.6916e-07
1.36163e-07
1.08284e-07
8.50685e-08
6.59826e-08
5.0503e-08
3.81273e-08
2.83778e-08
2.08131e-08
1.50346e-08
1.06918e-08
7.48123e-09
5.14655e-09
3.48119e-09
2.31173e-09
1.51064e-09
9.64428e-10
6.10705e-10
3.7003e-10
2.30941e-10
1.30951e-10
7.91389e-11
6.59482e-11
0.00404493
0.00784642
0.00449874
0.00215118
0.00146589
0.00138535
0.00144884
0.00163493
0.00197167
0.00245494
0.00285057
0.00321332
0.00348498
0.0039353
0.00409839
0.00434716
0.00453877
0.00477938
0.00498404
0.00503772
0.0049887
0.00484596
0.00454498
0.00416898
0.00383121
0.00354384
0.00318654
0.0029312
0.00277717
0.00250719
0.002036
0.00165986
0.00136376
0.000995992
0.000878425
0.00155536
0.00557894
0.00713269
0.00744532
0.00632075
0.00349589
0.00166733
0.000797291
0.000455511
0.0003238
0.000288841
0.000283517
0.000304448
0.00032909
0.000346986
0.00035648
0.000361939
0.000366549
0.000373134
0.000379148
0.000387415
0.000391011
0.000392127
0.00039238
0.000391742
0.000388125
0.00038157
0.000373619
0.000365532
0.000358381
0.000351239
0.00034118
0.000330162
0.000321181
0.000312244
0.000308785
0.000308339
0.000308674
0.000309731
0.000311444
0.00031388
0.000316258
0.000316832
0.00031657
0.000315081
0.000312151
0.000308378
0.000304534
0.000300617
0.000297032
0.000293431
0.000289119
0.000284254
0.000278367
0.000271636
0.000263802
0.000255224
0.000245997
0.000236454
0.000226893
0.000217986
0.000209934
0.000203482
0.000199505
0.000200799
0.000206612
0.000213879
0.000215563
0.00021347
0.000205415
0.00018923
0.000172575
0.000158575
0.000147643
0.000140241
0.000135414
0.000130011
0.000123947
0.000117468
0.000110343
0.000101601
9.1238e-05
8.15195e-05
7.42992e-05
6.92759e-05
6.56912e-05
6.29605e-05
6.07746e-05
5.907e-05
5.78387e-05
5.69045e-05
5.57982e-05
5.40241e-05
5.15335e-05
4.88333e-05
4.64087e-05
4.42964e-05
4.20315e-05
3.89469e-05
3.47255e-05
2.96481e-05
2.43279e-05
1.93218e-05
1.49607e-05
1.13671e-05
8.51829e-06
6.30811e-06
4.61514e-06
3.34134e-06
2.40617e-06
1.73717e-06
1.26992e-06
9.49831e-07
7.32862e-07
5.84972e-07
4.81544e-07
4.06413e-07
3.49851e-07
3.04615e-07
2.65245e-07
2.28539e-07
1.93963e-07
1.62042e-07
1.33217e-07
1.07775e-07
8.58244e-08
6.72994e-08
5.19809e-08
3.95512e-08
2.96458e-08
2.18872e-08
1.59137e-08
1.13901e-08
8.02457e-09
5.56025e-09
3.79022e-09
2.53596e-09
1.67045e-09
1.07544e-09
6.84612e-10
4.22374e-10
2.59885e-10
1.53114e-10
8.94671e-11
5.51126e-11
0.00331007
0.00320648
0.00222703
0.00137398
0.00127573
0.00137882
0.00168018
0.00215168
0.00266683
0.0033128
0.00392129
0.00451518
0.0048802
0.00526918
0.00551751
0.00606458
0.00649392
0.00709733
0.00748614
0.00780962
0.00776922
0.00756814
0.00713811
0.0063016
0.0053813
0.00478619
0.00420255
0.00352904
0.00300425
0.00264251
0.00221881
0.00180022
0.00135021
0.000988051
0.00132971
0.0048587
0.00631821
0.00655419
0.00493432
0.00246317
0.00125141
0.000649604
0.000405115
0.000326398
0.000305589
0.000301539
0.000327572
0.000351864
0.000363252
0.000373361
0.000377996
0.000381607
0.000386741
0.000393061
0.000402158
0.000411398
0.00041874
0.000422527
0.000424173
0.000424467
0.000422649
0.00041601
0.000406975
0.000403543
0.000402329
0.00040082
0.000393254
0.000379222
0.000366258
0.000360438
0.000357482
0.000353977
0.000352328
0.000351569
0.000351158
0.000350232
0.000348546
0.000345731
0.000341422
0.000337551
0.000333247
0.000327943
0.000321834
0.000314978
0.000309454
0.00030367
0.000298222
0.000293611
0.000289166
0.000284087
0.000278064
0.000270553
0.000261937
0.000252307
0.000241831
0.000230654
0.000217916
0.000203667
0.000191712
0.000181418
0.000174954
0.000175584
0.000190547
0.000209558
0.000217053
0.000216907
0.000202298
0.00017329
0.000149222
0.000133364
0.000123911
0.000120405
0.000119143
0.000116067
0.000111349
0.0001057
9.92507e-05
9.16127e-05
8.29672e-05
7.52338e-05
6.95321e-05
6.54225e-05
6.23378e-05
5.99125e-05
5.8053e-05
5.67885e-05
5.60165e-05
5.53336e-05
5.4146e-05
5.20065e-05
4.91099e-05
4.62125e-05
4.39092e-05
4.22472e-05
4.0709e-05
3.85267e-05
3.52157e-05
3.08518e-05
2.59316e-05
2.10316e-05
1.65723e-05
1.27555e-05
9.6177e-06
7.09744e-06
5.11445e-06
3.60002e-06
2.48402e-06
1.69115e-06
1.14738e-06
7.86479e-07
5.53456e-07
4.05529e-07
3.11146e-07
2.49019e-07
2.06263e-07
1.75669e-07
1.5179e-07
1.30753e-07
1.10957e-07
9.24941e-08
7.56779e-08
6.07663e-08
4.78963e-08
3.70718e-08
2.81869e-08
2.10589e-08
1.54631e-08
1.11599e-08
7.91637e-09
5.51836e-09
3.78005e-09
2.54289e-09
1.68015e-09
1.08907e-09
6.93074e-10
4.32336e-10
2.64478e-10
1.58653e-10
9.28955e-11
5.39819e-11
0.000865377
0.00193532
0.00143237
0.00111761
0.00123861
0.00160708
0.00227862
0.00300761
0.00380114
0.00433979
0.00476861
0.00507715
0.00537089
0.00574359
0.00613568
0.00697452
0.00812706
0.00953707
0.0107937
0.0115809
0.0123343
0.0122343
0.0117748
0.0107323
0.00840249
0.00649462
0.00505371
0.00395186
0.00336561
0.00277956
0.00221137
0.0017559
0.00120678
0.00118244
0.00386696
0.00557123
0.0058563
0.00436074
0.00204843
0.00102406
0.000576146
0.000394015
0.000335322
0.000322783
0.000320648
0.000352029
0.000372889
0.000381731
0.000387525
0.000393993
0.000399915
0.000406802
0.000417117
0.000430691
0.000448382
0.000464923
0.00048068
0.000494807
0.000510146
0.000528919
0.00054887
0.000557614
0.000561256
0.000562852
0.000563153
0.000570664
0.000573581
0.000560606
0.000520326
0.000493948
0.000482729
0.00046837
0.00044179
0.000429434
0.000422984
0.00041674
0.000413646
0.000412115
0.000410874
0.000410339
0.000407406
0.000400372
0.000389978
0.000378837
0.000368199
0.000356601
0.000347053
0.000337589
0.000326925
0.000315577
0.00030404
0.000293915
0.000284703
0.000276435
0.000269594
0.000264893
0.00026278
0.000258356
0.00024329
0.000216176
0.000183159
0.000161939
0.000152361
0.000156893
0.000189022
0.000219392
0.000228329
0.000224224
0.000193285
0.000149384
0.000123266
0.00011056
0.000105133
0.000104753
0.000104797
0.000103119
9.92919e-05
9.44793e-05
8.88213e-05
8.21557e-05
7.50112e-05
6.90413e-05
6.45806e-05
6.12727e-05
5.87227e-05
5.67671e-05
5.54508e-05
5.47246e-05
5.4264e-05
5.35847e-05
5.21179e-05
4.94639e-05
4.62308e-05
4.32701e-05
4.11294e-05
3.98097e-05
3.87812e-05
3.7281e-05
3.47402e-05
3.10645e-05
2.65966e-05
2.18889e-05
1.74316e-05
1.34879e-05
1.01484e-05
7.40927e-06
5.23991e-06
3.59226e-06
2.39425e-06
1.55924e-06
1.00015e-06
6.39665e-07
4.15071e-07
2.79023e-07
1.97818e-07
1.48694e-07
1.17767e-07
9.74305e-08
8.31066e-08
7.13594e-08
6.04657e-08
5.02286e-08
4.08355e-08
3.24779e-08
2.52761e-08
1.92585e-08
1.43739e-08
1.05144e-08
7.5411e-09
5.3045e-09
3.66008e-09
2.47743e-09
1.64515e-09
1.07155e-09
6.84441e-10
4.28674e-10
2.63093e-10
1.58299e-10
9.3201e-11
5.39705e-11
0.00144952
0.00186804
0.00105621
0.00104998
0.00139666
0.00229812
0.00303959
0.00367952
0.00422415
0.00460045
0.00493921
0.00521279
0.00556457
0.00606498
0.00709592
0.00909277
0.0122777
0.0150788
0.0171929
0.0188311
0.0195568
0.0193192
0.0185315
0.0170603
0.0147722
0.011116
0.00767147
0.00511133
0.00355103
0.00272823
0.00212656
0.00151295
0.00126611
0.00278892
0.00489359
0.00525869
0.00415121
0.00191277
0.000944748
0.000550258
0.000399804
0.000349602
0.00033679
0.000337148
0.00036342
0.000381367
0.000391417
0.000399984
0.00040757
0.000417684
0.00043085
0.000448551
0.00047336
0.000506321
0.000547204
0.000592589
0.000640966
0.0006955
0.00076093
0.000843589
0.000942808
0.00104596
0.00112562
0.00116351
0.00117646
0.00116797
0.00117207
0.00116577
0.00107414
0.000932764
0.000865054
0.000815942
0.000713749
0.000651794
0.000611696
0.000583069
0.000567115
0.000559201
0.000553569
0.000546982
0.000533905
0.000506488
0.000474545
0.000445284
0.000418424
0.000394943
0.000373318
0.000353733
0.000335322
0.000318524
0.000301071
0.000283308
0.000266811
0.00025415
0.000248437
0.000251654
0.000261831
0.000274241
0.000285594
0.000289733
0.000276776
0.000226854
0.000167432
0.000140243
0.00013739
0.000159659
0.000213467
0.000234962
0.00023453
0.000213946
0.000156942
0.000117928
0.000101313
9.45749e-05
9.27852e-05
9.2583e-05
9.213e-05
9.10596e-05
8.86477e-05
8.48932e-05
7.99706e-05
7.3905e-05
6.79503e-05
6.32262e-05
5.9681e-05
5.70157e-05
5.50714e-05
5.38358e-05
5.31788e-05
5.28215e-05
5.23749e-05
5.14431e-05
4.9305e-05
4.617e-05
4.28983e-05
4.01925e-05
3.84107e-05
3.74646e-05
3.68408e-05
3.58108e-05
3.38054e-05
3.06188e-05
2.64352e-05
2.18009e-05
1.73071e-05
1.32725e-05
9.82933e-06
7.01958e-06
4.83397e-06
3.21536e-06
2.07159e-06
1.298e-06
7.95809e-07
4.8216e-07
2.93243e-07
1.83099e-07
1.20421e-07
8.48647e-08
6.40886e-08
5.14175e-08
4.32361e-08
3.69723e-08
3.12592e-08
2.58569e-08
2.08655e-08
1.64143e-08
1.25923e-08
9.42745e-09
6.89376e-09
4.92751e-09
3.44503e-09
2.35715e-09
1.57895e-09
1.03584e-09
6.65563e-10
4.18976e-10
2.58365e-10
1.56144e-10
9.23794e-11
5.36671e-11
0.00169867
0.00179075
0.000711551
0.00104794
0.00203579
0.00281406
0.00327709
0.00382737
0.00430597
0.00463718
0.00495595
0.00523888
0.00564613
0.00661794
0.00861779
0.0119444
0.0158151
0.0195339
0.0220558
0.0239447
0.0246439
0.024345
0.0232949
0.0211788
0.017583
0.0124372
0.00788482
0.00499928
0.00339517
0.00252488
0.00179118
0.001501
0.00200753
0.00426129
0.00475873
0.00420788
0.00193513
0.000952926
0.000567665
0.000425082
0.000375989
0.000358801
0.000360692
0.000389223
0.000409344
0.000420437
0.000431177
0.000442029
0.000454629
0.000474102
0.000500403
0.00053785
0.00058856
0.000660582
0.000758318
0.00088424
0.00103443
0.00121748
0.00143138
0.00167531
0.00194656
0.0022614
0.00256966
0.00271332
0.00277056
0.00276033
0.00262161
0.00257203
0.0023729
0.00205235
0.00182201
0.00165811
0.00135254
0.00121141
0.00104074
0.000927643
0.000835235
0.000772999
0.000717639
0.000661973
0.000601101
0.000548777
0.000504808
0.000466477
0.00043369
0.000406289
0.000381507
0.000359001
0.000336318
0.000313383
0.000289189
0.00026348
0.000236598
0.000209378
0.000184546
0.000167009
0.000165182
0.000188693
0.000237781
0.000286183
0.000306217
0.00030477
0.000272924
0.000188992
0.00013811
0.000130983
0.000145938
0.000205138
0.000234266
0.000234503
0.000216747
0.000158745
0.000112962
9.4024e-05
8.70594e-05
8.47016e-05
8.29757e-05
8.19683e-05
8.18139e-05
8.16445e-05
8.06439e-05
7.71628e-05
7.20353e-05
6.64861e-05
6.15751e-05
5.77206e-05
5.48725e-05
5.29633e-05
5.1908e-05
5.1415e-05
5.11633e-05
5.08461e-05
5.01716e-05
4.84786e-05
4.55202e-05
4.22938e-05
3.94445e-05
3.73317e-05
3.59813e-05
3.52246e-05
3.47393e-05
3.40582e-05
3.26054e-05
2.95177e-05
2.52771e-05
2.05563e-05
1.60266e-05
1.20083e-05
8.64625e-06
5.98388e-06
3.98686e-06
2.5633e-06
1.59482e-06
9.63512e-07
5.67957e-07
3.29139e-07
1.89967e-07
1.11566e-07
6.86974e-08
4.56152e-08
3.29733e-08
2.57935e-08
2.14916e-08
1.835e-08
1.54833e-08
1.27353e-08
1.0176e-08
7.89475e-09
5.95149e-09
4.36466e-09
3.11775e-09
2.17158e-09
1.47626e-09
9.80265e-10
6.36191e-10
4.03776e-10
2.50697e-10
1.5238e-10
9.06147e-11
5.29159e-11
0.00171383
0.00144163
0.000612829
0.00141145
0.00241424
0.0029128
0.00330629
0.00382257
0.00422806
0.00445919
0.00474023
0.00506208
0.00565478
0.00686666
0.00922829
0.0130341
0.0173751
0.0215165
0.0242028
0.0251037
0.025023
0.0243466
0.0230699
0.0206931
0.0167204
0.0114983
0.00714346
0.00438247
0.00283215
0.00198825
0.00172347
0.0018607
0.00365959
0.00428315
0.00418894
0.00210851
0.0010227
0.000614285
0.000467984
0.000417126
0.000395193
0.000402559
0.000426825
0.00044441
0.000453765
0.000462462
0.000469075
0.000473481
0.0004988
0.000536015
0.000591347
0.000672422
0.000785653
0.000947826
0.00117393
0.00147784
0.00187655
0.00241758
0.00295587
0.00350355
0.00407512
0.00460404
0.00509359
0.00541907
0.00556165
0.00559717
0.00531933
0.00497137
0.00448534
0.00385645
0.00335469
0.00290863
0.00234788
0.00203903
0.00170937
0.00143601
0.00122719
0.00103787
0.000888241
0.000757192
0.000655351
0.000584504
0.000524992
0.000480248
0.000446079
0.000420165
0.000399953
0.000383306
0.000368273
0.000352198
0.000332237
0.000305684
0.000272277
0.000232518
0.000190226
0.000154836
0.000130302
0.000117478
0.000119221
0.000159182
0.000251144
0.000303088
0.000306465
0.000282398
0.000200578
0.000140298
0.000131635
0.000145805
0.000199828
0.000225485
0.000225226
0.000205322
0.000149604
0.000106283
8.76007e-05
8.07e-05
7.84862e-05
7.66888e-05
7.50586e-05
7.45481e-05
7.45727e-05
7.45354e-05
7.35812e-05
6.9889e-05
6.45825e-05
5.96499e-05
5.56031e-05
5.26101e-05
5.06872e-05
4.97216e-05
4.93586e-05
4.92032e-05
4.90037e-05
4.85564e-05
4.73357e-05
4.44921e-05
4.12742e-05
3.8371e-05
3.61311e-05
3.46258e-05
3.37434e-05
3.32545e-05
3.28608e-05
3.21961e-05
3.07649e-05
2.74864e-05
2.29203e-05
1.81128e-05
1.36849e-05
9.9036e-06
6.87265e-06
4.58216e-06
2.94275e-06
1.82534e-06
1.09639e-06
6.39381e-07
3.63244e-07
2.02201e-07
1.11499e-07
6.21506e-08
3.61683e-08
2.27971e-08
1.5874e-08
1.21968e-08
1.014e-08
8.67746e-09
7.31264e-09
5.97271e-09
4.71379e-09
3.5961e-09