/*--------------------------------*- C++ -*----------------------------------*\
  =========                 |
  \\      /  F ield         | OpenFOAM: The Open Source CFD Toolbox
   \\    /   O peration     | Website:  https://openfoam.org
    \\  /    A nd           | Version:  7
     \\/     M anipulation  |
\*---------------------------------------------------------------------------*/
FoamFile
{
    version     2.0;
    format      ascii;
    class       volScalarField;
    location    "0.061";
    object      k_0;
}
// * * * * * * * * * * * * * * * * * * * * * * * * * * * * * * * * * * * * * //

dimensions      [0 2 -2 0 0 0 0];

internalField   nonuniform List<scalar> 
12225
(
1.93264e-05
1.80861e-05
1.66229e-05
1.55142e-05
1.38854e-05
1.27561e-05
1.14769e-05
1.01809e-05
9.19226e-06
7.45558e-06
5.9749e-06
5.69884e-06
6.04347e-06
6.34273e-06
5.92048e-06
4.71072e-06
4.09191e-06
4.77179e-06
1.99788e-05
1.98853e-05
1.96919e-05
1.94736e-05
1.90629e-05
1.8818e-05
1.83618e-05
1.78822e-05
1.7694e-05
1.71335e-05
1.63385e-05
1.58152e-05
1.52948e-05
1.49403e-05
1.46199e-05
1.43098e-05
1.38376e-05
1.35371e-05
1.99993e-05
1.95888e-05
1.9289e-05
1.91755e-05
1.90858e-05
1.89845e-05
1.87552e-05
1.86341e-05
1.85701e-05
1.84211e-05
1.82048e-05
1.80244e-05
1.78454e-05
1.76854e-05
1.75929e-05
1.74918e-05
1.74201e-05
1.72716e-05
2.00863e-05
2.03484e-05
2.02864e-05
1.98194e-05
1.84933e-05
1.62949e-05
1.48107e-05
1.42247e-05
1.41197e-05
1.41446e-05
1.43845e-05
1.49314e-05
1.53524e-05
1.56628e-05
1.59807e-05
1.627e-05
1.65655e-05
1.67771e-05
2.07537e-05
3.57319e-05
3.57419e-05
2.9833e-05
2.39548e-05
2.19116e-05
2.01702e-05
1.7687e-05
1.58326e-05
1.43363e-05
1.26989e-05
1.18139e-05
1.16478e-05
1.17234e-05
1.22087e-05
1.37531e-05
1.53466e-05
1.6339e-05
2.13143e-05
3.42117e-05
3.46156e-05
2.97562e-05
2.42147e-05
2.26863e-05
2.26195e-05
2.27806e-05
2.2666e-05
2.201e-05
1.99802e-05
1.83226e-05
1.76891e-05
1.75822e-05
1.76428e-05
1.80372e-05
1.92059e-05
1.97965e-05
2.10612e-05
2.46621e-05
2.43346e-05
2.33225e-05
2.25705e-05
2.24957e-05
2.27126e-05
2.31242e-05
2.32442e-05
2.32151e-05
2.31192e-05
2.29863e-05
2.28513e-05
2.27664e-05
2.27466e-05
2.27559e-05
2.28746e-05
2.29055e-05
2.06946e-05
2.14955e-05
2.15691e-05
2.17529e-05
2.32215e-05
2.40328e-05
2.40538e-05
2.38799e-05
2.34523e-05
2.32362e-05
2.31982e-05
2.32415e-05
2.35321e-05
2.46248e-05
2.5892e-05
2.66832e-05
2.7142e-05
2.7268e-05
2.06981e-05
2.07317e-05
2.06054e-05
2.08358e-05
2.26865e-05
2.48537e-05
2.52513e-05
2.50929e-05
2.41022e-05
2.30248e-05
2.26564e-05
2.26562e-05
2.2988e-05
2.43571e-05
2.58614e-05
2.68259e-05
2.73505e-05
2.75957e-05
2.02065e-05
2.02055e-05
2.03745e-05
2.14298e-05
2.2441e-05
2.2918e-05
2.39003e-05
2.43825e-05
2.43407e-05
2.38945e-05
2.34857e-05
2.34277e-05
2.35302e-05
2.40679e-05
2.47243e-05
2.50758e-05
2.52003e-05
2.52718e-05
2.05802e-05
2.06315e-05
2.07616e-05
2.1422e-05
2.14974e-05
2.14559e-05
2.20901e-05
2.36321e-05
2.40086e-05
2.38995e-05
2.35574e-05
2.3498e-05
2.35452e-05
2.37876e-05
2.39853e-05
2.40323e-05
2.40196e-05
2.39202e-05
2.34279e-05
2.50274e-05
2.47503e-05
2.27056e-05
2.16817e-05
2.19996e-05
2.33247e-05
2.35258e-05
2.33233e-05
2.26053e-05
2.21199e-05
2.20298e-05
2.20795e-05
2.23967e-05
2.28887e-05
2.31293e-05
2.31881e-05
2.31893e-05
2.29939e-05
2.29261e-05
2.16028e-05
2.07502e-05
2.06551e-05
2.09917e-05
2.14492e-05
2.14532e-05
2.12324e-05
2.09616e-05
2.09077e-05
2.09398e-05
2.11004e-05
2.1279e-05
2.14478e-05
2.16701e-05
2.18986e-05
2.20638e-05
2.15628e-05
2.33876e-05
2.35241e-05
2.23754e-05
2.14833e-05
2.13933e-05
2.13014e-05
2.11187e-05
2.10924e-05
2.11875e-05
2.14646e-05
2.1641e-05
2.16966e-05
2.17035e-05
2.17175e-05
2.17571e-05
2.17736e-05
2.17826e-05
2.21627e-05
2.209e-05
2.1806e-05
2.15522e-05
2.15804e-05
2.15842e-05
2.14546e-05
2.12403e-05
2.12119e-05
2.1287e-05
2.17483e-05
2.24946e-05
2.28657e-05
2.30103e-05
2.305e-05
2.29596e-05
2.2373e-05
2.16148e-05
2.0849e-05
2.15594e-05
2.2241e-05
2.23567e-05
2.19166e-05
2.1124e-05
2.08345e-05
2.07705e-05
2.07644e-05
2.0777e-05
2.08582e-05
2.11386e-05
2.1469e-05
2.16636e-05
2.17261e-05
2.17218e-05
2.16307e-05
2.13311e-05
2.11454e-05
2.12314e-05
2.11289e-05
2.08208e-05
2.05921e-05
2.04539e-05
2.04037e-05
2.03865e-05
2.03853e-05
2.03949e-05
2.04743e-05
2.05919e-05
2.0637e-05
2.0647e-05
2.06419e-05
2.06076e-05
2.05687e-05
2.05593e-05
2.03337e-05
2.05372e-05
2.05267e-05
2.04614e-05
2.04053e-05
2.04085e-05
2.04292e-05
2.04926e-05
2.05484e-05
2.0575e-05
2.05818e-05
2.05787e-05
2.0577e-05
2.05796e-05
2.0561e-05
2.0519e-05
2.05024e-05
2.05001e-05
2.09966e-05
2.13168e-05
2.09429e-05
2.05225e-05
2.03623e-05
2.03231e-05
2.03503e-05
2.04613e-05
2.08494e-05
2.13479e-05
2.15864e-05
2.16484e-05
2.16416e-05
2.15425e-05
2.12056e-05
2.09333e-05
2.08021e-05
2.07566e-05
2.02221e-05
2.09151e-05
2.11507e-05
2.11018e-05
2.08599e-05
2.07898e-05
2.08338e-05
2.1079e-05
2.12466e-05
2.12922e-05
2.13426e-05
2.14509e-05
2.16184e-05
2.17132e-05
2.17121e-05
2.15561e-05
2.11964e-05
2.10349e-05
2.02151e-05
2.09558e-05
2.11605e-05
2.12323e-05
2.12012e-05
2.09434e-05
2.07572e-05
2.0797e-05
2.07068e-05
2.05909e-05
2.0591e-05
2.06815e-05
2.11672e-05
2.19657e-05
2.22452e-05
2.22371e-05
2.19991e-05
2.14018e-05
2.0219e-05
2.07627e-05
2.07637e-05
2.07063e-05
2.05412e-05
2.04623e-05
2.05335e-05
2.12613e-05
2.1855e-05
2.18577e-05
2.16651e-05
2.13907e-05
2.12103e-05
2.10535e-05
2.09224e-05
2.08512e-05
2.08111e-05
2.07517e-05
2.0233e-05
2.03527e-05
2.03916e-05
2.0473e-05
2.0499e-05
2.05118e-05
2.066e-05
2.14984e-05
2.1742e-05
2.15887e-05
2.12876e-05
2.12024e-05
2.12058e-05
2.12155e-05
2.1221e-05
2.12489e-05
2.13411e-05
2.14114e-05
2.03826e-05
2.05105e-05
2.04055e-05
2.03772e-05
2.04325e-05
2.04902e-05
2.0485e-05
2.0403e-05
2.03007e-05
2.02878e-05
2.0325e-05
2.05464e-05
2.13968e-05
2.2399e-05
2.29136e-05
2.30786e-05
2.30959e-05
2.30742e-05
2.01612e-05
2.01708e-05
2.01906e-05
2.03426e-05
2.06145e-05
2.06447e-05
2.05963e-05
2.03806e-05
2.02443e-05
2.02281e-05
2.02581e-05
2.04482e-05
2.131e-05
2.2602e-05
2.31948e-05
2.33289e-05
2.33258e-05
2.32635e-05
2.04476e-05
2.0424e-05
2.05001e-05
2.10596e-05
2.16824e-05
2.16325e-05
2.11855e-05
2.0735e-05
2.05714e-05
2.05391e-05
2.05464e-05
2.06029e-05
2.08206e-05
2.14042e-05
2.19632e-05
2.23128e-05
2.24563e-05
2.24837e-05
2.02135e-05
2.01443e-05
2.00963e-05
2.00923e-05
2.00834e-05
2.00151e-05
1.98358e-05
1.98131e-05
1.9847e-05
1.99649e-05
2.03222e-05
2.06507e-05
2.07291e-05
2.06493e-05
2.03993e-05
2.03458e-05
2.04183e-05
2.04383e-05
2.03183e-05
1.60154e-05
1.35214e-05
1.48264e-05
1.7568e-05
2.30256e-05
2.90313e-05
3.26775e-05
3.53509e-05
3.96539e-05
4.9114e-05
6.19593e-05
7.45295e-05
8.36117e-05
9.03096e-05
9.39387e-05
9.68229e-05
9.71311e-05
3.53255e-05
0.000132533
0.000178038
0.00020682
0.000258443
0.000335925
0.000397366
0.000429114
0.000449677
0.000480966
0.000535101
0.000605324
0.000665196
0.000694008
0.000699109
0.000698401
0.000695118
0.00068493
0.00326292
0.00320116
0.00285933
0.00246164
0.002301
0.00220386
0.00210104
0.00201502
0.0019655
0.00194526
0.00193563
0.00192064
0.00188332
0.00176847
0.00159789
0.00145641
0.00134828
0.00127703
0.000210493
0.000603195
0.000806114
0.00099685
0.00120884
0.00152655
0.00207319
0.00213546
0.00202754
0.00167981
0.00144163
0.00125658
0.00112306
0.00102637
0.00095001
0.000901935
0.000852686
0.000814714
0.000774679
0.000741683
0.000719724
0.000674975
0.000676461
0.000688504
0.000712881
0.000749467
0.000779056
0.000768504
0.000733005
0.000639805
0.000649306
0.000861614
0.0016824
0.00232656
0.00268528
0.00304526
0.0035834
0.00455885
0.00659943
0.011355
0.0175464
0.0190621
0.0162629
0.0149094
0.0173412
0.03974
0.0481824
0.0158573
0.00205995
0.000825368
0.000648542
0.000651766
0.000667764
0.000689756
0.000666236
0.000593892
0.000526351
0.000449424
0.000349683
0.000300542
0.000216451
0.000172077
0.000133183
0.000103462
8.45971e-05
7.55713e-05
7.21147e-05
7.21738e-05
7.54366e-05
7.80492e-05
7.98642e-05
8.23325e-05
8.36328e-05
8.49027e-05
8.57906e-05
8.61975e-05
8.63806e-05
8.64224e-05
8.60471e-05
8.52121e-05
8.45931e-05
8.38202e-05
8.21691e-05
8.02128e-05
7.86652e-05
7.71022e-05
7.52574e-05
7.35473e-05
7.22151e-05
7.06911e-05
6.864e-05
6.65113e-05
6.43718e-05
6.22902e-05
6.04773e-05
5.84849e-05
5.59171e-05
5.34098e-05
5.13194e-05
4.87938e-05
4.64449e-05
4.41647e-05
4.1911e-05
3.97171e-05
3.75454e-05
3.53964e-05
3.32359e-05
3.10757e-05
2.8905e-05
2.67135e-05
2.44962e-05
2.22279e-05
1.98393e-05
1.73921e-05
1.49909e-05
1.27369e-05
1.0729e-05
8.98108e-06
7.45537e-06
6.13739e-06
5.0102e-06
4.06104e-06
3.26681e-06
2.61309e-06
2.08599e-06
1.6638e-06
1.32724e-06
1.06006e-06
8.49029e-07
6.8317e-07
5.53183e-07
4.51219e-07
3.70798e-07
3.0672e-07
2.54965e-07
2.12546e-07
1.7731e-07
1.47737e-07
1.22752e-07
1.01576e-07
8.36276e-08
6.84463e-08
5.56559e-08
4.49368e-08
3.60113e-08
2.86335e-08
2.25837e-08
1.76644e-08
1.36987e-08
1.05294e-08
8.01918e-09
6.04912e-09
4.5177e-09
3.33901e-09
2.44114e-09
1.76454e-09
1.26054e-09
8.89725e-10
6.20404e-10
4.27304e-10
2.90617e-10
1.95121e-10
1.29286e-10
8.45222e-11
5.45004e-11
3.46581e-11
2.17223e-11
1.34224e-11
8.16447e-12
4.89656e-12
2.88168e-12
1.68031e-12
9.40525e-13
5.56224e-13
2.49071e-13
2.0451e-13
1.8411e-12
8.39393e-10
3.57969e-07
5.88904e-07
0.000218658
0.000631983
0.0011212
0.0017095
0.00190823
0.00190199
0.00194398
0.00193485
0.00186812
0.00172857
0.00157059
0.00143808
0.00135981
0.00132304
0.00131879
0.00132303
0.00133869
0.00134278
0.00134975
0.00134532
0.00133255
0.00130701
0.0012638
0.00122074
0.00113385
0.00104101
0.000958794
0.000883055
0.000839538
0.000744854
0.000729502
0.000763856
0.000898283
0.00106449
0.00124364
0.00132051
0.0012941
0.00124289
0.00130697
0.00159569
0.00240666
0.0030071
0.00469455
0.0133282
0.0215242
0.0219111
0.0109871
0.0029041
0.000823422
0.000482099
0.000381828
0.000340517
0.000301493
0.00026773
0.000235753
0.000210406
0.000194739
0.000184465
0.000179217
0.000177534
0.000177146
0.00018217
0.000188757
0.000196453
0.000204032
0.000212778
0.000217938
0.000225195
0.000229583
0.00023261
0.000234087
0.000234867
0.000235302
0.000235533
0.00023565
0.000235705
0.000235524
0.000234727
0.000233467
0.000232086
0.000230657
0.000228983
0.000226909
0.000224644
0.00022248
0.000220181
0.000217322
0.000214351
0.000211612
0.000208435
0.000204318
0.000199567
0.000194288
0.000188325
0.000181953
0.000174827
0.000166473
0.00015785
0.000149221
0.000139509
0.000130588
0.000121734
0.000113887
0.000106726
0.000100187
9.40319e-05
8.80681e-05
8.24291e-05
7.7195e-05
7.23656e-05
6.78847e-05
6.36775e-05
5.97178e-05
5.58711e-05
5.19837e-05
4.78747e-05
4.35212e-05
3.91042e-05
3.48253e-05
3.07737e-05
2.69719e-05
2.34188e-05
2.01366e-05
1.71493e-05
1.44756e-05
1.21332e-05
1.01213e-05
8.42142e-06
7.006e-06
5.8433e-06
4.89849e-06
4.13606e-06
3.52226e-06
3.02634e-06
2.62104e-06
2.28315e-06
1.9943e-06
1.74137e-06
1.51596e-06
1.31326e-06
1.13066e-06
9.66711e-07
8.20363e-07
6.9068e-07
5.76695e-07
4.77389e-07
3.91695e-07
3.18491e-07
2.566e-07
2.04812e-07
1.61915e-07
1.26738e-07
9.81854e-08
7.52613e-08
5.7057e-08
4.27592e-08
3.16535e-08
2.31325e-08
1.66872e-08
1.18818e-08
8.34848e-09
5.78668e-09
3.95546e-09
2.66569e-09
1.77051e-09
1.15885e-09
7.47016e-10
4.74369e-10
2.96353e-10
1.82414e-10
1.10105e-10
6.58802e-11
3.78006e-11
2.28927e-11
1.07158e-11
8.37804e-12
8.29463e-12
3.42727e-10
6.80714e-08
9.6558e-08
0.000684816
0.00105479
0.00312132
0.00415134
0.00330577
0.00234756
0.00189028
0.00158406
0.0014925
0.00148579
0.0014983
0.0015506
0.00169706
0.00184354
0.00198366
0.00215346
0.00226938
0.00236144
0.00237964
0.00236931
0.00233655
0.00228808
0.00218714
0.00211094
0.00200498
0.00186901
0.00163003
0.00133352
0.0011366
0.000970535
0.000861459
0.000813982
0.000821894
0.000841497
0.000891837
0.000907765
0.000863752
0.000902836
0.00121889
0.00177827
0.0039906
0.0101568
0.0117672
0.0129703
0.00993338
0.00384256
0.00150916
0.000533546
0.00030808
0.000254017
0.000233438
0.000222975
0.000215435
0.000210702
0.000208943
0.000208702
0.000211578
0.000220597
0.000231244
0.000245891
0.00025902
0.000270646
0.000277733
0.000282814
0.000285398
0.000287625
0.00028836
0.000288474
0.000287451
0.000283791
0.000279759
0.000276797
0.000274145
0.00027184
0.000270511
0.000269955
0.000269719
0.00026964
0.000269653
0.000269718
0.000269753
0.000269671
0.00026949
0.000269234
0.000268812
0.000268068
0.000266939
0.000265429
0.000263439
0.000261191
0.000258623
0.000255575
0.000252226
0.000248694
0.000244745
0.000240184
0.000234729
0.000228547
0.00022175
0.000213479
0.000203885
0.000192743
0.000181062
0.000169373
0.000157557
0.000145695
0.000133917
0.000122251
0.000110905
0.000100257
9.09156e-05
8.34245e-05
7.71889e-05
7.19162e-05
6.7304e-05
6.32207e-05
5.96078e-05
5.63424e-05
5.31994e-05
5.01223e-05
4.70247e-05
4.37488e-05
4.01436e-05
3.61753e-05
3.19609e-05
2.77153e-05
2.36669e-05
1.99558e-05
1.66024e-05
1.36237e-05
1.10505e-05
8.90091e-06
7.1648e-06
5.80225e-06
4.75399e-06
3.95484e-06
3.34416e-06
2.87144e-06
2.49758e-06
2.19382e-06
1.93963e-06
1.7208e-06
1.52766e-06
1.35384e-06
1.19524e-06
1.04934e-06
9.14746e-07
7.90909e-07
6.77755e-07
5.752e-07
4.8321e-07
4.017e-07
3.30384e-07
2.68756e-07
2.1615e-07
1.71802e-07
1.34892e-07
1.04575e-07
8.0003e-08
6.03641e-08
4.48978e-08
3.29045e-08
2.37494e-08
1.68766e-08
1.18009e-08
8.11934e-09
5.49273e-09
3.65472e-09
2.38774e-09
1.53414e-09
9.65044e-10
5.98796e-10
3.62127e-10
2.14218e-10
1.31198e-10
6.0378e-11
7.63776e-11
7.14894e-11
2.38471e-09
7.1249e-09
0.00422168
0.00523323
0.00753435
0.00593262
0.00362567
0.00223825
0.00159787
0.00144006
0.00143378
0.00147091
0.00158475
0.00186954
0.00214924
0.00251012
0.0027864
0.00291274
0.00297975
0.00301076
0.00300576
0.00298836
0.00294986
0.00290326
0.00284572
0.00274716
0.00267581
0.00254357
0.00240021
0.00221798
0.00188553
0.00159349
0.0013267
0.00108413
0.000916016
0.000859193
0.00081124
0.000773524
0.000803508
0.00134897
0.00421006
0.00851523
0.00938307
0.00977479
0.00818027
0.00507097
0.0020268
0.000803841
0.000392099
0.000268295
0.000245566
0.000241757
0.000242474
0.000254162
0.000273045
0.000286714
0.000304176
0.000320354
0.000337088
0.000348077
0.000353197
0.0003554
0.000355974
0.000355662
0.000352282
0.000346541
0.000339592
0.000332165
0.000325244
0.00031849
0.000310499
0.00030241
0.000295223
0.000288911
0.000284522
0.000281735
0.000280825
0.000280676
0.000280817
0.000281391
0.000282404
0.000283735
0.000284801
0.000285143
0.00028523
0.000285201
0.000284754
0.00028354
0.000281494
0.000278396
0.000274184
0.000269661
0.000265267
0.000261525
0.000257896
0.000254249
0.000250589
0.000246977
0.000243107
0.000238944
0.000234486
0.000229264
0.000223409
0.000216335
0.000206942
0.000196552
0.000185907
0.00017541
0.000165353
0.000155504
0.00014561
0.000135197
0.000123663
0.000110814
9.83084e-05
8.78202e-05
8.03512e-05
7.49287e-05
7.07844e-05
6.74122e-05
6.46085e-05
6.22078e-05
6.00734e-05
5.81362e-05
5.62694e-05
5.41072e-05
5.13809e-05
4.80066e-05
4.40028e-05
3.94064e-05
3.42988e-05
2.88224e-05
2.32696e-05
1.80748e-05
1.36482e-05
1.01777e-05
7.61389e-06
5.77369e-06
4.45883e-06
3.51359e-06
2.82819e-06
2.32632e-06
1.95406e-06
1.67266e-06
1.45437e-06
1.27955e-06
1.13467e-06
1.01065e-06
9.0142e-07
8.0278e-07
7.11929e-07
6.27354e-07
5.48337e-07
4.74634e-07
4.06404e-07
3.44006e-07
2.8776e-07
2.37826e-07
1.94168e-07
1.56562e-07
1.24634e-07
9.79121e-08
7.58779e-08
5.79919e-08
4.36934e-08
3.24378e-08
2.37138e-08
1.70617e-08
1.20726e-08
8.39729e-09
5.73929e-09
3.85298e-09
2.54194e-09
1.64302e-09
1.04699e-09
6.45842e-10
4.02311e-10
2.28397e-10
1.48337e-10
7.28391e-11
1.23602e-10
3.93809e-10
0.00264202
0.0123633
0.00968383
0.00456749
0.00219728
0.00154419
0.00141292
0.00143135
0.00153594
0.00175867
0.00210774
0.002558
0.00283174
0.00310477
0.00322756
0.00325151
0.00328014
0.00332308
0.00334165
0.00332917
0.00329353
0.00325544
0.00320888
0.00312708
0.00303464
0.00292935
0.00272933
0.00257518
0.00237792
0.00199627
0.00169895
0.00136639
0.00111311
0.000947754
0.000818392
0.000823576
0.00151045
0.00581138
0.00803815
0.00843874
0.00794173
0.00528618
0.00243448
0.00121413
0.000562365
0.000333858
0.000272903
0.00026198
0.000264761
0.000288224
0.000311028
0.000329702
0.000339096
0.000350011
0.000359068
0.000368361
0.000373828
0.000375817
0.000376348
0.000376208
0.000373981
0.000369351
0.000362677
0.000353998
0.000344768
0.000336207
0.000327428
0.000317718
0.000307982
0.000299051
0.000291001
0.000285816
0.000283891
0.00028347
0.00028356
0.000284169
0.000285455
0.000287283
0.000289424
0.000291843
0.00029351
0.000293826
0.000293695
0.000293114
0.000292016
0.000290025
0.000286622
0.000282263
0.000276729
0.000270589
0.000264002
0.000256909
0.000249502
0.000242613
0.00023652
0.000232141
0.000229795
0.000228998
0.000228376
0.000226805
0.00022402
0.000220045
0.000214191
0.000204474
0.000192601
0.000180798
0.000169729
0.000159994
0.000151751
0.000144035
0.000136463
0.00012877
0.000120083
0.000109469
9.71595e-05
8.60202e-05
7.78792e-05
7.23348e-05
6.84498e-05
6.55482e-05
6.31983e-05
6.12173e-05
5.95963e-05
5.82881e-05
5.69907e-05
5.5272e-05
5.29659e-05
5.03051e-05
4.7579e-05
4.47236e-05
4.13573e-05
3.71039e-05
3.19909e-05
2.65037e-05
2.122e-05
1.65276e-05
1.25915e-05
9.43899e-06
7.01547e-06
5.2158e-06
3.90585e-06
2.95731e-06
2.27142e-06
1.77692e-06
1.42104e-06
1.16376e-06
9.74874e-07
8.32204e-07
7.20125e-07
6.28303e-07
5.49856e-07
4.79964e-07
4.15413e-07
3.55474e-07
3.00572e-07
2.51039e-07
2.07079e-07
1.68712e-07
1.35781e-07
1.07963e-07
8.48023e-08
6.57649e-08
5.03276e-08
3.7988e-08
2.82689e-08
2.07292e-08
1.49711e-08
1.06445e-08
7.44663e-09
5.12168e-09
3.46364e-09
2.29959e-09
1.50239e-09
9.5895e-10
6.07115e-10
3.67755e-10
2.29509e-10
1.30074e-10
7.86118e-11
6.5616e-11
0.00404722
0.00781792
0.00448396
0.00214715
0.00146432
0.00138335
0.00144649
0.00163148
0.00196818
0.00245045
0.00284497
0.0032064
0.00347975
0.00393
0.0040923
0.00434245
0.0045352
0.00477775
0.00498219
0.00503602
0.00498693
0.00484408
0.00454281
0.00416706
0.00383007
0.00354235
0.00318525
0.00293198
0.0027763
0.00250367
0.0020314
0.00165698
0.00136061
0.000993371
0.000878493
0.00157081
0.00560446
0.0071332
0.00743824
0.00629213
0.00347404
0.00165821
0.000792216
0.000453214
0.000323226
0.000288719
0.000283465
0.000304738
0.000329264
0.00034702
0.000356537
0.000361937
0.000366471
0.000372985
0.000378937
0.000387228
0.000390989
0.000392151
0.000392422
0.000391836
0.000388322
0.000381848
0.000373934
0.000365852
0.000358708
0.000351633
0.000341633
0.000330562
0.000321543
0.000312465
0.000308739
0.000308227
0.000308529
0.000309548
0.000311227
0.000313626
0.000316066
0.000316687
0.000316459
0.000315021
0.000312135
0.000308384
0.000304552
0.000300645
0.000297064
0.000293478
0.000289181
0.000284326
0.000278444
0.000271716
0.00026388
0.000255292
0.000246051
0.000236492
0.000226913
0.000217995
0.000209945
0.000203529
0.000199672
0.000201124
0.000207017
0.000214138
0.000215678
0.000213468
0.000205206
0.000188922
0.000172358
0.000158432
0.000147563
0.000140238
0.000135425
0.000129976
0.00012389
0.000117393
0.000110242
0.00010146
9.10764e-05
8.13861e-05
7.42061e-05
6.92114e-05
6.56448e-05
6.2925e-05
6.07469e-05
5.90494e-05
5.78238e-05
5.68907e-05
5.57783e-05
5.39937e-05
5.14962e-05
4.87972e-05
4.6377e-05
4.42664e-05
4.19951e-05
3.88974e-05
3.46626e-05
2.95781e-05
2.42587e-05
1.92593e-05
1.49079e-05
1.13245e-05
8.48476e-06
6.28208e-06
4.59519e-06
3.3264e-06
2.39529e-06
1.72946e-06
1.26458e-06
9.46205e-07
7.30418e-07
5.83304e-07
4.80372e-07
4.05561e-07
3.49211e-07
3.04092e-07
2.64775e-07
2.28093e-07
1.93546e-07
1.6166e-07
1.32875e-07
1.07476e-07
8.55684e-08
6.70853e-08
5.18054e-08
3.941e-08
2.95343e-08
2.18006e-08
1.58477e-08
1.13406e-08
7.98806e-09
5.53381e-09
3.77141e-09
2.52282e-09
1.66144e-09
1.06939e-09
6.80627e-10
4.19798e-10
2.58263e-10
1.52096e-10
8.88888e-11
5.47684e-11
0.00329354
0.00319685
0.00222652
0.00137476
0.00127543
0.00137772
0.00167694
0.00214558
0.00265807
0.00330606
0.00391601
0.00451254
0.00487952
0.00526935
0.0055182
0.00606771
0.00649604
0.00709938
0.0074873
0.00781126
0.0077707
0.00756935
0.00713931
0.00630163
0.00538254
0.0047876
0.00420023
0.00352384
0.00300076
0.00263851
0.00221456
0.0017965
0.00134644
0.000986579
0.00133931
0.00488201
0.00631847
0.0065486
0.00490878
0.00244818
0.00124355
0.000646593
0.000403863
0.000326027
0.000305559
0.000301559
0.000327775
0.000351954
0.000363295
0.000373388
0.000378042
0.000381625
0.000386733
0.000393013
0.000402108
0.000411361
0.000418813
0.000422698
0.000424402
0.00042473
0.000423032
0.000416556
0.00040737
0.000403779
0.000402531
0.000401088
0.000393682
0.000379664
0.00036642
0.000360369
0.000357323
0.000353761
0.00035208
0.000351306
0.000350894
0.000349991
0.000348329
0.000345535
0.000341219
0.000337323
0.000333019
0.000327736
0.000321657
0.00031481
0.000309292
0.000303525
0.000298071
0.000293405
0.000288921
0.000283829
0.000277811
0.000270313
0.000261682
0.000252016
0.000241476
0.000230208
0.000217349
0.000203225
0.0001914
0.000181206
0.000174905
0.000175899
0.000191182
0.000209985
0.000217198
0.000216856
0.000201748
0.000172711
0.000148873
0.000133183
0.000123854
0.000120459
0.000119182
0.000116044
0.000111296
0.000105626
9.91581e-05
9.14906e-05
8.28359e-05
7.51297e-05
6.94576e-05
6.53688e-05
6.22974e-05
5.98816e-05
5.80309e-05
5.67745e-05
5.60068e-05
5.5321e-05
5.41229e-05
5.19703e-05
4.90683e-05
4.61758e-05
4.38816e-05
4.22252e-05
4.06837e-05
3.84896e-05
3.5164e-05
3.07895e-05
2.5866e-05
2.09693e-05
1.65173e-05
1.27093e-05
9.57996e-06
7.06714e-06
5.09074e-06
3.58211e-06
2.471e-06
1.68202e-06
1.14122e-06
7.82446e-07
5.50886e-07
4.0391e-07
3.1011e-07
2.48333e-07
2.05793e-07
1.75333e-07
1.51517e-07
1.30502e-07
1.10719e-07
9.22739e-08
7.5479e-08
6.05917e-08
4.77471e-08
3.69475e-08
2.80859e-08
2.09787e-08
1.54008e-08
1.11124e-08
7.88099e-09
5.49248e-09
3.7615e-09
2.52984e-09
1.67115e-09
1.08298e-09
6.89046e-10
4.29722e-10
2.62818e-10
1.57619e-10
9.22681e-11
5.36088e-11
0.000859278
0.00193604
0.00143593
0.00111813
0.00123805
0.00160288
0.00227022
0.00300041
0.0037983
0.00434021
0.00477056
0.00507963
0.00537364
0.00574682
0.0061397
0.00698272
0.00813324
0.00954489
0.0108012
0.0115941
0.0123517
0.0122521
0.0117919
0.0107452
0.00840743
0.00649631
0.00505077
0.00394959
0.00336337
0.00277513
0.00220717
0.00175183
0.00120371
0.00118698
0.00388971
0.00557144
0.00585093
0.00433661
0.00203626
0.00101815
0.000573675
0.000393226
0.000335079
0.00032278
0.000320821
0.000352316
0.000373118
0.000381922
0.000387662
0.000394074
0.000400017
0.000406919
0.000417256
0.000430872
0.000448645
0.000465324
0.00048119
0.000495414
0.000510795
0.000529585
0.00054986
0.000558857
0.000562416
0.000563833
0.000563662
0.000570741
0.000573748
0.000561017
0.000520721
0.000493544
0.000482082
0.000467913
0.000441384
0.000428831
0.000422351
0.000416106
0.000412958
0.0004114
0.000410114
0.000409588
0.000406736
0.000399756
0.000389471
0.000378393
0.000367838
0.000356296
0.0003468
0.000337457
0.000326887
0.000315626
0.000304144
0.000294035
0.00028485
0.000276599
0.000269749
0.00026499
0.000262774
0.000257884
0.000242316
0.000214853
0.000182173
0.000161448
0.000152246
0.000157335
0.000190034
0.000219841
0.000228433
0.000223966
0.000192297
0.000148636
0.00012293
0.00011043
0.00010514
0.000104822
0.000104837
0.000103097
9.92424e-05
9.44117e-05
8.87355e-05
8.20479e-05
7.49069e-05
6.89611e-05
6.45217e-05
6.12291e-05
5.86898e-05
5.67437e-05
5.54367e-05
5.47168e-05
5.42565e-05
5.35708e-05
5.20882e-05
4.94215e-05
4.61867e-05
4.32343e-05
4.11053e-05
3.97936e-05
3.87641e-05
3.72538e-05
3.46986e-05
3.101e-05
2.65352e-05
2.18276e-05
1.73754e-05
1.34392e-05
1.01075e-05
7.37595e-06
5.21387e-06
3.57281e-06
2.38035e-06
1.54972e-06
9.93883e-07
6.3569e-07
4.12634e-07
2.77567e-07
1.96954e-07
1.48168e-07
1.17435e-07
9.72157e-08
8.29503e-08
7.12225e-08
6.0336e-08
5.01072e-08
4.07251e-08
3.23807e-08
2.51932e-08
1.91901e-08
1.4319e-08
1.04715e-08
7.50845e-09
5.28022e-09
3.64244e-09
2.4649e-09
1.63643e-09
1.06561e-09
6.80488e-10
4.26096e-10
2.61447e-10
1.57271e-10
9.25728e-11
5.35943e-11
0.00144487
0.00187116
0.00105977
0.00104895
0.00139201
0.0022893
0.00303756
0.00368068
0.00422707
0.00460415
0.00494314
0.00521654
0.00556857
0.00606996
0.00710255
0.00910503
0.0122943
0.0150893
0.0172048
0.018844
0.0195719
0.0193353
0.0185496
0.0170814
0.0147898
0.0111247
0.00767096
0.00510738
0.00354591
0.00272349
0.0021223
0.00150918
0.00126612
0.00281003
0.00489575
0.00525437
0.00412757
0.00190099
0.000940022
0.000548551
0.000399436
0.000349682
0.00033685
0.000337491
0.000364023
0.000381766
0.000391742
0.000400271
0.000407823
0.000417908
0.000431121
0.000448908
0.000473824
0.000506953
0.000548114
0.000593944
0.000642718
0.000697545
0.000763058
0.00084565
0.000944896
0.00104854
0.00112881
0.00116676
0.00117951
0.00116884
0.00117151
0.00116527
0.00107486
0.000932491
0.000863155
0.000814364
0.000712882
0.000650275
0.000610203
0.000581614
0.000565713
0.000557902
0.000552447
0.000546128
0.000533448
0.000506439
0.000474634
0.000445422
0.00041857
0.00039508
0.000373449
0.000353864
0.000335483
0.000318738
0.000301379
0.000283762
0.000267454
0.000255037
0.000249619
0.000252894
0.000262799
0.000274934
0.000285969
0.000289763
0.000275753
0.000224887
0.000166079
0.000139819
0.000137377
0.00016075
0.000214451
0.000235206
0.000234516
0.000213121
0.000155791
0.00011742
0.000101127
9.45258e-05
9.28231e-05
9.26135e-05
9.21473e-05
9.10536e-05
8.86108e-05
8.4834e-05
7.9888e-05
7.38085e-05
6.78667e-05
6.31627e-05
5.96342e-05
5.69817e-05
5.50487e-05
5.38228e-05
5.31723e-05
5.28165e-05
5.23659e-05
5.14232e-05
4.92655e-05
4.61241e-05
4.28561e-05
4.01612e-05
3.83917e-05
3.74538e-05
3.68297e-05
3.57905e-05
3.37708e-05
3.05695e-05
2.63757e-05
2.17393e-05
1.72497e-05
1.32219e-05
9.78682e-06
6.98547e-06
4.80796e-06
3.19647e-06
2.05849e-06
1.2893e-06
7.90261e-07
4.78754e-07
2.91227e-07
1.81941e-07
1.1977e-07
8.44951e-08
6.38718e-08
5.12877e-08
4.31504e-08
3.6901e-08
3.11917e-08
2.57931e-08
2.08071e-08
1.63628e-08
1.25487e-08
9.39182e-09
6.86562e-09
4.90596e-09
3.42899e-09
2.34554e-09
1.57075e-09
1.03019e-09
6.61763e-10
4.16478e-10
2.5676e-10
1.55135e-10
9.17593e-11
5.32936e-11
0.00169942
0.00179622
0.000712763
0.00104584
0.00202623
0.00281333
0.00327921
0.00383135
0.00431014
0.00464176
0.00496053
0.00524317
0.00565058
0.00662303
0.00862454
0.0119518
0.0158211
0.019536
0.0220569
0.0239502
0.024647
0.0243473
0.0232971
0.0211808
0.0175786
0.0124283
0.00787706
0.00499238
0.00338963
0.00251933
0.00178732
0.00149959
0.00202064
0.00426603
0.00475712
0.00418965
0.00192351
0.000948511
0.000566503
0.000425179
0.000376479
0.00035926
0.000361512
0.000390243
0.000410039
0.000421086
0.00043178
0.000442518
0.000455136
0.000474679
0.000501115
0.00053879
0.000589756
0.000662142
0.000760512
0.000887449
0.00103877
0.00122303
0.00143795
0.00168226
0.00195271
0.00226588
0.00257525
0.00271946
0.00277677
0.00276517
0.00262131
0.00257007
0.00237287
0.00205158
0.00181849
0.00165589
0.00135053
0.00120859
0.00103859
0.000925631
0.000833514
0.000771724
0.000716901
0.000661775
0.00060123
0.000548961
0.000505009
0.000466662
0.00043383
0.000406378
0.000381538
0.000358972
0.000336232
0.000313218
0.000288952
0.000263201
0.000236318
0.000209156
0.000184446
0.000167444
0.000166416
0.00019098
0.000240195
0.000287466
0.00030668
0.00030474
0.000271349
0.000186848
0.000137426
0.000130894
0.000146624
0.000206395
0.000234595
0.000234538
0.000216128
0.000157459
0.000112373
9.38112e-05
8.69929e-05
8.47051e-05
8.29792e-05
8.19814e-05
8.18294e-05
8.16529e-05
8.06227e-05
7.70903e-05
7.19507e-05
6.64015e-05
6.15069e-05
5.76694e-05
5.48369e-05
5.29419e-05
5.18977e-05
5.14105e-05
5.11601e-05
5.08398e-05
5.01572e-05
4.84429e-05
4.54757e-05
4.22506e-05
3.94098e-05
3.73074e-05
3.59666e-05
3.5216e-05
3.47315e-05
3.40446e-05
3.25757e-05
2.94676e-05
2.52159e-05
2.04935e-05
1.59686e-05
1.19581e-05
8.60512e-06
5.95203e-06
3.96349e-06
2.54699e-06
1.58393e-06
9.56539e-07
5.63661e-07
3.26588e-07
1.88506e-07
1.10756e-07
6.82615e-08
4.53813e-08
3.28451e-08
2.57222e-08
2.1448e-08
1.83147e-08
1.54494e-08
1.27029e-08
1.01461e-08
7.86855e-09
5.92953e-09
4.347e-09
3.10408e-09
2.16136e-09
1.46886e-09
9.75062e-10
6.32633e-10
4.01406e-10
2.49158e-10
1.51404e-10
9.00109e-11
5.25496e-11
0.00171547
0.00144855
0.000613261
0.001404
0.00241224
0.00291422
0.00331006
0.00382765
0.00423449
0.00446598
0.00474652
0.00506764
0.00565903
0.00687099
0.00923316
0.0130381
0.0173763
0.0215151
0.0241995
0.0250987
0.0250199
0.024346
0.023069
0.0206898
0.0167104
0.0114857
0.00713295
0.00437228
0.00282526
0.00198383
0.0017224
0.00186443
0.00366761
0.00428451
0.00418179
0.00209805
0.00101837
0.000613252
0.000468297
0.00041794
0.00039613
0.000404164
0.000428254
0.000445379
0.000454554
0.000463143
0.000469719
0.00047413
0.000499481
0.000536899
0.000592604
0.000674244
0.000788185
0.000951279
0.00117867
0.00148437
0.00188525
0.00242927
0.00297069
0.00351939
0.00409145
0.0046193
0.00510591
0.00543001
0.00556945
0.00560189
0.00531967
0.00496705
0.00448096
0.00385075
0.00334687
0.00290443
0.0023439
0.00203516
0.00170691
0.00143379
0.00122541
0.00103657
0.000887344
0.000756615
0.000654999
0.000584344
0.000524942
0.0004802
0.000445938
0.000419837
0.000399393
0.000382471
0.000366934
0.000350419
0.000330082
0.000303354
0.000270152
0.000230459
0.000188601
0.00015381
0.000129775
0.000117369
0.000119863
0.000162148
0.000254055
0.000304036
0.000306615
0.000281494
0.000198308
0.000139533
0.000131541
0.000146495
0.000200951
0.000225848
0.00022528
0.000204733
0.000148454
0.000105719
8.73853e-05
8.06304e-05
7.84755e-05
7.66784e-05
7.50566e-05
7.45578e-05
7.45844e-05
7.45411e-05
7.35553e-05
6.98073e-05
6.44996e-05
5.95793e-05
5.55485e-05
5.25726e-05
5.06657e-05
4.97129e-05
4.93558e-05
4.92015e-05
4.9e-05
4.85467e-05
4.73067e-05
4.44459e-05
4.12304e-05
3.83348e-05
3.61048e-05
3.46091e-05
3.37337e-05
3.32483e-05
3.28537e-05
3.21829e-05
3.07358e-05
2.74307e-05
2.28558e-05
1.805e-05
1.3629e-05
9.85714e-06
6.83632e-06
4.55536e-06
2.92398e-06
1.8128e-06
1.08835e-06
6.34425e-07
3.60297e-07
2.0051e-07
1.10562e-07
6.16497e-08
3.5909e-08
2.26647e-08
1.58055e-08
1.21614e-08
1.01198e-08
8.66109e-09
7.29645e-09
5.95689e-09
4.69916e-09
3.58336e-09