/*--------------------------------*- C++ -*----------------------------------*\
  =========                 |
  \\      /  F ield         | OpenFOAM: The Open Source CFD Toolbox
   \\    /   O peration     | Website:  https://openfoam.org
    \\  /    A nd           | Version:  7
     \\/     M anipulation  |
\*---------------------------------------------------------------------------*/
FoamFile
{
    version     2.0;
    format      ascii;
    class       volScalarField;
    location    "0.061";
    object      s;
}
// * * * * * * * * * * * * * * * * * * * * * * * * * * * * * * * * * * * * * //

dimensions      [0 0 0 0 0 0 0];

internalField   nonuniform List<scalar> 
12225
(
1
1
1
1
1
1
1
1
1
1
1
1
1
1
1
1
1
1
1
1
1
1
1
1
1
1
1
1
1
1
1
1
1
1
1
1
1
1
1
1
1
1
1
1
1
1
1
1
1
1
1
1
1
1
1
1
1
1
1
1
1
1
1
1
1
1
1
1
1
1
1
1
1
1
1
1
1
1
1
1
1
1
1
1
1
1
1
1
1
1
1
1
1
1
1
1
1
1
1
1
1
1
1
1
1
1
1
1
1
1
1
1
1
1
1
1
1
1
1
1
1
1
1
1
1
1
1
1
1
1
1
1
1
1
1
1
1
1
1
1
1
1
1
1
1
1
1
1
1
1
1
1
1
1
1
1
1
1
1
1
1
1
1
1
1
1
1
1
1
1
1
1
1
1
1
1
1
1
1
1
1
1
1
1
1
1
1
1
1
1
1
1
1
1
1
1
1
1
1
1
1
1
1
1
1
1
1
1
1
1
1
1
1
1
1
1
1
1
1
1
1
1
1
1
1
1
1
1
1
1
1
1
1
1
1
1
1
1
1
1
1
1
1
1
1
1
1
1
1
1
1
1
1
1
1
1
1
1
1
1
1
1
1
1
1
1
1
1
1
1
1
1
1
1
1
1
1
1
1
1
1
1
1
1
1
1
1
1
1
1
1
1
1
1
1
1
1
1
1
1
1
1
1
1
1
1
1
1
1
1
1
1
1
1
1
1
1
1
1
1
1
1
1
1
1
1
1
1
1
1
1
1
1
1
1
1
1
1
1
1
1
1
1
1
1
1
1
1
1
1
1
1
1
1
1
1
1
1
1
1
1
1
1
1
1
1
1
1
1
1
1
1
1
1
1
1
1
1
1
1
1
1
1
1
1
1
1
1
1
1
1
1
1
1
1
1
1
1
1
1
1
1
1
1
1
1
1
1
1
1
1
1
1
1
1
1
1
1
1
1
1
1
1
1
1
1
1
1
1
1
1
1
1
1
1
1
1
1
1
1
1
1
1
1
1
1
1
1
1
1
1
1
1
1
1
1
1
1
1
1
1
1
1
1
1
1
1
1
1
1
1
1
1
1
1
1
1
1
1
1
1
1
1
1
1
1
1
1
1
1
1
1
1
1
1
1
1
1
1
1
1
1
1
1
1
1
1
1
1
1
1
1
1
1
1
1
1
1
1
1
1
1
1
1
1
1
1
1
1
1
1
1
1
1
1
1
1
1
1
1
0.000111983
0.000558828
0.00139169
0.00264927
0.0045171
0.00746364
0.0101781
0.0133584
0.0208126
0.0258889
0.0378633
0.0483657
0.0609176
0.0711986
0.0823866
0.0919915
0.0987739
0.10415
0.104172
0.102777
0.0993412
0.093732
0.0890256
0.0837293
0.0775204
0.0710411
0.0644649
0.0581022
0.0497582
0.0432021
0.0364697
0.0193983
0.00407021
0.00107124
0.00158088
0.00295634
0.00462162
0.00643856
0.00932038
0.0134039
0.0165243
0.0225273
0.0299495
0.036217
0.0453941
0.125436
0.540033
0.765055
0.773175
0.77319
0.774853
0.777057
0.777914
0.778552
0.779936
0.781682
0.782814
0.783491
0.784687
0.78664
0.78867
0.790259
0.791563
0.7929
0.794275
0.795546
0.796745
0.798008
0.79929
0.8004
0.800998
0.801658
0.802035
0.80235
0.8027
0.802907
0.803056
0.803117
0.803058
0.802632
0.802051
0.801625
0.801293
0.8008
0.800179
0.799434
0.798409
0.797181
0.795774
0.794443
0.793136
0.791311
0.788809
0.786063
0.782711
0.778636
0.773676
0.767375
0.759916
0.750979
0.740291
0.728046
0.713732
0.697457
0.678752
0.657403
0.632575
0.603827
0.570479
0.532181
0.48884
0.440499
0.387648
0.33144
0.273779
0.217286
0.165047
0.119939
0.083938
0.0571466
0.037389
0.0231234
0.0131099
0.00680112
0.00335648
0.00157783
0.000707095
0.000302443
0.000123642
4.83823e-05
1.82172e-05
6.6269e-06
2.14593e-06
6.32648e-07
3.02512e-07
1.43685e-07
6.64227e-08
2.99527e-08
1.32265e-08
5.72767e-09
2.43365e-09
1.01512e-09
4.15948e-10
1.67547e-10
6.63948e-11
2.59045e-11
9.95934e-12
3.77677e-12
1.41429e-12
5.23707e-13
1.92061e-13
6.98435e-14
2.5199e-14
9.01897e-15
3.1996e-15
1.12333e-15
3.89325e-16
1.32786e-16
4.44909e-17
1.46412e-17
4.73261e-18
1.50283e-18
4.68861e-19
1.43714e-19
4.32725e-20
1.27959e-20
3.7146e-21
1.05807e-21
2.95537e-22
8.08845e-23
2.16717e-23
5.67752e-24
1.45245e-24
3.6206e-25
8.77733e-26
2.06033e-26
4.67234e-27
9.98548e-28
2.09851e-28
-4.37029e-29
8.41381e-05
0.000475652
0.00148652
0.00408687
0.00779543
0.0144586
0.0219892
0.0362456
0.0630113
0.0909763
0.150315
0.198717
0.257219
0.322659
0.371099
0.415693
0.444236
0.466323
0.479234
0.478646
0.473249
0.457897
0.438816
0.399872
0.358607
0.306706
0.236689
0.17659
0.128122
0.0913861
0.068447
0.0475622
0.0292148
0.0182696
0.0126207
0.00895406
0.00865891
0.00947069
0.0124383
0.0190705
0.0406295
0.0478456
0.0536199
0.144623
0.562695
0.691986
0.774113
0.811481
0.823699
0.841992
0.855353
0.865984
0.875386
0.882309
0.888584
0.894212
0.897629
0.899375
0.900142
0.900308
0.899299
0.895934
0.892322
0.888785
0.884132
0.879541
0.874921
0.869696
0.865347
0.861894
0.859499
0.858314
0.85723
0.85677
0.856442
0.856395
0.856587
0.857373
0.858668
0.86016
0.861804
0.863817
0.866187
0.868667
0.871376
0.874467
0.877823
0.881021
0.884214
0.887995
0.892357
0.896818
0.901711
0.907743
0.914328
0.921322
0.929111
0.937288
0.945488
0.953179
0.958952
0.963987
0.96843
0.972175
0.975229
0.977591
0.979281
0.980312
0.980714
0.98002
0.976902
0.971137
0.962165
0.948895
0.92985
0.902945
0.865558
0.81473
0.747965
0.665083
0.569825
0.467627
0.366388
0.274503
0.198287
0.13927
0.0949435
0.0625255
0.0399197
0.0247738
0.0149698
0.00882229
0.00507911
0.00286093
0.00157907
0.000855293
0.000455254
0.000238437
0.00012301
6.2563e-05
3.13863e-05
1.55352e-05
7.5864e-06
3.65417e-06
1.73542e-06
8.12227e-07
3.74484e-07
1.70075e-07
7.61458e-08
3.36975e-08
1.48024e-08
6.46092e-09
2.77968e-09
1.17176e-09
4.81809e-10
1.92464e-10
7.43299e-11
2.75726e-11
9.86641e-12
3.44053e-12
1.1712e-12
3.89722e-13
1.26874e-13
4.04314e-14
1.26159e-14
3.85501e-15
1.15346e-15
3.37914e-16
9.68863e-17
2.71818e-17
7.45577e-18
1.99906e-18
5.23021e-19
1.33557e-19
3.3155e-20
8.01396e-21
1.8752e-21
3.90399e-22
9.89051e-23
-1.70142e-22
2.79686e-05
0.000204097
0.00152103
0.00549615
0.0115054
0.0209241
0.0375607
0.0709937
0.134771
0.242569
0.374652
0.501166
0.583238
0.633314
0.660591
0.675673
0.685596
0.68866
0.6886
0.687857
0.685769
0.681588
0.672013
0.661238
0.639096
0.611197
0.579432
0.508993
0.430518
0.319249
0.205406
0.134603
0.0885907
0.0610024
0.0442405
0.0309569
0.0302868
0.0344678
0.0518326
0.0606665
0.0858746
0.246416
0.528066
0.699005
0.802157
0.837283
0.857243
0.86638
0.871501
0.87453
0.875773
0.876045
0.874841
0.87291
0.866215
0.857984
0.845085
0.833254
0.822024
0.80793
0.797366
0.785696
0.778424
0.771564
0.768368
0.76596
0.765078
0.764963
0.766958
0.771017
0.774597
0.778121
0.781685
0.785171
0.788215
0.790401
0.791423
0.791905
0.792329
0.792997
0.793758
0.794481
0.794957
0.795367
0.796143
0.797216
0.798442
0.799881
0.801673
0.804141
0.807011
0.810082
0.813726
0.8179
0.822775
0.82826
0.834779
0.842771
0.852834
0.865566
0.881147
0.897553
0.913281
0.927674
0.940981
0.953066
0.963706
0.97288
0.980622
0.986911
0.991449
0.994583
0.996521
0.997495
0.997836
0.997834
0.997238
0.995291
0.992062
0.986927
0.977715
0.959615
0.924587
0.863608
0.771699
0.653309
0.52191
0.394254
0.28435
0.198417
0.134407
0.0884508
0.0566158
0.0353712
0.0216221
0.0129651
0.00764467
0.00444274
0.0025501
0.00144831
0.000815198
0.000455446
0.000252956
0.000139667
7.64098e-05
4.12974e-05
2.19945e-05
1.15181e-05
5.92056e-06
2.98311e-06
1.47191e-06
7.10817e-07
3.35889e-07
1.55293e-07
7.024e-08
3.10764e-08
1.34466e-08
5.68936e-09
2.35337e-09
9.51457e-10
3.75845e-10
1.45e-10
5.45995e-11
2.00554e-11
7.17809e-12
2.50023e-12
8.50787e-13
2.8368e-13
9.26505e-14
2.96418e-14
9.28199e-15
2.84571e-15
8.52542e-16
2.49876e-16
7.13299e-17
1.9905e-17
5.37302e-18
1.41674e-18
3.59654e-19
7.46119e-20
1.60632e-05
0.000407396
0.00511519
0.0122879
0.0218596
0.041559
0.0828349
0.167439
0.346455
0.537551
0.636036
0.681747
0.701954
0.709853
0.711222
0.709808
0.707234
0.701402
0.695371
0.690346
0.687229
0.684554
0.678939
0.673433
0.668609
0.658785
0.647171
0.631043
0.594748
0.552612
0.467319
0.351565
0.257019
0.165077
0.109745
0.0787375
0.0770732
0.0898011
0.150614
0.376058
0.516797
0.698107
0.794796
0.841968
0.861863
0.868539
0.87056
0.870879
0.869359
0.863939
0.853769
0.83731
0.824139
0.808158
0.793755
0.77985
0.769629
0.756623
0.74823
0.741604
0.73838
0.735878
0.734323
0.733872
0.733924
0.735693
0.740483
0.747194
0.75407
0.760344
0.766196
0.771784
0.776994
0.781844
0.785828
0.787389
0.787875
0.787963
0.787916
0.787714
0.787361
0.786899
0.786445
0.786139
0.785972
0.785923
0.786216
0.787442
0.789809
0.793266
0.797141
0.800969
0.804697
0.807999
0.811342
0.814724
0.818135
0.821684
0.82569
0.830312
0.836842
0.846513
0.859708
0.87399
0.888924
0.903836
0.918085
0.931288
0.943359
0.955026
0.966902
0.977999
0.987118
0.993279
0.996665
0.998407
0.999239
0.999608
0.999751
0.999791
0.999786
0.999689
0.999345
0.998422
0.996109
0.990236
0.974716
0.931556
0.821826
0.674926
0.522039
0.382244
0.268644
0.182885
0.121104
0.0782907
0.0495841
0.0308656
0.018939
0.0114808
0.00688553
0.0040873
0.00240011
0.00139249
0.000797047
0.00044927
0.000248914
0.000135328
7.2101e-05
3.76093e-05
1.91949e-05
9.58251e-06
4.67884e-06
2.23451e-06
1.04387e-06
4.77041e-07
2.13271e-07
9.32801e-08
3.99144e-08
1.67086e-08
6.8417e-09
2.73982e-09
1.0727e-09
4.10483e-10
1.53443e-10
5.60112e-11
1.99442e-11
6.9223e-12
2.34186e-12
7.75759e-13
2.51462e-13
7.9796e-14
2.47463e-14
7.50799e-15
2.22004e-15
6.41699e-16
1.79809e-16
4.92058e-17
1.29547e-17
3.20164e-18
0.000149971
0.00705768
0.0151589
0.0243577
0.0463371
0.0993405
0.217392
0.467466
0.62399
0.687895
0.709632
0.715075
0.713362
0.705488
0.690213
0.655732
0.633697
0.595885
0.568286
0.546178
0.534133
0.53759
0.548751
0.571678
0.598003
0.618174
0.628615
0.626535
0.618537
0.604827
0.575477
0.517571
0.37962
0.3173
0.239159
0.138388
0.129753
0.312893
0.56887
0.675222
0.772787
0.832998
0.858808
0.868027
0.869984
0.868382
0.864811
0.855522
0.838068
0.820705
0.804923
0.796753
0.786412
0.780426
0.770684
0.761957
0.752091
0.740753
0.731003
0.722748
0.718041
0.715505
0.712877
0.711832
0.711596
0.712495
0.717241
0.725977
0.735682
0.744265
0.752908
0.761681
0.769854
0.77552
0.777155
0.77735
0.777137
0.776621
0.775868
0.774882
0.773977
0.773638
0.773647
0.774023
0.774995
0.776668
0.779028
0.78222
0.786483
0.791139
0.796172
0.801375
0.806939
0.812384
0.817357
0.821382
0.823776
0.825043
0.826356
0.827717
0.829672
0.833158
0.839761
0.85314
0.86986
0.886526
0.902664
0.917631
0.930984
0.942259
0.951755
0.960483
0.969272
0.978501
0.987052
0.993177
0.996693
0.9985
0.999362
0.999739
0.99989
0.999946
0.999963
0.999965
0.999955
0.9999
0.9997
0.999042
0.996878
0.989727
0.966219
0.888748
0.718818
0.547588
0.398069
0.279282
0.190558
0.127078
0.0831448
0.0535217
0.033956
0.0212474
0.0131099
0.0079684
0.00476402
0.00279684
0.00160967
0.000906922
0.000499695
0.000269054
0.000141521
7.27132e-05
3.64974e-05
1.79002e-05
8.58024e-06
4.02053e-06
1.84198e-06
8.25212e-07
3.61546e-07
1.54914e-07
6.49115e-08
2.65953e-08
1.06522e-08
4.16989e-09
1.59472e-09
5.95632e-10
2.17145e-10
7.72458e-11
2.67839e-11
9.04521e-12
2.98352e-12
9.62618e-13
3.03391e-13
9.34629e-14
2.80674e-14
8.22987e-15
2.34363e-15
6.50466e-16
1.74532e-16
4.43715e-17
0.00725495
0.0161089
0.0237982
0.0469709
0.115738
0.281914
0.569906
0.68128
0.71556
0.720213
0.716522
0.702156
0.670537
0.604567
0.522653
0.451224
0.385581
0.341137
0.308643
0.291172
0.272765
0.273335
0.280348
0.301134
0.345701
0.414051
0.521787
0.582384
0.604204
0.602377
0.593888
0.567833
0.505476
0.394859
0.227418
0.166717
0.368653
0.643088
0.75
0.812571
0.849219
0.864664
0.869142
0.869574
0.866311
0.856683
0.837928
0.822927
0.809253
0.797009
0.790318
0.780994
0.773431
0.766782
0.755973
0.74529
0.732038
0.716788
0.700696
0.685288
0.67534
0.67073
0.66829
0.66736
0.667345
0.670208
0.677929
0.687724
0.6973
0.707651
0.718887
0.729851
0.739715
0.747954
0.753908
0.757359
0.759237
0.76092
0.762066
0.763256
0.764258
0.765489
0.76715
0.769185
0.77133
0.774359
0.777935
0.782113
0.787628
0.793825
0.800923
0.808498
0.816252
0.823996
0.831608
0.838843
0.845189
0.849703
0.851599
0.848865
0.841769
0.834642
0.832231
0.833211
0.842171
0.863601
0.887058
0.907871
0.925382
0.939287
0.950059
0.958186
0.965172
0.971722
0.978211
0.984788
0.9908
0.995154
0.997679
0.998956
0.999557
0.999821
0.99993
0.999971
0.999986
0.999989
0.999989
0.999981
0.999943
0.999791
0.999219
0.997085
0.989205
0.960888
0.861857
0.674068
0.502839
0.362329
0.254174
0.17438
0.117339
0.0775485
0.0503467
0.0320873
0.0200502
0.0122657
0.0073358
0.00428439
0.00244159
0.0013571
0.000735635
0.000388941
0.000200635
0.000101016
4.96596e-05
2.38447e-05
1.11861e-05
5.12817e-06
2.29777e-06
1.00634e-06
4.30798e-07
1.80246e-07
7.3696e-08
2.9439e-08
1.14858e-08
4.37551e-09
1.62677e-09
5.90065e-10
2.08679e-10
7.1924e-11
2.41264e-11
7.90363e-12
2.52762e-12
7.89277e-13
2.40235e-13
7.13122e-14
2.05796e-14
5.77962e-15
1.57377e-15
4.07802e-16
0.019208
0.0226315
0.042068
0.121448
0.347484
0.633385
0.717203
0.731301
0.727559
0.713388
0.676127
0.599878
0.475311
0.38873
0.330376
0.293832
0.267854
0.247415
0.232365
0.213801
0.205455
0.191231
0.188534
0.192353
0.205827
0.237507
0.303807
0.464803
0.565781
0.59338
0.592378
0.579953
0.526089
0.366867
0.2083
0.348922
0.658943
0.779971
0.831222
0.856028
0.866135
0.868626
0.868629
0.863851
0.85077
0.828084
0.81503
0.803629
0.791783
0.781423
0.772382
0.759916
0.748486
0.734588
0.716858
0.69905
0.680421
0.664715
0.654529
0.649191
0.646463
0.64575
0.645909
0.648801
0.654161
0.659881
0.667266
0.676908
0.686714
0.696816
0.708143
0.719337
0.729791
0.739208
0.746919
0.752834
0.756492
0.759113
0.760611
0.762371
0.763583
0.764831
0.766623
0.769118
0.771884
0.775755
0.7803
0.785081
0.791009
0.797208
0.803605
0.810318
0.817265
0.824241
0.831309
0.838614
0.846779
0.856494
0.86551
0.873608
0.878591
0.87441
0.855535
0.834519
0.82554
0.824975
0.840843
0.87666
0.90961
0.933696
0.949982
0.960821
0.967445
0.972083
0.977051
0.98209
0.986855
0.991169
0.994758
0.99727
0.998712
0.999429
0.999761
0.999904
0.999963
0.999986
0.999994
0.999996
0.999995
0.999993
0.999977
0.999909
0.999632
0.998538
0.99432
0.978513
0.921343
0.758382
0.576887
0.425105
0.304989
0.213683
0.146377
0.0980335
0.0641396
0.0409494
0.0254842
0.0154466
0.00911407
0.00523421
0.00292627
0.00159319
0.000845135
0.000437049
0.000220448
0.000108507
5.21375e-05
2.44634e-05
1.12112e-05
5.01894e-06
2.19492e-06
9.37689e-07
3.91274e-07
1.59445e-07
6.34355e-08
2.46335e-08
9.33303e-09
3.44887e-09
1.24241e-09
4.36155e-10
1.49074e-10
4.96174e-11
1.61109e-11
5.10333e-12
1.57534e-12
4.73853e-13
1.38637e-13
3.94434e-14
1.08985e-14
2.87587e-15
0.0194823
0.0310553
0.101141
0.360956
0.673011
0.743638
0.74463
0.733659
0.70361
0.652185
0.54053
0.429879
0.357943
0.315662
0.285377
0.266959
0.253206
0.234655
0.218901
0.201072
0.187878
0.178282
0.162088
0.156794
0.160004
0.175453
0.216962
0.321911
0.482388
0.568502
0.588229
0.57798
0.505952
0.280384
0.285409
0.633605
0.780633
0.835067
0.856546
0.864316
0.866389
0.866532
0.860585
0.84404
0.813814
0.796056
0.782411
0.766086
0.753798
0.744524
0.728954
0.711262
0.696362
0.682289
0.668695
0.657132
0.647423
0.642761
0.640712
0.640113
0.640181
0.642046
0.645055
0.649337
0.655143
0.660853
0.667684
0.676509
0.685169
0.694254
0.704996
0.71584
0.726288
0.736072
0.744507
0.751438
0.755572
0.75858
0.760084
0.761782
0.762769
0.763327
0.764018
0.764815
0.766627
0.769344
0.773227
0.77777
0.783718
0.790529
0.797915
0.805321
0.811929
0.817508
0.82172
0.82449
0.825561
0.826939
0.835863
0.854777
0.87845
0.894244
0.900958
0.892041
0.852303
0.820912
0.812438
0.817871
0.853445
0.906425
0.941173
0.960984
0.972366
0.978646
0.981213
0.983494
0.986714
0.990142
0.993205
0.995668
0.997506
0.99872
0.999404
0.999741
0.999893
0.999958
0.999984
0.999994
0.999997
0.999998
0.999998
0.999996
0.999985
0.999936
0.999734
0.998925
0.995811
0.984199
0.942108
0.806498
0.623428
0.465845
0.338097
0.238657
0.163863
0.109383
0.0709432
0.0446859
0.0273312
0.0162349
0.00936979
0.00525745
0.0028701
0.0015255
0.00078998
0.000398809
0.000196369
9.43417e-05
4.42369e-05
2.02487e-05
9.04865e-06
3.94777e-06
1.6814e-06
6.99004e-07
2.83587e-07
1.12248e-07
4.3333e-08
1.63104e-08
5.98324e-09
2.13837e-09
7.44174e-10
2.51997e-10
8.31323e-11
2.67352e-11
8.37598e-12
2.5555e-12
7.5853e-13
2.18892e-13
6.1404e-14
1.65012e-14
0.0208865
0.0621758
0.274339
0.671325
0.7614
0.759894
0.744735
0.709425
0.66691
0.579703
0.461714
0.370156
0.325291
0.30125
0.280558
0.275914
0.261168
0.230829
0.193878
0.179434
0.171625
0.161992
0.146713
0.139314
0.137684
0.139816
0.167517
0.297697
0.483769
0.570807
0.588006
0.564478
0.385645
0.298783
0.551214
0.761281
0.826395
0.849979
0.858971
0.862273
0.861038
0.853065
0.83373
0.797955
0.774847
0.759231
0.741728
0.722415
0.707247
0.695424
0.682163
0.670457
0.66105
0.653158
0.64717
0.642274
0.638045
0.635738
0.63446
0.633997
0.633977
0.635006
0.637649
0.640256
0.642731
0.645146
0.648477
0.655873
0.663185
0.670986
0.682189
0.692958
0.705779
0.717056
0.728509
0.738084
0.745161
0.749761
0.752199
0.753396
0.754026
0.754413
0.754772
0.756899
0.759504
0.762604
0.76659
0.771846
0.779084
0.787974
0.797896
0.808804
0.819685
0.828851
0.833611
0.833111
0.8275
0.81756
0.806929
0.801757
0.811103
0.850415
0.8957
0.914956
0.914907
0.880279
0.823241
0.80614
0.808767
0.835552
0.902116
0.946988
0.969599
0.981064
0.987187
0.989689
0.990437
0.991596
0.993429
0.995364
0.996996
0.998193
0.999
0.999496
0.999768
0.999901
0.99996
0.999985
0.999994
0.999998
0.999999
0.999999
0.999999
0.999996
0.999985
0.999934
0.999726
0.998926
0.995974
0.985289
0.947226
0.8222
0.638868
0.477503
0.345211
0.241541
0.163588
0.107253
0.0680924
0.0418842
0.0249802
0.0144588
0.00812972
0.00444454
0.00236458
0.00122509
0.000618489
0.000304401
0.000146106
6.84075e-05
3.1248e-05
1.39268e-05
6.05594e-06
2.56902e-06
1.063e-06
4.28929e-07
1.68733e-07
6.46915e-08
2.41646e-08
8.79136e-09
3.11392e-09
1.07329e-09
3.59947e-10
1.17593e-10
3.74109e-11
1.15859e-11
3.49099e-12
1.02265e-12
2.91391e-13
7.97465e-14
0.025669
0.135013
0.569714
0.75797
0.774961
0.760064
0.732295
0.704569
0.654547
0.543057
0.419433
0.34828
0.320084
0.313488
0.315983
0.295627
0.24488
0.147244
0.0973517
0.0786525
0.0898322
0.103974
0.10286
0.0977065
0.101573
0.121775
0.173185
0.330461
0.515207
0.582009
0.579432
0.47247
0.358254
0.424651
0.722584
0.809942
0.838132
0.848903
0.852946
0.848341
0.834172
0.806822
0.772169
0.747494
0.72965
0.715797
0.6988
0.68255
0.669974
0.662088
0.656498
0.651941
0.647963
0.643625
0.638566
0.633543
0.628273
0.623929
0.619732
0.614194
0.606872
0.598183
0.591834
0.586755
0.583043
0.581633
0.582588
0.586673
0.591671
0.598089
0.607373
0.616754
0.630582
0.644227
0.661792
0.678955
0.696508
0.710546
0.720854
0.728588
0.735839
0.743231
0.750637
0.75621
0.759814
0.763773
0.767887
0.772966
0.780717
0.79162
0.805149
0.821056
0.838829
0.85781
0.876989
0.892083
0.895336
0.878737
0.840236
0.803222
0.78691
0.787442
0.814878
0.884844
0.921085
0.924306
0.896859
0.830235
0.808765
0.812115
0.84034
0.909073
0.955079
0.97704
0.987411
0.992586
0.995035
0.995764
0.995955
0.99638
0.997255
0.99815
0.998869
0.999361
0.999663
0.999835
0.999925
0.999968
0.999987
0.999995
0.999998
0.999999
1
0.999999
0.999999
0.999995
0.999978
0.999908
0.999641
0.998663
0.995159
0.982667
0.939063
0.801562
0.61433
0.452051
0.320545
0.21919
0.144674
0.0922692
0.0569287
0.0340217
0.0197182
0.011096
0.00606864
0.00322867
0.00167212
0.000843468
0.000414584
0.000198627
9.27762e-05
4.2253e-05
1.87634e-05
8.12404e-06
3.42911e-06
1.41077e-06
5.65578e-07
2.20889e-07
8.40192e-08
3.11155e-08
1.12161e-08
3.93387e-09
1.34185e-09
4.45525e-10
1.43997e-10
4.52899e-11
1.38587e-11
4.12339e-12
1.19377e-12
3.32687e-13
0.0350931
0.247069
0.680573
0.777954
0.775661
0.754342
0.73782
0.722191
0.650674
0.514454
0.403915
0.345579
0.347389
0.34706
0.33796
0.288317
0.190076
0.0929822
0.0596759
0.0537869
0.0608457
0.0693568
0.076108
0.0857594
0.102208
0.136709
0.229101
0.451008
0.561872
0.577007
0.513775
0.410121
0.400044
0.659209
0.787698
0.823593
0.83472
0.837691
0.825033
0.788904
0.755301
0.731833
0.71394
0.700176
0.6902
0.681259
0.670836
0.661568
0.654941
0.651128
0.647959
0.644139
0.638732
0.630334
0.62089
0.610543
0.598946
0.58717
0.575603
0.56265
0.551565
0.544886
0.539534
0.535147
0.533004
0.53233
0.535459
0.540854
0.546706
0.55394
0.561654
0.57133
0.579394
0.589065
0.599251
0.610825
0.625173
0.644419
0.666674
0.689088
0.711181
0.732005
0.747246
0.756573
0.763049
0.76716
0.770186
0.773365
0.778943
0.787054
0.798149
0.812931
0.831621
0.853777
0.879335
0.90576
0.927621
0.940468
0.937657
0.895934
0.819686
0.78553
0.784425
0.806661
0.882295
0.925574
0.929885
0.901396
0.841893
0.824162
0.829821
0.867459
0.927326
0.965703
0.983949
0.992166
0.99594
0.997722
0.998433
0.998607
0.998616
0.998679
0.998994
0.999376
0.999642
0.999809
0.999904
0.999955
0.99998
0.999992
0.999997
0.999999
1
1
1
0.999999
0.999998
0.999991
0.999961
0.999846
0.999425
0.997909
0.992477
0.97335
0.906969
0.731132
0.544662
0.389513
0.267809
0.177354
0.113327
0.0699898
0.0418443
0.0242523
0.0136432
0.00745717
0.00396354
0.00204989
0.00103214
0.000506145
0.000241802
0.000112555
5.10533e-05
2.25646e-05
9.71704e-06
4.07639e-06
1.66557e-06
6.62667e-07
2.56665e-07
9.67539e-08
3.54895e-08
1.26635e-08
4.39431e-09
1.48306e-09
4.87061e-10
1.55622e-10
4.83734e-11
1.46219e-11
4.30193e-12
1.22059e-12
0.0486906
0.322697
0.717082
0.782183
0.774883
0.765459
0.769217
0.74458
0.660047
0.504601
0.406368
0.376623
0.360586
0.360212
0.354221
0.310123
0.191031
0.105792
0.0740654
0.0650707
0.0651444
0.0731483
0.0836083
0.102948
0.143683
0.240909
0.432781
0.537972
0.559898
0.526223
0.444964
0.427729
0.565475
0.758864
0.808365
0.819995
0.821421
0.800072
0.736068
0.697015
0.678313
0.668327
0.663618
0.661883
0.659586
0.655536
0.650698
0.645831
0.641398
0.637609
0.633108
0.62707
0.617896
0.607053
0.59614
0.583834
0.57116
0.557594
0.543636
0.527514
0.512752
0.500556
0.490054
0.482689
0.479533
0.47866
0.481329
0.490764
0.504869
0.517635
0.533813
0.548236
0.558981
0.569796
0.57893
0.588027
0.597769
0.609294
0.625525
0.649208
0.679145
0.708631
0.732098
0.749239
0.757873
0.761021
0.760091
0.758456
0.757959
0.758396
0.759914
0.763186
0.770824
0.787682
0.818427
0.864509
0.911811
0.943045
0.956958
0.957761
0.929066
0.837547
0.794331
0.793691
0.82215
0.89769
0.934946
0.938965
0.912818
0.870297
0.859176
0.866758
0.906953
0.949703
0.976336
0.989588
0.995407
0.99789
0.998968
0.999425
0.999587
0.999627
0.999634
0.99965
0.999729
0.999835
0.999908
0.999952
0.999977
0.99999
0.999995
0.999998
0.999999
1
1
1
1
0.999999
0.999995
0.999979
0.999917
0.999687
0.998843
0.995771
0.984791
0.946071
0.815519
0.613245
0.440228
0.303231
0.20091
0.128338
0.0792001
0.0473018
0.0273812
0.0153807
0.00839193
0.00445089
0.0022961
0.00115264
0.000563258
0.000267995
0.000124167
5.60225e-05
2.46131e-05
1.05284e-05
4.38409e-06
1.77675e-06
7.00678e-07
2.68821e-07
1.0032e-07
3.64092e-08
1.28489e-08
4.40833e-09
1.47119e-09
4.77551e-10
1.50796e-10
4.63095e-11
1.38454e-11
3.99823e-12
0.0563335
0.353258
0.72958
0.783974
0.782451
0.78283
0.781584
0.751655
0.670523
0.536529
0.427726
0.393628
0.38559
0.384601
0.387348
0.379214
0.327478
0.223056
0.159219
0.133194
0.125594
0.135536
0.168818
0.237012
0.343635
0.465617
0.521564
0.53816
0.518795
0.467593
0.453896
0.518684
0.722664
0.791888
0.805962
0.806661
0.777444
0.705489
0.654464
0.633458
0.624478
0.621575
0.622439
0.631672
0.638827
0.639552
0.638518
0.63667
0.63419
0.630618
0.625813
0.618395
0.607685
0.595498
0.580947
0.562622
0.540478
0.513444
0.484501
0.456304
0.425556
0.397975
0.374545
0.358585
0.351381
0.349414
0.359609
0.376075
0.397027
0.426316
0.459893
0.492715
0.522147
0.544939
0.562838
0.576139
0.586345
0.59582
0.605961
0.617557
0.634318
0.658283
0.687359
0.711587
0.725842
0.733596
0.741518
0.7469
0.749485
0.75042
0.749859
0.747536
0.744345
0.743665
0.748172
0.767535
0.823371
0.902485
0.949063
0.96496
0.964923
0.933247
0.84807
0.815077
0.818203
0.859544
0.922731
0.951248
0.95596
0.944446
0.920381
0.910214
0.914734
0.942993
0.969751
0.985495
0.993677
0.997385
0.998919
0.999532
0.999779
0.999873
0.999904
0.999913
0.999919
0.999931
0.999949
0.999967
0.999981
0.99999
0.999995
0.999998
0.999999
1
1
1
1
1
0.999999
0.999997
0.999986
0.999945
0.99979
0.999205
0.997032
0.989107
0.960622
0.859415
0.653244
0.469333
0.322877
0.213511
0.136083
0.0837823
0.0499162
0.0288199
0.0161434
0.0087807
0.00464088
0.00238476
0.00119191
0.000579593
0.000274261
0.000126299
5.66007e-05
2.46825e-05
1.04723e-05
4.32217e-06
1.735e-06
6.77271e-07
2.57062e-07
9.48588e-08
3.40298e-08
1.18662e-08
4.02331e-09
1.32656e-09
4.25459e-10
1.3272e-10
4.03127e-11
1.1843e-11
0.0586892
0.363083
0.733034
0.787889
0.789695
0.789318
0.792599
0.77961
0.722812
0.596166
0.467419
0.419352
0.403556
0.400486
0.404258
0.408835
0.409379
0.393263
0.364439
0.344917
0.33763
0.354666
0.395376
0.44063
0.480763
0.509421
0.518692
0.504371
0.482823
0.475763
0.51923
0.697918
0.775558
0.79457
0.795878
0.76456
0.69788
0.631165
0.603523
0.593193
0.589829
0.589444
0.594939
0.608269
0.622653
0.627862
0.62891
0.628664
0.626814
0.62332
0.617166
0.604196
0.589342
0.573049
0.549496
0.51624
0.47469
0.434102
0.390835
0.348786
0.309659
0.277499
0.253754
0.238631
0.232651
0.233275
0.244991
0.265371
0.29406
0.327319
0.364437
0.404245
0.446651
0.486847
0.522064
0.551316
0.57393
0.589014
0.601091
0.612467
0.624182
0.638644
0.656872
0.678281
0.701089
0.722748
0.740342
0.757601
0.774849
0.785241
0.786399
0.780904
0.765561
0.748861
0.742983
0.74674
0.765325
0.819883
0.905354
0.95618
0.971124
0.968756
0.932526
0.871798
0.853671
0.861015
0.906052
0.949013
0.969437
0.975662
0.974857
0.967627
0.9589
0.957622
0.968171
0.983659
0.992219
0.996555
0.998576
0.99944
0.999781
0.99991
0.999957
0.999973
0.999978
0.99998
0.999983
0.999987
0.999991
0.999994
0.999997
0.999998
0.999999
1
1
1
1
1
1
0.999999
0.999997
0.999989
0.999957
0.999831
0.999345
0.997496
0.990606
0.965372
0.874403
0.66738
0.477916
0.327533
0.215736
0.136965
0.0839995
0.0498504
0.0286653
0.0159875
0.00865555
0.0045517
0.00232614
0.00115569
0.000558336
0.000262336
0.000119877
5.32726e-05
2.30205e-05
9.67171e-06
3.95015e-06
1.56816e-06
6.05064e-07
2.26897e-07
8.26961e-08
2.92927e-08
1.0086e-08
3.37655e-09
1.09947e-09
3.48239e-10
1.07412e-10
3.20815e-11
0.0573464
0.348268
0.725821
0.789539
0.79327
0.797035
0.806294
0.80481
0.76787
0.667497
0.536893
0.457271
0.42685
0.415811
0.41352
0.418881
0.430846
0.436097
0.44161
0.444188
0.445454
0.456572
0.471525
0.48423
0.492137
0.496936
0.496792
0.495018
0.499571
0.54579
0.695663
0.772536
0.795931
0.799747
0.787943
0.743795
0.67396
0.60679
0.580833
0.571903
0.569799
0.570143
0.575685
0.59074
0.608426
0.617584
0.620013
0.620288
0.619806
0.615968
0.605472
0.59332
0.577202
0.552486
0.514582
0.468101
0.417773
0.365711
0.316923
0.270582
0.23341
0.206
0.186863
0.17597
0.17152
0.174563
0.185896
0.208545
0.243384
0.282275
0.323819
0.366971
0.409984
0.450419
0.486252
0.516461
0.542648
0.568742
0.592735
0.612672
0.6308
0.645862
0.659486
0.678067
0.702603
0.733978
0.770815
0.808219
0.841946
0.870613
0.890605
0.895772
0.879566
0.827722
0.780529
0.763498
0.766158
0.796036
0.865377
0.930356
0.967981
0.978741
0.975451
0.951547
0.919809
0.907129
0.913163
0.945185
0.970953
0.98398
0.989248
0.990327
0.98945
0.986212
0.98409
0.985577
0.991931
0.996282
0.998385
0.999335
0.999739
0.999901
0.999962
0.999984
0.999992
0.999994
0.999995
0.999996
0.999997
0.999998
0.999999
0.999999
1
1
1
1
1
1
1
1
1
0.999998
0.999991
0.999961
0.999842
0.999371
0.997541
0.990583
0.964711
0.870429
0.659748
0.469703
0.320044
0.209635
0.132378
0.0807544
0.0476646
0.0272536
0.0151096
0.00812852
0.00424577
0.00215421
0.00106204
0.000508864
0.000236973
0.000107256
4.71774e-05
2.01645e-05
8.37403e-06
3.37863e-06
1.32433e-06
5.04317e-07
1.866e-07
6.7091e-08
2.34439e-08
7.96365e-09
2.63099e-09
8.45551e-10
2.64659e-10
8.0299e-11
0.0423838
0.266887
0.693987
0.790821
0.797882
0.799673
0.811759
0.817339
0.807701
0.764404
0.658039
0.53088
0.473308
0.445535
0.433431
0.429696
0.429978
0.440295
0.448584
0.452508
0.459998
0.468156
0.476382
0.484143
0.491393
0.497723
0.507237
0.537089
0.615653
0.732124
0.79076
0.812206
0.816654
0.811174
0.788481
0.745642
0.679767
0.610688
0.580018
0.567633
0.562754
0.561427
0.563575
0.573699
0.595894
0.608169
0.612509
0.613798
0.613987
0.611487
0.602548
0.586228
0.563788
0.52731
0.477871
0.420016
0.36426
0.309827
0.261404
0.218832
0.186337
0.164168
0.149567
0.142089
0.139893
0.143176
0.15159
0.166965
0.199002
0.24573
0.297658
0.34859
0.396983
0.440547
0.477551
0.508328
0.531856
0.550786
0.568346
0.592957
0.625443
0.654686
0.677148
0.699508
0.726236
0.757014
0.789279
0.821534
0.854647
0.888099
0.919025
0.943257
0.954014
0.947223
0.899287
0.838728
0.817677
0.8196
0.857492
0.919497
0.960198
0.980854
0.98731
0.986801
0.980615
0.970565
0.961595
0.960668
0.972068
0.986243
0.993236
0.996086
0.99691
0.99688
0.996271
0.995657
0.995627
0.996818
0.998489
0.999338
0.999729
0.999895
0.999961
0.999986
0.999995
0.999998
0.999999
0.999999
0.999999
0.999999
1
1
1
1
1
1
1
1
1
1
1
1
0.999998
0.999991
0.999961
0.999836
0.999328
0.997313
0.989531
0.960276
0.852929
0.637861
0.45061
0.304842
0.198322
0.124396
0.0753715
0.0441757
0.0250735
0.0137938
0.00736037
0.0038116
0.00191638
0.000935701
0.000443737
0.000204388
9.14338e-05
3.97229e-05
1.67583e-05
6.86521e-06
2.73105e-06
1.0551e-06
3.9593e-07
1.44344e-07
5.11389e-08
1.76103e-08
5.89767e-09
1.92149e-09
6.09762e-10
1.87743e-10
0.0305543
0.18472
0.638058
0.787903
0.801422
0.803155
0.812125
0.822806
0.824293
0.812163
0.773453
0.688249
0.567576
0.510141
0.477109
0.459987
0.452425
0.450151
0.451204
0.460016
0.466333
0.474674
0.48375
0.495105
0.513088
0.540073
0.590532
0.69203
0.776787
0.816488
0.833326
0.838115
0.838251
0.828037
0.801312
0.763742
0.714072
0.650163
0.595949
0.572548
0.563632
0.56043
0.560194
0.563591
0.576574
0.599117
0.606682
0.609156
0.609614
0.608049
0.600448
0.584658
0.56126
0.522127
0.468639
0.406332
0.344031
0.286986
0.238539
0.1996
0.170774
0.151216
0.139239
0.133842
0.133066
0.135162
0.142313
0.154586
0.181189
0.232062
0.287732
0.342045
0.394096
0.440604
0.478349
0.508772
0.533314
0.551917
0.564918
0.578056
0.597657
0.627726
0.664219
0.697375
0.72512
0.749735
0.768932
0.787139
0.818672
0.863393
0.907654
0.942956
0.965234
0.975311
0.973227
0.952357
0.92458
0.910311
0.906175
0.923399
0.958955
0.980418
0.990966
0.994646
0.995293
0.994701
0.99263
0.990516
0.98945
0.990741
0.995203
0.997854
0.998887
0.999188
0.999215
0.999163
0.999117
0.999142
0.999326
0.999622
0.999811
0.999915
0.999966
0.999987
0.999995
0.999998
0.999999
1
1
1
1
1
1
1
1
1
1
1
1
1
1
1
0.999999
0.999998
0.99999
0.999955