/*--------------------------------*- C++ -*----------------------------------*\
  =========                 |
  \\      /  F ield         | OpenFOAM: The Open Source CFD Toolbox
   \\    /   O peration     | Website:  https://openfoam.org
    \\  /    A nd           | Version:  7
     \\/     M anipulation  |
\*---------------------------------------------------------------------------*/
FoamFile
{
    version     2.0;
    format      ascii;
    class       volScalarField;
    location    "0.061";
    object      s_0;
}
// * * * * * * * * * * * * * * * * * * * * * * * * * * * * * * * * * * * * * //

dimensions      [0 0 0 0 0 0 0];

internalField   nonuniform List<scalar> 
12225
(
1
1
1
1
1
1
1
1
1
1
1
1
1
1
1
1
1
1
1
1
1
1
1
1
1
1
1
1
1
1
1
1
1
1
1
1
1
1
1
1
1
1
1
1
1
1
1
1
1
1
1
1
1
1
1
1
1
1
1
1
1
1
1
1
1
1
1
1
1
1
1
1
1
1
1
1
1
1
1
1
1
1
1
1
1
1
1
1
1
1
1
1
1
1
1
1
1
1
1
1
1
1
1
1
1
1
1
1
1
1
1
1
1
1
1
1
1
1
1
1
1
1
1
1
1
1
1
1
1
1
1
1
1
1
1
1
1
1
1
1
1
1
1
1
1
1
1
1
1
1
1
1
1
1
1
1
1
1
1
1
1
1
1
1
1
1
1
1
1
1
1
1
1
1
1
1
1
1
1
1
1
1
1
1
1
1
1
1
1
1
1
1
1
1
1
1
1
1
1
1
1
1
1
1
1
1
1
1
1
1
1
1
1
1
1
1
1
1
1
1
1
1
1
1
1
1
1
1
1
1
1
1
1
1
1
1
1
1
1
1
1
1
1
1
1
1
1
1
1
1
1
1
1
1
1
1
1
1
1
1
1
1
1
1
1
1
1
1
1
1
1
1
1
1
1
1
1
1
1
1
1
1
1
1
1
1
1
1
1
1
1
1
1
1
1
1
1
1
1
1
1
1
1
1
1
1
1
1
1
1
1
1
1
1
1
1
1
1
1
1
1
1
1
1
1
1
1
1
1
1
1
1
1
1
1
1
1
1
1
1
1
1
1
1
1
1
1
1
1
1
1
1
1
1
1
1
1
1
1
1
1
1
1
1
1
1
1
1
1
1
1
1
1
1
1
1
1
1
1
1
1
1
1
1
1
1
1
1
1
1
1
1
1
1
1
1
1
1
1
1
1
1
1
1
1
1
1
1
1
1
1
1
1
1
1
1
1
1
1
1
1
1
1
1
1
1
1
1
1
1
1
1
1
1
1
1
1
1
1
1
1
1
1
1
1
1
1
1
1
1
1
1
1
1
1
1
1
1
1
1
1
1
1
1
1
1
1
1
1
1
1
1
1
1
1
1
1
1
1
1
1
1
1
1
1
1
1
1
1
1
1
1
1
1
1
1
1
1
1
1
1
1
1
1
1
1
1
1
1
1
1
1
1
1
1
1
1
1
1
1
1
1
1
1
1
1
1
1
1
1
1
1
1
1
1
1
1
1
1
1
0.000111257
0.00055559
0.00138462
0.00263815
0.00450133
0.00744498
0.0101595
0.0133414
0.0207897
0.0258741
0.0378713
0.0483619
0.060898
0.0711535
0.0823548
0.091929
0.0987008
0.104031
0.10404
0.102634
0.0991693
0.0935561
0.0888611
0.0835502
0.0773368
0.0708694
0.0643134
0.0579563
0.0496336
0.0431164
0.036382
0.0192898
0.00403499
0.00106816
0.00158163
0.00295681
0.00462226
0.00644167
0.00932956
0.013416
0.0165397
0.0225641
0.029993
0.036242
0.0455007
0.127032
0.543801
0.765603
0.773175
0.773179
0.774815
0.777029
0.777894
0.77852
0.779881
0.781627
0.782777
0.783451
0.784615
0.786545
0.78858
0.790186
0.791495
0.792829
0.794205
0.79548
0.796679
0.79794
0.799226
0.800347
0.800949
0.801609
0.801989
0.8023
0.802648
0.802856
0.803004
0.803068
0.803013
0.802594
0.802007
0.80157
0.801232
0.800739
0.800114
0.799367
0.79834
0.797106
0.795687
0.794339
0.793021
0.791191
0.788677
0.785912
0.782544
0.77845
0.773473
0.767151
0.759669
0.750709
0.739997
0.727729
0.71339
0.697086
0.678349
0.656962
0.63209
0.60329
0.569882
0.531529
0.488134
0.439744
0.386857
0.330635
0.272992
0.216554
0.164407
0.11942
0.0835525
0.0568761
0.0371964
0.0229916
0.013026
0.00675378
0.00333134
0.00156522
0.000701107
0.000299746
0.000122487
4.79118e-05
1.80344e-05
6.55791e-06
2.1207e-06
6.26373e-07
2.99835e-07
1.42421e-07
6.58197e-08
2.96735e-08
1.31009e-08
5.67232e-09
2.40974e-09
1.00498e-09
4.11726e-10
1.65819e-10
6.56991e-11
2.56287e-11
9.85163e-12
3.73527e-12
1.39851e-12
5.17775e-13
1.89853e-13
6.90279e-14
2.48996e-14
8.90982e-15
3.16008e-15
1.10914e-15
3.84285e-16
1.31022e-16
4.38846e-17
1.44367e-17
4.66492e-18
1.48085e-18
4.61854e-19
1.41521e-19
4.25989e-20
1.25928e-20
3.65452e-21
1.04064e-21
2.9058e-22
7.9504e-23
2.12954e-23
5.57726e-24
1.42637e-24
3.55455e-25
8.61464e-26
2.02154e-26
4.58303e-27
9.79221e-28
2.05712e-28
-4.27217e-29
8.35873e-05
0.000473103
0.00148081
0.00407769
0.00778491
0.0144511
0.0219959
0.036314
0.0630765
0.0911323
0.150584
0.198894
0.257496
0.32286
0.371212
0.415769
0.444194
0.466271
0.479036
0.47841
0.472953
0.457529
0.43838
0.399298
0.358074
0.305943
0.235995
0.176029
0.127699
0.0911033
0.0682607
0.0474108
0.0291191
0.0182171
0.0125869
0.00893503
0.00864952
0.00946377
0.0124453
0.019127
0.0408096
0.0478587
0.0537578
0.146704
0.565085
0.692604
0.774651
0.811699
0.823876
0.842099
0.855496
0.866108
0.875506
0.882453
0.888712
0.894364
0.897829
0.899603
0.900389
0.900567
0.899617
0.896293
0.892656
0.88912
0.884472
0.879856
0.875233
0.869983
0.865581
0.862093
0.859652
0.858447
0.857352
0.856887
0.856548
0.856497
0.856677
0.857444
0.858733
0.860225
0.861865
0.863871
0.866242
0.868727
0.871437
0.874528
0.877896
0.881114
0.884316
0.888103
0.89248
0.89696
0.901858
0.907895
0.914492
0.921492
0.929282
0.937456
0.945642
0.953305
0.959049
0.964073
0.968504
0.972236
0.975277
0.977627
0.979304
0.980324
0.980715
0.979987
0.976824
0.971016
0.961987
0.948643
0.9295
0.902463
0.864908
0.813877
0.74689
0.663814
0.568437
0.466213
0.365058
0.273362
0.197391
0.138596
0.0944494
0.0621759
0.0396814
0.024617
0.0148699
0.00876057
0.00504205
0.00283926
0.0015667
0.000848391
0.000451482
0.000236413
0.000121943
6.20095e-05
3.11032e-05
1.53924e-05
7.51535e-06
3.61929e-06
1.71853e-06
8.04161e-07
3.70689e-07
1.68317e-07
7.53447e-08
3.33383e-08
1.46435e-08
6.39041e-09
2.74855e-09
1.15822e-09
4.76049e-10
1.90078e-10
7.33719e-11
2.72028e-11
9.72993e-12
3.39159e-12
1.15411e-12
3.83904e-13
1.24939e-13
3.98021e-14
1.24157e-14
3.79267e-15
1.13447e-15
3.32249e-16
9.52337e-17
2.67102e-17
7.32424e-18
1.96322e-18
5.13493e-19
1.31085e-19
3.2532e-20
7.86114e-21
1.8389e-21
3.82809e-22
9.69095e-23
-1.66572e-22
2.78002e-05
0.000203322
0.00152294
0.00549566
0.0115059
0.0209382
0.0376226
0.0712111
0.135184
0.243375
0.375485
0.501873
0.583714
0.633626
0.66077
0.67581
0.685675
0.688645
0.688565
0.687793
0.685651
0.681452
0.671822
0.661
0.638746
0.610943
0.578925
0.508204
0.429705
0.318177
0.204652
0.134153
0.0883078
0.0608491
0.0441058
0.0308945
0.0302758
0.0344796
0.0518849
0.0606266
0.0864487
0.249412
0.529603
0.700492
0.802695
0.837557
0.857415
0.866498
0.871615
0.874618
0.875849
0.876115
0.8749
0.87296
0.866249
0.858033
0.845199
0.833326
0.822185
0.808112
0.797542
0.785845
0.778526
0.771582
0.768362
0.765932
0.765026
0.764892
0.766804
0.770825
0.774423
0.777951
0.781519
0.785018
0.788092
0.790333
0.7914
0.791898
0.792322
0.792987
0.793753
0.794488
0.794976
0.795386
0.796156
0.797229
0.798458
0.799898
0.801685
0.804143
0.807011
0.81008
0.813721
0.817901
0.822788
0.828292
0.834836
0.842863
0.852974
0.865759
0.881378
0.897781
0.913486
0.927873
0.941175
0.953248
0.963871
0.973026
0.980744
0.987006
0.991513
0.994626
0.996545
0.997505
0.997838
0.997832
0.99722
0.995249
0.991999
0.986822
0.977519
0.95924
0.923915
0.862541
0.770233
0.651576
0.520124
0.392627
0.283028
0.197417
0.133678
0.087939
0.0562687
0.0351432
0.0214766
0.0128746
0.00758962
0.0044099
0.00253082
0.00143716
0.00080882
0.000451836
0.000250928
0.000138528
7.57716e-05
4.09425e-05
2.17993e-05
1.14124e-05
5.86428e-06
2.95373e-06
1.4569e-06
7.03315e-07
3.32225e-07
1.53544e-07
6.94237e-08
3.07042e-08
1.32808e-08
5.61716e-09
2.32267e-09
9.38701e-10
3.7067e-10
1.42951e-10
5.38078e-11
1.97571e-11
7.06865e-12
2.46116e-12
8.37212e-13
2.7906e-13
9.11113e-14
2.91397e-14
9.12179e-15
2.79568e-15
8.37285e-16
2.45326e-16
7.00086e-17
1.95301e-17
5.27018e-18
1.38919e-18
3.5255e-19
7.31182e-20
1.60347e-05
0.000409985
0.00512554
0.0122838
0.0218489
0.0415487
0.0828754
0.167686
0.347413
0.538306
0.636561
0.68208
0.702205
0.710039
0.711339
0.709904
0.707293
0.701376
0.695317
0.690258
0.687103
0.684381
0.678719
0.673253
0.668409
0.658544
0.646936
0.630736
0.594308
0.552102
0.466374
0.350818
0.256237
0.164428
0.109376
0.0786133
0.0770613
0.0898795
0.151684
0.378172
0.518332
0.69928
0.795397
0.84234
0.86205
0.868659
0.87064
0.870941
0.86943
0.863956
0.853754
0.837262
0.824061
0.808194
0.793889
0.780031
0.769868
0.756865
0.748364
0.741643
0.738357
0.735872
0.734274
0.7338
0.733831
0.735499
0.74018
0.746852
0.75375
0.76006
0.765935
0.771543
0.776773
0.781635
0.78572
0.787369
0.78789
0.787991
0.787951
0.78776
0.787416
0.786959
0.786504
0.7862
0.78603
0.785977
0.786252
0.787445
0.789768
0.793199
0.797064
0.800887
0.80462
0.807925
0.811267
0.814652
0.818073
0.821634
0.825653
0.830312
0.836895
0.846639
0.859862
0.874148
0.88908
0.903991
0.918236
0.931433
0.943504
0.955191
0.967082
0.978164
0.987245
0.993353
0.996705
0.998427
0.999248
0.999612
0.999753
0.999792
0.999786
0.999686
0.999336
0.9984
0.996055
0.990101
0.974359
0.930561
0.819903
0.672853
0.520025
0.380516
0.267301
0.181898
0.120409
0.0778178
0.0492719
0.0306646
0.0188121
0.011402
0.00683709
0.00405784
0.00238234
0.00138188
0.00079078
0.000445614
0.000246814
0.000134142
7.14448e-05
3.72538e-05
1.90066e-05
9.48506e-06
4.62958e-06
2.21018e-06
1.03213e-06
4.71507e-07
2.10721e-07
9.21317e-08
3.94089e-08
1.64911e-08
6.75019e-09
2.7022e-09
1.05758e-09
4.0455e-10
1.51169e-10
5.51606e-11
1.96339e-11
6.812e-12
2.30374e-12
7.62864e-13
2.47197e-13
7.84161e-14
2.43101e-14
7.3732e-15
2.17946e-15
6.29759e-16
1.76406e-16
4.82588e-17
1.27013e-17
3.13811e-18
0.000151076
0.00708371
0.0151611
0.0243207
0.0462129
0.0990925
0.217097
0.467642
0.624296
0.688162
0.709855
0.715254
0.713523
0.705595
0.690266
0.655613
0.633583
0.595571
0.567997
0.545756
0.533711
0.537182
0.548384
0.571417
0.597799
0.617992
0.628427
0.626317
0.618312
0.604584
0.575122
0.516862
0.37872
0.316966
0.238259
0.137859
0.129837
0.315603
0.570074
0.676196
0.773492
0.833332
0.859007
0.868159
0.870086
0.868467
0.864832
0.855478
0.838022
0.820679
0.804926
0.796768
0.786449
0.780529
0.770887
0.762199
0.7524
0.741076
0.731253
0.722879
0.718048
0.715498
0.71285
0.711764
0.71151
0.712329
0.716918
0.725563
0.7353
0.743932
0.752588
0.761383
0.769577
0.775458
0.777211
0.777434
0.777237
0.776732
0.775985
0.775001
0.774079
0.773709
0.773706
0.774056
0.774998
0.77664
0.778969
0.782129
0.786373
0.791021
0.796048
0.80123
0.806767
0.812187
0.817142
0.821155
0.823553
0.824857
0.82623
0.827616
0.829615
0.83315
0.83988
0.853379
0.87006
0.886715
0.902831
0.917779
0.931111
0.942361
0.951849
0.960584
0.969394
0.97864
0.987169
0.993254
0.996733
0.998521
0.999371
0.999743
0.999891
0.999947
0.999963
0.999965
0.999954
0.999898
0.999695
0.999025
0.996824
0.989553
0.965655
0.8869
0.716402
0.545397
0.396252
0.277889
0.189542
0.126364
0.0826569
0.0531958
0.033742
0.021109
0.0130215
0.00791265
0.00472934
0.00277562
0.00159692
0.000899423
0.000495381
0.000266632
0.000140194
7.2004e-05
3.61278e-05
1.77123e-05
8.48704e-06
3.97539e-06
1.82063e-06
8.15351e-07
3.57096e-07
1.52952e-07
6.40658e-08
2.62391e-08
1.05057e-08
4.11101e-09
1.57161e-09
5.8678e-10
2.13837e-10
7.60401e-11
2.63557e-11
8.89721e-12
2.93368e-12
9.46205e-13
2.98114e-13
9.18054e-14
2.75602e-14
8.0784e-15
2.29972e-15
6.38065e-16
1.71148e-16
4.34979e-17
0.0072882
0.0161211
0.0237488
0.0467443
0.115123
0.280757
0.569486
0.681266
0.715639
0.72034
0.716647
0.702253
0.670567
0.604361
0.522391
0.450801
0.385103
0.340602
0.308148
0.29066
0.272283
0.272866
0.2799
0.300763
0.345374
0.414111
0.521864
0.5824
0.604095
0.602237
0.59372
0.5675
0.504978
0.393684
0.226229
0.166713
0.371097
0.644291
0.750629
0.81303
0.849455
0.864785
0.869222
0.869643
0.86637
0.856692
0.837879
0.822938
0.809316
0.797034
0.790365
0.781049
0.773448
0.766864
0.756139
0.745499
0.732321
0.717113
0.70105
0.685593
0.67542
0.670712
0.668234
0.667269
0.667227
0.669956
0.677552
0.68733
0.696915
0.70725
0.71849
0.729495
0.739424
0.747741
0.753783
0.757299
0.759198
0.760889
0.762042
0.763229
0.764231
0.765454
0.767104
0.769131
0.771262
0.77427
0.777829
0.781985
0.787478
0.79366
0.800752
0.808341
0.816119
0.823891
0.831527
0.838779
0.845104
0.849533
0.851328
0.848507
0.841344
0.83444
0.832127
0.833217
0.842489
0.864069
0.887416
0.908146
0.925577
0.939423
0.950151
0.958253
0.965241
0.971796
0.978297
0.984881
0.990881
0.995207
0.997708
0.99897
0.999563
0.999824
0.999931
0.999972
0.999986
0.999989
0.999989
0.99998
0.999942
0.999787
0.999205
0.997031
0.989009
0.960201
0.859599
0.671623
0.500732
0.360661
0.252918
0.173467
0.116693
0.0771008
0.0500422
0.0318837
0.0199165
0.0121797
0.0072817
0.00425116
0.0024217
0.00134552
0.000729065
0.000385315
0.000198687
9.99967e-05
4.91397e-05
2.35862e-05
1.10607e-05
5.06879e-06
2.27031e-06
9.93946e-07
4.25335e-07
1.77894e-07
7.27071e-08
2.9033e-08
1.13231e-08
4.31189e-09
1.60249e-09
5.81036e-10
2.05407e-10
7.07684e-11
2.37297e-11
7.77087e-12
2.48426e-12
7.75463e-13
2.35947e-13
7.00149e-14
2.01982e-14
5.67058e-15
1.54355e-15
3.99847e-16
0.0192142
0.0225922
0.0418169
0.120537
0.345397
0.632685
0.717071
0.731359
0.727626
0.713411
0.676065
0.599695
0.474954
0.388317
0.329921
0.293396
0.267366
0.246984
0.231908
0.213401
0.205053
0.190805
0.188149
0.191984
0.205498
0.237308
0.303995
0.465633
0.565999
0.593368
0.592308
0.579775
0.525425
0.365105
0.207832
0.351262
0.66011
0.78048
0.831488
0.856157
0.86619
0.868669
0.868677
0.863866
0.850726
0.827953
0.81486
0.803458
0.791668
0.781344
0.77231
0.759843
0.748389
0.734545
0.716887
0.699128
0.680546
0.664825
0.654567
0.649204
0.646407
0.64567
0.645802
0.648611
0.653929
0.65962
0.666936
0.676535
0.686342
0.696429
0.707749
0.718972
0.72947
0.738942
0.746715
0.752694
0.756404
0.759057
0.76057
0.762335
0.763557
0.764801
0.766584
0.769076
0.771835
0.775697
0.780242
0.785018
0.790942
0.797151
0.803574
0.810291
0.817255
0.824261
0.831379
0.838754
0.847017
0.856712
0.865684
0.87372
0.878576
0.873949
0.854828
0.834114
0.825399
0.825047
0.841506
0.877424
0.910125
0.934005
0.950154
0.960916
0.967481
0.972123
0.977106
0.982151
0.986915
0.991227
0.994805
0.9973
0.998728
0.999437
0.999764
0.999906
0.999963
0.999986
0.999994
0.999996
0.999995
0.999992
0.999976
0.999907
0.999624
0.99851
0.994215
0.978126
0.919968
0.755732
0.574639
0.423278
0.303571
0.212618
0.145599
0.0974785
0.0637531
0.040687
0.0253107
0.0153351
0.00904449
0.00519206
0.0029015
0.00157905
0.000837295
0.000432822
0.00021823
0.000107373
5.15731e-05
2.41894e-05
1.10814e-05
4.95896e-06
2.16787e-06
9.25781e-07
3.86158e-07
1.573e-07
6.25578e-08
2.42832e-08
9.19673e-09
3.39716e-09
1.2233e-09
4.29278e-10
1.46665e-10
4.87973e-11
1.58387e-11
5.01527e-12
1.5476e-12
4.65341e-13
1.36098e-13
3.87077e-14
1.06915e-14
2.82033e-15
0.0194744
0.0308832
0.100228
0.358143
0.672117
0.743461
0.744638
0.733689
0.703495
0.651897
0.540052
0.429542
0.357595
0.315237
0.284934
0.266531
0.252742
0.23426
0.218544
0.200692
0.187557
0.177898
0.161687
0.156486
0.159737
0.175283
0.216994
0.32256
0.483138
0.568784
0.588268
0.577803
0.50491
0.279365
0.28639
0.634882
0.781017
0.835163
0.856562
0.864313
0.866386
0.866509
0.860524
0.843908
0.813575
0.795761
0.78209
0.765713
0.753308
0.744088
0.72864
0.711002
0.696141
0.682148
0.668633
0.657134
0.647424
0.642728
0.64066
0.640047
0.640099
0.641923
0.644914
0.649152
0.654931
0.660623
0.6674
0.676209
0.684887
0.693961
0.704695
0.715566
0.726044
0.73587
0.744349
0.751337
0.755518
0.758558
0.760077
0.761786
0.762789
0.763355
0.764055
0.76487
0.766672
0.769378
0.773256
0.777787
0.783718
0.790501
0.79784
0.805235
0.811833
0.817404
0.821625
0.82443
0.825552
0.827223
0.836496
0.855688
0.879078
0.894574
0.901004
0.891388
0.85123
0.820472
0.812358
0.818179
0.854589
0.907329
0.941643
0.961214
0.972484
0.978679
0.981213
0.983517
0.986754
0.990185
0.993244
0.9957
0.997529
0.998735
0.999412
0.999745
0.999895
0.999959
0.999984
0.999994
0.999997
0.999998
0.999998
0.999996
0.999984
0.999935
0.999729
0.998905
0.995734
0.983916
0.941099
0.803997
0.621123
0.463918
0.336562
0.237477
0.162985
0.10875
0.0705018
0.0443881
0.0271369
0.0161123
0.00929496
0.00521321
0.00284475
0.0015114
0.000782362
0.000394806
0.000194321
9.33216e-05
4.37416e-05
2.00142e-05
8.94042e-06
3.89904e-06
1.66e-06
6.89839e-07
2.79759e-07
1.10689e-07
4.27142e-08
1.6071e-08
5.89307e-09
2.1053e-09
7.32372e-10
2.47902e-10
8.17502e-11
2.62808e-11
8.23056e-12
2.51021e-12
7.44818e-13
2.14858e-13
6.02512e-14
1.6186e-14
0.0208414
0.0616033
0.271419
0.66998
0.761213
0.759857
0.744673
0.709103
0.666455
0.579331
0.461431
0.369851
0.324933
0.300815
0.280123
0.275515
0.260793
0.230503
0.193679
0.17929
0.171399
0.161632
0.146322
0.138941
0.137274
0.139457
0.167602
0.298898
0.484603
0.571117
0.588023
0.564044
0.384064
0.298637
0.553571
0.761704
0.826389
0.84985
0.858844
0.862176
0.86087
0.852774
0.833293
0.797477
0.774374
0.758772
0.741326
0.722031
0.706809
0.695012
0.681869
0.670252
0.660906
0.653063
0.64711
0.642249
0.638021
0.635686
0.634386
0.633909
0.633879
0.634866
0.637476
0.640089
0.64258
0.645013
0.648319
0.655717
0.663098
0.670908
0.682128
0.692934
0.705782
0.717103
0.728573
0.73818
0.745272
0.749883
0.752326
0.753517
0.754131
0.754494
0.754808
0.756878
0.759463
0.762553
0.766528
0.771772
0.778987
0.787849
0.797725
0.808546
0.819304
0.828297
0.832887
0.832347
0.826933
0.817065
0.806664
0.801749
0.811933
0.851903
0.896615
0.915213
0.914756
0.878872
0.822437
0.805949
0.808846
0.83656
0.903356
0.947582
0.969871
0.981191
0.987243
0.989689
0.990433
0.991609
0.993453
0.995389
0.997016
0.998208
0.99901
0.999502
0.999772
0.999903
0.999961
0.999985
0.999994
0.999998
0.999999
0.999999
0.999999
0.999996
0.999984
0.999933
0.999721
0.998907
0.995903
0.985031
0.946318
0.819778
0.636517
0.475506
0.343603
0.240301
0.16267
0.1066
0.0676452
0.0415895
0.024793
0.014344
0.00806162
0.00440543
0.00234279
0.00121331
0.000612291
0.00030123
0.000144526
6.76412e-05
3.08858e-05
1.376e-05
5.98101e-06
2.53623e-06
1.04901e-06
4.23114e-07
1.66378e-07
6.37628e-08
2.3808e-08
8.65809e-09
3.06547e-09
1.05616e-09
3.54063e-10
1.15625e-10
3.67711e-11
1.13835e-11
3.42872e-12
1.00405e-12
2.85986e-13
7.82407e-14
0.0255433
0.133694
0.567199
0.757604
0.774974
0.760021
0.732036
0.704067
0.654126
0.542849
0.419252
0.34798
0.319721
0.313072
0.315619
0.295337
0.244739
0.147204
0.0973132
0.0785843
0.0897501
0.103648
0.102442
0.0973184
0.101349
0.12173
0.173516
0.331822
0.516177
0.582193
0.579289
0.471105
0.357776
0.426526
0.723314
0.809944
0.837928
0.848657
0.852655
0.847842
0.833348
0.80572
0.771257
0.746798
0.729028
0.715277
0.698417
0.682255
0.6697
0.661832
0.65631
0.651813
0.647874
0.643554
0.63849
0.633482
0.628195
0.623813
0.619591
0.614025
0.606669
0.597985
0.591629
0.586615
0.582959
0.581566
0.58257
0.586688
0.591745
0.598186
0.607515
0.616909
0.630814
0.644513
0.662121
0.679322
0.696869
0.710839
0.721115
0.728783
0.735947
0.743252
0.750604
0.756161
0.759744
0.763695
0.767819
0.772913
0.78068
0.791602
0.805159
0.821094
0.838887
0.857869
0.876927
0.891612
0.894217
0.87698
0.83841
0.8023
0.786621
0.787537
0.816299
0.88646
0.921518
0.924287
0.895527
0.829212
0.808502
0.812175
0.841243
0.910306
0.955671
0.977306
0.987528
0.992641
0.995051
0.995759
0.99595
0.996385
0.997267
0.998161
0.998878
0.999367
0.999666
0.999837
0.999926
0.999969
0.999988
0.999995
0.999998
0.999999
1
0.999999
0.999999
0.999995
0.999978
0.999907
0.999635
0.99864
0.995074
0.982367
0.938025
0.799004
0.611924
0.450039
0.318949
0.217985
0.143804
0.0916686
0.0565307
0.0337679
0.0195622
0.0110033
0.00601536
0.00319897
0.00165605
0.000835019
0.000410265
0.000196478
9.17355e-05
4.17622e-05
1.8538e-05
8.02319e-06
3.38516e-06
1.39212e-06
5.57871e-07
2.17789e-07
8.28057e-08
3.06534e-08
1.10449e-08
3.87225e-09
1.32029e-09
4.38194e-10
1.41572e-10
4.45102e-11
1.3615e-11
4.04935e-12
1.17191e-12
3.2648e-13
0.0348707
0.245236
0.679516
0.777863
0.775675
0.754166
0.737271
0.721559
0.650345
0.514672
0.403774
0.345278
0.347077
0.346769
0.337695
0.288197
0.190122
0.0929881
0.0596679
0.0537793
0.0607744
0.0692119
0.0759425
0.0856296
0.102112
0.136903
0.230242
0.452397
0.562158
0.577023
0.512802
0.409659
0.40025
0.66019
0.787806
0.823401
0.83439
0.837196
0.824136
0.787151
0.753515
0.730486
0.712914
0.699387
0.689579
0.680776
0.670507
0.661339
0.654755
0.650959
0.647805
0.644012
0.638622
0.630202
0.620746
0.610352
0.59872
0.5869
0.575336
0.562405
0.551329
0.544638
0.53934
0.535019
0.532923
0.532274
0.535431
0.540884
0.546777
0.554039
0.561752
0.571446
0.579515
0.589179
0.599393
0.610998
0.625419
0.644757
0.666955
0.689304
0.71131
0.732062
0.747268
0.756569
0.76305
0.767178
0.770235
0.77345
0.779107
0.787378
0.798642
0.813571
0.8323
0.854502
0.880033
0.906298
0.927901
0.940402
0.936893
0.893335
0.817712
0.784969
0.784363
0.807602
0.884102
0.926012
0.929808
0.900045
0.840941
0.823832
0.8299
0.868376
0.928247
0.966195
0.984169
0.99226
0.995982
0.997739
0.998437
0.998605
0.998613
0.99868
0.999
0.999381
0.999645
0.999811
0.999905
0.999955
0.99998
0.999992
0.999997
0.999999
1
1
1
0.999999
0.999998
0.99999
0.99996
0.999844
0.999415
0.997873
0.992346
0.972891
0.905383
0.728359
0.542314
0.387611
0.266353
0.176295
0.112592
0.0695019
0.0415328
0.0240607
0.0135294
0.00739174
0.00392708
0.00203018
0.00102179
0.000500863
0.00023918
0.000111289
5.04582e-05
2.22923e-05
9.59583e-06
4.02386e-06
1.64342e-06
6.53579e-07
2.53038e-07
9.53467e-08
3.49587e-08
1.24689e-08
4.32496e-09
1.45906e-09
4.78989e-10
1.52982e-10
4.75346e-11
1.43629e-11
4.22415e-12
1.1981e-12
0.0484199
0.321279
0.716468
0.782128
0.774828
0.765052
0.768797
0.744531
0.660314
0.504926
0.406364
0.376389
0.360303
0.359978
0.354123
0.310335
0.191589
0.105993
0.0741384
0.065086
0.0651315
0.0730919
0.0835846
0.103038
0.14413
0.242657
0.434316
0.538354
0.560003
0.52548
0.444605
0.427613
0.567198
0.759168
0.808235
0.819718
0.820937
0.799061
0.734283
0.695477
0.676913
0.667112
0.66257
0.661124
0.659059
0.655148
0.650427
0.645642
0.641249
0.637467
0.632973
0.626929
0.617748
0.606923
0.595997
0.583661
0.570938
0.557299
0.543297
0.527176
0.512407
0.500202
0.489761
0.482453
0.479392
0.478676
0.481449
0.490919
0.505128
0.51793
0.53406
0.548475
0.559163
0.569931
0.579044
0.58814
0.597882
0.609436
0.625813
0.649616
0.6796
0.70901
0.732374
0.749456
0.758068
0.761246
0.760376
0.75872
0.758227
0.758674
0.760292
0.763804
0.771921
0.78933
0.82059
0.866803
0.913203
0.943665
0.957105
0.957511
0.927096
0.83513
0.793603
0.79357
0.823126
0.899165
0.935283
0.93877
0.911588
0.869421
0.858783
0.866865
0.907748
0.950306
0.976683
0.989748
0.995475
0.997918
0.99898
0.999429
0.999588
0.999627
0.999633
0.99965
0.999731
0.999836
0.999908
0.999953
0.999977
0.99999
0.999996
0.999998
0.999999
1
1
1
1
0.999999
0.999995
0.999979
0.999916
0.999681
0.998822
0.995696
0.984525
0.945138
0.812855
0.610652
0.438095
0.301588
0.199712
0.127506
0.0786478
0.0469495
0.0271648
0.0152522
0.00831819
0.00440988
0.00227397
0.00114105
0.000557359
0.000265077
0.000122764
5.5366e-05
2.43144e-05
1.03962e-05
4.32721e-06
1.75295e-06
6.90995e-07
2.64993e-07
9.88487e-08
3.58601e-08
1.26498e-08
4.33821e-09
1.4472e-09
4.69574e-10
1.48219e-10
4.55004e-11
1.35983e-11
3.92545e-12
0.0560966
0.351961
0.729115
0.783914
0.782279
0.782608
0.781437
0.751746
0.670852
0.537016
0.427805
0.393458
0.385312
0.384306
0.387117
0.379226
0.32788
0.223855
0.159775
0.133653
0.126012
0.136017
0.169522
0.238196
0.344918
0.466372
0.521875
0.538308
0.518261
0.467337
0.453821
0.519953
0.723314
0.791872
0.805793
0.806238
0.776332
0.70407
0.653271
0.632387
0.623499
0.620653
0.621604
0.630961
0.638409
0.639262
0.638304
0.636513
0.63407
0.630515
0.625717
0.618267
0.607537
0.595335
0.580733
0.56232
0.540022
0.512842
0.483775
0.455559
0.424812
0.397299
0.374033
0.358217
0.35119
0.349412
0.35976
0.376423
0.397493
0.426858
0.460541
0.493397
0.52267
0.54536
0.563136
0.576329
0.586463
0.595921
0.606036
0.617683
0.634582
0.658781
0.688003
0.71221
0.726341
0.733894
0.741583
0.746845
0.749295
0.75013
0.749527
0.747202
0.74414
0.743624
0.748538
0.768892
0.826452
0.904845
0.949961
0.965139
0.964703
0.931253
0.846086
0.814349
0.818129
0.860653
0.923669
0.951506
0.955784
0.94365
0.919608
0.90976
0.914732
0.94354
0.970106
0.985702
0.993779
0.99743
0.998936
0.999538
0.999781
0.999874
0.999904
0.999913
0.999919
0.999931
0.999949
0.999967
0.999981
0.99999
0.999995
0.999998
0.999999
1
1
1
1
1
0.999999
0.999997
0.999986
0.999944
0.999786
0.99919
0.996979
0.988914
0.95993
0.85698
0.65054
0.467059
0.321121
0.212233
0.135198
0.083196
0.0495432
0.0285913
0.0160081
0.00870325
0.00459793
0.00236167
0.00117986
0.000573489
0.000271257
0.000124862
5.59326e-05
2.43807e-05
1.03397e-05
4.26561e-06
1.71155e-06
6.67825e-07
2.53367e-07
9.34548e-08
3.35118e-08
1.16806e-08
3.95874e-09
1.30474e-09
4.18291e-10
1.30433e-10
3.96026e-11
1.16301e-11
0.0584546
0.361855
0.732617
0.787815
0.789587
0.789107
0.792376
0.779479
0.723083
0.59705
0.467702
0.419322
0.403391
0.400278
0.404016
0.408685
0.409295
0.393478
0.364913
0.34557
0.338335
0.35549
0.396166
0.441231
0.481037
0.509423
0.518707
0.503986
0.482683
0.475759
0.519948
0.698728
0.775904
0.794654
0.795839
0.764318
0.697692
0.630572
0.602852
0.592548
0.589223
0.588857
0.594363
0.607723
0.622271
0.627618
0.628716
0.628497
0.626678
0.623193
0.617012
0.604028
0.58914
0.572766
0.549056
0.515619
0.473894
0.433223
0.389947
0.347917
0.308913
0.276896
0.253353
0.238381
0.232458
0.233293
0.245117
0.265617
0.294384
0.327703
0.364873
0.404748
0.44737
0.487596
0.522761
0.551921
0.574346
0.589233
0.601213
0.612508
0.624163
0.638702
0.656998
0.678462
0.701265
0.722848
0.740282
0.757091
0.773802
0.783662
0.784544
0.779068
0.763904
0.747877
0.742593
0.746737
0.765926
0.822232
0.90751
0.957038
0.971262
0.968397
0.930444
0.87026
0.852944
0.861044
0.907022
0.949588
0.969637
0.975601
0.974643
0.967167
0.958526
0.957466
0.96844
0.983855
0.992328
0.996609
0.998601
0.99945
0.999785
0.999911
0.999958
0.999973
0.999978
0.999981
0.999983
0.999987
0.999991
0.999994
0.999997
0.999998
0.999999
1
1
1
1
1
1
0.999999
0.999997
0.999989
0.999956
0.999828
0.999333
0.997451
0.990437
0.964755
0.872186
0.664502
0.475577
0.325735
0.214433
0.136067
0.0834076
0.0494754
0.0284364
0.0158526
0.00857867
0.00450928
0.00230345
0.00114391
0.000552407
0.000259437
0.0001185
5.26377e-05
2.27361e-05
9.54802e-06
3.8979e-06
1.54673e-06
5.96534e-07
2.236e-07
8.1459e-08
2.88421e-08
9.92666e-09
3.32182e-09
1.08121e-09
3.42318e-10
1.05544e-10
3.15117e-11
0.0571612
0.347335
0.725445
0.78946
0.793156
0.796806
0.806099
0.804757
0.768264
0.668225
0.537635
0.457485
0.426833
0.415684
0.413348
0.418603
0.43067
0.435947
0.441499
0.444237
0.445573
0.456656
0.471587
0.484261
0.49204
0.496745
0.496513
0.494893
0.499769
0.54688
0.696985
0.773225
0.796392
0.800121
0.788332
0.744443
0.674772
0.607052
0.580736
0.571663
0.569516
0.569844
0.575328
0.590343
0.608119
0.617376
0.619844
0.620135
0.619673
0.615849
0.605329
0.59315
0.576971
0.552079
0.513954
0.46727
0.41688
0.364771
0.316056
0.269829
0.232798
0.20555
0.186575
0.175813
0.171417
0.174603
0.186046
0.208823
0.243729
0.282688
0.324218
0.36736
0.410345
0.450801
0.486639
0.516852
0.543154
0.569357
0.593271
0.612969
0.630984
0.645836
0.659417
0.678044
0.702622
0.733998
0.770764
0.808208
0.841865
0.870206
0.88948
0.893652
0.876213
0.823779
0.77835
0.762489
0.765838
0.797032
0.867068
0.931721
0.96854
0.978763
0.975049
0.950088
0.918501
0.906356
0.913138
0.945813
0.971294
0.984119
0.989261
0.99027
0.989334
0.98604
0.983982
0.985599
0.992043
0.996336
0.99841
0.999346
0.999743
0.999903
0.999963
0.999985
0.999992
0.999994
0.999995
0.999996
0.999997
0.999998
0.999999
0.999999
1
1
1
1
1
1
1
1
0.999999
0.999998
0.99999
0.99996
0.999839
0.999359
0.997495
0.990411
0.964074
0.868121
0.656868
0.467367
0.318263
0.208354
0.1315
0.0801793
0.0473024
0.0270338
0.0149809
0.00805559
0.00420579
0.00213297
0.0010511
0.0005034
0.000234324
0.00010601
4.66083e-05
1.99123e-05
8.26557e-06
3.33337e-06
1.306e-06
4.97117e-07
1.83855e-07
6.60753e-08
2.30791e-08
7.8364e-09
2.58788e-09
8.31359e-10
2.60113e-10
7.88895e-11
0.0423033
0.266133
0.69342
0.790731
0.797779
0.79951
0.811549
0.817258
0.807802
0.764889
0.659177
0.531479
0.473562
0.445578
0.433366
0.429571
0.429808
0.440049
0.448443
0.452389
0.45986
0.468027
0.476257
0.483984
0.491246
0.497585
0.507151
0.537401
0.6171
0.733493
0.791642
0.812915
0.817318
0.811841
0.789032
0.746469
0.680853
0.611338
0.580153
0.567635
0.562696
0.561336
0.56343
0.573464
0.595625
0.608011
0.612385
0.613687
0.613881
0.611379
0.602428
0.586049
0.563494
0.526816
0.477184
0.419166
0.363319
0.308902
0.260577
0.218183
0.185856
0.163834
0.149363
0.141977
0.139863
0.143216
0.151714
0.167222
0.199486
0.2463
0.298206
0.349081
0.397369
0.440838
0.477833
0.508586
0.532069
0.550991
0.568735
0.593711
0.626303
0.655247
0.677567
0.6999
0.726691
0.757557
0.789951
0.822381
0.855588
0.888966
0.919697
0.943586
0.953588
0.945691
0.895167
0.835688
0.816
0.818699
0.858581
0.92058
0.960877
0.981127
0.987296
0.986611
0.980093
0.969888
0.961009
0.960393
0.972353
0.986421
0.993309
0.996103
0.996898
0.996855
0.996228
0.995623
0.995609
0.996847
0.99851
0.999349
0.999733
0.999897
0.999962
0.999986
0.999995
0.999998
0.999999
0.999999
0.999999
0.999999
1
1
1
1
1
1
1
1
1
1
1
1
0.999998
0.999991
0.99996
0.999832
0.999315
0.997262
0.989337
0.959553
0.850343
0.635079
0.44832
0.303115
0.19709
0.12356
0.0748273
0.0438355
0.0248685
0.0136746
0.00729344
0.00377522
0.00189723
0.000925931
0.000438905
0.000202071
9.03557e-05
3.92366e-05
1.65455e-05
6.77496e-06
2.69393e-06
1.04028e-06
3.90197e-07
1.42191e-07
5.03544e-08
1.73328e-08
5.80228e-09
1.88964e-09
5.99412e-10
1.84485e-10
0.0304595
0.18378
0.637144
0.787781
0.801365
0.80303
0.811891
0.82272
0.824289
0.812351
0.774
0.689432
0.568539
0.51045
0.477276
0.459975
0.452355
0.450056
0.451059
0.459836
0.466182
0.474515
0.483587
0.494971
0.513075
0.540347
0.591298
0.692972
0.777592
0.817157
0.833889
0.838645
0.838784
0.828694
0.802315
0.764968
0.715683
0.651931
0.596694
0.572745
0.56366
0.560417
0.560163
0.563521
0.576436
0.598977
0.606577
0.609074
0.609528
0.607944
0.600272
0.584425
0.560889
0.521562
0.467903
0.4055
0.343155
0.286169
0.23784
0.199068
0.1704
0.150971
0.139102
0.133788
0.133059
0.1352
0.142432
0.15484
0.181813
0.232709
0.288317
0.342592
0.394554
0.440885
0.478526
0.508963
0.533468
0.551948
0.564948
0.578237
0.598137
0.628851
0.665516
0.698307
0.725959
0.750659
0.770142
0.789102
0.821214
0.865603
0.909301
0.943924
0.96569
0.975247
0.972553
0.950164
0.922127
0.908178
0.90469
0.923722
0.959485
0.980748
0.991087
0.994648
0.995239
0.994595
0.992461
0.990341
0.989302
0.990735
0.995267
0.99788
0.998893
0.999186
0.99921
0.999156
0.999112
0.999138
0.999329
0.999625
0.999813
0.999917
0.999966
0.999987
0.999995
0.999998
0.999999
1
1
1
1
1
1
1
1
1
1
1
1
1
1
1
0.999999
0.999998
0.999989
0.999954
0.999804