/*--------------------------------*- C++ -*----------------------------------*\
  =========                 |
  \\      /  F ield         | OpenFOAM: The Open Source CFD Toolbox
   \\    /   O peration     | Website:  https://openfoam.org
    \\  /    A nd           | Version:  7
     \\/     M anipulation  |
\*---------------------------------------------------------------------------*/
FoamFile
{
    version     2.0;
    format      ascii;
    class       volSymmTensorField;
    location    "0.061";
    object      UPrime2Mean;
}
// * * * * * * * * * * * * * * * * * * * * * * * * * * * * * * * * * * * * * //

dimensions      [0 2 -2 0 0 0 0];

internalField   nonuniform List<symmTensor> 
12225
(
(0.00463313 -0.000217009 0 0.000501723 0 0)
(0.0330805 -0.00147657 0 0.000249642 0 0)
(0.048151 -0.00216538 0 0.000234745 0 0)
(0.0644432 -0.00266267 0 0.00022361 0 0)
(0.0925283 -0.0033247 0 0.000217115 0 0)
(0.134121 -0.00416974 0 0.000214868 0 0)
(0.189456 -0.00518255 0 0.000226117 0 0)
(0.258812 -0.00595388 0 0.000207964 0 0)
(0.342068 -0.00715893 0 0.000223009 0 0)
(0.438284 -0.00684328 0 0.000168137 0 0)
(0.549118 -0.00913488 0 0.000203309 0 0)
(0.666678 -0.00586171 0 0.000114713 0 0)
(0.808934 -0.013865 0 0.000301277 0 0)
(0.946191 -0.00128702 0 0.000214513 0 0)
(1.15138 -0.0326059 0 0.00147111 0 0)
(1.35044 0.0154886 0 0.00178271 0 0)
(1.74433 -0.124316 0 0.0169401 0 0)
(2.36042 0.0480405 0 0.00833659 0 0)
(0.00430514 5.13671e-05 0 0.000631391 0 0)
(0.022229 -0.000693996 0 0.000236406 0 0)
(0.0243844 -0.00117054 0 0.000300487 0 0)
(0.0251153 -0.0014678 0 0.000411492 0 0)
(0.0297303 -0.00205759 0 0.000551988 0 0)
(0.0380103 -0.00313211 0 0.00073602 0 0)
(0.0506451 -0.00464545 0 0.000926034 0 0)
(0.0696349 -0.00678885 0 0.00118668 0 0)
(0.0954332 -0.0090713 0 0.00133797 0 0)
(0.132708 -0.012512 0 0.0016543 0 0)
(0.178649 -0.0149936 0 0.0016485 0 0)
(0.244232 -0.0207195 0 0.00212665 0 0)
(0.317113 -0.0223966 0 0.00191593 0 0)
(0.427857 -0.0347412 0 0.00313961 0 0)
(0.539348 -0.0350357 0 0.00279336 0 0)
(0.744976 -0.0712843 0 0.00793176 0 0)
(0.932152 -0.0857174 0 0.00876087 0 0)
(1.35354 -0.244235 0 0.057596 0 0)
(0.00398383 0.00010379 0 0.000878134 0 0)
(0.0218181 -0.00108028 0 0.0004419 0 0)
(0.0230191 -0.00167382 0 0.000539679 0 0)
(0.0223076 -0.00182959 0 0.000708855 0 0)
(0.0241616 -0.00214128 0 0.000920127 0 0)
(0.027192 -0.00277291 0 0.00118516 0 0)
(0.0312031 -0.00373641 0 0.00156789 0 0)
(0.0364381 -0.00493748 0 0.0019288 0 0)
(0.0435541 -0.00663891 0 0.00247863 0 0)
(0.0530858 -0.00842061 0 0.00282533 0 0)
(0.0667577 -0.0115077 0 0.00356484 0 0)
(0.0850005 -0.0140419 0 0.0037811 0 0)
(0.111663 -0.0203955 0 0.00516959 0 0)
(0.146993 -0.0242764 0 0.00528761 0 0)
(0.199891 -0.0409497 0 0.00958405 0 0)
(0.271206 -0.0516321 0 0.0107432 0 0)
(0.373691 -0.10619 0 0.0318232 0 0)
(0.505079 -0.177533 0 0.0661284 0 0)
(0.00409463 -0.000291611 0 0.000969149 0 0)
(0.021719 -0.00137646 0 0.000544516 0 0)
(0.0227922 -0.00185307 0 0.000630296 0 0)
(0.021988 -0.0020319 0 0.000847714 0 0)
(0.023546 -0.00235242 0 0.00110281 0 0)
(0.0260307 -0.00297702 0 0.00143462 0 0)
(0.0291135 -0.00386225 0 0.00184094 0 0)
(0.0329273 -0.00500036 0 0.0023844 0 0)
(0.0376114 -0.00631868 0 0.00293865 0 0)
(0.0437988 -0.00811103 0 0.00368718 0 0)
(0.0518648 -0.0102295 0 0.00438069 0 0)
(0.0631977 -0.0135903 0 0.00551381 0 0)
(0.0784246 -0.0177358 0 0.00665707 0 0)
(0.100542 -0.025292 0 0.00909303 0 0)
(0.130762 -0.0359145 0 0.0124741 0 0)
(0.173438 -0.0565204 0 0.0208766 0 0)
(0.228723 -0.0924809 0 0.0391892 0 0)
(0.284848 -0.149376 0 0.0800529 0 0)
(0.00437439 -0.000243325 0 0.00113012 0 0)
(0.0213435 -0.00159494 0 0.000694809 0 0)
(0.0221382 -0.00208085 0 0.000787343 0 0)
(0.0213467 -0.00226399 0 0.00106252 0 0)
(0.0229198 -0.00260384 0 0.00138782 0 0)
(0.025314 -0.00326647 0 0.0017747 0 0)
(0.0282213 -0.00423548 0 0.00229519 0 0)
(0.0317513 -0.00545057 0 0.0029 0 0)
(0.0361014 -0.0069944 0 0.00369566 0 0)
(0.0416374 -0.00884626 0 0.00454238 0 0)
(0.0488899 -0.0114818 0 0.00571392 0 0)
(0.058553 -0.0148551 0 0.00703568 0 0)
(0.0715974 -0.0201832 0 0.00922667 0 0)
(0.089331 -0.0276106 0 0.0121983 0 0)
(0.1131 -0.0401983 0 0.0180358 0 0)
(0.143612 -0.0597613 0 0.0284807 0 0)
(0.179 -0.0913457 0 0.0496417 0 0)
(0.208146 -0.138939 0 0.0965874 0 0)
(0.00422296 -0.000373036 0 0.0012502 0 0)
(0.0211078 -0.00185993 0 0.000873612 0 0)
(0.0215424 -0.00224609 0 0.00100917 0 0)
(0.0206133 -0.00238018 0 0.00137124 0 0)
(0.0220347 -0.00272687 0 0.00179121 0 0)
(0.0241927 -0.0034167 0 0.00228127 0 0)
(0.0268118 -0.00441904 0 0.00288457 0 0)
(0.0300233 -0.00571568 0 0.00364598 0 0)
(0.0339955 -0.00734416 0 0.00456727 0 0)
(0.0390188 -0.00944815 0 0.00571249 0 0)
(0.0455482 -0.0122702 0 0.00714715 0 0)
(0.0540874 -0.0162084 0 0.00909173 0 0)
(0.0654259 -0.0218659 0 0.0118718 0 0)
(0.0801364 -0.0301827 0 0.0161806 0 0)
(0.0990785 -0.0428474 0 0.0234498 0 0)
(0.121086 -0.0616196 0 0.0361642 0 0)
(0.14436 -0.0893214 0 0.059668 0 0)
(0.160353 -0.124582 0 0.100765 0 0)
(0.00392736 -0.000351572 0 0.00148797 0 0)
(0.0207427 -0.00205911 0 0.00118652 0 0)
(0.0211041 -0.00247 0 0.00128627 0 0)
(0.0201413 -0.00263849 0 0.00166942 0 0)
(0.0215046 -0.0030387 0 0.00216078 0 0)
(0.0235373 -0.00380049 0 0.00273507 0 0)
(0.0259664 -0.00489529 0 0.0034515 0 0)
(0.0289114 -0.00629656 0 0.00434706 0 0)
(0.0325277 -0.0080673 0 0.00547842 0 0)
(0.0370653 -0.0103421 0 0.00689452 0 0)
(0.042889 -0.0134083 0 0.00872372 0 0)
(0.0503526 -0.017641 0 0.0112127 0 0)
(0.0599394 -0.0236221 0 0.0147781 0 0)
(0.0718294 -0.0321872 0 0.0202597 0 0)
(0.08621 -0.0444252 0 0.0289147 0 0)
(0.101555 -0.0616416 0 0.0434343 0 0)
(0.116124 -0.0843132 0 0.0667961 0 0)
(0.123849 -0.110791 0 0.104297 0 0)
(0.00379954 -0.000321959 0 0.00141499 0 0)
(0.020325 -0.00225877 0 0.00121687 0 0)
(0.0207061 -0.00260034 0 0.00147437 0 0)
(0.0197408 -0.00269444 0 0.00195611 0 0)
(0.0210059 -0.00310295 0 0.00255086 0 0)
(0.0228449 -0.00390034 0 0.00324483 0 0)
(0.0249904 -0.00502637 0 0.0040944 0 0)
(0.0275678 -0.006475 0 0.00516822 0 0)
(0.030725 -0.00832549 0 0.00652884 0 0)
(0.0346642 -0.0107315 0 0.00826393 0 0)
(0.0396504 -0.0139554 0 0.0105251 0 0)
(0.0458914 -0.0183435 0 0.0136077 0 0)
(0.0536303 -0.0243902 0 0.0179766 0 0)
(0.0627909 -0.0327159 0 0.0244792 0 0)
(0.0731728 -0.0440411 0 0.0343259 0 0)
(0.083323 -0.058891 0 0.0496367 0 0)
(0.0917567 -0.077 0 0.0725203 0 0)
(0.0946605 -0.0964982 0 0.10615 0 0)
(0.00451149 -0.000538021 0 0.00146947 0 0)
(0.020585 -0.00276759 0 0.00143284 0 0)
(0.0204213 -0.00308672 0 0.00176664 0 0)
(0.0193388 -0.0031037 0 0.00231392 0 0)
(0.0205986 -0.00350522 0 0.00301477 0 0)
(0.0223368 -0.00435163 0 0.00384631 0 0)
(0.0242613 -0.00554865 0 0.00485766 0 0)
(0.0265112 -0.00706624 0 0.00612566 0 0)
(0.0292219 -0.00897765 0 0.00773408 0 0)
(0.032552 -0.0114388 0 0.00980341 0 0)
(0.0366816 -0.0146936 0 0.0125076 0 0)
(0.0417121 -0.0190529 0 0.0161824 0 0)
(0.0477081 -0.0248933 0 0.0212901 0 0)
(0.054429 -0.0326347 0 0.0286584 0 0)
(0.0615049 -0.0426311 0 0.0392972 0 0)
(0.0676905 -0.054937 0 0.0548681 0 0)
(0.0719677 -0.0689298 0 0.0766691 0 0)
(0.0719666 -0.082865 0 0.106453 0 0)
(0.00414867 -0.000553797 0 0.0016937 0 0)
(0.0204032 -0.00288826 0 0.00157927 0 0)
(0.0202334 -0.0031605 0 0.00194271 0 0)
(0.0190863 -0.00311017 0 0.00254491 0 0)
(0.0202048 -0.00347791 0 0.00332582 0 0)
(0.0217365 -0.00431162 0 0.00426821 0 0)
(0.0233869 -0.00549384 0 0.00541654 0 0)
(0.0252816 -0.00699582 0 0.00686038 0 0)
(0.0275359 -0.00889683 0 0.00870814 0 0)
(0.0302666 -0.0113417 0 0.0111035 0 0)
(0.0335791 -0.0145308 0 0.0142357 0 0)
(0.0374743 -0.0186966 0 0.0184429 0 0)
(0.0418869 -0.0240977 0 0.0241724 0 0)
(0.0464917 -0.0309571 0 0.0321644 0 0)
(0.0508909 -0.0393757 0 0.0432209 0 0)
(0.0541132 -0.0491268 0 0.0585702 0 0)
(0.0555826 -0.059507 0 0.0789068 0 0)
(0.0538292 -0.0690735 0 0.105255 0 0)
(0.00403852 -0.000657369 0 0.00196554 0 0)
(0.0201018 -0.00324111 0 0.00192527 0 0)
(0.0195194 -0.00354153 0 0.00231644 0 0)
(0.0180642 -0.00340509 0 0.00299726 0 0)
(0.0189849 -0.00372976 0 0.00388619 0 0)
(0.0203585 -0.00455202 0 0.00497328 0 0)
(0.0218286 -0.00571515 0 0.00629944 0 0)
(0.0234744 -0.00717266 0 0.00795507 0 0)
(0.0253703 -0.00899507 0 0.0100512 0 0)
(0.0275814 -0.011315 0 0.0127531 0 0)
(0.0301503 -0.0142985 0 0.0162662 0 0)
(0.0330194 -0.0181072 0 0.0209188 0 0)
(0.0360702 -0.0228906 0 0.0271119 0 0)
(0.0389816 -0.0287141 0 0.0354693 0 0)
(0.0414233 -0.0355192 0 0.0465854 0 0)
(0.042685 -0.0429386 0 0.0613279 0 0)
(0.0425218 -0.0503379 0 0.0799847 0 0)
(0.0399959 -0.0565683 0 0.103156 0 0)
(0.00397571 -0.000600889 0 0.0019997 0 0)
(0.0200857 -0.00332221 0 0.00201146 0 0)
(0.0195493 -0.00370053 0 0.00242474 0 0)
(0.0180885 -0.00353881 0 0.00316164 0 0)
(0.0188755 -0.00383616 0 0.0041389 0 0)
(0.0200077 -0.00464788 0 0.00535199 0 0)
(0.0211884 -0.00578926 0 0.00683448 0 0)
(0.0225114 -0.00718949 0 0.00866957 0 0)
(0.0240194 -0.00890849 0 0.0109844 0 0)
(0.0257289 -0.0110638 0 0.0139515 0 0)
(0.0276271 -0.0137875 0 0.017774 0 0)
(0.0296103 -0.0171774 0 0.0227585 0 0)
(0.0315387 -0.021297 0 0.0292478 0 0)
(0.0331443 -0.0261044 0 0.0377553 0 0)
(0.034196 -0.0314493 0 0.0486935 0 0)
(0.0342173 -0.0369275 0 0.0626761 0 0)
(0.0331704 -0.0420043 0 0.0797365 0 0)
(0.0304177 -0.0457904 0 0.100277 0 0)
(0.00403216 -0.000773692 0 0.00233733 0 0)
(0.0199964 -0.00345614 0 0.00241978 0 0)
(0.0192483 -0.00374463 0 0.00279314 0 0)
(0.0176542 -0.00348193 0 0.00355412 0 0)
(0.0183066 -0.0036929 0 0.00460062 0 0)
(0.0192679 -0.00443126 0 0.0059185 0 0)
(0.0202303 -0.00549176 0 0.0075353 0 0)
(0.0212753 -0.00677981 0 0.00953458 0 0)
(0.0224252 -0.00833377 0 0.0120447 0 0)
(0.0236733 -0.010245 0 0.0152325 0 0)
(0.0249825 -0.0126059 0 0.0192893 0 0)
(0.0262492 -0.0154659 0 0.0244866 0 0)
(0.0273372 -0.0188253 0 0.0311025 0 0)
(0.0280345 -0.0225863 0 0.039546 0 0)
(0.0281718 -0.0265546 0 0.0500842 0 0)
(0.0274583 -0.0303586 0 0.0631553 0 0)
(0.0259508 -0.0335464 0 0.0786424 0 0)
(0.0232592 -0.0354782 0 0.0968422 0 0)
(0.00413593 -0.0007935 0 0.00277811 0 0)
(0.0198967 -0.00356852 0 0.00290763 0 0)
(0.019013 -0.00376421 0 0.00332364 0 0)
(0.0173365 -0.00336423 0 0.00413624 0 0)
(0.0178233 -0.00344196 0 0.0052557 0 0)
(0.018527 -0.00405281 0 0.00667137 0 0)
(0.0191579 -0.00496972 0 0.00841226 0 0)
(0.0197936 -0.00606513 0 0.0105621 0 0)
(0.020442 -0.00734218 0 0.0132399 0 0)
(0.021095 -0.00886326 0 0.0166052 0 0)
(0.0217311 -0.010695 0 0.0208284 0 0)
(0.0222736 -0.0128456 0 0.0261408 0 0)
(0.0226108 -0.015266 0 0.032752 0 0)
(0.0225851 -0.0178084 0 0.040964 0 0)
(0.0220882 -0.0202729 0 0.0509121 0 0)
(0.0209637 -0.0223225 0 0.0628882 0 0)
(0.0193492 -0.0236441 0 0.0766603 0 0)
(0.0169828 -0.0237553 0 0.092469 0 0)
(0.0041236 -0.000613269 0 0.00273443 0 0)
(0.0196872 -0.00393982 0 0.00311146 0 0)
(0.0186183 -0.0042027 0 0.0036886 0 0)
(0.0167919 -0.00377325 0 0.00464079 0 0)
(0.0171712 -0.00378314 0 0.00587447 0 0)
(0.0177383 -0.00428762 0 0.00739944 0 0)
(0.0181686 -0.00505627 0 0.00926659 0 0)
(0.0185273 -0.00595203 0 0.0115536 0 0)
(0.0188264 -0.00696119 0 0.0143638 0 0)
(0.0190669 -0.00811795 0 0.0178337 0 0)
(0.0192313 -0.00944731 0 0.0221018 0 0)
(0.0192579 -0.010909 0 0.0273472 0 0)
(0.0190649 -0.0124181 0 0.0337056 0 0)
(0.0185627 -0.0138052 0 0.0413815 0 0)
(0.0177239 -0.0149037 0 0.0503989 0 0)
(0.0164968 -0.0154348 0 0.0609529 0 0)
(0.0150633 -0.0152277 0 0.0727531 0 0)
(0.0132477 -0.0139163 0 0.0860325 0 0)
(0.00430007 -0.000587382 0 0.00300953 0 0)
(0.0196852 -0.003947 0 0.00313644 0 0)
(0.018324 -0.00425579 0 0.00366771 0 0)
(0.0162163 -0.00373838 0 0.00466776 0 0)
(0.0163026 -0.00364112 0 0.00596809 0 0)
(0.0165726 -0.00403805 0 0.00756652 0 0)
(0.0167495 -0.00465582 0 0.00950415 0 0)
(0.0168945 -0.00531295 0 0.0118547 0 0)
(0.0169627 -0.00596601 0 0.0147069 0 0)
(0.0169005 -0.00663068 0 0.0181671 0 0)
(0.016685 -0.00731934 0 0.0223328 0 0)
(0.0162993 -0.00798066 0 0.0273283 0 0)
(0.0157353 -0.00852924 0 0.0332202 0 0)
(0.0149913 -0.00880714 0 0.0401335 0 0)
(0.0141007 -0.00869473 0 0.048021 0 0)
(0.0130861 -0.00797451 0 0.0570134 0 0)
(0.0121098 -0.00658712 0 0.0668164 0 0)
(0.0110482 -0.00425149 0 0.0776624 0 0)
(0.00423799 -0.000606723 0 0.00306388 0 0)
(0.0199576 -0.00409583 0 0.00325263 0 0)
(0.0183781 -0.00449623 0 0.0038824 0 0)
(0.0160237 -0.00392731 0 0.00497405 0 0)
(0.0159197 -0.00370834 0 0.00631969 0 0)
(0.0159973 -0.00395237 0 0.0079438 0 0)
(0.0159442 -0.00436594 0 0.00988236 0 0)
(0.0158304 -0.00473246 0 0.0121802 0 0)
(0.0156413 -0.00498711 0 0.0149006 0 0)
(0.0153533 -0.0051425 0 0.0181266 0 0)
(0.0149605 -0.00521575 0 0.0219249 0 0)
(0.0144664 -0.00516411 0 0.0263763 0 0)
(0.0138806 -0.00491339 0 0.0314973 0 0)
(0.013238 -0.0043307 0 0.0373561 0 0)
(0.0125867 -0.00333106 0 0.0438623 0 0)
(0.0119929 -0.00176005 0 0.0511073 0 0)
(0.0115838 0.000380469 0 0.0588058 0 0)
(0.0112973 0.00329212 0 0.0671942 0 0)
(0.0041316 -0.00057628 0 0.00321171 0 0)
(0.0197843 -0.00427053 0 0.00357836 0 0)
(0.018201 -0.00460001 0 0.00396619 0 0)
(0.0157099 -0.00403044 0 0.00483577 0 0)
(0.0153353 -0.00379801 0 0.00603338 0 0)
(0.0150603 -0.0038852 0 0.00750508 0 0)
(0.014666 -0.00400263 0 0.00924478 0 0)
(0.0142838 -0.00398957 0 0.0112856 0 0)
(0.0139238 -0.00381391 0 0.0136764 0 0)
(0.013568 -0.0034856 0 0.0164676 0 0)
(0.0132076 -0.00300003 0 0.0196855 0 0)
(0.012846 -0.00230981 0 0.0233673 0 0)
(0.0124973 -0.00135373 0 0.0274996 0 0)
(0.012212 -4.65598e-05 0 0.0321141 0 0)
(0.0120431 0.00165681 0 0.0371184 0 0)
(0.0120697 0.00383899 0 0.0425873 0 0)
(0.0123847 0.00647671 0 0.0482942 0 0)
(0.0129617 0.00968163 0 0.0544439 0 0)
(0.00419853 -0.000347197 0 0.00301186 0 0)
(0.0199895 -0.00392593 0 0.00323865 0 0)
(0.0179504 -0.00410678 0 0.00353228 0 0)
(0.0151911 -0.00326786 0 0.00430595 0 0)
(0.0146967 -0.00270242 0 0.00533585 0 0)
(0.0142832 -0.00246024 0 0.00656483 0 0)
(0.0137809 -0.00226671 0 0.00800379 0 0)
(0.0133791 -0.00193906 0 0.00967135 0 0)
(0.0130959 -0.0014097 0 0.0115777 0 0)
(0.0129069 -0.000666088 0 0.0137355 0 0)
(0.0128077 0.000294214 0 0.0161474 0 0)
(0.0128162 0.00149349 0 0.0188297 0 0)
(0.0129602 0.00295665 0 0.0217645 0 0)
(0.0132992 0.00472738 0 0.0249714 0 0)
(0.0138801 0.00681415 0 0.0283781 0 0)
(0.0147753 0.00926419 0 0.0320412 0 0)
(0.0160389 0.012033 0 0.035793 0 0)
(0.0176657 0.0152015 0 0.039787 0 0)
(0.00447649 -0.000684501 0 0.00356703 0 0)
(0.0193677 -0.00360261 0 0.00348624 0 0)
(0.0170601 -0.00353673 0 0.00350143 0 0)
(0.014303 -0.00268428 0 0.00405504 0 0)
(0.013734 -0.00205497 0 0.0048125 0 0)
(0.013283 -0.00168898 0 0.00571458 0 0)
(0.0127998 -0.00136538 0 0.00677686 0 0)
(0.0124525 -0.000910645 0 0.00800101 0 0)
(0.0122568 -0.00024354 0 0.00938314 0 0)
(0.0122041 0.000652698 0 0.0109281 0 0)
(0.0123108 0.00176945 0 0.0126303 0 0)
(0.0126143 0.00310652 0 0.0144887 0 0)
(0.0131533 0.00466705 0 0.0164847 0 0)
(0.0139799 0.00646943 0 0.0186339 0 0)
(0.0151304 0.0085077 0 0.0208903 0 0)
(0.0166477 0.010806 0 0.0232956 0 0)
(0.0185614 0.0133242 0 0.0257416 0 0)
(0.0208581 0.0161147 0 0.0283233 0 0)
(0.00437459 -0.000577101 0 0.00316328 0 0)
(0.0194203 -0.00318799 0 0.0029832 0 0)
(0.0171041 -0.00296029 0 0.00289657 0 0)
(0.0143052 -0.00206192 0 0.00323873 0 0)
(0.0136481 -0.00141221 0 0.00377183 0 0)
(0.0131135 -0.000996222 0 0.00443207 0 0)
(0.0126218 -0.000593709 0 0.00519171 0 0)
(0.0123569 -5.56901e-05 0 0.00603554 0 0)
(0.0123151 0.000675895 0 0.00696017 0 0)
(0.0124681 0.00160599 0 0.00797376 0 0)
(0.0128354 0.00272048 0 0.00908052 0 0)
(0.0134654 0.00401176 0 0.0102877 0 0)
(0.0144025 0.00547587 0 0.0115846 0 0)
(0.0156888 0.00712484 0 0.0129801 0 0)
(0.017348 0.00895412 0 0.0144404 0 0)
(0.0194078 0.0109841 0 0.0159921 0 0)
(0.0218845 0.013181 0 0.0175645 0 0)
(0.0247682 0.0155883 0 0.0192243 0 0)
(0.00406335 -0.000385805 0 0.00290481 0 0)
(0.0192987 -0.00282386 0 0.00231095 0 0)
(0.0169412 -0.00275911 0 0.00221985 0 0)
(0.014088 -0.00195232 0 0.00250903 0 0)
(0.0134 -0.00128959 0 0.00293117 0 0)
(0.0128589 -0.000840098 0 0.00343523 0 0)
(0.012382 -0.000433259 0 0.00400034 0 0)
(0.0121496 7.86497e-05 0 0.00462764 0 0)
(0.0121748 0.000768416 0 0.00532316 0 0)
(0.0124529 0.00164613 0 0.00608996 0 0)
(0.0130073 0.00269173 0 0.00692126 0 0)
(0.0138752 0.00388751 0 0.00781372 0 0)
(0.0150885 0.0052235 0 0.00875588 0 0)
(0.0166844 0.00670516 0 0.00975286 0 0)
(0.0186837 0.008328 0 0.0107797 0 0)
(0.0211119 0.0101063 0 0.0118575 0 0)
(0.0239818 0.0120086 0 0.0129348 0 0)
(0.0272804 0.0140661 0 0.014056 0 0)
(0.00429503 -0.000548285 0 0.00255442 0 0)
(0.0187883 -0.00257805 0 0.00215383 0 0)
(0.0163534 -0.0022927 0 0.00194733 0 0)
(0.0135659 -0.00144002 0 0.00198054 0 0)
(0.0129216 -0.000787973 0 0.00215253 0 0)
(0.0123993 -0.000361327 0 0.00241679 0 0)
(0.0119637 9.23265e-06 0 0.00272541 0 0)
(0.0118404 0.000461801 0 0.00305949 0 0)
(0.0120451 0.00105542 0 0.00343149 0 0)
(0.0125495 0.00179008 0 0.00385593 0 0)
(0.0133651 0.00264579 0 0.00433012 0 0)
(0.0145258 0.00360928 0 0.00484688 0 0)
(0.0160627 0.00467785 0 0.00539598 0 0)
(0.0180035 0.00585821 0 0.00598164 0 0)
(0.0203688 0.00714716 0 0.00658985 0 0)
(0.0231685 0.00855129 0 0.00723567 0 0)
(0.0264214 0.0100504 0 0.00788776 0 0)
(0.0300889 0.0116596 0 0.00857279 0 0)
(0.00451638 -0.000686044 0 0.00221564 0 0)
(0.0186482 -0.00234553 0 0.00179973 0 0)
(0.0156892 -0.00178114 0 0.00163904 0 0)
(0.0129032 -0.000864982 0 0.00172901 0 0)
(0.0125531 -0.000214214 0 0.00190281 0 0)
(0.0123179 0.000203501 0 0.00212023 0 0)
(0.012105 0.000580349 0 0.00235954 0 0)
(0.0122063 0.00104632 0 0.00261643 0 0)
(0.0127079 0.0016452 0 0.00289736 0 0)
(0.0136021 0.00236766 0 0.00320423 0 0)
(0.01488 0.00319145 0 0.0035289 0 0)
(0.0165499 0.00410084 0 0.00386732 0 0)
(0.0186286 0.00508833 0 0.00421834 0 0)
(0.0211389 0.00615831 0 0.00459071 0 0)
(0.0240913 0.0073052 0 0.0049773 0 0)
(0.0274895 0.00853561 0 0.00539253 0 0)
(0.0313402 0.00982902 0 0.00581355 0 0)
(0.0356126 0.0112061 0 0.00625129 0 0)
(0.00493045 -0.000579355 0 0.00202727 0 0)
(0.0187011 -0.00203121 0 0.00140155 0 0)
(0.0155302 -0.00157437 0 0.0010992 0 0)
(0.0126798 -0.000890991 0 0.00107804 0 0)
(0.0122486 -0.000408911 0 0.00113963 0 0)
(0.0119261 -0.000105691 0 0.0012031 0 0)
(0.0116895 0.000142686 0 0.00127124 0 0)
(0.0118437 0.000435696 0 0.00137108 0 0)
(0.0124364 0.000824413 0 0.00150878 0 0)
(0.0134284 0.00131325 0 0.00167088 0 0)
(0.014814 0.0018814 0 0.00184371 0 0)
(0.0166168 0.00251268 0 0.00202543 0 0)
(0.0188647 0.00320091 0 0.00221829 0 0)
(0.0215721 0.00394814 0 0.0024271 0 0)
(0.0247417 0.00475174 0 0.00264638 0 0)
(0.0283595 0.00561379 0 0.00288212 0 0)
(0.0324317 0.00651886 0 0.00312096 0 0)
(0.0369095 0.0074823 0 0.00337042 0 0)
(0.00460992 -0.000361814 0 0.00189108 0 0)
(0.0183295 -0.00151934 0 0.00112299 0 0)
(0.0148853 -0.00126528 0 0.00082691 0 0)
(0.0121356 -0.000658809 0 0.000860649 0 0)
(0.0119053 -0.000144595 0 0.00092231 0 0)
(0.0117979 0.000190775 0 0.00095836 0 0)
(0.0118669 0.000457947 0 0.000989552 0 0)
(0.0124278 0.000751969 0 0.00103564 0 0)
(0.0134888 0.00111412 0 0.00109842 0 0)
(0.0149704 0.00154694 0 0.00117252 0 0)
(0.0168543 0.0020364 0 0.00125467 0 0)
(0.0191748 0.00257294 0 0.00134603 0 0)
(0.0219694 0.00315315 0 0.00144811 0 0)
(0.0252557 0.00377845 0 0.0015638 0 0)
(0.0290361 0.00444379 0 0.00168941 0 0)
(0.033292 0.0051505 0 0.00182889 0 0)
(0.0380318 0.00588462 0 0.00197429 0 0)
(0.0431967 0.00665975 0 0.00213049 0 0)
(0.00359843 -0.000493844 0 0.00152069 0 0)
(0.0172816 -0.000844892 0 0.000711186 0 0)
(0.0139818 -0.000532446 0 0.000411685 0 0)
(0.0115439 -0.000202099 0 0.000385024 0 0)
(0.0115383 5.77814e-05 0 0.000382655 0 0)
(0.0116245 0.000203148 0 0.000385505 0 0)
(0.0118945 0.000306606 0 0.000404785 0 0)
(0.0126696 0.000434105 0 0.000433814 0 0)
(0.01397 0.000608954 0 0.000465651 0 0)
(0.0157332 0.000827901 0 0.000499421 0 0)
(0.0179554 0.00108287 0 0.00053707 0 0)
(0.0206706 0.00136805 0 0.000580502 0 0)
(0.023905 0.00168038 0 0.000630205 0 0)
(0.0276555 0.00201943 0 0.000687706 0 0)
(0.0319068 0.00238135 0 0.00075189 0 0)
(0.0366245 0.00276805 0 0.000825175 0 0)
(0.0418126 0.00316996 0 0.000904191 0 0)
(0.0474064 0.00359864 0 0.00099042 0 0)
(0.00473281 -0.000515397 0 0.00116744 0 0)
(0.0173047 -0.00100599 0 0.000503208 0 0)
(0.0135019 -0.000757051 0 0.000385073 0 0)
(0.0113454 -0.00032391 0 0.000364589 0 0)
(0.0115697 -1.9083e-05 0 0.000319938 0 0)
(0.0118569 0.000154824 0 0.000277336 0 0)
(0.0124947 0.000287878 0 0.000255731 0 0)
(0.0138076 0.000420358 0 0.000249088 0 0)
(0.015729 0.000553541 0 0.000249949 0 0)
(0.0181301 0.000689565 0 0.000255673 0 0)
(0.0209818 0.000838993 0 0.000266723 0 0)
(0.0243238 0.00101136 0 0.000284086 0 0)
(0.0281901 0.00121039 0 0.000308309 0 0)
(0.0325879 0.00143451 0 0.000339741 0 0)
(0.0374917 0.00167782 0 0.000377957 0 0)
(0.0428725 0.00193483 0 0.000424582 0 0)
(0.0487184 0.00219765 0 0.000478221 0 0)
(0.0549782 0.00247001 0 0.000538302 0 0)
(0.00368642 -0.000178603 0 0.000885723 0 0)
(0.0159553 9.08989e-05 0 0.000215919 0 0)
(0.012297 -1.15331e-05 0 0.000145336 0 0)
(0.0104851 3.23166e-05 0 0.000137221 0 0)
(0.0110423 1.95396e-05 0 0.000141127 0 0)
(0.0116556 -3.77848e-05 0 0.000147549 0 0)
(0.0125706 -0.000105782 0 0.000153872 0 0)
(0.0140572 -0.000172371 0 0.000161366 0 0)
(0.0160104 -0.000233182 0 0.000171487 0 0)
(0.0182865 -0.000283278 0 0.000183826 0 0)
(0.020842 -0.000316767 0 0.000197592 0 0)
(0.0237188 -0.000330161 0 0.000212668 0 0)
(0.0269424 -0.000320616 0 0.000229327 0 0)
(0.0305544 -0.000285948 0 0.000248324 0 0)
(0.0345181 -0.000224482 0 0.000269635 0 0)
(0.0388779 -0.000137094 0 0.000294734 0 0)
(0.0435624 -2.52991e-05 0 0.000323694 0 0)
(0.0486737 0.000111523 0 0.000355388 0 0)
(0.00421474 -0.000305374 0 0.000746643 0 0)
(0.017188 -4.87772e-05 0 0.000232571 0 0)
(0.0150273 2.04196e-05 0 0.00014338 0 0)
(0.0142844 0.000107473 0 0.000103964 0 0)
(0.0155584 0.000133119 0 8.20509e-05 0 0)
(0.0167575 0.000151483 0 6.84954e-05 0 0)
(0.0179568 0.000176689 0 5.92184e-05 0 0)
(0.0194388 0.000203758 0 5.36364e-05 0 0)
(0.0213019 0.00022852 0 5.09381e-05 0 0)
(0.0235717 0.000252059 0 5.03794e-05 0 0)
(0.0262584 0.000279376 0 5.15163e-05 0 0)
(0.0293761 0.00031652 0 5.40222e-05 0 0)
(0.0329646 0.000368476 0 5.75288e-05 0 0)
(0.0370865 0.000436929 0 6.16825e-05 0 0)
(0.0418296 0.000519739 0 6.64601e-05 0 0)
(0.0472196 0.000613496 0 7.22221e-05 0 0)
(0.0533482 0.000715262 0 7.84032e-05 0 0)
(0.0601309 0.000827636 0 8.43231e-05 0 0)
(0.000764171 -0.00180935 1.25232e-22 0.00440253 -2.49976e-22 1.53636e-37)
(0.00798683 -0.00597507 -3.33e-22 0.00468425 1.88626e-22 1.51487e-37)
(0.0202861 -0.00788509 0 0.00398709 0 0)
(0.0346188 -0.00960484 0 0.00457827 0 0)
(0.0550036 -0.0134119 0 0.00583008 0 0)
(0.0857097 -0.0194181 7.80485e-22 0.00689522 -7.29928e-23 1.42689e-37)
(0.130465 -0.0266426 0 0.00745131 0 0)
(0.190753 -0.0341494 0 0.0075481 0 0)
(0.266615 -0.0412878 0 0.00733138 0 0)
(0.357225 -0.0476621 0 0.00694158 0 0)
(0.461146 -0.0530041 -1.18378e-21 0.0064571 8.55307e-23 1.32168e-37)
(0.576422 -0.0570549 0 0.00590344 0 0)
(0.700409 -0.05949 0 0.00527998 0 0)
(0.829673 -0.0599415 0 0.00458841 0 0)
(0.959797 -0.0580396 0 0.00384742 0 0)
(1.08561 -0.0534943 -1.68641e-21 0.00310496 1.37204e-22 1.22164e-37)
(1.2012 -0.0461635 0 0.00243922 0 0)
(1.30097 -0.0361311 0 0.00195957 0 0)
(1.37974 -0.0237645 0 0.00179454 0 0)
(1.43156 -0.00989274 0 0.00207051 0 0)
(1.45409 0.00415598 0 0.00286348 0 0)
(1.44812 0.0167229 0 0.00415012 0 0)
(1.41775 0.0261729 0 0.00578902 0 0)
(1.36969 0.0311503 -3.45382e-21 0.00753622 2.9789e-22 1.07215e-37)
(1.31293 0.0308204 3.76753e-21 0.00911579 -3.04549e-22 1.05437e-37)
(1.25617 0.0248409 -4.08684e-21 0.0103332 3.03315e-22 1.0368e-37)
(1.20901 0.0137224 -4.40411e-21 0.0113109 2.95213e-22 1.01943e-37)
(1.17926 -0.00218522 0 0.0125494 0 0)
(1.17462 -0.0228354 0 0.0156487 0 0)
(1.20107 -0.0496973 5.26918e-21 0.0214698 -2.13217e-22 9.68521e-38)
(1.26876 -0.0848907 5.50315e-21 0.0304722 -1.59843e-22 9.51953e-38)
(1.38566 -0.122505 0 0.0402454 0 0)
(1.54021 -0.150164 0 0.048268 0 0)
(1.71244 -0.162486 6.07845e-21 0.0516747 -9.96808e-23 9.03452e-38)
(1.89765 -0.161667 0 0.0510759 0 0)
(2.09835 -0.161644 0 0.0522465 0 0)
(2.3199 -0.173283 -6.69075e-21 0.0552901 1.67471e-22 8.56749e-38)
(2.55563 -0.184848 0 0.0581631 0 0)
(2.80421 -0.177951 -7.1348e-21 0.0572035 1.86014e-22 8.26609e-38)
(3.05099 -0.168229 -1.47437e-20 0.0601513 4.13671e-22 3.24734e-37)
(3.29206 -0.173023 0 0.0563261 0 0)
(3.53033 -0.169938 0 0.0505036 0 0)
(3.75326 -0.163628 0 0.0482197 0 0)
(3.95599 -0.166227 0 0.0470682 0 0)
(4.14325 -0.149409 0 0.0391613 0 0)
(4.31552 -0.100159 -1.75173e-20 0.0300753 3.90123e-22 2.90923e-37)
(4.46551 -0.0744154 -1.78998e-20 0.0293272 3.88985e-22 2.85558e-37)
(4.64246 -0.0832105 -1.82253e-20 0.0251898 3.48757e-22 2.8027e-37)
(4.85068 -0.09023 0 0.0212422 0 0)
(5.07032 -0.0928285 1.86871e-20 0.0178064 -2.62257e-22 2.69919e-37)
(5.29323 -0.0914883 0 0.0147415 0 0)
(5.5091 -0.0870579 -1.89191e-20 0.0121273 1.84395e-22 2.59867e-37)
(5.71185 -0.0802011 -1.89544e-20 0.00992731 1.49503e-22 2.54952e-37)
(5.89529 -0.0717138 0 0.00813417 0 0)
(6.05612 -0.0622567 0 0.00668056 0 0)
(6.19225 -0.0524101 0 0.00551832 0 0)
(6.30294 -0.0425683 -1.86164e-20 0.00458808 4.02174e-23 2.36015e-37)
(6.38778 -0.0330687 0 0.00384712 0 0)
(6.44812 -0.0240937 0 0.00325359 0 0)
(6.48475 -0.0157812 0 0.00277843 0 0)
(6.49926 -0.00822333 0 0.00239727 0 0)
(6.49357 -0.00149333 0 0.00209244 0 0)
(6.46961 0.00441555 0 0.00184764 0 0)
(6.42942 0.0095294 0 0.00165079 0 0)
(6.37479 0.0139146 0 0.00149123 0 0)
(6.30764 0.0176371 1.60518e-20 0.00136121 6.01697e-23 1.97471e-37)
(6.22953 0.0208006 0 0.0012537 0 0)
(6.14178 0.0235033 0 0.00116439 0 0)
(6.04537 0.0258472 -1.49738e-20 0.00109065 -6.67613e-23 1.85808e-37)
(5.94109 0.0279332 -1.46103e-20 0.00103102 -6.76833e-23 1.82046e-37)
(5.82952 0.0298483 0 0.000984927 0 0)
(5.71083 0.0316738 1.38842e-20 0.000951329 6.8571e-23 1.74706e-37)
(5.58513 0.0334642 -1.35227e-20 0.000928774 -6.87487e-23 1.71127e-37)
(5.45231 0.0352697 0 0.000914965 0 0)
(5.31206 0.0371382 1.28049e-20 0.000907161 6.90079e-23 1.64146e-37)
(5.16392 0.0391151 0 0.000903788 0 0)
(5.00727 0.0412178 0 0.000905801 0 0)
(4.84153 0.0434186 -1.17408e-20 0.000915378 -6.98475e-23 1.54107e-37)
(4.66638 0.0456246 0 0.000935026 0 0)
(4.48196 0.0476997 1.10401e-20 0.000964361 7.03051e-23 1.47694e-37)
(4.28895 0.0495061 0 0.00100011 0 0)
(4.08853 0.0509243 -1.03517e-20 0.00103671 -6.96303e-23 1.41499e-37)
(3.88225 0.0518833 -1.0015e-20 0.00106761 -6.8667e-23 1.38481e-37)
(3.67183 0.0523644 -9.68519e-21 0.00108818 -6.72688e-23 1.35515e-37)
(3.45898 0.052396 -1.87266e-20 0.00109694 -1.30947e-22 5.30404e-37)
(3.24526 0.0520286 1.81008e-20 0.00109554 1.2667e-22 5.18949e-37)
(3.03201 0.051313 0 0.00108735 0 0)
(2.82052 0.0502832 0 0.00107542 0 0)
(2.61203 0.0489639 0 0.00106189 0 0)
(2.40778 0.0473703 1.58066e-20 0.00104748 1.05092e-22 4.75104e-37)
(2.20897 0.0455106 1.52909e-20 0.00103104 9.90165e-23 4.64622e-37)
(2.01677 0.0434026 -1.47999e-20 0.00101129 -9.28086e-23 4.54326e-37)
(1.83224 0.041075 0 0.000987057 0 0)
(1.65634 0.0385579 1.38928e-20 0.000957063 8.02303e-23 4.34282e-37)
(1.4899 0.0358984 1.34764e-20 0.000921333 7.39817e-23 4.24529e-37)
(1.33357 0.033136 1.30842e-20 0.000879601 6.78275e-23 4.14951e-37)
(1.18786 0.0303132 0 0.000832013 0 0)
(1.05315 0.027486 0 0.000779974 0 0)
(0.929612 0.0246762 0 0.000722912 0 0)
(0.817235 0.0219482 1.17403e-20 0.000663541 4.49834e-23 3.78345e-37)
(0.715903 0.0193069 0 0.000600992 0 0)
(0.625301 0.0168092 0 0.000538297 0 0)
(0.545 0.0144542 -1.09366e-20 0.000475051 -3.03849e-23 3.52608e-37)
(0.474485 0.0122716 0 0.000413152 0 0)
(0.413187 0.0102683 0 0.000353183 0 0)
(0.360459 0.00845732 -1.02706e-20 0.000296443 -1.81588e-23 3.28271e-37)
(0.315561 0.00682388 0 0.000242488 0 0)
(0.277749 0.00538067 0 0.000193042 0 0)
(0.246303 0.00412656 9.71299e-21 0.000148954 8.17324e-24 3.0527e-37)
(0.220461 0.00305695 9.54701e-21 0.000110992 5.36167e-24 2.97889e-37)
(0.199469 0.00216252 0 7.96196e-05 0 0)
(0.182602 0.00142903 -9.2402e-21 5.488e-05 -5.63045e-25 2.83543e-37)
(0.169189 0.000838348 0 3.63769e-05 0 0)
(0.158627 0.000370089 8.96204e-21 2.33586e-05 -3.11291e-24 2.69737e-37)
(0.150398 3.42852e-06 0 1.48496e-05 0 0)
(0.144066 -0.000281136 8.70708e-21 9.82497e-06 -5.72573e-24 2.56455e-37)
(0.139274 -0.000500828 8.58676e-21 7.33101e-06 -6.67935e-24 2.50004e-37)
(0.135735 -0.000670284 0 6.5577e-06 0 0)
(0.133224 -0.000801038 0 6.8864e-06 0 0)
(0.131561 -0.000902728 0 7.86339e-06 0 0)
(0.130611 -0.000983173 0 9.18195e-06 0 0)
(0.130264 -0.00104639 0 1.06211e-05 0 0)
(0.130431 -0.00109589 0 1.20391e-05 0 0)
(0.131043 -0.00113358 0 1.33425e-05 0 0)
(0.132029 -0.0011578 7.73622e-21 1.43697e-05 -8.85855e-24 2.02724e-37)
(0.133325 -0.00116785 -7.63902e-21 1.49804e-05 8.66615e-24 1.97326e-37)
(0.134875 -0.00116509 0 1.51423e-05 0 0)
(0.136627 -0.00115141 0 1.48967e-05 0 0)
(0.138531 -0.00112789 0 1.42929e-05 0 0)
(0.140545 -0.00109613 0 1.34205e-05 0 0)
(0.142629 -0.00105784 -1.4334e-20 1.23804e-05 1.36961e-23 6.8767e-37)
(0.144749 -0.00101445 0 1.12537e-05 0 0)
(0.146875 -0.00096702 1.39642e-20 1.00967e-05 -1.19599e-23 6.49843e-37)
(0.148978 -0.000916411 -1.37802e-20 8.94773e-06 1.11074e-23 6.31509e-37)
(0.151034 -0.000863351 0 7.83323e-06 0 0)
(0.15302 -0.000808512 0 6.77198e-06 0 0)
(0.15492 -0.000752578 0 5.77894e-06 0 0)
(0.156717 -0.000696307 1.30484e-20 4.867e-06 -7.99332e-24 5.61894e-37)
(0.1584 -0.000640504 1.28663e-20 4.0463e-06 -7.31396e-24 5.45391e-37)
(0.159963 -0.000585951 0 3.32265e-06 0 0)
(0.161403 -0.000533362 1.25032e-20 2.69723e-06 -6.09678e-24 5.13423e-37)
(0.162721 -0.000483326 1.23222e-20 2.16694e-06 -5.56177e-24 4.97948e-37)
(0.16392 -0.000436283 -1.21417e-20 1.7251e-06 5.07441e-24 4.82805e-37)
(0.165007 -0.000392528 0 1.36278e-06 0 0)
(0.16599 -0.000352188 0 1.06951e-06 0 0)
(0.166878 -0.000315251 -1.16034e-20 8.34552e-07 3.88034e-24 4.39312e-37)
(0.167681 -0.000281626 0 6.47913e-07 0 0)
(0.168407 -0.000251163 0 5.00785e-07 0 0)