# vtk DataFile Version 2.0
sampleSurface
ASCII
DATASET POLYDATA
POINTS 502 double
-0.0206 0 -0.0005
-0.0190172 0 -0.0005
-0.0190172 0 0.0005
-0.0206 0 0.0005
-0.0174976 0 -0.0005
-0.0174976 0 0.0005
-0.0160387 0 -0.0005
-0.0160387 0 0.0005
-0.0146381 0 -0.0005
-0.0146381 0 0.0005
-0.0132934 0 -0.0005
-0.0132934 0 0.0005
-0.0120025 0 -0.0005
-0.0120025 0 0.0005
-0.0107632 0 -0.0005
-0.0107632 0 0.0005
-0.00957337 0 -0.0005
-0.00957337 0 0.0005
-0.00843108 0 -0.0005
-0.00843108 0 0.0005
-0.00733443 0 -0.0005
-0.00733443 0 0.0005
-0.0062816 0 -0.0005
-0.0062816 0 0.0005
-0.00527083 0 -0.0005
-0.00527083 0 0.0005
-0.00430044 0 -0.0005
-0.00430044 0 0.0005
-0.00336883 0 -0.0005
-0.00336883 0 0.0005
-0.00247443 0 -0.0005
-0.00247443 0 0.0005
-0.00161577 0 -0.0005
-0.00161577 0 0.0005
-0.000791418 0 -0.0005
-0.000791418 0 0.0005
0 0 -0.0005
0 0 0.0005
0 -0.0254 -0.0005
0 -0.0254 0.0005
0 -0.0242711 0.0005
0 -0.0242711 -0.0005
0 -0.0231422 0.0005
0 -0.0231422 -0.0005
0 -0.0220133 0.0005
0 -0.0220133 -0.0005
0 -0.0208844 0.0005
0 -0.0208844 -0.0005
0 -0.0197556 0.0005
0 -0.0197556 -0.0005
0 -0.0186267 0.0005
0 -0.0186267 -0.0005
0 -0.0174978 0.0005
0 -0.0174978 -0.0005
0 -0.0163689 0.0005
0 -0.0163689 -0.0005
0 -0.01524 0.0005
0 -0.01524 -0.0005
0 -0.0141111 0.0005
0 -0.0141111 -0.0005
0 -0.0129822 0.0005
0 -0.0129822 -0.0005
0 -0.0118533 0.0005
0 -0.0118533 -0.0005
0 -0.0107244 0.0005
0 -0.0107244 -0.0005
0 -0.00959556 0.0005
0 -0.00959556 -0.0005
0 -0.00846667 0.0005
0 -0.00846667 -0.0005
0 -0.00726604 0.0005
0 -0.00726604 -0.0005
0 -0.00618989 0.0005
0 -0.00618989 -0.0005
0 -0.00522531 0.0005
0 -0.00522531 -0.0005
0 -0.00436073 0.0005
0 -0.00436073 -0.0005
0 -0.00358579 0.0005
0 -0.00358579 -0.0005
0 -0.00289118 0.0005
0 -0.00289118 -0.0005
0 -0.0022686 0.0005
0 -0.0022686 -0.0005
0 -0.00171055 0.0005
0 -0.00171055 -0.0005
0 -0.00121037 0.0005
0 -0.00121037 -0.0005
0 -0.000762037 0.0005
0 -0.000762037 -0.0005
0 -0.000360188 0.0005
0 -0.000360188 -0.0005
0.000528387 -0.0254 -0.0005
0.000528387 -0.0254 0.0005
0.00106088 -0.0254 -0.0005
0.00106088 -0.0254 0.0005
0.00159752 -0.0254 -0.0005
0.00159752 -0.0254 0.0005
0.00213833 -0.0254 -0.0005
0.00213833 -0.0254 0.0005
0.00268334 -0.0254 -0.0005
0.00268334 -0.0254 0.0005
0.00323259 -0.0254 -0.0005
0.00323259 -0.0254 0.0005
0.00378611 -0.0254 -0.0005
0.00378611 -0.0254 0.0005
0.00434393 -0.0254 -0.0005
0.00434393 -0.0254 0.0005
0.00490609 -0.0254 -0.0005
0.00490609 -0.0254 0.0005
0.00547262 -0.0254 -0.0005
0.00547262 -0.0254 0.0005
0.00604356 -0.0254 -0.0005
0.00604356 -0.0254 0.0005
0.00661893 -0.0254 -0.0005
0.00661893 -0.0254 0.0005
0.00719878 -0.0254 -0.0005
0.00719878 -0.0254 0.0005
0.00778313 -0.0254 -0.0005
0.00778313 -0.0254 0.0005
0.00837203 -0.0254 -0.0005
0.00837203 -0.0254 0.0005
0.00896551 -0.0254 -0.0005
0.00896551 -0.0254 0.0005
0.0095636 -0.0254 -0.0005
0.0095636 -0.0254 0.0005
0.0101663 -0.0254 -0.0005
0.0101663 -0.0254 0.0005
0.0107738 -0.0254 -0.0005
0.0107738 -0.0254 0.0005
0.0113859 -0.0254 -0.0005
0.0113859 -0.0254 0.0005
0.0120028 -0.0254 -0.0005
0.0120028 -0.0254 0.0005
0.0126245 -0.0254 -0.0005
0.0126245 -0.0254 0.0005
0.0132511 -0.0254 -0.0005
0.0132511 -0.0254 0.0005
0.0138825 -0.0254 -0.0005
0.0138825 -0.0254 0.0005
0.0145188 -0.0254 -0.0005
0.0145188 -0.0254 0.0005
0.0151601 -0.0254 -0.0005
0.0151601 -0.0254 0.0005
0.0158063 -0.0254 -0.0005
0.0158063 -0.0254 0.0005
0.0164576 -0.0254 -0.0005
0.0164576 -0.0254 0.0005
0.0171139 -0.0254 -0.0005
0.0171139 -0.0254 0.0005
0.0177754 -0.0254 -0.0005
0.0177754 -0.0254 0.0005
0.018442 -0.0254 -0.0005
0.018442 -0.0254 0.0005
0.0191137 -0.0254 -0.0005
0.0191137 -0.0254 0.0005
0.0197907 -0.0254 -0.0005
0.0197907 -0.0254 0.0005
0.020473 -0.0254 -0.0005
0.020473 -0.0254 0.0005
0.0211606 -0.0254 -0.0005
0.0211606 -0.0254 0.0005
0.0218535 -0.0254 -0.0005
0.0218535 -0.0254 0.0005
0.0225517 -0.0254 -0.0005
0.0225517 -0.0254 0.0005
0.0232555 -0.0254 -0.0005
0.0232555 -0.0254 0.0005
0.0239647 -0.0254 -0.0005
0.0239647 -0.0254 0.0005
0.0246794 -0.0254 -0.0005
0.0246794 -0.0254 0.0005
0.0253996 -0.0254 -0.0005
0.0253996 -0.0254 0.0005
0.0261255 -0.0254 -0.0005
0.0261255 -0.0254 0.0005
0.026857 -0.0254 -0.0005
0.026857 -0.0254 0.0005
0.0275942 -0.0254 -0.0005
0.0275942 -0.0254 0.0005
0.0283371 -0.0254 -0.0005
0.0283371 -0.0254 0.0005
0.0290858 -0.0254 -0.0005
0.0290858 -0.0254 0.0005
0.0298403 -0.0254 -0.0005
0.0298403 -0.0254 0.0005
0.0306007 -0.0254 -0.0005
0.0306007 -0.0254 0.0005
0.031367 -0.0254 -0.0005
0.031367 -0.0254 0.0005
0.0321393 -0.0254 -0.0005
0.0321393 -0.0254 0.0005
0.0329175 -0.0254 -0.0005
0.0329175 -0.0254 0.0005
0.0337019 -0.0254 -0.0005
0.0337019 -0.0254 0.0005
0.0344923 -0.0254 -0.0005
0.0344923 -0.0254 0.0005
0.0352888 -0.0254 -0.0005
0.0352888 -0.0254 0.0005
0.0360916 -0.0254 -0.0005
0.0360916 -0.0254 0.0005
0.0369006 -0.0254 -0.0005
0.0369006 -0.0254 0.0005
0.0377158 -0.0254 -0.0005
0.0377158 -0.0254 0.0005
0.0385375 -0.0254 -0.0005
0.0385375 -0.0254 0.0005
0.0393655 -0.0254 -0.0005
0.0393655 -0.0254 0.0005
0.0401999 -0.0254 -0.0005
0.0401999 -0.0254 0.0005
0.0410408 -0.0254 -0.0005
0.0410408 -0.0254 0.0005
0.0418883 -0.0254 -0.0005
0.0418883 -0.0254 0.0005
0.0427424 -0.0254 -0.0005
0.0427424 -0.0254 0.0005
0.0436031 -0.0254 -0.0005
0.0436031 -0.0254 0.0005
0.0444704 -0.0254 -0.0005
0.0444704 -0.0254 0.0005
0.0453446 -0.0254 -0.0005
0.0453446 -0.0254 0.0005
0.0462255 -0.0254 -0.0005
0.0462255 -0.0254 0.0005
0.0471133 -0.0254 -0.0005
0.0471133 -0.0254 0.0005
0.048008 -0.0254 -0.0005
0.048008 -0.0254 0.0005
0.0489096 -0.0254 -0.0005
0.0489096 -0.0254 0.0005
0.0498183 -0.0254 -0.0005
0.0498183 -0.0254 0.0005
0.050734 -0.0254 -0.0005
0.050734 -0.0254 0.0005
0.0516568 -0.0254 -0.0005
0.0516568 -0.0254 0.0005
0.0525868 -0.0254 -0.0005
0.0525868 -0.0254 0.0005
0.053524 -0.0254 -0.0005
0.053524 -0.0254 0.0005
0.0544686 -0.0254 -0.0005
0.0544686 -0.0254 0.0005
0.0554204 -0.0254 -0.0005
0.0554204 -0.0254 0.0005
0.0563797 -0.0254 -0.0005
0.0563797 -0.0254 0.0005
0.0573464 -0.0254 -0.0005
0.0573464 -0.0254 0.0005
0.0583206 -0.0254 -0.0005
0.0583206 -0.0254 0.0005
0.0593025 -0.0254 -0.0005
0.0593025 -0.0254 0.0005
0.0602919 -0.0254 -0.0005
0.0602919 -0.0254 0.0005
0.0612891 -0.0254 -0.0005
0.0612891 -0.0254 0.0005
0.0622939 -0.0254 -0.0005
0.0622939 -0.0254 0.0005
0.0633067 -0.0254 -0.0005
0.0633067 -0.0254 0.0005
0.0643272 -0.0254 -0.0005
0.0643272 -0.0254 0.0005
0.0653557 -0.0254 -0.0005
0.0653557 -0.0254 0.0005
0.0663923 -0.0254 -0.0005
0.0663923 -0.0254 0.0005
0.0674368 -0.0254 -0.0005
0.0674368 -0.0254 0.0005
0.0684895 -0.0254 -0.0005
0.0684895 -0.0254 0.0005
0.0695504 -0.0254 -0.0005
0.0695504 -0.0254 0.0005
0.0706195 -0.0254 -0.0005
0.0706195 -0.0254 0.0005
0.0716969 -0.0254 -0.0005
0.0716969 -0.0254 0.0005
0.0727828 -0.0254 -0.0005
0.0727828 -0.0254 0.0005
0.073877 -0.0254 -0.0005
0.073877 -0.0254 0.0005
0.0749798 -0.0254 -0.0005
0.0749798 -0.0254 0.0005
0.0760911 -0.0254 -0.0005
0.0760911 -0.0254 0.0005
0.0772111 -0.0254 -0.0005
0.0772111 -0.0254 0.0005
0.0783398 -0.0254 -0.0005
0.0783398 -0.0254 0.0005
0.0794772 -0.0254 -0.0005
0.0794772 -0.0254 0.0005
0.0806235 -0.0254 -0.0005
0.0806235 -0.0254 0.0005
0.0817787 -0.0254 -0.0005
0.0817787 -0.0254 0.0005
0.0829429 -0.0254 -0.0005
0.0829429 -0.0254 0.0005
0.0841162 -0.0254 -0.0005
0.0841162 -0.0254 0.0005
0.0852985 -0.0254 -0.0005
0.0852985 -0.0254 0.0005
0.0864901 -0.0254 -0.0005
0.0864901 -0.0254 0.0005
0.0876909 -0.0254 -0.0005
0.0876909 -0.0254 0.0005
0.0889011 -0.0254 -0.0005
0.0889011 -0.0254 0.0005
0.0901207 -0.0254 -0.0005
0.0901207 -0.0254 0.0005
0.0913497 -0.0254 -0.0005
0.0913497 -0.0254 0.0005
0.0925883 -0.0254 -0.0005
0.0925883 -0.0254 0.0005
0.0938366 -0.0254 -0.0005
0.0938366 -0.0254 0.0005
0.0950945 -0.0254 -0.0005
0.0950945 -0.0254 0.0005
0.0963622 -0.0254 -0.0005
0.0963622 -0.0254 0.0005
0.0976398 -0.0254 -0.0005
0.0976398 -0.0254 0.0005
0.0989273 -0.0254 -0.0005
0.0989273 -0.0254 0.0005
0.100225 -0.0254 -0.0005
0.100225 -0.0254 0.0005
0.101532 -0.0254 -0.0005
0.101532 -0.0254 0.0005
0.10285 -0.0254 -0.0005
0.10285 -0.0254 0.0005
0.104178 -0.0254 -0.0005
0.104178 -0.0254 0.0005
0.105517 -0.0254 -0.0005
0.105517 -0.0254 0.0005
0.106865 -0.0254 -0.0005
0.106865 -0.0254 0.0005
0.108225 -0.0254 -0.0005
0.108225 -0.0254 0.0005
0.109594 -0.0254 -0.0005
0.109594 -0.0254 0.0005
0.110975 -0.0254 -0.0005
0.110975 -0.0254 0.0005
0.112366 -0.0254 -0.0005
0.112366 -0.0254 0.0005
0.113768 -0.0254 -0.0005
0.113768 -0.0254 0.0005
0.115181 -0.0254 -0.0005
0.115181 -0.0254 0.0005
0.116605 -0.0254 -0.0005
0.116605 -0.0254 0.0005
0.11804 -0.0254 -0.0005
0.11804 -0.0254 0.0005
0.119486 -0.0254 -0.0005
0.119486 -0.0254 0.0005
0.120943 -0.0254 -0.0005
0.120943 -0.0254 0.0005
0.122412 -0.0254 -0.0005
0.122412 -0.0254 0.0005
0.123892 -0.0254 -0.0005
0.123892 -0.0254 0.0005
0.125384 -0.0254 -0.0005
0.125384 -0.0254 0.0005
0.126887 -0.0254 -0.0005
0.126887 -0.0254 0.0005
0.128402 -0.0254 -0.0005
0.128402 -0.0254 0.0005
0.129928 -0.0254 -0.0005
0.129928 -0.0254 0.0005
0.131467 -0.0254 -0.0005
0.131467 -0.0254 0.0005
0.133017 -0.0254 -0.0005
0.133017 -0.0254 0.0005
0.13458 -0.0254 -0.0005
0.13458 -0.0254 0.0005
0.136155 -0.0254 -0.0005
0.136155 -0.0254 0.0005
0.137742 -0.0254 -0.0005
0.137742 -0.0254 0.0005
0.139341 -0.0254 -0.0005
0.139341 -0.0254 0.0005
0.140953 -0.0254 -0.0005
0.140953 -0.0254 0.0005
0.142577 -0.0254 -0.0005
0.142577 -0.0254 0.0005
0.144214 -0.0254 -0.0005
0.144214 -0.0254 0.0005
0.145863 -0.0254 -0.0005
0.145863 -0.0254 0.0005
0.147526 -0.0254 -0.0005
0.147526 -0.0254 0.0005
0.149201 -0.0254 -0.0005
0.149201 -0.0254 0.0005
0.15089 -0.0254 -0.0005
0.15089 -0.0254 0.0005
0.152591 -0.0254 -0.0005
0.152591 -0.0254 0.0005
0.154306 -0.0254 -0.0005
0.154306 -0.0254 0.0005
0.156034 -0.0254 -0.0005
0.156034 -0.0254 0.0005
0.157775 -0.0254 -0.0005
0.157775 -0.0254 0.0005
0.159531 -0.0254 -0.0005
0.159531 -0.0254 0.0005
0.161299 -0.0254 -0.0005
0.161299 -0.0254 0.0005
0.163082 -0.0254 -0.0005
0.163082 -0.0254 0.0005
0.164878 -0.0254 -0.0005
0.164878 -0.0254 0.0005
0.166688 -0.0254 -0.0005
0.166688 -0.0254 0.0005
0.168513 -0.0254 -0.0005
0.168513 -0.0254 0.0005
0.170351 -0.0254 -0.0005
0.170351 -0.0254 0.0005
0.172204 -0.0254 -0.0005
0.172204 -0.0254 0.0005
0.174071 -0.0254 -0.0005
0.174071 -0.0254 0.0005
0.175953 -0.0254 -0.0005
0.175953 -0.0254 0.0005
0.177849 -0.0254 -0.0005
0.177849 -0.0254 0.0005
0.17976 -0.0254 -0.0005
0.17976 -0.0254 0.0005
0.181686 -0.0254 -0.0005
0.181686 -0.0254 0.0005
0.183627 -0.0254 -0.0005
0.183627 -0.0254 0.0005
0.185583 -0.0254 -0.0005
0.185583 -0.0254 0.0005
0.187555 -0.0254 -0.0005
0.187555 -0.0254 0.0005
0.189541 -0.0254 -0.0005
0.189541 -0.0254 0.0005
0.191543 -0.0254 -0.0005
0.191543 -0.0254 0.0005
0.193561 -0.0254 -0.0005
0.193561 -0.0254 0.0005
0.195594 -0.0254 -0.0005
0.195594 -0.0254 0.0005
0.197643 -0.0254 -0.0005
0.197643 -0.0254 0.0005
0.199708 -0.0254 -0.0005
0.199708 -0.0254 0.0005
0.201789 -0.0254 -0.0005
0.201789 -0.0254 0.0005
0.203886 -0.0254 -0.0005
0.203886 -0.0254 0.0005
0.206 -0.0254 -0.0005
0.206 -0.0254 0.0005
0.208047 -0.0251856 -0.0005
0.208047 -0.0251856 0.0005
0.210173 -0.0249628 -0.0005
0.210173 -0.0249628 0.0005
0.212382 -0.0247314 -0.0005
0.212382 -0.0247314 0.0005
0.214677 -0.024491 -0.0005
0.214677 -0.024491 0.0005
0.217061 -0.0242412 -0.0005
0.217061 -0.0242412 0.0005
0.219538 -0.0239817 -0.0005
0.219538 -0.0239817 0.0005
0.222112 -0.0237121 -0.0005
0.222112 -0.0237121 0.0005
0.224785 -0.023432 -0.0005
0.224785 -0.023432 0.0005
0.227563 -0.023141 -0.0005
0.227563 -0.023141 0.0005
0.230449 -0.0228387 -0.0005
0.230449 -0.0228387 0.0005
0.233447 -0.0225246 -0.0005
0.233447 -0.0225246 0.0005
0.236562 -0.0221983 -0.0005
0.236562 -0.0221983 0.0005
0.239797 -0.0218593 -0.0005
0.239797 -0.0218593 0.0005
0.243159 -0.0215071 -0.0005
0.243159 -0.0215071 0.0005
0.246652 -0.0211412 -0.0005
0.246652 -0.0211412 0.0005
0.250281 -0.0207611 -0.0005
0.250281 -0.0207611 0.0005
0.254051 -0.0203661 -0.0005
0.254051 -0.0203661 0.0005
0.257967 -0.0199558 -0.0005
0.257967 -0.0199558 0.0005
0.262036 -0.0195295 -0.0005
0.262036 -0.0195295 0.0005
0.266264 -0.0190867 -0.0005
0.266264 -0.0190867 0.0005
0.270655 -0.0186266 -0.0005
0.270655 -0.0186266 0.0005
0.275218 -0.0181486 -0.0005
0.275218 -0.0181486 0.0005
0.279959 -0.017652 -0.0005
0.279959 -0.017652 0.0005
0.284883 -0.017136 -0.0005
0.284883 -0.017136 0.0005
0.29 -0.0166 -0.0005
0.29 -0.0166 0.0005

POLYGONS 250 1250
4 0 1 2 3
4 1 4 5 2
4 4 6 7 5
4 6 8 9 7
4 8 10 11 9
4 10 12 13 11
4 12 14 15 13
4 14 16 17 15
4 16 18 19 17
4 18 20 21 19
4 20 22 23 21
4 22 24 25 23
4 24 26 27 25
4 26 28 29 27
4 28 30 31 29
4 30 32 33 31
4 32 34 35 33
4 34 36 37 35
4 38 39 40 41
4 41 40 42 43
4 43 42 44 45
4 45 44 46 47
4 47 46 48 49
4 49 48 50 51
4 51 50 52 53
4 53 52 54 55
4 55 54 56 57
4 57 56 58 59
4 59 58 60 61
4 61 60 62 63
4 63 62 64 65
4 65 64 66 67
4 67 66 68 69
4 69 68 70 71
4 71 70 72 73
4 73 72 74 75
4 75 74 76 77
4 77 76 78 79
4 79 78 80 81
4 81 80 82 83
4 83 82 84 85
4 85 84 86 87
4 87 86 88 89
4 89 88 90 91
4 91 90 37 36
4 38 92 93 39
4 92 94 95 93
4 94 96 97 95
4 96 98 99 97
4 98 100 101 99
4 100 102 103 101
4 102 104 105 103
4 104 106 107 105
4 106 108 109 107
4 108 110 111 109
4 110 112 113 111
4 112 114 115 113
4 114 116 117 115
4 116 118 119 117
4 118 120 121 119
4 120 122 123 121
4 122 124 125 123
4 124 126 127 125
4 126 128 129 127
4 128 130 131 129
4 130 132 133 131
4 132 134 135 133
4 134 136 137 135
4 136 138 139 137
4 138 140 141 139
4 140 142 143 141
4 142 144 145 143
4 144 146 147 145
4 146 148 149 147
4 148 150 151 149
4 150 152 153 151
4 152 154 155 153
4 154 156 157 155
4 156 158 159 157
4 158 160 161 159
4 160 162 163 161
4 162 164 165 163
4 164 166 167 165
4 166 168 169 167
4 168 170 171 169
4 170 172 173 171
4 172 174 175 173
4 174 176 177 175
4 176 178 179 177
4 178 180 181 179
4 180 182 183 181
4 182 184 185 183
4 184 186 187 185
4 186 188 189 187
4 188 190 191 189
4 190 192 193 191
4 192 194 195 193
4 194 196 197 195
4 196 198 199 197
4 198 200 201 199
4 200 202 203 201
4 202 204 205 203
4 204 206 207 205
4 206 208 209 207
4 208 210 211 209
4 210 212 213 211
4 212 214 215 213
4 214 216 217 215
4 216 218 219 217
4 218 220 221 219
4 220 222 223 221
4 222 224 225 223
4 224 226 227 225
4 226 228 229 227
4 228 230 231 229
4 230 232 233 231
4 232 234 235 233
4 234 236 237 235
4 236 238 239 237
4 238 240 241 239
4 240 242 243 241
4 242 244 245 243
4 244 246 247 245
4 246 248 249 247
4 248 250 251 249
4 250 252 253 251
4 252 254 255 253
4 254 256 257 255
4 256 258 259 257
4 258 260 261 259
4 260 262 263 261
4 262 264 265 263
4 264 266 267 265
4 266 268 269 267
4 268 270 271 269
4 270 272 273 271
4 272 274 275 273
4 274 276 277 275
4 276 278 279 277
4 278 280 281 279
4 280 282 283 281
4 282 284 285 283
4 284 286 287 285
4 286 288 289 287
4 288 290 291 289
4 290 292 293 291
4 292 294 295 293
4 294 296 297 295
4 296 298 299 297
4 298 300 301 299
4 300 302 303 301
4 302 304 305 303
4 304 306 307 305
4 306 308 309 307
4 308 310 311 309
4 310 312 313 311
4 312 314 315 313
4 314 316 317 315
4 316 318 319 317
4 318 320 321 319
4 320 322 323 321
4 322 324 325 323
4 324 326 327 325
4 326 328 329 327
4 328 330 331 329
4 330 332 333 331
4 332 334 335 333
4 334 336 337 335
4 336 338 339 337
4 338 340 341 339
4 340 342 343 341
4 342 344 345 343
4 344 346 347 345
4 346 348 349 347
4 348 350 351 349
4 350 352 353 351
4 352 354 355 353
4 354 356 357 355
4 356 358 359 357
4 358 360 361 359
4 360 362 363 361
4 362 364 365 363
4 364 366 367 365
4 366 368 369 367
4 368 370 371 369
4 370 372 373 371
4 372 374 375 373
4 374 376 377 375
4 376 378 379 377
4 378 380 381 379
4 380 382 383 381
4 382 384 385 383
4 384 386 387 385
4 386 388 389 387
4 388 390 391 389
4 390 392 393 391
4 392 394 395 393
4 394 396 397 395
4 396 398 399 397
4 398 400 401 399
4 400 402 403 401
4 402 404 405 403
4 404 406 407 405
4 406 408 409 407
4 408 410 411 409
4 410 412 413 411
4 412 414 415 413
4 414 416 417 415
4 416 418 419 417
4 418 420 421 419
4 420 422 423 421
4 422 424 425 423
4 424 426 427 425
4 426 428 429 427
4 428 430 431 429
4 430 432 433 431
4 432 434 435 433
4 434 436 437 435
4 436 438 439 437
4 438 440 441 439
4 440 442 443 441
4 442 444 445 443
4 444 446 447 445
4 446 448 449 447
4 448 450 451 449
4 450 452 453 451
4 452 454 455 453
4 454 456 457 455
4 456 458 459 457
4 458 460 461 459
4 460 462 463 461
4 462 464 465 463
4 464 466 467 465
4 466 468 469 467
4 468 470 471 469
4 470 472 473 471
4 472 474 475 473
4 474 476 477 475
4 476 478 479 477
4 478 480 481 479
4 480 482 483 481
4 482 484 485 483
4 484 486 487 485
4 486 488 489 487
4 488 490 491 489
4 490 492 493 491
4 492 494 495 493
4 494 496 497 495
4 496 498 499 497
4 498 500 501 499
POINT_DATA 502
FIELD attributes 1
U 3 502 float
1.61737 0.0917828 -0.00788685
0.810466 0.0455863 -0.00388665
0.810466 0.0455863 -0.00388665
1.61737 0.0917828 -0.00788685
0.02489 0.000697086 0
0.02489 0.000697086 0
0.0220681 0.000623267 0
0.0220681 0.000623267 0
0.0196587 0.000497691 0
0.0196587 0.000497691 0
0.0174536 0.000405562 0
0.0174536 0.000405562 0
0.0154211 0.000335887 0
0.0154211 0.000335887 0
0.0136327 0.000271114 0
0.0136327 0.000271114 0
0.0120963 0.000223982 0
0.0120963 0.000223982 0
0.0107505 0.00019874 0
0.0107505 0.00019874 0
0.00955072 0.000178282 0
0.00955072 0.000178282 0
0.00849415 0.000149351 0
0.00849415 0.000149351 0
0.00758998 0.000110565 0
0.00758998 0.000110565 0
0.00684561 7.02494e-05 0
0.00684561 7.02494e-05 0
0.00624379 4.38759e-05 0
0.00624379 4.38759e-05 0
0.00571194 3.23849e-05 0
0.00571194 3.23849e-05 0
0.00527785 5.19404e-05 0
0.00527785 5.19404e-05 0
0.0046398 3.61029e-05 0
0.0046398 3.61029e-05 0
0.00194488 -7.36175e-05 0
0.00194488 -7.36175e-05 0
-0.000205178 0.000552669 1.25654e-24
-0.000205178 0.000552669 1.25654e-24
-4.06547e-05 0.00147861 -3.37517e-24
-4.06547e-05 0.00147861 -3.37517e-24
0.00023876 0.00176502 -4.06633e-24
0.00023876 0.00176502 -4.06633e-24
0.000207286 0.00038414 8.16746e-24
0.000207286 0.00038414 8.16746e-24
-3.41754e-05 -7.20638e-05 2.72419e-24
-3.41754e-05 -7.20638e-05 2.72419e-24
-0.000220906 0.000151479 -5.50615e-24
-0.000220906 0.000151479 -5.50615e-24
-0.000105113 -9.19322e-05 0
-0.000105113 -9.19322e-05 0
0.00042647 -0.00181659 -1.12803e-23
0.00042647 -0.00181659 -1.12803e-23
0.000512185 -0.00398876 -9.08707e-28
0.000512185 -0.00398876 -9.08707e-28
7.15303e-05 -0.00415919 1.12793e-23
7.15303e-05 -0.00415919 1.12793e-23
-0.000154207 -0.00334776 -1.14887e-23
-0.000154207 -0.00334776 -1.14887e-23
-0.000230796 -0.00225603 4.99307e-27
-0.000230796 -0.00225603 4.99307e-27
-0.000307636 -0.000737461 1.14937e-23
-0.000307636 -0.000737461 1.14937e-23
-0.000330616 0.000942924 9.60611e-24
-0.000330616 0.000942924 9.60611e-24
-0.000304467 0.00265532 6.40628e-27
-0.000304467 0.00265532 6.40628e-27
-0.000224821 0.00414717 -9.76984e-24
-0.000224821 0.00414717 -9.76984e-24
-8.3605e-05 0.00524905 0
-8.3605e-05 0.00524905 0
9.33279e-05 0.00562292 0
9.33279e-05 0.00562292 0
0.000264925 0.00528583 0
0.000264925 0.00528583 0
0.00037513 0.00442009 0
0.00037513 0.00442009 0
0.000391333 0.00332065 0
0.000391333 0.00332065 0
0.000338366 0.00228949 0
0.000338366 0.00228949 0
0.000274826 0.00148153 0
0.000274826 0.00148153 0
0.00023526 0.000907305 0
0.00023526 0.000907305 0
0.000158798 0.000434539 0
0.000158798 0.000434539 0
-5.61997e-06 0.000132438 0
-5.61997e-06 0.000132438 0
-1.20049e-05 -3.23878e-05 0
-1.20049e-05 -3.23878e-05 0
-0.00042246 0.000518225 1.53486e-26
-0.00042246 0.000518225 1.53486e-26
-0.000794999 0.000405649 -6.14504e-25
-0.000794999 0.000405649 -6.14504e-25
-0.00103972 0.000250895 0
-0.00103972 0.000250895 0
-0.00114587 9.47022e-05 0
-0.00114587 9.47022e-05 0
-0.00111896 -5.27593e-05 5.7364e-25
-0.00111896 -5.27593e-05 5.7364e-25
-0.000988681 -0.000176096 5.7467e-25
-0.000988681 -0.000176096 5.7467e-25
-0.000763473 -0.000283014 0
-0.000763473 -0.000283014 0
-0.000452012 -0.000369259 0
-0.000452012 -0.000369259 0
-7.2485e-05 -0.00042701 0
-7.2485e-05 -0.00042701 0
0.000359979 -0.000460341 -5.9673e-25
0.000359979 -0.000460341 -5.9673e-25
0.000818815 -0.0004721 -5.97867e-25
0.000818815 -0.0004721 -5.97867e-25
0.00128392 -0.000468249 0
0.00128392 -0.000468249 0
0.00174349 -0.000452461 0
0.00174349 -0.000452461 0
0.00218916 -0.000427805 0
0.00218916 -0.000427805 0
0.00261372 -0.000397355 -4.71259e-25
0.00261372 -0.000397355 -4.71259e-25
0.0030114 -0.000363542 -4.72211e-25
0.0030114 -0.000363542 -4.72211e-25
0.00337853 -0.000327844 0
0.00337853 -0.000327844 0
0.00371289 -0.000290872 0
0.00371289 -0.000290872 0
0.00401298 -0.000252874 0
0.00401298 -0.000252874 0
0.00427728 -0.000213813 0
0.00427728 -0.000213813 0
0.00450431 -0.000173642 0
0.00450431 -0.000173642 0
0.00469212 -0.000132247 0
0.00469212 -0.000132247 0
0.00483913 -8.96992e-05 -2.07692e-25
0.00483913 -8.96992e-05 -2.07692e-25
0.00494245 -4.58687e-05 -1.39135e-26
0.00494245 -4.58687e-05 -1.39135e-26
0.00500022 -4.98536e-07 7.40903e-27
0.00500022 -4.98536e-07 7.40903e-27
0.00500862 4.7712e-05 -3.74529e-25
0.00500862 4.7712e-05 -3.74529e-25
0.00496181 9.9759e-05 -1.8727e-25
0.00496181 9.9759e-05 -1.8727e-25
0.00485918 0.000156656 0
0.00485918 0.000156656 0
0.00469734 0.000216774 2.22729e-25
0.00469734 0.000216774 2.22729e-25
0.00447736 0.00027976 4.67702e-25
0.00447736 0.00027976 4.67702e-25
0.00419039 0.000347329 2.45031e-25
0.00419039 0.000347329 2.45031e-25
0.00384072 0.000413524 0
0.00384072 0.000413524 0
0.00341571 0.000496986 3.16743e-25
0.00341571 0.000496986 3.16743e-25
0.00291064 0.000558855 3.17523e-25
0.00291064 0.000558855 3.17523e-25
0.00235079 0.00065702 0
0.00235079 0.00065702 0
0.00163424 0.000770323 -3.39115e-25
0.00163424 0.000770323 -3.39115e-25
0.000880196 0.000471385 -3.39977e-25
0.000880196 0.000471385 -3.39977e-25
0.000350893 -7.94089e-05 -3.04842e-25
0.000350893 -7.94089e-05 -3.04842e-25
5.18306e-06 -0.000268254 -9.00242e-25
5.18306e-06 -0.000268254 -9.00242e-25
-0.00025167 -0.000121364 -5.96167e-25
-0.00025167 -0.000121364 -5.96167e-25
-0.000433584 5.27589e-05 0
-0.000433584 5.27589e-05 0
-0.00055617 0.000135111 0
-0.00055617 0.000135111 0
-0.000637591 0.000142301 0
-0.000637591 0.000142301 0
-0.000672533 0.000103954 0
-0.000672533 0.000103954 0
-0.000642742 3.92965e-05 -5.1956e-25
-0.000642742 3.92965e-05 -5.1956e-25
-0.000541714 -2.93593e-05 -1.06584e-24
-0.000541714 -2.93593e-05 -1.06584e-24
-0.000380847 -8.69345e-05 -1.11923e-24
-0.000380847 -8.69345e-05 -1.11923e-24
-0.000171797 -0.000134544 -5.74492e-25
-0.000171797 -0.000134544 -5.74492e-25
9.41278e-05 -0.000173438 6.29464e-25
9.41278e-05 -0.000173438 6.29464e-25
0.000420881 -0.000175779 6.31288e-25
0.000420881 -0.000175779 6.31288e-25
0.000755097 -8.54105e-05 -6.79595e-25
0.000755097 -8.54105e-05 -6.79595e-25
0.000971815 7.26962e-05 -1.36154e-24
0.000971815 7.26962e-05 -1.36154e-24
0.000972416 0.000146979 -6.81963e-25
0.000972416 0.000146979 -6.81963e-25
0.000882913 7.94686e-05 0
0.000882913 7.94686e-05 0
0.000972105 -3.25191e-05 0
0.000972105 -3.25191e-05 0
0.00129958 -0.000148752 -6.76521e-25
0.00129958 -0.000148752 -6.76521e-25
0.00170033 -0.000377645 -6.78617e-25
0.00170033 -0.000377645 -6.78617e-25
0.00198652 -0.000724825 0
0.00198652 -0.000724825 0
0.00205192 -0.000841106 0
0.00205192 -0.000841106 0
0.00180515 -0.000406604 0
0.00180515 -0.000406604 0
0.00104073 0.000345098 0
0.00104073 0.000345098 0
-0.000174303 0.000839345 0
-0.000174303 0.000839345 0
-0.00147178 0.000928823 0
-0.00147178 0.000928823 0
-0.00266865 0.000863571 0
-0.00266865 0.000863571 0
-0.0037496 0.000775779 1.88811e-25
-0.0037496 0.000775779 1.88811e-25
-0.00471997 0.000691759 1.89446e-25
-0.00471997 0.000691759 1.89446e-25
-0.00558963 0.000615667 0
-0.00558963 0.000615667 0
-0.00636898 0.000546932 4.12196e-25
-0.00636898 0.000546932 4.12196e-25
-0.00706629 0.000484003 1.02077e-24
-0.00706629 0.000484003 1.02077e-24
-0.00768768 0.000425631 6.09264e-25
-0.00768768 0.000425631 6.09264e-25
-0.00823779 0.000371184 -9.64184e-25
-0.00823779 0.000371184 -9.64184e-25
-0.00872027 0.000320252 1.53919e-25
-0.00872027 0.000320252 1.53919e-25
-0.00913792 0.000272369 1.12552e-24
-0.00913792 0.000272369 1.12552e-24
-0.00949268 0.000226965 -1.38449e-24
-0.00949268 0.000226965 -1.38449e-24
-0.00978561 0.000183488 -1.38952e-24
-0.00978561 0.000183488 -1.38952e-24
-0.0100172 0.000141583 0
-0.0100172 0.000141583 0
-0.0101876 0.000101313 1.62364e-24
-0.0101876 0.000101313 1.62364e-24
-0.010297 6.32434e-05 1.62967e-24
-0.010297 6.32434e-05 1.62967e-24
-0.0103463 2.81272e-05 -1.66567e-24
-0.0103463 2.81272e-05 -1.66567e-24
-0.0103391 -3.55548e-06 -1.67197e-24
-0.0103391 -3.55548e-06 -1.67197e-24
-0.0102813 -3.18042e-05 1.61517e-24
-0.0102813 -3.18042e-05 1.61517e-24
-0.0101766 -5.68184e-05 3.18045e-24
-0.0101766 -5.68184e-05 3.18045e-24
-0.0100291 -7.86862e-05 3.05063e-24
-0.0100291 -7.86862e-05 3.05063e-24
-0.00984352 -9.7444e-05 4.28558e-24
-0.00984352 -9.7444e-05 4.28558e-24
-0.00962479 -0.000113152 2.12006e-25
-0.00962479 -0.000113152 2.12006e-25
-0.00937781 -0.000125935 -2.60351e-24
-0.00937781 -0.000125935 -2.60351e-24
-0.00910719 -0.000136003 0
-0.00910719 -0.000136003 0
-0.00881734 -0.000143624 0
-0.00881734 -0.000143624 0
-0.00851218 -0.00014911 -1.6436e-24
-0.00851218 -0.00014911 -1.6436e-24
-0.00819527 -0.000152774 -3.03993e-24
-0.00819527 -0.000152774 -3.03993e-24
-0.00786962 -0.000154932 -2.60311e-25
-0.00786962 -0.000154932 -2.60311e-25
-0.00753777 -0.000155894 1.13973e-24
-0.00753777 -0.000155894 1.13973e-24
-0.00720168 -0.000155954 -6.31986e-25
-0.00720168 -0.000155954 -6.31986e-25
-0.00686283 -0.000155395 -1.02131e-24
-0.00686283 -0.000155395 -1.02131e-24
-0.00652212 -0.000154489 -5.35434e-25
-0.00652212 -0.000154489 -5.35434e-25
-0.00617995 -0.000153481 -1.47755e-25
-0.00617995 -0.000153481 -1.47755e-25
-0.00583625 -0.000152585 0
-0.00583625 -0.000152585 0
-0.00549054 -0.000151975 0
-0.00549054 -0.000151975 0
-0.00514201 -0.000151781 7.34917e-25
-0.00514201 -0.000151781 7.34917e-25
-0.00478955 -0.00015208 7.38135e-25
-0.00478955 -0.00015208 7.38135e-25
-0.00443197 -0.000152875 0
-0.00443197 -0.000152875 0
-0.00406821 -0.00015408 -1.29558e-24
-0.00406821 -0.00015408 -1.29558e-24
-0.00369756 -0.000155519 -1.30136e-24
-0.00369756 -0.000155519 -1.30136e-24
-0.00331983 -0.000156946 0
-0.00331983 -0.000156946 0
-0.00293539 -0.000158067 -1.74969e-24
-0.00293539 -0.000158067 -1.74969e-24
-0.00254526 -0.000158563 -1.75766e-24
-0.00254526 -0.000158563 -1.75766e-24
-0.00215114 -0.000158104 0
-0.00215114 -0.000158104 0
-0.00175532 -0.000156382 2.08176e-24
-0.00175532 -0.000156382 2.08176e-24
-0.00136059 -0.000153221 4.25538e-24
-0.00136059 -0.000153221 4.25538e-24
-0.000970261 -0.000148573 2.17406e-24
-0.000970261 -0.000148573 2.17406e-24
-0.000588004 -0.000142274 -2.28627e-24
-0.000588004 -0.000142274 -2.28627e-24
-0.000218116 -0.000134693 -2.29708e-24
-0.000218116 -0.000134693 -2.29708e-24
0.000135199 -0.000125964 2.35443e-24
0.000135199 -0.000125964 2.35443e-24
0.000469224 -0.00011593 2.3657e-24
0.000469224 -0.00011593 2.3657e-24
0.000781683 -0.000105003 2.37621e-24
0.000781683 -0.000105003 2.37621e-24
0.00107036 -9.3555e-05 4.76088e-24
0.00107036 -9.3555e-05 4.76088e-24
0.00133401 -8.19866e-05 2.38472e-24
0.00133401 -8.19866e-05 2.38472e-24
0.00157229 -7.06956e-05 0
0.00157229 -7.06956e-05 0
0.00178573 -6.00092e-05 0
0.00178573 -6.00092e-05 0
0.00197556 -5.01438e-05 0
0.00197556 -5.01438e-05 0
0.00214356 -4.12104e-05 0
0.00214356 -4.12104e-05 0
0.00229177 -3.31739e-05 0
0.00229177 -3.31739e-05 0
0.00242221 -2.58437e-05 0
0.00242221 -2.58437e-05 0
0.00253649 -1.90334e-05 2.17897e-24
0.00253649 -1.90334e-05 2.17897e-24
0.00263581 -1.25655e-05 4.26402e-26
0.00263581 -1.25655e-05 4.26402e-26
0.00272071 -6.07631e-06 -2.15842e-24
0.00272071 -6.07631e-06 -2.15842e-24
0.0027908 6.00521e-07 0
0.0027908 6.00521e-07 0
0.00284562 7.08837e-06 0
0.00284562 7.08837e-06 0
0.00288493 1.34899e-05 0
0.00288493 1.34899e-05 0
0.00290732 2.05499e-05 -3.9904e-24
0.00290732 2.05499e-05 -3.9904e-24
0.00291119 2.79159e-05 -4.01136e-24
0.00291119 2.79159e-05 -4.01136e-24
0.0028971 3.41456e-05 3.8761e-24
0.0028971 3.41456e-05 3.8761e-24
0.00286715 3.84121e-05 7.59795e-26
0.00286715 3.84121e-05 7.59795e-26
0.00282406 4.07865e-05 -3.84105e-24
0.00282406 4.07865e-05 -3.84105e-24
0.00277084 4.16212e-05 0
0.00277084 4.16212e-05 0
0.00271033 4.12616e-05 0
0.00271033 4.12616e-05 0
0.00264508 3.99596e-05 3.61182e-24
0.00264508 3.99596e-05 3.61182e-24
0.00257738 3.78913e-05 7.19454e-24
0.00257738 3.78913e-05 7.19454e-24
0.00250929 3.52074e-05 3.58254e-24
0.00250929 3.52074e-05 3.58254e-24
0.00244259 3.20937e-05 3.47013e-24
0.00244259 3.20937e-05 3.47013e-24
0.0023787 2.87753e-05 6.91523e-24
0.0023787 2.87753e-05 6.91523e-24
0.00231863 2.5468e-05 6.15767e-26
0.00231863 2.5468e-05 6.15767e-26
0.00226301 2.23313e-05 -3.40217e-24
0.00226301 2.23313e-05 -3.40217e-24
0.00221212 1.94528e-05 0
0.00221212 1.94528e-05 0
0.00216597 1.68624e-05 -3.26421e-24
0.00216597 1.68624e-05 -3.26421e-24
0.00212446 1.45617e-05 -3.28259e-24
0.00212446 1.45617e-05 -3.28259e-24
0.00208736 1.25468e-05 0
0.00208736 1.25468e-05 0
0.00205442 1.08171e-05 0
0.00205442 1.08171e-05 0
0.00202534 9.37111e-06 0
0.00202534 9.37111e-06 0
0.00199978 8.19923e-06 3.08946e-24
0.00199978 8.19923e-06 3.08946e-24
0.0019774 7.27871e-06 6.16452e-24
0.0019774 7.27871e-06 6.16452e-24
0.00195782 6.57377e-06 3.07494e-24
0.00195782 6.57377e-06 3.07494e-24
0.0019407 6.03973e-06 2.99511e-24
0.0019407 6.03973e-06 2.99511e-24
0.00192572 5.62933e-06 3.01254e-24
0.00192572 5.62933e-06 3.01254e-24
0.00191258 5.29939e-06 0
0.00191258 5.29939e-06 0
0.00190104 5.01643e-06 2.90648e-24
0.00190104 5.01643e-06 2.90648e-24
0.00189089 4.75794e-06 2.92359e-24
0.00189089 4.75794e-06 2.92359e-24
0.00188195 4.51183e-06 2.8502e-24
0.00188195 4.51183e-06 2.8502e-24
0.00187408 4.27274e-06 2.8671e-24
0.00187408 4.27274e-06 2.8671e-24
0.00186711 4.0422e-06 0
0.00186711 4.0422e-06 0
0.0018609 3.8271e-06 2.76976e-24
0.0018609 3.8271e-06 2.76976e-24
0.00185525 3.64315e-06 2.78637e-24