/*--------------------------------*- C++ -*----------------------------------*\
  =========                 |
  \\      /  F ield         | OpenFOAM: The Open Source CFD Toolbox
   \\    /   O peration     | Website:  https://openfoam.org
    \\  /    A nd           | Version:  7
     \\/     M anipulation  |
\*---------------------------------------------------------------------------*/
FoamFile
{
    version     2.0;
    format      ascii;
    class       volScalarField;
    location    "39";
    object      p;
}
// * * * * * * * * * * * * * * * * * * * * * * * * * * * * * * * * * * * * * //

dimensions      [0 2 -2 0 0 0 0];

internalField   nonuniform List<scalar> 
918
(
3.90976
17.1105
0.176537
3.83574
0.151395
16.2036
1.10916
2.65496
3.3744
0.587906
0.529496
2.76708
12.2135
6.37039
1.53585
0.168064
2.70159
0.530611
3.27326
0.284617
2.11158
3.53886
3.66435
3.39464
2.71994
3.39987
8.92894
0.253354
0.0261273
0.0906366
0.137217
0.0714616
-0.000971223
13.5921
14.7267
15.1799
2.91616
1.23172
1.22979
1.30174
1.01729
0.906285
2.66216
2.67526
1.73117
2.6495
2.64354
3.05739
3.35856
3.3758
3.41981
3.38476
3.43134
1.36566
0.567492
0.543347
0.584914
0.592485
0.602192
0.54285
0.536077
0.500105
0.469829
2.71617
2.77778
2.78572
2.74985
2.74026
15.3817
14.4481
15.0781
13.0254
13.3782
11.4073
10.6318
6.90204
7.37279
5.88176
5.31523
1.07497
0.784977
1.88029
2.29931
0.023502
0.203938
0.239016
2.70346
2.70849
2.70459
2.70508
1.98624
0.56569
0.590154
3.19901
3.14737
3.53398
3.58479
3.46654
3.48552
0.307016
0.300085
0.250481
0.244078
0.194269
2.43897
2.54682
3.34619
3.25882
2.73111
2.71838
2.72485
2.42788
2.69584
2.70215
4.54401
4.88222
3.98782
4.461
8.31738
7.67454
9.68578
10.3736
0.0834667
0.0362001
0.114092
0.032891
0.0774657
2.89954
2.87426
2.92702
2.93776
2.96752
1.0146
0.756802
1.37391
1.48209
1.39733
1.46956
0.64997
0.816527
0.725008
1.97971
2.6795
2.68594
1.55468
1.6831
1.61476
1.79879
1.85044
2.98375
3.03375
3.00397
3.18493
3.08972
3.13263
3.45043
3.38191
3.42181
1.46175
1.53853
1.28241
1.19744
0.522705
0.531175
0.530597
0.596809
0.593155
0.661266
0.704159
0.541148
0.510837
0.579129
0.553054
0.566173
0.434113
0.40507
2.6826
2.65575
2.74761
2.76997
2.85923
2.84027
2.80094
2.8236
9.45112
9.9771
10.1171
9.49036
-0.347672
-1.21035
2.64425
2.95587
0.0640094
0.0491768
0.0259703
0.0513707
0.067817
0.0132808
0.393519
0.361487
0.277452
0.335924
2.70607
2.70188
2.04119
2.09727
1.95007
1.88841
3.01587
3.03405
3.10483
3.06065
0.38503
0.328835
0.356101
2.62579
2.58406
2.61168
2.36201
2.2944
2.48347
2.51639
2.70049
2.70576
2.70447
4.90934
5.28608
10.6754
11.095
11.1647
11.7277
13.3648
13.1088
12.1066
2.79645
2.8488
2.82737
2.994
2.94655
2.97483
2.87413
2.912
2.89395
0.541554
0.364175
1.77532
1.71028
1.55162
1.62956
2.00139
2.02776
2.70051
2.69098
2.69634
1.91866
1.98106
1.09915
1.01654
2.55247
2.63336
2.59471
8.80824
7.89686
8.95269
8.39193
7.7233
8.20443
0.0575066
-0.709115
-0.26329
4.11128
3.31774
3.73931
0.478315
0.403146
0.428797
2.12421
2.11037
1.6315
1.79814
1.71379
5.65689
6.14913
7.08448
5.87361
6.49359
7.08573
6.7863
1.93654
1.84604
1.89031
2.10732
2.12871
2.21822
2.05408
2.12633
0.770775
0.937783
0.860727
2.12262
2.12228
2.11673
3.30383
3.36739
0.166875
0.240221
3.41639
3.39389
0.00862888
0.0346309
3.32371
1.33556
1.90712
3.12362
3.05858
3.34305
0.637735
1.39851
0.566979
0.698776
0.537756
2.79248
2.75726
2.64648
0.0913943
0.245089
0.336003
0.669769
3.27009
3.19229
3.32767
3.36499
3.37028
0.136547
0.180216
0.122435
0.266768
0.206751
0.254677
2.92071
2.92907
1.30107
3.32763
3.36409
3.36648
3.17762
3.2951
3.18403
0.184219
0.109536
0.121747
2.25381
2.49801
3.17575
2.72211
3.12294
3.09509
2.8203
4.04506
3.5592
3.59901
4.0302
2.67976
2.65213
1.95564
1.78862
2.0037
1.97343
3.10715
3.06306
3.03673
3.01017
3.23179
3.17411
3.27723
3.20005
3.25431
3.29275
0.620079
0.624049
0.627782
0.555335
1.40025
1.55034
1.24071
1.2747
0.926625
0.505963
0.50012
0.547114
0.523762
0.608572
0.529329
0.608808
0.52245
0.479247
0.453793
0.596602
0.534321
0.535443
2.79532
2.78748
2.75685
2.76039
2.77435
2.78915
2.67238
2.71834
2.67706
2.53363
2.60039
2.54659
0.14992
0.135728
0.105286
0.255007
0.273122
0.213155
0.163394
0.244481
0.23515
0.169065
0.300243
0.286944
0.764781
0.704006
2.09498
1.91745
1.52354
3.08254
3.16806
3.07839
3.22275
3.27492
3.28835
3.24061
3.17785
2.94341
2.94371
2.89506
2.89012
1.31829
1.11354
1.43975
1.43217
1.3987
2.70745
2.46143
2.33942
2.37812
2.6375
3.17728
2.32262
2.18004
2.18516
1.67041
2.53871
1.92896
2.43563
2.29997
4.90267
5.30477
4.89854
4.4007
4.48555
0.567127
2.62267
1.63878
1.62257
1.88137
1.79125
2.5689
2.67909
2.67939
2.62085
2.63512
2.65485
2.64243
2.66275
2.66102
2.6529
2.4816
2.25317
2.1238
2.13154
2.7018
2.51768
2.57908
2.51131
2.98878
3.05213
3.00875
2.93662
2.98952
2.93269
2.92532
2.95637
3.12284
3.08921
3.06394
3.11093
0.623013
0.60391
0.736014
0.717174
0.65934
0.617979
0.731878
1.0338
0.954867
1.50195
1.57593
0.979588
0.810697
0.797277
1.00168
1.18962
1.1913
0.867702
0.989095
1.06781
0.976862
1.17803
1.07664
0.551058
0.603497
0.580126
0.565071
0.708968
0.833034
0.732478
0.497621
0.522989
0.451703
0.421538
0.726186
0.602742
0.609796
0.766659
0.224858
0.256089
0.284538
0.481943
0.377804
0.41925
2.86885
2.82303
2.84144
2.7418
2.75193
2.74196
2.69525
2.88057
2.84435
2.8614
2.69089
2.70444
2.67595
2.71176
2.76148
2.79684
2.90486
2.87292
2.77513
2.79477
2.7515
2.7419
2.65441
2.59375
2.5839
0.209039
0.157922
0.187363
0.157461
0.111251
0.139633
0.437068
0.314985
0.380995
0.352996
0.396191
0.282185
0.260652
0.949907
1.06864
1.09141
0.889217
0.892004
2.07112
2.07656
1.92884
1.80903
1.873
1.97627
1.9907
1.66048
1.79459
1.74675
1.98226
2.12043
3.16933
3.16182
3.12613
3.10483
3.13131
1.44877
1.7023
1.74945
1.87698
1.32673
1.50097
1.85791
1.72904
1.94137
1.52252
2.70468
2.71248
2.65763
2.70595
2.71063
2.45501
2.5664
2.64008
2.61518
2.68015
2.69077
2.58791
2.64894
2.63758
2.55932
2.56292
2.49379
2.53063
2.47491
2.45267
2.7279
2.71477
2.74758
2.69096
2.73377
2.67248
2.71057
2.71913
2.73923
2.64381
2.57361
2.57656
2.62424
2.59473
2.63614
2.65543
1.88147
1.94876
1.45069
1.10337
1.21901
0.656248
0.59758
0.936921
1.40162
0.779585
0.504577
-0.108354
2.55268
3.06683
2.64806
2.56081
2.61235
2.63488
2.62115
2.58347
2.59426
2.68251
2.69152
2.69731
2.60922
2.60797
2.62617
2.60874
2.55415
2.30733
2.29589
2.21161
1.9471
2.00418
2.37515
2.24851
2.11402
2.11785
2.48465
2.32896
2.4247
2.46393
2.31752
2.27047
2.5813
2.66488
2.69266
2.66526
2.47394
2.49355
2.53773
2.58665
2.61129
2.65506
2.96206
3.02895
3.04039
3.00762
2.9876
2.99991
2.96723
2.98145
3.04052
3.05676
3.03651
0.573451
0.599892
0.589725
0.568189
0.629493
0.611426
0.832094
0.793705
0.651374
0.694742
0.662392
0.683767
0.602662
0.610434
1.04034
1.10447
1.16117
1.04589
1.34557
1.57542
1.68382
1.57424
1.23918
1.26332
1.38706
0.731877
0.732816
0.683757
0.765158
0.790977
0.524228
0.451333
0.408819
0.505303
0.536697
0.397259
0.347362
0.366806
0.452926
0.407524
0.357071
2.84982
2.82162
2.81917
2.79186
2.80036
2.8478
2.87541
2.84978
2.86811
2.87354
2.8224
2.80759
2.82926
0.357548
0.306891
0.327091
0.32115
0.33285
0.313771
0.337882
1.53122
1.30261
1.41059
1.25414
0.999146
1.05788
1.68668
1.91328
1.84566
2.07468
2.02653
2.0177
1.93322
1.9656
1.72243
1.96986
1.82864
2.09937
2.04822
2.09289
1.99284
2.03141
2.32121
2.41508
2.02366
2.12637
2.19788
1.95442
2.00175
2.08743
2.30909
1.38842
1.56596
1.79158
1.83816
1.51403
1.7365
1.48326
1.57574
1.66887
1.75271
1.78583
2.69215
2.68609
2.69932
2.69647
2.71223
2.70334
2.68848
2.71287
2.72079
2.69808
0.634604
1.02444
0.206168
1.20594
1.5669
2.68468
2.51131
2.88524
2.78144
2.68249
2.66271
2.65587
2.61324
2.67808
2.65029
2.24571
2.41193
2.36206
2.38341
2.24428
2.152
2.60166
2.61022
2.61334
2.64431
2.64458
2.70298
2.95504
2.93821
2.94456
2.95171
2.89982
2.90461
0.888549
0.803356
0.957268
0.95145
0.843339
0.778733
0.464693
0.398001
0.354953
0.330499
0.379596
0.388749
1.5853
1.57975
1.31538
1.4905
1.36788
1.14947
1.19483
1.26508
1.42576
1.52391
1.80476
2.08991
1.94028
1.98291
1.75021
1.84372
1.79314
1.64931
1.68652
1.85851
1.84021
2.0702
1.24448
1.56685
2.95742
2.95282
2.72177
2.44212
2.15487
2.42309
2.55644
2.43788
2.5071
2.60619
2.57576
1.50124
1.41605
2.21869
2.56133
1.82774
1.69899
1.7403
2.05244
2.05616
)
;

boundaryField
{
    wall-4
    {
        type            zeroGradient;
    }
    velocity-inlet-5
    {
        type            zeroGradient;
    }
    velocity-inlet-6
    {
        type            zeroGradient;
    }
    pressure-outlet-7
    {
        type            fixedValue;
        value           uniform 0;
    }
    wall-8
    {
        type            zeroGradient;
    }
    frontAndBackPlanes
    {
        type            empty;
    }
}


// ************************************************************************* //
