# vtk DataFile Version 2.0
sampleSurface
ASCII
DATASET POLYDATA
POINTS 502 double
-0.0206 0 -0.0005
-0.0190172 0 -0.0005
-0.0190172 0 0.0005
-0.0206 0 0.0005
-0.0174976 0 -0.0005
-0.0174976 0 0.0005
-0.0160387 0 -0.0005
-0.0160387 0 0.0005
-0.0146381 0 -0.0005
-0.0146381 0 0.0005
-0.0132934 0 -0.0005
-0.0132934 0 0.0005
-0.0120025 0 -0.0005
-0.0120025 0 0.0005
-0.0107632 0 -0.0005
-0.0107632 0 0.0005
-0.00957337 0 -0.0005
-0.00957337 0 0.0005
-0.00843108 0 -0.0005
-0.00843108 0 0.0005
-0.00733443 0 -0.0005
-0.00733443 0 0.0005
-0.0062816 0 -0.0005
-0.0062816 0 0.0005
-0.00527083 0 -0.0005
-0.00527083 0 0.0005
-0.00430044 0 -0.0005
-0.00430044 0 0.0005
-0.00336883 0 -0.0005
-0.00336883 0 0.0005
-0.00247443 0 -0.0005
-0.00247443 0 0.0005
-0.00161577 0 -0.0005
-0.00161577 0 0.0005
-0.000791418 0 -0.0005
-0.000791418 0 0.0005
0 0 -0.0005
0 0 0.0005
0 -0.0254 -0.0005
0 -0.0254 0.0005
0 -0.0242711 0.0005
0 -0.0242711 -0.0005
0 -0.0231422 0.0005
0 -0.0231422 -0.0005
0 -0.0220133 0.0005
0 -0.0220133 -0.0005
0 -0.0208844 0.0005
0 -0.0208844 -0.0005
0 -0.0197556 0.0005
0 -0.0197556 -0.0005
0 -0.0186267 0.0005
0 -0.0186267 -0.0005
0 -0.0174978 0.0005
0 -0.0174978 -0.0005
0 -0.0163689 0.0005
0 -0.0163689 -0.0005
0 -0.01524 0.0005
0 -0.01524 -0.0005
0 -0.0141111 0.0005
0 -0.0141111 -0.0005
0 -0.0129822 0.0005
0 -0.0129822 -0.0005
0 -0.0118533 0.0005
0 -0.0118533 -0.0005
0 -0.0107244 0.0005
0 -0.0107244 -0.0005
0 -0.00959556 0.0005
0 -0.00959556 -0.0005
0 -0.00846667 0.0005
0 -0.00846667 -0.0005
0 -0.00726604 0.0005
0 -0.00726604 -0.0005
0 -0.00618989 0.0005
0 -0.00618989 -0.0005
0 -0.00522531 0.0005
0 -0.00522531 -0.0005
0 -0.00436073 0.0005
0 -0.00436073 -0.0005
0 -0.00358579 0.0005
0 -0.00358579 -0.0005
0 -0.00289118 0.0005
0 -0.00289118 -0.0005
0 -0.0022686 0.0005
0 -0.0022686 -0.0005
0 -0.00171055 0.0005
0 -0.00171055 -0.0005
0 -0.00121037 0.0005
0 -0.00121037 -0.0005
0 -0.000762037 0.0005
0 -0.000762037 -0.0005
0 -0.000360188 0.0005
0 -0.000360188 -0.0005
0.000528387 -0.0254 -0.0005
0.000528387 -0.0254 0.0005
0.00106088 -0.0254 -0.0005
0.00106088 -0.0254 0.0005
0.00159752 -0.0254 -0.0005
0.00159752 -0.0254 0.0005
0.00213833 -0.0254 -0.0005
0.00213833 -0.0254 0.0005
0.00268334 -0.0254 -0.0005
0.00268334 -0.0254 0.0005
0.00323259 -0.0254 -0.0005
0.00323259 -0.0254 0.0005
0.00378611 -0.0254 -0.0005
0.00378611 -0.0254 0.0005
0.00434393 -0.0254 -0.0005
0.00434393 -0.0254 0.0005
0.00490609 -0.0254 -0.0005
0.00490609 -0.0254 0.0005
0.00547262 -0.0254 -0.0005
0.00547262 -0.0254 0.0005
0.00604356 -0.0254 -0.0005
0.00604356 -0.0254 0.0005
0.00661893 -0.0254 -0.0005
0.00661893 -0.0254 0.0005
0.00719878 -0.0254 -0.0005
0.00719878 -0.0254 0.0005
0.00778313 -0.0254 -0.0005
0.00778313 -0.0254 0.0005
0.00837203 -0.0254 -0.0005
0.00837203 -0.0254 0.0005
0.00896551 -0.0254 -0.0005
0.00896551 -0.0254 0.0005
0.0095636 -0.0254 -0.0005
0.0095636 -0.0254 0.0005
0.0101663 -0.0254 -0.0005
0.0101663 -0.0254 0.0005
0.0107738 -0.0254 -0.0005
0.0107738 -0.0254 0.0005
0.0113859 -0.0254 -0.0005
0.0113859 -0.0254 0.0005
0.0120028 -0.0254 -0.0005
0.0120028 -0.0254 0.0005
0.0126245 -0.0254 -0.0005
0.0126245 -0.0254 0.0005
0.0132511 -0.0254 -0.0005
0.0132511 -0.0254 0.0005
0.0138825 -0.0254 -0.0005
0.0138825 -0.0254 0.0005
0.0145188 -0.0254 -0.0005
0.0145188 -0.0254 0.0005
0.0151601 -0.0254 -0.0005
0.0151601 -0.0254 0.0005
0.0158063 -0.0254 -0.0005
0.0158063 -0.0254 0.0005
0.0164576 -0.0254 -0.0005
0.0164576 -0.0254 0.0005
0.0171139 -0.0254 -0.0005
0.0171139 -0.0254 0.0005
0.0177754 -0.0254 -0.0005
0.0177754 -0.0254 0.0005
0.018442 -0.0254 -0.0005
0.018442 -0.0254 0.0005
0.0191137 -0.0254 -0.0005
0.0191137 -0.0254 0.0005
0.0197907 -0.0254 -0.0005
0.0197907 -0.0254 0.0005
0.020473 -0.0254 -0.0005
0.020473 -0.0254 0.0005
0.0211606 -0.0254 -0.0005
0.0211606 -0.0254 0.0005
0.0218535 -0.0254 -0.0005
0.0218535 -0.0254 0.0005
0.0225517 -0.0254 -0.0005
0.0225517 -0.0254 0.0005
0.0232555 -0.0254 -0.0005
0.0232555 -0.0254 0.0005
0.0239647 -0.0254 -0.0005
0.0239647 -0.0254 0.0005
0.0246794 -0.0254 -0.0005
0.0246794 -0.0254 0.0005
0.0253996 -0.0254 -0.0005
0.0253996 -0.0254 0.0005
0.0261255 -0.0254 -0.0005
0.0261255 -0.0254 0.0005
0.026857 -0.0254 -0.0005
0.026857 -0.0254 0.0005
0.0275942 -0.0254 -0.0005
0.0275942 -0.0254 0.0005
0.0283371 -0.0254 -0.0005
0.0283371 -0.0254 0.0005
0.0290858 -0.0254 -0.0005
0.0290858 -0.0254 0.0005
0.0298403 -0.0254 -0.0005
0.0298403 -0.0254 0.0005
0.0306007 -0.0254 -0.0005
0.0306007 -0.0254 0.0005
0.031367 -0.0254 -0.0005
0.031367 -0.0254 0.0005
0.0321393 -0.0254 -0.0005
0.0321393 -0.0254 0.0005
0.0329175 -0.0254 -0.0005
0.0329175 -0.0254 0.0005
0.0337019 -0.0254 -0.0005
0.0337019 -0.0254 0.0005
0.0344923 -0.0254 -0.0005
0.0344923 -0.0254 0.0005
0.0352888 -0.0254 -0.0005
0.0352888 -0.0254 0.0005
0.0360916 -0.0254 -0.0005
0.0360916 -0.0254 0.0005
0.0369006 -0.0254 -0.0005
0.0369006 -0.0254 0.0005
0.0377158 -0.0254 -0.0005
0.0377158 -0.0254 0.0005
0.0385375 -0.0254 -0.0005
0.0385375 -0.0254 0.0005
0.0393655 -0.0254 -0.0005
0.0393655 -0.0254 0.0005
0.0401999 -0.0254 -0.0005
0.0401999 -0.0254 0.0005
0.0410408 -0.0254 -0.0005
0.0410408 -0.0254 0.0005
0.0418883 -0.0254 -0.0005
0.0418883 -0.0254 0.0005
0.0427424 -0.0254 -0.0005
0.0427424 -0.0254 0.0005
0.0436031 -0.0254 -0.0005
0.0436031 -0.0254 0.0005
0.0444704 -0.0254 -0.0005
0.0444704 -0.0254 0.0005
0.0453446 -0.0254 -0.0005
0.0453446 -0.0254 0.0005
0.0462255 -0.0254 -0.0005
0.0462255 -0.0254 0.0005
0.0471133 -0.0254 -0.0005
0.0471133 -0.0254 0.0005
0.048008 -0.0254 -0.0005
0.048008 -0.0254 0.0005
0.0489096 -0.0254 -0.0005
0.0489096 -0.0254 0.0005
0.0498183 -0.0254 -0.0005
0.0498183 -0.0254 0.0005
0.050734 -0.0254 -0.0005
0.050734 -0.0254 0.0005
0.0516568 -0.0254 -0.0005
0.0516568 -0.0254 0.0005
0.0525868 -0.0254 -0.0005
0.0525868 -0.0254 0.0005
0.053524 -0.0254 -0.0005
0.053524 -0.0254 0.0005
0.0544686 -0.0254 -0.0005
0.0544686 -0.0254 0.0005
0.0554204 -0.0254 -0.0005
0.0554204 -0.0254 0.0005
0.0563797 -0.0254 -0.0005
0.0563797 -0.0254 0.0005
0.0573464 -0.0254 -0.0005
0.0573464 -0.0254 0.0005
0.0583206 -0.0254 -0.0005
0.0583206 -0.0254 0.0005
0.0593025 -0.0254 -0.0005
0.0593025 -0.0254 0.0005
0.0602919 -0.0254 -0.0005
0.0602919 -0.0254 0.0005
0.0612891 -0.0254 -0.0005
0.0612891 -0.0254 0.0005
0.0622939 -0.0254 -0.0005
0.0622939 -0.0254 0.0005
0.0633067 -0.0254 -0.0005
0.0633067 -0.0254 0.0005
0.0643272 -0.0254 -0.0005
0.0643272 -0.0254 0.0005
0.0653557 -0.0254 -0.0005
0.0653557 -0.0254 0.0005
0.0663923 -0.0254 -0.0005
0.0663923 -0.0254 0.0005
0.0674368 -0.0254 -0.0005
0.0674368 -0.0254 0.0005
0.0684895 -0.0254 -0.0005
0.0684895 -0.0254 0.0005
0.0695504 -0.0254 -0.0005
0.0695504 -0.0254 0.0005
0.0706195 -0.0254 -0.0005
0.0706195 -0.0254 0.0005
0.0716969 -0.0254 -0.0005
0.0716969 -0.0254 0.0005
0.0727828 -0.0254 -0.0005
0.0727828 -0.0254 0.0005
0.073877 -0.0254 -0.0005
0.073877 -0.0254 0.0005
0.0749798 -0.0254 -0.0005
0.0749798 -0.0254 0.0005
0.0760911 -0.0254 -0.0005
0.0760911 -0.0254 0.0005
0.0772111 -0.0254 -0.0005
0.0772111 -0.0254 0.0005
0.0783398 -0.0254 -0.0005
0.0783398 -0.0254 0.0005
0.0794772 -0.0254 -0.0005
0.0794772 -0.0254 0.0005
0.0806235 -0.0254 -0.0005
0.0806235 -0.0254 0.0005
0.0817787 -0.0254 -0.0005
0.0817787 -0.0254 0.0005
0.0829429 -0.0254 -0.0005
0.0829429 -0.0254 0.0005
0.0841162 -0.0254 -0.0005
0.0841162 -0.0254 0.0005
0.0852985 -0.0254 -0.0005
0.0852985 -0.0254 0.0005
0.0864901 -0.0254 -0.0005
0.0864901 -0.0254 0.0005
0.0876909 -0.0254 -0.0005
0.0876909 -0.0254 0.0005
0.0889011 -0.0254 -0.0005
0.0889011 -0.0254 0.0005
0.0901207 -0.0254 -0.0005
0.0901207 -0.0254 0.0005
0.0913497 -0.0254 -0.0005
0.0913497 -0.0254 0.0005
0.0925883 -0.0254 -0.0005
0.0925883 -0.0254 0.0005
0.0938366 -0.0254 -0.0005
0.0938366 -0.0254 0.0005
0.0950945 -0.0254 -0.0005
0.0950945 -0.0254 0.0005
0.0963622 -0.0254 -0.0005
0.0963622 -0.0254 0.0005
0.0976398 -0.0254 -0.0005
0.0976398 -0.0254 0.0005
0.0989273 -0.0254 -0.0005
0.0989273 -0.0254 0.0005
0.100225 -0.0254 -0.0005
0.100225 -0.0254 0.0005
0.101532 -0.0254 -0.0005
0.101532 -0.0254 0.0005
0.10285 -0.0254 -0.0005
0.10285 -0.0254 0.0005
0.104178 -0.0254 -0.0005
0.104178 -0.0254 0.0005
0.105517 -0.0254 -0.0005
0.105517 -0.0254 0.0005
0.106865 -0.0254 -0.0005
0.106865 -0.0254 0.0005
0.108225 -0.0254 -0.0005
0.108225 -0.0254 0.0005
0.109594 -0.0254 -0.0005
0.109594 -0.0254 0.0005
0.110975 -0.0254 -0.0005
0.110975 -0.0254 0.0005
0.112366 -0.0254 -0.0005
0.112366 -0.0254 0.0005
0.113768 -0.0254 -0.0005
0.113768 -0.0254 0.0005
0.115181 -0.0254 -0.0005
0.115181 -0.0254 0.0005
0.116605 -0.0254 -0.0005
0.116605 -0.0254 0.0005
0.11804 -0.0254 -0.0005
0.11804 -0.0254 0.0005
0.119486 -0.0254 -0.0005
0.119486 -0.0254 0.0005
0.120943 -0.0254 -0.0005
0.120943 -0.0254 0.0005
0.122412 -0.0254 -0.0005
0.122412 -0.0254 0.0005
0.123892 -0.0254 -0.0005
0.123892 -0.0254 0.0005
0.125384 -0.0254 -0.0005
0.125384 -0.0254 0.0005
0.126887 -0.0254 -0.0005
0.126887 -0.0254 0.0005
0.128402 -0.0254 -0.0005
0.128402 -0.0254 0.0005
0.129928 -0.0254 -0.0005
0.129928 -0.0254 0.0005
0.131467 -0.0254 -0.0005
0.131467 -0.0254 0.0005
0.133017 -0.0254 -0.0005
0.133017 -0.0254 0.0005
0.13458 -0.0254 -0.0005
0.13458 -0.0254 0.0005
0.136155 -0.0254 -0.0005
0.136155 -0.0254 0.0005
0.137742 -0.0254 -0.0005
0.137742 -0.0254 0.0005
0.139341 -0.0254 -0.0005
0.139341 -0.0254 0.0005
0.140953 -0.0254 -0.0005
0.140953 -0.0254 0.0005
0.142577 -0.0254 -0.0005
0.142577 -0.0254 0.0005
0.144214 -0.0254 -0.0005
0.144214 -0.0254 0.0005
0.145863 -0.0254 -0.0005
0.145863 -0.0254 0.0005
0.147526 -0.0254 -0.0005
0.147526 -0.0254 0.0005
0.149201 -0.0254 -0.0005
0.149201 -0.0254 0.0005
0.15089 -0.0254 -0.0005
0.15089 -0.0254 0.0005
0.152591 -0.0254 -0.0005
0.152591 -0.0254 0.0005
0.154306 -0.0254 -0.0005
0.154306 -0.0254 0.0005
0.156034 -0.0254 -0.0005
0.156034 -0.0254 0.0005
0.157775 -0.0254 -0.0005
0.157775 -0.0254 0.0005
0.159531 -0.0254 -0.0005
0.159531 -0.0254 0.0005
0.161299 -0.0254 -0.0005
0.161299 -0.0254 0.0005
0.163082 -0.0254 -0.0005
0.163082 -0.0254 0.0005
0.164878 -0.0254 -0.0005
0.164878 -0.0254 0.0005
0.166688 -0.0254 -0.0005
0.166688 -0.0254 0.0005
0.168513 -0.0254 -0.0005
0.168513 -0.0254 0.0005
0.170351 -0.0254 -0.0005
0.170351 -0.0254 0.0005
0.172204 -0.0254 -0.0005
0.172204 -0.0254 0.0005
0.174071 -0.0254 -0.0005
0.174071 -0.0254 0.0005
0.175953 -0.0254 -0.0005
0.175953 -0.0254 0.0005
0.177849 -0.0254 -0.0005
0.177849 -0.0254 0.0005
0.17976 -0.0254 -0.0005
0.17976 -0.0254 0.0005
0.181686 -0.0254 -0.0005
0.181686 -0.0254 0.0005
0.183627 -0.0254 -0.0005
0.183627 -0.0254 0.0005
0.185583 -0.0254 -0.0005
0.185583 -0.0254 0.0005
0.187555 -0.0254 -0.0005
0.187555 -0.0254 0.0005
0.189541 -0.0254 -0.0005
0.189541 -0.0254 0.0005
0.191543 -0.0254 -0.0005
0.191543 -0.0254 0.0005
0.193561 -0.0254 -0.0005
0.193561 -0.0254 0.0005
0.195594 -0.0254 -0.0005
0.195594 -0.0254 0.0005
0.197643 -0.0254 -0.0005
0.197643 -0.0254 0.0005
0.199708 -0.0254 -0.0005
0.199708 -0.0254 0.0005
0.201789 -0.0254 -0.0005
0.201789 -0.0254 0.0005
0.203886 -0.0254 -0.0005
0.203886 -0.0254 0.0005
0.206 -0.0254 -0.0005
0.206 -0.0254 0.0005
0.208047 -0.0251856 -0.0005
0.208047 -0.0251856 0.0005
0.210173 -0.0249628 -0.0005
0.210173 -0.0249628 0.0005
0.212382 -0.0247314 -0.0005
0.212382 -0.0247314 0.0005
0.214677 -0.024491 -0.0005
0.214677 -0.024491 0.0005
0.217061 -0.0242412 -0.0005
0.217061 -0.0242412 0.0005
0.219538 -0.0239817 -0.0005
0.219538 -0.0239817 0.0005
0.222112 -0.0237121 -0.0005
0.222112 -0.0237121 0.0005
0.224785 -0.023432 -0.0005
0.224785 -0.023432 0.0005
0.227563 -0.023141 -0.0005
0.227563 -0.023141 0.0005
0.230449 -0.0228387 -0.0005
0.230449 -0.0228387 0.0005
0.233447 -0.0225246 -0.0005
0.233447 -0.0225246 0.0005
0.236562 -0.0221983 -0.0005
0.236562 -0.0221983 0.0005
0.239797 -0.0218593 -0.0005
0.239797 -0.0218593 0.0005
0.243159 -0.0215071 -0.0005
0.243159 -0.0215071 0.0005
0.246652 -0.0211412 -0.0005
0.246652 -0.0211412 0.0005
0.250281 -0.0207611 -0.0005
0.250281 -0.0207611 0.0005
0.254051 -0.0203661 -0.0005
0.254051 -0.0203661 0.0005
0.257967 -0.0199558 -0.0005
0.257967 -0.0199558 0.0005
0.262036 -0.0195295 -0.0005
0.262036 -0.0195295 0.0005
0.266264 -0.0190867 -0.0005
0.266264 -0.0190867 0.0005
0.270655 -0.0186266 -0.0005
0.270655 -0.0186266 0.0005
0.275218 -0.0181486 -0.0005
0.275218 -0.0181486 0.0005
0.279959 -0.017652 -0.0005
0.279959 -0.017652 0.0005
0.284883 -0.017136 -0.0005
0.284883 -0.017136 0.0005
0.29 -0.0166 -0.0005
0.29 -0.0166 0.0005

POLYGONS 250 1250
4 0 1 2 3
4 1 4 5 2
4 4 6 7 5
4 6 8 9 7
4 8 10 11 9
4 10 12 13 11
4 12 14 15 13
4 14 16 17 15
4 16 18 19 17
4 18 20 21 19
4 20 22 23 21
4 22 24 25 23
4 24 26 27 25
4 26 28 29 27
4 28 30 31 29
4 30 32 33 31
4 32 34 35 33
4 34 36 37 35
4 38 39 40 41
4 41 40 42 43
4 43 42 44 45
4 45 44 46 47
4 47 46 48 49
4 49 48 50 51
4 51 50 52 53
4 53 52 54 55
4 55 54 56 57
4 57 56 58 59
4 59 58 60 61
4 61 60 62 63
4 63 62 64 65
4 65 64 66 67
4 67 66 68 69
4 69 68 70 71
4 71 70 72 73
4 73 72 74 75
4 75 74 76 77
4 77 76 78 79
4 79 78 80 81
4 81 80 82 83
4 83 82 84 85
4 85 84 86 87
4 87 86 88 89
4 89 88 90 91
4 91 90 37 36
4 38 92 93 39
4 92 94 95 93
4 94 96 97 95
4 96 98 99 97
4 98 100 101 99
4 100 102 103 101
4 102 104 105 103
4 104 106 107 105
4 106 108 109 107
4 108 110 111 109
4 110 112 113 111
4 112 114 115 113
4 114 116 117 115
4 116 118 119 117
4 118 120 121 119
4 120 122 123 121
4 122 124 125 123
4 124 126 127 125
4 126 128 129 127
4 128 130 131 129
4 130 132 133 131
4 132 134 135 133
4 134 136 137 135
4 136 138 139 137
4 138 140 141 139
4 140 142 143 141
4 142 144 145 143
4 144 146 147 145
4 146 148 149 147
4 148 150 151 149
4 150 152 153 151
4 152 154 155 153
4 154 156 157 155
4 156 158 159 157
4 158 160 161 159
4 160 162 163 161
4 162 164 165 163
4 164 166 167 165
4 166 168 169 167
4 168 170 171 169
4 170 172 173 171
4 172 174 175 173
4 174 176 177 175
4 176 178 179 177
4 178 180 181 179
4 180 182 183 181
4 182 184 185 183
4 184 186 187 185
4 186 188 189 187
4 188 190 191 189
4 190 192 193 191
4 192 194 195 193
4 194 196 197 195
4 196 198 199 197
4 198 200 201 199
4 200 202 203 201
4 202 204 205 203
4 204 206 207 205
4 206 208 209 207
4 208 210 211 209
4 210 212 213 211
4 212 214 215 213
4 214 216 217 215
4 216 218 219 217
4 218 220 221 219
4 220 222 223 221
4 222 224 225 223
4 224 226 227 225
4 226 228 229 227
4 228 230 231 229
4 230 232 233 231
4 232 234 235 233
4 234 236 237 235
4 236 238 239 237
4 238 240 241 239
4 240 242 243 241
4 242 244 245 243
4 244 246 247 245
4 246 248 249 247
4 248 250 251 249
4 250 252 253 251
4 252 254 255 253
4 254 256 257 255
4 256 258 259 257
4 258 260 261 259
4 260 262 263 261
4 262 264 265 263
4 264 266 267 265
4 266 268 269 267
4 268 270 271 269
4 270 272 273 271
4 272 274 275 273
4 274 276 277 275
4 276 278 279 277
4 278 280 281 279
4 280 282 283 281
4 282 284 285 283
4 284 286 287 285
4 286 288 289 287
4 288 290 291 289
4 290 292 293 291
4 292 294 295 293
4 294 296 297 295
4 296 298 299 297
4 298 300 301 299
4 300 302 303 301
4 302 304 305 303
4 304 306 307 305
4 306 308 309 307
4 308 310 311 309
4 310 312 313 311
4 312 314 315 313
4 314 316 317 315
4 316 318 319 317
4 318 320 321 319
4 320 322 323 321
4 322 324 325 323
4 324 326 327 325
4 326 328 329 327
4 328 330 331 329
4 330 332 333 331
4 332 334 335 333
4 334 336 337 335
4 336 338 339 337
4 338 340 341 339
4 340 342 343 341
4 342 344 345 343
4 344 346 347 345
4 346 348 349 347
4 348 350 351 349
4 350 352 353 351
4 352 354 355 353
4 354 356 357 355
4 356 358 359 357
4 358 360 361 359
4 360 362 363 361
4 362 364 365 363
4 364 366 367 365
4 366 368 369 367
4 368 370 371 369
4 370 372 373 371
4 372 374 375 373
4 374 376 377 375
4 376 378 379 377
4 378 380 381 379
4 380 382 383 381
4 382 384 385 383
4 384 386 387 385
4 386 388 389 387
4 388 390 391 389
4 390 392 393 391
4 392 394 395 393
4 394 396 397 395
4 396 398 399 397
4 398 400 401 399
4 400 402 403 401
4 402 404 405 403
4 404 406 407 405
4 406 408 409 407
4 408 410 411 409
4 410 412 413 411
4 412 414 415 413
4 414 416 417 415
4 416 418 419 417
4 418 420 421 419
4 420 422 423 421
4 422 424 425 423
4 424 426 427 425
4 426 428 429 427
4 428 430 431 429
4 430 432 433 431
4 432 434 435 433
4 434 436 437 435
4 436 438 439 437
4 438 440 441 439
4 440 442 443 441
4 442 444 445 443
4 444 446 447 445
4 446 448 449 447
4 448 450 451 449
4 450 452 453 451
4 452 454 455 453
4 454 456 457 455
4 456 458 459 457
4 458 460 461 459
4 460 462 463 461
4 462 464 465 463
4 464 466 467 465
4 466 468 469 467
4 468 470 471 469
4 470 472 473 471
4 472 474 475 473
4 474 476 477 475
4 476 478 479 477
4 478 480 481 479
4 480 482 483 481
4 482 484 485 483
4 484 486 487 485
4 486 488 489 487
4 488 490 491 489
4 490 492 493 491
4 492 494 495 493
4 494 496 497 495
4 496 498 499 497
4 498 500 501 499
POINT_DATA 502
FIELD attributes 1
U 3 502 float
1.62268 0.096295 -0.0173113
0.812894 0.0478171 -0.00853104
0.812894 0.0478171 -0.00853104
1.62268 0.096295 -0.0173113
0.0247038 0.000659658 0
0.0247038 0.000659658 0
0.0222445 0.000563411 0
0.0222445 0.000563411 0
0.0200546 0.000494123 0
0.0200546 0.000494123 0
0.01793 0.000441833 0
0.01793 0.000441833 0
0.0159704 0.000395995 0
0.0159704 0.000395995 0
0.0142021 0.000344937 0
0.0142021 0.000344937 0
0.0126424 0.00027481 0
0.0126424 0.00027481 0
0.0113342 0.000192625 0
0.0113342 0.000192625 0
0.0102904 0.000117195 0
0.0102904 0.000117195 0
0.00950259 6.1534e-05 0
0.00950259 6.1534e-05 0
0.00891729 2.58514e-05 0
0.00891729 2.58514e-05 0
0.00851675 5.71014e-06 0
0.00851675 5.71014e-06 0
0.00820608 -5.77773e-06 0
0.00820608 -5.77773e-06 0
0.00803423 -1.37634e-05 0
0.00803423 -1.37634e-05 0
0.00784666 -1.00313e-05 0
0.00784666 -1.00313e-05 0
0.00778127 3.96191e-06 0
0.00778127 3.96191e-06 0
0.00345679 0.00032592 0
0.00345679 0.00032592 0
-3.36125e-05 6.80415e-05 -1.61118e-23
-3.36125e-05 6.80415e-05 -1.61118e-23
-6.48684e-05 0.000333307 4.35809e-23
-6.48684e-05 0.000333307 4.35809e-23
-9.44592e-05 0.000866358 5.16772e-23
-9.44592e-05 0.000866358 5.16772e-23
-8.98725e-05 0.00138001 -1.03448e-22
-8.98725e-05 0.00138001 -1.03448e-22
-8.4747e-05 0.00186153 -3.44701e-23
-8.4747e-05 0.00186153 -3.44701e-23
-8.02027e-05 0.00232603 6.90181e-23
-8.02027e-05 0.00232603 6.90181e-23
-7.47085e-05 0.00277396 0
-7.47085e-05 0.00277396 0
-6.71233e-05 0.0031985 1.39416e-22
-6.71233e-05 0.0031985 1.39416e-22
-5.64321e-05 0.00359067 1.88543e-26
-5.64321e-05 0.00359067 1.88543e-26
-4.14115e-05 0.00393485 -1.39397e-22
-4.14115e-05 0.00393485 -1.39397e-22
-2.12619e-05 0.00421108 1.40558e-22
-2.12619e-05 0.00421108 1.40558e-22
4.90973e-06 0.00439658 3.72249e-27
4.90973e-06 0.00439658 3.72249e-27
3.89235e-05 0.00446488 -1.40554e-22
3.89235e-05 0.00446488 -1.40554e-22
8.43454e-05 0.0043779 -1.41119e-22
8.43454e-05 0.0043779 -1.41119e-22
0.0001442 0.00409317 7.32053e-27
0.0001442 0.00409317 7.32053e-27
0.000220068 0.00355209 1.43628e-22
0.000220068 0.00355209 1.43628e-22
0.000315031 0.00264059 0
0.000315031 0.00264059 0
0.00040009 0.00143037 0
0.00040009 0.00143037 0
0.000334814 2.58449e-05 0
0.000334814 2.58449e-05 0
5.09704e-05 -0.00111652 0
5.09704e-05 -0.00111652 0
-7.40025e-05 -0.0016765 0
-7.40025e-05 -0.0016765 0
0.000160841 -0.00210322 0
0.000160841 -0.00210322 0
0.00027201 -0.00256717 0
0.00027201 -0.00256717 0
-6.48228e-05 -0.00255216 0
-6.48228e-05 -0.00255216 0
-0.000519398 -0.00192268 0
-0.000519398 -0.00192268 0
-0.000703423 -0.000880341 0
-0.000703423 -0.000880341 0
-0.000469221 0.000161203 0
-0.000469221 0.000161203 0
-8.00394e-05 7.47979e-05 -6.80619e-26
-8.00394e-05 7.47979e-05 -6.80619e-26
-0.000175299 8.30201e-05 8.0084e-24
-0.000175299 8.30201e-05 8.0084e-24
-0.000273846 8.65828e-05 0
-0.000273846 8.65828e-05 0
-0.000375178 9.12631e-05 0
-0.000375178 9.12631e-05 0
-0.00048034 9.67287e-05 -7.77621e-24
-0.00048034 9.67287e-05 -7.77621e-24
-0.000589621 0.000102654 -7.79018e-24
-0.000589621 0.000102654 -7.79018e-24
-0.000703194 0.000108666 0
-0.000703194 0.000108666 0
-0.000821012 0.000114421 0
-0.000821012 0.000114421 0
-0.00094283 0.000119637 0
-0.00094283 0.000119637 0
-0.00106827 0.000124098 7.51721e-24
-0.00106827 0.000124098 7.51721e-24
-0.00119683 0.000127659 7.53154e-24
-0.00119683 0.000127659 7.53154e-24
-0.00132792 0.000130234 0
-0.00132792 0.000130234 0
-0.00146091 0.000131781 0
-0.00146091 0.000131781 0
-0.00159502 0.000132286 0
-0.00159502 0.000132286 0
-0.00172928 0.000131716 7.26936e-24
-0.00172928 0.000131716 7.26936e-24
-0.00186259 0.00013 7.28404e-24
-0.00186259 0.00013 7.28404e-24
-0.0019938 0.000127055 0
-0.0019938 0.000127055 0
-0.00212164 0.00012281 0
-0.00212164 0.00012281 0
-0.00224476 0.000117207 0
-0.00224476 0.000117207 0
-0.00236169 0.00011021 0
-0.00236169 0.00011021 0
-0.00247092 0.000101805 0
-0.00247092 0.000101805 0
-0.00257086 9.2014e-05 0
-0.00257086 9.2014e-05 0
-0.00265992 8.09006e-05 6.85782e-24
-0.00265992 8.09006e-05 6.85782e-24
-0.00273653 6.85731e-05 7.24442e-26
-0.00273653 6.85731e-05 7.24442e-26
-0.00279919 5.51813e-05 -7.45824e-26
-0.00279919 5.51813e-05 -7.45824e-26
-0.00284653 4.09328e-05 1.34359e-23
-0.00284653 4.09328e-05 1.34359e-23
-0.00287731 2.60911e-05 6.69475e-24
-0.00287731 2.60911e-05 6.69475e-24
-0.00289038 1.09564e-05 0
-0.00289038 1.09564e-05 0
-0.00288523 -4.15363e-06 -6.47962e-24
-0.00288523 -4.15363e-06 -6.47962e-24
-0.00286177 -1.90412e-05 -1.29029e-23
-0.00286177 -1.90412e-05 -1.29029e-23
-0.00281982 -3.35908e-05 -6.42327e-24
-0.00281982 -3.35908e-05 -6.42327e-24
-0.00275958 -4.76372e-05 0
-0.00275958 -4.76372e-05 0
-0.0026815 -6.10011e-05 -6.18053e-24
-0.0026815 -6.10011e-05 -6.18053e-24
-0.00258629 -7.35054e-05 -6.19575e-24
-0.00258629 -7.35054e-05 -6.19575e-24
-0.00247489 -8.4981e-05 0
-0.00247489 -8.4981e-05 0
-0.00234847 -9.5289e-05 5.94087e-24
-0.00234847 -9.5289e-05 5.94087e-24
-0.00220837 -0.000104332 5.95597e-24
-0.00220837 -0.000104332 5.95597e-24
-0.00205607 -0.000112039 5.77954e-24
-0.00205607 -0.000112039 5.77954e-24
-0.00189312 -0.000118385 1.71937e-23
-0.00189312 -0.000118385 1.71937e-23
-0.00172113 -0.000123381 1.14291e-23
-0.00172113 -0.000123381 1.14291e-23
-0.00154174 -0.000127064 0
-0.00154174 -0.000127064 0
-0.00135658 -0.00012949 0
-0.00135658 -0.00012949 0
-0.00116712 -0.000130725 0
-0.00116712 -0.000130725 0
-0.000974806 -0.000130886 0
-0.000974806 -0.000130886 0
-0.000781038 -0.000130037 1.0497e-23
-0.000781038 -0.000130037 1.0497e-23
-0.000587163 -0.000128334 2.08859e-23
-0.000587163 -0.000128334 2.08859e-23
-0.0003942 -0.000125888 2.0615e-23
-0.0003942 -0.000125888 2.0615e-23
-0.000203137 -0.000122798 1.02553e-23
-0.000203137 -0.000122798 1.02553e-23
-1.53205e-05 -0.000119274 -9.96979e-24
-1.53205e-05 -0.000119274 -9.96979e-24
0.000168652 -0.0001153 -9.99867e-24
0.000168652 -0.0001153 -9.99867e-24
0.0003486 -0.000110926 9.72297e-24
0.0003486 -0.000110926 9.72297e-24
0.000523885 -0.000106308 1.9357e-23
0.000523885 -0.000106308 1.9357e-23
0.000693957 -0.000101519 9.634e-24
0.000693957 -0.000101519 9.634e-24
0.000858476 -9.66252e-05 0
0.000858476 -9.66252e-05 0
0.00101719 -9.16838e-05 0
0.00101719 -9.16838e-05 0
0.00116993 -8.67454e-05 9.16917e-24
0.00116993 -8.67454e-05 9.16917e-24
0.00131657 -8.18524e-05 9.19757e-24
0.00131657 -8.18524e-05 9.19757e-24
0.00145708 -7.70406e-05 0
0.00145708 -7.70406e-05 0
0.00159146 -7.23393e-05 0
0.00159146 -7.23393e-05 0
0.00171974 -6.77721e-05 0
0.00171974 -6.77721e-05 0
0.001842 -6.33574e-05 0
0.001842 -6.33574e-05 0
0.00195835 -5.91095e-05 0
0.00195835 -5.91095e-05 0
0.00206892 -5.50387e-05 0
0.00206892 -5.50387e-05 0
0.00217386 -5.11519e-05 0
0.00217386 -5.11519e-05 0
0.00227333 -4.74536e-05 -8.33307e-24
0.00227333 -4.74536e-05 -8.33307e-24
0.00236752 -4.39455e-05 -8.36107e-24
0.00236752 -4.39455e-05 -8.36107e-24
0.0024566 -4.06276e-05 0
0.0024566 -4.06276e-05 0
0.00254077 -3.74982e-05 8.08337e-24
0.00254077 -3.74982e-05 8.08337e-24
0.00262023 -3.4554e-05 1.61136e-23
0.00262023 -3.4554e-05 1.61136e-23
0.00269518 -3.17907e-05 8.0302e-24
0.00269518 -3.17907e-05 8.0302e-24
0.0027658 -2.92032e-05 -7.84318e-24
0.0027658 -2.92032e-05 -7.84318e-24
0.00283231 -2.67853e-05 -1.06046e-25
0.00283231 -2.67853e-05 -1.06046e-25
0.00289489 -2.45304e-05 7.7926e-24
0.00289489 -2.45304e-05 7.7926e-24
0.00295375 -2.24314e-05 -7.61062e-24
0.00295375 -2.24314e-05 -7.61062e-24
0.00300906 -2.04808e-05 -7.63823e-24
0.00300906 -2.04808e-05 -7.63823e-24
0.00306101 -1.8671e-05 0
0.00306101 -1.8671e-05 0
0.00310979 -1.69944e-05 7.38435e-24
0.00310979 -1.69944e-05 7.38435e-24
0.00315556 -1.54437e-05 7.4118e-24
0.00315556 -1.54437e-05 7.4118e-24
0.0031985 -1.40118e-05 -7.23652e-24
0.0031985 -1.40118e-05 -7.23652e-24
0.00323877 -1.26916e-05 -7.26386e-24
0.00323877 -1.26916e-05 -7.26386e-24
0.00327652 -1.14763e-05 7.09085e-24
0.00327652 -1.14763e-05 7.09085e-24
0.0033119 -1.0359e-05 1.41368e-23
0.0033119 -1.0359e-05 1.41368e-23
0.00334506 -9.33342e-06 1.39931e-23
0.00334506 -9.33342e-06 1.39931e-23
0.00337613 -8.3931e-06 2.07264e-23
0.00337613 -8.3931e-06 2.07264e-23
0.00340524 -7.532e-06 1.95359e-25
0.00340524 -7.532e-06 1.95359e-25
0.00343252 -6.74434e-06 -1.36647e-23
0.00343252 -6.74434e-06 -1.36647e-23
0.00345807 -6.02464e-06 0
0.00345807 -6.02464e-06 0
0.00348202 -5.36762e-06 0
0.00348202 -5.36762e-06 0
0.00350447 -4.76834e-06 -1.30542e-23
0.00350447 -4.76834e-06 -1.30542e-23
0.00352551 -4.22229e-06 -2.60246e-23
0.00352551 -4.22229e-06 -2.60246e-23
0.00354525 -3.72495e-06 -1.8934e-25
0.00354525 -3.72495e-06 -1.8934e-25
0.00356376 -3.27223e-06 1.28338e-23
0.00356376 -3.27223e-06 1.28338e-23
0.00358112 -2.86065e-06 -1.25107e-23
0.00358112 -2.86065e-06 -1.25107e-23
0.00359743 -2.48633e-06 -2.49401e-23
0.00359743 -2.48633e-06 -2.49401e-23
0.00361274 -2.14577e-06 -2.46728e-23
0.00361274 -2.14577e-06 -2.46728e-23
0.00362714 -1.83693e-06 -1.22958e-23
0.00362714 -1.83693e-06 -1.22958e-23
0.00364067 -1.55631e-06 0
0.00364067 -1.55631e-06 0
0.0036534 -1.30046e-06 0
0.0036534 -1.30046e-06 0
0.00366539 -1.06922e-06 -1.17187e-23
0.00366539 -1.06922e-06 -1.17187e-23
0.00367669 -8.58919e-07 -1.177e-23
0.00367669 -8.58919e-07 -1.177e-23
0.00368735 -6.65699e-07 0
0.00368735 -6.65699e-07 0
0.0036974 -4.91898e-07 1.13326e-23
0.0036974 -4.91898e-07 1.13326e-23
0.00370691 -3.30979e-07 1.13832e-23
0.00370691 -3.30979e-07 1.13832e-23
0.00371588 -1.78747e-07 0
0.00371588 -1.78747e-07 0
0.00372438 -3.98176e-08 1.0953e-23
0.00372438 -3.98176e-08 1.0953e-23
0.00373243 1.01053e-07 1.10029e-23
0.00373243 1.01053e-07 1.10029e-23
0.00374002 2.58278e-07 0
0.00374002 2.58278e-07 0
0.00374715 4.26123e-07 -1.05797e-23
0.00374715 4.26123e-07 -1.05797e-23
0.00375386 5.96086e-07 -2.10854e-23
0.00375386 5.96086e-07 -2.10854e-23
0.00376015 7.57199e-07 -1.05055e-23
0.00376015 7.57199e-07 -1.05055e-23
0.00376607 9.02235e-07 1.02126e-23
0.00376607 9.02235e-07 1.02126e-23
0.00377164 1.03489e-06 1.02608e-23
0.00377164 1.03489e-06 1.02608e-23
0.00377688 1.15632e-06 -9.97117e-24
0.00377688 1.15632e-06 -9.97117e-24
0.00378182 1.25967e-06 -1.00189e-23
0.00378182 1.25967e-06 -1.00189e-23
0.00378649 1.33832e-06 -9.73245e-24
0.00378649 1.33832e-06 -9.73245e-24
0.00379093 1.38933e-06 -1.93936e-23
0.00379093 1.38933e-06 -1.93936e-23
0.00379518 1.41448e-06 -9.66089e-24
0.00379518 1.41448e-06 -9.66089e-24
0.00379929 1.41964e-06 0
0.00379929 1.41964e-06 0
0.00380328 1.41212e-06 0
0.00380328 1.41212e-06 0
0.00380717 1.39819e-06 0
0.00380717 1.39819e-06 0
0.00381097 1.38198e-06 0
0.00381097 1.38198e-06 0
0.00381469 1.3656e-06 0
0.00381469 1.3656e-06 0
0.00381834 1.34981e-06 0
0.00381834 1.34981e-06 0
0.00382193 1.3348e-06 -8.68972e-24
0.00382193 1.3348e-06 -8.68972e-24
0.00382545 1.32058e-06 -1.57045e-25
0.00382545 1.32058e-06 -1.57045e-25
0.00382891 1.30719e-06 8.62084e-24
0.00382891 1.30719e-06 8.62084e-24
0.00383233 1.29469e-06 0
0.00383233 1.29469e-06 0
0.0038357 1.28312e-06 0
0.0038357 1.28312e-06 0
0.00383903 1.2725e-06 0
0.00383903 1.2725e-06 0
0.00384233 1.26283e-06 1.60433e-23
0.00384233 1.26283e-06 1.60433e-23
0.0038456 1.25408e-06 1.61276e-23
0.0038456 1.25408e-06 1.61276e-23
0.00384884 1.24621e-06 -1.5607e-23
0.00384884 1.24621e-06 -1.5607e-23
0.00385205 1.23918e-06 -2.99313e-25
0.00385205 1.23918e-06 -2.99313e-25
0.00385525 1.23298e-06 1.54726e-23
0.00385525 1.23298e-06 1.54726e-23
0.00385844 1.22754e-06 0
0.00385844 1.22754e-06 0
0.00386161 1.22283e-06 0
0.00386161 1.22283e-06 0
0.00386477 1.21878e-06 -1.45351e-23
0.00386477 1.21878e-06 -1.45351e-23
0.00386792 1.21536e-06 -2.89379e-23
0.00386792 1.21536e-06 -2.89379e-23
0.00387107 1.21254e-06 -1.4402e-23
0.00387107 1.21254e-06 -1.4402e-23
0.00387422 1.21029e-06 -1.39043e-23
0.00387422 1.21029e-06 -1.39043e-23
0.00387737 1.20863e-06 -2.76769e-23
0.00387737 1.20863e-06 -2.76769e-23
0.00388051 1.20755e-06 -2.83125e-25
0.00388051 1.20755e-06 -2.83125e-25
0.00388366 1.20706e-06 1.35636e-23
0.00388366 1.20706e-06 1.35636e-23
0.00388681 1.20714e-06 0
0.00388681 1.20714e-06 0
0.00388997 1.20779e-06 1.28723e-23
0.00388997 1.20779e-06 1.28723e-23
0.00389314 1.20902e-06 1.29448e-23
0.00389314 1.20902e-06 1.29448e-23
0.0038963 1.21088e-06 0
0.0038963 1.21088e-06 0
0.00389948 1.21344e-06 0
0.00389948 1.21344e-06 0
0.00390266 1.21678e-06 0
0.00390266 1.21678e-06 0
0.00390585 1.221e-06 -1.18627e-23
0.00390585 1.221e-06 -1.18627e-23
0.00390904 1.22623e-06 -2.35941e-23
0.00390904 1.22623e-06 -2.35941e-23
0.00391223 1.23266e-06 -1.17306e-23
0.00391223 1.23266e-06 -1.17306e-23
0.00391542 1.24053e-06 -1.12667e-23
0.00391542 1.24053e-06 -1.12667e-23
0.00391861 1.2501e-06 -1.13323e-23
0.00391861 1.2501e-06 -1.13323e-23
0.00392178 1.26176e-06 0
0.00392178 1.26176e-06 0
0.00392495 1.27593e-06 -1.06775e-23
0.00392495 1.27593e-06 -1.06775e-23
0.00392808 1.29327e-06 -1.07404e-23
0.00392808 1.29327e-06 -1.07404e-23
0.00393119 1.31445e-06 -1.02883e-23
0.00393119 1.31445e-06 -1.02883e-23
0.00393424 1.34066e-06 -1.03493e-23
0.00393424 1.34066e-06 -1.03493e-23
0.00393723 1.37276e-06 0
0.00393723 1.37276e-06 0
0.00394013 1.4132e-06 -9.70921e-24
0.00394013 1.4132e-06 -9.70921e-24
0.0039429 1.46265e-06 -9.76741e-24
0.0039429 1.46265e-06 -9.76741e-24
0.00394552 1.52626e-06 -9.32611e-24
0.00394552 1.52626e-06 -9.32611e-24