/*--------------------------------*- C++ -*----------------------------------*\
  =========                 |
  \\      /  F ield         | OpenFOAM: The Open Source CFD Toolbox
   \\    /   O peration     | Website:  https://openfoam.org
    \\  /    A nd           | Version:  7
     \\/     M anipulation  |
\*---------------------------------------------------------------------------*/
FoamFile
{
    version     2.0;
    format      ascii;
    class       surfaceScalarField;
    location    "30";
    object      phi;
}
// * * * * * * * * * * * * * * * * * * * * * * * * * * * * * * * * * * * * * //

dimensions      [0 3 -1 0 0 0 0];

internalField   nonuniform List<scalar> 
1300
(
3.75095
5.62643
-2.53422
3.75095
-2.63698
5.62643
-2.03333
2.03333
-0.43552
0.43552
1.90721
1.84374
-1.229
1.229
-1.45585
1.45585
-0.951379
0.951379
-3.87943
3.87943
-3.16254
3.16254
2.05836
-2.05836
-1.85356
1.85356
-0.51437
0.51437
-1.58819
1.58819
1.94975
-1.94975
-1.75829
1.75829
-0.743209
0.743209
-1.50146
5.25241
2.2495
2.2495
-0.807607
0.807607
-3.57278
3.57278
4.63401
-4.63401
5.19323
-5.19323
-2.65901
-3.34023
1.01241
-7.47665
-1.62458
-1.62458
-8.391
8.391
-2.76457
2.86186
1.12941
-1.12941
-0.376196
0.376196
-1.88423
-0.149097
-1.88423
2.09696
-0.063634
2.09696
-0.473015
0.0374947
-0.473015
1.56945
-1.56945
0.416786
0.0187343
0.416786
1.25412
-1.25412
-1.90764
3.81486
1.84331
-1.75659
7.009
-1.99436
3.8381
-2.40309
2.40309
-1.23529
0.00629766
-1.23529
1.22266
0.00633998
1.22266
-2.32495
2.32495
-1.33071
-0.125139
-1.33071
1.51559
-0.0597318
1.51559
1.18364
-1.18364
-0.966801
0.0154217
-0.966801
0.907123
0.0442563
0.907123
1.36026
4.26617
-6.98669
9.84855
-4.26617
0.386738
3.48672
0.392707
3.48672
-3.14859
-0.0139521
-3.14859
3.25864
-0.0961011
3.25864
1.83137
0.226994
1.83137
-2.37023
0.311872
-2.37023
-4.44693
-4.85239
-1.94731
0.0937529
-1.94731
-0.515889
0.00151871
-0.515889
0.524733
-0.0103629
0.524733
-1.5736
1.5736
-1.78632
0.198133
-1.78632
1.51739
0.432353
1.51739
1.64934
2.10161
5.40029
-5.40029
3.45055
-1.57864
-0.179649
-1.57864
-1.88926
-3.30396
1.88926
-0.130973
-0.492262
-0.250947
-0.492262
1.77747
0.472024
1.77747
0.872252
0.0348704
-0.872252
0.064645
1.47451
-1.47451
0.490476
0.317131
0.490476
-3.51805
3.51805
3.38047
-0.121824
-3.38047
-0.192315
4.42917
0.20484
4.42917
-4.78439
0.150376
-4.78439
3.85864
-7.19887
-4.31895
1.72555
0.128014
-1.72555
0.100969
1.15849
-0.0290857
1.15849
-1.07831
1.07831
-1.16895
0.0395385
-1.16895
-0.323503
-0.052693
-0.323503
0.44076
-0.0645636
0.44076
-1.79926
-0.0849689
-1.79926
-2.01906
0.232733
2.01906
0.0779026
0.640888
-0.640888
-0.504523
0.0315079
-0.504523
-1.66472
-0.134544
1.66472
-0.0952617
-1.5558
-0.0136581
-1.5558
-1.1964
0.0274578
1.1964
0.0577162
1.45101
0.326465
-1.45101
0.19689
-1.77246
3.87408
-1.97849
3.8218
-2.20476
-0.198336
-2.20476
2.52407
-0.120978
2.52407
1.39914
0.189056
-1.39914
0.163841
1.27607
-0.0534103
1.27607
-2.35769
0.032734
-2.35769
2.18965
0.135307
2.18965
1.29478
-0.0187126
-1.29478
-0.0359352
1.5159
-0.000319026
1.5159
1.18599
-0.00235192
1.18599
-1.14854
-0.0351013
-1.14854
1.04494
-1.04494
1.01672
0.0282147
-1.01672
0.0499239
-14.4245
14.5749
-0.1899
-14.2346
3.29682
3.29682
1.08927
0.742102
1.08927
-2.67594
0.305703
-2.67594
4.31217
-8.63112
4.81612
-9.26305
4.03116
-11.5078
4.24231
-9.0947
2.12072
-2.12072
2.07133
0.0493834
-2.07133
0.124019
-0.504427
-0.0114612
-0.504427
-1.40239
-0.171211
-1.40239
1.81758
-0.243974
1.81758
-1.20248
1.20248
-1.31269
0.11021
1.31269
0.204702
1.5527
-0.0367908
-1.5527
-0.0259446
0.41303
0.00375552
-0.41303
-0.0792315
1.5479
-0.0733873
1.5479
-1.30942
-0.165088
-1.30942
-0.504899
0.000471383
0.504899
-0.0144225
-3.84932
0.331272
-3.84932
-14.1269
-0.107677
-13.7342
-4.89207
-4.89207
3.49894
13.3475
-1.16251
0.0139735
1.16251
-0.00401733
1.14178
0.0607021
-1.14178
0.0634658
-1.06726
0.0223194
1.06726
0.0110555
-0.377098
0.0535955
-0.377098
-0.51268
0.51268
-0.460415
-0.0522649
0.460415
-0.0196553
0.698141
-0.0572527
0.698141
0.519094
0.005639
-0.519094
0.0145709
-1.60097
0.0451726
-1.60097
2.51957
0.00450524
2.51957
-1.26811
-0.0413129
1.26811
-0.0821224
-0.100869
14.6758
-3.19595
0.0473626
3.19595
-14.8806
14.928
-0.543839
0.166741
0.543839
0.545427
3.11628
0.401762
-3.11628
0.440346
2.15722
0.0324294
-2.15722
0.0365007
-1.16048
-0.241907
-1.16048
-1.99945
-0.205303
1.99945
-0.181879
-15.0744
-0.323326
15.3978
-15.1705
4.17264
0.25653
-4.17264
15.1845
-0.595547
-0.0453412
0.595546
-0.0828665
0.885923
-0.187783
0.885923
1.62589
-0.0779927
-1.62589
0.0249239
-2.49109
0.133406
2.49109
0.0284734
-1.00069
-0.159793
1.00069
-0.114767
-4.37055
4.84258
2.63845
-3.28854
-3.91033
-6.59251
1.42485
2.44923
4.8754
-6.36131
-5.1465
-6.26034
8.8387
-8.39835
-9.19067
9.41767
7.71938
-7.73304
-6.0991
6.3038
6.85366
-6.79594
1.90668
1.90818
7.95032
-7.94402
-12.5663
12.3679
7.89734
-8.02248
12.6802
-12.6475
-14.5079
14.5403
-5.34871
5.36413
-6.68404
6.64894
-6.92535
6.84323
-4.22105
-5.042
9.09676
-9.00301
10.6889
-10.8686
-9.25801
9.45614
3.33484
1.50773
3.66131
-2.11291
4.01959
-1.72519
4.36364
4.60054
-8.82159
4.03058
-7.9409
4.93362
5.7553
-4.80264
-1.78987
-5.91975
5.89066
-5.68568
5.69674
9.17831
-9.32741
-2.0902
3.99838
-1.7316
4.18082
-3.77022
-2.32888
3.33787
1.53753
4.88476
4.212
-5.01278
-1.24756
-8.13482
8.05683
-8.44264
8.27755
0.0606877
7.35761
-7.4183
3.63347
-2.51956
9.87717
6.31914
6.62485
7.40217
-7.00041
0.996181
-8.41448
-8.6068
-1.86253
1.89404
1.83839
-1.81965
5.54934
2.17005
5.45407
-5.43645
-2.29659
-5.39128
3.72745
2.57635
3.83766
3.95495
2.8987
3.98241
3.50823
-3.50074
-0.00748991
-3.88711
7.39535
0.497642
-6.21599
-4.67846
4.48436
3.46596
4.4907
-4.99965
-2.94437
-4.83581
-6.76459
-5.80166
-6.96989
7.50432
4.8636
7.38334
-9.01988
9.04835
4.77859
3.11875
4.71886
-4.58067
-3.44181
-4.61661
14.7535
-3.38609
-11.3674
-7.62909
-6.87879
7.49378
5.18645
8.13149
6.40882
8.16799
4.73072
10.0228
-9.91717
3.03838
-3.2813
-2.06742
-3.23137
3.07855
2.28558
3.12281
-3.85815
-2.82589
-3.84418
-3.92408
-3.00127
3.92643
2.72251
-4.09811
-4.34453
4.13942
2.70381
4.32476
-9.47125
4.76994
-9.81195
-6.13427
-2.86874
-6.01025
5.9146
3.32775
-9.24235
-2.907
12.6378
-6.88247
10.8479
-5.7591
-5.10947
-5.78504
-6.94444
-2.31356
-6.71171
-5.17853
4.93662
-5.59596
5.35198
15.4349
-8.41684
-7.01809
-4.05604
-2.7399
3.85915
-0.197842
-4.35008
4.3426
-0.330499
4.03314
5.54087
5.34303
-3.55107
-2.13461
-3.48761
3.3721
2.32464
3.39442
6.83851
2.3398
6.77488
-6.05856
-3.26885
-6.14353
4.78555
-4.83824
1.94812
-1.94765
5.09034
3.18721
-5.01696
-3.11787
7.73453
-3.60107
-4.13345
-13.9816
11.3066
2.67508
-4.10448
-0.471007
0.272201
-5.72773
-3.46294
5.41586
1.20899
12.5156
9.05261
-7.13888
7.47015
8.25888
8.13706
-0.469741
3.21241
-3.04567
5.71217
-3.15114
-2.56104
4.73159
-4.86613
-1.41194
-6.42283
5.01089
0.587941
1.19303
-1.44397
-1.37032
-0.492209
-1.35575
1.14029
0.698098
1.14404
0.703773
1.19026
-2.79441
0.591895
2.20251
-2.09063
-1.22776
-4.38298
-1.95336
6.33634
5.44629
2.61054
-5.47122
0.0799357
1.82461
-1.83497
-0.482236
-3.90074
2.86363
-3.34586
-5.09271
-2.14848
7.24119
-3.12315
-0.364452
3.06245
0.775206
-3.55078
-2.36897
3.51124
0.471173
-4.04729
8.09387
-4.04658
-6.1819
2.8767
4.51865
5.45305
-6.06686
3.1652
2.90166
-1.5482
3.76576
0.72494
3.71235
-9.57895
6.63458
5.62458
3.83156
-5.81364
0.977831
-8.60112
13.1156
-11.3326
-1.78301
6.74689
6.36874
7.81014
7.62479
-5.10159
12.9117
-1.47955
-9.85306
10.0807
-6.24912
7.51382
-13.7629
-15.1386
5.28555
-10.1383
12.1268
-1.9885
-2.9145
-6.10538
13.0528
-1.28247
-11.7703
6.10087
-7.36288
-6.03856
13.4014
-10.749
9.48036
-3.27038
-6.20998
-7.4334
-5.2141
7.29999
1.74836
-13.6732
16.7116
-3.65043
4.0567
0.66216
4.05638
5.70044
-8.4068
2.70637
5.04854
-8.31892
3.66017
-12.067
-6.66935
12.991
-6.32166
-9.53809
-8.72304
-0.815048
2.51294
14.1987
-8.92175
6.51592
2.40584
2.78663
0.607785
-2.81485
-0.416525
0.343263
5.41419
-5.75745
3.46607
3.50094
3.97467
1.43951
3.53161
2.35905
-3.52759
-0.316586
-4.93032
1.92905
-2.20781
-4.8774
6.80646
-5.47571
0.598305
-3.43769
-4.73833
8.17602
-5.5051
3.85832
4.23555
6.18296
-6.61949
1.88116
-3.3058
-3.3137
3.59455
-5.80235
2.50089
4.30557
5.20469
0.860162
6.93805
6.05296
-10.2658
0.453853
10.265
-9.0174
2.25363
5.91436
-8.76955
0.0465006
-5.96375
1.25047
-8.13293
-7.99188
7.15757
-9.47113
-6.60537
6.13246
0.64242
-6.21036
-0.50135
-3.12159
-2.05694
-3.28138
-2.09287
-3.50309
-7.19446
-1.26232
-5.93213
3.6743
-4.16952
-2.80038
4.3514
1.00059
-3.32264
3.27729
-3.6693
3.48151
-0.0753363
4.41793
5.26769
2.52779
-2.86973
5.39752
-6.5808
8.9206
-10.9656
4.3848
4.8602
-8.12904
-6.10541
2.22647
2.55907
2.16191
9.49699
-12.365
2.86804
-10.4117
11.7443
-1.33263
-15.0956
4.68392
-5.59858
1.7789
0.169219
1.76744
0.497497
2.29424
-2.79174
-1.45015
-1.46458
-3.04831
-4.625
7.67331
1.60917
-4.39159
2.78242
-4.10061
5.70977
0.0661929
-4.45778
5.74127
-3.44703
5.91049
-4.03441
1.87607
4.2875
7.50609
-3.21859
5.41077
-2.22356
2.3321
-5.55069
-2.2929
-3.81113
6.09671
-4.36489
4.96319
-0.339262
5.30245
-4.63114
1.03007
-0.65647
2.84447
2.90911
5.64356
-4.20404
4.04058
-6.26414
-1.5101
-5.40398
-1.09841
-2.42675
-6.02757
8.45432
7.48789
-9.91463
-5.13261
9.23216
-4.09955
6.70484
-5.13281
-1.57203
-1.91688
-2.92136
1.86329
1.34912
8.05396
-0.222356
-4.91045
-3.26803
-2.7226
3.6599
2.05227
-2.18966
4.86474
1.91746
-0.724435
0.195686
0.948358
1.66034
-1.46466
0.574847
1.0855
-0.869127
1.32755
0.49706
-1.33319
-0.022563
-1.03065
3.89428
1.17186
-1.86996
0.405302
1.09973
-4.25087
6.21002
-3.3963
-2.81372
7.30976
1.27138
-4.66768
5.15145
-4.56351
2.74427
-4.69763
-1.92341
-6.48692
-4.31687
-3.5944
6.37682
-4.0789
6.68944
1.28411
-6.76938
8.05348
-4.31034
2.16186
-3.2095
3.70656
-1.39944
-1.81007
3.76317
3.47803
-3.68032
-0.220423
0.0828504
2.85624
-2.77339
-0.489627
-2.58026
-5.49359
5.96476
-2.80263
5.96783
2.59489
-2.58356
8.55139
2.22515
-4.80871
-3.95675
-4.3212
-1.90705
3.546
-0.931052
-3.68555
-7.14103
3.70427
0.00808811
-9.43337
11.0668
-1.63338
-5.96741
-0.667166
7.41406
-9.3126
0.993677
-5.65242
5.41433
6.13927
6.14736
-11.779
0.0086837
-6.91543
1.89739
-8.81282
8.26612
-4.14486
9.4304
-9.76747
6.96709
-8.76688
7.64739
-1.16542
7.89506
-5.18869
3.47238
-8.68649
-6.93812
7.52276
-4.40401
8.18492
-5.347
13.5319
-8.99743
7.60174
5.93018
-1.50031
-4.28474
-7.33659
5.83629
0.265153
4.32153
5.94688
-3.58782
5.63029
2.99795
-6.30375
-2.8044
-8.74833
2.44458
-4.51278
-2.46631
4.91089
3.71665
4.32443
1.59719
-3.90791
9.65108
-10.4661
-3.32942
-4.66246
7.72352
-1.88724
5.51887
-10.1813
-2.61406
7.84035
-1.05715
-6.7832
0.576496
-7.18187
2.92251
-10.1044
6.54863
-7.04998
1.14925
-6.74783
-2.17338
-2.25625
-1.50812
-2.16117
-5.74279
4.23466
-1.05887
2.21843
-8.56473
7.50759
-3.17955
7.41421
-2.55904
-0.722344
2.6738
0.807709
8.22192
-0.260123
-5.84529
-2.00622
6.04007
-4.03385
1.65368
-6.28769
-0.247624
3.01387
4.29589
-8.02476
-0.104286
-5.94957
-3.30638
5.86546
5.92578
13.4137
1.04864
6.38326
-0.517802
7.4319
1.64411
1.62445
-5.32111
8.18915
3.13321
7.51801
-0.628983
2.50506
1.13846
1.13998
0.694991
1.92281
0.986303
2.95288
0.161144
-1.30343
4.8046
-7.5272
-0.105854
-6.7851
2.63257
6.717
-4.08443
4.68784
-2.63557
0.653994
-0.135403
-1.23594
1.37135
-2.69644
-1.96038
-0.874882
-1.94565
2.35095
1.94863
-1.47607
-1.22037
0.720427
-5.0373
3.9772
-4.19763
-0.719602
7.33388
-3.22595
0.452568
-1.0641
-2.12769
-2.6199
2.64246
8.20422
0.347165
4.15764
6.31193
3.94296
0.355134
6.59175
-8.58025
-5.47523
-8.57157
-0.305444
7.10861
3.13474
11.0639
9.06492
7.17768
-3.00365
-13.4698
10.8018
-2.61266
9.46918
-2.68598
-7.41839
6.1565
2.7641
-6.79892
-0.251056
-7.66945
-10.2821
-0.589288
8.09687
-7.63263
6.91029
4.85335
1.07879
-1.69665
-0.559597
1.74892
-0.124465
7.30743
-2.17001
-8.5687
10.7387
-4.547
4.44114
2.44884
2.41591
3.82018
1.18461
-7.38409
-11.4685
-2.70493
-1.54595
-5.51865
0.817686
-2.76632
6.62621
-2.18506
5.05417
8.55364
9.20764
-3.39199
-6.52264
7.49155
-2.43737
6.77027
)
;

boundaryField
{
    wall-4
    {
        type            calculated;
        value           uniform 0;
    }
    velocity-inlet-5
    {
        type            calculated;
        value           uniform -3.75095;
    }
    velocity-inlet-6
    {
        type            calculated;
        value           uniform -5.62643;
    }
    pressure-outlet-7
    {
        type            calculated;
        value           nonuniform List<scalar> 8(2.53422 2.63698 5.99924 6.46424 9.29932 8.17759 9.12829 8.27346);
    }
    wall-8
    {
        type            calculated;
        value           uniform 0;
    }
    frontAndBackPlanes
    {
        type            empty;
        value           nonuniform 0();
    }
}


// ************************************************************************* //
