/*--------------------------------*- C++ -*----------------------------------*\
  =========                 |
  \\      /  F ield         | OpenFOAM: The Open Source CFD Toolbox
   \\    /   O peration     | Website:  https://openfoam.org
    \\  /    A nd           | Version:  7
     \\/     M anipulation  |
\*---------------------------------------------------------------------------*/
FoamFile
{
    version     2.0;
    format      ascii;
    class       volScalarField;
    location    "9";
    object      p;
}
// * * * * * * * * * * * * * * * * * * * * * * * * * * * * * * * * * * * * * //

dimensions      [0 2 -2 0 0 0 0];

internalField   nonuniform List<scalar> 
918
(
4.07196
17.2274
0.210858
3.99654
0.158746
16.3204
1.14388
2.75362
3.53617
0.731884
0.67215
2.91498
12.3304
6.48754
1.63431
0.228067
2.83458
0.616899
3.43376
0.268325
2.21321
3.70098
3.82651
3.5569
2.85673
3.51991
9.04571
0.290434
0.0347421
0.129421
0.139672
0.0889057
0.0426722
13.7089
14.8435
15.2967
3.09995
1.29355
1.27459
1.36326
1.05798
0.955517
2.76074
2.77723
1.83191
2.74486
2.7365
3.22616
3.52025
3.53734
3.58197
3.54648
3.59317
1.45108
0.704773
0.673785
0.756787
0.782573
0.744926
0.705896
0.719733
0.645153
0.609978
2.88024
2.93417
2.94951
2.8992
2.89012
15.4985
14.5649
15.195
13.1422
13.495
11.5241
10.7487
7.01904
7.48978
5.99921
5.43311
1.16913
0.872949
1.98244
2.40541
0.0280827
0.276539
0.317021
2.83754
2.84388
2.83358
2.8295
2.01079
0.675906
0.687647
3.3599
3.30918
3.695
3.74559
3.62723
3.64628
0.321942
0.350257
0.254568
0.235545
0.189409
2.52761
2.63655
3.50862
3.4218
2.87768
2.85671
2.86637
2.56427
2.83233
2.83933
4.65926
5.00034
4.10694
4.57954
8.43411
7.7912
9.80258
10.4904
0.103962
0.0400623
0.177319
0.0875121
0.138412
3.08062
3.05104
3.10603
3.11995
3.14498
1.07682
0.831951
1.42321
1.52326
1.46881
1.54598
0.752127
0.888463
0.804672
1.89348
2.78438
2.79376
1.6371
1.77865
1.70154
1.91199
1.97188
3.15867
3.20367
3.1758
3.34836
3.25605
3.29738
3.61158
3.54344
3.58316
1.54604
1.62502
1.37483
1.2938
0.620632
0.646124
0.632902
0.792486
0.796953
0.806766
0.853113
0.687209
0.651978
0.782396
0.74396
0.768427
0.566869
0.528039
2.85052
2.82345
2.91663
2.94581
3.03128
3.01171
2.96767
2.99256
9.56793
10.0939
10.2339
9.60723
-0.267693
-1.13241
2.75368
3.06651
0.0663215
0.0521854
0.0297405
0.0719992
0.0720984
0.02783
0.490469
0.451957
0.359641
0.417889
2.84427
2.84295
2.05103
2.08983
1.98205
1.93066
3.18525
3.20104
3.26759
3.22521
0.485526
0.393619
0.441986
2.71755
2.67162
2.70274
2.49945
2.43144
2.6269
2.67206
2.84329
2.84471
2.84421
5.02508
5.40184
10.7922
11.2118
11.2815
11.8445
13.4816
13.2256
12.2234
2.97351
3.02681
3.00441
3.16615
3.12462
3.14935
3.04694
3.08923
3.06597
0.620648
0.4489
1.74882
1.70118
1.57648
1.64221
1.92083
1.95554
2.81973
2.80052
2.81227
2.04384
2.10397
1.20892
1.13547
2.70961
2.79143
2.74758
8.92508
8.01379
9.06957
8.50886
7.84016
8.32123
0.139492
-0.628067
-0.179377
4.22613
3.43033
3.8531
0.609115
0.515783
0.550395
2.11295
2.10021
1.71311
1.86498
1.79339
5.77345
6.26593
7.20106
5.98977
6.60997
7.20253
6.90327
1.84713
1.79485
1.82381
2.03993
2.07164
2.34979
2.17646
2.2497
0.914208
1.06458
0.992241
2.10408
2.08007
2.08587
3.46608
3.52964
0.180711
0.261642
3.57751
3.55479
0.0301739
0.0767511
3.43808
1.42318
2.02329
3.28483
3.22749
3.5048
0.78843
1.48297
0.708395
0.824827
0.639842
2.94157
2.91825
2.79767
0.107918
0.299288
0.346635
0.781025
3.43206
3.35534
3.48961
3.52717
3.53197
0.150056
0.190361
0.128633
0.286442
0.226032
0.261772
3.09394
3.09877
1.35488
3.48924
3.5255
3.52807
3.33827
3.45588
3.34516
0.236281
0.156114
0.181482
2.39644
2.63696
3.29724
2.84369
3.24942
3.21072
2.92934
4.16093
3.67859
3.71504
4.1495
2.78277
2.74744
2.07053
1.88852
2.13608
2.11225
3.26914
3.22854
3.20545
3.18207
3.39395
3.3368
3.43926
3.36152
3.41541
3.45428
0.81779
0.809264
0.79513
0.690717
1.51303
1.64839
1.3607
1.36687
1.05268
0.663707
0.655178
0.708957
0.714955
0.769894
0.657629
0.740471
0.671009
0.571408
0.552714
0.743813
0.668174
0.687292
2.94725
2.95319
2.90718
2.90412
2.93913
2.96563
2.82906
2.88632
2.84912
2.67855
2.76056
2.71005
0.14734
0.145108
0.117952
0.319295
0.346773
0.249969
0.193691
0.257743
0.231648
0.192779
0.334745
0.353868
0.911277
0.800312
2.07803
1.94064
1.63879
3.24856
3.33097
3.24498
3.3848
3.43684
3.45091
3.40356
3.3411
3.11088
3.1172
3.06361
3.05768
1.35905
1.16198
1.51278
1.52314
1.49717
2.84447
2.6088
2.47702
2.51795
2.76115
3.30856
2.46251
2.30576
2.29913
1.76199
2.64247
2.02822
2.53494
2.38603
5.01902
5.42192
5.01665
4.51883
4.60179
0.659942
2.6243
1.72567
1.70981
1.94831
1.89107
2.67446
2.78102
2.78734
2.71505
2.72839
2.75429
2.72876
2.74375
2.75306
2.75038
2.53576
2.39639
2.26263
2.26247
2.82685
2.58267
2.64601
2.60448
3.15678
3.21765
3.17745
3.10781
3.16122
3.11189
3.09876
3.12173
3.28569
3.25249
3.22691
3.27428
0.820486
0.808161
0.955144
0.863356
0.823644
0.732978
0.9443
1.23134
1.14085
1.66693
1.75982
1.19772
1.0376
1.04564
1.25084
1.37093
1.37815
1.02384
1.11442
1.21528
1.11433
1.28165
1.18948
0.725266
0.778571
0.770316
0.752574
0.850308
0.969751
0.881117
0.629013
0.673401
0.603438
0.562956
0.896708
0.819513
0.823622
0.935079
0.303424
0.331745
0.367499
0.580238
0.487313
0.525053
3.03924
2.98901
3.01276
2.87558
2.89484
2.88602
2.82838
3.05484
3.01669
3.03691
2.85165
2.87475
2.83571
2.86736
2.92454
2.95314
3.07757
3.04516
2.93542
2.96355
2.91647
2.90477
2.8059
2.75683
2.73356
0.261202
0.189369
0.229638
0.214634
0.152511
0.183306
0.524338
0.406378
0.47884
0.425575
0.47557
0.327061
0.307518
1.14081
1.28744
1.1846
1.02138
0.97616
2.05421
2.05802
1.95369
1.88147
1.91409
1.97997
2.00569
1.74418
1.84872
1.82001
1.89749
2.0418
3.33172
3.32508
3.29017
3.26986
3.29375
1.46236
1.70127
1.78341
1.89569
1.40686
1.56537
1.85849
1.80426
1.96229
1.50329
2.83426
2.84583
2.80017
2.83752
2.84497
2.59054
2.6689
2.73702
2.71139
2.79199
2.7998
2.71731
2.76685
2.75466
2.68937
2.67672
2.64342
2.65807
2.6113
2.59213
2.88196
2.86894
2.90132
2.84
2.87355
2.79909
2.83485
2.86145
2.87385
2.78179
2.71102
2.70571
2.74968
2.74026
2.78166
2.79862
1.74844
1.96723
1.4697
1.18007
1.32029
0.741946
0.685552
1.02338
1.47403
0.849062
0.591556
-0.0237502
2.54475
3.20715
2.77226
2.70728
2.70653
2.72225
2.71209
2.6852
2.68777
2.80247
2.80214
2.81544
2.67579
2.69437
2.70996
2.69595
2.56547
2.3534
2.31925
2.27598
2.04212
2.0809
2.44266
2.32358
2.20706
2.22534
2.60789
2.45953
2.55428
2.57136
2.43834
2.3999
2.67354
2.76734
2.78974
2.75198
2.56333
2.57102
2.61677
2.66225
2.68264
2.73418
3.13731
3.19628
3.20805
3.17755
3.15883
3.16704
3.13666
3.15304
3.20638
3.22118
3.20206
0.76747
0.792443
0.79875
0.780152
0.869477
0.848327
1.03722
1.01107
0.847491
0.887495
0.873453
0.856751
0.805776
0.807487
1.21337
1.28738
1.32723
1.22333
1.49953
1.67883
1.79161
1.71243
1.42707
1.43667
1.51943
0.898677
0.884587
0.8454
0.932206
0.953267
0.659333
0.597646
0.55396
0.656963
0.688355
0.515595
0.434707
0.466502
0.536728
0.531504
0.475388
3.02681
2.9985
2.98604
2.96015
2.9711
3.01949
3.04868
3.01591
3.03387
3.0351
2.98797
2.9711
2.99538
0.428222
0.361415
0.384843
0.415877
0.389438
0.363303
0.383889
1.62104
1.44361
1.5668
1.40055
1.13922
1.21159
1.62314
1.85656
1.81026
2.00072
2.00335
1.9825
1.83612
1.88101
1.76363
1.97922
1.88178
2.06007
1.97623
2.04504
1.98611
1.99401
2.29531
2.39993
1.93551
2.08055
2.21146
1.98626
2.04527
2.08111
2.29697
1.46985
1.60458
1.81941
1.84402
1.58453
1.7921
1.53496
1.61318
1.6752
1.67265
1.7433
2.80768
2.8183
2.82937
2.81077
2.83359
2.84173
2.81581
2.83999
2.85382
2.83196
0.710185
1.09286
0.281781
1.28222
1.63217
2.67803
2.51318
2.9482
2.81355
2.77684
2.74741
2.71794
2.67615
2.72316
2.71829
2.34426
2.50173
2.44828
2.48341
2.35654
2.2667
2.69107
2.70124
2.70914
2.74471
2.74301
2.79417
3.13069
3.11152
3.11589
3.12088
3.06724
3.07001
1.05961
0.989298
1.1551
1.14304
1.04095
0.979115
0.541739
0.500375
0.457766
0.432674
0.462288
0.492498
1.64316
1.67633
1.40665
1.62795
1.37938
1.24905
1.25694
1.34328
1.4583
1.52831
1.83785
2.09627
1.94871
1.99098
1.77538
1.85956
1.78066
1.66476
1.69197
1.88165
1.8318
2.08997
1.29699
1.61689
3.04533
3.01032
2.74649
2.47351
2.21446
2.50649
2.58482
2.47734
2.55017
2.65124
2.62978
1.5467
1.46794
2.21775
2.53942
1.81591
1.7167
1.74384
2.03214
2.03044
)
;

boundaryField
{
    wall-4
    {
        type            zeroGradient;
    }
    velocity-inlet-5
    {
        type            zeroGradient;
    }
    velocity-inlet-6
    {
        type            zeroGradient;
    }
    pressure-outlet-7
    {
        type            fixedValue;
        value           uniform 0;
    }
    wall-8
    {
        type            zeroGradient;
    }
    frontAndBackPlanes
    {
        type            empty;
    }
}


// ************************************************************************* //
