/*--------------------------------*- C++ -*----------------------------------*\
  =========                 |
  \\      /  F ield         | OpenFOAM: The Open Source CFD Toolbox
   \\    /   O peration     | Website:  https://openfoam.org
    \\  /    A nd           | Version:  7
     \\/     M anipulation  |
\*---------------------------------------------------------------------------*/
FoamFile
{
    version     2.0;
    format      ascii;
    class       surfaceScalarField;
    location    "9";
    object      phi;
}
// * * * * * * * * * * * * * * * * * * * * * * * * * * * * * * * * * * * * * //

dimensions      [0 3 -1 0 0 0 0];

internalField   nonuniform List<scalar> 
1300
(
3.75095
5.62643
-3.10094
3.75095
-3.06752
5.62643
-2.20913
2.20913
-0.570867
0.570867
1.90709
1.84387
-1.73745
1.73745
-2.11385
2.11385
-1.17297
1.17297
-3.87942
3.87942
-3.16221
3.16221
2.06716
-2.06716
-2.06513
2.06513
-0.745182
0.745182
-2.22476
2.22476
1.95229
-1.95229
-2.24085
2.24085
-0.757437
0.757437
-1.50045
5.25141
2.2505
2.2505
-1.02884
1.02884
-3.57097
3.57097
4.63406
-4.63406
6.14413
-6.14413
-3.04319
-3.49348
1.15221
-8.00048
-1.91532
-1.91532
-8.391
8.391
-2.76457
2.86186
1.24788
-1.24788
-0.349316
0.349316
-2.03534
-0.173796
-2.03534
2.39244
-0.183312
2.39244
-0.634578
0.0637111
-0.634578
1.68311
-1.68311
0.528818
0.0420486
0.528818
1.27713
-1.27713
-1.90762
3.81471
1.84333
-1.75638
7.00779
-1.99457
3.83844
-2.19553
2.19553
-1.75258
0.0151364
-1.75258
1.81928
-0.0818335
1.81928
-2.26516
2.26516
-2.03472
-0.0791292
-2.03472
2.18526
-0.0714086
2.18526
1.32461
-1.32461
-1.18721
0.0142456
-1.18721
1.13714
0.0358265
1.13714
1.36027
4.26616
-6.9867
9.84855
-4.26616
0.38674
3.48671
0.392713
3.48671
-3.14847
-0.0137399
-3.14847
3.25795
-0.0957449
3.25795
1.84038
0.226787
1.84038
-2.37828
0.311113
-2.37828
-4.24983
-4.21455
-2.10105
0.035918
-2.10105
-0.737902
-0.00728012
-0.737902
0.754115
-0.00893282
0.754115
-1.44234
1.44234
-2.40028
0.175522
-2.40028
1.52757
0.424727
1.52757
1.64977
2.10118
5.40072
-5.40073
3.44843
-2.17346
-0.0673837
-2.17346
-2.33422
-3.80992
2.33422
-0.093369
-0.541596
-0.215841
-0.541596
1.77993
0.470565
1.77993
1.1025
0.0346384
-1.1025
0.0736597
1.58194
-1.58194
0.644288
0.384555
0.644288
-3.5196
3.5196
3.37934
-0.121389
-3.37934
-0.191629
4.4293
0.204761
4.4293
-4.78441
0.150346
-4.78441
4.09837
-7.59185
-4.02731
1.99111
0.0740255
-1.99111
0.0757901
1.28645
-0.0385701
1.28645
-1.218
1.218
-1.25446
0.00658264
-1.25446
-0.306584
-0.0427313
-0.306584
0.404121
-0.0548057
0.404121
-1.92652
-0.108812
-1.92652
-2.50341
0.103126
2.50341
-0.110964
0.450536
-0.450536
-0.685796
0.0512178
-0.685796
-1.78564
-0.140885
1.78564
-0.102527
-1.65882
-0.0242904
-1.65882
-1.24484
-0.009628
1.24484
0.0322936
1.45837
0.321567
-1.45837
0.181237
-1.77295
3.87413
-1.97801
3.82134
-2.05042
-0.145109
-2.05042
2.30094
-0.10541
2.30094
1.98722
0.237536
-1.98722
0.234643
1.93435
-0.115068
1.93435
-2.25779
-0.00736241
-2.25779
2.19632
0.0688322
2.19632
2.00536
-0.0710137
-2.00536
-0.0293628
2.20376
-0.0185025
2.20376
1.34037
-0.0157551
1.34037
-1.30135
-0.0232605
-1.30135
1.23485
-1.23485
1.2282
0.00664558
-1.2282
0.0409911
-14.4245
14.5749
-0.189914
-14.2346
3.2968
3.2968
1.08801
0.752369
1.08801
-2.68068
0.302402
-2.68068
4.24073
-8.26804
4.18689
-8.43672
3.80652
-11.807
4.13572
-8.35027
2.19502
-2.19502
2.182
0.013022
-2.182
0.0809448
-0.707093
-0.0308098
-0.707093
-1.26799
-0.174345
-1.26799
1.6766
-0.234265
1.6766
-1.26683
1.26683
-1.34156
0.0747215
1.34156
0.186009
2.20715
-0.00338413
-2.20715
0.0336835
0.499902
0.0289165
-0.499902
-0.0416947
1.63998
-0.0580472
1.63998
-1.45122
-0.130717
-1.45122
-0.675978
-0.0311143
0.675978
-0.0316905
-3.85007
0.330468
-3.85007
-14.1269
-0.107666
-13.7342
-4.89207
-4.89207
3.49893
13.3475
-1.30717
0.00581771
1.30717
-0.0207156
1.24556
0.0212712
-1.24556
0.0275665
-1.2316
-0.003254
1.2316
-0.0135985
-0.36414
0.0575558
-0.36414
-0.436215
0.436215
-0.409111
-0.027104
0.409111
-0.00498961
0.498892
-0.0483555
0.498892
0.731057
0.0230585
-0.731057
0.0452612
-1.68214
0.0233205
-1.68214
2.32245
-0.0215146
2.32245
-1.39877
-0.0524456
1.39877
-0.058409
-0.100903
14.6758
-3.19589
0.0474261
3.19589
-14.8805
14.928
-0.53676
0.17262
0.53676
0.551248
3.11933
0.400277
-3.11933
0.438647
2.19222
0.0041075
-2.19222
-0.00280129
-1.03096
-0.237036
-1.03096
-1.87862
-0.171795
1.87862
-0.202021
-15.0748
-0.322921
15.3977
-15.1705
4.17299
0.256308
-4.17299
15.1843
-0.470926
0.0203896
0.470926
-0.0347113
0.693747
-0.194855
0.693747
1.71045
-0.0704612
-1.71045
0.0283031
-2.32846
0.0706661
2.32846
-0.00600673
-0.841796
-0.189162
0.841796
-0.148049
-4.37174
4.8423
2.63605
-3.76259
-3.82926
-7.57251
1.42724
2.44689
4.87568
-6.6689
-5.13811
-6.59311
8.8398
-8.40115
-9.21785
9.44464
7.69822
-7.72252
-6.13254
6.31855
6.8327
-6.80041
1.90122
1.91348
10.3439
-10.3287
-10.8672
10.7221
10.0671
-10.1462
11.4206
-11.428
-13.3117
13.3158
-5.83379
5.84804
-6.87624
6.85298
-7.07844
7.02003
-4.23385
-4.20287
8.99572
-8.9598
12.3087
-12.3761
-11.4788
11.6543
3.337
1.50531
3.65856
-2.1136
4.01482
-1.72484
4.36089
4.11652
-8.35038
4.15151
-7.98077
5.89152
6.41721
-5.79815
-1.77435
-6.07202
6.03345
-5.96797
5.95437
9.13482
-9.30862
-2.08877
4.00225
-1.73257
4.17946
-3.77129
-2.36125
3.34657
1.52911
5.13957
3.85615
-5.2136
-1.37951
-8.08345
8.01299
-8.43741
8.3067
0.059732
7.35454
-7.41427
3.6307
-2.51214
9.86668
6.32766
6.63006
7.40227
-7.00199
0.998886
-8.41316
-8.60479
-2.32919
2.38041
2.26757
-2.22552
5.67928
2.01895
5.57675
-5.47776
-2.24476
-5.45444
3.79394
2.52462
3.86866
4.03539
2.79731
4.02576
3.51962
-3.48826
-0.0313544
-3.8613
7.38092
0.513987
-6.22255
-4.69344
6.20186
4.14199
6.12003
-6.683
-3.64572
-6.44835
-5.9174
-4.94984
-6.08919
6.58147
4.14065
6.47606
-8.05291
8.0469
6.35466
3.71246
6.28325
-6.10401
-4.04223
-6.13337
13.2471
-3.26135
-9.98571
-6.98369
-6.32805
6.91485
4.50578
7.62724
5.6886
7.62444
4.34865
8.8984
-8.85444
2.52639
-3.64197
-2.19182
-3.60098
3.54329
2.30475
3.57911
-4.05496
-2.82128
-4.04914
-4.14485
-2.93359
4.16061
2.69237
-4.28779
-4.14963
4.34023
2.6798
3.74177
-8.87988
4.6085
-8.81137
-6.01133
-2.94847
-5.93038
5.18164
3.39602
-8.57765
-3.16874
12.9239
-6.50666
11.1495
-7.08389
-5.29223
-7.05021
-8.07352
-3.40523
-7.9704
-4.39606
4.15903
-4.87465
4.64039
13.8163
-7.78571
-6.03057
-4.04887
-2.75155
3.86763
-0.209065
-4.35632
4.32497
-0.341499
4.01939
5.5247
5.31563
-3.70119
-2.26678
-3.67362
3.68453
2.26984
3.68128
7.09915
2.03567
6.91584
-6.17523
-3.13339
-6.28404
4.62223
-4.66496
2.43483
-2.46595
5.19619
3.11051
-5.13814
-2.94531
7.45651
-3.56362
-3.89289
-13.9644
11.331
2.63338
-4.09772
-0.467015
0.290422
-5.73915
-3.4787
5.42804
1.20203
12.533
9.05434
-7.13969
7.47016
8.258
8.13661
-0.468174
3.18829
-3.01567
5.88182
-2.95236
-2.92946
4.8922
-5.03308
-1.39185
-6.17123
4.77939
0.54367
1.37854
-1.59438
-1.75549
-0.573706
-1.71023
1.39302
0.874554
1.42193
0.882961
1.49745
-3.18928
0.664361
2.52492
-2.30632
-1.56116
-4.16588
-1.665
5.83088
5.49717
2.51581
-5.52548
0.0710411
2.34675
-2.35568
-0.594815
-3.57106
2.81941
-3.41423
-4.58801
-2.06587
6.65389
-3.19651
-0.47711
3.17524
0.693415
-3.65503
-2.41699
3.64844
0.377318
-3.87168
7.77434
-3.90266
-6.13846
2.92254
4.45838
5.44716
-6.01451
3.10044
2.91408
-1.55613
5.20747
0.912554
5.0924
-11.0107
7.36494
7.38439
4.26988
-7.62193
1.17357
-9.83709
12.4259
-10.9324
-1.49349
6.40886
6.01706
6.83625
6.98004
-4.03202
10.8683
-1.55515
-9.37728
11.3922
-7.12236
7.34666
-14.469
-14.3267
4.94942
-8.79603
10.7399
-1.94385
-2.64959
-5.40332
11.4456
-1.05123
-10.3944
5.42483
-6.94796
-6.45156
13.3995
-10.2093
10.4938
-3.41753
-7.07626
-6.69783
-4.73017
6.62716
1.41975
-12.5743
15.1007
-3.67593
5.39513
0.888121
5.37663
5.16534
-7.7216
2.55626
5.04397
-8.4615
3.44627
-11.1679
-5.92426
11.8186
-5.89434
-8.87273
-7.88725
-0.985481
2.45745
12.6433
-8.14604
6.18017
1.96587
3.10241
0.57887
-3.10905
-0.491925
0.402511
5.37619
-5.7787
3.98162
4.01626
4.09001
1.28618
3.7169
2.31655
-3.69618
-0.35296
-4.76542
1.83183
-2.07305
-4.42969
6.26151
-5.02857
0.598882
-3.27159
-4.43582
7.70741
-5.46342
3.80715
3.96719
6.077
-6.13621
1.70039
-3.08647
-3.04974
3.32818
-5.40123
2.30245
3.95906
4.98225
0.832626
6.08187
5.73673
-9.47788
0.666516
9.59288
-8.21336
1.92602
5.69842
-8.10619
0.218935
-5.71145
1.43159
-7.93824
-7.14606
7.23996
-10.6452
-7.22905
6.80404
0.111804
-6.69307
-1.27733
-2.58043
-1.81564
-2.76959
-1.85181
-3.02285
-5.88382
-0.961836
-4.92199
3.19719
-3.67849
-2.41071
3.88051
0.75988
-2.67521
2.69559
-2.99094
2.79608
-0.0778756
4.40285
5.23775
2.48621
-2.84671
5.33292
-6.427
8.46267
-10.3563
3.92931
4.55215
-7.68554
-5.80416
2.08906
2.53317
2.03425
8.94448
-12.8489
3.90443
-10.3507
10.7654
-0.414719
-14.453
4.10233
-5.50851
2.26826
0.166571
2.23745
0.670885
2.50323
-3.17411
-1.79506
-1.82675
-2.73997
-4.24529
6.98526
1.53908
-4.04765
2.50857
-4.10892
5.64801
0.107034
-4.15469
6.00231
-3.49909
6.16888
-4.00189
2.16699
3.95742
6.89466
-2.93723
5.11326
-2.00276
2.07733
-5.01457
-2.16796
-3.69618
6.00093
-4.01123
4.61011
-0.222231
4.83234
-4.74646
1.18284
-0.656451
3.35981
3.43347
5.20614
-3.91996
3.70131
-5.70407
-1.31325
-4.87145
-0.912384
-2.97469
-6.33484
9.30953
7.30064
-10.2753
-5.2457
9.23137
-3.98566
6.66481
-5.17381
-1.49101
-1.87255
-2.79241
1.81499
1.3733
8.03812
-0.252402
-4.92141
-3.26807
-2.71683
3.74726
2.13455
-2.2845
4.91787
1.99408
-0.615533
0.321988
1.09994
1.92823
-1.60624
0.536133
1.3921
-1.05825
1.71184
0.634908
-1.7349
0.0246712
-1.23379
4.0532
1.29113
-2.16568
0.559441
1.12381
-4.07616
5.70488
-3.04607
-2.65881
6.82869
1.24016
-4.28623
4.93108
-4.38741
2.57946
-4.24446
-1.70677
-6.09418
-4.07523
-3.27328
5.78185
-3.71199
6.2278
1.19384
-6.29884
7.49268
-4.20262
2.13674
-3.48688
4.12178
-1.44539
-2.04149
3.44345
3.21043
-3.4324
-0.138664
0.0110537
2.84867
-2.83762
-0.565556
-2.87188
-5.44103
5.81834
-2.68921
5.78965
2.64371
-2.43907
8.22872
2.26856
-4.70764
-3.8699
-4.34701
-1.79356
3.6536
-1.10891
-5.02447
-8.18517
5.09548
-0.00307704
-10.7264
12.2909
-1.56453
-6.5844
-0.780545
7.1894
-9.4781
1.0166
-6.03183
6.25909
7.17164
7.16857
-10.2939
-0.100494
-6.15325
1.57028
-7.72353
7.58734
-3.45971
8.40913
-8.16843
5.75773
-7.40855
6.91564
-0.80789
7.08227
-4.52601
2.90343
-7.63361
-6.21386
8.19945
-4.487
9.08757
-5.2366
14.3242
-8.91252
8.19533
6.12884
-1.55525
-5.49496
-8.07361
6.51836
0.121716
5.49834
5.80869
-3.49214
5.45573
2.76678
-5.85325
-2.63445
-8.20247
2.34921
-4.23528
-2.31146
4.66067
3.76554
4.34441
1.61094
-3.85248
8.46861
-9.45409
-2.57428
-4.57179
8.16268
-1.64431
5.06779
-9.63958
-2.87045
7.86762
-1.63426
-6.23336
-0.0819143
-7.14714
4.0985
-11.2456
6.54669
-7.82402
0.817228
-6.32574
-1.85798
-1.89269
-1.30008
-1.69085
-5.05872
3.75863
-0.956387
1.73921
-8.13489
6.50063
-2.63049
6.38913
-2.06079
-0.708797
2.20884
0.587239
6.97636
-0.255828
-5.54833
-2.12147
6.28024
-4.15877
1.6258
-6.59067
-0.310431
2.82424
4.00444
-7.60363
-0.0819083
-5.63024
-3.06912
5.60229
6.16225
13.4629
0.613979
6.14451
-0.542217
6.75849
1.49203
1.48704
-5.13424
9.03866
4.17529
8.1046
-0.737088
2.90408
1.50037
1.49309
0.862594
2.2154
1.21807
3.39824
0.224125
-1.60263
4.83952
-7.55634
-0.0818862
-6.80398
2.64066
6.75238
-4.11172
4.86857
-2.73402
0.709804
0.00722275
-1.56288
1.55565
-2.92224
-2.17841
-0.786311
-2.01269
2.57213
2.04051
-1.78582
-1.13641
0.58423
-4.65946
3.66023
-3.79889
-0.58846
6.90422
-3.27557
0.437954
-1.13883
-2.43392
-3.00763
2.98296
7.85239
0.376334
3.94973
6.19468
3.77768
0.285549
5.90416
-7.84801
-5.26371
-7.9485
-0.36116
6.82824
2.66825
9.97503
8.79709
7.15278
-2.48681
-11.9409
10.3477
-1.309
9.93294
-3.69958
-7.54605
6.38337
2.0793
-6.49517
-1.32885
-8.8749
-10.1839
-0.57371
7.07434
-6.40265
5.69386
3.87822
1.04377
-1.49998
-0.392709
1.52708
-0.0400389
6.71845
-2.18386
-8.68213
10.866
-4.56852
4.48663
2.43911
2.47876
3.99476
1.26074
-7.42139
-11.5331
-2.46371
-1.61245
-5.12252
0.708357
-2.74887
6.65808
-2.17144
5.16707
8.69455
9.40435
-3.59436
-6.68097
7.58002
-2.41295
6.9914
)
;

boundaryField
{
    wall-4
    {
        type            calculated;
        value           uniform 0;
    }
    velocity-inlet-5
    {
        type            calculated;
        value           uniform -3.75095;
    }
    velocity-inlet-6
    {
        type            calculated;
        value           uniform -5.62643;
    }
    pressure-outlet-7
    {
        type            calculated;
        value           nonuniform List<scalar> 8(3.10094 3.06752 6.53667 6.84828 8.46438 8.12568 8.42762 7.94224);
    }
    wall-8
    {
        type            calculated;
        value           uniform 0;
    }
    frontAndBackPlanes
    {
        type            empty;
        value           nonuniform 0();
    }
}


// ************************************************************************* //
