/*--------------------------------*- C++ -*----------------------------------*\
  =========                 |
  \\      /  F ield         | OpenFOAM: The Open Source CFD Toolbox
   \\    /   O peration     | Website:  https://openfoam.org
    \\  /    A nd           | Version:  7
     \\/     M anipulation  |
\*---------------------------------------------------------------------------*/
FoamFile
{
    version     2.0;
    format      ascii;
    class       volVectorField;
    location    "9";
    object      U;
}
// * * * * * * * * * * * * * * * * * * * * * * * * * * * * * * * * * * * * * //

dimensions      [0 1 -1 0 0 0 0];

internalField   nonuniform List<vector> 
918
(
(0.813513 -0.0529621 0)
(0.134464 2.47694 0)
(0.0558504 0.774818 0)
(0.756267 0.0534998 0)
(-0.0144568 0.77234 -1.96506e-19)
(-0.136691 2.25728 -2.74181e-17)
(0.264179 0.463289 -9.71652e-19)
(0.133798 0.0748214 -5.43701e-20)
(1.00266 -0.00702636 0)
(-0.011782 0.350887 0)
(-0.00739595 0.449796 0)
(0.251318 0.000862443 0)
(0.117394 1.74038 0)
(0.00853165 1.30125 0)
(-0.00582876 1.04288 -1.40916e-18)
(0.00242765 0.468292 -2.18098e-19)
(0.164299 0.0398835 4.04431e-18)
(0.0637863 0.514711 -5.79367e-19)
(0.476826 0.0494962 0)
(-0.0114821 0.47707 0)
(0.239972 0.128717 -1.84824e-18)
(1.02789 -0.139707 0)
(0.959713 -0.177315 0)
(0.589521 -0.0664265 0)
(0.225112 0.0125462 0)
(-0.0149815 1.47422 0)
(-0.0469613 1.72798 8.49384e-18)
(-0.0133968 0.960469 0)
(0.0447249 1.75463 0)
(0.0604188 1.16632 0)
(-0.00575068 1.78583 0)
(0.00970461 1.01426 1.53966e-19)
(0.0112587 0.431476 0)
(-0.320951 2.70296 -1.02811e-21)
(-0.310509 3.10884 2.36905e-17)
(-0.0130235 3.04129 0)
(0.269007 -6.73758e-05 0)
(0.0613381 0.0772186 6.11292e-19)
(0.457293 0.748907 2.12854e-18)
(0.299639 0.387472 -1.73909e-18)
(0.397558 0.884592 2.06687e-19)
(0.225554 0.528441 -1.03012e-18)
(0.264688 0.144846 5.47774e-20)
(0.144138 0.0734653 0)
(0.343762 0.212123 0)
(0.255617 0.145003 2.44405e-19)
(0.131078 0.0780457 -2.42833e-19)
(0.28052 -0.0122 0)
(1.01038 -0.00016866 0)
(1.00276 0.00665031 0)
(1.07485 -0.153979 0)
(1.01617 -0.0280135 0)
(1.01126 -0.0177863 0)
(0.00404791 0.512958 -2.61343e-18)
(-0.0196434 0.713138 0)
(0.00755129 0.360704 0)
(-0.0343965 0.735129 0)
(-0.0146775 0.369993 0)
(0.000247457 0.497819 0)
(-0.0136311 0.833082 0)
(-0.000403082 0.434047 0)
(-0.0157515 0.866673 0)
(-0.00557874 0.468758 0)
(0.287156 0.00302865 0)
(0.471577 0.00184384 0)
(0.256051 0.00440327 0)
(0.465659 0.00551156 0)
(0.24284 0.0032676 0)
(0.345186 2.93893 1.08116e-17)
(0.284413 3.23577 0)
(0.225159 3.03561 0)
(0.211122 2.70618 1.16733e-22)
(0.138778 2.12556 -1.51961e-17)
(0.177553 2.49081 0)
(0.0776001 1.54064 0)
(0.0169922 2.25842 1.62284e-23)
(0.0180506 1.30084 0)
(-0.0620172 2.29122 0)
(-0.0450249 1.32048 0)
(0.0247553 1.76807 0)
(-0.0108949 1.17405 0)
(0.0121023 1.90258 1.42538e-18)
(0.00376322 1.09547 0)
(0.0028324 2.25815 0)
(0.00675753 0.865221 2.2072e-19)
(-0.004052 0.470689 -2.85038e-19)
(0.320948 0.0730429 -1.43217e-18)
(0.165577 0.0306333 -1.36977e-18)
(0.321656 0.0880306 -4.30191e-18)
(0.165129 0.05052 -2.71139e-18)
(0.047772 0.35115 0)
(0.145639 0.956295 5.5325e-19)
(0.138616 0.561195 -8.67218e-19)
(0.659258 0.0821813 0)
(0.348234 0.0338131 0)
(1.00994 0.0416756 0)
(1.02771 0.158879 0)
(0.935963 0.13949 -1.77891e-17)
(0.8502 0.134864 1.33316e-17)
(-0.0153138 0.879553 0)
(0.00548034 0.469491 0)
(-0.00416186 1.30931 0)
(-0.028878 0.928396 0)
(-0.0295994 0.459271 0)
(0.409448 0.153763 6.33626e-19)
(0.180961 0.0998378 0)
(0.743301 -0.0928076 0)
(0.4124 -0.0411752 0)
(0.450091 0.00438654 0)
(0.431644 0.0104375 0)
(0.234423 0.00286663 0)
(0.351336 0.0152273 0)
(0.361037 0.0241991 0)
(0.158436 0.0107862 6.29172e-18)
(-0.0212933 1.34864 4.48312e-18)
(-0.0513264 2.42557 0)
(-0.07289 2.51249 0)
(-0.018936 1.3585 0)
(-0.0666233 2.63616 7.81804e-18)
(-0.034556 1.6292 0)
(-0.103446 2.69817 -2.56256e-17)
(-0.0733533 1.81722 8.57834e-18)
(0.0337944 2.05772 0)
(0.034682 2.16774 0)
(-0.0011306 0.85973 -5.03101e-21)
(-0.00505949 0.837588 0)
(-0.00303698 0.460969 0)
(0.505056 0.00975275 0)
(0.276513 0.00539278 0)
(0.262649 0.00190551 0)
(0.500637 -0.00334142 0)
(0.268804 0.00144732 0)
(0.207617 0.230394 -8.20206e-19)
(0.0524978 0.0665832 0)
(0.187444 0.255918 1.06195e-19)
(0.0662596 0.108846 0)
(0.519322 0.639569 5.69187e-19)
(0.317642 0.328245 -1.28116e-18)
(0.268723 0.997171 0)
(0.333352 0.982845 0)
(0.188002 0.572906 0)
(0.041895 0.117763 -7.61631e-19)
(0.285981 0.134199 0)
(0.15194 0.0671072 7.3691e-19)
(0.54997 0.545109 0)
(0.576084 0.446107 0)
(0.328764 0.267627 1.429e-18)
(0.606035 0.342946 0)
(0.368805 0.160042 2.97782e-20)
(0.504182 0.00974245 0)
(0.497498 -0.00114093 0)
(0.267231 0.00322894 0)
(0.62118 -0.0601584 0)
(0.533135 -0.0374583 0)
(0.330533 -0.0252959 0)
(1.02559 0.0652663 0)
(1.01247 0.0269977 0)
(1.00463 0.0214157 0)
(0.00176823 0.911025 1.41172e-18)
(0.00393111 0.490475 0)
(0.00469277 0.95053 2.5218e-18)
(0.00173043 0.530556 -2.24674e-18)
(0.0579577 0.866083 4.96664e-19)
(0.024954 0.749658 0)
(0.0270132 0.430969 0)
(-0.0301191 0.770121 0)
(-0.0113028 0.403343 0)
(-0.00024129 0.909213 -1.05735e-20)
(-0.0107611 0.502523 0)
(-0.0177934 0.902542 -5.51374e-19)
(-0.00936129 0.481908 1.04672e-18)
(-0.0149253 0.798758 0)
(0.00311902 0.812457 0)
(-0.00462486 0.426761 0)
(-0.00363026 0.879824 0)
(-0.00109958 0.475751 0)
(0.533335 0.00299024 0)
(0.291007 0.00156477 0)
(0.520863 0.00412266 0)
(0.283134 -0.00120306 0)
(0.264561 -0.000926402 0)
(0.494649 0.000510859 0)
(0.482525 0.0122645 0)
(0.265162 0.00276908 0)
(-0.00647207 4.03788 -7.03671e-20)
(0.0602234 3.91025 0)
(0.0867635 2.35694 0)
(0.0374125 1.3979 0)
(0.239113 1.66355 0)
(0.255129 0.705509 1.89472e-19)
(0.027228 1.99058 0)
(-0.0214916 1.14792 0)
(0.0190881 2.21626 0)
(0.00566623 2.2534 0)
(0.0152787 2.24666 0)
(-0.00502239 1.85382 3.80879e-20)
(0.00988318 2.23965 0)
(0.00716495 2.11994 0)
(0.00528912 0.475001 2.60159e-20)
(0.0121731 0.897172 3.87953e-19)
(-0.0103468 0.878905 2.97492e-19)
(0.00109503 0.482523 0)
(0.323516 0.0496976 2.214e-18)
(0.162137 0.0197634 -2.12682e-18)
(0.0909582 0.640797 0)
(0.0620106 0.311574 -5.91778e-19)
(0.077226 0.714846 -2.02106e-18)
(0.0346221 0.402999 1.97631e-18)
(0.272273 0.00167757 0)
(0.519303 0.0050598 0)
(0.553241 0.0326578 0)
(0.295183 0.00898186 0)
(0.00225732 0.881493 0)
(0.0182025 0.873079 0)
(0.00251052 0.479306 0)
(0.251203 0.149698 2.19374e-18)
(0.274876 0.151036 -2.47861e-18)
(0.136591 0.0823002 0)
(0.656192 0.0467856 2.52039e-19)
(0.38489 0.0297652 0)
(0.595661 0.0271376 0)
(0.317296 0.00551532 0)
(0.318305 0.034299 0)
(0.316225 0.0206901 -1.02958e-17)
(0.160671 0.0129232 3.74863e-18)
(-0.0279568 2.40762 4.99197e-18)
(-0.022155 1.4373 4.51017e-19)
(0.0206293 3.94123 -1.62239e-19)
(0.126147 3.8064 7.10513e-18)
(-0.141171 2.77488 3.13854e-19)
(-0.0946642 1.99797 -1.27961e-21)
(-0.258626 3.0954 -6.64989e-18)
(0.0494098 3.53287 4.98213e-18)
(0.0129027 3.73836 -7.46993e-18)
(0.520277 -0.00326568 0)
(0.52187 0.00775207 0)
(0.282249 0.0011066 0)
(0.503556 -0.00074547 0)
(0.491903 0.00713078 0)
(0.26838 0.0016893 0)
(0.496415 -0.00438395 0)
(0.488842 -0.00407485 0)
(0.264175 -0.00269382 0)
(0.156895 0.265774 -4.84947e-19)
(0.0491701 0.115174 0)
(0.0560122 0.117303 2.08312e-19)
(0.133343 0.270847 1.66737e-18)
(0.147791 0.273047 -9.25901e-19)
(0.0574691 0.113598 1.75154e-18)
(0.0955219 0.26585 3.9112e-18)
(0.0555376 0.114486 7.51472e-19)
(0.314458 0.108697 2.91199e-18)
(0.299799 0.125805 7.54076e-19)
(0.160919 0.060739 1.39304e-18)
(0.6509 0.257565 -1.65264e-18)
(0.389937 0.116529 -1.79331e-18)
(-0.0117715 0.958316 1.09496e-18)
(-0.00519742 0.528996 0)
(0.568957 0.0107666 0)
(0.54272 0.0123764 0)
(0.303919 0.00690292 0)
(0.0159721 4.01299 0)
(0.0437522 2.26218 1.00621e-17)
(0.0580618 2.29556 0)
(0.0235622 1.33434 -9.33918e-18)
(-0.0171088 4.07975 1.99024e-18)
(-0.0298558 4.10506 0)
(0.229761 0.369564 -4.73045e-21)
(0.308378 0.683162 1.70505e-19)
(0.0701461 0.209078 -3.13507e-19)
(-0.0475175 2.2726 -4.35011e-18)
(-0.0475734 2.10426 0)
(-0.0309494 1.26813 0)
(0.00448902 0.877476 -4.0031e-20)
(0.0153528 0.897626 -8.61833e-19)
(0.00660526 0.47516 -3.76822e-20)
(0.133351 0.562951 1.96024e-18)
(0.0684101 0.250812 -1.26964e-18)
(0.00619634 0.86542 1.71216e-18)
(0.0367066 0.794752 -1.89917e-18)
(0.0147753 0.452692 8.08222e-20)
(-0.0253211 4.05488 -1.15329e-17)
(-0.0368077 4.13953 1.12331e-17)
(-0.0386385 2.55602 6.34745e-18)
(-0.0739949 2.45563 -5.47627e-18)
(-0.0193174 1.55243 -6.12206e-18)
(-0.0419943 4.13041 -1.47804e-17)
(-0.0440894 4.12787 1.29909e-17)
(0.106347 0.278072 0)
(0.13122 0.277962 -3.69579e-18)
(0.0536036 0.124866 1.56676e-18)
(0.149624 0.321796 2.36668e-18)
(0.0662784 0.166577 -3.54515e-18)
(0.686794 0.10548 9.60847e-19)
(0.687414 0.185014 0)
(0.406314 0.0759053 -9.51146e-19)
(-0.0289134 0.926148 -1.17884e-20)
(-0.0113557 0.949553 0)
(-0.00685149 0.526269 0)
(0.131349 0.471172 -6.86408e-19)
(0.129388 0.400631 -1.4784e-18)
(0.0664063 0.208452 2.6799e-18)
(1.05466 -0.1508 0)
(1.12528 -0.152317 3.17735e-18)
(0.0378128 2.00086 0)
(0.0200747 1.81433 0)
(1.05546 0.0989271 2.20838e-20)
(1.04005 0.173663 6.60136e-18)
(0.0200766 1.86498 -4.96629e-20)
(0.00758326 1.5582 0)
(-0.0714953 3.76729 2.98604e-18)
(0.036971 3.44804 0)
(1.1403 0.557009 -8.46266e-19)
(1.05269 0.0812193 -3.51682e-20)
(1.03644 -0.0261286 0)
(1.03873 -0.00120411 -1.95451e-22)
(0.0502608 1.72012 0)
(0.0688763 1.74844 0)
(-0.0350292 1.68904 0)
(-0.0111465 1.83467 7.5482e-19)
(-0.0103126 1.86572 4.65909e-19)
(0.967529 0.00898594 -2.03109e-20)
(1.04642 0.0110651 0)
(1.0764 0.0232055 0)
(0.00586212 2.24696 0)
(-0.00327019 1.70988 0)
(-0.0190419 1.83199 0)
(0.330123 1.88847 7.14055e-19)
(1.11595 -0.142951 0)
(0.992688 -0.110392 0)
(1.06507 -0.021379 4.05905e-18)
(1.10679 -0.121006 -4.80516e-18)
(1.04032 -0.0479661 0)
(-0.000549053 2.23387 0)
(0.0143964 2.13752 0)
(0.0175537 2.19532 0)
(-0.00386871 1.90023 0)
(-0.0134919 1.79128 0)
(-0.0160048 1.65115 0)
(1.01008 0.00874632 0)
(0.990176 -0.00132177 -2.39641e-20)
(0.801197 1.25287 -1.02918e-18)
(1.06041 0.0175026 -4.06009e-18)
(1.07202 0.106638 4.90325e-18)
(1.03316 0.045324 0)
(1.13373 0.104258 3.76794e-18)
(1.11862 0.164557 -4.78684e-18)
(1.01064 0.133752 0)
(-0.00862463 1.82408 0)
(0.0119597 1.80354 1.98862e-19)
(-0.00505876 1.52085 -1.43483e-19)
(1.21867 0.172556 5.06063e-18)
(1.15542 0.0556231 0)
(-0.237326 3.94714 -3.89517e-18)
(-0.154525 2.49644 -2.54703e-19)
(-0.235885 4.01088 4.63128e-18)
(-0.056479 3.90851 -1.81458e-18)
(-0.0154395 3.55142 0)
(-0.0219348 3.82551 1.46856e-18)
(-0.163621 4.15416 4.01221e-18)
(-0.0798359 4.04403 -2.73174e-18)
(-0.102309 4.05431 0)
(0.5732 0.26509 0)
(0.529815 0.298778 0)
(1.1453 0.705304 2.57815e-18)
(1.03584 0.697112 -3.271e-18)
(1.22168 0.567508 0)
(1.12945 0.39781 0)
(1.11549 0.0777229 -7.23824e-18)
(0.960455 0.0412526 8.94331e-18)
(1.10724 -0.029235 0)
(0.953043 -0.00822112 0)
(1.16487 0.0117077 0)
(1.21609 0.0451294 0)
(1.11059 0.0396823 0)
(1.19563 0.0975632 0)
(1.15096 0.104703 0)
(1.12474 0.0788697 0)
(0.0392922 1.82866 0)
(-0.00045397 1.50959 0)
(0.0924431 1.94009 0)
(0.0977437 1.56541 0)
(0.0913899 1.8533 0)
(0.0718906 1.47025 -1.30276e-18)
(0.0291503 1.87361 0)
(0.0118893 1.64715 9.44676e-19)
(-0.00959049 1.71896 -1.22658e-18)
(-0.0256153 1.82835 0)
(-0.0184545 1.56739 0)
(-0.04235 1.85985 0)
(-0.0249904 1.46338 0)
(-0.0417824 2.28427 -5.94295e-19)
(-0.0260368 2.00529 6.44045e-19)
(-0.0262468 1.95661 7.66472e-19)
(-0.0199067 1.65661 0)
(-0.0307561 1.96048 -1.10063e-18)
(-0.00842514 1.73833 -6.72951e-19)
(-0.0315449 2.29259 4.49065e-19)
(-0.030217 2.18712 -8.2539e-19)
(-0.0245963 2.13358 -9.38737e-19)
(1.0796 0.0131547 6.53552e-18)
(0.869435 0.00594173 -8.21115e-18)
(1.04836 0.0264614 -6.48883e-18)
(0.871199 0.0162893 8.05505e-18)
(1.12737 0.0137676 0)
(0.933672 0.00175908 0)
(1.14906 0.0267519 0)
(1.1238 0.00985282 0)
(0.963085 0.00667511 0)
(1.20506 0.0634247 0)
(1.15496 0.027739 0)
(1.00485 0.0195371 0)
(0.0158485 2.17934 -2.36942e-20)
(0.00554614 2.25005 0)
(0.00859882 2.22213 0)
(-0.0114115 1.88181 2.06099e-19)
(-0.00629305 1.56795 -8.43341e-21)
(-0.00544748 2.26767 2.40982e-19)
(-0.0115719 2.22958 -2.44052e-19)
(-0.0146558 2.13659 0)
(-0.00613807 2.12914 0)
(-0.00452365 2.14118 0)
(-0.0149645 1.97005 0)
(-0.00814701 1.57541 0)
(0.367301 2.02308 -1.6161e-18)
(0.451725 1.68822 -4.95418e-19)
(0.279867 1.11566 -5.06159e-19)
(0.16503 1.27995 1.60766e-18)
(0.412226 2.21534 5.97757e-19)
(1.13486 -0.0450336 0)
(1.09895 -0.0824788 0)
(0.939299 -0.0529448 0)
(1.17541 -0.0277218 0)
(1.12885 -0.0565424 0)
(1.16081 -0.0969655 0)
(1.18275 -0.102173 0)
(1.19731 -0.0943916 0)
(1.09672 0.00260581 6.90007e-18)
(0.886973 0.00510008 -8.67131e-18)
(1.07069 0.0110942 -6.83222e-18)
(0.912003 0.00419216 8.47574e-18)
(0.745686 1.41788 0)
(0.690369 1.37591 -1.27145e-18)
(0.833136 1.28812 -1.21112e-18)
(0.872488 1.03761 1.62043e-18)
(0.620872 1.22118 3.22511e-18)
(0.640395 0.0756505 2.57018e-18)
(1.22481 0.0875616 0)
(1.27401 0.17429 -4.053e-18)
(1.11941 0.0764474 -1.78123e-19)
(1.21333 0.126077 0)
(-0.210831 3.31856 3.12292e-18)
(-0.257932 3.41871 -4.1482e-18)
(-0.0549001 1.66737 2.42095e-18)
(0.255625 0.517631 -1.28839e-18)
(0.0484119 3.60565 8.71334e-19)
(-0.00324141 3.65294 0)
(0.0279519 3.33174 -1.2383e-18)
(-0.139624 3.56262 -8.01217e-18)
(-0.0293444 3.63223 0)
(-0.0298411 3.96255 3.0271e-19)
(-0.0399011 4.2415 -3.36456e-18)
(-0.0497052 4.02834 4.85329e-18)
(-0.0946883 4.1813 0)
(-0.0365102 4.11291 0)
(0.643498 1.45066 0)
(0.647669 0.857952 -2.27983e-18)
(0.937345 0.83963 1.143e-18)
(0.916474 1.07834 0)
(0.956922 1.09374 -9.86277e-19)
(1.03484 0.871183 4.81243e-20)
(0.510543 0.200683 -3.27981e-18)
(0.670915 0.297765 -2.20302e-20)
(0.553135 0.215988 1.63748e-18)
(0.577859 0.352287 1.09934e-19)
(0.460567 0.281124 -4.32547e-18)
(0.635532 0.312973 0)
(0.787914 0.430585 2.77554e-18)
(0.798511 0.403104 0)
(0.618286 0.338569 0)
(0.49109 0.254048 0)
(0.993619 0.679673 2.16445e-18)
(1.28106 0.242933 -4.19411e-18)
(1.24763 0.396212 0)
(1.18082 0.254679 0)
(0.628526 0.166348 2.54183e-18)
(1.00479 0.592811 -1.65979e-18)
(0.941508 0.558149 3.06721e-18)
(1.15287 0.434716 -3.80589e-18)
(1.04258 0.011471 4.64911e-18)
(1.05392 0.0358914 -4.78845e-18)
(0.899688 0.012852 0)
(1.1045 0.00564057 0)
(1.06272 -0.00612313 -4.50418e-18)
(0.899351 0.00152666 4.44743e-18)
(1.29038 0.0114281 0)
(1.24795 0.0104741 0)
(1.24612 0.0415025 0)
(1.20687 0.0520363 0)
(1.28433 0.0114009 0)
(1.25854 0.0083565 0)
(-0.0165914 1.71009 0)
(-0.0280162 1.44854 0)
(0.16836 2.23032 -1.03883e-18)
(0.310047 2.00829 -4.13448e-19)
(0.180318 1.93976 -9.16278e-19)
(0.224602 1.73463 1.4605e-18)
(0.201684 2.20476 0)
(0.212869 2.30086 -1.26763e-18)
(0.171206 2.32309 0)
(0.404586 2.22938 -8.52264e-19)
(0.340446 1.95767 2.22056e-18)
(0.253047 2.31545 1.11046e-18)
(0.278649 2.22088 -5.2256e-19)
(0.241937 2.27533 4.27844e-19)
(0.300043 2.32609 -1.59411e-18)
(0.304165 2.30368 0)
(0.318992 2.30123 1.21625e-18)
(-0.00196587 2.22832 -4.52413e-19)
(-0.00637326 1.88854 0)
(0.0383517 2.12251 1.3172e-18)
(0.000244334 2.16644 0)
(-0.000367572 1.82092 -1.04918e-18)
(-0.00599262 1.59441 0)
(-0.0467924 2.23603 -7.34265e-19)
(-0.0421973 2.28614 0)
(-0.0370227 2.12554 0)
(-0.039328 2.14324 8.09256e-19)
(-0.0187202 1.98529 3.49863e-20)
(-0.0184103 1.91847 1.49647e-18)
(-0.0212634 1.61112 9.96168e-21)
(-0.0362747 2.27501 4.20064e-19)
(-0.0369798 2.28948 2.43391e-19)
(-0.0122695 1.75543 0)
(-0.00718577 1.52393 0)
(-0.0233827 2.306 1.18019e-18)
(-0.0384743 2.24133 1.10968e-18)
(-0.0398013 2.27966 -1.41653e-18)
(-0.0063337 2.3184 0)
(-0.00819741 2.20923 -7.57774e-19)
(-0.0220796 2.1143 3.30496e-19)
(-0.0188837 2.11943 -1.00607e-19)
(-0.0167192 2.28438 -5.27759e-19)
(-0.0171073 2.12529 -1.67349e-19)
(-0.0256925 2.10179 7.62632e-19)
(1.02209 0.00622445 -4.53303e-18)
(1.02189 0.00465544 4.40423e-18)
(0.872517 0.0031005 0)
(1.18291 0.0464663 5.991e-18)
(1.01202 0.0348518 -6.47346e-18)
(0.870725 0.0181524 7.06633e-18)
(1.2201 0.0792819 -7.99394e-19)
(1.08531 -0.00343214 0)
(1.07397 0.00303467 4.33942e-18)
(0.941722 0.00133259 -4.26318e-18)
(1.24286 0.0334567 -2.51392e-19)
(1.217 0.0294037 2.1602e-18)
(1.28925 0.0431822 0)
(1.30063 0.0422047 -7.37667e-19)
(1.27759 0.028168 0)
(1.22952 0.0257892 0)
(1.30138 0.00764274 0)
(1.22297 0.00414774 0)
(1.30013 0.0244864 1.53146e-18)
(1.29998 0.0117801 -3.39503e-18)
(1.28819 0.0283174 -1.70272e-18)
(1.29566 0.0277528 -1.80994e-18)
(1.29909 0.0562679 3.55957e-18)
(1.23807 0.0487325 0)
(1.28091 0.0788704 0)
(-0.00280454 2.23132 -3.03809e-19)
(0.0115737 2.24893 -2.59163e-20)
(-0.00137091 2.25472 0)
(-0.00183303 2.1079 3.03873e-19)
(-0.00131445 2.12676 4.76301e-20)
(-0.00314271 2.08947 -4.89213e-20)
(-0.0227301 1.86587 5.96292e-19)
(-0.0351725 2.04993 -3.49959e-20)
(-0.0188985 2.08178 1.73506e-19)
(-0.0133379 1.82407 -3.06605e-19)
(-0.00473125 1.62245 3.68259e-19)
(-0.0115622 2.25105 1.10473e-20)
(-0.0101411 2.2666 3.71228e-19)
(0.326412 2.2202 9.33815e-19)
(0.330518 2.30999 1.71735e-18)
(0.609489 1.58766 1.23232e-18)
(0.477172 1.79308 4.78243e-19)
(0.564894 1.53839 0)
(0.3488 1.249 5.93344e-19)
(0.277018 0.898247 7.00394e-19)
(0.2153 1.39878 3.37679e-20)
(0.291236 1.67979 -2.6272e-18)
(0.347597 1.67303 1.91801e-18)
(0.269755 1.29986 0)
(0.183803 1.09094 -1.24627e-18)
(0.129598 1.63781 3.22837e-18)
(0.157877 1.47464 -5.97289e-20)
(0.0948794 1.28514 -4.02413e-18)
(0.251784 0.76286 2.52987e-18)
(0.332556 0.818854 0)
(1.21228 -0.0287052 1.58583e-19)
(1.21424 -0.0840601 -1.32924e-19)
(1.24201 -0.0662623 -2.33572e-18)
(1.26101 -0.0394891 2.35547e-18)
(1.24126 -0.0209539 0)
(0.651983 1.51201 0)
(0.66516 1.49341 0)
(0.8398 1.28769 0)
(0.743027 1.37414 0)
(0.615641 1.27871 -1.11798e-20)
(0.437152 0.811127 0)
(0.80067 2.81539 2.66051e-20)
(0.615176 2.36781 0)
(0.700079 2.2811 -2.12021e-18)
(0.708562 2.32836 1.3756e-18)
(0.758789 0.116373 0)
(0.634355 0.105167 6.75522e-19)
(0.946454 0.111712 4.23356e-18)
(0.75581 0.0867486 -1.50806e-18)
(0.611427 0.041672 -4.70666e-18)
(1.30441 0.221981 -5.32455e-18)
(1.18996 0.300985 -3.20296e-20)
(1.10625 0.269436 3.98604e-18)
(1.21386 0.216903 3.6032e-18)
(1.09598 0.142561 -5.94326e-18)
(1.04405 0.15032 7.26168e-19)
(1.11136 0.221225 -1.62733e-18)
(1.06444 0.204383 0)
(1.22049 0.158076 3.03939e-18)
(1.26494 0.179922 0)
(1.26206 0.213493 0)
(1.27533 0.114813 1.70517e-18)
(1.29868 0.179992 -3.19054e-20)
(1.29827 0.202006 -9.24828e-19)
(1.30126 0.183867 0)
(1.20204 0.0270529 3.37238e-18)
(1.2991 0.0373912 4.24032e-18)
(1.29152 0.0305806 -3.30771e-18)
(1.28984 0.054668 -2.87315e-18)
(1.2257 0.0494813 -4.25246e-18)
(1.15237 0.110475 0)
(1.16381 0.082109 0)
(0.982681 0.0588238 -2.5019e-18)
(0.838212 0.0371971 9.32206e-19)
(1.27182 0.0921129 3.91825e-18)
(1.30615 0.113097 -4.79245e-18)
(1.30013 0.131967 4.24775e-18)
(1.27719 0.133722 0)
(1.30295 0.0888436 0)
(1.29991 0.0787847 -1.99526e-18)
(1.29447 0.0772404 -3.22579e-18)
(0.692058 2.34494 1.11851e-18)
(0.781933 2.89477 -1.11901e-18)
(0.898525 2.83137 -1.29934e-18)
(0.891975 3.09978 2.80638e-19)
(0.689605 1.58076 -2.95878e-18)
(0.703378 1.49208 5.38015e-19)
(0.49031 0.839245 -4.68227e-20)
(0.863237 2.56083 -1.01019e-18)
(0.86318 2.51851 1.79104e-18)
(0.775522 2.87936 2.73298e-19)
(0.724884 2.05302 -2.7986e-19)
(0.672259 1.92611 0)
(0.607836 0.947175 -2.47459e-19)
(0.0255853 1.52842 1.82628e-18)
(0.521333 0.280944 2.12825e-18)
(0.372016 0.381274 2.29909e-18)
(0.527238 0.31553 2.42532e-18)
(0.642751 0.398141 -4.1713e-18)
(0.636385 0.371031 3.40382e-18)
(0.545237 0.286126 -1.20498e-18)
(0.446483 0.246869 2.66593e-18)
(0.705469 0.219737 -1.48506e-18)
(0.672034 0.242722 0)
(0.569941 0.193164 4.74632e-21)
(0.870384 0.531897 1.52231e-18)
(0.802938 0.477077 -5.34188e-18)
(0.701726 0.444068 1.72326e-21)
(0.693521 0.426522 0)
(0.777772 0.839086 1.81435e-18)
(0.96772 0.875414 2.33248e-18)
(0.895572 0.964452 -2.69712e-18)
(1.01697 0.896617 -9.63304e-19)
(1.07183 0.904793 -3.43479e-19)
(1.05159 0.952786 3.50893e-19)
(1.0707 0.714257 -3.51378e-18)
(1.08786 0.796448 9.05292e-19)
(1.14139 0.797732 0)
(1.15843 0.733271 -1.33189e-18)
(1.23244 0.32126 1.23186e-18)
(1.31857 0.301986 2.27768e-18)
(1.30957 0.277691 2.16097e-18)
(1.21506 0.399857 -2.39713e-18)
(1.26368 0.422762 0)
(1.2855 0.388513 0)
(1.09186 0.400898 -1.99535e-20)
(0.913368 0.267634 0)
(0.986396 0.268441 1.79232e-18)
(1.08934 0.291788 -3.14971e-20)
(1.14781 0.482477 1.05283e-17)
(1.07707 0.55578 2.66168e-18)
(1.0723 0.497098 -2.61963e-18)
(1.00993 0.468632 2.78484e-18)
(0.95349 0.483094 1.55462e-18)
(0.875282 0.438366 -1.50509e-18)
(1.20552 -0.00258603 3.81833e-18)
(1.29008 -0.00229558 0)
(1.28154 -0.0116646 2.53604e-18)
(1.23491 0.00147195 -5.71309e-18)
(1.30549 0.00535527 2.68645e-18)
(1.29114 0.012645 -5.80814e-18)
(1.24417 0.011364 0)
(1.18809 0.0224864 -1.18215e-18)
(1.27773 0.0216466 2.97142e-18)
(1.23771 0.0394237 -1.54806e-18)
(1.19846 0.0283298 1.11364e-18)
(-0.0421148 1.7234 0)
(-0.0239947 2.03541 0)
(-0.0311453 1.67868 0)
(-0.0241804 1.42484 0)
(0.028693 2.16489 1.69559e-18)
(0.0628488 2.12104 -5.10166e-19)
(0.12508 2.31688 -5.78587e-19)
(0.108937 2.30626 5.73549e-19)
(-0.0213513 2.24181 -1.27779e-18)
(-0.00646202 2.2466 9.61137e-19)
(0.0313911 2.16251 -8.09175e-21)
(0.00144498 2.08366 -1.13395e-18)
(-0.00835908 1.9961 -1.54727e-19)
(-0.02176 2.09182 -1.46221e-19)
(0.0595883 2.19086 -1.40281e-18)
(0.0740531 2.11406 0)
(0.117954 2.25336 6.96144e-19)
(0.129759 2.30081 5.94366e-19)
(0.25146 2.18544 -5.33437e-19)
(0.205383 1.92683 0)
(0.229698 1.85938 -2.58829e-18)
(0.286186 2.02089 1.85378e-18)
(0.21589 2.22195 -1.4494e-18)
(0.159432 2.15865 7.83924e-19)
(0.130177 2.07536 0)
(-0.0187808 2.2879 -1.33554e-18)
(-0.0268361 2.21834 -1.54422e-18)
(-0.0328412 2.27333 0)
(-0.0155641 2.15543 -1.46579e-20)
(-0.00955278 2.25359 6.76891e-19)
(-0.0446128 2.14591 1.11072e-19)
(-0.016138 2.04233 -1.6555e-18)
(-0.0367268 2.14922 4.65166e-19)
(-0.0583824 2.27094 5.88557e-19)
(-0.0368867 2.24746 0)
(-0.0250162 2.16679 0)
(-0.0211721 1.8306 4.84122e-19)
(-0.00607813 2.10507 -1.4517e-19)
(-0.0126319 2.09749 0)
(-0.0148892 1.77173 3.95804e-19)
(-0.00505822 1.52173 -7.56929e-19)
(1.21996 0.0182112 0)
(1.21554 0.0113008 -3.91766e-19)
(1.30721 0.0139024 -2.75562e-18)
(1.28616 0.0140595 0)
(1.24978 0.0110817 0)
(1.30982 0.00454497 -1.30714e-20)
(1.30391 0.00299267 4.62967e-18)
(1.27997 0.0085319 5.33805e-18)
(1.23709 0.0107274 0)
(1.1885 0.0125985 0)
(1.27866 0.00842379 2.71149e-18)
(1.22443 0.0175953 0)
(1.17578 0.0212698 0)
(-0.0118465 2.25794 0)
(-0.0147891 2.26101 2.40672e-20)
(-0.00943842 2.26552 1.6167e-19)
(-0.00475505 2.1414 0)
(-0.0129217 2.25269 2.65796e-19)
(-0.00697292 2.22299 -1.41136e-19)
(-0.0100336 2.19029 0)
(0.47411 2.47163 0)
(0.346119 2.39722 -2.93092e-18)
(0.416817 2.41857 0)
(0.387581 2.38227 3.36793e-18)
(0.41218 1.93167 0)
(0.394502 2.17422 -1.42351e-18)
(0.535299 1.67809 -5.44792e-20)
(0.313581 0.999122 -3.00328e-18)
(0.303812 0.68169 3.41506e-18)
(0.408767 0.999483 7.24814e-19)
(0.578754 1.59147 0)
(0.596092 1.70923 0)
(0.349408 0.915007 0)
(0.241278 0.606932 -2.50082e-18)
(0.518826 2.3231 -2.03203e-18)
(0.582798 1.95011 -4.72172e-19)
(0.597863 2.29494 3.95033e-19)
(0.361744 1.07485 0)
(0.370338 1.00775 0)
(0.26581 0.781384 -7.95416e-19)
(0.544312 1.64863 0)
(0.69789 1.39893 0)
(0.582194 1.43482 -2.91064e-18)
(0.651435 1.11914 -1.79693e-19)
(0.689126 1.76773 0)
(0.648803 1.93704 4.42e-18)
(0.900666 1.01041 -9.00052e-19)
(0.902039 1.1577 0)
(0.901812 1.09356 1.54281e-18)
(0.715742 1.1862 0)
(0.709749 1.14139 0)
(0.83245 2.21968 -1.17658e-18)
(0.92692 2.7832 -1.03028e-18)
(0.849769 2.85524 1.88415e-18)
(0.831449 2.79553 -6.04338e-19)
(0.704648 1.75081 0)
(0.709956 1.97727 8.01576e-19)
(0.463043 0.974383 -9.67542e-19)
(0.338617 0.682767 -1.32156e-20)
(0.712012 2.71208 0)
(0.645508 2.37071 -9.89825e-19)
(0.645078 2.16117 0)
(0.893853 0.185167 0)
(0.705483 0.139316 0)
(0.570346 0.12406 0)
(0.881583 0.210498 -2.77155e-18)
(0.714906 0.173646 1.53924e-18)
(0.858992 0.0406408 -1.86663e-18)
(0.993601 0.0886071 0)
(0.94637 0.0904194 7.78888e-19)
(0.731964 0.0464715 3.06837e-18)
(0.644056 0.0278048 -1.94235e-18)
(0.625612 3.07128 3.83684e-19)
(0.715015 3.2578 0)
(0.453567 3.08958 8.40206e-19)
(0.329283 3.55686 -7.08798e-19)
(0.402913 3.47945 -1.40486e-18)
(0.466132 1.27245 2.78803e-18)
(0.464912 1.67693 0)
(0.396239 0.620514 -5.62551e-19)
(0.524901 0.691599 3.66553e-18)
(0.573967 0.37217 -7.90584e-19)
(0.655854 0.426662 8.75918e-19)
(0.774873 0.518968 1.91973e-18)
(0.844202 0.569411 0)
(0.743502 0.57593 0)
(0.737744 0.519154 0)
(1.18334 0.668853 9.75531e-19)
(1.12426 0.590009 -2.57884e-18)
(1.12966 0.644062 2.26161e-18)
(1.17335 0.557743 -2.09918e-18)
(1.2683 0.534334 0)
(1.26179 0.599626 -6.77631e-19)
(0.994873 0.414538 -3.64559e-18)
(1.02041 0.3953 -4.71952e-18)
(0.88886 0.401867 2.78352e-18)
(0.842295 0.368266 -2.68493e-18)
(0.93281 0.323658 -2.24293e-18)
(0.853633 0.316786 2.73817e-18)
(1.30507 0.00796244 -2.83615e-18)
(1.31022 0.00835546 5.82428e-18)
(1.23346 0.00155903 3.55156e-18)
(1.23713 0.000272331 -4.18884e-18)
(1.26787 0.0138039 0)
(1.29428 0.0103171 -7.11974e-18)
(0.0345914 2.3099 2.58522e-19)
(0.0162971 2.31243 0)
(0.0769298 2.30165 2.29343e-18)
(0.0907622 2.31681 -2.07619e-18)
(0.0837257 2.32417 1.07018e-18)
(0.0436971 2.31458 0)
(-0.023765 2.2907 0)
(-0.0269542 2.23813 -1.52452e-19)
(-0.025213 2.2281 1.36285e-19)
(-0.0214313 2.24391 2.13142e-20)
(-0.0216008 2.26702 -2.36521e-19)
(-0.0184936 2.26446 1.29943e-19)
(0.56811 2.59807 -3.08384e-18)
(0.546007 2.57395 3.27447e-18)
(0.407155 2.37141 -1.80471e-18)
(0.488408 2.54751 1.49113e-19)
(0.542276 1.67609 0)
(0.456045 1.91733 -1.58283e-18)
(0.522601 1.67502 1.53998e-18)
(0.397803 2.18055 1.82564e-18)
(0.495286 2.24009 0)
(0.563209 2.06905 0)
(0.503056 2.15455 3.05963e-18)
(0.474335 1.60246 4.12926e-18)
(0.50942 1.73154 -2.99387e-18)
(0.4556 1.64463 -4.82272e-19)
(0.448921 2.05192 1.00258e-18)
(0.391916 1.82826 -2.46966e-18)
(0.421835 0.937646 -1.93459e-18)
(0.445281 0.883312 0)
(0.326793 0.652005 -1.96098e-18)
(0.684863 1.72063 0)
(0.648464 1.71794 0)
(0.420858 3.05193 -1.5821e-18)
(0.652698 3.3928 -9.64517e-19)
(0.494463 3.4663 1.48583e-18)
(0.160061 1.5539 0)
(0.227782 1.17385 -1.29212e-18)
(0.387925 1.5728 -1.74592e-18)
(0.327955 2.80891 0)
(0.211587 3.3377 1.0063e-18)
(0.0551941 3.19303 0)
(0.840316 0.728867 -3.8016e-18)
(0.938365 0.775637 5.45273e-18)
(0.96 0.69185 -5.41004e-18)
(0.814052 0.655262 -4.58151e-19)
(0.870247 0.634243 -1.93081e-18)
(0.698192 3.32154 7.95661e-19)
(0.824108 3.23147 -1.56962e-18)
(0.574087 3.06026 3.29559e-18)
(0.56528 2.74084 -2.30431e-18)
(0.809124 2.91618 -2.32101e-18)
(0.836446 3.1378 -3.07482e-19)
(0.882196 3.06357 1.79123e-18)
(0.694653 2.88945 1.48934e-19)
(0.686517 2.73145 1.0023e-18)
)
;

boundaryField
{
    wall-4
    {
        type            noSlip;
    }
    velocity-inlet-5
    {
        type            fixedValue;
        value           uniform (1 0 0);
    }
    velocity-inlet-6
    {
        type            fixedValue;
        value           uniform (0 3 0);
    }
    pressure-outlet-7
    {
        type            zeroGradient;
    }
    wall-8
    {
        type            noSlip;
    }
    frontAndBackPlanes
    {
        type            empty;
    }
}


// ************************************************************************* //
