# vtk DataFile Version 2.0
sampleSurface
ASCII
DATASET POLYDATA
POINTS 502 double
-0.0206 0 -0.0005
-0.0190172 0 -0.0005
-0.0190172 0 0.0005
-0.0206 0 0.0005
-0.0174976 0 -0.0005
-0.0174976 0 0.0005
-0.0160387 0 -0.0005
-0.0160387 0 0.0005
-0.0146381 0 -0.0005
-0.0146381 0 0.0005
-0.0132934 0 -0.0005
-0.0132934 0 0.0005
-0.0120025 0 -0.0005
-0.0120025 0 0.0005
-0.0107632 0 -0.0005
-0.0107632 0 0.0005
-0.00957337 0 -0.0005
-0.00957337 0 0.0005
-0.00843108 0 -0.0005
-0.00843108 0 0.0005
-0.00733443 0 -0.0005
-0.00733443 0 0.0005
-0.0062816 0 -0.0005
-0.0062816 0 0.0005
-0.00527083 0 -0.0005
-0.00527083 0 0.0005
-0.00430044 0 -0.0005
-0.00430044 0 0.0005
-0.00336883 0 -0.0005
-0.00336883 0 0.0005
-0.00247443 0 -0.0005
-0.00247443 0 0.0005
-0.00161577 0 -0.0005
-0.00161577 0 0.0005
-0.000791418 0 -0.0005
-0.000791418 0 0.0005
0 0 -0.0005
0 0 0.0005
0 -0.0254 -0.0005
0 -0.0254 0.0005
0 -0.0242711 0.0005
0 -0.0242711 -0.0005
0 -0.0231422 0.0005
0 -0.0231422 -0.0005
0 -0.0220133 0.0005
0 -0.0220133 -0.0005
0 -0.0208844 0.0005
0 -0.0208844 -0.0005
0 -0.0197556 0.0005
0 -0.0197556 -0.0005
0 -0.0186267 0.0005
0 -0.0186267 -0.0005
0 -0.0174978 0.0005
0 -0.0174978 -0.0005
0 -0.0163689 0.0005
0 -0.0163689 -0.0005
0 -0.01524 0.0005
0 -0.01524 -0.0005
0 -0.0141111 0.0005
0 -0.0141111 -0.0005
0 -0.0129822 0.0005
0 -0.0129822 -0.0005
0 -0.0118533 0.0005
0 -0.0118533 -0.0005
0 -0.0107244 0.0005
0 -0.0107244 -0.0005
0 -0.00959556 0.0005
0 -0.00959556 -0.0005
0 -0.00846667 0.0005
0 -0.00846667 -0.0005
0 -0.00726604 0.0005
0 -0.00726604 -0.0005
0 -0.00618989 0.0005
0 -0.00618989 -0.0005
0 -0.00522531 0.0005
0 -0.00522531 -0.0005
0 -0.00436073 0.0005
0 -0.00436073 -0.0005
0 -0.00358579 0.0005
0 -0.00358579 -0.0005
0 -0.00289118 0.0005
0 -0.00289118 -0.0005
0 -0.0022686 0.0005
0 -0.0022686 -0.0005
0 -0.00171055 0.0005
0 -0.00171055 -0.0005
0 -0.00121037 0.0005
0 -0.00121037 -0.0005
0 -0.000762037 0.0005
0 -0.000762037 -0.0005
0 -0.000360188 0.0005
0 -0.000360188 -0.0005
0.000528387 -0.0254 -0.0005
0.000528387 -0.0254 0.0005
0.00106088 -0.0254 -0.0005
0.00106088 -0.0254 0.0005
0.00159752 -0.0254 -0.0005
0.00159752 -0.0254 0.0005
0.00213833 -0.0254 -0.0005
0.00213833 -0.0254 0.0005
0.00268334 -0.0254 -0.0005
0.00268334 -0.0254 0.0005
0.00323259 -0.0254 -0.0005
0.00323259 -0.0254 0.0005
0.00378611 -0.0254 -0.0005
0.00378611 -0.0254 0.0005
0.00434393 -0.0254 -0.0005
0.00434393 -0.0254 0.0005
0.00490609 -0.0254 -0.0005
0.00490609 -0.0254 0.0005
0.00547262 -0.0254 -0.0005
0.00547262 -0.0254 0.0005
0.00604356 -0.0254 -0.0005
0.00604356 -0.0254 0.0005
0.00661893 -0.0254 -0.0005
0.00661893 -0.0254 0.0005
0.00719878 -0.0254 -0.0005
0.00719878 -0.0254 0.0005
0.00778313 -0.0254 -0.0005
0.00778313 -0.0254 0.0005
0.00837203 -0.0254 -0.0005
0.00837203 -0.0254 0.0005
0.00896551 -0.0254 -0.0005
0.00896551 -0.0254 0.0005
0.0095636 -0.0254 -0.0005
0.0095636 -0.0254 0.0005
0.0101663 -0.0254 -0.0005
0.0101663 -0.0254 0.0005
0.0107738 -0.0254 -0.0005
0.0107738 -0.0254 0.0005
0.0113859 -0.0254 -0.0005
0.0113859 -0.0254 0.0005
0.0120028 -0.0254 -0.0005
0.0120028 -0.0254 0.0005
0.0126245 -0.0254 -0.0005
0.0126245 -0.0254 0.0005
0.0132511 -0.0254 -0.0005
0.0132511 -0.0254 0.0005
0.0138825 -0.0254 -0.0005
0.0138825 -0.0254 0.0005
0.0145188 -0.0254 -0.0005
0.0145188 -0.0254 0.0005
0.0151601 -0.0254 -0.0005
0.0151601 -0.0254 0.0005
0.0158063 -0.0254 -0.0005
0.0158063 -0.0254 0.0005
0.0164576 -0.0254 -0.0005
0.0164576 -0.0254 0.0005
0.0171139 -0.0254 -0.0005
0.0171139 -0.0254 0.0005
0.0177754 -0.0254 -0.0005
0.0177754 -0.0254 0.0005
0.018442 -0.0254 -0.0005
0.018442 -0.0254 0.0005
0.0191137 -0.0254 -0.0005
0.0191137 -0.0254 0.0005
0.0197907 -0.0254 -0.0005
0.0197907 -0.0254 0.0005
0.020473 -0.0254 -0.0005
0.020473 -0.0254 0.0005
0.0211606 -0.0254 -0.0005
0.0211606 -0.0254 0.0005
0.0218535 -0.0254 -0.0005
0.0218535 -0.0254 0.0005
0.0225517 -0.0254 -0.0005
0.0225517 -0.0254 0.0005
0.0232555 -0.0254 -0.0005
0.0232555 -0.0254 0.0005
0.0239647 -0.0254 -0.0005
0.0239647 -0.0254 0.0005
0.0246794 -0.0254 -0.0005
0.0246794 -0.0254 0.0005
0.0253996 -0.0254 -0.0005
0.0253996 -0.0254 0.0005
0.0261255 -0.0254 -0.0005
0.0261255 -0.0254 0.0005
0.026857 -0.0254 -0.0005
0.026857 -0.0254 0.0005
0.0275942 -0.0254 -0.0005
0.0275942 -0.0254 0.0005
0.0283371 -0.0254 -0.0005
0.0283371 -0.0254 0.0005
0.0290858 -0.0254 -0.0005
0.0290858 -0.0254 0.0005
0.0298403 -0.0254 -0.0005
0.0298403 -0.0254 0.0005
0.0306007 -0.0254 -0.0005
0.0306007 -0.0254 0.0005
0.031367 -0.0254 -0.0005
0.031367 -0.0254 0.0005
0.0321393 -0.0254 -0.0005
0.0321393 -0.0254 0.0005
0.0329175 -0.0254 -0.0005
0.0329175 -0.0254 0.0005
0.0337019 -0.0254 -0.0005
0.0337019 -0.0254 0.0005
0.0344923 -0.0254 -0.0005
0.0344923 -0.0254 0.0005
0.0352888 -0.0254 -0.0005
0.0352888 -0.0254 0.0005
0.0360916 -0.0254 -0.0005
0.0360916 -0.0254 0.0005
0.0369006 -0.0254 -0.0005
0.0369006 -0.0254 0.0005
0.0377158 -0.0254 -0.0005
0.0377158 -0.0254 0.0005
0.0385375 -0.0254 -0.0005
0.0385375 -0.0254 0.0005
0.0393655 -0.0254 -0.0005
0.0393655 -0.0254 0.0005
0.0401999 -0.0254 -0.0005
0.0401999 -0.0254 0.0005
0.0410408 -0.0254 -0.0005
0.0410408 -0.0254 0.0005
0.0418883 -0.0254 -0.0005
0.0418883 -0.0254 0.0005
0.0427424 -0.0254 -0.0005
0.0427424 -0.0254 0.0005
0.0436031 -0.0254 -0.0005
0.0436031 -0.0254 0.0005
0.0444704 -0.0254 -0.0005
0.0444704 -0.0254 0.0005
0.0453446 -0.0254 -0.0005
0.0453446 -0.0254 0.0005
0.0462255 -0.0254 -0.0005
0.0462255 -0.0254 0.0005
0.0471133 -0.0254 -0.0005
0.0471133 -0.0254 0.0005
0.048008 -0.0254 -0.0005
0.048008 -0.0254 0.0005
0.0489096 -0.0254 -0.0005
0.0489096 -0.0254 0.0005
0.0498183 -0.0254 -0.0005
0.0498183 -0.0254 0.0005
0.050734 -0.0254 -0.0005
0.050734 -0.0254 0.0005
0.0516568 -0.0254 -0.0005
0.0516568 -0.0254 0.0005
0.0525868 -0.0254 -0.0005
0.0525868 -0.0254 0.0005
0.053524 -0.0254 -0.0005
0.053524 -0.0254 0.0005
0.0544686 -0.0254 -0.0005
0.0544686 -0.0254 0.0005
0.0554204 -0.0254 -0.0005
0.0554204 -0.0254 0.0005
0.0563797 -0.0254 -0.0005
0.0563797 -0.0254 0.0005
0.0573464 -0.0254 -0.0005
0.0573464 -0.0254 0.0005
0.0583206 -0.0254 -0.0005
0.0583206 -0.0254 0.0005
0.0593025 -0.0254 -0.0005
0.0593025 -0.0254 0.0005
0.0602919 -0.0254 -0.0005
0.0602919 -0.0254 0.0005
0.0612891 -0.0254 -0.0005
0.0612891 -0.0254 0.0005
0.0622939 -0.0254 -0.0005
0.0622939 -0.0254 0.0005
0.0633067 -0.0254 -0.0005
0.0633067 -0.0254 0.0005
0.0643272 -0.0254 -0.0005
0.0643272 -0.0254 0.0005
0.0653557 -0.0254 -0.0005
0.0653557 -0.0254 0.0005
0.0663923 -0.0254 -0.0005
0.0663923 -0.0254 0.0005
0.0674368 -0.0254 -0.0005
0.0674368 -0.0254 0.0005
0.0684895 -0.0254 -0.0005
0.0684895 -0.0254 0.0005
0.0695504 -0.0254 -0.0005
0.0695504 -0.0254 0.0005
0.0706195 -0.0254 -0.0005
0.0706195 -0.0254 0.0005
0.0716969 -0.0254 -0.0005
0.0716969 -0.0254 0.0005
0.0727828 -0.0254 -0.0005
0.0727828 -0.0254 0.0005
0.073877 -0.0254 -0.0005
0.073877 -0.0254 0.0005
0.0749798 -0.0254 -0.0005
0.0749798 -0.0254 0.0005
0.0760911 -0.0254 -0.0005
0.0760911 -0.0254 0.0005
0.0772111 -0.0254 -0.0005
0.0772111 -0.0254 0.0005
0.0783398 -0.0254 -0.0005
0.0783398 -0.0254 0.0005
0.0794772 -0.0254 -0.0005
0.0794772 -0.0254 0.0005
0.0806235 -0.0254 -0.0005
0.0806235 -0.0254 0.0005
0.0817787 -0.0254 -0.0005
0.0817787 -0.0254 0.0005
0.0829429 -0.0254 -0.0005
0.0829429 -0.0254 0.0005
0.0841162 -0.0254 -0.0005
0.0841162 -0.0254 0.0005
0.0852985 -0.0254 -0.0005
0.0852985 -0.0254 0.0005
0.0864901 -0.0254 -0.0005
0.0864901 -0.0254 0.0005
0.0876909 -0.0254 -0.0005
0.0876909 -0.0254 0.0005
0.0889011 -0.0254 -0.0005
0.0889011 -0.0254 0.0005
0.0901207 -0.0254 -0.0005
0.0901207 -0.0254 0.0005
0.0913497 -0.0254 -0.0005
0.0913497 -0.0254 0.0005
0.0925883 -0.0254 -0.0005
0.0925883 -0.0254 0.0005
0.0938366 -0.0254 -0.0005
0.0938366 -0.0254 0.0005
0.0950945 -0.0254 -0.0005
0.0950945 -0.0254 0.0005
0.0963622 -0.0254 -0.0005
0.0963622 -0.0254 0.0005
0.0976398 -0.0254 -0.0005
0.0976398 -0.0254 0.0005
0.0989273 -0.0254 -0.0005
0.0989273 -0.0254 0.0005
0.100225 -0.0254 -0.0005
0.100225 -0.0254 0.0005
0.101532 -0.0254 -0.0005
0.101532 -0.0254 0.0005
0.10285 -0.0254 -0.0005
0.10285 -0.0254 0.0005
0.104178 -0.0254 -0.0005
0.104178 -0.0254 0.0005
0.105517 -0.0254 -0.0005
0.105517 -0.0254 0.0005
0.106865 -0.0254 -0.0005
0.106865 -0.0254 0.0005
0.108225 -0.0254 -0.0005
0.108225 -0.0254 0.0005
0.109594 -0.0254 -0.0005
0.109594 -0.0254 0.0005
0.110975 -0.0254 -0.0005
0.110975 -0.0254 0.0005
0.112366 -0.0254 -0.0005
0.112366 -0.0254 0.0005
0.113768 -0.0254 -0.0005
0.113768 -0.0254 0.0005
0.115181 -0.0254 -0.0005
0.115181 -0.0254 0.0005
0.116605 -0.0254 -0.0005
0.116605 -0.0254 0.0005
0.11804 -0.0254 -0.0005
0.11804 -0.0254 0.0005
0.119486 -0.0254 -0.0005
0.119486 -0.0254 0.0005
0.120943 -0.0254 -0.0005
0.120943 -0.0254 0.0005
0.122412 -0.0254 -0.0005
0.122412 -0.0254 0.0005
0.123892 -0.0254 -0.0005
0.123892 -0.0254 0.0005
0.125384 -0.0254 -0.0005
0.125384 -0.0254 0.0005
0.126887 -0.0254 -0.0005
0.126887 -0.0254 0.0005
0.128402 -0.0254 -0.0005
0.128402 -0.0254 0.0005
0.129928 -0.0254 -0.0005
0.129928 -0.0254 0.0005
0.131467 -0.0254 -0.0005
0.131467 -0.0254 0.0005
0.133017 -0.0254 -0.0005
0.133017 -0.0254 0.0005
0.13458 -0.0254 -0.0005
0.13458 -0.0254 0.0005
0.136155 -0.0254 -0.0005
0.136155 -0.0254 0.0005
0.137742 -0.0254 -0.0005
0.137742 -0.0254 0.0005
0.139341 -0.0254 -0.0005
0.139341 -0.0254 0.0005
0.140953 -0.0254 -0.0005
0.140953 -0.0254 0.0005
0.142577 -0.0254 -0.0005
0.142577 -0.0254 0.0005
0.144214 -0.0254 -0.0005
0.144214 -0.0254 0.0005
0.145863 -0.0254 -0.0005
0.145863 -0.0254 0.0005
0.147526 -0.0254 -0.0005
0.147526 -0.0254 0.0005
0.149201 -0.0254 -0.0005
0.149201 -0.0254 0.0005
0.15089 -0.0254 -0.0005
0.15089 -0.0254 0.0005
0.152591 -0.0254 -0.0005
0.152591 -0.0254 0.0005
0.154306 -0.0254 -0.0005
0.154306 -0.0254 0.0005
0.156034 -0.0254 -0.0005
0.156034 -0.0254 0.0005
0.157775 -0.0254 -0.0005
0.157775 -0.0254 0.0005
0.159531 -0.0254 -0.0005
0.159531 -0.0254 0.0005
0.161299 -0.0254 -0.0005
0.161299 -0.0254 0.0005
0.163082 -0.0254 -0.0005
0.163082 -0.0254 0.0005
0.164878 -0.0254 -0.0005
0.164878 -0.0254 0.0005
0.166688 -0.0254 -0.0005
0.166688 -0.0254 0.0005
0.168513 -0.0254 -0.0005
0.168513 -0.0254 0.0005
0.170351 -0.0254 -0.0005
0.170351 -0.0254 0.0005
0.172204 -0.0254 -0.0005
0.172204 -0.0254 0.0005
0.174071 -0.0254 -0.0005
0.174071 -0.0254 0.0005
0.175953 -0.0254 -0.0005
0.175953 -0.0254 0.0005
0.177849 -0.0254 -0.0005
0.177849 -0.0254 0.0005
0.17976 -0.0254 -0.0005
0.17976 -0.0254 0.0005
0.181686 -0.0254 -0.0005
0.181686 -0.0254 0.0005
0.183627 -0.0254 -0.0005
0.183627 -0.0254 0.0005
0.185583 -0.0254 -0.0005
0.185583 -0.0254 0.0005
0.187555 -0.0254 -0.0005
0.187555 -0.0254 0.0005
0.189541 -0.0254 -0.0005
0.189541 -0.0254 0.0005
0.191543 -0.0254 -0.0005
0.191543 -0.0254 0.0005
0.193561 -0.0254 -0.0005
0.193561 -0.0254 0.0005
0.195594 -0.0254 -0.0005
0.195594 -0.0254 0.0005
0.197643 -0.0254 -0.0005
0.197643 -0.0254 0.0005
0.199708 -0.0254 -0.0005
0.199708 -0.0254 0.0005
0.201789 -0.0254 -0.0005
0.201789 -0.0254 0.0005
0.203886 -0.0254 -0.0005
0.203886 -0.0254 0.0005
0.206 -0.0254 -0.0005
0.206 -0.0254 0.0005
0.208047 -0.0251856 -0.0005
0.208047 -0.0251856 0.0005
0.210173 -0.0249628 -0.0005
0.210173 -0.0249628 0.0005
0.212382 -0.0247314 -0.0005
0.212382 -0.0247314 0.0005
0.214677 -0.024491 -0.0005
0.214677 -0.024491 0.0005
0.217061 -0.0242412 -0.0005
0.217061 -0.0242412 0.0005
0.219538 -0.0239817 -0.0005
0.219538 -0.0239817 0.0005
0.222112 -0.0237121 -0.0005
0.222112 -0.0237121 0.0005
0.224785 -0.023432 -0.0005
0.224785 -0.023432 0.0005
0.227563 -0.023141 -0.0005
0.227563 -0.023141 0.0005
0.230449 -0.0228387 -0.0005
0.230449 -0.0228387 0.0005
0.233447 -0.0225246 -0.0005
0.233447 -0.0225246 0.0005
0.236562 -0.0221983 -0.0005
0.236562 -0.0221983 0.0005
0.239797 -0.0218593 -0.0005
0.239797 -0.0218593 0.0005
0.243159 -0.0215071 -0.0005
0.243159 -0.0215071 0.0005
0.246652 -0.0211412 -0.0005
0.246652 -0.0211412 0.0005
0.250281 -0.0207611 -0.0005
0.250281 -0.0207611 0.0005
0.254051 -0.0203661 -0.0005
0.254051 -0.0203661 0.0005
0.257967 -0.0199558 -0.0005
0.257967 -0.0199558 0.0005
0.262036 -0.0195295 -0.0005
0.262036 -0.0195295 0.0005
0.266264 -0.0190867 -0.0005
0.266264 -0.0190867 0.0005
0.270655 -0.0186266 -0.0005
0.270655 -0.0186266 0.0005
0.275218 -0.0181486 -0.0005
0.275218 -0.0181486 0.0005
0.279959 -0.017652 -0.0005
0.279959 -0.017652 0.0005
0.284883 -0.017136 -0.0005
0.284883 -0.017136 0.0005
0.29 -0.0166 -0.0005
0.29 -0.0166 0.0005

POLYGONS 250 1250
4 0 1 2 3
4 1 4 5 2
4 4 6 7 5
4 6 8 9 7
4 8 10 11 9
4 10 12 13 11
4 12 14 15 13
4 14 16 17 15
4 16 18 19 17
4 18 20 21 19
4 20 22 23 21
4 22 24 25 23
4 24 26 27 25
4 26 28 29 27
4 28 30 31 29
4 30 32 33 31
4 32 34 35 33
4 34 36 37 35
4 38 39 40 41
4 41 40 42 43
4 43 42 44 45
4 45 44 46 47
4 47 46 48 49
4 49 48 50 51
4 51 50 52 53
4 53 52 54 55
4 55 54 56 57
4 57 56 58 59
4 59 58 60 61
4 61 60 62 63
4 63 62 64 65
4 65 64 66 67
4 67 66 68 69
4 69 68 70 71
4 71 70 72 73
4 73 72 74 75
4 75 74 76 77
4 77 76 78 79
4 79 78 80 81
4 81 80 82 83
4 83 82 84 85
4 85 84 86 87
4 87 86 88 89
4 89 88 90 91
4 91 90 37 36
4 38 92 93 39
4 92 94 95 93
4 94 96 97 95
4 96 98 99 97
4 98 100 101 99
4 100 102 103 101
4 102 104 105 103
4 104 106 107 105
4 106 108 109 107
4 108 110 111 109
4 110 112 113 111
4 112 114 115 113
4 114 116 117 115
4 116 118 119 117
4 118 120 121 119
4 120 122 123 121
4 122 124 125 123
4 124 126 127 125
4 126 128 129 127
4 128 130 131 129
4 130 132 133 131
4 132 134 135 133
4 134 136 137 135
4 136 138 139 137
4 138 140 141 139
4 140 142 143 141
4 142 144 145 143
4 144 146 147 145
4 146 148 149 147
4 148 150 151 149
4 150 152 153 151
4 152 154 155 153
4 154 156 157 155
4 156 158 159 157
4 158 160 161 159
4 160 162 163 161
4 162 164 165 163
4 164 166 167 165
4 166 168 169 167
4 168 170 171 169
4 170 172 173 171
4 172 174 175 173
4 174 176 177 175
4 176 178 179 177
4 178 180 181 179
4 180 182 183 181
4 182 184 185 183
4 184 186 187 185
4 186 188 189 187
4 188 190 191 189
4 190 192 193 191
4 192 194 195 193
4 194 196 197 195
4 196 198 199 197
4 198 200 201 199
4 200 202 203 201
4 202 204 205 203
4 204 206 207 205
4 206 208 209 207
4 208 210 211 209
4 210 212 213 211
4 212 214 215 213
4 214 216 217 215
4 216 218 219 217
4 218 220 221 219
4 220 222 223 221
4 222 224 225 223
4 224 226 227 225
4 226 228 229 227
4 228 230 231 229
4 230 232 233 231
4 232 234 235 233
4 234 236 237 235
4 236 238 239 237
4 238 240 241 239
4 240 242 243 241
4 242 244 245 243
4 244 246 247 245
4 246 248 249 247
4 248 250 251 249
4 250 252 253 251
4 252 254 255 253
4 254 256 257 255
4 256 258 259 257
4 258 260 261 259
4 260 262 263 261
4 262 264 265 263
4 264 266 267 265
4 266 268 269 267
4 268 270 271 269
4 270 272 273 271
4 272 274 275 273
4 274 276 277 275
4 276 278 279 277
4 278 280 281 279
4 280 282 283 281
4 282 284 285 283
4 284 286 287 285
4 286 288 289 287
4 288 290 291 289
4 290 292 293 291
4 292 294 295 293
4 294 296 297 295
4 296 298 299 297
4 298 300 301 299
4 300 302 303 301
4 302 304 305 303
4 304 306 307 305
4 306 308 309 307
4 308 310 311 309
4 310 312 313 311
4 312 314 315 313
4 314 316 317 315
4 316 318 319 317
4 318 320 321 319
4 320 322 323 321
4 322 324 325 323
4 324 326 327 325
4 326 328 329 327
4 328 330 331 329
4 330 332 333 331
4 332 334 335 333
4 334 336 337 335
4 336 338 339 337
4 338 340 341 339
4 340 342 343 341
4 342 344 345 343
4 344 346 347 345
4 346 348 349 347
4 348 350 351 349
4 350 352 353 351
4 352 354 355 353
4 354 356 357 355
4 356 358 359 357
4 358 360 361 359
4 360 362 363 361
4 362 364 365 363
4 364 366 367 365
4 366 368 369 367
4 368 370 371 369
4 370 372 373 371
4 372 374 375 373
4 374 376 377 375
4 376 378 379 377
4 378 380 381 379
4 380 382 383 381
4 382 384 385 383
4 384 386 387 385
4 386 388 389 387
4 388 390 391 389
4 390 392 393 391
4 392 394 395 393
4 394 396 397 395
4 396 398 399 397
4 398 400 401 399
4 400 402 403 401
4 402 404 405 403
4 404 406 407 405
4 406 408 409 407
4 408 410 411 409
4 410 412 413 411
4 412 414 415 413
4 414 416 417 415
4 416 418 419 417
4 418 420 421 419
4 420 422 423 421
4 422 424 425 423
4 424 426 427 425
4 426 428 429 427
4 428 430 431 429
4 430 432 433 431
4 432 434 435 433
4 434 436 437 435
4 436 438 439 437
4 438 440 441 439
4 440 442 443 441
4 442 444 445 443
4 444 446 447 445
4 446 448 449 447
4 448 450 451 449
4 450 452 453 451
4 452 454 455 453
4 454 456 457 455
4 456 458 459 457
4 458 460 461 459
4 460 462 463 461
4 462 464 465 463
4 464 466 467 465
4 466 468 469 467
4 468 470 471 469
4 470 472 473 471
4 472 474 475 473
4 474 476 477 475
4 476 478 479 477
4 478 480 481 479
4 480 482 483 481
4 482 484 485 483
4 484 486 487 485
4 486 488 489 487
4 488 490 491 489
4 490 492 493 491
4 492 494 495 493
4 494 496 497 495
4 496 498 499 497
4 498 500 501 499
POINT_DATA 502
FIELD attributes 1
U 3 502 float
1.63301 0.0706874 0.00623344
0.81814 0.0351716 0.00307185
0.81814 0.0351716 0.00307185
1.63301 0.0706874 0.00623344
0.0248342 0.000637229 0
0.0248342 0.000637229 0
0.0221235 0.000551983 0
0.0221235 0.000551983 0
0.0200204 0.000444871 0
0.0200204 0.000444871 0
0.0182691 0.000363525 0
0.0182691 0.000363525 0
0.0167304 0.000306543 0
0.0167304 0.000306543 0
0.0153718 0.00025122 0
0.0153718 0.00025122 0
0.014291 0.000179203 0
0.014291 0.000179203 0
0.0135411 9.90914e-05 0
0.0135411 9.90914e-05 0
0.0131797 2.15708e-05 0
0.0131797 2.15708e-05 0
0.0131297 -4.72474e-05 0
0.0131297 -4.72474e-05 0
0.0134018 -0.000109764 0
0.0134018 -0.000109764 0
0.0138203 -0.000131061 0
0.0138203 -0.000131061 0
0.0144388 -0.000162675 0
0.0144388 -0.000162675 0
0.0150967 -0.000153173 0
0.0150967 -0.000153173 0
0.0159363 -0.000228078 0
0.0159363 -0.000228078 0
0.0168221 -0.000232739 0
0.0168221 -0.000232739 0
0.00811683 2.17698e-05 0
0.00811683 2.17698e-05 0
-2.58707e-05 4.51174e-05 -1.67106e-23
-2.58707e-05 4.51174e-05 -1.67106e-23
-4.16242e-05 0.000163695 4.52277e-23
-4.16242e-05 0.000163695 4.52277e-23
-5.85046e-05 0.000380787 5.36488e-23
-5.85046e-05 0.000380787 5.36488e-23
-6.16308e-05 0.000587302 -1.07506e-22
-6.16308e-05 0.000587302 -1.07506e-22
-6.65153e-05 0.000818023 -3.58021e-23
-6.65153e-05 0.000818023 -3.58021e-23
-7.32403e-05 0.00108348 7.17702e-23
-7.32403e-05 0.00108348 7.17702e-23
-8.20602e-05 0.00139536 0
-8.20602e-05 0.00139536 0
-9.33497e-05 0.00176878 1.46321e-22
-9.33497e-05 0.00176878 1.46321e-22
-0.00010756 0.00221994 3.1124e-26
-0.00010756 0.00221994 3.1124e-26
-0.000125282 0.00277254 -1.46289e-22
-0.000125282 0.00277254 -1.46289e-22
-0.000146861 0.003443 1.50367e-22
-0.000146861 0.003443 1.50367e-22
-0.000170732 0.00426228 5.6628e-26
-0.000170732 0.00426228 5.6628e-26
-0.000195267 0.00522171 -1.50311e-22
-0.000195267 0.00522171 -1.50311e-22
-0.00021537 0.00632702 -1.56869e-22
-0.00021537 0.00632702 -1.56869e-22
-0.000210426 0.00751696 -9.64064e-26
-0.000210426 0.00751696 -9.64064e-26
-0.000162251 0.00865399 1.59552e-22
-0.000162251 0.00865399 1.59552e-22
-6.02978e-05 0.0095649 0
-6.02978e-05 0.0095649 0
0.000112049 0.00994464 0
0.000112049 0.00994464 0
0.000358433 0.00958546 0
0.000358433 0.00958546 0
0.000636474 0.0084369 0
0.000636474 0.0084369 0
0.000904587 0.00656622 0
0.000904587 0.00656622 0
0.00110975 0.00427419 0
0.00110975 0.00427419 0
0.00109393 0.0017015 0
0.00109393 0.0017015 0
0.000343983 -0.00036049 0
0.000343983 -0.00036049 0
-0.0013082 -0.00141705 0
-0.0013082 -0.00141705 0
-0.00231099 -0.000640936 0
-0.00231099 -0.000640936 0
-0.000828834 0.000318621 0
-0.000828834 0.000318621 0
-4.16333e-05 3.79127e-05 -7.09648e-26
-4.16333e-05 3.79127e-05 -7.09648e-26
-6.80265e-05 2.88533e-05 8.30565e-24
-6.80265e-05 2.88533e-05 8.30565e-24
-9.04035e-05 2.63831e-05 0
-9.04035e-05 2.63831e-05 0
-0.000112453 2.48131e-05 0
-0.000112453 2.48131e-05 0
-0.000132383 2.25878e-05 -8.04817e-24
-0.000132383 2.25878e-05 -8.04817e-24
-0.000150216 1.9749e-05 -8.06263e-24
-0.000150216 1.9749e-05 -8.06263e-24
-0.000165033 1.63806e-05 0
-0.000165033 1.63806e-05 0
-0.000176367 1.25397e-05 0
-0.000176367 1.25397e-05 0
-0.000183574 8.25425e-06 0
-0.000183574 8.25425e-06 0
-0.000186204 3.54362e-06 7.72595e-24
-0.000186204 3.54362e-06 7.72595e-24
-0.000183756 -1.48617e-06 7.74068e-24
-0.000183756 -1.48617e-06 7.74068e-24
-0.000175783 -6.7828e-06 0
-0.000175783 -6.7828e-06 0
-0.000161934 -1.23243e-05 0
-0.000161934 -1.23243e-05 0
-0.000141844 -1.79988e-05 0
-0.000141844 -1.79988e-05 0
-0.000115401 -2.37767e-05 7.38627e-24
-0.000115401 -2.37767e-05 7.38627e-24
-8.25888e-05 -2.95584e-05 7.40119e-24
-8.25888e-05 -2.95584e-05 7.40119e-24
-4.30766e-05 -3.51949e-05 0
-4.30766e-05 -3.51949e-05 0
3.33947e-06 -4.06946e-05 0
3.33947e-06 -4.06946e-05 0
5.61828e-05 -4.60116e-05 0
5.61828e-05 -4.60116e-05 0
0.000115088 -5.10403e-05 0
0.000115088 -5.10403e-05 0
0.000179954 -5.57255e-05 0
0.000179954 -5.57255e-05 0
0.000250479 -6.00214e-05 0
0.000250479 -6.00214e-05 0
0.000326298 -6.38913e-05 6.82132e-24
0.000326298 -6.38913e-05 6.82132e-24
0.000406994 -6.73077e-05 8.53046e-26
0.000406994 -6.73077e-05 8.53046e-26
0.000492109 -7.02521e-05 -8.47943e-26
0.000492109 -7.02521e-05 -8.47943e-26
0.000581156 -7.27154e-05 1.33088e-23
0.000581156 -7.27154e-05 1.33088e-23
0.000673629 -7.46968e-05 6.62739e-24
0.000673629 -7.46968e-05 6.62739e-24
0.00076901 -7.62038e-05 0
0.00076901 -7.62038e-05 0
0.000866781 -7.72508e-05 -6.40951e-24
0.000866781 -7.72508e-05 -6.40951e-24
0.000966431 -7.78582e-05 -1.27683e-23
0.000966431 -7.78582e-05 -1.27683e-23
0.00106746 -7.80514e-05 -6.35875e-24
0.00106746 -7.80514e-05 -6.35875e-24
0.00116939 -7.78594e-05 0
0.00116939 -7.78594e-05 0
0.00127177 -7.73143e-05 -6.15161e-24
0.00127177 -7.73143e-05 -6.15161e-24
0.00137417 -7.64496e-05 -6.16676e-24
0.00137417 -7.64496e-05 -6.16676e-24
0.0014762 -7.52998e-05 0
0.0014762 -7.52998e-05 0
0.0015775 -7.38994e-05 5.96835e-24
0.0015775 -7.38994e-05 5.96835e-24
0.00167775 -7.22822e-05 5.98352e-24
0.00167775 -7.22822e-05 5.98352e-24
0.00177664 -7.04809e-05 5.85094e-24
0.00177664 -7.04809e-05 5.85094e-24
0.00187394 -6.85267e-05 1.74533e-23
0.00187394 -6.85267e-05 1.74533e-23
0.0019694 -6.64487e-05 1.16176e-23
0.0019694 -6.64487e-05 1.16176e-23
0.00206286 -6.42742e-05 0
0.00206286 -6.42742e-05 0
0.00215413 -6.20281e-05 0
0.00215413 -6.20281e-05 0
0.0022431 -5.97329e-05 0
0.0022431 -5.97329e-05 0
0.00232966 -5.74088e-05 0
0.00232966 -5.74088e-05 0
0.00241373 -5.5074e-05 1.09336e-23
0.00241373 -5.5074e-05 1.09336e-23
0.00249524 -5.27442e-05 2.17938e-23
0.00249524 -5.27442e-05 2.17938e-23
0.00257416 -5.0433e-05 2.15875e-23
0.00257416 -5.0433e-05 2.15875e-23
0.00265047 -4.81524e-05 1.07577e-23
0.00265047 -4.81524e-05 1.07577e-23
0.00272416 -4.59121e-05 -1.05257e-23
0.00272416 -4.59121e-05 -1.05257e-23
0.00279524 -4.37205e-05 -1.05562e-23
0.00279524 -4.37205e-05 -1.05562e-23
0.00286373 -4.15843e-05 1.03286e-23
0.00286373 -4.15843e-05 1.03286e-23
0.00292965 -3.9509e-05 2.05907e-23
0.00292965 -3.9509e-05 2.05907e-23
0.00299306 -3.74987e-05 1.02621e-23
0.00299306 -3.74987e-05 1.02621e-23
0.00305399 -3.55565e-05 0
0.00305399 -3.55565e-05 0
0.0031125 -3.36846e-05 0
0.0031125 -3.36846e-05 0
0.00316864 -3.18844e-05 9.85245e-24
0.00316864 -3.18844e-05 9.85245e-24
0.00322249 -3.01563e-05 9.88297e-24
0.00322249 -3.01563e-05 9.88297e-24
0.0032741 -2.85006e-05 0
0.0032741 -2.85006e-05 0
0.00332353 -2.69166e-05 0
0.00332353 -2.69166e-05 0
0.00337087 -2.54034e-05 0
0.00337087 -2.54034e-05 0
0.00341618 -2.39599e-05 0
0.00341618 -2.39599e-05 0
0.00345953 -2.25844e-05 0
0.00345953 -2.25844e-05 0
0.00350099 -2.12752e-05 0
0.00350099 -2.12752e-05 0
0.00354063 -2.00303e-05 0
0.00354063 -2.00303e-05 0
0.00357852 -1.88475e-05 -9.04312e-24
0.00357852 -1.88475e-05 -9.04312e-24
0.00361473 -1.77249e-05 -9.0735e-24
0.00361473 -1.77249e-05 -9.0735e-24
0.00364933 -1.666e-05 0
0.00364933 -1.666e-05 0
0.00368239 -1.56506e-05 8.78453e-24
0.00368239 -1.56506e-05 8.78453e-24
0.00371396 -1.46944e-05 1.75143e-23
0.00371396 -1.46944e-05 1.75143e-23
0.00374411 -1.37892e-05 8.72972e-24
0.00374411 -1.37892e-05 8.72972e-24
0.0037729 -1.29326e-05 -8.5309e-24
0.0037729 -1.29326e-05 -8.5309e-24
0.0038004 -1.21226e-05 -1.13677e-25
0.0038004 -1.21226e-05 -1.13677e-25
0.00382665 -1.13568e-05 8.47755e-24
0.00382665 -1.13568e-05 8.47755e-24
0.00385172 -1.06333e-05 -8.28196e-24
0.00385172 -1.06333e-05 -8.28196e-24
0.00387566 -9.94987e-06 -8.31201e-24
0.00387566 -9.94987e-06 -8.31201e-24
0.00389852 -9.30466e-06 0
0.00389852 -9.30466e-06 0
0.00392035 -8.69572e-06 8.03754e-24
0.00392035 -8.69572e-06 8.03754e-24
0.0039412 -8.12121e-06 8.06742e-24
0.0039412 -8.12121e-06 8.06742e-24
0.00396111 -7.57937e-06 -7.87703e-24
0.00396111 -7.57937e-06 -7.87703e-24
0.00398014 -7.06848e-06 -7.90679e-24
0.00398014 -7.06848e-06 -7.90679e-24
0.00399832 -6.58694e-06 7.71843e-24
0.00399832 -6.58694e-06 7.71843e-24
0.0040157 -6.13317e-06 1.53879e-23
0.0040157 -6.13317e-06 1.53879e-23
0.00403232 -5.70568e-06 1.52311e-23
0.00403232 -5.70568e-06 1.52311e-23
0.0040482 -5.30302e-06 2.25593e-23
0.0040482 -5.30302e-06 2.25593e-23
0.0040634 -4.92384e-06 2.13209e-25
0.0040634 -4.92384e-06 2.13209e-25
0.00407795 -4.56689e-06 -1.48724e-23
0.00407795 -4.56689e-06 -1.48724e-23
0.00409187 -4.23077e-06 0
0.00409187 -4.23077e-06 0
0.00410521 -3.9145e-06 0
0.00410521 -3.9145e-06 0
0.00411798 -3.61703e-06 -1.42052e-23
0.00411798 -3.61703e-06 -1.42052e-23
0.00413023 -3.33654e-06 -2.83185e-23
0.00413023 -3.33654e-06 -2.83185e-23
0.00414198 -3.0731e-06 -2.06751e-25
0.00414198 -3.0731e-06 -2.06751e-25
0.00415326 -2.82585e-06 1.39639e-23
0.00415326 -2.82585e-06 1.39639e-23
0.0041641 -2.59079e-06 -1.3611e-23
0.0041641 -2.59079e-06 -1.3611e-23
0.0041745 -2.3705e-06 -2.71327e-23
0.0041745 -2.3705e-06 -2.71327e-23
0.00418452 -2.16647e-06 -2.68407e-23
0.00418452 -2.16647e-06 -2.68407e-23
0.00419415 -1.9663e-06 -1.33758e-23
0.00419415 -1.9663e-06 -1.33758e-23
0.00420343 -1.77252e-06 0
0.00420343 -1.77252e-06 0
0.00421236 -1.59817e-06 0
0.00421236 -1.59817e-06 0
0.00422099 -1.4152e-06 -1.27456e-23
0.00422099 -1.4152e-06 -1.27456e-23
0.00422929 -1.19714e-06 -1.28014e-23
0.00422929 -1.19714e-06 -1.28014e-23
0.00423723 -9.64374e-07 0
0.00423723 -9.64374e-07 0
0.00424484 -7.48202e-07 1.23243e-23
0.00424484 -7.48202e-07 1.23243e-23
0.00425212 -5.64957e-07 1.23794e-23
0.00425212 -5.64957e-07 1.23794e-23
0.00425912 -4.17899e-07 0
0.00425912 -4.17899e-07 0
0.00426589 -3.05366e-07 1.19104e-23
0.00426589 -3.05366e-07 1.19104e-23
0.00427245 -2.20171e-07 1.19646e-23
0.00427245 -2.20171e-07 1.19646e-23
0.00427883 -1.53278e-07 0
0.00427883 -1.53278e-07 0
0.00428507 -9.73878e-08 -1.15035e-23
0.00428507 -9.73878e-08 -1.15035e-23
0.00429116 -4.79127e-08 -2.29264e-23
0.00429116 -4.79127e-08 -2.29264e-23
0.00429712 -2.47456e-09 -1.14226e-23
0.00429712 -2.47456e-09 -1.14226e-23
0.00430297 3.99805e-08 1.11037e-23
0.00430297 3.99805e-08 1.11037e-23
0.00430871 7.98794e-08 1.11562e-23
0.00430871 7.98794e-08 1.11562e-23
0.00431435 1.1741e-07 -1.08409e-23
0.00431435 1.1741e-07 -1.08409e-23
0.0043199 1.52686e-07 -1.08928e-23
0.0043199 1.52686e-07 -1.08928e-23
0.00432537 1.85804e-07 -1.05811e-23
0.00432537 1.85804e-07 -1.05811e-23
0.00433076 2.16859e-07 -2.10847e-23
0.00433076 2.16859e-07 -2.10847e-23
0.00433609 2.45947e-07 -1.05033e-23
0.00433609 2.45947e-07 -1.05033e-23
0.00434135 2.73163e-07 0
0.00434135 2.73163e-07 0
0.00434656 2.98608e-07 0
0.00434656 2.98608e-07 0
0.00435172 3.2239e-07 0
0.00435172 3.2239e-07 0
0.00435684 3.44606e-07 0
0.00435684 3.44606e-07 0
0.00436192 3.65355e-07 0
0.00436192 3.65355e-07 0
0.00436697 3.84737e-07 0
0.00436697 3.84737e-07 0
0.004372 4.02855e-07 -9.44739e-24
0.004372 4.02855e-07 -9.44739e-24
0.004377 4.19803e-07 -1.70673e-25
0.004377 4.19803e-07 -1.70673e-25
0.00438199 4.35652e-07 9.37256e-24
0.00438199 4.35652e-07 9.37256e-24
0.00438696 4.50451e-07 0
0.00438696 4.50451e-07 0
0.00439193 4.64258e-07 0
0.00439193 4.64258e-07 0
0.00439689 4.77147e-07 0
0.00439689 4.77147e-07 0
0.00440184 4.89199e-07 1.74433e-23
0.00440184 4.89199e-07 1.74433e-23
0.0044068 5.00487e-07 1.75349e-23
0.0044068 5.00487e-07 1.75349e-23
0.00441177 5.11075e-07 -1.69694e-23
0.00441177 5.11075e-07 -1.69694e-23
0.00441674 5.21017e-07 -3.2514e-25
0.00441674 5.21017e-07 -3.2514e-25
0.00442173 5.3036e-07 1.68235e-23
0.00442173 5.3036e-07 1.68235e-23
0.00442673 5.39155e-07 0
0.00442673 5.39155e-07 0
0.00443175 5.47449e-07 0
0.00443175 5.47449e-07 0
0.00443678 5.55285e-07 -1.58056e-23
0.00443678 5.55285e-07 -1.58056e-23
0.00444184 5.62708e-07 -3.14676e-23
0.00444184 5.62708e-07 -3.14676e-23
0.00444692 5.6976e-07 -1.56612e-23
0.00444692 5.6976e-07 -1.56612e-23
0.00445202 5.76481e-07 -1.51208e-23
0.00445202 5.76481e-07 -1.51208e-23
0.00445716 5.82907e-07 -3.00988e-23
0.00445716 5.82907e-07 -3.00988e-23
0.00446232 5.89079e-07 -3.0746e-25
0.00446232 5.89079e-07 -3.0746e-25
0.00446751 5.95051e-07 1.47512e-23
0.00446751 5.95051e-07 1.47512e-23
0.00447274 6.00897e-07 0
0.00447274 6.00897e-07 0
0.004478 6.06688e-07 1.40007e-23
0.004478 6.06688e-07 1.40007e-23
0.00448329 6.12479e-07 1.40796e-23
0.00448329 6.12479e-07 1.40796e-23
0.00448862 6.18323e-07 0
0.00448862 6.18323e-07 0
0.00449398 6.24293e-07 0
0.00449398 6.24293e-07 0
0.00449938 6.30484e-07 0
0.00449938 6.30484e-07 0
0.00450481 6.37006e-07 -1.29051e-23
0.00450481 6.37006e-07 -1.29051e-23
0.00451028 6.43988e-07 -2.5668e-23
0.00451028 6.43988e-07 -2.5668e-23
0.00451579 6.51579e-07 -1.27619e-23
0.00451579 6.51579e-07 -1.27619e-23
0.00452132 6.59965e-07 -1.22584e-23
0.00452132 6.59965e-07 -1.22584e-23
0.00452689 6.69377e-07 -1.23298e-23
0.00452689 6.69377e-07 -1.23298e-23
0.00453249 6.80108e-07 0
0.00453249 6.80108e-07 0
0.0045381 6.92526e-07 -1.16192e-23
0.0045381 6.92526e-07 -1.16192e-23
0.00454374 7.07103e-07 -1.16875e-23
0.00454374 7.07103e-07 -1.16875e-23
0.00454938 7.24434e-07 -1.11968e-23
0.00454938 7.24434e-07 -1.11968e-23
0.00455502 7.45281e-07 -1.12632e-23
0.00455502 7.45281e-07 -1.12632e-23
0.00456065 7.70621e-07 0
0.00456065 7.70621e-07 0
0.00456624 8.01718e-07 -1.05685e-23
0.00456624 8.01718e-07 -1.05685e-23
0.00457177 8.40199e-07 -1.06319e-23
0.00457177 8.40199e-07 -1.06319e-23
0.00457721 8.88216e-07 -1.01529e-23
0.00457721 8.88216e-07 -1.01529e-23