/*--------------------------------*- C++ -*----------------------------------*\
  =========                 |
  \\      /  F ield         | OpenFOAM: The Open Source CFD Toolbox
   \\    /   O peration     | Website:  https://openfoam.org
    \\  /    A nd           | Version:  7
     \\/     M anipulation  |
\*---------------------------------------------------------------------------*/
FoamFile
{
    version     2.0;
    format      ascii;
    class       volScalarField;
    location    "0.038";
    object      p;
}
// * * * * * * * * * * * * * * * * * * * * * * * * * * * * * * * * * * * * * //

dimensions      [0 2 -2 0 0 0 0];

internalField   nonuniform List<scalar> 
12225
(
503.166
500.287
496.418
492.158
487.881
483.674
479.547
475.528
471.64
467.877
464.219
460.652
457.16
453.722
450.297
446.824
443.175
439.074
503.489
500.313
496.428
492.169
487.883
483.669
479.543
475.528
471.642
467.88
464.224
460.659
457.172
453.74
450.325
446.871
443.272
439.363
504.186
500.344
496.431
492.188
487.891
483.668
479.541
475.529
471.646
467.888
464.237
460.681
457.205
453.785
450.39
446.971
443.461
439.788
504.376
500.42
496.476
492.228
487.916
483.679
479.549
475.539
471.658
467.903
464.26
460.715
457.252
453.851
450.485
447.118
443.716
440.275
504.519
500.499
496.533
492.279
487.951
483.694
479.555
475.546
471.67
467.922
464.29
460.759
457.315
453.94
450.613
447.314
444.03
440.798
504.096
500.607
496.634
492.352
487.998
483.722
479.573
475.563
471.691
467.951
464.33
460.816
457.395
454.053
450.777
447.553
444.391
441.335
503.277
500.766
496.783
492.449
488.063
483.759
479.594
475.58
471.714
467.984
464.379
460.887
457.495
454.193
450.972
447.83
444.782
441.874
503.572
501.117
497.002
492.574
488.135
483.801
479.621
475.605
471.744
468.026
464.44
460.973
457.615
454.358
451.198
448.138
445.197
442.411
505.171
501.732
497.297
492.735
488.23
483.858
479.657
475.633
471.777
468.074
464.509
461.071
457.751
454.544
451.448
448.469
445.624
442.941
508.218
502.526
497.668
492.923
488.323
483.906
479.685
475.659
471.812
468.127
464.589
461.186
457.909
454.753
451.721
448.819
446.059
443.463
509.529
503.308
498.074
493.131
488.43
483.966
479.724
475.691
471.852
468.186
464.675
461.307
458.074
454.973
452.006
449.176
446.494
443.972
510.084
503.949
498.465
493.331
488.517
483.997
479.735
475.704
471.879
468.237
464.76
461.432
458.244
455.193
452.282
449.513
446.893
444.429
509.812
504.562
498.863
493.519
488.588
484.022
479.75
475.721
471.909
468.291
464.843
461.552
458.408
455.409
452.553
449.843
447.281
444.87
510.998
505.418
499.3
493.691
488.632
484.01
479.722
475.703
471.919
468.338
464.937
461.696
458.607
455.666
452.871
450.221
447.718
445.36
516.311
506.832
499.722
493.769
488.575
483.92
479.647
475.662
471.916
468.381
465.031
461.847
458.819
455.942
453.213
450.629
448.187
445.884
517.638
507.409
499.702
493.546
488.312
483.673
479.44
475.514
471.839
468.378
465.103
461.996
459.046
456.245
453.588
451.072
448.693
446.445
517.71
506.463
498.641
492.617
487.568
483.108
479.031
475.239
471.68
468.321
465.14
462.12
459.254
456.534
453.955
451.51
449.195
447.005
511.013
501.737
495.562
490.576
486.171
482.115
478.314
474.732
471.345
468.134
465.084
462.184
459.426
456.804
454.313
451.947
449.702
447.572
487.432
491.274
490.058
487.257
483.965
480.58
477.231
473.974
470.832
467.813
464.919
462.152
459.511
456.992
454.592
452.307
450.133
448.066
496.158
491.422
488.459
485.583
482.561
479.471
476.373
473.324
470.36
467.494
464.733
462.081
459.539
457.107
454.783
452.566
450.451
448.435
489.09
489.218
487.215
484.546
481.666
478.724
475.776
472.856
470.001
467.229
464.55
461.969
459.49
457.114
454.841
452.669
450.594
448.613
493.188
489.527
486.799
484.028
481.161
478.285
475.417
472.575
469.789
467.08
464.458
461.927
459.494
457.158
454.918
452.773
450.722
448.762
490.586
489.113
486.533
483.721
480.837
477.969
475.134
472.335
469.592
466.923
464.338
461.843
459.443
457.139
454.927
452.807
450.78
448.841
493.169
489.405
486.45
483.56
480.67
477.819
475.006
472.229
469.507
466.861
464.3
461.827
459.447
457.156
454.959
452.852
450.836
448.907
492.005
489.42
486.389
483.414
480.513
477.671
474.872
472.113
469.408
466.779
464.238
461.787
459.424
457.148
454.963
452.868
450.863
448.944
492.187
489.557
486.437
483.398
480.49
477.642
474.833
472.067
469.366
466.748
464.219
461.779
459.425
457.158
454.98
452.89
450.888
448.973
494.301
489.73
486.32
483.305
480.427
477.588
474.783
472.02
469.323
466.712
464.192
461.761
459.416
457.157
454.984
452.898
450.899
448.988
494.219
489.859
486.358
483.322
480.434
477.584
474.767
472.001
469.306
466.699
464.185
461.76
459.421
457.165
454.992
452.906
450.908
448.999
492.835
489.646
486.274
483.304
480.425
477.571
474.752
471.985
469.289
466.683
464.174
461.757
459.423
457.169
454.996
452.907
450.906
448.997
493.936
489.662
486.26
483.325
480.437
477.574
474.752
471.982
469.284
466.678
464.172
461.758
459.428
457.177
455.003
452.913
450.911
449.001
402.507
402.491
402.443
402.364
402.252
402.106
401.926
401.711
401.458
401.168
400.84
400.475
400.075
399.644
399.189
398.719
398.244
397.776
397.328
396.905
396.513
396.15
395.81
395.478
395.14
394.781
394.389
393.957
393.483
392.982
392.503
392.061
391.567
390.913
390.085
389.093
387.957
386.703
385.356
383.942
382.484
381.006
379.529
378.072
376.653
375.289
373.992
372.775
371.644
370.605
369.66
368.809
368.05
367.372
366.765
366.216
365.71
365.234
364.776
364.325
363.869
363.401
362.916
362.411
361.883
361.334
360.767
360.186
359.595
358.998
358.398
357.794
357.181
356.552
355.896
355.202
354.46
353.66
352.801
351.879
350.895
349.852
348.754
347.605
346.409
345.169
343.89
342.575
341.228
339.85
338.445
337.015
335.562
334.087
332.592
331.079
329.548
328
326.437
324.859
323.267
321.661
320.041
318.408
316.763
315.104
313.432
311.748
310.05
308.34
306.617
304.881
303.131
301.369
299.592
297.803
296
294.183
292.352
290.507
288.648
286.775
284.888
282.986
281.07
279.139
277.193
275.232
273.257
271.266
269.259
267.238
265.2
263.147
261.078
258.993
256.892
254.775
252.641
250.49
248.323
246.14
243.939
241.721
239.486
237.234
234.964
232.676
230.371
228.048
225.707
223.348
220.97
218.574
216.159
213.726
211.274
208.803
206.313
203.803
201.275
198.726
196.159
193.572
190.965
188.339
185.693
183.028
180.344
177.641
174.919
172.18
169.423
166.652
163.867
161.072
158.271
155.471
152.685
149.932
402.568
402.546
402.494
402.411
402.298
402.152
401.971
401.755
401.501
401.207
400.874
400.501
400.09
399.646
399.176
398.687
398.192
397.703
397.229
396.779
396.365
395.995
395.668
395.371
395.089
394.809
394.526
394.22
393.766
393.11
392.45
391.865
391.255
390.524
389.643
388.618
387.465
386.207
384.866
383.464
382.025
380.568
379.114
377.68
376.282
374.937
373.659
372.461
371.352
370.338
369.422
368.599
367.864
367.207
366.619
366.088
365.6
365.142
364.7
364.262
363.819
363.361
362.883
362.381
361.854
361.303
360.731
360.143
359.545
358.942
358.337
357.731
357.12
356.495
355.846
355.159
354.424
353.631
352.776
351.858
350.877
349.837
348.741
347.594
346.399
345.16
343.882
342.568
341.221
339.845
338.44
337.011
335.558
334.083
332.589
331.075
329.545
327.997
326.434
324.857
323.265
321.659
320.039
318.406
316.761
315.102
313.43
311.746
310.049
308.339
306.616
304.879
303.13
301.367
299.591
297.802
295.999
294.182
292.351
290.506
288.647
286.774
284.887
282.985
281.069
279.138
277.193
275.232
273.256
271.265
269.259
267.237
265.2
263.147
261.078
258.993
256.892
254.775
252.641
250.49
248.323
246.14
243.939
241.721
239.486
237.234
234.964
232.676
230.371
228.048
225.707
223.348
220.97
218.574
216.159
213.726
211.274
208.803
206.313
203.803
201.274
198.726
196.159
193.572
190.965
188.339
185.693
183.027
180.343
177.64
174.918
172.178
169.421
166.649
163.863
161.067
158.263
155.458
152.665
149.887
402.715
402.689
402.633
402.549
402.434
402.286
402.104
401.885
401.626
401.326
400.982
400.595
400.166
399.696
399.193
398.666
398.129
397.598
397.092
396.623
396.204
395.843
395.541
395.281
395.013
394.674
394.266
393.827
393.352
392.796
392.153
391.445
390.67
389.813
388.863
387.815
386.674
385.448
384.149
382.794
381.397
379.976
378.551
377.139
375.759
374.429
373.164
371.979
370.885
369.891
368.996
368.199
367.493
366.87
366.319
365.825
365.374
364.951
364.541
364.133
363.714
363.277
362.813
362.32
361.795
361.24
360.659
360.058
359.445
358.827
358.211
357.599
356.989
356.372
355.736
355.065
354.344
353.565
352.721
351.811
350.837
349.802
348.711
347.567
346.375
345.139
343.863
342.551
341.206
339.83
338.427
336.999
335.547
334.073
332.579
331.066
329.536
327.989
326.427
324.849
323.257
321.652
320.033
318.4
316.755
315.096
313.425
311.741
310.044
308.335
306.612
304.876
303.127
301.365
299.589
297.799
295.996
294.18
292.349
290.505
288.646
286.773
284.886
282.985
281.069
279.138
277.192
275.232
273.256
271.265
269.259
267.237
265.2
263.147
261.078
258.993
256.892
254.775
252.641
250.49
248.323
246.14
243.939
241.721
239.486
237.234
234.964
232.676
230.371
228.048
225.707
223.348
220.97
218.574
216.159
213.726
211.274
208.803
206.312
203.803
201.274
198.726
196.158
193.571
190.964
188.338
185.692
183.026
180.342
177.638
174.915
172.175
169.417
166.644
163.856
161.055
158.247
155.433
152.624
149.813
402.973
402.945
402.889
402.806
402.692
402.546
402.365
402.148
401.891
401.592
401.25
400.862
400.432
399.958
399.45
398.916
398.371
397.828
397.301
396.805
396.351
395.944
395.583
395.256
394.934
394.572
394.14
393.637
393.067
392.431
391.728
390.957
390.111
389.187
388.184
387.101
385.939
384.704
383.405
382.053
380.662
379.248
377.828
376.421
375.045
373.719
372.462
371.288
370.21
369.235
368.366
367.601
366.937
366.363
365.867
365.43
365.036
364.667
364.308
363.944
363.564
363.157
362.717
362.238
361.718
361.158
360.564
359.942
359.303
358.658
358.02
357.395
356.783
356.177
355.561
354.914
354.218
353.459
352.633
351.737
350.774
349.748
348.664
347.526
346.338
345.107
343.835
342.526
341.183
339.81
338.408
336.981
335.53
334.058
332.565
331.053
329.523
327.977
326.415
324.838
323.247
321.642
320.023
318.392
316.747
315.089
313.418
311.735
310.038
308.329
306.607
304.871
303.122
301.36
299.585
297.796
295.993
294.177
292.347
290.502
288.644
286.771
284.884
282.983
281.067
279.137
277.191
275.231
273.255
271.264
269.258
267.237
265.199
263.146
261.078
258.993
256.892
254.774
252.64
250.49
248.323
246.139
243.939
241.721
239.486
237.234
234.964
232.676
230.371
228.048
225.707
223.348
220.97
218.574
216.159
213.726
211.274
208.802
206.312
203.803
201.274
198.726
196.158
193.57
190.964
188.337
185.691
183.025
180.34
177.635
174.912
172.171
169.412
166.636
163.846
161.041
158.227
155.403
152.577
149.737
403.348
403.321
403.267
403.186
403.076
402.935
402.761
402.552
402.305
402.02
401.693
401.325
400.916
400.466
399.981
399.47
398.948
398.427
397.915
397.421
396.947
396.494
396.055
395.618
395.168
394.685
394.152
393.558
392.899
392.179
391.4
390.556
389.643
388.657
387.595
386.459
385.251
383.978
382.649
381.274
379.866
378.439
377.007
375.59
374.206
372.876
371.617
370.445
369.37
368.406
367.567
366.853
366.253
365.75
365.326
364.962
364.637
364.333
364.033
363.722
363.388
363.019
362.607
362.147
361.634
361.069
360.455
359.801
359.122
358.435
357.757
357.103
356.482
355.886
355.298
354.688
354.029
353.303
352.504
351.629
350.684
349.671
348.598
347.469
346.288
345.063
343.796
342.491
341.152
339.782
338.383
336.958
335.509
334.038
332.546
331.035
329.506
327.961
326.4
324.824
323.233
321.629
320.011
318.38
316.735
315.078
313.408
311.725
310.03
308.321
306.599
304.864
303.116
301.355
299.58
297.791
295.989
294.173
292.343
290.499
288.641
286.769
284.882
282.981
281.065
279.135
277.19
275.229
273.254
271.263
269.257
267.236
265.199
263.146
261.077
258.992
256.891
254.774
252.64
250.49
248.323
246.139
243.939
241.721
239.486
237.234
234.964
232.676
230.371
228.048
225.707
223.348
220.97
218.574
216.159
213.726
211.274
208.802
206.312
203.802
201.273
198.725
196.157
193.57
190.963
188.336
185.689
183.023
180.337
177.632
174.908
172.166
169.405
166.627
163.834
161.025
158.204
155.37
152.526
149.662
403.833
403.808
403.757
403.68
403.575
403.441
403.277
403.081
402.851
402.586
402.284
401.945
401.569
401.158
400.719
400.255
399.769
399.268
398.759
398.247
397.733
397.215
396.688
396.143
395.57
394.963
394.313
393.614
392.863
392.056
391.19
390.263
389.27
388.209
387.08
385.884
384.627
383.315
381.958
380.563
379.14
377.698
376.251
374.812
373.401
372.041
370.756
369.569
368.501
367.564
366.765
366.099
365.557
365.122
364.773
364.487
364.24
364.009
363.775
363.522
363.237
362.908
362.526
362.085
361.577
361.001
360.358
359.66
358.922
358.168
357.425
356.718
356.067
355.473
354.916
354.357
353.754
353.079
352.322
351.481
350.562
349.571
348.513
347.395
346.225
345.008
343.747
342.448
341.113
339.747
338.351
336.929
335.482
334.013
332.523
331.013
329.486
327.942
326.381
324.806
323.216
321.612
319.995
318.365
316.722
315.065
313.396
311.714
310.019
308.311
306.59
304.856
303.108
301.348
299.573
297.785
295.983
294.168
292.338
290.495
288.637
286.765
284.879
282.978
281.063
279.133
277.188
275.228
273.252
271.262
269.256
267.235
265.198
263.145
261.076
258.992
256.891
254.773
252.64
250.49
248.323
246.139
243.938
241.721
239.486
237.233
234.964
232.676
230.371
228.048
225.707
223.347
220.97
218.574
216.159
213.726
211.273
208.802
206.312
203.802
201.273
198.725
196.157
193.569
190.962
188.334
185.688
183.021
180.335
177.629
174.904
172.16
169.398
166.617
163.82
161.007
158.179
155.334
152.475
149.59
404.412
404.387
404.339
404.265
404.166
404.039
403.884
403.7
403.484
403.237
402.957
402.643
402.295
401.916
401.505
401.064
400.597
400.107
399.595
399.062
398.508
397.932
397.329
396.697
396.03
395.323
394.574
393.779
392.935
392.037
391.083
390.072
389.001
387.871
386.686
385.447
384.16
382.827
381.451
380.034
378.58
377.096
375.591
374.081
372.584
371.131
369.758
368.503
367.399
366.46
365.687
365.075
364.617
364.288
364.059
363.894
363.762
363.635
363.491
363.314
363.092
362.814
362.473
362.06
361.563
360.977
360.303
359.552
358.741
357.9
357.064
356.274
355.564
354.95
354.418
353.913
353.377
352.77
352.074
351.284
350.405
349.444
348.407
347.307
346.15
344.943
343.69
342.396
341.067
339.704
338.312
336.893
335.45
333.983
332.495
330.988
329.462
327.919
326.36
324.785
323.196
321.593
319.977
318.347
316.705
315.05
313.381
311.7
310.006
308.299
306.579
304.846
303.099
301.339
299.565
297.778
295.977
294.162
292.333
290.49
288.633
286.761
284.875
282.975
281.06
279.13
277.185
275.225
273.25
271.26
269.255
267.233
265.197
263.144
261.075
258.991
256.89
254.773
252.639
250.489
248.322
246.139
243.938
241.72
239.486
237.233
234.963
232.676
230.371
228.048
225.707
223.347
220.97
218.574
216.159
213.725
211.273
208.802
206.311
203.802
201.273
198.724
196.156
193.568
190.96
188.333
185.686
183.019
180.332
177.625
174.899
172.153
169.389
166.606
163.806
160.987
158.152
155.298
152.424
149.522
405.065
405.041
404.994
404.923
404.827
404.705
404.556
404.379
404.173
403.937
403.669
403.369
403.037
402.673
402.277
401.849
401.39
400.899
400.378
399.823
399.235
398.612
397.952
397.252
396.511
395.726
394.895
394.015
393.087
392.108
391.078
389.999
388.871
387.695
386.475
385.209
383.898
382.537
381.121
379.643
378.099
376.493
374.837
373.157
371.486
369.869
368.353
366.99
365.817
364.856
364.131
363.621
363.299
363.132
363.075
363.083
363.112
363.128
363.105
363.027
362.885
362.671
362.379
362.003
361.534
360.967
360.295
359.519
358.653
357.734
356.804
355.911
355.106
354.43
353.886
353.412
352.932
352.392
351.765
351.04
350.213
349.29
348.285
347.207
346.065
344.869
343.625
342.338
341.013
339.655
338.267
336.851
335.411
333.947
332.462
330.958
329.434
327.893
326.336
324.763
323.175
321.572
319.957
318.328
316.686
315.032
313.365
311.684
309.992
308.286
306.566
304.834
303.088
301.329
299.556
297.769
295.969
294.155
292.326
290.484
288.627
286.756
284.871
282.971
281.056
279.127
277.182
275.223
273.248
271.258
269.253
267.232
265.195
263.143
261.074
258.99
256.889
254.772
252.639
250.489
248.322
246.138
243.938
241.72
239.485
237.233
234.963
232.676
230.371
228.048
225.707
223.347
220.97
218.573
216.159
213.725
211.273
208.801
206.311
203.801
201.272
198.723
196.155
193.567
190.959
188.331
185.684
183.016
180.328
177.621
174.893
172.146
169.38
166.594
163.79
160.966
158.124
155.261
152.374
149.457
405.787
405.764
405.717
405.646
405.55
405.429
405.281
405.106
404.903
404.67
404.406
404.111
403.784
403.424
403.031
402.604
402.143
401.647
401.113
400.539
399.924
399.265
398.56
397.808
397.007
396.157
395.256
394.306
393.309
392.267
391.182
390.056
388.892
387.688
386.442
385.149
383.799
382.38
380.877
379.28
377.585
375.796
373.934
372.031
370.135
368.306
366.609
365.112
363.87
362.917
362.235
361.83
361.671
361.708
361.875
362.105
362.338
362.525
362.639
362.668
362.607
362.459
362.223
361.896
361.469
360.934
360.283
359.517
358.65
357.706
356.724
355.753
354.849
354.082
353.47
352.966
352.491
351.989
351.423
350.765
349.997
349.124
348.154
347.1
345.975
344.79
343.553
342.273
340.953
339.6
338.215
336.803
335.366
333.906
332.425
330.923
329.402
327.864
326.308
324.737
323.151
321.55
319.935
318.307
316.666
315.012
313.346
311.667
309.975
308.27
306.552
304.821
303.076
301.318
299.546
297.76
295.96
294.147
292.319
290.477
288.621
286.751
284.866
282.966
281.052
279.123
277.179
275.22
273.245
271.256
269.251
267.23
265.194
263.141
261.073
258.989
256.888
254.771
252.638
250.488
248.321
246.138
243.937
241.72
239.485
237.233
234.963
232.676
230.371
228.048
225.706
223.347
220.969
218.573
216.158
213.725
211.273
208.801
206.311
203.801
201.271
198.723
196.154
193.566
190.958
188.33
185.681
183.013
180.325
177.616
174.888
172.139
169.37
166.582
163.774
160.945
158.096
155.224
152.326
149.396
406.578
406.553
406.505
406.432
406.334
406.211
406.061
405.883
405.677
405.441
405.174
404.876
404.545
404.181
403.783
403.351
402.882
402.375
401.827
401.235
400.596
399.907
399.166
398.37
397.519
396.614
395.657
394.651
393.602
392.515
391.394
390.24
389.053
387.827
386.556
385.225
383.818
382.314
380.693
378.943
377.058
375.05
372.94
370.772
368.6
366.501
364.563
362.879
361.524
360.537
359.918
359.655
359.707
360.005
360.458
360.974
361.466
361.871
362.154
362.304
362.327
362.235
362.041
361.749
361.359
360.865
360.257
359.532
358.69
357.749
356.747
355.723
354.726
353.845
353.129
352.557
352.06
351.583
351.076
350.488
349.787
348.964
348.029
346.996
345.885
344.708
343.478
342.203
340.889
339.539
338.158
336.749
335.316
333.859
332.382
330.883
329.366
327.83
326.278
324.709
323.124
321.525
319.911
318.284
316.644
314.991
313.326
311.648
309.957
308.253
306.536
304.806
303.062
301.305
299.534
297.749
295.95
294.138
292.311
290.47
288.614
286.744
284.86
282.961
281.047
279.119
277.175
275.216
273.243
271.253
269.248
267.228
265.192
263.14
261.072
258.988
256.887
254.77
252.637
250.487
248.321
246.137
243.937
241.72
239.485
237.233
234.963
232.676
230.37
228.047
225.706
223.347
220.969
218.573
216.158
213.725
211.272
208.801
206.31
203.8
201.271
198.722
196.153
193.565
190.956
188.328
185.679
183.01
180.321
177.611
174.881
172.131
169.36
166.569
163.757
160.923
158.068
155.188
152.28
149.339
407.447
407.42
407.369
407.292
407.189
407.06
406.904
406.719
406.505
406.26
405.984
405.677
405.336
404.962
404.554
404.11
403.629
403.108
402.544
401.934
401.272
400.556
399.781
398.948
398.055
397.105
396.103
395.055
393.969
392.852
391.708
390.536
389.332
388.086
386.785
385.409
383.933
382.332
380.581
378.663
376.575
374.326
371.942
369.471
366.983
364.576
362.363
360.462
358.966
357.929
357.365
357.253
357.536
358.117
358.885
359.72
360.512
361.172
361.654
361.948
362.065
362.031
361.871
361.605
361.24
360.775
360.206
359.526
358.725
357.803
356.778
355.685
354.58
353.574
352.755
352.116
351.6
351.161
350.735
350.236
349.605
348.829
347.921
346.904
345.8
344.628
343.402
342.129
340.818
339.473
338.096
336.691
335.261
333.808
332.334
330.84
329.326
327.794
326.244
324.677
323.095
321.498
319.886
318.261
316.622
314.969
313.305
311.627
309.937
308.235
306.519
304.79
303.047
301.291
299.521
297.737
295.94
294.128
292.302
290.461
288.607
286.737
284.854
282.955
281.042
279.114
277.171
275.213
273.239
271.25
269.246
267.226
265.19
263.138
261.07
258.986
256.886
254.769
252.636
250.487
248.32
246.137
243.937
241.719
239.484
237.232
234.963
232.675
230.37
228.047
225.706
223.347
220.969
218.573
216.158
213.724
211.272
208.8
206.31
203.8
201.27
198.721
196.152
193.563
190.955
188.326
185.677
183.007
180.317
177.606
174.875
172.123
169.35
166.556
163.74
160.902
158.04
155.152
152.236
149.285
408.406
408.377
408.32
408.237
408.126
407.988
407.821
407.625
407.398
407.14
406.851
406.528
406.173
405.783
405.359
404.899
404.401
403.863
403.281
402.65
401.966
401.224
400.421
399.556
398.628
397.643
396.606
395.526
394.414
393.275
392.113
390.927
389.707
388.441
387.109
385.686
384.144
382.452
380.581
378.513
376.242
373.776
371.145
368.403
365.638
362.965
360.519
358.436
356.828
355.749
355.214
355.202
355.654
356.459
357.485
358.589
359.64
360.527
361.189
361.612
361.816
361.834
361.705
361.46
361.116
360.669
360.116
359.462
358.706
357.825
356.802
355.661
354.465
353.354
352.435
351.715
351.159
350.748
350.41
350.004
349.448
348.716
347.828
346.819
345.717
344.547
343.321
342.051
340.743
339.401
338.029
336.629
335.203
333.754
332.283
330.793
329.283
327.754
326.207
324.644
323.064
321.469
319.859
318.235
316.598
314.947
313.283
311.607
309.918
308.216
306.501
304.773
303.032
301.277
299.508
297.725
295.928
294.117
292.292
290.452
288.598
286.73
284.847
282.949
281.037
279.109
277.167
275.209
273.236
271.247
269.243
267.223
265.188
263.136
261.069
258.985
256.885
254.768
252.636
250.486
248.32
246.136
243.936
241.719
239.484
237.232
234.962
232.675
230.37
228.047
225.706
223.346
220.969
218.573
216.158
213.724
211.272
208.8
206.309
203.799
201.269
198.72
196.151
193.562
190.953
188.324
185.674
183.004
180.313
177.601
174.869
172.115
169.34
166.543
163.723
160.881
158.013
155.119
152.194
149.234
409.467
409.434
409.371
409.279
409.158
409.007
408.826
408.614
408.37
408.094
407.785
407.443
407.067
406.657
406.212
405.731
405.212
404.653
404.049
403.397
402.691
401.926
401.099
400.208
399.253
398.239
397.175
396.07
394.935
393.778
392.6
391.398
390.162
388.876
387.516
386.054
384.461
382.703
380.749
378.578
376.185
373.575
370.78
367.861
364.914
362.067
359.468
357.259
355.556
354.422
353.883
353.923
354.477
355.421
356.603
357.87
359.077
360.104
360.875
361.369
361.614
361.663
361.549
361.309
360.97
360.539
360.001
359.353
358.604
357.75
356.771
355.663
354.478
353.341
352.349
351.528
350.887
350.445
350.138
349.795
349.294
348.595
347.723
346.72
345.622
344.454
343.231
341.964
340.66
339.324
337.957
336.562
335.141
333.696
332.23
330.743
329.237
327.712
326.169
324.608
323.031
321.438
319.831
318.209
316.573
314.923
313.261
311.586
309.897
308.196
306.482
304.755
303.015
301.261
299.493
297.711
295.915
294.106
292.281
290.443
288.59
286.722
284.84
282.943
281.031
279.104
277.162
275.205
273.232
271.244
269.24
267.221
265.185
263.134
261.067
258.983
256.884
254.767
252.635
250.485
248.319
246.136
243.936
241.718
239.484
237.232
234.962
232.675
230.37
228.047
225.706
223.346
220.969
218.572
216.157
213.724
211.271
208.8
206.309
203.799
201.269
198.719
196.15
193.561
190.951
188.322
185.671
183.001
180.309
177.596
174.862
172.107
169.33
166.53
163.707
160.86
157.987
155.087
152.155
149.188
410.638
410.603
410.534
410.432
410.298
410.131
409.931
409.698
409.431
409.131
408.798
408.431
408.029
407.593
407.122
406.615
406.071
405.487
404.86
404.185
403.457
402.672
401.824
400.912
399.938
398.901
397.817
396.691
395.535
394.357
393.159
391.938
390.683
389.378
387.996
386.511
384.891
383.102
381.117
378.913
376.482
373.832
370.995
368.032
365.041
362.152
359.512
357.262
355.515
354.342
353.777
353.805
354.355
355.299
356.483
357.753
358.967
360.001
360.776
361.267
361.502
361.545
361.433
361.188
360.837
360.4
359.868
359.226
358.479
357.633
356.683
355.637
354.539
353.466
352.473
351.591
350.863
350.342
349.992
349.637
349.138
348.443
347.578
346.585
345.498
344.34
343.126
341.867
340.57
339.239
337.879
336.491
335.076
333.636
332.174
330.691
329.189
327.668
326.128
324.571
322.996
321.406
319.801
318.181
316.547
314.899
313.238
311.564
309.877
308.176
306.463
304.737
302.998
301.245
299.478
297.697
295.902
294.093
292.27
290.432
288.58
286.713
284.832
282.936
281.024
279.098
277.157
275.2
273.228
271.24
269.237
267.218
265.183
263.132
261.065
258.982
256.882
254.766
252.634
250.484
248.318
246.135
243.935
241.718
239.483
237.231
234.962
232.675
230.37
228.047
225.705
223.346
220.968
218.572
216.157
213.724
211.271
208.799
206.308
203.798
201.268
198.718
196.149
193.559
190.95
188.32
185.669
182.997
180.305
177.591
174.856
172.099
169.319
166.517
163.691
160.84
157.962
155.056
152.118
149.144
411.94
411.9
411.825
411.712
411.56
411.371
411.147
410.888
410.593
410.263
409.899
409.5
409.067
408.599
408.096
407.558
406.984
406.371
405.718
405.019
404.27
403.466
402.601
401.673
400.683
399.634
398.532
397.388
396.211
395.009
393.786
392.541
391.263
389.938
388.542
387.049
385.428
383.65
381.689
379.524
377.149
374.57
371.819
368.954
366.064
363.269
360.704
358.499
356.764
355.565
354.936
354.872
355.305
356.111
357.147
358.267
359.341
360.252
360.925
361.335
361.508
361.508
361.373
361.108
360.733
360.281
359.755
359.125
358.385
357.548
356.611
355.594
354.562
353.57
352.633
351.759
350.994
350.406
349.975
349.549
348.999
348.277
347.404
346.418
345.346
344.204
343.005
341.758
340.471
339.149
337.797
336.416
335.008
333.574
332.116
330.638
329.14
327.622
326.086
324.532
322.961
321.373
319.77
318.152
316.519
314.873
313.214
311.541
309.856
308.157
306.444
304.719
302.98
301.228
299.462
297.682
295.888
294.08
292.258
290.421
288.57
286.704
284.824
282.928
281.018
279.092
277.151
275.195
273.224
271.236
269.234
267.215
265.18
263.13
261.063
258.98
256.881
254.765
252.633
250.484
248.318
246.135
243.935
241.718
239.483
237.231
234.962
232.674
230.369
228.046
225.705
223.346
220.968
218.572
216.157
213.723
211.271
208.799
206.308
203.797
201.267
198.718
196.148
193.558
190.948
188.318
185.666
182.994
180.301
177.586
174.85
172.091
169.31
166.505
163.676
160.821
157.939
155.027
152.084
149.104
413.438
413.391
413.307
413.179
413.005
412.787
412.53
412.235
411.903
411.535
411.131
410.693
410.221
409.714
409.172
408.597
407.986
407.339
406.654
405.927
405.155
404.332
403.453
402.515
401.515
400.456
399.341
398.18
396.981
395.752
394.499
393.222
391.916
390.568
389.161
387.67
386.072
384.34
382.451
380.392
378.155
375.749
373.201
370.563
367.908
365.334
362.952
360.872
359.189
357.965
357.23
356.997
357.206
357.751
358.506
359.345
360.155
360.833
361.312
361.575
361.644
361.571
361.388
361.089
360.674
360.181
359.646
359.047
358.342
357.52
356.581
355.546
354.496
353.513
352.624
351.818
351.106
350.52
350.028
349.514
348.893
348.131
347.244
346.259
345.195
344.065
342.879
341.644
340.368
339.055
337.71
336.337
334.936
333.508
332.056
330.582
329.088
327.574
326.042
324.491
322.923
321.338
319.737
318.121
316.491
314.847
313.189
311.518
309.834
308.136
306.425
304.7
302.962
301.211
299.446
297.667
295.874
294.067
292.246
290.41
288.56
286.695
284.815
282.92
281.01
279.086
277.146
275.19
273.219
271.233
269.23
267.212
265.178
263.128
261.061
258.979
256.88
254.764
252.632
250.483
248.317
246.134
243.934
241.717
239.483
237.231
234.961
232.674
230.369
228.046
225.705
223.346
220.968
218.572
216.157
213.723
211.27
208.799
206.308
203.797
201.267
198.717
196.147
193.557
190.947
188.316
185.664
182.991
180.297
177.582
174.844
172.084
169.3
166.493
163.661
160.803
157.917
155.001
152.052
149.067
415.09
415.033
414.938
414.791
414.586
414.329
414.028
413.687
413.309
412.895
412.445
411.961
411.441
410.888
410.302
409.683
409.03
408.344
407.623
406.865
406.067
405.225
404.333
403.387
402.383
401.32
400.199
399.025
397.807
396.552
395.266
393.955
392.615
391.24
389.817
388.33
386.76
385.088
383.294
381.369
379.308
377.118
374.822
372.461
370.092
367.788
365.636
363.721
362.121
360.888
360.049
359.621
359.564
359.796
360.214
360.716
361.206
361.604
361.853
361.944
361.899
361.745
361.492
361.13
360.66
360.122
359.56
358.974
358.315
357.526
356.574
355.477
354.339
353.301
352.446
351.751
351.158
350.628
350.106
349.522
348.835
348.037
347.136
346.148
345.084
343.956
342.773
341.543
340.272
338.964
337.626
336.258
334.864
333.442
331.995
330.525
329.035
327.525
325.997
324.45
322.884
321.302
319.703
318.089
316.461
314.819
313.163
311.494
309.811
308.115
306.405
304.682
302.945
301.194
299.429
297.651
295.859
294.053
292.233
290.398
288.548
286.684
284.806
282.912
281.003
279.079
277.139
275.185
273.214
271.228
269.226
267.209
265.175
263.125
261.059
258.977
256.878
254.763
252.631
250.482
248.316
246.133
243.934
241.717
239.482
237.23
234.961
232.674
230.369
228.046
225.705
223.345
220.968
218.571
216.156
213.723
211.27
208.798
206.307
203.796
201.266
198.716
196.146
193.556
190.945
188.314
185.662
182.988
180.293
177.577
174.838
172.076
169.291
166.482
163.647
160.786
157.896
154.976
152.023
149.033
416.721
416.658
416.554
416.383
416.141
415.839
415.489
415.1
414.675
414.214
413.717
413.184
412.616
412.015
411.381
410.716
410.019
409.292
408.535
407.745
406.92
406.058
405.153
404.2
403.194
402.132
401.011
399.834
398.605
397.332
396.02
394.677
393.303
391.897
390.453
388.961
387.408
385.781
384.068
382.26
380.355
378.36
376.29
374.176
372.062
370.001
368.059
366.299
364.782
363.553
362.637
362.047
361.758
361.71
361.823
362.017
362.219
362.364
362.413
362.358
362.215
361.987
361.659
361.215
360.67
360.08
359.497
358.93
358.315
357.566
356.609
355.45
354.23
353.155
352.352
351.767
351.269
350.767
350.211
349.568
348.826
347.991
347.071
346.073
345.004
343.874
342.691
341.46
340.19
338.886
337.55
336.186
334.796
333.379
331.937
330.471
328.984
327.478
325.953
324.409
322.847
321.267
319.67
318.059
316.433
314.792
313.139
311.471
309.79
308.095
306.387
304.664