/*--------------------------------*- C++ -*----------------------------------*\
  =========                 |
  \\      /  F ield         | OpenFOAM: The Open Source CFD Toolbox
   \\    /   O peration     | Website:  https://openfoam.org
    \\  /    A nd           | Version:  7
     \\/     M anipulation  |
\*---------------------------------------------------------------------------*/
FoamFile
{
    version     2.0;
    format      ascii;
    class       surfaceScalarField;
    location    "0.038";
    object      phi_0;
}
// * * * * * * * * * * * * * * * * * * * * * * * * * * * * * * * * * * * * * //

dimensions      [0 3 -1 0 0 0 0];

internalField   nonuniform List<scalar> 
24170
(
1.38691e-06
2.60481e-07
1.2427e-06
1.44213e-07
1.10507e-06
1.37626e-07
9.90449e-07
1.14624e-07
8.85605e-07
1.04844e-07
7.80991e-07
1.04614e-07
6.81281e-07
9.97104e-08
5.9228e-07
8.90011e-08
5.14215e-07
7.80647e-08
4.44868e-07
6.93467e-08
3.83264e-07
6.16044e-08
3.29826e-07
5.34372e-08
2.85011e-07
4.48159e-08
2.48213e-07
3.67977e-08
2.17883e-07
3.03294e-08
1.92524e-07
2.53599e-08
1.67892e-07
2.46315e-08
1.78648e-08
1.50027e-07
1.66412e-06
2.60626e-07
1.64265e-06
1.65687e-07
1.60106e-06
1.79213e-07
1.55916e-06
1.56528e-07
1.52475e-06
1.39249e-07
1.48893e-06
1.40439e-07
1.44523e-06
1.43408e-07
1.39526e-06
1.38967e-07
1.34356e-06
1.29765e-07
1.29323e-06
1.19679e-07
1.24528e-06
1.09551e-07
1.19893e-06
9.9787e-08
1.1532e-06
9.05458e-08
1.10836e-06
8.16382e-08
1.06466e-06
7.40352e-08
1.02302e-06
6.69952e-08
9.82365e-07
6.52882e-08
6.53067e-08
9.34923e-07
1.79024e-06
3.31802e-07
1.7669e-06
1.89026e-07
1.7449e-06
2.01217e-07
1.71597e-06
1.85458e-07
1.69924e-06
1.55971e-07
1.69768e-06
1.42001e-07
1.70115e-06
1.39945e-07
1.70055e-06
1.39567e-07
1.69332e-06
1.36992e-07
1.68133e-06
1.31667e-07
1.66696e-06
1.23918e-07
1.65132e-06
1.15428e-07
1.63349e-06
1.0838e-07
1.61258e-06
1.02546e-07
1.58805e-06
9.8562e-08
1.56009e-06
9.49552e-08
1.53093e-06
9.44532e-08
9.57767e-08
1.50046e-06
1.92848e-06
3.25382e-07
1.89563e-06
2.21883e-07
1.89021e-06
2.06628e-07
1.88691e-06
1.88764e-07
1.879e-06
1.63881e-07
1.8697e-06
1.51299e-07
1.86036e-06
1.49288e-07
1.85097e-06
1.48954e-07
1.84245e-06
1.45515e-07
1.83631e-06
1.37808e-07
1.83302e-06
1.27203e-07
1.83181e-06
1.16638e-07
1.83065e-06
1.09545e-07
1.82735e-06
1.05843e-07
1.82072e-06
1.05196e-07
1.81035e-06
1.05318e-07
1.79816e-06
1.06643e-07
1.08526e-07
1.78542e-06
2.06304e-06
3.36691e-07
2.04562e-06
2.39304e-07
2.0359e-06
2.16351e-07
2.02084e-06
2.03816e-07
2.00737e-06
1.77359e-07
1.99932e-06
1.59346e-07
1.99336e-06
1.55244e-07
1.98666e-06
1.55653e-07
1.97997e-06
1.52205e-07
1.97519e-06
1.42588e-07
1.97314e-06
1.29259e-07
1.97331e-06
1.16466e-07
1.97466e-06
1.08189e-07
1.97583e-06
1.04672e-07
1.97614e-06
1.04885e-07
1.975e-06
1.06464e-07
1.97307e-06
1.08568e-07
1.10685e-07
1.97091e-06
2.2268e-06
3.62844e-07
2.19617e-06
2.69926e-07
2.17372e-06
2.38804e-07
2.16456e-06
2.12981e-07
2.1615e-06
1.80409e-07
2.16145e-06
1.59405e-07
2.16366e-06
1.53029e-07
2.16724e-06
1.52073e-07
2.17038e-06
1.49065e-07
2.17098e-06
1.41993e-07
2.16803e-06
1.32202e-07
2.16222e-06
1.22276e-07
2.15552e-06
1.14897e-07
2.14941e-06
1.10774e-07
2.14477e-06
1.09528e-07
2.14126e-06
1.09975e-07
2.13855e-06
1.11279e-07
1.12924e-07
2.13631e-06
2.42571e-06
3.85806e-07
2.37295e-06
3.22692e-07
2.34175e-06
2.70001e-07
2.33012e-06
2.24616e-07
2.32498e-06
1.85544e-07
2.32355e-06
1.60839e-07
2.3277e-06
1.48877e-07
2.33607e-06
1.43704e-07
2.34363e-06
1.41508e-07
2.34531e-06
1.40308e-07
2.33916e-06
1.38355e-07
2.32692e-06
1.34516e-07
2.3127e-06
1.29112e-07
2.30016e-06
1.23316e-07
2.29142e-06
1.18269e-07
2.28649e-06
1.14902e-07
2.28447e-06
1.13296e-07
1.13506e-07
2.28389e-06
2.57959e-06
3.80919e-07
2.557e-06
3.45287e-07
2.53889e-06
2.88108e-07
2.53346e-06
2.3005e-07
2.53295e-06
1.86056e-07
2.52999e-06
1.63793e-07
2.52194e-06
1.56934e-07
2.51082e-06
1.54824e-07
2.50019e-06
1.52133e-07
2.49233e-06
1.48167e-07
2.48754e-06
1.43145e-07
2.48477e-06
1.37285e-07
2.48266e-06
1.31227e-07
2.47989e-06
1.26086e-07
2.47585e-06
1.22311e-07
2.47052e-06
1.20226e-07
2.46445e-06
1.19366e-07
1.19392e-07
2.45857e-06
2.73246e-06
4.55619e-07
2.73581e-06
3.41934e-07
2.72031e-06
3.03608e-07
2.70458e-06
2.45782e-07
2.69691e-06
1.93726e-07
2.69319e-06
1.67508e-07
2.6878e-06
1.62323e-07
2.67932e-06
1.6331e-07
2.67052e-06
1.60934e-07
2.66508e-06
1.53606e-07
2.66452e-06
1.43703e-07
2.66761e-06
1.34189e-07
2.67178e-06
1.27062e-07
2.67479e-06
1.23077e-07
2.67551e-06
1.21585e-07
2.67419e-06
1.21555e-07
2.67154e-06
1.2201e-07
1.22232e-07
2.6687e-06
2.91623e-06
4.48631e-07
2.8989e-06
3.59263e-07
2.88877e-06
3.13738e-07
2.88943e-06
2.45121e-07
2.89028e-06
1.92878e-07
2.88962e-06
1.6817e-07
2.8917e-06
1.60238e-07
2.89868e-06
1.56338e-07
2.90891e-06
1.50698e-07
2.91877e-06
1.43744e-07
2.92465e-06
1.37826e-07
2.92468e-06
1.34155e-07
2.91942e-06
1.32331e-07
2.91114e-06
1.31349e-07
2.90244e-06
1.30292e-07
2.89508e-06
1.28916e-07
2.88984e-06
1.27243e-07
1.25703e-07
2.88637e-06
3.1879e-06
4.65752e-07
3.17388e-06
3.7328e-07
3.15788e-06
3.29737e-07
3.13402e-06
2.68984e-07
3.10288e-06
2.2402e-07
3.07763e-06
1.93421e-07
3.06767e-06
1.70197e-07
3.07251e-06
1.51495e-07
3.08594e-06
1.37274e-07
3.10118e-06
1.28502e-07
3.11367e-06
1.2533e-07
3.12136e-06
1.26471e-07
3.12401e-06
1.29675e-07
3.12264e-06
1.3272e-07
3.11884e-06
1.3409e-07
3.1142e-06
1.33557e-07
3.1101e-06
1.31346e-07
1.28558e-07
3.10725e-06
2.85994e-06
4.27662e-07
2.85244e-06
3.80783e-07
2.84987e-06
3.32303e-07
2.83593e-06
2.82928e-07
2.81873e-06
2.41218e-07
2.81143e-06
2.00724e-07
2.81736e-06
1.64263e-07
2.82988e-06
1.38973e-07
2.8399e-06
1.27253e-07
2.84251e-06
1.25896e-07
2.83801e-06
1.29829e-07
2.82966e-06
1.34818e-07
2.82127e-06
1.38068e-07
2.81545e-06
1.38539e-07
2.81314e-06
1.36403e-07
2.81403e-06
1.32661e-07
2.81697e-06
1.28408e-07
1.24589e-07
2.82094e-06
3.48706e-06
4.85833e-07
3.46778e-06
4.00064e-07
3.489e-06
3.11081e-07
3.50838e-06
2.63552e-07
3.50996e-06
2.39638e-07
3.49641e-06
2.14275e-07
3.47633e-06
1.8434e-07
3.45821e-06
1.57091e-07
3.44692e-06
1.38541e-07
3.44303e-06
1.2979e-07
3.44479e-06
1.28072e-07
3.45012e-06
1.29482e-07
3.45733e-06
1.30866e-07
3.46473e-06
1.31138e-07
3.47071e-06
1.3042e-07
3.47404e-06
1.29328e-07
3.47391e-06
1.28535e-07
1.27764e-07
3.47074e-06
4.19928e-06
4.71378e-07
4.23289e-06
3.66463e-07
4.26327e-06
2.80699e-07
4.278e-06
2.4882e-07
4.28426e-06
2.33375e-07
4.2876e-06
2.10943e-07
4.28889e-06
1.83043e-07
4.28664e-06
1.59339e-07
4.27921e-06
1.45974e-07
4.2675e-06
1.41502e-07
4.25472e-06
1.40855e-07
4.24409e-06
1.40104e-07
4.23744e-06
1.37516e-07
4.23519e-06
1.33394e-07
4.23654e-06
1.29067e-07
4.24007e-06
1.25798e-07
4.24478e-06
1.2383e-07
1.23488e-07
4.24905e-06
5.17681e-06
4.60411e-07
5.17318e-06
3.70097e-07
5.15745e-06
2.96428e-07
5.15247e-06
2.53803e-07
5.16231e-06
2.23529e-07
5.18286e-06
1.904e-07
5.20565e-06
1.60251e-07
5.22158e-06
1.43402e-07
5.22556e-06
1.41996e-07
5.21778e-06
1.49281e-07
5.20226e-06
1.56373e-07
5.1852e-06
1.57169e-07
5.17229e-06
1.50428e-07
5.16717e-06
1.38506e-07
5.17122e-06
1.25024e-07
5.18358e-06
1.13432e-07
5.20262e-06
1.04791e-07
1.00589e-07
5.22552e-06
6.31033e-06
3.94353e-07
6.33708e-06
3.43344e-07
6.317e-06
3.16507e-07
6.2997e-06
2.71102e-07
6.31082e-06
2.12415e-07
6.33425e-06
1.66967e-07
6.34498e-06
1.49526e-07
6.33786e-06
1.50516e-07
6.32368e-06
1.56176e-07
6.31464e-06
1.58322e-07
6.31646e-06
1.54559e-07
6.32763e-06
1.46e-07
6.34292e-06
1.35134e-07
6.35695e-06
1.2448e-07
6.36684e-06
1.15129e-07
6.37233e-06
1.0794e-07
6.37475e-06
1.02372e-07
9.88696e-08
6.37647e-06
7.70284e-06
4.47932e-07
7.70903e-06
3.37153e-07
7.72183e-06
3.03703e-07
7.73473e-06
2.58211e-07
7.74058e-06
2.06564e-07
7.73413e-06
1.73414e-07
7.71957e-06
1.64089e-07
7.70436e-06
1.65722e-07
7.69555e-06
1.64987e-07
7.69718e-06
1.56687e-07
7.7084e-06
1.43347e-07
7.72442e-06
1.29973e-07
7.74005e-06
1.19503e-07
7.75182e-06
1.12714e-07
7.75899e-06
1.07958e-07
7.76306e-06
1.03867e-07
7.76652e-06
9.89187e-08
9.33285e-08
7.77206e-06
9.51562e-06
3.44644e-07
9.50351e-06
3.4926e-07
9.47672e-06
3.30496e-07
9.46092e-06
2.74011e-07
9.45315e-06
2.14332e-07
9.4538e-06
1.72758e-07
9.46605e-06
1.5184e-07
9.48789e-06
1.43884e-07
9.51432e-06
1.38555e-07
9.54043e-06
1.30574e-07
9.56368e-06
1.20099e-07
9.58351e-06
1.10144e-07
9.6001e-06
1.02912e-07
9.61382e-06
9.89925e-08
9.62447e-06
9.73106e-08
9.63205e-06
9.62912e-08
9.63611e-06
9.48531e-08
9.24424e-08
9.637e-06
1.15568e-05
3.9695e-07
1.15421e-05
3.63987e-07
1.15262e-05
3.4639e-07
1.15178e-05
2.82411e-07
1.15232e-05
2.08897e-07
1.15359e-05
1.60108e-07
1.15496e-05
1.38143e-07
1.1563e-05
1.30417e-07
1.15778e-05
1.23744e-07
1.15965e-05
1.11923e-07
1.1621e-05
9.56294e-08
1.16522e-05
7.89123e-08
1.16895e-05
6.55948e-08
1.17307e-05
5.78132e-08
1.1772e-05
5.60053e-08
1.18095e-05
5.87993e-08
1.184e-05
6.43574e-08
7.04429e-08
1.1862e-05
8.49789e-06
4.87648e-07
8.48411e-06
3.77764e-07
8.48715e-06
3.43349e-07
8.48063e-06
2.88936e-07
8.46475e-06
2.24772e-07
8.45459e-06
1.7027e-07
8.45915e-06
1.33585e-07
8.477e-06
1.12561e-07
8.50344e-06
9.73135e-08
8.53469e-06
8.06677e-08
8.56764e-06
6.26813e-08
8.59933e-06
4.72185e-08
8.62759e-06
3.73406e-08
8.65185e-06
3.35502e-08
8.67361e-06
3.42448e-08
8.69491e-06
3.75018e-08
8.71809e-06
4.11787e-08
4.47148e-08
8.74381e-06
7.21494e-06
3.24533e-07
7.30116e-06
2.91539e-07
7.36254e-06
2.81971e-07
7.40111e-06
2.50367e-07
7.42721e-06
1.98676e-07
7.45461e-06
1.42873e-07
7.4858e-06
1.02386e-07
7.51567e-06
8.26915e-08
7.5382e-06
7.47868e-08
7.5513e-06
6.75688e-08
7.55754e-06
5.64402e-08
7.56173e-06
4.30281e-08
7.56814e-06
3.09358e-08
7.57911e-06
2.25721e-08
7.59538e-06
1.79813e-08
7.61646e-06
1.64175e-08
7.64135e-06
1.62887e-08
1.71135e-08
7.66895e-06
6.2927e-06
3.78858e-07
6.37068e-06
2.13558e-07
6.44629e-06
2.06356e-07
6.49515e-06
2.0151e-07
6.5258e-06
1.68021e-07
6.54955e-06
1.19123e-07
6.5736e-06
7.83381e-08
6.59922e-06
5.70774e-08
6.62313e-06
5.08765e-08
6.64175e-06
4.89446e-08
6.65419e-06
4.40023e-08
6.66197e-06
3.52484e-08
6.66764e-06
2.52688e-08
6.67338e-06
1.68237e-08
6.68045e-06
1.09203e-08
6.68916e-06
7.70216e-09
6.69936e-06
6.08684e-09
5.558e-09
6.71092e-06
5.54087e-06
3.51004e-07
5.53432e-06
2.20101e-07
5.60787e-06
1.32808e-07
5.69348e-06
1.15903e-07
5.75477e-06
1.06731e-07
5.78224e-06
9.16546e-08
5.78658e-06
7.39903e-08
5.78579e-06
5.78728e-08
5.79187e-06
4.47954e-08
5.80736e-06
3.34574e-08
5.82868e-06
2.26768e-08
5.85117e-06
1.27612e-08
5.87138e-06
5.0582e-09
5.88778e-06
4.25021e-10
5.9013e-06
-2.6025e-09
5.91287e-06
-3.86834e-09
5.92358e-06
-4.61679e-09
-5.22515e-09
5.93436e-06
4.84941e-06
3.13187e-07
4.90959e-06
1.59919e-07
4.94513e-06
9.72683e-08
4.97226e-06
8.87776e-08
4.99929e-06
7.96928e-08
5.0293e-06
6.1649e-08
5.06097e-06
4.23234e-08
5.0912e-06
2.76376e-08
5.11804e-06
1.796e-08
5.14097e-06
1.05213e-08
5.16076e-06
2.89506e-09
5.1779e-06
-4.37937e-09
5.19347e-06
-1.05197e-08
5.20842e-06
-1.4518e-08
5.22202e-06
-1.62074e-08
5.23416e-06
-1.60057e-08
5.24422e-06
-1.4678e-08
-1.31563e-08
5.25215e-06
4.22758e-06
2.79041e-07
4.28456e-06
1.02934e-07
4.30838e-06
7.34523e-08
4.31964e-06
7.75162e-08
4.3414e-06
5.79297e-08
4.37433e-06
2.87157e-08
4.41073e-06
5.92612e-09
4.44635e-06
-7.97653e-09
4.47892e-06
-1.46115e-08
4.50754e-06
-1.80971e-08
4.53163e-06
-2.1201e-08
4.55135e-06
-2.40986e-08
4.56659e-06
-2.57613e-08
4.57726e-06
-2.51817e-08
4.58304e-06
-2.19908e-08
4.58391e-06
-1.68747e-08
4.58008e-06
-1.08473e-08
-5.77309e-09
4.57269e-06
3.73487e-06
2.15539e-07
3.77323e-06
6.45726e-08
3.80258e-06
4.41064e-08
3.82941e-06
5.06881e-08
3.85446e-06
3.2872e-08
3.87811e-06
5.06748e-09
3.89796e-06
-1.39247e-08
3.91278e-06
-2.27971e-08
3.92276e-06
-2.45865e-08
3.92906e-06
-2.44018e-08
3.93349e-06
-2.56301e-08
3.93789e-06
-2.84978e-08
3.94365e-06
-3.15225e-08
3.95142e-06
-3.29498e-08
3.96109e-06
-3.16573e-08
3.97214e-06
-2.793e-08
3.98404e-06
-2.27408e-08
-1.77921e-08
3.99606e-06
3.24729e-06
2.09851e-07
3.28179e-06
3.0074e-08
3.31049e-06
1.5408e-08
3.34421e-06
1.69664e-08
3.37497e-06
2.10827e-09
3.40125e-06
-2.12066e-08
3.42269e-06
-3.53698e-08
3.4384e-06
-3.85077e-08
3.44882e-06
-3.5004e-08
3.45597e-06
-3.15534e-08
3.46248e-06
-3.21417e-08
3.47026e-06
-3.62754e-08
3.47979e-06
-4.10542e-08
3.49056e-06
-4.3714e-08
3.50161e-06
-4.27141e-08
3.51225e-06
-3.85681e-08
3.52204e-06
-3.25261e-08
-2.67666e-08
3.53101e-06
2.85574e-06
1.24734e-07
2.91148e-06
-2.5669e-08
2.94313e-06
-1.62385e-08
2.97963e-06
-1.95381e-08
3.01316e-06
-3.14202e-08
3.03665e-06
-4.46967e-08
3.0536e-06
-5.232e-08
3.06614e-06
-5.10459e-08
3.07449e-06
-4.33547e-08
3.07853e-06
-3.55951e-08
3.07916e-06
-3.27743e-08
3.07845e-06
-3.55647e-08
3.07866e-06
-4.12607e-08
3.08127e-06
-4.63244e-08
3.08663e-06
-4.80796e-08
3.0943e-06
-4.62328e-08
3.10343e-06
-4.16569e-08
-3.6584e-08
3.11325e-06
2.54429e-06
6.46784e-08
2.56387e-06
-4.5248e-08
2.58149e-06
-3.38622e-08
2.60344e-06
-4.14834e-08
2.62018e-06
-4.81644e-08
2.63274e-06
-5.72554e-08
2.64475e-06
-6.43253e-08
2.65646e-06
-6.27581e-08
2.666e-06
-5.28952e-08
2.6714e-06
-4.09943e-08
2.67179e-06
-3.31656e-08
2.66778e-06
-3.15536e-08
2.66091e-06
-3.43898e-08
2.65276e-06
-3.8177e-08
2.64462e-06
-3.99412e-08
2.6372e-06
-3.88112e-08
2.63083e-06
-3.52876e-08
-3.12238e-08
2.62547e-06
2.19408e-06
2.14883e-06
2.11497e-06
2.07348e-06
2.02532e-06
1.96806e-06
1.90374e-06
1.84098e-06
1.78808e-06
1.74709e-06
1.71392e-06
1.68237e-06
1.64798e-06
1.6098e-06
1.56986e-06
1.53105e-06
1.49576e-06
1.46454e-06
5.55908e-08
-5.55908e-08
1.53706e-07
-9.81147e-08
2.63136e-07
-1.09431e-07
3.74813e-07
-1.11677e-07
4.87131e-07
-1.12318e-07
6.00535e-07
-1.13404e-07
7.15714e-07
-1.15179e-07
8.33049e-07
-1.17335e-07
9.52449e-07
-1.194e-07
1.07329e-06
-1.2084e-07
1.19436e-06
-1.21076e-07
1.31382e-06
-1.19454e-07
1.42907e-06
-1.15252e-07
1.5368e-06
-1.07732e-07
1.63291e-06
-9.61041e-08
1.71279e-06
-7.98825e-08
1.7713e-06
-5.85142e-08
1.80363e-06
-3.23261e-08
1.80591e-06
-2.27755e-09
1.77226e-06
3.36508e-08
1.7009e-06
7.13584e-08
1.59277e-06
1.08128e-07
1.45523e-06
1.37542e-07
1.30675e-06
1.48479e-07
1.17183e-06
1.3492e-07
1.06554e-06
1.06286e-07
9.87967e-07
7.7576e-08
9.25446e-07
6.25205e-08
8.49958e-07
7.54883e-08
7.09482e-07
1.40476e-07
4.41496e-07
2.67986e-07
4.42787e-08
3.97217e-07
-4.13604e-07
4.57882e-07
-8.83401e-07
4.69797e-07
-1.34792e-06
4.6452e-07
-1.79789e-06
4.4997e-07
-2.22724e-06
4.29353e-07
-2.63199e-06
4.04748e-07
-3.00952e-06
3.77524e-07
-3.35818e-06
3.48659e-07
-3.67687e-06
3.18695e-07
-3.96478e-06
2.87909e-07
-4.22128e-06
2.56503e-07
-4.44595e-06
2.24668e-07
-4.63848e-06
1.92529e-07
-4.79867e-06
1.60188e-07
-4.92642e-06
1.2775e-07
-5.02182e-06
9.54053e-08
-5.08532e-06
6.34961e-08
-5.11785e-06
3.25313e-08
-5.12078e-06
2.92922e-09
-5.09759e-06
-2.31846e-08
-5.0498e-06
-4.77952e-08
-4.97964e-06
-7.01543e-08
-4.89001e-06
-8.9639e-08
-4.7836e-06
-1.06405e-07
-4.66327e-06
-1.20331e-07
-4.53185e-06
-1.31415e-07
-4.39219e-06
-1.39667e-07
-4.24695e-06
-1.45233e-07
-4.09863e-06
-1.4832e-07
-3.94937e-06
-1.49259e-07
-3.8009e-06
-1.48474e-07
-3.65438e-06
-1.46516e-07
-3.51034e-06
-1.44041e-07
-3.36855e-06
-1.41791e-07
-3.22801e-06
-1.40541e-07
-3.08697e-06
-1.41042e-07
-2.94306e-06
-1.4391e-07
-2.79356e-06
-1.49502e-07
-2.63579e-06
-1.57767e-07
-2.46761e-06
-1.68179e-07
-2.28787e-06
-1.79737e-07
-2.0968e-06
-1.91079e-07
-1.89607e-06
-2.00728e-07
-1.68861e-06
-2.0746e-07
-1.478e-06
-2.10609e-07
-1.26788e-06
-2.1012e-07
-1.0615e-06
-2.06377e-07
-8.61527e-07
-1.99974e-07
-6.69867e-07
-1.9166e-07
-4.87771e-07
-1.82096e-07
-3.15918e-07
-1.71853e-07
-1.54603e-07
-1.61315e-07
-3.904e-09
-1.50699e-07
1.37238e-07
-1.41142e-07
2.68476e-07
-1.31238e-07
3.90278e-07
-1.21802e-07
5.03063e-07
-1.12785e-07
6.07245e-07
-1.04183e-07
7.03235e-07
-9.59901e-08
7.91436e-07
-8.82003e-08
8.72245e-07
-8.08094e-08
9.46061e-07
-7.3816e-08
1.01328e-06
-6.72218e-08
1.07431e-06
-6.10304e-08
1.12956e-06
-5.52449e-08
1.17943e-06
-4.98669e-08
1.22432e-06
-4.48939e-08
1.26464e-06
-4.03181e-08
1.30076e-06
-3.61255e-08
1.33306e-06
-3.22954e-08
1.36186e-06
-2.88013e-08
1.38747e-06
-2.56116e-08
1.41016e-06
-2.26928e-08
1.43017e-06
-2.00099e-08
1.4477e-06
-1.75307e-08
1.46293e-06
-1.52272e-08
1.47601e-06
-1.30754e-08
1.48707e-06
-1.10604e-08
1.49624e-06
-9.17287e-09
1.50364e-06
-7.40345e-09
1.5094e-06
-5.75961e-09
1.51364e-06
-4.24038e-09
1.51648e-06
-2.83619e-09
1.51805e-06
-1.57441e-09
1.51849e-06
-4.35752e-10
1.51787e-06
6.21925e-10
1.51629e-06
1.57666e-09
1.51391e-06
2.3831e-09
1.51086e-06
3.04941e-09
1.50727e-06
3.58961e-09
1.50325e-06
4.01444e-09
1.49891e-06
4.34005e-09
1.49433e-06
4.58431e-09
1.48957e-06
4.75939e-09
1.48469e-06
4.87691e-09
1.47974e-06
4.95451e-09
1.47473e-06
5.00633e-09
1.4697e-06
5.03256e-09
1.46467e-06
5.02985e-09
1.45966e-06
5.00929e-09
1.45468e-06
4.98599e-09
1.44971e-06
4.97029e-09
1.44475e-06
4.95629e-09
1.43981e-06
4.94063e-09
1.43489e-06
4.92324e-09
1.42998e-06
4.90402e-09
1.4251e-06
4.88202e-09
1.42024e-06
4.85714e-09
1.41541e-06
4.82735e-09
1.41062e-06
4.79094e-09
1.40587e-06
4.74902e-09
1.40117e-06
4.70476e-09
1.39651e-06
4.66219e-09
1.39188e-06
4.62495e-09
1.38729e-06
4.59621e-09
1.38271e-06
4.57732e-09
1.37814e-06
4.56796e-09
1.37357e-06
4.56689e-09
1.369e-06
4.57275e-09
1.36442e-06
4.58475e-09
1.35981e-06
4.6027e-09
1.35519e-06
4.62704e-09
1.35053e-06
4.65869e-09
1.34583e-06
4.6988e-09
1.34108e-06
4.74889e-09
1.33627e-06
4.81042e-09
1.33138e-06
4.88596e-09
1.32641e-06
4.97746e-09
1.32132e-06
5.09042e-09
1.31609e-06
5.22668e-09
1.31069e-06
5.39858e-09
1.30509e-06
5.60308e-09
1.29922e-06
5.87222e-09
1.29303e-06
6.18292e-09
1.28641e-06
6.623e-09
1.27931e-06
7.0974e-09
1.27146e-06
7.85718e-09
1.26288e-06
8.57394e-09
1.25291e-06
9.97606e-09
1.24188e-06
1.10207e-08
1.22805e-06
1.38349e-08
1.21285e-06
1.5196e-08
1.19143e-06
2.14243e-08
1.16882e-06
2.26102e-08
1.13074e-06
3.80816e-08
1.09352e-06
3.72196e-08
1.01313e-06
8.03908e-08
7.26289e-08
9.40499e-07
6.73325e-08
-1.22923e-07
1.47403e-07
-1.78185e-07
2.25775e-07
-1.87803e-07
3.04892e-07
-1.90794e-07
3.86939e-07
-1.94364e-07
4.7287e-07
-1.99336e-07
5.62968e-07
-2.05277e-07
6.57151e-07
-2.11518e-07
7.55012e-07
-2.17261e-07
8.55776e-07
-2.21604e-07
9.58243e-07
-2.23543e-07
1.06065e-06
-2.21865e-07
1.16064e-06
-2.15238e-07
1.25514e-06
-2.02229e-07
1.34042e-06
-1.8139e-07
1.41235e-06
-1.51814e-07
1.46742e-06
-1.13575e-07
1.50364e-06
-6.855e-08
1.52003e-06
-1.86679e-08
1.51375e-06
3.9933e-08
1.48128e-06
1.0383e-07
1.42093e-06
1.68476e-07
1.33054e-06
2.27933e-07
1.20573e-06
2.73289e-07
1.03286e-06
3.07783e-07
7.94928e-07
3.44222e-07
4.63589e-07
4.08915e-07
1.37484e-08
5.12361e-07
-5.29208e-07
6.18444e-07
-1.08692e-06
6.98187e-07
-1.57899e-06
7.60053e-07
-1.9879e-06
8.06134e-07
-2.35164e-06
8.21622e-07
-2.69441e-06
8.12563e-07
-3.01727e-06
7.8738e-07
-3.31929e-06
7.5199e-07
-3.60022e-06
7.10291e-07
-3.86051e-06
6.65037e-07
-4.1007e-06
6.17712e-07
-4.32112e-06
5.69076e-07
-4.5218e-06
5.19377e-07
-4.70241e-06
4.68516e-07
-4.86255e-06
4.1665e-07
-5.0022e-06
3.64318e-07
-5.12075e-06
3.11078e-07
-5.2175e-06
2.56938e-07
-5.29185e-06
2.02096e-07
-5.34334e-06
1.46899e-07
-5.37176e-06
9.19145e-08
-5.37718e-06
3.79468e-08
-5.35979e-06
-1.44536e-08
-5.31825e-06
-6.4725e-08
-5.25461e-06
-1.11445e-07
-5.17042e-06
-1.54338e-07
-5.06751e-06
-1.92547e-07
-4.94845e-06
-2.25473e-07
-4.81596e-06
-2.52814e-07
-4.67297e-06
-2.7441e-07
-4.52233e-06
-2.90308e-07
-4.36683e-06
-3.00727e-07
-4.20904e-06
-3.06111e-07
-4.05119e-06
-3.07109e-07
-3.89506e-06
-3.04606e-07
-3.74185e-06
-2.99728e-07
-3.59205e-06
-2.93841e-07
-3.44536e-06
-2.88482e-07
-3.30063e-06
-2.85268e-07
-3.1559e-06
-2.85771e-07
-3.00847e-06
-2.91339e-07
-2.85516e-06
-3.0282e-07
-2.69273e-06
-3.20193e-07
-2.51857e-06
-3.42343e-07
-2.33122e-06
-3.67083e-07
-2.13088e-06
-3.91423e-07
-1.91957e-06
-4.12034e-07
-1.70085e-06
-4.26178e-07
-1.47898e-06
-4.3248e-07
-1.25808e-06
-4.31024e-07
-1.04161e-06
-4.22845e-07
-8.32253e-07
-4.0933e-07
-6.31778e-07
-3.92135e-07
-4.41209e-07
-3.72665e-07
-2.6097e-07
-3.52092e-07
-9.1045e-08
-3.3124e-07
6.91038e-08
-3.10847e-07
2.19298e-07
-2.91336e-07
3.60438e-07
-2.72378e-07
4.92868e-07
-2.54231e-07
6.17016e-07
-2.36933e-07
7.33304e-07
-2.20471e-07
8.42129e-07
-2.04814e-07
9.43864e-07
-1.89936e-07
1.03887e-06
-1.75814e-07
1.1275e-06
-1.62442e-07
1.21009e-06
-1.4982e-07
1.28702e-06
-1.37956e-07
1.35864e-06
-1.26862e-07
1.42532e-06
-1.16546e-07
1.48743e-06
-1.07008e-07
1.54535e-06
-9.82383e-08
1.59944e-06
-9.02148e-08
1.65005e-06
-8.29015e-08
1.69749e-06
-7.62496e-08
1.74208e-06
-7.01993e-08
1.78407e-06
-6.46842e-08
1.8237e-06
-5.96337e-08
1.86114e-06
-5.49787e-08
1.89657e-06
-5.0656e-08
1.93011e-06
-4.66098e-08
1.96185e-06
-4.27978e-08
1.99186e-06
-3.91882e-08
2.02022e-06
-3.57586e-08
2.04696e-06
-3.25023e-08
2.07213e-06
-2.94137e-08
2.09579e-06
-2.64901e-08
2.11795e-06
-2.37427e-08
2.1387e-06
-2.11807e-08
2.15811e-06
-1.87879e-08
2.17624e-06
-1.65524e-08
2.19312e-06
-1.44983e-08
2.20879e-06
-1.2624e-08
2.2233e-06
-1.09183e-08
2.23669e-06
-9.3711e-09
2.24899e-06
-7.9674e-09
2.26027e-06
-6.68865e-09
2.27055e-06
-5.52268e-09
2.27988e-06
-4.45707e-09
2.28831e-06
-3.47135e-09
2.29587e-06
-2.55291e-09
2.3026e-06
-1.70407e-09
2.30855e-06
-9.16303e-10
2.31372e-06
-1.58103e-10
2.31815e-06
5.53766e-10
2.32188e-06
1.24155e-09
2.32494e-06
1.89252e-09
2.32738e-06
2.50462e-09
2.32922e-06
3.07681e-09
2.33052e-06
3.60965e-09
2.3313e-06
4.1032e-09
2.3316e-06
4.55804e-09
2.33145e-06
4.97341e-09
2.33089e-06
5.34918e-09
2.32995e-06
5.6874e-09
2.32867e-06
5.99301e-09
2.32706e-06
6.27198e-09
2.32515e-06
6.52921e-09
2.32298e-06
6.7703e-09
2.32056e-06
6.99913e-09
2.31791e-06
7.21749e-09
2.31505e-06
7.42564e-09
2.312e-06
7.62347e-09
2.30877e-06
7.81191e-09
2.30538e-06
7.99342e-09
2.30183e-06
8.17232e-09
2.29814e-06
8.35366e-09
2.2943e-06
8.54256e-09
2.2903e-06
8.74363e-09
2.28615e-06
8.96036e-09
2.28184e-06
9.19715e-09
2.27736e-06
9.45649e-09
2.2727e-06
9.74723e-09
2.26786e-06
1.00714e-08
2.26281e-06
1.0451e-08
2.25753e-06
1.08786e-08
2.25199e-06
1.14119e-08
2.24617e-06
1.20064e-08
2.23997e-06
1.28205e-08
2.23339e-06
1.36782e-08
2.22622e-06
1.5025e-08
2.21852e-06
1.6278e-08
2.2098e-06
1.86945e-08
2.20033e-06
2.04927e-08
2.18895e-06
2.5213e-08
2.17652e-06
2.76291e-08
2.16024e-06
3.77001e-08
2.1423e-06
4.05459e-08
2.11638e-06
6.40029e-08
2.08666e-06
6.6946e-08
2.04103e-06
1.26021e-07
1.32128e-07
1.98153e-06
4.95187e-08
-1.72442e-07
8.90267e-08
-2.17693e-07
1.25286e-07
-2.24062e-07
1.6398e-07
-2.29488e-07
2.06416e-07
-2.368e-07
2.52699e-07
-2.45619e-07
3.02521e-07
-2.55099e-07
3.55519e-07
-2.64515e-07
4.11243e-07
-2.72985e-07
4.6901e-07
-2.7937e-07
5.27715e-07
-2.82248e-07
5.85826e-07
-2.79975e-07
6.41241e-07
-2.70654e-07
6.91518e-07
-2.52506e-07
7.33293e-07
-2.23165e-07
7.62077e-07
-1.80599e-07
7.72343e-07
-1.23841e-07
7.57358e-07
-5.35644e-08
7.11323e-07
2.73667e-08
6.32127e-07
1.19129e-07
5.15716e-07
2.2024e-07
3.55935e-07
3.28258e-07
1.4525e-07
4.38618e-07
-1.2966e-07
5.482e-07
-4.74958e-07
6.53082e-07
-8.79536e-07
7.488e-07
-1.30546e-06
8.34834e-07
-1.70288e-06
9.09781e-07
-2.05589e-06
9.71458e-07
-2.3706e-06
1.0129e-06
-2.6466e-06
1.03605e-06
-2.88125e-06
1.04078e-06
-3.0876e-06
1.02798e-06
-3.27874e-06
1.0037e-06
-3.46332e-06
9.71961e-07
-3.64633e-06
9.35001e-07
-3.83001e-06
8.93973e-07
-4.01449e-06
8.49512e-07
-4.19816e-06
8.01387e-07
-4.37843e-06
7.49341e-07
-4.55224e-06
6.93185e-07
-4.71656e-06
6.32836e-07
-4.86833e-06
5.68428e-07
-5.00429e-06
5.00278e-07
-5.12194e-06
4.28727e-07
-5.21921e-06
3.54206e-07
-5.29439e-06
2.77274e-07
-5.34615e-06
1.9866e-07
-5.37343e-06
1.192e-07
-5.37535e-06
3.98622e-08
-5.35255e-06
-3.72536e-08
-5.30667e-06
-1.10603e-07
-5.23852e-06
-1.79594e-07
-5.14995e-06
-2.4291e-07
-5.04299e-06
-2.99509e-07
-4.91994e-06
-3.48524e-07
-4.78337e-06
-3.89377e-07
-4.63606e-06
-4.21726e-07
-4.48086e-06
-4.45501e-07
-4.32072e-06
-4.60874e-07
-4.15849e-06
-4.68333e-07
-3.99689e-06
-4.68717e-07
-3.8382e-06
-4.63288e-07
-3.68415e-06
-4.53779e-07
-3.53559e-06
-4.42406e-07
-3.39233e-06
-4.31744e-07
-3.25307e-06
-4.24525e-07
-3.11542e-06
-4.23416e-07
-2.97596e-06
-4.30807e-07
-2.83041e-06
-4.48364e-07
-2.67435e-06
-4.76251e-07
-2.50389e-06
-5.12808e-07
-2.31657e-06
-5.54402e-07
-2.11237e-06
-5.95625e-07
-1.89413e-06
-6.30276e-07
-1.66701e-06
-6.53291e-07
-1.43707e-06
-6.62421e-07
-1.20978e-06
-6.58319e-07
-9.89217e-07
-6.43405e-07
-7.78199e-07
-6.20349e-07
-5.78231e-07
-5.92103e-07
-3.89904e-07
-5.60992e-07
-2.13267e-07
-5.28729e-07
-4.80543e-08
-4.96453e-07
1.06963e-07
-4.65865e-07
2.51689e-07
-4.36062e-07
3.87016e-07
-4.07706e-07
5.13599e-07
-3.80814e-07
6.3206e-07
-3.55394e-07
7.42987e-07
-3.31398e-07
8.4692e-07
-3.08747e-07
9.44339e-07
-2.87354e-07
1.03566e-06
-2.6714e-07
1.12126e-06
-2.48039e-07
1.20145e-06
-2.30011e-07
1.27654e-06
-2.13042e-07
1.34681e-06
-1.97137e-07
1.41258e-06
-1.82315e-07
1.47417e-06
-1.68593e-07
1.5319e-06
-1.55974e-07
1.58613e-06
-1.44444e-07
1.63719e-06
-1.33963e-07
1.68541e-06
-1.2447e-07
1.7311e-06
-1.15879e-07
1.7745e-06
-1.08094e-07
1.81588e-06
-1.01005e-07
1.8554e-06
-9.45067e-08
1.89324e-06
-8.84967e-08
1.92952e-06
-8.28852e-08
1.96432e-06
-7.75991e-08
1.99772e-06
-7.25826e-08
2.02975e-06
-6.77959e-08
2.06047e-06
-6.32174e-08
2.08989e-06
-5.88349e-08
2.11804e-06
-5.46447e-08
2.14495e-06
-5.06516e-08
2.17063e-06
-4.68584e-08
2.1951e-06
-4.32596e-08
2.2184e-06
-3.98512e-08
2.24055e-06
-3.66422e-08
2.26156e-06
-3.36367e-08
2.28146e-06
-3.08234e-08
2.30028e-06
-2.81896e-08
2.31803e-06
-2.57205e-08
2.33475e-06
-2.33995e-08
2.35044e-06
-2.12124e-08
2.36512e-06
-1.91454e-08
2.37884e-06
-1.71836e-08
2.3916e-06
-1.53147e-08
2.40343e-06
-1.35316e-08
2.41434e-06
-1.18312e-08
2.42439e-06
-1.02061e-08
2.43359e-06
-8.65024e-09
2.44198e-06
-7.15134e-09
2.44959e-06
-5.71212e-09
2.45643e-06
-4.33691e-09
2.46254e-06
-3.02818e-09
2.46793e-06
-1.78547e-09
2.47264e-06
-6.08087e-10
2.47669e-06
5.13748e-10
2.4801e-06
1.56498e-09
2.4829e-06
2.54483e-09
2.48513e-06
3.45535e-09
2.48682e-06
4.30175e-09
2.488e-06
5.08976e-09
2.48871e-06
5.82299e-09
2.48897e-06
6.50765e-09
2.48882e-06
7.14902e-09
2.48829e-06
7.75088e-09
2.4874e-06
8.31564e-09
2.48618e-06
8.84493e-09
2.48465e-06
9.34094e-09
2.48284e-06
9.80769e-09
2.48076e-06
1.02509e-08
2.47843e-06
1.06784e-08
2.47588e-06
1.10979e-08
2.4731e-06
1.15178e-08
2.47012e-06
1.19437e-08
2.46693e-06
1.23844e-08
2.46355e-06
1.28422e-08
2.45996e-06
1.33326e-08
2.45618e-06
1.38534e-08
2.45219e-06
1.444e-08
2.44799e-06
1.50739e-08
2.44357e-06
1.58409e-08
2.4389e-06
1.66698e-08
2.43395e-06
1.77748e-08
2.4287e-06
1.89256e-08
2.42306e-06
2.06702e-08
2.417e-06
2.23308e-08
2.41037e-06
2.53273e-08
2.4031e-06
2.77674e-08
2.39497e-06
3.33411e-08
2.38565e-06
3.69488e-08
2.3752e-06
4.81447e-08
2.3621e-06
5.36476e-08
2.34832e-06
7.77841e-08
2.32781e-06
8.74516e-08
2.31129e-06
1.42549e-07
1.65462e-07
2.27795e-06
1.72814e-08
-1.89723e-07
2.0247e-08
-2.20659e-07
2.22441e-08
-2.26059e-07
2.49953e-08
-2.32239e-07
2.83773e-08
-2.40182e-07
3.17777e-08
-2.49019e-07
3.46925e-08
-2.58014e-07
3.63909e-08
-2.66214e-07
3.60936e-08
-2.72688e-07
3.26539e-08
-2.75931e-07
2.43423e-08
-2.73936e-07
8.85513e-09
-2.64488e-07
-1.64164e-08
-2.45382e-07
-5.47566e-08
-2.14165e-07
-1.0921e-07
-1.68712e-07
-1.828e-07
-1.07009e-07
-2.78891e-07
-2.77501e-08
-3.9823e-07
6.57749e-08
-5.43372e-07
1.72509e-07
-7.14996e-07
2.90753e-07
-9.11832e-07
4.17077e-07
-1.13026e-06
5.46686e-07
-1.36574e-06
6.74097e-07
-1.61115e-06
7.93614e-07
-1.85802e-06
8.99951e-07
-2.09908e-06
9.89856e-07
-2.32425e-06
1.06e-06
-2.52415e-06
1.10969e-06
-2.69535e-06
1.14265e-06
-2.84565e-06
1.1632e-06
-2.98207e-06
1.17247e-06
-3.11286e-06
1.17157e-06
-3.2471e-06
1.16222e-06
-3.39012e-06
1.14671e-06
-3.54385e-06
1.12569e-06
-3.70781e-06
1.09896e-06
-3.87954e-06
1.06571e-06
-4.05459e-06
1.02455e-06
-4.22814e-06
9.7494e-07
-4.39581e-06
9.17009e-07
-4.55396e-06
8.51342e-07
-4.69989e-06
7.78759e-07
-4.83157e-06
7.00106e-07
-4.94729e-06
6.16006e-07
-5.04548e-06
5.26919e-07
-5.12475e-06
4.33467e-07
-5.18391e-06
3.36435e-07
-5.2221e-06
2.36857e-07
-5.23863e-06
1.35729e-07
-5.23217e-06
3.34022e-08
-5.20479e-06
-6.46343e-08
-5.15703e-06
-1.58361e-07
-5.08953e-06
-2.47094e-07
-5.00392e-06
-3.28525e-07
-4.90234e-06
-4.01088e-07
-4.7871e-06
-4.63766e-07
-4.66037e-06
-5.16111e-07
-4.52411e-06
-5.57984e-07
-4.38017e-06
-5.89437e-07
-4.23044e-06
-6.10603e-07
-4.07704e-06
-6.21731e-07
-3.9224e-06
-6.23358e-07
-3.76914e-06
-6.16552e-07
-3.61983e-06
-6.0309e-07
-3.47652e-06
-5.85713e-07
-3.34012e-06
-5.68146e-07
-3.20991e-06
-5.54733e-07
-3.08338e-06
-5.4995e-07
-2.95631e-06
-5.57875e-07
-2.82304e-06
-5.81639e-07
-2.6768e-06
-6.22489e-07
-2.51139e-06
-6.78217e-07
-2.32253e-06
-7.43262e-07
-2.10956e-06
-8.08589e-07
-1.87661e-06
-8.6323e-07
-1.63183e-06
-8.98068e-07
-1.38461e-06
-9.09647e-07
-1.14286e-06
-9.00068e-07
-9.11658e-07
-8.74605e-07
-6.93827e-07
-8.38179e-07
-4.90163e-07
-7.95767e-07
-3.00442e-07
-7.50713e-07
-1.23921e-07
-7.05251e-07
4.05123e-08
-6.60886e-07
1.93442e-07
-6.18795e-07
3.357e-07
-5.7832e-07
4.67846e-07
-5.39852e-07
5.90461e-07
-5.03429e-07
7.04124e-07
-4.69058e-07
8.09464e-07
-4.36737e-07
9.07171e-07
-4.06454e-07
9.97986e-07
-3.7817e-07
1.08266e-06
-3.51813e-07
1.16189e-06
-3.27272e-07
1.23629e-06
-3.04409e-07
1.30633e-06
-2.83084e-07
1.37237e-06
-2.6318e-07
1.43468e-06
-2.44623e-07
1.49347e-06
-2.27377e-07
1.54893e-06
-2.11436e-07
1.60128e-06
-1.96798e-07
1.65076e-06
-1.83445e-07
1.69762e-06
-1.71328e-07
1.74211e-06
-1.60366e-07
1.78446e-06
-1.50447e-07
1.82489e-06
-1.41436e-07
1.86358e-06
-1.33194e-07
1.90067e-06
-1.25583e-07
1.93626e-06
-1.18481e-07
1.97045e-06
-1.11784e-07
2.00328e-06
-1.05415e-07
2.0348e-06
-9.93203e-08
2.06505e-06
-9.34657e-08
2.09405e-06
-8.78359e-08
2.12183e-06
-8.24254e-08
2.14842e-06
-7.72353e-08
2.17383e-06
-7.22707e-08
2.1981e-06
-6.75333e-08
2.22127e-06
-6.30203e-08
2.24336e-06
-5.8734e-08
2.2644e-06
-5.46739e-08
2.28441e-06
-5.08293e-08
2.3034e-06
-4.71863e-08
2.32141e-06
-4.37288e-08
2.33845e-06
-4.044e-08
2.35455e-06
-3.73045e-08
2.36971e-06
-3.43065e-08
2.38395e-06
-3.14321e-08
2.39731e-06
-2.867e-08
2.40979e-06
-2.60112e-08
2.42141e-06
-2.3448e-08
2.43218e-06
-2.09755e-08