/*--------------------------------*- C++ -*----------------------------------*\
  =========                 |
  \\      /  F ield         | OpenFOAM: The Open Source CFD Toolbox
   \\    /   O peration     | Website:  https://openfoam.org
    \\  /    A nd           | Version:  7
     \\/     M anipulation  |
\*---------------------------------------------------------------------------*/
FoamFile
{
    version     2.0;
    format      ascii;
    class       volScalarField;
    location    "0.038";
    object      s;
}
// * * * * * * * * * * * * * * * * * * * * * * * * * * * * * * * * * * * * * //

dimensions      [0 0 0 0 0 0 0];

internalField   nonuniform List<scalar> 
12225
(
1
1
1
1
1
1
1
1
1
1
1
1
1
1
1
1
1
1
1
1
1
1
1
1
1
1
1
1
1
1
1
1
1
1
1
1
1
1
1
1
1
1
1
1
1
1
1
1
1
1
1
1
1
1
1
1
1
1
1
1
1
1
1
1
1
1
1
1
1
1
1
1
1
1
1
1
1
1
1
1
1
1
1
1
1
1
1
1
1
1
1
1
1
1
1
1
1
1
1
1
1
1
1
1
1
1
1
1
1
1
1
1
1
1
1
1
1
1
1
1
1
1
1
1
1
1
1
1
1
1
1
1
1
1
1
1
1
1
1
1
1
1
1
1
1
1
1
1
1
1
1
1
1
1
1
1
1
1
1
1
1
1
1
1
1
1
1
1
1
1
1
1
1
1
1
1
1
1
1
1
1
1
1
1
1
1
1
1
1
1
1
1
1
1
1
1
1
1
1
1
1
1
1
1
1
1
1
1
1
1
1
1
1
1
1
1
1
1
1
1
1
1
1
1
1
1
1
1
1
1
1
1
1
1
1
1
1
1
1
1
1
1
1
1
1
1
1
1
1
1
1
1
1
1
1
1
1
1
1
1
1
1
1
1
1
1
1
1
1
1
1
1
1
1
1
1
1
1
1
1
1
1
1
1
1
1
1
1
1
1
1
1
1
1
1
1
1
1
1
1
1
1
1
1
1
1
1
1
1
1
1
1
1
1
1
1
1
1
1
1
1
1
1
1
1
1
1
1
1
1
1
1
1
1
1
1
1
1
1
1
1
1
1
1
1
1
1
1
1
1
1
1
1
1
1
1
1
1
1
1
1
1
1
1
1
1
1
1
1
1
1
1
1
1
1
1
1
1
1
1
1
1
1
1
1
1
1
1
1
1
1
1
1
1
1
1
1
1
1
1
1
1
1
1
1
1
1
1
1
1
1
1
1
1
1
1
1
1
1
1
1
1
1
1
1
1
1
1
1
1
1
1
1
1
1
1
1
1
1
1
1
1
1
1
1
1
1
1
1
1
1
1
1
1
1
1
1
1
1
1
1
1
1
1
1
1
1
1
1
1
1
1
1
1
1
1
1
1
1
1
1
1
1
1
1
1
1
1
1
1
1
1
1
1
1
1
1
1
1
1
1
1
1
1
1
1
1
1
1
1
1
1
1
1
1
1
1
1
1
1
1
1
1
1
1
1
1
1
1
1
1
1
1
1
1
1
1
1
1
1
2.57212e-11
8.74826e-10
7.43166e-09
3.75003e-08
1.40339e-07
4.21741e-07
1.06571e-06
2.47851e-06
4.86107e-06
8.50341e-06
1.3889e-05
1.88024e-05
2.80074e-05
3.33573e-05
3.96701e-05
4.09193e-05
3.96468e-05
3.62549e-05
2.89686e-05
2.25121e-05
1.72037e-05
1.24622e-05
8.19459e-06
4.98691e-06
3.49103e-06
2.37623e-06
6.98803e-07
5.49192e-07
5.03169e-05
0.00136596
0.0180339
0.0717589
0.109315
0.131689
0.14909
0.165703
0.181894
0.197726
0.213442
0.229133
0.244221
0.259064
0.273632
0.286526
0.298541
0.310742
0.322166
0.333474
0.343963
0.352975
0.361807
0.369144
0.372286
0.373398
0.372843
0.367296
0.361906
0.353488
0.340563
0.328755
0.314935
0.30073
0.287091
0.27046
0.256375
0.242726
0.22982
0.217133
0.205843
0.196613
0.186245
0.175921
0.165514
0.153652
0.142491
0.128754
0.116424
0.103731
0.0902969
0.0770899
0.0642974
0.0523714
0.0416662
0.0324179
0.024736
0.0185379
0.0135788
0.00967469
0.00670583
0.00452545
0.00297338
0.00189865
0.00117652
0.000707398
0.00041268
0.000233536
0.000128205
6.82944e-05
3.53134e-05
1.77308e-05
8.64742e-06
4.09733e-06
1.88613e-06
8.43317e-07
3.6604e-07
1.54104e-07
6.28556e-08
2.48015e-08
9.44961e-09
3.46911e-09
1.22389e-09
4.13501e-10
1.33219e-10
4.06612e-11
1.16306e-11
3.06463e-12
7.11115e-13
1.52925e-13
3.21622e-14
6.62977e-15
1.29707e-15
2.32594e-16
7.36113e-17
2.30397e-17
6.91998e-18
1.99755e-18
5.61442e-19
1.55361e-19
4.25365e-20
1.15211e-20
3.07924e-21
8.10043e-22
2.0945e-22
5.32211e-23
1.32981e-23
3.27011e-24
7.9196e-25
1.88945e-25
4.43914e-26
1.02509e-26
2.31355e-27
5.04961e-28
1.05234e-28
2.07423e-29
3.85993e-30
6.83376e-31
1.17039e-31
1.98331e-32
3.40024e-33
5.98203e-34
1.082e-34
1.99631e-35
3.71399e-36
6.89283e-37
1.26513e-37
2.28024e-38
4.01123e-39
6.85068e-40
1.13129e-40
1.80203e-41
2.7683e-42
4.11061e-43
5.92818e-44
8.36198e-45
1.16336e-45
1.60934e-46
2.2262e-47
3.08343e-48
4.26182e-49
5.83756e-50
7.86173e-51
1.03429e-51
1.31161e-52
1.3869e-53
1.10815e-54
1.57243e-55
2.06374e-56
2.43324e-57
2.65234e-58
-2.10843e-58
5.12115e-10
1.42949e-08
1.28362e-07
7.02101e-07
2.78527e-06
8.59245e-06
2.17556e-05
4.87565e-05
9.03727e-05
0.000145431
0.000218931
0.000303914
0.000402532
0.000469868
0.000533229
0.000530705
0.000507935
0.000445966
0.000371752
0.000285567
0.000187839
0.000104219
5.25955e-05
3.32425e-05
3.53615e-05
0.000122942
0.00104583
0.00680177
0.0223276
0.0483575
0.0880313
0.13492
0.172401
0.213084
0.26146
0.320134
0.390012
0.467359
0.531255
0.600011
0.654813
0.70964
0.752634
0.794271
0.826144
0.855213
0.874746
0.894768
0.905443
0.914004
0.917955
0.919719
0.920926
0.921657
0.922061
0.922226
0.921095
0.919265
0.915524
0.911406
0.905996
0.899331
0.89164
0.88263
0.873548
0.863596
0.853182
0.842943
0.832291
0.82189
0.811064
0.798842
0.784873
0.767696
0.74699
0.720365
0.687288
0.647853
0.602335
0.551073
0.494729
0.434212
0.371342
0.308518
0.249085
0.197372
0.156642
0.121247
0.0909487
0.0662236
0.0470301
0.0326343
0.0220029
0.0144018
0.00916407
0.00566927
0.00340924
0.00199391
0.00113483
0.000628934
0.000339617
0.000178783
9.17914e-05
4.59774e-05
2.24702e-05
1.07147e-05
4.98423e-06
2.26133e-06
1.00037e-06
4.31395e-07
1.8131e-07
7.42575e-08
2.96358e-08
1.15259e-08
4.36888e-09
1.61437e-09
5.81718e-10
2.04433e-10
7.00828e-11
2.34462e-11
7.65783e-12
2.4426e-12
7.61089e-13
2.31709e-13
6.89328e-14
2.00407e-14
5.69388e-15
1.58072e-15
4.28724e-16
1.13582e-16
2.93821e-17
7.42368e-18
1.84239e-18
4.49509e-19
1.07801e-19
2.54104e-20
5.88678e-21
1.34032e-21
2.99906e-22
6.59475e-23
1.42509e-23
3.02632e-24
6.31564e-25
1.29527e-25
2.61066e-26
5.17139e-27
1.00682e-27
1.92666e-28
3.62407e-29
6.70125e-30
1.21819e-30
2.17727e-31
3.82631e-32
6.61236e-33
1.12377e-33
1.87836e-34
3.08811e-35
4.99401e-36
7.94465e-37
1.24335e-37
1.91439e-38
2.9e-39
4.32228e-40
6.33845e-41
9.14551e-42
1.29833e-42
1.81337e-43
2.49169e-44
3.36772e-45
4.47674e-46
5.85078e-47
7.5163e-48
9.48383e-49
1.17501e-49
1.4268e-50
1.69781e-51
1.97058e-52
2.23217e-53
2.44512e-54
1.71728e-55
4.62042e-09
1.22522e-07
1.16806e-06
6.74486e-06
2.74317e-05
8.41658e-05
0.000208505
0.000425092
0.000714672
0.00107217
0.00152884
0.00203276
0.00248673
0.00283915
0.00299943
0.0029179
0.0026671
0.00205559
0.00153708
0.0012673
0.00110031
0.00110355
0.0015337
0.00305898
0.00686131
0.0151922
0.031532
0.060633
0.105382
0.165729
0.239359
0.325911
0.430465
0.531541
0.634316
0.716882
0.785571
0.828852
0.87249
0.897159
0.920177
0.934343
0.944281
0.951739
0.955656
0.957623
0.958392
0.958539
0.957406
0.955826
0.954679
0.95405
0.954049
0.956206
0.958715
0.963753
0.967988
0.972181
0.975921
0.980303
0.982604
0.985302
0.986475
0.987657
0.988635
0.989094
0.98938
0.989482
0.989243
0.988955
0.988895
0.988055
0.987402
0.986318
0.984525
0.9821
0.97843
0.9732
0.965779
0.955415
0.941136
0.921516
0.894728
0.85845
0.809667
0.74445
0.661258
0.568193
0.469241
0.369816
0.278787
0.206839
0.150561
0.105588
0.0717114
0.0473768
0.0303691
0.0188943
0.0114221
0.0067133
0.003839
0.00213748
0.00115943
0.000612983
0.000315963
0.000158807
7.78308e-05
3.71922e-05
1.73269e-05
7.86886e-06
3.48338e-06
1.50312e-06
6.32318e-07
2.59365e-07
1.03762e-07
4.05007e-08
1.54296e-08
5.73954e-09
2.08542e-09
7.40426e-10
2.5699e-10
8.72271e-11
2.89619e-11
9.40939e-12
2.99193e-12
9.31284e-13
2.83806e-13
8.46887e-14
2.4748e-14
7.08287e-15
1.98554e-15
5.45231e-16
1.46665e-16
3.86495e-17
9.97887e-18
2.52461e-18
6.25953e-19
1.52116e-19
3.62423e-20
8.4836e-21
1.95336e-21
4.4236e-22
9.85209e-23
2.15785e-23
4.6477e-24
9.84398e-25
2.05027e-25
4.19908e-26
8.4567e-27
1.67477e-27
3.26155e-28
6.24627e-29
1.17641e-29
2.17898e-30
3.96944e-31
7.1122e-32
1.25343e-32
2.17292e-33
3.70558e-34
6.21669e-35
1.02606e-35
1.66618e-36
2.66207e-37
4.18486e-38
6.47312e-39
9.85201e-40
1.47537e-40
2.17392e-41
3.15135e-42
4.49423e-43
6.30338e-44
8.69491e-45
1.17862e-45
1.57042e-46
2.05267e-47
2.63476e-48
3.30454e-49
4.06352e-50
4.8385e-51
5.59734e-52
2.84139e-08
7.20019e-07
6.92965e-06
4.00437e-05
0.000160038
0.000473925
0.00109381
0.00201603
0.00310022
0.00437728
0.0059464
0.00753977
0.0089273
0.00993369
0.010216
0.00987581
0.00913313
0.00852886
0.00816082
0.00845891
0.00990368
0.0131982
0.0197128
0.031806
0.053284
0.0896766
0.148078
0.236886
0.353419
0.466082
0.574804
0.668375
0.745189
0.810407
0.855174
0.890222
0.907943
0.920642
0.926486
0.928957
0.929709
0.928556
0.92243
0.910325
0.895156
0.876013
0.856226
0.836425
0.819078
0.805949
0.799376
0.796607
0.796413
0.80566
0.816705
0.836411
0.856918
0.879864
0.898074
0.921251
0.936877
0.954702
0.963883
0.972033
0.980101
0.983439
0.98693
0.989463
0.990603
0.991826
0.993182
0.993822
0.9951
0.996143
0.996699
0.997606
0.997991
0.998255
0.998385
0.998208
0.997618
0.996523
0.994693
0.991734
0.987025
0.979537
0.967692
0.949023
0.919722
0.87408
0.804043
0.701945
0.577572
0.446112
0.324389
0.230111
0.158797
0.105675
0.0681897
0.0426724
0.0259125
0.0152835
0.00876199
0.00488546
0.00265045
0.00139945
0.00071924
0.000359815
0.000175212
8.30459e-05
3.83137e-05
1.72072e-05
7.5243e-06
3.20433e-06
1.32945e-06
5.37579e-07
2.11952e-07
8.15178e-08
3.05971e-08
1.12127e-08
4.01359e-09
1.40382e-09
4.79952e-10
1.60444e-10
5.2457e-11
1.6778e-11
5.25072e-12
1.60812e-12
4.82072e-13
1.41469e-13
4.06472e-14
1.14361e-14
3.1511e-15
8.50435e-16
2.24841e-16
5.82414e-17
1.47835e-17
3.67773e-18
8.96837e-19
2.14396e-19
5.0251e-20
1.15508e-20
2.60774e-21
5.78901e-22
1.26362e-22
2.71201e-23
5.72301e-24
1.18746e-24
2.42262e-25
4.85988e-26
9.58638e-27
1.85945e-27
3.54672e-28
6.65277e-29
1.22723e-29
2.22648e-30
3.97284e-31
6.97258e-32
1.2037e-32
2.04411e-33
3.41482e-34
5.61223e-35
9.07455e-36
1.44363e-36
2.25964e-37
3.48006e-38
5.27336e-39
7.8623e-40
1.15324e-40
1.66421e-41
2.36194e-42
3.29714e-43
4.5235e-44
6.10107e-45
8.07518e-46
1.04983e-46
1.33509e-47
1.66533e-48
2.01879e-49
2.3899e-50
1.44538e-07
3.24857e-06
2.90089e-05
0.000155804
0.000579025
0.00160593
0.00349429
0.00603105
0.00872593
0.0117916
0.0155495
0.0196667
0.0237828
0.0270539
0.0286501
0.0293823
0.0299624
0.0312998
0.0343882
0.0403597
0.0509806
0.0691007
0.0993815
0.149013
0.228652
0.332353
0.450999
0.559603
0.650403
0.731934
0.796928
0.845261
0.876906
0.898015
0.907951
0.912564
0.913861
0.913669
0.903181
0.883358
0.850733
0.800849
0.737595
0.694375
0.646956
0.615547
0.591764
0.572935
0.563763
0.556541
0.553262
0.551776
0.551353
0.553378
0.556339
0.563877
0.575851
0.598606
0.634962
0.68124
0.738424
0.798364
0.844542
0.876117
0.907377
0.922473
0.939106
0.949453
0.95587
0.961177
0.967311
0.971019
0.978095
0.983901
0.987117
0.992571
0.994972
0.997267
0.998509
0.999202
0.999546
0.999696
0.99975
0.999734
0.999607
0.999322
0.998767
0.997715
0.99573
0.991999
0.98497
0.971726
0.946742
0.90027
0.817942
0.689576
0.53517
0.384622
0.266142
0.178854
0.115996
0.0728564
0.0443403
0.0261699
0.0149881
0.00833338
0.00449927
0.00235928
0.00120165
0.00059454
0.00028579
0.000133496
6.06134e-05
2.67617e-05
1.14946e-05
4.80531e-06
1.95626e-06
7.75961e-07
3.00043e-07
1.13156e-07
4.16409e-08
1.49589e-08
5.24787e-09
1.79853e-09
6.02332e-10
1.97175e-10
6.31061e-11
1.97509e-11
6.04619e-12
1.81066e-12
5.30552e-13
1.52136e-13
4.26989e-14
1.17316e-14
3.15594e-15
8.31386e-16
2.14516e-16
5.42221e-17
1.34288e-17
3.25932e-18
7.75405e-19
1.80853e-19
4.13583e-20
9.27713e-21
2.04459e-21
4.42896e-22
9.42986e-23
1.97347e-23
4.05969e-24
8.20951e-25
1.63201e-25
3.18956e-26
6.12866e-27
1.15785e-27
2.15086e-28
3.9289e-29
7.05758e-30
1.24679e-30
2.16624e-31
3.70193e-32
6.22273e-33
1.02894e-33
1.67372e-34
2.67841e-35
4.21682e-36
6.53167e-37
9.95376e-38
1.49239e-38
2.20123e-39
3.19401e-40
4.55803e-41
6.39729e-42
8.82501e-43
1.1967e-43
1.59296e-44
2.08239e-45
2.6655e-46
3.34522e-47
4.0928e-48
4.89257e-49
3.98436e-07
7.85223e-06
6.51622e-05
0.000330372
0.00118547
0.00327821
0.00715515
0.0127977
0.0193736
0.025898
0.0331769
0.0423039
0.0528555
0.0636103
0.0722144
0.0794162
0.0883248
0.100904
0.119762
0.14935
0.196677
0.258288
0.339635
0.43387
0.528157
0.616066
0.699499
0.765061
0.817889
0.857997
0.882549
0.895522
0.901309
0.903401
0.90352
0.895045
0.874935
0.835276
0.765645
0.69322
0.630374
0.581709
0.557163
0.532844
0.521838
0.514016
0.510264
0.508431
0.507716
0.507537
0.507962
0.508041
0.507796
0.506005
0.50179
0.495423
0.485618
0.476903
0.468049
0.463788
0.46275
0.489904
0.531965
0.615358
0.686103
0.748096
0.79947
0.825351
0.847056
0.865209
0.881378
0.898047
0.921587
0.943466
0.955162
0.97204
0.980151
0.988281
0.993273
0.996553
0.998387
0.999303
0.999706
0.999863
0.999926
0.99995
0.999956
0.999945
0.999897
0.999778
0.999505
0.99888
0.997453
0.994192
0.986745
0.969759
0.931018
0.846199
0.703908
0.530577
0.369519
0.24939
0.162298
0.102011
0.0619985
0.0364601
0.0207572
0.0114442
0.00611205
0.00316296
0.00158649
0.000771582
0.00036402
0.000166685
7.41237e-05
3.20316e-05
1.346e-05
5.50344e-06
2.19087e-06
8.4966e-07
3.21184e-07
1.18401e-07
4.25838e-08
1.49482e-08
5.12315e-09
1.71486e-09
5.60764e-10
1.79186e-10
5.59626e-11
1.70867e-11
5.10119e-12
1.48946e-12
4.25413e-13
1.18879e-13
3.25081e-14
8.70081e-15
2.2798e-15
5.84915e-16
1.46973e-16
3.61763e-17
8.72458e-18
2.06202e-18
4.77703e-19
1.08497e-19
2.41672e-20
5.28732e-21
1.13653e-21
2.40041e-22
4.98169e-23
1.01599e-23
2.03635e-24
4.01147e-25
7.76736e-26
1.47841e-26
2.76631e-27
5.0889e-28
9.2044e-29
1.637e-29
2.86295e-30
4.92408e-31
8.32936e-32
1.38581e-32
2.26792e-33
3.65098e-34
5.78181e-35
9.00761e-36
1.38053e-36
2.0815e-37
3.08724e-38
4.50424e-39
6.46299e-40
9.11989e-41
1.26495e-41
1.72453e-42
2.30851e-43
3.03441e-44
3.90874e-45
4.93589e-46
6.0903e-47
7.34754e-48
5.61338e-07
1.1104e-05
9.21067e-05
0.000464182
0.00162606
0.00425288
0.00903572
0.0166815
0.0280299
0.0437051
0.0635966
0.0871378
0.11613
0.151328
0.185974
0.215559
0.247528
0.285868
0.330046
0.385165
0.447371
0.515178
0.587484
0.661455
0.724228
0.784144
0.827073
0.859634
0.88052
0.890762
0.894959
0.896175
0.895583
0.884667
0.860029
0.808457
0.725056
0.653208
0.593482
0.561106
0.533504
0.521075
0.514005
0.508854
0.506589
0.504776
0.504169
0.504166
0.505318
0.506378
0.507583
0.510808
0.514055
0.519071
0.522526
0.525718
0.526626
0.51635
0.495629
0.459914
0.427652
0.407315
0.393283
0.389184
0.402671
0.439369
0.493662
0.549239
0.596031
0.636653
0.681268
0.735607
0.800427
0.866194
0.901172
0.933155
0.954492
0.970964
0.981644
0.989117
0.994196
0.997212
0.99878
0.99949
0.999792
0.999917
0.999964
0.999982
0.999988
0.99999
0.999987
0.999972
0.999927
0.9998
0.999452
0.998499
0.995921
0.989018
0.970749
0.922915
0.805886
0.62824
0.444897
0.299956
0.194912
0.121998
0.0736297
0.0428781
0.0241067
0.0130912
0.00687063
0.003487
0.00171255
0.000814506
0.000375451
0.000167871
7.28651e-05
3.07274e-05
1.25986e-05
5.02589e-06
1.95196e-06
7.38492e-07
2.72308e-07
9.79066e-08
3.43381e-08
1.17519e-08
3.926e-09
1.28064e-09
4.07999e-10
1.26986e-10
3.86204e-11
1.14801e-11
3.33613e-12
9.47982e-13
2.63461e-13
7.1629e-14
1.90553e-14
4.96131e-15
1.26454e-15
3.15588e-16
7.71374e-17
1.847e-17
4.33337e-18
9.96411e-19
2.24592e-19
4.96607e-20
1.07838e-20
2.29998e-21
4.81842e-22
9.91647e-23
2.00505e-23
3.9834e-24
7.77651e-25
1.49197e-25
2.81334e-26
5.21448e-27
9.50091e-28
1.70186e-28
2.99727e-29
5.19049e-30
8.83904e-31
1.48031e-31
2.43825e-32
3.95013e-33
6.2947e-34
9.86704e-35
1.52143e-35
2.30769e-36
3.44303e-37
5.05279e-38
7.29245e-39
1.03499e-39
1.44395e-40
1.97999e-41
2.66655e-42
3.52628e-43
4.57308e-44
5.8149e-45
7.23707e-46
8.81606e-47
5.1481e-07
1.09076e-05
9.51505e-05
0.000504877
0.00187472
0.00519585
0.0111985
0.019901
0.0326173
0.0557371
0.0969326
0.156541
0.225198
0.291223
0.346139
0.386913
0.423517
0.469084
0.522568
0.57468
0.627501
0.686631
0.742516
0.78851
0.828588
0.859902
0.87577
0.885783
0.889758
0.890836
0.890189
0.880734
0.857561
0.807679
0.726213
0.649276
0.598198
0.553658
0.53194
0.517308
0.510021
0.506317
0.500231
0.493099
0.4868
0.478579
0.469434
0.459527
0.454054
0.451858
0.453613
0.465062
0.475403
0.493923
0.509556
0.529029
0.543427
0.560454
0.572099
0.577176
0.55993
0.491767
0.422996
0.378687
0.35747
0.348039
0.345167
0.353576
0.368436
0.389564
0.429056
0.505705
0.628462
0.768019
0.844972
0.892534
0.932835
0.958558
0.974746
0.98445
0.990486
0.994445
0.996981
0.998507
0.999327
0.999716
0.999887
0.999956
0.999982
0.999992
0.999996
0.999997
0.999997
0.999995
0.999984
0.999946
0.999824
0.999432
0.998204
0.994445
0.983216
0.950421
0.856379
0.673084
0.478015
0.320855
0.206743
0.127917
0.0760803
0.043537
0.0239924
0.0127443
0.00653163
0.00323325
0.00154751
0.000716922
0.000321812
0.000140105
5.92141e-05
2.43152e-05
9.70821e-06
3.7714e-06
1.42636e-06
5.25466e-07
1.8865e-07
6.60307e-08
2.25411e-08
7.50743e-09
2.44023e-09
7.74322e-10
2.39928e-10
7.26151e-11
2.14719e-11
6.20468e-12
1.75261e-12
4.84034e-13
1.30738e-13
3.45439e-14
8.93091e-15
2.25988e-15
5.59824e-16
1.35801e-16
3.22663e-17
7.51097e-18
1.71334e-18
3.83133e-19
8.40849e-20
1.81175e-20
3.833e-21
7.96341e-22
1.62492e-22
3.25684e-23
6.4127e-24
1.24056e-24
2.3582e-25
4.40526e-26
8.08801e-27
1.45961e-27
2.58939e-28
4.51615e-29
7.74446e-30
1.30588e-30
2.16542e-31
3.53131e-32
5.66387e-33
8.93504e-34
1.38642e-34
2.11602e-35
3.17656e-36
4.69022e-37
6.81044e-38
9.72436e-39
1.36499e-39
1.88321e-40
2.55234e-41
3.39714e-42
4.43676e-43
5.68369e-44
7.13567e-45
8.77901e-46
2.9877e-07
7.72911e-06
7.50224e-05
0.000427687
0.00167005
0.00487579
0.011308
0.0224215
0.0403316
0.0697504
0.120974
0.202427
0.30389
0.392867
0.452116
0.501339
0.558895
0.614202
0.654005
0.694551
0.742859
0.7871
0.82351
0.850298
0.871225
0.881214
0.88549
0.887017
0.887263
0.880772
0.862706
0.820728
0.743469
0.668977
0.60869
0.562656
0.53565
0.516609
0.508318
0.50234
0.497457
0.48707
0.470322
0.445346
0.406393
0.372583
0.350833
0.334693
0.328472
0.327036
0.335253
0.347503
0.366414
0.388803
0.418384
0.449794
0.488916
0.523393
0.571127
0.599492
0.618893
0.626417
0.598817
0.516321
0.430096
0.371892
0.343294
0.332212
0.32926
0.333831
0.354513
0.417868
0.550069
0.706226
0.796996
0.862425
0.914618
0.950418
0.971455
0.98326
0.989933
0.993893
0.996416
0.997987
0.998923
0.999457
0.999742
0.999886
0.999953
0.999982
0.999993
0.999997
0.999999
0.999999
0.999999
0.999998
0.999994
0.999975
0.999907
0.99966
0.998797
0.995896
0.986463
0.956707
0.864992
0.668736
0.467431
0.309765
0.19614
0.118887
0.0690878
0.0385461
0.0206771
0.0106795
0.00531848
0.00255741
0.00118895
0.000535068
0.000233359
9.873e-05
4.05575e-05
1.61896e-05
6.28419e-06
2.37343e-06
8.72677e-07
3.12531e-07
1.09064e-07
3.71014e-08
1.23077e-08
3.98275e-09
1.25762e-09
3.87621e-10
1.16649e-10
3.42845e-11
9.84416e-12
2.76213e-12
7.57561e-13
2.03151e-13
5.32807e-14
1.36707e-14
3.43244e-15
8.43576e-16
2.02989e-16
4.78371e-17
1.10436e-17
2.49827e-18
5.54284e-19
1.20686e-19
2.57916e-20
5.41079e-21
1.11448e-21
2.2541e-22
4.47748e-23
8.73595e-24
1.67441e-24
3.15316e-25
5.83468e-26
1.06103e-26
1.89638e-27
3.33168e-28
5.7542e-29
9.77089e-30
1.63136e-30
2.67838e-31
4.32443e-32
6.86669e-33
1.07237e-33
1.64715e-34
2.48832e-35
3.69707e-36
5.40193e-37
7.76136e-38
1.09632e-38
1.52215e-39
2.07655e-40
2.78257e-41
3.66055e-42
4.72575e-43
5.98499e-44
7.43651e-45
9.36443e-08
3.39412e-06
3.93501e-05
0.000262094
0.00118285
0.00389902
0.00992912
0.0205987
0.0379726
0.0664523
0.11567
0.196206
0.305691
0.429644
0.540824
0.615483
0.654558
0.688896
0.73222
0.772822
0.808175
0.839724
0.861411
0.874788
0.882171
0.884646
0.885128
0.883258
0.873579
0.845007
0.780356
0.707179
0.643961
0.590385
0.551095
0.529929
0.5153
0.505881
0.49992
0.490306
0.476164
0.446322
0.395755
0.343822
0.312578
0.290695
0.274209
0.264268
0.259958
0.259175
0.269278
0.281704
0.304266
0.324964
0.355459
0.378117
0.411477
0.449213
0.486927
0.555274
0.6182
0.648942
0.66219
0.657613
0.622375
0.528148
0.430812
0.377738
0.352498
0.341811
0.350061
0.402174
0.532209
0.675054
0.749728
0.807396
0.87466
0.931829
0.964726
0.981728
0.990063
0.994367
0.996682
0.99803
0.998878
0.999401
0.999694
0.99985
0.999929
0.999968
0.999986
0.999995
0.999998
0.999999
1
1
1
0.999999
0.999995
0.99998
0.999919
0.999682
0.998799
0.995656
0.984881
0.949107
0.833446
0.616664
0.419329
0.270974
0.166911
0.0982203
0.0553338
0.0299032
0.0155313
0.00776689
0.00374593
0.00174507
0.000786324
0.000343128
0.000145158
5.95887e-05
2.37563e-05
9.20447e-06
3.46813e-06
1.27149e-06
4.53801e-07
1.57743e-07
5.34253e-08
1.76368e-08
5.67712e-09
1.78245e-09
5.46047e-10
1.63271e-10
4.76636e-11
1.35894e-11
3.78518e-12
1.03033e-12
2.74158e-13
7.13334e-14
1.81545e-14
4.5207e-15
1.10175e-15
2.62869e-16
6.14183e-17
1.40567e-17
3.15353e-18
6.93985e-19
1.49839e-19
3.17469e-20
6.60169e-21
1.34761e-21
2.70085e-22
5.31538e-23
1.02739e-23
1.95058e-24
3.63818e-25
6.66741e-26
1.20071e-26
2.12512e-27
3.69694e-28
6.32217e-29
1.06291e-29
1.75704e-30
2.85594e-31
4.56496e-32
7.17569e-33
1.1093e-33
1.68654e-34
2.52174e-35
3.70799e-36
5.36138e-37
7.62168e-38
1.06509e-38
1.46274e-39
1.97367e-40
2.61559e-41
3.4034e-42
4.34783e-43
5.45519e-44
1.22606e-08
9.46407e-07
1.41585e-05
0.000112291
0.000592552
0.00227888
0.00679385
0.0162646
0.0324316
0.0584048
0.102306
0.176064
0.284197
0.413505
0.540243
0.65049
0.727951
0.760454
0.780812
0.809236
0.841646
0.864602
0.875776
0.881409
0.883543
0.883799
0.879383
0.864877
0.832365
0.766831
0.693982
0.633925
0.583772
0.546515
0.523745
0.511746
0.501047
0.492254
0.483247
0.464624
0.428731
0.36836
0.310542
0.271348
0.245896
0.217979
0.196515
0.179503
0.171348
0.168484
0.174248
0.19224
0.219608
0.25942
0.302539
0.344966
0.373747
0.416665
0.447225
0.494563
0.559324
0.639318
0.677473
0.69289
0.691112
0.671833
0.613017
0.513347
0.45806
0.430809
0.430104
0.472286
0.571879
0.657009
0.689779
0.705264
0.779164
0.878666
0.940104
0.972549
0.987742
0.994292
0.99715
0.998509
0.999174
0.999516
0.999722
0.999851
0.999926
0.999965
0.999984
0.999993
0.999997
0.999999
1
1
1
1
1
0.999999
0.999994
0.999975
0.999893
0.999564
0.998304
0.993674
0.977269
0.920832
0.747783
0.521644
0.342842
0.213853
0.127019
0.0720466
0.0391261
0.0203914
0.0102207
0.00493617
0.00230096
0.00103675
0.000452108
0.000191026
7.8278e-05
3.11348e-05
1.20289e-05
4.51706e-06
1.64963e-06
5.86192e-07
2.02778e-07
6.83148e-08
2.24233e-08
7.17371e-09
2.23772e-09
6.80837e-10
2.02118e-10
5.85658e-11
1.65694e-11
4.57864e-12
1.23618e-12
3.26202e-13
8.41574e-14
2.12343e-14
5.24157e-15
1.26619e-15
2.99418e-16
6.93318e-17
1.57295e-17
3.49898e-18
7.63332e-19
1.63352e-19
3.42973e-20
7.0666e-21
1.42908e-21
2.83713e-22
5.53037e-23
1.05865e-23
1.99044e-24
3.67625e-25
6.67094e-26
1.18947e-26
2.08433e-27
3.58985e-28
6.07763e-29
1.01155e-29
1.6553e-30
2.66343e-31
4.21412e-32
6.55689e-33
1.00329e-33
1.50972e-34
2.23407e-35
3.25088e-36
4.65127e-37
6.54252e-38
9.04589e-39
1.22912e-39
1.64096e-40
2.15214e-41
2.77301e-42
3.51254e-43
6.11949e-10
1.46329e-07
3.39078e-06
3.40743e-05
0.000216591
0.000986657
0.00344071
0.00959542
0.0221153
0.0442793
0.080357
0.138637
0.231332
0.361372
0.508219
0.636381
0.733003
0.792879
0.821422
0.837837
0.857379
0.873944
0.880153
0.882666
0.883334
0.88183
0.872333
0.846015
0.785392
0.707512
0.641599
0.591648
0.553833
0.525819
0.51048
0.502507
0.493924
0.486038
0.46949
0.439334
0.387034
0.319077
0.264909
0.228559
0.195504
0.164515
0.138315
0.122332
0.114687
0.112134
0.116461
0.127522
0.148013
0.179769
0.228967
0.287949
0.334798
0.376775
0.422903
0.470418
0.532862
0.615896
0.680875
0.710609
0.715669
0.712331
0.685934
0.607894
0.528818
0.492638
0.489021
0.505488
0.571979
0.617695
0.584692
0.533654
0.586215
0.75273
0.872437
0.940088
0.974555
0.990022
0.996128
0.99843
0.999315
0.999683
0.999846
0.999916
0.99995
0.999972
0.999985
0.999993
0.999997
0.999999
0.999999
1
1
1
1
1
1
0.999998
0.99999
0.999954
0.999801
0.999182
0.996775
0.987767
0.955132
0.839782
0.60507
0.402634
0.253275
0.151302
0.0861451
0.0468926
0.0244704
0.0122706
0.00592481
0.0027595
0.00124164
0.000540425
0.000227789
9.30694e-05
3.68909e-05
1.41967e-05
5.30759e-06
1.92885e-06
6.81746e-07
2.34467e-07
7.85008e-08
2.55968e-08
8.13201e-09
2.51814e-09
7.60332e-10
2.23939e-10
6.43611e-11
1.80569e-11
4.94707e-12
1.32402e-12
3.46285e-13
8.85359e-14
2.21361e-14
5.41404e-15
1.29575e-15
3.03558e-16
6.96481e-17
1.56614e-17
3.45237e-18
7.46235e-19
1.582e-19
3.2901e-20
6.71389e-21
1.3446e-21
2.6433e-22
5.10175e-23
9.66912e-24
1.7998e-24
3.29081e-25
5.91136e-26
1.04338e-26
1.8098e-27
3.08534e-28
5.1703e-29
8.51756e-30
1.37956e-30
2.19702e-31
3.44047e-32
5.29805e-33
8.02306e-34
1.19479e-34
1.74968e-35
2.51952e-36
3.56722e-37
4.96542e-38
6.79406e-39
9.1375e-40
1.2078e-40
1.56939e-41
2.00638e-42
-1.14865e-10
1.78762e-08
5.00863e-07
6.99127e-06
5.65362e-05
0.000310509
0.00128629
0.00422585
0.0114016
0.0261834
0.0527571
0.096604
0.166648
0.272289
0.417334
0.582089
0.71038
0.788864
0.827718
0.849284
0.864076
0.875728
0.880668
0.882468
0.882574
0.87694
0.856671
0.811381
0.740024
0.661761
0.60514
0.564031
0.535829
0.514213
0.501664
0.494786
0.486842
0.479013
0.460072
0.423811
0.36225
0.289421
0.232546
0.195545
0.159496
0.131558
0.109748
0.0991669
0.0946035
0.0932378
0.0970181
0.105189
0.121837
0.147688
0.19018
0.256975
0.316826
0.360564
0.397269
0.450287
0.522001
0.608736
0.683858
0.718027
0.726628
0.725603
0.713675
0.653221
0.544499
0.496433
0.48991
0.494318
0.527424
0.524412
0.473378
0.449761
0.484679
0.639716
0.802946
0.899594
0.952345
0.979137
0.991701
0.996964
0.998945
0.999634
0.999864
0.999946
0.999977
0.999989
0.999994
0.999996
0.999998
0.999999
1
1
1
1
1
1
1
1
0.999999
0.999995
0.999975
0.999886
0.999511
0.997987
0.992019
0.96944
0.886493
0.663315
0.443713
0.280238
0.167761
0.09559
0.0520256
0.0271262
0.0135835
0.00654647
0.00304197
0.00136494
0.000592174
0.00024868
0.000101182
3.99213e-05
1.52848e-05
5.68276e-06
2.05286e-06
7.2094e-07
2.46263e-07
8.18595e-08
2.64914e-08
8.35026e-09
2.5647e-09
7.67886e-10
2.24212e-10
6.38696e-11
1.77573e-11
4.82032e-12
1.27808e-12
3.31119e-13
8.38528e-14
2.0764e-14
5.02941e-15
1.19202e-15
2.76585e-16
6.28689e-17
1.40033e-17
3.05725e-18
6.54408e-19
1.3737e-19
2.82856e-20
5.71431e-21
1.13288e-21
2.20451e-22
4.21148e-23
7.90013e-24
1.45541e-24
2.63369e-25
4.68207e-26
8.17852e-27
1.4039e-27
2.36852e-28
3.92783e-29
6.40343e-30
1.02635e-30
1.61749e-31
2.50656e-32
3.81968e-33
5.72399e-34
8.43524e-35
1.22242e-35
1.74198e-36
2.44095e-37
3.36303e-38
4.55591e-39
6.06847e-40
7.9501e-41
1.02548e-41
0.000156065
1.31756e-05
1.08746e-06
1.39945e-06
1.09912e-05
7.44091e-05
0.000361616
0.00139457
0.00441944
0.0118016
0.0272809
0.0559183
0.104675
0.183139
0.300957
0.458321
0.629017
0.755271
0.81846
0.847504
0.86344
0.874818
0.880142
0.881863
0.881132
0.874495
0.854612
0.809834
0.740583
0.66178
0.602544
0.562337
0.533171
0.512946
0.500909
0.493511
0.485989
0.479276
0.462609
0.429232
0.370133
0.297357
0.237323
0.198709
0.162198
0.134274
0.112269
0.100876
0.0936803
0.0908942
0.0928685
0.0993699
0.114456
0.138262
0.176076
0.243074
0.310115
0.357392
0.3904
0.434316
0.518903
0.620314
0.68351
0.714946
0.72607
0.726147
0.719676
0.683842
0.55801
0.457688
0.437419
0.43894
0.444939
0.442442
0.42839
0.431823
0.467993
0.612788
0.784395
0.888442
0.94562
0.975023
0.989193
0.995583
0.998302
0.999388
0.999793
0.999933
0.999978
0.999992
0.999997
0.999999
0.999999
1
1
1
1
1
1
1
1
1
1
0.999999
0.999996
0.999983
0.99992
0.999642
0.998471
0.993716
0.9751
0.904611
0.69237
0.463143
0.292353
0.174757
0.099363
0.0539383
0.0280406
0.0139958
0.00672114
0.00311095
0.00138993
0.000600203
0.000250772
0.000101473
3.97989e-05
1.51414e-05
5.59148e-06
2.00547e-06
6.9901e-07
2.36895e-07
7.81006e-08
2.50604e-08
7.82994e-09
2.38322e-09
7.06963e-10
2.04478e-10
5.769e-11
1.58833e-11
4.26919e-12
1.1207e-12
2.87441e-13
7.20585e-14
1.76629e-14
4.23486e-15
9.9364e-16
2.28292e-16
5.13765e-17
1.13286e-17
2.44823e-18
5.18689e-19
1.0776e-19
2.19587e-20
4.38993e-21
8.61211e-22
1.65826e-22
3.13456e-23
5.81788e-24
1.06047e-24
1.89867e-25
3.33959e-26
5.7716e-27
9.80218e-28
1.63618e-28
2.68457e-29
4.33018e-30
6.86696e-31
1.07075e-31
1.64177e-32
2.47547e-33
3.67063e-34
5.35272e-35
7.67645e-36
1.08271e-36
1.50183e-37
2.049e-38
2.74973e-39
3.63101e-40
4.72389e-41
0.00510717
0.000466403
4.76832e-05
6.09141e-06
3.58825e-06
1.43115e-05
8.17487e-05
0.000363408
0.00131702
0.00403347
0.0106818
0.0249186
0.0525584
0.101059
0.182606
0.307629
0.471382
0.648321
0.772207
0.830374
0.857231
0.871269
0.878331
0.880755
0.880369
0.875445
0.858542
0.818264
0.752913
0.674391
0.611093
0.568421
0.537112
0.515534
0.502588
0.494652
0.487057
0.481172
0.469205
0.445281
0.39475
0.325677
0.260338
0.216844
0.178986
0.150175
0.126914
0.114149
0.104224
0.103902
0.106436
0.113436
0.128428
0.154004
0.188907
0.251674
0.327544
0.379368
0.398637
0.43159
0.529161
0.636058
0.685884
0.705835
0.710388
0.705756
0.700738
0.681814
0.581565
0.446179
0.398625
0.397036
0.40801
0.416198
0.42496
0.44915
0.515464
0.668018
0.812584
0.901726
0.950624
0.976322
0.989331
0.995501
0.998205
0.999321
0.999757
0.999918
0.999973
0.999992
0.999997
0.999999
1
1
1
1
1
1
1
1
1
1
1
1
0.999999
0.999997
0.999986
0.999931
0.999683
0.998606
0.994103
0.976025
0.906138
0.692309
0.461351
0.289933
0.17248
0.0975836
0.0527076
0.027262
0.0135366
0.00646578
0.00297596
0.00132176
0.000567201
0.000235418
9.45957e-05
3.68292e-05
1.39036e-05
5.09297e-06
1.81133e-06
6.25836e-07
2.10184e-07
6.86508e-08
2.18181e-08
6.75044e-09
2.03422e-09
5.97335e-10
1.71e-10
4.77449e-11
1.30078e-11
3.4595e-12
8.98548e-13
2.28015e-13
5.65524e-14
1.37144e-14
3.2535e-15
7.55462e-16
1.71755e-16
3.82456e-17
8.34376e-18
1.78394e-18
3.739e-19
7.68432e-20
1.54896e-20
3.06312e-21
5.94398e-22
1.13207e-22
2.11663e-23
3.88578e-24
7.00571e-25
1.24064e-25
2.15842e-26
3.68967e-27
6.19822e-28
1.02338e-28
1.66092e-29
2.65006e-30
4.15726e-31
6.41268e-32
9.72727e-33
1.45108e-33
2.12896e-34
3.07215e-35
4.36064e-36
6.08856e-37
8.36394e-38
1.13055e-38
1.50429e-39
1.97309e-40
0.0184662
0.00217117
0.000334981
6.49606e-05
1.37353e-05
7.34485e-06
1.59571e-05
7.3311e-05
0.000310408
0.00108294
0.00323381
0.00847652
0.0199458
0.0427681
0.0852634
0.160243
0.275497
0.434593
0.620212
0.756861
0.824658
0.856516
0.871546
0.877697
0.878801
0.876799
0.868656
0.844124
0.788075
0.709026
0.637437
0.587476
0.550373
0.524237
0.508228
0.498417
0.490417
0.485205
0.479624
0.468352
0.444138
0.40155
0.326781
0.267195
0.222727
0.190527
0.164214
0.14963
0.13724
0.137356
0.141223
0.151257
0.17333
0.201886
0.255807
0.322994
0.375881
0.405985
0.4256
0.45753
0.54816
0.65467
0.690622
0.690988
0.674588
0.633709
0.612515
0.603626
0.56404
0.446722
0.395246
0.396369
0.427124
0.471946
0.522783
0.611242
0.75844
0.870966
0.936124