/*--------------------------------*- C++ -*----------------------------------*\
  =========                 |
  \\      /  F ield         | OpenFOAM: The Open Source CFD Toolbox
   \\    /   O peration     | Website:  https://openfoam.org
    \\  /    A nd           | Version:  7
     \\/     M anipulation  |
\*---------------------------------------------------------------------------*/
FoamFile
{
    version     2.0;
    format      ascii;
    class       volScalarField;
    location    "0.094";
    object      k;
}
// * * * * * * * * * * * * * * * * * * * * * * * * * * * * * * * * * * * * * //

dimensions      [0 2 -2 0 0 0 0];

internalField   nonuniform List<scalar> 
12225
(
1.93479e-05
1.80965e-05
1.66468e-05
1.53999e-05
1.41985e-05
1.27723e-05
1.12793e-05
9.82967e-06
8.56753e-06
7.42228e-06
6.27654e-06
5.28834e-06
4.48502e-06
4.5764e-06
5.21109e-06
3.96557e-05
1.71277e-05
4.27455e-05
1.99804e-05
1.98854e-05
1.96651e-05
1.94685e-05
1.90937e-05
1.88123e-05
1.82598e-05
1.78226e-05
1.71173e-05
1.6698e-05
1.60179e-05
1.56392e-05
1.49308e-05
1.44105e-05
1.41242e-05
2.36214e-05
2.13342e-05
2.11284e-05
2.00006e-05
1.94933e-05
1.91806e-05
1.90184e-05
1.89345e-05
1.89225e-05
1.88773e-05
1.87588e-05
1.85075e-05
1.83399e-05
1.81569e-05
1.8073e-05
1.79475e-05
1.78799e-05
1.771e-05
1.88808e-05
1.89402e-05
1.8928e-05
2.05038e-05
2.01776e-05
1.94148e-05
1.80356e-05
1.81205e-05
1.83751e-05
1.83593e-05
1.79306e-05
1.72707e-05
1.69645e-05
1.68783e-05
1.68881e-05
1.70013e-05
1.73903e-05
1.75453e-05
1.7832e-05
1.79521e-05
1.80125e-05
2.18322e-05
2.11762e-05
2.15613e-05
2.12436e-05
2.11351e-05
2.13518e-05
2.14625e-05
2.13476e-05
2.07191e-05
1.9082e-05
1.80745e-05
1.76733e-05
1.76263e-05
1.7665e-05
1.77362e-05
1.78106e-05
1.78542e-05
1.78543e-05
2.03462e-05
2.18479e-05
2.25617e-05
2.497e-05
2.88229e-05
3.0082e-05
2.97973e-05
2.74461e-05
2.53025e-05
2.4606e-05
2.42592e-05
2.39399e-05
2.33563e-05
2.20951e-05
2.06541e-05
1.95798e-05
1.90388e-05
1.86926e-05
2.09689e-05
2.78957e-05
2.81747e-05
2.62162e-05
2.52939e-05
2.51191e-05
2.48673e-05
2.41669e-05
2.38941e-05
2.3998e-05
2.45947e-05
2.50282e-05
2.50543e-05
2.49623e-05
2.47231e-05
2.43363e-05
2.41335e-05
2.37385e-05
2.45944e-05
2.74342e-05
2.55601e-05
2.51309e-05
2.50918e-05
2.48963e-05
2.43167e-05
2.40406e-05
2.38144e-05
2.37491e-05
2.37942e-05
2.38642e-05
2.3945e-05
2.41569e-05
2.47659e-05
2.52422e-05
2.5394e-05
2.538e-05
2.23982e-05
2.12742e-05
2.1215e-05
2.22686e-05
2.28532e-05
2.28652e-05
2.28769e-05
2.31548e-05
2.35819e-05
2.37639e-05
2.38111e-05
2.37318e-05
2.36461e-05
2.36953e-05
2.40594e-05
2.46272e-05
2.48571e-05
2.49114e-05
2.19402e-05
2.09653e-05
2.11844e-05
2.11866e-05
2.10968e-05
2.11663e-05
2.16525e-05
2.35384e-05
2.64564e-05
2.82232e-05
2.87036e-05
2.84503e-05
2.68429e-05
2.52846e-05
2.44856e-05
2.41232e-05
2.37385e-05
2.34494e-05
2.1119e-05
2.18501e-05
2.19261e-05
2.13175e-05
2.08543e-05
2.10268e-05
2.24245e-05
2.73694e-05
3.0762e-05
3.1344e-05
3.09571e-05
2.89921e-05
2.6747e-05
2.5529e-05
2.49097e-05
2.45649e-05
2.43835e-05
2.41221e-05
2.0838e-05
2.09301e-05
2.08336e-05
2.08236e-05
2.08781e-05
2.11647e-05
2.21088e-05
2.55178e-05
2.98001e-05
3.12937e-05
3.1269e-05
3.0093e-05
2.70889e-05
2.52028e-05
2.42791e-05
2.38659e-05
2.37069e-05
2.36031e-05
2.05311e-05
2.02816e-05
2.02623e-05
2.03564e-05
2.06574e-05
2.13294e-05
2.29532e-05
2.56295e-05
2.76061e-05
2.82069e-05
2.80979e-05
2.70184e-05
2.44623e-05
2.27794e-05
2.19551e-05
2.16648e-05
2.16239e-05
2.17116e-05
2.01161e-05
2.01115e-05
2.01688e-05
2.03767e-05
2.10744e-05
2.17893e-05
2.19553e-05
2.18695e-05
2.19923e-05
2.23385e-05
2.23724e-05
2.21363e-05
2.14405e-05
2.09983e-05
2.08109e-05
2.07558e-05
2.07486e-05
2.07654e-05
2.01297e-05
2.01133e-05
2.01437e-05
2.03958e-05
2.0655e-05
2.0659e-05
2.05727e-05
2.05591e-05
2.05913e-05
2.07288e-05
2.09049e-05
2.09486e-05
2.09333e-05
2.09022e-05
2.09072e-05
2.09755e-05
2.10303e-05
2.10253e-05
2.08555e-05
2.10271e-05
2.06768e-05
2.04379e-05
2.0379e-05
2.03681e-05
2.03647e-05
2.03556e-05
2.03554e-05
2.03606e-05
2.03868e-05
2.04977e-05
2.07447e-05
2.09075e-05
2.1021e-05
2.1066e-05
2.11018e-05
2.11812e-05
2.02681e-05
2.04248e-05
2.0456e-05
2.0444e-05
2.042e-05
2.04202e-05
2.04143e-05
2.03739e-05
2.03288e-05
2.03141e-05
2.03151e-05
2.03355e-05
2.04123e-05
2.05292e-05
2.06893e-05
2.09145e-05
2.11663e-05
2.1443e-05
2.00784e-05
2.02152e-05
2.03941e-05
2.07427e-05
2.10035e-05
2.10306e-05
2.09982e-05
2.08241e-05
2.05765e-05
2.04267e-05
2.03667e-05
2.03633e-05
2.03773e-05
2.04071e-05
2.04576e-05
2.05696e-05
2.07139e-05
2.09352e-05
2.01006e-05
2.00564e-05
2.02035e-05
2.06991e-05
2.22583e-05
2.32393e-05
2.32945e-05
2.29493e-05
2.17833e-05
2.09048e-05
2.0579e-05
2.05354e-05
2.05876e-05
2.0901e-05
2.13572e-05
2.1528e-05
2.15373e-05
2.148e-05
2.01326e-05
2.09035e-05
2.11938e-05
2.11533e-05
2.10432e-05
2.10015e-05
2.09121e-05
2.08266e-05
2.08311e-05
2.10711e-05
2.16948e-05
2.18726e-05
2.18474e-05
2.1803e-05
2.18129e-05
2.18783e-05
2.1908e-05
2.18944e-05
2.01608e-05
2.0627e-05
2.12748e-05
2.16208e-05
2.16523e-05
2.14936e-05
2.0901e-05
2.05239e-05
2.04409e-05
2.04708e-05
2.074e-05
2.13529e-05
2.16144e-05
2.16535e-05
2.16453e-05
2.1606e-05
2.14627e-05
2.12297e-05
2.04642e-05
2.04964e-05
2.05191e-05
2.05154e-05
2.04376e-05
2.0367e-05
2.04332e-05
2.05482e-05
2.0577e-05
2.06526e-05
2.07336e-05
2.07691e-05
2.07749e-05
2.07703e-05
2.0744e-05
2.07e-05
2.06638e-05
2.06465e-05
2.03289e-05
2.03573e-05
2.03646e-05
2.04588e-05
2.05893e-05
2.06021e-05
2.05852e-05
2.06125e-05
2.06819e-05
2.06717e-05
2.06169e-05
2.04824e-05
2.0351e-05
2.02542e-05
2.01928e-05
2.01598e-05
2.01458e-05
2.01433e-05
2.00437e-05
2.01626e-05
2.0799e-05
2.14248e-05
2.15247e-05
2.13789e-05
2.09726e-05
2.08289e-05
2.08261e-05
2.0848e-05
2.08464e-05
2.08241e-05
2.0734e-05
2.05216e-05
2.03469e-05
2.02274e-05
2.01526e-05
2.01123e-05
2.00569e-05
2.01617e-05
2.09515e-05
2.15016e-05
2.15218e-05
2.12217e-05
2.07226e-05
2.0554e-05
2.05357e-05
2.0556e-05
2.05721e-05
2.05668e-05
2.05222e-05
2.03966e-05
2.0299e-05
2.02415e-05
2.02078e-05
2.0192e-05
2.02048e-05
2.02249e-05
2.10505e-05
2.15759e-05
2.15892e-05
2.12743e-05
2.0694e-05
2.04668e-05
2.04248e-05
2.04341e-05
2.04613e-05
2.04647e-05
2.04519e-05
2.03835e-05
2.02614e-05
2.01975e-05
2.00998e-05
2.00229e-05
2.00777e-05
2.01483e-05
2.03679e-05
2.03992e-05
2.03097e-05
1.99219e-05
1.95717e-05
1.95194e-05
1.95719e-05
1.97982e-05
2.00414e-05
2.01093e-05
2.00815e-05
1.98533e-05
1.94398e-05
1.9048e-05
1.87583e-05
1.81015e-05
2.02329e-05
1.7411e-05
1.34796e-05
1.3901e-05
1.54676e-05
1.83724e-05
2.23796e-05
3.07251e-05
4.22685e-05
5.18576e-05
5.76267e-05
6.01289e-05
6.1016e-05
6.19138e-05
6.38456e-05
6.77396e-05
7.68333e-05
8.46504e-05
3.10514e-05
8.45155e-05
0.000131574
0.000200947
0.000249484
0.000286987
0.000351124
0.000440953
0.000517256
0.000555782
0.00056454
0.000563906
0.000560016
0.000557356
0.000557858
0.000563896
0.000582588
0.000597719
0.00238101
0.00240171
0.00239643
0.00228526
0.00209969
0.00202282
0.00199744
0.00197588
0.00192709
0.00178954
0.00165609
0.00157189
0.00150695
0.00144164
0.00137133
0.00130442
0.00125236
0.00121937
0.00361994
0.00577091
0.00644031
0.00727982
0.00749237
0.00733202
0.00682942
0.00606054
0.00560921
0.00530056
0.00490288
0.00454858
0.00503527
0.0059179
0.00687396
0.00808827
0.00850825
0.00835917
0.00760242
0.00658715
0.00583428
0.00567856
0.00583182
0.00663675
0.00773398
0.00804669
0.00800447
0.00766522
0.00771555
0.00919988
0.014015
0.0195172
0.0206278
0.0199163
0.016434
0.011709
0.00974765
0.00896777
0.00855092
0.00814002
0.00783065
0.00773505
0.0077868
0.00790241
0.00793414
0.00797496
0.00805506
0.00814944
0.00829774
0.00847867
0.00877173
0.00909745
0.0094954
0.00990549
0.0103565
0.0110489
0.0117611
0.0124339
0.0128192
0.0132308
0.014187
0.0159573
0.0169564
0.0169265
0.0153626
0.0144163
0.0153643
0.0197912
0.0288704
0.0412108
0.0554604
0.0644882
0.0646903
0.0588877
0.05684
0.0672522
0.0916266
0.122126
0.159284
0.179539
0.172405
0.118442
0.0392959
0.00862243
0.00253542
0.00149392
0.00129206
0.00127292
0.00124606
0.00115149
0.00101251
0.000848788
0.000664372
0.000549908
0.000432928
0.000346221
0.000300934
0.000276486
0.000269304
0.000275947
0.000278457
0.000279807
0.000280339
0.000280048
0.000279624
0.00027983
0.000279826
0.000278868
0.000276835
0.00027426
0.00027331
0.000272906
0.000271037
0.000267245
0.000263555
0.000261044
0.000255003
0.00024984
0.000244162
0.000236728
0.00023052
0.000223338
0.000216563
0.000209818
0.000203636
0.000197346
0.000190823
0.000184531
0.000177987
0.00017141
0.000164867
0.000158347
0.000151805
0.000145144
0.000138174
0.000130872
0.000123135
0.000114622
0.000106099
9.84941e-05
9.05545e-05
8.0651e-05
6.9575e-05
5.89277e-05
4.79206e-05
3.56678e-05
2.45796e-05
1.64257e-05
1.08347e-05
7.31402e-06
5.26435e-06
4.12159e-06
3.46272e-06
3.02433e-06
2.66664e-06
2.33101e-06
2.00664e-06
1.70531e-06
1.43914e-06
1.21294e-06
1.02176e-06
8.60773e-07
7.22314e-07
6.0675e-07
5.02452e-07
4.26571e-07
3.43261e-07
2.89117e-07
2.6752e-07
2.96978e-07
2.99559e-07
3.51836e-07
3.10321e-07
3.88527e-07
3.02137e-07
5.01755e-07
6.45418e-07
1.1286e-06
1.03348e-05
8.0752e-06
0.003421
0.00564556
0.00763723
0.0089332
0.00945662
0.00944898
0.0092794
0.00883208
0.00814786
0.007461
0.00684741
0.00635693
0.00608606
0.00578593
0.00581666
0.00661051
0.00745197
0.00745798
0.00695537
0.00570826
0.00482574
0.00467322
0.00479073
0.00535456
0.00631491
0.00702242
0.00709238
0.00687019
0.00685046
0.00753531
0.00958648
0.011103
0.0112351
0.0109053
0.0102029
0.00942325
0.00904678
0.00888533
0.00877999
0.00854709
0.00819933
0.0078168
0.007355
0.0068715
0.00644029
0.00613345
0.00594694
0.00585611
0.00582676
0.00591731
0.00633325
0.00690915
0.00767726
0.00860642
0.00948421
0.0108951
0.011473
0.0120057
0.0126855
0.0131546
0.013451
0.0136776
0.0140999
0.0151987
0.0154845
0.0153726
0.0149298
0.0147695
0.0145091
0.0142815
0.0153527
0.0176761
0.0173695
0.0151352
0.0152807
0.0169434
0.0203594
0.0266481
0.0438063
0.105926
0.105118
0.0396458
0.0113023
0.00349668
0.00161066
0.00107228
0.000878256
0.000781555
0.000702754
0.000633706
0.000585918
0.000551489
0.000531973
0.000524463
0.000521957
0.000521549
0.000522225
0.000522422
0.000521551
0.000520047
0.000519324
0.000517362
0.000514928
0.000512415
0.000509395
0.000507396
0.000506169
0.000504768
0.000502443
0.000500023
0.000498377
0.000497828
0.00049672
0.000494247
0.000492229
0.000490732
0.000486767
0.000483251
0.000478808
0.000473131
0.000466181
0.000458582
0.000449374
0.000438747
0.000426487
0.000411985
0.000395958
0.000380679
0.0003652
0.000349865
0.000335667
0.000322209
0.000309205
0.000296337
0.000283555
0.000270829
0.00025769
0.000243843
0.000228396
0.00021074
0.000191697
0.000173814
0.00015981
0.000149623
0.000141454
0.000134024
0.000124542
0.000111249
9.56689e-05
8.02346e-05
6.67136e-05
5.56645e-05
4.69234e-05
4.0156e-05
3.49507e-05
3.07032e-05
2.67789e-05
2.2915e-05
1.9247e-05
1.606e-05
1.34436e-05
1.13203e-05
9.53053e-06
8.03688e-06
6.68731e-06
5.60545e-06
4.58945e-06
3.89797e-06
3.16755e-06
2.75955e-06
2.25112e-06
2.05526e-06
1.68129e-06
1.56242e-06
1.28671e-06
1.22442e-06
1.10955e-06
1.08671e-06
2.32261e-06
2.27385e-06
0.00182567
0.00753464
0.00776019
0.00751547
0.0076513
0.00818428
0.00837743
0.00829158
0.00804245
0.00762599
0.00724625
0.00686963
0.006614
0.00622538
0.00585236
0.00582644
0.00607483
0.00643909
0.00627711
0.00532707
0.00486391
0.00500151
0.00568764
0.00655213
0.00775615
0.00842513
0.00854414
0.00857724
0.00872238
0.00918982
0.00961903
0.00972301
0.00916543
0.00782655
0.00673764
0.0061711
0.00540067
0.00455114
0.00394622
0.00343632
0.00281835
0.0023275
0.00202431
0.00170842
0.00152653
0.00143471
0.00138931
0.0013745
0.001384
0.00147695
0.00169612
0.00204337
0.00261325
0.00345243
0.00444638
0.00572566
0.00805126
0.00940014
0.010468
0.0112448
0.0123925
0.013838
0.0145353
0.0147238
0.0148177
0.0147903
0.014444
0.0133954
0.0103977
0.00793069
0.00757283
0.00807714
0.00831863
0.00884156
0.00988048
0.0128742
0.0182341
0.0311201
0.0669459
0.0615282
0.0253107
0.00756447
0.00261918
0.00130464
0.000919304
0.000768347
0.000692284
0.000637571
0.000597857
0.00056673
0.000547412
0.000531296
0.00052185
0.000516829
0.00051466
0.000514223
0.000518442
0.000523042
0.000525726
0.000527762
0.000528563
0.000528745
0.000527721
0.000526878
0.000525457
0.000523802
0.000523222
0.000522635
0.000521734
0.000521381
0.000521332
0.000521726
0.000522333
0.000523031
0.000524097
0.000525285
0.000526682
0.000527955
0.000529397
0.00053071
0.00053166
0.000532345
0.000532458
0.000532163
0.000530625
0.000527167
0.000521527
0.000512851
0.000501288
0.000485069
0.000465084
0.000443718
0.000420603
0.000395345
0.000368935
0.000342821
0.000318657
0.000296695
0.000278224
0.000262173
0.00024545
0.000225239
0.000198894
0.000171317
0.000151682
0.000140087
0.000133273
0.000129454
0.000126243
0.000119706
0.000107469
9.44475e-05
8.3588e-05
7.53576e-05
6.87096e-05
6.26797e-05
5.69635e-05
5.17506e-05
4.72228e-05
4.3278e-05
3.96422e-05
3.61315e-05
3.261e-05
2.90178e-05
2.54178e-05
2.19246e-05
1.85818e-05
1.55142e-05
1.27555e-05
1.03664e-05
8.35201e-06
6.67174e-06
5.35911e-06
4.23913e-06
3.49233e-06
2.71379e-06
2.39911e-06
1.77116e-06
1.68267e-06
1.41824e-06
0.00301514
0.00667084
0.00633276
0.00648106
0.00703213
0.00800758
0.00879924
0.00872637
0.00838506
0.00781875
0.00737983
0.00698526
0.00668829
0.00636103
0.00599405
0.0058085
0.00581862
0.00579388
0.00551438
0.00533099
0.00553189
0.00735505
0.00878957
0.00934198
0.00956989
0.00958861
0.00931416
0.00896291
0.00865972
0.00827553
0.0072595
0.00513678
0.0034138
0.00231748
0.0018234
0.00155506
0.00128082
0.00107564
0.000976796
0.000894544
0.000823604
0.000782104
0.000721704
0.000691346
0.000642986
0.000623023
0.000599413
0.000582929
0.000573478
0.000581514
0.000630065
0.000736773
0.000985885
0.00148975
0.00235336
0.00381197
0.00633161
0.00826864
0.00926885
0.00965668
0.0101195
0.0109655
0.0127788
0.0139725
0.0143371
0.0143422
0.0142233
0.0135737
0.011038
0.00825191
0.00748024
0.0074172
0.00749298
0.00786924
0.00849581
0.0120902
0.0302234
0.0520512
0.0502056
0.0198373
0.00646336
0.0021885
0.00115381
0.000874873
0.000775154
0.000725781
0.000683555
0.000653172
0.000633044
0.000615077
0.000604551
0.00059076
0.000580306
0.000567825
0.000557473
0.000543566
0.000533155
0.000524404
0.00051839
0.000513102
0.000509967
0.000507479
0.000503755
0.000500213
0.000498388
0.000496141
0.000494965
0.000494688
0.000494706
0.00049549
0.000497402
0.000499906
0.000502773
0.000505533
0.000508301
0.00051079
0.00051375
0.000515854
0.000518565
0.000521193
0.000524036
0.000527158
0.000530693
0.00053437
0.000538309
0.000542331
0.000546061
0.000549046
0.000550531
0.000549905
0.000547377
0.000543232
0.000535556
0.000522868
0.000504414
0.000479278
0.00044506
0.000401797
0.000355131
0.000315224
0.00028788
0.000272866
0.000265648
0.000257303
0.000235569
0.000199127
0.000172182
0.000157757
0.000151204
0.000147659
0.00014506
0.000142348
0.000136997
0.00012424
0.000108593
9.46435e-05
8.30185e-05
7.33943e-05
6.52851e-05
5.83106e-05
5.23165e-05
4.72609e-05
4.30301e-05
3.93622e-05
3.59413e-05
3.25326e-05
2.90644e-05
2.5582e-05
2.21634e-05
1.8855e-05
1.57122e-05
1.27863e-05
1.01797e-05
7.92301e-06
6.10417e-06
4.63309e-06
3.56927e-06
2.73191e-06
2.17637e-06
1.70929e-06
0.00346407
0.00557726
0.00579358
0.00685491
0.00959229
0.0122069
0.0134673
0.0134865
0.0130299
0.011595
0.00908152
0.00764475
0.00695068
0.0064876
0.00612495
0.0058668
0.00568281
0.00547785
0.00548523
0.00605611
0.00858031
0.00976215
0.00997708
0.00993942
0.00970394
0.00944526
0.00885034
0.00788541
0.00636227
0.00385246
0.00253304
0.00181386
0.00136248
0.00115602
0.00106326
0.00101236
0.000953365
0.000893035
0.000847408
0.000811825
0.000772671
0.000727763
0.000694941
0.000663023
0.000613943
0.000590621
0.000559857
0.000528265
0.00048284
0.000456263
0.000433631
0.000424028
0.000483471
0.000711277
0.00141274
0.00290746
0.00554223
0.00756589
0.00833964
0.00852836
0.00917122
0.00987101
0.0110961
0.012766
0.0137674
0.014048
0.0140217
0.0137698
0.0126289
0.00959418
0.00797522
0.00771678
0.00786284
0.0080268
0.00846939
0.0133006
0.0365333
0.0435843
0.0198431
0.00659353
0.00224641
0.0011226
0.000854838
0.000767825
0.000726674
0.000698388
0.000670627
0.000647526
0.000626846
0.00060511
0.000583023
0.000550957
0.000528912
0.00051375
0.000506582
0.000503443
0.000503177
0.000509416
0.000525463
0.000541898
0.00055235
0.000556704
0.000557523
0.000551583
0.000541533
0.000536387
0.000528494
0.000525618
0.000524199
0.000525085
0.000528871
0.000533898
0.000540379
0.000546252
0.000550475
0.000552539
0.000552633
0.000549845
0.000545806
0.00054059
0.000534634
0.000529194
0.000525029
0.000522153
0.000520744
0.000520807
0.000522406
0.000525317
0.000529595
0.000535504
0.000540964
0.000544992
0.000547172
0.000547237
0.000543402
0.00053489
0.000527178
0.000515316
0.000490607
0.000436598
0.00036372
0.000301089
0.000266418
0.000253626
0.000249414
0.000244224
0.000229925
0.000195612
0.000171107
0.000159853
0.000156424
0.000155698
0.000155236
0.000154183
0.000151449
0.000143258
0.000125793
0.000108977
9.45174e-05
8.24887e-05
7.23961e-05
6.38208e-05
5.66343e-05
5.08545e-05
4.63809e-05
4.30372e-05
4.04944e-05
3.8303e-05
3.58172e-05
3.25853e-05
2.84468e-05
2.37452e-05
1.89528e-05
1.45832e-05
1.08756e-05
7.92091e-06
5.71151e-06
4.06121e-06
2.98887e-06
2.14102e-06
0.00352916
0.0064748
0.00660188
0.00972474
0.0125465
0.014192
0.0150553
0.0154284
0.0152608
0.0145705
0.0128192
0.0100288
0.00814301
0.00709869
0.0062401
0.00580876
0.00553306
0.00554526
0.00627663
0.00889166
0.0100214
0.0101584
0.00999966
0.00975958
0.0091947
0.00823625
0.00635827
0.00376948
0.00230726
0.00162389
0.00132275
0.00119778
0.00114383
0.00112397
0.00111737
0.00112228
0.00113213
0.00113886
0.00114175
0.00111622
0.00108893
0.0010178
0.000939882
0.000869834
0.000763374
0.000707681
0.000622738
0.0005634
0.000496344
0.00044906
0.000403993
0.000354896
0.000328959
0.000335954
0.000454492
0.00089218
0.00209914
0.00436513
0.00551899
0.00601636
0.00677221
0.008187
0.00992884
0.0118519
0.013277
0.0138755
0.0139651
0.0138911
0.0134696
0.0119987
0.00946896
0.00847341
0.00830367
0.00827627
0.00850179
0.0129428
0.0344319
0.0256195
0.00854642
0.00271987
0.00121824
0.000883679
0.000792442
0.000750831
0.000717298
0.000689753
0.000660337
0.000632236
0.000590452
0.000549636
0.000530973
0.000524004
0.000522914
0.000529066
0.000555426
0.000606851
0.000684798
0.00078587
0.000896516
0.000984042
0.0010404
0.00106106
0.00106021
0.00101849
0.000950281
0.000910788
0.000844011
0.000811971
0.000780064
0.000766135
0.000760686
0.000761273
0.000769273
0.000777078
0.000780268
0.000779595
0.000773213
0.000760636
0.000744075
0.000722564
0.000695713
0.000666434
0.000636447
0.000607947
0.000582565
0.000560624
0.000543042
0.000530533
0.00052297
0.000519281
0.00051812
0.000518375
0.000519986
0.00052286
0.000526202
0.000527751
0.000527452
0.000523979
0.00051629
0.000506284
0.000486224
0.000432061
0.000334835
0.000267488
0.000239682
0.000232492
0.000229789
0.000225234
0.000210354
0.000180641
0.000164036
0.000157663
0.000156184
0.000156099
0.000156014
0.000155319
0.000152373
0.000142494
0.000126956
0.000112433
9.9293e-05
8.79102e-05
7.83526e-05
7.0421e-05
6.37538e-05
5.82915e-05
5.40974e-05
5.12643e-05
4.93149e-05
4.74659e-05
4.4732e-05
4.06387e-05
3.5248e-05
2.91811e-05
2.32533e-05
1.77158e-05
1.30587e-05
8.96644e-06
6.31967e-06
3.95991e-06
0.0040965
0.00690438
0.0069958
0.0112277
0.0133264
0.0147804
0.0156346
0.0163048
0.0166029
0.0159811
0.0140526
0.0112922
0.00868967
0.00707962
0.00606285
0.00572324
0.00570916
0.00657403
0.00896804
0.0100053
0.0101473
0.0100228
0.00954275
0.00864676
0.00692658
0.00433662
0.00256848
0.00176274
0.00143216
0.00133245
0.00131243
0.00134054
0.00149881
0.00171015
0.00199459
0.00229009
0.00247803
0.00261193
0.00267096
0.00268366
0.0025868
0.00246652
0.00223408
0.00199399
0.00167976
0.0014173
0.001146
0.000911573
0.000715064
0.000558846
0.000479052
0.000382368
0.000315313
0.000282256
0.000266465
0.00034628
0.000719954
0.0017835
0.00379994
0.00501364
0.00563737
0.00637363
0.00730462
0.00901811
0.0115364
0.0133356
0.0138812
0.0139298
0.0138333
0.0133357
0.0117758
0.00996089
0.00914896
0.00906841
0.00924508
0.0128745
0.028986
0.0164346
0.00441197
0.00154542
0.000961733
0.000839508
0.000792901
0.000753647
0.000712977
0.00067677
0.000629573
0.000576501
0.000545573
0.000536524
0.000535317
0.000549922
0.000600973
0.000707317
0.00090165
0.0011861
0.00154431
0.00192768
0.00225842
0.00250679
0.00270253
0.00276124
0.0027473
0.00259208
0.00236304
0.00217333
0.00191062
0.00171425
0.0015412
0.00143236
0.00135035
0.00129744
0.00126451
0.00124277
0.00122098
0.00119388
0.00116622
0.00114217
0.00111574
0.00108
0.00103491
0.000983233
0.000930242
0.000876995
0.000823112
0.000768208
0.000712198
0.000657901
0.000609389
0.000572204
0.000547569
0.000531245
0.000521832
0.000517168
0.000515127
0.000514443
0.000514023
0.00051326
0.00051126
0.000504856
0.00049618
0.000483389
0.000454546
0.000369102
0.000275974
0.000229127
0.000215689
0.000213742
0.000211586
0.000205761
0.000185125
0.000164214
0.000155106
0.000152902
0.000152793
0.000152673
0.000151975
0.000149467
0.000141366
0.000127993
0.000114717
0.000102057
9.09401e-05
8.19441e-05
7.47379e-05
6.86396e-05
6.32281e-05
5.8676e-05
5.52354e-05
5.28272e-05
5.08888e-05
4.85291e-05
4.5225e-05
4.05701e-05
3.53105e-05
2.92565e-05
2.3859e-05
1.79639e-05
1.39438e-05
9.27081e-06
0.00429647
0.00720591
0.00779151
0.0118717
0.013472
0.0148863
0.0157778
0.0161972
0.0160773
0.0153045
0.0134331
0.0108083
0.00813379
0.0066504
0.00606844
0.00601944
0.0072218
0.00914244
0.0098658
0.0100006
0.00985875
0.00913829
0.00765231
0.00513325
0.00311293
0.00210855
0.00164565
0.00150224
0.00147115
0.00155111
0.00188908
0.00246327
0.00312469
0.00346626
0.00378807
0.00392241
0.004
0.00403511
0.00404502
0.00403277
0.00400605
0.00394889
0.00386307
0.00369841
0.00344594
0.00299722
0.00249956
0.00188067
0.00139743
0.000961901
0.000687817
0.000523241
0.000376066
0.000287418
0.000241132
0.00022088
0.000289741
0.000654466
0.00198992
0.00401657
0.00512569
0.0058769
0.0065769
0.00757918
0.00846527
0.0105335
0.0129246
0.0137358
0.0137965
0.0136862
0.0131177
0.0121131
0.0115509
0.0104717
0.00984853
0.012933
0.0241974
0.0123834
0.00273258
0.00116621
0.000912529
0.000843051
0.000807543
0.000760794
0.000704475
0.000643624
0.000577593
0.000553644
0.000546758
0.000548569
0.000587243
0.000696215
0.000936011
0.00136478
0.00203915
0.00292831
0.00393785
0.00455951
0.00480874
0.00487168
0.00477003
0.00450324
0.00429336
0.00411682
0.00397552
0.00383801
0.00365661
0.00342667
0.00314026
0.00281943
0.00252953
0.00227253
0.00205523
0.00189365
0.00176403
0.00164825
0.00155156
0.00145829
0.00136213
0.0012742
0.00119066
0.00111832
0.00105792
0.00100774
0.000965342
0.000927908
0.000891495
0.000852492
0.000807556
0.000754113
0.000693441
0.000632311
0.000581885
0.000549792
0.000532733
0.000526497
0.000523112
0.000519468
0.000516051
0.000510857
0.000496695
0.000478294
0.000465499
0.000444071
0.000381636
0.000279922
0.000221257
0.000200795
0.000198998
0.000198128
0.000194694
0.000182166
0.000161624
0.000150052
0.000146
0.000145373
0.00014524
0.000144594
0.000142004
0.00013399
0.000122295
0.000110884
9.96671e-05
8.94791e-05
8.10965e-05
7.45189e-05
6.9078e-05
6.40915e-05
5.94584e-05
5.54062e-05
5.23912e-05
5.00732e-05
4.83026e-05
4.57108e-05
4.27326e-05
3.79842e-05
3.34824e-05
2.72966e-05
2.28725e-05
1.68413e-05
0.00437866
0.00731152
0.008304
0.0116631
0.0124957
0.0135267
0.0142334
0.014521
0.0140943
0.0132535
0.0114994
0.00907526
0.00738687
0.00672532
0.00654923
0.00773148
0.00920467
0.00969432
0.00979579
0.00952985
0.00847764
0.00606392
0.00391988
0.00260128
0.00194883
0.00170912
0.0016495
0.00165751
0.0019998
0.00273545
0.00358047
0.00398734
0.00419285
0.00428153
0.00431277
0.00431671
0.00429002
0.00426344
0.00424936
0.00423966
0.00423614
0.00424058
0.00422223
0.00416815
0.00411884
0.00402996
0.00376518
0.00331048
0.00262268
0.001926
0.00119087
0.000787508
0.000545525
0.00037362
0.000252894
0.00020213
0.000178253
0.000215543
0.000467876
0.00151794
0.0038168
0.00531451
0.00632891
0.00788757
0.00824403
0.00843645
0.00936208
0.011936
0.0132391
0.0134331
0.0132201
0.012773
0.0122316
0.0106941
0.00986971
0.0132612
0.021129
0.0104393
0.00205502
0.00106025
0.000915497
0.000869286
0.000817277
0.000760813
0.00068811
0.000602384
0.000565388
0.000556358
0.000560731
0.000607907
0.00076321
0.001125
0.00184552
0.00309049
0.00499765
0.00625801
0.00678103
0.00695777
0.00691075
0.00620134
0.00546308
0.0049188
0.00445174
0.00421603
0.00414877
0.004103
0.00406985
0.00399915
0.00390227
0.00375158
0.00354496
0.00330452
0.00301909
0.00264559
0.0022881
0.00200326
0.00177514
0.00159782
0.00145676
0.0013355
0.00122577
0.00113856
0.0010702
0.00101568
0.000972092
0.000936785
0.000907779
0.000882003
0.000857015
0.000832064
0.000809474
0.000781786
0.000730151
0.00065998
0.000604689
0.000576493
0.000562169
0.00055208
0.000543898
0.000537825
0.000528092
0.000501402
0.000470239
0.000451981
0.000429342
0.000370383
0.000269729
0.000210377
0.000187525
0.000184759
0.000184586
0.000182462
0.000174767
0.000156272
0.000143759
0.000138111
0.00013625
0.000135596
0.000134688
0.000132168
0.000124971
0.000114999
0.000105346
9.55677e-05
8.63343e-05
7.86068e-05
7.26184e-05
6.77051e-05
6.32825e-05
5.88306e-05
5.48616e-05
5.12065e-05
4.88147e-05
4.65045e-05
4.51479e-05
4.23207e-05
3.99579e-05
3.49751e-05
3.14291e-05
2.51248e-05
0.00439881
0.00732816
0.0085638
0.0110944
0.0120397
0.0125919
0.0129023
0.0129811
0.0123837
0.0113132
0.0098048
0.00849254
0.00778429
0.00767391
0.00837053
0.00912644
0.00942769
0.00951378
0.00903094
0.00751692
0.00498079
0.00323925
0.00234468
0.00193606
0.00180106
0.00177374
0.00194724
0.00252707
0.00359078
0.00407902
0.00428824
0.00434531
0.00432242
0.00423309
0.00415912
0.00407634
0.00403705
0.00399276
0.00396674
0.00394016
0.00390725
0.003892
0.00394699
0.00403836
0.00415619
0.00425004
0.00409831
0.00392301
0.00351343
0.00300515
0.00218049
0.00125776
0.000802252
0.00051052
0.000316136
0.000210556
0.0001664
0.000146583
0.000168869
0.000347449
0.00114364
0.00330338
0.00526346
0.00808668
0.0103336
0.0101144
0.00887346
0.00843953
0.00949766
0.0118277
0.0124441
0.0123723
0.012001
0.0104892
0.00976359
0.0138294
0.0190226
0.00919707
0.00184618
0.00105808
0.000938655
0.00089192
0.000819191
0.000752041
0.000662725
0.000591171
0.000568988
0.000567751
0.000607061
0.000761955
0.00118394
0.00209891
0.0038546
0.00680094
0.00823505
0.00891622
0.00926566
0.00936517
0.00867414
0.00808359
0.00670154
0.00536139
0.00440178
0.0037275
0.00334513
0.00332515
0.00360426
0.00379879
0.00388466
0.00384959
0.00372083
0.00355473
0.00336912
0.003086
0.00263731
0.00221208
0.00189838
0.00167665
0.00149966
0.00135415
0.00122927
0.00112212
0.00102281
0.000941422
0.000877593
0.000828147
0.00079825
0.000783994
0.000777104
0.000779319
0.000786326
0.000790763
0.000787093
0.000761588
0.000710737
0.000667035
0.000634395
0.000608996
0.000591342
0.000581812
0.000575158
0.000561764
0.000519018
0.000467198
0.000441763
0.000414784
0.000346905
0.00024984
0.000195161
0.000174238
0.000171284
0.000171969
0.000170666
0.000165113
0.000149352
0.000136295
0.000129487
0.000126631
0.000125449
0.000124415
0.000122128
0.000116181
0.000107849
9.96204e-05
9.11333e-05
8.27314e-05
7.55615e-05
6.99619e-05
6.57332e-05
6.16821e-05
5.79383e-05
5.37762e-05
5.06297e-05
4.72118e-05
4.54291e-05
4.31619e-05
4.1906e-05
3.92218e-05
3.72062e-05
3.25737e-05
0.00431098
0.00712605
0.00860888
0.0103139
0.0110676
0.0115974
0.0117788
0.0117829
0.0111966
0.0103852
0.00943547
0.00900869
0.00891478
0.00893435
0.00910144
0.00915842
0.00911772
0.00846176
0.00634533
0.00412924
0.0029194
0.00226283
0.00199579
0.00191991
0.00190932
0.00222694
0.00313766
0.00396313
0.00431163
0.00442366
0.00444066
0.00431236
0.00423354
0.00414867
0.00411542
0.00410393
0.00410501
0.00410704
0.00407757
0.00402616
0.00393233
0.00379282
0.00364029
0.00355061
0.00351068
0.00366405
0.00395251
0.00410656
0.00387878
0.00347999
0.00307355
0.00205692
0.0012224
0.00068573
0.000411954
0.00024831
0.00016887
0.00014095
0.000128387
0.000146693
0.000270638
0.000858761
0.00271733
0.00686358
0.0109243
0.0127442
0.0128019
0.0108329
0.00845815
0.00840128
0.00916099
0.0102548
0.0103704
0.0094347
0.00923444
0.0142255
0.017482
0.00816393
0.00182143
0.00107837
0.00102295
0.000905054
0.000822221
0.000725774
0.00064735
0.000594087
0.000579421
0.00059741
0.000719338
0.00107669
0.00193958
0.00387773
0.00762649
0.0098847
0.0110194
0.0130414
0.0146987
0.0155431
0.0157592
0.0134999
0.0107976
0.00776452
0.00532569
0.00381116
0.00294668
0.00248905
0.00237561
0.002609
0.00305506
0.00346982
0.00357799
0.0035344
0.0034067
0.00319349
0.00278413
0.00230535
0.00195663
0.00171216
0.00151363
0.00135461
0.00118553
0.00101791
0.000852172
0.00071144
0.000600114
0.000522572
0.000483857
0.00048834
0.0005053
0.000526223
0.000563602
0.000625857
0.000697509
0.000737387
0.000740876
0.000724879
0.000696326
0.00066897
0.00064341
0.0006245
0.000614572
0.000605007
0.000581038
0.000508357
0.00044793
0.000419064
0.000386606
0.000308174
0.000222674
0.000177611
0.000161347
0.000159379
0.000160713
0.000160111
0.000155629
0.000141383
0.00012822
0.000120857
0.000117449
0.000115996
0.000115085
0.000113358
0.000109075
0.000101796
9.44245e-05
8.67834e-05
7.92518e-05
7.23881e-05
6.72358e-05
6.3078e-05
6.00213e-05
5.64191e-05
5.33507e-05
4.95308e-05
4.67799e-05
4.37239e-05
4.21734e-05
4.01305e-05
3.89954e-05
3.66103e-05
0.0041305
0.00681569
0.00834347
0.00979675
0.0104535
0.0107906
0.0108976
0.0108055
0.0102947
0.00986052
0.00943986
0.00921013
0.00911291
0.00903525
0.00899274
0.00867273
0.00768935
0.00556496
0.00371477
0.00272159
0.00225054
0.00205443
0.00200509
0.00204804
0.00239173
0.00347283
0.00417658
0.00447562
0.00456328
0.00457241
0.00445643
0.00434549
0.00429039
0.00425057
0.00423932
0.0042729
0.00428483
0.00428523
0.00430527
0.00432178
0.0043266
0.00428134
0.00412347
0.00377155
0.00345962
0.00333951
0.00331431
0.0036628
0.00397142
0.00371481
0.00343517
0.00296719
0.00188374
0.00104145
0.000554908
0.000310066