/*--------------------------------*- C++ -*----------------------------------*\
  =========                 |
  \\      /  F ield         | OpenFOAM: The Open Source CFD Toolbox
   \\    /   O peration     | Website:  https://openfoam.org
    \\  /    A nd           | Version:  7
     \\/     M anipulation  |
\*---------------------------------------------------------------------------*/
FoamFile
{
    version     2.0;
    format      ascii;
    class       volScalarField;
    location    "0.094";
    object      p;
}
// * * * * * * * * * * * * * * * * * * * * * * * * * * * * * * * * * * * * * //

dimensions      [0 2 -2 0 0 0 0];

internalField   nonuniform List<scalar> 
12225
(
-135.955
-137.904
-138.94
-139.562
-139.783
-139.715
-139.475
-139.129
-138.686
-138.149
-137.535
-136.867
-136.156
-135.398
-134.592
-133.722
-132.791
-131.603
-135.976
-137.965
-138.975
-139.58
-139.802
-139.737
-139.497
-139.147
-138.7
-138.157
-137.542
-136.874
-136.164
-135.407
-134.603
-133.735
-132.803
-131.667
-136.275
-138.149
-139.074
-139.635
-139.85
-139.783
-139.536
-139.174
-138.717
-138.172
-137.557
-136.891
-136.182
-135.427
-134.628
-133.773
-132.856
-131.841
-136.93
-138.32
-139.192
-139.708
-139.909
-139.838
-139.584
-139.212
-138.748
-138.2
-137.585
-136.919
-136.211
-135.462
-134.672
-133.836
-132.953
-132.025
-137.969
-138.603
-139.365
-139.825
-140
-139.918
-139.653
-139.269
-138.795
-138.242
-137.626
-136.961
-136.257
-135.515
-134.737
-133.924
-133.08
-132.22
-138.191
-138.833
-139.582
-139.986
-140.12
-140.019
-139.742
-139.344
-138.859
-138.3
-137.682
-137.018
-136.318
-135.585
-134.821
-134.033
-133.227
-132.422
-137.456
-139.092
-139.846
-140.189
-140.276
-140.148
-139.853
-139.44
-138.942
-138.376
-137.755
-137.092
-136.397
-135.674
-134.927
-134.165
-133.395
-132.637
-137.165
-139.414
-140.176
-140.45
-140.476
-140.31
-139.992
-139.562
-139.05
-138.475
-137.85
-137.188
-136.497
-135.784
-135.055
-134.317
-133.581
-132.864
-138.189
-139.965
-140.587
-140.768
-140.725
-140.513
-140.163
-139.709
-139.181
-138.595
-137.965
-137.303
-136.619
-135.917
-135.205
-134.492
-133.787
-133.105
-139.764
-140.665
-141.082
-141.149
-141.025
-140.757
-140.37
-139.891
-139.344
-138.746
-138.109
-137.446
-136.765
-136.073
-135.378
-134.687
-134.01
-133.359
-140.822
-141.523
-141.682
-141.599
-141.383
-141.05
-140.616
-140.104
-139.535
-138.922
-138.278
-137.614
-136.937
-136.255
-135.575
-134.903
-134.25
-133.624
-142.439
-142.386
-142.283
-142.068
-141.764
-141.364
-140.883
-140.339
-139.747
-139.117
-138.463
-137.794
-137.119
-136.444
-135.776
-135.121
-134.487
-133.882
-144.372
-143.368
-142.961
-142.593
-142.191
-141.719
-141.184
-140.601
-139.982
-139.334
-138.67
-137.997
-137.322
-136.653
-135.994
-135.353
-134.734
-134.146
-145.898
-144.384
-143.729
-143.236
-142.731
-142.174
-141.576
-140.946
-140.293
-139.622
-138.941
-138.259
-137.583
-136.917
-136.268
-135.639
-135.036
-134.463
-147.034
-145.401
-144.683
-144.054
-143.422
-142.766
-142.089
-141.397
-140.697
-139.993
-139.291
-138.597
-137.915
-137.249
-136.604
-135.983
-135.391
-134.828
-144.133
-146.026
-145.752
-145.054
-144.294
-143.522
-142.748
-141.981
-141.223
-140.476
-139.743
-139.027
-138.333
-137.663
-137.019
-136.404
-135.819
-135.269
-150.832
-148.719
-147.477
-146.4
-145.408
-144.466
-143.568
-142.708
-141.879
-141.078
-140.307
-139.564
-138.85
-138.167
-137.515
-136.896
-136.309
-135.756
-152.522
-150.813
-149.287
-147.917
-146.714
-145.616
-144.591
-143.625
-142.709
-141.838
-141.009
-140.223
-139.477
-138.771
-138.102
-137.47
-136.875
-136.315
-155.986
-153.162
-151.265
-149.62
-148.212
-146.938
-145.761
-144.67
-143.656
-142.706
-141.816
-140.981
-140.197
-139.458
-138.763
-138.109
-137.495
-136.919
-153.303
-153.812
-152.501
-150.929
-149.435
-148.058
-146.787
-145.604
-144.502
-143.478
-142.524
-141.634
-140.803
-140.027
-139.301
-138.622
-137.986
-137.39
-161.78
-156.398
-153.853
-151.994
-150.365
-148.88
-147.513
-146.251
-145.087
-144.014
-143.021
-142.099
-141.239
-140.438
-139.69
-138.992
-138.338
-137.727
-158.276
-156.189
-154.395
-152.656
-151.014
-149.487
-148.062
-146.742
-145.528
-144.41
-143.379
-142.423
-141.538
-140.715
-139.95
-139.237
-138.571
-137.948
-155.057
-156.023
-154.909
-153.295
-151.622
-150.018
-148.518
-147.144
-145.891
-144.743
-143.684
-142.706
-141.799
-140.958
-140.176
-139.448
-138.768
-138.132
-156.185
-156.881
-155.621
-153.86
-152.068
-150.365
-148.8
-147.384
-146.102
-144.933
-143.858
-142.865
-141.945
-141.094
-140.303
-139.568
-138.883
-138.243
-158.615
-158.341
-156.468
-154.428
-152.492
-150.693
-149.07
-147.62
-146.308
-145.113
-144.013
-143.003
-142.071
-141.209
-140.41
-139.667
-138.975
-138.329
-164.904
-160.173
-157.296
-154.878
-152.752
-150.867
-149.205
-147.733
-146.412
-145.207
-144.101
-143.083
-142.145
-141.277
-140.472
-139.724
-139.028
-138.38
-167.52
-161.407
-157.948
-155.253
-152.972
-151.019
-149.33
-147.84
-146.502
-145.283
-144.168
-143.144
-142.2
-141.327
-140.518
-139.766
-139.067
-138.416
-167.747
-161.932
-158.328
-155.45
-153.075
-151.094
-149.391
-147.89
-146.542
-145.319
-144.202
-143.176
-142.229
-141.353
-140.54
-139.786
-139.085
-138.433
-167.894
-162.391
-158.589
-155.571
-153.144
-151.145
-149.434
-147.925
-146.571
-145.345
-144.226
-143.197
-142.248
-141.368
-140.553
-139.796
-139.093
-138.44
-166.477
-162.448
-158.689
-155.597
-153.16
-151.16
-149.443
-147.93
-146.575
-145.35
-144.233
-143.206
-142.256
-141.375
-140.557
-139.798
-139.094
-138.44
-125.744
-125.729
-125.69
-125.639
-125.598
-125.571
-125.549
-125.524
-125.487
-125.44
-125.388
-125.332
-125.277
-125.213
-125.141
-125.062
-124.978
-124.885
-124.779
-124.662
-124.535
-124.398
-124.252
-124.103
-123.96
-123.826
-123.703
-123.59
-123.485
-123.399
-123.352
-123.347
-123.36
-123.358
-123.309
-123.196
-123.013
-122.762
-122.437
-122.031
-121.539
-120.96
-120.291
-119.539
-118.71
-117.813
-116.861
-115.868
-114.849
-113.821
-112.802
-111.811
-110.867
-109.99
-109.204
-108.53
-108.094
-107.924
-107.9
-107.911
-107.867
-107.704
-107.434
-107.147
-106.884
-106.637
-106.441
-106.337
-106.292
-106.258
-106.195
-106.034
-105.748
-105.313
-104.688
-104.065
-103.689
-103.459
-103.166
-102.805
-102.551
-102.381
-102.162
-101.937
-101.902
-102.13
-102.585
-103.209
-103.939
-104.719
-105.501
-106.242
-106.903
-107.449
-107.85
-108.081
-108.123
-107.962
-107.595
-107.026
-106.267
-105.334
-104.253
-103.05
-101.752
-100.382
-98.9586
-97.4951
-96.0005
-94.4799
-92.9363
-91.373
-89.7953
-88.2132
-86.6418
-85.1014
-83.615
-82.2046
-80.8876
-79.6744
-78.5693
-77.5695
-76.6678
-75.8524
-75.1119
-74.4349
-73.8114
-73.2331
-72.6933
-72.1866
-71.7083
-71.2541
-70.8191
-70.3979
-69.9842
-69.571
-69.1512
-68.7185
-68.2677
-67.7959
-67.3018
-66.7854
-66.2497
-65.6983
-65.1336
-64.5574
-63.9716
-63.3787
-62.7806
-62.1783
-61.5698
-60.9502
-60.3144
-59.6592
-58.9847
-58.2931
-57.5873
-56.8697
-56.1419
-55.405
-54.6596
-53.9061
-53.145
-52.3765
-51.601
-50.8188
-50.03
-49.2346
-48.4328
-47.6244
-46.8095
-45.988
-45.1601
-44.3258
-43.4855
-42.6396
-41.789
-40.936
-40.0788
-39.2514
-125.831
-125.809
-125.762
-125.703
-125.663
-125.645
-125.639
-125.629
-125.606
-125.564
-125.504
-125.432
-125.356
-125.279
-125.202
-125.126
-125.05
-124.955
-124.842
-124.716
-124.573
-124.414
-124.249
-124.088
-123.936
-123.807
-123.71
-123.648
-123.61
-123.588
-123.585
-123.593
-123.588
-123.559
-123.504
-123.406
-123.243
-123.001
-122.676
-122.264
-121.762
-121.168
-120.49
-119.733
-118.904
-118.009
-117.06
-116.07
-115.054
-114.028
-113.009
-112.015
-111.065
-110.187
-109.421
-108.804
-108.433
-108.306
-108.26
-108.228
-108.161
-108.016
-107.734
-107.372
-107.024
-106.686
-106.403
-106.276
-106.285
-106.332
-106.329
-106.208
-105.92
-105.456
-104.772
-104.111
-103.716
-103.525
-103.292
-102.885
-102.472
-102.247
-102.121
-102.06
-102.166
-102.48
-102.979
-103.618
-104.344
-105.111
-105.874
-106.593
-107.233
-107.76
-108.144
-108.358
-108.38
-108.199
-107.807
-107.211
-106.422
-105.466
-104.363
-103.143
-101.83
-100.45
-99.0191
-97.5525
-96.0579
-94.5396
-92.9994
-91.4389
-89.8624
-88.2788
-86.7029
-85.1556
-83.6608
-82.2419
-80.9177
-79.699
-78.5901
-77.5881
-76.6849
-75.8689
-75.1279
-74.4496
-73.8246
-73.2445
-72.7027
-72.194
-71.7141
-71.2588
-70.8234
-70.4026
-69.9899
-69.578
-69.1596
-68.728
-68.2776
-67.8057
-67.3111
-66.7951
-66.2601
-65.7085
-65.1434
-64.5669
-63.9809
-63.3876
-62.7889
-62.1857
-61.5759
-60.9549
-60.3175
-59.6608
-58.9852
-58.293
-57.5868
-56.8691
-56.1413
-55.4045
-54.6593
-53.906
-53.1449
-52.3765
-51.6011
-50.8189
-50.0301
-49.2348
-48.433
-47.6246
-46.8098
-45.9884
-45.1606
-44.3263
-43.4862
-42.6404
-41.7897
-40.9369
-40.0793
-39.2434
-126.029
-126.009
-125.976
-125.965
-125.978
-126.007
-126.034
-126.044
-126.028
-125.98
-125.898
-125.791
-125.671
-125.546
-125.425
-125.311
-125.202
-125.084
-124.951
-124.805
-124.645
-124.477
-124.308
-124.151
-124.021
-123.922
-123.863
-123.844
-123.849
-123.86
-123.873
-123.896
-123.931
-123.96
-123.95
-123.874
-123.719
-123.477
-123.145
-122.721
-122.211
-121.615
-120.935
-120.174
-119.34
-118.441
-117.489
-116.497
-115.481
-114.459
-113.447
-112.461
-111.526
-110.677
-109.962
-109.431
-109.165
-109.086
-108.97
-108.846
-108.715
-108.527
-108.254
-107.886
-107.455
-107.024
-106.732
-106.638
-106.636
-106.672
-106.738
-106.679
-106.343
-105.854
-105.098
-104.458
-104.187
-103.957
-103.506
-103.025
-102.676
-102.49
-102.461
-102.568
-102.816
-103.203
-103.71
-104.318
-104.994
-105.708
-106.424
-107.105
-107.717
-108.221
-108.585
-108.78
-108.782
-108.577
-108.159
-107.531
-106.71
-105.716
-104.577
-103.323
-101.983
-100.582
-99.1383
-97.666
-96.1719
-94.6582
-93.1244
-91.5696
-89.9955
-88.4091
-86.8247
-85.2641
-83.7534
-82.319
-80.9816
-79.7529
-78.6373
-77.6313
-76.7267
-75.9087
-75.1655
-74.4845
-73.8561
-73.272
-72.726
-72.2132
-71.7297
-71.2719
-70.8356
-70.4154
-70.0045
-69.5953
-69.1797
-68.7501
-68.3011
-67.8293
-67.334
-66.8162
-66.2786
-65.7251
-65.1589
-64.5819
-63.9958
-63.4021
-62.8019
-62.1954
-61.5804
-60.9537
-60.312
-59.6536
-58.9782
-58.2874
-57.583
-56.8668
-56.1401
-55.404
-54.659
-53.9059
-53.1449
-52.3766
-51.6013
-50.8192
-50.0306
-49.2354
-48.4338
-47.6256
-46.8109
-45.9898
-45.1623
-44.3286
-43.4888
-42.644
-41.7936
-40.9421
-40.0847
-39.2407
-126.197
-126.244
-126.34
-126.463
-126.587
-126.692
-126.763
-126.791
-126.768
-126.692
-126.566
-126.397
-126.2
-125.991
-125.786
-125.596
-125.42
-125.253
-125.091
-124.933
-124.773
-124.621
-124.486
-124.376
-124.3
-124.266
-124.281
-124.343
-124.437
-124.543
-124.646
-124.735
-124.797
-124.823
-124.801
-124.713
-124.546
-124.294
-123.951
-123.515
-122.98
-122.354
-121.646
-120.862
-120.01
-119.098
-118.137
-117.141
-116.127
-115.113
-114.119
-113.162
-112.268
-111.466
-110.797
-110.315
-110.079
-109.949
-109.69
-109.447
-109.252
-109.041
-108.777
-108.428
-107.989
-107.544
-107.202
-107.02
-106.985
-107.097
-107.281
-107.246
-106.915
-106.284
-105.346
-104.588
-104.203
-103.962
-103.546
-103.115
-102.886
-102.851
-102.957
-103.176
-103.5
-103.925
-104.444
-105.043
-105.701
-106.392
-107.086
-107.749
-108.343
-108.833
-109.181
-109.358
-109.336
-109.102
-108.647
-107.976
-107.106
-106.06
-104.87
-103.57
-102.191
-100.762
-99.3011
-97.8218
-96.3291
-94.823
-93.2995
-91.7542
-90.1851
-88.5964
-87.0014
-85.4231
-83.8912
-82.4359
-81.0808
-79.8391
-78.7156
-77.705
-76.7964
-75.9752
-75.228
-74.5422
-73.9077
-73.3168
-72.7636
-72.2439
-71.7545
-71.2926
-70.8545
-70.4349
-70.0268
-69.6216
-69.2101
-68.7835
-68.3352
-67.862
-67.3638
-66.8428
-66.3027
-65.7468
-65.1782
-64.5997
-64.0125
-63.4175
-62.8153
-62.2056
-61.5869
-60.957
-60.313
-59.6533
-58.9774
-58.2866
-57.5824
-56.8665
-56.1401
-55.404
-54.6592
-53.906
-53.1451
-52.3769
-51.6016
-50.8197
-50.0311
-49.236
-48.4345
-47.6265
-46.8121
-45.9912
-45.164
-44.3308
-43.4914
-42.6473
-41.7976
-40.9464
-40.0896
-39.2404
-126.557
-126.663
-126.859
-127.045
-127.208
-127.339
-127.429
-127.472
-127.458
-127.381
-127.243
-127.049
-126.807
-126.533
-126.249
-125.981
-125.739
-125.528
-125.344
-125.175
-125.037
-124.939
-124.881
-124.858
-124.872
-124.926
-125.022
-125.158
-125.319
-125.487
-125.645
-125.778
-125.872
-125.912
-125.889
-125.791
-125.607
-125.329
-124.954
-124.481
-123.931
-123.297
-122.581
-121.788
-120.926
-120.003
-119.032
-118.026
-117.004
-115.986
-114.998
-114.062
-113.198
-112.419
-111.747
-111.223
-110.86
-110.536
-110.186
-109.858
-109.605
-109.36
-109.105
-108.8
-108.417
-108
-107.634
-107.398
-107.322
-107.381
-107.486
-107.394
-106.96
-106.163
-105.047
-104.05
-103.524
-103.248
-103.095
-103.037
-103.086
-103.236
-103.468
-103.777
-104.163
-104.629
-105.175
-105.788
-106.453
-107.146
-107.839
-108.497
-109.086
-109.568
-109.907
-110.067
-110.022
-109.754
-109.255
-108.532
-107.6
-106.488
-105.233
-103.874
-102.447
-100.982
-99.5008
-98.0135
-96.524
-95.029
-93.5208
-91.9901
-90.4302
-88.8414
-87.2354
-85.6369
-84.0805
-82.6008
-81.226
-79.971
-78.8391
-77.823
-76.9095
-76.0833
-75.3298
-74.6361
-73.9923
-73.3909
-72.8266
-72.2962
-71.7973
-71.3281
-70.8857
-70.4654
-70.0599
-69.6593
-69.2529
-68.8308
-68.3852
-67.9117
-67.41
-66.8833
-66.3367
-65.7754
-65.2032
-64.6218
-64.0325
-63.4357
-62.8315
-62.219
-61.597
-60.9635
-60.3164
-59.6543
-58.9771
-58.286
-57.582
-56.8665
-56.1404
-55.4046
-54.6597
-53.9065
-53.1455
-52.3773
-51.602
-50.8201
-50.0317
-49.2367
-48.4353
-47.6275
-46.8133
-45.9927
-45.1658
-44.333
-43.4941
-42.6504
-41.8014
-40.9501
-40.0941
-39.2407
-127.15
-127.274
-127.452
-127.622
-127.775
-127.902
-127.993
-128.038
-128.026
-127.952
-127.814
-127.617
-127.364
-127.068
-126.756
-126.457
-126.188
-125.95
-125.755
-125.612
-125.53
-125.508
-125.539
-125.616
-125.734
-125.888
-126.075
-126.287
-126.513
-126.738
-126.946
-127.122
-127.248
-127.312
-127.298
-127.197
-127.002
-126.709
-126.316
-125.834
-125.251
-124.579
-123.829
-123.008
-122.122
-121.179
-120.186
-119.154
-118.101
-117.049
-116.027
-115.064
-114.18
-113.381
-112.676
-112.07
-111.545
-111.074
-110.615
-110.224
-109.879
-109.575
-109.285
-108.985
-108.652
-108.29
-107.942
-107.67
-107.503
-107.407
-107.314
-107.06
-106.49
-105.573
-104.398
-103.298
-102.678
-102.571
-102.748
-103.011
-103.305
-103.619
-103.964
-104.355
-104.807
-105.326
-105.912
-106.556
-107.242
-107.948
-108.649
-109.314
-109.908
-110.393
-110.731
-110.883
-110.818
-110.518
-109.972
-109.187
-108.182
-106.99
-105.655
-104.224
-102.739
-101.232
-99.7263
-98.2307
-96.7466
-95.2675
-93.7808
-92.2716
-90.7276
-89.1436
-87.5291
-85.9105
-84.3275
-82.8215
-81.4271
-80.1588
-79.0183
-77.996
-77.0762
-76.2422
-75.4788
-74.7733
-74.1161
-73.5003
-72.9215
-72.3772
-71.8661
-71.3873
-70.9386
-70.5157
-70.1107
-69.7133
-69.3111
-68.8918
-68.4466
-67.9725
-67.4688
-66.937
-66.3833
-65.8136
-65.2347
-64.6483
-64.0559
-63.4567
-62.85
-62.2347
-61.6093
-60.9722
-60.322
-59.6578
-58.9796
-58.2881
-57.584
-56.8685
-56.1423
-55.4062
-54.6611
-53.9076
-53.1464
-52.378
-51.6027
-50.8208
-50.0324
-49.2376
-48.4363
-47.6286
-46.8146
-45.9942
-45.1676
-44.335
-43.4965
-42.6531
-41.8046
-40.953
-40.0974
-39.2412
-127.668
-127.772
-127.911
-128.063
-128.214
-128.348
-128.449
-128.5
-128.489
-128.413
-128.278
-128.086
-127.844
-127.566
-127.271
-126.987
-126.728
-126.509
-126.353
-126.267
-126.257
-126.316
-126.435
-126.607
-126.824
-127.077
-127.361
-127.663
-127.97
-128.265
-128.528
-128.741
-128.886
-128.951
-128.926
-128.803
-128.58
-128.254
-127.825
-127.293
-126.667
-125.957
-125.176
-124.334
-123.437
-122.488
-121.49
-120.447
-119.367
-118.269
-117.184
-116.146
-115.184
-114.317
-113.544
-112.852
-112.224
-111.633
-111.071
-110.586
-110.144
-109.75
-109.389
-109.057
-108.74
-108.427
-108.118
-107.819
-107.542
-107.27
-106.964
-106.525
-105.84
-104.892
-103.776
-102.777
-102.261
-102.306
-102.716
-103.163
-103.6
-104.025
-104.459
-104.928
-105.447
-106.024
-106.656
-107.335
-108.047
-108.774
-109.493
-110.177
-110.79
-111.294
-111.644
-111.798
-111.721
-111.39
-110.794
-109.938
-108.845
-107.558
-106.128
-104.61
-103.055
-101.5
-99.9654
-98.4611
-96.9848
-95.5257
-94.0669
-92.5874
-91.0676
-89.4961
-87.8786
-86.2423
-84.634
-83.1045
-81.693
-80.4132
-79.2655
-78.2366
-77.3087
-76.4638
-75.6864
-74.9642
-74.2883
-73.6529
-73.0544
-72.4914
-71.964
-71.4725
-71.0157
-70.5893
-70.1846
-69.7894
-69.3901
-68.974
-68.5297
-68.0508
-67.5376
-66.9995
-66.4405
-65.8647
-65.2775
-64.6844
-64.0858
-63.482
-62.8718
-62.2533
-61.6245
-60.9841
-60.3309
-59.6645
-58.9847
-58.2921
-57.5875
-56.8715
-56.145
-55.4086
-54.6631
-53.9092
-53.1476
-52.379
-51.6035
-50.8216
-50.0332
-49.2384
-48.4373
-47.6297
-46.8159
-45.9957
-45.1693
-44.3369
-43.4988
-42.6555
-41.8073
-40.9554
-40.0996
-39.2415
-127.97
-128.052
-128.163
-128.295
-128.434
-128.563
-128.664
-128.724
-128.73
-128.679
-128.572
-128.415
-128.216
-127.989
-127.752
-127.524
-127.325
-127.175
-127.09
-127.079
-127.147
-127.287
-127.495
-127.762
-128.079
-128.436
-128.819
-129.212
-129.592
-129.937
-130.228
-130.45
-130.591
-130.643
-130.597
-130.446
-130.188
-129.825
-129.33
-128.733
-128.045
-127.279
-126.45
-125.57
-124.655
-123.711
-122.74
-121.732
-120.675
-119.566
-118.425
-117.294
-116.22
-115.239
-114.358
-113.563
-112.837
-112.147
-111.509
-110.917
-110.394
-109.914
-109.473
-109.078
-108.734
-108.433
-108.156
-107.882
-107.584
-107.243
-106.815
-106.249
-105.499
-104.573
-103.589
-102.755
-102.361
-102.513
-102.986
-103.505
-104.003
-104.487
-104.982
-105.513
-106.092
-106.721
-107.394
-108.107
-108.848
-109.604
-110.354
-111.07
-111.718
-112.255
-112.633
-112.802
-112.721
-112.362
-111.712
-110.776
-109.584
-108.185
-106.643
-105.023
-103.387
-101.774
-100.207
-98.693
-97.2251
-95.7883
-94.3616
-92.9184
-91.4311
-89.8813
-88.2687
-86.6186
-84.9925
-83.4477
-82.024
-80.7373
-79.5845
-78.5493
-77.6117
-76.7531
-75.9581
-75.2155
-74.5172
-73.8585
-73.2366
-72.6514
-72.1038
-71.5953
-71.1262
-70.6927
-70.2859
-69.8917
-69.4932
-69.0746
-68.6286
-68.1485
-67.6326
-67.0818
-66.5074
-65.9211
-65.3278
-64.7286
-64.1241
-63.5142
-62.8984
-62.2753
-61.6428
-60.9989
-60.3426
-59.6735
-58.9918
-58.2979
-57.5924
-56.8759
-56.1488
-55.4119
-54.6657
-53.9112
-53.1492
-52.3802
-51.6045
-50.8225
-50.0341
-49.2394
-48.4383
-47.6309
-46.8172
-45.9972
-45.171
-44.3388
-43.5008
-42.6577
-41.8095
-40.9573
-40.101
-39.2416
-128.032
-128.1
-128.196
-128.316
-128.448
-128.576
-128.685
-128.758
-128.789
-128.774
-128.713
-128.613
-128.48
-128.326
-128.167
-128.021
-127.907
-127.844
-127.847
-127.926
-128.084
-128.318
-128.624
-128.993
-129.412
-129.862
-130.322
-130.77
-131.186
-131.556
-131.867
-132.109
-132.269
-132.338
-132.303
-132.149
-131.858
-131.424
-130.889
-130.237
-129.477
-128.625
-127.702
-126.735
-125.751
-124.766
-123.785
-122.802
-121.797
-120.74
-119.612
-118.429
-117.252
-116.142
-115.133
-114.226
-113.403
-112.64
-111.936
-111.269
-110.673
-110.12
-109.612
-109.151
-108.75
-108.415
-108.137
-107.89
-107.636
-107.325
-106.897
-106.328
-105.604
-104.752
-103.913
-103.242
-102.928
-103.083
-103.528
-104.02
-104.514
-105.014
-105.542
-106.116
-106.738
-107.405
-108.113
-108.858
-109.633
-110.425
-111.214
-111.975
-112.674
-113.265
-113.692
-113.896
-113.823
-113.44
-112.734
-111.714
-110.413
-108.887
-107.214
-105.474
-103.74
-102.059
-100.451
-98.921
-97.4588
-96.0423
-94.6479
-93.2434
-91.7938
-90.2722
-88.6716
-87.0218
-85.3892
-83.838
-82.4106
-81.1229
-79.9682
-78.9272
-77.9786
-77.1041
-76.2893
-75.5237
-74.8006
-74.1162
-73.4689
-72.8597
-72.2911
-71.7657
-71.2845
-70.8434
-70.432
-70.0339
-69.6312
-69.2104
-68.7574
-68.266
-67.7369
-67.1765
-66.593
-65.9951
-65.3899
-64.7814
-64.1703
-63.5543
-62.932
-62.3027
-61.6649
-61.0168
-60.357
-59.6851
-59.001
-58.3055
-57.5988
-56.8814
-56.1536
-55.4159
-54.669
-53.9138
-53.1511
-52.3817
-51.6057
-50.8235
-50.0351
-49.2404
-48.4394
-47.6321
-46.8185
-45.9986
-45.1726
-44.3405
-43.5027
-42.6596
-41.8114
-40.9589
-40.102
-39.2414
-127.87
-127.923
-128.012
-128.127
-128.259
-128.394
-128.517
-128.617
-128.681
-128.708
-128.7
-128.663
-128.602
-128.528
-128.455
-128.4
-128.382
-128.419
-128.525
-128.707
-128.968
-129.306
-129.713
-130.176
-130.678
-131.197
-131.714
-132.213
-132.686
-133.127
-133.533
-133.888
-134.173
-134.36
-134.417
-134.321
-134.058
-133.622
-133.013
-132.245
-131.342
-130.333
-129.249
-128.121
-126.976
-125.84
-124.739
-123.69
-122.685
-121.677
-120.608
-119.447
-118.22
-117.007
-115.876
-114.856
-113.934
-113.101
-112.336
-111.63
-110.974
-110.374
-109.818
-109.311
-108.867
-108.493
-108.185
-107.933
-107.716
-107.461
-107.118
-106.65
-106.025
-105.278
-104.563
-104
-103.724
-103.841
-104.209
-104.642
-105.099
-105.588
-106.127
-106.724
-107.371
-108.064
-108.799
-109.574
-110.385
-111.218
-112.056
-112.876
-113.647
-114.319
-114.825
-115.091
-115.049
-114.652
-113.904
-112.8
-111.377
-109.706
-107.879
-105.995
-104.14
-102.37
-100.706
-99.1514
-97.6869
-96.2837
-94.9193
-93.5496
-92.1372
-90.6477
-89.0686
-87.4309
-85.8039
-84.2573
-82.8355
-81.5531
-80.3997
-79.3537
-78.3942
-77.5036
-76.6688
-75.8804
-75.1328
-74.4228
-73.7499
-73.1162
-72.5256
-71.9827
-71.4902
-71.0437
-70.63
-70.2294
-69.8188
-69.385
-68.9173
-68.4116
-67.8683
-67.2917
-66.6917
-66.0798
-65.4631
-64.8447
-64.2249
-63.6018
-62.9727
-62.3361
-61.6916
-61.0381
-60.3742
-59.699
-59.0123
-58.3146
-57.6063
-56.8877
-56.159
-55.4205
-54.6727
-53.9166
-53.1533
-52.3833
-51.6071
-50.8247
-50.0361
-49.2414
-48.4405
-47.6333
-46.8198
-46.0001
-45.1741
-44.3422
-43.5044
-42.6613
-41.8129
-40.9601
-40.1025
-39.2409
-127.533
-127.577
-127.654
-127.757
-127.88
-128.013
-128.142
-128.259
-128.356
-128.429
-128.477
-128.505
-128.518
-128.527
-128.547
-128.594
-128.685
-128.834
-129.053
-129.347
-129.715
-130.154
-130.653
-131.198
-131.774
-132.368
-132.97
-133.578
-134.19
-134.8
-135.393
-135.94
-136.401
-136.733
-136.894
-136.853
-136.591
-136.102
-135.394
-134.497
-133.443
-132.272
-131.022
-129.725
-128.406
-127.086
-125.796
-124.573
-123.448
-122.415
-121.385
-120.277
-119.06
-117.788
-116.557
-115.428
-114.412
-113.508
-112.687
-111.954
-111.268
-110.645
-110.069
-109.542
-109.077
-108.685
-108.356
-108.075
-107.829
-107.61
-107.344
-106.979
-106.471
-105.858
-105.266
-104.783
-104.539
-104.625
-104.921
-105.291
-105.707
-106.171
-106.708
-107.312
-107.972
-108.68
-109.436
-110.241
-111.087
-111.964
-112.862
-113.762
-114.632
-115.417
-116.037
-116.396
-116.407
-115.992
-115.231
-114.038
-112.481
-110.649
-108.649
-106.6
-104.604
-102.726
-100.991
-99.3967
-97.92
-96.5217
-95.1733
-93.8328
-92.4541
-90.9974
-89.4449
-87.8283
-86.2181
-84.6868
-83.279
-82.0071
-80.8574
-79.8076
-78.8383
-77.9337
-77.0817
-76.2735
-75.5042
-74.7714
-74.0751
-73.4186
-72.8075
-72.2488
-71.7471
-71.2981
-70.8841
-70.4794
-70.0606
-69.6106
-69.121
-68.5903
-68.0229
-67.4263
-66.8094
-66.1816
-65.5502
-64.9189
-64.2885
-63.6568
-63.0202
-62.376
-61.7238
-61.0635
-60.3943
-59.7151
-59.0254
-58.3252
-57.6148
-56.8946
-56.1647
-55.4252
-54.6766
-53.9197
-53.1557
-52.3852
-51.6086
-50.8259
-50.0373
-49.2425
-48.4416
-47.6345
-46.8211
-46.0014
-45.1756
-44.3437
-43.5059
-42.6627
-41.8142
-40.9609
-40.1028
-39.2402
-127.087
-127.122
-127.185
-127.272
-127.379
-127.5
-127.625
-127.744
-127.854
-127.954
-128.045
-128.129
-128.213
-128.309
-128.429
-128.586
-128.795
-129.064
-129.398
-129.801
-130.27
-130.8
-131.382
-132.007
-132.67
-133.367
-134.102
-134.878
-135.691
-136.522
-137.338
-138.096
-138.743
-139.226
-139.495
-139.508
-139.241
-138.686
-137.881
-136.838
-135.599
-134.223
-132.769
-131.29
-129.817
-128.36
-126.916
-125.506
-124.195
-123.034
-121.987
-120.918
-119.74
-118.448
-117.142
-115.917
-114.819
-113.847
-112.977
-112.205
-111.51
-110.878
-110.307
-109.788
-109.33
-108.949
-108.634
-108.368
-108.132
-107.9
-107.634
-107.297
-106.873
-106.384
-105.888
-105.469
-105.269
-105.344
-105.587
-105.904
-106.28
-106.723
-107.249
-107.853
-108.516
-109.233
-110.007
-110.837
-111.719
-112.646
-113.616
-114.617
-115.614
-116.542
-117.302
-117.777
-117.867
-117.53
-116.659
-115.353
-113.655
-111.659
-109.483
-107.262
-105.118
-103.124
-101.307
-99.6662
-98.1638
-96.7592
-95.4172
-94.096
-92.7436
-91.3151
-89.7901
-88.2005
-86.6165
-85.1098
-83.7236
-82.467
-81.3239
-80.2727
-79.297
-78.3831
-77.519
-76.6961
-75.91
-75.1589
-74.4429
-73.766
-73.1357
-72.5621
-72.0546
-71.6094
-71.2021
-70.7982
-70.3672
-69.893
-69.3723
-68.8096
-68.2118
-67.5872
-66.9459
-66.2983
-65.6509
-65.0055
-64.3622
-63.7196
-63.0741
-62.4219
-61.7615
-61.0933
-60.4176
-59.7335
-59.0402
-58.337
-57.6243
-56.902
-56.1705
-55.4299
-54.6804
-53.9228
-53.1581
-52.3871
-51.6101
-50.8273
-50.0385
-49.2436
-48.4427
-47.6356
-46.8223
-46.0027
-45.1769
-44.3451
-43.5073
-42.664
-41.8152
-40.9615
-40.1027
-39.2393
-126.617
-126.638
-126.679
-126.739
-126.817
-126.909
-127.01
-127.12
-127.235
-127.354
-127.478
-127.612
-127.765
-127.944
-128.162
-128.428
-128.747
-129.126
-129.564
-130.062
-130.615
-131.222
-131.878
-132.584
-133.346
-134.17
-135.067
-136.039
-137.074
-138.143
-139.202
-140.198
-141.071
-141.753
-142.172
-142.277
-142.029
-141.452
-140.529
-139.301
-137.828
-136.189
-134.469
-132.747
-131.075
-129.475
-127.924
-126.39
-124.901
-123.571
-122.451
-121.393
-120.258
-118.97
-117.616
-116.295
-115.133
-114.101
-113.19
-112.378
-111.666
-111.032
-110.469
-109.973
-109.543
-109.197
-108.932
-108.726
-108.553
-108.376
-108.124
-107.789
-107.382
-106.935
-106.473
-106.089
-105.918
-105.97
-106.164
-106.437
-106.78
-107.204
-107.719
-108.316
-108.979
-109.703
-110.491
-111.344
-112.261
-113.244
-114.296
-115.411
-116.549
-117.628
-118.532
-119.116
-119.264
-118.912
-118.018
-116.625
-114.804
-112.656
-110.316
-107.929
-105.643
-103.54
-101.647
-99.9527
-98.418
-96.9982
-95.6544
-94.343
-93.0076
-91.6001
-90.1002
-88.5404
-86.9892
-85.5144
-84.156
-82.9195
-81.787
-80.7394
-79.7637
-78.8478
-77.9788
-77.1479
-76.3516
-75.5886
-74.859
-74.1667
-73.5193
-72.9305
-72.4175
-71.9804
-71.5861
-71.188
-70.7448
-70.2428
-69.6828
-69.0766
-68.4376
-67.7769
-67.1054
-66.4331
-65.766
-65.1046
-64.4467
-63.7908
-63.1343
-62.473
-61.8042
-61.1275
-60.4442
-59.7543
-59.0566
-58.3501
-57.6346
-56.91
-56.1766
-55.4345
-54.684
-53.9258
-53.1606
-52.3891
-51.6118
-50.8287
-50.0398
-49.2448
-48.4438
-47.6367
-46.8234
-46.0039
-45.1782
-44.3464
-43.5085
-42.665
-41.816
-40.9619
-40.1025
-39.2382
-126.221
-126.226
-126.24
-126.268
-126.311
-126.368
-126.439
-126.526
-126.629
-126.751
-126.897
-127.071
-127.28
-127.533
-127.835
-128.191
-128.602
-129.068
-129.585
-130.152
-130.767
-131.43
-132.145
-132.924
-133.782
-134.735
-135.792
-136.954
-138.201
-139.496
-140.788
-142.016
-143.106
-143.976
-144.534
-144.718
-144.498
-143.863
-142.835
-141.456
-139.792
-137.927
-135.964
-134
-132.114
-130.353
-128.718
-127.106
-125.494
-124.017
-122.779
-121.712
-120.597
-119.334
-117.946
-116.582
-115.347
-114.261
-113.31
-112.472
-111.735
-111.094
-110.536
-110.056
-109.659
-109.353
-109.149
-109.025
-108.948
-108.871
-108.719
-108.441
-108.044
-107.586
-107.119
-106.729
-106.523
-106.497
-106.629
-106.861
-107.176
-107.584
-108.089
-108.68
-109.341
-110.069
-110.868
-111.743
-112.694
-113.731
-114.867
-116.095
-117.368
-118.586
-119.615
-120.304
-120.511
-120.171
-119.251
-117.786
-115.857
-113.578
-111.092
-108.547
-106.14
-103.942
-101.982
-100.241
-98.674
-97.2351
-95.8839
-94.5745
-93.2468
-91.8518
-90.3728
-88.8439
-87.3298
-85.8929
-84.568
-83.3563
-82.24
-81.2031
-80.2358
-79.3262
-78.46
-77.6282
-76.8296
-76.0639
-75.3312
-74.634
-73.9768
-73.375
-72.8571
-72.4299
-72.0504
-71.6575
-71.1995
-70.6632
-70.0555
-69.3967
-68.7068
-68.0011
-67.2916
-66.588
-65.8964
-65.216
-64.542
-63.8709
-63.2011
-62.5291
-61.8511
-61.1658
-60.4743
-59.7774
-59.0745
-58.3643
-57.6459
-56.9187
-56.1831
-55.4393
-54.6877
-53.9288
-53.1631
-52.3913
-51.6136
-50.8303
-50.0411
-49.246
-48.4449
-47.6377
-46.8244
-46.0049
-45.1793
-44.3475
-43.5096
-42.6659
-41.8166
-40.962
-40.102
-39.2369
-125.943
-125.934
-125.921
-125.916
-125.921
-125.94
-125.979
-126.04
-126.126
-126.243
-126.398
-126.597
-126.847
-127.153
-127.516
-127.937
-128.412
-128.935
-129.501
-130.108
-130.757
-131.45
-132.197
-133.027
-133.958
-135.009
-136.188
-137.492
-138.895
-140.352
-141.806
-143.187
-144.415
-145.397
-146.038
-146.266
-146.052
-145.381
-144.281
-142.812
-141.038
-139.043
-136.94
-134.839
-132.823
-130.947
-129.23
-127.572
-125.905
-124.333
-122.997
-121.894
-120.791
-119.545
-118.142
-116.737
-115.448
-114.316
-113.328
-112.466
-111.71
-111.053
-110.489
-110.013
-109.631
-109.357
-109.204
-109.162
-109.204
-109.267
-109.258
-109.099
-108.763
-108.315
-107.829
-107.369
-107.032
-106.887
-106.955
-107.15
-107.443
-107.841
-108.34
-108.926
-109.586
-110.317
-111.124
-112.015
-112.996
-114.081
-115.287
-116.611
-117.996
-119.328
-120.449
-121.245
-121.516
-121.202
-120.265
-118.735
-116.718
-114.336
-111.729
-109.076
-106.571
-104.299
-102.288
-100.511
-98.9189
-97.4622
-96.1014
-94.7879
-93.4591
-92.0684
-90.6061
-89.1083
-87.6347
-86.2406
-84.9541
-83.7724
-82.6786
-81.6605
-80.71
-79.8143
-78.9577
-78.1328
-77.3422
-76.5878
-75.8689
-75.1857
-74.5346
-73.9274
-73.4087
-72.9972
-72.6321
-72.2353
-71.7486
-71.1625
-70.4946
-69.7726
-69.0218
-68.2621
-67.5074
-66.7666
-66.0446
-65.3406
-64.6479
-63.9601
-63.2749
-62.59
-61.9017
-61.2074
-60.5073
-59.8028
-59.094
-58.3795
-57.6578
-56.928
-56.1902
-55.4445
-54.6916
-53.9318
-53.1656
-52.3934
-51.6155
-50.8319
-50.0425
-49.2473
-48.446
-47.6387
-46.8253
-46.0059
-45.1802
-44.3484
-43.5104
-42.6666
-41.817
-40.962
-40.1014
-39.2356
-125.818
-125.797
-125.759
-125.721
-125.691
-125.674
-125.678
-125.707
-125.77
-125.873
-126.024
-126.232
-126.501
-126.835
-127.233
-127.691
-128.2
-128.752
-129.338
-129.959
-130.618
-131.328
-132.042
-132.904
-133.872
-134.968
-136.204
-137.573
-139.043
-140.567
-142.085
-143.522
-144.793
-145.806
-146.47
-146.718
-146.513
-145.839
-144.729
-143.237
-141.437
-139.417
-137.284
-135.157
-133.118
-131.21
-129.455
-127.78
-126.104
-124.493
-123.104
-121.968
-120.863
-119.617
-118.198
-116.758
-115.431
-114.265
-113.25
-112.361