/*--------------------------------*- C++ -*----------------------------------*\
  =========                 |
  \\      /  F ield         | OpenFOAM: The Open Source CFD Toolbox
   \\    /   O peration     | Website:  https://openfoam.org
    \\  /    A nd           | Version:  7
     \\/     M anipulation  |
\*---------------------------------------------------------------------------*/
FoamFile
{
    version     2.0;
    format      ascii;
    class       surfaceScalarField;
    location    "0.094";
    object      phi_0;
}
// * * * * * * * * * * * * * * * * * * * * * * * * * * * * * * * * * * * * * //

dimensions      [0 3 -1 0 0 0 0];

internalField   nonuniform List<scalar> 
24170
(
1.39294e-06
1.94862e-07
1.2543e-06
1.38638e-07
1.12552e-06
1.28778e-07
1.01172e-06
1.13804e-07
9.02862e-07
1.08854e-07
7.91562e-07
1.113e-07
6.7968e-07
1.11882e-07
5.76077e-07
1.03604e-07
4.86662e-07
8.94144e-08
4.11289e-07
7.53728e-08
3.46472e-07
6.48178e-08
2.89555e-07
5.69168e-08
2.39255e-07
5.03002e-08
1.95585e-07
4.36696e-08
1.56914e-07
3.86707e-08
1.22044e-07
3.48707e-08
9.43849e-08
2.76587e-08
4.15596e-09
9.0229e-08
1.66499e-06
1.97731e-07
1.6613e-06
1.42334e-07
1.62769e-06
1.62389e-07
1.58226e-06
1.59227e-07
1.5381e-06
1.53017e-07
1.49575e-06
1.53652e-07
1.45036e-06
1.57273e-07
1.39863e-06
1.55328e-07
1.34087e-06
1.4718e-07
1.2793e-06
1.36938e-07
1.21739e-06
1.26729e-07
1.1568e-06
1.17506e-07
1.09867e-06
1.08426e-07
1.0415e-06
1.00844e-07
9.85946e-07
9.42235e-08
9.31612e-07
8.92044e-08
8.72586e-07
8.66854e-08
7.36471e-08
8.03095e-07
1.75968e-06
2.32649e-07
1.75183e-06
1.50184e-07
1.74699e-06
1.67224e-07
1.73798e-06
1.68244e-07
1.72637e-06
1.64628e-07
1.71547e-06
1.64547e-07
1.70621e-06
1.66532e-07
1.69597e-06
1.65574e-07
1.68186e-06
1.61283e-07
1.66278e-06
1.56023e-07
1.6396e-06
1.49906e-07
1.61409e-06
1.43019e-07
1.58741e-06
1.3511e-07
1.56015e-06
1.28094e-07
1.53198e-06
1.22401e-07
1.50315e-06
1.18029e-07
1.47048e-06
1.19358e-07
1.13744e-07
1.43038e-06
1.93496e-06
3.27186e-07
1.88799e-06
1.97158e-07
1.88225e-06
1.72964e-07
1.87836e-06
1.72126e-07
1.87296e-06
1.70027e-07
1.86814e-06
1.69373e-07
1.86381e-06
1.70864e-07
1.85892e-06
1.70457e-07
1.853e-06
1.67204e-07
1.84628e-06
1.62743e-07
1.83896e-06
1.57228e-07
1.83161e-06
1.50372e-07
1.82401e-06
1.42711e-07
1.81643e-06
1.35672e-07
1.80797e-06
1.30863e-07
1.79824e-06
1.2775e-07
1.78795e-06
1.29653e-07
1.28945e-07
1.77275e-06
2.04811e-06
3.03406e-07
2.05383e-06
1.91447e-07
2.05258e-06
1.74208e-07
2.05014e-06
1.74571e-07
2.04879e-06
1.71379e-07
2.04456e-06
1.73598e-07
2.03494e-06
1.80483e-07
2.0214e-06
1.84004e-07
2.00762e-06
1.80981e-07
1.99677e-06
1.73587e-07
1.98988e-06
1.64119e-07
1.98651e-06
1.5374e-07
1.98533e-06
1.43895e-07
1.98513e-06
1.35871e-07
1.98472e-06
1.31277e-07
1.98298e-06
1.2949e-07
1.98064e-06
1.31986e-07
1.35518e-07
1.97407e-06
2.20336e-06
4.00238e-07
2.18385e-06
2.10955e-07
2.17781e-06
1.80248e-07
2.17655e-06
1.75829e-07
2.17956e-06
1.68373e-07
2.18146e-06
1.71701e-07
2.17741e-06
1.84532e-07
2.16808e-06
1.93334e-07
2.15835e-06
1.90706e-07
2.15244e-06
1.795e-07
2.15097e-06
1.65592e-07
2.15188e-06
1.52825e-07
2.15273e-06
1.43047e-07
2.15191e-06
1.36689e-07
2.14915e-06
1.3404e-07
2.14436e-06
1.34282e-07
2.13859e-06
1.37755e-07
1.43279e-07
2.13083e-06
2.42968e-06
3.39902e-07
2.39526e-06
2.45372e-07
2.35283e-06
2.2268e-07
2.32966e-06
1.98998e-07
2.31711e-06
1.80927e-07
2.30916e-06
1.7965e-07
2.30732e-06
1.86368e-07
2.31329e-06
1.87363e-07
2.32485e-06
1.79153e-07
2.33678e-06
1.67565e-07
2.3439e-06
1.58477e-07
2.34367e-06
1.53056e-07
2.33703e-06
1.4968e-07
2.32696e-06
1.46767e-07
2.31651e-06
1.44485e-07
2.30722e-06
1.43576e-07
2.2996e-06
1.45377e-07
1.50409e-07
2.29246e-06
2.61202e-06
3.66946e-07
2.57604e-06
2.8135e-07
2.5515e-06
2.47217e-07
2.53179e-06
2.18709e-07
2.51394e-06
1.98776e-07
2.50172e-06
1.91872e-07
2.49786e-06
1.9023e-07
2.50167e-06
1.83552e-07
2.50964e-06
1.7118e-07
2.51753e-06
1.59678e-07
2.52207e-06
1.53937e-07
2.52192e-06
1.53206e-07
2.51762e-06
1.53984e-07
2.51074e-06
1.53642e-07
2.50296e-06
1.52264e-07
2.4953e-06
1.51238e-07
2.48828e-06
1.52404e-07
1.56915e-07
2.48177e-06
2.73678e-06
3.8909e-07
2.73169e-06
2.8644e-07
2.7422e-06
2.36701e-07
2.74061e-06
2.20305e-07
2.72877e-06
2.10616e-07
2.72177e-06
1.98871e-07
2.72412e-06
1.87882e-07
2.72982e-06
1.77846e-07
2.73257e-06
1.68437e-07
2.73076e-06
1.61481e-07
2.72627e-06
1.5843e-07
2.72129e-06
1.58185e-07
2.71684e-06
1.58429e-07
2.71287e-06
1.57619e-07
2.70896e-06
1.5617e-07
2.70474e-06
1.55462e-07
2.70021e-06
1.56929e-07
1.61763e-07
2.69536e-06
3.00326e-06
4.64645e-07
2.97421e-06
3.15485e-07
2.95807e-06
2.52842e-07
2.94447e-06
2.3391e-07
2.93276e-06
2.2232e-07
2.92607e-06
2.05569e-07
2.92605e-06
1.87902e-07
2.92991e-06
1.73982e-07
2.9326e-06
1.65746e-07
2.93044e-06
1.63646e-07
2.92298e-06
1.65882e-07
2.91229e-06
1.6888e-07
2.90122e-06
1.69497e-07
2.89194e-06
1.66904e-07
2.88555e-06
1.62554e-07
2.88196e-06
1.5905e-07
2.88078e-06
1.5811e-07
1.61446e-07
2.8811e-06
3.17601e-06
4.04707e-07
3.17887e-06
3.12617e-07
3.15575e-06
2.75968e-07
3.14875e-06
2.40906e-07
3.1549e-06
2.16175e-07
3.1568e-06
2.03662e-07
3.14804e-06
1.96664e-07
3.13322e-06
1.888e-07
3.11911e-06
1.79861e-07
3.10934e-06
1.73412e-07
3.10431e-06
1.70917e-07
3.10273e-06
1.70458e-07
3.10297e-06
1.69261e-07
3.10361e-06
1.66264e-07
3.1037e-06
1.62459e-07
3.10294e-06
1.59807e-07
3.10152e-06
1.5953e-07
1.62915e-07
3.10005e-06
2.87694e-06
3.85821e-07
2.84655e-06
3.43006e-07
2.83976e-06
2.82763e-07
2.83546e-06
2.45199e-07
2.83112e-06
2.2052e-07
2.83284e-06
2.01943e-07
2.84082e-06
1.88679e-07
2.84872e-06
1.80905e-07
2.85076e-06
1.77825e-07
2.84653e-06
1.77639e-07
2.83982e-06
1.77629e-07
2.8347e-06
1.75578e-07
2.83291e-06
1.7105e-07
2.83391e-06
1.65261e-07
2.83605e-06
1.60319e-07
2.83803e-06
1.57823e-07
2.83903e-06
1.58531e-07
1.62458e-07
2.83949e-06
3.47778e-06
4.26126e-07
3.48531e-06
3.35473e-07
3.49735e-06
2.70727e-07
3.50208e-06
2.40469e-07
3.49909e-06
2.23505e-07
3.49311e-06
2.07924e-07
3.48721e-06
1.9458e-07
3.4806e-06
1.87512e-07
3.47248e-06
1.8595e-07
3.46479e-06
1.8533e-07
3.46089e-06
1.81528e-07
3.46278e-06
1.73688e-07
3.46995e-06
1.63872e-07
3.47976e-06
1.55452e-07
3.48913e-06
1.50948e-07
3.49578e-06
1.51176e-07
3.49885e-06
1.55464e-07
1.6245e-07
3.49886e-06
4.25424e-06
4.57234e-07
4.24449e-06
3.45225e-07
4.24802e-06
2.67195e-07
4.25509e-06
2.334e-07
4.25558e-06
2.23018e-07
4.25223e-06
2.1127e-07
4.24995e-06
1.96863e-07
4.24919e-06
1.88271e-07
4.2485e-06
1.86645e-07
4.24757e-06
1.86253e-07
4.24745e-06
1.8165e-07
4.24898e-06
1.72158e-07
4.25216e-06
1.60696e-07
4.25608e-06
1.51534e-07
4.25982e-06
1.472e-07
4.26277e-06
1.48233e-07
4.26499e-06
1.53241e-07
1.60135e-07
4.2673e-06
5.17998e-06
3.85136e-07
5.21399e-06
3.11217e-07
5.21959e-06
2.61587e-07
5.20053e-06
2.52459e-07
5.18095e-06
2.42604e-07
5.17093e-06
2.2129e-07
5.16888e-06
1.98916e-07
5.17115e-06
1.85999e-07
5.17633e-06
1.81458e-07
5.18432e-06
1.78268e-07
5.19437e-06
1.71598e-07
5.20466e-06
1.61872e-07
5.21318e-06
1.52172e-07
5.21867e-06
1.4605e-07
5.22088e-06
1.44986e-07
5.22063e-06
1.48481e-07
5.21909e-06
1.54777e-07
1.61861e-07
5.21737e-06
6.43984e-06
4.22952e-07
6.37669e-06
3.74367e-07
6.3239e-06
3.14379e-07
6.30079e-06
2.75564e-07
6.2985e-06
2.44896e-07
6.3067e-06
2.13086e-07
6.31797e-06
1.87654e-07
6.32844e-06
1.75527e-07
6.33677e-06
1.73127e-07
6.34359e-06
1.71448e-07
6.35075e-06
1.6444e-07
6.36005e-06
1.52574e-07
6.37212e-06
1.40093e-07
6.38632e-06
1.31857e-07
6.40113e-06
1.30176e-07
6.41515e-06
1.34456e-07
6.42779e-06
1.42136e-07
1.50136e-07
6.43952e-06
7.71996e-06
3.85162e-07
7.77125e-06
3.23076e-07
7.77038e-06
3.15247e-07
7.75743e-06
2.88513e-07
7.75413e-06
2.48197e-07
7.76247e-06
2.04743e-07
7.77734e-06
1.72783e-07
7.79273e-06
1.6014e-07
7.80445e-06
1.6141e-07
7.81065e-06
1.6525e-07
7.81125e-06
1.63836e-07
7.80782e-06
1.56006e-07
7.80307e-06
1.44841e-07
7.80024e-06
1.34691e-07
7.80233e-06
1.28085e-07
7.81096e-06
1.25821e-07
7.82705e-06
1.26051e-07
1.27777e-07
7.84941e-06
9.47995e-06
3.51167e-07
9.4649e-06
3.38118e-07
9.46657e-06
3.13576e-07
9.47917e-06
2.7592e-07
9.48596e-06
2.41402e-07
9.48183e-06
2.08876e-07
9.47447e-06
1.80136e-07
9.47628e-06
1.5833e-07
9.49259e-06
1.45105e-07
9.51895e-06
1.38891e-07
9.54683e-06
1.35955e-07
9.56973e-06
1.33105e-07
9.58584e-06
1.28735e-07
9.59756e-06
1.22964e-07
9.60937e-06
1.16282e-07
9.62524e-06
1.09948e-07
9.64739e-06
1.03896e-07
9.92562e-08
9.67591e-06
1.15516e-05
5.67713e-07
1.14798e-05
4.09878e-07
1.14999e-05
2.93516e-07
1.15614e-05
2.14445e-07
1.16356e-05
1.67192e-07
1.16967e-05
1.4778e-07
1.17338e-05
1.43051e-07
1.17491e-05
1.42987e-07
1.17506e-05
1.43662e-07
1.17464e-05
1.43084e-07
1.17433e-05
1.38976e-07
1.17467e-05
1.29762e-07
1.17597e-05
1.15706e-07
1.17831e-05
9.96203e-08
1.18146e-05
8.47237e-08
1.1851e-05
7.35286e-08
1.18885e-05
6.64459e-08
6.3151e-08
1.19246e-05
8.31485e-06
5.96031e-07
8.33356e-06
3.91172e-07
8.34007e-06
2.87008e-07
8.36324e-06
1.91276e-07
8.4074e-06
1.23025e-07
8.45502e-06
1.0016e-07
8.49297e-06
1.0511e-07
8.52323e-06
1.12725e-07
8.5555e-06
1.11394e-07
8.59647e-06
1.02113e-07
8.64539e-06
9.00567e-08
8.69596e-06
7.91843e-08
8.74125e-06
7.04138e-08
8.77719e-06
6.36829e-08
8.80336e-06
5.85596e-08
8.8221e-06
5.4785e-08
8.8366e-06
5.19463e-08
4.9804e-08
8.84995e-06
7.35178e-06
5.04196e-07
7.46511e-06
2.77841e-07
7.52854e-06
2.2357e-07
7.5405e-06
1.79317e-07
7.52035e-06
1.43183e-07
7.48744e-06
1.33069e-07
7.4622e-06
1.30351e-07
7.4583e-06
1.16625e-07
7.47974e-06
8.99534e-08
7.52168e-06
6.01691e-08
7.57421e-06
3.75257e-08
7.62734e-06
2.60573e-08
7.67387e-06
2.38796e-08
7.71078e-06
2.67759e-08
7.73845e-06
3.0884e-08
7.75929e-06
3.39499e-08
7.77603e-06
3.52091e-08
3.49641e-08
7.79087e-06
6.53109e-06
4.41511e-07
6.50085e-06
3.08081e-07
6.46582e-06
2.58598e-07
6.45286e-06
1.92283e-07
6.46703e-06
1.29005e-07
6.50356e-06
9.65407e-08
6.55169e-06
8.22205e-08
6.60097e-06
6.73503e-08
6.64373e-06
4.71907e-08
6.67621e-06
2.76884e-08
6.69878e-06
1.49598e-08
6.71478e-06
1.00526e-08
6.72849e-06
1.01689e-08
6.74343e-06
1.18427e-08
6.7613e-06
1.30112e-08
6.78196e-06
1.32878e-08
6.80422e-06
1.29509e-08
1.31106e-08
6.82607e-06
5.60465e-06
3.24654e-07
5.61588e-06
2.96855e-07
5.63644e-06
2.38041e-07
5.66719e-06
1.61533e-07
5.69882e-06
9.73709e-08
5.73657e-06
5.87898e-08
5.78144e-06
3.73464e-08
5.826e-06
2.27908e-08
5.86097e-06
1.22261e-08
5.88192e-06
6.73514e-09
5.89059e-06
6.28966e-09
5.89186e-06
8.78704e-09
5.89074e-06
1.12911e-08
5.89047e-06
1.21086e-08
5.89242e-06
1.10628e-08
5.89668e-06
9.02953e-09
5.90284e-06
6.78983e-09
5.04669e-09
5.9109e-06
4.86812e-06
2.71011e-07
4.95317e-06
2.11797e-07
5.03395e-06
1.57261e-07
5.096e-06
9.94862e-08
5.12848e-06
6.48959e-08
5.14003e-06
4.72339e-08
5.14378e-06
3.36024e-08
5.14763e-06
1.89369e-08
5.15403e-06
5.82377e-09
5.16256e-06
-1.78775e-09
5.17287e-06
-4.02061e-09
5.18544e-06
-3.78345e-09
5.1998e-06
-3.07589e-09
5.21457e-06
-2.66223e-09
5.22821e-06
-2.57632e-09
5.23984e-06
-2.59771e-09
5.24942e-06
-2.79021e-09
-3.56683e-09
5.25803e-06
4.21927e-06
1.97307e-07
4.29285e-06
1.38227e-07
4.35405e-06
9.60514e-08
4.40207e-06
5.14677e-08
4.44591e-06
2.1054e-08
4.48287e-06
1.02742e-08
4.50824e-06
8.2384e-09
4.52183e-06
5.34522e-09
4.5273e-06
3.5731e-10
4.53078e-06
-5.27281e-09
4.53464e-06
-7.87584e-09
4.53896e-06
-8.10416e-09
4.54312e-06
-7.24316e-09
4.54676e-06
-6.30052e-09
4.55034e-06
-6.15391e-09
4.55488e-06
-7.1407e-09
4.56144e-06
-9.34793e-09
-1.26077e-08
4.57048e-06
3.74509e-06
2.18209e-07
3.82569e-06
5.76245e-08
3.87036e-06
5.13825e-08
3.88408e-06
3.77444e-08
3.90049e-06
4.64877e-09
3.9264e-06
-1.56356e-08
3.95456e-06
-1.99223e-08
3.97658e-06
-1.66756e-08
3.99079e-06
-1.38551e-08
3.99929e-06
-1.37677e-08
4.00651e-06
-1.51038e-08
4.01518e-06
-1.67712e-08
4.02624e-06
-1.82984e-08
4.03952e-06
-1.95806e-08
4.05414e-06
-2.07804e-08
4.06909e-06
-2.20861e-08
4.08336e-06
-2.36194e-08
-2.52539e-08
4.09601e-06
3.3568e-06
1.97061e-07
3.3608e-06
5.36173e-08
3.36115e-06
5.10387e-08
3.37488e-06
2.40146e-08
3.39443e-06
-1.4901e-08
3.41428e-06
-3.54834e-08
3.43193e-06
-3.75809e-08
3.44946e-06
-3.42036e-08
3.46793e-06
-3.23247e-08
3.48666e-06
-3.24954e-08
3.50483e-06
-3.32705e-08
3.52196e-06
-3.39011e-08
3.53787e-06
-3.42156e-08
3.55264e-06
-3.4342e-08
3.5663e-06
-3.4443e-08
3.5788e-06
-3.45908e-08
3.59004e-06
-3.48522e-08
-3.50353e-08
3.59982e-06
2.908e-06
1.59857e-07
2.9461e-06
1.55207e-08
2.97735e-06
1.97891e-08
3.00617e-06
-4.80461e-09
3.02107e-06
-2.98053e-08
3.028e-06
-4.24133e-08
3.03798e-06
-4.75562e-08
3.05567e-06
-5.18915e-08
3.0785e-06
-5.51554e-08
3.10123e-06
-5.52282e-08
3.11984e-06
-5.18843e-08
3.13273e-06
-4.67878e-08
3.14034e-06
-4.18268e-08
3.14436e-06
-3.83622e-08
3.14677e-06
-3.68516e-08
3.14915e-06
-3.69706e-08
3.15246e-06
-3.8158e-08
-3.93861e-08
3.15681e-06
2.52942e-06
2.11197e-09
2.57971e-06
-3.47703e-08
2.6162e-06
-1.67036e-08
2.6492e-06
-3.78023e-08
2.67127e-06
-5.18794e-08
2.68312e-06
-5.42594e-08
2.68955e-06
-5.39933e-08
2.6928e-06
-5.5136e-08
2.69321e-06
-5.55655e-08
2.69118e-06
-5.32023e-08
2.68789e-06
-4.85869e-08
2.6847e-06
-4.36019e-08
2.68246e-06
-3.95908e-08
2.68115e-06
-3.70533e-08
2.68012e-06
-3.58191e-08
2.6786e-06
-3.54491e-08
2.67603e-06
-3.55917e-08
-3.56315e-08
2.67228e-06
2.19422e-06
2.15945e-06
2.14275e-06
2.10495e-06
2.05307e-06
1.99881e-06
1.94482e-06
1.88968e-06
1.83411e-06
1.78091e-06
1.73233e-06
1.68872e-06
1.64913e-06
1.61208e-06
1.57626e-06
1.54081e-06
1.50522e-06
1.46959e-06
-4.9068e-08
4.9068e-08
-4.91216e-08
5.36401e-11
3.1567e-08
-8.06886e-08
1.57649e-07
-1.26082e-07
2.8697e-07
-1.29321e-07
3.87506e-07
-1.00537e-07
4.39711e-07
-5.22044e-08
4.3433e-07
5.38036e-09
3.75825e-07
5.8505e-08
2.72285e-07
1.0354e-07
1.39561e-07
1.32724e-07
-3.72086e-09
1.43282e-07
-1.40435e-07
1.36714e-07
-2.59949e-07
1.19514e-07
-3.62437e-07
1.02489e-07
-4.57828e-07
9.53911e-08
-5.5348e-07
9.56513e-08
-6.39462e-07
8.59818e-08
-7.07683e-07
6.82213e-08
-7.65844e-07
5.81607e-08
-8.21629e-07
5.57852e-08
-8.71956e-07
5.03271e-08
-9.14642e-07
4.26857e-08
-9.57228e-07
4.25862e-08
-1.01714e-06
5.99115e-08
-1.10488e-06
8.77416e-08
-1.22841e-06
1.23526e-07
-1.40306e-06
1.74649e-07
-1.63675e-06
2.33698e-07
-1.91401e-06
2.77252e-07
-2.18813e-06
2.74119e-07
-2.40182e-06
2.13697e-07
-2.53658e-06
1.34755e-07
-2.62713e-06
9.05481e-08
-2.71736e-06
9.02369e-08
-2.81977e-06
1.02408e-07
-2.9185e-06
9.87292e-08
-2.99442e-06
7.59229e-08
-3.04255e-06
4.81273e-08
-3.06741e-06
2.48591e-08
-3.06992e-06
2.50975e-09
-3.04378e-06
-2.61392e-08
-2.98318e-06
-6.05959e-08
-2.8866e-06
-9.65793e-08
-2.75719e-06
-1.29417e-07
-2.5985e-06
-1.58684e-07
-2.41167e-06
-1.86833e-07
-2.19719e-06
-2.14482e-07
-1.95684e-06
-2.40347e-07
-1.69245e-06
-2.64389e-07
-1.40507e-06
-2.87379e-07
-1.0972e-06
-3.07878e-07
-7.73383e-07
-3.23813e-07
-4.34425e-07
-3.38957e-07
-5.89189e-08
-3.75506e-07
4.09713e-07
-4.68632e-07
9.29613e-07
-5.199e-07
1.39428e-06
-4.64668e-07
1.76515e-06
-3.70866e-07
2.02628e-06
-2.6113e-07
2.15752e-06
-1.31247e-07
2.11684e-06
4.06881e-08
1.87854e-06
2.383e-07
1.52315e-06
3.55383e-07
1.1947e-06
3.28457e-07
9.41983e-07
2.52714e-07
7.07721e-07
2.34262e-07
4.68339e-07
2.39382e-07
2.57831e-07
2.10508e-07
7.50907e-08
1.8274e-07
-9.61762e-08
1.71267e-07
-2.35898e-07
1.39722e-07
-3.03297e-07
6.73994e-08
-2.19647e-07
-8.365e-08
7.47974e-08
-2.94445e-07
4.35751e-07
-3.60953e-07
6.82499e-07
-2.46748e-07
8.10345e-07
-1.27846e-07
9.38555e-07
-1.2821e-07
1.08159e-06
-1.43039e-07
1.11512e-06
-3.35267e-08
9.52399e-07
1.62722e-07
5.64022e-07
3.88377e-07
2.71144e-08
5.36907e-07
-5.5853e-07
5.85644e-07
-1.14519e-06
5.86659e-07
-1.70554e-06
5.60351e-07
-2.22766e-06
5.22123e-07
-2.70706e-06
4.79396e-07
-3.14239e-06
4.35329e-07
-3.53347e-06
3.91082e-07
-3.88032e-06
3.46846e-07
-4.18279e-06
3.02477e-07
-4.44066e-06
2.57866e-07
-4.65354e-06
2.12887e-07
-4.82108e-06
1.67531e-07
-4.94328e-06
1.22207e-07
-5.02112e-06
7.78408e-08
-5.05653e-06
3.54093e-08
-5.0522e-06
-4.33656e-09
-5.01341e-06
-3.87913e-08
-4.94407e-06
-6.93382e-08
-4.84818e-06
-9.5884e-08
-4.72998e-06
-1.18204e-07
-4.59335e-06
-1.36634e-07
-4.44148e-06
-1.51865e-07
-4.27684e-06
-1.64638e-07
-4.10092e-06
-1.7592e-07
-3.91424e-06
-1.86678e-07
-3.71645e-06
-1.97798e-07
-3.5065e-06
-2.09947e-07
-3.28307e-06
-2.23432e-07
-3.04498e-06
-2.38091e-07
-2.79174e-06
-2.53236e-07
-2.52406e-06
-2.67681e-07
-2.2441e-06
-2.79959e-07
-1.95541e-06
-2.88689e-07
-1.66255e-06
-2.92863e-07
-1.37051e-06
-2.92033e-07
-1.08403e-06
-2.86488e-07
-8.07112e-07
-2.76913e-07
-5.42611e-07
-2.64501e-07
-2.92755e-07
-2.49856e-07
-5.84624e-08
-2.34292e-07
1.61214e-07
-2.19677e-07
3.65481e-07
-2.04266e-07
5.54659e-07
-1.89179e-07
7.28923e-07
-1.74264e-07
8.88443e-07
-1.5952e-07
1.0333e-06
-1.44853e-07
1.1635e-06
-1.30205e-07
1.27914e-06
-1.15638e-07
1.38051e-06
-1.01368e-07
1.46825e-06
-8.77475e-08
1.54334e-06
-7.509e-08
1.60684e-06
-6.34999e-08
1.65993e-06
-5.30856e-08
1.70358e-06
-4.36529e-08
1.73761e-06
-3.40225e-08
1.76117e-06
-2.35636e-08
1.77308e-06
-1.1908e-08
1.77038e-06
2.6951e-09
1.75002e-06
2.03575e-08
1.71159e-06
3.84385e-08
1.65644e-06
5.51496e-08
1.58621e-06
7.02233e-08
1.50216e-06
8.40563e-08
1.40563e-06
9.65276e-08
1.29973e-06
1.05901e-07
1.19052e-06
1.09212e-07
1.08604e-06
1.04479e-07
9.93928e-07
9.2108e-08
9.18856e-07
7.50726e-08
8.61583e-07
5.72723e-08
8.19998e-07
4.15855e-08
7.90695e-07
2.93032e-08
7.70257e-07
2.04379e-08
7.55929e-07
1.43281e-08
7.45786e-07
1.01422e-08
7.38485e-07
7.30192e-09
7.33178e-07
5.30641e-09
7.29264e-07
3.91387e-09
7.26251e-07
3.01363e-09
7.23738e-07
2.5123e-09
7.21363e-07
2.37538e-09
7.18863e-07
2.50038e-09
7.15953e-07
2.90988e-09
7.12485e-07
3.46775e-09
7.08126e-07
4.35904e-09
7.02843e-07
5.28261e-09
6.95986e-07
6.85697e-09
6.87773e-07
8.2128e-09
6.76616e-07
1.11579e-08
6.63693e-07
1.29224e-08
6.44707e-07
1.89863e-08
6.24452e-07
2.02544e-08
5.90323e-07
3.41296e-08
5.60449e-07
2.98736e-08
4.94819e-07
6.56301e-08
4.08892e-08
4.5393e-07
-3.98455e-08
8.89135e-08
6.06269e-08
-1.00419e-07
2.48642e-07
-2.68703e-07
4.56426e-07
-3.33866e-07
6.44366e-07
-3.17261e-07
7.92749e-07
-2.4892e-07
8.92568e-07
-1.52023e-07
9.39873e-07
-4.19245e-08
9.29708e-07
6.86692e-08
8.62297e-07
1.70952e-07
7.38911e-07
2.5611e-07
5.682e-07
3.13993e-07
3.68382e-07
3.36532e-07
1.62299e-07
3.25596e-07
-3.07642e-08
2.95552e-07
-1.99826e-07
2.64453e-07
-3.3349e-07
2.29315e-07
-4.27175e-07
1.79667e-07
-5.00019e-07
1.41065e-07
-5.63687e-07
1.21829e-07
-6.059e-07
9.79981e-08
-6.3535e-07
7.97773e-08
-6.95656e-07
1.02992e-07
-8.14538e-07
1.61468e-07
-9.8952e-07
2.34894e-07
-1.20957e-06
3.07787e-07
-1.45266e-06
3.6662e-07
-1.69562e-06
4.17606e-07
-1.9188e-06
4.56879e-07
-2.11037e-06
4.68822e-07
-2.28141e-06
4.4516e-07
-2.46333e-06
3.95621e-07
-2.67244e-06
3.43859e-07
-2.88506e-06
3.03174e-07
-3.06121e-06
2.66386e-07
-3.18377e-06
2.24971e-07
-3.2643e-06
1.79256e-07
-3.31912e-06
1.30743e-07
-3.35034e-06
7.93459e-08
-3.35154e-06
2.60642e-08
-3.31888e-06
-3.01505e-08
-3.25644e-06
-8.85849e-08
-3.16952e-06
-1.47511e-07
-3.06004e-06
-2.06063e-07
-2.92649e-06
-2.62969e-07
-2.76741e-06
-3.17761e-07
-2.58325e-06
-3.70992e-07
-2.37457e-06
-4.23166e-07
-2.14073e-06
-4.74181e-07
-1.88101e-06
-5.24114e-07
-1.595e-06
-5.73388e-07
-1.28101e-06
-6.21872e-07
-9.35356e-07
-6.69463e-07
-5.51649e-07
-7.22665e-07
-1.20073e-07
-8.07082e-07
3.82254e-07
-9.70959e-07
9.11029e-07
-1.04867e-06
1.36885e-06
-9.22486e-07
1.7479e-06
-7.49918e-07
2.05186e-06
-5.65094e-07
2.27745e-06
-3.56838e-07
2.42047e-06
-1.02332e-07
2.439e-06
2.19775e-07
2.28346e-06
5.10923e-07
1.95628e-06
6.55631e-07
1.51747e-06
6.91523e-07
1.04967e-06
7.02071e-07
6.32896e-07
6.56152e-07
3.06288e-07
5.37116e-07
8.03785e-08
4.0865e-07
-2.54832e-08
2.77129e-07
-6.54705e-08
1.79709e-07
-6.81812e-08
7.01101e-08
7.10038e-08
-2.22835e-07
4.24288e-07
-6.47729e-07
8.84583e-07
-8.21249e-07
1.27265e-06
-6.34816e-07
1.4957e-06
-3.50891e-07
1.43084e-06
-6.33562e-08
1.00944e-06
2.78364e-07
3.55619e-07
6.20294e-07
-3.54325e-07
8.72666e-07
-9.98639e-07
1.03269e-06
-1.5614e-06
1.09967e-06
-2.06822e-06
1.09246e-06
-2.52428e-06
1.04272e-06
-2.9361e-06
9.72176e-07
-3.3079e-06
8.93916e-07
-3.64301e-06
8.14509e-07
-3.94405e-06
7.3637e-07
-4.21256e-06
6.59591e-07
-4.44907e-06
5.8335e-07
-4.65347e-06
5.06877e-07
-4.82538e-06
4.29776e-07
-4.96397e-06
3.51485e-07
-5.06855e-06
2.72109e-07
-5.13881e-06
1.92467e-07
-5.17481e-06
1.13833e-07
-5.17707e-06
3.76749e-08
-5.14716e-06
-3.42507e-08
-5.08582e-06
-1.00125e-07
-4.99588e-06
-1.59278e-07
-4.88118e-06
-2.10589e-07
-4.74558e-06
-2.53807e-07
-4.59279e-06
-2.8942e-07
-4.42605e-06
-3.18604e-07
-4.24768e-06
-3.43012e-07
-4.05904e-06
-3.64557e-07
-3.86051e-06
-3.8521e-07
-3.65154e-06
-4.06761e-07
-3.43093e-06
-4.30559e-07
-3.19713e-06
-4.57231e-07
-2.94879e-06
-4.86438e-07
-2.68529e-06
-5.16736e-07
-2.40733e-06
-5.45642e-07
-2.11721e-06
-5.70076e-07
-1.81876e-06
-5.87133e-07
-1.51685e-06
-5.94773e-07
-1.21672e-06
-5.92166e-07
-9.23151e-07
-5.80058e-07
-6.40046e-07
-5.60018e-07
-3.70171e-07
-5.34376e-07
-1.15582e-07
-5.04446e-07
1.24504e-07
-4.74379e-07
3.49271e-07
-4.44443e-07
5.58876e-07
-4.13872e-07
7.53737e-07
-3.8404e-07
9.3425e-07
-3.54776e-07
1.10063e-06
-3.25898e-07
1.25294e-06
-2.97166e-07
1.39117e-06
-2.68437e-07
1.51535e-06
-2.39817e-07
1.62574e-06
-2.11758e-07
1.72299e-06
-1.84993e-07
1.80817e-06
-1.60276e-07
1.88289e-06
-1.38213e-07
1.94891e-06
-1.19106e-07
2.00778e-06
-1.02521e-07
2.0611e-06
-8.73486e-08
2.10966e-06
-7.21208e-08
2.15274e-06
-5.49866e-08
2.18962e-06
-3.41836e-08
2.21884e-06
-8.86756e-09
2.23694e-06
2.03384e-08
2.24124e-06
5.08465e-08
2.23096e-06
8.05085e-08
2.20753e-06
1.07484e-07
2.17377e-06
1.30288e-07
2.13252e-06
1.47152e-07
2.08636e-06
1.55376e-07
2.03736e-06
1.53474e-07
1.98809e-06
1.4138e-07
1.94116e-06
1.21999e-07
1.89852e-06
9.992e-08
1.86097e-06
7.91358e-08
1.8283e-06
6.19715e-08
1.79973e-06
4.90045e-08
1.77443e-06
3.96278e-08
1.7518e-06
3.27787e-08
1.73161e-06
2.74838e-08
1.71382e-06
2.30955e-08
1.69838e-06
1.93585e-08
1.68512e-06
1.62772e-08
1.67374e-06
1.38892e-08
1.66385e-06
1.22629e-08
1.65508e-06
1.12709e-08
1.64706e-06
1.09337e-08
1.63954e-06
1.09857e-08
1.63219e-06
1.17042e-08
1.62499e-06
1.2491e-08
1.61737e-06
1.44709e-08
1.60961e-06
1.59773e-08
1.60038e-06
2.03884e-08
1.59067e-06
2.26281e-08
1.57734e-06
3.23156e-08
1.56323e-06
3.43691e-08
1.54162e-06
5.57376e-08
1.51828e-06
5.32117e-08
1.48312e-06
1.00787e-07
8.47964e-08
1.43922e-06
7.4679e-08
1.42344e-08
3.3856e-07
-3.643e-07
6.08673e-07
-5.38817e-07
8.32361e-07
-5.57554e-07
1.00268e-06
-4.87578e-07
1.12568e-06
-3.71922e-07
1.20811e-06
-2.34453e-07
1.25467e-06
-8.84857e-08
1.26282e-06
6.05172e-08
1.22801e-06
2.05763e-07
1.15117e-06
3.32955e-07
1.03053e-06
4.34628e-07
8.65252e-07
5.01811e-07
6.64132e-07
5.26717e-07
4.49873e-07
5.09811e-07
2.52047e-07
4.62279e-07
9.09066e-08
3.90455e-07
-3.96549e-08
3.10228e-07
-1.56629e-07
2.5804e-07
-2.51948e-07
2.17148e-07
-3.26918e-07
1.72968e-07
-4.43813e-07
1.96672e-07
-6.45401e-07
3.0458e-07
-9.1646e-07
4.32526e-07
-1.22328e-06
5.41709e-07
-1.54338e-06
6.27896e-07
-1.86005e-06
6.83282e-07
-2.1528e-06
7.10363e-07
-2.40907e-06
7.13147e-07
-2.63564e-06
6.95394e-07
-2.85209e-06
6.61611e-07
-3.07163e-06
6.1516e-07
-3.28446e-06
5.5669e-07
-3.46513e-06
4.83843e-07
-3.59746e-06
3.98712e-07
-3.68392e-06
3.11431e-07
-3.73317e-06
2.28504e-07
-3.74981e-06
1.47389e-07
-3.73563e-06
6.51661e-08
-3.6929e-06
-1.66636e-08
-3.62846e-06
-9.45904e-08
-3.54355e-06
-1.73497e-07
-3.43796e-06
-2.53102e-07
-3.31121e-06
-3.32817e-07
-3.16213e-06
-4.12048e-07
-2.98938e-06
-4.90508e-07
-2.79233e-06
-5.68044e-07
-2.57117e-06
-6.44329e-07
-2.32624e-06
-7.19111e-07
-2.05731e-06
-7.93038e-07
-1.76259e-06
-8.68104e-07
-1.43678e-06
-9.47685e-07
-1.0696e-06
-1.03664e-06
-6.53259e-07
-1.13901e-06
-1.98892e-07
-1.26145e-06
2.48543e-07
-1.41839e-06
6.77173e-07
-1.47731e-06
1.04059e-06
-1.2859e-06
1.36378e-06
-1.07311e-06
1.68377e-06
-8.85077e-07
1.97999e-06
-6.53061e-07
2.25324e-06
-3.75586e-07
2.49376e-06
-2.07457e-08
2.57582e-06
4.28869e-07
2.41847e-06
8.12975e-07
2.08413e-06
1.02586e-06
1.69049e-06
1.09572e-06
1.28072e-06
1.06592e-06
8.26894e-07
9.90945e-07
3.75247e-07
8.60297e-07
4.92125e-08
6.03163e-07
-5.82554e-08
2.87177e-07
5.28738e-08
-4.1019e-08
3.1106e-07
-4.81022e-07
6.88679e-07
-1.02535e-06
1.08592e-06
-1.21849e-06
1.29042e-06
-8.39322e-07
1.11942e-06
-1.79883e-07
5.67444e-07
4.88615e-07
-1.42392e-07
9.882e-07
-7.8625e-07
1.26415e-06
-1.32609e-06
1.41251e-06
-1.76692e-06
1.47351e-06
-2.13118e-06
1.46394e-06
-2.44812e-06
1.4094e-06
-2.7382e-06
1.3328e-06
-3.01412e-06
1.2481e-06
-3.28163e-06
1.16143e-06
-3.54119e-06
1.07407e-06
-3.7903e-06
9.85484e-07
-4.02508e-06
8.94369e-07
-4.24113e-06
7.99401e-07
-4.43395e-06
6.99693e-07
-4.59913e-06
5.94963e-07
-4.73311e-06
4.85466e-07
-4.83314e-06
3.72131e-07
-4.89732e-06
2.56652e-07
-4.9248e-06
1.41317e-07
-4.91536e-06
2.82342e-08
-4.87195e-06
-7.76644e-08
-4.79659e-06
-1.75487e-07
-4.69308e-06
-2.62788e-07
-4.5658e-06
-3.37863e-07
-4.41916e-06
-4.00446e-07
-4.25718e-06
-4.51399e-07
-4.0832e-06
-4.9259e-07
-3.89956e-06
-5.26651e-07
-3.70752e-06
-5.56599e-07
-3.5072e-06
-5.85523e-07
-3.29773e-06
-6.16237e-07
-3.07741e-06
-6.50882e-07
-2.84414e-06
-6.90497e-07
-2.59602e-06
-7.34554e-07
-2.33205e-06
-7.80715e-07
-2.05279e-06
-8.24893e-07
-1.76093e-06
-8.61937e-07
-1.46102e-06
-8.87046e-07
-1.15887e-06
-8.96924e-07
-8.60578e-07
-8.90457e-07
-5.71465e-07
-8.69171e-07
-2.95625e-07
-8.35858e-07
-3.58374e-08
-7.94164e-07
2.08742e-07
-7.49025e-07
4.36269e-07
-7.01905e-07
6.46873e-07
-6.55048e-07
8.4181e-07
-6.08808e-07
1.02173e-06
-5.63957e-07
1.1873e-06
-5.20348e-07
1.33895e-06
-4.7755e-07
1.4769e-06
-4.35116e-07
1.60124e-06
-3.92771e-07
1.71205e-06
-3.50631e-07
1.80962e-06
-3.09329e-07
1.89459e-06
-2.69959e-07
1.96809e-06
-2.33778e-07
2.03165e-06
-2.01774e-07
2.08678e-06
-1.74234e-07
2.13458e-06
-1.50322e-07
2.17561e-06
-1.28383e-07
2.21049e-06
-1.07002e-07
2.24083e-06
-8.53258e-08
2.26886e-06
-6.22111e-08
2.2957e-06
-3.57086e-08
2.32024e-06
-4.20123e-09
2.33956e-06
3.15235e-08
2.34998e-06
7.009e-08
2.34963e-06
1.07838e-07
2.33917e-06
1.40745e-07
2.32129e-06
1.65034e-07
2.29872e-06
1.77947e-07
2.27352e-06
1.7867e-07
2.24698e-06
1.67921e-07
2.2201e-06
1.48878e-07
2.19399e-06
1.26033e-07
2.16967e-06
1.03452e-07
2.14779e-06
8.38571e-08
2.12844e-06
6.83479e-08
2.11133e-06
5.67437e-08
2.0959e-06
4.82077e-08
2.08157e-06
4.18104e-08
2.06783e-06
3.68353e-08
2.05435e-06
3.28376e-08
2.04102e-06
2.96078e-08
2.02792e-06
2.69876e-08
2.01525e-06
2.49372e-08
2.00324e-06
2.32853e-08
1.99203e-06
2.21364e-08
1.98178e-06
2.12436e-08
1.97241e-06
2.10701e-08
1.96394e-06
2.09615e-08
1.95612e-06
2.2287e-08
1.94889e-06
2.32088e-08
1.94187e-06
2.74127e-08
1.93482e-06
2.96765e-08
1.92755e-06
3.95894e-08
1.91897e-06
4.29472e-08
1.91049e-06
6.42115e-08
1.8971e-06
6.6603e-08
1.88804e-06
1.09846e-07
1.10461e-07
1.86238e-06
3.01062e-07
-2.86827e-07
6.30067e-07
-6.93305e-07
8.58564e-07
-7.67314e-07
1.00365e-06
-7.02637e-07
1.0982e-06
-5.82133e-07
1.16358e-06
-4.37297e-07
1.20893e-06
-2.79806e-07
1.23336e-06
-1.1292e-07
1.23713e-06
5.67515e-08
1.2182e-06
2.24697e-07
1.17196e-06
3.79187e-07
1.09549e-06
5.11105e-07
9.85472e-07
6.11827e-07
8.42768e-07
6.6942e-07
6.76585e-07
6.75994e-07
5.00887e-07
6.37977e-07
3.22613e-07
5.68729e-07
1.45216e-07
4.87625e-07
-2.53525e-09
4.0579e-07
-1.3127e-07
3.45883e-07
-3.21361e-07
3.63059e-07
-6.11725e-07
4.87037e-07
-9.58505e-07
6.5136e-07
-1.32141e-06
7.95428e-07
-1.68833e-06
9.08635e-07
-2.04519e-06
9.84754e-07
-2.38005e-06
1.01814e-06
-2.68258e-06
1.0129e-06
-2.94841e-06
9.78975e-07
-3.17949e-06
9.2648e-07
-3.37778e-06
8.59899e-07
-3.54148e-06
7.78856e-07
-3.66902e-06
6.84227e-07
-3.76446e-06
5.7929e-07
-3.8347e-06
4.6895e-07
-3.88148e-06
3.58208e-07
-3.90251e-06
2.49534e-07
-3.8982e-06
1.43076e-07
-3.87256e-06
3.95343e-08
-3.82453e-06
-6.46944e-08
-3.75101e-06
-1.68115e-07
-3.6548e-06
-2.697e-07
-3.53722e-06
-3.70688e-07
-3.39834e-06
-4.71696e-07
-3.23758e-06
-5.72804e-07
-3.05431e-06
-6.73786e-07
-2.84835e-06
-7.74001e-07
-2.62033e-06
-8.72348e-07
-2.37169e-06
-9.67749e-07
-2.10495e-06
-1.05978e-06
-1.82297e-06
-1.15009e-06
-1.52628e-06
-1.24438e-06
-1.21235e-06
-1.35057e-06
-8.78122e-07
-1.47323e-06
-5.33576e-07
-1.606e-06
-2.30646e-07
-1.72132e-06
5.12029e-08
-1.75915e-06
3.3017e-07
-1.56487e-06
6.07326e-07
-1.35027e-06
9.56649e-07
-1.2344e-06
1.33542e-06
-1.03184e-06
1.71163e-06
-7.51796e-07
2.0786e-06
-3.87708e-07
2.41541e-06
9.20532e-08
2.61201e-06
6.1638e-07
2.58638e-06
1.05149e-06
2.36391e-06
1.31819e-06
2.02976e-06
1.40006e-06
1.66011e-06
1.36059e-06
1.29493e-06
1.22548e-06
9.50514e-07
9.47575e-07
7.1456e-07
5.23131e-07
6.45291e-07
2.82497e-08
7.11059e-07
-5.4679e-07
8.29571e-07
-1.14386e-06
8.68263e-07
-1.25718e-06
6.46745e-07
-6.17805e-07
1.40065e-07
3.26798e-07
-4.20972e-07
1.04965e-06
-9.03323e-07
1.47055e-06
-1.30943e-06
1.67026e-06
-1.64096e-06
1.74403e-06
-1.91198e-06
1.74454e-06
-2.15067e-06
1.70263e-06
-2.3814e-06
1.64012e-06
-2.61728e-06
1.56868e-06
-2.8613e-06
1.49212e-06
-3.11042e-06
1.41054e-06
-3.35861e-06
1.32226e-06
-3.59909e-06
1.22596e-06
-3.82542e-06
1.1207e-06
-4.03191e-06
1.00589e-06
-4.21366e-06
8.81444e-07
-4.36643e-06
7.47729e-07
-4.48674e-06
6.05771e-07
-4.57198e-06
4.57372e-07
-4.6204e-06
3.05076e-07
-4.63125e-06
1.52163e-07
-4.60474e-06
1.72512e-09
-4.54372e-06
-1.38681e-07
-4.45067e-06
-2.68537e-07
-4.33002e-06
-3.83435e-07
-4.18673e-06
-4.81158e-07
-4.02588e-06
-5.613e-07
-3.85206e-06
-6.25213e-07
-3.66895e-06
-6.75704e-07
-3.47899e-06
-7.16608e-07
-3.2833e-06
-7.52288e-07
-3.08165e-06
-7.8717e-07
-2.87259e-06
-8.25298e-07
-2.65362e-06
-8.69857e-07
-2.42158e-06
-9.2253e-07
-2.17343e-06
-9.8271e-07
-1.9071e-06
-1.04705e-06
-1.62265e-06
-1.10934e-06
-1.32309e-06
-1.1615e-06
-1.014e-06
-1.19614e-06
-7.0286e-07
-1.20806e-06
-3.97194e-07
-1.19612e-06
-1.03695e-07
-1.16267e-06
1.73908e-07
-1.11346e-06
4.33257e-07
-1.05351e-06
6.72596e-07
-9.88365e-07
8.92041e-07
-9.2135e-07
1.09218e-06
-8.55191e-07
1.2743e-06
-7.90928e-07
1.43928e-06
-7.2893e-07
1.58782e-06
-6.68887e-07
1.72039e-06
-6.1012e-07
1.83726e-06
-5.51994e-07
1.93872e-06
-4.94224e-07
2.02524e-06