/*--------------------------------*- C++ -*----------------------------------*\
  =========                 |
  \\      /  F ield         | OpenFOAM: The Open Source CFD Toolbox
   \\    /   O peration     | Website:  https://openfoam.org
    \\  /    A nd           | Version:  7
     \\/     M anipulation  |
\*---------------------------------------------------------------------------*/
FoamFile
{
    version     2.0;
    format      ascii;
    class       volScalarField;
    location    "0.094";
    object      pMean;
}
// * * * * * * * * * * * * * * * * * * * * * * * * * * * * * * * * * * * * * //

dimensions      [0 2 -2 0 0 0 0];

internalField   nonuniform List<scalar> 
12225
(
-2.49378
-1.32853
-0.892631
-0.778874
-0.719567
-0.675664
-0.649342
-0.64374
-0.655321
-0.676892
-0.701285
-0.723576
-0.741115
-0.755537
-0.769157
-0.797103
-0.845836
-1.00821
-2.16664
-1.31733
-0.896569
-0.77532
-0.720561
-0.679381
-0.653121
-0.646378
-0.656668
-0.676999
-0.700531
-0.721775
-0.739388
-0.752087
-0.767886
-0.785921
-0.836504
-0.887812
-1.99643
-1.3369
-0.920522
-0.777773
-0.723317
-0.684127
-0.656677
-0.647149
-0.654211
-0.671602
-0.692543
-0.712641
-0.729385
-0.744146
-0.75841
-0.780267
-0.811783
-0.863318
-1.79861
-1.3015
-0.920198
-0.767022
-0.7146
-0.680625
-0.655
-0.644198
-0.649048
-0.664219
-0.683719
-0.702866
-0.720291
-0.735479
-0.752178
-0.772257
-0.802177
-0.842505
-1.62995
-1.26519
-0.925868
-0.764786
-0.709009
-0.678264
-0.654528
-0.642637
-0.645024
-0.65795
-0.675691
-0.694128
-0.711323
-0.727727
-0.744891
-0.765707
-0.792472
-0.825555
-1.47251
-1.21163
-0.919033
-0.757029
-0.696673
-0.668863
-0.648556
-0.637081
-0.637939
-0.649044
-0.665588
-0.68355
-0.701094
-0.718299
-0.736392
-0.757434
-0.782463
-0.812408
-1.32968
-1.14785
-0.90356
-0.747848
-0.683152
-0.657107
-0.640473
-0.630441
-0.6304
-0.639937
-0.655289
-0.672848
-0.690674
-0.708674
-0.727628
-0.748942
-0.77336
-0.801567
-1.19822
-1.07535
-0.877534
-0.733939
-0.666818
-0.64138
-0.628132
-0.620294
-0.620224
-0.628741
-0.64333
-0.660758
-0.679005
-0.697786
-0.717591
-0.739494
-0.76401
-0.791823
-1.07909
-0.998539
-0.841961
-0.714326
-0.647763
-0.622371
-0.611992
-0.606973
-0.607885
-0.616012
-0.63004
-0.647457
-0.666306
-0.686011
-0.706805
-0.729498
-0.754535
-0.782608
-0.965903
-0.918058
-0.796942
-0.687638
-0.624978
-0.599989
-0.59192
-0.589817
-0.592408
-0.60094
-0.614943
-0.632552
-0.652028
-0.67267
-0.69452
-0.718176
-0.744034
-0.772729
-0.856767
-0.834835
-0.743581
-0.653407
-0.597501
-0.574003
-0.567999
-0.568874
-0.573815
-0.58345
-0.597891
-0.616017
-0.636333
-0.658055
-0.681046
-0.705756
-0.732502
-0.761873
-0.767042
-0.757855
-0.688051
-0.615018
-0.567234
-0.546485
-0.542492
-0.545983
-0.553403
-0.564675
-0.580054
-0.598874
-0.620025
-0.642775
-0.666854
-0.692557
-0.720117
-0.750047
-0.679471
-0.680579
-0.628465
-0.571135
-0.532289
-0.515443
-0.513862
-0.520009
-0.530032
-0.543339
-0.560095
-0.580002
-0.602217
-0.626077
-0.651252
-0.677936
-0.706247
-0.736615
-0.5691
-0.587221
-0.554154
-0.513124
-0.48516
-0.474341
-0.476453
-0.485928
-0.499282
-0.515406
-0.534242
-0.555676
-0.579219
-0.604391
-0.630841
-0.658617
-0.68772
-0.718454
-0.455547
-0.483015
-0.464145
-0.438533
-0.422991
-0.420389
-0.427848
-0.441541
-0.458753
-0.47838
-0.500169
-0.523995
-0.54951
-0.57636
-0.60423
-0.633125
-0.662976
-0.694023
-0.326367
-0.358738
-0.352502
-0.342246
-0.340608
-0.348486
-0.363417
-0.382936
-0.405257
-0.429426
-0.455057
-0.481998
-0.510046
-0.538998
-0.568599
-0.598789
-0.62942
-0.66055
-0.180407
-0.213022
-0.215494
-0.219793
-0.233222
-0.253857
-0.278732
-0.306103
-0.335059
-0.365099
-0.395888
-0.427196
-0.458814
-0.490592
-0.522368
-0.554115
-0.58574
-0.617349
0.0154893
-0.0296834
-0.0473955
-0.0677006
-0.0972373
-0.132715
-0.170236
-0.207947
-0.245323
-0.282333
-0.31896
-0.35513
-0.39071
-0.425654
-0.45989
-0.493431
-0.526128
-0.557985
0.280424
0.21544
0.175712
0.133449
0.0827884
0.0276467
-0.0274504
-0.0804461
-0.131023
-0.17947
-0.225947
-0.270401
-0.312706
-0.352871
-0.390994
-0.42733
-0.462012
-0.495288
0.52675
0.456323
0.399446
0.33294
0.257687
0.182035
0.111624
0.0473701
-0.0120873
-0.0681469
-0.121458
-0.172112
-0.219999
-0.265128
-0.307573
-0.347507
-0.385019
-0.420316
0.760242
0.681451
0.601586
0.504793
0.400645
0.301206
0.21173
0.131574
0.058561
-0.00872178
-0.0706536
-0.127337
-0.179118
-0.226644
-0.270544
-0.311404
-0.349507
-0.385174
1.00934
0.905389
0.789581
0.658085
0.529611
0.416794
0.320051
0.233776
0.153548
0.078218
0.00843873
-0.0552406
-0.113046
-0.165704
-0.213953
-0.258452
-0.29961
-0.337811
1.28596
1.13425
0.958934
0.775784
0.612129
0.477431
0.365959
0.268497
0.180069
0.0997041
0.0275611
-0.0368161
-0.0945434
-0.14695
-0.194985
-0.239214
-0.279865
-0.3173
1.56927
1.36734
1.12859
0.903933
0.724306
0.584761
0.466282
0.356473
0.253969
0.161696
0.0810389
0.0106816
-0.0517196
-0.10805
-0.159353
-0.206269
-0.249224
-0.288739
1.84904
1.55955
1.2183
0.937422
0.741796
0.600343
0.478698
0.365116
0.26108
0.16957
0.0903322
0.0209114
-0.0411398
-0.0973849
-0.148561
-0.195149
-0.237504
-0.276156
2.22066
1.80561
1.36107
1.04114
0.839039
0.687983
0.547838
0.415879
0.299815
0.202027
0.119203
0.0469242
-0.0176962
-0.0760293
-0.128753
-0.176495
-0.219848
-0.259486
2.54196
1.89659
1.34514
1.02716
0.847015
0.699175
0.554604
0.420093
0.304521
0.207944
0.125696
0.0534162
-0.0113393
-0.0697016
-0.122328
-0.169867
-0.212918
-0.252126
3.0511
2.11897
1.42293
1.08984
0.907018
0.741638
0.581619
0.439971
0.321795
0.223554
0.139629
0.0658977
9.3101e-05
-0.058951
-0.112021
-0.159823
-0.203085
-0.242485
3.28075
2.08346
1.38685
1.09993
0.919914
0.747239
0.58373
0.442338
0.32506
0.227172
0.143212
0.0694055
0.00359649
-0.0553628
-0.108333
-0.155926
-0.198947
-0.23785
4.09364
2.12811
1.38702
1.13368
0.941588
0.757992
0.591305
0.449376
0.331612
0.233097
0.148597
0.0744116
0.00835269
-0.0507701
-0.103852
-0.151488
-0.194481
-0.233143
-1.16598
-1.18273
-1.20678
-1.22661
-1.23678
-1.23865
-1.2371
-1.23878
-1.25099
-1.27988
-1.32931
-1.39996
-1.48925
-1.59257
-1.70359
-1.81523
-1.92037
-2.01243
-2.08612
-2.138
-2.16652
-2.17205
-2.15703
-2.12562
-2.08301
-2.03436
-1.98417
-1.93612
-1.89143
-1.85133
-1.8161
-1.78769
-1.76779
-1.75494
-1.74921
-1.75291
-1.76829
-1.79576
-1.83362
-1.88162
-1.93765
-1.99996
-2.0651
-2.12877
-2.18781
-2.24392
-2.29923
-2.35196
-2.39689
-2.42928
-2.44822
-2.45352
-2.44576
-2.42648
-2.39787
-2.3626
-2.32448
-2.28392
-2.23789
-2.18326
-2.11894
-2.04724
-1.97303
-1.90071
-1.83343
-1.77403
-1.72545
-1.68828
-1.66016
-1.63735
-1.61527
-1.58965
-1.55714
-1.5154
-1.46502
-1.41132
-1.35773
-1.30835
-1.26806
-1.23561
-1.2015
-1.15508
-1.09007
-1.00392
-0.89543
-0.76384
-0.609154
-0.432217
-0.234522
-0.0181001
0.214521
0.460633
0.717492
0.982438
1.25295
1.52666
1.80135
2.07495
2.34554
2.61129
2.87041
3.12114
3.36173
3.59059
3.80638
4.00806
4.19497
4.36689
4.52396
4.6666
4.79543
4.91116
5.01449
5.10607
5.18639
5.25585
5.31475
5.36343
5.40221
5.43153
5.45187
5.46383
5.46807
5.46535
5.45639
5.44205
5.42309
5.4003
5.37447
5.34636
5.31669
5.28614
5.25533
5.2248
5.19502
5.16635
5.13907
5.11335
5.08928
5.06688
5.0461
5.02684
5.00898
4.99238
4.97694
4.96253
4.94906
4.93646
4.92469
4.91378
4.90379
4.89477
4.88667
4.87939
4.87275
4.86658
4.86074
4.85512
4.84965
4.84427
4.83897
4.83374
4.82858
4.82351
4.81856
4.81379
4.80925
4.80506
4.80129
4.79817
4.79579
4.79459
4.79465
4.79685
4.80124
4.80955
4.82197
4.84167
4.87182
4.9075
-1.24142
-1.25861
-1.28704
-1.31076
-1.32455
-1.32871
-1.33059
-1.33572
-1.35257
-1.38679
-1.44151
-1.51681
-1.61012
-1.71672
-1.83042
-1.94433
-2.05145
-2.14511
-2.22006
-2.27235
-2.2996
-2.30181
-2.28176
-2.24418
-2.19465
-2.13931
-2.08363
-2.03189
-1.98685
-1.9504
-1.92383
-1.90607
-1.89734
-1.89829
-1.90597
-1.91782
-1.93842
-1.97314
-2.01568
-2.06039
-2.11437
-2.17517
-2.2386
-2.30081
-2.36028
-2.41903
-2.47521
-2.52719
-2.56929
-2.59751
-2.61105
-2.61072
-2.59736
-2.57223
-2.53804
-2.49801
-2.45639
-2.41366
-2.36655
-2.31229
-2.24937
-2.17891
-2.10428
-2.03114
-1.96291
-1.90153
-1.85
-1.80846
-1.77435
-1.74418
-1.71523
-1.68502
-1.64983
-1.60735
-1.55861
-1.51011
-1.46446
-1.42183
-1.3838
-1.3491
-1.31083
-1.25994
-1.18961
-1.09725
-0.981838
-0.843048
-0.681263
-0.497601
-0.29385
-0.0722104
0.164948
0.415064
0.675528
0.94375
1.21727
1.49376
1.77104
2.04709
2.31997
2.58787
2.84899
3.10158
3.34393
3.57446
3.79178
3.99483
4.18294
4.35588
4.51381
4.65721
4.7867
4.90306
5.007
5.09918
5.18011
5.25015
5.3096
5.35875
5.39795
5.42761
5.44822
5.4604
5.46484
5.46225
5.45344
5.43923
5.42039
5.39771
5.37199
5.34398
5.31442
5.28397
5.25325
5.22282
5.19314
5.16457
5.13738
5.11175
5.08777
5.06546
5.04475
5.02556
5.00779
4.9913
4.97598
4.9617
4.94836
4.93589
4.92425
4.91348
4.90361
4.89469
4.88668
4.87945
4.87283
4.86668
4.86083
4.85519
4.84969
4.84429
4.83897
4.83371
4.82852
4.82342
4.81843
4.81362
4.80903
4.80477
4.80093
4.7977
4.7952
4.7938
4.79367
4.79544
4.79952
4.80679
4.81858
4.83492
4.86119
4.88142
-1.2569
-1.26861
-1.29275
-1.32012
-1.34811
-1.37523
-1.40385
-1.43826
-1.48382
-1.54457
-1.62223
-1.71614
-1.82335
-1.939
-2.05747
-2.17297
-2.27987
-2.37241
-2.44529
-2.49433
-2.5171
-2.51418
-2.48824
-2.44389
-2.38694
-2.32318
-2.25825
-2.1974
-2.14531
-2.10581
-2.08123
-2.07147
-2.07299
-2.08273
-2.10105
-2.1294
-2.16654
-2.21234
-2.26661
-2.32722
-2.39164
-2.45727
-2.52396
-2.59119
-2.65815
-2.72257
-2.78067
-2.82949
-2.86682
-2.8907
-2.89972
-2.89335
-2.8721
-2.83784
-2.79401
-2.74563
-2.69855
-2.65272
-2.60474
-2.55368
-2.49729
-2.43347
-2.36217
-2.28608
-2.21005
-2.139
-2.07553
-2.01916
-1.96869
-1.92377
-1.88419
-1.84776
-1.8127
-1.77626
-1.73823
-1.70293
-1.66933
-1.63382
-1.59671
-1.55679
-1.50826
-1.4449
-1.36216
-1.25756
-1.13009
-0.979693
-0.807065
-0.613567
-0.40085
-0.171009
0.073594
0.330453
0.597029
0.870806
1.14939
1.43051
1.71208
1.99214
2.26883
2.54039
2.80509
3.06119
3.30695
3.54072
3.76103
3.96676
4.15722
4.33218
4.49184
4.63673
4.76759
4.88522
4.99043
5.08387
5.16604
5.2373
5.29788
5.34806
5.38815
5.41855
5.43979
5.45249
5.45734
5.45514
5.44669
5.4328
5.41427
5.3919
5.36647
5.33874
5.30944
5.27926
5.24881
5.21865
5.18924
5.16094
5.13403
5.10869
5.085
5.06296
5.04253
5.02362
5.00611
4.98987
4.97479
4.96076
4.94769
4.93552
4.92419
4.91371
4.90409
4.89532
4.88735
4.88008
4.87338
4.86712
4.86118
4.85546
4.84989
4.84443
4.83904
4.83372
4.82846
4.82329
4.81822
4.81331
4.8086
4.80419
4.80018
4.79669
4.79391
4.79204
4.79143
4.7923
4.79545
4.80078
4.81034
4.82177
4.841
4.85144
-1.26027
-1.26735
-1.28725
-1.32499
-1.37541
-1.43352
-1.49785
-1.5692
-1.6493
-1.73904
-1.83876
-1.9489
-2.06909
-2.19582
-2.32332
-2.44601
-2.55816
-2.65355
-2.72621
-2.77167
-2.78839
-2.77905
-2.74785
-2.69934
-2.6387
-2.57199
-2.50504
-2.4435
-2.39173
-2.3548
-2.33312
-2.32488
-2.32845
-2.34259
-2.36674
-2.4015
-2.44738
-2.50333
-2.56721
-2.63727
-2.71141
-2.78684
-2.86301
-2.94028
-3.01659
-3.08918
-3.15527
-3.21163
-3.25464
-3.28039
-3.28593
-3.27052
-3.23597
-3.18662
-3.12823
-3.06865
-3.01434
-2.96212
-2.90669
-2.85034
-2.79314
-2.73222
-2.66469
-2.58981
-2.50965
-2.42817
-2.34935
-2.27606
-2.21038
-2.15293
-2.10177
-2.05692
-2.01917
-1.9858
-1.95555
-1.93176
-1.91045
-1.88447
-1.85091
-1.80857
-1.75246
-1.67799
-1.58225
-1.46395
-1.32288
-1.15951
-0.974723
-0.769825
-0.546514
-0.306804
-0.0529981
0.212421
0.486935
0.76806
1.05344
1.34086
1.62829
1.91384
2.19578
2.47241
2.74207
3.00302
3.25348
3.49174
3.71624
3.92575
4.11954
4.29739
4.45956
4.60667
4.73955
4.85911
4.9662
5.06152
5.14555
5.21859
5.28085
5.33251
5.37385
5.4053
5.42738
5.44077
5.44623
5.44457
5.43661
5.42319
5.4051
5.38317
5.35816
5.33086
5.30198
5.27221
5.24217
5.21242
5.18343
5.15557
5.12911
5.10422
5.08097
5.05935
5.0393
5.02075
5.00358
4.98767
4.9729
4.95918
4.94642
4.93456
4.92353
4.91332
4.90393
4.89532
4.88745
4.88024
4.87356
4.86729
4.86133
4.85558
4.84997
4.84447
4.83903
4.83365
4.82833
4.82308
4.81792
4.81289
4.80805
4.80347
4.79924
4.79546
4.79234
4.78996
4.78873
4.78867
4.7906
4.79403
4.80082
4.80806
4.81998
4.82197
-1.28249
-1.29342
-1.32604
-1.37823
-1.44752
-1.52941
-1.61908
-1.71578
-1.82199
-1.93728
-2.06051
-2.19178
-2.32995
-2.47116
-2.61048
-2.74285
-2.86298
-2.96515
-3.04352
-3.09276
-3.11173
-3.10271
-3.07054
-3.02118
-2.96096
-2.8959
-2.83151
-2.77279
-2.72385
-2.68808
-2.66699
-2.66008
-2.66611
-2.68444
-2.71482
-2.75713
-2.81066
-2.87385
-2.94514
-3.02249
-3.10298
-3.18439
-3.26593
-3.34716
-3.42686
-3.50297
-3.57287
-3.63307
-3.67931
-3.70686
-3.71177
-3.69238
-3.64999
-3.58871
-3.51494
-3.43885
-3.3672
-3.29423
-3.21812
-3.14478
-3.07574
-3.00845
-2.94036
-2.86904
-2.79358
-2.71488
-2.63522
-2.55699
-2.48287
-2.415
-2.3543
-2.30141
-2.25764
-2.22265
-2.19673
-2.18163
-2.17208
-2.15849
-2.13409
-2.09317
-2.03167
-1.94729
-1.83915
-1.7074
-1.55278
-1.37625
-1.17875
-0.961596
-0.726524
-0.475606
-0.211178
0.064275
0.348223
0.638208
0.931893
1.22709
1.52181
1.81426
2.10278
2.38578
2.66159
2.9285
3.18472
3.42849
3.65814
3.87235
4.07028
4.25174
4.41707
4.567
4.70249
4.82455
4.9341
5.03188
5.11834
5.1937
5.25807
5.31156
5.35443
5.38711
5.41021
5.42447
5.43069
5.42973
5.42242
5.40963
5.39217
5.37085
5.34646
5.31976
5.29147
5.26228
5.23283
5.20366
5.17527
5.14802
5.12218
5.09791
5.07528
5.05429
5.03486
5.01686
5.00019
4.98475
4.97042
4.95711
4.94474
4.93325
4.92258
4.91271
4.90359
4.89521
4.8875
4.88038
4.87374
4.86748
4.86149
4.85571
4.85007
4.84451
4.83903
4.83359
4.82819
4.82285
4.81758
4.81243
4.80743
4.80264
4.79817
4.79407
4.79054
4.78762
4.78567
4.78462
4.78515
4.78668
4.79046
4.79388
4.7989
4.79493
-1.32706
-1.34437
-1.38685
-1.4512
-1.53374
-1.62997
-1.73618
-1.85228
-1.97926
-2.11541
-2.2598
-2.41268
-2.57243
-2.73462
-2.89382
-3.04434
-3.17992
-3.29454
-3.3826
-3.44035
-3.46686
-3.46457
-3.43852
-3.39534
-3.34205
-3.28478
-3.22865
-3.17826
-3.13722
-3.10808
-3.09229
-3.08998
-3.10098
-3.1252
-3.16217
-3.21118
-3.2709
-3.3396
-3.41505
-3.49473
-3.57631
-3.65808
-3.73921
-3.8191
-3.89678
-3.9706
-4.03808
-4.09583
-4.13945
-4.16401
-4.16534
-4.1411
-4.09154
-4.02014
-3.93304
-3.8409
-3.74902
-3.64931
-3.54419
-3.44314
-3.34958
-3.26337
-3.18334
-3.10761
-3.03404
-2.96085
-2.88736
-2.81409
-2.74254
-2.67512
-2.61362
-2.55967
-2.51533
-2.48227
-2.46156
-2.45438
-2.45571
-2.4546
-2.4383
-2.39932
-2.33385
-2.24127
-2.12239
-1.97854
-1.81116
-1.62159
-1.41104
-1.18106
-0.933405
-0.670298
-0.394198
-0.107641
0.186858
0.486854
0.790013
1.09415
1.3973
1.69773
1.99386
2.2842
2.56709
2.84077
3.10347
3.3534
3.58882
3.80832
4.01096
4.19653
4.36544
4.51858
4.65704
4.78199
4.89446
4.99516
5.08451
5.16261
5.22944
5.28505
5.32965
5.36377
5.38805
5.40332
5.41047
5.41037
5.40391
5.39195
5.37532
5.35482
5.33124
5.30534
5.27785
5.24945
5.22078
5.19242
5.16482
5.13838
5.11336
5.08993
5.06813
5.04792
5.02923
5.01196
4.99596
4.9811
4.96731
4.95449
4.94259
4.93153
4.92126
4.91174
4.90294
4.8948
4.88727
4.88026
4.87369
4.86746
4.86149
4.8557
4.85004
4.84446
4.83893
4.83343
4.82797
4.82253
4.81716
4.81186
4.80669
4.8017
4.79695
4.79251
4.78853
4.78504
4.7823
4.78025
4.7793
4.77896
4.77981
4.77976
4.77906
4.77043
-1.35248
-1.38142
-1.43632
-1.51157
-1.60339
-1.7082
-1.82489
-1.95481
-2.09951
-2.25726
-2.4254
-2.60089
-2.78092
-2.96201
-3.13999
-3.30963
-3.46445
-3.59794
-3.70409
-3.77915
-3.82239
-3.83626
-3.82587
-3.79817
-3.76018
-3.71821
-3.67756
-3.64248
-3.61619
-3.60077
-3.59716
-3.60534
-3.62509
-3.65598
-3.69746
-3.7489
-3.80937
-3.87753
-3.95162
-4.02972
-4.10995
-4.19104
-4.2722
-4.35262
-4.43089
-4.50506
-4.57242
-4.62911
-4.67051
-4.69218
-4.69044
-4.66229
-4.607
-4.52655
-4.42635
-4.31556
-4.19616
-4.0615
-3.92021
-3.78461
-3.65981
-3.54724
-3.44706
-3.35789
-3.27727
-3.20248
-3.1312
-3.06232
-2.99594
-2.9333
-2.87647
-2.82741
-2.78827
-2.76126
-2.7483
-2.74988
-2.76055
-2.76838
-2.75885
-2.72282
-2.65591
-2.55803
-2.43098
-2.27677
-2.09735
-1.89456
-1.67003
-1.42553
-1.16343
-0.886374
-0.597117
-0.298274
0.00770522
0.318513
0.631903
0.945739
1.25811
1.56733
1.87193
2.1704
2.46107
2.74217
3.01186
3.26831
3.5098
3.73485
3.94249
4.13246
4.30523
4.46182
4.6035
4.73161
4.84725
4.95119
5.04373
5.12487
5.19444
5.25237
5.29891
5.33463
5.36028
5.37678
5.38506
5.38607
5.38069
5.3698
5.35422
5.33476
5.31219
5.28729
5.26078
5.23335
5.20566
5.17827
5.15167
5.12625
5.10227
5.07988
5.05912
5.03994
5.02221
5.0058
4.99061
4.97654
4.96345
4.95127
4.93994
4.92939
4.91958
4.91047
4.90201
4.89415
4.88683
4.87998
4.87352
4.86735
4.86142
4.85565
4.84998
4.84438
4.83881
4.83326
4.82772
4.82219
4.81669
4.81125
4.8059
4.80067
4.79564
4.79084
4.78638
4.78229
4.77874
4.77564
4.77322
4.77104
4.76916
4.76593
4.76059
4.7481
-1.35474
-1.39264
-1.46078
-1.54168
-1.63678
-1.74743
-1.87456
-2.01805
-2.17723
-2.3503
-2.53477
-2.72764
-2.92588
-3.12658
-3.32626
-3.52003
-3.70122
-3.86204
-3.99601
-4.09862
-4.16861
-4.20811
-4.22224
-4.21807
-4.2031
-4.18405
-4.16625
-4.15353
-4.14827
-4.15155
-4.16327
-4.18295
-4.21027
-4.24508
-4.28755
-4.33781
-4.39579
-4.46127
-4.53395
-4.61313
-4.69772
-4.78653
-4.87806
-4.97034
-5.06084
-5.14632
-5.22252
-5.28432
-5.32639
-5.34374
-5.33224
-5.28975
-5.21642
-5.11461
-4.98966
-4.84906
-4.69138
-4.51504
-4.33354
-4.16156
-4.00467
-3.86474
-3.74207
-3.63534
-3.54199
-3.45906
-3.38375
-3.31419
-3.24993
-3.19165
-3.14083
-3.09953
-3.06974
-3.05297
-3.05045
-3.06193
-3.08144
-3.09701
-3.0945
-3.0641
-2.99953
-2.89954
-2.76619
-2.60221
-2.41015
-2.19246
-1.95164
-1.69028
-1.41145
-1.11848
-0.814565
-0.502455
-0.184433
0.137547
0.461531
0.785536
1.10768
1.42629
1.73989
2.04704
2.34608
2.63519
2.91238
3.17568
3.42332
3.65386
3.86638
4.06073
4.23742
4.3976
4.54269
4.67413
4.79311
4.90044
4.99638
5.08075
5.15317
5.21355
5.26216
5.29962
5.3268
5.3447
5.35433
5.35665
5.35257
5.34295
5.32863
5.31041
5.28908
5.26539
5.24008
5.21385
5.18735
5.16117
5.13581
5.11165
5.08895
5.06783
5.0483
5.03032
5.01378
4.9985
4.98432
4.97113
4.95886
4.94743
4.93677
4.92683
4.91755
4.90889
4.90082
4.89328
4.88621
4.87954
4.87321
4.86714
4.86126
4.85552
4.84986
4.84424
4.83864
4.83303
4.82742
4.82179
4.81617
4.81057
4.80503
4.79956
4.79423
4.78905
4.7841
4.77939
4.775
4.77086
4.76701
4.76303
4.75868
4.75257
4.74348
4.7278
-1.36556
-1.40298
-1.46636
-1.54298
-1.63643
-1.74854
-1.88051
-2.03201
-2.20171
-2.38712
-2.58564
-2.7947
-3.01209
-3.23563
-3.46254
-3.6875
-3.90237
-4.09815
-4.26697
-4.40374
-4.50675
-4.57802
-4.62284
-4.64869
-4.66338
-4.67341
-4.68342
-4.69643
-4.71386
-4.73572
-4.76115
-4.78929
-4.82007
-4.85449
-4.89442
-4.94193
-4.99903
-5.06744
-5.14792
-5.23999
-5.34235
-5.45294
-5.56867
-5.68576
-5.79964
-5.90462
-5.99421
-6.06184
-6.10134
-6.1076
-6.07739
-6.00957
-5.90567
-5.76915
-5.60577
-5.42195
-5.21577
-4.99203
-4.76764
-4.55796
-4.36885
-4.20168
-4.05605
-3.93036
-3.82205
-3.72806
-3.64541
-3.57207
-3.50727
-3.45161
-3.40647
-3.37368
-3.35517
-3.35155
-3.36258
-3.38649
-3.41665
-3.44101
-3.44634
-3.42289
-3.36269
-3.26261
-3.124
-2.9502
-2.74466
-2.51085
-2.25223
-1.97225
-1.67493
-1.36446
-1.04458
-0.718204
-0.387429
-0.053734
0.281321
0.615958
0.948265
1.27661
1.59956
1.91579
2.22373
2.52149
2.80684
3.07751
3.33144
3.56727
3.78435
3.98278
4.16326
4.32702
4.47553
4.61033
4.73272
4.84351
4.94286
5.03043
5.10571
5.16854
5.21923
5.25848
5.28728
5.30672
5.31784
5.32164
5.31903
5.31088
5.29801
5.28124
5.26133
5.23906
5.21517
5.19037
5.16533
5.14063
5.11678
5.09417
5.07303
5.05347
5.03548
5.01897
5.00379
4.9898
4.97682
4.96474
4.95346
4.94291
4.93304
4.9238
4.91514
4.90701
4.89938
4.89219
4.88541
4.87896
4.87279
4.86683
4.86103
4.85533
4.84969
4.84407
4.83844
4.83278
4.82709
4.82136
4.81562
4.80986
4.80411
4.7984
4.79275
4.78718
4.78173
4.77639
4.77118
4.76599
4.76076
4.75507
4.74849
4.73982
4.72768
4.70935
-1.36153
-1.39218
-1.44394
-1.51415
-1.60533
-1.71821
-1.85367
-2.01132
-2.18968
-2.3863
-2.59863
-2.82436
-3.06192
-3.30993
-3.56568
-3.82323
-4.07331
-4.30552
-4.51131
-4.68541
-4.82602
-4.93486
-5.017
-5.0793
-5.12882
-5.17153
-5.21152
-5.25079
-5.28946
-5.32672
-5.3619
-5.39512
-5.42783
-5.46292
-5.50457
-5.55732
-5.62477
-5.70895
-5.81027
-5.92764
-6.05866
-6.19962
-6.34588
-6.49207
-6.63177
-6.75741
-6.86093
-6.93456
-6.97151
-6.96631
-6.91514
-6.8168
-6.6736
-6.49045
-6.275
-6.03385
-5.76913
-5.49155
-5.21964
-4.96866
-4.74503
-4.5486
-4.37799
-4.23145
-4.10647
-3.99981
-3.90829
-3.82948
-3.76272
-3.70872
-3.66902
-3.6453
-3.63936
-3.65106
-3.67846
-3.71794
-3.76186
-3.79762
-3.81234
-3.79663
-3.74132
-3.64162
-3.4983
-3.31479
-3.09562
-2.8455
-2.56856
-2.26904
-1.95186
-1.62227
-1.28497
-0.94325
-0.598925
-0.253016
0.0933102
0.438623
0.781193
1.1195
1.45215
1.77801
2.09558
2.40278
2.69705
2.97556
3.23592
3.47686
3.69814
3.9003
4.08429
4.25142
4.40319
4.54126
4.66696
4.78108
4.88372
4.97433
5.05231
5.11746
5.17013
5.21114
5.24159
5.26264
5.27538
5.2808
5.27982
5.2733
5.26207
5.24693
5.22866
5.20803
5.18579
5.16267
5.13933
5.11641
5.09439
5.07366
5.05442
5.03672
5.02056
5.0058
4.99227
4.9798
4.96822
4.95741
4.94726
4.93774
4.92877
4.92034
4.91238
4.90485
4.89772
4.89094
4.88448
4.87828
4.87229
4.86646
4.86075
4.8551
4.84948
4.84386
4.83821
4.8325
4.82674
4.82091
4.81503
4.80911
4.80316
4.79719
4.79122
4.78526
4.7793
4.77332
4.7673
4.7611
4.75456
4.74727
4.73869
4.72775
4.71309
4.69256
-1.32575
-1.35132
-1.39782
-1.46439
-1.55407
-1.66801
-1.80773
-1.97312
-2.16258
-2.37362
-2.60368
-2.85032
-3.11161
-3.38582
-3.66971
-3.95669
-4.23729
-4.501
-4.73954
-4.94835
-5.12616
-5.27446
-5.39711
-5.49926
-5.58639
-5.6634
-5.73381
-5.79908
-5.85901
-5.91282
-5.96051
-6.00371
-6.04566
-6.09097
-6.14498
-6.21297
-6.29908
-6.40553
-6.53218
-6.67673
-6.83581
-7.00523
-7.17993
-7.35391
-7.5195
-7.66735
-7.78703
-7.86879
-7.90434
-7.88683
-7.81179
-7.67862
-7.49015
-7.25298
-6.97669
-6.66972
-6.34077
-6.00581
-5.68391
-5.38901
-5.12771
-4.89933
-4.70197
-4.53381
-4.3919
-4.27252
-4.17181
-4.08694
-4.01726
-3.96413
-3.92949
-3.9151
-3.92219
-3.94982
-3.99444
-4.05112
-4.11094
-4.16004
-4.18553
-4.17792
-4.12732
-4.0282
-3.88044
-3.68767
-3.45544
-3.18925
-2.894
-2.57458
-2.23686
-1.88738
-1.53205
-1.17465
-0.816764
-0.458832
-0.101499
0.254281
0.607111
0.955713
1.29882
1.63527
1.96347
2.28102
2.58478
2.87134
3.13809
3.38392
3.60906
3.81456
4.0017
4.17187
4.32667
4.46778
4.59658
4.71384
4.81951
4.91289
4.99327
5.06046
5.11492
5.15758
5.18967
5.21238
5.22682
5.23398
5.23477
5.23004
5.22062
5.20729
5.19085
5.17207
5.1517
5.13049
5.10913
5.08826
5.06839
5.04989
5.03289
5.01743
5.00343
4.99072
4.97911
4.9684
4.95844
4.9491
4.94027
4.93191
4.92398
4.91645
4.90928
4.90243
4.89586
4.88954
4.88343
4.87751
4.87173
4.86605
4.86044
4.85486
4.84927
4.84365
4.83797
4.83222
4.82638
4.82045
4.81444
4.80835
4.80219
4.79596
4.78967
4.7833
4.77685
4.77025
4.76343
4.75625
4.74848
4.7397
4.72933
4.7164
4.69964
4.67727
-1.27907
-1.30121
-1.34429
-1.40908
-1.49955
-1.61743
-1.76485
-1.94235
-2.14878
-2.38162
-2.63748
-2.91262
-3.20358
-3.50708
-3.81875
-4.13176
-4.43759
-4.7276
-4.99491
-5.23538
-5.44752
-5.6319
-5.79132
-5.93014
-6.05304
-6.16405
-6.26577
-6.35919
-6.4441
-6.51996
-6.58723
-6.64799
-6.70595
-6.76607
-6.83389
-6.91486
-7.01339
-7.13212
-7.27099
-7.42838
-7.60188
-7.78818
-7.98236
-8.17738
-8.3631
-8.52663
-8.65488
-8.73709
-8.76534
-8.73335
-8.63646
-8.47307
-8.24639
-7.9636
-7.63481
-7.27076
-6.88633
-6.50211
-6.13694
-5.80254
-5.50619
-5.24799
-5.02623
-4.83859
-4.68135
-4.55007
-4.44004
-4.34838
-4.27476
-4.22092
-4.1897
-4.18317
-4.20182
-4.24342
-4.30365
-4.37625
-4.45107
-4.51307
-4.54904
-4.54883
-4.50217
-4.4035
-4.25205
-4.05146
-3.80769
-3.52689
-3.21492
-2.87728
-2.5207
-2.15286
-1.78068
-1.40857
-1.0379
-0.668737
-0.300915
0.0651574
0.428486
0.787984
1.14249
1.4906
1.83033
2.15877
2.47208
2.7664
3.03906
3.28937
3.51801
3.72647
3.91633
4.08918
4.24671
4.39065
4.52236
4.64251
4.75088
4.84661
4.92897
4.99783
5.05381
5.098
5.1317
5.15611
5.17232
5.18131
5.18396
5.18114
5.17364
5.16228
5.14784
5.13109
5.1128
5.09373
5.0746
5.05607
5.03867
5.02273
5.00837
4.99554
4.98406
4.97373
4.96434
4.95567
4.94755
4.93985
4.93251
4.92547
4.91869
4.91216
4.90586
4.89976
4.89381
4.888
4.88229
4.87668
4.87114
4.86563
4.86013
4.85462
4.84907
4.84345
4.83774
4.83194
4.82602
4.81999
4.81384
4.80758
4.80122
4.79473
4.78812
4.78136
4.7744
4.76719
4.75962
4.7515
4.74258
4.73244
4.72047
4.7058
4.68726
4.66335
-1.23651
-1.25664
-1.29931
-1.36525
-1.45964
-1.58574
-1.74678
-1.9438
-2.1757
-2.43923
-2.72962
-3.04125
-3.36853
-3.70607
-4.04843
-4.3894
-4.72206
-5.03937
-5.3354
-5.60581
-5.84837
-6.06345
-6.25397
-6.42417
-6.57827
-6.71953
-6.84948
-6.9681
-7.07457
-7.16824
-7.24986
-7.32152
-7.38681
-7.45043
-7.51753
-7.5936
-7.68378
-7.79205
-7.92046
-8.06906
-8.23629
-8.4188
-8.61124
-8.80553
-8.99022
-9.15131
-9.2753
-9.35137
-9.37243
-9.33273
-9.22653
-9.05012
-8.80508
-8.49884
-8.14216
-7.74762
-7.33312
-6.92135
-6.53062
-6.17128
-5.85125
-5.57278
-5.33425
-5.13274
-4.96366
-4.822
-4.70326
-4.60518
-4.52804
-4.47389
-4.4455
-4.44462
-4.47088
-4.52153
-4.592
-4.67534
-4.7603
-4.83109
-4.8737
-4.87713
-4.83195
-4.7333
-4.57987
-4.37455
-4.12302
-3.83196
-3.50805
-3.15738
-2.78719
-2.40569
-2.02064
-1.63672
-1.25523
-0.875996
-0.498341
-0.1222
0.251784
0.622599
0.988933
1.34901
1.70027
2.03915
2.36112
2.66218
2.93991
3.19404
3.42569
3.63663
3.82879
4.004
4.16406
4.31067
4.44512
4.56787
4.67846
4.77597
4.85975
4.92988
4.98713
5.03274
5.06801
5.09413
5.11213
5.12297
5.12755
5.1267
5.12124
5.11197
5.09967
5.08511
5.06908
5.05235
5.03567
5.01975
5.00512
4.99213
4.9808
4.97098
4.96242
4.95485
4.94799
4.94161
4.93556
4.92971
4.92402
4.91843
4.91294
4.90752
4.90217
4.89687
4.8916
4.88635
4.88108
4.8758
4.87051
4.86519
4.85982
4.85439
4.84888
4.84326
4.83753
4.83167
4.82567
4.81954
4.81326
4.80683
4.80026
4.79351
4.78659
4.77943
4.772
4.7642
4.7559
4.7469
4.73692
4.72552
4.71214
4.69593
4.67588
4.65067
-1.21012
-1.22963
-1.27396
-1.34408
-1.44682
-1.58703
-1.76898
-1.99405
-2.26089
-2.56503
-2.89994
-3.25779
-3.63069
-4.01137
-4.39347
-4.77107
-5.13794
-5.48732
-5.8126
-6.10915
-6.37532
-6.61215
-6.8225
-7.0104
-7.17981
-7.33366
-7.4731
-7.59781
-7.70671
-7.79891
-7.87472
-7.93573
-7.9852
-8.02788
-8.06923
-8.11539
-8.17258
-8.24621
-8.33975
-8.45455
-8.58942
-8.74169
-8.90678
-9.07757
-9.24353
-9.39074
-9.5052
-9.57536
-9.59408
-9.5558
-9.45439
-9.28572
-9.04964
-8.75177
-8.40265
-8.01542
-7.6069
-7.19919
-6.80967
-6.44862
-6.12342
-5.83876
-5.59367
-5.38526
-5.20884
-5.05975
-4.93466
-4.83269
-4.75472
-4.70249
-4.67752
-4.68021
-4.70942
-4.76282
-4.8362
-4.92243
-5.0098
-5.08223
-5.12471
-5.12593
-5.07835
-4.97816
-4.8239
-4.61733
-4.36389
-4.06967
-3.74141
-3.38573
-3.01024
-2.62324
-2.23238
-1.84219
-1.45406
-1.06777
-0.682434
-0.297729
0.0858379
0.467221
0.844746
1.21602
1.57757
1.92519
2.25412
2.56039
2.84196
3.099
3.33291
3.54581
3.73992
3.91726
4.07969
4.22881
4.3657
4.49053
4.6027
4.70134
4.78602
4.85705
4.91538
4.9623
4.99908
5.02685
5.0466
5.05928
5.06579
5.06696
5.06359
5.05647
5.04638
5.03412
5.02051
5.00631
4.99231
4.97926
4.96776
4.95808
4.95017
4.94377
4.93853
4.93407
4.93007
4.92628
4.92255
4.91876
4.91487
4.91088
4.90679
4.90257
4.89824
4.89381
4.88927
4.8846
4.87981
4.8749
4.86988
4.86475
4.85953
4.85418
4.84871
4.8431
4.83734
4.83143
4.82535
4.81911
4.8127
4.80611
4.79933
4.79233
4.7851
4.77756
4.76967
4.7613
4.75231
4.74249
4.73153
4.719
4.70435
4.6868
4.66545
4.63914
-1.20204
-1.22228
-1.27069
-1.34851
-1.46503
-1.62614
-1.83721
-2.10001
-2.41267
-2.76897
-3.16002
-3.57561
-4.00584
-4.4418
-4.87603
-5.30109
-5.70849
-6.0891
-6.43581
-6.74481
-7.01547
-7.24986
-7.45203
-7.62697
-7.77934
-7.91257
-8.02835
-8.12662
-8.20628
-8.26621
-8.30649
-8.32879
-8.33637
-8.33438
-8.3286
-8.32554
-8.33164
-8.35412
-8.39754
-8.46413
-8.55352
-8.66378
-8.79096
-8.92899
-9.06857
-9.19725
-9.30133
-9.36939
-9.3936
-9.36796
-9.28618
-9.14387
-8.9406
-8.68121
-8.37346
-8.02886
-7.66171
-7.28992
-6.93033
-6.59346
-6.28484
-6.0106
-5.77189
-5.56599
-5.38903
-5.23761
-5.11016
-5.00738
-4.93084
-4.88125
-4.8583
-4.8613
-4.8889
-4.93946
-5.0094
-5.09147
-5.17354
-5.23958
-5.27443
-5.26825
-5.21531
-5.11287
-4.95934
-4.7556
-4.50556
-4.21507
-3.89064
-3.53917
-3.16809
-2.78504
-2.39687
-2.00763
-1.61878
-1.23018
-0.840949
-0.450705
-0.0599708
0.329909
0.716651
1.09687
1.4662
1.81997
2.15345
2.46294
2.7468
3.0055
3.24078
3.45506
3.65078
3.83005
3.99462
4.14592
4.28473
4.411
4.52405
4.62322
4.70835
4.78
4.83922
4.88731
4.92548
4.95476
4.97615
4.99059
4.99899
5.00215
5.00084
4.99583
4.98793
4.97799
4.96685
4.95535
4.94427
4.93442
4.92642
4.9205
4.91648
4.91395
4.91242
4.91144
4.91063
4.90973
4.90857
4.90705
4.90515
4.90289
4.9003
4.89738
4.89415
4.89063
4.88684
4.8828
4.87851
4.87398
4.86925
4.86433
4.85925
4.854
4.84857
4.84297
4.83719
4.83122
4.82507
4.81872
4.81218
4.80542
4.79844
4.79121
4.78367
4.77577
4.76743
4.75853
4.7489
4.73831
4.72645
4.7129
4.69712
4.67841
4.65593
4.62868
-1.20587
-1.22921
-1.28473
-1.37475
-1.51184
-1.70292
-1.95491
-2.26926
-2.64243
-3.06507
-3.52521
-4.01023
-4.5082
-5.00748
-5.49708
-5.96589
-6.40232
-6.7965
-7.14088
-7.43145
-7.66832
-7.85545
-7.99974
-8.10952
-8.19287
-8.25577
-8.30192
-8.33318
-8.34934
-8.35063
-8.33652
-8.30792
-8.26695
-8.21727
-8.164
-8.11296
-8.06995
-8.04251
-8.03673
-8.05602
-8.10067
-8.16897
-8.25773
-8.3623
-8.47529
-8.58621
-8.68315
-8.75535
-8.79445
-8.79356
-8.74585
-8.64619
-8.49396
-8.29357
-8.05192
-7.77781
-7.48086
-7.17328
-6.86965
-6.58051
-6.30966
-6.06191
-5.84252
-5.6495
-5.48045
-5.33384
-5.20986
-5.11026
-5.03658
-4.98882
-4.96561
-4.96574
-4.98853
-5.03265
-5.09422
-5.16525
-5.23384
-5.28546
-5.3071
-5.29078
-5.23206
-5.12811
-4.97726
-4.77978
-4.53867
-4.25913
-3.94719
-3.60927
-3.2519
-2.88168
-2.50436
-2.1234
-1.74015
-1.3545
-0.9658
-0.573825
-0.179313
0.215883
0.608593
0.994292
1.36791
1.72454
2.0597
2.37001
2.65421
2.9131
3.14878
3.36388
3.56088
3.74178
3.90816
4.06118
4.20133
4.32837
4.44169
4.5409
4.62614
4.69814
4.75806
4.80715
4.84651
4.87715
4.90004
4.91616
4.92635
4.93136
4.93191
4.92882
4.92293
4.9152
4.90659
4.89798
4.89018
4.884
4.88011
4.87862
4.87916
4.88108
4.88377
4.88671
4.88949
4.89181
4.89351
4.89452
4.89481
4.89444
4.89347
4.89195
4.88989