/*--------------------------------*- C++ -*----------------------------------*\
  =========                 |
  \\      /  F ield         | OpenFOAM: The Open Source CFD Toolbox
   \\    /   O peration     | Website:  https://openfoam.org
    \\  /    A nd           | Version:  7
     \\/     M anipulation  |
\*---------------------------------------------------------------------------*/
FoamFile
{
    version     2.0;
    format      ascii;
    class       volScalarField;
    location    "0.094";
    object      pPrime2Mean;
}
// * * * * * * * * * * * * * * * * * * * * * * * * * * * * * * * * * * * * * //

dimensions      [0 4 -4 0 0 0 0];

internalField   nonuniform List<scalar> 
12225
(
3.83538e+06
3.77449e+06
3.71157e+06
3.65085e+06
3.59249e+06
3.53632e+06
3.48221e+06
3.42998e+06
3.37947e+06
3.33051e+06
3.2829e+06
3.23641e+06
3.19078e+06
3.14565e+06
3.10056e+06
3.05477e+06
3.00699e+06
2.95398e+06
3.83544e+06
3.77452e+06
3.7116e+06
3.65088e+06
3.59252e+06
3.53636e+06
3.48225e+06
3.43003e+06
3.37954e+06
3.3306e+06
3.28301e+06
3.23655e+06
3.19096e+06
3.14591e+06
3.10095e+06
3.05539e+06
3.00816e+06
2.95665e+06
3.83554e+06
3.77459e+06
3.71167e+06
3.65095e+06
3.5926e+06
3.53645e+06
3.48236e+06
3.43016e+06
3.37969e+06
3.33079e+06
3.28325e+06
3.23686e+06
3.19138e+06
3.14648e+06
3.10178e+06
3.05672e+06
3.01051e+06
2.96217e+06
3.83565e+06
3.7747e+06
3.71178e+06
3.65107e+06
3.59273e+06
3.5366e+06
3.48253e+06
3.43036e+06
3.37994e+06
3.3311e+06
3.28364e+06
3.23737e+06
3.19205e+06
3.14741e+06
3.10312e+06
3.05878e+06
3.01399e+06
2.96877e+06
3.83579e+06
3.77485e+06
3.71194e+06
3.65124e+06
3.59292e+06
3.53682e+06
3.48278e+06
3.43067e+06
3.38031e+06
3.33156e+06
3.28422e+06
3.23811e+06
3.19302e+06
3.14873e+06
3.10499e+06
3.06156e+06
3.01835e+06
2.97591e+06
3.83601e+06
3.77507e+06
3.71216e+06
3.65148e+06
3.59318e+06
3.53712e+06
3.48313e+06
3.43109e+06
3.38082e+06
3.33218e+06
3.285e+06
3.23911e+06
3.19433e+06
3.15048e+06
3.1074e+06
3.065e+06
3.02341e+06
2.98332e+06
3.83628e+06
3.77535e+06
3.71246e+06
3.65179e+06
3.59353e+06
3.53751e+06
3.4836e+06
3.43164e+06
3.38149e+06
3.333e+06
3.28602e+06
3.2404e+06
3.196e+06
3.15267e+06
3.11035e+06
3.06904e+06
3.02899e+06
2.99085e+06
3.83662e+06
3.77572e+06
3.71284e+06
3.6522e+06
3.59398e+06
3.53802e+06
3.48419e+06
3.43234e+06
3.38233e+06
3.33403e+06
3.2873e+06
3.24201e+06
3.19804e+06
3.15532e+06
3.11381e+06
3.0736e+06
3.03497e+06
2.99845e+06
3.83709e+06
3.77619e+06
3.71332e+06
3.65271e+06
3.59454e+06
3.53866e+06
3.48492e+06
3.43321e+06
3.38338e+06
3.3353e+06
3.28886e+06
3.24395e+06
3.20048e+06
3.1584e+06
3.11774e+06
3.07861e+06
3.04126e+06
3.00609e+06
3.83766e+06
3.77677e+06
3.71391e+06
3.65333e+06
3.59522e+06
3.53943e+06
3.48582e+06
3.43427e+06
3.38464e+06
3.33683e+06
3.29072e+06
3.24624e+06
3.20331e+06
3.16192e+06
3.1221e+06
3.08399e+06
3.04778e+06
3.01376e+06
3.83848e+06
3.7775e+06
3.71464e+06
3.6541e+06
3.59606e+06
3.54037e+06
3.4869e+06
3.43553e+06
3.38615e+06
3.33863e+06
3.2929e+06
3.24888e+06
3.20652e+06
3.16583e+06
3.12685e+06
3.08968e+06
3.05448e+06
3.02143e+06
3.83924e+06
3.77829e+06
3.71544e+06
3.65493e+06
3.59697e+06
3.54139e+06
3.48807e+06
3.4369e+06
3.38776e+06
3.34055e+06
3.29519e+06
3.25162e+06
3.20981e+06
3.16975e+06
3.1315e+06
3.09513e+06
3.06075e+06
3.02847e+06
3.84028e+06
3.77922e+06
3.71635e+06
3.65588e+06
3.598e+06
3.54255e+06
3.4894e+06
3.43844e+06
3.38956e+06
3.34267e+06
3.2977e+06
3.2546e+06
3.21333e+06
3.1739e+06
3.13634e+06
3.1007e+06
3.06704e+06
3.03544e+06
3.84165e+06
3.78046e+06
3.71756e+06
3.65714e+06
3.59936e+06
3.54406e+06
3.49112e+06
3.44043e+06
3.39188e+06
3.34539e+06
3.30088e+06
3.25832e+06
3.21767e+06
3.17892e+06
3.14209e+06
3.10721e+06
3.07429e+06
3.04336e+06
3.84343e+06
3.78208e+06
3.71915e+06
3.65879e+06
3.60114e+06
3.54604e+06
3.49336e+06
3.443e+06
3.39484e+06
3.34881e+06
3.30485e+06
3.2629e+06
3.22292e+06
3.1849e+06
3.14884e+06
3.11471e+06
3.08253e+06
3.05225e+06
3.84565e+06
3.78417e+06
3.72121e+06
3.66093e+06
3.60344e+06
3.54859e+06
3.49623e+06
3.44625e+06
3.39856e+06
3.35307e+06
3.30971e+06
3.26842e+06
3.22916e+06
3.1919e+06
3.1566e+06
3.12322e+06
3.09173e+06
3.06207e+06
3.84846e+06
3.78679e+06
3.72382e+06
3.66364e+06
3.60636e+06
3.5518e+06
3.49982e+06
3.45029e+06
3.40312e+06
3.35822e+06
3.31551e+06
3.27492e+06
3.2364e+06
3.19988e+06
3.16531e+06
3.13264e+06
3.1018e+06
3.07273e+06
3.85167e+06
3.78992e+06
3.72698e+06
3.66696e+06
3.60993e+06
3.55571e+06
3.50415e+06
3.45513e+06
3.40852e+06
3.36424e+06
3.3222e+06
3.28231e+06
3.2445e+06
3.20869e+06
3.17481e+06
3.14278e+06
3.11253e+06
3.08398e+06
3.85526e+06
3.79345e+06
3.73061e+06
3.67079e+06
3.61407e+06
3.56024e+06
3.50914e+06
3.46063e+06
3.4146e+06
3.37094e+06
3.32955e+06
3.29032e+06
3.25316e+06
3.21799e+06
3.18472e+06
3.15327e+06
3.12354e+06
3.09545e+06
3.85786e+06
3.79619e+06
3.73352e+06
3.67393e+06
3.61749e+06
3.56398e+06
3.51325e+06
3.46515e+06
3.41955e+06
3.37633e+06
3.33539e+06
3.29661e+06
3.25991e+06
3.22517e+06
3.1923e+06
3.16122e+06
3.13182e+06
3.10403e+06
3.8593e+06
3.7979e+06
3.73542e+06
3.67603e+06
3.6198e+06
3.56653e+06
3.51604e+06
3.4682e+06
3.42288e+06
3.37995e+06
3.33929e+06
3.30079e+06
3.26436e+06
3.22988e+06
3.19725e+06
3.16639e+06
3.13719e+06
3.10957e+06
3.86043e+06
3.79909e+06
3.73677e+06
3.67754e+06
3.62148e+06
3.56839e+06
3.51809e+06
3.47044e+06
3.42531e+06
3.38258e+06
3.34211e+06
3.30381e+06
3.26756e+06
3.23325e+06
3.20079e+06
3.17007e+06
3.14101e+06
3.11351e+06
3.86085e+06
3.79983e+06
3.73769e+06
3.67861e+06
3.62268e+06
3.56972e+06
3.51956e+06
3.47205e+06
3.42706e+06
3.38446e+06
3.34413e+06
3.30596e+06
3.26984e+06
3.23565e+06
3.2033e+06
3.17268e+06
3.14371e+06
3.11628e+06
3.8612e+06
3.80031e+06
3.73831e+06
3.67934e+06
3.62352e+06
3.57066e+06
3.5206e+06
3.47318e+06
3.42829e+06
3.38579e+06
3.34555e+06
3.30747e+06
3.27144e+06
3.23733e+06
3.20505e+06
3.1745e+06
3.14559e+06
3.11822e+06
3.86138e+06
3.80061e+06
3.73871e+06
3.67984e+06
3.6241e+06
3.57131e+06
3.52131e+06
3.47397e+06
3.42914e+06
3.3867e+06
3.34654e+06
3.30852e+06
3.27254e+06
3.23848e+06
3.20626e+06
3.17575e+06
3.14688e+06
3.11955e+06
3.86129e+06
3.80075e+06
3.73897e+06
3.68017e+06
3.62449e+06
3.57174e+06
3.52179e+06
3.47449e+06
3.42971e+06
3.38732e+06
3.34719e+06
3.30922e+06
3.27327e+06
3.23926e+06
3.20706e+06
3.17659e+06
3.14775e+06
3.12044e+06
3.86122e+06
3.80084e+06
3.73913e+06
3.68038e+06
3.62473e+06
3.57202e+06
3.5221e+06
3.47483e+06
3.43008e+06
3.38772e+06
3.34762e+06
3.30967e+06
3.27375e+06
3.23976e+06
3.20758e+06
3.17713e+06
3.1483e+06
3.12101e+06
3.8612e+06
3.80089e+06
3.73923e+06
3.6805e+06
3.62488e+06
3.57219e+06
3.52229e+06
3.47504e+06
3.43031e+06
3.38796e+06
3.34788e+06
3.30994e+06
3.27404e+06
3.24006e+06
3.2079e+06
3.17746e+06
3.14864e+06
3.12136e+06
3.8612e+06
3.80091e+06
3.73928e+06
3.68057e+06
3.62496e+06
3.57229e+06
3.52239e+06
3.47515e+06
3.43043e+06
3.38809e+06
3.34802e+06
3.31009e+06
3.27419e+06
3.24022e+06
3.20807e+06
3.17763e+06
3.14882e+06
3.12154e+06
3.8612e+06
3.80092e+06
3.7393e+06
3.6806e+06
3.62499e+06
3.57232e+06
3.52244e+06
3.4752e+06
3.43048e+06
3.38814e+06
3.34807e+06
3.31015e+06
3.27426e+06
3.24029e+06
3.20814e+06
3.17771e+06
3.1489e+06
3.12162e+06
2.49607e+06
2.49587e+06
2.49547e+06
2.49486e+06
2.49405e+06
2.49301e+06
2.49176e+06
2.49029e+06
2.4886e+06
2.48667e+06
2.48452e+06
2.48214e+06
2.47953e+06
2.47668e+06
2.47359e+06
2.47027e+06
2.46671e+06
2.46292e+06
2.45888e+06
2.45461e+06
2.4501e+06
2.44536e+06
2.44038e+06
2.43517e+06
2.42973e+06
2.42406e+06
2.41815e+06
2.41203e+06
2.40568e+06
2.3991e+06
2.39231e+06
2.3853e+06
2.37808e+06
2.37065e+06
2.36301e+06
2.35517e+06
2.34713e+06
2.33888e+06
2.33045e+06
2.32182e+06
2.313e+06
2.304e+06
2.29482e+06
2.28545e+06
2.27592e+06
2.26621e+06
2.25633e+06
2.24628e+06
2.23608e+06
2.22571e+06
2.21519e+06
2.20451e+06
2.19368e+06
2.18271e+06
2.17159e+06
2.16033e+06
2.14893e+06
2.1374e+06
2.12573e+06
2.11393e+06
2.10201e+06
2.08996e+06
2.07779e+06
2.0655e+06
2.05309e+06
2.04057e+06
2.02793e+06
2.01519e+06
2.00233e+06
1.98937e+06
1.97631e+06
1.96315e+06
1.94988e+06
1.93652e+06
1.92307e+06
1.90952e+06
1.89588e+06
1.88215e+06
1.86833e+06
1.85443e+06
1.84044e+06
1.82637e+06
1.81222e+06
1.79799e+06
1.78368e+06
1.7693e+06
1.75484e+06
1.74031e+06
1.72571e+06
1.71104e+06
1.6963e+06
1.6815e+06
1.66663e+06
1.6517e+06
1.6367e+06
1.62165e+06
1.60653e+06
1.59136e+06
1.57614e+06
1.56086e+06
1.54552e+06
1.53014e+06
1.5147e+06
1.49922e+06
1.48368e+06
1.46811e+06
1.45248e+06
1.43682e+06
1.42111e+06
1.40536e+06
1.38958e+06
1.37376e+06
1.3579e+06
1.34201e+06
1.32608e+06
1.31012e+06
1.29414e+06
1.27812e+06
1.26208e+06
1.24602e+06
1.22993e+06
1.21382e+06
1.19769e+06
1.18154e+06
1.16537e+06
1.14919e+06
1.133e+06
1.11679e+06
1.10058e+06
1.08436e+06
1.06813e+06
1.0519e+06
1.03567e+06
1.01944e+06
1.00321e+06
986983
970766
954559
938362
922180
906013
889865
873738
857635
841558
825509
809492
793508
777562
761655
745790
729971
714201
698482
682818
667212
651667
636187
620775
605435
590171
574985
559883
544868
529945
515118
500391
485769
471258
456862
442589
428445
414437
400575
386868
373331
359982
346849
333976
321466
2.49697e+06
2.49677e+06
2.49637e+06
2.49576e+06
2.49493e+06
2.4939e+06
2.49264e+06
2.49116e+06
2.48945e+06
2.48752e+06
2.48536e+06
2.48296e+06
2.48033e+06
2.47747e+06
2.47437e+06
2.47103e+06
2.46746e+06
2.46364e+06
2.45959e+06
2.4553e+06
2.45078e+06
2.44601e+06
2.44102e+06
2.43579e+06
2.43033e+06
2.42463e+06
2.41871e+06
2.41257e+06
2.4062e+06
2.3996e+06
2.39279e+06
2.38577e+06
2.37853e+06
2.37108e+06
2.36343e+06
2.35557e+06
2.3475e+06
2.33925e+06
2.33079e+06
2.32215e+06
2.31332e+06
2.3043e+06
2.2951e+06
2.28573e+06
2.27618e+06
2.26646e+06
2.25656e+06
2.24651e+06
2.23629e+06
2.22591e+06
2.21538e+06
2.20469e+06
2.19386e+06
2.18288e+06
2.17175e+06
2.16048e+06
2.14907e+06
2.13753e+06
2.12586e+06
2.11405e+06
2.10212e+06
2.09007e+06
2.07789e+06
2.06559e+06
2.05318e+06
2.04065e+06
2.02801e+06
2.01526e+06
2.0024e+06
1.98944e+06
1.97637e+06
1.96321e+06
1.94994e+06
1.93658e+06
1.92312e+06
1.90957e+06
1.89592e+06
1.88219e+06
1.86837e+06
1.85446e+06
1.84047e+06
1.8264e+06
1.81225e+06
1.79802e+06
1.78371e+06
1.76932e+06
1.75486e+06
1.74033e+06
1.72573e+06
1.71106e+06
1.69632e+06
1.68151e+06
1.66664e+06
1.65171e+06
1.63671e+06
1.62166e+06
1.60655e+06
1.59137e+06
1.57615e+06
1.56086e+06
1.54553e+06
1.53014e+06
1.51471e+06
1.49922e+06
1.48369e+06
1.46811e+06
1.45249e+06
1.43682e+06
1.42112e+06
1.40537e+06
1.38958e+06
1.37376e+06
1.3579e+06
1.34201e+06
1.32608e+06
1.31013e+06
1.29414e+06
1.27813e+06
1.26208e+06
1.24602e+06
1.22993e+06
1.21382e+06
1.19769e+06
1.18154e+06
1.16537e+06
1.14919e+06
1.133e+06
1.11679e+06
1.10058e+06
1.08436e+06
1.06813e+06
1.0519e+06
1.03567e+06
1.01944e+06
1.00321e+06
986984
970767
954559
938362
922180
906013
889865
873738
857635
841558
825509
809492
793508
777562
761655
745790
729971
714201
698482
682818
667212
651667
636187
620775
605435
590170
574985
559883
544868
529945
515117
500390
485768
471256
456861
442587
428442
414433
400569
386860
373321
359967
346824
333933
321364
2.49878e+06
2.49858e+06
2.49817e+06
2.49755e+06
2.49672e+06
2.49566e+06
2.49439e+06
2.49289e+06
2.49117e+06
2.48921e+06
2.48703e+06
2.48461e+06
2.48195e+06
2.47906e+06
2.47593e+06
2.47256e+06
2.46895e+06
2.4651e+06
2.46101e+06
2.45669e+06
2.45212e+06
2.44732e+06
2.44229e+06
2.43702e+06
2.43152e+06
2.42579e+06
2.41983e+06
2.41364e+06
2.40723e+06
2.4006e+06
2.39376e+06
2.38669e+06
2.37942e+06
2.37194e+06
2.36425e+06
2.35635e+06
2.34826e+06
2.33997e+06
2.33148e+06
2.32281e+06
2.31395e+06
2.3049e+06
2.29568e+06
2.28628e+06
2.2767e+06
2.26695e+06
2.25704e+06
2.24696e+06
2.23672e+06
2.22632e+06
2.21577e+06
2.20506e+06
2.19421e+06
2.18321e+06
2.17206e+06
2.16078e+06
2.14935e+06
2.1378e+06
2.12611e+06
2.11429e+06
2.10235e+06
2.09028e+06
2.07809e+06
2.06578e+06
2.05336e+06
2.04082e+06
2.02817e+06
2.01541e+06
2.00254e+06
1.98957e+06
1.9765e+06
1.96332e+06
1.95005e+06
1.93668e+06
1.92322e+06
1.90966e+06
1.89601e+06
1.88227e+06
1.86845e+06
1.85454e+06
1.84054e+06
1.82647e+06
1.81231e+06
1.79807e+06
1.78376e+06
1.76937e+06
1.75491e+06
1.74037e+06
1.72577e+06
1.7111e+06
1.69635e+06
1.68155e+06
1.66667e+06
1.65174e+06
1.63674e+06
1.62168e+06
1.60657e+06
1.59139e+06
1.57616e+06
1.56088e+06
1.54555e+06
1.53016e+06
1.51472e+06
1.49923e+06
1.4837e+06
1.46812e+06
1.4525e+06
1.43683e+06
1.42112e+06
1.40538e+06
1.38959e+06
1.37377e+06
1.35791e+06
1.34201e+06
1.32609e+06
1.31013e+06
1.29414e+06
1.27813e+06
1.26209e+06
1.24602e+06
1.22993e+06
1.21382e+06
1.19769e+06
1.18154e+06
1.16537e+06
1.14919e+06
1.133e+06
1.1168e+06
1.10058e+06
1.08436e+06
1.06813e+06
1.0519e+06
1.03567e+06
1.01944e+06
1.00321e+06
986984
970767
954559
938363
922180
906014
889866
873739
857635
841558
825509
809492
793508
777562
761655
745790
729971
714201
698482
682818
667212
651667
636187
620775
605435
590170
574984
559882
544867
529943
515115
500388
485765
471253
456857
442582
428435
414425
400558
386845
373300
359937
346778
333854
321204
2.50151e+06
2.5013e+06
2.50088e+06
2.50025e+06
2.4994e+06
2.49833e+06
2.49703e+06
2.49551e+06
2.49375e+06
2.49177e+06
2.48954e+06
2.48708e+06
2.48438e+06
2.48145e+06
2.47827e+06
2.47485e+06
2.47119e+06
2.46729e+06
2.46315e+06
2.45876e+06
2.45414e+06
2.44929e+06
2.44419e+06
2.43887e+06
2.43331e+06
2.42752e+06
2.4215e+06
2.41526e+06
2.40879e+06
2.4021e+06
2.3952e+06
2.38808e+06
2.38075e+06
2.37322e+06
2.36547e+06
2.35753e+06
2.34939e+06
2.34105e+06
2.33252e+06
2.3238e+06
2.31489e+06
2.3058e+06
2.29654e+06
2.2871e+06
2.27748e+06
2.2677e+06
2.25775e+06
2.24763e+06
2.23736e+06
2.22693e+06
2.21635e+06
2.20561e+06
2.19473e+06
2.1837e+06
2.17253e+06
2.16122e+06
2.14977e+06
2.13819e+06
2.12648e+06
2.11465e+06
2.10268e+06
2.0906e+06
2.07839e+06
2.06606e+06
2.05362e+06
2.04107e+06
2.02841e+06
2.01563e+06
2.00275e+06
1.98977e+06
1.97668e+06
1.9635e+06
1.95022e+06
1.93684e+06
1.92336e+06
1.9098e+06
1.89614e+06
1.88239e+06
1.86856e+06
1.85464e+06
1.84064e+06
1.82656e+06
1.8124e+06
1.79816e+06
1.78384e+06
1.76944e+06
1.75498e+06
1.74044e+06
1.72583e+06
1.71115e+06
1.6964e+06
1.68159e+06
1.66672e+06
1.65178e+06
1.63678e+06
1.62172e+06
1.6066e+06
1.59142e+06
1.57619e+06
1.56091e+06
1.54557e+06
1.53018e+06
1.51474e+06
1.49925e+06
1.48372e+06
1.46814e+06
1.45251e+06
1.43684e+06
1.42114e+06
1.40539e+06
1.3896e+06
1.37378e+06
1.35792e+06
1.34202e+06
1.32609e+06
1.31014e+06
1.29415e+06
1.27813e+06
1.26209e+06
1.24603e+06
1.22994e+06
1.21382e+06
1.19769e+06
1.18154e+06
1.16538e+06
1.1492e+06
1.133e+06
1.1168e+06
1.10058e+06
1.08436e+06
1.06813e+06
1.0519e+06
1.03567e+06
1.01944e+06
1.00321e+06
986985
970768
954560
938363
922181
906014
889866
873739
857636
841558
825510
809492
793509
777562
761655
745791
729971
714201
698482
682818
667212
651667
636186
620774
605434
590169
574984
559881
544866
529942
515113
500385
485762
471249
456851
442575
428426
414412
400542
386824
373269
359894
346713
333750
321019
2.50518e+06
2.50496e+06
2.50453e+06
2.50388e+06
2.50301e+06
2.50191e+06
2.50058e+06
2.49902e+06
2.49722e+06
2.49519e+06
2.49291e+06
2.4904e+06
2.48764e+06
2.48464e+06
2.4814e+06
2.47792e+06
2.47419e+06
2.47021e+06
2.466e+06
2.46154e+06
2.45684e+06
2.45191e+06
2.44674e+06
2.44133e+06
2.43569e+06
2.42982e+06
2.42373e+06
2.4174e+06
2.41086e+06
2.4041e+06
2.39712e+06
2.38993e+06
2.38253e+06
2.37492e+06
2.3671e+06
2.35909e+06
2.35088e+06
2.34248e+06
2.33389e+06
2.32511e+06
2.31614e+06
2.307e+06
2.29768e+06
2.28818e+06
2.27852e+06
2.26868e+06
2.25869e+06
2.24853e+06
2.23821e+06
2.22774e+06
2.21711e+06
2.20634e+06
2.19542e+06
2.18435e+06
2.17315e+06
2.16181e+06
2.15033e+06
2.13872e+06
2.12698e+06
2.11512e+06
2.10313e+06
2.09102e+06
2.07878e+06
2.06644e+06
2.05398e+06
2.0414e+06
2.02872e+06
2.01593e+06
2.00303e+06
1.99003e+06
1.97693e+06
1.96373e+06
1.95043e+06
1.93704e+06
1.92355e+06
1.90998e+06
1.89631e+06
1.88255e+06
1.86871e+06
1.85478e+06
1.84077e+06
1.82668e+06
1.81251e+06
1.79826e+06
1.78394e+06
1.76954e+06
1.75507e+06
1.74052e+06
1.7259e+06
1.71122e+06
1.69647e+06
1.68165e+06
1.66677e+06
1.65183e+06
1.63683e+06
1.62176e+06
1.60664e+06
1.59146e+06
1.57623e+06
1.56094e+06
1.5456e+06
1.53021e+06
1.51477e+06
1.49928e+06
1.48374e+06
1.46816e+06
1.45253e+06
1.43686e+06
1.42115e+06
1.4054e+06
1.38961e+06
1.37379e+06
1.35793e+06
1.34203e+06
1.3261e+06
1.31015e+06
1.29416e+06
1.27814e+06
1.2621e+06
1.24603e+06
1.22994e+06
1.21383e+06
1.1977e+06
1.18155e+06
1.16538e+06
1.1492e+06
1.13301e+06
1.1168e+06
1.10058e+06
1.08436e+06
1.06814e+06
1.0519e+06
1.03567e+06
1.01944e+06
1.00321e+06
986986
970769
954561
938364
922181
906015
889867
873740
857636
841559
825510
809493
793509
777562
761655
745791
729972
714201
698482
682818
667211
651666
636186
620774
605434
590169
574983
559880
544864
529940
515111
500382
485757
471243
456844
442565
428414
414396
400520
386795
373231
359839
346634
333628
320824
2.5098e+06
2.50957e+06
2.50913e+06
2.50845e+06
2.50755e+06
2.50642e+06
2.50505e+06
2.50344e+06
2.50159e+06
2.49949e+06
2.49716e+06
2.49457e+06
2.49174e+06
2.48866e+06
2.48534e+06
2.48177e+06
2.47795e+06
2.47388e+06
2.46957e+06
2.46502e+06
2.46022e+06
2.45519e+06
2.44992e+06
2.44441e+06
2.43867e+06
2.4327e+06
2.42651e+06
2.42009e+06
2.41344e+06
2.40658e+06
2.39951e+06
2.39223e+06
2.38473e+06
2.37704e+06
2.36914e+06
2.36104e+06
2.35275e+06
2.34426e+06
2.33559e+06
2.32674e+06
2.3177e+06
2.30849e+06
2.2991e+06
2.28953e+06
2.2798e+06
2.26991e+06
2.25985e+06
2.24964e+06
2.23926e+06
2.22874e+06
2.21806e+06
2.20724e+06
2.19627e+06
2.18517e+06
2.17392e+06
2.16253e+06
2.15102e+06
2.13937e+06
2.1276e+06
2.1157e+06
2.10368e+06
2.09154e+06
2.07928e+06
2.0669e+06
2.05441e+06
2.04182e+06
2.02911e+06
2.01629e+06
2.00338e+06
1.99036e+06
1.97724e+06
1.96402e+06
1.9507e+06
1.9373e+06
1.92379e+06
1.9102e+06
1.89652e+06
1.88275e+06
1.8689e+06
1.85496e+06
1.84094e+06
1.82684e+06
1.81266e+06
1.7984e+06
1.78406e+06
1.76966e+06
1.75517e+06
1.74062e+06
1.726e+06
1.71131e+06
1.69655e+06
1.68173e+06
1.66685e+06
1.6519e+06
1.63689e+06
1.62182e+06
1.60669e+06
1.59151e+06
1.57627e+06
1.56098e+06
1.54564e+06
1.53024e+06
1.5148e+06
1.49931e+06
1.48377e+06
1.46818e+06
1.45255e+06
1.43688e+06
1.42117e+06
1.40542e+06
1.38963e+06
1.3738e+06
1.35794e+06
1.34204e+06
1.32612e+06
1.31016e+06
1.29417e+06
1.27815e+06
1.26211e+06
1.24604e+06
1.22995e+06
1.21384e+06
1.1977e+06
1.18155e+06
1.16539e+06
1.1492e+06
1.13301e+06
1.1168e+06
1.10059e+06
1.08437e+06
1.06814e+06
1.05191e+06
1.03567e+06
1.01944e+06
1.00321e+06
986988
970770
954562
938365
922182
906016
889868
873741
857637
841559
825511
809493
793510
777563
761656
745791
729972
714201
698482
682818
667211
651666
636186
620774
605433
590168
574981
559878
544862
529937
515107
500377
485752
471236
456835
442553
428399
414377
400495
386761
373185
359776
346544
333496
320627
2.51542e+06
2.51518e+06
2.51471e+06
2.514e+06
2.51307e+06
2.51189e+06
2.51046e+06
2.50879e+06
2.50688e+06
2.50471e+06
2.50229e+06
2.49962e+06
2.4967e+06
2.49352e+06
2.49009e+06
2.48641e+06
2.48248e+06
2.4783e+06
2.47388e+06
2.4692e+06
2.46429e+06
2.45913e+06
2.45374e+06
2.44811e+06
2.44225e+06
2.43615e+06
2.42984e+06
2.4233e+06
2.41654e+06
2.40956e+06
2.40237e+06
2.39497e+06
2.38737e+06
2.37957e+06
2.37156e+06
2.36336e+06
2.35497e+06
2.34639e+06
2.33763e+06
2.32868e+06
2.31955e+06
2.31026e+06
2.30078e+06
2.29114e+06
2.28134e+06
2.27137e+06
2.26124e+06
2.25096e+06
2.24052e+06
2.22993e+06
2.2192e+06
2.20832e+06
2.19729e+06
2.18613e+06
2.17483e+06
2.1634e+06
2.15184e+06
2.14015e+06
2.12833e+06
2.11639e+06
2.10433e+06
2.09216e+06
2.07986e+06
2.06745e+06
2.05493e+06
2.04231e+06
2.02957e+06
2.01673e+06
2.00379e+06
1.99074e+06
1.9776e+06
1.96436e+06
1.95103e+06
1.9376e+06
1.92408e+06
1.91047e+06
1.89677e+06
1.88299e+06
1.86912e+06
1.85517e+06
1.84113e+06
1.82702e+06
1.81283e+06
1.79856e+06
1.78421e+06
1.7698e+06
1.75531e+06
1.74074e+06
1.72611e+06
1.71142e+06
1.69665e+06
1.68182e+06
1.66693e+06
1.65198e+06
1.63696e+06
1.62189e+06
1.60676e+06
1.59157e+06
1.57633e+06
1.56103e+06
1.54568e+06
1.53029e+06
1.51484e+06
1.49934e+06
1.4838e+06
1.46821e+06
1.45258e+06
1.43691e+06
1.42119e+06
1.40544e+06
1.38965e+06
1.37382e+06
1.35796e+06
1.34206e+06
1.32613e+06
1.31017e+06
1.29418e+06
1.27816e+06
1.26212e+06
1.24605e+06
1.22996e+06
1.21384e+06
1.19771e+06
1.18156e+06
1.16539e+06
1.14921e+06
1.13301e+06
1.11681e+06
1.10059e+06
1.08437e+06
1.06814e+06
1.05191e+06
1.03568e+06
1.01944e+06
1.00321e+06
986989
970772
954563
938366
922183
906017
889869
873741
857638
841560
825511
809494
793510
777563
761656
745791
729972
714201
698482
682818
667211
651666
636185
620773
605432
590167
574980
559876
544860
529934
515103
500372
485745
471228
456824
442540
428381
414354
400466
386723
373133
359706
346446
333358
320433
2.52206e+06
2.5218e+06
2.52131e+06
2.52057e+06
2.51958e+06
2.51835e+06
2.51686e+06
2.51512e+06
2.51312e+06
2.51086e+06
2.50834e+06
2.50556e+06
2.50252e+06
2.49923e+06
2.49567e+06
2.49186e+06
2.4878e+06
2.48348e+06
2.47892e+06
2.4741e+06
2.46904e+06
2.46374e+06
2.4582e+06
2.45242e+06
2.44641e+06
2.44018e+06
2.43371e+06
2.42703e+06
2.42013e+06
2.41302e+06
2.4057e+06
2.39817e+06
2.39043e+06
2.3825e+06
2.37437e+06
2.36606e+06
2.35755e+06
2.34885e+06
2.33998e+06
2.33093e+06
2.3217e+06
2.3123e+06
2.30274e+06
2.293e+06
2.28311e+06
2.27306e+06
2.26285e+06
2.25248e+06
2.24197e+06
2.23131e+06
2.22051e+06
2.20956e+06
2.19847e+06
2.18725e+06
2.17589e+06
2.1644e+06
2.15279e+06
2.14105e+06
2.12918e+06
2.11719e+06
2.10509e+06
2.09287e+06
2.08054e+06
2.06809e+06
2.05554e+06
2.04287e+06
2.0301e+06
2.01723e+06
2.00426e+06
1.99119e+06
1.97802e+06
1.96476e+06
1.9514e+06
1.93795e+06
1.92441e+06
1.91078e+06
1.89706e+06
1.88326e+06
1.86937e+06
1.85541e+06
1.84136e+06
1.82723e+06
1.81303e+06
1.79874e+06
1.78439e+06
1.76996e+06
1.75546e+06
1.74088e+06
1.72624e+06
1.71154e+06
1.69676e+06
1.68193e+06
1.66703e+06
1.65207e+06
1.63705e+06
1.62197e+06
1.60683e+06
1.59164e+06
1.57639e+06
1.56109e+06
1.54574e+06
1.53033e+06
1.51488e+06
1.49938e+06
1.48384e+06
1.46825e+06
1.45261e+06
1.43694e+06
1.42122e+06
1.40547e+06
1.38967e+06
1.37384e+06
1.35798e+06
1.34208e+06
1.32615e+06
1.31018e+06
1.29419e+06
1.27817e+06
1.26213e+06
1.24606e+06
1.22997e+06
1.21385e+06
1.19772e+06
1.18157e+06
1.1654e+06
1.14921e+06
1.13302e+06
1.11681e+06
1.1006e+06
1.08437e+06
1.06814e+06
1.05191e+06
1.03568e+06
1.01945e+06
1.00322e+06
986991
970773
954565
938368
922185
906018
889870
873742
857639
841561
825512
809494
793511
777564
761657
745792
729972
714202
698482
682818
667211
651666
636185
620772
605431
590165
574978
559874
544857
529930
515099
500367
485738
471218
456812
442525
428362
414329
400433
386680
373077
359630
346344
333219
320245
2.52977e+06
2.5295e+06
2.52897e+06
2.52819e+06
2.52715e+06
2.52585e+06
2.52428e+06
2.52244e+06
2.52034e+06
2.51797e+06
2.51533e+06
2.51242e+06
2.50925e+06
2.50581e+06
2.50211e+06
2.49814e+06
2.49391e+06
2.48943e+06
2.4847e+06
2.47971e+06
2.47448e+06
2.46901e+06
2.46329e+06
2.45735e+06
2.45117e+06
2.44476e+06
2.43813e+06
2.43129e+06
2.42423e+06
2.41695e+06
2.40947e+06
2.40179e+06
2.39391e+06
2.38583e+06
2.37757e+06
2.36911e+06
2.36047e+06
2.35165e+06
2.34265e+06
2.33347e+06
2.32413e+06
2.31462e+06
2.30494e+06
2.29511e+06
2.28512e+06
2.27497e+06
2.26466e+06
2.25421e+06
2.24361e+06
2.23287e+06
2.22199e+06
2.21096e+06
2.1998e+06
2.18851e+06
2.17709e+06
2.16554e+06
2.15386e+06
2.14206e+06
2.13014e+06
2.1181e+06
2.10595e+06
2.09368e+06
2.0813e+06
2.06881e+06
2.05621e+06
2.04351e+06
2.03071e+06
2.0178e+06
2.0048e+06
1.99169e+06
1.97849e+06
1.9652e+06
1.95182e+06
1.93834e+06
1.92478e+06
1.91112e+06
1.89739e+06
1.88357e+06
1.86966e+06
1.85568e+06
1.84161e+06
1.82747e+06
1.81325e+06
1.79895e+06
1.78458e+06
1.77014e+06
1.75563e+06
1.74104e+06
1.72639e+06
1.71168e+06
1.69689e+06
1.68205e+06
1.66714e+06
1.65217e+06
1.63714e+06
1.62206e+06
1.60691e+06
1.59171e+06
1.57646e+06
1.56115e+06
1.5458e+06
1.53039e+06
1.51493e+06
1.49943e+06
1.48388e+06
1.46829e+06
1.45265e+06
1.43697e+06
1.42125e+06
1.40549e+06
1.3897e+06
1.37386e+06
1.358e+06
1.3421e+06
1.32616e+06
1.3102e+06
1.29421e+06
1.27819e+06
1.26214e+06
1.24607e+06
1.22998e+06
1.21386e+06
1.19773e+06
1.18157e+06
1.1654e+06
1.14922e+06
1.13302e+06
1.11682e+06
1.1006e+06
1.08438e+06
1.06815e+06
1.05191e+06
1.03568e+06
1.01945e+06
1.00322e+06
986993
970775
954567
938369
922186
906019
889871
873744
857640
841562
825513
809495
793511
777564
761657
745792
729973
714202
698483
682818
667211
651666
636185
620772
605430
590164
574977
559872
544854
529927
515094
500360
485730
471208
456799
442509
428341
414302
400398
386635
373017
359551
346239
333080
320064
2.53862e+06
2.53832e+06
2.53776e+06
2.53692e+06
2.53581e+06
2.53443e+06
2.53276e+06
2.53082e+06
2.52859e+06
2.52609e+06
2.5233e+06
2.52024e+06
2.5169e+06
2.51329e+06
2.5094e+06
2.50525e+06
2.50084e+06
2.49616e+06
2.49123e+06
2.48605e+06
2.48062e+06
2.47494e+06
2.46903e+06
2.46288e+06
2.45651e+06
2.44991e+06
2.44309e+06
2.43605e+06
2.42881e+06
2.42135e+06
2.4137e+06
2.40584e+06
2.39779e+06
2.38955e+06
2.38112e+06
2.37251e+06
2.36372e+06
2.35475e+06
2.34562e+06
2.33631e+06
2.32683e+06
2.3172e+06
2.3074e+06
2.29745e+06
2.28735e+06
2.27709e+06
2.26669e+06
2.25613e+06
2.24544e+06
2.23461e+06
2.22363e+06
2.21253e+06
2.20129e+06
2.18991e+06
2.17842e+06
2.16679e+06
2.15505e+06
2.14318e+06
2.1312e+06
2.11911e+06
2.1069e+06
2.09457e+06
2.08215e+06
2.06961e+06
2.05697e+06
2.04422e+06
2.03138e+06
2.01843e+06
2.00539e+06
1.99225e+06
1.97902e+06
1.96569e+06
1.95228e+06
1.93878e+06
1.92519e+06
1.91151e+06
1.89775e+06
1.88391e+06
1.86998e+06
1.85598e+06
1.8419e+06
1.82774e+06
1.8135e+06
1.79919e+06
1.7848e+06
1.77034e+06
1.75582e+06
1.74122e+06
1.72656e+06
1.71183e+06
1.69704e+06
1.68218e+06
1.66726e+06
1.65228e+06
1.63725e+06
1.62215e+06
1.607e+06
1.5918e+06
1.57654e+06
1.56123e+06
1.54586e+06
1.53045e+06
1.51499e+06
1.49948e+06
1.48393e+06
1.46833e+06
1.45269e+06
1.43701e+06
1.42129e+06
1.40552e+06
1.38973e+06
1.37389e+06
1.35802e+06
1.34212e+06
1.32618e+06
1.31022e+06
1.29422e+06
1.2782e+06
1.26215e+06
1.24608e+06
1.22999e+06
1.21387e+06
1.19774e+06
1.18158e+06
1.16541e+06
1.14923e+06
1.13303e+06
1.11682e+06
1.10061e+06
1.08438e+06
1.06815e+06
1.05192e+06
1.03568e+06
1.01945e+06
1.00322e+06
986996
970777
954569
938371
922188
906021
889872
873745
857641
841563
825514
809496
793512
777565
761658
745793
729973
714202
698483
682818
667211
651665
636184
620771
605429
590163
574975
559870
544851
529922
515089
500354
485722
471198
456786
442491
428319
414274
400361
386587
372955
359471
346134
332944
319890
2.54868e+06
2.54835e+06
2.54774e+06
2.54684e+06
2.54565e+06
2.54416e+06
2.54238e+06
2.5403e+06
2.53792e+06
2.53526e+06
2.53229e+06
2.52904e+06
2.52551e+06
2.52169e+06
2.51759e+06
2.51322e+06
2.50858e+06
2.50368e+06
2.49852e+06
2.49311e+06
2.48744e+06
2.48154e+06
2.4754e+06
2.46903e+06
2.46243e+06
2.45561e+06
2.44857e+06
2.44132e+06
2.43387e+06
2.42621e+06
2.41835e+06
2.4103e+06
2.40207e+06
2.39364e+06
2.38504e+06
2.37625e+06
2.3673e+06
2.35817e+06
2.34888e+06
2.33942e+06
2.3298e+06
2.32003e+06
2.3101e+06
2.30002e+06
2.28979e+06
2.27942e+06
2.2689e+06
2.25824e+06
2.24744e+06
2.23651e+06
2.22544e+06
2.21424e+06
2.20291e+06
2.19145e+06
2.17987e+06
2.16817e+06
2.15635e+06
2.14442e+06
2.13237e+06
2.12021e+06
2.10794e+06
2.09556e+06
2.08307e+06
2.07048e+06
2.05779e+06
2.045e+06
2.03211e+06
2.01912e+06
2.00604e+06
1.99286e+06
1.97959e+06
1.96624e+06
1.95279e+06
1.93926e+06
1.92564e+06
1.91193e+06
1.89815e+06
1.88428e+06
1.87034e+06
1.85631e+06
1.84221e+06
1.82803e+06
1.81377e+06
1.79944e+06
1.78504e+06
1.77057e+06
1.75602e+06
1.74141e+06
1.72674e+06
1.712e+06
1.69719e+06
1.68232e+06
1.6674e+06
1.65241e+06
1.63736e+06
1.62226e+06
1.6071e+06
1.59189e+06
1.57662e+06
1.56131e+06
1.54594e+06
1.53052e+06
1.51505e+06
1.49954e+06
1.48398e+06
1.46838e+06
1.45273e+06
1.43705e+06
1.42132e+06
1.40556e+06
1.38976e+06
1.37392e+06
1.35805e+06
1.34214e+06
1.32621e+06
1.31024e+06
1.29424e+06
1.27822e+06
1.26217e+06
1.2461e+06
1.23e+06
1.21388e+06
1.19775e+06
1.18159e+06
1.16542e+06
1.14923e+06
1.13304e+06
1.11683e+06
1.10061e+06
1.08439e+06
1.06816e+06
1.05192e+06
1.03569e+06
1.01945e+06
1.00322e+06
986998
970780
954571
938373
922190
906023
889874
873746
857642
841564
825515
809497
793513
777566
761658
745793
729974
714203
698483
682818
667211
651665
636184
620770
605428
590161
574973
559867
544847
529918
515083
500347
485713
471186
456771
442473
428295
414244
400323
386538
372892
359389
346030
332811
319725
2.56002e+06
2.55967e+06
2.559e+06
2.55802e+06
2.55672e+06
2.55511e+06
2.55318e+06
2.55094e+06
2.54839e+06
2.54552e+06
2.54235e+06
2.53887e+06
2.5351e+06
2.53104e+06
2.52669e+06
2.52206e+06
2.51716e+06
2.512e+06
2.50657e+06
2.50089e+06
2.49497e+06
2.4888e+06
2.4824e+06
2.47577e+06
2.46891e+06
2.46184e+06
2.45456e+06
2.44708e+06
2.43939e+06
2.43151e+06
2.42343e+06
2.41517e+06
2.40672e+06
2.39809e+06
2.38929e+06
2.38032e+06
2.37118e+06
2.36188e+06
2.35242e+06
2.3428e+06
2.33302e+06
2.3231e+06
2.31302e+06
2.30281e+06
2.29244e+06
2.28194e+06
2.2713e+06
2.26052e+06
2.24961e+06
2.23857e+06
2.22739e+06
2.21609e+06
2.20467e+06
2.19312e+06
2.18145e+06
2.16966e+06
2.15776e+06
2.14575e+06
2.13363e+06
2.1214e+06
2.10906e+06
2.09662e+06
2.08407e+06
2.07143e+06
2.05868e+06
2.04584e+06
2.0329e+06
2.01987e+06
2.00674e+06
1.99352e+06
1.98022e+06
1.96682e+06
1.95334e+06
1.93977e+06
1.92612e+06
1.91239e+06
1.89858e+06
1.88469e+06
1.87072e+06
1.85667e+06
1.84254e+06
1.82834e+06
1.81407e+06
1.79972e+06
1.7853e+06
1.77081e+06
1.75625e+06
1.74162e+06
1.72693e+06
1.71218e+06
1.69736e+06
1.68248e+06
1.66754e+06
1.65255e+06
1.63749e+06
1.62238e+06
1.60721e+06
1.59199e+06
1.57672e+06
1.56139e+06
1.54601e+06
1.53059e+06
1.51512e+06
1.4996e+06
1.48404e+06
1.46843e+06
1.45278e+06
1.43709e+06
1.42136e+06
1.4056e+06
1.38979e+06
1.37395e+06
1.35808e+06
1.34217e+06
1.32623e+06
1.31026e+06
1.29426e+06
1.27824e+06
1.26219e+06
1.24611e+06
1.23001e+06
1.21389e+06
1.19776e+06
1.1816e+06
1.16543e+06
1.14924e+06
1.13304e+06
1.11683e+06
1.10062e+06
1.08439e+06
1.06816e+06
1.05193e+06
1.03569e+06
1.01946e+06
1.00323e+06
987001
970783
954573
938376
922192
906025
889876
873748
857644
841566
825516
809498
793514
777567
761659
745794
729974
714203
698483
682818
667211
651665
636183
620770
605427
590160