/*--------------------------------*- C++ -*----------------------------------*\
  =========                 |
  \\      /  F ield         | OpenFOAM: The Open Source CFD Toolbox
   \\    /   O peration     | Website:  https://openfoam.org
    \\  /    A nd           | Version:  7
     \\/     M anipulation  |
\*---------------------------------------------------------------------------*/
FoamFile
{
    version     2.0;
    format      ascii;
    class       volScalarField;
    location    "0.094";
    object      s;
}
// * * * * * * * * * * * * * * * * * * * * * * * * * * * * * * * * * * * * * //

dimensions      [0 0 0 0 0 0 0];

internalField   nonuniform List<scalar> 
12225
(
1
1
1
1
1
1
1
1
1
1
1
1
1
1
1
1
1
1
1
1
1
1
1
1
1
1
1
1
1
1
1
1
1
1
1
1
1
1
1
1
1
1
1
1
1
1
1
1
1
1
1
1
1
1
1
1
1
1
1
1
1
1
1
1
1
1
1
1
1
1
1
1
1
1
1
1
1
1
1
1
1
1
1
1
1
1
1
1
1
1
1
1
1
1
1
1
1
1
1
1
1
1
1
1
1
1
1
1
1
1
1
1
1
1
1
1
1
1
1
1
1
1
1
1
1
1
1
1
1
1
1
1
1
1
1
1
1
1
1
1
1
1
1
1
1
1
1
1
1
1
1
1
1
1
1
1
1
1
1
1
1
1
1
1
1
1
1
1
1
1
1
1
1
1
1
1
1
1
1
1
1
1
1
1
1
1
1
1
1
1
1
1
1
1
1
1
1
1
1
1
1
1
1
1
1
1
1
1
1
1
1
1
1
1
1
1
1
1
1
1
1
1
1
1
1
1
1
1
1
1
1
1
1
1
1
1
1
1
1
1
1
1
1
1
1
1
1
1
1
1
1
1
1
1
1
1
1
1
1
1
1
1
1
1
1
1
1
1
1
1
1
1
1
1
1
1
1
1
1
1
1
1
1
1
1
1
1
1
1
1
1
1
1
1
1
1
1
1
1
1
1
1
1
1
1
1
1
1
1
1
1
1
1
1
1
1
1
1
1
1
1
1
1
1
1
1
1
1
1
1
1
1
1
1
1
1
1
1
1
1
1
1
1
1
1
1
1
1
1
1
1
1
1
1
1
1
1
1
1
1
1
1
1
1
1
1
1
1
1
1
1
1
1
1
1
1
1
1
1
1
1
1
1
1
1
1
1
1
1
1
1
1
1
1
1
1
1
1
1
1
1
1
1
1
1
1
1
1
1
1
1
1
1
1
1
1
1
1
1
1
1
1
1
1
1
1
1
1
1
1
1
1
1
1
1
1
1
1
1
1
1
1
1
1
1
1
1
1
1
1
1
1
1
1
1
1
1
1
1
1
1
1
1
1
1
1
1
1
1
1
1
1
1
1
1
1
1
1
1
1
1
1
1
1
1
1
1
1
1
1
1
1
1
1
1
1
1
1
1
1
1
1
1
1
1
1
1
1
1
1
1
1
1
1
1
1
1
1
1
1
1
1
1
1
1
1
1
1
1
1
1
1
1
1
1
1
1
1
1
1
0.152283
0.160351
0.2024
0.242425
0.254021
0.249632
0.233917
0.207986
0.203863
0.208679
0.234565
0.2775
0.317766
0.3454
0.366934
0.38763
0.402342
0.410295
0.414271
0.417265
0.420565
0.421978
0.422167
0.421707
0.419703
0.41569
0.410959
0.40651
0.392783
0.345477
0.269802
0.249457
0.249109
0.259719
0.268065
0.269359
0.269607
0.270055
0.272394
0.278996
0.292146
0.313838
0.345668
0.384129
0.421484
0.45161
0.474444
0.492084
0.505551
0.514323
0.519992
0.521881
0.515912
0.507403
0.50919
0.541904
0.554167
0.540772
0.512963
0.466964
0.352354
0.238756
0.203003
0.213873
0.316969
0.407424
0.417667
0.399485
0.366844
0.333889
0.301823
0.291312
0.31498
0.364772
0.382259
0.390903
0.394631
0.392899
0.408387
0.473624
0.653173
0.803784
0.865537
0.879267
0.881234
0.882025
0.882764
0.883306
0.883604
0.883958
0.884482
0.884858
0.885038
0.885101
0.885127
0.885151
0.885176
0.88519
0.885153
0.884926
0.884673
0.884649
0.884896
0.885015
0.885119
0.88547
0.886058
0.886565
0.88703
0.887358
0.887815
0.888423
0.889036
0.8897
0.89059
0.891596
0.892524
0.893666
0.894905
0.896193
0.897335
0.89853
0.899595
0.900556
0.901438
0.902229
0.902892
0.90348
0.90394
0.90414
0.904057
0.903437
0.902096
0.899328
0.894895
0.890658
0.88782
0.885047
0.879679
0.867756
0.847773
0.827522
0.813569
0.800516
0.776299
0.722298
0.605134
0.445952
0.282729
0.152416
0.0699581
0.027674
0.00962097
0.0029968
0.000844962
0.000226238
9.31812e-05
4.86808e-05
2.44463e-05
1.21319e-05
5.99872e-06
2.97596e-06
1.49026e-06
7.56163e-07
3.8901e-07
2.02376e-07
1.0593e-07
5.54497e-08
2.88524e-08
1.48477e-08
7.5247e-09
3.74436e-09
1.82414e-09
8.68491e-10
4.02812e-10
1.81614e-10
7.93636e-11
3.28876e-11
1.43552e-11
-3.12354e-12
0.157957
0.311113
0.451916
0.482185
0.47916
0.470895
0.463499
0.45173
0.424426
0.358127
0.292505
0.278393
0.27915
0.284855
0.306399
0.360257
0.395329
0.412491
0.425828
0.44099
0.446924
0.447815
0.444919
0.431407
0.400771
0.377635
0.374566
0.377503
0.375432
0.351765
0.33189
0.346442
0.446997
0.589752
0.638072
0.659209
0.683479
0.726303
0.769835
0.79691
0.818906
0.845187
0.872341
0.895968
0.912455
0.923964
0.932303
0.938488
0.94267
0.944556
0.94525
0.944841
0.941189
0.935138
0.927492
0.915709
0.88407
0.837813
0.80627
0.793005
0.773708
0.708386
0.463692
0.299659
0.28899
0.331239
0.397604
0.381821
0.346929
0.336871
0.369354
0.418397
0.437862
0.420221
0.400368
0.41694
0.490448
0.540573
0.553197
0.595477
0.787826
0.867244
0.876482
0.878305
0.877741
0.87621
0.873961
0.870884
0.867072
0.862881
0.858297
0.853057
0.847559
0.841802
0.835797
0.829684
0.823847
0.819097
0.815035
0.811224
0.808886
0.807393
0.806415
0.805921
0.805778
0.806617
0.807045
0.807665
0.808657
0.80925
0.810386
0.811594
0.813056
0.815114
0.817946
0.82156
0.825995
0.831335
0.837603
0.84495
0.852471
0.86048
0.868601
0.876438
0.883829
0.890473
0.896286
0.901766
0.906892
0.911644
0.915952
0.919772
0.923134
0.926104
0.928736
0.931083
0.933223
0.935258
0.93698
0.938033
0.938307
0.937822
0.934308
0.923275
0.913983
0.90542
0.887433
0.858932
0.826301
0.780268
0.709004
0.629109
0.574925
0.556876
0.554726
0.550577
0.530529
0.456897
0.354186
0.268333
0.198459
0.142691
0.0994588
0.0670742
0.0437063
0.0275085
0.0167249
0.0098331
0.00559388
0.00308499
0.00164917
0.000856975
0.000431753
0.000211987
0.000100583
4.65873e-05
2.08252e-05
8.60674e-06
4.6771e-06
-5.02373e-06
0.333595
0.54514
0.543859
0.525898
0.501973
0.474365
0.470963
0.475672
0.490098
0.490086
0.478591
0.440912
0.39113
0.324286
0.313519
0.326364
0.362817
0.403413
0.4397
0.463251
0.455918
0.427169
0.391898
0.379702
0.368674
0.366542
0.376761
0.397003
0.427833
0.482937
0.604082
0.764484
0.840259
0.890367
0.923576
0.939942
0.956157
0.966818
0.975131
0.98251
0.985594
0.988173
0.990723
0.992383
0.993363
0.994156
0.994555
0.994706
0.994702
0.994071
0.992158
0.988658
0.982949
0.972767
0.955355
0.92286
0.847629
0.78175
0.747824
0.749897
0.759652
0.769834
0.756342
0.663126
0.418688
0.364558
0.372285
0.373063
0.345267
0.278704
0.255914
0.288267
0.302017
0.284861
0.290342
0.345979
0.48776
0.584533
0.701945
0.813353
0.863467
0.871662
0.872955
0.868582
0.860599
0.849361
0.834121
0.814012
0.794475
0.77649
0.760643
0.746055
0.734998
0.726316
0.719911
0.716077
0.714231
0.71355
0.713503
0.715422
0.716664
0.718814
0.72064
0.722047
0.723501
0.725604
0.726763
0.72834
0.729984
0.731353
0.732834
0.73431
0.735627
0.73694
0.738241
0.739497
0.740773
0.742089
0.743715
0.746283
0.749739
0.754352
0.760158
0.767438
0.776493
0.787698
0.801014
0.815545
0.831215
0.847632
0.864193
0.879721
0.892592
0.903336
0.912308
0.91948
0.925128
0.929561
0.933177
0.93659
0.940316
0.943905
0.945916
0.946034
0.944492
0.936339
0.916803
0.902745
0.895513
0.891497
0.889258
0.889163
0.89174
0.898048
0.90405
0.907953
0.908781
0.906351
0.890823
0.865948
0.851026
0.834447
0.798608
0.703285
0.561035
0.426848
0.314724
0.227074
0.160042
0.110167
0.0737241
0.048063
0.0303003
0.0186176
0.0109919
0.00635084
0.00349863
0.00187911
0.00100034
0.000406047
0.595453
0.585701
0.548914
0.466193
0.402754
0.363933
0.347101
0.348734
0.361015
0.398189
0.448696
0.463693
0.461467
0.440773
0.389631
0.354665
0.368194
0.405759
0.46146
0.464287
0.423984
0.374486
0.370982
0.37345
0.373632
0.38577
0.430477
0.520868
0.685684
0.842558
0.910671
0.947148
0.966907
0.979734
0.987774
0.991213
0.993248
0.994572
0.995437
0.996046
0.996411
0.996667
0.997195
0.997459
0.99778
0.997903
0.997967
0.99797
0.997758
0.997121
0.995638
0.99264
0.985796
0.972591
0.948133
0.895388
0.797571
0.710017
0.67009
0.66168
0.668625
0.693154
0.724696
0.721279
0.674172
0.500729
0.408167
0.388375
0.359573
0.291543
0.24943
0.235551
0.237893
0.250873
0.272212
0.361083
0.628103
0.759918
0.823367
0.856934
0.865225
0.86523
0.854106
0.832297
0.801493
0.770281
0.742863
0.723603
0.708256
0.698697
0.692558
0.689846
0.689076
0.689358
0.691782
0.69462
0.698574
0.702636
0.707907
0.713901
0.718625
0.7226
0.726288
0.729332
0.731343
0.733886
0.735727
0.737488
0.739539
0.741301
0.743102
0.744785
0.746075
0.746701
0.746859
0.746001
0.744117
0.741626
0.739403
0.737544
0.73616
0.735448
0.735403
0.736025
0.737396
0.739504
0.742447
0.746207
0.751685
0.759497
0.770333
0.786012
0.808097
0.834208
0.860632
0.883538
0.901449
0.915597
0.926502
0.933745
0.937391
0.938907
0.940827
0.946887
0.954422
0.956388
0.955653
0.95009
0.929157
0.910164
0.902548
0.901524
0.902418
0.90742
0.923664
0.943172
0.957929
0.966753
0.970529
0.971553
0.971614
0.970828
0.966118
0.95074
0.937627
0.925082
0.89983
0.835045
0.677245
0.50872
0.366494
0.257095
0.174991
0.116242
0.0745007
0.0466254
0.0280554
0.0163452
0.00949666
0.00456475
0.59379
0.563506
0.472056
0.394428
0.348286
0.323403
0.3095
0.303829
0.305515
0.315573
0.348342
0.429699
0.460656
0.466208
0.454571
0.425804
0.42118
0.44722
0.464138
0.42349
0.378717
0.373413
0.377936
0.393546
0.420501
0.492831
0.646086
0.830334
0.921249
0.961646
0.978327
0.985543
0.988741
0.9902
0.990735
0.990845
0.990779
0.990407
0.990277
0.990239
0.990795
0.991057
0.992235
0.993129
0.994423
0.99521
0.996322
0.996954
0.997273
0.99732
0.99663
0.995139
0.990413
0.979539
0.954129
0.898732
0.79968
0.702505
0.658948
0.639974
0.638875
0.652839
0.688331
0.70744
0.703591
0.668692
0.540694
0.439217
0.401015
0.341002
0.27604
0.251843
0.252928
0.260905
0.278252
0.384624
0.709603
0.823512
0.849283
0.85732
0.856853
0.83694
0.796762
0.758262
0.727561
0.70557
0.691105
0.684191
0.68145
0.681158
0.68469
0.688947
0.694034
0.703483
0.716308
0.731905
0.744178
0.75366
0.761605
0.765724
0.770053
0.77288
0.775951
0.779304
0.782004
0.784695
0.7882
0.790401
0.793596
0.796059
0.79867
0.801033
0.803184
0.80481
0.805976
0.806515
0.805974
0.803343
0.796705
0.786919
0.776772
0.766746
0.758372
0.752114
0.747242
0.743984
0.742494
0.742295
0.74308
0.745358
0.74869
0.753078
0.759423
0.769964
0.78694
0.810501
0.83662
0.862359
0.887704
0.912469
0.931964
0.942326
0.945508
0.945915
0.946311
0.948775
0.957432
0.961133
0.96036
0.953502
0.930664
0.912364
0.905069
0.904174
0.905832
0.914871
0.937005
0.954356
0.967373
0.977678
0.984754
0.988409
0.989497
0.989522
0.989151
0.987984
0.985506
0.980349
0.969321
0.944336
0.875811
0.701778
0.515264
0.363431
0.247231
0.163623
0.105279
0.0650771
0.0407588
0.021581
0.595769
0.543387
0.447438
0.376068
0.335285
0.313972
0.303274
0.294533
0.29284
0.295075
0.308037
0.356833
0.445605
0.476604
0.480587
0.471054
0.461762
0.457637
0.427596
0.389625
0.382744
0.392749
0.4258
0.489668
0.60965
0.76691
0.895057
0.951364
0.974315
0.981894
0.984069
0.984546
0.98372
0.979472
0.975364
0.97037
0.966123
0.963893
0.962845
0.96268
0.965075
0.966533
0.970834
0.973835
0.978694
0.98244
0.987498
0.990948
0.994419
0.996149
0.997012
0.997254
0.997201
0.995561
0.989332
0.969129
0.905315
0.761645
0.674027
0.638777
0.626003
0.633067
0.665835
0.697218
0.706467
0.701393
0.671415
0.572766
0.477424
0.405582
0.33819
0.301864
0.290015
0.291367
0.30004
0.386373
0.71989
0.837788
0.849091
0.849717
0.824074
0.773141
0.734837
0.704714
0.686458
0.677718
0.67454
0.675233
0.679193
0.684002
0.694575
0.711042
0.736895
0.753396
0.764661
0.769568
0.772812
0.774401
0.775155
0.776027
0.777172
0.778564
0.780797
0.783779
0.786981
0.790081
0.794589
0.797671
0.801665
0.804853
0.807982
0.810885
0.813679
0.815993
0.818437
0.820954
0.823964
0.827574
0.831855
0.833534
0.832703
0.82898
0.821468
0.810642
0.79862
0.787484
0.777588
0.769504
0.763359
0.758988
0.756454
0.755781
0.756793
0.760746
0.767229
0.780012
0.80247
0.828628
0.851483
0.871706
0.895881
0.9234
0.943835
0.952535
0.953838
0.953516
0.9538
0.956281
0.963284
0.964821
0.962966
0.951263
0.925581
0.911936
0.907672
0.907508
0.909582
0.920331
0.944821
0.963712
0.976442
0.984777
0.990289
0.993719
0.99548
0.996095
0.996162
0.996028
0.99536
0.993236
0.987237
0.971094
0.925761
0.786661
0.5837
0.412017
0.282155
0.183741
0.122693
0.0702375
0.598945
0.535373
0.444213
0.37258
0.332923
0.31283
0.3025
0.293019
0.290683
0.294941
0.311338
0.366154
0.458606
0.490028
0.489007
0.475857
0.458824
0.432521
0.407144
0.399571
0.421441
0.483954
0.607815
0.728458
0.847906
0.925825
0.961549
0.974444
0.978038
0.978617
0.973916
0.962693
0.946615
0.932528
0.924578
0.91588
0.912046
0.909994
0.909211
0.909316
0.911683
0.914544
0.920095
0.926776
0.936338
0.947476
0.960502
0.971646
0.982321
0.990032
0.994703
0.996886
0.997806
0.99809
0.997508
0.993333
0.97668
0.919858
0.766091
0.669548
0.627121
0.611383
0.612844
0.647388
0.693974
0.709162
0.705288
0.680331
0.610575
0.507201
0.430884
0.373709
0.330944
0.316736
0.319868
0.388951
0.710984
0.836776
0.844802
0.825363
0.764117
0.724511
0.693656
0.677153
0.669866
0.667673
0.671311
0.676601
0.685861
0.703664
0.737519
0.754931
0.762901
0.76606
0.766963
0.766684
0.762904
0.755251
0.749699
0.747359
0.746254
0.745874
0.746884
0.748752
0.752274
0.756936
0.763966
0.771981
0.780025
0.787452
0.79331
0.798754
0.80404
0.808325
0.81245
0.816855
0.822006
0.827709
0.834753
0.842924
0.84865
0.851831
0.852596
0.851528
0.847385
0.838899
0.828045
0.816051
0.804687
0.79497
0.786817
0.77992
0.774545
0.771488
0.770851
0.772195
0.779451
0.802459
0.835228
0.861489
0.878861
0.896231
0.920798
0.944188
0.957259
0.960646
0.960275
0.960115
0.960996
0.965454
0.968915
0.968517
0.963873
0.944124
0.923453
0.915478
0.914466
0.915735
0.922464
0.942206
0.961462
0.975531
0.985011
0.990978
0.994634
0.996842
0.998022
0.998482
0.998554
0.998479
0.998031
0.996416
0.991325
0.976002
0.930203
0.785588
0.588837
0.412891
0.295444
0.181452
0.600382
0.534713
0.465491
0.386636
0.344857
0.325352
0.31576
0.31109
0.307588
0.314559
0.341714
0.416818
0.477847
0.489809
0.483838
0.458273
0.438445
0.429123
0.42449
0.464646
0.578789
0.715651
0.81694
0.891656
0.941388
0.962807
0.970002
0.971799
0.968674
0.954056
0.928788
0.911426
0.902759
0.896798
0.893117
0.891281
0.89048
0.890243
0.89055
0.89107
0.891471
0.89247
0.893437
0.895043
0.897758
0.902607
0.91139
0.927929
0.949193
0.970498
0.985164
0.992653
0.996488
0.99817
0.998635
0.998413
0.995301
0.982016
0.935643
0.799891
0.680876
0.621828
0.59935
0.596029
0.614003
0.671112
0.707075
0.707017
0.690538
0.6412
0.546499
0.457863
0.398948
0.377538
0.380121
0.421478
0.693927
0.832655
0.834236
0.774236
0.722177
0.690183
0.672203
0.664884
0.662629
0.666339
0.673092
0.685925
0.714459
0.743877
0.75624
0.760386
0.761399
0.758855
0.746628
0.73166
0.725714
0.723808
0.724875
0.7289
0.730718
0.73143
0.731616
0.729859
0.727534
0.724857
0.722828
0.722529
0.725804
0.732636
0.742325
0.753024
0.765416
0.777326
0.786966
0.796549
0.807005
0.819485
0.832821
0.845699
0.855696
0.863204
0.867956
0.869941
0.870113
0.868904
0.864347
0.85569
0.843495
0.829222
0.815418
0.803884
0.794892
0.788117
0.783733
0.781977
0.782077
0.785209
0.800201
0.841346
0.875364
0.892694
0.905901
0.925979
0.947572
0.96153
0.966608
0.96674
0.965998
0.966461
0.969162
0.97315
0.973438
0.971488
0.961049
0.939866
0.929225
0.927052
0.927966
0.933055
0.948856
0.965517
0.97777
0.986354
0.992015
0.995476
0.997482
0.998605
0.999157
0.999337
0.999344
0.99924
0.998721
0.996864
0.990803
0.971801
0.915421
0.741563
0.574258
0.387468
0.604163
0.557818
0.511217
0.42608
0.373609
0.351713
0.344559
0.346051
0.353149
0.369305
0.406203
0.451866
0.472141
0.474739
0.459044
0.446553
0.442262
0.454868
0.509758
0.672361
0.796364
0.864465
0.920167
0.947488
0.9602
0.964079
0.964795
0.954429
0.929056
0.906952
0.897102
0.891396
0.888888
0.887721
0.887292
0.887218
0.88757
0.888075
0.888771
0.889467
0.890102
0.890827
0.891124
0.89115
0.891525
0.89227
0.893683
0.89801
0.907706
0.929111
0.961037
0.981305
0.991388
0.996461
0.998606
0.99916
0.999178
0.997399
0.989287
0.958486
0.852942
0.709403
0.632539
0.598945
0.58805
0.590688
0.630013
0.690743
0.698716
0.690358
0.6542
0.590189
0.542368
0.473205
0.426877
0.449354
0.68517
0.826833
0.808603
0.734191
0.69251
0.670534
0.660996
0.658293
0.660873
0.66744
0.680659
0.713379
0.742189
0.753397
0.756265
0.756679
0.747436
0.724305
0.711252
0.708287
0.709674
0.720161
0.72758
0.735869
0.74597
0.752528
0.755331
0.752167
0.744054
0.732137
0.721667
0.71429
0.710411
0.709149
0.71038
0.713887
0.720592
0.732173
0.749988
0.769143
0.7911
0.814049
0.832508
0.850225
0.865517
0.879331
0.890608
0.898101
0.90116
0.901321
0.900705
0.898329
0.891852
0.880534
0.865273
0.847996
0.831527
0.817043
0.804873
0.796033
0.791726
0.791098
0.792604
0.802108
0.839659
0.886812
0.913626
0.924174
0.936044
0.952707
0.96556
0.971371
0.97221
0.971665
0.971853
0.97353
0.977425
0.978266
0.977459
0.972744
0.958334
0.948029
0.944825
0.945031
0.947977
0.958634
0.972197
0.982144
0.989003
0.993515
0.996352
0.998026
0.998952
0.99943
0.999627
0.999663
0.999636
0.999448
0.998687
0.996066
0.987681
0.961074
0.891142
0.685517
0.613341
0.576496
0.540106
0.464014
0.399179
0.376087
0.370631
0.375128
0.388967
0.409049
0.435564
0.455067
0.461398
0.461518
0.45862
0.459371
0.485888
0.569153
0.733323
0.842845
0.901236
0.931925
0.950105
0.956913
0.95892
0.957058
0.942135
0.912776
0.898696
0.891503
0.88831
0.886767
0.886026
0.885644
0.885526
0.885626
0.886089
0.886597
0.887714
0.888761
0.890233
0.891846
0.893359
0.894037
0.894179
0.89293
0.892248
0.893055
0.895442
0.902627
0.919459
0.958386
0.980474
0.99162
0.996949
0.999037
0.999559
0.999647
0.998827
0.994387
0.974527
0.893984
0.744389
0.667744
0.627355
0.59611
0.575668
0.581133
0.64447
0.672953
0.66699
0.644876
0.588936
0.490468
0.439272
0.463089
0.686597
0.82123
0.777914
0.705158
0.673085
0.658891
0.654491
0.654821
0.661101
0.671484
0.699896
0.736401
0.74996
0.752949
0.752415
0.7394
0.709363
0.698538
0.696836
0.699887
0.707226
0.712
0.719628
0.734398
0.749264
0.764459
0.776362
0.782106
0.784728
0.780017
0.764777
0.740359
0.71792
0.709079
0.706886
0.707373
0.70926
0.71465
0.727665
0.75475
0.785258
0.813079
0.840723
0.867531
0.88775
0.905442
0.920425
0.932065
0.941658
0.945714
0.945557
0.944015
0.940262
0.932238
0.918415
0.897832
0.875617
0.85699
0.842553
0.829781
0.818234
0.810489
0.808261
0.809403
0.816669
0.848101
0.898456
0.92792
0.940873
0.95033
0.961658
0.971112
0.975775
0.97678
0.976638
0.976762
0.977981
0.981492
0.98286
0.982642
0.980599
0.972682
0.964808
0.961892
0.961652
0.962986
0.969019
0.979124
0.98671
0.991886
0.995233
0.997311
0.99855
0.999246
0.999608
0.999771
0.999813
0.999807
0.999732
0.999397
0.998206
0.994269
0.982424
0.932447
0.625677
0.612712
0.594593
0.537806
0.445497
0.406847
0.397043
0.396968
0.414571
0.427883
0.446675
0.459276
0.464515
0.469851
0.48261
0.526627
0.645481
0.790648
0.871639
0.917474
0.939914
0.950061
0.954002
0.954984
0.94977
0.931073
0.906498
0.894554
0.888848
0.885952
0.884081
0.882646
0.881366
0.880441
0.879689
0.87921
0.879051
0.879375
0.880236
0.881811
0.884102
0.887571
0.891764
0.895004
0.897861
0.899164
0.897444
0.894546
0.893892
0.896079
0.902412
0.921318
0.962136
0.982871
0.993248
0.997748
0.999394
0.99979
0.999863
0.999496
0.996796
0.980566
0.894024
0.774519
0.732382
0.711002
0.657936
0.578794
0.546384
0.562799
0.6085
0.613594
0.581873
0.486945
0.443166
0.475023
0.695064
0.809617
0.752728
0.68517
0.660042
0.650982
0.649689
0.653657
0.662094
0.679914
0.722745
0.744614
0.75
0.750655
0.740536
0.703376
0.685746
0.679895
0.673251
0.665761
0.650192
0.636546
0.632003
0.653922
0.694032
0.730331
0.764136
0.781776
0.789781
0.79226
0.790623
0.782575
0.757941
0.726263
0.711652
0.707539
0.707602
0.71006
0.719483
0.74708
0.783485
0.821653
0.860015
0.89503
0.922115
0.945269
0.961772
0.971487
0.978855
0.983444
0.984759
0.984619
0.98379
0.981781
0.977574
0.968057
0.943315
0.905656
0.872814
0.854117
0.844993
0.839058
0.834482
0.832318
0.83316
0.840971
0.871926
0.918289
0.943636
0.954081
0.962198
0.970487
0.977024
0.980235
0.981022
0.981037
0.981154
0.982118
0.985173
0.987002
0.987128
0.986457
0.983045
0.977469
0.974892
0.974399
0.974931
0.978052
0.985116
0.99064
0.994365
0.996731
0.998171
0.999017
0.999494
0.999743
0.999859
0.999895
0.999894
0.999862
0.999707
0.999138
0.997273
0.987027
0.631138
0.627651
0.627162
0.604395
0.523919
0.456987
0.434051
0.428652
0.435978
0.449427
0.463577
0.475295
0.489538
0.520648
0.59186
0.710873
0.82138
0.892615
0.926415
0.942768
0.949375
0.951332
0.951881
0.945767
0.924311
0.904163
0.892567
0.886929
0.883531
0.881375
0.879138
0.877695
0.876675
0.875942
0.875601
0.875465
0.875443
0.875689
0.876001
0.876462
0.877154
0.87839
0.881001
0.88713
0.895479
0.900538
0.902455
0.902116
0.897485
0.895296
0.897375
0.904443
0.934809
0.969334
0.987298
0.99539
0.998571
0.999647
0.999905
0.999936
0.999672
0.997067
0.97474
0.853577
0.78196
0.778086
0.781586
0.764534
0.671774
0.576386
0.557235
0.551644
0.537626
0.472478
0.444073
0.484549
0.709814
0.791758
0.730208
0.67134
0.65079
0.645559
0.646381
0.653111
0.664034
0.696903
0.733051
0.745954
0.749032
0.744549
0.714881
0.676619
0.664326
0.648241
0.612476
0.53888
0.454928
0.419802
0.410596
0.465584
0.551362
0.631697
0.704264
0.753798
0.780089
0.790361
0.791903
0.788889
0.777558
0.746323
0.719798
0.708854
0.707198
0.708364
0.716787
0.744308
0.79095
0.842236
0.886754
0.922767
0.953405
0.972265
0.982947
0.989149
0.992702
0.994876
0.996019
0.99625
0.996191
0.995918
0.995213
0.993657
0.990156
0.980763
0.948765
0.902007
0.872423
0.858917
0.854695
0.854139
0.854776
0.858416
0.877161
0.915767
0.94475
0.960314
0.966403
0.971931
0.977743
0.98213
0.984181
0.984692
0.984753
0.984877
0.985712
0.988392
0.990469
0.990959
0.990797
0.989573
0.985944
0.98364
0.983046
0.983249
0.985019
0.989766
0.993685
0.996267
0.997874
0.998831
0.99938
0.999685
0.999844
0.999918
0.999942
0.999943
0.999928
0.999852
0.999566
0.997685
0.634884
0.640929
0.665088
0.654378
0.606987
0.547839
0.515091
0.491453
0.484548
0.493325
0.508898
0.535028
0.590217
0.671241
0.766067
0.84792
0.901717
0.930743
0.9435
0.94847
0.94965
0.948982
0.942259
0.921545
0.903485
0.891687
0.885562
0.882262
0.87954
0.87757
0.876141
0.87528
0.874863
0.874673
0.874621
0.874655
0.874717
0.874917
0.875103
0.875469
0.875866
0.876351
0.877197
0.879079
0.883687
0.895712
0.903006
0.905382
0.90429
0.898079
0.896622
0.898692
0.911887
0.950634
0.978471
0.991954
0.997301
0.999207
0.999815
0.999953
0.999957
0.999634
0.995385
0.944267
0.819421
0.80266
0.814729
0.814975
0.80421
0.743146
0.613236
0.563262
0.522852
0.464972
0.447161
0.493703
0.721753
0.775246
0.710336
0.658861
0.643302
0.64127
0.643921
0.651952
0.668616
0.70903
0.736082
0.745398
0.745513
0.729519
0.682357
0.654721
0.6359
0.576351
0.444436
0.325304
0.274478
0.257586
0.266829
0.303008
0.386138
0.521583
0.628535
0.706798
0.754159
0.77793
0.785704
0.786126
0.779081
0.751116
0.721595
0.70841
0.70515
0.706463
0.716275
0.749431
0.811578
0.868035
0.914395
0.948791
0.970844
0.983538
0.990778
0.994813
0.996933
0.998007
0.998536
0.998692
0.998681
0.998599
0.998488
0.998291
0.997816
0.996479
0.992294
0.976908
0.931713
0.893179
0.875478
0.871675
0.873295
0.884225
0.901877
0.92536
0.94878
0.964995
0.973391
0.976461
0.979693
0.983486
0.986255
0.987469
0.987751
0.987818
0.987949
0.988739
0.99119
0.993209
0.993908
0.993911
0.993356
0.991099
0.989242
0.988723
0.988824
0.99001
0.993258
0.995913
0.997631
0.998681
0.999292
0.999634
0.999818
0.999912
0.999955
0.999969
0.99997
0.999962
0.999921
0.999592
0.638581
0.646438
0.688119
0.698208
0.678133
0.641259
0.61178
0.599235
0.5951
0.601119
0.629226
0.676753
0.736552
0.806574
0.864904
0.908763
0.931271
0.942415
0.946968
0.948308
0.947537
0.939875
0.919391
0.903616
0.893612
0.886554
0.882279
0.879497
0.877308
0.875736
0.87491
0.874461
0.874253
0.87412
0.87401
0.873942
0.873911
0.874032
0.874408
0.874928
0.875436
0.875904
0.876418
0.877373
0.879645
0.886548
0.900164
0.905846
0.906472
0.902851
0.897217
0.897152
0.903163
0.931676
0.967829
0.987155
0.995573
0.998644
0.999627
0.999918
0.999978
0.999956
0.999336
0.989601
0.891784
0.822767
0.826296
0.828922
0.824595
0.80845
0.749363
0.632416
0.536801
0.469273
0.454661
0.5119
0.737692
0.76201
0.691201
0.64701
0.637398
0.637649
0.641791
0.651046
0.674307
0.710465
0.73551
0.744105
0.740588
0.714435
0.666497
0.63488
0.577021
0.44178
0.307259
0.239811
0.216874
0.211477
0.220091
0.242889
0.296603
0.438385
0.578831
0.676285
0.731563
0.760684
0.772147
0.774043
0.770301
0.748586
0.718395
0.702738
0.699075
0.702687
0.720176
0.772258
0.838291
0.893079
0.935536
0.963354
0.979536
0.989125
0.994579
0.997291
0.998448
0.998891
0.999032
0.999033
0.99898
0.998793
0.998722
0.998726
0.998747
0.998706
0.998274
0.996081
0.987322
0.956313
0.916968
0.899062
0.89656
0.90072
0.920818
0.943917
0.961065
0.9733
0.980086
0.982991
0.984148
0.985525
0.987772
0.989418
0.990092
0.990233
0.990302
0.990458
0.991296
0.993605
0.995316
0.995956
0.995991
0.995616
0.994052
0.992826
0.992517
0.992609
0.993539
0.995808
0.997512
0.998593
0.999237
0.999603
0.999801
0.999904
0.999955
0.999977
0.999984
0.999985
0.99998
0.999924
0.639172
0.650765
0.696826
0.730563
0.725915
0.713618
0.707462
0.701505
0.697793
0.714712
0.743131
0.785478
0.831378
0.877797
0.911642
0.931381
0.940823
0.945045
0.946562
0.946364
0.940261
0.921989
0.906251
0.895132
0.888073
0.883466
0.879908
0.877573
0.875764
0.87466
0.874163
0.873866
0.873665
0.873496
0.873304
0.873158
0.873133
0.873223
0.873463
0.874043
0.874957
0.87572
0.876234
0.876972
0.878652
0.883773
0.897094
0.9056
0.907021
0.904481
0.897629
0.896494
0.899623
0.921585
0.961034
0.983794
0.994137
0.998131
0.999471
0.999866
0.999973
0.99999
0.999916
0.998104
0.964813
0.85104
0.832786
0.833747
0.827509
0.80936
0.77007
0.686469
0.565609
0.483156
0.471025
0.5589
0.757014
0.747941
0.669858
0.636632
0.632124
0.634771
0.63991
0.649879
0.674078
0.708948
0.733529
0.74076
0.736289
0.708749
0.645014
0.596753
0.507282
0.355982
0.248745
0.206926
0.195592
0.195604
0.202704
0.219411
0.256404
0.356746
0.525984
0.650089
0.718305
0.748662
0.757595
0.757205
0.74879
0.722062
0.698685
0.69076
0.692135
0.701102
0.732159
0.802092
0.865475
0.916306
0.950879
0.972132
0.985251
0.992897
0.996895
0.998475
0.998969
0.999074
0.999056
0.998983
0.998719
0.997896
0.997612
0.997692
0.998104
0.998734
0.998899
0.998702
0.997092
0.989873
0.965769
0.940948
0.931393
0.931277
0.937739
0.956676
0.971742
0.981101
0.986087
0.98811
0.988813
0.989214
0.989805
0.991063
0.991922
0.992211
0.992271
0.992331
0.992533
0.993525
0.995591
0.996866
0.997313
0.997322
0.996985
0.995894
0.995262
0.995147
0.995253
0.996031
0.997539
0.998579
0.999219
0.999589
0.999792
0.999899
0.999953
0.999979
0.999989
0.999992
0.999992
0.999983
0.635819
0.6509
0.67485
0.751102
0.772086
0.764897
0.76075
0.776832
0.780586
0.79155
0.824061
0.848838
0.884125
0.91184
0.929896
0.93896
0.943118
0.94466
0.944164
0.938162
0.922518
0.907249
0.897404
0.890223
0.884908
0.881778
0.879038
0.877018
0.87553
0.874489
0.873952
0.873641
0.873469
0.873335
0.873159
0.873043
0.873039
0.87309
0.873257
0.873709
0.874734
0.875649
0.876217
0.876922
0.878498
0.883237
0.896293
0.905798
0.907149
0.904861
0.897255
0.895002
0.897569
0.917761
0.958292
0.982456
0.993589
0.99793
0.999406
0.999847
0.999965
0.999993
0.99999
0.999736
0.992573
0.902701
0.840322
0.83692
0.827796
0.802628
0.761806
0.692058
0.591725
0.515909
0.516003
0.665579
0.764698
0.719143
0.647404
0.625776
0.625205
0.631165
0.637221
0.647757
0.672158
0.704675
0.729112
0.736852
0.73353
0.705288
0.633517
0.575562
0.456313
0.30881
0.226148
0.196159
0.1896
0.19057
0.196572
0.21082
0.241264
0.319908
0.492248
0.631505
0.707582
0.737147
0.742857
0.739412
0.719094
0.692722
0.68494
0.685245
0.689959
0.708254
0.761802
0.8322
0.892489
0.936007
0.964234
0.981949
0.991991
0.996713
0.998464
0.998992
0.999091
0.999032
0.998727
0.998289
0.997533
0.995282
0.993348
0.993504
0.994298
0.996658
0.998481
0.998938
0.998776
0.997189
0.989633
0.97184
0.962025
0.960348
0.962037
0.970657
0.981274
0.987701
0.990986
0.992256
0.992525
0.992494
0.992536
0.992771
0.993453
0.993847
0.993923
0.99395
0.994013
0.994296
0.995486
0.9971
0.997957
0.998209
0.998188
0.997863
0.997255
0.99702
0.997006
0.997127
0.997761
0.998657
0.999244
0.999595
0.999793
0.999899
0.999952
0.999978
0.99999
0.999995
0.999996
0.999995
0.616084
0.648801
0.658407
0.728236
0.779804
0.802563
0.805419
0.811673
0.830397
0.837731
0.86453
0.883861
0.90858
0.927396
0.93732
0.941995
0.943854
0.944246
0.941654
0.932321
0.916023
0.902483
0.894058
0.888777
0.884694
0.881891
0.879312
0.877293
0.875809
0.874712
0.874089
0.873716
0.873519
0.873396
0.873237
0.873189
0.873207
0.87328
0.873462
0.873879
0.874978
0.876085
0.876726
0.877605
0.879701
0.88638
0.901047
0.907195
0.907178
0.90331
0.894047
0.892745
0.896599
0.917731
0.958268
0.982522
0.993644
0.997946
0.999406
0.999846
0.999964
0.999993
0.999998
0.999977
0.99897
0.970264
0.860539
0.840982
0.832344
0.806431
0.766679
0.707654
0.638315
0.596615
0.629332
0.74477
0.758739
0.679999
0.627212
0.614296
0.615228
0.623752
0.631382
0.644101
0.668029
0.695774
0.720193
0.7312
0.729702
0.70729
0.639428
0.564377
0.442122
0.31188
0.231157
0.198953
0.191017
0.191326
0.195848
0.209057
0.23776
0.308228
0.478132
0.624257
0.704094
0.728622
0.730634
0.721014
0.695312
0.683883
0.682233
0.684072
0.694425
0.728814
0.802281
0.867545
0.918218
0.953561
0.97695
0.990301
0.996045
0.998313
0.999019
0.999112
0.999023
0.998639
0.99739
0.996137
0.995064
0.992571
0.988008
0.985715
0.986424
0.98974
0.99535
0.998141
0.998845
0.998657
0.996626
0.988302
0.980705
0.978752
0.979119
0.98224
0.988359
0.992349
0.994409
0.995183
0.995288
0.995037
0.994645
0.994631
0.99481
0.995169
0.99528
0.995274
0.995289
0.995376
0.995802
0.997101
0.998192
0.998693
0.998807
0.99877
0.998526
0.998308
0.998264
0.998287
0.998454
0.998945
0.999374
0.999651
0.999817
0.999909
0.999957
0.99998
0.999991
0.999996
0.999998
0.999998
0.597477
0.636449
0.650504
0.686008
0.762616
0.803998
0.82568
0.837023
0.856681
0.868658
0.885402
0.903026
0.919792
0.93303
0.939616
0.942927
0.9443
0.944245
0.941899
0.933328
0.917127
0.903395
0.894556
0.889218
0.885191
0.882476
0.880152
0.878102
0.876561
0.875357
0.874574
0.874051
0.873776
0.873605
0.873475
0.873474
0.87352
0.873663
0.873989
0.874793
0.876132
0.87701
0.877606
0.878751
0.881942
0.892985
0.905814
0.908887
0.90683
0.89718
0.89215
0.892383
0.899297
0.930497
0.968898
0.988336
0.99615
0.998841
0.999674
0.999914
0.999978
0.999995
0.999999
0.999998
0.999883
0.99474
0.909989
0.846084
0.838637
0.81573
0.782182
0.740301
0.695562
0.681108
0.722379
0.767523
0.730741
0.64749
0.611796
0.60389
0.60519
0.614412
0.623644
0.63833
0.66094
0.684314
0.708959
0.722776
0.722994
0.709493
0.653185
0.571478
0.451613
0.327594
0.246691
0.208292
0.197654
0.198469
0.204704
0.221624
0.252478
0.319187
0.483494