/*--------------------------------*- C++ -*----------------------------------*\
  =========                 |
  \\      /  F ield         | OpenFOAM: The Open Source CFD Toolbox
   \\    /   O peration     | Website:  https://openfoam.org
    \\  /    A nd           | Version:  7
     \\/     M anipulation  |
\*---------------------------------------------------------------------------*/
FoamFile
{
    version     2.0;
    format      ascii;
    class       volScalarField;
    location    "0.094";
    object      s_0;
}
// * * * * * * * * * * * * * * * * * * * * * * * * * * * * * * * * * * * * * //

dimensions      [0 0 0 0 0 0 0];

internalField   nonuniform List<scalar> 
12225
(
1
1
1
1
1
1
1
1
1
1
1
1
1
1
1
1
1
1
1
1
1
1
1
1
1
1
1
1
1
1
1
1
1
1
1
1
1
1
1
1
1
1
1
1
1
1
1
1
1
1
1
1
1
1
1
1
1
1
1
1
1
1
1
1
1
1
1
1
1
1
1
1
1
1
1
1
1
1
1
1
1
1
1
1
1
1
1
1
1
1
1
1
1
1
1
1
1
1
1
1
1
1
1
1
1
1
1
1
1
1
1
1
1
1
1
1
1
1
1
1
1
1
1
1
1
1
1
1
1
1
1
1
1
1
1
1
1
1
1
1
1
1
1
1
1
1
1
1
1
1
1
1
1
1
1
1
1
1
1
1
1
1
1
1
1
1
1
1
1
1
1
1
1
1
1
1
1
1
1
1
1
1
1
1
1
1
1
1
1
1
1
1
1
1
1
1
1
1
1
1
1
1
1
1
1
1
1
1
1
1
1
1
1
1
1
1
1
1
1
1
1
1
1
1
1
1
1
1
1
1
1
1
1
1
1
1
1
1
1
1
1
1
1
1
1
1
1
1
1
1
1
1
1
1
1
1
1
1
1
1
1
1
1
1
1
1
1
1
1
1
1
1
1
1
1
1
1
1
1
1
1
1
1
1
1
1
1
1
1
1
1
1
1
1
1
1
1
1
1
1
1
1
1
1
1
1
1
1
1
1
1
1
1
1
1
1
1
1
1
1
1
1
1
1
1
1
1
1
1
1
1
1
1
1
1
1
1
1
1
1
1
1
1
1
1
1
1
1
1
1
1
1
1
1
1
1
1
1
1
1
1
1
1
1
1
1
1
1
1
1
1
1
1
1
1
1
1
1
1
1
1
1
1
1
1
1
1
1
1
1
1
1
1
1
1
1
1
1
1
1
1
1
1
1
1
1
1
1
1
1
1
1
1
1
1
1
1
1
1
1
1
1
1
1
1
1
1
1
1
1
1
1
1
1
1
1
1
1
1
1
1
1
1
1
1
1
1
1
1
1
1
1
1
1
1
1
1
1
1
1
1
1
1
1
1
1
1
1
1
1
1
1
1
1
1
1
1
1
1
1
1
1
1
1
1
1
1
1
1
1
1
1
1
1
1
1
1
1
1
1
1
1
1
1
1
1
1
1
1
1
1
1
1
1
1
1
1
1
1
1
1
1
1
1
1
1
1
1
1
1
1
1
1
1
1
1
1
1
1
1
0.152279
0.160331
0.202185
0.242045
0.253612
0.249232
0.233571
0.207881
0.203849
0.208729
0.2347
0.277545
0.317735
0.345328
0.366835
0.387523
0.402259
0.410244
0.414237
0.417229
0.420535
0.421973
0.42217
0.421723
0.419744
0.415754
0.411032
0.406672
0.393413
0.347386
0.270962
0.249495
0.24894
0.259299
0.267981
0.269343
0.269595
0.270006
0.272232
0.278631
0.291504
0.312733
0.344095
0.382305
0.419699
0.449997
0.472963
0.490673
0.504193
0.512982
0.518673
0.520573
0.51461
0.505892
0.50751
0.539982
0.552271
0.538875
0.511064
0.464517
0.348905
0.237034
0.202603
0.214296
0.319013
0.408037
0.417716
0.399273
0.366723
0.333835
0.301822
0.291284
0.314853
0.364652
0.382188
0.390817
0.394406
0.392761
0.408563
0.474677
0.655105
0.804846
0.865845
0.879302
0.881232
0.882019
0.882756
0.883299
0.883596
0.883946
0.884469
0.884848
0.885034
0.8851
0.885127
0.88515
0.885175
0.885191
0.885158
0.884939
0.884688
0.884664
0.88492
0.885048
0.885153
0.8855
0.88609
0.886602
0.887074
0.887406
0.887862
0.888472
0.889088
0.889754
0.890643
0.891651
0.892579
0.893717
0.894952
0.896235
0.897372
0.89856
0.89962
0.900575
0.901452
0.902239
0.902898
0.903484
0.903938
0.904133
0.904045
0.903415
0.902063
0.899277
0.894835
0.890605
0.887774
0.884987
0.879576
0.867559
0.84754
0.827331
0.813419
0.800313
0.775917
0.721455
0.60379
0.444525
0.281523
0.151614
0.0695289
0.0274851
0.00955036
0.00297362
0.000838109
0.000224467
9.28745e-05
4.84809e-05
2.4339e-05
1.20775e-05
5.97136e-06
2.96216e-06
1.48324e-06
7.52532e-07
3.87099e-07
2.01354e-07
1.05379e-07
5.51512e-08
2.86916e-08
1.4762e-08
7.47986e-09
3.72134e-09
1.81259e-09
8.62845e-10
4.00127e-10
1.80376e-10
7.88112e-11
3.26544e-11
1.42517e-11
-3.11148e-12
0.15792
0.310809
0.451539
0.481916
0.478939
0.470771
0.463339
0.451469
0.424028
0.357539
0.292332
0.278318
0.27908
0.284786
0.306332
0.360084
0.395201
0.412409
0.425744
0.440944
0.446936
0.447847
0.445011
0.431653
0.401157
0.377664
0.374444
0.377452
0.375691
0.352689
0.332287
0.345442
0.443307
0.587914
0.637791
0.659225
0.682955
0.725153
0.768757
0.796082
0.817883
0.843925
0.871056
0.894862
0.911575
0.923235
0.93167
0.937917
0.942168
0.944092
0.944806
0.944427
0.94079
0.934733
0.927142
0.915539
0.883956
0.837619
0.806137
0.792779
0.773006
0.705554
0.457956
0.298197
0.288767
0.332444
0.397985
0.381462
0.346747
0.336862
0.369487
0.418556
0.437951
0.420446
0.400947
0.417721
0.491254
0.54084
0.553324
0.596523
0.789572
0.867464
0.876499
0.878294
0.877706
0.876164
0.873905
0.870824
0.867006
0.86281
0.858232
0.853002
0.847518
0.841785
0.835811
0.829731
0.823921
0.819192
0.815165
0.811381
0.809052
0.807577
0.806621
0.806134
0.805994
0.806844
0.807293
0.807918
0.808923
0.809528
0.810671
0.811894
0.813368
0.815437
0.818283
0.821913
0.826365
0.831717
0.837982
0.845322
0.852831
0.860819
0.868914
0.876716
0.884064
0.890656
0.896442
0.901903
0.907011
0.911745
0.916035
0.91984
0.923188
0.926149
0.928773
0.931115
0.933252
0.935284
0.936999
0.938042
0.938308
0.937808
0.934231
0.923139
0.913911
0.905327
0.887269
0.858785
0.826168
0.779988
0.708555
0.628746
0.57487
0.557049
0.554906
0.550664
0.530262
0.455914
0.353309
0.267617
0.197882
0.142237
0.0991139
0.0668216
0.0435285
0.0273884
0.016647
0.00978458
0.0055648
0.00306818
0.0016398
0.000851917
0.000429117
0.000210652
9.9932e-05
4.62784e-05
2.06839e-05
8.54737e-06
4.64413e-06
-4.99454e-06
0.33388
0.545089
0.543773
0.525844
0.501982
0.474533
0.471256
0.475974
0.490326
0.49026
0.478678
0.440918
0.391144
0.324304
0.313553
0.326433
0.362845
0.403406
0.439691
0.463286
0.456005
0.427304
0.391907
0.379733
0.368691
0.366413
0.376426
0.396591
0.427317
0.481944
0.60135
0.762496
0.839025
0.889387
0.923121
0.939689
0.955888
0.966598
0.974841
0.982325
0.98545
0.988033
0.990601
0.992295
0.993292
0.994096
0.994507
0.994665
0.994667
0.994057
0.992167
0.98869
0.983018
0.972894
0.955556
0.923243
0.848308
0.782511
0.748656
0.75074
0.760357
0.770093
0.75597
0.659922
0.416008
0.36446
0.372368
0.37304
0.344647
0.278099
0.255531
0.287963
0.301952
0.285092
0.290697
0.346827
0.488696
0.585509
0.703119
0.814088
0.863635
0.871655
0.872908
0.868475
0.860445
0.84915
0.833859
0.813745
0.794226
0.776274
0.760484
0.745938
0.7349
0.726247
0.719861
0.716032
0.714181
0.713497
0.713448
0.715361
0.716597
0.718734
0.720572
0.721985
0.723427
0.725535
0.726703
0.728273
0.729921
0.731293
0.732774
0.734252
0.735573
0.736889
0.738196
0.73946
0.740748
0.742084
0.743751
0.746363
0.749868
0.75453
0.760387
0.767723
0.776839
0.788112
0.801463
0.816002
0.831672
0.848075
0.864599
0.880053
0.892839
0.903533
0.912459
0.919592
0.925212
0.929625
0.93323
0.936642
0.940369
0.943946
0.945932
0.946036
0.944452
0.936132
0.916564
0.902632
0.895482
0.891516
0.889333
0.889278
0.891926
0.898241
0.9042
0.908055
0.908849
0.906347
0.890582
0.865777
0.850913
0.834224
0.79804
0.701882
0.559555
0.425551
0.313693
0.226281
0.159449
0.109733
0.0734154
0.0478493
0.0301577
0.0185252
0.0109346
0.00631627
0.00347886
0.00186814
0.000994354
0.000403528
0.595492
0.585678
0.548773
0.465921
0.402678
0.363896
0.347228
0.348929
0.36132
0.398711
0.448985
0.463906
0.461667
0.440981
0.389935
0.35496
0.368441
0.405964
0.461568
0.464328
0.424038
0.374439
0.370905
0.373427
0.373592
0.385434
0.429625
0.51913
0.68265
0.841299
0.910139
0.94681
0.966702
0.979518
0.987697
0.99118
0.993219
0.994544
0.995409
0.996025
0.996402
0.996658
0.997189
0.997457
0.997784
0.997909
0.997974
0.997978
0.997772
0.997143
0.995669
0.992691
0.985895
0.972747
0.948361
0.895645
0.797656
0.710168
0.670293
0.662143
0.669202
0.694022
0.725062
0.721231
0.67291
0.498084
0.40757
0.388214
0.359114
0.290876
0.249067
0.235409
0.237927
0.250987
0.272429
0.362027
0.629005
0.760364
0.823721
0.857036
0.865236
0.865124
0.853867
0.831857
0.801039
0.769852
0.742511
0.723344
0.708043
0.698516
0.692405
0.689702
0.688933
0.689215
0.691626
0.694458
0.698405
0.702452
0.707693
0.713655
0.71837
0.722324
0.725994
0.729035
0.731034
0.733565
0.735402
0.737154
0.739192
0.740947
0.742734
0.744406
0.745685
0.746304
0.746455
0.745602
0.743744
0.741318
0.739164
0.737342
0.735999
0.735332
0.735324
0.735981
0.73738
0.739514
0.742481
0.74629
0.751828
0.759709
0.770638
0.786445
0.808638
0.834764
0.861129
0.883929
0.901745
0.915823
0.926662
0.933838
0.937433
0.938932
0.940871
0.947006
0.954494
0.956407
0.955643
0.949958
0.928829
0.910005
0.90251
0.901529
0.90245
0.907549
0.923947
0.943403
0.95809
0.966842
0.97057
0.971573
0.971628
0.970822
0.966029
0.950561
0.937507
0.924899
0.899429
0.833907
0.675348
0.507077
0.365193
0.256118
0.174283
0.115742
0.0741618
0.0464023
0.0279151
0.0162604
0.00944601
0.00453962
0.59378
0.56335
0.471654
0.3941
0.348071
0.323276
0.30942
0.303822
0.305535
0.315658
0.348582
0.430009
0.460877
0.466433
0.454848
0.426331
0.421792
0.447648
0.464184
0.423365
0.378679
0.373373
0.377901
0.393583
0.420386
0.49216
0.644332
0.828262
0.920508
0.961357
0.978226
0.985501
0.98872
0.990191
0.990733
0.990843
0.990778
0.990404
0.990278
0.990246
0.99082
0.991087
0.992262
0.993164
0.994459
0.995248
0.996347
0.996977
0.997292
0.997338
0.996645
0.995148
0.990403
0.979492
0.954028
0.898509
0.799352
0.702323
0.658915
0.640021
0.639222
0.653368
0.68888
0.707593
0.703504
0.667943
0.538728
0.438469
0.400674
0.340415
0.275642
0.251825
0.253011
0.261019
0.278395
0.386089
0.710916
0.823702
0.849327
0.857326
0.856698
0.836481
0.796197
0.757807
0.727161
0.705271
0.690881
0.684007
0.681294
0.681012
0.684533
0.688794
0.693874
0.703298
0.716083
0.731637
0.743947
0.753426
0.761387
0.765547
0.769894
0.772742
0.775806
0.779166
0.781871
0.784546
0.788045
0.790241
0.793422
0.795881
0.798483
0.800838
0.802978
0.804589
0.805729
0.806229
0.805613
0.80286
0.796101
0.786298
0.776169
0.766207
0.757962
0.751777
0.746981
0.743798
0.742376
0.742218
0.743055
0.745376
0.748738
0.753164
0.759582
0.770242
0.787362
0.811005
0.837122
0.862835
0.888159
0.912871
0.932225
0.942442
0.945537
0.945921
0.946319
0.948845
0.957554
0.961165
0.960353
0.953343
0.93034
0.912201
0.905016
0.904165
0.905865
0.915073
0.937267
0.95454
0.967518
0.977788
0.984822
0.98844
0.989506
0.989527
0.989148
0.987968
0.985471
0.980273
0.969155
0.943936
0.874605
0.699684
0.513515
0.362075
0.246243
0.162932
0.104813
0.0647779
0.0405661
0.0214757
0.595733
0.543128
0.446977
0.375724
0.335066
0.313839
0.303185
0.294487
0.292825
0.29508
0.308121
0.357138
0.445892
0.476862
0.480813
0.471317
0.461977
0.457731
0.427421
0.389612
0.38276
0.392866
0.426051
0.490039
0.609845
0.765845
0.894285
0.950948
0.974179
0.981859
0.984061
0.984542
0.983743
0.979499
0.975386
0.970404
0.966142
0.96392
0.96288
0.962722
0.965152
0.966623
0.970915
0.973943
0.978803
0.982542
0.987574
0.991014
0.994457
0.996171
0.997022
0.997258
0.997192
0.99552
0.989186
0.968653
0.903976
0.759979
0.673322
0.638575
0.626
0.633588
0.666687
0.697657
0.706555
0.701295
0.670851
0.571215
0.476402
0.404703
0.337771
0.301874
0.290054
0.29138
0.30014
0.387953
0.721707
0.837901
0.849078
0.849556
0.823434
0.772551
0.734344
0.704358
0.686199
0.677522
0.674374
0.675112
0.679068
0.683874
0.69444
0.710905
0.736723
0.753257
0.764577
0.769516
0.772772
0.774378
0.775137
0.77603
0.777196
0.778607
0.780843
0.783827
0.787041
0.790132
0.794638
0.797714
0.801697
0.804881
0.808008
0.810908
0.813701
0.816014
0.818455
0.820966
0.823967
0.827566
0.831785
0.833348
0.832416
0.828568
0.820921
0.810044
0.798039
0.786971
0.777149
0.769152
0.763091
0.758799
0.75634
0.755724
0.756809
0.760857
0.767423
0.780388
0.802992
0.829125
0.851906
0.872122
0.896363
0.923837
0.94409
0.952622
0.953853
0.953517
0.953806
0.956352
0.963366
0.96484
0.962935
0.950989
0.925338
0.911828
0.907646
0.907504
0.90963
0.920577
0.945101
0.963903
0.976569
0.98486
0.990344
0.993751
0.995495
0.9961
0.996164
0.996027
0.99535
0.993202
0.987139
0.970833
0.92499
0.784628
0.581795
0.410525
0.281057
0.182995
0.122183
0.0699364
0.598912
0.535078
0.443715
0.372225
0.332702
0.312694
0.302412
0.292972
0.290676
0.294974
0.311472
0.366505
0.45895
0.490121
0.489078
0.475933
0.458844
0.432445
0.407205
0.399685
0.421824
0.484714
0.609072
0.729156
0.84765
0.925544
0.96136
0.974367
0.978016
0.978616
0.973995
0.962797
0.946757
0.932577
0.924653
0.915926
0.912077
0.910026
0.909243
0.909359
0.911748
0.914632
0.920237
0.926946
0.936544
0.947706
0.960738
0.971804
0.982449
0.990107
0.994742
0.996903
0.99781
0.99809
0.997487
0.993234
0.976271
0.918197
0.76349
0.668253
0.62668
0.611298
0.613275
0.648606
0.694737
0.709334
0.705251
0.679866
0.609132
0.506073
0.430219
0.373076
0.33057
0.316705
0.319989
0.390648
0.713354
0.836924
0.844684
0.824749
0.763456
0.723999
0.693304
0.676921
0.669701
0.667533
0.671197
0.676496
0.685776
0.703603
0.737428
0.754887
0.762884
0.766063
0.766975
0.766714
0.763014
0.755428
0.749848
0.747511
0.74642
0.746045
0.747079
0.748994
0.752569
0.757288
0.764376
0.772393
0.780417
0.787775
0.7936
0.79903
0.804293
0.80855
0.812652
0.817026
0.822138
0.827791
0.834815
0.842915
0.848553
0.851645
0.852345
0.851211
0.846938
0.838371
0.827483
0.815507
0.804209
0.794579
0.786507
0.779683
0.774387
0.771412
0.770829
0.772254
0.779751
0.803168
0.835859
0.861939
0.879206
0.896633
0.921246
0.944516
0.957408
0.96068
0.96028
0.960124
0.961022
0.965538
0.968946
0.968521
0.963775
0.943812
0.923289
0.915433
0.914468
0.915768
0.922621
0.942488
0.961669
0.975675
0.985104
0.991035
0.994669
0.996862
0.998032
0.998486
0.998555
0.998478
0.998023
0.996388
0.991239
0.97575
0.929433
0.783583
0.587
0.41149
0.294377
0.180765
0.600336
0.534392
0.464853
0.386192
0.344594
0.325178
0.315652
0.311054
0.307652
0.314738
0.342063
0.417155
0.477865
0.489817
0.483781
0.458101
0.43833
0.429234
0.424741
0.46534
0.580516
0.717012
0.817717
0.891885
0.941329
0.962728
0.96994
0.971751
0.9687
0.954152
0.928964
0.911475
0.90276
0.896811
0.893115
0.891273
0.890469
0.89023
0.890537
0.89106
0.891461
0.892458
0.893436
0.895056
0.897793
0.902688
0.911547
0.928204
0.949502
0.970686
0.985288
0.992718
0.996515
0.998178
0.998637
0.998394
0.995198
0.981574
0.933915
0.796358
0.678824
0.620921
0.599057
0.596011
0.614836
0.67238
0.707417
0.707108
0.690217
0.640112
0.545261
0.457059
0.398948
0.377924
0.380479
0.422835
0.696666
0.832884
0.833914
0.773364
0.721593
0.689777
0.671956
0.664728
0.662506
0.666246
0.672999
0.68588
0.714485
0.743862
0.756215
0.760374
0.761394
0.758902
0.746732
0.731684
0.725702
0.723778
0.724798
0.728793
0.73061
0.731332
0.731515
0.729776
0.727483
0.724865
0.722864
0.722701
0.726107
0.733111
0.742891
0.753652
0.766072
0.777916
0.787444
0.796955
0.807345
0.819702
0.832931
0.84575
0.855667
0.863087
0.86775
0.86967
0.869813
0.868532
0.863841
0.855103
0.84285
0.828593
0.814876
0.803463
0.794587
0.787915
0.783627
0.781944
0.782082
0.785363
0.800841
0.842286
0.875915
0.893013
0.906237
0.926381
0.947895
0.961707
0.96666
0.966752
0.966001
0.96648
0.969229
0.973186
0.973451
0.971456
0.960819
0.939686
0.929165
0.927056
0.927998
0.933176
0.949096
0.965697
0.977898
0.986441
0.99207
0.995508
0.997501
0.998615
0.999161
0.999339
0.999344
0.999238
0.998712
0.996833
0.990702
0.971494
0.914496
0.739584
0.572587
0.386262
0.604048
0.557446
0.510666
0.425644
0.373381
0.351552
0.344434
0.346003
0.35321
0.369471
0.406332
0.45179
0.471937
0.474487
0.458916
0.446581
0.442294
0.455247
0.51064
0.674015
0.797585
0.865238
0.920453
0.947541
0.960166
0.964036
0.964753
0.954442
0.929164
0.906987
0.897116
0.891386
0.888871
0.887702
0.887271
0.887197
0.887546
0.888049
0.888746
0.889446
0.890073
0.890795
0.891095
0.891117
0.891489
0.892237
0.893667
0.898036
0.907831
0.929452
0.961399
0.981468
0.991472
0.996497
0.998616
0.999162
0.999165
0.99732
0.988941
0.957133
0.849023
0.70658
0.631062
0.59825
0.587747
0.59072
0.631275
0.691367
0.698815
0.69024
0.653453
0.589937
0.542013
0.472358
0.426608
0.450278
0.688101
0.827159
0.807759
0.733374
0.692009
0.670237
0.66082
0.658159
0.660802
0.667366
0.68063
0.713475
0.74221
0.753386
0.756249
0.756664
0.747438
0.724359
0.711176
0.708168
0.709491
0.719929
0.727397
0.735658
0.745723
0.752198
0.754975
0.751724
0.743595
0.73173
0.721457
0.714167
0.710378
0.709153
0.710467
0.714059
0.7209
0.732678
0.750592
0.769609
0.791425
0.814251
0.83261
0.85022
0.86544
0.879183
0.890373
0.897766
0.900731
0.900873
0.900238
0.897794
0.891176
0.879781
0.864488
0.847273
0.830924
0.816568
0.804531
0.795839
0.791663
0.791097
0.792683
0.802541
0.840832
0.88763
0.914034
0.924407
0.936325
0.952978
0.965732
0.971438
0.972231
0.971673
0.97187
0.973582
0.977468
0.978282
0.977453
0.97265
0.958162
0.947962
0.944822
0.94505
0.948052
0.958818
0.972344
0.982248
0.989072
0.99356
0.996379
0.998041
0.99896
0.999434
0.999628
0.999664
0.999636
0.999444
0.998674
0.996023
0.987547
0.960659
0.890058
0.683656
0.613156
0.576018
0.539639
0.463622
0.399029
0.375968
0.370523
0.375049
0.388916
0.409008
0.435462
0.454957
0.461315
0.461457
0.458605
0.459637
0.486562
0.571042
0.734985
0.843681
0.901836
0.932244
0.950181
0.956901
0.958882
0.956995
0.942105
0.912798
0.898693
0.891489
0.888291
0.886745
0.886003
0.885621
0.885502
0.885601
0.886064
0.886568
0.887688
0.888739
0.890207
0.891814
0.893329
0.894001
0.894104
0.89286
0.892188
0.893013
0.895433
0.902721
0.919767
0.958782
0.980661
0.991715
0.99699
0.999049
0.99956
0.999641
0.998782
0.994167
0.973561
0.890243
0.741419
0.66582
0.625888
0.595095
0.575208
0.581337
0.645402
0.672983
0.666793
0.644321
0.587306
0.488951
0.438867
0.464032
0.689585
0.82149
0.776858
0.704427
0.672677
0.65866
0.654341
0.654737
0.661043
0.671466
0.70003
0.736456
0.749959
0.752936
0.752386
0.739342
0.70921
0.698324
0.696601
0.699671
0.70707
0.711851
0.71954
0.73437
0.74925
0.764432
0.776311
0.782044
0.784591
0.77971
0.7642
0.739738
0.717616
0.708962
0.706853
0.707373
0.709316
0.714816
0.728043
0.755197
0.785585
0.813279
0.840768
0.867406
0.887506
0.905134
0.920081
0.931683
0.941175
0.945118
0.944932
0.943352
0.939528
0.931359
0.917375
0.896753
0.874735
0.85635
0.842085
0.829406
0.817974
0.81039
0.808281
0.809493
0.817002
0.849241
0.899328
0.928392
0.941122
0.950539
0.961855
0.971245
0.975836
0.976803
0.97665
0.976779
0.97802
0.981541
0.982878
0.982647
0.980564
0.97257
0.964755
0.961884
0.961662
0.963026
0.969143
0.979235
0.98679
0.991939
0.995266
0.997331
0.998561
0.999252
0.999611
0.999772
0.999814
0.999807
0.99973
0.999391
0.998187
0.994207
0.982246
0.931888
0.625547
0.61238
0.594154
0.537507
0.445474
0.406812
0.396983
0.396899
0.414481
0.427818
0.446575
0.459235
0.464524
0.469996
0.483028
0.527579
0.647317
0.79194
0.872533
0.917886
0.940122
0.950132
0.953996
0.954956
0.949679
0.930918
0.906473
0.894533
0.888828
0.885932
0.884055
0.882621
0.881342
0.880413
0.879668
0.879191
0.879034
0.879366
0.880229
0.881811
0.88411
0.887588
0.891789
0.894994
0.89782
0.899121
0.897341
0.89445
0.893838
0.896074
0.90252
0.921814
0.96251
0.983067
0.99334
0.997785
0.999405
0.999792
0.999861
0.999473
0.996652
0.979772
0.890582
0.772244
0.7308
0.709204
0.655646
0.577139
0.546028
0.562949
0.60833
0.612884
0.580377
0.485252
0.442824
0.47617
0.698188
0.80959
0.751552
0.684536
0.659703
0.650796
0.649569
0.653607
0.662068
0.680049
0.722864
0.744635
0.749988
0.750627
0.740463
0.703202
0.685503
0.679633
0.672966
0.665502
0.650065
0.636705
0.632426
0.654434
0.69453
0.730773
0.764399
0.781896
0.789834
0.792279
0.790585
0.78237
0.757322
0.725853
0.71149
0.707509
0.707613
0.710141
0.719723
0.747553
0.783821
0.821806
0.860021
0.894921
0.921873
0.944949
0.961418
0.971163
0.978616
0.983219
0.9845
0.984344
0.983482
0.981413
0.977077
0.967215
0.941802
0.904209
0.871899
0.853682
0.844799
0.838955
0.83445
0.832365
0.833284
0.84135
0.87302
0.919094
0.944038
0.954298
0.962368
0.970631
0.977121
0.980282
0.981043
0.98105
0.98117
0.982149
0.985221
0.987022
0.987138
0.986451
0.982983
0.977427
0.974881
0.974403
0.97495
0.978127
0.985199
0.990697
0.994403
0.996754
0.998184
0.999025
0.999498
0.999745
0.99986
0.999895
0.999894
0.999862
0.999704
0.999129
0.997244
0.986908
0.631075
0.62744
0.626821
0.604246
0.52418
0.457205
0.43419
0.428754
0.436023
0.449511
0.463672
0.475485
0.489938
0.521478
0.593662
0.712728
0.822409
0.893226
0.926756
0.942919
0.949431
0.951321
0.951836
0.94566
0.924122
0.904069
0.892529
0.886906
0.883503
0.881349
0.879117
0.87767
0.876657
0.875927
0.875588
0.875456
0.875437
0.875683
0.875997
0.876459
0.877156
0.878401
0.881031
0.887199
0.895547
0.900533
0.902429
0.901985
0.897357
0.895256
0.897392
0.904624
0.935482
0.969709
0.987479
0.995464
0.998599
0.999655
0.999906
0.999935
0.999656
0.996927
0.973651
0.851063
0.780858
0.777438
0.780905
0.763324
0.66918
0.575411
0.556791
0.551105
0.536472
0.471077
0.443865
0.485932
0.712789
0.79151
0.728958
0.670751
0.650496
0.645408
0.646295
0.653075
0.664061
0.69716
0.733124
0.745936
0.749001
0.744461
0.714613
0.676316
0.664037
0.647837
0.612064
0.538514
0.454922
0.420142
0.411154
0.466351
0.552271
0.632526
0.70496
0.754266
0.780372
0.790498
0.791962
0.788899
0.777424
0.746001
0.719627
0.708814
0.707214
0.708422
0.716982
0.744773
0.791274
0.84238
0.886754
0.92273
0.953333
0.972207
0.982893
0.989094
0.992648
0.994828
0.995966
0.996187
0.996124
0.995839
0.995107
0.993496
0.989867
0.980088
0.94705
0.900744
0.871805
0.858729
0.854707
0.854214
0.854897
0.858718
0.878069
0.916574
0.945267
0.960572
0.966552
0.972056
0.977847
0.982198
0.984216
0.98471
0.984766
0.98489
0.985738
0.988437
0.990492
0.990969
0.9908
0.98955
0.985905
0.983627
0.983047
0.983259
0.985063
0.989827
0.993725
0.996293
0.997889
0.99884
0.999385
0.999688
0.999845
0.999918
0.999942
0.999943
0.999928
0.99985
0.999561
0.997663
0.634816
0.64071
0.664802
0.654296
0.607192
0.548256
0.515719
0.492115
0.485119
0.493883
0.509583
0.53601
0.591731
0.673022
0.767357
0.848913
0.902192
0.930962
0.943593
0.9485
0.949664
0.948922
0.942038
0.921254
0.903364
0.891635
0.885526
0.882233
0.879518
0.877545
0.876125
0.875266
0.874852
0.874664
0.874613
0.87465
0.874713
0.874915
0.875103
0.87547
0.875867
0.876351
0.877204
0.879105
0.883773
0.895836
0.903006
0.905357
0.904199
0.897962
0.896614
0.898761
0.912309
0.951228
0.978788
0.99209
0.997352
0.999224
0.99982
0.999954
0.999956
0.999614
0.995154
0.941694
0.817745
0.802161
0.814564
0.814724
0.803653
0.741303
0.612212
0.562625
0.521761
0.464195
0.447121
0.495451
0.724654
0.774931
0.709022
0.658269
0.643048
0.641143
0.643864
0.65194
0.668793
0.709213
0.736102
0.745368
0.745411
0.729253
0.681987
0.654411
0.635366
0.57541
0.443492
0.324882
0.274331
0.257566
0.266994
0.303398
0.387103
0.522449
0.629334
0.707447
0.754661
0.778265
0.785917
0.786271
0.779069
0.750869
0.721441
0.708388
0.705212
0.706561
0.716476
0.749881
0.811904
0.868247
0.914505
0.948835
0.970888
0.983562
0.990783
0.994809
0.996924
0.997999
0.998529
0.998683
0.998671
0.998589
0.998476
0.99827
0.997773
0.996373
0.992006
0.975945
0.930202
0.892456
0.875304
0.871747
0.873517
0.884843
0.902555
0.926028
0.949278
0.965302
0.973547
0.976556
0.979778
0.983557
0.9863
0.987494
0.987764
0.987829
0.98796
0.988763
0.99123
0.993231
0.993916
0.993916
0.993346
0.991068
0.98923
0.988724
0.988831
0.99004
0.9933
0.99594
0.997648
0.998691
0.999298
0.999637
0.99982
0.999913
0.999955
0.999969
0.99997
0.999962
0.99992
0.999588
0.63856
0.646225
0.687881
0.69811
0.678287
0.641734
0.612416
0.600056
0.596161
0.602375
0.630599
0.678227
0.737783
0.807662
0.865685
0.909189
0.931457
0.942466
0.946965
0.948304
0.947479
0.939628
0.919085
0.903416
0.893509
0.886518
0.882251
0.879469
0.877287
0.875718
0.874897
0.874451
0.874245
0.874114
0.874005
0.87394
0.873911
0.874034
0.874413
0.874933
0.87544
0.875906
0.876422
0.877384
0.879681
0.886672
0.900262
0.905854
0.906442
0.902745
0.897187
0.897179
0.903384
0.932371
0.968265
0.987365
0.995657
0.998673
0.999636
0.999921
0.999979
0.999954
0.999299
0.989081
0.889063
0.822026
0.826176
0.828837
0.824429
0.80797
0.748014
0.631313
0.535617
0.468647
0.454825
0.514438
0.74037
0.761567
0.689765
0.646451
0.637185
0.63755
0.641767
0.651076
0.674508
0.710582
0.735521
0.744057
0.740455
0.714166
0.66606
0.63429
0.575963
0.440368
0.306451
0.239471
0.216755
0.21147
0.220177
0.24314
0.2973
0.439771
0.579885
0.677029
0.732105
0.761112
0.772496
0.774348
0.77053
0.748531
0.718359
0.702801
0.699212
0.702864
0.720477
0.772702
0.838643
0.893343
0.935746
0.963505
0.979631
0.98918
0.994603
0.997298
0.998449
0.998891
0.999032
0.999033
0.998979
0.998796
0.998729
0.998733
0.998751
0.998701
0.998238
0.995939
0.986861
0.95511
0.916313
0.89899
0.896732
0.901135
0.921672
0.94452
0.961492
0.973561
0.980227
0.983065
0.984199
0.985575
0.987817
0.989449
0.990109
0.990244
0.990311
0.990468
0.99132
0.99364
0.995334
0.995963
0.995994
0.995609
0.994031
0.992819
0.992518
0.992615
0.993562
0.995835
0.997529
0.998603
0.999244
0.999606
0.999803
0.999905
0.999955
0.999978
0.999984
0.999985
0.99998
0.999923
0.639173
0.650662
0.696569
0.730495
0.725994
0.713861
0.707915
0.702319
0.698699
0.715684
0.744183
0.786397
0.832194
0.878364
0.912015
0.931549
0.940883
0.945038
0.946538
0.946288
0.940009
0.921669
0.906039
0.895001
0.887983
0.88342
0.879877
0.877548
0.875747
0.874647
0.874154
0.873859
0.873659
0.873491
0.873301
0.873156
0.873133
0.873224
0.873468
0.874055
0.874968
0.875725
0.876237
0.87698
0.878677
0.883866
0.897234
0.905638
0.90702
0.904408
0.897588
0.896516
0.899771
0.922187
0.961494
0.984029
0.994236
0.998167
0.999482
0.999869
0.999974
0.99999
0.999912
0.998001
0.96311
0.849568
0.832589
0.833694
0.827365
0.808981
0.76912
0.684956
0.564214
0.482823
0.471642
0.56392
0.758533
0.746891
0.668438
0.636129
0.631906
0.634707
0.639892
0.649936
0.674278
0.709053
0.73353
0.740668
0.736144
0.70839
0.644349
0.595826
0.505695
0.354551
0.248096
0.206703
0.195525
0.195614
0.202784
0.219622
0.256967
0.358474
0.527657
0.651204
0.71898
0.749105
0.757973
0.757573
0.749129
0.722365
0.698889
0.690904
0.692272
0.701298
0.732594
0.802608
0.865853
0.916588
0.951081
0.972262
0.985325
0.992931
0.99691
0.99848
0.998972
0.999076
0.999059
0.998986
0.998719
0.997908
0.997652
0.997736
0.998152
0.998755
0.998902
0.998687
0.996998
0.989527
0.965053
0.940698
0.931524
0.93152
0.938271
0.957281
0.972107
0.981313
0.986198
0.988167
0.988849
0.989244
0.989835
0.991092
0.991941
0.992222
0.992279
0.992338
0.992543
0.993552
0.995616
0.99688
0.997318
0.997324
0.996978
0.995882
0.995259
0.995148
0.995259
0.99605
0.997555
0.99859
0.999225
0.999592
0.999794
0.9999
0.999953
0.999979
0.999989
0.999992
0.999992
0.999983
0.635884
0.650863
0.674633
0.750881
0.772145
0.765149
0.760957
0.777281
0.781309
0.792199
0.824765
0.849446
0.884591
0.912164
0.930069
0.939033
0.943133
0.944646
0.944091
0.93795
0.922186
0.906988
0.897226
0.890119
0.884845
0.88174
0.879012
0.876998
0.875517
0.874479
0.873945
0.873636
0.873465
0.873331
0.873156
0.873042
0.873039
0.873091
0.873261
0.87372
0.874748
0.875657
0.876221
0.87693
0.878522
0.883324
0.896438
0.905864
0.907159
0.904807
0.897203
0.89505
0.897703
0.918319
0.958753
0.982701
0.993693
0.997968
0.999418
0.999851
0.999966
0.999993
0.99999
0.99972
0.992174
0.900429
0.839833
0.836827
0.827635
0.802256
0.761142
0.691022
0.591135
0.516605
0.51832
0.67075
0.765178
0.717223
0.646287
0.62531
0.624928
0.631079
0.637177
0.64783
0.672355
0.70476
0.729078
0.736755
0.733369
0.704732
0.632712
0.574386
0.454464
0.307478
0.225571
0.195979
0.189563
0.190583
0.196657
0.211029
0.241759
0.321529
0.494408
0.632941
0.708325
0.737631
0.743217
0.739733
0.719347
0.692805
0.684993
0.685306
0.690072
0.708518
0.762274
0.832654
0.89286
0.936274
0.964392
0.982021
0.992018
0.996727
0.998469
0.998995
0.999093
0.999034
0.998733
0.998302
0.997535
0.995259
0.993443
0.993618
0.994432
0.996791
0.998529
0.998947
0.998767
0.997108
0.989282
0.971593
0.962094
0.96055
0.962322
0.971085
0.981549
0.987855
0.991066
0.992297
0.992549
0.992511
0.992552
0.99279
0.993473
0.993859
0.99393
0.993956
0.994019
0.994307
0.995511
0.997118
0.997965
0.998211
0.998189
0.997857
0.997252
0.99702
0.997007
0.997132
0.997774
0.998667
0.999249
0.999599
0.999795
0.9999
0.999953
0.999979
0.99999
0.999995
0.999996
0.999995
0.616231
0.648837
0.658345
0.728024
0.779655
0.802644
0.805663
0.81191
0.830841
0.838242
0.864944
0.884291
0.908864
0.927583
0.937418
0.94204
0.94387
0.944241
0.941607
0.932176
0.915846
0.902334
0.893947
0.888702
0.884645
0.881855
0.879287
0.877274
0.875796
0.874703
0.874083
0.873711
0.873516
0.873393
0.873234
0.873188
0.873208
0.873282
0.873466
0.873891
0.875002
0.876094
0.876729
0.877615
0.879739
0.886525
0.901172
0.907222
0.907184
0.903267
0.894018
0.892755
0.896718
0.918263
0.958711
0.982752
0.99374
0.997981
0.999418
0.999849
0.999965
0.999993
0.999998
0.999976
0.998908
0.968716
0.859214
0.84082
0.832194
0.806152
0.766339
0.70739
0.638799
0.598782
0.633575
0.747105
0.758201
0.677927
0.626309
0.613864
0.614917
0.623598
0.631278
0.64419
0.668191
0.695808
0.720132
0.731066
0.7295
0.70674
0.638542
0.562799
0.440143
0.310507
0.230525
0.198735
0.190977
0.19133
0.195932
0.209271
0.238244
0.309744
0.480548
0.625834
0.704876
0.728983
0.730887
0.721141
0.695264
0.683847
0.682221
0.684103
0.694559
0.729253
0.80277
0.867934
0.918524
0.953765
0.97707
0.990364
0.996072
0.998324
0.999022
0.999114
0.999024
0.998639
0.997393
0.996172
0.995086
0.992502
0.987923
0.985836
0.986607
0.990047
0.995541
0.998209
0.99886
0.998648
0.996531
0.988108
0.980725
0.978883
0.979283
0.982487
0.988538
0.992452
0.994463
0.995211
0.995306
0.995043
0.994653
0.994642
0.994825
0.99518
0.995287
0.995279
0.995294
0.995382
0.995815
0.997122
0.998204
0.998697
0.998808
0.998769
0.998523
0.998307
0.998265
0.998289
0.998459
0.998952
0.999379
0.999654
0.999819
0.99991
0.999957
0.99998
0.999991
0.999996
0.999998
0.999998
0.597425
0.636445
0.650517
0.685926
0.762413
0.803965
0.825748
0.837191
0.856887
0.869016
0.885692
0.903318
0.91997
0.933122
0.939663
0.942951
0.94431
0.944244
0.941865
0.933209
0.916981
0.903268
0.894458
0.889148
0.885143
0.882443
0.880131
0.878085
0.876548
0.875348
0.874568
0.874046
0.873773
0.873603
0.873475
0.873475
0.873522
0.873667
0.873999
0.874817
0.876149
0.877014
0.877611
0.87877
0.882017
0.893191
0.905916
0.90887
0.906761
0.897066
0.892084
0.892355
0.899411
0.930968
0.969193
0.988462
0.996194
0.998855
0.999678
0.999915
0.999979
0.999995
0.999999
0.999998
0.999875
0.994446
0.907875
0.84567
0.838517
0.815517
0.782046
0.74043
0.696441
0.683103
0.724995
0.768022
0.728484
0.645972
0.611095
0.603508
0.604898
0.61426
0.623537
0.638408
0.661058
0.684351
0.708928
0.722612
0.722765
0.709004
0.652098
0.569844
0.449623
0.32613
0.245922
0.207976