/*--------------------------------*- C++ -*----------------------------------*\
  =========                 |
  \\      /  F ield         | OpenFOAM: The Open Source CFD Toolbox
   \\    /   O peration     | Website:  https://openfoam.org
    \\  /    A nd           | Version:  7
     \\/     M anipulation  |
\*---------------------------------------------------------------------------*/
FoamFile
{
    version     2.0;
    format      ascii;
    class       volScalarField;
    location    "0.027";
    object      p;
}
// * * * * * * * * * * * * * * * * * * * * * * * * * * * * * * * * * * * * * //

dimensions      [0 2 -2 0 0 0 0];

internalField   nonuniform List<scalar> 
12225
(
7.71257
6.91597
5.03958
2.86349
0.879302
-0.843797
-2.34737
-3.66397
-4.79322
-5.7421
-6.53582
-7.20143
-7.75887
-8.22193
-8.60708
-8.9258
-9.20047
-9.43667
7.70774
6.93673
5.03727
2.86263
0.867851
-0.861557
-2.36561
-3.67904
-4.80469
-5.75092
-6.54288
-7.20753
-7.76411
-8.2263
-8.61079
-8.9292
-9.20259
-9.4441
7.64068
6.96877
5.02484
2.84682
0.839493
-0.899644
-2.40245
-3.70695
-4.82392
-5.76428
-6.55297
-7.21556
-7.77088
-8.23375
-8.619
-8.94086
-9.21536
-9.45958
8.43018
7.12526
5.02886
2.82719
0.805649
-0.944223
-2.44839
-3.74602
-4.85533
-5.7909
-6.57634
-7.23618
-7.78949
-8.25164
-8.63721
-8.96097
-9.23736
-9.48064
9.99514
7.36821
5.03665
2.78873
0.748613
-1.01435
-2.5202
-3.80992
-4.90942
-5.83733
-6.61668
-7.27145
-7.82108
-8.28144
-8.66703
-8.99188
-9.26857
-9.50699
11.2476
7.59786
5.03087
2.72554
0.671923
-1.09946
-2.6079
-3.89206
-4.98249
-5.90212
-6.67465
-7.32364
-7.86862
-8.32573
-8.70929
-9.03249
-9.30636
-9.53925
11.7246
7.75657
5.00535
2.6393
0.56468
-1.22038
-2.73098
-4.00661
-5.08443
-5.99214
-6.75468
-7.39551
-7.93408
-8.38645
-8.76652
-9.08653
-9.35669
-9.58484
12.1052
7.83024
4.94188
2.51267
0.416053
-1.37579
-2.88405
-4.15069
-5.21583
-6.11064
-6.86171
-7.49247
-8.02233
-8.46735
-8.84116
-9.15562
-9.42043
-9.64363
11.2701
7.73331
4.82508
2.34075
0.221979
-1.57576
-3.08102
-4.33775
-5.38764
-6.26535
-7.00014
-7.61646
-8.13425
-8.56972
-8.93604
-9.24423
-9.50301
-9.72064
10.1512
7.59634
4.65096
2.1096
-0.0385125
-1.83874
-3.33327
-4.57173
-5.6003
-6.45734
-7.17355
-7.77366
-8.27709
-8.69956
-9.05408
-9.352
-9.60246
-9.81354
10.0866
7.47732
4.42042
1.8058
-0.366425
-2.16389
-3.64453
-4.86335
-5.86906
-6.70088
-7.39219
-7.96933
-8.45269
-8.85853
-9.19971
-9.48686
-9.7283
-9.93182
11.9635
7.49883
4.142
1.43749
-0.762961
-2.55335
-4.00961
-5.19723
-6.16962
-6.97081
-7.6349
-8.18825
-8.65118
-9.03906
-9.36432
-9.63753
-9.86714
-10.0613
12.1998
7.37544
3.76298
0.973531
-1.24254
-3.01396
-4.43763
-5.5887
-6.52566
-7.29227
-7.92319
-8.4459
-8.88134
-9.2458
-9.5518
-9.80927
-10.0263
-10.2103
11.9981
6.93797
3.15657
0.282399
-1.93978
-3.67437
-5.04402
-6.13509
-7.01286
-7.72604
-8.31036
-8.79282
-9.19406
-9.52912
-9.80953
-10.0449
-10.2431
-10.4114
11.047
6.09938
2.13606
-0.797348
-2.98204
-4.62999
-5.90006
-6.89554
-7.68825
-8.32688
-8.84505
-9.26903
-9.61932
-9.91082
-10.1543
-10.3587
-10.5313
-10.6783
10.1571
4.53472
0.398249
-2.49087
-4.53401
-6.01601
-7.12223
-7.96804
-8.62904
-9.15364
-9.57404
-9.915
-10.1954
-10.4279
-10.6213
-10.7832
-10.9197
-11.036
10.0974
1.75029
-2.67528
-5.26222
-6.93562
-8.07234
-8.87765
-9.47289
-9.92799
-10.2831
-10.5637
-10.7885
-10.9714
-11.1211
-11.2442
-11.3464
-11.4322
-11.5057
-0.587974
-5.92274
-8.44955
-9.74404
-10.5131
-10.9924
-11.3036
-11.5236
-11.6833
-11.7978
-11.8803
-11.9418
-11.9889
-12.025
-12.0523
-12.0735
-12.0907
-12.1053
-23.4505
-19.6538
-17.554
-16.286
-15.4908
-14.9378
-14.5173
-14.1923
-13.9353
-13.7245
-13.5487
-13.4013
-13.2764
-13.1687
-13.0745
-12.9919
-12.9201
-12.8577
-39.8719
-29.6207
-24.5263
-21.5755
-19.6634
-18.3159
-17.3149
-16.5495
-15.9465
-15.4558
-15.0486
-14.7092
-14.425
-14.1842
-13.9779
-13.8008
-13.6483
-13.5161
-36.9018
-31.8603
-27.5824
-24.4649
-22.2064
-20.5171
-19.2082
-18.1747
-17.3472
-16.6736
-16.1179
-15.6542
-15.2638
-14.931
-14.6442
-14.3972
-14.1835
-13.9991
-39.2587
-33.3113
-29.3019
-26.2514
-23.885
-22.0175
-20.5307
-19.3368
-18.3665
-17.5657
-16.902
-16.3439
-15.8731
-15.4725
-15.1296
-14.8335
-14.577
-14.3548
-36.0142
-33.4812
-30.1989
-27.3542
-25.0088
-23.076
-21.4907
-20.1935
-19.1285
-18.2322
-17.4991
-16.8719
-16.3439
-15.8844
-15.4961
-15.1628
-14.8747
-14.6243
-37.9606
-34.0247
-30.8401
-28.0909
-25.7323
-23.7414
-22.0955
-20.7363
-19.6022
-18.6712
-17.8725
-17.2082
-16.639
-16.1625
-15.7493
-15.3916
-15.081
-14.8106
-37.0422
-34.3314
-31.2834
-28.5958
-26.2555
-24.2405
-22.5596
-21.1482
-19.9764
-18.9977
-18.1692
-17.4703
-16.8754
-16.3692
-15.9335
-15.5569
-15.2299
-14.9446
-38.3885
-34.6705
-31.6075
-28.9198
-26.5484
-24.4989
-22.8004
-21.3925
-20.207
-19.2057
-18.3567
-17.6373
-17.025
-16.5018
-16.0519
-15.6631
-15.3255
-15.0312
-38.5394
-34.9718
-31.8909
-29.1728
-26.7721
-24.7297
-23.0029
-21.5735
-20.368
-19.3463
-18.481
-17.7481
-17.1247
-16.5917
-16.1331
-15.7365
-15.3917
-15.0907
-38.8046
-35.0622
-32.0352
-29.2822
-26.8667
-24.8205
-23.1029
-21.6664
-20.4528
-19.4235
-18.5514
-17.812
-17.1824
-16.6429
-16.1783
-15.7765
-15.4278
-15.1237
-38.6902
-35.2663
-32.177
-29.3659
-26.9286
-24.886
-23.1695
-21.727
-20.5064
-19.4699
-18.591
-17.8462
-17.2123
-16.6695
-16.2022
-15.7978
-15.4466
-15.1405
-38.6524
-35.3305
-32.2293
-29.3665
-26.9391
-24.9064
-23.1912
-21.7441
-20.5192
-19.481
-18.6021
-17.8575
-17.2236
-16.6805
-16.2127
-15.8077
-15.4559
-15.1486
-10.5346
-10.5385
-10.5505
-10.5688
-10.5931
-10.6232
-10.6587
-10.6992
-10.7444
-10.7937
-10.8466
-10.9028
-10.9619
-11.0239
-11.0879
-11.1526
-11.2168
-11.2803
-11.3436
-11.4086
-11.4727
-11.5496
-11.6394
-11.7476
-11.8788
-12.0365
-12.2235
-12.4412
-12.6902
-12.9696
-13.2777
-13.6115
-13.9669
-14.3385
-14.7197
-15.1026
-15.478
-15.8355
-16.164
-16.4517
-16.6868
-16.8587
-16.9583
-16.9784
-16.913
-16.7588
-16.5145
-16.1841
-15.7751
-15.2966
-14.7589
-14.1728
-13.5495
-12.8993
-12.2323
-11.5573
-10.8824
-10.2146
-9.56049
-8.92576
-8.31548
-7.73401
-7.18501
-6.67135
-6.19504
-5.75722
-5.35811
-4.99717
-4.6731
-4.38402
-4.1277
-3.90176
-3.70432
-3.53185
-3.38112
-3.2499
-3.1359
-3.03696
-2.95108
-2.87648
-2.81154
-2.75484
-2.70513
-2.66132
-2.62244
-2.58767
-2.55629
-2.52768
-2.50131
-2.47673
-2.45353
-2.43137
-2.40996
-2.38905
-2.36844
-2.34795
-2.32743
-2.30674
-2.28578
-2.26446
-2.2427
-2.22045
-2.19764
-2.17424
-2.15023
-2.12558
-2.10028
-2.07431
-2.04766
-2.02032
-1.99229
-1.96357
-1.93417
-1.90412
-1.87342
-1.84205
-1.81004
-1.77738
-1.74408
-1.71016
-1.67563
-1.64049
-1.60476
-1.56847
-1.53163
-1.49426
-1.45637
-1.41797
-1.37906
-1.33966
-1.29976
-1.25937
-1.21849
-1.17713
-1.13528
-1.09295
-1.05014
-1.00686
-0.963111
-0.918897
-0.874216
-0.829068
-0.783457
-0.737388
-0.690868
-0.643903
-0.596497
-0.548654
-0.500376
-0.451663
-0.402517
-0.352936
-0.302918
-0.252459
-0.201554
-0.150198
-0.0983817
-0.0460955
0.00667298
0.0599404
0.113725
0.168053
0.222953
0.278468
0.33464
0.391546
0.449245
0.507881
0.567528
0.628466
0.690782
0.755034
0.821306
0.890749
0.963417
1.04176
1.12587
1.22079
1.3278
1.45136
-10.5264
-10.5318
-10.5435
-10.561
-10.5843
-10.6129
-10.6468
-10.6858
-10.7297
-10.7777
-10.8296
-10.8851
-10.9437
-11.0044
-11.0666
-11.1304
-11.1957
-11.2628
-11.3324
-11.4057
-11.485
-11.5746
-11.6784
-11.801
-11.9468
-12.1191
-12.3206
-12.5525
-12.8152
-13.108
-13.4291
-13.7756
-14.1432
-14.5264
-14.9187
-15.3123
-15.698
-16.0652
-16.4022
-16.6965
-16.9358
-17.1084
-17.2038
-17.2145
-17.1356
-16.9651
-16.7059
-16.3623
-15.9403
-15.4488
-14.8985
-14.3005
-13.666
-13.0058
-12.3297
-11.6466
-10.9641
-10.2894
-9.62844
-8.98701
-8.37011
-7.7822
-7.22705
-6.70769
-6.22625
-5.78392
-5.38097
-5.01684
-4.69016
-4.39894
-4.14075
-3.9129
-3.71641
-3.54228
-3.39065
-3.25878
-3.14424
-3.04481
-2.95849
-2.88347
-2.81814
-2.76106
-2.71098
-2.66681
-2.62758
-2.59248
-2.56079
-2.53189
-2.50524
-2.4804
-2.45696
-2.43457
-2.41296
-2.39186
-2.37108
-2.35043
-2.32976
-2.30893
-2.28785
-2.2664
-2.24453
-2.22217
-2.19925
-2.17576
-2.15166
-2.12692
-2.10153
-2.07548
-2.04876
-2.02135
-1.99326
-1.9645
-1.93506
-1.90496
-1.87419
-1.84277
-1.8107
-1.77798
-1.74464
-1.71068
-1.67609
-1.64091
-1.60514
-1.56882
-1.53195
-1.49456
-1.45664
-1.41822
-1.37929
-1.33986
-1.29995
-1.25954
-1.21865
-1.17728
-1.13542
-1.09308
-1.05026
-1.00698
-0.963225
-0.919006
-0.87432
-0.829167
-0.78355
-0.737476
-0.690951
-0.643982
-0.596573
-0.548728
-0.500448
-0.451734
-0.402587
-0.353006
-0.302988
-0.25253
-0.201627
-0.150273
-0.0984604
-0.0461789
0.00658348
0.0598428
0.113617
0.167932
0.222815
0.278309
0.334454
0.391323
0.448978
0.507548
0.567126
0.627945
0.690146
0.754159
0.820229
0.889139
0.961427
1.0384
1.12168
1.21226
1.31479
1.41737
-10.4862
-10.4912
-10.5023
-10.5182
-10.5391
-10.5647
-10.595
-10.6298
-10.6688
-10.7126
-10.7609
-10.8136
-10.8704
-10.9312
-10.9959
-11.0648
-11.1381
-11.2169
-11.3023
-11.3957
-11.499
-11.6153
-11.7477
-11.8993
-12.073
-12.2711
-12.4956
-12.7477
-13.0281
-13.3366
-13.672
-14.0323
-14.414
-14.8126
-15.2217
-15.633
-16.0368
-16.4219
-16.7761
-17.086
-17.3386
-17.5212
-17.6227
-17.635
-17.5531
-17.3716
-17.0946
-16.7282
-16.281
-15.7635
-15.1874
-14.5647
-13.9074
-13.2265
-12.532
-11.8325
-11.1352
-10.4464
-9.77198
-9.11708
-8.48676
-7.88564
-7.31782
-6.78664
-6.29452
-5.84282
-5.43191
-5.06114
-4.72904
-4.43347
-4.17179
-3.94135
-3.74221
-3.56646
-3.41336
-3.28021
-3.16454
-3.06407
-2.97678
-2.90083
-2.83459
-2.77663
-2.7257
-2.68069
-2.64066
-2.60478
-2.57232
-2.54269
-2.51535
-2.48984
-2.46577
-2.44279
-2.42061
-2.39898
-2.3777
-2.35658
-2.33547
-2.31423
-2.29275
-2.27094
-2.24872
-2.22602
-2.20281
-2.17903
-2.15466
-2.12968
-2.10406
-2.0778
-2.05088
-2.02329
-1.99504
-1.96612
-1.93652
-1.90627
-1.87537
-1.84383
-1.81165
-1.77884
-1.74541
-1.71136
-1.67672
-1.64149
-1.60569
-1.56933
-1.53242
-1.49499
-1.45704
-1.41858
-1.37962
-1.34017
-1.30022
-1.25979
-1.21887
-1.17748
-1.1356
-1.09324
-1.05042
-1.00712
-0.963362
-0.919133
-0.874436
-0.829272
-0.783645
-0.737563
-0.691031
-0.644056
-0.596643
-0.548794
-0.500511
-0.451796
-0.402649
-0.353068
-0.303051
-0.252596
-0.201697
-0.150349
-0.0985438
-0.046272
0.00647804
0.0597214
0.113476
0.167765
0.222617
0.278069
0.334164
0.390964
0.448538
0.506986
0.566425
0.627017
0.688976
0.752549
0.818167
0.886154
0.957459
1.03222
1.11262
1.1968
1.28948
1.37398
-10.4395
-10.4433
-10.452
-10.4658
-10.4845
-10.5079
-10.536
-10.5687
-10.606
-10.6478
-10.6945
-10.7462
-10.803
-10.8654
-10.9338
-11.0088
-11.0911
-11.1819
-11.2825
-11.3943
-11.5191
-11.6592
-11.8168
-11.9944
-12.1943
-12.4185
-12.6689
-12.947
-13.2535
-13.5886
-13.9516
-14.3408
-14.7533
-15.1846
-15.6283
-16.0762
-16.5177
-16.9406
-17.3309
-17.6737
-17.954
-18.1571
-18.2698
-18.2812
-18.1855
-17.9855
-17.6826
-17.2839
-16.7998
-16.2428
-15.6267
-14.9654
-14.2723
-13.5593
-12.8366
-12.1123
-11.393
-10.6837
-9.98939
-9.31453
-8.66399
-8.04272
-7.45537
-6.9059
-6.39727
-5.9312
-5.50813
-5.12737
-4.78723
-4.4853
-4.21867
-3.98464
-3.78118
-3.60306
-3.44777
-3.31267
-3.19523
-3.09313
-3.0043
-2.92688
-2.85923
-2.79989
-2.74762
-2.70131
-2.66001
-2.6229
-2.58927
-2.55851
-2.53009
-2.50356
-2.47852
-2.45463
-2.43159
-2.40917
-2.38714
-2.36532
-2.34355
-2.32171
-2.29966
-2.27733
-2.25462
-2.23147
-2.20783
-2.18366
-2.15892
-2.1336
-2.10767
-2.08111
-2.05392
-2.02609
-1.9976
-1.96846
-1.93867
-1.90824
-1.87718
-1.84549
-1.81317
-1.78024
-1.7467
-1.71255
-1.67781
-1.64248
-1.60659
-1.57015
-1.53318
-1.49568
-1.45768
-1.41917
-1.38016
-1.34066
-1.30068
-1.26021
-1.21926
-1.17783
-1.13592
-1.09355
-1.0507
-1.00739
-0.963609
-0.919361
-0.874645
-0.829463
-0.783821
-0.737724
-0.691181
-0.644196
-0.596774
-0.548918
-0.50063
-0.451911
-0.402761
-0.353179
-0.303163
-0.25271
-0.201814
-0.150472
-0.098675
-0.0464144
0.00632097
0.059545
0.113275
0.167533
0.222344
0.277744
0.333775
0.390488
0.447956
0.506257
0.565516
0.625851
0.687492
0.750592
0.815605
0.88264
0.952636
1.02524
1.10232
1.18107
1.26461
1.33712
-10.4049
-10.4082
-10.4163
-10.4287
-10.4455
-10.4668
-10.4927
-10.5232
-10.5585
-10.599
-10.6449
-10.6966
-10.7547
-10.8196
-10.8922
-10.9732
-11.0638
-11.1652
-11.2787
-11.406
-11.5487
-11.7089
-11.8886
-12.09
-12.3154
-12.567
-12.8467
-13.1561
-13.4966
-13.8687
-14.2721
-14.7055
-15.166
-15.6493
-16.1487
-16.6553
-17.1575
-17.6413
-18.0906
-18.4876
-18.8137
-19.0504
-19.1816
-19.1952
-19.0862
-18.8587
-18.5167
-18.0686
-17.5279
-16.9107
-16.2345
-15.5161
-14.771
-14.0123
-13.2504
-12.4926
-11.7439
-11.0078
-10.2872
-9.58561
-8.90736
-8.2579
-7.64292
-7.06748
-6.53544
-6.0491
-5.60908
-5.21455
-4.86348
-4.55308
-4.28009
-4.04127
-3.8333
-3.65194
-3.4939
-3.35634
-3.23663
-3.13242
-3.04156
-2.96219
-2.89265
-2.83148
-2.77742
-2.72937
-2.68638
-2.64763
-2.61241
-2.58012
-2.55024
-2.52233
-2.49597
-2.47084
-2.44665
-2.42313
-2.40008
-2.3773
-2.35464
-2.33196
-2.30914
-2.28607
-2.26268
-2.2389
-2.21467
-2.18995
-2.16471
-2.13892
-2.11255
-2.08559
-2.05802
-2.02984
-2.00103
-1.9716
-1.94155
-1.91087
-1.87958
-1.84768
-1.81517
-1.78206
-1.74834
-1.71404
-1.67916
-1.64371
-1.60772
-1.57118
-1.53413
-1.49656
-1.45848
-1.41991
-1.38084
-1.34129
-1.30125
-1.26074
-1.21974
-1.17828
-1.13634
-1.09393
-1.05106
-1.00772
-0.96391
-0.919636
-0.874895
-0.829689
-0.784026
-0.737912
-0.691353
-0.644355
-0.596923
-0.549059
-0.500764
-0.452041
-0.402887
-0.353304
-0.303288
-0.252837
-0.201946
-0.150611
-0.0988239
-0.0465769
0.00614075
0.0593417
0.113042
0.167262
0.222026
0.277364
0.333317
0.389929
0.447269
0.505402
0.564446
0.624492
0.685755
0.748332
0.812625
0.878643
0.947122
1.01757
1.09114
1.16512
1.2405
1.30497
-10.3867
-10.3896
-10.3972
-10.4088
-10.4245
-10.4445
-10.4689
-10.4981
-10.5323
-10.572
-10.6176
-10.6697
-10.729
-10.7962
-10.8723
-10.9583
-11.0556
-11.1655
-11.2898
-11.4301
-11.5883
-11.7664
-11.9666
-12.1913
-12.4428
-12.7238
-13.0368
-13.3838
-13.7667
-14.1868
-14.6444
-15.1386
-15.6666
-16.2234
-16.8018
-17.3914
-17.9789
-18.5475
-19.0773
-19.546
-19.9301
-20.2085
-20.3639
-20.3844
-20.2639
-20.0011
-19.6025
-19.082
-18.4595
-17.7577
-16.9994
-16.2055
-15.3937
-14.5784
-13.7695
-12.9732
-12.192
-11.4263
-10.6757
-9.94136
-9.22739
-8.54021
-7.88749
-7.27641
-6.71234
-6.19843
-5.7355
-5.32244
-4.95675
-4.63512
-4.35399
-4.10942
-3.89637
-3.71109
-3.54997
-3.40976
-3.28761
-3.18102
-3.08782
-3.00613
-2.93428
-2.87085
-2.81456
-2.76432
-2.71921
-2.67839
-2.64118
-2.60697
-2.57527
-2.54561
-2.51761
-2.49092
-2.46526
-2.44038
-2.41604
-2.39207
-2.3683
-2.34457
-2.32078
-2.29681
-2.27257
-2.24801
-2.22305
-2.19766
-2.17179
-2.14542
-2.11852
-2.09106
-2.06303
-2.03443
-2.00523
-1.97544
-1.94506
-1.91408
-1.88251
-1.85035
-1.8176
-1.78427
-1.75036
-1.71588
-1.68084
-1.64525
-1.60913
-1.57248
-1.53532
-1.49766
-1.4595
-1.42085
-1.3817
-1.34208
-1.30198
-1.26141
-1.22036
-1.17885
-1.13687
-1.09442
-1.05151
-1.00814
-0.964296
-0.919989
-0.875216
-0.829982
-0.784294
-0.738157
-0.69158
-0.644566
-0.597121
-0.549245
-0.500942
-0.452211
-0.403054
-0.353467
-0.303451
-0.253002
-0.202116
-0.150788
-0.0990115
-0.0467793
0.00591844
0.0590934
0.112761
0.166937
0.221647
0.276915
0.33278
0.389278
0.446473
0.504418
0.563218
0.622945
0.683779
0.745788
0.809281
0.87423
0.941109
1.00942
1.07963
1.14934
1.2181
1.27694
-10.3828
-10.3857
-10.3929
-10.4039
-10.4189
-10.438
-10.4615
-10.4897
-10.5232
-10.5623
-10.6078
-10.6603
-10.7206
-10.7897
-10.8685
-10.9586
-11.0614
-11.1787
-11.3124
-11.4643
-11.6365
-11.8312
-12.0509
-12.2986
-12.5776
-12.8913
-13.2431
-13.636
-14.0726
-14.5545
-15.082
-15.6537
-16.2663
-16.9136
-17.5867
-18.274
-18.9603
-19.6255
-20.2449
-20.7925
-21.2419
-21.5691
-21.7539
-21.7789
-21.63
-21.3017
-20.8114
-20.1855
-19.4543
-18.6484
-17.7968
-16.9243
-16.0505
-15.1885
-14.3444
-13.521
-12.7181
-11.9323
-11.1586
-10.3941
-9.64033
-8.90565
-8.20246
-7.54274
-6.93505
-6.38404
-5.89081
-5.45365
-5.06926
-4.73358
-4.44224
-4.18898
-3.96939
-3.77917
-3.61432
-3.47121
-3.34662
-3.23775
-3.14225
-3.05816
-2.98383
-2.91783
-2.85897
-2.80617
-2.75853
-2.71525
-2.67565
-2.63914
-2.60524
-2.57348
-2.5435
-2.51495
-2.48754
-2.46101
-2.43514
-2.40974
-2.38462
-2.35965
-2.33469
-2.30964
-2.28439
-2.25889
-2.23306
-2.20686
-2.18025
-2.15318
-2.12563
-2.09758
-2.069
-2.03989
-2.01023
-1.98001
-1.94923
-1.91789
-1.88598
-1.85352
-1.82049
-1.78691
-1.75277
-1.71807
-1.68284
-1.64708
-1.61081
-1.57402
-1.53673
-1.49895
-1.46069
-1.42194
-1.38271
-1.34301
-1.30284
-1.2622
-1.22109
-1.17953
-1.1375
-1.095
-1.05205
-1.00863
-0.964746
-0.920398
-0.875588
-0.83032
-0.784602
-0.73844
-0.69184
-0.644808
-0.597347
-0.549459
-0.501145
-0.452407
-0.403243
-0.353654
-0.303637
-0.25319
-0.202309
-0.150989
-0.0992245
-0.0470089
0.00566677
0.0588129
0.112443
0.166572
0.221221
0.276412
0.332178
0.388552
0.445586
0.503326
0.561858
0.621239
0.681608
0.743014
0.805664
0.869508
0.93478
1.00099
1.0681
1.13407
1.19757
1.25228
-10.3861
-10.3891
-10.3964
-10.4071
-10.4217
-10.4403
-10.4633
-10.4911
-10.5241
-10.563
-10.6085
-10.6614
-10.7226
-10.7931
-10.8743
-10.9679
-11.0757
-11.1996
-11.3417
-11.5041
-11.6889
-11.8989
-12.1377
-12.4094
-12.7187
-13.0704
-13.4687
-13.9172
-14.418
-14.9718
-15.5776
-16.2321
-16.9303
-17.6645
-18.4248
-19.1999
-19.9767
-20.7379
-21.46
-22.1108
-22.6532
-23.0498
-23.2664
-23.2781
-23.0765
-22.6701
-22.0779
-21.3308
-20.4678
-19.5307
-18.5583
-17.582
-16.6253
-15.7052
-14.8334
-14.0119
-13.2299
-12.4661
-11.7039
-10.9326
-10.1502
-9.36644
-8.60102
-7.87667
-7.21011
-6.60958
-6.07691
-5.60951
-5.20261
-4.8509
-4.54565
-4.28171
-4.05373
-3.85687
-3.68679
-3.53963
-3.41192
-3.30057
-3.20291
-3.11667
-3.04004
-2.97155
-2.91
-2.85442
-2.80394
-2.75785
-2.7155
-2.67633
-2.63986
-2.60568
-2.57339
-2.54268
-2.51323
-2.4848
-2.45716
-2.43009
-2.40343
-2.37701
-2.35071
-2.3244
-2.29799
-2.2714
-2.24457
-2.21744
-2.18996
-2.16209
-2.1338
-2.10506
-2.07585
-2.04615
-2.01595
-1.98524
-1.95401
-1.92225
-1.88997
-1.85715
-1.82381
-1.78993
-1.75552
-1.72058
-1.68513
-1.64918
-1.61273
-1.57578
-1.53835
-1.50045
-1.46206
-1.4232
-1.38388
-1.34409
-1.30383
-1.26312
-1.22194
-1.18031
-1.13822
-1.09568
-1.05267
-1.0092
-0.965266
-0.920871
-0.876018
-0.830712
-0.784961
-0.73877
-0.692146
-0.645092
-0.597613
-0.549709
-0.501384
-0.452636
-0.403466
-0.353872
-0.303854
-0.253408
-0.202531
-0.15122
-0.0994681
-0.0472701
0.00538189
0.058497
0.112087
0.166164
0.220748
0.275855
0.331515
0.387755
0.444616
0.502136
0.560381
0.619396
0.679277
0.740053
0.801841
0.864566
0.928272
0.99248
1.0568
1.11951
1.17888
1.2304
-10.3894
-10.3929
-10.4008
-10.4117
-10.4264
-10.4451
-10.4681
-10.4958
-10.529
-10.5681
-10.6139
-10.6673
-10.7294
-10.8013
-10.8847
-10.9815
-11.0936
-11.2234
-11.3728
-11.5443
-11.7406
-11.9654
-12.2238
-12.5217
-12.8655
-13.2607
-13.7115
-14.22
-14.786
-15.4072
-16.0795
-16.7977
-17.5578
-18.3571
-19.1937
-20.0634
-20.958
-21.8649
-22.7632
-23.6163
-24.3681
-24.9469
-25.2843
-25.345
-25.1237
-24.6302
-23.8834
-22.9293
-21.8304
-20.6548
-19.4625
-18.2978
-17.1904
-16.1602
-15.2176
-14.3669
-13.6027
-12.8988
-12.2088
-11.4914
-10.7249
-9.91364
-9.08651
-8.2845
-7.54215
-6.8771
-6.29409
-5.78989
-5.35766
-4.98513
-4.66445
-4.38835
-4.15053
-3.94558
-3.7688
-3.61608
-3.48385
-3.36892
-3.26847
-3.17999
-3.1013
-3.03065
-2.96669
-2.90841
-2.85504
-2.80592
-2.76052
-2.71836
-2.67901
-2.64206
-2.60716
-2.57399
-2.54224
-2.51166
-2.482
-2.45306
-2.42465
-2.3966
-2.36878
-2.34105
-2.31333
-2.28552
-2.25755
-2.22936
-2.2009
-2.17213
-2.143
-2.11349
-2.08356
-2.05321
-2.0224
-1.99113
-1.95939
-1.92716
-1.89445
-1.86124
-1.82753
-1.79332
-1.75861
-1.72341
-1.68772
-1.65154
-1.6149
-1.57777
-1.54018
-1.50213
-1.46361
-1.42463
-1.3852
-1.3453
-1.30495
-1.26415
-1.2229
-1.1812
-1.13904
-1.09643
-1.05336
-1.00983
-0.965846
-0.921398
-0.876498
-0.83115
-0.785362
-0.739139
-0.692487
-0.64541
-0.597911
-0.549991
-0.501651
-0.452893
-0.403715
-0.354116
-0.304096
-0.253651
-0.202779
-0.151476
-0.099738
-0.0475587
0.00506818
0.0581503
0.111697
0.16572
0.220234
0.275253
0.3308
0.386897
0.443576
0.500866
0.558812
0.617445
0.676824
0.736955
0.79788
0.859496
0.921705
0.984031
1.04589
1.10578
1.16189
1.21088
-10.387
-10.3913
-10.4004
-10.4122
-10.4277
-10.4471
-10.4707
-10.4991
-10.5328
-10.5726
-10.6191
-10.6733
-10.7364
-10.8098
-10.8952
-10.9947
-11.1106
-11.2452
-11.4009
-11.5804
-11.7872
-12.0264
-12.3049
-12.6305
-13.0104
-13.4496
-13.9503
-14.5114
-15.1287
-15.797
-16.512
-17.2725
-18.0827
-18.9523
-19.8947
-20.9215
-22.0373
-23.2295
-24.4594
-25.6612
-26.7449
-27.6044
-28.1411
-28.2932
-28.0376
-27.3844
-26.382
-25.1104
-23.6678
-22.155
-20.6577
-19.2334
-17.9122
-16.7064
-15.6222
-14.6711
-13.8619
-13.178
-12.5664
-11.9534
-11.2728
-10.4924
-9.63362
-8.75694
-7.92766
-7.18485
-6.54083
-5.99404
-5.52967
-5.13475
-4.79752
-4.50835
-4.25969
-4.04554
-3.86091
-3.70145
-3.56343
-3.44359
-3.33911
-3.24743
-3.16623
-3.09347
-3.02744
-2.96687
-2.91085
-2.8588
-2.81026
-2.7649
-2.72237
-2.68237
-2.64457
-2.60866
-2.57435
-2.54138
-2.5095
-2.47848
-2.44813
-2.41828
-2.38877
-2.35947
-2.33029
-2.30113
-2.2719
-2.24254
-2.213
-2.18322
-2.15317
-2.12279
-2.09208
-2.06099
-2.02951
-1.99763
-1.96532
-1.93258
-1.89939
-1.86575
-1.83164
-1.79707
-1.76203
-1.72653
-1.69057
-1.65416
-1.61729
-1.57998
-1.54221
-1.50399
-1.46532
-1.42621
-1.38665
-1.34665
-1.3062
-1.26531
-1.22397
-1.18219
-1.13995
-1.09727
-1.05413
-1.01054
-0.966485
-0.92198
-0.877028
-0.831635
-0.785807
-0.73955
-0.692868
-0.645765
-0.598243
-0.550305
-0.50195
-0.453179
-0.403992
-0.354388
-0.304365
-0.253921
-0.203054
-0.151759
-0.100034
-0.0478742
0.00472669
0.0577745
0.111277
0.165243
0.219684
0.274611
0.330041
0.38599
0.44248
0.49953
0.557169
0.615412
0.674283
0.733767
0.793843
0.854379
0.915181
0.975768
1.03545
1.09292
1.14645
1.19343
-10.3749
-10.3804
-10.3914
-10.4049
-10.4222
-10.4429
-10.4679
-10.4974
-10.5322
-10.5729
-10.6204
-10.6756
-10.7398
-10.8145
-10.9016
-11.0034
-11.1223
-11.2608
-11.4214
-11.6076
-11.8236
-12.076
-12.3732
-12.7244
-13.1367
-13.6136
-14.1543
-14.7536
-15.4045
-16.1021
-16.8459
-17.644
-18.5152
-19.4876
-20.5928
-21.8548
-23.2826
-24.8544
-26.5055
-28.1302
-29.5951
-30.7565
-31.4846
-31.7002
-31.3702
-30.5298
-29.239
-27.6059
-25.7656
-23.8608
-22.014
-20.3008
-18.7492
-17.3627
-16.1303
-15.042
-14.1135
-13.372
-12.7871
-12.2714
-11.7061
-11.0152
-10.1796
-9.25631
-8.34476
-7.52105
-6.81208
-6.21527
-5.71569
-5.2964
-4.9419
-4.63964
-4.38009
-4.15629
-3.96296
-3.79581
-3.65106
-3.52533
-3.41569
-3.31964
-3.23489
-3.15933
-3.09103
-3.02837
-2.97011
-2.91547
-2.864
-2.81544
-2.76962
-2.72634
-2.68539
-2.64649
-2.60939
-2.5738
-2.53949
-2.5062
-2.47374
-2.44192
-2.41057
-2.37957
-2.3488
-2.31815
-2.28755
-2.25692
-2.22619
-2.19531
-2.16424
-2.13293
-2.10135
-2.06947
-2.03726
-2.00471
-1.97178
-1.93848
-1.90477
-1.87066
-1.83612
-1.80115
-1.76576
-1.72994
-1.69369
-1.65702
-1.61992
-1.58238
-1.54442
-1.50603
-1.4672
-1.42794
-1.38825
-1.34812
-1.30756
-1.26657
-1.22513
-1.18326
-1.14095
-1.09818
-1.05497
-1.0113
-0.967178
-0.922612
-0.877605
-0.832163
-0.786292
-0.739998
-0.693284
-0.646153
-0.598607
-0.550649
-0.502278
-0.453494
-0.404297
-0.354686
-0.30466
-0.254216
-0.203353
-0.152067
-0.100355
-0.0482144
0.00435987
0.0573725
0.110829
0.164737
0.219102
0.273935
0.329245
0.385042
0.441339
0.498146
0.555474
0.613324
0.67169
0.730534
0.789788
0.849289
0.908782
0.96778
1.02556
1.08096
1.13241
1.1778
-10.352
-10.3587
-10.3724
-10.3886
-10.4081
-10.431
-10.4577
-10.4888
-10.5249
-10.5668
-10.6153
-10.6715
-10.7366
-10.8123
-10.9005
-11.0038
-11.1246
-11.2656
-11.4298
-11.6207
-11.8438
-12.1064
-12.4181
-12.789
-13.2256
-13.73
-14.2983
-14.9217
-15.5928
-16.3091
-17.0771
-17.9169
-18.8627
-19.9607
-21.2573
-22.7817
-24.5406
-26.4957
-28.556
-30.586
-32.4219
-33.888
-34.8248
-35.1328
-34.755
-33.7453
-32.1671
-30.1577
-27.8931
-25.5612
-23.3328
-21.3148
-19.5368
-17.9929
-16.6539
-15.4697
-14.4281
-13.5795
-12.9557
-12.4785
-12.0137
-11.4289
-10.6616
-9.72724
-8.75525
-7.86214
-7.08954
-6.44461
-5.91044
-5.46659
-5.09441
-4.77885
-4.5086
-4.27552
-4.07369
-3.89857
-3.74645
-3.61409
-3.49857
-3.39727
-3.30794
-3.22855
-3.15718
-3.09205
-3.0316
-2.9747
-2.92066
-2.86917
-2.82015
-2.77354
-2.72928
-2.68721
-2.6471
-2.6087
-2.57177
-2.53605
-2.50132
-2.46738
-2.43406
-2.40122
-2.36873
-2.33649
-2.30441
-2.27239
-2.24039
-2.20833
-2.17616
-2.14384
-2.11133
-2.07859
-2.0456
-2.01232
-1.97873
-1.94482
-1.91056
-1.87593
-1.84093
-1.80555
-1.76977
-1.73361
-1.69705
-1.6601
-1.62274
-1.58498
-1.54681
-1.50822
-1.46922
-1.42981
-1.38997
-1.34972
-1.30904
-1.26793
-1.22639
-1.18442
-1.14201
-1.09916
-1.05586
-1.01211
-0.967922
-0.923291
-0.878225
-0.832732
-0.786817
-0.740483
-0.693735
-0.646574
-0.599003
-0.551023
-0.502634
-0.453836
-0.404628
-0.35501
-0.304979
-0.254535
-0.203675
-0.152397
-0.100699
-0.0485776
0.00397002
0.0569472
0.110358
0.164206
0.218496
0.273232
0.32842
0.384064
0.440168
0.49673
0.553749
0.611208
0.669078
0.727298
0.785764
0.844287
0.902572
0.960133
1.01626
1.06989
1.11965
1.16378
-10.3198
-10.3271
-10.3438
-10.3632
-10.3855
-10.4108
-10.4397
-10.4727
-10.5103
-10.5534
-10.6028
-10.6595
-10.725
-10.801
-10.8895
-10.993
-11.1142
-11.256
-11.4217
-11.6155
-11.8418
-12.1101
-12.4298
-12.8118
-13.2621
-13.7821
-14.3657
-15.0022
-15.685
-16.4134
-17.2017
-18.0801
-19.0931
-20.2987
-21.7558
-23.4955
-25.523
-27.7861
-30.1732
-32.5262
-34.6614
-36.3815
-37.4941
-37.8594
-37.4909
-36.3445
-34.5256
-32.2089
-29.6042
-26.9279
-24.3844
-22.1165
-20.157
-18.4888
-17.0859
-15.8611
-14.7645
-13.8346
-13.1344
-12.6473
-12.2397
-11.7425
-11.048
-10.1326
-9.12697
-8.17691
-7.35077
-6.66568
-6.10306
-5.63882
-5.25148
-4.92375
-4.64294
-4.40041
-4.19015
-4.00745
-3.84825
-3.70917
-3.58736
-3.48032
-3.3858
-3.30177
-3.22638
-3.15794
-3.09479
-3.03555
-2.97918
-2.92511
-2.87317
-2.82338
-2.77582
-2.73047
-2.68721
-2.64585
-2.60615
-2.56784
-2.5307
-2.49451
-2.45909
-2.42429
-2.38998
-2.35604
-2.32237
-2.28889
-2.25552
-2.22219
-2.18886
-2.15546
-2.12195
-2.0883
-2.05447
-2.02042
-1.98613
-1.95157
-1.91672
-1.88155
-1.84606
-1.81023
-1.77406
-1.73753
-1.70064
-1.66339
-1.62577
-1.58776
-1.54936
-1.51057
-1.47139
-1.43181
-1.39182
-1.35142
-1.31061
-1.26939
-1.22774
-1.18566
-1.14315
-1.1002
-1.05681
-1.01298
-0.968713
-0.924013
-0.878887
-0.833341
-0.787378
-0.741003
-0.694219
-0.647027
-0.59943
-0.551427
-0.503019
-0.454205
-0.404985
-0.355358
-0.305322
-0.254877
-0.20402
-0.152749
-0.101064
-0.0489617
0.0035595
0.0565015
0.109866
0.163655
0.217869
0.27251
0.327576
0.383067
0.438978
0.495298
0.552012
0.609088
0.666478
0.724098
0.781817
0.839425
0.896605
0.952876
1.00755
1.05968
1.10805
1.15119
-10.2861
-10.2916
-10.3091
-10.3309
-10.356
-10.3839
-10.415
-10.4498
-10.4887
-10.5326
-10.5824
-10.6392
-10.7044
-10.7797
-10.8673
-10.9697
-11.0897
-11.2302
-11.3947
-11.5875
-11.814
-12.0825
-12.4031
-12.7864
-13.2389
-13.7618
-14.3489
-14.9891
-15.6757
-16.4094
-17.2077
-18.1062
-19.1553
-20.4162
-21.9509
-23.7937
-25.9476
-28.3534
-30.8887
-33.3832
-35.6393
-37.4547
-38.6469
-39.0821
-38.6681
-37.4469
-35.5275
-33.0909
-30.3588
-27.5591
-24.906
-22.5509
-20.5332
-18.8207
-17.3727
-16.1388
-15.0528
-14.0992
-13.3443
-12.8225
-12.4288
-11.9818
-11.3417
-10.4508
-9.42743
-8.43896
-7.57629
-6.86466
-6.28347
-5.80521
-5.40689
-5.07009
-4.78082
-4.52959
-4.31063
-4.12001
-3.95396
-3.80866
-3.68087
-3.56806
-3.46809
-3.37902
-3.29903
-3.22646
-3.15981
-3.09766
-3.03878
-2.98229
-2.92775
-2.8751
-2.82443
-2.77586
-2.72941
-2.68498
-2.64238
-2.60136
-2.56169
-2.52314
-2.48551
-2.44865
-2.41242
-2.37668
-2.34134
-2.3063
-2.27149
-2.23683
-2.20226
-2.16772
-2.13316
-2.09854
-2.06383
-2.02897
-1.99393
-1.95869
-1.92322
-1.88748
-1.85147
-1.81518
-1.77858
-1.74167
-1.70444
-1.66688
-1.62897
-1.5907
-1.55207
-1.51307
-1.47369
-1.43392
-1.39378
-1.35323
-1.31229
-1.27093
-1.22916
-1.18697
-1.14435
-1.1013
-1.05782
-1.0139
-0.969547
-0.924776
-0.879587
-0.833985
-0.787974
-0.741556
-0.694735
-0.64751
-0.599885
-0.551858
-0.50343
-0.454599
-0.405366
-0.35573
-0.305688
-0.255241
-0.204386
-0.153122
-0.101449
-0.0493648
0.00313077
0.0560382
0.109358
0.163088
0.217228
0.271774
0.326721
0.382062
0.437783
0.493867
0.550284
0.606989
0.663918
0.720967
0.777985
0.834747
0.890922
0.946041
0.999455
1.05031
1.09753
1.13989
-10.2623
-10.2616
-10.2736
-10.2956
-10.3228
-10.3531
-10.3862
-10.4223
-10.4619
-10.5057
-10.5549
-10.6107
-10.6744
-10.748
-10.8334
-10.9332
-11.0502
-11.1875
-11.3486
-11.5375
-11.7596
-12.0225
-12.3358
-12.7098
-13.1526
-13.6663
-14.2466
-14.8829
-15.5666
-16.2974
-17.0906
-17.9805
-19.0174
-20.2605
-21.7671
-23.5716
-25.6763
-28.023
-30.4923
-32.9178
-35.1076
-36.8651
-38.0219
-38.4588
-38.0867
-36.9092
-35.0514
-32.6978
-30.0619
-27.3664
-24.8118
-22.538
-20.5946
-18.9399
-17.52
-16.3038
-15.2462
-14.3179
-13.558
-13.0071
-12.5977
-12.1601
-11.5408
-10.6622
-9.63219
-8.62824
-7.75288
-7.03401
-6.4477
-5.96339
-5.55799
-5.21415
-4.91822
-4.66014
-4.43364
-4.23515
-4.06187
-3.91043
-3.77716
-3.65899
-3.55372
-3.45955
-3.37477
-3.29773
-3.22695
-3.16115
-3.09917
-3.04003
-2.98302
-2.9278
-2.87435
-2.82281
-2.77328
-2.72579
-2.68023
-2.63642
-2.59411
-2.5531
-2.51318
-2.47417
-2.43592
-2.3983
-2.36121
-2.32454
-2.28821
-2.25215
-2.21628
-2.18054
-2.14489
-2.10926
-2.07361
-2.03791
-2.00209
-1.96614
-1.93001
-1.89369
-1.85714
-1.82036
-1.78333
-1.74603
-1.70844
-1.67054
-1.63233
-1.5938
-1.55492
-1.51569
-1.4761
-1.43615
-1.39583
-1.35514
-1.31407
-1.27256
-1.23066
-1.18835
-1.14561
-1.10245
-1.05886
-1.01485
-0.97042
-0.925576
-0.880323
-0.834664
-0.788602
-0.742141
-0.69528
-0.648022
-0.600368
-0.552315
-0.503866
-0.455018
-0.405771
-0.356124
-0.306076
-0.255625
-0.204772
-0.153514
-0.101852
-0.0497846
0.0026865
0.0555608
0.108836
0.16251
0.216577
0.271031
0.325863
0.381057
0.436596
0.492451
0.548582
0.604934
0.661424
0.717936
0.774303
0.830287
0.885555
0.939651
0.991968
1.04174
1.08801
1.12973
-10.2363
-10.2296
-10.2355
-10.2564
-10.2872
-10.321
-10.3561
-10.3926
-10.4314
-10.4736
-10.5204
-10.5735
-10.6343
-10.7046
-10.7865
-10.8824
-10.995
-11.1273
-11.2827
-11.4649
-11.6789
-11.9311
-12.23
-12.5854