/*--------------------------------*- C++ -*----------------------------------*\
  =========                 |
  \\      /  F ield         | OpenFOAM: The Open Source CFD Toolbox
   \\    /   O peration     | Website:  https://openfoam.org
    \\  /    A nd           | Version:  7
     \\/     M anipulation  |
\*---------------------------------------------------------------------------*/
FoamFile
{
    version     2.0;
    format      ascii;
    class       surfaceScalarField;
    location    "0.027";
    object      phi;
}
// * * * * * * * * * * * * * * * * * * * * * * * * * * * * * * * * * * * * * //

dimensions      [0 3 -1 0 0 0 0];

internalField   nonuniform List<scalar> 
24170
(
1.38192e-06
1.7309e-07
1.25307e-06
1.28851e-07
1.11353e-06
1.39544e-07
1.00009e-06
1.13432e-07
9.01455e-07
9.86396e-08
8.01894e-07
9.95611e-08
7.0155e-07
1.00344e-07
6.09739e-07
9.1811e-08
5.32012e-07
7.77268e-08
4.67849e-07
6.41628e-08
4.14744e-07
5.31056e-08
3.70602e-07
4.41415e-08
3.34009e-07
3.65934e-08
3.03898e-07
3.01104e-08
2.78191e-07
2.57072e-08
2.56926e-07
2.12653e-08
2.34009e-07
2.2917e-08
1.89146e-08
2.15094e-07
1.6754e-06
2.32939e-07
1.6574e-06
1.46855e-07
1.62136e-06
1.75578e-07
1.57712e-06
1.57679e-07
1.5418e-06
1.33952e-07
1.50946e-06
1.319e-07
1.46983e-06
1.39982e-07
1.4215e-06
1.40143e-07
1.36886e-06
1.30361e-07
1.31672e-06
1.16303e-07
1.26804e-06
1.01783e-07
1.22383e-06
8.83584e-08
1.1835e-06
7.69158e-08
1.14575e-06
6.78645e-08
1.10957e-06
6.18827e-08
1.07338e-06
5.74603e-08
1.03916e-06
5.71387e-08
5.70107e-08
1.00106e-06
1.77581e-06
2.3419e-07
1.75138e-06
1.71288e-07
1.73592e-06
1.91039e-07
1.72226e-06
1.71336e-07
1.71761e-06
1.38608e-07
1.7216e-06
1.27907e-07
1.72663e-06
1.34946e-07
1.72524e-06
1.4154e-07
1.71453e-06
1.4107e-07
1.69564e-06
1.35189e-07
1.67182e-06
1.2561e-07
1.64696e-06
1.13217e-07
1.62372e-06
1.00157e-07
1.60311e-06
8.84686e-08
1.58464e-06
8.0359e-08
1.56679e-06
7.53043e-08
1.54963e-06
7.4301e-08
7.43905e-08
1.53225e-06
1.90777e-06
2.63842e-07
1.88765e-06
1.91404e-07
1.88051e-06
1.9818e-07
1.87033e-06
1.81512e-07
1.86001e-06
1.48933e-07
1.85759e-06
1.3032e-07
1.86298e-06
1.29559e-07
1.86968e-06
1.34836e-07
1.87195e-06
1.38801e-07
1.86803e-06
1.39112e-07
1.85925e-06
1.34394e-07
1.84826e-06
1.24208e-07
1.83734e-06
1.11074e-07
1.82789e-06
9.79214e-08
1.82045e-06
8.7799e-08
1.81468e-06
8.10689e-08
1.81106e-06
7.79276e-08
7.69511e-08
1.80849e-06
2.09363e-06
3.48486e-07
2.05425e-06
2.30781e-07
2.04123e-06
2.112e-07
2.02655e-06
1.96197e-07
2.01047e-06
1.65008e-07
1.99956e-06
1.41234e-07
1.99676e-06
1.32354e-07
1.99939e-06
1.3221e-07
2.00298e-06
1.3521e-07
2.00428e-06
1.37808e-07
2.00192e-06
1.36761e-07
1.99599e-06
1.30137e-07
1.98787e-06
1.19197e-07
1.97929e-06
1.06498e-07
1.97217e-06
9.49183e-08
1.96736e-06
8.58736e-08
1.96565e-06
7.96426e-08
7.64122e-08
1.96619e-06
2.23805e-06
3.43918e-07
2.21773e-06
2.51109e-07
2.21208e-06
2.16846e-07
2.20726e-06
2.01017e-07
2.18629e-06
1.85974e-07
2.15794e-06
1.69588e-07
2.1384e-06
1.51888e-07
2.13299e-06
1.3762e-07
2.13702e-06
1.3118e-07
2.14324e-06
1.31597e-07
2.14663e-06
1.33366e-07
2.1457e-06
1.31063e-07
2.14188e-06
1.23026e-07
2.13751e-06
1.10862e-07
2.13457e-06
9.7862e-08
2.13375e-06
8.66904e-08
2.13479e-06
7.86004e-08
7.44701e-08
2.13674e-06
2.36851e-06
3.33114e-07
2.37264e-06
2.46984e-07
2.34804e-06
2.41446e-07
2.32395e-06
2.25103e-07
2.30883e-06
2.01097e-07
2.30457e-06
1.73843e-07
2.30715e-06
1.4931e-07
2.31073e-06
1.3404e-07
2.31195e-06
1.29956e-07
2.31027e-06
1.3328e-07
2.30638e-06
1.37254e-07
2.30129e-06
1.36152e-07
2.29622e-06
1.28103e-07
2.29222e-06
1.14856e-07
2.29021e-06
9.98778e-08
2.29032e-06
8.65806e-08
2.29236e-06
7.65549e-08
7.13716e-08
2.29546e-06
2.56825e-06
3.83735e-07
2.54797e-06
2.67263e-07
2.53525e-06
2.54165e-07
2.5203e-06
2.40056e-07
2.50968e-06
2.11717e-07
2.50584e-06
1.7768e-07
2.50576e-06
1.49388e-07
2.5068e-06
1.33002e-07
2.50797e-06
1.28784e-07
2.5084e-06
1.32848e-07
2.50671e-06
1.38944e-07
2.50172e-06
1.41141e-07
2.49348e-06
1.36344e-07
2.48321e-06
1.25126e-07
2.47291e-06
1.10181e-07
2.46424e-06
9.52486e-08
2.45817e-06
8.26217e-08
7.43689e-08
2.45518e-06
2.76157e-06
3.24905e-07
2.71491e-06
3.13924e-07
2.69923e-06
2.69846e-07
2.69926e-06
2.40026e-07
2.69623e-06
2.14748e-07
2.68743e-06
1.86481e-07
2.67851e-06
1.58301e-07
2.67453e-06
1.36982e-07
2.67602e-06
1.273e-07
2.68064e-06
1.28228e-07
2.68622e-06
1.33364e-07
2.69173e-06
1.3563e-07
2.6968e-06
1.31268e-07
2.70082e-06
1.21105e-07
2.70271e-06
1.08298e-07
2.70169e-06
9.62691e-08
2.69724e-06
8.70693e-08
8.10001e-08
2.69061e-06
2.95303e-06
3.97203e-07
2.93546e-06
3.31499e-07
2.9171e-06
2.88202e-07
2.91071e-06
2.46416e-07
2.91388e-06
2.11581e-07
2.9157e-06
1.8466e-07
2.91138e-06
1.62617e-07
2.90382e-06
1.44545e-07
2.89826e-06
1.32859e-07
2.89795e-06
1.28533e-07
2.90272e-06
1.28596e-07
2.90984e-06
1.28515e-07
2.91594e-06
1.25167e-07
2.91873e-06
1.18316e-07
2.91759e-06
1.09431e-07
2.91333e-06
1.00532e-07
2.90764e-06
9.27643e-08
8.69657e-08
2.90167e-06
3.20841e-06
3.58755e-07
3.19346e-06
3.46446e-07
3.17121e-06
3.10453e-07
3.15004e-06
2.67582e-07
3.1354e-06
2.26221e-07
3.12768e-06
1.92384e-07
3.12372e-06
1.66576e-07
3.12037e-06
1.47893e-07
3.1167e-06
1.36533e-07
3.11329e-06
1.31942e-07
3.11076e-06
1.3112e-07
3.10921e-06
1.30068e-07
3.10821e-06
1.26171e-07
3.10766e-06
1.1886e-07
3.10785e-06
1.0924e-07
3.10926e-06
9.91223e-08
3.11213e-06
8.98998e-08
8.29616e-08
3.11613e-06
2.88546e-06
3.82781e-07
2.8458e-06
3.86108e-07
2.83264e-06
3.23611e-07
2.83583e-06
2.64397e-07
2.83875e-06
2.23304e-07
2.83436e-06
1.96766e-07
2.82508e-06
1.75858e-07
2.81702e-06
1.55959e-07
2.81413e-06
1.39424e-07
2.81667e-06
1.29395e-07
2.8228e-06
1.24988e-07
2.83027e-06
1.22607e-07
2.83742e-06
1.19018e-07
2.8433e-06
1.1298e-07
2.84743e-06
1.05104e-07
2.84987e-06
9.66855e-08
2.85064e-06
8.91357e-08
8.30559e-08
2.85054e-06
3.56091e-06
4.53526e-07
3.51191e-06
4.35114e-07
3.48742e-06
3.48097e-07
3.48737e-06
2.64449e-07
3.49463e-06
2.16038e-07
3.49388e-06
1.97517e-07
3.48414e-06
1.856e-07
3.47132e-06
1.68774e-07
3.46026e-06
1.50492e-07
3.45313e-06
1.36525e-07
3.4507e-06
1.27412e-07
3.45291e-06
1.20394e-07
3.45892e-06
1.13016e-07
3.46675e-06
1.05147e-07
3.47419e-06
9.76673e-08
3.47946e-06
9.14151e-08
3.48136e-06
8.72279e-08
8.41502e-08
3.48027e-06
4.33632e-06
4.2559e-07
4.3091e-06
4.62337e-07
4.27123e-06
3.8596e-07
4.25705e-06
2.78628e-07
4.26224e-06
2.10856e-07
4.27332e-06
1.86436e-07
4.27848e-06
1.80442e-07
4.27312e-06
1.74131e-07
4.26034e-06
1.63269e-07
4.24761e-06
1.49259e-07
4.24177e-06
1.33246e-07
4.24523e-06
1.16942e-07
4.2556e-06
1.02643e-07
4.26766e-06
9.30833e-08
4.27613e-06
8.92019e-08
4.27778e-06
8.97612e-08
4.27196e-06
9.30472e-08
9.51575e-08
4.26095e-06
5.16702e-06
5.06006e-07
5.21352e-06
4.1584e-07
5.24584e-06
3.53643e-07
5.2359e-06
2.88565e-07
5.20504e-06
2.41716e-07
5.17977e-06
2.11703e-07
5.17261e-06
1.87611e-07
5.1807e-06
1.66038e-07
5.19576e-06
1.48205e-07
5.21139e-06
1.33636e-07
5.22441e-06
1.20219e-07
5.23383e-06
1.07527e-07
5.23915e-06
9.732e-08
5.24023e-06
9.20016e-08
5.23741e-06
9.20215e-08
5.23157e-06
9.56023e-08
5.22468e-06
9.99429e-08
1.0165e-07
5.21819e-06
6.27916e-06
3.7425e-07
6.34354e-06
3.51463e-07
6.34504e-06
3.52146e-07
6.32076e-06
3.12839e-07
6.30685e-06
2.55625e-07
6.31782e-06
2.00734e-07
6.34354e-06
1.61891e-07
6.36673e-06
1.42852e-07
6.3788e-06
1.36135e-07
6.38087e-06
1.31558e-07
6.37744e-06
1.23653e-07
6.37209e-06
1.12875e-07
6.36687e-06
1.02545e-07
6.36322e-06
9.5649e-08
6.36274e-06
9.25044e-08
6.36668e-06
9.16616e-08
6.37598e-06
9.06415e-08
8.7668e-08
6.38996e-06
7.67511e-06
3.71692e-07
7.69237e-06
3.34202e-07
7.68876e-06
3.55753e-07
7.68595e-06
3.15646e-07
7.70072e-06
2.40856e-07
7.72839e-06
1.7307e-07
7.7573e-06
1.32977e-07
7.77949e-06
1.20668e-07
7.79326e-06
1.2236e-07
7.80048e-06
1.24341e-07
7.80389e-06
1.20238e-07
7.80599e-06
1.1078e-07
7.80874e-06
9.97914e-08
7.81335e-06
9.10406e-08
7.82e-06
8.58557e-08
7.82833e-06
8.33338e-08
7.83713e-06
8.18337e-08
7.92199e-08
7.84558e-06
9.48081e-06
4.14768e-07
9.42006e-06
3.94957e-07
9.42836e-06
3.47455e-07
9.45287e-06
2.91137e-07
9.45708e-06
2.36642e-07
9.44292e-06
1.87228e-07
9.43012e-06
1.45779e-07
9.43162e-06
1.19169e-07
9.44506e-06
1.08919e-07
9.46252e-06
1.06885e-07
9.47918e-06
1.03575e-07
9.49485e-06
9.51068e-08
9.51166e-06
8.29821e-08
9.53142e-06
7.12859e-08
9.55389e-06
6.33829e-08
9.57731e-06
5.9913e-08
9.59921e-06
5.99379e-08
6.12056e-08
9.61722e-06
1.14166e-05
5.04768e-07
1.13808e-05
4.3074e-07
1.14134e-05
3.14868e-07
1.14714e-05
2.33095e-07
1.1531e-05
1.77058e-07
1.1579e-05
1.39241e-07
1.16075e-05
1.17286e-07
1.16191e-05
1.07509e-07
1.16247e-05
1.03337e-07
1.16326e-05
9.89748e-08
1.16454e-05
9.07868e-08
1.16622e-05
7.83649e-08
1.16812e-05
6.39157e-08
1.17021e-05
5.04604e-08
1.17253e-05
4.01069e-08
1.17516e-05
3.36282e-08
1.17814e-05
3.01819e-08
2.90188e-08
1.18136e-05
8.46583e-06
4.71291e-07
8.48984e-06
4.06728e-07
8.49732e-06
3.07382e-07
8.50239e-06
2.28031e-07
8.50349e-06
1.75955e-07
8.49975e-06
1.42981e-07
8.49516e-06
1.21882e-07
8.49562e-06
1.07048e-07
8.50387e-06
9.50815e-08
8.51919e-06
8.36591e-08
8.53803e-06
7.19483e-08
8.557e-06
5.93949e-08
8.57495e-06
4.59669e-08
8.593e-06
3.2407e-08
8.6135e-06
1.96039e-08
8.63835e-06
8.78275e-09
8.66828e-06
2.5382e-10
-4.79656e-09
8.70209e-06
7.48511e-06
4.89386e-07
7.47131e-06
4.20535e-07
7.46326e-06
3.15429e-07
7.4572e-06
2.34087e-07
7.44373e-06
1.89427e-07
7.43388e-06
1.52836e-07
7.43951e-06
1.16252e-07
7.46074e-06
8.58111e-08
7.48954e-06
6.6291e-08
7.51752e-06
5.56699e-08
7.54098e-06
4.84937e-08
7.56024e-06
4.01319e-08
7.57728e-06
2.89323e-08
7.59377e-06
1.59125e-08
7.61014e-06
3.231e-09
7.62703e-06
-8.10535e-09
7.64336e-06
-1.60726e-08
-2.05136e-08
7.65908e-06
6.42693e-06
5.18762e-07
6.41948e-06
4.27978e-07
6.42863e-06
3.06283e-07
6.45438e-06
2.08334e-07
6.49802e-06
1.45786e-07
6.54962e-06
1.01234e-07
6.60018e-06
6.56925e-08
6.64405e-06
4.19505e-08
6.67868e-06
3.16546e-08
6.70436e-06
2.9992e-08
6.72302e-06
2.98347e-08
6.73729e-06
2.58572e-08
6.7495e-06
1.673e-08
6.76115e-06
4.25648e-09
6.7718e-06
-7.42118e-09
6.78063e-06
-1.69355e-08
6.78758e-06
-2.3015e-08
-2.57472e-08
6.79281e-06
5.54353e-06
4.9477e-07
5.60333e-06
3.68178e-07
5.64131e-06
2.68304e-07
5.67209e-06
1.77559e-07
5.70609e-06
1.11785e-07
5.7427e-06
6.46182e-08
5.77674e-06
3.16543e-08
5.80714e-06
1.15481e-08
5.83607e-06
2.72671e-09
5.86543e-06
6.32583e-10
5.89332e-06
1.94254e-09
5.91648e-06
2.69892e-09
5.93151e-06
1.69705e-09
5.93726e-06
-1.49067e-09
5.93522e-06
-5.38072e-09
5.92744e-06
-9.15278e-09
5.91675e-06
-1.23326e-08
-1.51316e-08
5.90614e-06
4.88132e-06
4.68767e-07
4.9478e-06
3.01696e-07
4.99956e-06
2.16542e-07
5.0157e-06
1.61421e-07
5.01841e-06
1.09081e-07
5.02281e-06
6.02106e-08
5.03255e-06
2.19147e-08
5.04641e-06
-2.31139e-09
5.06339e-06
-1.4247e-08
5.08421e-06
-2.01903e-08
5.10861e-06
-2.24593e-08
5.13407e-06
-2.27609e-08
5.15767e-06
-2.19061e-08
5.17665e-06
-2.04676e-08
5.19015e-06
-1.88798e-08
5.1987e-06
-1.77055e-08
5.20386e-06
-1.7493e-08
-1.86532e-08
5.20739e-06
4.23318e-06
3.775e-07
4.29341e-06
2.41464e-07
4.34251e-06
1.6744e-07
4.38547e-06
1.18463e-07
4.42552e-06
6.90362e-08
4.45818e-06
2.75455e-08
4.47773e-06
2.36558e-09
4.48574e-06
-1.03252e-08
4.48485e-06
-1.33527e-08
4.47964e-06
-1.49782e-08
4.47514e-06
-1.79649e-08
4.47428e-06
-2.1896e-08
4.47784e-06
-2.54701e-08
4.48548e-06
-2.81061e-08
4.49668e-06
-3.00803e-08
4.51063e-06
-3.16542e-08
4.52651e-06
-3.33687e-08
-3.51865e-08
4.54304e-06
3.64942e-06
3.39131e-07
3.73709e-06
1.5379e-07
3.81862e-06
8.59114e-08
3.87163e-06
6.54479e-08
3.90645e-06
3.42167e-08
3.93114e-06
2.86089e-09
3.94673e-06
-1.32319e-08
3.95462e-06
-1.82085e-08
3.95884e-06
-1.75797e-08
3.96222e-06
-1.83579e-08
3.96655e-06
-2.22865e-08
3.97218e-06
-2.75315e-08
3.97848e-06
-3.17647e-08
3.98431e-06
-3.3942e-08
3.98881e-06
-3.45782e-08
3.9917e-06
-3.45425e-08
3.99315e-06
-3.48224e-08
-3.58152e-08
3.99378e-06
3.23412e-06
2.29194e-07
3.32082e-06
6.70954e-08
3.35736e-06
4.93692e-08
3.37726e-06
4.55474e-08
3.39317e-06
1.83052e-08
3.41051e-06
-1.44721e-08
3.43201e-06
-3.47344e-08
3.45433e-06
-4.05291e-08
3.47391e-06
-3.71607e-08
3.48784e-06
-3.2286e-08
3.49582e-06
-3.02701e-08
3.49994e-06
-3.16523e-08
3.50317e-06
-3.49922e-08
3.50798e-06
-3.8756e-08
3.5153e-06
-4.18913e-08
3.52475e-06
-4.39981e-08
3.53504e-06
-4.51065e-08
-4.53593e-08
3.54458e-06
2.8284e-06
1.12796e-07
2.88792e-06
7.58096e-09
2.91508e-06
2.2211e-08
2.95915e-06
1.47121e-09
3.00234e-06
-2.48812e-08
3.02964e-06
-4.17781e-08
3.04325e-06
-4.83364e-08
3.05292e-06
-5.02002e-08
3.06567e-06
-4.99124e-08
3.082e-06
-4.86203e-08
3.09896e-06
-4.72304e-08
3.11371e-06
-4.64031e-08
3.12514e-06
-4.64176e-08
3.1338e-06
-4.74143e-08
3.14064e-06
-4.87377e-08
3.14642e-06
-4.9778e-08
3.15109e-06
-4.9767e-08
-4.81932e-08
3.15392e-06
2.52494e-06
7.44389e-08
2.55712e-06
-2.45975e-08
2.5859e-06
-6.57248e-09
2.61668e-06
-2.93068e-08
2.64002e-06
-4.82246e-08
2.65092e-06
-5.26779e-08
2.65276e-06
-5.01701e-08
2.65051e-06
-4.79571e-08
2.64826e-06
-4.76608e-08
2.64785e-06
-4.82092e-08
2.64905e-06
-4.84293e-08
2.65041e-06
-4.77601e-08
2.65017e-06
-4.61861e-08
2.64685e-06
-4.40915e-08
2.63987e-06
-4.17573e-08
2.62964e-06
-3.95498e-08
2.61739e-06
-3.75162e-08
-3.55612e-08
2.60476e-06
2.12065e-06
2.09605e-06
2.08948e-06
2.06017e-06
2.01195e-06
1.95927e-06
1.9091e-06
1.86114e-06
1.81348e-06
1.76527e-06
1.71684e-06
1.66908e-06
1.6229e-06
1.57881e-06
1.53705e-06
1.4975e-06
1.45998e-06
1.42442e-06
4.73702e-08
-4.73702e-08
1.0228e-07
-5.49094e-08
1.55256e-07
-5.29768e-08
2.04903e-07
-4.9647e-08
2.50839e-07
-4.59354e-08
2.92843e-07
-4.20045e-08
3.30545e-07
-3.7702e-08
3.63379e-07
-3.28338e-08
3.90607e-07
-2.72284e-08
4.11408e-07
-2.08005e-08
4.24901e-07
-1.34931e-08
4.3021e-07
-5.30927e-09
4.26065e-07
4.14572e-09
4.10896e-07
1.5169e-08
3.83202e-07
2.76936e-08
3.41183e-07
4.20189e-08
2.82979e-07
5.82046e-08
2.06838e-07
7.61411e-08
1.11326e-07
9.55116e-08
-4.46876e-09
1.15795e-07
-1.40552e-07
1.36083e-07
-2.95664e-07
1.55112e-07
-4.67901e-07
1.72237e-07
-6.54803e-07
1.86903e-07
-8.53756e-07
1.98953e-07
-1.06223e-06
2.08479e-07
-1.2779e-06
2.15664e-07
-1.49863e-06
2.2073e-07
-1.72249e-06
2.23861e-07
-1.94768e-06
2.25188e-07
-2.17245e-06
2.2477e-07
-2.39505e-06
2.22607e-07
-2.61369e-06
2.18636e-07
-2.82645e-06
2.12762e-07
-3.03133e-06
2.04876e-07
-3.2262e-06
1.94872e-07
-3.40885e-06
1.82647e-07
-3.57698e-06
1.68132e-07
-3.7283e-06
1.5132e-07
-3.86055e-06
1.32246e-07
-3.97155e-06
1.11005e-07
-4.05936e-06
8.78096e-08
-4.12246e-06
6.30981e-08
-4.15997e-06
3.75092e-08
-4.17157e-06
1.15988e-08
-4.15791e-06
-1.36575e-08
-4.11965e-06
-3.82603e-08
-4.05834e-06
-6.13142e-08
-3.97553e-06
-8.28048e-08
-3.87304e-06
-1.02491e-07
-3.75287e-06
-1.20174e-07
-3.61707e-06
-1.35799e-07
-3.46775e-06
-1.49314e-07
-3.30694e-06
-1.60811e-07
-3.13653e-06
-1.70418e-07
-2.95822e-06
-1.78303e-07
-2.77359e-06
-1.84633e-07
-2.58404e-06
-1.89546e-07
-2.3909e-06
-1.93144e-07
-2.19542e-06
-1.95483e-07
-1.99883e-06
-1.96589e-07
-1.80235e-06
-1.96475e-07
-1.60719e-06
-1.95162e-07
-1.4145e-06
-1.92687e-07
-1.22539e-06
-1.89116e-07
-1.04084e-06
-1.8455e-07
-8.61722e-07
-1.79115e-07
-6.8876e-07
-1.72962e-07
-5.2255e-07
-1.6621e-07
-3.63496e-07
-1.59055e-07
-2.11907e-07
-1.51589e-07
-6.79957e-08
-1.43911e-07
6.83895e-08
-1.36385e-07
1.97268e-07
-1.28879e-07
3.18748e-07
-1.21479e-07
4.33007e-07
-1.1426e-07
5.40281e-07
-1.07274e-07
6.40837e-07
-1.00555e-07
7.34957e-07
-9.412e-08
8.22933e-07
-8.79762e-08
9.05056e-07
-8.21235e-08
9.81613e-07
-7.65563e-08
1.05288e-06
-7.12654e-08
1.11912e-06
-6.62393e-08
1.18058e-06
-6.14656e-08
1.23751e-06
-5.69314e-08
1.29014e-06
-5.26245e-08
1.33867e-06
-4.85333e-08
1.38332e-06
-4.46474e-08
1.42428e-06
-4.09581e-08
1.46174e-06
-3.74578e-08
1.49588e-06
-3.41405e-08
1.52688e-06
-3.10013e-08
1.55491e-06
-2.80364e-08
1.58016e-06
-2.52425e-08
1.60277e-06
-2.26168e-08
1.62293e-06
-2.01565e-08
1.64079e-06
-1.78587e-08
1.65651e-06
-1.57203e-08
1.67025e-06
-1.37373e-08
1.68215e-06
-1.19056e-08
1.69237e-06
-1.02201e-08
1.70105e-06
-8.67534e-09
1.70831e-06
-7.26485e-09
1.71429e-06
-5.98099e-09
1.71911e-06
-4.81852e-09
1.72288e-06
-3.76957e-09
1.72571e-06
-2.82821e-09
1.72769e-06
-1.98451e-09
1.72892e-06
-1.22629e-09
1.72947e-06
-5.53959e-10
1.72942e-06
5.29324e-11
1.72879e-06
6.27769e-10
1.72766e-06
1.13679e-09
1.72608e-06
1.57951e-09
1.72411e-06
1.96445e-09
1.72181e-06
2.29949e-09
1.71922e-06
2.5893e-09
1.71638e-06
2.84175e-09
1.71332e-06
3.06366e-09
1.71006e-06
3.25371e-09
1.70665e-06
3.4159e-09
1.70309e-06
3.55919e-09
1.6994e-06
3.68855e-09
1.6956e-06
3.80339e-09
1.69169e-06
3.90533e-09
1.6877e-06
3.99682e-09
1.68362e-06
4.07773e-09
1.67947e-06
4.14764e-09
1.67526e-06
4.20543e-09
1.67102e-06
4.24855e-09
1.66674e-06
4.27587e-09
1.66245e-06
4.28882e-09
1.65816e-06
4.29114e-09
1.65387e-06
4.28765e-09
1.64959e-06
4.28311e-09
1.64531e-06
4.28087e-09
1.64103e-06
4.28281e-09
1.63674e-06
4.28916e-09
1.63244e-06
4.29949e-09
1.62812e-06
4.31301e-09
1.6238e-06
4.32897e-09
1.61945e-06
4.34685e-09
1.61508e-06
4.36626e-09
1.61069e-06
4.3871e-09
1.60629e-06
4.40936e-09
1.60185e-06
4.43321e-09
1.59739e-06
4.45878e-09
1.59291e-06
4.48627e-09
1.58839e-06
4.51585e-09
1.58384e-06
4.54775e-09
1.57926e-06
4.58237e-09
1.57464e-06
4.6201e-09
1.56998e-06
4.66157e-09
1.56527e-06
4.70742e-09
1.56051e-06
4.75872e-09
1.5557e-06
4.81645e-09
1.55081e-06
4.88229e-09
1.54586e-06
4.95803e-09
1.54081e-06
5.04599e-09
1.53566e-06
5.15014e-09
1.53039e-06
5.27256e-09
1.52496e-06
5.4231e-09
1.51937e-06
5.59972e-09
1.51354e-06
5.82944e-09
1.50744e-06
6.09142e-09
1.50098e-06
6.46396e-09
1.49412e-06
6.85547e-09
1.48662e-06
7.50381e-09
1.47854e-06
8.07852e-09
1.46923e-06
9.31114e-09
1.45913e-06
1.01003e-08
1.44644e-06
1.26928e-08
1.43287e-06
1.35692e-08
1.41323e-06
1.96417e-08
1.39335e-06
1.98778e-08
1.35765e-06
3.57021e-08
1.32444e-06
3.32079e-08
1.24154e-06
8.29e-08
7.76911e-08
1.16385e-06
6.74226e-09
-5.41124e-08
4.47696e-09
-5.26441e-08
-8.41724e-10
-4.76581e-08
-9.51012e-09
-4.09786e-08
-2.18837e-08
-3.35619e-08
-3.85945e-08
-2.52937e-08
-6.02729e-08
-1.60236e-08
-8.7718e-08
-5.38867e-09
-1.21326e-07
6.37914e-09
-1.61751e-07
1.96255e-08
-2.10154e-07
3.49095e-08
-2.67815e-07
5.23515e-08
-3.35704e-07
7.20346e-08
-4.14581e-07
9.40466e-08
-5.05198e-07
1.18311e-07
-6.07784e-07
1.44604e-07
-7.22106e-07
1.72527e-07
-8.47461e-07
2.01496e-07
-9.82777e-07
2.30828e-07
-1.12685e-06
2.59867e-07
-1.27837e-06
2.87601e-07
-1.43585e-06
3.12598e-07
-1.59802e-06
3.34406e-07
-1.76388e-06
3.52761e-07
-1.93254e-06
3.67612e-07
-2.10317e-06
3.79104e-07
-2.27496e-06
3.87456e-07
-2.44714e-06
3.92914e-07
-2.61896e-06
3.95675e-07
-2.78962e-06
3.95854e-07
-2.95831e-06
3.93457e-07
-3.12409e-06
3.8839e-07
-3.28591e-06
3.8045e-07
-3.44249e-06
3.6935e-07
-3.59256e-06
3.54942e-07
-3.73475e-06
3.37066e-07
-3.86744e-06
3.15333e-07
-3.98879e-06
2.89488e-07
-4.09689e-06
2.59411e-07
-4.18977e-06
2.25129e-07
-4.26562e-06
1.86851e-07
-4.32281e-06
1.45006e-07
-4.35998e-06
1.0027e-07
-4.37603e-06
5.35532e-08
-4.37044e-06
6.00589e-09
-4.34137e-06
-4.27196e-08
-4.28956e-06
-9.00716e-08
-4.2153e-06
-1.35576e-07
-4.11984e-06
-1.78261e-07
-4.005e-06
-2.17338e-07
-3.87282e-06
-2.52355e-07
-3.72553e-06
-2.83089e-07
-3.56528e-06
-3.09557e-07
-3.39415e-06
-3.3194e-07
-3.21401e-06
-3.50563e-07
-3.0265e-06
-3.65812e-07
-2.83307e-06
-3.78059e-07
-2.63501e-06
-3.87605e-07
-2.43351e-06
-3.94652e-07
-2.22969e-06
-3.99297e-07
-2.02472e-06
-4.01557e-07
-1.81978e-06
-4.01424e-07
-1.61603e-06
-3.9891e-07
-1.41464e-06
-3.94072e-07
-1.21672e-06
-3.87042e-07
-1.02324e-06
-3.78025e-07
-8.35079e-07
-3.67278e-07
-6.52967e-07
-3.55074e-07
-4.77466e-07
-3.41711e-07
-3.08943e-07
-3.27578e-07
-1.47689e-07
-3.12843e-07
6.28444e-09
-2.97884e-07
1.52979e-07
-2.8308e-07
2.92402e-07
-2.68302e-07
4.24743e-07
-2.5382e-07
5.5023e-07
-2.39747e-07
6.69124e-07
-2.26168e-07
7.81706e-07
-2.13136e-07
8.88267e-07
-2.00681e-07
9.89102e-07
-1.88812e-07
1.0845e-06
-1.77524e-07
1.17475e-06
-1.66803e-07
1.26011e-06
-1.56628e-07
1.34084e-06
-1.46971e-07
1.41718e-06
-1.37806e-07
1.48936e-06
-1.29104e-07
1.55757e-06
-1.20837e-07
1.62201e-06
-1.12977e-07
1.68287e-06
-1.05502e-07
1.7403e-06
-9.83899e-08
1.79446e-06
-9.16213e-08
1.8455e-06
-8.51807e-08
1.89356e-06
-7.90551e-08
1.93875e-06
-7.32332e-08
1.98122e-06
-6.77058e-08
2.02107e-06
-6.24649e-08
2.05841e-06
-5.75031e-08
2.09337e-06
-5.28136e-08
2.12604e-06
-4.83895e-08
2.15652e-06
-4.42237e-08
2.18493e-06
-4.03089e-08
2.21134e-06
-3.66369e-08
2.23587e-06
-3.31994e-08
2.25859e-06
-2.99877e-08
2.2796e-06
-2.69925e-08
2.29899e-06
-2.42048e-08
2.31683e-06
-2.16138e-08
2.33321e-06
-1.92089e-08
2.34821e-06
-1.69796e-08
2.3619e-06
-1.49152e-08
2.37435e-06
-1.30073e-08
2.38565e-06
-1.12446e-08
2.39588e-06
-9.60837e-09
2.40512e-06
-8.09631e-09
2.4134e-06
-6.70623e-09
2.4208e-06
-5.42888e-09
2.42735e-06
-4.25618e-09
2.43312e-06
-3.17956e-09
2.43815e-06
-2.18827e-09
2.44249e-06
-1.27768e-09
2.44618e-06
-4.38516e-10
2.44926e-06
3.34634e-10
2.45177e-06
1.05136e-09
2.45375e-06
1.71261e-09
2.45523e-06
2.32043e-09
2.45626e-06
2.87939e-09
2.45686e-06
3.39407e-09
2.45707e-06
3.86474e-09
2.45693e-06
4.29284e-09
2.45645e-06
4.67964e-09
2.45568e-06
5.02513e-09
2.45462e-06
5.33056e-09
2.45331e-06
5.59972e-09
2.45177e-06
5.83745e-09
2.45e-06
6.0489e-09
2.44805e-06
6.23913e-09
2.44592e-06
6.41304e-09
2.44362e-06
6.57504e-09
2.44118e-06
6.72933e-09
2.4386e-06
6.87947e-09
2.43589e-06
7.028e-09
2.43304e-06
7.17609e-09
2.43006e-06
7.32395e-09
2.42696e-06
7.4708e-09
2.42373e-06
7.61577e-09
2.42038e-06
7.758e-09
2.41692e-06
7.89706e-09
2.41334e-06
8.03284e-09
2.40967e-06
8.16568e-09
2.40588e-06
8.29608e-09
2.40201e-06
8.42482e-09
2.39804e-06
8.55291e-09
2.39398e-06
8.68139e-09
2.38983e-06
8.81176e-09
2.38559e-06
8.94558e-09
2.38126e-06
9.08474e-09
2.37685e-06
9.23173e-09
2.37234e-06
9.38898e-09
2.36774e-06
9.56102e-09
2.36303e-06
9.7504e-09
2.35822e-06
9.96651e-09
2.35328e-06
1.02097e-08
2.3482e-06
1.05018e-08
2.34297e-06
1.08328e-08
2.33754e-06
1.12578e-08
2.3319e-06
1.17293e-08
2.32597e-06
1.23967e-08
2.31974e-06
1.30847e-08
2.31303e-06
1.42164e-08
2.30589e-06
1.52158e-08
2.29789e-06
1.73104e-08
2.28928e-06
1.87089e-08
2.27902e-06
2.29524e-08
2.26787e-06
2.47216e-08
2.25335e-06
3.41634e-08
2.23724e-06
3.59855e-08
2.21371e-06
5.92268e-08
2.18565e-06
6.12679e-08
2.14381e-06
1.24746e-07
1.35047e-07
2.08645e-06
-3.55622e-08
-1.85502e-08
-8.52028e-08
-3.00358e-09
-1.35633e-07
2.77174e-09
-1.87406e-07
1.07946e-08
-2.41118e-07
2.01499e-08
-2.97533e-07
3.11215e-08
-3.57292e-07
4.37357e-08
-4.20857e-07
5.8176e-08
-4.89066e-07
7.45884e-08
-5.62503e-07
9.30626e-08
-6.41371e-07
1.13777e-07
-7.25853e-07
1.36834e-07
-8.1601e-07
1.62191e-07
-9.11625e-07
1.89661e-07
-1.01227e-06
2.18955e-07
-1.11735e-06
2.49684e-07
-1.22616e-06
2.81336e-07
-1.33795e-06
3.13285e-07
-1.45197e-06
3.44847e-07
-1.56743e-06
3.7533e-07
-1.68386e-06
4.04034e-07
-1.80157e-06
4.30309e-07
-1.92095e-06
4.53782e-07
-2.04251e-06
4.74323e-07
-2.16685e-06
4.91952e-07
-2.29452e-06
5.06773e-07
-2.42597e-06
5.18905e-07
-2.56147e-06
5.28418e-07
-2.70108e-06
5.35286e-07
-2.84461e-06
5.39378e-07
-2.99158e-06
5.40429e-07
-3.14123e-06
5.38044e-07
-3.29251e-06
5.31726e-07
-3.44406e-06
5.20905e-07
-3.5941e-06
5.0498e-07
-3.74036e-06
4.83325e-07
-3.88033e-06
4.55303e-07
-4.01123e-06
4.20382e-07
-4.13006e-06
3.78244e-07
-4.23379e-06
3.28864e-07
-4.31951e-06
2.7257e-07
-4.38457e-06
2.10065e-07
-4.42672e-06
1.42424e-07
-4.44435e-06
7.11803e-08
-4.43715e-06
-1.19195e-09
-4.40361e-06
-7.6267e-08
-4.34476e-06
-1.48921e-07
-4.26223e-06
-2.18101e-07
-4.15797e-06
-2.82526e-07
-4.03416e-06
-3.4114e-07
-3.89326e-06
-3.93262e-07
-3.73778e-06
-4.38571e-07
-3.5702e-06
-4.77131e-07
-3.39282e-06
-5.0932e-07
-3.20763e-06
-5.35758e-07
-3.01624e-06
-5.57194e-07
-2.81998e-06
-5.74324e-07
-2.61991e-06
-5.87675e-07
-2.41699e-06
-5.97566e-07
-2.21219e-06
-6.04103e-07
-2.00653e-06
-6.07218e-07
-1.80114e-06
-6.06807e-07
-1.59724e-06
-6.02818e-07
-1.396e-06
-5.95308e-07
-1.19857e-06
-5.84471e-07
-1.00594e-06
-5.70653e-07
-8.18971e-07
-5.5425e-07
-6.38328e-07
-5.35717e-07
-4.64498e-07
-5.15541e-07
-2.97887e-07
-4.94189e-07
-1.38623e-07
-4.72107e-07
1.32211e-08
-4.49728e-07
1.5772e-07
-4.27579e-07
2.94956e-07
-4.05538e-07
4.25117e-07
-3.83981e-07
5.48454e-07
-3.63084e-07
6.65259e-07
-3.42973e-07
7.75846e-07
-3.23724e-07
8.80539e-07
-3.05374e-07
9.7966e-07
-2.87933e-07
1.07352e-06
-2.71385e-07
1.16242e-06
-2.55705e-07
1.24665e-06
-2.40852e-07
1.32646e-06
-2.26786e-07
1.40211e-06
-2.13459e-07
1.47384e-06
-2.00825e-07
1.54184e-06
-1.8884e-07
1.60632e-06
-1.7746e-07
1.66747e-06
-1.66646e-07
1.72544e-06
-1.56363e-07
1.7804e-06
-1.46579e-07
1.83248e-06
-1.37268e-07
1.88184e-06
-1.28407e-07
1.92858e-06
-1.19975e-07
1.97283e-06
-1.11956e-07
2.0147e-06
-1.04334e-07
2.05429e-06
-9.70957e-08
2.0917e-06
-9.02286e-08
2.12703e-06
-8.37201e-08
2.16037e-06
-7.7558e-08
2.19179e-06
-7.173e-08
2.22138e-06
-6.62239e-08
2.24921e-06
-6.10272e-08
2.27534e-06
-5.61275e-08
2.29986e-06
-5.1512e-08
2.32283e-06
-4.71685e-08
2.3443e-06
-4.30844e-08
2.36434e-06
-3.9247e-08
2.383e-06
-3.56444e-08
2.40035e-06
-3.22645e-08
2.41644e-06
-2.90948e-08
2.43132e-06
-2.61238e-08
2.44505e-06
-2.33382e-08
2.45768e-06
-2.07287e-08
2.46926e-06
-1.8291e-08
2.47985e-06
-1.60163e-08
2.48949e-06
-1.38942e-08
2.49823e-06
-1.19158e-08
2.50611e-06
-1.00715e-08
2.51318e-06
-8.35234e-09
2.5195e-06
-6.75413e-09
2.5251e-06
-5.27003e-09
2.53004e-06
-3.88788e-09
2.53436e-06
-2.60014e-09
2.53808e-06
-1.40438e-09
2.54126e-06
-2.95077e-10
2.54391e-06
7.43708e-10
2.54607e-06
1.70272e-09
2.54777e-06
2.58776e-09
2.54905e-06
3.40258e-09
2.54993e-06
4.14889e-09
2.55043e-06
4.83e-09
2.55058e-06
5.45146e-09
2.55039e-06
6.01895e-09
2.5499e-06
6.53813e-09
2.54913e-06
7.01455e-09
2.54809e-06
7.45342e-09
2.5468e-06
7.86018e-09
2.54529e-06
8.24041e-09
2.54357e-06
8.59965e-09
2.54166e-06
8.94259e-09
2.53956e-06
9.27251e-09
2.53729e-06
9.59113e-09
2.53487e-06
9.89895e-09
2.53229e-06
1.01959e-08
2.52956e-06
1.04816e-08
2.5267e-06
1.07562e-08
2.52372e-06
1.102e-08
2.52061e-06
1.12737e-08
2.51739e-06
1.15186e-08
2.51405e-06
1.1756e-08
2.51062e-06
1.19875e-08
2.50709e-06
1.22152e-08
2.50346e-06
1.24409e-08
2.49973e-06
1.26675e-08
2.49592e-06
1.28972e-08
2.49202e-06
1.31343e-08
2.48803e-06
1.33811e-08
2.48394e-06
1.36455e-08
2.47976e-06
1.39287e-08
2.47548e-06
1.42463e-08
2.4711e-06
1.45946e-08
2.46659e-06
1.50083e-08
2.46196e-06
1.54659e-08
2.45717e-06
1.60503e-08
2.45221e-06
1.6686e-08
2.44703e-06
1.75794e-08
2.44162e-06
1.84969e-08
2.43586e-06
1.99694e-08
2.42976e-06
2.13191e-08
2.42313e-06
2.39418e-08
2.4159e-06
2.59389e-08
2.40787e-06
3.09854e-08
2.39863e-06
3.3953e-08
2.38832e-06
4.44769e-08
2.37513e-06
4.9176e-08
2.36136e-06
7.29974e-08
2.34012e-06
8.25056e-08
2.32418e-06
1.40688e-07
1.68262e-07
2.29096e-06
-5.39476e-08
3.53974e-08
-1.21957e-07
6.50056e-08
-1.9032e-07
7.11346e-08
-2.59933e-07
8.04084e-08
-3.30975e-07
9.11919e-08
-4.03724e-07
1.0387e-07
-4.78417e-07
1.18428e-07
-5.55228e-07
1.34988e-07
-6.34285e-07
1.53645e-07
-7.15703e-07
1.7448e-07
-7.99421e-07
1.97496e-07
-8.85219e-07
2.22632e-07
-9.72777e-07
2.49749e-07
-1.06174e-06
2.78626e-07
-1.15176e-06
3.08978e-07
-1.24254e-06
3.40462e-07
-1.33388e-06
3.72678e-07
-1.42579e-06
4.05186e-07
-1.51846e-06
4.3752e-07
-1.61234e-06
4.69213e-07
-1.70816e-06
4.99857e-07
-1.80691e-06
5.29057e-07
-1.90965e-06
5.56515e-07
-2.01737e-06
5.82045e-07
-2.13096e-06
6.05541e-07
-2.2511e-06
6.26917e-07
-2.37824e-06
6.46047e-07
-2.51255e-06
6.62723e-07
-2.6539e-06
6.76636e-07
-2.80189e-06
6.87374e-07
-2.95587e-06
6.94408e-07
-3.11487e-06
6.97045e-07
-3.27757e-06
6.94419e-07
-3.44219e-06
6.85523e-07
-3.60646e-06
6.69255e-07
-3.7676e-06
6.44469e-07
-3.92237e-06
6.10071e-07
-4.06719e-06
5.65204e-07
-4.19836e-06
5.09415e-07
-4.31225e-06
4.42746e-07
-4.40547e-06
3.65797e-07
-4.4751e-06
2.79696e-07
-4.51876e-06
1.86079e-07
-4.53475e-06
8.71678e-08
-4.52157e-06
-1.43681e-08
-4.48103e-06
-1.16811e-07
-4.41368e-06
-2.16268e-07
-4.32123e-06
-3.10551e-07
-4.20594e-06
-3.97815e-07
-4.07039e-06
-4.76693e-07
-3.9174e-06
-5.4625e-07
-3.74992e-06
-6.06047e-07
-3.57085e-06
-6.56206e-07
-3.38284e-06
-6.97328e-07
-3.18819e-06
-7.3041e-07
-2.98866e-06
-7.56726e-07
-2.78549e-06
-7.77494e-07
-2.57957e-06
-7.93593e-07
-2.37161e-06
-8.05523e-07
-2.16234e-06
-8.13375e-07
-1.9527e-06
-8.16859e-07
-1.74389e-06
-8.15617e-07
-1.53726e-06
-8.0945e-07
-1.33419e-06
-7.9838e-07
-1.13595e-06
-7.8271e-07
-9.43608e-07
-7.62992e-07
-7.57968e-07
-7.3989e-07
-5.79548e-07
-7.14136e-07
-4.08613e-07
-6.86475e-07
-2.45217e-07
-6.57586e-07
-8.92467e-08
-6.28077e-07
5.93934e-08
-5.98368e-07
2.00894e-07
-5.69079e-07
3.35458e-07
-5.40102e-07
4.63242e-07
-5.11764e-07
5.84444e-07
-4.84287e-07
6.99298e-07
-4.57827e-07
8.08066e-07
-4.32491e-07
9.11035e-07
-4.08343e-07
1.00851e-06
-3.85404e-07
1.10078e-06
-3.63663e-07
1.18816e-06
-3.43084e-07
1.27093e-06
-3.23616e-07
1.34934e-06
-3.05199e-07
1.42365e-06
-2.87767e-07
1.49408e-06
-2.71255e-07
1.56084e-06
-2.556e-07
1.62412e-06
-2.40744e-07
1.68411e-06
-2.26631e-07
1.74096e-06
-2.13214e-07
1.79483e-06
-2.00449e-07
1.84586e-06
-1.88301e-07
1.89419e-06
-1.76736e-07
1.93994e-06
-1.65729e-07
1.98324e-06
-1.55254e-07
2.0242e-06
-1.45291e-07
2.06293e-06
-1.35821e-07
2.09952e-06
-1.26823e-07
2.13408e-06
-1.18282e-07
2.1667e-06
-1.10179e-07
2.19747e-06
-1.02497e-07
2.22646e-06
-9.52184e-08
2.25376e-06
-8.83267e-08
2.27944e-06
-8.18048e-08
2.30357e-06
-7.56361e-08
2.3262e-06
-6.98044e-08
2.34741e-06
-6.4294e-08
2.36725e-06
-5.90895e-08
2.38579e-06
-5.41759e-08
2.40306e-06
-4.95389e-08
2.41913e-06
-4.51645e-08
2.43405e-06
-4.10399e-08
2.44786e-06
-3.71522e-08
2.46062e-06
-3.34898e-08
2.47237e-06
-3.00442e-08
2.48316e-06
-2.68065e-08
2.49304e-06
-2.37656e-08
2.50203e-06
-2.09109e-08
2.51019e-06
-1.82335e-08
2.51756e-06
-1.57234e-08
2.52418e-06
-1.33715e-08
2.53008e-06
-1.11716e-08
2.53531e-06
-9.11522e-09
2.5399e-06
-7.19234e-09
2.54389e-06
-5.39633e-09
2.54732e-06
-3.72103e-09
2.55022e-06
-2.15744e-09
2.55262e-06
-7.00707e-10
2.55456e-06
6.48424e-10
2.55606e-06
1.90115e-09
2.55716e-06
3.05806e-09
2.55786e-06
4.12553e-09