/*--------------------------------*- C++ -*----------------------------------*\
  =========                 |
  \\      /  F ield         | OpenFOAM: The Open Source CFD Toolbox
   \\    /   O peration     | Website:  https://openfoam.org
    \\  /    A nd           | Version:  7
     \\/     M anipulation  |
\*---------------------------------------------------------------------------*/
FoamFile
{
    version     2.0;
    format      ascii;
    class       surfaceScalarField;
    location    "0.027";
    object      phi_0;
}
// * * * * * * * * * * * * * * * * * * * * * * * * * * * * * * * * * * * * * //

dimensions      [0 3 -1 0 0 0 0];

internalField   nonuniform List<scalar> 
24170
(
1.38313e-06
1.61736e-07
1.25228e-06
1.30849e-07
1.11207e-06
1.40211e-07
9.98683e-07
1.13387e-07
9.00088e-07
9.85947e-08
8.00507e-07
9.95809e-08
7.00246e-07
1.00261e-07
6.08649e-07
9.15972e-08
5.31163e-07
7.74856e-08
4.67199e-07
6.39648e-08
4.14244e-07
5.29546e-08
3.70229e-07
4.40147e-08
3.33755e-07
3.64746e-08
3.03757e-07
2.9998e-08
2.78163e-07
2.5594e-08
2.57015e-07
2.11473e-08
2.34237e-07
2.27785e-08
1.84897e-08
2.15747e-07
1.67645e-06
2.40622e-07
1.65656e-06
1.50736e-07
1.61958e-06
1.77193e-07
1.5753e-06
1.57662e-07
1.54034e-06
1.33554e-07
1.50821e-06
1.31713e-07
1.4686e-06
1.39869e-07
1.4203e-06
1.39906e-07
1.36777e-06
1.30016e-07
1.31581e-06
1.15921e-07
1.26735e-06
1.01413e-07
1.22334e-06
8.80215e-08
1.18319e-06
7.66282e-08
1.14557e-06
6.76216e-08
1.1095e-06
6.16651e-08
1.07344e-06
5.72034e-08
1.03938e-06
5.68416e-08
5.65485e-08
1.00132e-06
1.77783e-06
2.61148e-07
1.74996e-06
1.78605e-07
1.73397e-06
1.93184e-07
1.72043e-06
1.71202e-07
1.71613e-06
1.37854e-07
1.72044e-06
1.27401e-07
1.72563e-06
1.34684e-07
1.72422e-06
1.41307e-07
1.71345e-06
1.40788e-07
1.69454e-06
1.34836e-07
1.67079e-06
1.25166e-07
1.64611e-06
1.12693e-07
1.62313e-06
9.96117e-08
1.60279e-06
8.79589e-08
1.58455e-06
7.99095e-08
1.56688e-06
7.48677e-08
1.54989e-06
7.38386e-08
7.38092e-08
1.53263e-06
1.90842e-06
3.03254e-07
1.88631e-06
2.00721e-07
1.87867e-06
2.00825e-07
1.86834e-06
1.81531e-07
1.85814e-06
1.48055e-07
1.85607e-06
1.29466e-07
1.86178e-06
1.28977e-07
1.86863e-06
1.34456e-07
1.87091e-06
1.38504e-07
1.86699e-06
1.38763e-07
1.85827e-06
1.33886e-07
1.84743e-06
1.23528e-07
1.83674e-06
1.10303e-07
1.82755e-06
9.71533e-08
1.82036e-06
8.70916e-08
1.81483e-06
8.04039e-08
1.8114e-06
7.72713e-08
7.62286e-08
1.80898e-06
2.09087e-06
3.86514e-07
2.05203e-06
2.39562e-07
2.03889e-06
2.13966e-07
2.02413e-06
1.96297e-07
2.00818e-06
1.63999e-07
1.99761e-06
1.40041e-07
1.99522e-06
1.31363e-07
1.99818e-06
1.31498e-07
2.00197e-06
1.34711e-07
2.00337e-06
1.37361e-07
2.00106e-06
1.36202e-07
1.99519e-06
1.29397e-07
1.98718e-06
1.18312e-07
1.97879e-06
1.05548e-07
1.9719e-06
9.39734e-08
1.96735e-06
8.49568e-08
1.96587e-06
7.87564e-08
7.55221e-08
1.96657e-06
2.23463e-06
3.63064e-07
2.21502e-06
2.59168e-07
2.20961e-06
2.19375e-07
2.20463e-06
2.01277e-07
2.18336e-06
1.85268e-07
2.15517e-06
1.68232e-07
2.13627e-06
1.50266e-07
2.13157e-06
1.36201e-07
2.13609e-06
1.30189e-07
2.14252e-06
1.30927e-07
2.14597e-06
1.32749e-07
2.14508e-06
1.3029e-07
2.14136e-06
1.22035e-07
2.13719e-06
1.09715e-07
2.13449e-06
9.66714e-08
2.13391e-06
8.55419e-08
2.13512e-06
7.75455e-08
7.35023e-08
2.13714e-06
2.3643e-06
3.41955e-07
2.36933e-06
2.54136e-07
2.34436e-06
2.44343e-07
2.3206e-06
2.25041e-07
2.30614e-06
1.99725e-07
2.30254e-06
1.71831e-07
2.30557e-06
1.4724e-07
2.3094e-06
1.32371e-07
2.31077e-06
1.28817e-07
2.30921e-06
1.32488e-07
2.30545e-06
1.36505e-07
2.30053e-06
1.35215e-07
2.29565e-06
1.26908e-07
2.2919e-06
1.13472e-07
2.29013e-06
9.84391e-08
2.29046e-06
8.52047e-08
2.29268e-06
7.53275e-08
7.03178e-08
2.29587e-06
2.56184e-06
3.83745e-07
2.54383e-06
2.72147e-07
2.53154e-06
2.56636e-07
2.51696e-06
2.39621e-07
2.50695e-06
2.0974e-07
2.50365e-06
1.75131e-07
2.50395e-06
1.46939e-07
2.5053e-06
1.31023e-07
2.50674e-06
1.27367e-07
2.50739e-06
1.31843e-07
2.50582e-06
1.38072e-07
2.50089e-06
1.40147e-07
2.4927e-06
1.351e-07
2.48252e-06
1.23647e-07
2.47238e-06
1.08582e-07
2.46392e-06
9.36659e-08
2.45808e-06
8.11698e-08
7.31117e-08
2.45528e-06
2.75684e-06
3.18578e-07
2.70933e-06
3.19661e-07
2.69516e-06
2.70806e-07
2.69589e-06
2.38893e-07
2.69317e-06
2.12455e-07
2.68468e-06
1.83626e-07
2.67622e-06
1.55395e-07
2.67279e-06
1.34453e-07
2.67477e-06
1.25383e-07
2.67978e-06
1.26838e-07
2.68565e-06
1.32198e-07
2.69141e-06
1.34393e-07
2.69668e-06
1.29828e-07
2.70082e-06
1.19507e-07
2.70273e-06
1.06673e-07
2.70165e-06
9.4744e-08
2.69712e-06
8.57056e-08
7.98044e-08
2.69042e-06
2.94693e-06
4.01301e-07
2.92996e-06
3.36632e-07
2.91227e-06
2.88496e-07
2.9069e-06
2.44261e-07
2.91085e-06
2.08506e-07
2.91307e-06
1.814e-07
2.90903e-06
1.59445e-07
2.90181e-06
1.41664e-07
2.89674e-06
1.30454e-07
2.89697e-06
1.2661e-07
2.90218e-06
1.26985e-07
2.90957e-06
1.27007e-07
2.91577e-06
1.23633e-07
2.91853e-06
1.16738e-07
2.91735e-06
1.07861e-07
2.91306e-06
9.9028e-08
2.9074e-06
9.13624e-08
8.56733e-08
2.90154e-06
3.20313e-06
3.93118e-07
3.18664e-06
3.53124e-07
3.16527e-06
3.09866e-07
3.1451e-06
2.6443e-07
3.13147e-06
2.22135e-07
3.12459e-06
1.88277e-07
3.12125e-06
1.62784e-07
3.11835e-06
1.44567e-07
3.11505e-06
1.33751e-07
3.112e-06
1.29667e-07
3.10979e-06
1.29189e-07
3.10851e-06
1.2829e-07
3.10773e-06
1.24413e-07
3.10739e-06
1.17077e-07
3.10779e-06
1.07463e-07
3.10941e-06
9.74079e-08
3.11246e-06
8.83076e-08
8.15227e-08
3.11661e-06
2.87528e-06
3.88616e-07
2.83837e-06
3.90029e-07
2.82732e-06
3.20914e-07
2.83187e-06
2.59886e-07
2.83549e-06
2.18511e-07
2.83153e-06
1.92235e-07
2.82269e-06
1.71627e-07
2.81517e-06
1.52085e-07
2.81286e-06
1.36065e-07
2.81591e-06
1.26617e-07
2.82242e-06
1.22678e-07
2.83014e-06
1.2057e-07
2.83746e-06
1.17096e-07
2.84343e-06
1.11105e-07
2.84761e-06
1.03284e-07
2.85005e-06
9.49619e-08
2.85081e-06
8.75466e-08
8.1612e-08
2.85072e-06
3.54668e-06
4.65963e-07
3.50202e-06
4.34687e-07
3.48033e-06
3.42609e-07
3.48238e-06
2.57828e-07
3.49078e-06
2.10119e-07
3.49056e-06
1.92452e-07
3.48125e-06
1.80933e-07
3.46894e-06
1.644e-07
3.45841e-06
1.46595e-07
3.45181e-06
1.33217e-07
3.44988e-06
1.24602e-07
3.45255e-06
1.17908e-07
3.4589e-06
1.10737e-07
3.46696e-06
1.03051e-07
3.47448e-06
9.5767e-08
3.47971e-06
8.97319e-08
3.48151e-06
8.57446e-08
8.28131e-08
3.48031e-06
4.31904e-06
4.13961e-07
4.29605e-06
4.57677e-07
4.26164e-06
3.77014e-07
4.2504e-06
2.69073e-07
4.25762e-06
2.029e-07
4.26987e-06
1.80197e-07
4.27559e-06
1.7521e-07
4.27054e-06
1.6945e-07
4.25813e-06
1.59007e-07
4.24598e-06
1.45374e-07
4.24087e-06
1.29703e-07
4.24502e-06
1.13759e-07
4.25587e-06
9.98905e-08
4.26809e-06
9.08346e-08
4.27642e-06
8.74378e-08
4.27776e-06
8.83849e-08
4.27163e-06
9.18822e-08
9.40266e-08
4.26041e-06
5.14549e-06
4.93034e-07
5.19969e-06
4.03482e-07
5.23518e-06
3.41521e-07
5.22713e-06
2.77129e-07
5.19808e-06
2.31951e-07
5.17479e-06
2.03481e-07
5.16942e-06
1.80579e-07
5.17884e-06
1.60037e-07
5.19473e-06
1.43112e-07
5.21084e-06
1.29268e-07
5.22414e-06
1.16403e-07
5.23369e-06
1.04205e-07
5.23905e-06
9.45304e-08
5.24011e-06
8.97812e-08
5.23724e-06
9.03068e-08
5.23139e-06
9.42353e-08
5.22456e-06
9.87077e-08
1.00359e-07
5.21823e-06
6.25872e-06
3.75592e-07
6.32566e-06
3.36542e-07
6.33133e-06
3.3585e-07
6.31083e-06
2.9763e-07
6.30039e-06
2.42396e-07
6.31409e-06
1.89781e-07
6.34142e-06
1.53249e-07
6.36528e-06
1.36178e-07
6.37758e-06
1.30808e-07
6.37983e-06
1.27023e-07
6.37661e-06
1.19616e-07
6.37153e-06
1.09289e-07
6.36659e-06
9.94691e-08
6.36327e-06
9.31063e-08
6.36316e-06
9.04138e-08
6.36752e-06
8.98693e-08
6.37726e-06
8.89741e-08
8.60046e-08
6.39161e-06
7.62912e-06
3.21284e-07
7.66782e-06
2.97846e-07
7.67421e-06
3.29456e-07
7.67736e-06
2.94478e-07
7.69596e-06
2.23796e-07
7.72593e-06
1.5982e-07
7.75605e-06
1.23123e-07
7.77884e-06
1.13395e-07
7.79294e-06
1.16698e-07
7.80042e-06
1.19552e-07
7.80408e-06
1.15947e-07
7.80646e-06
1.06917e-07
7.80951e-06
9.64185e-08
7.8144e-06
8.82092e-08
7.8213e-06
8.35186e-08
7.8298e-06
8.13711e-08
7.83867e-06
8.00955e-08
7.75731e-08
7.84711e-06
9.44372e-06
3.07234e-07
9.40342e-06
3.3815e-07
9.42128e-06
3.1159e-07
9.44954e-06
2.6622e-07
9.45508e-06
2.18259e-07
9.44176e-06
1.73138e-07
9.43004e-06
1.3484e-07
9.43264e-06
1.108e-07
9.44682e-06
1.02512e-07
9.46464e-06
1.01731e-07
9.48148e-06
9.91126e-08
9.49732e-06
9.10761e-08
9.51436e-06
7.93733e-08
9.53438e-06
6.81961e-08
9.55703e-06
6.08623e-08
9.58049e-06
5.79114e-08
9.60226e-06
5.83292e-08
5.98044e-08
9.62003e-06
1.14559e-05
4.44726e-07
1.14035e-05
3.90508e-07
1.14292e-05
2.85875e-07
1.14836e-05
2.11872e-07
1.15408e-05
1.61064e-07
1.15869e-05
1.26959e-07
1.1614e-05
1.07818e-07
1.16246e-05
1.00134e-07
1.16297e-05
9.7396e-08
1.16375e-05
9.39451e-08
1.16503e-05
8.63291e-08
1.16671e-05
7.43419e-08
1.16861e-05
6.03306e-08
1.17069e-05
4.73612e-08
1.17303e-05
3.75134e-08
1.17567e-05
3.15015e-08
1.17866e-05
2.84438e-08
2.75548e-08
1.18188e-05
8.52754e-06
4.89446e-07
8.52283e-06
3.95214e-07
8.51804e-06
2.90666e-07
8.51688e-06
2.13034e-07
8.51434e-06
1.63606e-07
8.5083e-06
1.33001e-07
8.50235e-06
1.13769e-07
8.50211e-06
1.00369e-07
8.51001e-06
8.94971e-08
8.52506e-06
7.88979e-08
8.54358e-06
6.78061e-08
8.5622e-06
5.57244e-08
8.57985e-06
4.26777e-08
8.59775e-06
2.94608e-08
8.61826e-06
1.7003e-08
8.64325e-06
6.51027e-09
8.67336e-06
-1.66643e-09
-6.38546e-09
8.7073e-06
7.51019e-06
4.77051e-07
7.49419e-06
4.11219e-07
7.48096e-06
3.03893e-07
7.47085e-06
2.23151e-07
7.45456e-06
1.79894e-07
7.44319e-06
1.44373e-07
7.4481e-06
1.08859e-07
7.46881e-06
7.96538e-08
7.49696e-06
6.13458e-08
7.5242e-06
5.16635e-08
7.54695e-06
4.50561e-08
7.56566e-06
3.70114e-08
7.58231e-06
2.60238e-08
7.59855e-06
1.32262e-08
7.6147e-06
8.54152e-10
7.63139e-06
-1.01831e-08
7.64751e-06
-1.77888e-08
-2.18982e-08
7.66303e-06
6.44968e-06
5.42847e-07
6.43767e-06
4.23232e-07
6.4443e-06
2.97254e-07
6.46838e-06
1.99079e-07
6.51062e-06
1.37651e-07
6.56083e-06
9.41675e-08
6.61001e-06
5.96734e-08
6.65259e-06
3.70725e-08
6.68611e-06
2.78314e-08
6.7108e-06
2.697e-08
6.72871e-06
2.71488e-08
6.74241e-06
2.33132e-08
6.75419e-06
1.42363e-08
6.76551e-06
1.90549e-09
6.77585e-06
-9.4791e-09
6.78435e-06
-1.86818e-08
6.79098e-06
-2.44209e-08
-2.68567e-08
6.79594e-06
5.55431e-06
4.67086e-07
5.61851e-06
3.59036e-07
5.65514e-06
2.60618e-07
5.68432e-06
1.69899e-07
5.71704e-06
1.0493e-07
5.75246e-06
5.87559e-08
5.78534e-06
2.67909e-08
5.8148e-06
7.60829e-09
5.84315e-06
-5.19684e-10
5.87186e-06
-1.73614e-09
5.89924e-06
-2.26663e-10
5.92165e-06
9.03225e-10
5.93594e-06
-6.29803e-11
5.94085e-06
-2.99807e-09
5.93814e-06
-6.76773e-09
5.92985e-06
-1.03905e-08
5.91885e-06
-1.34275e-08
-1.61157e-08
5.90811e-06
4.89829e-06
4.7615e-07
4.96194e-06
2.95383e-07
5.01164e-06
2.10915e-07
5.02576e-06
1.55779e-07
5.02706e-06
1.03631e-07
5.03051e-06
5.5308e-08
5.03955e-06
1.77459e-08
5.05288e-06
-5.71937e-09
5.06935e-06
-1.69911e-08
5.08998e-06
-2.23644e-08
5.11404e-06
-2.42846e-08
5.13919e-06
-2.4249e-08
5.16229e-06
-2.31587e-08
5.18078e-06
-2.14902e-08
5.19377e-06
-1.97593e-08
5.20188e-06
-1.85023e-08
5.20672e-06
-1.82603e-08
-1.94212e-08
5.21002e-06
4.24568e-06
3.55132e-07
4.30531e-06
2.35749e-07
4.35353e-06
1.62693e-07
4.39546e-06
1.13852e-07
4.43438e-06
6.47104e-08
4.46579e-06
2.38965e-08
4.48417e-06
-6.31798e-10
4.49107e-06
-1.26172e-08
4.4893e-06
-1.52242e-08
4.48355e-06
-1.66141e-08
4.47874e-06
-1.94727e-08
4.47774e-06
-2.32532e-08
4.48124e-06
-2.6661e-08
4.48888e-06
-2.91269e-08
4.50009e-06
-3.09704e-08
4.51404e-06
-3.24545e-08
4.52989e-06
-3.41107e-08
-3.58703e-08
4.54634e-06
3.66257e-06
3.36585e-07
3.74893e-06
1.49387e-07
3.82928e-06
8.23412e-08
3.88064e-06
6.24912e-08
3.91408e-06
3.12689e-08
3.93763e-06
3.4744e-10
3.95232e-06
-1.53203e-08
3.95946e-06
-1.97557e-08
3.9631e-06
-1.88695e-08
3.96609e-06
-1.95967e-08
3.97012e-06
-2.351e-08
3.97553e-06
-2.86558e-08
3.98158e-06
-3.27145e-08
3.98715e-06
-3.47015e-08
3.99138e-06
-3.51945e-08
3.994e-06
-3.50809e-08
3.99524e-06
-3.5343e-08
-3.63363e-08
3.9957e-06
3.2465e-06
2.37753e-07
3.3307e-06
6.51831e-08
3.36548e-06
4.75663e-08
3.38416e-06
4.38069e-08
3.39931e-06
1.61226e-08
3.41632e-06
-1.66596e-08
3.43746e-06
-3.64593e-08
3.45933e-06
-4.16275e-08
3.47832e-06
-3.78639e-08
3.49161e-06
-3.28882e-08
3.49903e-06
-3.09298e-08
3.50276e-06
-3.23828e-08
3.50578e-06
-3.57381e-08
3.51054e-06
-3.94541e-08
3.51784e-06
-4.25025e-08
3.52728e-06
-4.45117e-08
3.53746e-06
-4.55295e-08
-4.57053e-08
3.54683e-06
2.83813e-06
1.2234e-07
2.89576e-06
7.56249e-09
2.92241e-06
2.09106e-08
2.96613e-06
8.45701e-11
3.00854e-06
-2.62886e-08
3.03484e-06
-4.29518e-08
3.04765e-06
-4.92744e-08
3.05694e-06
-5.09196e-08
3.06954e-06
-5.04647e-08
3.08572e-06
-4.90638e-08
3.10241e-06
-4.76213e-08
3.11681e-06
-4.67853e-08
3.1279e-06
-4.68207e-08
3.13628e-06
-4.78355e-08
3.14292e-06
-4.91425e-08
3.14853e-06
-5.01224e-08
3.15301e-06
-5.00078e-08
-4.83193e-08
3.15562e-06
2.53095e-06
7.02637e-08
2.56393e-06
-2.54205e-08
2.59211e-06
-7.26588e-09
2.62236e-06
-3.01645e-08
2.64499e-06
-4.89227e-08
2.65516e-06
-5.31239e-08
2.6564e-06
-5.0509e-08
2.65377e-06
-4.82962e-08
2.65132e-06
-4.80136e-08
2.6508e-06
-4.85391e-08
2.65188e-06
-4.87044e-08
2.65307e-06
-4.79721e-08
2.65259e-06
-4.63462e-08
2.64897e-06
-4.42155e-08
2.64169e-06
-4.18593e-08
2.63121e-06
-3.96403e-08
2.61879e-06
-3.75935e-08
-3.56196e-08
2.60609e-06
2.128e-06
2.10258e-06
2.09531e-06
2.06515e-06
2.01622e-06
1.9631e-06
1.91259e-06
1.86429e-06
1.81628e-06
1.76774e-06
1.71904e-06
1.67106e-06
1.62472e-06
1.5805e-06
1.53864e-06
1.499e-06
1.46141e-06
1.42579e-06
4.73551e-08
-4.73551e-08
1.02226e-07
-5.48708e-08
1.55159e-07
-5.29331e-08
2.04759e-07
-4.95999e-08
2.50643e-07
-4.58838e-08
2.92589e-07
-4.19462e-08
3.30224e-07
-3.76355e-08
3.62982e-07
-3.27579e-08
3.90126e-07
-2.71433e-08
4.10833e-07
-2.07069e-08
4.24226e-07
-1.33931e-08
4.29431e-07
-5.20495e-09
4.25165e-07
4.26596e-09
4.09872e-07
1.52928e-08
3.82048e-07
2.78237e-08
3.39896e-07
4.21519e-08
2.81562e-07
5.83341e-08
2.053e-07
7.62616e-08
1.09683e-07
9.56177e-08
-6.19878e-09
1.15882e-07
-1.42319e-07
1.3612e-07
-2.97437e-07
1.55118e-07
-4.69649e-07
1.72211e-07
-6.56496e-07
1.86847e-07
-8.55366e-07
1.9887e-07
-1.06374e-06
2.08372e-07
-1.27927e-06
2.15534e-07
-1.49985e-06
2.20579e-07
-1.72354e-06
2.23692e-07
-1.94854e-06
2.25001e-07
-2.17311e-06
2.24569e-07
-2.39551e-06
2.22393e-07
-2.61392e-06
2.18414e-07
-2.82645e-06
2.12534e-07
-3.0311e-06
2.04645e-07
-3.22574e-06
1.94643e-07
-3.40816e-06
1.82422e-07
-3.57607e-06
1.67913e-07
-3.72718e-06
1.51108e-07
-3.85923e-06
1.32046e-07
-3.97005e-06
1.10821e-07
-4.05769e-06
8.76409e-08
-4.12063e-06
6.29408e-08
-4.15799e-06
3.7362e-08
-4.16946e-06
1.14658e-08
-4.15568e-06
-1.37778e-08
-4.11731e-06
-3.83717e-08
-4.05589e-06
-6.14201e-08
-3.97298e-06
-8.29074e-08
-3.87039e-06
-1.02594e-07
-3.75011e-06
-1.20278e-07
-3.61421e-06
-1.35904e-07
-3.46479e-06
-1.49421e-07
-3.30387e-06
-1.60918e-07
-3.13335e-06
-1.70522e-07
-2.95495e-06
-1.78401e-07
-2.77022e-06
-1.84721e-07
-2.5806e-06
-1.89622e-07
-2.3874e-06
-1.93203e-07
-2.19188e-06
-1.95523e-07
-1.99527e-06
-1.96608e-07
-1.7988e-06
-1.96473e-07
-1.60366e-06
-1.95139e-07
-1.41102e-06
-1.92643e-07
-1.22196e-06
-1.89055e-07
-1.03749e-06
-1.84473e-07
-8.58461e-07
-1.79027e-07
-6.85596e-07
-1.72865e-07
-5.19491e-07
-1.66106e-07
-3.60544e-07
-1.58947e-07
-2.09065e-07
-1.51478e-07
-6.52687e-08
-1.43796e-07
7.10183e-08
-1.36287e-07
1.99797e-07
-1.28778e-07
3.21178e-07
-1.21382e-07
4.35344e-07
-1.14166e-07
5.4253e-07
-1.07185e-07
6.43001e-07
-1.00471e-07
7.37042e-07
-9.40413e-08
8.24945e-07
-8.79023e-08
9.06999e-07
-8.20542e-08
9.8349e-07
-7.64913e-08
1.05469e-06
-7.12044e-08
1.12088e-06
-6.61821e-08
1.18229e-06
-6.14117e-08
1.23917e-06
-5.68807e-08
1.29175e-06
-5.25766e-08
1.34023e-06
-4.84881e-08
1.38484e-06
-4.46048e-08
1.42576e-06
-4.09179e-08
1.46318e-06
-3.74199e-08
1.49728e-06
-3.41049e-08
1.52825e-06
-3.09679e-08
1.55625e-06
-2.80051e-08
1.58147e-06
-2.52133e-08
1.60406e-06
-2.25898e-08
1.62419e-06
-2.01316e-08
1.64202e-06
-1.78359e-08
1.65772e-06
-1.56994e-08
1.67144e-06
-1.37184e-08
1.68333e-06
-1.18886e-08
1.69354e-06
-1.02049e-08
1.7022e-06
-8.6618e-09
1.70945e-06
-7.25289e-09
1.71542e-06
-5.9705e-09
1.72023e-06
-4.80941e-09
1.72399e-06
-3.76174e-09
1.72681e-06
-2.82154e-09
1.72879e-06
-1.97884e-09
1.73001e-06
-1.22154e-09
1.73056e-06
-5.50019e-10
1.73051e-06
5.6362e-11
1.72988e-06
6.30535e-10
1.72874e-06
1.13898e-09
1.72716e-06
1.58121e-09
1.72519e-06
1.96575e-09
1.72289e-06
2.30047e-09
1.7203e-06
2.59003e-09
1.71746e-06
2.84231e-09
1.71439e-06
3.06408e-09
1.71114e-06
3.254e-09
1.70772e-06
3.41613e-09
1.70417e-06
3.55946e-09
1.70048e-06
3.68884e-09
1.69667e-06
3.8037e-09
1.69277e-06
3.90565e-09
1.68877e-06
3.99718e-09
1.68469e-06
4.07811e-09
1.68054e-06
4.14802e-09
1.67634e-06
4.20579e-09
1.67209e-06
4.24885e-09
1.66781e-06
4.2761e-09
1.66352e-06
4.289e-09
1.65923e-06
4.29131e-09
1.65494e-06
4.28785e-09
1.65066e-06
4.28338e-09
1.64638e-06
4.28123e-09
1.6421e-06
4.28326e-09
1.63781e-06
4.2897e-09
1.63351e-06
4.30011e-09
1.62919e-06
4.3137e-09
1.62486e-06
4.32972e-09
1.62052e-06
4.34766e-09
1.61615e-06
4.36714e-09
1.61176e-06
4.38803e-09
1.60735e-06
4.41035e-09
1.60292e-06
4.43425e-09
1.59846e-06
4.45987e-09
1.59397e-06
4.4874e-09
1.58945e-06
4.51702e-09
1.5849e-06
4.54895e-09
1.58032e-06
4.58361e-09
1.5757e-06
4.62137e-09
1.57104e-06
4.66287e-09
1.56633e-06
4.70875e-09
1.56157e-06
4.76007e-09
1.55675e-06
4.81783e-09
1.55186e-06
4.88369e-09
1.54691e-06
4.95946e-09
1.54186e-06
5.04743e-09
1.53671e-06
5.1516e-09
1.53143e-06
5.27404e-09
1.52601e-06
5.4246e-09
1.52041e-06
5.60124e-09
1.51458e-06
5.83098e-09
1.50848e-06
6.09297e-09
1.50202e-06
6.46553e-09
1.49516e-06
6.85708e-09
1.48765e-06
7.50544e-09
1.47957e-06
8.08019e-09
1.47026e-06
9.31286e-09
1.46016e-06
1.01021e-08
1.44746e-06
1.26947e-08
1.43389e-06
1.35713e-08
1.41425e-06
1.96443e-08
1.39437e-06
1.98806e-08
1.35866e-06
3.57072e-08
1.32545e-06
3.32145e-08
1.24253e-06
8.29206e-08
7.77318e-08
1.16479e-06
6.68345e-09
-5.40385e-08
4.34614e-09
-5.25335e-08
-1.04243e-09
-4.75446e-08
-9.78357e-09
-4.08588e-08
-2.22345e-08
-3.34329e-08
-3.90267e-08
-2.5154e-08
-6.07908e-08
-1.58713e-08
-8.83288e-08
-5.21988e-09
-1.22016e-07
6.54359e-09
-1.62525e-07
1.98019e-08
-2.11011e-07
3.50933e-08
-2.68755e-07
5.25389e-08
-3.36711e-07
7.22221e-08
-4.15648e-07
9.42299e-08
-5.06307e-07
1.18483e-07
-6.08913e-07
1.44758e-07
-7.23233e-07
1.72653e-07
-8.48557e-07
2.01586e-07
-9.83817e-07
2.30878e-07
-1.12781e-06
2.59874e-07
-1.27924e-06
2.87553e-07
-1.43662e-06
3.12499e-07
-1.59867e-06
3.34261e-07
-1.7644e-06
3.52576e-07
-1.93292e-06
3.67392e-07
-2.10341e-06
3.78854e-07
-2.27505e-06
3.87179e-07
-2.44709e-06
3.92614e-07
-2.61875e-06
3.95355e-07
-2.78927e-06
3.95517e-07
-2.9578e-06
3.93108e-07
-3.12344e-06
3.8803e-07
-3.28511e-06
3.80082e-07
-3.44155e-06
3.68978e-07
-3.59148e-06
3.54573e-07
-3.73354e-06
3.36701e-07
-3.86609e-06
3.14975e-07
-3.98732e-06
2.8914e-07
-4.09529e-06
2.59075e-07
-4.18805e-06
2.24809e-07
-4.26378e-06
1.86549e-07
-4.32086e-06
1.44723e-07
-4.35793e-06
1.00007e-07
-4.37387e-06
5.33084e-08
-4.36819e-06
5.77814e-09
-4.33903e-06
-4.29381e-08
-4.28712e-06
-9.02795e-08
-4.21276e-06
-1.35777e-07
-4.11721e-06
-1.78461e-07
-4.00226e-06
-2.17539e-07
-3.86998e-06
-2.52562e-07
-3.72258e-06
-2.83301e-07
-3.56223e-06
-3.09773e-07
-3.39099e-06
-3.32158e-07
-3.21073e-06
-3.50776e-07
-3.02312e-06
-3.66014e-07
-2.8296e-06
-3.78243e-07
-2.63146e-06
-3.87763e-07
-2.42989e-06
-3.94776e-07
-2.22603e-06
-3.99382e-07
-2.02103e-06
-4.01599e-07
-1.81609e-06
-4.01421e-07
-1.61236e-06
-3.98864e-07
-1.41102e-06
-3.93986e-07
-1.21315e-06
-3.8692e-07
-1.01975e-06
-3.77873e-07
-8.31678e-07
-3.67102e-07
-6.49662e-07
-3.5488e-07
-4.74263e-07
-3.41505e-07
-3.05845e-07
-3.27366e-07
-1.44694e-07
-3.12628e-07
9.18253e-09
-2.97673e-07
1.55766e-07
-2.82871e-07
2.95088e-07
-2.681e-07
4.27334e-07
-2.53627e-07
5.52732e-07
-2.39564e-07
6.71541e-07
-2.25995e-07
7.84043e-07
-2.12973e-07
8.9053e-07
-2.00528e-07
9.91296e-07
-1.88668e-07
1.08663e-06
-1.7739e-07
1.17682e-06
-1.66677e-07
1.26212e-06
-1.56509e-07
1.3428e-06
-1.4686e-07
1.41909e-06
-1.37701e-07
1.49121e-06
-1.29005e-07
1.55938e-06
-1.20743e-07
1.62378e-06
-1.12888e-07
1.68459e-06
-1.05418e-07
1.74198e-06
-9.83094e-08
1.79611e-06
-9.15447e-08
1.84711e-06
-8.51079e-08
1.89513e-06
-7.89857e-08
1.94029e-06
-7.31673e-08
1.98272e-06
-6.76433e-08
2.02254e-06
-6.24057e-08
2.05985e-06
-5.74472e-08
2.09478e-06
-5.27609e-08
2.12742e-06
-4.83399e-08
2.15788e-06
-4.41772e-08
2.18625e-06
-4.02654e-08
2.21265e-06
-3.65963e-08
2.23715e-06
-3.31616e-08
2.25985e-06
-2.99525e-08
2.28083e-06
-2.69599e-08
2.3002e-06
-2.41746e-08
2.31802e-06
-2.15859e-08
2.33439e-06
-1.91831e-08
2.34936e-06
-1.69559e-08
2.36303e-06
-1.48933e-08
2.37547e-06
-1.29872e-08
2.38675e-06
-1.12261e-08
2.39698e-06
-9.59133e-09
2.4062e-06
-8.08067e-09
2.41447e-06
-6.69188e-09
2.42185e-06
-5.41571e-09
2.42839e-06
-4.2441e-09
2.43415e-06
-3.16844e-09
2.43917e-06
-2.17802e-09
2.44351e-06
-1.26825e-09
2.44719e-06
-4.29717e-10
2.45026e-06
3.42762e-10
2.45276e-06
1.059e-09
2.45473e-06
1.7197e-09
2.45621e-06
2.32703e-09
2.45723e-06
2.88551e-09
2.45783e-06
3.3998e-09
2.45803e-06
3.87006e-09
2.45788e-06
4.29775e-09
2.45741e-06
4.68416e-09
2.45663e-06
5.02925e-09
2.45557e-06
5.33431e-09
2.45425e-06
5.60315e-09
2.4527e-06
5.84061e-09
2.45094e-06
6.05183e-09
2.44898e-06
6.24188e-09
2.44685e-06
6.41566e-09
2.44455e-06
6.57758e-09
2.44211e-06
6.73183e-09
2.43953e-06
6.88199e-09
2.43681e-06
7.03056e-09
2.43396e-06
7.17873e-09
2.43098e-06
7.32665e-09
2.42788e-06
7.47355e-09
2.42465e-06
7.61856e-09
2.4213e-06
7.76081e-09
2.41783e-06
7.89988e-09
2.41426e-06
8.03566e-09
2.41057e-06
8.16849e-09
2.40679e-06
8.29889e-09
2.40291e-06
8.42762e-09
2.39894e-06
8.5557e-09
2.39488e-06
8.68417e-09
2.39073e-06
8.81454e-09
2.38649e-06
8.94836e-09
2.38216e-06
9.08752e-09
2.37774e-06
9.23451e-09
2.37324e-06
9.39176e-09
2.36863e-06
9.56382e-09
2.36393e-06
9.7532e-09
2.35911e-06
9.96932e-09
2.35417e-06
1.02125e-08
2.34909e-06
1.05047e-08
2.34385e-06
1.08356e-08
2.33843e-06
1.12607e-08
2.33279e-06
1.17323e-08
2.32685e-06
1.23996e-08
2.32062e-06
1.30877e-08
2.31391e-06
1.42195e-08
2.30677e-06
1.5219e-08
2.29877e-06
1.73137e-08
2.29016e-06
1.87125e-08
2.2799e-06
2.29563e-08
2.26874e-06
2.4726e-08
2.25422e-06
3.41687e-08
2.2381e-06
3.59921e-08
2.21458e-06
5.92365e-08
2.18651e-06
6.12828e-08
2.14465e-06
1.24776e-07
1.35108e-07
2.08727e-06
-3.56056e-08
-1.84329e-08
-8.52983e-08
-2.84079e-09
-1.35764e-07
2.92071e-09
-1.87576e-07
1.09539e-08
-2.41327e-07
2.03182e-08
-2.9778e-07
3.12985e-08
-3.57572e-07
4.39212e-08
-4.21162e-07
5.83693e-08
-4.89404e-07
7.47862e-08
-5.62864e-07
9.3262e-08
-6.41745e-07
1.13974e-07
-7.26229e-07
1.37023e-07
-8.16374e-07
1.62367e-07
-9.11961e-07
1.89817e-07
-1.01256e-06
2.19085e-07
-1.11759e-06
2.49781e-07
-1.22633e-06
2.81394e-07
-1.33804e-06
3.13299e-07
-1.45198e-06
3.44813e-07
-1.56735e-06
3.75249e-07
-1.6837e-06
4.03904e-07
-1.80134e-06
4.30134e-07
-1.92064e-06
4.53567e-07
-2.04214e-06
4.74073e-07
-2.16642e-06
4.91671e-07
-2.29403e-06
5.06466e-07
-2.42543e-06
5.18574e-07
-2.56088e-06
5.28065e-07
-2.70044e-06
5.34915e-07
-2.84391e-06
5.38989e-07
-2.99082e-06
5.40022e-07
-3.14041e-06
5.37621e-07
-3.29162e-06
5.31288e-07
-3.4431e-06
5.20454e-07
-3.59304e-06
5.04518e-07
-3.7392e-06
4.82857e-07
-3.87905e-06
4.54833e-07
-4.00983e-06
4.19916e-07
-4.12854e-06
3.77787e-07
-4.23215e-06
3.28422e-07
-4.31775e-06
2.72148e-07
-4.3827e-06
2.09666e-07
-4.42474e-06
1.42052e-07
-4.44227e-06
7.08382e-08
-4.43495e-06
-1.54295e-09
-4.40131e-06
-7.65743e-08
-4.34238e-06
-1.49217e-07
-4.25976e-06
-2.18391e-07
-4.15541e-06
-2.82817e-07
-4.03151e-06
-3.41438e-07
-3.8905e-06
-3.93571e-07
-3.73491e-06
-4.38892e-07
-3.56722e-06
-4.77463e-07
-3.38972e-06
-5.09656e-07
-3.20441e-06
-5.36089e-07
-3.01291e-06
-5.57509e-07
-2.81654e-06
-5.74612e-07
-2.61638e-06
-5.87923e-07
-2.4134e-06
-5.97762e-07
-2.20854e-06
-6.04237e-07
-2.00286e-06
-6.07284e-07
-1.79748e-06
-6.06803e-07
-1.59359e-06
-6.02747e-07
-1.3924e-06
-5.95175e-07
-1.19504e-06
-5.84284e-07
-1.00249e-06
-5.70422e-07
-8.1561e-07
-5.53983e-07
-6.35064e-07
-5.35425e-07
-4.61336e-07
-5.15233e-07
-2.94829e-07
-4.93873e-07
-1.35668e-07
-4.71789e-07
1.6075e-08
-4.49416e-07
1.60471e-07
-4.27266e-07
2.97609e-07
-4.05238e-07
4.27676e-07
-3.83694e-07
5.50925e-07
-3.62813e-07
6.67647e-07
-3.42717e-07
7.78157e-07
-3.23483e-07
8.82778e-07
-3.05149e-07
9.81832e-07
-2.87722e-07
1.07563e-06
-2.71189e-07
1.16447e-06
-2.5552e-07
1.24864e-06
-2.4068e-07
1.32841e-06
-2.26624e-07
1.40401e-06
-2.13306e-07
1.47569e-06
-2.00681e-07
1.54365e-06
-1.88704e-07
1.60809e-06
-1.77331e-07
1.6692e-06
-1.66523e-07
1.72713e-06
-1.56246e-07
1.78206e-06
-1.46467e-07
1.83411e-06
-1.37161e-07
1.88343e-06
-1.28304e-07
1.93014e-06
-1.19877e-07
1.97436e-06
-1.11862e-07
2.0162e-06
-1.04245e-07
2.05576e-06
-9.70108e-08
2.09315e-06
-9.01478e-08
2.12845e-06
-8.36433e-08
2.16176e-06
-7.7485e-08
2.19315e-06
-7.16608e-08
2.22272e-06
-6.61584e-08
2.25052e-06
-6.09652e-08
2.27664e-06
-5.60688e-08
2.30113e-06
-5.14566e-08
2.32407e-06
-4.71161e-08
2.34552e-06
-4.3035e-08
2.36554e-06
-3.92005e-08
2.38418e-06
-3.56005e-08
2.40151e-06
-3.22232e-08
2.41758e-06
-2.9056e-08
2.43244e-06
-2.60872e-08
2.44616e-06
-2.33039e-08
2.45877e-06
-2.06965e-08
2.47034e-06
-1.82608e-08
2.48091e-06
-1.5988e-08
2.49054e-06
-1.38677e-08
2.49926e-06
-1.1891e-08
2.50713e-06
-1.00482e-08
2.51419e-06
-8.33055e-09
2.5205e-06
-6.73375e-09
2.52609e-06
-5.25095e-09
2.53102e-06
-3.86995e-09
2.53532e-06
-2.58333e-09
2.53904e-06
-1.38864e-09
2.5422e-06
-2.80384e-10
2.54485e-06
7.57541e-10
2.547e-06
1.71563e-09
2.5487e-06
2.59976e-09
2.54997e-06
3.41374e-09
2.55084e-06
4.15922e-09
2.55133e-06
4.83957e-09
2.55148e-06
5.46034e-09
2.55129e-06
6.02721e-09
2.5508e-06
6.54582e-09
2.55002e-06
7.02173e-09
2.54897e-06
7.46016e-09
2.54768e-06
7.86654e-09
2.54617e-06
8.24648e-09
2.54444e-06
8.6055e-09
2.54253e-06
8.9483e-09
2.54043e-06
9.27813e-09
2.53816e-06
9.59668e-09
2.53573e-06
9.90444e-09
2.53314e-06
1.02013e-08
2.53042e-06
1.0487e-08
2.52756e-06
1.07614e-08
2.52457e-06
1.10251e-08
2.52146e-06
1.12787e-08
2.51823e-06
1.15235e-08
2.5149e-06
1.17608e-08
2.51146e-06
1.19923e-08
2.50793e-06
1.22199e-08
2.5043e-06
1.24456e-08
2.50057e-06
1.26721e-08
2.49676e-06
1.29017e-08
2.49285e-06
1.31388e-08
2.48886e-06
1.33856e-08
2.48477e-06
1.365e-08
2.48059e-06
1.39332e-08
2.47631e-06
1.42508e-08
2.47193e-06
1.45991e-08
2.46742e-06
1.50127e-08
2.46278e-06
1.54704e-08
2.45799e-06
1.60548e-08
2.45303e-06
1.66907e-08
2.44785e-06
1.75842e-08
2.44243e-06
1.85017e-08
2.43668e-06
1.99744e-08
2.43057e-06
2.13244e-08
2.42394e-06
2.39474e-08
2.4167e-06
2.59449e-08
2.40867e-06
3.09922e-08
2.39943e-06
3.39608e-08
2.38912e-06
4.44863e-08
2.37592e-06
4.91879e-08
2.36214e-06
7.30138e-08
2.3409e-06
8.25301e-08
2.32494e-06
1.4073e-07
1.68338e-07
2.29171e-06
-5.39592e-08
3.55263e-08
-1.21974e-07
6.51737e-08
-1.90354e-07
7.13014e-08
-2.59978e-07
8.05776e-08
-3.31024e-07
9.13639e-08
-4.0377e-07
1.04045e-07
-4.78453e-07
1.18604e-07
-5.55248e-07
1.35164e-07
-6.34281e-07
1.53819e-07
-7.15668e-07
1.74649e-07
-7.9935e-07
1.97656e-07
-8.85105e-07
2.22778e-07
-9.72615e-07
2.49876e-07
-1.06153e-06
2.78728e-07
-1.15149e-06
3.0905e-07
-1.24221e-06
3.405e-07
-1.33349e-06
3.72678e-07
-1.42534e-06
4.05145e-07
-1.51796e-06
4.37437e-07
-1.6118e-06
4.6909e-07
-1.7076e-06
4.99697e-07
-1.80633e-06
5.28864e-07
-1.90905e-06
5.56291e-07
-2.01677e-06
5.81794e-07
-2.13036e-06
6.05264e-07
-2.25051e-06
6.26615e-07
-2.37766e-06
6.45721e-07
-2.51197e-06
6.62371e-07
-2.65331e-06
6.76258e-07
-2.80129e-06
6.86966e-07
-2.95523e-06
6.93968e-07
-3.11418e-06
6.96572e-07
-3.27681e-06
6.93913e-07
-3.44134e-06
6.84984e-07
-3.60551e-06
6.68689e-07
-3.76653e-06
6.43882e-07
-3.92117e-06
6.09473e-07
-4.06586e-06
5.64606e-07
-4.1969e-06
5.08827e-07
-4.31066e-06
4.42177e-07
-4.40376e-06
3.65252e-07
-4.47328e-06
2.79181e-07
-4.51682e-06
1.85596e-07
-4.5327e-06
8.67175e-08
-4.51945e-06
-1.47976e-08
-4.4788e-06
-1.17219e-07
-4.41136e-06
-2.16662e-07
-4.31881e-06
-3.10939e-07
-4.20342e-06
-3.98207e-07
-4.06776e-06
-4.77096e-07
-3.91466e-06
-5.46671e-07
-3.74707e-06
-6.06489e-07
-3.56786e-06
-6.56666e-07
-3.37972e-06
-6.97796e-07
-3.18494e-06
-7.30873e-07
-2.98528e-06
-7.57168e-07
-2.78199e-06
-7.77897e-07
-2.57598e-06
-7.93938e-07
-2.36795e-06
-8.05792e-07
-2.15863e-06
-8.13554e-07
-1.94898e-06
-8.16938e-07
-1.74019e-06
-8.15595e-07
-1.5336e-06
-8.09331e-07
-1.3306e-06
-7.98175e-07
-1.13245e-06
-7.82433e-07
-9.40218e-07
-7.62658e-07
-7.54686e-07
-7.39516e-07
-5.76375e-07
-7.13736e-07
-4.05546e-07
-6.86061e-07
-2.42252e-07
-6.57168e-07
-8.63776e-08
-6.27664e-07
6.21682e-08
-5.97962e-07
2.03582e-07
-5.6868e-07
3.38061e-07
-5.39717e-07
4.65762e-07
-5.11395e-07
5.86884e-07
-4.83935e-07
7.0166e-07
-4.57493e-07
8.10354e-07
-4.32177e-07
9.13253e-07
-4.08048e-07
1.01066e-06
-3.85128e-07
1.10288e-06
-3.63405e-07
1.1902e-06
-3.42843e-07
1.27291e-06
-3.2339e-07
1.35127e-06
-3.04987e-07
1.42553e-06
-2.87567e-07
1.49592e-06
-2.71067e-07
1.56264e-06
-2.55422e-07
1.62588e-06
-2.40574e-07
1.68583e-06
-2.2647e-07
1.74264e-06
-2.1306e-07
1.79648e-06
-2.00302e-07
1.84747e-06
-1.8816e-07
1.89577e-06
-1.76601e-07
1.94149e-06
-1.656e-07
1.98476e-06
-1.55131e-07
2.02569e-06
-1.45173e-07
2.06439e-06
-1.35707e-07
2.10095e-06
-1.26715e-07
2.13549e-06
-1.18179e-07
2.16808e-06
-1.1008e-07
2.19883e-06
-1.02403e-07
2.2278e-06
-9.51287e-08
2.25507e-06
-8.82412e-08
2.28073e-06
-8.17234e-08
2.30483e-06
-7.55586e-08
2.32744e-06
-6.97307e-08
2.34863e-06
-6.42239e-08
2.36846e-06
-5.90228e-08
2.38697e-06
-5.41125e-08
2.40422e-06
-4.94788e-08
2.42027e-06
-4.51075e-08
2.43517e-06
-4.09858e-08
2.44897e-06
-3.71009e-08
2.46171e-06
-3.34413e-08
2.47345e-06
-2.99983e-08
2.48423e-06
-2.67631e-08
2.49408e-06
-2.37246e-08
2.50307e-06
-2.08723e-08
2.51121e-06
-1.81971e-08
2.51857e-06
-1.56891e-08
2.52518e-06
-1.33391e-08
2.53107e-06
-1.11412e-08
2.53629e-06
-9.08656e-09
2.54087e-06
-7.16537e-09
2.54485e-06
-5.37099e-09
2.54827e-06
-3.69726e-09
2.55116e-06
-2.13511e-09
2.55355e-06
-6.79754e-10
2.55549e-06
6.67929e-10
2.55698e-06
1.9194e-09