/*--------------------------------*- C++ -*----------------------------------*\
  =========                 |
  \\      /  F ield         | OpenFOAM: The Open Source CFD Toolbox
   \\    /   O peration     | Website:  https://openfoam.org
    \\  /    A nd           | Version:  7
     \\/     M anipulation  |
\*---------------------------------------------------------------------------*/
FoamFile
{
    version     2.0;
    format      ascii;
    class       volVectorField;
    location    "0.027";
    object      UMean;
}
// * * * * * * * * * * * * * * * * * * * * * * * * * * * * * * * * * * * * * //

dimensions      [0 1 -1 0 0 0 0];

internalField   nonuniform List<vector> 
12225
(
(4.78495 0.164199 0)
(4.20431 0.110151 0)
(3.75908 0.0955892 0)
(3.41002 0.0779784 0)
(3.10499 0.0637399 0)
(2.83046 0.0528644 0)
(2.58832 0.0428872 0)
(2.3823 0.033854 0)
(2.21551 0.0243255 0)
(2.08406 0.0172049 0)
(1.99136 0.00815708 0)
(1.92433 0.00517233 0)
(1.89465 -0.00580658 0)
(1.87725 -0.000259273 0)
(1.89799 -0.0219073 0)
(1.92321 0.00331568 0)
(1.99278 -0.0561011 0)
(2.09002 0.00465651 0)
(5.0175 0.111331 0)
(4.88097 0.0700827 0)
(4.76992 0.0839732 0)
(4.68839 0.0811969 0)
(4.60816 0.0773058 0)
(4.52228 0.0746291 0)
(4.43233 0.071405 0)
(4.34534 0.0652681 0)
(4.26324 0.0582304 0)
(4.19277 0.04778 0)
(4.13038 0.0393959 0)
(4.08523 0.0259222 0)
(4.046 0.0194908 0)
(4.03098 0.00211024 0)
(4.01456 0.000443337 0)
(4.03596 -0.0270522 0)
(4.04635 -0.0309405 0)
(4.10902 -0.0941517 0)
(5.00124 0.171438 0)
(4.89067 0.12009 0)
(4.81669 0.125114 0)
(4.78968 0.116324 0)
(4.77992 0.105564 0)
(4.77233 0.0982429 0)
(4.76426 0.0912582 0)
(4.75606 0.0834785 0)
(4.74874 0.0726607 0)
(4.74223 0.0618947 0)
(4.73808 0.0474649 0)
(4.73575 0.0365136 0)
(4.73834 0.0191663 0)
(4.74408 0.010399 0)
(4.75851 -0.0124116 0)
(4.77762 -0.0223024 0)
(4.80882 -0.0604585 0)
(4.84211 -0.102547 0)
(4.9967 0.185281 0)
(4.90914 0.115202 0)
(4.83735 0.110874 0)
(4.80684 0.103441 0)
(4.79896 0.0928785 0)
(4.79842 0.0846754 0)
(4.80108 0.0782598 0)
(4.80693 0.0706104 0)
(4.81561 0.06162 0)
(4.82673 0.0502237 0)
(4.83956 0.0386206 0)
(4.85431 0.0246506 0)
(4.87119 0.0117607 0)
(4.89089 -0.00481888 0)
(4.915 -0.0207704 0)
(4.94261 -0.0441903 0)
(4.9768 -0.0747578 0)
(5.00841 -0.118659 0)
(4.99292 0.213798 0)
(4.9276 0.14002 0)
(4.86305 0.127556 0)
(4.83016 0.119019 0)
(4.82008 0.105786 0)
(4.81855 0.0939131 0)
(4.82063 0.0840399 0)
(4.82603 0.0744457 0)
(4.83496 0.0632158 0)
(4.84677 0.0509159 0)
(4.86099 0.0368187 0)
(4.87713 0.0224903 0)
(4.89565 0.00615758 0)
(4.9166 -0.0107614 0)
(4.94099 -0.0312285 0)
(4.96806 -0.0563178 0)
(4.99786 -0.0883754 0)
(5.02468 -0.135005 0)
(4.98857 0.22748 0)
(4.94203 0.152212 0)
(4.88646 0.130838 0)
(4.85324 0.11999 0)
(4.84139 0.10552 0)
(4.83934 0.0912455 0)
(4.84132 0.0792177 0)
(4.84643 0.0679874 0)
(4.85487 0.0560868 0)
(4.86613 0.0427758 0)
(4.87979 0.0282443 0)
(4.89524 0.0124061 0)
(4.91289 -0.00467183 0)
(4.93234 -0.0236815 0)
(4.95453 -0.0456581 0)
(4.97785 -0.0721865 0)
(5.00243 -0.105637 0)
(5.02316 -0.147827 0)
(4.99914 0.242543 0)
(4.96742 0.169119 0)
(4.92052 0.140283 0)
(4.88872 0.126077 0)
(4.87664 0.110365 0)
(4.8749 0.0942012 0)
(4.87684 0.0798152 0)
(4.88101 0.0667586 0)
(4.88797 0.0534632 0)
(4.89771 0.0390967 0)
(4.91002 0.0234645 0)
(4.92421 0.00653678 0)
(4.94047 -0.0118211 0)
(4.9581 -0.0323466 0)
(4.97771 -0.0555581 0)
(4.99737 -0.0832932 0)
(5.01741 -0.11603 0)
(5.03295 -0.155376 0)
(5.00097 0.252338 0)
(4.98175 0.183221 0)
(4.94448 0.148828 0)
(4.91539 0.130296 0)
(4.90294 0.113136 0)
(4.90102 0.0956205 0)
(4.90314 0.0794288 0)
(4.90724 0.064544 0)
(4.91366 0.0498069 0)
(4.92256 0.0341971 0)
(4.93386 0.0173683 0)
(4.94682 -0.000822925 0)
(4.96148 -0.0205212 0)
(4.97713 -0.0422944 0)
(4.99416 -0.0666899 0)
(5.01074 -0.0947678 0)
(5.02711 -0.126786 0)
(5.03926 -0.163438 0)
(5.00405 0.257614 0)
(4.99311 0.193129 0)
(4.96475 0.155346 0)
(4.93965 0.133108 0)
(4.92763 0.114417 0)
(4.9256 0.0956769 0)
(4.92807 0.0778206 0)
(4.93258 0.0612573 0)
(4.93901 0.0451865 0)
(4.94747 0.0285819 0)
(4.95794 0.0108852 0)
(4.9698 -0.00823578 0)
(4.98286 -0.0288784 0)
(4.99635 -0.0514948 0)
(5.01035 -0.0763987 0)
(5.02338 -0.104303 0)
(5.03559 -0.1352 0)
(5.04408 -0.169282 0)
(5.00018 0.267457 0)
(4.99641 0.206079 0)
(4.97506 0.165199 0)
(4.95389 0.138958 0)
(4.94299 0.118151 0)
(4.94103 0.0981588 0)
(4.94343 0.0787988 0)
(4.94769 0.0604974 0)
(4.95357 0.0428258 0)
(4.96124 0.0249401 0)
(4.97064 0.0062149 0)
(4.98116 -0.0137343 0)
(4.99247 -0.0351024 0)
(5.00388 -0.0582321 0)
(5.01531 -0.0833374 0)
(5.0256 -0.110822 0)
(5.03477 -0.140531 0)
(5.0408 -0.172408 0)
(4.99165 0.266072 0)
(4.99137 0.210397 0)
(4.97447 0.169302 0)
(4.95577 0.140381 0)
(4.94533 0.117433 0)
(4.94317 0.0962122 0)
(4.94554 0.0757771 0)
(4.94981 0.0562298 0)
(4.95536 0.037384 0)
(4.96225 0.0185215 0)
(4.97064 -0.000987166 0)
(4.98001 -0.0215676 0)
(4.99012 -0.043416 0)
(5.00007 -0.0667733 0)
(5.00991 -0.0917298 0)
(5.01825 -0.1185 0)
(5.02566 -0.146814 0)
(5.02977 -0.17656 0)
(5.01592 0.272705 0)
(5.0176 0.219171 0)
(5.00457 0.177231 0)
(4.98848 0.146005 0)
(4.97838 0.121018 0)
(4.97526 0.0985031 0)
(4.9765 0.0769841 0)
(4.97985 0.0562764 0)
(4.98452 0.0361741 0)
(4.99029 0.0161877 0)
(4.99721 -0.00420662 0)
(5.00479 -0.0254369 0)
(5.01283 -0.0476965 0)
(5.02052 -0.0711786 0)
(5.02791 -0.0958958 0)
(5.03378 -0.121954 0)
(5.03877 -0.149053 0)
(5.04092 -0.177083 0)
(4.99455 0.274705 0)
(5.00101 0.222928 0)
(4.99295 0.181067 0)
(4.98099 0.148304 0)
(4.97343 0.121401 0)
(4.97152 0.0973261 0)
(4.97334 0.0745457 0)
(4.97701 0.0527266 0)
(4.98176 0.0316933 0)
(4.98737 0.0110328 0)
(4.99388 -0.00980402 0)
(5.00089 -0.031272 0)
(5.00817 -0.0535834 0)
(5.01489 -0.0768966 0)
(5.02111 -0.10116 0)
(5.02577 -0.126404 0)
(5.02952 -0.15232 0)
(5.03071 -0.178839 0)
(5.01313 0.275721 0)
(5.01999 0.227919 0)
(5.01343 0.186136 0)
(5.00281 0.152035 0)
(4.99592 0.123775 0)
(4.99389 0.0987075 0)
(4.995 0.0751133 0)
(4.9977 0.0523197 0)
(5.00134 0.0301515 0)
(5.00568 0.00834887 0)
(5.01073 -0.0133856 0)
(5.01607 -0.0353809 0)
(5.02157 -0.0578176 0)
(5.02641 -0.0808514 0)
(5.03078 -0.104463 0)
(5.03359 -0.128692 0)
(5.0358 -0.153283 0)
(5.03559 -0.178196 0)
(5.01053 0.275614 0)
(5.02065 0.230174 0)
(5.01756 0.189033 0)
(5.0099 0.153776 0)
(5.00505 0.123609 0)
(5.0044 0.0968206 0)
(5.00655 0.0720122 0)
(5.00993 0.0484183 0)
(5.01377 0.025649 0)
(5.01775 0.0033984 0)
(5.0219 -0.0185944 0)
(5.02593 -0.0405926 0)
(5.02983 -0.0627457 0)
(5.03299 -0.0852239 0)
(5.03567 -0.108011 0)
(5.03695 -0.131195 0)
(5.03775 -0.154492 0)
(5.03641 -0.177965 0)
(5.01549 0.279001 0)
(5.02774 0.234936 0)
(5.02755 0.194494 0)
(5.02295 0.158489 0)
(5.0207 0.126685 0)
(5.0216 0.0981777 0)
(5.02419 0.0720099 0)
(5.02729 0.0474328 0)
(5.03049 0.0239603 0)
(5.03359 0.00123115 0)
(5.03667 -0.0210154 0)
(5.03951 -0.0430174 0)
(5.04213 -0.0648893 0)
(5.04403 -0.0867658 0)
(5.04544 -0.108601 0)
(5.04554 -0.130471 0)
(5.04516 -0.152147 0)
(5.04287 -0.173726 0)
(5.00778 0.269992 0)
(5.02034 0.229293 0)
(5.02207 0.189693 0)
(5.02039 0.15323 0)
(5.02075 0.120777 0)
(5.02342 0.091941 0)
(5.02703 0.0657716 0)
(5.03063 0.0413052 0)
(5.03398 0.0178943 0)
(5.03698 -0.00479376 0)
(5.03968 -0.0268754 0)
(5.04186 -0.0484694 0)
(5.04358 -0.0696368 0)
(5.04443 -0.0905341 0)
(5.04468 -0.11113 0)
(5.0437 -0.131549 0)
(5.04225 -0.151546 0)
(5.03916 -0.171333 0)
(5.01641 0.2772 0)
(5.02764 0.233523 0)
(5.02976 0.192438 0)
(5.02956 0.154957 0)
(5.03154 0.121432 0)
(5.03556 0.091486 0)
(5.04016 0.0644459 0)
(5.04435 0.0396078 0)
(5.04786 0.0163717 0)
(5.05064 -0.0057122 0)
(5.05279 -0.0269028 0)
(5.05421 -0.0473732 0)
(5.05497 -0.0671966 0)
(5.05477 -0.086485 0)
(5.05389 -0.105243 0)
(5.05182 -0.1236 0)
(5.04929 -0.141438 0)
(5.04527 -0.158955 0)
(5.00447 0.274242 0)
(5.02049 0.225739 0)
(5.02714 0.182362 0)
(5.03082 0.144138 0)
(5.03615 0.110375 0)
(5.04287 0.080354 0)
(5.04939 0.0533758 0)
(5.05483 0.0287455 0)
(5.0591 0.00589482 0)
(5.06228 -0.0155758 0)
(5.06454 -0.0358731 0)
(5.06577 -0.0551453 0)
(5.06606 -0.0734611 0)
(5.06522 -0.0909754 0)
(5.06355 -0.107727 0)
(5.06068 -0.123926 0)
(5.05729 -0.139475 0)
(5.05256 -0.15467 0)
(5.00191 0.270677 0)
(5.01876 0.219195 0)
(5.02822 0.173129 0)
(5.03564 0.133694 0)
(5.04459 0.100424 0)
(5.05417 0.0720681 0)
(5.06264 0.0472878 0)
(5.0693 0.0250722 0)
(5.07435 0.00477108 0)
(5.07808 -0.0140319 0)
(5.08075 -0.0316033 0)
(5.0823 -0.0481629 0)
(5.0828 -0.0638489 0)
(5.08208 -0.0788032 0)
(5.08045 -0.0930634 0)
(5.07761 -0.106754 0)
(5.07419 -0.119831 0)
(5.06945 -0.132482 0)
(5.0033 0.267604 0)
(5.02172 0.209692 0)
(5.03458 0.159985 0)
(5.04636 0.119194 0)
(5.05953 0.0856142 0)
(5.07262 0.0569994 0)
(5.08386 0.0317603 0)
(5.0926 0.00917534 0)
(5.09905 -0.0110149 0)
(5.10353 -0.0290753 0)
(5.10637 -0.0453729 0)
(5.10764 -0.0603219 0)
(5.10762 -0.0742017 0)
(5.10623 -0.0872509 0)
(5.10391 -0.0995429 0)
(5.10035 -0.111255 0)
(5.09627 -0.122327 0)
(5.09087 -0.133003 0)
(5.02208 0.265063 0)
(5.04573 0.198528 0)
(5.06592 0.145448 0)
(5.0845 0.105685 0)
(5.10202 0.075406 0)
(5.11692 0.0508954 0)
(5.12847 0.0299111 0)
(5.13723 0.0113509 0)
(5.14394 -0.00531223 0)
(5.14886 -0.020453 0)
(5.15207 -0.0343912 0)
(5.15352 -0.0473754 0)
(5.15347 -0.0595512 0)
(5.15193 -0.0710256 0)
(5.14932 -0.0818302 0)
(5.14548 -0.0920686 0)
(5.14108 -0.101756 0)
(5.13548 -0.111049 0)
(5.00839 0.256781 0)
(5.04168 0.179224 0)
(5.07337 0.12188 0)
(5.10161 0.0815209 0)
(5.12563 0.0512461 0)
(5.14444 0.0262027 0)
(5.15826 0.00467273 0)
(5.1683 -0.0135258 0)
(5.17562 -0.0287298 0)
(5.18065 -0.0417123 0)
(5.18357 -0.0532493 0)
(5.18449 -0.0638809 0)
(5.18377 -0.0738239 0)
(5.18158 -0.0831884 0)
(5.17839 -0.0919827 0)
(5.1741 -0.100332 0)
(5.16926 -0.108222 0)
(5.16337 -0.115858 0)
(5.00114 0.243371 0)
(5.04375 0.158681 0)
(5.08594 0.105772 0)
(5.12016 0.0746567 0)
(5.14589 0.0524493 0)
(5.16517 0.0325596 0)
(5.18055 0.0143858 0)
(5.19342 -0.00135922 0)
(5.20381 -0.0146199 0)
(5.21134 -0.0260295 0)
(5.21606 -0.0363004 0)
(5.21826 -0.0458444 0)
(5.21854 -0.0547964 0)
(5.21711 -0.063223 0)
(5.2145 -0.0711845 0)
(5.21056 -0.0787723 0)
(5.20598 -0.0860156 0)
(5.20018 -0.0929845 0)
(5.02189 0.225632 0)
(5.07976 0.122062 0)
(5.13983 0.0648915 0)
(5.18396 0.0340042 0)
(5.21202 0.0114243 0)
(5.23051 -0.00819346 0)
(5.24474 -0.0240084 0)
(5.25648 -0.0359013 0)
(5.26574 -0.0451956 0)
(5.27221 -0.0532448 0)
(5.27611 -0.0606934 0)
(5.27786 -0.0676955 0)
(5.278 -0.0742524 0)
(5.27664 -0.0804334 0)
(5.27414 -0.0862897 0)
(5.2703 -0.0919396 0)
(5.26572 -0.0973648 0)
(5.25985 -0.102684 0)
(5.01854 0.21041 0)
(5.10024 0.108792 0)
(5.17877 0.0710438 0)
(5.22951 0.0524243 0)
(5.25869 0.0321733 0)
(5.27891 0.0121381 0)
(5.29616 -0.00377921 0)
(5.31056 -0.0152557 0)
(5.32112 -0.0241644 0)
(5.32782 -0.032017 0)
(5.33147 -0.0393113 0)
(5.33278 -0.0460947 0)
(5.33238 -0.0523681 0)
(5.3304 -0.0582224 0)
(5.32723 -0.06374 0)
(5.32279 -0.0690157 0)
(5.31763 -0.0740675 0)
(5.31139 -0.0789564 0)
(5.01467 0.15758 0)
(5.133 0.0322748 0)
(5.22914 0.0031234 0)
(5.27978 -0.00802695 0)
(5.30572 -0.0233135 0)
(5.32572 -0.036666 0)
(5.34427 -0.0454909 0)
(5.35974 -0.0515181 0)
(5.37071 -0.0566078 0)
(5.37749 -0.061427 0)
(5.3812 -0.065965 0)
(5.38268 -0.0701634 0)
(5.38249 -0.074047 0)
(5.38077 -0.0777456 0)
(5.37785 -0.0813233 0)
(5.3736 -0.0848812 0)
(5.36858 -0.0883896 0)
(5.36237 -0.0919264 0)
(5.01383 0.150897 0)
(5.18118 0.0552147 0)
(5.30188 0.0406775 0)
(5.3562 0.0229809 0)
(5.38313 0.00280809 0)
(5.40552 -0.0114148 0)
(5.42571 -0.0199711 0)
(5.44158 -0.0261305 0)
(5.45236 -0.0316125 0)
(5.45877 -0.0367745 0)
(5.46185 -0.0415607 0)
(5.46232 -0.0460031 0)
(5.46064 -0.0501276 0)
(5.45705 -0.0540431 0)
(5.4518 -0.0577303 0)
(5.44501 -0.0613129 0)
(5.43699 -0.0647304 0)
(5.42772 -0.0681482 0)
(5.01709 0.0202522 0)
(5.23395 -0.0517262 0)
(5.35697 -0.0356865 0)
(5.40417 -0.044686 0)
(5.42761 -0.0550341 0)
(5.44469 -0.0598297 0)
(5.45554 -0.0619181 0)
(5.45846 -0.063659 0)
(5.45358 -0.0654674 0)
(5.44225 -0.0671646 0)
(5.42571 -0.068645 0)
(5.40508 -0.0699837 0)
(5.38081 -0.0712351 0)
(5.35367 -0.0725019 0)
(5.32367 -0.073753 0)
(5.29184 -0.0750868 0)
(5.25754 -0.0764162 0)
(5.22255 -0.0779041 0)
(4.96978 0.0680866 0)
(5.10945 -0.00143349 0)
(5.07802 -0.0019246 0)
(4.95787 -0.0123002 0)
(4.82488 -0.0199267 0)
(4.69597 -0.0228884 0)
(4.57064 -0.0239931 0)
(4.44667 -0.0247275 0)
(4.32356 -0.025327 0)
(4.20211 -0.0257529 0)
(4.08318 -0.0260089 0)
(3.96746 -0.0261468 0)
(3.85493 -0.0262094 0)
(3.74587 -0.0262442 0)
(3.63962 -0.0262515 0)
(3.53692 -0.0262786 0)
(3.43622 -0.0262899 0)
(3.3397 -0.0263914 0)
(-0.00346647 -0.00197338 3.82258e-21)
(-0.0132588 -0.00431672 -3.79853e-21)
(-0.0219133 -0.00351304 0)
(-0.0327031 -0.00166154 0)
(-0.0451345 0.000624184 0)
(-0.0597137 0.00326222 3.69199e-21)
(-0.0764339 0.00614708 0)
(-0.095423 0.00913924 0)
(-0.116675 0.0121306 0)
(-0.140197 0.0150465 0)
(-0.165975 0.0178654 -3.55678e-21)
(-0.19398 0.0205994 0)
(-0.224181 0.0232701 0)
(-0.256547 0.0259138 0)
(-0.291033 0.0285569 0)
(-0.327576 0.0311954 -3.42062e-21)
(-0.36607 0.0338156 0)
(-0.406355 0.0363563 0)
(-0.448229 0.0387262 0)
(-0.491401 0.0408222 0)
(-0.535529 0.0425001 0)
(-0.580202 0.0436662 0)
(-0.624878 0.044235 0)
(-0.668995 0.0441616 -3.20218e-21)
(-0.711925 0.0434014 3.17487e-21)
(-0.753039 0.04195 -3.14766e-21)
(-0.791732 0.0398347 -3.12063e-21)
(-0.827402 0.037099 0)
(-0.859495 0.0337915 0)
(-0.887475 0.0299907 3.04177e-21)
(-0.910832 0.0257381 3.01671e-21)
(-0.929116 0.0211093 0)
(-0.941878 0.0161714 0)
(-0.948743 0.0109773 2.94755e-21)
(-0.949391 0.0056022 0)
(-0.943535 0.000107076 0)
(-0.93097 -0.00543203 -2.89091e-21)
(-0.911558 -0.0109498 0)
(-0.885241 -0.0163699 -2.86186e-21)
(-0.852045 -0.0216222 -5.70026e-21)
(-0.812091 -0.0266372 0)
(-0.765597 -0.0313512 0)
(-0.712857 -0.0357039 0)
(-0.654231 -0.0396387 0)
(-0.590163 -0.0431203 0)
(-0.521178 -0.0461256 -5.62876e-21)
(-0.447892 -0.0486737 -5.62502e-21)
(-0.370798 -0.0507625 -5.62231e-21)
(-0.290501 -0.0524134 0)
(-0.207565 -0.0536224 5.61767e-21)
(-0.122532 -0.0544135 0)
(-0.0359804 -0.0548094 -5.61067e-21)
(0.0515617 -0.0548271 -5.60515e-21)
(0.139579 -0.0544926 0)
(0.227557 -0.0538248 0)
(0.315025 -0.0528626 0)
(0.401572 -0.0516187 -5.56178e-21)
(0.486784 -0.0501646 0)
(0.570293 -0.0484997 0)
(0.65181 -0.0466757 0)
(0.731069 -0.04471 0)
(0.80784 -0.0426617 0)
(0.881942 -0.0405411 0)
(0.953255 -0.0383851 0)
(1.02166 -0.0362061 0)
(1.0871 -0.0340461 5.31478e-21)
(1.14953 -0.0319091 0)
(1.20896 -0.0298172 0)
(1.2654 -0.0277868 -5.19513e-21)
(1.31889 -0.0258227 -5.15261e-21)
(1.36949 -0.0239377 0)
(1.41728 -0.0221343 5.06461e-21)
(1.46234 -0.0204187 -5.01945e-21)
(1.50479 -0.0187874 0)
(1.54471 -0.0172449 4.92748e-21)
(1.58222 -0.0157907 0)
(1.61739 -0.0144235 0)
(1.65034 -0.0131412 -4.78707e-21)
(1.68118 -0.0119411 0)
(1.70999 -0.0108203 4.69283e-21)
(1.73688 -0.00977557 0)
(1.76195 -0.00880354 -4.59868e-21)
(1.78528 -0.00790091 -4.55177e-21)
(1.80697 -0.00706433 -4.505e-21)
(1.82711 -0.00629055 -8.91684e-21)
(1.84577 -0.00557636 8.82411e-21)
(1.86305 -0.00491869 0)
(1.87901 -0.00431449 0)
(1.89373 -0.0037609 0)
(1.90729 -0.00325507 8.45824e-21)
(1.91976 -0.00279425 8.36818e-21)
(1.93119 -0.00237572 -8.27873e-21)
(1.94166 -0.00199683 0)
(1.95123 -0.00165486 8.10172e-21)
(1.95996 -0.00134716 8.01417e-21)
(1.9679 -0.00107121 7.92726e-21)
(1.97511 -0.000824632 0)
(1.98163 -0.000605142 0)
(1.98752 -0.000410521 0)
(1.99283 -0.000238615 7.58616e-21)
(1.99759 -8.73433e-05 0)
(2.00185 4.52989e-05 0)
(2.00564 0.000161207 -7.33715e-21)
(2.00901 0.000262234 0)
(2.01198 0.000350065 0)
(2.01459 0.000426356 -7.0939e-21)
(2.01686 0.000492587 0)
(2.01883 0.000550016 0)
(2.02051 0.000600114 6.85626e-21)
(2.02193 0.000643718 6.77827e-21)
(2.0231 0.000681893 0)
(2.02405 0.00071539 -6.62407e-21)
(2.0248 0.000743452 0)
(2.02535 0.000765441 6.47221e-21)
(2.02574 0.000781683 0)
(2.02597 0.000792926 6.32264e-21)
(2.02606 0.000799737 6.2487e-21)
(2.02603 0.000802632 0)
(2.02588 0.000802161 0)
(2.02564 0.000798661 0)
(2.0253 0.000792304 0)
(2.02488 0.00078369 0)
(2.02438 0.000773665 0)
(2.02382 0.000762636 0)
(2.0232 0.000750753 5.67652e-21)
(2.02252 0.00073814 -5.60732e-21)
(2.0218 0.000724925 0)
(2.02103 0.0007112 0)
(2.02023 0.000697073 0)
(2.01939 0.000682725 0)
(2.01853 0.000668443 -1.05374e-20)
(2.01764 0.000654572 0)
(2.01672 0.000641441 1.02731e-20)
(2.01578 0.000629279 -1.01424e-20)
(2.01482 0.000618186 0)
(2.01383 0.000608126 0)
(2.01283 0.000598989 0)
(2.01181 0.000590641 9.6283e-21)
(2.01077 0.000582964 9.50197e-21)
(2.0097 0.000575895 0)
(2.00862 0.000569393 9.25188e-21)
(2.00752 0.000563463 9.1281e-21)
(2.0064 0.000558102 -9.00514e-21)
(2.00527 0.000553323 0)
(2.00411 0.000549118 0)
(2.00293 0.000545491 -8.64114e-21)
(2.00174 0.000542432 0)
(2.00053 0.00053995 0)
(1.9993 0.000538049 0)
(1.99805 0.000536758 0)
(1.99677 0.000536109 8.05024e-21)
(1.99548 0.000536164 7.93435e-21)
(1.99416 0.000536992 0)
(1.99282 0.000538717 7.7048e-21)
(1.99145 0.000541447 0)
(1.99004 0.000545422 0)
(1.98861 0.00055079 7.36595e-21)
(1.98713 0.000558021 0)
(1.9856 0.000567263 7.14365e-21)
(1.98403 0.000579439 0)
(1.98238 0.00059461 0)
(1.98066 0.000614558 6.81553e-21)
(1.97884 0.000639143 0)
(1.97692 0.000671547 6.60037e-21)
(1.97482 0.000711752 0)
(1.9726 0.000764186 0)
(1.97005 0.000832174 0)
(1.96738 0.000915911 -6.17905e-21)
(1.96406 0.00103874 0)
(1.96065 0.00116615 5.97343e-21)
(1.95599 0.00141317 0)
(1.95131 0.00158049 0)
(1.9443 0.00215506 0)
(1.93703 0.00226557 0)
(1.92603 0.00383036 0)
(1.9121 0.00339476 0)
(1.89513 0.00836772 0)
(1.85927 0.00556694 -1.04305e-20)
(1.83606 0.0252711 0)
(1.71133 0.0198724 0)
(-0.0114301 0.03953 -1.1473e-20)
(-0.045781 0.0440045 1.14008e-20)
(-0.0777819 0.0463291 0)
(-0.111552 0.0515 -7.49385e-21)
(-0.145882 0.0570118 0)
(-0.181101 0.0626679 -3.69431e-21)
(-0.217011 0.0682988 7.33266e-21)
(-0.253672 0.0738507 7.2785e-21)
(-0.29106 0.0792907 0)
(-0.329201 0.0845872 7.16964e-21)
(-0.368086 0.0897292 3.55902e-21)
(-0.407706 0.0946894 0)
(-0.448019 0.0994287 0)
(-0.488932 0.103896 0)
(-0.530344 0.108008 0)
(-0.572086 0.111664 3.42278e-21)
(-0.613944 0.114738 0)
(-0.655682 0.117087 -6.72875e-21)
(-0.696984 0.118547 0)
(-0.737539 0.118988 0)
(-0.777006 0.118259 6.56148e-21)
(-0.815041 0.116275 0)
(-0.851282 0.112968 -6.44955e-21)
(-0.885395 0.108315 3.20406e-21)
(-0.917056 0.102323 -3.17671e-21)
(-0.945913 0.0950391 3.14944e-21)
(-0.971635 0.0865275 3.12236e-21)
(-0.993888 0.076867 0)
(-1.01232 0.066139 0)
(-1.0266 0.0544455 -3.04335e-21)
(-1.03641 0.0418708 2.99715e-21)
(-1.04142 0.0285157 0)
(-1.04132 0.0144854 0)
(-1.03583 -0.000107566 -2.9489e-21)
(-1.02468 -0.0151372 0)
(-1.00764 -0.0304613 0)
(-0.984522 -0.045926 2.8921e-21)
(-0.955204 -0.0613597 0)
(-0.919603 -0.0765818 -2.8409e-21)
(-0.877713 -0.0914043 5.70231e-21)
(-0.829599 -0.105641 0)
(-0.775416 -0.11911 0)
(-0.715397 -0.131645 1.1269e-20)
(-0.649856 -0.143093 1.12514e-20)
(-0.579179 -0.15334 1.1239e-20)
(-0.503792 -0.162293 -5.60052e-21)
(-0.424115 -0.169911 5.62652e-21)
(-0.34071 -0.176168 1.68465e-20)
(-0.254119 -0.181095 -1.12204e-20)
(-0.164921 -0.184701 -5.61897e-21)
(-0.0736731 -0.187053 0)
(0.01906 -0.188192 5.61186e-21)
(0.11276 -0.188202 -5.59193e-21)
(0.206921 -0.187143 0)
(0.301023 -0.185091 0)
(0.394602 -0.182142 0)
(0.48723 -0.178368 5.56269e-21)
(0.578503 -0.173907 0)
(0.668095 -0.168829 -1.10442e-20)
(0.755701 -0.163255 0)
(0.841052 -0.157278 -1.09498e-20)
(0.923923 -0.151 0)
(1.00417 -0.14451 1.08345e-20)
(1.08167 -0.137892 0)
(1.15631 -0.131211 -1.07007e-20)
(1.22801 -0.124552 5.31231e-21)
(1.29678 -0.117948 0)
(1.3626 -0.111474 1.04714e-20)
(1.42549 -0.10515 5.19564e-21)
(1.48551 -0.0990215 5.1531e-21)
(1.5427 -0.0931004 0)
(1.59714 -0.0874128 5.06313e-21)
(1.64893 -0.0819676 5.01986e-21)
(1.69817 -0.076765 0)
(1.74493 -0.0718119 -4.92785e-21)
(1.78932 -0.0671074 9.76103e-21)
(1.83144 -0.0626477 0)
(1.87136 -0.0584271 4.78739e-21)
(1.9092 -0.054438 0)
(1.94504 -0.0506722 -1.40782e-20)
(1.97897 -0.0471208 0)
(2.01108 -0.0437747 1.37958e-20)
(2.04145 -0.0406247 4.55202e-21)
(2.07016 -0.0376618 -4.50435e-21)
(2.0973 -0.0348772 -8.91565e-21)
(2.12292 -0.0322622 8.823e-21)
(2.14711 -0.0298089 0)
(2.16993 -0.0275093 0)
(2.19144 -0.0253559 0)
(2.21171 -0.0233418 -2.53746e-20)
(2.2308 -0.02146 -8.36853e-21)
(2.24876 -0.019704 8.27906e-21)
(2.26565 -0.0180675 0)
(2.28152 -0.0165444 8.10114e-21)
(2.29642 -0.0151289 -8.01446e-21)
(2.31041 -0.0138151 -7.92755e-21)
(2.32352 -0.0125976 0)
(2.3358 -0.0114708 0)
(2.34731 -0.0104295 0)
(2.35807 -0.00946859 -7.58643e-21)
(2.36813 -0.00858316 0)
(2.37754 -0.00776834 1.4839e-20)
(2.38631 -0.00701945 2.20118e-20)
(2.3945 -0.00633195 -1.4511e-20)
(2.40214 -0.00570147 0)
(2.40925 -0.00512373 -7.09378e-21)
(2.41587 -0.00459468 0)
(2.42203 -0.00411056 -1.38699e-20)
(2.42776 -0.00366769 6.85621e-21)
(2.43309 -0.00326288 6.77823e-21)
(2.43804 -0.00289324 0)
(2.44264 -0.00255615 1.98726e-20)
(2.44691 -0.00225003 -1.30959e-20)
(2.45087 -0.00197313 -6.47242e-21)
(2.45454 -0.00172308 0)
(2.45794 -0.00149733 -6.32285e-21)
(2.46108 -0.00129361 -1.87466e-20)
(2.46398 -0.00110981 0)
(2.46666 -0.000944051 -1.22052e-20)
(2.46913 -0.000794622 -1.20606e-20)
(2.4714 -0.000659786 -1.19171e-20)
(2.47349 -0.000538183 0)
(2.4754 -0.000429084 0)
(2.47716 -0.000331567 0)
(2.47877 -0.000244631 5.67663e-21)
(2.48024 -0.000167304 5.60751e-21)
(2.48159 -9.87271e-05 0)
(2.48282 -3.81042e-05 1.09411e-20)
(2.48393 1.53948e-05 1.08057e-20)
(2.48495 6.25601e-05 0)
(2.48587 0.000104178 1.05377e-20)
(2.48671 0.000141049 2.08101e-20)
(2.48746 0.000173956 -1.02734e-20)
(2.48814 0.000203603 -1.01426e-20)
(2.48875 0.000230602 0)
(2.4893 0.000255423 0)
(2.48978 0.000278408 0)
(2.49021 0.000299772 -9.62861e-21)
(2.49059 0.000319635 9.50223e-21)
(2.49091 0.000338092 1.87536e-20)
(2.49119 0.000355201 -9.25219e-21)
(2.49142 0.000371062 9.12835e-21)
(2.49162 0.000385768 9.00544e-21)
(2.49177 0.000399452 0)
(2.49188 0.000412238 0)
(2.49196 0.000424281 -8.64138e-21)
(2.49201 0.000435728 0)
(2.49203 0.000446758 0)
(2.49202 0.000457545 1.65691e-20)
(2.49198 0.000468303 0)
(2.49191 0.000479249 8.05046e-21)
(2.49182 0.000490658 -7.93461e-21)
(2.49171 0.000502825 0)
(2.49156 0.000516138 7.705e-21)
(2.49139 0.000531014 0)
(2.4912 0.000548034 0)
(2.49097 0.000567827 -7.36619e-21)
(2.49071 0.00059129 1.45093e-20)
(2.49042 0.00061943 -7.14388e-21)
(2.49009 0.000653594 0)
(2.4897 0.000695622 0)
(2.48926 0.000747223 6.81565e-21)
(2.48875 0.000812468 0)
(2.48816 0.000892136 6.60044e-21)
(2.48745 0.000997212 0)
(2.48662 0.00112131 0)
(2.48561 0.00129815 0)
(2.48438 0.00149017 6.17924e-21)
(2.48288 0.00180665 0)
(2.481 0.00209415 -5.9736e-21)
(2.47868 0.00271065 0)
(2.47558 0.00310209 0)
(2.47193 0.00443738 1.13455e-20)
(2.46641 0.00483432 -1.11507e-20)
(2.46054 0.00809248 0)
(2.44964 0.00804081 0)
(2.44013 0.0171582 0)
(2.41607 0.0157913 3.12732e-20)
(2.40186 0.046776 0)
(2.34907 0.0491127 -2.02013e-20)
(-0.0149147 0.11837 6.67529e-24)
(-0.0598548 0.132627 -1.5201e-20)
(-0.10097 0.133327 0)
(-0.143426 0.138031 1.49889e-20)
(-0.185354 0.142659 0)
(-0.227344 0.147439 0)
(-0.269189 0.152315 -6.63031e-24)
(-0.311027 0.15725 -7.28232e-21)
(-0.35285 0.162177 -7.22099e-21)
(-0.394673 0.167017 -7.17339e-21)
(-0.43646 0.1717 0)
(-0.478164 0.176131 0)
(-0.519701 0.180213 7.00022e-21)
(-0.560965 0.183817 1.38888e-20)
(-0.601822 0.186794 -1.37767e-20)
(-0.642128 0.189001 0)
(-0.68173 0.190264 -1.35509e-20)
(-0.720463 0.190439 6.732e-21)
(-0.758136 0.189368 0)
(-0.794578 0.1869 -1.32085e-20)
(-0.82964 0.18293 -6.56447e-21)
(-0.863164 0.177351 1.29782e-20)
(-0.894974 0.170116 6.45234e-21)
(-0.924917 0.161176 0)
(-0.952814 0.150544 -1.2632e-20)
(-0.978439 0.138255 -1.25173e-20)
(-1.00155 0.124351 0)
(-1.02186 0.108887 -1.22913e-20)
(-1.039 0.0919331 0)
(-1.05263 0.073548 -1.20731e-20)
(-1.06233 0.053827 -6.01741e-21)
(-1.06769 0.0328654 0)
(-1.06825 0.0107758 0)
(-1.06361 -0.0122886 0)
(-1.05336 -0.0361533 0)
(-1.03713 -0.0606021 0)
(-1.01463 -0.0853961 0)
(-0.985595 -0.110254 -1.13903e-20)
(-0.949894 -0.134881 1.70426e-20)
(-0.907469 -0.158964 0)
(-0.858376 -0.182186 0)
(-0.802785 -0.204233 0)
(-0.740974 -0.224814 -6.31438e-23)
(-0.673318 -0.243655 -1.12534e-20)
(-0.600271 -0.26054 -2.24265e-20)
(-0.522363 -0.275305 2.24142e-20)
(-0.440179 -0.287844 1.11807e-20)
(-0.354333 -0.298113 -1.12243e-20)
(-0.265441 -0.306139 3.85297e-23)
(-0.174102 -0.311974 -1.11845e-20)
(-0.0808845 -0.315708 0)
(0.0136368 -0.317433 -1.11809e-20)
(0.108926 -0.317267 2.47904e-23)
(0.204494 -0.315326 0)
(0.299806 -0.31175 0)
(0.394399 -0.306674 1.11281e-20)
(0.487842 -0.300262 0)
(0.579735 -0.292678 0)
(0.669758 -0.284104 -1.10211e-20)
(0.757607 -0.274719 -2.19796e-20)
(0.843058 -0.264699 1.09503e-20)
(0.925901 -0.254194 0)
(1.00599 -0.243347 -1.08349e-20)
(1.08325 -0.232314 0)
(1.15756 -0.221212 -1.06892e-20)
(1.22891 -0.210145 -1.06279e-20)
(1.29728 -0.199207 2.1093e-20)
(1.36268 -0.18849 1.04627e-20)
(1.42516 -0.178041 0)
(1.48478 -0.167926 -2.06007e-20)
(1.5416 -0.158172 0)
(1.5957 -0.148814 -3.03783e-20)
(1.6472 -0.139861 -2.00698e-20)
(1.69619 -0.131322 -1.98873e-20)
(1.74277 -0.123201 1.97029e-20)
(1.78704 -0.115493 -2.92782e-20)
(1.82909 -0.10819 0)
(1.86903 -0.101282 0)
(1.90695 -0.0947535 1.89545e-20)
(1.94294 -0.0885907 2.81515e-20)
(1.9771 -0.0827773 0)
(2.0095 -0.0772973 -9.19692e-21)
(2.04024 -0.0721346 0)
(2.06939 -0.0672735 2.70259e-20)
(2.09703 -0.0626988 2.75838e-24)
(2.12322 -0.0583958 -2.56197e-24)
(2.14804 -0.0543506 -1.74607e-20)
(2.17154 -0.0505497 0)
(2.1938 -0.0469806 1.70952e-20)
(2.21487 -0.0436313 1.89239e-24)
(2.23481 -0.0404904 0)
(2.25366 -0.0375471 0)
(2.27149 -0.0347912 0)
(2.28833 -0.0322129 -1.62031e-20)
(2.30424 -0.0298029 0)
(2.31925 -0.027552 0)
(2.33342 -0.0254516 0)
(2.34678 -0.0234933 0)
(2.35937 -0.0216691 0)
(2.37122 -0.0199712 -1.51714e-20)
(2.38238 -0.0183923 0)
(2.39288 -0.0169252 -1.4839e-20)
(2.40274 -0.0155631 -1.46743e-20)
(2.412 -0.0142994 1.45109e-20)
(2.4207 -0.0131281 0)
(2.42885 -0.012043 1.41879e-20)
(2.43649 -0.0110385 0)
(2.44365 -0.0101093 1.38699e-20)
(2.45034 -0.00925024 -1.37127e-20)
(2.4566 -0.00845669 -4.06694e-20)
(2.46245 -0.00772434 0)
(2.46791 -0.00704926 -3.97444e-20)
(2.47301 -0.0064274 -1.30954e-20)
(2.47776 -0.00585499 0)
(2.48218 -0.0053283 -2.55886e-20)
(2.4863 -0.00484385 -2.52906e-20)
(2.49013 -0.00439845 3.74926e-20)
(2.49369 -0.00398918 0)
(2.497 -0.00361339 1.22052e-20)
(2.50007 -0.00326859 1.20606e-20)
(2.50292 -0.00295236 3.57509e-20)
(2.50556 -0.00266267 0)
(2.50801 -0.00239797 0)
(2.51028 -0.00215651 0)
(2.51238 -0.00193641 1.13531e-20)
(2.51432 -0.00173604 0)
(2.51611 -0.00155393 0)
(2.51776 -0.00138862 -1.09411e-20)
(2.51929 -0.00123867 -1.08057e-20)
(2.52069 -0.00110263 0)
(2.52198 -0.000979089 0)
(2.52317 -0.000866692 -2.08101e-20)
(2.52426 -0.000764146 0)
(2.52527 -0.000670297 2.02853e-20)
(2.52619 -0.000584135 2.00255e-20)
(2.52703 -0.000504793 0)
(2.5278 -0.000431529 0)
(2.52851 -0.000363725 -1.92571e-20)
(2.52916 -0.000300869 -5.54535e-26)
(2.52976 -0.000242548 -5.20119e-26)
(2.5303 -0.000188432 0)
(2.53079 -0.000138235 -3.65134e-20)
(2.53124 -9.17172e-05 0)
(2.53165 -4.86294e-05 0)
(2.53202 -8.72073e-06 0)
(2.53235 2.82998e-05 1.72828e-20)
(2.53265 6.27452e-05 0)
(2.53293 9.49719e-05 -3.36107e-20)
(2.53317 0.000125359 -1.6569e-20)
(2.53338 0.000154322 0)
(2.53357 0.000182313 -1.61009e-20)
(2.53374 0.000209827 0)
(2.53388 0.000237431 0)
(2.534 0.000265749 -4.62299e-20)
(2.53409 0.000295569 3.03652e-20)
(2.53416 0.000327717 0)
(2.53421 0.000363405 2.94645e-20)
(2.53422 0.000403719 -1.45093e-20)
(2.53421 0.000450753 0)
(2.53415 0.000505748 0)
(2.53406 0.000572804 0)
(2.53392 0.000652535 -4.08938e-20)
(2.53372 0.000754046 0)
(2.53344 0.000874188 -1.3201e-20)
(2.53308 0.00103548 0)
(2.53259 0.00122027 0)
(2.53198 0.00148868 0)
(2.53113 0.00177461 0)
(2.53012 0.00224565 0)
(2.52867 0.00268451 0)
(2.527 0.00356733 -2.34861e-20)
(2.52447 0.0042227 0)
(2.52171 0.00601418 -1.13455e-20)
(2.51716 0.00695065 3.34478e-20)
(2.5125 0.0109445 0)
(2.50404 0.0123165 0)
(2.49601 0.0223304 -2.11736e-20)
(2.48037 0.025597 -2.08427e-20)
(2.46738 0.0541644 2.04802e-20)
(2.44423 0.0675136 2.02026e-20)
(-0.0153255 0.200848 2.29224e-20)
(-0.0623366 0.22542 2.27788e-20)
(-0.105173 0.224298 1.50722e-20)
(-0.149545 0.228243 7.47093e-21)
(-0.19317 0.23183 0)
(-0.236786 0.235581 -1.47516e-20)
(-0.280065 0.239428 7.30953e-21)
(-0.323124 0.243312 0)
(-0.36591 0.247136 7.2249e-21)
(-0.408426 0.250812 0)
(-0.45063 0.254236 -1.42035e-20)
(-0.492489 0.257289 0)
(-0.53393 0.259838 -7.00395e-21)
(-0.574889 0.261753 -1.38962e-20)
(-0.615286 0.262866 1.37839e-20)
(-0.655042 0.263027 0)
(-0.694059 0.262077 1.35578e-20)
(-0.73225 0.259862 0)
(-0.769554 0.256249 0)
(-0.805879 0.251095 1.32149e-20)
(-0.841158 0.244293 0)
(-0.875319 0.235737 -5.34141e-23)
(-0.908245 0.225337 0)
(-0.939788 0.213012 0)
(-0.96971 0.198683 6.64482e-23)
(-0.997723 0.18229 1.25226e-20)
(-1.0235 0.163787 1.23329e-20)
(-1.04661 0.143149 1.22962e-20)
(-1.06661 0.120368 0)
(-1.08302 0.0954786 2.40659e-20)
(-1.09531 0.0685394 0)
(-1.10297 0.0396642 1.17745e-20)
(-1.10549 0.00900826 0)
(-1.10235 -0.0232257 0)
(-1.09309 -0.0567708 -1.1495e-20)
(-1.07728 -0.0913156 0)
(-1.05457 -0.126494 1.13459e-20)
(-1.0247 -0.161893 1.08947e-22)
(-0.987534 -0.197056 -2.25731e-20)
(-0.943029 -0.231489 2.23806e-20)
(-0.891279 -0.264693 0)
(-0.832514 -0.296161 0)
(-0.767083 -0.325425 1.10247e-20)
(-0.69546 -0.352074 0)
(-0.618252 -0.375789 1.11877e-20)
(-0.536133 -0.396377 -1.11835e-20)
(-0.449806 -0.41372 -1.11825e-20)
(-0.359971 -0.427793 0)
(-0.26732 -0.438632 1.1185e-20)
(-0.172478 -0.446348 1.11859e-20)
(-0.0760264 -0.451088 -2.22808e-20)
(0.0214668 -0.453007 1.11822e-20)
(0.119477 -0.452272 1.11756e-20)
(0.217494 -0.44906 0)
(0.314989 -0.443561 0)
(0.411477 -0.435958 -1.1129e-20)
(0.506497 -0.426503 0)
(0.599635 -0.415423 0)
(0.690564 -0.402992 2.20672e-20)
(0.779009 -0.389468 2.19807e-20)
(0.864769 -0.375088 0)
(0.947679 -0.360089 0)
(1.02761 -0.344668 0)
(1.10451 -0.329014 0)