/*--------------------------------*- C++ -*----------------------------------*\
  =========                 |
  \\      /  F ield         | OpenFOAM: The Open Source CFD Toolbox
   \\    /   O peration     | Website:  https://openfoam.org
    \\  /    A nd           | Version:  7
     \\/     M anipulation  |
\*---------------------------------------------------------------------------*/
FoamFile
{
    version     2.0;
    format      ascii;
    class       surfaceScalarField;
    location    "0.011";
    object      phi_0;
}
// * * * * * * * * * * * * * * * * * * * * * * * * * * * * * * * * * * * * * //

dimensions      [0 3 -1 0 0 0 0];

internalField   nonuniform List<scalar> 
24170
(
1.40378e-06
1.46605e-07
1.26965e-06
1.34127e-07
1.12581e-06
1.43837e-07
9.97992e-07
1.27822e-07
8.88666e-07
1.09326e-07
7.96301e-07
9.23648e-08
7.18007e-07
7.82941e-08
6.50214e-07
6.77928e-08
5.91649e-07
5.8565e-08
5.43639e-07
4.80103e-08
5.08297e-07
3.53417e-08
4.85111e-07
2.31863e-08
4.72884e-07
1.22264e-08
4.66666e-07
6.21843e-09
4.65444e-07
1.22225e-09
4.64742e-07
7.01468e-10
4.64236e-07
5.06215e-10
7.6342e-09
4.56602e-07
1.65913e-06
1.97895e-07
1.63623e-06
1.57032e-07
1.59767e-06
1.82395e-07
1.55788e-06
1.67615e-07
1.5199e-06
1.47304e-07
1.48189e-06
1.30376e-07
1.44607e-06
1.14114e-07
1.41518e-06
9.86838e-08
1.38961e-06
8.41295e-08
1.3683e-06
6.93227e-08
1.35029e-06
5.33517e-08
1.3345e-06
3.89796e-08
1.3191e-06
2.76182e-08
1.30403e-06
2.12964e-08
1.28857e-06
1.66742e-08
1.275e-06
1.42726e-08
1.26245e-06
1.30558e-08
1.40362e-08
1.25605e-06
1.76245e-06
2.7466e-07
1.76068e-06
1.58796e-07
1.7575e-06
1.85579e-07
1.74593e-06
1.79184e-07
1.73079e-06
1.62448e-07
1.71555e-06
1.45618e-07
1.70391e-06
1.25754e-07
1.69715e-06
1.05435e-07
1.69386e-06
8.74234e-08
1.69234e-06
7.08418e-08
1.69173e-06
5.39644e-08
1.69208e-06
3.86236e-08
1.69207e-06
2.76282e-08
1.69113e-06
2.22441e-08
1.6873e-06
2.04962e-08
1.68151e-06
2.00718e-08
1.67347e-06
2.1093e-08
2.17964e-08
1.66571e-06
1.91635e-06
2.87437e-07
1.89445e-06
1.80702e-07
1.88323e-06
1.96796e-07
1.86678e-06
1.95636e-07
1.8538e-06
1.75423e-07
1.84999e-06
1.4943e-07
1.85304e-06
1.22701e-07
1.85775e-06
1.00726e-07
1.86047e-06
8.47095e-08
1.86067e-06
7.06428e-08
1.85944e-06
5.51933e-08
1.85841e-06
3.96544e-08
1.85799e-06
2.80441e-08
1.85818e-06
2.20593e-08
1.85813e-06
2.05446e-08
1.85736e-06
2.08363e-08
1.85649e-06
2.19619e-08
2.24776e-08
1.85581e-06
2.05523e-06
3.25388e-07
2.02582e-06
2.10107e-07
2.01424e-06
2.08385e-07
2.00476e-06
2.05117e-07
1.99482e-06
1.85356e-07
1.98872e-06
1.55532e-07
1.98921e-06
1.22217e-07
1.99554e-06
9.43943e-08
2.00439e-06
7.58525e-08
2.01146e-06
6.35814e-08
2.01324e-06
5.34075e-08
2.00897e-06
4.39227e-08
2.00087e-06
3.61427e-08
1.99252e-06
3.04162e-08
1.98687e-06
2.6194e-08
1.98503e-06
2.26696e-08
1.98725e-06
1.97469e-08
1.76509e-08
1.99208e-06
2.19089e-06
4.00041e-07
2.15892e-06
2.4208e-07
2.14849e-06
2.18815e-07
2.14887e-06
2.04734e-07
2.15203e-06
1.822e-07
2.15244e-06
1.55116e-07
2.15074e-06
1.23921e-07
2.15061e-06
9.45245e-08
2.1535e-06
7.29648e-08
2.15707e-06
6.00137e-08
2.15768e-06
5.27976e-08
2.15365e-06
4.79434e-08
2.14647e-06
4.33286e-08
2.13903e-06
3.78565e-08
2.13401e-06
3.12085e-08
2.13239e-06
2.42988e-08
2.1341e-06
1.80282e-08
1.37437e-08
2.13801e-06
2.413e-06
3.67201e-07
2.38776e-06
2.67315e-07
2.34772e-06
2.5886e-07
2.32573e-06
2.26722e-07
2.31755e-06
1.90379e-07
2.31698e-06
1.55687e-07
2.32009e-06
1.20803e-07
2.32506e-06
8.95615e-08
2.33038e-06
6.76457e-08
2.33398e-06
5.64114e-08
2.33404e-06
5.27344e-08
2.33013e-06
5.18553e-08
2.32364e-06
4.98216e-08
2.31661e-06
4.48861e-08
2.3109e-06
3.69129e-08
2.3074e-06
2.78049e-08
2.30648e-06
1.8946e-08
1.21096e-08
2.30811e-06
2.59326e-06
4.03907e-07
2.55281e-06
3.07768e-07
2.53474e-06
2.76933e-07
2.52501e-06
2.36449e-07
2.51417e-06
2.01213e-07
2.50237e-06
1.67492e-07
2.49363e-06
1.29539e-07
2.4904e-06
9.28002e-08
2.492e-06
6.6037e-08
2.49592e-06
5.2491e-08
2.49944e-06
4.92146e-08
2.50069e-06
5.06128e-08
2.49916e-06
5.13491e-08
2.4954e-06
4.86455e-08
2.49059e-06
4.17191e-08
2.48626e-06
3.21408e-08
2.48377e-06
2.14292e-08
1.15374e-08
2.48435e-06
2.74003e-06
3.7845e-07
2.7218e-06
3.26004e-07
2.71562e-06
2.8311e-07
2.70934e-06
2.42733e-07
2.69936e-06
2.11189e-07
2.68798e-06
1.78868e-07
2.67718e-06
1.40339e-07
2.66935e-06
1.00633e-07
2.66701e-06
6.8376e-08
2.67128e-06
4.82237e-08
2.68109e-06
3.94037e-08
2.6938e-06
3.79025e-08
2.70649e-06
3.86571e-08
2.7169e-06
3.82358e-08
2.72385e-06
3.4773e-08
2.72728e-06
2.87087e-08
2.72775e-06
2.0962e-08
1.21931e-08
2.72709e-06
2.96396e-06
4.34802e-07
2.94202e-06
3.47945e-07
2.9335e-06
2.91633e-07
2.93071e-06
2.4552e-07
2.92468e-06
2.17219e-07
2.91033e-06
1.93216e-07
2.88979e-06
1.60885e-07
2.87097e-06
1.19454e-07
2.86134e-06
7.8004e-08
2.86321e-06
4.63489e-08
2.87406e-06
2.85519e-08
2.88911e-06
2.28583e-08
2.90364e-06
2.41251e-08
2.91448e-06
2.73917e-08
2.92057e-06
2.8684e-08
2.92279e-06
2.6494e-08
2.92364e-06
2.01112e-08
1.05611e-08
2.92527e-06
3.16597e-06
5.22788e-07
3.11609e-06
3.97825e-07
3.11269e-06
2.95033e-07
3.12626e-06
2.31954e-07
3.13503e-06
2.0845e-07
3.13269e-06
1.95551e-07
3.12445e-06
1.69131e-07
3.11778e-06
1.26122e-07
3.11641e-06
7.9378e-08
3.11943e-06
4.33232e-08
3.12381e-06
2.41777e-08
3.12674e-06
1.99215e-08
3.12705e-06
2.38211e-08
3.12554e-06
2.8902e-08
3.12403e-06
3.01904e-08
3.12458e-06
2.59421e-08
3.12849e-06
1.6202e-08
3.45824e-09
3.1356e-06
2.83661e-06
5.22801e-07
2.81725e-06
4.17188e-07
2.80297e-06
3.09309e-07
2.79806e-06
2.36868e-07
2.80374e-06
2.0277e-07
2.8133e-06
1.85987e-07
2.8214e-06
1.61027e-07
2.8268e-06
1.2073e-07
2.82909e-06
7.70883e-08
2.82755e-06
4.48566e-08
2.82227e-06
2.94554e-08
2.81501e-06
2.71808e-08
2.8086e-06
3.02405e-08
2.80598e-06
3.1518e-08
2.80891e-06
2.72632e-08
2.81759e-06
1.72576e-08
2.83059e-06
3.20516e-09
-1.1244e-08
2.84529e-06
3.40682e-06
5.26931e-07
3.42393e-06
4.00086e-07
3.44218e-06
2.91051e-07
3.44812e-06
2.30927e-07
3.43956e-06
2.11338e-07
3.42849e-06
1.9705e-07
3.42556e-06
1.63955e-07
3.42969e-06
1.16599e-07
3.43281e-06
7.39731e-08
3.4292e-06
4.84685e-08
3.41954e-06
3.91149e-08
3.4092e-06
3.75174e-08
3.40423e-06
3.52105e-08
3.40804e-06
2.77125e-08
3.42053e-06
1.47673e-08
3.43933e-06
-1.53887e-09
3.46056e-06
-1.80241e-08
-3.17972e-08
3.48111e-06
4.27611e-06
5.11265e-07
4.27474e-06
4.01451e-07
4.25682e-06
3.08969e-07
4.22462e-06
2.63131e-07
4.19609e-06
2.39869e-07
4.18436e-06
2.08776e-07
4.18816e-06
1.60158e-07
4.1962e-06
1.08559e-07
4.19916e-06
7.10099e-08
4.19597e-06
5.16659e-08
4.19188e-06
4.32008e-08
4.19306e-06
3.63418e-08
4.20256e-06
2.57022e-08
4.21914e-06
1.11384e-08
4.23842e-06
-4.51725e-09
4.25586e-06
-1.89751e-08
4.26833e-06
-3.04978e-08
-3.94963e-08
4.27603e-06
5.18938e-06
5.166e-07
5.16189e-06
4.28941e-07
5.13866e-06
3.32194e-07
5.11747e-06
2.84318e-07
5.10638e-06
2.5096e-07
5.10766e-06
2.07498e-07
5.11721e-06
1.50607e-07
5.13022e-06
9.55528e-08
5.14429e-06
5.69409e-08
5.1595e-06
3.64495e-08
5.17613e-06
2.65783e-08
5.19292e-06
1.95525e-08
5.20717e-06
1.14527e-08
5.21577e-06
2.53805e-09
5.21834e-06
-7.09064e-09
5.2152e-06
-1.58323e-08
5.20921e-06
-2.45135e-08
-3.44163e-08
5.20413e-06
6.2182e-06
4.5789e-07
6.25387e-06
3.93268e-07
6.25538e-06
3.30688e-07
6.26728e-06
2.72416e-07
6.2948e-06
2.23442e-07
6.32245e-06
1.79842e-07
6.33359e-06
1.39468e-07
6.3257e-06
1.03441e-07
6.30869e-06
7.39576e-08
6.29407e-06
5.1065e-08
6.28789e-06
3.2756e-08
6.28993e-06
1.75177e-08
6.29665e-06
4.72738e-09
6.30308e-06
-3.89229e-09
6.30639e-06
-1.03934e-08
6.30729e-06
-1.67398e-08
6.30746e-06
-2.46773e-08
-3.61261e-08
6.30917e-06
7.66319e-06
3.98823e-07
7.66659e-06
3.89868e-07
7.62668e-06
3.706e-07
7.59037e-06
3.0872e-07
7.57122e-06
2.42594e-07
7.566e-06
1.85057e-07
7.56322e-06
1.42249e-07
7.55744e-06
1.09228e-07
7.55339e-06
7.80074e-08
7.55888e-06
4.55736e-08
7.57724e-06
1.43894e-08
7.60731e-06
-1.25454e-08
7.64395e-06
-3.19102e-08
7.68361e-06
-4.35592e-08
7.72314e-06
-4.99203e-08
7.76072e-06
-5.43184e-08
7.79515e-06
-5.91138e-08
-6.58183e-08
7.82485e-06
9.13477e-06
4.4091e-07
9.15578e-06
3.68865e-07
9.22259e-06
3.03792e-07
9.27589e-06
2.55416e-07
9.30616e-06
2.12325e-07
9.32106e-06
1.70151e-07
9.33287e-06
1.30442e-07
9.34816e-06
9.3939e-08
9.36728e-06
5.88895e-08
9.389e-06
2.38499e-08
9.41198e-06
-8.59284e-09
9.43377e-06
-3.43361e-08
9.45274e-06
-5.08778e-08
9.4676e-06
-5.84174e-08
9.47787e-06
-6.01904e-08
9.48386e-06
-6.03132e-08
9.4865e-06
-6.17448e-08
-6.64477e-08
9.48712e-06
1.14396e-05
4.19059e-07
1.14063e-05
4.02201e-07
1.13777e-05
3.32361e-07
1.13749e-05
2.58235e-07
1.14063e-05
1.80936e-07
1.14645e-05
1.11992e-07
1.1528e-05
6.68665e-08
1.15788e-05
4.31568e-08
1.16091e-05
2.85786e-08
1.16196e-05
1.34021e-08
1.16154e-05
-4.40072e-09
1.16032e-05
-2.21625e-08
1.15872e-05
-3.48579e-08
1.15709e-05
-4.21166e-08
1.15567e-05
-4.60064e-08
1.15457e-05
-4.93524e-08
1.15384e-05
-5.43615e-08
-6.22368e-08
1.15341e-05
8.17708e-06
3.6108e-07
8.26825e-06
3.11039e-07
8.32507e-06
2.75542e-07
8.37661e-06
2.06695e-07
8.41699e-06
1.40555e-07
8.43238e-06
9.65976e-08
8.42838e-06
7.08724e-08
8.41979e-06
5.17382e-08
8.41805e-06
3.03244e-08
8.42514e-06
6.31488e-09
8.43398e-06
-1.32415e-08
8.43785e-06
-2.60343e-08
8.43567e-06
-3.26762e-08
8.43012e-06
-3.65706e-08
8.42583e-06
-4.17188e-08
8.42654e-06
-5.00631e-08
8.43383e-06
-6.1645e-08
-7.46957e-08
8.44629e-06
7.17795e-06
3.06883e-07
7.23394e-06
2.55049e-07
7.28056e-06
2.28925e-07
7.33425e-06
1.53007e-07
7.38293e-06
9.18741e-08
7.4206e-06
5.89291e-08
7.4465e-06
4.49673e-08
7.46162e-06
3.66234e-08
7.46622e-06
2.57212e-08
7.46085e-06
1.1682e-08
7.45106e-06
-3.44933e-09
7.44307e-06
-1.80429e-08
7.43993e-06
-2.95389e-08
7.44234e-06
-3.89823e-08
7.44773e-06
-4.71038e-08
7.45233e-06
-5.46614e-08
7.45247e-06
-6.17878e-08
-6.90169e-08
7.44679e-06
6.40845e-06
3.70364e-07
6.3739e-06
2.89594e-07
6.38193e-06
2.209e-07
6.38776e-06
1.47177e-07
6.39674e-06
8.28907e-08
6.41616e-06
3.95108e-08
6.44218e-06
1.89483e-08
6.46602e-06
1.27835e-08
6.48255e-06
9.18309e-09
6.49288e-06
1.35779e-09
6.49889e-06
-9.46294e-09
6.50402e-06
-2.31735e-08
6.51117e-06
-3.669e-08
6.52037e-06
-4.81775e-08
6.53055e-06
-5.72813e-08
6.54024e-06
-6.43529e-08
6.54836e-06
-6.99099e-08
-7.46795e-08
6.55402e-06
5.56324e-06
3.59961e-07
5.62503e-06
2.27805e-07
5.66702e-06
1.78909e-07
5.69244e-06
1.21758e-07
5.70164e-06
7.36899e-08
5.70122e-06
3.99246e-08
5.69944e-06
2.07351e-08
5.70149e-06
1.07309e-08
5.70702e-06
3.65253e-09
5.71326e-06
-4.88142e-09
5.71831e-06
-1.45169e-08
5.7195e-06
-2.43588e-08
5.718e-06
-3.51929e-08
5.71646e-06
-4.66366e-08
5.71728e-06
-5.80972e-08
5.7219e-06
-6.89734e-08
5.73079e-06
-7.88076e-08
-8.69653e-08
5.74308e-06
4.84991e-06
3.23095e-07
4.84589e-06
2.31817e-07
4.86824e-06
1.5656e-07
4.89046e-06
9.95378e-08
4.90883e-06
5.53279e-08
4.92571e-06
2.30428e-08
4.94449e-06
1.95353e-09
4.9645e-06
-9.28035e-09
4.98568e-06
-1.75312e-08
5.0063e-06
-2.54925e-08
5.02489e-06
-3.31125e-08
5.0409e-06
-4.0365e-08
5.05345e-06
-4.77496e-08
5.06235e-06
-5.55327e-08
5.06729e-06
-6.3039e-08
5.06788e-06
-6.95644e-08
5.06356e-06
-7.44866e-08
-7.7681e-08
5.05428e-06
4.18017e-06
3.536e-07
4.2555e-06
1.56491e-07
4.31423e-06
9.78221e-08
4.34821e-06
6.55638e-08
4.36878e-06
3.47606e-08
4.37902e-06
1.28026e-08
4.38316e-06
-2.19303e-09
4.39149e-06
-1.76125e-08
4.40434e-06
-3.03789e-08
4.41858e-06
-3.97261e-08
4.43026e-06
-4.4801e-08
4.43724e-06
-4.73427e-08
4.43934e-06
-4.98464e-08
4.43761e-06
-5.38018e-08
4.4335e-06
-5.8932e-08
4.42817e-06
-6.42356e-08
4.4224e-06
-6.87161e-08
-7.21089e-08
4.41683e-06
3.66902e-06
3.12342e-07
3.72677e-06
9.87382e-08
3.76862e-06
5.59683e-08
3.79638e-06
3.78117e-08
3.81526e-06
1.58753e-08
3.82674e-06
1.3209e-09
3.83423e-06
-9.68247e-09
3.841e-06
-2.43832e-08
3.84992e-06
-3.92969e-08
3.86012e-06
-4.99266e-08
3.87085e-06
-5.55305e-08
3.88153e-06
-5.80234e-08
3.89148e-06
-5.97931e-08
3.90002e-06
-6.23427e-08
3.90677e-06
-6.56835e-08
3.91176e-06
-6.92269e-08
3.9154e-06
-7.23531e-08
-7.46633e-08
3.91795e-06
3.2318e-06
2.00379e-07
3.29476e-06
3.57766e-08
3.32475e-06
2.59811e-08
3.34519e-06
1.73727e-08
3.3616e-06
-5.3854e-10
3.37773e-06
-1.48083e-08
3.39234e-06
-2.42905e-08
3.40342e-06
-3.54637e-08
3.41161e-06
-4.74842e-08
3.41878e-06
-5.70961e-08
3.42621e-06
-6.296e-08
3.43389e-06
-6.57107e-08
3.4407e-06
-6.66006e-08
3.44522e-06
-6.68629e-08
3.44669e-06
-6.71488e-08
3.44532e-06
-6.78572e-08
3.44196e-06
-6.89986e-08
-7.07206e-08
3.43802e-06
2.84568e-06
6.62602e-08
2.90401e-06
-2.2553e-08
2.9251e-06
4.88941e-09
2.94771e-06
-5.23776e-09
2.97025e-06
-2.30763e-08
2.99033e-06
-3.48812e-08
3.00816e-06
-4.21288e-08
3.02213e-06
-4.94272e-08
3.03054e-06
-5.58972e-08
3.03298e-06
-5.95391e-08
3.03091e-06
-6.08844e-08
3.02719e-06
-6.19933e-08
3.02457e-06
-6.39818e-08
3.02432e-06
-6.66082e-08
3.02604e-06
-6.88725e-08
3.02862e-06
-7.04318e-08
3.03078e-06
-7.11658e-08
-7.17228e-08
3.03178e-06
2.48207e-06
6.08559e-08
2.51655e-06
-5.70369e-08
2.54662e-06
-2.51799e-08
2.57572e-06
-3.43325e-08
2.59609e-06
-4.34494e-08
2.60758e-06
-4.63683e-08
2.61348e-06
-4.80269e-08
2.61463e-06
-5.0582e-08
2.61164e-06
-5.29091e-08
2.60643e-06
-5.4321e-08
2.60116e-06
-5.56169e-08
2.59671e-06
-5.75438e-08
2.59228e-06
-5.95489e-08
2.58607e-06
-6.04038e-08
2.57648e-06
-5.92814e-08
2.56262e-06
-5.65752e-08
2.54463e-06
-5.31767e-08
-5.05374e-08
2.52345e-06
2.15319e-06
2.09616e-06
2.07098e-06
2.03665e-06
1.9932e-06
1.94683e-06
1.8988e-06
1.84822e-06
1.79531e-06
1.74099e-06
1.68537e-06
1.62783e-06
1.56828e-06
1.50788e-06
1.44859e-06
1.39202e-06
1.33884e-06
1.2883e-06
-5.97405e-08
5.97405e-08
-1.26336e-07
6.65956e-08
-1.92979e-07
6.66429e-08
-2.60165e-07
6.71857e-08
-3.27632e-07
6.74669e-08
-3.95209e-07
6.75778e-08
-4.62686e-07
6.74767e-08
-5.29787e-07
6.71011e-08
-5.96178e-07
6.63913e-08
-6.61469e-07
6.52907e-08
-7.25221e-07
6.37521e-08
-7.86964e-07
6.17426e-08
-8.46141e-07
5.9177e-08
-9.0211e-07
5.5969e-08
-9.54236e-07
5.2126e-08
-1.00188e-06
4.76464e-08
-1.0444e-06
4.25197e-08
-1.08116e-06
3.67542e-08
-1.11153e-06
3.03757e-08
-1.13495e-06
2.34156e-08
-1.15089e-06
1.59375e-08
-1.15892e-06
8.03042e-09
-1.15872e-06
-1.94338e-10
-1.15004e-06
-8.6795e-09
-1.13282e-06
-1.72262e-08
-1.10707e-06
-2.57476e-08
-1.07292e-06
-3.41461e-08
-1.0306e-06
-4.23247e-08
-9.80431e-07
-5.01656e-08
-9.22872e-07
-5.75598e-08
-8.58423e-07
-6.44486e-08
-7.87696e-07
-7.07275e-08
-7.11352e-07
-7.63439e-08
-6.3008e-07
-8.1272e-08
-5.44612e-07
-8.54677e-08
-4.55668e-07
-8.89438e-08
-3.63985e-07
-9.16831e-08
-2.70258e-07
-9.37272e-08
-1.75167e-07
-9.50912e-08
-7.93445e-08
-9.58223e-08
1.66322e-08
-9.59767e-08
1.12223e-07
-9.5591e-08
2.06949e-07
-9.47253e-08
3.00384e-07
-9.34355e-08
3.92159e-07
-9.17754e-08
4.81957e-07
-8.97974e-08
5.69508e-07
-8.75514e-08
6.54593e-07
-8.50846e-08
7.37033e-07
-8.24406e-08
8.16693e-07
-7.96593e-08
8.93469e-07
-7.67765e-08
9.67294e-07
-7.38244e-08
1.03812e-06
-7.08313e-08
1.10595e-06
-6.78222e-08
1.17077e-06
-6.48186e-08
1.2326e-06
-6.18389e-08
1.2915e-06
-5.88988e-08
1.34751e-06
-5.60114e-08
1.4007e-06
-5.31875e-08
1.45114e-06
-5.04359e-08
1.4989e-06
-4.77635e-08
1.54408e-06
-4.51756e-08
1.58675e-06
-4.26764e-08
1.62702e-06
-4.02685e-08
1.66498e-06
-3.79537e-08
1.70071e-06
-3.57329e-08
1.73431e-06
-3.36061e-08
1.76589e-06
-3.15727e-08
1.79552e-06
-2.96314e-08
1.8233e-06
-2.77807e-08
1.84932e-06
-2.60187e-08
1.87366e-06
-2.43429e-08
1.89641e-06
-2.27509e-08
1.91765e-06
-2.12401e-08
1.93746e-06
-1.98076e-08
1.95591e-06
-1.84504e-08
1.97308e-06
-1.71656e-08
1.98903e-06
-1.59501e-08
2.00383e-06
-1.4801e-08
2.01754e-06
-1.37152e-08
2.03023e-06
-1.26898e-08
2.04195e-06
-1.17219e-08
2.05276e-06
-1.08085e-08
2.06271e-06
-9.94704e-09
2.07184e-06
-9.13476e-09
2.08021e-06
-8.36901e-09
2.08786e-06
-7.64738e-09
2.09483e-06
-6.96745e-09
2.10115e-06
-6.32692e-09
2.10688e-06
-5.72353e-09
2.11203e-06
-5.15534e-09
2.11665e-06
-4.62019e-09
2.12077e-06
-4.11601e-09
2.12441e-06
-3.64174e-09
2.12761e-06
-3.19499e-09
2.13038e-06
-2.77348e-09
2.13276e-06
-2.37767e-09
2.13476e-06
-2.00494e-09
2.13641e-06
-1.6514e-09
2.13773e-06
-1.32052e-09
2.13874e-06
-1.00924e-09
2.13945e-06
-7.09336e-10
2.13988e-06
-4.30377e-10
2.14005e-06
-1.66761e-10
2.13994e-06
1.07151e-10
2.13956e-06
3.86548e-10
2.13891e-06
6.5061e-10
2.13801e-06
9.00641e-10
2.13687e-06
1.13755e-09
2.13551e-06
1.36079e-09
2.13394e-06
1.56347e-09
2.1322e-06
1.74239e-09
2.1303e-06
1.89785e-09
2.12827e-06
2.03319e-09
2.12612e-06
2.15339e-09
2.12385e-06
2.26315e-09
2.12149e-06
2.36573e-09
2.11902e-06
2.46315e-09
2.11647e-06
2.55614e-09
2.11382e-06
2.64518e-09
2.11109e-06
2.73027e-09
2.10828e-06
2.81167e-09
2.10539e-06
2.88943e-09
2.10243e-06
2.96386e-09
2.09939e-06
3.03511e-09
2.09629e-06
3.10338e-09
2.09312e-06
3.16896e-09
2.08989e-06
3.23197e-09
2.0866e-06
3.29262e-09
2.08324e-06
3.35116e-09
2.07984e-06
3.40766e-09
2.07637e-06
3.46239e-09
2.07286e-06
3.5154e-09
2.06929e-06
3.56689e-09
2.06568e-06
3.61695e-09
2.06201e-06
3.66573e-09
2.0583e-06
3.71327e-09
2.05454e-06
3.75984e-09
2.05073e-06
3.80544e-09
2.04688e-06
3.85023e-09
2.04299e-06
3.89433e-09
2.03905e-06
3.93782e-09
2.03507e-06
3.98084e-09
2.03104e-06
4.02346e-09
2.02698e-06
4.06582e-09
2.02287e-06
4.10803e-09
2.01872e-06
4.15022e-09
2.01453e-06
4.19257e-09
2.01029e-06
4.23525e-09
2.00601e-06
4.27846e-09
2.00169e-06
4.32241e-09
1.99732e-06
4.36742e-09
1.99291e-06
4.41383e-09
1.98845e-06
4.462e-09
1.98394e-06
4.51249e-09
1.97937e-06
4.56595e-09
1.97475e-06
4.62322e-09
1.97006e-06
4.68532e-09
1.96531e-06
4.75356e-09
1.96048e-06
4.8297e-09
1.95556e-06
4.91575e-09
1.95055e-06
5.01503e-09
1.94542e-06
5.13013e-09
1.94015e-06
5.26819e-09
1.93472e-06
5.43129e-09
1.92908e-06
5.63509e-09
1.9232e-06
5.88247e-09
1.91701e-06
6.19091e-09
1.9104e-06
6.61453e-09
1.90334e-06
7.05005e-09
1.89542e-06
7.92322e-09
1.88702e-06
8.40124e-09
1.87654e-06
1.0482e-08
1.86589e-06
1.0653e-08
1.84985e-06
1.6039e-08
1.83511e-06
1.47392e-08
1.80465e-06
3.04557e-08
1.77981e-06
2.4846e-08
1.69757e-06
8.22384e-08
8.10219e-08
1.61655e-06
-6.77544e-08
1.27495e-07
-1.43061e-07
1.41903e-07
-2.17749e-07
1.41331e-07
-2.92304e-07
1.4174e-07
-3.66251e-07
1.41414e-07
-4.39294e-07
1.40621e-07
-5.11126e-07
1.39308e-07
-5.8144e-07
1.37415e-07
-6.49923e-07
1.34874e-07
-7.16233e-07
1.31601e-07
-7.79996e-07
1.27515e-07
-8.40789e-07
1.22535e-07
-8.98196e-07
1.16584e-07
-9.51808e-07
1.09581e-07
-1.00115e-06
1.0147e-07
-1.04571e-06
9.22083e-08
-1.08496e-06
8.17713e-08
-1.11837e-06
7.01597e-08
-1.1454e-06
5.74064e-08
-1.16556e-06
4.35761e-08
-1.17839e-06
2.87676e-08
-1.1835e-06
1.31398e-08
-1.18036e-06
-3.33832e-09
-1.16848e-06
-2.05553e-08
-1.14774e-06
-3.79669e-08
-1.11808e-06
-5.54042e-08
-1.0796e-06
-7.26267e-08
-1.03254e-06
-8.93882e-08
-9.77257e-07
-1.05448e-07
-9.14209e-07
-1.20607e-07
-8.43992e-07
-1.34666e-07
-7.67257e-07
-1.47463e-07
-6.84678e-07
-1.58922e-07
-5.9703e-07
-1.6892e-07
-5.05051e-07
-1.77447e-07
-4.09553e-07
-1.84442e-07
-3.11238e-07
-1.89998e-07
-2.10855e-07
-1.94109e-07
-1.09082e-07
-1.96865e-07
-6.56106e-09
-1.98343e-07
9.61091e-08
-1.98647e-07
1.98406e-07
-1.97888e-07
2.99854e-07
-1.96172e-07
4.00029e-07
-1.9361e-07
4.98565e-07
-1.90312e-07
5.95152e-07
-1.86384e-07
6.89525e-07
-1.81925e-07
7.81469e-07
-1.77029e-07
8.70811e-07
-1.71783e-07
9.57416e-07
-1.66264e-07
1.04118e-06
-1.60543e-07
1.12204e-06
-1.54683e-07
1.19995e-06
-1.48738e-07
1.27488e-06
-1.42757e-07
1.34685e-06
-1.36782e-07
1.41585e-06
-1.30848e-07
1.48194e-06
-1.24985e-07
1.54515e-06
-1.19219e-07
1.60553e-06
-1.13569e-07
1.66315e-06
-1.08054e-07
1.71807e-06
-1.02686e-07
1.77037e-06
-9.74755e-08
1.82012e-06
-9.24309e-08
1.86741e-06
-8.75574e-08
1.91232e-06
-8.28587e-08
1.95492e-06
-7.83366e-08
1.99531e-06
-7.39915e-08
2.03356e-06
-6.98229e-08
2.06975e-06
-6.58289e-08
2.10398e-06
-6.2007e-08
2.13632e-06
-5.8354e-08
2.16684e-06
-5.48661e-08
2.19563e-06
-5.15391e-08
2.22276e-06
-4.83683e-08
2.2483e-06
-4.5349e-08
2.27232e-06
-4.2476e-08
2.2949e-06
-3.97443e-08
2.3161e-06
-3.71486e-08
2.33598e-06
-3.46836e-08
2.35461e-06
-3.2344e-08
2.37205e-06
-3.01247e-08
2.38835e-06
-2.80204e-08
2.40356e-06
-2.60262e-08
2.41775e-06
-2.41369e-08
2.43097e-06
-2.23478e-08
2.44325e-06
-2.06542e-08
2.45465e-06
-1.90515e-08
2.46522e-06
-1.75353e-08
2.475e-06
-1.61013e-08
2.48402e-06
-1.47454e-08
2.49233e-06
-1.34637e-08
2.49996e-06
-1.22523e-08
2.50695e-06
-1.11077e-08
2.51334e-06
-1.00266e-08
2.51915e-06
-9.0051e-09
2.52441e-06
-8.04028e-09
2.52916e-06
-7.12966e-09
2.53343e-06
-6.26936e-09
2.53723e-06
-5.45636e-09
2.5406e-06
-4.68952e-09
2.54356e-06
-3.96482e-09
2.54613e-06
-3.27932e-09
2.54833e-06
-2.63256e-09
2.55019e-06
-2.02098e-09
2.55173e-06
-1.43968e-09
2.55301e-06
-8.86736e-10
2.55402e-06
-3.61335e-10
2.55478e-06
1.36519e-10
2.55531e-06
6.04923e-10
2.55563e-06
1.04615e-09
2.55574e-06
1.45344e-09
2.55565e-06
1.82869e-09
2.55538e-06
2.1745e-09
2.55491e-06
2.49591e-09
2.55427e-06
2.79831e-09
2.55344e-06
3.08598e-09
2.55245e-06
3.36126e-09
2.55129e-06
3.62509e-09
2.54997e-06
3.87766e-09
2.54849e-06
4.1189e-09
2.54687e-06
4.34877e-09
2.54512e-06
4.56753e-09
2.54323e-06
4.77553e-09
2.54122e-06
4.97333e-09
2.5391e-06
5.16151e-09
2.53686e-06
5.34063e-09
2.53452e-06
5.51122e-09
2.53207e-06
5.6739e-09
2.52954e-06
5.82918e-09
2.52691e-06
5.97757e-09
2.5242e-06
6.11956e-09
2.52141e-06
6.25564e-09
2.51854e-06
6.38619e-09
2.51559e-06
6.51166e-09
2.51258e-06
6.63245e-09
2.50949e-06
6.74884e-09
2.50634e-06
6.86131e-09
2.50313e-06
6.9701e-09
2.49986e-06
7.07558e-09
2.49654e-06
7.17808e-09
2.49315e-06
7.27791e-09
2.48971e-06
7.3753e-09
2.48623e-06
7.47062e-09
2.48268e-06
7.56409e-09
2.47909e-06
7.65608e-09
2.47546e-06
7.74684e-09
2.47177e-06
7.83669e-09
2.46804e-06
7.92594e-09
2.46426e-06
8.01502e-09
2.46043e-06
8.10432e-09
2.45656e-06
8.19431e-09
2.45264e-06
8.28559e-09
2.44867e-06
8.37871e-09
2.44466e-06
8.47458e-09
2.4406e-06
8.57408e-09
2.43649e-06
8.67846e-09
2.43232e-06
8.78915e-09
2.4281e-06
8.90805e-09
2.42382e-06
9.03757e-09
2.41946e-06
9.18061e-09
2.41504e-06
9.34144e-09
2.41053e-06
9.52426e-09
2.40592e-06
9.73731e-09
2.40121e-06
9.98558e-09
2.39635e-06
1.02883e-08
2.39134e-06
1.06424e-08
2.38611e-06
1.11091e-08
2.38068e-06
1.16235e-08
2.37487e-06
1.24262e-08
2.36878e-06
1.31423e-08
2.36199e-06
1.47087e-08
2.35479e-06
1.5599e-08
2.34631e-06
1.89646e-08
2.3371e-06
1.98641e-08
2.32537e-06
2.77658e-08
2.31197e-06
2.81453e-08
2.29303e-06
4.9397e-08
2.26806e-06
4.98132e-08
2.23474e-06
1.15557e-07
1.2796e-07
2.1878e-06
-6.71359e-08
1.94631e-07
-1.4192e-07
2.16686e-07
-2.16342e-07
2.15753e-07
-2.90865e-07
2.16263e-07
-3.6511e-07
2.15659e-07
-4.3888e-07
2.14391e-07
-5.11949e-07
2.12378e-07
-5.8405e-07
2.09516e-07
-6.54881e-07
2.05705e-07
-7.24105e-07
2.00826e-07
-7.91341e-07
1.94751e-07
-8.56149e-07
1.87344e-07
-9.18034e-07
1.78469e-07
-9.76451e-07
1.67997e-07
-1.0308e-06
1.55815e-07
-1.08041e-06
1.41823e-07
-1.12461e-06
1.2597e-07
-1.16269e-06
1.08243e-07
-1.19395e-06
8.86678e-08
-1.21772e-06
6.73436e-08
-1.23338e-06
4.44296e-08
-1.24043e-06
2.01813e-08
-1.23835e-06
-5.40961e-09
-1.22672e-06
-3.2193e-08
-1.20538e-06
-5.92981e-08
-1.17438e-06
-8.64078e-08
-1.13388e-06
-1.1313e-07
-1.0842e-06
-1.39071e-07
-1.02579e-06
-1.63853e-07
-9.59254e-07
-1.87145e-07
-8.85259e-07
-2.0866e-07
-8.0456e-07
-2.28162e-07
-7.17996e-07
-2.45487e-07
-6.26386e-07
-2.6053e-07
-5.306e-07
-2.73232e-07
-4.31446e-07
-2.83597e-07
-3.29757e-07
-2.91687e-07
-2.26284e-07
-2.97582e-07
-1.21758e-07
-3.01392e-07
-1.68281e-08
-3.03273e-07
8.7922e-08
-3.03397e-07
1.91968e-07
-3.01935e-07
2.94852e-07
-2.99056e-07
3.96177e-07
-2.94935e-07
4.95605e-07
-2.8974e-07
5.92853e-07
-2.83632e-07
6.8769e-07
-2.76762e-07
7.7993e-07
-2.69269e-07
8.69429e-07
-2.61282e-07
9.5608e-07
-2.52914e-07
1.03981e-06
-2.44271e-07
1.12057e-06
-2.35441e-07
1.19833e-06
-2.26505e-07
1.27311e-06
-2.17532e-07
1.34491e-06
-2.0858e-07
1.41376e-06
-1.99701e-07
1.47971e-06
-1.90936e-07
1.54281e-06
-1.82321e-07
1.60313e-06
-1.73884e-07
1.66072e-06
-1.65649e-07
1.71567e-06
-1.57634e-07
1.76805e-06
-1.49852e-07
1.81793e-06
-1.42315e-07
1.8654e-06
-1.35029e-07
1.91054e-06
-1.27999e-07
1.95343e-06
-1.21227e-07
1.99415e-06
-1.14713e-07
2.03279e-06
-1.08456e-07
2.06941e-06
-1.02454e-07
2.10411e-06
-9.67014e-08
2.13695e-06
-9.11948e-08
2.16801e-06
-8.59282e-08
2.19737e-06
-8.08958e-08
2.22509e-06
-7.60909e-08
2.25125e-06
-7.15067e-08
2.27591e-06
-6.71362e-08
2.29913e-06
-6.29721e-08
2.32099e-06
-5.90071e-08
2.34154e-06
-5.52338e-08
2.36084e-06
-5.16449e-08
2.37895e-06
-4.82332e-08
2.39592e-06
-4.49913e-08
2.41181e-06
-4.19123e-08
2.42666e-06
-3.89892e-08
2.44053e-06
-3.62153e-08
2.45346e-06
-3.35838e-08
2.4655e-06
-3.10885e-08
2.47668e-06
-2.87231e-08
2.48706e-06
-2.64815e-08
2.49668e-06
-2.4358e-08
2.50556e-06
-2.23469e-08
2.51375e-06
-2.04427e-08
2.52128e-06
-1.86404e-08
2.52819e-06
-1.6935e-08
2.53451e-06
-1.53213e-08
2.54026e-06
-1.37949e-08
2.54548e-06
-1.23518e-08
2.5502e-06
-1.09867e-08
2.55444e-06
-9.69606e-09
2.55823e-06
-8.47633e-09
2.56159e-06
-7.32289e-09
2.56454e-06
-6.23236e-09
2.56711e-06
-5.20113e-09
2.56931e-06
-4.22491e-09
2.57117e-06
-3.30048e-09
2.57271e-06
-2.42588e-09
2.57395e-06
-1.60178e-09
2.57491e-06
-8.26077e-10
2.57562e-06
-1.01899e-10
2.57607e-06
5.93379e-10
2.57629e-06
1.23819e-09
2.57628e-06
1.84028e-09
2.57605e-06
2.40236e-09
2.57562e-06
2.93022e-09
2.57498e-06
3.42911e-09
2.57417e-06
3.90286e-09
2.57317e-06
4.35384e-09
2.57202e-06
4.78341e-09
2.5707e-06
5.19222e-09
2.56924e-06
5.58089e-09
2.56764e-06
5.95005e-09
2.56591e-06
6.30053e-09
2.56405e-06
6.63316e-09
2.56207e-06
6.94902e-09
2.55998e-06
7.24898e-09
2.55779e-06
7.53409e-09
2.5555e-06
7.80524e-09
2.55311e-06
8.0633e-09
2.55063e-06
8.30918e-09
2.54806e-06
8.5437e-09
2.54541e-06
8.76761e-09
2.54269e-06
8.9817e-09
2.53989e-06
9.18666e-09
2.53702e-06
9.38313e-09
2.53408e-06
9.57172e-09
2.53107e-06
9.75311e-09
2.52801e-06
9.92781e-09
2.52488e-06
1.00964e-08
2.5217e-06
1.02594e-08
2.51846e-06
1.04173e-08
2.51516e-06
1.05706e-08
2.51182e-06
1.07199e-08
2.50842e-06
1.08654e-08
2.50498e-06
1.10077e-08
2.50149e-06
1.11473e-08
2.49795e-06
1.12846e-08
2.49437e-06
1.14201e-08
2.49074e-06
1.15544e-08
2.48707e-06
1.16879e-08
2.48335e-06
1.18214e-08
2.47959e-06
1.19554e-08
2.47578e-06
1.20909e-08
2.47193e-06
1.22287e-08
2.46804e-06
1.23701e-08
2.4641e-06
1.25163e-08
2.4601e-06
1.26692e-08
2.45606e-06
1.28308e-08
2.45197e-06
1.30037e-08
2.44781e-06
1.31914e-08
2.4436e-06
1.33979e-08
2.43931e-06
1.36294e-08
2.43494e-06
1.38912e-08
2.43048e-06
1.41966e-08
2.42592e-06
1.45487e-08
2.42123e-06
1.49819e-08
2.41639e-06
1.54787e-08
2.41135e-06
1.61452e-08
2.40611e-06
1.68629e-08
2.40055e-06
1.79914e-08
2.39467e-06
1.90173e-08
2.38826e-06
2.11232e-08
2.3813e-06
2.25577e-08
2.37348e-06
2.67856e-08
2.36448e-06
2.88608e-08
2.35424e-06
3.80126e-08
2.34092e-06
4.14587e-08
2.32663e-06
6.36882e-08
2.30419e-06
7.22571e-08
2.288e-06
1.31747e-07
1.64439e-07
2.25152e-06
-6.81558e-08
2.62787e-07
-1.44387e-07
2.92918e-07
-2.20559e-07
2.91925e-07
-2.97099e-07
2.92803e-07
-3.73695e-07
2.92255e-07
-4.50208e-07
2.90904e-07
-5.26446e-07
2.88616e-07
-6.02165e-07
2.85235e-07
-6.77063e-07
2.80603e-07
-7.50781e-07
2.74544e-07
-8.22889e-07
2.66858e-07
-8.92885e-07
2.57339e-07
-9.60192e-07
2.45776e-07
-1.02415e-06
2.3196e-07
-1.08405e-06
2.15712e-07
-1.1391e-06
1.96876e-07
-1.18848e-06
1.75346e-07
-1.23132e-06
1.51085e-07
-1.26678e-06
1.24125e-07
-1.29403e-06
9.45941e-08
-1.31232e-06
6.27241e-08
-1.32102e-06
2.88778e-08
-1.31954e-06
-6.89238e-09
-1.3073e-06
-4.4436e-08
-1.28419e-06
-8.24057e-08
-1.25027e-06
-1.2033e-07
-1.20578e-06
-1.5762e-07
-1.15116e-06
-1.93686e-07
-1.08703e-06
-2.27986e-07
-1.01414e-06
-2.60032e-07
-9.33367e-07
-2.89434e-07
-8.4566e-07
-3.15869e-07
-7.52014e-07
-3.39133e-07
-6.53436e-07
-3.59107e-07
-5.50918e-07
-3.7575e-07
-4.45405e-07
-3.89111e-07
-3.37804e-07
-3.99288e-07
-2.28943e-07
-4.06443e-07
-1.19554e-07
-4.10781e-07
-1.03623e-08
-4.12464e-07
9.80974e-08
-4.11857e-07
2.053e-07
-4.09137e-07
3.10814e-07
-4.0457e-07
4.14276e-07
-3.98397e-07
5.15389e-07
-3.90853e-07
6.13913e-07
-3.82156e-07
7.0966e-07
-3.72508e-07
8.02487e-07
-3.62097e-07
8.92293e-07
-3.51088e-07
9.7901e-07
-3.39631e-07
1.0626e-06
-3.2786e-07
1.14305e-06
-3.1589e-07
1.22036e-06
-3.03821e-07
1.29457e-06
-2.9174e-07
1.36571e-06
-2.79722e-07
1.43384e-06
-2.67827e-07
1.49901e-06
-2.56109e-07
1.5613e-06
-2.44608e-07
1.62078e-06
-2.33361e-07
1.67752e-06
-2.22394e-07
1.73162e-06
-2.11729e-07
1.78315e-06
-2.01382e-07
1.8322e-06
-1.91365e-07
1.87885e-06
-1.81685e-07
1.9232e-06
-1.72346e-07
1.96532e-06
-1.6335e-07
2.00531e-06
-1.54696e-07
2.04323e-06
-1.46382e-07
2.07918e-06
-1.38402e-07
2.11323e-06
-1.30753e-07
2.14546e-06
-1.23426e-07
2.17595e-06
-1.16414e-07
2.20476e-06
-1.09709e-07
2.23197e-06
-1.03303e-07
2.25765e-06
-9.71854e-08
2.28186e-06
-9.13483e-08
2.30467e-06
-8.57818e-08
2.32614e-06
-8.04764e-08
2.34633e-06
-7.54225e-08
2.3653e-06
-7.06107e-08
2.3831e-06
-6.60316e-08
2.39978e-06
-6.16759e-08
2.4154e-06
-5.75346e-08
2.43001e-06
-5.35988e-08
2.44366e-06
-4.98597e-08
2.45638e-06
-4.63091e-08
2.46823e-06
-4.29384e-08
2.47925e-06
-3.974e-08
2.48947e-06
-3.67058e-08
2.49894e-06
-3.38284e-08
2.5077e-06
-3.11007e-08
2.51577e-06
-2.85156e-08
2.5232e-06
-2.60665e-08
2.53001e-06
-2.37468e-08
2.53624e-06
-2.15503e-08
2.54191e-06
-1.94709e-08
2.54706e-06
-1.75029e-08
2.55172e-06
-1.56407e-08
2.5559e-06
-1.38788e-08
2.55964e-06
-1.22121e-08
2.56295e-06
-1.06361e-08
2.56586e-06
-9.14515e-09
2.5684e-06
-7.73458e-09
2.57057e-06
-6.4016e-09
2.57242e-06
-5.14277e-09
2.57394e-06
-3.95253e-09
2.57517e-06
-2.82668e-09
2.5761e-06
-1.76256e-09
2.57676e-06
-7.57097e-10
2.57717e-06
1.85149e-10
2.57733e-06
1.07186e-09
2.57727e-06
1.90333e-09
2.57699e-06
2.68491e-09
2.5765e-06
3.42108e-09
2.57581e-06
4.11609e-09
2.57494e-06
4.77382e-09
2.5739e-06
5.39727e-09
2.57269e-06
5.98879e-09
2.57133e-06
6.55016e-09
2.56983e-06
7.0828e-09
2.56819e-06
7.58805e-09
2.56643e-06
8.06735e-09
2.56454e-06
8.52195e-09
2.56253e-06
8.95332e-09
2.56042e-06
9.36278e-09
2.5582e-06
9.75162e-09
2.55588e-06
1.01212e-08
2.55348e-06
1.04727e-08
2.55098e-06
1.08073e-08
2.54839e-06
1.11261e-08
2.54573e-06
1.14303e-08
2.54299e-06
1.17208e-08
2.54018e-06
1.19987e-08
2.5373e-06