/*--------------------------------*- C++ -*----------------------------------*\
  =========                 |
  \\      /  F ield         | OpenFOAM: The Open Source CFD Toolbox
   \\    /   O peration     | Website:  https://openfoam.org
    \\  /    A nd           | Version:  7
     \\/     M anipulation  |
\*---------------------------------------------------------------------------*/
FoamFile
{
    version     2.0;
    format      ascii;
    class       volScalarField;
    location    "0.011";
    object      pPrime2Mean;
}
// * * * * * * * * * * * * * * * * * * * * * * * * * * * * * * * * * * * * * //

dimensions      [0 4 -4 0 0 0 0];

internalField   nonuniform List<scalar> 
12225
(
3.2223e+07
3.17078e+07
3.11762e+07
3.06639e+07
3.0172e+07
2.9699e+07
2.92435e+07
2.88042e+07
2.83795e+07
2.79679e+07
2.75677e+07
2.7177e+07
2.67936e+07
2.64144e+07
2.60357e+07
2.56511e+07
2.52498e+07
2.48048e+07
3.22234e+07
3.17081e+07
3.11765e+07
3.06641e+07
3.01722e+07
2.96993e+07
2.92439e+07
2.88046e+07
2.838e+07
2.79686e+07
2.75686e+07
2.71782e+07
2.67951e+07
2.64166e+07
2.60389e+07
2.56563e+07
2.52597e+07
2.48271e+07
3.22241e+07
3.17085e+07
3.11769e+07
3.06646e+07
3.01728e+07
2.97e+07
2.92447e+07
2.88056e+07
2.83813e+07
2.79701e+07
2.75706e+07
2.71808e+07
2.67986e+07
2.64214e+07
2.60459e+07
2.56674e+07
2.52793e+07
2.48734e+07
3.22248e+07
3.17092e+07
3.11777e+07
3.06655e+07
3.01738e+07
2.97012e+07
2.92461e+07
2.88073e+07
2.83834e+07
2.79727e+07
2.75739e+07
2.7185e+07
2.68042e+07
2.64292e+07
2.60571e+07
2.56847e+07
2.53085e+07
2.49287e+07
3.22256e+07
3.17103e+07
3.11789e+07
3.06668e+07
3.01753e+07
2.97029e+07
2.92482e+07
2.88098e+07
2.83864e+07
2.79765e+07
2.75787e+07
2.71912e+07
2.68124e+07
2.64403e+07
2.60728e+07
2.5708e+07
2.53451e+07
2.49887e+07
3.22269e+07
3.17117e+07
3.11804e+07
3.06686e+07
3.01774e+07
2.97053e+07
2.9251e+07
2.88133e+07
2.83906e+07
2.79817e+07
2.75852e+07
2.71996e+07
2.68233e+07
2.64549e+07
2.6093e+07
2.57369e+07
2.53876e+07
2.50508e+07
3.22285e+07
3.17136e+07
3.11826e+07
3.06709e+07
3.01801e+07
2.97085e+07
2.92548e+07
2.88178e+07
2.83961e+07
2.79885e+07
2.75937e+07
2.72104e+07
2.68373e+07
2.64733e+07
2.61178e+07
2.57708e+07
2.54344e+07
2.5114e+07
3.22306e+07
3.17161e+07
3.11853e+07
3.0674e+07
3.01835e+07
2.97125e+07
2.92596e+07
2.88235e+07
2.84031e+07
2.79971e+07
2.76044e+07
2.72238e+07
2.68544e+07
2.64955e+07
2.61468e+07
2.58091e+07
2.54846e+07
2.51778e+07
3.22335e+07
3.17192e+07
3.11887e+07
3.06778e+07
3.01879e+07
2.97176e+07
2.92655e+07
2.88306e+07
2.84117e+07
2.80077e+07
2.76174e+07
2.724e+07
2.68748e+07
2.65213e+07
2.61797e+07
2.5851e+07
2.55373e+07
2.5242e+07
3.22371e+07
3.17232e+07
3.1193e+07
3.06825e+07
3.01932e+07
2.97237e+07
2.92728e+07
2.88393e+07
2.84222e+07
2.80204e+07
2.76329e+07
2.72591e+07
2.68985e+07
2.65508e+07
2.62163e+07
2.58961e+07
2.5592e+07
2.53063e+07
3.22425e+07
3.17281e+07
3.11981e+07
3.06882e+07
3.01997e+07
2.97312e+07
2.92816e+07
2.88497e+07
2.84346e+07
2.80353e+07
2.76511e+07
2.72812e+07
2.69254e+07
2.65835e+07
2.62561e+07
2.59439e+07
2.56482e+07
2.53707e+07
3.22472e+07
3.17335e+07
3.12039e+07
3.06944e+07
3.02067e+07
2.97393e+07
2.92911e+07
2.88609e+07
2.84479e+07
2.80512e+07
2.76701e+07
2.73041e+07
2.69529e+07
2.66164e+07
2.62951e+07
2.59896e+07
2.57008e+07
2.54298e+07
3.22539e+07
3.17398e+07
3.12104e+07
3.07016e+07
3.02148e+07
2.97486e+07
2.93018e+07
2.88735e+07
2.84628e+07
2.80689e+07
2.76911e+07
2.7329e+07
2.69823e+07
2.66511e+07
2.63356e+07
2.60363e+07
2.57536e+07
2.54882e+07
3.22627e+07
3.17482e+07
3.12191e+07
3.0711e+07
3.02254e+07
2.97606e+07
2.93158e+07
2.88899e+07
2.8482e+07
2.80914e+07
2.77176e+07
2.736e+07
2.70186e+07
2.66932e+07
2.63838e+07
2.60909e+07
2.58144e+07
2.55547e+07
3.2274e+07
3.17592e+07
3.12306e+07
3.07235e+07
3.02392e+07
2.97764e+07
2.9334e+07
2.89109e+07
2.85064e+07
2.81198e+07
2.77506e+07
2.73983e+07
2.70625e+07
2.67432e+07
2.64403e+07
2.61538e+07
2.58834e+07
2.56292e+07
3.2288e+07
3.17734e+07
3.12455e+07
3.07397e+07
3.02573e+07
2.97968e+07
2.93572e+07
2.89376e+07
2.85372e+07
2.81552e+07
2.77911e+07
2.74444e+07
2.71147e+07
2.68018e+07
2.65053e+07
2.6225e+07
2.59606e+07
2.57115e+07
3.23057e+07
3.17914e+07
3.12645e+07
3.07604e+07
3.02802e+07
2.98226e+07
2.93864e+07
2.89708e+07
2.85749e+07
2.81979e+07
2.78394e+07
2.74986e+07
2.71751e+07
2.68685e+07
2.65783e+07
2.63039e+07
2.6045e+07
2.58008e+07
3.23262e+07
3.18135e+07
3.12882e+07
3.07861e+07
3.03086e+07
2.98542e+07
2.94219e+07
2.90106e+07
2.86196e+07
2.8248e+07
2.78951e+07
2.75603e+07
2.72428e+07
2.69422e+07
2.66578e+07
2.63889e+07
2.61349e+07
2.58952e+07
3.23519e+07
3.18403e+07
3.13166e+07
3.08167e+07
3.03421e+07
2.98912e+07
2.94629e+07
2.90562e+07
2.86701e+07
2.83037e+07
2.79563e+07
2.76271e+07
2.73153e+07
2.70201e+07
2.67408e+07
2.64767e+07
2.62271e+07
2.59913e+07
3.23773e+07
3.18648e+07
3.13416e+07
3.08433e+07
3.03707e+07
2.99225e+07
2.94972e+07
2.90938e+07
2.87113e+07
2.83487e+07
2.80052e+07
2.76798e+07
2.73717e+07
2.70801e+07
2.68042e+07
2.65433e+07
2.62965e+07
2.60632e+07
3.23933e+07
3.18815e+07
3.1359e+07
3.08617e+07
3.03906e+07
2.9944e+07
2.95207e+07
2.91195e+07
2.87392e+07
2.8379e+07
2.80378e+07
2.77147e+07
2.74089e+07
2.71195e+07
2.68457e+07
2.65866e+07
2.63415e+07
2.61096e+07
3.24067e+07
3.1894e+07
3.13718e+07
3.08753e+07
3.04053e+07
2.996e+07
2.95381e+07
2.91383e+07
2.87597e+07
2.84011e+07
2.80615e+07
2.774e+07
2.74358e+07
2.71478e+07
2.68753e+07
2.66175e+07
2.63735e+07
2.61426e+07
3.24137e+07
3.19024e+07
3.1381e+07
3.08852e+07
3.0416e+07
2.99716e+07
2.95506e+07
2.9152e+07
2.87744e+07
2.84169e+07
2.80785e+07
2.77581e+07
2.74549e+07
2.71679e+07
2.68963e+07
2.66393e+07
2.63961e+07
2.61659e+07
3.24194e+07
3.19082e+07
3.13873e+07
3.08921e+07
3.04235e+07
2.99798e+07
2.95596e+07
2.91616e+07
2.87848e+07
2.84281e+07
2.80904e+07
2.77708e+07
2.74683e+07
2.7182e+07
2.6911e+07
2.66546e+07
2.64119e+07
2.61822e+07
3.2423e+07
3.19121e+07
3.13917e+07
3.08969e+07
3.04288e+07
2.99855e+07
2.95657e+07
2.91683e+07
2.8792e+07
2.84358e+07
2.80986e+07
2.77795e+07
2.74775e+07
2.71917e+07
2.69211e+07
2.66651e+07
2.64227e+07
2.61933e+07
3.24237e+07
3.19143e+07
3.13945e+07
3.09001e+07
3.04323e+07
2.99893e+07
2.95699e+07
2.91728e+07
2.87969e+07
2.8441e+07
2.81042e+07
2.77854e+07
2.74837e+07
2.71982e+07
2.69279e+07
2.66721e+07
2.643e+07
2.62007e+07
3.24243e+07
3.19157e+07
3.13963e+07
3.09022e+07
3.04345e+07
2.99918e+07
2.95726e+07
2.91757e+07
2.88e+07
2.84444e+07
2.81078e+07
2.77892e+07
2.74877e+07
2.72023e+07
2.69323e+07
2.66767e+07
2.64347e+07
2.62055e+07
3.2425e+07
3.19166e+07
3.13974e+07
3.09034e+07
3.04359e+07
2.99933e+07
2.95742e+07
2.91775e+07
2.88019e+07
2.84464e+07
2.81099e+07
2.77915e+07
2.74901e+07
2.72049e+07
2.69349e+07
2.66794e+07
2.64375e+07
2.62084e+07
3.24255e+07
3.19171e+07
3.13979e+07
3.09041e+07
3.04366e+07
2.99941e+07
2.95751e+07
2.91784e+07
2.88029e+07
2.84475e+07
2.81111e+07
2.77927e+07
2.74914e+07
2.72062e+07
2.69363e+07
2.66809e+07
2.6439e+07
2.621e+07
3.24257e+07
3.19173e+07
3.13982e+07
3.09043e+07
3.04369e+07
2.99944e+07
2.95755e+07
2.91788e+07
2.88033e+07
2.84479e+07
2.81116e+07
2.77932e+07
2.74919e+07
2.72068e+07
2.69369e+07
2.66815e+07
2.64396e+07
2.62106e+07
2.09588e+07
2.09572e+07
2.09538e+07
2.09487e+07
2.09418e+07
2.09332e+07
2.09227e+07
2.09103e+07
2.08961e+07
2.08799e+07
2.08619e+07
2.08419e+07
2.08199e+07
2.0796e+07
2.07701e+07
2.07422e+07
2.07123e+07
2.06804e+07
2.06465e+07
2.06107e+07
2.05728e+07
2.0533e+07
2.04912e+07
2.04474e+07
2.04017e+07
2.03541e+07
2.03045e+07
2.02531e+07
2.01997e+07
2.01446e+07
2.00875e+07
2.00287e+07
1.9968e+07
1.99056e+07
1.98415e+07
1.97756e+07
1.97081e+07
1.96388e+07
1.9568e+07
1.94955e+07
1.94215e+07
1.93459e+07
1.92687e+07
1.91901e+07
1.911e+07
1.90285e+07
1.89455e+07
1.88611e+07
1.87754e+07
1.86883e+07
1.86e+07
1.85103e+07
1.84194e+07
1.83272e+07
1.82339e+07
1.81393e+07
1.80436e+07
1.79468e+07
1.78488e+07
1.77497e+07
1.76496e+07
1.75484e+07
1.74462e+07
1.7343e+07
1.72388e+07
1.71337e+07
1.70276e+07
1.69205e+07
1.68126e+07
1.67038e+07
1.65941e+07
1.64835e+07
1.63722e+07
1.626e+07
1.6147e+07
1.60332e+07
1.59187e+07
1.58034e+07
1.56873e+07
1.55706e+07
1.54531e+07
1.5335e+07
1.52162e+07
1.50967e+07
1.49766e+07
1.48558e+07
1.47344e+07
1.46124e+07
1.44899e+07
1.43667e+07
1.4243e+07
1.41187e+07
1.39938e+07
1.38685e+07
1.37426e+07
1.36162e+07
1.34893e+07
1.3362e+07
1.32341e+07
1.31058e+07
1.29771e+07
1.28479e+07
1.27184e+07
1.25884e+07
1.2458e+07
1.23272e+07
1.2196e+07
1.20645e+07
1.19326e+07
1.18004e+07
1.16679e+07
1.1535e+07
1.14019e+07
1.12684e+07
1.11347e+07
1.10007e+07
1.08665e+07
1.0732e+07
1.05973e+07
1.04624e+07
1.03273e+07
1.01921e+07
1.00566e+07
9.92101e+06
9.78528e+06
9.64941e+06
9.51344e+06
9.37737e+06
9.24123e+06
9.10502e+06
8.96876e+06
8.83248e+06
8.69618e+06
8.55989e+06
8.42362e+06
8.28739e+06
8.15122e+06
8.01513e+06
7.87913e+06
7.74325e+06
7.60751e+06
7.47192e+06
7.33651e+06
7.20129e+06
7.06629e+06
6.93154e+06
6.79704e+06
6.66283e+06
6.52893e+06
6.39537e+06
6.26216e+06
6.12933e+06
5.99691e+06
5.86492e+06
5.7334e+06
5.60235e+06
5.47183e+06
5.34185e+06
5.21244e+06
5.08363e+06
4.95546e+06
4.82795e+06
4.70115e+06
4.57507e+06
4.44976e+06
4.32526e+06
4.2016e+06
4.07883e+06
3.95698e+06
3.83611e+06
3.71626e+06
3.5975e+06
3.47988e+06
3.36348e+06
3.24839e+06
3.13472e+06
3.02263e+06
2.91235e+06
2.80427e+06
2.69922e+06
2.09664e+07
2.09647e+07
2.09614e+07
2.09562e+07
2.09493e+07
2.09406e+07
2.093e+07
2.09176e+07
2.09033e+07
2.0887e+07
2.08689e+07
2.08488e+07
2.08267e+07
2.08026e+07
2.07766e+07
2.07486e+07
2.07185e+07
2.06865e+07
2.06525e+07
2.06165e+07
2.05785e+07
2.05385e+07
2.04965e+07
2.04526e+07
2.04067e+07
2.03589e+07
2.03092e+07
2.02576e+07
2.02041e+07
2.01488e+07
2.00916e+07
2.00326e+07
1.99718e+07
1.99092e+07
1.98449e+07
1.97789e+07
1.97112e+07
1.96419e+07
1.95709e+07
1.94983e+07
1.94241e+07
1.93484e+07
1.92712e+07
1.91924e+07
1.91122e+07
1.90305e+07
1.89475e+07
1.8863e+07
1.87772e+07
1.869e+07
1.86016e+07
1.85118e+07
1.84208e+07
1.83286e+07
1.82352e+07
1.81406e+07
1.80448e+07
1.79479e+07
1.78498e+07
1.77507e+07
1.76505e+07
1.75493e+07
1.74471e+07
1.73438e+07
1.72396e+07
1.71344e+07
1.70282e+07
1.69211e+07
1.68132e+07
1.67043e+07
1.65946e+07
1.6484e+07
1.63726e+07
1.62604e+07
1.61474e+07
1.60336e+07
1.5919e+07
1.58037e+07
1.56877e+07
1.55709e+07
1.54534e+07
1.53353e+07
1.52164e+07
1.50969e+07
1.49768e+07
1.4856e+07
1.47346e+07
1.46126e+07
1.449e+07
1.43668e+07
1.42431e+07
1.41188e+07
1.3994e+07
1.38686e+07
1.37427e+07
1.36163e+07
1.34894e+07
1.3362e+07
1.32342e+07
1.31059e+07
1.29772e+07
1.2848e+07
1.27184e+07
1.25884e+07
1.2458e+07
1.23272e+07
1.2196e+07
1.20645e+07
1.19326e+07
1.18004e+07
1.16679e+07
1.1535e+07
1.14019e+07
1.12684e+07
1.11347e+07
1.10007e+07
1.08665e+07
1.0732e+07
1.05973e+07
1.04624e+07
1.03273e+07
1.01921e+07
1.00566e+07
9.92102e+06
9.78528e+06
9.64942e+06
9.51345e+06
9.37738e+06
9.24123e+06
9.10502e+06
8.96877e+06
8.83248e+06
8.69619e+06
8.5599e+06
8.42363e+06
8.2874e+06
8.15123e+06
8.01513e+06
7.87914e+06
7.74326e+06
7.60751e+06
7.47192e+06
7.33651e+06
7.20129e+06
7.06629e+06
6.93154e+06
6.79704e+06
6.66283e+06
6.52894e+06
6.39537e+06
6.26216e+06
6.12933e+06
5.99691e+06
5.86492e+06
5.7334e+06
5.60235e+06
5.47183e+06
5.34185e+06
5.21244e+06
5.08363e+06
4.95546e+06
4.82795e+06
4.70114e+06
4.57507e+06
4.44976e+06
4.32526e+06
4.2016e+06
4.07882e+06
3.95697e+06
3.83609e+06
3.71624e+06
3.59747e+06
3.47984e+06
3.36343e+06
3.24832e+06
3.13463e+06
3.0225e+06
2.91215e+06
2.8039e+06
2.69837e+06
2.09816e+07
2.09799e+07
2.09765e+07
2.09713e+07
2.09643e+07
2.09554e+07
2.09447e+07
2.09322e+07
2.09177e+07
2.09013e+07
2.08829e+07
2.08626e+07
2.08403e+07
2.0816e+07
2.07897e+07
2.07614e+07
2.0731e+07
2.06987e+07
2.06644e+07
2.06281e+07
2.05898e+07
2.05495e+07
2.05072e+07
2.04629e+07
2.04167e+07
2.03686e+07
2.03186e+07
2.02666e+07
2.02128e+07
2.01571e+07
2.00996e+07
2.00403e+07
1.99792e+07
1.99164e+07
1.98518e+07
1.97855e+07
1.97175e+07
1.96479e+07
1.95767e+07
1.95038e+07
1.94294e+07
1.93534e+07
1.9276e+07
1.9197e+07
1.91166e+07
1.90347e+07
1.89514e+07
1.88668e+07
1.87808e+07
1.86934e+07
1.86048e+07
1.85149e+07
1.84238e+07
1.83314e+07
1.82378e+07
1.8143e+07
1.80471e+07
1.79501e+07
1.78519e+07
1.77527e+07
1.76524e+07
1.75511e+07
1.74487e+07
1.73454e+07
1.7241e+07
1.71358e+07
1.70295e+07
1.69224e+07
1.68143e+07
1.67054e+07
1.65956e+07
1.6485e+07
1.63735e+07
1.62613e+07
1.61482e+07
1.60343e+07
1.59197e+07
1.58044e+07
1.56883e+07
1.55715e+07
1.5454e+07
1.53358e+07
1.52169e+07
1.50974e+07
1.49772e+07
1.48564e+07
1.4735e+07
1.46129e+07
1.44903e+07
1.43671e+07
1.42434e+07
1.4119e+07
1.39942e+07
1.38688e+07
1.37429e+07
1.36165e+07
1.34896e+07
1.33622e+07
1.32344e+07
1.31061e+07
1.29773e+07
1.28481e+07
1.27185e+07
1.25885e+07
1.24581e+07
1.23273e+07
1.21961e+07
1.20646e+07
1.19327e+07
1.18005e+07
1.16679e+07
1.15351e+07
1.14019e+07
1.12685e+07
1.11348e+07
1.10008e+07
1.08665e+07
1.07321e+07
1.05974e+07
1.04625e+07
1.03274e+07
1.01921e+07
1.00566e+07
9.92104e+06
9.7853e+06
9.64943e+06
9.51346e+06
9.37739e+06
9.24124e+06
9.10503e+06
8.96878e+06
8.83249e+06
8.69619e+06
8.5599e+06
8.42363e+06
8.2874e+06
8.15123e+06
8.01514e+06
7.87914e+06
7.74326e+06
7.60751e+06
7.47192e+06
7.33651e+06
7.20129e+06
7.0663e+06
6.93154e+06
6.79704e+06
6.66284e+06
6.52894e+06
6.39537e+06
6.26216e+06
6.12933e+06
5.99691e+06
5.86492e+06
5.7334e+06
5.60235e+06
5.47183e+06
5.34185e+06
5.21244e+06
5.08363e+06
4.95546e+06
4.82795e+06
4.70114e+06
4.57506e+06
4.44975e+06
4.32524e+06
4.20158e+06
4.0788e+06
3.95694e+06
3.83606e+06
3.7162e+06
3.59742e+06
3.47977e+06
3.36334e+06
3.2482e+06
3.13446e+06
3.02225e+06
2.91176e+06
2.80324e+06
2.69703e+06
2.10046e+07
2.10028e+07
2.09993e+07
2.0994e+07
2.09868e+07
2.09778e+07
2.09669e+07
2.09541e+07
2.09394e+07
2.09227e+07
2.0904e+07
2.08833e+07
2.08607e+07
2.0836e+07
2.08093e+07
2.07806e+07
2.07499e+07
2.07171e+07
2.06823e+07
2.06455e+07
2.06067e+07
2.05659e+07
2.05232e+07
2.04784e+07
2.04317e+07
2.03831e+07
2.03326e+07
2.02802e+07
2.02259e+07
2.01697e+07
2.01118e+07
2.0052e+07
1.99904e+07
1.99271e+07
1.98621e+07
1.97954e+07
1.9727e+07
1.9657e+07
1.95853e+07
1.95121e+07
1.94373e+07
1.9361e+07
1.92831e+07
1.92038e+07
1.91231e+07
1.90409e+07
1.89573e+07
1.88724e+07
1.87861e+07
1.86985e+07
1.86096e+07
1.85195e+07
1.84281e+07
1.83355e+07
1.82417e+07
1.81467e+07
1.80506e+07
1.79534e+07
1.78551e+07
1.77557e+07
1.76552e+07
1.75537e+07
1.74512e+07
1.73477e+07
1.72433e+07
1.71378e+07
1.70315e+07
1.69242e+07
1.68161e+07
1.67071e+07
1.65972e+07
1.64865e+07
1.63749e+07
1.62625e+07
1.61494e+07
1.60355e+07
1.59208e+07
1.58054e+07
1.56892e+07
1.55723e+07
1.54548e+07
1.53365e+07
1.52176e+07
1.5098e+07
1.49778e+07
1.4857e+07
1.47355e+07
1.46134e+07
1.44908e+07
1.43676e+07
1.42438e+07
1.41194e+07
1.39945e+07
1.38691e+07
1.37432e+07
1.36168e+07
1.34898e+07
1.33624e+07
1.32346e+07
1.31063e+07
1.29775e+07
1.28483e+07
1.27187e+07
1.25887e+07
1.24582e+07
1.23274e+07
1.21962e+07
1.20647e+07
1.19328e+07
1.18006e+07
1.1668e+07
1.15352e+07
1.1402e+07
1.12685e+07
1.11348e+07
1.10008e+07
1.08666e+07
1.07321e+07
1.05974e+07
1.04625e+07
1.03274e+07
1.01921e+07
1.00567e+07
9.92107e+06
9.78532e+06
9.64945e+06
9.51348e+06
9.3774e+06
9.24126e+06
9.10504e+06
8.96879e+06
8.8325e+06
8.6962e+06
8.55991e+06
8.42364e+06
8.28741e+06
8.15124e+06
8.01514e+06
7.87914e+06
7.74326e+06
7.60752e+06
7.47193e+06
7.33651e+06
7.2013e+06
7.0663e+06
6.93154e+06
6.79705e+06
6.66284e+06
6.52894e+06
6.39537e+06
6.26216e+06
6.12933e+06
5.99691e+06
5.86492e+06
5.7334e+06
5.60235e+06
5.47183e+06
5.34184e+06
5.21243e+06
5.08363e+06
4.95545e+06
4.82794e+06
4.70113e+06
4.57505e+06
4.44974e+06
4.32523e+06
4.20156e+06
4.07877e+06
3.95691e+06
3.83601e+06
3.71614e+06
3.59734e+06
3.47967e+06
3.3632e+06
3.24801e+06
3.1342e+06
3.02189e+06
2.91122e+06
2.80236e+06
2.69547e+06
2.10353e+07
2.10335e+07
2.10299e+07
2.10244e+07
2.10171e+07
2.10078e+07
2.09967e+07
2.09836e+07
2.09685e+07
2.09514e+07
2.09323e+07
2.09112e+07
2.0888e+07
2.08629e+07
2.08356e+07
2.08063e+07
2.0775e+07
2.07417e+07
2.07063e+07
2.06688e+07
2.06294e+07
2.05879e+07
2.05445e+07
2.04991e+07
2.04518e+07
2.04025e+07
2.03513e+07
2.02982e+07
2.02433e+07
2.01865e+07
2.01279e+07
2.00675e+07
2.00053e+07
1.99414e+07
1.98758e+07
1.98085e+07
1.97396e+07
1.9669e+07
1.95968e+07
1.95231e+07
1.94478e+07
1.9371e+07
1.92927e+07
1.92129e+07
1.91318e+07
1.90492e+07
1.89652e+07
1.88799e+07
1.87932e+07
1.87053e+07
1.8616e+07
1.85256e+07
1.84339e+07
1.83409e+07
1.82469e+07
1.81516e+07
1.80553e+07
1.79578e+07
1.78592e+07
1.77596e+07
1.76589e+07
1.75572e+07
1.74545e+07
1.73508e+07
1.72462e+07
1.71406e+07
1.70341e+07
1.69267e+07
1.68184e+07
1.67092e+07
1.65992e+07
1.64884e+07
1.63767e+07
1.62642e+07
1.6151e+07
1.6037e+07
1.59222e+07
1.58067e+07
1.56904e+07
1.55735e+07
1.54559e+07
1.53375e+07
1.52186e+07
1.50989e+07
1.49786e+07
1.48577e+07
1.47362e+07
1.46141e+07
1.44914e+07
1.43681e+07
1.42443e+07
1.41199e+07
1.3995e+07
1.38696e+07
1.37436e+07
1.36171e+07
1.34902e+07
1.33628e+07
1.32349e+07
1.31065e+07
1.29777e+07
1.28485e+07
1.27189e+07
1.25889e+07
1.24584e+07
1.23276e+07
1.21964e+07
1.20648e+07
1.19329e+07
1.18007e+07
1.16681e+07
1.15353e+07
1.14021e+07
1.12686e+07
1.11349e+07
1.10009e+07
1.08667e+07
1.07322e+07
1.05975e+07
1.04626e+07
1.03275e+07
1.01922e+07
1.00567e+07
9.9211e+06
9.78535e+06
9.64948e+06
9.5135e+06
9.37743e+06
9.24128e+06
9.10506e+06
8.9688e+06
8.83252e+06
8.69622e+06
8.55992e+06
8.42365e+06
8.28742e+06
8.15125e+06
8.01515e+06
7.87915e+06
7.74327e+06
7.60752e+06
7.47193e+06
7.33652e+06
7.2013e+06
7.0663e+06
6.93155e+06
6.79705e+06
6.66284e+06
6.52894e+06
6.39537e+06
6.26216e+06
6.12933e+06
5.99691e+06
5.86492e+06
5.7334e+06
5.60235e+06
5.47183e+06
5.34184e+06
5.21243e+06
5.08362e+06
4.95544e+06
4.82793e+06
4.70112e+06
4.57504e+06
4.44972e+06
4.3252e+06
4.20153e+06
4.07873e+06
3.95686e+06
3.83595e+06
3.71606e+06
3.59723e+06
3.47953e+06
3.36302e+06
3.24777e+06
3.13388e+06
3.02143e+06
2.91055e+06
2.80134e+06
2.69383e+06
2.10742e+07
2.10723e+07
2.10685e+07
2.10628e+07
2.10553e+07
2.10457e+07
2.10342e+07
2.10207e+07
2.10052e+07
2.09876e+07
2.09679e+07
2.09462e+07
2.09225e+07
2.08966e+07
2.08687e+07
2.08387e+07
2.08066e+07
2.07725e+07
2.07363e+07
2.0698e+07
2.06578e+07
2.06155e+07
2.05712e+07
2.0525e+07
2.04768e+07
2.04267e+07
2.03746e+07
2.03207e+07
2.02649e+07
2.02073e+07
2.01479e+07
2.00868e+07
2.00238e+07
1.99592e+07
1.98928e+07
1.98248e+07
1.97552e+07
1.96839e+07
1.96111e+07
1.95367e+07
1.94608e+07
1.93834e+07
1.93045e+07
1.92242e+07
1.91425e+07
1.90594e+07
1.89749e+07
1.88891e+07
1.8802e+07
1.87136e+07
1.8624e+07
1.85331e+07
1.8441e+07
1.83477e+07
1.82533e+07
1.81577e+07
1.8061e+07
1.79632e+07
1.78644e+07
1.77645e+07
1.76635e+07
1.75616e+07
1.74586e+07
1.73547e+07
1.72499e+07
1.71441e+07
1.70374e+07
1.69298e+07
1.68213e+07
1.6712e+07
1.66018e+07
1.64908e+07
1.6379e+07
1.62664e+07
1.6153e+07
1.60388e+07
1.59239e+07
1.58083e+07
1.5692e+07
1.55749e+07
1.54572e+07
1.53388e+07
1.52197e+07
1.51e+07
1.49797e+07
1.48587e+07
1.47371e+07
1.46149e+07
1.44922e+07
1.43689e+07
1.4245e+07
1.41205e+07
1.39956e+07
1.38701e+07
1.37441e+07
1.36176e+07
1.34906e+07
1.33632e+07
1.32352e+07
1.31069e+07
1.29781e+07
1.28488e+07
1.27192e+07
1.25891e+07
1.24586e+07
1.23278e+07
1.21966e+07
1.2065e+07
1.19331e+07
1.18009e+07
1.16683e+07
1.15354e+07
1.14022e+07
1.12687e+07
1.1135e+07
1.1001e+07
1.08667e+07
1.07322e+07
1.05975e+07
1.04626e+07
1.03275e+07
1.01922e+07
1.00568e+07
9.92114e+06
9.78539e+06
9.64951e+06
9.51353e+06
9.37745e+06
9.2413e+06
9.10508e+06
8.96882e+06
8.83253e+06
8.69623e+06
8.55994e+06
8.42366e+06
8.28743e+06
8.15126e+06
8.01516e+06
7.87916e+06
7.74328e+06
7.60753e+06
7.47194e+06
7.33652e+06
7.20131e+06
7.06631e+06
6.93155e+06
6.79706e+06
6.66285e+06
6.52894e+06
6.39538e+06
6.26217e+06
6.12934e+06
5.99691e+06
5.86493e+06
5.7334e+06
5.60235e+06
5.47182e+06
5.34184e+06
5.21243e+06
5.08362e+06
4.95544e+06
4.82792e+06
4.70111e+06
4.57502e+06
4.4497e+06
4.32517e+06
4.20149e+06
4.07869e+06
3.9568e+06
3.83588e+06
3.71596e+06
3.59711e+06
3.47937e+06
3.36281e+06
3.24749e+06
3.13349e+06
3.0209e+06
2.90979e+06
2.80024e+06
2.69218e+06
2.11213e+07
2.11193e+07
2.11153e+07
2.11094e+07
2.11016e+07
2.10916e+07
2.10797e+07
2.10657e+07
2.10496e+07
2.10314e+07
2.1011e+07
2.09886e+07
2.09641e+07
2.09374e+07
2.09086e+07
2.08777e+07
2.08447e+07
2.08096e+07
2.07724e+07
2.07332e+07
2.06919e+07
2.06486e+07
2.06033e+07
2.0556e+07
2.05068e+07
2.04556e+07
2.04026e+07
2.03477e+07
2.02909e+07
2.02323e+07
2.01719e+07
2.01098e+07
2.0046e+07
1.99804e+07
1.99132e+07
1.98443e+07
1.97738e+07
1.97018e+07
1.96281e+07
1.9553e+07
1.94763e+07
1.93982e+07
1.93187e+07
1.92377e+07
1.91553e+07
1.90716e+07
1.89865e+07
1.89002e+07
1.88125e+07
1.87236e+07
1.86334e+07
1.85421e+07
1.84495e+07
1.83558e+07
1.82609e+07
1.81649e+07
1.80679e+07
1.79697e+07
1.78705e+07
1.77702e+07
1.7669e+07
1.75667e+07
1.74635e+07
1.73593e+07
1.72542e+07
1.71482e+07
1.70412e+07
1.69334e+07
1.68247e+07
1.67152e+07
1.66048e+07
1.64936e+07
1.63816e+07
1.62689e+07
1.61553e+07
1.6041e+07
1.5926e+07
1.58103e+07
1.56938e+07
1.55766e+07
1.54588e+07
1.53403e+07
1.52211e+07
1.51013e+07
1.49809e+07
1.48598e+07
1.47382e+07
1.46159e+07
1.44931e+07
1.43697e+07
1.42458e+07
1.41213e+07
1.39963e+07
1.38707e+07
1.37447e+07
1.36182e+07
1.34911e+07
1.33636e+07
1.32357e+07
1.31073e+07
1.29784e+07
1.28492e+07
1.27195e+07
1.25894e+07
1.24589e+07
1.23281e+07
1.21968e+07
1.20652e+07
1.19333e+07
1.1801e+07
1.16684e+07
1.15355e+07
1.14023e+07
1.12689e+07
1.11351e+07
1.10011e+07
1.08668e+07
1.07323e+07
1.05976e+07
1.04627e+07
1.03276e+07
1.01923e+07
1.00568e+07
9.92119e+06
9.78543e+06
9.64955e+06
9.51357e+06
9.37749e+06
9.24133e+06
9.10511e+06
8.96885e+06
8.83256e+06
8.69625e+06
8.55995e+06
8.42368e+06
8.28744e+06
8.15127e+06
8.01517e+06
7.87917e+06
7.74329e+06
7.60754e+06
7.47195e+06
7.33653e+06
7.20131e+06
7.06631e+06
6.93156e+06
6.79706e+06
6.66285e+06
6.52895e+06
6.39538e+06
6.26217e+06
6.12934e+06
5.99692e+06
5.86493e+06
5.7334e+06
5.60235e+06
5.47182e+06
5.34184e+06
5.21242e+06
5.08361e+06
4.95543e+06
4.82791e+06
4.70109e+06
4.575e+06
4.44967e+06
4.32514e+06
4.20145e+06
4.07863e+06
3.95673e+06
3.83579e+06
3.71585e+06
3.59696e+06
3.47918e+06
3.36256e+06
3.24717e+06
3.13306e+06
3.02031e+06
2.90898e+06
2.79908e+06
2.69055e+06
2.11771e+07
2.11749e+07
2.11708e+07
2.11646e+07
2.11563e+07
2.11459e+07
2.11334e+07
2.11188e+07
2.1102e+07
2.1083e+07
2.10618e+07
2.10385e+07
2.1013e+07
2.09853e+07
2.09555e+07
2.09235e+07
2.08893e+07
2.08531e+07
2.08147e+07
2.07743e+07
2.07318e+07
2.06872e+07
2.06407e+07
2.05922e+07
2.05418e+07
2.04894e+07
2.04351e+07
2.0379e+07
2.03211e+07
2.02613e+07
2.01998e+07
2.01366e+07
2.00716e+07
2.0005e+07
1.99368e+07
1.98669e+07
1.97954e+07
1.97224e+07
1.96479e+07
1.95718e+07
1.94943e+07
1.94154e+07
1.9335e+07
1.92533e+07
1.91702e+07
1.90857e+07
1.9e+07
1.89129e+07
1.88246e+07
1.87351e+07
1.86444e+07
1.85524e+07
1.84593e+07
1.83651e+07
1.82698e+07
1.81733e+07
1.80758e+07
1.79772e+07
1.78776e+07
1.77769e+07
1.76753e+07
1.75727e+07
1.74691e+07
1.73646e+07
1.72592e+07
1.71529e+07
1.70457e+07
1.69376e+07
1.68287e+07
1.67189e+07
1.66083e+07
1.64969e+07
1.63847e+07
1.62718e+07
1.61581e+07
1.60436e+07
1.59284e+07
1.58125e+07
1.56959e+07
1.55786e+07
1.54606e+07
1.5342e+07
1.52227e+07
1.51028e+07
1.49823e+07
1.48611e+07
1.47394e+07
1.46171e+07
1.44942e+07
1.43707e+07
1.42467e+07
1.41221e+07
1.39971e+07
1.38715e+07
1.37454e+07
1.36188e+07
1.34917e+07
1.33642e+07
1.32362e+07
1.31078e+07
1.29789e+07
1.28496e+07
1.27199e+07
1.25897e+07
1.24592e+07
1.23283e+07
1.21971e+07
1.20655e+07
1.19335e+07
1.18012e+07
1.16686e+07
1.15357e+07
1.14025e+07
1.1269e+07
1.11352e+07
1.10012e+07
1.08669e+07
1.07324e+07
1.05977e+07
1.04628e+07
1.03276e+07
1.01923e+07
1.00569e+07
9.92125e+06
9.78549e+06
9.6496e+06
9.51361e+06
9.37753e+06
9.24136e+06
9.10514e+06
8.96887e+06
8.83258e+06
8.69627e+06
8.55997e+06
8.4237e+06
8.28746e+06
8.15128e+06
8.01518e+06
7.87918e+06
7.7433e+06
7.60755e+06
7.47196e+06
7.33654e+06
7.20132e+06
7.06632e+06
6.93156e+06
6.79707e+06
6.66286e+06
6.52895e+06
6.39538e+06
6.26217e+06
6.12934e+06
5.99692e+06
5.86493e+06
5.7334e+06
5.60235e+06
5.47182e+06
5.34183e+06
5.21242e+06
5.0836e+06
4.95542e+06
4.8279e+06
4.70107e+06
4.57498e+06
4.44964e+06
4.3251e+06
4.2014e+06
4.07857e+06
3.95665e+06
3.83569e+06
3.71572e+06
3.5968e+06
3.47897e+06
3.36229e+06
3.24681e+06
3.13259e+06
3.01968e+06
2.90812e+06
2.79791e+06
2.68897e+06
2.12419e+07
2.12396e+07
2.12351e+07
2.12286e+07
2.12198e+07
2.12089e+07
2.11957e+07
2.11803e+07
2.11627e+07
2.11427e+07
2.11206e+07
2.10961e+07
2.10695e+07
2.10406e+07
2.10095e+07
2.09761e+07
2.09407e+07
2.0903e+07
2.08632e+07
2.08214e+07
2.07775e+07
2.07315e+07
2.06835e+07
2.06336e+07
2.05817e+07
2.05279e+07
2.04722e+07
2.04147e+07
2.03554e+07
2.02943e+07
2.02315e+07
2.0167e+07
2.01008e+07
2.0033e+07
1.99635e+07
1.98925e+07
1.98199e+07
1.97458e+07
1.96702e+07
1.95932e+07
1.95147e+07
1.94348e+07
1.93535e+07
1.92709e+07
1.91869e+07
1.91017e+07
1.90151e+07
1.89273e+07
1.88383e+07
1.87481e+07
1.86567e+07
1.85641e+07
1.84704e+07
1.83756e+07
1.82797e+07
1.81828e+07
1.80847e+07
1.79857e+07
1.78856e+07
1.77845e+07
1.76825e+07
1.75795e+07
1.74755e+07
1.73707e+07
1.72649e+07
1.71582e+07
1.70507e+07
1.69423e+07
1.68331e+07
1.67231e+07
1.66123e+07
1.65006e+07
1.63882e+07
1.6275e+07
1.61611e+07
1.60465e+07
1.59311e+07
1.5815e+07
1.56983e+07
1.55808e+07
1.54627e+07
1.5344e+07
1.52246e+07
1.51045e+07
1.49839e+07
1.48626e+07
1.47408e+07
1.46184e+07
1.44954e+07
1.43718e+07
1.42477e+07
1.41231e+07
1.3998e+07
1.38723e+07
1.37462e+07
1.36195e+07
1.34924e+07
1.33648e+07
1.32368e+07
1.31083e+07
1.29794e+07
1.285e+07
1.27203e+07
1.25901e+07
1.24596e+07
1.23287e+07
1.21974e+07
1.20658e+07
1.19338e+07
1.18015e+07
1.16688e+07
1.15359e+07
1.14027e+07
1.12692e+07
1.11354e+07
1.10013e+07
1.08671e+07
1.07325e+07
1.05978e+07
1.04629e+07
1.03277e+07
1.01924e+07
1.00569e+07
9.92131e+06
9.78554e+06
9.64965e+06
9.51366e+06
9.37757e+06
9.2414e+06
9.10518e+06
8.96891e+06
8.83261e+06
8.6963e+06
8.56e+06
8.42372e+06
8.28748e+06
8.1513e+06
8.0152e+06
7.8792e+06
7.74331e+06
7.60756e+06
7.47197e+06
7.33655e+06
7.20133e+06
7.06633e+06
6.93157e+06
6.79707e+06
6.66286e+06
6.52896e+06
6.39539e+06
6.26218e+06
6.12934e+06
5.99692e+06
5.86493e+06
5.7334e+06
5.60235e+06
5.47182e+06
5.34183e+06
5.21241e+06
5.08359e+06
4.95541e+06
4.82788e+06
4.70105e+06
4.57495e+06
4.44961e+06
4.32506e+06
4.20135e+06
4.0785e+06
3.95657e+06
3.83558e+06
3.71558e+06
3.59662e+06
3.47874e+06
3.362e+06
3.24643e+06
3.13209e+06
3.01901e+06
2.90724e+06
2.79674e+06
2.68745e+06
2.13162e+07
2.13137e+07
2.13089e+07
2.13019e+07
2.12926e+07
2.1281e+07
2.1267e+07
2.12507e+07
2.1232e+07
2.12109e+07
2.11875e+07
2.11618e+07
2.11337e+07
2.11034e+07
2.10708e+07
2.10359e+07
2.09988e+07
2.09595e+07
2.09181e+07
2.08746e+07
2.0829e+07
2.07813e+07
2.07317e+07
2.06801e+07
2.06265e+07
2.05711e+07
2.05138e+07
2.04547e+07
2.03939e+07
2.03313e+07
2.0267e+07
2.0201e+07
2.01334e+07
2.00641e+07
1.99934e+07
1.9921e+07
1.98472e+07
1.97719e+07
1.96951e+07
1.96169e+07
1.95373e+07
1.94564e+07
1.93741e+07
1.92904e+07
1.92055e+07
1.91194e+07
1.9032e+07
1.89434e+07
1.88535e+07
1.87626e+07
1.86704e+07
1.85772e+07
1.84828e+07
1.83873e+07
1.82908e+07
1.81932e+07
1.80946e+07
1.7995e+07
1.78945e+07
1.77929e+07
1.76904e+07
1.75869e+07
1.74826e+07
1.73773e+07
1.72712e+07
1.71642e+07
1.70563e+07
1.69476e+07
1.68381e+07
1.67278e+07
1.66166e+07
1.65047e+07
1.63921e+07
1.62787e+07
1.61645e+07
1.60497e+07
1.59341e+07
1.58179e+07
1.57009e+07
1.55833e+07
1.5465e+07
1.53461e+07
1.52266e+07
1.51064e+07
1.49856e+07
1.48643e+07
1.47423e+07
1.46198e+07
1.44967e+07
1.43731e+07
1.42489e+07
1.41242e+07
1.3999e+07
1.38732e+07
1.3747e+07
1.36203e+07
1.34931e+07
1.33655e+07
1.32374e+07
1.31089e+07
1.29799e+07
1.28505e+07
1.27207e+07
1.25906e+07
1.246e+07
1.2329e+07
1.21977e+07
1.20661e+07
1.19341e+07
1.18017e+07
1.16691e+07
1.15361e+07
1.14029e+07
1.12694e+07
1.11356e+07
1.10015e+07
1.08672e+07
1.07327e+07
1.05979e+07
1.0463e+07
1.03278e+07
1.01925e+07
1.0057e+07
9.92138e+06
9.78561e+06
9.64971e+06
9.51371e+06
9.37762e+06
9.24145e+06
9.10521e+06
8.96894e+06
8.83264e+06
8.69633e+06
8.56002e+06
8.42374e+06
8.2875e+06
8.15132e+06
8.01522e+06
7.87921e+06
7.74333e+06
7.60757e+06
7.47198e+06
7.33656e+06
7.20134e+06
7.06634e+06
6.93158e+06
6.79708e+06
6.66287e+06
6.52897e+06
6.39539e+06
6.26218e+06
6.12935e+06
5.99692e+06
5.86493e+06
5.7334e+06
5.60235e+06
5.47182e+06
5.34183e+06
5.21241e+06
5.08359e+06
4.9554e+06
4.82787e+06
4.70103e+06
4.57492e+06
4.44957e+06
4.32502e+06
4.20129e+06
4.07843e+06
3.95648e+06
3.83546e+06
3.71544e+06
3.59643e+06
3.4785e+06
3.36169e+06
3.24603e+06
3.13157e+06
3.01834e+06
2.90635e+06
2.7956e+06
2.68599e+06
2.14006e+07
2.13979e+07
2.13928e+07
2.13852e+07
2.13752e+07
2.13627e+07
2.13477e+07
2.13303e+07
2.13103e+07
2.12879e+07
2.1263e+07
2.12357e+07
2.1206e+07
2.11739e+07
2.11395e+07
2.11028e+07
2.10639e+07
2.10227e+07
2.09793e+07
2.09339e+07
2.08863e+07
2.08367e+07
2.07851e+07
2.07316e+07
2.06762e+07
2.06189e+07
2.05598e+07
2.04989e+07
2.04363e+07
2.0372e+07
2.0306e+07
2.02384e+07
2.01692e+07
2.00984e+07
2.00262e+07
1.99524e+07
1.98771e+07
1.98005e+07
1.97224e+07
1.96429e+07
1.95621e+07
1.948e+07
1.93966e+07
1.93119e+07
1.9226e+07
1.91388e+07
1.90504e+07
1.89609e+07
1.88702e+07
1.87784e+07
1.86854e+07
1.85914e+07
1.84963e+07
1.84001e+07
1.83029e+07
1.82047e+07
1.81055e+07
1.80053e+07
1.79042e+07
1.78021e+07
1.76991e+07
1.75951e+07
1.74903e+07
1.73846e+07
1.72781e+07
1.71707e+07
1.70624e+07
1.69534e+07
1.68435e+07
1.67329e+07
1.66214e+07
1.65093e+07
1.63963e+07
1.62827e+07
1.61683e+07
1.60532e+07
1.59374e+07
1.58209e+07
1.57038e+07
1.5586e+07
1.54676e+07
1.53485e+07
1.52288e+07
1.51085e+07
1.49876e+07
1.48661e+07
1.4744e+07
1.46214e+07
1.44982e+07
1.43744e+07
1.42502e+07
1.41254e+07
1.40001e+07
1.38743e+07
1.3748e+07
1.36212e+07
1.3494e+07
1.33663e+07
1.32381e+07
1.31095e+07
1.29805e+07
1.28511e+07
1.27212e+07
1.2591e+07
1.24604e+07
1.23294e+07
1.21981e+07
1.20664e+07
1.19344e+07
1.1802e+07
1.16693e+07
1.15364e+07
1.14031e+07
1.12696e+07
1.11357e+07
1.10017e+07
1.08674e+07
1.07328e+07
1.05981e+07
1.04631e+07
1.03279e+07
1.01926e+07
1.00571e+07