/*--------------------------------*- C++ -*----------------------------------*\
  =========                 |
  \\      /  F ield         | OpenFOAM: The Open Source CFD Toolbox
   \\    /   O peration     | Website:  https://openfoam.org
    \\  /    A nd           | Version:  7
     \\/     M anipulation  |
\*---------------------------------------------------------------------------*/
FoamFile
{
    version     2.0;
    format      ascii;
    class       volScalarField;
    location    "0.16";
    object      k;
}
// * * * * * * * * * * * * * * * * * * * * * * * * * * * * * * * * * * * * * //

dimensions      [0 2 -2 0 0 0 0];

internalField   nonuniform List<scalar> 
12225
(
0.332317
0.291426
0.257358
0.230626
0.211153
0.197863
0.189255
0.183919
0.180737
0.178901
0.177863
0.177268
0.176902
0.176638
0.176409
0.176172
0.17597
0.177144
0.412401
0.405339
0.384444
0.372422
0.369847
0.372739
0.377795
0.38316
0.388001
0.392015
0.39516
0.39752
0.399225
0.400405
0.401198
0.401621
0.402118
0.401664
0.385493
0.382621
0.37238
0.362672
0.356088
0.352605
0.351413
0.351695
0.352831
0.354386
0.356074
0.357722
0.359241
0.360594
0.36178
0.362787
0.363718
0.36434
0.377227
0.374576
0.368312
0.360829
0.353907
0.348228
0.343849
0.340602
0.338269
0.336638
0.335521
0.334769
0.334272
0.333947
0.333743
0.333613
0.333544
0.333473
0.374686
0.371972
0.367007
0.360936
0.354802
0.349105
0.344022
0.339591
0.335782
0.332533
0.329764
0.327397
0.325363
0.323604
0.322072
0.320726
0.319534
0.318474
0.373367
0.370411
0.366183
0.36115
0.355898
0.350754
0.345875
0.341344
0.337196
0.333432
0.33003
0.326958
0.324181
0.321668
0.319386
0.317308
0.315408
0.313687
0.372514
0.369311
0.365486
0.361143
0.356593
0.35204
0.347595
0.343337
0.339314
0.335548
0.332042
0.328787
0.32577
0.322975
0.320384
0.31798
0.315747
0.3137
0.371961
0.368517
0.364846
0.360913
0.356857
0.352788
0.348776
0.344874
0.341125
0.337554
0.334171
0.33098
0.327977
0.325154
0.322503
0.320014
0.31768
0.315524
0.371601
0.367939
0.364274
0.360547
0.3568
0.35308
0.349418
0.345843
0.342383
0.339058
0.335879
0.33285
0.329971
0.327242
0.324656
0.322209
0.319898
0.317753
0.371367
0.367529
0.3638
0.360144
0.35656
0.353059
0.349643
0.346323
0.34311
0.340014
0.337043
0.334198
0.331481
0.32889
0.326422
0.324075
0.321848
0.319773
0.371216
0.367247
0.36344
0.35978
0.356259
0.352869
0.349602
0.346452
0.34342
0.340506
0.33771
0.335032
0.332469
0.33002
0.327682
0.325452
0.323331
0.321349
0.371127
0.367076
0.363208
0.359518
0.356
0.352647
0.349445
0.346383
0.343454
0.340653
0.337974
0.335413
0.332966
0.330628
0.328396
0.326265
0.324238
0.322343
0.371065
0.366958
0.363043
0.359321
0.355788
0.352439
0.349261
0.346242
0.343372
0.340641
0.33804
0.335563
0.333201
0.33095
0.328803
0.326756
0.324809
0.322989
0.371019
0.366871
0.362922
0.359171
0.355617
0.352256
0.349077
0.346072
0.343227
0.340533
0.337979
0.335555
0.333253
0.331066
0.328985
0.327005
0.325126
0.323372
0.370987
0.366811
0.362842
0.359072
0.355502
0.352126
0.348938
0.345928
0.343086
0.340402
0.337866
0.335466
0.333194
0.331042
0.329
0.327062
0.325228
0.323518
0.370966
0.366773
0.362795
0.35902
0.355443
0.352061
0.348866
0.34585
0.343005
0.34032
0.337786
0.335392
0.333129
0.330988
0.328962
0.327043
0.32523
0.323543
0.370955
0.366756
0.362778
0.359006
0.355433
0.352055
0.348863
0.34585
0.343007
0.340324
0.337792
0.335402
0.333143
0.331007
0.328987
0.327076
0.325271
0.323594
0.370956
0.36676
0.36279
0.35903
0.355471
0.352107
0.34893
0.345931
0.343102
0.340433
0.337914
0.335535
0.333288
0.331164
0.329156
0.327256
0.325462
0.323795
0.370974
0.366797
0.362848
0.359112
0.35558
0.352244
0.349097
0.34613
0.343333
0.340696
0.338208
0.33586
0.333644
0.33155
0.32957
0.327697
0.32593
0.324289
0.371015
0.366882
0.362976
0.359283
0.355798
0.352512
0.349419
0.346508
0.343769
0.34119
0.33876
0.33647
0.334309
0.332269
0.330342
0.328519
0.3268
0.325203
0.371081
0.367016
0.363177
0.359553
0.35614
0.352932
0.349921
0.347094
0.344438
0.34194
0.339589
0.337372
0.33528
0.333302
0.331431
0.329659
0.327983
0.326424
0.371191
0.367242
0.36352
0.360017
0.35673
0.353651
0.350768
0.348063
0.345517
0.343115
0.340844
0.338692
0.336649
0.334705
0.332854
0.33109
0.32941
0.327836
0.371381
0.367644
0.364139
0.360847
0.357755
0.354853
0.352118
0.349523
0.347046
0.344675
0.3424
0.340213
0.338108
0.336081
0.334126
0.332243
0.330433
0.328724
0.371731
0.368398
0.365281
0.362294
0.359411
0.356632
0.353932
0.351285
0.348682
0.346128
0.343625
0.341179
0.338792
0.336471
0.334219
0.332039
0.329937
0.327946
0.372421
0.369829
0.36729
0.364586
0.361717
0.358755
0.35572
0.352628
0.349511
0.346406
0.343342
0.340341
0.33742
0.33459
0.33186
0.329236
0.326723
0.324357
0.373942
0.372661
0.370662
0.36778
0.364275
0.360417
0.356353
0.352193
0.348039
0.343965
0.340019
0.336229
0.332613
0.329181
0.325934
0.322872
0.319994
0.317324
0.377771
0.378982
0.376508
0.371675
0.365881
0.35979
0.353692
0.347767
0.342141
0.33688
0.332008
0.327528
0.323429
0.319691
0.31629
0.3132
0.310397
0.30788
0.3876
0.394032
0.386621
0.374839
0.363296
0.352971
0.343935
0.336124
0.329445
0.323785
0.319025
0.315049
0.311751
0.309033
0.306811
0.305008
0.303563
0.302422
0.402384
0.394874
0.37547
0.356343
0.340873
0.32932
0.321123
0.315593
0.312088
0.310092
0.309222
0.309192
0.309786
0.310837
0.312214
0.313822
0.315592
0.317447
0.351309
0.326982
0.304715
0.284406
0.266231
0.250251
0.236435
0.224658
0.214724
0.20641
0.199496
0.19378
0.189081
0.18524
0.182119
0.179601
0.177587
0.175993
0.00102111
0.00525437
0.00865597
0.0122032
0.0161899
0.0206952
0.0255797
0.0304284
0.0352121
0.0398806
0.044397
0.0487431
0.0529158
0.0569221
0.0607747
0.0644889
0.0680805
0.0715641
0.074953
0.0782582
0.081489
0.0846523
0.0877536
0.0907965
0.0937834
0.0967155
0.0995929
0.102415
0.10518
0.107887
0.110534
0.113118
0.115638
0.118094
0.120484
0.122812
0.125078
0.127287
0.12944
0.131535
0.133567
0.135523
0.137383
0.139123
0.140715
0.142133
0.143348
0.144291
0.144755
0.144103
0.140443
0.140696
0.141194
0.141712
0.142328
0.143051
0.143704
0.144098
0.144579
0.1462
0.149892
0.15024
0.148856
0.148154
0.148182
0.149265
0.14976
0.150849
0.151921
0.150624
0.154099
0.152908
0.155616
0.158489
0.161387
0.164295
0.167202
0.170102
0.17299
0.175862
0.178713
0.181542
0.184344
0.187116
0.189855
0.19256
0.195229
0.197863
0.200467
0.203051
0.205607
0.208103
0.210539
0.212914
0.215226
0.217471
0.219646
0.221749
0.223777
0.225725
0.227593
0.229376
0.231073
0.23268
0.234196
0.235619
0.236946
0.238176
0.239306
0.240336
0.241265
0.242089
0.24281
0.243425
0.243935
0.244338
0.244634
0.244823
0.244905
0.244879
0.244746
0.244507
0.244161
0.24371
0.243155
0.242495
0.241733
0.24087
0.239908
0.238847
0.23769
0.236439
0.235096
0.233663
0.232144
0.23054
0.228856
0.227094
0.225257
0.223349
0.221375
0.219338
0.217243
0.215095
0.212898
0.21066
0.208384
0.206104
0.203957
0.202751
0.201981
0.201214
0.200418
0.199591
0.198736
0.197858
0.19696
0.196047
0.195126
0.1942
0.193277
0.192361
0.191463
0.190598
0.18984
0.189176
0.195167
0.191762
0.205214
0.196339
0.204756
0.199274
0.195406
0.20416
0.204029
0.194917
0.204219
0.198444
0.204214
0.204688
0.00368427
0.0142376
0.0211446
0.0265471
0.0315323
0.0365113
0.0415694
0.046648
0.0516744
0.0565869
0.0613456
0.0659313
0.0703409
0.0745816
0.0786668
0.0826129
0.0864368
0.0901551
0.0937826
0.0973324
0.100816
0.104241
0.107616
0.110946
0.114234
0.117484
0.120697
0.123873
0.127013
0.130117
0.133185
0.136216
0.139211
0.14217
0.145096
0.147993
0.150863
0.153712
0.156543
0.159356
0.162151
0.164919
0.167651
0.170333
0.172955
0.175508
0.177989
0.180389
0.182671
0.184761
0.186654
0.189061
0.191672
0.194474
0.197484
0.200641
0.203877
0.207282
0.211048
0.215096
0.219554
0.223645
0.22808
0.231339
0.235814
0.240383
0.245444
0.250801
0.25719
0.262371
0.266847
0.273614
0.279265
0.284663
0.290115
0.295625
0.301174
0.306748
0.312338
0.317937
0.323537
0.329134
0.334722
0.340296
0.34585
0.35138
0.356879
0.362342
0.367763
0.373115
0.378359
0.38353
0.388628
0.393651
0.398592
0.403446
0.408207
0.412869
0.417426
0.421873
0.426202
0.43041
0.434491
0.438439
0.44225
0.445919
0.449441
0.452812
0.456029
0.459086
0.461982
0.464712
0.467273
0.469663
0.471879
0.473918
0.475779
0.477461
0.47896
0.480277
0.481409
0.482357
0.483119
0.483696
0.484087
0.484293
0.484313
0.484149
0.483802
0.483272
0.482562
0.481673
0.480607
0.479368
0.477957
0.476377
0.474633
0.472729
0.470668
0.468455
0.466097
0.463597
0.460963
0.458202
0.455319
0.45233
0.44922
0.446069
0.442904
0.439848
0.43681
0.43373
0.430604
0.427438
0.424241
0.421023
0.417795
0.414566
0.411346
0.408144
0.40497
0.401832
0.39874
0.3957
0.392724
0.389794
0.38677
0.384597
0.379349
0.379223
0.37891
0.373992
0.372105
0.371882
0.365883
0.365482
0.361354
0.360698
0.35695
0.357312
0.00718622
0.0224515
0.0309545
0.0372422
0.0428049
0.0481285
0.0533846
0.0586043
0.063761
0.0688155
0.0737359
0.0785049
0.0831186
0.0875831
0.0919109
0.0961177
0.10022
0.104234
0.108176
0.112057
0.115889
0.119682
0.123442
0.127175
0.130887
0.134579
0.138255
0.141916
0.145563
0.149199
0.152823
0.156437
0.160045
0.163648
0.167251
0.170859
0.174476
0.17811
0.181767
0.185451
0.189165
0.192911
0.19669
0.2005
0.204344
0.20823
0.212167
0.216173
0.220259
0.224436
0.228731
0.233219
0.237891
0.242757
0.247807
0.25301
0.258346
0.263851
0.269542
0.275346
0.281291
0.28729
0.293428
0.29955
0.305943
0.312441
0.319131
0.325943
0.332909
0.33981
0.346689
0.353815
0.360822
0.367791
0.374768
0.381769
0.388793
0.395836
0.402889
0.409947
0.417002
0.424048
0.43108
0.438091
0.445075
0.452026
0.45894
0.465809
0.472629
0.479354
0.485993
0.492545
0.499007
0.505372
0.511632
0.517779
0.523806
0.529705
0.535469
0.54109
0.54656
0.551873
0.557021
0.561998
0.566798
0.571414
0.57584
0.580072
0.584105
0.587932
0.591551
0.594956
0.598145
0.601113
0.603858
0.606377
0.608668
0.610728
0.612556
0.614151
0.615512
0.616638
0.617529
0.618185
0.618606
0.618793
0.618747
0.61847
0.617962
0.617227
0.616266
0.615082
0.613678
0.612057
0.610225
0.608184
0.605939
0.603496
0.600861
0.598038
0.595036
0.591861
0.58852
0.585024
0.581373
0.577614
0.573739
0.569784
0.565782
0.561781
0.557747
0.553659
0.549515
0.545326
0.541102
0.536854
0.532594
0.528335
0.524087
0.519862
0.51567
0.511522
0.507427
0.503393
0.499438
0.495515
0.491604
0.488156
0.4839
0.481037
0.478229
0.474338
0.471276
0.468712
0.46488
0.462355
0.459117
0.456847
0.454101
0.452386
0.0104989
0.0290553
0.0388176
0.0458268
0.0518181
0.057377
0.0627468
0.0680197
0.0732154
0.0783236
0.0833275
0.0882149
0.0929823
0.0976335
0.102178
0.10663
0.111002
0.115309
0.119565
0.123782
0.12797
0.132137
0.136292
0.14044
0.144585
0.148731
0.152881
0.157037
0.161201
0.165377
0.169565
0.17377
0.177993
0.18224
0.186515
0.190824
0.195174
0.199571
0.204023
0.208536
0.213116
0.217769
0.222497
0.227307
0.232205
0.237198
0.242298
0.247518
0.252871
0.258364
0.264006
0.269806
0.275769
0.281896
0.288182
0.294613
0.301177
0.307878
0.314716
0.321675
0.328757
0.335961
0.343294
0.350735
0.358296
0.365956
0.373732
0.381601
0.389549
0.397554
0.405607
0.413708
0.421815
0.429936
0.438073
0.446231
0.454408
0.462601
0.470804
0.479011
0.487214
0.495406
0.503582
0.511733
0.519854
0.527937
0.535976
0.543963
0.551878
0.559696
0.567419
0.57504
0.582554
0.589951
0.597223
0.604361
0.611354
0.618194
0.624872
0.631378
0.637704
0.643841
0.649781
0.655516
0.661039
0.666342
0.671418
0.676262
0.680867
0.685229
0.68934
0.693198
0.696799
0.700137
0.70321
0.706015
0.70855
0.710813
0.712803
0.714518
0.715958
0.717123
0.718012
0.718628
0.71897
0.71904
0.71884
0.718372
0.717639
0.716644
0.71539
0.713881
0.712122
0.710115
0.707868
0.705384
0.702671
0.699733
0.69658
0.693215
0.68965
0.685891
0.681943
0.677842
0.673585
0.669194
0.664678
0.660063
0.655377
0.650643
0.645854
0.641003
0.636092
0.631132
0.626133
0.62111
0.616074
0.611038
0.606015
0.601016
0.596054
0.591138
0.58628
0.581491
0.576786
0.57213
0.567512
0.563192
0.558752
0.554696
0.550809
0.546664
0.542839
0.539302
0.535543
0.532164
0.528859
0.526023
0.523451
0.521546
0.0132024
0.0341957
0.0450318
0.0526618
0.0590254
0.0647907
0.0702566
0.0755627
0.0807682
0.0858917
0.0909348
0.0958949
0.100771
0.105568
0.110291
0.114952
0.119562
0.124132
0.128675
0.133201
0.137719
0.142238
0.146764
0.151302
0.155857
0.160434
0.165034
0.169661
0.174318
0.179006
0.18373
0.188492
0.193295
0.198145
0.203046
0.208005
0.213026
0.218119
0.223288
0.228542
0.233886
0.239327
0.24487
0.25052
0.256283
0.262166
0.268178
0.274327
0.280619
0.287061
0.293654
0.3004
0.307301
0.314357
0.321565
0.328919
0.336414
0.344045
0.351812
0.359711
0.367741
0.375902
0.384193
0.392603
0.401124
0.409749
0.418476
0.427296
0.436199
0.445176
0.454215
0.463302
0.472426
0.481583
0.490769
0.499981
0.509217
0.518472
0.527737
0.537008
0.546276
0.555533
0.564772
0.573984
0.583162
0.592296
0.601379
0.610404
0.61933
0.628153
0.636869
0.645468
0.653942
0.662281
0.670475
0.678512
0.686381
0.694072
0.701574
0.708876
0.715968
0.722841
0.729485
0.735891
0.742049
0.747952
0.753592
0.758963
0.764056
0.768867
0.773389
0.777617
0.781548
0.785177
0.788501
0.791516
0.794221
0.796614
0.798694
0.80046
0.801913
0.803053
0.803881
0.804398
0.804607
0.804509
0.804108
0.803407
0.80241
0.801121
0.799544
0.797685
0.795549
0.793142
0.790469
0.787539
0.784357
0.780929
0.777271
0.77338
0.769274
0.764974
0.760483
0.755819
0.750991
0.746015
0.740905
0.735682
0.730368
0.724981
0.719523
0.713996
0.708407
0.702765
0.697084
0.691376
0.685655
0.679933
0.674225
0.668541
0.662896
0.657298
0.651762
0.646297
0.640919
0.635608
0.630359
0.62531
0.62033
0.61552
0.610871
0.606225
0.60177
0.597542
0.593387
0.58947
0.585827
0.582627
0.579897
0.577811
0.0152382
0.0381132
0.049801
0.057948
0.064639
0.0706002
0.0761689
0.0815182
0.0867373
0.0918698
0.0969353
0.101942
0.106897
0.111803
0.116668
0.1215
0.126309
0.131105
0.135898
0.140695
0.145507
0.150339
0.155199
0.16009
0.165019
0.169987
0.174999
0.180057
0.185164
0.190323
0.195535
0.200805
0.206136
0.211532
0.216998
0.222539
0.228161
0.23387
0.239673
0.245575
0.251583
0.257703
0.26394
0.2703
0.276787
0.283407
0.290167
0.297072
0.304126
0.311334
0.318697
0.326218
0.333895
0.341731
0.349725
0.357872
0.366171
0.374618
0.383212
0.391949
0.400829
0.40985
0.419007
0.428293
0.437701
0.447225
0.456858
0.466595
0.476426
0.486344
0.496337
0.506396
0.516509
0.526671
0.536875
0.547114
0.557384
0.567676
0.577985
0.5883
0.598614
0.608918
0.619203
0.629458
0.639675
0.649842
0.65995
0.669983
0.679904
0.68971
0.699394
0.708945
0.718353
0.727607
0.736693
0.7456
0.754314
0.762825
0.771119
0.779184
0.787009
0.794582
0.801893
0.808932
0.815688
0.822152
0.828315
0.83417
0.839709
0.844925
0.849813
0.854368
0.858583
0.862456
0.865983
0.869161
0.871989
0.874464
0.876587
0.878358
0.879777
0.880846
0.881566
0.88194
0.881972
0.881664
0.881021
0.880047
0.878749
0.87713
0.875197
0.872957
0.870418
0.867585
0.864463
0.861069
0.857406
0.853472
0.849304
0.8449
0.840274
0.835439
0.830406
0.825189
0.819801
0.814255
0.808568
0.802758
0.796842
0.790838
0.784754
0.778595
0.772371
0.766094
0.759775
0.753429
0.747068
0.740707
0.734359
0.728035
0.721749
0.715513
0.709338
0.703237
0.697223
0.691288
0.685431
0.679722
0.674132
0.668676
0.663369
0.658157
0.653114
0.648282
0.643626
0.639222
0.635161
0.631575
0.628524
0.626095
0.0167231
0.0409841
0.0533139
0.0618701
0.0688366
0.0749777
0.0806543
0.0860607
0.091307
0.0964555
0.101541
0.106583
0.111594
0.116583
0.121558
0.126526
0.131497
0.136479
0.141479
0.146507
0.151569
0.156672
0.161822
0.167022
0.172278
0.177593
0.182969
0.18841
0.193917
0.199493
0.205141
0.210863
0.216663
0.222544
0.22851
0.234566
0.240718
0.24697
0.253328
0.259798
0.266386
0.273097
0.279936
0.28691
0.294021
0.301277
0.308681
0.316238
0.323954
0.33183
0.33987
0.348076
0.356449
0.36499
0.373699
0.382576
0.391618
0.400824
0.410192
0.419719
0.429404
0.439243
0.449232
0.459366
0.469637
0.480039
0.490566
0.50121
0.511965
0.522821
0.533769
0.544798
0.555899
0.567063
0.578281
0.589546
0.600849
0.612181
0.623534
0.634897
0.646261
0.657616
0.66895
0.680252
0.691512
0.702717
0.713857
0.724889
0.735803
0.746588
0.757236
0.767734
0.77807
0.788229
0.798199
0.807965
0.817514
0.82683
0.8359
0.844712
0.853251
0.861506
0.869463
0.877112
0.884441
0.891439
0.898098
0.904409
0.910363
0.915954
0.921175
0.926021
0.930486
0.934567
0.938261
0.941563
0.944474
0.946992
0.949118
0.950852
0.952197
0.953154
0.953726
0.953916
0.953731
0.953173
0.952249
0.950965
0.949328
0.947345
0.945023
0.942369
0.939396
0.936111
0.932512
0.92863
0.924471
0.920039
0.915354
0.910427
0.905268
0.899893
0.894313
0.888543
0.882595
0.876485
0.870228
0.863841
0.85734
0.850741
0.844055
0.837292
0.830463
0.823579
0.816653
0.809699
0.80273
0.79576
0.788801
0.781868
0.774971
0.768123
0.761337
0.754624
0.747997
0.741455
0.735
0.72867
0.722467
0.716397
0.710472
0.70468
0.69906
0.693652
0.688468
0.683566
0.679041
0.675013
0.67153
0.668636
0.0177219
0.0429606
0.0557466
0.0646076
0.0717923
0.0780874
0.0838669
0.0893372
0.094621
0.0997933
0.104901
0.109972
0.115026
0.120076
0.125133
0.130205
0.135301
0.140428
0.145596
0.150811
0.156079
0.161406
0.166799
0.17226
0.177794
0.183404
0.189093
0.194863
0.200717
0.206656
0.212683
0.2188
0.225009
0.231315
0.23772
0.244229
0.250845
0.257575
0.264422
0.271393
0.278492
0.285726
0.293099
0.300617
0.308285
0.316107
0.324089
0.332236
0.340551
0.349039
0.357703
0.366545
0.375569
0.384774
0.394163
0.403736
0.413492
0.423429
0.433547
0.443843
0.454314
0.464957
0.475768
0.486742
0.497872
0.509151
0.520574
0.532131
0.543815
0.555617
0.567528
0.579536
0.591632
0.603805
0.616045
0.628343
0.640687
0.653067
0.665473
0.677893
0.690316
0.70273
0.715122
0.727479
0.739788
0.752035
0.764203
0.776243
0.788151
0.799916
0.811526
0.822968
0.834226
0.845285
0.85613
0.866745
0.877115
0.887223
0.897055
0.906596
0.91583
0.924746
0.933327
0.941563
0.94944
0.956947
0.964074
0.970811
0.97715
0.983084
0.988605
0.993708
0.998389
1.00264
1.00647
1.00986
1.01281
1.01534
1.01742
1.01908
1.02031
1.02112
1.02151
1.02147
1.02103
1.02019
1.01895
1.01731
1.01531
1.01293
1.01018
1.00708
1.00365
0.999884
0.995803
0.991421
0.986749
0.981798
0.976584
0.971119
0.965418
0.959495
0.953363
0.947037
0.940531
0.93386
0.927038
0.920083
0.91301
0.905834
0.898568
0.891223
0.883813
0.876347
0.86884
0.861305
0.853755
0.846203
0.838662
0.831144
0.823663
0.816229
0.808855
0.801552
0.794333
0.787201
0.780159
0.773231
0.766429
0.759761
0.753238
0.746864
0.740671
0.734696
0.728969
0.723548
0.718521
0.713995
0.709997
0.706551
0.0182968
0.0441789
0.0572609
0.0663312
0.0736749
0.0800907
0.0859578
0.0914883
0.0968115
0.10201
0.107139
0.112233
0.117318
0.122411
0.127525
0.13267
0.137857
0.143093
0.148387
0.153745
0.159174
0.164679
0.170265
0.175938
0.181699
0.187553
0.193502
0.199548
0.205694
0.211941
0.218291
0.224746
0.231309
0.237983
0.24477
0.251674
0.2587
0.265851
0.273132
0.280549
0.288107
0.295811
0.303667
0.311681
0.319857
0.328201
0.336718
0.345413
0.354292
0.363358
0.372615
0.382068
0.391718
0.401568
0.41162
0.421875
0.432332
0.442991
0.453851
0.46491
0.476165
0.487613
0.499248
0.511067
0.523061
0.535226
0.547552
0.560032
0.572656
0.585416
0.598301
0.611299
0.624399
0.637591
0.650861
0.664198
0.677591
0.691026
0.704492
0.717975
0.731462
0.74494
0.758393
0.771808
0.78517
0.798465
0.811641
0.824683
0.837578
0.850314
0.862876
0.875248
0.887414
0.899356
0.911058
0.922501
0.93367
0.944546
0.955113
0.965355
0.975257
0.984802
0.993977
1.00277
1.01116
1.01914
1.0267
1.03382
1.04051
1.04675
1.05253
1.05785
1.06271
1.06709
1.07101
1.07444
1.07741
1.07989
1.08191
1.08345
1.08453
1.08515
1.0853
1.08501
1.08428
1.08311
1.08152
1.0795
1.07709
1.07428
1.07109
1.06753
1.06362
1.05936
1.05478
1.04988
1.04468
1.0392
1.03344
1.02743
1.02118
1.01471
1.00802
1.00114
0.994078
0.986851
0.979475
0.971964
0.964334
0.956601
0.948778
0.940876
0.93291
0.924891
0.916831
0.908743
0.900641
0.892537
0.884443
0.876371
0.868332
0.86034
0.852404
0.844537
0.836749
0.829046
0.821434
0.813929
0.806546
0.799295
0.792189
0.785239
0.778476
0.771935
0.765655
0.759694
0.754132
0.749059
0.744485
0.740425
0.0185073
0.0447596
0.0580029
0.067198
0.074644
0.0811431
0.087075
0.0926529
0.0980089
0.10323
0.108374
0.113483
0.118585
0.123702
0.128849
0.13404
0.139285
0.144594
0.149974
0.155433
0.160978
0.166614
0.172347
0.178181
0.184119
0.190165
0.196322
0.202592
0.208977
0.215479
0.222099
0.22884
0.235705
0.242695
0.249813
0.257064
0.26445
0.271976
0.279647
0.287467
0.295443
0.303579
0.311882
0.320357
0.32901
0.337847
0.346874
0.356096
0.365518
0.375146
0.384984
0.395036
0.405305
0.415795
0.426507
0.437443
0.448603
0.459988
0.471595
0.483423
0.495469
0.50773
0.520201
0.532875
0.545747
0.558808
0.572051
0.585466
0.599043
0.612771
0.62664
0.640637
0.654749
0.668964
0.683268
0.697648
0.71209
0.72658
0.741104
0.755646
0.770192
0.784726
0.799233
0.813696
0.828099
0.842409
0.85658
0.870603
0.884463
0.898144
0.91163
0.924902
0.937943
0.950733
0.963254
0.975487
0.987413
0.999014
1.01027
1.02117
1.03169
1.04182
1.05154
1.06084
1.06969
1.0781
1.08604
1.0935
1.10049
1.10698
1.11297
1.11846
1.12344
1.12792
1.13187
1.13531
1.13823
1.14064
1.14254
1.14392
1.14481
1.14519
1.14509
1.1445
1.14344
1.14192
1.13995
1.13753
1.13469
1.13144
1.12778
1.12374
1.11933
1.11457
1.10946
1.10403
1.0983
1.09227
1.08597
1.07942
1.07262
1.06559
1.05836
1.05093
1.04333
1.03556
1.02764
1.01959
1.01143
1.00317
0.994813
0.986385
0.977895
0.969355
0.960776
0.952171
0.943552
0.93493
0.926318
0.917726
0.909166
0.900648
0.892183
0.883782
0.875454
0.867208
0.859048
0.85099
0.843048
0.835233
0.82756
0.820046
0.812718
0.805613
0.798774
0.792257
0.786131
0.780475
0.775281
0.770564
0.0184099
0.0448093
0.0581023
0.0673502
0.0748467
0.0813913
0.0873608
0.0929669
0.0983416
0.103573
0.108722
0.113833
0.118937
0.124059
0.129217
0.134426
0.139699
0.145044
0.150473
0.155993
0.161611
0.167334
0.173166
0.179114
0.185181
0.19137
0.197685
0.204129
0.210704
0.217411
0.224254
0.231233
0.238353
0.245614
0.253021
0.260577
0.268285
0.276149
0.284176
0.292369
0.300734
0.309278
0.318005
0.326924
0.336038
0.345356
0.354883
0.364624
0.374587
0.384776
0.395196
0.405852
0.416747
0.427885
0.439268
0.450898
0.462774
0.474898
0.487268
0.499882
0.512737
0.525828
0.53915
0.552697
0.566462
0.580435
0.594608
0.60897
0.623509
0.638214
0.653073
0.668072
0.683197
0.698434
0.713767
0.729181
0.744662
0.760193
0.775758
0.79134
0.806923
0.82249
0.838024
0.853505
0.868915
0.884187
0.899309
0.914268
0.929046
0.943623
0.95798
0.972097
0.985954
0.999531
1.01281
1.02577
1.03838
1.05064
1.06252
1.07401
1.08508
1.09572
1.10592
1.11565
1.12491
1.13366
1.14192
1.14965
1.15687
1.16355
1.16969
1.17529
1.18034
1.18484
1.18878
1.19217
1.195
1.19727
1.199
1.20019
1.20084
1.20096
1.20055
1.19964
1.19823
1.19633
1.19395
1.19111
1.18783
1.18411
1.17998
1.17544
1.17053
1.16525
1.15962
1.15366
1.14739
1.14082
1.13398
1.12688
1.11955
1.11198
1.10422
1.09626
1.08813
1.07984
1.07142
1.06286
1.05419
1.04543
1.03659
1.02767
1.0187
1.00968
1.00062
0.991542
0.982449
0.973355
0.964268
0.9552
0.94616
0.937158
0.928203
0.919307
0.910477
0.901721
0.893046
0.884465
0.875991
0.867638
0.85942
0.851357
0.843476
0.835815
0.828415
0.82133
0.814622
0.808357
0.802514
0.797111
0.0180573
0.044422
0.0576738
0.0669143
0.0744161
0.0809704
0.0869491
0.0925606
0.0979354
0.103161
0.1083
0.113397
0.118486
0.123593
0.128739
0.133939
0.139209
0.14456
0.150002
0.155545
0.161196
0.166963
0.172853
0.178871
0.185021
0.191309
0.197738
0.204311
0.211031
0.217901
0.224924
0.232102
0.239439
0.246936
0.254598
0.262429
0.270431
0.278611
0.286972
0.295521
0.304262
0.313203
0.32235
0.331708
0.341286
0.351088
0.361122
0.371395
0.381911
0.392678
0.403699
0.414979
0.426523
0.438334
0.450413
0.462763
0.475383
0.488274
0.501433
0.514858
0.528545
0.54249
0.556686
0.571126
0.585802
0.600704
0.61582
0.631138
0.646645
0.662329
0.678176
0.69417
0.710296
0.726538
0.74288
0.759305
0.775795
0.792333
0.808902
0.825484
0.84206
0.858611
0.87512
0.891568
0.907884
0.924051
0.940053
0.955872
0.971492
0.986883
1.00202
1.0169
1.03148
1.04575
1.05969
1.07327
1.08648
1.0993
1.11171
1.12368
1.1352
1.14626
1.15683
1.16691
1.17647
1.18549
1.19397
1.20189
1.20924
1.21603
1.22224
1.22787
1.23291
1.23736
1.24123
1.2445
1.24718
1.24928
1.2508
1.25174
1.25211
1.25193
1.2512
1.24993
1.24814
1.24584
1.24304
1.23976
1.23602
1.23183
1.22721
1.22218
1.21676
1.21097
1.20482
1.19834
1.19154
1.18445
1.17709
1.16947
1.16161
1.15354
1.14527
1.13681
1.12819
1.11942
1.11052
1.1015
1.09237
1.08316
1.07387
1.06451
1.05511
1.04566
1.03618
1.02668
1.01717
1.00765
0.998148
0.988656
0.979189
0.969755
0.960361
0.951017
0.941731
0.93251
0.923361
0.914295
0.905326
0.896466
0.887731
0.879143
0.870728
0.862522
0.854567
0.846913
0.839614
0.832725
0.826216
0.820111
0.0174988
0.0436799
0.0568179
0.0660023
0.073471
0.0800031
0.0859636
0.0915569
0.0969111
0.102113
0.107223
0.112289
0.117344
0.122416
0.127527
0.132695
0.137935
0.143261
0.148685
0.154217
0.159867
0.165642
0.171551
0.177601
0.183797
0.190145
0.196649
0.203315
0.210146
0.217146
0.224319
0.231667
0.239194
0.246905
0.254803
0.262893
0.271178
0.279665
0.288358
0.297263
0.306387
0.315735
0.325314
0.335132
0.345194
0.355507
0.366079
0.376914
0.38802
0.399401
0.411063
0.423009
0.435244
0.44777
0.460588
0.4737
0.487105
0.500802
0.514788
0.52906
0.543613
0.55844
0.573536
0.588891
0.604496
0.62034
0.636407
0.652683
0.669154
0.685805
0.702622
0.719588
0.736685
0.753896
0.771204
0.788589
0.806033
0.823518
0.841024
0.858532
0.876023
0.893477
0.910877
0.928149
0.94527
0.962223
0.97899
0.995553
1.0119
1.02798
1.04378
1.05928
1.07445
1.08928
1.10375
1.11782
1.13149
1.14474
1.15753
1.16986
1.1817
1.19303
1.20385
1.21414
1.22387
1.23304
1.24163
1.24962
1.25703
1.26382
1.27001
1.27558
1.28053
1.28487
1.28858
1.29167
1.29415
1.29601
1.29726
1.29791
1.29798
1.29746
1.29637
1.29472
1.29253
1.28981
1.28658
1.28285
1.27865
1.27398
1.26888
1.26336
1.25745
1.25116
1.24451
1.23752
1.23023
1.22264
1.21479
1.20668
1.19835
1.1898
1.18107
1.17216
1.1631
1.15389
1.14457
1.13513
1.12561
1.116
1.10633
1.0966
1.08682
1.07701
1.06718
1.05732
1.04746
1.03759
1.02773
1.01788
1.00805
0.998246
0.988474
0.978742
0.969057
0.959425
0.949853
0.940351
0.930931
0.921606
0.912392
0.903311
0.894388
0.885659
0.877163
0.868946
0.861057
0.853541
0.846362
0.83955
0.0167796
0.0426553
0.0556216
0.0647114
0.0721162
0.078599
0.0845171
0.0900702
0.0953836
0.100542
0.105607
0.110623
0.115626
0.120645
0.125701
0.130815
0.136003
0.14128
0.14666
0.152154
0.157774
0.163529
0.169429
0.175482
0.181696
0.188078
0.194633
0.201369
0.20829
0.215402
0.222708
0.230215
0.237926
0.245847
0.253983
0.262338
0.270918
0.279728
0.288775
0.298064
0.307602
0.317395
0.32745
0.337774
0.348372
0.359251
0.370418
0.381878
0.393636
0.405698
0.418066
0.430745
0.443737
0.457043
0.470663
0.484598
0.498845
0.513402
0.528263
0.543425
0.55888
0.574622
0.59064
0.606926
0.62347
0.640267
0.657281
0.674498
0.691908
0.709493
0.727237
0.745122
0.763129
0.781239
0.799434
0.817693
0.835996
0.854325
0.872659
0.890979
0.909266
0.927492
0.945587
0.963531
0.981302
0.99888
1.01624
1.03337
1.05024
1.06683
1.0831
1.09904
1.11463
1.12984
1.14466
1.15905
1.173
1.1865
1.19951
1.21202
1.22402
1.23548
1.2464
1.25674
1.26651
1.27568
1.28425
1.29219
1.29952
1.30621
1.31227
1.31768
1.32245
1.32658
1.33006
1.3329
1.3351
1.33666
1.3376
1.33791
1.33762
1.33673
1.33525
1.3332
1.33059
1.32745
1.32378
1.3196
1.31495
1.30982
1.30426
1.29827
1.29189
1.28512
1.27801
1.27056
1.26281
1.25477
1.24647
1.23793
1.22917
1.22021
1.21107
1.20178
1.19234
1.18277
1.17309
1.16332
1.15346
1.14354
1.13356
1.12354
1.11347
1.10338
1.09327
1.08314
1.073
1.06286
1.05273
1.0426
1.03248
1.02238
1.01231
1.00226
0.992244
0.982267
0.972334
0.962455
0.95264
0.942902
0.933256
0.923723
0.914329
0.905106
0.896093
0.887331
0.878864
0.870729
0.862888
0.855375
0.0159391
0.0414027
0.0541553
0.0631229
0.0704413
0.0768545
0.0827112
0.0882062
0.093462
0.0985617
0.103565
0.108518
0.113454
0.118404
0.123391
0.128436
0.133556
0.138768
0.144088
0.149528
0.155102
0.160822
0.166699
0.172743
0.178964
0.185371
0.191973
0.198777
0.205791
0.213022
0.220475
0.228157
0.236074
0.244234
0.252642
0.261303
0.270225
0.279414
0.288875
0.298616
0.308641
0.318958
0.329573
0.340491
0.351719
0.363261
0.375122
0.387307
0.39982
0.412662
0.425838
0.439346
0.453189
0.467365
0.481872
0.496708
0.511868
0.527347
0.543138
0.559233
0.575625
0.592301
0.609253
0.626466
0.643928
0.661624
0.679532
0.697636
0.715917
0.734358
0.75294
0.771643
0.790448
0.809335
0.828283
0.847272
0.866283
0.885296
0.904288
0.923248
0.942125
0.960866
0.979449
0.997854
1.01606
1.03404
1.05177
1.06923
1.08641
1.10327
1.11978
1.13594
1.15171
1.16707
1.18201
1.1965
1.21051
1.22404
1.23707
1.24957
1.26152
1.27292
1.28374
1.29397
1.3036
1.31261
1.321
1.32875
1.33586
1.34231
1.34812
1.35326
1.35774
1.36157
1.36473
1.36723
1.36909
1.37029
1.37086
1.37079
1.37011
1.36882
1.36693
1.36446
1.36144
1.35786
1.35376
1.34915
1.34406
1.3385
1.3325
1.32609
1.31927
1.31209
1.30456
1.29671
1.28856
1.28013
1.27146
1.26255
1.25344
1.24414
1.23468
1.22508
1.21534
1.2055
1.19556
1.18554
1.17545
1.16531
1.15511
1.14489
1.13463
1.12435
1.11406
1.10376
1.09344
1.08313
1.07281
1.0625
1.05219
1.04188
1.03159
1.02131
1.01105
1.0008
0.990586
0.9804
0.970257
0.960167
0.950147
0.940215
0.930396
0.92072
0.911224
0.901946
0.892924
0.884191
0.875706
0.867508
0.0150698
0.0398859
0.0524045
0.0612391
0.0684597
0.0747915
0.0805745
0.0859993
0.0911856
0.0962149
0.101146
0.106025
0.110886
0.115759
0.120669
0.125638
0.130685
0.135829
0.141087
0.146475
0.152007
0.157698
0.163563
0.169613
0.175861
0.182319
0.188999
0.195909
0.203061
0.210463
0.218124
0.226052
0.234257
0.242745
0.251525
0.260603
0.269985
0.27968
0.289692
0.300028
0.310693
0.321692
0.33303
0.344711
0.356739
0.369116
0.381844
0.394925
0.408359
0.422147
0.436286
0.450774
0.465609
0.480785
0.496298
0.51214
0.528304
0.544781
0.561562
0.578635
0.595989
0.61361
0.631484
0.649596
0.667931
0.686471
0.705196
0.724087
0.743125
0.76229
0.781562
0.800922
0.820349
0.839822
0.859321
0.878828
0.898322
0.91779
0.937193
0.956476
0.975615
0.994586
1.01337
1.03194
1.05027
1.06835
1.08614
1.10364
1.12081
1.13764