/*--------------------------------*- C++ -*----------------------------------*\
  =========                 |
  \\      /  F ield         | OpenFOAM: The Open Source CFD Toolbox
   \\    /   O peration     | Website:  https://openfoam.org
    \\  /    A nd           | Version:  7
     \\/     M anipulation  |
\*---------------------------------------------------------------------------*/
FoamFile
{
    version     2.0;
    format      ascii;
    class       volScalarField;
    location    "0.16";
    object      nut;
}
// * * * * * * * * * * * * * * * * * * * * * * * * * * * * * * * * * * * * * //

dimensions      [0 2 -1 0 0 0 0];

internalField   nonuniform List<scalar> 
12225
(
3.8006e-05
3.33294e-05
2.94332e-05
2.6376e-05
2.41489e-05
2.26289e-05
2.16445e-05
2.10342e-05
2.06703e-05
2.04603e-05
2.03416e-05
2.02736e-05
2.02317e-05
2.02015e-05
2.01753e-05
2.01482e-05
2.01251e-05
2.02593e-05
0.000205723
0.000151533
0.000127318
0.00011441
0.000107379
0.000103277
0.000100623
9.87124e-05
9.72117e-05
9.5959e-05
9.48743e-05
9.39183e-05
9.30706e-05
9.23175e-05
9.16513e-05
9.10497e-05
9.05507e-05
8.99676e-05
0.000418642
0.000297001
0.000242051
0.000210268
0.000189712
0.000175344
0.000164791
0.00015679
0.000150575
0.000145644
0.000141658
0.000138385
0.000135663
0.000133375
0.000131436
0.000129772
0.000128353
0.000127067
0.000615536
0.000473546
0.000392592
0.000341284
0.000306017
0.000280087
0.000260127
0.000244315
0.000231533
0.000221035
0.000212301
0.000204957
0.000198728
0.000193404
0.000188823
0.000184853
0.000181401
0.000178389
0.000739725
0.000627506
0.000543984
0.000483432
0.000438569
0.000404024
0.000376523
0.000354098
0.000335475
0.000319781
0.000306398
0.000294878
0.000284885
0.000276161
0.000268503
0.000261746
0.000255766
0.000250527
0.000803283
0.00073306
0.000666702
0.000610797
0.000565222
0.000527904
0.00049693
0.000470878
0.000448701
0.00042961
0.000413017
0.000398477
0.000385651
0.000374271
0.000364126
0.000355043
0.000346893
0.000339697
0.000832284
0.00079459
0.000750951
0.000708341
0.000669781
0.000635811
0.000606104
0.000580133
0.000557355
0.000537277
0.000519481
0.000503623
0.000489422
0.000476649
0.000465117
0.00045467
0.000445197
0.000436774
0.000844509
0.000826357
0.00080147
0.000773645
0.000745694
0.000719053
0.000694319
0.000671674
0.000651083
0.000632403
0.000615454
0.000600054
0.000586033
0.00057324
0.000561541
0.000550823
0.000541006
0.000532218
0.000849308
0.000841192
0.000828458
0.00081244
0.000794697
0.000776397
0.000758295
0.000740855
0.000724325
0.000708814
0.000694343
0.000680885
0.000668389
0.000656794
0.000646034
0.000636048
0.000626804
0.000618458
0.000851043
0.000847506
0.000841448
0.000833091
0.000823014
0.00081183
0.000800055
0.000788095
0.000776245
0.000764703
0.000753589
0.000742971
0.000732884
0.000723336
0.000714322
0.00070583
0.000697867
0.000690602
0.000851597
0.000849941
0.000847101
0.000842991
0.000837725
0.000831517
0.000824608
0.00081723
0.00080959
0.000801856
0.000794155
0.00078658
0.000779197
0.000772051
0.000765169
0.000758573
0.000752296
0.000746494
0.000851725
0.000850709
0.000849144
0.00084693
0.000844053
0.00084056
0.000836535
0.000832084
0.000827318
0.00082234
0.00081724
0.000812093
0.000806959
0.000801885
0.000796908
0.000792057
0.000787375
0.000783003
0.000851737
0.000850954
0.00084994
0.000848639
0.000847018
0.00084507
0.000842806
0.000840257
0.000837464
0.000834475
0.000831338
0.000828096
0.000824791
0.000821456
0.000818123
0.000814818
0.000811579
0.000808516
0.00085171
0.000850987
0.000850182
0.000849277
0.000848261
0.000847121
0.000845852
0.000844453
0.00084293
0.000841294
0.00083956
0.000837745
0.000835864
0.000833936
0.000831976
0.000830002
0.000828041
0.000826163
0.000851676
0.000850949
0.000850197
0.000849419
0.000848622
0.000847804
0.000846965
0.0008461
0.000845208
0.000844287
0.000843336
0.000842357
0.000841353
0.000840325
0.00083928
0.000838224
0.000837171
0.000836163
0.000851651
0.000850908
0.000850159
0.000849408
0.000848666
0.000847939
0.000847233
0.000846548
0.000845883
0.000845236
0.000844605
0.000843987
0.000843379
0.00084278
0.000842189
0.000841606
0.00084104
0.000840514
0.000851637
0.000850885
0.000850136
0.000849391
0.000848661
0.000847954
0.000847278
0.000846635
0.000846027
0.000845453
0.000844912
0.000844402
0.000843919
0.000843461
0.000843027
0.000842615
0.000842232
0.000841895
0.000851638
0.00085089
0.000850149
0.000849416
0.000848699
0.000848007
0.000847346
0.000846721
0.000846132
0.00084558
0.000845065
0.000844583
0.000844134
0.000843715
0.000843324
0.00084296
0.000842629
0.000842347
0.000851661
0.000850939
0.000850225
0.000849521
0.000848835
0.000848175
0.000847547
0.000846956
0.000846402
0.000845885
0.000845405
0.000844958
0.000844544
0.000844158
0.0008438
0.000843469
0.00084317
0.000842919
0.000851715
0.000851053
0.000850398
0.000849753
0.000849128
0.000848531
0.00084797
0.000847445
0.000846955
0.0008465
0.000846076
0.00084568
0.000845308
0.000844957
0.000844625
0.00084431
0.000844018
0.000843762
0.000851801
0.000851233
0.000850669
0.000850109
0.000849564
0.000849039
0.000848537
0.000848052
0.000847579
0.00084711
0.000846642
0.000846169
0.000845688
0.000845195
0.000844691
0.000844174
0.000843652
0.000843142
0.000851941
0.000851517
0.000851065
0.000850568
0.000850018
0.000849407
0.000848724
0.000847956
0.000847092
0.000846129
0.000845071
0.000843922
0.000842687
0.000841375
0.000839991
0.000838548
0.000837066
0.000835588
0.000852143
0.000851828
0.000851265
0.000850361
0.00084908
0.00084742
0.000845393
0.000843018
0.000840333
0.000837383
0.000834216
0.00083087
0.000827382
0.000823804
0.000820182
0.000816554
0.000812957
0.000809459
0.00085222
0.000851245
0.000849026
0.000845469
0.000840721
0.000835026
0.000828611
0.000821671
0.000814385
0.000806878
0.000799283
0.000791734
0.000784324
0.000777107
0.000770122
0.00076339
0.000756939
0.000750843
0.000850791
0.000845028
0.0008354
0.00082296
0.000808863
0.000794033
0.000779058
0.000764251
0.000749869
0.000736155
0.000723207
0.000711041
0.00069964
0.000688969
0.000678985
0.000669644
0.000660908
0.00065282
0.000841138
0.000816681
0.000786997
0.000756696
0.000727773
0.000700948
0.000676366
0.000654215
0.000634343
0.000616493
0.000600413
0.000585871
0.000572663
0.000560615
0.00054958
0.000539431
0.000530074
0.000521499
0.000798628
0.000728722
0.000669093
0.000620808
0.000580937
0.000547667
0.000520047
0.000496782
0.000476897
0.000459684
0.000444614
0.000431285
0.000419388
0.000408686
0.000398991
0.000390157
0.000382068
0.000374685
0.000662426
0.000545579
0.000474638
0.000425194
0.000388263
0.000360259
0.000338455
0.000320958
0.000306543
0.000294426
0.000284072
0.000275103
0.000267241
0.000260283
0.000254073
0.00024849
0.000243441
0.000238872
0.000377505
0.000286124
0.000242631
0.000214906
0.000195643
0.000182233
0.000172796
0.000165959
0.000160839
0.000156891
0.00015377
0.000151244
0.000149155
0.000147391
0.000145876
0.000144551
0.000143375
0.000142306
6.98062e-05
6.49723e-05
6.05478e-05
5.65123e-05
5.29009e-05
4.97255e-05
4.69804e-05
4.46402e-05
4.26662e-05
4.10142e-05
3.96405e-05
3.85047e-05
3.7571e-05
3.68078e-05
3.61876e-05
3.56873e-05
3.52872e-05
3.49704e-05
3.18728e-07
7.48506e-06
1.23218e-05
1.73568e-05
2.30039e-05
2.93717e-05
3.626e-05
4.30822e-05
4.97991e-05
5.63412e-05
6.26578e-05
6.87241e-05
7.45366e-05
8.01059e-05
8.54504e-05
9.05918e-05
9.55525e-05
0.000100353
0.000105013
0.000109547
0.000113968
0.000118286
0.000122508
0.000126641
0.000130686
0.000134646
0.000138522
0.000142312
0.000146016
0.00014963
0.000153154
0.000156585
0.000159921
0.000163164
0.000166315
0.000169377
0.000172353
0.000175248
0.000178063
0.000180793
0.000183426
0.000185942
0.000188312
0.000190503
0.000192482
0.000194211
0.000195625
0.000196529
0.000196338
0.000193326
4.32838e-05
4.32206e-05
4.33856e-05
4.3599e-05
4.38242e-05
4.40098e-05
4.41445e-05
4.43743e-05
4.49244e-05
4.57776e-05
0.000204202
0.00020405
0.000200102
4.58748e-05
4.63963e-05
4.64495e-05
4.70175e-05
4.72911e-05
0.000204392
4.70324e-05
4.77421e-05
4.7418e-05
4.77713e-05
4.81709e-05
4.85723e-05
4.89714e-05
4.9366e-05
4.97551e-05
5.01378e-05
5.05136e-05
5.08823e-05
5.12433e-05
5.15964e-05
5.19413e-05
5.22778e-05
5.26057e-05
5.2925e-05
5.32359e-05
5.35391e-05
5.3836e-05
5.4127e-05
5.44068e-05
5.46758e-05
5.4934e-05
5.51812e-05
5.54173e-05
5.56422e-05
5.58554e-05
5.6057e-05
5.62466e-05
5.64241e-05
5.65893e-05
5.67421e-05
5.68822e-05
5.70097e-05
5.71243e-05
5.7226e-05
5.73147e-05
5.73903e-05
5.74528e-05
5.75021e-05
5.75381e-05
5.75609e-05
5.75705e-05
5.75668e-05
5.75499e-05
5.75198e-05
5.74765e-05
5.74202e-05
5.73508e-05
5.72684e-05
5.71731e-05
5.7065e-05
5.69442e-05
5.68109e-05
5.6665e-05
5.65069e-05
5.63365e-05
5.61541e-05
5.59599e-05
5.5754e-05
5.55365e-05
5.53078e-05
5.5068e-05
5.48174e-05
5.45562e-05
5.42847e-05
5.40032e-05
5.37119e-05
5.34113e-05
5.31016e-05
5.27833e-05
5.24567e-05
5.21223e-05
5.17805e-05
5.14324e-05
5.10772e-05
5.07186e-05
5.03598e-05
5.00994e-05
4.99263e-05
4.97556e-05
4.95809e-05
4.94017e-05
4.92181e-05
4.90307e-05
4.88398e-05
4.86461e-05
4.84502e-05
4.82527e-05
4.80542e-05
4.78558e-05
4.76585e-05
4.74647e-05
4.72859e-05
4.70784e-05
4.62891e-05
4.68037e-05
4.91758e-05
4.66222e-05
0.000225494
4.59387e-05
4.57889e-05
0.000220715
4.84888e-05
4.56996e-05
4.74824e-05
4.51419e-05
4.70719e-05
0.000213165
1.15083e-06
2.82284e-05
5.84395e-05
7.80557e-05
9.14254e-05
0.000102038
0.000111638
0.000120939
0.00013014
0.000139256
0.00014825
0.00015709
0.000165757
0.000174247
0.000182565
0.000190722
0.000198729
0.000206597
0.000214336
0.000221951
0.000229448
0.000236829
0.000244095
0.000251243
0.000258272
0.000265176
0.000271953
0.000278596
0.000285101
0.00029146
0.000297669
0.000303723
0.000309618
0.000315351
0.000320922
0.000326329
0.00033157
0.000336642
0.000341529
0.000346209
0.000350637
0.000354751
0.000358468
0.000361682
0.000364252
0.000365952
0.000366292
0.000364033
0.000355959
0.000334512
0.000286478
0.000282165
0.000281788
0.000281957
0.000282346
0.000282659
0.000282616
0.000282919
0.000285839
0.00029577
0.000327079
0.000326078
0.000315343
0.000295514
0.000294915
0.000297569
0.000302465
0.000309504
0.000328597
0.00031686
0.000317351
0.000323506
0.000328237
0.000332404
0.000336792
0.000341331
0.000345953
0.000350623
0.00035532
0.000360033
0.000364754
0.000369478
0.000374199
0.000378911
0.000383607
0.00038828
0.000392913
0.000397487
0.000401971
0.000406267
0.000410287
0.000414233
0.000418127
0.000421972
0.000425763
0.000429499
0.000433176
0.000436791
0.00044034
0.000443822
0.000447234
0.000450571
0.000453832
0.000457015
0.000460116
0.000463134
0.000466067
0.000468912
0.000471668
0.000474333
0.000476905
0.000479384
0.000481768
0.000484055
0.000486245
0.000488336
0.000490328
0.00049222
0.000494011
0.000495702
0.00049729
0.000498776
0.000500159
0.000501439
0.000502615
0.000503687
0.000504655
0.000505519
0.000506277
0.00050693
0.000507477
0.000507919
0.000508254
0.000508483
0.000508606
0.000508621
0.00050853
0.000508331
0.000508025
0.000507613
0.000507093
0.000506467
0.000505734
0.000504896
0.000503948
0.000502899
0.000501713
0.000500313
0.000498402
0.000495392
0.000491894
0.000488239
0.000484505
0.000480717
0.000476889
0.000473031
0.000469152
0.000465258
0.000461359
0.00045746
0.00045357
0.000449695
0.000445844
0.000442026
0.00043823
0.000434035
0.000421873
0.000421331
0.000414542
0.000412641
0.00045973
0.000404337
0.000397977
0.000444413
0.00039552
0.000387645
0.000380438
0.000377782
0.000372252
0.000406435
2.24462e-06
4.26013e-05
8.79554e-05
0.000120087
0.000142733
0.000159769
0.000173817
0.000186423
0.000198389
0.000210082
0.00022165
0.000233139
0.000244558
0.000255901
0.00026716
0.000278329
0.000289401
0.00030037
0.000311226
0.000321964
0.000332573
0.000343043
0.000353365
0.000363528
0.000373522
0.000383337
0.000392961
0.000402386
0.000411601
0.000420599
0.000429373
0.000437915
0.000446223
0.000454293
0.000462125
0.00046972
0.000477077
0.000484193
0.000491057
0.000497646
0.000503926
0.000509845
0.000515341
0.000520344
0.000524774
0.000528536
0.000531464
0.000533229
0.000533207
0.00053058
0.000525685
0.000526358
0.000528567
0.000531411
0.000534796
0.00053859
0.000542652
0.000547261
0.000553226
0.000561259
0.000570999
0.000576791
0.000580928
0.000584516
0.000590455
0.000597695
0.000605829
0.00061468
0.000624307
0.000630976
0.000639198
0.000647965
0.000657176
0.000666479
0.000675872
0.000685329
0.000694826
0.000704342
0.00071386
0.000723367
0.00073285
0.000742298
0.000751698
0.000761037
0.000770299
0.000779467
0.000788517
0.000797425
0.000806166
0.000814581
0.000822791
0.00083087
0.000838834
0.000846684
0.000854414
0.000862019
0.000869492
0.000876826
0.000884015
0.000891053
0.000897934
0.000904651
0.000911201
0.000917576
0.000923773
0.000929787
0.000935614
0.000941249
0.000946689
0.000951931
0.000956972
0.000961809
0.000966439
0.000970861
0.000975072
0.000979071
0.000982857
0.000986428
0.000989783
0.000992922
0.000995844
0.000998549
0.00100104
0.0010033
0.00100535
0.00100719
0.0010088
0.0010102
0.00101137
0.00101233
0.00101307
0.00101359
0.0010139
0.00101398
0.00101385
0.0010135
0.00101294
0.00101215
0.00101115
0.00100993
0.0010085
0.00100685
0.00100499
0.00100292
0.00100063
0.000998114
0.000995326
0.000992129
0.000988251
0.000983352
0.000977816
0.000971941
0.000965848
0.00095959
0.000953195
0.000946683
0.000940071
0.000933375
0.00092661
0.000919791
0.000912933
0.000906053
0.000899169
0.000892309
0.000885506
0.000878568
0.000869131
0.000862696
0.000858659
0.00085059
0.000856826
0.000836982
0.000827654
0.000834694
0.000819327
0.000807775
0.000801808
0.000794043
0.000786724
0.000779535
3.27891e-06
5.22437e-05
0.000108599
0.000150807
0.000181673
0.000205092
0.000224005
0.000240378
0.000255419
0.000269811
0.000283913
0.000297894
0.000311825
0.000325727
0.000339595
0.000353415
0.000367167
0.000380832
0.000394387
0.000407812
0.000421087
0.000434194
0.000447115
0.000459833
0.000472335
0.000484605
0.000496633
0.000508408
0.00051992
0.000531163
0.000542131
0.000552821
0.000563234
0.000573373
0.000583243
0.000592853
0.000602211
0.000611325
0.000620199
0.000628829
0.000637205
0.00064531
0.000653123
0.000660624
0.000667803
0.000674656
0.000681182
0.000687373
0.00069321
0.000698742
0.0007043
0.000710721
0.000717741
0.000725279
0.000733336
0.000741864
0.000750799
0.000760182
0.000770156
0.000780759
0.00079171
0.000802387
0.000812986
0.000823734
0.000834934
0.000846594
0.000858658
0.000871047
0.000883639
0.000896136
0.000908928
0.00092186
0.000934989
0.000948209
0.000961461
0.000974722
0.000987976
0.00100121
0.00101441
0.00102756
0.00104064
0.00105365
0.00106656
0.00107937
0.00109205
0.00110458
0.00111695
0.00112914
0.00114108
0.00115273
0.00116417
0.00117544
0.00118655
0.00119748
0.00120825
0.00121883
0.00122923
0.00123943
0.00124942
0.00125919
0.00126874
0.00127806
0.00128715
0.00129598
0.00130457
0.0013129
0.00132096
0.00132876
0.00133628
0.00134352
0.00135049
0.00135717
0.00136356
0.00136966
0.00137547
0.00138098
0.0013862
0.00139112
0.00139574
0.00140006
0.00140408
0.00140781
0.00141123
0.00141436
0.00141718
0.00141971
0.00142194
0.00142387
0.00142551
0.00142685
0.00142789
0.00142864
0.00142909
0.00142925
0.00142912
0.00142869
0.00142797
0.00142696
0.00142566
0.00142407
0.00142219
0.00142002
0.00141757
0.00141483
0.00141179
0.00140843
0.00140471
0.00140052
0.00139567
0.00139002
0.00138375
0.00137704
0.00137
0.0013627
0.00135517
0.00134743
0.0013395
0.00133141
0.00132317
0.00131481
0.00130634
0.00129778
0.00128916
0.00128051
0.00127189
0.00126331
0.00125426
0.00124552
0.00123839
0.00122905
0.001223
0.00121131
0.00120157
0.00119608
0.00118609
0.0011755
0.0011673
0.00115768
0.00114717
0.00113151
4.12282e-06
5.93484e-05
0.00012413
0.000174484
0.000212432
0.00024172
0.000265376
0.000285569
0.000303748
0.000320826
0.000337345
0.000353601
0.000369746
0.000385845
0.000401912
0.00041794
0.000433907
0.000449786
0.000465549
0.000481168
0.000496616
0.000511872
0.000526912
0.00054172
0.000556279
0.000570575
0.000584599
0.000598341
0.000611795
0.000624958
0.000637829
0.000650412
0.000662711
0.000674738
0.000686505
0.000698029
0.000709328
0.00072042
0.000731324
0.000742054
0.000752621
0.000763034
0.0007733
0.000783432
0.000793448
0.000803377
0.000813258
0.000823136
0.000833065
0.00084312
0.000853413
0.000864082
0.000875152
0.000886639
0.00089855
0.000910864
0.000923548
0.000936586
0.000949983
0.000963717
0.000977711
0.000991875
0.00100621
0.00102075
0.00103552
0.00105055
0.0010658
0.00108127
0.0010969
0.00111264
0.0011285
0.00114444
0.00116045
0.00117648
0.0011925
0.0012085
0.00122445
0.00124035
0.00125618
0.00127193
0.00128758
0.00130312
0.00131853
0.0013338
0.00134891
0.00136385
0.00137859
0.00139313
0.00140736
0.00142135
0.00143511
0.00144867
0.00146203
0.00147519
0.00148814
0.00150087
0.00151338
0.00152564
0.00153766
0.00154942
0.00156092
0.00157214
0.00158307
0.00159372
0.00160406
0.0016141
0.00162383
0.00163324
0.00164233
0.00165108
0.00165951
0.0016676
0.00167535
0.00168275
0.00168982
0.00169653
0.0017029
0.00170892
0.00171459
0.00171991
0.00172487
0.00172949
0.00173377
0.00173769
0.00174126
0.0017445
0.00174738
0.00174992
0.00175212
0.00175399
0.00175551
0.00175669
0.00175754
0.00175805
0.00175822
0.00175806
0.00175757
0.00175675
0.00175559
0.00175411
0.0017523
0.00175015
0.00174767
0.00174485
0.0017417
0.00173818
0.00173426
0.00172986
0.00172488
0.00171925
0.00171304
0.00170636
0.00169929
0.00169188
0.00168416
0.00167617
0.00166791
0.00165941
0.00165069
0.00164177
0.00163267
0.0016234
0.00161401
0.00160452
0.00159498
0.00158546
0.0015759
0.00156617
0.00155694
0.00154689
0.00153743
0.00152682
0.00151657
0.00150732
0.00149721
0.00148666
0.00147676
0.00146599
0.00145379
0.00143752
4.75842e-06
6.46464e-05
0.000135864
0.000192821
0.000236829
0.000271391
0.000299498
0.00032339
0.000344651
0.000364345
0.000383152
0.000401487
0.000419581
0.000437554
0.000455456
0.000473296
0.00049106
0.000508726
0.000526264
0.000543645
0.000560841
0.000577829
0.000594587
0.000611096
0.000627342
0.000643313
0.000659002
0.000674403
0.000689513
0.000704333
0.000718868
0.000733126
0.000747118
0.000760859
0.000774368
0.000787667
0.00080078
0.000813734
0.000826554
0.000839265
0.000851891
0.000864454
0.000876976
0.000889481
0.000901997
0.000914556
0.000927197
0.000939962
0.000952896
0.000966044
0.000979454
0.000993168
0.00100721
0.0010216
0.00103633
0.00105139
0.00106676
0.00108243
0.00109837
0.00111458
0.00113101
0.00114766
0.00116449
0.00118152
0.00119873
0.00121611
0.00123365
0.00125134
0.00126914
0.00128703
0.00130499
0.00132298
0.00134098
0.00135897
0.00137693
0.00139483
0.00141267
0.00143042
0.00144808
0.00146563
0.00148306
0.00150036
0.00151751
0.00153449
0.00155129
0.00156789
0.00158428
0.00160045
0.00161631
0.00163193
0.00164732
0.00166249
0.00167744
0.00169217
0.00170666
0.00172092
0.00173493
0.00174867
0.00176214
0.00177533
0.00178823
0.00180083
0.00181311
0.00182508
0.00183672
0.00184803
0.001859
0.00186961
0.00187988
0.00188978
0.00189932
0.0019085
0.00191731
0.00192574
0.0019338
0.00194148
0.00194878
0.0019557
0.00196225
0.00196841
0.0019742
0.00197961
0.00198465
0.00198931
0.00199361
0.00199753
0.00200109
0.00200428
0.0020071
0.00200957
0.00201168
0.00201343
0.00201483
0.00201588
0.00201658
0.00201693
0.00201692
0.00201659
0.00201589
0.00201484
0.00201345
0.00201171
0.00200963
0.00200719
0.00200439
0.00200122
0.00199765
0.00199361
0.00198906
0.00198396
0.00197833
0.00197223
0.0019657
0.00195879
0.00195152
0.00194392
0.00193599
0.00192776
0.00191924
0.00191046
0.00190142
0.00189215
0.00188267
0.00187302
0.00186323
0.00185337
0.00184344
0.00183331
0.0018232
0.00181274
0.00180227
0.00179152
0.00178081
0.00177029
0.00175956
0.00174865
0.00173778
0.00172631
0.00171352
0.00169799
5.22208e-06
6.8428e-05
0.000144486
0.000206754
0.000255891
0.00029511
0.000327289
0.000354664
0.000378872
0.000401069
0.000422035
0.000442276
0.000462102
0.000481688
0.000501126
0.000520452
0.000539671
0.000558768
0.000577722
0.000596506
0.000615097
0.000633471
0.00065161
0.000669495
0.000687116
0.000704464
0.000721532
0.000738319
0.000754826
0.000771057
0.000787021
0.000802728
0.000818193
0.000833435
0.000848476
0.00086334
0.000878054
0.000892647
0.000907147
0.000921585
0.000935987
0.000950382
0.000964796
0.000979256
0.000993789
0.00100842
0.00102319
0.00103813
0.00105326
0.00106861
0.0010842
0.00110007
0.00111622
0.00113265
0.00114936
0.00116635
0.00118361
0.00120112
0.00121886
0.00123682
0.00125498
0.00127334
0.00129187
0.00131056
0.0013294
0.00134837
0.00136746
0.00138666
0.00140593
0.00142525
0.00144461
0.00146398
0.00148333
0.00150265
0.00152191
0.00154111
0.00156022
0.00157923
0.00159813
0.00161691
0.00163555
0.00165404
0.00167236
0.00169051
0.00170847
0.00172623
0.00174377
0.00176103
0.00177803
0.00179479
0.00181132
0.00182763
0.00184371
0.00185955
0.00187516
0.00189051
0.00190561
0.00192043
0.00193496
0.0019492
0.00196314
0.00197676
0.00199006
0.00200302
0.00201565
0.00202792
0.00203983
0.00205138
0.00206256
0.00207336
0.00208378
0.00209382
0.00210347
0.00211273
0.0021216
0.00213007
0.00213815
0.00214583
0.00215312
0.00216002
0.00216652
0.00217264
0.00217837
0.00218371
0.00218867
0.00219326
0.00219747
0.00220131
0.00220478
0.00220789
0.00221064
0.00221304
0.00221507
0.00221675
0.0022181
0.00221909
0.00221973
0.00222003
0.00221998
0.00221959
0.00221886
0.00221778
0.00221637
0.00221461
0.0022125
0.00221002
0.00220714
0.00220385
0.00220009
0.00219585
0.00219113
0.00218595
0.00218034
0.00217432
0.00216792
0.00216113
0.00215398
0.00214648
0.00213864
0.00213047
0.00212198
0.00211319
0.00210413
0.0020948
0.00208525
0.00207552
0.00206562
0.0020555
0.00204521
0.00203466
0.00202396
0.00201309
0.00200214
0.00199115
0.00198005
0.00196882
0.00195747
0.00194566
0.00193281
0.00191815
5.53404e-06
7.09555e-05
0.000150507
0.000216952
0.000270352
0.000313603
0.000349427
0.000379997
0.000406958
0.000431508
0.000454492
0.000476484
0.000497857
0.000518843
0.000539576
0.000560123
0.000580513
0.000600747
0.000620815
0.0006407
0.000660382
0.000679843
0.000699066
0.000718039
0.000736751
0.000755197
0.000773373
0.00079128
0.000808922
0.000826306
0.000843442
0.000860342
0.000877025
0.000893508
0.000909815
0.00092597
0.000942
0.000957935
0.000973802
0.000989631
0.00100545
0.00102129
0.00103717
0.00105313
0.00106918
0.00108535
0.00110166
0.00111814
0.00113481
0.00115169
0.00116879
0.00118612
0.00120369
0.0012215
0.00123955
0.00125784
0.00127635
0.00129508
0.00131402
0.00133314
0.00135245
0.00137192
0.00139154
0.00141131
0.00143119
0.00145119
0.00147128
0.00149144
0.00151165
0.0015319
0.00155217
0.00157242
0.00159265
0.00161283
0.00163295
0.00165299
0.00167294
0.00169279
0.00171251
0.00173211
0.00175156
0.00177085
0.00178998
0.00180892
0.00182767
0.00184621
0.00186453
0.00188258
0.00190038
0.00191796
0.00193532
0.00195246
0.00196937
0.00198605
0.00200248
0.00201866
0.00203458
0.00205022
0.00206558
0.00208064
0.00209538
0.00210981
0.00212391
0.00213766
0.00215107
0.00216411
0.00217679
0.0021891
0.00220102
0.00221256
0.00222371
0.00223447
0.00224482
0.00225478
0.00226434
0.00227349
0.00228223
0.00229057
0.00229851
0.00230605
0.0023132
0.00231995
0.0023263
0.00233227
0.00233785
0.00234306
0.00234791
0.00235238
0.00235648
0.00236022
0.00236362
0.00236668
0.00236938
0.00237174
0.00237377
0.00237546
0.00237681
0.00237785
0.00237856
0.00237895
0.00237902
0.00237876
0.00237819
0.00237729
0.00237606
0.00237448
0.00237254
0.00237021
0.00236748
0.00236431
0.0023607
0.00235666
0.0023522
0.00234733
0.00234205
0.00233637
0.0023303
0.00232384
0.00231699
0.00230976
0.00230216
0.0022942
0.00228589
0.00227725
0.0022683
0.00225906
0.00224955
0.00223976
0.0022297
0.00221937
0.00220879
0.00219801
0.00218705
0.00217596
0.00216473
0.00215337
0.00214184
0.00212993
0.00211724
0.00210333
5.71369e-06
7.24464e-05
0.00015434
0.000223947
0.0002808
0.000327464
0.000366474
0.00039991
0.000429383
0.000456101
0.000480942
0.000504527
0.000527281
0.000549481
0.000571302
0.000592846
0.000614165
0.000635281
0.0006562
0.000676915
0.000697413
0.000717684
0.000737714
0.000757496
0.000777021
0.000796288
0.000815294
0.000834043
0.00085254
0.000870793
0.000888814
0.000906617
0.000924219
0.00094164
0.0009589
0.000976025
0.000993039
0.00100997
0.00102684
0.00104369
0.00106053
0.0010774
0.00109432
0.00111131
0.0011284
0.00114561
0.00116295
0.00118044
0.00119811
0.00121596
0.001234
0.00125225
0.0012707
0.00128936
0.00130823
0.0013273
0.00134657
0.00136604
0.00138568
0.0014055
0.00142548
0.00144561
0.00146587
0.00148626
0.00150676
0.00152735
0.00154803
0.00156876
0.00158954
0.00161034
0.00163115
0.00165195
0.00167272
0.00169344
0.0017141
0.00173468
0.00175517
0.00177555
0.00179582
0.00181595
0.00183595
0.00185578
0.00187545
0.00189494
0.00191424
0.00193334
0.0019522
0.00197083
0.00198925
0.00200746
0.00202547
0.00204326
0.00206083
0.00207817
0.00209528
0.00211214
0.00212874
0.00214506
0.0021611
0.00217684
0.00219227
0.00220738
0.00222216
0.0022366
0.00225068
0.0022644
0.00227774
0.00229071
0.00230328
0.00231547
0.00232725
0.00233864
0.00234962
0.0023602
0.00237037
0.00238013
0.00238947
0.0023984
0.00240693
0.00241505
0.00242277
0.00243011
0.00243705
0.00244359
0.00244975
0.00245555
0.00246099
0.00246606
0.00247077
0.00247513
0.00247915
0.00248284
0.0024862
0.00248924
0.00249196
0.00249438
0.00249649
0.00249831
0.00249983
0.00250106
0.002502
0.00250265
0.002503
0.00250307
0.00250283
0.00250228
0.0025014
0.00250018
0.00249859
0.00249662
0.00249426
0.00249149
0.00248833
0.00248475
0.00248077
0.00247638
0.00247158
0.00246636
0.00246073
0.00245467
0.0024482
0.00244131
0.002434
0.0024263
0.0024182
0.00240973
0.00240089
0.00239169
0.00238214
0.00237225
0.00236204
0.00235154
0.00234079
0.00232982
0.00231867
0.00230733
0.00229581
0.00228396
0.0022715
0.00225816
5.7796e-06
7.30811e-05
0.000156328
0.000228186
0.000287732
0.000337203
0.000378929
0.000414871
0.000446579
0.000475245
0.000501759
0.000526769
0.000550735
0.000573972
0.00059669
0.000619023
0.000641048
0.000662812
0.000684333
0.000705618
0.000726666
0.000747472
0.000768029
0.000788334
0.000808383
0.000828175
0.000847711
0.000866997
0.000886038
0.000904845
0.00092343
0.000941807
0.000959992
0.000978006
0.000995868
0.0010136
0.00103123
0.00104878
0.00106627
0.00108373
0.00110119
0.00111867
0.0011362
0.00115378
0.00117146
0.00118924
0.00120714
0.00122518
0.00124336
0.00126172
0.00128024
0.00129894
0.00131783
0.0013369
0.00135615
0.0013756
0.00139522
0.00141502
0.00143499
0.00145513
0.00147541
0.00149584
0.0015164
0.00153709
0.00155787
0.00157876
0.00159972
0.00162074
0.00164181
0.00166291
0.00168402
0.00170512
0.00172621
0.00174725
0.00176824
0.00178917
0.00181
0.00183074
0.00185137
0.00187187
0.00189224
0.00191246
0.00193252
0.00195241
0.00197212
0.00199163
0.00201094
0.00203007
0.002049
0.00206776
0.00208632
0.00210468
0.00212284
0.00214078
0.00215849
0.00217596
0.00219317
0.00221012
0.00222679
0.00224316
0.00225922
0.00227497
0.00229038
0.00230545
0.00232016
0.0023345
0.00234847
0.00236205
0.00237524
0.00238803
0.00240042
0.0024124
0.00242397
0.00243513
0.00244587
0.0024562
0.0024661
0.00247559
0.00248466
0.00249333
0.0025016
0.00250949
0.00251697
0.00252406
0.00253077
0.00253711
0.00254309
0.00254872
0.00255401
0.00255896
0.00256358
0.00256789
0.0025719
0.00257561
0.00257903
0.00258217
0.00258504
0.00258765
0.00258999
0.00259208
0.00259392
0.0025955
0.00259683
0.00259791
0.00259872
0.00259926
0.00259951
0.00259947
0.00259911
0.00259841
0.00259736
0.00259594
0.00259415
0.00259197
0.0025894
0.00258641
0.00258301
0.00257917
0.00257489
0.00257016
0.00256498
0.00255933
0.00255321
0.00254663
0.00253958
0.00253208
0.00252412
0.00251571
0.00250687
0.0024976
0.00248794
0.00247789
0.00246751
0.00245684
0.0024459
0.00243473
0.00242333
0.00241163
0.00239941
0.0023865
5.74938e-06
7.30104e-05
0.00015676
0.000230047
0.000291579
0.00034327
0.000387235
0.0004253
0.000458938
0.000489303
0.000517277
0.000543518
0.00056851
0.000592595
0.000616013
0.000638923
0.00066143
0.000683599
0.000705467
0.000727054
0.000748371
0.00076942
0.000790203
0.00081072
0.000830972
0.000850962
0.000870693
0.000890172
0.000909407
0.00092841
0.000947194
0.000965772
0.000984162
0.00100238
0.00102045
0.0010384
0.00105624
0.00107399
0.00109169
0.00110935
0.00112701
0.00114467
0.00116237
0.00118013
0.00119796
0.00121588
0.00123391
0.00125207
0.00127036
0.0012888
0.00130741
0.00132617
0.00134511
0.00136423
0.00138352
0.00140299
0.00142264
0.00144247
0.00146246
0.00148262
0.00150294
0.0015234
0.00154401
0.00156475
0.0015856
0.00160656
0.00162762
0.00164874
0.00166993
0.00169117
0.00171243
0.0017337
0.00175497
0.00177621
0.00179742
0.00181857
0.00183965
0.00186065
0.00188155
0.00190233
0.00192299
0.00194352
0.0019639
0.00198411
0.00200416
0.00202407
0.00204382
0.00206342
0.00208286
0.00210214
0.00212125
0.00214018
0.00215891
0.00217744
0.00219575
0.00221383
0.00223166
0.00224923
0.00226652
0.00228352
0.00230021
0.00231659
0.00233263
0.00234834
0.00236368
0.00237865
0.00239323
0.00240743
0.00242122
0.00243461
0.00244759
0.00246016
0.00247231
0.00248404
0.00249536
0.00250624
0.00251669
0.00252672
0.00253633
0.00254553
0.00255432
0.00256272
0.00257072
0.00257833
0.00258556
0.00259243
0.00259894
0.00260511
0.00261095
0.00261647
0.00262168
0.0026266
0.00263124
0.0026356
0.0026397
0.00264356
0.00264718
0.00265056
0.00265372
0.00265667
0.0026594
0.00266193
0.00266424
0.00266634
0.00266822
0.00266988
0.00267129
0.00267246
0.00267335
0.00267396
0.00267426
0.00267424
0.00267387
0.00267314
0.00267203
0.00267052
0.00266859
0.00266623
0.00266341
0.00266012
0.00265633
0.00265205
0.00264725
0.00264192
0.00263607
0.00262968
0.00262275
0.0026153
0.00260732
0.00259883
0.00258985
0.00258041
0.00257053
0.00256027
0.00254967
0.00253876
0.00252758
0.00251607
0.00250407
0.00249147
5.63949e-06
7.23624e-05
0.000155883
0.000229863
0.000292715
0.000346056
0.00039178
0.000431566
0.000466798
0.000498575
0.000527757
0.000555
0.000580797
0.000605509
0.000629397
0.000652645
0.000675379
0.000697682
0.000719609
0.000741195
0.000762461
0.000783421
0.000804083
0.000824454
0.00084454
0.000864347
0.000883884
0.000903159
0.000922183
0.000940969
0.000959532
0.000977888
0.000996053
0.00101405
0.00103189
0.00104961