/*--------------------------------*- C++ -*----------------------------------*\
  =========                 |
  \\      /  F ield         | OpenFOAM: The Open Source CFD Toolbox
   \\    /   O peration     | Website:  https://openfoam.org
    \\  /    A nd           | Version:  7
     \\/     M anipulation  |
\*---------------------------------------------------------------------------*/
FoamFile
{
    version     2.0;
    format      ascii;
    class       volScalarField;
    location    "0.065";
    object      nut;
}
// * * * * * * * * * * * * * * * * * * * * * * * * * * * * * * * * * * * * * //

dimensions      [0 2 -1 0 0 0 0];

internalField   nonuniform List<scalar> 
12225
(
0
0
0
0
0
0
0
0
0
0
0
0
0
0
0
0
0
0
0
0
0
0
0
0
0
0
0
0
0
0
0
0
0
0
0
0
0
3.51882e-10
0
0
7.48242e-10
5.70792e-10
0
0
0
0
0
0
0
0
0
0
0
0
0
1.39768e-08
8.23802e-09
3.95303e-09
2.86102e-09
7.63298e-10
0
0
0
0
0
0
0
0
0
0
0
0
1.16738e-07
3.14253e-08
1.07961e-07
1.80726e-07
3.82e-08
0
0
3.14025e-09
3.34032e-09
2.79437e-09
1.87936e-09
8.90715e-10
3.62089e-10
1.3433e-10
1.73035e-10
0
0
0
3.10823e-07
1.98633e-07
2.30078e-07
3.22806e-07
2.27485e-07
1.10097e-07
1.10318e-07
1.02928e-07
4.97143e-08
2.36462e-08
2.14072e-08
2.32323e-08
2.6352e-08
2.82147e-08
2.4681e-08
1.55169e-08
8.93432e-09
2.96814e-09
4.43181e-07
3.3978e-07
2.26446e-07
2.39225e-07
1.37931e-07
8.89868e-08
1.27006e-07
2.08162e-07
2.90591e-07
2.75018e-07
1.1071e-07
1.05091e-08
1.73849e-09
2.23835e-08
3.35768e-08
2.69155e-08
1.6581e-08
1.05459e-08
4.24743e-07
3.09074e-07
2.71853e-07
2.30409e-07
1.2077e-07
9.97953e-08
1.76846e-07
4.72583e-07
8.59998e-07
3.22707e-07
0
0
0
0
0
0
0
0
1.83592e-07
3.12753e-07
4.13916e-07
4.03359e-07
3.07469e-07
2.70817e-07
2.70196e-07
3.32212e-07
1.10574e-07
0
0
0
0
0
0
0
0
0
0
2.48572e-07
4.84882e-07
3.07888e-07
3.78129e-07
7.41703e-07
4.40507e-07
0
0
0
0
0
0
0
0
0
0
0
3.16973e-07
6.64187e-07
7.47527e-07
3.58565e-07
3.14842e-07
3.78039e-07
1.03356e-07
0
0
0
0
0
0
0
0
0
0
0
3.16835e-07
2.5513e-07
6.01321e-07
3.4165e-07
1.95977e-07
1.06742e-07
0
0
0
0
7.45282e-08
9.97929e-08
0
0
0
1.48502e-08
4.60759e-09
0
0
0
5.25787e-08
4.02042e-07
1.66553e-07
0
0
0
0
0
9.98993e-08
1.6069e-07
2.79282e-08
0
0
2.85758e-08
5.1882e-08
0
0
0
1.55678e-07
6.83992e-07
1.03611e-07
0
0
0
0
0
0
0
0
0
0
0
0
0
2.96122e-07
3.97476e-07
1.57647e-06
1.10241e-06
0
0
0
0
0
0
0
0
0
0
0
0
0
0
1.11341e-06
1.24012e-06
1.64176e-06
1.21664e-06
3.92061e-09
0
0
0
0
0
0
0
0
0
0
0
0
0
4.53041e-07
1.63127e-07
4.10892e-07
2.4446e-07
0
0
0
0
0
0
0
0
0
0
0
0
0
0
4.90478e-07
5.7706e-07
4.73658e-07
0
0
0
0
0
0
0
0
0
0
0
0
0
0
0
9.27654e-08
5.87337e-07
2.43164e-07
0
0
0
0
0
0
0
0
0
0
0
0
0
0
0
0
5.86183e-08
1.3037e-07
0
0
0
0
0
0
0
0
0
0
0
0
0
0
3.01957e-07
0
0
0
0
0
0
0
2.75306e-08
2.85798e-07
3.93949e-07
1.013e-07
0
0
0
0
0
0
0
7.64601e-07
4.23978e-07
0
0
0
0
0
0
9.201e-08
1.12369e-07
1.17707e-07
9.04853e-08
3.02945e-09
0
0
0
0
0
2.39445e-07
0
0
0
0
0
0
7.28664e-08
3.18146e-08
0
0
0
0
0
0
0
0
0
2.25442e-07
0
0
0
0
0
0
5.03186e-08
7.58073e-08
2.52545e-08
3.68643e-09
1.38142e-08
1.0598e-08
0
0
0
0
0
3.39156e-08
0
0
0
0
0
0
0
0
0
1.50107e-08
6.47574e-08
8.1955e-08
1.46169e-08
0
0
0
0
0
0
0
0
0
0
0
0
0
0
0
4.36239e-09
2.03541e-08
6.97053e-09
0
0
0
0
0
0
0
0
0
0
0
0
0
0
0
0
0
0
0
0
0
0
2.62402e-09
0
0
0
0
0
0
0
0
0
0
0
0
0
0
0
0
0
4.87676e-09
0
0
0
0
0
0
0
0
0
0
0
0
0
0
0
0
0
3.98281e-08
0
0
0
0
0
0
0
0
0
0
0
0
0
0
0
0
0
0
2.88801e-07
1.15891e-06
6.60087e-08
0
0
0
0
1.0155e-06
1.00076e-06
4.49459e-07
0
0
0
0
0
0
0
0
0
0
0
1.49774e-08
4.68094e-08
6.98309e-08
8.39431e-08
8.67037e-08
7.47968e-08
4.68064e-08
9.10442e-09
0
7.15896e-09
4.95092e-08
2.54381e-08
0
0
0
0
0
0
0
0
9.11696e-07
2.50309e-06
6.30357e-06
1.18648e-05
1.44085e-05
1.90014e-05
2.7514e-05
3.84809e-05
3.00307e-05
1.01467e-05
1.70025e-06
3.03286e-07
3.04552e-08
0
0
1.52917e-08
3.17534e-08
3.97969e-08
4.09109e-08
3.82583e-08
3.3639e-08
2.7923e-08
2.21782e-08
1.75896e-08
1.30086e-08
9.71769e-09
6.65804e-09
4.2627e-09
2.15e-09
2.25547e-10
0
0
0
0
0
0
0
0
0
0
0
0
0
0
0
0
0
0
0
0
0
0
0
0
0
0
0
0
0
0
0
0
0
0
0
0
0
0
0
0
0
0
0
0
0
0
0
0
0
0
0
0
0
0
0
0
0
0
0
0
0
0
0
0
0
0
0
0
0
0
0
0
0
0
0
0
0
0
0
0
0
0
0
0
0
0
0
0
0
0
0
0
0
0
0
0
0
0
0
0
0
0
0
0
0
1.32319e-12
3.30989e-10
5.0294e-11
0
0
1.10774e-07
0
0
0
0
7.23847e-07
1.55111e-06
1.78372e-06
1.50924e-06
9.05507e-07
2.67039e-07
0
0
0
0
0
0
0
0
0
2.27165e-08
6.15384e-08
8.681e-08
9.84469e-08
9.42132e-08
7.24203e-08
3.39466e-08
0
0
8.20105e-08
1.6216e-07
5.47338e-08
0
0
1.36349e-07
2.71611e-07
8.77201e-08
0
0
0
1.01927e-06
1.321e-06
0
0
0
1.08636e-06
1.81563e-06
2.03459e-06
2.31568e-06
1.48104e-06
6.32501e-07
2.49009e-07
7.61131e-08
1.81001e-08
1.45081e-08
2.51987e-08
3.34163e-08
3.68857e-08
3.70174e-08
3.52256e-08
3.24678e-08
2.91883e-08
2.56707e-08
2.20463e-08
1.83893e-08
1.47688e-08
1.11812e-08
7.65672e-09
4.20532e-09
8.39572e-10
0
0
0
0
0
0
0
0
0
0
0
0
0
0
0
0
0
0
0
0
0
0
0
0
0
0
0
0
0
0
0
0
0
0
0
0
0
0
0
0
0
0
0
0
0
0
0
0
0
0
0
0
0
0
0
0
0
0
0
0
0
0
0
0
0
0
0
0
0
0
0
0
0
0
0
0
0
0
0
0
0
0
0
0
0
0
0
0
0
0
0
0
0
0
0
0
0
0
0
0
0
0
0
0
0
8.57848e-13
2.12706e-10
0
0
0
0
0
0
0
0
4.01588e-07
1.09121e-06
1.35616e-06
1.40871e-06
1.36452e-06
1.24394e-06
1.0435e-06
7.63306e-07
4.26308e-07
9.67415e-08
0
0
0
0
0
2.41164e-08
6.29239e-08
5.53796e-08
0
0
0
0
0
0
1.44452e-07
3.63321e-07
2.72351e-07
2.65974e-07
5.71259e-07
1.00674e-06
1.46866e-06
1.72541e-06
9.92901e-07
0
0
0
0
0
0
0
0
3.68807e-07
2.08306e-07
2.85937e-07
3.1012e-07
2.14245e-07
1.26001e-07
8.42736e-08
8.33565e-08
1.04387e-07
1.26902e-07
1.39647e-07
1.40551e-07
1.33118e-07
1.21099e-07
1.07075e-07
9.26686e-08
7.88012e-08
6.58393e-08
5.37977e-08
4.27208e-08
3.25233e-08
2.29941e-08
1.40395e-08
5.54429e-09
0
0
0
0
0
0
0
0
0
0
0
0
0
0
0
0
0
0
0
0
0
0
0
0
0
0
0
0
0
0
0
0
0
0
0
0
0
0
0
0
0
0
0
0
0
0
0
0
0
0
5.26191e-10
1.29056e-09
1.63853e-09
1.7155e-09
1.58282e-09
1.34636e-09
1.0512e-09
7.02012e-10
3.04377e-10
0
0
0
0
0
0
0
0
0
0
0
0
0
0
0
0
0
0
0
0
0
0
0
0
0
0
0
0
0
0
0
0
0
0
0
0
0
0
0
0
0
0
0
0
0
8.73239e-13
0
6.25519e-11
0
1.87714e-07
8.9696e-07
4.70537e-07
0
0
0
0
2.52649e-07
9.09979e-07
1.14099e-06
1.20569e-06
1.24302e-06
1.23674e-06
1.15352e-06
9.75484e-07
6.95633e-07
2.99899e-07
0
0
0
0
0
1.66787e-08
1.00642e-06
8.89265e-07
3.70882e-07
0
0
0
0
0
0
0
0
5.05973e-09
2.12698e-07
1.79158e-07
0
0
0
0
0
0
0
0
0
0
6.76359e-08
1.00262e-07
0
3.17075e-10
5.14757e-08
5.2276e-08
7.83107e-08
1.61398e-07
2.75847e-07
3.58935e-07
3.74576e-07
3.44999e-07
3.03915e-07
2.70232e-07
2.49477e-07
2.39214e-07
2.34836e-07
2.30865e-07
2.2256e-07
2.0588e-07
1.78478e-07
1.40218e-07
9.39492e-08
4.59797e-08
3.76945e-09
0
0
0
0
0
0
0
0
0
0
0
0
0
0
0
0
0
0
0
0
0
0
0
0
0
0
0
0
0
0
0
0
0
0
0
0
0
0
0
0
0
0
0
0
0
0
0
0
0
0
0
0
3.09115e-09
1.44278e-08
1.92714e-08
1.97146e-08
1.78293e-08
1.49373e-08
1.16757e-08
8.39934e-09
5.37686e-09
2.80506e-09
7.96685e-10
0
0
0
0
0
0
0
0
0
0
0
0
0
0
0
0
0
0
0
0
0
0
0
0
0
0
0
0
0
0
0
0
0
0
0
0
0
0
0
0
0
0
0
3.3195e-11
0
3.81255e-06
2.07994e-06
1.76193e-06
1.05625e-06
4.77139e-07
1.26634e-07
5.77449e-08
4.64525e-07
9.01607e-07
9.9717e-07
9.62055e-07
8.00914e-07
4.51856e-07
0
0
0
0
0
0
0
0
0
0
8.36872e-06
7.22126e-06
4.73751e-06
2.78073e-06
1.39974e-06
4.57925e-07
0
0
0
0
0
0
0
0
0
0
0
0
0
0
0
0
3.96107e-08
8.37251e-09
0
0
0
0
1.57523e-07
3.40962e-07
4.42559e-07
4.29742e-07
3.46092e-07
2.53871e-07
1.81565e-07
1.33907e-07
1.06801e-07
9.52918e-08
9.46407e-08
9.99507e-08
1.06625e-07
1.10858e-07
1.09757e-07
1.01588e-07
8.50823e-08
6.02943e-08
2.93056e-08
0
0
0
0
0
0
0
0
0
0
0
0
0
0
0
0
0
0
0
0
0
0
0
0
0
0
0
0
0
0
0
0
0
0
0
0
0
0
0
0
0
0
0
0
0
0
0
0
0
0
0
0
0
0
0
0
0
0
0
0
0
0
0
0
0
0
0
0
0
0
2.20179e-09
7.7219e-09
9.46168e-09
8.41673e-09
6.49543e-09
4.71526e-09
3.26261e-09
2.05699e-09
1.05131e-09
2.65854e-10
0
0
0
0
0
0
0
0
0
0
0
0
0
0
0
0
0
0
0
0
0
0
0
0
0
0
0
0
5.64394e-11
0
1.72019e-06
1.73979e-06
1.26493e-06
6.88495e-07
4.094e-07
3.33951e-07
6.85175e-07
1.28137e-06
1.31701e-06
8.63568e-07
0
0
0
0
0
0
0
0
0
0
0
0
7.66961e-06
1.88434e-05
1.25693e-05
8.39049e-06
5.49004e-06
3.31893e-06
1.72602e-06
6.16926e-07
0
0
0
0
0
0
0
0
0
0
0
0
0
0
0
0
0
0
0
1.73211e-07
4.7547e-07
6.96078e-07
7.45027e-07
6.4157e-07
4.85445e-07
3.49421e-07
2.487e-07
1.805e-07
1.38337e-07
1.16425e-07
1.09191e-07
1.10813e-07
1.1595e-07
1.20378e-07
1.21492e-07
1.18489e-07
1.10134e-07
9.42924e-08
6.83705e-08
3.18018e-08
0
0
0
0
0
0
0
0
0
0
0
0
0
0
0
0
0
0
0
0
0
0
0
0
0
0
0
0
0
0
0
0
0
0
0
0
0
0
0
0
0
0
0
0
0
0
0
0
0
0
0
0
0
0
0
0
0
0
0
0
0
0
0
0
0
0
0
0
0
0
0
0
0
0
0
0
0
0
0
0
0
0
0
0
0
0
0
0
0
0
0
0
0
0
0
0
0
0
0
0
0
0
0
0
0
0
0
0
0
0
1.63556e-06
1.20371e-06
5.95217e-07
3.77953e-07
4.36375e-07
8.91466e-07
1.36471e-06
1.45747e-06
8.88275e-07
0
0
0
0
0
0
0
0
0
0
0
0
4.25381e-06
1.81439e-05
1.55948e-05
1.1226e-05
8.18231e-06
5.87193e-06
3.96066e-06
2.42532e-06
1.20147e-06
3.17156e-07
0
0
0
0
0
0
0
0
0
0
0
0
0
0
0
0
1.70945e-07
5.46216e-07
8.62211e-07
1.00081e-06
9.2517e-07
7.18796e-07
5.19923e-07
3.72228e-07
2.67866e-07
1.94573e-07
1.46344e-07
1.19315e-07
1.09278e-07
1.10565e-07
1.17433e-07
1.25281e-07
1.31689e-07
1.36396e-07
1.40105e-07
1.41686e-07
1.35322e-07
1.08355e-07
4.62828e-08
0
0
0
0
0
0
0
0
0
0
0
0
0
0
0
0
0
0
0
0
0
0
0
0
0
0
0
0
0
0
0
0
0
0
0
0
0
0
0
0
0
0
0
0
0
0
0
0
0
0
0
0
0
0
0
0
0
0
0
0
0
0
0
0
0
0
0
0
0
0
0
0
0
0
0
0
0
0
0
0
0
0
0
0
0
0
0
0
0
0
0
0
0
0
0
0
0
0
0
0
0
0
0
0
0
0
0
0
0
0
1.64115e-07
2.62317e-07
3.46621e-07
5.23833e-07
9.23268e-07
1.19083e-06
1.20849e-06
6.70132e-07
0
0
0
0
0
0
0
0
0
0
0
0
6.71372e-07
1.79842e-05
1.84617e-05
1.32767e-05
9.50152e-06
7.27237e-06
5.82648e-06
4.36831e-06
2.87451e-06
1.5969e-06
6.22216e-07
0
0
0
0
0
0
0
0
0
0
0
0
0
0
0
4.41982e-07
8.31375e-07
9.69245e-07
8.37001e-07
6.00343e-07
4.35909e-07
3.50912e-07
2.92048e-07
2.35717e-07
1.83202e-07
1.41631e-07
1.16178e-07
1.07547e-07
1.12331e-07
1.25238e-07
1.41611e-07
1.5922e-07
1.79083e-07
2.05035e-07
2.41334e-07
2.89265e-07
3.38815e-07
3.4683e-07
2.07989e-07
0
0
0
0
0
0
0
0
0
0
0
0
0
0
0
0
0
0
0
0
0
1.80136e-09
1.80292e-08
1.99085e-08
1.47872e-09
0
0
0
0
0
0
0
0
0
0
0
0
0
0
0
0
0
0
0
0
0
0
0
0
0
0
0
0
0
0
0
0
0
0
0
0
0
0
0
0
0
0
0
0
0
0
0
0
0
0
0
0
0
0
0
0
0
0
0
0
0
0
0
0
0
0
0
0
0
0
0
0
0
0
0
0
0
0
0
0
0
0
0
0
0
0
2.50036e-08
1.13161e-07
5.37309e-07
8.59017e-07
8.83896e-07
4.89776e-07
0
1.31357e-06
4.57024e-06
1.79028e-06
0
0
0
0
0
0
0
0
0
3.23383e-05
3.58934e-05
2.27571e-05
1.41933e-05
9.22149e-06
6.46257e-06
5.00882e-06
4.0105e-06
2.97354e-06
1.80672e-06
8.24268e-07
1.70489e-07
0
0
0
0
0
0
0
0
0
0
0
0
1.09716e-07
6.15435e-07
6.41346e-07
2.5246e-07
0
0
0
0
1.12071e-07
1.59185e-07
1.54344e-07
1.3074e-07
1.10506e-07
1.03741e-07
1.1097e-07
1.28392e-07
1.51241e-07
1.75937e-07
2.02279e-07
2.34577e-07
2.82184e-07
3.58485e-07
4.81252e-07
6.71891e-07
9.41002e-07
1.09574e-06
0
0
0
0
0
0
0
0
0
0
0
0
0
0
0
0
0
0
0
0
0
0
0
1.27471e-08
2.41595e-08
2.07418e-09
0
0
0
0
0
0
0
0
0
0
0
0
0
0
0
0
0
0
0
0
0
0
0
0
0
0
0
0
0
0
0
0
0
0
0
0
0
0
0
0
0
0
0
0
0
0
0
0
0
0
0
0
0
0
0
0
0
0
0
0
0
0
0
0
0
0
0
0
0
0
0
0
0
0
0
0
0
0
0
0
0
0
0
0
0
0
0
4.41671e-07
5.85892e-07
3.39829e-07
0
3.00674e-06
5.10015e-06
3.99114e-06
1.47553e-06
3.59491e-07
1.05732e-07
0
0
0
0
0
0
1.29431e-06
6.48401e-06
9.32165e-06
8.36498e-06
6.43187e-06
4.9087e-06
3.93513e-06
3.3191e-06
2.89412e-06
2.39696e-06
1.63932e-06
7.96809e-07
6.80629e-08
0
0
0
0
0
0
0
0
0
0
0
1.68048e-07
9.79796e-08
0
0
0
0
0
0
0
2.29407e-08
9.30273e-08
1.01299e-07
9.17916e-08
8.71007e-08
9.29599e-08
1.09157e-07
1.3108e-07
1.51195e-07
1.61197e-07
1.57463e-07
1.45071e-07
1.36038e-07
1.4505e-07
1.87238e-07
2.76136e-07
4.11927e-07
5.04538e-07
1.82325e-07
0
0
3.71031e-08
1.36876e-07
1.78701e-07
1.73426e-07
1.53519e-07
1.23733e-07
8.82531e-08
5.40416e-08
2.02422e-08
0
0
0
0
0
0
0
0
0
0
0
0
0
0
0
0
0
0
0
0
0
0
0
0
0
0
0
0
0
0
0
0
0
0
0
0
0
0
0
0
0
0
0
0
0
0
0
0
0
0
0
0
0
0
0
0
0
0
0
0
0
0
0
0
0
0
0
0
0
0
0
0
0
0
0
0
0
0
0
0
0
0
0
0
0
0
0
0
0
0
0
0
0
0
0
0
0
0
0
0
0
1.02226e-07
0
0
1.83949e-06
3.54309e-06
3.38086e-06
2.33752e-06
9.18633e-07
4.26914e-07
4.38965e-07
7.74009e-07
2.07978e-06
5.18386e-06
9.86324e-06
1.46184e-05
1.65169e-05
1.02319e-05
0
0
0
0
0
0
0
0
9.98083e-09
2.97164e-08
0
0
0
0
0
0
0
0
0
0
0
0
0
0
0
0
0
0
0
0
0
0
0
4.07292e-08
5.58524e-08
6.11911e-08
7.0052e-08
8.41618e-08
1.0162e-07
1.10233e-07
9.54757e-08
5.16535e-08
0
0
0
0
8.44289e-08
2.9389e-07
5.65691e-07
6.90557e-07
2.02549e-07
0
0
2.10013e-07
3.97872e-07
4.69119e-07
4.50252e-07
4.0376e-07
3.33682e-07
2.66446e-07
2.07301e-07
1.55451e-07
1.07947e-07
6.02579e-08
9.12343e-09
0
0
0
0
0
0
0
0
0
0
0
0
0
0
0
0
0
0
0
0
0
0
0
0
0
0
0
0
0
0
0
0
0
0
0
0
0
0
0
0
0
0
0
0
0
0
0
0
0
0
0
0
0
0
0
0
0
0
0
0
0
0
0
0
0
0
0
0
0
0
0
0
0
0
0
0
0
0
0
0
0
0
0
0
0
0
0
0
0
0
0
0
0
0
0
0
0
0
0
0
0
1.75715e-06
2.254e-06
2.02917e-06
1.24216e-06
3.18628e-07
5.06266e-08
2.24015e-07
9.52135e-07
2.88824e-06
6.70657e-06
1.24726e-05
2.06993e-05
2.98734e-05
7.20524e-06
0
0
0
0
0
0
0
0
0
0
0
0
0
0
0
0
0
0
0
0
0
0
0
0
0
0
0
0
0
0
0
0
0
0
2.58278e-08
4.3116e-08
5.81959e-08
6.88899e-08
6.73306e-08
4.0186e-08
0
0
0
0
1.62947e-09
2.58595e-07
7.01717e-07
1.35454e-06
2.21301e-06
2.96976e-06
9.85576e-07
0
0
0
3.42461e-07
5.91019e-07
6.55507e-07
6.15635e-07
5.09402e-07
3.9129e-07
2.81501e-07
2.024e-07
1.5115e-07
1.23213e-07
1.07405e-07
8.37245e-08
5.00128e-08
8.39272e-09
0
0
0
0
0
0
0
0
0
0
0
0
0
0
0
0
0
0
0
0
0
0
0
0
0
0
0
0
0
0
0
0
0
0
0
0
0
0
0
0
0
0
0
0
0
0
0
0
0
0
0
0
0
0
0
5.26095e-09
0
0
0
0
0
0
0
0
0
0
0
0
0
0
0
0
0
0
0
0
0
0
0
0
0
0
0
0
0
0
0
0
0
0
0
0
0
0
0
0
0
0
9.61734e-07
1.4463e-06
1.36602e-06
7.59107e-07
0
0
0
0
9.66738e-07
3.11901e-06
7.30565e-06
1.45107e-05
2.4374e-05
0
0
0
0
0
0
0
0
0
0
0
3.17248e-07
9.02351e-07
8.92557e-07
6.72448e-07
5.02591e-07
3.20224e-07
1.80879e-07
1.05266e-07
3.46469e-07
1.44807e-08
0
0
0
0
0
0
0
0
0
0
0
0
0
0
1.5532e-08
3.63691e-08
4.40414e-08
3.49292e-08
2.8481e-09
0
0
0
0
6.62674e-08
4.0598e-07
9.77708e-07
1.7914e-06
2.89e-06
4.33187e-06
5.73122e-06
3.06881e-07
0
0
0
0
1.69399e-07
5.32155e-07
6.43646e-07
6.0391e-07
4.77468e-07
3.33458e-07
2.09556e-07
1.15659e-07
5.77616e-08
3.54347e-08
3.55592e-08
6.89798e-08
1.25404e-07
1.53013e-07
1.26575e-07
6.22308e-08
0
0
0
0
0
0
0
0
0
0
0
0
0
0
0
0
0
0
0
0
0
0
0
0
0
0
9.6563e-09
1.64946e-08
1.25031e-08
5.03091e-09
8.95568e-11
0
0
0
0
0
0
0
0
0
0
0
0
0
0
0
6.83064e-10
7.17443e-10
0
0
0
0
6.29414e-10
8.53151e-09
8.53021e-10
0
0
0
0
0
0
0
0
0
0
0
0
0
0
0
0
0
0
0
0
0
0
0
0
0
0
0
0
0
0
0
0
0
0
0
0
0
0
0
0
2.75377e-07
9.44932e-07
1.11396e-06
7.82456e-07
4.71982e-08
0
0
0
0
6.65451e-07
2.64401e-06
6.62174e-06
1.11559e-05
0
0
0
0
0
0
0
2.24353e-07
6.8765e-07
1.0168e-06
1.25462e-06
1.54743e-06
1.54337e-06
1.29415e-06
1.10838e-06
8.90988e-07
7.38728e-07
7.12808e-07
1.16187e-06
3.08661e-07
0
0
0
0
0
0
0
0
0
0
0
0
0
0
0
4.04857e-09
1.54531e-08
5.61631e-09
0
0
0
0
0
3.09139e-08
2.83355e-07
7.33864e-07
1.39843e-06
2.20214e-06
2.9542e-06
3.1434e-06
1.61931e-06
0
0
0
0
0
0
0
1.48234e-07
3.78695e-07
4.2504e-07
3.5947e-07
2.49006e-07
1.37823e-07
4.90824e-08
0
0
0
2.62745e-09
8.63677e-08
1.22077e-07
1.12623e-07
9.15103e-08
8.09342e-08
7.51473e-08
4.4714e-08
0
0
0
0
0
0
0
0
0
0
0
8.79532e-10
0
0
0
0
0
1.33065e-09
9.78466e-09
1.55406e-08
1.40708e-08
1.15826e-08
1.97122e-08
3.14209e-08
3.28816e-08
2.71575e-08
2.10942e-08
1.8376e-08
1.76744e-08
1.55293e-08
9.10622e-09
0
0
0
0
0
0
0
0
0
0
0
1.1649e-09
4.44488e-09
5.25979e-09
3.43883e-09
4.86112e-10
0
0
1.34507e-09
2.84442e-09
0
0
0
0
0
0
0
0
0
0
0
0
0
0
0
0
0
0
0
0
0
0
0
0
0
0
0
0
0
0
0
0
0
0
0
0
0
0
0
0
0
3.89845e-07
8.43944e-07
8.97645e-07
4.7046e-07
0
0
0
0
0
2.84427e-07
1.56144e-06
1.43154e-06
0
0
6.95932e-08
5.69455e-07
9.0607e-07
1.14191e-06
1.32854e-06
1.42249e-06
1.48846e-06
1.51914e-06
1.52725e-06
1.47416e-06
1.45931e-06
1.40596e-06
1.31594e-06
1.31609e-06
1.47973e-06
1.24123e-06
4.78338e-07
1.36024e-07
0
0
0
0
0
0
0
0
0
0
0
0
0
0
0
0
0
0
0
0
0
0
0
9.02988e-08
3.08582e-07
6.74367e-07
1.15014e-06
1.55782e-06
1.51086e-06
6.36094e-07
0
0
0
0
0
0
0
0
0
0
1.01113e-07
2.66317e-07
2.70663e-07
1.71054e-07
5.38194e-08
0
0
0
0
0
0
0
0
0
0
0
0
1.30087e-09
0
0
0
0
7.06307e-09
3.07021e-08
2.96724e-08
2.08241e-08
1.46741e-08
1.19734e-08
1.03707e-08
8.93307e-09
7.44207e-09
3.30087e-09
0
3.33497e-11
1.19489e-08
2.71676e-08
3.846e-08
4.10841e-08
4.31838e-08
5.07731e-08
5.1889e-08
4.02539e-08
2.82489e-08
2.39877e-08
2.6747e-08
3.01087e-08
2.88718e-08
2.21916e-08
1.04576e-08
0
0
0
0
0
0
0
0
0
0
2.97775e-09
7.35657e-09
7.83e-09
5.61374e-09
2.63416e-09
0
0
0
0
0
0
0
0
0
0
0
0
0
0
0
0
0
0
0
0
0
0
0
0
0
0
0
0
0
0
0
0
0
0
0
0
0
0
0
0
0
0
0
0
0
1.80111e-07
4.42237e-07
3.92955e-07
1.56502e-07
0
0
0
9.66228e-08
2.48538e-07
1.97739e-07
0
0
0
3.58925e-07
7.49636e-07
9.9092e-07
1.10983e-06
1.16062e-06
1.1553e-06
1.11622e-06
1.03954e-06
1.05061e-06
1.17688e-06
1.27593e-06
1.37553e-06
1.56241e-06
1.60605e-06
1.03719e-06
5.35437e-07
2.81724e-07
1.20371e-07
0
0
0
0
0
0
0
0
0
0
0
0
0
0
0
0
0
0
0
0
0
0
0
0
0
0
0
0
0
0
0
0
0
0
0
0
0
0
0
0
0
6.49719e-08
2.76979e-07
2.81808e-07
1.17518e-07
0
0
0
0
2.58332e-08
3.0993e-08
0
0
0
0
0
0
0
0
0
0
2.84853e-09
3.6742e-08
6.88488e-08
7.29022e-08
5.95043e-08
3.68261e-08
1.1913e-08
0
0
4.05591e-10
5.73927e-09
3.18693e-09
9.43727e-11
1.36311e-08
3.90982e-08
6.01957e-08
6.83848e-08
6.88239e-08
7.23177e-08
6.98106e-08
4.74864e-08
1.69349e-08
1.33813e-09
7.64008e-09
2.48636e-08
3.701e-08
3.74949e-08
3.03713e-08
1.76878e-08
7.15016e-11
0
0
0
0
0
0
0
0
0
4.12555e-09
8.31941e-09
7.19688e-09
3.37784e-09
0
0
0
0
0
0
0
0
0
0
0
0
0
0
0
0
0
0
0
0
0
0
0
0
0
0
0
0
0
0
0
0
0
0
0
0
0
0
0
0
0
0
0
0
0
0
0
0
0
0
0
0
0
0
0
0
0
2.49136e-08
8.55504e-08
1.45475e-07
1.86507e-07
1.81591e-07
1.17196e-07
2.35717e-08
1.7402e-08
2.09541e-07
4.84613e-07
7.1501e-07
9.29009e-07
1.14478e-06
1.09616e-06
7.48888e-07
4.70192e-07
3.09424e-07
2.0122e-07
1.05033e-07
1.55845e-08
0
0
0
0
0
0
0
0
0
0
0
0
0
0
0
5.69506e-09
0
0
0
0
0
0
0
0
0
0
0
0
0
0
0
0
0
0
0
0
0
0
0
0
0
1.2411e-07
3.11632e-07
2.42671e-07
0
0
0
0
0
1.58972e-07
1.38043e-07
2.8111e-08
0
0
0
0
0
0
0
1.30188e-08
4.55436e-08
8.66855e-08
1.22694e-07
1.21665e-07
1.01735e-07
7.91593e-08
4.80828e-08
1.62319e-08
0
0
0
3.11745e-09
3.22993e-09
8.22505e-09
3.28734e-08
6.38457e-08
7.84431e-08
7.47816e-08
6.73553e-08
6.17203e-08
4.32073e-08
4.95467e-09
0
0
0
2.19924e-08
3.89839e-08
3.69199e-08
2.5021e-08
9.06003e-09
0
0
0
0
0
0
0
0
0
0
3.45981e-09
4.40519e-09
0
0
0
0
0
0
0
0
0
0
0
0
0
0
0
0
0
0
0
0
0
0
0
0
0
0
0
0
0
0
0
0
0
0
0
0
0
0
0
0
0
0
0
0
0
0
0
0
0
0
0
0
6.91294e-09
2.92847e-08
2.4754e-08
2.0301e-08
5.0609e-08
1.19031e-07
1.98166e-07
2.478e-07
2.295e-07
1.46947e-07
2.21633e-08
0
0
0
1.3627e-07
3.28479e-07
5.10617e-07
6.65271e-07
6.67402e-07
5.24731e-07
3.80336e-07
2.80522e-07
2.12344e-07
1.5458e-07
9.22647e-08
3.04553e-08
0
0
0
0
0
0
0
0
0
0
0
0
0
0
2.54049e-08
4.44302e-08
5.18399e-08
5.37056e-08
5.76343e-08
5.75463e-08
2.56928e-08
0
0
0
0
0
0
0
0
0
0
0
0
0
0
0
0
0
1.97352e-07
1.93952e-07
0
0
1.44451e-07
2.46938e-07
5.47252e-08
0
0
0
0
0
2.22231e-08
1.92519e-07
3.54823e-08
0
0
0
0
0
0
1.29005e-08
1.17262e-07
1.58458e-07
1.79768e-07
1.63091e-07
1.36813e-07
1.15286e-07
9.19988e-08
6.49088e-08
3.97593e-08
2.41585e-08
2.34927e-08
3.19593e-08
3.5982e-08
3.53281e-08
4.27205e-08
6.50979e-08
8.75727e-08
9.53836e-08
8.82732e-08
7.04764e-08
4.86429e-08
2.09758e-08
0
0
0
5.28899e-09
3.26066e-08
4.1599e-08
3.17072e-08
1.2242e-08
0
0
0
0
0
0
0
0
0
0
0
0
0
0
0
0
0
0
0
0
0
0
0
0
0
0
0
0
0
0
0
0
0
0
0
0
0
0
0
0
0
0
0
0
0
0
0
0
0
0
0
0
0
0
0
0
0
0
0
0
0
0
1.49902e-07
4.34322e-07
6.86102e-07
5.80408e-07
0
0
0
0
0
1.36277e-07
2.43819e-07
2.2136e-07
1.49466e-07
9.36122e-08
9.67021e-08
1.61621e-07
2.4345e-07
3.20053e-07
3.82147e-07
3.89497e-07
3.38914e-07
2.77669e-07
2.23378e-07
1.83885e-07
1.54421e-07
1.22145e-07
8.52009e-08
4.58457e-08
9.39337e-09
0
0
0
0
0
0
0
0
0
6.27325e-09
8.88862e-11
0
2.9082e-09
2.60959e-08
5.00905e-08
6.66016e-08
7.50108e-08
8.10992e-08
8.95728e-08
8.82915e-08
5.57415e-08
0
0
0
0
0
0
0
0
0
0
0
0
0
0
0
0
1.39265e-07
3.1435e-07
1.26686e-07
0
0
1.3182e-07
9.13767e-08
0
0
0
0
0
0
0
2.5543e-08
0
0
0
0
0
0
0
1.23226e-07
1.56413e-07
1.32493e-07
1.16961e-07
1.14539e-07
1.12428e-07
1.0597e-07
9.14614e-08
7.78999e-08
6.83131e-08
6.62618e-08
7.17228e-08
7.76549e-08
7.9592e-08
8.05184e-08
8.61817e-08
9.54065e-08
1.00674e-07
9.46644e-08
7.84194e-08
5.77955e-08
3.74348e-08
1.98654e-08
7.16563e-09
3.66782e-09
1.27109e-08
3.01597e-08
4.11964e-08
3.58002e-08
1.90537e-08
0
0
0
0
0
0
0
0
0
0
0
0
0
0
0
0
0
0
0
0
0
0
0
0
0
0
0
0
0
0
0
0
0
0
0
0
0
0
0
0
0
0
0
0
0
0
0
0
0
0
0
0
0
0
0
0
0
0
0
0
5.45441e-09
1.75957e-07
3.6931e-07
5.65667e-07
7.92197e-07
4.63817e-07
0
0
0
0
0
0
1.05869e-07
1.52435e-07
1.15192e-07
9.61442e-08
1.16719e-07
1.6026e-07
2.05748e-07
2.3227e-07
2.30987e-07
2.06406e-07
1.74714e-07
1.48937e-07
1.28976e-07
1.15739e-07
1.06283e-07
9.271e-08
7.42671e-08
5.15266e-08
3.04065e-08
1.03525e-08
0
0
0
0
0
0
0
0
0
0
0
0
0
9.80987e-09
2.20826e-08
2.81035e-08
2.95248e-08
3.33276e-08
4.12744e-08
4.74471e-08
4.11776e-08
9.5119e-09
0
0
0
0
0
0
0
0
0
0
0
0
0
0
6.40003e-10
2.57402e-07
2.19164e-07
1.49538e-08
0
0
1.09143e-08
0
0
0
0
0
0
0
1.40207e-09
2.87481e-08
0
0
0
0
0
1.2745e-08
8.14718e-08
1.14946e-07
8.55263e-08
4.98094e-08
5.12464e-08
7.08866e-08
8.67708e-08
9.34014e-08
9.42732e-08
9.71932e-08
1.01757e-07
1.05784e-07
1.07677e-07
1.07001e-07
1.04945e-07
1.03599e-07
1.00631e-07
9.65297e-08
8.99923e-08
7.83069e-08
6.52006e-08
5.08881e-08
3.7731e-08
2.94802e-08
2.62108e-08
2.88583e-08
3.63061e-08
4.24415e-08
3.87202e-08
2.47825e-08
8.06071e-09
0
0
0
0
0
0
1.89214e-09
9.28016e-09
7.17698e-09
0
0
0
0
0
0
0
0
0
0
0
0
5.33658e-09
0
0
0
0
0
0
0
0
0
0
0
0
0
0
0
0
0
0
0
0
0
0
0
0
0
0
0
0
0
0
0
0
0
0
0
0
3.6481e-08
1.16972e-07
1.58354e-07
1.64176e-07
1.30227e-07
1.15839e-08
0
0
0
0
0
0
0
3.17453e-08
7.12525e-08
2.13621e-08
0
1.72516e-08
6.57066e-08
1.07912e-07
1.27983e-07
1.23052e-07
1.00539e-07
8.04214e-08
6.86714e-08
6.29841e-08
5.96648e-08
5.90508e-08
5.90648e-08
5.43198e-08
4.47483e-08
3.84443e-08
3.58545e-08
2.84551e-08
1.509e-08
0
0
0
0
0
0
0
0
0
0
0
0
0
0
0
0
0
0
0
0
9.2394e-08
3.05094e-07
6.54375e-07
1.08028e-06
1.47047e-06
1.64939e-06
1.21077e-06
2.23594e-07
0
0
0
0
0
0
0
1.81378e-07
2.71114e-07
1.0404e-07
0
0
0
0
0
0
0
0
0
0
0
2.56494e-08
2.94694e-08
1.58099e-08
1.18654e-08
1.39793e-08
2.6094e-08
5.28392e-08
8.29349e-08
1.02044e-07
8.9752e-08
5.93202e-08
4.44423e-08
5.46947e-08
7.58232e-08
9.30136e-08
1.039e-07
1.1502e-07
1.27008e-07
1.34099e-07
1.33684e-07
1.27978e-07
1.20582e-07
1.14954e-07
1.07705e-07
9.72262e-08
8.89546e-08
8.0934e-08
7.35542e-08
6.51808e-08
5.26741e-08
4.23568e-08
3.76857e-08
3.81767e-08
4.19085e-08
4.43556e-08
4.10664e-08
2.99546e-08
1.53752e-08
3.87962e-09
0
0
0
0
1.80655e-09
6.39701e-09
1.05583e-08
1.29719e-08
6.50177e-09
0
0
0
0
0
0
0
0
0
0
0
0
2.19556e-08
0
0
0
0
0
0
0
0
0
0
0
0
0
0
0
0
0
0
0
0
0
0
0
0
0
0
0
0
0
0
0
0
0
0
0
4.07966e-08
5.5752e-08
2.45359e-08
0
0
0
0
0
0
0
0
0
0
4.16266e-08
9.13967e-08
4.66256e-08
0
0
2.24565e-09
4.90057e-08
6.79004e-08
6.17517e-08
4.67258e-08
2.96056e-08
1.94435e-08
1.7671e-08
1.57026e-08
1.57924e-08
2.25386e-08
2.75695e-08
2.83803e-08
3.38936e-08
4.52718e-08
5.33549e-08
5.50234e-08
5.05343e-08
3.93562e-08
2.25037e-08
2.91287e-09
0
0
0
0
0
0
0
0
0
0
0
0
0
0
0
0
0
2.60252e-07
8.60141e-07
1.76092e-06
2.88089e-06
4.12048e-06
4.49658e-06
2.6906e-06
0
0
0
0
0
0
0
1.18537e-07
2.5021e-07
1.77899e-07
0
0
0
0
0
0
0
0
0
0
0
0
2.85223e-08
3.20538e-08
3.01169e-08
3.25228e-08
4.1696e-08
6.06495e-08
8.18186e-08
1.00856e-07
1.06193e-07
9.38214e-08
7.76727e-08
7.43408e-08
8.81518e-08
1.09112e-07
1.23449e-07
1.3347e-07
1.4559e-07
1.55601e-07
1.56351e-07
1.48298e-07
1.35289e-07
1.25718e-07
1.17731e-07
1.06286e-07
9.54906e-08
8.89886e-08
8.43545e-08
8.0267e-08
6.91444e-08
5.37617e-08
4.37374e-08
4.09036e-08
4.30402e-08
4.46058e-08
4.12404e-08
3.25203e-08
2.00506e-08
1.01328e-08
4.5971e-09
1.34258e-09
8.67223e-10
3.59894e-09
8.38878e-09
1.09414e-08
1.09935e-08
1.23779e-08
1.13634e-08
1.54665e-09
0
0
0
0
0
0
0
0
0
0
0
2.21895e-08
1.23513e-08
0
0
0
0
0
0
0
0
0
0
0
0
0
0
0
0
0
0
0
0
0
0
0
0
0
0
0
0
0
0
0
0
0
0
0
0
0
0
0
0
0
0
5.64772e-08
2.03929e-08
0
0
0
6.11494e-08
1.25866e-07
1.14537e-07
7.06179e-08
2.90066e-08
7.96455e-09
2.30969e-08
4.07902e-08
3.18206e-08
1.53759e-08
0
0
0
0
0
0
6.98013e-09
1.36831e-08
2.33181e-08
3.74557e-08
4.90151e-08
5.68568e-08
6.29762e-08
6.76892e-08
7.13461e-08
7.64784e-08
8.71488e-08
9.64755e-08
7.34277e-08
1.04769e-08
0
0
0
0
0
0
0
0
0
0
0
0
0
4.71744e-08
5.97843e-07
1.58802e-06
3.08431e-06
5.40356e-06
8.14289e-06
8.53974e-06
0
0
0
0
0
0
5.68096e-08
1.05758e-07
2.23082e-07
2.30572e-07
9.35968e-09
0
0
0
0
0
0
0
0
0
0
0
3.5398e-08
5.64201e-08
4.95553e-08
4.56006e-08
4.82352e-08
5.93948e-08
7.59051e-08
9.44303e-08
1.17652e-07
1.24893e-07
1.18615e-07
1.09937e-07
1.12909e-07
1.30769e-07
1.49373e-07
1.58867e-07
1.64686e-07
1.72458e-07
1.75314e-07
1.68717e-07
1.53701e-07
1.3831e-07
1.28502e-07
1.18733e-07
1.07728e-07
1.01221e-07
9.74826e-08
9.50964e-08
8.63648e-08
6.74078e-08
5.01569e-08
4.20127e-08
4.19794e-08
4.38125e-08
4.10967e-08
3.35737e-08
2.28215e-08
1.38975e-08
1.02274e-08
8.71299e-09
8.26924e-09
1.01187e-08
1.36914e-08
1.46475e-08
1.14151e-08
9.28043e-09
1.0592e-08
6.93789e-09
0
0
0
0
0
0
0
0
0
0
0
0
2.91617e-08
0
0
0
0
0
0
0
0
0
0
0
0
0
0
0
0
0
0
0
0
0
0
0
0
0
0
0
0
0
0
0
0
0
0
0
0
0
0
0
0
0
0
1.82202e-08
2.68309e-08
0
0
2.18149e-08
9.67604e-08
1.56763e-07
1.41225e-07
1.17602e-07
8.95437e-08
4.59703e-08
1.32463e-08
6.84407e-09
0
0
0
0
0
0
0
0
0
7.18074e-09
1.67657e-08
2.82818e-08
3.69269e-08
4.16618e-08
4.41913e-08
4.64049e-08
5.23968e-08
7.41959e-08
1.43154e-07
2.71929e-07
2.66148e-07
9.17317e-08
0
0
0
0
0
0
0
0
0
0
0
0
0
0
2.52733e-07
1.02733e-06
2.28937e-06
4.42239e-06
7.58828e-06
1.10345e-05
0
0
0
0
0
5.26817e-08
1.43224e-07
9.87526e-08
1.52738e-07
2.27632e-07
3.26142e-08
0
0
0
0
0
0
0
0
0
0
0
6.69675e-08
1.06832e-07
9.10398e-08
7.44158e-08
6.49592e-08
6.47375e-08
7.43753e-08
9.05378e-08
1.17369e-07
1.4712e-07
1.55148e-07
1.50489e-07
1.46247e-07
1.55733e-07
1.73999e-07
1.85252e-07
1.85725e-07
1.86087e-07
1.88592e-07
1.85896e-07
1.74742e-07
1.56664e-07
1.41938e-07
1.30505e-07
1.19887e-07
1.1373e-07
1.10608e-07
1.08309e-07
1.01712e-07
8.23827e-08
5.87168e-08
4.41762e-08
4.05333e-08
4.25043e-08
4.13995e-08
3.4529e-08
2.45258e-08
1.61938e-08
1.37107e-08
1.42394e-08
1.43623e-08
1.54758e-08
1.79773e-08
1.78574e-08
1.20302e-08
5.83638e-09
5.56389e-09
7.64308e-09
1.01221e-09
0
0
0
0
0
0
0
0
0
0
0
0
1.04842e-08
0
0
0
0
0
0
0
0
0
0
0
0
0
0
0
0
0
0
0
0
0
0
0
0
4.94735e-09
5.64245e-08
0
0
0
0
0
0
0
0
0
0
0
2.60158e-09
0
0
0
0
0
0
2.34886e-08
8.40812e-08
1.62322e-07
2.09559e-07
1.54991e-07
9.37162e-08
6.88047e-08
5.48916e-08
2.42352e-08
0
0
0
0
0
0
0
0
0
0
3.77168e-09
1.29472e-08
2.18271e-08
2.67856e-08
2.6546e-08
2.28562e-08
1.74897e-08
1.0523e-08
4.66906e-09
3.52469e-08
2.81968e-07
4.36834e-07
9.59074e-08
0
0
0
0
0
0
0
0
0
0
0
0
0
0
0
5.0724e-07
1.3691e-06
2.63226e-06
3.98342e-06
3.50128e-06
0
0
0
0
0
1.45717e-07
1.90982e-07
7.95938e-08
6.5054e-08
1.99527e-07
4.9424e-08
0
0
0
0
0
0
0
0
0
0
0
1.09e-07
1.65658e-07
1.4172e-07
1.13996e-07
9.43328e-08
8.40846e-08
8.40209e-08
9.45632e-08
1.16277e-07
1.55954e-07
1.81618e-07
1.84737e-07
1.7897e-07
1.81055e-07
1.95791e-07
2.09119e-07
2.09382e-07
2.00353e-07
1.97169e-07
1.96179e-07
1.90275e-07
1.7631e-07
1.59283e-07
1.44434e-07
1.31202e-07
1.23602e-07
1.21036e-07
1.18393e-07
1.13186e-07
9.63588e-08
6.96476e-08
4.8954e-08
4.08945e-08
4.20309e-08
4.25664e-08
3.62235e-08
2.59256e-08
1.74714e-08
1.54798e-08
1.77732e-08
1.90358e-08
1.96763e-08
2.13124e-08
2.07778e-08
1.33372e-08
3.27528e-09
0
2.92149e-09
3.62498e-09
0
0
0
0
0
0
0
0
0
0
0
0
5.55527e-09
0
0
0
0
0
0
0
0
0
0
0
0
0
0
0
0
0
0
0
0
0
0
0
0
0
0
0
0
0
0
0
0
0
0
0
0
0
1.06525e-07
1.70714e-07
0
0
0
4.46195e-08
2.14274e-07
1.54074e-07
1.61986e-07
2.5464e-07
2.73762e-07
1.76451e-07
7.78754e-08
2.0265e-08
9.26846e-09
2.08457e-08
0
0
0
0
0
0
0
0
0
0
0
7.38401e-09
1.43293e-08
1.78219e-08
1.86829e-08
1.9201e-08
1.86948e-08
1.12872e-08
0
0
0
3.40694e-07
0
0
0
0
0
0
0
0
0
0
0
0
0
0
0
0
1.37874e-07
6.91361e-07
1.34431e-06
1.77464e-06
1.08723e-06
0
0
0
0
0
1.82383e-07
2.03522e-07
2.36648e-08
0
1.30881e-07
5.99954e-08
0
0
0
0
0
0
0
0
0
0
0
1.51537e-07
2.12878e-07
1.80526e-07
1.45595e-07
1.21684e-07
1.07301e-07
1.01998e-07
1.06334e-07
1.20947e-07
1.53364e-07
1.90863e-07
2.05212e-07
2.01955e-07
1.98787e-07
2.08751e-07
2.2352e-07
2.27694e-07
2.15165e-07
2.03594e-07
2.00387e-07
1.97405e-07
1.8847e-07
1.72291e-07
1.55877e-07
1.40268e-07
1.29683e-07
1.25672e-07
1.22416e-07
1.17476e-07
1.04077e-07
7.98438e-08
5.68874e-08
4.51055e-08
4.38316e-08
4.47768e-08
3.87546e-08
2.74821e-08
1.81922e-08
1.58988e-08
1.90974e-08
2.17148e-08
2.24973e-08
2.36224e-08
2.29846e-08
1.49758e-08
1.8528e-09
0
0
4.99232e-10
0
0
0
0
0
0
0
0
0
0
0
0
0
0
0
0
0
0
0
0
0
0
0
0
0
0
0
0
0
0
0
0
0
0
0
0
0
0
0
0
0
0
0
0
0
0
0
0
0
0
2.7105e-08
3.3293e-07
4.03658e-07
0
1.04501e-07
3.35109e-07
2.93532e-07
1.91017e-07
2.36355e-07
3.4109e-07
2.9735e-07
1.90092e-07
7.77196e-08
0
0
0
0
0
0
0
0
0
0
0
0
0
0
1.346e-09
6.92168e-09
1.28065e-08
2.03635e-08
2.79786e-08
3.2051e-08
2.51011e-08
0
0
0
0
0
0
0
0
0
0
0
0
0
0
0
0
0
0
0
0
0
2.86574e-07
6.36696e-07
7.93664e-07
4.02595e-07
0
0
0
0
0
1.80187e-07
1.73829e-07
0
0
4.23882e-08
6.67966e-08
0
0
0
0
0
0
0
0
0
0
0
1.99952e-07
2.47403e-07
2.04272e-07
1.62164e-07
1.35218e-07
1.21123e-07
1.1548e-07
1.17085e-07
1.25948e-07
1.46972e-07
1.81349e-07
2.03913e-07
2.06188e-07
2.01438e-07
2.07105e-07
2.21495e-07
2.29242e-07
2.19701e-07
2.02403e-07
1.94836e-07
1.92207e-07
1.85875e-07
1.71064e-07
1.53574e-07
1.37459e-07
1.25652e-07
1.20398e-07
1.16049e-07
1.10432e-07
1.00099e-07
8.21348e-08
6.29306e-08
5.06705e-08
4.66899e-08
4.61968e-08
4.04602e-08
2.86851e-08
1.84907e-08
1.51555e-08
1.79184e-08
2.13928e-08
2.30142e-08
2.42465e-08
2.3621e-08
1.58145e-08
1.02419e-09
0
0
0
0
0
0
0
0
0
0
0
0
0
0
0
0
0
0
0
0
0
0
0
0
0
0
0
0
0
0
0
0
0
0
0
0
0
0
0
0
0
0
0
0
0
0
0
0
0
0
0
0
0
0
0
0
1.00282e-07
2.00169e-07
2.17675e-07
1.81197e-07
2.07478e-07
2.79023e-07
3.53752e-07
2.79164e-07
1.8218e-07
8.45165e-08
9.70891e-09
0
0
0
0
0
0
0
0
0
0
0
0
0
0
9.5081e-10
1.29668e-08
2.50453e-08
3.22799e-08
3.49153e-08
3.21899e-08
9.60945e-09