/*--------------------------------*- C++ -*----------------------------------*\
  =========                 |
  \\      /  F ield         | OpenFOAM: The Open Source CFD Toolbox
   \\    /   O peration     | Website:  https://openfoam.org
    \\  /    A nd           | Version:  7
     \\/     M anipulation  |
\*---------------------------------------------------------------------------*/
FoamFile
{
    version     2.0;
    format      ascii;
    class       surfaceScalarField;
    location    "0.065";
    object      phi_0;
}
// * * * * * * * * * * * * * * * * * * * * * * * * * * * * * * * * * * * * * //

dimensions      [0 3 -1 0 0 0 0];

internalField   nonuniform List<scalar> 
24170
(
1.41312e-06
2.06065e-07
1.27305e-06
1.40068e-07
1.13754e-06
1.35507e-07
1.01839e-06
1.19146e-07
9.06392e-07
1.12002e-07
7.98051e-07
1.08342e-07
6.96972e-07
1.01078e-07
6.08183e-07
8.87893e-08
5.34162e-07
7.4021e-08
4.73419e-07
6.07431e-08
4.22239e-07
5.118e-08
3.77748e-07
4.44913e-08
3.38903e-07
3.88446e-08
3.05671e-07
3.32321e-08
2.77158e-07
2.85132e-08
2.53561e-07
2.35968e-08
2.29204e-07
2.43574e-08
2.01122e-08
2.09091e-07
1.66787e-06
2.3035e-07
1.64571e-06
1.62222e-07
1.62065e-06
1.60573e-07
1.58874e-06
1.51056e-07
1.54807e-06
1.52673e-07
1.4997e-06
1.56708e-07
1.45048e-06
1.50305e-07
1.40663e-06
1.32634e-07
1.36857e-06
1.12079e-07
1.33177e-06
9.75449e-08
1.29174e-06
9.12112e-08
1.24775e-06
8.84819e-08
1.20273e-06
8.38644e-08
1.15996e-06
7.59977e-08
1.12168e-06
6.6801e-08
1.08636e-06
5.89128e-08
1.05315e-06
5.75691e-08
5.89548e-08
1.01431e-06
1.79265e-06
3.12139e-07
1.76077e-06
1.94107e-07
1.75365e-06
1.67694e-07
1.74755e-06
1.57152e-07
1.73654e-06
1.6368e-07
1.72413e-06
1.69124e-07
1.7139e-06
1.60528e-07
1.70688e-06
1.39661e-07
1.70156e-06
1.17391e-07
1.69567e-06
1.03441e-07
1.68745e-06
9.94269e-08
1.6764e-06
9.95329e-08
1.66286e-06
9.74086e-08
1.64779e-06
9.10602e-08
1.63158e-06
8.3014e-08
1.61395e-06
7.65492e-08
1.59519e-06
7.6322e-08
8.06275e-08
1.57352e-06
1.92622e-06
3.79385e-07
1.8967e-06
2.23628e-07
1.89084e-06
1.73554e-07
1.88399e-06
1.6401e-07
1.87835e-06
1.69318e-07
1.87658e-06
1.70897e-07
1.87724e-06
1.59869e-07
1.87773e-06
1.39169e-07
1.87646e-06
1.18661e-07
1.8737e-06
1.06196e-07
1.87058e-06
1.02554e-07
1.86766e-06
1.02452e-07
1.86447e-06
1.00596e-07
1.86023e-06
9.52958e-08
1.85457e-06
8.86781e-08
1.84742e-06
8.37e-08
1.84048e-06
8.32611e-08
8.73933e-08
1.83371e-06
2.07178e-06
3.79202e-07
2.04902e-06
2.46387e-07
2.03772e-06
1.84857e-07
2.02604e-06
1.75685e-07
2.01501e-06
1.80349e-07
2.00821e-06
1.77696e-07
2.00744e-06
1.60638e-07
2.01041e-06
1.362e-07
2.01313e-06
1.15944e-07
2.0133e-06
1.0602e-07
2.01124e-06
1.04616e-07
2.00831e-06
1.05388e-07
2.00554e-06
1.03361e-07
2.00331e-06
9.75249e-08
2.00192e-06
9.0065e-08
2.0015e-06
8.41285e-08
2.00307e-06
8.16854e-08
8.37275e-08
2.00674e-06
2.23037e-06
3.31904e-07
2.21668e-06
2.60075e-07
2.18169e-06
2.19853e-07
2.15093e-06
2.06442e-07
2.14128e-06
1.90004e-07
2.14944e-06
1.69533e-07
2.16364e-06
1.46439e-07
2.17398e-06
1.25861e-07
2.17652e-06
1.13402e-07
2.17305e-06
1.09485e-07
2.16829e-06
1.0938e-07
2.16614e-06
1.07537e-07
2.16802e-06
1.01483e-07
2.173e-06
9.25396e-08
2.1794e-06
8.36657e-08
2.18586e-06
7.76732e-08
2.1919e-06
7.56431e-08
7.77619e-08
2.19787e-06
2.41185e-06
4.20812e-07
2.38275e-06
2.89171e-07
2.36999e-06
2.3262e-07
2.36073e-06
2.15703e-07
2.35617e-06
1.94561e-07
2.35637e-06
1.69335e-07
2.35841e-06
1.44397e-07
2.35983e-06
1.24437e-07
2.35997e-06
1.13268e-07
2.35933e-06
1.10127e-07
2.35891e-06
1.09799e-07
2.35938e-06
1.07067e-07
2.36086e-06
1.00002e-07
2.36288e-06
9.05173e-08
2.36505e-06
8.14911e-08
2.36724e-06
7.54905e-08
2.36984e-06
7.30377e-08
7.36846e-08
2.37392e-06
2.55079e-06
4.7259e-07
2.54751e-06
2.92454e-07
2.55218e-06
2.27946e-07
2.55752e-06
2.10362e-07
2.55316e-06
1.98925e-07
2.53913e-06
1.83364e-07
2.52197e-06
1.61549e-07
2.50803e-06
1.38383e-07
2.50035e-06
1.2095e-07
2.49913e-06
1.11343e-07
2.50295e-06
1.05976e-07
2.50975e-06
1.00275e-07
2.51749e-06
9.22552e-08
2.52473e-06
8.32788e-08
2.53082e-06
7.53995e-08
2.53587e-06
7.04469e-08
2.54075e-06
6.8154e-08
6.81827e-08
2.54625e-06
2.78058e-06
4.78511e-07
2.74546e-06
3.2757e-07
2.72034e-06
2.53075e-07
2.71588e-06
2.14819e-07
2.71603e-06
1.98779e-07
2.71392e-06
1.85471e-07
2.70816e-06
1.67302e-07
2.69912e-06
1.47432e-07
2.6897e-06
1.30371e-07
2.68419e-06
1.1685e-07
2.68503e-06
1.05139e-07
2.69146e-06
9.38447e-08
2.70066e-06
8.30514e-08
2.70993e-06
7.40056e-08
2.71804e-06
6.72955e-08
2.72523e-06
6.32488e-08
2.73286e-06
6.0525e-08
5.85925e-08
2.74245e-06
2.96324e-06
4.47992e-07
2.93757e-06
3.53246e-07
2.9304e-06
2.60247e-07
2.9292e-06
2.16018e-07
2.92254e-06
2.05438e-07
2.91505e-06
1.92957e-07
2.91193e-06
1.70427e-07
2.91367e-06
1.45689e-07
2.91889e-06
1.2515e-07
2.92628e-06
1.09462e-07
2.93426e-06
9.71598e-08
2.94075e-06
8.73498e-08
2.94425e-06
7.95536e-08
2.9448e-06
7.34535e-08
2.94403e-06
6.80734e-08
2.9442e-06
6.30733e-08
2.94739e-06
5.73409e-08
5.14508e-08
2.95453e-06
3.22867e-06
4.14955e-07
3.23553e-06
3.4639e-07
3.19999e-06
2.95785e-07
3.1478e-06
2.68212e-07
3.11221e-06
2.41025e-07
3.10348e-06
2.01687e-07
3.11533e-06
1.58579e-07
3.13579e-06
1.25231e-07
3.15455e-06
1.06385e-07
3.16567e-06
9.83462e-08
3.1676e-06
9.52277e-08
3.16254e-06
9.24084e-08
3.15478e-06
8.73182e-08
3.14875e-06
7.94807e-08
3.14735e-06
6.947e-08
3.15162e-06
5.88068e-08
3.1609e-06
4.80569e-08
3.8641e-08
3.17371e-06
2.90156e-06
4.94741e-07
2.88943e-06
3.58519e-07
2.88437e-06
3.00839e-07
2.86627e-06
2.8631e-07
2.8463e-06
2.61001e-07
2.83093e-06
2.17052e-07
2.82254e-06
1.66976e-07
2.82248e-06
1.25292e-07
2.82992e-06
9.89443e-08
2.84129e-06
8.69715e-08
2.85239e-06
8.41257e-08
2.86057e-06
8.42301e-08
2.86534e-06
8.25508e-08
2.86767e-06
7.71544e-08
2.86908e-06
6.80541e-08
2.87085e-06
5.70409e-08
2.87384e-06
4.50634e-08
3.36938e-08
2.87879e-06
3.47985e-06
4.74526e-07
3.47826e-06
3.60107e-07
3.4803e-06
2.98807e-07
3.4839e-06
2.82702e-07
3.48537e-06
2.59538e-07
3.48514e-06
2.17277e-07
3.48445e-06
1.67671e-07
3.48464e-06
1.25102e-07
3.48751e-06
9.6066e-08
3.49408e-06
8.04047e-08
3.50319e-06
7.50155e-08
3.51187e-06
7.55496e-08
3.51712e-06
7.73034e-08
3.51735e-06
7.6927e-08
3.51313e-06
7.22683e-08
3.50664e-06
6.35387e-08
3.50045e-06
5.1245e-08
3.70413e-08
3.49711e-06
4.26773e-06
3.74647e-07
4.28533e-06
3.42516e-07
4.26686e-06
3.17274e-07
4.26107e-06
2.88488e-07
4.26538e-06
2.55225e-07
4.26628e-06
2.16383e-07
4.26025e-06
1.73705e-07
4.2527e-06
1.32644e-07
4.24933e-06
9.94386e-08
4.25165e-06
7.80814e-08
4.25783e-06
6.88397e-08
4.26511e-06
6.82732e-08
4.2715e-06
7.09084e-08
4.27618e-06
7.22519e-08
4.27928e-06
6.9166e-08
4.28133e-06
6.1486e-08
4.28295e-06
4.96263e-08
3.54129e-08
4.28458e-06
5.18892e-06
3.5661e-07
5.15548e-06
3.75949e-07
5.12693e-06
3.45828e-07
5.14328e-06
2.72138e-07
5.17026e-06
2.28242e-07
5.17827e-06
2.08371e-07
5.16951e-06
1.82469e-07
5.16065e-06
1.41502e-07
5.16189e-06
9.82021e-08
5.17215e-06
6.78239e-08
5.1851e-06
5.58831e-08
5.19531e-06
5.8064e-08
5.20056e-06
6.56567e-08
5.2017e-06
7.11125e-08
5.20094e-06
6.99282e-08
5.20067e-06
6.17513e-08
5.20251e-06
4.77909e-08
3.09364e-08
5.20699e-06
6.42981e-06
5.37916e-07
6.38046e-06
4.25305e-07
6.36571e-06
3.6057e-07
6.34437e-06
2.93482e-07
6.33171e-06
2.409e-07
6.33538e-06
2.04701e-07
6.34644e-06
1.71411e-07
6.35429e-06
1.33651e-07
6.35647e-06
9.60225e-08
6.35708e-06
6.72156e-08
6.36121e-06
5.1756e-08
6.37153e-06
4.77379e-08
6.38779e-06
4.93986e-08
6.40814e-06
5.0762e-08
6.43008e-06
4.79931e-08
6.45146e-06
4.03628e-08
6.47045e-06
2.8807e-08
1.5622e-08
6.48576e-06
7.60325e-06
4.50629e-07
7.64572e-06
3.82834e-07
7.66954e-06
3.36754e-07
7.67399e-06
2.8903e-07
7.67095e-06
2.43939e-07
7.67282e-06
2.0283e-07
7.68117e-06
1.63063e-07
7.69155e-06
1.23265e-07
7.7015e-06
8.60745e-08
7.71195e-06
5.67652e-08
7.72473e-06
3.89764e-08
7.74084e-06
3.16293e-08
7.75991e-06
3.0331e-08
7.78053e-06
3.01457e-08
7.80115e-06
2.73716e-08
7.82031e-06
2.1203e-08
7.83707e-06
1.20483e-08
2.17543e-09
7.85051e-06
9.43781e-06
5.65564e-07
9.33564e-06
4.85006e-07
9.31214e-06
3.60249e-07
9.32534e-06
2.75834e-07
9.3466e-06
2.22673e-07
9.37061e-06
1.78827e-07
9.39538e-06
1.38286e-07
9.41906e-06
9.95858e-08
9.4392e-06
6.5934e-08
9.45486e-06
4.11052e-08
9.46683e-06
2.70093e-08
9.47548e-06
2.2979e-08
9.48102e-06
2.4794e-08
9.48376e-06
2.74082e-08
9.48446e-06
2.66683e-08
9.48432e-06
2.13372e-08
9.48461e-06
1.17591e-08
1.16664e-11
9.48678e-06
1.14389e-05
5.21376e-07
1.15043e-05
4.19581e-07
1.15686e-05
2.95891e-07
1.1613e-05
2.31433e-07
1.16383e-05
1.97403e-07
1.16499e-05
1.67209e-07
1.1657e-05
1.31236e-07
1.16633e-05
9.3305e-08
1.16704e-05
5.87776e-08
1.16799e-05
3.15726e-08
1.16943e-05
1.26496e-08
1.17148e-05
2.44712e-09
1.174e-05
-3.76481e-10
1.17663e-05
1.14288e-09
1.17886e-05
4.31534e-09
1.18033e-05
6.65399e-09
1.18079e-05
7.13826e-09
5.79709e-09
1.18021e-05
8.31355e-06
4.39128e-07
8.40112e-06
3.32014e-07
8.44948e-06
2.47524e-07
8.49985e-06
1.81064e-07
8.54753e-06
1.49725e-07
8.58725e-06
1.27491e-07
8.61647e-06
1.02018e-07
8.63244e-06
7.73315e-08
8.63365e-06
5.75678e-08
8.62226e-06
4.29615e-08
8.60376e-06
3.11491e-08
8.58658e-06
1.96265e-08
8.5781e-06
8.10983e-09
8.58151e-06
-2.27282e-09
8.59474e-06
-8.91691e-09
8.61447e-06
-1.30676e-08
8.63613e-06
-1.45262e-08
-1.32138e-08
8.65514e-06
7.376e-06
4.27957e-07
7.38242e-06
3.25596e-07
7.39521e-06
2.34728e-07
7.42418e-06
1.52099e-07
7.45967e-06
1.14227e-07
7.48728e-06
9.98821e-08
7.50555e-06
8.3751e-08
7.5199e-06
6.29833e-08
7.53219e-06
4.52744e-08
7.54063e-06
3.45239e-08
7.54327e-06
2.85084e-08
7.54033e-06
2.2567e-08
7.53456e-06
1.38809e-08
7.52956e-06
2.72531e-09
7.53095e-06
-1.03109e-08
7.53951e-06
-2.16199e-08
7.55546e-06
-3.04815e-08
-3.54028e-08
7.57765e-06
6.59625e-06
4.71441e-07
6.58643e-06
3.35411e-07
6.5817e-06
2.39464e-07
6.56503e-06
1.68766e-07
6.55419e-06
1.25069e-07
6.55652e-06
9.75485e-08
6.56742e-06
7.28558e-08
6.58085e-06
4.95474e-08
6.59449e-06
3.1634e-08
6.60794e-06
2.10743e-08
6.62104e-06
1.5408e-08
6.63348e-06
1.01318e-08
6.64528e-06
2.07721e-09
6.6558e-06
-7.79586e-09
6.66484e-06
-1.93454e-08
6.67317e-06
-2.99489e-08
6.68085e-06
-3.81641e-08
-4.21599e-08
6.68761e-06
5.56977e-06
4.20648e-07
5.63691e-06
2.68276e-07
5.69922e-06
1.77146e-07
5.73595e-06
1.32037e-07
5.75378e-06
1.07239e-07
5.76218e-06
8.91538e-08
5.76735e-06
6.76834e-08
5.77262e-06
4.42801e-08
5.77887e-06
2.53771e-08
5.78572e-06
1.42299e-08
5.79253e-06
8.59894e-09
5.79874e-06
3.922e-09
5.8044e-06
-3.58426e-09
5.81116e-06
-1.4555e-08
5.81886e-06
-2.70461e-08
5.82704e-06
-3.8126e-08
5.83461e-06
-4.57345e-08
-4.79304e-08
5.84038e-06
4.83626e-06
4.8819e-07
4.82439e-06
2.80139e-07
4.85727e-06
1.44275e-07
4.89816e-06
9.11386e-08
4.93716e-06
6.82417e-08
4.97708e-06
4.92335e-08
5.01663e-06
2.81322e-08
5.05238e-06
8.53285e-09
5.08082e-06
-3.06088e-09
5.10236e-06
-7.31133e-09
5.1197e-06
-8.74346e-09
5.13499e-06
-1.13708e-08
5.14811e-06
-1.6703e-08
5.1579e-06
-2.43403e-08
5.16351e-06
-3.26615e-08
5.16499e-06
-3.96026e-08
5.16323e-06
-4.39739e-08
-4.45298e-08
5.15983e-06
4.30776e-06
5.07916e-07
4.33469e-06
2.53216e-07
4.34996e-06
1.29002e-07
4.35118e-06
8.99174e-08
4.35379e-06
6.5635e-08
4.37083e-06
3.21914e-08
4.40367e-06
-4.71211e-09
4.4432e-06
-3.09921e-08
4.47944e-06
-3.92983e-08
4.50691e-06
-3.47865e-08
4.52418e-06
-2.60105e-08
4.53247e-06
-1.96625e-08
4.53426e-06
-1.84934e-08
4.53169e-06
-2.17742e-08
4.52653e-06
-2.74987e-08
4.52039e-06
-3.34614e-08
4.51491e-06
-3.84905e-08
-4.14411e-08
4.51182e-06
3.68351e-06
3.96263e-07
3.76977e-06
1.66952e-07
3.82164e-06
7.71342e-08
3.85122e-06
6.03326e-08
3.87809e-06
3.87703e-08
3.90236e-06
7.92103e-09
3.9159e-06
-1.82542e-08
3.92022e-06
-3.53131e-08
3.9221e-06
-4.11822e-08
3.92778e-06
-4.04617e-08
3.93939e-06
-3.76232e-08
3.95511e-06
-3.53776e-08
3.97148e-06
-3.48709e-08
3.98558e-06
-3.58717e-08
3.99573e-06
-3.76459e-08
4.0017e-06
-3.94321e-08
4.0041e-06
-4.08954e-08
-4.17208e-08
4.00438e-06
3.22948e-06
3.52338e-07
3.30203e-06
9.44025e-08
3.34645e-06
3.27206e-08
3.39102e-06
1.57568e-08
3.43655e-06
-6.75838e-09
3.4725e-06
-2.80304e-08
3.49228e-06
-3.80293e-08
3.49605e-06
-3.90819e-08
3.49131e-06
-3.64445e-08
3.48576e-06
-3.49167e-08
3.48431e-06
-3.61719e-08
3.48846e-06
-3.95273e-08
3.49737e-06
-4.37801e-08
3.50934e-06
-4.78413e-08
3.52231e-06
-5.06182e-08
3.53453e-06
-5.16461e-08
3.54442e-06
-5.07875e-08
-4.84234e-08
3.55112e-06
2.88129e-06
1.8098e-07
2.96052e-06
1.517e-08
2.98096e-06
1.22863e-08
3.00791e-06
-1.11896e-08
3.03374e-06
-3.25969e-08
3.04652e-06
-4.08111e-08
3.04959e-06
-4.10904e-08
3.05166e-06
-4.11522e-08
3.05847e-06
-4.32575e-08
3.07013e-06
-4.65787e-08
3.08356e-06
-4.9602e-08
3.09565e-06
-5.16195e-08
3.10474e-06
-5.28709e-08
3.11069e-06
-5.37889e-08
3.11417e-06
-5.40969e-08
3.11605e-06
-5.35257e-08
3.11701e-06
-5.17512e-08
-4.87807e-08
3.11737e-06
2.52245e-06
6.67953e-08
2.57613e-06
-3.85114e-08
2.60833e-06
-1.99119e-08
2.62854e-06
-3.13997e-08
2.63815e-06
-4.22081e-08
2.64217e-06
-4.48337e-08
2.64536e-06
-4.42748e-08
2.6495e-06
-4.52961e-08
2.65448e-06
-4.8233e-08
2.65887e-06
-5.09653e-08
2.66092e-06
-5.1654e-08
2.65941e-06
-5.01127e-08
2.6539e-06
-4.73646e-08
2.64459e-06
-4.44732e-08
2.63232e-06
-4.18285e-08
2.61826e-06
-3.94658e-08
2.60375e-06
-3.72372e-08
-3.51163e-08
2.59008e-06
2.13837e-06
2.09986e-06
2.07995e-06
2.04855e-06
2.00634e-06
1.96151e-06
1.91723e-06
1.87194e-06
1.8237e-06
1.77274e-06
1.72109e-06
1.67097e-06
1.62361e-06
1.57914e-06
1.53731e-06
1.49784e-06
1.4606e-06
1.42549e-06
-2.86869e-07
2.86869e-07
-5.60217e-07
2.73348e-07
-7.57501e-07
1.97284e-07
-8.42939e-07
8.54375e-08
-7.91229e-07
-5.17095e-08
-6.10871e-07
-1.80358e-07
-3.31503e-07
-2.79369e-07
6.06831e-09
-3.37571e-07
3.68417e-07
-3.62349e-07
7.32065e-07
-3.63648e-07
1.08035e-06
-3.48288e-07
1.40326e-06
-3.22908e-07
1.69536e-06
-2.92102e-07
1.95402e-06
-2.58662e-07
2.17803e-06
-2.24002e-07
2.36686e-06
-1.88831e-07
2.52041e-06
-1.53556e-07
2.63853e-06
-1.18117e-07
2.7211e-06
-8.25737e-08
2.76826e-06
-4.71589e-08
2.78014e-06
-1.18804e-08
2.75723e-06
2.29187e-08
2.6998e-06
5.74223e-08
2.60894e-06
9.08589e-08
2.4862e-06
1.22748e-07
2.33291e-06
1.5329e-07
2.1507e-06
1.82201e-07
1.93996e-06
2.10748e-07
1.7026e-06
2.37353e-07
1.43758e-06
2.65026e-07
1.15002e-06
2.87559e-07
8.39766e-07
3.10253e-07
5.21567e-07
3.18199e-07
2.63663e-07
2.57905e-07
9.50056e-08
1.68657e-07
-6.45796e-09
1.01464e-07
-5.63605e-08
4.99025e-08
-5.59967e-08
-3.63771e-10
-1.96089e-08
-3.63878e-08
4.45013e-08
-6.41102e-08
1.49275e-07
-1.04774e-07
2.92539e-07
-1.43264e-07
4.15798e-07
-1.23259e-07
4.65927e-07
-5.01285e-08
5.09078e-07
-4.31514e-08
6.78768e-07
-1.6969e-07
8.99709e-07
-2.20941e-07
1.03547e-06
-1.35762e-07
1.05615e-06
-2.06794e-08
9.11226e-07
1.44924e-07
5.23081e-07
3.88145e-07
-3.71605e-08
5.60242e-07
-6.41869e-07
6.04709e-07
-1.23168e-06
5.89811e-07
-1.77952e-06
5.47835e-07
-2.27539e-06
4.95872e-07
-2.71804e-06
4.4265e-07
-3.11041e-06
3.92369e-07
-3.45723e-06
3.46828e-07
-3.76364e-06
3.06401e-07
-4.03431e-06
2.70679e-07
-4.27323e-06
2.38913e-07
-4.48357e-06
2.10347e-07
-4.66792e-06
1.84347e-07
-4.82834e-06
1.60418e-07
-4.9665e-06
1.38161e-07
-5.08374e-06
1.17243e-07
-5.18118e-06
9.74381e-08
-5.25983e-06
7.86489e-08
-5.32068e-06
6.08471e-08
-5.36465e-06
4.39729e-08
-5.39257e-06
2.79192e-08
-5.40534e-06
1.27733e-08
-5.40416e-06
-1.18136e-09
-5.39059e-06
-1.35674e-08
-5.36542e-06
-2.51739e-08
-5.32962e-06
-3.57959e-08
-5.28403e-06
-4.55918e-08
-5.22933e-06
-5.47011e-08
-5.16603e-06
-6.33032e-08
-5.09438e-06
-7.16479e-08
-5.01438e-06
-7.99989e-08
-4.92573e-06
-8.8654e-08
-4.82781e-06
-9.79137e-08
-4.71976e-06
-1.08052e-07
-4.60047e-06
-1.19296e-07
-4.46868e-06
-1.31787e-07
-4.32313e-06
-1.45544e-07
-4.1627e-06
-1.60434e-07
-3.98654e-06
-1.7616e-07
-3.79429e-06
-1.92252e-07
-3.58619e-06
-2.08096e-07
-3.36321e-06
-2.22986e-07
-3.12699e-06
-2.36219e-07
-2.87979e-06
-2.47196e-07
-2.62433e-06
-2.55465e-07
-2.36359e-06
-2.60731e-07
-2.10072e-06
-2.62877e-07
-1.83876e-06
-2.61961e-07
-1.5806e-06
-2.58154e-07
-1.32888e-06
-2.51726e-07
-1.08585e-06
-2.43024e-07
-8.53397e-07
-2.32455e-07
-6.32931e-07
-2.20466e-07
-4.25503e-07
-2.07428e-07
-2.31477e-07
-1.94026e-07
-5.11865e-08
-1.80291e-07
1.16485e-07
-1.67672e-07
2.71831e-07
-1.55346e-07
4.158e-07
-1.43969e-07
5.49334e-07
-1.33534e-07
6.73233e-07
-1.23899e-07
7.87953e-07
-1.1472e-07
8.93523e-07
-1.05569e-07
9.89603e-07
-9.60799e-08
1.07566e-06
-8.60528e-08
1.15114e-06
-7.54849e-08
1.21571e-06
-6.45713e-08
1.26934e-06
-5.36303e-08
1.31232e-06
-4.29825e-08
1.34531e-06
-3.29824e-08
1.36917e-06
-2.38638e-08
1.38486e-06
-1.5691e-08
1.39348e-06
-8.61767e-09
1.39594e-06
-2.46225e-09
1.39285e-06
3.0888e-09
1.38494e-06
7.90865e-09
1.37307e-06
1.18767e-08
1.35795e-06
1.51146e-08
1.34024e-06
1.77083e-08
1.32058e-06
1.9667e-08
1.29956e-06
2.10129e-08
1.27777e-06
2.17949e-08
1.25568e-06
2.20854e-08
1.23371e-06
2.19728e-08
1.21216e-06
2.15495e-08
1.19126e-06
2.09035e-08
1.17116e-06
2.01013e-08
1.15197e-06
1.91837e-08
1.1338e-06
1.81747e-08
1.11671e-06
1.70897e-08
1.10077e-06
1.5944e-08
1.08601e-06
1.47574e-08
1.07245e-06
1.35537e-08
1.06009e-06
1.23594e-08
1.04889e-06
1.12021e-08
1.03879e-06
1.01064e-08
1.0297e-06
9.0885e-09
1.02154e-06
8.16245e-09
1.0142e-06
7.33609e-09
1.00759e-06
6.60727e-09
1.00162e-06
5.97271e-09
9.96188e-07
5.43116e-09
9.9121e-07
4.97831e-09
9.86603e-07
4.60628e-09
9.82299e-07
4.3042e-09
9.78236e-07
4.0632e-09
9.74358e-07
3.8778e-09
9.70618e-07
3.73986e-09
9.66972e-07
3.64618e-09
9.6336e-07
3.61217e-09
9.59719e-07
3.64118e-09
9.55973e-07
3.74596e-09
9.52055e-07
3.91727e-09
9.47857e-07
4.19861e-09
9.43299e-07
4.55807e-09
9.38203e-07
5.09587e-09
9.32481e-07
5.72164e-09
9.25802e-07
6.67918e-09
9.18122e-07
7.68051e-09
9.08729e-07
9.39277e-09
8.97819e-07
1.09093e-08
8.837e-07
1.41192e-08
8.67538e-07
1.61622e-08
8.44833e-07
2.27054e-08
8.20238e-07
2.45951e-08
7.8069e-07
3.95473e-08
7.43438e-07
3.72522e-08
6.67319e-07
7.61186e-08
5.48485e-08
6.12471e-07
-1.44143e-07
4.31012e-07
-2.91788e-07
4.20993e-07
-3.87281e-07
2.92776e-07
-4.0557e-07
1.03727e-07
-3.01022e-07
-1.56257e-07
-7.68312e-08
-4.04549e-07
2.23825e-07
-5.80025e-07
5.59813e-07
-6.73559e-07
9.00758e-07
-7.03294e-07
1.22774e-06
-6.90634e-07
1.53295e-06
-6.5349e-07
1.81359e-06
-6.03551e-07
2.06868e-06
-5.47192e-07
2.29743e-06
-4.87416e-07
2.49896e-06
-4.25528e-07
2.67222e-06
-3.62095e-07
2.81612e-06
-2.97448e-07
2.9299e-06
-2.319e-07
3.01319e-06
-1.65867e-07
3.06605e-06
-1.00019e-07
3.08926e-06
-3.50925e-08
3.08369e-06
2.84947e-08
3.05148e-06
8.96288e-08
2.99401e-06
1.48334e-07
2.91319e-06
2.03561e-07
2.81114e-06
2.55345e-07
2.6902e-06
3.03136e-07
2.55244e-06
3.48516e-07
2.40088e-06
3.88913e-07
2.2396e-06
4.26301e-07
2.06896e-06
4.58202e-07
1.90024e-06
4.78965e-07
1.73169e-06
4.86757e-07
1.52921e-06
4.60382e-07
1.29434e-06
4.03528e-07
1.06807e-06
3.27735e-07
8.91939e-07
2.2603e-07
7.76023e-07
1.15552e-07
7.0783e-07
3.18054e-08
6.81822e-07
-3.81022e-08
7.22566e-07
-1.45518e-07
8.14093e-07
-2.34791e-07
9.32128e-07
-2.41294e-07
1.15473e-06
-2.72734e-07
1.3601e-06
-2.48519e-07
1.30022e-06
-1.09807e-07
9.66829e-07
1.12448e-07
3.58808e-07
4.72259e-07
-4.02753e-07
7.40882e-07
-1.13366e-06
8.75833e-07
-1.74158e-06
9.96063e-07
-2.23803e-06
1.05669e-06
-2.67435e-06
1.04102e-06
-3.06469e-06
9.80155e-07
-3.41221e-06
8.95353e-07
-3.71979e-06
8.03448e-07
-3.99115e-06
7.14014e-07
-4.23069e-06
6.31907e-07
-4.44269e-06
5.58832e-07
-4.63088e-06
4.94584e-07
-4.79822e-06
4.38023e-07
-4.94701e-06
3.87701e-07
-5.07889e-06
3.42231e-07
-5.19501e-06
3.00467e-07
-5.29612e-06
2.61529e-07
-5.3828e-06
2.24843e-07
-5.45554e-06
1.89975e-07
-5.51466e-06
1.56565e-07
-5.56045e-06
1.24436e-07
-5.59313e-06
9.35305e-08
-5.61296e-06
6.38037e-08
-5.6203e-06
3.52531e-08
-5.61531e-06
7.79116e-09
-5.59881e-06
-1.76817e-08
-5.57073e-06
-4.1653e-08
-5.53177e-06
-6.41363e-08
-5.48254e-06
-8.50189e-08
-5.42378e-06
-1.04356e-07
-5.35613e-06
-1.22352e-07
-5.28009e-06
-1.39344e-07
-5.19595e-06
-1.55784e-07
-5.10374e-06
-1.7221e-07
-5.00318e-06
-1.89209e-07
-4.89372e-06
-2.07381e-07
-4.77449e-06
-2.27283e-07
-4.6444e-06
-2.49377e-07
-4.50223e-06
-2.73963e-07
-4.34667e-06
-3.01101e-07
-4.17657e-06
-3.30541e-07
-3.99103e-06
-3.61692e-07
-3.78968e-06
-3.9361e-07
-3.57273e-06
-4.25043e-07
-3.34118e-06
-4.54539e-07
-3.09675e-06
-4.80648e-07
-2.8418e-06
-5.02141e-07
-2.57915e-06
-5.18123e-07
-2.31185e-06
-5.28027e-07
-2.04306e-06
-5.31664e-07
-1.77582e-06
-5.29202e-07
-1.51297e-06
-5.21008e-07
-1.25708e-06
-5.07612e-07
-1.01036e-06
-4.89749e-07
-7.74552e-07
-4.6826e-07
-5.50945e-07
-4.44073e-07
-3.4029e-07
-4.18084e-07
-1.42766e-07
-3.91549e-07
4.16626e-08
-3.64719e-07
2.14312e-07
-3.40322e-07
3.7555e-07
-3.16583e-07
5.26553e-07
-2.94973e-07
6.68566e-07
-2.75547e-07
8.02615e-07
-2.57948e-07
9.29313e-07
-2.41419e-07
1.04877e-06
-2.25021e-07
1.16062e-06
-2.07931e-07
1.26423e-06
-1.89667e-07
1.35892e-06
-1.70178e-07
1.44418e-06
-1.49824e-07
1.51976e-06
-1.29215e-07
1.58582e-06
-1.09041e-07
1.64279e-06
-8.99502e-08
1.69134e-06
-7.24168e-08
1.73236e-06
-5.6708e-08
1.76667e-06
-4.2933e-08
1.79525e-06
-3.10423e-08
1.81919e-06
-2.08489e-08
1.83927e-06
-1.21696e-08
1.85602e-06
-4.86994e-09
1.86989e-06
1.23563e-09
1.88128e-06
6.32787e-09
1.8905e-06
1.04431e-08
1.89785e-06
1.36578e-08
1.90355e-06
1.60953e-08
1.90776e-06
1.78796e-08
1.91062e-06
1.91101e-08
1.91229e-06
1.98813e-08
1.91291e-06
2.02845e-08
1.91263e-06
2.03797e-08
1.91162e-06
2.01937e-08
1.91006e-06
1.97328e-08
1.90816e-06
1.89941e-08
1.90612e-06
1.79817e-08
1.90416e-06
1.67156e-08
1.90248e-06
1.52333e-08
1.90125e-06
1.35884e-08
1.90061e-06
1.18477e-08
1.90063e-06
1.00823e-08
1.90137e-06
8.35353e-09
1.9028e-06
6.72563e-09
1.9049e-06
5.24268e-09
1.90756e-06
3.94175e-09
1.9107e-06
2.83896e-09
1.91419e-06
1.9428e-09
1.91792e-06
1.24817e-09
1.92179e-06
7.36949e-10
1.92571e-06
3.82768e-10
1.92961e-06
1.60726e-10
1.93343e-06
5.4781e-11
1.93712e-06
4.97742e-11
1.94062e-06
1.46353e-10
1.94386e-06
3.7774e-10
1.94676e-06
7.42396e-10
1.94925e-06
1.2495e-09
1.95129e-06
1.88172e-09
1.95278e-06
2.7057e-09
1.95368e-06
3.66096e-09
1.95385e-06
4.92301e-09
1.95326e-06
6.31637e-09
1.95163e-06
8.30273e-09
1.949e-06
1.03116e-08
1.94477e-06
1.36261e-08
1.93921e-06
1.6465e-08
1.93094e-06
2.23876e-08
1.92102e-06
2.60822e-08
1.90617e-06
3.75551e-08
1.88936e-06
4.14078e-08
1.86338e-06
6.55267e-08
1.83435e-06
6.62794e-08
1.79025e-06
1.20225e-07
1.10994e-07
1.7341e-06
8.56997e-08
3.45312e-07
1.24693e-07
3.82001e-07
1.39402e-07
2.78067e-07
2.21504e-07
2.16244e-08
4.16331e-07
-3.51083e-07
6.78527e-07
-6.66745e-07
9.58894e-07
-8.60392e-07
1.22782e-06
-9.42489e-07
1.47564e-06
-9.51113e-07
1.70479e-06
-9.19785e-07
1.92005e-06
-8.68752e-07
2.12452e-06
-8.08019e-07
2.31844e-06
-7.41106e-07
2.49993e-06
-6.68913e-07
2.66621e-06
-5.91808e-07
2.81436e-06
-5.10243e-07
2.94178e-06
-4.24864e-07
3.04629e-06
-3.36411e-07
3.12611e-06
-2.45692e-07
3.17964e-06
-1.53551e-07
3.20533e-06
-6.07812e-08
3.20276e-06
3.10667e-08
3.17137e-06
1.21024e-07
3.11289e-06
2.06813e-07
3.02984e-06
2.86605e-07
2.9261e-06
3.59084e-07
2.80631e-06
4.22926e-07
2.67707e-06
4.77764e-07
2.54373e-06
5.22251e-07
2.41205e-06
5.57975e-07
2.28648e-06
5.83779e-07
2.16644e-06
5.99006e-07
2.05194e-06
6.01248e-07
1.92497e-06
5.87353e-07
1.79305e-06
5.35447e-07
1.66454e-06
4.56245e-07
1.51914e-06
3.71431e-07
1.4195e-06
2.15197e-07
1.37247e-06
7.88315e-08
1.3014e-06
3.29681e-08
1.27491e-06
-1.19031e-07
1.38339e-06
-3.43265e-07
1.47133e-06
-3.29239e-07
1.29689e-06
-9.82952e-08
8.23319e-07
2.25056e-07
4.14086e-08
6.72104e-07
-8.01071e-07
9.54927e-07
-1.47073e-06
1.14191e-06
-2.00543e-06
1.27559e-06
-2.47549e-06
1.3459e-06
-2.84521e-06
1.36578e-06
-3.12395e-06
1.33544e-06
-3.34763e-06
1.2647e-06
-3.53891e-06
1.17144e-06
-3.71278e-06
1.06922e-06
-3.87681e-06
9.67472e-07
-4.03458e-06
8.71787e-07
-4.18736e-06
7.84686e-07
-4.33514e-06
7.06615e-07
-4.47725e-06
6.36695e-07
-4.61265e-06
5.73415e-07
-4.7401e-06
5.15155e-07
-4.85835e-06
4.60482e-07
-4.96621e-06
4.08327e-07
-5.06267e-06
3.57993e-07
-5.14692e-06
3.09092e-07
-5.21837e-06
2.61422e-07
-5.27667e-06
2.14863e-07
-5.32159e-06
1.69361e-07
-5.35302e-06
1.24953e-07
-5.37095e-06
8.17402e-08
-5.37555e-06
3.98459e-08
-5.36734e-06
-4.17805e-10
-5.34677e-06
-3.82473e-08
-5.31439e-06
-7.40392e-08
-5.27109e-06
-1.07428e-07
-5.21778e-06
-1.38335e-07
-5.1553e-06
-1.66831e-07
-5.08445e-06
-1.93203e-07
-5.00585e-06
-2.17947e-07
-4.91989e-06
-2.41739e-07
-4.8267e-06
-2.65405e-07
-4.72605e-06
-2.89856e-07
-4.61741e-06
-3.16028e-07
-4.49989e-06
-3.44802e-07
-4.37234e-06
-3.76925e-07
-4.23339e-06
-4.12911e-07
-4.08157e-06
-4.52922e-07
-3.91548e-06
-4.96636e-07
-3.73399e-06
-5.43177e-07
-3.53651e-06
-5.91094e-07
-3.32313e-06
-6.38417e-07
-3.09484e-06
-6.82833e-07
-2.85348e-06
-7.22004e-07
-2.60165e-06
-7.53977e-07
-2.34237e-06
-7.77395e-07
-2.07896e-06
-7.91442e-07
-1.81469e-06
-7.95938e-07
-1.55261e-06
-7.9128e-07
-1.29559e-06
-7.78024e-07
-1.04625e-06
-7.56953e-07
-8.06886e-07
-7.29116e-07
-5.79631e-07
-6.95515e-07
-3.66267e-07
-6.57437e-07
-1.67939e-07
-6.16412e-07
1.49397e-08
-5.74428e-07
1.84828e-07
-5.34608e-07
3.4067e-07
-4.96164e-07
4.85054e-07
-4.60967e-07
6.19833e-07
-4.29752e-07
7.4689e-07
-4.02603e-07
8.67768e-07
-3.78826e-07
9.8342e-07
-3.57071e-07
1.09409e-06
-3.35691e-07
1.19938e-06
-3.1322e-07
1.29846e-06
-2.88745e-07
1.39033e-06
-2.62049e-07
1.47408e-06
-2.33575e-07
1.5491e-06
-2.04243e-07
1.61525e-06
-1.75188e-07
1.67281e-06
-1.47508e-07
1.72244e-06
-1.22046e-07
1.76503e-06
-9.92968e-08
1.8015e-06
-7.94086e-08
1.83274e-06
-6.22806e-08
1.85956e-06
-4.7667e-08
1.88265e-06
-3.52555e-08
1.90255e-06
-2.47761e-08
1.9198e-06
-1.60152e-08
1.93491e-06
-8.78441e-09
1.94829e-06
-2.93453e-09
1.9603e-06
1.64925e-09
1.97127e-06
5.12814e-09
1.98138e-06
7.76914e-09
1.99075e-06
9.73966e-09
1.99943e-06
1.11965e-08
2.00742e-06
1.22951e-08
2.01469e-06
1.3115e-08
2.02121e-06
1.3676e-08
2.02698e-06
1.3957e-08
2.03206e-06
1.39112e-08
2.03656e-06
1.34907e-08
2.04061e-06
1.26622e-08
2.04442e-06
1.14205e-08
2.04821e-06
9.79636e-09
2.0522e-06
7.85806e-09
2.05658e-06
5.70368e-09
2.06151e-06
3.42405e-09
2.0671e-06
1.1323e-09
2.07338e-06
-1.03702e-09
2.08035e-06
-3.02416e-09
2.08796e-06
-4.76829e-09
2.09612e-06
-6.22282e-09
2.10474e-06
-7.3704e-09
2.1137e-06
-8.21801e-09
2.12287e-06
-8.79232e-09
2.13216e-06
-9.12779e-09
2.14147e-06
-9.25948e-09
2.15074e-06
-9.21091e-09
2.15987e-06
-8.99322e-09
2.16885e-06
-8.5929e-09
2.17761e-06
-8.02544e-09
2.18613e-06
-7.27114e-09
2.19438e-06
-6.36324e-09
2.20229e-06
-5.20827e-09
2.20983e-06
-3.8784e-09
2.2169e-06
-2.14807e-09
2.22347e-06
-2.50507e-10
2.22935e-06
2.42259e-09
2.2345e-06
5.15676e-09
2.23865e-06
9.48369e-09
2.24173e-06
1.33786e-08
2.24337e-06
2.0752e-08
2.24338e-06
2.60691e-08
2.24153e-06
3.94101e-08
2.23677e-06
4.61629e-08
2.23046e-06
7.18411e-08
2.21738e-06
7.93553e-08
2.20709e-06
1.30519e-07
1.40944e-07
2.17714e-06
1.66248e-07
1.79064e-07
2.64592e-07
2.83656e-07
4.27457e-07
1.15202e-07
7.189e-07
-2.69818e-07
1.03279e-06
-6.64972e-07
1.30032e-06
-9.34281e-07
1.50594e-06
-1.06601e-06
1.66741e-06
-1.10396e-06
1.81022e-06
-1.09392e-06
1.953e-06
-1.06257e-06
2.10345e-06
-1.0192e-06
2.26024e-06
-9.6481e-07
2.41782e-06
-8.9869e-07
2.57009e-06
-8.21183e-07
2.7121e-06
-7.33814e-07
2.8404e-06
-6.38548e-07
2.95268e-06
-5.37138e-07
3.04716e-06
-4.30891e-07
3.12236e-06
-3.20897e-07
3.17695e-06
-2.08143e-07
3.21035e-06
-9.41772e-08
3.22115e-06
2.02663e-08
3.20479e-06
1.37385e-07
3.16209e-06
2.49516e-07
3.09306e-06
3.5563e-07
2.99876e-06
4.53387e-07
2.88158e-06
5.40106e-07
2.74703e-06
6.12311e-07
2.60029e-06
6.68991e-07
2.45175e-06
7.06517e-07
2.30598e-06
7.29551e-07
2.17097e-06
7.34016e-07
2.04995e-06
7.22261e-07
1.93799e-06
6.99318e-07
1.83678e-06
6.36654e-07
1.7244e-06
5.6863e-07
1.62673e-06
4.69093e-07
1.51627e-06
3.25666e-07
1.39737e-06
1.97725e-07
1.42263e-06
7.71427e-09
1.48783e-06
-1.84236e-07
1.29983e-06
-1.55265e-07
7.96026e-07
1.74565e-07
4.50371e-09
6.93227e-07
-8.20783e-07
1.05034e-06
-1.45252e-06
1.30385e-06
-1.96829e-06
1.47069e-06
-2.38826e-06
1.56189e-06
-2.70974e-06
1.59706e-06
-2.95557e-06
1.59173e-06
-3.13924e-06
1.54945e-06
-3.28053e-06
1.47673e-06
-3.40008e-06
1.38425e-06
-3.51145e-06
1.28282e-06
-3.62316e-06
1.18093e-06
-3.73899e-06
1.0833e-06
-3.85977e-06
9.92566e-07
-3.98464e-06
9.09559e-07
-4.11177e-06
8.33747e-07
-4.23883e-06
7.63756e-07
-4.36324e-06
6.97822e-07
-4.4824e-06
6.34317e-07
-4.59397e-06
5.72044e-07
-4.69599e-06
5.10355e-07
-4.78705e-06
4.49045e-07
-4.86611e-06
3.88157e-07
-4.93251e-06
3.27815e-07
-4.98578e-06
2.68136e-07
-5.02563e-06
2.09209e-07
-5.05182e-06
1.51149e-07
-5.06429e-06
9.42072e-08
-5.06306e-06
3.86141e-08
-5.04883e-06
-1.46508e-08
-5.02195e-06
-6.51246e-08
-4.98315e-06
-1.12836e-07
-4.93347e-06
-1.57112e-07
-4.87405e-06
-1.97752e-07
-4.80606e-06
-2.34825e-07
-4.73056e-06
-2.68704e-07
-4.64843e-06
-3.00068e-07
-4.56031e-06
-3.29868e-07
-4.46644e-06
-3.59269e-07
-4.36673e-06
-3.89572e-07
-4.26063e-06
-4.2212e-07
-4.14724e-06
-4.58199e-07
-4.02524e-06
-4.98925e-07
-3.89303e-06
-5.45115e-07
-3.74882e-06
-5.97136e-07
-3.59077e-06
-6.54687e-07
-3.41731e-06
-7.1663e-07
-3.22743e-06
-7.8098e-07
-3.02091e-06
-8.44935e-07
-2.79862e-06
-9.0512e-07
-2.56257e-06
-9.58058e-07
-2.31567e-06
-1.00088e-06
-2.06133e-06
-1.03173e-06
-1.80316e-06
-1.04962e-06
-1.54461e-06
-1.05449e-06
-1.28868e-06
-1.04721e-06
-1.03804e-06
-1.02866e-06
-7.94853e-07
-1.00014e-06
-5.60701e-07
-9.63267e-07
-3.37149e-07
-9.19067e-07
-1.26167e-07
-8.6842e-07
7.04645e-08
-8.13043e-07
2.50406e-07
-7.5437e-07
4.10835e-07
-6.95037e-07
5.53027e-07
-6.38356e-07
6.7981e-07
-5.8775e-07
7.94931e-07
-5.44873e-07
9.01982e-07
-5.09654e-07
1.00374e-06
-4.80585e-07
1.10188e-06
-4.55215e-07
1.197e-06
-4.30806e-07
1.28882e-06
-4.05036e-07
1.37657e-06
-3.76494e-07
1.4593e-06
-3.44784e-07
1.53607e-06
-3.10348e-07
1.60603e-06
-2.74201e-07
1.66854e-06
-2.37695e-07
1.72332e-06
-2.02289e-07
1.77058e-06
-1.69301e-07
1.81094e-06
-1.39666e-07
1.84537e-06
-1.1383e-07
1.87488e-06
-9.17922e-08
1.90043e-06
-7.3219e-08
1.92277e-06
-5.75947e-08
1.94238e-06
-4.43843e-08
1.95949e-06
-3.31293e-08
1.97419e-06
-2.34827e-08
1.98651e-06
-1.52544e-08
1.99655e-06