/*--------------------------------*- C++ -*----------------------------------*\
  =========                 |
  \\      /  F ield         | OpenFOAM: The Open Source CFD Toolbox
   \\    /   O peration     | Website:  https://openfoam.org
    \\  /    A nd           | Version:  7
     \\/     M anipulation  |
\*---------------------------------------------------------------------------*/
FoamFile
{
    version     2.0;
    format      ascii;
    class       volScalarField;
    location    "0.065";
    object      pMean;
}
// * * * * * * * * * * * * * * * * * * * * * * * * * * * * * * * * * * * * * //

dimensions      [0 2 -2 0 0 0 0];

internalField   nonuniform List<scalar> 
12225
(
-1.98846
-0.845408
-0.414767
-0.303717
-0.248901
-0.210834
-0.190707
-0.19142
-0.209728
-0.239042
-0.272683
-0.306525
-0.338045
-0.370587
-0.406344
-0.467597
-0.558805
-0.822302
-1.6626
-0.834048
-0.418477
-0.299898
-0.249567
-0.21415
-0.194025
-0.193557
-0.210569
-0.238597
-0.271364
-0.303923
-0.335596
-0.365515
-0.404181
-0.450563
-0.545331
-0.64641
-1.49144
-0.853349
-0.442065
-0.301901
-0.251706
-0.218129
-0.196697
-0.193362
-0.206998
-0.231908
-0.261746
-0.292809
-0.322762
-0.354195
-0.388808
-0.437542
-0.502342
-0.595822
-1.29378
-0.817749
-0.441295
-0.290589
-0.242309
-0.213791
-0.194048
-0.189274
-0.200554
-0.222957
-0.251022
-0.280376
-0.310291
-0.340327
-0.375618
-0.417643
-0.474899
-0.544741
-1.12503
-0.781424
-0.446666
-0.287903
-0.23611
-0.210636
-0.192576
-0.186525
-0.19509
-0.214916
-0.240644
-0.268525
-0.296911
-0.326565
-0.359368
-0.398182
-0.445165
-0.497937
-0.968153
-0.727113
-0.438889
-0.27924
-0.222832
-0.200139
-0.185311
-0.179428
-0.186174
-0.20375
-0.227686
-0.254176
-0.281612
-0.3101
-0.340926
-0.375768
-0.414749
-0.456796
-0.827109
-0.663439
-0.423032
-0.269493
-0.208554
-0.187398
-0.175993
-0.171273
-0.17674
-0.192225
-0.214198
-0.239219
-0.265424
-0.292625
-0.321364
-0.352408
-0.385402
-0.419139
-0.694153
-0.590304
-0.39631
-0.254661
-0.191116
-0.170369
-0.162079
-0.159198
-0.164189
-0.178081
-0.198511
-0.222281
-0.247314
-0.273126
-0.299797
-0.327678
-0.35611
-0.38413
-0.571912
-0.512577
-0.360091
-0.234154
-0.170948
-0.150042
-0.144341
-0.143906
-0.149389
-0.162212
-0.181152
-0.203687
-0.227707
-0.252318
-0.27724
-0.302536
-0.327557
-0.351638
-0.458603
-0.431393
-0.314202
-0.206329
-0.146744
-0.125983
-0.12228
-0.12434
-0.130954
-0.143493
-0.16149
-0.18297
-0.205984
-0.229479
-0.252964
-0.27632
-0.299004
-0.320558
-0.35107
-0.347777
-0.26004
-0.171069
-0.11793
-0.0983451
-0.0963406
-0.100923
-0.109296
-0.122166
-0.139626
-0.160422
-0.182777
-0.205523
-0.228003
-0.25004
-0.271173
-0.29117
-0.258294
-0.269477
-0.20358
-0.131541
-0.0862168
-0.0690863
-0.0687703
-0.0755556
-0.0858813
-0.0997045
-0.117237
-0.137635
-0.159518
-0.181793
-0.203717
-0.225051
-0.245412
-0.264708
-0.167588
-0.190841
-0.143052
-0.0864534
-0.0497362
-0.0361937
-0.0379444
-0.0469568
-0.059313
-0.0744836
-0.0925752
-0.113119
-0.134977
-0.157141
-0.178868
-0.199942
-0.219995
-0.23905
-0.0580469
-0.0967623
-0.0675228
-0.0269502
-0.000834081
0.00704195
0.00201892
-0.00984555
-0.0249841
-0.0422812
-0.061603
-0.0826712
-0.104755
-0.127098
-0.14902
-0.170268
-0.190502
-0.209825
0.0576779
0.00928201
0.0243723
0.0495194
0.063458
0.0635292
0.0536157
0.0380544
0.0196999
-0.000366243
-0.0218538
-0.0444899
-0.0677058
-0.0909208
-0.1136
-0.13557
-0.156576
-0.176749
0.19124
0.136628
0.138642
0.148438
0.148713
0.138681
0.121739
0.100836
0.0779034
0.0539042
0.0292435
0.00415932
-0.0210129
-0.0459325
-0.0702038
-0.0936805
-0.116175
-0.137778
0.334553
0.282118
0.276749
0.272561
0.25822
0.235936
0.209565
0.181301
0.152212
0.122798
0.0933875
0.0642446
0.0356543
0.00781751
-0.0190776
-0.0450152
-0.0699072
-0.0939418
0.534282
0.469029
0.448123
0.427873
0.397549
0.360719
0.322061
0.28377
0.246468
0.21018
0.174879
0.140618
0.107566
0.0758024
0.0454014
0.0162863
-0.0114779
-0.038018
0.796907
0.713496
0.671704
0.630446
0.57978
0.523695
0.467685
0.414313
0.363977
0.316295
0.270993
0.228028
0.18746
0.149242
0.113253
0.0792061
0.0469128
0.0160496
1.04178
0.955324
0.897447
0.832087
0.756703
0.679972
0.608416
0.543385
0.483587
0.427518
0.374469
0.324385
0.277397
0.233434
0.192296
0.153676
0.117384
0.083144
1.28219
1.18267
1.09995
1.00396
0.899815
0.799463
0.708948
0.628152
0.555032
0.487958
0.426264
0.369706
0.317929
0.270332
0.226312
0.185281
0.146904
0.110765
1.53368
1.40821
1.28889
1.15814
1.02986
0.91608
0.81791
0.730281
0.649054
0.573152
0.503122
0.439345
0.381487
0.328721
0.280209
0.23521
0.193292
0.15407
1.80848
1.63626
1.45767
1.2753
1.1118
0.976345
0.863942
0.765738
0.676666
0.595626
0.522756
0.457593
0.399004
0.345663
0.296608
0.251221
0.209197
0.170117
2.09199
1.86918
1.62785
1.40444
1.22478
1.08387
0.963727
0.852613
0.749347
0.656554
0.575319
0.504215
0.440887
0.383452
0.330851
0.282405
0.237658
0.196063
2.36935
2.05916
1.71612
1.43729
1.24216
1.09972
0.976787
0.862027
0.756879
0.664348
0.584136
0.513668
0.450408
0.392776
0.340022
0.291647
0.247269
0.206341
2.73718
2.30606
1.86026
1.54163
1.33935
1.18687
1.04533
0.912357
0.795415
0.696711
0.612849
0.539378
0.473392
0.413498
0.358997
0.309245
0.263616
0.221415
3.05029
2.39319
1.84328
1.52754
1.34745
1.1983
1.05224
0.916552
0.800025
0.702453
0.61904
0.545417
0.479141
0.419068
0.364512
0.314803
0.269321
0.227414
3.56464
2.61723
1.92141
1.59029
1.40726
1.24055
1.07914
0.936367
0.817211
0.717915
0.632752
0.55759
0.490168
0.42931
0.374202
0.324115
0.278301
0.236067
3.79398
2.58032
1.88486
1.60043
1.42022
1.24615
1.08126
0.93875
0.820441
0.721423
0.636144
0.560821
0.493305
0.432437
0.377331
0.327349
0.281671
0.23983
4.59969
2.62552
1.88548
1.63394
1.44173
1.25685
1.08882
0.945768
0.826954
0.727269
0.641398
0.565641
0.497821
0.436739
0.381476
0.331411
0.285722
0.244085
-0.689091
-0.691859
-0.696018
-0.698007
-0.700314
-0.708323
-0.728343
-0.764878
-0.819819
-0.892603
-0.981015
-1.08177
-1.19085
-1.30361
-1.41486
-1.51895
-1.61012
-1.68309
-1.73377
-1.76007
-1.76187
-1.74146
-1.70367
-1.65534
-1.60415
-1.55734
-1.52074
-1.49864
-1.49135
-1.49869
-1.51838
-1.54989
-1.59166
-1.63713
-1.6834
-1.7334
-1.79167
-1.86111
-1.94273
-2.04034
-2.15459
-2.28266
-2.41935
-2.56163
-2.70303
-2.83968
-2.97246
-3.09799
-3.20816
-3.29619
-3.36052
-3.40107
-3.41765
-3.40815
-3.37095
-3.30534
-3.21167
-3.09127
-2.94615
-2.77886
-2.5922
-2.38898
-2.17191
-1.94356
-1.70629
-1.46215
-1.21292
-0.960033
-0.704591
-0.447424
-0.189169
0.0696489
0.328569
0.587181
0.845123
1.10211
1.35789
1.61219
1.86462
2.11456
2.36124
2.60371
2.84101
3.07224
3.29669
3.51383
3.72333
3.9249
4.11822
4.30293
4.47854
4.64444
4.79995
4.94436
5.07694
5.19709
5.30432
5.39835
5.47916
5.547
5.60235
5.64593
5.67862
5.70146
5.7156
5.72218
5.72235
5.71719
5.70776
5.69493
5.67949
5.66211
5.64337
5.62375
5.60362
5.58332
5.56308
5.54311
5.52355
5.50451
5.48605
5.4682
5.45099
5.43442
5.41847
5.40311
5.38834
5.37412
5.36044
5.34726
5.33457
5.32233
5.31051
5.29911
5.28808
5.27741
5.26706
5.25703
5.24727
5.23778
5.22852
5.21949
5.21065
5.20199
5.19348
5.18512
5.17686
5.16871
5.16064
5.15263
5.14467
5.13675
5.12885
5.12097
5.1131
5.10524
5.09738
5.08953
5.08168
5.07385
5.06605
5.0583
5.05061
5.04303
5.0356
5.02839
5.02144
5.01491
5.00887
5.00358
4.99915
4.9961
4.99456
4.99556
4.99929
5.00794
5.02186
5.04584
5.08232
5.13645
-0.733006
-0.738642
-0.74734
-0.752617
-0.756674
-0.765455
-0.786246
-0.824196
-0.88079
-0.955405
-1.04599
-1.14952
-1.26229
-1.37982
-1.4969
-1.60778
-1.70655
-1.78764
-1.8464
-1.87936
-1.88498
-1.86457
-1.82261
-1.76634
-1.70457
-1.64645
-1.59953
-1.56912
-1.55779
-1.56637
-1.59429
-1.63703
-1.69164
-1.75516
-1.82098
-1.88666
-1.9609
-2.05237
-2.1543
-2.26141
-2.38406
-2.51985
-2.65794
-2.7998
-2.94623
-3.08461
-3.21136
-3.33073
-3.4366
-3.51893
-3.57419
-3.60335
-3.60664
-3.58263
-3.53041
-3.44981
-3.34167
-3.20762
-3.04993
-2.87118
-2.67417
-2.46173
-2.23657
-2.0012
-1.75788
-1.50859
-1.25499
-0.998407
-0.739859
-0.480115
-0.219756
0.040745
0.300984
0.560602
0.819293
1.07682
1.33303
1.58776
1.8407
2.09132
2.33879
2.58214
2.82035
3.05246
3.27773
3.49562
3.70583
3.90812
4.1022
4.28772
4.46423
4.63109
4.78763
4.93307
5.06669
5.18783
5.296
5.39089
5.47247
5.54098
5.59691
5.64096
5.67406
5.69725
5.71167
5.71851
5.7189
5.71398
5.70478
5.69217
5.67694
5.65978
5.64124
5.62181
5.60186
5.58172
5.56162
5.54178
5.52232
5.50337
5.48499
5.46721
5.45007
5.43355
5.41766
5.40237
5.38766
5.37351
5.35989
5.34678
5.33414
5.32195
5.31019
5.29882
5.28783
5.27719
5.26687
5.25686
5.24713
5.23765
5.22841
5.21939
5.21056
5.2019
5.1934
5.18504
5.17679
5.16864
5.16057
5.15256
5.14461
5.13668
5.12879
5.12091
5.11304
5.10517
5.09731
5.08945
5.0816
5.07376
5.06595
5.05819
5.05048
5.04288
5.03543
5.02817
5.02119
5.01459
5.00848
5.00307
4.99853
4.99525
4.99351
4.99402
4.9974
5.00479
5.0179
5.03747
5.06876
5.09864
-0.777367
-0.783641
-0.79618
-0.808163
-0.820503
-0.838412
-0.868493
-0.91472
-0.978366
-1.05914
-1.15569
-1.26581
-1.38636
-1.51303
-1.6404
-1.7621
-1.8713
-1.96141
-2.02697
-2.06417
-2.07115
-2.04947
-2.00408
-1.94226
-1.87227
-1.80228
-1.74017
-1.69305
-1.66677
-1.66566
-1.69165
-1.74279
-1.81207
-1.89327
-1.98559
-2.09084
-2.20702
-2.33314
-2.46972
-2.61367
-2.76089
-2.91039
-3.06156
-3.20986
-3.35387
-3.49416
-3.6241
-3.73646
-3.82893
-3.89749
-3.93821
-3.94958
-3.93106
-3.88262
-3.80477
-3.69859
-3.56587
-3.40886
-3.2301
-3.03235
-2.81845
-2.5911
-2.35283
-2.10601
-1.85276
-1.59494
-1.33411
-1.07154
-0.808161
-0.544547
-0.281088
-0.0180743
0.244223
0.505516
0.765516
1.02401
1.28094
1.53635
1.79018
2.04202
2.29106
2.53623
2.77635
3.01035
3.23736
3.45687
3.66861
3.87241
4.06808
4.25532
4.43369
4.60254
4.76116
4.90872
5.04444
5.16762
5.27769
5.37432
5.45747
5.52735
5.58447
5.62954
5.6635
5.68743
5.70249
5.70988
5.71081
5.70642
5.69772
5.68561
5.6709
5.65424
5.6362
5.61723
5.59772
5.57797
5.55824
5.53873
5.51957
5.50089
5.48275
5.4652
5.44826
5.43194
5.41623
5.40111
5.38655
5.37254
5.35905
5.34605
5.33352
5.32143
5.30976
5.29847
5.28755
5.27698
5.26672
5.25675
5.24705
5.23761
5.22839
5.21939
5.21057
5.20192
5.19343
5.18506
5.17681
5.16866
5.16059
5.15257
5.14461
5.13668
5.12878
5.12089
5.11301
5.10514
5.09726
5.08939
5.08152
5.07366
5.06582
5.05803
5.05029
5.04264
5.03512
5.02779
5.02071
5.01397
5.00771
5.00206
4.99725
4.99352
4.9913
4.99091
4.99329
4.99858
5.00903
5.02275
5.04523
5.06038
-0.809155
-0.814696
-0.829989
-0.851727
-0.878583
-0.912969
-0.958784
-1.01884
-1.09467
-1.18692
-1.29531
-1.41839
-1.55329
-1.69543
-1.83865
-1.97561
-2.09839
-2.19926
-2.27201
-2.31194
-2.31735
-2.29051
-2.23748
-2.16695
-2.08829
-2.01088
-1.94306
-1.89246
-1.86478
-1.86655
-1.89737
-1.95345
-2.03126
-2.12789
-2.24142
-2.37181
-2.51863
-2.67956
-2.85097
-3.02895
-3.20915
-3.38633
-3.5578
-3.72376
-3.88
-4.02235
-4.14889
-4.25446
-4.33438
-4.38541
-4.40534
-4.39293
-4.3478
-4.27052
-4.16253
-4.02602
-3.86369
-3.67842
-3.47333
-3.25148
-3.01576
-2.76883
-2.51318
-2.25102
-1.98435
-1.71493
-1.44431
-1.17369
-0.90387
-0.635219
-0.367819
-0.101667
0.163173
0.426503
0.688029
0.947549
1.20512
1.46109
1.71579
1.96914
2.22039
2.46826
2.7113
2.94819
3.17792
3.39991
3.61397
3.82005
4.0181
4.20789
4.38901
4.5608
4.72248
4.87314
5.01192
5.13802
5.25082
5.34995
5.43533
5.50719
5.56602
5.61258
5.6478
5.67281
5.68882
5.69709
5.69884
5.69523
5.68729
5.67596
5.66201
5.64611
5.62881
5.61055
5.5917
5.57257
5.55339
5.53436
5.51565
5.49735
5.47956
5.46232
5.44566
5.42958
5.41409
5.39917
5.38481
5.37097
5.35764
5.34478
5.33239
5.32042
5.30886
5.29768
5.28685
5.27635
5.26616
5.25626
5.24662
5.23722
5.22805
5.21908
5.21029
5.20167
5.1932
5.18485
5.17662
5.16848
5.16042
5.15241
5.14446
5.13654
5.12864
5.12076
5.11288
5.105
5.09712
5.08924
5.08135
5.07348
5.06562
5.05778
5.05
5.0423
5.03471
5.02728
5.02009
5.0132
5.00673
5.00081
4.99566
4.99143
4.98858
4.98721
4.98827
4.99144
4.99867
5.00728
5.02095
5.02438
-0.838083
-0.843566
-0.865424
-0.898603
-0.941248
-0.993172
-1.05597
-1.13218
-1.22418
-1.33347
-1.46028
-1.60311
-1.75856
-1.92126
-2.08406
-2.23856
-2.3757
-2.48681
-2.56505
-2.60504
-2.60603
-2.5721
-2.5115
-2.43441
-2.3514
-2.27219
-2.20533
-2.1581
-2.13607
-2.14341
-2.18135
-2.24803
-2.34043
-2.45636
-2.59434
-2.75309
-2.93053
-3.12328
-3.32704
-3.53633
-3.74526
-3.94971
-4.14449
-4.32581
-4.49163
-4.63789
-4.76064
-4.85605
-4.92071
-4.95182
-4.94721
-4.90621
-4.8294
-4.7182
-4.5753
-4.40394
-4.20764
-3.99032
-3.75566
-3.50688
-3.24686
-2.97826
-2.70338
-2.42422
-2.14263
-1.86029
-1.57869
-1.29903
-1.02204
-0.747902
-0.47638
-0.207046
0.0603836
0.32584
0.588975
0.849448
1.10733
1.36328
1.61835
1.87308
2.1269
2.37825
2.62526
2.86619
3.09973
3.32518
3.54242
3.75157
3.95275
4.14586
4.33054
4.50614
4.67177
4.82644
4.96915
5.09899
5.21527
5.31756
5.40578
5.48015
5.54118
5.58962
5.62648
5.65293
5.67025
5.67974
5.68262
5.68007
5.67317
5.66285
5.64992
5.63503
5.61871
5.6014
5.58345
5.56513
5.5467
5.52835
5.51024
5.49248
5.47517
5.45835
5.44207
5.42635
5.41117
5.39654
5.38243
5.36883
5.35572
5.34307
5.33086
5.31906
5.30765
5.2966
5.2859
5.27551
5.26542
5.25561
5.24604
5.23672
5.2276
5.21868
5.20994
5.20136
5.19291
5.1846
5.17639
5.16827
5.16022
5.15223
5.14429
5.13638
5.12848
5.1206
5.11272
5.10484
5.09696
5.08906
5.08117
5.07327
5.06538
5.05751
5.04968
5.04191
5.03424
5.0267
5.01937
5.0123
5.0056
4.99937
4.99381
4.98903
4.98542
4.983
4.98253
4.98355
4.98732
4.99126
4.99684
4.99232
-0.87713
-0.886544
-0.916603
-0.961012
-1.01629
-1.08199
-1.16011
-1.25363
-1.36522
-1.49619
-1.64597
-1.81178
-1.98887
-2.17089
-2.35013
-2.51786
-2.66492
-2.78252
-2.86324
-2.90285
-2.90164
-2.86526
-2.80321
-2.727
-2.64805
-2.57632
-2.51997
-2.48579
-2.47875
-2.50183
-2.55609
-2.64047
-2.75321
-2.89271
-3.05677
-3.24286
-3.44759
-3.66664
-3.89488
-4.12662
-4.35572
-4.57635
-4.78436
-4.97566
-5.14633
-5.29219
-5.40903
-5.49302
-5.5408
-5.54968
-5.51833
-5.44696
-5.33694
-5.19112
-5.01276
-4.80588
-4.57506
-4.32477
-4.05927
-3.78244
-3.4975
-3.2069
-2.9126
-2.6162
-2.31919
-2.02309
-1.72942
-1.43954
-1.1544
-0.874242
-0.598569
-0.326308
-0.0564632
0.211332
0.476532
0.738258
0.996184
1.25117
1.50524
1.76024
2.01629
2.27143
2.52305
2.7688
3.00695
3.23658
3.4576
3.67031
3.87506
4.07193
4.26066
4.44061
4.61082
4.77016
4.91747
5.05168
5.17201
5.278
5.36954
5.44687
5.51048
5.56117
5.59998
5.62819
5.64714
5.65815
5.6625
5.66134
5.65576
5.64672
5.63503
5.62137
5.60625
5.5901
5.57324
5.55595
5.53845
5.52095
5.50359
5.4865
5.46979
5.45351
5.4377
5.4224
5.40761
5.39332
5.37952
5.36621
5.35336
5.34094
5.32894
5.31734
5.3061
5.29522
5.28466
5.2744
5.26442
5.25471
5.24523
5.23598
5.22694
5.21808
5.20939
5.20085
5.19245
5.18418
5.176
5.16791
5.15989
5.15193
5.14401
5.13611
5.12823
5.12036
5.11249
5.10461
5.09673
5.08883
5.08092
5.073
5.06508
5.05717
5.04929
5.04145
5.03369
5.02603
5.01854
5.01127
5.00432
4.99775
4.99174
4.98636
4.98191
4.9784
4.9763
4.97517
4.97557
4.97529
4.97419
4.96386
-0.920961
-0.940046
-0.980706
-1.03388
-1.0978
-1.17421
-1.26613
-1.37659
-1.50743
-1.65845
-1.82717
-2.00936
-2.19956
-2.3915
-2.57829
-2.75227
-2.9047
-3.02698
-3.11188
-3.1559
-3.16035
-3.13142
-3.07916
-3.01578
-2.95303
-2.90083
-2.86684
-2.85687
-2.87511
-2.92402
-3.00425
-3.1147
-3.25356
-3.41834
-3.60606
-3.8135
-4.03688
-4.27212
-4.51465
-4.75918
-5.00013
-5.23223
-5.45083
-5.65132
-5.82887
-5.9786
-6.09584
-6.17594
-6.21492
-6.21012
-6.16028
-6.0648
-5.92488
-5.74349
-5.52538
-5.27666
-5.00373
-4.71283
-4.40952
-4.09835
-3.78277
-3.46531
-3.14776
-2.83134
-2.51692
-2.20533
-1.8976
-1.59522
-1.29974
-1.01185
-0.730938
-0.455206
-0.18247
0.088572
0.357338
0.621866
0.880854
1.13489
1.38663
1.63987
1.89661
2.15492
2.41103
2.66163
2.90444
3.13835
3.36326
3.57965
3.78809
3.98889
4.18188
4.36644
4.54156
4.70594
4.85822
4.9972
5.12198
5.23202
5.32721
5.40777
5.47423
5.52745
5.56852
5.59875
5.61955
5.63233
5.63842
5.63898
5.63507
5.62761
5.61743
5.6052
5.59148
5.57667
5.56109
5.54499
5.5286
5.51209
5.49562
5.47934
5.46333
5.44768
5.43245
5.41765
5.40331
5.38943
5.37601
5.36303
5.35048
5.33835
5.3266
5.31523
5.3042
5.29351
5.28311
5.27301
5.26317
5.25358
5.24422
5.23506
5.2261
5.21732
5.2087
5.20023
5.19188
5.18365
5.17552
5.16747
5.15949
5.15156
5.14366
5.13579
5.12794
5.12008
5.11222
5.10435
5.09646
5.08856
5.08063
5.07269
5.06474
5.05679
5.04885
5.04094
5.03308
5.0253
5.01764
5.01015
5.00292
4.99598
4.98948
4.98347
4.97815
4.97349
4.96975
4.9665
4.96377
4.95969
4.95318
4.93828
-0.981636
-1.00712
-1.05455
-1.11114
-1.17919
-1.26241
-1.36404
-1.48623
-1.62925
-1.79087
-1.9673
-2.15381
-2.3455
-2.53777
-2.72558
-2.90258
-3.06061
-3.19052
-3.2856
-3.34237
-3.36226
-3.3517
-3.32104
-3.28274
-3.24865
-3.22817
-3.22818
-3.25352
-3.30717
-3.39034
-3.50246
-3.64175
-3.80584
-3.99196
-4.19751
-4.41979
-4.65622
-4.90394
-5.15949
-5.41877
-5.67697
-5.92897
-6.16934
-6.39225
-6.59151
-6.76064
-6.8928
-6.98136
-7.02069
-7.00662
-6.93644
-6.81023
-6.63064
-6.40272
-6.13359
-5.83164
-5.50583
-5.16454
-4.81483
-4.46205
-4.10995
-3.76087
-3.41606
-3.07598
-2.74069
-2.4103
-2.08552
-1.76777
-1.45868
-1.15929
-0.869483
-0.587825
-0.311372
-0.0369451
0.236051
0.505014
0.767406
1.02258
1.2726
1.52256
1.77771
2.03727
2.29667
2.55122
2.79793
3.03548
3.26383
3.48356
3.69546
3.90003
4.09721
4.28635
4.46637
4.63587
4.7933
4.93729
5.06674
5.18098
5.27982
5.3636
5.43295
5.48884
5.5324
5.56495
5.58789
5.60271
5.61077
5.61331
5.61136
5.6058
5.59742
5.58688
5.57475
5.56143
5.54727
5.5325
5.51734
5.50196
5.48651
5.47113
5.45593
5.44101
5.42642
5.4122
5.39838
5.38497
5.37197
5.35938
5.34718
5.33536
5.3239
5.31279
5.302
5.29152
5.28133
5.2714
5.26172
5.25226
5.24302
5.23398
5.22511
5.21642
5.20787
5.19947
5.19119
5.18301
5.17493
5.16693
5.15899
5.1511
5.14324
5.1354
5.12757
5.11973
5.11189
5.10403
5.09614
5.08824
5.0803
5.07234
5.06436
5.05637
5.04837
5.04038
5.03241
5.02449
5.01666
5.00895
5.00141
4.99409
4.98708
4.98041
4.97419
4.96838
4.96303
4.95771
4.95213
4.94468
4.93382
4.91524
-1.06114
-1.0866
-1.12924
-1.18238
-1.24969
-1.33457
-1.43946
-1.56528
-1.7107
-1.87237
-2.04608
-2.2276
-2.41358
-2.60162
-2.7893
-2.97139
-3.13903
-3.28256
-3.39425
-3.47071
-3.51369
-3.53004
-3.5304
-3.52723
-3.53189
-3.55283
-3.59568
-3.66376
-3.75826
-3.87856
-4.02275
-4.18837
-4.37328
-4.57621
-4.79652
-5.03353
-5.28644
-5.55386
-5.83369
-6.12226
-6.41451
-6.70424
-6.98413
-7.24621
-7.48192
-7.68168
-7.8356
-7.93469
-7.97168
-7.94182
-7.84342
-7.67764
-7.4489
-7.16453
-6.83388
-6.46814
-6.0791
-5.6778
-5.27331
-4.87216
-4.47825
-4.09329
-3.71759
-3.35075
-2.99198
-2.64044
-2.29577
-1.95892
-1.63194
-1.31678
-1.01406
-0.722653
-0.439723
-0.160564
0.117164
0.391099
0.657679
0.915419
1.16562
1.41357
1.66648
1.9255
2.18632
2.44318
2.69248
2.9326
3.1634
3.38569
3.60045
3.80832
4.00928
4.20273
4.38747
4.562
4.7246
4.87365
5.00769
5.12596
5.22828
5.31507
5.38717
5.44569
5.49188
5.52703
5.55249
5.5697
5.58004
5.5848
5.58504
5.58162
5.57529
5.56667
5.55629
5.54462
5.53199
5.51865
5.50482
5.49066
5.47632
5.46193
5.44762
5.4335
5.41962
5.40605
5.39281
5.37993
5.36741
5.35524
5.34343
5.33197
5.32083
5.31001
5.29949
5.28924
5.27927
5.26953
5.26003
5.25074
5.24164
5.23272
5.22397
5.21537
5.20691
5.19858
5.19037
5.18226
5.17424
5.1663
5.15841
5.15056
5.14274
5.13494
5.12714
5.11933
5.11151
5.10366
5.09578
5.08788
5.07993
5.07196
5.06395
5.05591
5.04785
5.03977
5.0317
5.02364
5.01562
5.00767
4.99982
4.9921
4.98457
4.97722
4.97011
4.96314
4.95624
4.94897
4.94082
4.9304
4.91602
4.89447
-1.12707
-1.14849
-1.18359
-1.23174
-1.29607
-1.37882
-1.48169
-1.60468
-1.74536
-1.8997
-2.06359
-2.23373
-2.40884
-2.58925
-2.77441
-2.95984
-3.13663
-3.29447
-3.42583
-3.52803
-3.60322
-3.65774
-3.70159
-3.74555
-3.79917
-3.86962
-3.96104
-4.07485
-4.21019
-4.36495
-4.53704
-4.72518
-4.92922
-5.15017
-5.38987
-5.65051
-5.93303
-6.23713
-6.56027
-6.89744
-7.24173
-7.58468
-7.91664
-8.22712
-8.50488
-8.73816
-8.91532
-9.02582
-9.06136
-9.0167
-8.88948
-8.68116
-8.39748
-8.04783
-7.64485
-7.20327
-6.73838
-6.26443
-5.79313
-5.3327
-4.88766
-4.45946
-4.04753
-3.6502
-3.26533
-2.89071
-2.52471
-2.16731
-1.8205
-1.48681
-1.16774
-0.86288
-0.569899
-0.283298
0.000829827
0.280766
0.552296
0.813412
1.06543
1.31324
1.56491
1.82321
2.08403
2.34162
2.59194
2.83313
3.06519
3.28907
3.50593
3.71648
3.9207
4.11801
4.30718
4.48646
4.65386
4.80746
4.94569
5.06768
5.17325
5.26294
5.33775
5.39895
5.44788
5.48584
5.51413
5.53406
5.54697
5.55417
5.55677
5.55565
5.55151
5.54494
5.53647
5.52654
5.51551
5.50367
5.49123
5.47836
5.46519
5.45186
5.43851
5.42524
5.41214
5.39927
5.38667
5.37436
5.36236
5.35067
5.33929
5.32821
5.31743
5.30693
5.2967
5.28672
5.27698
5.26746
5.25815
5.24904
5.24009
5.23131
5.22268
5.21419
5.20583
5.19759
5.18946
5.18142
5.17346
5.16558
5.15774
5.14995
5.14218
5.13442
5.12665
5.11888
5.11108
5.10325
5.09538
5.08748
5.07953
5.07153
5.0635
5.05541
5.04729
5.03913
5.03095
5.02274
5.01454
5.00634
4.99817
4.99005
4.98198
4.97396
4.96596
4.95786
4.94949
4.9404
4.92996
4.91693
4.89968
4.87568
-1.15948
-1.17738
-1.20783
-1.2516
-1.31206
-1.39072
-1.48896
-1.6061
-1.739
-1.88354
-2.03585
-2.19336
-2.35603
-2.5258
-2.70372
-2.88656
-3.06708
-3.23639
-3.38821
-3.52068
-3.63575
-3.73836
-3.83584
-3.93605
-4.04584
-4.17006
-4.31118
-4.46924
-4.64262
-4.82939
-5.02876
-5.24181
-5.47117
-5.72056
-5.99402
-6.29465
-6.62376
-6.98018
-7.35917
-7.75323
-8.15366
-8.55101
-8.93504
-9.29455
-9.61702
-9.88855
-10.0944
-10.2212
-10.2581
-10.1983
-10.0397
-9.78496
-9.44176
-9.02223
-8.54202
-8.01895
-7.47166
-6.91777
-6.37189
-5.84426
-5.34055
-4.86247
-4.40898
-3.97733
-3.56376
-3.16427
-2.77553
-2.39628
-2.02809
-1.67419
-1.33672
-1.01574
-0.708805
-0.410447
-0.116183
0.172012
0.449871
0.71568
0.971014
1.22078
1.47313
1.73117
1.99143
2.24843
2.49817
2.73906
2.97131
3.19602
3.41441
3.6272
3.8343
4.03509
4.22805
4.4113
4.58259
4.73982
4.88146
5.00667
5.11537
5.2081
5.28586
5.34995
5.40178
5.44268
5.47392
5.49671
5.51233
5.52207
5.52709
5.52831
5.52643
5.522
5.5155
5.50738
5.49801
5.48771
5.47669
5.46514
5.45319
5.44098
5.42864
5.41628
5.40401
5.39189
5.37997
5.36829
5.35685
5.34568
5.33476
5.32411
5.31371
5.30356
5.29364
5.28395
5.27447
5.26519
5.25609
5.24716
5.23839
5.22976
5.22127
5.2129
5.20465
5.1965
5.18845
5.18049
5.1726
5.16478
5.15701
5.14927
5.14155
5.13383
5.12611
5.11837
5.1106
5.10279
5.09494
5.08704
5.07909
5.07108
5.06301
5.05489
5.04671
5.03846
5.03017
5.02181
5.01342
5.00497
4.99649
4.98795
4.97936
4.97067
4.96181
4.95262
4.94287
4.9321
4.91962
4.90432
4.88469
4.85868
-1.15865
-1.17426
-1.20188
-1.24258
-1.29975
-1.37469
-1.46846
-1.57998
-1.70619
-1.84317
-1.98727
-2.13631
-2.29076
-2.45311
-2.62526
-2.80573
-2.9897
-3.17102
-3.34479
-3.50908
-3.66487
-3.81515
-3.96441
-4.11783
-4.28004
-4.45426
-4.64183
-4.84245
-5.05505
-5.27881
-5.51454
-5.76471
-6.03301
-6.32382
-6.64104
-6.98717
-7.36233
-7.76384
-8.18611
-8.62189
-9.06343
-9.50222
-9.92833
-10.3295
-10.6906
-10.9939
-11.2215
-11.3577
-11.3912
-11.3153
-11.1285
-10.8344
-10.4416
-9.96423
-9.41957
-8.82801
-8.21074
-7.58794
-6.97623
-6.38745
-5.82847
-5.30169
-4.80619
-4.33866
-3.89424
-3.46744
-3.05346
-2.65016
-2.25879
-1.88265
-1.52446
-1.18432
-0.859417
-0.544489
-0.236282
0.0629743
0.349257
0.621363
0.881495
1.13508
1.39006
1.64883
1.9083
2.16371
2.4117
2.65126
2.88306
3.10838
3.32832
3.54333
3.75309
3.95672
4.15261
4.3387
4.51265
4.67238
4.81648
4.94437
5.05604
5.15194
5.2329
5.30007
5.35481
5.39855
5.4326
5.4582
5.47655
5.48888
5.49633
5.49988
5.50023
5.49795
5.49347
5.48721
5.47955
5.47082
5.46126
5.45106
5.44036
5.42931
5.41803
5.40665
5.39526
5.38394
5.37276
5.36174
5.35092
5.3403
5.32988
5.31969
5.3097
5.29992
5.29035
5.28096
5.27176
5.26273
5.25386
5.24514
5.23655
5.22809
5.21974
5.21151
5.20337
5.19532
5.18737
5.17949
5.17168
5.16392
5.15621
5.14853
5.14086
5.1332
5.12552
5.11782
5.11008
5.10229
5.09446
5.08657
5.07862
5.0706
5.06251
5.05434
5.0461
5.03777
5.02936
5.02087
5.01228
5.00359
4.99478
4.98584
4.97674
4.96739
4.9577
4.94748
4.93645
4.92413
4.90985
4.89258
4.87096
4.84328
-1.13184
-1.14597
-1.17276
-1.21225
-1.26779
-1.34079
-1.43221
-1.54109
-1.66487
-1.80003
-1.94346
-2.09335
-2.25011
-2.41568
-2.5918
-2.7781
-2.97168
-3.16813
-3.36359
-3.55602
-3.74535
-3.93332
-4.12333
-4.31958
-4.52592
-4.74517
-4.97837
-5.2248
-5.48294
-5.75136
-6.03006
-6.32016
-6.62413
-6.94562
-7.28851
-7.65633
-8.0502
-8.46837
-8.90654
-9.35852
-9.81697
-10.2735
-10.7179
-11.1367
-11.5134
-11.8292
-12.0656
-12.2064
-12.2402
-12.1602
-11.9636
-11.6529
-11.2363
-10.7282
-10.1476
-9.51693
-8.8589
-8.1943
-7.54074
-6.91101
-6.31288
-5.74967
-5.22043
-4.72193
-4.24869
-3.79448
-3.35403
-2.92525
-2.50958
-2.11028
-1.7297
-1.36763
-1.02081
-0.685191
-0.359539
-0.0468742
0.24942
0.52906
0.795557
1.05531
1.31482
1.57509
1.83341
2.08633
2.33182
2.56983
2.80139
3.02771
3.24951
3.46675
3.67882
3.88459
4.08244
4.27029
4.44579
4.607
4.75278
4.88275
4.99697
5.09579
5.17981
5.24993
5.30745
5.3538
5.39041
5.41857
5.43953
5.45445
5.46442
5.47034
5.47294
5.47279
5.47033
5.46597
5.46007
5.45296
5.44491
5.4361
5.42671
5.41687
5.40671
5.39635
5.3859
5.37545
5.36505
5.35475
5.34457
5.33454
5.32467
5.31496
5.30542
5.29604
5.28683
5.27777
5.26887
5.26011
5.25148
5.24298
5.23459
5.2263
5.21811
5.21001
5.202
5.19407
5.18621
5.17842
5.17069
5.163
5.15536
5.14774
5.14013
5.13251
5.12488
5.11722
5.10951
5.10176
5.09395
5.08607
5.07812
5.07009
5.06197
5.05377
5.04547
5.03706
5.02855
5.01991
5.01113
5.0022
4.99308
4.98375
4.97414
4.96416
4.95369
4.9425
4.93028
4.91656
4.90068
4.88169
4.8584
4.82934
-1.09062
-1.10407
-1.13129
-1.17159
-1.22811
-1.30246
-1.39577
-1.50756
-1.63628
-1.77951
-1.93485
-2.1004
-2.27532
-2.45955
-2.65319
-2.85552
-3.06449
-3.27712
-3.49056
-3.70336
-3.91587
-4.13026
-4.3501
-4.57953
-4.82214
-5.07976
-5.35175
-5.63531
-5.92652
-6.22177
-6.5195
-6.82038
-7.12749
-7.44587
-7.78111
-8.13832
-8.51972
-8.92404
-9.3474
-9.78417
-10.2272
-10.669
-11.1003
-11.5092
-11.8803
-12.1954
-12.4355
-12.5837
-12.6277
-12.5596
-12.3761
-12.0785
-11.6737
-11.1753
-10.6019
-9.97555
-9.31861
-8.65137
-7.99107
-7.3507
-6.73861
-6.15884
-5.61137
-5.0931
-4.5986
-4.12166
-3.65775
-3.20578
-2.76767
-2.34637
-1.94348
-1.55793
-1.18695
-0.828738
-0.484485
-0.157769
0.149116
0.437642
0.712946
0.981247
1.24637
1.50819
1.76501
2.01519
2.25835
2.49529
2.72717
2.95487
3.17855
3.39773
3.61155
3.81884
4.01793
4.20671
4.38295
4.54494
4.69175
4.82314
4.93926
5.04038
5.12691
5.19958
5.25954
5.30826
5.34724
5.37785
5.40131
5.41877
5.43125
5.4396
5.44451
5.44651
5.44608
5.44364
5.43954
5.43412
5.42762
5.42028
5.41225
5.40367
5.39469
5.38543
5.37598
5.36644
5.35688
5.34733
5.33785
5.32845
5.31915
5.30996
5.30089
5.29194
5.28311
5.2744
5.26581
5.25733
5.24896
5.24069
5.23251
5.22441
5.21639
5.20844
5.20056
5.19275
5.18499
5.1773
5.16965
5.16204
5.15446
5.14691
5.13935
5.13179
5.12421
5.11658
5.10892
5.10119
5.0934
5.08554
5.07759
5.06956
5.06142
5.05319
5.04483
5.03635
5.02773
5.01895
5.00999
5.00082
4.99141
4.98169
4.9716
4.96103
4.94981
4.93771
4.92441
4.90943
4.89213
4.87166
4.84694
4.81672
-1.04931
-1.06282
-1.09194
-1.13554
-1.19692
-1.27753
-1.37932
-1.50313
-1.64897
-1.81503
-1.99855
-2.19616
-2.40471
-2.62159
-2.84473
-3.07194
-3.30061
-3.52803
-3.75263
-3.97473
-4.19657
-4.4215
-4.65332
-4.89531
-5.1493
-5.41503
-5.69009
-5.97069
-6.25268
-6.53286
-6.81051
-7.08747
-7.36763
-7.65652
-7.95952
-8.28137
-8.62404
-8.98863
-9.37155
-9.76832
-10.1732
-10.5799
-10.9806
-11.3645
-11.718
-12.0244
-12.2657
-12.4254
-12.4904
-12.4522
-12.306
-12.0519
-11.6952
-11.2464
-10.7218
-10.142
-9.52753
-8.89699
-8.26622
-7.64767
-7.04995
-6.47766
-5.93152
-5.40878
-4.90456
-4.41388
-3.93403
-3.46545
-3.01046
-2.57126
-2.14833
-1.74057
-1.34693
-0.968387
-0.608051
-0.268993
0.0486076
0.348185
0.634945
0.912913
1.18352
1.44665
1.70215
1.95025
2.19187
2.42833
2.66075
2.88963
3.11475
3.33545
3.55072
3.75917
3.95899
4.14811
4.32452
4.48674
4.63404
4.76625
4.88353
4.98614
5.07442
5.14901
5.21099
5.26182
5.30303
5.336
5.36195
5.38194
5.39692
5.40768
5.4149
5.4191
5.42075
5.42026
5.41802
5.41433
5.40946
5.40364
5.39704
5.3898
5.38206
5.37395
5.36556
5.35698
5.34829
5.33955
5.33079
5.32205
5.31335
5.3047
5.29613
5.28763
5.2792
5.27086
5.2626
5.25442
5.24632
5.23829
5.23032
5.22242
5.21458
5.20679
5.19906
5.19137
5.18372
5.17613
5.16857
5.16104
5.15353
5.14604
5.13855
5.13104
5.1235
5.11592
5.10829
5.1006
5.09283
5.08498
5.07705
5.06901
5.06086
5.05259
5.04419
5.03563
5.02691
5.018
5.00887
4.99947
4.98977
4.9797
4.96915
4.95801
4.9461
4.93317
4.91888
4.90277
4.88422
4.86246
4.83651
4.80531
-1.01951
-1.0348
-1.06818
-1.11934
-1.19258
-1.28988
-1.41455
-1.56807
-1.75028
-1.95773
-2.18551
-2.42794
-2.67951
-2.93434
-3.18712
-3.43374
-3.67154
-3.89901
-4.11564
-4.32269
-4.52284
-4.7197
-4.9173
-5.11944
-5.32936
-5.54842
-5.77605
-6.0108
-6.24922
-6.48985
-6.7308
-6.97269
-7.21767
-7.46917
-7.73121
-8.00758
-8.30102
-8.61332
-8.94345
-9.28847
-9.64393
-10.0044
-10.3631
-10.7113
-11.0382
-11.3298
-11.5708
-11.7461
-11.8426
-11.8505
-11.7635
-11.5792
-11.3
-10.9337
-10.4935
-9.99664
-9.46061
-8.9014
-8.33268
-7.76568
-7.20877
-6.66687
-6.14132
-5.63009
-5.12976
-4.63769
-4.15349
-3.67868
-3.21535
-2.76461
-2.32667
-1.90164
-1.49124
-1.0986
-0.727071
-0.377492
-0.0480278
0.264688
0.563583
0.850101
1.12496
1.38908
1.64377
1.89056
2.1312
2.36734
2.60014
2.82999
3.05656
3.27892
3.49563
3.70492
3.90491
4.09372
4.26969
4.43158
4.57875
4.71106
4.82869
4.93194
5.0212
5.09713
5.16079
5.21359
5.25701
5.29237
5.32083
5.34337
5.36089
5.37413
5.38371
5.39017
5.39399
5.39557
5.39527
5.39343
5.39029
5.38608
5.38099
5.37516
5.36873
5.36183
5.35455
5.34699
5.33923
5.33133
5.32334
5.31529
5.30723
5.29916
5.2911
5.28307
5.27508
5.26712
5.25921
5.25135
5.24353
5.23576
5.22803
5.22033
5.21268
5.20506
5.19748
5.18992
5.1824
5.17491
5.16744
5.16
5.15257
5.14514
5.13771
5.13025
5.12276
5.11522
5.10763
5.09997
5.09223
5.0844
5.07648
5.06844
5.06028
5.05198
5.04354
5.03492
5.0261
5.01706
5.00777
4.99816
4.98819
4.97777
4.9668
4.95513
4.94258
4.92888
4.9137
4.89658
4.87693
4.85405
4.82706
4.79503
-1.01938
-1.03952
-1.08321
-1.15219
-1.253
-1.38795
-1.55967
-1.76599
-2.00216
-2.26042
-2.53236
-2.80849