/*--------------------------------*- C++ -*----------------------------------*\
  =========                 |
  \\      /  F ield         | OpenFOAM: The Open Source CFD Toolbox
   \\    /   O peration     | Website:  https://openfoam.org
    \\  /    A nd           | Version:  7
     \\/     M anipulation  |
\*---------------------------------------------------------------------------*/
FoamFile
{
    version     2.0;
    format      ascii;
    class       volVectorField;
    location    "0.065";
    object      UMean;
}
// * * * * * * * * * * * * * * * * * * * * * * * * * * * * * * * * * * * * * //

dimensions      [0 1 -1 0 0 0 0];

internalField   nonuniform List<vector> 
12225
(
(4.77506 0.164784 0)
(4.17953 0.111752 0)
(3.71782 0.0983708 0)
(3.34806 0.0817919 0)
(3.0152 0.0685229 0)
(2.70486 0.0587546 0)
(2.41817 0.0503125 0)
(2.15945 0.0423654 0)
(1.93224 0.0340442 0)
(1.73679 0.0265749 0)
(1.57485 0.01831 0)
(1.44248 0.0127883 0)
(1.34175 0.00446913 0)
(1.26394 0.00387518 0)
(1.21011 -0.00717634 0)
(1.17449 0.00223964 0)
(1.15195 -0.0217716 0)
(1.15319 -0.00176757 0)
(5.02281 0.112701 0)
(4.87643 0.0733553 0)
(4.75884 0.0895334 0)
(4.66922 0.0891729 0)
(4.57589 0.0878132 0)
(4.47098 0.0883391 0)
(4.35635 0.0886763 0)
(4.23773 0.08686 0)
(4.11754 0.083398 0)
(4.00103 0.0772574 0)
(3.88713 0.0707857 0)
(3.7832 0.0613402 0)
(3.68265 0.0544013 0)
(3.59824 0.0429454 0)
(3.5121 0.0390382 0)
(3.44969 0.0245355 0)
(3.3761 0.0234761 0)
(3.33099 -0.00528601 0)
(4.9981 0.17299 0)
(4.87845 0.122942 0)
(4.79994 0.131109 0)
(4.76933 0.125719 0)
(4.75379 0.118679 0)
(4.73804 0.115387 0)
(4.71983 0.113407 0)
(4.69982 0.110931 0)
(4.67813 0.106319 0)
(4.65422 0.100714 0)
(4.62821 0.0924633 0)
(4.59984 0.0848733 0)
(4.57081 0.0741984 0)
(4.54028 0.0673139 0)
(4.51198 0.0556404 0)
(4.48216 0.0502773 0)
(4.45849 0.0360852 0)
(4.42823 0.0208967 0)
(4.99366 0.188958 0)
(4.89704 0.12022 0)
(4.81999 0.119075 0)
(4.78553 0.115176 0)
(4.77233 0.10832 0)
(4.76461 0.104384 0)
(4.75919 0.102883 0)
(4.75662 0.101093 0)
(4.75679 0.09809 0)
(4.75841 0.0932212 0)
(4.76047 0.0874786 0)
(4.76168 0.0801146 0)
(4.76245 0.0730843 0)
(4.76167 0.0646516 0)
(4.76187 0.0576243 0)
(4.76033 0.048391 0)
(4.76259 0.0387015 0)
(4.75997 0.0248261 0)
(4.9951 0.214849 0)
(4.92173 0.144495 0)
(4.85246 0.13574 0)
(4.81584 0.131454 0)
(4.80049 0.1227 0)
(4.79184 0.115448 0)
(4.78573 0.11085 0)
(4.78255 0.107091 0)
(4.78277 0.102419 0)
(4.78547 0.0967235 0)
(4.78981 0.0897904 0)
(4.79456 0.0823806 0)
(4.79978 0.0742099 0)
(4.80475 0.0660865 0)
(4.81055 0.0575401 0)
(4.81621 0.0481725 0)
(4.82339 0.0377919 0)
(4.82877 0.022905 0)
(4.99473 0.229675 0)
(4.94028 0.158822 0)
(4.88063 0.141284 0)
(4.84504 0.134911 0)
(4.82966 0.125175 0)
(4.82192 0.115956 0)
(4.81647 0.109499 0)
(4.81314 0.104474 0)
(4.81263 0.0992468 0)
(4.81455 0.0930367 0)
(4.81818 0.0859786 0)
(4.82251 0.0782003 0)
(4.82741 0.0700921 0)
(4.83228 0.0616253 0)
(4.83784 0.0528421 0)
(4.84326 0.0432851 0)
(4.84954 0.0322332 0)
(4.85424 0.0188817 0)
(4.99585 0.244395 0)
(4.95577 0.175495 0)
(4.90566 0.150979 0)
(4.87163 0.141611 0)
(4.85543 0.131124 0)
(4.84779 0.120611 0)
(4.84288 0.112388 0)
(4.83979 0.105968 0)
(4.83911 0.0997946 0)
(4.84066 0.0929853 0)
(4.84386 0.0854477 0)
(4.8478 0.0773508 0)
(4.85229 0.0689334 0)
(4.85676 0.0601438 0)
(4.86177 0.0510595 0)
(4.86639 0.0411149 0)
(4.87159 0.0301762 0)
(4.87491 0.0175434 0)
(4.99996 0.254954 0)
(4.9716 0.189889 0)
(4.93082 0.160485 0)
(4.89948 0.147503 0)
(4.88291 0.136041 0)
(4.8752 0.124403 0)
(4.8708 0.114472 0)
(4.8681 0.106422 0)
(4.86748 0.0991291 0)
(4.86889 0.0916097 0)
(4.87193 0.0835836 0)
(4.87569 0.0751187 0)
(4.87996 0.0663774 0)
(4.8841 0.0573448 0)
(4.88865 0.0479683 0)
(4.89255 0.0379563 0)
(4.89688 0.0271786 0)
(4.89914 0.0153204 0)
(5.00083 0.261601 0)
(4.98134 0.201967 0)
(4.94926 0.169434 0)
(4.922 0.152776 0)
(4.90648 0.140033 0)
(4.89943 0.127562 0)
(4.89593 0.116332 0)
(4.89397 0.106873 0)
(4.8936 0.0985006 0)
(4.89494 0.0903109 0)
(4.8978 0.081881 0)
(4.9014 0.0731376 0)
(4.9055 0.0641998 0)
(4.90942 0.0550351 0)
(4.91356 0.0456172 0)
(4.91695 0.0357236 0)
(4.92053 0.0253214 0)
(4.92221 0.0142846 0)
(4.9973 0.26836 0)
(4.98486 0.213475 0)
(4.96028 0.178894 0)
(4.93715 0.158857 0)
(4.92295 0.144387 0)
(4.91648 0.131028 0)
(4.91381 0.118722 0)
(4.91264 0.107983 0)
(4.91267 0.0984762 0)
(4.91398 0.0894813 0)
(4.91653 0.0805223 0)
(4.91973 0.0714421 0)
(4.92337 0.0622588 0)
(4.92687 0.0529421 0)
(4.93049 0.0434633 0)
(4.93343 0.0337059 0)
(4.93639 0.0236753 0)
(4.93779 0.0133794 0)
(4.99238 0.271309 0)
(4.98388 0.221231 0)
(4.96424 0.18592 0)
(4.94454 0.163243 0)
(4.93183 0.146886 0)
(4.926 0.132545 0)
(4.92401 0.119375 0)
(4.92353 0.107645 0)
(4.92396 0.0972552 0)
(4.9253 0.0876357 0)
(4.92767 0.0782839 0)
(4.93068 0.068955 0)
(4.93418 0.0596029 0)
(4.93755 0.0502117 0)
(4.94104 0.0407727 0)
(4.94379 0.0312357 0)
(4.94657 0.021634 0)
(4.94779 0.0120096 0)
(5.00276 0.275117 0)
(4.99645 0.228887 0)
(4.98059 0.193642 0)
(4.96357 0.168917 0)
(4.95164 0.150592 0)
(4.94555 0.135123 0)
(4.94323 0.121186 0)
(4.94271 0.108694 0)
(4.94321 0.0975143 0)
(4.94451 0.0872324 0)
(4.94666 0.0773985 0)
(4.94932 0.0677422 0)
(4.95238 0.0581777 0)
(4.95528 0.0487001 0)
(4.95825 0.039303 0)
(4.96048 0.0299891 0)
(4.96281 0.0207631 0)
(4.96368 0.0117092 0)
(5.00226 0.278278 0)
(4.99944 0.233898 0)
(4.98807 0.199006 0)
(4.97478 0.173037 0)
(4.96498 0.15312 0)
(4.95975 0.136446 0)
(4.95777 0.121584 0)
(4.95748 0.108231 0)
(4.95811 0.0962708 0)
(4.9594 0.0854034 0)
(4.96141 0.0752097 0)
(4.9638 0.0653773 0)
(4.96658 0.0557499 0)
(4.96911 0.0462853 0)
(4.97177 0.0369796 0)
(4.97363 0.0278627 0)
(4.97577 0.0189534 0)
(4.97638 0.0103375 0)
(5.01053 0.280356 0)
(5.01038 0.239383 0)
(5.00244 0.205285 0)
(4.99237 0.178212 0)
(4.98479 0.156701 0)
(4.98076 0.138823 0)
(4.97946 0.123208 0)
(4.97973 0.109225 0)
(4.98091 0.0966102 0)
(4.98261 0.0851016 0)
(4.98486 0.0744026 0)
(4.98736 0.0642485 0)
(4.99017 0.0544731 0)
(4.99271 0.0450074 0)
(4.99538 0.0358236 0)
(4.99723 0.0269469 0)
(4.99936 0.0183744 0)
(5.00001 0.0102072 0)
(5.00633 0.280044 0)
(5.00878 0.242135 0)
(5.00461 0.208651 0)
(4.99848 0.180875 0)
(4.99399 0.15816 0)
(4.99204 0.139047 0)
(4.99215 0.122345 0)
(4.99354 0.107448 0)
(4.99567 0.094077 0)
(4.99817 0.0819943 0)
(5.00101 0.0709133 0)
(5.00393 0.0605573 0)
(5.00702 0.0507247 0)
(5.00983 0.04132 0)
(5.01266 0.0323016 0)
(5.01481 0.0236991 0)
(5.01713 0.0155027 0)
(5.01824 0.00780714 0)
(5.01103 0.281608 0)
(5.0144 0.24573 0)
(5.01235 0.212725 0)
(5.0088 0.184286 0)
(5.00679 0.160417 0)
(5.00679 0.14018 0)
(5.00823 0.122594 0)
(5.01049 0.107012 0)
(5.01324 0.0930675 0)
(5.01622 0.0804988 0)
(5.0194 0.0690425 0)
(5.02258 0.0584648 0)
(5.02581 0.0485664 0)
(5.02873 0.039255 0)
(5.03156 0.0304476 0)
(5.03377 0.0221795 0)
(5.03601 0.0143783 0)
(5.03725 0.00717101 0)
(5.00051 0.279613 0)
(5.00454 0.244048 0)
(5.0047 0.211436 0)
(5.00437 0.182621 0)
(5.00557 0.157756 0)
(5.00825 0.136398 0)
(5.01178 0.117864 0)
(5.01571 0.101562 0)
(5.01982 0.0870661 0)
(5.02395 0.0740791 0)
(5.02809 0.0623443 0)
(5.03206 0.0516522 0)
(5.03592 0.0418028 0)
(5.03938 0.0326833 0)
(5.04271 0.0241751 0)
(5.04542 0.0162839 0)
(5.04815 0.00890635 0)
(5.04999 0.00213298 0)
(5.00464 0.283466 0)
(5.01023 0.244991 0)
(5.01287 0.21083 0)
(5.01536 0.181026 0)
(5.0194 0.155233 0)
(5.0246 0.132997 0)
(5.03019 0.113788 0)
(5.03568 0.0970818 0)
(5.04097 0.0824167 0)
(5.046 0.069439 0)
(5.05083 0.057848 0)
(5.05534 0.0474255 0)
(5.05965 0.037953 0)
(5.0635 0.029321 0)
(5.06719 0.0213647 0)
(5.07026 0.0140986 0)
(5.07337 0.00734437 0)
(5.07556 0.00125375 0)
(5.00335 0.278241 0)
(5.01246 0.238009 0)
(5.01909 0.201969 0)
(5.02534 0.170653 0)
(5.03287 0.14381 0)
(5.04134 0.120841 0)
(5.04982 0.101046 0)
(5.0578 0.0838073 0)
(5.06519 0.0686583 0)
(5.07203 0.055274 0)
(5.07839 0.043382 0)
(5.08421 0.0327647 0)
(5.08956 0.0231982 0)
(5.09428 0.0145514 0)
(5.09862 0.00665884 0)
(5.10228 -0.000494365 0)
(5.10585 -0.00707045 0)
(5.1086 -0.0129739 0)
(5.00274 0.27448 0)
(5.0132 0.230232 0)
(5.02328 0.190817 0)
(5.03432 0.157466 0)
(5.04664 0.129964 0)
(5.05899 0.107308 0)
(5.07028 0.0884012 0)
(5.08025 0.0724001 0)
(5.08917 0.0587055 0)
(5.09733 0.0468991 0)
(5.10492 0.0366327 0)
(5.11191 0.0276333 0)
(5.11836 0.0196265 0)
(5.12411 0.0124534 0)
(5.12941 0.00591383 0)
(5.13394 -1.55676e-05 0)
(5.13825 -0.00553061 0)
(5.14165 -0.0105202 0)
(4.9991 0.271455 0)
(5.01174 0.219697 0)
(5.0263 0.175856 0)
(5.04301 0.1407 0)
(5.06071 0.112678 0)
(5.07748 0.0896398 0)
(5.09232 0.0700249 0)
(5.10524 0.0530871 0)
(5.11664 0.0385164 0)
(5.12679 0.0260662 0)
(5.13589 0.0154018 0)
(5.14394 0.00619109 0)
(5.15111 -0.00186429 0)
(5.15738 -0.0089499 0)
(5.16308 -0.0152506 0)
(5.16797 -0.0208367 0)
(5.1726 -0.0258775 0)
(5.17632 -0.0303524 0)
(5.00528 0.265886 0)
(5.02206 0.2046 0)
(5.0427 0.156954 0)
(5.06517 0.122358 0)
(5.08687 0.0971493 0)
(5.10586 0.0776112 0)
(5.12195 0.0614541 0)
(5.13599 0.0477131 0)
(5.14877 0.0360135 0)
(5.16045 0.0260556 0)
(5.17098 0.0174668 0)
(5.18023 0.00993431 0)
(5.18838 0.00320605 0)
(5.19542 -0.00282539 0)
(5.20174 -0.00829027 0)
(5.20715 -0.0131948 0)
(5.21221 -0.0177062 0)
(5.21633 -0.021749 0)
(5.00137 0.260524 0)
(5.02799 0.18767 0)
(5.06036 0.134657 0)
(5.09262 0.0981436 0)
(5.12079 0.0714594 0)
(5.1436 0.0498281 0)
(5.16207 0.0315684 0)
(5.17779 0.0165815 0)
(5.19172 0.00468727 0)
(5.20407 -0.00475053 0)
(5.21487 -0.0125069 0)
(5.22415 -0.019146 0)
(5.23223 -0.024975 0)
(5.23921 -0.0301116 0)
(5.24547 -0.0346563 0)
(5.25081 -0.0386653 0)
(5.25577 -0.0422699 0)
(5.25972 -0.0454859 0)
(5.00589 0.244579 0)
(5.04212 0.164185 0)
(5.08637 0.115242 0)
(5.12665 0.087808 0)
(5.15829 0.0691484 0)
(5.18258 0.0526418 0)
(5.2028 0.0376739 0)
(5.22103 0.0250696 0)
(5.23758 0.0149387 0)
(5.25201 0.00668465 0)
(5.26423 -0.000359138 0)
(5.27447 -0.0065626 0)
(5.28325 -0.0120826 0)
(5.29079 -0.0169632 0)
(5.29751 -0.021307 0)
(5.30324 -0.0251562 0)
(5.30853 -0.0286653 0)
(5.31286 -0.0318078 0)
(5.00707 0.227798 0)
(5.05935 0.126173 0)
(5.12119 0.0717118 0)
(5.17091 0.0437997 0)
(5.20509 0.0239198 0)
(5.22957 0.00650284 0)
(5.25019 -0.00736 0)
(5.26897 -0.0171595 0)
(5.28574 -0.0240768 0)
(5.3 -0.0295621 0)
(5.31191 -0.0343948 0)
(5.32193 -0.038752 0)
(5.33062 -0.0426228 0)
(5.33817 -0.0460223 0)
(5.34493 -0.0490341 0)
(5.3507 -0.0517368 0)
(5.35601 -0.0542202 0)
(5.36031 -0.0565084 0)
(5.01643 0.211654 0)
(5.09069 0.11288 0)
(5.17071 0.0775737 0)
(5.22738 0.0613707 0)
(5.26272 0.0432984 0)
(5.28861 0.0251842 0)
(5.31192 0.0110214 0)
(5.33333 0.00124427 0)
(5.35175 -0.00585135 0)
(5.36683 -0.0117139 0)
(5.3792 -0.0169151 0)
(5.38957 -0.0215497 0)
(5.39852 -0.0256436 0)
(5.40621 -0.0292587 0)
(5.41296 -0.0325005 0)
(5.41866 -0.0354199 0)
(5.42381 -0.0381016 0)
(5.42801 -0.0405183 0)
(5.00951 0.158942 0)
(5.1225 0.0338576 0)
(5.22123 0.0060945 0)
(5.27818 -0.00329313 0)
(5.31027 -0.0173339 0)
(5.3357 -0.0295792 0)
(5.35989 -0.0370656 0)
(5.38192 -0.0415839 0)
(5.4005 -0.0451361 0)
(5.41568 -0.0484117 0)
(5.42835 -0.0513751 0)
(5.43919 -0.0539511 0)
(5.44869 -0.0561706 0)
(5.45693 -0.0581315 0)
(5.46421 -0.0599057 0)
(5.47038 -0.0615559 0)
(5.47596 -0.0631132 0)
(5.4805 -0.0646029 0)
(5.01503 0.153162 0)
(5.17673 0.0581914 0)
(5.2998 0.0444935 0)
(5.35975 0.028161 0)
(5.3924 0.00897186 0)
(5.42058 -0.00465463 0)
(5.44724 -0.0126299 0)
(5.47044 -0.0180651 0)
(5.48935 -0.0227045 0)
(5.50454 -0.0269107 0)
(5.51693 -0.0306126 0)
(5.52721 -0.0338468 0)
(5.53578 -0.0366735 0)
(5.54286 -0.0392244 0)
(5.54864 -0.0415131 0)
(5.55319 -0.0436493 0)
(5.55679 -0.0456042 0)
(5.55936 -0.0474876 0)
(5.01628 0.0189421 0)
(5.22766 -0.0520072 0)
(5.35351 -0.0346451 0)
(5.40701 -0.0431678 0)
(5.43689 -0.0532883 0)
(5.46048 -0.0578334 0)
(5.47848 -0.0595562 0)
(5.48937 -0.0608107 0)
(5.4932 -0.0620787 0)
(5.49121 -0.0632274 0)
(5.4846 -0.0641426 0)
(5.47454 -0.0648711 0)
(5.46148 -0.0654463 0)
(5.44626 -0.0659599 0)
(5.42877 -0.0663855 0)
(5.4101 -0.0668144 0)
(5.38944 -0.067186 0)
(5.36866 -0.0676365 0)
(4.96713 0.0704206 0)
(5.10227 -0.000448861 0)
(5.07392 -0.000542871 0)
(4.95981 -0.0109075 0)
(4.83221 -0.0186086 0)
(4.7078 -0.0216461 0)
(4.58694 -0.0228078 0)
(4.46799 -0.0235426 0)
(4.3506 -0.0240736 0)
(4.23553 -0.0243773 0)
(4.12359 -0.0244799 0)
(4.01548 -0.0244468 0)
(3.91119 -0.0243224 0)
(3.81111 -0.0241495 0)
(3.71452 -0.0239271 0)
(3.62232 -0.0236976 0)
(3.53278 -0.0234358 0)
(3.44834 -0.0232347 0)
(-0.0154168 0.0252562 1.35958e-21)
(-0.0271167 -0.00553645 -1.3507e-21)
(-0.00775126 -0.0356913 0)
(0.0344142 -0.0588056 0)
(0.09324 -0.0745227 0)
(0.162753 -0.0835587 1.31123e-21)
(0.237921 -0.0870201 0)
(0.314805 -0.086566 0)
(0.390679 -0.0835289 0)
(0.463691 -0.0786831 0)
(0.532551 -0.0725434 -1.22875e-21)
(0.596093 -0.0653376 0)
(0.653192 -0.0570924 0)
(0.702632 -0.0477194 0)
(0.74299 -0.0370925 0)
(0.772725 -0.0251293 -1.11347e-21)
(0.790186 -0.0117753 0)
(0.793885 0.00292467 0)
(0.782529 0.018882 0)
(0.754133 0.035807 0)
(0.708064 0.0531371 0)
(0.644118 0.0701023 0)
(0.563167 0.0857289 0)
(0.466817 0.098884 -1.02733e-21)
(0.357609 0.108403 1.02567e-21)
(0.238371 0.113219 -1.02341e-21)
(0.113131 0.113218 -1.0198e-21)
(-0.0136289 0.107233 0)
(-0.136155 0.0956783 0)
(-0.251162 0.0756245 9.97227e-22)
(-0.351099 0.0467785 9.85927e-22)
(-0.435625 0.0205074 0)
(-0.512218 0.00362686 0)
(-0.587516 0.000457608 9.44711e-22)
(-0.664749 0.014735 0)
(-0.746172 0.0332915 0)
(-0.830617 0.0406973 -8.9997e-22)
(-0.918311 0.0427932 0)
(-1.00986 0.0560043 -8.65081e-22)
(-1.10983 0.0724032 -1.69225e-21)
(-1.21627 0.074613 0)
(-1.32197 0.0788569 0)
(-1.43172 0.0873595 0)
(-1.54124 0.0833079 0)
(-1.64447 0.0703257 0)
(-1.74034 0.0664813 -1.43117e-21)
(-1.83468 0.0646615 -1.3903e-21)
(-1.92241 0.0581804 -1.3513e-21)
(-2.0009 0.0573015 0)
(-2.07178 0.0578625 1.2848e-21)
(-2.13219 0.0536019 0)
(-2.17948 0.0442639 -1.23899e-21)
(-2.21182 0.0333253 -1.22372e-21)
(-2.22973 0.0226102 0)
(-2.23388 0.0125385 0)
(-2.22538 0.00337529 0)
(-2.20538 -0.00476056 -1.21586e-21)
(-2.17508 -0.0118613 0)
(-2.13581 -0.0179535 0)
(-2.08865 -0.0231158 0)
(-2.03469 -0.0274186 0)
(-1.97496 -0.0309578 0)
(-1.91037 -0.0338131 0)
(-1.84172 -0.0360754 0)
(-1.76972 -0.0378215 0)
(-1.69504 -0.0391362 1.41873e-21)
(-1.6182 -0.0400859 0)
(-1.53965 -0.0407398 0)
(-1.45975 -0.0411604 -1.50784e-21)
(-1.37876 -0.0414021 -1.5372e-21)
(-1.29689 -0.0415161 0)
(-1.21428 -0.0415419 1.59467e-21)
(-1.13104 -0.0415123 -1.62265e-21)
(-1.04719 -0.0414555 0)
(-0.962785 -0.0413898 1.6768e-21)
(-0.877789 -0.0413278 0)
(-0.79217 -0.0412838 0)
(-0.705879 -0.0412527 -1.75297e-21)
(-0.618889 -0.0412207 0)
(-0.531248 -0.0411515 1.79998e-21)
(-0.443059 -0.041005 0)
(-0.354512 -0.0407508 -1.84314e-21)
(-0.265856 -0.0403619 -1.86294e-21)
(-0.177362 -0.0398345 -1.88139e-21)
(-0.0892935 -0.0391801 -3.79677e-21)
(-0.00187537 -0.0384237 3.82777e-21)
(0.0847288 -0.0375925 0)
(0.170389 -0.036709 0)
(0.254986 -0.0357895 0)
(0.338422 -0.0348445 3.92096e-21)
(0.420593 -0.0338661 3.93633e-21)
(0.50139 -0.0328457 -3.94834e-21)
(0.58068 -0.0317726 0)
(0.658307 -0.0306291 3.96171e-21)
(0.734085 -0.0294095 3.96278e-21)
(0.807812 -0.0281038 3.95994e-21)
(0.879261 -0.0267069 0)
(0.948187 -0.0252298 0)
(1.01437 -0.0236646 0)
(1.0776 -0.0220396 3.90922e-21)
(1.13769 -0.02035 0)
(1.19447 -0.0186302 0)
(1.24783 -0.0168856 -3.8337e-21)
(1.29765 -0.0151454 0)
(1.3439 -0.0134225 0)
(1.38655 -0.0117391 -3.73478e-21)
(1.42561 -0.0101124 0)
(1.46115 -0.00855466 0)
(1.49329 -0.0070606 3.62202e-21)
(1.52213 -0.00564743 3.58284e-21)
(1.54778 -0.00431928 0)
(1.57036 -0.00307983 -3.50351e-21)
(1.59003 -0.00193214 0)
(1.60693 -0.000879295 3.42399e-21)
(1.62121 7.55049e-05 0)
(1.63306 0.000929713 3.34522e-21)
(1.64267 0.00168191 3.30631e-21)
(1.65021 0.00233251 0)
(1.65589 0.00288518 0)
(1.65989 0.00334606 0)
(1.66242 0.00372337 0)
(1.66363 0.00402531 0)
(1.6637 0.00425742 0)
(1.66278 0.00442728 0)
(1.661 0.00454398 3.01015e-21)
(1.65849 0.00460655 -2.97509e-21)
(1.65538 0.00461141 0)
(1.6518 0.00456318 0)
(1.64785 0.0044685 0)
(1.64363 0.00433419 0)
(1.63925 0.00416794 -5.61145e-21)
(1.63476 0.00397803 0)
(1.63025 0.00377245 5.48109e-21)
(1.62577 0.00355827 -5.41693e-21)
(1.62136 0.00334119 0)
(1.61707 0.0031256 0)
(1.61291 0.00291462 0)
(1.60892 0.0027104 5.16662e-21)
(1.60511 0.00251449 5.10554e-21)
(1.60148 0.00232812 0)
(1.59804 0.00215234 4.98504e-21)
(1.59479 0.00198797 4.9256e-21)
(1.59172 0.00183556 -4.86668e-21)
(1.58883 0.00169535 0)
(1.58611 0.00156725 0)
(1.58354 0.0014509 -4.69286e-21)
(1.5811 0.00134577 0)
(1.57878 0.0012512 0)
(1.57656 0.00116655 0)
(1.57444 0.00109121 0)
(1.57238 0.00102464 4.41226e-21)
(1.57038 0.000966325 4.3574e-21)
(1.56843 0.000915813 0)
(1.56651 0.000872712 4.24886e-21)
(1.5646 0.000836711 0)
(1.5627 0.000807532 0)
(1.56079 0.000785021 4.08891e-21)
(1.55886 0.000769231 0)
(1.55688 0.000760575 3.98413e-21)
(1.55486 0.000759611 0)
(1.55274 0.000767735 0)
(1.55054 0.000786184 3.82971e-21)
(1.54817 0.000816974 0)
(1.54568 0.000860798 3.72865e-21)
(1.5429 0.000922357 0)
(1.53996 0.001001 0)
(1.53649 0.00111017 0)
(1.53285 0.00124052 -3.53149e-21)
(1.52825 0.00143291 0)
(1.52349 0.0016397 3.43588e-21)
(1.51698 0.00199577 0)
(1.51029 0.00230396 0)
(1.50064 0.00303211 0)
(1.49013 0.00341495 0)
(1.47567 0.00513358 0)
(1.45585 0.00527287 0)
(1.43597 0.0100953 0)
(1.38801 0.00848162 -6.19259e-21)
(1.37102 0.0252054 0)
(1.22234 0.0182224 0)
(-0.00652898 0.0599465 -4.0698e-21)
(-0.0103042 -0.0164924 4.04278e-21)
(0.00805354 -0.0934672 0)
(0.0418516 -0.154193 -2.64937e-21)
(0.0884268 -0.195989 0)
(0.142483 -0.219749 -1.31228e-21)
(0.200158 -0.228837 2.58218e-21)
(0.258241 -0.227624 2.55266e-21)
(0.315184 -0.219714 0)
(0.370205 -0.207382 2.47959e-21)
(0.422535 -0.191813 1.22975e-21)
(0.471313 -0.173347 0)
(0.515482 -0.151787 0)
(0.553707 -0.126725 0)
(0.584361 -0.0977626 0)
(0.605761 -0.064707 1.11438e-21)
(0.616166 -0.0276621 0)
(0.61409 0.0128526 -2.11645e-21)
(0.598095 0.0559516 0)
(0.568427 0.100375 0)
(0.524399 0.144454 2.04135e-21)
(0.465938 0.186444 0)
(0.393706 0.224818 -2.02444e-21)
(0.308804 0.258284 1.02832e-21)
(0.212986 0.285567 -1.02669e-21)
(0.108552 0.30476 1.02447e-21)
(-0.00172114 0.314122 1.0209e-21)
(-0.11481 0.312263 0)
(-0.227051 0.299603 0)
(-0.337324 0.278273 -9.98411e-22)
(-0.448032 0.252496 9.67478e-22)
(-0.568616 0.238124 0)
(-0.697661 0.239706 0)
(-0.828631 0.24056 -9.45867e-22)
(-0.95534 0.232302 0)
(-1.07789 0.221933 0)
(-1.19821 0.222466 9.01119e-22)
(-1.31903 0.228934 0)
(-1.43637 0.232384 -8.09099e-22)
(-1.55024 0.236845 1.69448e-21)
(-1.66338 0.241714 0)
(-1.77235 0.240805 0)
(-1.87705 0.234977 2.99591e-21)
(-1.97904 0.228478 2.90605e-21)
(-2.08024 0.217887 2.81702e-21)
(-2.17545 0.205789 -1.29812e-21)
(-2.26306 0.194585 1.39222e-21)
(-2.33904 0.177999 3.92955e-21)
(-2.39877 0.153782 -2.50938e-21)
(-2.44082 0.125022 -1.28656e-21)
(-2.46691 0.094493 0)
(-2.47903 0.0634447 1.24069e-21)
(-2.47787 0.0333336 -1.12453e-21)
(-2.46481 0.00506458 0)
(-2.44068 -0.0208272 0)
(-2.40659 -0.0440616 0)
(-2.36351 -0.0645363 1.21714e-21)
(-2.31257 -0.0823188 0)
(-2.2546 -0.0975306 -2.43202e-21)
(-2.19063 -0.110365 0)
(-2.12148 -0.121032 -2.5242e-21)
(-2.04795 -0.129756 0)
(-1.97072 -0.136756 2.63407e-21)
(-1.89043 -0.142243 0)
(-1.80767 -0.146411 -2.7536e-21)
(-1.72296 -0.149459 1.39559e-21)
(-1.63672 -0.151558 0)
(-1.54932 -0.152898 2.93778e-21)
(-1.46104 -0.153652 1.50832e-21)
(-1.37204 -0.153989 1.53763e-21)
(-1.28242 -0.15404 0)
(-1.19222 -0.153921 1.57997e-21)
(-1.10147 -0.153698 1.62299e-21)
(-1.01014 -0.153424 0)
(-0.918247 -0.153136 -1.67709e-21)
(-0.825749 -0.152862 3.39323e-21)
(-0.732589 -0.152647 0)
(-0.638685 -0.152484 1.75319e-21)
(-0.543974 -0.152332 0)
(-0.448474 -0.152081 -5.38863e-21)
(-0.352288 -0.151606 0)
(-0.25562 -0.150791 5.51896e-21)
(-0.158744 -0.149563 1.86306e-21)
(-0.0619715 -0.147902 -1.87167e-21)
(0.0344055 -0.145849 -3.77824e-21)
(0.130149 -0.143478 3.81007e-21)
(0.225103 -0.140876 0)
(0.319151 -0.13812 0)
(0.412192 -0.135255 0)
(0.50415 -0.1323 -1.17485e-20)
(0.594946 -0.129243 -3.93634e-21)
(0.684479 -0.12605 3.94832e-21)
(0.772626 -0.122682 0)
(0.859235 -0.119101 3.95108e-21)
(0.944119 -0.115275 -3.96271e-21)
(1.02708 -0.111185 -3.95986e-21)
(1.10788 -0.106821 0)
(1.18629 -0.102196 0)
(1.26208 -0.097323 0)
(1.33505 -0.0922431 -3.90908e-21)
(1.40501 -0.0869936 0)
(1.47181 -0.0816268 7.71895e-21)
(1.53534 -0.0761907 1.14964e-20)
(1.59551 -0.0707529 -7.60143e-21)
(1.65228 -0.0653578 0)
(1.70563 -0.0600739 -3.73121e-21)
(1.75559 -0.0549496 0)
(1.80224 -0.0499945 -7.3178e-21)
(1.84569 -0.0452286 3.61908e-21)
(1.88604 -0.040682 3.5801e-21)
(1.9234 -0.0363661 0)
(1.95788 -0.0322879 1.05076e-20)
(1.9896 -0.028453 -6.92498e-21)
(2.01871 -0.024867 -3.42371e-21)
(2.04533 -0.0215365 0)
(2.06962 -0.018468 -3.34492e-21)
(2.09174 -0.0156655 -9.91675e-21)
(2.11185 -0.0131294 0)
(2.13012 -0.0108546 -6.45763e-21)
(2.14671 -0.00883079 -6.38233e-21)
(2.16179 -0.00704332 -6.3079e-21)
(2.17553 -0.00547478 0)
(2.18806 -0.0041077 0)
(2.19951 -0.00292343 0)
(2.21001 -0.00190282 3.00923e-21)
(2.21966 -0.00103302 2.97471e-21)
(2.22853 -0.000304583 0)
(2.23671 0.000295564 5.81121e-21)
(2.24423 0.000781923 5.74352e-21)
(2.25117 0.00116616 0)
(2.25757 0.00145844 5.61062e-21)
(2.26349 0.00166892 1.10898e-20)
(2.26897 0.00180764 -5.48025e-21)
(2.27405 0.00188525 -5.4158e-21)
(2.27879 0.00191188 0)
(2.28321 0.00189668 0)
(2.28736 0.00184791 0)
(2.29127 0.0017729 -5.16577e-21)
(2.29497 0.00167833 5.10458e-21)
(2.2985 0.00157027 1.00882e-20)
(2.30186 0.00145433 -4.98418e-21)
(2.30509 0.00133561 4.9247e-21)
(2.30819 0.00121859 4.86582e-21)
(2.31119 0.00110706 0)
(2.31407 0.00100399 0)
(2.31686 0.000911443 -4.692e-21)
(2.31955 0.000830571 0)
(2.32213 0.00076181 0)
(2.32461 0.000705004 9.04474e-21)
(2.32697 0.000659614 0)
(2.32921 0.000624807 4.41141e-21)
(2.33133 0.000599907 -4.35658e-21)
(2.33332 0.000584285 0)
(2.33518 0.000577431 4.24802e-21)
(2.33689 0.00057903 0)
(2.33846 0.000589138 0)
(2.33988 0.000608191 -4.08812e-21)
(2.34115 0.000636926 8.07105e-21)
(2.34225 0.000676719 -3.98335e-21)
(2.34319 0.000728918 0)
(2.34394 0.000796431 0)
(2.34451 0.000879829 3.82886e-21)
(2.34485 0.00098646 0)
(2.34499 0.00111445 3.72776e-21)
(2.34484 0.00128358 0)
(2.34444 0.0014791 0)
(2.34363 0.00175611 0)
(2.34251 0.00205228 3.53077e-21)
(2.34079 0.00252801 0)
(2.33861 0.00296624 -3.43518e-21)
(2.33555 0.00384213 0)
(2.33161 0.00445102 0)
(2.32659 0.00621112 6.5929e-21)
(2.3193 0.00692221 -6.50436e-21)
(2.31162 0.0108363 0)
(2.29689 0.011241 0)
(2.28654 0.0209873 0)
(2.25304 0.0199833 1.85573e-20)
(2.24447 0.047915 0)
(2.16245 0.0462663 -1.20964e-20)
(0.00280537 0.0625444 9.65931e-24)
(0.00934579 -0.0365655 -5.37593e-21)
(0.0310834 -0.139494 0)
(0.0615002 -0.223152 5.28962e-21)
(0.098726 -0.281369 0)
(0.137203 -0.312853 0)
(0.175155 -0.323559 -2.25229e-23)
(0.212155 -0.320625 -2.55444e-21)
(0.248642 -0.309401 -2.49231e-21)
(0.284863 -0.292924 -2.48129e-21)
(0.320567 -0.272232 0)
(0.354936 -0.247023 0)
(0.386602 -0.21633 2.30717e-21)
(0.413823 -0.179127 4.51006e-21)
(0.434547 -0.134677 -4.40622e-21)
(0.446752 -0.0828475 0)
(0.448306 -0.0241249 -4.21411e-21)
(0.437576 0.0402313 2.11776e-21)
(0.412966 0.108485 0)
(0.374086 0.178412 -4.01458e-21)
(0.320487 0.247529 -2.04262e-21)
(0.252766 0.313054 3.95962e-21)
(0.172634 0.372274 2.02575e-21)
(0.0827463 0.422664 0)
(-0.0144888 0.462205 -3.95455e-21)
(-0.116892 0.488915 -3.95692e-21)
(-0.22242 0.501207 0)
(-0.329578 0.498006 -3.94429e-21)
(-0.437312 0.479242 0)
(-0.546922 0.451163 -3.88973e-21)
(-0.665881 0.438956 -1.95596e-21)
(-0.793851 0.442385 0)
(-0.921308 0.441213 0)
(-1.04673 0.434334 0)
(-1.17217 0.429887 0)
(-1.29903 0.429471 0)
(-1.42354 0.427988 0)
(-1.54479 0.425993 -3.30004e-21)
(-1.66357 0.426604 4.87918e-21)
(-1.7786 0.423933 0)
(-1.8881 0.41661 0)
(-1.99447 0.410379 0)
(-2.09894 0.401467 -1.89438e-22)
(-2.19817 0.387045 -2.90809e-21)
(-2.28961 0.36837 -5.44393e-21)
(-2.36826 0.340498 5.27276e-21)
(-2.42932 0.301045 2.46069e-21)
(-2.47301 0.254971 -2.57803e-21)
(-2.5017 0.20599 1.81203e-22)
(-2.51652 0.156329 -2.28015e-21)
(-2.51883 0.107122 0)
(-2.50977 0.0592688 -2.21785e-21)
(-2.49041 0.0138569 1.4542e-22)
(-2.46172 -0.0283109 0)
(-2.42457 -0.0666787 0)
(-2.37979 -0.100969 2.23678e-21)
(-2.32812 -0.131116 0)
(-2.27032 -0.157217 0)
(-2.20708 -0.179477 -2.27304e-21)
(-2.13907 -0.198182 -4.80901e-21)
(-2.06692 -0.213657 2.52431e-21)
(-1.99124 -0.226228 0)
(-1.91256 -0.236213 -2.63408e-21)
(-1.83139 -0.243927 0)
(-1.74821 -0.249655 -2.67192e-21)
(-1.66346 -0.253669 -2.81486e-21)
(-1.57751 -0.256248 5.68547e-21)
(-1.4907 -0.257687 2.87578e-21)
(-1.40326 -0.258279 0)
(-1.31532 -0.258316 -6.0624e-21)
(-1.22692 -0.258027 0)
(-1.13804 -0.257577 -9.47565e-21)
(-1.04867 -0.257054 -6.41584e-21)
(-0.958761 -0.256504 -6.52798e-21)
(-0.868313 -0.255967 6.63705e-21)
(-0.777304 -0.255491 -1.01361e-20)
(-0.685661 -0.255144 0)
(-0.593237 -0.254947 0)
(-0.499876 -0.254833 7.04274e-21)
(-0.405518 -0.254593 1.07253e-20)
(-0.310234 -0.253974 0)
(-0.214262 -0.252735 -3.67559e-21)
(-0.117947 -0.25074 0)
(-0.0216881 -0.24796 1.12261e-20)
(0.0741293 -0.244481 3.146e-23)
(0.169208 -0.240458 -2.99689e-23)
(0.263368 -0.236072 -7.66586e-21)
(0.356503 -0.231467 0)
(0.448556 -0.226733 7.76342e-21)
(0.539486 -0.221888 2.43383e-23)
(0.629249 -0.216901 0)
(0.71777 -0.211714 0)
(0.804935 -0.20624 0)
(0.890599 -0.200419 -7.91252e-21)
(0.974573 -0.194181 0)
(1.05666 -0.187499 0)
(1.13661 -0.180364 0)
(1.21419 -0.172787 0)
(1.28917 -0.164807 0)
(1.36133 -0.156479 -7.80271e-21)
(1.4305 -0.147884 0)
(1.49653 -0.139099 -7.71875e-21)
(1.55929 -0.130225 -7.66263e-21)
(1.61872 -0.121363 7.60124e-21)
(1.67479 -0.112605 0)
(1.72752 -0.104066 7.46559e-21)
(1.77698 -0.0957716 0)
(1.82331 -0.0877639 7.31759e-21)
(1.86661 -0.0800943 -7.24066e-21)
(1.90701 -0.0727926 -2.14789e-20)
(1.94462 -0.0658738 0)
(1.97958 -0.0593457 -2.10055e-20)
(2.01201 -0.0532136 -6.91834e-21)
(2.04202 -0.0474849 0)
(2.06975 -0.0421691 -1.35282e-20)
(2.09534 -0.037276 -1.3372e-20)
(2.11892 -0.0328124 1.98277e-20)
(2.14067 -0.0287784 0)
(2.16072 -0.0251655 6.45753e-21)
(2.17925 -0.0219567 6.38223e-21)
(2.19641 -0.0191275 1.89207e-20)
(2.21235 -0.0166475 0)
(2.2272 -0.0144838 0)
(2.24109 -0.0126036 0)
(2.25411 -0.0109762 6.01719e-21)
(2.26636 -0.00957235 0)
(2.27793 -0.008365 0)
(2.28888 -0.0073312 -5.8111e-21)
(2.29927 -0.0064496 -5.74341e-21)
(2.30915 -0.00570223 0)
(2.31858 -0.00507377 0)
(2.32758 -0.00455051 -1.10895e-20)
(2.33619 -0.00411939 0)
(2.34444 -0.00376885 1.08316e-20)
(2.35234 -0.00348787 1.07042e-20)
(2.35993 -0.00326672 0)
(2.36721 -0.00309661 0)
(2.37421 -0.00296971 -1.03308e-20)
(2.38096 -0.00287875 -2.23271e-25)
(2.38747 -0.00281672 -1.87019e-25)
(2.39375 -0.00277663 0)
(2.39984 -0.0027514 -1.96981e-20)
(2.40574 -0.00273433 0)
(2.41147 -0.00271937 0)
(2.41704 -0.00270132 0)
(2.42247 -0.00267599 9.38365e-21)
(2.42775 -0.0026403 0)
(2.43289 -0.00259217 -1.8313e-20)
(2.43789 -0.00253058 -9.04436e-21)
(2.44274 -0.00245536 0)
(2.44744 -0.00236678 -8.82246e-21)
(2.452 -0.00226572 0)
(2.45639 -0.00215323 0)
(2.46062 -0.00203039 -2.54869e-20)
(2.46467 -0.00189797 1.67765e-20)
(2.46856 -0.00175645 0)
(2.47226 -0.00160543 1.63514e-20)
(2.47578 -0.00144444 -8.07064e-21)
(2.47911 -0.00127129 0)
(2.48225 -0.00108488 0)
(2.48518 -0.000879832 0)
(2.4879 -0.000656607 -2.29719e-20)
(2.49041 -0.000402412 0)
(2.49267 -0.00012341 -7.45525e-21)
(2.4947 0.000212924 0)
(2.49642 0.000579227 0)
(2.49786 0.00106048 0)
(2.49889 0.00156191 0)
(2.49961 0.00231237 0)
(2.49968 0.0030157 0)
(2.49945 0.00429717 -1.35489e-20)
(2.49806 0.00528083 0)
(2.49655 0.00768293 -6.59249e-21)
(2.49268 0.00900899 1.95069e-20)
(2.48947 0.0139599 0)
(2.48099 0.0156696 0)
(2.47572 0.0269169 -1.24999e-20)
(2.4584 0.0295689 -1.23653e-20)
(2.45191 0.0576378 1.21986e-20)
(2.42074 0.0657158 1.20958e-20)
(0.00501962 0.0392416 8.0948e-21)
(0.0176413 -0.075038 8.04137e-21)
(0.0471281 -0.196379 5.31007e-21)
(0.0802497 -0.290087 2.61851e-21)
(0.109547 -0.34769 0)
(0.132942 -0.373935 -5.14409e-21)
(0.153019 -0.379759 2.51521e-21)
(0.172596 -0.37445 0)
(0.193723 -0.363411 2.4941e-21)
(0.216946 -0.348285 0)
(0.241581 -0.328179 -4.73815e-21)
(0.266021 -0.301087 0)
(0.288209 -0.264945 -2.30888e-21)
(0.305836 -0.218116 -4.51341e-21)
(0.316569 -0.159669 4.40947e-21)
(0.318394 -0.0895173 0)
(0.309321 -0.00851419 4.2171e-21)
(0.288221 0.0812089 0)
(0.253545 0.176724 0)
(0.205505 0.273752 4.01744e-21)
(0.144043 0.367825 0)
(0.0698521 0.454578 -1.26476e-22)
(-0.0152677 0.530321 0)
(-0.108756 0.59226 0)
(-0.208003 0.638804 1.1351e-22)
(-0.311017 0.669208 3.95969e-21)
(-0.41606 0.683129 3.84867e-21)
(-0.522285 0.680885 3.94698e-21)
(-0.63075 0.668151 0)
(-0.748767 0.661187 7.67547e-21)
(-0.875255 0.662529 0)
(-1.00108 0.659336 3.67396e-21)
(-1.12584 0.652347 0)
(-1.25128 0.644872 0)
(-1.37731 0.63736 -3.4354e-21)
(-1.50208 0.628432 0)
(-1.62432 0.619744 3.2381e-21)
(-1.74428 0.613023 1.71758e-22)
(-1.85882 0.605519 -6.22462e-21)
(-1.96692 0.594626 5.81482e-21)
(-2.07136 0.581502 0)
(-2.17135 0.568135 0)
(-2.26249 0.550673 2.35509e-21)
(-2.34006 0.519011 0)
(-2.40007 0.471604 2.62674e-21)
(-2.44341 0.414361 -2.5413e-21)
(-2.47213 0.35107 -2.46205e-21)
(-2.48783 0.284831 0)
(-2.49198 0.217745 2.33054e-21)
(-2.48558 0.151413 2.28081e-21)
(-2.46964 0.0870486 -4.08508e-21)
(-2.44498 0.0256996 2.21815e-21)
(-2.41234 -0.0317219 2.20539e-21)
(-2.37238 -0.0845717 0)
(-2.32577 -0.132393 0)
(-2.27316 -0.174995 -2.23661e-21)
(-2.21521 -0.212372 0)
(-2.15257 -0.244663 0)
(-2.08581 -0.272166 4.7046e-21)
(-2.0155 -0.295245 4.80823e-21)
(-1.94212 -0.314289 0)
(-1.8661 -0.329699 0)
(-1.78782 -0.341863 0)
(-1.70765 -0.351146 0)
(-1.62592 -0.357898 5.42454e-21)
(-1.54302 -0.362434 -5.45996e-21)
(-1.45928 -0.365118 -5.68456e-21)
(-1.37504 -0.366325 -1.15448e-20)
(-1.29052 -0.366477 0)
(-1.2058 -0.365988 7.08166e-23)
(-1.12081 -0.365205 0)
(-1.03543 -0.364346 6.30006e-21)
(-0.949517 -0.363501 6.27538e-23)
(-0.862988 -0.362673 6.52735e-21)