/*--------------------------------*- C++ -*----------------------------------*\
  =========                 |
  \\      /  F ield         | OpenFOAM: The Open Source CFD Toolbox
   \\    /   O peration     | Website:  https://openfoam.org
    \\  /    A nd           | Version:  7
     \\/     M anipulation  |
\*---------------------------------------------------------------------------*/
FoamFile
{
    version     2.0;
    format      ascii;
    class       volSymmTensorField;
    location    "0.065";
    object      UPrime2Mean;
}
// * * * * * * * * * * * * * * * * * * * * * * * * * * * * * * * * * * * * * //

dimensions      [0 2 -2 0 0 0 0];

internalField   nonuniform List<symmTensor> 
12225
(
(0.00447816 -0.000170904 0 0.000515447 0 0)
(0.0311681 -0.00137233 0 0.000245146 0 0)
(0.0453327 -0.00202952 0 0.000224637 0 0)
(0.0606566 -0.00250571 0 0.000212635 0 0)
(0.0871091 -0.00313538 0 0.000206266 0 0)
(0.126346 -0.00393655 0 0.00020387 0 0)
(0.178564 -0.00489115 0 0.000214009 0 0)
(0.243956 -0.00561857 0 0.000197017 0 0)
(0.322482 -0.00677368 0 0.00021277 0 0)
(0.413409 -0.0065103 0 0.000162574 0 0)
(0.518449 -0.00869846 0 0.000196347 0 0)
(0.629992 -0.0056044 0 0.000110656 0 0)
(0.764983 -0.0131345 0 0.000286393 0 0)
(0.895015 -0.00121714 0 0.000202244 0 0)
(1.08913 -0.0307637 0 0.00138492 0 0)
(1.27717 0.0146752 0 0.00167565 0 0)
(1.64859 -0.11727 0 0.0159301 0 0)
(2.2308 0.045287 0 0.00782801 0 0)
(0.00423683 6.21498e-05 0 0.000651478 0 0)
(0.0210194 -0.000645911 0 0.000233499 0 0)
(0.0230123 -0.00108787 0 0.000288437 0 0)
(0.0236726 -0.00136468 0 0.000393418 0 0)
(0.0280022 -0.00192427 0 0.000525231 0 0)
(0.0357937 -0.0029434 0 0.000697554 0 0)
(0.0476782 -0.00437223 0 0.000874841 0 0)
(0.0655242 -0.00638892 0 0.00111823 0 0)
(0.0897763 -0.00853806 0 0.00126068 0 0)
(0.124877 -0.0117927 0 0.00156315 0 0)
(0.168209 -0.0141569 0 0.00156339 0 0)
(0.230123 -0.019585 0 0.00201947 0 0)
(0.298953 -0.0211796 0 0.00181843 0 0)
(0.403512 -0.0328224 0 0.00297138 0 0)
(0.508739 -0.0330817 0 0.00263763 0 0)
(0.702785 -0.0672453 0 0.00747755 0 0)
(0.879347 -0.080847 0 0.00825904 0 0)
(1.27694 -0.230223 0 0.0542166 0 0)
(0.00389518 0.000102331 0 0.000874424 0 0)
(0.0205502 -0.00100568 0 0.000446579 0 0)
(0.0216702 -0.00156221 0 0.000529722 0 0)
(0.0210083 -0.00171353 0 0.000683229 0 0)
(0.0227549 -0.0020096 0 0.000879877 0 0)
(0.0256 -0.00260311 0 0.00112645 0 0)
(0.0293567 -0.00350395 0 0.00148273 0 0)
(0.0342574 -0.00462843 0 0.00182061 0 0)
(0.0409258 -0.00622838 0 0.0023414 0 0)
(0.0498674 -0.00791003 0 0.00267613 0 0)
(0.0627006 -0.0108221 0 0.003385 0 0)
(0.0798325 -0.0132155 0 0.00359347 0 0)
(0.104882 -0.0191978 0 0.0049036 0 0)
(0.138092 -0.0228528 0 0.00500419 0 0)
(0.187829 -0.0385371 0 0.00904908 0 0)
(0.254917 -0.0485967 0 0.0101361 0 0)
(0.351322 -0.0999277 0 0.0299883 0 0)
(0.474978 -0.167097 0 0.062312 0 0)
(0.004032 -0.000245 0 0.000976616 0 0)
(0.0205576 -0.0012759 0 0.000520419 0 0)
(0.0215517 -0.00173497 0 0.000594755 0 0)
(0.0207788 -0.00190672 0 0.00079885 0 0)
(0.0222227 -0.00221047 0 0.00104005 0 0)
(0.0245391 -0.00280058 0 0.00135279 0 0)
(0.0274199 -0.00363566 0 0.00173373 0 0)
(0.0309905 -0.00470825 0 0.00224373 0 0)
(0.035382 -0.00595079 0 0.00276735 0 0)
(0.0411896 -0.00764071 0 0.00347887 0 0)
(0.048762 -0.00963623 0 0.00413987 0 0)
(0.0594036 -0.0127982 0 0.00521225 0 0)
(0.0737045 -0.0166954 0 0.00628839 0 0)
(0.094487 -0.0238 0 0.00857987 0 0)
(0.122894 -0.0337905 0 0.011761 0 0)
(0.163018 -0.0531746 0 0.0196742 0 0)
(0.215005 -0.0870075 0 0.0369246 0 0)
(0.267781 -0.140541 0 0.0754206 0 0)
(0.00424704 -0.000245332 0 0.00115191 0 0)
(0.0200968 -0.00149255 0 0.00069225 0 0)
(0.0208416 -0.00196042 0 0.000766683 0 0)
(0.0201125 -0.00214097 0 0.00101796 0 0)
(0.021596 -0.00246056 0 0.0013206 0 0)
(0.0238355 -0.00307818 0 0.0016815 0 0)
(0.0265488 -0.00398276 0 0.00216766 0 0)
(0.0298502 -0.00512191 0 0.00273524 0 0)
(0.0339323 -0.00657524 0 0.00348601 0 0)
(0.0391369 -0.00832251 0 0.00428875 0 0)
(0.0459572 -0.0108081 0 0.00540044 0 0)
(0.0550412 -0.013986 0 0.00665212 0 0)
(0.0673008 -0.0189996 0 0.00871883 0 0)
(0.083969 -0.0259865 0 0.0115161 0 0)
(0.106316 -0.0378268 0 0.017011 0 0)
(0.135008 -0.0562305 0 0.0268469 0 0)
(0.168293 -0.085943 0 0.0467753 0 0)
(0.195712 -0.130715 0 0.0909898 0 0)
(0.00424777 -0.000340255 0 0.00122802 0 0)
(0.0200678 -0.00175171 0 0.00083566 0 0)
(0.020517 -0.0021184 0 0.000954846 0 0)
(0.0196323 -0.00224343 0 0.00129373 0 0)
(0.0208959 -0.0025643 0 0.00168882 0 0)
(0.0228469 -0.00320286 0 0.00214883 0 0)
(0.0252657 -0.00413655 0 0.00271513 0 0)
(0.0282687 -0.00535162 0 0.00343296 0 0)
(0.0319996 -0.00688465 0 0.00430526 0 0)
(0.036727 -0.00887026 0 0.00539145 0 0)
(0.0428718 -0.0115329 0 0.00675047 0 0)
(0.0509015 -0.0152425 0 0.0085867 0 0)
(0.0615578 -0.0205654 0 0.0112052 0 0)
(0.0753849 -0.0283875 0 0.0152605 0 0)
(0.0931936 -0.0402995 0 0.0221034 0 0)
(0.11389 -0.0579565 0 0.0340767 0 0)
(0.13578 -0.0840127 0 0.0562133 0 0)
(0.150826 -0.117176 0 0.0949275 0 0)
(0.00387337 -0.000322836 0 0.00146344 0 0)
(0.019606 -0.00192714 0 0.00113755 0 0)
(0.019923 -0.00231557 0 0.00121894 0 0)
(0.0190103 -0.00247232 0 0.00157669 0 0)
(0.0202862 -0.00284317 0 0.0020372 0 0)
(0.0221894 -0.00355528 0 0.00257626 0 0)
(0.0244629 -0.00458364 0 0.0032496 0 0)
(0.027219 -0.00590208 0 0.0040936 0 0)
(0.0306053 -0.00756905 0 0.00516402 0 0)
(0.0348592 -0.00971194 0 0.00650709 0 0)
(0.0403247 -0.0126011 0 0.0082404 0 0)
(0.047336 -0.0165883 0 0.010592 0 0)
(0.0563502 -0.02222 0 0.0139524 0 0)
(0.0675388 -0.0302824 0 0.0191142 0 0)
(0.0810778 -0.0418 0 0.0272626 0 0)
(0.0955295 -0.0580008 0 0.0409354 0 0)
(0.109252 -0.0793328 0 0.0629365 0 0)
(0.116536 -0.104242 0 0.0982579 0 0)
(0.00383224 -0.000322941 0 0.0013755 0 0)
(0.019267 -0.00212327 0 0.00116514 0 0)
(0.0195741 -0.00244963 0 0.0013997 0 0)
(0.018631 -0.00254107 0 0.00185081 0 0)
(0.0197994 -0.0029247 0 0.0024094 0 0)
(0.0215197 -0.00367376 0 0.00306164 0 0)
(0.0235362 -0.00473161 0 0.00386115 0 0)
(0.0259579 -0.00609332 0 0.00487402 0 0)
(0.0289175 -0.00783524 0 0.00616053 0 0)
(0.0326051 -0.0101007 0 0.0078035 0 0)
(0.037273 -0.0131329 0 0.00994358 0 0)
(0.04312 -0.0172556 0 0.0128552 0 0)
(0.0503776 -0.0229352 0 0.0169741 0 0)
(0.0589758 -0.0307578 0 0.0230992 0 0)
(0.0687265 -0.0414021 0 0.0323719 0 0)
(0.0782658 -0.0553628 0 0.0467904 0 0)
(0.0861959 -0.0723865 0 0.0683406 0 0)
(0.0889362 -0.0907144 0 0.100011 0 0)
(0.00438942 -0.000523882 0 0.00147355 0 0)
(0.0194153 -0.002594 0 0.00137994 0 0)
(0.019248 -0.00289323 0 0.00167057 0 0)
(0.0182236 -0.00291322 0 0.00217915 0 0)
(0.0194213 -0.00329089 0 0.00283695 0 0)
(0.021072 -0.00408311 0 0.00361781 0 0)
(0.0228907 -0.00520385 0 0.00456782 0 0)
(0.025012 -0.00662929 0 0.00576262 0 0)
(0.0275627 -0.00842923 0 0.00728211 0 0)
(0.0306855 -0.010747 0 0.00923775 0 0)
(0.0345487 -0.0138082 0 0.011791 0 0)
(0.039254 -0.0179036 0 0.0152564 0 0)
(0.0448684 -0.0233883 0 0.020069 0 0)
(0.0511677 -0.0306582 0 0.0270094 0 0)
(0.0578025 -0.0400463 0 0.0370303 0 0)
(0.0636026 -0.051603 0 0.0516967 0 0)
(0.0676123 -0.0647406 0 0.0722305 0 0)
(0.0676088 -0.0778157 0 0.10028 0 0)
(0.00406938 -0.00052296 0 0.00167587 0 0)
(0.0192488 -0.00268637 0 0.0015141 0 0)
(0.0190748 -0.00294511 0 0.00184366 0 0)
(0.0179946 -0.00290726 0 0.00240406 0 0)
(0.0190429 -0.00325789 0 0.00313428 0 0)
(0.0204738 -0.00404213 0 0.00401985 0 0)
(0.0220114 -0.00515107 0 0.00510448 0 0)
(0.0237762 -0.00655869 0 0.00647063 0 0)
(0.02588 -0.00834142 0 0.00821731 0 0)
(0.0284358 -0.0106368 0 0.0104784 0 0)
(0.0315432 -0.0136333 0 0.0134319 0 0)
(0.0352023 -0.0175489 0 0.017396 0 0)
(0.03935 -0.0226265 0 0.0227924 0 0)
(0.0436803 -0.0290756 0 0.0303185 0 0)
(0.0478191 -0.0369903 0 0.0407301 0 0)
(0.050853 -0.0461558 0 0.0551835 0 0)
(0.0522419 -0.0559084 0 0.0743309 0 0)
(0.0506066 -0.0648892 0 0.099134 0 0)
(0.00415604 -0.000638027 0 0.00192311 0 0)
(0.0190863 -0.00304751 0 0.00184393 0 0)
(0.0184672 -0.00334592 0 0.00219474 0 0)
(0.0171049 -0.00322089 0 0.00282332 0 0)
(0.0179713 -0.00351994 0 0.00365403 0 0)
(0.0192242 -0.00428114 0 0.00467399 0 0)
(0.020559 -0.0053625 0 0.00592124 0 0)
(0.022077 -0.00672311 0 0.0074822 0 0)
(0.0238493 -0.00842776 0 0.00946128 0 0)
(0.025926 -0.0106003 0 0.0120133 0 0)
(0.0283402 -0.0133973 0 0.0153304 0 0)
(0.031036 -0.016971 0 0.0197199 0 0)
(0.0339019 -0.0214612 0 0.0255583 0 0)
(0.0366352 -0.026928 0 0.0334322 0 0)
(0.038926 -0.0333146 0 0.0439017 0 0)
(0.0401097 -0.0402758 0 0.0577833 0 0)
(0.0399598 -0.0472143 0 0.0753486 0 0)
(0.0376006 -0.0530518 0 0.0971597 0 0)
(0.00398663 -0.00053737 0 0.00196851 0 0)
(0.0189949 -0.00306393 0 0.00196151 0 0)
(0.0184548 -0.00342729 0 0.00233001 0 0)
(0.0170598 -0.00329168 0 0.00300406 0 0)
(0.017803 -0.00357542 0 0.00390679 0 0)
(0.0188754 -0.00433313 0 0.00504052 0 0)
(0.0199825 -0.00540368 0 0.0064359 0 0)
(0.0212142 -0.00672624 0 0.00816696 0 0)
(0.0226188 -0.00835323 0 0.0103523 0 0)
(0.0242153 -0.010388 0 0.0131539 0 0)
(0.025991 -0.0129512 0 0.0167607 0 0)
(0.0278483 -0.0161354 0 0.0214589 0 0)
(0.0296554 -0.0200014 0 0.0275706 0 0)
(0.0311614 -0.0245117 0 0.0355801 0 0)
(0.0321465 -0.0295255 0 0.0458782 0 0)
(0.0321662 -0.0346641 0 0.0590429 0 0)
(0.0311829 -0.0394251 0 0.0751054 0 0)
(0.0286046 -0.0429714 0 0.0944405 0 0)
(0.00390281 -0.000744947 0 0.00229992 0 0)
(0.0188814 -0.00324576 0 0.00233585 0 0)
(0.0181962 -0.00351161 0 0.00267628 0 0)
(0.0166992 -0.00326423 0 0.00338595 0 0)
(0.0173071 -0.00346591 0 0.00435656 0 0)
(0.0182084 -0.00416211 0 0.00558508 0 0)
(0.0191133 -0.00516353 0 0.0071064 0 0)
(0.0200951 -0.00638326 0 0.00899495 0 0)
(0.0211707 -0.00785416 0 0.011363 0 0)
(0.0223336 -0.009659 0 0.0143651 0 0)
(0.0235522 -0.0118836 0 0.0181836 0 0)
(0.0247323 -0.0145741 0 0.0230764 0 0)
(0.0257459 -0.0177308 0 0.0293064 0 0)
(0.0263927 -0.0212622 0 0.0372583 0 0)
(0.0265137 -0.0249848 0 0.0471835 0 0)
(0.0258348 -0.0285476 0 0.0594941 0 0)
(0.0244115 -0.0315251 0 0.0740774 0 0)
(0.0218755 -0.0333137 0 0.0912118 0 0)
(0.00399629 -0.000753631 0 0.00271494 0 0)
(0.0187346 -0.00337836 0 0.00279599 0 0)
(0.0178861 -0.00355082 0 0.00316382 0 0)
(0.0163001 -0.00316762 0 0.00391825 0 0)
(0.0167549 -0.00323499 0 0.00496009 0 0)
(0.0174215 -0.00380967 0 0.0062875 0 0)
(0.0180205 -0.00467531 0 0.00793058 0 0)
(0.0186219 -0.00570964 0 0.00996167 0 0)
(0.0192331 -0.00691643 0 0.0124879 0 0)
(0.0198484 -0.00835417 0 0.015659 0 0)
(0.0204494 -0.0100845 0 0.0196361 0 0)
(0.0209636 -0.012114 0 0.0246369 0 0)
(0.0212854 -0.0143965 0 0.0308582 0 0)
(0.0212641 -0.016792 0 0.0385842 0 0)
(0.0207995 -0.0191131 0 0.0479415 0 0)
(0.0197417 -0.0210413 0 0.0592058 0 0)
(0.0182235 -0.0222843 0 0.072158 0 0)
(0.0159946 -0.0223861 0 0.0870262 0 0)
(0.00412525 -0.000568269 0 0.00272411 0 0)
(0.018689 -0.00369081 0 0.00305345 0 0)
(0.0176402 -0.00395426 0 0.00356054 0 0)
(0.0158653 -0.00356263 0 0.00443225 0 0)
(0.0161944 -0.00357652 0 0.00557449 0 0)
(0.0167271 -0.00404471 0 0.00699606 0 0)
(0.0171326 -0.0047575 0 0.0087461 0 0)
(0.0174632 -0.00559192 0 0.0108997 0 0)
(0.0177321 -0.00653988 0 0.0135503 0 0)
(0.017947 -0.00763329 0 0.0168201 0 0)
(0.0180955 -0.00889096 0 0.0208387 0 0)
(0.0181197 -0.0102712 0 0.0257773 0 0)
(0.0179406 -0.0116937 0 0.0317642 0 0)
(0.0174729 -0.013001 0 0.0389905 0 0)
(0.0166899 -0.0140378 0 0.0474785 0 0)
(0.0155441 -0.0145449 0 0.057413 0 0)
(0.014205 -0.0143611 0 0.0685219 0 0)
(0.0125086 -0.0131448 0 0.0810213 0 0)
(0.00427118 -0.000537988 0 0.00292403 0 0)
(0.0186445 -0.00371417 0 0.00301102 0 0)
(0.0173711 -0.00399312 0 0.00348015 0 0)
(0.0154002 -0.00349925 0 0.00440789 0 0)
(0.0154701 -0.00339921 0 0.00562419 0 0)
(0.0157077 -0.00376151 0 0.00712904 0 0)
(0.0158651 -0.00433044 0 0.00896213 0 0)
(0.0160003 -0.00493851 0 0.0111857 0 0)
(0.016067 -0.00554733 0 0.0138768 0 0)
(0.0160105 -0.00617161 0 0.0171347 0 0)
(0.0158068 -0.006821 0 0.0210548 0 0)
(0.0154404 -0.00744507 0 0.0257582 0 0)
(0.0149058 -0.00796222 0 0.0313093 0 0)
(0.014203 -0.00822516 0 0.0378249 0 0)
(0.0133638 -0.00812178 0 0.0452588 0 0)
(0.0124085 -0.00745022 0 0.0537317 0 0)
(0.0114891 -0.00615303 0 0.0629663 0 0)
(0.0104873 -0.00396868 0 0.0731775 0 0)
(0.00414394 -0.000521374 0 0.00303083 0 0)
(0.0188703 -0.00384757 0 0.00313213 0 0)
(0.0173766 -0.00424554 0 0.00369238 0 0)
(0.0151468 -0.00371015 0 0.00470787 0 0)
(0.0150328 -0.00349704 0 0.00596388 0 0)
(0.0150953 -0.00371695 0 0.00748742 0 0)
(0.0150383 -0.0040955 0 0.0093136 0 0)
(0.0149257 -0.00443319 0 0.0114844 0 0)
(0.0147444 -0.00467249 0 0.0140581 0 0)
(0.0144713 -0.0048243 0 0.0171095 0 0)
(0.0140989 -0.00490078 0 0.0206984 0 0)
(0.0136299 -0.00485813 0 0.0248997 0 0)
(0.0130746 -0.00462495 0 0.0297298 0 0)
(0.0124671 -0.00407681 0 0.0352535 0 0)
(0.0118525 -0.00313516 0 0.0413866 0 0)
(0.0112929 -0.00165617 0 0.0482165 0 0)
(0.0109065 0.000357473 0 0.0554756 0 0)
(0.0106353 0.0030953 0 0.0633854 0 0)
(0.00408026 -0.000543517 0 0.0031422 0 0)
(0.0188138 -0.00398262 0 0.00343212 0 0)
(0.0173281 -0.00428446 0 0.00376199 0 0)
(0.0149548 -0.00375078 0 0.00457087 0 0)
(0.0145677 -0.00353841 0 0.00569345 0 0)
(0.0142889 -0.00363104 0 0.00708366 0 0)
(0.0139068 -0.00375704 0 0.00873909 0 0)
(0.0135385 -0.00376242 0 0.01068 0 0)
(0.0131924 -0.00361353 0 0.0129399 0 0)
(0.0128515 -0.0033181 0 0.0155656 0 0)
(0.0125068 -0.00287219 0 0.0185885 0 0)
(0.0121615 -0.0022315 0 0.0220482 0 0)
(0.0118287 -0.0013379 0 0.0259353 0 0)
(0.0115553 -0.000110689 0 0.030283 0 0)
(0.0113908 0.00149235 0 0.0350048 0 0)
(0.0114091 0.00354759 0 0.0401704 0 0)
(0.0116979 0.00603239 0 0.0455621 0 0)
(0.0122326 0.00904956 0 0.0513684 0 0)
(0.00404821 -0.000304519 0 0.00302777 0 0)
(0.0188724 -0.003654 0 0.00314723 0 0)
(0.0169219 -0.00382913 0 0.00336532 0 0)
(0.0143131 -0.00304818 0 0.00407815 0 0)
(0.0138468 -0.00252484 0 0.0050381 0 0)
(0.0134628 -0.00230662 0 0.00619175 0 0)
(0.0129955 -0.00213132 0 0.00754948 0 0)
(0.01262 -0.00182595 0 0.00912689 0 0)
(0.0123553 -0.00132727 0 0.0109312 0 0)
(0.0121796 -0.00062432 0 0.0129717 0 0)
(0.0120866 0.000283276 0 0.0152496 0 0)
(0.0120911 0.00141477 0 0.0177808 0 0)
(0.0122204 0.00279321 0 0.0205492 0 0)
(0.0125331 0.00445969 0 0.0235733 0 0)
(0.0130747 0.0064223 0 0.0267853 0 0)
(0.0139136 0.00872511 0 0.0302391 0 0)
(0.0151009 0.0113278 0 0.0337789 0 0)
(0.0166309 0.0143053 0 0.0375502 0 0)
(0.00440331 -0.000610619 0 0.00346582 0 0)
(0.0183336 -0.00338691 0 0.00333791 0 0)
(0.0161367 -0.00333007 0 0.00335295 0 0)
(0.0135279 -0.00253124 0 0.00387838 0 0)
(0.0129727 -0.00194614 0 0.00459599 0 0)
(0.0125287 -0.00160734 0 0.00544724 0 0)
(0.0120593 -0.00130194 0 0.0064459 0 0)
(0.0117231 -0.000868204 0 0.00759746 0 0)
(0.0115341 -0.000233165 0 0.00889808 0 0)
(0.0114844 0.00061729 0 0.0103498 0 0)
(0.0115883 0.00167515 0 0.0119508 0 0)
(0.0118774 0.00293973 0 0.0137066 0 0)
(0.0123852 0.00441315 0 0.0156022 0 0)
(0.013161 0.00611344 0 0.0176491 0 0)
(0.0142415 0.0080369 0 0.0197983 0 0)
(0.0156701 0.0102072 0 0.0220873 0 0)
(0.0174774 0.0125879 0 0.0244125 0 0)
(0.0196521 0.0152273 0 0.0268638 0 0)
(0.00426801 -0.000523143 0 0.00312692 0 0)
(0.0183183 -0.00298627 0 0.00291313 0 0)
(0.0161256 -0.00277042 0 0.00278633 0 0)
(0.0135325 -0.00191195 0 0.00308624 0 0)
(0.0129707 -0.00128282 0 0.00358028 0 0)
(0.0125146 -0.000878254 0 0.00420128 0 0)
(0.0120816 -0.000493624 0 0.00491557 0 0)
(0.0118487 1.40837e-05 0 0.00570649 0 0)
(0.0118212 0.000702311 0 0.00657247 0 0)
(0.0119792 0.00157651 0 0.00752346 0 0)
(0.0123413 0.00262355 0 0.00856464 0 0)
(0.0129504 0.00383808 0 0.009703 0 0)
(0.0138446 0.00521798 0 0.0109275 0 0)
(0.015063 0.00677469 0 0.0122455 0 0)
(0.0166267 0.00850132 0 0.0136236 0 0)
(0.0185636 0.0104149 0 0.0150876 0 0)
(0.0208901 0.0124834 0 0.0165706 0 0)
(0.0235973 0.0147491 0 0.018136 0 0)
(0.00413575 -0.000334006 0 0.00292296 0 0)
(0.0183184 -0.00265643 0 0.00227194 0 0)
(0.0160138 -0.00260475 0 0.0021221 0 0)
(0.0132897 -0.00184764 0 0.00237477 0 0)
(0.0126378 -0.00122817 0 0.00276966 0 0)
(0.0121349 -0.000817624 0 0.00325349 0 0)
(0.0116879 -0.000448131 0 0.0038017 0 0)
(0.0114654 2.52427e-05 0 0.00440884 0 0)
(0.0114836 0.000671804 0 0.00507725 0 0)
(0.01174 0.00149987 0 0.00581022 0 0)
(0.0122565 0.00248919 0 0.00660305 0 0)
(0.0130674 0.00362216 0 0.00745354 0 0)
(0.0142026 0.00488843 0 0.00835056 0 0)
(0.0156979 0.00629219 0 0.00929864 0 0)
(0.0175728 0.00782879 0 0.0102741 0 0)
(0.0198523 0.00951083 0 0.0112976 0 0)
(0.0225481 0.0113093 0 0.0123209 0 0)
(0.0256478 0.0132532 0 0.0133867 0 0)
(0.00424422 -0.000486406 0 0.0025032 0 0)
(0.0177627 -0.00238579 0 0.00209672 0 0)
(0.0154538 -0.0021244 0 0.0018765 0 0)
(0.0128206 -0.0013425 0 0.0019074 0 0)
(0.0122071 -0.000751593 0 0.00207791 0 0)
(0.0117101 -0.000365112 0 0.00232601 0 0)
(0.0112921 -2.34659e-05 0 0.00261079 0 0)
(0.0111694 0.000396693 0 0.00292089 0 0)
(0.0113648 0.000949973 0 0.00326737 0 0)
(0.0118543 0.00164131 0 0.00366301 0 0)
(0.0126446 0.0024552 0 0.00410768 0 0)
(0.0137611 0.00337719 0 0.00459629 0 0)
(0.0152285 0.00439999 0 0.00511857 0 0)
(0.0170725 0.00552606 0 0.0056764 0 0)
(0.0193139 0.00675044 0 0.00625475 0 0)
(0.0219632 0.00807954 0 0.00686812 0 0)
(0.0250397 0.00949622 0 0.00748636 0 0)
(0.0285056 0.0110158 0 0.00813511 0 0)
(0.00450371 -0.000663574 0 0.00219965 0 0)
(0.0177127 -0.00218457 0 0.00174612 0 0)
(0.0148814 -0.00166006 0 0.0015705 0 0)
(0.012217 -0.00080995 0 0.00164322 0 0)
(0.0118594 -0.000201509 0 0.00180739 0 0)
(0.0116327 0.000196258 0 0.00201465 0 0)
(0.011448 0.00055261 0 0.00223996 0 0)
(0.0115655 0.000987314 0 0.00248143 0 0)
(0.0120556 0.00154787 0 0.00274454 0 0)
(0.0129086 0.0022295 0 0.00303194 0 0)
(0.0141191 0.00301061 0 0.00334022 0 0)
(0.0156981 0.00387481 0 0.00366832 0 0)
(0.0176635 0.00481442 0 0.00401366 0 0)
(0.0200371 0.00583356 0 0.00438038 0 0)
(0.0228289 0.0069265 0 0.00475843 0 0)
(0.0260427 0.00809869 0 0.00516088 0 0)
(0.0296836 0.00933045 0 0.00556638 0 0)
(0.0337219 0.0106411 0 0.00598614 0 0)
(0.00483917 -0.000499111 0 0.00206478 0 0)
(0.0176993 -0.00190057 0 0.00137255 0 0)
(0.0146938 -0.00147013 0 0.00104515 0 0)
(0.0120029 -0.000819668 0 0.00102163 0 0)
(0.0116085 -0.000364153 0 0.00107955 0 0)
(0.0113178 -8.38114e-05 0 0.00113816 0 0)
(0.0110966 0.000142647 0 0.00120115 0 0)
(0.0112372 0.000414096 0 0.0012938 0 0)
(0.0117919 0.000778735 0 0.00142257 0 0)
(0.0127246 0.00123736 0 0.00157689 0 0)
(0.014027 0.00176919 0 0.00174394 0 0)
(0.0157204 0.00236103 0 0.00192025 0 0)
(0.0178334 0.00300923 0 0.00210664 0 0)
(0.0203838 0.00371634 0 0.00230742 0 0)
(0.0233768 0.00447926 0 0.00251756 0 0)
(0.0268004 0.00529887 0 0.00274311 0 0)
(0.0306576 0.00616047 0 0.00297168 0 0)
(0.0348982 0.00707921 0 0.00321092 0 0)
(0.00453436 -0.000418961 0 0.00195705 0 0)
(0.0172694 -0.0014449 0 0.00115178 0 0)
(0.0140141 -0.00117791 0 0.000817408 0 0)
(0.0114272 -0.000605997 0 0.000838515 0 0)
(0.0112123 -0.000126006 0 0.000894478 0 0)
(0.011117 0.000190158 0 0.000930736 0 0)
(0.0111848 0.000442889 0 0.000960763 0 0)
(0.0117135 0.000719435 0 0.00100074 0 0)
(0.0127136 0.0010576 0 0.00105536 0 0)
(0.014109 0.00146055 0 0.0011234 0 0)
(0.0158817 0.00191873 0 0.00120258 0 0)
(0.0180662 0.00242546 0 0.00129189 0 0)
(0.0207003 0.00297654 0 0.00139061 0 0)
(0.0238011 0.00357121 0 0.00150119 0 0)
(0.0273689 0.00420388 0 0.00162084 0 0)
(0.0313853 0.00487635 0 0.00175415 0 0)
(0.0358574 0.00557628 0 0.00189397 0 0)
(0.0407309 0.00631731 0 0.00204505 0 0)
(0.00372003 -0.000440015 0 0.00154119 0 0)
(0.0164791 -0.000766143 0 0.000701753 0 0)
(0.0133537 -0.000477618 0 0.000398805 0 0)
(0.0110761 -0.000174759 0 0.000371699 0 0)
(0.011077 6.59514e-05 0 0.000367377 0 0)
(0.0111439 0.000198539 0 0.000367358 0 0)
(0.0113661 0.000290635 0 0.000383928 0 0)
(0.0120614 0.000404751 0 0.000411632 0 0)
(0.0132616 0.000563164 0 0.00044336 0 0)
(0.0149066 0.00076452 0 0.000477036 0 0)
(0.0169848 0.00100254 0 0.000513857 0 0)
(0.0195261 0.00127148 0 0.000555728 0 0)
(0.0225581 0.00156777 0 0.000603334 0 0)
(0.026082 0.00189084 0 0.000658183 0 0)
(0.0300837 0.00223735 0 0.000719346 0 0)
(0.03453 0.00260923 0 0.000789417 0 0)
(0.0394235 0.00299727 0 0.000865317 0 0)
(0.0447021 0.00341198 0 0.000948606 0 0)
(0.00474886 -0.00048306 0 0.00114895 0 0)
(0.0163669 -0.000962307 0 0.000494494 0 0)
(0.0127805 -0.000716841 0 0.000370834 0 0)
(0.010758 -0.000312925 0 0.00035138 0 0)
(0.0109721 -3.12682e-05 0 0.000310289 0 0)
(0.0112432 0.000129225 0 0.000269631 0 0)
(0.0118403 0.00025381 0 0.000248523 0 0)
(0.0130679 0.000378688 0 0.000242095 0 0)
(0.0148665 0.000505478 0 0.000243627 0 0)
(0.0171191 0.000637059 0 0.000249961 0 0)
(0.0198005 0.000782002 0 0.000260852 0 0)
(0.0229461 0.000947572 0 0.000277338 0 0)
(0.0265859 0.0011372 0 0.000300357 0 0)
(0.0307264 0.00135047 0 0.000330402 0 0)
(0.0353454 0.00158302 0 0.000366928 0 0)
(0.040419 0.00183031 0 0.000411454 0 0)
(0.0459385 0.0020851 0 0.000462743 0 0)
(0.0518579 0.00235131 0 0.000520552 0 0)
(0.003674 -0.000175189 0 0.000869686 0 0)
(0.0151267 7.55006e-05 0 0.000220579 0 0)
(0.0116643 -2.43927e-05 0 0.000147757 0 0)
(0.00992971 1.63696e-05 0 0.000138363 0 0)
(0.0104327 6.44766e-06 0 0.000140931 0 0)
(0.0110003 -4.68571e-05 0 0.000145816 0 0)
(0.0118536 -0.00011096 0 0.000150565 0 0)
(0.013244 -0.000172968 0 0.000156027 0 0)
(0.0150778 -0.000229012 0 0.000164412 0 0)
(0.0172251 -0.000274557 0 0.000175681 0 0)
(0.019646 -0.000303638 0 0.000188476 0 0)
(0.0223769 -0.000312746 0 0.000202272 0 0)
(0.0254385 -0.000299576 0 0.000217448 0 0)
(0.0288685 -0.000262715 0 0.000234897 0 0)
(0.0326334 -0.000201064 0 0.000254661 0 0)
(0.0367779 -0.000115466 0 0.000278161 0 0)
(0.0412365 -7.22183e-06 0 0.000305433 0 0)
(0.046108 0.000125053 0 0.000335414 0 0)
(0.00411637 -0.000311039 0 0.000746639 0 0)
(0.0162522 -3.95699e-05 0 0.000228426 0 0)
(0.0142064 2.44292e-05 0 0.000137639 0 0)
(0.0135019 0.000103248 0 9.99068e-05 0 0)
(0.0146934 0.000125315 0 7.88617e-05 0 0)
(0.0158125 0.00014104 0 6.59464e-05 0 0)
(0.016928 0.000164014 0 5.74444e-05 0 0)
(0.0183037 0.000189551 0 5.22002e-05 0 0)
(0.0200345 0.000213438 0 4.94386e-05 0 0)
(0.0221502 0.000236202 0 4.86662e-05 0 0)
(0.0246643 0.000262313 0 4.95704e-05 0 0)
(0.0275907 0.000297646 0 5.18298e-05 0 0)
(0.0309658 0.000347172 0 5.505e-05 0 0)
(0.0348469 0.000412524 0 5.8881e-05 0 0)
(0.0393156 0.000491457 0 6.3303e-05 0 0)
(0.0443954 0.000580545 0 6.86763e-05 0 0)
(0.0501714 0.000677009 0 7.447e-05 0 0)
(0.0565652 0.000783698 0 8.00427e-05 0 0)
(0.00124196 -0.00302401 1.27294e-22 0.00748281 -2.59226e-22 1.44251e-37)
(0.0137196 -0.010384 -3.46004e-22 0.00806408 2.02753e-22 1.42233e-37)
(0.0354126 -0.0136782 0 0.00615981 0 0)
(0.056617 -0.0130311 0 0.00499563 0 0)
(0.07619 -0.012498 0 0.00553614 0 0)
(0.0992897 -0.0150833 7.88174e-22 0.00709939 -5.89731e-23 1.33972e-37)
(0.132662 -0.021268 0 0.00854392 0 0)
(0.182338 -0.0297587 0 0.00930441 0 0)
(0.251096 -0.0388675 0 0.00937882 0 0)
(0.33907 -0.0473725 0 0.0089259 0 0)
(0.444497 -0.0544952 -1.07315e-21 0.0081682 6.32418e-23 1.24094e-37)
(0.564481 -0.0597728 0 0.00726846 0 0)
(0.695323 -0.0629167 0 0.00631543 0 0)
(0.832725 -0.0636973 0 0.00535005 0 0)
(0.97169 -0.0618964 0 0.00439817 0 0)
(1.10673 -0.057355 -1.47055e-21 0.00350038 1.19547e-22 1.14701e-37)
(1.23186 -0.0500284 0 0.00272108 0 0)
(1.34144 -0.0400605 0 0.00215385 0 0)
(1.4304 -0.0278359 0 0.00191031 0 0)
(1.49287 -0.0141267 0 0.0021003 0 0)
(1.5268 -0.000125231 0 0.00278761 0 0)
(1.53197 0.0127287 0 0.00394661 0 0)
(1.51178 0.0229877 0 0.00544852 0 0)
(1.47218 0.0294292 -3.07519e-21 0.00707685 2.79673e-22 1.00665e-37)
(1.42082 0.0313394 3.37027e-21 0.00859261 -2.87861e-22 9.89958e-38)
(1.36543 0.0283316 -3.67283e-21 0.0098437 2.88952e-22 9.73458e-38)
(1.31411 0.0208993 -3.97597e-21 0.0109902 2.84016e-22 9.57148e-38)
(1.27403 0.00895232 0 0.0125205 0 0)
(1.25208 -0.00740038 0 0.0160311 0 0)
(1.25442 -0.0304956 4.81915e-21 0.0222118 -2.1622e-22 9.09352e-38)
(1.2927 -0.0622556 5.05359e-21 0.0315916 -1.6915e-22 8.93797e-38)
(1.37473 -0.0982787 0 0.0415196 0 0)
(1.49681 -0.131524 0 0.0472339 0 0)
(1.64659 -0.152069 5.63802e-21 0.0487376 -9.47511e-23 8.4826e-38)
(1.81697 -0.156371 0 0.0485676 0 0)
(2.00772 -0.158429 0 0.0502088 0 0)
(2.22331 -0.170357 -6.21138e-21 0.0531846 1.4553e-22 8.04411e-38)
(2.4576 -0.182396 0 0.0559285 0 0)
(2.71051 -0.178444 -6.61105e-21 0.0553448 1.61993e-22 7.76112e-38)
(2.97188 -0.173222 -1.36426e-20 0.0586367 3.59605e-22 3.04896e-37)
(3.23858 -0.178957 0 0.0548523 0 0)
(3.50713 -0.170188 0 0.0485287 0 0)
(3.76067 -0.152714 0 0.0458985 0 0)
(3.99915 -0.152984 0 0.0446248 0 0)
(4.23201 -0.163059 0 0.0416007 0 0)
(4.45763 -0.154637 -1.6114e-20 0.0410164 3.24242e-22 2.7315e-37)
(4.65365 -0.144493 -1.64546e-20 0.0414116 3.08219e-22 2.68113e-37)
(4.82743 -0.135007 -1.67584e-20 0.0355272 2.80316e-22 2.63147e-37)
(4.97887 -0.106285 0 0.0282693 0 0)
(5.10106 -0.0729384 1.72465e-20 0.0222959 -2.59651e-22 2.53429e-37)
(5.20605 -0.0538654 0 0.0201637 0 0)
(5.31294 -0.0510364 -1.75721e-20 0.019109 2.17288e-22 2.43991e-37)
(5.4327 -0.0533635 -1.76612e-20 0.0173612 1.87361e-22 2.39376e-37)
(5.56145 -0.0555048 0 0.0152975 0 0)
(5.69487 -0.0561178 0 0.013144 0 0)
(5.82761 -0.0548995 0 0.0111208 0 0)
(5.95498 -0.052001 -1.75909e-20 0.00933483 8.47632e-23 2.21596e-37)
(6.0728 -0.0478624 0 0.00781963 0 0)
(6.1789 -0.0428741 0 0.0065563 0 0)
(6.27119 -0.0374083 0 0.00551434 0 0)
(6.34874 -0.0317533 0 0.00465642 0 0)
(6.41128 -0.0261426 0 0.00395014 0 0)
(6.45884 -0.0206902 0 0.0033652 0 0)
(6.49179 -0.0154664 0 0.00287862 0 0)
(6.51037 -0.010483 0 0.00247143 0 0)
(6.51515 -0.00574754 1.58129e-20 0.0021302 2.80982e-23 1.85406e-37)
(6.50646 -0.00122968 0 0.00184375 0 0)
(6.4846 0.00308644 0 0.00160494 0 0)
(6.44972 0.00721214 -1.49444e-20 0.00140876 -4.28128e-23 1.74456e-37)
(6.40201 0.0111554 -1.4637e-20 0.00125132 -4.64164e-23 1.70924e-37)
(6.34175 0.0149191 0 0.00112907 0 0)
(6.26915 0.0185165 1.40013e-20 0.00103767 5.2181e-23 1.64033e-37)
(6.18446 0.0219648 -1.36748e-20 0.000972065 -5.44792e-23 1.60672e-37)
(6.08782 0.0252814 0 0.000926972 0 0)
(5.97934 0.0284942 1.30083e-20 0.000897003 5.82484e-23 1.54118e-37)
(5.85898 0.0316399 0 0.000878256 0 0)
(5.72666 0.0347303 0 0.000869748 0 0)
(5.58234 0.0377505 -1.19846e-20 0.000871969 -6.25997e-23 1.44692e-37)
(5.42618 0.040636 0 0.000886071 0 0)
(5.25868 0.0432973 1.12937e-20 0.000910834 6.45227e-23 1.38672e-37)
(5.08069 0.0456523 0 0.000942646 0 0)
(4.89335 0.0476399 -1.06051e-20 0.000976048 -6.50742e-23 1.32855e-37)
(4.69796 0.0492448 -1.02648e-20 0.00100492 -6.47602e-23 1.30021e-37)
(4.49581 0.0504936 -9.9289e-21 0.00102526 -6.4083e-23 1.27237e-37)
(4.28802 0.0514459 -1.91965e-20 0.00103628 -1.26195e-22 4.98001e-37)
(4.07548 0.0521673 1.85474e-20 0.00104043 1.23722e-22 4.87246e-37)
(3.85884 0.0527062 0 0.00104195 0 0)
(3.63868 0.0530769 0 0.00104495 0 0)
(3.41568 0.0532642 0 0.00105247 0 0)
(3.19067 0.0532245 1.60981e-20 0.00106588 1.10397e-22 4.46079e-37)
(2.9647 0.0528953 1.55293e-20 0.00108406 1.06275e-22 4.36237e-37)
(2.73912 0.0522135 -1.49812e-20 0.00110484 -1.018e-22 4.2657e-37)
(2.51552 0.0511266 0 0.00112511 0 0)
(2.29568 0.0495962 1.39532e-20 0.00114082 9.17532e-23 4.07751e-37)
(2.08154 0.0476179 1.34763e-20 0.00114858 8.62304e-23 3.98594e-37)
(1.87502 0.0452068 1.30256e-20 0.00114481 8.04444e-23 3.89601e-37)
(1.67802 0.0424065 0 0.00112679 0 0)
(1.49223 0.0392948 0 0.00109374 0 0)
(1.31901 0.0359414 0 0.00104441 0 0)
(1.15931 0.0324638 1.14895e-20 0.000981642 5.63495e-23 3.55231e-37)
(1.01373 0.0289355 0 0.000906293 0 0)
(0.882478 0.0254724 0 0.000823299 0 0)
(0.765424 0.0221339 -1.05944e-20 0.000734989 -3.95244e-23 3.31067e-37)
(0.662113 0.0189982 0 0.000645899 0 0)
(0.571826 0.0160998 0 0.000558411 0 0)
(0.493677 0.0134733 -9.87365e-21 0.000475465 -2.52302e-23 3.08217e-37)
(0.42669 0.0111339 0 0.000398999 0 0)
(0.369737 0.0090781 0 0.000330037 0 0)
(0.321661 0.00727214 9.28425e-21 0.000267596 1.38106e-23 2.86621e-37)
(0.28142 0.00571419 9.11071e-21 0.000212928 1.06014e-23 2.79691e-37)
(0.248068 0.00438332 0 0.000165836 0 0)
(0.220702 0.00325793 -8.79199e-21 0.000126023 -5.02539e-24 2.66221e-37)
(0.198492 0.00231651 0 9.30887e-05 0 0)
(0.180683 0.00153849 8.50581e-21 6.65792e-05 5.0013e-25 2.53259e-37)
(0.166594 0.00090434 0 4.59949e-05 0 0)
(0.155614 0.000395099 8.24677e-21 3.07538e-05 -3.03636e-24 2.40788e-37)
(0.147206 -7.68419e-06 8.12594e-21 2.01795e-05 -4.44983e-24 2.34731e-37)
(0.140903 -0.000321696 0 1.35164e-05 0 0)
(0.13631 -0.00056397 0 9.93434e-06 0 0)
(0.133104 -0.000749841 0 8.63564e-06 0 0)
(0.131025 -0.000892732 0 8.9125e-06 0 0)
(0.129866 -0.00100335 0 1.01443e-05 0 0)
(0.129466 -0.00108884 0 1.18733e-05 0 0)
(0.129696 -0.00115494 0 1.3785e-05 0 0)
(0.130461 -0.00120626 7.30047e-21 1.56839e-05 -8.97075e-24 1.9034e-37)
(0.131678 -0.00124322 -7.20879e-21 1.73695e-05 8.9418e-24 1.85271e-37)
(0.133267 -0.00126485 0 1.86095e-05 0 0)
(0.135166 -0.00127222 0 1.9284e-05 0 0)
(0.137315 -0.00126643 0 1.9361e-05 0 0)
(0.139659 -0.00124843 0 1.88645e-05 0 0)
(0.142147 -0.00121943 -1.35359e-20 1.78763e-05 1.5006e-23 6.4566e-37)
(0.144733 -0.00118095 0 1.65252e-05 0 0)
(0.147374 -0.00113471 1.31924e-20 1.49554e-05 -1.31955e-23 6.10144e-37)
(0.150031 -0.00108243 -1.30215e-20 1.32966e-05 1.22659e-23 5.9293e-37)
(0.152666 -0.00102572 0 1.16486e-05 0 0)
(0.15525 -0.000965991 0 1.00782e-05 0 0)
(0.157755 -0.000904416 0 8.623e-06 0 0)
(0.160158 -0.000841931 1.23409e-20 7.29999e-06 -8.80614e-24 5.27568e-37)
(0.162439 -0.000779347 1.21711e-20 6.11485e-06 -8.04902e-24 5.12072e-37)
(0.164583 -0.00071742 0 5.06778e-06 0 0)
(0.166578 -0.000656889 1.18319e-20 4.15611e-06 -6.68678e-24 4.82058e-37)
(0.168417 -0.000598451 1.16626e-20 3.37456e-06 -6.08414e-24 4.67528e-37)
(0.170098 -0.000542712 -1.14934e-20 2.71494e-06 5.53291e-24 4.5331e-37)
(0.171623 -0.000490138 0 2.16629e-06 0 0)
(0.172995 -0.000441033 0 1.71575e-06 0 0)
(0.174224 -0.000395541 -1.09876e-20 1.34974e-06 4.1724e-24 4.12474e-37)
(0.175319 -0.000353696 0 1.05517e-06 0 0)
(0.176293 -0.000315422 0 8.19936e-07 0 0)
(0.177158 -0.000280596 0 6.33484e-07 0 0)