# vtk DataFile Version 2.0
sampleSurface
ASCII
DATASET POLYDATA
POINTS 502 double
-0.0206 0 -0.0005
-0.0190172 0 -0.0005
-0.0190172 0 0.0005
-0.0206 0 0.0005
-0.0174976 0 -0.0005
-0.0174976 0 0.0005
-0.0160387 0 -0.0005
-0.0160387 0 0.0005
-0.0146381 0 -0.0005
-0.0146381 0 0.0005
-0.0132934 0 -0.0005
-0.0132934 0 0.0005
-0.0120025 0 -0.0005
-0.0120025 0 0.0005
-0.0107632 0 -0.0005
-0.0107632 0 0.0005
-0.00957337 0 -0.0005
-0.00957337 0 0.0005
-0.00843108 0 -0.0005
-0.00843108 0 0.0005
-0.00733443 0 -0.0005
-0.00733443 0 0.0005
-0.0062816 0 -0.0005
-0.0062816 0 0.0005
-0.00527083 0 -0.0005
-0.00527083 0 0.0005
-0.00430044 0 -0.0005
-0.00430044 0 0.0005
-0.00336883 0 -0.0005
-0.00336883 0 0.0005
-0.00247443 0 -0.0005
-0.00247443 0 0.0005
-0.00161577 0 -0.0005
-0.00161577 0 0.0005
-0.000791418 0 -0.0005
-0.000791418 0 0.0005
0 0 -0.0005
0 0 0.0005
0 -0.0254 -0.0005
0 -0.0254 0.0005
0 -0.0242711 0.0005
0 -0.0242711 -0.0005
0 -0.0231422 0.0005
0 -0.0231422 -0.0005
0 -0.0220133 0.0005
0 -0.0220133 -0.0005
0 -0.0208844 0.0005
0 -0.0208844 -0.0005
0 -0.0197556 0.0005
0 -0.0197556 -0.0005
0 -0.0186267 0.0005
0 -0.0186267 -0.0005
0 -0.0174978 0.0005
0 -0.0174978 -0.0005
0 -0.0163689 0.0005
0 -0.0163689 -0.0005
0 -0.01524 0.0005
0 -0.01524 -0.0005
0 -0.0141111 0.0005
0 -0.0141111 -0.0005
0 -0.0129822 0.0005
0 -0.0129822 -0.0005
0 -0.0118533 0.0005
0 -0.0118533 -0.0005
0 -0.0107244 0.0005
0 -0.0107244 -0.0005
0 -0.00959556 0.0005
0 -0.00959556 -0.0005
0 -0.00846667 0.0005
0 -0.00846667 -0.0005
0 -0.00726604 0.0005
0 -0.00726604 -0.0005
0 -0.00618989 0.0005
0 -0.00618989 -0.0005
0 -0.00522531 0.0005
0 -0.00522531 -0.0005
0 -0.00436073 0.0005
0 -0.00436073 -0.0005
0 -0.00358579 0.0005
0 -0.00358579 -0.0005
0 -0.00289118 0.0005
0 -0.00289118 -0.0005
0 -0.0022686 0.0005
0 -0.0022686 -0.0005
0 -0.00171055 0.0005
0 -0.00171055 -0.0005
0 -0.00121037 0.0005
0 -0.00121037 -0.0005
0 -0.000762037 0.0005
0 -0.000762037 -0.0005
0 -0.000360188 0.0005
0 -0.000360188 -0.0005
0.000528387 -0.0254 -0.0005
0.000528387 -0.0254 0.0005
0.00106088 -0.0254 -0.0005
0.00106088 -0.0254 0.0005
0.00159752 -0.0254 -0.0005
0.00159752 -0.0254 0.0005
0.00213833 -0.0254 -0.0005
0.00213833 -0.0254 0.0005
0.00268334 -0.0254 -0.0005
0.00268334 -0.0254 0.0005
0.00323259 -0.0254 -0.0005
0.00323259 -0.0254 0.0005
0.00378611 -0.0254 -0.0005
0.00378611 -0.0254 0.0005
0.00434393 -0.0254 -0.0005
0.00434393 -0.0254 0.0005
0.00490609 -0.0254 -0.0005
0.00490609 -0.0254 0.0005
0.00547262 -0.0254 -0.0005
0.00547262 -0.0254 0.0005
0.00604356 -0.0254 -0.0005
0.00604356 -0.0254 0.0005
0.00661893 -0.0254 -0.0005
0.00661893 -0.0254 0.0005
0.00719878 -0.0254 -0.0005
0.00719878 -0.0254 0.0005
0.00778313 -0.0254 -0.0005
0.00778313 -0.0254 0.0005
0.00837203 -0.0254 -0.0005
0.00837203 -0.0254 0.0005
0.00896551 -0.0254 -0.0005
0.00896551 -0.0254 0.0005
0.0095636 -0.0254 -0.0005
0.0095636 -0.0254 0.0005
0.0101663 -0.0254 -0.0005
0.0101663 -0.0254 0.0005
0.0107738 -0.0254 -0.0005
0.0107738 -0.0254 0.0005
0.0113859 -0.0254 -0.0005
0.0113859 -0.0254 0.0005
0.0120028 -0.0254 -0.0005
0.0120028 -0.0254 0.0005
0.0126245 -0.0254 -0.0005
0.0126245 -0.0254 0.0005
0.0132511 -0.0254 -0.0005
0.0132511 -0.0254 0.0005
0.0138825 -0.0254 -0.0005
0.0138825 -0.0254 0.0005
0.0145188 -0.0254 -0.0005
0.0145188 -0.0254 0.0005
0.0151601 -0.0254 -0.0005
0.0151601 -0.0254 0.0005
0.0158063 -0.0254 -0.0005
0.0158063 -0.0254 0.0005
0.0164576 -0.0254 -0.0005
0.0164576 -0.0254 0.0005
0.0171139 -0.0254 -0.0005
0.0171139 -0.0254 0.0005
0.0177754 -0.0254 -0.0005
0.0177754 -0.0254 0.0005
0.018442 -0.0254 -0.0005
0.018442 -0.0254 0.0005
0.0191137 -0.0254 -0.0005
0.0191137 -0.0254 0.0005
0.0197907 -0.0254 -0.0005
0.0197907 -0.0254 0.0005
0.020473 -0.0254 -0.0005
0.020473 -0.0254 0.0005
0.0211606 -0.0254 -0.0005
0.0211606 -0.0254 0.0005
0.0218535 -0.0254 -0.0005
0.0218535 -0.0254 0.0005
0.0225517 -0.0254 -0.0005
0.0225517 -0.0254 0.0005
0.0232555 -0.0254 -0.0005
0.0232555 -0.0254 0.0005
0.0239647 -0.0254 -0.0005
0.0239647 -0.0254 0.0005
0.0246794 -0.0254 -0.0005
0.0246794 -0.0254 0.0005
0.0253996 -0.0254 -0.0005
0.0253996 -0.0254 0.0005
0.0261255 -0.0254 -0.0005
0.0261255 -0.0254 0.0005
0.026857 -0.0254 -0.0005
0.026857 -0.0254 0.0005
0.0275942 -0.0254 -0.0005
0.0275942 -0.0254 0.0005
0.0283371 -0.0254 -0.0005
0.0283371 -0.0254 0.0005
0.0290858 -0.0254 -0.0005
0.0290858 -0.0254 0.0005
0.0298403 -0.0254 -0.0005
0.0298403 -0.0254 0.0005
0.0306007 -0.0254 -0.0005
0.0306007 -0.0254 0.0005
0.031367 -0.0254 -0.0005
0.031367 -0.0254 0.0005
0.0321393 -0.0254 -0.0005
0.0321393 -0.0254 0.0005
0.0329175 -0.0254 -0.0005
0.0329175 -0.0254 0.0005
0.0337019 -0.0254 -0.0005
0.0337019 -0.0254 0.0005
0.0344923 -0.0254 -0.0005
0.0344923 -0.0254 0.0005
0.0352888 -0.0254 -0.0005
0.0352888 -0.0254 0.0005
0.0360916 -0.0254 -0.0005
0.0360916 -0.0254 0.0005
0.0369006 -0.0254 -0.0005
0.0369006 -0.0254 0.0005
0.0377158 -0.0254 -0.0005
0.0377158 -0.0254 0.0005
0.0385375 -0.0254 -0.0005
0.0385375 -0.0254 0.0005
0.0393655 -0.0254 -0.0005
0.0393655 -0.0254 0.0005
0.0401999 -0.0254 -0.0005
0.0401999 -0.0254 0.0005
0.0410408 -0.0254 -0.0005
0.0410408 -0.0254 0.0005
0.0418883 -0.0254 -0.0005
0.0418883 -0.0254 0.0005
0.0427424 -0.0254 -0.0005
0.0427424 -0.0254 0.0005
0.0436031 -0.0254 -0.0005
0.0436031 -0.0254 0.0005
0.0444704 -0.0254 -0.0005
0.0444704 -0.0254 0.0005
0.0453446 -0.0254 -0.0005
0.0453446 -0.0254 0.0005
0.0462255 -0.0254 -0.0005
0.0462255 -0.0254 0.0005
0.0471133 -0.0254 -0.0005
0.0471133 -0.0254 0.0005
0.048008 -0.0254 -0.0005
0.048008 -0.0254 0.0005
0.0489096 -0.0254 -0.0005
0.0489096 -0.0254 0.0005
0.0498183 -0.0254 -0.0005
0.0498183 -0.0254 0.0005
0.050734 -0.0254 -0.0005
0.050734 -0.0254 0.0005
0.0516568 -0.0254 -0.0005
0.0516568 -0.0254 0.0005
0.0525868 -0.0254 -0.0005
0.0525868 -0.0254 0.0005
0.053524 -0.0254 -0.0005
0.053524 -0.0254 0.0005
0.0544686 -0.0254 -0.0005
0.0544686 -0.0254 0.0005
0.0554204 -0.0254 -0.0005
0.0554204 -0.0254 0.0005
0.0563797 -0.0254 -0.0005
0.0563797 -0.0254 0.0005
0.0573464 -0.0254 -0.0005
0.0573464 -0.0254 0.0005
0.0583206 -0.0254 -0.0005
0.0583206 -0.0254 0.0005
0.0593025 -0.0254 -0.0005
0.0593025 -0.0254 0.0005
0.0602919 -0.0254 -0.0005
0.0602919 -0.0254 0.0005
0.0612891 -0.0254 -0.0005
0.0612891 -0.0254 0.0005
0.0622939 -0.0254 -0.0005
0.0622939 -0.0254 0.0005
0.0633067 -0.0254 -0.0005
0.0633067 -0.0254 0.0005
0.0643272 -0.0254 -0.0005
0.0643272 -0.0254 0.0005
0.0653557 -0.0254 -0.0005
0.0653557 -0.0254 0.0005
0.0663923 -0.0254 -0.0005
0.0663923 -0.0254 0.0005
0.0674368 -0.0254 -0.0005
0.0674368 -0.0254 0.0005
0.0684895 -0.0254 -0.0005
0.0684895 -0.0254 0.0005
0.0695504 -0.0254 -0.0005
0.0695504 -0.0254 0.0005
0.0706195 -0.0254 -0.0005
0.0706195 -0.0254 0.0005
0.0716969 -0.0254 -0.0005
0.0716969 -0.0254 0.0005
0.0727828 -0.0254 -0.0005
0.0727828 -0.0254 0.0005
0.073877 -0.0254 -0.0005
0.073877 -0.0254 0.0005
0.0749798 -0.0254 -0.0005
0.0749798 -0.0254 0.0005
0.0760911 -0.0254 -0.0005
0.0760911 -0.0254 0.0005
0.0772111 -0.0254 -0.0005
0.0772111 -0.0254 0.0005
0.0783398 -0.0254 -0.0005
0.0783398 -0.0254 0.0005
0.0794772 -0.0254 -0.0005
0.0794772 -0.0254 0.0005
0.0806235 -0.0254 -0.0005
0.0806235 -0.0254 0.0005
0.0817787 -0.0254 -0.0005
0.0817787 -0.0254 0.0005
0.0829429 -0.0254 -0.0005
0.0829429 -0.0254 0.0005
0.0841162 -0.0254 -0.0005
0.0841162 -0.0254 0.0005
0.0852985 -0.0254 -0.0005
0.0852985 -0.0254 0.0005
0.0864901 -0.0254 -0.0005
0.0864901 -0.0254 0.0005
0.0876909 -0.0254 -0.0005
0.0876909 -0.0254 0.0005
0.0889011 -0.0254 -0.0005
0.0889011 -0.0254 0.0005
0.0901207 -0.0254 -0.0005
0.0901207 -0.0254 0.0005
0.0913497 -0.0254 -0.0005
0.0913497 -0.0254 0.0005
0.0925883 -0.0254 -0.0005
0.0925883 -0.0254 0.0005
0.0938366 -0.0254 -0.0005
0.0938366 -0.0254 0.0005
0.0950945 -0.0254 -0.0005
0.0950945 -0.0254 0.0005
0.0963622 -0.0254 -0.0005
0.0963622 -0.0254 0.0005
0.0976398 -0.0254 -0.0005
0.0976398 -0.0254 0.0005
0.0989273 -0.0254 -0.0005
0.0989273 -0.0254 0.0005
0.100225 -0.0254 -0.0005
0.100225 -0.0254 0.0005
0.101532 -0.0254 -0.0005
0.101532 -0.0254 0.0005
0.10285 -0.0254 -0.0005
0.10285 -0.0254 0.0005
0.104178 -0.0254 -0.0005
0.104178 -0.0254 0.0005
0.105517 -0.0254 -0.0005
0.105517 -0.0254 0.0005
0.106865 -0.0254 -0.0005
0.106865 -0.0254 0.0005
0.108225 -0.0254 -0.0005
0.108225 -0.0254 0.0005
0.109594 -0.0254 -0.0005
0.109594 -0.0254 0.0005
0.110975 -0.0254 -0.0005
0.110975 -0.0254 0.0005
0.112366 -0.0254 -0.0005
0.112366 -0.0254 0.0005
0.113768 -0.0254 -0.0005
0.113768 -0.0254 0.0005
0.115181 -0.0254 -0.0005
0.115181 -0.0254 0.0005
0.116605 -0.0254 -0.0005
0.116605 -0.0254 0.0005
0.11804 -0.0254 -0.0005
0.11804 -0.0254 0.0005
0.119486 -0.0254 -0.0005
0.119486 -0.0254 0.0005
0.120943 -0.0254 -0.0005
0.120943 -0.0254 0.0005
0.122412 -0.0254 -0.0005
0.122412 -0.0254 0.0005
0.123892 -0.0254 -0.0005
0.123892 -0.0254 0.0005
0.125384 -0.0254 -0.0005
0.125384 -0.0254 0.0005
0.126887 -0.0254 -0.0005
0.126887 -0.0254 0.0005
0.128402 -0.0254 -0.0005
0.128402 -0.0254 0.0005
0.129928 -0.0254 -0.0005
0.129928 -0.0254 0.0005
0.131467 -0.0254 -0.0005
0.131467 -0.0254 0.0005
0.133017 -0.0254 -0.0005
0.133017 -0.0254 0.0005
0.13458 -0.0254 -0.0005
0.13458 -0.0254 0.0005
0.136155 -0.0254 -0.0005
0.136155 -0.0254 0.0005
0.137742 -0.0254 -0.0005
0.137742 -0.0254 0.0005
0.139341 -0.0254 -0.0005
0.139341 -0.0254 0.0005
0.140953 -0.0254 -0.0005
0.140953 -0.0254 0.0005
0.142577 -0.0254 -0.0005
0.142577 -0.0254 0.0005
0.144214 -0.0254 -0.0005
0.144214 -0.0254 0.0005
0.145863 -0.0254 -0.0005
0.145863 -0.0254 0.0005
0.147526 -0.0254 -0.0005
0.147526 -0.0254 0.0005
0.149201 -0.0254 -0.0005
0.149201 -0.0254 0.0005
0.15089 -0.0254 -0.0005
0.15089 -0.0254 0.0005
0.152591 -0.0254 -0.0005
0.152591 -0.0254 0.0005
0.154306 -0.0254 -0.0005
0.154306 -0.0254 0.0005
0.156034 -0.0254 -0.0005
0.156034 -0.0254 0.0005
0.157775 -0.0254 -0.0005
0.157775 -0.0254 0.0005
0.159531 -0.0254 -0.0005
0.159531 -0.0254 0.0005
0.161299 -0.0254 -0.0005
0.161299 -0.0254 0.0005
0.163082 -0.0254 -0.0005
0.163082 -0.0254 0.0005
0.164878 -0.0254 -0.0005
0.164878 -0.0254 0.0005
0.166688 -0.0254 -0.0005
0.166688 -0.0254 0.0005
0.168513 -0.0254 -0.0005
0.168513 -0.0254 0.0005
0.170351 -0.0254 -0.0005
0.170351 -0.0254 0.0005
0.172204 -0.0254 -0.0005
0.172204 -0.0254 0.0005
0.174071 -0.0254 -0.0005
0.174071 -0.0254 0.0005
0.175953 -0.0254 -0.0005
0.175953 -0.0254 0.0005
0.177849 -0.0254 -0.0005
0.177849 -0.0254 0.0005
0.17976 -0.0254 -0.0005
0.17976 -0.0254 0.0005
0.181686 -0.0254 -0.0005
0.181686 -0.0254 0.0005
0.183627 -0.0254 -0.0005
0.183627 -0.0254 0.0005
0.185583 -0.0254 -0.0005
0.185583 -0.0254 0.0005
0.187555 -0.0254 -0.0005
0.187555 -0.0254 0.0005
0.189541 -0.0254 -0.0005
0.189541 -0.0254 0.0005
0.191543 -0.0254 -0.0005
0.191543 -0.0254 0.0005
0.193561 -0.0254 -0.0005
0.193561 -0.0254 0.0005
0.195594 -0.0254 -0.0005
0.195594 -0.0254 0.0005
0.197643 -0.0254 -0.0005
0.197643 -0.0254 0.0005
0.199708 -0.0254 -0.0005
0.199708 -0.0254 0.0005
0.201789 -0.0254 -0.0005
0.201789 -0.0254 0.0005
0.203886 -0.0254 -0.0005
0.203886 -0.0254 0.0005
0.206 -0.0254 -0.0005
0.206 -0.0254 0.0005
0.208047 -0.0251856 -0.0005
0.208047 -0.0251856 0.0005
0.210173 -0.0249628 -0.0005
0.210173 -0.0249628 0.0005
0.212382 -0.0247314 -0.0005
0.212382 -0.0247314 0.0005
0.214677 -0.024491 -0.0005
0.214677 -0.024491 0.0005
0.217061 -0.0242412 -0.0005
0.217061 -0.0242412 0.0005
0.219538 -0.0239817 -0.0005
0.219538 -0.0239817 0.0005
0.222112 -0.0237121 -0.0005
0.222112 -0.0237121 0.0005
0.224785 -0.023432 -0.0005
0.224785 -0.023432 0.0005
0.227563 -0.023141 -0.0005
0.227563 -0.023141 0.0005
0.230449 -0.0228387 -0.0005
0.230449 -0.0228387 0.0005
0.233447 -0.0225246 -0.0005
0.233447 -0.0225246 0.0005
0.236562 -0.0221983 -0.0005
0.236562 -0.0221983 0.0005
0.239797 -0.0218593 -0.0005
0.239797 -0.0218593 0.0005
0.243159 -0.0215071 -0.0005
0.243159 -0.0215071 0.0005
0.246652 -0.0211412 -0.0005
0.246652 -0.0211412 0.0005
0.250281 -0.0207611 -0.0005
0.250281 -0.0207611 0.0005
0.254051 -0.0203661 -0.0005
0.254051 -0.0203661 0.0005
0.257967 -0.0199558 -0.0005
0.257967 -0.0199558 0.0005
0.262036 -0.0195295 -0.0005
0.262036 -0.0195295 0.0005
0.266264 -0.0190867 -0.0005
0.266264 -0.0190867 0.0005
0.270655 -0.0186266 -0.0005
0.270655 -0.0186266 0.0005
0.275218 -0.0181486 -0.0005
0.275218 -0.0181486 0.0005
0.279959 -0.017652 -0.0005
0.279959 -0.017652 0.0005
0.284883 -0.017136 -0.0005
0.284883 -0.017136 0.0005
0.29 -0.0166 -0.0005
0.29 -0.0166 0.0005

POLYGONS 250 1250
4 0 1 2 3
4 1 4 5 2
4 4 6 7 5
4 6 8 9 7
4 8 10 11 9
4 10 12 13 11
4 12 14 15 13
4 14 16 17 15
4 16 18 19 17
4 18 20 21 19
4 20 22 23 21
4 22 24 25 23
4 24 26 27 25
4 26 28 29 27
4 28 30 31 29
4 30 32 33 31
4 32 34 35 33
4 34 36 37 35
4 38 39 40 41
4 41 40 42 43
4 43 42 44 45
4 45 44 46 47
4 47 46 48 49
4 49 48 50 51
4 51 50 52 53
4 53 52 54 55
4 55 54 56 57
4 57 56 58 59
4 59 58 60 61
4 61 60 62 63
4 63 62 64 65
4 65 64 66 67
4 67 66 68 69
4 69 68 70 71
4 71 70 72 73
4 73 72 74 75
4 75 74 76 77
4 77 76 78 79
4 79 78 80 81
4 81 80 82 83
4 83 82 84 85
4 85 84 86 87
4 87 86 88 89
4 89 88 90 91
4 91 90 37 36
4 38 92 93 39
4 92 94 95 93
4 94 96 97 95
4 96 98 99 97
4 98 100 101 99
4 100 102 103 101
4 102 104 105 103
4 104 106 107 105
4 106 108 109 107
4 108 110 111 109
4 110 112 113 111
4 112 114 115 113
4 114 116 117 115
4 116 118 119 117
4 118 120 121 119
4 120 122 123 121
4 122 124 125 123
4 124 126 127 125
4 126 128 129 127
4 128 130 131 129
4 130 132 133 131
4 132 134 135 133
4 134 136 137 135
4 136 138 139 137
4 138 140 141 139
4 140 142 143 141
4 142 144 145 143
4 144 146 147 145
4 146 148 149 147
4 148 150 151 149
4 150 152 153 151
4 152 154 155 153
4 154 156 157 155
4 156 158 159 157
4 158 160 161 159
4 160 162 163 161
4 162 164 165 163
4 164 166 167 165
4 166 168 169 167
4 168 170 171 169
4 170 172 173 171
4 172 174 175 173
4 174 176 177 175
4 176 178 179 177
4 178 180 181 179
4 180 182 183 181
4 182 184 185 183
4 184 186 187 185
4 186 188 189 187
4 188 190 191 189
4 190 192 193 191
4 192 194 195 193
4 194 196 197 195
4 196 198 199 197
4 198 200 201 199
4 200 202 203 201
4 202 204 205 203
4 204 206 207 205
4 206 208 209 207
4 208 210 211 209
4 210 212 213 211
4 212 214 215 213
4 214 216 217 215
4 216 218 219 217
4 218 220 221 219
4 220 222 223 221
4 222 224 225 223
4 224 226 227 225
4 226 228 229 227
4 228 230 231 229
4 230 232 233 231
4 232 234 235 233
4 234 236 237 235
4 236 238 239 237
4 238 240 241 239
4 240 242 243 241
4 242 244 245 243
4 244 246 247 245
4 246 248 249 247
4 248 250 251 249
4 250 252 253 251
4 252 254 255 253
4 254 256 257 255
4 256 258 259 257
4 258 260 261 259
4 260 262 263 261
4 262 264 265 263
4 264 266 267 265
4 266 268 269 267
4 268 270 271 269
4 270 272 273 271
4 272 274 275 273
4 274 276 277 275
4 276 278 279 277
4 278 280 281 279
4 280 282 283 281
4 282 284 285 283
4 284 286 287 285
4 286 288 289 287
4 288 290 291 289
4 290 292 293 291
4 292 294 295 293
4 294 296 297 295
4 296 298 299 297
4 298 300 301 299
4 300 302 303 301
4 302 304 305 303
4 304 306 307 305
4 306 308 309 307
4 308 310 311 309
4 310 312 313 311
4 312 314 315 313
4 314 316 317 315
4 316 318 319 317
4 318 320 321 319
4 320 322 323 321
4 322 324 325 323
4 324 326 327 325
4 326 328 329 327
4 328 330 331 329
4 330 332 333 331
4 332 334 335 333
4 334 336 337 335
4 336 338 339 337
4 338 340 341 339
4 340 342 343 341
4 342 344 345 343
4 344 346 347 345
4 346 348 349 347
4 348 350 351 349
4 350 352 353 351
4 352 354 355 353
4 354 356 357 355
4 356 358 359 357
4 358 360 361 359
4 360 362 363 361
4 362 364 365 363
4 364 366 367 365
4 366 368 369 367
4 368 370 371 369
4 370 372 373 371
4 372 374 375 373
4 374 376 377 375
4 376 378 379 377
4 378 380 381 379
4 380 382 383 381
4 382 384 385 383
4 384 386 387 385
4 386 388 389 387
4 388 390 391 389
4 390 392 393 391
4 392 394 395 393
4 394 396 397 395
4 396 398 399 397
4 398 400 401 399
4 400 402 403 401
4 402 404 405 403
4 404 406 407 405
4 406 408 409 407
4 408 410 411 409
4 410 412 413 411
4 412 414 415 413
4 414 416 417 415
4 416 418 419 417
4 418 420 421 419
4 420 422 423 421
4 422 424 425 423
4 424 426 427 425
4 426 428 429 427
4 428 430 431 429
4 430 432 433 431
4 432 434 435 433
4 434 436 437 435
4 436 438 439 437
4 438 440 441 439
4 440 442 443 441
4 442 444 445 443
4 444 446 447 445
4 446 448 449 447
4 448 450 451 449
4 450 452 453 451
4 452 454 455 453
4 454 456 457 455
4 456 458 459 457
4 458 460 461 459
4 460 462 463 461
4 462 464 465 463
4 464 466 467 465
4 466 468 469 467
4 468 470 471 469
4 470 472 473 471
4 472 474 475 473
4 474 476 477 475
4 476 478 479 477
4 478 480 481 479
4 480 482 483 481
4 482 484 485 483
4 484 486 487 485
4 486 488 489 487
4 488 490 491 489
4 490 492 493 491
4 492 494 495 493
4 494 496 497 495
4 496 498 499 497
4 498 500 501 499
POINT_DATA 502
FIELD attributes 1
U 3 502 float
1.68641 0.0825979 -0.00825195
0.844318 0.0411104 -0.00406657
0.844318 0.0411104 -0.00406657
1.68641 0.0825979 -0.00825195
0.0245318 0.000703554 0
0.0245318 0.000703554 0
0.0217509 0.000547974 0
0.0217509 0.000547974 0
0.0194708 0.000461922 0
0.0194708 0.000461922 0
0.017409 0.000412158 0
0.017409 0.000412158 0
0.0155056 0.000364839 0
0.0155056 0.000364839 0
0.0137336 0.000322326 0
0.0137336 0.000322326 0
0.0120811 0.000279935 0
0.0120811 0.000279935 0
0.0105952 0.000223689 0
0.0105952 0.000223689 0
0.0093265 0.000156726 0
0.0093265 0.000156726 0
0.00830017 9.62262e-05 0
0.00830017 9.62262e-05 0
0.00749145 5.50322e-05 0
0.00749145 5.50322e-05 0
0.00686849 3.47684e-05 0
0.00686849 3.47684e-05 0
0.00635274 2.7237e-05 0
0.00635274 2.7237e-05 0
0.00591277 2.12619e-05 0
0.00591277 2.12619e-05 0
0.00550262 3.16939e-05 0
0.00550262 3.16939e-05 0
0.00508446 2.15849e-05 0
0.00508446 2.15849e-05 0
0.00231391 0.000261132 0
0.00231391 0.000261132 0
2.78417e-05 -9.76152e-05 2.02621e-23
2.78417e-05 -9.76152e-05 2.02621e-23
9.83539e-06 -0.000181167 -5.48273e-23
9.83539e-06 -0.000181167 -5.48273e-23
-3.26162e-05 -0.000105984 -6.50001e-23
-3.26162e-05 -0.000105984 -6.50001e-23
-6.28792e-05 0.000265648 1.30092e-22
-6.28792e-05 0.000265648 1.30092e-22
-6.47606e-05 0.000694244 4.33632e-23
-6.47606e-05 0.000694244 4.33632e-23
-5.22855e-05 0.00109877 -8.67708e-23
-5.22855e-05 0.00109877 -8.67708e-23
-3.38846e-05 0.00143571 0
-3.38846e-05 0.00143571 0
-1.40806e-05 0.00168767 -1.74282e-22
-1.40806e-05 0.00168767 -1.74282e-22
5.71149e-06 0.00185084 -4.98037e-27
5.71149e-06 0.00185084 -4.98037e-27
2.67155e-05 0.00192428 1.74277e-22
2.67155e-05 0.00192428 1.74277e-22
5.09942e-05 0.0019008 -1.75391e-22
5.09942e-05 0.0019008 -1.75391e-22
7.96905e-05 0.00176611 9.32844e-27
7.96905e-05 0.00176611 9.32844e-27
0.000112937 0.00150162 1.754e-22
0.000112937 0.00150162 1.754e-22
0.000148149 0.00108273 1.77223e-22
0.000148149 0.00108273 1.77223e-22
0.000156832 0.000491591 -2.42261e-26
0.000156832 0.000491591 -2.42261e-26
5.8756e-05 -0.000200085 -1.80388e-22
5.8756e-05 -0.000200085 -1.80388e-22
-0.000128173 -0.000657702 0
-0.000128173 -0.000657702 0
-0.000177039 -0.000649252 0
-0.000177039 -0.000649252 0
1.23456e-05 -0.000579868 0
1.23456e-05 -0.000579868 0
0.000299372 -0.00118791 0
0.000299372 -0.00118791 0
0.000411524 -0.00231059 0
0.000411524 -0.00231059 0
0.000205 -0.00291006 0
0.000205 -0.00291006 0
-0.000118616 -0.00275214 0
-0.000118616 -0.00275214 0
-0.000357917 -0.00215492 0
-0.000357917 -0.00215492 0
-0.000512684 -0.00131987 0
-0.000512684 -0.00131987 0
-0.000448474 -0.000427296 0
-0.000448474 -0.000427296 0
-7.77103e-05 0.000246701 0
-7.77103e-05 0.000246701 0
5.28989e-05 -0.000106215 8.62007e-26
5.28989e-05 -0.000106215 8.62007e-26
0.000104421 -0.000113494 -1.00707e-23
0.000104421 -0.000113494 -1.00707e-23
0.000153231 -0.000109425 0
0.000153231 -0.000109425 0
0.000194469 -0.000103095 0
0.000194469 -0.000103095 0
0.000227816 -9.49825e-05 9.7631e-24
0.000227816 -9.49825e-05 9.7631e-24
0.000251809 -8.50793e-05 9.78064e-24
0.000251809 -8.50793e-05 9.78064e-24
0.000265409 -7.36753e-05 0
0.000265409 -7.36753e-05 0
0.000267694 -6.11724e-05 0
0.000267694 -6.11724e-05 0
0.000257876 -4.77783e-05 0
0.000257876 -4.77783e-05 0
0.000234956 -3.33951e-05 -9.39409e-24
0.000234956 -3.33951e-05 -9.39409e-24
0.000197721 -1.76951e-05 -9.41199e-24
0.000197721 -1.76951e-05 -9.41199e-24
0.000145036 -3.23653e-07 0
0.000145036 -3.23653e-07 0
7.57752e-05 1.89827e-05 0
7.57752e-05 1.89827e-05 0
-1.13052e-05 4.03152e-05 0
-1.13052e-05 4.03152e-05 0
-0.000117499 6.35913e-05 -9.01789e-24
-0.000117499 6.35913e-05 -9.01789e-24
-0.00024385 8.8525e-05 -9.0361e-24
-0.00024385 8.8525e-05 -9.0361e-24
-0.000390986 0.000114586 0
-0.000390986 0.000114586 0
-0.000559103 0.000141059 0
-0.000559103 0.000141059 0
-0.000747944 0.00016712 0
-0.000747944 0.00016712 0
-0.000956803 0.000191907 0
-0.000956803 0.000191907 0
-0.00118458 0.000214667 0
-0.00118458 0.000214667 0
-0.0014298 0.000234898 0
-0.0014298 0.000234898 0
-0.00169051 0.000252282 -8.35362e-24
-0.00169051 0.000252282 -8.35362e-24
-0.00196422 0.000266529 -1.08773e-25
-0.00196422 0.000266529 -1.08773e-25
-0.00224832 0.000277403 1.10631e-25
-0.00224832 0.000277403 1.10631e-25
-0.00254018 0.000284774 -1.62668e-23
-0.00254018 0.000284774 -1.62668e-23
-0.00283706 0.000288605 -8.09567e-24
-0.00283706 0.000288605 -8.09567e-24
-0.00313617 0.000288952 0
-0.00313617 0.000288952 0
-0.00343467 0.000285925 7.78731e-24
-0.00343467 0.000285925 7.78731e-24
-0.00372967 0.000279692 1.54949e-23
-0.00372967 0.000279692 1.54949e-23
-0.00401827 0.00027046 7.70758e-24
-0.00401827 0.00027046 7.70758e-24
-0.00429753 0.000258409 0
-0.00429753 0.000258409 0
-0.0045645 0.000243691 7.39871e-24
-0.0045645 0.000243691 7.39871e-24
-0.00481622 0.000226478 7.41693e-24
-0.00481622 0.000226478 7.41693e-24
-0.0050497 0.000206946 0
-0.0050497 0.000206946 0
-0.00526202 0.00018527 -7.13004e-24
-0.00526202 0.00018527 -7.13004e-24
-0.00545034 0.000161723 -7.14816e-24
-0.00545034 0.000161723 -7.14816e-24
-0.00561207 0.000136679 -6.97444e-24
-0.00561207 0.000136679 -6.97444e-24
-0.0057449 0.000110488 -2.08045e-23
-0.0057449 0.000110488 -2.08045e-23
-0.00584692 8.35532e-05 -1.38482e-23
-0.00584692 8.35532e-05 -1.38482e-23
-0.00591648 5.65391e-05 0
-0.00591648 5.65391e-05 0
-0.00595243 3.01084e-05 0
-0.00595243 3.01084e-05 0
-0.00595463 4.65192e-06 0
-0.00595463 4.65192e-06 0
-0.00592399 -1.95819e-05 0
-0.00592399 -1.95819e-05 0
-0.00586159 -4.25246e-05 -1.32923e-23
-0.00586159 -4.25246e-05 -1.32923e-23
-0.00576828 -6.42122e-05 -2.65824e-23
-0.00576828 -6.42122e-05 -2.65824e-23
-0.00564531 -8.45423e-05 -2.65151e-23
-0.00564531 -8.45423e-05 -2.65151e-23
-0.00549421 -0.000103362 -1.32623e-23
-0.00549421 -0.000103362 -1.32623e-23
-0.00531663 -0.00012057 1.31928e-23
-0.00531663 -0.00012057 1.31928e-23
-0.00511446 -0.000136064 1.3231e-23
-0.00511446 -0.000136064 1.3231e-23
-0.00488975 -0.000149749 -1.31822e-23
-0.00488975 -0.000149749 -1.31822e-23
-0.00464474 -0.000161525 -2.64013e-23
-0.00464474 -0.000161525 -2.64013e-23
-0.00438192 -0.000171297 -1.32195e-23
-0.00438192 -0.000171297 -1.32195e-23
-0.00410395 -0.000178985 0
-0.00410395 -0.000178985 0
-0.0038137 -0.000184546 0
-0.0038137 -0.000184546 0
-0.00351416 -0.000187982 -1.31554e-23
-0.00351416 -0.000187982 -1.31554e-23
-0.00320831 -0.000189349 -1.31961e-23
-0.00320831 -0.000189349 -1.31961e-23
-0.00289902 -0.000188764 0
-0.00289902 -0.000188764 0
-0.00258899 -0.000186404 0
-0.00258899 -0.000186404 0
-0.00228072 -0.000182489 0
-0.00228072 -0.000182489 0
-0.00197643 -0.000177272 0
-0.00197643 -0.000177272 0
-0.00167806 -0.000170981 0
-0.00167806 -0.000170981 0
-0.00138715 -0.000163867 0
-0.00138715 -0.000163867 0
-0.00110502 -0.000156123 0
-0.00110502 -0.000156123 0
-0.000832667 -0.000147979 1.27572e-23
-0.000832667 -0.000147979 1.27572e-23
-0.000570724 -0.000139622 1.28e-23
-0.000570724 -0.000139622 1.28e-23
-0.000319735 -0.000131077 0
-0.000319735 -0.000131077 0
-8.06739e-05 -0.000122836 -1.25138e-23
-8.06739e-05 -0.000122836 -1.25138e-23
0.000146268 -0.00011483 -2.49775e-23
0.000146268 -0.00011483 -2.49775e-23
0.000362168 -0.00010681 -1.24637e-23
0.000362168 -0.00010681 -1.24637e-23
0.000567375 -9.90686e-05 1.22236e-23
0.000567375 -9.90686e-05 1.22236e-23
0.000761756 -9.16258e-05 1.44946e-25
0.000761756 -9.16258e-05 1.44946e-25
0.000945571 -8.45068e-05 -1.21652e-23
0.000945571 -8.45068e-05 -1.21652e-23
0.00111913 -7.77268e-05 1.19138e-23
0.00111913 -7.77268e-05 1.19138e-23
0.00128277 -7.12912e-05 1.1957e-23
0.00128277 -7.12912e-05 1.1957e-23
0.00143686 -6.51993e-05 0
0.00143686 -6.51993e-05 0
0.00158177 -5.94458e-05 -1.15941e-23
0.00158177 -5.94458e-05 -1.15941e-23
0.00171789 -5.40226e-05 -1.16372e-23
0.00171789 -5.40226e-05 -1.16372e-23
0.00184557 -4.89198e-05 1.13785e-23
0.00184557 -4.89198e-05 1.13785e-23
0.00196519 -4.41268e-05 1.14215e-23
0.00196519 -4.41268e-05 1.14215e-23
0.0020771 -3.96327e-05 -1.11626e-23
0.0020771 -3.96327e-05 -1.11626e-23
0.00218165 -3.54268e-05 -2.22602e-23
0.00218165 -3.54268e-05 -2.22602e-23
0.00227916 -3.14989e-05 -2.20447e-23
0.00227916 -3.14989e-05 -2.20447e-23
0.00236997 -2.78392e-05 -3.26698e-23
0.00236997 -2.78392e-05 -3.26698e-23
0.00245438 -2.44383e-05 -2.98892e-25
0.00245438 -2.44383e-05 -2.98892e-25
0.00253272 -2.12874e-05 2.15512e-23
0.00253272 -2.12874e-05 2.15512e-23
0.00260528 -1.83777e-05 0
0.00260528 -1.83777e-05 0
0.00267236 -1.57008e-05 0
0.00267236 -1.57008e-05 0
0.00273424 -1.32483e-05 2.06212e-23
0.00273424 -1.32483e-05 2.06212e-23
0.00279123 -1.10116e-05 4.11181e-23
0.00279123 -1.10116e-05 4.11181e-23
0.00284359 -8.98189e-06 2.91047e-25
0.00284359 -8.98189e-06 2.91047e-25
0.00289161 -7.15021e-06 -2.02893e-23
0.00289161 -7.15021e-06 -2.02893e-23
0.00293554 -5.50711e-06 1.97952e-23
0.00293554 -5.50711e-06 1.97952e-23
0.00297567 -4.04284e-06 3.94702e-23
0.00297567 -4.04284e-06 3.94702e-23
0.00301224 -2.74736e-06 3.90648e-23
0.00301224 -2.74736e-06 3.90648e-23
0.0030455 -1.61035e-06 1.94726e-23
0.0030455 -1.61035e-06 1.94726e-23
0.00307569 -6.2119e-07 0
0.00307569 -6.2119e-07 0
0.00310305 2.31251e-07 0
0.00310305 2.31251e-07 0
0.0031278 9.58502e-07 1.8596e-23
0.0031278 9.58502e-07 1.8596e-23
0.00315015 1.57314e-06 1.86774e-23
0.00315015 1.57314e-06 1.86774e-23
0.0031703 2.08791e-06 0
0.0031703 2.08791e-06 0
0.00318844 2.51395e-06 -1.80147e-23
0.00318844 2.51395e-06 -1.80147e-23
0.00320476 2.86124e-06 -1.80951e-23
0.00320476 2.86124e-06 -1.80951e-23
0.00321943 3.13747e-06 0
0.00321943 3.13747e-06 0
0.00323259 3.3516e-06 -1.74454e-23
0.00323259 3.3516e-06 -1.74454e-23
0.0032444 3.51152e-06 -1.75248e-23
0.0032444 3.51152e-06 -1.75248e-23
0.003255 3.62413e-06 0
0.003255 3.62413e-06 0
0.0032645 3.69971e-06 1.68877e-23
0.0032645 3.69971e-06 1.68877e-23
0.00327301 3.74257e-06 3.36703e-23
0.00327301 3.74257e-06 3.36703e-23
0.00328065 3.76498e-06 1.67823e-23
0.00328065 3.76498e-06 1.67823e-23
0.00328745 3.78273e-06 -1.63412e-23
0.00328745 3.78273e-06 -1.63412e-23
0.00329349 3.79223e-06 -1.64185e-23
0.00329349 3.79223e-06 -1.64185e-23
0.00329885 3.78522e-06 1.59829e-23
0.00329885 3.78522e-06 1.59829e-23
0.00330361 3.76201e-06 1.60594e-23
0.00330361 3.76201e-06 1.60594e-23
0.00330783 3.72525e-06 1.56293e-23
0.00330783 3.72525e-06 1.56293e-23
0.00331157 3.67885e-06 3.11593e-23
0.00331157 3.67885e-06 3.11593e-23
0.0033149 3.6306e-06 1.55295e-23
0.0033149 3.6306e-06 1.55295e-23
0.00331786 3.57952e-06 0
0.00331786 3.57952e-06 0
0.0033205 3.51265e-06 0
0.0033205 3.51265e-06 0
0.00332285 3.43129e-06 0
0.00332285 3.43129e-06 0
0.00332496 3.34926e-06 0
0.00332496 3.34926e-06 0
0.00332684 3.27185e-06 0
0.00332684 3.27185e-06 0
0.00332851 3.19934e-06 0
0.00332851 3.19934e-06 0
0.00333002 3.13107e-06 1.40929e-23
0.00333002 3.13107e-06 1.40929e-23
0.00333136 3.06537e-06 2.37265e-25
0.00333136 3.06537e-06 2.37265e-25
0.00333257 2.99803e-06 -1.39987e-23
0.00333257 2.99803e-06 -1.39987e-23
0.00333367 2.92299e-06 0
0.00333367 2.92299e-06 0
0.0033347 2.83637e-06 0
0.0033347 2.83637e-06 0
0.00333569 2.73917e-06 0
0.00333569 2.73917e-06 0
0.00333666 2.63649e-06 -2.62289e-23
0.00333666 2.63649e-06 -2.62289e-23
0.00333765 2.53487e-06 -2.63667e-23
0.00333765 2.53487e-06 -2.63667e-23
0.00333867 2.43979e-06 2.55916e-23
0.00333867 2.43979e-06 2.55916e-23
0.00333971 2.35402e-06 4.51739e-25
0.00333971 2.35402e-06 4.51739e-25
0.00334079 2.27762e-06 -2.54104e-23
0.00334079 2.27762e-06 -2.54104e-23
0.0033419 2.20902e-06 0
0.0033419 2.20902e-06 0
0.00334302 2.14625e-06 0
0.00334302 2.14625e-06 0
0.00334417 2.08782e-06 2.4029e-23
0.00334417 2.08782e-06 2.4029e-23
0.00334533 2.03293e-06 4.78812e-23
0.00334533 2.03293e-06 4.78812e-23
0.0033465 1.9814e-06 2.38511e-23
0.0033465 1.9814e-06 2.38511e-23
0.00334768 1.93332e-06 2.31116e-23
0.00334768 1.93332e-06 2.31116e-23
0.00334888 1.88884e-06 4.60479e-23
0.00334888 1.88884e-06 4.60479e-23
0.00335009 1.84806e-06 4.27292e-25
0.00335009 1.84806e-06 4.27292e-25
0.00335131 1.811e-06 -2.26331e-23
0.00335131 1.811e-06 -2.26331e-23
0.00335254 1.77763e-06 0
0.00335254 1.77763e-06 0
0.00335378 1.74782e-06 -2.16138e-23
0.00335378 1.74782e-06 -2.16138e-23
0.00335503 1.7214e-06 -2.17355e-23
0.00335503 1.7214e-06 -2.17355e-23
0.00335629 1.69821e-06 0
0.00335629 1.69821e-06 0
0.00335755 1.67812e-06 0
0.00335755 1.67812e-06 0
0.00335881 1.66107e-06 0
0.00335881 1.66107e-06 0
0.00336008 1.64703e-06 2.01524e-23
0.00336008 1.64703e-06 2.01524e-23
0.00336134 1.63606e-06 4.01324e-23
0.00336134 1.63606e-06 4.01324e-23
0.00336259 1.62826e-06 1.99788e-23
0.00336259 1.62826e-06 1.99788e-23
0.00336383 1.6238e-06 1.92916e-23
0.00336383 1.6238e-06 1.92916e-23
0.00336505 1.62289e-06 1.94039e-23
0.00336505 1.62289e-06 1.94039e-23
0.00336625 1.62599e-06 0
0.00336625 1.62599e-06 0
0.0033674 1.63351e-06 1.84422e-23
0.0033674 1.63351e-06 1.84422e-23
0.00336851 1.64631e-06 1.85508e-23
0.00336851 1.64631e-06 1.85508e-23
0.00336956 1.66518e-06 1.78819e-23
0.00336956 1.66518e-06 1.78819e-23
0.00337052 1.69151e-06 1.7988e-23
0.00337052 1.69151e-06 1.7988e-23
0.00337137 1.72685e-06 0
0.00337137 1.72685e-06 0
0.00337209 1.7733e-06 1.70502e-23
0.00337209 1.7733e-06 1.70502e-23
0.00337261 1.83391e-06 1.71524e-23
0.00337261 1.83391e-06 1.71524e-23
0.00337293 1.91165e-06 1.65013e-23