/*--------------------------------*- C++ -*----------------------------------*\
  =========                 |
  \\      /  F ield         | OpenFOAM: The Open Source CFD Toolbox
   \\    /   O peration     | Website:  https://openfoam.org
    \\  /    A nd           | Version:  7
     \\/     M anipulation  |
\*---------------------------------------------------------------------------*/
FoamFile
{
    version     2.0;
    format      ascii;
    class       volScalarField;
    location    "0.06";
    object      k;
}
// * * * * * * * * * * * * * * * * * * * * * * * * * * * * * * * * * * * * * //

dimensions      [0 2 -2 0 0 0 0];

internalField   nonuniform List<scalar> 
12225
(
1.93878e-05
1.80551e-05
1.66725e-05
1.53948e-05
1.38884e-05
1.29684e-05
1.13793e-05
1.02959e-05
8.81013e-06
6.96808e-06
6.45025e-06
6.93977e-06
7.66758e-06
7.15303e-06
5.15479e-06
4.39623e-06
4.1704e-06
5.0981e-06
1.99841e-05
1.98897e-05
1.96658e-05
1.94319e-05
1.91492e-05
1.878e-05
1.8447e-05
1.80413e-05
1.73662e-05
1.68212e-05
1.6281e-05
1.56601e-05
1.52736e-05
1.50486e-05
1.4716e-05
1.45197e-05
1.44327e-05
1.44185e-05
1.99987e-05
1.92338e-05
1.91854e-05
1.91571e-05
1.9065e-05
1.88815e-05
1.87708e-05
1.86489e-05
1.84628e-05
1.83007e-05
1.8189e-05
1.80812e-05
1.7965e-05
1.78312e-05
1.76835e-05
1.75784e-05
1.75347e-05
1.75084e-05
2.00378e-05
1.99605e-05
1.92842e-05
1.48543e-05
1.2161e-05
1.21929e-05
1.27548e-05
1.36424e-05
1.42881e-05
1.4868e-05
1.54865e-05
1.61077e-05
1.66027e-05
1.68966e-05
1.70257e-05
1.70629e-05
1.71025e-05
1.71417e-05
2.07737e-05
2.10751e-05
2.27737e-05
2.27015e-05
2.14085e-05
1.94966e-05
1.81227e-05
1.51166e-05
1.27657e-05
1.29847e-05
1.45599e-05
1.6352e-05
1.73657e-05
1.7881e-05
1.80606e-05
1.80815e-05
1.8011e-05
1.76939e-05
2.09966e-05
2.1116e-05
2.1944e-05
2.37399e-05
2.4025e-05
2.36664e-05
2.2214e-05
2.08189e-05
2.02181e-05
2.02001e-05
2.0499e-05
2.14706e-05
2.21492e-05
2.24024e-05
2.24382e-05
2.23977e-05
2.22296e-05
2.17256e-05
2.06777e-05
2.13622e-05
2.19568e-05
2.24209e-05
2.2841e-05
2.32167e-05
2.36271e-05
2.38142e-05
2.38108e-05
2.37227e-05
2.37024e-05
2.37511e-05
2.39707e-05
2.41999e-05
2.43169e-05
2.43614e-05
2.43603e-05
2.42871e-05
2.01934e-05
2.09328e-05
2.3321e-05
2.39043e-05
2.36213e-05
2.31231e-05
2.30797e-05
2.32587e-05
2.43352e-05
2.64256e-05
2.7642e-05
2.81444e-05
2.82689e-05
2.8242e-05
2.79416e-05
2.67457e-05
2.53858e-05
2.45031e-05
2.0255e-05
2.22907e-05
2.48659e-05
2.4913e-05
2.4121e-05
2.25891e-05
2.21994e-05
2.24772e-05
2.41916e-05
2.63652e-05
2.74801e-05
2.79311e-05
2.80167e-05
2.79264e-05
2.7329e-05
2.58279e-05
2.46627e-05
2.40215e-05
2.12158e-05
2.12225e-05
2.15338e-05
2.33447e-05
2.44196e-05
2.4185e-05
2.36194e-05
2.36258e-05
2.40597e-05
2.45785e-05
2.47379e-05
2.47462e-05
2.46575e-05
2.42689e-05
2.36166e-05
2.31158e-05
2.28392e-05
2.28176e-05
2.08234e-05
2.04142e-05
2.06981e-05
2.33358e-05
2.49807e-05
2.44658e-05
2.34957e-05
2.34123e-05
2.36643e-05
2.40103e-05
2.40547e-05
2.3962e-05
2.34377e-05
2.2633e-05
2.21035e-05
2.18143e-05
2.15627e-05
2.14819e-05
2.03753e-05
2.02039e-05
2.10009e-05
2.30308e-05
2.2993e-05
2.20985e-05
2.15907e-05
2.16123e-05
2.21177e-05
2.28842e-05
2.31817e-05
2.32091e-05
2.30937e-05
2.25971e-05
2.20571e-05
2.17834e-05
2.16388e-05
2.15088e-05
2.03291e-05
2.01675e-05
2.05565e-05
2.11005e-05
2.10512e-05
2.08109e-05
2.08108e-05
2.10536e-05
2.1423e-05
2.15978e-05
2.16836e-05
2.18343e-05
2.20655e-05
2.2191e-05
2.22383e-05
2.22373e-05
2.2222e-05
2.2188e-05
2.11015e-05
2.05226e-05
2.04825e-05
2.06139e-05
2.09185e-05
2.14617e-05
2.17799e-05
2.19894e-05
2.20997e-05
2.21137e-05
2.20425e-05
2.19154e-05
2.18563e-05
2.17871e-05
2.17004e-05
2.16518e-05
2.16541e-05
2.17103e-05
2.09827e-05
2.14669e-05
2.15771e-05
2.13467e-05
2.10744e-05
2.11695e-05
2.20263e-05
2.3151e-05
2.34786e-05
2.34884e-05
2.30601e-05
2.18661e-05
2.11236e-05
2.077e-05
2.06445e-05
2.06316e-05
2.06837e-05
2.08677e-05
2.07754e-05
2.08318e-05
2.0761e-05
2.07221e-05
2.07324e-05
2.08042e-05
2.10133e-05
2.12746e-05
2.14941e-05
2.15679e-05
2.15402e-05
2.13321e-05
2.10452e-05
2.08655e-05
2.07451e-05
2.06737e-05
2.06523e-05
2.06731e-05
2.03708e-05
2.05456e-05
2.04586e-05
2.03776e-05
2.03769e-05
2.03831e-05
2.03996e-05
2.04815e-05
2.05413e-05
2.05481e-05
2.05412e-05
2.05335e-05
2.05359e-05
2.05463e-05
2.05747e-05
2.06121e-05
2.06374e-05
2.0654e-05
2.02529e-05
2.0369e-05
2.04144e-05
2.05147e-05
2.05994e-05
2.06287e-05
2.06318e-05
2.0619e-05
2.05795e-05
2.05462e-05
2.05279e-05
2.05276e-05
2.05416e-05
2.05967e-05
2.06559e-05
2.06898e-05
2.07012e-05
2.07001e-05
2.04567e-05
2.03521e-05
2.0222e-05
2.03227e-05
2.08454e-05
2.15451e-05
2.18438e-05
2.18654e-05
2.17207e-05
2.11914e-05
2.08374e-05
2.07257e-05
2.07187e-05
2.07673e-05
2.08981e-05
2.09627e-05
2.09768e-05
2.09686e-05
2.01807e-05
2.02006e-05
2.07082e-05
2.11966e-05
2.13566e-05
2.13959e-05
2.14089e-05
2.14476e-05
2.15057e-05
2.14723e-05
2.1187e-05
2.09515e-05
2.09105e-05
2.09359e-05
2.11107e-05
2.13781e-05
2.15313e-05
2.16076e-05
2.09943e-05
2.08941e-05
2.07197e-05
2.05579e-05
2.0517e-05
2.05219e-05
2.05667e-05
2.07774e-05
2.13942e-05
2.16293e-05
2.15484e-05
2.10986e-05
2.07261e-05
2.06187e-05
2.06131e-05
2.06561e-05
2.08174e-05
2.0968e-05
2.05218e-05
2.04848e-05
2.03138e-05
2.03833e-05
2.07777e-05
2.10694e-05
2.11192e-05
2.10971e-05
2.09285e-05
2.06295e-05
2.04645e-05
2.03886e-05
2.0312e-05
2.02177e-05
2.01687e-05
2.01722e-05
2.02138e-05
2.02725e-05
2.04111e-05
2.07042e-05
2.05671e-05
2.03984e-05
2.0445e-05
2.06541e-05
2.081e-05
2.08785e-05
2.0902e-05
2.09102e-05
2.09305e-05
2.09765e-05
2.09796e-05
2.08925e-05
2.06324e-05
2.05108e-05
2.04962e-05
2.05109e-05
2.0248e-05
2.05913e-05
2.0599e-05
2.0467e-05
2.03005e-05
2.02776e-05
2.03394e-05
2.07371e-05
2.17903e-05
2.23523e-05
2.24618e-05
2.24392e-05
2.22994e-05
2.19064e-05
2.15428e-05
2.12693e-05
2.10269e-05
2.08283e-05
2.03752e-05
2.08008e-05
2.07733e-05
2.0472e-05
2.02236e-05
2.02001e-05
2.02716e-05
2.08004e-05
2.20009e-05
2.24179e-05
2.2428e-05
2.2335e-05
2.20583e-05
2.16605e-05
2.12443e-05
2.087e-05
2.05869e-05
2.04257e-05
2.10568e-05
2.16369e-05
2.12173e-05
2.06248e-05
2.05173e-05
2.05421e-05
2.06507e-05
2.09239e-05
2.14894e-05
2.1948e-05
2.21437e-05
2.21603e-05
2.20772e-05
2.16513e-05
2.10448e-05
2.07338e-05
2.06255e-05
2.05968e-05
2.0113e-05
2.01265e-05
2.00781e-05
2.00114e-05
1.99957e-05
1.99957e-05
2.00067e-05
1.9997e-05
1.98234e-05
1.95292e-05
1.9459e-05
1.94762e-05
1.95517e-05
1.97125e-05
2.00793e-05
2.04819e-05
2.14382e-05
2.21521e-05
2.0181e-05
1.92146e-05
1.75081e-05
1.79525e-05
1.92427e-05
2.1622e-05
2.65561e-05
3.48008e-05
4.26201e-05
4.8507e-05
5.23353e-05
5.44813e-05
5.73555e-05
6.13736e-05
7.03463e-05
7.86424e-05
8.82864e-05
9.62071e-05
3.19159e-05
9.96208e-05
0.000164819
0.000226632
0.000266709
0.000308079
0.000377713
0.00046332
0.000530655
0.000563395
0.000570996
0.000570843
0.000569199
0.000569206
0.000574623
0.000596431
0.0006292
0.000654885
0.00263553
0.00256583
0.00253398
0.00243956
0.00230575
0.00225976
0.00225059
0.00224035
0.00220149
0.00205546
0.00183772
0.00166333
0.00153392
0.0014491
0.00140299
0.00138457
0.00138093
0.0013814
0.000159378
0.00050678
0.00071716
0.000866551
0.00104831
0.00141904
0.00174342
0.00172651
0.00154806
0.00127077
0.00108951
0.000962199
0.000878992
0.000820111
0.000778355
0.000742683
0.000712249
0.000698322
0.000677737
0.000663289
0.00063058
0.000602959
0.00060711
0.000625904
0.000651196
0.000702136
0.000726344
0.000711452
0.000663211
0.000601721
0.000665652
0.00107473
0.00198596
0.00244175
0.00276566
0.00318303
0.00391828
0.0055426
0.00956818
0.0150941
0.017487
0.0158969
0.0139794
0.0150294
0.0316147
0.0496364
0.0205811
0.00243432
0.000921502
0.000708229
0.000675357
0.000652784
0.000654854
0.000600815
0.000517294
0.000464528
0.00036798
0.000298308
0.000240377
0.000188416
0.000143976
0.000120564
9.06406e-05
7.71572e-05
6.83682e-05
6.40892e-05
6.28443e-05
6.48385e-05
6.60663e-05
6.70875e-05
6.84239e-05
6.96695e-05
7.09964e-05
7.23374e-05
7.36135e-05
7.46954e-05
7.5475e-05
7.6025e-05
7.62827e-05
7.63625e-05
7.60608e-05
7.51086e-05
7.43978e-05
7.38284e-05
7.25898e-05
7.08576e-05
6.91546e-05
6.73211e-05
6.5276e-05
6.3593e-05
6.20881e-05
6.03767e-05
5.83758e-05
5.60873e-05
5.38064e-05
5.20007e-05
5.00799e-05
4.76163e-05
4.5633e-05
4.36207e-05
4.15687e-05
3.96127e-05
3.76433e-05
3.56872e-05
3.37238e-05
3.17388e-05
2.97298e-05
2.76916e-05
2.56175e-05
2.3496e-05
2.12485e-05
1.88879e-05
1.65058e-05
1.42069e-05
1.20896e-05
1.02173e-05
8.5666e-06
7.12277e-06
5.87697e-06
4.81256e-06
3.91337e-06
3.16406e-06
2.54234e-06
2.03708e-06
1.63095e-06
1.30567e-06
1.04612e-06
8.39928e-07
6.76937e-07
5.48535e-07
4.4737e-07
3.67299e-07
3.03344e-07
2.51617e-07
2.09206e-07
1.74007e-07
1.44521e-07
1.19678e-07
9.86949e-08
8.09763e-08
6.60488e-08
5.35229e-08
4.30679e-08
3.43973e-08
2.72587e-08
2.1428e-08
1.67051e-08
1.29123e-08
9.89253e-09
7.50956e-09
5.64624e-09
4.20305e-09
3.09626e-09
2.25614e-09
1.62533e-09
1.15716e-09
8.13976e-10
5.65658e-10
3.88292e-10
2.63223e-10
1.76169e-10
1.16378e-10
7.58645e-11
4.87936e-11
3.09531e-11
1.93665e-11
1.19438e-11
7.26368e-12
4.34922e-12
2.56879e-12
1.48936e-12
8.5533e-13
4.72634e-13
2.75432e-13
1.19761e-13
1.22652e-13
1.18722e-12
5.36165e-10
2.49588e-07
5.21106e-07
0.000197778
0.000569184
0.000982315
0.00134109
0.00134037
0.00138129
0.00147936
0.00147106
0.00143172
0.00134374
0.00124151
0.00114744
0.00112766
0.00113476
0.00116684
0.0011993
0.00123007
0.00128266
0.00130234
0.00129771
0.00128049
0.00124686
0.00117748
0.00108134
0.000976411
0.000909653
0.000846519
0.000807912
0.00074822
0.000686217
0.000698029
0.000768144
0.000940354
0.00113039
0.00132116
0.00135114
0.00130255
0.00130972
0.00149884
0.0022706
0.00303131
0.00439362
0.0121393
0.0191956
0.021406
0.0127591
0.00376066
0.000924824
0.000519615
0.000397637
0.000339882
0.000295475
0.000249057
0.000221511
0.00019351
0.000180636
0.00016764
0.000161791
0.000158881
0.000157876
0.000158202
0.000163184
0.000166359
0.000171519
0.00017709
0.000181643
0.000187547
0.000193026
0.000198745
0.000204683
0.000209863
0.000215039
0.000219404
0.000223213
0.000225595
0.000226569
0.000226997
0.000227183
0.000227263
0.000227091
0.000226114
0.000224377
0.000222479
0.000220457
0.000217571
0.000213932
0.000210403
0.000206513
0.00020158
0.000196476
0.000191341
0.000185181
0.000178468
0.000171064
0.000162944
0.000155045
0.000146515
0.000137183
0.000128803
0.000120118
0.000112658
0.000106013
9.99074e-05
9.41498e-05
8.86612e-05
8.33959e-05
7.84166e-05
7.37878e-05
6.94906e-05
6.5441e-05
6.16325e-05
5.79785e-05
5.43244e-05
5.0524e-05
4.64541e-05
4.20775e-05
3.76545e-05
3.34099e-05
2.94244e-05
2.57089e-05
2.22603e-05
1.90896e-05
1.62275e-05
1.36877e-05
1.14751e-05
9.58251e-06
7.98836e-06
6.66381e-06
5.57737e-06
4.69501e-06
3.98217e-06
3.4065e-06
2.93897e-06
2.55414e-06
2.23049e-06
1.95123e-06
1.70465e-06
1.48352e-06
1.28387e-06
1.1037e-06
9.41867e-07
7.97515e-07
6.69789e-07
5.57754e-07
4.60392e-07
3.76622e-07
3.05294e-07
2.452e-07
1.95094e-07
1.53739e-07
1.19944e-07
9.26165e-08
7.07593e-08
5.34666e-08
3.99338e-08
2.94606e-08
2.14548e-08
1.54212e-08
1.0941e-08
7.66011e-09
5.29087e-09
3.60424e-09
2.42085e-09
1.60293e-09
1.04595e-09
6.72587e-10
4.25964e-10
2.65793e-10
1.63185e-10
9.87422e-11
5.86279e-11
3.44993e-11
1.94849e-11
1.16427e-11
5.2386e-12
5.94635e-12
6.14702e-12
2.73728e-10
4.8139e-08
8.07812e-08
0.00118122
0.00134376
0.00311618
0.00302649
0.00209926
0.00155639
0.0012573
0.00116317
0.00116043
0.00118499
0.00127805
0.00141986
0.00156317
0.00178907
0.00203767
0.0021896
0.00229472
0.00233966
0.00233587
0.00231615
0.00226316
0.00221092
0.00211875
0.00199621
0.00178985
0.00158536
0.0013453
0.00115219
0.000984323
0.000857825
0.00077737
0.000775464
0.000785838
0.000819702
0.000862488
0.000826404
0.000838321
0.00105224
0.00166208
0.00363661
0.00982227
0.0117767
0.01257
0.00989344
0.00422339
0.00178321
0.000625862
0.000321489
0.000255721
0.000230616
0.000215799
0.000207208
0.000200653
0.000198181
0.000197307
0.000199598
0.000204399
0.000211521
0.000219103
0.000228915
0.000239108
0.00024769
0.000258284
0.000268429
0.000277151
0.000287824
0.000294377
0.000297995
0.00029965
0.000300305
0.000300411
0.0002995
0.000296783
0.000293098
0.000289046
0.000284986
0.000281439
0.000278524
0.00027626
0.000274894
0.000274261
0.000273873
0.000273245
0.000272441
0.000271558
0.00027071
0.000269809
0.000268572
0.000266842
0.000264743
0.000262266
0.000259385
0.000255864
0.000251451
0.000246353
0.000240537
0.000233411
0.000224614
0.00021483
0.000203209
0.000190472
0.000176766
0.000163113
0.000149784
0.000136947
0.000124656
0.000113097
0.000102533
9.34483e-05
8.6061e-05
7.9807e-05
7.45808e-05
7.01158e-05
6.61042e-05
6.24174e-05
5.90782e-05
5.59103e-05
5.27058e-05
4.94817e-05
4.61986e-05
4.27131e-05
3.89106e-05
3.47998e-05
3.05261e-05
2.63039e-05
2.23408e-05
1.87506e-05
1.55324e-05
1.26997e-05
1.02785e-05
8.27786e-06
6.6773e-06
5.42998e-06
4.47421e-06
3.74594e-06
3.18774e-06
2.7529e-06
2.40591e-06
2.12103e-06
1.88006e-06
1.67048e-06
1.48386e-06
1.31476e-06
1.1597e-06
1.01659e-06
8.84368e-07
7.62737e-07
6.51742e-07
5.51379e-07
4.61674e-07
3.82511e-07
3.13529e-07
2.54158e-07
2.03685e-07
1.61309e-07
1.26187e-07
9.74599e-08
7.42763e-08
5.58266e-08
4.13614e-08
3.01938e-08
2.17087e-08
1.53663e-08
1.07057e-08
7.33818e-09
4.94884e-09
3.28102e-09
2.13954e-09
1.36972e-09
8.62729e-10
5.32221e-10
3.24633e-10
1.91563e-10
1.13459e-10
6.60012e-11
3.08268e-11
5.70214e-11
5.66992e-11
1.87764e-09
5.86715e-09
0.00293913
0.00611411
0.00597848
0.00398047
0.00221853
0.00138507
0.00112188
0.00109055
0.00111952
0.00123065
0.00155324
0.00186069
0.00223703
0.0024938
0.00264765
0.00274849
0.00279915
0.00283184
0.00283478
0.00282778
0.00281064
0.00278748
0.00274944
0.00268705
0.00255874
0.00239096
0.00221842
0.00192352
0.00163452
0.00138207
0.00112794
0.000912767
0.000823111
0.000781305
0.000747599
0.000749738
0.00107179
0.00321985
0.00785299
0.00924428
0.00969412
0.00873652
0.00566739
0.00216459
0.000900344
0.000433101
0.000277369
0.000244093
0.00023747
0.000236195
0.000243159
0.00026006
0.000275705
0.000293746
0.000305076
0.000320624
0.000328185
0.000335237
0.00034078
0.000346801
0.000352896
0.000356857
0.000358025
0.000358343
0.000358351
0.000358049
0.000356408
0.000351797
0.000345892
0.000339294
0.000332376
0.000325111
0.000317269
0.000308906
0.000300708
0.000293661
0.000288262
0.000284088
0.000281216
0.000280075
0.000279787
0.000279837
0.000280253
0.000280805
0.000281001
0.000281025
0.000280697
0.00027997
0.000278542
0.00027608
0.000272779
0.000269421
0.000265998
0.00026264
0.000259249
0.00025562
0.000251136
0.00024547
0.000239574
0.000232613
0.000224131
0.000214131
0.000203334
0.000191904
0.000180068
0.000168095
0.00015593
0.00014341
0.000130095
0.00011616
0.000102799
9.12441e-05
8.2851e-05
7.68884e-05
7.24793e-05
6.89884e-05
6.60657e-05
6.3585e-05
6.13804e-05
5.93931e-05
5.75317e-05
5.56108e-05
5.33289e-05
5.04518e-05
4.6934e-05
4.28046e-05
3.80953e-05
3.29043e-05
2.74121e-05
2.19441e-05
1.69248e-05
1.27116e-05
9.44168e-06
7.04926e-06
5.34709e-06
4.13935e-06
3.27553e-06
2.65123e-06
2.19465e-06
1.85557e-06
1.59822e-06
1.39715e-06
1.23443e-06
1.09793e-06
9.79685e-07
8.74391e-07
7.78458e-07
6.89546e-07
6.06496e-07
5.28767e-07
4.56299e-07
3.89395e-07
3.28455e-07
2.73775e-07
2.2546e-07
1.83414e-07
1.47359e-07
1.16881e-07
9.14821e-08
7.0633e-08
5.37821e-08
4.03692e-08
2.98546e-08
2.1741e-08
1.55806e-08
1.09824e-08
7.60967e-09
5.1819e-09
3.46713e-09
2.2787e-09
1.47153e-09
9.30932e-10
5.81083e-10
3.50337e-10
2.15087e-10
1.17529e-10
7.79125e-11
3.9004e-11
8.46229e-11
3.21574e-10
0.00156845
0.00954389
0.00641088
0.00268779
0.0014284
0.00113105
0.00107837
0.00112167
0.00127569
0.00162978
0.00214971
0.00240063
0.00263332
0.00277357
0.00282807
0.00295879
0.00301842
0.00307299
0.00315983
0.00317161
0.0031634
0.00314518
0.00312053
0.00307604
0.00298169
0.00280794
0.00260449
0.00239985
0.00201363
0.00165923
0.00140315
0.0011445
0.000961993
0.000806487
0.000774
0.00110776
0.00460562
0.00748583
0.00799614
0.00796214
0.00555654
0.00269048
0.0013951
0.000603314
0.000351015
0.000276945
0.000260642
0.00025898
0.000279688
0.000303865
0.000322934
0.000334315
0.000342399
0.000346734
0.000349386
0.000352745
0.000355525
0.000359868
0.000365002
0.000370689
0.000374706
0.000375625
0.000375616
0.000375208
0.000374353
0.000371254
0.000365373
0.000358048
0.000349811
0.00034067
0.000330942
0.000320473
0.00030913
0.000298601
0.000290577
0.00028456
0.000280074
0.00027809
0.000277744
0.000277998
0.000279013
0.000280812
0.000283535
0.000286271
0.000287738
0.000288029
0.000287869
0.00028712
0.000285077
0.000281309
0.000276204
0.00027067
0.000264887
0.000259478
0.000254418
0.000250239
0.000246997
0.000244032
0.000239829
0.000234242
0.000227423
0.000218984
0.000208623
0.000197426
0.000186339
0.000175817
0.000165728
0.000155972
0.000146588
0.000137199
0.000127329
0.000116084
0.000102959
9.04651e-05
8.09518e-05
7.45387e-05
7.01127e-05
6.69239e-05
6.44327e-05
6.23268e-05
6.0512e-05
5.90146e-05
5.77413e-05
5.63467e-05
5.44427e-05
5.19775e-05
4.92467e-05
4.64758e-05
4.3515e-05
3.9957e-05
3.54765e-05
3.02159e-05
2.47385e-05
1.96111e-05
1.51601e-05
1.14941e-05
8.60195e-06
6.40076e-06
4.76915e-06
3.57737e-06
2.71358e-06
2.09165e-06
1.64629e-06
1.32761e-06
1.09757e-06
9.27875e-07
7.98213e-07
6.94771e-07
6.08629e-07
5.33549e-07
4.65262e-07
4.01421e-07
3.42267e-07
2.88279e-07
2.39803e-07
1.9701e-07
1.59868e-07
1.28159e-07
1.01509e-07
7.94217e-08
6.13474e-08
4.67595e-08
3.51532e-08
2.60547e-08
1.90292e-08
1.36888e-08
9.69447e-09
6.75595e-09
4.6302e-09
3.1192e-09
2.06578e-09
1.34291e-09
8.59083e-10
5.36597e-10
3.33073e-10
1.96436e-10
1.22031e-10
6.5027e-11
4.13092e-11
4.07037e-11
0.00396739
0.00507129
0.00294491
0.00156756
0.00117807
0.00111746
0.00117558
0.00133853
0.00172216
0.00208215
0.00245747
0.00272901
0.00305641
0.00336413
0.00358912
0.00410344
0.00432422
0.00465487
0.00483278
0.00496717
0.00492103
0.00477362
0.00447392
0.00414229
0.00384516
0.00349914
0.00312784
0.00282933
0.00249822
0.00208417
0.00166071
0.00141421
0.00106226
0.000840753
0.00106553
0.00432623
0.00655611
0.00703476
0.00635769
0.00371813
0.0017698
0.000868091
0.000487014
0.000330003
0.000289238
0.000281454
0.00028973
0.000324379
0.000343546
0.000352934
0.000360033
0.000364436
0.000366544
0.000367925
0.000370766
0.000373895
0.000378565
0.000383988
0.000389336
0.000394305
0.000396574
0.000396958
0.000396604
0.000394918
0.000390514
0.000382633
0.000375579
0.000369093
0.000359771
0.000347974
0.00033672
0.000326244
0.00031431
0.000303364
0.000298115
0.000296516
0.000296438
0.000297104
0.000298762
0.000301683
0.000304622
0.000305213
0.00030453
0.000303012
0.000300893
0.00029887
0.00029691
0.000294528
0.000290965
0.000285984
0.000279383
0.000271587
0.000262947
0.000254294
0.000246155
0.000239922
0.000235995
0.00023328
0.000232078
0.000230988
0.000227845
0.000222193
0.000211925
0.000198053
0.000184372
0.000171652
0.000161261
0.000153728
0.000146986
0.000139353
0.000131603
0.000124
0.000116264
0.000107233
9.63559e-05
8.54567e-05
7.70627e-05
7.12578e-05
6.72175e-05
6.42615e-05
6.19228e-05
6.00043e-05
5.84966e-05
5.73845e-05
5.64325e-05
5.51426e-05
5.31098e-05
5.04723e-05
4.77992e-05
4.54507e-05
4.3343e-05
4.09337e-05
3.75878e-05
3.31046e-05
2.78914e-05
2.26076e-05
1.77753e-05
1.36529e-05
1.03043e-05
7.6703e-06
5.63634e-06
4.09157e-06
2.94469e-06
2.11516e-06
1.53029e-06
1.12713e-06
8.53726e-07
6.69132e-07
5.42528e-07
4.52832e-07
3.86782e-07
3.36165e-07
2.94022e-07
2.55784e-07
2.1944e-07
1.85328e-07
1.54026e-07
1.25963e-07
1.01382e-07
8.03319e-08
6.26919e-08
4.81987e-08
3.65094e-08
2.72458e-08
2.00292e-08
1.45005e-08
1.03359e-08
7.25044e-09
5.00475e-09
3.39587e-09
2.26604e-09
1.48328e-09
9.56111e-10
6.01086e-10
3.75375e-10
2.24727e-10
1.367e-10
7.70938e-11
4.65931e-11
2.95864e-11
0.00199999
0.00234961
0.00186443
0.00126786
0.00115072
0.00119831
0.00135104
0.00165114
0.00209203
0.00255542
0.00325889
0.00403987
0.00459744
0.00504912
0.00553138
0.0061977
0.00653667
0.007239
0.00765897
0.0081702
0.00830397
0.00813826
0.00766251
0.00668408
0.00574528
0.00472628
0.00379752
0.00313245
0.00264556
0.00225404
0.00185541
0.0014477
0.00102238
0.00100383
0.00350685
0.00577195
0.00614074
0.00501644
0.00261812
0.00135187
0.000697328
0.000437337
0.000345946
0.000315652
0.000307055
0.000328748
0.000356444
0.000369818
0.000376741
0.000381192
0.000384892
0.000387379
0.00039266
0.000398846
0.000406601
0.00041684
0.000428705
0.000439786
0.000447173
0.000451275
0.000453523
0.00045478
0.000455194
0.000453542
0.000442659
0.000425478
0.000413455
0.000407482
0.00039862
0.000381532
0.000363083
0.00035202
0.000340222
0.000330945
0.000328605
0.000328064
0.00032798
0.000328173
0.000327681
0.000325449
0.000321477
0.000316468
0.000312252
0.000307705
0.000302414
0.000297753
0.000292589
0.000287437
0.000281673
0.000275354
0.00026789
0.000258899
0.00024832
0.000236398
0.000223725
0.000211559
0.000202264
0.000197598
0.000199489
0.000208864
0.000220595
0.000225775
0.000225964
0.000218493
0.000197696
0.000173875
0.000155189
0.000141522
0.000133766
0.000131154
0.000128049
0.000122939
0.000117096
0.000110849
0.000104062
9.62323e-05
8.71001e-05
7.83686e-05
7.17669e-05
6.70897e-05
6.3715e-05
6.11204e-05
5.90387e-05
5.74517e-05
5.63854e-05
5.56726e-05
5.4868e-05
5.33924e-05
5.09461e-05
4.79573e-05
4.5194e-05
4.3083e-05
4.15165e-05
3.98965e-05
3.74801e-05
3.38853e-05
2.9305e-05
2.43134e-05
1.94926e-05
1.52054e-05
1.15919e-05
8.64804e-06
6.30307e-06
4.48357e-06
3.11884e-06
2.13205e-06
1.44395e-06
9.80437e-07
6.77798e-07
4.84907e-07
3.63061e-07
2.84687e-07
2.3226e-07
1.95699e-07
1.68807e-07
1.46506e-07
1.25824e-07
1.06217e-07
8.80175e-08
7.15688e-08
5.71121e-08
4.47453e-08
3.44325e-08
2.60346e-08
1.93474e-08
1.41335e-08
1.01501e-08
7.16545e-09
4.97202e-09
3.39008e-09
2.27104e-09
1.49366e-09
9.64766e-10
6.11003e-10
3.80056e-10
2.31441e-10
1.38304e-10
8.09939e-11
4.63487e-11
2.65575e-11
0.000623874
0.0018593
0.00161377
0.00116622
0.00115259
0.00126684
0.00161627
0.00209036
0.00303869
0.0040766
0.00474923
0.00518892
0.00552365
0.00598234
0.00656497
0.00758675
0.00863238
0.0106715
0.0121172
0.0136307
0.0144964
0.0143504
0.0136872
0.0119697
0.00908076
0.00686609
0.00520609
0.0039282
0.00304876
0.00233442
0.00184234
0.00134109
0.00104923
0.00249904
0.00506951
0.00551634
0.0045716
0.00221677
0.0011462
0.000654396
0.000448264
0.000378954
0.000356709
0.000352594
0.000383282
0.000407312
0.00041535
0.000417994
0.00041853
0.000418518
0.000420453
0.000428364
0.000441653
0.000461666
0.000484293
0.000515065
0.000550661
0.000586397
0.000615014
0.000630373
0.0006413
0.000650186
0.000661997
0.000672629
0.000673408
0.000645977
0.000588473
0.000551653
0.000533319
0.000504695
0.000454223
0.00042301
0.000408598
0.000391092
0.000378154
0.000372402
0.000366404
0.000363627
0.000359139
0.000353474
0.000349073
0.000344076
0.00033802
0.000328669
0.000319049
0.000310178
0.000302114
0.000295234
0.000288724
0.000282267
0.000275048
0.000266535
0.000256073
0.000242838
0.000226832
0.000209447
0.000192414
0.000176092
0.000162957
0.000155393
0.000159501
0.000185293
0.000217098
0.000232614
0.000235093
0.000221256
0.00018213
0.000146679
0.000125794
0.000115063
0.000111923
0.000112234
0.00011073
0.000107346
0.000103523
9.8542e-05
9.25968e-05
8.57839e-05
7.81937e-05
7.14481e-05
6.63655e-05
6.26661e-05
5.99166e-05
5.77744e-05
5.61396e-05
5.50688e-05
5.44748e-05
5.39786e-05
5.30705e-05
5.11711e-05
4.82552e-05
4.50337e-05
4.22954e-05
4.04187e-05
3.92528e-05
3.81887e-05
3.64814e-05
3.36514e-05
2.97021e-05
2.50704e-05
2.03571e-05
1.60118e-05
1.22333e-05
9.07476e-06
6.52248e-06
4.54018e-06
3.0663e-06
2.01699e-06
1.30038e-06
8.29866e-07
5.32061e-07
3.4958e-07
2.40402e-07
1.75343e-07
1.355e-07
1.09994e-07
9.29702e-08
8.0172e-08
6.88065e-08
5.79893e-08
4.7849e-08
3.86196e-08
3.04916e-08
2.35615e-08
1.78299e-08
1.32213e-08
9.61184e-09
6.8535e-09
4.79414e-09
3.29042e-09
2.21599e-09
1.46433e-09
9.49362e-10
6.03674e-10
3.76435e-10
2.30141e-10
1.37829e-10
8.09384e-11
4.65072e-11
2.63067e-11
0.000874248
0.00210896
0.00148093
0.00105484
0.00114108
0.00149142
0.00230822
0.0033218
0.00425654
0.00480866
0.00520218
0.00550633
0.00589783
0.00655025
0.00787687
0.010716
0.0137913
0.0162722
0.0187594
0.0204245
0.021218
0.0210461
0.0204002
0.0190257
0.0161874
0.0113878
0.00706525
0.00434848
0.00303698
0.00226414
0.00168077
0.00129153
0.00171989
0.00436614
0.0049904
0.00456256
0.0021684
0.00109774
0.000663547
0.000493288
0.000430569
0.000405776
0.000425289
0.000443733
0.000450715
0.000448767
0.000449233
0.000449137
0.000449732
0.000458457
0.000474021
0.000502247
0.000541828
0.000595547
0.000660684
0.000742919
0.000839733
0.000950335
0.00106747
0.00117056
0.00125156
0.00130024
0.00133549
0.00136949
0.00139121
0.00138534
0.00125838
0.00108664
0.000985297
0.000919741
0.000788433
0.000662856
0.000603913
0.000546782
0.000494947
0.000471567
0.000451172
0.000442984
0.000440428
0.000440558
0.000443658
0.000445661
0.000435978
0.000419545
0.000403799
0.000387469
0.000372069
0.000358508
0.000346392
0.00033572
0.000325577
0.000316211
0.000307932
0.00030024
0.000292154
0.000281513
0.000262111
0.000230923
0.000190284
0.000156634
0.000135076
0.000127499
0.000136946
0.000185661
0.000233104
0.000247022
0.000243222
0.000208461
0.000149901
0.000116496
0.000102827
9.82363e-05
9.8232e-05
9.7411e-05
9.53503e-05
9.40036e-05
9.1643e-05
8.78246e-05
8.28844e-05
7.681e-05
7.0428e-05
6.51163e-05
6.1121e-05
5.82013e-05
5.6027e-05
5.44684e-05
5.35001e-05
5.2997e-05
5.26443e-05
5.20418e-05
5.07031e-05
4.81261e-05
4.48928e-05
4.17665e-05
3.93429e-05
3.78452e-05
3.70646e-05
3.64197e-05
3.51926e-05
3.28769e-05
2.93532e-05
2.49225e-05
2.02295e-05
1.58229e-05
1.19467e-05
8.6994e-06
6.10473e-06
4.13216e-06
2.70402e-06
1.71637e-06
1.06192e-06
6.45312e-07
3.8998e-07
2.38927e-07
1.52234e-07
1.03342e-07
7.54277e-08
5.88636e-08
4.86634e-08
4.16578e-08
3.57002e-08
3.00223e-08
2.46469e-08
1.97225e-08
1.53835e-08
1.17042e-08
8.69393e-09
6.31045e-09
4.47934e-09
3.11139e-09
2.11588e-09
1.40925e-09
9.19457e-10
5.87796e-10
3.6815e-10
2.25978e-10
1.35886e-10
8.00835e-11
4.62045e-11
2.6183e-11
0.00144134
0.002159
0.000934994
0.000980089
0.00123571
0.00216794
0.00316914
0.00396874
0.00460639
0.00499059
0.0053118
0.00560024
0.00610925
0.0072466
0.0095171
0.0129493
0.0165629
0.0198485
0.0224777
0.0244692
0.0248137
0.0244518
0.0233192
0.0208979
0.0165414
0.0111701
0.00672928
0.00409847
0.00282872
0.00194985
0.00156569
0.00159229
0.00361829
0.00447914
0.00446981
0.00236095
0.00114654
0.00069301
0.000536712
0.000486008
0.000464494
0.000493697
0.000507782
0.000510135
0.000499929
0.000497204
0.000498949
0.000503323
0.000518212
0.000544767
0.000591416
0.000663914
0.000759979
0.000884902
0.00104389
0.00125366
0.00150356
0.0018033
0.00215279
0.00252838
0.00288396
0.003066
0.00314889
0.00316695
0.00307115
0.00304464
0.00284513
0.00245967
0.00215414
0.00194551
0.00162435
0.00136975
0.00115409
0.000980098
0.000824827
0.000731606
0.000656956
0.00062275
0.000606976
0.000598629
0.000588157
0.000559426
0.000524679
0.000490403
0.000457211
0.000427147
0.000401246
0.000379943
0.000361436
0.000345469
0.000331094
0.000318952
0.000310248
0.000305526
0.000305357
0.000310802
0.000318709
0.000322144
0.000312394
0.000266661
0.000192593
0.000135279
0.000115167
0.000116684
0.000150949
0.000224833
0.000250962
0.000249438
0.000224255
0.000155186
0.000110708
9.40296e-05
8.88049e-05
8.83019e-05
8.7661e-05
8.47938e-05
8.35953e-05
8.33508e-05
8.25746e-05
7.95203e-05
7.44773e-05
6.88666e-05
6.35523e-05
5.92909e-05
5.60885e-05
5.38114e-05
5.23915e-05
5.16569e-05
5.13121e-05
5.10655e-05
5.06241e-05
4.96181e-05
4.73227e-05
4.42399e-05
4.11084e-05
3.84946e-05
3.66532e-05
3.55395e-05
3.4925e-05
3.44408e-05
3.36067e-05
3.17425e-05
2.8212e-05
2.36907e-05
1.89266e-05
1.45058e-05
1.06768e-05
7.547e-06
5.12841e-06
3.35716e-06
2.12264e-06
1.30025e-06
7.74732e-07
4.5168e-07
2.60215e-07
1.50636e-07
8.99526e-08
5.72129e-08
3.95887e-08
2.98346e-08
2.42685e-08
2.07129e-08
1.77529e-08
1.48896e-08
1.21387e-08
9.60417e-09
7.37802e-09
5.50971e-09
4.00508e-09
2.83747e-09
1.96136e-09
1.32397e-09
8.7338e-10
5.63367e-10
3.5549e-10
2.19527e-10
1.32698e-10
7.85565e-11
4.55182e-11
2.5903e-11
0.00180244
0.00212939
0.000726137
0.000981462
0.00164613
0.00280092
0.00344952
0.00413872
0.0046802
0.0050028
0.00528498
0.00557823
0.00614571
0.00746972
0.00999664
0.0137288
0.0177005
0.0214268
0.0237927
0.024563
0.0246364
0.0240478
0.0226064
0.0197467
0.0150218
0.00959558
0.00546342
0.00325707
0.00219359
0.00178514
0.00171845
0.00291061
0.00408206
0.00423538
0.0029403
0.00127404
0.000742019
0.000567442
0.000519541
0.000508219
0.000546327
0.000562198
0.000564902
0.000555196
0.000534959
0.000530018
0.000529096
0.000543278
0.000581318
0.000640483
0.000740608
0.000893638
0.0011117
0.00141256
0.001813
0.00233168
0.00297871
0.00362646
0.0044108
0.00517512
0.00584379
0.00626954
0.00650654
0.00658103
0.00626342
0.00582363
0.00532935
0.00462597
0.00397118
0.00354137
0.00281919
0.00248043
0.00208859
0.00173234
0.00146585
0.00122105
0.00104375
0.000903539
0.000805524
0.000722666
0.00064691
0.000588573
0.000540045
0.000497812
0.000458173
0.00042258
0.000388971
0.000357536
0.000326594
0.00029638
0.000266865
0.000239264
0.000217205
0.000205693
0.000206755
0.000227408
0.0002715
0.000316917
0.000339881
0.000341911
0.000321495
0.000241373
0.000146969
0.000114192
0.000114399
0.000142478
0.000218563
0.000246453
0.000244548
0.000219202
0.000150649
0.00010475
8.72522e-05
8.15734e-05
8.04098e-05
7.9988e-05
7.76378e-05
7.59319e-05
7.57202e-05
7.57175e-05
7.50307e-05
7.18607e-05
6.67114e-05
6.16252e-05
5.72558e-05
5.3834e-05
5.14515e-05
5.00878e-05
4.95236e-05
4.93229e-05
4.91778e-05
4.8894e-05
4.81879e-05
4.62387e-05
4.31601e-05
4.00408e-05
3.73648e-05
3.53955e-05
3.41408e-05
3.34377e-05
3.30313e-05
3.2599e-05
3.17688e-05
2.98903e-05
2.60168e-05
2.12362e-05
1.64666e-05
1.22088e-05
8.66785e-06
5.9021e-06
3.86371e-06
2.43836e-06
1.48757e-06
8.79656e-07
5.0567e-07
2.83756e-07
1.56631e-07
8.63257e-08
4.87724e-08
2.93209e-08
1.93625e-08
1.41826e-08
1.14392e-08
9.79258e-09
8.4166e-09
7.03951e-09
5.68797e-09
4.43738e-09
3.34725e-09