/*--------------------------------*- C++ -*----------------------------------*\
  =========                 |
  \\      /  F ield         | OpenFOAM: The Open Source CFD Toolbox
   \\    /   O peration     | Website:  https://openfoam.org
    \\  /    A nd           | Version:  7
     \\/     M anipulation  |
\*---------------------------------------------------------------------------*/
FoamFile
{
    version     2.0;
    format      ascii;
    class       volScalarField;
    location    "0.06";
    object      pPrime2Mean;
}
// * * * * * * * * * * * * * * * * * * * * * * * * * * * * * * * * * * * * * //

dimensions      [0 4 -4 0 0 0 0];

internalField   nonuniform List<scalar> 
12225
(
5.96721e+06
5.8722e+06
5.7741e+06
5.67946e+06
5.58855e+06
5.50109e+06
5.41683e+06
5.33553e+06
5.25693e+06
5.18073e+06
5.10665e+06
5.03431e+06
4.96331e+06
4.8931e+06
4.82295e+06
4.75172e+06
4.67739e+06
4.59495e+06
5.96729e+06
5.87225e+06
5.77414e+06
5.67951e+06
5.5886e+06
5.50115e+06
5.4169e+06
5.33562e+06
5.25703e+06
5.18087e+06
5.10681e+06
5.03453e+06
4.9636e+06
4.8935e+06
4.82355e+06
4.75268e+06
4.67922e+06
4.59908e+06
5.96743e+06
5.87235e+06
5.77424e+06
5.67961e+06
5.58872e+06
5.50128e+06
5.41706e+06
5.33581e+06
5.25727e+06
5.18116e+06
5.10718e+06
5.03501e+06
4.96424e+06
4.89439e+06
4.82485e+06
4.75475e+06
4.68286e+06
4.60767e+06
5.96759e+06
5.8725e+06
5.7744e+06
5.67979e+06
5.58891e+06
5.50151e+06
5.41733e+06
5.33613e+06
5.25766e+06
5.18164e+06
5.1078e+06
5.0358e+06
4.96529e+06
4.89583e+06
4.82693e+06
4.75795e+06
4.68827e+06
4.61793e+06
5.96778e+06
5.87272e+06
5.77464e+06
5.68004e+06
5.5892e+06
5.50184e+06
5.41772e+06
5.33659e+06
5.25823e+06
5.18235e+06
5.10869e+06
5.03695e+06
4.9668e+06
4.89789e+06
4.82983e+06
4.76227e+06
4.69506e+06
4.62904e+06
5.96807e+06
5.87303e+06
5.77496e+06
5.6804e+06
5.5896e+06
5.5023e+06
5.41825e+06
5.33724e+06
5.25901e+06
5.18332e+06
5.1099e+06
5.0385e+06
4.96883e+06
4.90061e+06
4.83358e+06
4.76762e+06
4.70292e+06
4.64055e+06
5.96844e+06
5.87343e+06
5.77539e+06
5.68087e+06
5.59012e+06
5.5029e+06
5.41896e+06
5.33809e+06
5.26004e+06
5.18458e+06
5.11148e+06
5.04051e+06
4.97142e+06
4.90402e+06
4.83817e+06
4.77391e+06
4.7116e+06
4.65226e+06
5.96892e+06
5.87396e+06
5.77595e+06
5.68147e+06
5.5908e+06
5.50367e+06
5.41987e+06
5.33917e+06
5.26134e+06
5.18618e+06
5.11347e+06
5.043e+06
4.9746e+06
4.90812e+06
4.84355e+06
4.781e+06
4.7209e+06
4.66409e+06
5.96959e+06
5.87464e+06
5.77666e+06
5.68223e+06
5.59164e+06
5.50464e+06
5.421e+06
5.34051e+06
5.26296e+06
5.18815e+06
5.11589e+06
5.04601e+06
4.97838e+06
4.91292e+06
4.84966e+06
4.78878e+06
4.73067e+06
4.67597e+06
5.97038e+06
5.87548e+06
5.77753e+06
5.68316e+06
5.59268e+06
5.50582e+06
5.42238e+06
5.34214e+06
5.26492e+06
5.19052e+06
5.11878e+06
5.04957e+06
4.98278e+06
4.91838e+06
4.85644e+06
4.79714e+06
4.74081e+06
4.68789e+06
5.97155e+06
5.87652e+06
5.77859e+06
5.6843e+06
5.59393e+06
5.50725e+06
5.42404e+06
5.34409e+06
5.26724e+06
5.19331e+06
5.12216e+06
5.05367e+06
4.98777e+06
4.92446e+06
4.86381e+06
4.80599e+06
4.75123e+06
4.69983e+06
5.97261e+06
5.87767e+06
5.77976e+06
5.68554e+06
5.59531e+06
5.50881e+06
5.42583e+06
5.3462e+06
5.26973e+06
5.19628e+06
5.12571e+06
5.05792e+06
4.99287e+06
4.93056e+06
4.87105e+06
4.81447e+06
4.76098e+06
4.71077e+06
5.97408e+06
5.879e+06
5.78109e+06
5.68696e+06
5.59687e+06
5.51057e+06
5.42786e+06
5.34857e+06
5.27252e+06
5.19957e+06
5.12961e+06
5.06255e+06
4.99835e+06
4.937e+06
4.87857e+06
4.82312e+06
4.77077e+06
4.72161e+06
5.97601e+06
5.88077e+06
5.78287e+06
5.68883e+06
5.59892e+06
5.51288e+06
5.43051e+06
5.35164e+06
5.2761e+06
5.20377e+06
5.13454e+06
5.06832e+06
5.00508e+06
4.9448e+06
4.88751e+06
4.83324e+06
4.78204e+06
4.73393e+06
5.97851e+06
5.88311e+06
5.7852e+06
5.69129e+06
5.60161e+06
5.5159e+06
5.43395e+06
5.35559e+06
5.28068e+06
5.20908e+06
5.14069e+06
5.07542e+06
5.01324e+06
4.9541e+06
4.89799e+06
4.84491e+06
4.79484e+06
4.74774e+06
5.98162e+06
5.88611e+06
5.78823e+06
5.69449e+06
5.6051e+06
5.51979e+06
5.43835e+06
5.36061e+06
5.28643e+06
5.21567e+06
5.14822e+06
5.084e+06
5.02293e+06
4.96497e+06
4.91005e+06
4.85813e+06
4.80914e+06
4.76302e+06
5.98553e+06
5.88989e+06
5.79208e+06
5.69856e+06
5.60952e+06
5.5247e+06
5.44386e+06
5.36684e+06
5.29348e+06
5.22364e+06
5.15721e+06
5.09409e+06
5.03416e+06
4.97736e+06
4.92359e+06
4.87277e+06
4.8248e+06
4.77958e+06
5.99005e+06
5.89444e+06
5.79678e+06
5.70356e+06
5.61496e+06
5.53069e+06
5.45054e+06
5.37431e+06
5.30184e+06
5.23298e+06
5.16759e+06
5.10555e+06
5.04674e+06
4.99104e+06
4.93834e+06
4.88853e+06
4.84148e+06
4.79708e+06
5.99531e+06
5.89973e+06
5.80228e+06
5.70941e+06
5.62131e+06
5.53766e+06
5.45823e+06
5.38282e+06
5.31126e+06
5.24336e+06
5.17899e+06
5.11798e+06
5.06019e+06
5.0055e+06
4.95375e+06
4.90483e+06
4.85859e+06
4.81489e+06
5.99965e+06
5.90412e+06
5.80686e+06
5.71432e+06
5.62663e+06
5.54348e+06
5.46461e+06
5.38983e+06
5.31893e+06
5.25173e+06
5.18806e+06
5.12776e+06
5.07067e+06
5.01664e+06
4.96553e+06
4.91718e+06
4.87146e+06
4.82823e+06
6.00222e+06
5.90697e+06
5.80994e+06
5.71765e+06
5.63026e+06
5.54745e+06
5.46897e+06
5.39459e+06
5.32411e+06
5.25735e+06
5.19412e+06
5.13425e+06
5.07759e+06
5.02396e+06
4.97322e+06
4.92522e+06
4.87981e+06
4.83685e+06
6.00427e+06
5.90902e+06
5.81216e+06
5.72008e+06
5.63293e+06
5.55038e+06
5.47217e+06
5.39807e+06
5.3279e+06
5.26144e+06
5.19851e+06
5.13894e+06
5.08256e+06
5.02921e+06
4.97872e+06
4.93095e+06
4.88574e+06
4.84297e+06
6.00517e+06
5.91033e+06
5.81369e+06
5.72181e+06
5.63484e+06
5.55248e+06
5.47447e+06
5.40059e+06
5.33062e+06
5.26437e+06
5.20166e+06
5.14229e+06
5.08611e+06
5.03293e+06
4.98262e+06
4.935e+06
4.88994e+06
4.84729e+06
6.00594e+06
5.91122e+06
5.81474e+06
5.72301e+06
5.63619e+06
5.55397e+06
5.4761e+06
5.40236e+06
5.33254e+06
5.26644e+06
5.20387e+06
5.14464e+06
5.08859e+06
5.03555e+06
4.98534e+06
4.93783e+06
4.89286e+06
4.8503e+06
6.00637e+06
5.91178e+06
5.81544e+06
5.72383e+06
5.63711e+06
5.555e+06
5.47723e+06
5.40359e+06
5.33387e+06
5.26787e+06
5.20539e+06
5.14627e+06
5.0903e+06
5.03734e+06
4.98722e+06
4.93978e+06
4.89487e+06
4.85236e+06
6.00633e+06
5.91208e+06
5.81589e+06
5.72437e+06
5.63773e+06
5.55569e+06
5.47799e+06
5.40442e+06
5.33476e+06
5.26883e+06
5.20642e+06
5.14735e+06
5.09145e+06
5.03855e+06
4.98847e+06
4.94108e+06
4.89622e+06
4.85374e+06
6.0063e+06
5.91226e+06
5.81618e+06
5.72472e+06
5.63813e+06
5.55613e+06
5.47848e+06
5.40495e+06
5.33534e+06
5.26945e+06
5.20708e+06
5.14806e+06
5.09219e+06
5.03932e+06
4.98928e+06
4.94192e+06
4.89708e+06
4.85463e+06
6.00634e+06
5.91237e+06
5.81634e+06
5.72493e+06
5.63838e+06
5.5564e+06
5.47877e+06
5.40527e+06
5.33569e+06
5.26983e+06
5.20748e+06
5.14848e+06
5.09264e+06
5.03979e+06
4.98977e+06
4.94243e+06
4.89761e+06
4.85517e+06
6.00637e+06
5.91243e+06
5.81643e+06
5.72504e+06
5.63851e+06
5.55655e+06
5.47893e+06
5.40545e+06
5.33588e+06
5.27003e+06
5.2077e+06
5.14871e+06
5.09288e+06
5.04005e+06
4.99004e+06
4.9427e+06
4.89789e+06
4.85546e+06
6.00638e+06
5.91245e+06
5.81647e+06
5.72509e+06
5.63856e+06
5.55661e+06
5.479e+06
5.40552e+06
5.33596e+06
5.27011e+06
5.20779e+06
5.1488e+06
5.09298e+06
5.04015e+06
4.99014e+06
4.94281e+06
4.898e+06
4.85558e+06
3.8826e+06
3.88229e+06
3.88167e+06
3.88072e+06
3.87945e+06
3.87785e+06
3.8759e+06
3.87361e+06
3.87098e+06
3.86799e+06
3.86464e+06
3.86094e+06
3.85687e+06
3.85244e+06
3.84764e+06
3.84247e+06
3.83693e+06
3.83103e+06
3.82476e+06
3.81811e+06
3.8111e+06
3.80372e+06
3.79598e+06
3.78787e+06
3.77941e+06
3.77058e+06
3.7614e+06
3.75187e+06
3.74199e+06
3.73177e+06
3.72121e+06
3.71031e+06
3.69908e+06
3.68752e+06
3.67563e+06
3.66343e+06
3.65092e+06
3.6381e+06
3.62498e+06
3.61155e+06
3.59784e+06
3.58384e+06
3.56955e+06
3.55499e+06
3.54015e+06
3.52505e+06
3.50968e+06
3.49406e+06
3.47818e+06
3.46205e+06
3.44568e+06
3.42908e+06
3.41224e+06
3.39517e+06
3.37787e+06
3.36036e+06
3.34263e+06
3.32468e+06
3.30654e+06
3.28818e+06
3.26963e+06
3.25089e+06
3.23196e+06
3.21283e+06
3.19353e+06
3.17405e+06
3.15439e+06
3.13456e+06
3.11456e+06
3.0944e+06
3.07408e+06
3.0536e+06
3.03297e+06
3.01218e+06
2.99125e+06
2.97017e+06
2.94895e+06
2.92759e+06
2.90609e+06
2.88446e+06
2.8627e+06
2.84081e+06
2.8188e+06
2.79666e+06
2.77441e+06
2.75203e+06
2.72955e+06
2.70695e+06
2.68424e+06
2.66142e+06
2.6385e+06
2.61547e+06
2.59235e+06
2.56912e+06
2.5458e+06
2.52239e+06
2.49889e+06
2.47529e+06
2.45161e+06
2.42785e+06
2.404e+06
2.38007e+06
2.35606e+06
2.33198e+06
2.30782e+06
2.2836e+06
2.2593e+06
2.23493e+06
2.21051e+06
2.18601e+06
2.16146e+06
2.13685e+06
2.11218e+06
2.08746e+06
2.06269e+06
2.03787e+06
2.01301e+06
1.9881e+06
1.96315e+06
1.93816e+06
1.91313e+06
1.88807e+06
1.86298e+06
1.83786e+06
1.81271e+06
1.78755e+06
1.76236e+06
1.73715e+06
1.71193e+06
1.6867e+06
1.66146e+06
1.63621e+06
1.61096e+06
1.58571e+06
1.56047e+06
1.53523e+06
1.51001e+06
1.4848e+06
1.4596e+06
1.43443e+06
1.40929e+06
1.38417e+06
1.35908e+06
1.33403e+06
1.30903e+06
1.28406e+06
1.25915e+06
1.23429e+06
1.20948e+06
1.18474e+06
1.16006e+06
1.13546e+06
1.11092e+06
1.08647e+06
1.06211e+06
1.03783e+06
1.01365e+06
989575
965603
941741
917998
894377
870886
847531
824318
801254
778347
755603
733031
710639
688438
666436
644647
623084
601764
580708
559944
539514
519491
500032
3.88401e+06
3.88369e+06
3.88307e+06
3.88211e+06
3.88083e+06
3.87922e+06
3.87726e+06
3.87496e+06
3.87231e+06
3.8693e+06
3.86594e+06
3.86221e+06
3.85812e+06
3.85367e+06
3.84885e+06
3.84365e+06
3.83809e+06
3.83216e+06
3.82586e+06
3.81919e+06
3.81215e+06
3.80474e+06
3.79697e+06
3.78883e+06
3.78034e+06
3.77148e+06
3.76227e+06
3.75271e+06
3.7428e+06
3.73255e+06
3.72196e+06
3.71103e+06
3.69977e+06
3.68818e+06
3.67627e+06
3.66405e+06
3.65151e+06
3.63866e+06
3.62551e+06
3.61207e+06
3.59833e+06
3.58431e+06
3.57e+06
3.55541e+06
3.54056e+06
3.52543e+06
3.51005e+06
3.49441e+06
3.47851e+06
3.46237e+06
3.44599e+06
3.42936e+06
3.41251e+06
3.39542e+06
3.37811e+06
3.36059e+06
3.34284e+06
3.32489e+06
3.30673e+06
3.28837e+06
3.26981e+06
3.25105e+06
3.23211e+06
3.21298e+06
3.19367e+06
3.17418e+06
3.15451e+06
3.13468e+06
3.11467e+06
3.0945e+06
3.07418e+06
3.05369e+06
3.03305e+06
3.01226e+06
2.99132e+06
2.97024e+06
2.94901e+06
2.92765e+06
2.90615e+06
2.88451e+06
2.86275e+06
2.84086e+06
2.81884e+06
2.7967e+06
2.77445e+06
2.75207e+06
2.72958e+06
2.70698e+06
2.68427e+06
2.66145e+06
2.63852e+06
2.6155e+06
2.59237e+06
2.56914e+06
2.54582e+06
2.52241e+06
2.4989e+06
2.47531e+06
2.45162e+06
2.42786e+06
2.40401e+06
2.38008e+06
2.35607e+06
2.33199e+06
2.30783e+06
2.2836e+06
2.25931e+06
2.23494e+06
2.21051e+06
2.18602e+06
2.16147e+06
2.13686e+06
2.11219e+06
2.08747e+06
2.0627e+06
2.03788e+06
2.01301e+06
1.9881e+06
1.96315e+06
1.93816e+06
1.91313e+06
1.88807e+06
1.86298e+06
1.83786e+06
1.81272e+06
1.78755e+06
1.76236e+06
1.73715e+06
1.71193e+06
1.6867e+06
1.66146e+06
1.63621e+06
1.61096e+06
1.58571e+06
1.56047e+06
1.53523e+06
1.51001e+06
1.4848e+06
1.4596e+06
1.43443e+06
1.40929e+06
1.38417e+06
1.35908e+06
1.33403e+06
1.30903e+06
1.28406e+06
1.25915e+06
1.23429e+06
1.20948e+06
1.18474e+06
1.16006e+06
1.13546e+06
1.11092e+06
1.08647e+06
1.06211e+06
1.03783e+06
1.01365e+06
989575
965602
941741
917997
894377
870886
847530
824317
801253
778345
755601
733028
710636
688434
666431
644641
623076
601752
580691
559919
539477
519424
499874
3.88682e+06
3.8865e+06
3.88587e+06
3.8849e+06
3.88361e+06
3.88197e+06
3.87999e+06
3.87766e+06
3.87498e+06
3.87194e+06
3.86854e+06
3.86477e+06
3.86064e+06
3.85614e+06
3.85127e+06
3.84603e+06
3.84041e+06
3.83443e+06
3.82807e+06
3.82134e+06
3.81424e+06
3.80678e+06
3.79894e+06
3.79075e+06
3.78219e+06
3.77327e+06
3.764e+06
3.75438e+06
3.74442e+06
3.7341e+06
3.72345e+06
3.71247e+06
3.70115e+06
3.68951e+06
3.67755e+06
3.66527e+06
3.65268e+06
3.63979e+06
3.62659e+06
3.6131e+06
3.59931e+06
3.58524e+06
3.57089e+06
3.55627e+06
3.54137e+06
3.52621e+06
3.51079e+06
3.49511e+06
3.47918e+06
3.463e+06
3.44659e+06
3.42993e+06
3.41305e+06
3.39594e+06
3.3786e+06
3.36105e+06
3.34328e+06
3.3253e+06
3.30712e+06
3.28874e+06
3.27016e+06
3.25138e+06
3.23242e+06
3.21327e+06
3.19394e+06
3.17444e+06
3.15476e+06
3.13491e+06
3.11489e+06
3.09471e+06
3.07437e+06
3.05387e+06
3.03322e+06
3.01242e+06
2.99147e+06
2.97038e+06
2.94914e+06
2.92777e+06
2.90626e+06
2.88462e+06
2.86285e+06
2.84095e+06
2.81893e+06
2.79679e+06
2.77452e+06
2.75214e+06
2.72965e+06
2.70704e+06
2.68432e+06
2.6615e+06
2.63857e+06
2.61554e+06
2.59241e+06
2.56918e+06
2.54586e+06
2.52244e+06
2.49893e+06
2.47534e+06
2.45165e+06
2.42788e+06
2.40403e+06
2.3801e+06
2.35609e+06
2.33201e+06
2.30785e+06
2.28362e+06
2.25932e+06
2.23495e+06
2.21052e+06
2.18603e+06
2.16148e+06
2.13686e+06
2.1122e+06
2.08748e+06
2.0627e+06
2.03788e+06
2.01302e+06
1.98811e+06
1.96315e+06
1.93816e+06
1.91314e+06
1.88808e+06
1.86299e+06
1.83786e+06
1.81272e+06
1.78755e+06
1.76236e+06
1.73715e+06
1.71193e+06
1.6867e+06
1.66146e+06
1.63621e+06
1.61096e+06
1.58572e+06
1.56047e+06
1.53524e+06
1.51001e+06
1.4848e+06
1.45961e+06
1.43443e+06
1.40929e+06
1.38417e+06
1.35908e+06
1.33404e+06
1.30903e+06
1.28406e+06
1.25915e+06
1.23429e+06
1.20948e+06
1.18474e+06
1.16006e+06
1.13546e+06
1.11092e+06
1.08647e+06
1.06211e+06
1.03783e+06
1.01365e+06
989575
965602
941741
917997
894376
870885
847529
824315
801251
778342
755597
733024
710630
688426
666421
644628
623058
601729
580659
559873
539405
519302
499625
3.89107e+06
3.89074e+06
3.89009e+06
3.88911e+06
3.88778e+06
3.88612e+06
3.8841e+06
3.88173e+06
3.879e+06
3.8759e+06
3.87245e+06
3.86862e+06
3.86442e+06
3.85985e+06
3.85491e+06
3.84959e+06
3.8439e+06
3.83783e+06
3.83139e+06
3.82457e+06
3.81739e+06
3.80983e+06
3.80191e+06
3.79362e+06
3.78497e+06
3.77597e+06
3.7666e+06
3.75689e+06
3.74684e+06
3.73643e+06
3.7257e+06
3.71463e+06
3.70323e+06
3.6915e+06
3.67946e+06
3.6671e+06
3.65443e+06
3.64146e+06
3.62819e+06
3.61463e+06
3.60078e+06
3.58664e+06
3.57223e+06
3.55754e+06
3.54258e+06
3.52737e+06
3.51189e+06
3.49616e+06
3.48017e+06
3.46395e+06
3.44749e+06
3.43079e+06
3.41386e+06
3.3967e+06
3.37933e+06
3.36174e+06
3.34393e+06
3.32592e+06
3.3077e+06
3.28929e+06
3.27068e+06
3.25187e+06
3.23288e+06
3.21371e+06
3.19436e+06
3.17483e+06
3.15512e+06
3.13525e+06
3.11521e+06
3.09501e+06
3.07466e+06
3.05414e+06
3.03347e+06
3.01266e+06
2.99169e+06
2.97059e+06
2.94934e+06
2.92795e+06
2.90644e+06
2.88478e+06
2.863e+06
2.8411e+06
2.81906e+06
2.79691e+06
2.77464e+06
2.75225e+06
2.72975e+06
2.70713e+06
2.68441e+06
2.66158e+06
2.63865e+06
2.61561e+06
2.59248e+06
2.56924e+06
2.54592e+06
2.52249e+06
2.49898e+06
2.47538e+06
2.45169e+06
2.42792e+06
2.40407e+06
2.38014e+06
2.35612e+06
2.33204e+06
2.30788e+06
2.28364e+06
2.25934e+06
2.23497e+06
2.21054e+06
2.18605e+06
2.16149e+06
2.13688e+06
2.11221e+06
2.08749e+06
2.06272e+06
2.03789e+06
2.01303e+06
1.98811e+06
1.96316e+06
1.93817e+06
1.91314e+06
1.88808e+06
1.86299e+06
1.83787e+06
1.81272e+06
1.78755e+06
1.76236e+06
1.73716e+06
1.71194e+06
1.6867e+06
1.66146e+06
1.63621e+06
1.61097e+06
1.58572e+06
1.56047e+06
1.53524e+06
1.51001e+06
1.4848e+06
1.45961e+06
1.43443e+06
1.40929e+06
1.38417e+06
1.35908e+06
1.33404e+06
1.30903e+06
1.28406e+06
1.25915e+06
1.23429e+06
1.20948e+06
1.18474e+06
1.16006e+06
1.13546e+06
1.11093e+06
1.08647e+06
1.06211e+06
1.03783e+06
1.01365e+06
989575
965602
941740
917996
894375
870883
847527
824313
801248
778338
755592
733017
710621
688415
666407
644608
623033
601695
580612
559806
539304
519139
499337
3.89677e+06
3.89643e+06
3.89576e+06
3.89475e+06
3.89339e+06
3.89168e+06
3.88961e+06
3.88718e+06
3.88439e+06
3.88123e+06
3.87769e+06
3.87378e+06
3.86949e+06
3.86483e+06
3.85978e+06
3.85436e+06
3.84856e+06
3.84238e+06
3.83582e+06
3.82889e+06
3.82158e+06
3.81391e+06
3.80586e+06
3.79745e+06
3.78868e+06
3.77955e+06
3.77007e+06
3.76023e+06
3.75006e+06
3.73954e+06
3.72868e+06
3.7175e+06
3.70598e+06
3.69415e+06
3.682e+06
3.66953e+06
3.65676e+06
3.64369e+06
3.63033e+06
3.61667e+06
3.60273e+06
3.5885e+06
3.574e+06
3.55923e+06
3.5442e+06
3.5289e+06
3.51335e+06
3.49754e+06
3.4815e+06
3.4652e+06
3.44868e+06
3.43192e+06
3.41493e+06
3.39772e+06
3.38029e+06
3.36265e+06
3.3448e+06
3.32674e+06
3.30848e+06
3.29002e+06
3.27137e+06
3.25253e+06
3.2335e+06
3.21429e+06
3.1949e+06
3.17534e+06
3.15561e+06
3.13571e+06
3.11564e+06
3.09542e+06
3.07504e+06
3.0545e+06
3.03381e+06
3.01297e+06
2.99199e+06
2.97086e+06
2.9496e+06
2.9282e+06
2.90666e+06
2.885e+06
2.8632e+06
2.84128e+06
2.81924e+06
2.79707e+06
2.77479e+06
2.75239e+06
2.72988e+06
2.70726e+06
2.68453e+06
2.66169e+06
2.63875e+06
2.61571e+06
2.59256e+06
2.56932e+06
2.54599e+06
2.52256e+06
2.49905e+06
2.47544e+06
2.45175e+06
2.42797e+06
2.40412e+06
2.38018e+06
2.35616e+06
2.33207e+06
2.30791e+06
2.28368e+06
2.25937e+06
2.235e+06
2.21057e+06
2.18607e+06
2.16151e+06
2.1369e+06
2.11223e+06
2.0875e+06
2.06273e+06
2.03791e+06
2.01304e+06
1.98813e+06
1.96317e+06
1.93818e+06
1.91315e+06
1.88809e+06
1.863e+06
1.83788e+06
1.81273e+06
1.78756e+06
1.76237e+06
1.73716e+06
1.71194e+06
1.68671e+06
1.66146e+06
1.63622e+06
1.61097e+06
1.58572e+06
1.56048e+06
1.53524e+06
1.51001e+06
1.4848e+06
1.45961e+06
1.43444e+06
1.40929e+06
1.38417e+06
1.35909e+06
1.33404e+06
1.30903e+06
1.28406e+06
1.25915e+06
1.23429e+06
1.20948e+06
1.18474e+06
1.16006e+06
1.13546e+06
1.11093e+06
1.08647e+06
1.06211e+06
1.03783e+06
1.01365e+06
989574
965601
941739
917995
894373
870881
847524
824310
801243
778332
755585
733008
710610
688400
666387
644584
623000
601651
580552
559721
539181
518950
499033
3.90396e+06
3.90361e+06
3.90291e+06
3.90186e+06
3.90046e+06
3.89869e+06
3.89656e+06
3.89406e+06
3.89118e+06
3.88793e+06
3.88429e+06
3.88027e+06
3.87587e+06
3.87108e+06
3.86591e+06
3.86035e+06
3.85441e+06
3.84809e+06
3.84138e+06
3.8343e+06
3.82684e+06
3.81901e+06
3.81081e+06
3.80224e+06
3.79331e+06
3.78403e+06
3.77439e+06
3.7644e+06
3.75407e+06
3.74341e+06
3.7324e+06
3.72107e+06
3.70942e+06
3.69744e+06
3.68516e+06
3.67256e+06
3.65966e+06
3.64647e+06
3.63298e+06
3.6192e+06
3.60515e+06
3.59081e+06
3.5762e+06
3.56133e+06
3.5462e+06
3.5308e+06
3.51516e+06
3.49927e+06
3.48313e+06
3.46676e+06
3.45016e+06
3.43332e+06
3.41626e+06
3.39898e+06
3.38149e+06
3.36378e+06
3.34587e+06
3.32775e+06
3.30943e+06
3.29092e+06
3.27222e+06
3.25333e+06
3.23426e+06
3.21501e+06
3.19558e+06
3.17598e+06
3.15621e+06
3.13628e+06
3.11618e+06
3.09592e+06
3.07551e+06
3.05494e+06
3.03423e+06
3.01336e+06
2.99236e+06
2.97121e+06
2.94992e+06
2.9285e+06
2.90695e+06
2.88526e+06
2.86345e+06
2.84152e+06
2.81946e+06
2.79728e+06
2.77498e+06
2.75257e+06
2.73005e+06
2.70741e+06
2.68467e+06
2.66182e+06
2.63887e+06
2.61582e+06
2.59267e+06
2.56942e+06
2.54608e+06
2.52265e+06
2.49913e+06
2.47551e+06
2.45182e+06
2.42804e+06
2.40417e+06
2.38023e+06
2.35621e+06
2.33212e+06
2.30795e+06
2.28371e+06
2.25941e+06
2.23503e+06
2.2106e+06
2.1861e+06
2.16154e+06
2.13692e+06
2.11225e+06
2.08752e+06
2.06275e+06
2.03792e+06
2.01305e+06
1.98814e+06
1.96318e+06
1.93819e+06
1.91316e+06
1.8881e+06
1.86301e+06
1.83788e+06
1.81274e+06
1.78757e+06
1.76237e+06
1.73717e+06
1.71194e+06
1.68671e+06
1.66147e+06
1.63622e+06
1.61097e+06
1.58572e+06
1.56048e+06
1.53524e+06
1.51001e+06
1.4848e+06
1.45961e+06
1.43444e+06
1.40929e+06
1.38417e+06
1.35909e+06
1.33404e+06
1.30903e+06
1.28407e+06
1.25915e+06
1.23429e+06
1.20948e+06
1.18474e+06
1.16006e+06
1.13546e+06
1.11093e+06
1.08647e+06
1.06211e+06
1.03783e+06
1.01365e+06
989574
965600
941738
917993
894371
870879
847521
824305
801238
778326
755576
732997
710596
688382
666364
644553
622960
601598
580480
559623
539040
518745
498727
3.91269e+06
3.91232e+06
3.91159e+06
3.9105e+06
3.90904e+06
3.9072e+06
3.90499e+06
3.90239e+06
3.89941e+06
3.89604e+06
3.89227e+06
3.88812e+06
3.88357e+06
3.87863e+06
3.8733e+06
3.86758e+06
3.86146e+06
3.85496e+06
3.84808e+06
3.84081e+06
3.83316e+06
3.82514e+06
3.81675e+06
3.80799e+06
3.79887e+06
3.7894e+06
3.77957e+06
3.7694e+06
3.75888e+06
3.74803e+06
3.73685e+06
3.72535e+06
3.71352e+06
3.70138e+06
3.68893e+06
3.67617e+06
3.66312e+06
3.64977e+06
3.63614e+06
3.62222e+06
3.60803e+06
3.59356e+06
3.57883e+06
3.56383e+06
3.54858e+06
3.53307e+06
3.51732e+06
3.50132e+06
3.48509e+06
3.46862e+06
3.45192e+06
3.43499e+06
3.41785e+06
3.40048e+06
3.38291e+06
3.36513e+06
3.34714e+06
3.32896e+06
3.31058e+06
3.292e+06
3.27324e+06
3.2543e+06
3.23517e+06
3.21587e+06
3.19639e+06
3.17674e+06
3.15693e+06
3.13695e+06
3.11681e+06
3.09652e+06
3.07607e+06
3.05547e+06
3.03472e+06
3.01383e+06
2.99279e+06
2.97162e+06
2.95031e+06
2.92886e+06
2.90729e+06
2.88558e+06
2.86375e+06
2.84179e+06
2.81972e+06
2.79752e+06
2.77521e+06
2.75278e+06
2.73024e+06
2.7076e+06
2.68484e+06
2.66198e+06
2.63902e+06
2.61596e+06
2.5928e+06
2.56954e+06
2.54619e+06
2.52275e+06
2.49922e+06
2.4756e+06
2.4519e+06
2.42811e+06
2.40424e+06
2.3803e+06
2.35627e+06
2.33217e+06
2.308e+06
2.28376e+06
2.25945e+06
2.23507e+06
2.21063e+06
2.18613e+06
2.16157e+06
2.13695e+06
2.11227e+06
2.08755e+06
2.06277e+06
2.03794e+06
2.01307e+06
1.98816e+06
1.9632e+06
1.9382e+06
1.91317e+06
1.88811e+06
1.86302e+06
1.83789e+06
1.81274e+06
1.78757e+06
1.76238e+06
1.73717e+06
1.71195e+06
1.68672e+06
1.66147e+06
1.63622e+06
1.61097e+06
1.58573e+06
1.56048e+06
1.53524e+06
1.51002e+06
1.4848e+06
1.45961e+06
1.43444e+06
1.40929e+06
1.38417e+06
1.35909e+06
1.33404e+06
1.30903e+06
1.28407e+06
1.25915e+06
1.23429e+06
1.20948e+06
1.18474e+06
1.16006e+06
1.13546e+06
1.11093e+06
1.08647e+06
1.06211e+06
1.03783e+06
1.01365e+06
989573
965599
941737
917992
894369
870876
847517
824301
801232
778318
755566
732984
710579
688361
666337
644518
622915
601538
580400
559513
538889
518531
498426
3.92302e+06
3.92263e+06
3.92186e+06
3.92071e+06
3.91918e+06
3.91725e+06
3.91494e+06
3.91223e+06
3.90912e+06
3.9056e+06
3.90168e+06
3.89736e+06
3.89264e+06
3.88751e+06
3.88198e+06
3.87606e+06
3.86974e+06
3.86302e+06
3.85591e+06
3.84842e+06
3.84055e+06
3.8323e+06
3.82368e+06
3.8147e+06
3.80535e+06
3.79565e+06
3.7856e+06
3.77521e+06
3.76448e+06
3.75341e+06
3.74202e+06
3.73031e+06
3.71828e+06
3.70594e+06
3.6933e+06
3.68036e+06
3.66713e+06
3.6536e+06
3.6398e+06
3.62572e+06
3.61137e+06
3.59675e+06
3.58186e+06
3.56672e+06
3.55133e+06
3.5357e+06
3.51981e+06
3.5037e+06
3.48734e+06
3.47076e+06
3.45395e+06
3.43692e+06
3.41968e+06
3.40222e+06
3.38456e+06
3.36669e+06
3.34862e+06
3.33035e+06
3.31189e+06
3.29325e+06
3.27442e+06
3.25541e+06
3.23622e+06
3.21685e+06
3.19732e+06
3.17762e+06
3.15775e+06
3.13773e+06
3.11755e+06
3.09721e+06
3.07672e+06
3.05608e+06
3.03529e+06
3.01437e+06
2.9933e+06
2.97209e+06
2.95075e+06
2.92928e+06
2.90768e+06
2.88595e+06
2.86409e+06
2.84211e+06
2.82002e+06
2.7978e+06
2.77547e+06
2.75303e+06
2.73047e+06
2.70781e+06
2.68504e+06
2.66217e+06
2.63919e+06
2.61612e+06
2.59295e+06
2.56968e+06
2.54632e+06
2.52287e+06
2.49933e+06
2.4757e+06
2.45199e+06
2.4282e+06
2.40432e+06
2.38037e+06
2.35634e+06
2.33224e+06
2.30806e+06
2.28381e+06
2.2595e+06
2.23512e+06
2.21067e+06
2.18617e+06
2.1616e+06
2.13698e+06
2.1123e+06
2.08757e+06
2.06279e+06
2.03797e+06
2.01309e+06
1.98817e+06
1.96322e+06
1.93822e+06
1.91319e+06
1.88812e+06
1.86303e+06
1.8379e+06
1.81275e+06
1.78758e+06
1.76239e+06
1.73718e+06
1.71196e+06
1.68672e+06
1.66148e+06
1.63623e+06
1.61098e+06
1.58573e+06
1.56048e+06
1.53525e+06
1.51002e+06
1.48481e+06
1.45961e+06
1.43444e+06
1.40929e+06
1.38418e+06
1.35909e+06
1.33404e+06
1.30903e+06
1.28407e+06
1.25915e+06
1.23429e+06
1.20949e+06
1.18474e+06
1.16006e+06
1.13546e+06
1.11093e+06
1.08648e+06
1.06211e+06
1.03783e+06
1.01365e+06
989573
965598
941736
917990
894367
870873
847513
824295
801225
778309
755555
732970
710561
688337
666307
644480
622864
601472
580312
559396
538729
518314
498133
3.93503e+06
3.9346e+06
3.93378e+06
3.93256e+06
3.93095e+06
3.92892e+06
3.92648e+06
3.92363e+06
3.92036e+06
3.91667e+06
3.91256e+06
3.90804e+06
3.9031e+06
3.89775e+06
3.89199e+06
3.88582e+06
3.87925e+06
3.87227e+06
3.86491e+06
3.85715e+06
3.84901e+06
3.8405e+06
3.83161e+06
3.82236e+06
3.81275e+06
3.80279e+06
3.79248e+06
3.78183e+06
3.77084e+06
3.75953e+06
3.7479e+06
3.73595e+06
3.72369e+06
3.71112e+06
3.69826e+06
3.68511e+06
3.67167e+06
3.65794e+06
3.64395e+06
3.62968e+06
3.61514e+06
3.60035e+06
3.5853e+06
3.57e+06
3.55445e+06
3.53866e+06
3.52264e+06
3.50638e+06
3.4899e+06
3.47319e+06
3.45625e+06
3.43911e+06
3.42175e+06
3.40418e+06
3.38642e+06
3.36845e+06
3.35028e+06
3.33193e+06
3.31338e+06
3.29466e+06
3.27575e+06
3.25666e+06
3.2374e+06
3.21797e+06
3.19837e+06
3.17861e+06
3.15869e+06
3.13861e+06
3.11837e+06
3.09799e+06
3.07745e+06
3.05677e+06
3.03594e+06
3.01497e+06
2.99387e+06
2.97263e+06
2.95126e+06
2.92975e+06
2.90812e+06
2.88636e+06
2.86448e+06
2.84248e+06
2.82035e+06
2.79812e+06
2.77576e+06
2.7533e+06
2.73073e+06
2.70805e+06
2.68526e+06
2.66238e+06
2.63939e+06
2.6163e+06
2.59311e+06
2.56984e+06
2.54647e+06
2.523e+06
2.49946e+06
2.47582e+06
2.4521e+06
2.4283e+06
2.40442e+06
2.38046e+06
2.35642e+06
2.33231e+06
2.30813e+06
2.28387e+06
2.25956e+06
2.23517e+06
2.21072e+06
2.18621e+06
2.16164e+06
2.13702e+06
2.11234e+06
2.0876e+06
2.06282e+06
2.03799e+06
2.01311e+06
1.9882e+06
1.96324e+06
1.93824e+06
1.9132e+06
1.88814e+06
1.86304e+06
1.83792e+06
1.81276e+06
1.78759e+06
1.7624e+06
1.73719e+06
1.71196e+06
1.68673e+06
1.66148e+06
1.63623e+06
1.61098e+06
1.58573e+06
1.56049e+06
1.53525e+06
1.51002e+06
1.48481e+06
1.45962e+06
1.43444e+06
1.4093e+06
1.38418e+06
1.35909e+06
1.33404e+06
1.30903e+06
1.28407e+06
1.25915e+06
1.23429e+06
1.20949e+06
1.18474e+06
1.16007e+06
1.13546e+06
1.11093e+06
1.08648e+06
1.06211e+06
1.03783e+06
1.01365e+06
989572
965597
941734
917988
894364
870869
847509
824289
801217
778299
755543
732954
710541
688312
666275
644438
622810
601401
580219
559273
538567
518098
497851
3.94879e+06
3.94833e+06
3.94745e+06
3.94615e+06
3.94443e+06
3.94227e+06
3.93968e+06
3.93666e+06
3.93319e+06
3.9293e+06
3.92496e+06
3.9202e+06
3.915e+06
3.90938e+06
3.90334e+06
3.89688e+06
3.89001e+06
3.88274e+06
3.87507e+06
3.867e+06
3.85856e+06
3.84973e+06
3.84053e+06
3.83097e+06
3.82105e+06
3.81079e+06
3.80018e+06
3.78924e+06
3.77797e+06
3.76637e+06
3.75446e+06
3.74224e+06
3.72972e+06
3.7169e+06
3.70379e+06
3.6904e+06
3.67673e+06
3.66278e+06
3.64856e+06
3.63408e+06
3.61935e+06
3.60436e+06
3.58912e+06
3.57364e+06
3.55792e+06
3.54196e+06
3.52578e+06
3.50937e+06
3.49273e+06
3.47588e+06
3.45881e+06
3.44154e+06
3.42405e+06
3.40637e+06
3.38848e+06
3.3704e+06
3.35213e+06
3.33368e+06
3.31504e+06
3.29622e+06
3.27722e+06
3.25805e+06
3.23872e+06
3.21921e+06
3.19954e+06
3.17971e+06
3.15973e+06
3.13959e+06
3.11929e+06
3.09885e+06
3.07826e+06
3.05753e+06
3.03666e+06
3.01565e+06
2.9945e+06
2.97322e+06
2.95181e+06
2.93027e+06
2.90861e+06
2.88682e+06
2.86491e+06
2.84288e+06
2.82073e+06
2.79847e+06
2.77609e+06
2.75361e+06
2.73101e+06
2.70831e+06
2.68551e+06
2.66261e+06
2.6396e+06
2.6165e+06
2.5933e+06
2.57001e+06
2.54663e+06
2.52315e+06
2.49959e+06
2.47595e+06
2.45222e+06
2.42841e+06
2.40452e+06
2.38055e+06
2.35651e+06
2.33239e+06
2.3082e+06
2.28394e+06
2.25962e+06
2.23523e+06
2.21077e+06
2.18626e+06
2.16169e+06
2.13706e+06
2.11237e+06
2.08764e+06
2.06285e+06
2.03802e+06
2.01314e+06
1.98822e+06
1.96326e+06
1.93826e+06
1.91322e+06
1.88815e+06
1.86306e+06
1.83793e+06
1.81278e+06
1.7876e+06
1.76241e+06
1.7372e+06
1.71197e+06
1.68673e+06
1.66149e+06
1.63624e+06
1.61099e+06
1.58574e+06
1.56049e+06
1.53525e+06
1.51003e+06
1.48481e+06
1.45962e+06
1.43445e+06
1.4093e+06
1.38418e+06
1.35909e+06
1.33404e+06
1.30904e+06
1.28407e+06
1.25916e+06
1.23429e+06
1.20949e+06
1.18474e+06
1.16007e+06
1.13546e+06
1.11093e+06
1.08648e+06
1.06211e+06
1.03783e+06
1.01365e+06
989571
965596
941733
917986
894361
870865
847504
824283
801209
778289
755529
732937
710520
688285
666240
644393
622753
601327
580123
559148
538403
517885
497581
3.96443e+06
3.96393e+06
3.96297e+06
3.96157e+06
3.95972e+06
3.95741e+06
3.95463e+06
3.9514e+06
3.94771e+06
3.94356e+06
3.93895e+06
3.93389e+06
3.92839e+06
3.92245e+06
3.91608e+06
3.90928e+06
3.90206e+06
3.89443e+06
3.8864e+06
3.87798e+06
3.86917e+06
3.85999e+06
3.85044e+06
3.84052e+06
3.83026e+06
3.81965e+06
3.8087e+06
3.79743e+06
3.78583e+06
3.77392e+06
3.7617e+06
3.74918e+06
3.73637e+06
3.72326e+06
3.70988e+06
3.69622e+06
3.68228e+06
3.66809e+06
3.65363e+06
3.63892e+06
3.62396e+06
3.60876e+06
3.59331e+06
3.57763e+06
3.56172e+06
3.54558e+06
3.52922e+06
3.51264e+06
3.49584e+06
3.47884e+06
3.46162e+06
3.4442e+06
3.42658e+06
3.40876e+06
3.39075e+06
3.37255e+06
3.35416e+06
3.33559e+06
3.31685e+06
3.29793e+06
3.27884e+06
3.25958e+06
3.24016e+06
3.22057e+06
3.20082e+06
3.18092e+06
3.16086e+06
3.14066e+06
3.1203e+06
3.0998e+06
3.07915e+06
3.05837e+06
3.03745e+06
3.01639e+06
2.9952e+06
2.97387e+06
2.95242e+06
2.93084e+06
2.90914e+06
2.88732e+06
2.86538e+06
2.84332e+06
2.82114e+06
2.79885e+06
2.77645e+06
2.75394e+06
2.73133e+06
2.70861e+06
2.68578e+06
2.66286e+06
2.63984e+06
2.61672e+06
2.5935e+06
2.5702e+06
2.5468e+06
2.52332e+06
2.49974e+06
2.47609e+06
2.45235e+06
2.42853e+06
2.40463e+06
2.38065e+06
2.3566e+06
2.33248e+06
2.30828e+06
2.28402e+06
2.25969e+06
2.23529e+06
2.21083e+06
2.18631e+06
2.16174e+06
2.1371e+06
2.11241e+06
2.08767e+06
2.06289e+06
2.03805e+06
2.01317e+06
1.98825e+06
1.96328e+06
1.93828e+06
1.91324e+06
1.88817e+06
1.86307e+06
1.83794e+06
1.81279e+06
1.78761e+06
1.76242e+06
1.73721e+06
1.71198e+06
1.68674e+06
1.6615e+06
1.63625e+06
1.61099e+06
1.58574e+06
1.5605e+06
1.53526e+06
1.51003e+06
1.48482e+06
1.45962e+06
1.43445e+06
1.4093e+06
1.38418e+06
1.3591e+06
1.33405e+06
1.30904e+06
1.28407e+06
1.25916e+06
1.23429e+06
1.20949e+06
1.18474e+06
1.16007e+06
1.13546e+06
1.11093e+06
1.08648e+06
1.06211e+06
1.03783e+06
1.01365e+06
989571
965595
941731
917983
894358
870861
847499
824276
801201
778278
755515
732919
710497
688256
666203
644346
622693
601251
580025
559021
538241
517679
497324
3.98209e+06
3.98153e+06
3.98049e+06
3.97896e+06
3.97695e+06
3.97444e+06
3.97145e+06
3.96796e+06
3.96398e+06
3.95952e+06
3.95459e+06
3.94918e+06
3.94332e+06
3.93699e+06
3.93023e+06
3.92303e+06
3.9154e+06
3.90737e+06
3.89892e+06
3.89009e+06
3.88087e+06
3.87127e+06
3.86132e+06
3.851e+06
3.84034e+06
3.82935e+06
3.81802e+06
3.80637e+06
3.79442e+06
3.78215e+06
3.76959e+06
3.75674e+06
3.7436e+06
3.73018e+06
3.71649e+06
3.70254e+06
3.68832e+06
3.67385e+06
3.65913e+06
3.64417e+06
3.62896e+06
3.61352e+06
3.59785e+06
3.58196e+06
3.56584e+06
3.5495e+06
3.53295e+06
3.51618e+06
3.49921e+06