/*--------------------------------*- C++ -*----------------------------------*\
  =========                 |
  \\      /  F ield         | OpenFOAM: The Open Source CFD Toolbox
   \\    /   O peration     | Website:  https://openfoam.org
    \\  /    A nd           | Version:  7
     \\/     M anipulation  |
\*---------------------------------------------------------------------------*/
FoamFile
{
    version     2.0;
    format      ascii;
    class       volScalarField;
    location    "0.06";
    object      s_0;
}
// * * * * * * * * * * * * * * * * * * * * * * * * * * * * * * * * * * * * * //

dimensions      [0 0 0 0 0 0 0];

internalField   nonuniform List<scalar> 
12225
(
1
1
1
1
1
1
1
1
1
1
1
1
1
1
1
1
1
1
1
1
1
1
1
1
1
1
1
1
1
1
1
1
1
1
1
1
1
1
1
1
1
1
1
1
1
1
1
1
1
1
1
1
1
1
1
1
1
1
1
1
1
1
1
1
1
1
1
1
1
1
1
1
1
1
1
1
1
1
1
1
1
1
1
1
1
1
1
1
1
1
1
1
1
1
1
1
1
1
1
1
1
1
1
1
1
1
1
1
1
1
1
1
1
1
1
1
1
1
1
1
1
1
1
1
1
1
1
1
1
1
1
1
1
1
1
1
1
1
1
1
1
1
1
1
1
1
1
1
1
1
1
1
1
1
1
1
1
1
1
1
1
1
1
1
1
1
1
1
1
1
1
1
1
1
1
1
1
1
1
1
1
1
1
1
1
1
1
1
1
1
1
1
1
1
1
1
1
1
1
1
1
1
1
1
1
1
1
1
1
1
1
1
1
1
1
1
1
1
1
1
1
1
1
1
1
1
1
1
1
1
1
1
1
1
1
1
1
1
1
1
1
1
1
1
1
1
1
1
1
1
1
1
1
1
1
1
1
1
1
1
1
1
1
1
1
1
1
1
1
1
1
1
1
1
1
1
1
1
1
1
1
1
1
1
1
1
1
1
1
1
1
1
1
1
1
1
1
1
1
1
1
1
1
1
1
1
1
1
1
1
1
1
1
1
1
1
1
1
1
1
1
1
1
1
1
1
1
1
1
1
1
1
1
1
1
1
1
1
1
1
1
1
1
1
1
1
1
1
1
1
1
1
1
1
1
1
1
1
1
1
1
1
1
1
1
1
1
1
1
1
1
1
1
1
1
1
1
1
1
1
1
1
1
1
1
1
1
1
1
1
1
1
1
1
1
1
1
1
1
1
1
1
1
1
1
1
1
1
1
1
1
1
1
1
1
1
1
1
1
1
1
1
1
1
1
1
1
1
1
1
1
1
1
1
1
1
1
1
1
1
1
1
1
1
1
1
1
1
1
1
1
1
1
1
1
1
1
1
1
1
1
1
1
1
1
1
1
1
1
1
1
1
1
1
1
1
1
1
1
1
1
1
1
1
1
1
1
1
1
1
1
1
1
1
1
1
1
1
1
1
1
1
1
1
1
1
1
1
1
1
1
1
1
1
1
1
1
1
1
1
1
1
1
1
1
1
1
1
1
1
1
1
1
1
1
1
1
1
1
1
5.82076e-05
0.000311774
0.000832906
0.00173491
0.00315143
0.00573478
0.00826071
0.0113087
0.0184355
0.0243969
0.0373687
0.0452408
0.0562811
0.0660154
0.0766636
0.0824244
0.0883766
0.0902459
0.089397
0.0864335
0.0817601
0.0769787
0.071799
0.0659107
0.0612962
0.0562384
0.0510696
0.045564
0.0400066
0.0358832
0.0278288
0.0101728
0.00169187
0.00091079
0.00167524
0.00300544
0.00474133
0.0069083
0.0104754
0.0144759
0.0184013
0.0272843
0.0338555
0.0401218
0.0889733
0.436001
0.76276
0.782849
0.774316
0.772793
0.772623
0.772985
0.77433
0.776199
0.776934
0.777234
0.777704
0.778748
0.780111
0.781206
0.781849
0.782454
0.783505
0.785031
0.786688
0.788224
0.789672
0.791111
0.792501
0.793494
0.794467
0.795299
0.79601
0.796638
0.797007
0.797164
0.797261
0.797274
0.797088
0.796955
0.796848
0.796394
0.795442
0.794346
0.793131
0.791873
0.790481
0.788818
0.786771
0.784124
0.781011
0.777945
0.774351
0.769919
0.764627
0.758393
0.751332
0.742827
0.732898
0.721573
0.708419
0.693572
0.676439
0.657
0.634723
0.608987
0.579208
0.544959
0.506076
0.462393
0.414079
0.361802
0.306876
0.251333
0.197812
0.149236
0.108219
0.0762097
0.0524948
0.0345935
0.0215359
0.0125565
0.00662365
0.00325108
0.00152288
0.000681
0.000291051
0.000119087
4.6717e-05
1.76203e-05
6.44373e-06
2.21199e-06
6.12195e-07
2.70543e-07
1.24219e-07
5.70047e-08
2.57807e-08
1.1424e-08
4.95914e-09
2.11082e-09
8.81563e-10
3.61444e-10
1.45564e-10
5.76181e-11
2.24319e-11
8.59641e-12
3.24567e-12
1.20864e-12
4.44477e-13
1.61629e-13
5.81691e-14
2.07284e-14
7.31381e-15
2.55391e-15
8.81582e-16
3.00266e-16
1.00659e-16
3.31537e-17
1.07286e-17
3.41189e-18
1.06655e-18
3.27753e-19
9.90117e-20
2.93992e-20
8.57795e-21
2.45852e-21
6.91855e-22
1.91059e-22
5.17438e-23
1.37323e-23
3.56818e-24
9.06629e-25
2.24982e-25
5.44072e-26
1.27981e-26
2.91529e-27
6.41565e-28
1.33708e-28
2.70065e-29
-4.16816e-30
4.35872e-05
0.00027944
0.00103444
0.00325215
0.00680667
0.0136956
0.0228135
0.0401009
0.0680547
0.105743
0.165954
0.210974
0.272617
0.327066
0.372658
0.409116
0.43006
0.448465
0.44965
0.446033
0.435368
0.417574
0.382263
0.341705
0.293945
0.230708
0.174414
0.129009
0.0935462
0.0691804
0.0526979
0.0348082
0.0211685
0.0137507
0.00955469
0.00733148
0.00748062
0.00911771
0.0142553
0.0352605
0.0483074
0.0517789
0.112381
0.470155
0.679262
0.767008
0.814678
0.82699
0.843355
0.856151
0.868081
0.8795
0.887667
0.894714
0.902098
0.907041
0.911924
0.915621
0.918851
0.9208
0.921767
0.922128
0.922062
0.920375
0.917407
0.913552
0.908197
0.902699
0.896564
0.891476
0.886163
0.881444
0.877661
0.87423
0.872204
0.870776
0.870206
0.869875
0.869772
0.869897
0.870813
0.872482
0.874408
0.876571
0.879369
0.88266
0.886164
0.890321
0.895128
0.899776
0.904688
0.910717
0.916981
0.923627
0.930998
0.938393
0.945831
0.952843
0.958456
0.963515
0.967996
0.971788
0.974892
0.977274
0.978986
0.980058
0.980529
0.980098
0.977679
0.972937
0.965418
0.954263
0.93827
0.915755
0.884542
0.841948
0.785226
0.712601
0.625337
0.528312
0.427196
0.329664
0.244143
0.175343
0.122674
0.0831051
0.0544763
0.0344807
0.021195
0.0126894
0.00741319
0.00423328
0.00236682
0.00129762
0.000698643
0.000369888
0.000192795
9.90225e-05
5.01508e-05
2.50548e-05
1.23485e-05
6.00313e-06
2.87765e-06
1.35955e-06
6.32772e-07
2.9003e-07
1.30925e-07
5.82824e-08
2.56702e-08
1.12302e-08
4.85784e-09
2.06403e-09
8.5768e-10
3.47398e-10
1.3671e-10
5.20586e-11
1.90767e-11
6.72198e-12
2.30961e-12
7.75601e-13
2.5486e-13
8.20015e-14
2.58433e-14
7.97904e-15
2.41343e-15
7.15108e-16
2.07527e-16
5.89749e-17
1.64045e-17
4.46545e-18
1.18856e-18
3.09274e-19
7.8543e-20
1.9471e-20
4.69386e-21
1.10201e-21
2.50256e-22
5.17781e-23
1.20318e-23
-1.91223e-23
1.67085e-05
0.000149756
0.00165933
0.00544901
0.0120552
0.0242103
0.0474891
0.10151
0.177374
0.311458
0.439106
0.548706
0.613004
0.650444
0.668522
0.680162
0.682009
0.681254
0.678198
0.675264
0.670569
0.661365
0.650702
0.63426
0.603148
0.57481
0.515623
0.437848
0.339227
0.224158
0.146615
0.098965
0.0660692
0.0475191
0.0324537
0.0268889
0.028871
0.0371106
0.0496969
0.0795008
0.260785
0.482935
0.662302
0.793547
0.84308
0.864855
0.874686
0.879147
0.882254
0.883714
0.884252
0.883946
0.881983
0.875616
0.86865
0.857432
0.850356
0.840884
0.833098
0.822502
0.814586
0.804945
0.796539
0.787437
0.780642
0.77469
0.769095
0.766093
0.764611
0.764216
0.764176
0.76482
0.766681
0.76949
0.772818
0.776414
0.780249
0.784137
0.787547
0.790093
0.791691
0.792652
0.793823
0.795372
0.796757
0.797818
0.7991
0.800879
0.802785
0.804879
0.80772
0.811431
0.815757
0.820706
0.827049
0.834932
0.844483
0.856439
0.871257
0.887789
0.904463
0.920464
0.935581
0.949211
0.961104
0.971214
0.979427
0.985758
0.990458
0.993912
0.996149
0.997353
0.997848
0.997936
0.997613
0.996205
0.99352
0.98929
0.982205
0.969383
0.945172
0.901282
0.8297
0.728049
0.604035
0.472691
0.350236
0.249265
0.172288
0.115634
0.0754147
0.0478761
0.0296463
0.0179716
0.0106947
0.00626346
0.0036182
0.00206567
0.00116751
0.000654263
0.000364046
0.000201197
0.000110194
5.96688e-05
3.18705e-05
1.67553e-05
8.65429e-06
4.38507e-06
2.17717e-06
1.05838e-06
5.03559e-07
2.34451e-07
1.0681e-07
4.76085e-08
2.07591e-08
8.85335e-09
3.69242e-09
1.50572e-09
6.00194e-10
2.33793e-10
8.89563e-11
3.30463e-11
1.19782e-11
4.23358e-12
1.45694e-12
4.88951e-13
1.60798e-13
5.18284e-14
1.63681e-14
5.06499e-15
1.53444e-15
4.55215e-16
1.31998e-16
3.74512e-17
1.03524e-17
2.79768e-18
7.31707e-19
1.86942e-19
4.5985e-20
9.28027e-21
1.45315e-05
0.000804234
0.00575504
0.0122987
0.0238685
0.0497319
0.109792
0.232982
0.458453
0.607581
0.67786
0.70828
0.719766
0.719886
0.717277
0.712439
0.702395
0.693294
0.681665
0.67345
0.668658
0.66444
0.659595
0.65456
0.645959
0.636408
0.624139
0.597346
0.56071
0.492513
0.375069
0.286324
0.17926
0.115501
0.0860227
0.0711377
0.0761842
0.113004
0.349494
0.524213
0.678417
0.778208
0.838504
0.866415
0.876436
0.879517
0.880133
0.878573
0.874414
0.865687
0.850959
0.835524
0.821561
0.805972
0.797678
0.7922
0.784964
0.780371
0.772509
0.766081
0.757397
0.749206
0.739959
0.734367
0.732048
0.730881
0.730357
0.730217
0.730591
0.732804
0.737447
0.743804
0.75081
0.757763
0.764261
0.770206
0.775742
0.781084
0.785879
0.788412
0.78949
0.79005
0.790583
0.790898
0.790897
0.790797
0.790759
0.790937
0.791331
0.792158
0.794052
0.796562
0.799509
0.802448
0.805686
0.809349
0.813574
0.818618
0.825317
0.834353
0.845486
0.858409
0.872947
0.888414
0.904138
0.919465
0.934036
0.948036
0.961649
0.97407
0.984448
0.991721
0.995837
0.99802
0.999069
0.999541
0.999731
0.999792
0.999799
0.999743
0.999512
0.998893
0.997391
0.993748
0.984599
0.960546
0.893963
0.766627
0.617513
0.467411
0.335935
0.232988
0.156918
0.102956
0.0660246
0.0415183
0.0256776
0.0156587
0.00943298
0.00561904
0.00330989
0.00192662
0.00110691
0.000626692
0.000349012
0.000190865
0.000102349
5.37566e-05
2.76334e-05
1.38962e-05
6.83493e-06
3.28805e-06
1.54719e-06
7.12176e-07
3.20699e-07
1.41283e-07
6.08941e-08
2.56776e-08
1.05927e-08
4.27454e-09
1.68699e-09
6.50987e-10
2.45537e-10
9.04907e-11
3.25695e-11
1.14432e-11
3.9204e-12
1.3092e-12
4.27531e-13
1.36771e-13
4.28298e-14
1.31324e-14
3.93601e-15
1.15431e-15
3.30019e-16
9.22456e-17
2.50064e-17
6.62098e-18
1.68705e-18
4.05018e-19
0.000314598
0.00898936
0.0151655
0.0236624
0.0452654
0.106156
0.266034
0.543325
0.669874
0.717547
0.730403
0.730169
0.725638
0.71194
0.679167
0.64702
0.607323
0.553503
0.525463
0.49172
0.488411
0.495273
0.513488
0.550278
0.581072
0.60617
0.613553
0.610451
0.602264
0.581992
0.537641
0.426497
0.330028
0.265392
0.150389
0.108772
0.210073
0.526529
0.672341
0.755604
0.826092
0.858029
0.871888
0.876115
0.87681
0.874908
0.86628
0.848947
0.830455
0.816742
0.804183
0.798243
0.790971
0.784894
0.780046
0.775509
0.770689
0.766284
0.759587
0.753309
0.744834
0.735925
0.725389
0.716179
0.71201
0.709962
0.708812
0.70842
0.708736
0.712124
0.719511
0.728988
0.739185
0.749513
0.75904
0.767535
0.775037
0.782021
0.785901
0.786727
0.786698
0.786275
0.785516
0.784449
0.783348
0.78247
0.782266
0.782383
0.783106
0.784916
0.787986
0.791723
0.796069
0.800537
0.80459
0.808268
0.811865
0.815253
0.818955
0.823464
0.830805
0.842105
0.855353
0.870358
0.886296
0.902215
0.917114
0.930387
0.942
0.952604
0.962902
0.973569
0.983724
0.991294
0.99576
0.998067
0.999177
0.999666
0.999863
0.999938
0.999963
0.999968
0.999964
0.999936
0.999825
0.999466
0.998327
0.994673
0.98291
0.945001
0.828228
0.653347
0.488824
0.349875
0.242571
0.163883
0.10836
0.0703484
0.0449437
0.0282918
0.0175534
0.0107287
0.00645246
0.00381274
0.00220998
0.00125469
0.000696897
0.000378363
0.000200696
0.000103983
5.2625e-05
2.60193e-05
1.2571e-05
5.93639e-06
2.74054e-06
1.23705e-06
5.46037e-07
2.3571e-07
9.95078e-08
4.10807e-08
1.65829e-08
6.54413e-09
2.52401e-09
9.51189e-10
3.50111e-10
1.25829e-10
4.41331e-11
1.51022e-11
5.03483e-12
1.63822e-12
5.21375e-13
1.6234e-13
4.93915e-14
1.46919e-14
4.2616e-15
1.20725e-15
3.32279e-16
8.91576e-17
2.31335e-17
5.70306e-18
0.0105383
0.0169911
0.0216401
0.0363429
0.0891707
0.247069
0.571702
0.69718
0.733421
0.737351
0.731854
0.711221
0.668472
0.576177
0.489242
0.393058
0.329504
0.283114
0.259212
0.235423
0.224058
0.227188
0.239116
0.272621
0.325861
0.441198
0.543115
0.588485
0.59733
0.594289
0.579087
0.532547
0.434504
0.268129
0.149773
0.238349
0.57614
0.727533
0.796301
0.839385
0.861939
0.870113
0.872766
0.8733
0.867543
0.854202
0.830976
0.813722
0.803398
0.791651
0.784334
0.779296
0.772831
0.766913
0.760849
0.754264
0.74684
0.738784
0.728128
0.715203
0.702264
0.691586
0.680408
0.670511
0.665104
0.663121
0.662512
0.662745
0.665714
0.672372
0.681574
0.692457
0.70478
0.717992
0.731119
0.743192
0.753825
0.759813
0.762177
0.763433
0.764165
0.764593
0.764946
0.765625
0.766552
0.767808
0.769463
0.771138
0.77356
0.777032
0.78184
0.787734
0.794403
0.801383
0.808092
0.813803
0.817523
0.819648
0.820466
0.821243
0.823357
0.828405
0.840648
0.858523
0.876741
0.894787
0.911661
0.926696
0.939282
0.949346
0.957931
0.965688
0.973208
0.98087
0.988161
0.993696
0.996985
0.998645
0.999427
0.999769
0.99991
0.999965
0.999984
0.99999
0.99999
0.999987
0.99997
0.999898
0.999629
0.998635
0.995004
0.981921
0.936037
0.793989
0.608046
0.447096
0.318387
0.221085
0.150256
0.100167
0.0655553
0.0421123
0.0265302
0.01637
0.0098796
0.0058248
0.00335172
0.00188125
0.00102968
0.000549607
0.000286146
0.000145365
7.2084e-05
3.49046e-05
1.65094e-05
7.62952e-06
3.44561e-06
1.52088e-06
6.56162e-07
2.767e-07
1.14038e-07
4.59282e-08
1.80718e-08
6.94565e-09
2.60662e-09
9.5494e-10
3.41367e-10
1.19042e-10
4.0472e-11
1.34055e-11
4.33085e-12
1.36755e-12
4.21727e-13
1.2703e-13
3.73105e-14
1.06911e-14
2.97949e-15
8.0838e-16
2.12709e-16
5.339e-17
0.0195519
0.0201155
0.0272699
0.0683168
0.216881
0.574532
0.713757
0.743263
0.741054
0.725527
0.678805
0.579178
0.433755
0.341372
0.28232
0.246275
0.219869
0.205404
0.186814
0.17557
0.162077
0.150508
0.151223
0.158609
0.180447
0.234654
0.38041
0.532043
0.584011
0.593248
0.588587
0.552352
0.425557
0.217775
0.221949
0.567241
0.737185
0.805411
0.837519
0.854008
0.862462
0.865567
0.862754
0.853762
0.834551
0.805766
0.787411
0.77632
0.761893
0.748997
0.741171
0.734432
0.725096
0.714656
0.703462
0.692493
0.681371
0.670418
0.659965
0.651033
0.645559
0.641953
0.64025
0.639629
0.639649
0.641463
0.644868
0.648488
0.653819
0.66111
0.669743
0.679769
0.691159
0.703628
0.716173
0.728269
0.738549
0.746951
0.752677
0.756429
0.758887
0.760688
0.76206
0.763942
0.76593
0.768293
0.771918
0.775924
0.781012
0.787003
0.793955
0.801893
0.81075
0.820362
0.830385
0.840154
0.847755
0.851834
0.849901
0.840111
0.828324
0.821763
0.819916
0.826037
0.849523
0.878411
0.903328
0.923675
0.939505
0.951353
0.959494
0.965823
0.971948
0.977893
0.983511
0.988694
0.993163
0.996415
0.998313
0.999258
0.999691
0.999877
0.999952
0.999982
0.999992
0.999996
0.999996
0.999995
0.999989
0.999959
0.999838
0.999357
0.997499
0.990479
0.964769
0.873631
0.688317
0.517604
0.376773
0.267252
0.185126
0.125316
0.08287
0.0534882
0.0336617
0.0206364
0.0123161
0.00715355
0.00404378
0.00222531
0.00119268
0.000622905
0.000317192
0.000157559
7.63793e-05
3.61471e-05
1.67054e-05
7.54058e-06
3.32483e-06
1.43207e-06
6.02524e-07
2.47601e-07
9.93634e-08
3.89319e-08
1.48892e-08
5.55666e-09
2.02292e-09
7.18205e-10
2.48564e-10
8.38298e-11
2.75271e-11
8.82202e-12
2.75944e-12
8.42338e-13
2.50679e-13
7.27241e-14
2.05307e-14
5.63895e-15
1.50463e-15
3.84239e-16
0.0193259
0.0212869
0.0457801
0.170201
0.545512
0.724196
0.753875
0.746868
0.712104
0.642134
0.504641
0.391444
0.316216
0.268468
0.239645
0.222637
0.207347
0.197155
0.18084
0.16459
0.153564
0.136857
0.126006
0.126835
0.135554
0.16317
0.239587
0.425615
0.552539
0.590232
0.58808
0.541834
0.327796
0.232396
0.497777
0.72573
0.79846
0.827282
0.840521
0.847345
0.847116
0.835068
0.814172
0.787894
0.762368
0.74667
0.735679
0.724968
0.711378
0.698332
0.687506
0.678337
0.670099
0.662606
0.655223
0.649194
0.644569
0.640314
0.636855
0.635053
0.634294
0.634098
0.634555
0.636214
0.63837
0.642163
0.646645
0.651244
0.657649
0.665917
0.674513
0.68451
0.695384
0.70735
0.718818
0.730577
0.740481
0.748668
0.754083
0.757765
0.760849
0.763166
0.764477
0.766362
0.768771
0.771593
0.776008
0.780856
0.786741
0.793486
0.800822
0.808699
0.817265
0.826676
0.837312
0.849052
0.861934
0.875251
0.886915
0.894131
0.888381
0.860423
0.827194
0.81067
0.807527
0.822461
0.866121
0.907906
0.93606
0.95395
0.965949
0.973071
0.976552
0.979596
0.983457
0.987565
0.991309
0.99438
0.996727
0.998314
0.999218
0.999663
0.999862
0.999946
0.999979
0.999992
0.999997
0.999998
0.999998
0.999998
0.999993
0.999973
0.999887
0.999541
0.998188
0.993064
0.974235
0.907365
0.736828
0.561822
0.414133
0.296526
0.20641
0.139668
0.0918215
0.0586223
0.0363354
0.0218654
0.0127785
0.0072567
0.0040071
0.00215315
0.00112664
0.000574443
0.00028556
0.000138463
6.55101e-05
3.02504e-05
1.36356e-05
6.00031e-06
2.5777e-06
1.08099e-06
4.42467e-07
1.76742e-07
6.88801e-08
2.61844e-08
9.7064e-09
3.50775e-09
1.2354e-09
4.23917e-10
1.41641e-10
4.61005e-11
1.46351e-11
4.5311e-12
1.36729e-12
4.01998e-13
1.15044e-13
3.20258e-14
8.66988e-15
2.25285e-15
0.0191544
0.0274465
0.100486
0.431614
0.720355
0.765584
0.756822
0.709626
0.62777
0.534497
0.423425
0.333464
0.284157
0.25478
0.236549
0.233697
0.222979
0.202012
0.173685
0.15686
0.139988
0.119851
0.103764
0.0984957
0.100121
0.123382
0.226156
0.433489
0.557876
0.592405
0.582588
0.455547
0.289404
0.371339
0.692596
0.787056
0.816122
0.826061
0.830295
0.816411
0.773427
0.740072
0.71819
0.706397
0.698168
0.692905
0.687536
0.680114
0.670998
0.661968
0.654304
0.648637
0.64526
0.642691
0.639603
0.636895
0.634162
0.631148
0.628275
0.626884
0.626208
0.625977
0.626042
0.626878
0.628106
0.632527
0.638219
0.642817
0.651001
0.66068
0.671519
0.683526
0.696495
0.710392
0.723204
0.73552
0.745773
0.753755
0.758212
0.76036
0.761804
0.762747
0.762945
0.76265
0.763014
0.764022
0.766442
0.769958
0.774782
0.780834
0.787307
0.793899
0.799992
0.805313
0.810255
0.816003
0.825766
0.844723
0.872461
0.897731
0.915552
0.921818
0.9088
0.85299
0.806753
0.794837
0.800654
0.84169
0.906471
0.94539
0.965605
0.976934
0.9838
0.986885
0.988033
0.98946
0.991659
0.994045
0.996103
0.997637
0.998684
0.999336
0.999696
0.999871
0.999948
0.99998
0.999993
0.999997
0.999999
0.999999
0.999999
0.999998
0.999994
0.999973
0.999888
0.999548
0.998252
0.993471
0.976228
0.915869
0.752839
0.574685
0.422857
0.300902
0.207151
0.137994
0.0889697
0.0555432
0.0335983
0.0197095
0.0112233
0.00620965
0.00334129
0.00174988
0.00089257
0.000443667
0.000215001
0.000101608
4.68408e-05
2.10659e-05
9.2432e-06
3.95674e-06
1.65229e-06
6.72986e-07
2.67308e-07
1.03517e-07
3.90749e-08
1.43737e-08
5.1512e-09
1.79811e-09
6.11137e-10
2.02167e-10
6.51778e-11
2.04805e-11
6.27017e-12
1.86968e-12
5.42722e-13
1.53255e-13
4.21124e-14
1.11352e-14
0.019444
0.0461192
0.230488
0.679305
0.773484
0.769253
0.725006
0.663416
0.601004
0.503741
0.390213
0.313978
0.279419
0.270209
0.278139
0.264766
0.224025
0.13972
0.0898612
0.069715
0.0723635
0.0695337
0.0675446
0.0733583
0.0904323
0.130984
0.264356
0.480706
0.580064
0.58892
0.527593
0.358465
0.336557
0.631782
0.771559
0.806908
0.814801
0.815244
0.794137
0.722411
0.675586
0.657258
0.649266
0.646868
0.650436
0.653562
0.65252
0.649748
0.646059
0.64242
0.639996
0.638695
0.637356
0.634375
0.630445
0.62556
0.619604
0.61241
0.604208
0.595351
0.588214
0.580953
0.576719
0.574785
0.574274
0.577813
0.583202
0.588281
0.597593
0.606092
0.619776
0.63321
0.651328
0.670589
0.690809
0.708649
0.723497
0.735628
0.744507
0.748907
0.750617
0.750935
0.750841
0.752419
0.754154
0.756146
0.758838
0.762711
0.768364
0.775673
0.783446
0.791038
0.797274
0.801041
0.801867
0.798941
0.791332
0.785093
0.78886
0.820351
0.876565
0.92067
0.935413
0.931492
0.882189
0.810047
0.790839
0.795599
0.830815
0.90884
0.954227
0.974915
0.984918
0.990552
0.993495
0.994534
0.99484
0.995417
0.996466
0.997595
0.998523
0.999163
0.999557
0.999783
0.999902
0.999959
0.999984
0.999994
0.999998
0.999999
1
1
0.999999
0.999998
0.999991
0.999963
0.99985
0.99942
0.997843
0.992155
0.972086
0.902728
0.728074
0.54781
0.396264
0.276112
0.185528
0.120342
0.0754404
0.0457631
0.026897
0.0153356
0.00849157
0.00457079
0.00239365
0.00122034
0.000606002
0.000293235
0.000138301
6.359e-05
2.85066e-05
1.24596e-05
5.30938e-06
2.20552e-06
8.92974e-07
3.52327e-07
1.35438e-07
5.07151e-08
1.84944e-08
6.56702e-09
2.27e-09
7.63604e-10
2.50077e-10
7.97837e-11
2.47923e-11
7.50162e-12
2.20967e-12
6.33276e-13
1.7669e-13
4.75374e-14
0.0209569
0.0883818
0.456528
0.754355
0.781441
0.752486
0.705809
0.657796
0.597917
0.495261
0.380022
0.311895
0.312865
0.309326
0.305795
0.270569
0.187648
0.0941184
0.0593234
0.0528108
0.0541006
0.0580547
0.0650112
0.0779421
0.109065
0.192479
0.415824
0.555162
0.579918
0.548188
0.410396
0.37254
0.525261
0.749199
0.801833
0.811638
0.807757
0.781042
0.707083
0.640711
0.616006
0.607588
0.605619
0.608362
0.62021
0.63227
0.636089
0.636823
0.63656
0.635922
0.634013
0.631043
0.625125
0.616528
0.605968
0.592433
0.577771
0.562481
0.547981
0.537476
0.529714
0.523828
0.520744
0.519802
0.523448
0.52985
0.535188
0.543012
0.551902
0.561227
0.570497
0.579035
0.58957
0.600981
0.616314
0.636116
0.657659
0.677043
0.694536
0.710081
0.722822
0.735372
0.745917
0.751364
0.755302
0.759734
0.764554
0.770435
0.779575
0.792754
0.808809
0.825996
0.841494
0.851115
0.852118
0.843346
0.817507
0.787383
0.768545
0.764828
0.77849
0.843435
0.91765
0.940022
0.937243
0.889499
0.816239
0.79763
0.805082
0.847447
0.921912
0.964289
0.982762
0.990886
0.994942
0.997027
0.997934
0.998193
0.99822
0.998316
0.998713
0.999189
0.999532
0.99975
0.999875
0.999941
0.999974
0.999989
0.999996
0.999998
0.999999
1
1
1
0.999999
0.999996
0.999984
0.999936
0.999751
0.999069
0.996597
0.987795
0.957009
0.851049
0.655383
0.479327
0.336472
0.227172
0.147787
0.092804
0.0563475
0.0331309
0.0188901
0.0104564
0.00562461
0.00294239
0.00149785
0.000742338
0.000358306
0.000168474
7.71793e-05
3.44499e-05
1.49826e-05
6.34839e-06
2.62036e-06
1.05344e-06
4.12418e-07
1.57205e-07
5.83344e-08
2.10692e-08
7.40589e-09
2.53295e-09
8.42914e-10
2.73116e-10
8.61637e-11
2.64632e-11
7.91211e-12
2.30201e-12
6.52261e-13
1.7853e-13
0.025365
0.157301
0.597553
0.773798
0.780261
0.743499
0.708019
0.686995
0.63896
0.522925
0.400822
0.350013
0.329077
0.333792
0.336363
0.319596
0.243245
0.133693
0.0881115
0.0726617
0.0696745
0.0765717
0.0948063
0.13774
0.241934
0.420883
0.530045
0.557136
0.542369
0.443198
0.412008
0.465449
0.716419
0.797294
0.812229
0.811088
0.783145
0.716345
0.63418
0.595959
0.583018
0.579827
0.580124
0.587879
0.603771
0.619663
0.625385
0.626595
0.626424
0.624424
0.621253
0.614058
0.604203
0.592935
0.580036
0.565093
0.54569
0.525693
0.506387
0.490079
0.475564
0.466997
0.462851
0.461505
0.46656
0.477544
0.494965
0.509459
0.525195
0.541109
0.552049
0.562197
0.570686
0.579059
0.588028
0.599102
0.615058
0.635217
0.657105
0.680897
0.705803
0.728255
0.744989
0.757781
0.766054
0.771255
0.775613
0.780837
0.790111
0.804816
0.824454
0.847907
0.873519
0.899251
0.92147
0.932744
0.9278
0.885298
0.809522
0.767582
0.760652
0.772365
0.835353
0.919731
0.942376
0.937604
0.885474
0.831781
0.821317
0.834
0.88673
0.942411
0.974467
0.988916
0.994914
0.997529
0.998739
0.999268
0.999468
0.999523
0.999533
0.999553
0.999652
0.999785
0.999879
0.999937
0.99997
0.999986
0.999994
0.999998
0.999999
1
1
1
1
1
0.999998
0.999992
0.999965
0.999865
0.999489
0.998102
0.993086
0.975241
0.912516
0.735781
0.540672
0.380792
0.257472
0.167552
0.105177
0.0638128
0.0374827
0.0213449
0.0117974
0.00633422
0.00330619
0.00167853
0.00082924
0.000398766
0.000186695
8.51081e-05
3.77785e-05
1.6328e-05
6.87063e-06
2.81433e-06
1.12204e-06
4.35342e-07
1.64359e-07
6.03741e-08
2.1576e-08
7.50093e-09
2.5365e-09
8.34716e-10
2.67376e-10
8.33611e-11
2.53002e-11
7.47331e-12
2.15039e-12
5.98621e-13
0.0337479
0.206775
0.645696
0.778442
0.777349
0.748363
0.746596
0.740342
0.69041
0.565863
0.436907
0.378539
0.358217
0.353123
0.360415
0.363422
0.354495
0.301544
0.234039
0.205045
0.195392
0.220947
0.274754
0.36774
0.466551
0.515164
0.531297
0.516785
0.458844
0.441601
0.473369
0.691037
0.795828
0.820955
0.823577
0.809488
0.766337
0.690359
0.606295
0.57516
0.566824
0.56544
0.567374
0.577149
0.594631
0.611835
0.618375
0.620311
0.620574
0.619437
0.614452
0.605039
0.592475
0.575746
0.553141
0.521007
0.483791
0.4463
0.409296
0.377644
0.351582
0.335942
0.328684
0.326422
0.337541
0.356331
0.381271
0.414163
0.453697
0.490113
0.519995
0.544179
0.559148
0.569671
0.577976
0.58542
0.594192
0.608402
0.629348
0.656339
0.687254
0.716189
0.74108
0.757775
0.766244
0.769949
0.771846
0.773227
0.777196
0.786383
0.802661
0.827607
0.859508
0.894452
0.926415
0.949347
0.96144
0.960935
0.931347
0.832658
0.776489
0.769116
0.787598
0.861468
0.931921
0.950178
0.943601
0.902124
0.871057
0.866818
0.88282
0.929864
0.964269
0.983873
0.993308
0.997265
0.998837
0.999478
0.999743
0.999846
0.999882
0.999893
0.9999
0.999913
0.999934
0.999957
0.999975
0.999987
0.999994
0.999997
0.999999
1
1
1
1
1
1
0.999999
0.999995
0.999977
0.99991
0.999653
0.998684
0.995107
0.982111
0.93557
0.783498
0.576791
0.40597
0.274098
0.178024
0.111508
0.0674986
0.039552
0.0224647
0.0123807
0.00662608
0.00344601
0.00174238
0.00085685
0.000409936
0.000190831
8.64435e-05
3.81033e-05
1.63422e-05
6.81918e-06
2.76805e-06
1.09293e-06
4.19707e-07
1.56752e-07
5.6936e-08
2.01124e-08
6.90955e-09
2.30893e-09
7.50815e-10
2.37597e-10
7.31907e-11
2.1946e-11
6.41154e-12
1.81452e-12
0.0370031
0.225496
0.661607
0.781246
0.781332
0.769536
0.767844
0.759506
0.723757
0.646768
0.51609
0.422294
0.388125
0.377129
0.375848
0.389105
0.397819
0.399843
0.395815
0.39103
0.397348
0.417329
0.449357
0.47654
0.499233
0.508103
0.48858
0.466838
0.461654
0.49593
0.677864
0.798289
0.833093
0.839298
0.835022
0.811094
0.76682
0.692747
0.606199
0.571498
0.561463
0.559625
0.561217
0.570914
0.589641
0.605617
0.61111
0.612579
0.612588
0.610267
0.600666
0.585505
0.5655
0.53655
0.49301
0.442519
0.393894
0.346377
0.308224
0.275506
0.24919
0.232402
0.223597
0.220289
0.227834
0.242749
0.26713
0.298666
0.335247
0.380521
0.43769
0.490461
0.529981
0.55613
0.572487
0.581974
0.588368
0.594389
0.603088
0.616999
0.641072
0.674192
0.705507
0.727489
0.738062
0.740692
0.739934
0.73779
0.73584
0.734355
0.735902
0.745178
0.770482
0.81963
0.884784
0.934069
0.961602
0.971608
0.969973
0.936482
0.839063
0.795254
0.793662
0.827275
0.904492
0.95064
0.964672
0.962757
0.946442
0.929259
0.923401
0.932399
0.96117
0.980694
0.991175
0.996282
0.998535
0.999437
0.999776
0.999904
0.999953
0.999969
0.999974
0.999977
0.999979
0.999983
0.999988
0.999992
0.999996
0.999998
0.999999
1
1
1
1
1
1
1
0.999999
0.999996
0.999982
0.999929
0.999718
0.998906
0.995836
0.984442
0.942916
0.800594
0.588673
0.412866
0.277682
0.179654
0.1121
0.0675983
0.0394556
0.0223179
0.0122455
0.00652243
0.00337447
0.00169655
0.000829166
0.000394026
0.000182083
8.18246e-05
3.57565e-05
1.51932e-05
6.27661e-06
2.52087e-06
9.84246e-07
3.73577e-07
1.37847e-07
4.94523e-08
1.72502e-08
5.85136e-09
1.9309e-09
6.1999e-10
1.93776e-10
5.89592e-11
1.74817e-11
5.0269e-12
0.0378293
0.228918
0.662724
0.783461
0.788923
0.778242
0.779051
0.786532
0.780005
0.729166
0.610608
0.49251
0.432617
0.407121
0.397669
0.395867
0.404627
0.418756
0.424861
0.435558
0.447052
0.456402
0.469237
0.474071
0.475517
0.472798
0.470612
0.479771
0.527511
0.69494
0.804524
0.843107
0.852902
0.853703
0.844553
0.820456
0.777472
0.712017
0.620466
0.574266
0.561497
0.558396
0.558641
0.565839
0.585073
0.60105
0.606539
0.607978
0.608269
0.60421
0.591291
0.573772
0.547008
0.502031
0.44617
0.384955
0.329
0.280006
0.240386
0.209458
0.186442
0.173176
0.167221
0.165524
0.17181
0.186997
0.2124
0.248443
0.284833
0.322862
0.366252
0.418279
0.469175
0.513648
0.552527
0.578126
0.591387
0.599329
0.603443
0.610073
0.622803
0.642103
0.665952
0.690158
0.709876
0.722761
0.728475
0.729638
0.728828
0.725166
0.720889
0.720189
0.723741
0.737867
0.782275
0.87055
0.936872
0.96858
0.977026
0.971583
0.924375
0.854193
0.833418
0.839202
0.887517
0.942012
0.969771
0.980506
0.982554
0.980839
0.974994
0.969595
0.969978
0.980167
0.990556
0.995786
0.998226
0.999293
0.999733
0.999901
0.999962
0.999984
0.999991
0.999994
0.999995
0.999995
0.999996
0.999997
0.999998
0.999999
0.999999
1
1
1
1
1
1
1
1
0.999999
0.999996
0.999984
0.999934
0.999733
0.99894
0.995873
0.984284
0.941473
0.794479
0.580532
0.404771
0.270697
0.174182
0.108107
0.0648424
0.0376391
0.0211677
0.0115436
0.0061086
0.00313847
0.00156622
0.0007594
0.000357805
0.000163837
7.29058e-05
3.15265e-05
1.32473e-05
5.40872e-06
2.14572e-06
8.27139e-07
3.09851e-07
1.12811e-07
3.99269e-08
1.3739e-08
4.59812e-09
1.49716e-09
4.74498e-10
1.46413e-10
4.40318e-11
1.28551e-11
0.034226
0.192117
0.622074
0.780801
0.792485
0.784693
0.784891
0.798156
0.804043
0.790754
0.739769
0.62771
0.513773
0.460752
0.433076
0.42162
0.418146
0.418699
0.428524
0.438117
0.444747
0.451224
0.459359
0.462704
0.470284
0.480765
0.511501
0.589432
0.73408
0.815401
0.848583
0.858993
0.860824
0.858294
0.847954
0.826792
0.790844
0.73537
0.656562
0.591088
0.566229
0.559441
0.55869
0.563056
0.579029
0.596231
0.602838
0.604852
0.603987
0.597576
0.583194
0.558669
0.518762
0.463123
0.399605
0.335217
0.276146
0.229997
0.194034
0.168634
0.151483
0.141363
0.136559
0.136769
0.141578
0.152163
0.170188
0.204915
0.255529
0.302395
0.3448
0.392336
0.443066
0.484533
0.517067
0.551181
0.584128
0.606778
0.625003
0.636608
0.642584
0.650715
0.668363
0.69306
0.720278
0.747574
0.767595
0.775396
0.774153
0.766535
0.745956
0.728873
0.724193
0.728289
0.747825
0.804615
0.88915
0.949287
0.976565
0.982175
0.974287
0.936508
0.903501
0.893518
0.901099
0.938958
0.969393
0.984898
0.991577
0.993847
0.994074
0.99325
0.991665
0.991001
0.99236
0.996044
0.998219
0.999256
0.999708
0.999891
0.999961
0.999986
0.999995
0.999998
0.999998
0.999999
0.999999
0.999999
1
1
1
1
1
1
1
1
1
1
1
1
0.999999
0.999996
0.999984
0.999933
0.999719
0.998855
0.995454
0.982422
0.933831
0.772466
0.559233
0.387056
0.257044
0.164278
0.101274
0.0603262
0.0347672
0.0194058
0.0104991
0.00550955
0.00280576
0.00138713
0.000665908
0.000310453
0.000140564
6.18081e-05
2.63932e-05
1.09448e-05
4.4077e-06
1.724e-06
6.55018e-07
2.41796e-07
8.67461e-08
3.02531e-08
1.026e-08
3.3849e-09
1.08697e-09
3.39865e-10
1.03584e-10
3.06755e-11
0.0242558
0.121085
0.515956
0.768733
0.798521
0.794087
0.790389
0.800463
0.814811
0.817802
0.805717
0.768456
0.689296
0.576311
0.508809
0.474403
0.453633
0.445763
0.443707
0.445583
0.451719
0.45924
0.469733
0.482917
0.509009
0.559494
0.667264
0.772464
0.824086
0.848831
0.85798
0.860424
0.860508
0.855829
0.843661
0.821683
0.786667
0.734865
0.667102
0.611124
0.579963
0.565778
0.561619
0.563402
0.571408
0.58913
0.597718
0.600078
0.598942
0.590855
0.573657
0.550129
0.507989
0.450542
0.384752
0.320507
0.262378
0.216925
0.183085
0.159543
0.143956
0.134934
0.13165
0.131891
0.135053
0.144493
0.16032
0.189125
0.241394
0.295365
0.340947
0.385991
0.43531
0.478812
0.510318
0.533795
0.556378
0.588587
0.625334
0.658689
0.686924
0.706212
0.725927
0.755472
0.792808
0.831716
0.866744
0.894011
0.907242
0.903084
0.867356
0.80128
0.76252
0.751399
0.755235
0.789961
0.869835
0.932818
0.969813
0.985717
0.988919
0.985794
0.976083
0.967273
0.960233
0.95998
0.972347
0.986738
0.994019
0.997102
0.998215
0.998475
0.998441
0.998288
0.998253
0.998376
0.998944
0.999464
0.999756
0.9999
0.999962
0.999986
0.999995
0.999998
0.999999
1
1
1
1
1
1