/*--------------------------------*- C++ -*----------------------------------*\
  =========                 |
  \\      /  F ield         | OpenFOAM: The Open Source CFD Toolbox
   \\    /   O peration     | Website:  https://openfoam.org
    \\  /    A nd           | Version:  7
     \\/     M anipulation  |
\*---------------------------------------------------------------------------*/
FoamFile
{
    version     2.0;
    format      ascii;
    class       volVectorField;
    location    "0.06";
    object      UMean;
}
// * * * * * * * * * * * * * * * * * * * * * * * * * * * * * * * * * * * * * //

dimensions      [0 1 -1 0 0 0 0];

internalField   nonuniform List<vector> 
12225
(
(4.77531 0.164652 0)
(4.18078 0.111534 0)
(3.71994 0.0980815 0)
(3.35132 0.0814019 0)
(3.02012 0.0681257 0)
(2.71162 0.0584047 0)
(2.42665 0.0499627 0)
(2.16976 0.0419339 0)
(1.94501 0.033444 0)
(1.75262 0.0259319 0)
(1.59425 0.0176584 0)
(1.46516 0.0123848 0)
(1.36778 0.00401247 0)
(1.29241 0.00384176 0)
(1.24151 -0.00780512 0)
(1.20809 0.00262621 0)
(1.1886 -0.023646 0)
(1.19548 -0.00121802 0)
(5.02204 0.11273 0)
(4.87616 0.0732989 0)
(4.75885 0.0894539 0)
(4.66938 0.088928 0)
(4.57642 0.0873993 0)
(4.47215 0.0878235 0)
(4.35826 0.0881151 0)
(4.24057 0.0861624 0)
(4.12158 0.082484 0)
(4.00683 0.0759996 0)
(3.89499 0.0693434 0)
(3.79359 0.0596872 0)
(3.69548 0.0529 0)
(3.61398 0.0412802 0)
(3.53024 0.0376747 0)
(3.47128 0.0225707 0)
(3.40016 0.0214435 0)
(3.35981 -0.00941392 0)
(4.9973 0.17256 0)
(4.87831 0.122583 0)
(4.79991 0.130685 0)
(4.76918 0.1251 0)
(4.75361 0.11792 0)
(4.73793 0.114603 0)
(4.71987 0.112575 0)
(4.70006 0.109943 0)
(4.67864 0.104968 0)
(4.65506 0.0989758 0)
(4.6295 0.0903157 0)
(4.60177 0.0826246 0)
(4.57363 0.0717673 0)
(4.54427 0.0650632 0)
(4.51738 0.0530136 0)
(4.48932 0.0476558 0)
(4.46752 0.0322907 0)
(4.43956 0.0156968 0)
(4.99433 0.189091 0)
(4.89818 0.120221 0)
(4.82113 0.119032 0)
(4.78652 0.11494 0)
(4.77331 0.107883 0)
(4.76573 0.103814 0)
(4.76055 0.102212 0)
(4.7583 0.100234 0)
(4.75879 0.0969349 0)
(4.7607 0.0916836 0)
(4.76295 0.0856292 0)
(4.76437 0.0780052 0)
(4.76542 0.0708374 0)
(4.76515 0.0621859 0)
(4.76605 0.0549059 0)
(4.76543 0.0451122 0)
(4.76876 0.0344854 0)
(4.76718 0.0191057 0)
(4.99396 0.214579 0)
(4.92123 0.144302 0)
(4.85199 0.135358 0)
(4.8153 0.130806 0)
(4.80011 0.121887 0)
(4.79175 0.114574 0)
(4.786 0.109888 0)
(4.78322 0.105931 0)
(4.7839 0.100918 0)
(4.78707 0.0948498 0)
(4.79184 0.0875671 0)
(4.79701 0.0799277 0)
(4.8027 0.0715484 0)
(4.80822 0.0632399 0)
(4.81471 0.0543531 0)
(4.82114 0.0444241 0)
(4.82911 0.0331394 0)
(4.83511 0.0167161 0)
(4.99288 0.229266 0)
(4.93939 0.158728 0)
(4.88007 0.141106 0)
(4.84417 0.134461 0)
(4.82847 0.124464 0)
(4.82072 0.115065 0)
(4.81559 0.108456 0)
(4.81279 0.103224 0)
(4.81289 0.0977001 0)
(4.81535 0.0911403 0)
(4.8194 0.0837462 0)
(4.82406 0.0756781 0)
(4.8293 0.0673113 0)
(4.83459 0.0585535 0)
(4.8407 0.0493606 0)
(4.84674 0.039183 0)
(4.85367 0.0271977 0)
(4.85885 0.012503 0)
(4.99381 0.244148 0)
(4.9539 0.175364 0)
(4.904 0.150791 0)
(4.87013 0.14127 0)
(4.8541 0.13058 0)
(4.84664 0.11982 0)
(4.84201 0.1113 0)
(4.83935 0.104535 0)
(4.83921 0.0979862 0)
(4.84134 0.0908229 0)
(4.84511 0.0829871 0)
(4.84955 0.0746414 0)
(4.85456 0.0659749 0)
(4.85956 0.056859 0)
(4.86515 0.0473179 0)
(4.8703 0.0366989 0)
(4.87597 0.0248559 0)
(4.87951 0.0110152 0)
(5.00204 0.254791 0)
(4.97329 0.189637 0)
(4.93201 0.159957 0)
(4.90039 0.146693 0)
(4.8839 0.134999 0)
(4.87641 0.123144 0)
(4.87217 0.112974 0)
(4.86951 0.10463 0)
(4.86881 0.0969955 0)
(4.87012 0.08912 0)
(4.87312 0.0807657 0)
(4.87696 0.0720082 0)
(4.88149 0.0629829 0)
(4.88602 0.0536176 0)
(4.89107 0.0438133 0)
(4.89547 0.0332116 0)
(4.90022 0.0216737 0)
(4.90271 0.00883546 0)
(5.00146 0.262262 0)
(4.98207 0.202452 0)
(4.94964 0.169626 0)
(4.92223 0.152616 0)
(4.90689 0.139523 0)
(4.9001 0.126765 0)
(4.89681 0.115295 0)
(4.89495 0.10558 0)
(4.89458 0.0968903 0)
(4.89584 0.0883241 0)
(4.89858 0.0794872 0)
(4.90211 0.0703196 0)
(4.90624 0.0609373 0)
(4.91028 0.051278 0)
(4.91464 0.0412936 0)
(4.91828 0.0307266 0)
(4.92205 0.019548 0)
(4.92381 0.00762046 0)
(4.99671 0.268212 0)
(4.98451 0.213276 0)
(4.95979 0.178397 0)
(4.93654 0.157968 0)
(4.92227 0.143152 0)
(4.91578 0.129545 0)
(4.91315 0.117052 0)
(4.91212 0.106119 0)
(4.91236 0.0963703 0)
(4.91393 0.0870767 0)
(4.91675 0.0777745 0)
(4.92026 0.0683175 0)
(4.92423 0.0587272 0)
(4.92806 0.0489621 0)
(4.93201 0.0389856 0)
(4.93521 0.0286539 0)
(4.93832 0.0179846 0)
(4.93971 0.00697097 0)
(4.99104 0.272197 0)
(4.98309 0.221586 0)
(4.96395 0.186003 0)
(4.94443 0.163048 0)
(4.93157 0.146368 0)
(4.92542 0.131703 0)
(4.92311 0.118213 0)
(4.92246 0.106136 0)
(4.92288 0.0953594 0)
(4.92434 0.0853181 0)
(4.92691 0.0755225 0)
(4.93013 0.0657351 0)
(4.93383 0.0559095 0)
(4.93739 0.04602 0)
(4.94102 0.0360536 0)
(4.94388 0.0259488 0)
(4.94671 0.0157543 0)
(4.94789 0.00551892 0)
(5.00074 0.275315 0)
(4.99494 0.228531 0)
(4.97931 0.193031 0)
(4.96263 0.168193 0)
(4.95114 0.149737 0)
(4.94539 0.134068 0)
(4.94318 0.119853 0)
(4.94256 0.107007 0)
(4.94288 0.0954214 0)
(4.94405 0.0847115 0)
(4.94619 0.0744498 0)
(4.94894 0.0643706 0)
(4.95217 0.0543809 0)
(4.95524 0.0444593 0)
(4.95839 0.0345906 0)
(4.96073 0.0247715 0)
(4.96311 0.0150249 0)
(4.96392 0.00544763 0)
(5.00221 0.2787 0)
(4.99986 0.233898 0)
(4.98845 0.198622 0)
(4.97518 0.172302 0)
(4.9656 0.152135 0)
(4.96063 0.135348 0)
(4.95882 0.120401 0)
(4.95857 0.106848 0)
(4.95918 0.0945163 0)
(4.96043 0.0831425 0)
(4.96239 0.072386 0)
(4.96473 0.0619981 0)
(4.96743 0.0518534 0)
(4.96988 0.0419042 0)
(4.97242 0.0321313 0)
(4.97414 0.0225474 0)
(4.9761 0.0131737 0)
(4.97649 0.00410247 0)
(5.00981 0.280737 0)
(5.01073 0.239145 0)
(5.0032 0.20464 0)
(4.9931 0.177322 0)
(4.9855 0.15563 0)
(4.98164 0.137578 0)
(4.98065 0.121742 0)
(4.98122 0.107466 0)
(4.98262 0.0945012 0)
(4.98447 0.0826114 0)
(4.98682 0.0715193 0)
(4.98939 0.060964 0)
(4.99225 0.050778 0)
(4.99483 0.0408845 0)
(4.99749 0.03126 0)
(4.99927 0.0219242 0)
(5.00127 0.0129043 0)
(5.00168 0.00429412 0)
(5.00839 0.279703 0)
(5.01118 0.241755 0)
(5.0068 0.208063 0)
(5.00021 0.179986 0)
(4.99548 0.156963 0)
(4.99351 0.137635 0)
(4.99365 0.120797 0)
(4.99503 0.105729 0)
(4.99712 0.0920578 0)
(4.99965 0.0795316 0)
(5.00259 0.0679212 0)
(5.0057 0.0570292 0)
(5.00897 0.0467157 0)
(5.01193 0.0369064 0)
(5.01484 0.0275587 0)
(5.01696 0.0186663 0)
(5.01913 0.0102145 0)
(5.02003 0.00225249 0)
(5.00823 0.28211 0)
(5.01222 0.245807 0)
(5.01054 0.212585 0)
(5.00702 0.183809 0)
(5.00491 0.15957 0)
(5.00485 0.139054 0)
(5.00633 0.121234 0)
(5.0087 0.105353 0)
(5.01155 0.0909935 0)
(5.01461 0.0779153 0)
(5.01782 0.0659221 0)
(5.02099 0.0548481 0)
(5.02419 0.0445331 0)
(5.0271 0.0348921 0)
(5.02994 0.0258207 0)
(5.03218 0.0173235 0)
(5.03447 0.00929801 0)
(5.03579 0.00185462 0)
(5.00217 0.279429 0)
(5.00662 0.243412 0)
(5.00674 0.210465 0)
(5.00609 0.181432 0)
(5.00704 0.156369 0)
(5.00958 0.13479 0)
(5.01299 0.116027 0)
(5.01674 0.0994904 0)
(5.02065 0.0847206 0)
(5.02455 0.0713893 0)
(5.02846 0.0592384 0)
(5.03221 0.0480883 0)
(5.03586 0.0377791 0)
(5.03914 0.0282319 0)
(5.0423 0.0193399 0)
(5.04487 0.0111041 0)
(5.0475 0.003407 0)
(5.04925 -0.00367907 0)
(5.00773 0.283802 0)
(5.01411 0.245608 0)
(5.01697 0.211372 0)
(5.01928 0.181217 0)
(5.02309 0.155043 0)
(5.02813 0.132539 0)
(5.03356 0.113143 0)
(5.0389 0.0962065 0)
(5.04402 0.0811768 0)
(5.04886 0.067702 0)
(5.0535 0.0555556 0)
(5.0578 0.0446036 0)
(5.06186 0.0346781 0)
(5.06545 0.0256755 0)
(5.06886 0.0174064 0)
(5.07164 0.0098371 0)
(5.07447 0.00276473 0)
(5.07639 -0.00370604 0)
(5.00249 0.276451 0)
(5.01211 0.236938 0)
(5.01892 0.200945 0)
(5.0252 0.169465 0)
(5.03274 0.142468 0)
(5.04114 0.119369 0)
(5.04954 0.0994464 0)
(5.05747 0.0820584 0)
(5.06486 0.0667161 0)
(5.07171 0.0530827 0)
(5.07809 0.0408938 0)
(5.08389 0.0299583 0)
(5.08921 0.0200826 0)
(5.0939 0.011149 0)
(5.09825 0.00298972 0)
(5.10194 -0.00443794 0)
(5.10557 -0.011317 0)
(5.10839 -0.0175863 0)
(5.00312 0.274662 0)
(5.01375 0.230229 0)
(5.02354 0.190617 0)
(5.03436 0.157147 0)
(5.04663 0.129652 0)
(5.059 0.106992 0)
(5.07032 0.0879056 0)
(5.0803 0.0715235 0)
(5.0892 0.0573385 0)
(5.09729 0.0450286 0)
(5.10472 0.0342872 0)
(5.11142 0.0248363 0)
(5.11748 0.0163891 0)
(5.12276 0.00877654 0)
(5.12756 0.00180169 0)
(5.13163 -0.00455615 0)
(5.13551 -0.0104796 0)
(5.13856 -0.0158597 0)
(4.99746 0.2716 0)
(5.01016 0.219474 0)
(5.02429 0.175447 0)
(5.04048 0.140064 0)
(5.05803 0.111813 0)
(5.07495 0.0885816 0)
(5.09001 0.0687894 0)
(5.10306 0.051676 0)
(5.11448 0.0369578 0)
(5.12456 0.0244309 0)
(5.13352 0.0137688 0)
(5.14136 0.00459375 0)
(5.14827 -0.00346832 0)
(5.15422 -0.0106661 0)
(5.15957 -0.0172164 0)
(5.16407 -0.0231844 0)
(5.16833 -0.0287075 0)
(5.17167 -0.0337316 0)
(5.00282 0.266428 0)
(5.02082 0.205046 0)
(5.0424 0.157131 0)
(5.06532 0.122201 0)
(5.08709 0.0966625 0)
(5.10602 0.0768234 0)
(5.12203 0.0603939 0)
(5.13598 0.0464018 0)
(5.14864 0.0344715 0)
(5.16018 0.0243081 0)
(5.17059 0.0155406 0)
(5.17974 0.00783884 0)
(5.18781 0.000926578 0)
(5.19477 -0.00533104 0)
(5.201 -0.0110716 0)
(5.2063 -0.0163036 0)
(5.21122 -0.0211783 0)
(5.21514 -0.0256205 0)
(5.00201 0.259738 0)
(5.02897 0.18638 0)
(5.06154 0.133317 0)
(5.0938 0.0969952 0)
(5.12177 0.0705205 0)
(5.14427 0.0490153 0)
(5.16239 0.0307336 0)
(5.17775 0.0156086 0)
(5.19134 0.00354813 0)
(5.20337 -0.00601805 0)
(5.2139 -0.0138465 0)
(5.22294 -0.0205261 0)
(5.23078 -0.0264091 0)
(5.23748 -0.0316591 0)
(5.24344 -0.0364023 0)
(5.24844 -0.0406981 0)
(5.25304 -0.0446555 0)
(5.25662 -0.0482676 0)
(5.00737 0.244927 0)
(5.0435 0.164338 0)
(5.08691 0.115094 0)
(5.12618 0.087534 0)
(5.15706 0.0688285 0)
(5.18087 0.0522545 0)
(5.20079 0.0371485 0)
(5.2188 0.0243218 0)
(5.23513 0.013931 0)
(5.24933 0.00543682 0)
(5.26133 -0.00179654 0)
(5.27135 -0.00814258 0)
(5.27994 -0.0137798 0)
(5.2873 -0.0187841 0)
(5.29383 -0.0232833 0)
(5.29935 -0.0273372 0)
(5.30436 -0.0310943 0)
(5.30835 -0.0345234 0)
(5.0067 0.227273 0)
(5.05915 0.125927 0)
(5.12081 0.0716665 0)
(5.17029 0.0438401 0)
(5.20426 0.0239311 0)
(5.22857 0.00637897 0)
(5.24902 -0.00768953 0)
(5.2676 -0.0176927 0)
(5.28414 -0.0247766 0)
(5.29815 -0.0303808 0)
(5.30979 -0.0352942 0)
(5.31952 -0.0397197 0)
(5.32793 -0.043671 0)
(5.33518 -0.0471818 0)
(5.34161 -0.050339 0)
(5.347 -0.0532183 0)
(5.35189 -0.0558961 0)
(5.35572 -0.0583924 0)
(5.01654 0.212113 0)
(5.09094 0.113113 0)
(5.17074 0.0775194 0)
(5.22717 0.061203 0)
(5.26241 0.0431497 0)
(5.2883 0.0250338 0)
(5.3116 0.0107576 0)
(5.33286 0.000778882 0)
(5.35097 -0.00653165 0)
(5.36564 -0.0125763 0)
(5.37758 -0.0179168 0)
(5.38754 -0.0226532 0)
(5.39612 -0.0268239 0)
(5.40346 -0.0305061 0)
(5.40987 -0.0338176 0)
(5.4152 -0.0368256 0)
(5.41997 -0.0396188 0)
(5.42376 -0.0421868 0)
(5.00645 0.158759 0)
(5.12039 0.0341265 0)
(5.21936 0.00634114 0)
(5.2763 -0.00319908 0)
(5.30851 -0.0173602 0)
(5.33424 -0.0296811 0)
(5.35875 -0.037216 0)
(5.38094 -0.041786 0)
(5.39946 -0.0453828 0)
(5.4144 -0.0486993 0)
(5.42669 -0.0517167 0)
(5.43709 -0.0543688 0)
(5.44614 -0.0566811 0)
(5.45394 -0.0587465 0)
(5.46079 -0.0606312 0)
(5.46657 -0.0623981 0)
(5.4718 -0.064074 0)
(5.47603 -0.0656856 0)
(5.01298 0.152924 0)
(5.17569 0.0581172 0)
(5.29935 0.0443078 0)
(5.35947 0.0278608 0)
(5.3921 0.00860829 0)
(5.42016 -0.00507966 0)
(5.44661 -0.0131125 0)
(5.46949 -0.0185706 0)
(5.48801 -0.0232042 0)
(5.50279 -0.0274017 0)
(5.51477 -0.031112 0)
(5.52466 -0.0343762 0)
(5.53284 -0.0372506 0)
(5.53949 -0.0398681 0)
(5.54482 -0.0422483 0)
(5.54889 -0.0445049 0)
(5.552 -0.0466073 0)
(5.55405 -0.048659 0)
(5.01749 0.018827 0)
(5.22891 -0.0521688 0)
(5.35455 -0.0347802 0)
(5.4078 -0.0432125 0)
(5.43735 -0.0532846 0)
(5.46049 -0.0578083 0)
(5.47793 -0.0594972 0)
(5.48826 -0.0607082 0)
(5.49157 -0.0619516 0)
(5.48912 -0.0631113 0)
(5.48211 -0.0640685 0)
(5.47165 -0.064853 0)
(5.45819 -0.0654833 0)
(5.44251 -0.0660486 0)
(5.42452 -0.0665264 0)
(5.40526 -0.0670143 0)
(5.38395 -0.067453 0)
(5.36246 -0.067978 0)
(4.96675 0.0703013 0)
(5.10192 -0.000423188 0)
(5.07323 -0.000624544 0)
(4.95875 -0.0110235 0)
(4.83098 -0.018681 0)
(4.70654 -0.0216793 0)
(4.58572 -0.0228384 0)
(4.46685 -0.0235922 0)
(4.34957 -0.0241486 0)
(4.23457 -0.0244787 0)
(4.1226 -0.0246028 0)
(4.01438 -0.0245795 0)
(3.90992 -0.0244544 0)
(3.80963 -0.0242809 0)
(3.71277 -0.0240703 0)
(3.62023 -0.0238704 0)
(3.53029 -0.0236535 0)
(3.44532 -0.0235051 0)
(-0.00842867 0.00738512 1.49343e-21)
(-0.00279666 -0.024002 -1.48418e-21)
(0.0312818 -0.0501075 0)
(0.0808199 -0.0656009 0)
(0.138904 -0.0729794 0)
(0.201121 -0.075287 1.43823e-21)
(0.263982 -0.074508 0)
(0.325805 -0.071887 0)
(0.385633 -0.06817 0)
(0.442686 -0.0637189 0)
(0.496285 -0.0586035 -1.34692e-21)
(0.545682 -0.052715 0)
(0.589891 -0.0458594 0)
(0.627687 -0.037832 0)
(0.657582 -0.0284587 0)
(0.677943 -0.0176434 -1.23508e-21)
(0.687031 -0.00533202 0)
(0.6833 0.00842462 0)
(0.665409 0.0235165 0)
(0.631306 0.0396168 0)
(0.580281 0.0560888 0)
(0.512396 0.0720693 0)
(0.428594 0.086533 0)
(0.330562 0.098285 -1.14976e-21)
(0.22106 0.106137 1.14687e-21)
(0.10307 0.108953 -1.14308e-21)
(-0.0190548 0.106659 -1.1377e-21)
(-0.140717 0.0981437 0)
(-0.255705 0.0837723 0)
(-0.360942 0.0612842 1.10953e-21)
(-0.448745 0.0293158 1.09676e-21)
(-0.518563 0.00238503 0)
(-0.582022 -0.00650235 0)
(-0.650121 0.00170591 1.05291e-21)
(-0.72595 0.023143 0)
(-0.810488 0.0445538 0)
(-0.901641 0.0526159 -1.0039e-21)
(-0.999299 0.0549276 0)
(-1.10414 0.0691949 -9.64894e-22)
(-1.22075 0.0867529 -1.88703e-21)
(-1.34554 0.086247 0)
(-1.46909 0.0834184 0)
(-1.59498 0.0870331 0)
(-1.71964 0.0890352 0)
(-1.83784 0.0910582 0)
(-1.94828 0.0966447 -1.59725e-21)
(-2.04949 0.0900506 -1.55292e-21)
(-2.13063 0.0726418 -1.5111e-21)
(-2.19204 0.0567131 0)
(-2.23572 0.0420174 1.44274e-21)
(-2.2622 0.0285429 0)
(-2.27295 0.0163981 -1.40302e-21)
(-2.26929 0.00550739 -1.395e-21)
(-2.25237 -0.00413941 0)
(-2.22353 -0.0126034 0)
(-2.18403 -0.0199432 0)
(-2.13509 -0.0262261 -1.43409e-21)
(-2.07783 -0.0315462 0)
(-2.01349 -0.0359664 0)
(-1.94304 -0.0395773 0)
(-1.86747 -0.0424392 0)
(-1.78772 -0.0446338 0)
(-1.70465 -0.046222 0)
(-1.61901 -0.04728 0)
(-1.5315 -0.0478733 0)
(-1.44275 -0.0480817 1.73131e-21)
(-1.35327 -0.047971 0)
(-1.26348 -0.047617 0)
(-1.1737 -0.0470927 -1.83159e-21)
(-1.08413 -0.0464623 -1.8621e-21)
(-0.994915 -0.045784 0)
(-0.90609 -0.0450971 1.91836e-21)
(-0.817653 -0.044432 -1.94412e-21)
(-0.729556 -0.0438136 0)
(-0.64173 -0.0432563 1.99115e-21)
(-0.554068 -0.0427673 0)
(-0.466437 -0.0423564 0)
(-0.378706 -0.0420114 -2.05148e-21)
(-0.290774 -0.0417093 0)
(-0.202634 -0.0414018 2.08559e-21)
(-0.114354 -0.0410347 0)
(-0.0261152 -0.0405635 -2.11457e-21)
(0.0618144 -0.0399466 -2.12686e-21)
(0.149122 -0.0391676 -2.13753e-21)
(0.235479 -0.0382279 -4.29293e-21)
(0.320578 -0.0371451 4.30723e-21)
(0.404162 -0.0359428 0)
(0.486002 -0.0346436 0)
(0.565881 -0.0332687 0)
(0.643616 -0.0318382 4.32796e-21)
(0.71904 -0.0303573 4.32406e-21)
(0.792012 -0.028835 -4.3166e-21)
(0.862404 -0.0272805 0)
(0.930109 -0.025696 4.2913e-21)
(0.99503 -0.0240951 4.27367e-21)
(1.05709 -0.0224828 4.25291e-21)
(1.11623 -0.0208656 0)
(1.17237 -0.019262 0)
(1.22548 -0.0176637 0)
(1.27553 -0.0160957 4.14223e-21)
(1.3225 -0.0145418 0)
(1.36639 -0.0130238 0)
(1.40718 -0.0115305 -4.03638e-21)
(1.4449 -0.0100725 0)
(1.47952 -0.00865181 0)
(1.51109 -0.00726925 -3.91803e-21)
(1.53965 -0.00593495 0)
(1.56523 -0.00465986 0)
(1.58793 -0.0034562 3.79324e-21)
(1.60784 -0.00233609 3.75111e-21)
(1.62511 -0.00130992 0)
(1.6399 -0.000384966 -3.66696e-21)
(1.6524 0.000435299 0)
(1.66279 0.00115129 3.58366e-21)
(1.67129 0.00176687 0)
(1.67807 0.00228817 3.50176e-21)
(1.68333 0.00272311 3.46142e-21)
(1.68722 0.00308043 0)
(1.68991 0.00336852 0)
(1.69153 0.00359751 0)
(1.69221 0.0037759 0)
(1.69206 0.00390743 0)
(1.69118 0.0039977 0)
(1.68967 0.00404688 0)
(1.68763 0.00405021 3.15443e-21)
(1.68516 0.00400947 -3.11794e-21)
(1.68235 0.00393159 0)
(1.67929 0.00382418 0)
(1.67604 0.00369283 0)
(1.67266 0.00354395 0)
(1.66922 0.00338329 -5.8821e-21)
(1.66575 0.0032151 0)
(1.6623 0.0030425 5.74548e-21)
(1.6589 0.00286799 -5.67814e-21)
(1.65557 0.00269369 0)
(1.65233 0.0025215 0)
(1.64921 0.00235323 0)
(1.6462 0.00219061 5.41489e-21)
(1.64333 0.00203519 5.35052e-21)
(1.64058 0.00188827 0)
(1.63795 0.00175081 5.22342e-21)
(1.63545 0.00162345 5.16065e-21)
(1.63306 0.00150643 -5.09838e-21)
(1.63077 0.00139969 0)
(1.62856 0.0013029 0)
(1.62644 0.00121554 -4.91448e-21)
(1.62439 0.00113707 0)
(1.6224 0.00106691 0)
(1.62045 0.00100455 0)
(1.61855 0.000949467 0)
(1.61667 0.000901152 4.61692e-21)
(1.61482 0.000859078 4.55866e-21)
(1.61298 0.000822845 0)
(1.61114 0.000792233 4.44335e-21)
(1.60929 0.000767256 0)
(1.60744 0.000748098 0)
(1.60555 0.000735006 4.27332e-21)
(1.60362 0.000728334 0)
(1.60164 0.00072852 4.16187e-21)
(1.5996 0.000736093 0)
(1.59746 0.000751647 0)
(1.59523 0.000775945 3.99755e-21)
(1.59283 0.000810526 0)
(1.59031 0.000856538 3.88995e-21)
(1.5875 0.000918435 0)
(1.58454 0.000996247 0)
(1.58106 0.00110253 0)
(1.57743 0.0012285 -3.67995e-21)
(1.57286 0.00141418 0)
(1.56815 0.00161176 3.57806e-21)
(1.56174 0.00195729 0)
(1.55519 0.00224864 0)
(1.54573 0.00296431 0)
(1.53549 0.00331658 0)
(1.52131 0.00502986 0)
(1.50202 0.00511387 0)
(1.48233 0.0099738 0)
(1.43549 0.00829619 -6.43049e-21)
(1.41752 0.0252975 0)
(1.27102 0.018644 0)
(-0.00372922 0.0145389 -4.47643e-21)
(0.00335358 -0.0627296 4.44827e-21)
(0.0299364 -0.125657 0)
(0.0653663 -0.163047 -2.91888e-21)
(0.105744 -0.18046 0)
(0.147551 -0.185462 -1.43937e-21)
(0.189516 -0.183413 2.83583e-21)
(0.231091 -0.177444 2.8015e-21)
(0.271938 -0.169162 0)
(0.311643 -0.159106 2.72315e-21)
(0.349699 -0.147135 1.34797e-21)
(0.385317 -0.132743 0)
(0.417372 -0.115267 0)
(0.444443 -0.0940703 0)
(0.464823 -0.068665 0)
(0.476788 -0.0388462 1.23603e-21)
(0.478569 -0.00474233 0)
(0.468658 0.0330736 -2.36682e-21)
(0.445597 0.073641 0)
(0.409678 0.115609 0)
(0.360278 0.157191 2.29295e-21)
(0.297098 0.196526 0)
(0.220867 0.232014 -2.27437e-21)
(0.132712 0.262356 1.1508e-21)
(0.0344607 0.286265 -1.14794e-21)
(-0.0715559 0.301735 1.14419e-21)
(-0.182459 0.306975 1.13884e-21)
(-0.295116 0.300527 0)
(-0.405817 0.283005 0)
(-0.513511 0.257032 -1.11075e-21)
(-0.621378 0.227454 1.07997e-21)
(-0.73966 0.212184 0)
(-0.867444 0.217257 0)
(-0.99699 0.225471 -1.05408e-21)
(-1.12025 0.226637 0)
(-1.24034 0.226214 0)
(-1.36274 0.23674 1.00508e-21)
(-1.49047 0.252801 0)
(-1.61836 0.265059 -9.0409e-22)
(-1.7468 0.275772 1.88937e-21)
(-1.87694 0.284514 0)
(-2.00177 0.287285 0)
(-2.11796 0.282242 3.34662e-21)
(-2.22285 0.26713 3.24649e-21)
(-2.30939 0.240461 3.14808e-21)
(-2.37443 0.206796 -1.45689e-21)
(-2.42385 0.167801 1.55508e-21)
(-2.45763 0.127805 4.40822e-21)
(-2.4778 0.089821 -2.82907e-21)
(-2.48471 0.0540568 -1.44454e-21)
(-2.4791 0.0210951 0)
(-2.46175 -0.00899039 1.40459e-21)
(-2.43328 -0.036168 -1.31158e-21)
(-2.39467 -0.0604725 0)
(-2.34673 -0.0819791 0)
(-2.29034 -0.100786 0)
(-2.22636 -0.117003 1.43518e-21)
(-2.15575 -0.13079 0)
(-2.07926 -0.142289 -2.93121e-21)
(-1.99781 -0.151672 0)
(-1.91219 -0.159107 -3.07025e-21)
(-1.82317 -0.164773 0)
(-1.73142 -0.168847 3.22057e-21)
(-1.63758 -0.171504 0)
(-1.54226 -0.172917 -3.37204e-21)
(-1.44598 -0.173275 1.71384e-21)
(-1.34918 -0.172755 0)
(-1.25225 -0.171561 3.58536e-21)
(-1.15544 -0.169888 1.83202e-21)
(-1.0589 -0.167931 1.8625e-21)
(-0.962731 -0.165845 0)
(-0.866927 -0.163759 1.90701e-21)
(-0.771464 -0.161752 1.94443e-21)
(-0.676275 -0.15988 0)
(-0.58128 -0.158177 -1.9914e-21)
(-0.486366 -0.156666 4.01432e-21)
(-0.391392 -0.155381 0)
(-0.296195 -0.154298 2.05167e-21)
(-0.200642 -0.15335 0)
(-0.104698 -0.152392 -6.24637e-21)
(-0.00843623 -0.151257 0)
(0.0879431 -0.149786 6.3341e-21)
(0.18414 -0.147867 2.12696e-21)
(0.279797 -0.145439 -2.12884e-21)
(0.37455 -0.142517 -4.27673e-21)
(0.468074 -0.139152 4.29215e-21)
(0.560115 -0.135423 0)
(0.650457 -0.131407 0)
(0.738897 -0.127164 0)
(0.825274 -0.122741 -1.29729e-20)
(0.909446 -0.118166 -4.32406e-21)
(0.991279 -0.113458 4.31658e-21)
(1.07066 -0.108637 0)
(1.14749 -0.103723 4.28377e-21)
(1.22167 -0.0987446 -4.2736e-21)
(1.29315 -0.0937254 -4.25283e-21)
(1.36185 -0.0886898 0)
(1.42772 -0.0836696 0)
(1.49072 -0.0786771 0)
(1.55083 -0.0737385 -4.1421e-21)
(1.60803 -0.0688619 0)
(1.66232 -0.0640575 8.14298e-21)
(1.71369 -0.0593256 1.21055e-20)
(1.76215 -0.0546827 -7.99276e-21)
(1.80769 -0.0501317 0)
(1.85033 -0.0456771 -3.91542e-21)
(1.8901 -0.0413437 0)
(1.92704 -0.0371607 -7.66798e-21)
(1.96121 -0.0331619 3.79118e-21)
(1.9927 -0.0293817 3.7492e-21)
(2.02165 -0.0258502 0)
(2.0482 -0.0225893 1.09987e-20)
(2.07252 -0.0196105 -7.2485e-21)
(2.0948 -0.0169143 -3.58339e-21)
(2.11521 -0.0144923 0)
(2.13392 -0.012329 -3.50147e-21)
(2.15109 -0.0104046 -1.03825e-20)
(2.16688 -0.0086973 0)
(2.18141 -0.00718555 -6.76275e-21)
(2.19481 -0.00584839 -6.68478e-21)
(2.20719 -0.00466729 -6.60768e-21)
(2.21864 -0.0036284 0)
(2.22926 -0.00271901 0)
(2.23911 -0.00193025 0)
(2.24827 -0.00125733 3.15367e-21)
(2.25677 -0.00069228 3.11757e-21)
(2.26467 -0.00022484 0)
(2.27202 0.000154563 6.09116e-21)
(2.27885 0.000456339 6.02045e-21)
(2.28522 0.000689892 0)
(2.29116 0.000863598 5.88133e-21)
(2.29672 0.000985547 1.16251e-20)
(2.30193 0.00106345 -5.7447e-21)
(2.30684 0.00110438 -5.67714e-21)
(2.31147 0.00111504 0)
(2.31585 0.00110167 0)
(2.32001 0.00107012 0)
(2.32396 0.00102577 -5.41409e-21)
(2.32773 0.000973516 5.34964e-21)
(2.33132 0.000917642 1.05718e-20)
(2.33473 0.000861673 -5.22263e-21)
(2.33799 0.000808257 5.15981e-21)
(2.34108 0.000759218 5.0976e-21)
(2.34401 0.000715712 0)
(2.34678 0.000678261 0)
(2.34939 0.00064697 -4.91367e-21)
(2.35185 0.000621663 0)
(2.35414 0.000602092 0)
(2.35628 0.000587922 9.46777e-21)
(2.35827 0.00057886 0)
(2.3601 0.000574638 4.61614e-21)
(2.36177 0.000575242 -4.55792e-21)
(2.3633 0.000580809 0)
(2.36467 0.000591579 4.44258e-21)
(2.36589 0.00060782 0)
(2.36696 0.000629912 0)
(2.36788 0.000658373 -4.2726e-21)
(2.36865 0.000693948 8.43333e-21)
(2.36925 0.000737993 -4.16116e-21)
(2.3697 0.000791794 0)
(2.36997 0.000858578 0)
(2.37007 0.000939594 3.99676e-21)
(2.36997 0.00104231 0)
(2.36968 0.00116505 3.88913e-21)
(2.36912 0.00132676 0)
(2.36834 0.00151284 0)
(2.36718 0.00177705 0)
(2.36574 0.0020584 3.6793e-21)
(2.36375 0.00251427 0)
(2.36132 0.00293038 -3.57742e-21)
(2.35808 0.00377586 0)
(2.354 0.00435282 0)
(2.34891 0.00606815 6.85897e-21)
(2.34161 0.00673587 -6.76445e-21)
(2.33395 0.0105904 0)
(2.31947 0.0109457 0)
(2.30908 0.0206549 0)
(2.27642 0.0196691 1.9271e-20)
(2.2671 0.0479223 0)
(2.18767 0.0468249 -1.25534e-20)
(0.000166619 0.0101929 7.83006e-24)
(0.00815982 -0.0943567 -5.92155e-21)
(0.0306082 -0.176738 0)
(0.0538985 -0.222389 5.83043e-21)
(0.0771435 -0.242654 0)
(0.0995909 -0.247931 0)
(0.12201 -0.245361 -1.68172e-23)
(0.144907 -0.238801 -2.80334e-21)
(0.168574 -0.229813 -2.74606e-21)
(0.192846 -0.218434 -2.72492e-21)
(0.217156 -0.203817 0)
(0.240491 -0.184716 0)
(0.261415 -0.159792 2.55994e-21)
(0.27823 -0.127932 5.0175e-21)
(0.288975 -0.0884161 -4.91586e-21)
(0.291734 -0.0411702 0)
(0.284437 0.0132586 -4.7279e-21)
(0.265508 0.0735235 2.36819e-21)
(0.233372 0.137819 0)
(0.187713 0.203826 -4.53113e-21)
(0.12814 0.268985 -2.2943e-21)
(0.0553078 0.330415 4.47399e-21)
(-0.0289257 0.385304 2.27576e-21)
(-0.121797 0.431108 0)
(-0.220867 0.465778 -4.45602e-21)
(-0.324116 0.487374 -4.45137e-21)
(-0.429653 0.494249 0)
(-0.536309 0.485461 -4.42164e-21)
(-0.643376 0.460959 0)
(-0.752535 0.427732 -4.34738e-21)
(-0.872267 0.413701 -2.17938e-21)
(-1.00194 0.418424 0)
(-1.13167 0.422017 0)
(-1.25881 0.422819 0)
(-1.38637 0.428 0)
(-1.51635 0.440679 0)
(-1.64416 0.453937 0)
(-1.77321 0.465559 -3.68111e-21)
(-1.90362 0.479617 5.44721e-21)
(-2.02804 0.489386 0)
(-2.14056 0.481971 0)
(-2.23756 0.458104 0)
(-2.31775 0.422504 -2.01413e-22)
(-2.38224 0.376907 -3.2488e-21)
(-2.43165 0.324529 -6.09964e-21)
(-2.46711 0.268769 5.91867e-21)
(-2.49109 0.211192 2.78093e-21)
(-2.50403 0.154224 -2.89649e-21)
(-2.50684 0.0994389 1.73491e-22)
(-2.49939 0.0477355 -2.61536e-21)
(-2.48203 -0.000375937 0)
(-2.45494 -0.0446982 -2.57793e-21)
(-2.41851 -0.0851083 1.26646e-22)
(-2.37323 -0.121554 0)
(-2.31972 -0.154028 0)
(-2.25866 -0.182563 2.67688e-21)
(-2.19083 -0.207254 0)
(-2.11702 -0.228243 0)
(-2.03801 -0.245715 -2.79642e-21)
(-1.95458 -0.259905 -5.87764e-21)
(-1.86746 -0.271073 3.07041e-21)
(-1.77736 -0.279483 0)
(-1.68492 -0.285399 -3.22067e-21)
(-1.59073 -0.289099 0)
(-1.49538 -0.290847 -3.30684e-21)
(-1.39937 -0.290915 -3.44573e-21)
(-1.30314 -0.289595 6.9817e-21)
(-1.20707 -0.28721 3.53774e-21)
(-1.1114 -0.284092 0)
(-1.01626 -0.280578 -7.38304e-21)
(-0.921642 -0.276942 0)
(-0.827499 -0.273384 -1.14383e-20)
(-0.733723 -0.270023 -7.71679e-21)
(-0.640213 -0.266917 -7.81433e-21)
(-0.546878 -0.264114 7.90556e-21)
(-0.453618 -0.261658 -1.20052e-20)
(-0.360276 -0.259605 0)
(-0.266622 -0.257951 0)
(-0.172422 -0.256588 8.21713e-21)
(-0.0775599 -0.255247 1.24447e-20)
(0.017923 -0.253602 0)
(0.113791 -0.251338 -4.21936e-21)
(0.209663 -0.248246 0)
(0.305081 -0.244236 1.27692e-20)
(0.399576 -0.239343 2.78726e-23)
(0.492749 -0.233691 -2.59007e-23)
(0.584312 -0.227443 -8.59768e-21)
(0.674044 -0.220748 0)
(0.761779 -0.213722 8.62392e-21)
(0.847382 -0.206429 1.87668e-23)
(0.930739 -0.198909 0)
(1.01174 -0.191192 0)
(1.09029 -0.183297 0)
(1.1663 -0.175267 -8.57479e-21)
(1.23968 -0.167132 0)
(1.31041 -0.158941 0)
(1.37842 -0.15074 0)
(1.44366 -0.142563 0)
(1.50614 -0.134451 0)
(1.56582 -0.126423 -8.27275e-21)
(1.62272 -0.118512 0)
(1.67684 -0.110717 -8.14279e-21)
(1.72818 -0.103058 -8.06908e-21)
(1.77674 -0.0955398 7.99258e-21)
(1.82253 -0.0881704 0)
(1.86557 -0.0809592 7.83307e-21)
(1.90585 -0.0739457 0)
(1.94341 -0.0671778 7.66784e-21)
(1.97831 -0.0607136 -7.58405e-21)
(2.01063 -0.0546128 -2.2494e-20)
(2.0405 -0.0489266 0)
(2.06809 -0.0436912 -2.19908e-20)
(2.09357 -0.0389232 -7.24398e-21)
(2.11713 -0.0346206 0)
(2.13896 -0.0307654 -1.41629e-20)
(2.15923 -0.0273289 -1.40004e-20)
(2.1781 -0.0242757 2.07607e-20)
(2.19573 -0.0215684 0)
(2.21223 -0.0191702 6.76266e-21)
(2.22772 -0.0170468 6.68469e-21)
(2.2423 -0.0151682 1.98207e-20)
(2.25606 -0.0135066 0)
(2.26908 -0.0120385 0)
(2.28142 -0.0107438 0)
(2.29314 -0.00960422 6.30634e-21)
(2.30429 -0.00860495 0)
(2.31492 -0.00773298 0)
(2.32505 -0.00697677 -6.09105e-21)
(2.33473 -0.00632419 -6.02034e-21)
(2.34398 -0.00576498 0)
(2.35283 -0.00528988 0)
(2.3613 -0.00488982 -1.16248e-20)
(2.36943 -0.00455575 0)
(2.37723 -0.00427878 1.13542e-20)
(2.38473 -0.00405029 1.12205e-20)
(2.39195 -0.00386178 0)
(2.39891 -0.00370469 0)
(2.40563 -0.00357083 -1.08276e-20)
(2.41212 -0.00345268 -1.88893e-25)
(2.41839 -0.00334364 -1.62173e-25)
(2.42445 -0.0032383 0)
(2.4303 -0.00313241 -2.06386e-20)
(2.43594 -0.00302297 0)
(2.44139 -0.00290834 0)
(2.44663 -0.00278793 0)
(2.45168 -0.00266191 9.82703e-21)
(2.45652 -0.00253092 0)
(2.46116 -0.00239576 -1.91727e-20)
(2.4656 -0.00225721 -9.46741e-21)
(2.46985 -0.00211604 0)
(2.47389 -0.00197289 -9.23194e-21)
(2.47774 -0.0018281 0)
(2.48139 -0.00168167 0)
(2.48485 -0.00153335 -2.66544e-20)
(2.48812 -0.00138254 1.75413e-20)
(2.49119 -0.00122853 0)
(2.49408 -0.00107008 1.70894e-20)
(2.49677 -0.000906218 -8.43295e-21)
(2.49926 -0.000734583 0)
(2.50156 -0.000554219 0)
(2.50366 -0.000359587 0)
(2.50554 -0.000150682 -2.39794e-20)
(2.50721 8.53806e-05 0)
(2.50865 0.000342742 -7.77803e-21)
(2.50985 0.000653238 0)
(2.51077 0.000989907 0)
(2.51142 0.00143599 0)
(2.51169 0.00189838 0)
(2.51167 0.00260199 0)
(2.51104 0.00325575 0)
(2.51013 0.00447506 -1.41056e-20)
(2.50811 0.00539831 0)
(2.50599 0.00771748 -6.85859e-21)
(2.50161 0.0089758 2.02873e-20)
(2.49782 0.0138175 0)
(2.48898 0.0154747 0)
(2.48304 0.0266132 -1.29859e-20)
(2.46568 0.0293576 -1.28411e-20)
(2.45814 0.0575601 1.26637e-20)
(2.42785 0.0663427 1.2553e-20)
(0.00118817 -0.000600619 8.91649e-21)
(0.0124683 -0.128505 8.8584e-21)
(0.0318237 -0.217471 5.8514e-21)
(0.044752 -0.2588 2.88682e-21)
(0.0539155 -0.273925 0)
(0.0612614 -0.276495 -5.67721e-21)
(0.0691989 -0.274083 2.78534e-21)
(0.0788548 -0.269684 0)
(0.0906707 -0.263576 2.74793e-21)
(0.104256 -0.254455 0)
(0.118636 -0.240271 -5.26327e-21)
(0.132335 -0.218835 0)
(0.14361 -0.18822 -2.56174e-21)
(0.150483 -0.146909 -5.02102e-21)
(0.150869 -0.0939987 4.91928e-21)
(0.142919 -0.0293582 0)
(0.124695 0.0462105 4.73106e-21)
(0.0951228 0.130571 0)
(0.0526079 0.220745 0)
(-0.00255385 0.312305 4.53416e-21)
(-0.0704073 0.400648 0)
(-0.150156 0.481278 -1.07397e-22)
(-0.239732 0.550459 0)
(-0.336325 0.605412 0)
(-0.437219 0.644708 9.86785e-23)
(-0.540473 0.667854 4.4543e-21)
(-0.644462 0.674744 4.34537e-21)
(-0.748712 0.666088 4.42449e-21)
(-0.854746 0.648151 0)
(-0.971249 0.638827 8.59195e-21)
(-1.09731 0.640587 0)
(-1.22376 0.640204 4.10517e-21)
(-1.35001 0.637691 0)
(-1.47771 0.637918 0)
(-1.60717 0.642296 -3.82755e-21)
(-1.73476 0.643422 0)
(-1.86151 0.651375 3.60691e-21)
(-1.98694 0.668385 1.93924e-22)
(-2.10204 0.670509 -6.94884e-21)
(-2.19947 0.64953 6.50263e-21)
(-2.28029 0.613226 0)
(-2.34598 0.564836 0)
(-2.39703 0.506312 2.66737e-21)
(-2.43474 0.440093 0)
(-2.46072 0.369509 2.95107e-21)
(-2.47641 0.297111 -2.86186e-21)
(-2.48279 0.224569 -2.7821e-21)
(-2.48012 0.153512 0)
(-2.46866 0.0850051 2.6576e-21)
(-2.44841 0.0198407 2.61593e-21)
(-2.41954 -0.0414556 -4.80309e-21)
(-2.38223 -0.0984097 2.57818e-21)
(-2.33677 -0.150677 2.58218e-21)
(-2.28357 -0.198 0)
(-2.22325 -0.240199 0)
(-2.15652 -0.27723 -2.6767e-21)
(-2.08416 -0.309161 0)
(-2.00697 -0.336141 0)
(-1.92569 -0.358454 5.72726e-21)
(-1.84102 -0.376428 5.87697e-21)
(-1.75359 -0.390408 0)
(-1.66396 -0.400754 0)
(-1.57262 -0.407818 0)
(-1.48006 -0.411947 0)
(-1.38673 -0.413489 6.67828e-21)
(-1.29308 -0.412777 -6.75739e-21)
(-1.19956 -0.410214 -6.98111e-21)
(-1.10654 -0.40623 -1.41831e-20)
(-1.01426 -0.401322 0)
(-0.922809 -0.395985 5.483e-23)
(-0.83207 -0.39064 0)
(-0.741848 -0.385559 7.61222e-21)
(-0.651924 -0.380869 5.12899e-23)
(-0.562135 -0.376591 7.81398e-21)