/*--------------------------------*- C++ -*----------------------------------*\
  =========                 |
  \\      /  F ield         | OpenFOAM: The Open Source CFD Toolbox
   \\    /   O peration     | Website:  https://openfoam.org
    \\  /    A nd           | Version:  7
     \\/     M anipulation  |
\*---------------------------------------------------------------------------*/
FoamFile
{
    version     2.0;
    format      ascii;
    class       volScalarField;
    location    "13";
    object      p;
}
// * * * * * * * * * * * * * * * * * * * * * * * * * * * * * * * * * * * * * //

dimensions      [0 2 -2 0 0 0 0];

internalField   nonuniform List<scalar> 
918
(
3.917
17.1017
0.200502
3.84203
0.157094
16.1947
1.05658
2.64575
3.38127
0.674907
0.60578
2.77645
12.2047
6.36196
1.50509
0.200163
2.71009
0.494466
3.27931
0.274305
2.10051
3.54607
3.67161
3.40198
2.72715
3.39558
8.92003
0.287998
0.0330244
0.119243
0.13744
0.0845041
0.024879
13.5832
14.7179
15.171
2.93131
1.18652
1.19096
1.27394
0.955908
0.836608
2.65385
2.66974
1.73029
2.63772
2.62966
3.06563
3.36536
3.38251
3.42698
3.3917
3.43837
1.34974
0.650264
0.599413
0.691475
0.70582
0.67801
0.626613
0.629427
0.580697
0.550975
2.73282
2.79082
2.80167
2.76096
2.75214
15.3728
14.4392
15.0693
13.0165
13.3693
11.3984
10.623
6.89342
7.36414
5.87366
5.30764
1.03986
0.744095
1.85362
2.27659
0.0271775
0.241125
0.277304
2.71215
2.71744
2.71198
2.71064
1.88253
0.514558
0.519517
3.20506
3.15343
3.54037
3.59108
3.4728
3.49179
0.315535
0.329896
0.260929
0.240726
0.193993
2.4184
2.52721
3.35355
3.26629
2.74181
2.72585
2.7332
2.43569
2.7029
2.71023
4.53292
4.87496
3.98195
4.45443
8.30843
7.6655
9.6769
10.3647
0.0993157
0.0399364
0.149044
0.0639401
0.110771
2.91568
2.89068
2.93947
2.95097
2.97867
0.967229
0.710823
1.32849
1.4379
1.3791
1.45536
0.569863
0.741245
0.646567
1.92741
2.67595
2.68382
1.54525
1.68053
1.60765
1.80325
1.85853
2.99331
3.04206
3.01294
3.1925
3.09763
3.14038
3.45686
3.38853
3.42834
1.43071
1.497
1.27299
1.19588
0.513623
0.568776
0.538724
0.709815
0.707198
0.732796
0.769432
0.619089
0.584603
0.688823
0.651387
0.673164
0.512157
0.478099
2.70178
2.67569
2.76581
2.79033
2.87543
2.85758
2.81799
2.84055
9.44226
9.96826
10.1083
9.48156
-0.396675
-1.26324
2.62526
2.93876
0.0667074
0.0503419
0.0278954
0.0594282
0.0716988
0.0233148
0.448139
0.410149
0.318712
0.377022
2.71614
2.71347
1.93863
1.99959
1.8387
1.78275
3.02306
3.04069
3.11093
3.06693
0.444108
0.368723
0.407021
2.61003
2.56358
2.59434
2.37132
2.30404
2.49429
2.53342
2.713
2.71542
2.71489
4.89903
5.27593
10.6665
11.0861
11.1559
11.7189
13.356
13.0999
12.0977
2.81667
2.86725
2.84643
3.00196
2.95748
2.98397
2.88926
2.92555
2.90733
0.49472
0.31756
1.73239
1.66734
1.50817
1.58721
1.94613
1.96878
2.7038
2.68992
2.69826
1.92742
1.98781
1.11155
1.03904
2.56954
2.64923
2.60874
8.79941
7.88814
8.9439
8.38319
7.7145
8.19556
0.0089476
-0.760037
-0.312068
4.09951
3.303
3.72606
0.551844
0.468954
0.501541
2.02912
2.02124
1.57384
1.70568
1.63688
5.64775
6.14029
7.07535
5.86398
6.48422
7.07686
6.77761
1.88471
1.8011
1.84364
2.04059
2.05727
2.22532
2.0592
2.13065
0.829074
0.974615
0.906672
2.03716
2.04513
2.03642
3.31112
3.37461
0.179395
0.262004
3.42281
3.40022
0.0193247
0.0552913
3.31011
1.29701
1.91157
3.12939
3.06733
3.34986
0.707904
1.39676
0.638784
0.755377
0.594648
2.80059
2.77162
2.65887
0.100798
0.269196
0.341171
0.608
3.27738
3.1998
3.33456
3.37209
3.37724
0.142733
0.189813
0.125437
0.280359
0.226391
0.263193
2.93376
2.93935
1.26703
3.33434
3.37061
3.3731
3.18355
3.30132
3.19016
0.209306
0.131707
0.153051
2.265
2.5065
3.17015
2.71996
3.1173
3.08149
2.80081
4.03428
3.55197
3.58788
4.02361
2.67498
2.6407
1.95866
1.78702
2.01474
1.98876
3.11314
3.06946
3.0454
3.0193
3.23857
3.18091
3.284
3.20647
3.26065
3.29927
0.732773
0.73093
0.682858
0.584247
1.39617
1.50924
1.25251
1.26757
0.966162
0.590866
0.586615
0.62623
0.623077
0.689681
0.59873
0.670977
0.597932
0.526988
0.509007
0.671234
0.607155
0.613835
2.80365
2.80403
2.76657
2.76785
2.78912
2.80842
2.68633
2.73582
2.69792
2.54498
2.6172
2.56667
0.145474
0.136402
0.112752
0.284727
0.307563
0.236178
0.182618
0.25106
0.22804
0.184417
0.318895
0.32652
0.685574
0.622916
2.01367
1.81794
1.4759
3.09085
3.17566
3.08646
3.2297
3.28183
3.2955
3.24789
3.18514
2.95075
2.95239
2.90583
2.90186
1.27619
1.0565
1.4185
1.42196
1.35996
2.71703
2.47352
2.34853
2.38892
2.63557
3.17052
2.32447
2.18136
2.18044
1.63553
2.51454
1.90049
2.40709
2.25989
4.89309
5.29624
4.89106
4.39303
4.47572
0.522695
2.54534
1.62911
1.61352
1.86298
1.78877
2.55653
2.67351
2.67658
2.60743
2.6204
2.64777
2.62715
2.64447
2.64864
2.64417
2.44431
2.26564
2.13638
2.14026
2.70669
2.48729
2.55074
2.49452
2.99557
3.05858
3.01564
2.94701
2.99867
2.94456
2.93684
2.96117
3.12968
3.09564
3.07085
3.1179
0.738309
0.720361
0.803464
0.68423
0.674559
0.594674
0.769432
1.06378
1.00856
1.48278
1.53299
1.01069
0.803858
0.828876
0.973467
1.19527
1.18267
0.91568
1.02161
1.11971
1.02297
1.17519
1.08822
0.636785
0.702017
0.679326
0.667097
0.770146
0.884599
0.790478
0.570167
0.607181
0.538405
0.505184
0.815295
0.7234
0.732303
0.850587
0.263147
0.292359
0.327803
0.534422
0.437519
0.47447
2.88285
2.83786
2.8574
2.74407
2.75939
2.75096
2.69835
2.89445
2.85943
2.8776
2.7059
2.72357
2.69081
2.72393
2.77711
2.80752
2.91795
2.88572
2.78853
2.81125
2.76688
2.75641
2.666
2.61257
2.59606
0.233955
0.1711
0.208796
0.193894
0.132428
0.164324
0.480047
0.364009
0.436271
0.385446
0.434695
0.311105
0.286914
0.86407
1.0081
1.03476
0.816865
0.823809
2.00191
1.99823
1.84159
1.72303
1.81153
1.8878
1.89848
1.59942
1.70642
1.65601
1.94262
2.0654
3.17651
3.16913
3.13375
3.11283
3.13858
1.40578
1.65536
1.71343
1.83408
1.28562
1.4578
1.82318
1.69885
1.90967
1.47567
2.70993
2.7197
2.66975
2.71191
2.71758
2.46141
2.55467
2.62442
2.599
2.67326
2.68287
2.5933
2.64703
2.63252
2.56085
2.55684
2.50691
2.53057
2.48044
2.46125
2.74027
2.7264
2.75962
2.70124
2.73832
2.67354
2.70925
2.72866
2.74461
2.64994
2.57859
2.57763
2.62326
2.60468
2.64515
2.66332
1.81207
1.9127
1.39327
1.05269
1.17876
0.610777
0.553181
0.890471
1.35201
0.727384
0.457599
-0.157168
2.46911
3.06563
2.64344
2.57017
2.59636
2.61535
2.60188
2.56994
2.57673
2.68469
2.68978
2.69942
2.58071
2.59219
2.60503
2.59114
2.49132
2.26955
2.24572
2.18526
1.9409
1.9879
2.34652
2.22599
2.10333
2.11491
2.48586
2.33402
2.42787
2.45478
2.31611
2.27508
2.56564
2.65619
2.68039
2.64504
2.45624
2.46981
2.51455
2.56312
2.58562
2.63512
2.97328
3.03742
3.04912
3.01677
2.99793
3.00763
2.97545
2.99027
3.04789
3.06343
3.04321
0.675616
0.702892
0.707411
0.680876
0.767454
0.75957
0.915722
0.88982
0.754413
0.790652
0.785968
0.790907
0.718093
0.715826
1.09962
1.15546
1.19222
1.08642
1.35114
1.55833
1.66912
1.57344
1.2618
1.26942
1.36944
0.814464
0.803528
0.762898
0.847322
0.861915
0.59008
0.532829
0.492344
0.593551
0.611865
0.464141
0.398966
0.425901
0.496766
0.478595
0.426227
2.86498
2.83944
2.83474
2.8072
2.81611
2.86436
2.88995
2.86129
2.87898
2.88422
2.83552
2.82001
2.84348
0.396577
0.331831
0.358443
0.373478
0.36069
0.343545
0.367496
1.4792
1.26466
1.35342
1.18807
0.915477
0.972003
1.64003
1.87734
1.80717
2.02954
1.98453
1.98774
1.89105
1.91658
1.69189
1.93615
1.79494
2.02797
1.98765
2.02147
1.95357
1.9695
2.24368
2.34066
1.95572
2.05665
2.14664
1.91526
1.96998
2.03236
2.24193
1.34703
1.5103
1.75848
1.79708
1.47397
1.69693
1.44046
1.53376
1.62513
1.704
1.7413
2.68976
2.69317
2.7056
2.69455
2.71437
2.71105
2.69037
2.71579
2.72681
2.70363
0.58391
0.970883
0.155814
1.15805
1.51219
2.58838
2.42523
2.8383
2.72006
2.66195
2.63851
2.62145
2.58148
2.63144
2.61799
2.2345
2.39589
2.34435
2.37236
2.24094
2.15171
2.58657
2.59485
2.60238
2.637
2.63414
2.69051
2.96721
2.94996
2.95535
2.96247
2.90923
2.91319
0.957318
0.891484
1.03522
1.02479
0.935884
0.887449
0.497861
0.448951
0.410166
0.38775
0.421187
0.442272
1.53889
1.53454
1.24423
1.43559
1.31537
1.07805
1.13445
1.19499
1.36932
1.47252
1.78179
2.05431
1.90846
1.93627
1.7034
1.79905
1.75489
1.60732
1.64635
1.82176
1.80167
1.9945
1.18364
1.50448
2.91732
2.89363
2.63839
2.36543
2.09426
2.37879
2.50435
2.39327
2.46375
2.56225
2.5385
1.43984
1.35972
2.13645
2.47265
1.77686
1.63997
1.68612
1.97874
1.98581
)
;

boundaryField
{
    wall-4
    {
        type            zeroGradient;
    }
    velocity-inlet-5
    {
        type            zeroGradient;
    }
    velocity-inlet-6
    {
        type            zeroGradient;
    }
    pressure-outlet-7
    {
        type            fixedValue;
        value           uniform 0;
    }
    wall-8
    {
        type            zeroGradient;
    }
    frontAndBackPlanes
    {
        type            empty;
    }
}


// ************************************************************************* //
