/*--------------------------------*- C++ -*----------------------------------*\
  =========                 |
  \\      /  F ield         | OpenFOAM: The Open Source CFD Toolbox
   \\    /   O peration     | Website:  https://openfoam.org
    \\  /    A nd           | Version:  7
     \\/     M anipulation  |
\*---------------------------------------------------------------------------*/
FoamFile
{
    version     2.0;
    format      ascii;
    class       surfaceScalarField;
    location    "13";
    object      phi;
}
// * * * * * * * * * * * * * * * * * * * * * * * * * * * * * * * * * * * * * //

dimensions      [0 3 -1 0 0 0 0];

internalField   nonuniform List<scalar> 
1300
(
3.75095
5.62643
-2.85998
3.75095
-2.88805
5.62643
-2.12287
2.12287
-0.51856
0.51856
1.90742
1.84353
-1.57083
1.57083
-1.85654
1.85654
-1.06688
1.06688
-3.87943
3.87943
-3.16227
3.16227
2.06452
-2.06452
-1.92163
1.92163
-0.639444
0.639444
-1.77267
1.77267
1.95082
-1.95082
-2.0711
2.0711
-0.754454
0.754454
-1.50167
5.25262
2.24928
2.24928
-0.929819
0.929819
-3.57061
3.57061
4.63405
-4.63405
5.78729
-5.78729
-2.92731
-3.42362
1.11811
-7.75048
-1.76994
-1.76994
-8.391
8.391
-2.76457
2.86186
1.15223
-1.15223
-0.365332
0.365332
-1.97755
-0.145322
-1.97755
2.17494
-0.0520695
2.17494
-0.570621
0.0520611
-0.570621
1.61826
-1.61826
0.48663
0.0319294
0.48663
1.25444
-1.25444
-1.9074
3.81482
1.84355
-1.75635
7.00897
-1.99461
3.83814
-2.09856
2.09856
-1.52639
-0.0444402
-1.52639
1.62791
-0.0570805
1.62791
-2.16656
2.16656
-1.75557
-0.100968
-1.75557
1.93839
-0.0818559
1.93839
1.24055
-1.24055
-1.07619
0.00930417
-1.07619
1.03056
0.0363255
1.03056
1.36027
4.26616
-6.9867
9.84855
-4.26616
0.38674
3.48671
0.392712
3.48671
-3.14849
-0.013774
-3.14849
3.25804
-0.0957764
3.25804
1.83733
0.227183
1.83733
-2.37612
0.311604
-2.37612
-4.39888
-4.3908
-1.96887
0.0472371
-1.96887
-0.635501
-0.00394352
-0.635501
0.652959
-0.0135141
0.652959
-1.37698
1.37698
-1.87817
0.105501
-1.87817
1.5196
0.431227
1.5196
1.64954
2.10141
5.40049
-5.40049
3.44967
-1.97016
-0.100941
-1.97016
-2.17565
-3.61164
2.17565
-0.104551
-0.52463
-0.229823
-0.52463
1.77693
0.472352
1.77693
0.998072
0.0324853
-0.998072
0.0682527
1.52096
-1.52096
0.574185
0.355634
0.574185
-3.51943
3.51943
3.37939
-0.121349
-3.37939
-0.191216
4.42928
0.204774
4.42928
-4.7844
0.150352
-4.7844
4.10621
-7.52984
-4.11757
1.8391
0.0825351
-1.8391
0.0691608
1.19434
-0.0421169
1.19434
-1.11776
1.11776
-1.179
0.0267731
-1.179
-0.315936
-0.0493959
-0.315936
0.426908
-0.0615757
0.426908
-1.87726
-0.100287
-1.87726
-2.0984
0.220232
2.0984
0.076534
0.59603
-0.59603
-0.611548
0.0409271
-0.611548
-1.73
-0.147262
1.73
-0.111738
-1.59412
-0.0241346
-1.59412
-1.19932
0.020324
1.19932
0.0551213
1.45027
0.326658
-1.45027
0.195831
-1.77275
3.87416
-1.97821
3.82176
-1.90975
-0.188815
-1.90975
2.21178
-0.113214
2.21178
1.66408
0.108589
-1.66408
0.137695
1.70165
-0.0737489
1.70165
-2.15331
-0.0132461
-2.15331
2.08125
0.0853097
2.08125
1.73283
-0.0311732
-1.73283
-0.0227425
1.9633
-0.0249099
1.9633
1.25194
-0.0113917
1.25194
-1.20728
-0.0332708
-1.20728
1.12411
-1.12411
1.11474
0.00936923
-1.11474
0.03855
-14.4245
14.5749
-0.189911
-14.2346
3.2968
3.2968
1.08907
0.748266
1.08907
-2.67986
0.303738
-2.67986
4.36849
-8.48606
4.37056
-8.76943
3.80925
-11.5597
4.22026
-8.61106
2.08359
-2.08359
2.0614
0.0221836
-2.0614
0.0925355
-0.615279
-0.0202224
-0.615279
-1.24536
-0.131616
-1.24536
1.5479
-0.170923
1.5479
-1.21493
1.21493
-1.31787
0.102931
1.31787
0.20173
1.98031
-0.0170083
-1.98031
0.0101556
0.467908
0.0187223
-0.467908
-0.0567224
1.58589
-0.0649285
1.58589
-1.3756
-0.145363
-1.3756
-0.598369
-0.0169097
0.598369
-0.0241838
-3.84998
0.330544
-3.84998
-14.1269
-0.107669
-13.7342
-4.89207
-4.89207
3.49893
13.3475
-1.21335
0.00607645
1.21335
-0.0190122
1.16563
0.0493084
-1.16563
0.0478635
-1.12671
0.00260269
1.12671
-0.00894677
-0.371544
0.0556073
-0.371544
-0.492318
0.492318
-0.444219
-0.0480991
0.444219
-0.017311
0.639517
-0.0434871
0.639517
0.640361
0.0125975
-0.640361
0.0288133
-1.62789
0.0337639
-1.62789
2.22681
-0.0150319
2.22681
-1.32491
-0.0506917
1.32491
-0.0729657
-0.100895
14.6758
-3.19591
0.0474127
3.19591
-14.8805
14.9279
-0.540681
0.169138
0.540681
0.548386
3.11888
0.400552
-3.11888
0.439022
2.08636
-0.00510835
-2.08636
0.00276982
-1.03256
-0.212801
-1.03256
-1.70146
-0.208285
1.70146
-0.153557
-15.0747
-0.322963
15.3977
-15.1705
4.17294
0.256337
-4.17294
15.1843
-0.567864
-0.0281654
0.567864
-0.0755458
0.802148
-0.162631
0.802148
1.65539
-0.0694959
-1.65539
0.0274975
-2.23467
0.0813542
2.23467
-0.00786041
-0.891418
-0.141146
0.891418
-0.0892707
-4.37012
4.84247
2.63885
-3.67974
-3.8501
-7.29138
1.426
2.44816
4.87567
-6.4149
-5.14483
-6.34574
8.84064
-8.40162
-9.21044
9.43762
7.63403
-7.65817
-6.10751
6.30924
6.84179
-6.78667
1.90528
1.90954
9.56263
-9.60708
-10.9626
10.7738
9.48052
-9.58148
11.4248
-11.438
-13.3703
13.3652
-5.62819
5.63749
-6.74347
6.71019
-6.97289
6.89992
-4.34658
-4.42285
8.79879
-8.75156
11.9372
-12.0381
-9.7439
9.84941
3.33387
1.50861
3.66053
-2.11351
4.01879
-1.72463
4.36348
4.26751
-8.61409
4.21855
-8.06864
5.62133
6.31587
-5.51678
-1.7746
-5.94874
5.90662
-5.80332
5.79437
9.2568
-9.40212
-2.08942
3.99897
-1.73234
4.1805
-3.77126
-2.33626
3.34003
1.53564
4.91715
3.88164
-4.99969
-1.34605
-8.05357
7.98407
-8.39595
8.25059
0.0581381
7.35648
-7.41461
3.62875
-2.51432
9.8708
6.32632
6.63006
7.40249
-7.00194
0.999122
-8.41374
-8.60495
-2.15978
2.2007
2.11139
-2.07946
5.58509
2.04895
5.47335
-5.41203
-2.24614
-5.37826
3.74232
2.56692
3.84525
3.95813
2.88366
3.97845
3.51241
-3.49728
-0.0151287
-3.88157
7.39398
0.50169
-6.21783
-4.68219
5.7218
3.84084
5.66472
-5.83155
-3.77552
-5.69386
-5.87141
-5.09118
-6.07969
6.47651
4.29727
6.36329
-7.96246
7.9546
5.87458
3.60594
5.79272
-5.6644
-3.91708
-5.68714
13.8139
-3.44064
-10.3733
-6.90931
-6.46098
6.824
4.60078
7.5469
5.81828
7.54967
4.50904
9.3049
-9.10982
2.64884
-3.46553
-2.16266
-3.42698
3.34651
2.29098
3.38284
-3.91942
-2.82405
-3.91334
-4.00994
-2.96295
4.02133
2.68886
-4.1754
-4.22055
4.22609
2.67383
3.8813
-9.02613
4.72976
-9.15261
-5.86194
-2.88962
-5.7694
5.43345
3.46227
-8.89573
-3.18064
13.0239
-6.70802
11.2493
-6.70977
-5.32837
-6.69961
-7.03626
-2.70764
-6.81603
-4.69551
4.48271
-4.86891
4.69799
15.4559
-8.12223
-7.33362
-4.05248
-2.73419
3.85665
-0.196127
-4.35178
4.33665
-0.332992
4.03049
5.53909
5.34297
-3.59447
-2.20885
-3.54661
3.51141
2.28296
3.51401
6.92284
2.33396
6.87077
-6.15103
-3.25109
-6.25132
4.73947
-4.78886
2.23314
-2.25005
5.11841
3.13217
-5.05348
-3.00008
7.62773
-3.60231
-4.02543
-13.9764
11.3305
2.64592
-4.10564
-0.476897
0.277557
-5.73687
-3.47356
5.42527
1.20479
12.5353
9.06175
-7.13962
7.47017
8.25808
8.13673
-0.468227
3.2039
-3.03476
5.77512
-2.96856
-2.80656
4.80835
-4.95561
-1.44298
-6.25912
4.81615
0.517741
1.31366
-1.54348
-1.60395
-0.555823
-1.57514
1.29868
0.812707
1.3174
0.816762
1.38394
-3.0744
0.643453
2.43095
-2.25764
-1.436
-4.2848
-1.75517
6.03997
5.43346
2.55061
-5.46096
0.0826942
2.13023
-2.14374
-0.556791
-3.72801
2.8698
-3.42659
-4.83346
-2.08614
6.9196
-3.14079
-0.405812
3.09149
0.753766
-3.55966
-2.38908
3.53289
0.445563
-3.98521
8.01015
-4.02495
-6.19406
2.88937
4.50461
5.45629
-6.06439
3.14515
2.91924
-1.55978
4.79653
0.868185
4.72278
-10.6507
6.87519
6.24834
3.60107
-6.35693
0.663071
-9.98764
13.3008
-11.1887
-2.11213
7.2009
6.09988
7.37159
8.08426
-4.84554
12.2171
-0.785771
-10.4029
10.7734
-7.17235
7.17164
-14.344
-15.2559
4.85301
-9.05066
11.0477
-1.99701
-2.66965
-5.29281
11.7203
-1.05545
-10.6649
5.30784
-7.2022
-6.56882
13.771
-10.6428
10.4859
-3.41114
-7.07476
-6.61426
-4.82377
6.5329
1.4217
-13.111
15.7598
-3.80607
4.98087
0.811854
4.95596
5.35572
-8.08343
2.72771
5.28711
-8.69825
3.58338
-11.6668
-6.09809
12.1809
-6.08278
-8.98771
-8.03361
-0.954102
2.50056
13.2593
-8.31884
6.23116
2.08767
2.94213
0.571889
-2.95149
-0.475487
0.389628
5.42242
-5.81205
3.77247
3.80495
4.08658
1.33584
3.58812
2.31851
-3.5691
-0.344237
-4.83353
1.87058
-2.14467
-4.64262
6.5132
-5.24974
0.607126
-3.34579
-4.6123
7.95809
-5.50845
3.88086
4.1293
6.16381
-6.39993
1.78763
-3.2218
-3.17813
3.46212
-5.60678
2.39257
4.12064
5.0664
0.845848
6.34396
5.83692
-9.80623
0.653619
9.71856
-8.37251
1.97232
5.57735
-8.20348
0.169865
-5.59954
1.42386
-8.13188
-7.47187
6.98217
-9.68981
-7.36183
6.19852
0.672253
-6.27505
-0.540976
-2.84731
-1.8482
-2.98846
-1.75784
-3.11107
-6.60337
-1.24002
-5.36335
3.24269
-3.6038
-2.47589
3.75736
0.940631
-3.17562
3.14746
-3.43393
3.2713
-0.0797725
4.41642
5.26319
2.529
-2.85664
5.38564
-6.47834
8.8123
-10.7783
4.29996
4.70544
-7.95653
-6.07287
2.19097
2.5485
2.1294
9.40806
-12.4182
3.01014
-10.4951
11.6488
-1.15368
-15.0253
4.53026
-5.61728
2.05994
0.173201
2.03972
0.597511
2.43888
-3.03639
-1.65254
-1.67672
-2.87245
-4.39123
7.26368
1.59417
-4.21459
2.62042
-4.15018
5.74435
0.0931999
-4.30779
5.94828
-3.5094
6.12148
-4.05698
2.0645
4.11834
7.18024
-3.0619
5.21955
-2.08738
2.17177
-5.23367
-2.21947
-3.7784
6.06938
-4.17969
4.78682
-0.257334
5.04415
-4.73329
1.13098
-0.646703
3.15825
3.2265
5.40298
-4.06714
3.85612
-5.94349
-1.37755
-5.09765
-0.977009
-2.52929
-6.04711
8.5764
7.45125
-9.98055
-5.15958
9.22291
-4.06333
6.68894
-5.1487
-1.54024
-1.90343
-2.88543
1.84783
1.35607
8.04501
-0.234363
-4.91434
-3.26913
-2.72074
3.72992
2.0452
-2.26171
4.90762
1.98415
-0.670489
0.273676
1.04373
1.83467
-1.56099
0.55648
1.27819
-0.987003
1.55871
0.571519
-1.57131
-0.00383378
-1.17339
4.04318
1.25756
-2.07027
0.509276
1.17853
-4.1471
5.88706
-3.12416
-2.7629
7.0656
1.29527
-4.41944
4.96385
-4.44611
2.66382
-4.419
-1.75561
-6.20173
-4.15278
-3.42293
6.04335
-3.84075
6.39136
1.20989
-6.47406
7.68395
-4.28223
2.19609
-3.41865
3.99017
-1.46212
-1.95653
3.60369
3.31591
-3.54607
-0.181938
0.0576238
2.89229
-2.83467
-0.534298
-2.79194
-5.47398
5.91954
-2.79533
5.94048
2.59031
-2.52943
8.46991
2.26391
-4.79334
-3.93015
-4.33596
-1.87409
3.5822
-1.03185
-4.6553
-8.10661
4.68647
0.0363141
-10.5564
12.317
-1.76056
-6.71558
-0.159605
7.36051
-9.68338
0.985129
-6.1
6.21698
7.08517
7.12148
-10.7006
0.035789
-6.40337
1.9282
-8.33157
8.02808
-4.32069
9.1737
-8.83708
6.36118
-7.89644
7.06158
-1.27
7.39749
-4.66977
2.97582
-7.79959
-6.37789
8.16399
-4.55805
8.97584
-5.4069
14.3827
-9.21296
8.19308
6.18966
-1.57423
-5.12539
-8.00664
6.43241
0.186437
5.1424
5.8786
-3.56009
5.53436
2.89647
-6.11827
-2.71031
-8.54464
2.42636
-4.41534
-2.38856
4.81492
3.77525
4.34714
1.63679
-3.87165
8.8845
-9.8386
-2.80172
-4.67015
8.18733
-1.75492
5.27292
-9.94307
-2.85896
8.25516
-1.49746
-6.75769
-0.132922
-7.2289
3.20685
-10.4358
6.48296
-7.02393
1.06989
-6.68717
-2.10574
-2.18128
-1.39073
-2.04319
-5.59104
4.2003
-1.06078
2.08668
-8.65692
7.15946
-2.99183
7.19214
-2.36398
-0.624478
2.45325
0.818045
8.01018
-0.349076
-5.72379
-1.93135
6.07317
-4.14182
1.79857
-6.39619
-0.323018
2.96714
4.09845
-7.78329
-0.173238
-5.89703
-3.27232
5.82082
5.95059
13.4018
0.983645
6.33983
-0.519007
7.32347
1.61039
1.59308
-5.31522
8.32536
3.26119
7.56115
-0.694461
2.75896
1.34526
1.34131
0.802431
2.10329
1.12321
3.23427
0.197874
-1.47885
4.82221
-7.54295
-0.0921329
-6.79468
2.64294
6.73898
-4.09604
4.77416
-2.72897
0.632342
-0.0473298
-1.43625
1.48358
-2.85389
-2.10674
-0.828551
-2.00679
2.51606
2.03639
-1.68751
-1.16637
0.630931
-4.78371
3.78807
-3.97
-0.654097
7.02985
-3.30051
0.46584
-1.10442
-2.3261
-2.88192
2.88575
8.11796
0.351948
4.09301
6.27149
3.88241
0.322321
6.24131
-8.23832
-5.4255
-8.20253
-0.174453
7.18606
2.84222
10.417
9.03188
7.27697
-2.6661
-12.5047
10.8462
-2.52085
9.69253
-2.93484
-7.50092
6.06772
2.74458
-6.73997
-0.283957
-7.78488
-10.3057
-0.80415
7.96361
-7.20603
6.58155
4.73336
0.629995
-1.65489
-0.526393
1.70299
-0.109909
7.21356
-2.18366
-8.62794
10.8116
-4.55533
4.46319
2.45106
2.45656
3.93464
1.20567
-7.42227
-11.5183
-2.53694
-1.61016
-5.29984
0.740134
-2.77653
6.63513
-2.17193
5.09489
8.63966
9.272
-3.44363
-6.53692
7.50695
-2.41206
6.85994
)
;

boundaryField
{
    wall-4
    {
        type            calculated;
        value           uniform 0;
    }
    velocity-inlet-5
    {
        type            calculated;
        value           uniform -3.75095;
    }
    velocity-inlet-6
    {
        type            calculated;
        value           uniform -5.62643;
    }
    pressure-outlet-7
    {
        type            calculated;
        value           nonuniform List<scalar> 8(2.85998 2.88805 6.35094 6.63236 8.78968 8.22379 8.73904 8.02951);
    }
    wall-8
    {
        type            calculated;
        value           uniform 0;
    }
    frontAndBackPlanes
    {
        type            empty;
        value           nonuniform 0();
    }
}


// ************************************************************************* //
