/*--------------------------------*- C++ -*----------------------------------*\
  =========                 |
  \\      /  F ield         | OpenFOAM: The Open Source CFD Toolbox
   \\    /   O peration     | Website:  https://openfoam.org
    \\  /    A nd           | Version:  7
     \\/     M anipulation  |
\*---------------------------------------------------------------------------*/
FoamFile
{
    version     2.0;
    format      ascii;
    class       volVectorField;
    location    "13";
    object      U;
}
// * * * * * * * * * * * * * * * * * * * * * * * * * * * * * * * * * * * * * //

dimensions      [0 1 -1 0 0 0 0];

internalField   nonuniform List<vector> 
918
(
(0.813492 -0.0529573 0)
(0.134464 2.47694 0)
(0.0556165 0.71298 0)
(0.756264 0.0535025 0)
(-0.0120173 0.724892 -1.92363e-19)
(-0.136691 2.25728 -2.71981e-17)
(0.260601 0.440934 -8.97749e-19)
(0.121675 0.0668299 -5.22505e-20)
(1.00267 -0.00707166 0)
(-0.00918195 0.31615 0)
(-0.00952578 0.389657 0)
(0.226676 0.000861812 0)
(0.117394 1.74038 0)
(0.00852703 1.30128 0)
(-0.00589131 1.0415 -1.30819e-18)
(0.000824368 0.434408 -1.90732e-19)
(0.139555 0.0333643 3.86788e-18)
(0.0409045 0.400407 -4.70918e-19)
(0.476652 0.0499445 0)
(-0.0128426 0.437132 0)
(0.240457 0.127257 -1.75637e-18)
(1.02785 -0.139914 0)
(0.959566 -0.177538 0)
(0.58921 -0.0666212 0)
(0.201903 0.0121481 0)
(-0.014881 1.47406 0)
(-0.0469622 1.72797 8.38827e-18)
(-0.0129641 0.90514 0)
(0.0459343 1.70442 0)
(0.0598928 1.09339 0)
(-0.00567163 1.72666 0)
(0.0146508 0.955653 1.50595e-19)
(0.0135654 0.393713 0)
(-0.320951 2.70296 -1.01868e-21)
(-0.310509 3.10884 2.35004e-17)
(-0.0130235 3.04129 0)
(0.24641 0.00021518 0)
(0.0643223 0.0810781 5.53469e-19)
(0.451009 0.725071 1.98983e-18)
(0.290859 0.373829 -1.62646e-18)
(0.392551 0.813492 1.83886e-19)
(0.220257 0.480312 -9.05059e-19)
(0.239874 0.129685 5.26416e-20)
(0.129222 0.0654988 0)
(0.328697 0.204134 0)
(0.235264 0.131027 2.34859e-19)
(0.121018 0.0710092 -2.33344e-19)
(0.275501 -0.0142191 0)
(1.01042 -0.00034773 0)
(1.00278 0.00663183 0)
(1.07488 -0.154139 0)
(1.01612 -0.028081 0)
(1.01126 -0.0177685 0)
(0.00910854 0.486215 -2.42503e-18)
(-0.0218287 0.639877 0)
(0.00387679 0.308756 0)
(-0.02514 0.66085 0)
(-0.0104251 0.331613 0)
(-0.00050284 0.474258 0)
(-0.0210938 0.73359 0)
(-0.00333649 0.368015 0)
(-0.0177243 0.768461 0)
(-0.00648455 0.413161 0)
(0.267606 0.00324358 0)
(0.431469 -0.000161196 0)
(0.229754 0.00331556 0)
(0.423752 0.00503266 0)
(0.218469 0.0026559 0)
(0.345186 2.93893 1.07165e-17)
(0.284413 3.23577 0)
(0.225159 3.03561 0)
(0.211121 2.70618 1.15591e-22)
(0.138778 2.12556 -1.50624e-17)
(0.177552 2.49081 0)
(0.0775998 1.54064 0)
(0.0169812 2.25846 1.59364e-23)
(0.0180443 1.30085 0)
(-0.0620308 2.29126 0)
(-0.0450499 1.32053 0)
(0.0247461 1.76543 0)
(-0.0106944 1.17212 0)
(0.011897 1.90041 1.32325e-18)
(0.00341848 1.09456 0)
(-0.00276776 2.34511 0)
(0.00604154 0.811442 1.93021e-19)
(-0.00435745 0.438573 -2.51054e-19)
(0.276453 0.06334 -1.36909e-18)
(0.14118 0.0269336 -1.30888e-18)
(0.279498 0.0748401 -4.11614e-18)
(0.141441 0.0426963 -2.59871e-18)
(0.0424771 0.336188 0)
(0.102766 0.764938 4.19605e-19)
(0.10582 0.43402 -6.56796e-19)
(0.657375 0.0838033 0)
(0.346715 0.0352239 0)
(1.00993 0.04172 0)
(1.02765 0.158945 0)
(0.935755 0.139806 -1.70303e-17)
(0.850127 0.134885 1.27655e-17)
(-0.0225794 0.812972 0)
(0.00165581 0.419602 0)
(-0.00357865 1.23366 0)
(-0.0301298 0.862828 0)
(-0.0304062 0.425182 0)
(0.406607 0.146997 6.03927e-19)
(0.177982 0.0949936 0)
(0.742502 -0.0932785 0)
(0.411832 -0.0416742 0)
(0.409852 0.00357415 0)
(0.392833 0.00871301 0)
(0.210001 0.00240239 0)
(0.33628 0.0161157 0)
(0.32508 0.0231813 0)
(0.140201 0.0101723 6.00533e-18)
(-0.0213411 1.34863 4.35531e-18)
(-0.0513018 2.42564 0)
(-0.0726397 2.51241 0)
(-0.018939 1.35852 0)
(-0.0666284 2.63615 7.70561e-18)
(-0.0345583 1.62919 0)
(-0.103448 2.69816 -2.52924e-17)
(-0.0733535 1.81722 8.4721e-18)
(0.0354755 2.04218 0)
(0.0342058 2.19336 0)
(-0.00328048 0.797016 -4.23572e-21)
(-0.00360622 0.775296 0)
(-0.00314567 0.424282 0)
(0.47043 0.0123658 0)
(0.254578 0.00587078 0)
(0.239114 0.00203713 0)
(0.466058 -0.00644022 0)
(0.252263 -0.00111441 0)
(0.212566 0.240695 -7.44928e-19)
(0.053865 0.068793 0)
(0.195522 0.270119 9.83004e-20)
(0.0700413 0.113508 0)
(0.509137 0.619394 5.33152e-19)
(0.309496 0.319786 -1.20606e-18)
(0.233839 0.799117 0)
(0.316475 0.840034 0)
(0.169369 0.482155 0)
(0.0600981 0.15873 -7.73402e-19)
(0.257717 0.119404 0)
(0.134711 0.0585704 7.0784e-19)
(0.534059 0.531144 0)
(0.555195 0.433651 0)
(0.317043 0.259917 1.35015e-18)
(0.58355 0.331278 0)
(0.353445 0.153091 2.851e-20)
(0.48 0.00485948 0)
(0.484533 -0.00552873 0)
(0.257316 0.000607273 0)
(0.619114 -0.0613324 0)
(0.526884 -0.0408675 0)
(0.329038 -0.0266689 0)
(1.02561 0.0653592 0)
(1.01256 0.0269975 0)
(1.00465 0.0214606 0)
(0.0176363 0.867539 1.3099e-18)
(0.0102899 0.449169 0)
(0.00726902 0.914145 2.33695e-18)
(0.00170969 0.50936 -2.07516e-18)
(0.0358797 0.716201 4.04473e-19)
(0.0203697 0.645003 0)
(0.0175179 0.354811 0)
(-0.0197931 0.683858 0)
(-0.00628608 0.353987 0)
(0.00229423 0.873108 -9.63218e-21)
(-0.0108138 0.476202 0)
(-0.0225065 0.859935 -4.95584e-19)
(-0.00940743 0.45299 9.42009e-19)
(-0.00528548 0.697586 0)
(0.00406625 0.703728 0)
(-0.00132929 0.366098 0)
(-0.00356328 0.784472 0)
(-0.00141556 0.421014 0)
(0.499137 0.00140335 0)
(0.270041 0.00246137 0)
(0.488292 0.00731681 0)
(0.260658 -0.000120708 0)
(0.239355 -0.000589705 0)
(0.451189 0.00134218 0)
(0.43888 0.01182 0)
(0.239141 0.00309298 0)
(-0.00647438 4.03788 -6.9457e-20)
(0.0602224 3.91025 0)
(0.0867619 2.35694 0)
(0.0374116 1.3979 0)
(0.240289 1.66133 0)
(0.256376 0.705196 2.17576e-19)
(0.0265525 1.98928 0)
(-0.0217169 1.14768 0)
(0.0156447 2.27899 0)
(-0.000361818 2.34456 0)
(0.0105345 2.33038 0)
(-0.00433304 1.80899 2.89011e-20)
(0.00220994 2.31413 0)
(0.00667852 2.14426 0)
(0.00459657 0.448373 2.39754e-20)
(0.0103203 0.851564 3.53309e-19)
(-0.0128053 0.828017 2.62077e-19)
(-0.000401104 0.454494 0)
(0.281299 0.044189 2.11331e-18)
(0.139817 0.0177128 -2.0307e-18)
(0.0799803 0.619585 0)
(0.0570643 0.305942 -5.66229e-19)
(0.0644962 0.67188 -1.86989e-18)
(0.0276547 0.37293 1.82939e-18)
(0.261161 0.00489135 0)
(0.504055 0.0108497 0)
(0.547052 0.0359609 0)
(0.290396 0.0115188 0)
(0.00236715 0.791587 0)
(0.0155191 0.790609 0)
(0.00223998 0.426233 0)
(0.233981 0.136431 2.10684e-18)
(0.264086 0.139368 -2.37651e-18)
(0.129364 0.0756535 0)
(0.633439 0.0468772 2.3912e-19)
(0.370917 0.0299861 0)
(0.571445 0.0307042 0)
(0.299035 0.00666742 0)
(0.280031 0.0318175 0)
(0.281776 0.0189197 -9.82825e-18)
(0.141328 0.0120524 3.57831e-18)
(-0.0280053 2.4075 4.87153e-18)
(-0.0221826 1.43727 4.51125e-19)
(0.0206284 3.94123 -1.60403e-19)
(0.126147 3.8064 7.02893e-18)
(-0.141172 2.77488 3.10302e-19)
(-0.0946642 1.99797 -1.26603e-21)
(-0.258627 3.0954 -6.58741e-18)
(0.0494096 3.53287 4.93531e-18)
(0.0129024 3.73836 -7.38981e-18)
(0.483486 -0.00354632 0)
(0.486149 0.00748776 0)
(0.260789 0.000700521 0)
(0.477163 0.00426749 0)
(0.455975 0.0101802 0)
(0.250746 0.00417551 0)
(0.454442 -0.00401681 0)
(0.450622 -0.00510683 0)
(0.239643 -0.0025603 0)
(0.160659 0.27275 -3.89225e-19)
(0.0512324 0.117175 0)
(0.0656555 0.129234 2.07686e-19)
(0.151786 0.299309 1.62821e-18)
(0.159515 0.292833 -8.97485e-19)
(0.063244 0.120891 1.68532e-18)
(0.121177 0.345456 3.96384e-18)
(0.0656024 0.156105 7.49385e-19)
(0.275587 0.0936198 2.79141e-18)
(0.266955 0.10977 7.24023e-19)
(0.139873 0.051908 1.33695e-18)
(0.629396 0.245453 -1.55804e-18)
(0.377 0.112432 -1.6943e-18)
(-0.0143564 0.920336 1.00955e-18)
(-0.00553784 0.505551 0)
(0.539456 0.00972539 0)
(0.51315 0.0162452 0)
(0.286559 0.00752003 0)
(0.0159695 4.013 0)
(0.0437446 2.2622 9.90908e-18)
(0.0580578 2.29557 0)
(0.0235587 1.33435 -9.19712e-18)
(-0.0171123 4.07975 1.95709e-18)
(-0.0298604 4.10506 0)
(0.233456 0.373451 -3.15097e-20)
(0.310782 0.684421 2.59411e-19)
(0.071733 0.21009 -3.90312e-19)
(-0.0476744 2.27235 -4.22707e-18)
(-0.0478961 2.10379 0)
(-0.0310498 1.26799 0)
(0.00957318 0.838168 -3.25423e-20)
(0.015768 0.856736 -7.84971e-19)
(0.00810568 0.448245 -3.34688e-20)
(0.130414 0.561928 1.88623e-18)
(0.0651088 0.24967 -1.22058e-18)
(0.0167688 0.800558 1.56779e-18)
(0.0263058 0.725086 -1.73536e-18)
(0.0147314 0.405853 7.0576e-20)
(-0.025339 4.05487 -1.12928e-17)
(-0.0368249 4.13954 1.09997e-17)
(-0.03865 2.55601 6.23184e-18)
(-0.0740156 2.45559 -5.35519e-18)
(-0.0193277 1.55241 -6.01055e-18)
(-0.0420048 4.13041 -1.45187e-17)
(-0.0441046 4.12786 1.27595e-17)
(0.148437 0.344188 0)
(0.161922 0.320684 -3.70878e-18)
(0.0702117 0.147652 1.57773e-18)
(0.16293 0.390951 2.35372e-18)
(0.0694844 0.199747 -3.52742e-18)
(0.666939 0.101807 9.09373e-19)
(0.665916 0.178888 0)
(0.392197 0.0729786 -9.0081e-19)
(-0.0327259 0.886525 -1.0639e-20)
(-0.0100793 0.913554 0)
(-0.00747734 0.504028 0)
(0.122628 0.485322 -6.65527e-19)
(0.125266 0.444041 -1.43816e-18)
(0.0626186 0.224756 2.62588e-18)
(1.05419 -0.151216 0)
(1.12542 -0.152782 3.03769e-18)
(0.0379765 1.98054 0)
(0.0212406 1.73708 0)
(1.05547 0.0992625 2.2275e-20)
(1.03996 0.173845 6.31434e-18)
(0.0207848 1.82711 -3.77857e-20)
(0.00692137 1.47446 0)
(-0.0714173 3.76746 2.8702e-18)
(0.0351857 3.44561 0)
(1.12527 0.548747 -8.05119e-19)
(1.04842 0.0872831 -3.58267e-20)
(1.03318 -0.0364031 0)
(1.03871 -0.000629899 -1.11302e-22)
(0.0105739 1.57905 0)
(0.0702617 1.74151 0)
(-0.033271 1.58313 0)
(-0.0117982 1.82467 6.88391e-19)
(-0.01406 1.86404 4.32722e-19)
(0.925483 0.00877197 -1.87981e-20)
(1.01661 0.0110947 0)
(1.05048 0.0259512 0)
(-0.00416264 2.3326 0)
(-0.0132127 1.66158 0)
(-0.0302562 1.77355 0)
(0.277664 1.57167 5.52281e-19)
(1.1163 -0.144179 0)
(0.991423 -0.111673 0)
(1.06511 -0.020743 3.87938e-18)
(1.10703 -0.121522 -4.59388e-18)
(1.04037 -0.0480436 0)
(-0.0102868 2.31625 0)
(0.0108387 2.16213 0)
(0.0125001 2.25087 0)
(-0.0118439 1.8433 0)
(-0.0187993 1.72987 0)
(-0.0205248 1.55199 0)
(0.982438 0.00589933 0)
(0.956071 0.00407308 -2.27693e-20)
(0.810634 1.26272 -9.61588e-19)
(1.06045 0.0180596 -3.88046e-18)
(1.07212 0.106843 4.68944e-18)
(1.03326 0.0453146 0)
(1.1325 0.110259 3.59361e-18)
(1.11829 0.166124 -4.57614e-18)
(1.00859 0.135381 0)
(-0.0165231 1.78292 0)
(0.00819516 1.75927 1.7011e-19)
(-0.00913998 1.42989 -1.21637e-19)
(1.20899 0.174329 4.78915e-18)
(1.1414 0.060053 0)
(-0.236476 3.94813 -3.75232e-18)
(-0.154193 2.49646 -2.44273e-19)
(-0.236582 4.01181 4.41427e-18)
(-0.0574208 3.90897 -1.74714e-18)
(-0.0163959 3.55063 0)
(-0.0220222 3.82542 1.42025e-18)
(-0.163487 4.15466 3.86738e-18)
(-0.0798831 4.04431 -2.64195e-18)
(-0.102241 4.05437 0)
(0.527449 0.241139 0)
(0.493406 0.274504 0)
(1.13796 0.698262 2.44716e-18)
(1.0101 0.683373 -3.10888e-18)
(1.22527 0.565278 0)
(1.10325 0.387443 0)
(1.11176 0.0888706 -6.89253e-18)
(0.947183 0.0513899 8.50846e-18)
(1.10678 -0.0459507 0)
(0.931375 -0.0208373 0)
(1.16613 0.0143489 0)
(1.21723 0.0500008 0)
(1.11039 0.0421307 0)
(1.19589 0.103942 0)
(1.15039 0.106707 0)
(1.1247 0.0810056 0)
(0.019953 1.7083 0)
(0.00127981 1.37449 0)
(0.0257048 1.7938 0)
(0.04616 1.33256 0)
(0.0815129 1.90003 0)
(0.0875665 1.42007 -1.19958e-18)
(0.0314819 1.87658 0)
(0.0135074 1.60124 8.7762e-19)
(-0.00951985 1.68477 -1.12591e-18)
(-0.0304133 1.7191 0)
(-0.0220813 1.42456 0)
(-0.0366562 1.77387 0)
(-0.0219753 1.32098 0)
(-0.0393091 2.38 -5.42702e-19)
(-0.0350689 2.03041 5.88165e-19)
(-0.0304783 1.96191 6.91314e-19)
(-0.0223015 1.60712 0)
(-0.0399191 1.96565 -1.01546e-18)
(-0.0128315 1.70866 -6.20924e-19)
(-0.031515 2.39493 4.10997e-19)
(-0.0363437 2.2595 -7.50412e-19)
(-0.0281259 2.19089 -8.42995e-19)
(1.04909 0.0146596 6.21626e-18)
(0.81193 0.00503488 -7.81887e-18)
(1.01265 0.0290641 -6.19449e-18)
(0.810502 0.0175248 7.70196e-18)
(1.11525 0.0130195 0)
(0.886051 0.00208615 0)
(1.14018 0.0292233 0)
(1.10363 0.00960758 0)
(0.915008 0.00627368 0)
(1.20403 0.0692033 0)
(1.13901 0.0302631 0)
(0.963406 0.0205381 0)
(0.008302 2.22271 -2.19353e-20)
(-0.00416889 2.33611 0)
(-0.00162813 2.28953 0)
(-0.0234384 1.85372 1.8269e-19)
(-0.0111781 1.50785 -7.49739e-21)
(-0.0206744 2.36097 2.27116e-19)
(-0.0280586 2.30325 -2.34971e-19)
(-0.0286355 2.15925 0)
(-0.0155631 2.14791 0)
(-0.0115985 2.16785 0)
(-0.0269324 1.9211 0)
(-0.0167786 1.46206 0)
(0.365405 1.76918 -1.24392e-18)
(0.43884 1.404 -4.0286e-19)
(0.266453 1.1925 -4.87949e-19)
(0.123663 1.26298 1.49429e-18)
(0.372796 2.49097 5.48335e-19)
(1.13796 -0.0545875 0)
(1.10012 -0.0860814 0)
(0.934882 -0.0568385 0)
(1.17685 -0.0244424 0)
(1.12951 -0.0544801 0)
(1.16219 -0.0959955 0)
(1.18488 -0.101304 0)
(1.20122 -0.0975003 0)
(1.07747 0.0137017 6.54315e-18)
(0.846011 0.0126365 -8.23096e-18)
(1.04277 0.0169477 -6.50018e-18)
(0.857624 0.00710561 8.07112e-18)
(0.782361 1.40074 0)
(0.70768 1.32569 -1.15209e-18)
(0.84385 1.30793 -1.13197e-18)
(0.856526 1.0267 1.51589e-18)
(0.649511 1.24691 2.9139e-18)
(0.578581 0.0741765 2.45629e-18)
(1.22041 0.0914018 0)
(1.26939 0.177743 -3.86289e-18)
(1.09064 0.0770418 -1.70181e-19)
(1.23857 0.130439 0)
(-0.211504 3.32219 2.9722e-18)
(-0.257044 3.42177 -3.94786e-18)
(-0.0499317 1.6669 2.28829e-18)
(0.25778 0.515893 -1.22251e-18)
(0.0464099 3.60389 8.1358e-19)
(-0.00462416 3.65273 0)
(0.0271901 3.32964 -1.15696e-18)
(-0.141726 3.56406 -7.63786e-18)
(-0.0323504 3.6323 0)
(-0.0298706 3.9625 2.95116e-19)
(-0.0399198 4.24151 -3.28298e-18)
(-0.0496979 4.02836 4.73561e-18)
(-0.0946993 4.1814 0)
(-0.0365252 4.11296 0)
(0.652461 1.45508 0)
(0.642086 0.847 -2.20659e-18)
(0.913581 0.824503 1.08286e-18)
(0.904338 1.08086 0)
(0.961114 1.11366 -9.46358e-19)
(1.01751 0.865458 4.6753e-20)
(0.501555 0.179948 -3.1329e-18)
(0.624359 0.272679 -2.03077e-20)
(0.50457 0.191191 1.57404e-18)
(0.542139 0.325592 1.05668e-19)
(0.428016 0.256413 -4.15808e-18)
(0.592651 0.286699 0)
(0.761411 0.409977 2.66809e-18)
(0.772058 0.381901 0)
(0.579687 0.312531 0)
(0.449149 0.229133 0)
(1.03382 0.702969 2.08443e-18)
(1.2815 0.242382 -3.99329e-18)
(1.24285 0.393443 0)
(1.15613 0.25023 0)
(0.566839 0.147981 2.43395e-18)
(1.04376 0.601855 -1.59874e-18)
(0.958921 0.55931 2.95529e-18)
(1.20325 0.442969 -3.64721e-18)
(1.02343 0.0261648 4.41392e-18)
(1.0437 0.0507855 -4.55607e-18)
(0.87275 0.0232995 0)
(1.09241 -0.002801 0)
(1.0498 -0.020551 -4.27468e-18)
(0.859004 -0.00505466 4.22151e-18)
(1.32718 0.0172719 0)
(1.26073 0.0266243 0)
(1.25083 0.0501601 0)
(1.2063 0.0643105 0)
(1.30004 0.0152133 0)
(1.26517 0.0128952 0)
(-0.0141535 1.59443 0)
(-0.0177608 1.32263 0)
(0.0411467 2.16139 -8.95075e-19)
(0.237885 1.72509 -3.34091e-19)
(0.089457 1.71203 -7.50588e-19)
(0.145842 1.42121 1.1964e-18)
(0.0721623 2.11824 0)
(0.0754977 2.44971 -1.04156e-18)
(0.0573075 2.45531 0)
(0.293377 2.5278 -7.63244e-19)
(0.255901 2.256 1.95158e-18)
(0.0910438 2.45338 9.17643e-19)
(0.171397 2.07892 -4.18945e-19)
(0.0960828 2.20902 3.36208e-19)
(0.211163 2.33807 -1.35371e-18)
(0.173652 2.48846 0)
(0.220559 2.47556 1.00081e-18)
(-0.00144612 2.29097 -4.07013e-19)
(-0.00589925 1.88018 0)
(0.0287077 2.17524 1.18971e-18)
(-0.00148383 2.21138 0)
(0.00263843 1.80087 -9.7117e-19)
(-0.00594756 1.5405 0)
(-0.043435 2.30097 -6.45741e-19)
(-0.0384302 2.38645 0)
(-0.0234003 2.13066 0)
(-0.0250807 2.13718 7.03091e-19)
(-0.0200283 1.99957 2.90765e-20)
(-0.0173313 1.91251 1.3704e-18)
(-0.0210504 1.56212 9.00821e-21)
(-0.0461165 2.37669 3.81863e-19)
(-0.0437362 2.39498 2.18931e-19)
(-0.021462 1.64132 0)
(-0.0110777 1.38009 0)
(-0.0135296 2.41355 9.98071e-19)
(-0.0243026 2.30546 9.82984e-19)
(-0.0274019 2.37272 -1.2489e-18)
(-0.00599897 2.42017 0)
(-0.0227711 2.27869 -6.7095e-19)
(-0.0386659 2.13561 2.88095e-19)
(-0.032258 2.15869 -8.91894e-20)
(-0.0294105 2.38668 -4.80442e-19)
(-0.032847 2.17097 -1.50252e-19)
(-0.0367111 2.14608 6.95706e-19)
(0.982418 0.0067535 -4.30753e-18)
(0.984513 0.0050606 4.1923e-18)
(0.816224 0.00321072 0)
(1.18638 0.0494415 5.71379e-18)
(0.967772 0.0349827 -6.17067e-18)
(0.8193 0.0178538 6.73724e-18)
(1.23702 0.0854432 -7.63531e-19)
(1.06337 -0.00605116 0)
(1.05107 0.00190874 4.12324e-18)
(0.897758 0.000688814 -4.05488e-18)
(1.26349 0.0368311 -2.3835e-19)
(1.2334 0.0326129 2.04832e-18)
(1.33973 0.0485502 0)
(1.35891 0.0484397 -6.97823e-19)
(1.31864 0.0308082 0)
(1.2383 0.0294971 0)
(1.34485 0.0135499 0)
(1.23973 0.00959819 0)
(1.35887 0.0263596 1.45156e-18)
(1.35516 0.0134974 -3.21869e-18)
(1.3395 0.0327185 -1.61718e-18)
(1.35366 0.0315386 -1.71738e-18)
(1.35166 0.063879 3.38757e-18)
(1.25533 0.055207 0)
(1.30999 0.0853375 0)
(-0.0177991 2.30254 -2.74063e-19)
(0.00238187 2.33247 -2.3759e-20)
(-0.0153426 2.34282 0)
(-0.0138311 2.14176 2.78498e-19)
(-0.0093279 2.15843 4.29971e-20)
(-0.01364 2.10884 -4.31048e-20)
(-0.0305464 1.85158 5.50049e-19)
(-0.0519209 2.0619 -3.15347e-20)
(-0.0346402 2.11636 1.58491e-19)
(-0.023141 1.79733 -2.8019e-19)
(-0.00926378 1.57372 3.36399e-19)
(-0.0271289 2.32023 1.12513e-20)
(-0.0290632 2.35862 3.44824e-19)
(0.384871 1.99449 7.03789e-19)
(0.327081 2.26779 1.40705e-18)
(0.669994 1.49423 1.12146e-18)
(0.52724 1.60068 3.88406e-19)
(0.580001 1.38008 0)
(0.327994 1.37915 5.77418e-19)
(0.266726 0.966517 6.78844e-19)
(0.16273 1.44241 4.70756e-20)
(0.233846 1.86795 -2.2838e-18)
(0.300505 1.90503 1.79371e-18)
(0.24536 1.38303 0)
(0.162898 1.08844 -1.1818e-18)
(0.128984 1.6678 2.96745e-18)
(0.130804 1.48531 -8.13282e-20)
(0.0777575 1.2077 -3.70696e-18)
(0.329187 0.899462 2.57225e-18)
(0.347746 0.966064 0)
(1.21456 -0.0276077 1.51176e-19)
(1.21897 -0.0867165 -1.26717e-19)
(1.25018 -0.0755108 -2.22395e-18)
(1.27062 -0.046517 2.24269e-18)
(1.24764 -0.0208215 0)
(0.740102 1.53869 0)
(0.73785 1.53535 0)
(0.871401 1.3494 0)
(0.750699 1.45273 0)
(0.653903 1.31348 -5.06911e-21)
(0.464349 0.846152 0)
(0.92749 2.70669 2.49019e-20)
(0.727105 2.4437 0)
(0.834232 2.34941 -2.05954e-18)
(0.840341 2.36857 1.33417e-18)
(0.698871 0.112061 0)
(0.571518 0.098327 6.45086e-19)
(0.899477 0.115082 4.04308e-18)
(0.695766 0.0888802 -1.44007e-18)
(0.557332 0.0405897 -4.49825e-18)
(1.35379 0.236166 -5.05707e-18)
(1.24149 0.312538 -3.48232e-20)
(1.12492 0.275499 3.82513e-18)
(1.25915 0.229249 3.44081e-18)
(1.09041 0.149491 -5.68429e-18)
(1.02733 0.154115 6.9556e-19)
(1.11322 0.22569 -1.55675e-18)
(1.05085 0.213242 0)
(1.25246 0.168912 2.90815e-18)
(1.31703 0.190121 0)
(1.31725 0.229147 0)
(1.30211 0.122062 1.62314e-18)
(1.35386 0.189677 -3.25354e-20)
(1.34011 0.212011 -8.80524e-19)
(1.33233 0.19247 0)
(1.21216 0.0287799 3.21028e-18)
(1.35399 0.0438233 4.02247e-18)
(1.33687 0.0330294 -3.1495e-18)
(1.34017 0.061027 -2.7267e-18)
(1.24752 0.0554101 -4.05552e-18)
(1.1457 0.115568 0)
(1.16253 0.084485 0)
(0.936174 0.057605 -2.38518e-18)
(0.787084 0.0360723 8.89046e-19)
(1.31522 0.0965984 3.72143e-18)
(1.36152 0.121305 -4.56795e-18)
(1.36033 0.13982 4.04454e-18)
(1.33243 0.138678 0)
(1.35705 0.0948099 0)
(1.35978 0.0865153 -1.8959e-18)
(1.35129 0.0837229 -3.06397e-18)
(0.705577 2.19163 1.10123e-18)
(0.816257 2.78785 -1.12262e-18)
(0.934381 2.8028 -1.25527e-18)
(0.910476 3.07993 2.56423e-19)
(0.726025 1.60069 -2.66132e-18)
(0.71884 1.5022 4.38606e-19)
(0.503347 0.855125 -4.47929e-20)
(0.888415 2.55216 -9.03045e-19)
(0.900871 2.51197 1.63825e-18)
(0.784521 2.87217 2.25029e-19)
(0.73495 2.05382 -2.30059e-19)
(0.675838 1.92537 0)
(0.585744 0.934982 -2.40526e-19)
(0.0200829 1.52695 1.74802e-18)
(0.518495 0.252533 2.03264e-18)
(0.372746 0.364877 2.18003e-18)
(0.49828 0.286642 2.32756e-18)
(0.618276 0.365494 -4.0064e-18)
(0.617038 0.333656 3.2682e-18)
(0.52938 0.255843 -1.15274e-18)
(0.426091 0.224262 2.55689e-18)
(0.646976 0.196459 -1.42114e-18)
(0.621121 0.214468 0)
(0.513523 0.170228 5.25129e-21)
(0.872825 0.523741 1.46596e-18)
(0.78394 0.457626 -5.14301e-18)
(0.679259 0.414896 -1.93881e-21)
(0.665714 0.401042 0)
(0.786589 0.857434 1.75916e-18)
(1.0001 0.913891 2.25385e-18)
(0.914953 0.99729 -2.6068e-18)
(1.04649 0.930579 -9.23785e-19)
(1.07499 0.913191 -3.27307e-19)
(1.06435 0.975446 3.34335e-19)
(1.11512 0.737664 -3.37901e-18)
(1.12362 0.820344 8.6571e-19)
(1.16321 0.814318 0)
(1.17803 0.738489 -1.2681e-18)
(1.29055 0.334393 1.17167e-18)
(1.35725 0.310508 2.15764e-18)
(1.36274 0.291452 2.05124e-18)
(1.27599 0.4123 -2.28629e-18)
(1.29735 0.427842 0)
(1.31452 0.393741 0)
(1.12128 0.404673 -1.93399e-20)
(0.884655 0.247991 0)
(0.971997 0.258389 1.71984e-18)
(1.10614 0.293329 -2.87574e-20)
(1.20078 0.493259 1.00673e-17)
(1.12696 0.567989 2.55243e-18)
(1.11882 0.503676 -2.5124e-18)
(1.03089 0.465726 2.67881e-18)
(0.961484 0.475595 1.4983e-18)
(0.857378 0.420918 -1.45061e-18)
(1.21773 -0.0210897 3.60438e-18)
(1.31611 -0.0102175 0)
(1.30163 -0.0244964 2.40635e-18)
(1.25387 -0.0162764 -5.39474e-18)
(1.34242 0.00433432 2.6362e-18)
(1.31823 0.0243719 -5.51855e-18)
(1.25687 0.0266171 0)
(1.18523 0.0418294 -1.12225e-18)
(1.29178 0.0337928 2.86109e-18)
(1.24347 0.0562066 -1.47215e-18)
(1.20164 0.0463653 1.05748e-18)
(-0.0339355 1.629 0)
(-0.00862114 2.0018 0)
(-0.0201312 1.56929 0)
(-0.0137631 1.29013 0)
(-0.00281495 2.168 1.54683e-18)
(0.011812 2.07552 -4.59781e-19)
(0.0327772 2.42174 -5.1459e-19)
(0.00549232 2.35463 4.85392e-19)
(-0.0104891 2.298 -1.13769e-18)
(-0.00661085 2.30374 8.57466e-19)
(0.0159121 2.16065 1.27888e-20)
(0.00303853 2.06514 -1.03611e-18)
(0.00102034 1.95371 -1.40427e-19)
(-0.00646251 2.087 -1.29911e-19)
(0.0394293 2.26728 -1.28095e-18)
(0.0473545 2.19599 0)
(0.0631002 2.40008 6.19776e-19)
(0.0478813 2.43979 5.13996e-19)
(0.139521 2.41929 -4.68616e-19)
(0.172177 2.08977 0)
(0.170691 2.0512 -2.33236e-18)
(0.203343 2.29549 1.71844e-18)
(0.108293 2.43236 -1.25962e-18)
(0.0810681 2.33354 6.80254e-19)
(0.0827129 2.2252 0)
(-0.00750329 2.38734 -1.20904e-18)
(-0.0250481 2.27726 -1.40121e-18)
(-0.0249008 2.36339 0)
(-0.0114301 2.19416 -1.40136e-20)
(-0.00471071 2.32248 6.16329e-19)
(-0.0498029 2.16208 9.9985e-20)
(-0.0258995 2.00661 -1.47783e-18)
(-0.0509861 2.16453 4.11293e-19)
(-0.0664466 2.36415 5.28667e-19)
(-0.0348732 2.31105 0)
(-0.0381454 2.17077 0)
(-0.0343391 1.75508 4.42148e-19)
(-0.0227394 2.08853 -1.33017e-19)
(-0.0303341 2.08054 0)
(-0.0297519 1.66825 3.56079e-19)
(-0.0142249 1.39577 -6.83755e-19)
(1.23827 0.0165245 0)
(1.22879 0.00965297 -3.72253e-19)
(1.36692 0.0160261 -2.62095e-18)
(1.33438 0.0149972 0)
(1.27096 0.0102038 0)
(1.36746 0.00667856 -1.16984e-20)
(1.35705 0.00537249 4.39093e-18)
(1.3236 0.0127568 5.05941e-18)
(1.25583 0.0173386 0)
(1.19125 0.0162641 0)
(1.32212 0.012731 2.57032e-18)
(1.2387 0.0201211 0)
(1.17024 0.0237415 0)
(-0.0308033 2.35586 0)
(-0.0347624 2.35601 2.18996e-20)
(-0.0261159 2.36728 1.40718e-19)
(-0.0217267 2.14324 0)
(-0.0385219 2.33254 2.41458e-19)
(-0.0266687 2.26865 -1.34522e-19)
(-0.02466 2.20735 0)
(0.571115 2.58219 0)
(0.366831 2.46038 -2.48837e-18)
(0.400065 2.56438 0)
(0.545881 2.23893 2.86841e-18)
(0.55355 1.72891 0)
(0.513575 1.99505 -1.19112e-18)
(0.662242 1.81671 -5.46902e-20)
(0.409798 1.14022 -3.05407e-18)
(0.37205 0.774654 3.39986e-18)
(0.429429 1.17466 7.36308e-19)
(0.64007 1.78984 0)
(0.673415 1.8456 0)
(0.408231 1.07818 0)
(0.282636 0.745563 -2.54135e-18)
(0.580096 2.52626 -1.95857e-18)
(0.654457 2.18325 -4.56083e-19)
(0.713871 2.42533 3.62502e-19)
(0.34736 1.21414 0)
(0.366099 1.1671 0)
(0.26033 0.884589 -7.84307e-19)
(0.574794 1.88343 0)
(0.691569 1.43819 0)
(0.529889 1.43424 -2.86444e-18)
(0.615264 1.13305 -1.7626e-19)
(0.645255 1.72437 0)
(0.615243 1.86973 4.34371e-18)
(0.922611 1.05768 -8.70987e-19)
(0.91667 1.20139 0)
(0.913663 1.12985 1.48506e-18)
(0.713084 1.24767 0)
(0.706191 1.17575 0)
(0.908763 2.25 -1.07202e-18)
(0.987264 2.75136 -9.89585e-19)
(0.930506 2.76698 1.93746e-18)
(0.934616 2.70554 -5.66182e-19)
(0.777316 1.80701 0)
(0.820162 2.03168 7.68371e-19)
(0.50515 1.02698 -9.14382e-19)
(0.372814 0.730546 -2.11675e-20)
(0.82724 2.55077 0)
(0.710856 2.17058 -9.77843e-19)
(0.727743 2.00713 0)
(0.848893 0.181531 0)
(0.642688 0.129599 0)
(0.504957 0.110935 0)
(0.834224 0.199615 -2.6599e-18)
(0.652856 0.157228 1.47464e-18)
(0.804351 0.0407477 -1.78198e-18)
(0.956608 0.0921795 0)
(0.903848 0.0938033 7.44367e-19)
(0.676952 0.0461954 2.93074e-18)
(0.590501 0.0274326 -1.85672e-18)
(0.628688 3.06487 2.96511e-19)
(0.719956 3.24699 0)
(0.45355 3.08405 6.97708e-19)
(0.328363 3.55277 -5.80355e-19)
(0.400492 3.47443 -1.31471e-18)
(0.443122 1.25626 2.68561e-18)
(0.431255 1.64698 0)
(0.379565 0.581862 -5.40167e-19)
(0.518608 0.652502 3.54904e-18)
(0.562513 0.329373 -7.5776e-19)
(0.645059 0.387274 8.40446e-19)
(0.767922 0.500327 1.84864e-18)
(0.846184 0.56104 0)
(0.74366 0.556197 0)
(0.732965 0.490399 0)
(1.22022 0.681555 9.20325e-19)
(1.17646 0.604924 -2.47384e-18)
(1.17729 0.659977 2.15843e-18)
(1.22487 0.569802 -2.00645e-18)
(1.30664 0.541616 0)
(1.29001 0.603567 -6.45049e-19)
(1.00022 0.404681 -3.50303e-18)
(1.03151 0.390891 -4.53218e-18)
(0.867526 0.382808 2.67447e-18)
(0.809325 0.346422 -2.58031e-18)
(0.908506 0.305994 -2.1569e-18)
(0.820448 0.293362 2.63329e-18)
(1.34704 0.00569816 -2.78619e-18)
(1.35704 0.00759403 5.49982e-18)
(1.25353 -0.013552 3.36877e-18)
(1.25835 -0.014019 -3.97888e-18)
(1.30641 0.00871142 0)
(1.34558 0.00847447 -6.73427e-18)
(0.0236367 2.4146 2.29993e-19)
(0.00863107 2.41381 0)
(0.0335833 2.41786 1.98312e-18)
(0.0327425 2.43626 -1.79187e-18)
(0.0216164 2.42879 9.57395e-19)
(0.00262406 2.41183 0)
(-0.0412828 2.39931 0)
(-0.0469375 2.30356 -1.36418e-19)
(-0.0464011 2.28861 1.22011e-19)
(-0.044456 2.31932 1.7427e-20)
(-0.0407042 2.36849 -2.1375e-19)
(-0.0353392 2.36547 1.16423e-19)
(0.74492 2.4431 -2.99183e-18)
(0.721748 2.46198 3.19496e-18)
(0.583704 2.21483 -1.62182e-18)
(0.659309 2.52011 1.4108e-19)
(0.691148 1.64391 0)
(0.628058 1.78231 -1.38515e-18)
(0.661897 1.61071 1.35934e-18)
(0.613084 1.94882 1.61706e-18)
(0.697811 2.07961 0)
(0.71327 1.91286 0)
(0.533145 2.42436 2.94484e-18)
(0.469189 1.85522 4.14167e-18)
(0.524242 2.00241 -2.93272e-18)
(0.435722 1.9038 -4.78734e-19)
(0.422901 2.39214 9.64039e-19)
(0.358542 2.12136 -2.36694e-18)
(0.502715 1.04356 -1.91698e-18)
(0.503377 0.955889 0)
(0.376383 0.718979 -1.9141e-18)
(0.7776 1.80862 0)
(0.762473 1.81905 0)
(0.405094 3.04075 -1.50315e-18)
(0.6553 3.37948 -8.90074e-19)
(0.491016 3.45762 1.39882e-18)
(0.152545 1.54923 0)
(0.213674 1.15443 -1.2414e-18)
(0.365853 1.55462 -1.68566e-18)
(0.31164 2.80343 0)
(0.203903 3.33565 9.41922e-19)
(0.0492142 3.19505 0)
(0.858578 0.736826 -3.68448e-18)
(0.973853 0.802312 5.26867e-18)
(0.995086 0.710109 -5.22859e-18)
(0.824277 0.651358 -4.43215e-19)
(0.883883 0.63564 -1.86458e-18)
(0.701257 3.30507 7.33451e-19)
(0.838492 3.20492 -1.47639e-18)
(0.568383 3.03843 3.18554e-18)
(0.542597 2.70657 -2.23103e-18)
(0.823546 2.83479 -2.28177e-18)
(0.845919 3.10505 -3.24278e-19)
(0.908335 3.00724 1.73378e-18)
(0.681255 2.84975 1.44961e-19)
(0.665295 2.66019 9.8449e-19)
)
;

boundaryField
{
    wall-4
    {
        type            noSlip;
    }
    velocity-inlet-5
    {
        type            fixedValue;
        value           uniform (1 0 0);
    }
    velocity-inlet-6
    {
        type            fixedValue;
        value           uniform (0 3 0);
    }
    pressure-outlet-7
    {
        type            zeroGradient;
    }
    wall-8
    {
        type            noSlip;
    }
    frontAndBackPlanes
    {
        type            empty;
    }
}


// ************************************************************************* //
