/*--------------------------------*- C++ -*----------------------------------*\
  =========                 |
  \\      /  F ield         | OpenFOAM: The Open Source CFD Toolbox
   \\    /   O peration     | Website:  https://openfoam.org
    \\  /    A nd           | Version:  7
     \\/     M anipulation  |
\*---------------------------------------------------------------------------*/
FoamFile
{
    version     2.0;
    format      ascii;
    class       volScalarField;
    location    "0.097";
    object      pPrime2Mean;
}
// * * * * * * * * * * * * * * * * * * * * * * * * * * * * * * * * * * * * * //

dimensions      [0 4 -4 0 0 0 0];

internalField   nonuniform List<scalar> 
12225
(
3.71905e+06
3.66001e+06
3.59902e+06
3.54015e+06
3.48356e+06
3.42911e+06
3.37663e+06
3.32599e+06
3.27702e+06
3.22955e+06
3.18338e+06
3.1383e+06
3.09405e+06
3.05029e+06
3.00657e+06
2.96217e+06
2.91583e+06
2.86443e+06
3.7191e+06
3.66005e+06
3.59905e+06
3.54018e+06
3.4836e+06
3.42915e+06
3.37668e+06
3.32605e+06
3.27709e+06
3.22963e+06
3.18348e+06
3.13844e+06
3.09423e+06
3.05054e+06
3.00694e+06
2.96277e+06
2.91697e+06
2.86702e+06
3.71919e+06
3.66011e+06
3.59912e+06
3.54025e+06
3.48367e+06
3.42923e+06
3.37678e+06
3.32617e+06
3.27723e+06
3.22981e+06
3.18372e+06
3.13874e+06
3.09463e+06
3.0511e+06
3.00775e+06
2.96406e+06
2.91925e+06
2.87238e+06
3.71931e+06
3.66022e+06
3.59922e+06
3.54036e+06
3.4838e+06
3.42938e+06
3.37695e+06
3.32637e+06
3.27748e+06
3.23011e+06
3.1841e+06
3.13923e+06
3.09528e+06
3.052e+06
3.00905e+06
2.96605e+06
2.92262e+06
2.87877e+06
3.71945e+06
3.66037e+06
3.59938e+06
3.54053e+06
3.48398e+06
3.42959e+06
3.37719e+06
3.32666e+06
3.27784e+06
3.23056e+06
3.18466e+06
3.13995e+06
3.09623e+06
3.05328e+06
3.01086e+06
2.96875e+06
2.92686e+06
2.8857e+06
3.71966e+06
3.66058e+06
3.5996e+06
3.54076e+06
3.48424e+06
3.42988e+06
3.37753e+06
3.32707e+06
3.27833e+06
3.23116e+06
3.18542e+06
3.14092e+06
3.09749e+06
3.05497e+06
3.0132e+06
2.97209e+06
2.93176e+06
2.89288e+06
3.71993e+06
3.66086e+06
3.59989e+06
3.54107e+06
3.48458e+06
3.43026e+06
3.37798e+06
3.3276e+06
3.27897e+06
3.23196e+06
3.1864e+06
3.14217e+06
3.09911e+06
3.0571e+06
3.01606e+06
2.97601e+06
2.93717e+06
2.90018e+06
3.72027e+06
3.66122e+06
3.60026e+06
3.54146e+06
3.48501e+06
3.43076e+06
3.37856e+06
3.32828e+06
3.27979e+06
3.23296e+06
3.18764e+06
3.14373e+06
3.10109e+06
3.05966e+06
3.01941e+06
2.98043e+06
2.94297e+06
2.90755e+06
3.72073e+06
3.66168e+06
3.60073e+06
3.54196e+06
3.48556e+06
3.43137e+06
3.37927e+06
3.32912e+06
3.28081e+06
3.23419e+06
3.18916e+06
3.14561e+06
3.10346e+06
3.06266e+06
3.02323e+06
2.98528e+06
2.94906e+06
2.91497e+06
3.72128e+06
3.66225e+06
3.6013e+06
3.54257e+06
3.48622e+06
3.43213e+06
3.38014e+06
3.33015e+06
3.28203e+06
3.23567e+06
3.19097e+06
3.14783e+06
3.1062e+06
3.06607e+06
3.02746e+06
2.9905e+06
2.95539e+06
2.9224e+06
3.72208e+06
3.66296e+06
3.60201e+06
3.54331e+06
3.48703e+06
3.43304e+06
3.38119e+06
3.33138e+06
3.28349e+06
3.23742e+06
3.19308e+06
3.15039e+06
3.10932e+06
3.06986e+06
3.03206e+06
2.99602e+06
2.96188e+06
2.92984e+06
3.72282e+06
3.66374e+06
3.60279e+06
3.54412e+06
3.48792e+06
3.43403e+06
3.38233e+06
3.33271e+06
3.28506e+06
3.23928e+06
3.1953e+06
3.15305e+06
3.11251e+06
3.07367e+06
3.03657e+06
3.0013e+06
2.96796e+06
2.93667e+06
3.72384e+06
3.66464e+06
3.60368e+06
3.54505e+06
3.48892e+06
3.43515e+06
3.38362e+06
3.3342e+06
3.2868e+06
3.24134e+06
3.19774e+06
3.15594e+06
3.11592e+06
3.07769e+06
3.04126e+06
3.0067e+06
2.97407e+06
2.94343e+06
3.72518e+06
3.66585e+06
3.60486e+06
3.54627e+06
3.49024e+06
3.43663e+06
3.38529e+06
3.33613e+06
3.28906e+06
3.24397e+06
3.20082e+06
3.15955e+06
3.12013e+06
3.08255e+06
3.04684e+06
3.01302e+06
2.9811e+06
2.95111e+06
3.72693e+06
3.66743e+06
3.60641e+06
3.54787e+06
3.49197e+06
3.43855e+06
3.38747e+06
3.33862e+06
3.29193e+06
3.2473e+06
3.20467e+06
3.16398e+06
3.12522e+06
3.08836e+06
3.05338e+06
3.0203e+06
2.98908e+06
2.95973e+06
3.7291e+06
3.66947e+06
3.60842e+06
3.54996e+06
3.49421e+06
3.44102e+06
3.39025e+06
3.34178e+06
3.29554e+06
3.25142e+06
3.20938e+06
3.16934e+06
3.13128e+06
3.09514e+06
3.06091e+06
3.02854e+06
2.99801e+06
2.96925e+06
3.73184e+06
3.67203e+06
3.61096e+06
3.55259e+06
3.49705e+06
3.44414e+06
3.39373e+06
3.3457e+06
3.29996e+06
3.25642e+06
3.21501e+06
3.17565e+06
3.13829e+06
3.10288e+06
3.06936e+06
3.03768e+06
3.00777e+06
2.97958e+06
3.73498e+06
3.67508e+06
3.61403e+06
3.55582e+06
3.50051e+06
3.44794e+06
3.39794e+06
3.35039e+06
3.3052e+06
3.26226e+06
3.2215e+06
3.18281e+06
3.14615e+06
3.11142e+06
3.07857e+06
3.04751e+06
3.01818e+06
2.9905e+06
3.73846e+06
3.6785e+06
3.61755e+06
3.55953e+06
3.50453e+06
3.45232e+06
3.40277e+06
3.35574e+06
3.3111e+06
3.26876e+06
3.22862e+06
3.19058e+06
3.15455e+06
3.12045e+06
3.08819e+06
3.05768e+06
3.02885e+06
3.00161e+06
3.74097e+06
3.68115e+06
3.62037e+06
3.56258e+06
3.50784e+06
3.45596e+06
3.40676e+06
3.36011e+06
3.3159e+06
3.27399e+06
3.23429e+06
3.19669e+06
3.16109e+06
3.1274e+06
3.09553e+06
3.06539e+06
3.03689e+06
3.00993e+06
3.74235e+06
3.6828e+06
3.62221e+06
3.56461e+06
3.51008e+06
3.45842e+06
3.40947e+06
3.36308e+06
3.31913e+06
3.27749e+06
3.23807e+06
3.20074e+06
3.16541e+06
3.13197e+06
3.10033e+06
3.07041e+06
3.04209e+06
3.01531e+06
3.74343e+06
3.68395e+06
3.62351e+06
3.56608e+06
3.51171e+06
3.46023e+06
3.41145e+06
3.36525e+06
3.32148e+06
3.28004e+06
3.24081e+06
3.20367e+06
3.16851e+06
3.13524e+06
3.10377e+06
3.07398e+06
3.0458e+06
3.01913e+06
3.74383e+06
3.68466e+06
3.6244e+06
3.5671e+06
3.51288e+06
3.46152e+06
3.41287e+06
3.3668e+06
3.32318e+06
3.28187e+06
3.24277e+06
3.20575e+06
3.17072e+06
3.13757e+06
3.1062e+06
3.07651e+06
3.04841e+06
3.02182e+06
3.74417e+06
3.68512e+06
3.62499e+06
3.56781e+06
3.51369e+06
3.46243e+06
3.41388e+06
3.3679e+06
3.32437e+06
3.28316e+06
3.24414e+06
3.20722e+06
3.17227e+06
3.1392e+06
3.1079e+06
3.07828e+06
3.05024e+06
3.0237e+06
3.74433e+06
3.6854e+06
3.62538e+06
3.56829e+06
3.51425e+06
3.46306e+06
3.41457e+06
3.36866e+06
3.3252e+06
3.28405e+06
3.2451e+06
3.20823e+06
3.17334e+06
3.14032e+06
3.10907e+06
3.07949e+06
3.05149e+06
3.02499e+06
3.74423e+06
3.68554e+06
3.62563e+06
3.56861e+06
3.51462e+06
3.46348e+06
3.41504e+06
3.36918e+06
3.32575e+06
3.28464e+06
3.24573e+06
3.20891e+06
3.17405e+06
3.14107e+06
3.10985e+06
3.0803e+06
3.05233e+06
3.02585e+06
3.74415e+06
3.68561e+06
3.62578e+06
3.56881e+06
3.51486e+06
3.46375e+06
3.41534e+06
3.36951e+06
3.32611e+06
3.28503e+06
3.24615e+06
3.20934e+06
3.17452e+06
3.14155e+06
3.11035e+06
3.08083e+06
3.05287e+06
3.0264e+06
3.74414e+06
3.68566e+06
3.62588e+06
3.56893e+06
3.515e+06
3.46391e+06
3.41553e+06
3.36971e+06
3.32633e+06
3.28526e+06
3.2464e+06
3.20961e+06
3.17479e+06
3.14185e+06
3.11066e+06
3.08114e+06
3.0532e+06
3.02674e+06
3.74413e+06
3.68568e+06
3.62592e+06
3.569e+06
3.51508e+06
3.464e+06
3.41562e+06
3.36981e+06
3.32644e+06
3.28539e+06
3.24653e+06
3.20975e+06
3.17495e+06
3.142e+06
3.11082e+06
3.08131e+06
3.05337e+06
3.02692e+06
3.74414e+06
3.68569e+06
3.62594e+06
3.56903e+06
3.51511e+06
3.46404e+06
3.41566e+06
3.36986e+06
3.32649e+06
3.28544e+06
3.24658e+06
3.20981e+06
3.17501e+06
3.14207e+06
3.11089e+06
3.08138e+06
3.05345e+06
3.02699e+06
2.42041e+06
2.42021e+06
2.41983e+06
2.41924e+06
2.41844e+06
2.41744e+06
2.41623e+06
2.4148e+06
2.41316e+06
2.4113e+06
2.40921e+06
2.4069e+06
2.40436e+06
2.4016e+06
2.39861e+06
2.39539e+06
2.39194e+06
2.38826e+06
2.38435e+06
2.3802e+06
2.37583e+06
2.37123e+06
2.36641e+06
2.36135e+06
2.35608e+06
2.35058e+06
2.34485e+06
2.33891e+06
2.33275e+06
2.32638e+06
2.31979e+06
2.313e+06
2.306e+06
2.29879e+06
2.29138e+06
2.28378e+06
2.27598e+06
2.26799e+06
2.25981e+06
2.25144e+06
2.24289e+06
2.23416e+06
2.22525e+06
2.21617e+06
2.20693e+06
2.19751e+06
2.18793e+06
2.17819e+06
2.16829e+06
2.15824e+06
2.14804e+06
2.13768e+06
2.12719e+06
2.11654e+06
2.10576e+06
2.09485e+06
2.08379e+06
2.07261e+06
2.06129e+06
2.04986e+06
2.03829e+06
2.02661e+06
2.01481e+06
2.00289e+06
1.99085e+06
1.97871e+06
1.96646e+06
1.9541e+06
1.94164e+06
1.92907e+06
1.9164e+06
1.90364e+06
1.89078e+06
1.87782e+06
1.86478e+06
1.85164e+06
1.83841e+06
1.8251e+06
1.8117e+06
1.79822e+06
1.78465e+06
1.77101e+06
1.75729e+06
1.74349e+06
1.72961e+06
1.71567e+06
1.70165e+06
1.68756e+06
1.6734e+06
1.65917e+06
1.64488e+06
1.63053e+06
1.61611e+06
1.60163e+06
1.58709e+06
1.57249e+06
1.55784e+06
1.54313e+06
1.52837e+06
1.51355e+06
1.49868e+06
1.48376e+06
1.46879e+06
1.45378e+06
1.43871e+06
1.42361e+06
1.40846e+06
1.39327e+06
1.37804e+06
1.36277e+06
1.34746e+06
1.33212e+06
1.31674e+06
1.30133e+06
1.28588e+06
1.27041e+06
1.25491e+06
1.23938e+06
1.22383e+06
1.20825e+06
1.19265e+06
1.17702e+06
1.16138e+06
1.14572e+06
1.13005e+06
1.11436e+06
1.09865e+06
1.08294e+06
1.06722e+06
1.05149e+06
1.03575e+06
1.02001e+06
1.00427e+06
988534
972797
957065
941340
925623
909918
894226
878549
862891
847253
831638
816048
800485
784954
769455
753991
738567
723183
707844
692551
677309
662120
646987
631913
616902
601958
587083
572281
557556
542912
528352
513881
499503
485222
471044
456973
443014
429173
415458
401875
388432
375141
362015
349070
336335
323853
311722
2.42128e+06
2.42109e+06
2.4207e+06
2.4201e+06
2.4193e+06
2.4183e+06
2.41708e+06
2.41564e+06
2.41399e+06
2.41212e+06
2.41002e+06
2.4077e+06
2.40515e+06
2.40237e+06
2.39936e+06
2.39613e+06
2.39266e+06
2.38896e+06
2.38503e+06
2.38087e+06
2.37649e+06
2.37187e+06
2.36702e+06
2.36195e+06
2.35665e+06
2.35113e+06
2.34539e+06
2.33943e+06
2.33326e+06
2.32686e+06
2.32026e+06
2.31345e+06
2.30643e+06
2.29921e+06
2.29178e+06
2.28416e+06
2.27635e+06
2.26834e+06
2.26014e+06
2.25176e+06
2.24319e+06
2.23445e+06
2.22553e+06
2.21644e+06
2.20718e+06
2.19775e+06
2.18816e+06
2.17841e+06
2.1685e+06
2.15844e+06
2.14823e+06
2.13786e+06
2.12736e+06
2.11671e+06
2.10592e+06
2.09499e+06
2.08393e+06
2.07274e+06
2.06142e+06
2.04997e+06
2.0384e+06
2.02671e+06
2.0149e+06
2.00298e+06
1.99094e+06
1.97879e+06
1.96654e+06
1.95417e+06
1.9417e+06
1.92913e+06
1.91646e+06
1.9037e+06
1.89083e+06
1.87787e+06
1.86482e+06
1.85168e+06
1.83845e+06
1.82514e+06
1.81173e+06
1.79825e+06
1.78468e+06
1.77104e+06
1.75731e+06
1.74351e+06
1.72964e+06
1.71569e+06
1.70167e+06
1.68758e+06
1.67342e+06
1.65919e+06
1.6449e+06
1.63054e+06
1.61612e+06
1.60164e+06
1.5871e+06
1.57251e+06
1.55785e+06
1.54314e+06
1.52837e+06
1.51356e+06
1.49869e+06
1.48377e+06
1.4688e+06
1.45378e+06
1.43872e+06
1.42361e+06
1.40846e+06
1.39327e+06
1.37804e+06
1.36277e+06
1.34746e+06
1.33212e+06
1.31674e+06
1.30133e+06
1.28589e+06
1.27041e+06
1.25491e+06
1.23938e+06
1.22383e+06
1.20825e+06
1.19265e+06
1.17702e+06
1.16138e+06
1.14572e+06
1.13005e+06
1.11436e+06
1.09865e+06
1.08294e+06
1.06722e+06
1.05149e+06
1.03575e+06
1.02001e+06
1.00427e+06
988534
972798
957065
941340
925623
909918
894226
878549
862891
847253
831638
816048
800485
784954
769455
753992
738567
723183
707844
692551
677309
662120
646987
631913
616902
601958
587082
572281
557556
542911
528352
513881
499502
485222
471043
456971
443012
429171
415455
401870
388427
375134
362004
349055
336311
323811
311623
2.42304e+06
2.42284e+06
2.42244e+06
2.42184e+06
2.42103e+06
2.42001e+06
2.41878e+06
2.41733e+06
2.41565e+06
2.41376e+06
2.41164e+06
2.40929e+06
2.40671e+06
2.40391e+06
2.40087e+06
2.3976e+06
2.39411e+06
2.39037e+06
2.38641e+06
2.38222e+06
2.37779e+06
2.37314e+06
2.36825e+06
2.36315e+06
2.35781e+06
2.35225e+06
2.34647e+06
2.34048e+06
2.33426e+06
2.32783e+06
2.3212e+06
2.31435e+06
2.30729e+06
2.30004e+06
2.29258e+06
2.28492e+06
2.27708e+06
2.26904e+06
2.26081e+06
2.2524e+06
2.24381e+06
2.23504e+06
2.22609e+06
2.21697e+06
2.20769e+06
2.19823e+06
2.18862e+06
2.17885e+06
2.16892e+06
2.15883e+06
2.1486e+06
2.13822e+06
2.12769e+06
2.11703e+06
2.10622e+06
2.09528e+06
2.0842e+06
2.07299e+06
2.06166e+06
2.0502e+06
2.03862e+06
2.02692e+06
2.0151e+06
2.00316e+06
1.99111e+06
1.97896e+06
1.96669e+06
1.95432e+06
1.94184e+06
1.92926e+06
1.91659e+06
1.90381e+06
1.89094e+06
1.87797e+06
1.86492e+06
1.85177e+06
1.83854e+06
1.82521e+06
1.81181e+06
1.79832e+06
1.78475e+06
1.7711e+06
1.75737e+06
1.74357e+06
1.72969e+06
1.71574e+06
1.70171e+06
1.68762e+06
1.67346e+06
1.65923e+06
1.64493e+06
1.63057e+06
1.61615e+06
1.60167e+06
1.58713e+06
1.57253e+06
1.55787e+06
1.54316e+06
1.52839e+06
1.51357e+06
1.4987e+06
1.48378e+06
1.46881e+06
1.45379e+06
1.43873e+06
1.42362e+06
1.40847e+06
1.39328e+06
1.37805e+06
1.36278e+06
1.34747e+06
1.33213e+06
1.31675e+06
1.30133e+06
1.28589e+06
1.27042e+06
1.25492e+06
1.23939e+06
1.22383e+06
1.20825e+06
1.19265e+06
1.17703e+06
1.16138e+06
1.14572e+06
1.13005e+06
1.11436e+06
1.09866e+06
1.08294e+06
1.06722e+06
1.05149e+06
1.03575e+06
1.02001e+06
1.00427e+06
988535
972798
957066
941340
925624
909918
894226
878550
862891
847253
831638
816048
800486
784954
769455
753992
738567
723183
707844
692551
677309
662120
646987
631913
616902
601957
587082
572280
557555
542911
528351
513879
499501
485220
471041
456968
443008
429166
415448
401862
388416
375119
361984
349026
336266
323734
311468
2.42568e+06
2.42548e+06
2.42507e+06
2.42446e+06
2.42364e+06
2.4226e+06
2.42134e+06
2.41986e+06
2.41816e+06
2.41623e+06
2.41408e+06
2.41169e+06
2.40907e+06
2.40623e+06
2.40314e+06
2.39983e+06
2.39628e+06
2.3925e+06
2.38848e+06
2.38423e+06
2.37975e+06
2.37504e+06
2.3701e+06
2.36494e+06
2.35955e+06
2.35393e+06
2.3481e+06
2.34204e+06
2.33577e+06
2.32929e+06
2.32259e+06
2.31569e+06
2.30859e+06
2.30128e+06
2.29377e+06
2.28607e+06
2.27817e+06
2.27008e+06
2.26181e+06
2.25336e+06
2.24472e+06
2.23591e+06
2.22692e+06
2.21777e+06
2.20844e+06
2.19896e+06
2.18931e+06
2.1795e+06
2.16954e+06
2.15942e+06
2.14916e+06
2.13875e+06
2.1282e+06
2.1175e+06
2.10667e+06
2.09571e+06
2.08461e+06
2.07338e+06
2.06202e+06
2.05054e+06
2.03894e+06
2.02722e+06
2.01539e+06
2.00344e+06
1.99137e+06
1.9792e+06
1.96692e+06
1.95453e+06
1.94204e+06
1.92945e+06
1.91677e+06
1.90398e+06
1.8911e+06
1.87812e+06
1.86506e+06
1.8519e+06
1.83866e+06
1.82533e+06
1.81192e+06
1.79842e+06
1.78485e+06
1.77119e+06
1.75746e+06
1.74365e+06
1.72976e+06
1.71581e+06
1.70178e+06
1.68768e+06
1.67351e+06
1.65928e+06
1.64498e+06
1.63062e+06
1.6162e+06
1.60171e+06
1.58717e+06
1.57256e+06
1.5579e+06
1.54319e+06
1.52842e+06
1.5136e+06
1.49873e+06
1.4838e+06
1.46883e+06
1.45381e+06
1.43875e+06
1.42364e+06
1.40849e+06
1.39329e+06
1.37806e+06
1.36279e+06
1.34748e+06
1.33213e+06
1.31675e+06
1.30134e+06
1.2859e+06
1.27042e+06
1.25492e+06
1.23939e+06
1.22384e+06
1.20826e+06
1.19265e+06
1.17703e+06
1.16139e+06
1.14573e+06
1.13005e+06
1.11436e+06
1.09866e+06
1.08294e+06
1.06722e+06
1.05149e+06
1.03575e+06
1.02002e+06
1.00428e+06
988536
972799
957067
941341
925624
909919
894227
878550
862892
847254
831638
816048
800486
784954
769455
753992
738567
723183
707844
692551
677309
662120
646986
631913
616902
601957
587082
572280
557554
542910
528349
513878
499499
485217
471037
456964
443003
429159
415439
401850
388400
375098
361955
348984
336204
323633
311288
2.42924e+06
2.42903e+06
2.42861e+06
2.42798e+06
2.42713e+06
2.42607e+06
2.42478e+06
2.42326e+06
2.42152e+06
2.41955e+06
2.41735e+06
2.41491e+06
2.41223e+06
2.40933e+06
2.40618e+06
2.4028e+06
2.39919e+06
2.39533e+06
2.39125e+06
2.38692e+06
2.38237e+06
2.37758e+06
2.37257e+06
2.36733e+06
2.36186e+06
2.35617e+06
2.35025e+06
2.34412e+06
2.33778e+06
2.33122e+06
2.32446e+06
2.31748e+06
2.3103e+06
2.30293e+06
2.29535e+06
2.28758e+06
2.27962e+06
2.27147e+06
2.26314e+06
2.25463e+06
2.24594e+06
2.23707e+06
2.22803e+06
2.21882e+06
2.20945e+06
2.19991e+06
2.19022e+06
2.18037e+06
2.17036e+06
2.16021e+06
2.1499e+06
2.13946e+06
2.12887e+06
2.11814e+06
2.10727e+06
2.09628e+06
2.08515e+06
2.07389e+06
2.06251e+06
2.051e+06
2.03937e+06
2.02763e+06
2.01577e+06
2.0038e+06
1.99171e+06
1.97952e+06
1.96722e+06
1.95482e+06
1.94231e+06
1.92971e+06
1.917e+06
1.9042e+06
1.89131e+06
1.87832e+06
1.86525e+06
1.85208e+06
1.83883e+06
1.82549e+06
1.81206e+06
1.79856e+06
1.78497e+06
1.77131e+06
1.75757e+06
1.74375e+06
1.72986e+06
1.7159e+06
1.70186e+06
1.68776e+06
1.67359e+06
1.65935e+06
1.64505e+06
1.63068e+06
1.61625e+06
1.60176e+06
1.58721e+06
1.57261e+06
1.55795e+06
1.54323e+06
1.52846e+06
1.51363e+06
1.49876e+06
1.48383e+06
1.46886e+06
1.45384e+06
1.43877e+06
1.42366e+06
1.40851e+06
1.39331e+06
1.37808e+06
1.3628e+06
1.34749e+06
1.33215e+06
1.31677e+06
1.30135e+06
1.28591e+06
1.27043e+06
1.25493e+06
1.2394e+06
1.22384e+06
1.20826e+06
1.19266e+06
1.17703e+06
1.16139e+06
1.14573e+06
1.13005e+06
1.11436e+06
1.09866e+06
1.08295e+06
1.06722e+06
1.05149e+06
1.03576e+06
1.02002e+06
1.00428e+06
988537
972800
957068
941342
925625
909920
894227
878551
862892
847254
831639
816049
800486
784955
769456
753992
738567
723184
707844
692552
677309
662120
646986
631913
616902
601957
587081
572279
557553
542908
528348
513876
499496
485214
471033
456958
442995
429150
415427
401835
388380
375071
361917
348932
336127
323515
311099
2.43372e+06
2.4335e+06
2.43307e+06
2.43241e+06
2.43154e+06
2.43044e+06
2.42911e+06
2.42755e+06
2.42576e+06
2.42373e+06
2.42146e+06
2.41895e+06
2.41621e+06
2.41322e+06
2.41e+06
2.40654e+06
2.40283e+06
2.39889e+06
2.39471e+06
2.3903e+06
2.38565e+06
2.38076e+06
2.37565e+06
2.37031e+06
2.36475e+06
2.35896e+06
2.35295e+06
2.34673e+06
2.34029e+06
2.33363e+06
2.32678e+06
2.31971e+06
2.31245e+06
2.30498e+06
2.29732e+06
2.28947e+06
2.28143e+06
2.2732e+06
2.2648e+06
2.25621e+06
2.24744e+06
2.23851e+06
2.2294e+06
2.22013e+06
2.2107e+06
2.2011e+06
2.19135e+06
2.18144e+06
2.17139e+06
2.16118e+06
2.15083e+06
2.14033e+06
2.1297e+06
2.11893e+06
2.10802e+06
2.09698e+06
2.08581e+06
2.07452e+06
2.0631e+06
2.05157e+06
2.03991e+06
2.02814e+06
2.01625e+06
2.00425e+06
1.99214e+06
1.97992e+06
1.9676e+06
1.95518e+06
1.94265e+06
1.93002e+06
1.9173e+06
1.90448e+06
1.89157e+06
1.87857e+06
1.86548e+06
1.8523e+06
1.83903e+06
1.82568e+06
1.81225e+06
1.79873e+06
1.78513e+06
1.77146e+06
1.75771e+06
1.74388e+06
1.72998e+06
1.71601e+06
1.70197e+06
1.68786e+06
1.67368e+06
1.65944e+06
1.64513e+06
1.63075e+06
1.61632e+06
1.60183e+06
1.58727e+06
1.57266e+06
1.558e+06
1.54328e+06
1.5285e+06
1.51367e+06
1.49879e+06
1.48387e+06
1.46889e+06
1.45387e+06
1.4388e+06
1.42368e+06
1.40853e+06
1.39333e+06
1.3781e+06
1.36282e+06
1.34751e+06
1.33216e+06
1.31678e+06
1.30136e+06
1.28592e+06
1.27044e+06
1.25494e+06
1.23941e+06
1.22385e+06
1.20827e+06
1.19267e+06
1.17704e+06
1.1614e+06
1.14574e+06
1.13006e+06
1.11437e+06
1.09866e+06
1.08295e+06
1.06723e+06
1.0515e+06
1.03576e+06
1.02002e+06
1.00428e+06
988539
972802
957069
941343
925626
909921
894228
878552
862893
847255
831639
816049
800487
784955
769456
753993
738568
723184
707844
692552
677309
662120
646986
631912
616901
601956
587081
572278
557552
542907
528346
513873
499493
485209
471027
456951
442987
429139
415413
401816
388355
375038
361873
348870
336039
323387
310908
2.43917e+06
2.43893e+06
2.43848e+06
2.4378e+06
2.43689e+06
2.43574e+06
2.43436e+06
2.43274e+06
2.43088e+06
2.42878e+06
2.42644e+06
2.42385e+06
2.42101e+06
2.41793e+06
2.41461e+06
2.41104e+06
2.40723e+06
2.40318e+06
2.39888e+06
2.39435e+06
2.38959e+06
2.38459e+06
2.37936e+06
2.3739e+06
2.36821e+06
2.36231e+06
2.35618e+06
2.34984e+06
2.34328e+06
2.33652e+06
2.32955e+06
2.32238e+06
2.315e+06
2.30744e+06
2.29967e+06
2.29172e+06
2.28359e+06
2.27527e+06
2.26677e+06
2.25809e+06
2.24924e+06
2.24023e+06
2.23104e+06
2.22169e+06
2.21218e+06
2.20252e+06
2.1927e+06
2.18272e+06
2.1726e+06
2.16234e+06
2.15193e+06
2.14137e+06
2.13069e+06
2.11986e+06
2.10891e+06
2.09782e+06
2.08661e+06
2.07527e+06
2.06382e+06
2.05224e+06
2.04054e+06
2.02874e+06
2.01681e+06
2.00478e+06
1.99264e+06
1.9804e+06
1.96805e+06
1.9556e+06
1.94305e+06
1.9304e+06
1.91765e+06
1.90482e+06
1.89188e+06
1.87886e+06
1.86575e+06
1.85256e+06
1.83927e+06
1.82591e+06
1.81246e+06
1.79893e+06
1.78532e+06
1.77164e+06
1.75788e+06
1.74404e+06
1.73013e+06
1.71615e+06
1.7021e+06
1.68798e+06
1.67379e+06
1.65954e+06
1.64522e+06
1.63084e+06
1.6164e+06
1.6019e+06
1.58735e+06
1.57273e+06
1.55806e+06
1.54333e+06
1.52855e+06
1.51372e+06
1.49884e+06
1.48391e+06
1.46893e+06
1.4539e+06
1.43883e+06
1.42371e+06
1.40856e+06
1.39336e+06
1.37812e+06
1.36284e+06
1.34753e+06
1.33218e+06
1.3168e+06
1.30138e+06
1.28593e+06
1.27045e+06
1.25495e+06
1.23942e+06
1.22386e+06
1.20828e+06
1.19267e+06
1.17705e+06
1.1614e+06
1.14574e+06
1.13006e+06
1.11437e+06
1.09867e+06
1.08295e+06
1.06723e+06
1.0515e+06
1.03576e+06
1.02002e+06
1.00428e+06
988541
972803
957071
941345
925628
909922
894229
878553
862894
847256
831640
816050
800488
784956
769457
753993
738568
723184
707845
692552
677309
662120
646986
631912
616901
601956
587080
572277
557551
542905
528343
513870
499489
485205
471021
456944
442977
429126
415396
401794
388327
375000
361823
348802
335945
323254
310720
2.44561e+06
2.44536e+06
2.44488e+06
2.44416e+06
2.44321e+06
2.44201e+06
2.44057e+06
2.43888e+06
2.43694e+06
2.43475e+06
2.4323e+06
2.42961e+06
2.42666e+06
2.42347e+06
2.42002e+06
2.41633e+06
2.41239e+06
2.4082e+06
2.40377e+06
2.3991e+06
2.39419e+06
2.38905e+06
2.38368e+06
2.37808e+06
2.37225e+06
2.36621e+06
2.35994e+06
2.35346e+06
2.34677e+06
2.33987e+06
2.33277e+06
2.32547e+06
2.31797e+06
2.31028e+06
2.3024e+06
2.29434e+06
2.28609e+06
2.27766e+06
2.26905e+06
2.26027e+06
2.25133e+06
2.24221e+06
2.23293e+06
2.2235e+06
2.2139e+06
2.20415e+06
2.19425e+06
2.18421e+06
2.17401e+06
2.16367e+06
2.1532e+06
2.14258e+06
2.13183e+06
2.12095e+06
2.10993e+06
2.09879e+06
2.08753e+06
2.07614e+06
2.06464e+06
2.05302e+06
2.04128e+06
2.02943e+06
2.01747e+06
2.0054e+06
1.99323e+06
1.98095e+06
1.96857e+06
1.95609e+06
1.94351e+06
1.93083e+06
1.91806e+06
1.9052e+06
1.89224e+06
1.8792e+06
1.86607e+06
1.85286e+06
1.83956e+06
1.82617e+06
1.81271e+06
1.79916e+06
1.78554e+06
1.77184e+06
1.75807e+06
1.74422e+06
1.7303e+06
1.7163e+06
1.70224e+06
1.68811e+06
1.67392e+06
1.65966e+06
1.64533e+06
1.63095e+06
1.6165e+06
1.60199e+06
1.58743e+06
1.57281e+06
1.55813e+06
1.5434e+06
1.52861e+06
1.51378e+06
1.49889e+06
1.48396e+06
1.46897e+06
1.45394e+06
1.43887e+06
1.42375e+06
1.40859e+06
1.39339e+06
1.37814e+06
1.36287e+06
1.34755e+06
1.3322e+06
1.31681e+06
1.3014e+06
1.28595e+06
1.27047e+06
1.25496e+06
1.23943e+06
1.22387e+06
1.20829e+06
1.19268e+06
1.17706e+06
1.16141e+06
1.14575e+06
1.13007e+06
1.11438e+06
1.09867e+06
1.08296e+06
1.06723e+06
1.0515e+06
1.03576e+06
1.02003e+06
1.00428e+06
988543
972805
957072
941346
925629
909923
894231
878554
862895
847257
831641
816051
800488
784956
769457
753994
738569
723185
707845
692552
677309
662120
646986
631912
616900
601955
587079
572276
557549
542903
528341
513867
499485
485199
471014
456935
442965
429111
415377
401770
388295
374959
361768
348729
335845
323118
310538
2.45309e+06
2.45282e+06
2.45231e+06
2.45155e+06
2.45054e+06
2.44928e+06
2.44776e+06
2.44598e+06
2.44394e+06
2.44164e+06
2.43908e+06
2.43627e+06
2.43319e+06
2.42985e+06
2.42626e+06
2.42241e+06
2.41832e+06
2.41397e+06
2.40938e+06
2.40454e+06
2.39947e+06
2.39416e+06
2.38862e+06
2.38286e+06
2.37687e+06
2.37065e+06
2.36423e+06
2.35759e+06
2.35074e+06
2.34369e+06
2.33644e+06
2.32899e+06
2.32135e+06
2.31351e+06
2.3055e+06
2.2973e+06
2.28892e+06
2.28036e+06
2.27164e+06
2.26274e+06
2.25368e+06
2.24446e+06
2.23508e+06
2.22554e+06
2.21585e+06
2.20601e+06
2.19602e+06
2.18588e+06
2.1756e+06
2.16519e+06
2.15463e+06
2.14394e+06
2.13312e+06
2.12217e+06
2.11109e+06
2.09989e+06
2.08857e+06
2.07713e+06
2.06557e+06
2.05389e+06
2.04211e+06
2.03021e+06
2.01821e+06
2.0061e+06
1.99388e+06
1.98157e+06
1.96915e+06
1.95664e+06
1.94402e+06
1.93132e+06
1.91852e+06
1.90563e+06
1.89265e+06
1.87958e+06
1.86643e+06
1.85319e+06
1.83987e+06
1.82647e+06
1.81299e+06
1.79943e+06
1.78579e+06
1.77207e+06
1.75828e+06
1.74442e+06
1.73049e+06
1.71648e+06
1.70241e+06
1.68827e+06
1.67406e+06
1.65979e+06
1.64546e+06
1.63106e+06
1.61661e+06
1.60209e+06
1.58752e+06
1.57289e+06
1.55821e+06
1.54347e+06
1.52868e+06
1.51384e+06
1.49895e+06
1.48401e+06
1.46902e+06
1.45399e+06
1.43891e+06
1.42379e+06
1.40862e+06
1.39342e+06
1.37817e+06
1.36289e+06
1.34758e+06
1.33222e+06
1.31683e+06
1.30142e+06
1.28596e+06
1.27048e+06
1.25498e+06
1.23944e+06
1.22388e+06
1.2083e+06
1.19269e+06
1.17706e+06
1.16142e+06
1.14576e+06
1.13008e+06
1.11438e+06
1.09868e+06
1.08296e+06
1.06724e+06
1.05151e+06
1.03577e+06
1.02003e+06
1.00429e+06
988546
972808
957075
941348
925631
909925
894232
878555
862896
847258
831642
816052
800489
784957
769458
753994
738569
723185
707845
692552
677310
662120
646986
631912
616900
601954
587078
572275
557548
542901
528338
513863
499480
485193
471006
456925
442953
429095
415357
401744
388261
374915
361710
348652
335744
322984
310362
2.46167e+06
2.46138e+06
2.46083e+06
2.46002e+06
2.45895e+06
2.4576e+06
2.45599e+06
2.4541e+06
2.45195e+06
2.44952e+06
2.44682e+06
2.44384e+06
2.44061e+06
2.4371e+06
2.43334e+06
2.42931e+06
2.42503e+06
2.4205e+06
2.41571e+06
2.41069e+06
2.40542e+06
2.39992e+06
2.39419e+06
2.38823e+06
2.38205e+06
2.37565e+06
2.36903e+06
2.36221e+06
2.35518e+06
2.34796e+06
2.34053e+06
2.33292e+06
2.32511e+06
2.31712e+06
2.30895e+06
2.3006e+06
2.29207e+06
2.28338e+06
2.27452e+06
2.26549e+06
2.2563e+06
2.24696e+06
2.23746e+06
2.22781e+06
2.21801e+06
2.20807e+06
2.19798e+06
2.18774e+06
2.17738e+06
2.16687e+06
2.15623e+06
2.14546e+06
2.13456e+06
2.12353e+06
2.11238e+06
2.10111e+06
2.08972e+06
2.07822e+06
2.0666e+06
2.05487e+06
2.04303e+06
2.03108e+06
2.01903e+06
2.00687e+06
1.99461e+06
1.98226e+06
1.9698e+06
1.95725e+06
1.9446e+06
1.93186e+06
1.91903e+06
1.90611e+06
1.8931e+06
1.88001e+06
1.86683e+06
1.85357e+06
1.84023e+06
1.8268e+06
1.8133e+06
1.79972e+06
1.78606e+06
1.77233e+06
1.75853e+06
1.74465e+06
1.7307e+06
1.71668e+06
1.70259e+06
1.68844e+06
1.67422e+06
1.65994e+06
1.6456e+06
1.63119e+06
1.61673e+06
1.60221e+06
1.58763e+06
1.57299e+06
1.5583e+06
1.54356e+06
1.52876e+06
1.51391e+06
1.49902e+06
1.48407e+06
1.46908e+06
1.45404e+06
1.43895e+06
1.42383e+06
1.40866e+06
1.39345e+06
1.37821e+06
1.36292e+06
1.3476e+06
1.33225e+06
1.31686e+06
1.30144e+06
1.28598e+06
1.2705e+06
1.25499e+06
1.23946e+06
1.22389e+06
1.20831e+06
1.1927e+06
1.17708e+06
1.16143e+06
1.14576e+06
1.13008e+06
1.11439e+06
1.09868e+06
1.08297e+06
1.06724e+06
1.05151e+06
1.03577e+06
1.02003e+06
1.00429e+06
988549
972810
957077
941350
925633
909927
894234
878557
862898
847259
831643
816053
800490
784958
769459
753995
738570
723186
707846
692553
677310
662120
646986
631912
616900
601954
587077
572273
557546
542898
528335
513859
499475
485187
470998
456914
442939
429078
415335
401716
388225
374869
361650
348574
335642
322851
310193
2.47142e+06
2.4711e+06
2.47051e+06
2.46964e+06
2.46848e+06
2.46704e+06
2.46531e+06
2.46329e+06
2.46099e+06
2.4584e+06
2.45553e+06
2.45238e+06
2.44895e+06
2.44525e+06
2.44128e+06
2.43704e+06
2.43254e+06
2.42779e+06
2.42278e+06
2.41753e+06
2.41204e+06
2.40632e+06
2.40036e+06
2.39418e+06
2.38778e+06
2.38117e+06
2.37435e+06
2.36732e+06
2.36009e+06
2.35267e+06
2.34505e+06
2.33724e+06
2.32926e+06
2.32109e+06
2.31274e+06
2.30423e+06
2.29554e+06
2.28669e+06
2.27768e+06
2.26851e+06
2.25918e+06
2.24971e+06
2.24008e+06
2.2303e+06
2.22038e+06
2.21032e+06
2.20012e+06
2.18979e+06
2.17932e+06
2.16871e+06
2.15798e+06
2.14712e+06
2.13613e+06
2.12502e+06
2.11379e+06
2.10245e+06
2.09099e+06
2.07941e+06
2.06773e+06
2.05594e+06
2.04404e+06
2.03203e+06
2.01993e+06
2.00772e+06
1.99541e+06
1.98301e+06
1.97051e+06
1.95792e+06
1.94523e+06
1.93245e+06
1.91959e+06
1.90663e+06
1.89359e+06
1.88047e+06
1.86727e+06
1.85398e+06
1.84061e+06
1.82717e+06
1.81364e+06
1.80004e+06
1.78636e+06
1.77261e+06
1.75879e+06
1.7449e+06
1.73093e+06
1.7169e+06
1.70279e+06
1.68863e+06
1.6744e+06
1.6601e+06
1.64575e+06
1.63133e+06
1.61686e+06
1.60233e+06
1.58774e+06
1.5731e+06
1.5584e+06
1.54365e+06
1.52884e+06
1.51399e+06
1.49909e+06
1.48414e+06
1.46914e+06
1.45409e+06
1.43901e+06
1.42388e+06
1.4087e+06
1.39349e+06
1.37824e+06
1.36296e+06
1.34763e+06
1.33228e+06
1.31688e+06
1.30146e+06
1.28601e+06
1.27052e+06
1.25501e+06
1.23947e+06
1.22391e+06
1.20832e+06
1.19271e+06
1.17709e+06
1.16144e+06
1.14577e+06
1.13009e+06
1.1144e+06
1.09869e+06
1.08297e+06
1.06725e+06
1.05151e+06
1.03578e+06
1.02004e+06
1.00429e+06
988552
972813
957080
941353
925635
909929
894236
878558
862899
847261
831645
816054
800491
784959
769460
753996
738570
723186
707846
692553
677310
662120
646986
631911
616899
601953
587076
572272
557544
542896
528332
513855
499470
485180
470990
456903
442925
429060
415312
401687
388188
374821
361589
348495
335541
322723
310033
2.48242e+06
2.48207e+06
2.48143e+06
2.48048e+06
2.47922e+06
2.47766e+06
2.47579e+06
2.47362e+06
2.47114e+06
2.46836e+06
2.46528e+06
2.46191e+06
2.45826e+06
2.45432e+06
2.4501e+06
2.44561e+06
2.44086e+06
2.43585e+06
2.43059e+06
2.42508e+06
2.41933e+06
2.41335e+06
2.40715e+06
2.40072e+06
2.39407e+06
2.38722e+06
2.38016e+06
2.3729e+06
2.36545e+06
2.3578e+06
2.34997e+06
2.34196e+06
2.33377e+06
2.32541e+06
2.31687e+06
2.30817e+06
2.29931e+06
2.29029e+06
2.28112e+06
2.27179e+06
2.26231e+06
2.25268e+06
2.24291e+06
2.233e+06
2.22295e+06
2.21277e+06
2.20245e+06
2.192e+06
2.18142e+06
2.17071e+06
2.15987e+06
2.14892e+06
2.13784e+06
2.12664e+06
2.11532e+06
2.10389e+06
2.09235e+06
2.08071e+06
2.06895e+06
2.05709e+06
2.04513e+06
2.03306e+06
2.0209e+06
2.00864e+06
1.99628e+06
1.98383e+06
1.97128e+06
1.95864e+06
1.94591e+06
1.93309e+06
1.92019e+06
1.9072e+06
1.89413e+06
1.88097e+06
1.86774e+06
1.85442e+06
1.84103e+06
1.82756e+06
1.81401e+06
1.80039e+06
1.78669e+06
1.77292e+06
1.75908e+06
1.74516e+06
1.73118e+06
1.71713e+06
1.70301e+06
1.68883e+06
1.67459e+06
1.66028e+06
1.64591e+06
1.63148e+06
1.617e+06
1.60246e+06
1.58786e+06
1.57321e+06
1.5585e+06
1.54375e+06
1.52894e+06
1.51408e+06
1.49917e+06
1.48421e+06
1.4692e+06
1.45415e+06
1.43906e+06
1.42393e+06
1.40875e+06
1.39354e+06
1.37828e+06
1.36299e+06
1.34767e+06
1.33231e+06
1.31691e+06
1.30149e+06
1.28603e+06
1.27054e+06
1.25503e+06
1.23949e+06
1.22393e+06
1.20834e+06
1.19273e+06
1.1771e+06
1.16145e+06
1.14578e+06
1.1301e+06
1.11441e+06
1.0987e+06
1.08298e+06
1.06725e+06
1.05152e+06
1.03578e+06
1.02004e+06
1.0043e+06
988555
972816
957082
941355
925637
909931
894238
878560
862901
847262
831646
816055
800493
784960
769460
753997
738571
723187
707847
692554
677310
662120
646986
631911
616899
601952
587075
572270
557542
542893
528328
513851
499464
485173
470981
456892
442911
429042
415289