/*--------------------------------*- C++ -*----------------------------------*\
  =========                 |
  \\      /  F ield         | OpenFOAM: The Open Source CFD Toolbox
   \\    /   O peration     | Website:  https://openfoam.org
    \\  /    A nd           | Version:  7
     \\/     M anipulation  |
\*---------------------------------------------------------------------------*/
FoamFile
{
    version     2.0;
    format      ascii;
    class       volScalarField;
    location    "0.097";
    object      s_0;
}
// * * * * * * * * * * * * * * * * * * * * * * * * * * * * * * * * * * * * * //

dimensions      [0 0 0 0 0 0 0];

internalField   nonuniform List<scalar> 
12225
(
1
1
1
1
1
1
1
1
1
1
1
1
1
1
1
1
1
1
1
1
1
1
1
1
1
1
1
1
1
1
1
1
1
1
1
1
1
1
1
1
1
1
1
1
1
1
1
1
1
1
1
1
1
1
1
1
1
1
1
1
1
1
1
1
1
1
1
1
1
1
1
1
1
1
1
1
1
1
1
1
1
1
1
1
1
1
1
1
1
1
1
1
1
1
1
1
1
1
1
1
1
1
1
1
1
1
1
1
1
1
1
1
1
1
1
1
1
1
1
1
1
1
1
1
1
1
1
1
1
1
1
1
1
1
1
1
1
1
1
1
1
1
1
1
1
1
1
1
1
1
1
1
1
1
1
1
1
1
1
1
1
1
1
1
1
1
1
1
1
1
1
1
1
1
1
1
1
1
1
1
1
1
1
1
1
1
1
1
1
1
1
1
1
1
1
1
1
1
1
1
1
1
1
1
1
1
1
1
1
1
1
1
1
1
1
1
1
1
1
1
1
1
1
1
1
1
1
1
1
1
1
1
1
1
1
1
1
1
1
1
1
1
1
1
1
1
1
1
1
1
1
1
1
1
1
1
1
1
1
1
1
1
1
1
1
1
1
1
1
1
1
1
1
1
1
1
1
1
1
1
1
1
1
1
1
1
1
1
1
1
1
1
1
1
1
1
1
1
1
1
1
1
1
1
1
1
1
1
1
1
1
1
1
1
1
1
1
1
1
1
1
1
1
1
1
1
1
1
1
1
1
1
1
1
1
1
1
1
1
1
1
1
1
1
1
1
1
1
1
1
1
1
1
1
1
1
1
1
1
1
1
1
1
1
1
1
1
1
1
1
1
1
1
1
1
1
1
1
1
1
1
1
1
1
1
1
1
1
1
1
1
1
1
1
1
1
1
1
1
1
1
1
1
1
1
1
1
1
1
1
1
1
1
1
1
1
1
1
1
1
1
1
1
1
1
1
1
1
1
1
1
1
1
1
1
1
1
1
1
1
1
1
1
1
1
1
1
1
1
1
1
1
1
1
1
1
1
1
1
1
1
1
1
1
1
1
1
1
1
1
1
1
1
1
1
1
1
1
1
1
1
1
1
1
1
1
1
1
1
1
1
1
1
1
1
1
1
1
1
1
1
1
1
1
1
1
1
1
1
1
1
1
1
1
1
1
1
1
1
1
1
1
1
1
1
1
1
1
1
1
1
1
1
1
1
1
1
1
1
1
0.156018
0.189275
0.294161
0.358141
0.375249
0.368848
0.349995
0.300336
0.237893
0.212391
0.214221
0.269666
0.340133
0.376844
0.40161
0.413471
0.418508
0.420835
0.421429
0.421235
0.419502
0.414302
0.400724
0.365609
0.295884
0.266215
0.263291
0.267223
0.279132
0.294778
0.323185
0.379128
0.449197
0.515276
0.566323
0.598257
0.619703
0.641522
0.667309
0.691965
0.71016
0.724232
0.740041
0.753694
0.764806
0.771156
0.780392
0.789256
0.797131
0.808239
0.814564
0.816031
0.81447
0.807777
0.794225
0.774091
0.74863
0.735965
0.720374
0.704921
0.693926
0.687057
0.682636
0.676374
0.659481
0.585198
0.394035
0.322848
0.344355
0.376756
0.36284
0.311015
0.324968
0.375734
0.376742
0.354867
0.357312
0.398102
0.411972
0.410351
0.410867
0.421705
0.476734
0.634299
0.775096
0.851995
0.878994
0.884626
0.885093
0.885008
0.884631
0.883885
0.882908
0.881918
0.88095
0.879909
0.878788
0.87757
0.87606
0.874153
0.872076
0.869996
0.867688
0.865895
0.864165
0.862632
0.861306
0.859926
0.858888
0.857808
0.856926
0.856028
0.855472
0.855252
0.855223
0.855984
0.857232
0.859089
0.86171
0.86509
0.869264
0.874149
0.878786
0.883261
0.887238
0.890389
0.893182
0.895737
0.898039
0.900068
0.901795
0.903168
0.904176
0.904795
0.904991
0.904748
0.902977
0.898978
0.895704
0.893326
0.890906
0.886363
0.874841
0.852594
0.834596
0.823236
0.81037
0.784043
0.717408
0.548306
0.345289
0.181048
0.0789078
0.0290791
0.00931122
0.00266595
0.000703028
0.000187219
8.39182e-05
4.39172e-05
2.2378e-05
1.13305e-05
5.76271e-06
2.97163e-06
1.56218e-06
8.37676e-07
4.56284e-07
2.50654e-07
1.37709e-07
7.5089e-08
4.03723e-08
2.13045e-08
1.09887e-08
5.52696e-09
2.70055e-09
1.27901e-09
5.85584e-10
2.53113e-10
1.15101e-10
-7.45452e-12
0.171796
0.336679
0.521563
0.542434
0.537818
0.522641
0.494333
0.484795
0.470743
0.443638
0.385447
0.305959
0.301774
0.313437
0.374993
0.414626
0.428764
0.436064
0.437372
0.435495
0.422332
0.395131
0.365249
0.335228
0.31171
0.309904
0.341324
0.383943
0.418369
0.505773
0.639466
0.723779
0.788285
0.864275
0.896516
0.917253
0.944299
0.962609
0.97147
0.978642
0.98196
0.983199
0.983173
0.981858
0.978981
0.975126
0.970345
0.964321
0.956574
0.945987
0.931836
0.913108
0.888709
0.857144
0.818135
0.774728
0.737437
0.71662
0.703362
0.690983
0.684486
0.68241
0.684031
0.694729
0.72203
0.721413
0.663587
0.467415
0.384159
0.370207
0.358142
0.343543
0.358774
0.39119
0.333469
0.284935
0.316824
0.459711
0.502489
0.49787
0.492276
0.49682
0.536839
0.721664
0.855877
0.879081
0.881953
0.882294
0.879241
0.87413
0.866127
0.854832
0.840479
0.823628
0.810781
0.79961
0.789287
0.783116
0.776429
0.772731
0.770608
0.76965
0.769358
0.769314
0.769565
0.770262
0.771222
0.77234
0.773241
0.774337
0.775479
0.776648
0.777391
0.778468
0.779468
0.780298
0.781148
0.781622
0.782016
0.78209
0.782053
0.783231
0.785917
0.790266
0.7963
0.804224
0.813773
0.8243
0.835697
0.847906
0.860506
0.872859
0.884555
0.894963
0.903393
0.910515
0.916749
0.921892
0.926015
0.929421
0.932198
0.935087
0.936856
0.936873
0.936043
0.933173
0.924537
0.915127
0.899999
0.863451
0.807807
0.751401
0.683301
0.600898
0.531232
0.501124
0.498854
0.502855
0.504624
0.494741
0.4378
0.332192
0.247851
0.181169
0.128716
0.0885319
0.058809
0.0377031
0.0233116
0.0139183
0.00801877
0.00447143
0.00240607
0.00125676
0.000631496
0.000308511
0.000145119
6.24241e-05
3.55033e-05
-2.75248e-05
0.218968
0.529581
0.569408
0.568368
0.555607
0.52889
0.496607
0.457409
0.447679
0.445985
0.442092
0.425099
0.384417
0.327848
0.328236
0.365695
0.420236
0.441637
0.446479
0.433233
0.397047
0.378709
0.369351
0.363634
0.383151
0.493478
0.634341
0.690649
0.748608
0.852144
0.909335
0.93713
0.965445
0.98063
0.987014
0.990796
0.993424
0.994357
0.994578
0.994488
0.993597
0.992688
0.992087
0.991195
0.990134
0.988548
0.985842
0.981409
0.974423
0.965322
0.95319
0.935835
0.912433
0.880844
0.840544
0.79331
0.747849
0.718549
0.699961
0.68181
0.664546
0.651818
0.644898
0.644433
0.654354
0.688402
0.690863
0.656591
0.508096
0.410725
0.364006
0.347058
0.364806
0.376969
0.292173
0.269021
0.324886
0.620996
0.690419
0.643479
0.604519
0.652434
0.789309
0.862325
0.876533
0.87852
0.87613
0.867181
0.84945
0.819148
0.789042
0.763754
0.749932
0.743194
0.74008
0.738782
0.738475
0.73977
0.742658
0.745721
0.750295
0.754152
0.758195
0.761615
0.764853
0.767775
0.770509
0.773642
0.7761
0.778908
0.781287
0.784018
0.786347
0.788411
0.79074
0.792638
0.794063
0.794846
0.794319
0.791065
0.784188
0.777187
0.770988
0.766551
0.762734
0.759865
0.758294
0.757985
0.758675
0.760568
0.763942
0.769706
0.77837
0.790703
0.807575
0.82847
0.851869
0.874644
0.89318
0.907049
0.917391
0.924586
0.929785
0.93488
0.939931
0.943135
0.943934
0.943665
0.941671
0.933066
0.910236
0.890516
0.87295
0.858557
0.85346
0.854062
0.858502
0.872007
0.88346
0.887649
0.887402
0.880497
0.858887
0.843839
0.828878
0.797355
0.712252
0.570526
0.433489
0.318571
0.228075
0.159704
0.108368
0.071869
0.0457381
0.0284805
0.0168268
0.00964415
0.00543986
0.002358
0.4966
0.578176
0.585686
0.575608
0.54367
0.471769
0.422413
0.383193
0.364121
0.368732
0.387744
0.415039
0.412995
0.390432
0.340706
0.342531
0.370238
0.429761
0.446871
0.418689
0.386887
0.384552
0.39413
0.442778
0.588171
0.776556
0.841019
0.875025
0.920631
0.963471
0.979609
0.987726
0.992592
0.99433
0.994842
0.994952
0.994764
0.994177
0.993809
0.993106
0.99253
0.992243
0.992054
0.992
0.992035
0.992338
0.99248
0.99254
0.992503
0.992539
0.991526
0.989508
0.986055
0.979883
0.969264
0.951706
0.923774
0.882248
0.839046
0.791829
0.739196
0.696886
0.665697
0.649072
0.646983
0.659563
0.68013
0.677452
0.636109
0.5019
0.397554
0.349942
0.344983
0.325789
0.265942
0.26394
0.32946
0.670389
0.816446
0.800754
0.797462
0.832211
0.862823
0.872427
0.874036
0.867963
0.850129
0.811887
0.772388
0.749361
0.738801
0.734987
0.734924
0.739652
0.742108
0.748458
0.758769
0.767749
0.773677
0.779173
0.782695
0.784658
0.787526
0.78906
0.791603
0.79375
0.795746
0.797181
0.799174
0.800594
0.801697
0.802723
0.804381
0.805613
0.80828
0.811335
0.815725
0.820805
0.826736
0.834231
0.839439
0.840831
0.837363
0.828018
0.816055
0.8024
0.788368
0.777019
0.768258
0.761707
0.75732
0.754696
0.753636
0.753732
0.75515
0.758412
0.764909
0.779448
0.805213
0.837252
0.867983
0.893196
0.912659
0.925802
0.932122
0.934759
0.93946
0.946735
0.950927
0.951398
0.950115
0.9437
0.92221
0.904292
0.898547
0.898156
0.899351
0.90525
0.923669
0.943402
0.956497
0.963339
0.965904
0.966425
0.966106
0.963147
0.951309
0.938931
0.926976
0.903246
0.843067
0.690661
0.515737
0.369791
0.255173
0.172034
0.111254
0.0692948
0.0427668
0.0218465
0.60399
0.605536
0.596924
0.562082
0.48314
0.417179
0.375839
0.349108
0.327617
0.325656
0.331674
0.365505
0.405167
0.408518
0.385566
0.347703
0.354199
0.40614
0.446139
0.407098
0.388929
0.402835
0.461929
0.623678
0.831225
0.905577
0.937263
0.955757
0.978017
0.988172
0.991518
0.992757
0.993125
0.993102
0.991674
0.989806
0.987808
0.985239
0.983226
0.981329
0.980283
0.979809
0.979745
0.981066
0.982353
0.985116
0.987514
0.990289
0.991863
0.99386
0.994922
0.995615
0.996067
0.996223
0.995546
0.993694
0.989895
0.982983
0.971212
0.951027
0.913816
0.846297
0.764466
0.700332
0.663855
0.655307
0.664528
0.674166
0.66707
0.624162
0.487226
0.380679
0.351395
0.307204
0.266706
0.263949
0.301625
0.656205
0.844123
0.847911
0.85339
0.863445
0.867808
0.868565
0.85837
0.828814
0.782315
0.749425
0.734211
0.729117
0.729635
0.73568
0.742407
0.758129
0.768067
0.776641
0.780187
0.781475
0.78182
0.781659
0.780137
0.778155
0.777183
0.776544
0.776241
0.776882
0.778158
0.778907
0.780057
0.780749
0.780944
0.780958
0.781122
0.781812
0.785462
0.791822
0.801224
0.812914
0.824552
0.836687
0.850118
0.860673
0.868889
0.874397
0.87659
0.876143
0.871745
0.860022
0.845058
0.828195
0.811387
0.796436
0.783419
0.772769
0.76492
0.760067
0.757999
0.757845
0.759629
0.767043
0.786529
0.815147
0.848572
0.882761
0.910899
0.92912
0.938762
0.942508
0.944855
0.950213
0.954419
0.95486
0.953408
0.946051
0.925278
0.911431
0.907201
0.907306
0.910284
0.923134
0.942878
0.958197
0.970639
0.979765
0.985125
0.98727
0.987626
0.987522
0.986898
0.985026
0.980354
0.969634
0.945097
0.879655
0.705759
0.512237
0.355336
0.234051
0.155164
0.0870066
0.617459
0.615811
0.600121
0.549079
0.457388
0.39566
0.358975
0.333781
0.314299
0.307515
0.309349
0.323238
0.371225
0.40812
0.403781
0.365126
0.355194
0.405732
0.438052
0.39746
0.398479
0.451934
0.609632
0.841864
0.928145
0.960748
0.975091
0.982936
0.988321
0.990082
0.990505
0.989766
0.986733
0.982213
0.975486
0.968011
0.959874
0.952685
0.947659
0.943024
0.940768
0.939729
0.939596
0.942399
0.945715
0.951809
0.958547
0.966693
0.974592
0.981396
0.987216
0.991586
0.994985
0.996689
0.997543
0.99796
0.998161
0.997741
0.996393
0.993227
0.9863
0.970702
0.934453
0.849714
0.745417
0.686853
0.665863
0.66738
0.669416
0.661145
0.621769
0.490472
0.394126
0.326375
0.279503
0.271101
0.28674
0.457228
0.836782
0.858006
0.861634
0.863878
0.863069
0.850308
0.812061
0.765285
0.73837
0.726024
0.722355
0.727651
0.733762
0.750014
0.76365
0.769487
0.77172
0.772594
0.769797
0.760345
0.755304
0.751287
0.748485
0.747343
0.745251
0.742744
0.739898
0.736768
0.733674
0.731002
0.728795
0.727348
0.726633
0.726577
0.726998
0.727965
0.731715
0.741133
0.758909
0.78472
0.809904
0.83514
0.853962
0.869089
0.88158
0.891579
0.898644
0.903444
0.906236
0.906801
0.906028
0.902311
0.89298
0.87917
0.862452
0.843843
0.824624
0.806006
0.789399
0.776457
0.768701
0.766286
0.767016
0.7746
0.798539
0.825156
0.857647
0.893425
0.921641
0.938338
0.946443
0.949422
0.952851
0.957325
0.958965
0.958602
0.955371
0.941008
0.921704
0.912585
0.910446
0.910781
0.914282
0.929569
0.952554
0.968739
0.979504
0.986698
0.991404
0.99405
0.995146
0.995356
0.995266
0.994694
0.992676
0.986617
0.969635
0.922105
0.78133
0.56057
0.399837
0.241582
0.632116
0.633118
0.615518
0.546112
0.441681
0.387651
0.353551
0.326754
0.304632
0.297427
0.298368
0.308601
0.356989
0.409903
0.411869
0.384142
0.364806
0.414092
0.421689
0.400502
0.427977
0.557739
0.821572
0.929664
0.966531
0.979136
0.983868
0.985947
0.98684
0.98587
0.980512
0.971308
0.956083
0.94271
0.928794
0.92102
0.91414
0.910792
0.908091
0.906976
0.906622
0.907033
0.90767
0.908602
0.909734
0.911879
0.914966
0.920471
0.929923
0.94252
0.957595
0.972291
0.982603
0.990681
0.99518
0.997416
0.998502
0.99901
0.999208
0.999125
0.99838
0.996083
0.989554
0.97089
0.916775
0.807362
0.726702
0.683558
0.670398
0.667348
0.659574
0.628241
0.540198
0.40491
0.321754
0.291673
0.294983
0.362112
0.748049
0.85666
0.860703
0.859099
0.844077
0.802695
0.758909
0.731999
0.719731
0.716095
0.722261
0.732358
0.752237
0.763007
0.766143
0.766762
0.761659
0.751378
0.7473
0.746017
0.745981
0.747804
0.749247
0.749902
0.749346
0.746683
0.741933
0.736521
0.730162
0.724212
0.718999
0.714662
0.711641
0.709831
0.709086
0.709017
0.710233
0.715289
0.728914
0.7618
0.802337
0.835277
0.865108
0.888121
0.907007
0.921522
0.930531
0.936188
0.939821
0.939793
0.93868
0.936856
0.935124
0.932621
0.927483
0.916207
0.900354
0.880311
0.857042
0.83203
0.808252
0.789696
0.779769
0.777709
0.779413
0.792132
0.822506
0.852177
0.886418
0.918332
0.939381
0.94994
0.954004
0.956782
0.960897
0.963282
0.963368
0.961831
0.953834
0.932577
0.919623
0.915631
0.915643
0.917789
0.92759
0.949133
0.966781
0.97926
0.987357
0.992392
0.995474
0.997218
0.99798
0.998146
0.998089
0.997654
0.995936
0.990228
0.972653
0.917189
0.776821
0.525073
0.638853
0.650775
0.635332
0.54494
0.433092
0.38732
0.359835
0.332739
0.304455
0.296293
0.297953
0.310947
0.365513
0.418748
0.430466
0.408918
0.3977
0.417384
0.412771
0.413819
0.49638
0.74735
0.914886
0.964089
0.978232
0.98194
0.982941
0.982358
0.977118
0.96572
0.944744
0.92814
0.916868
0.907958
0.903466
0.900871
0.899726
0.899409
0.899485
0.900412
0.900867
0.901883
0.902286
0.902738
0.902954
0.903151
0.903191
0.903182
0.903891
0.906824
0.913296
0.927032
0.948591
0.970584
0.984517
0.992221
0.996313
0.998343
0.999238
0.999569
0.999687
0.999562
0.998764
0.995611
0.983945
0.944745
0.865862
0.787821
0.711871
0.676273
0.667552
0.660602
0.639246
0.583993
0.444355
0.347131
0.328395
0.348037
0.602564
0.839563
0.857647
0.844002
0.804249
0.759267
0.728751
0.714809
0.710817
0.714367
0.725342
0.748049
0.760042
0.762665
0.762716
0.752907
0.747526
0.746637
0.75077
0.756927
0.765315
0.770372
0.772346
0.772907
0.773022
0.772591
0.770139
0.765947
0.758619
0.747638
0.734252
0.720445
0.711586
0.707444
0.704358
0.703028
0.702625
0.705276
0.716157
0.74873
0.797545
0.841839
0.880242
0.911638
0.935433
0.952595
0.964266
0.971963
0.977123
0.980091
0.981171
0.981121
0.979894
0.977176
0.974843
0.971814
0.966458
0.955931
0.937
0.908609
0.873484
0.838284
0.809309
0.791908
0.78673
0.787399
0.795029
0.824239
0.856872
0.889021
0.920246
0.942706
0.954451
0.959104
0.96138
0.964858
0.96772
0.968244
0.967532
0.963347
0.947349
0.931524
0.925856
0.925585
0.927623
0.936272
0.954547
0.969736
0.980913
0.98859
0.993454
0.996322
0.997947
0.99879
0.9991
0.999129
0.999023
0.998432
0.996185
0.988431
0.964866
0.868892
0.641585
0.660997
0.646295
0.542234
0.431188
0.396462
0.377333
0.351585
0.314713
0.301896
0.305955
0.330828
0.403018
0.443605
0.450445
0.427277
0.416122
0.416892
0.416128
0.450302
0.625518
0.874679
0.954035
0.974553
0.979156
0.980176
0.976963
0.96696
0.944105
0.926318
0.911923
0.904708
0.900024
0.897953
0.897267
0.897155
0.89774
0.898235
0.898943
0.899659
0.900231
0.900892
0.901512
0.901843
0.902275
0.902416
0.902425
0.901706
0.900722
0.900264
0.900077
0.90265
0.910469
0.92844
0.958176
0.97978
0.990056
0.995425
0.998098
0.999287
0.999721
0.999843
0.999853
0.999504
0.997368
0.985884
0.942922
0.887243
0.835986
0.752708
0.685471
0.666862
0.660639
0.645904
0.604129
0.492611
0.38924
0.374576
0.485762
0.798219
0.849519
0.819853
0.772298
0.732249
0.711779
0.705671
0.705043
0.715497
0.735472
0.755404
0.759861
0.760168
0.751135
0.745166
0.744845
0.751479
0.761242
0.766465
0.768812
0.77
0.770583
0.771837
0.772406
0.773097
0.773191
0.77155
0.767611
0.760661
0.749945
0.733944
0.716027
0.706975
0.702066
0.699341
0.69813
0.699416
0.709912
0.742779
0.796056
0.84742
0.888467
0.921689
0.945522
0.962488
0.974355
0.982412
0.987656
0.991017
0.993238
0.994555
0.99501
0.99501
0.994788
0.994094
0.993106
0.991651
0.988782
0.982466
0.966366
0.92701
0.877244
0.833499
0.8059
0.795469
0.79519
0.799898
0.824624
0.866068
0.89931
0.927913
0.948406
0.959656
0.964264
0.966187
0.9691
0.972232
0.973259
0.973007
0.970896
0.962051
0.948999
0.943028
0.942082
0.943327
0.949114
0.963136
0.975481
0.984499
0.990669
0.994665
0.997088
0.998444
0.999157
0.999469
0.999537
0.999507
0.999272
0.998259
0.994651
0.973813
0.64292
0.673025
0.671361
0.565197
0.445605
0.409773
0.394685
0.379882
0.353704
0.335663
0.347038
0.404052
0.450418
0.463321
0.456367
0.431394
0.419721
0.418634
0.431932
0.525217
0.804048
0.931586
0.967572
0.975526
0.977077
0.97258
0.957069
0.929966
0.914986
0.904701
0.899218
0.896872
0.895915
0.895642
0.895602
0.895594
0.895699
0.895655
0.89547
0.895018
0.894852
0.895411
0.896544
0.898128
0.899899
0.901597
0.902525
0.902895
0.902909
0.900749
0.899096
0.898713
0.900209
0.906954
0.922788
0.956281
0.979749
0.990283
0.995693
0.998265
0.999389
0.999807
0.999919
0.999934
0.999668
0.997283
0.979471
0.923955
0.882911
0.851583
0.787088
0.695898
0.664831
0.657759
0.645137
0.607355
0.492885
0.414271
0.451548
0.714866
0.830477
0.805577
0.75121
0.715811
0.701498
0.698037
0.703119
0.718056
0.745324
0.756852
0.758605
0.752929
0.742616
0.740927
0.743652
0.750105
0.752885
0.748537
0.736131
0.72772
0.724328
0.730562
0.739375
0.746926
0.75313
0.755565
0.756274
0.75403
0.747559
0.733912
0.716
0.704682
0.69667
0.692618
0.692073
0.695269
0.707438
0.741488
0.802027
0.853341
0.895146
0.926875
0.950242
0.966879
0.978508
0.986417
0.991533
0.994603
0.9964
0.997461
0.997999
0.998156
0.998162
0.998127
0.998016
0.997743
0.997351
0.996585
0.994705
0.988735
0.967262
0.912545
0.857297
0.820364
0.805236
0.804271
0.809015
0.833582
0.879214
0.913383
0.939056
0.956145
0.96548
0.969383
0.971014
0.973416
0.97664
0.978226
0.978279
0.977399
0.973181
0.964639
0.960306
0.959282
0.959756
0.962845
0.972066
0.98157
0.988428
0.993063
0.996028
0.997836
0.998868
0.999411
0.999663
0.999735
0.999728
0.999624
0.999134
0.995329
0.643382
0.684092
0.686496
0.600106
0.472599
0.429823
0.416016
0.410252
0.406306
0.40031
0.422082
0.453998
0.467562
0.468962
0.455069
0.431189
0.42289
0.427156
0.474663
0.675376
0.890648
0.95471
0.970808
0.973712
0.9701
0.951947
0.923225
0.909048
0.901587
0.897296
0.895449
0.894629
0.893764
0.893035
0.891804
0.889594
0.886811
0.884279
0.882306
0.881332
0.881002
0.881363
0.882315
0.88418
0.887497
0.892081
0.897557
0.901818
0.903864
0.904511
0.902766
0.899611
0.898992
0.902052
0.910575
0.931117
0.966521
0.984074
0.992887
0.997016
0.998836
0.999591
0.99988
0.999959
0.999953
0.999635
0.996579
0.972777
0.908175
0.872912
0.851583
0.805961
0.697055
0.659398
0.650447
0.635429
0.578422
0.47298
0.471745
0.638875
0.801433
0.794834
0.738907
0.7052
0.694077
0.692461
0.702095
0.723479
0.749686
0.756441
0.755157
0.744859
0.738428
0.737449
0.738654
0.737451
0.718104
0.679305
0.641867
0.626119
0.621337
0.637689
0.662784
0.688425
0.707488
0.718511
0.723941
0.726031
0.725573
0.719088
0.706447
0.696216
0.690719
0.689446
0.690218
0.694274
0.70724
0.749673
0.810068
0.862564
0.90471
0.934851
0.956472
0.971698
0.982131
0.989066
0.993581
0.996294
0.997708
0.998351
0.998599
0.998643
0.998611
0.998545
0.99847
0.998276
0.998064
0.997939
0.997745
0.99723
0.994872
0.982495
0.933253
0.869374
0.831307
0.816422
0.815931
0.822605
0.851685
0.896097
0.928207
0.950351
0.964012
0.971232
0.974369
0.975739
0.977718
0.980796
0.982867
0.983316
0.98307
0.981673
0.977214
0.973915
0.97297
0.973035
0.974464
0.979841
0.986826
0.991835
0.995162
0.997253
0.998509
0.999228
0.999608
0.999788
0.999845
0.999845
0.999796
0.999173
0.642295
0.689089
0.704319
0.63282
0.504239
0.450242
0.435209
0.431911
0.437777
0.438747
0.45597
0.466859
0.470146
0.467177
0.446814
0.432861
0.430043
0.452766
0.562999
0.819179
0.932581
0.963598
0.969549
0.96895
0.95395
0.923084
0.907233
0.899722
0.89599
0.894001
0.892605
0.891164
0.88915
0.886421
0.883197
0.880615
0.878612
0.877406
0.876725
0.876396
0.876288
0.876445
0.876858
0.877577
0.878692
0.880344
0.883374
0.890732
0.899936
0.904824
0.906355
0.905583
0.9018
0.901746
0.907583
0.921699
0.953523
0.978153
0.990489
0.996166
0.998547
0.999474
0.99982
0.999947
0.999981
0.999953
0.999493
0.994937
0.961648
0.893661
0.860878
0.845129
0.805666
0.698867
0.657656
0.64386
0.615649
0.532712
0.506688
0.591393
0.770187
0.782133
0.73536
0.698289
0.687311
0.68799
0.699961
0.728135
0.751313
0.755648
0.752415
0.737543
0.73054
0.729113
0.726299
0.699786
0.618212
0.530503
0.492137
0.478398
0.484995
0.505133
0.544345
0.599329
0.643878
0.678647
0.700094
0.711226
0.715677
0.714394
0.703472
0.694324
0.690183
0.689676
0.690722
0.695604
0.712771
0.762379
0.826094
0.878384
0.916854
0.945665
0.966214
0.979897
0.988495
0.993403
0.99616
0.997696
0.998436
0.998696
0.998738
0.998704
0.998521
0.998156
0.997961
0.997612
0.997145
0.996989
0.997029
0.997222
0.997219
0.995887
0.986506
0.943621
0.877341
0.842913
0.831263
0.831629
0.842506
0.880725
0.92004
0.945918
0.962228
0.971729
0.976706
0.979011
0.980138
0.981783
0.984523
0.986851
0.987886
0.987977
0.987671
0.986021
0.983356
0.982277
0.982168
0.982828
0.985986
0.990936
0.994477
0.996784
0.998203
0.999037
0.999507
0.999754
0.999872
0.999912
0.999913
0.999824
0.636576
0.691152
0.725616
0.68639
0.560085
0.478545
0.454275
0.448732
0.449905
0.458451
0.465198
0.468298
0.468697
0.460056
0.446337
0.439392
0.450164
0.512581
0.719292
0.890349
0.948957
0.963781
0.966452
0.957441
0.931389
0.908632
0.899396
0.895024
0.892813
0.890908
0.888823
0.886295
0.883444
0.880707
0.878326
0.877
0.876046
0.875334
0.874968
0.874708
0.874609
0.87469
0.875018
0.875598
0.876426
0.87757
0.87885
0.880919
0.886094
0.89857
0.906427
0.908864
0.908521
0.906653
0.908042
0.918117
0.945533
0.972879
0.988124
0.995304
0.998283
0.999408
0.999803
0.999938
0.999984
0.99999
0.999925
0.998987
0.990338
0.940683
0.874902
0.847724
0.833087
0.776738
0.682231
0.650832
0.62918
0.56575
0.530894
0.573307
0.735386
0.769559
0.735173
0.694568
0.682783
0.684408
0.696509
0.729314
0.750939
0.754632
0.748922
0.729363
0.722687
0.719297
0.696615
0.608719
0.457666
0.38005
0.336571
0.317939
0.313057
0.331447
0.373054
0.440064
0.535936
0.614957
0.670462
0.699596
0.711606
0.714616
0.707926
0.698568
0.694268
0.694236
0.695931
0.703039
0.725225
0.782745
0.843055
0.891698
0.929482
0.956627
0.975161
0.986689
0.992939
0.996254
0.997864
0.998555
0.998795
0.99883
0.99879
0.998625
0.997985
0.996528
0.995608
0.995069
0.994303
0.993529
0.993245
0.993567
0.995166
0.995993
0.994851
0.98494
0.938848
0.87833
0.8524
0.847067
0.850363
0.873628
0.916023
0.944269
0.961582
0.972005
0.978139
0.981481
0.983122
0.984019
0.98541
0.987851
0.990145
0.99151
0.991931
0.991882
0.991229
0.989306
0.988279
0.988124
0.988496
0.990572
0.993995
0.996407
0.997948
0.998876
0.99941
0.999704
0.999856
0.999927
0.999951
0.999941
0.626251
0.686962
0.733714
0.726876
0.630198
0.523532
0.478302
0.464917
0.462336
0.466534
0.468915
0.469772
0.468663
0.460803
0.45393
0.460952
0.504168
0.648146
0.832624
0.925255
0.955736
0.962377
0.960172
0.946439
0.916633
0.901285
0.894703
0.891498
0.88954
0.887342
0.884854
0.882264
0.879813
0.877862
0.876419
0.875368
0.874637
0.87402
0.873693
0.873536
0.87349
0.873575
0.873781
0.874191
0.875073
0.876468
0.877776
0.879033
0.881238
0.887228
0.901248
0.908849
0.911757
0.912182
0.913066
0.917244
0.936527
0.966587
0.985044
0.994162
0.997957
0.999337
0.999795
0.999937
0.999983
0.999995
0.999988
0.999809
0.997464
0.979085
0.90987
0.851438
0.833699
0.815856
0.736854
0.668658
0.639951
0.571005
0.538444
0.563505
0.703031
0.755979
0.734588
0.692088
0.678968
0.680282
0.692144
0.727791
0.749795
0.753816
0.746179
0.725479
0.716291
0.708154
0.661762
0.511284
0.363154
0.293514
0.257215
0.240186
0.233868
0.241272
0.261675
0.297318
0.361835
0.479096
0.59218
0.664221
0.700769
0.714011
0.717771
0.711544
0.706317
0.706116
0.708428
0.717207
0.744115
0.805783
0.863216
0.908647
0.942787
0.966855
0.981401
0.989838
0.994729
0.997312
0.99847
0.998862
0.998923
0.998889
0.998756
0.998352
0.997172
0.994242
0.991623
0.990352
0.990025
0.989394
0.988019
0.98741
0.988002
0.991756
0.993879
0.992476
0.979409
0.926359
0.878586
0.863185
0.862985
0.875733
0.915134
0.944831
0.962328
0.972926
0.979393
0.983243
0.985429
0.986564
0.987279
0.988529
0.990761
0.992878
0.994195
0.99467
0.994671
0.994237
0.992871
0.992146
0.992054
0.992339
0.993909
0.996224
0.99779
0.998767
0.999342
0.999663
0.999835
0.999922
0.999963
0.999971
0.621604
0.66878
0.736692
0.753791
0.702617
0.610761
0.526866
0.493124
0.482011
0.478839
0.477404
0.476524
0.476194
0.47572
0.486706
0.531903
0.638001
0.770703
0.889778
0.940237
0.956658
0.960249
0.956544
0.935146
0.907523
0.896618
0.891925
0.889524
0.887427
0.885001
0.882606
0.880139
0.878108
0.876529
0.87534
0.874417
0.873813
0.873416
0.873228
0.873182
0.873219
0.873293
0.873432
0.873655
0.874106
0.875241
0.87722
0.87869
0.880392
0.884177
0.895433
0.907555
0.912624
0.913824
0.914288
0.916934
0.928577
0.958064
0.980564
0.992378
0.997403
0.999207
0.999776
0.999939
0.999984
0.999996
0.999997
0.999967
0.999384
0.992868
0.952319
0.870315
0.827002
0.815945
0.788985
0.710134
0.643525
0.568581
0.538475
0.555893
0.674502
0.741154
0.731953
0.691517
0.675646
0.675943
0.686573
0.723764
0.747351
0.752425
0.746287
0.721354
0.708442
0.692643
0.620356
0.434142
0.30214
0.248592
0.222387
0.2099
0.206386
0.210593
0.22475
0.251902
0.291783
0.361757
0.470831
0.592249
0.669644
0.706666
0.720542
0.724852
0.723164
0.723347
0.726108
0.735702
0.765525
0.825411
0.880144
0.924384
0.954621
0.973277
0.984914
0.992046
0.996042
0.998022
0.998827
0.99902
0.999011
0.998899
0.998579
0.997805
0.995895
0.993008
0.990241
0.988138
0.987155
0.986858
0.986369
0.984765
0.983939
0.984638
0.989492
0.991547
0.988842
0.968033
0.912126
0.883591
0.879079
0.885029
0.91642
0.948707
0.966105
0.975762
0.981516
0.985081
0.987308
0.988665
0.989414
0.990005
0.991206
0.993242
0.995041
0.996097
0.996447
0.996434
0.996043
0.995131
0.994764
0.99475
0.99502
0.996272
0.997766
0.998727
0.999308
0.99964
0.999821
0.999914
0.999962
0.99998
0.622449
0.661011
0.717392
0.766187
0.759622
0.69084
0.63278
0.56927
0.533452
0.516641
0.510255
0.509994
0.519697
0.543621
0.600417
0.678783
0.762279
0.847204
0.918094
0.946828
0.956079
0.957765
0.951004
0.929772
0.90534
0.89469
0.889738
0.887221
0.885158
0.882788
0.880753
0.87875
0.877199
0.876059
0.875154
0.874436
0.873863
0.873477
0.873252
0.873192
0.873209
0.87327
0.873404
0.87359
0.873941
0.874794
0.876898
0.878757
0.880389
0.883727
0.8938
0.907204
0.913633
0.914866
0.914593
0.915405
0.921221
0.945783
0.974088
0.989512
0.996333
0.99887
0.999688
0.999922
0.999981
0.999996
0.999999
0.999995
0.999876
0.997873
0.979564
0.906521
0.831568
0.804995
0.792123
0.752901
0.653117
0.561583
0.534208
0.547845
0.654862
0.729421
0.727464
0.692748
0.673308
0.672202
0.680184
0.715714
0.743683
0.750657
0.746807
0.723052
0.705211
0.685127
0.622319
0.441392
0.304503
0.238628
0.209238
0.198421
0.196438
0.198663
0.207978
0.233057
0.27081
0.325556
0.408608
0.512523
0.61887
0.686749
0.718234
0.731489
0.736373
0.738753
0.743232
0.754317
0.787004
0.846101
0.898885
0.937943
0.964178
0.980579
0.990185
0.995476
0.998002
0.998996
0.999241
0.999232
0.999098
0.998801
0.998188
0.996736
0.994622
0.992211
0.989746
0.987771
0.986593
0.986111
0.985745
0.984663
0.982497
0.982063
0.983445
0.988999
0.989467
0.983115
0.947853
0.909138
0.89941
0.90198
0.923446
0.955261
0.972053
0.980148
0.984507
0.98728
0.98916
0.990438
0.99127
0.991769
0.992303
0.993514
0.995285
0.996671
0.997402
0.997603
0.997569
0.997222
0.996758
0.996632
0.996658
0.996934
0.99788
0.998762
0.999313
0.999637
0.999817
0.999911
0.999959
0.999981
0.638509
0.659655
0.670071
0.768158
0.786962
0.759689
0.707252
0.669598
0.640867
0.619269
0.608592
0.615943
0.640453
0.681753
0.730599
0.784893
0.839078
0.888843
0.929976
0.947744
0.954639
0.955279
0.949897
0.93139
0.907132
0.895478
0.889898
0.886957
0.884682
0.882413
0.880422
0.87872
0.877267
0.876187
0.875334
0.874659
0.874149
0.87378
0.873513
0.873467
0.873492
0.873564
0.873718
0.873913
0.87423
0.874928
0.877026
0.879873
0.882213
0.886276
0.896577
0.910796
0.916633
0.916357
0.914516
0.914285
0.917572
0.938641
0.970123
0.987609
0.995504
0.998551
0.999582
0.999891
0.999975
0.999995
0.999999
0.999999
0.999981
0.999474
0.992206
0.944253
0.854146
0.795555
0.781915
0.756696
0.669286
0.563029
0.52919
0.540858
0.640269
0.720289
0.723115
0.694663
0.671996
0.669131
0.674257
0.703838
0.737653
0.748424
0.747003
0.72779
0.706661
0.686763
0.634449
0.474563
0.325688
0.248346
0.213294
0.199657
0.196087
0.196869
0.203119
0.225049
0.266221
0.317408
0.391639
0.481345
0.575827
0.660037
0.710485
0.733988
0.743379
0.748166
0.754899
0.769405
0.807792
0.867599
0.917743
0.952792
0.974509
0.987331
0.99435
0.997553
0.998944
0.999426
0.999499
0.999423
0.999081
0.998629
0.997781
0.995922
0.993762
0.991484
0.989352
0.987684
0.986591
0.986044
0.985707
0.985068
0.982892
0.981033
0.981107
0.984483
0.988394
0.986866
0.970739
0.933695
0.920854
0.921615
0.935594
0.962708
0.977775
0.984634
0.987772
0.989651
0.991023
0.992053
0.992807
0.993317
0.993672
0.994215
0.995465
0.996874
0.997838
0.998283
0.998378
0.998335
0.998114
0.997971
0.997959
0.998016
0.998327
0.998943
0.999387
0.999666
0.999828
0.999915
0.99996
0.999982
0.680719
0.668705
0.653656
0.708588
0.796816
0.799539
0.769202
0.735482
0.71901
0.710919
0.711143
0.722378
0.742919
0.77696
0.812803
0.848471
0.880785
0.910837
0.935019
0.947296
0.952591
0.953303
0.950136
0.936612
0.912204
0.898347
0.891169
0.887476
0.884993
0.88271
0.88069
0.878997
0.877589
0.876537
0.87574
0.875119
0.874671
0.87437
0.874128
0.87399
0.873993
0.874038
0.87416
0.874415
0.874908
0.876061
0.878946
0.881523
0.884876
0.891829
0.907466
0.917366
0.918637
0.916916
0.912377
0.911667
0.914961
0.936598
0.968925
0.987008
0.995234
0.998445
0.999545
0.99988
0.999971
0.999994
0.999999
1
0.999997
0.99988
0.997387
0.970482
0.888773
0.799161
0.764954
0.746934
0.675973
0.567261
0.52794
0.53637
0.626125
0.711282
0.718769
0.696775
0.671522
0.666588
0.669404
0.690082
0.728505
0.745171
0.746157
0.736809
0.711621
0.692411
0.655504
0.543285
0.375053
0.277852
0.229787