/*--------------------------------*- C++ -*----------------------------------*\
  =========                 |
  \\      /  F ield         | OpenFOAM: The Open Source CFD Toolbox
   \\    /   O peration     | Website:  https://openfoam.org
    \\  /    A nd           | Version:  7
     \\/     M anipulation  |
\*---------------------------------------------------------------------------*/
FoamFile
{
    version     2.0;
    format      ascii;
    class       volSymmTensorField;
    location    "0.097";
    object      UPrime2Mean;
}
// * * * * * * * * * * * * * * * * * * * * * * * * * * * * * * * * * * * * * //

dimensions      [0 2 -2 0 0 0 0];

internalField   nonuniform List<symmTensor> 
12225
(
(0.00436307 -9.03491e-05 0 0.000481662 0 0)
(0.0220949 -0.000936568 0 0.000200263 0 0)
(0.0316486 -0.00136417 0 0.000164859 0 0)
(0.04196 -0.00167428 0 0.000150157 0 0)
(0.0598906 -0.00210486 0 0.000144331 0 0)
(0.0867194 -0.00266472 0 0.00014372 0 0)
(0.122784 -0.00335281 0 0.00015278 0 0)
(0.168443 -0.00390252 0 0.000143128 0 0)
(0.223938 -0.00476162 0 0.000155485 0 0)
(0.288701 -0.00463072 0 0.000120392 0 0)
(0.364213 -0.00620063 0 0.00014401 0 0)
(0.444735 -0.00411028 0 8.29991e-05 0 0)
(0.543062 -0.00944991 0 0.000209945 0 0)
(0.638239 -0.0012846 0 0.00014397 0 0)
(0.78097 -0.0220353 0 0.000977994 0 0)
(0.918593 0.00921293 0 0.0011314 0 0)
(1.19279 -0.0820517 0 0.0108847 0 0)
(1.60018 0.0311605 0 0.0053031 0 0)
(0.0039173 3.99017e-05 0 0.000648758 0 0)
(0.0149558 -0.000447978 0 0.000210274 0 0)
(0.0162008 -0.000748527 0 0.000229941 0 0)
(0.0166195 -0.000930297 0 0.000298563 0 0)
(0.0195608 -0.00131394 0 0.000388554 0 0)
(0.024892 -0.00202822 0 0.000507727 0 0)
(0.0331025 -0.00304828 0 0.000634357 0 0)
(0.0455699 -0.00450848 0 0.000812586 0 0)
(0.0627598 -0.00609581 0 0.000924221 0 0)
(0.0877789 -0.00848186 0 0.00115019 0 0)
(0.119146 -0.0102864 0 0.00116299 0 0)
(0.163822 -0.0142593 0 0.00150096 0 0)
(0.214684 -0.0156327 0 0.00137483 0 0)
(0.290546 -0.0240804 0 0.0022252 0 0)
(0.370131 -0.0247405 0 0.00201603 0 0)
(0.510147 -0.0491137 0 0.00547898 0 0)
(0.647156 -0.0595954 0 0.00612731 0 0)
(0.929911 -0.163014 0 0.0376356 0 0)
(0.00382353 8.8128e-05 0 0.000825218 0 0)
(0.0147024 -0.000657478 0 0.000381884 0 0)
(0.0153351 -0.00105233 0 0.000405139 0 0)
(0.0148249 -0.00117392 0 0.000500642 0 0)
(0.0159847 -0.00138691 0 0.000633986 0 0)
(0.0179263 -0.00180137 0 0.000807756 0 0)
(0.0205261 -0.00244141 0 0.00106379 0 0)
(0.023934 -0.00325639 0 0.00131452 0 0)
(0.0286075 -0.00442493 0 0.00169945 0 0)
(0.0348901 -0.00566718 0 0.00196421 0 0)
(0.0439875 -0.00779074 0 0.00249595 0 0)
(0.0561582 -0.0095878 0 0.00268463 0 0)
(0.0741216 -0.013938 0 0.00366037 0 0)
(0.0978898 -0.0167412 0 0.00380442 0 0)
(0.133786 -0.0279976 0 0.00675678 0 0)
(0.181873 -0.0354918 0 0.00768169 0 0)
(0.251757 -0.0717136 0 0.0217195 0 0)
(0.341006 -0.118993 0 0.0443945 0 0)
(0.00384155 -0.00019693 0 0.000928121 0 0)
(0.0146749 -0.000891785 0 0.000449867 0 0)
(0.0152666 -0.0012153 0 0.000468011 0 0)
(0.0146508 -0.00133537 0 0.000601406 0 0)
(0.0155343 -0.00154494 0 0.000768184 0 0)
(0.0170441 -0.00195457 0 0.000988051 0 0)
(0.0189892 -0.00254413 0 0.00126083 0 0)
(0.0214468 -0.00331669 0 0.00163263 0 0)
(0.0244903 -0.00422372 0 0.00202359 0 0)
(0.0285163 -0.00545316 0 0.00255648 0 0)
(0.0337769 -0.00690526 0 0.00306184 0 0)
(0.0411797 -0.00918499 0 0.0038706 0 0)
(0.0511618 -0.0120077 0 0.00469911 0 0)
(0.0656721 -0.0170929 0 0.00641556 0 0)
(0.0855372 -0.0242395 0 0.00880254 0 0)
(0.113608 -0.0379331 0 0.014557 0 0)
(0.150037 -0.0616927 0 0.0269337 0 0)
(0.187497 -0.0991638 0 0.054152 0 0)
(0.00420617 -0.000131186 0 0.00103632 0 0)
(0.0144149 -0.000978581 0 0.000571077 0 0)
(0.0148268 -0.0013023 0 0.000579179 0 0)
(0.0142478 -0.00143275 0 0.000741111 0 0)
(0.0151725 -0.00166351 0 0.000947608 0 0)
(0.0166437 -0.00210195 0 0.00120072 0 0)
(0.0184751 -0.0027457 0 0.00154806 0 0)
(0.0207372 -0.00356232 0 0.00196162 0 0)
(0.0235482 -0.00460534 0 0.00251302 0 0)
(0.0271327 -0.00585975 0 0.00311311 0 0)
(0.0318265 -0.00763038 0 0.00393997 0 0)
(0.0380861 -0.009897 0 0.00488136 0 0)
(0.0465454 -0.0134535 0 0.00641773 0 0)
(0.0580711 -0.0184121 0 0.008504 0 0)
(0.0735351 -0.0267525 0 0.01253 0 0)
(0.0934324 -0.0396688 0 0.0196648 0 0)
(0.116563 -0.0604146 0 0.0339405 0 0)
(0.135879 -0.0915765 0 0.0652094 0 0)
(0.00396631 -0.000177916 0 0.00117726 0 0)
(0.0143436 -0.00115477 0 0.000711802 0 0)
(0.0145787 -0.00143289 0 0.000729815 0 0)
(0.0139347 -0.00153253 0 0.000954353 0 0)
(0.0147784 -0.00177406 0 0.00122992 0 0)
(0.0161063 -0.00224368 0 0.00155597 0 0)
(0.0177554 -0.00292312 0 0.00196254 0 0)
(0.0198087 -0.00380322 0 0.00248406 0 0)
(0.0223707 -0.00490745 0 0.00312477 0 0)
(0.0256267 -0.00632686 0 0.00392706 0 0)
(0.0298661 -0.00821844 0 0.00493348 0 0)
(0.0354179 -0.010848 0 0.00629273 0 0)
(0.0427949 -0.014618 0 0.00822818 0 0)
(0.0523773 -0.0201472 0 0.0112092 0 0)
(0.0647232 -0.0285366 0 0.0161976 0 0)
(0.0790996 -0.0409257 0 0.0248456 0 0)
(0.0943599 -0.0591356 0 0.0406862 0 0)
(0.10505 -0.0822808 0 0.0682368 0 0)
(0.00355924 -0.000232753 0 0.00138539 0 0)
(0.0137731 -0.00130883 0 0.000931529 0 0)
(0.0139088 -0.00155807 0 0.000915558 0 0)
(0.0132655 -0.00166259 0 0.00114941 0 0)
(0.0141107 -0.00192288 0 0.00146661 0 0)
(0.015385 -0.00242199 0 0.00184396 0 0)
(0.016914 -0.00314766 0 0.00232185 0 0)
(0.0187785 -0.00408647 0 0.00292948 0 0)
(0.0210879 -0.00527664 0 0.0037079 0 0)
(0.0240109 -0.0068019 0 0.0046903 0 0)
(0.0277844 -0.00884722 0 0.00596082 0 0)
(0.032637 -0.0116601 0 0.00768442 0 0)
(0.0388774 -0.015624 0 0.0101435 0 0)
(0.0466256 -0.0212861 0 0.0139037 0 0)
(0.0560024 -0.0293526 0 0.0198078 0 0)
(0.0660467 -0.0406681 0 0.0296465 0 0)
(0.0756407 -0.0555305 0 0.0454037 0 0)
(0.0809441 -0.0728698 0 0.0706139 0 0)
(0.00370453 -0.000191736 0 0.00132884 0 0)
(0.013705 -0.00141772 0 0.000961285 0 0)
(0.0137958 -0.00163469 0 0.00103931 0 0)
(0.0131009 -0.00168784 0 0.00133971 0 0)
(0.0138946 -0.00194682 0 0.00172785 0 0)
(0.0150979 -0.00246252 0 0.00218783 0 0)
(0.0164994 -0.00320133 0 0.00276078 0 0)
(0.0181541 -0.00416461 0 0.00349547 0 0)
(0.0201592 -0.00540381 0 0.004434 0 0)
(0.0226633 -0.00701543 0 0.00563384 0 0)
(0.0258553 -0.00916638 0 0.00719505 0 0)
(0.0298779 -0.0120807 0 0.00931562 0 0)
(0.0348865 -0.0160808 0 0.01231 0 0)
(0.0408336 -0.0215705 0 0.0167495 0 0)
(0.0475862 -0.029015 0 0.0234464 0 0)
(0.0542279 -0.0387497 0 0.033818 0 0)
(0.0598094 -0.050588 0 0.0492743 0 0)
(0.0619242 -0.0633047 0 0.0719612 0 0)
(0.00428282 -0.000395232 0 0.00141501 0 0)
(0.0138887 -0.00174984 0 0.00112431 0 0)
(0.0136413 -0.00194948 0 0.00122412 0 0)
(0.0128911 -0.00196748 0 0.00155279 0 0)
(0.0136275 -0.00223219 0 0.00200695 0 0)
(0.0146572 -0.00277935 0 0.00255775 0 0)
(0.0158222 -0.00355542 0 0.00323659 0 0)
(0.0172303 -0.00455006 0 0.00409719 0 0)
(0.018961 -0.00581199 0 0.00519733 0 0)
(0.021099 -0.0074373 0 0.00661699 0 0)
(0.0237514 -0.00957961 0 0.00847098 0 0)
(0.0269876 -0.0124405 0 0.0109832 0 0)
(0.0308542 -0.0162672 0 0.0144644 0 0)
(0.0352034 -0.0213341 0 0.0194718 0 0)
(0.0397977 -0.0278676 0 0.0266839 0 0)
(0.0438517 -0.0358969 0 0.0372168 0 0)
(0.0467149 -0.0450017 0 0.0519443 0 0)
(0.0469134 -0.0540348 0 0.0720745 0 0)
(0.00371971 -0.000331368 0 0.00156183 0 0)
(0.0136176 -0.00178806 0 0.00125085 0 0)
(0.0134536 -0.00197585 0 0.00138487 0 0)
(0.0126977 -0.00195512 0 0.00175439 0 0)
(0.0133568 -0.00219835 0 0.00225952 0 0)
(0.014283 -0.00274297 0 0.00288139 0 0)
(0.0153112 -0.00352193 0 0.00365226 0 0)
(0.0165209 -0.00451838 0 0.00463037 0 0)
(0.0179729 -0.00578012 0 0.0058858 0 0)
(0.0197298 -0.00739596 0 0.00751406 0 0)
(0.0218546 -0.00949282 0 0.00964295 0 0)
(0.0243516 -0.0122228 0 0.0125007 0 0)
(0.0271854 -0.0157566 0 0.0163892 0 0)
(0.0301548 -0.0202387 0 0.0218069 0 0)
(0.0330085 -0.0257308 0 0.029292 0 0)
(0.0351352 -0.0320745 0 0.0396727 0 0)
(0.0361803 -0.0388015 0 0.053419 0 0)
(0.0352292 -0.0449539 0 0.0712484 0 0)
(0.00392013 -0.000343794 0 0.00177423 0 0)
(0.0135823 -0.0020125 0 0.00151998 0 0)
(0.0131117 -0.00226202 0 0.00164656 0 0)
(0.0121779 -0.00219951 0 0.00205366 0 0)
(0.012755 -0.00241452 0 0.00262646 0 0)
(0.0136136 -0.00294718 0 0.00333989 0 0)
(0.0145418 -0.00370674 0 0.00422137 0 0)
(0.0155927 -0.0046638 0 0.00533337 0 0)
(0.016809 -0.0058601 0 0.00675063 0 0)
(0.0182291 -0.00737863 0 0.00858338 0 0)
(0.019882 -0.00932698 0 0.0109679 0 0)
(0.0217333 -0.011811 0 0.0141242 0 0)
(0.0237089 -0.0149281 0 0.0183206 0 0)
(0.0256043 -0.0187179 0 0.0239779 0 0)
(0.027213 -0.0231377 0 0.0314942 0 0)
(0.0280922 -0.0279398 0 0.0414599 0 0)
(0.0281075 -0.0327035 0 0.0540705 0 0)
(0.0266888 -0.0366703 0 0.069759 0 0)
(0.00373446 -0.000427099 0 0.00182559 0 0)
(0.0134514 -0.00204251 0 0.00159217 0 0)
(0.0129534 -0.00227397 0 0.00177571 0 0)
(0.0119403 -0.00218672 0 0.00222366 0 0)
(0.0123998 -0.00237868 0 0.00284997 0 0)
(0.0130992 -0.00289658 0 0.00364609 0 0)
(0.0138404 -0.0036368 0 0.00463257 0 0)
(0.0146764 -0.00455773 0 0.00586372 0 0)
(0.0156302 -0.00569283 0 0.00742368 0 0)
(0.0167111 -0.00710981 0 0.00942703 0 0)
(0.017915 -0.00888824 0 0.0120083 0 0)
(0.0191819 -0.0110899 0 0.0153726 0 0)
(0.0204275 -0.0137554 0 0.0197504 0 0)
(0.0214845 -0.0168584 0 0.0254893 0 0)
(0.0222062 -0.0202982 0 0.0328681 0 0)
(0.0223044 -0.0238108 0 0.0423079 0 0)
(0.0217604 -0.0270384 0 0.0538362 0 0)
(0.0202122 -0.0294034 0 0.0677438 0 0)
(0.0038043 -0.000512361 0 0.00203942 0 0)
(0.0137025 -0.00220557 0 0.00185681 0 0)
(0.0131064 -0.00239937 0 0.00202868 0 0)
(0.0119549 -0.00224463 0 0.00249735 0 0)
(0.0122782 -0.00238411 0 0.00316453 0 0)
(0.0128408 -0.00285934 0 0.00403136 0 0)
(0.0134278 -0.00355091 0 0.00511437 0 0)
(0.0140762 -0.00439755 0 0.006459 0 0)
(0.0147853 -0.00541578 0 0.00814444 0 0)
(0.0155432 -0.00665847 0 0.0102842 0 0)
(0.0163304 -0.00818477 0 0.013011 0 0)
(0.0170948 -0.0100272 0 0.0165102 0 0)
(0.0177627 -0.0121872 0 0.0209705 0 0)
(0.0182067 -0.0145987 0 0.0266689 0 0)
(0.0183247 -0.0171338 0 0.033784 0 0)
(0.0179322 -0.0195414 0 0.042617 0 0)
(0.0170792 -0.021527 0 0.0530889 0 0)
(0.015525 -0.0226529 0 0.0654187 0 0)
(0.00353108 -0.000606001 0 0.00240777 0 0)
(0.013275 -0.00238615 0 0.00224583 0 0)
(0.0126401 -0.00250908 0 0.00237985 0 0)
(0.0114733 -0.00227589 0 0.00286565 0 0)
(0.0117341 -0.00234848 0 0.00358108 0 0)
(0.0121867 -0.00275886 0 0.00451147 0 0)
(0.0126039 -0.00336534 0 0.00567293 0 0)
(0.0130072 -0.00408844 0 0.00711395 0 0)
(0.0133993 -0.00493146 0 0.00890766 0 0)
(0.0137857 -0.00593415 0 0.0111601 0 0)
(0.0141661 -0.00713805 0 0.0139873 0 0)
(0.0144973 -0.00854632 0 0.0175482 0 0)
(0.0147108 -0.0101264 0 0.0219852 0 0)
(0.0147026 -0.0117771 0 0.027505 0 0)
(0.0144037 -0.0133664 0 0.0341974 0 0)
(0.0137181 -0.0146656 0 0.0422668 0 0)
(0.0127393 -0.0154738 0 0.051556 0 0)
(0.0113222 -0.0154589 0 0.0622473 0 0)
(0.00384731 -0.000376005 0 0.0025306 0 0)
(0.013387 -0.00253704 0 0.0025425 0 0)
(0.0126297 -0.00274313 0 0.00273422 0 0)
(0.0114093 -0.00250125 0 0.0032641 0 0)
(0.0116132 -0.00253359 0 0.00403148 0 0)
(0.0119583 -0.0028732 0 0.00502773 0 0)
(0.0122189 -0.0033759 0 0.00626968 0 0)
(0.0124265 -0.00395926 0 0.00779502 0 0)
(0.0125898 -0.00461841 0 0.00966505 0 0)
(0.0127137 -0.00537686 0 0.0119733 0 0)
(0.0127908 -0.00625001 0 0.0148195 0 0)
(0.0127816 -0.0072094 0 0.0183313 0 0)
(0.0126339 -0.00819636 0 0.0226011 0 0)
(0.01229 -0.00909626 0 0.0277688 0 0)
(0.0117381 -0.00979734 0 0.0338478 0 0)
(0.0109514 -0.0101146 0 0.0409746 0 0)
(0.0100569 -0.00993416 0 0.0489512 0 0)
(0.00895277 -0.00901229 0 0.057945 0 0)
(0.00422469 -0.000338927 0 0.00282363 0 0)
(0.0135521 -0.0025284 0 0.00259398 0 0)
(0.0125181 -0.00273928 0 0.00270236 0 0)
(0.011044 -0.00242738 0 0.00324191 0 0)
(0.0109864 -0.00238146 0 0.00403999 0 0)
(0.01108 -0.00264216 0 0.00508345 0 0)
(0.0111487 -0.00303847 0 0.0063791 0 0)
(0.0112218 -0.00346113 0 0.00795289 0 0)
(0.0112569 -0.00388657 0 0.0098519 0 0)
(0.0112093 -0.00432443 0 0.0121495 0 0)
(0.01106 -0.00477926 0 0.014919 0 0)
(0.010799 -0.0052151 0 0.0182512 0 0)
(0.0104257 -0.00557367 0 0.0221935 0 0)
(0.00994509 -0.00575054 0 0.0268322 0 0)
(0.00938423 -0.00566281 0 0.0321321 0 0)
(0.00876253 -0.0051677 0 0.0381835 0 0)
(0.00819194 -0.00421932 0 0.0447847 0 0)
(0.00759274 -0.00263867 0 0.0520999 0 0)
(0.00400963 -0.000421067 0 0.00294905 0 0)
(0.0136057 -0.00276206 0 0.00274546 0 0)
(0.0124879 -0.0029947 0 0.00289277 0 0)
(0.0109325 -0.00259629 0 0.00348425 0 0)
(0.0108015 -0.00245479 0 0.00431448 0 0)
(0.0107801 -0.00262988 0 0.00537555 0 0)
(0.0106938 -0.0029092 0 0.00666701 0 0)
(0.0105925 -0.00314131 0 0.00819827 0 0)
(0.0104577 -0.0032882 0 0.0100053 0 0)
(0.010267 -0.00336753 0 0.0121491 0 0)
(0.0100146 -0.00339567 0 0.0146815 0 0)
(0.00970183 -0.00334421 0 0.0176602 0 0)
(0.00933352 -0.00316056 0 0.0210966 0 0)
(0.00893241 -0.0027532 0 0.0250359 0 0)
(0.00853017 -0.00206179 0 0.0294149 0 0)
(0.00817377 -0.000983065 0 0.034298 0 0)
(0.00795142 0.000485071 0 0.0394907 0 0)
(0.00783225 0.00247152 0 0.0451567 0 0)
(0.00373466 -0.000441963 0 0.00302509 0 0)
(0.0134103 -0.00274979 0 0.00303164 0 0)
(0.0122041 -0.00293181 0 0.00295581 0 0)
(0.0105197 -0.00256931 0 0.00337171 0 0)
(0.010252 -0.00243303 0 0.00411694 0 0)
(0.0100427 -0.00250565 0 0.00508885 0 0)
(0.00974314 -0.00259475 0 0.00624727 0 0)
(0.00945688 -0.00259413 0 0.00759733 0 0)
(0.00919899 -0.00248426 0 0.00917015 0 0)
(0.00895569 -0.00227211 0 0.0110092 0 0)
(0.00871782 -0.00195252 0 0.0131396 0 0)
(0.00848562 -0.00149037 0 0.0155861 0 0)
(0.00826635 -0.00084234 0 0.0183363 0 0)
(0.00809353 4.92389e-05 0 0.0214101 0 0)
(0.00800191 0.0012113 0 0.0247428 0 0)
(0.00804782 0.0026967 0 0.0283889 0 0)
(0.00829299 0.00448652 0 0.0321951 0 0)
(0.00872981 0.00665445 0 0.0363047 0 0)
(0.00376166 -0.000231094 0 0.00281609 0 0)
(0.0135929 -0.00242014 0 0.00274551 0 0)
(0.012065 -0.00257295 0 0.00268086 0 0)
(0.0101629 -0.00209086 0 0.00309092 0 0)
(0.00978622 -0.00174766 0 0.00373524 0 0)
(0.00948321 -0.00159462 0 0.00453007 0 0)
(0.00913231 -0.00146798 0 0.00546823 0 0)
(0.00885633 -0.0012537 0 0.00656212 0 0)
(0.00866283 -0.000905859 0 0.00782109 0 0)
(0.00852911 -0.000413359 0 0.00925371 0 0)
(0.0084496 0.000225575 0 0.0108603 0 0)
(0.00843859 0.00102406 0 0.0126511 0 0)
(0.00852175 0.00199869 0 0.014614 0 0)
(0.00874476 0.00317898 0 0.0167627 0 0)
(0.00914295 0.00457264 0 0.0190484 0 0)
(0.0097631 0.00621025 0 0.0215084 0 0)
(0.0106405 0.00806479 0 0.0240298 0 0)
(0.0117657 0.0101846 0 0.0267106 0 0)
(0.00410294 -0.000360973 0 0.00331399 0 0)
(0.0132219 -0.00228624 0 0.00297819 0 0)
(0.0115553 -0.00228776 0 0.00275922 0 0)
(0.00966325 -0.00174248 0 0.00301473 0 0)
(0.00921032 -0.00132818 0 0.00346713 0 0)
(0.00886183 -0.00108502 0 0.0040448 0 0)
(0.00851717 -0.000869357 0 0.00473485 0 0)
(0.00827517 -0.000565074 0 0.00553077 0 0)
(0.0081437 -0.000118977 0 0.00642976 0 0)
(0.00811682 0.000477332 0 0.00743544 0 0)
(0.00820273 0.00121604 0 0.00854719 0 0)
(0.00842254 0.00209735 0 0.00976841 0 0)
(0.00879906 0.00312627 0 0.0110877 0 0)
(0.00936675 0.00431956 0 0.0125136 0 0)
(0.0101511 0.00567672 0 0.0140125 0 0)
(0.0111861 0.00721445 0 0.0156148 0 0)
(0.012494 0.00890675 0 0.0172471 0 0)
(0.0140717 0.0107861 0 0.0189728 0 0)
(0.00429455 -0.000374765 0 0.00296793 0 0)
(0.0134467 -0.0020462 0 0.00260285 0 0)
(0.0118003 -0.00192362 0 0.00226033 0 0)
(0.00992894 -0.00133065 0 0.00236264 0 0)
(0.0094643 -0.000894743 0 0.0026659 0 0)
(0.00909221 -0.00061328 0 0.00308528 0 0)
(0.00875628 -0.000344935 0 0.00358142 0 0)
(0.00857774 6.04798e-06 0 0.00413657 0 0)
(0.00855889 0.000480609 0 0.0047474 0 0)
(0.00867897 0.00108746 0 0.0054161 0 0)
(0.00894248 0.00181997 0 0.0061403 0 0)
(0.00937358 0.00267154 0 0.00692314 0 0)
(0.00999773 0.00363535 0 0.00776032 0 0)
(0.0108429 0.00471664 0 0.00866308 0 0)
(0.0119225 0.00591167 0 0.00961295 0 0)
(0.0132581 0.00723591 0 0.0106309 0 0)
(0.0148635 0.00867101 0 0.0116693 0 0)
(0.0167341 0.0102457 0 0.0127691 0 0)
(0.00366368 -0.000181532 0 0.00285378 0 0)
(0.0130822 -0.00178611 0 0.00209384 0 0)
(0.0114864 -0.00174659 0 0.00173925 0 0)
(0.00961071 -0.00121917 0 0.00181527 0 0)
(0.00912853 -0.00078696 0 0.0020611 0 0)
(0.00874479 -0.000501673 0 0.00239439 0 0)
(0.00840842 -0.000254009 0 0.00277485 0 0)
(0.00823853 6.17701e-05 0 0.00319244 0 0)
(0.0082462 0.000503515 0 0.00365027 0 0)
(0.00842817 0.00108012 0 0.0041541 0 0)
(0.00879557 0.00177377 0 0.00470282 0 0)
(0.00936523 0.00256709 0 0.00529541 0 0)
(0.0101531 0.00345064 0 0.00592391 0 0)
(0.0111841 0.00442759 0 0.00659061 0 0)
(0.0124757 0.00549645 0 0.00727732 0 0)
(0.0140506 0.0066677 0 0.00799864 0 0)
(0.0159206 0.00792404 0 0.00871939 0 0)
(0.0180791 0.00928368 0 0.00946694 0 0)
(0.00403277 -0.000349052 0 0.00248455 0 0)
(0.012864 -0.00164521 0 0.00200526 0 0)
(0.0111544 -0.00144921 0 0.00163112 0 0)
(0.00928578 -0.000907597 0 0.00155358 0 0)
(0.00882397 -0.000499242 0 0.00163631 0 0)
(0.00846178 -0.000223781 0 0.00179857 0 0)
(0.00815849 2.06526e-05 0 0.00199238 0 0)
(0.00805628 0.000311427 0 0.00220367 0 0)
(0.00817109 0.000688796 0 0.00244132 0 0)
(0.00848778 0.00116327 0 0.00271695 0 0)
(0.00901147 0.00172794 0 0.00303076 0 0)
(0.00976012 0.002372 0 0.00337591 0 0)
(0.0107541 0.00308714 0 0.00374038 0 0)
(0.0120137 0.00387279 0 0.00412264 0 0)
(0.0135553 0.00472581 0 0.00451285 0 0)
(0.0153883 0.005651 0 0.00492674 0 0)
(0.0175276 0.00663836 0 0.00534653 0 0)
(0.0199438 0.00769668 0 0.0057904 0 0)
(0.00420001 -0.000469293 0 0.00219073 0 0)
(0.0127635 -0.00152532 0 0.00152839 0 0)
(0.0107432 -0.001127 0 0.00124061 0 0)
(0.00890848 -0.000506868 0 0.00124233 0 0)
(0.00867433 -7.3626e-05 0 0.00134291 0 0)
(0.00854229 0.000200688 0 0.00148323 0 0)
(0.00843821 0.000441029 0 0.00163919 0 0)
(0.00853628 0.000736761 0 0.00180877 0 0)
(0.0088875 0.00112625 0 0.00199562 0 0)
(0.00949068 0.0016098 0 0.0022003 0 0)
(0.0103485 0.0021711 0 0.00241909 0 0)
(0.0114736 0.00279403 0 0.00265039 0 0)
(0.0128796 0.00346805 0 0.00289166 0 0)
(0.0145806 0.00419216 0 0.00314555 0 0)
(0.0165783 0.00496112 0 0.00340527 0 0)
(0.0188701 0.00577904 0 0.0036812 0 0)
(0.0214559 0.00663525 0 0.00395948 0 0)
(0.0243054 0.00754419 0 0.0042479 0 0)
(0.00445062 -0.00038462 0 0.00191462 0 0)
(0.0128117 -0.00128036 0 0.00125021 0 0)
(0.0106867 -0.000969598 0 0.000871083 0 0)
(0.00879413 -0.000535326 0 0.000808285 0 0)
(0.00848828 -0.0002297 0 0.000839221 0 0)
(0.00827435 -3.24151e-05 0 0.00087485 0 0)
(0.00811498 0.000130935 0 0.000908704 0 0)
(0.00820073 0.000321433 0 0.000964456 0 0)
(0.00857003 0.000573242 0 0.00105095 0 0)
(0.00920663 0.000892083 0 0.00115942 0 0)
(0.0101109 0.00126754 0 0.00127876 0 0)
(0.0112996 0.00169029 0 0.00140466 0 0)
(0.0127914 0.00215521 0 0.00153628 0 0)
(0.0145955 0.00266146 0 0.00167622 0 0)
(0.01671 0.00320507 0 0.00182183 0 0)
(0.0191227 0.00378623 0 0.00197909 0 0)
(0.0218325 0.00439641 0 0.00213991 0 0)
(0.0247995 0.00504529 0 0.00230845 0 0)
(0.00420422 -0.000247208 0 0.00181649 0 0)
(0.0125546 -0.000953897 0 0.0010262 0 0)
(0.0102943 -0.000776337 0 0.000685932 0 0)
(0.00847888 -0.000384088 0 0.000662863 0 0)
(0.00828082 -4.39e-05 0 0.00069291 0 0)
(0.00820257 0.000188604 0 0.000719823 0 0)
(0.00827135 0.000372268 0 0.000741187 0 0)
(0.00867073 0.000564464 0 0.000766406 0 0)
(0.00938818 0.000796104 0 0.000802339 0 0)
(0.0103638 0.00107559 0 0.000848133 0 0)
(0.0115886 0.00139747 0 0.000901077 0 0)
(0.0130941 0.00175529 0 0.000960611 0 0)
(0.0149152 0.00214418 0 0.00102717 0 0)
(0.0170694 0.00256268 0 0.0011028 0 0)
(0.0195566 0.00300719 0 0.00118531 0 0)
(0.0223624 0.00347949 0 0.00127811 0 0)
(0.0254876 0.00397199 0 0.00137603 0 0)
(0.0288908 0.00449374 0 0.00148193 0 0)
(0.00361221 -0.000426242 0 0.00148938 0 0)
(0.0118484 -0.000604506 0 0.000665888 0 0)
(0.00956801 -0.000355292 0 0.000369497 0 0)
(0.00793831 -0.000126343 0 0.000322219 0 0)
(0.00790079 4.19873e-05 0 0.000305567 0 0)
(0.0079496 0.000132812 0 0.0003003 0 0)
(0.00813256 0.000198499 0 0.000310139 0 0)
(0.00864136 0.000283478 0 0.000328693 0 0)
(0.00948245 0.000403141 0 0.000350334 0 0)
(0.0106178 0.000554802 0 0.000373263 0 0)
(0.0120522 0.000730327 0 0.000398296 0 0)
(0.0138149 0.00092292 0 0.000427085 0 0)
(0.0159252 0.00112952 0 0.000460425 0 0)
(0.0183801 0.00135107 0 0.000499463 0 0)
(0.0211651 0.0015876 0 0.00054335 0 0)
(0.0242564 0.00184227 0 0.000594127 0 0)
(0.0276552 0.00211014 0 0.000649387 0 0)
(0.0313189 0.00239888 0 0.000709723 0 0)
(0.00442456 -0.000432875 0 0.00119079 0 0)
(0.0118 -0.000722645 0 0.000485646 0 0)
(0.00926047 -0.000526971 0 0.000334248 0 0)
(0.00787975 -0.000244484 0 0.000306491 0 0)
(0.00802531 -5.01972e-05 0 0.000268085 0 0)
(0.00818597 5.91997e-05 0 0.000231703 0 0)
(0.00854773 0.000145824 0 0.000212108 0 0)
(0.00933925 0.000235935 0 0.00020443 0 0)
(0.0105368 0.000328656 0 0.000203039 0 0)
(0.0120659 0.000423567 0 0.000205523 0 0)
(0.0139075 0.000525881 0 0.000211744 0 0)
(0.0160804 0.000641219 0 0.000222316 0 0)
(0.0185989 0.000772919 0 0.000237753 0 0)
(0.0214624 0.000921522 0 0.000258268 0 0)
(0.024653 0.00108423 0 0.000283466 0 0)
(0.0281559 0.00125752 0 0.000315032 0 0)
(0.0319662 0.00143634 0 0.000352202 0 0)
(0.0360534 0.00162238 0 0.000394519 0 0)
(0.00361483 -0.000174702 0 0.000904501 0 0)
(0.0109261 1.8108e-05 0 0.000222835 0 0)
(0.00848232 -4.26296e-05 0 0.000136894 0 0)
(0.00724117 -1.32611e-05 0 0.000124081 0 0)
(0.00753057 -1.64248e-05 0 0.000122277 0 0)
(0.00787787 -4.79443e-05 0 0.00012315 0 0)
(0.0084355 -8.69613e-05 0 0.00012475 0 0)
(0.00938147 -0.000124576 0 0.000127415 0 0)
(0.0106549 -0.000157734 0 0.00013233 0 0)
(0.0121625 -0.000183642 0 0.000139414 0 0)
(0.0138684 -0.000198701 0 0.000147763 0 0)
(0.0157906 -0.000200583 0 0.000156957 0 0)
(0.0179417 -0.000187518 0 0.000167309 0 0)
(0.0203491 -0.000158258 0 0.000179554 0 0)
(0.0229929 -0.000111569 0 0.000193625 0 0)
(0.0259081 -4.74606e-05 0 0.00021064 0 0)
(0.0290515 3.35873e-05 0 0.000230575 0 0)
(0.0324893 0.000132647 0 0.00025246 0 0)
(0.00385359 -0.000300027 0 0.000736645 0 0)
(0.0116889 -2.5975e-05 0 0.000214741 0 0)
(0.0102154 2.8659e-05 0 0.000130504 0 0)
(0.0096835 8.8588e-05 0 9.69557e-05 0 0)
(0.0104517 0.000100239 0 7.77464e-05 0 0)
(0.0111774 0.000105136 0 6.5088e-05 0 0)
(0.0119082 0.000115609 0 5.64182e-05 0 0)
(0.0128268 0.000128372 0 5.09036e-05 0 0)
(0.0139952 0.000140723 0 4.76029e-05 0 0)
(0.0154313 0.000154226 0 4.57761e-05 0 0)
(0.0171469 0.00017216 0 4.50664e-05 0 0)
(0.0191554 0.000197693 0 4.54038e-05 0 0)
(0.0214848 0.000233606 0 4.66976e-05 0 0)
(0.0241785 0.000281005 0 4.8724e-05 0 0)
(0.027297 0.000339016 0 5.14012e-05 0 0)
(0.030867 0.000405848 0 5.49706e-05 0 0)
(0.0349531 0.000480031 0 5.89815e-05 0 0)
(0.0395136 0.000564011 0 6.28562e-05 0 0)
(0.002238 -0.00585839 1.03229e-22 0.0158068 -2.32557e-22 9.69991e-38)
(0.0252111 -0.0205508 -2.96487e-22 0.0171182 1.93127e-22 9.56418e-38)
(0.0669763 -0.0284767 0 0.0128636 0 0)
(0.112017 -0.0279722 0 0.00846887 0 0)
(0.147896 -0.0211721 0 0.00552845 0 0)
(0.171699 -0.0134416 6.81796e-22 0.00506955 -4.97157e-23 9.00869e-38)
(0.187837 -0.0083353 0 0.00655401 0 0)
(0.201142 -0.00764138 0 0.0092776 0 0)
(0.221236 -0.0127564 0 0.0121799 0 0)
(0.257395 -0.0227254 0 0.0143122 0 0)
(0.317633 -0.0353537 -8.13329e-22 0.0147452 2.88831e-23 8.34447e-38)
(0.405746 -0.0473642 0 0.0138873 0 0)
(0.520162 -0.0572408 0 0.0125455 0 0)
(0.65548 -0.0648227 0 0.0111028 0 0)
(0.805236 -0.0696366 0 0.00964955 0 0)
(0.963816 -0.0713593 -9.93753e-22 0.00825481 6.31823e-23 7.71274e-38)
(1.1249 -0.0698854 0 0.00697819 0 0)
(1.28044 -0.0649017 0 0.00585091 0 0)
(1.42276 -0.056649 0 0.00499463 0 0)
(1.546 -0.0458826 0 0.00453908 0 0)
(1.64741 -0.033829 0 0.00459658 0 0)
(1.72574 -0.0221962 0 0.00518745 0 0)
(1.78313 -0.0125084 0 0.00615007 0 0)
(1.82456 -0.00545384 -1.82217e-21 0.00720117 1.5932e-22 6.76889e-38)
(1.85612 -0.00119033 1.9862e-21 0.00811095 -1.66425e-22 6.65666e-38)
(1.88294 0.000860403 -2.16017e-21 0.00882408 1.70555e-22 6.54572e-38)
(1.90797 0.00216462 -2.34141e-21 0.00953837 1.71821e-22 6.43605e-38)
(1.93201 0.00325839 0 0.0106551 0 0)
(1.95488 0.00310485 0 0.0133272 0 0)
(1.97803 0.000384301 2.89668e-21 0.0183245 -1.52861e-22 6.11467e-38)
(2.00368 -0.00597854 3.07277e-21 0.0263944 -1.34884e-22 6.01007e-38)
(2.03648 -0.0167539 0 0.0355828 0 0)
(2.07801 -0.0293505 0 0.0422812 0 0)
(2.12431 -0.0396113 3.567e-21 0.0447084 -1.08224e-22 5.70389e-38)
(2.17567 -0.0463089 0 0.0439888 0 0)
(2.23622 -0.0544927 0 0.0444742 0 0)
(2.31082 -0.0689333 -4.04866e-21 0.0464129 1.12555e-22 5.40907e-38)
(2.39918 -0.0836992 0 0.0479948 0 0)
(2.5032 -0.0891849 -4.34886e-21 0.0470773 1.05991e-22 5.2188e-38)
(2.62076 -0.0980788 -8.98345e-21 0.0503879 2.09504e-22 2.05021e-37)
(2.75841 -0.110799 0 0.0505674 0 0)
(2.90415 -0.111224 0 0.0507655 0 0)
(3.05896 -0.123658 0 0.0466757 0 0)
(3.24677 -0.142479 0 0.0454998 0 0)
(3.45072 -0.147898 0 0.0453136 0 0)
(3.66187 -0.136571 -1.03922e-20 0.0428294 1.79873e-22 1.83675e-37)
(3.86789 -0.126026 -1.05702e-20 0.0390572 1.74158e-22 1.80287e-37)
(4.07032 -0.120364 -1.07276e-20 0.0323054 1.56762e-22 1.76948e-37)
(4.26591 -0.111882 0 0.0281806 0 0)
(4.44783 -0.10311 1.09788e-20 0.0260431 -1.33497e-22 1.70413e-37)
(4.61417 -0.09521 0 0.0246589 0 0)
(4.76204 -0.0871304 -1.11555e-20 0.0237503 1.13604e-22 1.64067e-37)
(4.8931 -0.0781912 -1.12139e-20 0.0235884 1.07106e-22 1.60964e-37)
(5.01231 -0.0707873 0 0.0240165 0 0)
(5.12835 -0.0679797 0 0.0243926 0 0)
(5.25225 -0.0700671 0 0.0246737 0 0)
(5.38796 -0.0728242 -1.1239e-20 0.0239234 7.40135e-23 1.49008e-37)
(5.52054 -0.0704555 0 0.0217621 0 0)
(5.6315 -0.0645636 0 0.0203226 0 0)
(5.71757 -0.0563138 0 0.020252 0 0)
(5.77893 -0.0463178 0 0.0214194 0 0)
(5.81425 -0.0358608 0 0.0232996 0 0)
(5.82458 -0.0281793 0 0.0251103 0 0)
(5.81763 -0.0256364 0 0.0258898 0 0)
(5.80363 -0.0255574 0 0.0262203 0 0)
(5.78914 -0.0287637 1.07702e-20 0.0268263 -6.17395e-23 1.24672e-37)
(5.79293 -0.0398658 0 0.0260057 0 0)
(5.84132 -0.0521199 0 0.0234619 0 0)
(5.93359 -0.0553785 -1.06888e-20 0.0211302 6.62609e-23 1.17309e-37)
(6.05047 -0.0522959 -1.06675e-20 0.0190461 6.51548e-23 1.14934e-37)
(6.1696 -0.0520531 0 0.0170386 0 0)
(6.27686 -0.0607863 1.06299e-20 0.0138701 -5.55945e-23 1.103e-37)
(6.37823 -0.0676545 -1.061e-20 0.0121211 5.18381e-23 1.0804e-37)
(6.47537 -0.0631208 0 0.0123803 0 0)
(6.57466 -0.0571988 1.05602e-20 0.0134672 -4.61235e-23 1.03633e-37)
(6.68732 -0.0580202 0 0.0159587 0 0)
(6.81239 -0.0593395 0 0.0187538 0 0)
(6.93373 -0.0548632 -1.04292e-20 0.0207686 4.50198e-23 9.72947e-38)
(7.03852 -0.0503024 0 0.0206174 0 0)
(7.12874 -0.0487169 1.03146e-20 0.0178311 -4.33177e-23 9.32462e-38)
(7.21255 -0.0480938 0 0.0144683 0 0)
(7.28974 -0.0453748 -1.01727e-20 0.0116465 3.16416e-23 8.93349e-38)
(7.34784 -0.0383013 -1.00796e-20 0.00985424 2.38878e-23 8.74296e-38)
(7.37557 -0.0267316 -9.96761e-21 0.00880326 1.63842e-23 8.55572e-38)
(7.36855 -0.0122951 -1.96726e-20 0.00799552 2.03882e-23 3.34869e-37)
(7.32944 0.00113817 1.93741e-20 0.00760965 -1.11378e-23 3.27637e-37)
(7.26822 0.00921719 0 0.0078458 0 0)
(7.19797 0.0117479 0 0.0078871 0 0)
(7.12507 0.0121045 0 0.00737438 0 0)
(7.05095 0.0125403 1.79027e-20 0.00657673 1.86314e-23 2.99956e-37)
(6.97139 0.0139051 1.7492e-20 0.00570276 2.45819e-23 2.93338e-37)
(6.88327 0.0163217 -1.70729e-20 0.00486984 -3.01837e-23 2.86838e-37)
(6.78284 0.0196711 0 0.00413007 0 0)
(6.66761 0.02372 1.62127e-20 0.00349763 4.10981e-23 2.74183e-37)
(6.53526 0.0282529 1.57704e-20 0.00297045 4.65228e-23 2.68026e-37)
(6.38432 0.0330609 1.53183e-20 0.00253909 5.18878e-23 2.61979e-37)
(6.21377 0.0379632 0 0.00219353 0 0)
(6.02327 0.0427581 0 0.00192499 0 0)
(5.81315 0.0472422 0 0.00172415 0 0)
(5.58454 0.0511987 1.33966e-20 0.00158189 6.96902e-23 2.38868e-37)
(5.33947 0.0544453 0 0.00148609 0 0)
(5.08087 0.0568574 0 0.0014248 0 0)
(4.81226 0.0583724 -1.18785e-20 0.00138525 -7.35708e-23 2.2262e-37)
(4.5373 0.058978 0 0.00135717 0 0)
(4.25967 0.0587363 0 0.00133148 0 0)
(3.98285 0.0577477 -1.0415e-20 0.00130272 -6.78278e-23 2.07255e-37)
(3.70986 0.0561622 0 0.0012676 0 0)
(3.44299 0.0541635 0 0.00122621 0 0)
(3.18376 0.0519332 9.10842e-21 0.00118075 5.66126e-23 1.92733e-37)
(2.93293 0.0496368 8.7155e-21 0.00113469 5.25703e-23 1.88074e-37)
(2.69068 0.0473994 0 0.00109251 0 0)
(2.45676 0.0452833 -7.99343e-21 0.00105728 -4.4781e-23 1.79016e-37)
(2.23074 0.043302 0 0.00103294 0 0)
(2.01233 0.0413921 7.35331e-21 0.00101993 3.75892e-23 1.703e-37)
(1.80169 0.0394421 0 0.00101603 0 0)
(1.59957 0.0373349 6.7944e-21 0.00101684 3.07637e-23 1.61914e-37)
(1.40729 0.0349623 6.54629e-21 0.00101442 2.74146e-23 1.57841e-37)
(1.22653 0.0322784 0 0.00100117 0 0)
(1.05904 0.0293105 0 0.000971671 0 0)
(0.90623 0.0261429 0 0.000924137 0 0)
(0.768948 0.0229075 0 0.000861657 0 0)
(0.647553 0.0197233 0 0.000788773 0 0)
(0.541867 0.0166914 0 0.000710597 0 0)
(0.451074 0.0138533 0 0.000630077 0 0)
(0.374295 0.0113395 5.22819e-21 0.000557518 6.76106e-24 1.27991e-37)
(0.310457 0.00911379 -5.12104e-21 0.000490936 -5.2134e-24 1.24582e-37)
(0.258061 0.00711472 0 0.000425485 0 0)
(0.21591 0.00537502 0 0.000365297 0 0)
(0.182858 0.00388178 0 0.000310181 0 0)
(0.15775 0.00262161 0 0.000260238 0 0)
(0.139471 0.0015796 -9.34751e-21 0.000215582 1.506e-24 4.34162e-37)
(0.126959 0.000739339 0 0.000176344 0 0)
(0.119212 8.2976e-05 9.04817e-21 0.00014268 -5.10601e-24 4.10279e-37)
(0.115299 -0.000408591 -8.90825e-21 0.000114754 6.72674e-24 3.98704e-37)
(0.114368 -0.000755106 0 9.26699e-05 0 0)
(0.115658 -0.000977212 0 7.63282e-05 0 0)
(0.118505 -0.00109692 0 6.53997e-05 0 0)
(0.122353 -0.00113674 8.40564e-21 5.96446e-05 -1.17955e-23 3.54753e-37)
(0.126756 -0.0011185 8.29277e-21 5.87111e-05 -1.26992e-23 3.44333e-37)
(0.131377 -0.00106287 0 6.20027e-05 0 0)
(0.13599 -0.000990917 8.08014e-21 6.90841e-05 -1.40981e-23 3.24151e-37)
(0.140473 -0.000917877 7.97961e-21 7.94125e-05 -1.45563e-23 3.1438e-37)
(0.144768 -0.000853479 -7.88234e-21 9.22712e-05 1.48441e-23 3.0482e-37)
(0.148923 -0.000814431 0 0.000106546 0 0)
(0.153074 -0.000816525 0 0.000120421 0 0)