/*--------------------------------*- C++ -*----------------------------------*\
  =========                 |
  \\      /  F ield         | OpenFOAM: The Open Source CFD Toolbox
   \\    /   O peration     | Website:  https://openfoam.org
    \\  /    A nd           | Version:  7
     \\/     M anipulation  |
\*---------------------------------------------------------------------------*/
FoamFile
{
    version     2.0;
    format      ascii;
    class       volScalarField;
    location    "0.098";
    object      k_0;
}
// * * * * * * * * * * * * * * * * * * * * * * * * * * * * * * * * * * * * * //

dimensions      [0 2 -2 0 0 0 0];

internalField   nonuniform List<scalar> 
12225
(
1.93211e-05
1.80616e-05
1.67796e-05
1.52474e-05
1.38281e-05
1.26069e-05
1.12517e-05
9.99178e-06
8.85863e-06
7.66382e-06
6.07502e-06
4.97545e-06
3.95699e-06
3.38761e-06
3.71675e-06
2.32387e-05
2.66147e-05
5.87327e-05
1.99802e-05
1.9886e-05
1.9694e-05
1.94227e-05
1.90061e-05
1.86425e-05
1.83721e-05
1.78209e-05
1.7392e-05
1.68964e-05
1.6055e-05
1.56334e-05
1.48599e-05
1.44409e-05
1.34725e-05
1.39396e-05
1.49603e-05
1.73635e-05
2.00026e-05
1.94912e-05
1.91193e-05
1.90964e-05
1.9074e-05
1.90637e-05
1.90442e-05
1.89805e-05
1.8818e-05
1.87032e-05
1.84882e-05
1.83805e-05
1.81743e-05
1.80456e-05
1.77873e-05
1.73457e-05
1.7284e-05
1.73737e-05
2.07373e-05
2.01803e-05
1.93242e-05
1.80635e-05
1.80018e-05
1.80692e-05
1.8012e-05
1.78935e-05
1.78594e-05
1.78638e-05
1.79159e-05
1.80333e-05
1.80611e-05
1.80557e-05
1.80047e-05
1.78042e-05
1.75103e-05
1.73604e-05
2.06486e-05
2.04335e-05
2.14022e-05
2.2158e-05
2.23212e-05
2.22501e-05
2.18281e-05
2.08085e-05
1.99342e-05
1.92072e-05
1.87942e-05
1.86571e-05
1.86183e-05
1.8578e-05
1.84906e-05
1.8198e-05
1.77523e-05
1.7417e-05
2.23799e-05
2.15634e-05
2.15441e-05
2.19804e-05
2.21285e-05
2.21245e-05
2.19825e-05
2.14833e-05
2.10678e-05
2.09255e-05
2.09212e-05
2.10654e-05
2.12277e-05
2.12364e-05
2.11952e-05
2.10229e-05
2.05166e-05
1.9472e-05
2.15696e-05
2.08458e-05
2.21055e-05
2.27515e-05
2.23415e-05
2.13703e-05
2.09616e-05
2.08183e-05
2.07975e-05
2.08473e-05
2.11591e-05
2.24768e-05
2.54994e-05
2.75441e-05
2.84867e-05
2.87108e-05
2.86572e-05
2.82181e-05
2.06469e-05
2.06652e-05
2.1938e-05
2.24903e-05
2.19368e-05
2.0974e-05
2.06421e-05
2.06002e-05
2.06304e-05
2.07654e-05
2.11555e-05
2.23132e-05
2.50125e-05
2.73699e-05
2.90763e-05
3.01399e-05
3.06244e-05
3.06895e-05
2.00422e-05
2.04114e-05
2.24404e-05
2.38463e-05
2.3526e-05
2.31576e-05
2.3201e-05
2.30593e-05
2.24225e-05
2.22409e-05
2.25338e-05
2.42856e-05
2.70503e-05
2.88433e-05
2.97904e-05
3.01497e-05
3.02047e-05
3.01388e-05
2.00536e-05
2.15103e-05
2.34015e-05
2.2848e-05
2.24094e-05
2.24194e-05
2.2548e-05
2.29992e-05
2.38382e-05
2.41325e-05
2.42391e-05
2.46239e-05
2.62971e-05
2.85854e-05
2.98537e-05
3.03327e-05
3.03965e-05
3.02955e-05
2.07692e-05
2.23183e-05
2.21639e-05
2.1804e-05
2.17624e-05
2.21534e-05
2.32002e-05
2.36063e-05
2.33861e-05
2.2604e-05
2.24512e-05
2.25564e-05
2.32744e-05
2.54014e-05
2.69344e-05
2.75982e-05
2.77455e-05
2.77695e-05
2.19162e-05
2.2808e-05
2.24213e-05
2.13711e-05
2.11673e-05
2.14291e-05
2.19986e-05
2.21732e-05
2.22007e-05
2.2219e-05
2.22221e-05
2.23445e-05
2.29254e-05
2.34732e-05
2.36875e-05
2.37291e-05
2.3701e-05
2.35558e-05
2.145e-05
2.29757e-05
2.28686e-05
2.19274e-05
2.13238e-05
2.11456e-05
2.11545e-05
2.12632e-05
2.1418e-05
2.16671e-05
2.19596e-05
2.21453e-05
2.21939e-05
2.218e-05
2.20715e-05
2.17444e-05
2.13954e-05
2.1257e-05
2.14335e-05
2.24426e-05
2.25347e-05
2.22696e-05
2.16218e-05
2.11541e-05
2.10446e-05
2.10567e-05
2.11035e-05
2.11866e-05
2.14488e-05
2.18781e-05
2.20519e-05
2.20445e-05
2.18324e-05
2.1345e-05
2.11577e-05
2.11487e-05
2.00914e-05
2.0413e-05
2.05135e-05
2.04795e-05
2.04198e-05
2.04291e-05
2.04606e-05
2.04905e-05
2.05069e-05
2.05311e-05
2.06387e-05
2.07929e-05
2.08295e-05
2.08074e-05
2.06843e-05
2.05971e-05
2.05942e-05
2.06502e-05
2.00569e-05
2.05745e-05
2.08899e-05
2.08701e-05
2.05823e-05
2.02757e-05
2.0225e-05
2.02725e-05
2.05175e-05
2.10532e-05
2.14076e-05
2.15356e-05
2.15333e-05
2.14027e-05
2.10418e-05
2.08356e-05
2.07676e-05
2.07632e-05
2.00568e-05
2.06082e-05
2.1914e-05
2.22126e-05
2.19665e-05
2.1073e-05
2.06863e-05
2.06692e-05
2.08216e-05
2.1199e-05
2.14011e-05
2.14475e-05
2.14327e-05
2.13267e-05
2.10582e-05
2.08662e-05
2.07378e-05
2.06775e-05
2.06343e-05
2.11013e-05
2.13187e-05
2.13466e-05
2.13014e-05
2.10543e-05
2.07592e-05
2.06607e-05
2.06597e-05
2.07333e-05
2.08915e-05
2.09398e-05
2.09355e-05
2.08874e-05
2.07222e-05
2.05622e-05
2.04865e-05
2.04759e-05
2.02712e-05
2.02595e-05
2.02384e-05
2.03816e-05
2.06746e-05
2.06604e-05
2.04709e-05
2.02906e-05
2.02435e-05
2.02573e-05
2.03527e-05
2.03966e-05
2.03817e-05
2.03457e-05
2.03345e-05
2.03314e-05
2.03316e-05
2.0337e-05
2.04055e-05
2.02941e-05
2.02902e-05
2.02947e-05
2.02877e-05
2.02367e-05
2.01478e-05
2.01079e-05
2.01053e-05
2.01545e-05
2.0464e-05
2.06365e-05
2.06088e-05
2.05545e-05
2.05655e-05
2.06368e-05
2.08162e-05
2.10147e-05
2.02251e-05
2.02654e-05
2.03876e-05
2.04231e-05
2.04241e-05
2.04186e-05
2.0401e-05
2.03474e-05
2.033e-05
2.03423e-05
2.03452e-05
2.03361e-05
2.03189e-05
2.03135e-05
2.03494e-05
2.05449e-05
2.10495e-05
2.13868e-05
2.01754e-05
2.01482e-05
2.01531e-05
2.01764e-05
2.02444e-05
2.03683e-05
2.04253e-05
2.04575e-05
2.05284e-05
2.06633e-05
2.09464e-05
2.14188e-05
2.18084e-05
2.1952e-05
2.19456e-05
2.18465e-05
2.1765e-05
2.17432e-05
2.02492e-05
2.01585e-05
2.00853e-05
2.00882e-05
2.0169e-05
2.04257e-05
2.05703e-05
2.06118e-05
2.06523e-05
2.07324e-05
2.09261e-05
2.1493e-05
2.20143e-05
2.21687e-05
2.21357e-05
2.18666e-05
2.12201e-05
2.07992e-05
2.02635e-05
2.06294e-05
2.06464e-05
2.05383e-05
2.05096e-05
2.05407e-05
2.0654e-05
2.07902e-05
2.08473e-05
2.08931e-05
2.101e-05
2.119e-05
2.1244e-05
2.12266e-05
2.1096e-05
2.0684e-05
2.0343e-05
2.01896e-05
2.00833e-05
2.0373e-05
2.04104e-05
2.03578e-05
2.03261e-05
2.035e-05
2.04547e-05
2.05024e-05
2.04982e-05
2.04391e-05
2.03742e-05
2.03599e-05
2.03661e-05
2.0392e-05
2.04014e-05
2.04001e-05
2.03877e-05
2.03661e-05
2.00903e-05
2.02991e-05
2.03752e-05
2.04041e-05
2.05771e-05
2.13429e-05
2.22556e-05
2.24114e-05
2.22991e-05
2.16908e-05
2.10383e-05
2.07759e-05
2.07003e-05
2.06907e-05
2.0695e-05
2.06982e-05
2.06935e-05
2.06653e-05
2.01248e-05
2.00945e-05
2.00566e-05
1.99993e-05
1.99328e-05
1.98471e-05
1.96659e-05
1.93975e-05
1.90886e-05
1.85263e-05
1.78023e-05
1.74611e-05
1.74771e-05
1.76749e-05
1.82312e-05
1.87789e-05
1.91115e-05
1.91729e-05
2.02485e-05
1.84593e-05
1.45602e-05
1.46686e-05
1.63135e-05
1.98512e-05
2.19375e-05
2.38345e-05
2.7276e-05
3.53537e-05
5.08519e-05
6.42309e-05
7.34934e-05
7.8863e-05
8.12529e-05
8.19098e-05
8.2171e-05
8.19566e-05
3.16527e-05
9.69728e-05
0.000117731
0.000178836
0.000272575
0.000317165
0.000331343
0.000347705
0.000383732
0.000484722
0.000591198
0.000636819
0.000643685
0.000642233
0.00063562
0.00061898
0.000606893
0.000599267
0.00256582
0.00239733
0.00224948
0.00222609
0.00221411
0.00215944
0.00203218
0.0019651
0.0019392
0.00191813
0.00187437
0.00175044
0.00158855
0.00147753
0.00141245
0.00137715
0.00134251
0.00129974
0.00338392
0.00627423
0.00751787
0.00886866
0.00966672
0.0101083
0.00994691
0.00920168
0.00727667
0.00534656
0.00383569
0.0038558
0.00650758
0.00892463
0.00962494
0.00919595
0.00755441
0.00723405
0.00752024
0.00882672
0.0109012
0.0130742
0.0169055
0.025319
0.0281415
0.026308
0.0185526
0.0153734
0.0145197
0.0140223
0.0128929
0.0123545
0.0115696
0.0100907
0.00941953
0.00893975
0.00812488
0.00759836
0.00733592
0.00711754
0.00703059
0.00700806
0.00691956
0.00686125
0.00682257
0.00681191
0.00682355
0.00687875
0.00695009
0.00710567
0.00736719
0.00766646
0.00797979
0.00825968
0.00861668
0.00894183
0.00914582
0.00939239
0.00948454
0.00948631
0.00967812
0.00989496
0.0101931
0.010534
0.0107572
0.0109303
0.0113066
0.0124358
0.0135812
0.0147999
0.0188594
0.0378475
0.0544777
0.049211
0.0352853
0.0255654
0.0219432
0.0227302
0.0253746
0.0294196
0.0410531
0.0832002
0.151707
0.190899
0.198226
0.181497
0.112124
0.0457432
0.0116709
0.0029231
0.00157832
0.00132004
0.0012511
0.00112272
0.00098914
0.000795778
0.000623359
0.000538642
0.000435747
0.000375146
0.000342222
0.000329643
0.000332761
0.000334564
0.000336575
0.000338348
0.000340101
0.000342112
0.000343944
0.000345638
0.000347311
0.000349195
0.000351258
0.000352534
0.00035316
0.000352518
0.000350145
0.000347171
0.000343033
0.00033734
0.000329219
0.000321527
0.00031317
0.000304276
0.000295237
0.000286404
0.000274937
0.000272863
0.000263428
0.000244854
0.000231083
0.000218246
0.000206213
0.000195169
0.000185331
0.000176329
0.000167279
0.00015825
0.000149525
0.000140529
0.000130616
0.000120805
0.00011202
0.000102775
9.1626e-05
8.02317e-05
6.88578e-05
5.44881e-05
3.78272e-05
2.42222e-05
1.51396e-05
9.51441e-06
6.3445e-06
4.72836e-06
3.9567e-06
3.55688e-06
3.26723e-06
2.97592e-06
2.65334e-06
2.31456e-06
1.98174e-06
1.68246e-06
1.41709e-06
1.202e-06
1.00374e-06
8.5199e-07
7.09932e-07
5.83228e-07
4.93293e-07
5.02752e-07
4.90478e-07
5.77009e-07
5.63137e-07
7.36396e-07
6.71517e-07
9.69299e-07
1.20984e-06
1.83808e-06
1.15227e-05
9.44254e-06
0.00524571
0.00676509
0.0101619
0.0104304
0.0108221
0.0115433
0.0115907
0.0114623
0.0110902
0.0102246
0.00920703
0.00715297
0.00631553
0.00697604
0.00842276
0.00795702
0.0058225
0.00509098
0.00499845
0.00546116
0.00744405
0.0116551
0.0179523
0.0204018
0.0202864
0.0171797
0.0140223
0.0127326
0.0112933
0.00902925
0.00760473
0.00680205
0.00543808
0.00443632
0.00396159
0.003343
0.00285828
0.00262566
0.00233801
0.00208815
0.0019686
0.00185168
0.00176667
0.00172668
0.00170894
0.001706
0.00175107
0.00185646
0.00200927
0.00226136
0.00264151
0.00315825
0.00385382
0.00464183
0.00526448
0.00580638
0.00630858
0.00651838
0.00657725
0.0065299
0.00685128
0.00725291
0.00773386
0.00839524
0.00898386
0.00946167
0.0100685
0.0114637
0.0129025
0.0138026
0.0155557
0.0231322
0.0445574
0.0452019
0.0249396
0.0116933
0.012196
0.0169307
0.0263925
0.0260463
0.0264156
0.0347591
0.0474348
0.0782374
0.125041
0.110806
0.0468595
0.0156724
0.00443989
0.00164566
0.00100039
0.000792167
0.000670268
0.000591705
0.000542882
0.000511678
0.000499658
0.000496924
0.000497573
0.000502526
0.000507856
0.000513811
0.000521198
0.000528155
0.000537066
0.000546535
0.000556629
0.000567481
0.000579016
0.00059097
0.000603657
0.000616047
0.000628019
0.000638606
0.000646849
0.000651621
0.000653497
0.000651313
0.000640483
0.000628613
0.000613027
0.000596279
0.000579471
0.000563374
0.000548528
0.000534879
0.000521891
0.000507547
0.00050296
0.000494024
0.000481532
0.000467092
0.000450889
0.000434772
0.000417781
0.00039887
0.000377769
0.000355315
0.000333206
0.000312433
0.000292348
0.000273474
0.000255742
0.00023698
0.000216735
0.000196021
0.00017529
0.000157359
0.000144767
0.000134023
0.000121027
0.000104459
8.62262e-05
6.98082e-05
5.70853e-05
4.78115e-05
4.10802e-05
3.61715e-05
3.22988e-05
2.87593e-05
2.50875e-05
2.14634e-05
1.80527e-05
1.5258e-05
1.28601e-05
1.09853e-05
9.15899e-06
7.93072e-06
6.61181e-06
5.77386e-06
4.69094e-06
4.14774e-06
3.34664e-06
3.06935e-06
2.5227e-06
2.33138e-06
2.16916e-06
2.04824e-06
3.38334e-06
3.27366e-06
0.00622052
0.0142752
0.0139619
0.0117099
0.00983887
0.00921856
0.00924937
0.009472
0.00959525
0.00957354
0.00942833
0.00894902
0.0075023
0.00681958
0.00683769
0.00718167
0.00621835
0.00513444
0.00502129
0.00565173
0.00788984
0.0121952
0.0155126
0.015871
0.0143488
0.0105305
0.00820724
0.00695595
0.00478974
0.00344747
0.00281616
0.00212114
0.001552
0.00129122
0.00108486
0.000907338
0.000818915
0.000740857
0.000699031
0.000665613
0.000651912
0.000647645
0.000651511
0.000652363
0.000650726
0.000650406
0.000654467
0.000679561
0.000730665
0.000806039
0.000923978
0.00111086
0.00139214
0.00178205
0.00226183
0.00269117
0.00304899
0.00345234
0.00381675
0.00420973
0.00486856
0.00549158
0.00619547
0.00729588
0.00825403
0.00907645
0.0102447
0.0114672
0.0124118
0.0130835
0.0140303
0.016498
0.0266222
0.0311438
0.0202729
0.0100746
0.0102261
0.018067
0.0330918
0.0417793
0.040742
0.0433495
0.0601655
0.074399
0.0552554
0.0263514
0.00957458
0.0033476
0.00135037
0.000818692
0.000654661
0.000585803
0.000543376
0.00052348
0.000512293
0.000507157
0.000505679
0.000509598
0.000519541
0.00053183
0.00054932
0.000569051
0.000595105
0.000621398
0.000649736
0.000679975
0.000713071
0.000747736
0.000785168
0.000823324
0.000864356
0.000903266
0.000939758
0.000970497
0.000993083
0.0010074
0.00101293
0.00100635
0.000974211
0.000938761
0.000895618
0.000852261
0.000804859
0.000754646
0.000707549
0.000666955
0.00063473
0.000609784
0.00058911
0.000573112
0.000561331
0.000552186
0.000542455
0.000535356
0.000529753
0.000523817
0.000515084
0.000501248
0.000479781
0.000448478
0.000410115
0.000367154
0.000324575
0.000290539
0.000266438
0.000245546
0.000221977
0.000197632
0.000176535
0.000157824
0.000141753
0.000131453
0.000125129
0.000117723
0.000106767
9.40388e-05
8.28409e-05
7.45927e-05
6.83779e-05
6.28651e-05
5.75107e-05
5.24628e-05
4.78303e-05
4.37167e-05
3.99242e-05
3.63031e-05
3.27108e-05
2.91905e-05
2.56364e-05
2.21407e-05
1.87832e-05
1.5609e-05
1.28703e-05
1.02828e-05
8.41584e-06
6.41864e-06
5.42604e-06
3.89421e-06
3.54184e-06
2.76099e-06
0.00404709
0.017718
0.0133928
0.00818792
0.00741354
0.00774282
0.00824155
0.00895824
0.00941781
0.00957406
0.00951876
0.00925579
0.0085552
0.00725316
0.00678204
0.00667075
0.00640827
0.00550545
0.00521389
0.00595291
0.00844537
0.0119473
0.013102
0.012712
0.00966141
0.00601475
0.00455939
0.00322828
0.0019583
0.00146828
0.00119479
0.00095106
0.000846025
0.000798198
0.000773925
0.000760856
0.000754448
0.00074885
0.000744538
0.000742445
0.000736366
0.000720523
0.000702407
0.000682131
0.000650734
0.00061084
0.000581595
0.000565059
0.000549303
0.000542957
0.000540257
0.000539504
0.000546984
0.000580955
0.000639735
0.000734587
0.00087006
0.00104883
0.0013046
0.00172145
0.00240867
0.00350485
0.00498628
0.00663567
0.0080094
0.00910562
0.00995424
0.0110635
0.0121486
0.0128597
0.0133595
0.0144979
0.0181522
0.0194989
0.0148048
0.00926571
0.00927407
0.0181784
0.0323908
0.0462378
0.0512691
0.0516004
0.0516331
0.0329771
0.0161278
0.00664724
0.00257906
0.00120947
0.000786492
0.000651521
0.000595428
0.000563615
0.000548298
0.000542652
0.000545728
0.000568288
0.000602915
0.000654094
0.000717496
0.000789009
0.000867661
0.000947138
0.00102847
0.00110432
0.00117529
0.00124564
0.00131916
0.00139627
0.00147218
0.00154383
0.00161647
0.0016811
0.00173059
0.00174821
0.00175023
0.00174123
0.00172812
0.00168674
0.00160767
0.00152167
0.00142631
0.0013331
0.00123953
0.00114638
0.0010593
0.000977583
0.000901087
0.000830608
0.000767153
0.000710802
0.000662302
0.000623602
0.000595881
0.00057736
0.000564005
0.000554595
0.000548509
0.000543474
0.000538787
0.000534656
0.000528716
0.000516471
0.000488621
0.000441508
0.000385603
0.000334447
0.000301536
0.00028651
0.000268639
0.000237072
0.000201413
0.000172759
0.000154246
0.00014304
0.000136543
0.000133285
0.00013026
0.000123595
0.000111727
9.9018e-05
8.74665e-05
7.74851e-05
6.88621e-05
6.13728e-05
5.48985e-05
4.93989e-05
4.47578e-05
4.07418e-05
3.70321e-05
3.34116e-05
2.97915e-05
2.61765e-05
2.26245e-05
1.91421e-05
1.58606e-05
1.27623e-05
1.00853e-05
7.7016e-06
5.92762e-06
4.20747e-06
0.00636323
0.00764771
0.00621731
0.00614427
0.00672419
0.00830067
0.00999403
0.0118698
0.0124983
0.0122164
0.0113292
0.0101401
0.0089933
0.00770232
0.0068601
0.00649018
0.00630673
0.00576498
0.00549827
0.00656398
0.00940151
0.0109948
0.0111676
0.0096567
0.00548705
0.00339567
0.00240659
0.00145512
0.00105076
0.000891505
0.000820585
0.000791795
0.00078574
0.000792921
0.000814884
0.000850221
0.000896737
0.000938512
0.000982177
0.00101337
0.00103329
0.00104045
0.00104002
0.000999296
0.000944924
0.000868256
0.000790383
0.000727387
0.000661024
0.00061476
0.000576371
0.000532224
0.000493116
0.000465965
0.000445994
0.000429117
0.000405648
0.000391518
0.00040241
0.000457992
0.000601269
0.000960008
0.00186387
0.00393779
0.00658998
0.00863281
0.00982805
0.0106113
0.011667
0.0127813
0.0134028
0.0138238
0.0149485
0.0150957
0.0128541
0.00929627
0.0089755
0.0130717
0.0196452
0.0276045
0.0338749
0.031971
0.0204868
0.0106333
0.00498045
0.00221529
0.00113386
0.000762804
0.000631289
0.000580084
0.000561388
0.00055734
0.000565613
0.000605074
0.000680001
0.000808702
0.000980111
0.00119553
0.00144232
0.00170479
0.00191684
0.00207867
0.00222566
0.00233906
0.00242375
0.00249367
0.00255524
0.00261394
0.00265949
0.00268434
0.00269194
0.0026893
0.00266364
0.00259789
0.00248922
0.00234323
0.00218056
0.0020468
0.00192998
0.00180575
0.00166386
0.00151971
0.00138788
0.00127504
0.00118172
0.00110464
0.00104198
0.000989213
0.00094209
0.000899186
0.000858334
0.00081547
0.000768498
0.000718471
0.000670071
0.000625487
0.000588015
0.000563093
0.000548789
0.000541227
0.000537805
0.000536158
0.000534008
0.000529318
0.000516767
0.000476495
0.000398028
0.000333978
0.000291016
0.000271329
0.000257844
0.000232556
0.000201511
0.000176025
0.000160739
0.000153724
0.000150812
0.00014913
0.000147038
0.00014275
0.000131647
0.000114909
9.9413e-05
8.62628e-05
7.52703e-05
6.60715e-05
5.83263e-05
5.19547e-05
4.68413e-05
4.3017e-05
4.01581e-05
3.78108e-05
3.52087e-05
3.18942e-05
2.77206e-05
2.29625e-05
1.83293e-05
1.38949e-05
1.05988e-05
7.18364e-06
0.00330227
0.00537966
0.00516351
0.00605915
0.00897884
0.0109593
0.0123163
0.0135329
0.0144264
0.0143753
0.0138453
0.0122586
0.00989794
0.00815283
0.00708267
0.00646264
0.00620862
0.00584336
0.00594547
0.0078027
0.00930029
0.00980435
0.00929684
0.0061436
0.00305967
0.00189017
0.00128751
0.000950717
0.000844924
0.000818948
0.000814777
0.000828228
0.000890212
0.000988602
0.00112445
0.00128641
0.0014652
0.00164866
0.00181542
0.00194618
0.00202234
0.00205813
0.00206659
0.0019997
0.0018937
0.00172219
0.00155431
0.00137632
0.00120336
0.00102902
0.000883636
0.000764769
0.000642144
0.000550627
0.000494643
0.000436035
0.000382817
0.000323232
0.00028061
0.000256356
0.000249259
0.000294476
0.000463985
0.000992994
0.00264594
0.00604885
0.00885854
0.0103226
0.0111219
0.0121206
0.0131413
0.0136779
0.0139366
0.0139246
0.0129301
0.0099563
0.00905053
0.0101371
0.0148248
0.0141766
0.0153644
0.0129691
0.00778664
0.00401627
0.00202987
0.00111927
0.000759389
0.000624584
0.000576457
0.000563451
0.000563339
0.000585805
0.00066429
0.000838869
0.00114587
0.00165319
0.00230177
0.00264332
0.00286747
0.00298823
0.00304258
0.0030656
0.00307385
0.00307807
0.00308988
0.00310514
0.00312279
0.00313141
0.00313409
0.00312509
0.00309949
0.00305334
0.00298715
0.00289427
0.00276527
0.00258847
0.00236441
0.00217205
0.00203914
0.00191215
0.00175766
0.001581
0.00141349
0.0012837
0.00117685
0.00108629
0.00101672
0.000966077
0.000927208
0.000898175
0.000875827
0.000856213
0.000836187
0.000815159
0.000791494
0.000766384
0.000735669
0.000689757
0.000632926
0.000581342
0.000548358
0.000533073
0.000527523
0.000525681
0.000523938
0.000520171
0.000508958
0.000468653
0.000381304
0.000313591
0.000272177
0.000253632
0.000236007
0.000211177
0.000187075
0.000170342
0.000161331
0.000157438
0.000155947
0.000154835
0.00015273
0.000148004
0.000135999
0.000120677
0.000106284
9.36729e-05
8.28957e-05
7.37147e-05
6.58071e-05
5.92321e-05
5.43038e-05
5.09751e-05
4.89549e-05
4.68795e-05
4.42166e-05
3.95978e-05
3.44828e-05
2.76442e-05
2.23921e-05
1.51903e-05
0.00304077
0.00539088
0.00495947
0.00765569
0.0104845
0.0117819
0.0131094
0.0145332
0.0158237
0.0160555
0.0157651
0.0145928
0.0115066
0.00872631
0.00712857
0.00640773
0.00612233
0.00589544
0.00654957
0.00835905
0.00891916
0.00885221
0.00688348
0.00328893
0.00181002
0.00121307
0.000958791
0.000869635
0.000851692
0.000858434
0.000940685
0.00110075
0.00136512
0.00173748
0.00223512
0.00261784
0.00297064
0.00321798
0.00336826
0.00345574
0.00352693
0.00355749
0.0035665
0.0035415
0.00347252
0.00334725
0.0031619
0.00286831
0.00251172
0.00209924
0.00167109
0.00136561
0.00103519
0.000794247
0.000670421
0.000570675
0.000475348
0.00036933
0.000286505
0.000238017
0.000203828
0.000185301
0.000189261
0.000261264
0.000561003
0.00163488
0.00499371
0.00876484
0.0107752
0.0116552
0.0123912
0.0131244
0.0135619
0.0135786
0.0132967
0.0117906
0.0098361
0.00992118
0.012694
0.0100413
0.00810807
0.00594362
0.00349713
0.00192668
0.001136
0.000779437
0.000633162
0.000578393
0.000564028
0.000565557
0.000591515
0.00069403
0.000954135
0.00148766
0.002455
0.00300069
0.00322522
0.00329345
0.00329122
0.00316439
0.00310139
0.0030482
0.00296461
0.00292845
0.00291809
0.00294666
0.00300535
0.00305387
0.0030988
0.00311951
0.00312482
0.00308892
0.0030314
0.00294595
0.00282742
0.00266408
0.00243712
0.00220928
0.00206669
0.00194444
0.0017939
0.00160198
0.00141284
0.00122815
0.00106306
0.000920968
0.000806794
0.000731673
0.000683824
0.000669594
0.000673246
0.000682503
0.000695736
0.000712494
0.000728194
0.000746689
0.000756968
0.000758921
0.000754063
0.000729093
0.000659212
0.000590998
0.00055131
0.000537451
0.000532435
0.0005254
0.00051862
0.000508105
0.000484032
0.000413912
0.000329538
0.000275008
0.000248002
0.000231798
0.000211371
0.000189277
0.000172471
0.000162815
0.000158022
0.000155706
0.000154324
0.000152433
0.000148382
0.000138287
0.000124478
0.00011075
9.8415e-05
8.79719e-05
7.93199e-05
7.16911e-05
6.5371e-05
5.98692e-05
5.64072e-05
5.33692e-05
5.1741e-05
4.84235e-05
4.56416e-05
3.94467e-05
3.5176e-05
2.69823e-05
0.00317531
0.00545078
0.00488044
0.00894301
0.010998
0.0120508
0.013428
0.0153527
0.0167029
0.0168531
0.0164024
0.0147814
0.0114367
0.00866946
0.00704538
0.00628597
0.00592764
0.00605444
0.00761164
0.00832781
0.00834394
0.00724145
0.00421711
0.00199716
0.00126493
0.00100366
0.000919492
0.000897062
0.00093677
0.00109655
0.00142189
0.0019708
0.00267651
0.00317459
0.003502
0.00373302
0.00384734
0.00390303
0.00392428
0.00393081
0.00393278
0.00393429
0.00394688
0.00395359
0.00395615
0.00394766
0.00390496
0.00380694
0.00362578
0.00339914
0.00307425
0.00256281
0.00195124
0.00137468
0.000949684
0.000734023
0.000612951
0.000499943
0.000358506
0.000261836
0.000206473
0.000174984
0.000155699
0.000148121
0.000174757
0.0003379
0.00102126
0.00357601
0.00833114
0.011225
0.0121306
0.0123254
0.0127392
0.0132146
0.0131915
0.0128582
0.0115332
0.0107049
0.0117257
0.0106223
0.00533697
0.00338341
0.00198205
0.00120696
0.000832604
0.000661444
0.00058881
0.00056609
0.000564054
0.000583399
0.000687358
0.00100443
0.00170417
0.00283665
0.0033208
0.00347624
0.00349265
0.00335454
0.00318677
0.00294559
0.00265943
0.00248486
0.00238716
0.00224006
0.00217214
0.00214496
0.00215221
0.00223266
0.00240387
0.002624
0.00282183
0.00289803
0.00291418
0.00287107
0.00278803
0.00265902
0.00244602
0.00220624
0.0020568
0.00194336
0.0018004
0.00160427
0.0013494
0.0010807
0.000842328
0.000652794
0.000525606
0.000451277
0.000411748
0.000401543
0.000402563
0.000408533
0.000423582
0.000455957
0.000546833
0.000640365
0.00069752
0.000729752
0.000745201
0.000747167
0.000744626
0.00072975
0.000666968
0.000594756
0.00056271
0.000548178
0.000536576
0.000525211
0.000512759
0.000488335
0.000422659
0.000332611
0.000273452
0.000243309
0.000226061
0.000207075
0.000186622
0.000169983
0.000159528
0.000154333
0.000151857
0.000150076
0.000147506
0.000141879
0.00013178
0.000119956
0.000107928
9.65546e-05
8.71417e-05
7.90575e-05
7.26833e-05
6.62601e-05
6.14395e-05
5.64638e-05
5.39462e-05
5.08455e-05
4.91634e-05
4.55913e-05
4.29725e-05
3.6923e-05
0.00320839
0.00545376
0.00498315
0.00957065
0.0110903
0.0120091
0.0131369
0.0150162
0.0166687
0.0168458
0.0161855
0.0142962
0.0109494
0.00837454
0.00679408
0.00604945
0.00579055
0.00644521
0.00802121
0.00824343
0.00751897
0.00542218
0.0025265
0.00143789
0.00109634
0.000994607
0.000963417
0.001032
0.0012776
0.00183711
0.00270409
0.0033667
0.00370692
0.00391878
0.00400661
0.00403714
0.00403928
0.00400131
0.00398164
0.00395861
0.00394831
0.0039446
0.00395014
0.00397244
0.00399483
0.00400623
0.00400521
0.00396955
0.00387767
0.00376823
0.00365865
0.00332946
0.00294535
0.00242663
0.00163782
0.00103762
0.000743536
0.000605311
0.000463275
0.000308106
0.000226055
0.000179266
0.000152812
0.000137239
0.000130326
0.000140727
0.000233617
0.000667642
0.00249573
0.00782933
0.011625
0.0125308
0.0124713
0.0125471
0.0129142
0.0128713
0.0125127
0.0115187
0.0117637
0.01119
0.00588463
0.00239353
0.00138145
0.000936566
0.000722676
0.000618781
0.000572869
0.000562039
0.00056851
0.000621392
0.000825088
0.00139334
0.00268956
0.00353919
0.00376762
0.00380442
0.00374917
0.00356531
0.00334691
0.00317079
0.00289087
0.00271047
0.00245325
0.00232845
0.00209257
0.00198753
0.00190331
0.00186247
0.00184396
0.00189093
0.00204189
0.00233384
0.00249805
0.00253514
0.00251785
0.00245932
0.00233085
0.00209504
0.00194862
0.00186972
0.00176355
0.0015492
0.00124728
0.000947024
0.000701937
0.000529898
0.00042695
0.000372351
0.000349488
0.000344935
0.000346656
0.000354281
0.00037267
0.000414752
0.000542761
0.000772395
0.000894071
0.000907314
0.000895427
0.000857488
0.000791115
0.0007545
0.000737007
0.000705666
0.000645961
0.000605685
0.000579418
0.000556201
0.000539162
0.000524758
0.000496681
0.000421891
0.000327941
0.000267455
0.000235901
0.000217656
0.000199221
0.000180028
0.000164215
0.000153008
0.000146369
0.000143367
0.000141713
0.000138793
0.000132344
0.000123303
0.000113402
0.000102725
9.29402e-05
8.39201e-05
7.72721e-05
7.0795e-05
6.59372e-05
6.02745e-05
5.63626e-05
5.21469e-05
5.01162e-05
4.71863e-05
4.55729e-05
4.22098e-05
0.00322351
0.00531554
0.00527497
0.00974806
0.0106486
0.0115695
0.0124289
0.0138499
0.0157445
0.0162294
0.0152437
0.0128128
0.00971011
0.00754656
0.00599643
0.00524692
0.0058858
0.00739146
0.00827656
0.00803415
0.00656958
0.00337255
0.00178302
0.00124711
0.00109264
0.001045
0.00112249
0.00144242
0.00222516
0.0031293
0.00363488
0.00389024
0.00400028
0.00404278
0.00405114
0.0040273
0.00398128
0.00392934
0.0039014
0.00388585
0.00388274
0.00390637
0.00391366
0.00389065
0.0038544
0.00381908
0.00378053
0.00376735
0.00378033
0.00381732
0.00381556
0.00357797
0.00334136
0.00294505
0.00250444
0.00171337
0.00105236
0.000737017
0.000549838
0.000367009
0.000251185
0.000187939
0.000154196
0.000135451
0.000125701
0.000122543
0.000130336
0.00019951
0.000551968
0.00219028
0.00806225
0.0121664
0.0129051
0.0125922
0.0125486
0.0126961
0.0126099
0.0120877
0.0120146
0.0117373
0.0072672
0.00254213
0.00119018
0.000813126
0.0006753
0.000600137
0.000566172
0.000561864
0.000583245
0.000728315
0.00117284
0.00222957
0.0036026
0.00408815
0.00421578
0.00428073
0.00443103
0.00454442
0.0047765
0.00499841
0.00505207
0.00467534
0.00425441
0.00381677
0.00302864
0.00258138
0.00217488
0.00193353
0.00181439
0.00176313
0.00174442
0.00179926
0.00201065
0.00211548
0.00212503
0.00208851
0.00201585
0.00186516
0.0017516
0.00170441
0.00163581
0.00147001
0.00118572
0.000895661
0.000653744
0.000485873
0.000391831
0.000350899
0.000339572
0.0003392
0.000343557
0.000360646
0.000407007
0.000522552
0.000870332
0.00168032
0.00212542
0.0021765
0.0021239
0.00194585
0.0015051
0.0010716
0.000845584
0.000753095
0.000710462
0.000694111
0.000673457
0.000630998
0.000591104
0.000570402
0.000551308
0.00050965
0.000409817
0.000314593
0.000256141
0.000224901
0.000206234
0.000188901
0.000171272
0.00015613
0.000144651
0.000137236
0.000133562
0.0001317
0.000128664
0.000122464
0.000115219
0.000106515
9.77479e-05
8.82361e-05
8.07703e-05
7.38528e-05
6.90611e-05
6.37498e-05
5.96592e-05
5.47564e-05
5.1631e-05
4.80892e-05
4.62552e-05
4.38788e-05
0.00326942
0.0051526
0.00546699
0.00929637
0.0100856
0.010539
0.0111738
0.0119295
0.0131073
0.0138643
0.0126175
0.0100743
0.00791013
0.00641257
0.00554078
0.00521954
0.00636907
0.00798535
0.00827829
0.0075299
0.00501399
0.00237654
0.00149351
0.00121942
0.00114091
0.00119279
0.0015239
0.00244142
0.003302
0.00374595
0.00395084
0.00403823
0.00407791
0.00409575
0.00410032
0.00408779
0.0040895
0.00414545
0.00424195
0.00428835
0.00434846
0.004378
0.00439138
0.00439687
0.00435508
0.00423907
0.00405902
0.00381548
0.00362117
0.00354605
0.00353546
0.00361233
0.00352299
0.00322651
0.00287883
0.00246656
0.00161214
0.00105799
0.000668432
0.000429523
0.000270749
0.000192327
0.000155839
0.000135617
0.000123693
0.000119465
0.000119189
0.000128798
0.000204945
0.000616989
0.00272157
0.00936315
0.0129386
0.0132685
0.0127249
0.0125443
0.0125191
0.0122646
0.0122069
0.0120719
0.00936561
0.00315252
0.00125588
0.000804988
0.000670894
0.000597711
0.000563703
0.000562241
0.000609473
0.000793914
0.00135914
0.00278147
0.00413126
0.00461181
0.00492886
0.00534365
0.00603661
0.00728964
0.00891926
0.0101764
0.0107043
0.0107439
0.00981421
0.00847829
0.00684832
0.00510786
0.00378632
0.00278706
0.00218685
0.00187052
0.00172701
0.0016746
0.00168205
0.00181075
0.00186857
0.00184093
0.00176631
0.0016781
0.00161087
0.00156252
0.0015208
0.00142031
0.00116146
0.000866913
0.000624226
0.000459971
0.00037274
0.00034146
0.000337933
0.000343473
0.000366719
0.000429282
0.000575656
0.000916769
0.00183837
0.00394431
0.00553463
0.0059869
0.00593915
0.00566519
0.00495237
0.00335785
0.00192478
0.00116372
0.000849988
0.000742174
0.00071858
0.000712326
0.000694739
0.000645267
0.000615164
0.000581404
0.000500041
0.000382795
0.000292266
0.000239273
0.000210349
0.000192634
0.000176905
0.000160939
0.000146763
0.000135504
0.000127891
0.000123599
0.000121584
0.000118831
0.000114392
0.000107897
0.000101003
9.24888e-05
8.45738e-05
7.66955e-05
7.10988e-05
6.58736e-05
6.22479e-05
5.78396e-05
5.43091e-05
5.03115e-05
4.72751e-05
4.46555e-05
0.00331267
0.00497055
0.00554058
0.009091
0.00978082
0.0100119
0.0101558
0.0103277
0.0105388
0.0107351
0.00977771
0.00817442
0.00691973
0.00608445
0.00559183
0.00562252
0.00749992
0.00834321
0.00820094
0.00682796
0.00354686
0.00190677
0.00139606
0.00126141
0.00126099
0.00154549
0.00240896
0.00329492
0.00374372
0.00395044
0.00404577
0.00412203
0.00417597
0.00422499
0.00430647
0.00440546
0.00446676
0.004485
0.00444769
0.00443168
0.00443038
0.00443976
0.0044805
0.00453189
0.00457188
0.00459249
0.00460328
0.00452837
0.00427951
0.00378873
0.00347645
0.00340659
0.00349324
0.00341457
0.0030949
0.00283055
0.00234192
0.00162411
0.000965595
0.000546986
0.00031341
0.000198931
0.000152548