/*--------------------------------*- C++ -*----------------------------------*\
  =========                 |
  \\      /  F ield         | OpenFOAM: The Open Source CFD Toolbox
   \\    /   O peration     | Website:  https://openfoam.org
    \\  /    A nd           | Version:  7
     \\/     M anipulation  |
\*---------------------------------------------------------------------------*/
FoamFile
{
    version     2.0;
    format      ascii;
    class       volScalarField;
    location    "0.098";
    object      nut;
}
// * * * * * * * * * * * * * * * * * * * * * * * * * * * * * * * * * * * * * //

dimensions      [0 2 -1 0 0 0 0];

internalField   nonuniform List<scalar> 
12225
(
0
0
0
0
0
0
0
0
0
0
0
0
0
0
0
0
0
0
0
0
0
0
0
0
0
0
0
1.07199e-11
0
0
0
0
0
0
0
0
0
7.89764e-10
0
0
0
0
0
0
0
0
0
0
0
0
0
0
0
0
3.18305e-08
2.4658e-08
8.21396e-09
1.76707e-09
0
0
0
0
0
0
0
0
0
0
0
1.72315e-10
0
0
2.73055e-07
3.71349e-07
3.92696e-07
2.49808e-08
0
0
0
0
0
0
0
4.59334e-10
9.10908e-10
1.36918e-09
1.01185e-09
1.17325e-10
0
0
3.96207e-07
1.76328e-07
1.68778e-07
9.97163e-08
0
0
0
4.09713e-09
0
0
2.93619e-09
3.65457e-09
2.24575e-09
3.40247e-09
4.99846e-09
3.5396e-09
1.8238e-09
0
2.12061e-07
4.49957e-08
7.45004e-08
8.06179e-08
8.32396e-11
0
0
2.11379e-10
0
0
7.93123e-10
6.28249e-09
1.08537e-08
1.37058e-08
1.50413e-08
1.38486e-08
1.13581e-08
4.90722e-09
5.43267e-08
1.8756e-08
1.32763e-07
1.61585e-07
3.12918e-08
0
4.09209e-08
3.62436e-08
2.07316e-08
1.67365e-08
1.8141e-08
1.69944e-08
1.35782e-08
1.2315e-08
1.73899e-08
2.60068e-08
3.3747e-08
3.51689e-08
0
1.6055e-07
4.94148e-07
5.92051e-07
2.75102e-07
1.05862e-07
2.07628e-07
2.02248e-07
1.64574e-07
1.19121e-07
7.95463e-08
5.13425e-08
3.54296e-08
3.35636e-08
4.51125e-08
6.03425e-08
7.02171e-08
6.65657e-08
9.74813e-08
3.72866e-07
7.00346e-07
1.08195e-06
3.19491e-07
1.38714e-07
3.22398e-07
4.96459e-07
7.02165e-07
7.59849e-07
5.24517e-07
2.50432e-07
1.17046e-07
1.18543e-07
1.62776e-07
1.84528e-07
1.7523e-07
1.41127e-07
0
5.2125e-07
8.34181e-07
5.74864e-07
0
0
2.33108e-07
7.5427e-07
1.42527e-06
1.5361e-06
9.28518e-07
4.31076e-07
2.1234e-07
1.35816e-07
1.17554e-07
1.14106e-07
1.09475e-07
1.00904e-07
0
1.14444e-07
1.21109e-06
1.52821e-07
0
0
0
9.16783e-08
4.04274e-07
6.60641e-07
5.12631e-07
3.74842e-07
2.96058e-07
2.05013e-07
9.97124e-08
1.6984e-08
0
0
0
0
1.15108e-06
7.3269e-07
3.99478e-07
1.67581e-07
4.70797e-08
7.62792e-08
2.08559e-07
4.30477e-07
5.16768e-07
5.30451e-07
5.09328e-07
4.0274e-07
1.93661e-07
0
0
0
0
1.1399e-07
2.71367e-07
2.28656e-07
3.78221e-07
3.6599e-07
1.65853e-07
2.62522e-07
6.93979e-07
1.20279e-06
8.78687e-07
7.13167e-07
6.09651e-07
4.5678e-07
2.44474e-07
5.38616e-08
1.97216e-08
8.88568e-08
3.44085e-07
1.88196e-07
0
0
0
0
0
0
5.51106e-07
1.07592e-06
7.62666e-07
6.4828e-07
5.78654e-07
4.41278e-07
2.20303e-07
3.3852e-08
0
0
5.23345e-07
2.32225e-07
1.75996e-07
9.81148e-08
0
0
0
7.1471e-08
3.09441e-07
3.59039e-07
3.24166e-07
3.17101e-07
2.99453e-07
2.08503e-07
7.99283e-08
0
0
0
7.70795e-08
5.62644e-07
8.32568e-07
7.9879e-09
0
0
0
2.91769e-08
2.46996e-07
2.82937e-07
2.79376e-07
2.94696e-07
2.64431e-07
1.64882e-07
6.35621e-08
1.21224e-08
4.63164e-09
1.74194e-08
0
0
3.52166e-07
1.9826e-07
0
0
0
0
0
3.00062e-08
1.15703e-07
1.29241e-07
1.01055e-07
6.15545e-08
3.8052e-08
4.46506e-08
7.47707e-08
1.09965e-07
0
0
0
0
6.89806e-08
7.13835e-08
0
0
0
2.9136e-09
1.54483e-07
1.62934e-07
9.64771e-08
3.3342e-09
0
0
0
1.11658e-08
1.37311e-07
3.95253e-07
1.80964e-07
0
0
0
0
0
0
0
1.26944e-07
1.93245e-07
1.62284e-07
3.00153e-08
0
0
0
3.19857e-10
1.90824e-07
0
0
0
0
0
0
0
0
7.20271e-08
2.336e-07
3.26127e-07
2.1582e-07
3.97558e-08
0
0
1.53804e-08
7.08171e-08
2.72379e-07
1.36987e-07
0
0
0
0
0
0
4.15701e-08
1.43237e-07
3.12225e-07
4.29307e-07
4.29811e-07
3.37039e-07
2.19566e-07
1.30012e-07
8.7615e-08
9.17249e-08
0
0
0
0
0
0
0
0
4.30029e-08
1.33502e-07
2.01392e-07
3.00446e-07
3.80604e-07
3.88989e-07
3.313e-07
2.40677e-07
1.50284e-07
9.19366e-08
0
0
0
0
0
0
0
1.76389e-08
7.14787e-08
8.79257e-08
1.04632e-07
1.33997e-07
1.67083e-07
1.85799e-07
1.69573e-07
1.09427e-07
2.05934e-08
0
0
0
0
0
2.07149e-09
2.56243e-08
1.25392e-08
0
0
0
0
0
0
0
0
0
0
0
0
0
0
0
3.84419e-08
7.86852e-08
7.76841e-08
7.16349e-08
5.97073e-08
3.23622e-08
0
0
0
0
0
0
0
0
0
0
0
0
0
0
0
0
0
0
0
0
0
0
0
0
0
0
4.99885e-09
0
0
0
0
0
0
0
0
0
0
0
0
0
0
0
0
0
7.58407e-09
0
0
0
0
0
0
0
0
0
0
0
0
0
0
0
0
0
6.22111e-08
0
0
0
0
0
0
0
0
0
0
0
0
0
0
0
0
0
0
0
0
0
0
1.09039e-06
1.41383e-06
8.60033e-07
1.17043e-07
0
0
0
0
0
1.77163e-06
1.94544e-06
1.23765e-06
8.71836e-07
8.03846e-07
1.06448e-06
1.22868e-06
6.37733e-07
1.74348e-08
0
0
0
0
0
0
1.25493e-07
2.31542e-07
3.03983e-07
3.27588e-07
3.12875e-07
2.93106e-07
2.59287e-07
2.09378e-07
1.58635e-07
1.07251e-07
5.23128e-08
0
0
0
0
0
0
0
0
0
0
0
0
0
0
0
0
0
6.29311e-08
2.99805e-07
0
0
0
0
0
0
0
0
0
0
0
0
4.48514e-07
2.92907e-07
7.24508e-07
4.49459e-06
0
0
0
0
0
0
0
6.15299e-08
1.0952e-05
3.52553e-05
5.86638e-05
5.64424e-05
3.02911e-05
8.01004e-06
1.32363e-06
2.12774e-07
4.24625e-08
3.88438e-08
5.2179e-08
5.65007e-08
5.03953e-08
4.03759e-08
3.15135e-08
2.1981e-08
1.41297e-08
7.41582e-09
1.36326e-09
0
0
0
0
0
0
0
0
0
0
0
0
0
0
0
0
0
0
0
0
0
0
0
0
0
1.66778e-08
1.19353e-08
1.519e-09
0
0
0
0
0
0
0
0
0
0
0
0
0
0
0
0
0
0
0
0
0
0
0
0
0
0
0
0
0
0
0
0
0
0
0
0
0
0
1.21761e-11
2.76576e-11
2.24694e-11
4.97108e-11
3.31385e-11
9.88511e-11
5.68532e-11
1.97376e-10
2.18025e-10
4.06051e-10
2.51477e-09
1.64732e-10
6.02591e-07
1.27e-06
0
4.235e-08
1.6826e-06
2.65941e-06
2.42942e-06
1.47215e-06
2.60826e-07
0
0
0
0
0
0
0
6.16558e-07
1.2071e-06
9.06242e-07
1.36482e-07
0
0
0
0
0
0
0
0
0
2.24599e-08
1.07615e-07
1.88919e-07
2.11353e-07
2.08916e-07
1.98804e-07
1.67851e-07
1.31936e-07
9.90733e-08
6.44443e-08
3.07403e-08
0
0
0
0
0
0
0
0
0
0
0
0
0
0
1.68116e-09
4.17496e-08
1.46849e-07
4.42864e-07
7.28073e-07
5.58876e-07
0
0
0
0
0
0
0
0
0
0
0
0
5.27761e-08
0
0
2.97893e-07
2.4497e-06
2.0578e-07
0
0
0
0
7.45171e-06
1.74325e-05
1.82139e-05
1.4158e-05
9.07147e-06
5.51107e-06
2.56778e-06
9.82446e-07
3.33482e-07
1.28096e-07
8.94816e-08
8.36958e-08
7.75041e-08
6.81115e-08
5.76435e-08
4.67895e-08
3.58691e-08
2.51348e-08
1.45399e-08
4.11414e-09
0
0
0
0
0
0
0
0
0
0
0
0
0
0
0
0
0
0
0
0
0
0
0
0
0
0
2.99891e-08
3.34244e-08
2.52231e-08
1.64414e-08
9.57153e-09
4.65825e-09
1.25358e-09
0
0
0
0
0
0
0
0
0
0
0
0
0
0
0
0
0
0
0
0
0
0
0
0
0
0
0
0
0
0
0
0
1.50621e-10
2.17381e-10
2.86633e-10
2.51262e-10
3.24037e-10
2.4607e-10
3.79298e-10
2.67878e-10
4.56203e-10
4.81847e-10
4.55102e-10
1.78312e-09
0
7.71512e-06
3.88693e-06
1.14401e-06
1.13575e-06
2.55911e-06
3.22137e-06
2.48911e-06
1.45706e-06
5.29498e-07
0
0
0
0
0
0
0
0
0
0
0
0
0
0
0
0
0
0
0
0
0
0
0
0
0
4.40148e-08
6.7006e-08
7.08931e-08
6.01742e-08
4.24603e-08
2.20006e-08
1.04205e-09
0
0
0
0
0
0
0
0
0
0
0
4.88907e-08
1.2089e-07
1.8054e-07
2.31028e-07
3.3077e-07
4.87953e-07
5.42828e-07
4.04745e-07
2.33992e-07
4.15543e-08
0
0
0
0
0
0
0
0
0
0
0
0
0
0
1.89273e-06
6.32381e-06
0
0
0
3.35255e-06
4.30395e-06
3.44457e-06
2.30907e-06
1.47153e-06
1.10345e-06
1.02807e-06
8.48096e-07
6.16856e-07
4.6121e-07
4.17837e-07
4.18172e-07
4.01426e-07
3.55121e-07
2.96303e-07
2.38112e-07
1.86184e-07
1.40699e-07
9.95517e-08
6.14114e-08
2.4557e-08
0
0
0
0
0
0
0
0
0
0
0
0
0
0
0
0
0
0
0
0
0
0
0
0
0
0
0
0
0
0
0
9.67001e-09
1.74872e-08
2.15999e-08
2.3246e-08
2.32741e-08
2.21135e-08
2.01594e-08
1.78047e-08
1.50094e-08
1.18035e-08
8.19908e-09
4.51536e-09
1.64815e-09
0
0
0
0
0
0
0
0
0
0
0
0
0
0
0
0
0
0
0
0
1.12586e-10
6.07326e-10
8.4946e-10
1.0767e-09
1.03053e-09
1.1638e-09
9.59269e-10
1.09949e-09
8.80555e-10
8.88709e-10
1.17461e-09
9.5723e-11
2.54872e-09
0
4.64775e-06
4.83076e-06
2.41351e-06
1.78819e-06
3.1796e-06
2.80886e-06
1.71242e-06
1.15229e-06
8.12841e-07
4.75273e-07
0
0
0
0
0
0
0
0
0
0
0
0
0
0
0
0
0
0
0
0
0
0
0
0
0
0
0
0
0
0
0
0
0
0
5.54361e-08
1.50721e-07
2.03449e-07
2.24887e-07
2.25179e-07
2.1847e-07
2.17102e-07
2.29782e-07
2.5475e-07
2.83128e-07
3.05061e-07
3.27332e-07
3.58239e-07
3.8308e-07
3.58078e-07
2.78306e-07
2.51898e-07
2.95827e-07
3.56302e-07
3.67973e-07
1.76987e-07
0
0
0
0
0
0
0
0
0
0
0
1.82603e-07
8.19868e-07
0
0
3.48337e-06
4.03224e-06
2.20601e-06
1.15973e-06
6.50119e-07
3.95413e-07
2.99071e-07
3.6619e-07
4.94709e-07
5.7472e-07
6.30617e-07
6.30006e-07
5.65636e-07
4.76173e-07
3.90115e-07
3.16982e-07
2.49846e-07
1.8618e-07
1.24915e-07
6.85289e-08
2.16901e-08
0
0
0
0
0
0
0
0
0
0
0
0
0
0
0
0
0
0
0
0
0
0
0
0
0
0
0
0
0
0
0
0
0
0
0
0
0
0
0
0
0
0
0
0
1.29834e-08
1.48241e-08
0
0
0
0
0
0
0
0
0
0
1.30542e-09
4.94328e-09
5.95561e-09
4.99188e-09
2.85147e-09
6.93335e-10
0
0
0
0
3.10312e-10
9.08529e-10
1.48355e-09
1.7376e-09
1.97292e-09
1.9379e-09
1.7007e-09
1.88787e-09
5.0607e-10
2.45001e-09
0
4.72639e-09
0
1.69779e-06
2.23158e-06
2.06383e-06
2.73593e-06
2.24266e-06
7.39781e-07
4.72e-07
4.37599e-07
4.2546e-07
3.97785e-07
3.23663e-07
0
0
0
0
0
0
0
0
0
0
0
0
0
0
0
0
0
0
0
0
0
0
0
0
7.14041e-08
3.49793e-07
6.77975e-07
1.01911e-06
1.20418e-06
7.37517e-07
0
0
0
0
0
0
9.93494e-10
1.67433e-07
2.84879e-07
3.57063e-07
3.8633e-07
3.84841e-07
3.67249e-07
3.46295e-07
3.32042e-07
3.22136e-07
3.12688e-07
2.95043e-07
2.6889e-07
2.45641e-07
2.36558e-07
2.58725e-07
3.37605e-07
2.83656e-07
0
0
0
0
0
0
0
0
0
0
0
0
0
0
0
1.59597e-06
3.94173e-06
2.67688e-06
1.25085e-06
6.75093e-07
4.70434e-07
4.48177e-07
5.36307e-07
5.03186e-07
3.22541e-07
1.73892e-07
8.22156e-08
2.73776e-08
0
0
0
0
0
0
0
0
0
0
0
0
0
0
0
0
0
0
0
0
0
0
0
0
0
0
0
0
0
0
0
0
0
0
0
0
0
0
0
0
0
0
0
0
0
0
0
0
0
0
0
0
0
0
1.12048e-08
6.47475e-09
0
0
0
0
1.98829e-08
0
0
0
0
0
0
0
0
0
0
0
0
0
0
0
0
0
0
0
0
2.9693e-09
0
7.80482e-09
0
1.32275e-08
0
1.56981e-07
4.79597e-07
1.26117e-06
2.43177e-06
0
0
0
0
3.63573e-07
6.59126e-07
9.06999e-07
9.96431e-07
3.29535e-07
0
0
0
0
0
0
0
0
0
0
0
0
0
0
0
0
0
0
0
3.80236e-08
4.24404e-07
9.32224e-07
1.57933e-06
2.40406e-06
3.49731e-06
5.04512e-06
7.33248e-06
8.25186e-06
0
0
0
0
0
0
0
0
0
0
8.09164e-08
3.06715e-07
3.91136e-07
4.09332e-07
3.92853e-07
3.64914e-07
3.24543e-07
2.84671e-07
2.50726e-07
2.22678e-07
2.06493e-07
1.95158e-07
2.02382e-07
2.84268e-07
3.24231e-07
1.78874e-07
0
0
0
0
0
0
0
0
0
0
0
0
0
0
7.62341e-07
1.21137e-06
1.12258e-06
8.87446e-07
6.8339e-07
4.56997e-07
2.41597e-07
1.19114e-07
6.41234e-08
3.23595e-08
8.31274e-09
0
0
0
0
0
0
0
0
0
0
0
0
0
0
0
0
0
0
0
0
0
0
0
0
0
0
0
0
0
0
0
0
0
0
0
0
0
0
0
0
0
0
0
0
0
0
0
0
0
0
0
0
0
0
0
0
1.99328e-08
5.76133e-08
1.06045e-08
0
0
0
2.86588e-08
4.22428e-08
2.63939e-09
0
0
0
0
0
0
0
0
0
0
0
0
0
0
0
0
0
0
0
1.61662e-08
0
3.60221e-08
0
0
7.74162e-08
5.5046e-07
0
0
0
0
2.01618e-07
6.32181e-07
9.75985e-07
1.18977e-06
1.29743e-06
1.13615e-06
0
0
0
0
0
0
0
0
0
0
0
0
0
0
0
0
0
6.44161e-08
5.55184e-07
1.17705e-06
1.87706e-06
2.60337e-06
3.21266e-06
3.8339e-06
4.51963e-06
5.29089e-06
5.76598e-06
3.56931e-06
0
0
0
0
0
0
0
0
0
0
0
0
0
2.42987e-07
3.7678e-07
4.01201e-07
3.60467e-07
3.01822e-07
2.55529e-07
2.19381e-07
1.92414e-07
1.69042e-07
1.35323e-07
7.33599e-08
1.4437e-07
4.00129e-07
4.51311e-07
2.52224e-07
1.75283e-07
1.73253e-07
0
0
0
0
0
0
0
0
0
0
1.0687e-07
2.4557e-07
2.82173e-07
2.49231e-07
1.71202e-07
9.43074e-08
4.84922e-08
2.76009e-08
1.77293e-08
8.90065e-09
0
0
0
0
2.39895e-09
3.34723e-08
6.8788e-08
1.07548e-07
1.31626e-07
5.75662e-08
0
0
0
0
0
0
0
0
0
0
0
0
0
0
0
0
0
0
0
0
0
0
0
0
0
0
0
0
0
0
0
0
0
0
0
0
0
0
0
0
0
0
4.85254e-09
2.24276e-08
1.55299e-08
0
0
0
3.56463e-08
9.04502e-08
4.913e-08
5.48532e-09
2.42158e-09
2.51392e-08
6.0328e-08
8.79801e-08
7.70009e-08
5.70761e-08
4.52418e-08
3.06415e-08
6.08204e-09
0
0
0
0
0
0
0
1.85496e-09
9.47328e-09
1.24029e-08
2.09525e-08
1.41949e-08
2.2228e-08
5.14989e-09
2.52228e-08
1.43405e-09
2.94004e-08
0
0
5.55297e-09
2.29096e-07
0
0
0
1.02624e-07
3.03323e-07
4.89186e-07
6.89446e-07
8.41461e-07
9.18964e-07
9.41296e-07
5.50434e-07
0
0
0
0
0
0
0
0
0
0
0
0
0
0
0
4.41839e-07
1.09805e-06
1.75562e-06
2.1848e-06
2.21641e-06
2.04047e-06
1.83514e-06
1.66565e-06
1.54265e-06
1.41384e-06
1.18621e-06
7.55749e-07
1.50947e-07
0
0
0
0
0
0
0
0
0
0
0
0
0
2.31642e-08
3.02428e-07
3.76072e-07
3.31578e-07
2.66666e-07
2.19284e-07
1.90039e-07
1.68195e-07
1.38678e-07
7.18433e-08
0
0
2.26219e-07
5.15314e-07
5.34707e-07
4.33053e-07
2.41028e-07
0
0
0
0
0
0
0
0
0
0
6.43812e-08
7.36816e-08
7.01581e-08
5.51759e-08
3.47829e-08
1.94296e-08
1.40172e-08
1.18908e-08
5.13585e-09
0
0
0
0
0
0
0
0
0
0
0
1.68748e-07
9.01991e-08
0
0
0
0
0
0
0
0
0
0
6.0659e-09
7.18066e-08
3.72922e-08
0
0
0
0
0
0
0
0
0
0
0
0
0
0
0
0
0
0
0
0
0
0
0
0
0
0
0
1.88239e-08
4.39875e-08
4.99106e-08
3.41138e-08
9.01242e-09
1.28045e-08
7.42438e-08
1.29729e-07
8.72449e-08
5.00658e-08
5.07782e-08
7.11431e-08
9.98028e-08
1.24019e-07
1.14853e-07
8.54543e-08
5.48848e-08
1.87788e-08
0
0
0
0
0
1.97426e-08
1.90938e-08
1.51075e-08
1.55398e-08
1.45323e-08
2.02933e-08
2.34943e-08
3.74644e-08
2.43755e-08
3.0554e-08
8.57683e-09
2.42519e-08
0
0
0
4.37331e-08
0
0
5.92898e-08
2.76772e-07
4.20805e-07
4.6787e-07
4.87953e-07
5.28208e-07
5.85984e-07
6.6182e-07
7.09468e-07
0
0
0
0
0
0
0
0
0
0
0
0
0
1.57176e-07
8.55263e-07
1.55283e-06
1.86097e-06
1.56642e-06
1.06164e-06
6.76288e-07
4.79158e-07
4.47877e-07
5.2628e-07
6.4161e-07
7.1917e-07
6.82542e-07
4.93268e-07
2.29848e-07
8.30778e-08
1.68103e-07
4.45199e-07
7.7791e-07
1.02643e-06
1.09444e-06
9.22002e-07
4.6333e-07
0
0
0
0
0
0
0
2.68514e-07
3.304e-07
2.67652e-07
2.08746e-07
1.70797e-07
1.4892e-07
1.31851e-07
1.01218e-07
2.65359e-08
0
0
8.59838e-08
5.00822e-07
7.10621e-07
5.54892e-07
1.94437e-07
0
0
0
0
0
0
0
0
0
0
1.49725e-08
2.72551e-08
2.57332e-08
1.65821e-08
1.07324e-08
1.16491e-08
1.14069e-08
2.0408e-09
0
0
0
3.53058e-08
3.51745e-08
0
0
0
0
0
0
5.42637e-07
6.03624e-07
3.79987e-07
2.02268e-07
7.6695e-08
0
0
0
0
0
0
0
1.1458e-07
2.02284e-07
1.68049e-07
1.61522e-08
0
0
0
0
0
0
0
0
0
0
0
0
0
0
0
0
0
0
0
0
0
0
0
0
0
0
0
4.877e-08
7.79987e-08
8.10902e-08
6.34756e-08
4.73364e-08
6.34291e-08
1.33641e-07
1.76282e-07
1.25779e-07
9.694e-08
9.91056e-08
1.11994e-07
1.29247e-07
1.40957e-07
1.16446e-07
6.89575e-08
1.96113e-08
0
0
0
0
0
2.88942e-08
4.5581e-08
3.32353e-08
2.38498e-08
1.58245e-08
1.29893e-08
1.00713e-08
1.97103e-08
2.51974e-08
3.42491e-08
1.04263e-08
1.72149e-08
0
0
0
0
1.4166e-07
1.77701e-07
2.04243e-07
2.8049e-07
3.75094e-07
4.31943e-07
4.27935e-07
4.14165e-07
4.23181e-07
4.57186e-07
5.40104e-07
3.53622e-07
0
0
0
0
0
0
0
0
0
0
0
4.54835e-07
1.30025e-06
1.87742e-06
1.66152e-06
1.00184e-06
4.66215e-07
1.88847e-07
1.39648e-07
2.65277e-07
5.15172e-07
8.30168e-07
1.12478e-06
1.26844e-06
1.07346e-06
3.95733e-07
0
0
0
0
0
0
1.42582e-07
6.43984e-07
1.01577e-06
1.14372e-06
8.63688e-07
2.0468e-09
0
0
0
0
1.83381e-08
2.75603e-07
2.67789e-07
2.05466e-07
1.5916e-07
1.30233e-07
1.10327e-07
9.88864e-08
7.64203e-08
1.47856e-08
0
0
4.94177e-08
4.13931e-07
6.19135e-07
4.93269e-07
3.99466e-08
0
0
0
0
0
0
0
0
0
0
0
3.98315e-09
3.41184e-09
5.01183e-09
9.32362e-09
9.18653e-09
0
0
8.74601e-09
9.02596e-08
1.37673e-07
1.18482e-07
6.88465e-08
0
0
0
0
0
8.32917e-07
9.05855e-07
5.08519e-07
2.59687e-07
1.03703e-07
1.32739e-09
0
0
0
0
0
0
1.44516e-07
2.58214e-07
2.50715e-07
1.18395e-07
0
0
0
0
0
0
0
0
0
0
0
0
0
0
0
0
0
0
0
0
0
0
0
0
0
0
0
4.53796e-08
1.13021e-07
1.2919e-07
1.21277e-07
1.06581e-07
1.0678e-07
1.45379e-07
2.23288e-07
2.32723e-07
1.71196e-07
1.43635e-07
1.38723e-07
1.40662e-07
1.45123e-07
1.37389e-07
8.65218e-08
1.83011e-08
0
0
0
0
0
2.11408e-10
4.99929e-08
5.76812e-08
4.25672e-08
2.50841e-08
1.3668e-08
3.8165e-09
2.75674e-09
4.54198e-09
2.17828e-08
1.05913e-08
1.2603e-08
0
0
0
0
1.70339e-07
2.02574e-07
1.63649e-07
1.54458e-07
2.08135e-07
3.22799e-07
4.17943e-07
4.33987e-07
4.23302e-07
4.54934e-07
5.64946e-07
7.7415e-07
0
0
0
0
0
0
0
0
0
0
8.01573e-07
1.76541e-06
2.16728e-06
1.55957e-06
7.51836e-07
2.43722e-07
5.88686e-08
1.21705e-07
3.7122e-07
7.61866e-07
1.24607e-06
1.76618e-06
2.22554e-06
2.38913e-06
1.80593e-06
2.09742e-07
0
0
0
0
0
0
0
0
0
4.19192e-07
8.84041e-07
9.54122e-07
3.59086e-07
0
0
0
0
1.0846e-07
2.25902e-07
1.87938e-07
1.46757e-07
1.22526e-07
1.01613e-07
8.3228e-08
7.63129e-08
6.13554e-08
2.42766e-08
0
0
2.54862e-08
2.44692e-07
3.77698e-07
3.10377e-07
0
0
0
0
0
0
0
0
0
0
0
0
0
0
4.4486e-09
3.75249e-09
0
0
5.61026e-08
1.64619e-07
1.95172e-07
1.43557e-07
7.80402e-08
0
0
0
0
0
1.00267e-06
1.81398e-06
9.70364e-07
4.74865e-07
2.06043e-07
4.62199e-08
0
0
0
0
0
0
1.05604e-07
2.4085e-07
2.83441e-07
1.98806e-07
3.85279e-08
0
0
0
0
0
0
0
0
0
0
0
0
0
0
0
0
0
0
0
0
0
0
0
0
0
0
0
1.33218e-07
1.91847e-07
2.00985e-07
1.87983e-07
1.83799e-07
2.07081e-07
2.6554e-07
3.30722e-07
2.84261e-07
2.12431e-07
1.80315e-07
1.66124e-07
1.5719e-07
1.45506e-07
1.05646e-07
1.93065e-08
0
0
0
0
0
0
2.74529e-08
5.87824e-08
6.20053e-08
4.2151e-08
2.14489e-08
4.4332e-09
0
0
2.21155e-10
0
8.53245e-09
0
0
0
0
8.62829e-08
1.12549e-07
5.56167e-08
2.05855e-08
4.14344e-08
1.36369e-07
2.52295e-07
3.28818e-07
3.89217e-07
4.81074e-07
5.9323e-07
6.39045e-07
1.35685e-07
0
0
0
0
0
0
0
4.09911e-08
1.01329e-06
2.0664e-06
2.30209e-06
1.54481e-06
7.32055e-07
2.75178e-07
1.58503e-07
3.09405e-07
6.73841e-07
1.21713e-06
1.92338e-06
2.79206e-06
3.8081e-06
4.86357e-06
5.40688e-06
3.90182e-06
0
0
0
0
0
0
0
0
0
0
0
8.94694e-08
6.24453e-07
7.27241e-07
1.04503e-07
0
0
0
0
8.92379e-08
1.45833e-07
1.25178e-07
1.07081e-07
9.42029e-08
7.63398e-08
6.238e-08
6.16219e-08
5.42709e-08
3.59413e-08
0
0
4.94545e-09
9.56654e-08
1.75006e-07
1.46958e-07
0
0
0
0
0
0
0
0
0
0
0
0
0
0
0
0
0
6.46919e-08
1.77334e-07
1.84952e-07
1.01284e-07
7.7232e-09
0
0
0
0
0
0
1.13428e-06
1.21249e-06
7.63806e-07
3.95619e-07
1.55901e-07
1.83333e-09
0
0
0
0
0
4.7415e-08
1.91157e-07
2.92484e-07
2.62057e-07
1.15319e-07
0
0
0
0
0
0
0
0
0
0
0
0
0
0
0
0
0
0
0
0
0
0
0
0
0
0
0
1.15204e-07
2.6301e-07
3.00858e-07
2.96681e-07
2.86189e-07
3.04058e-07
3.48523e-07
4.1043e-07
4.23057e-07
3.19326e-07
2.42714e-07
2.04197e-07
1.81123e-07
1.60331e-07
1.23691e-07
3.30839e-08
0
0
0
0
0
0
1.3662e-08
4.64339e-08
6.39145e-08
5.83844e-08
3.63794e-08
1.20248e-08
0
0
0
0
0
0
0
0
0
0
2.57716e-08
0
0
0
0
2.50198e-08
1.07981e-07
1.82603e-07
2.43201e-07
2.78135e-07
2.87852e-07
1.02384e-07
0
0
0
0
0
0
5.44068e-08
5.55817e-07
8.28939e-07
1.07688e-06
1.01933e-06
6.17372e-07
3.13071e-07
2.30164e-07
3.54469e-07
6.61229e-07
1.13601e-06
1.78567e-06
2.65551e-06
3.86231e-06
5.57917e-06
8.06403e-06
1.07995e-05
5.35862e-06
0
0
0
0
0
0
0
0
2.16071e-07
2.06883e-07
0
0
6.83132e-08
5.592e-07
4.9437e-07
0
0
0
0
0
7.59185e-08
1.03689e-07
8.65478e-08
7.40627e-08
6.49857e-08
5.1477e-08
4.49252e-08
4.75732e-08
3.97909e-08
2.9636e-08
5.08237e-09
0
0
0
4.01602e-08
1.71555e-07
0
0
0
0
0
0
0
0
0
0
0
0
0
0
0
0
4.57482e-08
1.59132e-07
1.3867e-07
0
0
0
0
0
0
0
0
0
6.00342e-07
6.68656e-07
4.24505e-07
1.85301e-07
2.38787e-08
0
0
0
0
0
4.08982e-09
1.48369e-07
2.89474e-07
3.03593e-07
1.73527e-07
0
0
0
0
0
0
0
0
0
0
0
0
0
0
0
0
0
0
0
0
0
0
0
0
0
0
0
5.99201e-08
3.41359e-07
4.2566e-07
4.32161e-07
4.17831e-07
4.24248e-07
4.62881e-07
5.12762e-07
5.48857e-07
4.69807e-07
3.36024e-07
2.58372e-07
2.14322e-07
1.83635e-07
1.47214e-07
7.13985e-08
0
0
0
0
0
0
1.26732e-08
4.16748e-08
5.8407e-08
6.18524e-08
4.96933e-08
2.45738e-08
2.93545e-09
0
0
0
0
0
0
0
0
0
0
0
0
0
0
0
0
0
0
0
1.98773e-07
1.48772e-07
0
0
0
0
0
5.46365e-08
0
0
0
0
0
3.36053e-08
4.29422e-08
9.34289e-08
2.13194e-07
4.10598e-07
6.9581e-07
1.09584e-06
1.65222e-06
2.38404e-06
3.11115e-06
2.93525e-06
0
0
0
0
0
0
0
0
0
0
0
1.7895e-07
1.073e-07
0
0
2.39627e-07
6.04857e-07
1.42106e-07
0
0
0
0
0
8.50306e-08
7.37586e-08
5.59178e-08
4.73585e-08
3.85918e-08
2.59955e-08
2.39321e-08
2.64342e-08
1.36539e-08
0
0
0
0
0
3.2336e-08
2.60823e-07
0
0
0
0
0
0
0
0
0
0
0
0
0
0
0
1.32428e-08
1.05569e-07
3.54625e-08
0
0
0
0
0
0
0
0
0
0
2.827e-07
1.93614e-07
1.05703e-08
0
0
0
0
0
0
0
1.18564e-07
2.84105e-07
3.34164e-07
2.15885e-07
3.0124e-08
0
0
0
0
0
0
0
0
0
0
0
0
0
0
0
0
0
0
0
0
0
0
0
0
0
0
0
4.47831e-07
5.87982e-07
5.91494e-07
5.72091e-07
5.65316e-07
5.95374e-07
6.37332e-07
6.63267e-07
6.26588e-07
4.68202e-07
3.35392e-07
2.59642e-07
2.11801e-07
1.71641e-07
1.12248e-07
0
0
0
0
0
0
2.38319e-08
4.81764e-08
5.87006e-08
6.0175e-08
5.44115e-08
3.5421e-08
1.24468e-08
0
0
0
0
0
0
0
0
0
0
0
0
0
0
0
0
0
0
0
1.94164e-07
2.23227e-07
1.46702e-07
1.35759e-07
2.89555e-07
5.08266e-07
4.6216e-07
0
0
0
0
0
0
0
0
0
0
0
0
0
0
0
0
0
0
0
0
0
0
0
0
0
0
0
0
0
1.37909e-07
0
0
0
4.78645e-07
3.99388e-07
0
0
0
0
0
8.50038e-08
7.35167e-08
4.89488e-08
3.42191e-08
2.5965e-08
1.24647e-08
0
1.73453e-09
0
0
0
0
0
0
0
1.4719e-07
2.31339e-07
0
0
0
0
0
0
0
0
0
0
0
0
0
0
0
7.0678e-08
0
0
0
0
0
0
0
0
0
0
0
0
0
0
0
0
0
0
0
0
0
9.53017e-08
2.68399e-07
3.43861e-07
2.382e-07
5.38001e-08
0
0
0
0
0
0
0
0
0
0
0
0
0
0
0
0
0
0
0
0
0
0
0
0
0
0
0
5.10431e-07
8.13935e-07
7.82026e-07
7.38652e-07
7.17796e-07
7.33433e-07
7.64934e-07
7.73909e-07
7.42886e-07
6.16003e-07
4.38673e-07
3.20556e-07
2.48063e-07
1.95792e-07
1.41128e-07
5.56389e-08
0
0
0
0
5.18108e-09
5.20679e-08
6.9615e-08
7.06853e-08
6.3475e-08
5.56606e-08
4.10874e-08
2.04409e-08
0
0
0
0
0
0
0
0
0
0
0
0
0
0
0
0
0
0
0
1.60267e-07
3.10735e-07
4.74525e-07
8.00813e-07
1.1546e-06
1.06603e-06
6.3209e-07
7.37997e-08
0
0
0
0
0
0
0
0
0
0
0
0
0
0
0
0
0
0
0
0
0
0
0
0
0
0
0
0
1.40023e-07
0
0
0
3.53389e-07
4.18851e-07
0
0
0
0
6.29858e-08
1.10981e-07
8.10031e-08
4.96991e-08
3.01355e-08
1.97403e-08
8.07103e-09
0
0
0
0
0
0
0
0
0
0
2.52023e-07
4.77017e-08
0
0
0
0
0
0
0
0
0
0
0
0
0
0
1.16843e-08
0
0
0
0
0
0
0
0
0
0
0
0
0
0
0
0
0
0
0
0
0
9.4019e-08
2.64807e-07
3.51267e-07
2.51688e-07
7.38679e-08
0
0
0
0
0
0
0
0
0
0
0
0
0
0
0
0
0
0
0
0
0
0
0
0
0
0
0
2.78748e-07
1.10508e-06
1.05446e-06
9.43613e-07
8.92715e-07
8.83744e-07
8.95374e-07
8.84312e-07
8.34966e-07
7.32701e-07
5.58252e-07
4.01867e-07
2.98762e-07
2.27466e-07
1.65425e-07
9.26806e-08
0
0
0
0
7.69325e-08
1.19344e-07
1.2082e-07
1.05107e-07
8.28185e-08
6.36305e-08
4.56916e-08
2.53832e-08
0
0
0
0
0
0
0
0
0
0
0
0
0
0
0
0
0
0
1.26543e-07
3.54906e-07
6.12552e-07
9.44547e-07
1.29507e-06
1.36027e-06
1.07543e-06
6.75994e-07
2.55138e-07
0
0
0
0
1.31356e-07
2.06542e-07
1.54558e-07
1.73297e-08
0
0
0
0
0
0
0
0
0
0
0
0
0
0
0
3.28331e-07
4.34155e-07
3.90357e-07
2.40006e-07
1.53511e-07
1.67242e-07
6.85455e-08
0
5.99715e-08
3.43081e-07
3.6997e-07
9.17364e-08
0
0
9.28246e-08
1.76865e-07
1.20826e-07
6.46952e-08
3.26109e-08
1.79674e-08
1.14872e-08
5.40965e-09
0
0
0
0
0
0
0
0
0
0
1.76146e-07
1.91867e-07
0
0
0
0
0
0
0
0
0
0
0
0
0
0
0
0
0
0
0
0
0
0
0
0
0
0
0
0
0
0
0
0
0
0
9.77247e-09
2.57203e-08
1.14779e-07
2.7446e-07
3.47354e-07
2.42996e-07
8.37462e-08
0
0
0
0
0
0
0
0
0
0
0
0
0
0
0
0
0
0
0
0
0
0
0
0
0
0
0
0
1.35553e-06
1.40934e-06
1.1661e-06
1.05373e-06
1.01208e-06
9.93897e-07
9.55887e-07
8.8574e-07
7.83098e-07
6.39033e-07
4.81523e-07
3.55682e-07
2.64235e-07
1.89124e-07
1.14498e-07
3.65844e-08
0
0
8.30956e-08
2.81382e-07
2.93778e-07
2.42971e-07
1.88278e-07
1.3687e-07
9.393e-08
5.81753e-08
2.89898e-08
0
0
0
0
0
0
0
0
0
0
0
0
0
3.66818e-08
5.15975e-08
7.64776e-08
1.55044e-07
2.88895e-07
4.68541e-07
6.83403e-07
9.28065e-07
1.1848e-06
1.32458e-06
1.21958e-06
9.69559e-07
6.64676e-07
3.53052e-07
6.75868e-08
0
0
9.39344e-08
3.06221e-07
4.10971e-07
3.91915e-07
2.79298e-07
1.17221e-07
0
0
0
0
0
0
0
0
0
0
0
0
1.40534e-06
1.78111e-06
1.39191e-06
9.72242e-07
6.47706e-07
3.62348e-07
1.78542e-07
1.43621e-07
1.00453e-07
4.50309e-08
1.68943e-07
2.84704e-07
3.20792e-07
4.39552e-07
5.3067e-07
5.1317e-07
4.94343e-07
2.65697e-07
1.1364e-07
4.19349e-08
1.22642e-08
3.10522e-09
2.37647e-09
3.14179e-09
0
0
0
0
0
0
0
0
0
0
1.00477e-07
2.41235e-07
0
0
0
0
0
0
0
0
0
0
0
0
0
0
5.70241e-08
1.1239e-07
0
0
0
0
0
0
0
0
0
0
0
0
0
0
0
0
0
0
3.52423e-08
5.9475e-08
1.42306e-07
2.82237e-07
3.2279e-07
2.19366e-07
9.66942e-08
6.17186e-09
0
0
0
0
0
0
0
0
0
0
0
0
0
0
0
0
0
0
0
0
0
0
0
0
0
0
0
1.52574e-06
1.84009e-06
1.45798e-06
1.22938e-06
1.12536e-06
1.06496e-06
9.96075e-07
9.04586e-07
7.94318e-07
6.64745e-07
5.33571e-07
4.11608e-07
3.07686e-07
2.19468e-07
1.36839e-07
6.24803e-08
2.32367e-08
6.46679e-08
2.09214e-07
4.16445e-07
5.44938e-07
4.8627e-07
3.68877e-07
2.64195e-07
1.7971e-07
1.02215e-07
3.58584e-08
0
0
0
0
0
0
0
0
0
0
0
0
0
1.12066e-07
2.11637e-07
2.93049e-07
3.96314e-07
5.22463e-07
6.67026e-07
8.18007e-07
9.60819e-07
1.06889e-06
1.09862e-06
9.90152e-07
7.99318e-07
5.81829e-07
3.53145e-07
1.36452e-07
0
0
9.24445e-08
2.83266e-07
4.22579e-07
4.60261e-07
4.07259e-07
2.92693e-07
1.4661e-07
0
0
0
0
0
0
0
0
0
0
2.92743e-06
3.54861e-06
2.24965e-06
1.38199e-06
8.46499e-07
5.24659e-07
2.75212e-07
1.13246e-07
1.03072e-07
1.3253e-07
1.42564e-07
1.85084e-07
2.32677e-07
4.46604e-07
9.09088e-07
9.38299e-07
8.3577e-07
5.69934e-07
2.53637e-07
1.03365e-07
4.64598e-08
2.30081e-08
1.32349e-08
1.11838e-08
1.2404e-08
1.13729e-08
3.1861e-09
8.51989e-09
2.3865e-08
2.17583e-08
0
0
0
0
0
2.38742e-08
1.91279e-07
0
0
0
0
0
0
0
0
0
0
0
0
0
6.18913e-08
2.52842e-07
4.43754e-07
5.706e-07
7.44815e-07
1.17963e-06
1.81124e-06
2.10109e-06
1.57823e-06
1.13996e-07
0
0
0
0
0
0
0
0
0
0
0
2.91724e-08
8.09147e-08
1.53401e-07
2.53419e-07
2.56599e-07
1.91426e-07
1.33833e-07
7.15354e-08
1.44481e-08
0
0
0
0
0
0
0
0
0
0
0
0
0
0
0
0
0
0
0
0
0
0
0
0
0
0
1.58722e-06
2.20526e-06
1.72739e-06
1.37628e-06
1.20284e-06
1.09694e-06
1.00003e-06
8.93095e-07
7.76554e-07
6.50588e-07
5.35908e-07
4.39923e-07
3.45301e-07
2.53827e-07
1.65418e-07
9.01798e-08
6.02659e-08
1.21201e-07
2.79816e-07
4.52836e-07
5.25723e-07
5.50178e-07
5.3537e-07
4.32896e-07
3.20276e-07
2.02139e-07
5.80844e-08
0
0
0
0
0
0
0
0
0
2.84461e-08
5.09461e-08
0
0
1.02878e-07
2.55886e-07
3.67351e-07
4.59509e-07
5.49034e-07
6.34665e-07
7.03621e-07
7.58039e-07
8.03118e-07
8.09923e-07
7.31636e-07
6.07671e-07
4.62666e-07
3.01823e-07
1.46489e-07
2.26789e-08
0
1.90036e-08
1.42199e-07
2.77521e-07
3.59543e-07
3.69622e-07
3.20165e-07
2.31207e-07
1.177e-07
0
0
0
0
0
0
0
0
0
2.3112e-06
1.94977e-06
1.23773e-06
7.46997e-07
4.48823e-07
2.76058e-07
1.26116e-07
3.54348e-08
8.05722e-08
1.61804e-07
1.73451e-07
1.56759e-07
2.89725e-07
7.32092e-07
9.63576e-07
8.46045e-07
7.33983e-07
4.59604e-07
2.08711e-07
1.03439e-07
6.4045e-08
4.80636e-08
3.8693e-08
3.36117e-08
3.1284e-08
3.03589e-08
2.59661e-08
2.89642e-08
4.90851e-08
6.00379e-08
5.90734e-08
0
0
0
0
0
6.93091e-08
3.79628e-08
5.1691e-08
1.1533e-10
0
0
0
1.094e-07
2.64365e-07
2.62873e-07
2.40596e-07
2.1216e-07
1.84565e-07
1.80401e-07
2.32638e-07
4.07002e-07
6.91454e-07
9.83061e-07
1.45695e-06
2.40715e-06
4.03272e-06
5.58525e-06
6.21228e-06
4.29566e-06
0
0
0
0
0
0
0
0
0
0
0
0
7.16692e-08
1.29042e-07
1.72801e-07
1.58105e-07
1.81479e-07
2.08055e-07
1.69765e-07
9.53372e-08
2.98956e-08
0
0
0
0
0
0
0
0
0
0
0
0
0
0
0
0
0
0
0
0
0
8.89468e-07
4.76644e-07
0
0
1.52284e-06
2.47929e-06
1.97244e-06
1.5005e-06
1.25026e-06
1.09418e-06
9.69222e-07
8.5157e-07
7.36497e-07
6.17212e-07
5.05642e-07
4.27794e-07
3.58614e-07
2.81207e-07
1.97625e-07
1.24828e-07
9.86406e-08
1.6521e-07
3.16014e-07
4.67043e-07
5.43532e-07
5.0572e-07
4.85138e-07
4.618e-07
3.72143e-07
2.38265e-07
2.81661e-08
0
0
4.9469e-08
8.16284e-08
5.34046e-08
0
0
0
0
0
2.07177e-07
0
0
1.17705e-07
2.55859e-07
3.37902e-07
3.85871e-07
4.1442e-07
4.3467e-07
4.51111e-07
4.78491e-07
5.06839e-07
5.06513e-07
4.5977e-07
3.91062e-07
3.08002e-07
2.10869e-07
1.12118e-07
2.77179e-08
0
0
2.3259e-08
1.0426e-07
1.83918e-07
2.28304e-07
2.31468e-07
2.01243e-07
1.49568e-07
8.45081e-08
1.11738e-08
0
0
0
0
0
0
2.22411e-07
5.9221e-07
5.46875e-07
3.92695e-07
2.46139e-07
1.47377e-07
7.42163e-08
0
0
8.84991e-08
1.97037e-07
1.71764e-07
1.73682e-07
4.83612e-07
8.43843e-07
8.03309e-07
6.53573e-07
5.78096e-07
3.38662e-07
1.75665e-07
1.08757e-07
8.19276e-08
7.04689e-08
6.23249e-08
5.61498e-08
5.20441e-08
4.94021e-08
4.66368e-08
4.71515e-08
6.9332e-08
8.81666e-08
9.96984e-08
0
0
0
0
0
0
0
1.85561e-07
1.38534e-07
6.50145e-08
1.25672e-07
6.03981e-07
9.97042e-07
6.91811e-07
5.31336e-07
4.526e-07
4.08841e-07
3.70158e-07
3.44204e-07
3.59867e-07
4.70846e-07
7.57166e-07
1.12695e-06
1.65787e-06
2.67742e-06
4.7474e-06
7.60213e-06
1.08128e-05
1.17775e-05
4.57318e-06
0
0
0
0
0
0
0
0
0
0
0
2.32438e-08
6.32347e-08
5.01695e-08
6.3245e-08
2.15537e-07
3.24506e-07
2.96301e-07
1.92894e-07
1.00869e-07
1.4889e-08
0
0
0
0
0
0
0
0
0
0
0
0
0
0
0
0
4.0306e-07
0
0
0
2.32309e-06
1.2615e-06
2.28814e-07
0
1.3789e-06
2.64304e-06
2.14901e-06
1.57721e-06
1.25979e-06
1.06083e-06
9.05135e-07
7.79035e-07
6.74252e-07
5.69645e-07
4.63203e-07
3.88691e-07
3.39991e-07
2.87068e-07
2.22734e-07
1.62481e-07
1.40258e-07
2.04135e-07
3.34042e-07
4.50106e-07
5.05178e-07
5.19024e-07
4.66053e-07
4.0377e-07
2.98476e-07
9.86109e-08
0
0
3.33201e-07
3.33165e-07
2.16655e-07
1.29788e-07
0
0
0
0
0
6.47432e-08
0
4.98663e-09
9.09142e-08
1.61935e-07
1.93894e-07
2.02749e-07
1.98863e-07
1.9888e-07
2.09039e-07
2.26639e-07
2.36548e-07
2.30453e-07
2.08229e-07
1.78422e-07
1.40024e-07
9.22011e-08
4.09908e-08
0
0
0
0
0
3.39264e-08
7.19295e-08
9.52984e-08
1.02997e-07
9.95342e-08
9.12486e-08
8.46681e-08
8.30524e-08
9.35593e-08
1.15852e-07
1.55568e-07
1.95121e-07
2.00771e-07
1.64585e-07
9.39922e-08
4.84847e-08
1.83183e-08
0
0
0
0
0
1.51488e-07
2.36684e-07
1.70664e-07
2.87052e-07
7.1348e-07
8.04443e-07
6.40725e-07
5.68904e-07
4.63277e-07
2.51067e-07
1.57023e-07
1.14828e-07
9.50474e-08
8.69499e-08
8.16546e-08
7.66563e-08
7.24487e-08
6.85e-08
6.50089e-08
6.43835e-08
8.42399e-08
1.08069e-07
1.23129e-07
1.21405e-07
0
0
0
0
0
0
2.55001e-07
3.06634e-07
2.64362e-07
4.64783e-07
1.2429e-06
1.01413e-06
6.11712e-07
4.9888e-07
4.58645e-07
4.45612e-07
4.39029e-07
4.28473e-07
4.32519e-07
4.90763e-07
6.69042e-07
1.0604e-06
1.55894e-06
2.38005e-06
4.11319e-06
6.92748e-06
1.13162e-05
1.81505e-05
1.74708e-05
0
0
0
0
0
0
0
0
0
0
0
0
0
0
1.8948e-08
3.12662e-07
4.81275e-07
4.41829e-07
3.09315e-07
1.87981e-07
7.88432e-08
0
0
0
0
0
0
0
0
0
0
0
0
0
0
0
0
1.09421e-06
8.46282e-07
1.42483e-08
9.01443e-07
3.44855e-06
1.8227e-06
4.34662e-07
0
1.19218e-06
2.68254e-06
2.22599e-06
1.5928e-06
1.22756e-06
9.98354e-07
8.23477e-07
6.96576e-07
6.026e-07
5.13872e-07
4.1836e-07
3.42553e-07
3.00012e-07
2.66369e-07
2.27574e-07
1.91802e-07
1.8056e-07
2.38653e-07
3.41245e-07
4.1176e-07
4.06824e-07
3.82938e-07
3.51567e-07
2.53692e-07
4.28483e-08
0
0
0
2.37833e-07
2.91003e-07
2.04427e-07
1.31677e-07
0
0
0
0
0
0
0
1.87525e-08
4.97976e-08
6.25243e-08
3.90581e-08
6.45319e-09
0
0
5.81659e-09
8.25456e-09
8.82974e-10
0
0
0
0
0