/*--------------------------------*- C++ -*----------------------------------*\
  =========                 |
  \\      /  F ield         | OpenFOAM: The Open Source CFD Toolbox
   \\    /   O peration     | Website:  https://openfoam.org
    \\  /    A nd           | Version:  7
     \\/     M anipulation  |
\*---------------------------------------------------------------------------*/
FoamFile
{
    version     2.0;
    format      ascii;
    class       surfaceScalarField;
    location    "0.098";
    object      phi_0;
}
// * * * * * * * * * * * * * * * * * * * * * * * * * * * * * * * * * * * * * //

dimensions      [0 3 -1 0 0 0 0];

internalField   nonuniform List<scalar> 
24170
(
1.38225e-06
2.16062e-07
1.24733e-06
1.34921e-07
1.11138e-06
1.35943e-07
9.7895e-07
1.32434e-07
8.56376e-07
1.22575e-07
7.50731e-07
1.05645e-07
6.58064e-07
9.26668e-08
5.72417e-07
8.56465e-08
4.9057e-07
8.18473e-08
4.12073e-07
7.84975e-08
3.393e-07
7.27726e-08
2.75504e-07
6.37963e-08
2.22296e-07
5.32075e-08
1.79713e-07
4.25837e-08
1.45175e-07
3.45377e-08
1.15485e-07
2.96899e-08
9.326e-08
2.2225e-08
9.29978e-09
8.39602e-08
1.69631e-06
2.36978e-07
1.65805e-06
1.73176e-07
1.61167e-06
1.82329e-07
1.56422e-06
1.79882e-07
1.51424e-06
1.72558e-07
1.46295e-06
1.56934e-07
1.41179e-06
1.43822e-07
1.36018e-06
1.37259e-07
1.30761e-06
1.34418e-07
1.25407e-06
1.32041e-07
1.20095e-06
1.25891e-07
1.14847e-06
1.16272e-07
1.09636e-06
1.05323e-07
1.04218e-06
9.67543e-08
9.86433e-07
9.02896e-08
9.31721e-07
8.44017e-08
8.75095e-07
7.88512e-08
7.02199e-08
8.14175e-07
1.80518e-06
3.08459e-07
1.76552e-06
2.12839e-07
1.74992e-06
1.97927e-07
1.74026e-06
1.89545e-07
1.73048e-06
1.82339e-07
1.71559e-06
1.7182e-07
1.6962e-06
1.63221e-07
1.67531e-06
1.5814e-07
1.65517e-06
1.54563e-07
1.63615e-06
1.51063e-07
1.61737e-06
1.44666e-07
1.59822e-06
1.35423e-07
1.57809e-06
1.25452e-07
1.55637e-06
1.18473e-07
1.5317e-06
1.14965e-07
1.50429e-06
1.1181e-07
1.47209e-06
1.1105e-07
1.0662e-07
1.43569e-06
1.90904e-06
3.33319e-07
1.86723e-06
2.54648e-07
1.85384e-06
2.11313e-07
1.85046e-06
1.92932e-07
1.84616e-06
1.86635e-07
1.83729e-06
1.80688e-07
1.82666e-06
1.73852e-07
1.81894e-06
1.6586e-07
1.81657e-06
1.5693e-07
1.81878e-06
1.48856e-07
1.82188e-06
1.41569e-07
1.82273e-06
1.34571e-07
1.81959e-06
1.28591e-07
1.81311e-06
1.24958e-07
1.80387e-06
1.24206e-07
1.79223e-06
1.23443e-07
1.77966e-06
1.23627e-07
1.21822e-07
1.76445e-06
2.03075e-06
3.96413e-07
2.01984e-06
2.65564e-07
2.02454e-06
2.06606e-07
2.02375e-06
1.93731e-07
2.0141e-06
1.96278e-07
1.9993e-06
1.95489e-07
1.98505e-06
1.88105e-07
1.97575e-06
1.75163e-07
1.97298e-06
1.59697e-07
1.97561e-06
1.46225e-07
1.98006e-06
1.3712e-07
1.98283e-06
1.31796e-07
1.98208e-06
1.29342e-07
1.97824e-06
1.28797e-07
1.97286e-06
1.29587e-07
1.96673e-06
1.29578e-07
1.96163e-06
1.28724e-07
1.27368e-07
1.95608e-06
2.22361e-06
4.25583e-07
2.16933e-06
3.19848e-07
2.1525e-06
2.23435e-07
2.15506e-06
1.91177e-07
2.16163e-06
1.89704e-07
2.16542e-06
1.91697e-07
2.16524e-06
1.88283e-07
2.16213e-06
1.78274e-07
2.15759e-06
1.64241e-07
2.15273e-06
1.51083e-07
2.14745e-06
1.42395e-07
2.14103e-06
1.38215e-07
2.13336e-06
1.37015e-07
2.12512e-06
1.3704e-07
2.11772e-06
1.36982e-07
2.11161e-06
1.3569e-07
2.1074e-06
1.32939e-07
1.30112e-07
2.10465e-06
2.38561e-06
4.7961e-07
2.35388e-06
3.51578e-07
2.34688e-06
2.30434e-07
2.34464e-06
1.93422e-07
2.34449e-06
1.89854e-07
2.34404e-06
1.92139e-07
2.34214e-06
1.90192e-07
2.33896e-06
1.81446e-07
2.33493e-06
1.68271e-07
2.33022e-06
1.55797e-07
2.32478e-06
1.47833e-07
2.31844e-06
1.44556e-07
2.3114e-06
1.44051e-07
2.30408e-06
1.44366e-07
2.29695e-06
1.44113e-07
2.29018e-06
1.42463e-07
2.28357e-06
1.39547e-07
1.35734e-07
2.27794e-06
2.57825e-06
5.38318e-07
2.55633e-06
3.73502e-07
2.54208e-06
2.44685e-07
2.52902e-06
2.0648e-07
2.51805e-06
2.00821e-07
2.51226e-06
1.97932e-07
2.51314e-06
1.89314e-07
2.51841e-06
1.76176e-07
2.5241e-06
1.62581e-07
2.52786e-06
1.52035e-07
2.52964e-06
1.46052e-07
2.53019e-06
1.44011e-07
2.52987e-06
1.44363e-07
2.5284e-06
1.45839e-07
2.52499e-06
1.47525e-07
2.5191e-06
1.48354e-07
2.51042e-06
1.48228e-07
1.46435e-07
2.49972e-06
2.7809e-06
5.17205e-07
2.78107e-06
3.73336e-07
2.76878e-06
2.56973e-07
2.74315e-06
2.32108e-07
2.7178e-06
2.26178e-07
2.70692e-06
2.08804e-07
2.71136e-06
1.84882e-07
2.72158e-06
1.65956e-07
2.72809e-06
1.56063e-07
2.72724e-06
1.52889e-07
2.72049e-06
1.52806e-07
2.71117e-06
1.53323e-07
2.70206e-06
1.53473e-07
2.69456e-06
1.53348e-07
2.68883e-06
1.53254e-07
2.68423e-06
1.52949e-07
2.68013e-06
1.52327e-07
1.51074e-07
2.67549e-06
2.966e-06
5.44369e-07
2.94563e-06
3.93712e-07
2.91825e-06
2.84349e-07
2.90962e-06
2.40738e-07
2.91879e-06
2.17007e-07
2.93426e-06
1.93337e-07
2.94526e-06
1.73875e-07
2.94701e-06
1.64213e-07
2.94099e-06
1.62079e-07
2.93125e-06
1.62632e-07
2.92078e-06
1.6327e-07
2.91082e-06
1.63291e-07
2.90171e-06
1.62581e-07
2.894e-06
1.61059e-07
2.88835e-06
1.58901e-07
2.88502e-06
1.56283e-07
2.8837e-06
1.5365e-07
1.51823e-07
2.88295e-06
3.15551e-06
5.07769e-07
3.16988e-06
3.79341e-07
3.16569e-06
2.88542e-07
3.16727e-06
2.39158e-07
3.16665e-06
2.17622e-07
3.15714e-06
2.02845e-07
3.14277e-06
1.88245e-07
3.13034e-06
1.76649e-07
3.12281e-06
1.69606e-07
3.11947e-06
1.65972e-07
3.11858e-06
1.64163e-07
3.11876e-06
1.63108e-07
3.11925e-06
1.62091e-07
3.1195e-06
1.60812e-07
3.11922e-06
1.59177e-07
3.11807e-06
1.57432e-07
3.11586e-06
1.55863e-07
1.54478e-07
3.1132e-06
2.83251e-06
4.59864e-07
2.82386e-06
3.87988e-07
2.8265e-06
2.85902e-07
2.84338e-06
2.22284e-07
2.85189e-06
2.09111e-07
2.84681e-06
2.07925e-07
2.83647e-06
1.9858e-07
2.82957e-06
1.8355e-07
2.82845e-06
1.70726e-07
2.8305e-06
1.6393e-07
2.83232e-06
1.62337e-07
2.83218e-06
1.63247e-07
2.83014e-06
1.64138e-07
2.82688e-06
1.64067e-07
2.8231e-06
1.62959e-07
2.81906e-06
1.61473e-07
2.81482e-06
1.60099e-07
1.59513e-07
2.80979e-06
3.5436e-06
3.77589e-07
3.54657e-06
3.85027e-07
3.53803e-06
2.94436e-07
3.52978e-06
2.30532e-07
3.51838e-06
2.20519e-07
3.50192e-06
2.24377e-07
3.48288e-06
2.17625e-07
3.46634e-06
2.00087e-07
3.45533e-06
1.81742e-07
3.44908e-06
1.70174e-07
3.44514e-06
1.66275e-07
3.44159e-06
1.66804e-07
3.43783e-06
1.67899e-07
3.43422e-06
1.67669e-07
3.43143e-06
1.65755e-07
3.42964e-06
1.63265e-07
3.42912e-06
1.60615e-07
1.58456e-07
3.43018e-06
4.30009e-06
4.39398e-07
4.2782e-06
4.06916e-07
4.26703e-06
3.056e-07
4.25904e-06
2.38529e-07
4.25789e-06
2.21664e-07
4.25628e-06
2.25994e-07
4.2504e-06
2.23497e-07
4.24237e-06
2.08118e-07
4.23581e-06
1.88301e-07
4.23235e-06
1.73638e-07
4.23085e-06
1.67775e-07
4.22884e-06
1.68814e-07
4.22438e-06
1.72355e-07
4.2173e-06
1.7475e-07
4.20918e-06
1.73874e-07
4.20209e-06
1.70362e-07
4.19777e-06
1.6493e-07
1.60616e-07
4.19561e-06
5.08536e-06
4.48878e-07
5.11769e-06
3.74593e-07
5.14626e-06
2.77025e-07
5.16468e-06
2.20109e-07
5.16591e-06
2.20432e-07
5.15436e-06
2.37547e-07
5.1404e-06
2.3746e-07
5.1317e-06
2.16816e-07
5.12979e-06
1.9021e-07
5.13185e-06
1.71575e-07
5.13432e-06
1.65304e-07
5.13525e-06
1.6789e-07
5.13479e-06
1.72812e-07
5.1346e-06
1.74942e-07
5.13642e-06
1.72055e-07
5.14142e-06
1.65362e-07
5.14992e-06
1.56427e-07
1.48291e-07
5.16225e-06
6.31939e-06
5.09691e-07
6.31917e-06
3.74814e-07
6.31081e-06
2.85381e-07
6.29196e-06
2.38958e-07
6.28236e-06
2.30034e-07
6.28652e-06
2.33393e-07
6.29782e-06
2.26159e-07
6.30874e-06
2.05897e-07
6.31516e-06
1.83783e-07
6.31699e-06
1.69751e-07
6.31668e-06
1.65609e-07
6.31735e-06
1.6722e-07
6.32123e-06
1.68939e-07
6.32894e-06
1.6723e-07
6.33952e-06
1.61469e-07
6.35128e-06
1.53606e-07
6.3621e-06
1.45609e-07
1.40352e-07
6.37003e-06
7.70848e-06
4.83394e-07
7.7563e-06
3.27001e-07
7.775e-06
2.66673e-07
7.75238e-06
2.61576e-07
7.72089e-06
2.61527e-07
7.70529e-06
2.48996e-07
7.70912e-06
2.22327e-07
7.72162e-06
1.93397e-07
7.73138e-06
1.7402e-07
7.73399e-06
1.67144e-07
7.73187e-06
1.67733e-07
7.73068e-06
1.68405e-07
7.73536e-06
1.64262e-07
7.74787e-06
1.54716e-07
7.76702e-06
1.42325e-07
7.78989e-06
1.30734e-07
7.81346e-06
1.22035e-07
1.18041e-07
7.83578e-06
9.36302e-06
3.59639e-07
9.40961e-06
2.80408e-07
9.42846e-06
2.47824e-07
9.44236e-06
2.47677e-07
9.44975e-06
2.54136e-07
9.45542e-06
2.43327e-07
9.46275e-06
2.14997e-07
9.47208e-06
1.84066e-07
9.48308e-06
1.63025e-07
9.49644e-06
1.53782e-07
9.51351e-06
1.50664e-07
9.53473e-06
1.47179e-07
9.55909e-06
1.39909e-07
9.58452e-06
1.29278e-07
9.6092e-06
1.17652e-07
9.63194e-06
1.07987e-07
9.65255e-06
1.01428e-07
9.9323e-08
9.67127e-06
1.13905e-05
2.89682e-07
1.14095e-05
2.61429e-07
1.142e-05
2.3731e-07
1.14655e-05
2.02167e-07
1.15325e-05
1.87154e-07
1.15931e-05
1.82696e-07
1.16307e-05
1.77433e-07
1.16475e-05
1.67222e-07
1.16577e-05
1.52864e-07
1.16745e-05
1.37012e-07
1.17032e-05
1.21945e-07
1.17406e-05
1.09733e-07
1.17792e-05
1.01344e-07
1.18119e-05
9.66258e-08
1.18351e-05
9.4398e-08
1.18496e-05
9.34803e-08
1.18582e-05
9.28071e-08
9.13774e-08
1.18662e-05
8.46935e-06
4.23862e-07
8.39941e-06
3.31364e-07
8.39371e-06
2.43009e-07
8.41059e-06
1.85295e-07
8.42933e-06
1.68409e-07
8.44562e-06
1.66404e-07
8.46365e-06
1.59404e-07
8.49076e-06
1.40114e-07
8.53132e-06
1.123e-07
8.58333e-06
8.50073e-08
8.64e-06
6.52716e-08
8.69341e-06
5.63206e-08
8.73689e-06
5.78675e-08
8.76644e-06
6.70741e-08
8.78111e-06
7.97289e-08
8.7828e-06
9.17967e-08
8.77482e-06
1.00784e-07
1.04667e-07
8.76153e-06
7.40283e-06
4.51459e-07
7.40272e-06
3.31474e-07
7.41704e-06
2.28695e-07
7.41624e-06
1.86096e-07
7.41545e-06
1.69189e-07
7.42942e-06
1.52441e-07
7.46236e-06
1.26458e-07
7.50588e-06
9.65958e-08
7.54713e-06
7.10534e-08
7.57753e-06
5.46044e-08
7.59468e-06
4.81208e-08
7.60138e-06
4.96182e-08
7.60344e-06
5.58067e-08
7.60699e-06
6.35282e-08
7.61676e-06
6.99555e-08
7.6351e-06
7.34613e-08
7.66273e-06
7.31506e-08
6.92535e-08
7.69815e-06
6.36611e-06
5.53581e-07
6.37362e-06
3.23968e-07
6.39741e-06
2.04907e-07
6.42622e-06
1.57284e-07
6.46017e-06
1.35239e-07
6.50078e-06
1.11834e-07
6.54458e-06
8.26569e-08
6.58498e-06
5.61917e-08
6.61574e-06
4.02912e-08
6.63468e-06
3.56726e-08
6.64547e-06
3.73269e-08
6.6554e-06
3.96917e-08
6.67119e-06
4.00171e-08
6.69617e-06
3.85397e-08
6.72924e-06
3.68883e-08
6.76663e-06
3.60686e-08
6.80319e-06
3.65928e-08
3.81657e-08
6.83428e-06
5.60258e-06
4.75594e-07
5.62512e-06
3.01427e-07
5.65307e-06
1.76951e-07
5.69293e-06
1.17428e-07
5.73606e-06
9.21049e-08
5.77299e-06
7.49057e-08
5.79769e-06
5.7955e-08
5.81078e-06
4.31055e-08
5.81725e-06
3.38205e-08
5.8234e-06
2.95231e-08
5.83416e-06
2.65695e-08
5.85164e-06
2.22129e-08
5.87526e-06
1.63921e-08
5.90275e-06
1.10468e-08
5.93097e-06
8.6698e-09
5.95703e-06
1.0016e-08
5.97882e-06
1.48014e-08
2.15206e-08
5.99546e-06
4.90716e-06
4.29019e-07
4.91603e-06
2.92559e-07
4.92379e-06
1.69189e-07
4.94403e-06
9.71887e-08
4.97168e-06
6.44606e-08
5.00469e-06
4.18937e-08
5.03922e-06
2.34219e-08
5.06915e-06
1.31755e-08
5.09072e-06
1.2253e-08
5.10485e-06
1.53901e-08
5.1152e-06
1.62217e-08
5.12521e-06
1.22003e-08
5.13676e-06
4.85037e-09
5.14986e-06
-2.06015e-09
5.16386e-06
-5.32981e-09
5.17854e-06
-4.65923e-09
5.19407e-06
-7.27405e-10
5.34414e-09
5.21024e-06
4.24473e-06
4.81571e-07
4.30169e-06
2.35595e-07
4.33583e-06
1.35053e-07
4.35115e-06
8.18736e-08
4.36598e-06
4.96304e-08
4.38516e-06
2.27095e-08
4.40826e-06
3.18645e-10
4.43563e-06
-1.41913e-08
4.46433e-06
-1.64467e-08
4.4919e-06
-1.21813e-08
4.51525e-06
-7.12732e-09
4.53198e-06
-4.53227e-09
4.5415e-06
-4.66464e-09
4.54539e-06
-5.95112e-09
4.54671e-06
-6.64871e-09
4.54811e-06
-6.06046e-09
4.55159e-06
-4.21386e-09
-1.72295e-09
4.55866e-06
3.69224e-06
3.73011e-07
3.78887e-06
1.38962e-07
3.82625e-06
9.76724e-08
3.83662e-06
7.15016e-08
3.85057e-06
3.56861e-08
3.87203e-06
1.24754e-09
3.89474e-06
-2.23861e-08
3.91671e-06
-3.61611e-08
3.93989e-06
-3.96297e-08
3.9642e-06
-3.64888e-08
3.98691e-06
-2.98455e-08
4.00462e-06
-2.22354e-08
4.01569e-06
-1.57352e-08
4.02129e-06
-1.15484e-08
4.02443e-06
-9.78919e-09
4.02825e-06
-9.88244e-09
4.03504e-06
-1.10024e-08
-1.22058e-08
4.04552e-06
3.2664e-06
3.32273e-07
3.31318e-06
9.21756e-08
3.35151e-06
5.93498e-08
3.38558e-06
3.74285e-08
3.41663e-06
4.63862e-09
3.44217e-06
-2.42997e-08
3.4595e-06
-3.97094e-08
3.46918e-06
-4.58424e-08
3.47509e-06
-4.55451e-08
3.48042e-06
-4.1813e-08
3.48693e-06
-3.63608e-08
3.49529e-06
-3.05889e-08
3.50564e-06
-2.60855e-08
3.51797e-06
-2.3876e-08
3.53184e-06
-2.36638e-08
3.54653e-06
-2.45703e-08
3.56105e-06
-2.55289e-08
-2.58057e-08
3.57465e-06
2.86269e-06
1.95262e-07
2.93414e-06
2.07245e-08
2.9707e-06
2.27856e-08
3.00443e-06
3.70187e-09
3.0308e-06
-2.17313e-08
3.04318e-06
-3.66821e-08
3.04348e-06
-4.00101e-08
3.03865e-06
-4.10151e-08
3.03673e-06
-4.3619e-08
3.04163e-06
-4.67113e-08
3.05291e-06
-4.76396e-08
3.06783e-06
-4.55177e-08
3.08349e-06
-4.17384e-08
3.09786e-06
-3.82539e-08
3.11017e-06
-3.59665e-08
3.12048e-06
-3.48846e-08
3.12937e-06
-3.44142e-08
-3.41557e-08
3.13772e-06
2.48922e-06
3.00046e-08
2.55812e-06
-4.8177e-08
2.59697e-06
-1.60625e-08
2.63114e-06
-3.04669e-08
2.65434e-06
-4.49295e-08
2.6636e-06
-4.59496e-08
2.66535e-06
-4.17531e-08
2.66546e-06
-4.11313e-08
2.66683e-06
-4.49903e-08
2.66939e-06
-4.92681e-08
2.67166e-06
-4.99128e-08
2.67221e-06
-4.60643e-08
2.6703e-06
-3.98288e-08
2.66603e-06
-3.3985e-08
2.66025e-06
-3.01852e-08
2.65399e-06
-2.86253e-08
2.6482e-06
-2.86228e-08
-2.93183e-08
2.64336e-06
2.15401e-06
2.10583e-06
2.08977e-06
2.0593e-06
2.01437e-06
1.96842e-06
1.92667e-06
1.88554e-06
1.84055e-06
1.79128e-06
1.74137e-06
1.6953e-06
1.65548e-06
1.62149e-06
1.59131e-06
1.56268e-06
1.53406e-06
1.50474e-06
-1.37412e-07
1.37412e-07
-2.56616e-07
1.19203e-07
-2.59276e-07
2.66027e-09
-1.59492e-07
-9.97834e-08
-1.44888e-08
-1.45004e-07
1.29273e-07
-1.43762e-07
2.37358e-07
-1.08085e-07
2.85989e-07
-4.86312e-08
2.62847e-07
2.31422e-08
1.71653e-07
9.11941e-08
4.2316e-08
1.29337e-07
-8.00139e-08
1.2233e-07
-1.73538e-07
9.35245e-08
-2.43495e-07
6.99563e-08
-3.20238e-07
7.67431e-08
-4.12613e-07
9.23756e-08
-4.98007e-07
8.53941e-08
-5.59272e-07
6.12643e-08
-5.91078e-07
3.18065e-08
-5.95064e-07
3.98559e-09
-5.94524e-07
-5.39509e-10
-6.22464e-07
2.79399e-08
-6.89096e-07
6.6632e-08
-7.78693e-07
8.95971e-08
-8.82253e-07
1.03559e-07
-1.01963e-06
1.37379e-07
-1.22038e-06
2.00753e-07
-1.48447e-06
2.64082e-07
-1.77965e-06
2.95187e-07
-2.0805e-06
3.00846e-07
-2.37953e-06
2.99027e-07
-2.66774e-06
2.88215e-07
-2.93966e-06
2.71919e-07
-3.19428e-06
2.54618e-07
-3.42369e-06
2.29416e-07
-3.62394e-06
2.00247e-07
-3.79557e-06
1.71626e-07
-3.93579e-06
1.40219e-07
-4.04271e-06
1.06927e-07
-4.11658e-06
7.38619e-08
-4.15736e-06
4.07879e-08
-4.16526e-06
7.90053e-09
-4.14157e-06
-2.36906e-08
-4.08603e-06
-5.55392e-08
-3.99915e-06
-8.68873e-08
-3.88106e-06
-1.18091e-07
-3.73202e-06
-1.49037e-07
-3.55277e-06
-1.79248e-07
-3.34491e-06
-2.07864e-07
-3.11084e-06
-2.34072e-07
-2.85393e-06
-2.56903e-07
-2.57922e-06
-2.74708e-07
-2.29333e-06
-2.85891e-07
-2.00359e-06
-2.89746e-07
-1.71602e-06
-2.87571e-07
-1.43273e-06
-2.8329e-07
-1.14851e-06
-2.84219e-07
-8.47711e-07
-3.00798e-07
-5.106e-07
-3.3711e-07
-1.40918e-07
-3.69682e-07
2.37153e-07
-3.78071e-07
6.18206e-07
-3.81053e-07
9.8045e-07
-3.62244e-07
1.29596e-06
-3.15507e-07
1.57947e-06
-2.83516e-07
1.83078e-06
-2.5131e-07
1.87045e-06
-3.96694e-08
1.55314e-06
3.17315e-07
1.12766e-06
4.25482e-07
8.48011e-07
2.79644e-07
6.82402e-07
1.65609e-07
4.96546e-07
1.85856e-07
2.82727e-07
2.13819e-07
2.62717e-08
2.56455e-07
-1.94894e-07
2.21166e-07
-1.02315e-07
-9.25796e-08
4.13808e-07
-5.16123e-07
1.13642e-06
-7.22614e-07
1.71325e-06
-5.76823e-07
1.9424e-06
-2.29155e-07
1.78642e-06
1.5598e-07
1.43298e-06
3.53443e-07
1.17609e-06
2.56888e-07
1.14254e-06
3.35487e-08
1.23049e-06
-8.79452e-08
1.25074e-06
-2.02512e-08
1.05911e-06
1.91623e-07
5.7464e-07
4.84475e-07
-1.28618e-07
7.03258e-07
-8.94053e-07
7.65435e-07
-1.62548e-06
7.31429e-07
-2.2836e-06
6.58118e-07
-2.85662e-06
5.73019e-07
-3.34546e-06
4.88843e-07
-3.75671e-06
4.11249e-07
-4.09874e-06
3.42023e-07
-4.3794e-06
2.8067e-07
-4.60534e-06
2.25939e-07
-4.78218e-06
1.76836e-07
-4.91477e-06
1.32587e-07
-5.00709e-06
9.23206e-08
-5.06214e-06
5.50497e-08
-5.08257e-06
2.04298e-08
-5.07239e-06
-1.01808e-08
-5.03484e-06
-3.75442e-08
-4.9717e-06
-6.31438e-08
-4.88495e-06
-8.67502e-08
-4.77595e-06
-1.08997e-07
-4.64559e-06
-1.30364e-07
-4.49406e-06
-1.51532e-07
-4.32059e-06
-1.73464e-07
-4.12358e-06
-1.97014e-07
-3.90085e-06
-2.2273e-07
-3.65032e-06
-2.50532e-07
-3.37081e-06
-2.79509e-07
-3.0629e-06
-3.07908e-07
-2.7295e-06
-3.33401e-07
-2.37592e-06
-3.53574e-07
-2.0107e-06
-3.65221e-07
-1.64407e-06
-3.66635e-07
-1.28619e-06
-3.57875e-07
-9.45446e-07
-3.40744e-07
-6.27199e-07
-3.18248e-07
-3.34558e-07
-2.92641e-07
-6.85868e-08
-2.65971e-07
1.74121e-07
-2.42708e-07
3.93216e-07
-2.19095e-07
5.90287e-07
-1.97071e-07
7.66987e-07
-1.767e-07
9.25083e-07
-1.58096e-07
1.06636e-06
-1.41276e-07
1.1925e-06
-1.26146e-07
1.305e-06
-1.12497e-07
1.40504e-06
-1.00038e-07
1.49345e-06
-8.84118e-08
1.57082e-06
-7.73685e-08
1.63753e-06
-6.67075e-08
1.69354e-06
-5.60096e-08
1.73879e-06
-4.5251e-08
1.77334e-06
-3.45563e-08
1.79684e-06
-2.34944e-08
1.8094e-06
-1.25597e-08
1.81109e-06
-1.68866e-09
1.80058e-06
1.05036e-08
1.77612e-06
2.44635e-08
1.73641e-06
3.97115e-08
1.68052e-06
5.58843e-08
1.60874e-06
7.17816e-08
1.5223e-06
8.64465e-08
1.42242e-06
9.98748e-08
1.31106e-06
1.11364e-07
1.19324e-06
1.17816e-07
1.07799e-06
1.15255e-07
9.75507e-07
1.02478e-07
8.93407e-07
8.21008e-08
8.33899e-07
5.95071e-08
7.94277e-07
3.96221e-08
7.69386e-07
2.48911e-08
7.53922e-07
1.54639e-08
7.43746e-07
1.01761e-08
7.36276e-07
7.47041e-09
7.30068e-07
6.2077e-09
7.24539e-07
5.5293e-09
7.19499e-07
5.0396e-09
7.14832e-07
4.66691e-09
7.10418e-07
4.41402e-09
7.05992e-07
4.42643e-09
7.0135e-07
4.64215e-09
6.96047e-07
5.30248e-09
6.89955e-07
6.0921e-09
6.8237e-07
7.58467e-09
6.73509e-07
8.86142e-09
6.61832e-07
1.1677e-08
6.48564e-07
1.3268e-08
6.29536e-07
1.90276e-08
6.09532e-07
2.00046e-08
5.76226e-07
3.3306e-08
5.47335e-07
2.88909e-08
4.83873e-07
6.34617e-08
3.99707e-08
4.43902e-07
-9.06823e-08
2.28095e-07
-1.1718e-07
1.45701e-07
-1.18999e-08
-1.0262e-07
1.59351e-07
-2.71034e-07
3.45098e-07
-3.30751e-07
5.08127e-07
-3.06791e-07
6.27723e-07
-2.27681e-07
6.95276e-07
-1.16184e-07
7.07175e-07
1.12432e-08
6.59375e-07
1.38994e-07
5.33099e-07
2.55614e-07
3.18677e-07
3.36751e-07
6.27206e-08
3.49481e-07
-1.60746e-07
2.93423e-07
-3.23973e-07
2.3997e-07
-4.43957e-07
2.1236e-07
-5.37091e-07
1.78528e-07
-6.06347e-07
1.3052e-07
-6.63105e-07
8.85645e-08
-7.31439e-07
7.23202e-08
-8.42059e-07
1.1008e-07
-1.0071e-06
1.92982e-07
-1.2041e-06
2.63635e-07
-1.41639e-06
3.01881e-07
-1.66604e-06
3.53211e-07
-1.96766e-06
4.38996e-07
-2.27635e-06
5.09446e-07
-2.54664e-06
5.34373e-07
-2.79292e-06
5.41463e-07
-3.03397e-06
5.419e-07
-3.2613e-06
5.26355e-07
-3.47316e-06
5.00077e-07
-3.66862e-06
4.67379e-07
-3.84022e-06
4.26218e-07
-3.98953e-06
3.78723e-07
-4.11722e-06
3.2794e-07
-4.22005e-06
2.74452e-07
-4.29854e-06
2.18709e-07
-4.35358e-06
1.61975e-07
-4.3849e-06
1.05178e-07
-4.39301e-06
4.89019e-08
-4.37837e-06
-6.73997e-09
-4.34057e-06
-6.14973e-08
-4.28061e-06
-1.15495e-07
-4.19863e-06
-1.68869e-07
-4.0952e-06
-2.21523e-07
-3.97097e-06
-2.73267e-07
-3.82657e-06
-3.23651e-07
-3.66261e-06
-3.71823e-07
-3.48009e-06
-4.1659e-07
-3.28061e-06
-4.56379e-07
-3.06596e-06
-4.89365e-07
-2.83758e-06
-5.14262e-07
-2.59572e-06
-5.31608e-07
-2.33888e-06
-5.44415e-07
-2.0645e-06
-5.57663e-07
-1.77005e-06
-5.78673e-07
-1.45525e-06
-6.15598e-07
-1.12503e-06
-6.67329e-07
-7.81155e-07
-7.13559e-07
-4.26002e-07
-7.33224e-07
-5.92236e-08
-7.47832e-07
3.26038e-07
-7.47505e-07
7.19738e-07
-7.09207e-07
1.09595e-06
-6.59731e-07
1.43499e-06
-5.90349e-07
1.74346e-06
-3.48135e-07
1.93827e-06
1.22499e-07
1.82954e-06
5.34211e-07
1.47595e-06
6.33243e-07
1.16947e-06
4.7208e-07
1.0146e-06
3.40733e-07
8.20233e-07
4.08184e-07
5.02224e-07
5.74464e-07
2.36246e-07
4.87144e-07
2.2189e-07
-7.82233e-08
5.27819e-07
-8.22052e-07
1.04919e-06
-1.24399e-06
1.51025e-06
-1.03788e-06
1.81154e-06
-5.30454e-07
1.95744e-06
1.00797e-08
1.9677e-06
3.43183e-07
1.90053e-06
3.24061e-07
1.66843e-06
2.65646e-07
1.1619e-06
4.18586e-07
4.09522e-07
7.3213e-07
-4.50782e-07
1.05193e-06
-1.25337e-06
1.28706e-06
-1.93262e-06
1.3825e-06
-2.51223e-06
1.34505e-06
-3.01055e-06
1.22974e-06
-3.43447e-06
1.08204e-06
-3.79189e-06
9.30438e-07
-4.09166e-06
7.8861e-07
-4.3418e-06
6.61391e-07
-4.54871e-06
5.48932e-07
-4.71723e-06
4.49196e-07
-4.85109e-06
3.59791e-07
-4.95299e-06
2.78743e-07
-5.02482e-06
2.04415e-07
-5.06797e-06
1.3547e-07
-5.08392e-06
7.09972e-08
-5.07362e-06
1.0129e-08
-5.03814e-06
-4.56542e-08
-4.97761e-06
-9.80743e-08
-4.8936e-06
-1.47152e-07
-4.78732e-06
-1.93034e-07
-4.66008e-06
-2.3624e-07
-4.51275e-06
-2.77695e-07
-4.34547e-06
-3.18806e-07
-4.15755e-06
-3.61389e-07
-3.94725e-06
-4.07312e-07
-3.71214e-06
-4.57837e-07
-3.44977e-06
-5.12908e-07
-3.15854e-06
-5.70737e-07
-2.83873e-06
-6.27719e-07
-2.49324e-06
-6.78886e-07
-2.12804e-06
-7.18774e-07
-1.75187e-06
-7.41391e-07
-1.37556e-06
-7.42952e-07
-1.0101e-06
-7.23331e-07
-6.64147e-07
-6.86697e-07
-3.43103e-07
-6.39292e-07
-4.98998e-08
-5.85844e-07
2.18577e-07
-5.34448e-07
4.60581e-07
-4.84712e-07
6.78881e-07
-4.37396e-07
8.75324e-07
-3.93514e-07
1.05187e-06
-3.53241e-07
1.21048e-06
-3.16706e-07
1.35309e-06
-2.83891e-07
1.48151e-06
-2.54559e-07
1.59728e-06
-2.2827e-07
1.70167e-06
-2.04434e-07
1.79567e-06
-1.82403e-07
1.87994e-06
-1.61647e-07
1.95486e-06
-1.4162e-07
2.02066e-06
-1.21812e-07
2.07741e-06
-1.01998e-07
2.12486e-06
-8.20072e-08
2.16314e-06
-6.17733e-08
2.19217e-06
-4.15985e-08
2.21257e-06
-2.20865e-08
2.22667e-06
-3.59425e-09
2.23668e-06
1.44533e-08
2.24382e-06
3.25677e-08
2.24816e-06
5.15466e-08
2.24793e-06
7.20186e-08
2.24018e-06
9.41959e-08
2.22223e-06
1.1782e-07
2.19257e-06
1.41024e-07
2.1513e-06
1.59086e-07
2.10033e-06
1.66227e-07
2.04321e-06
1.59601e-07
1.98523e-06
1.40083e-07
1.93127e-06
1.13463e-07
1.88437e-06
8.65236e-08
1.8452e-06
6.40559e-08
1.81267e-06
4.79965e-08
1.78491e-06
3.79346e-08
1.76014e-06
3.22402e-08
1.73728e-06
2.90689e-08
1.71595e-06
2.68604e-08
1.6963e-06
2.46846e-08
1.67857e-06
2.24011e-08
1.66286e-06
2.01266e-08
1.649e-06
1.82872e-08
1.63666e-06
1.69795e-08
1.62528e-06
1.66816e-08
1.61454e-06
1.68326e-08
1.60369e-06
1.84344e-08
1.59284e-06
1.97092e-08
1.58069e-06
2.38276e-08
1.56825e-06
2.57131e-08
1.55252e-06
3.47546e-08
1.53638e-06
3.6144e-08
1.5133e-06
5.63857e-08
1.48896e-06
5.32306e-08
1.45327e-06
9.91495e-08
8.34331e-08
1.40981e-06
-1.28092e-08
2.40904e-07
1.66259e-07
-3.33668e-08
4.2214e-07
-3.58501e-07
6.59723e-07
-5.08618e-07
8.46237e-07
-5.17265e-07
9.7726e-07
-4.37814e-07
1.05732e-06
-3.07738e-07
1.09277e-06
-1.51636e-07
1.08935e-06
1.46605e-08
1.03703e-06
1.91319e-07
9.36589e-07
3.56051e-07
7.74417e-07
4.98923e-07
5.32891e-07
5.91007e-07
2.31665e-07
5.94648e-07
-4.54301e-08
5.17065e-07
-2.46178e-07
4.13108e-07
-3.94345e-07
3.26695e-07
-5.1186e-07
2.48034e-07
-6.24055e-07
2.0076e-07
-7.61549e-07
2.09815e-07
-9.46946e-07
2.95476e-07
-1.17065e-06
4.16691e-07
-1.41471e-06
5.07694e-07
-1.68972e-06
5.76892e-07
-1.9917e-06
6.55186e-07
-2.28368e-06
7.30977e-07
-2.54033e-06
7.66099e-07
-2.77321e-06
7.67246e-07
-2.99492e-06
7.63175e-07
-3.20275e-06
7.49734e-07
-3.39728e-06
7.20883e-07
-3.58101e-06
6.83801e-07
-3.75167e-06
6.38041e-07
-3.90801e-06
5.82557e-07
-4.0496e-06
5.20316e-07
-4.17406e-06
4.52394e-07
-4.27933e-06
3.7973e-07
-4.36444e-06
3.03812e-07
-4.42849e-06
2.2603e-07
-4.47098e-06
1.47668e-07
-4.49183e-06
6.9755e-08
-4.49144e-06
-7.13671e-09
-4.47016e-06
-8.27711e-08
-4.42896e-06
-1.56703e-07
-4.36872e-06
-2.29107e-07
-4.29001e-06
-3.00227e-07
-4.19314e-06
-3.70144e-07
-4.07803e-06
-4.38758e-07
-3.9442e-06
-5.05655e-07
-3.79075e-06
-5.70038e-07
-3.61655e-06
-6.30582e-07
-3.42026e-06
-6.85648e-07
-3.20064e-06
-7.33887e-07
-2.95772e-06
-7.74523e-07
-2.6947e-06
-8.07439e-07
-2.41755e-06
-8.34815e-07
-2.13308e-06
-8.63143e-07
-1.84915e-06
-8.99528e-07
-1.5708e-06
-9.45677e-07
-1.29281e-06
-9.91547e-07
-9.97579e-07
-1.02846e-06
-6.8545e-07
-1.05996e-06
-3.50738e-07
-1.08222e-06
1.33405e-08
-1.07329e-06
3.84671e-07
-1.03106e-06
7.41172e-07
-9.4685e-07
1.13039e-06
-7.37357e-07
1.54388e-06
-2.90988e-07
1.79723e-06
2.8086e-07
1.74971e-06
6.80763e-07
1.47255e-06
7.49239e-07
1.20591e-06
6.07375e-07
1.02848e-06
5.85615e-07
8.36908e-07
7.66037e-07
6.52448e-07
6.71603e-07
5.31452e-07
4.27729e-08
5.65705e-07
-8.56306e-07
7.8948e-07
-1.46776e-06
1.04678e-06
-1.29518e-06
1.23556e-06
-7.19237e-07
1.37737e-06
-1.3173e-07
1.40889e-06
3.11666e-07
1.13909e-06
5.93861e-07
5.25533e-07
8.79202e-07
-2.59319e-07
1.20344e-06
-1.01786e-06
1.49067e-06
-1.66531e-06
1.69937e-06
-2.17565e-06
1.79741e-06
-2.56706e-06
1.77391e-06
-2.88208e-06
1.66008e-06
-3.15258e-06
1.50024e-06
-3.39723e-06
1.3267e-06
-3.62351e-06
1.15671e-06
-3.83271e-06
9.97809e-07
-4.02317e-06
8.51849e-07
-4.19221e-06
7.17981e-07
-4.33742e-06
5.94399e-07
-4.457e-06
4.79375e-07
-4.54977e-06
3.71507e-07
-4.61504e-06
2.69693e-07
-4.65274e-06
1.73163e-07
-4.66319e-06
8.14496e-08
-4.64762e-06
-5.44224e-09
-4.60649e-06
-8.67848e-08
-4.5414e-06
-1.63161e-07
-4.45408e-06
-2.34477e-07
-4.3461e-06
-3.01006e-07
-4.21893e-06
-3.63411e-07
-4.07361e-06
-4.23013e-07
-3.91049e-06
-4.81929e-07
-3.72886e-06
-5.43021e-07
-3.52669e-06
-6.0948e-07
-3.30071e-06
-6.8382e-07
-3.04719e-06
-7.6643e-07
-2.76317e-06
-8.54758e-07
-2.44766e-06
-9.43228e-07
-2.10274e-06
-1.0238e-06
-1.73436e-06
-1.08715e-06
-1.35167e-06
-1.12408e-06
-9.66783e-07
-1.12784e-06
-5.92823e-07
-1.09729e-06
-2.40295e-07
-1.03922e-06
8.45066e-08
-9.64093e-07
3.81228e-07
-8.82565e-07
6.4765e-07
-8.0087e-07
8.85192e-07
-7.22254e-07
1.09612e-06
-6.48319e-07
1.2825e-06
-5.79902e-07
1.44652e-06
-5.17255e-07
1.59041e-06
-4.60594e-07
1.71647e-06
-4.09954e-07
1.82687e-06
-3.64965e-07
1.92346e-06
-3.24859e-07
2.0077e-06
-2.88674e-07
2.08077e-06
-2.5547e-07
2.1436e-06
-2.24482e-07
2.19706e-06
-1.95075e-07
2.24197e-06
-1.66727e-07
2.27904e-06
-1.39068e-07
2.30888e-06
-1.1184e-07
2.33212e-06
-8.50192e-08
2.34937e-06
-5.88448e-08
2.36015e-06
-3.28684e-08
2.36308e-06
-6.51907e-09
2.35932e-06
1.82114e-08
2.35279e-06
3.90991e-08
2.34864e-06
5.56952e-08
2.3509e-06
6.97519e-08
2.36004e-06
8.50612e-08
2.37293e-06
1.04926e-07
2.38426e-06
1.29695e-07
2.38838e-06
1.54963e-07
2.38126e-06
1.73352e-07
2.36205e-06
1.78808e-07
2.33276e-06
1.69376e-07
2.29709e-06
1.49132e-07
2.25925e-06
1.24364e-07
2.2227e-06
1.00608e-07
2.18953e-06
8.11649e-08
2.16047e-06
6.69958e-08
2.13526e-06
5.74506e-08
2.11321e-06
5.11197e-08
2.09347e-06
4.65969e-08
2.07533e-06
4.28233e-08
2.0583e-06
3.94371e-08
2.04205e-06
3.63735e-08
2.02638e-06
3.396e-08
2.01125e-06
3.21017e-08
1.99665e-06
3.12843e-08
1.98269e-06
3.07915e-08
1.96931e-06
3.18134e-08
1.95662e-06
3.24061e-08
1.94439e-06
3.6056e-08
1.93253e-06
3.75685e-08
1.9209e-06
4.63837e-08
1.90856e-06
4.84841e-08
1.89676e-06
6.81897e-08
1.88071e-06
6.92828e-08
1.86901e-06
1.1085e-07
1.10674e-07
1.84176e-06
1.55869e-07
8.50347e-08
5.16456e-07
-3.93953e-07
8.16464e-07
-6.58509e-07
1.01123e-06
-7.03381e-07
1.12174e-06
-6.27778e-07
1.1767e-06
-4.92778e-07
1.19645e-06
-3.27483e-07
1.19036e-06
-1.4555e-07
1.15931e-06
4.57185e-08
1.10771e-06
2.42912e-07
1.02934e-06
4.34425e-07
9.17103e-07
6.11159e-07
7.52809e-07
7.55302e-07
5.20719e-07
8.26738e-07
2.48586e-07
7.89198e-07
-1.29988e-08
6.74693e-07
-2.27311e-07
5.41007e-07
-3.98866e-07
4.1959e-07
-5.64083e-07
3.65977e-07
-7.53409e-07
3.9914e-07
-9.92407e-07
5.34474e-07
-1.26008e-06
6.84363e-07
-1.5396e-06
7.87212e-07
-1.83027e-06
8.67563e-07
-2.1113e-06
9.36215e-07
-2.36169e-06
9.81369e-07
-2.5871e-06
9.91512e-07
-2.80539e-06
9.85532e-07
-3.0199e-06
9.77685e-07
-3.22777e-06
9.57604e-07
-3.43061e-06
9.23731e-07
-3.62622e-06
8.79407e-07
-3.81049e-06
8.2231e-07
-3.98131e-06
7.53377e-07
-4.13563e-06
6.74633e-07
-4.2703e-06
5.87071e-07
-4.38316e-06
4.92582e-07
-4.47258e-06
3.93237e-07
-4.53756e-06
2.91011e-07
-4.57751e-06
1.87613e-07
-4.59216e-06
8.44055e-08
-4.58223e-06
-1.70655e-08
-4.54903e-06
-1.15965e-07
-4.49353e-06
-2.12208e-07
-4.41709e-06
-3.0555e-07
-4.32127e-06
-3.96044e-07
-4.20761e-06
-4.83803e-07
-4.07738e-06
-5.68988e-07
-3.93131e-06
-6.5173e-07
-3.76941e-06
-7.31938e-07
-3.59094e-06
-8.0905e-07
-3.39462e-06
-8.81961e-07
-3.17961e-06
-9.489e-07
-2.94685e-06
-1.00728e-06
-2.69865e-06
-1.05564e-06
-2.43867e-06
-1.09479e-06
-2.17379e-06
-1.12803e-06
-1.91325e-06
-1.16007e-06
-1.66509e-06
-1.19384e-06
-1.42816e-06
-1.22847e-06
-1.19234e-06
-1.26428e-06
-9.53099e-07
-1.2992e-06
-7.04115e-07
-1.3312e-06
-4.31572e-07
-1.34583e-06
-1.40078e-07
-1.32256e-06
1.61915e-07
-1.24884e-06
5.17506e-07
-1.09295e-06
9.86909e-07
-7.60391e-07
1.46637e-06
-1.98604e-07
1.73842e-06
4.08718e-07
1.68531e-06
8.02342e-07
1.42679e-06
8.65898e-07
1.20049e-06
8.11915e-07
1.05869e-06
9.07842e-07
8.95688e-07
8.34601e-07
6.61524e-07
2.76937e-07
4.17673e-07
-6.12455e-07
3.3003e-07
-1.38012e-06
3.56908e-07
-1.32205e-06
3.65829e-07
-7.28158e-07
3.05799e-07
-7.17002e-08
1.2242e-07
4.95045e-07
-2.54601e-07
9.70883e-07
-7.55421e-07
1.38002e-06
-1.27205e-06
1.72006e-06
-1.73019e-06
1.94882e-06
-2.09228e-06
2.06146e-06
-2.36206e-06
2.06719e-06
-2.57317e-06
1.98502e-06
-2.7606e-06
1.84751e-06
-2.94429e-06
1.68392e-06
-3.13051e-06
1.51292e-06
-3.31759e-06
1.34378e-06
-3.50009e-06
1.18031e-06
-3.67176e-06
1.02352e-06
-3.82705e-06
8.73272e-07
-3.96173e-06
7.29084e-07
-4.07285e-06
5.9049e-07
-4.15849e-06
4.57145e-07
-4.21764e-06
3.28847e-07
-4.25003e-06
2.05556e-07
-4.25557e-06
8.69902e-08
-4.23518e-06
-2.58316e-08
-4.19038e-06
-1.31591e-07
-4.12221e-06
-2.31328e-07
-4.03268e-06
-3.24013e-07
-3.92399e-06
-4.09692e-07
-3.79823e-06
-4.89167e-07
-3.65709e-06
-5.64153e-07
-3.50151e-06
-6.3751e-07
-3.33117e-06
-7.13362e-07
-3.14404e-06
-7.96614e-07
-2.93607e-06
-8.91785e-07
-2.70181e-06
-1.00069e-06
-2.43626e-06
-1.12031e-06
-2.13648e-06
-1.24301e-06
-1.80274e-06
-1.35755e-06
-1.43956e-06
-1.45034e-06
-1.05586e-06
-1.50778e-06
-6.64716e-07
-1.51898e-06
-2.80602e-07
-1.48141e-06
8.39253e-08
-1.40375e-06
4.23769e-07
-1.30394e-06
7.34563e-07
-1.19336e-06
1.01627e-06
-1.08257e-06
1.27024e-06
-9.76229e-07
1.49779e-06
-8.75865e-07
1.69976e-06
-7.81874e-07
1.87715e-06
-6.94649e-07
2.03138e-06