/*--------------------------------*- C++ -*----------------------------------*\
  =========                 |
  \\      /  F ield         | OpenFOAM: The Open Source CFD Toolbox
   \\    /   O peration     | Website:  https://openfoam.org
    \\  /    A nd           | Version:  7
     \\/     M anipulation  |
\*---------------------------------------------------------------------------*/
FoamFile
{
    version     2.0;
    format      ascii;
    class       volScalarField;
    location    "0.098";
    object      pPrime2Mean;
}
// * * * * * * * * * * * * * * * * * * * * * * * * * * * * * * * * * * * * * //

dimensions      [0 4 -4 0 0 0 0];

internalField   nonuniform List<scalar> 
12225
(
3.68202e+06
3.62359e+06
3.56321e+06
3.50492e+06
3.4489e+06
3.39499e+06
3.34304e+06
3.29291e+06
3.24442e+06
3.19742e+06
3.15172e+06
3.10709e+06
3.06328e+06
3.01995e+06
2.97666e+06
2.93271e+06
2.88683e+06
2.83595e+06
3.68208e+06
3.62362e+06
3.56324e+06
3.50495e+06
3.44894e+06
3.39503e+06
3.34309e+06
3.29296e+06
3.24449e+06
3.19751e+06
3.15182e+06
3.10722e+06
3.06346e+06
3.0202e+06
2.97704e+06
2.9333e+06
2.88796e+06
2.83851e+06
3.68217e+06
3.62368e+06
3.5633e+06
3.50502e+06
3.44901e+06
3.39512e+06
3.34319e+06
3.29308e+06
3.24464e+06
3.19769e+06
3.15205e+06
3.10752e+06
3.06385e+06
3.02075e+06
2.97784e+06
2.93458e+06
2.89022e+06
2.84381e+06
3.68228e+06
3.62379e+06
3.56341e+06
3.50513e+06
3.44914e+06
3.39526e+06
3.34335e+06
3.29328e+06
3.24488e+06
3.19799e+06
3.15243e+06
3.10801e+06
3.0645e+06
3.02164e+06
2.97912e+06
2.93655e+06
2.89356e+06
2.85014e+06
3.68242e+06
3.62394e+06
3.56356e+06
3.5053e+06
3.44932e+06
3.39547e+06
3.3436e+06
3.29357e+06
3.24523e+06
3.19842e+06
3.15298e+06
3.10872e+06
3.06543e+06
3.02291e+06
2.98092e+06
2.93922e+06
2.89775e+06
2.857e+06
3.68263e+06
3.62415e+06
3.56378e+06
3.50553e+06
3.44957e+06
3.39576e+06
3.34394e+06
3.29397e+06
3.24572e+06
3.19903e+06
3.15373e+06
3.10968e+06
3.06669e+06
3.02459e+06
2.98323e+06
2.94253e+06
2.9026e+06
2.86411e+06
3.6829e+06
3.62442e+06
3.56406e+06
3.50583e+06
3.44991e+06
3.39614e+06
3.34438e+06
3.2945e+06
3.24636e+06
3.19981e+06
3.15471e+06
3.11092e+06
3.06829e+06
3.0267e+06
2.98606e+06
2.94641e+06
2.90796e+06
2.87134e+06
3.68324e+06
3.62478e+06
3.56443e+06
3.50623e+06
3.45034e+06
3.39663e+06
3.34495e+06
3.29517e+06
3.24717e+06
3.2008e+06
3.15594e+06
3.11246e+06
3.07025e+06
3.02923e+06
2.98938e+06
2.95079e+06
2.9137e+06
2.87864e+06
3.68369e+06
3.62524e+06
3.5649e+06
3.50672e+06
3.45088e+06
3.39724e+06
3.34566e+06
3.29601e+06
3.24817e+06
3.20202e+06
3.15744e+06
3.11432e+06
3.07259e+06
3.0322e+06
2.99316e+06
2.95559e+06
2.91973e+06
2.88597e+06
3.68424e+06
3.62581e+06
3.56547e+06
3.50732e+06
3.45154e+06
3.39799e+06
3.34652e+06
3.29703e+06
3.24939e+06
3.20349e+06
3.15923e+06
3.11652e+06
3.07531e+06
3.03557e+06
2.99735e+06
2.96076e+06
2.92599e+06
2.89333e+06
3.68504e+06
3.62651e+06
3.56617e+06
3.50806e+06
3.45234e+06
3.39889e+06
3.34756e+06
3.29825e+06
3.25084e+06
3.20522e+06
3.16132e+06
3.11906e+06
3.0784e+06
3.03933e+06
3.0019e+06
2.96622e+06
2.93243e+06
2.9007e+06
3.68578e+06
3.62728e+06
3.56694e+06
3.50886e+06
3.45322e+06
3.39987e+06
3.34869e+06
3.29956e+06
3.25238e+06
3.20706e+06
3.16352e+06
3.12169e+06
3.08155e+06
3.0431e+06
3.00637e+06
2.97145e+06
2.93845e+06
2.90746e+06
3.68679e+06
3.62818e+06
3.56783e+06
3.50978e+06
3.45422e+06
3.40098e+06
3.34996e+06
3.30104e+06
3.25411e+06
3.2091e+06
3.16593e+06
3.12455e+06
3.08493e+06
3.04708e+06
3.01102e+06
2.9768e+06
2.94449e+06
2.91416e+06
3.68812e+06
3.62938e+06
3.569e+06
3.51099e+06
3.45553e+06
3.40244e+06
3.35162e+06
3.30295e+06
3.25634e+06
3.21171e+06
3.16898e+06
3.12812e+06
3.0891e+06
3.0519e+06
3.01654e+06
2.98305e+06
2.95145e+06
2.92176e+06
3.68985e+06
3.63095e+06
3.57054e+06
3.51259e+06
3.45724e+06
3.40435e+06
3.35377e+06
3.30542e+06
3.25919e+06
3.215e+06
3.17279e+06
3.13252e+06
3.09414e+06
3.05764e+06
3.02302e+06
2.99026e+06
2.95936e+06
2.93029e+06
3.69201e+06
3.63298e+06
3.57253e+06
3.51465e+06
3.45946e+06
3.4068e+06
3.35653e+06
3.30855e+06
3.26276e+06
3.21909e+06
3.17746e+06
3.13782e+06
3.10014e+06
3.06436e+06
3.03047e+06
2.99842e+06
2.96819e+06
2.93972e+06
3.69474e+06
3.63552e+06
3.57505e+06
3.51727e+06
3.46227e+06
3.40989e+06
3.35998e+06
3.31243e+06
3.26714e+06
3.22404e+06
3.18303e+06
3.14407e+06
3.10708e+06
3.07202e+06
3.03884e+06
3.00747e+06
2.97786e+06
2.94995e+06
3.69786e+06
3.63855e+06
3.5781e+06
3.52046e+06
3.46571e+06
3.41365e+06
3.36415e+06
3.31708e+06
3.27233e+06
3.22982e+06
3.18946e+06
3.15116e+06
3.11486e+06
3.08048e+06
3.04795e+06
3.01721e+06
2.98817e+06
2.96076e+06
3.70133e+06
3.64195e+06
3.58159e+06
3.52415e+06
3.46968e+06
3.418e+06
3.36894e+06
3.32237e+06
3.27818e+06
3.23626e+06
3.19651e+06
3.15885e+06
3.12318e+06
3.08942e+06
3.05748e+06
3.02728e+06
2.99873e+06
2.97176e+06
3.7038e+06
3.64457e+06
3.58438e+06
3.52716e+06
3.47297e+06
3.4216e+06
3.37289e+06
3.3267e+06
3.28292e+06
3.24143e+06
3.20213e+06
3.1649e+06
3.12966e+06
3.09631e+06
3.06475e+06
3.03491e+06
3.00669e+06
2.98e+06
3.70515e+06
3.64619e+06
3.58621e+06
3.52917e+06
3.47519e+06
3.42404e+06
3.37557e+06
3.32964e+06
3.28612e+06
3.2449e+06
3.20587e+06
3.16891e+06
3.13393e+06
3.10083e+06
3.0695e+06
3.03987e+06
3.01184e+06
2.98533e+06
3.70622e+06
3.64733e+06
3.58749e+06
3.53062e+06
3.4768e+06
3.42582e+06
3.37753e+06
3.33178e+06
3.28846e+06
3.24743e+06
3.20858e+06
3.17181e+06
3.137e+06
3.10407e+06
3.0729e+06
3.04341e+06
3.01551e+06
2.98911e+06
3.70661e+06
3.64803e+06
3.58836e+06
3.53164e+06
3.47795e+06
3.4271e+06
3.37894e+06
3.33333e+06
3.29013e+06
3.24924e+06
3.21052e+06
3.17387e+06
3.13919e+06
3.10637e+06
3.07531e+06
3.04592e+06
3.0181e+06
2.99177e+06
3.70694e+06
3.64848e+06
3.58895e+06
3.53234e+06
3.47875e+06
3.428e+06
3.37994e+06
3.33442e+06
3.29132e+06
3.25051e+06
3.21189e+06
3.17533e+06
3.14073e+06
3.10798e+06
3.07699e+06
3.04767e+06
3.01991e+06
2.99363e+06
3.7071e+06
3.64875e+06
3.58934e+06
3.53282e+06
3.4793e+06
3.42862e+06
3.38062e+06
3.33517e+06
3.29213e+06
3.25139e+06
3.21283e+06
3.17633e+06
3.14178e+06
3.10909e+06
3.07815e+06
3.04887e+06
3.02115e+06
2.99491e+06
3.70699e+06
3.64889e+06
3.58958e+06
3.53313e+06
3.47967e+06
3.42904e+06
3.38108e+06
3.33567e+06
3.29268e+06
3.25198e+06
3.21346e+06
3.177e+06
3.14249e+06
3.10983e+06
3.07893e+06
3.04967e+06
3.02198e+06
2.99576e+06
3.70692e+06
3.64896e+06
3.58973e+06
3.53333e+06
3.47991e+06
3.42931e+06
3.38138e+06
3.336e+06
3.29304e+06
3.25236e+06
3.21387e+06
3.17743e+06
3.14295e+06
3.11031e+06
3.07943e+06
3.05019e+06
3.02251e+06
2.99631e+06
3.70691e+06
3.64901e+06
3.58982e+06
3.53345e+06
3.48005e+06
3.42947e+06
3.38156e+06
3.3362e+06
3.29325e+06
3.2526e+06
3.21411e+06
3.17769e+06
3.14322e+06
3.1106e+06
3.07973e+06
3.0505e+06
3.02284e+06
2.99664e+06
3.7069e+06
3.64903e+06
3.58987e+06
3.53351e+06
3.48013e+06
3.42956e+06
3.38166e+06
3.33631e+06
3.29337e+06
3.25272e+06
3.21425e+06
3.17784e+06
3.14337e+06
3.11076e+06
3.07989e+06
3.05067e+06
3.02301e+06
2.99682e+06
3.7069e+06
3.64904e+06
3.58989e+06
3.53354e+06
3.48016e+06
3.42959e+06
3.3817e+06
3.33635e+06
3.29341e+06
3.25277e+06
3.2143e+06
3.17789e+06
3.14343e+06
3.11082e+06
3.07996e+06
3.05074e+06
3.02308e+06
2.99689e+06
2.39634e+06
2.39615e+06
2.39576e+06
2.39518e+06
2.39439e+06
2.3934e+06
2.3922e+06
2.39079e+06
2.38916e+06
2.38732e+06
2.38525e+06
2.38296e+06
2.38045e+06
2.37772e+06
2.37476e+06
2.37157e+06
2.36815e+06
2.36451e+06
2.36063e+06
2.35653e+06
2.35221e+06
2.34765e+06
2.34287e+06
2.33787e+06
2.33265e+06
2.3272e+06
2.32153e+06
2.31565e+06
2.30955e+06
2.30324e+06
2.29672e+06
2.29e+06
2.28306e+06
2.27593e+06
2.2686e+06
2.26107e+06
2.25335e+06
2.24543e+06
2.23733e+06
2.22905e+06
2.22058e+06
2.21194e+06
2.20312e+06
2.19414e+06
2.18498e+06
2.17566e+06
2.16617e+06
2.15653e+06
2.14673e+06
2.13678e+06
2.12668e+06
2.11643e+06
2.10603e+06
2.0955e+06
2.08482e+06
2.07401e+06
2.06307e+06
2.052e+06
2.0408e+06
2.02947e+06
2.01802e+06
2.00645e+06
1.99477e+06
1.98297e+06
1.97106e+06
1.95903e+06
1.9469e+06
1.93467e+06
1.92233e+06
1.90989e+06
1.89735e+06
1.88471e+06
1.87197e+06
1.85915e+06
1.84623e+06
1.83322e+06
1.82013e+06
1.80695e+06
1.79368e+06
1.78033e+06
1.7669e+06
1.7534e+06
1.73981e+06
1.72615e+06
1.71241e+06
1.6986e+06
1.68472e+06
1.67078e+06
1.65676e+06
1.64267e+06
1.62852e+06
1.61431e+06
1.60004e+06
1.5857e+06
1.57131e+06
1.55686e+06
1.54235e+06
1.52779e+06
1.51317e+06
1.4985e+06
1.48378e+06
1.46901e+06
1.45419e+06
1.43932e+06
1.42441e+06
1.40945e+06
1.39445e+06
1.37941e+06
1.36433e+06
1.34922e+06
1.33406e+06
1.31887e+06
1.30364e+06
1.28839e+06
1.2731e+06
1.25778e+06
1.24243e+06
1.22706e+06
1.21166e+06
1.19623e+06
1.18078e+06
1.16532e+06
1.14983e+06
1.13433e+06
1.11881e+06
1.10327e+06
1.08773e+06
1.07217e+06
1.0566e+06
1.04103e+06
1.02545e+06
1.00987e+06
994286
978703
963123
947547
931978
916418
900869
885333
869812
854310
838827
823367
807932
792525
777147
761803
746493
731222
715991
700804
685664
670573
655535
640553
625629
610767
595971
581244
566590
552011
537513
523098
508771
494536
480397
466360
452428
438608
424905
411326
397878
384569
371411
358415
345599
332990
320632
308622
2.3972e+06
2.39701e+06
2.39662e+06
2.39604e+06
2.39525e+06
2.39425e+06
2.39304e+06
2.39162e+06
2.38998e+06
2.38813e+06
2.38605e+06
2.38375e+06
2.38123e+06
2.37848e+06
2.3755e+06
2.3723e+06
2.36886e+06
2.3652e+06
2.36131e+06
2.3572e+06
2.35285e+06
2.34828e+06
2.34348e+06
2.33846e+06
2.33322e+06
2.32775e+06
2.32207e+06
2.31617e+06
2.31005e+06
2.30372e+06
2.29719e+06
2.29044e+06
2.28349e+06
2.27634e+06
2.26899e+06
2.26145e+06
2.25371e+06
2.24578e+06
2.23766e+06
2.22937e+06
2.22089e+06
2.21223e+06
2.2034e+06
2.1944e+06
2.18523e+06
2.1759e+06
2.1664e+06
2.15675e+06
2.14694e+06
2.13697e+06
2.12686e+06
2.1166e+06
2.1062e+06
2.09566e+06
2.08497e+06
2.07416e+06
2.0632e+06
2.05212e+06
2.04092e+06
2.02958e+06
2.01813e+06
2.00656e+06
1.99487e+06
1.98306e+06
1.97114e+06
1.95911e+06
1.94698e+06
1.93474e+06
1.92239e+06
1.90995e+06
1.89741e+06
1.88476e+06
1.87203e+06
1.8592e+06
1.84628e+06
1.83327e+06
1.82017e+06
1.80699e+06
1.79372e+06
1.78037e+06
1.76694e+06
1.75343e+06
1.73984e+06
1.72618e+06
1.71244e+06
1.69863e+06
1.68475e+06
1.6708e+06
1.65678e+06
1.64269e+06
1.62854e+06
1.61433e+06
1.60005e+06
1.58572e+06
1.57132e+06
1.55687e+06
1.54236e+06
1.5278e+06
1.51318e+06
1.49851e+06
1.48378e+06
1.46901e+06
1.45419e+06
1.43933e+06
1.42441e+06
1.40946e+06
1.39446e+06
1.37942e+06
1.36434e+06
1.34922e+06
1.33406e+06
1.31887e+06
1.30365e+06
1.28839e+06
1.2731e+06
1.25778e+06
1.24243e+06
1.22706e+06
1.21166e+06
1.19623e+06
1.18079e+06
1.16532e+06
1.14983e+06
1.13433e+06
1.11881e+06
1.10327e+06
1.08773e+06
1.07217e+06
1.0566e+06
1.04103e+06
1.02545e+06
1.00987e+06
994287
978704
963123
947548
931978
916418
900869
885333
869812
854310
838827
823367
807932
792525
777148
761803
746493
731222
715991
700804
685664
670573
655535
640552
625629
610767
595971
581244
566590
552011
537512
523097
508770
494535
480396
466358
452427
438606
424903
411323
397874
384564
371403
358404
345584
332967
320591
308524
2.39894e+06
2.39875e+06
2.39835e+06
2.39776e+06
2.39696e+06
2.39595e+06
2.39472e+06
2.39329e+06
2.39163e+06
2.38975e+06
2.38765e+06
2.38533e+06
2.38278e+06
2.38e+06
2.377e+06
2.37376e+06
2.3703e+06
2.3666e+06
2.36268e+06
2.35853e+06
2.35414e+06
2.34954e+06
2.3447e+06
2.33964e+06
2.33436e+06
2.32886e+06
2.32314e+06
2.3172e+06
2.31105e+06
2.30468e+06
2.29811e+06
2.29133e+06
2.28435e+06
2.27716e+06
2.26978e+06
2.2622e+06
2.25443e+06
2.24647e+06
2.23833e+06
2.23e+06
2.22149e+06
2.21281e+06
2.20395e+06
2.19493e+06
2.18573e+06
2.17637e+06
2.16686e+06
2.15718e+06
2.14735e+06
2.13737e+06
2.12723e+06
2.11696e+06
2.10653e+06
2.09597e+06
2.08527e+06
2.07444e+06
2.06347e+06
2.05238e+06
2.04116e+06
2.02981e+06
2.01835e+06
2.00676e+06
1.99506e+06
1.98324e+06
1.97131e+06
1.95928e+06
1.94713e+06
1.93488e+06
1.92253e+06
1.91008e+06
1.89753e+06
1.88488e+06
1.87213e+06
1.8593e+06
1.84637e+06
1.83336e+06
1.82025e+06
1.80706e+06
1.79379e+06
1.78044e+06
1.767e+06
1.75349e+06
1.7399e+06
1.72623e+06
1.71249e+06
1.69867e+06
1.68479e+06
1.67084e+06
1.65681e+06
1.64273e+06
1.62857e+06
1.61436e+06
1.60008e+06
1.58574e+06
1.57135e+06
1.55689e+06
1.54238e+06
1.52782e+06
1.5132e+06
1.49852e+06
1.4838e+06
1.46903e+06
1.45421e+06
1.43934e+06
1.42443e+06
1.40947e+06
1.39447e+06
1.37943e+06
1.36435e+06
1.34923e+06
1.33407e+06
1.31888e+06
1.30365e+06
1.28839e+06
1.2731e+06
1.25778e+06
1.24244e+06
1.22706e+06
1.21166e+06
1.19624e+06
1.18079e+06
1.16532e+06
1.14983e+06
1.13433e+06
1.11881e+06
1.10328e+06
1.08773e+06
1.07217e+06
1.05661e+06
1.04103e+06
1.02545e+06
1.00987e+06
994287
978704
963124
947548
931979
916419
900869
885333
869813
854310
838828
823368
807933
792525
777148
761803
746493
731222
715991
700805
685664
670573
655535
640552
625629
610767
595971
581244
566589
552010
537512
523096
508769
494534
480394
466356
452424
438603
424898
411317
397866
384553
371389
358384
345555
332922
320515
308370
2.40156e+06
2.40136e+06
2.40096e+06
2.40035e+06
2.39953e+06
2.3985e+06
2.39726e+06
2.3958e+06
2.39411e+06
2.3922e+06
2.39007e+06
2.38771e+06
2.38512e+06
2.3823e+06
2.37924e+06
2.37596e+06
2.37245e+06
2.3687e+06
2.36473e+06
2.36052e+06
2.35609e+06
2.35142e+06
2.34653e+06
2.34142e+06
2.33608e+06
2.33052e+06
2.32474e+06
2.31875e+06
2.31254e+06
2.30612e+06
2.2995e+06
2.29266e+06
2.28563e+06
2.27839e+06
2.27096e+06
2.26333e+06
2.25551e+06
2.24751e+06
2.23932e+06
2.23095e+06
2.2224e+06
2.21367e+06
2.20478e+06
2.19571e+06
2.18648e+06
2.17709e+06
2.16754e+06
2.15783e+06
2.14796e+06
2.13795e+06
2.12779e+06
2.11748e+06
2.10703e+06
2.09645e+06
2.08572e+06
2.07487e+06
2.06388e+06
2.05276e+06
2.04152e+06
2.03015e+06
2.01867e+06
2.00706e+06
1.99534e+06
1.98351e+06
1.97157e+06
1.95952e+06
1.94736e+06
1.9351e+06
1.92273e+06
1.91027e+06
1.8977e+06
1.88505e+06
1.87229e+06
1.85945e+06
1.84651e+06
1.83349e+06
1.82038e+06
1.80718e+06
1.7939e+06
1.78054e+06
1.7671e+06
1.75358e+06
1.73998e+06
1.72631e+06
1.71256e+06
1.69874e+06
1.68485e+06
1.6709e+06
1.65687e+06
1.64278e+06
1.62862e+06
1.6144e+06
1.60012e+06
1.58578e+06
1.57138e+06
1.55693e+06
1.54241e+06
1.52784e+06
1.51322e+06
1.49855e+06
1.48382e+06
1.46905e+06
1.45423e+06
1.43936e+06
1.42444e+06
1.40948e+06
1.39448e+06
1.37944e+06
1.36436e+06
1.34924e+06
1.33408e+06
1.31889e+06
1.30366e+06
1.2884e+06
1.27311e+06
1.25779e+06
1.24244e+06
1.22707e+06
1.21166e+06
1.19624e+06
1.18079e+06
1.16533e+06
1.14984e+06
1.13433e+06
1.11881e+06
1.10328e+06
1.08773e+06
1.07217e+06
1.05661e+06
1.04103e+06
1.02545e+06
1.00987e+06
994289
978705
963125
947549
931980
916419
900870
885334
869813
854311
838828
823368
807933
792525
777148
761803
746494
731222
715992
700805
685664
670573
655535
640552
625629
610767
595971
581243
566589
552010
537511
523095
508767
494532
480392
466353
452420
438597
424891
411308
397854
384538
371368
358355
345514
332860
320414
308192
2.40508e+06
2.40487e+06
2.40446e+06
2.40383e+06
2.40299e+06
2.40194e+06
2.40066e+06
2.39916e+06
2.39744e+06
2.39549e+06
2.39331e+06
2.39089e+06
2.38825e+06
2.38537e+06
2.38225e+06
2.37891e+06
2.37533e+06
2.37151e+06
2.36746e+06
2.36319e+06
2.35868e+06
2.35394e+06
2.34897e+06
2.34378e+06
2.33837e+06
2.33273e+06
2.32688e+06
2.32081e+06
2.31453e+06
2.30804e+06
2.30134e+06
2.29443e+06
2.28733e+06
2.28002e+06
2.27253e+06
2.26483e+06
2.25695e+06
2.24889e+06
2.24064e+06
2.23221e+06
2.2236e+06
2.21482e+06
2.20587e+06
2.19676e+06
2.18748e+06
2.17804e+06
2.16844e+06
2.15868e+06
2.14878e+06
2.13872e+06
2.12852e+06
2.11818e+06
2.1077e+06
2.09707e+06
2.08632e+06
2.07543e+06
2.06441e+06
2.05326e+06
2.042e+06
2.0306e+06
2.01909e+06
2.00747e+06
1.99572e+06
1.98387e+06
1.97191e+06
1.95984e+06
1.94766e+06
1.93538e+06
1.923e+06
1.91052e+06
1.89794e+06
1.88527e+06
1.8725e+06
1.85964e+06
1.8467e+06
1.83366e+06
1.82054e+06
1.80733e+06
1.79404e+06
1.78067e+06
1.76722e+06
1.7537e+06
1.74009e+06
1.72641e+06
1.71266e+06
1.69883e+06
1.68494e+06
1.67098e+06
1.65694e+06
1.64285e+06
1.62869e+06
1.61446e+06
1.60018e+06
1.58583e+06
1.57143e+06
1.55697e+06
1.54245e+06
1.52788e+06
1.51326e+06
1.49858e+06
1.48385e+06
1.46908e+06
1.45425e+06
1.43938e+06
1.42446e+06
1.4095e+06
1.3945e+06
1.37946e+06
1.36437e+06
1.34925e+06
1.33409e+06
1.3189e+06
1.30367e+06
1.28841e+06
1.27312e+06
1.2578e+06
1.24245e+06
1.22707e+06
1.21167e+06
1.19625e+06
1.1808e+06
1.16533e+06
1.14984e+06
1.13434e+06
1.11882e+06
1.10328e+06
1.08773e+06
1.07218e+06
1.05661e+06
1.04104e+06
1.02546e+06
1.00987e+06
994290
978707
963126
947550
931981
916420
900871
885335
869814
854311
838829
823368
807933
792526
777148
761804
746494
731223
715992
700805
685664
670573
655535
640552
625628
610767
595970
581243
566588
552009
537509
523094
508765
494529
480388
466349
452414
438590
424882
411296
397839
384517
371341
358318
345462
332784
320298
308005
2.40952e+06
2.4093e+06
2.40887e+06
2.40822e+06
2.40736e+06
2.40627e+06
2.40495e+06
2.40341e+06
2.40163e+06
2.39962e+06
2.39738e+06
2.3949e+06
2.39218e+06
2.38923e+06
2.38603e+06
2.3826e+06
2.37894e+06
2.37503e+06
2.3709e+06
2.36653e+06
2.36192e+06
2.35709e+06
2.35203e+06
2.34674e+06
2.34123e+06
2.3355e+06
2.32955e+06
2.32339e+06
2.31701e+06
2.31043e+06
2.30364e+06
2.29664e+06
2.28945e+06
2.28206e+06
2.27448e+06
2.2667e+06
2.25874e+06
2.2506e+06
2.24227e+06
2.23377e+06
2.2251e+06
2.21625e+06
2.20723e+06
2.19805e+06
2.18871e+06
2.17921e+06
2.16956e+06
2.15975e+06
2.14979e+06
2.13969e+06
2.12944e+06
2.11905e+06
2.10852e+06
2.09785e+06
2.08706e+06
2.07613e+06
2.06507e+06
2.05389e+06
2.04259e+06
2.03116e+06
2.01962e+06
2.00797e+06
1.9962e+06
1.98432e+06
1.97233e+06
1.96023e+06
1.94803e+06
1.93573e+06
1.92333e+06
1.91083e+06
1.89823e+06
1.88554e+06
1.87276e+06
1.85989e+06
1.84693e+06
1.83388e+06
1.82074e+06
1.80752e+06
1.79422e+06
1.78084e+06
1.76738e+06
1.75384e+06
1.74023e+06
1.72654e+06
1.71278e+06
1.69895e+06
1.68504e+06
1.67107e+06
1.65704e+06
1.64293e+06
1.62877e+06
1.61454e+06
1.60025e+06
1.5859e+06
1.57149e+06
1.55703e+06
1.54251e+06
1.52793e+06
1.5133e+06
1.49862e+06
1.48389e+06
1.46911e+06
1.45428e+06
1.43941e+06
1.42449e+06
1.40953e+06
1.39452e+06
1.37948e+06
1.36439e+06
1.34927e+06
1.33411e+06
1.31891e+06
1.30369e+06
1.28842e+06
1.27313e+06
1.25781e+06
1.24246e+06
1.22708e+06
1.21168e+06
1.19625e+06
1.1808e+06
1.16534e+06
1.14985e+06
1.13434e+06
1.11882e+06
1.10329e+06
1.08774e+06
1.07218e+06
1.05661e+06
1.04104e+06
1.02546e+06
1.00988e+06
994292
978708
963127
947551
931982
916421
900872
885335
869815
854312
838829
823369
807934
792526
777149
761804
746494
731223
715992
700805
685665
670574
655535
640552
625628
610766
595970
581242
566587
552008
537508
523092
508763
494526
480384
466343
452407
438581
424871
411282
397820
384493
371308
358274
345401
332698
320171
307816
2.41491e+06
2.41468e+06
2.41423e+06
2.41355e+06
2.41265e+06
2.41152e+06
2.41015e+06
2.40855e+06
2.40671e+06
2.40463e+06
2.40231e+06
2.39974e+06
2.39694e+06
2.39389e+06
2.3906e+06
2.38706e+06
2.38329e+06
2.37928e+06
2.37503e+06
2.37054e+06
2.36582e+06
2.36087e+06
2.35569e+06
2.35029e+06
2.34466e+06
2.33881e+06
2.33275e+06
2.32647e+06
2.31998e+06
2.31328e+06
2.30638e+06
2.29928e+06
2.29198e+06
2.28449e+06
2.27681e+06
2.26893e+06
2.26088e+06
2.25264e+06
2.24423e+06
2.23564e+06
2.22688e+06
2.21795e+06
2.20885e+06
2.1996e+06
2.19018e+06
2.18061e+06
2.17089e+06
2.16102e+06
2.151e+06
2.14083e+06
2.13052e+06
2.12008e+06
2.1095e+06
2.09878e+06
2.08793e+06
2.07696e+06
2.06586e+06
2.05464e+06
2.04329e+06
2.03183e+06
2.02025e+06
2.00856e+06
1.99676e+06
1.98485e+06
1.97283e+06
1.9607e+06
1.94848e+06
1.93615e+06
1.92372e+06
1.9112e+06
1.89858e+06
1.88587e+06
1.87307e+06
1.86018e+06
1.8472e+06
1.83413e+06
1.82098e+06
1.80775e+06
1.79444e+06
1.78104e+06
1.76757e+06
1.75402e+06
1.74039e+06
1.72669e+06
1.71292e+06
1.69908e+06
1.68517e+06
1.67119e+06
1.65715e+06
1.64303e+06
1.62886e+06
1.61463e+06
1.60033e+06
1.58597e+06
1.57156e+06
1.55709e+06
1.54257e+06
1.52799e+06
1.51335e+06
1.49867e+06
1.48394e+06
1.46915e+06
1.45432e+06
1.43944e+06
1.42452e+06
1.40956e+06
1.39455e+06
1.3795e+06
1.36442e+06
1.34929e+06
1.33413e+06
1.31893e+06
1.3037e+06
1.28844e+06
1.27314e+06
1.25782e+06
1.24247e+06
1.22709e+06
1.21169e+06
1.19626e+06
1.18081e+06
1.16534e+06
1.14985e+06
1.13435e+06
1.11883e+06
1.10329e+06
1.08774e+06
1.07218e+06
1.05662e+06
1.04104e+06
1.02546e+06
1.00988e+06
994294
978710
963129
947553
931983
916422
900873
885337
869816
854313
838830
823370
807935
792527
777149
761805
746495
731223
715992
700805
685665
670574
655535
640552
625628
610766
595969
581241
566586
552006
537506
523089
508760
494522
480379
466337
452399
438571
424858
411265
397799
384465
371271
358225
345333
332604
320039
307630
2.42128e+06
2.42104e+06
2.42056e+06
2.41986e+06
2.41891e+06
2.41772e+06
2.4163e+06
2.41462e+06
2.4127e+06
2.41053e+06
2.40811e+06
2.40545e+06
2.40253e+06
2.39937e+06
2.39596e+06
2.3923e+06
2.3884e+06
2.38425e+06
2.37987e+06
2.37524e+06
2.37039e+06
2.36529e+06
2.35998e+06
2.35443e+06
2.34866e+06
2.34268e+06
2.33647e+06
2.33006e+06
2.32343e+06
2.31661e+06
2.30958e+06
2.30235e+06
2.29492e+06
2.28731e+06
2.27951e+06
2.27152e+06
2.26335e+06
2.25501e+06
2.24649e+06
2.2378e+06
2.22894e+06
2.21991e+06
2.21073e+06
2.20139e+06
2.19189e+06
2.18223e+06
2.17243e+06
2.16248e+06
2.15239e+06
2.14216e+06
2.13178e+06
2.12127e+06
2.11063e+06
2.09985e+06
2.08895e+06
2.07792e+06
2.06677e+06
2.0555e+06
2.04411e+06
2.0326e+06
2.02098e+06
2.00925e+06
1.99741e+06
1.98546e+06
1.9734e+06
1.96125e+06
1.94899e+06
1.93663e+06
1.92418e+06
1.91163e+06
1.89899e+06
1.88625e+06
1.87343e+06
1.86051e+06
1.84751e+06
1.83443e+06
1.82126e+06
1.80801e+06
1.79468e+06
1.78127e+06
1.76778e+06
1.75422e+06
1.74058e+06
1.72687e+06
1.71309e+06
1.69924e+06
1.68531e+06
1.67133e+06
1.65727e+06
1.64315e+06
1.62897e+06
1.61473e+06
1.60042e+06
1.58606e+06
1.57164e+06
1.55717e+06
1.54264e+06
1.52805e+06
1.51342e+06
1.49873e+06
1.48399e+06
1.4692e+06
1.45437e+06
1.43949e+06
1.42456e+06
1.40959e+06
1.39458e+06
1.37953e+06
1.36444e+06
1.34931e+06
1.33415e+06
1.31895e+06
1.30372e+06
1.28846e+06
1.27316e+06
1.25784e+06
1.24248e+06
1.2271e+06
1.2117e+06
1.19627e+06
1.18082e+06
1.16535e+06
1.14986e+06
1.13435e+06
1.11883e+06
1.1033e+06
1.08775e+06
1.07219e+06
1.05662e+06
1.04104e+06
1.02546e+06
1.00988e+06
994297
978713
963131
947555
931985
916424
900874
885338
869817
854314
838831
823371
807936
792528
777150
761805
746495
731224
715993
700806
685665
670574
655535
640552
625628
610766
595969
581241
566585
552005
537504
523087
508757
494518
480374
466330
452391
438560
424844
411247
397775
384434
371230
358171
345261
332506
319905
307449
2.42869e+06
2.42843e+06
2.42792e+06
2.42717e+06
2.42617e+06
2.42492e+06
2.42342e+06
2.42166e+06
2.41964e+06
2.41736e+06
2.41483e+06
2.41204e+06
2.40899e+06
2.40569e+06
2.40213e+06
2.39832e+06
2.39427e+06
2.38996e+06
2.38542e+06
2.38063e+06
2.37561e+06
2.37035e+06
2.36487e+06
2.35916e+06
2.35323e+06
2.34708e+06
2.34072e+06
2.33414e+06
2.32736e+06
2.32038e+06
2.3132e+06
2.30583e+06
2.29826e+06
2.29051e+06
2.28257e+06
2.27445e+06
2.26616e+06
2.25769e+06
2.24905e+06
2.24024e+06
2.23127e+06
2.22214e+06
2.21285e+06
2.20341e+06
2.19381e+06
2.18407e+06
2.17418e+06
2.16414e+06
2.15397e+06
2.14365e+06
2.1332e+06
2.12262e+06
2.11191e+06
2.10107e+06
2.0901e+06
2.07901e+06
2.0678e+06
2.05647e+06
2.04503e+06
2.03347e+06
2.0218e+06
2.01002e+06
1.99814e+06
1.98615e+06
1.97406e+06
1.96186e+06
1.94957e+06
1.93718e+06
1.92469e+06
1.91211e+06
1.89944e+06
1.88668e+06
1.87383e+06
1.86089e+06
1.84787e+06
1.83476e+06
1.82158e+06
1.80831e+06
1.79496e+06
1.78153e+06
1.76803e+06
1.75445e+06
1.7408e+06
1.72707e+06
1.71328e+06
1.69941e+06
1.68548e+06
1.67148e+06
1.65741e+06
1.64328e+06
1.62909e+06
1.61484e+06
1.60053e+06
1.58616e+06
1.57174e+06
1.55725e+06
1.54272e+06
1.52813e+06
1.51348e+06
1.49879e+06
1.48405e+06
1.46925e+06
1.45442e+06
1.43953e+06
1.4246e+06
1.40963e+06
1.39462e+06
1.37956e+06
1.36447e+06
1.34934e+06
1.33418e+06
1.31897e+06
1.30374e+06
1.28847e+06
1.27318e+06
1.25785e+06
1.2425e+06
1.22712e+06
1.21171e+06
1.19628e+06
1.18083e+06
1.16536e+06
1.14987e+06
1.13436e+06
1.11884e+06
1.1033e+06
1.08775e+06
1.07219e+06
1.05662e+06
1.04105e+06
1.02547e+06
1.00988e+06
994299
978715
963134
947557
931987
916426
900876
885339
869818
854315
838832
823372
807937
792529
777151
761806
746496
731224
715993
700806
685665
670574
655535
640552
625628
610765
595968
581240
566583
552003
537502
523084
508753
494513
480368
466322
452381
438548
424828
411226
397749
384400
371186
358113
345185
332405
319772
307275
2.43719e+06
2.4369e+06
2.43636e+06
2.43556e+06
2.43449e+06
2.43316e+06
2.43156e+06
2.4297e+06
2.42756e+06
2.42516e+06
2.42248e+06
2.41954e+06
2.41633e+06
2.41287e+06
2.40914e+06
2.40515e+06
2.40091e+06
2.39642e+06
2.39169e+06
2.38671e+06
2.3815e+06
2.37605e+06
2.37038e+06
2.36448e+06
2.35836e+06
2.35202e+06
2.34547e+06
2.33872e+06
2.33176e+06
2.32461e+06
2.31726e+06
2.30972e+06
2.30199e+06
2.29408e+06
2.28599e+06
2.27772e+06
2.26928e+06
2.26067e+06
2.2519e+06
2.24296e+06
2.23387e+06
2.22462e+06
2.21521e+06
2.20566e+06
2.19595e+06
2.18611e+06
2.17612e+06
2.16599e+06
2.15572e+06
2.14532e+06
2.13479e+06
2.12412e+06
2.11333e+06
2.10241e+06
2.09137e+06
2.08022e+06
2.06894e+06
2.05755e+06
2.04605e+06
2.03443e+06
2.02271e+06
2.01088e+06
1.99895e+06
1.98691e+06
1.97478e+06
1.96254e+06
1.95021e+06
1.93778e+06
1.92526e+06
1.91265e+06
1.89994e+06
1.88715e+06
1.87427e+06
1.86131e+06
1.84826e+06
1.83514e+06
1.82193e+06
1.80864e+06
1.79527e+06
1.78182e+06
1.7683e+06
1.75471e+06
1.74104e+06
1.7273e+06
1.71349e+06
1.69961e+06
1.68566e+06
1.67165e+06
1.65757e+06
1.64343e+06
1.62923e+06
1.61497e+06
1.60065e+06
1.58627e+06
1.57184e+06
1.55735e+06
1.54281e+06
1.52821e+06
1.51356e+06
1.49886e+06
1.48411e+06
1.46931e+06
1.45447e+06
1.43958e+06
1.42465e+06
1.40967e+06
1.39466e+06
1.3796e+06
1.3645e+06
1.34937e+06
1.3342e+06
1.319e+06
1.30376e+06
1.2885e+06
1.2732e+06
1.25787e+06
1.24251e+06
1.22713e+06
1.21172e+06
1.19629e+06
1.18084e+06
1.16537e+06
1.14988e+06
1.13437e+06
1.11885e+06
1.10331e+06
1.08776e+06
1.0722e+06
1.05663e+06
1.04105e+06
1.02547e+06
1.00989e+06
994303
978718
963136
947559
931989
916428
900878
885341
869820
854317
838833
823373
807938
792530
777152
761807
746497
731225
715994
700806
685666
670574
655535
640552
625627
610765
595967
581239
566582
552001
537499
523081
508749
494508
480362
466314
452370
438534
424811
411205
397721
384365
371141
358054
345108
332304
319641
307109
2.44684e+06
2.44653e+06
2.44594e+06
2.44508e+06
2.44393e+06
2.4425e+06
2.44079e+06
2.4388e+06
2.43652e+06
2.43396e+06
2.43111e+06
2.42799e+06
2.4246e+06
2.42093e+06
2.417e+06
2.4128e+06
2.40835e+06
2.40364e+06
2.39869e+06
2.39349e+06
2.38805e+06
2.38239e+06
2.37649e+06
2.37037e+06
2.36404e+06
2.35749e+06
2.35074e+06
2.34378e+06
2.33662e+06
2.32927e+06
2.32173e+06
2.314e+06
2.30609e+06
2.29801e+06
2.28975e+06
2.28131e+06
2.27272e+06
2.26395e+06
2.25503e+06
2.24595e+06
2.23672e+06
2.22733e+06
2.2178e+06
2.20812e+06
2.1983e+06
2.18834e+06
2.17825e+06
2.16801e+06
2.15764e+06
2.14715e+06
2.13652e+06
2.12577e+06
2.11489e+06
2.10389e+06
2.09277e+06
2.08154e+06
2.07019e+06
2.05873e+06
2.04717e+06
2.03549e+06
2.02371e+06
2.01183e+06
1.99984e+06
1.98775e+06
1.97557e+06
1.96329e+06
1.95091e+06
1.93844e+06
1.92588e+06
1.91324e+06
1.9005e+06
1.88767e+06
1.87476e+06
1.86177e+06
1.8487e+06
1.83554e+06
1.82231e+06
1.809e+06
1.79561e+06
1.78214e+06
1.7686e+06
1.75499e+06
1.7413e+06
1.72754e+06
1.71372e+06
1.69982e+06
1.68586e+06
1.67183e+06
1.65774e+06
1.64359e+06
1.62938e+06
1.61511e+06
1.60078e+06
1.58639e+06
1.57195e+06
1.55745e+06
1.5429e+06
1.5283e+06
1.51364e+06
1.49894e+06
1.48418e+06
1.46938e+06
1.45453e+06
1.43964e+06
1.4247e+06
1.40972e+06
1.3947e+06
1.37964e+06
1.36454e+06
1.3494e+06
1.33423e+06
1.31903e+06
1.30379e+06
1.28852e+06
1.27322e+06
1.25789e+06
1.24253e+06
1.22715e+06
1.21174e+06
1.19631e+06
1.18085e+06
1.16538e+06
1.14989e+06
1.13438e+06
1.11885e+06
1.10332e+06
1.08776e+06
1.0722e+06
1.05663e+06
1.04106e+06
1.02548e+06
1.00989e+06
994306
978721
963139
947562
931991
916430
900880
885343
869821
854318
838835
823374
807939
792531
777153
761808
746498
731226
715994
700807
685666
670574
655535
640552
625627
610764
595967
581238
566581
551999
537497
523078
508745
494503
480355
466306
452360
438521
424793
411182
397692
384328
371094
357993
345030
332204
319513
306950
2.45774e+06
2.45739e+06
2.45675e+06
2.45581e+06
2.45456e+06
2.45302e+06
2.45117e+06
2.44902e+06
2.44656e+06
2.44381e+06
2.44077e+06
2.43743e+06
2.43381e+06
2.42991e+06
2.42573e+06
2.42129e+06
2.41659e+06
2.41163e+06
2.40642e+06
2.40096e+06
2.39527e+06
2.38935e+06
2.38321e+06
2.37684e+06
2.37027e+06
2.36348e+06
2.35649e+06
2.3493e+06
2.34192e+06
2.33435e+06
2.3266e+06
2.31867e+06
2.31056e+06
2.30228e+06
2.29383e+06
2.28522e+06
2.27645e+06
2.26752e+06
2.25843e+06
2.2492e+06
2.23981e+06
2.23028e+06
2.22061e+06
2.2108e+06
2.20085e+06
2.19077e+06
2.18055e+06
2.1702e+06
2.15973e+06
2.14912e+06
2.13839e+06
2.12754e+06
2.11657e+06
2.10549e+06
2.09429e+06
2.08297e+06
2.07155e+06
2.06001e+06
2.04838e+06
2.03663e+06
2.02479e+06
2.01285e+06
2.0008e+06
1.98866e+06
1.97643e+06
1.9641e+06
1.95167e+06
1.93916e+06
1.92656e+06
1.91387e+06
1.90109e+06
1.88824e+06
1.87529e+06
1.86227e+06
1.84916e+06
1.83598e+06
1.82272e+06
1.80938e+06
1.79597e+06
1.78248e+06
1.76892e+06
1.75529e+06
1.74158e+06
1.72781e+06
1.71396e+06
1.70005e+06
1.68608e+06
1.67204e+06
1.65793e+06
1.64377e+06
1.62954e+06
1.61526e+06
1.60092e+06
1.58652e+06
1.57207e+06
1.55757e+06
1.54301e+06
1.5284e+06
1.51374e+06
1.49902e+06
1.48426e+06
1.46945e+06
1.4546e+06
1.4397e+06
1.42476e+06
1.40977e+06
1.39475e+06
1.37968e+06
1.36458e+06
1.34944e+06
1.33427e+06
1.31906e+06
1.30382e+06
1.28854e+06
1.27324e+06
1.25791e+06
1.24255e+06
1.22716e+06
1.21175e+06
1.19632e+06
1.18087e+06
1.16539e+06
1.1499e+06
1.13439e+06
1.11886e+06
1.10332e+06
1.08777e+06
1.07221e+06
1.05664e+06
1.04106e+06
1.02548e+06
1.0099e+06
994310
978725
963142
947565
931994
916432
900882
885345
869823
854320
838836
823376
807940
792532
777154
761808
746498
731226
715995
700807
685666
670575
655536
640552
625627
610764
595966
581237
566579
551997
537495
523074
508741
494497
480348
466297
452348
438506
424775
411159
397663
384291
371046
357933
344953
332106
319391
306800
2.46998e+06