/*--------------------------------*- C++ -*----------------------------------*\
  =========                 |
  \\      /  F ield         | OpenFOAM: The Open Source CFD Toolbox
   \\    /   O peration     | Website:  https://openfoam.org
    \\  /    A nd           | Version:  7
     \\/     M anipulation  |
\*---------------------------------------------------------------------------*/
FoamFile
{
    version     2.0;
    format      ascii;
    class       volVectorField;
    location    "0.098";
    object      U;
}
// * * * * * * * * * * * * * * * * * * * * * * * * * * * * * * * * * * * * * //

dimensions      [0 1 -1 0 0 0 0];

internalField   nonuniform List<vector> 
12225
(
(4.70113 0.179561 0)
(4.09874 0.103529 0)
(3.66117 0.0891251 0)
(3.25513 0.0862895 0)
(2.85667 0.0748998 0)
(2.50331 0.0608283 0)
(2.19384 0.0520171 0)
(1.91501 0.0464875 0)
(1.65255 0.042411 0)
(1.39804 0.0387861 0)
(1.15451 0.0328736 0)
(0.939221 0.0231029 0)
(0.75337 0.0121987 0)
(0.609569 0.00343028 0)
(0.480804 -0.00153642 0)
(0.396862 -7.16189e-05 0)
(0.271195 -0.00930003 0)
(0.264936 -0.0246399 0)
(5.09366 0.110366 0)
(4.92539 0.0797921 0)
(4.75234 0.102198 0)
(4.62333 0.107864 0)
(4.49494 0.108894 0)
(4.35066 0.10282 0)
(4.19681 0.097369 0)
(4.04472 0.0971928 0)
(3.8909 0.100578 0)
(3.73433 0.10438 0)
(3.57182 0.105609 0)
(3.42061 0.103366 0)
(3.26423 0.0982321 0)
(3.12007 0.0917464 0)
(2.94361 0.0844216 0)
(2.79867 0.075879 0)
(2.59807 0.0719696 0)
(2.48537 0.0593491 0)
(5.05072 0.182145 0)
(4.87511 0.133898 0)
(4.76841 0.138111 0)
(4.73285 0.143483 0)
(4.72646 0.145479 0)
(4.70148 0.140401 0)
(4.65008 0.135327 0)
(4.59038 0.1342 0)
(4.53196 0.135594 0)
(4.4777 0.137706 0)
(4.42337 0.136875 0)
(4.37256 0.132052 0)
(4.31812 0.125097 0)
(4.26388 0.121534 0)
(4.1974 0.122372 0)
(4.12843 0.123957 0)
(4.0446 0.127556 0)
(3.95615 0.127645 0)
(4.96242 0.188196 0)
(4.81573 0.15732 0)
(4.71093 0.143765 0)
(4.68706 0.134765 0)
(4.69549 0.131154 0)
(4.68653 0.129583 0)
(4.65684 0.130934 0)
(4.62732 0.13408 0)
(4.61205 0.137074 0)
(4.61182 0.139615 0)
(4.61931 0.140107 0)
(4.62538 0.138081 0)
(4.62361 0.135305 0)
(4.6105 0.134978 0)
(4.59034 0.138366 0)
(4.56198 0.142565 0)
(4.53266 0.148623 0)
(4.49403 0.156548 0)
(4.86866 0.232638 0)
(4.81942 0.165075 0)
(4.79482 0.138254 0)
(4.78936 0.137785 0)
(4.78648 0.14714 0)
(4.76223 0.15238 0)
(4.72367 0.151771 0)
(4.69026 0.1467 0)
(4.6738 0.139442 0)
(4.67365 0.133308 0)
(4.68317 0.129938 0)
(4.69273 0.129111 0)
(4.69629 0.130756 0)
(4.68999 0.134896 0)
(4.6784 0.141787 0)
(4.66312 0.149025 0)
(4.64937 0.157388 0)
(4.63552 0.167055 0)
(5.01818 0.238821 0)
(4.86935 0.188795 0)
(4.77186 0.152405 0)
(4.74749 0.140627 0)
(4.76821 0.144311 0)
(4.7883 0.150168 0)
(4.7927 0.152367 0)
(4.78601 0.149379 0)
(4.77539 0.142739 0)
(4.76391 0.136367 0)
(4.75217 0.13352 0)
(4.7389 0.134663 0)
(4.72328 0.139052 0)
(4.70499 0.145499 0)
(4.68666 0.152954 0)
(4.67066 0.159984 0)
(4.65862 0.166214 0)
(4.65054 0.172453 0)
(4.99484 0.291491 0)
(4.89809 0.224329 0)
(4.86004 0.152327 0)
(4.83339 0.135853 0)
(4.83242 0.143658 0)
(4.83832 0.153047 0)
(4.83737 0.157613 0)
(4.83028 0.156304 0)
(4.82124 0.150584 0)
(4.81144 0.144307 0)
(4.8002 0.141225 0)
(4.7874 0.142372 0)
(4.77322 0.146685 0)
(4.75809 0.152541 0)
(4.74277 0.158379 0)
(4.72761 0.163304 0)
(4.71421 0.166984 0)
(4.69998 0.170268 0)
(5.01338 0.291376 0)
(4.96069 0.23987 0)
(4.92328 0.170449 0)
(4.88188 0.142224 0)
(4.85402 0.138078 0)
(4.83893 0.144053 0)
(4.83527 0.149798 0)
(4.84178 0.150114 0)
(4.85272 0.146021 0)
(4.86161 0.141967 0)
(4.866 0.141696 0)
(4.86726 0.145978 0)
(4.86736 0.153355 0)
(4.86587 0.161965 0)
(4.86188 0.170469 0)
(4.85263 0.177621 0)
(4.83956 0.183619 0)
(4.8194 0.187817 0)
(5.02778 0.347985 0)
(5.016 0.248599 0)
(5.00824 0.169947 0)
(4.96118 0.160618 0)
(4.90027 0.17036 0)
(4.86334 0.171933 0)
(4.86084 0.163598 0)
(4.87852 0.152543 0)
(4.89613 0.144282 0)
(4.90127 0.140535 0)
(4.89293 0.140742 0)
(4.8765 0.143725 0)
(4.85884 0.148769 0)
(4.84321 0.155891 0)
(4.83151 0.164988 0)
(4.82193 0.174969 0)
(4.81465 0.185123 0)
(4.807 0.193772 0)
(5.01717 0.32328 0)
(4.98019 0.25515 0)
(4.92272 0.191722 0)
(4.88183 0.173876 0)
(4.87774 0.166331 0)
(4.9022 0.152013 0)
(4.92936 0.136694 0)
(4.94144 0.129646 0)
(4.93631 0.132619 0)
(4.92096 0.141839 0)
(4.90263 0.152953 0)
(4.88454 0.163335 0)
(4.86817 0.17204 0)
(4.85338 0.179108 0)
(4.84203 0.18515 0)
(4.83374 0.19052 0)
(4.8304 0.195599 0)
(4.8287 0.200976 0)
(4.97523 0.322692 0)
(4.97079 0.258242 0)
(4.96177 0.204451 0)
(4.95751 0.180957 0)
(4.95679 0.169469 0)
(4.94746 0.160543 0)
(4.92632 0.154993 0)
(4.90344 0.154565 0)
(4.88707 0.157201 0)
(4.87828 0.16018 0)
(4.87474 0.162902 0)
(4.87382 0.165914 0)
(4.87429 0.1695 0)
(4.87501 0.173336 0)
(4.87529 0.177144 0)
(4.87429 0.181062 0)
(4.87207 0.185514 0)
(4.86792 0.191522 0)
(4.97962 0.323898 0)
(4.92575 0.262146 0)
(4.90528 0.206029 0)
(4.92977 0.169754 0)
(4.95456 0.158583 0)
(4.9542 0.15578 0)
(4.93544 0.151157 0)
(4.91777 0.146356 0)
(4.91086 0.144925 0)
(4.91261 0.147653 0)
(4.91664 0.153379 0)
(4.91811 0.160732 0)
(4.91595 0.168675 0)
(4.91116 0.176961 0)
(4.9051 0.185325 0)
(4.89827 0.19368 0)
(4.89132 0.202035 0)
(4.88356 0.209926 0)
(5.07037 0.285079 0)
(5.06729 0.264285 0)
(5.05842 0.200639 0)
(5.04228 0.162374 0)
(5.02655 0.167774 0)
(5.00469 0.182275 0)
(4.9763 0.184234 0)
(4.94911 0.17439 0)
(4.92913 0.163187 0)
(4.91702 0.158763 0)
(4.91004 0.16221 0)
(4.90461 0.169912 0)
(4.89932 0.17751 0)
(4.89376 0.182913 0)
(4.88927 0.18621 0)
(4.88582 0.189158 0)
(4.88447 0.193009 0)
(4.88469 0.199156 0)
(5.05669 0.265206 0)
(5.02432 0.27462 0)
(5.00333 0.228617 0)
(4.98412 0.181369 0)
(4.97995 0.166107 0)
(4.97782 0.168372 0)
(4.97169 0.170826 0)
(4.96263 0.16755 0)
(4.95353 0.16126 0)
(4.94728 0.157007 0)
(4.94454 0.157783 0)
(4.94294 0.163693 0)
(4.93971 0.172766 0)
(4.9329 0.183045 0)
(4.9238 0.192652 0)
(4.91409 0.201359 0)
(4.90719 0.208614 0)
(4.90355 0.215706 0)
(4.89143 0.300609 0)
(4.90945 0.275986 0)
(4.92115 0.213739 0)
(4.94793 0.178932 0)
(4.95916 0.180151 0)
(4.95025 0.19562 0)
(4.93388 0.201782 0)
(4.92171 0.192672 0)
(4.91709 0.1775 0)
(4.91791 0.167862 0)
(4.92056 0.168808 0)
(4.92229 0.178237 0)
(4.92239 0.190401 0)
(4.92163 0.199891 0)
(4.92227 0.203477 0)
(4.92515 0.201999 0)
(4.93217 0.196778 0)
(4.94146 0.192626 0)
(4.97041 0.346267 0)
(4.97724 0.273559 0)
(4.97251 0.195783 0)
(4.95612 0.15249 0)
(4.94213 0.158473 0)
(4.9394 0.180436 0)
(4.94648 0.189471 0)
(4.95649 0.180113 0)
(4.96403 0.16275 0)
(4.96729 0.150155 0)
(4.96742 0.14849 0)
(4.96697 0.156444 0)
(4.96847 0.168651 0)
(4.973 0.17992 0)
(4.98065 0.187403 0)
(4.98968 0.191357 0)
(4.99956 0.193194 0)
(5.00713 0.195718 0)
(4.97383 0.336048 0)
(4.99101 0.242665 0)
(5.01567 0.216658 0)
(5.01148 0.209998 0)
(4.98788 0.201499 0)
(4.96981 0.193533 0)
(4.96793 0.183784 0)
(4.97589 0.173373 0)
(4.98454 0.167261 0)
(4.98893 0.168418 0)
(4.98875 0.175138 0)
(4.9869 0.182864 0)
(4.98749 0.186985 0)
(4.99279 0.185389 0)
(5.00354 0.178741 0)
(5.0175 0.170196 0)
(5.03361 0.162248 0)
(5.0483 0.158731 0)
(4.98015 0.294219 0)
(4.9427 0.217272 0)
(4.97407 0.17372 0)
(4.98746 0.18176 0)
(4.99252 0.201859 0)
(4.99822 0.204824 0)
(5.00319 0.18558 0)
(5.00831 0.15876 0)
(5.01402 0.140917 0)
(5.02051 0.137812 0)
(5.02878 0.144355 0)
(5.03927 0.15175 0)
(5.05183 0.154041 0)
(5.06537 0.15043 0)
(5.07915 0.144411 0)
(5.092 0.140562 0)
(5.10401 0.141743 0)
(5.11455 0.149881 0)
(4.95544 0.211929 0)
(4.92778 0.17027 0)
(4.9359 0.175683 0)
(4.94865 0.177762 0)
(4.9804 0.180132 0)
(5.01605 0.177205 0)
(5.04058 0.16842 0)
(5.0526 0.159282 0)
(5.05732 0.153702 0)
(5.06218 0.151074 0)
(5.07227 0.148673 0)
(5.08779 0.144515 0)
(5.10555 0.137992 0)
(5.12207 0.129959 0)
(5.1348 0.120667 0)
(5.14342 0.111615 0)
(5.14846 0.102872 0)
(5.15161 0.0965726 0)
(5.00041 0.209233 0)
(4.97576 0.20006 0)
(4.96463 0.16876 0)
(4.96996 0.127824 0)
(4.98549 0.111963 0)
(4.99988 0.115516 0)
(5.01078 0.124215 0)
(5.02345 0.126622 0)
(5.04321 0.119609 0)
(5.07136 0.107036 0)
(5.10516 0.0943387 0)
(5.13958 0.0861265 0)
(5.16988 0.0845361 0)
(5.1926 0.0897114 0)
(5.20647 0.100215 0)
(5.21154 0.113248 0)
(5.20999 0.126915 0)
(5.20333 0.137738 0)
(4.9898 0.257804 0)
(5.02319 0.200344 0)
(5.04028 0.145925 0)
(5.04696 0.126593 0)
(5.04613 0.133112 0)
(5.04982 0.140532 0)
(5.06766 0.134615 0)
(5.09599 0.113602 0)
(5.12693 0.0840049 0)
(5.15298 0.0554532 0)
(5.17006 0.0359869 0)
(5.17815 0.0299821 0)
(5.18075 0.0373205 0)
(5.18172 0.0547592 0)
(5.1857 0.0768381 0)
(5.19464 0.0982034 0)
(5.21039 0.114747 0)
(5.23159 0.123574 0)
(4.96256 0.255805 0)
(4.9747 0.195423 0)
(4.99073 0.146531 0)
(5.01258 0.125043 0)
(5.03699 0.111618 0)
(5.06816 0.0944169 0)
(5.10363 0.073173 0)
(5.13777 0.055069 0)
(5.16646 0.0463374 0)
(5.18649 0.0482195 0)
(5.1977 0.057528 0)
(5.20464 0.0692421 0)
(5.21361 0.0790053 0)
(5.22898 0.0844222 0)
(5.25206 0.0847506 0)
(5.28017 0.0808231 0)
(5.31076 0.0734638 0)
(5.33811 0.0648354 0)
(5.0279 0.329322 0)
(5.0388 0.184463 0)
(5.06211 0.111443 0)
(5.09422 0.0843208 0)
(5.13564 0.0771019 0)
(5.17634 0.0693957 0)
(5.2055 0.0538597 0)
(5.22073 0.0353896 0)
(5.22745 0.0216899 0)
(5.23206 0.0152957 0)
(5.23916 0.0129356 0)
(5.25161 0.010329 0)
(5.27031 0.00607201 0)
(5.29379 0.00199708 0)
(5.31968 0.00160521 0)
(5.34483 0.00627408 0)
(5.36736 0.0166909 0)
(5.38477 0.0307546 0)
(5.0695 0.245695 0)
(5.07263 0.183298 0)
(5.07426 0.115199 0)
(5.09371 0.0762064 0)
(5.12052 0.0587468 0)
(5.15264 0.0489618 0)
(5.18772 0.0429566 0)
(5.22066 0.0396776 0)
(5.24743 0.0392503 0)
(5.26618 0.0399325 0)
(5.27853 0.039137 0)
(5.28839 0.0355538 0)
(5.29931 0.0297324 0)
(5.31216 0.0236546 0)
(5.32631 0.0195784 0)
(5.34117 0.0190764 0)
(5.35677 0.0220457 0)
(5.37341 0.0276064 0)
(4.99707 0.301771 0)
(5.06012 0.186582 0)
(5.12484 0.0985366 0)
(5.16185 0.0467208 0)
(5.17817 0.0245385 0)
(5.19404 0.0077191 0)
(5.21602 -0.00903539 0)
(5.24372 -0.0185903 0)
(5.27718 -0.0180577 0)
(5.31259 -0.0119338 0)
(5.34463 -0.00770927 0)
(5.36936 -0.00954283 0)
(5.38517 -0.0163957 0)
(5.39279 -0.0239972 0)
(5.39532 -0.0281565 0)
(5.39628 -0.0269985 0)
(5.39862 -0.0209175 0)
(5.40455 -0.0126404 0)
(4.95152 0.263594 0)
(5.0977 0.118948 0)
(5.19708 0.0850663 0)
(5.23623 0.0684853 0)
(5.24666 0.0485376 0)
(5.2644 0.0270737 0)
(5.2924 0.00713373 0)
(5.32175 -0.00534085 0)
(5.35214 -0.0103925 0)
(5.38547 -0.00979798 0)
(5.41908 -0.00539804 0)
(5.44789 0.000743841 0)
(5.46823 0.00656084 0)
(5.47929 0.0105892 0)
(5.48441 0.0122443 0)
(5.4881 0.0117524 0)
(5.49466 0.00988126 0)
(5.5061 0.00777923 0)
(5.06135 0.190311 0)
(5.11948 0.0448647 0)
(5.22289 0.0317834 0)
(5.29575 0.0215548 0)
(5.33791 -0.00162267 0)
(5.37293 -0.0248305 0)
(5.40441 -0.0444195 0)
(5.42595 -0.0564035 0)
(5.43775 -0.0598033 0)
(5.44565 -0.0572299 0)
(5.45422 -0.0512912 0)
(5.46542 -0.0441252 0)
(5.47994 -0.037707 0)
(5.49761 -0.0334718 0)
(5.5183 -0.0317514 0)
(5.5408 -0.0321296 0)
(5.56431 -0.0338537 0)
(5.58658 -0.0359017 0)
(5.03052 0.211305 0)
(5.18909 0.0774103 0)
(5.33306 0.0493698 0)
(5.40199 0.0321117 0)
(5.44185 0.00699323 0)
(5.46905 -0.0113917 0)
(5.478 -0.0188076 0)
(5.47151 -0.0207099 0)
(5.46262 -0.0205806 0)
(5.46358 -0.0198158 0)
(5.47811 -0.0183457 0)
(5.50265 -0.0165176 0)
(5.53135 -0.0156395 0)
(5.55924 -0.016886 0)
(5.58358 -0.0199344 0)
(5.60399 -0.0237143 0)
(5.62111 -0.026774 0)
(5.63639 -0.0282052 0)
(4.95633 -0.00111891 0)
(5.22062 -0.0532711 0)
(5.3611 -0.0217672 0)
(5.42948 -0.0269731 0)
(5.47366 -0.0410252 0)
(5.49861 -0.047641 0)
(5.5071 -0.0477929 0)
(5.50762 -0.0495851 0)
(5.50823 -0.0560948 0)
(5.51209 -0.0648217 0)
(5.51752 -0.0711943 0)
(5.52134 -0.0724675 0)
(5.52054 -0.0691801 0)
(5.5144 -0.0637906 0)
(5.50337 -0.0587309 0)
(5.49063 -0.0555174 0)
(5.47721 -0.0545868 0)
(5.46667 -0.0557185 0)
(4.98115 0.0517024 0)
(5.06547 -0.0111873 0)
(5.04081 -0.00254962 0)
(4.95478 -0.0144067 0)
(4.84 -0.0238251 0)
(4.72212 -0.0234116 0)
(4.61835 -0.0198396 0)
(4.52358 -0.0193483 0)
(4.42322 -0.0221709 0)
(4.30991 -0.0248819 0)
(4.1889 -0.0244181 0)
(4.07248 -0.0205879 0)
(3.96953 -0.0157004 0)
(3.88248 -0.0123339 0)
(3.80702 -0.0116844 0)
(3.73843 -0.0134318 0)
(3.67057 -0.0164115 0)
(3.60285 -0.0193709 0)
(-0.0524073 0.134289 -5.48963e-20)
(-0.199964 0.113333 5.44921e-20)
(-0.258961 0.0370794 0)
(-0.196717 -0.0712238 0)
(-0.0815201 -0.11152 0)
(0.0538357 -0.110649 -5.28702e-20)
(0.169343 -0.0757147 0)
(0.244173 -0.0139684 0)
(0.260566 0.0649176 0)
(0.207705 0.129776 0)
(0.0961293 0.110508 5.08737e-20)
(-0.0264919 0.0136715 0)
(-0.122609 -0.0238391 0)
(-0.188639 0.02193 0)
(-0.248679 0.0636591 0)
(-0.328833 0.0810416 4.89085e-20)
(-0.41468 0.083791 0)
(-0.480979 0.0658171 0)
(-0.522237 0.0297418 0)
(-0.535542 -0.0168368 0)
(-0.529631 -0.0555049 0)
(-0.536547 -0.064934 0)
(-0.578236 -0.0390615 0)
(-0.651599 0.000140275 4.58845e-20)
(-0.742658 0.00153597 -4.55138e-20)
(-0.849485 -0.0215547 4.51452e-20)
(-0.991849 0.0337862 4.47732e-20)
(-1.19867 0.165903 0)
(-1.46356 0.240371 0)
(-1.74078 0.240039 -4.36586e-20)
(-2.01408 0.243353 -4.33006e-20)
(-2.28369 0.238273 0)
(-2.53783 0.222981 0)
(-2.77681 0.216221 -4.2266e-20)
(-2.99855 0.196664 0)
(-3.19362 0.170226 0)
(-3.36266 0.149388 4.12564e-20)
(-3.50543 0.124792 0)
(-3.61839 0.0977662 4.05747e-20)
(-3.70158 0.0731141 8.04542e-20)
(-3.75535 0.0494217 0)
(-3.77906 0.0266659 0)
(-3.77233 0.00516211 0)
(-3.73823 -0.0159849 0)
(-3.67524 -0.0375229 0)
(-3.58436 -0.0597615 7.60063e-20)
(-3.46477 -0.0828707 7.52236e-20)
(-3.31741 -0.10669 7.44335e-20)
(-3.14285 -0.130777 0)
(-2.94321 -0.154137 -7.28403e-20)
(-2.72091 -0.175495 0)
(-2.47986 -0.193203 7.12459e-20)
(-2.22542 -0.205118 7.04536e-20)
(-1.96498 -0.209012 0)
(-1.7062 -0.204028 0)
(-1.4509 -0.191627 0)
(-1.19236 -0.176972 6.73436e-20)
(-0.923598 -0.172095 0)
(-0.639554 -0.190365 0)
(-0.314823 -0.213517 0)
(0.0311935 -0.21979 0)
(0.374646 -0.220296 0)
(0.719783 -0.198472 0)
(1.04382 -0.148004 0)
(1.29971 -0.128445 0)
(1.55373 -0.129093 -6.09973e-20)
(1.80154 0.0784507 0)
(1.65646 0.365271 0)
(1.1892 0.275025 5.9177e-20)
(0.856144 0.0273228 5.86057e-20)
(0.706582 0.0621862 0)
(0.553023 0.191567 -5.74324e-20)
(0.357073 0.117375 5.68598e-20)
(0.161874 0.0638808 0)
(-0.132475 0.0767319 -5.57587e-20)
(-0.260732 -0.0766795 0)
(0.0721729 -0.31766 0)
(0.708088 -0.412992 5.39248e-20)
(1.33145 -0.302066 0)
(1.78023 -0.0701051 -5.28925e-20)
(1.83768 0.147291 0)
(1.50211 0.235535 5.18795e-20)
(1.158 0.17197 5.1363e-20)
(1.04788 0.0214978 5.0813e-20)
(1.09402 -0.148435 1.00427e-19)
(1.16192 -0.270825 -9.92831e-20)
(1.14053 -0.208456 0)
(0.855374 0.0620189 0)
(0.247701 0.320697 0)
(-0.489811 0.409054 -9.55153e-20)
(-1.21478 0.406058 -9.46245e-20)
(-1.87474 0.36911 9.38399e-20)
(-2.45405 0.321426 0)
(-2.95174 0.273096 -9.24397e-20)
(-3.3736 0.228511 -9.17616e-20)
(-3.72755 0.189267 -9.10707e-20)
(-4.02144 0.155192 0)
(-4.2618 0.125444 0)
(-4.45406 0.0994475 0)
(-4.60303 0.0768126 -8.79933e-20)
(-4.71272 0.0568958 0)
(-4.78625 0.0388482 0)
(-4.82608 0.0226331 8.52545e-20)
(-4.83451 0.00891038 0)
(-4.81648 -0.00335219 0)
(-4.77327 -0.0144154 8.21464e-20)
(-4.707 -0.024241 0)
(-4.61907 -0.0333938 0)
(-4.51039 -0.042079 -7.87703e-20)
(-4.38133 -0.0505822 -7.76066e-20)
(-4.23124 -0.0593516 0)
(-4.0586 -0.0686955 7.52425e-20)
(-3.86136 -0.0787946 0)
(-3.6374 -0.0895702 -7.28471e-20)
(-3.38523 -0.100592 0)
(-3.10467 -0.111109 -7.04512e-20)
(-2.79747 -0.120154 -6.92696e-20)
(-2.46787 -0.126772 0)
(-2.12318 -0.130216 0)
(-1.77269 -0.129876 0)
(-1.42513 -0.125847 0)
(-1.08835 -0.118814 0)
(-0.769181 -0.109858 0)
(-0.472268 -0.0997457 0)
(-0.199539 -0.088478 -6.11662e-20)
(0.0481549 -0.0803436 6.03159e-20)
(0.27209 -0.0710833 0)
(0.475077 -0.062613 0)
(0.658007 -0.0548439 0)
(0.8225 -0.0477774 0)
(0.970164 -0.0414184 1.12599e-19)
(1.10259 -0.0357362 0)
(1.22127 -0.0306606 -1.09581e-19)
(1.32745 -0.0260813 1.08094e-19)
(1.4221 -0.0218381 0)
(1.50583 -0.0178582 0)
(1.57915 -0.0141022 0)
(1.64221 -0.0102817 -1.02226e-19)
(1.69472 -0.00643494 -1.00768e-19)
(1.73692 -0.00269546 0)
(1.76842 0.00142238 -9.78511e-20)
(1.78886 0.00552946 -9.63915e-20)
(1.79926 0.00933502 9.49309e-20)
(1.79779 0.013764 0)
(1.78332 0.0194015 0)
(1.75444 0.0262584 9.05459e-20)
(1.70938 0.0333597 0)
(1.64768 0.0392403 0)
(1.57028 0.0434554 0)
(1.47814 0.0468342 0)
(1.37221 0.0492771 -8.3314e-20)
(1.2558 0.0482741 -8.18945e-20)
(1.13683 0.0417296 0)
(1.02653 0.0307908 -7.90911e-20)
(0.934521 0.0186302 0)
(0.865091 0.00831089 0)
(0.817359 0.00125008 -7.49364e-20)
(0.787028 -0.0027466 0)
(0.768597 -0.00452622 -7.21933e-20)
(0.757328 -0.00491686 0)
(0.749882 -0.0045318 0)
(0.744366 -0.00383408 -6.81465e-20)
(0.739725 -0.00300794 0)
(0.735723 -0.0022144 -6.54963e-20)
(0.732026 -0.00150856 0)
(0.728824 -0.000914592 0)
(0.725471 -0.000395802 0)
(0.722405 4.89318e-05 6.02959e-20)
(0.718296 0.000510633 0)
(0.714284 0.00096196 -5.77422e-20)
(0.707912 0.00154934 0)
(0.701691 0.00213794 0)
(0.691382 0.00304928 0)
(0.680892 0.00379615 0)
(0.665206 0.00546126 0)
(0.64452 0.00603726 0)
(0.626192 0.00997394 0)
(0.573143 0.00814804 9.56917e-20)
(0.577171 0.0202893 0)
(0.422986 0.00819134 0)
(-0.0315341 0.377321 1.64718e-19)
(-0.137662 0.324735 -1.63559e-19)
(-0.077746 -0.0267817 0)
(0.0570092 -0.296985 1.07426e-19)
(0.23088 -0.409881 0)
(0.384683 -0.397973 5.27965e-20)
(0.509625 -0.299975 -1.04835e-19)
(0.594167 -0.150149 -1.04039e-19)
(0.631936 0.0244088 0)
(0.621974 0.206434 -1.02443e-19)
(0.550076 0.359607 -5.07943e-20)
(0.399897 0.428487 0)
(0.169092 0.361515 0)
(-0.0654124 0.229398 0)
(-0.231535 0.207398 0)
(-0.354825 0.239704 -4.88999e-20)
(-0.448115 0.209176 0)
(-0.517385 0.142731 9.62798e-20)
(-0.570611 0.0787396 0)
(-0.616983 0.0321634 0)
(-0.689607 0.0558627 -9.3977e-20)
(-0.818551 0.162257 0)
(-0.989174 0.262392 9.24004e-20)
(-1.16962 0.296353 -4.58091e-20)
(-1.3679 0.339663 4.54227e-20)
(-1.62985 0.468454 -4.5035e-20)
(-1.92394 0.605214 -4.46474e-20)
(-2.17567 0.658837 0)
(-2.40177 0.66665 0)
(-2.6292 0.667207 4.35392e-20)
(-2.8416 0.647312 -4.32872e-20)
(-3.0412 0.611561 0)
(-3.22972 0.571182 0)
(-3.39587 0.520686 4.21862e-20)
(-3.54153 0.461233 0)
(-3.66927 0.399498 0)
(-3.7748 0.335448 -4.12068e-20)
(-3.85787 0.268643 0)
(-3.91999 0.200937 4.06421e-20)
(-3.96061 0.133398 -8.04017e-20)
(-3.97966 0.0666325 0)
(-3.97815 0.0011749 0)
(-3.95734 -0.0626601 -1.56694e-19)
(-3.915 -0.124923 -1.55185e-19)
(-3.85298 -0.185769 -1.53651e-19)
(-3.77092 -0.245068 7.61305e-20)
(-3.67004 -0.302378 -7.51738e-20)
(-3.55024 -0.356827 -2.23297e-19)
(-3.4124 -0.407081 1.47313e-19)
(-3.25694 -0.451219 7.27666e-20)
(-3.08528 -0.486881 0)
(-2.89852 -0.511529 -7.11545e-20)
(-2.69853 -0.523614 7.05039e-20)
(-2.48802 -0.524393 0)
(-2.26718 -0.518742 0)
(-2.02841 -0.514673 0)
(-1.76369 -0.524372 -6.72333e-20)
(-1.48018 -0.561219 0)
(-1.19198 -0.622597 1.31602e-19)
(-0.890636 -0.675113 0)
(-0.564546 -0.682985 1.28798e-19)
(-0.238758 -0.6831 0)
(0.103683 -0.657477 -1.26114e-19)
(0.466817 -0.593686 0)
(0.825615 -0.537409 1.23385e-19)
(1.13247 -0.46859 -6.10864e-20)
(1.46123 -0.188403 0)
(1.7544 0.309944 -1.19606e-19)
(1.8135 0.646014 -5.90978e-20)
(1.55919 0.587203 -5.85106e-20)
(1.16647 0.310768 0)
(0.972705 0.219213 -5.7391e-20)
(0.891403 0.3363 -5.67936e-20)
(0.628598 0.473327 0)
(0.264946 0.380211 5.57199e-20)
(0.136374 -0.132695 -1.10494e-19)
(0.288866 -0.805855 0)
(0.702487 -1.14198 -5.38712e-20)
(1.18278 -0.928872 0)
(1.55357 -0.424353 1.58832e-19)
(1.80587 0.156376 0)
(1.85301 0.469642 -1.55622e-19)
(1.8169 0.344791 -5.1297e-20)
(1.73105 0.046723 5.07663e-20)
(1.40862 -0.0178286 1.00453e-19)
(0.774065 0.232873 -9.94649e-20)
(-0.0240442 0.601069 0)
(-0.806294 0.901251 0)
(-1.51084 1.04675 0)
(-2.11662 1.04157 2.86014e-19)
(-2.6287 0.958382 9.43388e-20)
(-3.06205 0.842865 -9.36001e-20)
(-3.42727 0.722064 0)
(-3.73477 0.608595 -9.26612e-20)
(-3.99326 0.507298 9.16376e-20)
(-4.20949 0.418706 9.09747e-20)
(-4.38835 0.341173 0)
(-4.53358 0.272665 0)
(-4.64798 0.211586 0)
(-4.73348 0.156692 8.79693e-20)
(-4.79145 0.106905 0)
(-4.82317 0.0613592 -1.72554e-19)
(-4.82996 0.0196368 -2.55904e-19)
(-4.81339 -0.0183055 1.68641e-19)
(-4.7723 -0.0528592 0)
(-4.70845 -0.0844378 8.22479e-20)
(-4.62282 -0.113285 0)
(-4.51672 -0.140041 1.59923e-19)
(-4.39121 -0.165379 -7.88486e-20)
(-4.24648 -0.190174 -7.76811e-20)
(-4.08195 -0.215519 0)
(-3.89602 -0.242403 -2.25803e-19)
(-3.68639 -0.27139 1.48169e-19)
(-3.45063 -0.30228 7.28457e-20)
(-3.18688 -0.333901 0)
(-2.89465 -0.364102 7.0447e-20)
(-2.57559 -0.390072 2.07864e-19)
(-2.23414 -0.408908 0)
(-1.87798 -0.418156 1.34015e-19)
(-1.51698 -0.416024 1.31841e-19)
(-1.16064 -0.402747 1.29764e-19)
(-0.817221 -0.380592 0)
(-0.493491 -0.352971 0)
(-0.193974 -0.322516 0)
(0.07946 -0.29305 -6.11733e-20)
(0.326505 -0.265667 -6.02871e-20)
(0.550608 -0.239386 0)
(0.753408 -0.215039 -1.17263e-19)
(0.936448 -0.192726 -1.15664e-19)
(1.10154 -0.172537 0)
(1.25051 -0.154442 -1.12552e-19)
(1.38509 -0.13829 -2.22092e-19)
(1.50685 -0.123812 1.09538e-19)
(1.61715 -0.110665 1.08073e-19)
(1.71701 -0.0985049 0)
(1.80728 -0.0870695 0)
(1.88848 -0.0761273 0)
(1.96066 -0.06543 1.0219e-19)
(2.02425 -0.0549225 -1.00752e-19)
(2.07898 -0.0446246 -1.98569e-19)
(2.12447 -0.0344748 9.78168e-20)
(2.16132 -0.0246804 -9.63749e-20)
(2.18865 -0.0149593 -9.48968e-20)
(2.20855 -0.00430848 0)
(2.22339 0.00698392 0)
(2.23504 0.0184342 9.05192e-20)
(2.24434 0.0304661 0)
(2.25046 0.0431091 0)
(2.25069 0.0557405 -1.72268e-19)
(2.24146 0.0676477 0)
(2.22022 0.0780702 -8.32514e-20)
(2.18664 0.0856083 8.18185e-20)
(2.14243 0.0879419 0)
(2.09063 0.0829323 -7.90056e-20)
(2.03546 0.0709772 0)
(1.98161 0.0552983 0)
(1.93316 0.039887 7.48591e-20)
(1.89233 0.0274648 -1.46967e-19)
(1.85895 0.018872 7.21231e-20)
(1.83149 0.0135465 0)
(1.80793 0.0104128 0)
(1.78675 0.00837272 -6.8083e-20)
(1.76716 0.00679451 0)
(1.74919 0.00544262 -6.5439e-20)
(1.73294 0.00429171 0)
(1.71886 0.0033732 0)
(1.7066 0.00281288 0)
(1.69639 0.00256771 -6.02485e-20)
(1.68707 0.00277745 0)
(1.6791 0.00313108 5.7698e-20)
(1.67072 0.00405229 0)
(1.66307 0.00473666 0)
(1.654 0.00662338 -1.07857e-19)
(1.64445 0.0074215 1.05375e-19)
(1.63398 0.01141 0)
(1.61772 0.0117219 0)
(1.60808 0.0206919 0)
(1.57064 0.0181149 -2.86856e-19)
(1.57512 0.0390093 0)
(1.47688 0.0287072 1.81787e-19)
(-0.0472546 0.470784 9.0228e-23)
(0.0221015 0.214884 2.18209e-19)
(0.265991 -0.358545 0)
(0.496026 -0.699725 -2.14564e-19)
(0.681592 -0.792597 0)
(0.816672 -0.707712 0)
(0.907982 -0.513504 -1.69323e-22)
(0.959203 -0.260485 1.03909e-19)
(0.974835 0.0160262 1.03324e-19)
(0.954254 0.289679 1.02326e-19)
(0.891885 0.542327 0)
(0.780807 0.747748 0)
(0.601973 0.844363 -1.00112e-19)
(0.344881 0.779036 -1.98781e-19)
(0.0625781 0.618106 1.97363e-19)
(-0.153627 0.484475 0)
(-0.299896 0.39201 1.94251e-19)
(-0.409812 0.295744 -9.62895e-20)
(-0.50775 0.220488 0)
(-0.609422 0.213213 1.89543e-19)
(-0.751411 0.313595 9.39289e-20)
(-0.946717 0.475032 -1.86307e-19)
(-1.15552 0.598333 -9.23116e-20)
(-1.38366 0.680975 0)
(-1.65144 0.794116 1.81594e-19)
(-1.9328 0.927679 1.80073e-19)
(-2.18217 0.999518 0)
(-2.39542 1.00619 1.77185e-19)
(-2.60012 1.00105 0)
(-2.79633 0.983579 1.74437e-19)
(-2.97684 0.940444 8.6408e-20)
(-3.14923 0.885335 0)
(-3.31196 0.820501 0)
(-3.46065 0.743185 0)
(-3.59714 0.658331 0)
(-3.71974 0.568081 0)
(-3.82548 0.473309 0)
(-3.91353 0.37623 1.63976e-19)
(-3.98296 0.278785 -2.43795e-19)
(-4.03303 0.182471 0)
(-4.06356 0.0883226 0)
(-4.07479 -0.00308681 0)
(-4.06707 -0.0915106 -2.90249e-22)
(-4.04099 -0.176911 1.55126e-19)
(-3.99743 -0.259285 3.07439e-19)
(-3.93688 -0.338862 -3.04293e-19)
(-3.85969 -0.415679 -1.50687e-19)
(-3.76602 -0.489493 1.48813e-19)
(-3.65567 -0.559565 2.56509e-22)
(-3.52783 -0.624712 1.45818e-19)
(-3.38104 -0.683188 0)
(-3.21402 -0.733192 1.4255e-19)
(-3.02666 -0.773978 2.22938e-22)
(-2.81952 -0.806569 0)
(-2.59198 -0.833615 0)
(-2.34426 -0.860133 -1.36158e-19)
(-2.08338 -0.894689 0)
(-1.82283 -0.943949 0)
(-1.57318 -1.00215 1.31811e-19)
(-1.32688 -1.04978 2.60353e-19)
(-1.06327 -1.07611 -1.28597e-19)
(-0.787528 -1.0966 0)
(-0.494742 -1.10281 1.25962e-19)
(-0.17231 -1.06532 0)
(0.172168 -0.99558 1.2367e-19)
(0.493152 -0.886653 1.2218e-19)
(0.820677 -0.611396 -2.42025e-19)
(1.23918 -0.0607806 -1.19824e-19)
(1.60941 0.523118 0)
(1.7097 0.799188 2.34098e-19)
(1.50933 0.709144 0)
(1.19579 0.506991 3.44068e-19)
(1.02915 0.530357 2.27114e-19)
(0.863331 0.741389 2.24859e-19)
(0.639266 0.644111 -2.22836e-19)
(0.531064 -0.028646 3.31353e-19)
(0.482777 -0.936992 0)
(0.572272 -1.50481 0)
(0.834817 -1.295 -2.13924e-19)
(1.05133 -0.730939 -3.18167e-19)
(1.23014 -0.157802 0)
(1.36011 0.189414 1.03877e-19)
(1.2915 0.312392 0)
(0.845391 0.497424 -3.05003e-19)
(0.132963 0.82535 1.3603e-22)
(-0.615116 1.15449 -2.0985e-22)
(-1.28447 1.40016 1.9675e-19)
(-1.82867 1.54278 0)
(-2.2504 1.55739 -1.92833e-19)
(-2.57967 1.46747 5.86428e-22)
(-2.85305 1.31807 0)
(-3.09489 1.14924 0)
(-3.31728 0.984516 0)
(-3.5242 0.834288 1.84931e-19)
(-3.71515 0.701026 0)
(-3.88768 0.583435 0)
(-4.03905 0.478864 0)
(-4.16713 0.384749 0)
(-4.27055 0.299025 0)
(-4.34848 0.220076 1.76419e-19)
(-4.40049 0.146839 0)
(-4.42679 0.0788733 1.72648e-19)
(-4.42812 0.0156915 1.70744e-19)
(-4.40522 -0.0433925 -1.68728e-19)
(-4.3589 -0.0981208 0)
(-4.29082 -0.14849 -1.64474e-19)
(-4.20243 -0.194889 0)
(-4.09521 -0.237838 -1.59988e-19)
(-3.97034 -0.278338 1.57681e-19)
(-3.82838 -0.317883 4.66251e-19)
(-3.66878 -0.3583 0)
(-3.48969 -0.401459 4.52023e-19)
(-3.28815 -0.448604 1.48433e-19)
(-3.06076 -0.499628 0)
(-2.80443 -0.552684 2.87013e-19)
(-2.51743 -0.604137 2.82208e-19)
(-2.20042 -0.649083 -4.16053e-19)
(-1.85725 -0.682168 0)
(-1.49552 -0.698463 -1.34017e-19)
(-1.12622 -0.694571 -1.31844e-19)
(-0.760577 -0.670416 -3.89442e-19)
(-0.408446 -0.630451 0)
(-0.0783895 -0.581494 0)
(0.222945 -0.528674 0)
(0.496316 -0.478005 -1.2231e-19)
(0.741991 -0.429377 0)
(0.961257 -0.384144 0)
(1.15631 -0.342833 1.17181e-19)
(1.329 -0.30546 1.15588e-19)
(1.48134 -0.272009 0)
(1.61549 -0.242374 0)
(1.73356 -0.216245 2.21973e-19)
(1.83749 -0.193115 0)
(1.92882 -0.17237 -2.16027e-19)
(2.00881 -0.153419 -2.13122e-19)
(2.07849 -0.13579 0)
(2.13866 -0.118978 0)
(2.19013 -0.102494 2.04371e-19)
(2.23368 -0.0860702 -3.41198e-23)
(2.26993 -0.0695382 -3.3268e-23)
(2.2994 -0.05292 0)
(2.32271 -0.0365641 3.85419e-19)
(2.34038 -0.0213506 0)
(2.3511 -0.00856106 0)
(2.35363 0.00229374 0)
(2.35049 0.0126746 -1.81003e-19)
(2.34725 0.0233414 0)
(2.34915 0.0349373 3.50355e-19)
(2.35863 0.0481479 1.72249e-19)
(2.37407 0.0632152 0)
(2.39075 0.0789107 1.66465e-19)
(2.40303 0.0921322 0)
(2.40591 0.0988072 0)
(2.3967 0.0960483 4.73871e-19)
(2.37592 0.0848347 -3.10328e-19)
(2.34636 0.0689128 0)
(2.312 0.0524525 -2.99276e-19)
(2.27706 0.0384089 1.46909e-19)
(2.24468 0.0281319 0)
(2.2164 0.0215952 0)
(2.1924 0.0179262 0)
(2.17207 0.0160151 4.08346e-19)
(2.15457 0.014816 0)
(2.13905 0.0136435 1.30831e-19)
(2.12483 0.0122677 0)
(2.11151 0.0107166 0)
(2.09882 0.00926956 0)
(2.08667 0.00803968 0)
(2.07504 0.00739709 0)
(2.06397 0.00705212 0)
(2.05367 0.0076152 2.25659e-19)
(2.04374 0.00804538 0)
(2.03506 0.0101015 1.07821e-19)
(2.02561 0.0109436 -3.1602e-19)
(2.0189 0.0155919 0)
(2.00751 0.0162916 0)
(2.00415 0.0264927 1.95983e-19)
(1.98463 0.0254954 1.9117e-19)
(1.98955 0.0474791 -1.8638e-19)
(1.94842 0.0424125 -1.81719e-19)
(-0.0182683 0.454798 -3.29851e-19)
(0.299518 -0.328557 -3.27305e-19)
(0.611537 -0.955195 -2.16366e-19)
(0.82808 -1.18556 -1.07477e-19)
(0.956417 -1.13219 0)
(1.0244 -0.922433 2.11512e-19)
(1.05566 -0.634677 -1.05244e-19)
(1.06237 -0.311813 0)
(1.04902 0.0237379 -1.03295e-19)
(1.01457 0.356832 0)
(0.959037 0.671961 2.03703e-19)
(0.878098 0.9544 0)
(0.761987 1.16773 1.00013e-19)
(0.584454 1.23787 1.98517e-19)
(0.339782 1.12643 -1.97103e-19)
(0.093061 0.910138 0)
(-0.126148 0.711356 -1.94259e-19)
(-0.287685 0.539978 0)
(-0.432948 0.453547 0)
(-0.576537 0.487403 -1.89484e-19)
(-0.769642 0.66218 0)
(-1.01151 0.882961 -1.6956e-22)
(-1.2552 1.03583 0)
(-1.51203 1.15444 0)
(-1.77883 1.26839 2.41615e-22)
(-2.02341 1.35065 -1.7992e-19)
(-2.23164 1.36711 -1.78769e-19)
(-2.42696 1.35003 -1.77078e-19)
(-2.62455 1.33216 0)
(-2.81583 1.29716 -3.49044e-19)
(-3.00166 1.24162 0)
(-3.18434 1.17393 -1.7209e-19)
(-3.35774 1.09036 0)
(-3.52001 0.992263 0)
(-3.6695 0.883678 1.68245e-19)
(-3.80243 0.765875 0)
(-3.91652 0.64171 -1.65662e-19)
(-4.01007 0.513829 4.36829e-22)
(-4.08172 0.384578 3.25581e-19)
(-4.1308 0.256232 -3.23284e-19)
(-4.15723 0.130517 0)
(-4.16138 0.00875849 0)
(-4.14391 -0.108445 -1.577e-19)
(-4.10576 -0.22147 0)
(-4.04807 -0.330668 -1.5382e-19)
(-3.97214 -0.436477 1.52244e-19)
(-3.87938 -0.539226 1.50648e-19)
(-3.77119 -0.639024 0)
(-3.64847 -0.735621 -1.47411e-19)
(-3.51126 -0.828193 -1.45777e-19)
(-3.35871 -0.915303 2.88908e-19)
(-3.18995 -0.995077 -1.42502e-19)
(-3.00478 -1.06521 -1.40873e-19)
(-2.80334 -1.12289 0)
(-2.58554 -1.166 0)
(-2.35285 -1.19652 1.36086e-19)
(-2.11166 -1.22199 0)
(-1.87282 -1.25174 0)
(-1.64433 -1.29125 -2.63076e-19)
(-1.42531 -1.33726 -2.60178e-19)
(-1.21129 -1.38228 0)
(-0.993686 -1.41848 0)
(-0.774071 -1.44617 0)
(-0.53836 -1.44027 0)
(-0.27628 -1.38461 -2.46949e-19)
(-0.00724559 -1.27635 2.44719e-19)
(0.269023 -1.06124 2.42122e-19)
(0.655416 -0.604238 4.79337e-19)
(1.15143 0.0779072 0)
(1.55062 0.679209 3.17085e-23)
(1.65638 0.922402 0)
(1.44339 0.811456 -2.29209e-19)
(1.18161 0.725371 1.05012e-23)
(1.01863 0.896175 -2.24724e-19)
(0.889589 0.805741 2.22687e-19)
(0.748619 0.130637 8.23197e-24)
(0.502386 -0.831523 0)
(0.281991 -1.54667 2.15927e-19)
(0.295195 -1.4011 2.14079e-19)
(0.327453 -0.774971 4.24546e-19)
(0.329927 -0.132581 0)
(0.24264 0.399821 -2.08105e-19)
(-0.0127133 0.817387 0)
(-0.447969 1.18428 4.06692e-19)
(-0.957765 1.50361 -2.00856e-19)
(-1.43278 1.74255 1.98559e-19)
(-1.81948 1.87637 -1.96441e-19)
(-2.11051 1.90089 -3.89854e-19)
(-2.32965 1.82801 1.92722e-19)
(-2.51333 1.69004 -1.91092e-19)
(-2.68763 1.52059 0)
(-2.86373 1.34416 3.7737e-19)
(-3.04273 1.1738 0)
(-3.22055 1.01473 3.71739e-19)
(-3.3913 0.86788 -3.68925e-19)