/*--------------------------------*- C++ -*----------------------------------*\
  =========                 |
  \\      /  F ield         | OpenFOAM: The Open Source CFD Toolbox
   \\    /   O peration     | Website:  https://openfoam.org
    \\  /    A nd           | Version:  7
     \\/     M anipulation  |
\*---------------------------------------------------------------------------*/
FoamFile
{
    version     2.0;
    format      ascii;
    class       volScalarField;
    location    "0.069";
    object      k;
}
// * * * * * * * * * * * * * * * * * * * * * * * * * * * * * * * * * * * * * //

dimensions      [0 2 -2 0 0 0 0];

internalField   nonuniform List<scalar> 
12225
(
1.93422e-05
1.8049e-05
1.68741e-05
1.51358e-05
1.40022e-05
1.28232e-05
1.09654e-05
1.0258e-05
1.08077e-05
1.11701e-05
9.89377e-06
6.77237e-06
5.27652e-06
4.82798e-06
4.55549e-06
4.76575e-06
1.91612e-05
1.24595e-05
1.99836e-05
1.98745e-05
1.97051e-05
1.93624e-05
1.9002e-05
1.87849e-05
1.83748e-05
1.77636e-05
1.76217e-05
1.77635e-05
1.83162e-05
1.83887e-05
1.81745e-05
1.72266e-05
1.59628e-05
1.46511e-05
1.94757e-05
2.09175e-05
2.00097e-05
1.92475e-05
1.90573e-05
1.9064e-05
1.90983e-05
1.91064e-05
1.90988e-05
1.90548e-05
1.89957e-05
1.90016e-05
1.91063e-05
1.92697e-05
1.9285e-05
1.91981e-05
1.89546e-05
1.82235e-05
1.85811e-05
1.85578e-05
2.07957e-05
2.05018e-05
1.9987e-05
1.99794e-05
2.00682e-05
2.00601e-05
1.9673e-05
1.90264e-05
1.87536e-05
1.86122e-05
1.84814e-05
1.83851e-05
1.83627e-05
1.83211e-05
1.81931e-05
1.78335e-05
1.74466e-05
1.7201e-05
2.0655e-05
2.19351e-05
2.43794e-05
2.40203e-05
2.30495e-05
2.24893e-05
2.24325e-05
2.2858e-05
2.35412e-05
2.35006e-05
2.28036e-05
2.0166e-05
1.73503e-05
1.6022e-05
1.55494e-05
1.54593e-05
1.54471e-05
1.55062e-05
2.02347e-05
2.24029e-05
2.41966e-05
2.37474e-05
2.23391e-05
2.20061e-05
2.22855e-05
2.41755e-05
2.66756e-05
2.73871e-05
2.7257e-05
2.59978e-05
2.23466e-05
1.99466e-05
1.91466e-05
1.89438e-05
1.88879e-05
1.87304e-05
2.08067e-05
2.18468e-05
2.2172e-05
2.35982e-05
2.43132e-05
2.3915e-05
2.34988e-05
2.36666e-05
2.48009e-05
2.64441e-05
2.6866e-05
2.66567e-05
2.53567e-05
2.35356e-05
2.25018e-05
2.19905e-05
2.17927e-05
2.16903e-05
2.11481e-05
2.1481e-05
2.28624e-05
2.56045e-05
2.99283e-05
3.11015e-05
2.92585e-05
2.44307e-05
2.26759e-05
2.26882e-05
2.32121e-05
2.35205e-05
2.34926e-05
2.32524e-05
2.27884e-05
2.24726e-05
2.23042e-05
2.22231e-05
2.03332e-05
2.10797e-05
2.49293e-05
3.04749e-05
3.09324e-05
2.85011e-05
2.3937e-05
2.17994e-05
2.11988e-05
2.11469e-05
2.12156e-05
2.14308e-05
2.18593e-05
2.23477e-05
2.27572e-05
2.30171e-05
2.30987e-05
2.30864e-05
2.1761e-05
2.09078e-05
2.27226e-05
2.67013e-05
2.74975e-05
2.66429e-05
2.38797e-05
2.22144e-05
2.14316e-05
2.10276e-05
2.08334e-05
2.07842e-05
2.07968e-05
2.09154e-05
2.14183e-05
2.25471e-05
2.35075e-05
2.39693e-05
2.1081e-05
2.18439e-05
2.35738e-05
2.37129e-05
2.32564e-05
2.25827e-05
2.21953e-05
2.20077e-05
2.18846e-05
2.1651e-05
2.10898e-05
2.0597e-05
2.03813e-05
2.03577e-05
2.04142e-05
2.06903e-05
2.16292e-05
2.30826e-05
2.04466e-05
2.08324e-05
2.09224e-05
2.07776e-05
2.07481e-05
2.08707e-05
2.12227e-05
2.14131e-05
2.14518e-05
2.14384e-05
2.136e-05
2.11272e-05
2.09535e-05
2.08923e-05
2.08882e-05
2.09175e-05
2.10523e-05
2.15537e-05
2.00983e-05
2.03044e-05
2.04259e-05
2.05202e-05
2.06266e-05
2.11566e-05
2.18273e-05
2.19099e-05
2.17942e-05
2.16481e-05
2.1584e-05
2.1482e-05
2.12727e-05
2.10834e-05
2.09814e-05
2.09578e-05
2.09672e-05
2.10568e-05
2.01715e-05
2.06107e-05
2.06875e-05
2.06634e-05
2.07066e-05
2.09484e-05
2.10838e-05
2.10964e-05
2.11118e-05
2.1278e-05
2.19316e-05
2.23372e-05
2.23918e-05
2.23268e-05
2.19561e-05
2.14459e-05
2.11748e-05
2.10664e-05
2.06429e-05
2.04588e-05
2.04022e-05
2.0518e-05
2.06836e-05
2.07914e-05
2.08444e-05
2.08876e-05
2.10253e-05
2.17063e-05
2.28446e-05
2.32527e-05
2.32804e-05
2.31592e-05
2.27745e-05
2.24952e-05
2.23834e-05
2.23172e-05
2.02708e-05
2.03527e-05
2.05719e-05
2.07493e-05
2.0861e-05
2.08969e-05
2.08862e-05
2.07762e-05
2.07061e-05
2.07148e-05
2.07789e-05
2.0967e-05
2.14936e-05
2.2142e-05
2.26523e-05
2.30052e-05
2.32199e-05
2.3309e-05
2.03471e-05
2.12961e-05
2.11649e-05
2.06103e-05
2.04544e-05
2.04531e-05
2.05246e-05
2.0601e-05
2.06262e-05
2.06467e-05
2.06926e-05
2.0836e-05
2.13608e-05
2.24952e-05
2.32929e-05
2.37001e-05
2.38373e-05
2.38528e-05
2.01522e-05
2.02232e-05
2.01879e-05
2.01671e-05
2.01722e-05
2.02109e-05
2.039e-05
2.06778e-05
2.08331e-05
2.08963e-05
2.0923e-05
2.09553e-05
2.10263e-05
2.1249e-05
2.16673e-05
2.19284e-05
2.20468e-05
2.20958e-05
2.03976e-05
2.04208e-05
2.03135e-05
2.02083e-05
2.02021e-05
2.02499e-05
2.0479e-05
2.07391e-05
2.08442e-05
2.08597e-05
2.08369e-05
2.07129e-05
2.05734e-05
2.05129e-05
2.04988e-05
2.0502e-05
2.05192e-05
2.05441e-05
2.07261e-05
2.04177e-05
2.03051e-05
2.03028e-05
2.03206e-05
2.04055e-05
2.05463e-05
2.06006e-05
2.0603e-05
2.05764e-05
2.04599e-05
2.03196e-05
2.02384e-05
2.02037e-05
2.01983e-05
2.02027e-05
2.02229e-05
2.02622e-05
2.03457e-05
2.05221e-05
2.05153e-05
2.04881e-05
2.04806e-05
2.05065e-05
2.06588e-05
2.08698e-05
2.09809e-05
2.09867e-05
2.0936e-05
2.07983e-05
2.06946e-05
2.06183e-05
2.05367e-05
2.04692e-05
2.04482e-05
2.04466e-05
2.0134e-05
2.02914e-05
2.0291e-05
2.04427e-05
2.05675e-05
2.05908e-05
2.06096e-05
2.06232e-05
2.05915e-05
2.05491e-05
2.05182e-05
2.05082e-05
2.05153e-05
2.05944e-05
2.07794e-05
2.08079e-05
2.07526e-05
2.07343e-05
2.00277e-05
2.00623e-05
2.00689e-05
2.0092e-05
2.01748e-05
2.03099e-05
2.04324e-05
2.05269e-05
2.058e-05
2.06039e-05
2.06204e-05
2.06464e-05
2.07028e-05
2.08018e-05
2.08624e-05
2.08737e-05
2.08849e-05
2.09451e-05
2.0077e-05
2.0302e-05
2.03296e-05
2.02916e-05
2.02781e-05
2.03084e-05
2.03733e-05
2.0388e-05
2.03792e-05
2.03296e-05
2.0276e-05
2.02571e-05
2.02598e-05
2.0306e-05
2.05036e-05
2.09021e-05
2.11673e-05
2.12786e-05
2.01437e-05
2.037e-05
2.0361e-05
2.02849e-05
2.02704e-05
2.02917e-05
2.0432e-05
2.0755e-05
2.08494e-05
2.08278e-05
2.06929e-05
2.0477e-05
2.03435e-05
2.03065e-05
2.03396e-05
2.04552e-05
2.04952e-05
2.04948e-05
2.00756e-05
2.01693e-05
2.01636e-05
2.01328e-05
2.01333e-05
2.01794e-05
2.04009e-05
2.13067e-05
2.34054e-05
2.44878e-05
2.46353e-05
2.43956e-05
2.32565e-05
2.18976e-05
2.1067e-05
2.05846e-05
2.03485e-05
2.02515e-05
2.00249e-05
2.0035e-05
2.00204e-05
1.99732e-05
1.98332e-05
1.9713e-05
1.97133e-05
1.97844e-05
2.00282e-05
2.0694e-05
2.14058e-05
2.17076e-05
2.17609e-05
2.17489e-05
2.17887e-05
2.19501e-05
2.24699e-05
2.29964e-05
2.02356e-05
1.83307e-05
1.43559e-05
1.52577e-05
1.8524e-05
2.10616e-05
2.28644e-05
2.62354e-05
3.44787e-05
5.06904e-05
6.72696e-05
7.73491e-05
8.57401e-05
9.08139e-05
9.75322e-05
0.000102567
0.000109026
0.000113124
3.30745e-05
8.79397e-05
0.000162755
0.000268199
0.00032622
0.00034133
0.000353208
0.00037982
0.000456351
0.000577561
0.000653119
0.000684607
0.000694289
0.000699314
0.000709097
0.000726996
0.000742578
0.000747457
0.00283833
0.00279731
0.00273928
0.00256758
0.00236182
0.00222102
0.0021506
0.00212505
0.00211322
0.00209237
0.00203201
0.00186473
0.00172323
0.00164608
0.00159536
0.0015418
0.0014684
0.00137719
0.0041656
0.00767782
0.00795529
0.00631851
0.00592123
0.00647437
0.00665963
0.00685172
0.00706766
0.00737775
0.00941611
0.0104455
0.010285
0.00949817
0.00817411
0.00723975
0.00662263
0.0061044
0.00574625
0.0054677
0.00519925
0.00502437
0.00481437
0.00469343
0.00447769
0.00429682
0.0041997
0.00418284
0.00415257
0.00405892
0.00377153
0.00326464
0.00273513
0.00176938
0.00124572
0.00161189
0.00276258
0.00332245
0.00365207
0.00383937
0.00403136
0.00449111
0.00554747
0.0081018
0.0125037
0.0164123
0.0192035
0.0231034
0.0306298
0.037694
0.0400737
0.0421198
0.0471657
0.0688244
0.0742723
0.0336683
0.00458974
0.0015507
0.00110319
0.0011044
0.00114536
0.00116627
0.00117638
0.00111324
0.00101988
0.000897141
0.00077092
0.000663675
0.000528597
0.000442272
0.000347119
0.000278214
0.000232094
0.000179378
0.000155844
0.000141221
0.000136418
0.000138562
0.000139395
0.000140229
0.000140654
0.000140901
0.000141025
0.000141011
0.000140617
0.000140225
0.00013985
0.000139097
0.000138383
0.000137737
0.000136669
0.000135506
0.000134299
0.000132703
0.000130956
0.000128989
0.000126702
0.000124405
0.000121615
0.000118762
0.000115548
0.000111749
0.000106964
0.000102038
9.69238e-05
9.12838e-05
8.56118e-05
7.97481e-05
7.3875e-05
6.80388e-05
6.2383e-05
5.72076e-05
5.27754e-05
4.90194e-05
4.55088e-05
4.21346e-05
3.88689e-05
3.56836e-05
3.25559e-05
2.94755e-05
2.64544e-05
2.35286e-05
2.06488e-05
1.77342e-05
1.48671e-05
1.2195e-05
9.81671e-06
7.80295e-06
6.1586e-06
4.84007e-06
3.79374e-06
2.96878e-06
2.32199e-06
1.81773e-06
1.42686e-06
1.12559e-06
8.94372e-07
7.17188e-07
5.81134e-07
4.7606e-07
3.94129e-07
3.29379e-07
2.7734e-07
2.34724e-07
1.9917e-07
1.69027e-07
1.43169e-07
1.20831e-07
1.01486e-07
8.47474e-08
7.03169e-08
5.79419e-08
4.7398e-08
3.84784e-08
3.09902e-08
2.47544e-08
1.96049e-08
1.53896e-08
1.19699e-08
9.22143e-09
7.03328e-09
5.30875e-09
3.9633e-09
2.92545e-09
2.13364e-09
1.5373e-09
1.09317e-09
7.67318e-10
5.30652e-10
3.61937e-10
2.42606e-10
1.60198e-10
1.03548e-10
6.58195e-11
4.09741e-11
2.28382e-11
5.16339e-11
1.61884e-08
2.14213e-06
1.74589e-06
0.00329187
0.00619384
0.0067263
0.00648814
0.00716777
0.00743998
0.00788399
0.00792745
0.00765372
0.00681989
0.00638536
0.00609283
0.00558149
0.00507401
0.00457351
0.00412985
0.00386183
0.00370225
0.00360074
0.00353943
0.00349921
0.00346422
0.00345216
0.00345517
0.00346933
0.00350516
0.00356002
0.00361482
0.0036496
0.00365217
0.00359386
0.00344705
0.00316051
0.00290247
0.00253151
0.0019811
0.00182846
0.00182523
0.00205097
0.00217949
0.0020367
0.00159678
0.00138444
0.00133306
0.00138088
0.00171293
0.00284537
0.00367597
0.00400782
0.00480449
0.00798523
0.0301891
0.0484495
0.0388761
0.0201341
0.00636591
0.00171251
0.000939717
0.000727458
0.000645751
0.000563818
0.000497103
0.000434218
0.000377825
0.000331502
0.000294007
0.000265455
0.00024813
0.000231367
0.000223769
0.000218298
0.000216052
0.00021526
0.000215139
0.000216541
0.000217648
0.000218974
0.000220429
0.000221673
0.000222945
0.000224066
0.000225066
0.000225704
0.000226238
0.000226507
0.000226612
0.000226466
0.000225967
0.000224993
0.000223627
0.000221949
0.000219802
0.000217489
0.000214783
0.000212134
0.000209335
0.000206415
0.000203617
0.000201186
0.000198755
0.000196899
0.00019553
0.000193327
0.000190749
0.000188067
0.000184648
0.000180592
0.000175704
0.000170049
0.000163538
0.000156055
0.000147616
0.000138257
0.000128778
0.000120387
0.000112695
0.000105341
9.82508e-05
9.13471e-05
8.45708e-05
7.78722e-05
7.12472e-05
6.49084e-05
5.9138e-05
5.39696e-05
4.92467e-05
4.47747e-05
4.0398e-05
3.60892e-05
3.18882e-05
2.78381e-05
2.39926e-05
2.04178e-05
1.71763e-05
1.43101e-05
1.18351e-05
9.74172e-06
8.00185e-06
6.57622e-06
5.42169e-06
4.49552e-06
3.75735e-06
3.16991e-06
2.69977e-06
2.31826e-06
2.00227e-06
1.73454e-06
1.50303e-06
1.29988e-06
1.12013e-06
9.60588e-07
8.19064e-07
6.93914e-07
5.83781e-07
4.87443e-07
4.03764e-07
3.31649e-07
2.70028e-07
2.1785e-07
1.74079e-07
1.37714e-07
1.07815e-07
8.3482e-08
6.39038e-08
4.83249e-08
3.60932e-08
2.66009e-08
1.93477e-08
1.38672e-08
9.79831e-09
6.81052e-09
4.66207e-09
3.12336e-09
2.07486e-09
1.30825e-09
8.75653e-10
4.43958e-10
1.2968e-09
2.76091e-07
3.38897e-07
0.0013517
0.00292133
0.00401655
0.00414461
0.00439717
0.00589448
0.00797251
0.00815215
0.00784603
0.00706175
0.00552325
0.00429866
0.00373353
0.00350532
0.00338468
0.0033177
0.00328741
0.00326451
0.00325716
0.00324642
0.00323341
0.00320703
0.00317337
0.00311584
0.00307494
0.00302365
0.0029873
0.00298778
0.00299925
0.00302809
0.00309152
0.00310896
0.00307896
0.00297314
0.0028094
0.0024267
0.00200106
0.00178631
0.00174248
0.00174266
0.00175651
0.00172581
0.00157477
0.00129528
0.00125084
0.00133651
0.00167692
0.00251738
0.00457488
0.0151832
0.0232899
0.0276018
0.0191117
0.00730307
0.00297669
0.00108671
0.000559472
0.000425117
0.000369032
0.000329471
0.000300442
0.000275962
0.000261181
0.000248449
0.000238307
0.00023237
0.000226448
0.000223632
0.000220987
0.000219918
0.000219512
0.000219585
0.000221393
0.000223976
0.000227225
0.00023165
0.000236453
0.000241343
0.000246198
0.000250616
0.000254368
0.000257691
0.000260315
0.000262684
0.000264758
0.000266253
0.000266898
0.000267051
0.000266257
0.000263805
0.000261007
0.000256781
0.000251531
0.000245523
0.000239912
0.000234195
0.000228078
0.000222177
0.000217459
0.00021244
0.000207932
0.000204095
0.000202406
0.00020157
0.000200946
0.000200201
0.000199264
0.00019787
0.000195616
0.00019243
0.000188496
0.000184128
0.000179036
0.000171829
0.000162163
0.000151578
0.000141479
0.000131688
0.000122191
0.000113068
0.00010426
9.50844e-05
8.54136e-05
7.60173e-05
6.79438e-05
6.1776e-05
5.73078e-05
5.39364e-05
5.11968e-05
4.87565e-05
4.6281e-05
4.34783e-05
4.02161e-05
3.65478e-05
3.26375e-05
2.86654e-05
2.4776e-05
2.10735e-05
1.76402e-05
1.45461e-05
1.1845e-05
9.56351e-06
7.69619e-06
6.20867e-06
5.04764e-06
4.15237e-06
3.46406e-06
2.93156e-06
2.5136e-06
2.1786e-06
1.90336e-06
1.67129e-06
1.47078e-06
1.29385e-06
1.13525e-06
9.91778e-07
8.61553e-07
7.43372e-07
6.36293e-07
5.39818e-07
4.53577e-07
3.77232e-07
3.10321e-07
2.52368e-07
2.02745e-07
1.60836e-07
1.25894e-07
9.71818e-08
7.39295e-08
5.53724e-08
4.08387e-08
2.95764e-08
2.10744e-08
1.4667e-08
1.00683e-08
6.60978e-09
4.47894e-09
2.38293e-09
9.33545e-09
2.53949e-08
0.00116783
0.00224152
0.00261453
0.00422023
0.00825849
0.00961473
0.00929342
0.0082762
0.00609943
0.00424027
0.00349314
0.00323743
0.00314674
0.00314715
0.00316311
0.00322308
0.00330518
0.00342862
0.00357941
0.00368745
0.00378114
0.00384779
0.00384269
0.00381464
0.00374905
0.00364456
0.00351339
0.00339207
0.00329289
0.00322998
0.00319195
0.00316107
0.00311862
0.0030248
0.00283123
0.00256327
0.00221556
0.00188399
0.00172252
0.00163048
0.00156125
0.00150937
0.00130378
0.00121245
0.00135086
0.0021059
0.00414318
0.0113247
0.0156103
0.0172657
0.0167965
0.00893905
0.00387862
0.00152281
0.000698237
0.000419035
0.000343301
0.000318576
0.000307158
0.000296287
0.000287889
0.00027756
0.000270681
0.000264822
0.00025949
0.000256914
0.000255251
0.000254835
0.000255119
0.000257861
0.000262486
0.000268422
0.000276282
0.000285434
0.000295437
0.000305819
0.000315343
0.000323133
0.000329141
0.000334111
0.000338738
0.000342531
0.000346562
0.000350977
0.000356272
0.000362181
0.000366209
0.000367456
0.000367442
0.000363829
0.000358208
0.000348124
0.000332381
0.000314076
0.000298024
0.000282121
0.00026524
0.000248614
0.000235632
0.00022318
0.000213187
0.000204883
0.00019904
0.000195985
0.000195695
0.000196796
0.000198141
0.00019908
0.000199098
0.000198024
0.000195956
0.000193274
0.000190588
0.000188196
0.000184855
0.000178858
0.000169155
0.000157288
0.000145894
0.000136035
0.0001275
0.000120423
0.00011414
0.000107419
9.92576e-05
9.02154e-05
8.17398e-05
7.47107e-05
6.90151e-05
6.43104e-05
6.03702e-05
5.6948e-05
5.36844e-05
5.03231e-05
4.68526e-05
4.32853e-05
3.95114e-05
3.53401e-05
3.0725e-05
2.59028e-05
2.1249e-05
1.7045e-05
1.34559e-05
1.05231e-05
8.19682e-06
6.38487e-06
4.98971e-06
3.92713e-06
3.12859e-06
2.53566e-06
2.09637e-06
1.7669e-06
1.51386e-06
1.31374e-06
1.15049e-06
1.01333e-06
8.94829e-07
7.89912e-07
6.95386e-07
6.09247e-07
5.30196e-07
4.57477e-07
3.90823e-07
3.30297e-07
2.75975e-07
2.27847e-07
1.85781e-07
1.49516e-07
1.18732e-07
9.29245e-08
7.17386e-08
5.44354e-08
4.08456e-08
2.9847e-08
2.18268e-08
1.51598e-08
1.08119e-08
7.11572e-09
4.80608e-09
4.02974e-09
0.00366806
0.00425201
0.00981266
0.0133647
0.0120492
0.00933814
0.00631708
0.00399729
0.00322796
0.00309176
0.00309264
0.00313267
0.00322388
0.00346199
0.00365627
0.00409392
0.00440599
0.00486205
0.00532278
0.00562485
0.00593593
0.00593827
0.00586741
0.00568372
0.00536075
0.0050222
0.00465109
0.00430299
0.00401847
0.00380439
0.00360721
0.00345976
0.00336859
0.00321107
0.0029333
0.00264818
0.0022861
0.0019341
0.00167981
0.0015283
0.0014549
0.00130145
0.00121968
0.00136477
0.00243569
0.00740992
0.0118456
0.0131908
0.0138845
0.0106907
0.00480981
0.00218954
0.00099277
0.000517795
0.000366621
0.000321916
0.000307777
0.000300959
0.000294048
0.000287831
0.00028239
0.000276967
0.000273884
0.000272489
0.00027217
0.000274628
0.000279007
0.000283965
0.000290849
0.000300616
0.000311768
0.000324752
0.000340009
0.000356184
0.000371457
0.000381357
0.00038605
0.000389272
0.000392036
0.0003948
0.000398765
0.000404392
0.000412028
0.000422866
0.000438449
0.00045979
0.000484588
0.000498324
0.000503174
0.000503856
0.000498144
0.000480861
0.000455546
0.000426924
0.000401081
0.000373915
0.000342428
0.000308706
0.000277542
0.000249417
0.000227652
0.000209757
0.000196124
0.00018485
0.000176247
0.000172418
0.000175407
0.000182569
0.000189623
0.000193944
0.000195453
0.000194621
0.000191968
0.000190207
0.000189433
0.000188792
0.000187494
0.000183444
0.000171617
0.000154148
0.000138153
0.000126865
0.000119178
0.000113571
0.000108575
0.000102448
9.4506e-05
8.59117e-05
7.83711e-05
7.24191e-05
6.78042e-05
6.43576e-05
6.1974e-05
6.02734e-05
5.86085e-05
5.65751e-05
5.4247e-05
5.18699e-05
4.94297e-05
4.65601e-05
4.28659e-05
3.82718e-05
3.30187e-05
2.75281e-05
2.21966e-05
1.72785e-05
1.29148e-05
9.23218e-06
6.37e-06
4.39576e-06
3.18043e-06
2.45212e-06
1.97734e-06
1.62774e-06
1.3505e-06
1.12646e-06
9.46238e-07
8.01999e-07
6.85903e-07
5.90709e-07
5.1062e-07
4.41526e-07
3.80602e-07
3.25792e-07
2.76112e-07
2.31412e-07
1.91648e-07
1.56775e-07
1.26667e-07
1.0104e-07
7.95391e-08
6.17271e-08
4.72247e-08
3.55406e-08
2.63728e-08
1.91796e-08
1.37507e-08
9.64683e-09
6.62877e-09
4.47027e-09
0.0065107
0.0116858
0.00940102
0.00458265
0.0028241
0.00235889
0.00240984
0.00256553
0.00288007
0.00313083
0.00336326
0.00368281
0.00394836
0.00444786
0.0049365
0.00595579
0.00677983
0.00814728
0.00918198
0.0100301
0.0106678
0.0106029
0.0103112
0.00968374
0.00872079
0.00766306
0.00665326
0.00580694
0.00510776
0.00457269
0.00420363
0.00393587
0.00377312
0.00361219
0.00329668
0.00288573
0.00257371
0.00212826
0.00174954
0.00159321
0.00146296
0.00130771
0.00136513
0.00260935
0.00783123
0.010418
0.0113539
0.0108078
0.00666226
0.00330641
0.00145922
0.000723071
0.000442901
0.000347299
0.000319046
0.000309897
0.000305416
0.000300022
0.000294926
0.000290963
0.000288897
0.00028823
0.000291885
0.000298959
0.000305234
0.000312431
0.000321502
0.000330833
0.000342117
0.00035611
0.000373091
0.000391819
0.00041147
0.000428702
0.000438069
0.000442634
0.000444789
0.000445221
0.000442922
0.000443065
0.000446012
0.000451588
0.000460005
0.000473521
0.000497379
0.000536548
0.000563191
0.000567763
0.000566058
0.000557235
0.00054408
0.000521871
0.000493937
0.000466011
0.000441987
0.000419626
0.000395223
0.000368891
0.000340395
0.000305338
0.000267687
0.000233863
0.000206702
0.00018655
0.000171826
0.000160156
0.000151066
0.000147267
0.000151637
0.000165219
0.000179035
0.000186749
0.000188931
0.000188024
0.00018711
0.000187345
0.000188495
0.000189012
0.000188258
0.000183835
0.000168316
0.000143926
0.000125656
0.000114957
0.000109003
0.000105079
0.000100947
9.5442e-05
8.84265e-05
8.09291e-05
7.42719e-05
6.88362e-05
6.46295e-05
6.17039e-05
5.99679e-05
5.88517e-05
5.75253e-05
5.55351e-05
5.30901e-05
5.07167e-05
4.86658e-05
4.66494e-05
4.40847e-05
4.05388e-05
3.59878e-05
3.07707e-05
2.53773e-05
2.02623e-05
1.57615e-05
1.20388e-05
9.10071e-06
6.8563e-06
5.16079e-06
3.86318e-06
2.86353e-06
2.10659e-06
1.54818e-06
1.14623e-06
8.62442e-07
6.64241e-07
5.25617e-07
4.26922e-07
3.5425e-07
2.98595e-07
2.54074e-07
2.16411e-07
1.82977e-07
1.52676e-07
1.25526e-07
1.01608e-07
8.09641e-08
6.35044e-08
4.90305e-08
3.72587e-08
2.78603e-08
2.04835e-08
1.48211e-08
1.05206e-08
7.36623e-09
5.01445e-09
0.00583881
0.00388457
0.00190423
0.00157929
0.0017075
0.00210281
0.00267218
0.00329605
0.00351235
0.00362981
0.00385396
0.00411685
0.00465932
0.00573947
0.00757498
0.0102295
0.0126961
0.0152667
0.0169286
0.0181943
0.0190715
0.019034
0.0186141
0.0175145
0.0152784
0.0127651
0.010286
0.00821829
0.00676181
0.0057729
0.0050727
0.00464473
0.00443979
0.00424183
0.00377171
0.00323077
0.00278782
0.00232804
0.00207721
0.00186923
0.0015016
0.00146332
0.00241962
0.00684218
0.00903731
0.00968589
0.00826204
0.004534
0.00228272
0.00113571
0.000604091
0.000407722
0.000341987
0.000321624
0.000315059
0.00031124
0.000308529
0.000306071
0.000305333
0.000306273
0.000310935
0.000318118
0.000326443
0.000333578
0.000341204
0.000351247
0.000361278
0.000373747
0.000390998
0.000411518
0.000436459
0.00046485
0.00049375
0.000520416
0.000542683
0.000561369
0.000579519
0.000592377
0.000597906
0.000599066
0.000595626
0.000594245
0.000592943
0.000586967
0.000585304
0.000595782
0.000596185
0.00059029
0.000575791
0.000553709
0.000528176
0.000489173
0.000446768
0.000412359
0.000390146
0.000377925
0.000369943
0.000362609
0.000348424
0.000326301
0.000296842
0.000262713
0.000229768
0.000201872
0.000180451
0.000163818
0.000150157
0.000139057
0.000131845
0.000129288
0.000134497
0.000152757
0.000170243
0.000177651
0.000178522
0.000177929
0.000178358
0.000181736
0.000185751
0.000186486
0.000184481
0.000174979
0.000149661
0.000124428
0.000109525
0.000102098
9.87208e-05
9.63742e-05
9.2845e-05
8.78142e-05
8.15682e-05
7.51219e-05
6.93891e-05
6.46703e-05
6.11391e-05
5.89226e-05
5.78167e-05
5.70586e-05
5.57446e-05
5.34797e-05
5.06488e-05
4.80233e-05
4.605e-05
4.44821e-05
4.26376e-05
3.99177e-05
3.61415e-05
3.15461e-05
2.65857e-05
2.17194e-05
1.72888e-05
1.34851e-05
1.03638e-05
7.87257e-06
5.8934e-06
4.32016e-06
3.09474e-06
2.17261e-06
1.50371e-06
1.03513e-06
7.17027e-07
5.06514e-07
3.69324e-07
2.79716e-07
2.19639e-07
1.77653e-07
1.47029e-07
1.23409e-07
1.03662e-07
8.61327e-08
7.04632e-08
5.66552e-08
4.4735e-08
3.46759e-08
2.63919e-08
1.97169e-08
1.44579e-08
1.03997e-08
7.33865e-09
5.08506e-09
0.00149538
0.00130357
0.00125701
0.0014932
0.00226077
0.0031119
0.00344803
0.00355593
0.00361439
0.00375705
0.00413503
0.00503887
0.00672873
0.00937731
0.0123571
0.0151466
0.0173789
0.01919
0.0204724
0.0215092
0.0223201
0.0225878
0.0225199
0.0221418
0.0210029
0.0181968
0.0145731
0.011231
0.00867212
0.00681744
0.00557627
0.00492544
0.00466099
0.00449299
0.00409705
0.00358483
0.00306459
0.00271647
0.00237463
0.00186278
0.00159047
0.00208074
0.00564812
0.00786234
0.00844829
0.00692768
0.00352613
0.00177789
0.000926719
0.000547
0.000393657
0.000341313
0.00032536
0.000320356
0.000318112
0.000317704
0.000318178
0.000319452
0.000322136
0.000327234
0.000336322
0.00034826
0.000361009
0.000374762
0.000389022
0.000402808
0.000419772
0.000442234
0.000472442
0.000511729
0.00055957
0.000614156
0.000674465
0.000739736
0.000808936
0.000878663
0.000949148
0.00102372
0.00107195
0.00108972
0.00107553
0.00100387
0.000970364
0.000889765
0.000800708
0.000747652
0.000676766
0.000627563
0.000581601
0.000535095
0.000480096
0.000413498
0.000354808
0.000308537
0.000273126
0.00024648
0.000231107
0.000227041
0.00023923
0.000254669
0.000263528
0.000253846
0.000229217
0.00020378
0.00018347
0.000169109
0.000157879
0.000146536
0.000133409
0.000123512
0.000118322
0.000117973
0.000126423
0.000147494
0.000161741
0.000165686
0.00016547
0.000165334
0.00016731
0.000174212
0.000177915
0.000177602
0.000171403
0.000150413
0.000123049
0.000104392
9.46621e-05
9.0453e-05
8.92598e-05
8.83372e-05
8.59763e-05
8.07353e-05
7.47997e-05
6.90923e-05
6.42212e-05
6.04345e-05
5.78164e-05
5.62765e-05
5.54886e-05
5.48785e-05
5.37243e-05
5.11341e-05
4.79068e-05
4.50908e-05
4.31356e-05
4.18354e-05
4.04962e-05
3.84448e-05
3.53896e-05
3.14568e-05
2.70145e-05
2.24784e-05
1.81911e-05
1.43748e-05
1.11246e-05
8.42723e-06
6.21916e-06
4.4535e-06
3.09435e-06
2.09172e-06
1.38219e-06
8.99325e-07
5.82376e-07
3.80878e-07
2.55959e-07
1.79503e-07
1.32265e-07
1.02011e-07
8.16593e-08
6.71847e-08
5.58508e-08
4.60986e-08
3.74467e-08
2.98399e-08
2.32913e-08
1.78011e-08
1.33185e-08
9.76632e-09
7.00383e-09
4.93667e-09
0.000498137
0.00097296
0.00124662
0.0023298
0.00310604
0.00341157
0.00353268
0.00354858
0.00364409
0.00404372
0.00491521
0.00630062
0.00832725
0.0109129
0.0137235
0.0162702
0.0182665
0.0198436
0.0210073
0.0220453
0.0227498
0.0230752
0.0231041
0.0227882
0.0213982
0.0183277
0.014675
0.0113868
0.00907697
0.00747914
0.00628016
0.00548556
0.00509877
0.00469769
0.00416675
0.00359288
0.00312533
0.00278041
0.00230199
0.00179668
0.00194163
0.00451153
0.00688703
0.00749145
0.00634111
0.00318155
0.00157711
0.000833655
0.000514637
0.000388914
0.000343562
0.000329569
0.000326279
0.000326112
0.000330918
0.000337735
0.000346154
0.000354687
0.000367052
0.000381504
0.000398475
0.000416202
0.000433147
0.000451913
0.000474172
0.00050015
0.000530691
0.000573784
0.000636223
0.000719701
0.000826799
0.000955295
0.00110796
0.00129185
0.00150714
0.00173278
0.00195302
0.00217952
0.00234489
0.0024115
0.00239274
0.00217756
0.00199923
0.00171855
0.00144658
0.00121393
0.00100283
0.000828527
0.000693207
0.000588105
0.000502969
0.000422952
0.000360131
0.000310424
0.000269223
0.000233027
0.000202847
0.000180147
0.000163961
0.000153722
0.000149163
0.000152359
0.000156978
0.00015508
0.00015039
0.000149557
0.000151823
0.000151462
0.000146267
0.000133781
0.00011918
0.000111812
0.000109458
0.000111908
0.000125072
0.000142333
0.00015002
0.000150967
0.000150065
0.000150265
0.000154509
0.000160955
0.000162536
0.000159754
0.000144821
0.000119589
9.98908e-05
8.88266e-05
8.35907e-05
8.18297e-05
8.14776e-05
8.09354e-05
7.91324e-05
7.40498e-05
6.82027e-05
6.31517e-05
5.9193e-05
5.64187e-05
5.47276e-05
5.38438e-05
5.33336e-05
5.26687e-05
5.11885e-05
4.80394e-05
4.47135e-05
4.20302e-05
4.02623e-05
3.92137e-05
3.82886e-05
3.68047e-05
3.43547e-05
3.095e-05
2.68786e-05
2.25384e-05
1.83011e-05
1.44328e-05
1.10679e-05
8.23526e-06
5.92561e-06
4.11907e-06
2.76984e-06
1.80657e-06
1.14729e-06
7.13465e-07
4.38272e-07
2.6949e-07
1.68961e-07
1.10323e-07
7.62558e-08
5.5964e-08
4.32894e-08
3.48854e-08
2.86738e-08
2.34858e-08
1.89237e-08
1.49315e-08
1.15015e-08
8.66072e-09
6.34427e-09
4.57904e-09
0.000519423
0.0013264
0.00183012
0.00298869
0.00329067
0.0034498
0.00345257
0.00349346
0.00377333
0.00429742
0.00518252
0.00657839
0.00845821
0.0105851
0.0125996
0.0144171
0.0159933
0.0172431
0.0184259
0.0196553
0.0203271
0.0205842
0.0202524
0.0188133
0.017154
0.0148344
0.0121675
0.00995333
0.00840358
0.00718056
0.0061707
0.00551304
0.00509379
0.00463381
0.00407788
0.00351069
0.00307843
0.0026597
0.00202599
0.00194501
0.00363825
0.0060743
0.00673011
0.00618457
0.00311545
0.00153277
0.000813157
0.000506203
0.000386278
0.000344692
0.00033262
0.000330134
0.000333148
0.000343809
0.000351674
0.000357865
0.000366592
0.000384942
0.000407322
0.000432097
0.000458203
0.000484967
0.000513275
0.000548486
0.000594805
0.00065472
0.000730071
0.000829785
0.000965377
0.00115275
0.00139971
0.00170231
0.00209564
0.00259034
0.00320761
0.00392694
0.00466894
0.00539862
0.00591967
0.00613132
0.00604122
0.00549521
0.00480107
0.00399232
0.00328143
0.0025786
0.00203127
0.00157179
0.00123968
0.000959708
0.000753083
0.000613806
0.000520424
0.000453312
0.000395446
0.000339157
0.000285856
0.000237252
0.000194912
0.000160855
0.000135817
0.000117554
0.000103783
9.18301e-05
8.36274e-05
8.31253e-05
9.56053e-05
0.000123988
0.000143955
0.000146143
0.000137974
0.000118114
0.000107328
0.000103761
0.000104094
0.000109389
0.00012285
0.000132882
0.000135469
0.000134344
0.000132267
0.000132762
0.000137801
0.000142225
0.000142103
0.000134862
0.000114283
9.54894e-05
8.40605e-05
7.83691e-05
7.60896e-05
7.55751e-05
7.5391e-05
7.48465e-05
7.27181e-05
6.71534e-05
6.17467e-05
5.75805e-05
5.47037e-05
5.29669e-05
5.20789e-05
5.16244e-05
5.11464e-05
5.0181e-05
4.77437e-05
4.43576e-05
4.13889e-05
3.90975e-05
3.75028e-05
3.65486e-05
3.59456e-05
3.50936e-05
3.32118e-05
2.99968e-05
2.59786e-05
2.15951e-05
1.73054e-05
1.34038e-05
1.00353e-05
7.24896e-06
5.04765e-06
3.39171e-06
2.20369e-06
1.38793e-06
8.4996e-07
5.08286e-07
2.98863e-07
1.74759e-07
1.03473e-07
6.35615e-08
4.14938e-08
2.9118e-08
2.18763e-08
1.73545e-08
1.41349e-08
1.14929e-08
9.17055e-09
7.16161e-09
5.41468e-09
4.03758e-09
0.000684307
0.00166835
0.00235229
0.00316122
0.00330436
0.00331486
0.00335795
0.00351629
0.0038063
0.00417827
0.00456743
0.00492773
0.00526295
0.00574339
0.0063897
0.00720431
0.00817194
0.00929689
0.0104845
0.0114822
0.0121743
0.0124937
0.0125579
0.0119054
0.0109879
0.00967854
0.00869519
0.00791394
0.00725713
0.00652268
0.00586143
0.00536182
0.00492318
0.0043989
0.00383578
0.00330823
0.00282143
0.00221064
0.002059
0.00312922
0.00539589
0.00608616
0.00599147
0.00331749
0.00158665
0.000834067
0.000515562
0.000389278
0.000344945
0.000332241
0.000329891
0.000334692
0.000346588
0.000357396
0.000367138
0.000380878
0.000408095
0.00044727
0.000499739
0.000550686
0.000591822
0.000628497
0.000693118
0.000789109
0.000896017
0.00103557
0.00121623
0.00143296
0.00167917
0.00198807
0.00250333
0.00321359
0.00422304
0.00556706
0.00736351
0.00953745
0.0118753
0.0140419
0.0153268
0.0158313
0.0152203
0.0137197
0.0115824
0.00944106
0.00749629
0.0058049
0.00451234
0.00352537
0.00285592
0.00219133
0.00165631
0.00128592
0.00104689
0.000893723
0.000780643
0.000675753
0.000575549
0.000482404
0.00039514
0.000312221
0.000236359
0.000172824
0.000125418
9.38547e-05
7.47495e-05
6.50629e-05
6.28506e-05
6.88255e-05
0.000101718
0.000138497
0.000145549
0.00013976
0.000117567
0.000103573
9.90996e-05
9.85698e-05
0.000100327
0.000106829
0.000116098
0.000120235
0.000119991
0.000116467
0.000114784
0.000116296
0.000121904
0.000123764
0.000121373
0.000108495
9.12754e-05
8.01582e-05
7.43574e-05
7.18052e-05
7.10312e-05
7.08407e-05
7.0529e-05
6.95018e-05
6.58264e-05
6.02109e-05
5.58315e-05
5.28182e-05
5.10036e-05
5.00871e-05
4.96684e-05
4.93146e-05
4.86476e-05
4.70089e-05
4.3721e-05
4.05303e-05
3.80069e-05
3.6211e-05
3.50539e-05
3.4356e-05
3.38547e-05
3.31143e-05
3.14734e-05
2.81447e-05
2.39192e-05
1.94185e-05
1.51507e-05
1.13847e-05
8.23792e-06
5.73832e-06
3.85222e-06
2.49723e-06
1.56662e-06
9.53115e-07
5.6367e-07
3.25085e-07
1.83823e-07
1.02919e-07
5.80483e-08
3.38645e-08
2.10643e-08
1.42526e-08
1.04894e-08
8.25721e-09
6.67911e-09
5.40699e-09
4.24549e-09
3.31415e-09
0.000801773
0.00201065
0.00280711
0.00317971
0.00323151
0.00325921
0.00333921