/*--------------------------------*- C++ -*----------------------------------*\
  =========                 |
  \\      /  F ield         | OpenFOAM: The Open Source CFD Toolbox
   \\    /   O peration     | Website:  https://openfoam.org
    \\  /    A nd           | Version:  7
     \\/     M anipulation  |
\*---------------------------------------------------------------------------*/
FoamFile
{
    version     2.0;
    format      ascii;
    class       surfaceScalarField;
    location    "0.069";
    object      phi_0;
}
// * * * * * * * * * * * * * * * * * * * * * * * * * * * * * * * * * * * * * //

dimensions      [0 3 -1 0 0 0 0];

internalField   nonuniform List<scalar> 
24170
(
1.404e-06
1.275e-07
1.27943e-06
1.24566e-07
1.13142e-06
1.48008e-07
9.97693e-07
1.3373e-07
8.79522e-07
1.18171e-07
7.79798e-07
9.97241e-08
6.96485e-07
8.33128e-08
6.2317e-07
7.33153e-08
5.54647e-07
6.85226e-08
4.89737e-07
6.49104e-08
4.3022e-07
5.95168e-08
3.78052e-07
5.21679e-08
3.33898e-07
4.41536e-08
2.97044e-07
3.68548e-08
2.64423e-07
3.26209e-08
2.33432e-07
3.09903e-08
1.96924e-07
3.6508e-08
3.87773e-08
1.58147e-07
1.69438e-06
1.62304e-07
1.66398e-06
1.54969e-07
1.62464e-06
1.87346e-07
1.58037e-06
1.78e-07
1.53294e-06
1.65605e-07
1.48993e-06
1.42732e-07
1.45458e-06
1.18665e-07
1.42122e-06
1.06679e-07
1.3831e-06
1.06635e-07
1.33818e-06
1.09837e-07
1.2894e-06
1.08291e-07
1.24102e-06
1.00552e-07
1.19625e-06
8.89237e-08
1.15559e-06
7.75097e-08
1.11595e-06
7.22611e-08
1.07386e-06
7.30814e-08
1.02561e-06
8.47621e-08
9.94622e-08
9.64923e-07
1.79798e-06
2.02053e-07
1.77422e-06
1.78731e-07
1.74244e-06
2.19127e-07
1.71319e-06
2.0725e-07
1.69872e-06
1.80068e-07
1.69621e-06
1.45243e-07
1.6992e-06
1.15674e-07
1.7032e-06
1.02684e-07
1.70531e-06
1.04529e-07
1.70318e-06
1.11959e-07
1.69516e-06
1.16318e-07
1.68127e-06
1.14436e-07
1.66268e-06
1.07519e-07
1.64136e-06
9.88305e-08
1.6187e-06
9.49207e-08
1.59499e-06
9.6786e-08
1.57111e-06
1.0865e-07
1.28235e-07
1.54233e-06
1.92998e-06
2.41095e-07
1.89066e-06
2.18058e-07
1.87368e-06
2.36103e-07
1.86997e-06
2.10959e-07
1.87083e-06
1.79209e-07
1.86856e-06
1.47518e-07
1.86165e-06
1.22578e-07
1.85502e-06
1.09322e-07
1.85369e-06
1.05853e-07
1.8582e-06
1.07448e-07
1.86489e-06
1.09625e-07
1.86952e-06
1.09812e-07
1.86924e-06
1.07792e-07
1.86367e-06
1.04401e-07
1.85496e-06
1.03631e-07
1.84501e-06
1.06738e-07
1.83713e-06
1.16531e-07
1.34097e-07
1.83127e-06
2.07964e-06
3.04256e-07
2.05621e-06
2.41488e-07
2.05582e-06
2.3649e-07
2.05082e-06
2.15959e-07
2.04671e-06
1.83319e-07
2.04569e-06
1.48538e-07
2.04451e-06
1.23757e-07
2.04107e-06
1.1276e-07
2.03637e-06
1.10554e-07
2.03234e-06
1.11478e-07
2.02945e-06
1.12524e-07
2.02654e-06
1.12719e-07
2.02235e-06
1.11985e-07
2.01637e-06
1.10377e-07
2.01028e-06
1.09717e-07
2.00541e-06
1.11611e-07
2.00458e-06
1.17362e-07
1.29553e-07
2.00912e-06
2.23749e-06
3.06211e-07
2.21953e-06
2.59451e-07
2.21034e-06
2.45674e-07
2.19838e-06
2.27924e-07
2.18924e-06
1.92458e-07
2.18608e-06
1.51697e-07
2.18739e-06
1.22445e-07
2.1891e-06
1.11058e-07
2.18776e-06
1.11891e-07
2.18268e-06
1.16555e-07
2.17559e-06
1.19618e-07
2.16879e-06
1.19514e-07
2.16413e-06
1.16643e-07
2.16202e-06
1.12491e-07
2.16258e-06
1.09159e-07
2.16519e-06
1.08996e-07
2.1701e-06
1.12454e-07
1.21371e-07
2.17828e-06
2.40173e-06
3.78264e-07
2.359e-06
3.02185e-07
2.34929e-06
2.55386e-07
2.35779e-06
2.19421e-07
2.36566e-06
1.84591e-07
2.36683e-06
1.50527e-07
2.36212e-06
1.27157e-07
2.35322e-06
1.19957e-07
2.34218e-06
1.22924e-07
2.33178e-06
1.26959e-07
2.32472e-06
1.26676e-07
2.32249e-06
1.21741e-07
2.32503e-06
1.14108e-07
2.33093e-06
1.06585e-07
2.33869e-06
1.01407e-07
2.34702e-06
1.00664e-07
2.35564e-06
1.03835e-07
1.11597e-07
2.36541e-06
2.60442e-06
4.36028e-07
2.56299e-06
3.43614e-07
2.56455e-06
2.53828e-07
2.57016e-06
2.1381e-07
2.55926e-06
1.95487e-07
2.53861e-06
1.71175e-07
2.52163e-06
1.44139e-07
2.51403e-06
1.27561e-07
2.51355e-06
1.234e-07
2.51602e-06
1.24494e-07
2.51855e-06
1.24145e-07
2.52012e-06
1.20168e-07
2.52094e-06
1.13293e-07
2.52177e-06
1.05752e-07
2.52381e-06
9.93666e-08
2.52811e-06
9.63605e-08
2.53586e-06
9.60917e-08
9.92126e-08
2.54824e-06
2.78264e-06
4.70908e-07
2.79716e-06
3.29093e-07
2.77383e-06
2.77166e-07
2.73544e-06
2.522e-07
2.70841e-06
2.22516e-07
2.69679e-06
1.82792e-07
2.69368e-06
1.47252e-07
2.69456e-06
1.26673e-07
2.69918e-06
1.18786e-07
2.70789e-06
1.15786e-07
2.71944e-06
1.12594e-07
2.73127e-06
1.08334e-07
2.74098e-06
1.03582e-07
2.74728e-06
9.94497e-08
2.75063e-06
9.60231e-08
2.75269e-06
9.42928e-08
2.75587e-06
9.29201e-08
9.24248e-08
2.76265e-06
3.05028e-06
5.40243e-07
3.01867e-06
3.60699e-07
2.98919e-06
3.06645e-07
2.96074e-06
2.80655e-07
2.93637e-06
2.46883e-07
2.91426e-06
2.04903e-07
2.89415e-06
1.67365e-07
2.88051e-06
1.40306e-07
2.8784e-06
1.20894e-07
2.88867e-06
1.05526e-07
2.9073e-06
9.39629e-08
2.92786e-06
8.77695e-08
2.94467e-06
8.67703e-08
2.95492e-06
8.92027e-08
2.95904e-06
9.18985e-08
2.96008e-06
9.3259e-08
2.96165e-06
9.13468e-08
8.69056e-08
2.96717e-06
3.25581e-06
4.75415e-07
3.23259e-06
3.83913e-07
3.2022e-06
3.37032e-07
3.17915e-06
3.03712e-07
3.16341e-06
2.62621e-07
3.15057e-06
2.17741e-07
3.13942e-06
1.78515e-07
3.13233e-06
1.47399e-07
3.13125e-06
1.21977e-07
3.13555e-06
1.0122e-07
3.14297e-06
8.65503e-08
3.15145e-06
7.92863e-08
3.16008e-06
7.81394e-08
3.1694e-06
7.98858e-08
3.18001e-06
8.12905e-08
3.1928e-06
8.04686e-08
3.20754e-06
7.66034e-08
7.0722e-08
3.22372e-06
2.89585e-06
4.55123e-07
2.85176e-06
4.27998e-07
2.83197e-06
3.56825e-07
2.83404e-06
3.01645e-07
2.84356e-06
2.53099e-07
2.85048e-06
2.10815e-07
2.85274e-06
1.76256e-07
2.85252e-06
1.47619e-07
2.85216e-06
1.22336e-07
2.85243e-06
1.00956e-07
2.85342e-06
8.55581e-08
2.85578e-06
7.69235e-08
2.86062e-06
7.33033e-08
2.86889e-06
7.16157e-08
2.88082e-06
6.93593e-08
2.89569e-06
6.56011e-08
2.91238e-06
5.99107e-08
5.39642e-08
2.92914e-06
3.50666e-06
5.13308e-07
3.50894e-06
4.25712e-07
3.50002e-06
3.6575e-07
3.48839e-06
3.13268e-07
3.47651e-06
2.64979e-07
3.46625e-06
2.21074e-07
3.45844e-06
1.8407e-07
3.45335e-06
1.52711e-07
3.4508e-06
1.24887e-07
3.45031e-06
1.01439e-07
3.4516e-06
8.42747e-08
3.45492e-06
7.36024e-08
3.46087e-06
6.73524e-08
3.46975e-06
6.2736e-08
3.4817e-06
5.74054e-08
3.49617e-06
5.11384e-08
3.51265e-06
4.3427e-08
3.63085e-08
3.53031e-06
4.27896e-06
4.70799e-07
4.25945e-06
4.45221e-07
4.24558e-06
3.79615e-07
4.24703e-06
3.11816e-07
4.24164e-06
2.7037e-07
4.22908e-06
2.33639e-07
4.22175e-06
1.91399e-07
4.22541e-06
1.49047e-07
4.23553e-06
1.14768e-07
4.24444e-06
9.25273e-08
4.24822e-06
8.04984e-08
4.24817e-06
7.3655e-08
4.24827e-06
6.72484e-08
4.25184e-06
5.91642e-08
4.2603e-06
4.89485e-08
4.27311e-06
3.83296e-08
4.28896e-06
2.75725e-08
1.85943e-08
4.30668e-06
5.19979e-06
5.25239e-07
5.17521e-06
4.69802e-07
5.18713e-06
3.67694e-07
5.19585e-06
3.03098e-07
5.19492e-06
2.71296e-07
5.19044e-06
2.38123e-07
5.18837e-06
1.93471e-07
5.18795e-06
1.49463e-07
5.1843e-06
1.18417e-07
5.1754e-06
1.01423e-07
5.16468e-06
9.12242e-08
5.15771e-06
8.06202e-08
5.15789e-06
6.70772e-08
5.16472e-06
5.23255e-08
5.17526e-06
3.84085e-08
5.18677e-06
2.68246e-08
5.19719e-06
1.7147e-08
8.45677e-09
5.20733e-06
6.27767e-06
4.81525e-07
6.31771e-06
4.29757e-07
6.35601e-06
3.29399e-07
6.3779e-06
2.81203e-07
6.3828e-06
2.66402e-07
6.37791e-06
2.43009e-07
6.37004e-06
2.01337e-07
6.36403e-06
1.55475e-07
6.36279e-06
1.19659e-07
6.36777e-06
9.64445e-08
6.37881e-06
8.01785e-08
6.39418e-06
6.5251e-08
6.41124e-06
5.00161e-08
6.42772e-06
3.58508e-08
6.44196e-06
2.41661e-08
6.4536e-06
1.51823e-08
6.46282e-06
7.9326e-09
1.20536e-09
6.47007e-06
7.78264e-06
6.2157e-07
7.75816e-06
4.54237e-07
7.76036e-06
3.272e-07
7.7622e-06
2.79365e-07
7.76531e-06
2.63285e-07
7.7658e-06
2.42517e-07
7.76123e-06
2.05908e-07
7.75512e-06
1.6159e-07
7.75264e-06
1.22137e-07
7.7552e-06
9.3884e-08
7.75993e-06
7.5446e-08
7.76301e-06
6.217e-08
7.7628e-06
5.02299e-08
7.76053e-06
3.8119e-08
7.75889e-06
2.58051e-08
7.76011e-06
1.39614e-08
7.76513e-06
2.91354e-09
-6.60469e-09
7.77294e-06
9.26187e-06
4.8002e-07
9.33621e-06
3.799e-07
9.34018e-06
3.23227e-07
9.33398e-06
2.85567e-07
9.3526e-06
2.44664e-07
9.38981e-06
2.05306e-07
9.42549e-06
1.70228e-07
9.44941e-06
1.37675e-07
9.46435e-06
1.07193e-07
9.47784e-06
8.03976e-08
9.49421e-06
5.90771e-08
9.51252e-06
4.38608e-08
9.52882e-06
3.39271e-08
9.53935e-06
2.75913e-08
9.54238e-06
2.27732e-08
9.53859e-06
1.77557e-08
9.52984e-06
1.16635e-08
3.80572e-09
9.51942e-06
1.14139e-05
4.57357e-07
1.14309e-05
3.6293e-07
1.1449e-05
3.0512e-07
1.14886e-05
2.45922e-07
1.15384e-05
1.9491e-07
1.15881e-05
1.55617e-07
1.1633e-05
1.25328e-07
1.16733e-05
9.72934e-08
1.17111e-05
6.94424e-08
1.17464e-05
4.50848e-08
1.17772e-05
2.82903e-08
1.18003e-05
2.074e-08
1.18137e-05
2.05337e-08
1.18176e-05
2.36759e-08
1.18146e-05
2.58482e-08
1.18075e-05
2.47749e-08
1.17995e-05
1.96852e-08
1.0957e-08
1.17924e-05
8.37984e-06
5.74016e-07
8.34779e-06
3.94982e-07
8.3905e-06
2.62409e-07
8.43218e-06
2.04238e-07
8.45803e-06
1.69058e-07
8.47457e-06
1.39082e-07
8.49233e-06
1.07563e-07
8.51456e-06
7.50653e-08
8.53762e-06
4.6387e-08
8.55706e-06
2.56443e-08
8.57078e-06
1.4574e-08
8.57923e-06
1.22855e-08
8.58398e-06
1.57784e-08
8.5867e-06
2.09586e-08
8.58874e-06
2.38119e-08
8.59107e-06
2.24387e-08
8.59438e-06
1.63798e-08
6.33094e-09
8.59901e-06
7.34761e-06
4.6609e-07
7.39235e-06
3.50243e-07
7.41985e-06
2.34908e-07
7.45053e-06
1.73557e-07
7.48702e-06
1.32569e-07
7.52352e-06
1.02584e-07
7.54719e-06
8.3886e-08
7.55035e-06
7.19074e-08
7.53623e-06
6.05127e-08
7.51526e-06
4.66154e-08
7.49852e-06
3.13115e-08
7.49288e-06
1.79267e-08
7.49971e-06
8.93998e-09
7.51575e-06
4.91969e-09
7.53547e-06
4.0934e-09
7.55398e-06
3.93574e-09
7.56784e-06
2.51538e-09
-1.96566e-09
7.57614e-06
6.40425e-06
4.43111e-07
6.41642e-06
3.38073e-07
6.42982e-06
2.21511e-07
6.45086e-06
1.52518e-07
6.48102e-06
1.02406e-07
6.51656e-06
6.70387e-08
6.5488e-06
5.1652e-08
6.56993e-06
5.07757e-08
6.57789e-06
5.25559e-08
6.57652e-06
4.79809e-08
6.573e-06
3.48301e-08
6.57415e-06
1.67779e-08
6.5838e-06
-7.08763e-10
6.60204e-06
-1.33193e-08
6.62733e-06
-2.11992e-08
6.6563e-06
-2.50316e-08
6.68547e-06
-2.66533e-08
-2.77564e-08
6.71126e-06
5.51913e-06
3.68472e-07
5.55819e-06
2.9902e-07
5.58748e-06
1.92213e-07
5.61323e-06
1.26775e-07
5.63633e-06
7.93021e-08
5.66225e-06
4.11201e-08
5.69491e-06
1.89914e-08
5.73329e-06
1.23953e-08
5.77228e-06
1.35677e-08
5.80628e-06
1.39832e-08
5.83082e-06
1.02849e-08
5.84429e-06
3.31343e-09
5.8489e-06
-5.32742e-09
5.84801e-06
-1.2428e-08
5.84455e-06
-1.77379e-08
5.84131e-06
-2.17903e-08
5.83992e-06
-2.52638e-08
-2.8808e-08
5.84097e-06
4.78676e-06
4.1002e-07
4.86399e-06
2.21788e-07
4.93129e-06
1.24904e-07
4.9703e-06
8.77715e-08
4.98092e-06
6.86797e-08
4.9731e-06
4.89427e-08
4.96394e-06
2.81492e-08
4.96571e-06
1.06223e-08
4.98109e-06
-1.80614e-09
5.00561e-06
-1.05389e-08
5.03413e-06
-1.82372e-08
5.06109e-06
-2.3641e-08
5.08162e-06
-2.58648e-08
5.09411e-06
-2.49127e-08
5.09862e-06
-2.22545e-08
5.09663e-06
-1.97938e-08
5.09028e-06
-1.89184e-08
-2.06039e-08
5.08208e-06
4.11635e-06
3.55243e-07
4.19861e-06
1.39521e-07
4.24437e-06
7.91507e-08
4.29028e-06
4.18628e-08
4.34106e-06
1.7891e-08
4.38171e-06
8.29796e-09
4.40183e-06
8.02769e-09
4.40391e-06
8.54535e-09
4.3986e-06
3.50101e-09
4.39754e-06
-9.47989e-09
4.40478e-06
-2.54786e-08
4.41999e-06
-3.88519e-08
4.43973e-06
-4.55988e-08
4.46037e-06
-4.55579e-08
4.47941e-06
-4.12926e-08
4.49554e-06
-3.59265e-08
4.50836e-06
-3.17388e-08
-3.00307e-08
4.51779e-06
3.74093e-06
2.71402e-07
3.76776e-06
1.12695e-07
3.78117e-06
6.57354e-08
3.79212e-06
3.09152e-08
3.81044e-06
-4.3255e-10
3.82864e-06
-9.89696e-09
3.84207e-06
-5.40114e-09
3.85188e-06
-1.26734e-09
3.86283e-06
-7.44434e-09
3.87652e-06
-2.31761e-08
3.89182e-06
-4.0775e-08
3.90606e-06
-5.3091e-08
3.91768e-06
-5.72222e-08
3.92648e-06
-5.43591e-08
3.93315e-06
-4.79649e-08
3.93858e-06
-4.13495e-08
3.94345e-06
-3.66086e-08
-3.45502e-08
3.94797e-06
3.23694e-06
2.94265e-07
3.26503e-06
8.46105e-08
3.30673e-06
2.40281e-08
3.34852e-06
-1.08666e-08
3.37422e-06
-2.61396e-08
3.38507e-06
-2.07401e-08
3.39173e-06
-1.20603e-08
3.40406e-06
-1.35974e-08
3.42269e-06
-2.60775e-08
3.44152e-06
-4.20115e-08
3.45488e-06
-5.41351e-08
3.46128e-06
-5.94898e-08
3.46276e-06
-5.87021e-08
3.46246e-06
-5.40585e-08
3.46259e-06
-4.80921e-08
3.46411e-06
-4.28732e-08
3.46687e-06
-3.93622e-08
-3.80199e-08
3.47034e-06
2.85574e-06
1.33487e-07
2.92308e-06
1.72701e-08
2.93745e-06
9.65499e-09
2.95276e-06
-2.61736e-08
2.97056e-06
-4.39387e-08
2.98852e-06
-3.8703e-08
3.00789e-06
-3.14327e-08
3.0282e-06
-3.39008e-08
3.04578e-06
-4.36569e-08
3.05771e-06
-5.39446e-08
3.06401e-06
-6.04338e-08
3.06703e-06
-6.25175e-08
3.06969e-06
-6.13603e-08
3.07393e-06
-5.82964e-08
3.08009e-06
-5.42558e-08
3.0875e-06
-5.0275e-08
3.09492e-06
-4.67833e-08
-4.43764e-08
3.10127e-06
2.5148e-06
4.31205e-08
2.56492e-06
-3.28516e-08
2.59462e-06
-2.0045e-08
2.6147e-06
-4.62554e-08
2.62611e-06
-5.53468e-08
2.63631e-06
-4.89088e-08
2.64925e-06
-4.43711e-08
2.66198e-06
-4.66283e-08
2.66949e-06
-5.1171e-08
2.66937e-06
-5.3823e-08
2.66259e-06
-5.36554e-08
2.65178e-06
-5.1705e-08
2.6395e-06
-4.90765e-08
2.62742e-06
-4.62241e-08
2.61635e-06
-4.31786e-08
2.60628e-06
-4.02081e-08
2.59693e-06
-3.74317e-08
-3.5288e-08
2.58784e-06
2.14964e-06
2.11679e-06
2.09674e-06
2.05049e-06
1.99514e-06
1.94623e-06
1.90186e-06
1.85523e-06
1.80406e-06
1.75024e-06
1.69658e-06
1.64488e-06
1.5958e-06
1.54958e-06
1.5064e-06
1.46619e-06
1.42876e-06
1.39347e-06
-3.10854e-07
3.10854e-07
-6.1392e-07
3.03066e-07
-8.57689e-07
2.43769e-07
-1.01782e-06
1.60135e-07
-1.07855e-06
6.07284e-08
-1.04095e-06
-3.76034e-08
-9.09995e-07
-1.30954e-07
-6.86669e-07
-2.23326e-07
-3.8403e-07
-3.0264e-07
-2.36695e-08
-3.6036e-07
3.66805e-07
-3.90474e-07
7.65997e-07
-3.99192e-07
1.15542e-06
-3.89422e-07
1.52154e-06
-3.6612e-07
1.85573e-06
-3.34196e-07
2.15346e-06
-2.97721e-07
2.41287e-06
-2.59411e-07
2.63364e-06
-2.20771e-07
2.81615e-06
-1.82513e-07
2.96091e-06
-1.44756e-07
3.06829e-06
-1.07388e-07
3.13832e-06
-7.00297e-08
3.17076e-06
-3.24347e-08
3.16546e-06
5.30027e-09
3.11946e-06
4.59971e-08
3.03175e-06
8.77126e-08
2.90066e-06
1.31093e-07
2.72551e-06
1.75147e-07
2.50475e-06
2.20756e-07
2.23823e-06
2.66525e-07
1.92824e-06
3.09991e-07
1.57691e-06
3.51324e-07
1.20831e-06
3.68604e-07
8.16605e-07
3.91704e-07
4.38543e-07
3.78062e-07
1.64968e-07
2.73575e-07
-1.19957e-08
1.76964e-07
-1.31193e-07
1.19197e-07
-1.99857e-07
6.86637e-08
-2.15632e-07
1.57754e-08
-1.86729e-07
-2.89032e-08
-1.20557e-07
-6.61716e-08
-1.93951e-08
-1.01162e-07
1.11745e-07
-1.3114e-07
2.62835e-07
-1.5109e-07
4.146e-07
-1.51765e-07
5.47317e-07
-1.32717e-07
6.40029e-07
-9.27117e-08
6.80035e-07
-4.00057e-08
7.69108e-07
-8.90729e-08
9.43115e-07
-1.74008e-07
1.08744e-06
-1.44325e-07
1.12393e-06
-3.64867e-08
1.01184e-06
1.12084e-07
6.58251e-07
3.53593e-07
1.0652e-07
5.51731e-07
-4.87435e-07
5.93955e-07
-1.06034e-06
5.72902e-07
-1.59879e-06
5.3845e-07
-2.09757e-06
4.98781e-07
-2.55571e-06
4.58146e-07
-2.97462e-06
4.1891e-07
-3.35687e-06
3.8225e-07
-3.70544e-06
3.48571e-07
-4.0233e-06
3.17852e-07
-4.3131e-06
2.89801e-07
-4.57709e-06
2.63995e-07
-4.81707e-06
2.39974e-07
-5.03435e-06
2.17281e-07
-5.22982e-06
1.95473e-07
-5.40392e-06
1.741e-07
-5.55662e-06
1.52696e-07
-5.68745e-06
1.30829e-07
-5.79561e-06
1.08163e-07
-5.88011e-06
8.45019e-08
-5.93991e-06
5.97988e-08
-5.97411e-06
3.42058e-08
-5.98213e-06
8.01776e-09
-5.9653e-06
-1.68351e-08
-5.92427e-06
-4.10234e-08
-5.85993e-06
-6.43442e-08
-5.77361e-06
-8.63239e-08
-5.66696e-06
-1.06645e-07
-5.5418e-06
-1.25159e-07
-5.39986e-06
-1.41945e-07
-5.2427e-06
-1.57153e-07
-5.07157e-06
-1.71129e-07
-4.88742e-06
-1.84153e-07
-4.69098e-06
-1.96441e-07
-4.48296e-06
-2.08023e-07
-4.26419e-06
-2.18767e-07
-4.03576e-06
-2.2843e-07
-3.79903e-06
-2.36729e-07
-3.55563e-06
-2.434e-07
-3.30736e-06
-2.48272e-07
-3.05604e-06
-2.5132e-07
-2.80339e-06
-2.5265e-07
-2.55089e-06
-2.525e-07
-2.2997e-06
-2.51191e-07
-2.05069e-06
-2.4901e-07
-1.80454e-06
-2.46149e-07
-1.56184e-06
-2.42703e-07
-1.32323e-06
-2.38602e-07
-1.08962e-06
-2.33615e-07
-8.6219e-07
-2.2743e-07
-6.42446e-07
-2.19744e-07
-4.32095e-07
-2.10351e-07
-2.32868e-07
-1.99227e-07
-4.6136e-08
-1.86732e-07
1.27796e-07
-1.73932e-07
2.87803e-07
-1.60007e-07
4.33946e-07
-1.46143e-07
5.66703e-07
-1.32758e-07
6.86999e-07
-1.20295e-07
7.9602e-07
-1.09022e-07
8.95008e-07
-9.8988e-08
9.85044e-07
-9.00361e-08
1.06687e-06
-8.18258e-08
1.14081e-06
-7.39403e-08
1.20682e-06
-6.60104e-08
1.26456e-06
-5.77407e-08
1.31358e-06
-4.9022e-08
1.35356e-06
-3.99782e-08
1.38429e-06
-3.07271e-08
1.40584e-06
-2.15495e-08
1.41879e-06
-1.29508e-08
1.42366e-06
-4.87439e-09
1.42085e-06
2.812e-09
1.41129e-06
9.55949e-09
1.39629e-06
1.50035e-08
1.377e-06
1.92918e-08
1.35439e-06
2.26071e-08
1.32935e-06
2.50365e-08
1.30269e-06
2.66649e-08
1.27512e-06
2.75696e-08
1.24731e-06
2.78068e-08
1.21986e-06
2.74559e-08
1.19322e-06
2.66369e-08
1.16773e-06
2.54886e-08
1.1436e-06
2.41339e-08
1.12093e-06
2.26654e-08
1.09979e-06
2.11458e-08
1.08017e-06
1.96128e-08
1.06208e-06
1.809e-08
1.04549e-06
1.65966e-08
1.03033e-06
1.51513e-08
1.01656e-06
1.37722e-08
1.00409e-06
1.24758e-08
9.92812e-07
1.12748e-08
9.82635e-07
1.01768e-08
9.73452e-07
9.18279e-09
9.65163e-07
8.28916e-09
9.57672e-07
7.49071e-09
9.50892e-07
6.78075e-09
9.44735e-07
6.15673e-09
9.39112e-07
5.62252e-09
9.33937e-07
5.17506e-09
9.29128e-07
4.80941e-09
9.24603e-07
4.52487e-09
9.20287e-07
4.31603e-09
9.16108e-07
4.17891e-09
9.12001e-07
4.10759e-09
9.07879e-07
4.1214e-09
9.03661e-07
4.21809e-09
8.99222e-07
4.43868e-09
8.9447e-07
4.75198e-09
8.89222e-07
5.24841e-09
8.83392e-07
5.83051e-09
8.76643e-07
6.74837e-09
8.68934e-07
7.7095e-09
8.59558e-07
9.37607e-09
8.4872e-07
1.0838e-08
8.34725e-07
1.39947e-08
8.18756e-07
1.59691e-08
7.96312e-07
2.24435e-08
7.72111e-07
2.42009e-08
7.33098e-07
3.90137e-08
6.96939e-07
3.61591e-08
6.22207e-07
7.4732e-08
5.14443e-08
5.70762e-07
-7.24305e-08
3.83285e-07
-1.79528e-07
4.10163e-07
-2.50875e-07
3.15116e-07
-2.58957e-07
1.68217e-07
-2.18004e-07
1.97754e-08
-1.27269e-07
-1.28338e-07
3.00757e-08
-2.88299e-07
2.56435e-07
-4.49685e-07
5.41443e-07
-5.87648e-07
8.63028e-07
-6.81945e-07
1.20112e-06
-7.28567e-07
1.53517e-06
-7.33239e-07
1.85208e-06
-7.06339e-07
2.14459e-06
-6.58627e-07
2.4093e-06
-5.98902e-07
2.6449e-06
-5.33322e-07
2.8511e-06
-4.65611e-07
3.02802e-06
-3.97697e-07
3.17585e-06
-3.30341e-07
3.29478e-06
-2.63684e-07
3.38499e-06
-1.97596e-07
3.44692e-06
-1.31959e-07
3.48116e-06
-6.66771e-08
3.4889e-06
-2.44e-09
3.46904e-06
6.58619e-08
3.42361e-06
1.33133e-07
3.35326e-06
2.0145e-07
3.2574e-06
2.7101e-07
3.13678e-06
3.41368e-07
2.99066e-06
4.12647e-07
2.82014e-06
4.80517e-07
2.62595e-06
5.45513e-07
2.40169e-06
5.92861e-07
2.17215e-06
6.21242e-07
1.93297e-06
6.17241e-07
1.63621e-06
5.70339e-07
1.31152e-06
5.01653e-07
1.01908e-06
4.11642e-07
7.85627e-07
3.02112e-07
6.19621e-07
1.81782e-07
5.2867e-07
6.2048e-08
5.12662e-07
-5.01635e-08
5.49036e-07
-1.37536e-07
6.23331e-07
-2.05435e-07
7.58939e-07
-2.86698e-07
9.41083e-07
-3.33909e-07
1.11414e-06
-3.05777e-07
1.34316e-06
-3.21725e-07
1.57001e-06
-2.66859e-07
1.57445e-06
-9.35111e-08
1.29267e-06
1.07772e-07
7.16924e-07
4.31418e-07
-7.97618e-08
7.60199e-07
-8.85028e-07
9.1735e-07
-1.55032e-06
1.01888e-06
-2.06994e-06
1.07136e-06
-2.52649e-06
1.0505e-06
-2.9472e-06
9.93606e-07
-3.32936e-06
9.20614e-07
-3.67376e-06
8.43177e-07
-3.98327e-06
7.67662e-07
-4.26152e-06
6.9716e-07
-4.51213e-06
6.32862e-07
-4.73839e-06
5.74822e-07
-4.94305e-06
5.22516e-07
-5.12838e-06
4.75133e-07
-5.29615e-06
4.3176e-07
-5.44766e-06
3.91483e-07
-5.58379e-06
3.53414e-07
-5.70501e-06
3.16694e-07
-5.81139e-06
2.80482e-07
-5.90276e-06
2.44069e-07
-5.97864e-06
2.06707e-07
-6.03825e-06
1.67771e-07
-6.0806e-06
1.26852e-07
-6.10468e-06
8.38762e-08
-6.10964e-06
3.91669e-08
-6.09433e-06
-7.29042e-09
-6.05737e-06
-5.37959e-08
-5.99829e-06
-1.001e-07
-5.91758e-06
-1.45054e-07
-5.81634e-06
-1.87569e-07
-5.6961e-06
-2.26882e-07
-5.55863e-06
-2.62634e-07
-5.40568e-06
-2.94896e-07
-5.2387e-06
-3.24125e-07
-5.05885e-06
-3.50982e-07
-4.86687e-06
-3.76139e-07
-4.66328e-06
-4.00026e-07
-4.44861e-06
-4.22696e-07
-4.22354e-06
-4.43831e-07
-3.9891e-06
-4.62876e-07
-3.74662e-06
-4.79207e-07
-3.49775e-06
-4.9227e-07
-3.2443e-06
-5.01717e-07
-2.98814e-06
-5.07485e-07
-2.73098e-06
-5.09805e-07
-2.4743e-06
-5.09181e-07
-2.2192e-06
-5.06297e-07
-1.96642e-06
-5.01785e-07
-1.71652e-06
-4.96048e-07
-1.46995e-06
-4.89275e-07
-1.22729e-06
-4.81268e-07
-9.89411e-07
-4.71489e-07
-7.57564e-07
-4.59277e-07
-5.33323e-07
-4.43985e-07
-3.18495e-07
-4.25179e-07
-1.15113e-07
-4.02609e-07
7.61304e-08
-3.77975e-07
2.5378e-07
-3.51582e-07
4.17657e-07
-3.23884e-07
5.68025e-07
-2.9651e-07
7.05776e-07
-2.70509e-07
8.32156e-07
-2.46675e-07
9.48608e-07
-2.25474e-07
1.05659e-06
-2.06971e-07
1.15739e-06
-1.90831e-07
1.25193e-06
-1.76371e-07
1.34073e-06
-1.62742e-07
1.42384e-06
-1.49117e-07
1.50095e-06
-1.34854e-07
1.57159e-06
-1.19654e-07
1.63517e-06
-1.03558e-07
1.6913e-06
-8.68638e-08
1.73986e-06
-7.01085e-08
1.78081e-06
-5.38995e-08
1.81463e-06
-3.86968e-08
1.84229e-06
-2.48469e-08
1.86453e-06
-1.26764e-08
1.88183e-06
-2.2995e-09
1.89469e-06
6.42985e-09
1.90378e-06
1.35222e-08
1.90974e-06
1.9075e-08
1.91317e-06
2.32362e-08
1.91455e-06
2.6183e-08
1.91432e-06
2.80437e-08
1.9128e-06
2.89712e-08
1.91029e-06
2.91501e-08
1.907e-06
2.87739e-08
1.90313e-06
2.80083e-08
1.89881e-06
2.69826e-08
1.89417e-06
2.57855e-08
1.88932e-06
2.44649e-08
1.88437e-06
2.30404e-08
1.87945e-06
2.15187e-08
1.87469e-06
1.9905e-08
1.87025e-06
1.82106e-08
1.86627e-06
1.6456e-08
1.86288e-06
1.46695e-08
1.86017e-06
1.28846e-08
1.85822e-06
1.11351e-08
1.85705e-06
9.45396e-09
1.85667e-06
7.87328e-09
1.85703e-06
6.42042e-09
1.85807e-06
5.12043e-09
1.85969e-06
4.00441e-09
1.86177e-06
3.08926e-09
1.86421e-06
2.37613e-09
1.86687e-06
1.86284e-09
1.86965e-06
1.53403e-09
1.87246e-06
1.37392e-09
1.87519e-06
1.36838e-09
1.87777e-06
1.54354e-09
1.8801e-06
1.89342e-09
1.88205e-06
2.4829e-09
1.88354e-06
3.2611e-09
1.88442e-06
4.37316e-09
1.88462e-06
5.63126e-09
1.88387e-06
7.49467e-09
1.8822e-06
9.37894e-09
1.87903e-06
1.2552e-08
1.87464e-06
1.52244e-08
1.86765e-06
2.09886e-08
1.85912e-06
2.44943e-08
1.84575e-06
3.58151e-08
1.83054e-06
3.94082e-08
1.80625e-06
6.33074e-08
1.77906e-06
6.3348e-08
1.73728e-06
1.16509e-07
1.05077e-07
1.68365e-06
1.9086e-07
1.92425e-07
3.18065e-07
2.82957e-07
4.41081e-07
1.92101e-07
5.6412e-07
4.51784e-08
7.05215e-07
-1.2132e-07
8.79682e-07
-3.02805e-07
1.09309e-06
-5.01711e-07
1.3351e-06
-6.91692e-07
1.58617e-06
-8.38717e-07
1.83045e-06
-9.26224e-07
2.05723e-06
-9.55345e-07
2.26116e-06
-9.37172e-07
2.44484e-06
-8.90018e-07
2.61143e-06
-8.2522e-07
2.76368e-06
-7.51148e-07
2.90313e-06
-6.72772e-07
3.03003e-06
-5.92513e-07
3.1436e-06
-5.11268e-07
3.24243e-06
-4.29166e-07
3.32482e-06
-3.46077e-07
3.38911e-06
-2.61889e-07
3.43377e-06
-1.76613e-07
3.45765e-06
-9.05619e-08
3.45991e-06
-4.693e-09
3.44098e-06
8.47912e-08
3.40087e-06
1.73245e-07
3.3411e-06
2.61215e-07
3.26349e-06
3.48615e-07
3.17013e-06
4.34729e-07
3.06435e-06
5.18432e-07
2.9483e-06
5.96566e-07
2.82663e-06
6.67181e-07
2.69544e-06
7.24051e-07
2.55643e-06
7.60254e-07
2.40321e-06
7.70464e-07
2.22728e-06
7.46264e-07
2.04795e-06
6.80982e-07
1.86593e-06
5.93659e-07
1.68994e-06
4.7811e-07
1.52948e-06
3.42233e-07
1.38172e-06
2.09813e-07
1.28972e-06
4.18313e-08
1.26889e-06
-1.16703e-07
1.29966e-06
-2.36203e-07
1.38127e-06
-3.68313e-07
1.54552e-06
-4.9815e-07
1.68134e-06
-4.41604e-07
1.54356e-06
-1.83945e-07
1.13579e-06
1.40914e-07
4.30223e-07
6.12055e-07
-4.5564e-07
9.93635e-07
-1.2245e-06
1.20028e-06
-1.80457e-06
1.34026e-06
-2.28853e-06
1.40131e-06
-2.67958e-06
1.40993e-06
-2.98159e-06
1.37337e-06
-3.23452e-06
1.30344e-06
-3.45991e-06
1.219e-06
-3.66869e-06
1.12939e-06
-3.8659e-06
1.04039e-06
-4.05393e-06
9.55693e-07
-4.23379e-06
8.77019e-07
-4.40584e-06
8.0491e-07
-4.57013e-06
7.3911e-07
-4.72655e-06
6.78936e-07
-4.87492e-06
6.23501e-07
-5.01499e-06
5.7183e-07
-5.14642e-06
5.2292e-07
-5.26876e-06
4.7575e-07
-5.38134e-06
4.29279e-07
-5.48332e-06
3.82453e-07
-5.57349e-06
3.34242e-07
-5.65044e-06
2.83662e-07
-5.71253e-06
2.29861e-07
-5.75792e-06
1.7224e-07
-5.78466e-06
1.10617e-07
-5.7908e-06
4.53032e-08
-5.77547e-06
-2.26154e-08
-5.73774e-06
-9.1528e-08
-5.67778e-06
-1.60064e-07
-5.59649e-06
-2.26342e-07
-5.49535e-06
-2.88707e-07
-5.37626e-06
-3.45975e-07
-5.24124e-06
-3.97649e-07
-5.0922e-06
-4.43945e-07
-4.93059e-06
-4.85731e-07
-4.75736e-06
-5.24215e-07
-4.5729e-06
-5.60592e-07
-4.3773e-06
-5.95625e-07
-4.17062e-06
-6.29377e-07
-3.95324e-06
-6.61218e-07
-3.72601e-06
-6.90106e-07
-3.4903e-06
-7.14916e-07
-3.24788e-06
-7.34688e-07
-3.00077e-06
-7.4883e-07
-2.751e-06
-7.57252e-07
-2.50044e-06
-7.60366e-07
-2.25058e-06
-7.59044e-07
-2.0024e-06
-7.54472e-07
-1.75641e-06
-7.4778e-07
-1.51282e-06
-7.39638e-07
-1.27178e-06
-7.30313e-07
-1.03372e-06
-7.19327e-07
-7.99613e-07
-7.05596e-07
-5.70931e-07
-6.87959e-07
-3.49634e-07
-6.65282e-07
-1.38064e-07
-6.36748e-07
6.22533e-08
-6.02927e-07
2.48987e-07
-5.64709e-07
4.19846e-07
-5.22441e-07
5.74103e-07
-4.78141e-07
7.11871e-07
-4.34279e-07
8.34598e-07
-3.93235e-07
9.44692e-07
-3.5677e-07
1.04489e-06
-3.25667e-07
1.13765e-06
-2.99739e-07
1.22492e-06
-2.78099e-07
1.30796e-06
-2.5941e-07
1.3874e-06
-2.42178e-07
1.46331e-06
-2.25029e-07
1.53537e-06
-2.06915e-07
1.60298e-06
-1.87262e-07
1.6654e-06
-1.65987e-07
1.72198e-06
-1.43442e-07
1.77222e-06
-1.2035e-07
1.81592e-06
-9.75951e-08
1.85325e-06
-7.60221e-08
1.88473e-06
-5.6331e-08
1.91102e-06
-3.89667e-08
1.93283e-06
-2.41068e-08
1.95091e-06
-1.16552e-08
1.96581e-06
-1.37501e-09
1.97807e-06
6.8186e-09
1.98804e-06
1.32649e-08
1.99613e-06
1.80869e-08
2.00274e-06
2.14392e-08
2.0082e-06
2.3506e-08
2.01285e-06
2.4507e-08
2.01691e-06
2.47082e-08
2.02056e-06
2.43572e-08
2.02388e-06
2.36674e-08
2.02687e-06
2.27937e-08
2.02951e-06
2.18221e-08
2.03177e-06
2.07825e-08
2.03362e-06
1.96665e-08
2.03509e-06
1.84413e-08
2.03623e-06
1.70663e-08
2.03718e-06
1.55073e-08
2.0381e-06
1.37476e-08
2.03919e-06
1.1792e-08
2.04066e-06
9.66903e-09
2.04268e-06
7.43027e-09
2.04541e-06
5.14946e-09
2.04892e-06
2.90777e-09
2.05327e-06
7.65659e-10
2.05844e-06
-1.15993e-09
2.06437e-06
-2.84076e-09
2.07097e-06
-4.22803e-09
2.07813e-06
-5.29142e-09
2.0857e-06
-6.03418e-09
2.09354e-06
-6.46748e-09
2.10153e-06
-6.62419e-09
2.10956e-06
-6.48498e-09
2.11754e-06
-6.08343e-09
2.12536e-06
-5.34387e-09
2.13299e-06
-4.36785e-09
2.14032e-06
-2.95332e-09
2.14731e-06
-1.36451e-09
2.15382e-06
9.88539e-10
2.15982e-06
3.37981e-09
2.16506e-06
7.31042e-09
2.16954e-06
1.07438e-08
2.17289e-06
1.7643e-08
2.17495e-06
2.24291e-08
2.17548e-06
3.52865e-08
2.17343e-06
4.14578e-08
2.17015e-06
6.65905e-08
2.16029e-06
7.3205e-08
2.15362e-06
1.23181e-07
1.31757e-07
2.12694e-06
1.75821e-07
1.66039e-08
3.3512e-07
1.23658e-07
5.08541e-07
1.868e-08
7.2836e-07
-1.74641e-07
9.97367e-07
-3.90327e-07
1.30242e-06
-6.07862e-07
1.60237e-06
-8.01655e-07
1.86172e-06
-9.51043e-07
2.06563e-06
-1.04263e-06
2.21736e-06
-1.07795e-06
2.33087e-06
-1.06885e-06
2.42345e-06
-1.02976e-06
2.50653e-06
-9.73093e-07
2.58813e-06
-9.0682e-07
2.67198e-06
-8.34998e-07
2.75834e-06
-7.59138e-07
2.84528e-06
-6.79447e-07
2.92957e-06
-5.95564e-07
3.00759e-06
-5.07188e-07
3.07581e-06
-4.1429e-07
3.13131e-06
-3.17397e-07
3.17217e-06
-2.17471e-07
3.19748e-06
-1.15871e-07
3.20729e-06
-1.45014e-08
3.20144e-06
9.06417e-08
3.1803e-06
1.94386e-07
3.14458e-06
2.96929e-07
3.09446e-06
3.98739e-07
3.03031e-06
4.98882e-07
2.95242e-06
5.96317e-07
2.86182e-06
6.87169e-07
2.76133e-06
7.67668e-07
2.65203e-06
8.33352e-07
2.53846e-06
8.73829e-07
2.41973e-06
8.89188e-07
2.30139e-06
8.64607e-07
2.17781e-06
8.04561e-07
2.04932e-06
7.22154e-07
1.92547e-06
6.01955e-07
1.79238e-06
4.75325e-07
1.69628e-06
3.05914e-07
1.59072e-06
1.47387e-07
1.46048e-06
1.35433e-08
1.49695e-06
-2.72682e-07
1.6161e-06
-4.87463e-07
1.48179e-06
-3.63832e-07
1.02111e-06
1.90725e-08
2.54417e-07
5.82748e-07
-6.10858e-07
1.00619e-06
-1.30473e-06
1.30593e-06
-1.82924e-06
1.51814e-06
-2.25471e-06
1.62575e-06
-2.57197e-06
1.65753e-06
-2.81441e-06
1.64375e-06
-3.00285e-06
1.59837e-06
-3.15852e-06
1.52904e-06
-3.30006e-06
1.44498e-06
-3.43661e-06
1.35555e-06
-3.57341e-06
1.26619e-06
-3.71228e-06
1.17927e-06
-3.85311e-06
1.09652e-06
-3.99485e-06
1.01876e-06
-4.13616e-06
9.46216e-07
-4.27572e-06
8.78667e-07
-4.41235e-06
8.15567e-07
-4.54504e-06
7.56187e-07
-4.6729e-06
6.99691e-07
-4.79513e-06
6.45149e-07
-4.91091e-06
5.91536e-07
-5.01933e-06
5.377e-07
-5.11924e-06
4.82363e-07
-5.20915e-06
4.24144e-07
-5.28715e-06
3.61669e-07
-5.35107e-06
2.93779e-07
-5.39856e-06
2.19732e-07
-5.42726e-06
1.3931e-07
-5.43486e-06
5.29069e-08
-5.42021e-06
-3.72622e-08
-5.38311e-06
-1.28633e-07
-5.32367e-06
-2.19498e-07
-5.24322e-06
-3.068e-07
-5.14381e-06
-3.88107e-07
-5.02795e-06
-4.61836e-07
-4.89811e-06
-5.2749e-07
-4.75638e-06
-5.85678e-07
-4.60416e-06
-6.37949e-07
-4.44202e-06
-6.86358e-07
-4.26975e-06
-7.3286e-07
-4.0867e-06
-7.78672e-07
-3.89223e-06
-8.23846e-07
-3.6862e-06
-8.67249e-07
-3.46924e-06
-9.07067e-07
-3.24273e-06
-9.41427e-07
-3.00866e-06
-9.68761e-07
-2.76942e-06
-9.88072e-07
-2.52748e-06
-9.99187e-07
-2.28511e-06
-1.00273e-06
-2.04407e-06
-1.00008e-06
-1.80537e-06
-9.93174e-07
-1.56908e-06
-9.8407e-07
-1.33465e-06
-9.74064e-07
-1.10132e-06
-9.63647e-07
-8.68643e-07
-9.52002e-07
-6.37062e-07
-9.37178e-07
-4.08309e-07
-9.16712e-07
-1.85297e-07
-8.88293e-07
2.92731e-08
-8.51319e-07
2.32973e-07
-8.06627e-07
4.23382e-07
-7.55118e-07
5.99428e-07
-6.98486e-07
7.5927e-07
-6.37983e-07
9.00428e-07
-5.75437e-07
1.02136e-06
-5.14169e-07
1.1231e-06
-4.58503e-07
1.20933e-06
-4.11904e-07
1.28504e-06
-3.75444e-07
1.35469e-06
-3.47755e-07
1.42132e-06
-3.26033e-07
1.4863e-06
-3.07166e-07
1.5498e-06
-2.88528e-07
1.61126e-06
-2.68376e-07
1.66991e-06
-2.45902e-07
1.72497e-06
-2.21055e-07
1.7758e-06
-1.94268e-07
1.82176e-06
-1.66313e-07
1.86237e-06
-1.38201e-07
1.89741e-06
-1.11059e-07
1.92701e-06
-8.59389e-08
1.95167e-06
-6.36203e-08
1.97208e-06
-4.45152e-08
1.98905e-06
-2.8631e-08
2.00335e-06
-1.5678e-08
2.01541e-06
-5.23432e-09
2.02548e-06