/*--------------------------------*- C++ -*----------------------------------*\
  =========                 |
  \\      /  F ield         | OpenFOAM: The Open Source CFD Toolbox
   \\    /   O peration     | Website:  https://openfoam.org
    \\  /    A nd           | Version:  7
     \\/     M anipulation  |
\*---------------------------------------------------------------------------*/
FoamFile
{
    version     2.0;
    format      ascii;
    class       volScalarField;
    location    "0.069";
    object      s;
}
// * * * * * * * * * * * * * * * * * * * * * * * * * * * * * * * * * * * * * //

dimensions      [0 0 0 0 0 0 0];

internalField   nonuniform List<scalar> 
12225
(
1
1
1
1
1
1
1
1
1
1
1
1
1
1
1
1
1
1
1
1
1
1
1
1
1
1
1
1
1
1
1
1
1
1
1
1
1
1
1
1
1
1
1
1
1
1
1
1
1
1
1
1
1
1
1
1
1
1
1
1
1
1
1
1
1
1
1
1
1
1
1
1
1
1
1
1
1
1
1
1
1
1
1
1
1
1
1
1
1
1
1
1
1
1
1
1
1
1
1
1
1
1
1
1
1
1
1
1
1
1
1
1
1
1
1
1
1
1
1
1
1
1
1
1
1
1
1
1
1
1
1
1
1
1
1
1
1
1
1
1
1
1
1
1
1
1
1
1
1
1
1
1
1
1
1
1
1
1
1
1
1
1
1
1
1
1
1
1
1
1
1
1
1
1
1
1
1
1
1
1
1
1
1
1
1
1
1
1
1
1
1
1
1
1
1
1
1
1
1
1
1
1
1
1
1
1
1
1
1
1
1
1
1
1
1
1
1
1
1
1
1
1
1
1
1
1
1
1
1
1
1
1
1
1
1
1
1
1
1
1
1
1
1
1
1
1
1
1
1
1
1
1
1
1
1
1
1
1
1
1
1
1
1
1
1
1
1
1
1
1
1
1
1
1
1
1
1
1
1
1
1
1
1
1
1
1
1
1
1
1
1
1
1
1
1
1
1
1
1
1
1
1
1
1
1
1
1
1
1
1
1
1
1
1
1
1
1
1
1
1
1
1
1
1
1
1
1
1
1
1
1
1
1
1
1
1
1
1
1
1
1
1
1
1
1
1
1
1
1
1
1
1
1
1
1
1
1
1
1
1
1
1
1
1
1
1
1
1
1
1
1
1
1
1
1
1
1
1
1
1
1
1
1
1
1
1
1
1
1
1
1
1
1
1
1
1
1
1
1
1
1
1
1
1
1
1
1
1
1
1
1
1
1
1
1
1
1
1
1
1
1
1
1
1
1
1
1
1
1
1
1
1
1
1
1
1
1
1
1
1
1
1
1
1
1
1
1
1
1
1
1
1
1
1
1
1
1
1
1
1
1
1
1
1
1
1
1
1
1
1
1
1
1
1
1
1
1
1
1
1
1
1
1
1
1
1
1
1
1
1
1
1
1
1
1
1
1
1
1
1
1
1
1
1
1
1
1
1
1
1
1
1
1
1
1
1
1
1
1
1
1
1
1
1
1
1
1
1
1
1
1
1
1
1
1
1
1
1
1
1
0.0133673
0.0397533
0.0664063
0.0938729
0.118629
0.141585
0.166328
0.197061
0.241581
0.28301
0.316302
0.355949
0.400176
0.435677
0.458049
0.475777
0.483252
0.483198
0.481235
0.476299
0.466675
0.451943
0.434232
0.40914
0.381849
0.351274
0.317073
0.27982
0.238908
0.194278
0.152574
0.124953
0.11526
0.11367
0.102049
0.034319
0.00639138
0.00729557
0.00988251
0.0127433
0.0142943
0.0160184
0.0198909
0.0240971
0.0273557
0.029318
0.0309903
0.0340397
0.041003
0.0595823
0.0837742
0.103806
0.127105
0.24018
0.611398
0.790157
0.813236
0.815211
0.816397
0.817951
0.819868
0.821465
0.823143
0.824686
0.826181
0.827816
0.829547
0.831284
0.832611
0.83396
0.835059
0.836228
0.837596
0.838913
0.839999
0.841187
0.842406
0.843073
0.844154
0.845047
0.845853
0.846625
0.847339
0.847999
0.848663
0.849178
0.849613
0.850079
0.850504
0.850956
0.851245
0.851479
0.851679
0.851826
0.851875
0.851849
0.851566
0.851263
0.850713
0.850218
0.849352
0.848269
0.846936
0.845113
0.842876
0.839964
0.836167
0.831372
0.825297
0.817633
0.808045
0.796306
0.782191
0.765531
0.746094
0.723538
0.697189
0.666149
0.629642
0.586193
0.535045
0.476282
0.409338
0.336445
0.262947
0.190946
0.125135
0.076553
0.0450197
0.025358
0.0136102
0.00692983
0.00333716
0.00151747
0.000651803
0.00026561
0.000102481
3.52642e-05
1.04871e-05
5.08745e-06
2.50828e-06
1.21416e-06
5.71922e-07
2.62496e-07
1.17678e-07
5.16351e-08
2.22185e-08
9.39464e-09
3.91167e-09
1.60735e-09
6.53257e-10
2.63173e-10
1.05319e-10
4.19507e-11
1.66611e-11
6.60733e-12
2.61942e-12
1.03903e-12
4.1267e-13
1.64183e-13
6.54187e-14
2.6068e-14
1.03585e-14
4.088e-15
1.59518e-15
6.12859e-16
2.31023e-16
8.52235e-17
3.07092e-17
1.07948e-17
3.698e-18
1.23344e-18
4.00153e-19
1.26074e-19
3.85055e-20
1.13601e-20
3.23171e-21
8.59318e-22
2.22188e-22
-1.76527e-22
0.0101023
0.0303971
0.044225
0.0505929
0.0506015
0.0492245
0.0700555
0.119712
0.230394
0.358408
0.471794
0.553843
0.615879
0.654975
0.678746
0.691716
0.699121
0.703954
0.707105
0.708506
0.708966
0.709054
0.708869
0.707662
0.702868
0.689213
0.671601
0.639374
0.582621
0.533678
0.439474
0.308564
0.214867
0.163153
0.141656
0.105421
0.0629404
0.0367751
0.0233216
0.0165867
0.0139843
0.0148327
0.018224
0.0262949
0.0438305
0.0600708
0.0685542
0.0799669
0.0961942
0.100921
0.112626
0.257387
0.63074
0.742054
0.79808
0.819688
0.824499
0.827063
0.829544
0.832071
0.834338
0.836163
0.837933
0.839537
0.841243
0.843166
0.844886
0.846184
0.847197
0.848387
0.849474
0.850685
0.851725
0.8527
0.853524
0.854414
0.855098
0.85547
0.855935
0.856472
0.857111
0.857627
0.858259
0.85902
0.859846
0.860569
0.861232
0.862046
0.862989
0.863898
0.864773
0.865646
0.866525
0.867624
0.868736
0.8698
0.870919
0.872127
0.873229
0.874629
0.876129
0.877982
0.880418
0.883362
0.887048
0.891566
0.897132
0.903796
0.91171
0.920936
0.931081
0.941694
0.951783
0.959889
0.965821
0.97064
0.974436
0.977361
0.979517
0.980961
0.981722
0.981774
0.980046
0.974368
0.962418
0.944951
0.919014
0.874303
0.805704
0.712839
0.602226
0.48393
0.370903
0.273771
0.195665
0.135763
0.0916237
0.0602061
0.0385372
0.0240345
0.0146092
0.00865884
0.00500794
0.00282919
0.00156317
0.000845858
0.000448934
0.000234049
0.000120027
6.06224e-05
3.01862e-05
1.48293e-05
7.19068e-06
3.44213e-06
1.62653e-06
7.58544e-07
3.49068e-07
1.58528e-07
7.1097e-08
3.15221e-08
1.38272e-08
5.99811e-09
2.56785e-09
1.08142e-09
4.46408e-10
1.80065e-10
7.08036e-11
2.7103e-11
1.00899e-11
3.6529e-12
1.28525e-12
4.39751e-13
1.4608e-13
4.71821e-14
1.47482e-14
4.4766e-15
1.31261e-15
3.4406e-16
9.63397e-17
-3.67101e-16
0.00504677
0.0120663
0.0187614
0.0177806
0.0141431
0.0197865
0.046875
0.11219
0.259111
0.431686
0.555068
0.636912
0.677549
0.690339
0.700155
0.703693
0.703724
0.703011
0.701329
0.700015
0.700075
0.700797
0.70253
0.706236
0.709919
0.711163
0.710914
0.709158
0.703892
0.692054
0.667509
0.625469
0.528155
0.385032
0.265003
0.204613
0.160232
0.117485
0.0860806
0.0632712
0.0494203
0.0493865
0.0532801
0.0634436
0.0772508
0.101067
0.137766
0.152741
0.17469
0.353839
0.601469
0.732899
0.79425
0.81579
0.824429
0.827127
0.828142
0.829311
0.830401
0.831632
0.832267
0.832528
0.832623
0.832653
0.832828
0.833797
0.834827
0.835233
0.835889
0.837011
0.837789
0.838498
0.839436
0.839786
0.840287
0.841257
0.841713
0.842139
0.843358
0.844655
0.845447
0.846546
0.847794
0.848664
0.849695
0.850881
0.851891
0.853011
0.854371
0.85592
0.857713
0.859549
0.861288
0.863339
0.865793
0.867215
0.868815
0.869849
0.870245
0.869804
0.868405
0.866841
0.86558
0.864365
0.863233
0.862524
0.862285
0.862628
0.86358
0.865242
0.868277
0.873294
0.881459
0.894174
0.910804
0.928208
0.943538
0.95548
0.965375
0.973576
0.980325
0.985826
0.990186
0.993406
0.995534
0.996726
0.997251
0.99739
0.997275
0.996411
0.993336
0.985422
0.966876
0.91971
0.815807
0.686626
0.548877
0.418667
0.307655
0.218838
0.150968
0.101226
0.0661073
0.0421328
0.0262585
0.0160356
0.00961548
0.00567339
0.00330057
0.00189693
0.00107903
0.00060866
0.000341241
0.000190693
0.000106527
5.95092e-05
3.30515e-05
1.81446e-05
9.80297e-06
5.19648e-06
2.69725e-06
1.36914e-06
6.78962e-07
3.28726e-07
1.55247e-07
7.14932e-08
3.20648e-08
1.39975e-08
5.94488e-09
2.4679e-09
1.00048e-09
3.96453e-10
1.53177e-10
5.78421e-11
2.12154e-11
7.60548e-12
2.62641e-12
8.86181e-13
2.88389e-13
7.42862e-14
0.00155531
0.00393665
0.00452795
0.00907357
0.0330347
0.0977224
0.243268
0.464944
0.611595
0.67515
0.693734
0.69954
0.696784
0.688863
0.67655
0.654447
0.634807
0.61439
0.597016
0.587252
0.578032
0.578177
0.580764
0.58702
0.600739
0.620753
0.641676
0.66655
0.683667
0.685264
0.683041
0.675579
0.655039
0.606112
0.500189
0.401031
0.348064
0.304852
0.254459
0.212314
0.174142
0.150605
0.151629
0.163876
0.195633
0.223095
0.252029
0.44168
0.608715
0.715909
0.778794
0.809319
0.820572
0.824019
0.82521
0.825645
0.824749
0.823684
0.821901
0.82069
0.819925
0.819732
0.820349
0.821358
0.823674
0.824994
0.826461
0.828855
0.829857
0.830582
0.831814
0.832546
0.832806
0.832864
0.832863
0.832893
0.832999
0.833292
0.834314
0.835885
0.837524
0.838899
0.839743
0.840272
0.840783
0.84106
0.841199
0.841598
0.842757
0.844581
0.847218
0.850893
0.855331
0.860035
0.865318
0.869518
0.87469
0.880023
0.884395
0.889543
0.893465
0.895569
0.894194
0.890203
0.884124
0.877608
0.872077
0.86752
0.864579
0.863077
0.862489
0.86229
0.862359
0.862935
0.864942
0.871448
0.885951
0.905839
0.925213
0.940747
0.953168
0.963318
0.972103
0.979861
0.986556
0.991902
0.995528
0.997646
0.99879
0.99936
0.99962
0.999709
0.999675
0.999349
0.998146
0.994936
0.987037
0.96608
0.902463
0.745422
0.577221
0.428816
0.307555
0.213706
0.144233
0.0948723
0.0610365
0.0385417
0.0239655
0.0147187
0.00895307
0.00540712
0.00324882
0.00194351
0.00115438
0.000678228
0.00039302
0.000224054
0.000125384
6.87633e-05
3.69132e-05
1.93823e-05
9.94939e-06
4.9918e-06
2.44707e-06
1.17214e-06
5.48321e-07
2.50558e-07
1.11685e-07
4.85771e-08
2.05379e-08
8.48172e-09
3.41771e-09
1.34647e-09
5.1589e-10
1.93181e-10
6.98998e-11
2.46983e-11
8.40168e-12
2.57174e-12
0.000172874
0.000711447
0.0237585
0.0991567
0.267078
0.518982
0.6502
0.702551
0.713074
0.708873
0.696409
0.668833
0.622041
0.574412
0.53436
0.494303
0.46158
0.43262
0.411341
0.397391
0.386686
0.387053
0.390594
0.399267
0.412969
0.439992
0.467748
0.506613
0.568748
0.62394
0.657076
0.664408
0.661289
0.65014
0.61456
0.549091
0.492335
0.457224
0.436972
0.38917
0.352595
0.319823
0.292493
0.294921
0.31034
0.432306
0.627017
0.709606
0.765081
0.799024
0.814317
0.820129
0.821785
0.822223
0.819473
0.814193
0.810099
0.808051
0.807308
0.807388
0.809379
0.810895
0.81231
0.814533
0.816686
0.817696
0.818459
0.818804
0.818834
0.818526
0.817744
0.816128
0.813532
0.810925
0.808737
0.807757
0.80744
0.807772
0.810497
0.814685
0.817158
0.817593
0.817243
0.815988
0.813459
0.809068
0.802417
0.798419
0.797196
0.796966
0.799256
0.805606
0.815295
0.825432
0.835539
0.845495
0.857727
0.869358
0.880684
0.890205
0.898709
0.906936
0.915023
0.920996
0.923976
0.921198
0.91211
0.899479
0.887611
0.878503
0.872842
0.869478
0.866698
0.863893
0.861296
0.860099
0.860577
0.865071
0.881666
0.909063
0.934038
0.951049
0.962464
0.970635
0.977159
0.982864
0.98813
0.992616
0.99584
0.997831
0.998941
0.999508
0.999777
0.99989
0.999913
0.9999
0.999802
0.999388
0.997932
0.993519
0.980804
0.941028
0.811751
0.618792
0.453523
0.322278
0.223089
0.150968
0.100243
0.0655463
0.0423355
0.027071
0.0171567
0.0107667
0.00667763
0.00408407
0.00245721
0.00145104
0.000839415
0.000475038
0.000262748
0.000141972
7.49241e-05
3.86189e-05
1.94415e-05
9.56087e-06
4.59235e-06
2.1549e-06
9.87183e-07
4.41583e-07
1.92589e-07
8.18681e-08
3.38229e-08
1.36468e-08
5.35774e-09
2.0521e-09
7.61437e-10
2.74983e-10
9.60806e-11
3.0815e-11
0.00328908
0.0421227
0.163068
0.438579
0.648271
0.719308
0.732157
0.724851
0.69713
0.639348
0.573206
0.514544
0.473031
0.43763
0.401408
0.368946
0.343107
0.314934
0.296951
0.279704
0.274117
0.276544
0.284209
0.294757
0.316446
0.334059
0.3583
0.391233
0.418334
0.472055
0.565337
0.624598
0.646973
0.645975
0.636974
0.609156
0.571499
0.554925
0.534547
0.512065
0.495158
0.435664
0.345215
0.34474
0.520061
0.68786
0.754376
0.788535
0.807146
0.815752
0.818579
0.819257
0.816982
0.810023
0.801205
0.797075
0.795585
0.795185
0.795428
0.797411
0.799476
0.800328
0.801168
0.801874
0.802106
0.802157
0.80171
0.800103
0.797898
0.795395
0.792306
0.788806
0.784925
0.781201
0.778913
0.778033
0.777872
0.779809
0.786536
0.791207
0.791736
0.790931
0.788742
0.784821
0.777823
0.765933
0.758734
0.758039
0.75931
0.762934
0.770291
0.780397
0.792127
0.803392
0.813227
0.822353
0.832689
0.843031
0.854841
0.870273
0.886955
0.902905
0.915927
0.926497
0.93592
0.943856
0.948367
0.947004
0.936429
0.918805
0.900831
0.889836
0.884768
0.882116
0.877052
0.868433
0.861693
0.859071
0.859736
0.865865
0.887733
0.922726
0.948871
0.964501
0.973803
0.979868
0.984475
0.98845
0.99203
0.995016
0.997167
0.998512
0.999269
0.999662
0.999851
0.999935
0.999962
0.999964
0.999945
0.999843
0.999424
0.997878
0.99263
0.975791
0.919468
0.754046
0.564246
0.410255
0.291391
0.20305
0.139257
0.0941657
0.0628312
0.0413517
0.0268069
0.017083
0.0106781
0.00653391
0.00390755
0.00228149
0.00129972
0.000722293
0.000391581
0.000207145
0.000106947
5.39059e-05
2.65287e-05
1.27498e-05
5.98234e-06
2.7406e-06
1.22465e-06
5.33783e-07
2.26403e-07
9.33965e-08
3.74985e-08
1.46645e-08
5.56361e-09
2.04944e-09
7.32479e-10
2.42533e-10
0.0330047
0.13893
0.459789
0.690668
0.743615
0.741074
0.717514
0.647262
0.545707
0.503122
0.47459
0.44537
0.414056
0.373872
0.323543
0.271432
0.231917
0.194065
0.175383
0.157864
0.150229
0.152013
0.160305
0.181219
0.220081
0.26529
0.30799
0.335295
0.358263
0.385115
0.439588
0.537942
0.602762
0.631268
0.631757
0.623994
0.607702
0.599903
0.592745
0.584555
0.550044
0.42156
0.377585
0.52178
0.708286
0.771222
0.798149
0.810292
0.815076
0.816324
0.816485
0.811899
0.799913
0.791204
0.787466
0.785885
0.785413
0.785404
0.786294
0.787613
0.788003
0.788074
0.787892
0.78697
0.78577
0.784192
0.782096
0.779351
0.77601
0.772227
0.767913
0.76282
0.757285
0.751334
0.745839
0.741491
0.73833
0.736773
0.736303
0.738699
0.739542
0.739347
0.739169
0.739212
0.738886
0.74033
0.745504
0.750974
0.754723
0.760993
0.771845
0.786644
0.803953
0.819063
0.828961
0.834579
0.839093
0.843515
0.84887
0.857318
0.869815
0.885689
0.903887
0.921512
0.935806
0.947115
0.956687
0.963488
0.966113
0.964049
0.953349
0.929935
0.909456
0.900715
0.898492
0.897006
0.890953
0.876292
0.867001
0.864938
0.8678
0.882648
0.917269
0.94852
0.967443
0.977863
0.983753
0.987608
0.990636
0.993239
0.995449
0.997192
0.998414
0.999171
0.999594
0.999813
0.999919
0.999965
0.999981
0.999982
0.999973
0.999919
0.999684
0.998773
0.995499
0.984488
0.947907
0.824814
0.633862
0.472679
0.344949
0.247062
0.173868
0.120213
0.0815675
0.0542211
0.0352444
0.0223645
0.0138365
0.00833997
0.004896
0.00279954
0.00155964
0.000846931
0.000448475
0.000231679
0.000116792
5.74686e-05
2.76007e-05
1.29388e-05
5.91726e-06
2.6392e-06
1.1467e-06
4.84854e-07
1.99109e-07
7.95557e-08
3.08603e-08
1.16087e-08
4.2427e-09
1.44629e-09
0.169815
0.366771
0.697758
0.75785
0.748732
0.689605
0.574074
0.513977
0.487742
0.469054
0.444308
0.403574
0.33428
0.264144
0.217177
0.183348
0.159465
0.141699
0.128666
0.117071
0.106991
0.102547
0.103013
0.107787
0.124727
0.176106
0.239641
0.293729
0.336254
0.357693
0.389249
0.465228
0.561198
0.609501
0.623878
0.626493
0.625187
0.625095
0.62461
0.609718
0.521892
0.412915
0.498743
0.699924
0.775096
0.800827
0.810783
0.814194
0.814925
0.813573
0.806565
0.794387
0.785503
0.781341
0.779388
0.77847
0.77812
0.778058
0.778167
0.778195
0.77774
0.777069
0.775904
0.774931
0.773116
0.771132
0.768276
0.76457
0.759544
0.753323
0.745492
0.735764
0.724148
0.711069
0.698922
0.68818
0.679
0.672093
0.668444
0.667101
0.667837
0.675358
0.684978
0.698375
0.711649
0.727232
0.741671
0.754234
0.767135
0.785092
0.809402
0.836995
0.862026
0.881283
0.894702
0.90333
0.907977
0.906638
0.8982
0.887692
0.881222
0.885807
0.898697
0.914759
0.931218
0.945576
0.957152
0.966572
0.973785
0.977312
0.977374
0.974113
0.961351
0.936435
0.920642
0.916121
0.915475
0.913827
0.903411
0.888154
0.881917
0.882367
0.89264
0.922179
0.952141
0.972065
0.982734
0.988156
0.991136
0.993199
0.994974
0.996502
0.997728
0.998635
0.999242
0.999608
0.999811
0.999914
0.999963
0.999984
0.99999
0.99999
0.999981
0.999934
0.999735
0.998981
0.996308
0.987345
0.958019
0.857987
0.676105
0.515436
0.383723
0.279269
0.198606
0.137853
0.093258
0.0614123
0.0393316
0.0244885
0.0148225
0.00872508
0.00499734
0.00278681
0.00151405
0.000801836
0.00041412
0.000208646
0.000102563
4.91916e-05
2.30143e-05
1.04997e-05
4.66737e-06
2.02022e-06
8.49605e-07
3.47108e-07
1.37725e-07
5.29702e-08
1.98053e-08
6.94483e-09
0.272436
0.629257
0.768862
0.760699
0.678889
0.552622
0.507995
0.488992
0.475482
0.45279
0.399255
0.322177
0.265134
0.225983
0.194223
0.169236
0.151523
0.137765
0.126132
0.11485
0.104988
0.0986842
0.0972508
0.099417
0.121689
0.186463
0.240009
0.279612
0.319661
0.353593
0.376239
0.427251
0.514942
0.581311
0.617481
0.630575
0.638311
0.640662
0.634434
0.593245
0.45945
0.468165
0.674006
0.769647
0.800346
0.810037
0.812978
0.813659
0.811776
0.80352
0.79187
0.781328
0.775952
0.773607
0.772496
0.771941
0.771536
0.771086
0.770357
0.769938
0.769331
0.768095
0.766469
0.764049
0.7608
0.756558
0.750864
0.743132
0.732332
0.718068
0.69971
0.682096
0.663997
0.647824
0.634004
0.623625
0.618042
0.615668
0.615297
0.620829
0.630382
0.641407
0.655203
0.670082
0.688951
0.708996
0.731016
0.753635
0.775829
0.802136
0.82945
0.854994
0.876773
0.894624
0.909216
0.921534
0.932378
0.941145
0.947224
0.950074
0.947425
0.938744
0.930749
0.929213
0.935032
0.946348
0.957166
0.966803
0.975198
0.981439
0.985047
0.985788
0.984686
0.980001
0.964328
0.945258
0.936899
0.935493
0.935412
0.932689
0.920872
0.911347
0.909319
0.913802
0.934566
0.959328
0.977121
0.987141
0.992085
0.994466
0.995752
0.996742
0.997645
0.998415
0.999009
0.999424
0.999688
0.999842
0.999925
0.999967
0.999986
0.999993
0.999995
0.999993
0.999982
0.999929
0.999723
0.998985
0.996478
0.988278
0.961746
0.871686
0.696175
0.535686
0.400307
0.290633
0.204885
0.140156
0.0929987
0.059855
0.0373794
0.0226646
0.0133534
0.00765114
0.00426675
0.00231744
0.00122659
0.000632937
0.000318491
0.000156302
7.48039e-05
3.49033e-05
1.58694e-05
7.02553e-06
3.02562e-06
1.26481e-06
5.13511e-07
2.02066e-07
7.73158e-08
2.78694e-08
0.361687
0.732063
0.779121
0.706561
0.565384
0.516913
0.497652
0.485834
0.469132
0.423675
0.358464
0.300975
0.258869
0.2297
0.208034
0.196451
0.190079
0.181993
0.172886
0.160688
0.150659
0.148837
0.163109
0.191373
0.215027
0.244887
0.267742
0.289591
0.31625
0.344243
0.378204
0.436085
0.521411
0.58582
0.621173
0.641095
0.647268
0.644318
0.622553
0.508664
0.469091
0.634861
0.756157
0.797129
0.809134
0.812077
0.812477
0.810059
0.801352
0.790623
0.781636
0.774469
0.771324
0.76983
0.76891
0.768202
0.767453
0.766491
0.76517
0.763546
0.761517
0.757368
0.752045
0.744688
0.735788
0.723763
0.708315
0.689273
0.66708
0.644406
0.626581
0.611251
0.598532
0.58987
0.581539
0.577084
0.572385
0.569837
0.568624
0.570221
0.575641
0.583522
0.596979
0.613531
0.632898
0.655499
0.683604
0.715929
0.750316
0.783979
0.815279
0.841455
0.862133
0.878653
0.89302
0.906955
0.920875
0.93427
0.946093
0.95569
0.963151
0.968528
0.972424
0.973967
0.972623
0.969465
0.968744
0.970978
0.976526
0.982568
0.98756
0.99056
0.991459
0.99113
0.989399
0.983664
0.96961
0.958652
0.955468
0.955735
0.955917
0.954105
0.946619
0.941524
0.941598
0.950172
0.968505
0.98221
0.990616
0.994872
0.996842
0.997727
0.99822
0.998644
0.999042
0.999377
0.999625
0.99979
0.99989
0.999946
0.999975
0.999989
0.999995
0.999997
0.999997
0.999993
0.999977
0.999911
0.999673
0.998868
0.996229
0.987663
0.959407
0.862896
0.684798
0.521614
0.383927
0.273218
0.188035
0.125213
0.0807377
0.0504588
0.0305981
0.0180224
0.0103207
0.00575112
0.00312057
0.00164962
0.00084988
0.000426823
0.000208964
9.9715e-05
4.63625e-05
2.09893e-05
9.24607e-06
3.95749e-06
1.64403e-06
6.62037e-07
2.59274e-07
9.60178e-08
0.438336
0.771308
0.763973
0.614637
0.537371
0.511089
0.49765
0.489145
0.465055
0.414363
0.358786
0.337993
0.329537
0.3127
0.294635
0.286467
0.276849
0.267878
0.263431
0.257233
0.252964
0.251385
0.253752
0.255869
0.262189
0.274448
0.288
0.304429
0.327508
0.356954
0.399435
0.468144
0.54763
0.607205
0.637947
0.64922
0.647779
0.63158
0.543347
0.492987
0.580193
0.736753
0.790739
0.807487
0.811688
0.812196
0.810704
0.803518
0.793754
0.784953
0.775583
0.770034
0.767687
0.766467
0.765229
0.764113
0.762839
0.761172
0.75892
0.754564
0.74514
0.73216
0.713906
0.695154
0.679875
0.665043
0.647924
0.626779
0.609931
0.595283
0.58552
0.574828
0.56665
0.553733
0.536925
0.518564
0.496629
0.476842
0.463873
0.458357
0.459487
0.471428
0.488431
0.509312
0.530846
0.5527
0.574889
0.601322
0.637222
0.680885
0.72778
0.768472
0.79538
0.812795
0.827067
0.842411
0.85961
0.87845
0.899131
0.920963
0.942045
0.959916
0.972743
0.981066
0.986374
0.989751
0.990941
0.989855
0.986849
0.986104
0.988605
0.99223
0.994409
0.995195
0.995169
0.994615
0.992838
0.987289
0.978006
0.972822
0.972341
0.973613
0.974138
0.973287
0.969082
0.966652
0.968028
0.976856
0.986975
0.99328
0.996665
0.998238
0.998891
0.999158
0.999329
0.999497
0.999657
0.999787
0.999878
0.999934
0.999967
0.999984
0.999993
0.999997
0.999998
0.999998
0.999997
0.999991
0.999965
0.999871
0.999553
0.998499
0.995016
0.983327
0.943018
0.812512
0.626766
0.464997
0.332487
0.229356
0.152836
0.0985221
0.0615242
0.0372682
0.0219242
0.012538
0.00697596
0.00377851
0.00199335
0.00102452
0.000513102
0.000250384
0.000119027
5.50916e-05
2.48132e-05
1.08638e-05
4.61864e-06
1.90339e-06
7.62928e-07
2.90077e-07
0.506498
0.779234
0.716222
0.58232
0.531122
0.515182
0.512449
0.506637
0.481664
0.46007
0.455652
0.449904
0.422358
0.388287
0.373799
0.363065
0.347725
0.334891
0.32832
0.319342
0.310224
0.305608
0.303423
0.302817
0.306018
0.313069
0.326275
0.345484
0.374801
0.417069
0.483638
0.560782
0.61153
0.636773
0.645425
0.646654
0.6278
0.557584
0.517018
0.548124
0.712262
0.781556
0.80443
0.810962
0.812121
0.811943
0.808952
0.800842
0.791357
0.783476
0.77398
0.768042
0.765511
0.764056
0.763184
0.761229
0.757901
0.753602
0.746876
0.735417
0.716538
0.690991
0.667081
0.651469
0.636633
0.61673
0.598493
0.583147
0.573558
0.565905
0.556926
0.544016
0.522938
0.488541
0.442264
0.397134
0.356993
0.330896
0.317744
0.313458
0.324621
0.349499
0.383415
0.421805
0.461346
0.496586
0.524875
0.545299
0.559316
0.573998
0.5946
0.623846
0.656793
0.683017
0.70396
0.724701
0.744947
0.763906
0.785737
0.815836
0.854463
0.896336
0.935299
0.963783
0.981059
0.989986
0.994271
0.996281
0.996838
0.996012
0.994077
0.993892
0.995511
0.99698
0.997541
0.99761
0.997478
0.996971
0.995426
0.990958
0.986278
0.984807
0.985373
0.98661
0.986659
0.985589
0.983093
0.982709
0.984924
0.991122
0.995402
0.99778
0.998946
0.999457
0.999662
0.99975
0.999807
0.99986
0.999907
0.999944
0.999969
0.999984
0.999992
0.999996
0.999998
0.999999
0.999999
0.999998
0.999995
0.999983
0.999937
0.999776
0.999228
0.997363
0.990923
0.968331
0.889459
0.703886
0.524419
0.375399
0.258817
0.172219
0.110809
0.0690562
0.041743
0.0245034
0.013981
0.00775961
0.0041916
0.00220461
0.00112931
0.000563438
0.000273779
0.000129508
5.96148e-05
2.66786e-05
1.16012e-05
4.89104e-06
2.00562e-06
7.82228e-07
0.553522
0.773057
0.693374
0.57092
0.534354
0.52838
0.529262
0.538562
0.544709
0.539637
0.522896
0.521598
0.526309
0.528248
0.520378
0.512474
0.507273
0.494634
0.486057
0.477687
0.469129
0.463563
0.461053
0.460622
0.467206
0.474271
0.484985
0.503061
0.526454
0.565306
0.595536
0.61464
0.629742
0.635601
0.634619
0.60714
0.560072
0.537322
0.551012
0.69106
0.771422
0.800194
0.809314
0.811511
0.811935
0.810779
0.80573
0.797492
0.788927
0.781563
0.772826
0.766675
0.763988
0.762249
0.760655
0.758948
0.755901
0.750278
0.739856
0.717345
0.685987
0.658665
0.639525
0.623174
0.602894
0.582782
0.567945
0.560978
0.554753
0.546785
0.526567
0.491187
0.425581
0.358757
0.29783
0.252886
0.227353
0.215537
0.212059
0.219885
0.233457
0.255955
0.297084
0.353835
0.412628
0.464488
0.504628
0.532322
0.548799
0.557802
0.564394
0.572205
0.581773
0.591408
0.601577
0.614455
0.62836
0.639265
0.648357
0.662481
0.6918
0.746964
0.825292
0.897602
0.947564
0.976112
0.990062
0.995887
0.997997
0.9987
0.998701
0.998076
0.997564
0.997835
0.998579
0.998903
0.998971
0.998943
0.998803
0.998347
0.996821
0.994496
0.993285
0.993227
0.993732
0.993869
0.993557
0.99223
0.991571
0.991959
0.994447
0.997152
0.998627
0.999367
0.999708
0.999852
0.999912
0.999939
0.999956
0.99997
0.999981
0.999988
0.999994
0.999997
0.999998
0.999999
1
0.999999
0.999999
0.999997
0.99999
0.999961
0.999859
0.999498
0.998223
0.993682
0.977457
0.920073
0.752155
0.559096
0.399384
0.274579
0.182132
0.116812
0.0725659
0.0437253
0.0255839
0.0145481
0.00804536
0.00432921
0.00226756
0.0011563
0.000574065
0.000277401
0.00013043
5.96238e-05
2.64895e-05
1.14171e-05
4.78628e-06
1.91284e-06
0.574822
0.768805
0.674964
0.570161
0.545262
0.541023
0.54244
0.554313
0.579499
0.607626
0.625838
0.63774
0.648035
0.6535
0.656493
0.657045
0.650018
0.642633
0.629051
0.614818
0.601206
0.587034
0.574761
0.566547
0.562225
0.561255
0.564214
0.572773
0.582976
0.591298
0.602326
0.607292
0.610371
0.600679
0.58054
0.563241
0.554732
0.568074
0.678822
0.764107
0.796398
0.807181
0.810421
0.8112
0.8107
0.80738
0.799854
0.789977
0.78215
0.775379
0.768724
0.763286
0.760864
0.759515
0.758011
0.75603
0.752578
0.744695
0.726817
0.695393
0.662603
0.634275
0.613145
0.594629
0.574293
0.562636
0.556108
0.548446
0.535439
0.508911
0.461321
0.387542
0.313808
0.252024
0.208248
0.184702
0.17311
0.169011
0.171673
0.182527
0.200976
0.221357
0.250587
0.297756
0.361677
0.429575
0.486154
0.524974
0.547439
0.557865
0.563367
0.567675
0.571882
0.575258
0.578908
0.584932
0.592727
0.599238
0.603382
0.607076
0.613683
0.628342
0.665486
0.757097
0.867159
0.936038
0.972818
0.989798
0.996504
0.998727
0.999359
0.999494
0.9994
0.999231
0.999234
0.999443
0.999591
0.999619
0.99961
0.999562
0.999394
0.998805
0.998024
0.997635
0.997567
0.997584
0.99756
0.997372
0.996719
0.99633
0.996366
0.997106
0.998477
0.999269
0.999668
0.999852
0.999932
0.999965
0.999979
0.999986
0.999991
0.999994
0.999996
0.999998
0.999999
0.999999
1
1
1
0.999999
0.999998
0.999992
0.999971
0.999892
0.999603
0.998545
0.994664
0.98054
0.929868
0.770676
0.570757
0.405877
0.277762
0.183412
0.117116
0.0724411
0.0434606
0.0253154
0.0143285
0.00788535
0.00422141
0.00219906
0.00111488
0.000549997
0.000263963
0.000123164
5.58534e-05
2.45804e-05
1.05245e-05
4.30433e-06
0.598128
0.767035
0.666848
0.57644
0.562228
0.561209
0.566406
0.58329
0.610373
0.641084
0.669645
0.696258
0.723673
0.749727
0.764057
0.77144
0.774114
0.768215
0.754544
0.734685
0.707357
0.675701
0.643773
0.6217
0.598385
0.585888
0.575914
0.571205
0.569549
0.569776
0.571029
0.571958
0.571987
0.571219
0.570204
0.572815
0.597361
0.689422
0.76328
0.794994
0.806569
0.810165
0.81015
0.809638
0.80632
0.798317
0.787499
0.776035
0.766338
0.758807
0.754229
0.75119
0.750837
0.75254
0.752633
0.751254
0.748276
0.740213
0.718215
0.683695
0.648082
0.618957
0.598138
0.582247
0.563987
0.545386
0.532728
0.522164
0.500124
0.458641
0.391028
0.311207
0.244686
0.197952
0.170831
0.157502
0.151963
0.151641
0.155545
0.165647
0.188105
0.214031
0.241474
0.28544
0.348572
0.419378
0.479925
0.52229
0.549679
0.564743
0.570791
0.572531
0.573292
0.574982
0.577182
0.581513
0.587926
0.593678
0.597403
0.599801
0.602816
0.608555
0.620277
0.649115
0.733088
0.859122
0.935327
0.973891
0.99074
0.997075
0.999105
0.999651
0.999786
0.999798
0.999781
0.999785
0.999833
0.999869
0.999873
0.999868
0.999846
0.999761
0.999528
0.999337
0.999254
0.999223
0.999201
0.999158
0.999016
0.998737
0.998606
0.998606
0.998796
0.999322
0.999671
0.99985
0.999934
0.999971
0.999987
0.999993
0.999996
0.999997
0.999998
0.999999
0.999999
1
1
1
1
1
1
0.999998
0.999994
0.999975
0.999904
0.999633
0.998608
0.994754
0.980496
0.928727
0.765781
0.563677
0.398429
0.271079
0.177999
0.113039
0.0695363
0.0414843
0.0240247
0.0135166
0.00739246
0.0039319
0.00203437
0.00102389
0.000501211
0.0002385
0.000110294
4.95018e-05
2.16164e-05
9.03488e-06
0.610101
0.767357
0.66504
0.582947
0.570736
0.572973
0.593645
0.63727
0.699939
0.783605
0.837849
0.861355
0.87808
0.889897
0.895161
0.898242
0.900537
0.90248
0.903427
0.902759
0.896116
0.880354
0.8475
0.798559
0.743941
0.690606
0.656951
0.629992
0.609841
0.596261
0.58836
0.584894
0.588231
0.596327
0.614123
0.658183
0.723575
0.772249
0.7975
0.808223
0.811808
0.810549
0.80853
0.803237
0.789744
0.773973
0.759371
0.746904
0.738027
0.731873
0.727612
0.72538
0.725182
0.729479
0.737366
0.738805
0.737421
0.731154
0.713518
0.680118
0.648373
0.619137
0.59532
0.56883
0.543563
0.525625
0.516767
0.501424
0.468352
0.410596
0.333749
0.258838
0.205856
0.173757
0.156033
0.148034
0.146856
0.147964
0.151953
0.161133
0.183672
0.217958
0.25113
0.294039
0.355446
0.42699
0.488414
0.532868
0.558747
0.570947
0.576293
0.579352
0.581478
0.582415
0.583342
0.585741
0.592763
0.601396
0.607689
0.610392
0.611575
0.613533
0.618944
0.633891
0.670351
0.761161
0.874235
0.943965
0.978171
0.992532
0.99773
0.999359
0.999796
0.999904
0.999932
0.999936
0.999942
0.999955
0.99996
0.99996
0.999957
0.999944
0.999898
0.999836
0.999801
0.999785
0.999777
0.999766
0.999741
0.999667
0.999598
0.999575
0.99958
0.999643
0.999794
0.999895
0.99995
0.999977
0.99999
0.999996
0.999998
0.999999
0.999999
1
1
1
1
1
1
1
1
1
0.999999
0.999994
0.999976
0.999903
0.999618
0.998509
0.994257
0.978322
0.919974
0.744739
0.544087
0.381919
0.258108
0.168373
0.106224
0.0649039
0.0384519
0.0221089
0.012347
0.00670121
0.00353605
0.00181423
0.000905026
0.000438756
0.000206681
9.44833e-05
4.20163e-05
1.79087e-05
0.617445
0.770364
0.666662
0.599159
0.591387
0.607196
0.671261
0.784656
0.852225
0.883039
0.899002
0.906423
0.910438
0.911434
0.910849
0.908795
0.908328
0.911804
0.916594
0.926003
0.936542
0.945944
0.950026
0.950978
0.932178
0.889981
0.825587
0.78082
0.745867
0.719766
0.700806
0.691984
0.690089
0.705149
0.728629
0.759009
0.786387
0.803156
0.811327
0.814333
0.81354
0.809907
0.801844
0.784852
0.767385
0.752555
0.73661
0.722061
0.710859
0.704011
0.699736
0.697532
0.697821
0.699726
0.706481
0.714747
0.715071
0.71291
0.704381
0.680154
0.651353
0.622556
0.59854
0.570271
0.542547
0.51142
0.493539
0.473605
0.436545
0.382474
0.317443
0.256234
0.208148
0.177521
0.159209
0.150286
0.150087
0.152454
0.159987
0.173483
0.201916
0.25419
0.305035
0.3611
0.42836
0.493401
0.541176
0.566807
0.57666
0.579403
0.580349
0.58181
0.585611
0.592182
0.597807
0.602051
0.610394
0.626874
0.645382
0.656368
0.65838
0.65795
0.655769
0.656336
0.669881
0.724844
0.820241
0.906219
0.958786
0.984378
0.994753
0.998429
0.99957
0.99988
0.999955
0.999973
0.999979
0.999983
0.999986
0.999987
0.999986
0.999984
0.999976
0.999959
0.999946
0.999941
0.999939
0.999936
0.999932
0.99992
0.999903
0.999895
0.999894
0.999903
0.999934
0.999962
0.999979
0.999989
0.999995
0.999998
0.999999
0.999999
1
1
1
1
1
1
1
1
1
1
1
0.999998
0.999993
0.999973
0.99989
0.999556
0.998233
0.993106
0.973776
0.902801
0.71092
0.515532
0.35911
0.240874
0.155952
0.0976306
0.0591802
0.0347742
0.0198269
0.0109773
0.00590501
0.00308689
0.00156827
0.000774022
0.000371071
0.000172598
7.8068e-05
3.38791e-05
0.618322
0.778944
0.693182
0.633781
0.630386
0.672267
0.783183
0.857084