/*--------------------------------*- C++ -*----------------------------------*\
  =========                 |
  \\      /  F ield         | OpenFOAM: The Open Source CFD Toolbox
   \\    /   O peration     | Website:  https://openfoam.org
    \\  /    A nd           | Version:  7
     \\/     M anipulation  |
\*---------------------------------------------------------------------------*/
FoamFile
{
    version     2.0;
    format      ascii;
    class       volScalarField;
    location    "0.069";
    object      s_0;
}
// * * * * * * * * * * * * * * * * * * * * * * * * * * * * * * * * * * * * * //

dimensions      [0 0 0 0 0 0 0];

internalField   nonuniform List<scalar> 
12225
(
1
1
1
1
1
1
1
1
1
1
1
1
1
1
1
1
1
1
1
1
1
1
1
1
1
1
1
1
1
1
1
1
1
1
1
1
1
1
1
1
1
1
1
1
1
1
1
1
1
1
1
1
1
1
1
1
1
1
1
1
1
1
1
1
1
1
1
1
1
1
1
1
1
1
1
1
1
1
1
1
1
1
1
1
1
1
1
1
1
1
1
1
1
1
1
1
1
1
1
1
1
1
1
1
1
1
1
1
1
1
1
1
1
1
1
1
1
1
1
1
1
1
1
1
1
1
1
1
1
1
1
1
1
1
1
1
1
1
1
1
1
1
1
1
1
1
1
1
1
1
1
1
1
1
1
1
1
1
1
1
1
1
1
1
1
1
1
1
1
1
1
1
1
1
1
1
1
1
1
1
1
1
1
1
1
1
1
1
1
1
1
1
1
1
1
1
1
1
1
1
1
1
1
1
1
1
1
1
1
1
1
1
1
1
1
1
1
1
1
1
1
1
1
1
1
1
1
1
1
1
1
1
1
1
1
1
1
1
1
1
1
1
1
1
1
1
1
1
1
1
1
1
1
1
1
1
1
1
1
1
1
1
1
1
1
1
1
1
1
1
1
1
1
1
1
1
1
1
1
1
1
1
1
1
1
1
1
1
1
1
1
1
1
1
1
1
1
1
1
1
1
1
1
1
1
1
1
1
1
1
1
1
1
1
1
1
1
1
1
1
1
1
1
1
1
1
1
1
1
1
1
1
1
1
1
1
1
1
1
1
1
1
1
1
1
1
1
1
1
1
1
1
1
1
1
1
1
1
1
1
1
1
1
1
1
1
1
1
1
1
1
1
1
1
1
1
1
1
1
1
1
1
1
1
1
1
1
1
1
1
1
1
1
1
1
1
1
1
1
1
1
1
1
1
1
1
1
1
1
1
1
1
1
1
1
1
1
1
1
1
1
1
1
1
1
1
1
1
1
1
1
1
1
1
1
1
1
1
1
1
1
1
1
1
1
1
1
1
1
1
1
1
1
1
1
1
1
1
1
1
1
1
1
1
1
1
1
1
1
1
1
1
1
1
1
1
1
1
1
1
1
1
1
1
1
1
1
1
1
1
1
1
1
1
1
1
1
1
1
1
1
1
1
1
1
1
1
1
1
1
1
1
1
1
1
1
1
1
1
1
1
1
1
1
1
1
1
1
1
1
1
1
1
1
1
1
1
1
1
1
0.0132995
0.0395512
0.06608
0.0934767
0.118225
0.141217
0.166051
0.196843
0.241263
0.282663
0.315931
0.355606
0.39982
0.435212
0.457537
0.475218
0.482552
0.48247
0.480457
0.475456
0.465739
0.450931
0.433111
0.407932
0.380536
0.349849
0.315571
0.278278
0.237358
0.192874
0.151585
0.124498
0.115147
0.113642
0.101871
0.0339702
0.00636162
0.00729334
0.00987674
0.0127376
0.0142903
0.0160145
0.0198896
0.024097
0.0273457
0.0292971
0.0309747
0.0340482
0.0410772
0.0597634
0.0839645
0.103932
0.127419
0.242711
0.614988
0.790829
0.813244
0.815199
0.816376
0.817916
0.819825
0.821417
0.823089
0.82463
0.826118
0.827744
0.829468
0.831212
0.832545
0.833897
0.835
0.83616
0.837523
0.838846
0.839936
0.841118
0.842352
0.843024
0.844096
0.844995
0.845803
0.846577
0.847292
0.847953
0.848619
0.849139
0.849575
0.85004
0.850464
0.850917
0.851209
0.851443
0.851643
0.85179
0.85184
0.851815
0.851532
0.851229
0.850677
0.85018
0.849314
0.848227
0.846889
0.84506
0.842815
0.839893
0.836083
0.831272
0.825177
0.817489
0.807875
0.796106
0.781959
0.765266
0.745795
0.723198
0.696801
0.665703
0.629125
0.585594
0.534363
0.475518
0.408507
0.335596
0.262128
0.190199
0.124544
0.0761584
0.0447702
0.0252072
0.0135234
0.00688244
0.00331278
0.00150568
0.000646452
0.000263327
0.00010155
3.49027e-05
1.03916e-05
5.04706e-06
2.48946e-06
1.20494e-06
5.67454e-07
2.6039e-07
1.16713e-07
5.1203e-08
2.20292e-08
9.3133e-09
3.87732e-09
1.59305e-09
6.47378e-10
2.60779e-10
1.04351e-10
4.15616e-11
1.6505e-11
6.54484e-12
2.59439e-12
1.029e-12
4.08645e-13
1.62565e-13
6.47673e-14
2.58054e-14
1.02526e-14
4.04545e-15
1.5782e-15
6.06174e-16
2.28435e-16
8.4242e-17
3.03456e-17
1.06635e-17
3.65183e-18
1.21765e-18
3.94907e-19
1.24383e-19
3.79779e-20
1.12012e-20
3.1856e-21
8.46792e-22
2.18913e-22
-1.73742e-22
0.0100568
0.0302535
0.0440252
0.0504336
0.0505329
0.0492823
0.0702013
0.120012
0.231055
0.359113
0.472378
0.55436
0.616338
0.655364
0.679066
0.691948
0.699321
0.70413
0.707221
0.708564
0.708991
0.709063
0.708847
0.707567
0.702658
0.688792
0.671104
0.638329
0.581597
0.532334
0.436977
0.306449
0.213664
0.162682
0.141404
0.105131
0.0627131
0.0366664
0.0232635
0.0165525
0.0139742
0.014833
0.0182334
0.0263405
0.0439033
0.0600822
0.0685217
0.0800086
0.096229
0.100889
0.112956
0.261343
0.633153
0.74268
0.798468
0.819777
0.824504
0.827074
0.82954
0.832056
0.834326
0.83615
0.837916
0.839512
0.841202
0.843118
0.844847
0.846158
0.847168
0.848351
0.849434
0.850642
0.851685
0.852662
0.853485
0.854375
0.855071
0.855448
0.85591
0.856445
0.857087
0.857606
0.858234
0.858992
0.859821
0.86055
0.861213
0.862023
0.862965
0.863877
0.864754
0.865627
0.866503
0.867599
0.868716
0.869783
0.8709
0.872112
0.873218
0.874624
0.876136
0.878
0.880447
0.883405
0.887108
0.891643
0.89723
0.903915
0.911852
0.921095
0.93125
0.941864
0.951932
0.959992
0.965904
0.970705
0.974485
0.977398
0.979542
0.980976
0.981727
0.981766
0.979994
0.974237
0.962216
0.944655
0.918542
0.873573
0.8047
0.711594
0.600837
0.482539
0.369656
0.272743
0.194858
0.135156
0.0911843
0.059898
0.0383278
0.0238963
0.0145206
0.00860376
0.00497464
0.0028096
0.00155195
0.000839589
0.000445511
0.000232219
0.000119067
6.0128e-05
2.99355e-05
1.47041e-05
7.12897e-06
3.41211e-06
1.61212e-06
7.51714e-07
3.45874e-07
1.57054e-07
7.04265e-08
3.12211e-08
1.36936e-08
5.93945e-09
2.54235e-09
1.07047e-09
4.4178e-10
1.78148e-10
7.00273e-11
2.67968e-11
9.97254e-12
3.60915e-12
1.26942e-12
4.34192e-13
1.44187e-13
4.6556e-14
1.45481e-14
4.41454e-15
1.29405e-15
3.39044e-16
9.49547e-17
-3.61497e-16
0.00502492
0.0120244
0.0186903
0.0177159
0.0140943
0.019742
0.0468676
0.112313
0.25953
0.432174
0.555653
0.637552
0.67803
0.690787
0.700561
0.704019
0.704027
0.703286
0.701604
0.700284
0.700321
0.701032
0.702751
0.70643
0.710042
0.711213
0.710943
0.709137
0.703782
0.691696
0.666939
0.624366
0.525786
0.382966
0.263899
0.204349
0.160171
0.117433
0.0860322
0.0631929
0.0494076
0.0493934
0.0533033
0.0634572
0.0772371
0.10116
0.137826
0.152641
0.175215
0.357738
0.603315
0.734121
0.794594
0.815908
0.824467
0.827124
0.828126
0.829282
0.83036
0.831583
0.832211
0.832461
0.832541
0.832564
0.832723
0.833668
0.834726
0.835146
0.835787
0.836911
0.837705
0.838407
0.839373
0.839734
0.840223
0.841202
0.841683
0.842096
0.843297
0.844611
0.845414
0.846505
0.847764
0.848645
0.849674
0.850866
0.851885
0.853002
0.854359
0.855904
0.857693
0.859527
0.861259
0.863294
0.865745
0.867164
0.868746
0.86977
0.870161
0.869701
0.868306
0.866755
0.865509
0.864301
0.863182
0.862487
0.862261
0.862617
0.86358
0.865264
0.868329
0.873391
0.88162
0.894419
0.911082
0.928475
0.943745
0.955644
0.965508
0.973685
0.980413
0.985897
0.990241
0.993445
0.995558
0.996739
0.997255
0.997391
0.99727
0.996388
0.993272
0.985272
0.966522
0.918749
0.814298
0.684961
0.547218
0.417188
0.306439
0.217883
0.150251
0.100709
0.065747
0.0418901
0.0260998
0.0159346
0.00955272
0.00563523
0.00327781
0.00188358
0.0010713
0.000604244
0.000338744
0.000189293
0.000105746
5.90708e-05
3.28036e-05
1.80048e-05
9.72496e-06
5.15364e-06
2.6742e-06
1.35701e-06
6.72728e-07
3.25602e-07
1.53721e-07
7.07676e-08
3.17291e-08
1.38465e-08
5.87888e-09
2.43974e-09
9.88754e-10
3.91686e-10
1.51289e-10
5.71118e-11
2.09412e-11
7.50495e-12
2.59093e-12
8.73948e-13
2.84321e-13
7.32191e-14
0.0015495
0.00392277
0.00451204
0.0090291
0.0328942
0.0973976
0.242829
0.46475
0.611775
0.675445
0.694076
0.699887
0.697135
0.68923
0.676899
0.654763
0.635157
0.614727
0.597455
0.587698
0.578495
0.578645
0.581238
0.587505
0.601286
0.621214
0.642159
0.66702
0.683801
0.685197
0.682924
0.675314
0.654455
0.604774
0.498615
0.400473
0.348253
0.30511
0.254628
0.212339
0.174037
0.150544
0.151609
0.163886
0.195646
0.222794
0.252386
0.444507
0.610107
0.716962
0.779258
0.809508
0.82063
0.824027
0.825189
0.825612
0.824681
0.823577
0.821752
0.820535
0.819776
0.819585
0.820215
0.821209
0.823529
0.824874
0.826308
0.82873
0.829768
0.830487
0.831719
0.832487
0.832768
0.832836
0.832841
0.832874
0.832983
0.833265
0.834267
0.835833
0.837487
0.838892
0.839769
0.84032
0.840853
0.841161
0.841329
0.841734
0.842887
0.844705
0.847324
0.850971
0.855379
0.860055
0.865327
0.869515
0.874655
0.879978
0.884335
0.88947
0.893343
0.895417
0.893977
0.88997
0.88389
0.87743
0.871922
0.867406
0.864505
0.863032
0.862462
0.862274
0.862352
0.862943
0.864994
0.871612
0.886248
0.906172
0.925484
0.940962
0.953336
0.963455
0.972222
0.979965
0.986643
0.991967
0.995569
0.997669
0.998802
0.999366
0.999622
0.999709
0.999674
0.999344
0.998127
0.994886
0.986899
0.965665
0.901087
0.743173
0.575223
0.427132
0.306222
0.212696
0.1435
0.0943603
0.0606908
0.0383149
0.0238201
0.0146273
0.00889647
0.00537249
0.00322781
0.00193079
0.00114666
0.00067357
0.000390233
0.000222408
0.000124428
6.82183e-05
3.66093e-05
1.92166e-05
9.86115e-06
4.94593e-06
2.42381e-06
1.16063e-06
5.42765e-07
2.47942e-07
1.10484e-07
4.80399e-08
2.03044e-08
8.38268e-09
3.37677e-09
1.32993e-09
5.09398e-10
1.90691e-10
6.89781e-11
2.43652e-11
8.28578e-12
2.53564e-12
0.000172637
0.000708496
0.0236539
0.0988045
0.266254
0.518231
0.650074
0.702712
0.713375
0.709217
0.696783
0.669197
0.622415
0.574784
0.534773
0.494712
0.462011
0.433081
0.411858
0.397905
0.387215
0.387585
0.391131
0.399787
0.413602
0.440673
0.468377
0.507563
0.569752
0.624589
0.657299
0.664296
0.661111
0.649775
0.613651
0.548557
0.492322
0.457747
0.4374
0.389121
0.352563
0.319595
0.29227
0.294766
0.310225
0.434197
0.627921
0.7105
0.765633
0.79929
0.814418
0.820149
0.82177
0.822198
0.819394
0.814027
0.809911
0.807855
0.807116
0.807195
0.809186
0.810726
0.812135
0.814343
0.816524
0.817563
0.818336
0.818699
0.818734
0.818444
0.817686
0.816112
0.813549
0.81095
0.808744
0.807742
0.807417
0.807715
0.810371
0.814543
0.817184
0.817696
0.817395
0.816211
0.813777
0.809513
0.802982
0.798894
0.797638
0.797386
0.799583
0.805808
0.815433
0.825559
0.835677
0.845618
0.857845
0.86949
0.880748
0.890193
0.89868
0.906886
0.914958
0.920873
0.92378
0.920877
0.911733
0.899108
0.887328
0.878291
0.872704
0.869384
0.866622
0.863827
0.861248
0.86008
0.860587
0.865202
0.882072
0.90951
0.934368
0.951264
0.962608
0.970741
0.977245
0.982941
0.988201
0.992672
0.995877
0.997853
0.998953
0.999514
0.99978
0.99989
0.999913
0.9999
0.999801
0.999381
0.997904
0.993437
0.98055
0.94017
0.809369
0.616521
0.451669
0.320849
0.222032
0.150212
0.0997191
0.0651922
0.0421007
0.0269174
0.0170572
0.0107026
0.0066366
0.00405807
0.00244095
0.00144103
0.000833365
0.000471463
0.000260684
0.00014081
7.42861e-05
3.82773e-05
1.92633e-05
9.47013e-06
4.54731e-06
2.13309e-06
9.76881e-07
4.36837e-07
1.90459e-07
8.09368e-08
3.34276e-08
1.3483e-08
5.29176e-09
2.02619e-09
7.51585e-10
2.71341e-10
9.47774e-11
3.03888e-11
0.00327521
0.0420162
0.162679
0.437614
0.648009
0.719486
0.732446
0.725188
0.697694
0.640089
0.573764
0.514907
0.473379
0.438061
0.401915
0.369551
0.343662
0.315567
0.297594
0.280385
0.274802
0.277213
0.284807
0.295315
0.316963
0.33448
0.358856
0.39167
0.418823
0.473123
0.566319
0.625018
0.646938
0.645806
0.636669
0.608711
0.571573
0.55531
0.534866
0.512441
0.495262
0.434481
0.344565
0.344779
0.522259
0.688653
0.754847
0.788854
0.807288
0.815797
0.818586
0.819254
0.816919
0.809871
0.801042
0.796897
0.795399
0.794996
0.79523
0.797194
0.799287
0.800154
0.800992
0.801708
0.801943
0.802
0.801583
0.800015
0.797831
0.79535
0.792288
0.788815
0.784957
0.781232
0.778896
0.777993
0.777815
0.779652
0.786283
0.791267
0.791911
0.791186
0.789085
0.785268
0.778414
0.766616
0.75897
0.758149
0.75933
0.762831
0.770062
0.780103
0.791806
0.803086
0.812959
0.822118
0.832496
0.842883
0.854825
0.870367
0.887077
0.903021
0.915938
0.926491
0.935905
0.943789
0.948217
0.946732
0.935968
0.918303
0.900442
0.889587
0.884618
0.881989
0.876899
0.868275
0.861587
0.859029
0.859744
0.86602
0.888256
0.923245
0.949191
0.964687
0.973914
0.979944
0.984535
0.988504
0.992077
0.995053
0.997192
0.998527
0.999277
0.999666
0.999853
0.999936
0.999963
0.999964
0.999945
0.999841
0.999415
0.997846
0.992523
0.975437
0.918231
0.751465
0.562093
0.408565
0.290115
0.202117
0.138591
0.0936977
0.0625074
0.0411303
0.0266573
0.0169832
0.0106127
0.00649182
0.00388108
0.00226526
0.00129003
0.000716654
0.000388389
0.000205386
0.000106003
5.34124e-05
2.62772e-05
1.26248e-05
5.9218e-06
2.712e-06
1.21148e-06
5.27872e-07
2.23823e-07
9.23019e-08
3.7047e-08
1.44832e-08
5.49303e-09
2.02278e-09
7.22712e-10
2.3923e-10
0.0329662
0.138654
0.458922
0.690524
0.743873
0.741475
0.718204
0.648036
0.546176
0.50336
0.474826
0.445726
0.414504
0.374612
0.324342
0.272181
0.232592
0.19457
0.175851
0.158203
0.150662
0.152515
0.160942
0.182089
0.221013
0.26614
0.308568
0.335604
0.358553
0.385565
0.44047
0.538843
0.60316
0.631286
0.631631
0.623802
0.607837
0.600211
0.593109
0.584804
0.549411
0.42006
0.377533
0.523878
0.709126
0.771583
0.798331
0.810378
0.815105
0.816324
0.816451
0.811813
0.799798
0.79107
0.787325
0.785737
0.785259
0.785245
0.786115
0.787446
0.787845
0.78792
0.787748
0.786843
0.785653
0.784091
0.782015
0.779295
0.775974
0.77221
0.76792
0.762852
0.757339
0.751401
0.745902
0.741552
0.738405
0.736857
0.736387
0.738848
0.739853
0.739702
0.739527
0.739557
0.739147
0.740415
0.74542
0.750826
0.754543
0.760675
0.771358
0.785923
0.803055
0.81813
0.828072
0.833766
0.838419
0.843047
0.848494
0.857056
0.86967
0.885627
0.903971
0.921604
0.935865
0.94715
0.9567
0.963445
0.965986
0.963824
0.952861
0.929354
0.909059
0.900507
0.898364
0.896879
0.890717
0.876033
0.866861
0.864892
0.86786
0.883019
0.917836
0.948916
0.967665
0.977983
0.983823
0.987656
0.990676
0.993273
0.995477
0.997214
0.998428
0.999179
0.999599
0.999815
0.99992
0.999966
0.999981
0.999982
0.999973
0.999918
0.999678
0.998754
0.99543
0.984257
0.947118
0.822518
0.631667
0.470896
0.343562
0.246011
0.173088
0.119644
0.0811595
0.0539338
0.0350463
0.022231
0.013749
0.00828418
0.00486145
0.00277877
0.00154752
0.000840047
0.000444675
0.000229638
0.000115724
5.69242e-05
2.73303e-05
1.28078e-05
5.85546e-06
2.61077e-06
1.13397e-06
4.79313e-07
1.96767e-07
7.85937e-08
3.04768e-08
1.14606e-08
4.18714e-09
1.42692e-09
0.169376
0.365847
0.69754
0.758107
0.749167
0.690565
0.575232
0.514295
0.487815
0.469243
0.444611
0.404372
0.335234
0.264723
0.217409
0.183406
0.159416
0.141595
0.128556
0.11696
0.106915
0.102552
0.103057
0.107937
0.125099
0.176999
0.240407
0.294321
0.336618
0.357979
0.389691
0.46606
0.561774
0.60964
0.623906
0.626566
0.625394
0.625369
0.624842
0.609526
0.520153
0.412392
0.50073
0.700982
0.77546
0.800968
0.810831
0.814207
0.814933
0.813542
0.806443
0.794277
0.785397
0.781229
0.779273
0.778352
0.777997
0.777931
0.778034
0.77806
0.777614
0.776952
0.775789
0.774823
0.773019
0.771044
0.768204
0.764517
0.759509
0.753303
0.7455
0.73582
0.724271
0.711239
0.699112
0.688398
0.679245
0.672358
0.668699
0.667345
0.668023
0.675443
0.684988
0.698328
0.711532
0.727045
0.741459
0.753986
0.766681
0.78438
0.808505
0.836127
0.861319
0.880703
0.894159
0.902713
0.90726
0.905718
0.897191
0.886726
0.880456
0.885444
0.898489
0.914689
0.931235
0.945621
0.957207
0.966621
0.973801
0.977254
0.977261
0.973896
0.96082
0.935888
0.920342
0.915972
0.915365
0.913681
0.903074
0.887905
0.8818
0.882344
0.892906
0.922695
0.952544
0.972298
0.982854
0.988217
0.991171
0.993226
0.994998
0.996522
0.997744
0.998646
0.999249
0.999612
0.999813
0.999915
0.999964
0.999984
0.99999
0.99999
0.999981
0.999933
0.999731
0.998965
0.996251
0.987159
0.957397
0.85596
0.673979
0.513633
0.382267
0.278125
0.197729
0.137198
0.0927814
0.0610754
0.0391007
0.0243353
0.0147241
0.00866382
0.00496039
0.00276519
0.00150177
0.000795053
0.000410475
0.000206739
0.000101591
4.87095e-05
2.27811e-05
1.03898e-05
4.61699e-06
1.99774e-06
8.3986e-07
3.43008e-07
1.36051e-07
5.23083e-08
1.95509e-08
6.85342e-09
0.271545
0.628705
0.768964
0.761098
0.680131
0.553256
0.50819
0.489038
0.475585
0.453168
0.400173
0.322786
0.265291
0.225939
0.194131
0.169064
0.151285
0.13751
0.125888
0.114643
0.104818
0.098543
0.0971358
0.0993663
0.121825
0.18681
0.240254
0.279818
0.319851
0.353764
0.376467
0.427676
0.515347
0.581589
0.617666
0.630773
0.638525
0.640806
0.634398
0.592286
0.458535
0.469443
0.675374
0.770107
0.800502
0.810085
0.812979
0.813651
0.811727
0.803394
0.791813
0.781281
0.775872
0.77352
0.772407
0.77185
0.771445
0.770996
0.770259
0.76983
0.769225
0.767982
0.766347
0.763912
0.760652
0.75641
0.750724
0.743008
0.732227
0.717982
0.699661
0.682099
0.664062
0.647936
0.634137
0.623754
0.618143
0.615752
0.615369
0.620844
0.630398
0.641457
0.655271
0.670151
0.688998
0.709034
0.730999
0.753537
0.775659
0.801917
0.829242
0.85484
0.876689
0.894603
0.909236
0.921571
0.932413
0.941164
0.947216
0.949887
0.946932
0.937897
0.929902
0.928568
0.934743
0.946254
0.957165
0.966853
0.975252
0.981471
0.98503
0.985724
0.984578
0.979769
0.963815
0.944858
0.936708
0.93539
0.935317
0.932502
0.920561
0.911161
0.909235
0.913903
0.934972
0.959667
0.97734
0.987253
0.992139
0.994492
0.995768
0.996756
0.997657
0.998425
0.999016
0.999429
0.999691
0.999844
0.999926
0.999967
0.999986
0.999993
0.999995
0.999993
0.999982
0.999928
0.999719
0.998969
0.996426
0.98811
0.961186
0.869796
0.694089
0.533851
0.398784
0.289415
0.203945
0.139456
0.0924959
0.0595068
0.0371468
0.0225146
0.0132598
0.00759468
0.00423371
0.00229867
0.00121623
0.000627369
0.000315581
0.000154821
7.40701e-05
3.45492e-05
1.57031e-05
6.94948e-06
2.99182e-06
1.25024e-06
5.07414e-07
1.99596e-07
7.63427e-08
2.75094e-08
0.360599
0.731811
0.779348
0.707785
0.566119
0.517109
0.497682
0.485856
0.469385
0.424298
0.358914
0.301137
0.258709
0.229358
0.207524
0.195759
0.189354
0.181319
0.172279
0.160206
0.150116
0.14827
0.162532
0.19095
0.214844
0.24484
0.267771
0.289603
0.316201
0.3442
0.378288
0.436414
0.521761
0.586103
0.621389
0.641308
0.647353
0.644318
0.622032
0.507288
0.469275
0.63689
0.756797
0.797326
0.809198
0.812093
0.812473
0.809996
0.80125
0.790579
0.781601
0.774428
0.771273
0.769775
0.76885
0.768137
0.767386
0.766421
0.765097
0.763451
0.761388
0.757211
0.751849
0.744435
0.735479
0.723414
0.707973
0.688942
0.666811
0.64419
0.626405
0.611116
0.598424
0.589788
0.581468
0.577039
0.572423
0.569987
0.568884
0.570627
0.576192
0.584151
0.597648
0.614239
0.633647
0.656261
0.68443
0.716711
0.751041
0.784624
0.815834
0.841958
0.862652
0.879216
0.893614
0.907545
0.921427
0.934755
0.946473
0.955975
0.96333
0.968607
0.972407
0.973736
0.972159
0.968974
0.968384
0.970836
0.976522
0.982609
0.987595
0.990562
0.991425
0.991076
0.989297
0.983412
0.96924
0.958416
0.955362
0.955671
0.955843
0.953965
0.946403
0.941405
0.941563
0.950418
0.968749
0.982385
0.990713
0.994919
0.996863
0.997737
0.998227
0.99865
0.999048
0.999381
0.999628
0.999792
0.999891
0.999947
0.999975
0.999989
0.999995
0.999997
0.999997
0.999993
0.999976
0.999909
0.999668
0.998851
0.996175
0.987484
0.958802
0.860931
0.682667
0.519734
0.382372
0.27199
0.187107
0.124541
0.0802698
0.0501455
0.0303959
0.0178962
0.0102446
0.0057066
0.0030953
0.00163568
0.000842401
0.00042292
0.000206982
9.87349e-05
4.58908e-05
2.07685e-05
9.14555e-06
3.91305e-06
1.62497e-06
6.54124e-07
2.5608e-07
9.48018e-08
0.437253
0.771291
0.764619
0.615803
0.53771
0.511176
0.497639
0.489173
0.465409
0.414935
0.358709
0.337195
0.328647
0.312004
0.293794
0.285586
0.27609
0.267138
0.262712
0.256599
0.252369
0.25081
0.253328
0.255581
0.261933
0.27423
0.287829
0.304269
0.327372
0.35685
0.399441
0.468354
0.547931
0.607516
0.638168
0.649281
0.647781
0.631155
0.54207
0.492817
0.582434
0.737654
0.791019
0.807567
0.811714
0.81221
0.810716
0.803533
0.793775
0.785009
0.775617
0.770013
0.767649
0.766422
0.765187
0.764061
0.76277
0.761083
0.758807
0.754435
0.74493
0.731839
0.713469
0.694653
0.679365
0.664554
0.647495
0.626407
0.60962
0.595037
0.585324
0.574669
0.566525
0.553684
0.536962
0.518768
0.497084
0.477535
0.464753
0.459308
0.460614
0.472568
0.489587
0.510449
0.531947
0.553783
0.576066
0.602849
0.639167
0.68315
0.730115
0.770505
0.797029
0.814383
0.828624
0.843929
0.861088
0.879896
0.900517
0.922204
0.943044
0.960605
0.973124
0.981259
0.986453
0.989757
0.990839
0.989628
0.986632
0.98599
0.988631
0.992256
0.994416
0.99518
0.995144
0.994571
0.99275
0.987075
0.977789
0.972708
0.972288
0.973592
0.974096
0.973208
0.968955
0.966594
0.968059
0.977042
0.987105
0.993356
0.996703
0.998255
0.998898
0.999161
0.999331
0.999499
0.999659
0.999788
0.999879
0.999935
0.999967
0.999985
0.999993
0.999997
0.999998
0.999998
0.999997
0.999991
0.999964
0.999869
0.999547
0.998477
0.994942
0.983075
0.942138
0.81022
0.624577
0.463148
0.331007
0.228229
0.152016
0.097951
0.0611419
0.0370217
0.0217707
0.0124455
0.00692192
0.00374788
0.00197648
0.00101549
0.0005084
0.000248002
0.000117853
5.45288e-05
2.45509e-05
1.0745e-05
4.56643e-06
1.88117e-06
7.53733e-07
2.86477e-07
0.505422
0.779349
0.717236
0.583117
0.531337
0.515127
0.512324
0.506616
0.481806
0.459505
0.454781
0.449236
0.422181
0.387727
0.372899
0.362193
0.346886
0.333942
0.32736
0.318493
0.309405
0.304793
0.302663
0.302114
0.305375
0.312492
0.325772
0.345066
0.374445
0.416806
0.483573
0.560896
0.611682
0.636852
0.645464
0.646605
0.627276
0.556616
0.516817
0.549581
0.713505
0.781956
0.804539
0.810988
0.812129
0.81195
0.808958
0.800878
0.791407
0.783543
0.774048
0.768047
0.765492
0.764023
0.763152
0.761205
0.757874
0.753558
0.746798
0.73524
0.716271
0.690653
0.666708
0.651085
0.636248
0.616343
0.598116
0.582836
0.573287
0.565697
0.556714
0.543802
0.52276
0.488505
0.442468
0.397597
0.357669
0.331749
0.318714
0.314484
0.325776
0.350734
0.384449
0.42271
0.462083
0.497198
0.525333
0.545623
0.5597
0.574661
0.595798
0.625774
0.659256
0.685525
0.706448
0.72714
0.747343
0.766376
0.788402
0.818636
0.856966
0.898559
0.936904
0.964737
0.981529
0.990176
0.994343
0.996299
0.996807
0.995913
0.993983
0.993855
0.995535
0.996986
0.997536
0.997599
0.997461
0.996941
0.995356
0.990818
0.986177
0.984762
0.985367
0.986595
0.986635
0.985526
0.983043
0.982695
0.984993
0.991215
0.995454
0.997807
0.998959
0.999462
0.999665
0.999751
0.999808
0.999861
0.999908
0.999944
0.999969
0.999984
0.999992
0.999996
0.999998
0.999999
0.999999
0.999998
0.999995
0.999983
0.999936
0.999773
0.999217
0.997323
0.990782
0.967834
0.887727
0.70143
0.522351
0.373729
0.257542
0.171292
0.110165
0.0686259
0.0414661
0.0243314
0.0138776
0.00769934
0.00415752
0.00218589
0.00111932
0.000558254
0.000271163
0.000128224
5.90021e-05
2.63946e-05
1.14734e-05
4.83529e-06
1.98198e-06
7.72722e-07
0.552704
0.7733
0.694427
0.571487
0.534427
0.528254
0.529035
0.538121
0.544331
0.539535
0.522251
0.52072
0.525158
0.527123
0.519277
0.511202
0.506004
0.493375
0.484727
0.476403
0.467877
0.462346
0.459872
0.459473
0.466061
0.473281
0.4841
0.502335
0.525909
0.564981
0.595453
0.614588
0.629698
0.635581
0.634448
0.60656
0.55952
0.537178
0.55178
0.692699
0.771987
0.800362
0.809352
0.811508
0.81193
0.810754
0.805675
0.797442
0.788908
0.781562
0.77285
0.766659
0.763953
0.762211
0.760611
0.75891
0.755875
0.750241
0.739767
0.717146
0.685696
0.658333
0.639196
0.622836
0.602535
0.582487
0.567694
0.56076
0.554515
0.546494
0.526246
0.490846
0.425314
0.358673
0.297923
0.253099
0.227643
0.215875
0.212422
0.220317
0.233933
0.256649
0.298201
0.355096
0.413769
0.465306
0.505122
0.532604
0.548903
0.557849
0.564498
0.572469
0.582248
0.5921
0.602478
0.615564
0.629617
0.640622
0.649926
0.664575
0.694982
0.750967
0.829342
0.900266
0.949095
0.976864
0.990375
0.995993
0.998028
0.998703
0.998684
0.998033
0.997537
0.997835
0.998583
0.998901
0.998967
0.998937
0.998793
0.998325
0.996766
0.994442
0.993255
0.993212
0.993729
0.993858
0.993535
0.992197
0.991559
0.991969
0.9945
0.997184
0.998645
0.999376
0.999711
0.999854
0.999912
0.999939
0.999957
0.99997
0.999981
0.999989
0.999994
0.999997
0.999999
0.999999
1
0.999999
0.999999
0.999997
0.999989
0.99996
0.999857
0.99949
0.998195
0.993581
0.977097
0.918805
0.749548
0.556872
0.397594
0.273216
0.181145
0.116128
0.0721113
0.0434339
0.0254034
0.0144399
0.00798257
0.00429383
0.00224821
0.00114601
0.00056875
0.000274732
0.000129127
5.90058e-05
2.62049e-05
1.12901e-05
4.73114e-06
1.89007e-06
0.574087
0.769097
0.676074
0.570606
0.545288
0.540924
0.542214
0.553756
0.578574
0.606602
0.62493
0.636775
0.647062
0.652486
0.655475
0.656032
0.649022
0.641639
0.628158
0.613919
0.600381
0.58634
0.574149
0.566008
0.561807
0.560935
0.563955
0.57255
0.582827
0.591165
0.602219
0.607172
0.610201
0.600406
0.580176
0.563065
0.554677
0.568672
0.680573
0.764796
0.796663
0.807259
0.81042
0.811183
0.81065
0.807265
0.799679
0.789742
0.781905
0.775151
0.76858
0.763174
0.760764
0.759431
0.757933
0.755958
0.752512
0.744614
0.726645
0.695129
0.66231
0.633972
0.612831
0.594326
0.574004
0.562339
0.555819
0.548158
0.535073
0.508423
0.460688
0.386877
0.313303
0.251727
0.20813
0.184709
0.173182
0.169116
0.17185
0.182782
0.201206
0.221556
0.250944
0.29839
0.362506
0.430364
0.486756
0.525338
0.547562
0.55787
0.563346
0.567683
0.571924
0.575327
0.579054
0.585172
0.593015
0.599518
0.603654
0.607422
0.614252
0.629483
0.668244
0.761956
0.870577
0.937913
0.973707
0.99016
0.996627
0.998761
0.999367
0.999492
0.999389
0.999221
0.999229
0.999444
0.99959
0.999617
0.999608
0.999559
0.999386
0.998785
0.998006
0.997624
0.99756
0.997579
0.997554
0.997361
0.996704
0.996324
0.996366
0.997128
0.998494
0.999279
0.999672
0.999854
0.999933
0.999966
0.999979
0.999986
0.999991
0.999994
0.999996
0.999998
0.999999
0.999999
1
1
1
0.999999
0.999998
0.999992
0.999971
0.99989
0.999597
0.998522
0.994577
0.980224
0.928741
0.768043
0.568456
0.404034
0.276367
0.182408
0.116425
0.0719835
0.0431686
0.0251355
0.0142213
0.00782334
0.00418665
0.00218014
0.00110488
0.000544859
0.000261399
0.000121921
5.52682e-05
2.43132e-05
1.04059e-05
4.25416e-06
0.597451
0.767348
0.667955
0.576733
0.562214
0.56112
0.566122
0.582688
0.609462
0.64
0.668495
0.694945
0.722096
0.748076
0.762464
0.769841
0.772517
0.766587
0.752844
0.732974
0.70576
0.674352
0.642865
0.620879
0.597772
0.585444
0.57562
0.571006
0.5694
0.569698
0.570983
0.571895
0.571913
0.571142
0.570159
0.572932
0.598104
0.69089
0.764007
0.795323
0.8067
0.810213
0.810136
0.80957
0.806141
0.797957
0.787041
0.775534
0.765804
0.758266
0.753702
0.750724
0.75047
0.752309
0.752471
0.751106
0.748139
0.740042
0.717976
0.683427
0.647837
0.618739
0.597927
0.581977
0.563674
0.545023
0.532349
0.521705
0.499515
0.457821
0.390072
0.310372
0.244102
0.197631
0.170689
0.157456
0.151968
0.15168
0.155623
0.165822
0.18837
0.214146
0.241643
0.285843
0.349212
0.42007
0.480491
0.522648
0.549859
0.564757
0.570712
0.572408
0.57322
0.57495
0.57719
0.581583
0.588008
0.593716
0.597389
0.599782
0.602849
0.608707
0.620714
0.650659
0.737826
0.862771
0.937214
0.974753
0.991079
0.997189
0.999137
0.999658
0.999787
0.999797
0.999778
0.999783
0.999833
0.999869
0.999873
0.999868
0.999844
0.999757
0.999522
0.999333
0.999251
0.99922
0.999199
0.999155
0.999011
0.998732
0.998604
0.998606
0.998802
0.99933
0.999675
0.999852
0.999935
0.999972
0.999987
0.999993
0.999996
0.999998
0.999998
0.999999
0.999999
1
1
1
1
1
1
0.999998
0.999993
0.999974
0.999902
0.999627
0.998585
0.994666
0.980176
0.92757
0.763099
0.561358
0.39659
0.269699
0.177012
0.112364
0.0690921
0.0412026
0.0238522
0.0134144
0.00733372
0.00389918
0.00201668
0.0010146
0.000496474
0.000236154
0.000109166
4.89759e-05
2.1378e-05
8.93168e-06
0.609484
0.767715
0.666193
0.583271
0.570742
0.572774
0.592968
0.636042
0.69798
0.781041
0.836654
0.860547
0.877219
0.889326
0.894756
0.897904
0.900224
0.902115
0.903046
0.902201
0.895337
0.879255
0.845773
0.79675
0.742253
0.689544
0.656023
0.62926
0.609278
0.59586
0.588112
0.584724
0.588206
0.596399
0.614448
0.658957
0.724573
0.772852
0.797825
0.808385
0.811903
0.810566
0.80847
0.802971
0.789174
0.773343
0.758718
0.74625
0.737376
0.731253
0.72702
0.724821
0.724612
0.728941
0.736927
0.738452
0.737089
0.730822
0.713155
0.679802
0.648118
0.618917
0.595089
0.56851
0.543206
0.525205
0.516297
0.500789
0.467447
0.409485
0.332669
0.25804
0.205343
0.17347
0.15589
0.147983
0.146847
0.14797
0.151986
0.161228
0.183941
0.218025
0.250973
0.293979
0.355623
0.427282
0.488652
0.533005
0.558804
0.570958
0.576276
0.57933
0.581385
0.582267
0.583181
0.585646
0.592758
0.601268
0.607371
0.609953
0.611144
0.613198
0.618866
0.634296
0.671736
0.76496
0.877292
0.945573
0.978891
0.992807
0.997821
0.999384
0.999803
0.999906
0.999932
0.999935
0.999941
0.999955
0.99996
0.99996
0.999956
0.999943
0.999896
0.999835
0.9998
0.999785
0.999776
0.999765
0.99974
0.999665
0.999597
0.999574
0.99958
0.999645
0.999796
0.999896
0.99995
0.999978
0.99999
0.999996
0.999998
0.999999
0.999999
1
1
1
1
1
1
1
1
1
0.999998
0.999994
0.999975
0.999901
0.999611
0.998484
0.99416
0.977962
0.918666
0.741999
0.541798
0.380122
0.256771
0.167425
0.10558
0.0644835
0.0381873
0.021948
0.0122524
0.00664726
0.00350624
0.00179823
0.000896699
0.000434548
0.000204617
9.35014e-05
4.15623e-05
1.7708e-05
0.616851
0.770762
0.667802
0.599479
0.591451
0.606707
0.669804
0.782829
0.851404
0.882499
0.898699
0.906192
0.910383
0.911469
0.910983
0.909016
0.908563
0.912105
0.916951
0.926353
0.936574
0.945972
0.949983
0.950608
0.931432
0.888431
0.824186
0.77984
0.74502
0.719075
0.700272
0.691619
0.689977
0.705341
0.729058
0.759467
0.786786
0.803423
0.811496
0.814454
0.813581
0.809889
0.801589
0.784393
0.766971
0.752154
0.736187
0.721611
0.710374
0.703513
0.699239
0.697048
0.697345
0.699258
0.706036
0.71432
0.714656
0.712503
0.703968
0.679751
0.651035
0.622313
0.598302
0.569951
0.542152
0.510963
0.493
0.472833
0.43557
0.3814
0.316427
0.255437
0.207628
0.177214
0.159019
0.150213
0.150044
0.152431
0.159969
0.173449
0.201983
0.254165
0.304715
0.360657
0.427889
0.49305
0.540917
0.56658
0.576443
0.579221
0.580225
0.581756
0.585656
0.592165
0.597596
0.601817
0.610331
0.626879
0.645114
0.655433
0.657272
0.65676
0.654638
0.655473
0.670042
0.726889
0.823014
0.908319
0.959947
0.984888
0.994943
0.998492
0.999588
0.999884
0.999956
0.999973
0.999979
0.999983
0.999986
0.999986
0.999986
0.999984
0.999976
0.999958
0.999946
0.999941
0.999938
0.999936
0.999932
0.99992
0.999902
0.999894
0.999894
0.999903
0.999934
0.999962
0.999979
0.999989
0.999995
0.999998
0.999999
0.999999
1
1
1
1
1
1
1
1
1
1
1
0.999998
0.999993
0.999973
0.999888
0.999548
0.998202
0.992988
0.973338
0.901207
0.708173
0.513313
0.357385
0.239602
0.155058
0.0970286
0.0587904
0.0345309
0.0196802
0.0108918
0.00585672
0.00306044
0.00155422
0.000766775
0.000367446
0.000170841
7.72404e-05
3.35061e-05
0.617685
0.779309
0.694391
0.634269
0.630574
0.671489
0.781865