/*--------------------------------*- C++ -*----------------------------------*\
  =========                 |
  \\      /  F ield         | OpenFOAM: The Open Source CFD Toolbox
   \\    /   O peration     | Website:  https://openfoam.org
    \\  /    A nd           | Version:  7
     \\/     M anipulation  |
\*---------------------------------------------------------------------------*/
FoamFile
{
    version     2.0;
    format      ascii;
    class       volVectorField;
    location    "0.069";
    object      U;
}
// * * * * * * * * * * * * * * * * * * * * * * * * * * * * * * * * * * * * * //

dimensions      [0 1 -1 0 0 0 0];

internalField   nonuniform List<vector> 
12225
(
(4.74569 0.123691 0)
(4.2174 0.0910659 0)
(3.72986 0.0908592 0)
(3.31333 0.081632 0)
(2.92751 0.0675793 0)
(2.59052 0.0530108 0)
(2.30887 0.0437405 0)
(2.06699 0.0396368 0)
(1.84529 0.037707 0)
(1.6347 0.0347763 0)
(1.4376 0.0293396 0)
(1.26387 0.0228038 0)
(1.1139 0.0163129 0)
(0.992974 0.0109851 0)
(0.883388 0.00846399 0)
(0.79259 0.00931453 0)
(0.688917 0.0140808 0)
(0.566384 0.0147987 0)
(5.10576 0.0864509 0)
(4.92298 0.0800492 0)
(4.77651 0.111531 0)
(4.67383 0.110726 0)
(4.5503 0.108556 0)
(4.41803 0.101828 0)
(4.30586 0.0916989 0)
(4.21039 0.085279 0)
(4.10852 0.0843949 0)
(3.98659 0.0854454 0)
(3.84626 0.0845392 0)
(3.70378 0.0800896 0)
(3.56649 0.0736037 0)
(3.4466 0.0671039 0)
(3.33035 0.0654527 0)
(3.21681 0.0662377 0)
(3.08835 0.0801127 0)
(2.93876 0.0894645 0)
(4.99962 0.125519 0)
(4.90316 0.112088 0)
(4.77892 0.137718 0)
(4.68642 0.140391 0)
(4.63997 0.134687 0)
(4.62846 0.116732 0)
(4.63407 0.0972378 0)
(4.64454 0.0906227 0)
(4.65369 0.0982651 0)
(4.65518 0.111482 0)
(4.64316 0.12079 0)
(4.61469 0.121654 0)
(4.57183 0.114194 0)
(4.51776 0.103819 0)
(4.45963 0.0992488 0)
(4.39516 0.102302 0)
(4.33592 0.119207 0)
(4.26343 0.148765 0)
(5.01659 0.150406 0)
(4.87299 0.131547 0)
(4.76159 0.162028 0)
(4.73796 0.154714 0)
(4.75386 0.134068 0)
(4.76566 0.110169 0)
(4.75552 0.0908856 0)
(4.73301 0.0822313 0)
(4.71937 0.0840115 0)
(4.72405 0.0917278 0)
(4.74196 0.0997737 0)
(4.75993 0.104673 0)
(4.76926 0.106124 0)
(4.76298 0.10568 0)
(4.74596 0.108784 0)
(4.72065 0.117189 0)
(4.69987 0.13576 0)
(4.68154 0.164877 0)
(5.0034 0.177387 0)
(4.90533 0.158426 0)
(4.87561 0.159882 0)
(4.86016 0.143483 0)
(4.85553 0.127335 0)
(4.86043 0.112294 0)
(4.86369 0.101218 0)
(4.85788 0.0969178 0)
(4.84615 0.0978436 0)
(4.835 0.101132 0)
(4.82793 0.104926 0)
(4.82313 0.108526 0)
(4.8173 0.111902 0)
(4.80671 0.114797 0)
(4.79285 0.119517 0)
(4.77959 0.127812 0)
(4.77268 0.141995 0)
(4.77683 0.165894 0)
(4.97236 0.185726 0)
(4.94709 0.157566 0)
(4.90988 0.159709 0)
(4.87171 0.16082 0)
(4.85089 0.14425 0)
(4.84522 0.118317 0)
(4.8491 0.098515 0)
(4.85478 0.0910895 0)
(4.85593 0.0928287 0)
(4.84909 0.098873 0)
(4.83543 0.10591 0)
(4.81991 0.11231 0)
(4.80773 0.117263 0)
(4.80142 0.120673 0)
(4.80079 0.123893 0)
(4.80537 0.129381 0)
(4.81449 0.138628 0)
(4.82852 0.155915 0)
(4.9936 0.223547 0)
(4.92135 0.174844 0)
(4.85654 0.167376 0)
(4.85213 0.156423 0)
(4.87727 0.134288 0)
(4.89532 0.10865 0)
(4.8964 0.0918626 0)
(4.88244 0.090262 0)
(4.86011 0.0994569 0)
(4.83655 0.110819 0)
(4.81788 0.118358 0)
(4.80837 0.120773 0)
(4.80996 0.119354 0)
(4.8204 0.116819 0)
(4.83646 0.116094 0)
(4.85419 0.120178 0)
(4.87287 0.129797 0)
(4.89124 0.14651 0)
(5.04631 0.266296 0)
(4.96413 0.222947 0)
(4.93942 0.175829 0)
(4.95279 0.148281 0)
(4.95062 0.134746 0)
(4.91919 0.121904 0)
(4.88214 0.110463 0)
(4.85862 0.10642 0)
(4.8519 0.109518 0)
(4.85554 0.114483 0)
(4.86208 0.116805 0)
(4.86713 0.115515 0)
(4.87057 0.111873 0)
(4.87282 0.108299 0)
(4.87615 0.106787 0)
(4.88218 0.10987 0)
(4.89374 0.117042 0)
(4.91241 0.129729 0)
(4.9395 0.268014 0)
(5.03927 0.208645 0)
(5.03364 0.164495 0)
(4.95617 0.149404 0)
(4.88882 0.146393 0)
(4.85912 0.13383 0)
(4.85283 0.114329 0)
(4.85291 0.101954 0)
(4.85709 0.10175 0)
(4.86902 0.1086 0)
(4.88863 0.115468 0)
(4.91175 0.118744 0)
(4.93332 0.118026 0)
(4.94945 0.115087 0)
(4.95881 0.111747 0)
(4.9636 0.110906 0)
(4.96749 0.11231 0)
(4.97534 0.117447 0)
(5.12219 0.299054 0)
(5.09256 0.215456 0)
(5.04996 0.199361 0)
(4.99574 0.195203 0)
(4.94984 0.17379 0)
(4.91371 0.142849 0)
(4.88059 0.117992 0)
(4.85115 0.104765 0)
(4.83598 0.0990118 0)
(4.84287 0.0951671 0)
(4.86937 0.0915215 0)
(4.90565 0.0895016 0)
(4.94025 0.0901129 0)
(4.96506 0.0936377 0)
(4.97777 0.098461 0)
(4.98127 0.104183 0)
(4.98247 0.108338 0)
(4.98668 0.110943 0)
(5.07687 0.325953 0)
(5.08644 0.23086 0)
(5.0457 0.203305 0)
(4.99803 0.195248 0)
(4.96786 0.183738 0)
(4.94788 0.164266 0)
(4.93099 0.142299 0)
(4.91711 0.122756 0)
(4.9108 0.105901 0)
(4.91405 0.0913651 0)
(4.92443 0.081081 0)
(4.93803 0.0778787 0)
(4.95245 0.0820506 0)
(4.96666 0.0911015 0)
(4.9829 0.100694 0)
(5.00045 0.107408 0)
(5.02333 0.108608 0)
(5.04617 0.104548 0)
(5.04397 0.261071 0)
(4.99168 0.256333 0)
(4.94044 0.234764 0)
(4.92644 0.215342 0)
(4.94113 0.190723 0)
(4.9587 0.163486 0)
(4.96817 0.139523 0)
(4.97056 0.119763 0)
(4.97061 0.102433 0)
(4.97095 0.0877601 0)
(4.97232 0.0777812 0)
(4.97515 0.0736423 0)
(4.98144 0.0741287 0)
(4.99266 0.0763316 0)
(5.01054 0.0779245 0)
(5.03415 0.0777431 0)
(5.0622 0.0754043 0)
(5.09207 0.0726994 0)
(4.96692 0.284502 0)
(5.01038 0.26545 0)
(5.01093 0.229044 0)
(4.99273 0.199533 0)
(4.9748 0.172208 0)
(4.95919 0.14898 0)
(4.94712 0.131764 0)
(4.93916 0.117861 0)
(4.93492 0.104049 0)
(4.93326 0.0901978 0)
(4.93404 0.0787648 0)
(4.9374 0.0719884 0)
(4.94425 0.0697356 0)
(4.95498 0.0698682 0)
(4.96994 0.0695677 0)
(4.98917 0.067501 0)
(5.01109 0.0623307 0)
(5.03618 0.055746 0)
(4.98849 0.273381 0)
(5.00608 0.263245 0)
(4.97643 0.249622 0)
(4.97655 0.226648 0)
(4.9799 0.205167 0)
(4.96603 0.181722 0)
(4.95067 0.155797 0)
(4.94929 0.129406 0)
(4.96066 0.104747 0)
(4.97444 0.0848573 0)
(4.98278 0.0718374 0)
(4.9846 0.0650062 0)
(4.98381 0.0613683 0)
(4.9854 0.0577811 0)
(4.99211 0.052098 0)
(5.00498 0.0451007 0)
(5.0217 0.0365746 0)
(5.04189 0.0296797 0)
(4.9906 0.291891 0)
(4.97956 0.298165 0)
(4.98265 0.244732 0)
(4.99422 0.19769 0)
(5.00015 0.179914 0)
(4.9948 0.166395 0)
(4.99063 0.141688 0)
(4.99174 0.111713 0)
(4.9921 0.0885636 0)
(4.98642 0.0779759 0)
(4.97599 0.0766262 0)
(4.96637 0.0771013 0)
(4.96274 0.0735945 0)
(4.96641 0.064936 0)
(4.97558 0.0520668 0)
(4.98659 0.0377757 0)
(4.99783 0.0229417 0)
(5.00664 0.00885955 0)
(4.94665 0.277148 0)
(4.97025 0.259641 0)
(4.99494 0.223585 0)
(5.02589 0.207569 0)
(5.0401 0.201391 0)
(5.03709 0.185016 0)
(5.03078 0.156171 0)
(5.02575 0.12681 0)
(5.02281 0.106772 0)
(5.02398 0.0951855 0)
(5.03046 0.0847983 0)
(5.0414 0.0704813 0)
(5.0548 0.0528821 0)
(5.06843 0.0363005 0)
(5.08104 0.0241877 0)
(5.09128 0.0168955 0)
(5.0998 0.0124163 0)
(5.10572 0.00727516 0)
(5.02774 0.37472 0)
(5.02898 0.302692 0)
(5.01971 0.205196 0)
(5.02582 0.168376 0)
(5.03019 0.173091 0)
(5.0302 0.175797 0)
(5.02922 0.158394 0)
(5.02543 0.126885 0)
(5.02162 0.0954902 0)
(5.0217 0.0733182 0)
(5.02503 0.0607205 0)
(5.02831 0.0531904 0)
(5.0293 0.0461057 0)
(5.02812 0.0371701 0)
(5.02639 0.0259834 0)
(5.02596 0.0135352 0)
(5.0277 0.000528178 0)
(5.03202 -0.0119518 0)
(4.90253 0.287572 0)
(4.95844 0.222079 0)
(4.96661 0.197274 0)
(4.96236 0.198062 0)
(4.96156 0.194063 0)
(4.97767 0.178784 0)
(5.00114 0.155422 0)
(5.01753 0.128921 0)
(5.02611 0.104521 0)
(5.03269 0.0851749 0)
(5.04079 0.0704311 0)
(5.05028 0.0581313 0)
(5.05988 0.0464336 0)
(5.06728 0.0346732 0)
(5.07136 0.0229366 0)
(5.07092 0.011452 0)
(5.06769 0.000455375 0)
(5.06141 -0.0107591 0)
(5.01388 0.238306 0)
(4.99684 0.235118 0)
(4.99311 0.222537 0)
(5.00342 0.190439 0)
(5.02026 0.149616 0)
(5.04354 0.119192 0)
(5.06562 0.102476 0)
(5.08218 0.0899074 0)
(5.0974 0.0733715 0)
(5.11367 0.0526334 0)
(5.12899 0.0330292 0)
(5.14083 0.0200402 0)
(5.14866 0.0156589 0)
(5.15219 0.0181589 0)
(5.15238 0.0233025 0)
(5.14976 0.0267566 0)
(5.14634 0.0257339 0)
(5.14244 0.0185644 0)
(5.00298 0.355358 0)
(4.98324 0.248185 0)
(4.99029 0.183427 0)
(5.01415 0.146378 0)
(5.03622 0.125765 0)
(5.04669 0.111223 0)
(5.05472 0.0916134 0)
(5.06575 0.0668093 0)
(5.07938 0.042664 0)
(5.09253 0.0242514 0)
(5.10255 0.0142466 0)
(5.1087 0.0127565 0)
(5.11209 0.0170402 0)
(5.11386 0.0230131 0)
(5.115 0.0264577 0)
(5.11583 0.0251256 0)
(5.11723 0.0182089 0)
(5.11907 0.00667076 0)
(5.01373 0.328192 0)
(5.04229 0.243666 0)
(5.07121 0.164361 0)
(5.08694 0.132905 0)
(5.1108 0.109637 0)
(5.14 0.0880275 0)
(5.16268 0.0673629 0)
(5.17158 0.047212 0)
(5.16613 0.0287491 0)
(5.1517 0.0143615 0)
(5.13658 0.0062394 0)
(5.12747 0.00491093 0)
(5.12747 0.00879824 0)
(5.13536 0.0152028 0)
(5.14827 0.0203105 0)
(5.16156 0.0212913 0)
(5.17348 0.0167158 0)
(5.18033 0.00576163 0)
(5.03618 0.263741 0)
(5.04782 0.213164 0)
(5.05501 0.146431 0)
(5.0607 0.111606 0)
(5.08206 0.0871604 0)
(5.11182 0.0710225 0)
(5.13972 0.0671046 0)
(5.16073 0.0709389 0)
(5.17154 0.0727152 0)
(5.17279 0.0651086 0)
(5.16915 0.0476754 0)
(5.16636 0.0257501 0)
(5.16946 0.00594398 0)
(5.17974 -0.00744048 0)
(5.19684 -0.0132006 0)
(5.21805 -0.0137522 0)
(5.24152 -0.0123136 0)
(5.26317 -0.012374 0)
(4.99267 0.25992 0)
(5.00771 0.214644 0)
(5.02656 0.143205 0)
(5.05866 0.0892592 0)
(5.08408 0.0493511 0)
(5.10529 0.0194416 0)
(5.12959 0.0044455 0)
(5.16029 0.00359592 0)
(5.195 0.00967678 0)
(5.22855 0.0146349 0)
(5.25593 0.0126212 0)
(5.2737 0.00324962 0)
(5.28124 -0.0103122 0)
(5.28172 -0.0247137 0)
(5.27875 -0.0373764 0)
(5.27513 -0.0471245 0)
(5.27238 -0.0541347 0)
(5.27206 -0.0588121 0)
(4.95603 0.227465 0)
(4.99875 0.178999 0)
(5.07714 0.123632 0)
(5.1449 0.0951407 0)
(5.1756 0.0706994 0)
(5.17305 0.0440553 0)
(5.15733 0.0238375 0)
(5.14853 0.0142867 0)
(5.15625 0.0118316 0)
(5.17804 0.00941533 0)
(5.20662 0.0055325 0)
(5.23601 0.000975823 0)
(5.26124 -0.00283416 0)
(5.27877 -0.00474053 0)
(5.28762 -0.00590139 0)
(5.28841 -0.00767846 0)
(5.28364 -0.0112456 0)
(5.27513 -0.0177897 0)
(4.85715 0.248422 0)
(4.95563 0.0945215 0)
(5.02385 0.0338251 0)
(5.08819 0.0165686 0)
(5.15238 0.0176325 0)
(5.20831 0.0188675 0)
(5.24262 0.0111243 0)
(5.25271 -0.00315105 0)
(5.24681 -0.0183928 0)
(5.23962 -0.0319703 0)
(5.24218 -0.0430293 0)
(5.25547 -0.0503175 0)
(5.27649 -0.0527767 0)
(5.30064 -0.0506276 0)
(5.32467 -0.045592 0)
(5.34554 -0.0401957 0)
(5.3631 -0.0364506 0)
(5.37598 -0.0361109 0)
(5.10034 0.157246 0)
(5.12941 0.085814 0)
(5.16616 0.0743545 0)
(5.19357 0.0437857 0)
(5.21573 0.00948656 0)
(5.23689 -0.00611455 0)
(5.25331 0.000979037 0)
(5.26613 0.0153452 0)
(5.27998 0.0203793 0)
(5.29714 0.0120974 0)
(5.31689 -0.00618281 0)
(5.33696 -0.0263406 0)
(5.35453 -0.040933 0)
(5.36807 -0.0473528 0)
(5.3782 -0.0473099 0)
(5.38597 -0.0441184 0)
(5.39269 -0.040942 0)
(5.39872 -0.0397361 0)
(5.05794 0.19184 0)
(5.0742 0.0465597 0)
(5.17385 0.00398771 0)
(5.25932 -0.00715741 0)
(5.30545 -0.0139626 0)
(5.32237 -0.015894 0)
(5.32804 -0.014854 0)
(5.34012 -0.0193176 0)
(5.36591 -0.0338873 0)
(5.39805 -0.0540855 0)
(5.42459 -0.0709735 0)
(5.43957 -0.0794017 0)
(5.44449 -0.0789364 0)
(5.44403 -0.0721989 0)
(5.44298 -0.0631557 0)
(5.44356 -0.0552878 0)
(5.44693 -0.0505736 0)
(5.45147 -0.0499154 0)
(5.01667 0.165366 0)
(5.21596 0.0692726 0)
(5.31523 0.0299993 0)
(5.35026 -0.00760213 0)
(5.36167 -0.0228259 0)
(5.38152 -0.0157024 0)
(5.41376 -0.00516016 0)
(5.4519 -0.0033018 0)
(5.48812 -0.0104216 0)
(5.51547 -0.0215406 0)
(5.53097 -0.031901 0)
(5.53746 -0.0392877 0)
(5.54086 -0.0435383 0)
(5.54594 -0.0453518 0)
(5.5549 -0.0455177 0)
(5.56698 -0.0451719 0)
(5.58075 -0.044987 0)
(5.59318 -0.0457247 0)
(5.04824 -0.0043824 0)
(5.26469 -0.0461336 0)
(5.39433 -0.0183098 0)
(5.4397 -0.0340136 0)
(5.44746 -0.0482582 0)
(5.4577 -0.0491153 0)
(5.48195 -0.0485957 0)
(5.51201 -0.0551636 0)
(5.5352 -0.0663875 0)
(5.54317 -0.0765824 0)
(5.5347 -0.0824906 0)
(5.51465 -0.0840467 0)
(5.4891 -0.0826798 0)
(5.46292 -0.0797503 0)
(5.43812 -0.0759946 0)
(5.41611 -0.0722709 0)
(5.39545 -0.068967 0)
(5.37702 -0.0669755 0)
(4.95054 0.0731795 0)
(5.09955 0.000445596 0)
(5.09921 -0.00845127 0)
(4.97981 -0.0273026 0)
(4.82577 -0.0313157 0)
(4.69476 -0.0254984 0)
(4.58881 -0.0216818 0)
(4.4843 -0.0218581 0)
(4.36774 -0.0227327 0)
(4.24075 -0.0224523 0)
(4.1107 -0.0216029 0)
(3.98396 -0.0213592 0)
(3.86318 -0.0220151 0)
(3.74936 -0.0230537 0)
(3.64227 -0.0238476 0)
(3.54308 -0.0242577 0)
(3.44998 -0.0242308 0)
(3.36471 -0.0240242 0)
(-0.135158 0.350979 2.07515e-20)
(-0.427824 0.369145 -2.05707e-20)
(-0.679873 0.294222 0)
(-0.863814 0.205841 0)
(-0.960102 0.100589 0)
(-0.959516 -0.00571674 1.98775e-20)
(-0.878969 -0.107559 0)
(-0.717471 -0.19996 0)
(-0.480775 -0.272278 0)
(-0.187199 -0.32444 0)
(0.148589 -0.347632 -1.93064e-20)
(0.502638 -0.353656 0)
(0.853085 -0.343224 0)
(1.19085 -0.320194 0)
(1.50495 -0.288817 0)
(1.78884 -0.253358 -1.83935e-20)
(2.03985 -0.216691 0)
(2.25662 -0.180233 0)
(2.43933 -0.144691 0)
(2.58791 -0.110134 0)
(2.70314 -0.0765505 0)
(2.78536 -0.0435712 0)
(2.83387 -0.0104526 0)
(2.85057 0.0232133 -1.69314e-20)
(2.82997 0.0591232 1.67899e-20)
(2.77246 0.096807 -1.66589e-20)
(2.67734 0.137428 -1.65376e-20)
(2.54277 0.17786 0)
(2.36915 0.221188 0)
(2.14983 0.262534 1.62145e-20)
(1.89561 0.301232 1.61125e-20)
(1.58928 0.336188 0)
(1.26659 0.32505 0)
(0.923013 0.35377 1.57772e-20)
(0.536103 0.30436 0)
(0.242559 0.0644612 0)
(0.0561463 -0.0954863 -1.53697e-20)
(-0.074286 -0.102877 0)
(-0.159412 -0.0612592 -1.50894e-20)
(-0.194767 -0.0403477 -2.99031e-20)
(-0.186868 -0.0477375 0)
(-0.143833 -0.0673111 0)
(-0.0693893 -0.0854007 0)
(0.0378669 -0.0875222 0)
(0.171576 -0.0697231 0)
(0.311521 -0.035236 -2.83923e-20)
(0.445808 -0.000202176 -2.81336e-20)
(0.550153 0.0245286 -2.78725e-20)
(0.593897 0.0617568 0)
(0.650409 0.0981848 2.73257e-20)
(0.781292 0.0404063 0)
(0.935383 -0.205284 -2.68289e-20)
(1.0185 -0.497314 -2.6581e-20)
(1.014 -0.458478 0)
(0.852423 -0.0654575 0)
(0.394565 0.317245 0)
(-0.176008 0.418166 -2.55574e-20)
(-0.716466 0.408088 0)
(-1.22878 0.38331 0)
(-1.70431 0.354099 0)
(-2.14204 0.324123 0)
(-2.54336 0.295267 0)
(-2.91057 0.268449 0)
(-3.24651 0.243962 0)
(-3.55385 0.221769 0)
(-3.83506 0.201642 2.19346e-20)
(-4.09225 0.183249 0)
(-4.32713 0.166269 0)
(-4.54103 0.150411 -2.08007e-20)
(-4.73485 0.135415 -2.04514e-20)
(-4.90916 0.121003 0)
(-5.06407 0.106852 1.98023e-20)
(-5.19925 0.0926634 -1.95049e-20)
(-5.314 0.078263 0)
(-5.40744 0.0635997 1.89709e-20)
(-5.47862 0.0487188 0)
(-5.52658 0.0338007 0)
(-5.55041 0.0191736 -1.83372e-20)
(-5.54961 0.00520352 0)
(-5.52679 -0.00792151 1.80281e-20)
(-5.4815 -0.0201528 0)
(-5.41548 -0.0314607 -1.78013e-20)
(-5.32948 -0.041719 -1.77137e-20)
(-5.2256 -0.0508956 -1.76398e-20)
(-5.10513 -0.0590629 -3.51537e-20)
(-4.96975 -0.0662912 3.50448e-20)
(-4.82056 -0.0727937 0)
(-4.65849 -0.0786977 0)
(-4.48421 -0.0841257 0)
(-4.29832 -0.0890983 3.46944e-20)
(-4.10153 -0.0935661 3.46111e-20)
(-3.89476 -0.0974308 -3.45235e-20)
(-3.67921 -0.100579 0)
(-3.45632 -0.102917 3.43249e-20)
(-3.22774 -0.104396 3.42092e-20)
(-2.99517 -0.10502 3.40803e-20)
(-2.76031 -0.104858 0)
(-2.52467 -0.104029 0)
(-2.28942 -0.102686 0)
(-2.05542 -0.100961 3.34163e-20)
(-1.82329 -0.0989415 0)
(-1.59359 -0.0966736 0)
(-1.36689 -0.0941316 -3.27634e-20)
(-1.14394 -0.0912278 0)
(-0.925737 -0.0878483 0)
(-0.713572 -0.0838687 -3.19815e-20)
(-0.508996 -0.0791875 0)
(-0.313501 -0.0737958 0)
(-0.128446 -0.0678752 3.10722e-20)
(0.0438951 -0.0621563 3.07387e-20)
(0.203071 -0.0558759 0)
(0.349767 -0.0497326 -3.00307e-20)
(0.483747 -0.0438716 0)
(0.605678 -0.0384508 2.93012e-20)
(0.716528 -0.0335491 0)
(0.81742 -0.0291593 2.85647e-20)
(0.909442 -0.025202 2.81968e-20)
(0.993457 -0.0215309 0)
(1.06995 -0.0179856 0)
(1.13903 -0.0144533 0)
(1.20049 -0.0108355 0)
(1.25384 -0.00712766 0)
(1.29869 -0.00345244 0)
(1.33474 0.000166194 0)
(1.36179 0.00359318 2.53343e-20)
(1.38022 0.00652454 -2.49893e-20)
(1.39072 0.00917113 0)
(1.39323 0.0117783 0)
(1.38864 0.0140025 0)
(1.37819 0.0155676 0)
(1.36292 0.0165623 -4.66173e-20)
(1.3439 0.0171032 0)
(1.32204 0.0172427 4.53138e-20)
(1.29816 0.017009 -4.46704e-20)
(1.27299 0.0164471 0)
(1.24722 0.0156085 0)
(1.22148 0.014556 0)
(1.19629 0.013375 4.21501e-20)
(1.17204 0.0121528 4.15329e-20)
(1.14901 0.0109543 0)
(1.12734 0.00981965 4.0313e-20)
(1.10713 0.00876935 3.97102e-20)
(1.08839 0.00781078 -3.91119e-20)
(1.07115 0.00694572 0)
(1.05538 0.0061751 0)
(1.04106 0.00549911 -3.73433e-20)
(1.02812 0.00491538 0)
(1.01651 0.0044176 0)
(1.00613 0.00399557 0)
(0.996891 0.00363616 0)
(0.98869 0.00332503 3.4478e-20)
(0.981427 0.00304833 3.39166e-20)
(0.975007 0.00279536 0)
(0.969344 0.00255937 3.28052e-20)
(0.964348 0.00233649 0)
(0.959938 0.00212649 0)
(0.95602 0.00193566 3.11654e-20)
(0.952521 0.0017675 0)
(0.949345 0.00162526 3.00898e-20)
(0.946435 0.00151025 0)
(0.943686 0.00142263 0)
(0.941078 0.00135417 2.85015e-20)
(0.938457 0.0013058 0)
(0.935857 0.00127688 2.74589e-20)
(0.932991 0.00128692 0)
(0.930015 0.00133432 0)
(0.92639 0.00143817 0)
(0.922555 0.0015788 -2.54117e-20)
(0.917457 0.00180905 0)
(0.912076 0.00208545 2.4407e-20)
(0.904414 0.00253063 0)
(0.896302 0.00301073 0)
(0.884471 0.00385632 0)
(0.871105 0.00458553 0)
(0.853381 0.00632438 0)
(0.827919 0.00708782 0)
(0.806175 0.0113577 0)
(0.745301 0.0101689 -4.10615e-20)
(0.742911 0.0234987 0)
(0.569079 0.0111935 0)
(-0.0108705 0.77869 -6.22135e-20)
(-0.121835 0.721327 6.17124e-20)
(-0.209828 0.567769 0)
(-0.244308 0.34706 -4.04417e-20)
(-0.223052 0.0976124 0)
(-0.166122 -0.150054 -1.99221e-20)
(-0.0580114 -0.400221 3.95203e-20)
(0.117594 -0.643958 3.92308e-20)
(0.354847 -0.851324 0)
(0.630296 -0.993958 3.86575e-20)
(0.924081 -1.06297 1.92469e-20)
(1.21916 -1.07107 0)
(1.50719 -1.03153 0)
(1.77974 -0.959698 0)
(2.02991 -0.868982 0)
(2.25509 -0.769291 1.8358e-20)
(2.45435 -0.667075 0)
(2.62784 -0.565966 -3.5783e-20)
(2.77524 -0.467593 0)
(2.89708 -0.372313 0)
(2.99309 -0.279944 3.4687e-20)
(3.06361 -0.190008 0)
(3.1091 -0.101675 -3.40381e-20)
(3.12881 -0.0145237 1.69195e-20)
(3.12671 0.0726943 -1.67762e-20)
(3.10099 0.16024 1.66428e-20)
(3.05194 0.248767 1.65184e-20)
(2.97902 0.338109 0)
(2.8852 0.427565 0)
(2.7662 0.517997 -1.61824e-20)
(2.62807 0.602543 1.59761e-20)
(2.46169 0.683617 0)
(2.27611 0.737201 0)
(2.06736 0.766463 -1.57228e-20)
(1.83193 0.766349 0)
(1.619 0.696334 0)
(1.35495 0.581208 1.53161e-20)
(1.04308 0.431862 0)
(0.788973 0.250234 -1.50735e-20)
(0.619097 0.0808076 2.98676e-20)
(0.506616 -0.0395524 0)
(0.462061 -0.126218 0)
(0.47517 -0.204332 5.82388e-20)
(0.523639 -0.28159 5.77302e-20)
(0.619985 -0.345852 5.72151e-20)
(0.76965 -0.364237 -2.83392e-20)
(0.933273 -0.343346 2.80964e-20)
(1.1056 -0.257668 8.34281e-20)
(1.32592 -0.157766 -5.50602e-20)
(1.48303 -0.341032 -2.72869e-20)
(1.38727 -0.514834 0)
(1.03406 -0.150902 2.68395e-20)
(0.327921 0.416416 -2.65708e-20)
(-0.474036 0.75633 0)
(-1.11446 0.959328 0)
(-1.64904 1.05782 0)
(-2.1071 1.04547 2.54431e-20)
(-2.51558 0.987371 0)
(-2.88433 0.911932 -4.91946e-20)
(-3.21675 0.831851 0)
(-3.51587 0.753721 -4.76181e-20)
(-3.78545 0.68085 0)
(-4.02887 0.61451 4.60006e-20)
(-4.24932 0.554806 0)
(-4.44943 0.501254 -4.44081e-20)
(-4.63137 0.453044 2.17396e-20)
(-4.79689 0.409271 0)
(-4.94728 0.369027 4.21447e-20)
(-5.0835 0.331452 2.0775e-20)
(-5.20608 0.295738 2.04296e-20)
(-5.31522 0.2611 0)
(-5.41082 0.226797 1.96898e-20)
(-5.49251 0.192199 1.94926e-20)
(-5.55962 0.15683 0)
(-5.61126 0.120417 -1.89633e-20)
(-5.64641 0.0829467 3.73723e-20)
(-5.66405 0.0447149 0)
(-5.66337 0.00630518 1.83346e-20)
(-5.644 -0.0315675 0)
(-5.60337 -0.0681474 -5.40029e-20)
(-5.54253 -0.102789 0)
(-5.46167 -0.13493 5.33338e-20)
(-5.36265 -0.164156 1.77106e-20)
(-5.24657 -0.190298 -1.7587e-20)
(-5.11539 -0.2135 -3.50582e-20)
(-4.97034 -0.234091 3.49575e-20)
(-4.81261 -0.252586 0)
(-4.64288 -0.269448 0)
(-4.46164 -0.284991 0)
(-4.26929 -0.299278 -1.03999e-19)
(-4.06639 -0.312138 -3.46037e-20)
(-3.85379 -0.323254 3.45161e-20)
(-3.63263 -0.332271 0)
(-3.4044 -0.338893 3.42638e-20)
(-3.17074 -0.342964 -3.42019e-20)
(-2.9334 -0.34451 -3.40732e-20)
(-2.6941 -0.343737 0)
(-2.45432 -0.341018 0)
(-2.21519 -0.336821 0)
(-1.97748 -0.331566 -3.34105e-20)
(-1.7417 -0.325528 0)
(-1.50827 -0.318853 6.59428e-20)
(-1.27769 -0.311469 9.82419e-20)
(-1.05065 -0.303096 -6.49955e-20)
(-0.828196 -0.293356 0)
(-0.611644 -0.281894 -3.19562e-20)
(-0.402559 -0.268499 0)
(-0.202634 -0.253216 -6.2759e-20)
(-0.0138815 -0.236746 3.10557e-20)
(0.162083 -0.219789 3.072e-20)
(0.325278 -0.201863 0)
(0.475937 -0.184133 9.00573e-20)
(0.614459 -0.167186 -5.93106e-20)
(0.741838 -0.151552 -2.92931e-20)
(0.859316 -0.137552 0)
(0.968243 -0.125234 -2.85571e-20)
(1.06991 -0.114393 -8.45612e-20)
(1.16537 -0.104619 0)
(1.25532 -0.0954192 -5.49106e-20)
(1.34003 -0.0863404 -5.41865e-20)
(1.41932 -0.0770403 -5.34675e-20)
(1.4928 -0.0673685 0)
(1.55993 -0.0573906 0)
(1.62008 -0.0472585 0)
(1.67307 -0.0372427 2.5322e-20)
(1.71883 -0.0277503 2.49798e-20)
(1.75721 -0.0189291 0)
(1.78925 -0.010814 4.85933e-20)
(1.81583 -0.00373484 4.79202e-20)
(1.83745 0.00213839 0)
(1.85447 0.00691606 4.65935e-20)
(1.86749 0.0107414 9.18716e-20)
(1.87717 0.0136963 -4.52874e-20)
(1.88413 0.0158932 -4.46403e-20)
(1.88891 0.0174086 0)
(1.89193 0.0182921 0)
(1.89355 0.0186148 0)
(1.89409 0.0184646 -4.21199e-20)
(1.89378 0.0179504 4.15013e-20)
(1.89283 0.0171767 8.17786e-20)
(1.89138 0.0162276 -4.0282e-20)
(1.88957 0.0151628 3.96788e-20)
(1.88752 0.0140209 3.90809e-20)
(1.88532 0.0128272 0)
(1.8831 0.0116025 0)
(1.88099 0.0103678 -3.73131e-20)
(1.87914 0.00914588 0)
(1.8777 0.00796089 0)
(1.8768 0.00683638 7.11662e-20)
(1.87657 0.00579193 0)
(1.8771 0.00484062 3.44497e-20)
(1.87844 0.00398957 -3.38887e-20)
(1.88061 0.00324126 0)
(1.88359 0.00259391 3.27782e-20)
(1.88733 0.00204197 0)
(1.89176 0.0015955 0)
(1.89675 0.00123902 -3.11396e-20)
(1.90221 0.000959469 6.12009e-20)
(1.908 0.000750642 -3.00648e-20)
(1.91402 0.000602887 0)
(1.92014 0.000508717 0)
(1.92631 0.0004674 2.84776e-20)
(1.93237 0.000497521 0)
(1.93832 0.000598593 2.74358e-20)
(1.94393 0.000797675 0)
(1.94925 0.00106476 0)
(1.95393 0.0014566 0)
(1.95816 0.00189815 2.53905e-20)
(1.96137 0.00258612 0)
(1.96393 0.00326554 -2.43866e-20)
(1.96498 0.00447967 0)
(1.96488 0.00544071 0)
(1.96292 0.00771858 4.58089e-20)
(1.958 0.00891015 -4.48349e-20)
(1.9524 0.0135253 0)
(1.93716 0.0144201 0)
(1.92979 0.024551 0)
(1.88865 0.0228631 1.23063e-19)
(1.89216 0.0465545 0)
(1.78155 0.0369076 -7.83399e-20)
(0.113404 0.666183 -6.48225e-23)
(0.219646 0.815364 -8.23162e-20)
(0.33094 0.610671 0)
(0.442366 0.286134 8.09699e-20)
(0.555459 -0.0199432 0)
(0.686518 -0.301786 0)
(0.869063 -0.621018 7.16555e-23)
(1.08756 -0.953837 -3.90943e-20)
(1.31334 -1.23723 -3.87783e-20)
(1.53373 -1.42737 -3.85271e-20)
(1.73911 -1.51512 0)
(1.92595 -1.51343 0)
(2.09628 -1.44633 3.74171e-20)
(2.25232 -1.33838 7.41089e-20)
(2.39548 -1.20876 -7.33698e-20)
(2.52698 -1.07012 0)
(2.64758 -0.929536 -7.18785e-20)
(2.75703 -0.790407 3.57572e-20)
(2.85428 -0.653893 0)
(2.93773 -0.520142 -6.97134e-20)
(3.00593 -0.388812 -3.46791e-20)
(3.05731 -0.259628 6.83941e-20)
(3.09084 -0.132527 3.40372e-20)
(3.10529 -0.00744395 0)
(3.10042 0.115113 -6.66486e-20)
(3.07641 0.235412 -6.612e-20)
(3.03375 0.354368 0)
(2.97362 0.471956 -6.51534e-20)
(2.89852 0.587551 0)
(2.80969 0.701254 -6.42677e-20)
(2.7116 0.807435 -3.20332e-20)
(2.60382 0.906581 0)
(2.49131 0.981961 0)
(2.36936 1.02729 0)
(2.23547 1.03042 0)
(2.09449 0.972307 0)
(1.93674 0.876928 0)
(1.76383 0.740001 -6.06885e-20)
(1.5933 0.584993 9.027e-20)
(1.45534 0.414412 0)
(1.31724 0.204796 0)
(1.20057 -0.0183111 0)
(1.14682 -0.180297 9.2413e-23)
(1.15299 -0.288633 -5.76405e-20)
(1.20747 -0.446025 -1.14296e-19)
(1.32092 -0.54828 1.13196e-19)
(1.4848 -0.492073 5.60357e-20)
(1.51551 -0.632386 -5.55528e-20)
(1.32108 -0.572702 7.43617e-23)
(0.81752 0.109643 -5.45576e-20)
(-0.034225 0.808092 0)
(-0.781679 1.20763 -5.34577e-20)
(-1.39451 1.43656 2.08093e-22)
(-1.89184 1.52826 0)
(-2.27914 1.57385 0)
(-2.59059 1.56039 5.08484e-20)
(-2.84341 1.48943 0)
(-3.06423 1.38723 0)
(-3.26438 1.27226 -4.83696e-20)
(-3.45159 1.1569 -9.60155e-20)
(-3.62956 1.04786 4.75854e-20)
(-3.79989 0.947994 0)
(-3.96339 0.858052 -4.59886e-20)
(-4.12016 0.777544 0)
(-4.2702 0.705408 -4.3977e-20)
(-4.41331 0.640355 -4.36386e-20)
(-4.54927 0.581053 8.54229e-20)
(-4.67778 0.526213 4.18346e-20)
(-4.79845 0.474599 0)
(-4.91071 0.425021 -8.12497e-20)
(-5.01382 0.37635 0)
(-5.1068 0.327556 -1.18212e-19)
(-5.18843 0.277747 -7.75506e-20)
(-5.25718 0.226172 -7.64564e-20)
(-5.31132 0.172336 7.54444e-20)
(-5.34897 0.116125 -1.11912e-19)
(-5.36837 0.0578479 0)
(-5.36814 -0.00178038 0)
(-5.34739 -0.06169 7.23121e-20)
(-5.3057 -0.12048 1.07751e-19)
(-5.24369 -0.176621 0)
(-5.16246 -0.228754 -3.55473e-20)
(-5.06363 -0.276026 0)
(-4.94909 -0.318109 1.05545e-19)
(-4.82066 -0.355214 1.38708e-22)
(-4.67987 -0.388057 -1.25255e-22)
(-4.5277 -0.417554 -6.97071e-20)
(-4.36456 -0.444617 0)
(-4.19047 -0.469821 6.93803e-20)
(-4.00541 -0.493255 9.80953e-23)
(-3.80958 -0.514552 0)
(-3.60363 -0.533077 0)
(-3.38871 -0.548143 0)
(-3.16637 -0.559181 -6.85817e-20)
(-2.93845 -0.565885 0)
(-2.70688 -0.568281 0)
(-2.4735 -0.566717 0)
(-2.23991 -0.56184 0)
(-2.00718 -0.554482 0)
(-1.77583 -0.545405 -6.67033e-20)
(-1.54606 -0.535095 0)
(-1.31802 -0.523814 -6.59387e-20)
(-1.09198 -0.511415 -6.5479e-20)
(-0.868615 -0.497368 6.49914e-20)
(-0.649114 -0.480938 0)
(-0.435134 -0.46142 6.39313e-20)
(-0.228521 -0.438437 0)
(-0.0316119 -0.412279 6.27518e-20)
(0.153262 -0.383949 -6.21036e-20)
(0.324253 -0.354066 -1.84231e-19)
(0.480169 -0.323772 0)
(0.62044 -0.294476 -1.8001e-19)
(0.745747 -0.267119 -5.92642e-20)
(0.857995 -0.24234 0)
(0.959717 -0.220487 -1.15632e-19)
(1.05343 -0.201579 -1.14163e-19)
(1.14124 -0.185258 1.69057e-19)
(1.22464 -0.170839 0)
(1.30454 -0.157478 5.49015e-20)
(1.38126 -0.144352 5.41784e-20)
(1.45466 -0.130834 1.60363e-19)
(1.52426 -0.116629 0)
(1.58939 -0.101752 0)
(1.64933 -0.0864978 0)
(1.70344 -0.0713742 5.06313e-20)
(1.75137 -0.056859 0)
(1.79305 -0.0433914 0)
(1.82878 -0.0313712 -4.85895e-20)
(1.85921 -0.0209894 -4.7917e-20)
(1.88494 -0.0122323 0)
(1.90681 -0.00501763 0)
(1.92537 0.00074654 -9.18665e-20)
(1.94113 0.00520673 0)
(1.95453 0.00850836 8.92767e-20)
(1.96595 0.0107878 8.79952e-20)
(1.97577 0.0121782 0)
(1.98433 0.0128455 0)
(1.99197 0.0129779 -8.42275e-20)
(1.99898 0.0127337 -1.60644e-24)
(2.00556 0.0122382 -1.26566e-24)
(2.01182 0.0115877 0)
(2.01781 0.0108471 -1.58693e-19)
(2.02351 0.0100481 0)
(2.02889 0.00919711 0)
(2.0339 0.00828611 0)
(2.03854 0.00730317 7.46138e-20)
(2.04285 0.00624133 0)
(2.04693 0.00510263 -1.44598e-19)
(2.05092 0.00389873 -7.11536e-20)
(2.05502 0.00265 0)
(2.05943 0.0013832 -6.88869e-20)
(2.06435 0.000127917 0)
(2.06996 -0.00108426 0)
(2.07638 -0.00222565 -1.96632e-19)
(2.08369 -0.00326166 1.28889e-19)
(2.0919 -0.00417391 0)
(2.10097 -0.00493484 1.24534e-19)
(2.11084 -0.00552963 -6.11889e-20)
(2.12141 -0.00595906 0)
(2.13253 -0.00623471 0)
(2.14407 -0.0063706 0)
(2.1559 -0.00638594 -1.70829e-19)
(2.16789 -0.00627509 0)
(2.17993 -0.00605085 -5.48598e-20)
(2.19195 -0.00567594 0)
(2.20384 -0.00519481 0)
(2.21559 -0.00451036 0)
(2.227 -0.00374119 0)
(2.23821 -0.00261018 0)
(2.24873 -0.00148622 0)
(2.25908 0.000384688 -9.55286e-20)
(2.26801 0.00194003 0)
(2.27725 0.00522355 -4.57968e-20)
(2.28326 0.00724536 1.34461e-19)
(2.29134 0.013453 0)
(2.29156 0.0156588 0)
(2.29952 0.028134 -8.38768e-20)
(2.28759 0.0292411 -8.20097e-20)
(2.29954 0.0551676 8.01208e-20)
(2.26264 0.0533409 7.83098e-20)
(0.0756812 0.0916892 1.24812e-19)
(0.233188 0.285791 1.23829e-19)
(0.374458 0.140852 8.20016e-20)
(0.534308 -0.103498 4.07893e-20)
(0.746196 -0.399928 0)
(1.00959 -0.760418 -7.97582e-20)
(1.29324 -1.14244 3.95429e-20)
(1.55591 -1.4765 0)
(1.76731 -1.70707 3.87036e-20)
(1.92226 -1.81901 0)
(2.03366 -1.82805 -7.58913e-20)
(2.11938 -1.76305 0)
(2.19452 -1.65347 -3.73952e-20)
(2.26748 -1.52138 -7.40854e-20)
(2.34197 -1.37987 7.33615e-20)
(2.41913 -1.23511 0)
(2.49814 -1.08917 7.18897e-20)
(2.57672 -0.942158 0)
(2.65163 -0.793586 0)
(2.71963 -0.643001 6.97419e-20)
(2.77764 -0.490448 0)
(2.82349 -0.336337 -3.3334e-22)
(2.85577 -0.181689 0)
(2.87351 -0.0273071 0)
(2.87746 0.12542 2.95283e-22)
(2.86776 0.275829 6.6131e-20)
(2.84449 0.423254 6.53604e-20)
(2.80787 0.567514 6.51599e-20)
(2.75802 0.70729 0)
(2.69613 0.839527 1.283e-19)
(2.62111 0.96176 0)
(2.53671 1.06682 6.32141e-20)
(2.44224 1.1503 0)
(2.34202 1.19899 0)
(2.23876 1.2048 -6.19994e-20)
(2.12748 1.16502 0)
(2.02596 1.06255 6.11544e-20)
(1.9067 0.952604 -6.80164e-23)
(1.79975 0.780201 -1.20428e-19)
(1.68266 0.561211 1.19626e-19)
(1.56639 0.391622 0)
(1.51301 0.136991 0)
(1.37172 -0.134608 5.8531e-20)
(1.29806 -0.345183 0)
(1.42283 -0.550452 5.71323e-20)
(1.46213 -0.824177 -5.65785e-20)
(1.26303 -0.695378 -5.6093e-20)
(0.65015 0.160558 0)
(-0.190483 0.917916 5.50556e-20)
(-0.878686 1.40121 5.44765e-20)
(-1.44795 1.71299 -1.07499e-19)
(-1.88312 1.88694 5.32746e-20)
(-2.21647 1.96006 5.26841e-20)
(-2.46523 1.95884 0)
(-2.65886 1.90886 0)
(-2.81335 1.8238 -5.0804e-20)
(-2.94945 1.71432 0)
(-3.07755 1.59348 0)
(-3.20471 1.47062 9.74794e-20)
(-3.33308 1.3515 9.60073e-20)
(-3.4637 1.23959 0)
(-3.59568 1.13624 0)
(-3.72814 1.04163 0)
(-3.85979 0.955241 0)
(-3.98957 0.87612 8.84094e-20)
(-4.11644 0.80315 -8.64989e-20)
(-4.23956 0.73514 -8.5452e-20)
(-4.35812 0.670878 -1.67677e-19)
(-4.47141 0.609137 0)
(-4.5786 0.548655 3.36606e-22)
(-4.67872 0.488138 0)
(-4.77052 0.426285 7.87547e-20)
(-4.85238 0.361873 3.30312e-22)
(-4.92233 0.293902 7.64934e-20)
(-4.97809 0.221745 -7.54825e-20)
(-5.01735 0.145327 3.35452e-22)
(-5.03798 0.0652448 0)
(-5.03839 -0.0172741 -7.26737e-20)
(-5.0178 -0.100374 -7.23481e-20)
(-4.97618 -0.181738 -1.43288e-19)
(-4.9143 -0.25906 0)
(-4.83386 -0.330393 7.06819e-20)
(-4.73701 -0.394444 0)
(-4.62615 -0.450846 -1.4047e-19)
(-4.50342 -0.500106 7.01042e-20)
(-4.37041 -0.543463 -6.99036e-20)
(-4.22787 -0.582532 6.97228e-20)
(-4.07568 -0.618824 1.38839e-19)
(-3.91315 -0.653278 -6.9391e-20)
(-3.73948 -0.685973 6.9229e-20)
(-3.55437 -0.716174 0)