/*--------------------------------*- C++ -*----------------------------------*\
  =========                 |
  \\      /  F ield         | OpenFOAM: The Open Source CFD Toolbox
   \\    /   O peration     | Website:  https://openfoam.org
    \\  /    A nd           | Version:  7
     \\/     M anipulation  |
\*---------------------------------------------------------------------------*/
FoamFile
{
    version     2.0;
    format      ascii;
    class       volVectorField;
    location    "0.069";
    object      U_0;
}
// * * * * * * * * * * * * * * * * * * * * * * * * * * * * * * * * * * * * * //

dimensions      [0 1 -1 0 0 0 0];

internalField   nonuniform List<vector> 
12225
(
(4.75409 0.117806 0)
(4.22565 0.0912255 0)
(3.73734 0.0911592 0)
(3.319 0.0818852 0)
(2.93155 0.0677187 0)
(2.59349 0.0531444 0)
(2.3109 0.043945 0)
(2.06792 0.0398764 0)
(1.845 0.0379338 0)
(1.63324 0.0349591 0)
(1.43517 0.0294803 0)
(1.26071 0.0229095 0)
(1.11016 0.0163816 0)
(0.988723 0.0110386 0)
(0.878569 0.00855785 0)
(0.786983 0.0094695 0)
(0.682026 0.0144092 0)
(0.556714 0.0156115 0)
(5.11246 0.0768165 0)
(4.93061 0.0804463 0)
(4.78411 0.112189 0)
(4.67976 0.111361 0)
(4.55415 0.109169 0)
(4.42076 0.102241 0)
(4.30807 0.0920302 0)
(4.21175 0.0856736 0)
(4.10846 0.0848411 0)
(3.985 0.0858608 0)
(3.84348 0.0848846 0)
(3.70029 0.0803666 0)
(3.56262 0.0738589 0)
(3.44245 0.0673984 0)
(3.32568 0.0658538 0)
(3.2113 0.066823 0)
(3.08167 0.0810778 0)
(2.93034 0.0912807 0)
(5.00392 0.115543 0)
(4.91266 0.112192 0)
(4.78537 0.138821 0)
(4.69099 0.141621 0)
(4.64387 0.135584 0)
(4.63188 0.1172 0)
(4.63673 0.097728 0)
(4.64623 0.0914637 0)
(4.65431 0.0993718 0)
(4.65464 0.112577 0)
(4.64143 0.121665 0)
(4.61181 0.122234 0)
(4.56795 0.114545 0)
(4.51309 0.104146 0)
(4.45431 0.0997453 0)
(4.38926 0.10312 0)
(4.32941 0.120694 0)
(4.25635 0.151525 0)
(5.02396 0.139474 0)
(4.88296 0.132755 0)
(4.76996 0.163889 0)
(4.74545 0.156079 0)
(4.75966 0.135125 0)
(4.76919 0.111004 0)
(4.75688 0.0917429 0)
(4.73295 0.0832575 0)
(4.71867 0.0851746 0)
(4.72301 0.0929126 0)
(4.74044 0.10088 0)
(4.75763 0.105656 0)
(4.76594 0.106986 0)
(4.75859 0.106499 0)
(4.74065 0.109684 0)
(4.71465 0.118334 0)
(4.69343 0.137479 0)
(4.67504 0.167631 0)
(5.0099 0.176265 0)
(4.91866 0.160442 0)
(4.88609 0.161803 0)
(4.86745 0.145424 0)
(4.86056 0.129291 0)
(4.86382 0.114038 0)
(4.86551 0.102824 0)
(4.8582 0.0984612 0)
(4.84523 0.0993108 0)
(4.83314 0.102509 0)
(4.82532 0.106239 0)
(4.8198 0.109801 0)
(4.8132 0.113129 0)
(4.80187 0.11598 0)
(4.78741 0.12072 0)
(4.77374 0.12917 0)
(4.76665 0.143808 0)
(4.77098 0.168515 0)
(4.97959 0.189004 0)
(4.9605 0.160623 0)
(4.91935 0.16298 0)
(4.87796 0.163921 0)
(4.85514 0.146662 0)
(4.84811 0.120244 0)
(4.85081 0.100359 0)
(4.85525 0.0929919 0)
(4.85505 0.0947333 0)
(4.8469 0.100716 0)
(4.83219 0.107661 0)
(4.816 0.113958 0)
(4.80346 0.118782 0)
(4.79694 0.122065 0)
(4.79612 0.125233 0)
(4.80044 0.130825 0)
(4.80925 0.140442 0)
(4.82315 0.158354 0)
(4.99599 0.217492 0)
(4.93401 0.178875 0)
(4.86597 0.171609 0)
(4.85992 0.160003 0)
(4.88286 0.137231 0)
(4.89855 0.111216 0)
(4.89758 0.0943996 0)
(4.88191 0.0929044 0)
(4.85826 0.102056 0)
(4.8338 0.113162 0)
(4.81464 0.120346 0)
(4.80495 0.122439 0)
(4.80649 0.120796 0)
(4.81683 0.118181 0)
(4.83263 0.117548 0)
(4.84993 0.1219 0)
(4.86811 0.131962 0)
(4.8861 0.149203 0)
(5.05383 0.267552 0)
(4.97896 0.228174 0)
(4.95024 0.180439 0)
(4.96045 0.152767 0)
(4.95454 0.138924 0)
(4.92038 0.125517 0)
(4.88203 0.113643 0)
(4.85799 0.109371 0)
(4.85085 0.112256 0)
(4.85394 0.116916 0)
(4.8598 0.118894 0)
(4.86416 0.117319 0)
(4.86698 0.113508 0)
(4.86871 0.109899 0)
(4.87163 0.108501 0)
(4.87737 0.111833 0)
(4.88879 0.119365 0)
(4.90751 0.132451 0)
(4.9465 0.283477 0)
(5.05724 0.215888 0)
(5.04252 0.171008 0)
(4.96028 0.155443 0)
(4.89109 0.15159 0)
(4.8607 0.1379 0)
(4.85364 0.117687 0)
(4.85281 0.105117 0)
(4.85628 0.104871 0)
(4.86772 0.111553 0)
(4.88692 0.11811 0)
(4.90953 0.121043 0)
(4.93044 0.120048 0)
(4.94582 0.116955 0)
(4.95443 0.113617 0)
(4.95861 0.112927 0)
(4.96212 0.114586 0)
(4.96993 0.120021 0)
(5.12601 0.312955 0)
(5.10552 0.224821 0)
(5.05772 0.208327 0)
(5.00029 0.202303 0)
(4.95227 0.179119 0)
(4.91451 0.147143 0)
(4.88005 0.121847 0)
(4.8498 0.10834 0)
(4.83443 0.102234 0)
(4.84145 0.0980121 0)
(4.86798 0.0941045 0)
(4.90393 0.0919801 0)
(4.93779 0.0925956 0)
(4.96159 0.096161 0)
(4.97331 0.101021 0)
(4.97607 0.106767 0)
(4.97691 0.110923 0)
(4.98114 0.113552 0)
(5.08815 0.337319 0)
(5.09872 0.242329 0)
(5.05254 0.213549 0)
(5.00211 0.203552 0)
(4.9702 0.190317 0)
(4.94877 0.16953 0)
(4.93071 0.146672 0)
(4.91604 0.126486 0)
(4.90924 0.109117 0)
(4.91212 0.0942471 0)
(4.92206 0.0838759 0)
(4.93519 0.0807836 0)
(4.94913 0.0851122 0)
(4.96297 0.0942236 0)
(4.97895 0.103723 0)
(4.99636 0.110223 0)
(5.01917 0.111179 0)
(5.0419 0.106932 0)
(5.0527 0.283877 0)
(5.00133 0.272043 0)
(4.9465 0.246263 0)
(4.93111 0.224251 0)
(4.94437 0.197682 0)
(4.9603 0.169158 0)
(4.96828 0.144355 0)
(4.96952 0.12392 0)
(4.96875 0.106035 0)
(4.96844 0.0910135 0)
(4.96926 0.0809007 0)
(4.97169 0.0767403 0)
(4.97776 0.0771945 0)
(4.98891 0.0793001 0)
(5.00682 0.0807619 0)
(5.03045 0.0804688 0)
(5.05846 0.0781166 0)
(5.08818 0.0754777 0)
(4.96837 0.312085 0)
(5.02066 0.281982 0)
(5.01657 0.241357 0)
(4.99593 0.209193 0)
(4.97613 0.179972 0)
(4.95911 0.155503 0)
(4.94603 0.137374 0)
(4.93735 0.122652 0)
(4.93253 0.108125 0)
(4.93036 0.0937701 0)
(4.93073 0.0820824 0)
(4.93376 0.0752229 0)
(4.94041 0.0729303 0)
(4.95101 0.0729764 0)
(4.96592 0.0725399 0)
(4.98511 0.0703263 0)
(5.007 0.0650631 0)
(5.03205 0.0584658 0)
(4.99469 0.302972 0)
(5.01225 0.28277 0)
(4.97964 0.263847 0)
(4.97895 0.237551 0)
(4.9806 0.213891 0)
(4.96514 0.188772 0)
(4.94908 0.161557 0)
(4.9475 0.134202 0)
(4.9586 0.108897 0)
(4.97179 0.0886624 0)
(4.97939 0.0754891 0)
(4.98058 0.0685437 0)
(4.97944 0.0647354 0)
(4.98094 0.0609167 0)
(4.98771 0.0550236 0)
(5.00067 0.0479036 0)
(5.01744 0.0393863 0)
(5.03767 0.0326044 0)
(4.98642 0.322846 0)
(4.97899 0.316625 0)
(4.98398 0.258265 0)
(4.99509 0.208957 0)
(4.99972 0.189647 0)
(4.99327 0.174296 0)
(4.9885 0.147897 0)
(4.9891 0.116891 0)
(4.9888 0.0933555 0)
(4.98242 0.0826425 0)
(4.97149 0.0810677 0)
(4.96169 0.0811103 0)
(4.95812 0.0770798 0)
(4.96191 0.0679652 0)
(4.9711 0.054796 0)
(4.98201 0.0403711 0)
(4.99309 0.0255126 0)
(5.00181 0.0114763 0)
(4.94556 0.291681 0)
(4.96897 0.276214 0)
(4.99503 0.238409 0)
(5.02525 0.220402 0)
(5.03816 0.211973 0)
(5.0342 0.193357 0)
(5.02735 0.162824 0)
(5.02196 0.132549 0)
(5.01882 0.112049 0)
(5.01991 0.0999964 0)
(5.0264 0.0889857 0)
(5.03733 0.0740483 0)
(5.05065 0.0560552 0)
(5.06414 0.0393793 0)
(5.07655 0.0273629 0)
(5.0866 0.0201911 0)
(5.09496 0.0157259 0)
(5.10078 0.010451 0)
(5.02774 0.395622 0)
(5.03065 0.319466 0)
(5.01675 0.21944 0)
(5.02207 0.181575 0)
(5.02592 0.184703 0)
(5.02568 0.1851 0)
(5.02448 0.165522 0)
(5.02049 0.132576 0)
(5.01664 0.100494 0)
(5.01677 0.078038 0)
(5.02007 0.065221 0)
(5.02319 0.0573854 0)
(5.02399 0.049921 0)
(5.02267 0.0406081 0)
(5.02091 0.0291151 0)
(5.02057 0.0164612 0)
(5.02247 0.00334065 0)
(5.02697 -0.0091928 0)
(4.90224 0.323002 0)
(4.95241 0.24412 0)
(4.95884 0.214247 0)
(4.95474 0.211752 0)
(4.95482 0.204968 0)
(4.97182 0.187461 0)
(4.99558 0.162463 0)
(5.01186 0.134859 0)
(5.02036 0.109753 0)
(5.02702 0.0899229 0)
(5.03528 0.074776 0)
(5.0449 0.0620952 0)
(5.05453 0.0500452 0)
(5.06184 0.0379902 0)
(5.06577 0.0260288 0)
(5.06518 0.0143833 0)
(5.06185 0.00325609 0)
(5.0556 -0.00808161 0)
(4.99819 0.260203 0)
(4.97177 0.251186 0)
(4.97728 0.235158 0)
(4.99176 0.200445 0)
(5.0108 0.157964 0)
(5.03536 0.12669 0)
(5.05812 0.109289 0)
(5.07512 0.095831 0)
(5.09074 0.0783468 0)
(5.10732 0.0569001 0)
(5.12281 0.0369663 0)
(5.13469 0.0239459 0)
(5.14249 0.0196396 0)
(5.14597 0.0221384 0)
(5.14613 0.0270982 0)
(5.14354 0.0301926 0)
(5.14023 0.0286895 0)
(5.13651 0.021039 0)
(4.98956 0.343208 0)
(4.96485 0.24953 0)
(4.97593 0.189494 0)
(5.0022 0.153569 0)
(5.02543 0.132831 0)
(5.03671 0.117546 0)
(5.04559 0.096962 0)
(5.05737 0.0713656 0)
(5.07155 0.0467626 0)
(5.08505 0.0281779 0)
(5.09528 0.018165 0)
(5.1016 0.0166862 0)
(5.10516 0.0208765 0)
(5.10712 0.0265883 0)
(5.10846 0.0296221 0)
(5.10951 0.0278076 0)
(5.11113 0.0204163 0)
(5.11321 0.00850422 0)
(5.01776 0.337049 0)
(5.03743 0.24723 0)
(5.06045 0.169585 0)
(5.07521 0.139102 0)
(5.0999 0.115504 0)
(5.12996 0.0933356 0)
(5.15309 0.0720907 0)
(5.16208 0.0514174 0)
(5.15665 0.0325662 0)
(5.14245 0.0179611 0)
(5.12785 0.00976468 0)
(5.11947 0.00841776 0)
(5.12024 0.0122554 0)
(5.12878 0.0184633 0)
(5.14213 0.0232265 0)
(5.15565 0.0237532 0)
(5.16762 0.0186557 0)
(5.17445 0.007212 0)
(5.0257 0.282461 0)
(5.03085 0.221139 0)
(5.04093 0.152264 0)
(5.04787 0.116983 0)
(5.07056 0.0920156 0)
(5.10132 0.0757014 0)
(5.12987 0.0717211 0)
(5.15123 0.0752444 0)
(5.16218 0.0763608 0)
(5.16363 0.0679229 0)
(5.16038 0.0497974 0)
(5.1582 0.0275134 0)
(5.16202 0.00766828 0)
(5.17302 -0.00550402 0)
(5.19079 -0.0110517 0)
(5.21251 -0.0115264 0)
(5.2363 -0.0101909 0)
(5.25808 -0.0105136 0)
(4.98707 0.26085 0)
(4.99203 0.220194 0)
(5.01244 0.14791 0)
(5.04548 0.0934399 0)
(5.07178 0.0531116 0)
(5.09403 0.023071 0)
(5.11947 0.00816997 0)
(5.15121 0.0073348 0)
(5.18669 0.0131745 0)
(5.22069 0.0176008 0)
(5.24824 0.0149567 0)
(5.26596 0.00504657 0)
(5.27348 -0.00887185 0)
(5.27404 -0.0234235 0)
(5.27122 -0.0361106 0)
(5.26788 -0.0458258 0)
(5.26548 -0.0527955 0)
(5.26555 -0.0574524 0)
(4.9488 0.233619 0)
(4.98689 0.184877 0)
(5.06429 0.128085 0)
(5.13197 0.0990319 0)
(5.16255 0.0739035 0)
(5.16011 0.0468142 0)
(5.14512 0.0265205 0)
(5.13757 0.0169705 0)
(5.14662 0.0143404 0)
(5.16954 0.0116428 0)
(5.19893 0.00749413 0)
(5.2288 0.00275694 0)
(5.25419 -0.00111779 0)
(5.27168 -0.0031064 0)
(5.2804 -0.0043902 0)
(5.28107 -0.00634931 0)
(5.27627 -0.010165 0)
(5.26785 -0.0169724 0)
(4.85232 0.263704 0)
(4.94222 0.0999803 0)
(5.00916 0.0381513 0)
(5.07495 0.0204834 0)
(5.14069 0.0212549 0)
(5.19734 0.0217849 0)
(5.23169 0.0132887 0)
(5.24169 -0.00152447 0)
(5.23611 -0.0170817 0)
(5.22975 -0.0307453 0)
(5.23336 -0.0418183 0)
(5.24765 -0.0490183 0)
(5.26943 -0.0513329 0)
(5.2941 -0.0490619 0)
(5.31843 -0.0440087 0)
(5.33945 -0.0387232 0)
(5.35709 -0.0352008 0)
(5.37 -0.0351308 0)
(5.0904 0.17066 0)
(5.10831 0.093025 0)
(5.14913 0.0781003 0)
(5.1785 0.0458164 0)
(5.20225 0.0113269 0)
(5.22452 -0.00368306 0)
(5.24174 0.00370226 0)
(5.25531 0.0177096 0)
(5.27005 0.0219814 0)
(5.28808 0.0129421 0)
(5.30852 -0.0057952 0)
(5.32908 -0.025995 0)
(5.34695 -0.040342 0)
(5.3607 -0.0464571 0)
(5.37105 -0.0462172 0)
(5.37906 -0.0429942 0)
(5.38604 -0.0399321 0)
(5.39232 -0.0388956 0)
(5.0417 0.191002 0)
(5.05274 0.0496308 0)
(5.1579 0.00627452 0)
(5.24548 -0.00515814 0)
(5.29228 -0.0121421 0)
(5.3096 -0.0141106 0)
(5.31607 -0.0134384 0)
(5.3295 -0.0184816 0)
(5.3566 -0.0335533 0)
(5.3895 -0.0539658 0)
(5.4162 -0.0706716 0)
(5.43112 -0.0787363 0)
(5.43607 -0.0779254 0)
(5.43583 -0.0709935 0)
(5.43518 -0.0619519 0)
(5.43622 -0.0542443 0)
(5.44003 -0.0497843 0)
(5.44491 -0.0493851 0)
(5.01148 0.165051 0)
(5.19708 0.0709896 0)
(5.29766 0.0308565 0)
(5.33446 -0.00666197 0)
(5.34762 -0.0212359 0)
(5.36918 -0.0139766 0)
(5.40284 -0.00379789 0)
(5.44204 -0.00244648 0)
(5.47884 -0.00993096 0)
(5.5064 -0.0212232 0)
(5.52197 -0.0315878 0)
(5.52869 -0.038904 0)
(5.53254 -0.0430794 0)
(5.53824 -0.0448422 0)
(5.54784 -0.0449959 0)
(5.56046 -0.0446785 0)
(5.57461 -0.0445534 0)
(5.58725 -0.0453671 0)
(5.03788 -0.000790753 0)
(5.24593 -0.0439845 0)
(5.37744 -0.0172438 0)
(5.42411 -0.0334408 0)
(5.43322 -0.0476414 0)
(5.44525 -0.0485122 0)
(5.47114 -0.0482335 0)
(5.50231 -0.0551031 0)
(5.52597 -0.0664387 0)
(5.53402 -0.0765524 0)
(5.52558 -0.0823056 0)
(5.50571 -0.0837314 0)
(5.48053 -0.082289 0)
(5.45485 -0.0793251 0)
(5.43057 -0.0755647 0)
(5.40906 -0.0718621 0)
(5.38883 -0.0686051 0)
(5.37073 -0.0666832 0)
(4.93859 0.0731201 0)
(5.0811 0.000538113 0)
(5.08285 -0.0085061 0)
(4.96439 -0.0271351 0)
(4.81175 -0.0308619 0)
(4.68265 -0.0250481 0)
(4.57803 -0.02138 0)
(4.47408 -0.0216503 0)
(4.35775 -0.0225345 0)
(4.23104 -0.0222528 0)
(4.10142 -0.0214448 0)
(3.97517 -0.0212717 0)
(3.85489 -0.0219856 0)
(3.74153 -0.0230494 0)
(3.63488 -0.0238431 0)
(3.5361 -0.0242417 0)
(3.44337 -0.0241982 0)
(3.35842 -0.0239776 0)
(-0.135211 0.351071 -8.73259e-21)
(-0.428004 0.369265 8.67811e-21)
(-0.680234 0.294397 0)
(-0.864331 0.205998 0)
(-0.960728 0.100712 0)
(-0.960171 -0.00568707 -8.48304e-21)
(-0.879515 -0.10767 0)
(-0.717744 -0.200208 0)
(-0.480719 -0.272526 0)
(-0.186852 -0.32461 0)
(0.149143 -0.347716 8.04407e-21)
(0.503291 -0.353633 0)
(0.853725 -0.3431 0)
(1.19137 -0.319994 0)
(1.50527 -0.288573 0)
(1.78893 -0.2531 7.79279e-21)
(2.0397 -0.216437 0)
(2.25623 -0.179989 0)
(2.43871 -0.14446 0)
(2.58706 -0.109912 0)
(2.70208 -0.076336 0)
(2.78407 -0.0433536 0)
(2.83238 -0.0102269 0)
(2.84883 0.0234508 7.55794e-21)
(2.82798 0.0593882 -7.49827e-21)
(2.77021 0.0971048 7.43094e-21)
(2.67479 0.137753 7.3568e-21)
(2.53993 0.178189 0)
(2.36596 0.22153 0)
(2.14633 0.262785 -7.11027e-21)
(1.89183 0.301414 -7.02795e-21)
(1.58531 0.335992 0)
(1.26282 0.324706 0)
(0.919218 0.353743 -6.82317e-21)
(0.53262 0.303593 0)
(0.239749 0.0635547 0)
(0.0536735 -0.0956485 6.69218e-21)
(-0.0765353 -0.102708 0)
(-0.161429 -0.0611586 6.58156e-21)
(-0.196562 -0.0404185 1.30493e-20)
(-0.188467 -0.0479207 0)
(-0.145287 -0.0675204 0)
(-0.0707197 -0.0855675 0)
(0.0367041 -0.0875833 0)
(0.170529 -0.0695801 0)
(0.310389 -0.0348381 1.22528e-20)
(0.444449 0.000233913 1.21257e-20)
(0.548116 0.0248423 1.20064e-20)
(0.591628 0.06215 0)
(0.649271 0.0979899 -1.17921e-20)
(0.781031 0.0386898 0)
(0.934658 -0.208807 1.15132e-20)
(1.01656 -0.499022 1.13852e-20)
(1.01089 -0.455879 0)
(0.846449 -0.0603165 0)
(0.385609 0.320013 0)
(-0.185102 0.418526 1.10502e-20)
(-0.725305 0.407992 0)
(-1.23716 0.383006 0)
(-1.71212 0.35368 0)
(-2.14922 0.323653 0)
(-2.5499 0.294788 0)
(-2.91652 0.267991 0)
(-3.2519 0.243541 0)
(-3.55874 0.22139 0)
(-3.8395 0.201307 -1.13501e-20)
(-4.09629 0.182955 0)
(-4.33081 0.16601 0)
(-4.54439 0.150179 1.14526e-20)
(-4.73792 0.135203 1.14653e-20)
(-4.91195 0.12081 0)
(-5.06661 0.106678 -1.14515e-20)
(-5.20155 0.0925108 1.14225e-20)
(-5.3161 0.078131 0)
(-5.40935 0.0634885 -1.13137e-20)
(-5.48039 0.0486306 0)
(-5.52823 0.0337375 0)
(-5.55197 0.0191359 1.10077e-20)
(-5.55114 0.00518739 0)
(-5.5283 -0.00792263 -1.07043e-20)
(-5.48302 -0.0201427 0)
(-5.41701 -0.0314434 1.03302e-20)
(-5.33105 -0.0416978 1.01217e-20)
(-5.2272 -0.0508702 9.90211e-21)
(-5.10677 -0.0590336 1.93482e-20)
(-4.97144 -0.0662566 -1.88801e-20)
(-4.82232 -0.0727529 0)
(-4.66033 -0.0786512 0)
(-4.48613 -0.0840753 0)
(-4.30034 -0.0890476 -1.69676e-20)
(-4.10364 -0.0935194 -1.64958e-20)
(-3.89695 -0.0973924 1.60322e-20)
(-3.68146 -0.100552 0)
(-3.45861 -0.102904 -1.51398e-20)
(-3.23003 -0.104397 -1.47154e-20)
(-2.99745 -0.105035 -1.43076e-20)
(-2.76254 -0.104884 0)
(-2.52683 -0.104064 0)
(-2.2915 -0.102726 0)
(-2.05741 -0.101002 -1.28567e-20)
(-1.82519 -0.0989797 0)
(-1.59541 -0.0967055 0)
(-1.36865 -0.0941541 1.19548e-20)
(-1.14566 -0.0912388 0)
(-0.927445 -0.0878467 0)
(-0.715294 -0.0838545 1.12072e-20)
(-0.510758 -0.0791615 0)
(-0.315328 -0.0737601 0)
(-0.130357 -0.0678332 -1.06107e-20)
(0.0418848 -0.0621134 -1.04402e-20)
(0.200958 -0.0558319 0)
(0.347557 -0.049691 1.01307e-20)
(0.481447 -0.0438346 0)
(0.603302 -0.0384198 -9.85774e-21)
(0.71409 -0.0335242 0)
(0.814934 -0.0291398 -9.60803e-21)
(0.906922 -0.0251862 -9.48859e-21)
(0.990911 -0.0215166 0)
(1.06738 -0.0179708 0)
(1.13644 -0.0144365 0)
(1.19785 -0.0108159 0)
(1.25116 -0.00710582 0)
(1.29596 -0.00342953 0)
(1.33196 0.000189061 0)
(1.35895 0.00361342 -8.5847e-21)
(1.37733 0.00654092 8.47475e-21)
(1.38777 0.00918541 0)
(1.39024 0.0117895 0)
(1.38562 0.0140083 0)
(1.37514 0.0155684 0)
(1.35986 0.0165598 1.58561e-20)
(1.34083 0.0170983 0)
(1.31898 0.0172359 -1.54203e-20)
(1.2951 0.0170005 1.52026e-20)
(1.26995 0.0164373 0)
(1.24419 0.0155979 0)
(1.21847 0.0145451 0)
(1.1933 0.0133644 -1.43337e-20)
(1.16908 0.012143 -1.41169e-20)
(1.14606 0.0109456 0)
(1.12442 0.00981216 -1.36843e-20)
(1.10422 0.00876304 -1.34685e-20)
(1.0855 0.00780559 1.32532e-20)
(1.06827 0.00694153 0)
(1.05252 0.00617181 0)
(1.03821 0.00549659 1.26107e-20)
(1.02528 0.0049135 0)
(1.01368 0.0044162 0)
(1.00331 0.0039945 0)
(0.994078 0.00363527 0)
(0.985884 0.00332419 -1.15537e-20)
(0.978629 0.00304745 -1.13447e-20)
(0.972216 0.00279439 0)
(0.966559 0.00255827 -1.09289e-20)
(0.961569 0.00233526 0)
(0.957164 0.00212524 0)
(0.953251 0.00193446 -1.03113e-20)
(0.949756 0.0017664 0)
(0.946583 0.00162427 -9.90391e-21)
(0.943677 0.0015094 0)
(0.940929 0.00142187 0)
(0.938324 0.00135342 -9.29946e-21)
(0.935705 0.00130502 0)
(0.933107 0.00127608 -8.901e-21)
(0.930243 0.00128612 0)
(0.927268 0.00133352 0)
(0.923645 0.00143734 0)
(0.919812 0.00157796 8.11472e-21)
(0.914716 0.00180819 0)
(0.909337 0.00208455 -7.72661e-21)
(0.901678 0.00252967 0)
(0.893569 0.00300968 0)
(0.881742 0.00385511 0)
(0.868381 0.00458408 0)
(0.850664 0.00632258 0)
(0.82521 0.00708542 0)
(0.803479 0.0113543 0)
(0.742625 0.0101639 1.24048e-20)
(0.740268 0.0234887 0)
(0.566521 0.0111687 0)
(-0.0110215 0.779098 2.62422e-20)
(-0.122353 0.721807 -2.60906e-20)
(-0.210584 0.568267 0)
(-0.245255 0.347439 1.72465e-20)
(-0.224253 0.0978481 0)
(-0.167516 -0.150204 8.50202e-21)
(-0.0594578 -0.400911 -1.6911e-20)
(0.116254 -0.645071 -1.6746e-20)
(0.353794 -0.852519 0)
(0.629469 -0.994888 -1.63631e-20)
(0.9234 -1.06348 -8.01927e-21)
(1.21855 -1.07116 0)
(1.50661 -1.03128 0)
(1.7791 -0.959211 0)
(2.02917 -0.868361 0)
(2.25425 -0.768617 -7.77778e-21)
(2.45339 -0.666398 0)
(2.62676 -0.565312 1.5639e-20)
(2.77403 -0.46697 0)
(2.89576 -0.371717 0)
(2.99164 -0.279367 -1.54806e-20)
(3.06203 -0.189437 0)
(3.10736 -0.101096 1.53162e-20)
(3.12695 -0.0139273 -7.55264e-21)
(3.12471 0.0733202 7.49215e-21)
(3.09883 0.160901 -7.42375e-21)
(3.0496 0.249471 -7.34827e-21)
(2.97652 0.338833 0)
(2.88251 0.4283 0)
(2.7633 0.518686 7.09616e-21)
(2.62497 0.603114 -7.11711e-21)
(2.45831 0.683952 0)
(2.27257 0.737107 0)
(2.06356 0.766121 6.79966e-21)
(1.82827 0.765738 0)
(1.6155 0.695554 0)
(1.35131 0.580475 -6.66885e-21)
(1.03978 0.431061 0)
(0.786179 0.249393 6.56233e-21)
(0.616638 0.0802258 -1.30338e-20)
(0.504542 -0.0399104 0)
(0.460359 -0.126487 0)
(0.473587 -0.204573 -2.53011e-20)
(0.522138 -0.281904 -2.50316e-20)
(0.618753 -0.345995 -2.47633e-20)
(0.76851 -0.364015 1.22611e-20)
(0.93205 -0.342867 -1.21096e-20)
(1.10496 -0.256507 -3.60326e-20)
(1.32588 -0.158478 2.38148e-20)
(1.48088 -0.345007 1.17755e-20)
(1.38212 -0.514178 0)
(1.0256 -0.14428 -1.15179e-20)
(0.315846 0.421775 1.14637e-20)
(-0.484764 0.759378 0)
(-1.12327 0.961448 0)
(-1.65711 1.05846 0)
(-2.11427 1.04513 -1.10007e-20)
(-2.52209 0.986566 0)
(-2.89024 0.910862 2.22028e-20)
(-3.22212 0.83068 0)
(-3.52075 0.752551 2.23259e-20)
(-3.7899 0.679742 0)
(-4.03297 0.613498 -2.25239e-20)
(-4.2531 0.553903 0)
(-4.45295 0.500458 2.27258e-20)
(-4.63467 0.452347 -1.14856e-20)
(-4.79998 0.408659 0)
(-4.9502 0.368484 -2.29512e-20)
(-5.08625 0.330962 -1.14385e-20)
(-5.20867 0.295288 -1.14531e-20)
(-5.31766 0.260685 0)
(-5.41311 0.226416 -1.15415e-20)
(-5.49464 0.191854 -1.14153e-20)
(-5.56162 0.156526 0)
(-5.61314 0.120159 1.13091e-20)
(-5.64819 0.082742 -2.25467e-20)
(-5.66575 0.0445664 0)
(-5.66502 0.0062119 -1.10061e-20)
(-5.64562 -0.0316132 0)
(-5.60497 -0.0681567 3.2182e-20)
(-5.54413 -0.102772 0)
(-5.46327 -0.134896 -3.10476e-20)
(-5.36426 -0.16411 -1.01199e-20)
(-5.24821 -0.190242 9.95052e-21)
(-5.11705 -0.21343 1.94348e-20)
(-4.97203 -0.234003 -1.89582e-20)
(-4.81436 -0.252478 0)
(-4.64471 -0.26932 0)
(-4.46356 -0.28485 0)
(-4.2713 -0.299135 5.09555e-20)
(-4.0685 -0.312006 1.64923e-20)
(-3.85597 -0.323148 -1.60287e-20)
(-3.63488 -0.332199 0)
(-3.40669 -0.338862 -1.51909e-20)
(-3.17303 -0.342976 1.47122e-20)
(-2.93567 -0.344562 1.43046e-20)
(-2.69631 -0.343822 0)
(-2.45646 -0.341128 0)
(-2.21725 -0.336946 0)
(-1.97945 -0.331693 1.28545e-20)
(-1.74358 -0.325647 0)
(-1.51008 -0.318953 -2.45109e-20)
(-1.27944 -0.311541 -3.58941e-20)
(-1.05237 -0.303134 2.34047e-20)
(-0.829902 -0.293358 0)
(-0.613373 -0.281858 1.12286e-20)
(-0.40434 -0.26843 0)
(-0.204489 -0.25312 2.16013e-20)
(-0.0158347 -0.236634 -1.06218e-20)
(0.160022 -0.219669 -1.04479e-20)
(0.323113 -0.20174 0)
(0.473675 -0.184017 -3.03913e-20)
(0.612114 -0.167083 1.9983e-20)
(0.739426 -0.151468 9.85502e-21)
(0.856857 -0.137487 0)
(0.965753 -0.125188 9.60549e-21)
(1.06741 -0.114361 2.84652e-20)
(1.16286 -0.104595 0)
(1.25281 -0.0953947 1.85135e-20)
(1.33752 -0.0863103 1.82849e-20)
(1.4168 -0.0770009 1.80584e-20)
(1.49025 -0.067319 0)
(1.55735 -0.0573326 0)
(1.61746 -0.0471952 0)
(1.6704 -0.0371787 -8.58485e-21)
(1.7161 -0.0276903 -8.47154e-21)
(1.75443 -0.0188753 0)
(1.78644 -0.0107692 -1.65067e-20)
(1.81298 -0.00370159 -1.62876e-20)
(1.83456 0.00216063 0)
(1.85156 0.00692893 -1.5848e-20)
(1.86456 0.0107466 -3.12625e-20)
(1.87424 0.0136953 1.54113e-20)
(1.88119 0.0158874 1.51959e-20)
(1.88597 0.0173987 0)
(1.88899 0.0182791 0)
(1.89063 0.0185994 0)
(1.89117 0.0184479 1.43234e-20)
(1.89088 0.0179332 -1.41074e-20)
(1.88993 0.0171599 -2.77805e-20)
(1.88849 0.0162115 1.36737e-20)
(1.8867 0.0151476 -1.34582e-20)
(1.88465 0.0140066 -1.32427e-20)
(1.88246 0.0128137 0)
(1.88025 0.0115898 0)
(1.87815 0.0103558 1.26003e-20)
(1.87631 0.00913462 0)
(1.87487 0.00795036 0)
(1.87399 0.0068266 -2.39287e-20)
(1.87377 0.00578292 0)
(1.87431 0.00483239 -1.15441e-20)
(1.87566 0.00398214 1.13353e-20)
(1.87785 0.00323463 0)
(1.88084 0.00258799 -1.09198e-20)
(1.8846 0.00203678 0)
(1.88903 0.00159122 0)
(1.89404 0.00123536 1.03028e-20)
(1.8995 0.000956353 -2.01977e-20)
(1.9053 0.000747985 9.89571e-21)
(1.91132 0.000600578 0)
(1.91744 0.000506667 0)
(1.92361 0.000465611 -9.29186e-21)
(1.92968 0.000496021 0)
(1.93563 0.000597364 -8.89378e-21)
(1.94124 0.000796655 0)
(1.94657 0.0010638 0)
(1.95124 0.0014556 0)
(1.95548 0.00189705 -8.10795e-21)
(1.95868 0.00258484 0)
(1.96125 0.00326401 7.72015e-21)
(1.9623 0.00447778 0)
(1.9622 0.00543838 0)
(1.96024 0.00771564 -1.42892e-20)
(1.95532 0.00890637 1.39081e-20)
(1.94973 0.0135202 0)
(1.93449 0.0144132 0)
(1.92713 0.024541 0)
(1.886 0.0228477 -3.71909e-20)
(1.88954 0.0465264 0)
(1.77897 0.0368437 2.33283e-20)
(0.113349 0.667467 -3.89418e-23)
(0.219365 0.816501 3.47512e-20)
(0.330684 0.611475 0)
(0.442025 0.28692 -3.43778e-20)
(0.554805 -0.0189474 0)
(0.685611 -0.301202 0)
(0.868107 -0.621465 4.75685e-23)
(1.08656 -0.955122 1.66877e-20)
(1.31226 -1.23878 1.65486e-20)
(1.53253 -1.42867 1.63079e-20)
(1.73778 -1.5159 0)
(1.92452 -1.51365 0)
(2.09481 -1.44611 -1.60976e-20)
(2.25085 -1.33787 -3.20591e-20)
(2.39405 -1.20811 3.19476e-20)
(2.5256 -1.06941 0)
(2.64625 -0.928813 3.176e-20)
(2.75572 -0.789691 -1.56278e-20)
(2.85298 -0.653185 0)
(2.9364 -0.519433 3.14468e-20)
(3.00455 -0.388092 1.54771e-20)
(3.05585 -0.258889 -3.11445e-20)
(3.08929 -0.131758 -1.53158e-20)
(3.10361 -0.00663766 0)
(3.09861 0.115954 3.04718e-20)
(3.07445 0.236296 3.01847e-20)
(3.03163 0.355299 0)
(2.97134 0.472916 2.95434e-20)
(2.89606 0.588536 0)
(2.80707 0.702201 2.88462e-20)
(2.70881 0.808301 1.41208e-20)
(2.60083 0.907254 0)
(2.48813 0.982244 0)
(2.3659 1.0272 0)
(2.23189 1.02977 0)
(2.09081 0.971436 0)
(1.93315 0.875924 0)
(1.76029 0.738845 2.63798e-20)
(1.59003 0.584069 -3.92449e-20)
(1.45233 0.413342 0)
(1.31416 0.203382 0)
(1.19782 -0.0194569 0)
(1.14458 -0.180596 7.84906e-23)
(1.15113 -0.289052 2.49928e-20)
(1.20563 -0.447027 4.942e-20)
(1.31963 -0.547584 -4.89472e-20)
(1.48314 -0.492257 -2.42758e-20)
(1.51144 -0.635184 2.40253e-20)
(1.3145 -0.568473 8.37201e-23)
(0.806099 0.118809 2.36667e-20)
(-0.0466118 0.814035 0)
(-0.79193 1.21117 2.32278e-20)
(-1.40358 1.43832 2.16094e-22)
(-1.89928 1.52936 0)
(-2.28543 1.57424 0)
(-2.5959 1.55995 -2.26312e-20)
(-2.84807 1.48838 0)
(-3.06842 1.38579 0)
(-3.2683 1.27066 2.29452e-20)
(-3.45532 1.15528 4.51894e-20)
(-3.63317 1.04632 -2.23107e-20)
(-3.80341 0.946582 0)
(-3.96683 0.85679 2.2518e-20)
(-4.12353 0.776432 0)
(-4.2735 0.704433 2.31648e-20)
(-4.41653 0.639497 2.28172e-20)
(-4.5524 0.58029 -4.61466e-20)
(-4.68081 0.525522 -2.32835e-20)
(-4.80135 0.473959 0)
(-4.91347 0.424419 4.63324e-20)
(-5.01643 0.375777 0)
(-5.10925 0.327011 6.92495e-20)
(-5.19069 0.277237 4.61384e-20)
(-5.25928 0.225712 4.59573e-20)
(-5.31326 0.171941 -4.57056e-20)
(-5.35078 0.115807 6.79339e-20)
(-5.37008 0.0576141 0)
(-5.36977 -0.00193383 0)
(-5.34897 -0.0617734 -4.38757e-20)
(-5.30726 -0.120508 -6.46924e-20)
(-5.24523 -0.176611 0)
(-5.16399 -0.22872 2.0726e-20)
(-5.06515 -0.275976 0)
(-4.9506 -0.318041 -5.97256e-20)
(-4.82218 -0.355121 1.40433e-22)
(-4.6814 -0.387929 -1.26887e-22)
(-4.52927 -0.417384 3.69999e-20)
(-4.36619 -0.444407 0)
(-4.19221 -0.469581 -3.50569e-20)
(-4.00726 -0.493007 9.9508e-23)
(-3.81154 -0.514322 0)
(-3.60569 -0.532889 0)
(-3.39085 -0.548015 0)
(-3.16856 -0.559124 3.03276e-20)
(-2.94065 -0.565902 0)
(-2.70905 -0.568366 0)
(-2.47562 -0.566859 0)
(-2.24196 -0.562024 0)
(-2.00913 -0.554688 0)
(-1.77768 -0.545614 2.58227e-20)
(-1.54783 -0.535288 0)
(-1.3197 -0.523972 2.45094e-20)
(-1.0936 -0.511524 2.39395e-20)
(-0.870204 -0.497418 -2.34033e-20)
(-0.650707 -0.480922 0)
(-0.436767 -0.461339 -2.24336e-20)
(-0.230227 -0.438295 0)
(-0.0334225 -0.412094 -2.15988e-20)
(0.151322 -0.383738 2.12241e-20)
(0.322166 -0.353846 6.26655e-20)
(0.477926 -0.323562 0)
(0.618047 -0.294289 6.07965e-20)
(0.743229 -0.266962 2.00027e-20)
(0.855388 -0.242217 0)
(0.957059 -0.220399 3.89411e-20)
(1.05076 -0.201524 3.84513e-20)
(1.13857 -0.185226 -5.6949e-20)
(1.22199 -0.170821 0)
(1.30191 -0.157461 -1.85105e-20)
(1.37865 -0.144325 -1.82822e-20)
(1.45207 -0.13079 -5.41858e-20)
(1.52167 -0.116565 0)
(1.5868 -0.10167 0)
(1.6467 -0.0864043 0)
(1.70077 -0.0712765 -1.7176e-20)
(1.74866 -0.0567642 0)
(1.79029 -0.0433061 0)
(1.82598 -0.0313 1.65054e-20)
(1.85637 -0.0209338 1.62865e-20)
(1.88207 -0.0121922 0)
(1.90391 -0.00499216 0)
(1.92246 0.000758886 3.12608e-20)
(1.93821 0.00520808 0)
(1.9516 0.00850071 -3.0387e-20)
(1.96302 0.0107731 -2.99541e-20)
(1.97283 0.0121585 0)
(1.98139 0.0128229 0)
(1.98905 0.0129541 2.86467e-20)
(1.99607 0.0127101 -1.49377e-24)
(2.00266 0.0122158 -1.1598e-24)
(2.00893 0.011567 0)
(2.01493 0.0108284 5.38256e-20)
(2.02064 0.0100312 0)
(2.02602 0.00918153 0)
(2.03104 0.00827137 0)
(2.03568 0.00728875 -2.51967e-20)
(2.04 0.00622683 0)
(2.04408 0.00508779 4.8694e-20)
(2.04808 0.00388344 2.39245e-20)
(2.05219 0.00263432 0)
(2.05661 0.0013673 2.30842e-20)
(2.06154 0.000112067 0)
(2.06717 -0.00109968 0)
(2.0736 -0.00224045 6.55071e-20)
(2.08093 -0.0032753 -4.28456e-20)
(2.08915 -0.00418638 0)
(2.09823 -0.00494569 -4.12037e-20)
(2.10812 -0.00553878 2.01937e-20)
(2.1187 -0.00596659 0)
(2.12983 -0.00624082 0)
(2.14138 -0.00637554 0)
(2.15321 -0.00638993 5.57395e-20)
(2.1652 -0.00627828 0)
(2.17725 -0.00605337 1.77835e-20)
(2.18928 -0.00567791 0)
(2.20116 -0.00519641 0)
(2.21291 -0.00451172 0)
(2.22433 -0.00374243 0)
(2.23554 -0.00261144 0)
(2.24606 -0.00148766 0)
(2.25642 0.000382877 3.01061e-20)
(2.26535 0.00193768 0)
(2.27459 0.00522043 1.42854e-20)
(2.2806 0.00724111 -4.17179e-20)
(2.28869 0.0134469 0)
(2.2889 0.01565 0)
(2.29687 0.0281205 2.55471e-20)
(2.28495 0.0292192 2.47887e-20)
(2.29691 0.0551287 -2.40561e-20)
(2.26004 0.0532634 -2.33193e-20)
(0.0757917 0.0930964 -5.23449e-20)
(0.233443 0.286972 -5.19401e-20)
(0.374781 0.141868 -3.43188e-20)
(0.53445 -0.102132 -1.69451e-20)
(0.746254 -0.398502 0)
(1.00975 -0.759578 3.36623e-20)
(1.29347 -1.14243 -1.67024e-20)
(1.55597 -1.47701 0)
(1.76699 -1.70763 -1.65167e-20)
(1.92157 -1.81931 0)
(2.03272 -1.82801 3.2831e-20)
(2.11837 -1.76276 0)
(2.19357 -1.65306 1.60882e-20)
(2.26665 -1.52092 3.20489e-20)
(2.34127 -1.37941 -3.19439e-20)
(2.41853 -1.23464 0)
(2.4976 -1.08867 -3.17649e-20)
(2.57619 -0.9416 0)
(2.65107 -0.792956 0)
(2.719 -0.642291 -3.14596e-20)
(2.77693 -0.489654 0)
(2.82267 -0.335458 -3.79408e-22)
(2.85484 -0.180728 0)
(2.87246 -0.0262619 0)
(2.87629 0.126541 3.36702e-22)
(2.86645 0.277021 -3.01896e-20)
(2.84302 0.424508 -3.01872e-20)
(2.80622 0.568824 -2.95463e-20)
(2.75616 0.708614 0)
(2.69404 0.840825 -5.79604e-20)
(2.61877 0.962968 0)
(2.53413 1.06782 -2.83594e-20)
(2.43935 1.15103 0)
(2.33891 1.19919 0)
(2.23533 1.20454 2.72648e-20)
(2.12394 1.16417 0)
(2.0224 1.06144 -2.66149e-20)
(1.90304 0.951646 -4.43482e-23)
(1.7964 0.778494 5.21595e-20)
(1.67899 0.560182 -5.15386e-20)
(1.56336 0.390842 0)
(1.50976 0.135013 0)
(1.36751 -0.13612 -2.48985e-20)
(1.29583 -0.345887 0)
(1.42106 -0.551364 -2.46791e-20)
(1.45846 -0.825712 2.44826e-20)
(1.25603 -0.68885 2.43008e-20)
(0.638249 0.170748 0)
(-0.201695 0.924036 -2.39288e-20)
(-0.888454 1.40558 -2.36308e-20)
(-1.45618 1.71533 4.70072e-20)
(-1.89003 1.88823 -2.31485e-20)
(-2.22227 1.96037 -2.29525e-20)
(-2.47008 1.95856 0)
(-2.66306 1.90804 0)
(-2.81708 1.82254 2.26116e-20)
(-2.95295 1.71279 0)
(-3.08094 1.5918 0)
(-3.20807 1.46892 -4.51097e-20)
(-3.33646 1.34985 -4.51856e-20)
(-3.4671 1.23805 0)
(-3.5991 1.13482 0)
(-3.73157 1.04034 0)
(-3.8632 0.954077 0)
(-3.99293 0.875069 -4.59032e-20)
(-4.11974 0.802192 4.64698e-20)
(-4.24276 0.734252 4.61623e-20)
(-4.36122 0.670036 9.28885e-20)
(-4.47437 0.608322 0)
(-4.5814 0.547854 3.44204e-22)
(-4.68135 0.487348 0)
(-4.77294 0.425514 -4.62771e-20)
(-4.8546 0.36114 3.36514e-22)
(-4.92436 0.293234 -4.59795e-20)
(-4.97995 0.221168 4.57287e-20)
(-5.01906 0.144862 3.40359e-22)
(-5.03958 0.0649004 0)
(-5.03992 -0.0175018 4.48187e-20)
(-5.01928 -0.100503 4.38976e-20)
(-4.97762 -0.181797 8.67467e-20)
(-4.9157 -0.259075 0)
(-4.83521 -0.330386 -4.19133e-20)
(-4.73831 -0.394421 0)
(-4.6274 -0.450801 7.99651e-20)
(-4.50464 -0.50002 -3.89406e-20)
(-4.37162 -0.543315 3.79796e-20)
(-4.22913 -0.582308 -3.70083e-20)
(-4.07703 -0.618523 -7.23405e-20)
(-3.91463 -0.65292 3.50623e-20)
(-3.74113 -0.685594 -3.40985e-20)
(-3.55617 -0.715819 0)
(-3.36012 -0.742414 6.46695e-20)