/*--------------------------------*- C++ -*----------------------------------*\
  =========                 |
  \\      /  F ield         | OpenFOAM: The Open Source CFD Toolbox
   \\    /   O peration     | Website:  https://openfoam.org
    \\  /    A nd           | Version:  7
     \\/     M anipulation  |
\*---------------------------------------------------------------------------*/
FoamFile
{
    version     2.0;
    format      ascii;
    class       volVectorField;
    location    "0.069";
    object      UMean;
}
// * * * * * * * * * * * * * * * * * * * * * * * * * * * * * * * * * * * * * //

dimensions      [0 1 -1 0 0 0 0];

internalField   nonuniform List<vector> 
12225
(
(4.77361 0.164604 0)
(4.1771 0.111681 0)
(3.71482 0.0984055 0)
(3.34481 0.0818222 0)
(3.01198 0.0685993 0)
(2.70165 0.0589364 0)
(2.41445 0.0506346 0)
(2.1545 0.0427759 0)
(1.92551 0.0344766 0)
(1.7282 0.0269087 0)
(1.56444 0.0186104 0)
(1.43053 0.0129842 0)
(1.32795 0.00483456 0)
(1.24847 0.00408833 0)
(1.19201 -0.00636713 0)
(1.15368 0.00253457 0)
(1.12681 -0.0197683 0)
(1.12204 -0.000893672 0)
(5.02341 0.113171 0)
(4.8762 0.073591 0)
(4.7582 0.089716 0)
(4.66838 0.0892593 0)
(4.57498 0.087797 0)
(4.47004 0.0883179 0)
(4.35518 0.0887952 0)
(4.23594 0.0872345 0)
(4.11485 0.0839751 0)
(3.99731 0.077985 0)
(3.88244 0.0715111 0)
(3.77746 0.0621735 0)
(3.67583 0.0552375 0)
(3.58989 0.044144 0)
(3.50203 0.0403604 0)
(3.43691 0.0266916 0)
(3.36043 0.0262165 0)
(3.31047 -0.00041357 0)
(4.99681 0.172903 0)
(4.87689 0.123113 0)
(4.79821 0.131292 0)
(4.76788 0.125813 0)
(4.75278 0.118724 0)
(4.73736 0.115543 0)
(4.71929 0.113856 0)
(4.69925 0.111702 0)
(4.67742 0.107331 0)
(4.65325 0.101764 0)
(4.62685 0.0935155 0)
(4.59799 0.085862 0)
(4.56833 0.0754043 0)
(4.53706 0.0687093 0)
(4.50783 0.0577601 0)
(4.47682 0.0529902 0)
(4.45168 0.0403777 0)
(4.41945 0.0272317 0)
(4.99362 0.18902 0)
(4.89634 0.120464 0)
(4.81924 0.119202 0)
(4.78491 0.115127 0)
(4.77176 0.108162 0)
(4.76395 0.104292 0)
(4.75846 0.103031 0)
(4.75592 0.101565 0)
(4.75626 0.0988285 0)
(4.75804 0.09414 0)
(4.76011 0.0884875 0)
(4.76111 0.0812686 0)
(4.76149 0.0744385 0)
(4.76017 0.0664175 0)
(4.75977 0.059961 0)
(4.75754 0.0516695 0)
(4.75905 0.0433992 0)
(4.7558 0.0316424 0)
(4.99777 0.215167 0)
(4.92404 0.144811 0)
(4.85458 0.135908 0)
(4.81772 0.131483 0)
(4.80205 0.122708 0)
(4.79294 0.115587 0)
(4.78632 0.111237 0)
(4.78268 0.107737 0)
(4.78259 0.103268 0)
(4.78507 0.0976952 0)
(4.7892 0.09088 0)
(4.79367 0.0836236 0)
(4.7985 0.0757401 0)
(4.80302 0.0680428 0)
(4.80834 0.0601608 0)
(4.81358 0.0517669 0)
(4.82041 0.0427708 0)
(4.82579 0.0299683 0)
(4.9937 0.230195 0)
(4.93964 0.159199 0)
(4.88033 0.141641 0)
(4.84467 0.135166 0)
(4.82893 0.125381 0)
(4.82079 0.116258 0)
(4.81502 0.110011 0)
(4.8115 0.105227 0)
(4.8109 0.100199 0)
(4.81275 0.0941476 0)
(4.81627 0.0872375 0)
(4.82043 0.0796585 0)
(4.82511 0.0718413 0)
(4.82977 0.0638184 0)
(4.83515 0.0556742 0)
(4.84048 0.0470492 0)
(4.84684 0.0372795 0)
(4.85198 0.0257109 0)
(4.99517 0.244227 0)
(4.95525 0.175495 0)
(4.90551 0.151037 0)
(4.87172 0.14173 0)
(4.8555 0.131345 0)
(4.84765 0.120984 0)
(4.8425 0.112957 0)
(4.83924 0.106737 0)
(4.83849 0.100728 0)
(4.84006 0.0940541 0)
(4.84333 0.0866581 0)
(4.84732 0.0787615 0)
(4.85185 0.0706398 0)
(4.85633 0.0622974 0)
(4.86135 0.0538325 0)
(4.86606 0.0447696 0)
(4.87151 0.0349629 0)
(4.87541 0.0238192 0)
(5.00037 0.254963 0)
(4.97156 0.190156 0)
(4.93073 0.160593 0)
(4.89939 0.147611 0)
(4.88277 0.136262 0)
(4.875 0.124779 0)
(4.87056 0.115028 0)
(4.86782 0.107156 0)
(4.8671 0.100013 0)
(4.86837 0.092627 0)
(4.87125 0.0847547 0)
(4.87484 0.0765165 0)
(4.87899 0.0681021 0)
(4.8831 0.0595401 0)
(4.8877 0.0507832 0)
(4.89184 0.0415978 0)
(4.8966 0.0318123 0)
(4.89969 0.0211784 0)
(5.00121 0.261631 0)
(4.98148 0.202198 0)
(4.94892 0.169669 0)
(4.92136 0.153088 0)
(4.9058 0.140445 0)
(4.89884 0.128106 0)
(4.89546 0.117068 0)
(4.89359 0.107832 0)
(4.89325 0.0996594 0)
(4.89452 0.091632 0)
(4.89722 0.0833455 0)
(4.9006 0.0747751 0)
(4.90447 0.0660699 0)
(4.90823 0.0572505 0)
(4.91232 0.0482977 0)
(4.91587 0.0390429 0)
(4.91985 0.0293952 0)
(4.92231 0.0192701 0)
(4.99788 0.268449 0)
(4.98443 0.21364 0)
(4.95919 0.179132 0)
(4.93573 0.15899 0)
(4.92135 0.144444 0)
(4.91476 0.131149 0)
(4.91207 0.119026 0)
(4.91101 0.108525 0)
(4.91126 0.0992667 0)
(4.91283 0.0905201 0)
(4.91562 0.0818141 0)
(4.919 0.0730134 0)
(4.92278 0.0641438 0)
(4.92639 0.0552081 0)
(4.93019 0.0461707 0)
(4.93344 0.0369506 0)
(4.93692 0.0274895 0)
(4.93912 0.0178245 0)
(4.99396 0.272077 0)
(4.98521 0.221954 0)
(4.96566 0.186744 0)
(4.94597 0.164007 0)
(4.93295 0.14758 0)
(4.92663 0.133246 0)
(4.92419 0.120139 0)
(4.92346 0.108499 0)
(4.92386 0.0982149 0)
(4.92531 0.0887339 0)
(4.92785 0.079565 0)
(4.93103 0.0704732 0)
(4.93468 0.0613985 0)
(4.9382 0.0523307 0)
(4.94187 0.0432346 0)
(4.9449 0.0340785 0)
(4.94814 0.0248359 0)
(4.95004 0.0155732 0)
(5.00219 0.275184 0)
(4.99613 0.22906 0)
(4.98092 0.193868 0)
(4.96462 0.169252 0)
(4.95311 0.151077 0)
(4.94709 0.135743 0)
(4.94464 0.121889 0)
(4.94392 0.109441 0)
(4.94423 0.0983201 0)
(4.94542 0.0881592 0)
(4.94757 0.0785241 0)
(4.95032 0.0691375 0)
(4.95357 0.05988 0)
(4.95672 0.05073 0)
(4.96002 0.0416486 0)
(4.96266 0.0326387 0)
(4.96552 0.0236583 0)
(4.96702 0.0147936 0)
(5.00019 0.277997 0)
(4.99714 0.233978 0)
(4.98568 0.199104 0)
(4.97253 0.173188 0)
(4.96293 0.153432 0)
(4.95792 0.136989 0)
(4.95618 0.122347 0)
(4.95614 0.109146 0)
(4.95703 0.0972708 0)
(4.95861 0.0864648 0)
(4.96096 0.0763562 0)
(4.96376 0.0666642 0)
(4.96699 0.0572312 0)
(4.97005 0.0480038 0)
(4.97327 0.0389424 0)
(4.97575 0.0300562 0)
(4.97854 0.0213076 0)
(4.97989 0.0127723 0)
(5.00898 0.280793 0)
(5.0086 0.239837 0)
(5.00083 0.20565 0)
(4.99093 0.178617 0)
(4.98342 0.157203 0)
(4.9795 0.139382 0)
(4.9784 0.123766 0)
(4.97888 0.109762 0)
(4.98022 0.0971551 0)
(4.98206 0.0857114 0)
(4.98444 0.0751304 0)
(4.98713 0.0651348 0)
(4.99021 0.0555396 0)
(4.99312 0.0462665 0)
(4.99621 0.0372657 0)
(4.9986 0.028547 0)
(5.00129 0.0200603 0)
(5.00263 0.0118915 0)
(5.00423 0.279636 0)
(5.00648 0.241838 0)
(5.00213 0.208466 0)
(4.99573 0.180826 0)
(4.99104 0.158223 0)
(4.98903 0.139245 0)
(4.98915 0.122731 0)
(4.99052 0.108034 0)
(4.99261 0.0948131 0)
(4.99512 0.0828081 0)
(4.99807 0.0717484 0)
(5.00122 0.0614024 0)
(5.00463 0.0516008 0)
(5.00782 0.0422657 0)
(5.01109 0.0333284 0)
(5.01369 0.0247954 0)
(5.01651 0.0165937 0)
(5.01815 0.00880639 0)
(5.01229 0.281939 0)
(5.01526 0.246149 0)
(5.01322 0.213405 0)
(5.00968 0.185111 0)
(5.00749 0.161187 0)
(5.00727 0.140836 0)
(5.00856 0.123186 0)
(5.01075 0.107582 0)
(5.01348 0.0936045 0)
(5.01649 0.0809652 0)
(5.01972 0.0694191 0)
(5.02297 0.0587765 0)
(5.02629 0.048866 0)
(5.02935 0.0395931 0)
(5.03239 0.0308342 0)
(5.03485 0.0225798 0)
(5.03741 0.0147054 0)
(5.03902 0.00731475 0)
(4.99945 0.279838 0)
(5.00296 0.243879 0)
(5.00295 0.211377 0)
(5.00251 0.182929 0)
(5.00354 0.158345 0)
(5.00605 0.137114 0)
(5.00942 0.118635 0)
(5.01321 0.102381 0)
(5.01724 0.0879288 0)
(5.02136 0.0749584 0)
(5.02552 0.0631957 0)
(5.02955 0.0524378 0)
(5.03351 0.0424985 0)
(5.03713 0.033278 0)
(5.04067 0.0246485 0)
(5.04366 0.0166088 0)
(5.04668 0.00902701 0)
(5.04885 0.00199627 0)
(5.00348 0.283754 0)
(5.00876 0.245577 0)
(5.01118 0.211751 0)
(5.01349 0.182075 0)
(5.01741 0.156252 0)
(5.02256 0.133902 0)
(5.02807 0.114533 0)
(5.03347 0.0976481 0)
(5.03871 0.0828013 0)
(5.04371 0.0696406 0)
(5.04854 0.0578658 0)
(5.05305 0.0472669 0)
(5.05735 0.0376318 0)
(5.0612 0.0288506 0)
(5.06489 0.0207458 0)
(5.06796 0.0133123 0)
(5.07109 0.00635679 0)
(5.07328 1.04586e-05 0)
(5.00392 0.278344 0)
(5.01297 0.238606 0)
(5.01984 0.202769 0)
(5.02641 0.171497 0)
(5.03422 0.144758 0)
(5.04283 0.121961 0)
(5.05134 0.102321 0)
(5.05931 0.0851584 0)
(5.06669 0.0700014 0)
(5.07348 0.0565486 0)
(5.07978 0.0445596 0)
(5.0855 0.033839 0)
(5.09077 0.0241721 0)
(5.0954 0.0154186 0)
(5.0997 0.00740101 0)
(5.10331 8.45292e-05 0)
(5.10685 -0.00669668 0)
(5.10955 -0.0128573 0)
(5.00159 0.274123 0)
(5.01202 0.230134 0)
(5.02222 0.190911 0)
(5.03343 0.157695 0)
(5.04591 0.130306 0)
(5.05844 0.107719 0)
(5.06995 0.088834 0)
(5.08016 0.072822 0)
(5.08933 0.0591003 0)
(5.09766 0.0472547 0)
(5.10534 0.0369245 0)
(5.11235 0.0278162 0)
(5.11877 0.0196465 0)
(5.12448 0.0122651 0)
(5.12973 0.0054922 0)
(5.13422 -0.000669466 0)
(5.1385 -0.00639544 0)
(5.14188 -0.011557 0)
(5.00083 0.271486 0)
(5.0132 0.220099 0)
(5.0276 0.176497 0)
(5.04416 0.141342 0)
(5.06173 0.11327 0)
(5.07835 0.0902436 0)
(5.093 0.07069 0)
(5.10573 0.0538209 0)
(5.117 0.0393071 0)
(5.12712 0.0269113 0)
(5.13626 0.0163068 0)
(5.14438 0.00714683 0)
(5.1516 -0.000898057 0)
(5.15787 -0.00803902 0)
(5.16351 -0.0144754 0)
(5.1683 -0.0202625 0)
(5.17281 -0.0255477 0)
(5.17639 -0.030275 0)
(5.00662 0.265248 0)
(5.02316 0.204491 0)
(5.044 0.157255 0)
(5.06688 0.122855 0)
(5.08891 0.0977131 0)
(5.10804 0.0782153 0)
(5.12415 0.062078 0)
(5.13815 0.0482998 0)
(5.15085 0.0364903 0)
(5.16247 0.0263775 0)
(5.173 0.017636 0)
(5.1823 0.00998308 0)
(5.19053 0.00316714 0)
(5.19765 -0.00293555 0)
(5.20402 -0.00847243 0)
(5.20942 -0.0134664 0)
(5.21443 -0.0180903 0)
(5.21843 -0.0222744 0)
(5.00229 0.260798 0)
(5.02833 0.187848 0)
(5.06074 0.134845 0)
(5.09339 0.098452 0)
(5.12198 0.0719151 0)
(5.14514 0.0504636 0)
(5.16388 0.0323724 0)
(5.17977 0.0174831 0)
(5.19378 0.00560656 0)
(5.2061 -0.00386442 0)
(5.21679 -0.0116668 0)
(5.2259 -0.0183396 0)
(5.23377 -0.0241898 0)
(5.24055 -0.0293521 0)
(5.24664 -0.0339433 0)
(5.25184 -0.0380238 0)
(5.25668 -0.0417184 0)
(5.26052 -0.0450321 0)
(5.00479 0.244153 0)
(5.0404 0.164044 0)
(5.08413 0.115153 0)
(5.12399 0.0877513 0)
(5.15531 0.0691416 0)
(5.1794 0.052747 0)
(5.19961 0.0379425 0)
(5.21801 0.0254867 0)
(5.23483 0.0154297 0)
(5.24958 0.00717368 0)
(5.2621 8.84406e-05 0)
(5.27257 -0.00616492 0)
(5.28154 -0.0117318 0)
(5.28921 -0.0166619 0)
(5.29604 -0.0210771 0)
(5.30188 -0.0250228 0)
(5.30726 -0.0286525 0)
(5.31168 -0.0319166 0)
(5.0055 0.227845 0)
(5.05779 0.126472 0)
(5.11999 0.0721499 0)
(5.17015 0.0443541 0)
(5.2045 0.024583 0)
(5.22888 0.00717195 0)
(5.2493 -0.00678472 0)
(5.26796 -0.016688 0)
(5.28477 -0.0236701 0)
(5.29927 -0.0291723 0)
(5.31153 -0.0339828 0)
(5.32191 -0.0383014 0)
(5.33093 -0.0421451 0)
(5.33872 -0.0455474 0)
(5.34565 -0.0486007 0)
(5.35149 -0.0513787 0)
(5.35681 -0.0539607 0)
(5.36105 -0.0563517 0)
(5.01496 0.211232 0)
(5.0881 0.112624 0)
(5.16791 0.0774792 0)
(5.22488 0.0614078 0)
(5.26059 0.043544 0)
(5.28678 0.0256499 0)
(5.31042 0.0115732 0)
(5.33217 0.00169126 0)
(5.35089 -0.0056122 0)
(5.36621 -0.0116743 0)
(5.37877 -0.0169999 0)
(5.3893 -0.0216638 0)
(5.39842 -0.0257148 0)
(5.40628 -0.0292554 0)
(5.4132 -0.0324281 0)
(5.41907 -0.0353048 0)
(5.42439 -0.0379767 0)
(5.42874 -0.0404131 0)
(5.00845 0.159482 0)
(5.12113 0.0338858 0)
(5.21988 0.00614499 0)
(5.27697 -0.00312649 0)
(5.30923 -0.0171254 0)
(5.33496 -0.0293874 0)
(5.3596 -0.0369102 0)
(5.38216 -0.0414859 0)
(5.4012 -0.0450829 0)
(5.41671 -0.048362 0)
(5.42957 -0.0512946 0)
(5.44052 -0.0538311 0)
(5.45011 -0.0560271 0)
(5.45846 -0.0579959 0)
(5.46589 -0.0598113 0)
(5.47226 -0.0615261 0)
(5.47807 -0.0631584 0)
(5.48285 -0.0647162 0)
(5.01493 0.153534 0)
(5.17682 0.0582609 0)
(5.30016 0.0444746 0)
(5.36041 0.0282031 0)
(5.39341 0.00909657 0)
(5.42199 -0.00453116 0)
(5.44901 -0.0125888 0)
(5.47244 -0.0181292 0)
(5.49147 -0.022852 0)
(5.50669 -0.0270986 0)
(5.51912 -0.0308017 0)
(5.52947 -0.0340151 0)
(5.53816 -0.0368177 0)
(5.54537 -0.0393563 0)
(5.55128 -0.0416536 0)
(5.55594 -0.0438184 0)
(5.55962 -0.0458165 0)
(5.56224 -0.0477469 0)
(5.01819 0.0186187 0)
(5.22935 -0.0522837 0)
(5.35522 -0.0348424 0)
(5.40878 -0.0433412 0)
(5.4387 -0.0534608 0)
(5.46232 -0.0580047 0)
(5.4803 -0.0597159 0)
(5.49111 -0.0609381 0)
(5.4948 -0.0621646 0)
(5.49266 -0.0632796 0)
(5.48593 -0.0641781 0)
(5.4758 -0.0649066 0)
(5.46272 -0.0654939 0)
(5.44751 -0.0660275 0)
(5.43003 -0.0664798 0)
(5.41133 -0.0669395 0)
(5.39061 -0.0673435 0)
(5.36974 -0.0678226 0)
(4.96791 0.0710009 0)
(5.10305 -0.000249208 0)
(5.07438 -0.000497196 0)
(4.95993 -0.0108582 0)
(4.83216 -0.0184964 0)
(4.70769 -0.0215134 0)
(4.58677 -0.0227093 0)
(4.46771 -0.0234962 0)
(4.3502 -0.0240741 0)
(4.23501 -0.0244162 0)
(4.12293 -0.0245494 0)
(4.01467 -0.0245373 0)
(3.9102 -0.0244239 0)
(3.80993 -0.0242543 0)
(3.71311 -0.0240332 0)
(3.62067 -0.0238061 0)
(3.53088 -0.0235496 0)
(3.44615 -0.0233562 0)
(-0.0222435 0.0432189 1.26958e-21)
(-0.0501972 0.0147927 -1.26049e-21)
(-0.0464942 -0.0176072 0)
(-0.0167276 -0.0450234 0)
(0.0348814 -0.0667051 0)
(0.103092 -0.0823738 1.22139e-21)
(0.182187 -0.0920316 0)
(0.268006 -0.0966412 0)
(0.356474 -0.0967636 0)
(0.444386 -0.0937022 0)
(0.52917 -0.0881358 -1.15297e-21)
(0.608703 -0.0806295 0)
(0.681258 -0.071491 0)
(0.745208 -0.0608931 0)
(0.798924 -0.0489156 0)
(0.840812 -0.035609 -1.03638e-21)
(0.869256 -0.0209849 0)
(0.882822 -0.00511386 0)
(0.880287 0.01191 0)
(0.859767 0.0298136 0)
(0.820666 0.0480745 0)
(0.762774 0.0659901 0)
(0.686862 0.0826684 0)
(0.594363 0.0970678 -9.42776e-22)
(0.487673 0.108062 9.4158e-22)
(0.369499 0.114622 -9.40225e-22)
(0.243656 0.116566 -9.37899e-22)
(0.114453 0.112797 0)
(-0.0126805 0.103638 0)
(-0.134386 0.0862761 9.20675e-22)
(-0.243622 0.0604828 9.11213e-22)
(-0.339583 0.0364558 0)
(-0.429278 0.0216764 0)
(-0.519328 0.0168386 8.73593e-22)
(-0.608637 0.0208105 0)
(-0.696516 0.0287088 0)
(-0.783364 0.0325404 -8.30363e-22)
(-0.870395 0.0352504 0)
(-0.958408 0.048867 -7.97643e-22)
(-1.05204 0.0643387 -1.56018e-21)
(-1.14987 0.0654221 0)
(-1.245 0.0683111 0)
(-1.34181 0.0765334 0)
(-1.43774 0.075209 0)
(-1.52925 0.0664539 0)
(-1.6146 0.0647846 -1.32049e-21)
(-1.69727 0.0625788 -1.28217e-21)
(-1.77252 0.0532904 -1.2457e-21)
(-1.83915 0.0463602 0)
(-1.89984 0.0404076 1.18355e-21)
(-1.95407 0.0335207 0)
(-2.00329 0.0283206 -1.14037e-21)
(-2.0478 0.0288813 -1.12573e-21)
(-2.08744 0.0327969 0)
(-2.12073 0.0330348 0)
(-2.14399 0.0270657 0)
(-2.15464 0.0181891 -1.10663e-21)
(-2.15301 0.00941327 0)
(-2.14034 0.00152019 0)
(-2.11779 -0.00537183 0)
(-2.0866 -0.0112554 0)
(-2.04798 -0.0162024 0)
(-2.00301 -0.0202973 0)
(-1.95267 -0.02365 0)
(-1.8978 -0.0263628 0)
(-1.83916 -0.0285464 1.22215e-21)
(-1.77735 -0.0302917 0)
(-1.71287 -0.0316881 0)
(-1.64612 -0.0328143 -1.28926e-21)
(-1.57736 -0.0337368 -1.31287e-21)
(-1.50683 -0.0345154 0)
(-1.43466 -0.0351949 1.36155e-21)
(-1.36093 -0.03581 -1.38653e-21)
(-1.28568 -0.0363891 0)
(-1.20893 -0.0369475 1.43762e-21)
(-1.13065 -0.0374919 0)
(-1.05083 -0.0380299 0)
(-0.969414 -0.0385511 -1.51649e-21)
(-0.886424 -0.0390403 0)
(-0.801957 -0.0394661 1.56977e-21)
(-0.716106 -0.0397961 0)
(-0.629086 -0.0400026 -1.6222e-21)
(-0.541146 -0.0400629 -1.64759e-21)
(-0.452565 -0.0399745 -1.67215e-21)
(-0.363605 -0.0397519 -3.39141e-21)
(-0.274489 -0.0394215 3.43629e-21)
(-0.185373 -0.039013 0)
(-0.0963762 -0.0385503 0)
(-0.00760294 -0.0380496 0)
(0.08086 -0.0375186 3.59051e-21)
(0.168912 -0.0369438 3.62201e-21)
(0.256426 -0.0363077 -3.65026e-21)
(0.343233 -0.0355884 0)
(0.429115 -0.0347571 3.69583e-21)
(0.513798 -0.0337977 3.71253e-21)
(0.596975 -0.0326935 3.72477e-21)
(0.678299 -0.031437 0)
(0.757407 -0.0300401 0)
(0.83396 -0.0285001 0)
(0.907659 -0.0268502 3.7262e-21)
(0.978221 -0.0250927 0)
(1.04541 -0.0232657 0)
(1.109 -0.0213789 -3.6796e-21)
(1.16884 -0.0194639 0)
(1.22479 -0.0175362 0)
(1.27677 -0.0156225 -3.60083e-21)
(1.32473 -0.0137392 0)
(1.3687 -0.0119124 0)
(1.40871 -0.010162 3.50072e-21)
(1.44489 -0.00849169 3.46444e-21)
(1.47739 -0.00691179 0)
(1.50636 -0.00543723 -3.38953e-21)
(1.53196 -0.00407254 0)
(1.5544 -0.00281872 3.3132e-21)
(1.57385 -0.00167374 0)
(1.59052 -0.000633658 3.23689e-21)
(1.60458 0.000306355 3.19903e-21)
(1.6162 0.00115117 0)
(1.62557 0.00190472 0)
(1.63285 0.0025712 0)
(1.63819 0.00315451 0)
(1.64176 0.00365472 0)
(1.64373 0.00407328 0)
(1.64425 0.0044134 0)
(1.64351 0.00467656 2.90992e-21)
(1.64166 0.00486892 -2.87572e-21)
(1.63885 0.00499729 0)
(1.63525 0.00505881 0)
(1.63101 0.00504949 0)
(1.62627 0.00497607 0)
(1.62119 0.00484936 -5.42179e-21)
(1.61586 0.00467882 0)
(1.6104 0.0044733 5.29533e-21)
(1.6049 0.00424217 -5.23318e-21)
(1.59943 0.00399441 0)
(1.59407 0.00373789 0)
(1.58885 0.00347974 0)
(1.58383 0.00322607 4.99121e-21)
(1.57903 0.0029814 4.93228e-21)
(1.57447 0.00274865 0)
(1.57015 0.00252964 4.81617e-21)
(1.56608 0.00232541 4.75895e-21)
(1.56227 0.00213655 -4.70227e-21)
(1.55869 0.00196334 0)
(1.55534 0.0018057 0)
(1.55221 0.00166322 -4.53525e-21)
(1.54928 0.00153517 0)
(1.54653 0.00142055 0)
(1.54394 0.00131823 0)
(1.54149 0.0012271 0)
(1.53916 0.00114612 4.26617e-21)
(1.53693 0.00107444 4.21363e-21)
(1.53479 0.00101147 0)
(1.53271 0.000956746 4.10976e-21)
(1.53068 0.000910056 0)
(1.52869 0.000871246 0)
(1.5267 0.000840258 3.95682e-21)
(1.52471 0.000817061 0)
(1.5227 0.000802015 3.85671e-21)
(1.52065 0.000795348 0)
(1.51852 0.00079807 0)
(1.51631 0.00081116 3.70926e-21)
(1.51395 0.000837171 0)
(1.51147 0.00087707 3.6128e-21)
(1.50869 0.000936233 0)
(1.50576 0.0010136 0)
(1.50229 0.00112297 0)
(1.49865 0.00125447 -3.42475e-21)
(1.49402 0.00144971 0)
(1.48924 0.00166127 3.33364e-21)
(1.48267 0.00202326 0)
(1.4759 0.00234217 0)
(1.46612 0.00307798 0)
(1.45545 0.0034816 0)
(1.44079 0.00520243 0)
(1.42064 0.00537892 0)
(1.40064 0.0101712 0)
(1.35193 0.00858853 -6.0214e-21)
(1.33574 0.025116 0)
(1.18558 0.0178491 0)
(-0.0081472 0.10215 -3.79635e-21)
(-0.0205174 0.0272908 3.76866e-21)
(-0.00928355 -0.0556178 0)
(0.0191171 -0.12763 -2.46298e-21)
(0.0635497 -0.184667 0)
(0.119272 -0.225988 -1.22236e-21)
(0.183279 -0.251853 2.40211e-21)
(0.252048 -0.263948 2.37853e-21)
(0.322578 -0.264641 0)
(0.391909 -0.256405 2.31665e-21)
(0.458651 -0.241453 1.15392e-21)
(0.52144 -0.22127 0)
(0.578881 -0.196636 0)
(0.629459 -0.167868 0)
(0.671517 -0.135041 0)
(0.703421 -0.0982344 1.03726e-21)
(0.72349 -0.0576818 0)
(0.730298 -0.0139315 -1.95123e-21)
(0.722456 0.0321624 0)
(0.700182 0.0794126 0)
(0.662814 0.126251 1.87018e-21)
(0.610287 0.17104 0)
(0.543274 0.212341 -1.85147e-21)
(0.462882 0.248932 9.43731e-22)
(0.370777 0.279577 -9.42568e-22)
(0.269144 0.302428 9.41253e-22)
(0.160637 0.315797 9.3897e-22)
(0.0482132 0.318316 0)
(-0.0646492 0.31037 0)
(-0.176729 0.29385 -9.21831e-22)
(-0.290228 0.272743 8.89163e-22)
(-0.413828 0.261671 0)
(-0.5459 0.264836 0)
(-0.680363 0.266143 -8.74737e-22)
(-0.810669 0.255901 0)
(-0.938504 0.240549 0)
(-1.06652 0.233286 8.31502e-22)
(-1.19342 0.230256 0)
(-1.31297 0.224555 -7.45567e-22)
(-1.42597 0.221838 1.56235e-21)
(-1.5353 0.221372 0)
(-1.63755 0.215576 0)
(-1.73327 0.205799 2.76164e-21)
(-1.82408 0.198296 2.67909e-21)
(-1.91082 0.189129 2.59665e-21)
(-1.98971 0.176005 -1.19438e-21)
(-2.06381 0.161235 1.28402e-21)
(-2.13368 0.14697 3.61807e-21)
(-2.19934 0.132771 -2.3078e-21)
(-2.26141 0.119127 -1.18518e-21)
(-2.31791 0.109748 0)
(-2.36618 0.10063 1.14194e-21)
(-2.40151 0.0854608 -1.02395e-21)
(-2.42031 0.0644557 0)
(-2.42381 0.0404837 0)
(-2.41444 0.0154498 0)
(-2.3939 -0.00866473 1.10797e-21)
(-2.36377 -0.0306496 0)
(-2.32511 -0.0500486 -2.16602e-21)
(-2.27912 -0.0667907 0)
(-2.2268 -0.0809817 -2.21904e-21)
(-2.16908 -0.0928363 0)
(-2.10677 -0.102608 2.28948e-21)
(-2.0406 -0.110563 0)
(-1.97122 -0.116957 -2.37211e-21)
(-1.89919 -0.122043 1.19361e-21)
(-1.82495 -0.126045 0)
(-1.7489 -0.129195 2.50923e-21)
(-1.67129 -0.131695 1.28982e-21)
(-1.59231 -0.13374 1.31338e-21)
(-1.51202 -0.135476 0)
(-1.43047 -0.137028 1.343e-21)
(-1.34764 -0.138469 1.38691e-21)
(-1.26354 -0.13985 0)
(-1.17814 -0.141203 -1.43794e-21)
(-1.09139 -0.142549 2.9116e-21)
(-1.00324 -0.143915 0)
(-0.9136 -0.145287 1.51672e-21)
(-0.822393 -0.146616 0)
(-0.729605 -0.147794 -4.6958e-21)
(-0.635369 -0.1487 0)
(-0.539882 -0.149225 4.85438e-21)
(-0.443433 -0.149304 1.64772e-21)
(-0.346331 -0.14892 -1.66089e-21)
(-0.24887 -0.148123 -3.36998e-21)
(-0.151284 -0.146992 3.41576e-21)
(-0.0537244 -0.145621 0)
(0.0437088 -0.144091 0)
(0.14093 -0.142448 0)
(0.237881 -0.140705 -1.07541e-20)
(0.334489 -0.13883 -3.62203e-21)
(0.430643 -0.136766 3.65026e-21)
(0.526184 -0.134438 0)
(0.620901 -0.131773 3.68212e-21)
(0.714515 -0.12871 -3.71247e-21)
(0.806724 -0.125208 -3.72469e-21)
(0.89717 -0.121251 0)
(0.985491 -0.116857 0)
(1.07135 -0.112056 0)
(1.15446 -0.106907 -3.72606e-21)
(1.23454 -0.101466 0)
(1.31137 -0.0958012 7.3919e-21)
(1.38475 -0.08997 1.10327e-20)
(1.45452 -0.084047 -7.30736e-21)
(1.52056 -0.0780834 0)
(1.58282 -0.0721586 -3.59644e-21)
(1.64124 -0.0663252 0)
(1.69585 -0.0606448 -7.06763e-21)
(1.74673 -0.0551585 3.49726e-21)
(1.79401 -0.0498897 3.46122e-21)
(1.83783 -0.0448797 0)
(1.87834 -0.0401604 1.01653e-20)
(1.91572 -0.0357454 -6.70001e-21)
(1.95016 -0.0316368 -3.31291e-21)
(1.98183 -0.0278269 0)
(2.01091 -0.0243015 -3.23658e-21)
(2.03756 -0.0210438 -9.59459e-21)
(2.06195 -0.0180374 0)
(2.0842 -0.0152688 -6.24666e-21)
(2.10446 -0.0127278 -6.17317e-21)
(2.12287 -0.0104074 -6.1005e-21)
(2.13956 -0.00830441 0)
(2.15466 -0.00641582 0)
(2.16832 -0.00473701 0)
(2.18066 -0.00326275 2.90887e-21)
(2.19181 -0.001984 2.87533e-21)
(2.20191 -0.000888997 0)
(2.21106 3.02308e-05 5.61587e-21)
(2.21936 0.00078415 5.55e-21)
(2.2269 0.00138933 0)
(2.23373 0.0018621 5.42094e-21)
(2.23996 0.00221672 1.07141e-20)
(2.24563 0.00246574 -5.29446e-21)
(2.25083 0.00262268 -5.23191e-21)
(2.2556 0.00270033 0)
(2.25999 0.00271101 0)
(2.26407 0.00266681 0)
(2.26786 0.00257945 -4.99031e-21)
(2.27141 0.00245956 4.93126e-21)
(2.27475 0.00231637 9.74599e-21)
(2.27791 0.00215772 -4.81527e-21)
(2.28092 0.00199031 4.75801e-21)
(2.28381 0.00181983 4.70137e-21)
(2.28658 0.00165122 0)
(2.28927 0.00148874 0)
(2.29188 0.00133594 -4.53435e-21)
(2.29443 0.0011956 0)
(2.2969 0.00106974 0)
(2.29932 0.000959484 8.74322e-21)
(2.30168 0.000865246 0)
(2.30396 0.000786827 4.26529e-21)
(2.30618 0.000723694 -4.21278e-21)
(2.30831 0.000675112 0)
(2.31035 0.000640359 4.10888e-21)
(2.31229 0.000618792 0)
(2.31412 0.000609908 0)
(2.31582 0.000613385 -3.95599e-21)
(2.31739 0.000629395 7.81146e-21)
(2.31882 0.000658865 -3.85589e-21)
(2.32009 0.000702725 0)
(2.32118 0.000764093 0)
(2.32209 0.000843886 3.70835e-21)
(2.32278 0.000949572 0)
(2.32325 0.00107889 3.61186e-21)
(2.32343 0.00125162 0)
(2.32335 0.001452 0)
(2.32285 0.00173621 0)
(2.32203 0.0020413 3.424e-21)
(2.32058 0.00252967 0)
(2.31865 0.00298206 -3.33289e-21)
(2.31581 0.0038779 0)
(2.31206 0.00450791 0)
(2.3072 0.00629866 6.40153e-21)
(2.3 0.00703882 -6.31728e-21)
(2.29241 0.0109945 0)
(2.27761 0.0114304 0)
(2.2674 0.021201 0)
(2.2334 0.0201662 1.80438e-20)
(2.22548 0.0478587 0)
(2.14174 0.04577 -1.17674e-20)
(0.00764842 0.10588 7.8425e-24)
(0.0182406 0.0174011 -5.01058e-21)
(0.0437491 -0.0943044 0)
(0.0753654 -0.19203 4.92096e-21)
(0.11575 -0.270158 0)
(0.16125 -0.32658 0)
(0.209468 -0.361855 -2.2065e-23)
(0.2578 -0.377708 -2.3803e-21)
(0.305335 -0.377847 -2.31958e-21)
(0.351863 -0.365999 -2.31831e-21)
(0.397104 -0.34504 0)
(0.440397 -0.316584 0)
(0.480529 -0.281156 2.14066e-21)
(0.515866 -0.238695 4.17593e-21)
(0.544437 -0.189006 -4.06993e-21)
(0.564267 -0.132214 0)
(0.573264 -0.0688899 -3.87159e-21)
(0.569788 -0.000268167 1.95248e-21)
(0.55224 0.0719969 0)
(0.520167 0.145794 -3.66202e-21)
(0.473068 0.218764 -1.8714e-21)
(0.411435 0.288251 3.60272e-21)
(0.336827 0.351645 1.85272e-21)
(0.251712 0.406515 0)
(0.158365 0.450891 -3.59985e-21)
(0.0588799 0.482848 -3.60599e-21)
(-0.044722 0.500808 0)
(-0.150869 0.50366 -3.6053e-21)
(-0.258392 0.491269 0)
(-0.368262 0.469372 -3.56717e-21)
(-0.4873 0.46167 -1.80285e-21)
(-0.614929 0.467648 0)
(-0.742027 0.468074 0)
(-0.867143 0.461576 0)
(-0.992293 0.454834 0)
(-1.11929 0.449596 0)
(-1.24471 0.441407 0)
(-1.3673 0.430791 -3.04415e-21)
(-1.48645 0.421446 4.49946e-21)
(-1.60065 0.408905 0)
(-1.7087 0.391855 0)
(-1.81146 0.37609 0)
(-1.90899 0.360159 -1.75507e-22)
(-1.99929 0.339615 -2.68109e-21)
(-2.08285 0.315658 -5.01477e-21)
(-2.16075 0.293047 4.85414e-21)
(-2.23529 0.271391 2.26063e-21)
(-2.30522 0.25071 -2.37208e-21)
(-2.36796 0.232551 1.75435e-22)
(-2.42019 0.210594 -2.08486e-21)
(-2.45697 0.18006 0)
(-2.47644 0.143262 -2.01787e-21)
(-2.48035 0.103208 1.52081e-22)
(-2.47062 0.0622686 0)
(-2.44957 0.0219843 0)
(-2.41917 -0.0164845 2.00282e-21)
(-2.38107 -0.0519601 0)
(-2.33651 -0.0836926 0)
(-2.28639 -0.111381 -1.97805e-21)
(-2.23147 -0.135083 -4.21217e-21)
(-2.17233 -0.155055 2.21917e-21)
(-2.10951 -0.171646 0)
(-2.04349 -0.185234 -2.28949e-21)
(-1.97471 -0.196213 0)
(-1.90358 -0.204944 -2.27524e-21)
(-1.8305 -0.211773 -2.41637e-21)
(-1.75578 -0.217036 4.84397e-21)
(-1.67972 -0.221077 2.4348e-21)
(-1.6025 -0.224223 0)
(-1.5242 -0.226791 -5.14534e-21)
(-1.44483 -0.229025 0)
(-1.36435 -0.231099 -8.05438e-21)
(-1.28267 -0.233106 -5.45326e-21)
(-1.19976 -0.235089 -5.55792e-21)
(-1.11556 -0.237082 5.66357e-21)
(-1.03004 -0.23912 -8.68149e-21)
(-0.943109 -0.241253 0)
(-0.854636 -0.243483 0)
(-0.764474 -0.245732 6.09519e-21)
(-0.67258 -0.247785 9.33042e-21)
(-0.579045 -0.249389 0)
(-0.484118 -0.25031 -3.23186e-21)
(-0.388153 -0.250421 0)
(-0.291551 -0.249703 9.96133e-21)
(-0.194697 -0.248248 3.58155e-23)
(-0.0978835 -0.246226 -3.42286e-23)
(-0.00127982 -0.243827 -6.90482e-21)
(0.0950274 -0.241205 0)
(0.191009 -0.238457 7.06311e-21)
(0.286656 -0.235589 2.92032e-23)
(0.381946 -0.232544 0)
(0.476808 -0.229216 0)
(0.571105 -0.225461 0)
(0.66463 -0.22115 -7.37772e-21)
(0.757102 -0.216161 0)
(0.848203 -0.210428 0)
(0.937564 -0.203932 0)
(1.0248 -0.196694 0)
(1.10958 -0.188784 0)
(1.1916 -0.180291 -7.43143e-21)
(1.27061 -0.17133 0)
(1.34637 -0.162002 -7.39171e-21)
(1.41869 -0.152422 -7.35306e-21)
(1.48743 -0.142704 7.30717e-21)
(1.55246 -0.132951 0)
(1.61373 -0.123295 7.19688e-21)
(1.67121 -0.113807 0)
(1.72495 -0.104582 7.0674e-21)
(1.77505 -0.0956888 -6.99749e-21)
(1.82164 -0.0871895 -2.07653e-20)
(1.86489 -0.0791514 0)
(1.90501 -0.0716106 -2.03188e-20)
(1.9422 -0.0645817 -6.69193e-21)
(1.97668 -0.0580613 0)
(2.00867 -0.0520315 -1.3088e-20)
(2.03835 -0.0464651 -1.29366e-20)
(2.06587 -0.041331 1.91819e-20)
(2.0914 -0.0365997 0)
(2.11505 -0.0322466 6.24654e-21)
(2.13694 -0.0282541 6.17305e-21)
(2.1572 -0.0246111 1.82977e-20)
(2.17593 -0.0213096 0)
(2.19325 -0.0183423 0)
(2.20927 -0.0157013 0)
(2.22411 -0.0133749 5.81615e-21)
(2.23788 -0.0113467 0)
(2.25069 -0.00959754 0)
(2.26266 -0.00810513 -5.61576e-21)
(2.27386 -0.00684307 -5.54989e-21)
(2.28441 -0.005786 0)
(2.29435 -0.00491124 0)
(2.30377 -0.00419776 -1.07139e-20)
(2.31271 -0.00362441 0)
(2.32121 -0.00317284 1.04639e-20)
(2.32932 -0.00282598 1.03405e-20)
(2.33707 -0.00256761 0)
(2.34449 -0.00238178 0)
(2.35162 -0.00225441 -9.97981e-21)
(2.35847 -0.00217398 -2.72149e-25)
(2.36507 -0.00213082 -2.22881e-25)
(2.37143 -0.00211675 0)
(2.37757 -0.00212464 -1.90313e-20)
(2.38351 -0.00214828 0)
(2.38927 -0.00218211 0)
(2.39485 -0.002221 0)
(2.40028 -0.00226019 9.06833e-21)
(2.40558 -0.00229536 0)
(2.41074 -0.00232266 -1.77007e-20)
(2.41579 -0.00233891 -8.74282e-21)
(2.42073 -0.00234161 0)
(2.42557 -0.00232892 -8.53019e-21)
(2.43031 -0.00229963 0)
(2.43494 -0.00225298 0)
(2.43946 -0.0021887 -2.4652e-20)
(2.44387 -0.00210665 1.62292e-20)
(2.44815 -0.00200702 0)
(2.4523 -0.00188961 1.58229e-20)
(2.45629 -0.00175471 -7.81104e-21)
(2.46013 -0.00160105 0)
(2.4638 -0.00142862 0)
(2.46729 -0.0012327 0)
(2.47059 -0.00101408 -2.22488e-20)
(2.47367 -0.000760012 0)
(2.47653 -0.000477054 -7.22345e-21)
(2.47914 -0.00013258 0)
(2.48146 0.000245241 0)
(2.4835 0.000742545 0)
(2.48514 0.00126316 0)
(2.48646 0.0020388 0)
(2.48713 0.00276951 0)
(2.48749 0.00408817 -1.31485e-20)
(2.48668 0.00510867 0)
(2.48576 0.00756575 -6.40108e-21)
(2.48242 0.00893649 1.89455e-20)
(2.47981 0.013964 0)
(2.47177 0.0157075 0)
(2.46719 0.0270301 -1.21503e-20)
(2.4501 0.0296025 -1.2023e-20)
(2.44458 0.0575589 1.1864e-20)
(2.41298 0.0650873 1.17667e-20)
(0.00989814 0.0544339 7.55809e-21)
(0.0314591 -0.0448068 7.50733e-21)
(0.0658585 -0.165832 4.95976e-21)
(0.106078 -0.271204 2.45055e-21)
(0.148376 -0.354081 0)
(0.187222 -0.41045 -4.79059e-21)
(0.221134 -0.441804 2.34083e-21)
(0.251204 -0.45303 0)
(0.279801 -0.449713 2.32132e-21)
(0.308667 -0.43592 0)
(0.338236 -0.413405 -4.38744e-21)
(0.367586 -0.382101 0)
(0.394929 -0.341063 -2.1423e-21)
(0.417998 -0.289208 -4.17913e-21)
(0.43444 -0.225873 4.07303e-21)
(0.442215 -0.151095 0)
(0.439321 -0.0657646 3.87443e-21)
(0.424581 0.0280466 0)
(0.396423 0.127528 0)
(0.354944 0.228596 3.6647e-21)
(0.3 0.326982 0)
(0.232174 0.418495 -1.41189e-22)
(0.153109 0.499568 0)
(0.0651687 0.567462 0)
(-0.0292631 0.620566 1.26431e-22)
(-0.128348 0.658053 3.60862e-21)
(-0.230437 0.679456 3.49165e-21)
(-0.334707 0.684892 3.60786e-21)
(-0.442061 0.679485 0)
(-0.559277 0.678353 7.02308e-21)
(-0.685071 0.683659 0)
(-0.810557 0.683217 3.36707e-21)
(-0.934998 0.677505 0)
(-1.05972 0.669616 0)
(-1.18463 0.65999 -3.16272e-21)
(-1.30781 0.646538 0)
(-1.42874 0.632027 2.98643e-21)
(-1.54755 0.617578 1.57436e-22)
(-1.66117 0.598628 -5.74369e-21)
(-1.76937 0.576655 5.36842e-21)
(-1.87209 0.553568 0)
(-1.96833 0.527401 0)
(-2.05628 0.497314 2.17264e-21)
(-2.13534 0.464495 0)
(-2.20933 0.432116 2.41785e-21)
(-2.27959 0.402853 -2.3371e-21)
(-2.34355 0.375742 -2.26189e-21)
(-2.39623 0.342313 0)
(-2.43262 0.298497 2.13472e-21)
(-2.45234 0.247737 2.08567e-21)
(-2.45701 0.192574 -3.68974e-21)
(-2.44841 0.135564 2.01827e-21)
(-2.42857 0.0787339 2.00031e-21)
(-2.39945 0.0238637 0)
(-2.36281 -0.0277571 0)
(-2.32004 -0.0751964 -2.00268e-21)
(-2.27224 -0.117853 0)
(-2.22019 -0.155472 0)
(-2.16447 -0.188119 4.14371e-21)
(-2.10553 -0.216054 4.21142e-21)
(-2.0437 -0.239632 0)
(-1.97928 -0.259269 0)
(-1.91255 -0.275384 0)
(-1.84378 -0.28839 0)
(-1.77324 -0.29869 4.64626e-21)
(-1.70122 -0.306655 -4.63316e-21)
(-1.62801 -0.312697 -4.84293e-21)
(-1.55387 -0.317232 -9.79061e-21)
(-1.47898 -0.320711 0)
(-1.40335 -0.323564 8.49827e-23)
(-1.32688 -0.326148 0)
(-1.2494 -0.328685 5.34868e-21)
(-1.17073 -0.331266 7.62548e-23)
(-1.09075 -0.333888 5.55702e-21)
(-1.00944 -0.336545 -5.66269e-21)
(-0.926798 -0.33929 7.04608e-23)
(-0.842768 -0.342221 0)