/*--------------------------------*- C++ -*----------------------------------*\
  =========                 |
  \\      /  F ield         | OpenFOAM: The Open Source CFD Toolbox
   \\    /   O peration     | Website:  https://openfoam.org
    \\  /    A nd           | Version:  7
     \\/     M anipulation  |
\*---------------------------------------------------------------------------*/
FoamFile
{
    version     2.0;
    format      ascii;
    class       volVectorField;
    location    "29";
    object      U;
}
// * * * * * * * * * * * * * * * * * * * * * * * * * * * * * * * * * * * * * //

dimensions      [0 1 -1 0 0 0 0];

internalField   nonuniform List<vector> 
918
(
(0.813495 -0.0529587 0)
(0.134464 2.47694 0)
(0.0521289 0.633885 0)
(0.756262 0.0535046 0)
(-0.0143375 0.659247 -1.7383e-19)
(-0.136691 2.25728 -2.71876e-17)
(0.24685 0.420685 -9.25467e-19)
(0.102524 0.0550382 -5.20847e-20)
(1.00266 -0.00703187 0)
(-0.00354623 0.248899 0)
(-0.0101231 0.303557 0)
(0.201203 0.00183475 0)
(0.117393 1.74038 0)
(0.00851586 1.3014 0)
(-0.00587977 1.03834 -1.31554e-18)
(-0.00423445 0.41557 -1.52272e-19)
(0.111497 0.0266586 3.83052e-18)
(0.0450091 0.363276 -4.73135e-19)
(0.476396 0.0500562 0)
(-0.0167389 0.370695 0)
(0.238429 0.123235 -1.75354e-18)
(1.02784 -0.139879 0)
(0.959595 -0.177497 0)
(0.589268 -0.0666038 0)
(0.174634 0.0115495 0)
(-0.0149983 1.47503 0)
(-0.0469631 1.72795 8.38326e-18)
(-0.0227724 0.812691 0)
(0.0234661 1.61754 0)
(0.0504716 0.989608 0)
(-0.0240178 1.67369 0)
(0.0133068 0.88401 1.35936e-19)
(0.0124413 0.35406 0)
(-0.320951 2.70296 -1.01823e-21)
(-0.310509 3.10884 2.34913e-17)
(-0.0130235 3.04129 0)
(0.241419 -0.000685211 0)
(0.0668445 0.0845189 5.64462e-19)
(0.43098 0.696878 2.0181e-18)
(0.275622 0.354221 -1.63568e-18)
(0.376679 0.785417 1.93177e-19)
(0.211378 0.461653 -9.56473e-19)
(0.201712 0.107642 5.2474e-20)
(0.107008 0.0539365 0)
(0.318079 0.196499 0)
(0.202106 0.109817 2.34493e-19)
(0.104416 0.0598072 -2.32975e-19)
(0.275411 -0.0145492 0)
(1.01043 -0.00025584 0)
(1.00278 0.00667826 0)
(1.07491 -0.154056 0)
(1.01611 -0.0279902 0)
(1.01126 -0.0177138 0)
(0.00855336 0.553159 -2.42382e-18)
(-0.016649 0.510564 0)
(0.00345773 0.25082 0)
(-0.011874 0.504165 0)
(-0.00566483 0.249646 0)
(-0.00337737 0.506461 0)
(-0.0294969 0.574248 0)
(-0.00708851 0.274136 0)
(-0.0118759 0.604273 0)
(-0.00350978 0.323607 0)
(0.254658 0.00268701 0)
(0.389085 -0.000431499 0)
(0.204788 0.00329587 0)
(0.375875 0.00543569 0)
(0.191522 0.00227776 0)
(0.345185 2.93893 1.0712e-17)
(0.284413 3.23577 0)
(0.225159 3.03561 0)
(0.211121 2.70618 1.15536e-22)
(0.138778 2.12556 -1.50561e-17)
(0.17755 2.49081 0)
(0.077599 1.54065 0)
(0.0169236 2.25859 1.59221e-23)
(0.0180313 1.30088 0)
(-0.0621894 2.29148 0)
(-0.0451398 1.32082 0)
(0.0249589 1.76036 0)
(-0.0102105 1.16844 0)
(0.0117914 1.8956 1.33068e-18)
(0.00309202 1.09187 0)
(-0.0586901 2.47651 0)
(0.000585063 0.79001 1.54087e-19)
(-0.00622096 0.428788 -2.08128e-19)
(0.224778 0.0523802 -1.35559e-18)
(0.113728 0.0225221 -1.29563e-18)
(0.227272 0.0606135 -4.07766e-18)
(0.112758 0.0340113 -2.57746e-18)
(0.0514053 0.380132 0)
(0.109431 0.70213 4.51495e-19)
(0.106132 0.415117 -7.10794e-19)
(0.656753 0.0840736 0)
(0.346259 0.0354504 0)
(1.00992 0.0417556 0)
(1.0276 0.159 0)
(0.935571 0.139979 -1.68843e-17)
(0.850073 0.134925 1.26566e-17)
(-0.0401968 0.689307 0)
(-0.00707455 0.330389 0)
(-0.0156734 1.10295 0)
(-0.0319303 0.748096 0)
(-0.0314547 0.372765 0)
(0.399156 0.133928 6.0409e-19)
(0.171567 0.086534 0)
(0.742631 -0.0932061 0)
(0.411964 -0.0416507 0)
(0.36189 0.0033912 0)
(0.344757 0.00730194 0)
(0.182134 0.00232752 0)
(0.32435 0.0175318 0)
(0.281422 0.0216803 0)
(0.119457 0.00936586 5.94002e-18)
(-0.0214985 1.34816 4.35134e-18)
(-0.0515161 2.4262 0)
(-0.0731143 2.5135 0)
(-0.0190212 1.35894 0)
(-0.0666545 2.63612 7.70033e-18)
(-0.0345613 1.62914 0)
(-0.103457 2.69815 -2.52766e-17)
(-0.0733536 1.81721 8.46706e-18)
(0.00316956 1.96118 0)
(-0.00887185 2.18752 0)
(-0.0113865 0.752106 -3.08914e-21)
(-0.00882746 0.716357 0)
(-0.0065504 0.394693 0)
(0.459218 0.0108002 0)
(0.246722 0.00461666 0)
(0.230626 0.00335648 0)
(0.458907 -0.00866618 0)
(0.250494 -0.00252065 0)
(0.216707 0.246991 -7.59267e-19)
(0.0557231 0.0712315 0)
(0.200712 0.27799 9.98907e-20)
(0.0728858 0.117964 0)
(0.490521 0.590575 5.34911e-19)
(0.29573 0.305811 -1.20282e-18)
(0.227993 0.763916 0)
(0.308709 0.810332 0)
(0.166097 0.462956 0)
(0.0663341 0.170289 -7.85551e-19)
(0.215334 0.0987824 0)
(0.110768 0.0474151 7.0365e-19)
(0.513525 0.510041 0)
(0.537858 0.417636 0)
(0.304703 0.249109 1.34142e-18)
(0.569853 0.321976 0)
(0.344146 0.148045 2.80597e-20)
(0.47736 0.00308064 0)
(0.484027 -0.00642077 0)
(0.256719 -0.00020635 0)
(0.619361 -0.0612945 0)
(0.526974 -0.0412372 0)
(0.329228 -0.0267398 0)
(1.0256 0.0654595 0)
(1.01256 0.0271032 0)
(1.00465 0.0215235 0)
(0.0126676 0.996653 1.31409e-18)
(0.00778466 0.51753 0)
(0.00654822 1.04614 2.32004e-18)
(0.000899172 0.578719 -2.04428e-18)
(0.0408874 0.617594 4.05185e-19)
(0.0213005 0.529481 0)
(0.0198154 0.300325 0)
(-0.0136724 0.515106 0)
(-0.0032484 0.264235 0)
(-0.00375637 0.942419 -8.5985e-21)
(-0.0163335 0.520049 0)
(-0.0309186 0.911549 -4.22561e-19)
(-0.0140874 0.472091 8.01434e-19)
(9.37863e-06 0.524928 0)
(0.00255142 0.532524 0)
(0.000333185 0.27152 0)
(0.00372613 0.6126 0)
(-0.000534151 0.322957 0)
(0.47375 -0.00115948 0)
(0.254485 0.00296021 0)
(0.467093 0.00890149 0)
(0.246672 0.000303374 0)
(0.222312 0.00111025 0)
(0.416188 0.00469328 0)
(0.397805 0.0137062 0)
(0.217617 0.00477756 0)
(-0.00648334 4.03788 -6.94137e-20)
(0.0602187 3.91025 0)
(0.0867566 2.35695 0)
(0.0374097 1.39791 0)
(0.241856 1.65784 0)
(0.257337 0.70449 2.12798e-19)
(0.0257747 1.98558 0)
(-0.0220368 1.14606 0)
(-0.0390052 2.32863 0)
(-0.0608857 2.47673 0)
(-0.0464084 2.4359 0)
(-0.0302977 1.78946 1.40905e-20)
(-0.0561448 2.43908 0)
(-0.0338464 2.20377 0)
(0.00179875 0.449323 1.69374e-20)
(0.00829262 0.859064 3.02003e-19)
(-0.0156292 0.821847 2.17417e-19)
(-0.00292694 0.45118 0)
(0.231738 0.0367688 2.08962e-18)
(0.113837 0.0151245 -2.00872e-18)
(0.095128 0.703898 0)
(0.0654996 0.342591 -5.87681e-19)
(0.0837157 0.78067 -1.95974e-18)
(0.0354167 0.435327 1.91696e-18)
(0.258687 0.00609563 0)
(0.500575 0.0124706 0)
(0.545666 0.0365557 0)
(0.289385 0.0121226 0)
(0.000826257 0.624228 0)
(0.00834023 0.635949 0)
(0.000528945 0.331212 0)
(0.205666 0.115434 2.10546e-18)
(0.24479 0.120081 -2.37628e-18)
(0.116506 0.0647037 0)
(0.616357 0.0475648 2.35967e-19)
(0.360493 0.030912 0)
(0.551489 0.0356136 0)
(0.283008 0.00755455 0)
(0.234039 0.0288103 0)
(0.240555 0.0168708 -9.72182e-18)
(0.119129 0.0111257 3.53878e-18)
(-0.028359 2.40686 4.86687e-18)
(-0.0222552 1.43702 4.5088e-19)
(0.0206252 3.94123 -1.60315e-19)
(0.126145 3.8064 7.0253e-18)
(-0.141174 2.77487 3.10133e-19)
(-0.0946642 1.99797 -1.26538e-21)
(-0.258628 3.0954 -6.58443e-18)
(0.0494086 3.53287 4.93308e-18)
(0.0129017 3.73836 -7.38599e-18)
(0.461335 -0.0046504 0)
(0.468583 0.00546742 0)
(0.249583 -0.000390014 0)
(0.4698 0.00650362 0)
(0.443005 0.012659 0)
(0.245993 0.00575449 0)
(0.426491 -0.000878967 0)
(0.431443 -0.00207511 0)
(0.226857 -0.000552184 0)
(0.163993 0.277287 -4.03049e-19)
(0.0530156 0.119035 0)
(0.068918 0.134808 2.10038e-19)
(0.15783 0.310206 1.64512e-18)
(0.164796 0.302008 -9.08192e-19)
(0.0662408 0.125792 1.70543e-18)
(0.13354 0.373596 4.02722e-18)
(0.0725347 0.170402 7.65545e-19)
(0.2247 0.0751576 2.76867e-18)
(0.221139 0.088923 7.19778e-19)
(0.11285 0.041093 1.32763e-18)
(0.618013 0.236886 -1.53673e-18)
(0.370518 0.110039 -1.67311e-18)
(-0.0192958 1.0441 9.8945e-19)
(-0.00883884 0.571044 0)
(0.513955 0.00684482 0)
(0.490811 0.0190514 0)
(0.273467 0.00730132 0)
(0.0159604 4.013 0)
(0.0437197 2.26224 9.90168e-18)
(0.0580452 2.29558 0)
(0.0235521 1.33437 -9.19023e-18)
(-0.0171287 4.07976 1.95551e-18)
(-0.0298842 4.10506 0)
(0.236347 0.376384 -2.73975e-20)
(0.31281 0.685427 2.45747e-19)
(0.0731149 0.2111 -3.78216e-19)
(-0.0482357 2.27104 -4.22327e-18)
(-0.0485706 2.10156 0)
(-0.0313042 1.26698 0)
(0.00706232 0.871456 -3.11285e-20)
(0.0125755 0.878805 -6.5978e-19)
(0.00741417 0.457491 -3.00434e-20)
(0.145319 0.631596 1.95055e-18)
(0.0726203 0.280509 -1.2627e-18)
(0.00931286 0.930603 1.61301e-18)
(0.0312936 0.852433 -1.80109e-18)
(0.015291 0.477143 8.7301e-20)
(-0.0254556 4.05482 -1.12816e-17)
(-0.0369646 4.13954 1.09888e-17)
(-0.0387288 2.55592 6.22668e-18)
(-0.07417 2.45537 -5.35031e-18)
(-0.0193528 1.55227 -6.00557e-18)
(-0.0420737 4.1304 -1.45061e-17)
(-0.0441857 4.12788 1.27483e-17)
(0.158852 0.364389 0)
(0.168965 0.334685 -3.74973e-18)
(0.0743606 0.15444 1.59679e-18)
(0.179001 0.428148 2.40878e-18)
(0.0783372 0.219953 -3.6086e-18)
(0.655057 0.10145 8.97733e-19)
(0.654635 0.175494 0)
(0.383872 0.0715818 -8.90757e-19)
(-0.0429966 0.975225 -9.68722e-21)
(-0.0185461 1.02253 0)
(-0.0118786 0.561683 0)
(0.137313 0.545532 -6.85129e-19)
(0.143004 0.493759 -1.48078e-18)
(0.0714336 0.251682 2.69789e-18)
(1.05426 -0.151118 0)
(1.12548 -0.152672 3.01017e-18)
(0.0026635 1.9 0)
(0.000565195 1.57035 0)
(1.05544 0.0995084 2.23851e-20)
(1.03981 0.174081 6.25914e-18)
(-0.00429142 1.82407 -1.84221e-20)
(-0.00839612 1.41924 0)
(-0.0722976 3.76593 2.86983e-18)
(0.0335459 3.43896 0)
(1.12923 0.547516 -8.0021e-19)
(1.04691 0.0885352 -3.58626e-20)
(1.03458 -0.0366533 0)
(1.03873 -0.000399553 -3.14486e-23)
(0.0368517 1.31029 0)
(0.0834835 2.01248 0)
(-0.0339298 1.31528 0)
(-0.0416256 2.01909 6.24096e-19)
(-0.0458778 2.01934 3.87602e-19)
(0.872802 0.0142838 -1.93756e-20)
(1.00053 0.00833033 0)
(1.03375 0.0258772 0)
(-0.0693486 2.45942 0)
(-0.0425677 1.69562 0)
(-0.0594886 1.59346 0)
(0.313217 1.49627 5.94059e-19)
(1.11643 -0.144026 0)
(0.991658 -0.111592 0)
(1.06512 -0.0205093 3.84433e-18)
(1.10706 -0.121403 -4.55227e-18)
(1.04037 -0.0478903 0)
(-0.0776045 2.41716 0)
(-0.0347961 2.127 0)
(-0.0440956 2.28915 0)
(-0.0422783 1.66646 0)
(-0.0401882 1.57202 0)
(-0.0346877 1.33364 0)
(0.975833 -0.000802597 0)
(0.935361 0.0137404 -2.45164e-20)
(0.798975 1.24925 -9.75499e-19)
(1.06052 0.018283 -3.84545e-18)
(1.07212 0.107088 4.64809e-18)
(1.03328 0.0455097 0)
(1.13184 0.111752 3.56142e-18)
(1.11806 0.166571 -4.53584e-18)
(1.0079 0.135667 0)
(-0.0489454 1.81901 0)
(-0.0200266 1.76593 1.29405e-19)
(-0.0271726 1.38632 -9.11274e-20)
(1.21142 0.180374 4.7426e-18)
(1.13731 0.0657091 0)
(-0.237695 3.94938 -3.7433e-18)
(-0.155103 2.49818 -2.43405e-19)
(-0.239508 4.01188 4.39315e-18)
(-0.0599546 3.90776 -1.74858e-18)
(-0.0184234 3.54705 0)
(-0.0225996 3.82455 1.41893e-18)
(-0.164813 4.15516 3.85886e-18)
(-0.0812258 4.04401 -2.64019e-18)
(-0.102802 4.05482 0)
(0.451894 0.205523 0)
(0.431283 0.234666 0)
(1.15402 0.696753 2.42718e-18)
(0.997855 0.66931 -3.08809e-18)
(1.25431 0.573668 0)
(1.09082 0.383701 0)
(1.11023 0.0915436 -6.82759e-18)
(0.943487 0.053812 8.42697e-18)
(1.109 -0.0481135 0)
(0.930039 -0.0233145 0)
(1.16643 0.0157997 0)
(1.21744 0.0518585 0)
(1.11042 0.0427647 0)
(1.1957 0.105647 0)
(1.15025 0.107341 0)
(1.12465 0.0817739 0)
(0.0476401 1.3974 0)
(0.0192982 1.06438 0)
(0.0757069 1.51921 0)
(0.0618582 1.12397 0)
(0.0950221 2.16135 0)
(0.0884275 1.64698 -1.21628e-18)
(0.0228107 2.15284 0)
(0.0109474 1.87449 8.62278e-19)
(-0.0272506 1.91754 -1.04839e-18)
(-0.0360216 1.42872 0)
(-0.0181102 1.14202 0)
(-0.0408271 1.49884 0)
(-0.0290728 1.04293 0)
(-0.0946195 2.55902 -4.63388e-19)
(-0.0777742 2.21099 5.09276e-19)
(-0.0657704 2.16086 5.98367e-19)
(-0.0414658 1.76618 0)
(-0.0751049 2.12241 -8.9973e-19)
(-0.0341108 1.83905 -5.46405e-19)
(-0.0851257 2.57816 3.60155e-19)
(-0.0875333 2.45694 -6.49954e-19)
(-0.074382 2.38195 -7.28354e-19)
(1.0079 0.0244205 6.14199e-18)
(0.755565 0.00868041 -7.7149e-18)
(0.963376 0.038789 -6.13632e-18)
(0.73314 0.0221247 7.63879e-18)
(1.11405 0.0082791 0)
(0.859296 -0.000574856 0)
(1.14101 0.0283703 0)
(1.0952 0.00596892 0)
(0.87845 0.00350664 0)
(1.21681 0.0757364 0)
(1.13272 0.0301991 0)
(0.926222 0.018941 0)
(-0.0445507 2.31544 -1.97105e-20)
(-0.0681537 2.47473 0)
(-0.063278 2.41072 0)
(-0.0623596 1.92058 1.56254e-19)
(-0.0264122 1.54997 -6.36044e-21)
(-0.0899458 2.49211 2.04992e-19)
(-0.0917391 2.38626 -2.12157e-19)
(-0.0792734 2.1137 0)
(-0.0680888 2.0978 0)
(-0.0606323 2.13996 0)
(-0.0598119 1.74792 0)
(-0.0338916 1.22249 0)
(0.415408 1.71423 -1.3402e-18)
(0.434237 1.37471 -4.34553e-19)
(0.303668 1.31463 -5.04126e-19)
(0.167207 1.4556 1.55487e-18)
(0.480056 2.46819 5.51409e-19)
(1.13939 -0.0544156 0)
(1.10064 -0.0857555 0)
(0.935381 -0.0569527 0)
(1.1772 -0.0230678 0)
(1.12961 -0.0540727 0)
(1.16236 -0.0955829 0)
(1.18507 -0.10084 0)
(1.20172 -0.0971021 0)
(1.0639 0.0262567 6.47271e-18)
(0.829094 0.0184604 -8.14707e-18)
(1.02268 0.0309525 -6.4312e-18)
(0.819632 0.016648 7.98441e-18)
(0.775145 1.3953 0)
(0.687986 1.29965 -1.20025e-18)
(0.838533 1.30409 -1.12811e-18)
(0.837296 1.00225 1.51121e-18)
(0.661063 1.25867 2.94691e-18)
(0.496269 0.070246 2.43203e-18)
(1.22826 0.0976087 0)
(1.28337 0.18661 -3.83271e-18)
(1.06862 0.0790107 -1.68832e-19)
(1.25671 0.140401 0)
(-0.216179 3.32303 2.98181e-18)
(-0.260107 3.42306 -3.92929e-18)
(-0.0515151 1.66887 2.27361e-18)
(0.253063 0.511997 -1.21277e-18)
(0.0444439 3.59781 8.1942e-19)
(-0.0066324 3.64882 0)
(0.0261359 3.32391 -1.16592e-18)
(-0.147086 3.56013 -7.64895e-18)
(-0.0367459 3.62694 0)
(-0.0301626 3.96223 2.94811e-19)
(-0.0402233 4.24155 -3.27862e-18)
(-0.0499354 4.02855 4.72927e-18)
(-0.0953595 4.18166 0)
(-0.0372182 4.11287 0)
(0.657977 1.4581 0)
(0.66128 0.815518 -2.24309e-18)
(0.893683 0.800846 1.07959e-18)
(0.89288 1.06694 0)
(0.989762 1.12319 -9.50159e-19)
(1.02029 0.855626 4.46818e-20)
(0.479982 0.146508 -3.12535e-18)
(0.543151 0.236582 -1.81547e-20)
(0.430686 0.159094 1.56735e-18)
(0.480529 0.28041 1.05598e-19)
(0.376341 0.217082 -4.15923e-18)
(0.516467 0.244037 0)
(0.696289 0.365637 2.65206e-18)
(0.705988 0.341491 0)
(0.510766 0.268314 0)
(0.383519 0.19182 0)
(1.09257 0.71993 2.09577e-18)
(1.29888 0.249522 -3.95748e-18)
(1.25717 0.400518 0)
(1.14428 0.25007 0)
(0.481312 0.126587 2.41345e-18)
(1.08334 0.604223 -1.60142e-18)
(0.957304 0.544762 2.96522e-18)
(1.25605 0.461411 -3.64162e-18)
(1.01495 0.0352673 4.36945e-18)
(1.04003 0.0557498 -4.51246e-18)
(0.8641 0.0273502 0)
(1.09185 -0.0112537 0)
(1.0505 -0.0266417 -4.22657e-18)
(0.851156 -0.00924604 4.17402e-18)
(1.33849 0.0286655 0)
(1.25643 0.0445997 0)
(1.25122 0.0531922 0)
(1.20553 0.0676623 0)
(1.30203 0.0198216 0)
(1.2656 0.0166881 0)
(-0.0111335 1.27253 0)
(-0.0150352 1.02568 0)
(0.156603 1.90996 -7.79264e-19)
(0.303574 1.61381 -3.36783e-19)
(0.146208 1.51047 -7.30023e-19)
(0.178292 1.27864 1.17769e-18)
(0.17952 1.93166 0)
(0.185865 2.43193 -1.03991e-18)
(0.16036 2.44799 0)
(0.39993 2.50196 -7.59251e-19)
(0.351136 2.36037 1.97595e-18)
(0.244605 2.38198 8.99765e-19)
(0.298235 1.93159 -4.02492e-19)
(0.232056 2.03654 3.22828e-19)
(0.354509 2.2127 -1.35887e-18)
(0.298586 2.44937 0)
(0.350092 2.41318 9.98044e-19)
(-0.0382141 2.51002 -3.72581e-19)
(-0.0317793 2.13156 0)
(0.0130359 2.41387 1.10565e-18)
(-0.0278356 2.46306 0)
(-0.016917 2.06788 -9.57494e-19)
(-0.0182673 1.77977 0)
(-0.0734981 2.23803 -5.24852e-19)
(-0.09131 2.4755 0)
(-0.0418151 1.95069 0)
(-0.0355271 1.91304 6.11938e-19)
(-0.0606132 2.21835 1.88154e-20)
(-0.0511675 2.1512 1.27258e-18)
(-0.0411466 1.75051 8.18389e-21)
(-0.0981089 2.52874 3.26429e-19)
(-0.0951039 2.53669 1.87211e-19)
(-0.0224943 1.36188 0)
(-0.00604848 1.10657 0)
(-0.0602522 2.54885 9.38135e-19)
(-0.0484545 2.20898 7.988e-19)
(-0.0705448 2.38666 -1.04084e-18)
(-0.0274852 2.50219 0)
(-0.0836199 2.42833 -5.57088e-19)
(-0.0966687 2.25399 2.33962e-19)
(-0.082083 2.29947 -7.51481e-20)
(-0.0836908 2.53581 -4.10365e-19)
(-0.0815709 2.3207 -1.26827e-19)
(-0.0806416 2.29768 6.10455e-19)
(0.944757 0.0170235 -4.2529e-18)
(0.941302 0.0135102 4.1343e-18)
(0.769893 0.00970991 0)
(1.17836 0.0595017 5.65828e-18)
(0.903544 0.0383727 -6.10218e-18)
(0.748535 0.0195087 6.66177e-18)
(1.2421 0.102249 -7.56027e-19)
(1.05953 -0.0148905 0)
(1.04387 -0.00498835 4.072e-18)
(0.878061 -0.00484869 -4.00575e-18)
(1.29186 0.0365583 -2.34822e-19)
(1.2568 0.0321361 2.01731e-18)
(1.39695 0.053611 0)
(1.42207 0.0554393 -6.88066e-19)
(1.35309 0.0428965 0)
(1.23475 0.0461803 0)
(1.36261 0.0286936 0)
(1.24196 0.0255801 0)
(1.41138 0.0341332 1.43086e-18)
(1.3974 0.0224794 -3.17365e-18)
(1.38938 0.0336697 -1.59307e-18)
(1.4091 0.0355948 -1.69324e-18)
(1.41431 0.0710591 3.34489e-18)
(1.28503 0.0606151 0)
(1.35338 0.0933027 0)
(-0.0805696 2.45329 -2.2685e-19)
(-0.0646991 2.47377 -1.94126e-20)
(-0.0800476 2.48616 0)
(-0.0690403 2.25646 2.29819e-19)
(-0.0599351 2.25709 3.72995e-20)
(-0.0646029 2.20148 -3.37017e-20)
(-0.0610455 1.98293 4.8646e-19)
(-0.103208 2.18871 -2.72794e-20)
(-0.0832034 2.26444 1.38074e-19)
(-0.0558022 1.89276 -2.50593e-19)
(-0.0240176 1.65556 2.99511e-19)
(-0.0917612 2.3626 9.62984e-21)
(-0.0983142 2.47822 3.26135e-19)
(0.461787 1.93509 7.58374e-19)
(0.430338 2.1682 1.43758e-18)
(0.66198 1.48811 1.16273e-18)
(0.536113 1.59064 4.18923e-19)
(0.565254 1.35554 0)
(0.37247 1.50445 5.87994e-19)
(0.296435 1.06722 6.9858e-19)
(0.214079 1.63656 4.87982e-20)
(0.302769 2.06493 -2.38288e-18)
(0.389054 2.05486 1.86124e-18)
(0.290847 1.5392 0)
(0.196497 1.23115 -1.22496e-18)
(0.140359 1.89814 3.02653e-18)
(0.154667 1.70005 -8.52224e-20)
(0.0885486 1.41086 -3.83255e-18)
(0.356258 0.937859 2.59165e-18)
(0.383793 1.03164 0)
(1.21512 -0.0262288 1.49719e-19)
(1.21956 -0.0858507 -1.25494e-19)
(1.25176 -0.0748687 -2.20149e-18)
(1.27238 -0.0440919 2.22024e-18)
(1.24876 -0.0179837 0)
(0.746673 1.55969 0)
(0.761867 1.56006 0)
(0.897251 1.37013 0)
(0.774801 1.46904 0)
(0.666588 1.32661 -4.15983e-21)
(0.474231 0.859777 0)
(0.949906 2.68995 2.51014e-20)
(0.768191 2.42485 0)
(0.869035 2.3532 -2.07327e-18)
(0.871569 2.36863 1.34394e-18)
(0.61582 0.102531 0)
(0.490416 0.0874436 6.38199e-19)
(0.821142 0.114596 4.00412e-18)
(0.610115 0.0891664 -1.42422e-18)
(0.484841 0.0389968 -4.45533e-18)
(1.42523 0.256741 -4.99814e-18)
(1.29144 0.330303 -3.92493e-20)
(1.12132 0.28393 3.8192e-18)
(1.30438 0.243408 3.40632e-18)
(1.05931 0.152494 -5.64654e-18)
(0.984356 0.152625 6.9202e-19)
(1.08801 0.22739 -1.54747e-18)
(1.00721 0.220546 0)
(1.27035 0.182161 2.89024e-18)
(1.37666 0.204902 0)
(1.37704 0.249284 0)
(1.34755 0.134814 1.60244e-18)
(1.43499 0.207369 -3.417e-20)
(1.41188 0.231399 -8.72935e-19)
(1.3869 0.207915 0)
(1.21236 0.0390614 3.17147e-18)
(1.41059 0.0554741 3.95684e-18)
(1.37791 0.0451889 -3.11199e-18)
(1.39396 0.0736377 -2.68371e-18)
(1.26248 0.0710172 -4.01624e-18)
(1.11142 0.122889 0)
(1.14557 0.0946543 0)
(0.864851 0.0578853 -2.35754e-18)
(0.710817 0.0356448 8.78771e-19)
(1.36139 0.111677 3.66908e-18)
(1.43551 0.136756 -4.51721e-18)
(1.43706 0.156618 4.00658e-18)
(1.39783 0.154777 0)
(1.4271 0.105453 0)
(1.43067 0.101535 -1.82512e-18)
(1.41636 0.0987653 -3.02144e-18)
(0.71813 2.16241 1.12248e-18)
(0.819604 2.76848 -1.14361e-18)
(0.950377 2.79582 -1.28217e-18)
(0.921147 3.07167 2.61913e-19)
(0.73964 1.61002 -2.69125e-18)
(0.726482 1.50761 4.52316e-19)
(0.509872 0.862416 -4.44569e-20)
(0.899933 2.55142 -9.19864e-19)
(0.914894 2.51331 1.67071e-18)
(0.791873 2.86769 2.33776e-19)
(0.741189 2.05418 -2.389e-19)
(0.678765 1.92417 0)
(0.598857 0.903963 -2.45654e-19)
(0.0037517 1.51754 1.74455e-18)
(0.50263 0.210002 2.02923e-18)
(0.358981 0.339618 2.1668e-18)
(0.450601 0.240648 2.32586e-18)
(0.571138 0.309223 -4.01059e-18)
(0.57854 0.274105 3.27358e-18)
(0.498082 0.209852 -1.15192e-18)
(0.391805 0.188728 2.55901e-18)
(0.559954 0.16834 -1.40865e-18)
(0.539553 0.179323 0)
(0.433038 0.141443 5.10847e-21)
(0.851464 0.491995 1.46377e-18)
(0.73133 0.412367 -5.14378e-18)
(0.6308 0.358924 -6.2556e-21)
(0.607996 0.351887 0)
(0.824476 0.853984 1.78123e-18)
(1.06661 0.940863 2.2716e-18)
(0.973306 1.01565 -2.62866e-18)
(1.11119 0.956033 -9.23921e-19)
(1.10824 0.918919 -3.25517e-19)
(1.10932 0.989583 3.32488e-19)
(1.18889 0.763074 -3.38984e-18)
(1.19255 0.843723 8.65172e-19)
(1.22081 0.833137 0)
(1.22935 0.751132 -1.2602e-18)
(1.35676 0.357782 1.15983e-18)
(1.42226 0.327174 2.09219e-18)
(1.43583 0.316682 1.99304e-18)
(1.35199 0.439206 -2.26971e-18)
(1.35679 0.446679 0)
(1.36959 0.409475 0)
(1.12892 0.413543 -2.11949e-20)
(0.821212 0.225104 0)
(0.924693 0.246081 1.7111e-18)
(1.09765 0.298138 -2.8182e-20)
(1.25821 0.515347 1.0025e-17)
(1.18317 0.586264 2.54965e-18)
(1.16343 0.514945 -2.50517e-18)
(1.02962 0.458773 2.68108e-18)
(0.940181 0.456408 1.50039e-18)
(0.799032 0.38648 -1.45232e-18)
(1.22364 -0.026348 3.55442e-18)
(1.3222 -0.0102634 0)
(1.30627 -0.0237744 2.38025e-18)
(1.2584 -0.0179494 -5.32273e-18)
(1.35189 0.0113521 2.60787e-18)
(1.32249 0.0355436 -5.46083e-18)
(1.25593 0.0406352 0)
(1.18095 0.052493 -1.11058e-18)
(1.2922 0.0408417 2.83934e-18)
(1.24288 0.062738 -1.45741e-18)
(1.20074 0.0534127 1.04645e-18)
(-0.0416526 1.33323 0)
(-0.0299942 1.74077 0)
(-0.0213858 1.25516 0)
(-0.0124627 1.00229 0)
(0.0115696 1.97321 1.27475e-18)
(0.0629059 1.81904 -3.40551e-19)
(0.109978 2.36756 -4.5215e-19)
(0.0844487 2.1943 4.51167e-19)
(-0.0406056 2.19752 -9.61309e-19)
(-0.0236751 2.20343 7.24217e-19)
(0.0277045 1.93922 3.17471e-20)
(0.00531943 1.80609 -8.59381e-19)
(-0.00618229 1.66535 -1.16105e-19)
(-0.0274527 1.86556 -1.08271e-19)
(0.0351779 2.48294 -1.17578e-18)
(0.0570544 2.434 0)
(0.0865222 2.53376 5.78116e-19)
(0.091923 2.50974 5.14297e-19)
(0.233746 2.45846 -4.70838e-19)
(0.225474 2.31312 0)
(0.234248 2.24056 -2.34282e-18)
(0.293906 2.40953 1.67899e-18)
(0.194581 2.49166 -1.22985e-18)
(0.136163 2.49565 6.71871e-19)
(0.12575 2.47837 0)
(-0.0552948 2.55942 -1.0808e-18)
(-0.0735753 2.52288 -1.25663e-18)
(-0.0806616 2.57134 0)
(-0.0531462 2.43717 -1.67893e-20)
(-0.0474744 2.5446 5.39384e-19)
(-0.0734515 2.02526 8.46121e-20)
(-0.0424919 1.81717 -1.20228e-18)
(-0.0688849 2.052 3.15888e-19)
(-0.099922 2.36546 4.31634e-19)
(-0.06308 2.24854 0)
(-0.0570389 2.03088 0)
(-0.0586974 1.53962 3.70415e-19)
(-0.0498048 1.91832 -1.12645e-19)
(-0.0567704 1.91227 0)
(-0.0495021 1.41354 2.93133e-19)
(-0.0282146 1.1476 -5.65232e-19)
(1.25525 0.0104793 0)
(1.24436 0.00295144 -3.65776e-19)
(1.41157 0.0198195 -2.60165e-18)
(1.37641 0.0136184 0)
(1.29347 0.0033577 0)
(1.40441 0.00955932 -1.40011e-20)
(1.38696 0.00872288 4.33843e-18)
(1.35075 0.0237339 5.13861e-18)
(1.26053 0.0357672 0)
(1.18495 0.0325196 0)
(1.35278 0.0264239 2.59769e-18)
(1.24213 0.0347346 0)
(1.1547 0.0379649 0)
(-0.0893657 2.5261 0)
(-0.103289 2.49628 2.06145e-20)
(-0.086121 2.52702 1.11548e-19)
(-0.0597425 2.02207 0)
(-0.105902 2.41816 2.07767e-19)
(-0.0858011 2.25298 -1.19937e-19)
(-0.0666442 2.10047 0)
(0.634399 2.50165 0)
(0.456752 2.33851 -2.54732e-18)
(0.491466 2.47407 0)
(0.589143 2.16033 2.97043e-18)
(0.567977 1.74214 0)
(0.54955 1.96243 -1.24711e-18)
(0.694692 1.84056 -5.52041e-20)
(0.442885 1.17656 -3.07701e-18)
(0.390109 0.801267 3.43018e-18)
(0.469638 1.23864 7.45114e-19)
(0.68697 1.84114 0)
(0.714098 1.88286 0)
(0.440378 1.12669 0)
(0.307776 0.793579 -2.57692e-18)
(0.641578 2.47959 -1.94156e-18)
(0.711203 2.21095 -4.57902e-19)
(0.756799 2.41287 3.58922e-19)
(0.386491 1.316 0)
(0.406594 1.24847 0)
(0.293116 0.96555 -8.04232e-19)
(0.627777 1.93931 0)
(0.724298 1.4502 0)
(0.543825 1.415 -2.92316e-18)
(0.636371 1.12287 -1.79811e-19)
(0.660684 1.70867 0)
(0.629816 1.83849 4.43377e-18)
(0.982275 1.08185 -8.77514e-19)
(0.950327 1.22306 0)
(0.948412 1.15002 1.49037e-18)
(0.756218 1.26664 0)
(0.752121 1.18664 0)
(0.923107 2.25903 -1.08409e-18)
(0.994605 2.74888 -9.7538e-19)
(0.95256 2.75469 1.94631e-18)
(0.955744 2.69313 -5.71382e-19)
(0.790765 1.82141 0)
(0.838727 2.04332 7.7529e-19)
(0.516221 1.04322 -9.25485e-19)
(0.382404 0.74604 -2.13592e-20)
(0.84037 2.52356 0)
(0.717929 2.14336 -9.96727e-19)
(0.740175 1.98684 0)
(0.771687 0.174102 0)
(0.556737 0.115809 0)
(0.423224 0.0950425 0)
(0.753076 0.185243 -2.64746e-18)
(0.563985 0.137679 1.46338e-18)
(0.72332 0.0411834 -1.76361e-18)
(0.889538 0.0951207 0)
(0.830488 0.0953593 7.37176e-19)
(0.598463 0.0452136 2.9016e-18)
(0.517655 0.027039 -1.84019e-18)
(0.631848 3.05837 3.12936e-19)
(0.726163 3.23834 0)
(0.455303 3.07719 7.25664e-19)
(0.329525 3.54456 -6.05411e-19)
(0.401647 3.46487 -1.34046e-18)
(0.447479 1.22008 2.74911e-18)
(0.436357 1.6127 0)
(0.353427 0.524626 -5.43041e-19)
(0.507753 0.593385 3.60996e-18)
(0.534734 0.265154 -7.57349e-19)
(0.615464 0.323761 8.43432e-19)
(0.737192 0.45034 1.8556e-18)
(0.826599 0.522813 0)
(0.731355 0.507495 0)
(0.709139 0.432401 0)
(1.29153 0.703892 9.04097e-19)
(1.2441 0.628734 -2.47216e-18)
(1.25052 0.683232 2.14052e-18)
(1.29232 0.593854 -1.9992e-18)
(1.37308 0.561544 0)
(1.35331 0.622188 -6.43046e-19)
(0.972384 0.390432 -3.49475e-18)
(1.01369 0.386954 -4.52246e-18)
(0.805276 0.352611 2.66756e-18)
(0.734488 0.314293 -2.5688e-18)
(0.846857 0.284818 -2.15011e-18)
(0.747701 0.264415 2.62513e-18)
(1.35996 0.00996384 -2.75327e-18)
(1.37477 0.0119793 5.43861e-18)
(1.26352 -0.0207637 3.32954e-18)
(1.26961 -0.0232142 -3.93348e-18)
(1.32852 0.00294783 0)
(1.3707 0.00635371 -6.65235e-18)
(0.00357039 2.53086 2.12758e-19)
(-0.00940145 2.48236 0)
(0.0540928 2.51347 1.86767e-18)
(0.0617903 2.5119 -1.69063e-18)
(0.0714912 2.42691 8.44721e-19)
(0.0262838 2.39658 0)
(-0.0973375 2.55643 0)
(-0.0955791 2.33143 -1.16384e-19)
(-0.0955774 2.29598 1.04167e-19)
(-0.100921 2.385 1.31431e-20)
(-0.0982135 2.53423 -1.81522e-19)
(-0.0876291 2.52798 9.79782e-20)
(0.760213 2.40099 -3.03371e-18)
(0.739504 2.41938 3.23793e-18)
(0.606695 2.15787 -1.68512e-18)
(0.695397 2.44764 1.43816e-19)
(0.696442 1.66432 0)
(0.632674 1.78737 -1.43663e-18)
(0.663348 1.63591 1.41143e-18)
(0.620121 1.929 1.67771e-18)
(0.703611 2.05186 0)
(0.716877 1.91032 0)
(0.613077 2.40425 2.90389e-18)
(0.536426 1.93677 4.21232e-18)
(0.591098 2.06367 -2.9513e-18)
(0.504377 2.00649 -4.92251e-19)
(0.509602 2.43116 9.767e-19)
(0.441756 2.23594 -2.40456e-18)
(0.523318 1.06972 -1.93246e-18)
(0.517054 0.975715 0)
(0.389029 0.738508 -1.93399e-18)
(0.79853 1.82624 0)
(0.786857 1.8373 0)
(0.404122 3.02198 -1.54201e-18)
(0.661426 3.36872 -9.16139e-19)
(0.492789 3.44674 1.43724e-18)
(0.140948 1.52997 0)
(0.194907 1.1179 -1.2642e-18)
(0.35889 1.51535 -1.73628e-18)
(0.307703 2.78189 0)
(0.197915 3.32543 9.60824e-19)
(0.0423786 3.18677 0)
(0.895983 0.726232 -3.72885e-18)
(1.03998 0.816904 5.31364e-18)
(1.05061 0.716068 -5.27651e-18)
(0.83181 0.623031 -4.47614e-19)
(0.893589 0.612418 -1.87787e-18)
(0.708997 3.29244 7.53951e-19)
(0.849758 3.19292 -1.50801e-18)
(0.572474 3.01732 3.26667e-18)
(0.5468 2.6792 -2.28698e-18)
(0.83625 2.81637 -2.32297e-18)
(0.858741 3.09051 -3.27987e-19)
(0.921481 2.99284 1.76501e-18)
(0.690555 2.82718 1.48176e-19)
(0.677392 2.63097 9.97753e-19)
)
;

boundaryField
{
    wall-4
    {
        type            noSlip;
    }
    velocity-inlet-5
    {
        type            fixedValue;
        value           uniform (1 0 0);
    }
    velocity-inlet-6
    {
        type            fixedValue;
        value           uniform (0 3 0);
    }
    pressure-outlet-7
    {
        type            zeroGradient;
    }
    wall-8
    {
        type            noSlip;
    }
    frontAndBackPlanes
    {
        type            empty;
    }
}


// ************************************************************************* //
