/*--------------------------------*- C++ -*----------------------------------*\
  =========                 |
  \\      /  F ield         | OpenFOAM: The Open Source CFD Toolbox
   \\    /   O peration     | Website:  https://openfoam.org
    \\  /    A nd           | Version:  7
     \\/     M anipulation  |
\*---------------------------------------------------------------------------*/
FoamFile
{
    version     2.0;
    format      ascii;
    class       surfaceScalarField;
    location    "35";
    object      phi;
}
// * * * * * * * * * * * * * * * * * * * * * * * * * * * * * * * * * * * * * //

dimensions      [0 3 -1 0 0 0 0];

internalField   nonuniform List<scalar> 
1300
(
3.75095
5.62643
-2.41605
3.75095
-2.70435
5.62643
-2.03395
2.03395
-0.429527
0.429527
1.9072
1.84375
-1.22542
1.22542
-1.44228
1.44228
-0.94895
0.94895
-3.87943
3.87943
-3.16259
3.16259
2.05698
-2.05698
-1.90846
1.90846
-0.506651
0.506651
-1.58609
1.58609
1.9497
-1.9497
-1.70595
1.70595
-0.742786
0.742786
-1.50144
5.25239
2.24951
2.24951
-0.802112
0.802112
-3.57312
3.57312
4.63401
-4.63401
4.98475
-4.98475
-2.5687
-3.25225
1.02557
-7.66224
-1.67878
-1.67878
-8.391
8.391
-2.76457
2.86186
1.12987
-1.12987
-0.375763
0.375763
-1.88504
-0.14891
-1.88504
2.09705
-0.0630976
2.09705
-0.466174
0.0366465
-0.466174
1.57343
-1.57343
0.411525
0.0180018
0.411525
1.25426
-1.25426
-1.90765
3.81486
1.8433
-1.75661
7.009
-1.99435
3.8381
-2.41409
2.41409
-1.23265
0.00722726
-1.23265
1.21777
0.00764928
1.21777
-2.35501
2.35501
-1.32074
-0.121541
-1.32074
1.49852
-0.0562399
1.49852
1.18539
-1.18539
-0.965158
0.016208
-0.965158
0.903809
0.0451418
0.903809
1.36026
4.26617
-6.98669
9.84855
-4.26617
0.386738
3.48672
0.392706
3.48672
-3.1486
-0.0139819
-3.1486
3.25874
-0.0961544
3.25874
1.82962
0.227359
1.82962
-2.36914
0.31216
-2.36914
-4.47877
-4.89442
-1.99714
0.0886764
-1.99714
-0.508841
0.00218985
-0.508841
0.516537
-0.00988616
0.516537
-1.57674
1.57674
-1.7849
0.198808
-1.7849
1.51731
0.432394
1.51731
1.64933
2.10162
5.40029
-5.40029
3.45058
-1.5416
-0.16435
-1.5416
-1.82234
-3.16241
1.82234
-0.116382
-0.490075
-0.252711
-0.490075
1.77752
0.471992
1.77752
0.867714
0.0360942
-0.867714
0.0656026
1.47913
-1.47913
0.486455
0.315656
0.486455
-3.51782
3.51782
3.38064
-0.121899
-3.38064
-0.192476
4.42916
0.204851
4.42916
-4.78439
0.15038
-4.78439
3.78099
-7.03324
-4.25269
1.77875
0.129708
-1.77875
0.0999694
1.15918
-0.0293106
1.15918
-1.07786
1.07786
-1.16929
0.0394189
-1.16929
-0.323033
-0.0527295
-0.323033
0.440268
-0.0645052
0.440268
-1.80121
-0.0838284
-1.80121
-2.01818
0.233285
2.01818
0.0788644
0.641101
-0.641101
-0.497272
0.0310985
-0.497272
-1.66771
-0.133496
1.66771
-0.0942802
-1.56083
-0.0126039
-1.56083
-1.19664
0.0273446
1.19664
0.0576271
1.4511
0.326423
-1.4511
0.196835
-1.77245
3.87407
-1.9785
3.8218
-2.21378
-0.20031
-2.21378
2.5388
-0.124705
2.5388
1.39671
0.189377
-1.39671
0.164065
1.26905
-0.0512841
1.26905
-2.38321
0.0281996
-2.38321
2.22436
0.130651
2.22436
1.28582
-0.0167656
-1.28582
-0.0349181
1.49449
0.00402619
1.49449
1.18815
-0.00275426
1.18815
-1.14981
-0.0355822
-1.14981
1.044
-1.044
1.01545
0.0285534
-1.01545
0.0502916
-14.4245
14.5749
-0.189898
-14.2346
3.29682
3.29682
1.08772
0.741897
1.08772
-2.67526
0.306129
-2.67526
4.29465
-8.54734
4.80785
-9.28662
4.12089
-11.7831
4.30505
-9.19947
2.16482
-2.16482
2.11995
0.0448737
-2.11995
0.12281
-0.498312
-0.0105293
-0.498312
-1.40467
-0.172068
-1.40467
1.82249
-0.245746
1.82249
-1.20224
1.20224
-1.31255
0.110304
1.31255
0.204762
1.52353
-0.029039
-1.52353
-0.0180713
0.408893
0.00263213
-0.408893
-0.081182
1.55316
-0.0740336
1.55316
-1.31299
-0.166141
-1.31299
-0.499875
0.00156331
0.499875
-0.0134198
-3.84921
0.331391
-3.84921
-14.1269
-0.107679
-13.7342
-4.89207
-4.89207
3.49894
13.3475
-1.16351
0.0137019
1.16351
-0.00432858
1.14143
0.060813
-1.14143
0.0635742
-1.06657
0.0225694
1.06657
0.0112828
-0.37649
0.0534573
-0.37649
-0.512478
0.512478
-0.460022
-0.0524566
0.460022
-0.0197542
0.698708
-0.057607
0.698708
0.51123
0.0053074
-0.51123
0.0139575
-1.60705
0.0462169
-1.60705
2.53861
0.000184068
2.53861
-1.27107
-0.0419242
1.27107
-0.0829176
-0.100864
14.6758
-3.19596
0.047354
3.19596
-14.8806
14.928
-0.542962
0.166472
0.542962
0.544758
3.11585
0.401963
-3.11585
0.44059
2.1945
0.0298622
-2.1945
0.0296808
-1.16224
-0.242429
-1.16224
-2.00663
-0.207151
2.00663
-0.184143
-15.0744
-0.323386
15.3978
-15.1705
4.17259
0.256562
-4.17259
15.1845
-0.595504
-0.0455964
0.595505
-0.0830261
0.886791
-0.188083
0.886791
1.63211
-0.0789469
-1.63211
0.0250633
-2.51359
0.130377
2.51359
0.0250213
-1.00204
-0.1602
1.00204
-0.115253
-4.3706
4.84259
2.6384
-3.22455
-3.8087
-6.38696
1.4248
2.44927
4.87538
-6.53614
-5.247
-6.43617
8.83844
-8.39785
-9.18717
9.41453
7.75026
-7.76286
-6.09882
6.30358
6.85408
-6.79645
1.90677
1.90808
7.93345
-7.92622
-12.5886
12.3883
7.82858
-7.95012
12.7591
-12.7309
-14.6395
14.6693
-5.33957
5.35578
-6.69001
6.65443
-6.93633
6.85341
-4.27406
-5.01256
9.28542
-9.19674
10.4928
-10.6571
-9.25991
9.45872
3.33494
1.50765
3.66136
-2.11287
4.01964
-1.72523
4.36363
4.53919
-8.81325
4.00815
-7.81685
4.79428
5.69849
-4.6779
-1.70906
-5.92162
5.89231
-5.68355
5.69483
9.1966
-9.34551
-2.09025
3.99833
-1.73155
4.18083
-3.77017
-2.32865
3.33777
1.53761
5.0238
4.26162
-5.15351
-1.28266
-8.16226
8.08331
-8.46271
8.29657
0.0610432
7.35786
-7.4189
3.63416
-2.52043
9.87829
6.31801
6.62414
7.40213
-7.00016
0.995721
-8.41462
-8.6071
-1.83825
1.86935
1.8151
-1.7971
5.56824
2.18202
5.47396
-5.45835
-2.30451
-5.41213
3.72708
2.5765
3.83739
3.95557
2.89851
3.98292
3.50804
-3.50086
-0.00718094
-3.88725
7.39529
0.497467
-6.2159
-4.6783
4.46872
3.46473
4.47637
-4.99265
-2.93357
-4.82859
-6.77553
-5.81311
-6.98268
7.5284
4.85993
7.4037
-9.06265
9.08767
4.72247
3.10611
4.66623
-4.5456
-3.40452
-4.58052
14.7801
-3.41574
-11.3644
-7.69786
-6.9416
7.56721
5.19188
8.24151
6.42781
8.27119
4.76362
10.0165
-9.9555
3.01391
-3.27741
-2.06216
-3.22712
3.06981
2.28597
3.11495
-3.86062
-2.82939
-3.84692
-3.92877
-3.00756
3.93152
2.7229
-4.10642
-4.35629
4.14835
2.70507
4.36273
-9.60973
4.83674
-9.8493
-6.25536
-2.94138
-6.13255
5.86341
3.40026
-9.26367
-2.94983
12.4757
-6.77725
10.7667
-5.65884
-4.99828
-5.67691
-6.94974
-2.31017
-6.71645
-5.18171
4.93928
-5.60389
5.35814
15.4263
-8.4183
-7.00797
-4.05621
-2.74024
3.85938
-0.198014
-4.34998
4.3428
-0.330338
4.03329
5.54094
5.34293
-3.55024
-2.1333
-3.48667
3.36996
2.32487
3.39253
6.84961
2.347
6.78651
-6.07311
-3.2724
-6.15694
4.77937
-4.8321
1.93012
-1.92856
5.10541
3.19116
-5.03137
-3.13089
7.72396
-3.59926
-4.1247
-13.9832
11.3037
2.67941
-4.10487
-0.470708
0.272078
-5.72637
-3.4608
5.41421
1.20993
12.5137
9.05287
-7.13876
7.47015
8.25901
8.13711
-0.469984
3.20818
-3.04171
5.68466
-3.15394
-2.53072
4.74557
-4.87907
-1.41137
-6.44542
5.03406
0.59489
1.18327
-1.43598
-1.35242
-0.485832
-1.33846
1.12684
0.688254
1.12948
0.694809
1.17454
-2.76644
0.58591
2.18053
-2.07164
-1.21119
-4.38172
-1.96151
6.34323
5.46652
2.61679
-5.49159
0.0794558
1.80212
-1.81201
-0.479231
-3.90249
2.85087
-3.3301
-5.09955
-2.1505
7.25005
-3.12273
-0.363945
3.06191
0.775476
-3.55156
-2.37005
3.51215
0.470773
-4.04771
8.09322
-4.04551
-6.18102
2.87632
4.51897
5.45282
-6.0668
3.16572
2.90108
-1.54783
3.74709
0.729273
3.69581
-9.57163
6.63806
5.6219
3.83681
-5.81128
0.982697
-8.58894
13.1038
-11.3322
-1.77158
6.72747
6.37635
7.81189
7.61438
-5.09866
12.9105
-1.49075
-9.84149
10.0797
-6.24288
7.5201
-13.763
-15.1345
5.29299
-10.129
12.141
-2.01205
-2.93452
-6.12813
13.0635
-1.27575
-11.7877
6.12794
-7.32306
-6.02518
13.3482
-10.7388
9.4297
-3.23819
-6.19151
-7.47876
-5.25213
7.34838
1.73929
-13.7109
16.7248
-3.69443
4.00257
0.663662
4.00659
5.67738
-8.4136
2.73622
5.06142
-8.29961
3.62954
-12.0431
-6.69769
13.0798
-6.38213
-9.63907
-8.78024
-0.858826
2.54881
14.176
-8.97662
6.59673
2.37989
2.78395
0.608584
-2.8125
-0.414615
0.337114
5.40507
-5.74219
3.45206
3.48816
3.95657
1.4485
3.53337
2.35893
-3.52904
-0.317874
-4.93493
1.92736
-2.21202
-4.88596
6.81332
-5.47775
0.59179
-3.43903
-4.73428
8.17331
-5.50119
3.85638
4.23684
6.18124
-6.6197
1.88542
-3.3035
-3.3162
3.59233
-5.80435
2.50728
4.30604
5.21235
0.856062
6.94137
6.13845
-10.3416
0.492321
10.4001
-9.11741
2.25355
6.01764
-8.85028
0.0700373
-6.06252
1.29485
-8.0721
-7.96882
7.16679
-9.47696
-6.59619
6.13892
0.647584
-6.21779
-0.498663
-3.12314
-2.05857
-3.28334
-2.09732
-3.50656
-7.19598
-1.26065
-5.93533
3.67863
-4.17601
-2.80667
4.36015
0.997987
-3.32126
3.27567
-3.66962
3.48154
-0.075116
4.41791
5.26781
2.52757
-2.87008
5.39765
-6.58648
8.93347
-10.9748
4.38834
4.87504
-8.14744
-6.09978
2.22363
2.55575
2.15912
9.49179
-12.3541
2.86232
-10.4012
11.7376
-1.33646
-15.0833
4.68214
-5.5915
1.75937
0.170755
1.74884
0.49003
2.28475
-2.77478
-1.43853
-1.45195
-3.05839
-4.63626
7.69465
1.60243
-4.39443
2.792
-4.08701
5.68944
0.0584679
-4.4529
5.71623
-3.43148
5.88698
-4.02854
1.85844
4.29248
7.51129
-3.2188
5.42431
-2.23315
2.34283
-5.56163
-2.29343
-3.80498
6.09095
-4.36832
4.96011
-0.348767
5.30888
-4.61841
1.01915
-0.66184
2.82632
2.89192
5.64682
-4.19832
4.03951
-6.27266
-1.52212
-5.4166
-1.11056
-2.42402
-6.02157
8.44559
7.48326
-9.90729
-5.12775
9.22398
-4.09623
6.69822
-5.12875
-1.56947
-1.91422
-2.91788
1.86076
1.34742
8.04563
-0.222581
-4.90617
-3.26429
-2.71953
3.64178
2.04288
-2.18453
4.86394
1.91245
-0.729185
0.188942
0.940534
1.64332
-1.45437
0.576629
1.06669
-0.859352
1.31037
0.491749
-1.31568
-0.022779
-1.01893
3.86981
1.1616
-1.84985
0.39548
1.09061
-4.24455
6.22817
-3.41416
-2.81401
7.31878
1.27113
-4.68529
5.1743
-4.57941
2.75019
-4.7117
-1.9351
-6.5145
-4.33248
-3.5986
6.3906
-4.09604
6.71283
1.29105
-6.79229
8.08334
-4.30122
2.15073
-3.18567
3.67742
-1.38822
-1.79746
3.76434
3.48571
-3.68214
-0.22035
0.0821991
2.84388
-2.76168
-0.486227
-2.55786
-5.49439
5.96516
-2.80177
5.96749
2.59588
-2.58442
8.55191
2.22427
-4.80869
-3.95674
-4.32069
-1.90761
3.54521
-0.917422
-3.66309
-7.10894
3.67986
0.015951
-9.41627
11.0338
-1.61751
-5.95154
-0.686526
7.41399
-9.27713
0.977529
-5.64759
5.38618
6.11546
6.13141
-11.7832
-0.00452556
-6.92329
1.88688
-8.81017
8.26323
-4.137
9.42999
-9.77154
6.96487
-8.77355
7.65841
-1.15176
7.91149
-5.17527
3.45291
-8.70504
-6.96575
7.47042
-4.36431
8.13408
-5.28951
13.4236
-8.98394
7.49444
5.92915
-1.45425
-4.22267
-7.24933
5.79508
0.245113
4.2517
5.94935
-3.59041
5.63147
3.00227
-6.30577
-2.80208
-8.74794
2.44217
-4.5111
-2.46733
4.9095
3.71391
4.32249
1.59331
-3.90788
9.64376
-10.5026
-3.26163
-4.70719
7.62318
-1.8281
5.44719
-10.1544
-2.62491
7.83034
-1.04927
-6.78107
0.587962
-7.18416
2.91789
-10.102
6.55907
-7.05773
1.14933
-6.74084
-2.17193
-2.25495
-1.5088
-2.16082
-5.73938
4.23058
-1.05724
2.21843
-8.5572
7.50793
-3.18042
7.411
-2.55983
-0.723516
2.67508
0.806455
8.21745
-0.254945
-5.84483
-2.00234
6.02703
-4.02468
1.63943
-6.27651
-0.249486
3.01552
4.30326
-8.04958
-0.097864
-5.9427
-3.30371
5.85946
5.92027
13.4035
1.04942
6.37627
-0.51681
7.42569
1.64231
1.62256
-5.31788
8.1802
3.12771
7.51605
-0.624842
2.48328
1.124
1.12619
0.685825
1.91332
0.978605
2.93247
0.157688
-1.29426
4.80179
-7.52132
-0.104378
-6.77943
2.6351
6.71463
-4.07953
4.674
-2.63112
0.649322
-0.141271
-1.21547
1.35674
-2.67199
-1.94465
-0.877963
-1.93413
2.32961
1.93568
-1.45165
-1.22035
0.724759
-5.05724
3.98695
-4.2073
-0.721586
7.36175
-3.21034
0.448664
-1.05961
-2.1092
-2.59503
2.61781
8.20394
0.347967
4.15844
6.31313
3.94308
0.352661
6.56405
-8.5761
-5.47909
-8.58063
-0.317396
7.0966
3.09367
11.0824
9.02282
7.19472
-2.95966
-13.4623
10.7972
-2.61696
9.46069
-2.67963
-7.42242
6.16339
2.77009
-6.81097
-0.246764
-7.66918
-10.2861
-0.585264
8.09319
-7.63219
6.90867
4.85011
1.08522
-1.69508
-0.559871
1.74754
-0.124983
7.30071
-2.17087
-8.5629
10.7338
-4.54376
4.43938
2.45337
2.41057
3.81011
1.17899
-7.38391
-11.4634
-2.70894
-1.53561
-5.52295
0.820285
-2.75596
6.62139
-2.18201
5.05192
8.55176
9.20108
-3.39004
-6.51724
7.48627
-2.43435
6.76673
)
;

boundaryField
{
    wall-4
    {
        type            calculated;
        value           uniform 0;
    }
    velocity-inlet-5
    {
        type            calculated;
        value           uniform -3.75095;
    }
    velocity-inlet-6
    {
        type            calculated;
        value           uniform -5.62643;
    }
    pressure-outlet-7
    {
        type            calculated;
        value           nonuniform List<scalar> 8(2.41605 2.70435 5.82095 6.63667 9.37319 8.03368 9.10251 8.42594);
    }
    wall-8
    {
        type            calculated;
        value           uniform 0;
    }
    frontAndBackPlanes
    {
        type            empty;
        value           nonuniform 0();
    }
}


// ************************************************************************* //
