/*--------------------------------*- C++ -*----------------------------------*\
  =========                 |
  \\      /  F ield         | OpenFOAM: The Open Source CFD Toolbox
   \\    /   O peration     | Website:  https://openfoam.org
    \\  /    A nd           | Version:  7
     \\/     M anipulation  |
\*---------------------------------------------------------------------------*/
FoamFile
{
    version     2.0;
    format      ascii;
    class       volVectorField;
    location    "35";
    object      U;
}
// * * * * * * * * * * * * * * * * * * * * * * * * * * * * * * * * * * * * * //

dimensions      [0 1 -1 0 0 0 0];

internalField   nonuniform List<vector> 
918
(
(0.813496 -0.0529589 0)
(0.134464 2.47694 0)
(0.0511835 0.598588 0)
(0.756261 0.0535048 0)
(-0.0174137 0.677148 -1.76761e-19)
(-0.136691 2.25728 -2.72088e-17)
(0.246809 0.420614 -9.39022e-19)
(0.100769 0.0540091 -5.2355e-20)
(1.00266 -0.00702916 0)
(-0.0034049 0.247988 0)
(-0.00963256 0.300605 0)
(0.200549 0.00196345 0)
(0.117393 1.74038 0)
(0.00851324 1.30143 0)
(-0.00597725 1.0374 -1.3276e-18)
(-0.00374029 0.430809 -1.60584e-19)
(0.109288 0.0261686 3.85068e-18)
(0.044959 0.362486 -4.89466e-19)
(0.476382 0.0500616 0)
(-0.0149258 0.356929 0)
(0.238433 0.122992 -1.76337e-18)
(1.02784 -0.139875 0)
(0.959597 -0.177493 0)
(0.589274 -0.0666011 0)
(0.173072 0.0116077 0)
(-0.0150203 1.47523 0)
(-0.0469633 1.72795 8.39346e-18)
(-0.0227835 0.770776 0)
(0.0170881 1.56141 0)
(0.0484699 0.942889 0)
(-0.0309751 1.72693 0)
(0.0092039 0.91213 1.38276e-19)
(0.012268 0.368834 0)
(-0.320951 2.70296 -1.01914e-21)
(-0.310509 3.10884 2.35097e-17)
(-0.0130235 3.04129 0)
(0.241551 -0.000670454 0)
(0.0667672 0.084421 5.75005e-19)
(0.431122 0.69723 2.04408e-18)
(0.275698 0.354158 -1.65471e-18)
(0.376724 0.785573 1.9654e-19)
(0.211338 0.461456 -9.74083e-19)
(0.198108 0.105617 5.27463e-20)
(0.10504 0.0529367 0)
(0.319003 0.196925 0)
(0.198796 0.107807 2.35707e-19)
(0.102846 0.0587581 -2.34181e-19)
(0.275454 -0.0145421 0)
(1.01043 -0.000250274 0)
(1.00278 0.00668088 0)
(1.07491 -0.15405 0)
(1.01611 -0.0279842 0)
(1.01126 -0.0177101 0)
(0.008779 0.556594 -2.45049e-18)
(-0.0165483 0.508706 0)
(0.00349602 0.250114 0)
(-0.0115243 0.501664 0)
(-0.00542807 0.248418 0)
(-0.002635 0.515051 0)
(-0.0289139 0.568039 0)
(-0.00698233 0.271903 0)
(-0.0109953 0.596016 0)
(-0.00286844 0.319533 0)
(0.255134 0.00272692 0)
(0.387956 -0.000270931 0)
(0.204333 0.00335587 0)
(0.374218 0.00560641 0)
(0.190606 0.00239623 0)
(0.345185 2.93893 1.07212e-17)
(0.284413 3.23577 0)
(0.225159 3.03561 0)
(0.211121 2.70618 1.15646e-22)
(0.138778 2.12556 -1.50689e-17)
(0.177549 2.49081 0)
(0.0775988 1.54065 0)
(0.0169108 2.25862 1.59503e-23)
(0.0180282 1.30089 0)
(-0.0622238 2.29153 0)
(-0.0451604 1.32088 0)
(0.0246366 1.75862 0)
(-0.0102902 1.16698 0)
(0.011569 1.89427 1.34288e-18)
(0.00296672 1.09121 0)
(-0.0664534 2.50171 0)
(0.00124035 0.817261 1.625e-19)
(-0.00651632 0.44265 -2.16794e-19)
(0.220591 0.051522 -1.36276e-18)
(0.111663 0.02221 -1.30259e-18)
(0.222846 0.0594742 -4.09907e-18)
(0.110434 0.0333211 -2.5909e-18)
(0.0516681 0.381159 0)
(0.109312 0.701079 4.65473e-19)
(0.106023 0.414499 -7.32643e-19)
(0.65672 0.0840851 0)
(0.346233 0.0354566 0)
(1.00992 0.0417576 0)
(1.0276 0.159003 0)
(0.935561 0.139989 -1.69722e-17)
(0.85007 0.134928 1.27222e-17)
(-0.0374733 0.664459 0)
(-0.00630906 0.320227 0)
(-0.0147944 1.05034 0)
(-0.0284807 0.714479 0)
(-0.0294664 0.356596 0)
(0.398663 0.132758 6.07523e-19)
(0.171102 0.0857652 0)
(0.742646 -0.0931971 0)
(0.411978 -0.0416453 0)
(0.359689 0.00363794 0)
(0.341943 0.00749608 0)
(0.180881 0.00247987 0)
(0.325539 0.017611 0)
(0.278586 0.0216456 0)
(0.118175 0.00936174 5.97446e-18)
(-0.0215345 1.34806 4.36404e-18)
(-0.0515605 2.42632 0)
(-0.0732034 2.51372 0)
(-0.0190391 1.35902 0)
(-0.0666603 2.63611 7.71121e-18)
(-0.0345621 1.62913 0)
(-0.103459 2.69815 -2.53088e-17)
(-0.0733537 1.81721 8.47732e-18)
(0.000384472 1.90241 0)
(-0.0150445 2.14199 0)
(-0.0119645 0.780977 -3.31203e-21)
(-0.00753628 0.743688 0)
(-0.00707945 0.40922 0)
(0.45951 0.0108406 0)
(0.246913 0.00464707 0)
(0.230498 0.00337113 0)
(0.459119 -0.00864239 0)
(0.250591 -0.00250326 0)
(0.216393 0.246599 -7.73069e-19)
(0.0556336 0.0710867 0)
(0.200419 0.277609 1.01415e-19)
(0.0728091 0.117823 0)
(0.491135 0.590991 5.40935e-19)
(0.29607 0.306021 -1.21482e-18)
(0.227856 0.763172 0)
(0.308739 0.809977 0)
(0.16604 0.462489 0)
(0.0664421 0.170416 -7.92823e-19)
(0.211411 0.0969563 0)
(0.108728 0.046507 7.07309e-19)
(0.514517 0.510847 0)
(0.539379 0.41864 0)
(0.305333 0.249465 1.3532e-18)
(0.571919 0.322973 0)
(0.345458 0.148466 2.81485e-20)
(0.47751 0.00310975 0)
(0.484122 -0.00640185 0)
(0.256786 -0.00019359 0)
(0.619396 -0.0612833 0)
(0.527035 -0.041225 0)
(0.329254 -0.026733 0)
(1.0256 0.065465 0)
(1.01256 0.027109 0)
(1.00465 0.0215271 0)
(0.012839 1.00235 1.32828e-18)
(0.007963 0.520539 0)
(0.00721565 1.05346 2.34667e-18)
(0.0014033 0.583087 -2.06893e-18)
(0.040753 0.616279 4.1918e-19)
(0.0212896 0.527994 0)
(0.0198216 0.299544 0)
(-0.0131822 0.511619 0)
(-0.00302447 0.262454 0)
(-0.00309164 0.956886 -8.73932e-21)
(-0.0162215 0.527706 0)
(-0.0301034 0.929121 -4.31232e-19)
(-0.0140932 0.482196 8.18167e-19)
(0.000274599 0.520459 0)
(0.00240543 0.527498 0)
(0.000406431 0.269281 0)
(0.00495624 0.60216 0)
(0.000637698 0.317651 0)
(0.47472 -0.00107114 0)
(0.255056 0.00301265 0)
(0.467852 0.00896788 0)
(0.247022 0.000328629 0)
(0.222059 0.00115051 0)
(0.415591 0.00476513 0)
(0.396997 0.0137621 0)
(0.217273 0.00482841 0)
(-0.00648537 4.03788 -6.95017e-20)
(0.0602178 3.91025 0)
(0.0867553 2.35695 0)
(0.0374093 1.39791 0)
(0.241377 1.65566 0)
(0.256755 0.703231 2.07981e-19)
(0.025509 1.98469 0)
(-0.0221213 1.1457 0)
(-0.0372709 2.2989 0)
(-0.0648882 2.48899 0)
(-0.0512544 2.42803 0)
(-0.0364717 1.8437 2.17076e-20)
(-0.057931 2.47486 0)
(-0.0434909 2.25378 0)
(0.00258842 0.461372 1.68481e-20)
(0.0091707 0.883966 3.09766e-19)
(-0.016032 0.847927 2.2642e-19)
(-0.00251437 0.464592 0)
(0.227866 0.0362459 2.10101e-18)
(0.111999 0.0149953 -2.01964e-18)
(0.0955401 0.705683 0)
(0.0657417 0.343392 -5.92575e-19)
(0.0843726 0.783194 -1.97761e-18)
(0.0358259 0.436883 1.93441e-18)
(0.258619 0.00611065 0)
(0.500476 0.0124946 0)
(0.545608 0.0365692 0)
(0.289343 0.0121319 0)
(0.00363681 0.609583 0)
(0.0101413 0.616223 0)
(0.00212333 0.323565 0)
(0.202854 0.113291 2.11641e-18)
(0.24298 0.118135 -2.3885e-18)
(0.1153 0.0636289 0)
(0.618716 0.0477939 2.37602e-19)
(0.361905 0.0310619 0)
(0.553438 0.0357984 0)
(0.283917 0.00760647 0)
(0.2306 0.0287181 0)
(0.237653 0.0168358 -9.77794e-18)
(0.117587 0.0111151 3.55892e-18)
(-0.028436 2.40672 4.87872e-18)
(-0.0222722 1.43697 4.50834e-19)
(0.0206245 3.94123 -1.60492e-19)
(0.126145 3.8064 7.03265e-18)
(-0.141175 2.77487 3.10476e-19)
(-0.0946642 1.99797 -1.26669e-21)
(-0.258628 3.0954 -6.59046e-18)
(0.0494084 3.53287 4.9376e-18)
(0.0129015 3.73836 -7.39372e-18)
(0.461917 -0.00461313 0)
(0.469017 0.0055262 0)
(0.249862 -0.000354802 0)
(0.469646 0.00653052 0)
(0.442794 0.0126748 0)
(0.245895 0.00576957 0)
(0.426059 -0.000825828 0)
(0.431146 -0.00203021 0)
(0.22667 -0.00052044 0)
(0.163706 0.27677 -4.18418e-19)
(0.0528933 0.118769 0)
(0.0689436 0.13476 2.12223e-19)
(0.157806 0.309954 1.66351e-18)
(0.164625 0.301638 -9.18998e-19)
(0.0662152 0.125666 1.72595e-18)
(0.133785 0.373898 4.06432e-18)
(0.0726735 0.170668 7.72183e-19)
(0.220338 0.0735851 2.78305e-18)
(0.21707 0.0871428 7.23629e-19)
(0.110636 0.0402287 1.33453e-18)
(0.620651 0.237671 -1.54796e-18)
(0.372189 0.110478 -1.68508e-18)
(-0.0186657 1.05362 1.00172e-18)
(-0.00852624 0.57686 0)
(0.515535 0.00694459 0)
(0.492073 0.0192024 0)
(0.274235 0.00737304 0)
(0.0159584 4.013 0)
(0.043714 2.26225 9.91646e-18)
(0.0580424 2.29559 0)
(0.0235506 1.33437 -9.20395e-18)
(-0.0171323 4.07977 1.95872e-18)
(-0.0298895 4.10505 0)
(0.235928 0.375651 -2.29839e-20)
(0.312241 0.684203 2.31014e-19)
(0.0729194 0.21063 -3.6533e-19)
(-0.0483604 2.27075 -4.2355e-18)
(-0.048739 2.10106 0)
(-0.0313627 1.26677 0)
(0.00657233 0.889945 -3.19552e-20)
(0.0138611 0.900686 -6.7504e-19)
(0.00768011 0.467946 -3.02042e-20)
(0.145662 0.632911 1.96678e-18)
(0.0728089 0.281186 -1.27324e-18)
(0.00972101 0.935457 1.62927e-18)
(0.0320194 0.856204 -1.81874e-18)
(0.0156339 0.479489 8.7715e-20)
(-0.0254813 4.05481 -1.13049e-17)
(-0.0369952 4.13954 1.10115e-17)
(-0.0387461 2.5559 6.23793e-18)
(-0.0742037 2.45532 -5.3622e-18)
(-0.0193587 1.55224 -6.01643e-18)
(-0.0420888 4.1304 -1.45314e-17)
(-0.0442038 4.12788 1.27707e-17)
(0.158921 0.364469 0)
(0.168986 0.334603 -3.78759e-18)
(0.0744055 0.154473 1.6128e-18)
(0.179218 0.428672 2.4292e-18)
(0.0785094 0.220319 -3.63945e-18)
(0.65785 0.102032 9.0404e-19)
(0.657577 0.17629 0)
(0.385573 0.0719205 -8.97067e-19)
(-0.0425101 0.988246 -9.8394e-21)
(-0.0180718 1.03366 0)
(-0.0114438 0.568407 0)
(0.137645 0.546605 -6.90931e-19)
(0.143358 0.494543 -1.49331e-18)
(0.0716397 0.252212 2.72079e-18)
(1.05427 -0.151104 0)
(1.12548 -0.152658 3.02625e-18)
(0.00458502 1.84807 0)
(0.00475432 1.50662 0)
(1.05544 0.0995218 2.23913e-20)
(1.0398 0.174095 6.29242e-18)
(-0.0091126 1.87632 -2.83536e-20)
(-0.0101159 1.47277 0)
(-0.0724962 3.76562 2.88166e-18)
(0.0328502 3.43737 0)
(1.13482 0.549728 -8.06336e-19)
(1.04685 0.0885762 -3.58592e-20)
(1.03469 -0.0365923 0)
(1.03873 -0.000379047 -2.58395e-23)
(0.0378742 1.30633 0)
(0.0854611 2.01821 0)
(-0.0315675 1.30002 0)
(-0.0379554 2.03796 6.33029e-19)
(-0.0408964 2.04652 3.91765e-19)
(0.870784 0.0149093 -1.94836e-20)
(1.00175 0.00870158 0)
(1.03596 0.0264373 0)
(-0.0639114 2.46725 0)
(-0.0380534 1.74548 0)
(-0.0491574 1.55209 0)
(0.313938 1.49629 6.09183e-19)
(1.11645 -0.144001 0)
(0.991694 -0.111573 0)
(1.06512 -0.0204852 3.86509e-18)
(1.10706 -0.121385 -4.57659e-18)
(1.04037 -0.0478774 0)
(-0.0685032 2.41148 0)
(-0.027837 2.08424 0)
(-0.0379411 2.26211 0)
(-0.032889 1.62123 0)
(-0.0253098 1.51591 0)
(-0.0288412 1.27888 0)
(0.976236 -0.000668397 0)
(0.934892 0.0139097 -2.45124e-20)
(0.801351 1.25188 -9.87981e-19)
(1.06052 0.018306 -3.86623e-18)
(1.07212 0.107105 4.67282e-18)
(1.03328 0.0455227 0)
(1.1318 0.111805 3.58186e-18)
(1.11805 0.166595 -4.5604e-18)
(1.00786 0.135684 0)
(-0.0478093 1.87158 0)
(-0.0228895 1.82474 1.40258e-19)
(-0.0267885 1.44305 -9.91925e-20)
(1.21645 0.181564 4.77421e-18)
(1.14088 0.0665226 0)
(-0.237922 3.94969 -3.75644e-18)
(-0.155276 2.49853 -2.44349e-19)
(-0.240123 4.01193 4.40943e-18)
(-0.0605055 3.90754 -1.75594e-18)
(-0.0188893 3.54627 0)
(-0.0227262 3.82436 1.42374e-18)
(-0.165085 4.15529 3.87237e-18)
(-0.0815084 4.04395 -2.64927e-18)
(-0.102917 4.05492 0)
(0.444104 0.202058 0)
(0.424391 0.230563 0)
(1.15986 0.699402 2.44658e-18)
(1.00228 0.671485 -3.11345e-18)
(1.26066 0.576251 0)
(1.09598 0.385194 0)
(1.11015 0.0916077 -6.86744e-18)
(0.943371 0.0538579 8.47663e-18)
(1.10912 -0.0480272 0)
(0.930232 -0.0232549 0)
(1.16642 0.0158792 0)
(1.21743 0.0519394 0)
(1.11042 0.042804 0)
(1.19568 0.105712 0)
(1.15024 0.10738 0)
(1.12464 0.081814 0)
(0.0491477 1.39207 0)
(0.0202036 1.05952 0)
(0.077266 1.51531 0)
(0.0620438 1.12138 0)
(0.0975802 2.16496 0)
(0.089374 1.65261 -1.22835e-18)
(0.0255374 2.15849 0)
(0.0129268 1.88349 8.71695e-19)
(-0.0245966 1.93136 -1.06128e-18)
(-0.033637 1.40997 0)
(-0.0162579 1.12495 0)
(-0.0377138 1.48244 0)
(-0.0284151 1.03239 0)
(-0.0863788 2.562 -4.72769e-19)
(-0.069755 2.23199 5.1501e-19)
(-0.0602361 2.17948 6.10505e-19)
(-0.0394196 1.79393 0)
(-0.0682302 2.14894 -9.1244e-19)
(-0.0298486 1.87441 -5.56523e-19)
(-0.076324 2.58088 3.67388e-19)
(-0.0780147 2.46711 -6.58211e-19)
(-0.0674572 2.39574 -7.43005e-19)
(1.00607 0.025251 6.18198e-18)
(0.754174 0.00890906 -7.76496e-18)
(0.961013 0.039781 -6.17642e-18)
(0.730178 0.0227087 7.68859e-18)
(1.11502 0.00878758 0)
(0.860183 -0.000441192 0)
(1.14288 0.029115 0)
(1.09657 0.00644217 0)
(0.879984 0.00373563 0)
(1.21995 0.0767755 0)
(1.13514 0.0308503 0)
(0.928873 0.0192105 0)
(-0.044281 2.36266 -2.05501e-20)
(-0.0618162 2.49093 0)
(-0.0611534 2.44671 0)
(-0.0571948 1.96862 1.61465e-19)
(-0.0244082 1.59621 -6.57255e-21)
(-0.0766447 2.49561 2.0775e-19)
(-0.0787178 2.3738 -2.11663e-19)
(-0.063714 2.08207 0)
(-0.0563661 2.06036 0)
(-0.0467969 2.10587 0)
(-0.0485821 1.70849 0)
(-0.0281269 1.18794 0)
(0.416934 1.71524 -1.37133e-18)
(0.434749 1.37514 -4.44335e-19)
(0.304315 1.31603 -5.083e-19)
(0.168513 1.45883 1.56916e-18)
(0.481861 2.46604 5.5756e-19)
(1.13946 -0.0543367 0)
(1.10068 -0.0857096 0)
(0.93546 -0.0569266 0)
(1.1772 -0.022992 0)
(1.12961 -0.0540359 0)
(1.16237 -0.0955446 0)
(1.18508 -0.100799 0)
(1.20174 -0.097043 0)
(1.0635 0.0264882 6.51268e-18)
(0.828773 0.0185244 -8.19715e-18)
(1.02213 0.0312015 -6.47154e-18)
(0.818944 0.0168023 8.03477e-18)
(0.777635 1.39814 0)
(0.689617 1.30171 -1.21908e-18)
(0.841441 1.30713 -1.14057e-18)
(0.840077 1.00437 1.52792e-18)
(0.660088 1.25651 2.99145e-18)
(0.489593 0.0701855 2.44593e-18)
(1.23218 0.098525 0)
(1.28821 0.187931 -3.85795e-18)
(1.07248 0.0795045 -1.6998e-19)
(1.25486 0.142588 0)
(-0.217225 3.3235 2.99827e-18)
(-0.260697 3.42351 -3.94514e-18)
(-0.0516246 1.66943 2.28439e-18)
(0.25263 0.511964 -1.21732e-18)
(0.0436115 3.59655 8.26534e-19)
(-0.00723275 3.64812 0)
(0.0257093 3.32258 -1.17627e-18)
(-0.14825 3.55982 -7.68629e-18)
(-0.037989 3.62624 0)
(-0.0302255 3.96217 2.95556e-19)
(-0.0402885 4.24156 -3.28644e-18)
(-0.0499854 4.0286 4.74053e-18)
(-0.0954993 4.18172 0)
(-0.0373653 4.11286 0)
(0.656885 1.45563 0)
(0.660058 0.808241 -2.25835e-18)
(0.896983 0.802732 1.08935e-18)
(0.896405 1.06969 0)
(0.995238 1.12669 -9.59096e-19)
(1.02516 0.858349 4.45785e-20)
(0.477966 0.142976 -3.13941e-18)
(0.534412 0.232985 -1.79509e-20)
(0.423368 0.156185 1.57581e-18)
(0.473404 0.275481 1.0615e-19)
(0.370839 0.21288 -4.18104e-18)
(0.508136 0.239755 0)
(0.687512 0.36068 2.6653e-18)
(0.69724 0.33686 0)
(0.502854 0.263755 0)
(0.376849 0.188239 0)
(1.09502 0.720677 2.11159e-18)
(1.30434 0.250879 -3.98488e-18)
(1.26301 0.402392 0)
(1.14948 0.251153 0)
(0.473234 0.124693 2.42625e-18)
(1.08287 0.603135 -1.61144e-18)
(0.95289 0.541809 2.9849e-18)
(1.25754 0.462593 -3.66666e-18)
(1.01471 0.0353951 4.39619e-18)
(1.0399 0.0558311 -4.53916e-18)
(0.863895 0.0274049 0)
(1.09219 -0.0110689 0)
(1.05072 -0.0265349 -4.25212e-18)
(0.851467 -0.00919023 4.19926e-18)
(1.33835 0.0290537 0)
(1.25617 0.0449159 0)
(1.2512 0.0533008 0)
(1.20547 0.0677652 0)
(1.30202 0.0199948 0)
(1.2656 0.0168189 0)
(-0.00954866 1.26546 0)
(-0.0138562 1.01923 0)
(0.159307 1.90746 -7.95848e-19)
(0.304731 1.61332 -3.46149e-19)
(0.147186 1.50804 -7.50918e-19)
(0.178618 1.27755 1.21111e-18)
(0.181633 1.92944 0)
(0.189478 2.43008 -1.05807e-18)
(0.164509 2.44583 0)
(0.402121 2.49989 -7.67756e-19)
(0.353216 2.35978 1.99561e-18)
(0.247863 2.38002 9.1496e-19)
(0.30028 1.93104 -4.11375e-19)
(0.234758 2.03548 3.29954e-19)
(0.357472 2.21239 -1.38183e-18)
(0.30174 2.44769 0)
(0.352617 2.41153 1.01453e-18)
(-0.0326021 2.51418 -3.78927e-19)
(-0.028106 2.14138 0)
(0.0172451 2.41794 1.11914e-18)
(-0.0225306 2.46826 0)
(-0.014127 2.0762 -9.679e-19)
(-0.0167793 1.79223 0)
(-0.0648926 2.22641 -5.32816e-19)
(-0.0831472 2.47091 0)
(-0.036545 1.9395 0)
(-0.0302796 1.89705 6.25944e-19)
(-0.0554113 2.23437 1.97843e-20)
(-0.0473644 2.16424 1.28875e-18)
(-0.0397031 1.76884 8.30846e-21)
(-0.0874979 2.52856 3.33038e-19)
(-0.0845254 2.53447 1.90885e-19)
(-0.0196836 1.34031 0)
(-0.00382534 1.08812 0)
(-0.0527057 2.54812 9.557e-19)
(-0.0415213 2.20005 8.15944e-19)
(-0.0629547 2.38039 -1.06249e-18)
(-0.0209357 2.50012 0)
(-0.0711432 2.44907 -5.78212e-19)
(-0.0865515 2.29105 2.44789e-19)
(-0.0721016 2.32416 -7.75459e-20)
(-0.0725325 2.53637 -4.18902e-19)
(-0.0710074 2.3408 -1.30147e-19)
(-0.0722473 2.31495 6.21825e-19)
(0.943875 0.0173096 -4.27969e-18)
(0.940009 0.0139472 4.16102e-18)
(0.768941 0.00990308 0)
(1.1758 0.0613953 5.69509e-18)
(0.899934 0.0394492 -6.14116e-18)
(0.744711 0.0202671 6.70393e-18)
(1.23958 0.104646 -7.60973e-19)
(1.05999 -0.0146897 0)
(1.04454 -0.00469359 4.09737e-18)
(0.878652 -0.00472824 -4.03072e-18)
(1.29367 0.0376334 -2.36361e-19)
(1.2581 0.0329779 2.03034e-18)
(1.39834 0.0551763 0)
(1.42307 0.0570706 -6.9257e-19)
(1.35249 0.0442691 0)
(1.23335 0.0473648 0)
(1.36248 0.0292078 0)
(1.24151 0.0260262 0)
(1.41162 0.0353951 1.44047e-18)
(1.3973 0.0234833 -3.19399e-18)
(1.39022 0.034708 -1.60336e-18)
(1.40975 0.0367954 -1.70419e-18)
(1.41601 0.0726777 3.36698e-18)
(1.28725 0.0617348 0)
(1.35642 0.0949171 0)
(-0.0670627 2.47584 -2.33725e-19)
(-0.0553745 2.49142 -1.9921e-20)
(-0.0663462 2.49891 0)
(-0.0593448 2.29108 2.34973e-19)
(-0.0558103 2.29801 3.89772e-20)
(-0.0594009 2.24751 -3.59548e-20)
(-0.0555719 2.01728 4.95681e-19)
(-0.0942424 2.22151 -2.79993e-20)
(-0.073255 2.28785 1.40796e-19)
(-0.0504515 1.93392 -2.56235e-19)
(-0.0213536 1.69789 3.06355e-19)
(-0.0733836 2.33997 1.03945e-20)
(-0.0797913 2.47602 3.32547e-19)
(0.464251 1.93676 7.74698e-19)
(0.43261 2.16765 1.46076e-18)
(0.663856 1.49061 1.18098e-18)
(0.537559 1.59259 4.28352e-19)
(0.566261 1.35662 0)
(0.373195 1.50543 5.92979e-19)
(0.296932 1.06843 7.04494e-19)
(0.215514 1.63904 4.88249e-20)
(0.304504 2.06634 -2.40812e-18)
(0.390794 2.05524 1.87892e-18)
(0.291737 1.54072 0)
(0.197289 1.23357 -1.23553e-18)
(0.142008 1.90148 3.05613e-18)
(0.156053 1.70311 -8.52168e-20)
(0.0896683 1.41565 -3.86922e-18)
(0.356421 0.937386 2.616e-18)
(0.384234 1.03191 0)
(1.21513 -0.0261467 1.5057e-19)
(1.21958 -0.0857821 -1.26207e-19)
(1.2518 -0.0747678 -2.21418e-18)
(1.27241 -0.0439697 2.23305e-18)
(1.24877 -0.0178623 0)
(0.750351 1.56223 0)
(0.762639 1.56226 0)
(0.901304 1.37374 0)
(0.778199 1.46964 0)
(0.665723 1.32452 -3.99887e-21)
(0.473492 0.858327 0)
(0.949811 2.68687 2.53667e-20)
(0.768745 2.42219 0)
(0.869147 2.35059 -2.09541e-18)
(0.871689 2.366 1.35828e-18)
(0.608225 0.101993 0)
(0.483304 0.086661 6.41651e-19)
(0.813875 0.115156 4.02794e-18)
(0.602976 0.0894835 -1.43219e-18)
(0.479285 0.0391758 -4.48143e-18)
(1.42964 0.259213 -5.03138e-18)
(1.29148 0.332141 -3.97165e-20)
(1.11707 0.284735 3.84347e-18)
(1.30391 0.245291 3.42795e-18)
(1.05387 0.153715 -5.68162e-18)
(0.978153 0.153345 6.96288e-19)
(1.08219 0.227821 -1.5573e-18)
(1.00042 0.221704 0)
(1.26773 0.184523 2.90819e-18)
(1.37783 0.207135 0)
(1.37823 0.251958 0)
(1.35155 0.13652 1.61295e-18)
(1.43834 0.209747 -3.42815e-20)
(1.41732 0.233648 -8.79005e-19)
(1.39209 0.210017 0)
(1.21054 0.0405502 3.19263e-18)
(1.41094 0.0573263 3.98456e-18)
(1.37742 0.0468437 -3.13271e-18)
(1.39373 0.0758977 -2.70228e-18)
(1.26088 0.0731007 -4.04244e-18)
(1.10633 0.124691 0)
(1.14219 0.0967204 0)
(0.859945 0.0588796 -2.37233e-18)
(0.70557 0.03619 8.8409e-19)
(1.36081 0.114272 3.69402e-18)
(1.43849 0.13908 -4.54684e-18)
(1.4396 0.159127 4.03387e-18)
(1.39857 0.157455 0)
(1.42956 0.10762 0)
(1.4327 0.103723 -1.83746e-18)
(1.4173 0.101198 -3.04195e-18)
(0.717742 2.15952 1.13539e-18)
(0.818943 2.76575 -1.15643e-18)
(0.9494 2.79278 -1.29985e-18)
(0.91973 3.06881 2.66294e-19)
(0.738603 1.60745 -2.73293e-18)
(0.725384 1.50504 4.67839e-19)
(0.509048 0.860871 -4.43228e-20)
(0.898643 2.54821 -9.37081e-19)
(0.913587 2.50993 1.6977e-18)
(0.790495 2.86451 2.41663e-19)
(0.739963 2.0512 -2.46927e-19)
(0.677701 1.92139 0)
(0.596373 0.896671 -2.4776e-19)
(0.00149512 1.51757 1.75045e-18)
(0.501007 0.205145 2.03884e-18)
(0.357678 0.337079 2.17616e-18)
(0.445293 0.235579 2.33792e-18)
(0.565025 0.302391 -4.03156e-18)
(0.573598 0.266794 3.29065e-18)
(0.494733 0.204623 -1.1576e-18)
(0.388286 0.184928 2.57255e-18)
(0.551305 0.165695 -1.41618e-18)
(0.531151 0.176064 0)
(0.425486 0.13884 5.01243e-21)
(0.845309 0.487588 1.47097e-18)
(0.723228 0.406882 -5.17257e-18)
(0.623952 0.351896 -6.90511e-21)
(0.60026 0.346106 0)
(0.824753 0.850281 1.79436e-18)
(1.07185 0.943031 2.29141e-18)
(0.977746 1.01556 -2.65143e-18)
(1.11731 0.959054 -9.31449e-19)
(1.11432 0.922064 -3.28297e-19)
(1.1156 0.992637 3.35353e-19)
(1.19388 0.765166 -3.41491e-18)
(1.19865 0.846275 8.72162e-19)
(1.22756 0.836267 0)
(1.23599 0.75399 -1.26985e-18)
(1.35969 0.359838 1.16722e-18)
(1.42789 0.329338 2.10663e-18)
(1.44086 0.319346 2.00543e-18)
(1.35637 0.441669 -2.28481e-18)
(1.36297 0.449115 0)
(1.3759 0.411817 0)
(1.12519 0.413528 -2.16247e-20)
(0.812813 0.222791 0)
(0.917199 0.244699 1.72084e-18)
(1.09283 0.298455 -2.83354e-20)
(1.26008 0.516831 1.00931e-17)
(1.18468 0.587205 2.5674e-18)
(1.16348 0.515091 -2.52114e-18)
(1.02528 0.457045 2.69857e-18)
(0.934138 0.45345 1.5095e-18)
(0.790427 0.382231 -1.46106e-18)
(1.22382 -0.0261659 3.57563e-18)
(1.32225 -0.0100531 0)
(1.30631 -0.0235791 2.39438e-18)
(1.25847 -0.0177623 -5.35428e-18)
(1.3519 0.0116445 2.62357e-18)
(1.32242 0.0358299 -5.49364e-18)
(1.25574 0.0409049 0)
(1.18076 0.0526619 -1.11725e-18)
(1.29215 0.0410254 2.85622e-18)
(1.2428 0.0628957 -1.46605e-18)
(1.20063 0.0535597 1.05274e-18)
(-0.0395056 1.32049 0)
(-0.0265193 1.72818 0)
(-0.019569 1.24562 0)
(-0.0114442 0.99399 0)
(0.0154078 1.96708 1.30765e-18)
(0.0656241 1.81355 -3.50794e-19)
(0.11406 2.36359 -4.60677e-19)
(0.0884399 2.19001 4.6034e-19)
(-0.0348847 2.19073 -9.82375e-19)
(-0.0176558 2.1968 7.40214e-19)
(0.0317163 1.93226 3.15552e-20)
(0.00883823 1.79788 -8.79745e-19)
(-0.00330227 1.65546 -1.18894e-19)
(-0.0232374 1.85599 -1.10786e-19)
(0.0393597 2.4848 -1.19008e-18)
(0.0610609 2.43706 0)
(0.0905146 2.53401 5.84458e-19)
(0.0962795 2.50924 5.21412e-19)
(0.236594 2.45772 -4.7666e-19)
(0.227633 2.31444 0)
(0.236464 2.2414 -2.36546e-18)
(0.296169 2.40908 1.69526e-18)
(0.198296 2.49105 -1.24606e-18)
(0.139955 2.49646 6.80193e-19)
(0.128938 2.4798 0)
(-0.0471914 2.55977 -1.10286e-18)
(-0.0660566 2.53242 -1.27532e-18)
(-0.0726063 2.5758 0)
(-0.0476652 2.44636 -1.66714e-20)
(-0.0416068 2.54881 5.47453e-19)
(-0.0669836 2.00871 8.68013e-20)
(-0.0378257 1.79662 -1.23795e-18)
(-0.0597964 2.03036 3.26946e-19)
(-0.0878654 2.35011 4.42753e-19)
(-0.0552113 2.23566 0)
(-0.0470011 2.00668 0)
(-0.0498457 1.50813 3.78185e-19)
(-0.0384897 1.88506 -1.14963e-19)
(-0.046474 1.88224 0)
(-0.0442554 1.3873 2.99178e-19)
(-0.0237772 1.1225 -5.76861e-19)
(1.25573 0.0109293 0)
(1.2449 0.00341463 -3.68073e-19)
(1.41185 0.0206737 -2.61807e-18)
(1.37698 0.0144519 0)
(1.2943 0.00405947 0)
(1.40452 0.0102149 -1.41205e-20)
(1.38704 0.00926915 4.36543e-18)
(1.3505 0.0244261 5.17168e-18)
(1.26 0.0363431 0)
(1.18425 0.0330487 0)
(1.35239 0.0274122 2.61433e-18)
(1.24132 0.035585 0)
(1.1537 0.0385817 0)
(-0.0752055 2.53333 0)
(-0.0877245 2.50134 2.15199e-20)
(-0.0712393 2.53599 1.16691e-19)
(-0.0462795 1.99182 0)
(-0.0896644 2.40926 2.12953e-19)
(-0.0686728 2.22614 -1.22451e-19)
(-0.0509482 2.06339 0)
(0.635474 2.49849 0)
(0.458947 2.3367 -2.58537e-18)
(0.493232 2.47127 0)
(0.590974 2.16 3.0158e-18)
(0.570318 1.74501 0)
(0.551781 1.96364 -1.26702e-18)
(0.69462 1.83845 -5.57748e-20)
(0.443079 1.1757 -3.10586e-18)
(0.39007 0.800741 3.46523e-18)
(0.470119 1.23849 7.51842e-19)
(0.68732 1.83983 0)
(0.714384 1.88123 0)
(0.440698 1.12628 0)
(0.3081 0.793735 -2.60062e-18)
(0.642575 2.47673 -1.96062e-18)
(0.711822 2.20905 -4.62214e-19)
(0.757384 2.41033 3.62483e-19)
(0.387062 1.31673 0)
(0.40716 1.24886 0)
(0.293632 0.966376 -8.11103e-19)
(0.628369 1.93828 0)
(0.726479 1.44884 0)
(0.542244 1.41006 -2.95291e-18)
(0.635323 1.11774 -1.81669e-19)
(0.660243 1.70542 0)
(0.628133 1.83425 4.47925e-18)
(0.986549 1.08239 -8.85676e-19)
(0.954996 1.22531 0)
(0.953111 1.15306 1.50449e-18)
(0.758727 1.26577 0)
(0.754491 1.1844 0)
(0.922327 2.25596 -1.09997e-18)
(0.99378 2.74573 -9.87325e-19)
(0.952081 2.75175 1.96872e-18)
(0.95555 2.69021 -5.77565e-19)
(0.790096 1.81881 0)
(0.838325 2.04073 7.83638e-19)
(0.515643 1.04167 -9.37087e-19)
(0.382005 0.744972 -2.13594e-20)
(0.840207 2.5202 0)
(0.717818 2.14079 -1.00824e-18)
(0.739958 1.98515 0)
(0.763046 0.173627 0)
(0.548673 0.11477 0)
(0.416055 0.0937749 0)
(0.743996 0.183993 -2.66269e-18)
(0.555299 0.13598 1.47128e-18)
(0.717619 0.0417703 -1.77445e-18)
(0.883401 0.0961946 0)
(0.823889 0.096189 7.41531e-19)
(0.592413 0.0455894 2.91883e-18)
(0.512592 0.0272771 -1.85135e-18)
(0.630648 3.05534 3.27092e-19)
(0.724717 3.23568 0)
(0.454278 3.07453 7.47762e-19)
(0.328296 3.54279 -6.2555e-19)
(0.400016 3.46341 -1.35377e-18)
(0.444863 1.21446 2.76973e-18)
(0.433771 1.60834 0)
(0.348821 0.516934 -5.4571e-19)
(0.503824 0.583787 3.63491e-18)
(0.530678 0.256813 -7.61077e-19)
(0.611023 0.315264 8.47398e-19)
(0.730952 0.44316 1.86611e-18)
(0.820888 0.51678 0)
(0.726494 0.499363 0)
(0.703918 0.423807 0)
(1.29845 0.706698 9.11407e-19)
(1.24768 0.630627 -2.48943e-18)
(1.25535 0.685411 2.15656e-18)
(1.29653 0.596102 -2.01313e-18)
(1.37974 0.564017 0)
(1.36037 0.625058 -6.47817e-19)
(0.965778 0.388209 -3.51556e-18)
(1.00801 0.385688 -4.55053e-18)
(0.79648 0.349103 2.68332e-18)
(0.72511 0.310756 -2.58274e-18)
(0.838253 0.282423 -2.16234e-18)
(0.738574 0.26135 2.64008e-18)
(1.36 0.0102878 -2.77008e-18)
(1.37482 0.0123662 5.47236e-18)
(1.26372 -0.0205002 3.34975e-18)
(1.26984 -0.0229346 -3.95744e-18)
(1.32882 0.0034066 0)
(1.37088 0.00683827 -6.69365e-18)
(0.00958606 2.53108 2.16702e-19)
(-0.00355624 2.48091 0)
(0.0589878 2.51286 1.89587e-18)
(0.0668326 2.51102 -1.71623e-18)
(0.0761935 2.42427 8.60587e-19)
(0.031465 2.39223 0)
(-0.0845312 2.55596 0)
(-0.0831907 2.31899 -1.19431e-19)
(-0.0803483 2.27672 1.06837e-19)
(-0.0856738 2.374 1.29165e-20)
(-0.0843822 2.53896 -1.85956e-19)
(-0.0747539 2.53157 1.0053e-19)
(0.760678 2.39807 -3.07073e-18)
(0.740168 2.41658 3.27734e-18)
(0.608383 2.15713 -1.71046e-18)
(0.696371 2.44468 1.45596e-19)
(0.699905 1.66688 0)
(0.635106 1.78969 -1.45934e-18)
(0.666206 1.63881 1.43391e-18)
(0.621968 1.93022 1.7029e-18)
(0.704943 2.05126 0)
(0.717763 1.91042 0)
(0.614327 2.40188 2.93214e-18)
(0.537311 1.93624 4.24884e-18)
(0.591948 2.06268 -2.97638e-18)
(0.505277 2.00631 -4.9651e-19)
(0.511039 2.42949 9.86054e-19)
(0.443122 2.23568 -2.42705e-18)
(0.523199 1.06866 -1.95236e-18)
(0.516725 0.974489 0)
(0.388852 0.737735 -1.95564e-18)
(0.798209 1.82392 0)
(0.786623 1.83502 0)
(0.401999 3.02052 -1.55799e-18)
(0.659895 3.36651 -9.29884e-19)
(0.491217 3.44497 1.4534e-18)
(0.138687 1.52913 0)
(0.191312 1.11399 -1.27229e-18)
(0.35612 1.51163 -1.75134e-18)
(0.3054 2.78072 0)
(0.195846 3.32455 9.70424e-19)
(0.04057 3.18648 0)
(0.89567 0.722347 -3.7571e-18)
(1.04318 0.816487 5.35368e-18)
(1.05251 0.715273 -5.31611e-18)
(0.828745 0.617295 -4.50673e-19)
(0.890758 0.607893 -1.89047e-18)
(0.707576 3.29021 7.65256e-19)
(0.848382 3.19047 -1.52907e-18)
(0.570696 3.01546 3.29678e-18)
(0.544787 2.67706 -2.30784e-18)
(0.835278 2.8138 -2.3497e-18)
(0.857375 3.0882 -3.30322e-19)
(0.920497 2.99027 1.78745e-18)
(0.689041 2.82505 1.49874e-19)
(0.67592 2.62859 1.00983e-18)
)
;

boundaryField
{
    wall-4
    {
        type            noSlip;
    }
    velocity-inlet-5
    {
        type            fixedValue;
        value           uniform (1 0 0);
    }
    velocity-inlet-6
    {
        type            fixedValue;
        value           uniform (0 3 0);
    }
    pressure-outlet-7
    {
        type            zeroGradient;
    }
    wall-8
    {
        type            noSlip;
    }
    frontAndBackPlanes
    {
        type            empty;
    }
}


// ************************************************************************* //
