/*--------------------------------*- C++ -*----------------------------------*\
  =========                 |
  \\      /  F ield         | OpenFOAM: The Open Source CFD Toolbox
   \\    /   O peration     | Website:  https://openfoam.org
    \\  /    A nd           | Version:  7
     \\/     M anipulation  |
\*---------------------------------------------------------------------------*/
FoamFile
{
    version     2.0;
    format      ascii;
    class       volScalarField;
    location    "0.102";
    object      k_0;
}
// * * * * * * * * * * * * * * * * * * * * * * * * * * * * * * * * * * * * * //

dimensions      [0 2 -2 0 0 0 0];

internalField   nonuniform List<scalar> 
12225
(
1.93792e-05
1.80417e-05
1.65872e-05
1.53976e-05
1.39835e-05
1.27374e-05
1.10146e-05
1.00645e-05
9.28985e-06
7.51391e-06
5.97873e-06
5.76066e-06
5.91216e-06
5.70837e-06
4.16431e-06
3.67819e-06
4.44902e-06
2.09847e-05
1.99811e-05
1.98824e-05
1.96801e-05
1.93808e-05
1.91105e-05
1.88569e-05
1.82268e-05
1.75804e-05
1.74117e-05
1.73337e-05
1.72228e-05
1.69432e-05
1.59927e-05
1.52614e-05
1.42829e-05
1.38781e-05
1.33453e-05
1.38111e-05
2.00024e-05
1.93692e-05
1.92472e-05
1.91965e-05
1.91497e-05
1.90901e-05
1.89159e-05
1.87496e-05
1.87217e-05
1.87514e-05
1.88092e-05
1.8806e-05
1.87454e-05
1.85749e-05
1.81726e-05
1.78622e-05
1.75954e-05
1.71347e-05
2.05401e-05
2.01874e-05
1.75848e-05
1.66596e-05
1.68211e-05
1.69395e-05
1.70477e-05
1.71929e-05
1.74889e-05
1.77761e-05
1.79944e-05
1.809e-05
1.8101e-05
1.80744e-05
1.7951e-05
1.76888e-05
1.74975e-05
1.73126e-05
2.0962e-05
2.08628e-05
2.08284e-05
2.07203e-05
2.02691e-05
1.98797e-05
1.98139e-05
1.97214e-05
1.94191e-05
1.8291e-05
1.69479e-05
1.65497e-05
1.6484e-05
1.63788e-05
1.59694e-05
1.53578e-05
1.50403e-05
1.49761e-05
2.01195e-05
2.11767e-05
2.18168e-05
2.18145e-05
2.14503e-05
2.11711e-05
2.11273e-05
2.11533e-05
2.12684e-05
2.14317e-05
2.1938e-05
2.24732e-05
2.25923e-05
2.2525e-05
2.21392e-05
2.07921e-05
1.8623e-05
1.70594e-05
2.05674e-05
2.14141e-05
2.15268e-05
2.12827e-05
2.09926e-05
2.10042e-05
2.13596e-05
2.18832e-05
2.23731e-05
2.3416e-05
2.45057e-05
2.50581e-05
2.5162e-05
2.51096e-05
2.48674e-05
2.40691e-05
2.30206e-05
2.19658e-05
2.11494e-05
2.11731e-05
2.09288e-05
2.07514e-05
2.06872e-05
2.07336e-05
2.11267e-05
2.22415e-05
2.32005e-05
2.3927e-05
2.43166e-05
2.4405e-05
2.43433e-05
2.40312e-05
2.36406e-05
2.32979e-05
2.31244e-05
2.30401e-05
2.07954e-05
2.17111e-05
2.16343e-05
2.1461e-05
2.16764e-05
2.23085e-05
2.49022e-05
2.73951e-05
2.76086e-05
2.67879e-05
2.46951e-05
2.35557e-05
2.3051e-05
2.28133e-05
2.27146e-05
2.26997e-05
2.27456e-05
2.29231e-05
2.08823e-05
2.1715e-05
2.12758e-05
2.12912e-05
2.31921e-05
2.80825e-05
2.92592e-05
2.87568e-05
2.64088e-05
2.3772e-05
2.21762e-05
2.14816e-05
2.13244e-05
2.13136e-05
2.13256e-05
2.13803e-05
2.15386e-05
2.19323e-05
2.19407e-05
2.22119e-05
2.26e-05
2.4185e-05
2.56669e-05
2.57617e-05
2.55205e-05
2.47488e-05
2.3701e-05
2.29259e-05
2.23111e-05
2.18613e-05
2.15709e-05
2.14043e-05
2.13311e-05
2.13198e-05
2.13649e-05
2.16363e-05
2.08767e-05
2.13751e-05
2.15236e-05
2.17769e-05
2.25118e-05
2.30757e-05
2.31471e-05
2.302e-05
2.2646e-05
2.235e-05
2.21446e-05
2.20325e-05
2.19955e-05
2.19935e-05
2.20244e-05
2.22079e-05
2.26287e-05
2.28709e-05
2.05772e-05
2.42295e-05
2.4583e-05
2.28256e-05
2.20008e-05
2.1982e-05
2.20578e-05
2.2173e-05
2.25125e-05
2.27736e-05
2.27975e-05
2.27525e-05
2.25333e-05
2.23326e-05
2.2304e-05
2.23437e-05
2.25342e-05
2.27584e-05
2.16875e-05
2.25094e-05
2.22961e-05
2.15556e-05
2.11479e-05
2.10538e-05
2.10634e-05
2.12294e-05
2.18802e-05
2.23823e-05
2.25235e-05
2.25265e-05
2.24548e-05
2.23098e-05
2.22621e-05
2.22618e-05
2.228e-05
2.23496e-05
2.20898e-05
2.12173e-05
2.06933e-05
2.04257e-05
2.03301e-05
2.03199e-05
2.03301e-05
2.03735e-05
2.06081e-05
2.13185e-05
2.19355e-05
2.22646e-05
2.238e-05
2.23925e-05
2.23688e-05
2.22482e-05
2.19376e-05
2.1717e-05
2.13012e-05
2.13659e-05
2.08981e-05
2.03986e-05
2.0288e-05
2.02896e-05
2.03507e-05
2.06097e-05
2.12277e-05
2.17476e-05
2.20915e-05
2.22742e-05
2.23394e-05
2.23456e-05
2.23243e-05
2.22139e-05
2.18802e-05
2.15642e-05
2.03388e-05
2.03694e-05
2.03186e-05
2.02728e-05
2.02738e-05
2.03646e-05
2.08936e-05
2.16691e-05
2.20506e-05
2.2199e-05
2.22414e-05
2.22435e-05
2.22222e-05
2.21267e-05
2.18417e-05
2.15426e-05
2.1332e-05
2.12158e-05
2.04342e-05
2.04472e-05
2.04166e-05
2.03591e-05
2.03487e-05
2.04469e-05
2.06916e-05
2.09738e-05
2.12708e-05
2.14929e-05
2.15985e-05
2.16189e-05
2.16047e-05
2.15045e-05
2.12259e-05
2.10195e-05
2.09093e-05
2.0872e-05
2.0646e-05
2.08143e-05
2.05951e-05
2.03852e-05
2.03689e-05
2.03864e-05
2.04278e-05
2.06834e-05
2.1144e-05
2.14304e-05
2.15234e-05
2.15159e-05
2.14691e-05
2.13246e-05
2.11227e-05
2.09257e-05
2.07357e-05
2.05921e-05
2.03786e-05
2.05224e-05
2.03748e-05
2.03249e-05
2.06061e-05
2.07913e-05
2.07387e-05
2.07559e-05
2.0916e-05
2.12121e-05
2.15959e-05
2.18922e-05
2.1914e-05
2.17364e-05
2.1396e-05
2.1193e-05
2.10246e-05
2.08717e-05
2.02619e-05
2.01481e-05
2.01458e-05
2.02093e-05
2.04891e-05
2.07704e-05
2.07859e-05
2.09764e-05
2.1274e-05
2.13934e-05
2.14097e-05
2.13845e-05
2.1239e-05
2.09322e-05
2.06914e-05
2.05114e-05
2.03813e-05
2.0315e-05
2.02331e-05
2.05622e-05
2.09025e-05
2.1108e-05
2.11401e-05
2.10682e-05
2.09046e-05
2.0865e-05
2.0865e-05
2.08867e-05
2.09996e-05
2.10474e-05
2.10153e-05
2.08243e-05
2.05901e-05
2.04434e-05
2.03507e-05
2.03062e-05
2.01746e-05
2.07691e-05
2.08985e-05
2.08195e-05
2.06054e-05
2.05455e-05
2.05678e-05
2.07224e-05
2.09262e-05
2.1093e-05
2.12207e-05
2.12349e-05
2.11464e-05
2.08579e-05
2.06111e-05
2.04469e-05
2.03507e-05
2.03099e-05
2.00915e-05
2.0322e-05
2.03901e-05
2.04006e-05
2.04183e-05
2.05766e-05
2.06747e-05
2.0654e-05
2.06553e-05
2.07307e-05
2.08196e-05
2.0801e-05
2.06087e-05
2.03766e-05
2.02616e-05
2.0209e-05
2.0191e-05
2.01893e-05
2.03587e-05
2.02112e-05
2.02087e-05
2.02132e-05
2.02235e-05
2.03141e-05
2.04261e-05
2.04866e-05
2.06867e-05
2.10838e-05
2.12237e-05
2.11926e-05
2.09778e-05
2.07053e-05
2.05306e-05
2.04165e-05
2.03446e-05
2.03081e-05
2.03576e-05
2.04535e-05
2.04594e-05
2.04656e-05
2.04958e-05
2.05992e-05
2.06691e-05
2.07004e-05
2.07441e-05
2.08527e-05
2.12302e-05
2.21647e-05
2.27448e-05
2.28664e-05
2.27827e-05
2.23305e-05
2.15379e-05
2.09721e-05
2.01347e-05
2.00881e-05
2.00673e-05
2.00519e-05
2.00029e-05
1.98595e-05
1.94263e-05
1.91523e-05
1.91623e-05
1.92666e-05
1.94912e-05
1.99011e-05
2.06604e-05
2.14694e-05
2.20322e-05
2.22496e-05
2.22648e-05
2.20954e-05
2.01913e-05
1.77797e-05
1.63621e-05
1.67523e-05
1.66378e-05
1.65221e-05
1.69827e-05
1.93611e-05
2.64647e-05
3.41666e-05
4.19018e-05
5.23814e-05
6.54563e-05
7.81071e-05
8.85262e-05
9.52041e-05
9.95219e-05
0.00010031
3.38401e-05
0.000114591
0.00020592
0.000248665
0.000256098
0.000260464
0.000276368
0.000334374
0.000409033
0.000452955
0.000487955
0.000536358
0.000596969
0.000648334
0.000674787
0.000681716
0.000681752
0.000679513
0.003075
0.00293761
0.00274517
0.00245735
0.0022948
0.0021394
0.00197029
0.00183415
0.00175218
0.00171469
0.00170173
0.00169549
0.00168446
0.00165407
0.001558
0.00144724
0.00137607
0.00132834
0.004677
0.00838093
0.00959507
0.0102001
0.010467
0.0108885
0.0111614
0.0112701
0.0105538
0.00795437
0.0039257
0.00335047
0.00604667
0.00830058
0.00858415
0.00773473
0.00720149
0.00732717
0.00826046
0.0106601
0.012892
0.0149761
0.0197394
0.0234175
0.0226255
0.0175493
0.0140153
0.0106937
0.00947365
0.00921678
0.00932534
0.00961325
0.00987148
0.0100046
0.010054
0.00998831
0.009713
0.00928339
0.00871371
0.00815762
0.00769639
0.00736354
0.00719768
0.00705344
0.00695857
0.00674371
0.00661181
0.00654909
0.00652404
0.00652184
0.00654996
0.00664011
0.00675523
0.0068602
0.0069688
0.00708595
0.00719236
0.00730928
0.00746056
0.00765724
0.00791422
0.00819089
0.00845192
0.00870466
0.0088716
0.00885961
0.00888119
0.00906012
0.00934413
0.00935177
0.0093984
0.0101592
0.017948
0.0416721
0.0371984
0.0210663
0.0159847
0.0146978
0.0145011
0.0146951
0.0154498
0.0176956
0.0227075
0.0243084
0.024242
0.0267272
0.0518043
0.151459
0.206637
0.21218
0.184205
0.0925632
0.0210902
0.00372894
0.00195997
0.00167478
0.00161749
0.00149009
0.00133649
0.00115458
0.000957292
0.000843795
0.000682112
0.000609201
0.000536727
0.000503345
0.000493768
0.000525653
0.000540226
0.000561975
0.000582541
0.000598656
0.000613762
0.000623394
0.000626769
0.000626438
0.000613872
0.000602209
0.000586929
0.000561056
0.000538744
0.000519265
0.000494022
0.000475018
0.00045226
0.000429715
0.000405996
0.000387995
0.000378446
0.000371488
0.000355714
0.000330193
0.000309255
0.000291598
0.000275325
0.000259531
0.000244167
0.000229602
0.000215656
0.000201547
0.000187586
0.000174733
0.000161909
0.000147697
0.000134171
0.000122602
0.000110057
9.63697e-05
8.47283e-05
7.14217e-05
5.07778e-05
3.052e-05
1.7729e-05
1.05195e-05
6.84692e-06
5.1752e-06
4.51341e-06
4.26231e-06
4.08519e-06
3.84284e-06
3.55024e-06
3.20639e-06
2.7909e-06
2.39178e-06
2.00175e-06
1.68439e-06
1.41244e-06
1.17176e-06
9.68467e-07
1.02683e-06
1.02967e-06
1.10815e-06
1.02843e-06
1.21419e-06
1.13673e-06
1.49726e-06
1.85114e-06
2.61191e-06
1.26465e-05
1.08137e-05
0.0043744
0.00787741
0.0110788
0.0122944
0.0118496
0.0113742
0.0120885
0.0126246
0.0125834
0.012324
0.0114997
0.00965168
0.00746846
0.00728886
0.00728545
0.00537718
0.00500052
0.00593707
0.0100747
0.0169983
0.0197984
0.0201171
0.0187937
0.0161252
0.0146625
0.0120512
0.0101256
0.00816754
0.0071368
0.00622475
0.00580442
0.00550346
0.00532751
0.00522947
0.00510207
0.00496235
0.00470299
0.00436541
0.00394081
0.00350987
0.0030978
0.00271528
0.00240068
0.00214098
0.00194564
0.00182952
0.00177604
0.00175321
0.00174681
0.00176797
0.00186144
0.00198668
0.00211144
0.00227323
0.00248365
0.0027317
0.00305218
0.00344281
0.00388493
0.00441792
0.00501626
0.00567624
0.00636417
0.00705811
0.00772685
0.00820959
0.00840876
0.00905515
0.00983338
0.010273
0.0099768
0.0100861
0.0125173
0.0244992
0.0361146
0.0364474
0.0248746
0.0146414
0.0136588
0.0130666
0.0128617
0.0144995
0.0239817
0.0311511
0.0309081
0.0309082
0.0401919
0.0697451
0.113346
0.14837
0.106108
0.0315536
0.00687138
0.00199662
0.00117499
0.000954225
0.000861343
0.000810548
0.000789618
0.000785525
0.00081691
0.000864596
0.000921304
0.00100604
0.00109354
0.00116693
0.00125292
0.00131574
0.00138663
0.00145474
0.001507
0.00152638
0.00153401
0.00153639
0.00153417
0.00151642
0.0014833
0.00144389
0.00139811
0.00134092
0.00128273
0.00121911
0.0011514
0.00108993
0.00103095
0.000975608
0.000925194
0.000872956
0.000823368
0.000781724
0.000744392
0.000708363
0.000670516
0.000631182
0.000594839
0.000562513
0.000534169
0.000509775
0.000488136
0.000467587
0.000446254
0.000422526
0.000394785
0.000363592
0.000332297
0.000303262
0.000276797
0.000253851
0.00023178
0.000205938
0.000179681
0.000155386
0.000133529
0.000115796
9.97092e-05
8.37036e-05
6.90527e-05
5.75301e-05
4.91382e-05
4.32384e-05
3.87566e-05
3.51616e-05
3.15363e-05
2.79254e-05
2.38909e-05
2.04249e-05
1.71423e-05
1.46211e-05
1.21128e-05
1.07888e-05
9.1777e-06
8.34703e-06
6.87233e-06
6.15437e-06
5.12521e-06
4.47006e-06
4.11194e-06
3.63467e-06
5.00244e-06
4.66206e-06
0.00619721
0.00805296
0.0147054
0.0160935
0.0134818
0.0108495
0.00958073
0.00936043
0.0094987
0.00980807
0.0100381
0.00991898
0.00940706
0.00801259
0.00734838
0.00585678
0.00593205
0.0100559
0.0153736
0.0162341
0.0156378
0.012755
0.0112671
0.0092669
0.0073656
0.00582404
0.00471801
0.00357519
0.0029282
0.00255078
0.00223922
0.00209839
0.00196855
0.00185686
0.00174752
0.00160013
0.00144687
0.00126391
0.00109512
0.000945366
0.000834985
0.000751422
0.000695537
0.000657282
0.000630408
0.000616367
0.000606975
0.000590323
0.000573777
0.000559237
0.000554951
0.000554709
0.000565748
0.000594155
0.000627304
0.000669987
0.000742968
0.000834654
0.000956249
0.00112065
0.00134598
0.0016654
0.0021315
0.00282127
0.00372441
0.00489275
0.00639516
0.00793697
0.00964656
0.0107784
0.0110714
0.0107393
0.0111458
0.0130928
0.0214082
0.030906
0.0303229
0.0248204
0.0170258
0.0132713
0.0117635
0.013208
0.0243278
0.0377969
0.0373325
0.034716
0.0381937
0.0595869
0.0963343
0.071595
0.0254596
0.00660508
0.00186113
0.00101604
0.000861847
0.000834218
0.000833126
0.000861529
0.000926675
0.0010235
0.00115585
0.00130987
0.00148279
0.00164419
0.0017851
0.00187411
0.00192198
0.00194316
0.00195153
0.00195164
0.00192593
0.00187597
0.00183256
0.00179602
0.00176571
0.00173769
0.00170657
0.00166328
0.00161421
0.00156512
0.00151311
0.00143913
0.00135936
0.00127144
0.00119108
0.00112759
0.00107163
0.00102298
0.000981169
0.000941653
0.000904124
0.000870603
0.000839089
0.000807111
0.000775315
0.000743786
0.000709474
0.000673191
0.000636626
0.00060217
0.000574245
0.000551184
0.000531135
0.000512348
0.000487411
0.000445728
0.000389607
0.00033699
0.000295466
0.000260203
0.000229673
0.000204067
0.000181386
0.000159585
0.00014116
0.000128548
0.000120892
0.000114192
0.000105259
9.4823e-05
8.51289e-05
7.72886e-05
7.07415e-05
6.47932e-05
5.89874e-05
5.35821e-05
4.86346e-05
4.41534e-05
4.00471e-05
3.6221e-05
3.26924e-05
2.90109e-05
2.55879e-05
2.17238e-05
1.86611e-05
1.48767e-05
1.27287e-05
9.32142e-06
8.14695e-06
5.88059e-06
0.0144713
0.0204424
0.0229132
0.0184441
0.0111561
0.00755035
0.00744393
0.00770956
0.00832222
0.00866646
0.0090072
0.00936165
0.00930583
0.00879286
0.00765336
0.00635454
0.0067352
0.0119056
0.014151
0.0131354
0.00918212
0.00746036
0.00643845
0.00487453
0.00349225
0.00281313
0.0020708
0.00157224
0.00133541
0.00114763
0.00105504
0.000998625
0.000944105
0.000901374
0.000866714
0.000825741
0.000799081
0.000775257
0.000761371
0.000753713
0.000750029
0.000748014
0.000746462
0.00074617
0.000744403
0.000731019
0.000697848
0.000651941
0.00059874
0.000541675
0.000494255
0.000466838
0.000450271
0.000431238
0.000411944
0.00039852
0.000391458
0.000382346
0.000378621
0.000377209
0.00038861
0.000405169
0.000459675
0.000563711
0.000768742
0.00117715
0.00200917
0.0038425
0.00669909
0.00963558
0.0113427
0.0120359
0.0120367
0.0121806
0.0129734
0.0171844
0.0241562
0.0239655
0.0195844
0.0138624
0.0111795
0.011641
0.0231661
0.0410715
0.0441326
0.0422932
0.0451925
0.066159
0.0588807
0.0236818
0.00676468
0.00194848
0.000976054
0.000842579
0.000839236
0.00087808
0.000974404
0.00116921
0.00147217
0.0018673
0.0021717
0.00239642
0.00250444
0.0025523
0.00257096
0.00257264
0.00253165
0.00242949
0.00232518
0.00222499
0.00211366
0.00200977
0.00191815
0.00184011
0.0017807
0.00172946
0.00168647
0.00164505
0.00160326
0.0015628
0.00151985
0.0014553
0.00137852
0.00128389
0.00118363
0.00107893
0.000998734
0.000936615
0.000896834
0.000863548
0.000839523
0.000828528
0.000820624
0.000813028
0.000806746
0.000800388
0.000791542
0.000777984
0.000758119
0.000730778
0.000692714
0.000646368
0.000602621
0.000570318
0.000549945
0.000537628
0.000527387
0.000510118
0.000469548
0.000393344
0.000329111
0.000295178
0.000273946
0.000246468
0.000212771
0.000182669
0.000160342
0.000144624
0.000134735
0.000130092
0.000127747
0.000123695
0.000115212
0.000104305
9.29589e-05
8.2333e-05
7.28457e-05
6.45489e-05
5.7405e-05
5.13634e-05
4.6277e-05
4.18342e-05
3.78126e-05
3.38537e-05
3.01002e-05
2.60497e-05
2.25322e-05
1.82705e-05
1.55252e-05
1.11157e-05
0.0122394
0.0224402
0.0152292
0.00746529
0.00562921
0.00585674
0.00675952
0.00766189
0.00862853
0.00946897
0.00958735
0.00955704
0.00940716
0.00895185
0.00783407
0.00657179
0.00733413
0.0117146
0.0125724
0.00973388
0.00604572
0.00473321
0.00383631
0.00258
0.00185631
0.00148005
0.00107666
0.000904364
0.000819965
0.000776966
0.0007584
0.000750824
0.000748821
0.000752958
0.000757222
0.000766729
0.00078245
0.000798641
0.000829725
0.000861247
0.000898558
0.00093825
0.000983071
0.00101979
0.00103519
0.00103971
0.00102924
0.000966075
0.000865716
0.00077243
0.000683961
0.00061021
0.000552769
0.000508145
0.000473459
0.000439904
0.000421596
0.000387578
0.000369707
0.00034863
0.000330174
0.000301202
0.000283454
0.000273503
0.000273539
0.000328249
0.000489814
0.000920042
0.00201841
0.0049013
0.00912963
0.0119764
0.0134436
0.01333
0.0130449
0.0133919
0.0159156
0.0186534
0.017928
0.0143789
0.0112587
0.0102642
0.0194188
0.0407059
0.0472386
0.0489749
0.0532972
0.0547342
0.0237199
0.00768848
0.00224293
0.00099772
0.000808953
0.000820318
0.000886918
0.00106145
0.00139278
0.00194418
0.00234522
0.00261712
0.00275847
0.00282111
0.00283986
0.00283858
0.00278791
0.00269556
0.00260178
0.00249527
0.00236608
0.00223352
0.00210088
0.0019651
0.00182889
0.00169307
0.00158012
0.00150013
0.00146252
0.00144259
0.00142683
0.00141662
0.00140974
0.00139333
0.00135372
0.00127987
0.00117086
0.00102907
0.000889326
0.000767347
0.000672554
0.000599816
0.00054872
0.00052561
0.000523325
0.000532563
0.000558517
0.000594299
0.000636853
0.000679371
0.000714818
0.000738585
0.000749086
0.000750267
0.000739391
0.000691796
0.000628326
0.000581798
0.000557851
0.000549319
0.000540056
0.000523776
0.00049451
0.000426455
0.000351939
0.000305585
0.000277707
0.000251608
0.000222213
0.000193609
0.000171462
0.000157595
0.000150245
0.000146852
0.000144941
0.000142035
0.00013515
0.000120626
0.000105037
9.09214e-05
7.88412e-05
6.87543e-05
6.02526e-05
5.31538e-05
4.74861e-05
4.30498e-05
4.00572e-05
3.69368e-05
3.46242e-05
2.98427e-05
2.66613e-05
1.97709e-05
0.0081699
0.00771783
0.00498795
0.00440353
0.00496671
0.00670728
0.00904023
0.0102231
0.0114167
0.0119111
0.0116445
0.010607
0.0097858
0.00901563
0.00778119
0.00665045
0.00773113
0.0111644
0.0112262
0.00749116
0.00422854
0.00312823
0.00239078
0.00153483
0.00116505
0.000951711
0.000795703
0.000745678
0.000730168
0.000727015
0.000733719
0.000750323
0.000768522
0.000798436
0.000836026
0.000889372
0.000955189
0.00103659
0.00113798
0.00124918
0.00137808
0.00151321
0.00164492
0.00175548
0.00182396
0.00185424
0.00186262
0.00182603
0.00170593
0.00156834
0.00137977
0.00119977
0.00104193
0.000902939
0.000789878
0.000698089
0.000633322
0.00056935
0.000504758
0.000459652
0.000417004
0.000364199
0.000305952
0.000265356
0.000230816
0.000217534
0.000213127
0.000265241
0.000463302
0.00107231
0.00273865
0.00673463
0.010709
0.0126388
0.0130398
0.0131884
0.0138621
0.0150046
0.0150959
0.0143654
0.0121396
0.0097977
0.0145337
0.0340606
0.045112
0.0473118
0.045414
0.023278
0.00868055
0.00277322
0.0011011
0.000802946
0.000789126
0.000876903
0.00111113
0.00162969
0.00226439
0.00263932
0.0028437
0.00293153
0.00295804
0.00295818
0.00291513
0.00284666
0.00277345
0.00265726
0.00251474
0.00235642
0.00217851
0.00202378
0.00188152
0.00175643
0.00164047
0.0015439
0.00147055
0.001424
0.00139512
0.00137791
0.00136142
0.00135051
0.001344
0.00133224
0.00131176
0.00127368
0.00118961
0.00103233
0.000870742
0.000726437
0.000606591
0.000514938
0.000449403
0.000406281
0.000382302
0.000374815
0.000375106
0.000378157
0.000386982
0.000408043
0.000436868
0.00048064
0.000545002
0.000623971
0.000693897
0.000724727
0.000727045
0.000715079
0.000660792
0.000605983
0.000576854
0.000559532
0.000542754
0.000521217
0.000478751
0.000404216
0.000340704
0.000299344
0.000268304
0.000238944
0.000211147
0.000188143
0.000172013
0.000162502
0.00015783
0.0001557
0.000153873
0.000150342
0.00014164
0.000127144
0.000112413
9.87655e-05
8.70902e-05
7.64177e-05
6.77072e-05
5.95779e-05
5.44987e-05
5.02777e-05
4.84032e-05
4.49422e-05
4.25298e-05
3.64099e-05
0.00294178
0.00388576
0.0034689
0.00418967
0.00703893
0.00899908
0.0102545
0.0112529
0.0123877
0.0133452
0.0132363
0.012327
0.0102571
0.00900707
0.00766189
0.0066763
0.00778891
0.0104662
0.010221
0.00606838
0.00310005
0.00213499
0.00158592
0.00110077
0.000904913
0.000802951
0.000755183
0.000741869
0.000739865
0.000761581
0.000804737
0.000874328
0.000967045
0.00107745
0.00120847
0.00136894
0.00156412
0.0017834
0.00203315
0.00226544
0.00252879
0.00272572
0.00286597
0.00293911
0.00297115
0.00298114
0.00298149
0.00294138
0.00288645
0.00281011
0.00268709
0.00251207
0.00226021
0.00199106
0.00170384
0.00141701
0.00118387
0.0010129
0.000828303
0.000685388
0.000592925
0.000538913
0.000444694
0.000347422
0.000264142
0.000217201
0.00018854
0.000175692
0.000180166
0.000246833
0.000504104
0.0012907
0.00337256
0.00734324
0.0104941
0.0120918
0.0131796
0.0138298
0.0138894
0.0137783
0.0130132
0.0100375
0.010711
0.0217838
0.0319026
0.0331947
0.0216426
0.00903081
0.00339047
0.00132251
0.000825335
0.000762258
0.00083256
0.00108736
0.00172569
0.00238433
0.00273454
0.00289547
0.00295441
0.00296802
0.00295443
0.00289771
0.00279183
0.00263533
0.00244424
0.00227517
0.00213647
0.00203796
0.00197277
0.00188724
0.00180289
0.00172497
0.00163002
0.00155859
0.0014938
0.00144976
0.00141299
0.00138837
0.00136688
0.00135243
0.00134447
0.00133201
0.0013116
0.00127634
0.00120494
0.00104171
0.000860133
0.000698234
0.000569717
0.000475421
0.000409507
0.000367308
0.000343048
0.000334009
0.000333497
0.00033542
0.000343324
0.000357083
0.000365846
0.000373911
0.000389385
0.000428708
0.000525643
0.000623605
0.00068837
0.000708347
0.000706854
0.000697454
0.000662856
0.000612902
0.000577192
0.000552454
0.00053158
0.000502337
0.000438987
0.000368076
0.000314744
0.000276528
0.000244765
0.000216504
0.000193479
0.000177061
0.000166523
0.000160564
0.000157646
0.000155739
0.000152573
0.000144907
0.000132317
0.000118042
0.000105495
9.33007e-05
8.3858e-05
7.42018e-05
6.72576e-05
6.0604e-05
5.73956e-05
5.34916e-05
5.14825e-05
4.71325e-05
0.00251848
0.0036372
0.00322469
0.0058277
0.00852661
0.00962364
0.0107412
0.0123257
0.0139755
0.0148811
0.0146753
0.0136431
0.0110655
0.00905025
0.0074596
0.00666642
0.0076957
0.00985161
0.00944732
0.00514777
0.00239951
0.00157899
0.0011783
0.000941972
0.000842709
0.000796229
0.000776283
0.000784855
0.000843253
0.000958992
0.00114169
0.00139049
0.00169577
0.00200158
0.00226888
0.00254014
0.00277068
0.00298968
0.00317859
0.00334295
0.00344934
0.00349538
0.00350997
0.00350733
0.00346243
0.00342955
0.0033903
0.00334783
0.00331129
0.00327104
0.00323018
0.0031711
0.0030855
0.0029818
0.00282113
0.00258467
0.00225347
0.00187779
0.0014791
0.00107574
0.000836054
0.000720485
0.000623198
0.000490949
0.000365561
0.000270038
0.000207042
0.000172039
0.00015582
0.000147852
0.000163387
0.000254996
0.00060427
0.00175339
0.00530699
0.00929199
0.0115087
0.012672
0.0130926
0.0131004
0.0129409
0.0110245
0.00878976
0.0136167
0.0183517
0.0168595
0.00932899
0.00397453
0.00166297
0.000897482
0.00074816
0.000777782
0.000977886
0.00160775
0.00236859
0.00272526
0.00287232
0.00292041
0.00293476
0.00287761
0.00271442
0.0024723
0.00228813
0.00217022
0.00212182
0.0021039
0.00210269
0.00213777
0.00220156
0.00223211
0.00219742
0.00214197
0.00200657
0.00189736
0.0017677
0.00165661
0.00156472
0.00149434
0.00144352
0.00141074
0.00139332
0.00137944
0.00135831
0.00131934
0.0012431
0.00106752
0.000858959
0.000670495
0.000512533
0.000401659
0.000345006
0.000321799
0.000309688
0.000307871
0.000309511
0.000314964
0.000332914
0.000364788
0.000381902
0.000389552
0.000400653
0.000430757
0.000550647
0.000682153
0.000736602
0.000750287
0.000749887
0.000742186
0.000712386
0.000668897
0.000632226
0.000594229
0.000563006
0.000540084
0.000514453
0.000459937
0.000385028
0.000323763
0.000279708
0.00024575
0.00021688
0.00019335
0.000176432
0.000165326
0.000158867
0.000155609
0.000153045
0.000147643
0.000139063
0.000127054
0.000115416
0.000102883
9.30197e-05
8.32737e-05
7.60494e-05
6.80976e-05
6.29575e-05
5.76024e-05
5.49957e-05
5.14184e-05
0.00265427
0.00362685
0.00314426
0.00700793
0.00899144
0.00977491
0.0109575
0.0132318
0.0153275
0.0161647
0.0159631
0.014907
0.0119826
0.00901358
0.00727602
0.00662152
0.0074917
0.00932158
0.00887453
0.00457622
0.00198012
0.00129271
0.00101968
0.000898399
0.000848461
0.000828429
0.000856643
0.000964675
0.0012168
0.00166317
0.00210775
0.00251118
0.00282797
0.00306159
0.00327935
0.00345122
0.00357822
0.00369855
0.00375873
0.00380141
0.00381672
0.0038196
0.00379794
0.0037562
0.00372434
0.00367641
0.00363152
0.00357736
0.0035182
0.00347436
0.00343382
0.00339252
0.00332977
0.00326532
0.00318079
0.00306752
0.00288651
0.00261439
0.00228712
0.00180836
0.00119968
0.000869751
0.000715515
0.000589775
0.000446498
0.000325072
0.000245487
0.000190825
0.000157769
0.000142314
0.000134531
0.000135281
0.00016998
0.000362626
0.00123358
0.00488462
0.00933339
0.0115702
0.0125052
0.0126744
0.0126253
0.0119465
0.00820305
0.0091743
0.0110815
0.00882228
0.00457079
0.00209661
0.00105944
0.000768444
0.000733342
0.000837774
0.0012945
0.00221719
0.00266574
0.00282826
0.00287703
0.00287508
0.00276075
0.00250516
0.00231428
0.00223333
0.00220312
0.00220098
0.00230013
0.00252342
0.0029016
0.00340355
0.00378257
0.00393126
0.00386748
0.00365913
0.00331212
0.00300595
0.00266827
0.00233409
0.00204913
0.00182225
0.00166579
0.00157168
0.00152137
0.00149678
0.00147462
0.00143619
0.00135824
0.00117289
0.000912821
0.00068411
0.000504319
0.000370855
0.000283826
0.000248887
0.000248105
0.000252376
0.000260729
0.000276457
0.000315005
0.000423652
0.000504081
0.000531635
0.00055096
0.00059922
0.000829226
0.00126956
0.00134509
0.00131514
0.0011926
0.00100576
0.000867779
0.00076534
0.000692945
0.000643893
0.000603187
0.000567991
0.00054508
0.000522169
0.000471754
0.00039381
0.000327848
0.000279454
0.00024284
0.00021335
0.000189993
0.000171903
0.000159923
0.000153276
0.000150145
0.000145186
0.000139111
0.000129892
0.000120334
0.000108966
9.90571e-05
8.89697e-05
8.16107e-05
7.38921e-05
6.80074e-05
6.17383e-05
5.72772e-05
5.33737e-05
0.00266609
0.00362843
0.00321321
0.00757167
0.00910452
0.00964621
0.0109699
0.0137497
0.0161602
0.0166736
0.01638
0.0151681
0.0121129
0.00888553
0.00697537
0.00650234
0.00720045
0.00887917
0.00847976
0.00430795
0.00172941
0.00116204
0.000972167
0.00090337
0.000879829
0.000911299
0.00107183
0.0014888
0.0021349
0.00265174
0.00298585
0.00328163
0.00347376
0.00358653
0.00369986
0.0037585
0.00380621
0.00388347
0.0039686
0.00406943
0.00415559
0.00421169
0.00424602
0.00426235
0.00426727
0.00425839
0.00422626
0.00415666
0.0040303
0.00389225
0.00370527
0.00355853
0.00345775
0.00338645
0.00331658
0.00324575
0.00314117
0.00290365
0.00263624
0.00234247
0.00185589
0.0011347
0.000802391
0.000638201
0.00048341
0.00034646
0.000255989
0.000201449
0.000165468
0.00014267
0.000130707
0.000123757
0.000121669
0.000145794
0.000303726
0.00118218
0.00523931
0.0098294
0.0119253
0.0124679
0.0124502
0.01211
0.00921275
0.00663809
0.00713487
0.00531001
0.0027232
0.0013576
0.000832872
0.000707842
0.000736205
0.000993123
0.00178203
0.00250655
0.00278604
0.00287172
0.00283795
0.00268909
0.00248436
0.00234523
0.00229143
0.00227382
0.00237944
0.00270319
0.00343145
0.00459515
0.00612001
0.00745893
0.00811576
0.00830988
0.00760513
0.0066941
0.00575438
0.00500563
0.00436902
0.0037254
0.00314949
0.00261076
0.00216067
0.00189594
0.00175596
0.00168983
0.001657
0.00162158
0.00155441
0.00139304
0.0010746
0.000770489
0.000538434
0.000377974
0.00027644
0.000219718
0.000199395
0.000197374
0.000201426
0.000219513
0.000272417
0.00043573
0.000740457
0.000910712
0.00095758
0.00101484
0.00122983
0.00226172
0.0031446
0.00317373
0.00297689
0.0023314
0.00162392
0.00115737
0.000889812
0.00075057
0.000668994
0.000613649
0.000576286
0.00055537
0.000532148
0.000478161
0.000396394
0.000326579
0.000274964
0.000236355
0.000206635
0.000182679
0.00016437
0.000151065
0.000144607
0.000139923
0.000135553
0.000128737
0.000121696
0.000112448
0.000103523
9.35012e-05
8.54742e-05
7.78845e-05
7.18832e-05
6.59217e-05
6.07039e-05
5.57355e-05
0.00264737
0.00366707
0.00356868
0.00772843
0.00896165
0.00948554
0.0104073
0.0134404
0.016144
0.0166453
0.0163447
0.0150972
0.0120367
0.00856078
0.00657495
0.00627651
0.00687664
0.00850821
0.00829237
0.00445099
0.00170008
0.00110036
0.000961896
0.00092525
0.000941413
0.00110104
0.00154562
0.00225
0.00291989
0.00326078
0.00347403
0.00363931
0.00373884
0.00379703
0.00385347
0.00389208
0.00400165
0.00419834
0.00438168
0.00453968
0.00462391
0.00466495
0.00467624
0.00466281
0.00464731
0.00464001
0.00464198
0.00464239
0.00462837
0.00458937
0.00448867
0.00426702
0.00393154
0.00356065
0.00335485
0.00327864
0.00325124
0.00314251
0.00281809
0.00257195
0.00223556
0.00165045
0.00109482
0.000759117
0.00053869
0.000363607
0.000257668
0.000201594
0.000166911
0.000143329
0.00012875
0.00011938
0.000112386
0.000112565
0.000139231
0.000318471
0.0013767
0.00603507
0.0106077
0.012268
0.0124491
0.0122519
0.0105763
0.0067716
0.00489751
0.00346256
0.00190472
0.00104753
0.000737463
0.000680221
0.000764853
0.00121369
0.00216461
0.00273412
0.00291593
0.00293347
0.00280286
0.00258984
0.00243803
0.00236136
0.002374
0.00256484
0.00315927
0.00447032
0.00682757
0.0101577
0.0138867
0.0160469
0.0168337
0.0157791
0.0134452
0.0107065
0.00831642
0.00640794
0.005155
0.00442358
0.00392187
0.00350526
0.00303002
0.00246484
0.00212237
0.00196418
0.00189576
0.00185573
0.00179713
0.00167261
0.00134684
0.000943849
0.000629861
0.000417089
0.000286759
0.000215537
0.000182536
0.000174281
0.000175134
0.00018505
0.000226494
0.000372288
0.000786537
0.00120787
0.00147303
0.00160702
0.00180912
0.00241351
0.00483591
0.00666953
0.00676124
0.00630234
0.00459074
0.00278199
0.00169324
0.00112246
0.000848484
0.000709558
0.000631397
0.000599422
0.00058544
0.000560001
0.000492266
0.00039703
0.00032097
0.000265855
0.000226307
0.000195854
0.000172555
0.000153986
0.000141735
0.000133952
0.000129698
0.000124862
0.000120091
0.000113486
0.000106486
9.77446e-05
8.92324e-05
8.11153e-05
7.45396e-05
6.87818e-05
6.40998e-05
5.88977e-05
0.00265307
0.00375158
0.00387485
0.00736755
0.00873272
0.00926608
0.00983504
0.0121327
0.0154558
0.0162941
0.0161321
0.01485
0.0118425
0.00827854
0.0063785
0.00601045
0.00646227
0.0082149
0.00825905
0.00486012
0.00176773
0.00110269
0.000969947
0.00096262
0.00105449
0.00136192
0.00198119
0.00276276
0.00334421
0.0035978
0.00372665
0.00383959
0.00391168
0.00394519
0.0040046
0.00414556
0.00439955
0.00465138
0.00478931
0.00485694
0.00487323
0.00480924
0.00473874
0.00466594
0.00462518
0.00460882
0.00462793
0.00466092
0.00469512
0.00471919
0.00473046
0.00473446
0.00468733
0.00449972
0.00394246
0.00345421
0.00327722
0.00325024
0.00309369
0.00274112
0.00252079
0.00204748
0.00151885
0.00103275
0.000662332
0.000406773
0.000259719
0.000188552
0.000159704
0.00014124
0.000125994