/*--------------------------------*- C++ -*----------------------------------*\
  =========                 |
  \\      /  F ield         | OpenFOAM: The Open Source CFD Toolbox
   \\    /   O peration     | Website:  https://openfoam.org
    \\  /    A nd           | Version:  7
     \\/     M anipulation  |
\*---------------------------------------------------------------------------*/
FoamFile
{
    version     2.0;
    format      ascii;
    class       volScalarField;
    location    "0.102";
    object      nut;
}
// * * * * * * * * * * * * * * * * * * * * * * * * * * * * * * * * * * * * * //

dimensions      [0 2 -1 0 0 0 0];

internalField   nonuniform List<scalar> 
12225
(
0
0
0
0
0
0
0
0
0
0
0
0
0
0
0
6.40795e-11
0
0
0
0
0
0
0
0
0
0
0
0
0
0
0
0
0
1.60185e-10
0
0
0
4.76566e-10
1.97023e-10
0
0
0
0
0
0
0
0
0
0
0
0
2.46777e-10
0
0
0
1.84932e-08
9.02197e-09
9.87571e-10
0
3.20175e-11
0
0
0
0
0
0
0
0
0
1.71933e-10
0
0
2.04267e-07
2.93349e-07
7.90621e-08
0
0
0
0
0
0
0
0
1.4369e-09
2.19393e-09
2.18497e-09
1.56201e-09
4.83476e-11
0
0
2.06718e-07
2.89323e-07
8.14321e-09
0
0
0
0
0
1.32648e-09
7.46236e-09
1.45677e-08
2.06158e-08
2.46008e-08
2.28363e-08
1.52583e-08
3.86851e-09
0
0
0
1.31048e-07
0
0
0
0
0
1.64479e-08
3.47997e-08
5.75778e-08
7.21753e-08
6.90102e-08
5.53345e-08
3.72644e-08
1.90142e-08
9.88118e-10
0
0
0
0
0
0
0
2.32047e-09
4.45721e-08
7.25178e-08
7.00516e-08
6.82813e-08
7.874e-08
8.19841e-08
7.09342e-08
4.71541e-08
2.17199e-08
4.27246e-09
1.2974e-09
6.66071e-09
0
5.83294e-07
1.92723e-07
0
1.44416e-07
3.28444e-07
3.38693e-07
5.33142e-07
3.15359e-07
3.03253e-08
2.49152e-08
5.13384e-08
5.36824e-08
3.49266e-08
1.56267e-08
6.68603e-09
7.90748e-09
1.16334e-08
0
7.03739e-07
1.10759e-06
3.10288e-07
6.97191e-07
7.79748e-07
6.53885e-07
7.34889e-07
2.12497e-07
0
0
0
0
0
4.12955e-10
4.35769e-09
1.00662e-08
1.45793e-08
0
1.04811e-06
1.83697e-06
9.21369e-07
8.59826e-07
7.86592e-07
4.30076e-07
1.5948e-07
2.14813e-08
0
0
0
0
0
0
1.33171e-08
2.4397e-08
3.35215e-08
0
1.86626e-06
1.54235e-06
6.60401e-07
4.30223e-07
3.04453e-07
1.26013e-07
5.11044e-08
2.11766e-08
1.18443e-08
0
0
0
7.93429e-09
5.18755e-08
6.81446e-08
4.36814e-08
1.16788e-08
0
1.46485e-06
1.41618e-06
5.80287e-07
2.52937e-08
0
4.53865e-08
2.62107e-08
1.89364e-08
3.7955e-08
4.50702e-08
1.93309e-08
3.36592e-09
1.74846e-08
0
0
0
0
0
3.98009e-07
1.13289e-06
1.05494e-06
0
0
0
6.30403e-09
2.30174e-09
5.18044e-08
1.90293e-08
0
0
0
0
0
0
0
3.84095e-07
9.46117e-07
1.79044e-06
1.1767e-06
0
0
1.58405e-08
5.99608e-08
0
0
0
0
0
0
0
0
0
0
5.12719e-07
5.74246e-07
6.15469e-07
4.25996e-07
0
0
2.31909e-07
0
0
0
0
0
0
0
0
0
0
0
3.41851e-07
9.37045e-08
3.14574e-08
9.0093e-08
0
5.12078e-08
0
0
0
0
0
0
0
0
0
0
0
0
4.62317e-07
3.40024e-07
1.37784e-07
1.3225e-07
4.75026e-08
5.06101e-07
2.86407e-07
0
0
0
0
0
0
0
0
0
0
0
0
5.8689e-08
1.20898e-08
0
6.69628e-08
7.91548e-07
8.98457e-07
1.61657e-07
0
1.85704e-08
6.13161e-08
3.77275e-08
0
0
0
0
0
0
0
0
0
0
4.17627e-07
9.39777e-07
6.99871e-07
0
0
0
0
1.47076e-07
2.23796e-07
1.70266e-07
0
0
0
0
0
0
0
0
0
1.71493e-07
8.36425e-08
0
0
0
0
1.09874e-07
2.08196e-07
1.10959e-07
0
0
0
0
0
0
0
0
0
0
0
0
0
0
1.48503e-07
2.39457e-07
1.97359e-07
9.17559e-08
0
0
0
0
1.08925e-08
0
0
0
0
0
0
0
0
0
5.29839e-08
9.43373e-08
6.66631e-08
0
0
0
0
0
7.56028e-07
4.80671e-07
0
0
0
6.64029e-08
5.98442e-08
1.4515e-08
0
0
3.39458e-08
7.01413e-08
4.73451e-08
0
0
0
0
0
4.18871e-07
3.15396e-07
0
0
0
1.49381e-08
3.80135e-08
1.59403e-08
1.00515e-08
5.11014e-08
1.01403e-07
8.58507e-08
1.58014e-08
0
0
0
0
0
0
0
0
0
0
0
0
0
0
0
0
2.84561e-08
4.35272e-08
3.73349e-08
1.66448e-08
0
0
0
0
0
0
0
0
0
1.60233e-09
2.15572e-09
0
0
0
0
0
0
0
0
0
0
4.4308e-09
0
0
0
0
0
0
0
0
0
0
0
0
0
0
0
0
0
6.09013e-09
0
0
0
0
0
0
0
0
0
0
0
0
0
0
0
0
0
5.17582e-08
0
0
0
0
0
0
0
0
0
0
0
0
0
0
0
0
0
0
0
7.90199e-08
0
0
0
0
1.26189e-06
1.4521e-06
5.58202e-07
0
0
0
0
0
0
0
0
0
0
1.36088e-06
1.55539e-05
2.1758e-05
1.94349e-05
1.42592e-05
8.22011e-06
3.93378e-06
1.45942e-06
3.89851e-07
0
0
0
4.60697e-08
1.14054e-07
1.61252e-07
1.87969e-07
1.95024e-07
1.8487e-07
1.60997e-07
1.29113e-07
9.41107e-08
5.95016e-08
2.7171e-08
0
0
0
0
0
0
0
0
0
0
0
0
0
0
0
0
0
0
0
0
0
1.39378e-07
3.88945e-07
0
0
0
0
0
0
0
3.70933e-06
1.77868e-05
2.79654e-05
3.01111e-05
1.61571e-06
0
0
0
0
0
0
0
5.52689e-07
1.2514e-06
0
9.61105e-06
4.66063e-05
6.20001e-05
4.21209e-05
1.16517e-05
1.69099e-06
2.81224e-07
6.69671e-08
5.695e-08
6.9162e-08
7.31385e-08
6.81683e-08
5.81465e-08
4.86226e-08
3.7179e-08
2.81822e-08
1.92895e-08
1.11763e-08
3.08815e-09
0
0
0
0
0
0
0
0
0
0
0
0
0
0
0
0
0
0
0
0
0
0
0
0
0
0
0
0
0
0
0
0
0
0
0
0
0
0
0
0
0
0
0
0
0
0
0
0
0
0
0
0
0
0
0
0
0
0
0
0
0
0
4.5035e-11
8.80408e-11
1.45083e-10
1.11778e-10
1.88214e-10
1.21931e-10
2.88094e-10
3.29355e-10
5.27686e-10
2.82285e-09
2.97715e-10
0
0
0
0
0
0
1.84929e-06
2.42723e-06
2.01751e-06
9.46969e-07
0
0
0
0
0
0
0
0
0
1.19667e-07
1.47359e-06
2.19024e-06
2.07088e-06
1.32515e-06
9.26887e-07
1.1272e-06
1.29443e-06
9.5436e-07
4.49125e-07
5.86328e-08
0
0
0
2.92965e-09
5.02612e-08
8.37842e-08
1.02272e-07
1.06298e-07
9.76378e-08
8.04288e-08
5.89574e-08
3.69604e-08
1.70944e-08
0
0
0
0
0
0
0
0
0
0
0
0
0
0
0
0
0
0
0
0
2.28609e-07
7.43853e-07
1.00273e-06
4.88786e-07
0
0
0
0
0
0
0
4.45421e-06
6.39212e-06
6.05993e-06
1.06362e-06
0
1.32392e-07
0
0
0
0
0
1.9249e-06
2.79545e-06
9.59776e-08
6.79522e-06
1.07182e-05
1.05486e-05
7.26149e-06
3.40964e-06
1.24186e-06
4.3571e-07
1.87304e-07
1.3581e-07
1.22586e-07
1.12654e-07
1.01556e-07
9.10832e-08
8.0289e-08
6.88522e-08
5.71295e-08
4.37289e-08
2.82655e-08
1.10819e-08
0
0
0
0
0
0
0
0
0
0
0
0
0
0
0
0
0
0
0
0
0
0
0
0
2.93889e-09
7.53944e-09
6.58788e-09
4.55921e-09
2.60408e-09
9.42513e-10
0
0
0
0
0
0
0
0
0
0
0
0
0
0
0
0
0
0
0
0
0
0
0
0
0
0
0
0
0
0
0
0
1.04986e-10
2.73165e-10
4.8081e-10
4.03691e-10
5.86794e-10
4.36294e-10
6.62703e-10
7.33101e-10
6.21291e-10
2.24243e-09
0
4.33765e-08
1.6492e-06
0
0
0
9.95125e-07
2.70948e-06
2.67671e-06
1.92648e-06
1.04031e-06
0
0
0
0
0
0
0
0
0
0
4.92138e-08
5.9645e-07
1.08325e-06
1.01845e-06
6.26588e-07
5.8781e-07
6.35281e-07
3.77924e-07
6.71713e-08
0
0
0
0
0
0
0
0
0
2.08964e-09
1.72998e-08
2.23262e-08
2.00943e-08
1.38731e-08
5.78887e-09
0
0
0
0
0
0
0
0
0
0
0
0
0
0
0
0
0
7.76458e-08
2.12674e-07
3.66668e-07
5.09395e-07
5.68284e-07
4.05127e-07
0
0
0
0
0
2.32114e-07
0
0
0
0
0
0
2.98383e-06
4.14474e-06
2.21634e-07
0
0
0
7.20812e-06
0
0
0
9.8914e-07
1.07392e-06
1.10265e-06
9.94872e-07
7.83894e-07
6.59323e-07
6.81418e-07
7.10956e-07
6.77364e-07
6.09324e-07
5.36326e-07
4.70535e-07
4.09161e-07
3.49786e-07
2.86948e-07
2.19884e-07
1.47745e-07
7.31265e-08
0
0
0
0
0
0
0
0
0
0
0
0
0
0
0
0
0
0
0
0
0
0
0
0
0
0
0
0
1.80906e-08
3.1453e-08
3.38978e-08
3.0098e-08
2.32447e-08
1.52824e-08
7.10793e-09
0
0
0
0
0
0
0
0
0
0
0
0
0
0
0
0
0
0
0
0
0
0
0
0
0
0
0
0
1.44314e-10
7.39963e-10
7.95803e-10
1.22224e-09
1.13506e-09
1.21941e-09
1.8406e-09
1.21075e-10
3.86652e-09
0
6.96075e-06
5.00294e-06
1.53799e-06
2.40429e-07
1.37779e-07
2.05299e-06
3.41112e-06
2.39905e-06
1.6776e-06
1.22866e-06
7.55229e-07
0
0
0
0
0
0
0
0
0
0
0
0
0
0
0
0
0
0
0
0
0
0
0
0
0
0
0
0
0
0
0
3.03964e-08
6.32342e-08
4.89723e-08
4.14977e-08
9.09484e-08
1.73088e-07
2.44004e-07
2.87884e-07
3.10655e-07
3.23618e-07
3.29368e-07
3.25706e-07
3.14923e-07
3.01343e-07
2.87199e-07
2.70727e-07
2.54969e-07
2.38833e-07
2.24678e-07
2.07266e-07
1.88997e-07
1.62305e-07
1.25205e-07
8.38425e-08
3.79813e-08
0
0
0
0
1.9077e-07
8.52817e-07
1.16475e-06
3.88981e-07
0
0
0
0
3.01309e-07
1.49445e-06
4.2343e-06
1.43216e-06
0
0
0
0
0
0
4.25678e-08
1.32803e-07
2.16155e-07
4.30869e-07
6.43405e-07
8.3429e-07
8.49116e-07
6.98078e-07
5.37145e-07
4.22963e-07
3.50405e-07
2.93036e-07
2.45281e-07
1.96846e-07
1.44987e-07
8.61534e-08
1.84951e-08
0
0
0
0
0
0
0
0
0
0
0
0
0
0
0
0
0
0
0
0
0
0
0
0
0
0
0
0
0
0
0
0
0
0
0
0
0
0
0
0
5.51001e-09
2.08491e-08
3.6117e-08
3.94656e-08
2.72175e-08
8.40706e-09
0
0
0
0
0
0
0
0
0
3.14943e-09
5.25374e-09
5.13874e-09
3.21199e-09
8.36666e-10
0
0
0
0
0
0
5.75963e-11
4.33424e-10
1.4615e-09
7.32272e-11
3.50586e-09
0
7.64929e-09
0
7.48671e-06
4.50289e-06
1.98637e-06
1.00549e-06
1.32958e-06
3.50457e-06
2.08247e-06
1.42639e-06
1.19006e-06
1.04766e-06
7.91126e-07
1.37663e-08
0
0
0
0
0
0
0
0
0
0
0
0
0
0
0
0
0
0
0
0
0
0
0
0
0
0
2.10201e-07
5.14565e-07
8.77171e-07
1.27734e-06
1.63298e-06
1.61605e-06
5.39445e-07
0
0
0
0
0
0
2.39212e-08
1.24587e-07
1.99827e-07
2.56333e-07
2.93211e-07
3.15907e-07
3.16097e-07
3.10766e-07
2.96779e-07
2.7972e-07
2.54919e-07
2.30063e-07
2.00526e-07
1.60657e-07
1.02943e-07
0
0
0
0
0
3.01825e-07
8.51858e-07
9.87569e-07
6.47177e-07
0
0
0
0
0
0
0
0
0
0
0
6.33741e-07
0
0
0
0
2.4668e-08
2.78662e-07
3.00824e-07
1.49874e-07
3.53801e-08
0
0
0
1.29244e-08
3.13554e-08
3.80399e-08
2.99601e-08
4.80713e-09
0
0
0
0
0
0
0
0
0
0
0
0
0
0
0
0
0
0
0
0
0
0
0
0
0
0
0
0
0
0
0
0
0
0
0
0
0
0
0
0
0
0
3.85655e-08
6.72e-08
8.42676e-08
8.60859e-08
8.31484e-08
7.97148e-08
5.98103e-08
8.72047e-09
0
0
0
0
0
0
0
0
0
0
0
7.08305e-10
3.34922e-09
2.33029e-09
2.06081e-10
0
0
0
0
0
1.17363e-09
0
8.21433e-09
0
1.97144e-08
0
2.66198e-06
2.37178e-06
1.52904e-06
1.37487e-06
2.41888e-06
1.55203e-06
1.32501e-06
1.18735e-06
1.11977e-06
1.05417e-06
9.21406e-07
4.74425e-07
0
0
0
0
0
0
0
0
0
0
0
0
0
0
0
0
0
0
0
0
0
0
4.42166e-08
3.13033e-07
6.41033e-07
1.03277e-06
1.49914e-06
2.05258e-06
2.74042e-06
3.63417e-06
4.87016e-06
6.61323e-06
7.20947e-06
0
0
0
0
0
0
0
0
0
0
0
8.8081e-09
1.62023e-07
2.56693e-07
3.05036e-07
3.204e-07
3.10568e-07
2.8346e-07
2.54035e-07
2.22026e-07
1.96367e-07
1.63983e-07
1.03922e-07
0
0
0
4.21407e-08
6.43602e-07
8.2223e-07
5.81087e-07
1.89488e-07
0
1.88169e-07
8.82598e-07
0
0
0
0
0
0
1.3166e-06
2.48653e-06
4.84439e-07
0
0
0
5.16791e-08
2.47374e-08
0
0
0
0
0
3.10089e-08
7.1667e-08
1.03435e-07
1.23087e-07
1.22347e-07
9.13865e-08
2.029e-08
0
0
0
0
0
8.72002e-09
2.66803e-08
8.31767e-09
0
0
0
0
0
0
0
0
0
0
0
0
0
0
0
0
0
0
0
0
0
0
0
0
0
0
0
0
0
0
0
0
0
4.50316e-08
9.04825e-08
1.13373e-07
1.15434e-07
1.05357e-07
8.96409e-08
7.07064e-08
4.78734e-08
2.9245e-09
0
0
0
0
0
0
0
0
0
0
0
0
0
3.52899e-09
5.42618e-09
4.73156e-09
0
2.61106e-09
0
7.57185e-09
0
1.69368e-08
0
3.64088e-08
0
2.34847e-07
5.57019e-07
9.52112e-07
1.78702e-06
0
0
3.86642e-07
6.46788e-07
7.99241e-07
9.29702e-07
9.17629e-07
6.05628e-07
0
0
0
0
0
0
0
0
0
0
0
0
0
0
0
0
0
0
0
1.49865e-08
2.80718e-07
5.61046e-07
8.39779e-07
1.11789e-06
1.40588e-06
1.71217e-06
2.05382e-06
2.43212e-06
2.91736e-06
3.52259e-06
4.3364e-06
5.4307e-06
6.44553e-06
1.20897e-06
0
0
0
0
0
0
0
0
0
0
0
0
0
8.07093e-08
2.46162e-07
3.26042e-07
3.33099e-07
2.99164e-07
2.51204e-07
2.14673e-07
1.8558e-07
1.51784e-07
8.89006e-08
0
0
0
2.18478e-08
3.43417e-07
3.43634e-07
1.5633e-07
4.60281e-08
1.84287e-07
1.20519e-06
6.20729e-07
0
0
0
0
0
1.33582e-06
2.57796e-06
1.67934e-06
1.151e-06
1.33213e-06
7.93398e-07
1.14754e-07
0
0
0
0
0
5.80238e-08
1.12619e-07
1.61617e-07
2.02878e-07
2.25298e-07
2.12921e-07
1.48481e-07
1.45606e-08
0
0
0
0
5.83246e-07
4.55723e-07
2.88113e-07
1.59978e-07
6.70949e-08
0
0
0
0
0
0
0
0
0
0
0
0
0
0
0
0
0
0
0
0
0
0
0
0
0
0
0
0
0
0
0
0
0
8.04432e-08
1.3699e-07
1.45975e-07
1.31569e-07
1.07304e-07
7.96559e-08
4.94391e-08
1.1242e-08
0
0
0
0
0
0
0
8.07381e-09
0
0
0
0
0
0
1.8365e-09
1.17465e-08
0
0
0
1.59806e-08
7.34546e-09
3.40808e-08
0
3.40035e-08
0
0
7.6351e-08
3.97189e-07
9.2494e-07
0
0
2.91991e-07
4.95744e-07
5.73822e-07
6.40817e-07
6.48692e-07
4.41604e-07
0
0
0
0
0
0
0
0
0
0
0
0
0
0
0
0
0
1.56926e-08
3.11087e-07
5.84503e-07
8.03808e-07
9.76911e-07
1.13772e-06
1.32922e-06
1.54578e-06
1.77677e-06
1.99323e-06
2.18817e-06
2.37003e-06
2.58185e-06
2.88776e-06
3.30509e-06
3.55826e-06
2.27311e-06
0
0
0
0
0
0
0
0
0
0
0
0
0
0
0
1.81619e-07
3.22156e-07
3.35472e-07
2.87328e-07
2.28929e-07
1.828e-07
1.47759e-07
1.10672e-07
6.21941e-08
6.72067e-09
0
0
0
0
0
0
0
0
3.04381e-07
0
0
0
0
1.3016e-07
9.58034e-07
1.51676e-06
1.68641e-06
1.40393e-06
6.62754e-07
2.51428e-07
4.11487e-09
0
0
0
2.7266e-08
1.10926e-07
1.70232e-07
2.22037e-07
2.63257e-07
2.80339e-07
2.62722e-07
2.07509e-07
9.8198e-08
0
0
0
0
2.13702e-06
1.73069e-06
1.0695e-06
6.77026e-07
4.20267e-07
2.47235e-07
1.18431e-07
2.3494e-08
0
0
0
0
0
0
0
0
0
0
0
0
0
0
0
0
0
0
0
0
0
0
0
0
0
0
0
0
0
0
0
1.41623e-09
1.227e-07
1.66743e-07
1.68508e-07
1.45026e-07
1.08443e-07
6.49525e-08
1.47883e-08
0
0
0
0
0
0
0
2.49494e-08
3.41179e-08
5.32378e-09
0
0
0
0
0
1.52852e-08
1.99677e-08
8.80674e-09
0
1.18049e-08
1.08677e-08
3.01233e-08
1.03852e-08
3.16802e-08
0
0
0
1.46332e-07
2.55358e-07
0
1.39371e-09
1.95517e-07
2.87643e-07
2.86639e-07
3.17235e-07
3.74376e-07
2.91929e-07
0
0
0
0
0
0
0
0
0
0
0
0
0
0
0
0
2.05737e-07
5.684e-07
8.42989e-07
1.00968e-06
1.10912e-06
1.16628e-06
1.18087e-06
1.13224e-06
1.02921e-06
9.11309e-07
8.14008e-07
7.72952e-07
7.98027e-07
8.85653e-07
1.01767e-06
1.13743e-06
1.07675e-06
5.68336e-07
0
0
0
1.19671e-10
3.45994e-07
5.36628e-07
5.5801e-07
4.16128e-07
1.04042e-07
0
0
0
0
0
0
0
1.61857e-07
3.0865e-07
2.99682e-07
2.38109e-07
1.82688e-07
1.40946e-07
1.10351e-07
8.82038e-08
6.88813e-08
4.46316e-08
0
0
0
0
0
0
0
0
0
0
0
0
1.45193e-07
5.98103e-07
7.3783e-07
6.74923e-07
4.24277e-07
2.06758e-07
6.73281e-08
0
0
0
5.22398e-08
1.62067e-07
2.30419e-07
2.7713e-07
3.0396e-07
3.04737e-07
2.90278e-07
2.59961e-07
1.96132e-07
7.03342e-08
0
0
0
0
2.63467e-06
2.01218e-06
1.32928e-06
8.82192e-07
5.86811e-07
3.92913e-07
2.49733e-07
1.36933e-07
5.06445e-08
0
0
0
0
0
0
0
0
0
0
0
0
0
0
0
0
0
0
0
0
0
0
0
0
0
0
0
0
0
0
0
6.74137e-08
1.77805e-07
2.12974e-07
1.91004e-07
1.45326e-07
9.16347e-08
3.25569e-08
0
0
0
0
0
0
0
0
4.6154e-08
4.28385e-08
4.74067e-09
0
0
0
0
0
2.03632e-08
2.70518e-08
1.21172e-08
1.45508e-08
1.24918e-08
2.37618e-08
1.07879e-08
2.35289e-08
0
0
0
1.98418e-08
9.58221e-08
0
7.09023e-08
1.70047e-07
2.15976e-07
1.59392e-07
1.15116e-07
1.37283e-07
1.12494e-07
0
0
0
0
0
0
0
0
0
0
0
0
0
0
0
3.74472e-07
8.49285e-07
1.13399e-06
1.18975e-06
1.09605e-06
8.72679e-07
5.83771e-07
3.12269e-07
1.16631e-07
2.71649e-08
4.33086e-08
1.54068e-07
3.50607e-07
6.26825e-07
9.69156e-07
1.33779e-06
1.60372e-06
1.41284e-06
2.62339e-07
0
0
0
0
0
0
2.86071e-07
5.89956e-07
7.9247e-07
8.03663e-07
5.11637e-07
0
0
0
0
0
0
2.03324e-07
2.69876e-07
2.24079e-07
1.68964e-07
1.31026e-07
1.05387e-07
8.76071e-08
7.73831e-08
6.80409e-08
3.94148e-08
0
0
0
0
0
0
0
0
0
0
0
3.89802e-08
2.89343e-07
3.22231e-07
2.50337e-07
1.36132e-07
5.19073e-08
4.63675e-09
0
0
0
1.23956e-07
2.25186e-07
2.88715e-07
3.18105e-07
3.20301e-07
3.13313e-07
3.0173e-07
2.72377e-07
2.06082e-07
5.6493e-08
0
0
0
1.58494e-06
3.42577e-06
2.25311e-06
1.40168e-06
8.62751e-07
5.27501e-07
3.27264e-07
2.0944e-07
1.35819e-07
9.29027e-08
6.47264e-08
3.65505e-08
1.73706e-09
0
0
0
0
0
0
0
0
0
0
0
0
0
0
0
0
0
0
0
0
0
0
0
0
0
0
1.30803e-07
2.63355e-07
2.5339e-07
2.26184e-07
2.71885e-07
2.54771e-07
2.00993e-07
1.33972e-07
6.22395e-08
0
0
0
0
0
0
0
0
3.20366e-08
6.18752e-08
3.65951e-08
0
0
0
0
0
0
2.32999e-08
2.67441e-08
2.61256e-08
1.96689e-08
2.45299e-08
1.18632e-08
1.69866e-08
0
0
0
0
1.16279e-07
1.0105e-07
6.58101e-08
1.07054e-07
1.29283e-07
5.02698e-08
0
2.77901e-08
5.2374e-08
0
0
0
0
0
0
0
0
0
0
0
0
0
0
4.03064e-07
9.65083e-07
1.28756e-06
1.17269e-06
8.16508e-07
3.93565e-07
2.23822e-08
0
0
0
0
1.00835e-07
4.2007e-07
8.29705e-07
1.34373e-06
1.97727e-06
2.70613e-06
3.32706e-06
2.94042e-06
0
0
0
0
0
0
0
0
0
3.44591e-08
3.89902e-07
7.10415e-07
7.31781e-07
2.37899e-07
0
0
0
0
6.94043e-08
2.26694e-07
2.0068e-07
1.4855e-07
1.15214e-07
9.632e-08
8.40843e-08
7.59211e-08
6.59063e-08
4.61878e-08
0
0
0
0
0
0
0
0
0
0
0
1.15179e-09
1.26237e-07
1.20733e-07
6.6669e-08
1.12646e-08
0
0
0
0
0
1.06279e-07
2.15626e-07
2.75779e-07
3.01022e-07
3.09229e-07
3.0914e-07
3.01297e-07
2.74076e-07
1.90881e-07
0
0
0
0
5.47969e-06
4.4452e-06
2.82073e-06
1.72237e-06
9.81965e-07
5.05178e-07
2.10787e-07
4.55843e-08
0
0
1.44501e-08
6.71651e-08
8.25506e-08
4.69439e-08
0
0
0
0
0
0
0
0
0
0
0
0
0
0
0
0
0
0
0
0
0
0
0
0
9.72485e-08
5.30827e-07
8.74033e-07
9.59555e-07
7.86e-07
5.062e-07
3.89395e-07
2.98354e-07
1.98449e-07
1.04678e-07
1.87526e-08
0
0
0
0
0
0
3.35027e-09
2.75249e-08
5.42749e-08
5.62996e-08
3.61872e-09
0
0
0
0
0
5.97604e-09
2.67992e-08
3.70651e-08
3.14579e-08
3.06719e-08
1.62943e-08
1.57182e-08
0
0
0
0
1.49703e-08
1.04432e-07
1.36247e-08
5.34739e-08
1.08109e-07
2.33819e-08
0
0
0
2.88499e-08
0
0
0
0
0
0
0
0
0
0
0
0
2.03258e-07
7.55356e-07
1.19971e-06
1.10087e-06
6.50621e-07
1.96303e-07
0
0
0
0
0
2.67987e-07
6.43965e-07
1.10802e-06
1.70099e-06
2.49262e-06
3.56115e-06
5.054e-06
7.09545e-06
8.28319e-06
0
0
0
0
0
0
0
1.84091e-07
1.37047e-07
0
0
1.89002e-07
5.48805e-07
5.6227e-07
2.04615e-08
0
0
0
0
1.53012e-07
1.69948e-07
1.26187e-07
9.78335e-08
8.48474e-08
7.40179e-08
6.48067e-08
5.72674e-08
3.89627e-08
5.02029e-09
0
0
0
0
0
0
0
0
0
0
5.03387e-08
9.45816e-08
3.29809e-08
0
0
0
0
0
0
0
4.84293e-08
1.80143e-07
2.39743e-07
2.706e-07
2.90453e-07
2.97393e-07
2.92349e-07
2.54448e-07
9.44893e-08
0
0
0
0
6.31386e-06
5.48551e-06
3.76619e-06
2.40726e-06
1.40677e-06
7.30574e-07
3.15667e-07
6.03964e-08
0
0
0
0
6.19449e-08
1.12427e-07
7.04574e-08
0
0
0
0
0
0
0
0
0
0
0
0
0
0
0
0
0
0
0
0
0
0
0
2.69002e-07
9.54849e-07
1.5627e-06
2.03177e-06
2.12706e-06
1.63636e-06
9.26191e-07
5.31838e-07
3.23648e-07
1.76353e-07
6.69934e-08
0
0
0
0
5.72574e-09
3.91897e-08
4.0654e-08
4.64649e-08
5.38221e-08
5.43117e-08
1.90897e-08
0
0
0
0
0
0
2.33069e-08
4.10518e-08
4.26062e-08
4.10113e-08
2.45177e-08
1.82674e-08
0
0
0
0
0
1.43842e-07
0
0
6.96474e-08
5.79333e-08
0
0
0
7.59684e-08
2.87023e-07
8.10569e-07
1.96557e-06
4.77803e-07
3.57368e-07
1.4493e-07
0
0
0
0
0
0
2.53024e-07
7.76964e-07
1.01484e-06
6.75543e-07
2.46943e-07
0
0
0
0
9.40916e-09
2.18354e-07
4.88747e-07
8.30262e-07
1.27648e-06
1.88253e-06
2.70856e-06
3.78468e-06
5.0537e-06
6.06966e-06
4.28582e-06
0
0
0
0
0
0
0
0
2.99016e-07
2.91702e-07
2.57798e-08
0
2.29535e-07
4.98343e-07
3.0772e-07
0
0
0
0
0
1.12189e-07
9.80542e-08
7.61266e-08
6.78044e-08
6.24752e-08
5.31929e-08
4.53438e-08
3.32127e-08
9.00774e-09
0
0
0
0
0
0
0
0
0
0
8.16959e-08
1.35626e-07
1.32419e-08
0
0
0
0
0
0
0
0
1.49758e-07
2.22155e-07
2.55481e-07
2.76558e-07
2.82991e-07
2.68227e-07
1.78842e-07
0
0
0
0
0
5.65493e-06
5.63747e-06
4.18725e-06
2.75926e-06
1.60348e-06
8.2898e-07
4.20215e-07
1.90894e-07
1.07197e-08
0
0
0
0
9.43391e-08
1.58476e-07
8.47e-08
0
0
0
0
0
0
0
0
0
0
0
0
0
0
0
0
0
0
0
0
0
0
3.07396e-07
1.13647e-06
2.06098e-06
2.8015e-06
3.3896e-06
3.62175e-06
2.78492e-06
1.35215e-06
6.54753e-07
3.3521e-07
1.57249e-07
4.82971e-08
0
0
0
1.5055e-08
1.12702e-07
1.00477e-07
8.60413e-08
7.56078e-08
5.87013e-08
1.95678e-08
0
0
0
0
0
0
2.44084e-08
4.46787e-08
4.96973e-08
5.02173e-08
3.48007e-08
2.42976e-08
0
0
0
0
0
2.39237e-07
1.35378e-08
0
1.92344e-08
1.16203e-07
2.34909e-08
0
0
1.66807e-07
5.73852e-07
1.51822e-06
3.42567e-06
1.75737e-06
1.16964e-06
8.42909e-07
4.02931e-07
1.93989e-08
0
0
0
0
7.65562e-08
4.42977e-07
5.92476e-07
3.32898e-07
7.40318e-08
0
0
0
0
2.74959e-08
1.46751e-07
3.03438e-07
5.18273e-07
8.17726e-07
1.21844e-06
1.68218e-06
2.0336e-06
2.0241e-06
1.40132e-06
9.03255e-09
0
0
0
0
0
0
0
0
0
2.05055e-07
1.24947e-07
0
0
3.17986e-07
4.79809e-07
0
0
0
0
0
5.57579e-08
8.02649e-08
5.63378e-08
4.76749e-08
4.80091e-08
4.44226e-08
3.63419e-08
3.02348e-08
1.27824e-08
0
0
0
0
0
0
0
0
0
0
0
1.73701e-07
3.62435e-08
0
0
0
0
0
0
0
0
1.18805e-07
2.10573e-07
2.46674e-07
2.63956e-07
2.64879e-07
2.15948e-07
1.01768e-08
0
0
0
0
1.00399e-06
4.47115e-06
4.68617e-06
3.65467e-06
2.39516e-06
1.26582e-06
4.96493e-07
1.94022e-07
1.33901e-07
8.76856e-08
0
0
0
0
8.46097e-09
1.94913e-07
1.93592e-07
4.88566e-08
0
0
0
0
0
0
0
0
0
0
0
0
0
0
0
0
0
0
0
0
0
3.67545e-07
1.1689e-06
2.29108e-06
3.27164e-06
4.01492e-06
4.71734e-06
5.15402e-06
3.93185e-06
1.66288e-06
7.62978e-07
3.65258e-07
1.7592e-07
7.13973e-08
0
0
1.92991e-08
1.88897e-07
1.87003e-07
1.4467e-07
1.14436e-07
8.2893e-08
3.19879e-08
0
0
0
0
0
0
3.16527e-08
5.20292e-08
5.68652e-08
5.6807e-08
4.30796e-08
3.24858e-08
4.13669e-09
0
0
0
0
3.20587e-07
3.17006e-08
0
0
8.74629e-08
2.11834e-07
1.96488e-07
2.54369e-07
5.13735e-07
1.06665e-06
2.08695e-06
3.18025e-06
2.57799e-06
1.90705e-06
1.49145e-06
1.05566e-06
4.80755e-07
2.33329e-07
1.74857e-07
8.74834e-08
0
0
0
3.59795e-08
2.4668e-08
1.40952e-08
1.44697e-08
0
0
0
0
0
0
1.56726e-08
6.96903e-08
1.26807e-07
1.46088e-07
6.74689e-08
0
0
0
0
0
0
0
0
0
0
0
0
3.0388e-08
1.38702e-07
0
0
9.713e-09
4.50061e-07
2.85652e-07
0
0
0
0
3.93863e-08
8.65522e-08
5.57035e-08
3.79207e-08
3.67219e-08
3.78165e-08
3.14287e-08
2.48895e-08
1.61377e-08
0
0
0
0
0
0
0
0
0
0
0
1.1445e-08
5.57132e-08
0
0
0
0
0
0
0
0
8.81678e-08
1.94935e-07
2.35755e-07
2.46037e-07
2.21535e-07
1.06121e-07
0
0
0
0
0
9.77417e-07
2.98951e-06
3.19877e-06
2.68804e-06
1.91896e-06
1.0194e-06
2.73192e-07
0
0
2.81462e-08
3.70834e-08
0
0
0
0
2.00873e-07
2.79417e-07
1.6101e-07
0
0
0
0
0
0
0
0
0
0
0
0
0
0
0
0
0
0
0
0
1.34886e-07
4.81641e-07
1.13902e-06
2.43361e-06
3.65108e-06
4.50276e-06
5.13175e-06
5.85747e-06
6.19862e-06
4.29479e-06
1.90903e-06
8.69378e-07
4.31224e-07
2.33209e-07
1.24096e-07
5.85225e-08
7.28015e-08
2.46431e-07
3.04216e-07
2.26416e-07
1.6725e-07
1.19952e-07
6.23846e-08
0
0
0
0
0
1.3893e-08
4.72902e-08
6.55063e-08
6.73686e-08
6.40788e-08
4.90076e-08
3.98406e-08
9.48279e-09
0
0
0
0
3.17955e-07
3.07381e-08
0
0
0
1.11013e-07
3.37404e-07
5.72921e-07
9.66235e-07
1.62152e-06
2.44256e-06
2.82499e-06
2.73305e-06
2.31208e-06
1.931e-06
1.52957e-06
1.04325e-06
5.53144e-07
3.94169e-07
2.76033e-07
8.01161e-08
0
0
0
0
0
5.57112e-08
7.92423e-08
0
0
0
0
0
0
0
0
0
0
0
0
0
0
0
0
0
0
0
0
0
0
1.33839e-08
1.71371e-07
0
0
0
3.57584e-07
3.94446e-07
0
0
0
0
5.51513e-08
1.05981e-07
6.97172e-08
4.25797e-08
3.42606e-08
3.42085e-08
3.12389e-08
2.35706e-08
1.74526e-08
0
0
0
0
0
0
0
0
0
0
0
0
0
0
0
0
0
0
0
0
0
4.80619e-08
1.76866e-07
2.22362e-07
2.21036e-07
1.60752e-07
0
0
0
0
0
0
4.22287e-07
1.67722e-06
1.92316e-06
1.75351e-06
1.46666e-06
9.76563e-07
3.79044e-07
0
0
0
3.74767e-08
1.41689e-08
0
0
0
2.53101e-07
3.75598e-07
2.78437e-07
1.35314e-07
3.44794e-08
0
0
0
0
0
0
0
0
0
0
0
0
0
0
0
0
0
0
2.93158e-07
6.97071e-07
1.20818e-06
2.40869e-06
4.00037e-06
5.11498e-06
5.72918e-06
6.28688e-06
7.06025e-06
6.9331e-06
4.5463e-06
1.99478e-06
9.42717e-07
5.019e-07
2.99568e-07
1.99041e-07
1.8111e-07
3.11569e-07
4.4864e-07
3.46449e-07
2.4043e-07
1.67652e-07
1.00159e-07
1.18136e-08
0
0
0
0
4.38415e-08
7.75705e-08
9.03919e-08
8.58258e-08
7.62905e-08
5.61435e-08
4.59257e-08
1.30668e-08
0
0
0
0
2.68741e-07
4.61099e-08
0
0
0
0
7.20075e-08
4.53159e-07
9.51379e-07
1.61181e-06
2.23393e-06
2.22439e-06
2.18535e-06
2.08822e-06
1.8667e-06
1.5525e-06
1.22914e-06
8.47502e-07
5.73971e-07
4.19671e-07
2.40615e-07
0
0
0
0
0
5.23688e-09
1.68208e-07
1.22654e-07
0
0
0
0
0
0
0
0
0
0
0
0
0
0
9.47195e-08
4.72508e-07
5.36507e-07
4.46083e-07
3.56218e-07
2.33437e-07
8.80364e-08
1.02343e-07
1.95427e-07
4.891e-08
0
0
3.12572e-07
3.99711e-07
0
0
0
0
6.96998e-08
1.00804e-07
6.29959e-08
3.78091e-08
2.92001e-08
2.67801e-08
2.46493e-08
1.92039e-08
1.58173e-08
5.41431e-09
0
0
0
0
0
0
0
0
0
0
0
0
0
0
0
0
0
0
0
0
0
1.41537e-07
1.93533e-07
1.93674e-07
1.18083e-07
0
0
0
0
0
0
1.2069e-06
1.86978e-06
1.72359e-06
1.16916e-06
7.52781e-07
5.11589e-07
2.23874e-07
0
0
0
4.59502e-08
4.03481e-08
0
0
1.10383e-07
4.04208e-07
4.88519e-07
3.86325e-07
2.97522e-07
2.7168e-07
2.47634e-07
2.15022e-07
1.3158e-07
1.12925e-07
1.04407e-08
0
0
0
0
0
0
0
0
0
0
0
0
0
5.39913e-07
1.08829e-06
1.51474e-06
2.37617e-06
4.09742e-06
5.49041e-06
6.16724e-06
6.51448e-06
7.27037e-06
8.38624e-06
7.46028e-06
3.81225e-06
1.82103e-06
9.40046e-07
5.47652e-07
3.73761e-07
3.25693e-07
4.14939e-07
5.8861e-07
5.03155e-07
3.39099e-07
2.26402e-07
1.39172e-07
4.87926e-08
0
0
0
0
1.07511e-07
1.39504e-07
1.38668e-07
1.20023e-07
9.86521e-08
6.85245e-08
5.31573e-08
1.52262e-08
0
0
0
0
2.38256e-07
2.06961e-07
0
0
0
0
0
0
4.79149e-07
1.04523e-06
1.49872e-06
1.47656e-06
1.39268e-06
1.58152e-06
1.48695e-06
1.29849e-06
1.09487e-06
9.15505e-07
6.85691e-07
5.0253e-07
3.4979e-07
1.37446e-07
0
0
0
0
0
1.8557e-07
2.69565e-07
1.85143e-07
3.41508e-08
0
0
0
0
0
0
0
0
0
0
0
2.08942e-07
1.53064e-06
1.66694e-06
1.31509e-06
9.0573e-07
6.25702e-07
4.15428e-07
2.07978e-07
1.37387e-07
1.83798e-07
7.5851e-08
0
0
2.96207e-07
3.64509e-07
6.2728e-08
0
0
0
1.00848e-07
9.14516e-08
4.75232e-08
2.50087e-08
1.94194e-08
1.80702e-08
1.6642e-08
1.43667e-08
1.27926e-08
1.10617e-08
0
0
0
0
0
0
0
0
0
0
0
0
0
0
0
0
0
0
0
0
0
9.9813e-08
1.61146e-07
1.72218e-07
1.40931e-07
5.74853e-08
0
1.46802e-07
8.35155e-07
2.03505e-06
3.39249e-06
4.20525e-06
3.82629e-06
2.48786e-06
8.34023e-07
0
0
0
0
0
0
5.60738e-08
5.47912e-08
1.91989e-08
7.0391e-08
3.7254e-07
6.5066e-07
6.22311e-07
5.01608e-07
5.09301e-07
5.89144e-07
6.22025e-07
5.93407e-07
4.50226e-07
4.41315e-07
4.3636e-07
0
0
0
0
0
0
0
0
0
0
0
0
0
8.58123e-07
1.7303e-06
2.1606e-06
2.69276e-06
4.12013e-06
5.70825e-06
6.39016e-06
6.45803e-06
6.82274e-06
8.02559e-06
8.77458e-06
5.22737e-06
2.8888e-06
1.56382e-06
8.96974e-07
5.98099e-07
5.0281e-07
5.58154e-07
7.18042e-07
6.838e-07
4.67545e-07
3.03043e-07
1.85264e-07
8.18595e-08
0
0
0
0
2.29337e-07
2.88174e-07
2.46924e-07
1.9393e-07
1.44084e-07
9.13889e-08
6.29395e-08
1.64658e-08
0
0
0
0
1.1159e-08
3.13051e-07
9.1162e-08
0
0
0
0
0
0
3.75543e-07
6.65285e-07
7.21485e-07
6.52165e-07
7.75858e-07
8.9535e-07
8.78397e-07
7.96895e-07
7.35622e-07
6.45888e-07
5.0763e-07
3.732e-07
2.43763e-07
3.83301e-08
0
0
0
0
6.086e-08
2.67333e-07
2.96528e-07
2.11238e-07
8.09563e-08
0
0
0
0
0
0
0
0
0
0
2.61412e-06
2.85081e-06
1.99695e-06
1.29869e-06
8.12256e-07
5.36334e-07
3.57482e-07
1.74571e-07
9.75686e-08
1.40812e-07
8.38299e-08
0
6.95071e-08
3.00881e-07
3.41188e-07
1.9759e-07
0
0
1.39899e-07
1.58607e-07
1.04452e-07
5.38612e-08
3.076e-08
2.48934e-08
2.33434e-08
2.08341e-08
1.83203e-08
1.61559e-08
1.66557e-08
7.91888e-09
0
0
0
0
0
0
0
0
0
0
0
0
0
0
0
0
0
0
0
0
4.26089e-08
1.31341e-07
1.68697e-07
2.26964e-07
3.97515e-07
9.32382e-07
2.15341e-06
4.19209e-06
6.66058e-06
8.68487e-06
8.83616e-06
6.45612e-06
2.58683e-06
0
0
0
0
0
0
0
6.66984e-08
6.81506e-08
5.89842e-08
2.40643e-07
6.99611e-07
9.16856e-07
7.56824e-07
6.64515e-07
8.23355e-07
1.00247e-06
1.0608e-06
9.9692e-07
7.67389e-07
7.10197e-07
7.49784e-07
0
0
0
0
0
0
0
0
0
0
0
0
0
3.12875e-07
2.54936e-06
3.09825e-06
3.38693e-06
4.23255e-06
5.85497e-06
6.52222e-06
6.23285e-06
6.04118e-06
6.70494e-06
7.35776e-06
3.39507e-06
3.59607e-06
2.27988e-06
1.33404e-06
8.73329e-07
7.07852e-07
7.2269e-07
8.38524e-07
8.38938e-07
6.098e-07
3.95589e-07
2.4187e-07
1.18695e-07
1.35682e-08
0
0
7.90765e-08
3.02275e-07
5.0807e-07
4.68618e-07
3.53939e-07
2.47294e-07
1.41328e-07
7.60415e-08
1.55736e-08
0
0
0
0
0
1.22606e-07
4.10333e-07
0
0
0
0
0
0
3.81607e-08
2.07381e-07
2.69759e-07
2.46957e-07
2.31997e-07
3.41921e-07
4.53108e-07
4.92671e-07
4.96054e-07
4.72669e-07
3.99514e-07
3.20511e-07
2.38256e-07
1.34758e-07
0
0
0
0
0
1.31278e-07
2.46341e-07
2.47873e-07
1.77935e-07
7.75069e-08
0
0
0
0
0
0
0
0
0
1.96901e-06
1.63492e-06
1.06394e-06
6.56584e-07
3.91e-07
2.68145e-07
1.90648e-07
7.81252e-08
3.87011e-08
9.33258e-08
7.20501e-08
2.19221e-09
1.17567e-07
2.81011e-07
3.44871e-07
4.35479e-07
6.2145e-07
5.89065e-07
3.23328e-07
2.03315e-07
1.23268e-07
7.14791e-08
4.83055e-08
4.1579e-08
3.92141e-08
3.59256e-08
3.1578e-08
2.73467e-08
2.43753e-08
2.09798e-08
4.85062e-09
0
0
0
0
0
0
0
0
0
0
0
0
0
0
0
0
0
0
0
0
1.02078e-07
1.83577e-07
3.38638e-07
7.73597e-07
1.93578e-06
4.22438e-06
7.68234e-06
1.19752e-05
1.58943e-05
1.64495e-05
1.03887e-05
3.59312e-07
0
0
0
0
0
0
0
7.1581e-08
7.76783e-08
1.13194e-07
4.72126e-07
1.03615e-06
1.13598e-06
8.95274e-07
9.40567e-07
1.2561e-06
1.457e-06
1.48677e-06
1.3497e-06
1.00715e-06
8.20984e-07
6.0654e-07
0
0
0
0
0
0
0
0
0
0
0
0
0
0
2.66564e-06
4.26555e-06
4.30246e-06
4.65028e-06
5.86752e-06
6.60077e-06
6.04951e-06
5.31935e-06
5.4598e-06
5.45152e-06
0
3.14795e-06
2.92431e-06
1.82263e-06
1.19152e-06
9.34433e-07
8.92591e-07
9.47491e-07
9.35389e-07
7.28423e-07
4.90233e-07
3.07713e-07
1.64665e-07
5.23948e-08
0
2.83823e-08
1.67957e-07
3.58154e-07
5.19046e-07
5.94487e-07
5.53843e-07
4.13025e-07
2.28148e-07
8.07737e-08
1.25687e-08
0
0
0
0
0
0
3.24085e-07
4.96158e-07
0
0
0
0
0
0
5.1304e-08
1.03335e-07
1.02491e-07
7.66967e-08
1.103e-07
2.03167e-07
2.68472e-07
2.74199e-07
2.49592e-07
2.17619e-07
1.95426e-07
1.60024e-07
1.07483e-07
3.20338e-08
0
0
0
0
0
1.21866e-07
1.75876e-07
1.67845e-07
1.24056e-07
6.71312e-08
1.15226e-08
0
0
0
0
0
7.26669e-08
2.75137e-07
3.49764e-07
2.62793e-07
1.5514e-07
7.2102e-08
3.03461e-08
4.37676e-08
3.58979e-08
0
0
2.59602e-08
3.41344e-08
8.60267e-09
1.1152e-07
2.47847e-07
4.09645e-07
7.37157e-07
9.94583e-07
7.84981e-07
3.79477e-07
2.24548e-07
1.41164e-07
9.18114e-08
6.80968e-08
5.90449e-08
5.43054e-08
4.99415e-08
4.52531e-08
4.10169e-08
3.57841e-08
3.22312e-08
2.25975e-08
5.69246e-09
0
0
0
0
0
0
0
0
0
0
0
0
0
0
0
0
0
0
0
6.72674e-08
2.19705e-07
4.61243e-07
1.07194e-06
2.63146e-06
5.77632e-06
1.03896e-05
1.69938e-05
2.446e-05
2.96543e-05
1.809e-05
0
0
0
0
0
0
0
0
6.78602e-08
8.17878e-08
2.08023e-07
7.72196e-07
1.32512e-06
1.2878e-06
1.09803e-06
1.38545e-06
1.73652e-06
1.84282e-06
1.8127e-06
1.60014e-06
1.08764e-06
7.96616e-07
3.04115e-07
0
0
0
0
0
0
0
0
0
0
4.60206e-07
5.32763e-07
0
0
0
5.19402e-06
5.33088e-06
5.24817e-06
5.83579e-06
6.56728e-06
5.90266e-06
4.8366e-06
4.59154e-06
4.14056e-06
0
9.63419e-07
3.31399e-06
2.32117e-06
1.52726e-06
1.161e-06
1.04742e-06
1.03309e-06
9.77539e-07
7.89729e-07
5.61251e-07
3.71588e-07
2.19406e-07
1.01426e-07
4.52105e-08
8.97047e-08
2.24828e-07
3.84523e-07
4.93095e-07
5.62232e-07
5.79581e-07
4.78361e-07
2.11827e-07
0
4.4656e-08
0
0
0
0
0
0
1.81039e-07
4.51498e-07
5.24312e-07
1.38638e-07
0
0
0
0
0
4.21216e-08
4.82978e-08
2.47584e-08
2.62221e-08
6.65982e-08
9.37825e-08
7.04997e-08
2.62337e-08
6.14235e-09
1.54057e-08
2.15971e-08
9.63736e-09
0
0
0
0
0
0
3.9866e-08
8.77005e-08
1.03184e-07
9.69478e-08
8.51154e-08
8.21726e-08
9.89554e-08
1.40122e-07
2.11278e-07
3.0308e-07
3.90161e-07
3.90381e-07
2.12686e-07
0
0
0
0
0
0
0
0
0
0
0
0
4.80884e-08
2.17633e-07
5.2714e-07
8.68194e-07
9.65608e-07
6.53141e-07
3.49176e-07
2.22589e-07
1.50871e-07
1.07806e-07
8.55257e-08
7.52065e-08
6.75763e-08
6.06497e-08
5.58554e-08
5.30247e-08
4.87491e-08
4.39072e-08
3.70397e-08