/*--------------------------------*- C++ -*----------------------------------*\
  =========                 |
  \\      /  F ield         | OpenFOAM: The Open Source CFD Toolbox
   \\    /   O peration     | Website:  https://openfoam.org
    \\  /    A nd           | Version:  7
     \\/     M anipulation  |
\*---------------------------------------------------------------------------*/
FoamFile
{
    version     2.0;
    format      ascii;
    class       volScalarField;
    location    "0.102";
    object      p;
}
// * * * * * * * * * * * * * * * * * * * * * * * * * * * * * * * * * * * * * //

dimensions      [0 2 -2 0 0 0 0];

internalField   nonuniform List<scalar> 
12225
(
-216.827
-220.07
-222.798
-224.41
-225.054
-225.02
-224.563
-223.841
-222.934
-221.893
-220.75
-219.522
-218.219
-216.848
-215.416
-213.909
-212.291
-210.419
-216.27
-220.114
-222.869
-224.459
-225.095
-225.055
-224.591
-223.863
-222.951
-221.907
-220.764
-219.535
-218.231
-216.861
-215.432
-213.935
-212.339
-210.562
-215.629
-220.258
-223.043
-224.576
-225.184
-225.128
-224.65
-223.909
-222.987
-221.935
-220.784
-219.552
-218.25
-216.889
-215.475
-214.003
-212.455
-210.816
-214.888
-220.484
-223.296
-224.758
-225.32
-225.236
-224.737
-223.978
-223.04
-221.975
-220.818
-219.587
-218.292
-216.944
-215.55
-214.112
-212.628
-211.119
-214.615
-220.918
-223.689
-225.038
-225.522
-225.392
-224.861
-224.076
-223.119
-222.041
-220.876
-219.644
-218.355
-217.021
-215.652
-214.255
-212.84
-211.439
-215.658
-221.62
-224.216
-225.42
-225.8
-225.604
-225.029
-224.21
-223.227
-222.131
-220.956
-219.722
-218.44
-217.122
-215.78
-214.427
-213.077
-211.765
-217.618
-222.678
-224.925
-225.925
-226.162
-225.876
-225.242
-224.38
-223.366
-222.249
-221.063
-219.826
-218.551
-217.25
-215.937
-214.627
-213.337
-212.098
-221.21
-224.072
-225.817
-226.564
-226.625
-226.223
-225.511
-224.596
-223.543
-222.401
-221.201
-219.96
-218.691
-217.407
-216.123
-214.852
-213.614
-212.434
-224
-225.692
-226.909
-227.343
-227.193
-226.65
-225.844
-224.862
-223.762
-222.588
-221.369
-220.122
-218.859
-217.592
-216.335
-215.102
-213.91
-212.779
-226.175
-227.493
-228.195
-228.284
-227.882
-227.163
-226.237
-225.175
-224.022
-222.814
-221.575
-220.32
-219.06
-217.807
-216.574
-215.373
-214.219
-213.127
-229.069
-229.529
-229.686
-229.369
-228.682
-227.77
-226.712
-225.555
-224.336
-223.084
-221.817
-220.549
-219.29
-218.05
-216.838
-215.666
-214.544
-213.485
-231.059
-231.565
-231.266
-230.527
-229.536
-228.41
-227.203
-225.947
-224.663
-223.368
-222.075
-220.793
-219.533
-218.3
-217.103
-215.95
-214.851
-213.811
-233.013
-233.822
-232.986
-231.778
-230.462
-229.114
-227.752
-226.386
-225.027
-223.682
-222.357
-221.059
-219.794
-218.567
-217.382
-216.247
-215.167
-214.148
-238.242
-237.063
-235.211
-233.371
-231.632
-229.994
-228.432
-226.931
-225.482
-224.079
-222.717
-221.397
-220.124
-218.897
-217.722
-216.6
-215.536
-214.533
-246.036
-241.131
-237.909
-235.281
-233.037
-231.062
-229.27
-227.609
-226.049
-224.57
-223.159
-221.812
-220.526
-219.298
-218.13
-217.019
-215.969
-214.978
-250.467
-245.393
-240.949
-237.444
-234.632
-232.282
-230.235
-228.401
-226.723
-225.162
-223.697
-222.316
-221.01
-219.774
-218.605
-217.501
-216.459
-215.478
-260.255
-250.163
-243.943
-239.572
-236.251
-233.561
-231.273
-229.266
-227.467
-225.823
-224.303
-222.887
-221.561
-220.317
-219.147
-218.045
-217.009
-216.034
-262.214
-251.793
-245.446
-240.93
-237.447
-234.609
-232.196
-230.089
-228.21
-226.508
-224.947
-223.504
-222.161
-220.908
-219.735
-218.633
-217.599
-216.626
-249.209
-248.028
-244.569
-241.057
-237.911
-235.176
-232.792
-230.685
-228.795
-227.081
-225.514
-224.069
-222.728
-221.48
-220.313
-219.22
-218.194
-217.229
-255.493
-248.478
-243.863
-240.388
-237.489
-234.986
-232.778
-230.796
-228.993
-227.342
-225.82
-224.408
-223.092
-221.86
-220.707
-219.624
-218.607
-217.649
-253.185
-246.473
-242.378
-239.366
-236.839
-234.593
-232.566
-230.713
-229.002
-227.417
-225.943
-224.569
-223.282
-222.075
-220.941
-219.874
-218.869
-217.921
-244.735
-242.665
-240.244
-238.04
-235.957
-234.002
-232.183
-230.479
-228.876
-227.372
-225.96
-224.63
-223.376
-222.192
-221.075
-220.022
-219.027
-218.088
-238.583
-239.584
-238.425
-236.874
-235.206
-233.526
-231.889
-230.308
-228.791
-227.347
-225.976
-224.677
-223.447
-222.281
-221.18
-220.138
-219.152
-218.22
-238.576
-238.036
-237.128
-235.932
-234.545
-233.054
-231.55
-230.073
-228.645
-227.263
-225.94
-224.672
-223.464
-222.316
-221.226
-220.195
-219.216
-218.289
-238.159
-236.79
-236.123
-235.229
-234.075
-232.747
-231.357
-229.956
-228.581
-227.236
-225.933
-224.684
-223.491
-222.354
-221.275
-220.248
-219.274
-218.35
-236.338
-235.691
-235.363
-234.702
-233.685
-232.457
-231.146
-229.803
-228.483
-227.178
-225.902
-224.671
-223.491
-222.365
-221.291
-220.27
-219.301
-218.381
-234.338
-234.617
-234.805
-234.361
-233.448
-232.306
-231.06
-229.771
-228.453
-227.159
-225.895
-224.672
-223.5
-222.379
-221.311
-220.294
-219.327
-218.408
-231.638
-233.622
-234.388
-234.104
-233.259
-232.173
-230.961
-229.7
-228.41
-227.13
-225.877
-224.663
-223.497
-222.382
-221.317
-220.302
-219.337
-218.421
-228.897
-233.04
-234.182
-233.969
-233.173
-232.121
-230.929
-229.676
-228.396
-227.124
-225.876
-224.665
-223.501
-222.387
-221.324
-220.311
-219.346
-218.43
-227.219
-232.701
-234.084
-233.891
-233.128
-232.095
-230.909
-229.656
-228.381
-227.112
-225.867
-224.659
-223.498
-222.387
-221.325
-220.313
-219.35
-218.434
-194.667
-194.689
-194.706
-194.665
-194.568
-194.44
-194.315
-194.212
-194.13
-194.061
-193.998
-193.938
-193.876
-193.809
-193.746
-193.687
-193.634
-193.594
-193.57
-193.566
-193.576
-193.595
-193.592
-193.529
-193.404
-193.22
-193.001
-192.846
-192.798
-192.858
-192.999
-193.193
-193.421
-193.666
-193.916
-194.16
-194.39
-194.597
-194.771
-194.904
-194.982
-194.995
-194.93
-194.778
-194.531
-194.183
-193.727
-193.163
-192.493
-191.722
-190.854
-189.896
-188.854
-187.736
-186.55
-185.306
-184.013
-182.684
-181.33
-179.968
-178.612
-177.277
-175.978
-174.733
-173.561
-172.489
-171.546
-170.717
-170.138
-169.783
-169.19
-168.325
-167.597
-167.001
-166.362
-165.766
-165.201
-164.547
-163.684
-162.562
-161.443
-160.789
-160.634
-160.69
-160.4
-159.512
-158.581
-158.058
-157.359
-156.545
-155.992
-155.437
-154.779
-154.446
-154.616
-155.1
-155.732
-156.394
-157.018
-157.565
-158.013
-158.351
-158.565
-158.641
-158.563
-158.313
-157.872
-157.225
-156.361
-155.274
-153.968
-152.456
-150.758
-148.899
-146.908
-144.817
-142.66
-140.47
-138.281
-136.124
-134.026
-132.01
-130.09
-128.276
-126.573
-124.982
-123.497
-122.112
-120.82
-119.608
-118.47
-117.398
-116.388
-115.435
-114.533
-113.679
-112.867
-112.092
-111.347
-110.625
-109.918
-109.219
-108.517
-107.808
-107.083
-106.336
-105.56
-104.753
-103.913
-103.04
-102.137
-101.203
-100.242
-99.2522
-98.2312
-97.1686
-96.0532
-94.8796
-93.653
-92.3847
-91.0869
-89.7704
-88.4426
-87.1082
-85.77
-84.4292
-83.086
-81.74
-80.3913
-79.039
-77.6832
-76.3236
-74.9604
-73.5933
-72.2229
-70.8495
-69.4743
-68.1004
-66.7264
-65.3898
-194.887
-194.92
-194.965
-194.917
-194.778
-194.589
-194.413
-194.271
-194.166
-194.084
-194.018
-193.948
-193.87
-193.8
-193.738
-193.679
-193.626
-193.59
-193.576
-193.577
-193.589
-193.589
-193.57
-193.553
-193.536
-193.443
-193.273
-193.136
-193.087
-193.135
-193.262
-193.448
-193.675
-193.927
-194.19
-194.452
-194.7
-194.923
-195.11
-195.249
-195.327
-195.333
-195.257
-195.09
-194.822
-194.45
-193.978
-193.402
-192.724
-191.946
-191.072
-190.108
-189.061
-187.939
-186.751
-185.506
-184.213
-182.883
-181.532
-180.172
-178.817
-177.484
-176.188
-174.945
-173.775
-172.704
-171.761
-170.978
-170.443
-170.168
-169.58
-168.628
-167.789
-167.09
-166.43
-165.832
-165.325
-164.816
-164.11
-163.125
-162.065
-161.434
-161.303
-161.455
-161.31
-160.303
-159.118
-158.213
-157.382
-156.497
-155.82
-155.39
-154.999
-154.895
-155.155
-155.647
-156.238
-156.839
-157.397
-157.884
-158.286
-158.588
-158.779
-158.842
-158.757
-158.503
-158.058
-157.404
-156.532
-155.437
-154.124
-152.606
-150.902
-149.036
-147.04
-144.943
-142.781
-140.585
-138.388
-136.222
-134.114
-132.086
-130.155
-128.33
-126.618
-125.018
-123.529
-122.141
-120.844
-119.629
-118.487
-117.412
-116.398
-115.441
-114.537
-113.68
-112.867
-112.091
-111.346
-110.625
-109.92
-109.222
-108.524
-107.819
-107.098
-106.353
-105.579
-104.775
-103.937
-103.066
-102.163
-101.23
-100.267
-99.2747
-98.2497
-97.1827
-96.0626
-94.8847
-93.655
-92.385
-91.0865
-89.7694
-88.4412
-87.1066
-85.7682
-84.4273
-83.084
-81.7379
-80.3895
-79.0376
-77.682
-76.3225
-74.9593
-73.5923
-72.222
-70.8487
-69.4732
-68.099
-66.7238
-65.3768
-195.144
-195.17
-195.217
-195.162
-195.007
-194.814
-194.636
-194.488
-194.371
-194.269
-194.167
-194.055
-193.932
-193.809
-193.704
-193.626
-193.558
-193.503
-193.468
-193.454
-193.462
-193.478
-193.482
-193.484
-193.49
-193.495
-193.498
-193.511
-193.559
-193.656
-193.803
-193.996
-194.224
-194.476
-194.74
-195.004
-195.254
-195.479
-195.666
-195.803
-195.878
-195.879
-195.797
-195.621
-195.347
-194.971
-194.482
-193.886
-193.187
-192.39
-191.499
-190.522
-189.464
-188.334
-187.14
-185.89
-184.594
-183.264
-181.913
-180.555
-179.206
-177.881
-176.596
-175.367
-174.208
-173.137
-172.177
-171.366
-170.743
-170.296
-169.637
-168.69
-167.764
-167.012
-166.352
-165.754
-165.251
-164.791
-164.229
-163.458
-162.59
-162.039
-161.926
-162.017
-161.77
-160.838
-159.491
-158.255
-157.209
-156.435
-156.016
-155.794
-155.741
-155.876
-156.168
-156.565
-157.013
-157.471
-157.908
-158.303
-158.64
-158.901
-159.07
-159.124
-159.039
-158.79
-158.352
-157.703
-156.832
-155.736
-154.417
-152.891
-151.178
-149.304
-147.299
-145.195
-143.025
-140.819
-138.61
-136.429
-134.302
-132.253
-130.301
-128.456
-126.725
-125.11
-123.61
-122.212
-120.906
-119.683
-118.533
-117.45
-116.428
-115.464
-114.553
-113.691
-112.874
-112.095
-111.349
-110.629
-109.927
-109.234
-108.54
-107.84
-107.123
-106.383
-105.614
-104.812
-103.977
-103.108
-102.208
-101.276
-100.309
-99.3091
-98.2713
-97.1898
-96.0586
-94.8759
-93.6458
-92.3773
-91.0806
-89.7651
-88.438
-87.1038
-85.7657
-84.425
-83.0819
-81.7366
-80.3878
-79.0359
-77.6804
-76.3212
-74.9583
-73.5919
-72.2219
-70.8493
-69.4738
-68.1
-66.7238
-65.3662
-195.211
-195.208
-195.255
-195.255
-195.206
-195.128
-195.046
-194.963
-194.869
-194.752
-194.607
-194.427
-194.217
-193.996
-193.808
-193.667
-193.564
-193.481
-193.425
-193.403
-193.418
-193.464
-193.526
-193.594
-193.666
-193.742
-193.83
-193.935
-194.065
-194.226
-194.419
-194.643
-194.893
-195.163
-195.442
-195.719
-195.983
-196.221
-196.419
-196.564
-196.644
-196.647
-196.56
-196.373
-196.08
-195.68
-195.174
-194.56
-193.842
-193.024
-192.112
-191.113
-190.036
-188.889
-187.68
-186.417
-185.11
-183.769
-182.408
-181.04
-179.683
-178.353
-177.068
-175.842
-174.685
-173.607
-172.619
-171.736
-170.972
-170.292
-169.5
-168.529
-167.56
-166.771
-166.132
-165.556
-165.028
-164.553
-164.058
-163.458
-162.75
-162.286
-162.195
-162.235
-161.921
-161.084
-159.773
-158.553
-157.592
-156.938
-156.649
-156.593
-156.669
-156.844
-157.097
-157.407
-157.75
-158.105
-158.452
-158.777
-159.062
-159.293
-159.447
-159.501
-159.425
-159.189
-158.763
-158.125
-157.259
-156.159
-154.831
-153.293
-151.566
-149.681
-147.667
-145.556
-143.378
-141.163
-138.941
-136.74
-134.588
-132.51
-130.527
-128.653
-126.895
-125.258
-123.74
-122.328
-121.01
-119.775
-118.614
-117.519
-116.485
-115.509
-114.588
-113.718
-112.894
-112.112
-111.366
-110.647
-109.948
-109.258
-108.567
-107.876
-107.165
-106.428
-105.663
-104.866
-104.036
-103.169
-102.267
-101.33
-100.359
-99.3516
-98.3035
-97.2107
-96.0701
-94.8805
-93.646
-92.3751
-91.0772
-89.7612
-88.4336
-87.0994
-85.761
-84.4201
-83.0769
-81.7316
-80.3834
-79.032
-77.677
-76.3184
-74.956
-73.5901
-72.2205
-70.8485
-69.4732
-68.0989
-66.7218
-65.3558
-195.329
-195.3
-195.364
-195.448
-195.518
-195.56
-195.567
-195.539
-195.468
-195.351
-195.179
-194.959
-194.693
-194.394
-194.12
-193.923
-193.781
-193.671
-193.598
-193.575
-193.603
-193.67
-193.764
-193.875
-193.995
-194.124
-194.268
-194.435
-194.627
-194.847
-195.094
-195.366
-195.659
-195.969
-196.285
-196.599
-196.897
-197.166
-197.392
-197.56
-197.657
-197.669
-197.584
-197.392
-197.089
-196.671
-196.14
-195.498
-194.747
-193.894
-192.946
-191.912
-190.803
-189.627
-188.393
-187.108
-185.779
-184.416
-183.028
-181.631
-180.244
-178.885
-177.575
-176.325
-175.146
-174.041
-173.011
-172.053
-171.158
-170.29
-169.366
-168.348
-167.342
-166.502
-165.86
-165.303
-164.781
-164.291
-163.81
-163.246
-162.583
-162.127
-162.025
-162.084
-161.921
-161.211
-160.14
-159.085
-158.226
-157.698
-157.492
-157.474
-157.557
-157.709
-157.915
-158.161
-158.432
-158.716
-159
-159.273
-159.523
-159.735
-159.887
-159.951
-159.893
-159.678
-159.271
-158.646
-157.784
-156.677
-155.335
-153.778
-152.034
-150.134
-148.109
-145.992
-143.809
-141.589
-139.357
-137.139
-134.961
-132.851
-130.83
-128.918
-127.126
-125.461
-123.919
-122.488
-121.156
-119.907
-118.733
-117.623
-116.574
-115.583
-114.647
-113.765
-112.932
-112.145
-111.398
-110.683
-109.991
-109.314
-108.64
-107.95
-107.244
-106.511
-105.747
-104.947
-104.112
-103.244
-102.342
-101.403
-100.425
-99.4071
-98.3476
-97.2435
-96.0917
-94.892
-93.6498
-92.3738
-91.0729
-89.7552
-88.4269
-87.0922
-85.7539
-84.4132
-83.0705
-81.7255
-80.3777
-79.0268
-77.6723
-76.3142
-74.9523
-73.587
-72.218
-70.8463
-69.4713
-68.0961
-66.7181
-65.3452
-195.528
-195.544
-195.671
-195.824
-195.954
-196.04
-196.074
-196.053
-195.979
-195.855
-195.68
-195.455
-195.185
-194.881
-194.587
-194.364
-194.197
-194.069
-193.986
-193.963
-193.994
-194.065
-194.167
-194.293
-194.44
-194.609
-194.803
-195.025
-195.277
-195.559
-195.87
-196.205
-196.559
-196.926
-197.297
-197.661
-198.005
-198.315
-198.576
-198.772
-198.889
-198.913
-198.835
-198.645
-198.339
-197.911
-197.359
-196.685
-195.893
-194.992
-193.994
-192.912
-191.758
-190.545
-189.281
-187.97
-186.616
-185.225
-183.802
-182.361
-180.92
-179.503
-178.133
-176.828
-175.597
-174.441
-173.354
-172.325
-171.337
-170.359
-169.358
-168.33
-167.313
-166.423
-165.714
-165.124
-164.565
-164.02
-163.492
-162.904
-162.19
-161.622
-161.392
-161.409
-161.34
-160.867
-160.113
-159.315
-158.696
-158.347
-158.225
-158.232
-158.314
-158.448
-158.624
-158.827
-159.048
-159.279
-159.514
-159.749
-159.978
-160.187
-160.353
-160.444
-160.42
-160.237
-159.856
-159.245
-158.386
-157.268
-155.905
-154.321
-152.55
-150.629
-148.591
-146.468
-144.285
-142.067
-139.832
-137.603
-135.404
-133.26
-131.2
-129.246
-127.413
-125.715
-124.143
-122.691
-121.341
-120.078
-118.888
-117.761
-116.694
-115.684
-114.73
-113.832
-112.988
-112.193
-111.444
-110.734
-110.052
-109.388
-108.728
-108.055
-107.362
-106.636
-105.871
-105.07
-104.232
-103.354
-102.438
-101.488
-100.502
-99.4747
-98.4036
-97.2863
-96.1217
-94.9111
-93.6602
-92.3773
-91.0715
-89.7504
-88.42
-87.0841
-85.7452
-84.4044
-83.0619
-81.7173
-80.3702
-79.0198
-77.6659
-76.3084
-74.9472
-73.5825
-72.214
-70.8426
-69.4677
-68.0915
-66.7122
-65.3339
-195.921
-195.994
-196.172
-196.337
-196.472
-196.562
-196.601
-196.585
-196.513
-196.384
-196.204
-195.977
-195.712
-195.422
-195.136
-194.91
-194.733
-194.597
-194.51
-194.483
-194.509
-194.576
-194.678
-194.814
-194.985
-195.194
-195.44
-195.725
-196.044
-196.396
-196.776
-197.176
-197.592
-198.013
-198.432
-198.838
-199.219
-199.56
-199.845
-200.062
-200.196
-200.235
-200.172
-199.996
-199.697
-199.267
-198.695
-197.986
-197.15
-196.199
-195.148
-194.014
-192.814
-191.564
-190.271
-188.942
-187.575
-186.168
-184.719
-183.235
-181.73
-180.233
-178.775
-177.383
-176.071
-174.84
-173.681
-172.583
-171.527
-170.491
-169.463
-168.443
-167.452
-166.541
-165.741
-165.055
-164.421
-163.805
-163.201
-162.514
-161.664
-160.92
-160.473
-160.327
-160.187
-159.929
-159.535
-159.15
-158.881
-158.761
-158.754
-158.814
-158.919
-159.058
-159.22
-159.395
-159.578
-159.768
-159.97
-160.186
-160.414
-160.642
-160.845
-160.985
-161.014
-160.879
-160.532
-159.938
-159.075
-157.938
-156.542
-154.918
-153.106
-151.151
-149.091
-146.959
-144.778
-142.567
-140.339
-138.109
-135.896
-133.725
-131.627
-129.629
-127.754
-126.015
-124.412
-122.934
-121.566
-120.286
-119.078
-117.933
-116.845
-115.813
-114.838
-113.92
-113.06
-112.256
-111.504
-110.798
-110.128
-109.48
-108.84
-108.19
-107.515
-106.804
-106.048
-105.244
-104.391
-103.497
-102.567
-101.603
-100.599
-99.5552
-98.469
-97.3376
-96.1595
-94.9369
-93.6753
-92.3835
-91.0707
-89.7447
-88.411
-87.0734
-85.7337
-84.3929
-83.0509
-81.7071
-80.3607
-79.0111
-77.658
-76.3012
-74.9406
-73.5764
-72.2085
-70.8373
-69.4625
-68.0853
-66.7046
-65.3221
-196.536
-196.617
-196.762
-196.889
-196.999
-197.079
-197.115
-197.1
-197.031
-196.905
-196.727
-196.505
-196.251
-195.974
-195.71
-195.491
-195.314
-195.176
-195.089
-195.06
-195.083
-195.149
-195.258
-195.413
-195.618
-195.875
-196.182
-196.532
-196.919
-197.332
-197.764
-198.207
-198.653
-199.098
-199.535
-199.957
-200.354
-200.713
-201.024
-201.271
-201.441
-201.518
-201.489
-201.338
-201.051
-200.62
-200.039
-199.31
-198.44
-197.441
-196.332
-195.135
-193.871
-192.565
-191.234
-189.89
-188.528
-187.136
-185.695
-184.196
-182.645
-181.066
-179.505
-178.003
-176.588
-175.264
-174.024
-172.853
-171.735
-170.657
-169.613
-168.602
-167.634
-166.719
-165.867
-165.09
-164.367
-163.679
-163.004
-162.224
-161.255
-160.352
-159.706
-159.331
-159.116
-158.966
-158.863
-158.833
-158.879
-158.975
-159.095
-159.232
-159.383
-159.543
-159.702
-159.857
-160.01
-160.175
-160.363
-160.585
-160.84
-161.117
-161.387
-161.603
-161.708
-161.638
-161.335
-160.758
-159.882
-158.712
-157.264
-155.579
-153.707
-151.699
-149.602
-147.45
-145.266
-143.064
-140.851
-138.631
-136.415
-134.226
-132.096
-130.057
-128.138
-126.358
-124.72
-123.215
-121.825
-120.527
-119.301
-118.135
-117.024
-115.968
-114.968
-114.027
-113.149
-112.333
-111.578
-110.877
-110.22
-109.592
-108.974
-108.347
-107.696
-107.004
-106.26
-105.459
-104.6
-103.69
-102.735
-101.742
-100.714
-99.6497
-98.5458
-97.3977
-96.2039
-94.9668
-93.6927
-92.3906
-91.0697
-89.7378
-88.4003
-87.0605
-85.72
-84.3791
-83.0377
-81.6948
-80.3494
-79.0008
-77.6485
-76.2924
-74.9325
-73.569
-72.2016
-70.8307
-69.4559
-68.0778
-66.6955
-65.3096
-197.153
-197.214
-197.31
-197.4
-197.483
-197.542
-197.562
-197.537
-197.464
-197.344
-197.177
-196.973
-196.741
-196.494
-196.257
-196.054
-195.886
-195.752
-195.669
-195.646
-195.673
-195.748
-195.875
-196.061
-196.31
-196.619
-196.982
-197.384
-197.811
-198.251
-198.697
-199.144
-199.593
-200.041
-200.486
-200.924
-201.347
-201.75
-202.121
-202.445
-202.704
-202.875
-202.932
-202.849
-202.606
-202.189
-201.603
-200.844
-199.916
-198.837
-197.631
-196.328
-194.959
-193.554
-192.144
-190.746
-189.364
-187.986
-186.584
-185.121
-183.573
-181.947
-180.293
-178.676
-177.146
-175.719
-174.39
-173.145
-171.969
-170.848
-169.778
-168.758
-167.789
-166.873
-165.997
-165.158
-164.358
-163.601
-162.871
-162.062
-161.066
-160.055
-159.25
-158.693
-158.386
-158.296
-158.388
-158.598
-158.848
-159.092
-159.317
-159.528
-159.73
-159.914
-160.074
-160.214
-160.352
-160.512
-160.713
-160.97
-161.285
-161.645
-162.014
-162.337
-162.544
-162.557
-162.308
-161.748
-160.853
-159.631
-158.108
-156.334
-154.372
-152.286
-150.129
-147.941
-145.743
-143.545
-141.348
-139.146
-136.939
-134.743
-132.588
-130.513
-128.555
-126.735
-125.061
-123.527
-122.115
-120.797
-119.552
-118.364
-117.228
-116.145
-115.118
-114.152
-113.252
-112.423
-111.665
-110.972
-110.332
-109.727
-109.135
-108.536
-107.909
-107.234
-106.504
-105.71
-104.848
-103.922
-102.94
-101.916
-100.855
-99.762
-98.6335
-97.4655
-96.254
-95.0003
-93.7116
-92.3976
-91.0677
-89.7294
-88.3876
-87.0453
-85.7037
-84.3629
-83.0221
-81.6803
-80.3362
-78.9887
-77.6374
-76.2822
-74.9231
-73.5602
-72.1934
-70.8228
-69.4479
-68.069
-66.6852
-65.2965
-197.698
-197.738
-197.795
-197.851
-197.903
-197.939
-197.942
-197.908
-197.834
-197.719
-197.563
-197.376
-197.169
-196.953
-196.746
-196.566
-196.411
-196.284
-196.212
-196.201
-196.242
-196.335
-196.488
-196.71
-197.002
-197.357
-197.758
-198.184
-198.62
-199.058
-199.495
-199.936
-200.388
-200.854
-201.339
-201.84
-202.352
-202.864
-203.361
-203.821
-204.218
-204.52
-204.693
-204.702
-204.521
-204.132
-203.524
-202.701
-201.68
-200.485
-199.147
-197.702
-196.188
-194.642
-193.097
-191.581
-190.112
-188.695
-187.305
-185.889
-184.389
-182.775
-181.075
-179.366
-177.726
-176.195
-174.776
-173.456
-172.22
-171.056
-169.955
-168.913
-167.925
-166.99
-166.097
-165.227
-164.374
-163.55
-162.755
-161.917
-160.971
-159.955
-159.073
-158.408
-158.026
-157.958
-158.148
-158.482
-158.841
-159.172
-159.47
-159.74
-159.984
-160.19
-160.353
-160.487
-160.627
-160.805
-161.047
-161.369
-161.776
-162.25
-162.749
-163.208
-163.54
-163.652
-163.463
-162.919
-161.992
-160.696
-159.071
-157.18
-155.102
-152.914
-150.678
-148.436
-146.211
-144.009
-141.824
-139.642
-137.452
-135.257
-133.086
-130.981
-128.988
-127.132
-125.426
-123.864
-122.428
-121.09
-119.825
-118.615
-117.454
-116.344
-115.289
-114.296
-113.373
-112.53
-111.769
-111.087
-110.469
-109.893
-109.334
-108.765
-108.164
-107.507
-106.786
-105.992
-105.125
-104.185
-103.182
-102.125
-101.026
-99.8945
-98.7343
-97.541
-96.3087
-95.0365
-93.7312
-92.4036
-91.0636
-89.7183
-88.372
-87.0272
-85.6846
-84.3439
-83.0041
-81.6636
-80.3209
-78.9748
-77.6247
-76.2704
-74.9122
-73.5501
-72.1839
-70.8136
-69.4387
-68.0592
-66.6741
-65.2829
-198.167
-198.188
-198.215
-198.245
-198.27
-198.284
-198.268
-198.22
-198.141
-198.029
-197.884
-197.713
-197.528
-197.34
-197.165
-197.008
-196.866
-196.747
-196.688
-196.694
-196.753
-196.869
-197.051
-197.307
-197.637
-198.024
-198.447
-198.879
-199.31
-199.738
-200.171
-200.624
-201.108
-201.631
-202.197
-202.806
-203.446
-204.104
-204.756
-205.376
-205.93
-206.378
-206.676
-206.78
-206.653
-206.273
-205.637
-204.746
-203.619
-202.287
-200.795
-199.191
-197.522
-195.827
-194.136
-192.477
-190.875
-189.35
-187.905
-186.5
-185.051
-183.484
-181.787
-180.027
-178.3
-176.673
-175.166
-173.773
-172.478
-171.268
-170.135
-169.064
-168.053
-167.09
-166.172
-165.283
-164.403
-163.526
-162.664
-161.765
-160.851
-159.905
-159.037
-158.345
-157.939
-157.867
-158.083
-158.458
-158.861
-159.238
-159.581
-159.893
-160.167
-160.39
-160.563
-160.704
-160.862
-161.08
-161.386
-161.799
-162.323
-162.938
-163.595
-164.213
-164.689
-164.909
-164.778
-164.238
-163.261
-161.869
-160.115
-158.084
-155.869
-153.561
-151.231
-148.925
-146.665
-144.453
-142.278
-140.114
-137.943
-135.755
-133.573
-131.446
-129.424
-127.538
-125.804
-124.218
-122.76
-121.403
-120.119
-118.889
-117.703
-116.565
-115.481
-114.461
-113.516
-112.659
-111.898
-111.23
-110.641
-110.103
-109.582
-109.048
-108.474
-107.834
-107.118
-106.318
-105.437
-104.479
-103.45
-102.361
-101.223
-100.05
-98.8502
-97.6237
-96.3659
-95.0733
-93.7505
-92.408
-91.0568
-89.7039
-88.353
-87.0059
-85.6626
-84.3223
-82.9835
-81.6445
-80.3035
-78.959
-77.6103
-76.2572
-74.8999
-73.5387
-72.1733
-70.8034
-69.4286
-68.0485
-66.6622
-65.269
-198.584
-198.59
-198.597
-198.605
-198.609
-198.602
-198.569
-198.51
-198.424
-198.311
-198.169
-198.005
-197.833
-197.664
-197.512
-197.374
-197.244
-197.129
-197.077
-197.1
-197.179
-197.316
-197.524
-197.811
-198.171
-198.583
-199.018
-199.453
-199.88
-200.307
-200.754
-201.24
-201.78
-202.383
-203.05
-203.778
-204.555
-205.364
-206.184
-206.984
-207.725
-208.355
-208.814
-209.042
-208.99
-208.626
-207.956
-206.979
-205.715
-204.209
-202.521
-200.715
-198.854
-196.991
-195.163
-193.385
-191.662
-190.013
-188.461
-187.008
-185.584
-184.069
-182.405
-180.624
-178.836
-177.13
-175.545
-174.082
-172.73
-171.477
-170.309
-169.211
-168.174
-167.188
-166.242
-165.334
-164.44
-163.537
-162.62
-161.673
-160.729
-159.854
-159.057
-158.4
-157.995
-157.913
-158.119
-158.487
-158.898
-159.294
-159.663
-160.002
-160.298
-160.537
-160.721
-160.885
-161.081
-161.351
-161.74
-162.262
-162.922
-163.697
-164.529
-165.321
-165.944
-166.265
-166.179
-165.625
-164.578
-163.074
-161.179
-158.994
-156.633
-154.194
-151.759
-149.382
-147.085
-144.865
-142.703
-140.558
-138.405
-136.228
-134.042
-131.898
-129.851
-127.941
-126.185
-124.58
-123.105
-121.732
-120.431
-119.181
-117.974
-116.809
-115.695
-114.647
-113.682
-112.816
-112.059
-111.412
-110.86
-110.37
-109.897
-109.402
-108.856
-108.23
-107.513
-106.7
-105.794
-104.805
-103.744
-102.621
-101.445
-100.228
-98.9822
-97.7149
-96.425
-95.1088
-93.7675
-92.4099
-91.0468
-89.6859
-88.3304
-86.9811
-85.6373
-84.2976
-82.9602
-81.6229
-80.2837
-78.9411
-77.594
-76.2424
-74.8863
-73.5261
-72.1615
-70.7922
-69.4175
-68.037
-66.6496
-65.2549
-198.98
-198.978
-198.971
-198.962
-198.948
-198.922
-198.874
-198.801
-198.703
-198.583
-198.439
-198.276
-198.106
-197.944
-197.8
-197.67
-197.545
-197.428
-197.376
-197.407
-197.502
-197.656
-197.886
-198.195
-198.579
-199.011
-199.461
-199.904
-200.336
-200.772
-201.242
-201.772
-202.374
-203.059
-203.826
-204.673
-205.588
-206.558
-207.562
-208.566
-209.521
-210.359
-211.001
-211.373
-211.415
-211.093
-210.388
-209.311
-207.896
-206.197
-204.288
-202.249
-200.161
-198.093
-196.1
-194.207
-192.399
-190.651
-188.983
-187.438
-185.996
-184.528
-182.91
-181.137
-179.309
-177.539
-175.889
-174.37
-172.968
-171.672
-170.47
-169.348
-168.291
-167.289
-166.321
-165.388
-164.486
-163.58
-162.641
-161.672
-160.679
-159.824
-159.097
-158.505
-158.122
-158.023
-158.2
-158.543
-158.943
-159.341
-159.721
-160.076
-160.39
-160.647
-160.85
-161.044
-161.287
-161.627
-162.105
-162.744
-163.551
-164.493
-165.502
-166.462
-167.22
-167.625
-167.567
-166.985
-165.866
-164.25
-162.214
-159.876
-157.369
-154.798
-152.253
-149.796
-147.456
-145.229
-143.08
-140.961
-138.831
-136.668
-134.482
-132.324
-130.257
-128.328
-126.558
-124.94
-123.454
-122.069
-120.754
-119.488
-118.259
-117.069
-115.926
-114.852
-113.869
-113
-112.258
-111.641
-111.134
-110.703
-110.292
-109.845
-109.329
-108.71
-107.984
-107.148
-106.206
-105.174
-104.069
-102.903
-101.685
-100.424
-99.1305
-97.8164
-96.4872
-95.1421
-93.7807
-92.408
-91.0333
-89.6643
-88.304
-86.9525
-85.6085
-84.2698
-82.9341
-81.5987
-80.2616
-78.9209
-77.5758
-76.2259
-74.8714
-73.5125
-72.1488
-70.7801
-69.4056
-68.0249
-66.6367
-65.2405
-199.386
-199.384
-199.37
-199.347
-199.317
-199.273
-199.207
-199.115
-198.999
-198.863
-198.708
-198.538
-198.361
-198.192
-198.043
-197.908
-197.777
-197.652
-197.587
-197.614
-197.716
-197.882
-198.125
-198.449
-198.849
-199.299
-199.766
-200.224
-200.671
-201.121
-201.619
-202.189
-202.847
-203.603
-204.456
-205.405
-206.442
-207.555
-208.723
-209.905
-211.041
-212.046
-212.829
-213.303
-213.406
-213.103
-212.381
-211.248
-209.734
-207.897
-205.819
-203.597
-201.323
-199.068
-196.906
-194.89
-193.021
-191.217
-189.449
-187.804
-186.306
-184.854
-183.287
-181.552
-179.709
-177.894
-176.19
-174.622
-173.18
-171.851
-170.622
-169.479
-168.405
-167.39
-166.417
-165.466
-164.549
-163.649
-162.723
-161.754
-160.751
-159.863
-159.168
-158.635
-158.282
-158.167
-158.303
-158.609
-158.987
-159.378
-159.761
-160.125
-160.455
-160.733
-160.963
-161.193
-161.487
-161.899
-162.469
-163.221
-164.171
-165.27
-166.438
-167.543
-168.41
-168.881
-168.837
-168.215
-167.032
-165.31
-163.14
-160.662
-158.028
-155.345
-152.707
-150.172
-147.78
-145.537
-143.401
-141.311
-139.211
-137.066
-134.882
-132.714
-130.633
-128.692
-126.913
-125.291
-123.8
-122.408
-121.082
-119.801
-118.554
-117.341
-116.173
-115.074
-114.079
-113.217
-112.505
-111.937
-111.49
-111.126
-110.786
-110.396
-109.907
-109.291
-108.544
-107.668
-106.676
-105.589
-104.428
-103.209
-101.944
-100.636
-99.2937
-97.9293
-96.5545
-95.1745
-93.7898
-92.4016
-91.0157
-89.6387
-88.2738
-86.9203
-85.5762
-84.2388
-82.9051
-81.572
-80.2371
-78.8987
-77.5557
-76.2079
-74.8552
-73.4977
-72.1352
-70.7672
-69.3931
-68.0122
-66.6234
-65.2261
-199.819
-199.821
-199.805
-199.77
-199.728
-199.668
-199.585
-199.472
-199.331
-199.169
-198.989
-198.797
-198.602
-198.415
-198.248
-198.1
-197.955
-197.815
-197.723
-197.73
-197.827
-197.995
-198.24
-198.568
-198.976
-199.44
-199.924
-200.403
-200.871
-201.347
-201.867
-202.464
-203.16
-203.961
-204.871
-205.885
-207
-208.205
-209.477
-210.772
-212.02
-213.129
-213.999
-214.538
-214.691
-214.42
-213.689
-212.523
-210.942
-209.017
-206.836
-204.505
-202.131
-199.78
-197.511
-195.399
-193.478
-191.649
-189.843
-188.113
-186.536
-185.071
-183.547
-181.864
-180.034
-178.193
-176.447
-174.839
-173.367
-172.012
-170.764
-169.607
-168.525
-167.499
-166.522
-165.572
-164.642
-163.744
-162.846
-161.907
-160.932
-160.013
-159.301
-158.791
-158.459
-158.328
-158.418
-158.678
-159.026
-159.403
-159.782
-160.153
-160.498
-160.801
-161.064
-161.334
-161.68
-162.158
-162.812
-163.667
-164.732
-165.961
-167.248
-168.463
-169.403
-169.913
-169.869
-169.223
-167.949
-166.13
-163.849
-161.26
-158.532
-155.786
-153.092
-150.5
-148.059
-145.792
-143.664
-141.603
-139.535
-137.412
-135.234
-133.058
-130.968
-129.022
-127.244
-125.624
-124.134
-122.74
-121.408
-120.116
-118.854
-117.623
-116.433
-115.318
-114.322
-113.482
-112.819
-112.323
-111.963
-111.682
-111.419
-111.091
-110.625
-110.003
-109.215
-108.276
-107.212
-106.052
-104.821
-103.54
-102.22
-100.863
-99.4701
-98.0534
-96.6286
-95.2081
-93.7956
-92.3901
-90.9931
-89.6089
-88.2398
-86.8846
-85.5406
-84.2046
-82.8732
-81.5428
-80.2105
-78.8745
-77.5339
-76.1884
-74.8377
-73.482
-72.1208
-70.7537
-69.38
-67.9991
-66.6098
-65.2115
-200.292
-200.294
-200.279
-200.243
-200.197
-200.129
-200.035
-199.908
-199.746
-199.554
-199.339
-199.109
-198.877
-198.654
-198.455
-198.278
-198.107
-197.939
-197.807
-197.777
-197.852
-198.006
-198.239
-198.557
-198.96
-199.43
-199.934
-200.44
-200.936
-201.435
-201.969
-202.577
-203.284
-204.099
-205.025
-206.058
-207.194
-208.423
-209.721
-211.043
-212.316
-213.446
-214.336
-214.897
-215.069
-214.813
-214.092
-212.924
-211.341
-209.412
-207.226
-204.883
-202.495
-200.141
-197.858
-195.708
-193.756
-191.935
-190.132
-188.352
-186.702