/*--------------------------------*- C++ -*----------------------------------*\
  =========                 |
  \\      /  F ield         | OpenFOAM: The Open Source CFD Toolbox
   \\    /   O peration     | Website:  https://openfoam.org
    \\  /    A nd           | Version:  7
     \\/     M anipulation  |
\*---------------------------------------------------------------------------*/
FoamFile
{
    version     2.0;
    format      ascii;
    class       surfaceScalarField;
    location    "0.102";
    object      phi_0;
}
// * * * * * * * * * * * * * * * * * * * * * * * * * * * * * * * * * * * * * //

dimensions      [0 3 -1 0 0 0 0];

internalField   nonuniform List<scalar> 
24170
(
1.38865e-06
2.19267e-07
1.24194e-06
1.46708e-07
1.09859e-06
1.4335e-07
9.75463e-07
1.23126e-07
8.67242e-07
1.08222e-07
7.64095e-07
1.03147e-07
6.64152e-07
9.99425e-08
5.70355e-07
9.37974e-08
4.8554e-07
8.48154e-08
4.11252e-07
7.42874e-08
3.47644e-07
6.36086e-08
2.94395e-07
5.32487e-08
2.50148e-07
4.42469e-08
2.12994e-07
3.7154e-08
1.80012e-07
3.29821e-08
1.48763e-07
3.1249e-08
1.17352e-07
3.14114e-08
2.35066e-08
9.3845e-08
1.66362e-06
2.49569e-07
1.64075e-06
1.6957e-07
1.60131e-06
1.82794e-07
1.55706e-06
1.67381e-07
1.51623e-06
1.49046e-07
1.47468e-06
1.447e-07
1.42658e-06
1.48045e-07
1.37232e-06
1.48049e-07
1.31682e-06
1.40322e-07
1.26397e-06
1.27138e-07
1.21479e-06
1.12785e-07
1.16732e-06
1.00718e-07
1.1195e-06
9.20725e-08
1.06939e-06
8.7262e-08
1.01642e-06
8.59473e-08
9.62197e-07
8.54741e-08
9.05036e-07
8.85719e-08
8.8147e-08
8.40396e-07
1.76638e-06
3.2551e-07
1.74923e-06
1.86723e-07
1.74272e-06
1.89304e-07
1.73431e-06
1.75791e-07
1.72549e-06
1.57866e-07
1.716e-06
1.54192e-07
1.70514e-06
1.58899e-07
1.69311e-06
1.60085e-07
1.68026e-06
1.5317e-07
1.66678e-06
1.40617e-07
1.65262e-06
1.2695e-07
1.63695e-06
1.16379e-07
1.61822e-06
1.10811e-07
1.59562e-06
1.09859e-07
1.56838e-06
1.13186e-07
1.53696e-06
1.16897e-07
1.50202e-06
1.23515e-07
1.27935e-07
1.46223e-06
1.91291e-06
3.71123e-07
1.87057e-06
2.29067e-07
1.87061e-06
1.89257e-07
1.87329e-06
1.73115e-07
1.86649e-06
1.64669e-07
1.85379e-06
1.6689e-07
1.84234e-06
1.70353e-07
1.83628e-06
1.66137e-07
1.83549e-06
1.53961e-07
1.83771e-06
1.38401e-07
1.84037e-06
1.24289e-07
1.84157e-06
1.15182e-07
1.83958e-06
1.12793e-07
1.8337e-06
1.15744e-07
1.8239e-06
1.22981e-07
1.81042e-06
1.30378e-07
1.79576e-06
1.3818e-07
1.44232e-07
1.77946e-06
2.02544e-06
3.82083e-07
2.01003e-06
2.44476e-07
2.01752e-06
1.81769e-07
2.0178e-06
1.72829e-07
2.01045e-06
1.72022e-07
2.0023e-06
1.75044e-07
1.99567e-06
1.76979e-07
1.99057e-06
1.71241e-07
1.98649e-06
1.58039e-07
1.98273e-06
1.42154e-07
1.97862e-06
1.28402e-07
1.97394e-06
1.19859e-07
1.96876e-06
1.17977e-07
1.96319e-06
1.21309e-07
1.95812e-06
1.28053e-07
1.95343e-06
1.35068e-07
1.95066e-06
1.40954e-07
1.45535e-07
1.94935e-06
2.19225e-06
3.94286e-07
2.18417e-06
2.52552e-07
2.17737e-06
1.88576e-07
2.16759e-06
1.82601e-07
2.15981e-06
1.79802e-07
2.15648e-06
1.78376e-07
2.15562e-06
1.77842e-07
2.15422e-06
1.72643e-07
2.15043e-06
1.61827e-07
2.1439e-06
1.48683e-07
2.13531e-06
1.36992e-07
2.12573e-06
1.29445e-07
2.11629e-06
1.27412e-07
2.1077e-06
1.29898e-07
2.10111e-06
1.34649e-07
2.09667e-06
1.39505e-07
2.09519e-06
1.42434e-07
1.44089e-07
2.09664e-06
2.34135e-06
3.74265e-07
2.36388e-06
2.30024e-07
2.36017e-06
1.92277e-07
2.35232e-06
1.90457e-07
2.34329e-06
1.88828e-07
2.33387e-06
1.87799e-07
2.32482e-06
1.86891e-07
2.31697e-06
1.80493e-07
2.31104e-06
1.67754e-07
2.30707e-06
1.52659e-07
2.30411e-06
1.39951e-07
2.30073e-06
1.32824e-07
2.29601e-06
1.32134e-07
2.28971e-06
1.36195e-07
2.28285e-06
1.41511e-07
2.2766e-06
1.45751e-07
2.27223e-06
1.46806e-07
1.4551e-07
2.27081e-06
2.53564e-06
4.06087e-07
2.51835e-06
2.47318e-07
2.52127e-06
1.89353e-07
2.5242e-06
1.87529e-07
2.52483e-06
1.88201e-07
2.52447e-06
1.8816e-07
2.52326e-06
1.88098e-07
2.52112e-06
1.82635e-07
2.51824e-06
1.70631e-07
2.51465e-06
1.56247e-07
2.50995e-06
1.44656e-07
2.50367e-06
1.39106e-07
2.49586e-06
1.39939e-07
2.48723e-06
1.4483e-07
2.47886e-06
1.49873e-07
2.47209e-06
1.52519e-07
2.46773e-06
1.51174e-07
1.4699e-07
2.46625e-06
2.75645e-06
3.86133e-07
2.75424e-06
2.49528e-07
2.74162e-06
2.0197e-07
2.7294e-06
1.99748e-07
2.71952e-06
1.98087e-07
2.71172e-06
1.95959e-07
2.70758e-06
1.92233e-07
2.70707e-06
1.83153e-07
2.7077e-06
1.69997e-07
2.70635e-06
1.576e-07
2.70123e-06
1.49776e-07
2.69303e-06
1.47306e-07
2.6843e-06
1.48663e-07
2.67802e-06
1.51118e-07
2.6759e-06
1.51985e-07
2.67847e-06
1.49955e-07
2.68461e-06
1.45029e-07
1.38744e-07
2.69286e-06
2.93071e-06
3.53167e-07
2.92914e-06
2.51097e-07
2.93314e-06
1.97963e-07
2.94654e-06
1.8635e-07
2.94075e-06
2.03877e-07
2.91363e-06
2.23085e-07
2.88397e-06
2.21885e-07
2.86763e-06
1.995e-07
2.86695e-06
1.7067e-07
2.87547e-06
1.49078e-07
2.88592e-06
1.39331e-07
2.8943e-06
1.38926e-07
2.90022e-06
1.42745e-07
2.90492e-06
1.46412e-07
2.90949e-06
1.47422e-07
2.91408e-06
1.45358e-07
2.91792e-06
1.41192e-07
1.36477e-07
2.92019e-06
3.19161e-06
3.74791e-07
3.18592e-06
2.56788e-07
3.16384e-06
2.20043e-07
3.13872e-06
2.11465e-07
3.11692e-06
2.25681e-07
3.10141e-06
2.38594e-07
3.09428e-06
2.29013e-07
3.09349e-06
2.00289e-07
3.09551e-06
1.68653e-07
3.09878e-06
1.45805e-07
3.10355e-06
1.34562e-07
3.11031e-06
1.3217e-07
3.11883e-06
1.34223e-07
3.12792e-06
1.37321e-07
3.1362e-06
1.39143e-07
3.14231e-06
1.39249e-07
3.14594e-06
1.37554e-07
1.34439e-07
3.14798e-06
2.81082e-06
3.768e-07
2.81832e-06
2.49283e-07
2.82408e-06
2.1429e-07
2.82119e-06
2.14347e-07
2.81529e-06
2.31587e-07
2.81371e-06
2.40174e-07
2.81614e-06
2.26579e-07
2.81958e-06
1.96848e-07
2.82338e-06
1.64854e-07
2.82842e-06
1.4077e-07
2.83461e-06
1.28373e-07
2.84026e-06
1.26518e-07
2.84321e-06
1.31267e-07
2.8422e-06
1.38334e-07
2.8376e-06
1.43749e-07
2.83082e-06
1.46019e-07
2.82428e-06
1.44098e-07
1.39459e-07
2.81926e-06
3.56269e-06
3.48926e-07
3.51923e-06
2.92739e-07
3.47461e-06
2.58915e-07
3.44867e-06
2.40282e-07
3.44624e-06
2.34027e-07
3.46148e-06
2.24928e-07
3.48016e-06
2.07897e-07
3.49014e-06
1.86873e-07
3.48861e-06
1.6638e-07
3.48029e-06
1.49088e-07
3.47121e-06
1.3746e-07
3.46484e-06
1.32887e-07
3.46153e-06
1.34573e-07
3.46028e-06
1.39588e-07
3.4602e-06
1.43831e-07
3.46137e-06
1.44843e-07
3.46421e-06
1.4126e-07
1.34026e-07
3.46965e-06
4.24566e-06
2.85339e-07
4.27415e-06
2.64253e-07
4.2677e-06
2.65364e-07
4.25641e-06
2.51572e-07
4.25211e-06
2.38327e-07
4.25538e-06
2.21654e-07
4.26074e-06
2.02542e-07
4.26179e-06
1.85822e-07
4.25588e-06
1.72288e-07
4.24535e-06
1.59618e-07
4.23534e-06
1.47477e-07
4.23039e-06
1.37835e-07
4.23256e-06
1.32399e-07
4.24103e-06
1.31122e-07
4.25325e-06
1.3161e-07
4.26648e-06
1.31606e-07
4.27867e-06
1.29072e-07
1.23923e-07
4.28877e-06
5.15714e-06
3.99959e-07
5.11694e-06
3.0446e-07
5.1213e-06
2.60996e-07
5.13716e-06
2.35715e-07
5.16138e-06
2.14104e-07
5.18737e-06
1.95668e-07
5.20636e-06
1.83548e-07
5.21361e-06
1.78579e-07
5.20981e-06
1.7609e-07
5.1987e-06
1.70726e-07
5.18471e-06
1.61464e-07
5.17139e-06
1.51159e-07
5.16094e-06
1.42848e-07
5.15417e-06
1.3789e-07
5.15128e-06
1.34498e-07
5.15191e-06
1.30973e-07
5.15591e-06
1.25079e-07
1.1671e-07
5.16312e-06
6.43611e-06
4.44806e-07
6.36783e-06
3.72739e-07
6.33233e-06
2.96498e-07
6.32794e-06
2.40106e-07
6.33525e-06
2.06793e-07
6.34347e-06
1.87449e-07
6.35073e-06
1.76291e-07
6.35835e-06
1.70953e-07
6.36677e-06
1.67667e-07
6.37391e-06
1.63594e-07
6.3769e-06
1.58468e-07
6.37446e-06
1.53599e-07
6.36768e-06
1.49635e-07
6.35947e-06
1.46093e-07
6.35276e-06
1.41212e-07
6.34964e-06
1.34092e-07
6.35059e-06
1.24128e-07
1.12494e-07
6.35481e-06
7.87228e-06
5.15639e-07
7.82079e-06
4.24224e-07
7.7885e-06
3.28793e-07
7.77702e-06
2.51583e-07
7.77497e-06
2.08841e-07
7.7651e-06
1.97322e-07
7.74351e-06
1.97876e-07
7.71914e-06
1.95325e-07
7.70169e-06
1.85118e-07
7.69516e-06
1.70121e-07
7.69861e-06
1.5502e-07
7.70955e-06
1.42666e-07
7.72598e-06
1.33198e-07
7.74707e-06
1.25004e-07
7.77222e-06
1.16059e-07
7.80026e-06
1.06059e-07
7.82946e-06
9.49299e-08
8.49648e-08
7.85698e-06
9.67642e-06
6.69868e-07
9.5625e-06
5.38139e-07
9.4979e-06
3.93399e-07
9.46078e-06
2.88704e-07
9.45044e-06
2.19176e-07
9.46544e-06
1.82326e-07
9.49441e-06
1.68899e-07
9.52297e-06
1.66774e-07
9.5408e-06
1.67281e-07
9.54403e-06
1.66898e-07
9.53471e-06
1.64336e-07
9.51897e-06
1.58406e-07
9.50422e-06
1.47946e-07
9.49644e-06
1.32787e-07
9.49898e-06
1.13521e-07
9.51196e-06
9.30766e-08
9.53349e-06
7.33949e-08
5.82524e-08
9.56021e-06
1.15449e-05
5.04892e-07
1.16026e-05
4.8048e-07
1.16191e-05
3.7684e-07
1.16048e-05
3.02981e-07
1.15708e-05
2.53202e-07
1.15455e-05
2.07642e-07
1.15487e-05
1.65706e-07
1.15818e-05
1.33622e-07
1.16336e-05
1.15491e-07
1.16905e-05
1.10011e-07
1.17431e-05
1.11737e-07
1.17872e-05
1.14353e-07
1.18218e-05
1.13305e-07
1.1847e-05
1.07556e-07
1.18627e-05
9.78177e-08
1.18696e-05
8.62149e-08
1.18685e-05
7.45009e-08
6.39658e-08
1.18628e-05
8.40664e-06
4.23781e-07
8.42461e-06
4.62517e-07
8.42781e-06
3.73639e-07
8.44492e-06
2.85864e-07
8.47419e-06
2.23933e-07
8.5025e-06
1.79338e-07
8.51978e-06
1.4842e-07
8.52883e-06
1.24577e-07
8.54151e-06
1.02809e-07
8.56793e-06
8.3594e-08
8.60944e-06
7.02218e-08
8.6592e-06
6.45956e-08
8.70729e-06
6.5217e-08
8.7454e-06
6.94483e-08
8.76945e-06
7.37649e-08
8.77988e-06
7.57852e-08
8.78004e-06
7.43424e-08
6.93196e-08
8.77468e-06
7.07299e-06
5.76167e-07
7.14491e-06
3.90599e-07
7.24609e-06
2.72457e-07
7.33156e-06
2.00391e-07
7.40797e-06
1.47524e-07
7.47472e-06
1.12591e-07
7.5267e-06
9.64371e-08
7.56065e-06
9.06289e-08
7.57823e-06
8.52292e-08
7.5851e-06
7.67245e-08
7.5879e-06
6.74178e-08
7.59171e-06
6.07856e-08
7.59886e-06
5.80725e-08
7.61012e-06
5.81861e-08
7.62536e-06
5.85272e-08
7.64381e-06
5.73324e-08
7.66457e-06
5.35785e-08
4.77783e-08
7.68611e-06
6.36501e-06
4.47742e-07
6.43741e-06
3.18203e-07
6.49783e-06
2.12039e-07
6.52639e-06
1.71822e-07
6.52167e-06
1.52251e-07
6.50825e-06
1.2601e-07
6.50811e-06
9.6578e-08
6.52523e-06
7.35091e-08
6.55192e-06
5.85396e-08
6.57967e-06
4.89668e-08
6.60421e-06
4.28785e-08
6.62479e-06
4.02149e-08
6.64217e-06
4.06923e-08
6.65736e-06
4.29927e-08
6.67105e-06
4.48405e-08
6.6836e-06
4.47784e-08
6.69517e-06
4.20053e-08
3.70831e-08
6.70587e-06
5.50125e-06
2.95286e-07
5.57264e-06
2.4682e-07
5.5982e-06
1.86479e-07
5.61516e-06
1.5486e-07
5.63227e-06
1.35141e-07
5.6506e-06
1.07681e-07
5.67245e-06
7.47279e-08
5.69995e-06
4.6007e-08
5.73311e-06
2.53736e-08
5.77005e-06
1.20359e-08
5.80755e-06
5.37556e-09
5.84276e-06
5.00797e-09
5.87355e-06
9.89384e-09
5.89869e-06
1.78546e-08
5.91794e-06
2.55953e-08
5.9318e-06
3.09137e-08
5.94115e-06
3.26612e-08
3.07417e-08
5.94749e-06
4.81534e-06
3.76934e-07
4.87395e-06
1.88211e-07
4.914e-06
1.46428e-07
4.9395e-06
1.29357e-07
4.96381e-06
1.10832e-07
4.98559e-06
8.58974e-08
5.00311e-06
5.72152e-08
5.01813e-06
3.0983e-08
5.03334e-06
1.01661e-08
5.05013e-06
-4.75916e-09
5.06968e-06
-1.4167e-08
5.09201e-06
-1.73277e-08
5.11634e-06
-1.44315e-08
5.14158e-06
-7.3868e-09
5.16608e-06
1.09265e-09
5.18799e-06
9.00352e-09
5.20642e-06
1.42282e-08
1.64046e-08
5.22076e-06
4.27549e-06
4.88318e-07
4.27701e-06
1.86697e-07
4.32e-06
1.03433e-07
4.36238e-06
8.69857e-08
4.40029e-06
7.29128e-08
4.43386e-06
5.23305e-08
4.46239e-06
2.86893e-08
4.48476e-06
8.60737e-09
4.49897e-06
-4.04134e-09
4.50327e-06
-9.0619e-09
4.49884e-06
-9.73152e-09
4.49042e-06
-8.91115e-09
4.48356e-06
-7.57496e-09
4.4823e-06
-6.11838e-09
4.48826e-06
-4.8705e-09
4.50103e-06
-3.76925e-09
4.51846e-06
-3.20218e-09
-3.02234e-09
4.53789e-06
3.66021e-06
3.90999e-07
3.74712e-06
9.97897e-08
3.8061e-06
4.4449e-08
3.84902e-06
4.40681e-08
3.88079e-06
4.11394e-08
3.90125e-06
3.18757e-08
3.91378e-06
1.61625e-08
3.92303e-06
-6.4439e-10
3.93006e-06
-1.10756e-08
3.936e-06
-1.50036e-08
3.94068e-06
-1.44055e-08
3.94501e-06
-1.32463e-08
3.95075e-06
-1.33126e-08
3.95943e-06
-1.47992e-08
3.97158e-06
-1.70169e-08
3.98686e-06
-1.90562e-08
4.00425e-06
-2.05913e-08
-2.10549e-08
4.02229e-06
3.22225e-06
2.7369e-07
3.26732e-06
5.47145e-08
3.30122e-06
1.05505e-08
3.34465e-06
6.36123e-10
3.38667e-06
-8.79644e-10
3.41679e-06
1.76175e-09
3.43313e-06
-1.79998e-10
3.44061e-06
-8.12805e-09
3.44576e-06
-1.62247e-08
3.45343e-06
-2.26703e-08
3.46612e-06
-2.70934e-08
3.48347e-06
-3.06048e-08
3.50351e-06
-3.3352e-08
3.52368e-06
-3.49634e-08
3.54176e-06
-3.50994e-08
3.55663e-06
-3.39218e-08
3.56789e-06
-3.18513e-08
-2.92652e-08
3.5761e-06
2.85183e-06
2.31891e-07
2.8864e-06
2.01357e-08
2.91635e-06
-1.93989e-08
2.95667e-06
-3.96788e-08
2.99149e-06
-3.57007e-08
3.01474e-06
-2.14911e-08
3.03101e-06
-1.64515e-08
3.04479e-06
-2.19009e-08
3.05813e-06
-2.95721e-08
3.07093e-06
-3.54646e-08
3.08337e-06
-3.95361e-08
3.09536e-06
-4.25892e-08
3.10649e-06
-4.4484e-08
3.11643e-06
-4.49015e-08
3.12505e-06
-4.37227e-08
3.13259e-06
-4.14628e-08
3.13928e-06
-3.85392e-08
-3.53162e-08
3.14533e-06
2.51257e-06
9.35678e-08
2.56039e-06
-2.76873e-08
2.57463e-06
-3.3637e-08
2.58056e-06
-4.56074e-08
2.58543e-06
-4.05747e-08
2.59843e-06
-3.44869e-08
2.6196e-06
-3.76226e-08
2.64246e-06
-4.4763e-08
2.66128e-06
-4.83944e-08
2.67362e-06
-4.78011e-08
2.67957e-06
-4.54879e-08
2.6801e-06
-4.31171e-08
2.67643e-06
-4.08117e-08
2.66988e-06
-3.83549e-08
2.66189e-06
-3.573e-08
2.65368e-06
-3.32548e-08
2.64614e-06
-3.10017e-08
-2.89432e-08
2.63977e-06
2.13068e-06
2.103e-06
2.06936e-06
2.02375e-06
1.98318e-06
1.94869e-06
1.91107e-06
1.8663e-06
1.81791e-06
1.77011e-06
1.72462e-06
1.6815e-06
1.64069e-06
1.60234e-06
1.56661e-06
1.53335e-06
1.50235e-06
1.47341e-06
-1.99523e-07
1.99523e-07
-3.767e-07
1.77177e-07
-4.6902e-07
9.23192e-08
-4.4191e-07
-2.71096e-08
-3.31026e-07
-1.10884e-07
-1.74252e-07
-1.56774e-07
-1.19786e-08
-1.62274e-07
1.20861e-07
-1.3284e-07
2.00655e-07
-7.97933e-08
2.11157e-07
-1.05023e-08
1.72693e-07
3.84636e-08
1.33316e-07
3.93771e-08
1.22672e-07
1.06442e-08
1.42282e-07
-1.96099e-08
1.48395e-07
-6.11309e-09
1.47887e-07
5.0816e-10
1.76287e-07
-2.83998e-08
2.43428e-07
-6.7141e-08
3.3542e-07
-9.19928e-08
4.31424e-07
-9.60034e-08
5.14018e-07
-8.25943e-08
5.57014e-07
-4.29961e-08
5.34116e-07
2.2898e-08
4.47502e-07
8.66139e-08
2.87929e-07
1.59573e-07
2.15447e-08
2.66384e-07
-3.30422e-07
3.51967e-07
-7.01648e-07
3.71226e-07
-1.05864e-06
3.56993e-07
-1.38255e-06
3.23904e-07
-1.67778e-06
2.95235e-07
-1.9508e-06
2.73022e-07
-2.2091e-06
2.58297e-07
-2.45876e-06
2.49666e-07
-2.70284e-06
2.44077e-07
-2.94263e-06
2.39792e-07
-3.17665e-06
2.34018e-07
-3.40168e-06
2.25031e-07
-3.61303e-06
2.11348e-07
-3.80548e-06
1.92445e-07
-3.97388e-06
1.68407e-07
-4.11395e-06
1.40064e-07
-4.22273e-06
1.08783e-07
-4.2989e-06
7.61707e-08
-4.34272e-06
4.38198e-08
-4.35581e-06
1.30928e-08
-4.3412e-06
-1.46109e-08
-4.30172e-06
-3.94818e-08
-4.24016e-06
-6.15629e-08
-4.15875e-06
-8.14036e-08
-4.05915e-06
-9.96056e-08
-3.94221e-06
-1.16935e-07
-3.80811e-06
-1.34107e-07
-3.65642e-06
-1.51687e-07
-3.48632e-06
-1.701e-07
-3.29684e-06
-1.89483e-07
-3.08718e-06
-2.09652e-07
-2.85703e-06
-2.30158e-07
-2.60654e-06
-2.50488e-07
-2.3363e-06
-2.70242e-07
-2.04699e-06
-2.89303e-07
-1.73905e-06
-3.07947e-07
-1.41229e-06
-3.26756e-07
-1.06608e-06
-3.46212e-07
-6.99029e-07
-3.67048e-07
-3.1109e-07
-3.87939e-07
9.60205e-08
-4.0711e-07
5.40402e-07
-4.44382e-07
1.02841e-06
-4.88008e-07
1.30625e-06
-2.77844e-07
1.10799e-06
1.98264e-07
6.57026e-07
4.50963e-07
2.62859e-07
3.94168e-07
4.67277e-09
2.58186e-07
-1.90895e-07
1.95567e-07
-3.74511e-07
1.83616e-07
-5.01129e-07
1.26618e-07
-4.68382e-07
-3.27469e-08
-2.05774e-07
-2.62608e-07
3.19205e-07
-5.24978e-07
1.0437e-06
-7.2449e-07
1.77128e-06
-7.27586e-07
2.37237e-06
-6.01093e-07
2.73189e-06
-3.59519e-07
2.62657e-06
1.05321e-07
2.03655e-06
5.90022e-07
1.32712e-06
7.0943e-07
9.05434e-07
4.21687e-07
9.2365e-07
-1.82163e-08
1.10224e-06
-1.78592e-07
1.06988e-06
3.23639e-08
6.6012e-07
4.09759e-07
-6.0104e-08
7.20224e-07
-8.39351e-07
7.79247e-07
-1.55771e-06
7.18356e-07
-2.18476e-06
6.2705e-07
-2.72052e-06
5.35763e-07
-3.17509e-06
4.54575e-07
-3.561e-06
3.85905e-07
-3.88971e-06
3.28712e-07
-4.1703e-06
2.80586e-07
-4.40914e-06
2.38844e-07
-4.61009e-06
2.00949e-07
-4.77478e-06
1.64686e-07
-4.90328e-06
1.285e-07
-4.99464e-06
9.13636e-08
-5.04703e-06
5.23905e-08
-5.0584e-06
1.13675e-08
-5.0305e-06
-2.79014e-08
-4.96312e-06
-6.73737e-08
-4.85595e-06
-1.07175e-07
-4.70993e-06
-1.46018e-07
-4.52629e-06
-1.83637e-07
-4.30693e-06
-2.19359e-07
-4.05442e-06
-2.52517e-07
-3.77203e-06
-2.82384e-07
-3.46374e-06
-3.08287e-07
-3.13415e-06
-3.2959e-07
-2.7887e-06
-3.45454e-07
-2.4332e-06
-3.55505e-07
-2.0739e-06
-3.59298e-07
-1.71684e-06
-3.57055e-07
-1.36702e-06
-3.49821e-07
-1.02834e-06
-3.38681e-07
-7.03579e-07
-3.24762e-07
-3.95005e-07
-3.08575e-07
-1.03355e-07
-2.91649e-07
1.73071e-07
-2.76426e-07
4.33188e-07
-2.60117e-07
6.77571e-07
-2.44383e-07
9.065e-07
-2.28929e-07
1.11991e-06
-2.13406e-07
1.31737e-06
-1.97461e-07
1.49824e-06
-1.8087e-07
1.66187e-06
-1.63635e-07
1.80777e-06
-1.45893e-07
1.93545e-06
-1.27687e-07
2.04448e-06
-1.09025e-07
2.13441e-06
-8.99274e-08
2.20436e-06
-6.99558e-08
2.2535e-06
-4.91402e-08
2.28106e-06
-2.75579e-08
2.28498e-06
-3.92298e-09
2.26446e-06
2.0523e-08
2.22098e-06
4.34817e-08
2.15679e-06
6.41847e-08
2.07404e-06
8.27494e-08
1.97366e-06
1.00389e-07
1.85498e-06
1.18675e-07
1.71703e-06
1.37947e-07
1.56064e-06
1.56398e-07
1.38917e-06
1.71471e-07
1.2088e-06
1.80362e-07
1.03004e-06
1.78761e-07
8.67122e-07
1.6292e-07
7.33518e-07
1.33604e-07
6.36851e-07
9.66669e-08
5.76327e-07
6.05239e-08
5.45427e-07
3.08995e-08
5.35544e-07
9.88353e-09
5.38532e-07
-2.98846e-09
5.4795e-07
-9.41741e-09
5.59647e-07
-1.16976e-08
5.7119e-07
-1.15424e-08
5.81489e-07
-1.02995e-08
5.90199e-07
-8.70962e-09
5.97286e-07
-7.08756e-09
6.02924e-07
-5.63726e-09
6.07012e-07
-4.08842e-09
6.09654e-07
-2.64204e-09
6.10246e-07
-5.92359e-10
6.09002e-07
1.24484e-09
6.04384e-07
4.61729e-09
5.97553e-07
6.83184e-09
5.84477e-07
1.30755e-08
5.69861e-07
1.46164e-08
5.41806e-07
2.8055e-08
5.17678e-07
2.41272e-08
4.59887e-07
5.77917e-08
3.5662e-08
4.24225e-07
-1.13049e-07
3.12572e-07
-2.36815e-07
3.00943e-07
-2.78498e-07
1.34003e-07
-2.08507e-07
-9.71006e-08
-5.63161e-08
-2.63075e-07
1.25359e-07
-3.38449e-07
2.96828e-07
-3.33743e-07
4.3466e-07
-2.70673e-07
5.26744e-07
-1.71877e-07
5.71202e-07
-5.4961e-08
5.51648e-07
5.80177e-08
4.37732e-07
1.53294e-07
2.66895e-07
1.81481e-07
1.29672e-07
1.17613e-07
6.21894e-08
6.13691e-08
3.26014e-08
3.00962e-08
2.93969e-08
-2.51953e-08
3.13234e-08
-6.90675e-08
2.17313e-09
-6.28425e-08
-8.14058e-08
-1.24244e-08
-2.29043e-07
6.50433e-08
-4.43656e-07
1.71616e-07
-7.17087e-07
2.96329e-07
-1.03537e-06
4.04901e-07
-1.36601e-06
4.90214e-07
-1.65479e-06
5.55164e-07
-1.89125e-06
5.88423e-07
-2.11404e-06
5.94013e-07
-2.33684e-06
5.79796e-07
-2.56988e-06
5.56944e-07
-2.8114e-06
5.36757e-07
-3.05686e-06
5.18475e-07
-3.30109e-06
5.02529e-07
-3.53791e-06
4.86492e-07
-3.76255e-06
4.68714e-07
-3.97029e-06
4.4753e-07
-4.15768e-06
4.21408e-07
-4.3222e-06
3.89551e-07
-4.46238e-06
3.51527e-07
-4.57769e-06
3.07757e-07
-4.66845e-06
2.59162e-07
-4.73576e-06
2.07375e-07
-4.78114e-06
1.54169e-07
-4.80622e-06
1.01253e-07
-4.81273e-06
5.03266e-08
-4.79975e-06
1.15333e-10
-4.76924e-06
-4.51258e-08
-4.72058e-06
-8.81456e-08
-4.65375e-06
-1.28385e-07
-4.5691e-06
-1.66053e-07
-4.46705e-06
-2.01656e-07
-4.34813e-06
-2.35858e-07
-4.21278e-06
-2.69455e-07
-4.06126e-06
-3.03208e-07
-3.89363e-06
-3.37728e-07
-3.70979e-06
-3.7333e-07
-3.50942e-06
-4.10015e-07
-3.29203e-06
-4.4755e-07
-3.05699e-06
-4.85533e-07
-2.80376e-06
-5.23467e-07
-2.53202e-06
-5.61045e-07
-2.24145e-06
-5.98511e-07
-1.93144e-06
-6.36772e-07
-1.60035e-06
-6.77296e-07
-1.2454e-06
-7.22007e-07
-8.61331e-07
-7.72005e-07
-4.43691e-07
-8.2475e-07
-2.12835e-08
-8.66789e-07
3.72274e-07
-8.81565e-07
7.47469e-07
-6.5304e-07
1.00298e-06
-5.72487e-08
1.00779e-06
4.4616e-07
8.34099e-07
5.67854e-07
6.6718e-07
4.25105e-07
5.54848e-07
3.079e-07
4.29756e-07
3.08708e-07
2.82607e-07
2.73766e-07
1.72947e-07
7.69134e-08
2.05914e-07
-2.95575e-07
4.70145e-07
-7.89209e-07
9.81007e-07
-1.23535e-06
1.58993e-06
-1.33651e-06
2.08536e-06
-1.09652e-06
2.38125e-06
-6.5541e-07
2.46402e-06
2.2553e-08
2.25078e-06
8.03256e-07
1.83789e-06
1.12232e-06
1.60662e-06
6.52956e-07
1.39943e-06
1.88978e-07
8.28911e-07
3.91926e-07
-7.0724e-08
9.31999e-07
-9.86316e-07
1.32535e-06
-1.71664e-06
1.45055e-06
-2.30665e-06
1.36925e-06
-2.79643e-06
1.20814e-06
-3.20223e-06
1.03285e-06
-3.53945e-06
8.72982e-07
-3.82227e-06
7.3739e-07
-4.06224e-06
6.25883e-07
-4.26786e-06
5.34333e-07
-4.44479e-06
4.5751e-07
-4.59632e-06
3.90374e-07
-4.72437e-06
3.28997e-07
-4.82894e-06
2.6926e-07
-4.90877e-06
2.08334e-07
-4.96181e-06
1.44401e-07
-4.98591e-06
7.64867e-08
-4.97935e-06
4.80548e-09
-4.93724e-06
-7.00039e-08
-4.85773e-06
-1.46888e-07
-4.74042e-06
-2.24482e-07
-4.58519e-06
-3.01254e-07
-4.39305e-06
-3.75775e-07
-4.16558e-06
-4.46829e-07
-3.90495e-06
-5.13147e-07
-3.61404e-06
-5.7329e-07
-3.29655e-06
-6.25781e-07
-2.9569e-06
-6.6924e-07
-2.59998e-06
-7.0237e-07
-2.2315e-06
-7.23992e-07
-1.85774e-06
-7.33054e-07
-1.48511e-06
-7.29682e-07
-1.11904e-06
-7.15892e-07
-7.63951e-07
-6.93772e-07
-4.23374e-07
-6.65339e-07
-9.98107e-08
-6.32138e-07
2.08187e-07
-5.99647e-07
4.97952e-07
-5.66191e-07
7.70738e-07
-5.32904e-07
1.0269e-06
-5.00545e-07
1.26669e-06
-4.68716e-07
1.48992e-06
-4.36635e-07
1.69602e-06
-4.03565e-07
1.88429e-06
-3.6914e-07
2.05415e-06
-3.33491e-07
2.20526e-06
-2.97006e-07
2.33756e-06
-2.59994e-07
2.45114e-06
-2.22598e-07
2.54583e-06
-1.84626e-07
2.62154e-06
-1.45661e-07
2.6779e-06
-1.05496e-07
2.71462e-06
-6.42859e-08
2.73288e-06
-2.21768e-08
2.73382e-06
1.95845e-08
2.71704e-06
6.02585e-08
2.68252e-06
9.87064e-08
2.63123e-06
1.34041e-07
2.56547e-06
1.66149e-07
2.48947e-06
1.94669e-07
2.40764e-06
2.19783e-07
2.32252e-06
2.4151e-07
2.23472e-06
2.59277e-07
2.14407e-06
2.71009e-07
2.05113e-06
2.71703e-07
1.95724e-06
2.56808e-07
1.8664e-06
2.24448e-07
1.78416e-06
1.78902e-07
1.71534e-06
1.29344e-07
1.66245e-06
8.37867e-08
1.62529e-06
4.70442e-08
1.60144e-06
2.08656e-08
1.58729e-06
4.7277e-09
1.57904e-06
-3.44697e-09
1.57351e-06
-6.00816e-09
1.5686e-06
-5.3851e-09
1.56332e-06
-3.43382e-09
1.55755e-06
-1.31845e-09
1.55163e-06
2.87858e-10
1.54576e-06
1.7781e-09
1.54025e-06
2.86168e-09
1.53462e-06
5.04114e-09
1.52891e-06
6.96032e-09
1.52163e-06
1.1893e-08
1.5136e-06
1.4865e-08
1.50174e-06
2.49357e-08
1.48884e-06
2.75108e-08
1.46863e-06
4.82625e-08
1.4468e-06
4.5967e-08
1.41345e-06
9.11353e-08
7.63259e-08
1.37279e-06
3.33851e-08
2.79187e-07
3.68685e-08
2.97459e-07
1.36816e-07
3.40553e-08
3.09366e-07
-2.69651e-07
5.0066e-07
-4.54369e-07
6.65982e-07
-5.0377e-07
7.90982e-07
-4.58743e-07
8.71917e-07
-3.51608e-07
9.09621e-07
-2.09581e-07
9.06461e-07
-5.18007e-08
8.55138e-07
1.0934e-07
7.52907e-07
2.55525e-07
5.68314e-07
3.66074e-07
3.17316e-07
3.68611e-07
1.12625e-07
2.66061e-07
-2.34784e-08
1.66199e-07
-1.4554e-07
9.68665e-08
-2.95994e-07
8.13865e-08
-4.97161e-07
1.38324e-07
-7.44868e-07
2.35283e-07
-1.0323e-06
3.52471e-07
-1.33139e-06
4.70713e-07
-1.60818e-06
5.73114e-07
-1.86072e-06
6.57448e-07
-2.08904e-06
7.18526e-07
-2.28933e-06
7.55456e-07
-2.47031e-06
7.69403e-07
-2.6476e-06
7.71308e-07
-2.83376e-06
7.65949e-07
-3.03236e-06
7.55553e-07
-3.23733e-06
7.41726e-07
-3.44224e-06
7.23382e-07
-3.64144e-06
7.01733e-07
-3.83113e-06
6.76178e-07
-4.00898e-06
6.46562e-07
-4.17326e-06
6.11808e-07
-4.32284e-06
5.70989e-07
-4.45664e-06
5.23352e-07
-4.57372e-06
4.68609e-07
-4.67318e-06
4.07214e-07
-4.75418e-06
3.40163e-07
-4.81579e-06
2.68987e-07
-4.8571e-06
1.95485e-07
-4.87753e-06
1.21676e-07
-4.87688e-06
4.96814e-08
-4.85725e-06
-1.95169e-08
-4.81631e-06
-8.60633e-08
-4.75691e-06
-1.47552e-07
-4.6808e-06
-2.0449e-07
-4.58933e-06
-2.57522e-07
-4.48348e-06
-3.07505e-07
-4.36391e-06
-3.55432e-07
-4.23099e-06
-4.02376e-07
-4.08487e-06
-4.49328e-07
-3.92552e-06
-4.97072e-07
-3.75278e-06
-5.46077e-07
-3.56638e-06
-5.96412e-07
-3.36625e-06
-6.47681e-07
-3.15263e-06
-6.9915e-07
-2.92618e-06
-7.49915e-07
-2.68788e-06
-7.99348e-07
-2.43899e-06
-8.47398e-07
-2.18091e-06
-8.94854e-07
-1.91479e-06
-9.43421e-07
-1.64124e-06
-9.95556e-07
-1.35969e-06
-1.05355e-06
-1.06759e-06
-1.11685e-06
-7.56596e-07
-1.17779e-06
-4.43416e-07
-1.19474e-06
-5.46919e-08
-1.04176e-06
4.25603e-07
-5.37543e-07
7.92463e-07
7.92997e-08
9.58906e-07
4.0141e-07
9.87906e-07
3.96106e-07
1.02257e-06
2.7324e-07
1.07185e-06
2.5942e-07
1.05026e-06
2.95355e-07
9.24448e-07
2.02731e-07
7.64789e-07
-1.35916e-07
7.33737e-07
-7.58158e-07
9.17609e-07
-1.41923e-06
1.24627e-06
-1.66517e-06
1.54516e-06
-1.39541e-06
1.68996e-06
-8.0021e-07
1.67366e-06
3.88595e-08
1.58444e-06
8.92471e-07
1.59363e-06
1.11313e-06
1.44374e-06
8.02843e-07
7.30395e-07
9.02324e-07
-3.12916e-07
1.43524e-06
-1.2119e-06
1.83098e-06
-1.84142e-06
1.95488e-06
-2.26268e-06
1.87181e-06
-2.57352e-06
1.68009e-06
-2.82954e-06
1.46416e-06
-3.05917e-06
1.26249e-06
-3.27409e-06
1.0879e-06
-3.47787e-06
9.41177e-07
-3.67095e-06
8.18962e-07
-3.85263e-06
7.16008e-07
-4.02182e-06
6.26703e-07
-4.17708e-06
5.45635e-07
-4.31598e-06
4.679e-07
-4.43583e-06
3.89111e-07
-4.5333e-06
3.05798e-07
-4.60458e-06
2.15679e-07
-4.64593e-06
1.17843e-07
-4.65296e-06
1.18282e-08
-4.62496e-06
-9.7997e-08
-4.55973e-06
-2.12125e-07
-4.45679e-06
-3.27422e-07
-4.31659e-06
-4.41452e-07
-4.14017e-06
-5.52195e-07
-3.92895e-06
-6.58042e-07
-3.6847e-06
-7.57401e-07
-3.4096e-06
-8.48395e-07
-3.10645e-06
-9.28923e-07
-2.7788e-06
-9.96893e-07
-2.43081e-06
-1.05036e-06
-2.06741e-06
-1.08739e-06
-1.69434e-06
-1.10612e-06
-1.31811e-06
-1.10591e-06
-9.45102e-07
-1.08891e-06
-5.80838e-07
-1.05804e-06
-2.28905e-07
-1.01727e-06
1.09337e-07
-9.7038e-07
4.31031e-07
-9.21341e-07
7.36113e-07
-8.71273e-07
1.02526e-06
-8.22048e-07
1.29892e-06
-7.74205e-07
1.55711e-06
-7.2691e-07
1.79906e-06
-6.78587e-07
2.02322e-06
-6.27724e-07
2.22763e-06
-5.73546e-07
2.41039e-06
-5.16256e-07
2.5701e-06
-4.56708e-07
2.7059e-06
-3.95799e-07
2.8174e-06
-3.34102e-07
2.90435e-06
-2.71576e-07
2.96669e-06
-2.07998e-07
3.00451e-06
-1.43314e-07
3.01799e-06
-7.77643e-08
3.00849e-06
-1.26814e-08
2.97956e-06
4.8522e-08
2.93412e-06
1.05691e-07
2.87632e-06
1.56506e-07
2.80987e-06
2.00494e-07
2.73625e-06
2.39772e-07
2.65591e-06
2.75004e-07
2.57086e-06
3.04834e-07
2.48693e-06
3.25438e-07
2.41232e-06
3.33888e-07
2.35164e-06
3.31695e-07
2.30286e-06
3.20483e-07
2.26041e-06
2.99252e-07
2.21913e-06
2.65734e-07
2.17653e-06
2.21495e-07
2.13335e-06
1.72523e-07
2.09194e-06
1.25199e-07
2.05493e-06
8.40595e-08
2.02424e-06
5.15529e-08
2.0007e-06
2.82627e-08
1.98383e-06
1.34279e-08
1.97231e-06
5.51294e-09
1.96436e-06
2.55827e-09
1.95834e-06
2.59421e-09
1.95297e-06
4.04507e-09
1.94758e-06
5.67767e-09
1.94177e-06
7.58708e-09
1.93543e-06
9.20122e-09
1.9284e-06
1.20803e-08
1.92074e-06
1.46137e-08
1.91231e-06
2.03227e-08
1.90314e-06
2.40355e-08
1.89322e-06
3.48559e-08
1.88187e-06
3.88664e-08
1.8704e-06
5.97276e-08
1.85449e-06
6.18763e-08
1.84237e-06
1.03254e-07
1.03181e-07
1.81552e-06
4.60792e-08
2.33108e-07
2.50677e-07
9.28617e-08
5.53167e-07
-2.68435e-07
8.15153e-07
-5.31638e-07
9.92459e-07
-6.31675e-07
1.09555e-06
-6.06858e-07
1.13904e-06
-5.02232e-07
1.13922e-06
-3.51793e-07
1.10652e-06
-1.7688e-07
1.0469e-06
7.81633e-09
9.53877e-07
2.02366e-07
8.30367e-07
3.79035e-07
6.63032e-07
5.33409e-07
4.27352e-07
6.04291e-07
1.60524e-07
5.32888e-07
-7.11399e-08
3.97863e-07
-2.84588e-07
3.10314e-07
-5.26896e-07
3.23695e-07
-8.05653e-07
4.17081e-07
-1.10149e-06
5.31115e-07
-1.39025e-06
6.4124e-07
-1.654e-06
7.34463e-07
-1.88603e-06
8.05142e-07
-2.0884e-06
8.59814e-07
-2.26819e-06
8.98322e-07
-2.43588e-06
9.23139e-07
-2.60505e-06
9.38574e-07
-2.77926e-06
9.45522e-07
-2.95844e-06
9.45128e-07
-3.14113e-06
9.38243e-07
-3.32461e-06
9.252e-07
-3.50837e-06
9.07144e-07
-3.69117e-06
8.84537e-07
-3.87145e-06
8.56458e-07
-4.04695e-06
8.22061e-07
-4.2149e-06
7.79762e-07
-4.37226e-06
7.28343e-07
-4.51579e-06
6.66881e-07
-4.64252e-06
5.95342e-07
-4.74993e-06
5.14626e-07
-4.83615e-06
4.26379e-07
-4.89985e-06
3.32688e-07
-4.94021e-06
2.35841e-07
-4.95692e-06
1.3839e-07
-4.9499e-06
4.26564e-08
-4.92104e-06
-4.83715e-08
-4.87296e-06
-1.34147e-07
-4.80627e-06
-2.14237e-07
-4.72244e-06
-2.88326e-07
-4.62301e-06
-3.56946e-07
-4.50938e-06
-4.21137e-07
-4.38252e-06
-4.82294e-07
-4.24294e-06
-5.41951e-07
-4.09073e-06
-6.01542e-07
-3.92567e-06
-6.62135e-07
-3.7474e-06
-7.24349e-07
-3.55568e-06
-7.88125e-07
-3.35075e-06
-8.52618e-07
-3.13364e-06
-9.16258e-07
-2.9065e-06
-9.77052e-07
-2.67265e-06
-1.0332e-06
-2.43639e-06
-1.08366e-06
-2.20249e-06
-1.12875e-06
-1.97538e-06
-1.17053e-06
-1.75881e-06
-1.21213e-06
-1.55576e-06
-1.2566e-06
-1.36626e-06
-1.30635e-06
-1.18583e-06
-1.35822e-06
-9.94716e-07
-1.38586e-06
-7.18613e-07
-1.31787e-06
-2.31967e-07
-1.02419e-06
3.46032e-07
-4.98699e-07
7.95938e-07
-4.84962e-08
1.05772e-06
1.34326e-07
1.19248e-06
1.38476e-07
1.30404e-06
1.47866e-07
1.3817e-06
2.17691e-07
1.33708e-06
2.47352e-07
1.15262e-06
4.85418e-08
9.50465e-07
-5.56003e-07
8.85776e-07
-1.35454e-06
9.7003e-07
-1.74942e-06
1.07655e-06
-1.50193e-06
1.10215e-06
-8.25804e-07
1.10328e-06
3.77285e-08
1.186e-06
8.0975e-07
1.16282e-06
1.13631e-06
5.92955e-07
1.3727e-06
-3.49818e-07
1.8451e-06
-1.16033e-06
2.24575e-06
-1.69526e-06
2.36591e-06
-2.01534e-06
2.27495e-06
-2.22059e-06
2.07706e-06
-2.38944e-06
1.84893e-06
-2.55727e-06
1.63199e-06
-2.73371e-06
1.43893e-06
-2.91676e-06
1.27094e-06
-3.10152e-06
1.12594e-06
-3.28348e-06
1.00092e-06
-3.45943e-06
8.91957e-07
-3.62708e-06
7.94352e-07
-3.78428e-06
7.02838e-07
-3.92831e-06
6.11929e-07
-4.05574e-06
5.16545e-07
-4.1625e-06
4.12557e-07
-4.2441e-06
2.97271e-07
-4.29615e-06
1.69893e-07
-4.31488e-06
3.05677e-08
-4.29789e-06
-1.14993e-07
-4.24402e-06
-2.65998e-07
-4.15351e-06
-4.17923e-07
-4.02778e-06
-5.67189e-07
-3.86855e-06
-7.11427e-07
-3.67763e-06
-8.48957e-07
-3.45667e-06
-9.78357e-07
-3.20718e-06
-1.09789e-06
-2.93072e-06
-1.20538e-06
-2.62921e-06
-1.29841e-06
-2.30515e-06
-1.37442e-06
-1.96211e-06
-1.43043e-06
-1.6049e-06
-1.46332e-06
-1.23962e-06
-1.4712e-06
-8.73345e-07
-1.45518e-06
-5.12138e-07
-1.41924e-06
-1.60774e-07
-1.36864e-06
1.78148e-07
-1.3093e-06
5.02031e-07
-1.24522e-06
8.1127e-07
-1.18051e-06
1.10716e-06
-1.11794e-06
1.39129e-06
-1.05833e-06