/*--------------------------------*- C++ -*----------------------------------*\
  =========                 |
  \\      /  F ield         | OpenFOAM: The Open Source CFD Toolbox
   \\    /   O peration     | Website:  https://openfoam.org
    \\  /    A nd           | Version:  7
     \\/     M anipulation  |
\*---------------------------------------------------------------------------*/
FoamFile
{
    version     2.0;
    format      ascii;
    class       volScalarField;
    location    "0.102";
    object      s;
}
// * * * * * * * * * * * * * * * * * * * * * * * * * * * * * * * * * * * * * //

dimensions      [0 0 0 0 0 0 0];

internalField   nonuniform List<scalar> 
12225
(
1
1
1
1
1
1
1
1
1
1
1
1
1
1
1
1
1
1
1
1
1
1
1
1
1
1
1
1
1
1
1
1
1
1
1
1
1
1
1
1
1
1
1
1
1
1
1
1
1
1
1
1
1
1
1
1
1
1
1
1
1
1
1
1
1
1
1
1
1
1
1
1
1
1
1
1
1
1
1
1
1
1
1
1
1
1
1
1
1
1
1
1
1
1
1
1
1
1
1
1
1
1
1
1
1
1
1
1
1
1
1
1
1
1
1
1
1
1
1
1
1
1
1
1
1
1
1
1
1
1
1
1
1
1
1
1
1
1
1
1
1
1
1
1
1
1
1
1
1
1
1
1
1
1
1
1
1
1
1
1
1
1
1
1
1
1
1
1
1
1
1
1
1
1
1
1
1
1
1
1
1
1
1
1
1
1
1
1
1
1
1
1
1
1
1
1
1
1
1
1
1
1
1
1
1
1
1
1
1
1
1
1
1
1
1
1
1
1
1
1
1
1
1
1
1
1
1
1
1
1
1
1
1
1
1
1
1
1
1
1
1
1
1
1
1
1
1
1
1
1
1
1
1
1
1
1
1
1
1
1
1
1
1
1
1
1
1
1
1
1
1
1
1
1
1
1
1
1
1
1
1
1
1
1
1
1
1
1
1
1
1
1
1
1
1
1
1
1
1
1
1
1
1
1
1
1
1
1
1
1
1
1
1
1
1
1
1
1
1
1
1
1
1
1
1
1
1
1
1
1
1
1
1
1
1
1
1
1
1
1
1
1
1
1
1
1
1
1
1
1
1
1
1
1
1
1
1
1
1
1
1
1
1
1
1
1
1
1
1
1
1
1
1
1
1
1
1
1
1
1
1
1
1
1
1
1
1
1
1
1
1
1
1
1
1
1
1
1
1
1
1
1
1
1
1
1
1
1
1
1
1
1
1
1
1
1
1
1
1
1
1
1
1
1
1
1
1
1
1
1
1
1
1
1
1
1
1
1
1
1
1
1
1
1
1
1
1
1
1
1
1
1
1
1
1
1
1
1
1
1
1
1
1
1
1
1
1
1
1
1
1
1
1
1
1
1
1
1
1
1
1
1
1
1
1
1
1
1
1
1
1
1
1
1
1
1
1
1
1
1
1
1
1
1
1
1
1
1
1
1
1
1
1
1
1
1
1
1
1
1
1
1
1
1
1
1
1
1
1
1
1
1
1
1
1
1
1
1
1
1
0.240791
0.412406
0.464671
0.484932
0.495143
0.497758
0.488102
0.466226
0.40465
0.289257
0.230588
0.250094
0.346957
0.395514
0.414297
0.419871
0.420932
0.42019
0.415049
0.399167
0.38847
0.372133
0.320401
0.282086
0.285326
0.404108
0.670884
0.770177
0.81425
0.834364
0.838049
0.838087
0.835586
0.828789
0.817668
0.803669
0.78913
0.775643
0.763241
0.751258
0.742424
0.739645
0.739055
0.739035
0.739622
0.741155
0.741991
0.742134
0.741344
0.738448
0.73495
0.732048
0.729848
0.728687
0.727892
0.726876
0.725094
0.72244
0.719316
0.716352
0.71325
0.709289
0.704482
0.700631
0.696565
0.692993
0.690383
0.6889
0.686557
0.683525
0.6776
0.633544
0.437821
0.3537
0.357198
0.326442
0.324712
0.344018
0.392243
0.490438
0.601962
0.661858
0.669243
0.663146
0.638066
0.55237
0.478632
0.49438
0.612479
0.744206
0.830315
0.866666
0.86535
0.853226
0.846269
0.841413
0.837947
0.834895
0.832429
0.830644
0.828988
0.827639
0.826663
0.825882
0.825551
0.825426
0.825396
0.825411
0.825539
0.826098
0.826985
0.827939
0.82903
0.830332
0.831703
0.833037
0.833748
0.834748
0.835497
0.836063
0.836372
0.836852
0.837197
0.838031
0.838742
0.839834
0.84159
0.843935
0.846892
0.85043
0.854558
0.859284
0.864586
0.870397
0.876564
0.882952
0.889122
0.894248
0.898087
0.900887
0.902584
0.903117
0.90285
0.90082
0.898405
0.896546
0.892952
0.882212
0.860685
0.846999
0.833888
0.805802
0.717325
0.458396
0.214899
0.0815018
0.0257693
0.00714222
0.00183583
0.000409307
0.000874747
0.00198345
0.00224392
0.0020265
0.00155322
0.000998805
0.000532066
0.000263437
0.00011442
3.99324e-05
4.94652e-06
5.23223e-07
1.57204e-07
7.99224e-08
4.29468e-08
2.24807e-08
1.13451e-08
5.36893e-09
2.65551e-09
2.62634e-10
0.2289
0.444693
0.554152
0.588442
0.603064
0.613051
0.613092
0.609325
0.596523
0.566605
0.513392
0.386363
0.338093
0.345074
0.41525
0.428319
0.427323
0.411564
0.363982
0.320757
0.317764
0.345513
0.400037
0.507021
0.633934
0.705542
0.804642
0.839949
0.854852
0.859027
0.859143
0.854318
0.844244
0.832847
0.822181
0.814996
0.812156
0.811337
0.813134
0.822608
0.839718
0.858072
0.872237
0.883803
0.894106
0.901813
0.906551
0.909261
0.910595
0.911096
0.910687
0.908241
0.907216
0.905875
0.902347
0.900002
0.896776
0.891073
0.884363
0.874815
0.863525
0.85032
0.834417
0.815575
0.794492
0.772625
0.755075
0.736846
0.716085
0.698251
0.686077
0.654894
0.520865
0.39271
0.366872
0.349145
0.316994
0.309109
0.326807
0.394858
0.595283
0.748858
0.795767
0.798881
0.782161
0.68992
0.533903
0.492115
0.510548
0.692438
0.851404
0.864884
0.850974
0.831948
0.820112
0.810547
0.805862
0.801794
0.799795
0.798338
0.797731
0.797524
0.797523
0.798056
0.798328
0.799192
0.800797
0.802634
0.805242
0.80918
0.813414
0.81841
0.82391
0.829987
0.835908
0.841962
0.847842
0.8528
0.856057
0.857952
0.85871
0.855907
0.851657
0.846662
0.840696
0.833856
0.827005
0.820473
0.815006
0.810422
0.806378
0.802965
0.800356
0.798858
0.79859
0.799705
0.803544
0.810788
0.822059
0.836506
0.853176
0.872677
0.892061
0.904893
0.913386
0.920908
0.925534
0.926161
0.925386
0.922501
0.916336
0.907919
0.889687
0.842367
0.739883
0.656887
0.587682
0.519095
0.473795
0.46303
0.464481
0.472619
0.478717
0.47755
0.462114
0.394457
0.29018
0.209207
0.147474
0.10109
0.0669019
0.0427389
0.0261885
0.0154911
0.00874744
0.00476936
0.00249623
0.00117393
0.000723239
-0.000306929
0.200305
0.412999
0.537516
0.587638
0.621964
0.642629
0.645824
0.638764
0.621825
0.608754
0.582288
0.547448
0.454098
0.374591
0.382971
0.427206
0.422333
0.370576
0.350499
0.367336
0.451047
0.604863
0.716299
0.774676
0.831848
0.873823
0.898347
0.90975
0.914011
0.914725
0.913705
0.909483
0.903432
0.901846
0.903099
0.912388
0.928675
0.944673
0.957805
0.968522
0.976486
0.981704
0.985527
0.98828
0.989796
0.990687
0.991136
0.991592
0.991834
0.991999
0.992073
0.992013
0.991846
0.99169
0.991108
0.990557
0.989683
0.9885
0.986775
0.984389
0.98105
0.976321
0.969358
0.958989
0.942875
0.916855
0.874045
0.819479
0.767068
0.718266
0.692203
0.668912
0.608468
0.480937
0.40371
0.379907
0.345927
0.322502
0.31977
0.339479
0.501695
0.749371
0.816084
0.815302
0.793813
0.681697
0.534
0.504882
0.584435
0.817415
0.855745
0.837923
0.811628
0.800114
0.795694
0.794055
0.793655
0.793544
0.793479
0.793335
0.792597
0.791933
0.790742
0.78919
0.787368
0.785581
0.784321
0.783957
0.784172
0.788231
0.79601
0.805273
0.815709
0.826902
0.839791
0.851094
0.862976
0.873158
0.883006
0.893132
0.905523
0.912173
0.919469
0.923807
0.926636
0.927112
0.925508
0.921276
0.913658
0.903342
0.891249
0.877149
0.86056
0.842122
0.823491
0.807018
0.79442
0.784701
0.777565
0.773411
0.772135
0.772814
0.77842
0.799888
0.837479
0.871176
0.895671
0.91075
0.919783
0.927549
0.933548
0.935497
0.935009
0.931714
0.922837
0.904885
0.869088
0.833166
0.816341
0.815015
0.816896
0.822845
0.84039
0.858965
0.867208
0.868454
0.865779
0.852592
0.839636
0.824827
0.792851
0.707803
0.55843
0.418566
0.297351
0.207712
0.138027
0.0886873
0.0568919
0.0276744
0.20666
0.396057
0.53912
0.618181
0.661344
0.666484
0.660803
0.642263
0.623869
0.607899
0.581154
0.549311
0.510963
0.420948
0.382074
0.418473
0.413502
0.378741
0.390627
0.512574
0.717922
0.809979
0.854282
0.888427
0.922588
0.937799
0.946675
0.952611
0.955326
0.958069
0.961146
0.963467
0.965624
0.96865
0.972849
0.978114
0.983895
0.988486
0.991204
0.992566
0.993456
0.993892
0.994098
0.994183
0.994217
0.994242
0.994485
0.994906
0.995355
0.995979
0.996601
0.996955
0.997492
0.997749
0.99792
0.998118
0.998202
0.998261
0.998279
0.998129
0.997816
0.997157
0.995989
0.99386
0.990008
0.982715
0.968356
0.938828
0.874108
0.787586
0.723129
0.687523
0.653003
0.577823
0.479401
0.426609
0.389989
0.345715
0.322229
0.326499
0.421158
0.729087
0.825587
0.81385
0.745161
0.620345
0.542802
0.575213
0.783028
0.843672
0.834335
0.802797
0.793069
0.790291
0.790108
0.790412
0.79056
0.790014
0.787749
0.783599
0.777727
0.768547
0.755392
0.742713
0.733066
0.72461
0.720893
0.719388
0.719194
0.721978
0.730339
0.74152
0.755394
0.774711
0.798569
0.825062
0.848729
0.865097
0.878178
0.891567
0.907939
0.917447
0.929819
0.938425
0.94591
0.951957
0.956919
0.960975
0.963944
0.965577
0.965957
0.965303
0.962583
0.957032
0.947884
0.933561
0.912714
0.887169
0.85838
0.828976
0.80299
0.781793
0.768327
0.764119
0.764314
0.768096
0.785001
0.834926
0.879931
0.907187
0.922183
0.929752
0.9361
0.941333
0.942669
0.942077
0.939495
0.931609
0.911479
0.897467
0.892858
0.892585
0.893692
0.899377
0.918223
0.938288
0.950804
0.956994
0.958962
0.95903
0.957438
0.94988
0.938713
0.925867
0.898832
0.832051
0.665032
0.470509
0.330035
0.188395
0.362888
0.544898
0.644606
0.683236
0.685748
0.67712
0.652471
0.596535
0.552752
0.513087
0.505866
0.50982
0.498085
0.44657
0.38362
0.407341
0.411768
0.396802
0.472593
0.687243
0.84139
0.894458
0.920244
0.943981
0.961062
0.967753
0.971527
0.974685
0.97625
0.978157
0.980454
0.982189
0.983657
0.985057
0.986489
0.987901
0.989088
0.9896
0.989769
0.989192
0.987313
0.985429
0.983327
0.981481
0.980508
0.980113
0.980089
0.981275
0.983128
0.98502
0.98767
0.989862
0.992276
0.993938
0.994979
0.996379
0.997067
0.997996
0.998422
0.998787
0.999023
0.999107
0.999138
0.999015
0.998512
0.997253
0.994254
0.987028
0.969298
0.926474
0.8356
0.750138
0.707716
0.668741
0.58332
0.504073
0.445016
0.380116
0.332606
0.326825
0.376263
0.6813
0.833949
0.819379
0.729003
0.639567
0.647033
0.766838
0.829431
0.83478
0.800989
0.789382
0.786713
0.787718
0.787975
0.787785
0.785555
0.780267
0.769332
0.750561
0.736381
0.722646
0.714473
0.707559
0.702058
0.699771
0.698973
0.698829
0.699861
0.703343
0.709353
0.717705
0.728673
0.742698
0.76067
0.783373
0.811913
0.842516
0.86244
0.882427
0.904101
0.918
0.932035
0.943423
0.952081
0.959398
0.965641
0.970857
0.975182
0.978712
0.981406
0.983264
0.984242
0.984409
0.984007
0.982406
0.979344
0.974665
0.967185
0.95401
0.932678
0.900833
0.858663
0.817269
0.787728
0.773618
0.770977
0.772779
0.782285
0.81893
0.873411
0.90499
0.92388
0.934572
0.941254
0.94637
0.948329
0.948278
0.94709
0.941935
0.926192
0.914117
0.909916
0.909671
0.911673
0.92176
0.941205
0.957743
0.970462
0.978771
0.982928
0.984236
0.984308
0.983911
0.982169
0.977064
0.96363
0.931527
0.854415
0.607445
0.621382
0.641012
0.690128
0.702412
0.692713
0.652431
0.550606
0.481649
0.453477
0.434122
0.430194
0.438029
0.459923
0.440764
0.385256
0.402483
0.417197
0.426767
0.546731
0.790803
0.901888
0.938558
0.956081
0.969984
0.977211
0.979918
0.981249
0.982075
0.982481
0.982926
0.983637
0.984153
0.984502
0.984696
0.984684
0.983972
0.982326
0.979229
0.974472
0.968188
0.961141
0.955759
0.950415
0.947197
0.945057
0.944109
0.943838
0.944862
0.947736
0.951027
0.956412
0.962704
0.969046
0.975433
0.980077
0.984725
0.988235
0.991699
0.994261
0.996236
0.997871
0.998603
0.999154
0.999402
0.999479
0.999485
0.999158
0.998054
0.994814
0.985825
0.962461
0.906967
0.830342
0.778643
0.716331
0.640467
0.557739
0.456908
0.369451
0.339795
0.363533
0.61243
0.833545
0.835186
0.788707
0.757339
0.785709
0.819646
0.827805
0.803942
0.787096
0.78341
0.784871
0.785455
0.785108
0.781083
0.770111
0.75231
0.736114
0.726139
0.715518
0.709481
0.70311
0.698472
0.696053
0.695486
0.695436
0.69596
0.697903
0.701494
0.70701
0.714657
0.724574
0.736597
0.750069
0.765918
0.785821
0.812337
0.846559
0.871816
0.894256
0.916323
0.932032
0.945643
0.956795
0.96526
0.9714
0.976161
0.980247
0.983936
0.987001
0.989366
0.991098
0.9923
0.993004
0.993252
0.993209
0.992766
0.991531
0.989588
0.985258
0.979757
0.970089
0.948279
0.897856
0.840895
0.801553
0.782717
0.779433
0.781407
0.791244
0.829702
0.883621
0.913216
0.93047
0.940722
0.947602
0.952047
0.953442
0.953324
0.951451
0.94216
0.925696
0.916974
0.914527
0.914701
0.917887
0.932339
0.953798
0.969093
0.979622
0.98676
0.991091
0.993113
0.993582
0.993484
0.992654
0.989527
0.979673
0.929016
0.635655
0.655325
0.709965
0.710368
0.671174
0.549002
0.474613
0.435145
0.415499
0.398388
0.390168
0.396243
0.423229
0.427346
0.384832
0.397188
0.423392
0.451624
0.609832
0.851356
0.935279
0.962135
0.974306
0.980482
0.982898
0.983462
0.983498
0.982867
0.982604
0.982278
0.981832
0.980609
0.978315
0.97446
0.968686
0.960604
0.952588
0.943968
0.936983
0.931181
0.927966
0.923993
0.922187
0.920895
0.920341
0.920166
0.920207
0.920482
0.920918
0.921748
0.92297
0.925295
0.928694
0.934306
0.943087
0.952456
0.963003
0.972934
0.980369
0.987536
0.99266
0.995451
0.997414
0.998769
0.999361
0.999616
0.999695
0.999693
0.999368
0.998141
0.994318
0.983861
0.959645
0.913886
0.852212
0.791371
0.732453
0.621957
0.471684
0.38052
0.373975
0.51166
0.818531
0.844271
0.824866
0.815109
0.819619
0.821685
0.808858
0.785624
0.780443
0.78143
0.782559
0.782641
0.778228
0.763156
0.74868
0.737709
0.72893
0.722393
0.714462
0.70899
0.701853
0.697193
0.695815
0.695666
0.696252
0.698578
0.702994
0.708216
0.714092
0.720807
0.728311
0.73676
0.746348
0.757618
0.771455
0.792206
0.82013
0.853633
0.879975
0.905608
0.927241
0.944343
0.957567
0.96786
0.975912
0.981894
0.986004
0.988721
0.990811
0.992544
0.994037
0.995245
0.996086
0.996635
0.996979
0.997087
0.997062
0.996923
0.996475
0.995262
0.993639
0.990333
0.982825
0.965648
0.915831
0.844443
0.803705
0.788575
0.787602
0.791418
0.808351
0.859646
0.901986
0.925586
0.939942
0.94906
0.955067
0.957711
0.958022
0.957077
0.951147
0.934106
0.922582
0.918552
0.91825
0.919831
0.928521
0.949949
0.967687
0.979847
0.987684
0.992589
0.995482
0.996812
0.997092
0.996972
0.996085
0.987511
0.633847
0.669212
0.722794
0.713647
0.608012
0.493873
0.443546
0.413172
0.384885
0.364334
0.359186
0.367187
0.397961
0.412433
0.383661
0.389995
0.429388
0.471743
0.654858
0.886634
0.954648
0.974263
0.98136
0.983833
0.984374
0.984064
0.983193
0.981683
0.979793
0.976376
0.971371
0.963006
0.95273
0.943726
0.934622
0.928793
0.923248
0.919762
0.916551
0.914839
0.913736
0.912922
0.912592
0.912505
0.912816
0.913458
0.914057
0.914374
0.915058
0.915429
0.915762
0.915999
0.916358
0.91694
0.918403
0.921241
0.926589
0.935686
0.950659
0.967054
0.980194
0.988899
0.993079
0.996508
0.998254
0.999198
0.999638
0.9998
0.999851
0.999791
0.999365
0.997738
0.992551
0.978964
0.949314
0.87835
0.817849
0.773954
0.669713
0.48188
0.411493
0.462833
0.766778
0.847497
0.834867
0.826118
0.821312
0.81175
0.786345
0.778191
0.776853
0.779497
0.780029
0.77636
0.763307
0.751332
0.743612
0.736906
0.730031
0.724836
0.718375
0.711732
0.702384
0.698765
0.698226
0.698962
0.701389
0.704982
0.708971
0.713342
0.717668
0.72342
0.729476
0.736551
0.743416
0.750289
0.758463
0.771292
0.792444
0.822186
0.853082
0.882543
0.910474
0.934248
0.952773
0.966356
0.976027
0.983037
0.988207
0.9919
0.994339
0.995843
0.996714
0.997243
0.997661
0.997992
0.998264
0.998411
0.998438
0.998426
0.998388
0.998305
0.99813
0.997748
0.9967
0.993739
0.985256
0.963781
0.899938
0.832605
0.801867
0.795395
0.796928
0.806959
0.84514
0.893677
0.922458
0.940052
0.951145
0.95832
0.96186
0.962575
0.96205
0.958073
0.943242
0.930331
0.925709
0.925367
0.927077
0.93574
0.95462
0.970173
0.981519
0.989117
0.993783
0.996498
0.997945
0.998464
0.998484
0.997264
0.637804
0.67462
0.726539
0.713158
0.575813
0.471771
0.431015
0.394423
0.353469
0.331985
0.332209
0.34209
0.369803
0.399607
0.381117
0.384694
0.434361
0.491435
0.688523
0.907448
0.96549
0.979922
0.983809
0.984619
0.984573
0.983448
0.980975
0.976238
0.968466
0.955728
0.94475
0.934647
0.927273
0.920799
0.916107
0.913582
0.911704
0.910831
0.910185
0.909666
0.908801
0.907768
0.907315
0.907151
0.907304
0.908342
0.909291
0.910368
0.911854
0.913044
0.914027
0.914545
0.91506
0.915293
0.915339
0.915445
0.916594
0.919428
0.925613
0.937358
0.958283
0.977657
0.987189
0.99255
0.996321
0.998149
0.999157
0.999645
0.999857
0.999915
0.999924
0.999768
0.99892
0.995279
0.983005
0.958511
0.884326
0.837123
0.787863
0.63937
0.472994
0.467197
0.688436
0.841943
0.838108
0.826429
0.815679
0.78989
0.776345
0.77271
0.775578
0.777385
0.775704
0.767418
0.755618
0.749791
0.744129
0.739643
0.737286
0.733266
0.724236
0.713446
0.70414
0.701098
0.700525
0.700535
0.700862
0.701025
0.700357
0.700483
0.701049
0.705033
0.709736
0.718349
0.726507
0.734875
0.743304
0.753295
0.76906
0.79251
0.818111
0.848571
0.881015
0.912068
0.938413
0.958499
0.972571
0.98195
0.988124
0.992258
0.995062
0.996878
0.997955
0.99854
0.998824
0.998916
0.998947
0.998954
0.998943
0.998911
0.998865
0.998816
0.998704
0.998607
0.998452
0.99805
0.996772
0.992595
0.979587
0.942247
0.860977
0.817589
0.803911
0.804319
0.811298
0.841364
0.891187
0.922586
0.941925
0.954192
0.962044
0.966185
0.967274
0.967045
0.964702
0.954678
0.94365
0.939397
0.939006
0.940509
0.947864
0.963093
0.975587
0.984754
0.991029
0.995007
0.997304
0.998534
0.999065
0.998976
0.649511
0.675443
0.727174
0.722106
0.564435
0.464715
0.426648
0.381133
0.324149
0.310306
0.313637
0.32474
0.355283
0.390774
0.378903
0.381452
0.435581
0.50637
0.70605
0.918709
0.970951
0.982487
0.984888
0.985106
0.984099
0.981143
0.974331
0.960617
0.944495
0.934553
0.925137
0.917688
0.913639
0.910226
0.90881
0.908245
0.907728
0.906872
0.90509
0.902507
0.898697
0.896257
0.894206
0.892992
0.892546
0.892599
0.894445
0.896192
0.899998
0.903862
0.908369
0.911255
0.914143
0.915484
0.915936
0.916128
0.916186
0.917004
0.919836
0.925923
0.937587
0.959791
0.979426
0.9882
0.994242
0.997114
0.998628
0.999371
0.999727
0.999896
0.999954
0.999966
0.999888
0.999301
0.9957
0.986216
0.953841
0.885019
0.847152
0.765243
0.555825
0.491657
0.607288
0.823203
0.838777
0.82284
0.798509
0.777803
0.770548
0.769668
0.773456
0.774461
0.771748
0.761285
0.754581
0.750682
0.748294
0.748453
0.745605
0.737007
0.725539
0.713667
0.703585
0.698445
0.695029
0.688126
0.676199
0.661986
0.651255
0.646183
0.64486
0.648293
0.653899
0.66601
0.67892
0.693298
0.709652
0.727792
0.745607
0.763405
0.784784
0.811268
0.844191
0.880487
0.914909
0.943304
0.964085
0.977915
0.986568
0.99184
0.995049
0.997025
0.998234
0.998906
0.999226
0.999337
0.999339
0.999316
0.999251
0.999163
0.999084
0.999028
0.998931
0.998663
0.998442
0.998329
0.998115
0.997468
0.995051
0.986421
0.961379
0.887405
0.832132
0.812961
0.812517
0.817982
0.844336
0.894517
0.927027
0.946402
0.958473
0.966298
0.970726
0.972158
0.972148
0.970955
0.965354
0.958614
0.955995
0.955694
0.956559
0.961079
0.972041
0.981554
0.988499
0.993223
0.996241
0.997998
0.999
0.999335
0.668625
0.666998
0.721962
0.735709
0.574205
0.468394
0.432363
0.378914
0.316396
0.305076
0.3067
0.318676
0.352659
0.38624
0.377837
0.378834
0.433985
0.505361
0.699452
0.917276
0.972564
0.983771
0.985329
0.985051
0.982634
0.974956
0.959664
0.941659
0.928734
0.921425
0.913935
0.909667
0.907612
0.906458
0.905919
0.90449
0.902344
0.898759
0.893898
0.88869
0.885136
0.882597
0.880742
0.879766
0.879297
0.879178
0.879807
0.880627
0.88218
0.884599
0.888509
0.895365
0.903165
0.911227
0.915297
0.917719
0.918822
0.919306
0.919411
0.922939
0.929311
0.942199
0.968004
0.982683
0.991578
0.996174
0.998299
0.999244
0.999665
0.999855
0.999941
0.999976
0.999982
0.99993
0.999405
0.996635
0.985419
0.932184
0.8895
0.837343
0.665254
0.527096
0.552413
0.767051
0.834061
0.818338
0.784656
0.770672
0.765466
0.767382
0.771617
0.771981
0.767068
0.759128
0.755049
0.754547
0.755901
0.754784
0.748339
0.73747
0.724898
0.711306
0.698355
0.685532
0.667972
0.636683
0.59338
0.570981
0.562945
0.566364
0.586719
0.611992
0.63037
0.641597
0.650258
0.657744
0.666474
0.684193
0.714082
0.73671
0.755047
0.776913
0.80712
0.845259
0.885895
0.922541
0.951091
0.970762
0.98311
0.990398
0.994562
0.99692
0.998256
0.999006
0.999387
0.999547
0.999586
0.999585
0.999568
0.999509
0.999357
0.999219
0.999102
0.998813
0.998068
0.997775
0.997707
0.997564
0.997171
0.995573
0.989312
0.968728
0.903813
0.843128
0.821571
0.82056
0.825962
0.85288
0.902226
0.934027
0.952341
0.963414
0.970742
0.975309
0.977167
0.977412
0.977051
0.974968
0.971542
0.970193
0.970051
0.970431
0.972745
0.979724
0.986756
0.991809
0.995218
0.997329
0.99864
0.99928
0.67843
0.659092
0.706786
0.740333
0.618417
0.481559
0.440289
0.398297
0.323522
0.306142
0.306257
0.318443
0.352941
0.38476
0.377518
0.375689
0.428564
0.499312
0.678774
0.909733
0.971564
0.983848
0.985622
0.984796
0.979311
0.967012
0.948554
0.929463
0.919427
0.913754
0.908238
0.90574
0.9045
0.90325
0.901744
0.898694
0.894333
0.889336
0.884369
0.880743
0.878514
0.877253
0.876519
0.876189
0.876072
0.876069
0.876311
0.876728
0.877338
0.878249
0.879551
0.881511
0.884782
0.891347
0.903499
0.914049
0.918957
0.921079
0.922342
0.922657
0.926273
0.933209
0.951758
0.97282
0.986575
0.994115
0.99761
0.999054
0.99962
0.999842
0.999934
0.999974
0.999991
0.999989
0.999936
0.999444
0.996297
0.97491
0.921654
0.884759
0.782546
0.580765
0.556516
0.673272
0.815287
0.81505
0.785331
0.765746
0.761522
0.764585
0.769832
0.770222
0.765163
0.758897
0.7571
0.759482
0.760282
0.757054
0.748761
0.736425
0.721047
0.703131
0.681411
0.647875
0.588589
0.514044
0.478472
0.466291
0.475242
0.510307
0.557096
0.595891
0.625345
0.64005
0.647515
0.652486
0.655746
0.660189
0.674073
0.705053
0.729663
0.750873
0.777255
0.813795
0.857373
0.900414
0.936176
0.961894
0.978397
0.988147
0.9936
0.996587
0.998187
0.999028
0.999456
0.999646
0.999708
0.999719
0.999715
0.999699
0.999646
0.999458
0.999242
0.999002
0.998313
0.996677
0.996234
0.996394
0.996495
0.996244
0.995055
0.989806
0.970864
0.90956
0.849705
0.829375
0.828742
0.835605
0.868189
0.915039
0.943622
0.959553
0.968937
0.975201
0.979553
0.981978
0.982817
0.98288
0.982684
0.981635
0.980564
0.980323
0.98043
0.981535
0.985686
0.990779
0.994403
0.996751
0.998235
0.99909
0.679826
0.657208
0.69685
0.753032
0.671752
0.5032
0.452879
0.425185
0.358616
0.315129
0.309658
0.320322
0.354787
0.384634
0.377843
0.37112
0.418049
0.484234
0.633956
0.891053
0.968038
0.983495
0.985858
0.984983
0.979343
0.964664
0.940996
0.922007
0.914413
0.909937
0.906006
0.904122
0.90302
0.900994
0.897417
0.892564
0.887657
0.88307
0.879236
0.877181
0.875993
0.875405
0.875063
0.8749
0.874843
0.874893
0.875074
0.875377
0.875861
0.876526
0.87743
0.878699
0.880173
0.882291
0.886639
0.897685
0.912817
0.919881
0.922829
0.924298
0.925486
0.928428
0.937182
0.959234
0.97879
0.990537
0.996255
0.998624
0.99951
0.999823
0.999933
0.999974
0.999992
0.999996
0.999991
0.99992
0.999245
0.993755
0.956714
0.916612
0.864067
0.68406
0.575416
0.599775
0.758849
0.806005
0.789863
0.764453
0.757974
0.760451
0.767695
0.768739
0.764905
0.759035
0.759158
0.761998
0.762128
0.757977
0.748386
0.732633
0.71185
0.684506
0.640039
0.55035
0.45104
0.399489
0.374349
0.364432
0.378187
0.422614
0.492423
0.567082
0.621997
0.65111
0.657006
0.658122
0.656684
0.656922
0.65948
0.67199
0.705093
0.731847
0.756498
0.789891
0.833667
0.88087
0.922528
0.953639
0.973981
0.986038
0.992798
0.996372
0.998154
0.999055
0.999501
0.999667
0.999721
0.999728
0.999719
0.999698
0.999669
0.999572
0.999279
0.999025
0.998616
0.997427
0.994752
0.993887
0.994021
0.994862
0.994741
0.993679
0.988535
0.968889
0.906877
0.853271
0.836994
0.837847
0.849446
0.891709
0.932149
0.95497
0.967296
0.97461
0.979709
0.983505
0.986109
0.987615
0.98825
0.988361
0.988206
0.987438
0.98698
0.986971
0.987557
0.99018
0.993786
0.996279
0.997886
0.998869
0.677792
0.657043
0.696584
0.758482
0.712835
0.53421
0.469801
0.44446
0.411284
0.35107
0.328519
0.329688
0.360574
0.38502
0.379332
0.368855
0.400951
0.466165
0.577453
0.846538
0.95781
0.981722
0.98577
0.985636
0.980419
0.966142
0.941828
0.921462
0.912086
0.907724
0.904966
0.902869
0.900657
0.896908
0.893033
0.888397
0.883554
0.879849
0.877163
0.875757
0.875018
0.874587
0.874312
0.874141
0.87405
0.874015
0.874122
0.874434
0.874969
0.87567
0.87649
0.877667
0.879178
0.88064
0.882763
0.887372
0.89936
0.914111
0.921756
0.924493
0.925616
0.927242
0.930889
0.944624
0.968858
0.985212
0.993886
0.997743
0.999233
0.999752
0.99992
0.999974
0.999992
0.999997
0.999998
0.999988
0.999861
0.998607
0.987635
0.941007
0.90514
0.809771
0.622925
0.600487
0.663761
0.78158
0.785742
0.768285
0.755499
0.756064
0.76389
0.767093
0.7648
0.759304
0.759503
0.762464
0.762607
0.758495
0.744358
0.719497
0.691521
0.63834
0.542029
0.431014
0.35126
0.302839
0.27117
0.2553
0.259217
0.29235
0.382558
0.504996
0.605511
0.660279
0.680282
0.679628
0.670454
0.65961
0.657344
0.659701
0.677469
0.713203
0.740288
0.770941
0.813759
0.863776
0.910581
0.94668
0.970555
0.984721
0.99242
0.996309
0.998234
0.99917
0.999533
0.999658
0.999645
0.9996
0.999477
0.999336
0.999338
0.999353
0.999265
0.998924
0.998493
0.997614
0.995411
0.992719
0.991669
0.991763
0.9928
0.992833
0.991665
0.98564
0.961878
0.897481
0.856471
0.846614
0.850414
0.872765
0.91921
0.949427
0.965768
0.97445
0.979809
0.983906
0.98726
0.989787
0.9914
0.992172
0.992348
0.992242
0.99163
0.991208
0.991187
0.9916
0.993513
0.995978
0.99764
0.998692
0.670838
0.65896
0.706181
0.764921
0.740953
0.580718
0.489262
0.459113
0.442498
0.411748
0.380472
0.365939
0.375509
0.387163
0.382137
0.369292
0.387517
0.436066
0.522054
0.768525
0.933087
0.97599
0.984942
0.985838
0.983042
0.971079
0.946056
0.923345
0.912535
0.907717
0.904955
0.902904
0.900624
0.89633
0.891129
0.886082
0.881633
0.878263
0.876183
0.874973
0.874346
0.873974
0.873765
0.873601
0.873477
0.873453
0.873513
0.87369
0.874112
0.875013
0.876056
0.877115
0.878736
0.880328
0.882071
0.885231
0.893667
0.909331
0.920194
0.924595
0.92591
0.927077
0.929052
0.935561
0.957969
0.979104
0.990826
0.996404
0.998726
0.999586
0.999874
0.999963
0.999989
0.999997
0.999999
0.999998
0.999975
0.999698
0.996877
0.97063
0.927256
0.880675
0.725956
0.61848
0.624561
0.715258
0.772931
0.770862
0.757325
0.753008
0.757706
0.764414
0.763961
0.759863
0.759515
0.762258
0.762571
0.758661
0.741931
0.710864
0.658309
0.571957
0.456185
0.351924
0.284034
0.242464
0.220667
0.215288
0.221717
0.244147
0.310908
0.454066
0.580644
0.65747
0.689456
0.695129
0.690005
0.669238
0.657498
0.656064
0.662012
0.693476
0.727463
0.755441
0.796239
0.847977
0.899447
0.94039
0.967792
0.983792
0.992248
0.996444
0.998461
0.999274
0.99953
0.999488
0.999211
0.998793
0.997943
0.997369
0.997434
0.997789
0.998299
0.998406
0.998236
0.997531
0.995779
0.993399
0.991037
0.989959
0.989997
0.990676
0.990657
0.988997
0.980523
0.945677
0.888241
0.862927
0.860004
0.869009
0.90578
0.94311
0.96395
0.974619
0.980365
0.984307
0.987673
0.990586
0.992804
0.994173
0.994768
0.99487
0.994746
0.994247
0.994008
0.99402
0.994404
0.995928
0.997541
0.998591
0.668716
0.667481
0.730161
0.773007
0.755798
0.643875
0.51652
0.474329
0.457707
0.445287
0.428818
0.415351
0.408047
0.397581
0.38931
0.373911
0.385528
0.409629
0.465014
0.645575
0.88009
0.959846
0.981261
0.985417
0.984756
0.978844
0.958542
0.929666
0.915044
0.908571
0.905321
0.903352
0.901215
0.897132
0.891775
0.886536
0.882048
0.878553
0.876389
0.875083
0.874379
0.873971
0.873713
0.873521
0.873395
0.873368
0.873394
0.873508
0.873813
0.874586
0.875916
0.877009
0.878567
0.880419
0.882044
0.884921
0.892064
0.907806
0.919763
0.925658
0.927318
0.927719
0.928536
0.93234
0.949101
0.973351
0.987845
0.995037
0.998161
0.999377
0.999805
0.999943
0.999984
0.999996
0.999999
0.999999
0.999996
0.99994
0.999256
0.992044
0.94769
0.910532
0.832417
0.666824
0.628653
0.64837
0.735195
0.764391
0.759817
0.751037
0.751884
0.759414
0.761954
0.759785
0.759201
0.761577
0.762123
0.757656
0.735544
0.694772
0.619793
0.513228
0.393223
0.300471
0.245717
0.217339
0.207117
0.206714
0.211633
0.229226
0.283943
0.433561
0.572987
0.656312
0.693365
0.701536
0.698149
0.676015
0.657805
0.653654
0.655705
0.677317
0.719559
0.748081
0.782597
0.833843
0.889168
0.93481
0.965538
0.983316
0.99239
0.996807
0.99871
0.999305
0.999259
0.9988
0.997065
0.995001
0.991246
0.989628
0.989947
0.99114
0.993981
0.996166
0.996912
0.996867
0.99601
0.993881
0.991609
0.989602
0.988534
0.98852
0.988739
0.988361
0.985478
0.971621
0.923917
0.883905
0.873489
0.87601
0.897732
0.937484
0.961965
0.974861
0.981358
0.985147
0.98816
0.990945
0.993344
0.995086
0.996077
0.99645
0.996487
0.996357
0.996054
0.995974
0.996018
0.996412
0.997593
0.998585
0.66987
0.685275
0.761405
0.786803
0.76834
0.681751
0.560329
0.493948
0.4695
0.459985
0.452745
0.445738
0.438607
0.42809
0.413166
0.393677
0.392921
0.4049
0.431194
0.521822
0.768709
0.920781
0.969808
0.982988
0.984581
0.98301
0.974177
0.945219
0.922059
0.911496
0.906546
0.904109
0.902704
0.899831
0.894072
0.888393
0.883654
0.879801
0.877272
0.875671
0.874732
0.874185
0.873873
0.873647
0.873512
0.873507
0.873546
0.873673
0.87395
0.874543
0.876371
0.878113
0.87936
0.881135
0.883263
0.886673
0.89428
0.909991
0.922852
0.928158
0.928855
0.928265
0.928427
0.931126
0.945284
0.970445
0.986235
0.994289
0.997859
0.999267
0.999769
0.999932
0.999981
0.999995
0.999999
1
0.999999
0.999989
0.999833
0.997966
0.977853
0.928173
0.884115
0.756031
0.648077
0.638666
0.671214
0.743906
0.754982
0.750771
0.74898
0.752649
0.759276
0.75908
0.758241
0.759975
0.760709
0.755884
0.732774
0.671727
0.575914
0.464887
0.359109
0.282733
0.23734
0.214098
0.206262
0.206176
0.210355
0.226532
0.278976
0.432983
0.590711
0.673662
0.703978
0.709031
0.704205
0.678549
0.65553
0.648881
0.650121
0.666746
0.713768
0.745366
0.776768
0.824776
0.881342
0.930568
0.964134
0.983209
0.992884
0.997303
0.998823
0.999026
0.998445
0.995983
0.988934
0.981531
0.971411
0.967612
0.968306
0.971371
0.979045
0.987931
0.993065
0.994936
0.995003
0.994136
0.992063
0.989932
0.988297
0.987374
0.98716
0.98703
0.985958
0.980079
0.952763
0.906053
0.887407
0.886626
0.897749
0.933521
0.960685
0.975224
0.982551
0.986377
0.988996
0.991388
0.993633
0.995476
0.996718
0.997358
0.997566
0.997575
0.997488
0.997393
0.99739
0.997466
0.997896
0.998682
0.675228
0.70414
0.784797
0.802458
0.784219
0.715412
0.617336
0.530239
0.482678
0.468665
0.462826
0.459264
0.455904
0.450889
0.442915
0.428311
0.413998
0.41157
0.420601
0.460649
0.615781
0.842566
0.942722
0.975192
0.983185
0.983207
0.98057
0.968493
0.937108
0.918358
0.909558
0.905568
0.903648
0.902241
0.899216
0.892907
0.887054
0.882477
0.879248
0.877098
0.875729
0.874876
0.874416
0.874079
0.873913
0.873924
0.874012
0.87425
0.874734
0.875706
0.877774
0.879849
0.881403
0.882421
0.884407
0.889177
0.902291
0.919489
0.929038
0.93093
0.929876
0.928247
0.928309
0.930841
0.944347
0.969712
0.985847
0.994113
0.997788
0.99924
0.999759
0.999929
0.99998
0.999995
0.999999
1
1
0.999998
0.99996
0.999443
0.993577
0.951379
0.910259
0.828476
0.688949
0.642775
0.647547
0.697963
0.741556
0.747456
0.746618
0.747578
0.753839
0.757382
0.757289
0.75793
0.758101
0.754562
0.734511
0.674293
0.574861
0.464478
0.361606
0.287186
0.242024
0.217719
0.211058
0.212274