/*--------------------------------*- C++ -*----------------------------------*\
  =========                 |
  \\      /  F ield         | OpenFOAM: The Open Source CFD Toolbox
   \\    /   O peration     | Website:  https://openfoam.org
    \\  /    A nd           | Version:  7
     \\/     M anipulation  |
\*---------------------------------------------------------------------------*/
FoamFile
{
    version     2.0;
    format      ascii;
    class       volScalarField;
    location    "0.102";
    object      s_0;
}
// * * * * * * * * * * * * * * * * * * * * * * * * * * * * * * * * * * * * * //

dimensions      [0 0 0 0 0 0 0];

internalField   nonuniform List<scalar> 
12225
(
1
1
1
1
1
1
1
1
1
1
1
1
1
1
1
1
1
1
1
1
1
1
1
1
1
1
1
1
1
1
1
1
1
1
1
1
1
1
1
1
1
1
1
1
1
1
1
1
1
1
1
1
1
1
1
1
1
1
1
1
1
1
1
1
1
1
1
1
1
1
1
1
1
1
1
1
1
1
1
1
1
1
1
1
1
1
1
1
1
1
1
1
1
1
1
1
1
1
1
1
1
1
1
1
1
1
1
1
1
1
1
1
1
1
1
1
1
1
1
1
1
1
1
1
1
1
1
1
1
1
1
1
1
1
1
1
1
1
1
1
1
1
1
1
1
1
1
1
1
1
1
1
1
1
1
1
1
1
1
1
1
1
1
1
1
1
1
1
1
1
1
1
1
1
1
1
1
1
1
1
1
1
1
1
1
1
1
1
1
1
1
1
1
1
1
1
1
1
1
1
1
1
1
1
1
1
1
1
1
1
1
1
1
1
1
1
1
1
1
1
1
1
1
1
1
1
1
1
1
1
1
1
1
1
1
1
1
1
1
1
1
1
1
1
1
1
1
1
1
1
1
1
1
1
1
1
1
1
1
1
1
1
1
1
1
1
1
1
1
1
1
1
1
1
1
1
1
1
1
1
1
1
1
1
1
1
1
1
1
1
1
1
1
1
1
1
1
1
1
1
1
1
1
1
1
1
1
1
1
1
1
1
1
1
1
1
1
1
1
1
1
1
1
1
1
1
1
1
1
1
1
1
1
1
1
1
1
1
1
1
1
1
1
1
1
1
1
1
1
1
1
1
1
1
1
1
1
1
1
1
1
1
1
1
1
1
1
1
1
1
1
1
1
1
1
1
1
1
1
1
1
1
1
1
1
1
1
1
1
1
1
1
1
1
1
1
1
1
1
1
1
1
1
1
1
1
1
1
1
1
1
1
1
1
1
1
1
1
1
1
1
1
1
1
1
1
1
1
1
1
1
1
1
1
1
1
1
1
1
1
1
1
1
1
1
1
1
1
1
1
1
1
1
1
1
1
1
1
1
1
1
1
1
1
1
1
1
1
1
1
1
1
1
1
1
1
1
1
1
1
1
1
1
1
1
1
1
1
1
1
1
1
1
1
1
1
1
1
1
1
1
1
1
1
1
1
1
1
1
1
1
1
1
1
1
1
1
1
1
1
1
1
1
1
1
1
1
1
1
1
1
1
1
1
1
1
1
1
1
1
0.240392
0.412031
0.464468
0.484754
0.494951
0.497555
0.487878
0.465945
0.404181
0.28894
0.230491
0.250188
0.347161
0.395595
0.414323
0.419879
0.42093
0.42019
0.415058
0.399191
0.38846
0.371954
0.319975
0.281941
0.285361
0.404607
0.670673
0.76975
0.813815
0.834241
0.838045
0.838117
0.835713
0.82906
0.818084
0.804182
0.789672
0.776177
0.763772
0.751815
0.742675
0.739706
0.739057
0.739021
0.739569
0.741081
0.741959
0.742114
0.74137
0.738517
0.734995
0.732044
0.729785
0.728575
0.727763
0.726747
0.724974
0.722322
0.719182
0.716202
0.713099
0.709146
0.70433
0.700473
0.696412
0.692849
0.69025
0.688783
0.686461
0.683448
0.677493
0.632813
0.436716
0.353589
0.357252
0.326452
0.324665
0.343874
0.392186
0.490752
0.602441
0.661612
0.668705
0.662449
0.636954
0.550227
0.477954
0.494717
0.61387
0.74525
0.830907
0.866836
0.865345
0.853254
0.846326
0.841477
0.838014
0.834963
0.832488
0.830696
0.829037
0.827679
0.826697
0.825903
0.82556
0.825429
0.825396
0.825409
0.825528
0.826075
0.826957
0.827908
0.828993
0.830288
0.831657
0.832998
0.83371
0.834705
0.835457
0.836027
0.836337
0.836822
0.837174
0.838015
0.838735
0.839843
0.841618
0.843982
0.846957
0.850512
0.854657
0.8594
0.864717
0.87054
0.876715
0.883103
0.889255
0.894345
0.898153
0.900933
0.902608
0.903123
0.902842
0.900778
0.898375
0.896509
0.892881
0.881991
0.860479
0.846854
0.833697
0.805427
0.716184
0.456457
0.21383
0.081048
0.0256173
0.00709947
0.0018249
0.000407096
0.000873879
0.00197311
0.00222885
0.00201071
0.00153854
0.000987302
0.000525263
0.000259611
0.00011254
3.90271e-05
4.73256e-06
5.0884e-07
1.55771e-07
7.95112e-08
4.27368e-08
2.23668e-08
1.12852e-08
5.3395e-09
2.64043e-09
2.60469e-10
0.228595
0.444287
0.554064
0.588352
0.602955
0.612895
0.612912
0.609106
0.596258
0.56618
0.512893
0.385847
0.337929
0.345117
0.415379
0.428325
0.427323
0.411597
0.363998
0.320756
0.317718
0.345294
0.399682
0.506591
0.633787
0.705164
0.804331
0.839883
0.855028
0.859306
0.859466
0.85478
0.844779
0.833375
0.82268
0.81533
0.812423
0.811567
0.813185
0.822317
0.839137
0.857498
0.871778
0.883371
0.893697
0.901482
0.90628
0.909022
0.910373
0.910882
0.910496
0.908004
0.906905
0.90557
0.902007
0.899595
0.896373
0.890662
0.883938
0.874371
0.863035
0.849785
0.833842
0.81496
0.793857
0.772059
0.754551
0.736412
0.715751
0.698083
0.68592
0.654506
0.519866
0.392353
0.366785
0.349116
0.316905
0.309099
0.326912
0.39583
0.597137
0.74988
0.795916
0.798755
0.781532
0.687338
0.53231
0.491762
0.511071
0.695054
0.851999
0.864915
0.850903
0.831875
0.820059
0.810484
0.805798
0.801734
0.799736
0.798275
0.797665
0.797458
0.797458
0.797995
0.79827
0.799118
0.800716
0.802547
0.805126
0.809044
0.813268
0.818247
0.823731
0.829802
0.835712
0.84175
0.84762
0.852585
0.855839
0.857717
0.858467
0.855658
0.851389
0.846382
0.840409
0.833567
0.826725
0.820223
0.814805
0.810238
0.806215
0.802829
0.800255
0.798796
0.798562
0.799732
0.803664
0.810993
0.822345
0.836841
0.853546
0.873054
0.892351
0.905076
0.913526
0.921019
0.925593
0.926193
0.925408
0.922493
0.916322
0.907872
0.889543
0.841893
0.739397
0.656646
0.587413
0.518814
0.473687
0.463052
0.464524
0.472698
0.478722
0.477502
0.46183
0.393547
0.289384
0.208605
0.147024
0.100759
0.0666654
0.0425762
0.0260817
0.0154238
0.00870723
0.0047463
0.00248357
0.00116774
0.00071931
-0.000305724
0.200218
0.412957
0.537574
0.587713
0.621948
0.642541
0.645652
0.638541
0.621582
0.608471
0.581896
0.547
0.453559
0.374428
0.382994
0.427264
0.422397
0.370709
0.35044
0.366981
0.450253
0.603986
0.716132
0.774559
0.831624
0.873785
0.898371
0.909976
0.914387
0.915188
0.914275
0.910278
0.904179
0.902517
0.903592
0.91248
0.928511
0.944494
0.957651
0.968338
0.976357
0.981617
0.98545
0.988222
0.989755
0.990648
0.991105
0.991564
0.991808
0.991974
0.992048
0.991986
0.991811
0.991656
0.99107
0.99051
0.98963
0.988437
0.9867
0.984299
0.980936
0.976175
0.969165
0.958725
0.942499
0.916281
0.873347
0.818756
0.766499
0.717952
0.692074
0.668711
0.607918
0.480321
0.403393
0.379714
0.345769
0.322402
0.319756
0.339966
0.504843
0.750965
0.81631
0.815284
0.793141
0.679102
0.532737
0.504847
0.586786
0.818873
0.85586
0.837665
0.811486
0.800003
0.7956
0.79398
0.7936
0.793507
0.793447
0.793309
0.792584
0.79193
0.790754
0.789212
0.787396
0.785614
0.784329
0.783952
0.784139
0.788115
0.795846
0.805097
0.815519
0.826674
0.839566
0.850874
0.86276
0.872972
0.882836
0.892958
0.905359
0.912034
0.919305
0.923639
0.92645
0.926883
0.925223
0.920911
0.913199
0.902832
0.890691
0.876541
0.859913
0.841471
0.822894
0.806544
0.794076
0.78444
0.777391
0.773324
0.77211
0.772841
0.778628
0.80052
0.838083
0.871622
0.895957
0.910917
0.919905
0.927661
0.933621
0.935533
0.935032
0.93171
0.922798
0.904725
0.868823
0.833004
0.816347
0.815073
0.816969
0.822969
0.840625
0.859111
0.867258
0.86846
0.865716
0.852421
0.839498
0.824601
0.792364
0.70654
0.557024
0.417327
0.2964
0.207005
0.137529
0.0883494
0.0566613
0.0275561
0.206716
0.39646
0.539511
0.61836
0.661347
0.666336
0.660632
0.64199
0.62366
0.607536
0.580689
0.54883
0.510483
0.420548
0.381946
0.418511
0.413642
0.378746
0.390198
0.511066
0.716723
0.809715
0.854245
0.888276
0.922598
0.937935
0.946822
0.952829
0.955566
0.958293
0.961379
0.963731
0.96589
0.968857
0.972973
0.978131
0.983839
0.988429
0.991186
0.992561
0.993452
0.993893
0.9941
0.994185
0.994217
0.994239
0.994477
0.994899
0.995346
0.995968
0.996597
0.996952
0.997489
0.997752
0.997922
0.99812
0.998203
0.998261
0.998279
0.998124
0.997807
0.997141
0.995962
0.993815
0.989931
0.982577
0.968096
0.938321
0.873299
0.786839
0.722743
0.687355
0.65274
0.577231
0.478748
0.426179
0.389577
0.345329
0.322078
0.326589
0.423762
0.731782
0.825833
0.813581
0.74392
0.618864
0.542581
0.577097
0.785114
0.843888
0.834012
0.802629
0.79296
0.790206
0.790055
0.79037
0.790526
0.790002
0.787768
0.783639
0.777799
0.768672
0.755584
0.742879
0.733223
0.724698
0.72093
0.719395
0.719181
0.721865
0.730141
0.741305
0.755139
0.774401
0.798221
0.824724
0.848485
0.864933
0.878039
0.891394
0.907789
0.917328
0.929699
0.938321
0.94582
0.951872
0.956836
0.960891
0.963847
0.965457
0.965816
0.965127
0.962335
0.956704
0.947423
0.932923
0.911913
0.886289
0.857487
0.828176
0.802368
0.781377
0.768137
0.764069
0.764301
0.768196
0.78548
0.835787
0.88042
0.907458
0.922315
0.929834
0.936187
0.94139
0.942695
0.942093
0.939485
0.931492
0.911285
0.897383
0.892847
0.892593
0.893722
0.899501
0.918491
0.938474
0.95091
0.957041
0.958976
0.959033
0.957408
0.949767
0.938606
0.925691
0.898457
0.831028
0.663177
0.468981
0.328872
0.187697
0.363743
0.545469
0.644816
0.683219
0.685619
0.676934
0.652181
0.596106
0.552307
0.512673
0.505409
0.509359
0.497634
0.446234
0.383494
0.407299
0.411853
0.396621
0.471411
0.685278
0.84085
0.894364
0.920257
0.943892
0.961129
0.96787
0.971642
0.9748
0.976364
0.978234
0.98051
0.982242
0.9837
0.985079
0.986489
0.987877
0.989065
0.989586
0.989761
0.989216
0.987354
0.985473
0.983379
0.981526
0.980541
0.980136
0.980105
0.981265
0.98312
0.985008
0.987659
0.989858
0.992279
0.993964
0.995002
0.9964
0.997085
0.998009
0.998433
0.998792
0.999026
0.999109
0.999139
0.999011
0.998502
0.997228
0.994197
0.9869
0.968997
0.925729
0.83458
0.749547
0.707276
0.66816
0.582362
0.503209
0.444229
0.37939
0.332235
0.326769
0.377532
0.684779
0.834461
0.819116
0.728331
0.639651
0.649007
0.768708
0.829736
0.834685
0.800773
0.78927
0.786625
0.787669
0.787941
0.787758
0.785547
0.780283
0.769412
0.750683
0.736482
0.722758
0.714543
0.707652
0.702106
0.699779
0.698965
0.698811
0.699799
0.703213
0.709164
0.717467
0.728389
0.742379
0.760322
0.783033
0.811608
0.842322
0.862289
0.882248
0.903971
0.917882
0.931948
0.943329
0.95199
0.959332
0.965588
0.970813
0.975147
0.978678
0.981368
0.983217
0.984179
0.984333
0.983911
0.982264
0.979162
0.974417
0.966822
0.95346
0.931896
0.899836
0.857641
0.816492
0.787278
0.773447
0.770935
0.772788
0.782486
0.819698
0.87393
0.905282
0.924047
0.93467
0.941334
0.946423
0.948349
0.948288
0.947077
0.941833
0.925997
0.914025
0.909893
0.909671
0.911721
0.921968
0.941413
0.957911
0.970582
0.978842
0.98296
0.984245
0.984313
0.983908
0.982146
0.976993
0.963455
0.931092
0.853319
0.605378
0.621614
0.641162
0.690186
0.70234
0.692557
0.652038
0.549999
0.481338
0.453271
0.433888
0.42988
0.437684
0.459528
0.440462
0.385171
0.402393
0.417217
0.426407
0.545123
0.789035
0.901537
0.938511
0.956121
0.969968
0.977268
0.979981
0.981308
0.982118
0.982514
0.98294
0.983635
0.984148
0.984491
0.984685
0.984652
0.98393
0.982288
0.979216
0.974496
0.968265
0.96125
0.955877
0.950534
0.94729
0.945133
0.944172
0.943892
0.944885
0.947753
0.951033
0.956399
0.962714
0.969083
0.97549
0.980138
0.984798
0.988302
0.991748
0.994308
0.996258
0.997889
0.998615
0.999159
0.999404
0.99948
0.999483
0.999151
0.99803
0.994749
0.985652
0.962023
0.905817
0.829118
0.777689
0.715233
0.639206
0.556297
0.455527
0.368606
0.339544
0.364033
0.616076
0.834208
0.8351
0.788794
0.758367
0.786701
0.82001
0.827872
0.803532
0.786961
0.783313
0.784814
0.785413
0.785076
0.781058
0.7701
0.752343
0.736169
0.726227
0.715611
0.709574
0.703202
0.698549
0.696068
0.695482
0.695426
0.695927
0.697827
0.701364
0.706824
0.714418
0.724293
0.736306
0.749806
0.765691
0.785627
0.812145
0.846399
0.871712
0.894193
0.916256
0.931982
0.945609
0.956762
0.9652
0.97133
0.976103
0.980213
0.983918
0.986988
0.989352
0.991084
0.992281
0.99298
0.993221
0.993173
0.992712
0.991451
0.989474
0.985084
0.979524
0.969691
0.947453
0.896619
0.839994
0.801037
0.78253
0.779392
0.781427
0.791446
0.830457
0.8841
0.91348
0.930626
0.940823
0.94768
0.952089
0.953455
0.953326
0.951412
0.941969
0.925546
0.916909
0.914514
0.914705
0.917961
0.932593
0.954008
0.969239
0.979722
0.986824
0.991127
0.993128
0.993587
0.993485
0.992643
0.989484
0.979539
0.928574
0.635669
0.655396
0.709998
0.710285
0.670842
0.548531
0.474347
0.434968
0.41534
0.39817
0.389903
0.395955
0.42292
0.427111
0.384779
0.397028
0.423311
0.451035
0.607789
0.850112
0.93503
0.962097
0.974314
0.980501
0.982933
0.983497
0.98353
0.982888
0.982616
0.982268
0.981798
0.980555
0.978233
0.974341
0.968526
0.960467
0.952485
0.943907
0.936959
0.931167
0.927984
0.924011
0.922197
0.920904
0.920349
0.920174
0.920223
0.920501
0.920933
0.921766
0.922985
0.925315
0.928722
0.934348
0.943173
0.95258
0.963143
0.973065
0.980468
0.987589
0.992703
0.99548
0.997431
0.998778
0.999365
0.999617
0.999696
0.99969
0.99936
0.998111
0.994228
0.983614
0.959059
0.912721
0.850875
0.790256
0.731044
0.619798
0.469882
0.379772
0.373874
0.514834
0.819673
0.844285
0.825008
0.815457
0.819885
0.821784
0.808443
0.785429
0.780318
0.78137
0.782509
0.782591
0.778174
0.763102
0.748685
0.737764
0.729012
0.722496
0.714576
0.70911
0.70199
0.697248
0.695822
0.695661
0.696221
0.6985
0.702865
0.708054
0.713908
0.72061
0.728118
0.736579
0.746188
0.757494
0.771361
0.792148
0.820145
0.853693
0.880076
0.905722
0.927327
0.944398
0.957603
0.96789
0.975937
0.981893
0.985975
0.988683
0.99078
0.992524
0.994029
0.995239
0.996079
0.996628
0.996971
0.997075
0.997049
0.996906
0.996445
0.995209
0.993565
0.990206
0.982582
0.965125
0.91448
0.843525
0.803266
0.788463
0.787583
0.791492
0.808743
0.860379
0.902368
0.925812
0.940085
0.949159
0.955128
0.957733
0.958028
0.957057
0.951012
0.933905
0.922491
0.918529
0.918248
0.919869
0.928708
0.950195
0.967857
0.979959
0.987755
0.992632
0.995506
0.996821
0.997095
0.996971
0.996073
0.987431
0.633826
0.669325
0.722836
0.713532
0.607556
0.493628
0.443393
0.41304
0.384723
0.364125
0.358946
0.366923
0.397616
0.412214
0.383616
0.389788
0.429226
0.471058
0.652733
0.885646
0.954453
0.974234
0.981368
0.983851
0.984395
0.984087
0.983215
0.981685
0.979761
0.976286
0.971217
0.962793
0.952491
0.943506
0.934458
0.928652
0.923137
0.919685
0.916502
0.914793
0.913703
0.912895
0.912565
0.912477
0.912786
0.913433
0.91405
0.914373
0.915061
0.91544
0.915773
0.916009
0.916361
0.916942
0.918405
0.921259
0.926636
0.935779
0.950764
0.967159
0.980236
0.988931
0.993106
0.996525
0.998264
0.999204
0.999641
0.999801
0.999851
0.999788
0.999352
0.997693
0.99241
0.978611
0.948608
0.877117
0.816931
0.772791
0.667355
0.48013
0.410985
0.463836
0.768791
0.847584
0.834945
0.826234
0.821392
0.811474
0.786079
0.778056
0.776778
0.779444
0.779976
0.776289
0.763227
0.751329
0.743654
0.736978
0.730133
0.724974
0.718551
0.711923
0.702521
0.698812
0.698243
0.698947
0.701332
0.704896
0.708877
0.713265
0.717608
0.723372
0.729447
0.736531
0.743428
0.750331
0.758528
0.771393
0.792601
0.822444
0.853419
0.882913
0.910814
0.934516
0.952957
0.96647
0.976097
0.983088
0.988247
0.991921
0.994343
0.995835
0.996698
0.99723
0.997652
0.997987
0.99826
0.998407
0.998434
0.998421
0.998383
0.998299
0.998121
0.997731
0.996662
0.993645
0.985026
0.963211
0.898618
0.831895
0.801609
0.795372
0.796964
0.80719
0.845876
0.894168
0.922753
0.940238
0.951266
0.958396
0.961891
0.962583
0.962041
0.957984
0.943035
0.930231
0.925685
0.925369
0.927118
0.935926
0.954825
0.970327
0.981626
0.989185
0.993823
0.996521
0.997956
0.998467
0.998485
0.997253
0.637708
0.674748
0.726601
0.712988
0.57538
0.471605
0.430916
0.394341
0.35334
0.331823
0.33201
0.341842
0.369449
0.399433
0.381062
0.384488
0.434101
0.490731
0.686505
0.906625
0.965333
0.979905
0.98382
0.984634
0.984589
0.983463
0.98097
0.976178
0.96829
0.955507
0.944505
0.934441
0.927099
0.920659
0.915993
0.913485
0.911627
0.910764
0.91013
0.909619
0.908766
0.907734
0.90728
0.907114
0.907262
0.908302
0.909274
0.91036
0.911852
0.913053
0.914038
0.914554
0.915059
0.915288
0.915328
0.915423
0.916555
0.919393
0.925589
0.937352
0.958311
0.977682
0.987205
0.992571
0.996327
0.998156
0.99916
0.999647
0.999857
0.999916
0.999923
0.999762
0.998893
0.99517
0.982682
0.957837
0.88327
0.836301
0.786664
0.63708
0.471994
0.46717
0.690497
0.842168
0.838145
0.826478
0.815534
0.789608
0.776192
0.772599
0.77552
0.777334
0.775648
0.767336
0.755598
0.749818
0.744182
0.739749
0.737458
0.733443
0.724412
0.713635
0.704248
0.701132
0.700534
0.700536
0.70085
0.701029
0.7004
0.700625
0.701262
0.705305
0.710096
0.718686
0.72685
0.735204
0.743596
0.753544
0.769324
0.7929
0.818635
0.849178
0.881636
0.912617
0.938836
0.958788
0.972749
0.982055
0.988186
0.992299
0.995091
0.996894
0.997961
0.998539
0.99882
0.99891
0.998942
0.998951
0.998939
0.998907
0.998862
0.998813
0.9987
0.998603
0.998446
0.998037
0.996736
0.992485
0.97929
0.941215
0.860088
0.817212
0.803856
0.80433
0.811479
0.842055
0.891731
0.92293
0.942141
0.954329
0.962131
0.966223
0.967285
0.967044
0.964653
0.954523
0.943567
0.939377
0.93901
0.940548
0.948022
0.963255
0.975712
0.984841
0.991087
0.995042
0.997323
0.998544
0.999068
0.998976
0.649301
0.675585
0.727255
0.721892
0.564028
0.464584
0.426574
0.381091
0.324099
0.310233
0.313517
0.324567
0.355059
0.39067
0.378865
0.381264
0.435263
0.505607
0.704152
0.917968
0.970805
0.982474
0.9849
0.985121
0.984111
0.981137
0.974262
0.960453
0.944296
0.934376
0.924991
0.917556
0.913535
0.910141
0.908733
0.908175
0.907663
0.906812
0.905046
0.902478
0.898675
0.896218
0.894173
0.892956
0.89251
0.892567
0.894428
0.896187
0.900002
0.903888
0.908406
0.911289
0.914164
0.915498
0.915934
0.916091
0.916132
0.916947
0.919769
0.925875
0.937583
0.959844
0.979464
0.988223
0.994251
0.997117
0.998629
0.999372
0.999727
0.999896
0.999954
0.999966
0.999885
0.99928
0.995582
0.985916
0.952946
0.884206
0.846252
0.763625
0.554181
0.491428
0.60881
0.823624
0.838802
0.822737
0.79814
0.777595
0.770417
0.769598
0.773406
0.774404
0.771674
0.761228
0.754588
0.750729
0.748412
0.748604
0.745733
0.737133
0.725681
0.713818
0.703689
0.698454
0.695015
0.688127
0.676242
0.662151
0.651577
0.646588
0.645301
0.64874
0.654319
0.666545
0.679553
0.694013
0.710382
0.728307
0.746035
0.763882
0.785378
0.812005
0.845016
0.881292
0.915592
0.943813
0.964421
0.978118
0.986684
0.991905
0.995087
0.997049
0.998248
0.998912
0.999226
0.999334
0.999335
0.999312
0.999246
0.999158
0.999081
0.999024
0.998927
0.998654
0.998437
0.998324
0.998109
0.99745
0.994992
0.986218
0.960812
0.886252
0.831664
0.812875
0.812528
0.818138
0.845018
0.895098
0.927394
0.946626
0.958612
0.966387
0.970769
0.972172
0.972153
0.970933
0.965267
0.958567
0.955985
0.955698
0.956585
0.961177
0.972171
0.981649
0.988566
0.993266
0.996267
0.998013
0.999007
0.999338
0.668368
0.667182
0.722159
0.735611
0.573885
0.468333
0.432354
0.378972
0.316418
0.305061
0.306653
0.318588
0.352521
0.386201
0.377821
0.378666
0.43365
0.504642
0.697592
0.916521
0.972415
0.983758
0.98534
0.985065
0.982637
0.974915
0.959567
0.941508
0.928591
0.921304
0.913847
0.909589
0.907543
0.906397
0.905864
0.904433
0.902284
0.898713
0.893865
0.888665
0.885105
0.882571
0.880721
0.879751
0.879285
0.879168
0.879799
0.880625
0.882185
0.884621
0.888558
0.895449
0.903283
0.911308
0.915339
0.917717
0.918799
0.919244
0.919336
0.922887
0.929311
0.9423
0.968146
0.982778
0.991625
0.996191
0.998304
0.999245
0.999665
0.999855
0.999941
0.999976
0.999982
0.999928
0.999385
0.996537
0.985067
0.931273
0.888773
0.836261
0.663319
0.52649
0.55279
0.768085
0.834136
0.81813
0.78442
0.770497
0.765347
0.767328
0.771579
0.771933
0.76699
0.759102
0.755067
0.754641
0.756004
0.754871
0.748413
0.737561
0.725001
0.711381
0.698374
0.685438
0.667815
0.63657
0.593465
0.571151
0.563146
0.566593
0.586779
0.611979
0.630299
0.641553
0.650294
0.657894
0.666834
0.684948
0.714841
0.737294
0.755649
0.777635
0.807992
0.846202
0.886776
0.923252
0.951595
0.971082
0.983298
0.990503
0.99462
0.996952
0.998273
0.999016
0.999391
0.999547
0.999583
0.999582
0.999564
0.999502
0.99935
0.999214
0.999096
0.998798
0.998051
0.997767
0.997701
0.997558
0.99716
0.995534
0.989164
0.968293
0.902693
0.842631
0.821462
0.820586
0.826127
0.853585
0.902821
0.934396
0.952556
0.963545
0.970829
0.975356
0.977186
0.977419
0.97705
0.974933
0.971521
0.97019
0.970054
0.970444
0.972797
0.97982
0.986826
0.991857
0.995249
0.997348
0.99865
0.999285
0.678388
0.659153
0.70705
0.740264
0.618045
0.481504
0.440318
0.398447
0.323639
0.306154
0.306239
0.318381
0.352828
0.384756
0.377525
0.375536
0.428201
0.498682
0.677034
0.908937
0.971401
0.983829
0.985633
0.984816
0.97934
0.967018
0.948492
0.929359
0.919332
0.913682
0.90819
0.905699
0.904464
0.903207
0.901685
0.898631
0.894272
0.88929
0.884337
0.880722
0.878494
0.877239
0.876508
0.87618
0.876065
0.876066
0.876307
0.876726
0.877338
0.878252
0.879559
0.881528
0.884834
0.891507
0.903697
0.914147
0.91898
0.921067
0.922315
0.922609
0.926272
0.933327
0.952078
0.973058
0.986708
0.994174
0.997631
0.999061
0.999622
0.999843
0.999934
0.999974
0.999991
0.999989
0.999934
0.999426
0.996186
0.97421
0.920919
0.883931
0.780576
0.579797
0.55642
0.674406
0.815477
0.814942
0.785053
0.76558
0.761412
0.764533
0.7698
0.770186
0.765105
0.75888
0.757147
0.759556
0.760339
0.757092
0.748799
0.736456
0.721026
0.703044
0.681203
0.647478
0.587982
0.513725
0.478265
0.466123
0.475242
0.510306
0.557117
0.595859
0.625223
0.639872
0.647394
0.652419
0.655733
0.66033
0.674688
0.705893
0.730291
0.751499
0.778034
0.814732
0.858339
0.901256
0.936808
0.962314
0.97865
0.98829
0.993678
0.996628
0.998209
0.999039
0.999461
0.999648
0.999709
0.999719
0.999715
0.999698
0.999643
0.999449
0.999234
0.99899
0.998276
0.996642
0.996219
0.996385
0.996486
0.996233
0.995023
0.98968
0.970456
0.908467
0.849228
0.829274
0.828774
0.83583
0.868961
0.915615
0.94396
0.959743
0.969051
0.975278
0.979602
0.982004
0.982828
0.982887
0.982686
0.981623
0.98056
0.980325
0.980436
0.981562
0.985752
0.99083
0.994437
0.996773
0.998248
0.999097
0.679841
0.657206
0.696818
0.752994
0.671573
0.503169
0.452919
0.425309
0.358978
0.315266
0.309709
0.320311
0.354734
0.384638
0.377873
0.371021
0.417702
0.483751
0.63253
0.89017
0.967844
0.983468
0.985862
0.985004
0.979381
0.96471
0.940999
0.921957
0.914351
0.909887
0.905985
0.904098
0.902985
0.900942
0.897357
0.892502
0.887598
0.883031
0.879213
0.877165
0.875982
0.875397
0.875056
0.874895
0.874838
0.87489
0.875073
0.875377
0.875862
0.876528
0.877434
0.878705
0.880178
0.882316
0.88672
0.897946
0.912985
0.919936
0.922831
0.924287
0.925482
0.928477
0.937471
0.959625
0.979042
0.990666
0.996309
0.998644
0.999517
0.999825
0.999933
0.999974
0.999992
0.999996
0.999991
0.999916
0.999219
0.993556
0.955814
0.915913
0.86293
0.682144
0.574934
0.600023
0.759556
0.805996
0.789604
0.76425
0.75786
0.760392
0.767671
0.768705
0.764849
0.75902
0.759184
0.76204
0.762151
0.757981
0.748379
0.732534
0.711631
0.684104
0.639259
0.549152
0.45017
0.398874
0.374011
0.364308
0.378473
0.423235
0.492993
0.56741
0.621949
0.650773
0.656608
0.65783
0.656526
0.656897
0.659599
0.672597
0.705887
0.732472
0.757186
0.790776
0.834663
0.881798
0.923254
0.954132
0.974281
0.986207
0.992887
0.996417
0.998176
0.999066
0.999506
0.99967
0.999722
0.999729
0.99972
0.9997
0.999669
0.999567
0.999269
0.999014
0.998595
0.997363
0.99469
0.993861
0.994005
0.994857
0.994728
0.993644
0.988404
0.96844
0.905825
0.852839
0.836934
0.837913
0.84983
0.892527
0.932648
0.955243
0.967447
0.974703
0.979774
0.983552
0.98614
0.987634
0.988259
0.988366
0.988205
0.987431
0.98698
0.986974
0.987574
0.990225
0.993821
0.996302
0.997901
0.998878
0.677882
0.657013
0.696439
0.758463
0.712878
0.534242
0.469855
0.444555
0.411602
0.351584
0.328842
0.329869
0.360651
0.385039
0.37939
0.368831
0.400692
0.465795
0.576526
0.845427
0.957549
0.981673
0.98577
0.985653
0.98046
0.966195
0.941848
0.921441
0.912052
0.907696
0.904955
0.902857
0.900634
0.89686
0.892967
0.888337
0.883504
0.879814
0.877145
0.875744
0.875009
0.87458
0.874306
0.874137
0.874048
0.874014
0.874124
0.874438
0.874975
0.875674
0.876494
0.877677
0.879184
0.880645
0.882785
0.887455
0.899597
0.914266
0.921802
0.924494
0.925617
0.927262
0.931001
0.945102
0.969246
0.985431
0.993991
0.997787
0.999249
0.999757
0.999922
0.999974
0.999992
0.999997
0.999998
0.999988
0.999855
0.998557
0.987223
0.940197
0.904295
0.807715
0.621937
0.600293
0.664666
0.781748
0.785576
0.76804
0.75537
0.755982
0.763879
0.767058
0.764746
0.75928
0.75951
0.76249
0.762612
0.758468
0.744193
0.719155
0.69089
0.637117
0.540306
0.429647
0.350393
0.30228
0.270969
0.255294
0.259471
0.292935
0.383692
0.505913
0.606003
0.660347
0.679958
0.679161
0.669961
0.659434
0.657336
0.659869
0.678314
0.713966
0.740956
0.771813
0.814801
0.864805
0.911413
0.947249
0.970899
0.98491
0.992517
0.996356
0.998256
0.999179
0.999538
0.999661
0.999649
0.999606
0.999488
0.99935
0.999352
0.999362
0.999261
0.998909
0.99847
0.997568
0.995329
0.992656
0.99164
0.991743
0.992795
0.992815
0.991619
0.985474
0.961263
0.896561
0.856168
0.846629
0.850576
0.87348
0.919835
0.949801
0.965967
0.974559
0.97988
0.98396
0.987302
0.989817
0.991419
0.992181
0.992351
0.992241
0.991623
0.991208
0.991189
0.991613
0.993546
0.996003
0.997656
0.998702
0.670906
0.658856
0.705823
0.76488
0.741093
0.580896
0.489357
0.459202
0.442656
0.412147
0.381095
0.366562
0.375865
0.387238
0.382218
0.369302
0.387462
0.435789
0.521498
0.767527
0.932748
0.975909
0.984934
0.985845
0.98307
0.971132
0.946097
0.923331
0.912506
0.907693
0.904941
0.902894
0.900606
0.8963
0.891081
0.886032
0.881594
0.878234
0.876168
0.874963
0.874338
0.873969
0.873761
0.873598
0.873475
0.873453
0.873514
0.873694
0.874121
0.875026
0.876063
0.877123
0.878749
0.880333
0.882084
0.885275
0.893832
0.909496
0.920269
0.924602
0.925901
0.927085
0.929106
0.935813
0.958502
0.979417
0.990986
0.996476
0.998755
0.999596
0.999877
0.999964
0.99999
0.999997
0.999999
0.999998
0.999974
0.999686
0.996762
0.969769
0.926533
0.879538
0.723943
0.61793
0.624458
0.715927
0.772987
0.770812
0.757146
0.752899
0.757683
0.764371
0.763908
0.759818
0.759513
0.76228
0.76257
0.758605
0.741671
0.710359
0.657175
0.570233
0.454419
0.350655
0.283253
0.242046
0.22051
0.215301
0.221843
0.244515
0.311979
0.455338
0.581441
0.657825
0.689438
0.694921
0.689621
0.668829
0.657426
0.656128
0.662386
0.694426
0.728121
0.75623
0.79733
0.849116
0.900401
0.94105
0.968186
0.984004
0.99235
0.996492
0.998481
0.999283
0.999535
0.999495
0.999226
0.998822
0.997999
0.997439
0.997503
0.99785
0.998327
0.998412
0.998222
0.997485
0.995705
0.993329
0.99098
0.989931
0.989975
0.990665
0.990632
0.988931
0.980279
0.944794
0.887658
0.862793
0.860085
0.86935
0.906569
0.943591
0.964206
0.974751
0.980443
0.984363
0.987719
0.990623
0.99283
0.994188
0.994774
0.994872
0.994744
0.994243
0.994008
0.994022
0.994415
0.995951
0.997557
0.998601
0.66871
0.667222
0.729624
0.772935
0.755982
0.644242
0.516721
0.474435
0.457804
0.445474
0.429172
0.415834
0.408518
0.397894
0.389494
0.374053
0.385621
0.409578
0.464794
0.645042
0.879784
0.959751
0.981243
0.98542
0.984763
0.978862
0.958595
0.929658
0.915021
0.90855
0.905304
0.903344
0.901204
0.897109
0.891733
0.886488
0.88201
0.878525
0.876372
0.875072
0.874371
0.873965
0.873709
0.873518
0.873393
0.873368
0.873395
0.87351
0.87382
0.874605
0.875929
0.877015
0.878581
0.880432
0.882058
0.884957
0.892198
0.907978
0.919845
0.925663
0.927296
0.927707
0.928559
0.932499
0.949635
0.973751
0.988062
0.995138
0.998203
0.999393
0.999811
0.999945
0.999985
0.999996
0.999999
0.999999
0.999996
0.999937
0.999226
0.99174
0.946726
0.909572
0.830458
0.665564
0.628356
0.648483
0.735726
0.764396
0.759646
0.750908
0.751801
0.759413
0.761913
0.759739
0.759181
0.761587
0.762105
0.757504
0.735024
0.693722
0.617963
0.511049
0.391405
0.299341
0.245115
0.217082
0.207052
0.206714
0.211722
0.22953
0.284899
0.435059
0.573883
0.656733
0.693432
0.701408
0.697877
0.675547
0.657686
0.653711
0.655915
0.678255
0.720266
0.748705
0.783565
0.835045
0.89024
0.935565
0.965984
0.983542
0.992498
0.996853
0.998727
0.999313
0.999269
0.99882
0.997128
0.995118
0.991454
0.989886
0.990203
0.991377
0.994155
0.996236
0.996924
0.996857
0.995949
0.993805
0.991548
0.989553
0.988508
0.988499
0.988723
0.988324
0.985374
0.971224
0.923047
0.883571
0.873495
0.876191
0.898432
0.938032
0.962277
0.975022
0.981443
0.985202
0.988204
0.990982
0.993373
0.995106
0.996087
0.996454
0.996488
0.996355
0.996053
0.995975
0.99602
0.996422
0.997609
0.998594
0.669811
0.684836
0.760896
0.786706
0.768518
0.682138
0.560744
0.494139
0.469598
0.46008
0.452903
0.445989
0.438933
0.42858
0.413671
0.394228
0.393178
0.405068
0.431206
0.521736
0.768565
0.920759
0.969809
0.982993
0.984586
0.983012
0.974179
0.945202
0.922031
0.911471
0.906524
0.904097
0.902695
0.899819
0.894043
0.888352
0.883617
0.879772
0.877253
0.875659
0.874724
0.87418
0.873869
0.873644
0.873511
0.873506
0.873547
0.873676
0.873956
0.874558
0.876407
0.878116
0.87936
0.881154
0.883293
0.886724
0.894387
0.910125
0.922904
0.928143
0.928826
0.928254
0.928439
0.931245
0.945782
0.970855
0.986467
0.994399
0.997905
0.999285
0.999775
0.999934
0.999982
0.999995
0.999999
1
0.999999
0.999988
0.999825
0.997881
0.976992
0.927262
0.882884
0.753884
0.647263
0.638438
0.671876
0.74413
0.754849
0.750628
0.748879
0.752638
0.759241
0.759035
0.758199
0.75996
0.760653
0.75569
0.732141
0.670254
0.573931
0.46286
0.35758
0.281806
0.236851
0.213887
0.20621
0.206168
0.210434
0.226829
0.279943
0.43495
0.591845
0.67407
0.703995
0.708905
0.703925
0.67805
0.655382
0.648976
0.650341
0.66758
0.714689
0.745949
0.777589
0.825902
0.882443
0.93138
0.96462
0.983457
0.992995
0.997346
0.99884
0.999039
0.998468
0.996048
0.989133
0.981927
0.97185
0.968156
0.968892
0.971989
0.97964
0.988261
0.993193
0.994955
0.994986
0.994073
0.991995
0.989881
0.988258
0.987348
0.98714
0.987009
0.985909
0.979887
0.952001
0.905567
0.887333
0.886699
0.898181
0.934188
0.961042
0.975409
0.982646
0.986432
0.989036
0.991422
0.993662
0.995498
0.996731
0.997364
0.997568
0.997576
0.997487
0.997394
0.997391
0.997469
0.997906
0.99869
0.675112
0.70368
0.784441
0.802371
0.784365
0.715777
0.617764
0.530708
0.482846
0.468755
0.462907
0.459371
0.456061
0.451118
0.443216
0.428659
0.414306
0.411762
0.42073
0.460789
0.616404
0.842713
0.942829
0.975232
0.983194
0.983211
0.98056
0.968443
0.937035
0.918308
0.909522
0.905547
0.903637
0.902228
0.899198
0.892876
0.887019
0.882447
0.879226
0.877083
0.875718
0.87487
0.874412
0.874075
0.873913
0.873924
0.874014
0.874256
0.874745
0.875729
0.877806
0.87986
0.881391
0.882419
0.884437
0.889274
0.902486
0.919599
0.929045
0.930888
0.929809
0.928231
0.928314
0.930948
0.944826
0.97012
0.986079
0.994224
0.997835
0.999258
0.999765
0.999931
0.999981
0.999995
0.999999
1
1
0.999998
0.999958
0.999417
0.9933
0.950232
0.909059
0.826451
0.687535
0.642344
0.647441
0.698463
0.741583
0.747336
0.746493
0.747489
0.753832
0.757343
0.757249
0.757891
0.758035
0.754388
0.733925
0.672812
0.572961
0.462559
0.360129
0.286281
0.241531
0.217504