/*--------------------------------*- C++ -*----------------------------------*\
  =========                 |
  \\      /  F ield         | OpenFOAM: The Open Source CFD Toolbox
   \\    /   O peration     | Website:  https://openfoam.org
    \\  /    A nd           | Version:  7
     \\/     M anipulation  |
\*---------------------------------------------------------------------------*/
FoamFile
{
    version     2.0;
    format      ascii;
    class       volVectorField;
    location    "0.102";
    object      U;
}
// * * * * * * * * * * * * * * * * * * * * * * * * * * * * * * * * * * * * * //

dimensions      [0 1 -1 0 0 0 0];

internalField   nonuniform List<vector> 
12225
(
(4.75816 0.169447 0)
(4.13877 0.116421 0)
(3.63097 0.103313 0)
(3.22996 0.0826479 0)
(2.88795 0.0680911 0)
(2.55724 0.06127 0)
(2.23248 0.055708 0)
(1.92428 0.050065 0)
(1.63944 0.0443637 0)
(1.38805 0.0367474 0)
(1.17172 0.0275003 0)
(0.990203 0.0182028 0)
(0.835437 0.0112711 0)
(0.711955 0.00709832 0)
(0.595123 0.0039525 0)
(0.509034 0.004994 0)
(0.382994 0.00375647 0)
(0.310118 -0.00765688 0)
(5.01494 0.13142 0)
(4.87376 0.0851515 0)
(4.72901 0.100172 0)
(4.60864 0.0987881 0)
(4.49611 0.0951774 0)
(4.37822 0.0994627 0)
(4.24516 0.106663 0)
(4.0921 0.109102 0)
(3.9245 0.10539 0)
(3.76291 0.0990774 0)
(3.61286 0.0927483 0)
(3.47661 0.0868126 0)
(3.33405 0.0811567 0)
(3.1966 0.0767448 0)
(3.03506 0.0751191 0)
(2.8882 0.0739266 0)
(2.7059 0.0808113 0)
(2.55475 0.078708 0)
(4.95119 0.158002 0)
(4.83198 0.133655 0)
(4.75344 0.148371 0)
(4.73204 0.141286 0)
(4.72175 0.127188 0)
(4.69677 0.123891 0)
(4.66497 0.131012 0)
(4.63197 0.138914 0)
(4.59558 0.140941 0)
(4.55819 0.136667 0)
(4.52021 0.127607 0)
(4.48139 0.119106 0)
(4.4344 0.114712 0)
(4.37824 0.115081 0)
(4.30819 0.120413 0)
(4.22735 0.127413 0)
(4.13794 0.138305 0)
(4.03368 0.149113 0)
(5.03504 0.233178 0)
(4.83553 0.132829 0)
(4.74872 0.126711 0)
(4.75761 0.121113 0)
(4.7658 0.115993 0)
(4.738 0.121228 0)
(4.69978 0.130431 0)
(4.67415 0.134882 0)
(4.66427 0.13206 0)
(4.66563 0.124359 0)
(4.67303 0.115977 0)
(4.67923 0.11128 0)
(4.67941 0.112773 0)
(4.66834 0.120008 0)
(4.64821 0.132934 0)
(4.61646 0.147111 0)
(4.58223 0.164174 0)
(4.53972 0.182255 0)
(4.90908 0.247882 0)
(4.82522 0.176734 0)
(4.78653 0.140316 0)
(4.78828 0.132277 0)
(4.78317 0.134573 0)
(4.76422 0.141597 0)
(4.74446 0.147486 0)
(4.7291 0.146696 0)
(4.71671 0.139197 0)
(4.70609 0.12901 0)
(4.69697 0.120646 0)
(4.68678 0.117203 0)
(4.67504 0.120589 0)
(4.66085 0.129828 0)
(4.64709 0.143784 0)
(4.63434 0.159215 0)
(4.62561 0.175592 0)
(4.62037 0.192355 0)
(4.92259 0.271909 0)
(4.89465 0.179578 0)
(4.84437 0.128453 0)
(4.80831 0.123515 0)
(4.78834 0.126461 0)
(4.77782 0.133222 0)
(4.77436 0.141647 0)
(4.77234 0.145243 0)
(4.76556 0.141972 0)
(4.7525 0.134695 0)
(4.73517 0.127527 0)
(4.7147 0.123927 0)
(4.69296 0.12633 0)
(4.67157 0.134516 0)
(4.65329 0.146979 0)
(4.6402 0.161314 0)
(4.63339 0.175166 0)
(4.63339 0.188776 0)
(4.85723 0.255659 0)
(4.91985 0.176969 0)
(4.89819 0.151037 0)
(4.86988 0.153455 0)
(4.85013 0.154735 0)
(4.83176 0.154119 0)
(4.81318 0.153555 0)
(4.79469 0.151184 0)
(4.77812 0.146496 0)
(4.76614 0.14094 0)
(4.75917 0.136589 0)
(4.75345 0.135479 0)
(4.74545 0.139059 0)
(4.73333 0.147053 0)
(4.71867 0.157386 0)
(4.70387 0.168367 0)
(4.69271 0.177693 0)
(4.68597 0.18605 0)
(4.96481 0.304796 0)
(4.88722 0.171631 0)
(4.87003 0.13391 0)
(4.86748 0.130964 0)
(4.86534 0.134731 0)
(4.86519 0.144296 0)
(4.86534 0.154617 0)
(4.86214 0.157657 0)
(4.85556 0.151575 0)
(4.84789 0.140933 0)
(4.83983 0.13219 0)
(4.82957 0.1302 0)
(4.81601 0.13661 0)
(4.79914 0.149745 0)
(4.78202 0.165109 0)
(4.76585 0.179239 0)
(4.75565 0.189173 0)
(4.74881 0.194789 0)
(4.99115 0.271914 0)
(4.98888 0.19085 0)
(4.95631 0.155823 0)
(4.92386 0.1586 0)
(4.89891 0.158505 0)
(4.88106 0.15489 0)
(4.87101 0.154287 0)
(4.86751 0.154971 0)
(4.86765 0.153715 0)
(4.86708 0.150948 0)
(4.86138 0.149077 0)
(4.84872 0.150446 0)
(4.83218 0.156093 0)
(4.81669 0.164872 0)
(4.80826 0.17396 0)
(4.80744 0.181031 0)
(4.81665 0.184429 0)
(4.82908 0.185382 0)
(4.97207 0.259101 0)
(4.93625 0.179971 0)
(4.91446 0.146559 0)
(4.94118 0.142492 0)
(4.9514 0.151318 0)
(4.91737 0.164112 0)
(4.8617 0.169867 0)
(4.81865 0.163556 0)
(4.80388 0.150756 0)
(4.81213 0.140643 0)
(4.82989 0.138492 0)
(4.84641 0.144255 0)
(4.85815 0.154582 0)
(4.86628 0.165342 0)
(4.8737 0.173447 0)
(4.88122 0.177638 0)
(4.88935 0.178564 0)
(4.89469 0.178269 0)
(5.04895 0.24923 0)
(5.00749 0.196984 0)
(4.981 0.163038 0)
(4.93904 0.150845 0)
(4.89589 0.166855 0)
(4.86327 0.189077 0)
(4.84553 0.193568 0)
(4.84049 0.177881 0)
(4.84185 0.155361 0)
(4.84534 0.138792 0)
(4.85076 0.132887 0)
(4.85916 0.136029 0)
(4.87124 0.143932 0)
(4.88547 0.152851 0)
(4.89971 0.16037 0)
(4.91158 0.165934 0)
(4.91955 0.170128 0)
(4.92424 0.173508 0)
(4.90778 0.280523 0)
(4.89698 0.185681 0)
(4.91691 0.164725 0)
(4.91516 0.168993 0)
(4.8989 0.184944 0)
(4.88961 0.197031 0)
(4.89168 0.191985 0)
(4.89766 0.172195 0)
(4.90344 0.149462 0)
(4.91038 0.133432 0)
(4.92016 0.127378 0)
(4.93106 0.129997 0)
(4.93973 0.138081 0)
(4.94202 0.148602 0)
(4.93726 0.158767 0)
(4.92668 0.167609 0)
(4.9142 0.173933 0)
(4.90388 0.178152 0)
(5.10558 0.253489 0)
(5.06879 0.202013 0)
(4.99312 0.172885 0)
(4.93187 0.166707 0)
(4.90733 0.176005 0)
(4.91969 0.183888 0)
(4.94912 0.180613 0)
(4.97276 0.166841 0)
(4.97898 0.148551 0)
(4.97007 0.13245 0)
(4.95566 0.124197 0)
(4.94338 0.126274 0)
(4.93666 0.137198 0)
(4.9335 0.152819 0)
(4.93309 0.167534 0)
(4.93299 0.178035 0)
(4.93648 0.181917 0)
(4.94092 0.180373 0)
(4.95293 0.240203 0)
(4.99515 0.221256 0)
(5.00141 0.215649 0)
(4.98456 0.201562 0)
(4.97327 0.192588 0)
(4.97342 0.182004 0)
(4.97999 0.168951 0)
(4.98532 0.158076 0)
(4.98334 0.151274 0)
(4.97306 0.146947 0)
(4.95924 0.144036 0)
(4.94878 0.143561 0)
(4.94644 0.146838 0)
(4.95294 0.153507 0)
(4.96574 0.16117 0)
(4.98133 0.167284 0)
(4.99691 0.16984 0)
(5.01037 0.168713 0)
(4.95123 0.252423 0)
(4.90138 0.195427 0)
(4.90907 0.18828 0)
(4.91683 0.183915 0)
(4.93633 0.179144 0)
(4.96333 0.173362 0)
(4.98686 0.168032 0)
(5.0004 0.164611 0)
(5.0024 0.160983 0)
(4.99492 0.154169 0)
(4.98201 0.144449 0)
(4.96806 0.13517 0)
(4.95613 0.129854 0)
(4.94786 0.130303 0)
(4.94305 0.134864 0)
(4.94223 0.141348 0)
(4.944 0.146401 0)
(4.95018 0.148744 0)
(5.05603 0.311876 0)
(5.01626 0.248567 0)
(4.98883 0.205097 0)
(4.97478 0.178535 0)
(4.97918 0.158666 0)
(4.98735 0.143721 0)
(4.99334 0.136873 0)
(4.9994 0.14087 0)
(5.00669 0.152021 0)
(5.01383 0.163221 0)
(5.01858 0.170383 0)
(5.01909 0.173949 0)
(5.01541 0.175888 0)
(5.00896 0.177663 0)
(5.00288 0.177926 0)
(4.99835 0.175371 0)
(4.99799 0.168152 0)
(4.99962 0.156418 0)
(5.04086 0.321952 0)
(5.04191 0.28215 0)
(5.02789 0.225927 0)
(5.01299 0.180142 0)
(5.01623 0.159561 0)
(5.01684 0.157209 0)
(5.00596 0.159627 0)
(4.98983 0.157798 0)
(4.97595 0.150457 0)
(4.96823 0.141367 0)
(4.96752 0.134732 0)
(4.97241 0.132533 0)
(4.98159 0.134129 0)
(4.99366 0.13721 0)
(5.00896 0.139238 0)
(5.0261 0.138922 0)
(5.04544 0.135886 0)
(5.06412 0.131891 0)
(5.10414 0.357225 0)
(5.06584 0.30831 0)
(5.03723 0.252048 0)
(5.00928 0.200917 0)
(4.9983 0.166675 0)
(5.00247 0.15715 0)
(5.01679 0.164881 0)
(5.03438 0.175665 0)
(5.04849 0.179778 0)
(5.05512 0.175536 0)
(5.05374 0.166284 0)
(5.04658 0.155819 0)
(5.03779 0.145905 0)
(5.03118 0.136244 0)
(5.02951 0.125057 0)
(5.03359 0.112618 0)
(5.043 0.0985144 0)
(5.05627 0.0866183 0)
(5.03656 0.389318 0)
(5.02712 0.353823 0)
(5.03921 0.264788 0)
(5.0432 0.199613 0)
(5.03022 0.153348 0)
(5.01494 0.121973 0)
(5.01024 0.105071 0)
(5.01973 0.102274 0)
(5.0397 0.112248 0)
(5.06471 0.130826 0)
(5.08987 0.150999 0)
(5.11181 0.165134 0)
(5.12943 0.167601 0)
(5.14289 0.157073 0)
(5.15235 0.135877 0)
(5.15763 0.109751 0)
(5.15939 0.0836359 0)
(5.15748 0.0630568 0)
(4.98963 0.277365 0)
(4.98056 0.308472 0)
(4.9882 0.267514 0)
(4.99825 0.238768 0)
(5.01341 0.222058 0)
(5.03424 0.195231 0)
(5.05099 0.158525 0)
(5.05882 0.121892 0)
(5.06312 0.0938629 0)
(5.0732 0.0780051 0)
(5.09387 0.0731484 0)
(5.12271 0.0757446 0)
(5.15364 0.081803 0)
(5.18059 0.0887429 0)
(5.20008 0.0948202 0)
(5.21066 0.0991046 0)
(5.214 0.101198 0)
(5.21185 0.0999812 0)
(4.83497 0.275171 0)
(4.83123 0.271298 0)
(4.88585 0.224257 0)
(4.95966 0.15785 0)
(5.01967 0.105415 0)
(5.07037 0.0804245 0)
(5.11408 0.0793771 0)
(5.14522 0.0856999 0)
(5.16227 0.085048 0)
(5.16954 0.0750127 0)
(5.17243 0.0621689 0)
(5.17457 0.0542039 0)
(5.17827 0.054469 0)
(5.18442 0.0616332 0)
(5.19361 0.0710215 0)
(5.20518 0.078329 0)
(5.21895 0.0805874 0)
(5.23366 0.0771611 0)
(5.01834 0.311781 0)
(5.00082 0.219772 0)
(5.05518 0.148776 0)
(5.10645 0.13037 0)
(5.11298 0.116995 0)
(5.09959 0.0977458 0)
(5.09332 0.0812009 0)
(5.10105 0.0728159 0)
(5.11895 0.0707006 0)
(5.14113 0.0706178 0)
(5.16268 0.0702702 0)
(5.18098 0.0694717 0)
(5.19602 0.0684809 0)
(5.20871 0.0672249 0)
(5.22014 0.0649315 0)
(5.23047 0.0614549 0)
(5.24027 0.0565487 0)
(5.24894 0.0512835 0)
(4.95797 0.209784 0)
(4.99513 0.171662 0)
(5.01855 0.122457 0)
(5.04245 0.0996008 0)
(5.05883 0.0956239 0)
(5.07497 0.0854527 0)
(5.09296 0.0655146 0)
(5.11408 0.0447075 0)
(5.14045 0.0285878 0)
(5.17213 0.0177557 0)
(5.20668 0.0117863 0)
(5.24052 0.0112388 0)
(5.27102 0.0163046 0)
(5.29665 0.0253881 0)
(5.31709 0.0350781 0)
(5.33213 0.0423857 0)
(5.34306 0.0450812 0)
(5.34977 0.0424802 0)
(4.95358 0.211294 0)
(5.01369 0.137634 0)
(5.05172 0.124022 0)
(5.09188 0.116389 0)
(5.12176 0.105751 0)
(5.14469 0.0862995 0)
(5.16313 0.0616127 0)
(5.17814 0.0386505 0)
(5.19271 0.0205367 0)
(5.20931 0.00763213 0)
(5.22844 0.000799919 0)
(5.25015 0.000747632 0)
(5.27434 0.00645438 0)
(5.30013 0.0157417 0)
(5.32651 0.0256479 0)
(5.35104 0.0335701 0)
(5.37267 0.0384803 0)
(5.38978 0.0397299 0)
(5.07497 0.284615 0)
(5.05061 0.116012 0)
(5.09045 0.0731868 0)
(5.15694 0.0591267 0)
(5.21056 0.0498314 0)
(5.24881 0.0387726 0)
(5.28178 0.024666 0)
(5.31225 0.00982638 0)
(5.33564 -0.0032336 0)
(5.34733 -0.0160156 0)
(5.34708 -0.0276409 0)
(5.33826 -0.0347243 0)
(5.32759 -0.0353691 0)
(5.32133 -0.0300067 0)
(5.32354 -0.0209862 0)
(5.33451 -0.0112328 0)
(5.35307 -0.00269265 0)
(5.37559 0.00314405 0)
(4.923 0.276095 0)
(5.03625 0.105206 0)
(5.14522 0.0623828 0)
(5.23053 0.0629696 0)
(5.28568 0.059632 0)
(5.31486 0.0457554 0)
(5.32993 0.0255289 0)
(5.34272 0.00701919 0)
(5.35574 -0.00235808 0)
(5.36577 0.000117629 0)
(5.37261 0.00825989 0)
(5.37786 0.0151635 0)
(5.38396 0.0175562 0)
(5.39311 0.015155 0)
(5.40718 0.00952254 0)
(5.42578 0.00296981 0)
(5.44857 -0.00347995 0)
(5.47293 -0.00838514 0)
(4.98005 0.189255 0)
(5.05795 0.0170081 0)
(5.14799 -0.00944925 0)
(5.22047 -0.00647712 0)
(5.2843 -0.00347097 0)
(5.33637 -0.000694062 0)
(5.36948 -0.00217358 0)
(5.38586 -0.00836854 0)
(5.39457 -0.0185711 0)
(5.40362 -0.0281502 0)
(5.41837 -0.0348705 0)
(5.44152 -0.0392892 0)
(5.47152 -0.0421062 0)
(5.50407 -0.04385 0)
(5.53511 -0.0448082 0)
(5.56148 -0.0450117 0)
(5.58263 -0.0445784 0)
(5.5977 -0.0433058 0)
(5.05684 0.158654 0)
(5.13053 0.0499989 0)
(5.235 0.0178498 0)
(5.30922 0.00281892 0)
(5.36537 -0.000878854 0)
(5.40797 0.00180032 0)
(5.43972 0.000997153 0)
(5.46688 -0.0037772 0)
(5.49219 -0.00804354 0)
(5.51579 -0.0114926 0)
(5.53807 -0.0151105 0)
(5.55986 -0.0198912 0)
(5.58092 -0.0251625 0)
(5.60023 -0.0295906 0)
(5.61715 -0.0320832 0)
(5.63171 -0.0326348 0)
(5.64459 -0.0317133 0)
(5.65608 -0.0299942 0)
(5.05582 0.0462973 0)
(5.24775 -0.0332321 0)
(5.35051 -0.0475305 0)
(5.35846 -0.0617334 0)
(5.34343 -0.0546578 0)
(5.35176 -0.0373276 0)
(5.38813 -0.0289324 0)
(5.43778 -0.033879 0)
(5.48406 -0.0440488 0)
(5.51741 -0.0531587 0)
(5.53604 -0.059492 0)
(5.54237 -0.0634954 0)
(5.5388 -0.0655742 0)
(5.52811 -0.0660249 0)
(5.51241 -0.0650629 0)
(5.49547 -0.0632712 0)
(5.47825 -0.0609643 0)
(5.46443 -0.0583378 0)
(4.90487 0.0752638 0)
(5.0631 -0.00393918 0)
(5.0275 -0.00156101 0)
(4.87938 -0.00462147 0)
(4.75201 -0.00767254 0)
(4.666 -0.0162082 0)
(4.58538 -0.0291165 0)
(4.48739 -0.0377005 0)
(4.37473 -0.0376733 0)
(4.2588 -0.0323132 0)
(4.14695 -0.0264721 0)
(4.04124 -0.0223792 0)
(3.94116 -0.0198413 0)
(3.84703 -0.0181716 0)
(3.75863 -0.0171165 0)
(3.67708 -0.0168066 0)
(3.60001 -0.0170111 0)
(3.53004 -0.0173318 0)
(-0.0850589 0.193776 -2.8102e-20)
(-0.277328 0.18862 2.78945e-20)
(-0.405972 0.110188 0)
(-0.422357 4.72663e-05 0)
(-0.35298 -0.0801865 0)
(-0.226477 -0.127683 -2.70556e-20)
(-0.0795544 -0.127698 0)
(0.0558792 -0.0977123 0)
(0.153507 -0.0416657 0)
(0.198357 0.0439654 0)
(0.174235 0.0685947 2.60285e-20)
(0.128709 -0.0453462 0)
(0.105021 -0.104529 0)
(0.115132 -0.0496326 0)
(0.135365 -0.00841756 0)
(0.129087 0.00344638 2.50625e-20)
(0.135844 -0.00715596 0)
(0.18026 -0.0506282 0)
(0.254885 -0.0992843 0)
(0.341618 -0.137441 0)
(0.425161 -0.161583 0)
(0.483489 -0.170501 0)
(0.500777 -0.176408 0)
(0.453444 -0.183097 2.35927e-20)
(0.349389 -0.127891 -2.34248e-20)
(0.166627 0.0706495 2.32548e-20)
(-0.126054 0.276442 2.30659e-20)
(-0.461356 0.35347 0)
(-0.800788 0.355144 0)
(-1.11321 0.308043 -2.25092e-20)
(-1.38775 0.261727 -2.23494e-20)
(-1.64277 0.22374 0)
(-1.87973 0.197502 0)
(-2.10803 0.183504 -2.19127e-20)
(-2.33105 0.176497 0)
(-2.55047 0.17516 0)
(-2.76665 0.17575 2.14988e-20)
(-2.9767 0.176279 0)
(-3.17716 0.173959 2.1219e-20)
(-3.36297 0.166947 4.21503e-20)
(-3.5293 0.15415 0)
(-3.6715 0.135575 0)
(-3.78633 0.112315 0)
(-3.87211 0.0861899 0)
(-3.92847 0.059347 0)
(-3.95589 0.0337914 4.01961e-20)
(-3.95576 0.0110049 3.98181e-20)
(-3.93261 -0.00896657 3.94232e-20)
(-3.88849 -0.0262376 0)
(-3.82577 -0.0410532 -3.85877e-20)
(-3.74596 -0.0537539 0)
(-3.65016 -0.0648346 3.7698e-20)
(-3.53851 -0.0750032 3.72362e-20)
(-3.41092 -0.0851175 0)
(-3.26685 -0.095946 0)
(-3.10537 -0.107822 0)
(-2.92533 -0.120546 3.53185e-20)
(-2.72603 -0.133476 0)
(-2.50764 -0.145795 0)
(-2.27088 -0.156692 0)
(-2.01624 -0.165538 0)
(-1.74399 -0.172188 0)
(-1.45439 -0.176803 0)
(-1.1469 -0.178766 0)
(-0.820417 -0.177112 0)
(-0.477798 -0.175729 -3.12287e-20)
(-0.11436 -0.180343 0)
(0.283873 -0.236765 0)
(0.67602 -0.339539 3.01546e-20)
(1.14807 -0.171091 2.98753e-20)
(1.26492 0.242759 0)
(0.820241 0.340712 -2.92122e-20)
(0.367599 0.206922 2.88965e-20)
(0.0898716 0.127948 0)
(-0.0924488 0.0945932 -2.82851e-20)
(-0.276769 0.059449 0)
(-0.447349 0.0139549 0)
(-0.511793 -0.0690737 2.74137e-20)
(-0.378181 -0.196723 0)
(-0.0023888 -0.329156 -2.67377e-20)
(0.603737 -0.409313 0)
(1.30266 -0.381561 2.60393e-20)
(1.91485 -0.335167 2.58135e-20)
(2.41022 -0.224035 2.5639e-20)
(2.67733 0.148986 5.08587e-20)
(2.31403 0.465177 -5.02215e-20)
(1.5063 0.343831 0)
(0.910246 0.106082 0)
(0.806768 -0.0725862 0)
(0.940227 -0.245479 -4.78851e-20)
(1.07239 -0.315728 -4.73555e-20)
(0.940277 -0.0616159 4.69096e-20)
(0.335711 0.307628 0)
(-0.443722 0.413065 -4.61176e-20)
(-1.16728 0.388745 -4.58249e-20)
(-1.80335 0.34083 -4.56188e-20)
(-2.34743 0.29079 0)
(-2.81002 0.245846 0)
(-3.20435 0.207792 0)
(-3.54198 0.176269 -4.49696e-20)
(-3.83214 0.150035 0)
(-4.08141 0.127684 0)
(-4.2941 0.107821 4.42952e-20)
(-4.47227 0.0892306 0)
(-4.6164 0.0712534 0)
(-4.7259 0.0534399 4.33225e-20)
(-4.79932 0.0352793 0)
(-4.83461 0.0168883 0)
(-4.82984 -0.000686596 -4.19374e-20)
(-4.78925 -0.0174697 -4.13711e-20)
(-4.70982 -0.033995 0)
(-4.59295 -0.0495895 4.00936e-20)
(-4.43906 -0.0643851 0)
(-4.24955 -0.0780741 -3.86592e-20)
(-4.02647 -0.0903729 0)
(-3.7725 -0.101035 -3.7128e-20)
(-3.49107 -0.109865 -3.63473e-20)
(-3.18639 -0.116814 0)
(-2.86352 -0.121757 0)
(-2.52819 -0.124487 0)
(-2.1863 -0.124934 0)
(-1.84314 -0.123226 0)
(-1.50328 -0.119749 0)
(-1.17086 -0.114933 0)
(-0.849177 -0.109266 -3.06967e-20)
(-0.541067 -0.102956 3.01246e-20)
(-0.247719 -0.0963963 0)
(0.0290807 -0.0907754 0)
(0.290215 -0.084482 0)
(0.537373 -0.0784874 0)
(0.770089 -0.0726164 5.52736e-20)
(0.988375 -0.0667385 0)
(1.19191 -0.0607432 -5.3582e-20)
(1.38006 -0.054555 5.27919e-20)
(1.55209 -0.0481921 0)
(1.70737 -0.0417333 0)
(1.84534 -0.0351653 0)
(1.96546 -0.028508 -4.99403e-20)
(2.06725 -0.0218478 -4.92898e-20)
(2.1502 -0.0149628 0)
(2.21284 -0.00790173 -4.80402e-20)
(2.25522 -0.000997099 -4.74334e-20)
(2.27552 0.00650391 4.68338e-20)
(2.27055 0.0147453 0)
(2.24193 0.0225197 0)
(2.19136 0.0294256 4.50429e-20)
(2.12102 0.0355855 0)
(2.03266 0.0418346 0)
(1.92617 0.0490302 0)
(1.80005 0.0566338 0)
(1.6538 0.0630194 -4.19646e-20)
(1.48919 0.0673066 -4.13318e-20)
(1.31022 0.0685697 0)
(1.12549 0.0638935 -4.00525e-20)
(0.949498 0.0517178 0)
(0.798721 0.0345192 0)
(0.683586 0.0171413 -3.80719e-20)
(0.606191 0.00373085 0)
(0.562512 -0.00449317 -3.6676e-20)
(0.544406 -0.00844876 0)
(0.543023 -0.00981518 0)
(0.550951 -0.00978638 -3.45244e-20)
(0.562996 -0.0089926 0)
(0.576157 -0.00797476 -3.31e-20)
(0.588475 -0.00691736 0)
(0.599529 -0.00581681 0)
(0.608681 -0.00466317 0)
(0.616709 -0.0035337 3.03286e-20)
(0.622628 -0.00246182 0)
(0.627903 -0.00155676 -2.89824e-20)
(0.630201 -0.00068347 0)
(0.632117 0.000103393 0)
(0.629383 0.0011459 0)
(0.625833 0.00199785 0)
(0.616605 0.0037524 0)
(0.601662 0.00443952 0)
(0.589052 0.00841769 0)
(0.541145 0.00675809 4.7678e-20)
(0.550019 0.0185333 0)
(0.403352 0.0072497 0)
(-0.0270769 0.542635 8.43525e-20)
(-0.179496 0.458149 -8.37476e-20)
(-0.257484 0.219509 0)
(-0.234067 -0.107221 5.50608e-20)
(-0.128143 -0.340003 0)
(0.0317018 -0.451917 2.70556e-20)
(0.193447 -0.451315 -5.37004e-20)
(0.329819 -0.367692 -5.3254e-20)
(0.433428 -0.233022 0)
(0.494816 -0.078663 -5.24316e-20)
(0.510526 0.07182 -2.60026e-20)
(0.4672 0.187651 0)
(0.318403 0.14394 0)
(0.152927 -0.0156042 0)
(0.0747834 -0.0137718 0)
(0.0352232 -0.00286244 -2.50693e-20)
(0.0228144 -0.0918283 0)
(0.0297441 -0.179166 4.93777e-20)
(0.0250899 -0.213767 0)
(-0.0217189 -0.187813 0)
(-0.12856 -0.117022 -4.82938e-20)
(-0.285724 0.0261438 0)
(-0.501315 0.246738 4.75398e-20)
(-0.790812 0.448393 -2.35806e-20)
(-1.08976 0.609386 2.33815e-20)
(-1.35133 0.731773 -2.31765e-20)
(-1.58535 0.783302 -2.2971e-20)
(-1.79305 0.76336 0)
(-1.99982 0.716585 0)
(-2.20979 0.661834 2.24346e-20)
(-2.42405 0.620686 -2.23727e-20)
(-2.64657 0.590613 0)
(-2.86881 0.570769 0)
(-3.08849 0.555513 2.1851e-20)
(-3.29905 0.540323 0)
(-3.49673 0.521611 0)
(-3.67747 0.496072 -2.14448e-20)
(-3.83859 0.462175 0)
(-3.97841 0.419193 2.12705e-20)
(-4.09586 0.36789 -4.20687e-20)
(-4.19086 0.309892 0)
(-4.26413 0.247668 0)
(-4.31707 0.183989 -8.25413e-20)
(-4.35101 0.121496 -8.18898e-20)
(-4.36712 0.0623739 -8.12053e-20)
(-4.36624 0.00801656 4.03249e-20)
(-4.34973 -0.0412452 -3.97845e-20)
(-4.31651 -0.0852661 -1.18315e-19)
(-4.26665 -0.124828 7.80975e-20)
(-4.20054 -0.160878 3.8553e-20)
(-4.11846 -0.194529 0)
(-4.02065 -0.226821 -3.76624e-20)
(-3.90761 -0.258716 3.73204e-20)
(-3.77962 -0.290952 0)
(-3.63691 -0.323921 0)
(-3.47925 -0.357569 0)
(-3.30619 -0.391527 -3.528e-20)
(-3.11738 -0.425348 0)
(-2.91255 -0.458691 6.87216e-20)
(-2.69122 -0.491383 0)
(-2.45273 -0.523573 6.68088e-20)
(-2.19671 -0.555888 0)
(-1.92289 -0.589347 -6.49765e-20)
(-1.63027 -0.625097 0)
(-1.31671 -0.664366 6.32676e-20)
(-0.978919 -0.707278 -3.12966e-20)
(-0.613843 -0.750209 0)
(-0.205037 -0.782571 -6.10652e-20)
(0.147004 -0.784789 -3.01643e-20)
(0.483302 -0.484971 -2.98916e-20)
(0.889938 0.155245 0)
(0.999165 0.603003 -2.92602e-20)
(0.841199 0.616616 -2.88624e-20)
(0.665824 0.407401 0)
(0.56601 0.30637 2.82659e-20)
(0.452328 0.313145 -5.59452e-20)
(0.314306 0.236566 0)
(0.179685 -0.00770467 -2.74274e-20)
(0.122081 -0.377549 0)
(0.265444 -0.794885 8.03038e-20)
(0.627858 -1.12069 0)
(1.16772 -1.1461 -7.82575e-20)
(1.72517 -0.925841 -2.58025e-20)
(2.06482 -0.546995 2.58515e-20)
(2.33013 0.0118318 5.1314e-20)
(2.35923 0.622147 -5.06062e-20)
(1.86965 0.984912 0)
(1.52167 0.692911 0)
(1.48996 0.0368274 0)
(1.16393 -0.0883902 1.43694e-19)
(0.376755 0.379838 4.74277e-20)
(-0.513705 0.854776 -4.69307e-20)
(-1.30362 1.05831 0)
(-1.93616 1.02693 -4.63994e-20)
(-2.44425 0.912075 4.57006e-20)
(-2.86105 0.779071 4.55159e-20)
(-3.2059 0.655413 0)
(-3.49515 0.549649 0)
(-3.74158 0.462523 0)
(-3.95386 0.391274 4.49287e-20)
(-4.13801 0.332076 0)
(-4.29773 0.28111 -8.92047e-20)
(-4.43508 0.234976 -1.32978e-19)
(-4.55049 0.191033 8.81327e-20)
(-4.64312 0.147416 0)
(-4.71117 0.102979 4.34522e-20)
(-4.75245 0.0569693 0)
(-4.76521 0.00946502 8.5044e-20)
(-4.74801 -0.0381568 -4.2069e-20)
(-4.69385 -0.0857978 -4.14979e-20)
(-4.60432 -0.132921 0)
(-4.47801 -0.178492 -1.20398e-19)
(-4.31564 -0.221912 7.88937e-20)
(-4.11819 -0.262422 3.86573e-20)
(-3.88725 -0.299246 0)
(-3.62523 -0.331538 3.71241e-20)
(-3.33528 -0.358516 1.09121e-19)
(-3.02125 -0.379627 0)
(-2.68772 -0.394435 6.96682e-20)
(-2.34017 -0.402527 6.8155e-20)
(-1.9846 -0.403654 6.66877e-20)
(-1.6265 -0.398228 0)
(-1.27072 -0.387495 0)
(-0.921865 -0.372731 0)
(-0.583677 -0.355108 -3.07333e-20)
(-0.25984 -0.335021 -3.01254e-20)
(0.0476107 -0.315453 0)
(0.33843 -0.296926 -5.81271e-20)
(0.613607 -0.278128 -5.71199e-20)
(0.873391 -0.260128 0)
(1.11785 -0.242727 -5.52402e-20)
(1.34691 -0.225557 -1.08776e-19)
(1.56012 -0.208255 5.35508e-20)
(1.75672 -0.190607 5.27754e-20)
(1.936 -0.172609 0)
(2.09743 -0.154366 0)
(2.24068 -0.135938 0)
(2.36576 -0.117326 4.99156e-20)
(2.47275 -0.0984597 -4.92675e-20)
(2.56104 -0.0790265 -9.72728e-20)
(2.63104 -0.0590238 4.8019e-20)
(2.68144 -0.0382846 -4.74199e-20)
(2.71247 -0.0162485 -4.68146e-20)
(2.72674 0.00571678 0)
(2.72346 0.0260937 0)
(2.70225 0.0443241 4.50399e-20)
(2.66334 0.0602066 0)
(2.6081 0.0743393 0)
(2.53975 0.0880012 -8.63993e-20)
(2.4631 0.102308 0)
(2.38218 0.116777 -4.19613e-20)
(2.29826 0.129015 4.12962e-20)
(2.2105 0.136709 0)
(2.11922 0.137925 -4.00343e-20)
(2.02658 0.130153 0)
(1.93595 0.112516 0)
(1.85135 0.0874591 3.80293e-20)
(1.77706 0.0602926 -7.46792e-20)
(1.71723 0.0358206 3.66376e-20)
(1.6738 0.0169271 0)
(1.64537 0.00434782 0)
(1.62895 -0.00270238 -3.44906e-20)
(1.6207 -0.00565249 0)
(1.61694 -0.00628947 -3.30696e-20)
(1.61466 -0.00588612 0)
(1.6125 -0.00521446 0)
(1.60959 -0.00460592 0)
(1.60662 -0.00418622 -3.03045e-20)
(1.60322 -0.00368388 0)
(1.60067 -0.00313203 2.89602e-20)
(1.5976 -0.00196381 0)
(1.59528 -0.000862424 0)
(1.59138 0.00152168 -5.39759e-20)
(1.58662 0.00288589 5.26849e-20)
(1.58047 0.00732589 0)
(1.56777 0.00811936 0)
(1.56139 0.0172324 0)
(1.52646 0.0149958 -1.42928e-19)
(1.5337 0.0354506 0)
(1.4378 0.0256776 9.04368e-20)
(0.054784 0.615938 4.6706e-23)
(0.00284979 0.648039 1.11768e-19)
(0.0551336 0.266317 0)
(0.190558 -0.260974 -1.10137e-19)
(0.370926 -0.627048 0)
(0.531333 -0.772104 0)
(0.655988 -0.741874 -8.71431e-23)
(0.743363 -0.589584 5.31713e-20)
(0.794622 -0.367811 5.2862e-20)
(0.811673 -0.110718 5.23789e-20)
(0.791332 0.137629 0)
(0.731781 0.357837 0)
(0.615259 0.496618 -5.12309e-20)
(0.402876 0.430939 -1.01697e-19)
(0.164582 0.231466 1.00965e-19)
(0.0299577 0.11005 0)
(-0.0726024 0.0121885 9.94697e-20)
(-0.186607 -0.0411676 -4.9354e-20)
(-0.342313 0.0165944 0)
(-0.544376 0.152529 9.71248e-20)
(-0.795127 0.341324 4.81961e-20)
(-1.06506 0.546464 -9.55783e-20)
(-1.31876 0.725584 -4.74143e-20)
(-1.56362 0.869039 0)
(-1.78153 0.975957 9.33549e-20)
(-1.96846 1.04347 9.26509e-20)
(-2.1359 1.06769 0)
(-2.29318 1.06039 9.13014e-20)
(-2.45987 1.03765 0)
(-2.63693 1.00795 9.00384e-20)
(-2.82275 0.977022 4.45868e-20)
(-3.01131 0.942904 0)
(-3.19588 0.906703 0)
(-3.37358 0.866486 0)
(-3.5412 0.822004 0)
(-3.69759 0.772125 0)
(-3.84125 0.716038 0)
(-3.97137 0.653252 8.56626e-20)
(-4.08694 0.583583 -1.27549e-19)
(-4.18717 0.507715 0)
(-4.27124 0.426771 0)
(-4.33825 0.342379 0)
(-4.38725 0.256463 -2.74845e-22)
(-4.41756 0.171158 8.18739e-20)
(-4.429 0.088388 1.6265e-19)
(-4.42208 0.00949786 -1.61207e-19)
(-4.39664 -0.0647726 -7.99552e-20)
(-4.3534 -0.133666 7.89112e-20)
(-4.29452 -0.197251 2.26188e-22)
(-4.22111 -0.255956 7.74401e-20)
(-4.13425 -0.310579 0)
(-4.03453 -0.362105 7.56285e-20)
(-3.92243 -0.411678 1.91888e-22)
(-3.79822 -0.460416 0)
(-3.66184 -0.509322 0)
(-3.51299 -0.559135 -7.17936e-20)
(-3.35132 -0.6102 0)
(-3.17677 -0.662378 0)
(-2.98951 -0.714962 6.90139e-20)
(-2.78991 -0.766886 1.35756e-19)
(-2.57863 -0.81734 -6.67614e-20)
(-2.35673 -0.866348 0)
(-2.12551 -0.915017 6.49178e-20)
(-1.88604 -0.965504 0)
(-1.63897 -1.02069 6.35245e-20)
(-1.38428 -1.08257 6.2392e-20)
(-1.12078 -1.14778 -1.23591e-19)
(-0.850437 -1.19681 -6.1226e-20)
(-0.574672 -1.186 0)
(-0.293008 -0.947874 1.19778e-19)
(0.170481 -0.283757 0)
(0.626455 0.367872 1.7551e-19)
(0.840451 0.609953 1.15436e-19)
(0.895888 0.499209 1.14106e-19)
(0.921859 0.343327 -1.12891e-19)
(0.966568 0.34064 1.67609e-19)
(0.98628 0.344621 0)
(0.92239 0.1748 0)
(0.771433 -0.227835 -1.08463e-19)
(0.669445 -0.840462 -1.60721e-19)
(0.723524 -1.43404 0)
(0.967366 -1.60699 5.22161e-20)
(1.29521 -1.32611 0)
(1.50622 -0.788615 -1.54819e-19)
(1.60899 0.0147342 1.93458e-22)
(1.56617 0.937701 -2.45109e-22)
(1.44101 1.22144 9.95803e-20)
(1.54293 0.612322 0)
(1.18023 0.351131 -9.70129e-20)
(0.187348 0.856749 1.34948e-22)
(-0.785133 1.36668 0)
(-1.49362 1.59495 0)
(-1.97266 1.58957 0)
(-2.30422 1.44514 9.22619e-20)
(-2.56497 1.25249 0)
(-2.79054 1.06231 0)
(-2.99976 0.896176 0)
(-3.19853 0.758575 0)
(-3.38849 0.646866 0)
(-3.56911 0.555639 9.0347e-20)
(-3.73931 0.479093 0)
(-3.89766 0.411858 8.92361e-20)
(-4.04207 0.349368 8.87318e-20)
(-4.16997 0.288126 -8.81659e-20)
(-4.27824 0.225443 0)
(-4.36324 0.159558 -8.68083e-20)
(-4.42125 0.0898136 0)
(-4.44854 0.0164396 -8.50806e-20)
(-4.44291 -0.0600638 8.40422e-20)
(-4.40243 -0.138227 2.49077e-19)
(-4.32599 -0.215909 0)
(-4.21363 -0.291712 2.41309e-19)
(-4.0659 -0.36419 7.92483e-20)
(-3.88375 -0.432236 0)
(-3.66848 -0.494725 1.52114e-19)
(-3.42191 -0.550361 1.4899e-19)
(-3.14646 -0.597774 -2.18608e-19)
(-2.84515 -0.635691 0)
(-2.52167 -0.66312 -6.96529e-20)
(-2.1806 -0.67927 -6.81385e-20)
(-1.82734 -0.683515 -2.00248e-19)
(-1.46744 -0.676206 0)
(-1.10611 -0.659345 0)
(-0.748823 -0.634879 0)
(-0.400277 -0.604758 -6.15527e-20)
(-0.064536 -0.571591 0)
(0.256183 -0.538007 0)
(0.562093 -0.503982 5.80916e-20)
(0.853254 -0.470835 5.70854e-20)
(1.13006 -0.438977 0)
(1.39263 -0.408009 0)
(1.64053 -0.377189 1.0871e-19)
(1.87253 -0.345837 0)
(2.08677 -0.313657 -1.05475e-19)
(2.28121 -0.280836 -1.03986e-19)
(2.45406 -0.247814 0)
(2.60407 -0.21496 0)
(2.73059 -0.182466 9.97901e-20)
(2.83329 -0.150218 -8.7197e-24)
(2.91179 -0.118042 -9.78781e-24)
(2.96605 -0.0858186 0)
(2.99631 -0.0538768 1.89614e-19)
(3.00261 -0.022781 0)
(2.98743 0.00839791 0)
(2.95417 0.0385153 0)
(2.90635 0.0668712 -9.00363e-20)
(2.84803 0.09381 0)
(2.78209 0.118262 1.75298e-19)
(2.7089 0.137507 8.63777e-20)
(2.62868 0.150326 0)
(2.54534 0.158618 8.38723e-20)
(2.46696 0.16484 0)
(2.4011 0.169208 0)
(2.34973 0.169165 2.40128e-19)
(2.30861 0.160141 -1.57468e-19)
(2.27139 0.140197 0)
(2.23345 0.11212 -1.52064e-19)
(2.19347 0.0815148 7.46462e-20)
(2.15315 0.0531713 0)
(2.11552 0.0298209 0)
(2.08339 0.0125841 0)
(2.05847 0.00138337 2.06861e-19)
(2.04103 -0.00469978 0)
(2.03013 -0.00698121 6.61163e-20)
(2.02403 -0.00674339 0)
(2.02083 -0.00530706 0)
(2.01887 -0.00360671 0)
(2.01719 -0.00230319 0)
(2.01521 -0.00131649 0)
(2.0127 -0.000763348 0)
(2.00961 0.000255595 1.13142e-19)
(2.00561 0.00102996 0)
(2.00145 0.00348378 5.3957e-20)
(1.99536 0.00492112 -1.57998e-19)
(1.99084 0.0101841 0)
(1.98078 0.0116373 0)
(1.97816 0.0222423 9.77305e-20)
(1.95849 0.0218228 9.5251e-20)
(1.96395 0.0436164 -9.27912e-20)
(1.92119 0.0389726 -9.0402e-20)
(0.0117824 0.467981 -1.68893e-19)
(0.0751017 0.499945 -1.67713e-19)
(0.353314 -0.125888 -1.10991e-19)
(0.629383 -0.708134 -5.5069e-20)
(0.827784 -1.0186 0)
(0.943047 -1.06872 1.08304e-19)
(0.999074 -0.938076 -5.38758e-20)
(1.01508 -0.69892 0)
(1.00042 -0.403218 -5.28296e-20)
(0.96187 -0.0877731 0)
(0.898816 0.225785 1.04333e-19)
(0.802619 0.508653 0)
(0.684418 0.750566 5.11966e-20)
(0.508542 0.832106 1.01607e-19)
(0.255253 0.68288 -1.00884e-19)
(0.0232719 0.462925 0)
(-0.157168 0.32286 -9.94117e-20)
(-0.352271 0.322856 0)
(-0.587605 0.454963 0)
(-0.852401 0.637153 -9.69864e-20)
(-1.12421 0.826063 0)
(-1.37666 0.993027 -4.75512e-23)
(-1.5966 1.12042 0)
(-1.79109 1.2154 0)
(-1.95929 1.27788 1.21513e-22)
(-2.11181 1.31191 -9.25793e-20)
(-2.26258 1.32808 -9.20848e-20)
(-2.41698 1.33 -9.12388e-20)
(-2.57851 1.31813 0)
(-2.74369 1.29517 -1.8023e-19)
(-2.91091 1.26289 0)
(-3.07859 1.22389 -8.91235e-20)
(-3.246 1.18044 0)
(-3.41207 1.13182 0)
(-3.57494 1.07739 8.75393e-20)
(-3.73251 1.01501 0)
(-3.88202 0.942957 -8.6514e-20)
(-4.02065 0.859749 3.68852e-22)
(-4.14541 0.76506 1.70563e-19)
(-4.25386 0.660048 -1.69851e-19)
(-4.3441 0.54691 0)
(-4.41454 0.428611 0)
(-4.46382 0.30848 -8.35287e-20)
(-4.49134 0.18997 0)
(-4.49757 0.0760676 -8.14438e-20)
(-4.48373 -0.0309301 8.07159e-20)
(-4.45128 -0.129339 7.99385e-20)
(-4.4016 -0.219375 0)
(-4.33574 -0.301448 -7.82884e-20)
(-4.25516 -0.376631 -7.74196e-20)
(-4.16108 -0.446359 1.53627e-19)
(-4.05457 -0.512247 -7.56069e-20)
(-3.9363 -0.575908 -7.4669e-20)
(-3.80648 -0.63869 0)
(-3.66486 -0.701537 0)
(-3.51092 -0.764905 7.17699e-20)
(-3.34426 -0.828743 0)
(-3.16492 -0.89249 0)
(-2.97352 -0.955185 -1.37646e-19)
(-2.77148 -1.01575 -1.35704e-19)
(-2.56134 -1.07334 0)
(-2.34671 -1.12768 0)
(-2.13186 -1.17931 0)
(-1.92091 -1.22987 0)
(-1.71748 -1.28194 -1.26645e-19)
(-1.52478 -1.33829 1.25351e-19)
(-1.34624 -1.39971 1.23488e-19)
(-1.18448 -1.45747 2.44354e-19)
(-1.03335 -1.46941 0)
(-0.849711 -1.33593 -1.91392e-24)
(-0.50595 -0.881528 0)
(0.0718294 -0.191275 -1.17053e-19)
(0.567081 0.270027 -1.45407e-22)
(0.875442 0.362325 -1.1414e-19)
(1.04676 0.243614 1.12885e-19)
(1.14922 0.209196 -1.52148e-22)
(1.24547 0.281732 0)
(1.28231 0.257446 1.0931e-19)
(1.1762 -0.0366405 1.08416e-19)
(0.982007 -0.687356 2.14242e-19)
(0.820407 -1.45589 0)
(0.820796 -1.78534 -1.04724e-19)
(0.937502 -1.51249 0)
(1.00831 -0.836915 2.06755e-19)
(1.0212 0.0430136 -1.02602e-19)
(1.06211 0.810747 1.01209e-19)
(1.19898 0.954176 -9.96452e-20)
(0.989844 0.915215 -1.97024e-19)
(0.133346 1.32044 9.6986e-20)
(-0.785708 1.81249 -9.57838e-20)
(-1.41569 2.03843 0)
(-1.7898 2.02022 1.89019e-19)
(-2.01386 1.86193 0)