/*--------------------------------*- C++ -*----------------------------------*\
  =========                 |
  \\      /  F ield         | OpenFOAM: The Open Source CFD Toolbox
   \\    /   O peration     | Website:  https://openfoam.org
    \\  /    A nd           | Version:  7
     \\/     M anipulation  |
\*---------------------------------------------------------------------------*/
FoamFile
{
    version     2.0;
    format      ascii;
    class       volVectorField;
    location    "0.102";
    object      U_0;
}
// * * * * * * * * * * * * * * * * * * * * * * * * * * * * * * * * * * * * * //

dimensions      [0 1 -1 0 0 0 0];

internalField   nonuniform List<vector> 
12225
(
(4.74799 0.16932 0)
(4.12507 0.115771 0)
(3.62288 0.102616 0)
(3.22756 0.0820514 0)
(2.88963 0.0677 0)
(2.56151 0.0610204 0)
(2.23856 0.0555213 0)
(1.93179 0.049937 0)
(1.64816 0.0442673 0)
(1.39783 0.0366309 0)
(1.18243 0.0273415 0)
(1.00176 0.0180285 0)
(0.847838 0.0111146 0)
(0.725227 0.00693544 0)
(0.609416 0.00374593 0)
(0.524769 0.00466621 0)
(0.401184 0.00310027 0)
(0.334252 -0.00945709 0)
(5.008 0.134342 0)
(4.85994 0.0830484 0)
(4.72091 0.0981084 0)
(4.60595 0.0971823 0)
(4.49762 0.0939981 0)
(4.38263 0.098678 0)
(4.25138 0.10607 0)
(4.09952 0.108526 0)
(3.9331 0.104825 0)
(3.77284 0.0985908 0)
(3.62401 0.0923534 0)
(3.48866 0.0864574 0)
(3.34672 0.0807891 0)
(3.20983 0.0763008 0)
(3.04902 0.0745079 0)
(2.90346 0.0729561 0)
(2.72324 0.0790046 0)
(2.57522 0.0744402 0)
(4.93896 0.166309 0)
(4.81781 0.130336 0)
(4.74622 0.144894 0)
(4.73041 0.13843 0)
(4.72371 0.124974 0)
(4.70108 0.122385 0)
(4.67114 0.130016 0)
(4.63966 0.138113 0)
(4.60456 0.140151 0)
(4.56835 0.135856 0)
(4.53142 0.126822 0)
(4.49346 0.118416 0)
(4.44713 0.114083 0)
(4.39155 0.11439 0)
(4.32217 0.119473 0)
(4.24233 0.125876 0)
(4.15431 0.135531 0)
(4.05146 0.143676 0)
(5.02348 0.236167 0)
(4.81751 0.126007 0)
(4.74228 0.121367 0)
(4.75714 0.117177 0)
(4.76794 0.11325 0)
(4.74171 0.119338 0)
(4.70525 0.128926 0)
(4.68148 0.133477 0)
(4.67323 0.130685 0)
(4.67594 0.123071 0)
(4.6844 0.114851 0)
(4.69137 0.110347 0)
(4.69211 0.11196 0)
(4.68148 0.119155 0)
(4.66186 0.131766 0)
(4.6308 0.145201 0)
(4.59744 0.160877 0)
(4.55546 0.176528 0)
(4.89668 0.240313 0)
(4.80856 0.166923 0)
(4.78116 0.13267 0)
(4.78783 0.127258 0)
(4.78543 0.131193 0)
(4.76865 0.139084 0)
(4.75075 0.145353 0)
(4.73682 0.144721 0)
(4.72552 0.13736 0)
(4.71578 0.127371 0)
(4.70742 0.119255 0)
(4.69789 0.11605 0)
(4.68681 0.119568 0)
(4.67329 0.12872 0)
(4.66032 0.142268 0)
(4.64843 0.156861 0)
(4.64051 0.17184 0)
(4.63554 0.186562 0)
(4.91194 0.252332 0)
(4.88008 0.164952 0)
(4.83873 0.118893 0)
(4.80744 0.117336 0)
(4.79092 0.122182 0)
(4.783 0.130098 0)
(4.78139 0.139148 0)
(4.78054 0.143029 0)
(4.7745 0.139926 0)
(4.76201 0.132822 0)
(4.74525 0.125853 0)
(4.72537 0.122443 0)
(4.70429 0.12494 0)
(4.68363 0.133005 0)
(4.66616 0.145036 0)
(4.65387 0.158536 0)
(4.6477 0.171107 0)
(4.64783 0.18309 0)
(4.84938 0.220207 0)
(4.90962 0.159569 0)
(4.89409 0.140322 0)
(4.86993 0.146133 0)
(4.8532 0.149421 0)
(4.83693 0.150089 0)
(4.81985 0.150325 0)
(4.80252 0.148456 0)
(4.78697 0.144116 0)
(4.77597 0.13883 0)
(4.76985 0.1347 0)
(4.76479 0.133752 0)
(4.75729 0.137369 0)
(4.74557 0.145177 0)
(4.73132 0.155026 0)
(4.71695 0.165189 0)
(4.70611 0.173378 0)
(4.69938 0.180448 0)
(4.9612 0.265345 0)
(4.87953 0.150775 0)
(4.86815 0.121331 0)
(4.8692 0.122363 0)
(4.86963 0.128683 0)
(4.87144 0.139938 0)
(4.87299 0.151159 0)
(4.87076 0.15457 0)
(4.86496 0.148673 0)
(4.85797 0.138264 0)
(4.85046 0.129856 0)
(4.84063 0.128215 0)
(4.82741 0.13483 0)
(4.81089 0.147865 0)
(4.79415 0.162746 0)
(4.77836 0.176037 0)
(4.76846 0.184859 0)
(4.76161 0.189319 0)
(4.99151 0.244035 0)
(4.98542 0.169423 0)
(4.95537 0.141902 0)
(4.92588 0.148995 0)
(4.90334 0.151343 0)
(4.88731 0.149483 0)
(4.87872 0.150139 0)
(4.87637 0.151585 0)
(4.87734 0.150768 0)
(4.8773 0.148317 0)
(4.87188 0.146712 0)
(4.85945 0.148272 0)
(4.84328 0.15395 0)
(4.82837 0.1625 0)
(4.82064 0.171065 0)
(4.82045 0.177363 0)
(4.83006 0.179858 0)
(4.84243 0.179953 0)
(4.97367 0.226138 0)
(4.9341 0.157996 0)
(4.9164 0.131292 0)
(4.94623 0.131874 0)
(4.95715 0.143857 0)
(4.92306 0.158582 0)
(4.86811 0.165268 0)
(4.82666 0.159407 0)
(4.81363 0.147053 0)
(4.82316 0.137509 0)
(4.84162 0.135909 0)
(4.85847 0.14201 0)
(4.87043 0.152344 0)
(4.8788 0.16278 0)
(4.88645 0.170309 0)
(4.89406 0.173796 0)
(4.90203 0.174025 0)
(4.90689 0.173154 0)
(5.0504 0.220092 0)
(5.0089 0.174569 0)
(4.98398 0.14641 0)
(4.94328 0.139393 0)
(4.90159 0.159134 0)
(4.87044 0.18322 0)
(4.85413 0.188334 0)
(4.85022 0.172991 0)
(4.85232 0.151036 0)
(4.85631 0.135199 0)
(4.8622 0.129941 0)
(4.87108 0.133456 0)
(4.88359 0.1414 0)
(4.89809 0.150083 0)
(4.91238 0.157188 0)
(4.92408 0.162269 0)
(4.93167 0.165979 0)
(4.93583 0.168936 0)
(4.90959 0.257651 0)
(4.90078 0.162272 0)
(4.92316 0.14788 0)
(4.92223 0.157267 0)
(4.90684 0.176527 0)
(4.89866 0.190362 0)
(4.90164 0.186136 0)
(4.90818 0.166954 0)
(4.91435 0.144931 0)
(4.92171 0.12966 0)
(4.93188 0.124245 0)
(4.94301 0.127268 0)
(4.95165 0.135487 0)
(4.95367 0.1459 0)
(4.94856 0.155771 0)
(4.93764 0.164205 0)
(4.92497 0.170058 0)
(4.91454 0.173837 0)
(5.10598 0.220795 0)
(5.07062 0.176829 0)
(4.99889 0.154875 0)
(4.93962 0.154265 0)
(4.91688 0.167085 0)
(4.93062 0.176914 0)
(4.96062 0.174711 0)
(4.98406 0.161647 0)
(4.9898 0.143964 0)
(4.9806 0.128487 0)
(4.96625 0.12088 0)
(4.95427 0.12351 0)
(4.94786 0.134752 0)
(4.94489 0.15036 0)
(4.94458 0.16474 0)
(4.94451 0.174691 0)
(4.94803 0.177937 0)
(4.95243 0.175853 0)
(4.95835 0.186469 0)
(5.00537 0.194795 0)
(5.01279 0.197492 0)
(4.99561 0.188501 0)
(4.98445 0.182935 0)
(4.98478 0.174447 0)
(4.99136 0.162867 0)
(4.9965 0.153133 0)
(4.99421 0.147145 0)
(4.98372 0.143316 0)
(4.96997 0.140715 0)
(4.95985 0.140475 0)
(4.95797 0.143913 0)
(4.96486 0.150599 0)
(4.97789 0.158087 0)
(4.99347 0.163865 0)
(5.00885 0.166001 0)
(5.02194 0.164478 0)
(4.96085 0.205789 0)
(4.92206 0.169783 0)
(4.92573 0.171229 0)
(4.93169 0.171778 0)
(4.95038 0.170079 0)
(4.97676 0.16631 0)
(4.99963 0.162396 0)
(5.01248 0.159945 0)
(5.01388 0.156861 0)
(5.00598 0.150296 0)
(4.99286 0.140731 0)
(4.97886 0.13165 0)
(4.96699 0.126582 0)
(4.95879 0.127233 0)
(4.95404 0.131851 0)
(4.95324 0.138222 0)
(4.955 0.143005 0)
(4.96113 0.14504 0)
(5.06843 0.280472 0)
(5.04124 0.226416 0)
(5.00917 0.18986 0)
(4.99226 0.167544 0)
(4.99479 0.150266 0)
(5.00154 0.137173 0)
(5.00658 0.131831 0)
(5.0121 0.136997 0)
(5.01906 0.148843 0)
(5.02592 0.160303 0)
(5.03035 0.167497 0)
(5.03051 0.171049 0)
(5.02651 0.17298 0)
(5.01985 0.174693 0)
(5.01366 0.174765 0)
(5.00912 0.171891 0)
(5.00876 0.164268 0)
(5.01032 0.152183 0)
(5.0603 0.30369 0)
(5.07699 0.269722 0)
(5.05256 0.215831 0)
(5.03288 0.17222 0)
(5.03337 0.153585 0)
(5.0318 0.152545 0)
(5.01935 0.155627 0)
(5.00231 0.154066 0)
(4.98801 0.14689 0)
(4.98017 0.138019 0)
(4.97943 0.131664 0)
(4.98431 0.129722 0)
(4.99346 0.131463 0)
(5.00552 0.13453 0)
(5.02081 0.13641 0)
(5.03791 0.135884 0)
(5.05716 0.132666 0)
(5.07559 0.128564 0)
(5.12183 0.371114 0)
(5.09882 0.308796 0)
(5.06112 0.248775 0)
(5.02891 0.196725 0)
(5.01567 0.162972 0)
(5.01847 0.15433 0)
(5.03184 0.162604 0)
(5.04857 0.173446 0)
(5.06181 0.177343 0)
(5.06761 0.17287 0)
(5.0655 0.1635 0)
(5.05782 0.153012 0)
(5.04876 0.143079 0)
(5.04207 0.133319 0)
(5.04047 0.121962 0)
(5.04465 0.10935 0)
(5.05414 0.0951604 0)
(5.0674 0.0833496 0)
(5.04302 0.398264 0)
(5.04033 0.354881 0)
(5.05772 0.263995 0)
(5.06094 0.198341 0)
(5.04635 0.151807 0)
(5.02993 0.120421 0)
(5.02465 0.103698 0)
(5.03385 0.10121 0)
(5.05354 0.111507 0)
(5.07819 0.130236 0)
(5.10289 0.150242 0)
(5.12435 0.163873 0)
(5.14149 0.165619 0)
(5.1545 0.154354 0)
(5.16352 0.132606 0)
(5.16835 0.10623 0)
(5.16969 0.0801776 0)
(5.16743 0.0599199 0)
(5.00915 0.274546 0)
(5.00824 0.312154 0)
(5.00901 0.270303 0)
(5.01586 0.241055 0)
(5.02957 0.223178 0)
(5.04932 0.194965 0)
(5.065 0.15733 0)
(5.07195 0.12035 0)
(5.0758 0.0923902 0)
(5.08585 0.0767753 0)
(5.10667 0.0721416 0)
(5.13553 0.0748485 0)
(5.16622 0.080902 0)
(5.19267 0.087761 0)
(5.21151 0.093703 0)
(5.22143 0.0978195 0)
(5.2242 0.0996983 0)
(5.22165 0.0982457 0)
(4.84736 0.297182 0)
(4.85634 0.283583 0)
(4.90603 0.230174 0)
(4.9773 0.160678 0)
(5.03572 0.107156 0)
(5.08549 0.0819615 0)
(5.12834 0.0807292 0)
(5.15854 0.0864512 0)
(5.17474 0.0849619 0)
(5.18136 0.0742757 0)
(5.18385 0.0612049 0)
(5.18576 0.053369 0)
(5.18935 0.0538844 0)
(5.19545 0.0611902 0)
(5.20462 0.0704932 0)
(5.21617 0.0775123 0)
(5.2299 0.0793637 0)
(5.24452 0.0755543 0)
(5.02968 0.34991 0)
(5.01442 0.233305 0)
(5.07024 0.156978 0)
(5.12001 0.135993 0)
(5.12506 0.120355 0)
(5.11116 0.099561 0)
(5.10509 0.0822442 0)
(5.11315 0.0734774 0)
(5.1312 0.0710453 0)
(5.15329 0.0706395 0)
(5.17458 0.0700091 0)
(5.19259 0.0689959 0)
(5.20736 0.0678398 0)
(5.21983 0.0664267 0)
(5.23106 0.0639651 0)
(5.2412 0.0603247 0)
(5.25082 0.0552866 0)
(5.25933 0.049961 0)
(4.96064 0.227379 0)
(4.9985 0.18422 0)
(5.02768 0.129914 0)
(5.05299 0.104994 0)
(5.06999 0.099281 0)
(5.08653 0.0874539 0)
(5.10476 0.066386 0)
(5.12612 0.0449914 0)
(5.15273 0.0285532 0)
(5.18456 0.0175688 0)
(5.21912 0.0115629 0)
(5.25279 0.0111131 0)
(5.28302 0.016311 0)
(5.30829 0.0254325 0)
(5.32833 0.0350045 0)
(5.34297 0.0420387 0)
(5.35353 0.0443667 0)
(5.35993 0.0414276 0)
(4.9508 0.208274 0)
(5.01928 0.145354 0)
(5.0598 0.130928 0)
(5.10167 0.121192 0)
(5.13237 0.108682 0)
(5.15573 0.0878104 0)
(5.17427 0.0622397 0)
(5.18927 0.0388109 0)
(5.20391 0.0204319 0)
(5.22065 0.00742931 0)
(5.2399 0.000678221 0)
(5.26174 0.000784213 0)
(5.28601 0.00662655 0)
(5.31182 0.0159496 0)
(5.3381 0.0257475 0)
(5.36242 0.0334749 0)
(5.38376 0.0381394 0)
(5.40052 0.039143 0)
(5.07363 0.280192 0)
(5.05731 0.119491 0)
(5.09821 0.0783008 0)
(5.16659 0.0629703 0)
(5.22103 0.0524954 0)
(5.25978 0.0404199 0)
(5.29309 0.0255139 0)
(5.32364 0.0101752 0)
(5.34674 -0.00328123 0)
(5.35795 -0.0163723 0)
(5.35718 -0.0280587 0)
(5.34801 -0.0350092 0)
(5.33733 -0.0354309 0)
(5.33132 -0.0298714 0)
(5.33394 -0.0207729 0)
(5.34533 -0.0110594 0)
(5.3642 -0.0026604 0)
(5.38683 0.00297359 0)
(4.93031 0.281894 0)
(5.04572 0.108868 0)
(5.1538 0.066666 0)
(5.23988 0.0663306 0)
(5.29555 0.0618623 0)
(5.32486 0.0468785 0)
(5.34008 0.025901 0)
(5.3531 0.00711223 0)
(5.36624 -0.00200535 0)
(5.3763 0.000695434 0)
(5.3831 0.00879441 0)
(5.38833 0.0154347 0)
(5.3945 0.0174733 0)
(5.40381 0.0147555 0)
(5.41811 0.00893388 0)
(5.43692 0.0022939 0)
(5.45986 -0.00415673 0)
(5.48424 -0.00900367 0)
(4.98811 0.205526 0)
(5.0638 0.023166 0)
(5.15463 -0.0054398 0)
(5.22908 -0.00369105 0)
(5.29438 -0.00136463 0)
(5.34685 0.00068902 0)
(5.37978 -0.0014752 0)
(5.39607 -0.00828692 0)
(5.40489 -0.0187332 0)
(5.41423 -0.0283564 0)
(5.42945 -0.0350782 0)
(5.45306 -0.0395009 0)
(5.48333 -0.0423265 0)
(5.51592 -0.0440796 0)
(5.54677 -0.0450394 0)
(5.57281 -0.045233 0)
(5.59354 -0.0447762 0)
(5.60821 -0.0434686 0)
(5.05641 0.185707 0)
(5.13155 0.0562832 0)
(5.24041 0.0202297 0)
(5.31733 0.00458094 0)
(5.37493 0.000674383 0)
(5.41807 0.00291756 0)
(5.45013 0.00162462 0)
(5.47761 -0.0034322 0)
(5.50319 -0.00789447 0)
(5.5269 -0.0114505 0)
(5.54925 -0.0152053 0)
(5.57107 -0.020116 0)
(5.59208 -0.0254447 0)
(5.61127 -0.0298443 0)
(5.62803 -0.0322558 0)
(5.64244 -0.0327238 0)
(5.65518 -0.0317447 0)
(5.66654 -0.0300027 0)
(5.05516 0.0711422 0)
(5.24533 -0.0286676 0)
(5.35371 -0.0463259 0)
(5.36369 -0.0606138 0)
(5.35075 -0.0533589 0)
(5.36133 -0.0363226 0)
(5.39941 -0.028554 0)
(5.44996 -0.0339599 0)
(5.4964 -0.0443342 0)
(5.52949 -0.0534436 0)
(5.54771 -0.0597241 0)
(5.5536 -0.0636754 0)
(5.54963 -0.0657024 0)
(5.53859 -0.0661027 0)
(5.52267 -0.0650989 0)
(5.50563 -0.0632797 0)
(5.48842 -0.0609511 0)
(5.47466 -0.0583073 0)
(4.90241 0.0847814 0)
(5.05966 -0.00232991 0)
(5.03076 -0.000767864 0)
(4.88564 -0.00415228 0)
(4.76115 -0.00754752 0)
(4.67687 -0.0164472 0)
(4.59657 -0.0294315 0)
(4.4983 -0.0377731 0)
(4.38545 -0.0374901 0)
(4.26953 -0.0320344 0)
(4.15777 -0.0262433 0)
(4.05208 -0.0222415 0)
(3.95198 -0.0197716 0)
(3.85782 -0.0181469 0)
(3.76938 -0.0171324 0)
(3.68779 -0.0168615 0)
(3.61066 -0.0170898 0)
(3.54064 -0.0174174 0)
(-0.0849361 0.193567 -2.32223e-20)
(-0.277032 0.188351 2.30517e-20)
(-0.405445 0.109883 0)
(-0.421512 -0.000317978 0)
(-0.351884 -0.080466 0)
(-0.225184 -0.12783 -2.23539e-20)
(-0.0781868 -0.127721 0)
(0.0572101 -0.0976409 0)
(0.154724 -0.041501 0)
(0.199397 0.0441297 0)
(0.175104 0.0684916 2.15006e-20)
(0.129534 -0.0455996 0)
(0.105895 -0.104559 0)
(0.11605 -0.0494739 0)
(0.136197 -0.00829558 0)
(0.129764 0.00350355 2.0707e-20)
(0.136422 -0.00713538 0)
(0.180761 -0.0506684 0)
(0.25532 -0.099392 0)
(0.34201 -0.137619 0)
(0.425476 -0.161799 0)
(0.48384 -0.170688 0)
(0.501175 -0.176452 0)
(0.45387 -0.182971 1.95167e-20)
(0.34977 -0.127426 -1.93806e-20)
(0.166768 0.0712223 1.92414e-20)
(-0.125988 0.276413 1.90858e-20)
(-0.461115 0.353215 0)
(-0.800562 0.355288 0)
(-1.11324 0.308499 -1.86366e-20)
(-1.38798 0.262228 -1.8512e-20)
(-1.64304 0.224107 0)
(-1.87987 0.19759 0)
(-2.10781 0.183303 -1.81792e-20)
(-2.33032 0.176015 0)
(-2.54911 0.174439 0)
(-2.76458 0.174856 1.78669e-20)
(-2.97393 0.175307 0)
(-3.17379 0.173025 1.76536e-20)
(-3.35911 0.166158 3.5085e-20)
(-3.52511 0.153584 0)
(-3.66713 0.135253 0)
(-3.78186 0.112205 0)
(-3.86759 0.0862209 0)
(-3.92391 0.0594385 0)
(-3.95122 0.0338687 3.35077e-20)
(-3.95089 0.0110036 3.31905e-20)
(-3.92745 -0.0090628 3.28558e-20)
(-3.88296 -0.026432 0)
(-3.81979 -0.0413327 -3.21389e-20)
(-3.73952 -0.0540933 0)
(-3.64325 -0.0652002 3.1366e-20)
(-3.53116 -0.0753567 3.0962e-20)
(-3.40317 -0.0854245 0)
(-3.25876 -0.0961881 0)
(-3.09701 -0.108002 0)
(-2.91674 -0.120686 2.9271e-20)
(-2.71723 -0.133605 0)
(-2.49864 -0.14594 0)
(-2.26168 -0.156867 0)
(-2.00684 -0.165737 0)
(-1.7344 -0.17239 0)
(-1.44463 -0.176987 0)
(-1.13703 -0.178911 0)
(-0.81047 -0.177152 0)
(-0.467906 -0.17561 -2.56675e-20)
(-0.104413 -0.180094 0)
(0.293475 -0.236996 0)
(0.685411 -0.339498 2.47623e-20)
(1.15738 -0.168879 2.45399e-20)
(1.27083 0.244784 0)
(0.824699 0.340119 -2.3983e-20)
(0.373072 0.206221 2.37171e-20)
(0.0959914 0.127796 0)
(-0.0861077 0.0945564 -2.32119e-20)
(-0.270763 0.0595154 0)
(-0.4415 0.0137689 0)
(-0.505182 -0.0698726 2.24979e-20)
(-0.370196 -0.198045 0)
(0.00809041 -0.330555 -2.19232e-20)
(0.616338 -0.409714 0)
(1.31528 -0.381311 2.13371e-20)
(1.92595 -0.335069 2.11667e-20)
(2.42059 -0.221473 2.10446e-20)
(2.68259 0.153767 4.17668e-20)
(2.31191 0.465409 -4.12252e-20)
(1.50325 0.340522 0)
(0.912723 0.104067 0)
(0.813439 -0.0743619 0)
(0.947699 -0.247008 -3.92673e-20)
(1.07879 -0.314962 -3.88369e-20)
(0.942387 -0.0576477 3.84811e-20)
(0.333766 0.310199 0)
(-0.445747 0.413254 -3.7867e-20)
(-1.16868 0.388417 -3.76761e-20)
(-1.80386 0.340378 -3.75699e-20)
(-2.34711 0.290347 0)
(-2.80898 0.245458 0)
(-3.2027 0.207469 0)
(-3.53983 0.176002 -3.73005e-20)
(-3.82955 0.149812 0)
(-4.07844 0.127491 0)
(-4.29077 0.107648 3.68965e-20)
(-4.4686 0.0890642 0)
(-4.61239 0.0710859 0)
(-4.72153 0.0532788 3.61843e-20)
(-4.79459 0.0351376 0)
(-4.82957 0.0167563 0)
(-4.82448 -0.000818071 -3.50509e-20)
(-4.7836 -0.0175816 -3.45671e-20)
(-4.70393 -0.034095 0)
(-4.58682 -0.0496827 3.3452e-20)
(-4.43273 -0.0644704 0)
(-4.24301 -0.0781578 -3.21768e-20)
(-4.01973 -0.0904597 0)
(-3.76555 -0.101129 -3.08021e-20)
(-3.48388 -0.109967 -3.00986e-20)
(-3.17894 -0.116923 0)
(-2.8558 -0.121867 0)
(-2.52021 -0.124592 0)
(-2.17808 -0.125026 0)
(-1.83471 -0.123298 0)
(-1.49471 -0.119795 0)
(-1.16222 -0.114952 0)
(-0.840528 -0.109259 -2.50497e-20)
(-0.532473 -0.102928 2.45513e-20)
(-0.239228 -0.0963581 0)
(0.0374287 -0.0907316 0)
(0.298403 -0.0844282 0)
(0.545391 -0.0784259 0)
(0.777915 -0.0725466 4.48722e-20)
(0.995986 -0.0666586 0)
(1.19927 -0.0606519 -4.34757e-20)
(1.38715 -0.0544526 4.28314e-20)
(1.55888 -0.0480807 0)
(1.71382 -0.0416158 0)
(1.85144 -0.0350445 0)
(1.97121 -0.0283879 -4.05506e-20)
(2.07265 -0.0217311 -4.00398e-20)
(2.15524 -0.0148512 0)
(2.21755 -0.00780073 -3.90659e-20)
(2.25962 -0.000906668 -3.85954e-20)
(2.27962 0.00658567 3.81307e-20)
(2.27441 0.0148073 0)
(2.24562 0.0225574 0)
(2.19495 0.0294423 3.67385e-20)
(2.1246 0.0355888 0)
(2.03626 0.0418343 0)
(1.92982 0.0490279 0)
(1.80377 0.0566197 0)
(1.65762 0.0629852 -3.43049e-20)
(1.49317 0.067252 -3.37984e-20)
(1.31443 0.0684911 0)
(1.12999 0.0637861 -3.27691e-20)
(0.954353 0.051594 0)
(0.803953 0.0344019 0)
(0.689166 0.0170505 -3.11586e-20)
(0.612062 0.0036728 0)
(0.568599 -0.00452411 -3.00072e-20)
(0.550634 -0.00846213 0)
(0.54933 -0.00981932 0)
(0.557288 -0.00978367 -2.82189e-20)
(0.569333 -0.00898594 0)
(0.582472 -0.00796632 -2.70338e-20)
(0.594758 -0.00690723 0)
(0.605774 -0.00580524 0)
(0.61489 -0.00465076 0)
(0.622881 -0.00352062 2.47329e-20)
(0.628765 -0.00245052 0)
(0.634006 -0.00154706 -2.36179e-20)
(0.63627 -0.000674905 0)
(0.638152 0.000111978 0)
(0.635383 0.00115444 0)
(0.631797 0.00200675 0)
(0.622529 0.0037621 0)
(0.607545 0.00445041 0)
(0.594884 0.00843089 0)
(0.546914 0.00677531 3.8739e-20)
(0.555695 0.018561 0)
(0.408838 0.00730784 0)
(-0.0268931 0.541947 6.9715e-20)
(-0.179282 0.457556 -6.92177e-20)
(-0.256928 0.218736 0)
(-0.233083 -0.108135 4.55124e-20)
(-0.126843 -0.34068 0)
(0.0332148 -0.452235 2.23538e-20)
(0.195005 -0.451306 -4.43686e-20)
(0.331343 -0.367434 -4.39955e-20)
(0.434863 -0.232606 0)
(0.496118 -0.0781763 -4.33128e-20)
(0.511664 0.0723397 -2.14792e-20)
(0.468058 0.187928 0)
(0.31898 0.143761 0)
(0.153529 -0.0156635 0)
(0.0754677 -0.0134324 0)
(0.0358389 -0.00251596 -2.07126e-20)
(0.0232941 -0.0914995 0)
(0.0300517 -0.178788 4.08007e-20)
(0.0252178 -0.21336 0)
(-0.0217831 -0.187368 0)
(-0.128647 -0.116647 -3.99242e-20)
(-0.285772 0.0262275 0)
(-0.501312 0.246643 3.93162e-20)
(-0.790705 0.44825 -1.95067e-20)
(-1.0894 0.609127 1.93447e-20)
(-1.35074 0.731604 -1.91766e-20)
(-1.58481 0.783386 -1.90072e-20)
(-1.79248 0.763619 0)
(-1.99902 0.716866 0)
(-2.20865 0.661882 1.85749e-20)
(-2.42238 0.620353 -1.85462e-20)
(-2.64436 0.589879 0)
(-2.86608 0.569693 0)
(-3.08532 0.554217 1.81282e-20)
(-3.29557 0.538931 0)
(-3.49307 0.520261 0)
(-3.67374 0.494881 -1.78222e-20)
(-3.83489 0.461228 0)
(-3.97477 0.418528 1.77119e-20)
(-4.09231 0.367496 -3.50171e-20)
(-4.18736 0.309706 0)
(-4.26061 0.247591 0)
(-4.31344 0.183912 -6.8811e-20)
(-4.34717 0.121322 -6.82819e-20)
(-4.36299 0.0620314 -6.77188e-20)
(-4.36178 0.00747337 3.36415e-20)
(-4.3449 -0.0419601 -3.31624e-20)
(-4.31126 -0.0861235 -9.86289e-20)
(-4.26097 -0.125779 6.50923e-20)
(-4.19444 -0.161867 3.211e-20)
(-4.11195 -0.1955 0)
(-4.01375 -0.22773 -3.13364e-20)
(-3.90032 -0.259531 3.10513e-20)
(-3.77198 -0.291661 0)
(-3.62894 -0.324529 0)
(-3.47099 -0.358095 0)
(-3.29769 -0.391992 -2.92391e-20)
(-3.10867 -0.42577 0)
(-2.90368 -0.459079 5.68619e-20)
(-2.68224 -0.491739 0)
(-2.44365 -0.523891 5.51687e-20)
(-2.18754 -0.556161 0)
(-1.91362 -0.589564 -5.35527e-20)
(-1.62089 -0.625239 0)
(-1.30722 -0.664399 5.20571e-20)
(-0.969283 -0.707157 -2.57437e-20)
(-0.604066 -0.749899 0)
(-0.195103 -0.782329 -5.01677e-20)
(0.156172 -0.784112 -2.47706e-20)
(0.493086 -0.482374 -2.45533e-20)
(0.899455 0.158208 0)
(1.00725 0.603994 -2.40335e-20)
(0.848097 0.615879 -2.36891e-20)
(0.672618 0.406591 0)
(0.572712 0.306433 2.31958e-20)
(0.45848 0.313536 -4.59083e-20)
(0.319932 0.236259 0)
(0.185093 -0.00943798 -2.25088e-20)
(0.128423 -0.380866 0)
(0.273723 -0.79897 6.58699e-20)
(0.638229 -1.12274 0)
(1.17928 -1.14487 -6.41625e-20)
(1.73485 -0.922742 -2.11578e-20)
(2.07238 -0.542083 2.12571e-20)
(2.33789 0.0185724 4.22173e-20)
(2.36091 0.628212 -4.16138e-20)
(1.86876 0.985888 0)
(1.52714 0.68576 0)
(1.49556 0.0314788 0)
(1.16432 -0.0856525 1.1783e-19)
(0.373501 0.385781 3.88962e-20)
(-0.5167 0.858545 -3.84979e-20)
(-1.3053 1.05922 0)
(-1.93641 1.02626 -3.81752e-20)
(-2.44352 0.91096 3.75741e-20)
(-2.85953 0.777906 3.74853e-20)
(-3.2038 0.65437 0)
(-3.49259 0.548775 0)
(-3.73866 0.461805 0)
(-3.95064 0.390679 3.72667e-20)
(-4.13452 0.331564 0)
(-4.29399 0.280646 -7.42369e-20)
(-4.43109 0.234535 -1.1079e-19)
(-4.54624 0.190599 7.35143e-20)
(-4.63859 0.146977 0)
(-4.70636 0.102539 3.6314e-20)
(-4.74734 0.0565443 0)
(-4.75979 0.0090519 7.11027e-20)
(-4.74231 -0.0385477 -3.51816e-20)
(-4.68786 -0.0861519 -3.46931e-20)
(-4.59806 -0.133241 0)
(-4.47152 -0.17878 -1.00472e-19)
(-4.30893 -0.222174 6.57705e-20)
(-4.11128 -0.262672 3.21753e-20)
(-3.88014 -0.2995 0)
(-3.6179 -0.331809 3.07988e-20)
(-3.32772 -0.35881 9.03774e-20)
(-3.01342 -0.37994 0)
(-2.67961 -0.394752 5.74782e-20)
(-2.33179 -0.402827 5.61163e-20)
(-1.97598 -0.403911 5.47994e-20)
(-1.61768 -0.398418 0)
(-1.26176 -0.387606 0)
(-0.91285 -0.372759 0)
(-0.574678 -0.355062 -2.50863e-20)
(-0.250931 -0.334912 -2.4552e-20)
(0.05637 -0.315313 0)
(0.347007 -0.296767 -4.72802e-20)
(0.621983 -0.277948 -4.6425e-20)
(0.881546 -0.259932 0)
(1.12577 -0.242513 -4.48451e-20)
(1.35456 -0.225319 -8.82813e-20)
(1.56746 -0.207989 4.34504e-20)
(1.76373 -0.190312 4.28203e-20)
(1.94265 -0.172291 0)
(2.1037 -0.15403 0)
(2.24658 -0.135592 0)
(2.37128 -0.116978 4.05305e-20)
(2.47789 -0.0981161 -4.00218e-20)
(2.56584 -0.0786939 -7.9058e-20)
(2.63552 -0.0587103 3.90488e-20)
(2.68562 -0.0379918 -3.85856e-20)
(2.7164 -0.015986 -3.81151e-20)
(2.73047 0.00591414 0)
(2.72702 0.0262187 0)
(2.70567 0.0443782 3.67397e-20)
(2.66669 0.0601999 0)
(2.61143 0.0742932 0)
(2.54317 0.0879339 -7.058e-20)
(2.4667 0.102225 0)
(2.38601 0.11666 -3.43076e-20)
(2.30235 0.128846 3.37692e-20)
(2.21485 0.136491 0)
(2.12384 0.137669 -3.27582e-20)
(2.03149 0.129872 0)
(1.94113 0.11223 0)
(1.85679 0.0871953 3.11237e-20)
(1.78275 0.0600743 -6.11122e-20)
(1.72314 0.0356588 2.99757e-20)
(1.67988 0.0168223 0)
(1.65157 0.0042923 0)
(1.63523 -0.0027189 -2.81909e-20)
(1.627 -0.00564329 0)
(1.62324 -0.00626707 -2.70086e-20)
(1.62093 -0.00585882 0)
(1.61874 -0.00518705 0)
(1.61579 -0.00458058 0)
(1.61278 -0.00416497 -2.47133e-20)
(1.60935 -0.00366227 0)
(1.60677 -0.00310957 2.35998e-20)
(1.60367 -0.00194021 0)
(1.60132 -0.00083741 0)
(1.5974 0.00154761 -4.39378e-20)
(1.5926 0.00291258 4.28715e-20)
(1.58642 0.00735412 0)
(1.57368 0.0081502 0)
(1.56726 0.0172691 0)
(1.53227 0.0150436 -1.16132e-19)
(1.53944 0.0355248 0)
(1.44343 0.0258212 7.34245e-20)
(0.0547345 0.614929 4.26386e-23)
(0.0028073 0.647111 9.23862e-20)
(0.0557499 0.264451 0)
(0.191645 -0.262885 -9.10417e-20)
(0.372268 -0.628354 0)
(0.532739 -0.772722 0)
(0.657412 -0.74193 -8.35331e-23)
(0.744792 -0.589232 4.39272e-20)
(0.79604 -0.367188 4.36825e-20)
(0.813087 -0.109932 4.32693e-20)
(0.792712 0.138453 0)
(0.733065 0.358618 0)
(0.616306 0.49706 -4.2325e-20)
(0.403639 0.430949 -8.40118e-20)
(0.165357 0.231553 8.34042e-20)
(0.0308024 0.110515 0)
(-0.0717844 0.012789 8.21746e-20)
(-0.185718 -0.0405983 -4.0781e-20)
(-0.341277 0.0169873 0)
(-0.543109 0.1526 8.02646e-20)
(-0.793583 0.341046 3.98435e-20)
(-1.06344 0.546098 -7.90195e-20)
(-1.31711 0.725206 -3.92125e-20)
(-1.56192 0.868675 0)
(-1.77981 0.975722 7.72391e-20)
(-1.96665 1.04333 7.66776e-20)
(-2.13397 1.06749 0)
(-2.29099 1.06004 7.56064e-20)
(-2.45736 1.03707 0)
(-2.63412 1.00714 7.46172e-20)
(-2.81972 0.976029 3.69464e-20)
(-3.00816 0.941782 0)
(-3.19268 0.905502 0)
(-3.37039 0.865248 0)
(-3.53804 0.820769 0)
(-3.69446 0.770943 0)
(-3.83816 0.714954 0)
(-3.96831 0.652302 7.13066e-20)
(-4.0839 0.582781 -1.06208e-19)
(-4.18412 0.507043 0)
(-4.26812 0.426187 0)
(-4.33503 0.341824 0)
(-4.38389 0.25587 -2.72746e-22)
(-4.414 0.170461 6.82686e-20)
(-4.4252 0.0875416 1.35679e-19)
(-4.41795 0.00847801 -1.34477e-19)
(-4.39212 -0.0659579 -6.67108e-20)
(-4.34846 -0.135002 6.57889e-20)
(-4.28911 -0.198697 2.24625e-22)
(-4.21522 -0.257463 6.45543e-20)
(-4.12787 -0.312093 0)
(-4.02768 -0.363572 6.29773e-20)
(-3.91514 -0.413052 1.90467e-22)
(-3.79054 -0.461656 0)
(-3.65383 -0.510401 0)
(-3.5047 -0.560041 -5.96022e-20)
(-3.34283 -0.610943 0)
(-3.16814 -0.662987 0)
(-2.9808 -0.715479 5.71589e-20)
(-2.78118 -0.767354 1.1227e-19)
(-2.56989 -0.817791 -5.51296e-20)
(-2.348 -0.8668 0)
(-2.11676 -0.915468 5.35043e-20)
(-1.87724 -0.965932 0)
(-1.63005 -1.02104 5.23254e-20)
(-1.37516 -1.08278 5.13017e-20)
(-1.11141 -1.1478 -1.01622e-19)
(-0.840778 -1.19654 -5.03466e-20)
(-0.564979 -1.18542 0)
(-0.282856 -0.945636 9.84284e-20)
(0.181509 -0.280313 0)
(0.636658 0.370109 1.44118e-19)
(0.849213 0.610764 9.4741e-20)
(0.903421 0.499166 9.36253e-20)
(0.928787 0.34372 -9.26203e-20)
(0.973 0.341899 1.37521e-19)
(0.991711 0.345377 0)
(0.926605 0.173569 0)
(0.775245 -0.231998 -8.90183e-20)
(0.674148 -0.846872 -1.31881e-19)
(0.729917 -1.43838 0)
(0.975296 -1.60591 4.28237e-20)
(1.30259 -1.32141 0)
(1.51203 -0.781295 -1.27236e-19)
(1.61428 0.0253768 1.95232e-22)
(1.56966 0.944898 -2.45586e-22)
(1.44823 1.21622 8.17828e-20)
(1.55019 0.603996 0)
(1.1782 0.353911 -7.95777e-20)
(0.181849 0.863878 1.35951e-22)
(-0.788487 1.37086 0)
(-1.49428 1.5964 0)
(-1.97136 1.58898 0)
(-2.30188 1.44363 7.58331e-20)
(-2.56213 1.25076 0)
(-2.78746 1.0607 0)
(-2.99654 0.894807 0)
(-3.19521 0.757452 0)
(-3.38504 0.645943 0)
(-3.56551 0.554857 7.50181e-20)
(-3.73555 0.478395 0)
(-3.89368 0.411197 7.42632e-20)
(-4.03784 0.348711 7.39343e-20)
(-4.16546 0.287455 -7.35421e-20)
(-4.27342 0.224756 0)
(-4.35808 0.15886 -7.25264e-20)
(-4.41576 0.0891116 0)
(-4.44271 0.0157532 -7.11334e-20)
(-4.43675 -0.0607079 7.02625e-20)
(-4.39597 -0.138822 2.08236e-19)
(-4.31926 -0.216444 0)
(-4.20666 -0.292187 2.01451e-19)
(-4.05872 -0.364619 6.61236e-20)
(-3.87638 -0.432641 0)
(-3.66093 -0.495135 1.26502e-19)
(-3.41414 -0.550803 1.23692e-19)
(-3.13845 -0.598261 -1.81126e-19)
(-2.83687 -0.636218 0)
(-2.5131 -0.663659 -5.74656e-20)
(-2.17173 -0.679782 -5.61027e-20)
(-1.81819 -0.683954 -1.64592e-19)
(-1.45806 -0.676528 0)
(-1.09655 -0.659524 0)
(-0.739169 -0.634912 0)
(-0.39061 -0.604655 -5.02607e-20)
(-0.0549414 -0.571379 0)
(0.265649 -0.537727 0)
(0.571405 -0.503652 4.72514e-20)
(0.862384 -0.470471 4.63968e-20)
(1.13898 -0.438582 0)
(1.40132 -0.407576 0)
(1.64893 -0.376708 8.82283e-20)
(1.88059 -0.345302 0)
(2.09442 -0.313073 -8.55769e-20)
(2.28839 -0.280216 -8.43755e-20)
(2.46071 -0.247178 0)
(2.61017 -0.214326 0)
(2.73614 -0.181849 8.10297e-20)
(2.83831 -0.149632 -8.66929e-24)
(2.91632 -0.117499 -9.75209e-24)
(2.97013 -0.0853295 0)
(3.00001 -0.053455 1.5429e-19)
(3.006 -0.0224145 0)
(2.99061 0.00868964 0)
(2.95723 0.0387292 0)
(2.90938 0.0670136 -7.34403e-20)
(2.85111 0.0938803 0)
(2.78525 0.118227 1.4315e-19)
(2.71214 0.137338 7.05624e-20)
(2.63205 0.15005 0)
(2.54892 0.158285 6.85687e-20)
(2.47086 0.164484 0)
(2.40537 0.168833 0)
(2.35437 0.168762 1.96485e-19)
(2.31358 0.159711 -1.2887e-19)
(2.27662 0.139767 0)
(2.23891 0.111727 -1.24452e-19)
(2.19911 0.081185 6.10852e-20)
(2.15895 0.0529149 0)
(2.12146 0.0296383 0)
(2.08944 0.0124705 0)
(2.0646 0.00132897 1.69078e-19)
(2.04723 -0.00470718 0)
(2.03636 -0.00695495 5.39989e-20)
(2.03026 -0.00669687 0)
(2.02705 -0.00525271 0)
(2.02506 -0.0035536 0)
(2.02334 -0.00225788 0)
(2.02132 -0.00127633 0)
(2.01877 -0.000726844 0)
(2.01565 0.000290761 9.21662e-20)
(2.01161 0.00106554 0)
(2.00741 0.00352128 4.39224e-20)
(2.00129 0.00496099 -1.28568e-19)
(1.99674 0.0102274 0)
(1.98664 0.0116853 0)
(1.98399 0.0222994 7.94397e-20)
(1.96427 0.0218963 7.73937e-20)
(1.96967 0.0437252 -7.53668e-20)
(1.92685 0.0391594 -7.33962e-20)
(0.0115598 0.467369 -1.39604e-19)
(0.0753932 0.497803 -1.3863e-19)
(0.354233 -0.129041 -9.17492e-20)
(0.630451 -0.710765 -4.55267e-20)
(0.828779 -1.02025 0)
(0.944004 -1.06948 8.95402e-20)
(1.00007 -0.938212 -4.45595e-20)
(1.01614 -0.698645 0)
(1.00158 -0.402717 -4.36557e-20)
(0.963111 -0.0871322 0)
(0.900109 0.226514 8.62455e-20)
(0.804018 0.509447 0)
(0.685879 0.751275 4.22965e-20)
(0.509907 0.832463 8.39377e-20)
(0.256571 0.683025 -8.33378e-20)
(0.0246344 0.463164 0)
(-0.155687 0.323149 -8.21268e-20)
(-0.350488 0.3229 0)
(-0.585461 0.454763 0)
(-0.849958 0.636777 -8.01505e-20)
(-1.12161 0.825603 0)
(-1.37403 0.992623 -4.04123e-23)
(-1.5939 1.12 0)
(-1.78833 1.21497 0)
(-1.95649 1.27751 1.14915e-22)
(-2.10887 1.31147 -7.66186e-20)
(-2.25946 1.3275 -7.62567e-20)
(-2.4137 1.32931 -7.55548e-20)
(-2.57512 1.31733 0)
(-2.74026 1.29428 -1.49403e-19)
(-2.90746 1.26189 0)
(-3.07515 1.22275 -7.39783e-20)
(-3.24254 1.17917 0)
(-3.40859 1.13047 0)
(-3.57145 1.07603 7.27943e-20)
(-3.72901 1.01374 0)
(-3.87854 0.941845 -7.20309e-20)
(-4.0172 0.858852 3.64812e-22)
(-4.14202 0.764378 1.42114e-19)
(-4.25052 0.659531 -1.41652e-19)
(-4.34079 0.546467 0)
(-4.41123 0.428134 0)
(-4.46046 0.307858 -6.97972e-20)
(-4.48786 0.189104 0)
(-4.49388 0.0748948 -6.79595e-20)
(-4.47974 -0.0324378 6.73523e-20)
(-4.4469 -0.131185 6.66968e-20)
(-4.39677 -0.221488 0)
(-4.33039 -0.303731 -6.52872e-20)
(-4.24928 -0.378973 -6.45371e-20)
(-4.15465 -0.448653 1.28093e-19)
(-4.04762 -0.514404 -6.29592e-20)
(-3.92888 -0.577861 -6.21375e-20)
(-3.79865 -0.6404 0)
(-3.65668 -0.702988 0)
(-3.50247 -0.766096 5.95825e-20)
(-3.33561 -0.829691 0)
(-3.15614 -0.89322 0)
(-2.96469 -0.955732 -1.13947e-19)
(-2.76269 -1.01615 -1.12227e-19)
(-2.55263 -1.07367 0)
(-2.33815 -1.12798 0)
(-2.12344 -1.17966 0)
(-1.91262 -1.2303 0)
(-1.70924 -1.28243 -1.04262e-19)
(-1.5165 -1.33879 1.03182e-19)
(-1.3378 -1.40011 1.01537e-19)
(-1.17577 -1.45764 2.00882e-19)
(-1.02427 -1.46917 0)
(-0.84001 -1.33476 -3.50663e-24)
(-0.495025 -0.878737 0)
(0.0831768 -0.188 -9.61168e-20)
(0.577512 0.272757 -1.46271e-22)
(0.884207 0.363849 -9.36529e-20)
(1.05403 0.244591 9.26147e-20)
(1.15568 0.21125 -1.53068e-22)
(1.25129 0.284155 0)
(1.28673 0.257932 8.96749e-20)
(1.17906 -0.0402177 8.89798e-20)
(0.984259 -0.694881 1.75799e-19)
(0.823478 -1.4621 0)
(0.825541 -1.78503 -8.594e-20)
(0.942501 -1.5069 0)
(1.0127 -0.828933 1.6995e-19)
(1.02606 0.0509035 -8.43728e-20)
(1.06891 0.812947 8.3196e-20)
(1.20568 0.95065 -8.18361e-20)
(0.987597 0.917472 -1.61781e-19)
(0.1268 1.32731 7.95549e-20)
(-0.789354 1.817 -7.85653e-20)
(-1.4159 2.03969 0)
(-1.78773 2.01953 1.55415e-19)
(-2.01064 1.86026 0)
(-2.17619 1.64707 1.53885e-19)
(-2.3326 1.43208 -1.53277e-19)