/*--------------------------------*- C++ -*----------------------------------*\
  =========                 |
  \\      /  F ield         | OpenFOAM: The Open Source CFD Toolbox
   \\    /   O peration     | Website:  https://openfoam.org
    \\  /    A nd           | Version:  7
     \\/     M anipulation  |
\*---------------------------------------------------------------------------*/
FoamFile
{
    version     2.0;
    format      ascii;
    class       volSymmTensorField;
    location    "0.102";
    object      UPrime2Mean;
}
// * * * * * * * * * * * * * * * * * * * * * * * * * * * * * * * * * * * * * //

dimensions      [0 2 -2 0 0 0 0];

internalField   nonuniform List<symmTensor> 
12225
(
(0.00435853 -8.14243e-05 0 0.000485347 0 0)
(0.0211998 -0.000894564 0 0.000199599 0 0)
(0.0303163 -0.00130828 0 0.000161946 0 0)
(0.0402325 -0.00160785 0 0.000145537 0 0)
(0.0574697 -0.00202007 0 0.000138761 0 0)
(0.0832452 -0.00255652 0 0.000137996 0 0)
(0.117902 -0.0032175 0 0.000146818 0 0)
(0.161781 -0.0037467 0 0.00013769 0 0)
(0.215152 -0.00457764 0 0.000149659 0 0)
(0.277555 -0.00447449 0 0.000116979 0 0)
(0.35061 -0.00600701 0 0.000140565 0 0)
(0.428746 -0.00401671 0 8.13668e-05 0 0)
(0.524247 -0.00910785 0 0.000201876 0 0)
(0.616589 -0.00124757 0 0.000137289 0 0)
(0.754596 -0.0210437 0 0.000931096 0 0)
(0.886824 0.00883502 0 0.00107666 0 0)
(1.15097 -0.0781721 0 0.010354 0 0)
(1.53789 0.0302037 0 0.00506614 0 0)
(0.0038468 4.65644e-05 0 0.000642831 0 0)
(0.0143001 -0.000421489 0 0.00020292 0 0)
(0.0154679 -0.000716531 0 0.000221696 0 0)
(0.0158957 -0.000897034 0 0.000288247 0 0)
(0.0187619 -0.00126585 0 0.000374996 0 0)
(0.0239349 -0.00195176 0 0.000489327 0 0)
(0.0319033 -0.00293503 0 0.000610496 0 0)
(0.0439953 -0.00434595 0 0.000781095 0 0)
(0.0606802 -0.00588823 0 0.000889297 0 0)
(0.0849315 -0.00821312 0 0.00111026 0 0)
(0.115445 -0.0100026 0 0.00113045 0 0)
(0.158844 -0.013884 0 0.0014637 0 0)
(0.208553 -0.0152753 0 0.00134703 0 0)
(0.28227 -0.0234218 0 0.00216253 0 0)
(0.360211 -0.0240742 0 0.00195386 0 0)
(0.49548 -0.0473805 0 0.00525488 0 0)
(0.629334 -0.0573965 0 0.00586568 0 0)
(0.900384 -0.155961 0 0.0358486 0 0)
(0.00376147 0.000100632 0 0.000816442 0 0)
(0.0140874 -0.000609506 0 0.00037121 0 0)
(0.0146682 -0.00099192 0 0.000391702 0 0)
(0.0141585 -0.00111362 0 0.000484161 0 0)
(0.0152529 -0.00132061 0 0.000612906 0 0)
(0.0171103 -0.0017185 0 0.000780714 0 0)
(0.0196172 -0.00233527 0 0.00102774 0 0)
(0.0229182 -0.00312446 0 0.00126995 0 0)
(0.0274556 -0.00426006 0 0.00164119 0 0)
(0.0335493 -0.00547707 0 0.00190076 0 0)
(0.0423651 -0.00754985 0 0.00242099 0 0)
(0.0541326 -0.00931681 0 0.00261602 0 0)
(0.0715131 -0.0135309 0 0.00356383 0 0)
(0.0944796 -0.016258 0 0.00370795 0 0)
(0.129202 -0.0270668 0 0.00653289 0 0)
(0.17561 -0.034257 0 0.00740898 0 0)
(0.243108 -0.0688995 0 0.0207964 0 0)
(0.329116 -0.114057 0 0.0423949 0 0)
(0.00383846 -0.000184307 0 0.000935266 0 0)
(0.0141423 -0.000846027 0 0.000440785 0 0)
(0.0146952 -0.00116635 0 0.000452087 0 0)
(0.0140931 -0.00129659 0 0.00058082 0 0)
(0.0149282 -0.00150675 0 0.000743086 0 0)
(0.0163715 -0.00190415 0 0.000956563 0 0)
(0.0182394 -0.00247326 0 0.00122053 0 0)
(0.0205981 -0.00321858 0 0.00157973 0 0)
(0.0235191 -0.00409532 0 0.00195938 0 0)
(0.0273795 -0.00528654 0 0.00248026 0 0)
(0.0324212 -0.00669622 0 0.00298018 0 0)
(0.0395074 -0.00889982 0 0.00377416 0 0)
(0.049061 -0.0116211 0 0.0045843 0 0)
(0.0629487 -0.016502 0 0.00623988 0 0)
(0.0819721 -0.0233491 0 0.00852765 0 0)
(0.108868 -0.036444 0 0.0140235 0 0)
(0.14378 -0.0591459 0 0.025835 0 0)
(0.179746 -0.0949389 0 0.0517914 0 0)
(0.00426194 -0.000145249 0 0.00101651 0 0)
(0.0139031 -0.000941854 0 0.000554943 0 0)
(0.0142813 -0.00124676 0 0.000558846 0 0)
(0.0137222 -0.00137542 0 0.000716618 0 0)
(0.0145943 -0.00160402 0 0.000917073 0 0)
(0.0159983 -0.00203392 0 0.00116187 0 0)
(0.0177581 -0.00266112 0 0.00149633 0 0)
(0.0199336 -0.0034534 0 0.0018942 0 0)
(0.0226318 -0.00446203 0 0.00242577 0 0)
(0.0260657 -0.00567466 0 0.00300872 0 0)
(0.030555 -0.00738382 0 0.00381437 0 0)
(0.0365358 -0.00956883 0 0.00473321 0 0)
(0.0446098 -0.012984 0 0.00622141 0 0)
(0.0556091 -0.0177342 0 0.00823151 0 0)
(0.0703643 -0.0257055 0 0.0120896 0 0)
(0.0893609 -0.038039 0 0.0189084 0 0)
(0.111449 -0.0578361 0 0.0325362 0 0)
(0.12992 -0.0875697 0 0.062361 0 0)
(0.00387815 -0.000174002 0 0.00116359 0 0)
(0.0137584 -0.00108714 0 0.000694632 0 0)
(0.0139886 -0.00136118 0 0.000702424 0 0)
(0.0133863 -0.00146302 0 0.000916678 0 0)
(0.0142017 -0.00169745 0 0.00118312 0 0)
(0.0154695 -0.00215239 0 0.00149868 0 0)
(0.0170404 -0.00281116 0 0.00189135 0 0)
(0.0190023 -0.00366378 0 0.00239415 0 0)
(0.0214576 -0.00473188 0 0.00301303 0 0)
(0.024584 -0.00610403 0 0.00379118 0 0)
(0.0286562 -0.00793164 0 0.00477011 0 0)
(0.0339833 -0.0104674 0 0.00608967 0 0)
(0.0410471 -0.0140923 0 0.00795994 0 0)
(0.0502083 -0.019393 0 0.0108255 0 0)
(0.0619977 -0.0274173 0 0.0156029 0 0)
(0.0757214 -0.0392504 0 0.0238666 0 0)
(0.0902874 -0.0566288 0 0.0389861 0 0)
(0.100498 -0.0787095 0 0.0652649 0 0)
(0.00347995 -0.000236138 0 0.00139037 0 0)
(0.0131491 -0.00123971 0 0.000923512 0 0)
(0.0132961 -0.00148188 0 0.00089085 0 0)
(0.0126878 -0.00158467 0 0.00111262 0 0)
(0.0134899 -0.00183399 0 0.00141893 0 0)
(0.0147019 -0.00231439 0 0.00178309 0 0)
(0.0161607 -0.00301458 0 0.0022434 0 0)
(0.0179437 -0.00391907 0 0.00282886 0 0)
(0.0201534 -0.00506272 0 0.00358046 0 0)
(0.0229503 -0.00652677 0 0.00453153 0 0)
(0.0265606 -0.00849016 0 0.00576278 0 0)
(0.0312032 -0.01119 0 0.00742961 0 0)
(0.0371719 -0.0149913 0 0.00979857 0 0)
(0.0445821 -0.0204142 0 0.0134063 0 0)
(0.0535497 -0.0281302 0 0.019055 0 0)
(0.06316 -0.0389439 0 0.0284519 0 0)
(0.0723471 -0.0531375 0 0.0434879 0 0)
(0.077454 -0.0696954 0 0.0675304 0 0)
(0.0036144 -0.00016825 0 0.00131436 0 0)
(0.0131045 -0.00133675 0 0.000944333 0 0)
(0.0131887 -0.00155057 0 0.0010053 0 0)
(0.0125124 -0.0016036 0 0.00128905 0 0)
(0.0132594 -0.00184853 0 0.00166234 0 0)
(0.0144065 -0.00233981 0 0.00210624 0 0)
(0.0157472 -0.00304805 0 0.00265823 0 0)
(0.0173286 -0.0039718 0 0.00336484 0 0)
(0.0192415 -0.00515623 0 0.00426916 0 0)
(0.021628 -0.00669233 0 0.00542916 0 0)
(0.0246692 -0.00874132 0 0.00694132 0 0)
(0.0285022 -0.0115202 0 0.00899282 0 0)
(0.0332742 -0.0153389 0 0.0118805 0 0)
(0.0389411 -0.0205832 0 0.0161454 0 0)
(0.0453774 -0.0276951 0 0.0225594 0 0)
(0.0517145 -0.0369947 0 0.0324719 0 0)
(0.0570515 -0.0483017 0 0.0472274 0 0)
(0.0591033 -0.0604556 0 0.068869 0 0)
(0.00418378 -0.000387569 0 0.00141038 0 0)
(0.0133137 -0.00167053 0 0.00110736 0 0)
(0.0130514 -0.00185982 0 0.00118645 0 0)
(0.0123091 -0.00187677 0 0.00150125 0 0)
(0.013 -0.00212604 0 0.00193953 0 0)
(0.0139887 -0.00264571 0 0.00247016 0 0)
(0.0151078 -0.0033853 0 0.00312377 0 0)
(0.0164486 -0.00433398 0 0.00395251 0 0)
(0.0180874 -0.0055383 0 0.00501239 0 0)
(0.0201123 -0.00709144 0 0.00638088 0 0)
(0.0226328 -0.00914143 0 0.00816883 0 0)
(0.0257176 -0.0118805 0 0.0105902 0 0)
(0.029409 -0.0155424 0 0.01394 0 0)
(0.0335624 -0.0203868 0 0.0187468 0 0)
(0.0379491 -0.0266288 0 0.0256552 0 0)
(0.0418243 -0.0342985 0 0.0357275 0 0)
(0.0445706 -0.0429983 0 0.0497983 0 0)
(0.0447921 -0.0516405 0 0.0690177 0 0)
(0.00372944 -0.000304689 0 0.00155453 0 0)
(0.0131469 -0.00168468 0 0.00122976 0 0)
(0.0129696 -0.00186901 0 0.00134172 0 0)
(0.0122212 -0.00185921 0 0.0016881 0 0)
(0.0128336 -0.0020963 0 0.00216906 0 0)
(0.0137055 -0.00261844 0 0.00276442 0 0)
(0.0146739 -0.00335994 0 0.00350408 0 0)
(0.0158055 -0.00430354 0 0.00444577 0 0)
(0.0171617 -0.00549985 0 0.00565907 0 0)
(0.0188152 -0.00703888 0 0.00723523 0 0)
(0.0208324 -0.00904283 0 0.00929485 0 0)
(0.0232144 -0.0116551 0 0.0120534 0 0)
(0.0259209 -0.015036 0 0.0157966 0 0)
(0.0287568 -0.0193221 0 0.0209975 0 0)
(0.0314822 -0.0245725 0 0.0281697 0 0)
(0.0335185 -0.0306395 0 0.0381025 0 0)
(0.0345295 -0.0370789 0 0.0512482 0 0)
(0.0336505 -0.0429828 0 0.0682885 0 0)
(0.00392414 -0.000352915 0 0.00174949 0 0)
(0.0130013 -0.00194598 0 0.00149021 0 0)
(0.0125326 -0.00217138 0 0.00160177 0 0)
(0.0116455 -0.00210522 0 0.00198501 0 0)
(0.0121969 -0.00230936 0 0.00253168 0 0)
(0.0130099 -0.00281757 0 0.00321571 0 0)
(0.0138833 -0.00353848 0 0.00405923 0 0)
(0.0148748 -0.00444593 0 0.00512581 0 0)
(0.0160286 -0.00558351 0 0.00649109 0 0)
(0.0173797 -0.00703142 0 0.00826019 0 0)
(0.0189529 -0.00889148 0 0.0105618 0 0)
(0.0207143 -0.0112635 0 0.0136041 0 0)
(0.022594 -0.0142406 0 0.0176418 0 0)
(0.0243992 -0.0178616 0 0.0230744 0 0)
(0.0259356 -0.0220884 0 0.0302825 0 0)
(0.0267827 -0.0266867 0 0.0398297 0 0)
(0.0268131 -0.0312578 0 0.0519058 0 0)
(0.0254846 -0.0350785 0 0.0669234 0 0)
(0.00372806 -0.00041251 0 0.00181175 0 0)
(0.0128748 -0.00194612 0 0.00156421 0 0)
(0.0124038 -0.00217259 0 0.00172369 0 0)
(0.0114397 -0.00208961 0 0.00214543 0 0)
(0.0118621 -0.0022704 0 0.00274248 0 0)
(0.0125088 -0.00276195 0 0.00350108 0 0)
(0.0132023 -0.00346576 0 0.00444104 0 0)
(0.0139968 -0.00434234 0 0.00561997 0 0)
(0.0149094 -0.00542414 0 0.00712157 0 0)
(0.0159427 -0.00677693 0 0.00905481 0 0)
(0.0170901 -0.00847791 0 0.0115473 0 0)
(0.018295 -0.0105868 0 0.0147942 0 0)
(0.01948 -0.0131431 0 0.0190136 0 0)
(0.0204894 -0.0161218 0 0.0245351 0 0)
(0.0211864 -0.0194277 0 0.0316233 0 0)
(0.021297 -0.0228086 0 0.0406796 0 0)
(0.0208022 -0.0259245 0 0.0517326 0 0)
(0.0193545 -0.0282249 0 0.0650607 0 0)
(0.00398346 -0.000496235 0 0.00204078 0 0)
(0.013253 -0.00211291 0 0.00180553 0 0)
(0.0126345 -0.00228525 0 0.00195431 0 0)
(0.0115287 -0.00212117 0 0.00240605 0 0)
(0.0118226 -0.00224262 0 0.00305074 0 0)
(0.0123398 -0.00269089 0 0.00388308 0 0)
(0.0128836 -0.00335166 0 0.00492119 0 0)
(0.0134888 -0.00416444 0 0.00621409 0 0)
(0.0141546 -0.00514178 0 0.00784081 0 0)
(0.0148715 -0.00633323 0 0.00990875 0 0)
(0.0156203 -0.00779664 0 0.0125425 0 0)
(0.0163495 -0.00956457 0 0.0159179 0 0)
(0.0169872 -0.0116387 0 0.0202145 0 0)
(0.0174131 -0.013956 0 0.0256956 0 0)
(0.0175308 -0.016394 0 0.0325313 0 0)
(0.0171657 -0.0187148 0 0.0410096 0 0)
(0.0163663 -0.0206377 0 0.0510593 0 0)
(0.0149013 -0.0217492 0 0.0628919 0 0)
(0.00343676 -0.000562891 0 0.00236996 0 0)
(0.0126738 -0.0022504 0 0.00217489 0 0)
(0.012062 -0.00237602 0 0.00228156 0 0)
(0.0109542 -0.00215399 0 0.00274197 0 0)
(0.0112138 -0.00221636 0 0.00342801 0 0)
(0.0116508 -0.00260204 0 0.0043212 0 0)
(0.0120458 -0.00317826 0 0.00543727 0 0)
(0.012424 -0.00386768 0 0.00682472 0 0)
(0.0127931 -0.00467227 0 0.00855552 0 0)
(0.0131614 -0.00563047 0 0.0107321 0 0)
(0.013529 -0.00678352 0 0.0134656 0 0)
(0.0138529 -0.0081354 0 0.0169067 0 0)
(0.0140656 -0.00965512 0 0.02119 0 0)
(0.0140672 -0.0112454 0 0.0265108 0 0)
(0.0137916 -0.0127809 0 0.0329545 0 0)
(0.0131485 -0.014044 0 0.040717 0 0)
(0.0122264 -0.0148455 0 0.0496519 0 0)
(0.0108895 -0.0148682 0 0.0599361 0 0)
(0.00388383 -0.000353952 0 0.00248906 0 0)
(0.0129037 -0.00238894 0 0.00245682 0 0)
(0.0121437 -0.00259298 0 0.00262266 0 0)
(0.0109578 -0.00237682 0 0.00313373 0 0)
(0.01114 -0.00241844 0 0.00387596 0 0)
(0.0114656 -0.00275133 0 0.00483521 0 0)
(0.0117144 -0.00324318 0 0.00603033 0 0)
(0.0119146 -0.00381727 0 0.00750202 0 0)
(0.0120741 -0.00446774 0 0.00931228 0 0)
(0.0121978 -0.00521443 0 0.0115502 0 0)
(0.0122774 -0.00606979 0 0.0143078 0 0)
(0.0122733 -0.00700542 0 0.0177036 0 0)
(0.0121351 -0.00796615 0 0.0218249 0 0)
(0.0118079 -0.00884314 0 0.0268062 0 0)
(0.0112828 -0.00953137 0 0.0326626 0 0)
(0.0105339 -0.00985375 0 0.0395273 0 0)
(0.00968467 -0.00970445 0 0.0472146 0 0)
(0.00863474 -0.00884831 0 0.0558889 0 0)
(0.00412395 -0.000310907 0 0.00279656 0 0)
(0.0129374 -0.00238552 0 0.00254864 0 0)
(0.0119513 -0.00258901 0 0.00263346 0 0)
(0.010546 -0.0023018 0 0.00315033 0 0)
(0.0104875 -0.00226134 0 0.00391895 0 0)
(0.0105779 -0.00251198 0 0.00492224 0 0)
(0.0106485 -0.00289588 0 0.00616806 0 0)
(0.0107229 -0.00330845 0 0.00768429 0 0)
(0.0107589 -0.00372528 0 0.00951804 0 0)
(0.010714 -0.00415453 0 0.0117386 0 0)
(0.0105716 -0.00460046 0 0.0144136 0 0)
(0.0103233 -0.00502945 0 0.0176288 0 0)
(0.00996924 -0.00538647 0 0.0214298 0 0)
(0.00951426 -0.00557212 0 0.0259006 0 0)
(0.00898306 -0.0055067 0 0.03101 0 0)
(0.00839397 -0.0050545 0 0.0368482 0 0)
(0.00785263 -0.00417083 0 0.0432262 0 0)
(0.00728439 -0.00268842 0 0.0503057 0 0)
(0.003967 -0.000378594 0 0.00294645 0 0)
(0.0130519 -0.00261926 0 0.00267435 0 0)
(0.0119601 -0.00284947 0 0.00278476 0 0)
(0.0104712 -0.00247921 0 0.00334637 0 0)
(0.0103435 -0.00234891 0 0.00414053 0 0)
(0.0103193 -0.00251757 0 0.00516202 0 0)
(0.0102353 -0.00278696 0 0.00641262 0 0)
(0.0101381 -0.0030134 0 0.00790139 0 0)
(0.0100074 -0.00315907 0 0.00966109 0 0)
(0.00982114 -0.00323867 0 0.0117468 0 0)
(0.00957471 -0.00326627 0 0.0142053 0 0)
(0.00927161 -0.00321511 0 0.0170913 0 0)
(0.00891799 -0.00303586 0 0.0204167 0 0)
(0.00853562 -0.00264266 0 0.024227 0 0)
(0.00815358 -0.00197804 0 0.0284641 0 0)
(0.00781547 -0.000945239 0 0.0331937 0 0)
(0.0076045 0.000459354 0 0.0382331 0 0)
(0.00748992 0.00235638 0 0.0437422 0 0)
(0.0036712 -0.000407268 0 0.00301148 0 0)
(0.0128644 -0.00259589 0 0.00298764 0 0)
(0.0116806 -0.00276674 0 0.00290235 0 0)
(0.0100513 -0.00242167 0 0.00330001 0 0)
(0.00978841 -0.00229454 0 0.00401088 0 0)
(0.00959004 -0.00236723 0 0.00494055 0 0)
(0.00930701 -0.00245516 0 0.00605365 0 0)
(0.00903475 -0.00245617 0 0.0073542 0 0)
(0.00878668 -0.00235117 0 0.00886877 0 0)
(0.00855088 -0.0021468 0 0.0106374 0 0)
(0.0083213 -0.00183838 0 0.012686 0 0)
(0.0080999 -0.00139221 0 0.0150416 0 0)
(0.00789356 -0.000765703 0 0.0176962 0 0)
(0.00773324 9.76919e-05 0 0.0206728 0 0)
(0.0076516 0.00122518 0 0.0239131 0 0)
(0.00770223 0.00266715 0 0.0274712 0 0)
(0.00794466 0.0044057 0 0.0311991 0 0)
(0.00837178 0.00650943 0 0.0352327 0 0)
(0.00371815 -0.00017869 0 0.00281581 0 0)
(0.0130707 -0.00227797 0 0.00271075 0 0)
(0.0115826 -0.00243096 0 0.00263487 0 0)
(0.00974186 -0.00197065 0 0.00303347 0 0)
(0.00936838 -0.00163828 0 0.00365669 0 0)
(0.00907265 -0.00148679 0 0.00442633 0 0)
(0.00873431 -0.00135984 0 0.00533832 0 0)
(0.00847014 -0.00114596 0 0.00640548 0 0)
(0.00828891 -0.000800487 0 0.00763539 0 0)
(0.00816913 -0.000315123 0 0.00903234 0 0)
(0.00810265 0.000307703 0 0.0105914 0 0)
(0.00809964 0.00107811 0 0.0123197 0 0)
(0.00818297 0.00201242 0 0.0142072 0 0)
(0.00839707 0.00314238 0 0.0162738 0 0)
(0.00877679 0.00447815 0 0.0184788 0 0)
(0.00936955 0.0060529 0 0.0208638 0 0)
(0.0102102 0.00784157 0 0.0233212 0 0)
(0.0112933 0.00989387 0 0.0259482 0 0)
(0.00406091 -0.000310259 0 0.00329792 0 0)
(0.012687 -0.00215556 0 0.00295078 0 0)
(0.0110885 -0.00215435 0 0.00269274 0 0)
(0.00928805 -0.00163771 0 0.00292324 0 0)
(0.00885126 -0.00124959 0 0.003351 0 0)
(0.00850608 -0.00102201 0 0.00389842 0 0)
(0.00816587 -0.0008175 0 0.00455559 0 0)
(0.0079316 -0.000525046 0 0.00531831 0 0)
(0.00781234 -9.25355e-05 0 0.00618405 0 0)
(0.00779932 0.00048952 0 0.00715747 0 0)
(0.00789567 0.00121326 0 0.0082404 0 0)
(0.00811747 0.00207574 0 0.00943816 0 0)
(0.00848423 0.003077 0 0.010739 0 0)
(0.00902937 0.00423039 0 0.0121485 0 0)
(0.00977895 0.00553559 0 0.0136295 0 0)
(0.0107677 0.00701121 0 0.0152088 0 0)
(0.0120188 0.00863594 0 0.0168142 0 0)
(0.0135298 0.0104434 0 0.0185068 0 0)
(0.00430364 -0.000387734 0 0.00297414 0 0)
(0.0129362 -0.00198655 0 0.00259523 0 0)
(0.0113133 -0.00185007 0 0.00220903 0 0)
(0.0095148 -0.00127025 0 0.00229468 0 0)
(0.0090723 -0.000846588 0 0.00258585 0 0)
(0.00872157 -0.000572386 0 0.00298838 0 0)
(0.00840374 -0.000311558 0 0.00346741 0 0)
(0.00823037 2.81029e-05 0 0.00400526 0 0)
(0.00820591 0.000486573 0 0.00459669 0 0)
(0.00831554 0.00107288 0 0.00524794 0 0)
(0.00856635 0.00178139 0 0.00596294 0 0)
(0.00898226 0.00260747 0 0.00674629 0 0)
(0.00958861 0.00354676 0 0.00758964 0 0)
(0.0104138 0.00460527 0 0.00849695 0 0)
(0.011473 0.00577858 0 0.00944425 0 0)
(0.0127874 0.00707871 0 0.0104509 0 0)
(0.0143697 0.0084868 0 0.0114715 0 0)
(0.0162115 0.0100303 0 0.0125498 0 0)
(0.00368949 -0.000144122 0 0.00283312 0 0)
(0.012599 -0.00168867 0 0.00204382 0 0)
(0.0110561 -0.00166383 0 0.00167423 0 0)
(0.00922678 -0.0011652 0 0.00174036 0 0)
(0.00873284 -0.000756819 0 0.00197576 0 0)
(0.00835186 -0.000486998 0 0.00229506 0 0)
(0.00802597 -0.00024985 0 0.00266091 0 0)
(0.0078626 5.53131e-05 0 0.00306668 0 0)
(0.00787127 0.000483435 0 0.00351647 0 0)
(0.0080491 0.00104335 0 0.00401403 0 0)
(0.00840875 0.00171866 0 0.00455549 0 0)
(0.00896993 0.00249261 0 0.00513814 0 0)
(0.00974992 0.00335532 0 0.00575398 0 0)
(0.010771 0.00430945 0 0.00640584 0 0)
(0.0120461 0.0053538 0 0.00707688 0 0)
(0.0135934 0.00649877 0 0.00778241 0 0)
(0.0154221 0.00772798 0 0.00848897 0 0)
(0.017525 0.00905904 0 0.00922469 0 0)
(0.00398333 -0.000290273 0 0.00250807 0 0)
(0.0123411 -0.00155352 0 0.00197328 0 0)
(0.0107078 -0.00136852 0 0.00158717 0 0)
(0.008927 -0.000842817 0 0.00150441 0 0)
(0.00848946 -0.000448009 0 0.00158459 0 0)
(0.00814427 -0.000181785 0 0.0017421 0 0)
(0.00785553 5.52015e-05 0 0.001929 0 0)
(0.00776377 0.000338232 0 0.00213314 0 0)
(0.00788668 0.000707056 0 0.00236322 0 0)
(0.00821121 0.00117174 0 0.00263043 0 0)
(0.00874243 0.0017255 0 0.0029355 0 0)
(0.00949527 0.00235883 0 0.00327341 0 0)
(0.0104852 0.00306427 0 0.00363484 0 0)
(0.0117285 0.00384054 0 0.0040193 0 0)
(0.0132391 0.0046824 0 0.0044152 0 0)
(0.0150273 0.00559333 0 0.00483447 0 0)
(0.0171089 0.00656344 0 0.00525719 0 0)
(0.0194586 0.00760243 0 0.00570025 0 0)
(0.0040921 -0.000404599 0 0.002184 0 0)
(0.0122163 -0.0014239 0 0.00151816 0 0)
(0.0102879 -0.00104852 0 0.0012165 0 0)
(0.00853943 -0.000460217 0 0.00120473 0 0)
(0.00831329 -5.17971e-05 0 0.0012943 0 0)
(0.00818051 0.000206938 0 0.00142597 0 0)
(0.00807261 0.000434498 0 0.00157583 0 0)
(0.00815961 0.000716165 0 0.00174094 0 0)
(0.00849218 0.00108969 0 0.00192372 0 0)
(0.00906971 0.00155572 0 0.00212423 0 0)
(0.009895 0.00209857 0 0.00233921 0 0)
(0.0109804 0.00270302 0 0.00256792 0 0)
(0.0123388 0.00335937 0 0.0028087 0 0)
(0.0139837 0.0040672 0 0.00306431 0 0)
(0.0159168 0.00482154 0 0.00332725 0 0)
(0.0181372 0.00562655 0 0.00360637 0 0)
(0.0206459 0.00647111 0 0.00388697 0 0)
(0.0234172 0.00736902 0 0.00417642 0 0)
(0.00443621 -0.000344262 0 0.00190731 0 0)
(0.0123361 -0.00122104 0 0.0012334 0 0)
(0.0102812 -0.000925841 0 0.000851558 0 0)
(0.00846614 -0.000505737 0 0.000788111 0 0)
(0.00817414 -0.000209805 0 0.000817319 0 0)
(0.00797138 -2.20122e-05 0 0.000850039 0 0)
(0.00781621 0.000130336 0 0.000881791 0 0)
(0.00788871 0.000309257 0 0.000935713 0 0)
(0.00822785 0.000549299 0 0.0010195 0 0)
(0.00882249 0.000856315 0 0.00112482 0 0)
(0.0096777 0.00122003 0 0.00124131 0 0)
(0.0108125 0.00163014 0 0.00136538 0 0)
(0.0122442 0.00208137 0 0.0014971 0 0)
(0.0139802 0.00257436 0 0.00163923 0 0)
(0.0160181 0.00310686 0 0.0017878 0 0)
(0.0183476 0.00367941 0 0.001947 0 0)
(0.0209693 0.00428254 0 0.0021078 0 0)
(0.0238453 0.00492369 0 0.00227435 0 0)
(0.0041413 -0.000243314 0 0.00179739 0 0)
(0.0120353 -0.000905228 0 0.00100711 0 0)
(0.0098715 -0.000736504 0 0.00066605 0 0)
(0.00814017 -0.000367779 0 0.000639904 0 0)
(0.00794783 -4.79623e-05 0 0.000667952 0 0)
(0.00786867 0.000171983 0 0.000693703 0 0)
(0.00793136 0.000347988 0 0.00071471 0 0)
(0.0083117 0.000535354 0 0.000740084 0 0)
(0.00899827 0.000762888 0 0.000776673 0 0)
(0.00993458 0.00103707 0 0.000823957 0 0)
(0.0111133 0.00135198 0 0.000878791 0 0)
(0.0125656 0.00170198 0 0.000939806 0 0)
(0.0143253 0.00208337 0 0.00100711 0 0)
(0.0164103 0.0024956 0 0.00108292 0 0)
(0.0188221 0.00293527 0 0.00116549 0 0)
(0.0215484 0.00340369 0 0.00125827 0 0)
(0.0245896 0.00389308 0 0.00135621 0 0)
(0.0279033 0.00441133 0 0.00146193 0 0)
(0.00353782 -0.000400985 0 0.00147707 0 0)
(0.011357 -0.00056952 0 0.00066006 0 0)
(0.00918997 -0.000329736 0 0.000368695 0 0)
(0.00764984 -0.000112337 0 0.000321697 0 0)
(0.00762048 4.78829e-05 0 0.000304575 0 0)
(0.00766732 0.000135264 0 0.000298276 0 0)
(0.00784235 0.000198314 0 0.000306023 0 0)
(0.00833387 0.000280594 0 0.000322277 0 0)
(0.00914912 0.000397465 0 0.000342321 0 0)
(0.0102513 0.000546277 0 0.000364837 0 0)
(0.0116451 0.00071917 0 0.000390306 0 0)
(0.0133587 0.000909789 0 0.000419909 0 0)
(0.0154101 0.00111523 0 0.000454134 0 0)
(0.0177946 0.00133655 0 0.000493984 0 0)
(0.0204957 0.0015738 0 0.000538543 0 0)
(0.0234902 0.00182971 0 0.000589779 0 0)
(0.0267786 0.00209911 0 0.000645298 0 0)
(0.030322 0.00238896 0 0.000705473 0 0)
(0.00433389 -0.000417102 0 0.00120752 0 0)
(0.0112922 -0.00067928 0 0.000482854 0 0)
(0.00887542 -0.00049849 0 0.000327678 0 0)
(0.00756595 -0.000231613 0 0.000297995 0 0)
(0.00771453 -4.4948e-05 0 0.000259211 0 0)
(0.00788672 5.98614e-05 0 0.000223681 0 0)
(0.00825228 0.000141592 0 0.000204761 0 0)
(0.00902029 0.000227218 0 0.00019759 0 0)
(0.0101694 0.000316884 0 0.000196636 0 0)
(0.0116345 0.000409991 0 0.000199519 0 0)
(0.0133997 0.000511149 0 0.000206211 0 0)
(0.015483 0.000625619 0 0.000217493 0 0)
(0.0178979 0.000756754 0 0.000234005 0 0)
(0.0206449 0.000905522 0 0.000255989 0 0)
(0.023709 0.00106971 0 0.00028289 0 0)
(0.0270789 0.00124598 0 0.000316052 0 0)
(0.0307518 0.00142904 0 0.000354445 0 0)
(0.0347002 0.00161977 0 0.000397276 0 0)
(0.00360756 -0.000198488 0 0.000912281 0 0)
(0.0105596 -2.02207e-06 0 0.000230829 0 0)
(0.00821603 -5.96732e-05 0 0.000144039 0 0)
(0.00700567 -2.67462e-05 0 0.000128791 0 0)
(0.00726586 -2.75923e-05 0 0.000125858 0 0)
(0.00758494 -5.27236e-05 0 0.000126054 0 0)
(0.00811058 -8.13361e-05 0 0.000125486 0 0)
(0.00901964 -0.000111015 0 0.00012615 0 0)
(0.0102526 -0.000140493 0 0.000130045 0 0)
(0.0117134 -0.000164271 0 0.000136418 0 0)
(0.0133637 -0.000176644 0 0.000144218 0 0)
(0.0152217 -0.000174785 0 0.000153176 0 0)
(0.0173029 -0.000157139 0 0.000163495 0 0)
(0.0196384 -0.000122768 0 0.000175685 0 0)
(0.0222143 -7.07868e-05 0 0.000189604 0 0)
(0.0250682 -1.41705e-06 0 0.000206354 0 0)
(0.0281618 8.47096e-05 0 0.000225894 0 0)
(0.0315593 0.000188579 0 0.000247279 0 0)
(0.00384776 -0.000293517 0 0.000724413 0 0)
(0.0112399 -2.32742e-05 0 0.000207158 0 0)
(0.00980571 2.40634e-05 0 0.00012576 0 0)
(0.00927832 7.99264e-05 0 9.41039e-05 0 0)
(0.00999947 9.19068e-05 0 7.59075e-05 0 0)
(0.0107013 9.82061e-05 0 6.37536e-05 0 0)
(0.0114211 0.000108604 0 5.5452e-05 0 0)
(0.0123178 0.00012152 0 4.98152e-05 0 0)
(0.0134501 0.000135064 0 4.61009e-05 0 0)
(0.0148412 0.00015021 0 4.41881e-05 0 0)
(0.0165087 0.000170159 0 4.37803e-05 0 0)
(0.0184726 0.000198009 0 4.4496e-05 0 0)
(0.0207646 0.000235893 0 4.60293e-05 0 0)
(0.0234277 0.00028441 0 4.81364e-05 0 0)
(0.0265184 0.000342633 0 5.07699e-05 0 0)
(0.0300607 0.000408955 0 5.42182e-05 0 0)
(0.0341142 0.000482013 0 5.80825e-05 0 0)
(0.0386373 0.000563982 0 6.17859e-05 0 0)
(0.00218041 -0.00569393 9.9982e-23 0.0153224 -2.25453e-22 9.22932e-38)
(0.0249568 -0.0201905 -2.8979e-22 0.0167091 1.88859e-22 9.10016e-38)
(0.065897 -0.0276645 0 0.0123945 0 0)
(0.108562 -0.0264897 0 0.00810616 0 0)
(0.142004 -0.0198652 0 0.00537675 0 0)
(0.164006 -0.0126108 6.53015e-22 0.00491669 -4.50706e-23 8.57163e-38)
(0.179062 -0.00783224 0 0.00625454 0 0)
(0.191537 -0.00716824 0 0.00898759 0 0)
(0.210603 -0.0123443 0 0.0123843 0 0)
(0.246004 -0.0230993 0 0.0155026 0 0)
(0.307298 -0.0365487 -7.8888e-22 0.0156678 3.59058e-23 7.93963e-38)
(0.398295 -0.046833 0 0.0134958 0 0)
(0.515258 -0.0553959 0 0.0120166 0 0)
(0.651441 -0.0644479 0 0.010846 0 0)
(0.801594 -0.0705147 0 0.00969366 0 0)
(0.962219 -0.072673 -9.85219e-22 0.00836272 6.41053e-23 7.33855e-38)
(1.12484 -0.0708022 0 0.00699563 0 0)
(1.27873 -0.0639366 0 0.00571449 0 0)
(1.41592 -0.0530555 0 0.00493104 0 0)
(1.53126 -0.0398574 0 0.00482922 0 0)
(1.62367 -0.0263787 0 0.0053165 0 0)
(1.6942 -0.0147244 0 0.00611224 0 0)
(1.74644 -0.00599721 0 0.00704348 0 0)
(1.78581 0.000250289 -1.77125e-21 0.00810268 1.44312e-22 6.44049e-38)
(1.81795 0.00397357 1.92925e-21 0.00861687 -1.51945e-22 6.33371e-38)
(1.84818 0.00356708 -2.09861e-21 0.00858257 1.60445e-22 6.22815e-38)
(1.88239 -0.000498833 -2.27798e-21 0.00980787 1.67536e-22 6.12379e-38)
(1.92336 -0.00520835 0 0.0115345 0 0)
(1.96975 -0.0100633 0 0.0145479 0 0)
(2.02103 -0.0158515 2.83917e-21 0.0194925 -1.55901e-22 5.81799e-38)
(2.0773 -0.0240749 3.01954e-21 0.0271625 -1.39057e-22 5.71847e-38)
(2.14168 -0.0356818 0 0.0357814 0 0)
(2.21336 -0.0474259 0 0.041833 0 0)
(2.28606 -0.0554731 3.5288e-21 0.0437205 -1.12106e-22 5.42714e-38)
(2.35908 -0.0590476 0 0.0426153 0 0)
(2.43587 -0.063787 0 0.0427612 0 0)
(2.52098 -0.075374 -4.01689e-21 0.0444423 1.12358e-22 5.14662e-38)
(2.61434 -0.0877834 0 0.0458561 0 0)
(2.71785 -0.0902686 -4.31352e-21 0.0448794 1.04118e-22 4.96558e-38)
(2.82883 -0.0961409 -8.90318e-21 0.0479759 2.03374e-22 1.95074e-37)
(2.95498 -0.10662 0 0.0481407 0 0)
(3.08476 -0.104617 0 0.0483408 0 0)
(3.21876 -0.115457 0 0.0444724 0 0)
(3.38359 -0.133479 0 0.0433594 0 0)
(3.56147 -0.137653 0 0.0432056 0 0)
(3.74364 -0.12473 -1.01839e-20 0.0409215 1.66084e-22 1.74763e-37)
(3.91732 -0.112786 -1.03311e-20 0.0374571 1.58346e-22 1.7154e-37)
(4.08553 -0.106505 -1.04563e-20 0.0311438 1.40634e-22 1.68363e-37)
(4.2462 -0.0978748 0 0.0273406 0 0)
(4.39335 -0.0893092 1.06429e-20 0.0254366 -1.17215e-22 1.62145e-37)
(4.526 -0.081945 0 0.0242506 0 0)
(4.64207 -0.0747052 -1.0759e-20 0.0235241 9.8231e-23 1.56107e-37)
(4.74396 -0.0669135 -1.07902e-20 0.0235128 9.22521e-23 1.53154e-37)
(4.83723 -0.0608871 0 0.0240386 0 0)
(4.93077 -0.0595186 0 0.0244456 0 0)
(5.03543 -0.0629026 0 0.0246859 0 0)
(5.15508 -0.0668311 -1.07386e-20 0.0239301 6.34214e-23 1.41778e-37)
(5.27575 -0.0659184 0 0.0219063 0 0)
(5.38061 -0.0622153 0 0.0207147 0 0)
(5.46898 -0.05694 0 0.0208764 0 0)
(5.54233 -0.0501671 0 0.0221427 0 0)
(5.5997 -0.0432014 0 0.0240971 0 0)
(5.64343 -0.0383399 0 0.025793 0 0)
(5.67918 -0.0370153 0 0.026243 0 0)
(5.71433 -0.0376795 0 0.0262131 0 0)
(5.75698 -0.0405013 1.0236e-20 0.026665 -5.60466e-23 1.18623e-37)
(5.81647 -0.0453749 0 0.0266211 0 0)
(5.89658 -0.0488385 0 0.0257041 0 0)
(5.99084 -0.0446346 -1.01419e-20 0.0233904 5.95206e-23 1.11617e-37)
(6.07646 -0.0329636 -1.01176e-20 0.0201969 6.16047e-23 1.09358e-37)
(6.13017 -0.029185 0 0.0182997 0 0)
(6.16985 -0.0397161 1.00918e-20 0.0149709 -5.5529e-23 1.04949e-37)
(6.21883 -0.0522996 -1.00774e-20 0.0125031 5.11074e-23 1.02799e-37)
(6.27966 -0.0533732 0 0.0121627 0 0)
(6.3422 -0.0489076 1.00321e-20 0.0131482 -4.4842e-23 9.86049e-38)
(6.42582 -0.05501 0 0.0154703 0 0)
(6.5525 -0.067152 0 0.0198793 0 0)
(6.72027 -0.0765507 -9.91319e-21 0.024655 4.19105e-23 9.25743e-38)
(6.91502 -0.0812051 0 0.0256831 0 0)
(7.11792 -0.0787595 9.79148e-21 0.0224298 -3.78233e-23 8.87222e-38)
(7.30045 -0.0675455 0 0.017971 0 0)
(7.43312 -0.0496177 -9.62605e-21 0.0141389 2.78516e-23 8.50006e-38)
(7.49728 -0.0285689 -9.52539e-21 0.0116389 2.21622e-23 8.31876e-38)
(7.48837 -0.00708116 -9.41394e-21 0.0104231 1.64634e-23 8.14061e-38)
(7.40928 0.0075322 -1.85828e-20 0.0105365 2.54688e-23 3.18622e-37)
(7.28985 0.00770585 1.83132e-20 0.010158 -1.73458e-23 3.11741e-37)
(7.17349 0.00335748 0 0.00907695 0 0)
(7.06892 0.00344765 0 0.00926965 0 0)
(6.96143 0.00586006 0 0.0102356 0 0)
(6.8449 0.00976194 1.69469e-20 0.0111394 1.40348e-23 2.85403e-37)
(6.72112 0.0149856 1.65771e-20 0.0113142 1.19774e-23 2.79106e-37)
(6.60172 0.016995 -1.6219e-20 0.0114667 -6.1613e-24 2.72921e-37)
(6.50543 0.0116865 0 0.0113107 0 0)
(6.43814 0.0053769 1.55486e-20 0.00963935 1.40778e-24 2.60881e-37)
(6.38664 0.00285283 1.52282e-20 0.00768102 4.801e-24 2.55022e-37)
(6.33692 0.003877 1.49108e-20 0.00602207 9.79247e-24 2.49268e-37)
(6.27845 0.00729818 0 0.00474191 0 0)
(6.20453 0.012069 0 0.00379196 0 0)
(6.11128 0.0174242 0 0.00309792 0 0)
(5.99696 0.0228235 1.3559e-20 0.00259425 3.44976e-23 2.27279e-37)
(5.86144 0.0279203 0 0.0022273 0 0)
(5.70585 0.0325053 0 0.00195747 0 0)
(5.53202 0.0364813 -1.23949e-20 0.0017539 -4.74678e-23 2.11819e-37)
(5.34213 0.0398226 0 0.00159519 0 0)
(5.13847 0.0425512 0 0.0014664 0 0)
(4.92325 0.044726 -1.11435e-20 0.00135901 -5.28541e-23 1.972e-37)
(4.69841 0.0464341 0 0.00126817 0 0)
(4.46551 0.0477906 0 0.00119254 0 0)
(4.22571 0.0489187 9.87281e-21 0.00113301 5.29757e-23 1.83383e-37)
(3.97956 0.0499318 9.45388e-21 0.00109182 5.23248e-23 1.78949e-37)
(3.72702 0.0509342 0 0.00107248 0 0)
(3.46788 0.0519396 -8.63146e-21 0.00107782 -5.04026e-23 1.70331e-37)
(3.20212 0.052892 0 0.0011113 0 0)
(2.93024 0.0536407 7.84187e-21 0.00117233 4.74234e-23 1.62037e-37)
(2.65372 0.0539563 0 0.00125599 0 0)
(2.37525 0.053581 7.10837e-21 0.00135216 4.26482e-23 1.54058e-37)
(2.0988 0.0522762 6.77244e-21 0.0014441 3.94193e-23 1.50183e-37)
(1.82941 0.0499185 0 0.00151346 0 0)
(1.57278 0.046532 0 0.00154403 0 0)
(1.33429 0.0422535 0 0.00152358 0 0)
(1.11794 0.0373792 0 0.00145236 0 0)
(0.926063 0.0322615 0 0.00134122 0 0)
(0.759558 0.027224 0 0.00120565 0 0)
(0.617855 0.0224695 0 0.00105817 0 0)
(0.49936 0.0182079 5.05801e-21 0.000915443 1.06563e-23 1.21781e-37)
(0.401949 0.0145963 -4.93808e-21 0.000797109 -8.52392e-24 1.18538e-37)
(0.323008 0.0114142 0 0.000683916 0 0)
(0.260103 0.00868222 0 0.000581173 0 0)
(0.211072 0.00637052 0 0.000489529 0 0)
(0.173957 0.00444283 0 0.000408518 0 0)
(0.146963 0.00286055 -8.93391e-21 0.000337156 -2.26861e-24 4.13098e-37)
(0.128431 0.00158904 0 0.000274901 0 0)
(0.116841 0.000595352 8.62967e-21 0.000221436 -1.78397e-24 3.90374e-37)
(0.110811 -0.000152887 -8.48787e-21 0.000176541 3.58903e-24 3.7936e-37)
(0.109097 -0.000687345 0 0.000139982 0 0)
(0.110594 -0.0010388 0 0.000111314 0 0)
(0.114342 -0.00123755 0 8.99415e-05 0 0)
(0.119521 -0.00131315 7.97799e-21 7.53746e-05 -9.47469e-24 3.37541e-37)
(0.125451 -0.00129228 7.86356e-21 6.7149e-05 -1.06621e-23 3.27627e-37)
(0.131579 -0.00120099 0 6.47334e-05 0 0)
(0.137488 -0.00106624 7.64936e-21 6.77372e-05 -1.27647e-23 3.08424e-37)
(0.142906 -0.000909147 7.54929e-21 7.58142e-05 -1.36524e-23 2.99128e-37)
(0.147638 -0.000741627 -7.45367e-21 8.8449e-05 1.44302e-23 2.90031e-37)
(0.151647 -0.000591668 0 0.000104918 0 0)
(0.155066 -0.000485316 0 0.000123954 0 0)