/*--------------------------------*- C++ -*----------------------------------*\
  =========                 |
  \\      /  F ield         | OpenFOAM: The Open Source CFD Toolbox
   \\    /   O peration     | Website:  https://openfoam.org
    \\  /    A nd           | Version:  7
     \\/     M anipulation  |
\*---------------------------------------------------------------------------*/
FoamFile
{
    version     2.0;
    format      ascii;
    class       volScalarField;
    location    "0.012";
    object      k_0;
}
// * * * * * * * * * * * * * * * * * * * * * * * * * * * * * * * * * * * * * //

dimensions      [0 2 -2 0 0 0 0];

internalField   nonuniform List<scalar> 
12225
(
1.93356e-05
1.81179e-05
1.67286e-05
1.53829e-05
1.41779e-05
1.27278e-05
1.14222e-05
1.05101e-05
9.56995e-06
8.49434e-06
7.68261e-06
7.16364e-06
6.83334e-06
6.53164e-06
6.37149e-06
6.32057e-06
6.36375e-06
1.73464e-05
1.99793e-05
1.98761e-05
1.97118e-05
1.94354e-05
1.91016e-05
1.87235e-05
1.83522e-05
1.80022e-05
1.76404e-05
1.72246e-05
1.69113e-05
1.66319e-05
1.64056e-05
1.62188e-05
1.60073e-05
1.5918e-05
1.5706e-05
1.5817e-05
2.00013e-05
1.94128e-05
1.90585e-05
1.88839e-05
1.8815e-05
1.87572e-05
1.87304e-05
1.86959e-05
1.86247e-05
1.85398e-05
1.84774e-05
1.84385e-05
1.84172e-05
1.83942e-05
1.8331e-05
1.82307e-05
1.81393e-05
1.78799e-05
2.02639e-05
2.01982e-05
1.91654e-05
1.47908e-05
1.47607e-05
1.55081e-05
1.62505e-05
1.65799e-05
1.66909e-05
1.68157e-05
1.69581e-05
1.7033e-05
1.70413e-05
1.70266e-05
1.69514e-05
1.67477e-05
1.62281e-05
1.59592e-05
2.01399e-05
2.04553e-05
2.06324e-05
2.06714e-05
2.06313e-05
2.01185e-05
1.71009e-05
1.43767e-05
1.46019e-05
1.55308e-05
1.6059e-05
1.63431e-05
1.65246e-05
1.66203e-05
1.66308e-05
1.65782e-05
1.63001e-05
1.51433e-05
2.041e-05
2.0526e-05
2.14538e-05
2.40578e-05
2.45865e-05
2.41242e-05
2.20171e-05
2.06908e-05
2.03984e-05
2.03717e-05
2.03716e-05
2.03659e-05
2.03626e-05
2.03931e-05
2.06089e-05
2.10119e-05
2.12213e-05
2.12121e-05
2.04862e-05
2.06187e-05
2.19128e-05
2.63821e-05
2.81418e-05
2.80045e-05
2.63743e-05
2.38693e-05
2.25036e-05
2.17186e-05
2.12626e-05
2.10367e-05
2.0975e-05
2.09905e-05
2.11498e-05
2.16988e-05
2.23038e-05
2.26423e-05
2.00464e-05
2.03982e-05
2.22636e-05
2.49259e-05
2.56463e-05
2.54353e-05
2.41493e-05
2.29742e-05
2.23256e-05
2.16972e-05
2.09856e-05
2.03102e-05
1.97909e-05
1.94927e-05
1.94119e-05
1.94798e-05
1.99133e-05
2.11397e-05
2.00219e-05
2.08037e-05
2.35024e-05
2.37975e-05
2.28499e-05
2.1653e-05
2.12898e-05
2.12408e-05
2.12436e-05
2.11983e-05
2.09963e-05
2.058e-05
2.03199e-05
2.02326e-05
2.02277e-05
2.02553e-05
2.03558e-05
2.06157e-05
2.02003e-05
2.23059e-05
2.39939e-05
2.39866e-05
2.25003e-05
2.11932e-05
2.07577e-05
2.06801e-05
2.07125e-05
2.08924e-05
2.11913e-05
2.13942e-05
2.15068e-05
2.15461e-05
2.15581e-05
2.15612e-05
2.15615e-05
2.15739e-05
2.05505e-05
2.16551e-05
2.19364e-05
2.21128e-05
2.2099e-05
2.19055e-05
2.15005e-05
2.10649e-05
2.08597e-05
2.08506e-05
2.09384e-05
2.12839e-05
2.16952e-05
2.18913e-05
2.19343e-05
2.19182e-05
2.18018e-05
2.13727e-05
2.10015e-05
2.04614e-05
2.05738e-05
2.153e-05
2.17062e-05
2.15194e-05
2.12334e-05
2.10284e-05
2.08662e-05
2.08161e-05
2.09457e-05
2.13864e-05
2.17014e-05
2.19064e-05
2.19706e-05
2.19628e-05
2.19212e-05
2.18297e-05
2.14736e-05
2.16871e-05
2.1934e-05
2.17016e-05
2.18597e-05
2.28713e-05
2.31039e-05
2.27282e-05
2.1767e-05
2.14707e-05
2.15616e-05
2.17766e-05
2.1818e-05
2.18389e-05
2.1965e-05
2.21305e-05
2.21541e-05
2.21052e-05
2.07277e-05
2.06323e-05
2.08691e-05
2.11929e-05
2.14927e-05
2.21309e-05
2.2533e-05
2.25153e-05
2.20118e-05
2.1294e-05
2.10047e-05
2.09011e-05
2.08882e-05
2.09675e-05
2.14871e-05
2.22759e-05
2.25875e-05
2.26514e-05
2.21119e-05
2.21341e-05
2.15497e-05
2.09714e-05
2.08841e-05
2.09114e-05
2.08116e-05
2.06367e-05
2.05726e-05
2.05615e-05
2.05774e-05
2.05952e-05
2.05971e-05
2.0602e-05
2.06426e-05
2.07954e-05
2.09039e-05
2.09709e-05
2.11042e-05
2.20199e-05
2.19991e-05
2.14233e-05
2.08546e-05
2.05515e-05
2.04415e-05
2.04345e-05
2.04799e-05
2.06924e-05
2.13984e-05
2.20503e-05
2.23272e-05
2.23729e-05
2.23312e-05
2.2085e-05
2.1486e-05
2.11023e-05
2.06817e-05
2.06662e-05
2.06087e-05
2.05393e-05
2.05184e-05
2.05714e-05
2.05661e-05
2.05664e-05
2.06574e-05
2.10039e-05
2.12363e-05
2.12614e-05
2.1234e-05
2.11229e-05
2.08569e-05
2.06258e-05
2.045e-05
2.03206e-05
2.00609e-05
2.0884e-05
2.1877e-05
2.18223e-05
2.1178e-05
2.05783e-05
2.03794e-05
2.03523e-05
2.03805e-05
2.04458e-05
2.04723e-05
2.04789e-05
2.04782e-05
2.04689e-05
2.04308e-05
2.03734e-05
2.03332e-05
2.0303e-05
2.00154e-05
2.0397e-05
2.15667e-05
2.19515e-05
2.19219e-05
2.15113e-05
2.07999e-05
2.04933e-05
2.04005e-05
2.03858e-05
2.03913e-05
2.04142e-05
2.04307e-05
2.04399e-05
2.04532e-05
2.04881e-05
2.05904e-05
2.06361e-05
2.03639e-05
2.0826e-05
2.12769e-05
2.1356e-05
2.14486e-05
2.16292e-05
2.16584e-05
2.15423e-05
2.11656e-05
2.08936e-05
2.07072e-05
2.05503e-05
2.04164e-05
2.03155e-05
2.02497e-05
2.0215e-05
2.02066e-05
2.02187e-05
2.00594e-05
2.05722e-05
2.08467e-05
2.08567e-05
2.08537e-05
2.09292e-05
2.10191e-05
2.09032e-05
2.0739e-05
2.06996e-05
2.06821e-05
2.06365e-05
2.0562e-05
2.05543e-05
2.06164e-05
2.07289e-05
2.07447e-05
2.07217e-05
2.01857e-05
2.05647e-05
2.09078e-05
2.09731e-05
2.09066e-05
2.07239e-05
2.0651e-05
2.06342e-05
2.06239e-05
2.05954e-05
2.04909e-05
2.03942e-05
2.03721e-05
2.0393e-05
2.0485e-05
2.05055e-05
2.04976e-05
2.04624e-05
2.06336e-05
2.06194e-05
2.04099e-05
2.03593e-05
2.03571e-05
2.0388e-05
2.05363e-05
2.06916e-05
2.07458e-05
2.07468e-05
2.07017e-05
2.06082e-05
2.05997e-05
2.06372e-05
2.07191e-05
2.07358e-05
2.07143e-05
2.06034e-05
2.01434e-05
2.02003e-05
2.01954e-05
2.01552e-05
2.01366e-05
2.01752e-05
2.03085e-05
2.03857e-05
2.04149e-05
2.04625e-05
2.05723e-05
2.08531e-05
2.17345e-05
2.28997e-05
2.3488e-05
2.36089e-05
2.35505e-05
2.31928e-05
2.01057e-05
2.07768e-05
2.09853e-05
2.09186e-05
2.06268e-05
2.04427e-05
2.03741e-05
2.0374e-05
2.04379e-05
2.06217e-05
2.07963e-05
2.11173e-05
2.16001e-05
2.2138e-05
2.25964e-05
2.28608e-05
2.29371e-05
2.292e-05
2.01054e-05
2.02812e-05
2.0331e-05
2.03354e-05
2.03892e-05
2.05352e-05
2.05517e-05
2.05203e-05
2.04947e-05
2.05044e-05
2.05567e-05
2.0695e-05
2.09969e-05
2.16599e-05
2.34227e-05
2.55676e-05
2.69378e-05
2.74383e-05
2.00044e-05
2.00189e-05
2.00058e-05
1.99727e-05
1.9911e-05
1.98022e-05
1.95854e-05
1.90836e-05
1.883e-05
1.88385e-05
1.89934e-05
1.93974e-05
2.03889e-05
2.15133e-05
2.26174e-05
2.31904e-05
2.39227e-05
2.43654e-05
2.02039e-05
1.89993e-05
1.57051e-05
1.55313e-05
1.63024e-05
1.78069e-05
2.06641e-05
2.37351e-05
2.70118e-05
3.10228e-05
3.9358e-05
5.05819e-05
6.66708e-05
7.94584e-05
9.16526e-05
9.916e-05
0.000108989
0.000116094
3.16262e-05
8.79486e-05
0.00015828
0.000210049
0.000245642
0.000283855
0.000319967
0.000345212
0.000368362
0.000407103
0.000466084
0.000532922
0.000592861
0.000637179
0.000672611
0.000695765
0.00071716
0.000737046
0.00252773
0.00247195
0.00226975
0.00206933
0.00193497
0.0018425
0.00177423
0.00172764
0.00170258
0.00169174
0.00168322
0.00166688
0.00162361
0.00155683
0.0014955
0.00143639
0.00137283
0.00129558
1.04969e-07
4.01957e-07
1.80938e-06
6.26403e-06
1.25421e-05
1.93396e-05
2.5349e-05
2.96416e-05
3.19683e-05
3.28197e-05
3.17867e-05
2.92581e-05
2.56645e-05
2.15199e-05
1.72088e-05
1.31032e-05
9.45898e-06
6.43462e-06
4.1264e-06
2.47531e-06
1.42645e-06
8.57788e-07
5.93671e-07
4.9343e-07
5.93374e-07
6.8418e-07
7.76538e-07
8.64826e-07
9.47204e-07
1.02053e-06
1.08003e-06
1.11986e-06
1.14187e-06
1.14959e-06
1.13811e-06
1.10227e-06
1.06338e-06
1.00249e-06
9.31687e-07
8.4908e-07
7.56754e-07
6.49604e-07
5.34141e-07
4.28994e-07
3.29776e-07
2.57986e-07
2.12888e-07
1.77115e-07
1.47245e-07
1.22375e-07
1.01671e-07
8.42985e-08
6.95611e-08
5.70221e-08
4.64142e-08
3.75109e-08
3.00961e-08
2.39676e-08
1.89411e-08
1.48509e-08
1.15497e-08
8.90753e-09
6.81018e-09
5.16119e-09
3.87629e-09
2.8839e-09
2.1256e-09
1.55206e-09
1.12167e-09
8.01728e-10
5.67027e-10
3.97177e-10
2.75757e-10
1.89895e-10
1.29765e-10
8.80276e-11
5.92954e-11
3.96702e-11
2.63656e-11
1.74109e-11
1.14262e-11
7.45357e-12
4.83408e-12
3.11801e-12
2.00085e-12
1.27799e-12
8.12905e-13
5.15217e-13
3.25523e-13
2.05101e-13
1.289e-13
8.08209e-14
5.05692e-14
3.15859e-14
1.9704e-14
1.22863e-14
7.66932e-15
4.80396e-15
3.02892e-15
1.93141e-15
1.25577e-15
8.42603e-16
5.91583e-16
4.39581e-16
3.47538e-16
2.92043e-16
2.58752e-16
2.39256e-16
2.28587e-16
2.23605e-16
2.22093e-16
2.22045e-16
2.22045e-16
2.22045e-16
2.22045e-16
2.22045e-16
2.22045e-16
2.22045e-16
2.22045e-16
2.22045e-16
2.22045e-16
2.22045e-16
2.22045e-16
2.22045e-16
2.22045e-16
2.22045e-16
2.22045e-16
2.22045e-16
2.22045e-16
2.22045e-16
2.22045e-16
2.22045e-16
2.22045e-16
2.22045e-16
2.22045e-16
2.22045e-16
2.22045e-16
2.22045e-16
2.22045e-16
2.22045e-16
2.22045e-16
2.22045e-16
2.22045e-16
2.22045e-16
2.22045e-16
2.22045e-16
2.22045e-16
2.22045e-16
2.22045e-16
2.22045e-16
2.22045e-16
2.22045e-16
2.22045e-16
2.22045e-16
2.22045e-16
2.22045e-16
2.22045e-16
2.22045e-16
2.22045e-16
2.22045e-16
2.22045e-16
2.22045e-16
2.22045e-16
2.22045e-16
2.22045e-16
2.22045e-16
2.27456e-16
2.98903e-16
8.0193e-16
3.69169e-15
1.82744e-14
8.43764e-14
3.57669e-13
1.40664e-12
5.27256e-12
2.11947e-11
9.66587e-11
4.68498e-10
1.98458e-09
7.14201e-08
5.60676e-07
8.48845e-07
1.09401e-06
1.76767e-06
2.88099e-06
4.35313e-06
5.62318e-06
6.06152e-06
5.95697e-06
5.33878e-06
4.53902e-06
3.73928e-06
3.03837e-06
2.50282e-06
2.15495e-06
1.98389e-06
1.92582e-06
2.04689e-06
2.29347e-06
2.64568e-06
3.11249e-06
3.68024e-06
4.33069e-06
5.04942e-06
5.81354e-06
6.57877e-06
7.33003e-06
8.06029e-06
8.74924e-06
9.36225e-06
9.86847e-06
1.02624e-05
1.05258e-05
1.0654e-05
1.06956e-05
1.05675e-05
1.03276e-05
1.00179e-05
9.64523e-06
9.24163e-06
8.7996e-06
8.30987e-06
7.32856e-06
5.92698e-06
4.4836e-06
3.31174e-06
2.54616e-06
2.09288e-06
1.72809e-06
1.42822e-06
1.18624e-06
9.92109e-07
8.32609e-07
6.96605e-07
5.79508e-07
4.7919e-07
3.93819e-07
3.21606e-07
2.6087e-07
2.10104e-07
1.67961e-07
1.33226e-07
1.04793e-07
8.17218e-08
6.3156e-08
4.83344e-08
3.66311e-08
2.7493e-08
2.0406e-08
1.49538e-08
1.08412e-08
7.79318e-09
5.5612e-09
3.94189e-09
2.77624e-09
1.94307e-09
1.35152e-09
9.3426e-10
6.41839e-10
4.38232e-10
2.97382e-10
2.0058e-10
1.34483e-10
8.96451e-11
5.94271e-11
3.91937e-11
2.57316e-11
1.68275e-11
1.09681e-11
7.12751e-12
4.61801e-12
2.98266e-12
1.91997e-12
1.23155e-12
7.87061e-13
5.01051e-13
3.17767e-13
2.00831e-13
1.26476e-13
7.93122e-14
4.95376e-14
3.09011e-14
1.93302e-14
1.21619e-14
7.70242e-15
4.9097e-15
3.15273e-15
2.04598e-15
1.35349e-15
9.23363e-16
6.57488e-16
4.93718e-16
3.92882e-16
3.30572e-16
2.91778e-16
2.6737e-16
2.51831e-16
2.41824e-16
2.35311e-16
2.31035e-16
2.28203e-16
2.26311e-16
2.25035e-16
2.24167e-16
2.23567e-16
2.23148e-16
2.22853e-16
2.22641e-16
2.22487e-16
2.22375e-16
2.22292e-16
2.2223e-16
2.22184e-16
2.22148e-16
2.22122e-16
2.22103e-16
2.22088e-16
2.22076e-16
2.22066e-16
2.22058e-16
2.22052e-16
2.22049e-16
2.22047e-16
2.22045e-16
2.22045e-16
2.22045e-16
2.22045e-16
2.22045e-16
2.22045e-16
2.22045e-16
2.22045e-16
2.22045e-16
2.22045e-16
2.22045e-16
2.22045e-16
2.22045e-16
2.22045e-16
2.22045e-16
2.22045e-16
2.22045e-16
2.22045e-16
2.22045e-16
2.22045e-16
2.22045e-16
2.22045e-16
2.22065e-16
2.22353e-16
2.25044e-16
2.44285e-16
3.60884e-16
9.87566e-16
4.00201e-15
1.74362e-14
7.19802e-14
2.91703e-13
1.17607e-12
5.7765e-12
2.75208e-11
1.65889e-10
7.41363e-09
7.01251e-07
1.22888e-06
1.32757e-06
1.46544e-06
1.69836e-06
1.98714e-06
2.11371e-06
2.14451e-06
2.14726e-06
2.176e-06
2.2732e-06
2.46233e-06
2.75717e-06
3.17594e-06
3.83132e-06
4.73706e-06
5.90939e-06
7.34342e-06
9.01634e-06
1.09042e-05
1.29564e-05
1.51649e-05
1.75208e-05
1.99988e-05
2.25425e-05
2.5085e-05
2.75658e-05
2.99269e-05
3.21108e-05
3.40731e-05
3.58359e-05
3.73959e-05
3.86974e-05
3.95131e-05
3.98846e-05
3.97036e-05
3.88893e-05
3.75079e-05
3.56109e-05
3.32941e-05
3.06664e-05
2.78317e-05
2.48928e-05
2.19296e-05
1.90309e-05
1.62842e-05
1.37026e-05
1.13465e-05
9.26974e-06
7.50543e-06
6.0711e-06
4.96792e-06
4.16254e-06
3.52886e-06
2.9803e-06
2.50346e-06
2.09189e-06
1.73908e-06
1.43748e-06
1.18042e-06
9.62486e-07
7.78814e-07
6.24857e-07
4.9688e-07
3.91234e-07
3.04733e-07
2.34682e-07
1.78558e-07
1.34105e-07
9.89065e-08
7.22894e-08
5.27966e-08
3.84915e-08
2.79879e-08
2.02831e-08
1.46426e-08
1.05251e-08
7.53003e-09
5.36042e-09
3.79608e-09
2.67385e-09
1.8731e-09
1.30497e-09
9.04241e-10
6.23285e-10
4.27543e-10
2.92066e-10
1.98912e-10
1.35214e-10
9.17975e-11
6.22195e-11
4.20586e-11
2.83256e-11
1.89924e-11
1.26713e-11
8.40858e-12
5.54938e-12
3.64339e-12
2.37922e-12
1.54353e-12
9.94669e-13
6.39615e-13
4.13293e-13
2.68214e-13
1.74052e-13
1.12295e-13
7.17685e-14
4.54913e-14
2.86358e-14
1.79737e-14
1.13517e-14
7.24845e-15
4.69561e-15
3.0959e-15
2.08417e-15
1.43797e-15
1.02153e-15
7.51198e-16
5.747e-16
4.58934e-16
3.82665e-16
3.32116e-16
2.98373e-16
2.7565e-16
2.60158e-16
2.49462e-16
2.41997e-16
2.36709e-16
2.32901e-16
2.30138e-16
2.28124e-16
2.2663e-16
2.25501e-16
2.24649e-16
2.24016e-16
2.23546e-16
2.23184e-16
2.22891e-16
2.22652e-16
2.22464e-16
2.22324e-16
2.22228e-16
2.22165e-16
2.22125e-16
2.22101e-16
2.22085e-16
2.22074e-16
2.22067e-16
2.22061e-16
2.22057e-16
2.22054e-16
2.22051e-16
2.22049e-16
2.22047e-16
2.22046e-16
2.22045e-16
2.22045e-16
2.22045e-16
2.22045e-16
2.22045e-16
2.22045e-16
2.22045e-16
2.22045e-16
2.22045e-16
2.22045e-16
2.22046e-16
2.22058e-16
2.22157e-16
2.22868e-16
2.27314e-16
2.52118e-16
3.7613e-16
9.51378e-16
3.38392e-15
1.35289e-14
5.44834e-14
2.62067e-13
1.25465e-12
8.48697e-12
3.94507e-10
7.06834e-07
1.38725e-06
1.91498e-06
1.98786e-06
2.04914e-06
2.18396e-06
2.3329e-06
2.51883e-06
2.81453e-06
3.26161e-06
3.89948e-06
4.7749e-06
5.93683e-06
7.42469e-06
9.20971e-06
1.13413e-05
1.3855e-05
1.67969e-05
2.02016e-05
2.40617e-05
2.83567e-05
3.30301e-05
3.80081e-05
4.31994e-05
4.84776e-05
5.36234e-05
5.82752e-05
6.2288e-05
6.55129e-05
6.77079e-05
6.89098e-05
6.93577e-05
6.87058e-05
6.72029e-05
6.49005e-05
6.20092e-05
5.86196e-05
5.49112e-05
5.0984e-05
4.69566e-05
4.29211e-05
3.89416e-05
3.50713e-05
3.135e-05
2.7809e-05
2.44809e-05
2.14405e-05
1.86963e-05
1.62373e-05
1.40475e-05
1.21081e-05
1.03987e-05
8.89836e-06
7.5857e-06
6.44065e-06
5.44528e-06
4.58379e-06
3.84298e-06
3.20947e-06
2.66775e-06
2.20652e-06
1.81549e-06
1.48485e-06
1.20649e-06
9.73409e-07
7.79586e-07
6.19446e-07
4.87221e-07
3.8031e-07
2.9422e-07
2.23755e-07
1.6966e-07
1.28635e-07
9.73829e-08
7.35401e-08
5.53543e-08
4.15042e-08
3.0983e-08
2.30177e-08
1.70124e-08
1.2506e-08
9.14199e-09
6.64474e-09
4.80188e-09
3.45022e-09
2.46506e-09
1.75241e-09
1.24151e-09
8.78871e-10
6.23803e-10
4.44135e-10
3.15876e-10
2.23699e-10
1.57475e-10
1.10101e-10
7.64301e-11
5.26721e-11
3.60339e-11
2.44764e-11
1.65149e-11
1.10707e-11
7.37294e-12
4.87834e-12
3.20848e-12
2.09994e-12
1.36968e-12
8.91658e-13
5.80106e-13
3.77609e-13
2.46187e-13
1.60843e-13
1.0533e-13
6.9135e-14
4.54643e-14
2.99496e-14
1.97673e-14
1.30854e-14
8.70499e-15
5.83703e-15
3.96048e-15
2.73259e-15
1.92642e-15
1.39345e-15
1.03827e-15
7.98758e-16
6.3494e-16
5.21858e-16
4.42531e-16
3.85843e-16
3.44873e-16
3.14985e-16
2.92786e-16
2.75988e-16
2.6325e-16
2.53685e-16
2.46472e-16
2.40866e-16
2.36359e-16
2.3271e-16
2.29835e-16
2.27669e-16
2.26106e-16
2.2501e-16
2.24249e-16
2.23708e-16
2.23324e-16
2.23024e-16
2.22811e-16
2.22636e-16
2.2249e-16
2.22396e-16
2.223e-16
2.22213e-16
2.22152e-16
2.22114e-16
2.22092e-16
2.22083e-16
2.22081e-16
2.22082e-16
2.22084e-16
2.22088e-16
2.22096e-16
2.22098e-16
2.22094e-16
2.22088e-16
2.22096e-16
2.22135e-16
2.22226e-16
2.22443e-16
2.23048e-16
2.25095e-16
2.33181e-16
2.69585e-16
4.44548e-16
1.43521e-15
6.6707e-15
4.68025e-14
1.60402e-13
7.5297e-13
2.48068e-11
6.95886e-07
1.35778e-06
2.20618e-06
2.53771e-06
2.66733e-06
2.79906e-06
3.05216e-06
3.44053e-06
3.96101e-06
4.67096e-06
5.63864e-06
6.95206e-06
8.70837e-06
1.10258e-05
1.40364e-05
1.78292e-05
2.24875e-05
2.80848e-05
3.46455e-05
4.21438e-05
5.04803e-05
5.94681e-05
6.88711e-05
7.84128e-05
8.77458e-05
9.63726e-05
0.000103367
0.000108773
0.000111945
0.000113134
0.000112846
0.000110689
0.00010672
0.000101732
9.56559e-05
8.90247e-05
8.19636e-05
7.48425e-05
6.77166e-05
6.08488e-05
5.43653e-05
4.82204e-05
4.25196e-05
3.73021e-05
3.25824e-05
2.83329e-05
2.45353e-05
2.11671e-05
1.82009e-05
1.56042e-05
1.33425e-05
1.13805e-05
9.6837e-06
8.21988e-06
6.95902e-06
5.87477e-06
4.94333e-06
4.14309e-06
3.45793e-06
2.8765e-06
2.38553e-06
1.97238e-06
1.62574e-06
1.33541e-06
1.09305e-06
8.91672e-07
7.24989e-07
5.87252e-07
4.73717e-07
3.80462e-07
3.04162e-07
2.42024e-07
1.91658e-07
1.51029e-07
1.18414e-07
9.23628e-08
7.16602e-08
5.52939e-08
4.24249e-08
3.23614e-08
2.45364e-08
1.84874e-08
1.38392e-08
1.02898e-08
7.59632e-09
5.56679e-09
4.04757e-09
2.91896e-09
2.08613e-09
1.47739e-09
1.03469e-09
7.17643e-10
4.93891e-10
3.37131e-10
2.28144e-10
1.52986e-10
1.01599e-10
6.67835e-11
4.34211e-11
2.79045e-11
1.77107e-11
1.10913e-11
6.84629e-12
4.16041e-12
2.4858e-12
1.4584e-12
8.39213e-13
4.73179e-13
2.61214e-13
1.41171e-13
7.4761e-14
3.90074e-14
2.02076e-14
1.0276e-14
5.81893e-15
3.84516e-15
2.99468e-15
2.62776e-15
2.43815e-15
2.29942e-15
2.16091e-15
2.01681e-15
1.85926e-15
1.68634e-15
1.50745e-15
1.3329e-15
1.16899e-15
1.02e-15
8.88105e-16
7.73822e-16
6.76417e-16
5.94386e-16
5.25914e-16
4.69201e-16
4.22542e-16
3.84339e-16
3.53147e-16
3.27728e-16
3.07074e-16
2.90342e-16
2.76847e-16
2.6597e-16
2.57215e-16
2.50198e-16
2.44422e-16
2.39984e-16
2.35979e-16
2.33177e-16
2.30527e-16
2.28091e-16
2.26935e-16
2.24776e-16
2.22667e-16
2.2205e-16
2.22045e-16
2.22045e-16
2.22045e-16
2.22045e-16
2.22045e-16
2.22045e-16
2.22045e-16
2.22102e-16
2.22335e-16
2.22915e-16
2.24299e-16
2.26221e-16
2.30763e-16
2.39561e-16
2.59669e-16
3.09591e-16
4.39111e-16
8.20069e-16
2.54024e-15
1.19736e-14
9.1195e-14
5.51455e-13
5.95867e-12
9.1256e-12
4.27349e-11
4.46323e-11
6.8481e-07
1.28254e-06
2.31194e-06
2.77244e-06
2.95725e-06
3.15462e-06
3.51467e-06
4.02927e-06
4.77344e-06
5.86959e-06
7.4778e-06
9.82295e-06
1.31367e-05
1.76881e-05
2.37741e-05
3.17185e-05
4.18066e-05
5.41853e-05
6.88394e-05
8.55352e-05
0.000103757
0.000122754
0.000141705
0.000159523
0.000175361
0.0001885
0.000196921
0.000202021
0.000203853
0.000200531
0.000193237
0.000185288
0.000173172
0.000160855
0.00014719
0.000133529
0.000119989
0.000107117
9.48248e-05
8.36375e-05
7.35972e-05
6.42105e-05
5.56677e-05
4.79374e-05
4.10641e-05
3.50513e-05
2.98283e-05
2.53111e-05
2.14182e-05
1.80753e-05
1.52148e-05
1.27757e-05
1.07039e-05
8.95054e-06
7.47093e-06
6.22555e-06
5.17948e-06
4.30195e-06
3.56616e-06
2.95004e-06
2.43423e-06
2.00203e-06
1.64217e-06
1.34435e-06
1.09781e-06
8.93485e-07
7.24467e-07
5.85187e-07
4.70874e-07
3.77401e-07
3.01253e-07
2.39454e-07
1.89498e-07
1.49282e-07
1.17046e-07
9.13216e-08
7.089e-08
5.47407e-08
4.20403e-08
3.21044e-08
2.43732e-08
1.83912e-08
1.37895e-08
1.02708e-08
7.59716e-09
5.57844e-09
4.06488e-09
2.93771e-09
2.10512e-09
1.49414e-09
1.05059e-09
7.29893e-10
5.03134e-10
3.4397e-10
2.33112e-10
1.56529e-10
1.0408e-10
6.84876e-11
4.45682e-11
2.86599e-11
1.81963e-11
1.1395e-11
7.03017e-12
4.26742e-12
2.54496e-12
1.48875e-12
8.52827e-13
4.77575e-13
2.60986e-13
1.38961e-13
7.1996e-14
3.62738e-14
1.7785e-14
8.51344e-15
4.01785e-15
1.91223e-15
9.60946e-16
5.46531e-16
3.73276e-16
3.01154e-16
2.75651e-16
2.68883e-16
2.66961e-16
2.65786e-16
2.64579e-16
2.62897e-16
2.60579e-16
2.57577e-16
2.54288e-16
2.50915e-16
2.47608e-16
2.44458e-16
2.41519e-16
2.38826e-16
2.36399e-16
2.34241e-16
2.32343e-16
2.30688e-16
2.29261e-16
2.28041e-16
2.2701e-16
2.26141e-16
2.25416e-16
2.24812e-16
2.24303e-16
2.23897e-16
2.23531e-16
2.23261e-16
2.23016e-16
2.22797e-16
2.22662e-16
2.22498e-16
2.22339e-16
2.22226e-16
2.22161e-16
2.22121e-16
2.22083e-16
2.22066e-16
2.22076e-16
2.22245e-16
2.23892e-16
2.30436e-16
2.48662e-16
2.9132e-16
3.8281e-16
5.75833e-16
9.97657e-16
1.98206e-15
4.39542e-15
1.06399e-14
2.7171e-14
7.15115e-14
1.92459e-13
5.01198e-13
1.31855e-12
3.01071e-12
1.21065e-11
1.38913e-11
2.97292e-11
3.39587e-11
6.86979e-07
1.26401e-06
2.35315e-06
2.90079e-06
3.13793e-06
3.41206e-06
3.90884e-06
4.68017e-06
5.90089e-06
7.86274e-06
1.09312e-05
1.55848e-05
2.24316e-05
3.22289e-05
4.57562e-05
6.3723e-05
8.64905e-05
0.000113986
0.000145638
0.000180484
0.000217141
0.000251015
0.00028091
0.000307194
0.000328911
0.000340545
0.00034577
0.000346801
0.00034229
0.000323014
0.000302751
0.000282736
0.000255527
0.000230519
0.000204927
0.000180501
0.000157832
0.000137075
0.000118431
0.000101715
8.6597e-05
7.37188e-05
6.25463e-05
5.29398e-05
4.4803e-05
3.79003e-05
3.20327e-05
2.70406e-05
2.27913e-05
1.91743e-05
1.60975e-05
1.34836e-05
1.12665e-05
9.39032e-06
7.8076e-06
6.47574e-06
5.35807e-06
4.42345e-06
3.64443e-06
2.996e-06
2.45772e-06
2.01377e-06
1.64663e-06
1.34241e-06
1.09098e-06
8.83977e-07
7.1403e-07
5.74876e-07
4.61247e-07
3.68736e-07
2.93656e-07
2.32932e-07
1.83995e-07
1.44709e-07
1.13297e-07
8.82871e-08
6.84626e-08
5.28206e-08
4.0538e-08
3.09414e-08
2.34823e-08
1.77159e-08
1.3283e-08
9.89499e-09
7.32143e-09
5.37855e-09
3.9219e-09
2.83669e-09
2.03495e-09
1.44595e-09
1.01837e-09
7.08367e-10
4.88871e-10
3.34636e-10
2.27089e-10
1.527e-10
1.01686e-10
6.70191e-11
4.36868e-11
2.81443e-11
1.7904e-11
1.1236e-11
6.94839e-12
4.22878e-12
2.52916e-12
1.48416e-12
8.531e-13
4.79485e-13
2.63058e-13
1.40641e-13
7.31722e-14
3.70137e-14
1.82077e-14
8.733e-15
4.11641e-15
1.94378e-15
9.57164e-16
5.25134e-16
3.42835e-16
2.6871e-16
2.3971e-16
2.28804e-16
2.24882e-16
2.23546e-16
2.23116e-16
2.22989e-16
2.22946e-16
2.22918e-16
2.22891e-16
2.22857e-16
2.22814e-16
2.22757e-16
2.22697e-16
2.22634e-16
2.22571e-16
2.2251e-16
2.22452e-16
2.22398e-16
2.22349e-16
2.22304e-16
2.22265e-16
2.22231e-16
2.22202e-16
2.22176e-16
2.22154e-16
2.22136e-16
2.2212e-16
2.22107e-16
2.22095e-16
2.22086e-16
2.22078e-16
2.22071e-16
2.22066e-16
2.2206e-16
2.22057e-16
2.22053e-16
2.22049e-16
2.22104e-16
2.23082e-16
2.25998e-16
2.32429e-16
2.46167e-16
2.70123e-16
3.18587e-16
4.06484e-16
5.84833e-16
9.64406e-16
1.82311e-15
3.87845e-15
9.01374e-15
2.2401e-14
5.67863e-14
1.49095e-13
3.70673e-13
1.01875e-12
2.06939e-12
7.60174e-12
8.1387e-12
9.59524e-12
1.28507e-11
7.08986e-07
1.26632e-06
2.39672e-06
3.01468e-06
3.2906e-06
3.68932e-06
4.44749e-06
5.73873e-06
7.97599e-06
1.17875e-05
1.80103e-05
2.78539e-05
4.28317e-05
6.45825e-05
9.45722e-05
0.000133739
0.000182356
0.00024052
0.000307022
0.000366653
0.000419345
0.000466038
0.000502773
0.000536306
0.000554535
0.000561447
0.000558969
0.000544838
0.000528259
0.000479927
0.000439822
0.000396724
0.000350188
0.000303482
0.000262785
0.000223559
0.000189211
0.000158792
0.000133054
0.000110918
9.2658e-05
7.73247e-05
6.45305e-05
5.42204e-05
4.56446e-05
3.84419e-05
3.2373e-05
2.72545e-05
2.29314e-05
1.92738e-05
1.61752e-05
1.35486e-05
1.13229e-05
9.4388e-06
7.84786e-06
6.50778e-06
5.38225e-06
4.44013e-06
3.65435e-06
3.00103e-06
2.45818e-06
2.00693e-06
1.6336e-06
1.32611e-06
1.07365e-06
8.66892e-07
6.97962e-07
5.60271e-07
4.48322e-07
3.57543e-07
2.8414e-07
2.24967e-07
1.7742e-07
1.39348e-07
1.08976e-07
8.48406e-08
6.5741e-08
5.06922e-08
3.8889e-08
2.96756e-08
2.25197e-08
1.69906e-08
1.27417e-08
9.495e-09
7.02882e-09
5.16686e-09
3.7704e-09
2.72976e-09
1.96028e-09
1.39488e-09
9.83643e-10
6.8574e-10
4.73755e-10
3.24666e-10
2.20601e-10
1.48542e-10
9.90664e-11
6.54007e-11
4.27097e-11
2.75701e-11
1.75777e-11
1.10584e-11
6.85741e-12
4.18629e-12
2.51241e-12
1.48006e-12
8.54447e-13
4.82585e-13
2.66199e-13
1.43178e-13
7.49825e-14
3.81986e-14
1.89309e-14
9.14786e-15
4.34094e-15
2.05853e-15
1.01259e-15
5.50418e-16
3.53617e-16
2.72893e-16
2.41006e-16
2.28873e-16
2.24423e-16
2.22851e-16
2.22316e-16
2.22141e-16
2.22086e-16
2.2207e-16
2.22065e-16
2.22064e-16
2.22063e-16
2.22062e-16
2.22062e-16
2.22061e-16
2.2206e-16
2.22059e-16
2.22057e-16
2.22056e-16
2.22055e-16
2.22053e-16
2.22052e-16
2.22051e-16
2.2205e-16
2.22049e-16
2.22049e-16
2.22048e-16
2.22047e-16
2.22047e-16
2.22047e-16
2.22046e-16
2.22046e-16
2.22046e-16
2.22045e-16
2.22045e-16
2.22045e-16
2.22045e-16
2.22045e-16
2.22048e-16
2.22639e-16
2.24938e-16
2.30409e-16
2.41944e-16
2.6328e-16
3.03728e-16
3.79762e-16
5.25819e-16
8.3068e-16
1.49764e-15
3.06222e-15
6.81488e-15
1.63945e-14
3.97395e-14
1.0014e-13
2.3468e-13
6.71406e-13
1.1771e-12
3.23674e-12
3.57594e-12
3.85678e-12
4.83622e-12
7.44937e-07
1.27678e-06
2.44668e-06
3.15281e-06
3.50093e-06
4.11836e-06
5.39782e-06
7.73556e-06
1.20512e-05
1.97043e-05
3.27092e-05
5.37449e-05
8.58849e-05
0.000132188
0.000195508
0.000278934
0.000387373
0.000484722
0.000569758
0.000648615
0.000713738
0.000764441
0.000816991
0.000856318
0.000875343
0.000882016
0.000856724
0.00083236
0.000773285
0.000710447
0.000613781
0.000546524
0.000470125
0.000389409
0.000329023
0.000270224
0.000221647
0.000181038
0.000147142
0.000119224
9.66151e-05
7.85296e-05
6.41818e-05
5.29009e-05
4.39629e-05
3.66234e-05
3.04808e-05
2.54314e-05
2.1285e-05
1.78673e-05
1.50276e-05
1.26468e-05
1.06355e-05
8.92718e-06
7.47201e-06
6.23415e-06
5.18331e-06
4.29291e-06
3.54062e-06
2.90812e-06
2.37978e-06
1.9411e-06
1.57846e-06
1.27979e-06
1.03462e-06
8.33996e-07
6.70303e-07
5.37119e-07
4.29058e-07
3.41626e-07
2.71087e-07
2.14347e-07
1.68849e-07
1.32487e-07
1.03527e-07
8.05484e-08
6.23871e-08
4.80925e-08
3.68902e-08
2.81514e-08
2.13671e-08
1.61264e-08
1.20995e-08
9.02216e-09
6.68397e-09
4.91802e-09
3.59267e-09
2.60448e-09
1.87289e-09
1.33509e-09
9.42997e-10
6.59178e-10
4.56032e-10
3.12983e-10
2.13002e-10
1.43672e-10
9.59969e-11
6.35026e-11
4.15618e-11
2.68939e-11
1.71921e-11
1.08475e-11
6.74853e-12
4.13471e-12
2.49145e-12
1.47431e-12
8.55395e-13
4.85826e-13
2.69661e-13
1.46048e-13
7.70761e-14
3.95985e-14
1.98048e-14
9.66192e-15
4.62737e-15
2.21021e-15
1.08904e-15
5.87127e-16
3.70423e-16
2.8023e-16
2.44053e-16
2.30073e-16
2.2487e-16
2.23004e-16
2.2236e-16
2.22145e-16
2.22075e-16
2.22054e-16
2.22048e-16
2.22046e-16
2.22045e-16
2.22045e-16
2.22045e-16
2.22045e-16
2.22045e-16
2.22045e-16
2.22045e-16
2.22045e-16
2.22045e-16
2.22045e-16
2.22045e-16
2.22045e-16
2.22045e-16
2.22045e-16
2.22045e-16
2.22045e-16
2.22045e-16
2.22045e-16
2.22045e-16
2.22045e-16
2.22045e-16
2.22045e-16
2.22045e-16
2.22045e-16
2.22045e-16
2.22045e-16
2.22045e-16
2.22045e-16
2.2223e-16
2.23748e-16
2.27892e-16
2.36641e-16
2.55233e-16
2.86174e-16
3.48821e-16
4.61806e-16
6.9312e-16
1.18228e-15
2.29275e-15
4.83835e-15
1.10923e-14
2.54781e-14
6.04679e-14
1.31943e-13
3.77613e-13
5.57756e-13
9.68606e-13
1.13182e-12
1.24395e-12
1.61662e-12
8.21534e-07
1.30945e-06
2.49383e-06
3.272e-06
3.7337e-06
4.74442e-06
6.95159e-06
1.13158e-05
1.97628e-05
3.52666e-05
6.24944e-05
0.00010686
0.000172975
0.000274934
0.000432001
0.000581407
0.000687101
0.000811678
0.000897862
0.00100874
0.00109513
0.00120609
0.00131046
0.00137395
0.00142145
0.00144127
0.00138628
0.0012683
0.00117359
0.00105314
0.00086773
0.000788045
0.000627983
0.000522011
0.000418903
0.000334847
0.000266966
0.000211383
0.000166541
0.000130171
0.000101397
7.90427e-05
6.17576e-05
4.81388e-05
3.78191e-05
3.03275e-05
2.47939e-05
2.03555e-05
1.67452e-05
1.38811e-05
1.16267e-05
9.83223e-06
8.3741e-06
7.15395e-06
6.10077e-06
5.18828e-06
4.39494e-06
3.70389e-06
3.10413e-06
2.58708e-06
2.14435e-06
1.76778e-06
1.44976e-06
1.18315e-06
9.61166e-07
7.77491e-07
6.26378e-07
5.02689e-07
4.01914e-07
3.20157e-07
2.54089e-07
2.00901e-07
1.5824e-07
1.24146e-07
9.69997e-08
7.54677e-08
5.84557e-08
4.50696e-08
3.45816e-08
2.64007e-08
2.00492e-08
1.51422e-08
1.13703e-08
8.4866e-09
6.29413e-09
4.63707e-09
3.39219e-09
2.46319e-09
1.77434e-09
1.26758e-09
8.97075e-10
6.2906e-10
4.35923e-10
2.99716e-10
2.04362e-10
1.38126e-10
9.24942e-11
6.13307e-11
4.02435e-11
2.61138e-11
1.67444e-11
1.06005e-11
6.61929e-12
4.07226e-12
2.46512e-12
1.46625e-12
8.55622e-13
4.89085e-13
2.73423e-13
1.49274e-13
7.94829e-14
4.12393e-14
2.08486e-14
1.02878e-14
4.98309e-15
2.40238e-15
1.1879e-15
6.35612e-16
3.93114e-16
2.90373e-16
2.48391e-16
2.3185e-16
2.25567e-16
2.23266e-16
2.22453e-16
2.22177e-16
2.22086e-16
2.22057e-16
2.22048e-16
2.22046e-16
2.22045e-16
2.22045e-16
2.22045e-16
2.22045e-16
2.22045e-16
2.22045e-16
2.22045e-16
2.22045e-16
2.22045e-16
2.22045e-16
2.22045e-16
2.22045e-16
2.22045e-16
2.22045e-16
2.22045e-16
2.22045e-16
2.22045e-16
2.22045e-16
2.22045e-16
2.22045e-16
2.22045e-16
2.22045e-16
2.22045e-16
2.22045e-16
2.22045e-16
2.22045e-16
2.22045e-16
2.22045e-16
2.22048e-16
2.22629e-16
2.25153e-16
2.31337e-16
2.43808e-16
2.69018e-16
3.13718e-16
3.97171e-16
5.58676e-16
8.86798e-16
1.59877e-15
3.14244e-15
6.71442e-15
1.43603e-14
3.48641e-14
6.44161e-14
1.55426e-13
2.02048e-13
2.28985e-13
2.73339e-13
3.04317e-13
4.2091e-13
9.00012e-07
1.39111e-06
2.62429e-06
3.54361e-06
4.24413e-06
6.10315e-06
1.03329e-05
1.94061e-05
3.73886e-05
6.81697e-05
0.000116913
0.000202639
0.000343392
0.000569991
0.00072265
0.000875562
0.00103056
0.00117628
0.00138854
0.00160985
0.00185184
0.00211718
0.00238005
0.00259762
0.00277337
0.00284825
0.00263288
0.00217477
0.00192187
0.00155973
0.00123937
0.0010773
0.000816656
0.000696114
0.000522357
0.000404852
0.000312418
0.000243484
0.000190735
0.0001479
0.000111757
8.39725e-05
6.33508e-05
4.79048e-05
3.62638e-05
2.74663e-05
2.10871e-05
1.66206e-05
1.3262e-05
1.06418e-05
8.5669e-06
6.94056e-06
5.68226e-06
4.72302e-06
4.00712e-06
3.45812e-06
3.01464e-06
2.63621e-06
2.29496e-06
1.97846e-06
1.69192e-06
1.43466e-06
1.20576e-06
1.00472e-06
8.306e-07
6.81637e-07
5.5562e-07
4.50096e-07
3.62534e-07
2.90458e-07
2.3155e-07
1.8371e-07
1.45083e-07
1.1406e-07
8.92666e-08
6.9546e-08
5.39327e-08
4.16274e-08
3.19738e-08
2.44356e-08
1.85774e-08
1.40471e-08
1.05614e-08
7.89378e-09
5.86335e-09
4.32688e-09
3.17107e-09
2.30723e-09
1.6657e-09
1.19285e-09
8.46524e-10
5.95361e-10
4.14005e-10
2.85284e-10
1.94983e-10
1.32116e-10
8.87018e-11
5.89794e-11
3.88163e-11
2.52693e-11
1.62602e-11
1.0334e-11
6.48078e-12
4.00636e-12
2.4385e-12
1.45941e-12
8.57555e-13
4.94007e-13
2.78589e-13
1.53598e-13
8.27032e-14
4.34579e-14
2.22862e-14
1.11709e-14
5.49905e-15
2.68958e-15
1.34031e-15
7.12741e-16
4.30349e-16
3.0753e-16
2.5594e-16
2.35024e-16
2.26843e-16
2.23757e-16
2.22635e-16
2.22241e-16