/*--------------------------------*- C++ -*----------------------------------*\
  =========                 |
  \\      /  F ield         | OpenFOAM: The Open Source CFD Toolbox
   \\    /   O peration     | Website:  https://openfoam.org
    \\  /    A nd           | Version:  7
     \\/     M anipulation  |
\*---------------------------------------------------------------------------*/
FoamFile
{
    version     2.0;
    format      ascii;
    class       volScalarField;
    location    "0.012";
    object      nut;
}
// * * * * * * * * * * * * * * * * * * * * * * * * * * * * * * * * * * * * * //

dimensions      [0 2 -1 0 0 0 0];

internalField   nonuniform List<scalar> 
12225
(
0
0
0
0
0
0
0
0
0
0
0
0
0
0
0
0
0
0
0
0
0
0
0
0
0
0
0
0
0
0
0
0
0
0
0
0
0
1.29548e-09
1.39322e-09
6.37866e-10
0
0
0
0
0
0
0
0
0
0
0
0
0
0
1.22739e-08
3.4244e-08
1.8925e-08
6.14831e-09
7.12036e-10
0
0
0
0
0
0
0
0
0
0
0
0
0
1.1899e-07
1.51747e-07
1.21441e-07
0
0
0
0
0
0
0
0
7.08144e-10
1.02301e-09
1.43418e-09
1.16223e-09
1.2078e-09
3.07333e-09
2.05438e-09
1.5067e-07
2.7992e-07
2.90059e-07
5.19821e-08
0
0
0
0
2.7961e-08
4.23705e-08
3.62896e-08
2.9588e-08
1.59385e-08
4.50635e-10
0
0
0
0
2.19948e-07
4.15621e-07
3.65571e-07
1.1719e-07
1.26728e-08
0
0
0
2.25419e-08
5.92159e-08
6.85086e-08
4.38746e-08
0
0
0
0
0
0
0
2.17984e-07
4.13124e-07
2.44975e-07
7.42155e-08
0
0
0
2.52007e-08
4.40237e-08
2.69346e-08
0
0
0
0
0
0
0
0
0
5.22532e-07
6.23469e-07
4.08249e-07
1.44276e-08
0
0
1.39742e-08
2.23213e-08
0
0
0
9.52864e-09
0
0
0
0
0
0
1.3152e-07
1.10987e-06
1.30677e-06
3.22993e-07
0
0
0
1.02152e-08
0
0
0
9.11049e-09
0
0
0
0
0
0
8.28516e-08
7.69028e-07
9.65058e-07
5.80929e-08
0
0
0
0
0
0
0
0
0
0
0
0
3.65586e-07
4.34213e-07
5.75824e-07
1.10656e-06
5.90094e-07
1.7637e-07
6.76371e-08
0
0
0
0
0
0
0
0
0
2.46782e-08
5.44614e-08
1.00077e-06
8.35161e-07
5.54267e-07
7.24346e-07
2.83417e-07
2.81554e-07
3.52959e-07
2.83465e-07
1.19855e-07
0
1.33969e-07
1.29024e-07
9.16188e-08
0
4.42273e-08
3.09931e-07
2.4348e-07
6.62969e-08
4.40609e-07
3.55585e-07
1.58586e-07
2.29381e-07
1.65651e-07
4.19634e-07
7.28908e-07
7.41572e-07
6.66671e-07
2.56741e-08
0
0
0
4.82156e-08
2.0479e-07
1.51602e-07
6.86392e-08
4.62216e-09
0
0
0
0
1.20566e-07
5.97901e-07
8.08496e-07
4.8045e-07
0
0
0
0
0
0
0
0
0
0
0
0
0
0
9.4345e-08
3.88871e-07
0
0
0
0
0
0
0
0
0
0
0
0
0
0
0
6.25602e-08
4.42829e-07
7.74028e-07
2.1875e-07
4.95435e-08
0
0
1.13822e-07
2.1757e-07
0
0
0
0
0
0
0
0
3.13495e-07
6.10373e-07
8.86851e-07
2.18657e-07
0
0
0
0
0
0
0
0
0
0
0
0
0
2.39022e-08
3.26632e-07
3.88542e-07
4.50268e-07
5.79704e-07
8.01611e-07
3.60162e-07
0
0
0
0
0
0
0
0
2.37362e-07
4.64949e-07
0
2.93444e-07
5.91092e-07
4.58081e-09
1.31429e-07
7.83207e-07
9.76119e-07
6.91085e-07
2.70644e-07
0
0
0
0
0
0
1.54715e-06
2.28622e-06
2.07335e-06
0
0
0
0
0
0
3.2923e-07
2.78907e-07
0
0
0
0
0
0
7.42642e-07
8.96757e-07
7.15542e-07
5.58026e-07
0
0
0
0
0
0
0
0
0
0
0
0
0
0
4.19254e-07
5.80358e-07
4.52147e-07
2.78807e-07
9.59779e-08
0
0
0
0
0
0
0
0
0
0
0
0
1.68292e-07
2.59133e-07
2.18914e-07
1.03465e-07
0
0
0
0
0
0
0
0
0
0
3.19648e-08
1.17497e-07
1.71709e-07
2.3333e-07
2.97134e-07
3.36607e-07
3.31577e-07
2.73563e-07
1.71828e-07
0
0
0
0
3.75854e-08
4.06134e-08
6.51917e-10
0
1.69263e-08
7.21772e-08
1.10689e-07
1.38914e-07
1.73806e-07
2.21887e-07
2.78566e-07
3.26255e-07
3.40773e-07
3.08756e-07
0
0
0
0
4.92442e-08
5.98922e-08
4.37595e-08
2.36193e-08
1.69325e-08
2.80904e-08
4.24266e-08
5.55922e-08
7.58801e-08
1.13012e-07
1.69495e-07
2.26223e-07
2.50824e-07
2.31451e-07
0
0
0
0
0
0
0
0
0
0
0
0
0
0
0
0
0
0
3.92858e-09
0
0
0
0
0
0
0
0
0
0
0
0
0
0
0
0
0
5.90494e-09
0
0
0
0
0
0
0
0
0
0
0
0
0
0
0
0
0
4.79524e-08
0
0
0
0
0
0
0
0
0
0
0
0
0
0
0
0
0
0
0
0
1.52981e-08
3.52006e-08
5.11612e-08
6.09305e-08
6.50307e-08
6.494e-08
6.2397e-08
5.77645e-08
5.18091e-08
4.50704e-08
3.80303e-08
3.10339e-08
2.44219e-08
1.84428e-08
1.32714e-08
9.04263e-09
5.74643e-09
3.38186e-09
1.84109e-09
8.60107e-10
1.53028e-10
0
0
0
0
0
0
0
0
0
0
0
0
0
0
0
0
0
0
0
0
1.13189e-09
0
0
0
0
0
0
0
0
0
0
0
0
0
0
0
0
0
0
0
0
0
0
0
0
0
0
0
0
0
0
0
0
0
0
0
0
0
0
0
0
0
0
0
0
0
0
0
0
0
0
0
0
0
0
0
0
0
0
0
0
0
0
0
0
0
0
0
0
0
0
0
0
0
0
0
0
0
0
0
0
0
0
0
0
0
0
0
0
0
0
0
0
0
0
0
0
0
0
0
0
0
0
0
0
0
0
0
0
0
0
0
0
0
0
0
0
0
0
0
0
0
0
0
0
0
0
0
0
0
0
0
0
0
0
0
0
0
0
0
0
0
7.51747e-09
1.81001e-08
2.38443e-08
2.51462e-08
2.37464e-08
2.10623e-08
1.80102e-08
1.51727e-08
1.28295e-08
1.10233e-08
9.55064e-09
8.47706e-09
7.52521e-09
6.534e-09
5.41802e-09
4.09267e-09
2.49006e-09
5.51929e-10
0
0
0
0
0
0
0
0
0
0
0
0
0
0
0
0
0
7.30931e-09
3.06971e-08
3.80051e-08
3.14595e-08
1.77088e-08
3.58943e-09
0
0
0
0
0
0
0
0
0
0
0
0
0
0
0
0
0
0
0
0
0
0
0
0
0
0
0
0
0
0
0
0
0
0
0
0
0
0
0
0
0
0
0
0
0
0
0
0
0
0
0
0
0
0
0
0
0
0
0
0
0
0
0
0
0
0
0
0
0
0
0
0
0
0
0
0
0
0
0
0
0
0
0
0
0
0
0
0
0
0
0
0
0
0
0
0
0
0
0
0
0
0
0
0
0
0
0
0
0
0
0
0
0
0
0
0
0
0
0
0
0
0
0
0
0
0
0
0
0
0
0
0
0
0
0
0
0
0
0
0
0
0
0
0
0
0
0
0
0
0
0
1.66095e-10
3.28538e-09
4.5444e-09
4.05364e-09
2.21158e-09
0
0
0
0
0
0
0
0
0
1.21544e-08
3.24758e-08
5.31752e-08
7.22579e-08
8.82999e-08
1.00592e-07
1.08865e-07
1.13195e-07
1.14023e-07
1.1189e-07
1.07024e-07
9.95336e-08
8.9896e-08
7.87905e-08
6.65776e-08
5.36672e-08
4.05801e-08
2.79542e-08
1.65118e-08
6.9079e-09
0
0
0
0
0
0
0
0
0
0
0
0
0
0
0
0
0
0
0
0
0
0
0
0
0
0
0
0
0
0
0
0
0
0
0
0
0
0
0
0
0
0
0
0
0
0
0
0
0
0
0
0
0
0
0
0
0
0
0
0
0
0
0
0
0
0
0
0
0
0
0
0
0
0
0
0
0
0
0
0
0
0
0
0
0
0
0
0
0
0
0
0
0
0
0
0
0
0
0
0
0
0
0
0
0
0
0
0
0
0
0
0
0
0
0
0
0
0
0
0
0
0
0
0
0
0
0
0
0
0
0
0
0
0
0
0
0
0
0
0
0
0
0
0
0
0
0
0
0
0
0
0
0
3.02687e-08
6.70838e-08
1.01337e-07
1.31007e-07
1.54899e-07
1.72905e-07
1.85666e-07
1.93296e-07
1.96716e-07
1.9655e-07
1.93576e-07
1.88309e-07
1.81363e-07
1.73176e-07
1.64109e-07
1.5459e-07
1.45033e-07
1.35405e-07
1.25604e-07
1.15827e-07
1.06327e-07
9.73134e-08
8.88185e-08
8.08422e-08
7.33794e-08
6.64183e-08
5.99407e-08
5.39238e-08
4.83403e-08
4.31621e-08
3.83646e-08
3.39263e-08
2.98324e-08
2.60653e-08
2.25943e-08
1.94015e-08
1.64703e-08
1.37834e-08
1.13287e-08
9.09768e-09
7.08574e-09
5.28958e-09
3.70527e-09
2.34148e-09
1.19771e-09
2.74069e-10
0
0
0
0
0
0
0
0
0
0
0
0
0
0
0
0
0
0
0
3.12557e-12
6.2205e-12
7.57443e-12
7.83281e-12
7.43962e-12
6.70539e-12
5.82874e-12
4.92618e-12
4.0778e-12
3.3232e-12
2.66659e-12
2.11586e-12
1.66665e-12
1.29803e-12
1.00565e-12
7.79896e-13
6.06161e-13
4.72585e-13
3.67089e-13
2.83241e-13
2.18344e-13
1.68266e-13
1.29278e-13
9.89661e-14
7.54948e-14
5.74255e-14
4.36141e-14
3.31306e-14
2.52221e-14
1.92891e-14
1.48621e-14
1.15697e-14
9.12311e-15
7.30388e-15
5.94542e-15
4.92364e-15
4.15033e-15
3.5578e-15
3.09654e-15
2.7325e-15
2.44098e-15
2.2032e-15
2.0058e-15
1.84004e-15
1.69959e-15
1.5791e-15
1.47419e-15
1.3818e-15
1.29995e-15
1.22735e-15
1.16282e-15
1.10534e-15
1.05385e-15
1.00742e-15
9.65229e-16
9.26675e-16
8.91173e-16
8.58319e-16
8.27562e-16
7.98432e-16
7.70489e-16
7.43137e-16
7.15819e-16
6.87898e-16
6.58602e-16
6.27038e-16
5.92153e-16
5.52634e-16
5.06743e-16
4.52851e-16
3.87109e-16
3.09984e-16
2.08097e-16
9.82165e-17
0
0
0
0
0
0
0
0
0
0
0
0
0
0
0
0
0
0
0
0
0
0
0
0
0
0
0
0
0
0
0
0
0
0
0
0
0
0
0
0
0
2.89276e-08
7.36883e-08
1.16434e-07
1.54189e-07
1.85208e-07
2.0916e-07
2.25607e-07
2.34868e-07
2.38368e-07
2.36728e-07
2.31268e-07
2.22748e-07
2.12197e-07
2.00216e-07
1.87501e-07
1.74537e-07
1.61738e-07
1.49356e-07
1.37182e-07
1.2542e-07
1.14357e-07
1.04049e-07
9.44735e-08
8.56155e-08
7.74544e-08
6.99602e-08
6.30964e-08
5.68205e-08
5.10889e-08
4.58566e-08
4.10825e-08
3.67264e-08
3.27479e-08
2.91198e-08
2.58312e-08
2.28602e-08
2.01819e-08
1.77719e-08
1.56057e-08
1.36628e-08
1.1926e-08
1.03778e-08
8.99949e-09
7.77476e-09
6.68939e-09
5.73042e-09
4.88622e-09
4.14588e-09
3.4992e-09
2.93668e-09
2.44949e-09
2.02949e-09
1.66917e-09
1.36165e-09
1.10064e-09
8.80427e-10
6.95814e-10
5.42122e-10
4.15153e-10
3.1114e-10
2.26758e-10
1.59034e-10
1.05385e-10
6.35204e-11
3.1465e-11
7.47913e-12
0
0
0
0
0
0
0
0
0
0
0
0
0
0
0
0
0
0
0
0
0
0
0
5.73659e-14
9.77313e-14
1.21022e-13
1.37175e-13
1.47991e-13
1.53625e-13
1.5438e-13
1.51335e-13
1.45157e-13
1.36479e-13
1.26217e-13
1.15247e-13
1.04194e-13
9.35246e-14
8.35476e-14
7.44443e-14
6.62879e-14
5.908e-14
5.27728e-14
4.72976e-14
4.25703e-14
3.85026e-14
3.50044e-14
3.19955e-14
2.94029e-14
2.71651e-14
2.52275e-14
2.3542e-14
2.20673e-14
2.07702e-14
1.96147e-14
1.85917e-14
1.76541e-14
1.68205e-14
1.6042e-14
1.53118e-14
1.46562e-14
1.39915e-14
1.33422e-14
1.27393e-14
1.21411e-14
1.15155e-14
1.0846e-14
1.01161e-14
9.30108e-15
8.38596e-15
7.32195e-15
6.1249e-15
4.67075e-15
3.11227e-15
1.10324e-15
0
0
0
0
0
0
2.68451e-15
1.08474e-13
4.14346e-13
3.25483e-12
8.31567e-12
4.94283e-11
1.02354e-11
7.59384e-11
0
0
0
0
0
0
0
0
0
0
0
0
0
0
0
0
0
0
0
0
0
0
0
0
0
0
2.83283e-08
8.71416e-08
1.43358e-07
1.936e-07
2.34248e-07
2.64167e-07
2.85224e-07
2.95129e-07
2.97749e-07
2.93126e-07
2.83593e-07
2.70315e-07
2.54776e-07
2.37647e-07
2.20167e-07
2.03117e-07
1.8661e-07
1.70793e-07
1.55106e-07
1.40088e-07
1.26311e-07
1.1375e-07
1.02289e-07
9.18448e-08
8.23483e-08
7.37303e-08
6.59243e-08
5.88689e-08
5.25051e-08
4.67737e-08
4.16187e-08
3.69867e-08
3.28264e-08
2.90892e-08
2.57335e-08
2.27194e-08
2.00087e-08
1.75812e-08
1.5417e-08
1.34869e-08
1.17639e-08
1.02275e-08
8.86124e-09
7.64985e-09
6.57883e-09
5.63469e-09
4.80495e-09
4.07815e-09
3.44376e-09
2.89212e-09
2.41439e-09
2.00246e-09
1.64893e-09
1.34705e-09
1.09067e-09
8.74217e-10
6.92639e-10
5.41385e-10
4.16362e-10
3.13916e-10
2.30774e-10
1.64052e-10
1.112e-10
6.9993e-11
3.84389e-11
1.48475e-11
0
0
0
0
0
0
0
0
0
0
0
0
0
0
0
0
0
0
0
0
0
0
0
0
0
0
0
0
0
0
0
0
0
0
0
0
0
0
0
0
0
0
0
0
0
0
0
0
0
0
0
0
0
0
0
0
0
0
0
0
0
0
0
0
0
0
0
0
0
5.14548e-14
1.57953e-13
2.985e-13
4.57882e-13
6.60376e-13
9.08769e-13
1.32021e-12
1.89866e-12
3.01007e-12
4.51775e-12
7.65887e-12
1.12172e-11
1.94863e-11
2.52173e-11
4.23736e-11
3.92998e-11
7.91606e-11
1.0859e-11
3.82041e-11
0
0
0
0
0
0
0
0
0
0
0
0
0
0
0
0
0
0
0
0
0
0
0
0
0
0
2.6485e-08
1.04031e-07
1.77549e-07
2.42444e-07
2.91111e-07
3.26758e-07
3.50544e-07
3.58527e-07
3.57721e-07
3.47781e-07
3.31693e-07
3.11687e-07
2.89372e-07
2.66121e-07
2.42632e-07
2.19728e-07
1.99336e-07
1.80307e-07
1.61836e-07
1.44786e-07
1.29631e-07
1.16107e-07
1.03951e-07
9.30029e-08
8.31381e-08
7.42464e-08
6.62321e-08
5.90098e-08
5.25046e-08
4.6653e-08
4.13934e-08
3.66709e-08
3.24382e-08
2.86508e-08
2.52632e-08
2.22373e-08
1.95471e-08
1.71498e-08
1.50094e-08
1.31012e-08
1.14044e-08
9.89866e-09
8.56496e-09
7.38605e-09
6.34635e-09
5.43172e-09
4.62937e-09
3.92766e-09
3.31598e-09
2.78468e-09
2.325e-09
1.92893e-09
1.5892e-09
1.2992e-09
1.05295e-09
8.45048e-10
6.706e-10
5.2522e-10
4.0497e-10
3.06343e-10
2.26203e-10
1.61794e-10
1.10668e-10
7.071e-11
4.00064e-11
1.69565e-11
1.50634e-13
0
0
0
0
0
0
0
0
0
0
0
0
0
0
0
0
0
0
0
0
0
0
0
0
0
0
0
0
0
0
0
0
0
0
0
0
0
0
0
0
0
0
0
0
0
0
0
0
0
0
0
0
0
0
0
0
0
0
0
0
0
0
0
0
0
0
1.4568e-13
2.77877e-13
3.79291e-13
4.57775e-13
5.36128e-13
6.18512e-13
7.44202e-13
9.09229e-13
1.22598e-12
1.66324e-12
2.54228e-12
3.68101e-12
6.08367e-12
8.64785e-12
1.45346e-11
1.81608e-11
3.00382e-11
2.54854e-11
4.50463e-11
8.00069e-13
3.36625e-12
0
0
0
0
0
0
0
0
0
0
0
0
0
0
0
0
0
0
0
0
0
0
0
0
0
0
2.57936e-08
1.28741e-07
2.23257e-07
3.05291e-07
3.61053e-07
4.01084e-07
4.22857e-07
4.27226e-07
4.17396e-07
3.99876e-07
3.73953e-07
3.44731e-07
3.13496e-07
2.82703e-07
2.52981e-07
2.26523e-07
2.03112e-07
1.81585e-07
1.61775e-07
1.43893e-07
1.28217e-07
1.14392e-07
1.02092e-07
9.11131e-08
8.12959e-08
7.25003e-08
6.46077e-08
5.75177e-08
5.11451e-08
4.54195e-08
4.02778e-08
3.56644e-08
3.15306e-08
2.78325e-08
2.45292e-08
2.15775e-08
1.89367e-08
1.65806e-08
1.44846e-08
1.26237e-08
1.09741e-08
9.51412e-09
8.22424e-09
7.08671e-09
6.0856e-09
5.20655e-09
4.43661e-09
3.76411e-09
3.17851e-09
2.67027e-09
2.23078e-09
1.85223e-09
1.52757e-09
1.25041e-09
1.015e-09
8.16141e-10
6.49167e-10
5.09887e-10
3.94547e-10
2.99809e-10
2.22695e-10
1.6058e-10
1.11149e-10
7.23828e-11
4.24755e-11
1.98964e-11
3.31357e-12
0
0
0
0
0
0
0
0
0
0
0
0
0
0
0
0
0
0
0
0
0
0
0
0
0
0
0
0
0
0
0
0
0
0
0
0
0
0
0
0
0
0
0
0
0
0
0
0
0
0
0
0
0
0
0
0
0
0
0
0
0
0
0
0
0
0
7.0352e-14
1.88366e-13
2.83412e-13
3.58461e-13
4.30633e-13
5.01158e-13
6.03538e-13
7.29576e-13
9.64886e-13
1.28215e-12
1.91117e-12
2.705e-12
4.32924e-12
5.98547e-12
9.53713e-12
1.1412e-11
1.80373e-11
1.33408e-11
1.67101e-11
0
0
0
0
0
0
0
0
0
0
0
0
0
0
0
0
0
0
0
0
0
0
0
0
0
0
0
0
3.19554e-08
1.74379e-07
3.03633e-07
4.04389e-07
4.7613e-07
5.07447e-07
5.25527e-07
5.18073e-07
4.89888e-07
4.59414e-07
4.18934e-07
3.77617e-07
3.36507e-07
2.9696e-07
2.60999e-07
2.29856e-07
2.02634e-07
1.78008e-07
1.56248e-07
1.37751e-07
1.21836e-07
1.0783e-07
9.56228e-08
8.49846e-08
7.56842e-08
6.75e-08
6.02431e-08
5.37638e-08
4.7947e-08
4.27042e-08
3.79754e-08
3.37094e-08
2.98596e-08
2.63868e-08
2.32605e-08
2.04563e-08
1.79496e-08
1.57144e-08
1.37255e-08
1.19591e-08
1.03934e-08
9.0082e-09
7.78505e-09
6.70717e-09
5.75931e-09
4.92768e-09
4.19982e-09
3.56447e-09
3.01149e-09
2.53173e-09
2.11693e-09
1.75964e-09
1.45314e-09
1.1914e-09
9.68943e-10
7.80882e-10
6.22814e-10
4.90797e-10
3.8131e-10
2.91214e-10
2.17723e-10
1.58372e-10
1.10997e-10
7.36992e-11
4.47945e-11
2.28338e-11
6.57973e-12
0
0
0
0
0
0
0
0
0
0
0
0
0
0
0
0
0
0
0
0
0
0
0
0
0
0
0
0
0
0
0
0
0
0
0
0
0
0
0
0
0
0
0
0
0
0
0
0
0
0
0
0
0
0
0
0
0
0
0
0
0
0
0
0
0
0
2.24215e-15
1.06439e-13
1.92983e-13
2.62259e-13
3.26675e-13
3.84645e-13
4.63602e-13
5.53861e-13
7.1494e-13
9.26867e-13
1.33413e-12
1.83271e-12
2.80254e-12
3.72719e-12
5.51611e-12
6.15914e-12
8.79336e-12
4.88178e-12
2.39176e-12
0
0
0
0
0
0
0
0
0
0
0
0
0
0
0
0
0
0
0
0
0
0
0
0
0
0
0
0
7.88538e-08
2.75556e-07
4.32862e-07
5.54044e-07
6.29582e-07
6.4727e-07
6.71213e-07
6.31789e-07
5.92254e-07
5.33082e-07
4.71889e-07
4.13242e-07
3.58751e-07
3.10083e-07
2.67609e-07
2.30975e-07
1.98578e-07
1.69649e-07
1.44296e-07
1.23351e-07
1.06725e-07
9.34041e-08
8.20365e-08
7.21941e-08
6.38281e-08
5.67677e-08
5.07635e-08
4.55801e-08
4.10053e-08
3.68666e-08
3.3102e-08
2.96639e-08
2.65125e-08
2.3625e-08
2.09868e-08
1.8584e-08
1.64026e-08
1.44297e-08
1.26529e-08
1.10592e-08
9.6353e-09
8.36775e-09
7.2432e-09
6.24872e-09
5.37193e-09
4.60119e-09
3.92568e-09
3.3354e-09
2.82121e-09
2.37477e-09
1.9885e-09
1.65553e-09
1.36966e-09
1.12529e-09
9.17372e-10
7.4138e-10
5.93239e-10
4.69304e-10
3.66317e-10
2.81379e-10
2.11913e-10
1.55637e-10
1.10558e-10
7.49066e-11
4.71368e-11
2.58871e-11
1.00272e-11
0
0
0
0
0
0
0
0
0
0
0
0
0
0
0
0
0
0
0
0
0
0
0
0
0
0
0
0
0
0
0
0
0
0
0
0
0
0
0
0
0
0
0
0
0
0
0
0
0
0
0
0
0
0
0
0
0
0
0
0
0
0
0
0
0
0
0
3.2078e-14
1.08432e-13
1.70459e-13
2.24564e-13
2.72687e-13
3.28034e-13
3.88622e-13
4.86832e-13
6.09969e-13
8.37519e-13
1.10004e-12
1.57891e-12
1.9707e-12
2.76542e-12
2.59788e-12
2.73286e-12
2.8624e-13
0
0
0
0
0
0
0
0
0
0
0
0
0
0
0
0
0
0
0
0
0
0
0
0
0
0
0
0
0
8.86205e-08
2.86287e-07
4.24138e-07
5.36153e-07
5.96609e-07
6.36371e-07
6.95948e-07
6.85583e-07
6.7915e-07
5.9904e-07
5.16015e-07
4.33702e-07
3.65491e-07
3.12037e-07
2.68699e-07
2.29229e-07
1.93693e-07
1.62821e-07
1.36635e-07
1.14743e-07
9.64528e-08
8.16716e-08
7.01602e-08
6.07449e-08
5.2815e-08
4.60463e-08
4.03073e-08
3.54906e-08
3.14984e-08
2.82492e-08
2.55602e-08
2.32474e-08
2.11775e-08
1.92478e-08
1.74034e-08
1.56657e-08
1.40346e-08
1.25098e-08
1.10944e-08
9.79152e-09
8.6012e-09
7.52137e-09
6.54819e-09
5.67644e-09
4.8998e-09
4.21136e-09
3.60394e-09
3.07032e-09
2.6035e-09
2.19677e-09
1.84383e-09
1.53883e-09
1.27639e-09
1.05158e-09
8.59915e-10
6.97339e-10
5.60191e-10
4.45183e-10
3.49369e-10
2.70118e-10
2.05093e-10
1.5222e-10
1.09683e-10
7.58736e-11
4.93766e-11
2.89485e-11
1.35527e-11
2.26983e-12
0
0
0
0
0
0
0
0
0
0
0
0
0
0
0
0
0
0
0
0
0
0
0
0
0
0
0
0
0
0
0
0
0
0
0
0
0
0
0
0
0
0
0
0
0
0
0
0
0
0
0
0
0
0
0
0
0
0
0
0
0
0
0
0
0
0
0
2.47143e-14
7.9285e-14
1.2486e-13
1.624e-13
2.00685e-13
2.35705e-13
2.88326e-13
3.43403e-13
4.41794e-13
5.36853e-13
7.15929e-13
7.68683e-13
8.3009e-13
5.81675e-13
0
0
0
0
0
0
0
0
0
0
0
0
0
0
0
0
0
0
0
0
0
0
0
0
0
0
0
0
0
0
0
0
8.35009e-08
3.76012e-07
5.44185e-07
5.1186e-07
3.8843e-07
3.91828e-07
5.08033e-07
6.17224e-07
6.20055e-07
5.44962e-07
4.43425e-07
3.53499e-07
2.89698e-07
2.45877e-07
2.13041e-07
1.82495e-07
1.53992e-07
1.29134e-07
1.07568e-07
8.9405e-08
7.43367e-08
6.2124e-08
5.29386e-08
4.57763e-08
3.96132e-08
3.42648e-08
2.96592e-08
2.57455e-08
2.2441e-08
1.9661e-08
1.73559e-08
1.54702e-08
1.39563e-08
1.27477e-08
1.17027e-08
1.07434e-08
9.82152e-09
8.90897e-09
8.02179e-09
7.17466e-09
6.37403e-09
5.62571e-09
4.93442e-09
4.30247e-09
3.73001e-09
3.21572e-09
2.75714e-09
2.35102e-09
1.9936e-09
1.68087e-09
1.40875e-09
1.17324e-09
9.70507e-10
7.96913e-10
6.4909e-10
5.23932e-10
4.18605e-10
3.30543e-10
2.57434e-10
1.97208e-10
1.48025e-10
1.08259e-10
7.64771e-11
5.13955e-11
3.19058e-11
1.70567e-11
6.03164e-12
0
0
0
0
0
0
0
0
0
0
0
0
0
0
0
0
0
0
0
0
0
0
0
0
0
0
0
0
0
0
0
0
0
0
0
0
0
0
0
0
0
0
0
0
0
0
0
0
0
0
0
0
0
0
0
0
0
0
0
0
0
0
0
0
0
0
0
0
3.26035e-15
3.98583e-14
6.84252e-14
9.2193e-14
1.10954e-13
1.30978e-13
1.44291e-13
1.70996e-13
1.70502e-13
1.87048e-13
1.19298e-13
1.48449e-14
0
0
0
0
0
0
0
0
0
0
0
0
0
0
0
0
0
0
0
0
0
0
0
0
0
0
0
1.08373e-07
8.40029e-07
1.11877e-06
4.15661e-07
0
0
0
1.1333e-06
1.90352e-06
1.84341e-06
1.1265e-06
3.18586e-07
3.86281e-08
2.50039e-07
4.66639e-07
5.10235e-07
4.42475e-07
3.45924e-07
2.65702e-07
2.09995e-07
1.73552e-07
1.51823e-07
1.34672e-07
1.16929e-07
9.93403e-08
8.25755e-08
6.78806e-08
5.57039e-08
4.57653e-08
3.80645e-08
3.26791e-08
2.86521e-08
2.50962e-08
2.1796e-08
1.88597e-08
1.62968e-08
1.41026e-08
1.22565e-08
1.07164e-08
9.42973e-09
8.36583e-09
7.49521e-09
6.7945e-09
6.23789e-09
5.7554e-09
5.30027e-09
4.85192e-09
4.40012e-09
3.95047e-09
3.517e-09
3.10586e-09
2.72123e-09
2.3662e-09
2.0426e-09
1.75089e-09
1.49045e-09
1.25993e-09
1.05754e-09
8.81169e-10
7.28573e-10
5.97459e-10
4.8557e-10
3.90741e-10
3.10938e-10
2.44277e-10
1.89032e-10
1.43644e-10
1.06711e-10
7.69862e-11
5.33388e-11
3.47909e-11
2.05006e-11
9.7418e-12
1.85527e-12
0
0
0
0
0
0
0
0
0
0
0
0
0
0
0
0
0
0
0
0
0
0
0
0
0
0
0
0
0
0
0
0
0
0
0
0
0
0
0
0
0
0
0
0
0
0
0
0
0
0
0
0
0
0
0
0
0
0
0
0
0
0
0
0
0
0
0
0
0
0
0
0
4.70999e-15
2.55192e-15
0
0
0
0
0
0
0
0
0
0
0
0
0
0
0
0
0
0
0
0
0
0
0
0
0
0
0
0
0
0
2.72434e-07
2.2144e-06
5.9325e-06
1.06723e-05
1.20295e-05
5.07546e-06
0
0
0
0
1.93669e-06
3.3571e-06
2.94266e-06
1.49793e-06
1.30207e-07
0
2.73553e-08
2.97683e-07
3.50842e-07
3.03245e-07
2.35253e-07
1.76206e-07
1.33939e-07
1.09138e-07
9.89557e-08
9.35794e-08
8.54705e-08
7.46111e-08
6.22672e-08
5.06325e-08
4.08958e-08
3.31171e-08
2.69313e-08
2.23124e-08
1.92708e-08
1.71336e-08
1.52185e-08
1.33648e-08
1.16535e-08
1.01107e-08
8.74832e-09
7.56781e-09
6.56273e-09
5.7209e-09
5.02034e-09
4.43564e-09
3.95068e-09
3.55031e-09
3.22193e-09
2.9552e-09
2.72585e-09
2.50775e-09
2.29178e-09
2.07479e-09
1.85703e-09
1.64334e-09
1.44041e-09
1.25118e-09
1.07722e-09
9.19362e-10
7.7781e-10
6.523e-10
5.42172e-10
4.46459e-10
3.64014e-10
2.93606e-10
2.33997e-10
1.83975e-10
1.42376e-10
1.0812e-10
8.01989e-11
5.76903e-11
3.977e-11
2.57371e-11
1.49563e-11
6.85806e-12
9.32241e-13
0
0
0
0
0
0
0
0
0
0
0
0
0
0
0
0
0
0
0
0
0
0
0
0
0
0
0
0
0
0
0
0
0
0
0
0
0
0
0
0
0
0
0
0
0
0
0
0
0
0
0
0
0
0
0
0
0
0
0
0
0
0
0
0
0
0
0
0
0
0
0
0
0
0
0
0
0
0
0
0
0
0
0
0
0
0
0
0
5.28104e-09
8.01487e-10
0
0
0
0
0
0
0
0
0
0
0
0
3.571e-07
2.24077e-06
7.21149e-06
1.91426e-05
3.96351e-05
5.75363e-05
1.07165e-05
0
0
0
0
0
0
1.87844e-06
1.90012e-06
6.91712e-07
0
0
0
1.767e-07
2.01928e-07
1.72584e-07
1.357e-07
1.01552e-07
7.42137e-08
5.89216e-08
5.69529e-08
6.05431e-08
6.0477e-08
5.52973e-08
4.66881e-08
3.76181e-08
2.98437e-08
2.377e-08
1.90874e-08
1.547e-08
1.29145e-08
1.1218e-08
1.00065e-08
8.93981e-09
7.93629e-09
6.99426e-09
6.12186e-09
5.32651e-09
4.61454e-09
3.98944e-09
3.45056e-09
2.9939e-09
2.61283e-09
2.29664e-09
2.03201e-09
1.80946e-09
1.62238e-09
1.46546e-09
1.33311e-09
1.21988e-09
1.11714e-09
1.01667e-09
9.17073e-10
8.18947e-10
7.23435e-10
6.31773e-10
5.4515e-10
4.64897e-10
3.92291e-10
3.27593e-10
2.70633e-10
2.21048e-10
1.78344e-10
1.41951e-10
1.11264e-10
8.56612e-11
6.45254e-11
4.72857e-11
3.34301e-11
2.2477e-11
1.39635e-11
7.46882e-12
2.63681e-12
0
0
0
0
0
0
0
0
0
0
0
0
0
0
0
0
0
0
0
0
0
0
0
0
0
0
0
0
0
0
0
0
0
0
0
0
0
0
0
0
0
0
0
0
0
0
0
0
0
0
0
0
0
0
0
0
0
0
0
0
0
0
0
0
0
0
0
0
0
0
0
0
0
0
0
0
0
0
0
0
0
0
0
0
0
0
1.49985e-10
2.38913e-08
3.28813e-08
3.70295e-08
4.03025e-08
3.90398e-08
2.75317e-08
5.65225e-09
0
0
0
0
0
0
0
0
0
1.11022e-06
2.03805e-06
0
0
0
0
0
0
0
0
0
0
7.45856e-07
4.69636e-07
0
0
0
6.76006e-08
1.04919e-07
9.62803e-08
8.54952e-08
7.0633e-08
5.10288e-08
3.30514e-08
2.53775e-08
2.9895e-08
3.9342e-08
4.40572e-08
4.19752e-08
3.55241e-08
2.81486e-08
2.17956e-08
1.69567e-08
1.33973e-08
1.07124e-08
8.7653e-09
7.43485e-09
6.4815e-09
5.72636e-09
5.08567e-09
4.51218e-09
3.9882e-09
3.50757e-09
3.06618e-09
2.66281e-09
2.29813e-09
1.9739e-09
1.69209e-09
1.453e-09
1.25449e-09
1.09028e-09
9.53501e-10
8.39126e-10
7.42684e-10
6.60333e-10
5.88981e-10
5.26251e-10
4.7039e-10
4.20132e-10
3.74562e-10
3.32931e-10
2.94213e-10
2.57355e-10
2.225e-10
1.90033e-10
1.60265e-10
1.33381e-10
1.09445e-10
8.84295e-11
7.02196e-11
5.46443e-11
4.15065e-11
3.06076e-11
2.17227e-11
1.46025e-11
8.99829e-12
4.68373e-12
1.45512e-12
0
0
0
0
0
0
0
0
0
0
0
0
0
0
0
0
0
0
0
0
0
0
0
0
0
0
0
0
0
0
0
0
0
0
0
0
0
0
0
0
0
0
0
0
0
0
0
0
0
0
0
0
0
0
0
0
0
0
0
0
0
0
0
0
0
0
0
0
0
0
0
0
0
0
0
0
0
0
0
0
0
0
0
0
7.46109e-11
3.81226e-09
3.51339e-08
5.74687e-08
7.36641e-08
9.49004e-08
1.21114e-07
1.44508e-07
1.71939e-07
1.89291e-07
1.86181e-07
1.58119e-07
1.01504e-07
1.74229e-08
0
0
0
0
0
0
0
0
0
0
0
0
0
0
0
2.63666e-07
8.21394e-07
3.62412e-07
0
0
0
6.71029e-08
5.5748e-08
3.82761e-08
3.58308e-08
3.55314e-08
2.76864e-08
1.44445e-08
4.39919e-09
4.27396e-09
1.28998e-08
2.37085e-08
2.912e-08
2.80648e-08
2.33621e-08
1.80112e-08
1.35049e-08
1.01847e-08
7.86764e-09
6.21697e-09
5.01881e-09
4.21096e-09
3.64827e-09
3.18609e-09
2.79097e-09
2.44456e-09
2.13477e-09
1.85758e-09
1.61048e-09
1.39083e-09
1.19561e-09
1.02173e-09
8.67201e-10
7.31758e-10
6.15549e-10
5.1762e-10
4.36227e-10
3.692e-10
3.14237e-10
2.69088e-10
2.31712e-10
2.00377e-10
1.73679e-10
1.50539e-10
1.30181e-10
1.12066e-10
9.58464e-11
8.12973e-11
6.82699e-11
5.66608e-11
4.63848e-11
3.73641e-11
2.95198e-11
2.2769e-11
1.70202e-11
1.21894e-11
8.20287e-12
4.977e-12
2.42332e-12
4.48999e-13
0
0
0
0
0
0
0
0
0
0
0
0
0
0
0
0
0
0
0
0
0
0
0
0
0
0
0
0
0
0
0
0
0
0
0
0
0
0
0
0
0
0
0
0
0
0
0
0
0
0
0
0
0
0
0
0
0
0
0
0
0
0
0
0
0
0
0
0
0
0
0
0
0
0
0
0
0
0
0
0
0
0
0
0
0
7.80756e-09
9.24941e-09
1.40452e-08
3.54217e-08
7.1159e-08
1.01357e-07
1.31612e-07
1.69704e-07
2.1832e-07
2.87773e-07
3.55779e-07
4.17088e-07
4.54641e-07
4.74877e-07
5.00476e-07
5.1182e-07
3.85317e-07
0
0
0
0
0
0
0
0
0
2.1865e-05
1.97811e-05
8.54137e-06
2.81954e-06
1.19502e-06
6.51395e-07
1.23798e-07
0
0
5.26991e-08
7.36244e-08
2.82854e-08
5.40886e-09
4.02521e-09
9.34269e-09
9.844e-09
2.78154e-09
0
0
0
4.07786e-09
1.32115e-08
1.74126e-08
1.66976e-08
1.36246e-08
1.02605e-08
7.48368e-09
5.46748e-09
4.10327e-09
3.19236e-09
2.55484e-09
2.122e-09
1.8348e-09
1.60495e-09
1.40165e-09
1.2182e-09
1.05307e-09
9.05354e-10
7.74191e-10
6.58401e-10
5.56479e-10
4.66727e-10
3.87364e-10
3.17964e-10
2.5851e-10
2.08424e-10
1.66919e-10
1.33081e-10
1.05869e-10
8.42191e-11
6.71132e-11
5.36317e-11
4.29726e-11
3.44744e-11
2.759e-11
2.19266e-11
1.71878e-11
1.31876e-11
9.80008e-12
6.93738e-12
4.53758e-12
2.552e-12
9.39435e-13
0
0
0
0
0
0
0
0
0
0
0
0
0
0
0
0
0
0
0
0
0
0
0
0
0
0
0
0
0
0
0
0
0
0
0
0
0
0
0
0
0
0
0
0
0
0
0
0
0
0
0
0
0
0
0
0
0
0
0
0
0
0
0
0
0
0
0
0
0
0
0
0
0
0
0
0
0
0
0
0
0
0
0
0
0
0
0
0
0
0
0
3.21504e-07
1.78763e-07
6.18565e-08
4.04549e-08
6.76325e-08
9.94455e-08
1.32357e-07
1.72016e-07
2.25928e-07
3.12424e-07
4.08544e-07
5.14907e-07
6.0868e-07
6.88484e-07
7.80971e-07
8.83445e-07
9.88333e-07
9.07434e-07
3.81839e-07
0
0
0
0
0
0
3.09001e-07
2.33797e-05
1.47507e-05
5.74535e-06
1.76572e-06
6.95927e-07
3.75116e-07
8.81925e-08
0
1.0961e-07
1.57554e-07
7.33403e-08
1.45121e-08
0
0
0
2.34548e-09
0
0
0
0
0
3.06401e-09
9.02719e-09
1.08974e-08
9.80665e-09
7.68111e-09
5.63173e-09
4.01622e-09
2.86228e-09
2.09162e-09
1.59482e-09
1.26425e-09
1.03881e-09
8.82904e-10
7.61476e-10
6.58045e-10
5.6564e-10
4.82554e-10
4.08485e-10
3.43179e-10
2.86098e-10
2.36401e-10
1.93073e-10
1.5516e-10
1.22542e-10
9.4938e-11
7.21232e-11
5.37185e-11
3.9192e-11
2.79631e-11
1.94366e-11
1.30979e-11
8.4787e-12
5.17657e-12
2.84848e-12
1.22589e-12
9.52404e-14
0
0
0
0
0
0
0
0
0
0
0
0
0
0
0
0
0
0
0
0
0
0
0
0
0
0
0
0
0
0
0
0
0
0
0
0
0
0
0
0
0
0
0
0
0
0
0
0
0
0
0
0
0
0
0
0
0
0
0
0
0
0
0
0
0
0
0
0
0
0
0
0
0
0
0
0
0
0
0
0
0
0
0
0
0
0
0
0
0
0
0
0
0
0
0
0
0
4.9841e-06
1.25006e-06
2.64752e-07
7.4603e-08
6.63359e-08
8.28448e-08
1.05065e-07
1.38393e-07
1.80272e-07
2.51376e-07
3.43264e-07
4.53008e-07
5.64896e-07
6.48827e-07
7.55329e-07
8.27968e-07
9.06116e-07
9.92708e-07
8.78431e-07
4.45756e-07
0
0
0
0
0
1.63972e-06
4.61723e-06
3.65788e-06
1.61126e-06
5.14542e-07
2.91258e-07
1.97773e-07
1.20691e-07
2.56206e-07
3.62052e-07
1.6994e-07
5.72349e-08
1.12202e-08
0
0
0
3.46769e-09
2.88706e-09
0
0
0
0
1.47124e-09
5.81367e-09
8.12813e-09
7.70798e-09
6.1277e-09
4.47926e-09
3.15388e-09
2.19012e-09
1.52855e-09
1.09583e-09
8.21288e-10
6.43359e-10
5.24886e-10
4.39714e-10
3.71053e-10
3.11921e-10
2.59718e-10
2.13789e-10
1.73957e-10
1.39924e-10
1.11116e-10
8.68265e-11
6.62772e-11
4.88032e-11
3.42366e-11
2.26201e-11
1.3739e-11
7.21245e-12
2.6323e-12
0
0
0
0
0
0
0
0
0
0
0
0
0
0
0
0
0
0
0
0
0
0
0
0
0
0
0
0
0
0
0
0
0
0
0
0
0
0
0
0
0
0
0
0
0
0
0
0
0
0
0
0
0
0
0
0
0
0
0
0
0
0
0
0
0
0
0
0
0
0
0
0
0
0
0
0
0
0
0
0
0
0
0
0
0
0
0
0
0
0
0
0
0
0
0
0
0
0
0
0
0
0
0
0
1.24146e-05
2.51947e-06
3.97773e-07
1.00277e-07
7.05817e-08
5.43719e-08
6.13099e-08
7.70139e-08
1.02007e-07
1.49159e-07
2.02603e-07
2.73566e-07
3.79297e-07
4.46636e-07
5.25819e-07
5.81662e-07
6.04338e-07
6.50928e-07
6.23483e-07
4.97531e-07
2.63688e-07
0
0
0
0
2.5223e-07
7.84799e-07
7.00848e-07
3.03415e-07
1.83371e-07
1.84212e-07
1.63431e-07
3.09552e-07
7.69043e-07
3.54323e-07
1.25235e-07
4.82641e-08
1.9231e-08
8.88792e-09
7.95446e-09
1.01216e-08
1.18869e-08
1.13836e-08
7.98474e-09
4.357e-09
3.9286e-09
5.38273e-09
6.62729e-09
8.32145e-09
9.45257e-09
8.2725e-09
6.2819e-09
4.42278e-09
3.00796e-09
2.0148e-09
1.34588e-09
9.11998e-10
6.40228e-10
4.72109e-10
3.64199e-10
2.91405e-10
2.37616e-10
1.93751e-10
1.55854e-10
1.22695e-10
9.4122e-11
7.01191e-11
5.04054e-11
3.44668e-11
2.1684e-11
1.1482e-11
3.41253e-12
0
0
0
0
0
0
0
0
0
0
0
0
0
0
0
0
0
0
0
0
0
0
0
0
0
0
0
0
0
0
0
0
0
0
0
0
0
0
0
0
0
0
0
0
0
0
0
0
0
0
0
0
0
0
0
0
0
0
0
0
0
0
0
0
0
0
0
0
0
0
0
0
0
0
0
0
0
0
0
0
0
0
0
0
0
0
0
0
0
0
0
0
0
0
0
0
0
0
0
0
0
0
0
0
0
0
0
0
1.16953e-05
3.52431e-06
6.93621e-07
2.09435e-07
1.02933e-07
2.10908e-08
1.86108e-08
2.88227e-08
3.95013e-08
5.94881e-08
8.20863e-08
1.16948e-07
1.65726e-07
2.02003e-07
2.53638e-07
2.89971e-07
2.88961e-07
2.9883e-07
2.79022e-07
2.38877e-07
1.54415e-07
1.64911e-08
0
0
0
0
1.85725e-07
2.30018e-07
2.14257e-07
2.3221e-07
2.08659e-07
3.04253e-07
1.38829e-06
8.96321e-07
2.40562e-07
9.66539e-08
5.1189e-08
3.38769e-08
2.76633e-08
2.63804e-08
2.57045e-08
2.43676e-08
2.2372e-08
1.91676e-08
1.57914e-08
1.46455e-08
1.53069e-08
1.52961e-08
1.49777e-08
1.43915e-08
1.1568e-08
8.22522e-09
5.55955e-09
3.67927e-09
2.4088e-09
1.55903e-09
1.00442e-09
6.5886e-10
4.52498e-10
3.29878e-10
2.53559e-10
2.00666e-10
1.60101e-10
1.26317e-10
9.69777e-11
7.14976e-11
4.99407e-11
3.23142e-11
1.83274e-11
7.4759e-12
0
0
0
0
0
0
0
0
0
0
0
0
0
0
0
0
0
0
0
0
0
0
0
0
0
0
0
0
0
0
0
0
0
0
0
0
0
0
0
0
0
0
0
0
0
0
0
0
0
0
0
0
0
0
0
0
0
0
0
0
0
0
0
0
0
0
0
0
0
0
0
0
0
0
0
0
0
0
0
0
0
0
0
0
0
0
0
0
0
0
0
0
0
0
0
0
0
0
0
0
0
0
0
0
0
0
0
0
0
0
4.21977e-06
3.82051e-06
9.55809e-07
3.57763e-07
8.06814e-08
0
0
0
0
0
0
5.13249e-09
1.52085e-08
2.42539e-08
3.23846e-08
3.49816e-08
2.64113e-08
1.57382e-08
0
0
0
0
0
0
0
0
1.24198e-07
2.02034e-07
2.21953e-07
1.68324e-07
1.76729e-07
1.29768e-06
1.83422e-06
4.04266e-07
1.46722e-07
8.15863e-08
5.9464e-08
5.14864e-08
4.8857e-08
4.67797e-08
4.31585e-08
3.8861e-08
3.48523e-08
3.09673e-08
2.74406e-08
2.56418e-08
2.58529e-08
2.54829e-08
2.40754e-08
2.20807e-08
1.76368e-08
1.20716e-08
7.9205e-09
5.12751e-09
3.32069e-09
2.14408e-09
1.3687e-09
8.69258e-10
5.64584e-10
3.87561e-10
2.84785e-10
2.21301e-10
1.7693e-10
1.42058e-10
1.123e-10
8.60437e-11
6.31236e-11
4.38121e-11
2.81517e-11
1.58308e-11
6.33414e-12
0
0
0
0
0
0
0
0
0
0
0
0
0
0
0
0
0
0
0
0
0
0
0
0
0
0
0
0
0
0
0
0
0
0
0
0
0
0
0
0
0
0
0
0
0
0
0
0
0
0
0
0
0
0
0
0
0
0
0
0
0
0
0
0
0
0
0
0
0
0
0
0
0
0
0
0
0
0
0
0
0
0
0
0
0
0
0
0
0
0
0
0
0
0
0
0
0
0
0
0
0
0
0
0
0
0
0
0
0
0
1.10858e-06
3.57401e-07
1.65208e-07
0
0
0
0
0
0
0
0
0
0
0
0
0
0
0
0
0
0
0
0
0
2.10943e-08
1.40239e-07
1.66294e-07
8.24318e-08
5.17312e-08
8.27012e-07
1.40055e-06
6.5155e-07
2.16008e-07
1.16821e-07
8.35887e-08
7.38588e-08
7.18343e-08
7.01832e-08
6.61973e-08
5.91442e-08
5.19285e-08
4.61339e-08
4.17333e-08
3.82518e-08
3.59817e-08
3.60096e-08
3.58627e-08
3.41071e-08
3.12257e-08
2.55902e-08
1.75965e-08
1.1513e-08
7.38363e-09
4.71448e-09
3.01966e-09
1.93483e-09
1.23419e-09
7.91427e-10
5.25045e-10
3.70781e-10
2.80977e-10
2.24099e-10
1.83204e-10
1.50345e-10
1.21877e-10
9.64308e-11
7.3982e-11
5.49677e-11
3.95272e-11
2.73133e-11
1.77246e-11
1.02079e-11
4.33371e-12
0
0
0
0
0
0
0
0
0
0
0
0
0
0
0
0
0
0
0
0
0
0
0
0
0
0
0
0
0
0
0
0
0
0
0
0
0
0
0
0
0
0
0
0
0
0
0
0
0
0
0
0
0
0
0
0
0
0
0
0
0
0
0
0
0
0
0
0
0
0
0
0
0
0
0
0
0
0
0
0
0
0
0
0
0
0
0
0
0
0
0
0
0
0
0
0
0
0
0
0
0
0
0
0
0
0
0
0
0
0
0
0
0
0
0
0
0
0
0
0
0
0
0
0
0
0
0
0
0
0
0
4.35406e-09
2.35734e-08
0
5.02657e-08
5.15713e-07
7.08475e-07
6.62616e-07
2.57281e-07
1.40368e-07
1.00765e-07
8.94156e-08
8.94423e-08
8.96601e-08
8.62534e-08
7.85932e-08
7.11858e-08
6.37612e-08
5.68295e-08
5.15586e-08
4.78193e-08
4.51746e-08
4.51125e-08
4.56338e-08
4.41745e-08
4.10051e-08
3.46305e-08
2.4292e-08
1.60207e-08
1.03412e-08
6.58757e-09
4.17278e-09
2.65194e-09
1.69604e-09
1.09369e-09
7.20833e-10
4.98301e-10
3.6876e-10
2.90639e-10
2.38236e-10
1.98776e-10
1.66577e-10
1.3878e-10
1.13896e-10
9.16129e-11
7.23622e-11
5.65237e-11
4.3934e-11
3.39643e-11
2.59168e-11
1.93042e-11
1.38673e-11
9.43298e-12
5.83757e-12
2.95528e-12