/*--------------------------------*- C++ -*----------------------------------*\
  =========                 |
  \\      /  F ield         | OpenFOAM: The Open Source CFD Toolbox
   \\    /   O peration     | Website:  https://openfoam.org
    \\  /    A nd           | Version:  7
     \\/     M anipulation  |
\*---------------------------------------------------------------------------*/
FoamFile
{
    version     2.0;
    format      ascii;
    class       volScalarField;
    location    "0.012";
    object      p;
}
// * * * * * * * * * * * * * * * * * * * * * * * * * * * * * * * * * * * * * //

dimensions      [0 2 -2 0 0 0 0];

internalField   nonuniform List<scalar> 
12225
(
131.482
132.106
131.857
131.147
130.3
129.395
128.458
127.514
126.575
125.639
124.707
123.785
122.881
121.998
121.119
120.228
119.271
118.178
131.483
132.123
131.862
131.156
130.302
129.395
128.461
127.518
126.581
125.646
124.714
123.792
122.888
122.005
121.129
120.241
119.297
118.245
131.374
132.171
131.866
131.163
130.306
129.4
128.471
127.533
126.597
125.665
124.736
123.818
122.918
122.038
121.164
120.278
119.357
118.376
132.545
132.29
131.901
131.195
130.33
129.42
128.492
127.554
126.619
125.688
124.763
123.85
122.953
122.073
121.203
120.327
119.426
118.517
132.948
132.43
131.941
131.217
130.352
129.443
128.515
127.58
126.646
125.718
124.796
123.886
122.993
122.118
121.257
120.397
119.532
118.677
133.628
132.598
132.016
131.27
130.399
129.482
128.55
127.612
126.679
125.752
124.834
123.929
123.043
122.177
121.327
120.483
119.645
118.836
133.16
132.741
132.08
131.313
130.445
129.528
128.592
127.654
126.72
125.795
124.88
123.98
123.098
122.234
121.397
120.578
119.767
118.994
133.739
132.918
132.187
131.39
130.515
129.591
128.648
127.705
126.77
125.846
124.935
124.041
123.167
122.315
121.489
120.694
119.899
119.152
135.363
133.144
132.285
131.472
130.593
129.665
128.715
127.766
126.829
125.905
124.997
124.107
123.237
122.389
121.573
120.773
120.028
119.306
134.538
133.147
132.383
131.577
130.692
129.756
128.798
127.843
126.901
125.976
125.071
124.187
123.328
122.496
121.687
120.908
120.172
119.471
133.612
133.068
132.507
131.715
130.816
129.864
128.894
127.93
126.982
126.056
125.152
124.272
123.418
122.59
121.801
121.042
120.318
119.631
131.643
132.991
132.639
131.868
130.954
129.984
129
128.025
127.069
126.14
125.238
124.364
123.522
122.714
121.925
121.175
120.462
119.785
131.36
133.216
132.874
132.07
131.115
130.116
129.114
128.128
127.166
126.233
125.332
124.461
123.622
122.818
122.045
121.307
120.605
119.938
135.141
133.923
133.253
132.358
131.346
130.301
129.268
128.26
127.284
126.345
125.444
124.579
123.75
122.955
122.194
121.467
120.776
120.12
134.847
134.73
133.849
132.769
131.648
130.534
129.457
128.425
127.437
126.491
125.587
124.724
123.9
123.114
122.365
121.652
120.974
120.331
136.223
135.914
134.676
133.327
132.051
130.838
129.694
128.621
127.61
126.656
125.752
124.895
124.081
123.307
122.571
121.871
121.207
120.577
142.501
138.369
135.873
134.03
132.502
131.161
129.952
128.843
127.816
126.855
125.95
125.095
124.287
123.522
122.798
122.112
121.462
120.847
142.833
139.411
136.676
134.572
132.871
131.435
130.169
129.031
127.995
127.035
126.138
125.296
124.503
123.755
123.048
122.379
121.747
121.148
145.016
139.699
136.641
134.497
132.831
131.452
130.229
129.126
128.121
127.188
126.314
125.493
124.721
123.995
123.308
122.659
122.045
121.465
135.817
135.973
134.923
133.65
132.39
131.201
130.099
129.083
128.139
127.25
126.409
125.618
124.871
124.166
123.5
122.869
122.273
121.708
134.153
134.423
133.795
132.883
131.878
130.867
129.89
128.958
128.072
127.233
126.432
125.671
124.95
124.266
123.616
123
122.416
121.862
133.069
133.604
133.193
132.438
131.573
130.673
129.778
128.904
128.058
127.238
126.458
125.717
125.012
124.341
123.704
123.099
122.525
121.98
136.839
133.969
132.944
132.136
131.298
130.449
129.609
128.782
127.978
127.204
126.453
125.732
125.045
124.389
123.763
123.167
122.601
122.063
132.635
133.058
132.606
131.934
131.177
130.386
129.585
128.779
127.983
127.206
126.464
125.756
125.078
124.431
123.812
123.223
122.662
122.129
131.014
132.784
132.427
131.754
131.019
130.259
129.486
128.71
127.94
127.188
126.461
125.764
125.096
124.456
123.845
123.262
122.707
122.178
133.91
133.048
132.415
131.713
131.002
130.261
129.488
128.709
127.938
127.191
126.472
125.781
125.118
124.483
123.876
123.296
122.744
122.217
133.632
133.074
132.329
131.622
130.94
130.214
129.451
128.68
127.921
127.185
126.473
125.788
125.13
124.499
123.897
123.321
122.772
122.247
135.223
133.536
132.394
131.638
130.954
130.219
129.449
128.678
127.924
127.191
126.483
125.801
125.146
124.518
123.918
123.344
122.795
122.271
135.179
133.366
132.329
131.629
130.947
130.207
129.436
128.669
127.92
127.192
126.487
125.808
125.156
124.532
123.935
123.364
122.815
122.29
135.305
133.424
132.33
131.65
130.955
130.206
129.436
128.671
127.924
127.198
126.495
125.817
125.165
124.541
123.945
123.375
122.828
122.305
107.904
107.897
107.882
107.861
107.832
107.796
107.754
107.704
107.649
107.588
107.522
107.451
107.378
107.302
107.226
107.15
107.076
107.007
106.944
106.888
106.842
106.807
106.784
106.775
106.781
106.803
106.84
106.893
106.96
107.038
107.128
107.225
107.327
107.432
107.536
107.636
107.731
107.816
107.891
107.953
108
108.03
108.044
108.04
108.017
107.977
107.918
107.84
107.746
107.634
107.505
107.361
107.201
107.027
106.84
106.64
106.427
106.204
105.969
105.725
105.472
105.209
104.938
104.66
104.374
104.081
103.782
103.477
103.166
102.849
102.527
102.2
101.868
101.532
101.191
100.846
100.496
100.143
99.7855
99.4242
99.0592
98.6905
98.3181
97.9422
97.5627
97.1798
96.7933
96.4035
96.0102
95.6135
95.2134
94.81
94.4032
93.993
93.5795
93.1625
92.7422
92.3185
91.8914
91.4609
91.0269
90.5895
90.1486
89.7043
89.2564
88.805
88.3501
87.8915
87.4293
86.9635
86.4941
86.021
85.5441
85.0636
84.5793
84.0912
83.5993
83.1036
82.6041
82.1006
81.5933
81.082
80.5667
80.0474
79.5241
78.9967
78.4652
77.9295
77.3897
76.8457
76.2974
75.7449
75.1881
74.6269
74.0614
73.4915
72.9172
72.3384
71.7552
71.1674
70.5751
69.9782
69.3767
68.7705
68.1597
67.544
66.9237
66.2985
65.6685
65.0335
64.3937
63.7489
63.0991
62.4443
61.7844
61.1194
60.4493
59.7741
59.0936
58.4079
57.717
57.0209
56.3195
55.6129
54.9011
54.1841
53.462
52.7349
52.0029
51.2663
50.5254
49.7807
49.0326
48.2826
47.5311
46.7822
46.0365
45.3058
44.5926
43.934
107.912
107.905
107.889
107.866
107.836
107.798
107.752
107.7
107.642
107.577
107.508
107.434
107.357
107.277
107.197
107.118
107.04
106.968
106.901
106.842
106.794
106.757
106.734
106.725
106.732
106.756
106.795
106.85
106.919
107.001
107.093
107.194
107.3
107.408
107.515
107.619
107.717
107.805
107.882
107.946
107.995
108.027
108.042
108.039
108.017
107.977
107.918
107.841
107.747
107.635
107.506
107.362
107.202
107.028
106.841
106.64
106.428
106.204
105.97
105.725
105.472
105.209
104.938
104.66
104.374
104.081
103.782
103.477
103.165
102.849
102.527
102.2
101.868
101.531
101.19
100.845
100.496
100.142
99.7849
99.4237
99.0587
98.6899
98.3176
97.9417
97.5622
97.1793
96.7928
96.403
96.0097
95.6131
95.213
94.8096
94.4028
93.9926
93.5791
93.1622
92.7419
92.3182
91.8911
91.4606
91.0266
90.5892
90.1483
89.704
89.2561
88.8047
88.3497
87.8912
87.429
86.9633
86.4938
86.0207
85.5439
85.0633
84.5791
84.091
83.5991
83.1034
82.6039
82.1005
81.5931
81.0818
80.5666
80.0473
79.524
78.9966
78.4651
77.9294
77.3896
76.8455
76.2973
75.7447
75.1879
74.6268
74.0613
73.4914
72.9171
72.3383
71.7551
71.1673
70.575
69.9781
69.3766
68.7704
68.1596
67.544
66.9236
66.2984
65.6684
65.0335
64.3936
63.7488
63.099
62.4442
61.7843
61.1193
60.4492
59.7739
59.0935
58.4078
57.7169
57.0207
56.3193
55.6127
54.9009
54.1838
53.4617
52.7345
52.0025
51.2658
50.5247
49.7798
49.0314
48.2808
47.5289
46.7781
46.0313
45.2927
44.5693
43.8573
107.902
107.894
107.878
107.854
107.822
107.782
107.734
107.68
107.618
107.549
107.475
107.397
107.314
107.229
107.143
107.058
106.974
106.896
106.823
106.759
106.706
106.665
106.639
106.628
106.634
106.658
106.699
106.758
106.832
106.919
107.018
107.126
107.239
107.355
107.47
107.581
107.685
107.779
107.861
107.93
107.982
108.018
108.036
108.034
108.014
107.975
107.917
107.841
107.746
107.635
107.506
107.362
107.202
107.028
106.841
106.64
106.428
106.204
105.969
105.725
105.471
105.208
104.937
104.659
104.373
104.08
103.781
103.475
103.164
102.848
102.526
102.199
101.867
101.53
101.189
100.844
100.495
100.141
99.784
99.4228
99.0578
98.6891
98.3168
97.9409
97.5615
97.1786
96.7922
96.4024
96.0091
95.6125
95.2125
94.8091
94.4023
93.9922
93.5786
93.1618
92.7415
92.3178
91.8907
91.4602
91.0263
90.5889
90.148
89.7037
89.2558
88.8045
88.3495
87.891
87.4288
86.9631
86.4936
86.0205
85.5437
85.0632
84.5789
84.0909
83.599
83.1033
82.6038
82.1004
81.593
81.0817
80.5665
80.0472
79.5239
78.9965
78.465
77.9293
77.3895
76.8455
76.2972
75.7447
75.1879
74.6267
74.0612
73.4913
72.917
72.3383
71.755
71.1673
70.575
69.9781
69.3766
68.7704
68.1595
67.5439
66.9235
66.2984
65.6683
65.0334
64.3936
63.7488
63.099
62.4442
61.7843
61.1193
60.4492
59.7739
59.0934
58.4077
57.7168
57.0206
56.3192
55.6125
54.9006
54.1835
53.4613
52.734
52.0018
51.2649
50.5236
49.7783
49.0295
48.278
47.5251
46.772
46.0217
45.2748
44.5372
43.7961
107.885
107.877
107.859
107.834
107.799
107.757
107.705
107.646
107.579
107.505
107.424
107.338
107.247
107.153
107.057
106.962
106.868
106.779
106.697
106.624
106.562
106.515
106.483
106.469
106.474
106.5
106.545
106.609
106.691
106.789
106.898
107.018
107.143
107.27
107.397
107.519
107.633
107.736
107.827
107.902
107.961
108.002
108.023
108.025
108.008
107.971
107.914
107.839
107.746
107.634
107.506
107.362
107.202
107.028
106.84
106.64
106.427
106.203
105.968
105.724
105.47
105.207
104.936
104.658
104.372
104.079
103.78
103.474
103.163
102.846
102.524
102.197
101.866
101.529
101.188
100.843
100.494
100.14
99.7831
99.4219
99.0569
98.6883
98.316
97.9402
97.5608
97.1779
96.7915
96.4017
96.0085
95.6119
95.2119
94.8086
94.4018
93.9917
93.5782
93.1613
92.7411
92.3174
91.8903
91.4598
91.0259
90.5886
90.1477
89.7034
89.2555
88.8041
88.3492
87.8907
87.4285
86.9628
86.4934
86.0203
85.5435
85.063
84.5787
84.0906
83.5988
83.1031
82.6036
82.1002
81.5928
81.0816
80.5663
80.047
79.5237
78.9963
78.4648
77.9292
77.3893
76.8453
76.297
75.7445
75.1877
74.6266
74.0611
73.4912
72.9169
72.3381
71.7549
71.1672
70.5749
69.978
69.3765
68.7703
68.1594
67.5438
66.9235
66.2983
65.6683
65.0333
64.3935
63.7487
63.0989
62.4441
61.7842
61.1192
60.4491
59.7738
59.0933
58.4076
57.7166
57.0204
56.3189
55.6122
54.9002
54.1831
53.4607
52.7333
52.0009
51.2638
50.5221
49.7763
49.0268
48.2742
47.5198
46.764
46.0093
45.2548
44.5037
43.7409
107.863
107.854
107.836
107.808
107.77
107.723
107.666
107.601
107.526
107.443
107.353
107.255
107.152
107.045
106.935
106.825
106.716
106.611
106.514
106.426
106.352
106.294
106.254
106.235
106.238
106.265
106.316
106.389
106.483
106.595
106.721
106.857
107
107.146
107.289
107.428
107.557
107.674
107.776
107.861
107.929
107.977
108.004
108.011
107.997
107.963
107.909
107.835
107.743
107.633
107.505
107.361
107.201
107.027
106.839
106.639
106.426
106.202
105.967
105.722
105.468
105.206
104.935
104.656
104.37
104.077
103.778
103.473
103.161
102.845
102.523
102.196
101.864
101.528
101.187
100.842
100.493
100.139
99.782
99.4209
99.056
98.6874
98.3151
97.9393
97.56
97.1771
96.7908
96.401
96.0079
95.6113
95.2113
94.808
94.4013
93.9912
93.5777
93.1609
92.7406
92.317
91.8899
91.4594
91.0255
90.5882
90.1473
89.703
89.2552
88.8038
88.3489
87.8904
87.4282
86.9625
86.4931
86.02
85.5432
85.0627
84.5785
84.0904
83.5986
83.1029
82.6034
82.1
81.5927
81.0814
80.5661
80.0469
79.5236
78.9962
78.4646
77.929
77.3892
76.8451
76.2969
75.7444
75.1876
74.6264
74.0609
73.4911
72.9168
72.338
71.7548
71.167
70.5748
69.9779
69.3764
68.7702
68.1594
67.5438
66.9234
66.2982
65.6682
65.0333
64.3934
63.7486
63.0988
62.444
61.7841
61.1191
60.4489
59.7736
59.0931
58.4074
57.7164
57.0202
56.3186
55.6118
54.8998
54.1825
53.46
52.7324
51.9998
51.2623
50.5202
49.7738
49.0235
48.2696
47.5133
46.7546
45.9953
45.2333
44.4701
43.6912
107.839
107.829
107.809
107.777
107.735
107.682
107.618
107.544
107.459
107.364
107.259
107.146
107.026
106.9
106.769
106.637
106.506
106.378
106.258
106.149
106.055
105.98
105.927
105.899
105.898
105.928
105.987
106.074
106.185
106.318
106.468
106.63
106.799
106.97
107.138
107.299
107.45
107.585
107.704
107.804
107.883
107.941
107.977
107.99
107.982
107.952
107.9
107.829
107.738
107.629
107.502
107.359
107.199
107.025
106.838
106.637
106.424
106.2
105.965
105.721
105.466
105.204
104.933
104.654
104.368
104.075
103.776
103.471
103.16
102.843
102.521
102.194
101.863
101.526
101.186
100.841
100.491
100.138
99.7808
99.4198
99.0549
98.6864
98.3142
97.9384
97.5591
97.1763
96.79
96.4003
96.0072
95.6107
95.2107
94.8074
94.4007
93.9906
93.5772
93.1604
92.7401
92.3165
91.8895
91.459
91.0251
90.5878
90.147
89.7026
89.2548
88.8034
88.3485
87.89
87.4279
86.9621
86.4927
86.0197
85.5429
85.0624
84.5782
84.0902
83.5983
83.1027
82.6032
82.0998
81.5924
81.0812
80.5659
80.0467
79.5233
78.9959
78.4644
77.9288
77.389
76.8449
76.2967
75.7442
75.1874
74.6263
74.0608
73.4909
72.9166
72.3379
71.7546
71.1669
70.5746
69.9778
69.3763
68.7701
68.1593
67.5437
66.9233
66.2981
65.6681
65.0332
64.3933
63.7485
63.0987
62.4439
61.784
61.119
60.4488
59.7735
59.0929
58.4072
57.7162
57.0199
56.3183
55.6114
54.8993
54.1818
53.4592
52.7314
51.9985
51.2606
50.518
49.7708
49.0195
48.2643
47.5059
46.7442
45.98
45.2114
44.4376
43.6472
107.817
107.806
107.782
107.746
107.698
107.637
107.563
107.477
107.378
107.266
107.143
107.009
106.864
106.711
106.552
106.388
106.223
106.062
105.908
105.766
105.642
105.54
105.466
105.424
105.415
105.449
105.521
105.627
105.764
105.928
106.113
106.311
106.518
106.726
106.93
107.123
107.303
107.465
107.606
107.725
107.821
107.892
107.939
107.961
107.959
107.934
107.887
107.819
107.73
107.623
107.497
107.354
107.196
107.022
106.835
106.634
106.421
106.197
105.963
105.718
105.464
105.201
104.93
104.651
104.366
104.073
103.774
103.468
103.157
102.841
102.519
102.192
101.861
101.525
101.184
100.839
100.49
100.137
99.7795
99.4185
99.0538
98.6853
98.3132
97.9375
97.5582
97.1755
96.7892
96.3996
96.0065
95.61
95.2101
94.8068
94.4001
93.9901
93.5767
93.1598
92.7396
92.316
91.889
91.4586
91.0247
90.5874
90.1465
89.7022
89.2544
88.8031
88.3481
87.8896
87.4275
86.9618
86.4924
86.0193
85.5426
85.0621
84.5779
84.0899
83.598
83.1024
82.6029
82.0995
81.5922
81.0809
80.5657
80.0464
79.5231
78.9957
78.4642
77.9286
77.3887
76.8447
76.2965
75.744
75.1872
74.6261
74.0606
73.4907
72.9164
72.3377
71.7545
71.1668
70.5745
69.9776
69.3761
68.77
68.1591
67.5436
66.9232
66.298
65.668
65.0331
64.3932
63.7484
63.0986
62.4438
61.7838
61.1188
60.4486
59.7733
59.0927
58.4069
57.7159
57.0195
56.3179
55.6109
54.8986
54.1811
53.4582
52.7301
51.9969
51.2586
50.5155
49.7675
49.0151
48.2584
47.4978
46.733
45.9643
45.1895
44.4069
43.6077
107.802
107.789
107.761
107.719
107.663
107.592
107.505
107.404
107.286
107.153
107.004
106.841
106.663
106.473
106.272
106.062
105.849
105.636
105.43
105.238
105.066
104.924
104.817
104.75
104.722
104.768
104.858
104.993
105.168
105.378
105.615
105.868
106.13
106.391
106.645
106.885
107.105
107.303
107.475
107.62
107.737
107.826
107.887
107.92
107.927
107.91
107.868
107.804
107.718
107.613
107.489
107.348
107.19
107.017
106.83
106.63
106.417
106.193
105.959
105.714
105.46
105.198
104.927
104.648
104.363
104.07
103.771
103.466
103.155
102.839
102.517
102.19
101.859
101.523
101.182
100.837
100.488
100.135
99.7782
99.4173
99.0526
98.6842
98.3121
97.9365
97.5573
97.1746
96.7884
96.3988
96.0057
95.6093
95.2094
94.8062
94.3995
93.9895
93.5761
93.1593
92.7391
92.3155
91.8885
91.4581
91.0242
90.5869
90.1461
89.7018
89.254
88.8026
88.3477
87.8892
87.4271
86.9614
86.492
86.019
85.5422
85.0618
84.5775
84.0895
83.5977
83.1021
82.6026
82.0992
81.5919
81.0807
80.5654
80.0461
79.5228
78.9954
78.4639
77.9283
77.3885
76.8445
76.2962
75.7437
75.1869
74.6258
74.0604
73.4905
72.9162
72.3375
71.7543
71.1666
70.5743
69.9775
69.376
68.7699
68.159
67.5434
66.9231
66.2979
65.6679
65.033
64.3931
63.7483
63.0985
62.4436
61.7837
61.1186
60.4485
59.7731
59.0925
58.4067
57.7156
57.0191
56.3174
55.6104
54.898
54.1802
53.4572
52.7288
51.9952
51.2565
50.5127
49.7639
49.0103
48.252
47.4892
46.7214
45.9484
45.1682
44.3783
43.5721
107.803
107.788
107.755
107.706
107.64
107.556
107.454
107.332
107.191
107.029
106.847
106.644
106.421
106.179
105.919
105.644
105.358
105.068
104.781
104.508
104.26
104.051
103.893
103.8
103.784
103.804
103.908
104.083
104.318
104.599
104.914
105.25
105.593
105.933
106.259
106.564
106.842
107.089
107.303
107.483
107.628
107.74
107.818
107.866
107.885
107.876
107.842
107.783
107.701
107.599
107.478
107.338
107.182
107.01
106.823
106.624
106.412
106.188
105.954
105.71
105.456
105.194
104.923
104.645
104.359
104.067
103.768
103.463
103.152
102.836
102.515
102.188
101.857
101.521
101.18
100.836
100.487
100.134
99.7767
99.4159
99.0513
98.683
98.311
97.9354
97.5563
97.1737
96.7875
96.398
96.005
95.6085
95.2087
94.8055
94.3989
93.9889
93.5755
93.1587
92.7386
92.315
91.888
91.4576
91.0238
90.5864
90.1456
89.7013
89.2535
88.8022
88.3473
87.8888
87.4267
86.961
86.4916
86.0186
85.5418
85.0614
84.5772
84.0892
83.5974
83.1018
82.6023
82.0989
81.5916
81.0803
80.5651
80.0458
79.5225
78.9951
78.4636
77.928
77.3882
76.8442
76.296
75.7435
75.1867
74.6256
74.0601
73.4903
72.916
72.3373
71.7541
71.1664
70.5742
69.9773
69.3758
68.7697
68.1589
67.5433
66.9229
66.2978
65.6677
65.0328
64.393
63.7482
63.0983
62.4435
61.7835
61.1185
60.4483
59.7729
59.0922
58.4064
57.7152
57.0187
56.3169
55.6097
54.8972
54.1793
53.456
52.7274
51.9934
51.2541
50.5096
49.76
49.0052
48.2453
47.4803
46.7096
45.9327
45.1476
44.3517
43.5398
107.833
107.815
107.777
107.718
107.64
107.54
107.417
107.271
107.1
106.903
106.678
106.424
106.14
105.826
105.483
105.113
104.719
104.308
103.892
103.485
103.108
102.78
102.525
102.361
102.302
102.351
102.506
102.756
103.087
103.48
103.918
104.38
104.848
105.306
105.739
106.138
106.496
106.811
107.081
107.307
107.489
107.63
107.732
107.798
107.831
107.833
107.807
107.755
107.679
107.581
107.462
107.325
107.17
107
106.815
106.616
106.405
106.182
105.948
105.704
105.451
105.189
104.918
104.64
104.355
104.063
103.764
103.46
103.149
102.833
102.512
102.186
101.854
101.519
101.178
100.834
100.485
100.132
99.7752
99.4145
99.05
98.6817
98.3098
97.9343
97.5553
97.1727
96.7866
96.3971
96.0042
95.6078
95.208
94.8048
94.3982
93.9883
93.5749
93.1582
92.738
92.3145
91.8875
91.4571
91.0233
90.5859
90.1452
89.7009
89.2531
88.8017
88.3468
87.8883
87.4262
86.9605
86.4912
86.0181
85.5414
85.061
84.5768
84.0888
83.597
83.1014
82.6019
82.0985
81.5913
81.08
80.5648
80.0455
79.5222
78.9948
78.4633
77.9277
77.3879
76.8439
76.2957
75.7432
75.1864
74.6253
74.0598
73.49
72.9158
72.3371
71.7539
71.1662
70.574
69.9771
69.3757
68.7696
68.1587
67.5431
66.9228
66.2976
65.6676
65.0327
64.3928
63.748
63.0982
62.4433
61.7834
61.1183
60.4481
59.7726
59.092
58.4061
57.7148
57.0183
56.3164
55.6091
54.8964
54.1783
53.4548
52.7258
51.9914
51.2516
50.5065
49.7559
48.9999
48.2384
47.4713
46.6978
45.9173
45.1279
44.3271
43.5105
107.911
107.888
107.842
107.774
107.681
107.562
107.416
107.241
107.035
106.793
106.514
106.194
105.83
105.419
104.96
104.45
103.893
103.295
102.671
102.047
101.454
100.933
100.52
100.25
100.141
100.21
100.44
100.817
101.312
101.889
102.518
103.172
103.828
104.461
105.051
105.585
106.055
106.461
106.805
107.089
107.317
107.494
107.625
107.714
107.764
107.78
107.765
107.721
107.651
107.557
107.443
107.308
107.156
106.987
106.804
106.606
106.396
106.174
105.941
105.697
105.445
105.183
104.913
104.635
104.351
104.059
103.76
103.456
103.146
102.83
102.509
102.183
101.852
101.516
101.176
100.832
100.483
100.13
99.7736
99.413
99.0486
98.6805
98.3087
97.9332
97.5543
97.1717
96.7857
96.3963
96.0034
95.607
95.2073
94.8041
94.3976
93.9876
93.5743
93.1576
92.7375
92.3139
91.887
91.4566
91.0227
90.5854
90.1446
89.7004
89.2526
88.8012
88.3463
87.8878
87.4258
86.9601
86.4907
86.0177
85.541
85.0605
84.5763
84.0884
83.5966
83.101
82.6015
82.0982
81.5909
81.0796
80.5644
80.0451
79.5218
78.9945
78.463
77.9273
77.3875
76.8436
76.2953
75.7428
75.1861
74.625
74.0595
73.4897
72.9155
72.3368
71.7537
71.166
70.5738
69.9769
69.3755
68.7694
68.1586
67.543
66.9226
66.2975
65.6674
65.0325
64.3927
63.7479
63.098
62.4431
61.7832
61.1181
60.4478
59.7724
59.0917
58.4057
57.7144
57.0178
56.3158
55.6084
54.8956
54.1773
53.4535
52.7242
51.9894
51.2491
50.5032
49.7517
48.9945
48.2315
47.4623
46.6863
45.9025
45.1094
44.3043
43.4839
108.056
108.029
107.974
107.893
107.783
107.643
107.47
107.261
107.012
106.718
106.375
105.976
105.515
104.979
104.361
103.653
102.853
101.973
101.033
100.075
99.155
98.3391
97.6924
97.2668
97.0932
97.2294
97.6288
98.2443
99.0077
99.8512
100.731
101.624
102.512
103.373
104.177
104.897
105.521
106.046
106.481
106.834
107.115
107.334
107.499
107.614
107.685
107.717
107.714
107.679
107.617
107.529
107.419
107.288
107.139
106.972
106.79
106.595
106.385
106.164
105.932
105.69
105.438
105.177
104.907
104.63
104.345
104.054
103.756
103.452
103.142
102.827
102.506
102.18
101.849
101.514
101.174
100.83
100.481
100.129
99.772
99.4115
99.0472
98.6792
98.3075
97.9321
97.5532
97.1708
96.7848
96.3954
96.0025
95.6062
95.2065
94.8034
94.3969
93.987
93.5737
93.157
92.7369
92.3133
91.8864
91.456
91.0222
90.5849
90.1441
89.6998
89.252
88.8007
88.3458
87.8873
87.4253
86.9595
86.4902
86.0172
85.5405
85.06
84.5759
84.0879
83.5962
83.1006
82.6011
82.0978
81.5905
81.0792
80.564
80.0447
79.5214
78.9941
78.4626
77.927
77.3872
76.8432
76.295
75.7425
75.1857
74.6247
74.0592
73.4894
72.9152
72.3366
71.7534
71.1658
70.5736
69.9767
69.3753
68.7692
68.1584
67.5428
66.9225
66.2973
65.6673
65.0324
64.3925
63.7477
63.0978
62.443
61.783
61.1179
60.4476
59.7721
59.0914
58.4054
57.714
57.0173
56.3152
55.6077
54.8947
54.1762
53.4522
52.7225
51.9873
51.2464
50.4998
49.7474
48.9891
48.2245
47.4534
46.675
45.8884
45.0919
44.2834
43.4597
108.296
108.263
108.197
108.103
107.975
107.811
107.609
107.363
107.069
106.719
106.306
105.817
105.233
104.534
103.702
102.725
101.603
100.349
98.992
97.5853
96.207
94.9642
93.9798
93.3649
93.1915
93.4361
94.0894
95.0633
96.2373
97.4848
98.7076
99.8717
100.992
102.086
103.132
104.083
104.904
105.581
106.126
106.557
106.897
107.161
107.361
107.503
107.596
107.645
107.655
107.631
107.577
107.496
107.391
107.264
107.118
106.955
106.775
106.581
106.373
106.154
105.923
105.681
105.43
105.169
104.901
104.624
104.34
104.049
103.752
103.448
103.138
102.823
102.503
102.177
101.847
101.511
101.172
100.828
100.479
100.127
99.7703
99.41
99.0458
98.6779
98.3062
97.931
97.5521
97.1698
96.7839
96.3945
96.0017
95.6055
95.2058
94.8027
94.3962
93.9863
93.573
93.1564
92.7363
92.3128
91.8858
91.4555
91.0216
90.5843
90.1436
89.6993
89.2515
88.8002
88.3453
87.8868
87.4247
86.959
86.4896
86.0167
85.54
85.0595
84.5754
84.0874
83.5957
83.1001
82.6007
82.0973
81.59
81.0788
80.5636
80.0443
79.521
78.9937
78.4622
77.9266
77.3868
76.8428
76.2946
75.7421
75.1854
74.6243
74.0589
73.4891
72.9149
72.3363
71.7532
71.1655
70.5733
69.9765
69.3751
68.769
68.1582
67.5426
66.9223
66.2971
65.6671
65.0322
64.3923
63.7475
63.0977
62.4428
61.7828
61.1176
60.4473
59.7718
59.0911
58.405
57.7136
57.0168
56.3146
55.607
54.8938
54.1751
53.4508
52.7209
51.9852
51.2438
50.4965
49.7432
48.9837
48.2177
47.4448
46.6642
45.875
45.0757
44.2641
43.4378
108.658
108.616
108.538
108.429
108.282
108.095
107.864
107.582
107.242
106.835
106.347
105.756
105.032
104.145
103.072
101.796
100.309
98.6141
96.7313
94.7147
92.6691
90.7642
89.22
88.2395
87.954
88.3094
89.3085
90.8329
92.6896
94.6521
96.4979
98.1031
99.4928
100.778
102.026
103.207
104.243
105.094
105.766
106.287
106.687
106.992
107.222
107.389
107.502
107.568
107.592
107.579
107.534
107.46
107.36
107.238
107.096
106.935
106.758
106.566
106.36
106.142
105.912
105.671
105.421
105.162
104.894
104.618
104.334
104.044
103.747
103.444
103.134
102.82
102.499
102.174
101.844
101.509
101.169
100.825
100.477
100.125
99.7687
99.4085
99.0444
98.6766
98.305
97.9299
97.5511
97.1688
96.783
96.3936
96.0009
95.6047
95.205
94.802
94.3955
93.9857
93.5724
93.1557
92.7357
92.3122
91.8852
91.4549
91.0211
90.5838
90.143
89.6987
89.2509
88.7996
88.3447
87.8863
87.4242
86.9585
86.489
86.0161
85.5394
85.059
84.5749
84.0869
83.5952
83.0996
82.6002
82.0968
81.5895
81.0783
80.5631
80.0439
79.5206
78.9932
78.4617
77.9261
77.3864
76.8424
76.2942
75.7418
75.185
74.624
74.0586
73.4888
72.9146
72.336
71.7529
71.1653
70.5731
69.9763
69.3749
68.7688
68.158
67.5425
66.9221
66.297
65.6669
65.032
64.3922
63.7473
63.0975
62.4426
61.7825
61.1174
60.4471
59.7715
59.0907
58.4046
57.7132
57.0163
56.314
55.6063
54.8929
54.174
53.4494
52.7192
51.9831
51.2411
50.4931
49.739
48.9784
48.211
47.4365
46.6539
45.8624
45.0605
44.2464
43.4179
109.163
109.11
109.018
108.892
108.725
108.517
108.261
107.949
107.57
107.112
106.558
105.875
105.025
103.969
102.67
101.095
99.2128
96.997
94.445
91.6201
88.6744
85.8623
83.5199
81.9488
81.3354
81.7681
83.2099
85.486
88.2891
91.3052
94.1475
96.4898
98.2543
99.6904
101.076
102.422
103.632
104.645
105.442
106.05
106.507
106.848
107.101
107.285
107.413
107.492
107.528
107.525
107.488
107.421
107.327
107.21
107.071
106.914
106.739
106.55
106.346
106.129
105.901
105.661
105.412
105.154
104.886
104.611
104.328
104.038
103.742
103.439
103.13
102.816
102.496
102.171
101.841
101.506
101.167
100.823
100.475
100.123
99.7671
99.407
99.043
98.6753
98.3039
97.9288
97.5501
97.1678
96.782
96.3928
96.0001
95.6039
95.2043
94.8013
94.3948
93.985
93.5718
93.1551
92.735
92.3115
91.8846
91.4543
91.0205
90.5832
90.1424
89.6981
89.2504
88.799
88.3441
87.8857
87.4236
86.9579
86.4887
86.0156
85.5389
85.0585
84.5743
84.0864
83.5947
83.0991
82.5996
82.0963
81.589
81.0778
80.5626
80.0434
79.5201
78.9927
78.4613
77.9257
77.3859
76.842
76.2938
75.7414
75.1846
74.6236
74.0582
73.4885
72.9143
72.3357
71.7527
71.165
70.5729
69.9761
69.3747
68.7686
68.1578
67.5423
66.9219
66.2968
65.6667
65.0318
64.392
63.7471
63.0973
62.4423
61.7823
61.1172
60.4468
59.7713
59.0904
58.4043
57.7127
57.0158
56.3134
55.6055
54.892
54.1729
53.4481
52.7175
51.981
51.2385
50.4899
49.7349
48.9732
48.2046
47.4285
46.6442
45.8506
45.0466
44.2303
43.3998
109.839
109.772
109.661
109.514
109.329
109.103
108.827
108.494
108.09
107.601
107
106.252
105.31
104.125
102.648
100.824
98.5958
95.9218
92.7709
89.2567
85.5808
82.0631
79.0877
77.0412
76.1889
76.7302
78.5749
81.5118
85.0083
88.7516
92.4065
95.3944
97.5034
99.0598
100.476
101.879
103.191
104.31
105.197
105.872
106.375
106.744
107.011
107.203
107.337
107.424
107.467
107.472
107.443
107.382
107.294
107.181
107.046
106.892
106.72
106.533
106.331
106.116
105.889
105.651
105.403
105.145
104.879
104.604
104.322
104.033
103.737
103.435
103.126
102.812
102.493
102.168
101.838
101.504
101.165
100.821
100.473
100.122
99.7655
99.4055
99.0417
98.674
98.3027
97.9277
97.5491
97.1669
96.7811
96.3919
95.9993
95.6031
95.2035
94.8006
94.3941
93.9843
93.5711
93.1545
92.7344
92.3109
91.884
91.4537
91.0199
90.5826
90.1418
89.6975
89.2498
88.7984
88.3435
87.8851
87.423
86.9573
86.488
86.015
85.5383
85.0579
84.5737
84.0858
83.5941
83.0985
82.5991
82.0958
81.5885
81.0773
80.5621
80.0428
79.5196
78.9922
78.4608
77.9252
77.3855
76.8415
76.2934
75.741
75.1843
74.6233
74.0579
73.4882
72.9141
72.3355
71.7524
71.1648
70.5726
69.9759
69.3745
68.7684
68.1576
67.5421
66.9217
66.2966
65.6666
65.0316
64.3918
63.7469
63.0971
62.4422
61.7821
61.1169
60.4466
59.771
59.0901
58.4039
57.7123
57.0153
56.3129
55.6048
54.8912
54.1719
53.4468
52.7159
51.979
51.236
50.4867
49.7309
48.9684
48.1986
47.4211
46.6351
45.8397
45.0337
44.2156
43.3836
110.653
110.572
110.433
110.264
110.063
109.824
109.539
109.198
108.789
108.295
107.688
106.929
105.969
104.755
103.233
101.342
99.0223
96.2286
92.9574
89.3143
85.5317
81.9452
78.9335
76.8582
75.9976
76.5138
78.3612
81.2873
84.8157
88.5411
92.1963
95.2977
97.487
98.9928
100.332
101.703
103.029
104.175
105.089
105.789
106.312
106.693
106.964
107.155
107.288
107.373
107.419
107.428
107.403
107.347
107.263
107.154
107.023
106.871
106.702
106.517
106.317
106.103
105.878
105.641
105.394
105.137
104.871
104.598
104.316
104.028
103.732
103.43
103.122
102.809
102.489
102.165
101.836
101.501
101.163
100.819
100.472
100.12
99.764
99.4041
99.0404
98.6729
98.3016
97.9266
97.5481
97.1659
96.7803
96.3911
95.9984
95.6023
95.2028
94.7998
94.3934
93.9836
93.5704
93.1538
92.7337
92.3103
91.8834
91.453
91.0192
90.5819
90.1412
89.6969
89.2491
88.7978
88.3429
87.8844
87.4223
86.9567
86.4873
86.0143
85.5376
85.0572
84.5731
84.0852
83.5934
83.0979
82.5984
82.0951
81.5879
81.0767
80.5615
80.0422
79.519
78.9917
78.4602
77.9247
77.3849
76.841
76.2929
75.7405
75.1838
74.6228
74.0575
73.4878
72.9137
72.3351
71.7521
71.1645
70.5723
69.9756
69.3742
68.7681
68.1573
67.5418
66.9215
66.2963
65.6663
65.0314
64.3915
63.7467
63.0968
62.4419
61.7818
61.1166
60.4463
59.7706
59.0897
58.4035
57.7119
57.0148
56.3122
55.6041
54.8903
54.1708
53.4455
52.7142
51.977
51.2335
50.4836
49.7271
48.9636
48.1928
47.414
46.6266
45.8296
45.0219
44.2022
43.3688
111.465
111.374
111.208
111.021
110.811
110.569
110.287
109.953
109.556
109.079
108.498
107.775
106.865
105.719
104.288
102.523
100.371
97.7955
94.806
91.5042
88.1006
84.8888
82.201
80.3216
79.4664
79.7854
81.3162
83.8349
86.9192
90.1618
93.3106
96.0115
97.948
99.2935
100.523
101.833
103.119
104.23
105.113
105.794
106.311
106.689
106.957
107.141
107.265
107.345
107.388
107.396
107.373
107.32
107.239
107.132
107.003
106.854
106.687
106.503
106.305
106.092
105.868
105.632
105.386
105.13
104.865
104.592
104.311
104.023
103.728
103.427
103.119
102.806
102.487
102.163
101.833
101.499
101.161
100.818
100.47
100.118
99.7627
99.4029
99.0393
98.6718
98.3006
97.9257
97.5472
97.1651
96.7795
96.3904
95.9977
95.6017
95.2021
94.7992
94.3928
93.983
93.5698
93.1532
92.7331
92.3097
91.8827
91.4524
91.0186
90.5813
90.1405
89.6963
89.2485
88.7971
88.3422
87.8838
87.4217
86.956
86.4867
86.0137
85.537
85.0566
84.5725
84.0845