/*--------------------------------*- C++ -*----------------------------------*\
  =========                 |
  \\      /  F ield         | OpenFOAM: The Open Source CFD Toolbox
   \\    /   O peration     | Website:  https://openfoam.org
    \\  /    A nd           | Version:  7
     \\/     M anipulation  |
\*---------------------------------------------------------------------------*/
FoamFile
{
    version     2.0;
    format      ascii;
    class       volVectorField;
    location    "0.012";
    object      U;
}
// * * * * * * * * * * * * * * * * * * * * * * * * * * * * * * * * * * * * * //

dimensions      [0 1 -1 0 0 0 0];

internalField   nonuniform List<vector> 
12225
(
(4.85296 0.197649 0)
(4.17238 0.133867 0)
(3.69402 0.107175 0)
(3.34604 0.0856669 0)
(3.00844 0.0709302 0)
(2.67424 0.0573466 0)
(2.37982 0.0441505 0)
(2.13747 0.0339854 0)
(1.94061 0.0274915 0)
(1.77827 0.0225048 0)
(1.64835 0.016912 0)
(1.5504 0.0108453 0)
(1.47916 0.00365685 0)
(1.44909 -0.00140328 0)
(1.41705 -0.00691921 0)
(1.44694 -0.00772305 0)
(1.40906 -0.00883853 0)
(1.48226 -0.00918724 0)
(4.9867 0.119315 0)
(4.89915 0.0701321 0)
(4.75998 0.0772321 0)
(4.65964 0.0803628 0)
(4.56033 0.091144 0)
(4.44406 0.0974559 0)
(4.32496 0.0935514 0)
(4.21183 0.0832004 0)
(4.10546 0.0718089 0)
(4.00847 0.0618595 0)
(3.92735 0.0518941 0)
(3.86614 0.0419876 0)
(3.82249 0.0299607 0)
(3.7972 0.0195942 0)
(3.77619 0.0106757 0)
(3.76825 0.00460815 0)
(3.74825 0.00567399 0)
(3.7437 0.000934613 0)
(5.00293 0.195605 0)
(4.81888 0.154147 0)
(4.72931 0.147992 0)
(4.7086 0.133319 0)
(4.72026 0.125799 0)
(4.7343 0.11913 0)
(4.73592 0.109572 0)
(4.71933 0.0993558 0)
(4.68827 0.0902678 0)
(4.65372 0.080821 0)
(4.6262 0.0680676 0)
(4.60816 0.0519296 0)
(4.59785 0.0339494 0)
(4.59058 0.0182371 0)
(4.58739 0.00740455 0)
(4.58599 0.00216992 0)
(4.59041 0.00325932 0)
(4.59362 0.00186736 0)
(4.92243 0.213197 0)
(4.8372 0.119301 0)
(4.74453 0.102853 0)
(4.72945 0.0973079 0)
(4.75273 0.0972479 0)
(4.77223 0.0991402 0)
(4.77425 0.0988748 0)
(4.76297 0.0955694 0)
(4.75019 0.0892591 0)
(4.7456 0.0792298 0)
(4.75123 0.0652408 0)
(4.76158 0.0491623 0)
(4.77046 0.0332006 0)
(4.77338 0.0194491 0)
(4.77202 0.00949061 0)
(4.76783 0.00149148 0)
(4.76587 -0.00208446 0)
(4.76538 -0.0050832 0)
(4.95157 0.266158 0)
(4.83174 0.189371 0)
(4.76482 0.147113 0)
(4.75326 0.119836 0)
(4.76174 0.108688 0)
(4.77051 0.108366 0)
(4.77266 0.110309 0)
(4.76759 0.107397 0)
(4.7604 0.0967283 0)
(4.75804 0.0800188 0)
(4.76438 0.061107 0)
(4.77822 0.0436996 0)
(4.7955 0.0295029 0)
(4.81124 0.018756 0)
(4.82157 0.0113548 0)
(4.82504 0.00590795 0)
(4.82155 0.00388434 0)
(4.8119 0.00286247 0)
(4.99246 0.252509 0)
(4.89855 0.167573 0)
(4.8283 0.125244 0)
(4.77863 0.112267 0)
(4.74933 0.106463 0)
(4.74177 0.101963 0)
(4.75165 0.0993892 0)
(4.76893 0.09624 0)
(4.7845 0.0886806 0)
(4.79479 0.0754744 0)
(4.80156 0.0579438 0)
(4.80813 0.0390216 0)
(4.81651 0.021963 0)
(4.82542 0.00934491 0)
(4.83239 0.00266987 0)
(4.83439 0.000665963 0)
(4.83109 0.00237106 0)
(4.82135 0.00555082 0)
(4.94337 0.30022 0)
(4.8424 0.21188 0)
(4.82265 0.153679 0)
(4.84997 0.12889 0)
(4.86445 0.115863 0)
(4.84956 0.108038 0)
(4.82649 0.103352 0)
(4.8131 0.0980197 0)
(4.81208 0.0887052 0)
(4.81916 0.0740877 0)
(4.83046 0.0552295 0)
(4.84356 0.0356014 0)
(4.85675 0.01906 0)
(4.86758 0.00819324 0)
(4.87437 0.0044471 0)
(4.87583 0.00606004 0)
(4.87384 0.0109914 0)
(4.86696 0.0157619 0)
(4.94765 0.317673 0)
(4.934 0.211351 0)
(4.93303 0.128512 0)
(4.92952 0.106549 0)
(4.91451 0.114906 0)
(4.89756 0.120814 0)
(4.88624 0.114767 0)
(4.87891 0.100946 0)
(4.87189 0.0846576 0)
(4.86435 0.067298 0)
(4.8584 0.0484941 0)
(4.85562 0.0296009 0)
(4.85696 0.0136031 0)
(4.86114 0.00351635 0)
(4.86838 -0.000223827 0)
(4.87457 0.00198606 0)
(4.8808 0.0080369 0)
(4.88256 0.0146616 0)
(4.91497 0.304265 0)
(4.94075 0.194083 0)
(4.92811 0.13612 0)
(4.89654 0.124434 0)
(4.88013 0.123532 0)
(4.88223 0.11838 0)
(4.88962 0.110276 0)
(4.89234 0.102386 0)
(4.88898 0.0930363 0)
(4.88151 0.0783362 0)
(4.87224 0.0574327 0)
(4.86289 0.0339996 0)
(4.85655 0.013431 0)
(4.85429 -0.000491451 0)
(4.85924 -0.00531269 0)
(4.87055 -0.00281349 0)
(4.88868 0.00400221 0)
(4.90866 0.0129164 0)
(4.88936 0.288742 0)
(4.99997 0.187754 0)
(4.9973 0.145308 0)
(4.9567 0.127682 0)
(4.92821 0.122458 0)
(4.92204 0.121418 0)
(4.92965 0.115859 0)
(4.93963 0.105235 0)
(4.94274 0.0924076 0)
(4.9339 0.078092 0)
(4.91447 0.0614392 0)
(4.89088 0.0422716 0)
(4.87088 0.0224344 0)
(4.86128 0.00465504 0)
(4.86418 -0.00870485 0)
(4.87695 -0.0158576 0)
(4.89707 -0.0170368 0)
(4.91996 -0.0132972 0)
(4.89003 0.19925 0)
(4.92101 0.153659 0)
(4.92209 0.156076 0)
(4.9085 0.153181 0)
(4.88639 0.136434 0)
(4.8821 0.115129 0)
(4.90017 0.098617 0)
(4.92631 0.0923604 0)
(4.94512 0.0928949 0)
(4.95035 0.0908196 0)
(4.94585 0.0788272 0)
(4.93914 0.0563168 0)
(4.93643 0.0279702 0)
(4.93808 0.000972129 0)
(4.94328 -0.0181801 0)
(4.95155 -0.0278722 0)
(4.96017 -0.0285373 0)
(4.96724 -0.0227521 0)
(4.96156 0.225376 0)
(4.91965 0.143653 0)
(4.93461 0.137275 0)
(4.93381 0.140695 0)
(4.91402 0.135371 0)
(4.89575 0.118246 0)
(4.8904 0.0977951 0)
(4.89885 0.0849492 0)
(4.9151 0.0814468 0)
(4.93245 0.0795531 0)
(4.9484 0.0706188 0)
(4.96205 0.0520588 0)
(4.97284 0.0272157 0)
(4.98073 0.00254492 0)
(4.98403 -0.0158752 0)
(4.98218 -0.0253813 0)
(4.97607 -0.0264677 0)
(4.97034 -0.0217186 0)
(5.02884 0.301703 0)
(4.98059 0.182235 0)
(4.91836 0.160043 0)
(4.87815 0.160309 0)
(4.8741 0.147733 0)
(4.89765 0.121278 0)
(4.92566 0.0950965 0)
(4.94199 0.0807485 0)
(4.94498 0.0767059 0)
(4.94268 0.0726421 0)
(4.94396 0.0600353 0)
(4.95132 0.0379773 0)
(4.96133 0.0122634 0)
(4.96666 -0.00868041 0)
(4.96508 -0.0216974 0)
(4.95757 -0.0249505 0)
(4.94837 -0.0217071 0)
(4.94065 -0.0161532 0)
(4.91722 0.228494 0)
(4.95585 0.166168 0)
(4.9708 0.173789 0)
(4.98303 0.165181 0)
(5.00341 0.128853 0)
(5.01721 0.0910748 0)
(5.01164 0.0714681 0)
(4.99149 0.0713984 0)
(4.9696 0.0782713 0)
(4.95703 0.0780474 0)
(4.95716 0.0652209 0)
(4.96502 0.0437902 0)
(4.97354 0.0215186 0)
(4.97814 0.00442592 0)
(4.97942 -0.00481404 0)
(4.97788 -0.00804094 0)
(4.98019 -0.0100457 0)
(4.98584 -0.013222 0)
(5.12431 0.268428 0)
(5.04163 0.18371 0)
(5.00475 0.140697 0)
(4.99352 0.126098 0)
(4.99534 0.119636 0)
(4.99291 0.116879 0)
(4.98071 0.119612 0)
(4.96683 0.121056 0)
(4.95889 0.111087 0)
(4.95928 0.0865699 0)
(4.96668 0.0530714 0)
(4.97822 0.0201299 0)
(4.99086 -0.00475964 0)
(5.00343 -0.0193993 0)
(5.01675 -0.0265551 0)
(5.0311 -0.0307311 0)
(5.04715 -0.0355479 0)
(5.06298 -0.0432489 0)
(5.06599 0.225227 0)
(5.05745 0.224269 0)
(5.03654 0.218722 0)
(5.01166 0.182886 0)
(4.99535 0.139742 0)
(4.98598 0.103449 0)
(4.98374 0.0830592 0)
(4.99292 0.0766686 0)
(5.01192 0.0732847 0)
(5.03316 0.063751 0)
(5.04868 0.045765 0)
(5.05374 0.0224285 0)
(5.04992 -0.000876225 0)
(5.04189 -0.0199739 0)
(5.0347 -0.0332914 0)
(5.03099 -0.0415945 0)
(5.03159 -0.0467325 0)
(5.03644 -0.0496645 0)
(5.07112 0.17784 0)
(5.02029 0.232045 0)
(4.9993 0.19468 0)
(5.00683 0.144997 0)
(5.01887 0.13128 0)
(5.01504 0.131092 0)
(4.99918 0.123701 0)
(4.98356 0.103648 0)
(4.9744 0.0759384 0)
(4.97081 0.049327 0)
(4.96895 0.0298136 0)
(4.96583 0.0178996 0)
(4.96162 0.0101181 0)
(4.95825 0.00196318 0)
(4.95914 -0.0103486 0)
(4.96552 -0.0263583 0)
(4.97791 -0.0458531 0)
(4.99402 -0.0644015 0)
(5.00262 0.256306 0)
(5.01837 0.312578 0)
(5.00909 0.242675 0)
(4.9866 0.167065 0)
(4.96591 0.132505 0)
(4.96548 0.121583 0)
(4.98173 0.113634 0)
(4.99795 0.100737 0)
(5.00801 0.0850547 0)
(5.0144 0.0699231 0)
(5.0197 0.0545951 0)
(5.02512 0.035652 0)
(5.03172 0.010762 0)
(5.04005 -0.0193149 0)
(5.04989 -0.0507669 0)
(5.05987 -0.0797057 0)
(5.07021 -0.103665 0)
(5.07891 -0.120798 0)
(4.90788 0.28178 0)
(4.97296 0.213025 0)
(5.01577 0.20992 0)
(5.05517 0.192242 0)
(5.05955 0.147245 0)
(5.04946 0.10494 0)
(5.0426 0.0792224 0)
(5.04124 0.0631561 0)
(5.04748 0.0464779 0)
(5.06239 0.0264078 0)
(5.08269 0.00645165 0)
(5.10284 -0.0100014 0)
(5.11869 -0.0226343 0)
(5.12877 -0.0343386 0)
(5.13345 -0.048176 0)
(5.13355 -0.0648892 0)
(5.13025 -0.0834927 0)
(5.12438 -0.100654 0)
(5.00654 0.28945 0)
(4.99933 0.161977 0)
(4.99079 0.139868 0)
(5.00402 0.140763 0)
(5.02293 0.149399 0)
(5.04219 0.152351 0)
(5.06172 0.132828 0)
(5.08005 0.0918718 0)
(5.0948 0.044016 0)
(5.10332 0.00376101 0)
(5.10425 -0.02218 0)
(5.09972 -0.0357577 0)
(5.09435 -0.0435583 0)
(5.09134 -0.0510514 0)
(5.09136 -0.0600728 0)
(5.09247 -0.0701528 0)
(5.09327 -0.0795394 0)
(5.09145 -0.0873702 0)
(5.00225 0.31095 0)
(5.0185 0.221634 0)
(5.02364 0.170691 0)
(5.02192 0.120573 0)
(5.03294 0.0845502 0)
(5.05476 0.0595954 0)
(5.08259 0.0364039 0)
(5.11073 0.0171738 0)
(5.13478 0.00704849 0)
(5.15403 0.0052185 0)
(5.16935 0.00439091 0)
(5.17976 -0.00201904 0)
(5.18478 -0.0159022 0)
(5.18458 -0.0350596 0)
(5.18036 -0.0549286 0)
(5.17307 -0.0719086 0)
(5.16502 -0.0839364 0)
(5.15775 -0.0912294 0)
(5.06035 0.197694 0)
(5.06092 0.160983 0)
(5.10224 0.156288 0)
(5.13212 0.143959 0)
(5.14372 0.126954 0)
(5.14299 0.10361 0)
(5.13695 0.0695106 0)
(5.13026 0.0289214 0)
(5.12888 -0.00865449 0)
(5.13495 -0.0354375 0)
(5.14546 -0.0481643 0)
(5.15698 -0.0495715 0)
(5.16699 -0.0451031 0)
(5.17368 -0.040169 0)
(5.17694 -0.0389206 0)
(5.17746 -0.0428303 0)
(5.17699 -0.0519708 0)
(5.17639 -0.0646648 0)
(5.02111 0.287821 0)
(4.94312 0.201769 0)
(4.98725 0.115827 0)
(5.07197 0.0797417 0)
(5.14845 0.0679844 0)
(5.19994 0.0582146 0)
(5.23186 0.0406823 0)
(5.24905 0.0164918 0)
(5.25297 -0.00578765 0)
(5.24885 -0.0214545 0)
(5.24256 -0.0309579 0)
(5.23659 -0.0371459 0)
(5.23263 -0.0432068 0)
(5.23142 -0.0509906 0)
(5.23225 -0.0605747 0)
(5.23293 -0.071115 0)
(5.23276 -0.0815332 0)
(5.23014 -0.0913519 0)
(4.92951 0.280218 0)
(5.08118 0.158572 0)
(5.14632 0.0534439 0)
(5.16559 0.0326402 0)
(5.17302 0.043857 0)
(5.17991 0.047745 0)
(5.18768 0.0366524 0)
(5.19667 0.0166042 0)
(5.2063 -0.00411839 0)
(5.21416 -0.0192886 0)
(5.22036 -0.0286229 0)
(5.22704 -0.0338446 0)
(5.23575 -0.0365801 0)
(5.24632 -0.0383801 0)
(5.25824 -0.0405805 0)
(5.26985 -0.0441977 0)
(5.28082 -0.0495888 0)
(5.28968 -0.0573369 0)
(5.09742 0.190696 0)
(5.15803 0.0926578 0)
(5.19025 0.0576272 0)
(5.19565 0.0517982 0)
(5.20779 0.0458774 0)
(5.23453 0.0318702 0)
(5.26724 0.0125719 0)
(5.29502 -0.0064515 0)
(5.31212 -0.0226466 0)
(5.31881 -0.035645 0)
(5.31862 -0.0458448 0)
(5.3167 -0.0550041 0)
(5.31751 -0.0644893 0)
(5.3223 -0.0745051 0)
(5.33016 -0.08452 0)
(5.33841 -0.0937977 0)
(5.34542 -0.101804 0)
(5.349 -0.108543 0)
(5.06841 0.230457 0)
(5.07378 0.102439 0)
(5.13164 0.0559433 0)
(5.18504 0.0484648 0)
(5.22681 0.0377939 0)
(5.26568 0.0188556 0)
(5.30157 2.5228e-06 0)
(5.32913 -0.0125005 0)
(5.34504 -0.0177393 0)
(5.35072 -0.0200878 0)
(5.35074 -0.0241711 0)
(5.34939 -0.0316257 0)
(5.34931 -0.0412449 0)
(5.35124 -0.050548 0)
(5.35548 -0.0575695 0)
(5.36128 -0.0619691 0)
(5.36865 -0.0643111 0)
(5.37607 -0.0662626 0)
(5.07802 0.171342 0)
(5.18119 0.0417478 0)
(5.24354 0.00750934 0)
(5.28637 0.00100758 0)
(5.32321 -0.00881245 0)
(5.35709 -0.0216745 0)
(5.38177 -0.031718 0)
(5.3963 -0.0368768 0)
(5.40518 -0.0390256 0)
(5.41348 -0.0414058 0)
(5.42303 -0.0466422 0)
(5.43265 -0.0554998 0)
(5.44079 -0.0670356 0)
(5.44667 -0.0796472 0)
(5.45132 -0.0918029 0)
(5.45556 -0.102455 0)
(5.46072 -0.111065 0)
(5.46586 -0.117368 0)
(4.96552 0.184487 0)
(5.09627 0.0787569 0)
(5.23581 0.0500435 0)
(5.32946 0.0212958 0)
(5.38889 -0.00105336 0)
(5.42772 -0.0131652 0)
(5.45166 -0.0177616 0)
(5.46663 -0.0201654 0)
(5.47926 -0.0233372 0)
(5.49366 -0.0279823 0)
(5.51016 -0.0340693 0)
(5.5266 -0.0413857 0)
(5.54008 -0.0494167 0)
(5.54823 -0.0577408 0)
(5.55005 -0.0655128 0)
(5.5464 -0.0720597 0)
(5.53895 -0.0764787 0)
(5.52987 -0.0785651 0)
(5.00834 0.0739301 0)
(5.2596 -0.0484992 0)
(5.36972 -0.0529914 0)
(5.40186 -0.0635101 0)
(5.41541 -0.061736 0)
(5.43017 -0.0548329 0)
(5.44571 -0.0510183 0)
(5.45731 -0.0510228 0)
(5.46333 -0.0536661 0)
(5.46415 -0.0585822 0)
(5.45906 -0.0652723 0)
(5.44676 -0.0724445 0)
(5.42644 -0.0786062 0)
(5.39949 -0.0833688 0)
(5.36823 -0.0875052 0)
(5.33628 -0.0919854 0)
(5.30427 -0.0973141 0)
(5.27426 -0.102966 0)
(4.92903 0.0652593 0)
(5.11381 0.0186764 0)
(5.10615 0.014402 0)
(4.96955 -0.00620767 0)
(4.81872 -0.0203366 0)
(4.68757 -0.0253543 0)
(4.57192 -0.0259438 0)
(4.46257 -0.0254791 0)
(4.35514 -0.0254113 0)
(4.24659 -0.02593 0)
(4.134 -0.0266033 0)
(4.01672 -0.0273109 0)
(3.89569 -0.0286728 0)
(3.77197 -0.0315001 0)
(3.64434 -0.0354894 0)
(3.51334 -0.0395129 0)
(3.37763 -0.0417833 0)
(3.24261 -0.0412414 0)
(-0.0232782 0.0508155 1.55749e-20)
(-0.081253 0.0576037 -1.54612e-20)
(-0.141198 0.0581337 0)
(-0.201691 0.0590866 0)
(-0.262947 0.0601133 0)
(-0.325141 0.0611831 1.4991e-20)
(-0.388045 0.0622031 0)
(-0.451642 0.0630468 0)
(-0.515647 0.0636145 0)
(-0.579838 0.0638123 0)
(-0.643862 0.0635576 -1.44044e-20)
(-0.70736 0.0627864 0)
(-0.769894 0.0614805 0)
(-0.830942 0.0596314 0)
(-0.889913 0.057211 0)
(-0.946199 0.0542033 -1.3831e-20)
(-0.999169 0.0505873 0)
(-1.04816 0.0463694 0)
(-1.09252 0.0415619 0)
(-1.13159 0.03619 0)
(-1.16471 0.0303021 0)
(-1.19123 0.0239584 0)
(-1.21061 0.0172521 0)
(-1.22232 0.0102922 -1.29996e-20)
(-1.22586 0.00320805 1.29072e-20)
(-1.22108 -0.00385467 -1.28174e-20)
(-1.20787 -0.0108389 -1.27305e-20)
(-1.18617 -0.0176816 0)
(-1.15603 -0.0242989 0)
(-1.11765 -0.0306277 1.24851e-20)
(-1.07136 -0.036576 1.24077e-20)
(-1.01754 -0.0420362 0)
(-0.956671 -0.0469947 0)
(-0.889393 -0.0513853 1.21839e-20)
(-0.81634 -0.0551548 0)
(-0.738191 -0.0583163 0)
(-0.655694 -0.0608287 -1.19653e-20)
(-0.569582 -0.0627456 0)
(-0.480585 -0.06406 -1.1818e-20)
(-0.389398 -0.0648207 -2.34863e-20)
(-0.296672 -0.0650659 0)
(-0.203072 -0.0648418 0)
(-0.109248 -0.0642088 0)
(-0.0157415 -0.0632032 0)
(0.0770066 -0.0618749 0)
(0.168592 -0.0602733 -2.25191e-20)
(0.258624 -0.0584489 -2.23428e-20)
(0.346771 -0.0564455 -2.21645e-20)
(0.43276 -0.0543031 0)
(0.516365 -0.0520587 2.18022e-20)
(0.597407 -0.0497454 0)
(0.675746 -0.0473923 -2.14337e-20)
(0.751281 -0.045025 -2.12476e-20)
(0.82394 -0.0426655 0)
(0.893684 -0.0403325 0)
(0.960495 -0.0380414 0)
(1.02438 -0.0358052 -2.04956e-20)
(1.08536 -0.0336341 0)
(1.14348 -0.0315362 0)
(1.19878 -0.0295177 0)
(1.25134 -0.0275829 0)
(1.30122 -0.0257348 0)
(1.3485 -0.0239751 0)
(1.39327 -0.0223043 0)
(1.43561 -0.0207222 0)
(1.47562 -0.0192275 1.88008e-20)
(1.51338 -0.0178185 0)
(1.54899 -0.016493 0)
(1.58255 -0.0152484 -1.82459e-20)
(1.61414 -0.0140816 -1.80626e-20)
(1.64385 -0.0129898 0)
(1.67179 -0.0119696 1.7699e-20)
(1.69802 -0.0110179 -1.75186e-20)
(1.72265 -0.0101314 0)
(1.74574 -0.00930667 1.71611e-20)
(1.76739 -0.00854039 0)
(1.78767 -0.00782927 0)
(1.80666 -0.00717004 -1.66329e-20)
(1.82442 -0.00655955 0)
(1.84102 -0.00599471 1.62863e-20)
(1.85653 -0.00547255 0)
(1.87102 -0.00499024 -1.59443e-20)
(1.88454 -0.00454506 -1.5775e-20)
(1.89714 -0.00413439 -1.56068e-20)
(1.90889 -0.0037558 -3.08795e-20)
(1.91984 -0.00340697 3.05478e-20)
(1.93002 -0.00308568 0)
(1.93949 -0.00278987 0)
(1.94829 -0.00251772 0)
(1.95646 -0.00226725 2.92435e-20)
(1.96405 -0.00203684 2.8923e-20)
(1.97107 -0.00182516 -2.86048e-20)
(1.97758 -0.0016303 0)
(1.9836 -0.00145096 2.7975e-20)
(1.98916 -0.00128676 2.76635e-20)
(1.99429 -0.00113537 2.73541e-20)
(1.99902 -0.000995289 0)
(2.00337 -0.000868095 0)
(2.00737 -0.000750548 0)
(2.01104 -0.000639611 2.6138e-20)
(2.01439 -0.000540542 0)
(2.01745 -0.000448098 0)
(2.02023 -0.000356313 -2.52482e-20)
(2.02275 -0.000276009 0)
(2.02504 -0.000195573 0)
(2.02707 -0.000100682 -2.43768e-20)
(2.02886 2.0359e-06 0)
(2.0304 0.000105039 0)
(2.03171 0.000201344 2.35234e-20)
(2.03281 0.000288953 2.32429e-20)
(2.03371 0.000368804 0)
(2.03441 0.000436618 -2.26876e-20)
(2.03495 0.000488822 0)
(2.03534 0.000524522 2.214e-20)
(2.0356 0.0005456 0)
(2.03576 0.000555927 2.15998e-20)
(2.03583 0.000559627 2.13325e-20)
(2.03582 0.000559924 0)
(2.03573 0.000558766 0)
(2.03556 0.000557122 0)
(2.03533 0.000555359 0)
(2.03504 0.000553599 0)
(2.03468 0.00055188 0)
(2.03427 0.00055024 0)
(2.0338 0.000548698 1.92581e-20)
(2.03328 0.000547281 -1.90066e-20)
(2.03271 0.000545985 0)
(2.0321 0.000544819 0)
(2.03144 0.000543772 0)
(2.03075 0.000542849 0)
(2.03001 0.000542041 -3.55476e-20)
(2.02923 0.000541355 0)
(2.02842 0.000540784 3.45838e-20)
(2.02758 0.000540323 -3.41067e-20)
(2.0267 0.00053995 0)
(2.0258 0.000539662 0)
(2.02486 0.00053945 0)
(2.0239 0.000539325 3.22289e-20)
(2.02291 0.000539288 3.1767e-20)
(2.02189 0.000539356 0)
(2.02084 0.000539526 3.0852e-20)
(2.01978 0.00053981 3.03989e-20)
(2.01868 0.000540205 -2.99487e-20)
(2.01757 0.000540723 0)
(2.01643 0.000541377 0)
(2.01526 0.000542193 -2.86148e-20)
(2.01408 0.000543193 0)
(2.01287 0.000544406 0)
(2.01164 0.000545866 0)
(2.01038 0.000547625 0)
(2.0091 0.000549745 2.64464e-20)
(2.00779 0.000552304 2.60206e-20)
(2.00646 0.000555388 0)
(2.0051 0.000559114 2.51769e-20)
(2.00371 0.000563624 0)
(2.00229 0.000569116 0)
(2.00083 0.00057582 2.393e-20)
(1.99932 0.000584075 0)
(1.99778 0.000594205 2.31111e-20)
(1.99617 0.000606857 0)
(1.99451 0.000622344 0)
(1.99276 0.000642226 2.19008e-20)
(1.99092 0.000666027 0)
(1.98898 0.000698359 2.11056e-20)
(1.98688 0.000734949 0)
(1.98464 0.000789059 0)
(1.98211 0.000847387 0)
(1.97943 0.000935076 -1.95436e-20)
(1.97614 0.00104445 0)
(1.97282 0.00116325 1.87769e-20)
(1.96815 0.00142053 0)
(1.96373 0.00151921 0)
(1.95666 0.0021826 0)
(1.94989 0.00210372 0)
(1.93881 0.0039047 0)
(1.92568 0.0030691 0)
(1.90867 0.0085922 0)
(1.8739 0.00504215 -3.16811e-20)
(1.85028 0.0259223 0)
(1.72757 0.0197866 0)
(-0.0264852 0.174269 -4.67175e-20)
(-0.0983265 0.198384 4.63739e-20)
(-0.168204 0.197627 0)
(-0.239179 0.198317 -3.04435e-20)
(-0.309668 0.198473 0)
(-0.379964 0.198399 -1.49864e-20)
(-0.44959 0.19791 2.97344e-20)
(-0.518479 0.196839 2.94982e-20)
(-0.58632 0.195023 0)
(-0.652955 0.192312 2.90272e-20)
(-0.718128 0.188573 1.43995e-20)
(-0.781553 0.183694 0)
(-0.842896 0.177587 0)
(-0.901845 0.17018 0)
(-0.958038 0.16139 0)
(-1.01106 0.151148 1.38272e-20)
(-1.06041 0.1394 0)
(-1.10553 0.126125 -2.72001e-20)
(-1.1459 0.111319 0)
(-1.18095 0.0950193 0)
(-1.21012 0.0773195 2.65667e-20)
(-1.23284 0.0583443 0)
(-1.24862 0.0382706 -2.61698e-20)
(-1.25701 0.0173363 1.2999e-20)
(-1.25756 -0.00418638 -1.29067e-20)
(-1.24971 -0.0260006 1.28168e-20)
(-1.23307 -0.0478135 1.27297e-20)
(-1.20755 -0.0693124 0)
(-1.17323 -0.090181 0)
(-1.1303 -0.110128 -1.2484e-20)
(-1.07905 -0.128879 1.23939e-20)
(-1.0199 -0.146187 0)
(-0.95346 -0.161853 0)
(-0.880342 -0.175725 -1.21827e-20)
(-0.801247 -0.187709 0)
(-0.71689 -0.197745 0)
(-0.628071 -0.205847 1.19642e-20)
(-0.535578 -0.212037 0)
(-0.440135 -0.216397 -1.18139e-20)
(-0.342486 -0.219027 2.34849e-20)
(-0.243277 -0.220057 0)
(-0.143199 -0.219635 0)
(-0.0428908 -0.217884 4.60429e-20)
(0.0571323 -0.215011 4.57135e-20)
(0.156422 -0.211135 4.53702e-20)
(0.254569 -0.206405 -2.25109e-20)
(0.351189 -0.200968 2.23349e-20)
(0.445963 -0.194958 6.64695e-20)
(0.538626 -0.188497 -4.39524e-20)
(0.628962 -0.181697 -2.1794e-20)
(0.716796 -0.174655 0)
(0.801993 -0.16746 2.14255e-20)
(0.884454 -0.160187 -2.12396e-20)
(0.96411 -0.152902 0)
(1.04092 -0.145661 0)
(1.11486 -0.138511 0)
(1.18593 -0.131491 2.04872e-20)
(1.25415 -0.124633 0)
(1.31956 -0.117962 -4.02177e-20)
(1.3822 -0.111499 0)
(1.44211 -0.105258 -3.94613e-20)
(1.49937 -0.0992494 0)
(1.55403 -0.0934814 3.87073e-20)
(1.60618 -0.0879578 0)
(1.65588 -0.0826801 -3.79573e-20)
(1.70321 -0.0776477 1.87919e-20)
(1.74826 -0.0728581 0)
(1.7911 -0.0683073 3.68424e-20)
(1.83182 -0.0639903 1.82372e-20)
(1.87049 -0.059901 1.80539e-20)
(1.9072 -0.0560327 0)
(1.94203 -0.0523781 1.769e-20)
(1.97504 -0.0489295 1.75099e-20)
(2.00633 -0.0456789 0)
(2.03596 -0.0426183 -1.71524e-20)
(2.064 -0.0397393 3.39502e-20)
(2.09053 -0.0370336 0)
(2.11562 -0.0344931 1.66243e-20)
(2.13933 -0.0321096 0)
(2.16172 -0.0298751 -4.8833e-20)
(2.18286 -0.0277817 0)
(2.20282 -0.0258219 4.78072e-20)
(2.22164 -0.0239882 1.57666e-20)
(2.23938 -0.0222737 -1.55982e-20)
(2.2561 -0.0206713 -3.08626e-20)
(2.27185 -0.0191745 3.0531e-20)
(2.28667 -0.0177771 0)
(2.30062 -0.016473 0)
(2.31374 -0.0152565 0)
(2.32607 -0.0141222 -8.76824e-20)
(2.33766 -0.0130648 -2.89073e-20)
(2.34854 -0.0120796 2.85892e-20)
(2.35876 -0.0111618 0)
(2.36834 -0.010307 2.79596e-20)
(2.37733 -0.00951145 -2.76484e-20)
(2.38576 -0.00877107 -2.73392e-20)
(2.39365 -0.00808164 0)
(2.40104 -0.00744081 0)
(2.40795 -0.00684491 0)
(2.41441 -0.0062896 -2.61239e-20)
(2.42046 -0.00577485 0)
(2.4261 -0.00529573 5.10578e-20)
(2.43137 -0.00484677 7.57038e-20)
(2.4363 -0.00443268 -4.98846e-20)
(2.44088 -0.00404403 0)
(2.44516 -0.00367091 -2.43637e-20)
(2.44919 -0.003322 0)
(2.45297 -0.00300193 -4.75866e-20)
(2.45651 -0.00270362 2.3511e-20)
(2.45983 -0.00242197 2.32306e-20)
(2.46296 -0.00215858 0)
(2.46589 -0.00191775 6.80274e-20)
(2.46865 -0.00170122 -4.48024e-20)
(2.47124 -0.00150936 -2.21285e-20)
(2.47367 -0.00134035 0)
(2.47594 -0.00119036 -2.15887e-20)
(2.47806 -0.00105523 -6.39646e-20)
(2.48004 -0.000931437 0)
(2.48188 -0.000816669 -4.15854e-20)
(2.48358 -0.00070966 -4.10619e-20)
(2.48515 -0.000609866 -4.0542e-20)
(2.4866 -0.000517037 0)
(2.48793 -0.000430989 0)
(2.48915 -0.000351448 0)
(2.49027 -0.000278085 1.92485e-20)
(2.4913 -0.000210497 1.89972e-20)
(2.49223 -0.000148308 0)
(2.49309 -9.11169e-05 3.6999e-20)
(2.49386 -3.85625e-05 3.65063e-20)
(2.49456 9.72723e-06 0)
(2.4952 5.40776e-05 3.55305e-20)
(2.49577 9.48176e-05 7.00947e-20)
(2.49629 0.000132228 -3.45674e-20)
(2.49675 0.000166587 -3.40905e-20)
(2.49716 0.000198128 0)
(2.49753 0.000227091 0)
(2.49785 0.000253674 0)
(2.49813 0.000278093 -3.22141e-20)
(2.49837 0.000300526 3.17524e-20)
(2.49858 0.000321177 6.25876e-20)
(2.49876 0.000340213 -3.08381e-20)
(2.49891 0.000357806 3.03852e-20)
(2.49902 0.000374107 2.99353e-20)
(2.49912 0.000389273 0)
(2.49919 0.000403456 0)
(2.49923 0.000416817 -2.86022e-20)
(2.49925 0.00042951 0)
(2.49926 0.000441701 0)
(2.49924 0.000453563 5.4588e-20)
(2.4992 0.0004653 0)
(2.49915 0.000477136 2.64351e-20)
(2.49907 0.000489329 -2.60097e-20)
(2.49898 0.00050217 0)
(2.49887 0.000516008 2.51663e-20)
(2.49874 0.000531258 0)
(2.49858 0.000548443 0)
(2.49841 0.000568197 -2.39203e-20)
(2.4982 0.000591339 4.70196e-20)
(2.49797 0.000618849 -2.31018e-20)
(2.4977 0.000652063 0)
(2.49739 0.000692492 0)
(2.49702 0.000742435 2.1892e-20)
(2.49659 0.000804272 0)
(2.49608 0.000881795 2.10973e-20)
(2.49549 0.000980052 0)
(2.49474 0.00110168 0)
(2.49388 0.00126728 0)
(2.49274 0.00145244 1.95361e-20)
(2.49145 0.00175979 0)
(2.48965 0.00201608 -1.87699e-20)
(2.48763 0.00265074 0)
(2.48462 0.00294206 0)
(2.48137 0.00436953 3.52792e-20)
(2.47603 0.00452274 -3.45378e-20)
(2.47066 0.00804347 0)
(2.46016 0.00745131 0)
(2.45119 0.0172177 0)
(2.42819 0.0149177 9.49845e-20)
(2.41401 0.0472465 0)
(2.36357 0.0489456 -6.05872e-20)
(-0.0256039 0.308587 3.91987e-24)
(-0.0968745 0.350003 -6.18144e-20)
(-0.165361 0.347245 0)
(-0.235514 0.34662 6.08701e-20)
(-0.305196 0.344758 0)
(-0.37501 0.342341 0)
(-0.444512 0.33919 -6.48096e-24)
(-0.513768 0.335167 -2.94927e-20)
(-0.582548 0.330124 -2.92484e-20)
(-0.650724 0.323902 -2.90217e-20)
(-0.71806 0.31633 0)
(-0.784299 0.307226 0)
(-0.849097 0.296393 2.83073e-20)
(-0.912063 0.283624 5.615e-20)
(-0.972748 0.268739 -5.56894e-20)
(-1.03063 0.251578 0)
(-1.08509 0.232014 -5.4784e-20)
(-1.13545 0.209955 2.71945e-20)
(-1.18103 0.185367 0)
(-1.22108 0.158281 -5.34809e-20)
(-1.25484 0.128804 -2.65616e-20)
(-1.2816 0.0971262 5.26614e-20)
(-1.30069 0.0635076 2.61654e-20)
(-1.31148 0.0283006 0)
(-1.31344 -0.00808001 -5.1521e-20)
(-1.3061 -0.0451644 -5.11617e-20)
(-1.28915 -0.082362 0)
(-1.26255 -0.119077 -5.04813e-20)
(-1.22641 -0.15473 0)
(-1.18101 -0.188763 -4.98462e-20)
(-1.12678 -0.220674 -2.47939e-20)
(-1.06425 -0.250059 0)
(-0.99407 -0.276566 0)
(-0.917039 -0.299937 0)
(-0.833958 -0.32002 0)
(-0.745669 -0.336739 0)
(-0.653044 -0.350136 0)
(-0.556916 -0.360262 -4.75273e-20)
(-0.458117 -0.367282 7.08615e-20)
(-0.357408 -0.371382 0)
(-0.255483 -0.3728 0)
(-0.152992 -0.371752 0)
(-0.0506507 -0.368578 -4.06076e-24)
(0.0510216 -0.363503 -4.57037e-20)
(0.151685 -0.356798 -9.0719e-20)
(0.250911 -0.348715 9.00241e-20)
(0.348341 -0.339494 4.46597e-20)
(0.443691 -0.329357 -4.43041e-20)
(0.53673 -0.318507 2.02533e-25)
(0.627271 -0.307127 -4.35801e-20)
(0.715172 -0.295378 0)
(0.800327 -0.283402 -4.28438e-20)
(0.882664 -0.271321 -4.21939e-26)
(0.962136 -0.259241 0)
(1.03872 -0.247251 0)
(1.11243 -0.235424 4.13461e-20)
(1.18327 -0.223822 0)
(1.25127 -0.212494 0)
(1.31649 -0.201478 -4.02124e-20)
(1.37897 -0.190806 -7.96691e-20)
(1.43877 -0.180498 3.94571e-20)
(1.49597 -0.170572 0)
(1.55063 -0.161036 -3.87036e-20)
(1.60283 -0.151896 0)
(1.65265 -0.143154 -3.79533e-20)
(1.70016 -0.134808 -3.75811e-20)
(1.74544 -0.126853 7.44186e-20)
(1.78859 -0.119282 3.6839e-20)
(1.82966 -0.112087 0)
(1.86874 -0.105257 -7.22097e-20)
(1.90591 -0.0987831 0)
(1.94125 -0.0926522 -1.06134e-19)
(1.97482 -0.0868522 -7.00345e-20)
(2.0067 -0.0813704 -6.93176e-20)
(2.03695 -0.0761939 6.86048e-20)
(2.06566 -0.0713098 -1.01845e-19)
(2.09288 -0.0667052 0)
(2.11868 -0.0623673 0)
(2.14312 -0.0582833 6.57978e-20)
(2.16627 -0.0544411 9.76611e-20)
(2.18817 -0.0508286 0)
(2.20889 -0.047434 -3.18701e-20)
(2.22848 -0.044246 0)
(2.24699 -0.0412537 9.3586e-20)
(2.26448 -0.0384464 4.55486e-25)
(2.28099 -0.0358141 -4.32317e-25)
(2.29657 -0.0333471 -6.0401e-20)
(2.31126 -0.031036 0)
(2.32512 -0.0288719 5.90974e-20)
(2.33817 -0.0268463 3.48623e-25)
(2.35047 -0.0249512 0)
(2.36204 -0.023179 0)
(2.37293 -0.0215221 0)
(2.38317 -0.0199738 -5.59175e-20)
(2.3928 -0.0185278 0)
(2.40184 -0.0171771 0)
(2.41033 -0.0159164 0)
(2.4183 -0.0147406 0)
(2.42577 -0.013643 0)
(2.43278 -0.0126199 -5.22458e-20)
(2.43934 -0.0116665 0)
(2.44549 -0.0107774 -5.10562e-20)
(2.45124 -0.00995008 -5.04675e-20)
(2.45663 -0.00917877 4.9883e-20)
(2.46166 -0.00846073 0)
(2.46636 -0.00779516 4.8726e-20)
(2.47075 -0.0071785 0)
(2.47486 -0.00660628 4.75852e-20)
(2.47869 -0.00606892 -4.70206e-20)
(2.48229 -0.00556179 -1.3938e-19)
(2.48565 -0.00509597 0)
(2.4888 -0.00467619 -1.3605e-19)
(2.49173 -0.00429554 -4.48008e-20)
(2.49447 -0.00395087 0)
(2.49702 -0.00363659 -8.74277e-20)
(2.49939 -0.00334603 -8.63518e-20)
(2.5016 -0.00307392 1.27925e-19)
(2.50365 -0.00281712 0)
(2.50555 -0.00257439 4.15841e-20)
(2.50732 -0.00234561 4.10606e-20)
(2.50895 -0.00213106 1.21622e-19)
(2.51047 -0.00193085 0)
(2.51188 -0.00174479 0)
(2.51318 -0.00157239 0)
(2.51438 -0.00141299 3.84958e-20)
(2.51549 -0.00126582 0)
(2.51652 -0.00113009 0)
(2.51748 -0.00100503 -3.69979e-20)
(2.51835 -0.000889896 -3.65051e-20)
(2.51916 -0.000783968 0)
(2.51991 -0.000686572 0)
(2.5206 -0.000597071 -7.00925e-20)
(2.52123 -0.000514875 0)
(2.52181 -0.00043943 6.8179e-20)
(2.52235 -0.000370217 6.72315e-20)
(2.52284 -0.000306737 0)
(2.52329 -0.000248532 0)
(2.52371 -0.000195169 -6.4426e-20)
(2.52409 -0.000146247 -7.65397e-26)
(2.52444 -0.000101383 -7.17708e-26)
(2.52476 -6.0217e-05 0)
(2.52505 -2.24e-05 -1.21537e-19)
(2.52532 1.23953e-05 0)
(2.52556 4.44929e-05 0)
(2.52578 7.42081e-05 0)
(2.52598 0.000101851 5.72028e-20)
(2.52617 0.000127724 0)
(2.52633 0.000152139 -1.10906e-19)
(2.52648 0.000175421 -5.45863e-20)
(2.52661 0.000197921 0)
(2.52673 0.000220022 -5.28687e-20)
(2.52683 0.000242148 0)
(2.52691 0.000264785 0)
(2.52698 0.000288501 -1.50993e-19)
(2.52703 0.000313978 9.89908e-20)
(2.52707 0.000342017 0)
(2.52708 0.000373641 9.56779e-20)
(2.52707 0.000410014 -4.70182e-20)
(2.52704 0.000452816 0)
(2.52697 0.000503672 0)
(2.52687 0.000565703 0)
(2.52672 0.000640706 -1.31348e-19)
(2.52652 0.000735491 0)
(2.52624 0.000849762 -4.21934e-20)
(2.52589 0.00100162 0)
(2.5254 0.00117749 0)
(2.52481 0.00143495 0)
(2.52397 0.00170033 0)
(2.523 0.00216945 0)
(2.52155 0.00255124 0)
(2.51994 0.00346405 -7.35564e-20)
(2.51742 0.00399099 0)
(2.51472 0.0058606 -3.52779e-20)
(2.51019 0.00656005 1.03605e-19)
(2.50555 0.0107288 0)
(2.49721 0.0116302 0)
(2.48902 0.0220985 -6.47045e-20)
(2.47388 0.0246918 -6.33123e-20)
(2.46037 0.054107 6.18883e-20)
(2.43961 0.0674092 6.05817e-20)
(-0.0252152 0.438266 9.3376e-20)
(-0.0963865 0.497306 9.26842e-20)
(-0.164774 0.493325 6.13132e-20)
(-0.235237 0.492344 3.04132e-20)
(-0.305552 0.489683 0)
(-0.376472 0.486364 -5.9889e-20)
(-0.447592 0.4821 2.96969e-20)
(-0.519028 0.476727 0)
(-0.590541 0.470057 2.92417e-20)
(-0.662003 0.461843 0)
(-0.733154 0.451811 -5.75054e-20)
(-0.803694 0.439657 0)
(-0.873242 0.425062 -2.83e-20)
(-0.94134 0.407696 -5.61352e-20)
(-1.00744 0.387241 5.56744e-20)
(-1.07091 0.363411 0)
(-1.13106 0.335972 5.47688e-20)
(-1.18709 0.304748 0)
(-1.23815 0.269648 0)
(-1.28334 0.230701 5.34663e-20)
(-1.32176 0.188053 0)
(-1.35253 0.141987 -9.16926e-23)
(-1.37482 0.0929161 0)
(-1.38785 0.0414037 0)
(-1.39099 -0.0118635 9.57521e-23)
(-1.38366 -0.0661353 5.11498e-20)
(-1.36551 -0.120518 5.0711e-20)
(-1.33652 -0.174102 5.04674e-20)
(-1.29687 -0.226006 0)
(-1.24692 -0.275405 9.95866e-20)
(-1.18725 -0.321541 0)
(-1.1186 -0.363771 4.9169e-20)
(-1.04184 -0.401632 0)
(-0.957896 -0.434765 0)
(-0.867803 -0.462968 -4.83283e-20)
(-0.772583 -0.486194 0)
(-0.673247 -0.504493 4.77724e-20)
(-0.570759 -0.518053 2.3255e-23)
(-0.466039 -0.527115 -9.44304e-20)
(-0.359934 -0.531977 9.38318e-20)
(-0.253125 -0.533063 0)
(-0.146413 -0.530729 0)
(-0.0404365 -0.525383 4.60036e-20)
(0.0644095 -0.517442 0)
(0.16767 -0.507277 4.53466e-20)
(0.269 -0.495258 -4.49996e-20)
(0.368083 -0.481726 -4.46481e-20)
(0.464678 -0.466992 0)
(0.558596 -0.451338 4.39327e-20)
(0.649697 -0.435014 4.35696e-20)
(0.73788 -0.418242 -8.64059e-20)
(0.823079 -0.401213 4.28341e-20)
(0.905257 -0.384093 4.24627e-20)
(0.984403 -0.367022 0)
(1.06053 -0.350118 0)
(1.13366 -0.333477 -4.13382e-20)
(1.20383 -0.317179 0)
(1.2711 -0.301287 0)
(1.33554 -0.28585 8.0412e-20)
(1.3972 -0.270905 7.96567e-20)
(1.45617 -0.256481 0)
(1.51251 -0.242595 0)
(1.56632 -0.229258 0)
(1.61768 -0.216475 0)
(1.66667 -0.204247 7.58984e-20)
(1.71336 -0.192568 -7.51522e-20)
(1.75786 -0.181431 -7.44108e-20)