# vtk DataFile Version 2.0
sampleSurface
ASCII
DATASET POLYDATA
POINTS 502 double
-0.0206 0 -0.0005
-0.0190172 0 -0.0005
-0.0190172 0 0.0005
-0.0206 0 0.0005
-0.0174976 0 -0.0005
-0.0174976 0 0.0005
-0.0160387 0 -0.0005
-0.0160387 0 0.0005
-0.0146381 0 -0.0005
-0.0146381 0 0.0005
-0.0132934 0 -0.0005
-0.0132934 0 0.0005
-0.0120025 0 -0.0005
-0.0120025 0 0.0005
-0.0107632 0 -0.0005
-0.0107632 0 0.0005
-0.00957337 0 -0.0005
-0.00957337 0 0.0005
-0.00843108 0 -0.0005
-0.00843108 0 0.0005
-0.00733443 0 -0.0005
-0.00733443 0 0.0005
-0.0062816 0 -0.0005
-0.0062816 0 0.0005
-0.00527083 0 -0.0005
-0.00527083 0 0.0005
-0.00430044 0 -0.0005
-0.00430044 0 0.0005
-0.00336883 0 -0.0005
-0.00336883 0 0.0005
-0.00247443 0 -0.0005
-0.00247443 0 0.0005
-0.00161577 0 -0.0005
-0.00161577 0 0.0005
-0.000791418 0 -0.0005
-0.000791418 0 0.0005
0 0 -0.0005
0 0 0.0005
0 -0.0254 -0.0005
0 -0.0254 0.0005
0 -0.0242711 0.0005
0 -0.0242711 -0.0005
0 -0.0231422 0.0005
0 -0.0231422 -0.0005
0 -0.0220133 0.0005
0 -0.0220133 -0.0005
0 -0.0208844 0.0005
0 -0.0208844 -0.0005
0 -0.0197556 0.0005
0 -0.0197556 -0.0005
0 -0.0186267 0.0005
0 -0.0186267 -0.0005
0 -0.0174978 0.0005
0 -0.0174978 -0.0005
0 -0.0163689 0.0005
0 -0.0163689 -0.0005
0 -0.01524 0.0005
0 -0.01524 -0.0005
0 -0.0141111 0.0005
0 -0.0141111 -0.0005
0 -0.0129822 0.0005
0 -0.0129822 -0.0005
0 -0.0118533 0.0005
0 -0.0118533 -0.0005
0 -0.0107244 0.0005
0 -0.0107244 -0.0005
0 -0.00959556 0.0005
0 -0.00959556 -0.0005
0 -0.00846667 0.0005
0 -0.00846667 -0.0005
0 -0.00726604 0.0005
0 -0.00726604 -0.0005
0 -0.00618989 0.0005
0 -0.00618989 -0.0005
0 -0.00522531 0.0005
0 -0.00522531 -0.0005
0 -0.00436073 0.0005
0 -0.00436073 -0.0005
0 -0.00358579 0.0005
0 -0.00358579 -0.0005
0 -0.00289118 0.0005
0 -0.00289118 -0.0005
0 -0.0022686 0.0005
0 -0.0022686 -0.0005
0 -0.00171055 0.0005
0 -0.00171055 -0.0005
0 -0.00121037 0.0005
0 -0.00121037 -0.0005
0 -0.000762037 0.0005
0 -0.000762037 -0.0005
0 -0.000360188 0.0005
0 -0.000360188 -0.0005
0.000528387 -0.0254 -0.0005
0.000528387 -0.0254 0.0005
0.00106088 -0.0254 -0.0005
0.00106088 -0.0254 0.0005
0.00159752 -0.0254 -0.0005
0.00159752 -0.0254 0.0005
0.00213833 -0.0254 -0.0005
0.00213833 -0.0254 0.0005
0.00268334 -0.0254 -0.0005
0.00268334 -0.0254 0.0005
0.00323259 -0.0254 -0.0005
0.00323259 -0.0254 0.0005
0.00378611 -0.0254 -0.0005
0.00378611 -0.0254 0.0005
0.00434393 -0.0254 -0.0005
0.00434393 -0.0254 0.0005
0.00490609 -0.0254 -0.0005
0.00490609 -0.0254 0.0005
0.00547262 -0.0254 -0.0005
0.00547262 -0.0254 0.0005
0.00604356 -0.0254 -0.0005
0.00604356 -0.0254 0.0005
0.00661893 -0.0254 -0.0005
0.00661893 -0.0254 0.0005
0.00719878 -0.0254 -0.0005
0.00719878 -0.0254 0.0005
0.00778313 -0.0254 -0.0005
0.00778313 -0.0254 0.0005
0.00837203 -0.0254 -0.0005
0.00837203 -0.0254 0.0005
0.00896551 -0.0254 -0.0005
0.00896551 -0.0254 0.0005
0.0095636 -0.0254 -0.0005
0.0095636 -0.0254 0.0005
0.0101663 -0.0254 -0.0005
0.0101663 -0.0254 0.0005
0.0107738 -0.0254 -0.0005
0.0107738 -0.0254 0.0005
0.0113859 -0.0254 -0.0005
0.0113859 -0.0254 0.0005
0.0120028 -0.0254 -0.0005
0.0120028 -0.0254 0.0005
0.0126245 -0.0254 -0.0005
0.0126245 -0.0254 0.0005
0.0132511 -0.0254 -0.0005
0.0132511 -0.0254 0.0005
0.0138825 -0.0254 -0.0005
0.0138825 -0.0254 0.0005
0.0145188 -0.0254 -0.0005
0.0145188 -0.0254 0.0005
0.0151601 -0.0254 -0.0005
0.0151601 -0.0254 0.0005
0.0158063 -0.0254 -0.0005
0.0158063 -0.0254 0.0005
0.0164576 -0.0254 -0.0005
0.0164576 -0.0254 0.0005
0.0171139 -0.0254 -0.0005
0.0171139 -0.0254 0.0005
0.0177754 -0.0254 -0.0005
0.0177754 -0.0254 0.0005
0.018442 -0.0254 -0.0005
0.018442 -0.0254 0.0005
0.0191137 -0.0254 -0.0005
0.0191137 -0.0254 0.0005
0.0197907 -0.0254 -0.0005
0.0197907 -0.0254 0.0005
0.020473 -0.0254 -0.0005
0.020473 -0.0254 0.0005
0.0211606 -0.0254 -0.0005
0.0211606 -0.0254 0.0005
0.0218535 -0.0254 -0.0005
0.0218535 -0.0254 0.0005
0.0225517 -0.0254 -0.0005
0.0225517 -0.0254 0.0005
0.0232555 -0.0254 -0.0005
0.0232555 -0.0254 0.0005
0.0239647 -0.0254 -0.0005
0.0239647 -0.0254 0.0005
0.0246794 -0.0254 -0.0005
0.0246794 -0.0254 0.0005
0.0253996 -0.0254 -0.0005
0.0253996 -0.0254 0.0005
0.0261255 -0.0254 -0.0005
0.0261255 -0.0254 0.0005
0.026857 -0.0254 -0.0005
0.026857 -0.0254 0.0005
0.0275942 -0.0254 -0.0005
0.0275942 -0.0254 0.0005
0.0283371 -0.0254 -0.0005
0.0283371 -0.0254 0.0005
0.0290858 -0.0254 -0.0005
0.0290858 -0.0254 0.0005
0.0298403 -0.0254 -0.0005
0.0298403 -0.0254 0.0005
0.0306007 -0.0254 -0.0005
0.0306007 -0.0254 0.0005
0.031367 -0.0254 -0.0005
0.031367 -0.0254 0.0005
0.0321393 -0.0254 -0.0005
0.0321393 -0.0254 0.0005
0.0329175 -0.0254 -0.0005
0.0329175 -0.0254 0.0005
0.0337019 -0.0254 -0.0005
0.0337019 -0.0254 0.0005
0.0344923 -0.0254 -0.0005
0.0344923 -0.0254 0.0005
0.0352888 -0.0254 -0.0005
0.0352888 -0.0254 0.0005
0.0360916 -0.0254 -0.0005
0.0360916 -0.0254 0.0005
0.0369006 -0.0254 -0.0005
0.0369006 -0.0254 0.0005
0.0377158 -0.0254 -0.0005
0.0377158 -0.0254 0.0005
0.0385375 -0.0254 -0.0005
0.0385375 -0.0254 0.0005
0.0393655 -0.0254 -0.0005
0.0393655 -0.0254 0.0005
0.0401999 -0.0254 -0.0005
0.0401999 -0.0254 0.0005
0.0410408 -0.0254 -0.0005
0.0410408 -0.0254 0.0005
0.0418883 -0.0254 -0.0005
0.0418883 -0.0254 0.0005
0.0427424 -0.0254 -0.0005
0.0427424 -0.0254 0.0005
0.0436031 -0.0254 -0.0005
0.0436031 -0.0254 0.0005
0.0444704 -0.0254 -0.0005
0.0444704 -0.0254 0.0005
0.0453446 -0.0254 -0.0005
0.0453446 -0.0254 0.0005
0.0462255 -0.0254 -0.0005
0.0462255 -0.0254 0.0005
0.0471133 -0.0254 -0.0005
0.0471133 -0.0254 0.0005
0.048008 -0.0254 -0.0005
0.048008 -0.0254 0.0005
0.0489096 -0.0254 -0.0005
0.0489096 -0.0254 0.0005
0.0498183 -0.0254 -0.0005
0.0498183 -0.0254 0.0005
0.050734 -0.0254 -0.0005
0.050734 -0.0254 0.0005
0.0516568 -0.0254 -0.0005
0.0516568 -0.0254 0.0005
0.0525868 -0.0254 -0.0005
0.0525868 -0.0254 0.0005
0.053524 -0.0254 -0.0005
0.053524 -0.0254 0.0005
0.0544686 -0.0254 -0.0005
0.0544686 -0.0254 0.0005
0.0554204 -0.0254 -0.0005
0.0554204 -0.0254 0.0005
0.0563797 -0.0254 -0.0005
0.0563797 -0.0254 0.0005
0.0573464 -0.0254 -0.0005
0.0573464 -0.0254 0.0005
0.0583206 -0.0254 -0.0005
0.0583206 -0.0254 0.0005
0.0593025 -0.0254 -0.0005
0.0593025 -0.0254 0.0005
0.0602919 -0.0254 -0.0005
0.0602919 -0.0254 0.0005
0.0612891 -0.0254 -0.0005
0.0612891 -0.0254 0.0005
0.0622939 -0.0254 -0.0005
0.0622939 -0.0254 0.0005
0.0633067 -0.0254 -0.0005
0.0633067 -0.0254 0.0005
0.0643272 -0.0254 -0.0005
0.0643272 -0.0254 0.0005
0.0653557 -0.0254 -0.0005
0.0653557 -0.0254 0.0005
0.0663923 -0.0254 -0.0005
0.0663923 -0.0254 0.0005
0.0674368 -0.0254 -0.0005
0.0674368 -0.0254 0.0005
0.0684895 -0.0254 -0.0005
0.0684895 -0.0254 0.0005
0.0695504 -0.0254 -0.0005
0.0695504 -0.0254 0.0005
0.0706195 -0.0254 -0.0005
0.0706195 -0.0254 0.0005
0.0716969 -0.0254 -0.0005
0.0716969 -0.0254 0.0005
0.0727828 -0.0254 -0.0005
0.0727828 -0.0254 0.0005
0.073877 -0.0254 -0.0005
0.073877 -0.0254 0.0005
0.0749798 -0.0254 -0.0005
0.0749798 -0.0254 0.0005
0.0760911 -0.0254 -0.0005
0.0760911 -0.0254 0.0005
0.0772111 -0.0254 -0.0005
0.0772111 -0.0254 0.0005
0.0783398 -0.0254 -0.0005
0.0783398 -0.0254 0.0005
0.0794772 -0.0254 -0.0005
0.0794772 -0.0254 0.0005
0.0806235 -0.0254 -0.0005
0.0806235 -0.0254 0.0005
0.0817787 -0.0254 -0.0005
0.0817787 -0.0254 0.0005
0.0829429 -0.0254 -0.0005
0.0829429 -0.0254 0.0005
0.0841162 -0.0254 -0.0005
0.0841162 -0.0254 0.0005
0.0852985 -0.0254 -0.0005
0.0852985 -0.0254 0.0005
0.0864901 -0.0254 -0.0005
0.0864901 -0.0254 0.0005
0.0876909 -0.0254 -0.0005
0.0876909 -0.0254 0.0005
0.0889011 -0.0254 -0.0005
0.0889011 -0.0254 0.0005
0.0901207 -0.0254 -0.0005
0.0901207 -0.0254 0.0005
0.0913497 -0.0254 -0.0005
0.0913497 -0.0254 0.0005
0.0925883 -0.0254 -0.0005
0.0925883 -0.0254 0.0005
0.0938366 -0.0254 -0.0005
0.0938366 -0.0254 0.0005
0.0950945 -0.0254 -0.0005
0.0950945 -0.0254 0.0005
0.0963622 -0.0254 -0.0005
0.0963622 -0.0254 0.0005
0.0976398 -0.0254 -0.0005
0.0976398 -0.0254 0.0005
0.0989273 -0.0254 -0.0005
0.0989273 -0.0254 0.0005
0.100225 -0.0254 -0.0005
0.100225 -0.0254 0.0005
0.101532 -0.0254 -0.0005
0.101532 -0.0254 0.0005
0.10285 -0.0254 -0.0005
0.10285 -0.0254 0.0005
0.104178 -0.0254 -0.0005
0.104178 -0.0254 0.0005
0.105517 -0.0254 -0.0005
0.105517 -0.0254 0.0005
0.106865 -0.0254 -0.0005
0.106865 -0.0254 0.0005
0.108225 -0.0254 -0.0005
0.108225 -0.0254 0.0005
0.109594 -0.0254 -0.0005
0.109594 -0.0254 0.0005
0.110975 -0.0254 -0.0005
0.110975 -0.0254 0.0005
0.112366 -0.0254 -0.0005
0.112366 -0.0254 0.0005
0.113768 -0.0254 -0.0005
0.113768 -0.0254 0.0005
0.115181 -0.0254 -0.0005
0.115181 -0.0254 0.0005
0.116605 -0.0254 -0.0005
0.116605 -0.0254 0.0005
0.11804 -0.0254 -0.0005
0.11804 -0.0254 0.0005
0.119486 -0.0254 -0.0005
0.119486 -0.0254 0.0005
0.120943 -0.0254 -0.0005
0.120943 -0.0254 0.0005
0.122412 -0.0254 -0.0005
0.122412 -0.0254 0.0005
0.123892 -0.0254 -0.0005
0.123892 -0.0254 0.0005
0.125384 -0.0254 -0.0005
0.125384 -0.0254 0.0005
0.126887 -0.0254 -0.0005
0.126887 -0.0254 0.0005
0.128402 -0.0254 -0.0005
0.128402 -0.0254 0.0005
0.129928 -0.0254 -0.0005
0.129928 -0.0254 0.0005
0.131467 -0.0254 -0.0005
0.131467 -0.0254 0.0005
0.133017 -0.0254 -0.0005
0.133017 -0.0254 0.0005
0.13458 -0.0254 -0.0005
0.13458 -0.0254 0.0005
0.136155 -0.0254 -0.0005
0.136155 -0.0254 0.0005
0.137742 -0.0254 -0.0005
0.137742 -0.0254 0.0005
0.139341 -0.0254 -0.0005
0.139341 -0.0254 0.0005
0.140953 -0.0254 -0.0005
0.140953 -0.0254 0.0005
0.142577 -0.0254 -0.0005
0.142577 -0.0254 0.0005
0.144214 -0.0254 -0.0005
0.144214 -0.0254 0.0005
0.145863 -0.0254 -0.0005
0.145863 -0.0254 0.0005
0.147526 -0.0254 -0.0005
0.147526 -0.0254 0.0005
0.149201 -0.0254 -0.0005
0.149201 -0.0254 0.0005
0.15089 -0.0254 -0.0005
0.15089 -0.0254 0.0005
0.152591 -0.0254 -0.0005
0.152591 -0.0254 0.0005
0.154306 -0.0254 -0.0005
0.154306 -0.0254 0.0005
0.156034 -0.0254 -0.0005
0.156034 -0.0254 0.0005
0.157775 -0.0254 -0.0005
0.157775 -0.0254 0.0005
0.159531 -0.0254 -0.0005
0.159531 -0.0254 0.0005
0.161299 -0.0254 -0.0005
0.161299 -0.0254 0.0005
0.163082 -0.0254 -0.0005
0.163082 -0.0254 0.0005
0.164878 -0.0254 -0.0005
0.164878 -0.0254 0.0005
0.166688 -0.0254 -0.0005
0.166688 -0.0254 0.0005
0.168513 -0.0254 -0.0005
0.168513 -0.0254 0.0005
0.170351 -0.0254 -0.0005
0.170351 -0.0254 0.0005
0.172204 -0.0254 -0.0005
0.172204 -0.0254 0.0005
0.174071 -0.0254 -0.0005
0.174071 -0.0254 0.0005
0.175953 -0.0254 -0.0005
0.175953 -0.0254 0.0005
0.177849 -0.0254 -0.0005
0.177849 -0.0254 0.0005
0.17976 -0.0254 -0.0005
0.17976 -0.0254 0.0005
0.181686 -0.0254 -0.0005
0.181686 -0.0254 0.0005
0.183627 -0.0254 -0.0005
0.183627 -0.0254 0.0005
0.185583 -0.0254 -0.0005
0.185583 -0.0254 0.0005
0.187555 -0.0254 -0.0005
0.187555 -0.0254 0.0005
0.189541 -0.0254 -0.0005
0.189541 -0.0254 0.0005
0.191543 -0.0254 -0.0005
0.191543 -0.0254 0.0005
0.193561 -0.0254 -0.0005
0.193561 -0.0254 0.0005
0.195594 -0.0254 -0.0005
0.195594 -0.0254 0.0005
0.197643 -0.0254 -0.0005
0.197643 -0.0254 0.0005
0.199708 -0.0254 -0.0005
0.199708 -0.0254 0.0005
0.201789 -0.0254 -0.0005
0.201789 -0.0254 0.0005
0.203886 -0.0254 -0.0005
0.203886 -0.0254 0.0005
0.206 -0.0254 -0.0005
0.206 -0.0254 0.0005
0.208047 -0.0251856 -0.0005
0.208047 -0.0251856 0.0005
0.210173 -0.0249628 -0.0005
0.210173 -0.0249628 0.0005
0.212382 -0.0247314 -0.0005
0.212382 -0.0247314 0.0005
0.214677 -0.024491 -0.0005
0.214677 -0.024491 0.0005
0.217061 -0.0242412 -0.0005
0.217061 -0.0242412 0.0005
0.219538 -0.0239817 -0.0005
0.219538 -0.0239817 0.0005
0.222112 -0.0237121 -0.0005
0.222112 -0.0237121 0.0005
0.224785 -0.023432 -0.0005
0.224785 -0.023432 0.0005
0.227563 -0.023141 -0.0005
0.227563 -0.023141 0.0005
0.230449 -0.0228387 -0.0005
0.230449 -0.0228387 0.0005
0.233447 -0.0225246 -0.0005
0.233447 -0.0225246 0.0005
0.236562 -0.0221983 -0.0005
0.236562 -0.0221983 0.0005
0.239797 -0.0218593 -0.0005
0.239797 -0.0218593 0.0005
0.243159 -0.0215071 -0.0005
0.243159 -0.0215071 0.0005
0.246652 -0.0211412 -0.0005
0.246652 -0.0211412 0.0005
0.250281 -0.0207611 -0.0005
0.250281 -0.0207611 0.0005
0.254051 -0.0203661 -0.0005
0.254051 -0.0203661 0.0005
0.257967 -0.0199558 -0.0005
0.257967 -0.0199558 0.0005
0.262036 -0.0195295 -0.0005
0.262036 -0.0195295 0.0005
0.266264 -0.0190867 -0.0005
0.266264 -0.0190867 0.0005
0.270655 -0.0186266 -0.0005
0.270655 -0.0186266 0.0005
0.275218 -0.0181486 -0.0005
0.275218 -0.0181486 0.0005
0.279959 -0.017652 -0.0005
0.279959 -0.017652 0.0005
0.284883 -0.017136 -0.0005
0.284883 -0.017136 0.0005
0.29 -0.0166 -0.0005
0.29 -0.0166 0.0005

POLYGONS 250 1250
4 0 1 2 3
4 1 4 5 2
4 4 6 7 5
4 6 8 9 7
4 8 10 11 9
4 10 12 13 11
4 12 14 15 13
4 14 16 17 15
4 16 18 19 17
4 18 20 21 19
4 20 22 23 21
4 22 24 25 23
4 24 26 27 25
4 26 28 29 27
4 28 30 31 29
4 30 32 33 31
4 32 34 35 33
4 34 36 37 35
4 38 39 40 41
4 41 40 42 43
4 43 42 44 45
4 45 44 46 47
4 47 46 48 49
4 49 48 50 51
4 51 50 52 53
4 53 52 54 55
4 55 54 56 57
4 57 56 58 59
4 59 58 60 61
4 61 60 62 63
4 63 62 64 65
4 65 64 66 67
4 67 66 68 69
4 69 68 70 71
4 71 70 72 73
4 73 72 74 75
4 75 74 76 77
4 77 76 78 79
4 79 78 80 81
4 81 80 82 83
4 83 82 84 85
4 85 84 86 87
4 87 86 88 89
4 89 88 90 91
4 91 90 37 36
4 38 92 93 39
4 92 94 95 93
4 94 96 97 95
4 96 98 99 97
4 98 100 101 99
4 100 102 103 101
4 102 104 105 103
4 104 106 107 105
4 106 108 109 107
4 108 110 111 109
4 110 112 113 111
4 112 114 115 113
4 114 116 117 115
4 116 118 119 117
4 118 120 121 119
4 120 122 123 121
4 122 124 125 123
4 124 126 127 125
4 126 128 129 127
4 128 130 131 129
4 130 132 133 131
4 132 134 135 133
4 134 136 137 135
4 136 138 139 137
4 138 140 141 139
4 140 142 143 141
4 142 144 145 143
4 144 146 147 145
4 146 148 149 147
4 148 150 151 149
4 150 152 153 151
4 152 154 155 153
4 154 156 157 155
4 156 158 159 157
4 158 160 161 159
4 160 162 163 161
4 162 164 165 163
4 164 166 167 165
4 166 168 169 167
4 168 170 171 169
4 170 172 173 171
4 172 174 175 173
4 174 176 177 175
4 176 178 179 177
4 178 180 181 179
4 180 182 183 181
4 182 184 185 183
4 184 186 187 185
4 186 188 189 187
4 188 190 191 189
4 190 192 193 191
4 192 194 195 193
4 194 196 197 195
4 196 198 199 197
4 198 200 201 199
4 200 202 203 201
4 202 204 205 203
4 204 206 207 205
4 206 208 209 207
4 208 210 211 209
4 210 212 213 211
4 212 214 215 213
4 214 216 217 215
4 216 218 219 217
4 218 220 221 219
4 220 222 223 221
4 222 224 225 223
4 224 226 227 225
4 226 228 229 227
4 228 230 231 229
4 230 232 233 231
4 232 234 235 233
4 234 236 237 235
4 236 238 239 237
4 238 240 241 239
4 240 242 243 241
4 242 244 245 243
4 244 246 247 245
4 246 248 249 247
4 248 250 251 249
4 250 252 253 251
4 252 254 255 253
4 254 256 257 255
4 256 258 259 257
4 258 260 261 259
4 260 262 263 261
4 262 264 265 263
4 264 266 267 265
4 266 268 269 267
4 268 270 271 269
4 270 272 273 271
4 272 274 275 273
4 274 276 277 275
4 276 278 279 277
4 278 280 281 279
4 280 282 283 281
4 282 284 285 283
4 284 286 287 285
4 286 288 289 287
4 288 290 291 289
4 290 292 293 291
4 292 294 295 293
4 294 296 297 295
4 296 298 299 297
4 298 300 301 299
4 300 302 303 301
4 302 304 305 303
4 304 306 307 305
4 306 308 309 307
4 308 310 311 309
4 310 312 313 311
4 312 314 315 313
4 314 316 317 315
4 316 318 319 317
4 318 320 321 319
4 320 322 323 321
4 322 324 325 323
4 324 326 327 325
4 326 328 329 327
4 328 330 331 329
4 330 332 333 331
4 332 334 335 333
4 334 336 337 335
4 336 338 339 337
4 338 340 341 339
4 340 342 343 341
4 342 344 345 343
4 344 346 347 345
4 346 348 349 347
4 348 350 351 349
4 350 352 353 351
4 352 354 355 353
4 354 356 357 355
4 356 358 359 357
4 358 360 361 359
4 360 362 363 361
4 362 364 365 363
4 364 366 367 365
4 366 368 369 367
4 368 370 371 369
4 370 372 373 371
4 372 374 375 373
4 374 376 377 375
4 376 378 379 377
4 378 380 381 379
4 380 382 383 381
4 382 384 385 383
4 384 386 387 385
4 386 388 389 387
4 388 390 391 389
4 390 392 393 391
4 392 394 395 393
4 394 396 397 395
4 396 398 399 397
4 398 400 401 399
4 400 402 403 401
4 402 404 405 403
4 404 406 407 405
4 406 408 409 407
4 408 410 411 409
4 410 412 413 411
4 412 414 415 413
4 414 416 417 415
4 416 418 419 417
4 418 420 421 419
4 420 422 423 421
4 422 424 425 423
4 424 426 427 425
4 426 428 429 427
4 428 430 431 429
4 430 432 433 431
4 432 434 435 433
4 434 436 437 435
4 436 438 439 437
4 438 440 441 439
4 440 442 443 441
4 442 444 445 443
4 444 446 447 445
4 446 448 449 447
4 448 450 451 449
4 450 452 453 451
4 452 454 455 453
4 454 456 457 455
4 456 458 459 457
4 458 460 461 459
4 460 462 463 461
4 462 464 465 463
4 464 466 467 465
4 466 468 469 467
4 468 470 471 469
4 470 472 473 471
4 472 474 475 473
4 474 476 477 475
4 476 478 479 477
4 478 480 481 479
4 480 482 483 481
4 482 484 485 483
4 484 486 487 485
4 486 488 489 487
4 488 490 491 489
4 490 492 493 491
4 492 494 495 493
4 494 496 497 495
4 496 498 499 497
4 498 500 501 499
POINT_DATA 502
FIELD attributes 1
U 3 502 float
1.63726 0.103202 -0.00841028
0.820058 0.0512318 -0.00414459
0.820058 0.0512318 -0.00414459
1.63726 0.103202 -0.00841028
0.0246398 0.00070547 0
0.0246398 0.00070547 0
0.0221255 0.000628376 0
0.0221255 0.000628376 0
0.0199288 0.000537844 0
0.0199288 0.000537844 0
0.0177466 0.000456441 0
0.0177466 0.000456441 0
0.0155698 0.000382148 0
0.0155698 0.000382148 0
0.0135627 0.0003074 0
0.0135627 0.0003074 0
0.0118394 0.000239048 0
0.0118394 0.000239048 0
0.0103854 0.000187226 0
0.0103854 0.000187226 0
0.00914015 0.000150856 0
0.00914015 0.000150856 0
0.00806838 0.000119966 0
0.00806838 0.000119966 0
0.00714522 8.75547e-05 0
0.00714522 8.75547e-05 0
0.00636884 5.54223e-05 0
0.00636884 5.54223e-05 0
0.00571242 2.92006e-05 0
0.00571242 2.92006e-05 0
0.00517799 1.03499e-05 0
0.00517799 1.03499e-05 0
0.00472815 1.23444e-05 0
0.00472815 1.23444e-05 0
0.0042896 5.41965e-06 0
0.0042896 5.41965e-06 0
0.00196237 0.000200874 0
0.00196237 0.000200874 0
3.73265e-05 -0.000102819 1.63637e-23
3.73265e-05 -0.000102819 1.63637e-23
5.10199e-05 -0.000347309 -4.42669e-23
5.10199e-05 -0.000347309 -4.42669e-23
3.70173e-05 -0.000631776 -5.24874e-23
3.70173e-05 -0.000631776 -5.24874e-23
-1.31352e-05 -0.000569878 1.05102e-22
-1.31352e-05 -0.000569878 1.05102e-22
-4.64118e-05 -0.00029892 3.50057e-23
-4.64118e-05 -0.00029892 3.50057e-23
-5.78661e-05 7.10663e-05 -7.01348e-23
-5.78661e-05 7.10663e-05 -7.01348e-23
-5.22771e-05 0.000458781 0
-5.22771e-05 0.000458781 0
-3.55333e-05 0.000798984 -1.4115e-22
-3.55333e-05 0.000798984 -1.4115e-22
-1.20191e-05 0.0010558 -8.13049e-27
-1.20191e-05 0.0010558 -8.13049e-27
1.59333e-05 0.00120326 1.41142e-22
1.59333e-05 0.00120326 1.41142e-22
4.71213e-05 0.00122302 -1.4196e-22
4.71213e-05 0.00122302 -1.4196e-22
7.89543e-05 0.00110045 6.94893e-27
7.89543e-05 0.00110045 6.94893e-27
0.000106027 0.000826176 1.41967e-22
0.000106027 0.000826176 1.41967e-22
0.000104412 0.000402389 1.43155e-22
0.000104412 0.000402389 1.43155e-22
2.6895e-05 -8.17484e-05 2.75575e-29
2.6895e-05 -8.17484e-05 2.75575e-29
-8.83585e-05 -0.000385868 -1.45692e-22
-8.83585e-05 -0.000385868 -1.45692e-22
-0.00013977 -0.000350378 0
-0.00013977 -0.000350378 0
-0.000110976 -0.000120202 0
-0.000110976 -0.000120202 0
6.80878e-05 -0.000178835 0
6.80878e-05 -0.000178835 0
0.000326676 -0.00102782 0
0.000326676 -0.00102782 0
0.000343348 -0.00209089 0
0.000343348 -0.00209089 0
0.000109981 -0.00248326 0
0.000109981 -0.00248326 0
-0.000135398 -0.00226922 0
-0.000135398 -0.00226922 0
-0.000321059 -0.00171901 0
-0.000321059 -0.00171901 0
-0.000434597 -0.000979759 0
-0.000434597 -0.000979759 0
-0.000332903 -0.000207969 0
-0.000332903 -0.000207969 0
5.50917e-07 0.00027339 0
5.50917e-07 0.00027339 0
8.90118e-05 -0.000128183 7.05735e-26
8.90118e-05 -0.000128183 7.05735e-26
0.000201119 -0.000157409 -8.13216e-24
0.000201119 -0.000157409 -8.13216e-24
0.000318946 -0.000160034 0
0.000318946 -0.000160034 0
0.0004323 -0.000156784 0
0.0004323 -0.000156784 0
0.000542719 -0.000152865 7.87499e-24
0.000542719 -0.000152865 7.87499e-24
0.000650327 -0.000149334 7.88914e-24
0.000650327 -0.000149334 7.88914e-24
0.00075515 -0.000146026 0
0.00075515 -0.000146026 0
0.000857065 -0.00014252 0
0.000857065 -0.00014252 0
0.000955544 -0.000138399 0
0.000955544 -0.000138399 0
0.00104962 -0.000133346 -7.55518e-24
0.00104962 -0.000133346 -7.55518e-24
0.00113796 -0.000127153 -7.56958e-24
0.00113796 -0.000127153 -7.56958e-24
0.00121892 -0.000119755 0
0.00121892 -0.000119755 0
0.00129056 -0.000111132 0
0.00129056 -0.000111132 0
0.00135036 -0.000101376 0
0.00135036 -0.000101376 0
0.00139543 -9.07535e-05 -7.22734e-24
0.00139543 -9.07535e-05 -7.22734e-24
0.0014229 -8.02349e-05 -7.24193e-24
0.0014229 -8.02349e-05 -7.24193e-24
0.00142914 -7.27147e-05 0
0.00142914 -7.27147e-05 0
0.0014112 -7.05292e-05 0
0.0014112 -7.05292e-05 0
0.00136744 -7.18101e-05 0
0.00136744 -7.18101e-05 0
0.00129573 -6.98268e-05 0
0.00129573 -6.98268e-05 0
0.00119177 -5.41455e-05 0
0.00119177 -5.41455e-05 0
0.00104708 -1.51513e-05 0
0.00104708 -1.51513e-05 0
0.000850101 4.86138e-05 -6.73806e-24
0.000850101 4.86138e-05 -6.73806e-24
0.000591404 0.000127771 -6.90015e-26
0.000591404 0.000127771 -6.90015e-26
0.000270546 0.00021095 7.03635e-26
0.000270546 0.00021095 7.03635e-26
-0.000106339 0.000291972 -1.32112e-23
-0.000106339 0.000291972 -1.32112e-23
-0.000534015 0.00036641 -6.58267e-24
-0.000534015 0.00036641 -6.58267e-24
-0.00100468 0.000427914 0
-0.00100468 0.000427914 0
-0.00150485 0.000470414 6.35075e-24
-0.00150485 0.000470414 6.35075e-24
-0.00201916 0.000492156 1.26331e-23
-0.00201916 0.000492156 1.26331e-23
-0.00253411 0.000495851 6.28228e-24
-0.00253411 0.000495851 6.28228e-24
-0.00303979 0.000486167 0
-0.00303979 0.000486167 0
-0.00352946 0.000467508 5.98723e-24
-0.00352946 0.000467508 5.98723e-24
-0.00399871 0.000443269 6.00198e-24
-0.00399871 0.000443269 6.00198e-24
-0.00444478 0.000415937 0
-0.00444478 0.000415937 0
-0.00486598 0.000387117 -5.68347e-24
-0.00486598 0.000387117 -5.68347e-24
-0.00526106 0.000357647 -5.69791e-24
-0.00526106 0.000357647 -5.69791e-24
-0.00562886 0.000327852 -5.4831e-24
-0.00562886 0.000327852 -5.4831e-24
-0.00596815 0.000297696 -1.62711e-23
-0.00596815 0.000297696 -1.62711e-23
-0.00627747 0.000267029 -1.0802e-23
-0.00627747 0.000267029 -1.0802e-23
-0.00655518 0.000235827 0
-0.00655518 0.000235827 0
-0.00679955 0.000204143 0
-0.00679955 0.000204143 0
-0.00700889 0.00017206 0
-0.00700889 0.00017206 0
-0.00718155 0.000139713 0
-0.00718155 0.000139713 0
-0.00731607 0.000107301 -9.86291e-24
-0.00731607 0.000107301 -9.86291e-24
-0.00741141 7.52435e-05 -1.96574e-23
-0.00741141 7.52435e-05 -1.96574e-23
-0.00746694 4.43018e-05 -1.94837e-23
-0.00746694 4.43018e-05 -1.94837e-23
-0.00748225 1.52696e-05 -9.71671e-24
-0.00748225 1.52696e-05 -9.71671e-24
-0.00746025 -1.153e-05 9.58568e-24
-0.00746025 -1.153e-05 9.58568e-24
-0.00740325 -3.62179e-05 9.61346e-24
-0.00740325 -3.62179e-05 9.61346e-24
-0.00731257 -5.87663e-05 -9.54476e-24
-0.00731257 -5.87663e-05 -9.54476e-24
-0.00719116 -7.91013e-05 -1.91163e-23
-0.00719116 -7.91013e-05 -1.91163e-23
-0.00704145 -9.71777e-05 -9.57179e-24
-0.00704145 -9.71777e-05 -9.57179e-24
-0.00686642 -0.000112953 0
-0.00686642 -0.000112953 0
-0.00666888 -0.000126536 0
-0.00666888 -0.000126536 0
-0.00645153 -0.000138073 -9.61637e-24
-0.00645153 -0.000138073 -9.61637e-24
-0.00621681 -0.000147819 -9.64615e-24
-0.00621681 -0.000147819 -9.64615e-24
-0.00596676 -0.000156079 0
-0.00596676 -0.000156079 0
-0.00570295 -0.000163181 0
-0.00570295 -0.000163181 0
-0.00542654 -0.00016943 0
-0.00542654 -0.00016943 0
-0.0051383 -0.000175056 0
-0.0051383 -0.000175056 0
-0.00483877 -0.000180174 0
-0.00483877 -0.000180174 0
-0.00452852 -0.000184755 0
-0.00452852 -0.000184755 0
-0.00420832 -0.000188629 0
-0.00420832 -0.000188629 0
-0.0038794 -0.000191516 9.85202e-24
-0.0038794 -0.000191516 9.85202e-24
-0.00354354 -0.000193092 9.88512e-24
-0.00354354 -0.000193092 9.88512e-24
-0.00320306 -0.000193073 0
-0.00320306 -0.000193073 0
-0.00286066 -0.00019128 -9.86495e-24
-0.00286066 -0.00019128 -9.86495e-24
-0.00251926 -0.000187676 -1.97537e-23
-0.00251926 -0.000187676 -1.97537e-23
-0.00218177 -0.000182362 -9.88901e-24
-0.00218177 -0.000182362 -9.88901e-24
-0.00185096 -0.000175545 9.81053e-24
-0.00185096 -0.000175545 9.81053e-24
-0.00152926 -0.000167509 6.84144e-26
-0.00152926 -0.000167509 6.84144e-26
-0.00121863 -0.000158592 -9.81172e-24
-0.00121863 -0.000158592 -9.81172e-24
-0.000920567 -0.000149119 9.68842e-24
-0.000920567 -0.000149119 9.68842e-24
-0.000636029 -0.000139332 9.72357e-24
-0.000636029 -0.000139332 9.72357e-24
-0.000365634 -0.000129451 0
-0.000365634 -0.000129451 0
-0.000110348 -0.000119812 -9.51112e-24
-0.000110348 -0.000119812 -9.51112e-24
0.000129661 -0.00011052 -9.54648e-24
0.000129661 -0.00011052 -9.54648e-24
0.000355595 -0.000101512 9.36583e-24
0.000355595 -0.000101512 9.36583e-24
0.000568165 -9.2878e-05 9.40122e-24
0.000568165 -9.2878e-05 9.40122e-24
0.000767595 -8.46713e-05 -9.20938e-24
0.000767595 -8.46713e-05 -9.20938e-24
0.000954365 -7.69205e-05 -1.83732e-23
0.000954365 -7.69205e-05 -1.83732e-23
0.00112902 -6.96342e-05 -1.82099e-23
0.00112902 -6.96342e-05 -1.82099e-23
0.00129212 -6.2809e-05 -2.70071e-23
0.00129212 -6.2809e-05 -2.70071e-23
0.00144428 -5.64339e-05 -2.38539e-25
0.00144428 -5.64339e-05 -2.38539e-25
0.00158607 -5.04936e-05 1.78279e-23
0.00158607 -5.04936e-05 1.78279e-23
0.00171807 -4.497e-05 0
0.00171807 -4.497e-05 0
0.00184084 -3.9843e-05 0
0.00184084 -3.9843e-05 0
0.00195491 -3.50913e-05 1.70783e-23
0.00195491 -3.50913e-05 1.70783e-23
0.0020608 -3.06926e-05 3.40564e-23
0.0020608 -3.06926e-05 3.40564e-23
0.00215899 -2.66244e-05 2.39018e-25
0.00215899 -2.66244e-05 2.39018e-25
0.00224992 -2.28644e-05 -1.68081e-23
0.00224992 -2.28644e-05 -1.68081e-23
0.00233402 -1.93912e-05 1.64016e-23
0.00233402 -1.93912e-05 1.64016e-23
0.00241166 -1.61852e-05 3.27047e-23
0.00241166 -1.61852e-05 3.27047e-23
0.00248321 -1.32287e-05 3.23705e-23
0.00248321 -1.32287e-05 3.23705e-23
0.00254898 -1.05065e-05 1.61361e-23
0.00254898 -1.05065e-05 1.61361e-23
0.00260929 -8.00649e-06 0
0.00260929 -8.00649e-06 0
0.00266441 -5.71873e-06 0
0.00266441 -5.71873e-06 0
0.00271462 -3.63572e-06 1.54115e-23
0.00271462 -3.63572e-06 1.54115e-23
0.00276019 -1.75142e-06 1.54789e-23
0.00276019 -1.75142e-06 1.54789e-23
0.00280136 -6.09223e-08 0
0.00280136 -6.09223e-08 0
0.00283841 1.4404e-06 -1.49307e-23
0.00283841 1.4404e-06 -1.49307e-23
0.00287157 2.7577e-06 -1.49974e-23
0.00287157 2.7577e-06 -1.49974e-23
0.00290111 3.89611e-06 0
0.00290111 3.89611e-06 0
0.00292729 4.863e-06 -1.446e-23
0.00292729 4.863e-06 -1.446e-23
0.00295036 5.66607e-06 -1.45259e-23
0.00295036 5.66607e-06 -1.45259e-23
0.00297058 6.31365e-06 0
0.00297058 6.31365e-06 0
0.00298818 6.81846e-06 1.39994e-23
0.00298818 6.81846e-06 1.39994e-23
0.00300342 7.18851e-06 2.79123e-23
0.00300342 7.18851e-06 2.79123e-23
0.00301652 7.44004e-06 1.39127e-23
0.00301652 7.44004e-06 1.39127e-23
0.0030277 7.5936e-06 -1.35485e-23
0.0030277 7.5936e-06 -1.35485e-23
0.00303717 7.65474e-06 -1.36125e-23
0.00303717 7.65474e-06 -1.36125e-23
0.00304515 7.65933e-06 1.32531e-23
0.00304515 7.65933e-06 1.32531e-23
0.00305172 7.64652e-06 1.33165e-23
0.00305172 7.64652e-06 1.33165e-23
0.00305704 7.60102e-06 1.29618e-23
0.00305704 7.60102e-06 1.29618e-23
0.00306126 7.49826e-06 2.58423e-23
0.00306126 7.49826e-06 2.58423e-23
0.00306455 7.33892e-06 1.28801e-23
0.00306455 7.33892e-06 1.28801e-23
0.00306705 7.13626e-06 0
0.00306705 7.13626e-06 0
0.00306888 6.90268e-06 0
0.00306888 6.90268e-06 0
0.00307017 6.64647e-06 0
0.00307017 6.64647e-06 0
0.00307101 6.37575e-06 0
0.00307101 6.37575e-06 0
0.00307149 6.10505e-06 0
0.00307149 6.10505e-06 0
0.00307166 5.84384e-06 0
0.00307166 5.84384e-06 0
0.00307159 5.58193e-06 1.16984e-23
0.00307159 5.58193e-06 1.16984e-23
0.00307134 5.30437e-06 1.95472e-25
0.00307134 5.30437e-06 1.95472e-25
0.00307096 5.02217e-06 -1.16216e-23
0.00307096 5.02217e-06 -1.16216e-23
0.00307046 4.75592e-06 0
0.00307046 4.75592e-06 0
0.00306986 4.51066e-06 0
0.00306986 4.51066e-06 0
0.00306918 4.28559e-06 0
0.00306918 4.28559e-06 0
0.00306846 4.07872e-06 -2.17907e-23
0.00306846 4.07872e-06 -2.17907e-23
0.00306769 3.88825e-06 -2.19051e-23
0.00306769 3.88825e-06 -2.19051e-23
0.0030669 3.71207e-06 2.1268e-23
0.0030669 3.71207e-06 2.1268e-23
0.0030661 3.54581e-06 3.71895e-25
0.0030661 3.54581e-06 3.71895e-25
0.00306531 3.384e-06 -2.1121e-23
0.00306531 3.384e-06 -2.1121e-23
0.00306456 3.22265e-06 0
0.00306456 3.22265e-06 0
0.00306386 3.06138e-06 0
0.00306386 3.06138e-06 0
0.00306325 2.90371e-06 1.99872e-23
0.00306325 2.90371e-06 1.99872e-23
0.00306274 2.75546e-06 3.98312e-23
0.00306274 2.75546e-06 3.98312e-23
0.00306233 2.62204e-06 1.98431e-23
0.00306233 2.62204e-06 1.98431e-23
0.00306201 2.50639e-06 1.92356e-23
0.00306201 2.50639e-06 1.92356e-23
0.0030618 2.40822e-06 3.83292e-23
0.0030618 2.40822e-06 3.83292e-23
0.00306166 2.32474e-06 3.517e-25
0.00306166 2.32474e-06 3.517e-25
0.00306159 2.25213e-06 -1.88452e-23
0.00306159 2.25213e-06 -1.88452e-23
0.00306158 2.1869e-06 0
0.00306158 2.1869e-06 0
0.00306162 2.12665e-06 -1.80087e-23
0.00306162 2.12665e-06 -1.80087e-23
0.0030617 2.07023e-06 -1.81101e-23
0.0030617 2.07023e-06 -1.81101e-23
0.00306182 2.01747e-06 0
0.00306182 2.01747e-06 0
0.00306197 1.96875e-06 0
0.00306197 1.96875e-06 0
0.00306214 1.92465e-06 0
0.00306214 1.92465e-06 0
0.00306234 1.88565e-06 1.6812e-23
0.00306234 1.88565e-06 1.6812e-23
0.00306254 1.85204e-06 3.34847e-23
0.00306254 1.85204e-06 3.34847e-23
0.00306275 1.82398e-06 1.66718e-23
0.00306275 1.82398e-06 1.66718e-23
0.00306296 1.80161e-06 1.61074e-23
0.00306296 1.80161e-06 1.61074e-23
0.00306316 1.7851e-06 1.62011e-23
0.00306316 1.7851e-06 1.62011e-23
0.00306333 1.7748e-06 0
0.00306333 1.7748e-06 0
0.00306347 1.7712e-06 1.54123e-23
0.00306347 1.7712e-06 1.54123e-23
0.00306356 1.77507e-06 1.5503e-23
0.00306356 1.77507e-06 1.5503e-23
0.00306357 1.78741e-06 1.49539e-23
0.00306357 1.78741e-06 1.49539e-23
0.00306349 1.80958e-06 1.50426e-23
0.00306349 1.80958e-06 1.50426e-23
0.00306328 1.84347e-06 0
0.00306328 1.84347e-06 0
0.00306292 1.89138e-06 1.42736e-23
0.00306292 1.89138e-06 1.42736e-23
0.00306233 1.95689e-06 1.43592e-23
0.00306233 1.95689e-06 1.43592e-23
0.00306149 2.04363e-06 1.38248e-23