/*--------------------------------*- C++ -*----------------------------------*\
  =========                 |
  \\      /  F ield         | OpenFOAM: The Open Source CFD Toolbox
   \\    /   O peration     | Website:  https://openfoam.org
    \\  /    A nd           | Version:  7
     \\/     M anipulation  |
\*---------------------------------------------------------------------------*/
FoamFile
{
    version     2.0;
    format      ascii;
    class       volScalarField;
    location    "0.007";
    object      k;
}
// * * * * * * * * * * * * * * * * * * * * * * * * * * * * * * * * * * * * * //

dimensions      [0 2 -2 0 0 0 0];

internalField   nonuniform List<scalar> 
12225
(
1.93236e-05
1.80655e-05
1.69405e-05
1.52785e-05
1.37927e-05
1.30602e-05
1.20646e-05
1.04929e-05
9.41467e-06
9.217e-06
9.47219e-06
1.10916e-05
1.70615e-05
3.89326e-05
9.8397e-05
0.000370327
0.000643242
0.00178924
1.99801e-05
1.9867e-05
1.97091e-05
1.94024e-05
1.9056e-05
1.87776e-05
1.84698e-05
1.82467e-05
1.80161e-05
1.75486e-05
1.72344e-05
1.72271e-05
1.7359e-05
1.79887e-05
1.99496e-05
2.9044e-05
4.19297e-05
8.27367e-05
2.00062e-05
1.92702e-05
1.89579e-05
1.89256e-05
1.89363e-05
1.89312e-05
1.88987e-05
1.87986e-05
1.87175e-05
1.85957e-05
1.84618e-05
1.8392e-05
1.82639e-05
1.8105e-05
1.7989e-05
1.80748e-05
1.82749e-05
1.93291e-05
2.12548e-05
2.03968e-05
1.81044e-05
1.83241e-05
1.83783e-05
1.79839e-05
1.67465e-05
1.57934e-05
1.53962e-05
1.52737e-05
1.52578e-05
1.52969e-05
1.54335e-05
1.5526e-05
1.55616e-05
1.56026e-05
1.56758e-05
1.58531e-05
2.03401e-05
2.03965e-05
2.17663e-05
2.35864e-05
2.36397e-05
2.30751e-05
2.08655e-05
1.55357e-05
1.32985e-05
1.33885e-05
1.4282e-05
1.51474e-05
1.54012e-05
1.53891e-05
1.53756e-05
1.54325e-05
1.57234e-05
1.66234e-05
2.03693e-05
2.07559e-05
2.21951e-05
2.33576e-05
2.34891e-05
2.32247e-05
2.23705e-05
2.14609e-05
2.10542e-05
2.10425e-05
2.11687e-05
2.12268e-05
2.11455e-05
2.10781e-05
2.10838e-05
2.11141e-05
2.1206e-05
2.14211e-05
2.07603e-05
2.10372e-05
2.13925e-05
2.15778e-05
2.15477e-05
2.13944e-05
2.13703e-05
2.15438e-05
2.20004e-05
2.21974e-05
2.22015e-05
2.20698e-05
2.16874e-05
2.14823e-05
2.14467e-05
2.14737e-05
2.1667e-05
2.19157e-05
2.28869e-05
2.36045e-05
2.22346e-05
2.09351e-05
2.06639e-05
2.06574e-05
2.08175e-05
2.12661e-05
2.15904e-05
2.16811e-05
2.16344e-05
2.13676e-05
2.11377e-05
2.1093e-05
2.11308e-05
2.13854e-05
2.21101e-05
2.26925e-05
2.06208e-05
2.46986e-05
2.48536e-05
2.27153e-05
2.1482e-05
2.1247e-05
2.12675e-05
2.13758e-05
2.14007e-05
2.1364e-05
2.1167e-05
2.10237e-05
2.10075e-05
2.10223e-05
2.10706e-05
2.12222e-05
2.16572e-05
2.21444e-05
2.07012e-05
2.22163e-05
2.14565e-05
2.1122e-05
2.14862e-05
2.23092e-05
2.25761e-05
2.26424e-05
2.27383e-05
2.30579e-05
2.34305e-05
2.355e-05
2.35398e-05
2.33916e-05
2.30506e-05
2.28596e-05
2.2658e-05
2.2577e-05
2.02361e-05
2.0234e-05
2.04605e-05
2.12122e-05
2.19575e-05
2.19848e-05
2.18942e-05
2.19042e-05
2.2188e-05
2.32889e-05
2.39909e-05
2.40682e-05
2.39536e-05
2.34279e-05
2.25743e-05
2.19379e-05
2.14829e-05
2.1238e-05
2.02335e-05
2.02118e-05
2.074e-05
2.17138e-05
2.18259e-05
2.16106e-05
2.14158e-05
2.14249e-05
2.16795e-05
2.2544e-05
2.29911e-05
2.30224e-05
2.2917e-05
2.24677e-05
2.18314e-05
2.13551e-05
2.10626e-05
2.09405e-05
2.06929e-05
2.08971e-05
2.12251e-05
2.11811e-05
2.09649e-05
2.09354e-05
2.10626e-05
2.16898e-05
2.21878e-05
2.2177e-05
2.18605e-05
2.12142e-05
2.08565e-05
2.07035e-05
2.06615e-05
2.06631e-05
2.07123e-05
2.08375e-05
2.14965e-05
2.24062e-05
2.1785e-05
2.05883e-05
2.03717e-05
2.05692e-05
2.15019e-05
2.21044e-05
2.20837e-05
2.16104e-05
2.0924e-05
2.05676e-05
2.0409e-05
2.0356e-05
2.03544e-05
2.03965e-05
2.06045e-05
2.10969e-05
2.1535e-05
2.15409e-05
2.12551e-05
2.06675e-05
2.05508e-05
2.08229e-05
2.15581e-05
2.15999e-05
2.13378e-05
2.07808e-05
2.05336e-05
2.04802e-05
2.04844e-05
2.05222e-05
2.06924e-05
2.09574e-05
2.10678e-05
2.10886e-05
2.05225e-05
2.07535e-05
2.08202e-05
2.07571e-05
2.06913e-05
2.08048e-05
2.1209e-05
2.13619e-05
2.13629e-05
2.13615e-05
2.14394e-05
2.17613e-05
2.20114e-05
2.20656e-05
2.20331e-05
2.18011e-05
2.12598e-05
2.09361e-05
2.0593e-05
2.08596e-05
2.20203e-05
2.28486e-05
2.27395e-05
2.20383e-05
2.18325e-05
2.19118e-05
2.19718e-05
2.19473e-05
2.18393e-05
2.1761e-05
2.17399e-05
2.17181e-05
2.16113e-05
2.12055e-05
2.08144e-05
2.06118e-05
2.03532e-05
2.1149e-05
2.09827e-05
2.08016e-05
2.09134e-05
2.12905e-05
2.14299e-05
2.14213e-05
2.12593e-05
2.08423e-05
2.05863e-05
2.04798e-05
2.04533e-05
2.04549e-05
2.04839e-05
2.05737e-05
2.06392e-05
2.06761e-05
2.00693e-05
2.05894e-05
2.06683e-05
2.05491e-05
2.05778e-05
2.08914e-05
2.12073e-05
2.13041e-05
2.13036e-05
2.12259e-05
2.09625e-05
2.07371e-05
2.05939e-05
2.04924e-05
2.04129e-05
2.03539e-05
2.03211e-05
2.0313e-05
2.00986e-05
2.02197e-05
2.02191e-05
2.01585e-05
2.01824e-05
2.02525e-05
2.04302e-05
2.06968e-05
2.08693e-05
2.08982e-05
2.08042e-05
2.05917e-05
2.04838e-05
2.04394e-05
2.04225e-05
2.04158e-05
2.04139e-05
2.04172e-05
2.04752e-05
2.10452e-05
2.07812e-05
2.03338e-05
2.02359e-05
2.02455e-05
2.0349e-05
2.05506e-05
2.06601e-05
2.06659e-05
2.06037e-05
2.05256e-05
2.04822e-05
2.044e-05
2.03948e-05
2.03607e-05
2.03485e-05
2.0351e-05
2.02056e-05
2.09074e-05
2.12506e-05
2.1261e-05
2.10207e-05
2.05599e-05
2.04753e-05
2.05679e-05
2.10208e-05
2.14619e-05
2.15335e-05
2.14585e-05
2.11037e-05
2.07382e-05
2.05636e-05
2.04927e-05
2.04759e-05
2.04781e-05
2.01191e-05
2.12996e-05
2.24971e-05
2.26228e-05
2.22175e-05
2.10996e-05
2.05955e-05
2.05391e-05
2.06654e-05
2.09646e-05
2.10537e-05
2.10513e-05
2.10473e-05
2.10564e-05
2.10874e-05
2.11359e-05
2.11615e-05
2.11974e-05
2.03794e-05
2.22166e-05
2.25429e-05
2.20972e-05
2.09628e-05
2.04124e-05
2.02669e-05
2.02389e-05
2.02794e-05
2.05118e-05
2.13735e-05
2.21605e-05
2.23688e-05
2.23506e-05
2.22231e-05
2.21843e-05
2.22073e-05
2.23301e-05
2.02075e-05
2.06713e-05
2.07172e-05
2.05708e-05
2.03249e-05
2.02283e-05
2.02034e-05
2.02026e-05
2.02149e-05
2.02768e-05
2.05476e-05
2.11209e-05
2.14622e-05
2.16645e-05
2.17971e-05
2.19555e-05
2.22593e-05
2.27948e-05
2.0226e-05
2.0281e-05
2.0246e-05
2.02113e-05
2.0253e-05
2.04283e-05
2.05276e-05
2.05483e-05
2.05452e-05
2.05089e-05
2.04526e-05
2.04429e-05
2.04508e-05
2.05156e-05
2.07791e-05
2.15581e-05
2.22481e-05
2.24573e-05
2.00458e-05
2.00447e-05
2.00059e-05
1.99277e-05
1.98357e-05
1.97229e-05
1.94866e-05
1.93957e-05
1.94677e-05
1.97816e-05
2.06163e-05
2.15005e-05
2.21054e-05
2.26326e-05
2.37534e-05
2.45391e-05
2.56417e-05
2.68539e-05
2.01935e-05
1.7074e-05
1.3387e-05
1.40162e-05
1.59246e-05
1.89471e-05
2.20167e-05
2.71514e-05
3.7332e-05
5.006e-05
6.33409e-05
7.369e-05
8.02628e-05
8.64019e-05
9.66269e-05
0.000106722
0.000121334
0.000140733
3.09245e-05
0.000109935
0.000139319
0.000177008
0.0002186
0.00024947
0.000289356
0.000358059
0.00044794
0.000535258
0.000597535
0.000627375
0.000638724
0.000645653
0.000656608
0.000680943
0.000713219
0.000741944
0.00250566
0.00225862
0.00200032
0.00188157
0.00179381
0.00174623
0.00173761
0.00174698
0.00177629
0.00178252
0.00177011
0.0016888
0.00155242
0.0014803
0.00142903
0.00136224
0.00128489
0.00122415
2.10833e-07
2.87258e-07
2.34125e-07
1.74693e-07
1.38805e-07
1.15011e-07
1.03168e-07
9.22074e-08
7.74735e-08
6.06477e-08
4.52484e-08
3.46008e-08
2.92926e-08
2.95015e-08
3.0463e-08
3.15211e-08
3.28037e-08
3.4624e-08
3.65135e-08
3.82197e-08
4.03913e-08
4.18709e-08
4.33046e-08
4.43792e-08
4.39814e-08
3.79775e-08
3.31834e-08
3.14185e-08
2.95663e-08
2.75666e-08
2.5394e-08
2.31336e-08
2.08658e-08
1.86672e-08
1.65842e-08
1.46432e-08
1.28493e-08
1.11925e-08
9.6642e-09
8.26507e-09
7.00076e-09
5.8741e-09
4.88338e-09
4.02325e-09
3.28584e-09
2.66134e-09
2.13825e-09
1.70432e-09
1.34759e-09
1.05694e-09
8.22265e-10
6.34516e-10
4.85699e-10
3.68839e-10
2.77912e-10
2.07786e-10
1.5416e-10
1.13492e-10
8.2899e-11
6.0075e-11
4.31796e-11
3.07825e-11
2.17528e-11
1.52403e-11
1.05777e-11
7.27122e-12
4.95188e-12
3.34267e-12
2.23781e-12
1.48656e-12
9.80327e-13
6.4204e-13
4.17771e-13
2.70205e-13
1.73797e-13
1.11229e-13
7.08745e-14
4.49946e-14
2.84838e-14
1.79993e-14
1.13692e-14
7.19163e-15
4.56768e-15
2.924e-15
1.89673e-15
1.25595e-15
8.5706e-16
6.09229e-16
4.55518e-16
3.60569e-16
3.02312e-16
2.66768e-16
2.45364e-16
2.32962e-16
2.26272e-16
2.23116e-16
2.22093e-16
2.22045e-16
2.22045e-16
2.22045e-16
2.22045e-16
2.22045e-16
2.22045e-16
2.22045e-16
2.22045e-16
2.22045e-16
2.22045e-16
2.22045e-16
2.22045e-16
2.22045e-16
2.22045e-16
2.22045e-16
2.22045e-16
2.22045e-16
2.22045e-16
2.22045e-16
2.22045e-16
2.22045e-16
2.22045e-16
2.22045e-16
2.22045e-16
2.22045e-16
2.22045e-16
2.22045e-16
2.22045e-16
2.22045e-16
2.22045e-16
2.22045e-16
2.22045e-16
2.22045e-16
2.22045e-16
2.22045e-16
2.22045e-16
2.22045e-16
2.22045e-16
2.22045e-16
2.22045e-16
2.22045e-16
2.22045e-16
2.22045e-16
2.22045e-16
2.22045e-16
2.22045e-16
2.22045e-16
2.22045e-16
2.22045e-16
2.22045e-16
2.22045e-16
2.22045e-16
2.22045e-16
2.22045e-16
2.22045e-16
2.22045e-16
2.22045e-16
2.22045e-16
2.22045e-16
2.22045e-16
2.22045e-16
2.22045e-16
2.22045e-16
2.22045e-16
2.22045e-16
2.3403e-16
4.14592e-16
2.05725e-15
1.35619e-14
7.91453e-14
3.93808e-13
1.69946e-12
6.50321e-12
2.25905e-11
7.28599e-11
2.23969e-10
7.96076e-10
2.35952e-09
1.95354e-08
2.8546e-08
4.93754e-08
7.17955e-08
1.7615e-07
7.96816e-07
1.06697e-06
1.31549e-06
1.23951e-06
8.9307e-07
6.83971e-07
6.06612e-07
5.68691e-07
5.37649e-07
5.06271e-07
4.76009e-07
4.5668e-07
4.5374e-07
4.68393e-07
4.89012e-07
5.14932e-07
5.46981e-07
5.84929e-07
6.28204e-07
6.7571e-07
7.28923e-07
7.86574e-07
8.32153e-07
8.44909e-07
8.20182e-07
7.65552e-07
6.90884e-07
6.1663e-07
5.55333e-07
5.13926e-07
4.71248e-07
4.26597e-07
3.81805e-07
3.3881e-07
2.9888e-07
2.62878e-07
2.31082e-07
2.0301e-07
1.77804e-07
1.54658e-07
1.33394e-07
1.14083e-07
9.67573e-08
8.13905e-08
6.79181e-08
5.6248e-08
4.62513e-08
3.77633e-08
3.06101e-08
2.46276e-08
1.96639e-08
1.5579e-08
1.22455e-08
9.5493e-09
7.38857e-09
5.67228e-09
4.32054e-09
3.26469e-09
2.44663e-09
1.81812e-09
1.33907e-09
9.77425e-10
7.06332e-10
5.05704e-10
3.57884e-10
2.50616e-10
1.73958e-10
1.19804e-10
8.1921e-11
5.56458e-11
3.7562e-11
2.52047e-11
1.68176e-11
1.11621e-11
7.37213e-12
4.84694e-12
3.17349e-12
2.06996e-12
1.34553e-12
8.71911e-13
5.63413e-13
3.63136e-13
2.33508e-13
1.49837e-13
9.59669e-14
6.13624e-14
3.91853e-14
2.50062e-14
1.59524e-14
1.01853e-14
6.52999e-15
4.20952e-15
2.72955e-15
1.79859e-15
1.22402e-15
8.67437e-16
6.40528e-16
4.93281e-16
3.97111e-16
3.34522e-16
2.94031e-16
2.67939e-16
2.5138e-16
2.41047e-16
2.34577e-16
2.30466e-16
2.27801e-16
2.26035e-16
2.24844e-16
2.2403e-16
2.23467e-16
2.23074e-16
2.22797e-16
2.226e-16
2.22457e-16
2.22354e-16
2.22278e-16
2.22221e-16
2.22179e-16
2.22147e-16
2.22123e-16
2.22104e-16
2.2209e-16
2.22079e-16
2.2207e-16
2.22064e-16
2.22059e-16
2.22055e-16
2.22052e-16
2.2205e-16
2.22048e-16
2.22046e-16
2.22045e-16
2.22045e-16
2.22045e-16
2.22045e-16
2.22045e-16
2.22045e-16
2.22045e-16
2.22045e-16
2.22045e-16
2.22045e-16
2.22045e-16
2.22045e-16
2.22045e-16
2.22045e-16
2.22045e-16
2.22045e-16
2.22045e-16
2.22045e-16
2.22045e-16
2.22045e-16
2.22045e-16
2.22045e-16
2.22045e-16
2.22045e-16
2.22045e-16
2.22045e-16
2.22045e-16
2.22045e-16
2.22046e-16
2.22079e-16
2.22676e-16
2.30036e-16
2.97457e-16
7.83723e-16
3.64903e-15
1.78649e-14
7.87789e-14
3.09466e-13
1.1009e-12
3.60683e-12
1.11269e-11
3.45026e-11
1.0145e-10
3.75578e-10
1.08129e-09
2.20457e-09
5.34864e-09
2.38617e-08
8.27805e-07
8.40997e-07
1.50966e-06
2.23684e-06
2.45359e-06
2.49239e-06
2.50708e-06
2.51839e-06
2.54248e-06
2.58729e-06
2.64806e-06
2.72374e-06
2.81482e-06
2.9238e-06
3.07367e-06
3.26423e-06
3.4941e-06
3.75403e-06
4.03348e-06
4.32016e-06
4.5985e-06
4.85251e-06
5.06306e-06
5.21423e-06
5.29381e-06
5.29404e-06
5.20881e-06
5.04009e-06
4.79423e-06
4.47995e-06
4.11344e-06
3.71293e-06
3.29736e-06
2.88781e-06
2.50128e-06
2.15249e-06
1.85236e-06
1.60446e-06
1.40722e-06
1.24167e-06
1.08844e-06
9.47016e-07
8.17895e-07
7.01213e-07
5.96814e-07
5.04455e-07
4.23758e-07
3.5389e-07
2.93676e-07
2.42067e-07
1.98135e-07
1.60996e-07
1.29816e-07
1.0384e-07
8.23941e-08
6.48536e-08
5.06296e-08
3.91886e-08
3.00604e-08
2.28395e-08
1.71753e-08
1.27785e-08
9.39054e-09
6.82621e-09
4.87756e-09
3.459e-09
2.44782e-09
1.72653e-09
1.21293e-09
8.48494e-10
5.91041e-10
4.10025e-10
2.83344e-10
1.95098e-10
1.33902e-10
9.16365e-11
6.2548e-11
4.25878e-11
2.8928e-11
1.96029e-11
1.32518e-11
8.93587e-12
6.00972e-12
4.03055e-12
2.69529e-12
1.79684e-12
1.19407e-12
7.91038e-13
5.22244e-13
3.43564e-13
2.25611e-13
1.47753e-13
9.59716e-14
6.2419e-14
4.15359e-14
2.80544e-14
1.88601e-14
1.25257e-14
8.25736e-15
5.43233e-15
3.58919e-15
2.39479e-15
1.62587e-15
1.14065e-15
8.34203e-16
6.3617e-16
5.0544e-16
4.17722e-16
3.58226e-16
3.17587e-16
2.89672e-16
2.70379e-16
2.56943e-16
2.475e-16
2.40792e-16
2.35974e-16
2.32476e-16
2.29906e-16
2.28004e-16
2.26575e-16
2.2551e-16
2.24687e-16
2.24076e-16
2.23599e-16
2.23229e-16
2.22957e-16
2.22738e-16
2.22563e-16
2.22436e-16
2.22343e-16
2.22259e-16
2.22184e-16
2.22125e-16
2.22086e-16
2.22065e-16
2.22054e-16
2.2205e-16
2.22048e-16
2.22046e-16
2.22046e-16
2.22045e-16
2.22045e-16
2.22045e-16
2.22045e-16
2.22045e-16
2.22045e-16
2.22045e-16
2.22045e-16
2.22045e-16
2.22045e-16
2.22045e-16
2.22045e-16
2.22045e-16
2.22045e-16
2.22045e-16
2.22045e-16
2.22045e-16
2.22045e-16
2.22045e-16
2.22045e-16
2.22045e-16
2.22046e-16
2.22065e-16
2.22284e-16
2.24286e-16
2.38853e-16
3.25702e-16
7.61949e-16
2.65358e-15
9.88918e-15
3.49779e-14
1.14716e-13
3.52558e-13
1.03062e-12
2.91623e-12
8.35178e-12
2.50693e-11
6.38817e-11
2.03761e-10
1.39011e-09
8.61999e-07
6.38545e-07
1.07307e-06
2.16564e-06
2.64574e-06
2.83089e-06
2.92717e-06
3.0258e-06
3.14679e-06
3.30632e-06
3.51204e-06
3.77176e-06
4.09645e-06
4.49851e-06
4.98521e-06
5.52689e-06
6.11426e-06
6.73113e-06
7.35786e-06
7.97064e-06
8.54596e-06
9.05734e-06
9.48314e-06
9.80557e-06
1.00113e-05
1.0091e-05
1.00443e-05
9.86495e-06
9.57673e-06
9.19699e-06
8.74164e-06
8.22845e-06
7.67483e-06
7.09704e-06
6.50964e-06
5.9252e-06
5.35418e-06
4.80488e-06
4.2836e-06
3.79479e-06
3.34137e-06
2.92491e-06
2.54584e-06
2.20368e-06
1.89711e-06
1.62432e-06
1.38344e-06
1.17264e-06
9.89077e-07
8.29898e-07
6.92677e-07
5.75071e-07
4.74766e-07
3.89634e-07
3.17784e-07
2.57567e-07
2.07414e-07
1.65896e-07
1.31743e-07
1.03833e-07
8.11897e-08
6.29544e-08
4.84029e-08
3.68762e-08
2.78692e-08
2.08596e-08
1.54592e-08
1.13588e-08
8.28714e-09
6.01268e-09
4.35187e-09
3.14406e-09
2.26759e-09
1.63322e-09
1.1756e-09
8.46607e-10
6.10471e-10
4.40177e-10
3.17101e-10
2.2807e-10
1.63656e-10
1.17085e-10
8.34686e-11
5.92615e-11
4.18857e-11
2.94619e-11
2.06179e-11
1.43535e-11
9.93912e-12
6.84604e-12
4.6904e-12
3.19758e-12
2.1705e-12
1.4673e-12
9.87598e-13
6.62322e-13
4.43458e-13
2.96983e-13
1.98954e-13
1.334e-13
8.97559e-14
6.07466e-14
4.13747e-14
2.83223e-14
1.94559e-14
1.33982e-14
9.24959e-15
6.4123e-15
4.47767e-15
3.1619e-15
2.26753e-15
1.65819e-15
1.24083e-15
9.52668e-16
7.51732e-16
6.10019e-16
5.08946e-16
4.35958e-16
3.82809e-16
3.43457e-16
3.14461e-16
2.92346e-16
2.76002e-16
2.63332e-16
2.53574e-16
2.4638e-16
2.40614e-16
2.36015e-16
2.3271e-16
2.30217e-16
2.27998e-16
2.26025e-16
2.24509e-16
2.23522e-16
2.2295e-16
2.22634e-16
2.22451e-16
2.22335e-16
2.22255e-16
2.22197e-16
2.22154e-16
2.22122e-16
2.22099e-16
2.22081e-16
2.22069e-16
2.22059e-16
2.22053e-16
2.22048e-16
2.22046e-16
2.22045e-16
2.22045e-16
2.22045e-16
2.22045e-16
2.22045e-16
2.22045e-16
2.22045e-16
2.22045e-16
2.22045e-16
2.22045e-16
2.22045e-16
2.22045e-16
2.22045e-16
2.22045e-16
2.22051e-16
2.22102e-16
2.22464e-16
2.24626e-16
2.35592e-16
2.83667e-16
4.69826e-16
1.12852e-15
3.27491e-15
9.87419e-15
2.89494e-14
8.30729e-14
2.29827e-13
7.0714e-13
1.96837e-12
7.29445e-12
7.47788e-11
9.72732e-07
6.10955e-07
8.33075e-07
2.08713e-06
2.65262e-06
2.8696e-06
2.99242e-06
3.13119e-06
3.30599e-06
3.53737e-06
3.83815e-06
4.22121e-06
4.70421e-06
5.30726e-06
6.0431e-06
6.87952e-06
7.77492e-06
8.69716e-06
9.60407e-06
1.04605e-05
1.12364e-05
1.1883e-05
1.2373e-05
1.26886e-05
1.28283e-05
1.27919e-05
1.25794e-05
1.22148e-05
1.17218e-05
1.11248e-05
1.04507e-05
9.72481e-06
8.96999e-06
8.20626e-06
7.45044e-06
6.71613e-06
6.01383e-06
5.35119e-06
4.73337e-06
4.16339e-06
3.64246e-06
3.17041e-06
2.74598e-06
2.36719e-06
2.03145e-06
1.73552e-06
1.4756e-06
1.24806e-06
1.05058e-06
8.80593e-07
7.35102e-07
6.11225e-07
5.06268e-07
4.17729e-07
3.4348e-07
2.81335e-07
2.29496e-07
1.86434e-07
1.50819e-07
1.21494e-07
9.74559e-08
7.78399e-08
6.19042e-08
4.90162e-08
3.86405e-08
3.03252e-08
2.36915e-08
1.84238e-08
1.42604e-08
1.09853e-08
8.42133e-09
6.42373e-09
4.87502e-09
3.6803e-09
2.76333e-09
2.06317e-09
1.53141e-09
1.12976e-09
8.28093e-10
6.0286e-10
4.35729e-10
3.12513e-10
2.2229e-10
1.56705e-10
1.09396e-10
7.55549e-11
5.15642e-11
3.47249e-11
2.30316e-11
1.50183e-11
9.58351e-12
5.99206e-12
3.68814e-12
2.23056e-12
1.323e-12
7.68028e-13
4.35516e-13
2.40776e-13
1.29537e-13
6.77351e-14
3.44346e-14
1.70722e-14
8.32399e-15
4.07087e-15
2.07085e-15
1.14801e-15
7.21073e-16
5.16499e-16
4.11165e-16
3.51463e-16
3.14301e-16
2.89465e-16
2.72109e-16
2.59581e-16
2.50224e-16
2.47897e-16
2.53849e-16
2.66142e-16
2.79516e-16
2.90664e-16
2.98386e-16
3.02568e-16
3.03106e-16
3.01376e-16
2.97337e-16
2.91656e-16
2.85132e-16
2.78234e-16
2.71386e-16
2.64884e-16
2.58864e-16
2.53403e-16
2.48562e-16
2.44352e-16
2.40731e-16
2.37635e-16
2.35002e-16
2.32774e-16
2.309e-16
2.29331e-16
2.28022e-16
2.26933e-16
2.26029e-16
2.25278e-16
2.24651e-16
2.24123e-16
2.23678e-16
2.23283e-16
2.22953e-16
2.22608e-16
2.22316e-16
2.22045e-16
2.22045e-16
2.22045e-16
2.22045e-16
2.22045e-16
2.22045e-16
2.22045e-16
2.22045e-16
2.2206e-16
2.22191e-16
2.22549e-16
2.23097e-16
2.2388e-16
2.25035e-16
2.27707e-16
2.3411e-16
2.5242e-16
3.14482e-16
5.69535e-16
1.8842e-15
1.00957e-14
5.6991e-14
3.01461e-13
1.16605e-12
3.90437e-12
1.56559e-11
2.07122e-11
5.37052e-11
5.69117e-11
1.20032e-06
6.5299e-07
8.18525e-07
2.13839e-06
2.71211e-06
2.95401e-06
3.12441e-06
3.3387e-06
3.62041e-06
3.99843e-06
4.50094e-06
5.15972e-06
6.01021e-06
7.08962e-06
8.42658e-06
1.00079e-05
1.16872e-05
1.33731e-05
1.49765e-05
1.6428e-05
1.76453e-05
1.85522e-05
1.90943e-05
1.93124e-05
1.91951e-05
1.87687e-05
1.80882e-05
1.71982e-05
1.61515e-05
1.50004e-05
1.37922e-05
1.25667e-05
1.13562e-05
1.01855e-05
9.07293e-06
8.03114e-06
7.06775e-06
6.18643e-06
5.3878e-06
4.67014e-06
4.02996e-06
3.46274e-06
2.96322e-06
2.52571e-06
2.14453e-06
1.81416e-06
1.52924e-06
1.28458e-06
1.07529e-06
8.96882e-07
7.45381e-07
6.17054e-07
5.08805e-07
4.18203e-07
3.4246e-07
2.79395e-07
2.27099e-07
1.83903e-07
1.48362e-07
1.19234e-07
9.54542e-08
7.61175e-08
6.04563e-08
4.78232e-08
3.76743e-08
2.95547e-08
2.3086e-08
1.79544e-08
1.3901e-08
1.07135e-08
8.21815e-09
6.27352e-09
4.76518e-09
3.60085e-09
2.70649e-09
2.02298e-09
1.50334e-09
1.1104e-09
8.14948e-10
5.94087e-10
4.29993e-10
3.08857e-10
2.20038e-10
1.55381e-10
1.08674e-10
7.52076e-11
5.14461e-11
3.47321e-11
2.31099e-11
1.51124e-11
9.69827e-12
6.06977e-12
3.73883e-12
2.26234e-12
1.34205e-12
7.78865e-13
4.41212e-13
2.43355e-13
1.30347e-13
6.76255e-14
3.39112e-14
1.64222e-14
7.69761e-15
3.5258e-15
1.61899e-15
7.87478e-16
4.41843e-16
3.04831e-16
2.52891e-16
2.33917e-16
2.27117e-16
2.24631e-16
2.23636e-16
2.23162e-16
2.22886e-16
2.22693e-16
2.22584e-16
2.22552e-16
2.22575e-16
2.2265e-16
2.22743e-16
2.22936e-16
2.23091e-16
2.23203e-16
2.23273e-16
2.23299e-16
2.23279e-16
2.23235e-16
2.23176e-16
2.231e-16
2.23006e-16
2.2291e-16
2.22814e-16
2.22723e-16
2.22638e-16
2.22559e-16
2.22488e-16
2.22425e-16
2.22368e-16
2.22318e-16
2.22275e-16
2.22238e-16
2.22206e-16
2.22179e-16
2.22156e-16
2.22136e-16
2.22119e-16
2.22104e-16
2.22092e-16
2.2208e-16
2.22071e-16
2.2206e-16
2.22052e-16
2.22047e-16
2.22045e-16
2.22048e-16
2.22307e-16
2.23192e-16
2.25284e-16
2.29844e-16
2.37778e-16
2.54033e-16
2.80308e-16
3.33352e-16
4.29402e-16
6.25043e-16
1.04666e-15
2.01826e-15
4.40857e-15
1.0624e-14
2.73036e-14
7.36871e-14
2.00615e-13
5.47805e-13
1.4471e-12
3.4525e-12
1.36724e-11
1.56827e-11
3.64406e-11
3.75464e-11
1.50818e-06
7.64773e-07
8.83627e-07
2.27095e-06
2.84403e-06
3.10697e-06
3.35263e-06
3.69584e-06
4.17966e-06
4.85894e-06
5.79393e-06
7.06541e-06
8.75834e-06
1.09645e-05
1.37621e-05
1.71246e-05
2.06595e-05
2.40948e-05
2.71968e-05
2.97524e-05
3.16014e-05
3.25591e-05
3.28641e-05
3.24096e-05
3.13435e-05
2.98056e-05
2.7914e-05
2.57881e-05
2.35464e-05
2.12754e-05
1.90456e-05
1.69123e-05
1.49099e-05
1.30601e-05
1.13746e-05
9.85627e-06
8.50146e-06
7.30226e-06
6.24819e-06
5.32749e-06
4.52721e-06
3.83497e-06
3.23885e-06
2.72733e-06
2.28981e-06
1.91716e-06
1.60058e-06
1.33238e-06
1.1061e-06
9.15583e-07
7.5509e-07
6.20783e-07
5.09226e-07
4.16414e-07
3.39431e-07
2.75784e-07
2.23334e-07
1.8025e-07
1.44979e-07
1.162e-07
9.28015e-08
7.38434e-08
5.85388e-08
4.62291e-08
3.63654e-08
2.8492e-08
2.2232e-08
1.72746e-08
1.33649e-08
1.02943e-08
7.89311e-09
6.02359e-09
4.57458e-09
3.45669e-09
2.59835e-09
1.94255e-09
1.44403e-09
1.06707e-09
7.83581e-10
5.71611e-10
4.14061e-10
2.97696e-10
2.1232e-10
1.50119e-10
1.05146e-10
7.28866e-11
4.99549e-11
3.37985e-11
2.25495e-11
1.47869e-11
9.53174e-12
5.98056e-12
3.69469e-12
2.24346e-12
1.33617e-12
7.7882e-13
4.43261e-13
2.45759e-13
1.32406e-13
6.91437e-14
3.49217e-14
1.70401e-14
8.04716e-15
3.70869e-15
1.70683e-15
8.25479e-16
4.55892e-16
3.08435e-16
2.52479e-16
2.32281e-16
2.25343e-16
2.23072e-16
2.22362e-16
2.22148e-16
2.22084e-16
2.22065e-16
2.22058e-16
2.22055e-16
2.22053e-16
2.22053e-16
2.22052e-16
2.22053e-16
2.22054e-16
2.22055e-16
2.22057e-16
2.22058e-16
2.22058e-16
2.22059e-16
2.22059e-16
2.22058e-16
2.22058e-16
2.22057e-16
2.22056e-16
2.22055e-16
2.22054e-16
2.22053e-16
2.22052e-16
2.22052e-16
2.22051e-16
2.2205e-16
2.22049e-16
2.22048e-16
2.22048e-16
2.22047e-16
2.22047e-16
2.22047e-16
2.22046e-16
2.22046e-16
2.22046e-16
2.22045e-16
2.22045e-16
2.22045e-16
2.22045e-16
2.22045e-16
2.22045e-16
2.22045e-16
2.22053e-16
2.22435e-16
2.23831e-16
2.27203e-16
2.34125e-16
2.48618e-16
2.71948e-16
3.19468e-16
4.04361e-16
5.75764e-16
9.38959e-16
1.76103e-15
3.73827e-15
8.7728e-15
2.18993e-14
5.71933e-14
1.49884e-13
3.88278e-13
9.92056e-13
2.13335e-12
8.16558e-12
8.43722e-12
1.05016e-11
1.36119e-11
1.88801e-06
9.10057e-07
1.0366e-06
2.47785e-06
3.05585e-06
3.35725e-06
3.77979e-06
4.41606e-06
5.36514e-06
6.77789e-06
8.83944e-06
1.17841e-05
1.58638e-05
2.1303e-05
2.82309e-05
3.64152e-05
4.47355e-05
5.22824e-05
5.83827e-05
6.23926e-05
6.42111e-05
6.44228e-05
6.26434e-05
5.95314e-05
5.54495e-05
5.08082e-05
4.58825e-05
4.09025e-05
3.61049e-05
3.15843e-05
2.74101e-05
2.36354e-05
2.02571e-05
1.72682e-05
1.46571e-05
1.23931e-05
1.04439e-05
8.77551e-06
7.355e-06
6.15125e-06
5.1339e-06
4.27688e-06
3.55692e-06
2.95306e-06
2.44661e-06
2.02481e-06
1.67294e-06
1.37884e-06
1.13342e-06
9.28773e-07
7.60203e-07
6.21441e-07
5.06685e-07
4.12032e-07
3.34169e-07
2.70277e-07
2.17982e-07
1.7529e-07
1.40531e-07
1.12311e-07
8.94668e-08
7.10308e-08
5.61993e-08
4.43066e-08
3.48027e-08
2.72344e-08
2.12291e-08
1.64818e-08
1.27433e-08
9.81079e-09
7.51992e-09
5.73775e-09
4.35732e-09
3.29281e-09
2.47571e-09
1.85149e-09
1.37698e-09
1.01812e-09
7.48175e-10
5.46245e-10
3.96078e-10
2.85091e-10
2.03596e-10
1.44166e-10
1.01148e-10
7.02528e-11
4.82568e-11
3.27358e-11
2.19047e-11
1.44182e-11
9.33022e-12
5.88906e-12
3.6513e-12
2.2262e-12
1.33194e-12
7.8035e-13
4.46739e-13
2.49362e-13
1.35393e-13
7.13327e-14
3.63862e-14
1.7947e-14
8.57026e-15
3.9906e-15
1.84908e-15
8.92768e-16
4.85743e-16
3.20849e-16
2.57318e-16
2.34045e-16
2.25937e-16
2.23249e-16
2.22401e-16
2.22146e-16
2.22072e-16
2.22052e-16
2.22047e-16
2.22045e-16
2.22045e-16
2.22045e-16
2.22045e-16
2.22045e-16
2.22045e-16
2.22045e-16
2.22045e-16
2.22045e-16
2.22045e-16
2.22045e-16
2.22045e-16
2.22045e-16
2.22045e-16
2.22045e-16
2.22045e-16
2.22045e-16
2.22045e-16
2.22045e-16
2.22045e-16
2.22045e-16
2.22045e-16
2.22045e-16
2.22045e-16
2.22045e-16
2.22045e-16
2.22045e-16
2.22045e-16
2.22045e-16
2.22045e-16
2.22045e-16
2.22045e-16
2.22045e-16
2.22045e-16
2.22045e-16
2.22045e-16
2.22045e-16
2.22045e-16
2.22045e-16
2.22045e-16
2.22217e-16
2.23212e-16
2.25925e-16
2.31859e-16
2.43799e-16
2.6448e-16
3.03772e-16
3.77026e-16
5.17082e-16
8.08059e-16
1.45024e-15
2.94882e-15
6.64562e-15
1.59725e-14
3.98959e-14
1.00453e-13
2.43229e-13
6.73356e-13
1.19168e-12
3.64238e-12
3.7091e-12
3.81868e-12
4.57103e-12
2.33567e-06
1.09465e-06
1.26477e-06
2.76813e-06
3.36807e-06
3.86032e-06
4.71312e-06
6.11406e-06
8.409e-06
1.2098e-05
1.78254e-05
2.63269e-05
3.82396e-05
5.39291e-05
7.31681e-05
9.45653e-05
0.000114517
0.000131003
0.000139855
0.000142911
0.000142818
0.000135324
0.000125713
0.000114032
0.000101425
8.89301e-05
7.69886e-05
6.59217e-05
5.60699e-05
4.73968e-05
3.98408e-05
3.33849e-05
2.78255e-05
2.31229e-05
1.91699e-05
1.58323e-05
1.30333e-05
1.07002e-05
8.76919e-06
7.17784e-06
5.87078e-06
4.79894e-06
3.92058e-06
3.20123e-06
2.61285e-06
2.12985e-06
1.73422e-06
1.41067e-06
1.14726e-06
9.34065e-07
7.59636e-07
6.16498e-07
4.99372e-07
4.0371e-07
3.25703e-07
2.62193e-07
2.10575e-07
1.68701e-07
1.348e-07
1.07416e-07
8.53478e-08
6.76089e-08
5.33884e-08
4.20209e-08
3.29611e-08
2.57633e-08
2.00635e-08
1.55654e-08
1.20281e-08
9.25679e-09
7.09382e-09
5.41237e-09
4.11062e-09
3.10713e-09
2.33699e-09
1.74865e-09
1.30134e-09
9.62947e-10
7.08286e-10
5.17677e-10
3.75825e-10
2.70892e-10
1.93762e-10
1.37449e-10
9.66316e-11
6.72722e-11
4.63306e-11
3.15267e-11
2.11678e-11
1.39947e-11
9.09546e-12
5.78309e-12
3.60031e-12
2.20522e-12
1.32624e-12
7.8158e-13
4.50433e-13
2.53336e-13
1.38745e-13
7.38268e-14
3.80898e-14
1.90325e-14
9.21946e-15
4.35561e-15
2.04196e-15
9.885e-16
5.30369e-16
3.40397e-16
2.6537e-16
2.37166e-16
2.27077e-16
2.23642e-16
2.22528e-16
2.22185e-16
2.22083e-16
2.22055e-16
2.22047e-16
2.22045e-16
2.22045e-16
2.22045e-16
2.22045e-16
2.22045e-16
2.22045e-16
2.22045e-16
2.22045e-16
2.22045e-16
2.22045e-16
2.22045e-16
2.22045e-16
2.22045e-16
2.22045e-16
2.22045e-16
2.22045e-16
2.22045e-16
2.22045e-16
2.22045e-16
2.22045e-16
2.22045e-16
2.22045e-16
2.22045e-16
2.22045e-16
2.22045e-16
2.22045e-16
2.22045e-16
2.22045e-16
2.22045e-16
2.22045e-16
2.22045e-16
2.22045e-16
2.22045e-16
2.22045e-16
2.22045e-16
2.22045e-16
2.22045e-16
2.22045e-16
2.22045e-16
2.22045e-16
2.22057e-16
2.22607e-16
2.24526e-16
2.29116e-16
2.38085e-16
2.5682e-16
2.86642e-16
3.46842e-16
4.55849e-16
6.77222e-16
1.15014e-15
2.21261e-15
4.73015e-15
1.08093e-14
2.55888e-14
6.08018e-14
1.36704e-13
3.68942e-13
5.34386e-13
1.1115e-12
1.24969e-12
1.27005e-12
1.46556e-12
2.81501e-06
1.28004e-06
1.54033e-06
3.20978e-06
3.97972e-06
5.07107e-06
7.24594e-06
1.12416e-05
1.84078e-05
3.06091e-05
5.00173e-05
7.85561e-05
0.000117025
0.000164685
0.000218451
0.000271715
0.000315425
0.000342248
0.000350698
0.000332917
0.000320037
0.000281984
0.000249236
0.000214441
0.000181131
0.000151388
0.000124996
0.00010245
8.36919e-05
6.82307e-05
5.54775e-05
4.52841e-05
3.67818e-05
2.96086e-05
2.37606e-05
1.90748e-05
1.53164e-05
1.23053e-05
9.89374e-06
7.95896e-06
6.40604e-06
5.15815e-06
4.15444e-06
3.34749e-06
2.69913e-06
2.17661e-06
1.75713e-06
1.42137e-06
1.14977e-06
9.28532e-07
7.48885e-07
6.03355e-07
4.85565e-07
3.90276e-07
3.13234e-07
2.5099e-07
2.00749e-07
1.60244e-07
1.27633e-07
1.01419e-07
8.03869e-08
6.35457e-08
5.00903e-08
3.9366e-08
3.08406e-08
2.40821e-08
1.87399e-08
1.45304e-08
1.12243e-08
8.6366e-09
6.61847e-09
5.05044e-09
3.8369e-09
2.90153e-09
2.18364e-09
1.6351e-09
1.2179e-09
9.0213e-10
6.6433e-10
4.86198e-10
3.53502e-10
2.55232e-10
1.82907e-10
1.30025e-10
9.16305e-11
6.39639e-11
4.41862e-11
3.01752e-11
2.03399e-11
1.35151e-11
8.82705e-12
5.65867e-12
3.53907e-12
2.17894e-12
1.31815e-12
7.82025e-13
4.54138e-13
2.57643e-13
1.42499e-13
7.66786e-14
4.00726e-14
2.03199e-14
1.00066e-14
4.8098e-15
2.28919e-15
1.11529e-15
5.91561e-16
3.68179e-16
2.77238e-16
2.41941e-16
2.28889e-16
2.24291e-16
2.22749e-16
2.22255e-16
2.22105e-16
2.22061e-16
2.22049e-16
2.22046e-16
2.22045e-16
2.22045e-16
2.22045e-16
2.22045e-16
2.22045e-16
2.22045e-16
2.22045e-16
2.22045e-16
2.22045e-16
2.22045e-16
2.22045e-16
2.22045e-16
2.22045e-16
2.22045e-16
2.22045e-16
2.22045e-16
2.22045e-16
2.22045e-16
2.22045e-16
2.22045e-16
2.22045e-16
2.22045e-16
2.22045e-16
2.22045e-16
2.22045e-16
2.22045e-16
2.22045e-16
2.22045e-16
2.22045e-16
2.22045e-16
2.22045e-16
2.22045e-16
2.22045e-16
2.22045e-16
2.22045e-16
2.22045e-16
2.22045e-16
2.22045e-16
2.22045e-16
2.22045e-16
2.22126e-16
2.23101e-16
2.26033e-16
2.32478e-16
2.456e-16
2.70187e-16
3.12144e-16
3.94819e-16
5.49165e-16
8.67781e-16
1.5507e-15
3.08582e-15
6.57276e-15
1.44545e-14
3.31232e-14
6.42125e-14
1.54905e-13
1.91532e-13
2.34052e-13
2.70649e-13
2.81869e-13
3.45051e-13
3.29069e-06
1.52797e-06
1.96289e-06
4.06304e-06
5.54021e-06
8.85767e-06
1.6031e-05
3.0341e-05
5.69609e-05
0.000102227
0.000171847
0.000268339
0.00038904
0.000526637
0.000664898
0.000777702
0.00085413
0.000882238
0.000843799
0.000745095
0.000681413
0.000550925
0.000463169
0.000376017
0.000301413
0.000240287
0.000188349
0.000147602
0.000115358
8.98041e-05
6.95737e-05
5.3621e-05
4.15515e-05
3.24299e-05
2.54818e-05
2.01267e-05
1.59816e-05
1.27435e-05
1.01861e-05
8.1542e-06
6.53446e-06
5.24049e-06
4.20532e-06
3.37653e-06
2.71287e-06
2.18139e-06
1.75287e-06
1.40615e-06
1.12696e-06
9.02899e-07
7.23202e-07
5.79057e-07
4.63389e-07
3.70551e-07
2.96031e-07
2.36223e-07
1.88241e-07
1.49769e-07
1.18948e-07
9.42836e-08
7.45718e-08
5.88425e-08
4.63134e-08
3.63534e-08
2.84532e-08
2.22019e-08
1.72683e-08
1.33856e-08
1.03391e-08
7.95617e-09
6.09864e-09
4.65574e-09
3.53909e-09
2.67828e-09
2.0174e-09
1.51217e-09
1.12766e-09
8.36398e-10
6.16843e-10
4.52194e-10
3.29386e-10
2.38307e-10
1.71166e-10
1.21986e-10
8.62077e-11
6.03685e-11
4.1851e-11
2.8696e-11
1.94326e-11
1.29812e-11
8.53105e-12
5.51235e-12
3.47414e-12
2.15216e-12
1.31149e-12
7.84569e-13
4.59853e-13
2.63583e-13
1.47493e-13
8.04484e-14
4.27256e-14
2.20878e-14
1.11275e-14
5.48539e-15
2.67483e-15
1.32294e-15
6.96725e-16
4.18188e-16
2.9956e-16
2.51298e-16
2.32577e-16
2.25661e-16
2.23228e-16
2.22414e-16
2.22155e-16
2.22076e-16
2.22053e-16
2.22047e-16
2.22045e-16
2.22045e-16
2.22045e-16
2.22045e-16
2.22045e-16