/*--------------------------------*- C++ -*----------------------------------*\
  =========                 |
  \\      /  F ield         | OpenFOAM: The Open Source CFD Toolbox
   \\    /   O peration     | Website:  https://openfoam.org
    \\  /    A nd           | Version:  7
     \\/     M anipulation  |
\*---------------------------------------------------------------------------*/
FoamFile
{
    version     2.0;
    format      ascii;
    class       volScalarField;
    location    "0.007";
    object      nut;
}
// * * * * * * * * * * * * * * * * * * * * * * * * * * * * * * * * * * * * * //

dimensions      [0 2 -1 0 0 0 0];

internalField   nonuniform List<scalar> 
12225
(
0
0
0
0
0
0
0
0
0
0
0
0
0
0
0
2.32906e-09
2.29119e-09
2.73678e-08
0
0
0
0
0
0
0
0
0
0
0
0
0
0
0
6.47262e-10
7.3601e-11
5.9035e-09
0
4.52293e-11
0
0
0
0
0
0
0
0
0
0
0
0
0
6.74218e-10
0
3.5606e-09
8.99141e-08
1.94867e-08
3.20613e-09
0
0
1.12734e-11
3.41699e-10
7.36016e-11
0
0
0
0
0
0
0
1.61247e-09
0
7.7253e-09
1.88766e-07
3.65557e-07
1.93652e-07
0
0
2.82841e-09
1.1774e-10
0
0
0
1.36402e-09
7.99367e-10
3.78585e-09
3.51805e-09
7.53858e-09
5.90243e-09
1.18943e-08
1.49376e-08
1.39907e-07
7.2048e-08
1.55184e-07
0
0
3.56987e-08
0
0
0
0
0
0
0
9.72365e-09
3.59858e-08
5.75828e-08
6.6256e-08
5.85168e-08
2.51979e-08
0
1.13759e-07
0
0
0
0
0
0
1.35802e-08
9.41705e-09
0
0
0
4.72766e-10
9.47207e-09
9.5974e-09
0
1.98956e-07
2.44863e-07
2.44598e-07
0
0
0
0
0
6.92332e-09
2.74464e-08
4.06463e-08
3.6315e-08
1.735e-08
0
0
0
0
0
2.08063e-07
5.54342e-07
4.06938e-07
5.63295e-08
0
0
0
0
0
4.29424e-09
6.12665e-09
0
0
0
0
0
0
0
0
3.73504e-07
3.86172e-07
8.1115e-08
6.31147e-08
0
0
0
0
0
4.47262e-09
0
0
0
0
0
0
0
0
0
2.93681e-07
2.00441e-07
4.83964e-07
0
0
0
0
1.13423e-06
9.2847e-07
3.32977e-07
0
0
0
0
0
0
0
0
2.63782e-07
2.55628e-07
2.6806e-07
1.82063e-07
0
0
0
4.58718e-07
4.54664e-07
2.76891e-07
0
0
0
0
0
0
0
0
1.61229e-07
3.31916e-07
1.10755e-07
1.09124e-07
0
0
1.57286e-07
2.70003e-08
0
0
0
0
0
0
0
0
0
0
1.45191e-07
1.52916e-07
0
1.70845e-07
4.26824e-07
2.72028e-07
3.18419e-07
0
0
0
0
0
0
0
0
6.88272e-08
2.59146e-07
2.63646e-07
4.35236e-07
3.31013e-07
0
0
6.26578e-07
3.85681e-07
3.82665e-07
0
0
0
3.6716e-08
1.29071e-07
1.37324e-07
1.17403e-07
9.98027e-08
7.61707e-08
3.88867e-07
3.36672e-07
8.82581e-07
9.2707e-07
5.41026e-07
1.85396e-07
3.49407e-07
4.31522e-07
2.39385e-07
7.69777e-08
7.56019e-08
1.63191e-07
2.30837e-07
2.58768e-07
2.57476e-07
1.86412e-07
8.6923e-08
2.71526e-08
7.4809e-07
8.68012e-07
9.2869e-07
9.91808e-07
7.28473e-07
2.85456e-07
3.51197e-07
4.03368e-07
2.14967e-07
1.03828e-07
6.7949e-08
6.06391e-08
7.3817e-08
1.53381e-07
2.97139e-07
3.47415e-07
1.76783e-07
0
0
8.6213e-08
3.96829e-07
1.41916e-07
0
0
0
0
0
0
0
0
0
0
0
0
0
0
0
4.13629e-07
3.47516e-07
7.55958e-08
0
0
0
0
0
0
0
0
0
0
0
0
0
0
0
3.96424e-07
3.99868e-07
0
0
0
0
0
0
1.22698e-07
5.12828e-08
0
0
0
0
0
0
0
0
7.03656e-07
3.55069e-07
0
0
0
0
0
2.90896e-07
3.69323e-07
1.80127e-07
0
0
0
0
0
0
0
0
0
0
0
0
2.78443e-08
6.04494e-08
1.70845e-07
3.67263e-07
4.07579e-07
3.18168e-07
1.92747e-07
7.21926e-08
0
0
0
0
9.60827e-09
1.62047e-07
0
0
0
0
0
1.19989e-07
1.88138e-07
3.69084e-07
5.57993e-07
6.90669e-07
7.64933e-07
7.55406e-07
6.34477e-07
4.65395e-07
3.12089e-07
1.77637e-07
6.31536e-08
2.62373e-07
0
0
0
0
0
4.60938e-08
1.71594e-08
4.00485e-08
1.66797e-07
3.83636e-07
6.2223e-07
7.67189e-07
7.39161e-07
5.7922e-07
4.12269e-07
3.11778e-07
2.80773e-07
3.34381e-07
0
0
0
0
0
0
0
0
0
0
4.79113e-08
6.74686e-08
8.9256e-08
1.34455e-07
1.80625e-07
2.22338e-07
2.69536e-07
9.16425e-08
0
0
0
0
0
0
0
0
0
0
0
0
1.88478e-08
1.19888e-07
1.97099e-07
2.32332e-07
2.03098e-07
0
0
0
0
0
0
0
0
0
0
0
0
0
1.56347e-10
0
0
0
0
5.57449e-09
0
0
0
0
0
0
0
0
0
0
0
0
0
0
0
0
0
7.15683e-09
0
0
0
0
0
0
0
0
0
0
0
0
0
0
0
0
0
5.763e-08
0
0
0
0
0
0
0
0
0
0
0
0
0
0
0
0
0
0
0
3.4738e-09
5.4826e-09
5.74199e-09
5.26508e-09
4.62117e-09
3.82455e-09
2.91703e-09
2.02498e-09
1.25319e-09
6.49783e-10
1.71234e-10
0
0
0
0
0
0
0
0
0
0
0
1.2093e-09
1.239e-09
1.31495e-11
0
0
0
0
0
0
0
0
0
0
0
0
0
0
0
0
0
0
0
0
0
0
0
0
0
0
0
0
0
0
0
0
0
0
0
0
0
0
0
0
0
0
0
0
0
0
0
0
0
0
0
0
0
0
0
0
0
0
0
0
0
0
0
0
0
0
0
0
0
0
0
0
0
0
0
0
0
0
0
0
0
0
0
0
0
0
0
0
0
0
0
0
0
0
0
0
0
0
0
0
0
0
0
0
0
0
0
0
0
0
0
0
0
0
0
0
0
0
0
0
0
0
0
0
0
0
0
0
0
0
0
0
0
0
0
0
0
0
0
0
0
0
0
0
0
0
0
0
1.28653e-12
0
0
0
0
0
0
0
0
0
4.79142e-09
8.13696e-09
9.06125e-09
8.33814e-09
6.73638e-09
4.79969e-09
2.82843e-09
8.49491e-10
0
0
0
0
0
0
0
0
0
8.93144e-09
1.52389e-08
1.7687e-08
1.66467e-08
1.28176e-08
7.43809e-09
1.97064e-09
0
0
0
0
0
0
0
0
0
0
0
0
0
0
0
0
0
0
0
0
0
0
0
0
0
0
0
0
0
0
0
0
0
0
0
0
0
0
0
0
0
0
0
0
0
0
0
0
0
0
0
0
0
0
0
0
0
0
0
0
0
0
0
0
0
0
0
0
0
0
0
0
0
0
0
0
0
0
0
0
0
0
0
0
0
0
0
0
0
0
0
0
0
0
0
0
0
0
0
0
0
0
0
0
0
0
0
0
0
0
0
0
0
0
0
0
0
0
0
0
0
0
0
0
0
0
0
0
0
0
0
0
0
0
0
0
0
0
0
0
0
0
0
0
0
0
2.42817e-13
0
0
0
0
0
0
0
0
0
0
0
0
0
0
0
0
0
0
2.09599e-09
8.76949e-09
1.64898e-08
2.47506e-08
3.27612e-08
4.01851e-08
4.67907e-08
5.20523e-08
5.57359e-08
5.80422e-08
5.93033e-08
5.97154e-08
5.89972e-08
5.69529e-08
5.37189e-08
4.94515e-08
4.43056e-08
3.8461e-08
3.21407e-08
2.56259e-08
1.92206e-08
1.32381e-08
7.95335e-09
3.54806e-09
9.44859e-11
0
0
0
0
0
0
0
0
0
0
0
0
0
0
0
0
0
0
0
0
0
0
0
0
0
0
0
0
0
0
0
0
0
0
0
0
0
0
0
0
0
0
0
0
0
0
0
0
0
0
0
0
0
0
0
0
0
0
0
0
0
0
0
0
0
0
0
0
0
0
0
0
0
0
0
0
0
0
0
0
0
0
0
0
0
0
0
0
0
0
0
0
0
0
0
0
0
0
0
0
0
0
0
0
0
0
0
0
0
0
0
0
0
0
0
0
0
0
0
0
0
0
0
0
0
0
0
0
0
0
0
0
0
0
0
0
0
0
0
0
0
0
0
0
0
0
0
0
0
0
0
0
0
0
0
5.07644e-09
1.67331e-08
2.84365e-08
3.97605e-08
5.01668e-08
5.92658e-08
6.7135e-08
7.36295e-08
7.86752e-08
8.21421e-08
8.41496e-08
8.54488e-08
8.61616e-08
8.57687e-08
8.43383e-08
8.21481e-08
7.93836e-08
7.61806e-08
7.26559e-08
6.8909e-08
6.5023e-08
6.10673e-08
5.71001e-08
5.31691e-08
4.9313e-08
4.55623e-08
4.19407e-08
3.84664e-08
3.51523e-08
3.20069e-08
2.90346e-08
2.62365e-08
2.36141e-08
2.11698e-08
1.88972e-08
1.67882e-08
1.48372e-08
1.30384e-08
1.13842e-08
9.86742e-09
8.48175e-09
7.22224e-09
6.08328e-09
5.05933e-09
4.14534e-09
3.33676e-09
2.62956e-09
2.0198e-09
1.50387e-09
1.07712e-09
7.34922e-10
4.69918e-10
2.74116e-10
1.38012e-10
5.06209e-11
4.91415e-13
0
0
0
0
0
0
4.43469e-12
9.0982e-12
1.20373e-11
1.35382e-11
1.39353e-11
1.35465e-11
1.26439e-11
1.14436e-11
1.0108e-11
8.7522e-12
7.45232e-12
6.25543e-12
5.18593e-12
4.25196e-12
3.45249e-12
2.77973e-12
2.22043e-12
1.76207e-12
1.39072e-12
1.09039e-12
8.51122e-13
6.64791e-13
5.17449e-13
4.00855e-13
3.13144e-13
2.46899e-13
1.95465e-13
1.53911e-13
1.20721e-13
9.42837e-14
7.3305e-14
5.68358e-14
4.40724e-14
3.4291e-14
2.68526e-14
2.12187e-14
1.6954e-14
1.37189e-14
1.12533e-14
9.36101e-15
7.89617e-15
6.74965e-15
5.8422e-15
5.11225e-15
4.51994e-15
4.02789e-15
3.61815e-15
3.2683e-15
2.96702e-15
2.70691e-15
2.47725e-15
2.27348e-15
2.09327e-15
1.93202e-15
1.78567e-15
1.65285e-15
1.53305e-15
1.42528e-15
1.32795e-15
1.23965e-15
1.15923e-15
1.0859e-15
1.01889e-15
9.57646e-16
9.01567e-16
8.50174e-16
8.02916e-16
7.59303e-16
7.18889e-16
6.81306e-16
6.46085e-16
6.12736e-16
5.80763e-16
5.49702e-16
5.18963e-16
4.87863e-16
4.55592e-16
4.21238e-16
3.83683e-16
3.4161e-16
2.93373e-16
2.3697e-16
1.69874e-16
8.89278e-17
0
0
0
0
0
0
0
0
0
0
0
0
0
0
0
0
0
0
0
0
0
0
0
0
0
0
0
0
0
0
0
0
0
0
1.48719e-09
1.32744e-08
2.58337e-08
3.84867e-08
5.05991e-08
6.18165e-08
7.18143e-08
8.00462e-08
8.65172e-08
9.12899e-08
9.40546e-08
9.53437e-08
9.57999e-08
9.51941e-08
9.33598e-08
9.05543e-08
8.70749e-08
8.31232e-08
7.88519e-08
7.43855e-08
6.9825e-08
6.52518e-08
6.07315e-08
5.6315e-08
5.20413e-08
4.7939e-08
4.4028e-08
4.03214e-08
3.68266e-08
3.35473e-08
3.04833e-08
2.76299e-08
2.49764e-08
2.2512e-08
2.02356e-08
1.81439e-08
1.62288e-08
1.44806e-08
1.28896e-08
1.14453e-08
1.01393e-08
8.95931e-09
7.89511e-09
6.93774e-09
6.07885e-09
5.31047e-09
4.62506e-09
4.01545e-09
3.47489e-09
2.99702e-09
2.5759e-09
2.20597e-09
1.88208e-09
1.59945e-09
1.35369e-09
1.14077e-09
9.56967e-10
7.98919e-10
6.63558e-10
5.48107e-10
4.50066e-10
3.67191e-10
2.97473e-10
2.39126e-10
1.90564e-10
1.50388e-10
1.17364e-10
9.04148e-11
6.85962e-11
5.10897e-11
3.71865e-11
2.6276e-11
1.78347e-11
1.14165e-11
6.64127e-12
3.18759e-12
7.82852e-13
0
0
0
0
0
0
0
0
0
0
0
0
0
0
0
0
0
0
0
0
0
0
0
0
9.07278e-15
2.04297e-14
3.0531e-14
3.9146e-14
4.60137e-14
5.10578e-14
5.43846e-14
5.6158e-14
5.67153e-14
5.62607e-14
5.50583e-14
5.33445e-14
5.13041e-14
4.90791e-14
4.6785e-14
4.44904e-14
4.2252e-14
4.01008e-14
3.80636e-14
3.61442e-14
3.43496e-14
3.26731e-14
3.1116e-14
2.9668e-14
2.83264e-14
2.70796e-14
2.59207e-14
2.48397e-14
2.38295e-14
2.28841e-14
2.19975e-14
2.11607e-14
2.0363e-14
1.95955e-14
1.88459e-14
1.81078e-14
1.73685e-14
1.66242e-14
1.58485e-14
1.50224e-14
1.4125e-14
1.31329e-14
1.20219e-14
1.07663e-14
9.34271e-15
7.73351e-15
5.93454e-15
3.9661e-15
1.91775e-15
0
0
0
2.29228e-15
1.40918e-14
5.70952e-14
2.4354e-13
1.14083e-12
4.87933e-12
1.50309e-11
3.68796e-11
5.32966e-11
1.05448e-10
2.86761e-11
7.17943e-11
0
0
0
0
0
0
0
0
0
0
0
0
0
0
0
0
1.11436e-08
2.6062e-08
4.16424e-08
5.70077e-08
7.17264e-08
8.50108e-08
9.59836e-08
1.04383e-07
1.10416e-07
1.1382e-07
1.14978e-07
1.14594e-07
1.12786e-07
1.09564e-07
1.05208e-07
1.00096e-07
9.45184e-08
8.86853e-08
8.27578e-08
7.68598e-08
7.10854e-08
6.55035e-08
6.01622e-08
5.50934e-08
5.03159e-08
4.58381e-08
4.16614e-08
3.77813e-08
3.41892e-08
3.0874e-08
2.78241e-08
2.50261e-08
2.24654e-08
2.01262e-08
1.79932e-08
1.60519e-08
1.42867e-08
1.26852e-08
1.12398e-08
9.93542e-09
8.76101e-09
7.70618e-09
6.76099e-09
5.91603e-09
5.16252e-09
4.49222e-09
3.89747e-09
3.37115e-09
2.90667e-09
2.4979e-09
2.13922e-09
1.82544e-09
1.5518e-09
1.31394e-09
1.10788e-09
9.2999e-10
7.76984e-10
6.45887e-10
5.34013e-10
4.3895e-10
3.58534e-10
2.90832e-10
2.34126e-10
1.86888e-10
1.47772e-10
1.15589e-10
8.92977e-11
6.79892e-11
5.08711e-11
3.72576e-11
2.65564e-11
1.82601e-11
1.1933e-11
7.20771e-12
3.76711e-12
1.35029e-12
0
0
0
0
0
0
0
0
0
0
0
0
0
0
0
0
0
0
0
0
0
0
0
0
0
0
0
0
0
0
0
0
0
0
0
0
0
0
0
0
0
0
0
0
0
0
0
0
0
0
0
0
0
0
0
0
0
0
0
0
0
0
0
0
0
1.55837e-13
3.07736e-13
4.17297e-13
4.9403e-13
5.53856e-13
6.12012e-13
6.76345e-13
7.66668e-13
9.00292e-13
1.11233e-12
1.47943e-12
2.07359e-12
3.14596e-12
4.80961e-12
7.90843e-12
1.21452e-11
2.03254e-11
2.8096e-11
4.49826e-11
4.46404e-11
8.65394e-11
1.34564e-11
4.60499e-11
0
0
0
0
0
0
0
0
0
0
0
0
0
0
0
0
9.46797e-09
2.888e-08
4.99513e-08
7.13005e-08
9.16995e-08
1.09674e-07
1.24015e-07
1.34851e-07
1.41775e-07
1.44993e-07
1.4507e-07
1.4266e-07
1.38352e-07
1.32509e-07
1.25462e-07
1.17686e-07
1.09583e-07
1.01418e-07
9.33812e-08
8.56127e-08
7.82074e-08
7.12232e-08
6.46915e-08
5.86238e-08
5.30184e-08
4.78605e-08
4.31316e-08
3.8809e-08
3.48663e-08
3.12762e-08
2.80151e-08
2.5056e-08
2.2374e-08
1.99488e-08
1.7757e-08
1.57731e-08
1.39847e-08
1.2381e-08
1.09396e-08
9.64616e-09
8.48745e-09
7.45127e-09
6.52635e-09
5.70236e-09
4.96976e-09
4.31982e-09
3.74449e-09
3.23641e-09
2.78882e-09
2.39554e-09
2.0509e-09
1.74974e-09
1.48735e-09
1.25943e-09
1.06209e-09
8.91801e-10
7.45373e-10
6.19928e-10
5.12877e-10
4.21898e-10
3.44917e-10
2.80082e-10
2.25747e-10
1.80456e-10
1.42921e-10
1.1201e-10
8.67305e-11
6.62147e-11
4.97079e-11
3.6557e-11
2.61968e-11
1.81443e-11
1.1983e-11
7.364e-12
3.98172e-12
1.58978e-12
0
0
0
0
0
0
0
0
0
0
0
0
0
0
0
0
0
0
0
0
0
0
0
0
0
0
0
0
0
0
0
0
0
0
0
0
0
0
0
0
0
0
0
0
0
0
0
0
0
0
0
0
0
0
0
0
0
0
0
0
0
0
0
0
0
0
1.22104e-13
2.53266e-13
3.51359e-13
4.27741e-13
4.94925e-13
5.6102e-13
6.44037e-13
7.58153e-13
9.33394e-13
1.22803e-12
1.70131e-12
2.53328e-12
3.81912e-12
6.11718e-12
9.20763e-12
1.48423e-11
1.976e-11
3.04415e-11
2.7409e-11
5.01772e-11
2.05751e-12
6.00914e-12
0
0
0
0
0
0
0
0
0
0
0
0
0
0
0
0
7.77446e-09
3.62049e-08
6.77266e-08
9.97144e-08
1.29302e-07
1.54039e-07
1.73293e-07
1.85985e-07
1.92612e-07
1.93855e-07
1.90762e-07
1.8424e-07
1.75246e-07
1.64704e-07
1.53161e-07
1.41196e-07
1.29298e-07
1.17736e-07
1.06709e-07
9.63683e-08
8.67735e-08
7.79482e-08
6.98865e-08
6.25624e-08
5.59387e-08
4.9963e-08
4.45857e-08
3.97562e-08
3.54221e-08
3.15301e-08
2.80519e-08
2.49375e-08
2.21415e-08
1.9632e-08
1.73778e-08
1.53713e-08
1.3585e-08
1.19875e-08
1.05604e-08
9.28712e-09
8.15247e-09
7.14257e-09
6.24489e-09
5.44812e-09
4.74205e-09
4.11744e-09
3.56593e-09
3.07993e-09
2.65259e-09
2.27769e-09
1.94959e-09
1.66319e-09
1.41387e-09
1.19745e-09
1.01015e-09
8.48579e-10
7.09661e-10
5.90646e-10
4.89066e-10
4.02711e-10
3.29609e-10
2.68005e-10
2.16341e-10
1.7324e-10
1.37483e-10
1.08001e-10
8.38572e-11
6.42318e-11
4.84122e-11
3.57811e-11
2.58052e-11
1.80269e-11
1.20535e-11
7.55343e-12
4.23857e-12
1.874e-12
2.56969e-13
0
0
0
0
0
0
0
0
0
0
0
0
0
0
0
0
0
0
0
0
0
0
0
0
0
0
0
0
0
0
0
0
0
0
0
0
0
0
0
0
0
0
0
0
0
0
0
0
0
0
0
0
0
0
0
0
0
0
0
0
0
0
0
0
0
4.62233e-14
1.6604e-13
2.60213e-13
3.35013e-13
3.98863e-13
4.59687e-13
5.28926e-13
6.21454e-13
7.55001e-13
9.72745e-13
1.31978e-12
1.91004e-12
2.81672e-12
4.35556e-12
6.37547e-12
9.79147e-12
1.23834e-11
1.89339e-11
1.42835e-11
2.02625e-11
0
0
0
0
0
0
0
0
0
0
0
0
0
0
0
0
0
0
3.50949e-09
4.99518e-08
1.01298e-07
1.51123e-07
1.95068e-07
2.31342e-07
2.54492e-07
2.67751e-07
2.71131e-07
2.66473e-07
2.56047e-07
2.4156e-07
2.24455e-07
2.06288e-07
1.87897e-07
1.69926e-07
1.52921e-07
1.36903e-07
1.22156e-07
1.08727e-07
9.65071e-08
8.54751e-08
7.55813e-08
6.67672e-08
5.89478e-08
5.20317e-08
4.59229e-08
4.05292e-08
3.57676e-08
3.15664e-08
2.78461e-08
2.45546e-08
2.16438e-08
1.90774e-08
1.68247e-08
1.48288e-08
1.30545e-08
1.14794e-08
1.0082e-08
8.8427e-09
7.74423e-09
6.77118e-09
5.90989e-09
5.14828e-09
4.47557e-09
3.88217e-09
3.3595e-09
2.89991e-09
2.49651e-09
2.14315e-09
1.83428e-09
1.56494e-09
1.33064e-09
1.12736e-09
9.51503e-10
7.9982e-10
6.69405e-10
5.57655e-10
4.62243e-10
3.81093e-10
3.12354e-10
2.54382e-10
2.0572e-10
1.65077e-10
1.31317e-10
1.03443e-10
8.05764e-11
6.19543e-11
4.69102e-11
3.48677e-11
2.53283e-11
1.78633e-11
1.21064e-11
7.74495e-12
4.51062e-12
2.1807e-12
5.66427e-13
0
0
0
0
0
0
0
0
0
0
0
0
0
0
0
0
0
0
0
0
0
0
0
0
0
0
0
0
0
0
0
0
0
0
0
0
0
0
0
0
0
0
0
0
0
0
0
0
0
0
0
0
0
0
0
0
0
0
0
0
0
0
0
0
0
0
8.54946e-14
1.72849e-13
2.43405e-13
3.0229e-13
3.57387e-13
4.12727e-13
4.83823e-13
5.79353e-13
7.28312e-13
9.61918e-13
1.34262e-12
1.92022e-12
2.8358e-12
3.99344e-12
5.7286e-12
6.73044e-12
9.38333e-12
5.17088e-12
3.87754e-12
0
0
0
0
0
0
0
0
0
0
0
0
0
0
0
0
0
0
0
7.20321e-08
1.59921e-07
2.4244e-07
3.06198e-07
3.58413e-07
3.80765e-07
3.89918e-07
3.82991e-07
3.6483e-07
3.40122e-07
3.11649e-07
2.82074e-07
2.52833e-07
2.25003e-07
1.99224e-07
1.76238e-07
1.55174e-07
1.35802e-07
1.18541e-07
1.03431e-07
9.02322e-08
7.87374e-08
6.87444e-08
6.00526e-08
5.24932e-08
4.59133e-08
4.01804e-08
3.51855e-08
3.08341e-08
2.70319e-08
2.37184e-08
2.08371e-08
1.83091e-08
1.60763e-08
1.41072e-08
1.23723e-08
1.08437e-08
9.49616e-09
8.30801e-09
7.26019e-09
6.3362e-09
5.52161e-09
4.80382e-09
4.17176e-09
3.61569e-09
3.12702e-09
2.69815e-09
2.32232e-09
1.99353e-09
1.70644e-09
1.45628e-09
1.23878e-09
1.05015e-09
8.86981e-10
7.46233e-10
6.25192e-10
5.21434e-10
4.32796e-10
3.57353e-10
2.93393e-10
2.39397e-10
1.94018e-10
1.56066e-10
1.24494e-10
9.83803e-11
7.69161e-11
5.93966e-11
4.52071e-11
3.38149e-11
2.476e-11
1.76449e-11
1.21319e-11
7.92907e-12
4.78946e-12
2.50275e-12
8.96421e-13
0
0
0
0
0
0
0
0
0
0
0
0
0
0
0
0
0
0
0
0
0
0
0
0
0
0
0
0
0
0
0
0
0
0
0
0
0
0
0
0
0
0
0
0
0
0
0
0
0
0
0
0
0
0
0
0
0
0
0
0
0
0
0
0
0
0
9.49552e-15
8.84365e-14
1.53111e-13
2.06537e-13
2.53249e-13
2.98646e-13
3.47614e-13
4.12481e-13
5.02544e-13
6.40579e-13
8.51968e-13
1.16625e-12
1.61478e-12
2.14091e-12
2.83482e-12
2.84078e-12
3.14509e-12
4.28572e-13
0
0
0
0
0
0
0
0
0
0
0
0
0
0
0
0
0
0
0
0
1.07599e-07
2.63176e-07
3.94524e-07
4.81739e-07
5.47548e-07
5.53296e-07
5.48254e-07
5.19116e-07
4.7832e-07
4.32702e-07
3.84263e-07
3.38811e-07
2.95639e-07
2.5559e-07
2.19716e-07
1.87989e-07
1.60996e-07
1.38207e-07
1.18964e-07
1.02641e-07
8.87981e-08
7.70065e-08
6.68923e-08
5.81836e-08
5.0667e-08
4.4167e-08
3.85372e-08
3.3655e-08
2.94177e-08
2.57371e-08
2.25195e-08
1.96948e-08
1.72215e-08
1.50595e-08
1.31691e-08
1.15145e-08
1.00648e-08
8.79342e-09
7.67755e-09
6.6976e-09
5.83668e-09
5.08024e-09
4.41565e-09
3.83194e-09
3.31953e-09
2.87007e-09
2.47621e-09
2.13149e-09
1.83021e-09
1.56731e-09
1.33833e-09
1.1393e-09
9.66679e-10
8.1733e-10
6.88455e-10
5.77564e-10
4.82437e-10
4.01102e-10
3.31803e-10
2.72982e-10
2.23256e-10
1.81402e-10
1.46339e-10
1.17114e-10
9.28906e-11
7.2933e-11
5.65997e-11
4.33306e-11
3.26409e-11
2.41104e-11
1.73761e-11
1.21294e-11
8.10239e-12
5.0691e-12
2.83547e-12
1.24297e-12
1.55843e-13
0
0
0
0
0
0
0
0
0
0
0
0
0
0
0
0
0
0
0
0
0
0
0
0
0
0
0
0
0
0
0
0
0
0
0
0
0
0
0
0
0
0
0
0
0
0
0
0
0
0
0
0
0
0
0
0
0
0
0
0
0
0
0
0
0
0
6.58692e-15
6.45259e-14
1.12087e-13
1.51703e-13
1.86403e-13
2.20849e-13
2.58091e-13
3.05554e-13
3.71317e-13
4.60685e-13
5.87871e-13
7.3221e-13
9.07463e-13
9.28744e-13
7.07403e-13
1.65046e-13
0
0
0
0
0
0
0
0
0
0
0
0
0
0
0
0
0
0
0
0
0
1.79771e-07
4.46515e-07
6.38209e-07
7.72332e-07
8.12251e-07
7.92592e-07
7.4492e-07
6.74186e-07
5.97727e-07
5.24188e-07
4.51339e-07
3.84306e-07
3.23034e-07
2.68994e-07
2.24441e-07
1.87886e-07
1.58045e-07
1.34115e-07
1.14334e-07
9.78532e-08
8.40326e-08
7.2385e-08
6.25346e-08
5.41671e-08
4.70175e-08
4.08833e-08
3.56009e-08
3.10298e-08
2.70558e-08
2.3594e-08
2.05826e-08
1.7965e-08
1.56868e-08
1.37011e-08
1.19676e-08
1.04527e-08
9.12734e-09
7.9669e-09
6.95012e-09
6.0587e-09
5.27687e-09
4.59099e-09
3.98927e-09
3.46146e-09
2.99866e-09
2.59311e-09
2.23799e-09
1.92736e-09
1.65597e-09
1.41921e-09
1.21298e-09
1.0337e-09
8.78142e-10
7.43484e-10
6.27204e-10
5.27061e-10
4.41067e-10
3.67452e-10
3.04648e-10
2.51259e-10
2.0605e-10
1.67927e-10
1.35925e-10
1.09192e-10
8.69779e-11
6.86255e-11
5.35598e-11
4.1278e-11
3.13448e-11
2.3382e-11
1.70638e-11
1.21095e-11
8.27726e-12
5.36241e-12
3.19166e-12
1.61845e-12
5.22732e-13
0
0
0
0
0
0
0
0
0
0
0
0
0
0
0
0
0
0
0
0
0
0
0
0
0
0
0
0
0
0
0
0
0
0
0
0
0
0
0
0
0
0
0
0
0
0
0
0
0
0
0
0
0
0
0
0
0
0
0
0
0
0
0
0
0
0
0
0
3.16475e-14
6.33106e-14
8.89536e-14
1.09871e-13
1.29514e-13
1.45593e-13
1.67972e-13
1.82716e-13
2.1003e-13
1.9702e-13
1.77063e-13
4.88904e-14
0
0
0
0
0
0
0
0
0
0
0
0
0
0
0
0
0
0
0
0
0
0
0
3.32679e-07
7.78428e-07
1.10625e-06
1.29506e-06
1.24848e-06
1.21476e-06
1.03365e-06
8.75927e-07
7.22691e-07
5.93123e-07
4.88576e-07
4.00696e-07
3.26803e-07
2.66433e-07
2.18315e-07
1.79831e-07
1.48684e-07
1.22958e-07
1.02112e-07
8.53754e-08
7.19471e-08
6.11168e-08
5.23367e-08
4.51262e-08
3.912e-08
3.40539e-08
2.97291e-08
2.60085e-08
2.27914e-08
1.99954e-08
1.75519e-08
1.5408e-08
1.35233e-08
1.18651e-08
1.04052e-08
9.1196e-09
7.98721e-09
6.98985e-09
6.11155e-09
5.33826e-09
4.65762e-09
4.05873e-09
3.53201e-09
3.069e-09
2.66227e-09
2.30528e-09
1.99225e-09
1.71807e-09
1.47823e-09
1.26874e-09
1.08605e-09
9.27035e-10
7.8889e-10
6.69144e-10
5.65593e-10
4.76279e-10
3.99461e-10
3.3359e-10
2.7729e-10
2.29337e-10
1.88647e-10
1.54258e-10
1.2532e-10
1.01083e-10
8.08844e-11
6.41457e-11
5.03573e-11
3.90752e-11
2.9913e-11
2.25333e-11
1.66463e-11
1.20005e-11
8.37993e-12
5.60003e-12
3.50368e-12
1.95927e-12
8.60735e-13
1.13252e-13
0
0
0
0
0
0
0
0
0
0
0
0
0
0
0
0
0
0
0
0
0
0
0
0
0
0
0
0
0
0
0
0
0
0
0
0
0
0
0
0
0
0
0
0
0
0
0
0
0
0
0
0
0
0
0
0
0
0
0
0
0
0
0
0
0
0
0
0
0
0
0
6.43681e-15
1.11219e-14
1.24485e-14
3.60425e-15
0
0
0
0
0
0
0
0
0
0
0
0
0
0
0
0
0
0
0
0
0
0
0
0
0
0
0
5.06812e-07
1.15135e-06
1.72039e-06
1.86776e-06
1.8473e-06
1.73227e-06
1.36749e-06
1.07995e-06
8.15116e-07
6.21208e-07
4.88666e-07
3.87662e-07
3.07731e-07
2.45797e-07
1.96392e-07
1.56807e-07
1.25304e-07
1.00554e-07
8.11487e-08
6.59466e-08
5.4071e-08
4.48208e-08
3.75713e-08
3.18728e-08
2.73815e-08
2.38092e-08
2.09191e-08
1.85281e-08
1.65012e-08
1.47444e-08
1.3191e-08
1.17915e-08
1.0515e-08
9.3597e-09
8.31915e-09
7.38206e-09
6.53864e-09
5.78049e-09
5.1002e-09
4.49106e-09
3.94693e-09
3.46203e-09
3.03077e-09
2.64788e-09
2.30853e-09
2.00829e-09
1.74314e-09
1.50941e-09
1.30378e-09
1.12323e-09
9.65023e-10
8.26705e-10
7.06048e-10
6.01054e-10
5.09922e-10
4.31035e-10
3.62944e-10
3.0435e-10
2.54091e-10
2.1113e-10
1.7454e-10
1.43496e-10
1.17265e-10
9.51978e-11
7.67217e-11
6.1333e-11
4.85873e-11
3.80968e-11
2.95224e-11
2.25671e-11
1.69722e-11
1.25128e-11
8.99624e-12
6.25624e-12
4.15092e-12
2.56821e-12
1.40992e-12
5.87156e-13
2.78825e-14
0
0
0
0
0
0
0
0
0
0
0
0
0
0
0
0
0
0
0
0
0
0
0
0
0
0
0
0
0
0
0
0
0
0
0
0
0
0
0
0
0
0
0
0
0
0
0
0
0
0
0
0
0
0
0
0
0
0
0
0
0
0
0
0
0
0
0
0
0
0
0
0
0
0
0
0
0
0
0
0
0
0
0
0
0
0
0
0
0
0
0
0
0
0
0
0
0
6.73804e-07
1.07635e-06
2.57557e-07
0
0
0
8.98149e-07
1.61035e-06
1.85991e-06
1.74836e-06
1.47358e-06
1.13436e-06
8.11461e-07
5.74993e-07
4.17557e-07
3.10578e-07
2.36427e-07
1.84591e-07
1.47718e-07
1.19131e-07
9.63724e-08
7.81081e-08
6.34248e-08
5.15766e-08
4.20158e-08
3.43379e-08
2.8217e-08
2.33684e-08
1.95303e-08
1.64786e-08
1.40486e-08
1.21059e-08
1.05424e-08
9.2753e-09
8.25104e-09
7.42106e-09
6.73879e-09
6.1443e-09
5.60497e-09
5.10729e-09
4.64357e-09
4.20919e-09
3.80134e-09
3.41824e-09
3.05897e-09
2.72567e-09
2.42087e-09
2.14359e-09
1.89229e-09
1.66537e-09
1.46118e-09
1.27807e-09
1.11442e-09
9.68645e-10
8.39224e-10
7.24694e-10
6.23673e-10
5.34862e-10
4.57045e-10
3.8909e-10
3.29951e-10
2.78663e-10
2.34346e-10
1.96194e-10
1.63472e-10
1.35516e-10
1.11727e-10
9.15685e-11
7.45638e-11
6.02896e-11
4.83698e-11
3.84745e-11
3.03119e-11
2.36235e-11
1.81823e-11
1.37887e-11
1.02689e-11
7.4751e-12
5.28244e-12
3.58844e-12
2.30848e-12
1.36014e-12
6.76475e-13
2.0059e-13
0
0
0
0
0
0
0
0
0
0
0
0
0
0
0
0
0
0
0
0
0
0
0
0
0
0
0
0
0
0
0
0
0
0
0
0
0
0
0
0
0
0
0
0
0
0
0
0
0
0
0
0
0
0
0
0
0
0
0
0
0
0
0
0
0
0
0
0
0
0
0
0
0
0
0
0
0
0
0
0
0
0
0
0
0
0
0
0
0
0
0
0
0
0
2.05025e-06
6.98649e-06
1.31144e-05
1.30897e-05
2.34764e-06
0
0
0
0
0
5.96358e-07
9.12096e-07
1.00845e-06
8.83635e-07
6.5649e-07
4.49766e-07
3.05067e-07
2.14804e-07
1.58852e-07
1.2265e-07
9.80399e-08
8.07902e-08
6.72222e-08
5.59323e-08
4.63232e-08
3.82016e-08
3.14343e-08
2.58511e-08
2.12702e-08
1.75254e-08
1.44748e-08
1.20059e-08
1.00203e-08
8.42712e-09
7.14984e-09
6.12598e-09
5.29807e-09
4.62447e-09
4.07352e-09
3.61878e-09
3.23898e-09
2.91738e-09
2.64121e-09
2.40095e-09
2.18966e-09
2.00225e-09
1.83457e-09
1.67996e-09
1.53271e-09
1.39247e-09
1.25958e-09
1.13441e-09
1.01723e-09
9.08194e-10
8.07324e-10
7.14538e-10
6.2965e-10
5.52396e-10
4.82453e-10
4.19453e-10
3.62995e-10
3.12655e-10
2.67995e-10
2.28579e-10
1.93979e-10
1.63801e-10
1.37621e-10
1.15016e-10
9.55855e-11
7.89622e-11
6.48105e-11
5.28251e-11
4.27316e-11
3.42838e-11
2.72588e-11
2.14576e-11
1.66992e-11
1.28242e-11
9.69217e-12
7.18172e-12
5.19235e-12
3.63819e-12
2.44499e-12
1.54757e-12
8.87487e-13
4.09052e-13
8.32717e-14
0
0
0
0
0
0
0
0
0
0
0
0
0
0
0
0
0
0
0
0
0
0
0
0
0
0
0
0
0
0
0
0
0
0
0
0
0
0
0
0
0
0
0
0
0
0
0
0
0
0
0
0
0
0
0
0
0
0
0
0
0
0
0
0
0
0
0
0
0
0
0
0
0
0
0
0
0
0
0
0
0
0
0
0
0
0
0
0
0
0
0
0
3.15751e-07
4.09554e-06
1.5483e-05
3.96798e-05
4.62295e-05
0
0
0
0
0
0
0
0
1.01587e-07
3.74769e-07
3.45265e-07
2.46785e-07
1.67218e-07
1.18005e-07
8.82978e-08
6.93342e-08
5.5634e-08
4.51958e-08
3.72302e-08
3.08503e-08
2.55695e-08
2.11623e-08
1.75105e-08
1.45144e-08
1.20669e-08
1.00653e-08
8.42325e-09
7.06451e-09
5.9325e-09
4.9901e-09
4.20787e-09
3.55857e-09
3.01737e-09
2.56916e-09
2.20117e-09
1.90021e-09
1.65375e-09
1.45104e-09
1.28298e-09
1.14197e-09
1.02194e-09
9.18145e-10
8.27012e-10
7.45924e-10
6.73019e-10
6.06946e-10
5.46713e-10
4.91591e-10
4.41041e-10
3.94653e-10
3.5211e-10
3.13152e-10
2.77553e-10
2.45109e-10
2.15633e-10
1.88946e-10
1.6487e-10
1.43232e-10
1.23859e-10
1.06584e-10
9.12348e-11
7.76142e-11
6.5584e-11
5.50288e-11
4.58299e-11
3.78658e-11
3.10182e-11
2.51728e-11
2.02219e-11
1.60636e-11
1.26014e-11
9.74551e-12
7.41122e-12
5.52248e-12
4.01117e-12
2.8155e-12
1.88506e-12
1.17814e-12
6.52564e-13
2.76096e-13
2.0463e-14
0
0
0
0
0
0
0
0
0
0
0
0
0
0
0
0
0
0
0
0
0
0
0
0
0
0
0
0
0
0
0
0
0
0
0
0
0
0
0
0
0
0
0
0
0
0
0
0
0
0
0
0
0
0
0
0
0
0
0
0
0
0
0
0
0
0
0
0
0
0
0
0
0
0
0
0
0
0
0
0
0
0
0
0
0
0
0
3.00335e-09
0
0
0
0
0
0
0
0
0
0
0
0
0
0
0
0
0
0
0
0
5.54387e-08
1.18066e-07
8.58354e-08
5.80776e-08
4.35112e-08
3.57138e-08
2.99699e-08
2.51205e-08
2.11489e-08
1.7941e-08
1.52889e-08
1.30178e-08
1.10296e-08
9.30233e-09
7.82132e-09
6.56581e-09
5.50881e-09
4.62481e-09
3.88841e-09
3.27515e-09
2.7634e-09
2.33413e-09
1.97136e-09
1.66237e-09
1.39888e-09
1.17605e-09
9.90049e-10
8.3579e-10
7.0828e-10
6.03363e-10
5.17251e-10
4.46512e-10
3.88153e-10
3.39634e-10
2.98828e-10
2.64019e-10
2.33931e-10
2.07616e-10
1.84359e-10
1.63623e-10
1.45001e-10
1.28196e-10
1.12986e-10
9.92026e-11
8.67156e-11
7.54248e-11
6.52495e-11
5.61162e-11
4.79569e-11
4.07054e-11
3.42965e-11
2.86666e-11
2.37519e-11
1.94917e-11
1.58259e-11
1.2697e-11
1.00472e-11
7.82325e-12
5.97553e-12
4.45757e-12
3.22827e-12
2.24776e-12
1.47909e-12
8.89053e-13
4.47712e-13
1.28323e-13
0
0
0
0
0
0
0
0
0
0
0
0
0
0
0
0
0
0
0
0
0
0
0
0
0
0
0
0
0
0
0
0
0
0
0
0
0
0
0
0
0
0
0
0
0
0
0
0
0
0
0
0
0
0
0
0
0
0
0
0
0
0
0
0
0
0
0
0
0
0
0
0
0
0
0
0
0
0
0
0
0
0
0
0
0
0
0
0
0
0
0
0
2.27839e-09
3.91428e-08
1.61372e-07
1.93172e-07
2.30033e-07
2.84015e-07
2.44986e-07
0
0
0
0
0
0
0
0
0
0
2.99764e-06
4.14024e-06
1.49018e-06
0
0
0
1.73182e-08
4.53985e-09
3.95686e-09
7.29601e-09
9.44439e-09
9.93756e-09
9.34576e-09
8.31095e-09
7.26144e-09
6.33806e-09
5.56398e-09
4.91831e-09
4.3536e-09
3.8436e-09
3.374e-09
2.92897e-09
2.51372e-09
2.14235e-09
1.81909e-09
1.54225e-09
1.30708e-09
1.10754e-09
9.3723e-10
7.90369e-10
6.63052e-10
5.5354e-10
4.60663e-10
3.8223e-10
3.16541e-10
2.61996e-10
2.17023e-10
1.80107e-10
1.49895e-10
1.25248e-10
1.0512e-10
8.85746e-11
7.49039e-11
6.35405e-11
5.40305e-11
4.60096e-11
3.91886e-11
3.3344e-11
2.82981e-11
2.39153e-11
2.00934e-11
1.67567e-11
1.38452e-11
1.13158e-11
9.12954e-12
7.2537e-12
5.65828e-12
4.3129e-12
3.19448e-12
2.27833e-12
1.54073e-12
9.57582e-13
5.08072e-13
1.72166e-13
0
0
0
0
0
0
0
0
0
0
0
0
0
0
0
0
0
0
0
0
0
0
0
0
0
0
0
0
0
0
0
0
0
0
0
0
0
0
0
0
0
0
0
0
0
0
0
0
0
0
0
0
0
0
0
0
0
0
0
0
0
0
0
0
0
0
0
0
0
0
0
0
0
0
0
0
0
0
0
0
0
0
0
0
0
0
0
0
0
0
0
0
0
0
0
0
0
0
3.66014e-09
1.39829e-08
8.00555e-08
2.28053e-07
3.32838e-07
4.71435e-07
6.60657e-07
8.64526e-07
8.49031e-07
3.63184e-07
0
0
0
0
0
0
0
1.68315e-05
9.80231e-06
4.30807e-06
1.40402e-06
3.76815e-08
0
0
4.33401e-10
0
0
0
9.91278e-10
3.13589e-09
3.95638e-09
3.99374e-09
3.69488e-09
3.29757e-09
2.89191e-09
2.52943e-09
2.22883e-09
1.9775e-09
1.7593e-09
1.56794e-09
1.38922e-09
1.21467e-09
1.05031e-09
9.0101e-10
7.68888e-10
6.5395e-10
5.54851e-10
4.69531e-10
3.95561e-10
3.30696e-10
2.73764e-10
2.24959e-10
1.83752e-10
1.49307e-10
1.20837e-10
9.74873e-11
7.8372e-11
6.27229e-11
4.99799e-11
3.9695e-11
3.14154e-11
2.47612e-11
1.94232e-11
1.51529e-11
1.1746e-11
9.0361e-12
6.88927e-12
5.2002e-12
3.87679e-12
2.83664e-12
2.01989e-12
1.38062e-12
8.81626e-13
4.96629e-13
2.05344e-13
0
0
0
0
0
0
0
0
0
0
0
0
0
0
0
0
0
0
0
0
0
0
0
0
0
0
0
0
0
0
0
0
0
0
0
0
0
0
0
0
0
0
0
0
0
0
0
0
0
0
0
0
0
0
0
0
0
0
0
0
0
0
0
0
0
0
0
0
0
0
0
0
0
0
0
0
0
0
0
0
0
0
0
0
0
0
0
0
0
0
0
0
0
0
0
0
0
0
0
0
0
0
0
0
0
4.06842e-08
6.13093e-08
1.28843e-07
2.19734e-07
3.30499e-07
4.98936e-07
7.31795e-07
9.46855e-07
1.12829e-06
1.12484e-06
7.07715e-07
0
0
0
0
0
1.06643e-06
4.6267e-06
3.67918e-06
2.22221e-06
8.25821e-07
8.39915e-09
0
2.66362e-08
1.09277e-08
0
0
0
1.51981e-09
2.84293e-09
3.37108e-09
3.39047e-09
3.14287e-09
2.81442e-09
2.46957e-09
2.1396e-09
1.84287e-09
1.57887e-09
1.34454e-09
1.14301e-09
9.76654e-10
8.39148e-10
7.20455e-10
6.16006e-10
5.24183e-10
4.44178e-10
3.75108e-10
3.15841e-10
2.65102e-10
2.21609e-10
1.84286e-10
1.51756e-10
1.23258e-10
9.85849e-11
7.76801e-11
6.06078e-11
4.70372e-11
3.62616e-11
2.77503e-11
2.10391e-11
1.57674e-11
1.16473e-11
8.44689e-12
5.98227e-12
4.10521e-12
2.69463e-12
1.6578e-12
9.22052e-13
4.20907e-13
9.36442e-14
0
0
0
0
0
0
0
0
0
0
0
0
0
0
0
0
0
0
0
0
0
0
0
0
0
0
0
0
0
0
0
0
0
0
0
0
0
0
0
0
0
0
0
0
0
0
0
0
0
0
0
0
0
0
0
0
0
0
0
0
0
0
0
0
0
0
0
0
0
0
0
0
0
0
0
0
0
0
0
0
0
0
0
0
0
0
0
0
0
0
0
0
0
0
0
0
0
0
0
0
0
0
0
0
0
0
0
0
0
0
4.57953e-07
3.09442e-07
2.23759e-07
1.60018e-07
1.89614e-07
3.1678e-07
5.23529e-07
6.67014e-07
8.2908e-07
8.49905e-07
7.03805e-07
4.17421e-07
0
0
0
0
6.46139e-08
1.0751e-06
1.5184e-06
1.05721e-06
2.79292e-07
0
3.47704e-08
4.80205e-08
2.63997e-08
1.19801e-08
8.10302e-09
8.75769e-09
8.44483e-09
7.20131e-09
5.97136e-09
4.87436e-09
3.9353e-09
3.19517e-09
2.61314e-09
2.17447e-09
1.86825e-09
1.64125e-09
1.42554e-09
1.20817e-09
1.00213e-09
8.24892e-10
6.8026e-10
5.63138e-10
4.67393e-10
3.88431e-10
3.22934e-10
2.68312e-10
2.22508e-10
1.8395e-10
1.51507e-10
1.24427e-10
1.01761e-10
8.25541e-11
6.61272e-11
5.19231e-11
3.98032e-11
2.98647e-11
2.20086e-11
1.59145e-11
1.12367e-11
7.69314e-12
5.04808e-12
3.10842e-12
1.71794e-12
7.50373e-13
1.09813e-13
0
0
0
0
0
0
0
0
0
0
0
0
0
0
0
0
0
0
0
0
0
0
0
0
0
0
0
0
0
0
0
0
0
0
0
0
0
0
0
0
0
0
0
0
0
0
0
0
0
0
0
0
0
0
0
0
0
0
0
0
0
0
0
0
0
0
0
0
0
0
0
0
0
0
0
0
0
0
0
0
0
0
0
0
0
0
0
0
0
0
0
0
0
0
0
0
0
0
0
0
0
0
0
0
0
0
0
0
0
0
0
0
0
3.55746e-06
1.06389e-06
3.38213e-07
5.26386e-08
0
7.06198e-08
1.83378e-07
2.78736e-07
3.83835e-07
3.66003e-07
3.01932e-07
1.7601e-07
0
0
0
0
3.9644e-08
5.41341e-07
5.63171e-07
3.77118e-08
0
3.20406e-09
8.91321e-08
6.60592e-08
4.46103e-08
3.30126e-08
2.76843e-08
2.40994e-08
1.96021e-08
1.50595e-08
1.1366e-08
8.52209e-09
6.35927e-09
4.74397e-09
3.5831e-09
2.72704e-09
2.10895e-09
1.72269e-09
1.51982e-09
1.36224e-09
1.18202e-09
9.90809e-10
8.12224e-10
6.59861e-10
5.35371e-10
4.35329e-10
3.5544e-10
2.91585e-10
2.40028e-10
1.97689e-10
1.62371e-10
1.32732e-10
1.08022e-10
8.76095e-11
7.06707e-11
5.65191e-11
4.46454e-11
3.4682e-11
2.63111e-11
1.94508e-11
1.40054e-11
9.76973e-12
6.53055e-12
4.1011e-12
2.31681e-12
1.04028e-12
1.61127e-13
0
0
0
0
0
0
0
0
0
0
0
0
0
0
0
0
0
0
0
0
0
0
0
0
0
0
0
0
0
0
0
0
0
0
0
0
0
0
0
0
0
0
0
0
0
0
0
0
0
0
0
0
0
0
0
0
0
0
0
0
0
0
0
0
0
0
0
0
0
0
0
0
0
0
0
0
0
0
0
0
0
0
0
0
0
0
0
0
0
0
0
0
0
0
0
0
0
0
0
0
0
0
0
0
0
0
0
0
0
0
0
0
0
9.17742e-06
9.77232e-07
9.15374e-08
0
0
0
0
0
0
0
0
0
0
0
0
0
8.08785e-08
0
0
0
0
1.28594e-07
1.10215e-07
7.91829e-08
6.2835e-08
5.49079e-08
4.81821e-08
3.99476e-08
3.14971e-08
2.39242e-08
1.78064e-08
1.30558e-08
9.51617e-09
7.01617e-09
5.28875e-09
4.01838e-09