/*--------------------------------*- C++ -*----------------------------------*\
  =========                 |
  \\      /  F ield         | OpenFOAM: The Open Source CFD Toolbox
   \\    /   O peration     | Website:  https://openfoam.org
    \\  /    A nd           | Version:  7
     \\/     M anipulation  |
\*---------------------------------------------------------------------------*/
FoamFile
{
    version     2.0;
    format      ascii;
    class       surfaceScalarField;
    location    "0.007";
    object      phi_0;
}
// * * * * * * * * * * * * * * * * * * * * * * * * * * * * * * * * * * * * * //

dimensions      [0 3 -1 0 0 0 0];

internalField   nonuniform List<scalar> 
24170
(
1.42409e-06
1.93053e-07
1.28096e-06
1.43121e-07
1.13975e-06
1.41213e-07
1.01802e-06
1.21731e-07
9.15452e-07
1.0257e-07
8.32678e-07
8.27731e-08
7.6626e-07
6.64187e-08
7.12731e-07
5.35288e-08
6.70871e-07
4.18603e-08
6.42247e-07
2.86242e-08
6.27071e-07
1.51759e-08
6.26063e-07
1.00782e-09
6.37194e-07
-1.11313e-08
6.5735e-07
-2.01562e-08
6.8542e-07
-2.80697e-08
7.15263e-07
-2.98434e-08
7.59667e-07
-4.44031e-08
-4.10864e-08
8.00753e-07
1.69302e-06
1.99526e-07
1.66302e-06
1.73119e-07
1.61359e-06
1.90635e-07
1.56933e-06
1.65995e-07
1.53805e-06
1.33852e-07
1.51565e-06
1.05166e-07
1.49636e-06
8.57129e-08
1.4773e-06
7.25911e-08
1.45839e-06
6.07636e-08
1.44175e-06
4.5272e-08
1.43029e-06
2.66305e-08
1.42607e-06
5.23287e-09
1.42916e-06
-1.42201e-08
1.4399e-06
-3.09036e-08
1.45416e-06
-4.23302e-08
1.47689e-06
-5.25719e-08
1.49737e-06
-6.4884e-08
-7.87688e-08
1.53506e-06
1.78813e-06
1.97002e-07
1.78038e-06
1.80873e-07
1.76252e-06
2.08494e-07
1.75105e-06
1.77463e-07
1.75097e-06
1.33935e-07
1.75339e-06
1.0275e-07
1.75366e-06
8.54399e-08
1.75188e-06
7.43728e-08
1.74965e-06
6.29929e-08
1.74752e-06
4.74042e-08
1.747e-06
2.71471e-08
1.74862e-06
3.61773e-09
1.75357e-06
-1.9175e-08
1.76102e-06
-3.83537e-08
1.77138e-06
-5.26854e-08
1.78319e-06
-6.43886e-08
1.79522e-06
-7.69129e-08
-9.3844e-08
1.8103e-06
1.90463e-06
2.87643e-07
1.89412e-06
1.91384e-07
1.89832e-06
2.04287e-07
1.89741e-06
1.7838e-07
1.89133e-06
1.40007e-07
1.88599e-06
1.08089e-07
1.88636e-06
8.50762e-08
1.89177e-06
6.89604e-08
1.89873e-06
5.60337e-08
1.9049e-06
4.12335e-08
1.91005e-06
2.19956e-08
1.91468e-06
-1.00743e-09
1.91976e-06
-2.42613e-08
1.92564e-06
-4.42301e-08
1.93237e-06
-5.94153e-08
1.94007e-06
-7.20873e-08
1.9483e-06
-8.51454e-08
-1.01348e-07
1.95581e-06
2.00853e-06
3.16553e-07
2.01959e-06
1.80329e-07
2.04203e-06
1.81846e-07
2.03933e-06
1.81085e-07
2.02286e-06
1.56469e-07
2.01294e-06
1.18011e-07
2.01585e-06
8.21707e-08
2.02578e-06
5.9031e-08
2.03602e-06
4.57907e-08
2.0436e-06
3.3655e-08
2.04918e-06
1.64177e-08
2.05474e-06
-6.56665e-09
2.06122e-06
-3.07431e-08
2.06903e-06
-5.20427e-08
2.07827e-06
-6.86593e-08
2.08867e-06
-8.24845e-08
2.09972e-06
-9.61982e-08
-1.12072e-07
2.11045e-06
2.20342e-06
3.52996e-07
2.17823e-06
2.05521e-07
2.17205e-06
1.88023e-07
2.17066e-06
1.82476e-07
2.17205e-06
1.55079e-07
2.17656e-06
1.13494e-07
2.18043e-06
7.8305e-08
2.18104e-06
5.84263e-08
2.18021e-06
4.66166e-08
2.18176e-06
3.21038e-08
2.18798e-06
1.02019e-08
2.19774e-06
-1.6332e-08
2.20963e-06
-4.26271e-08
2.22167e-06
-6.40865e-08
2.23342e-06
-8.04144e-08
2.24485e-06
-9.39148e-08
2.25634e-06
-1.0768e-07
-1.23516e-07
2.26778e-06
2.37002e-06
3.92131e-07
2.3479e-06
2.2764e-07
2.35365e-06
1.82265e-07
2.36032e-06
1.75811e-07
2.3609e-06
1.54494e-07
2.35483e-06
1.19572e-07
2.34603e-06
8.70985e-08
2.34106e-06
6.33982e-08
2.34398e-06
4.36982e-08
2.35433e-06
2.17529e-08
2.36858e-06
-4.04413e-09
2.38294e-06
-3.06982e-08
2.39447e-06
-5.41547e-08
2.40338e-06
-7.2998e-08
2.41126e-06
-8.82979e-08
2.41963e-06
-1.02285e-07
2.4292e-06
-1.17251e-07
-1.3408e-07
2.43977e-06
2.57321e-06
4.49056e-07
2.51937e-06
2.81474e-07
2.51062e-06
1.91022e-07
2.5218e-06
1.64627e-07
2.5351e-06
1.41195e-07
2.54206e-06
1.12614e-07
2.543e-06
8.61598e-08
2.54273e-06
6.36677e-08
2.54566e-06
4.07647e-08
2.55309e-06
1.43202e-08
2.56277e-06
-1.37266e-08
2.57278e-06
-4.07058e-08
2.58255e-06
-6.3925e-08
2.59231e-06
-8.27578e-08
2.60249e-06
-9.8473e-08
2.6132e-06
-1.12998e-07
2.62392e-06
-1.27975e-07
-1.4469e-07
2.63453e-06
2.82589e-06
4.39121e-07
2.785e-06
3.2237e-07
2.7508e-06
2.25222e-07
2.74561e-06
1.69817e-07
2.75328e-06
1.33516e-07
2.75824e-06
1.07656e-07
2.75858e-06
8.58203e-08
2.75853e-06
6.37165e-08
2.76038e-06
3.89142e-08
2.76373e-06
1.09719e-08
2.76941e-06
-1.94092e-08
2.77713e-06
-4.84255e-08
2.7874e-06
-7.41957e-08
2.79978e-06
-9.5135e-08
2.81315e-06
-1.11837e-07
2.82625e-06
-1.261e-07
2.83797e-06
-1.39697e-07
-1.5507e-07
2.84835e-06
2.95386e-06
3.82518e-07
2.96003e-06
3.162e-07
2.95713e-06
2.28123e-07
2.96777e-06
1.59173e-07
2.9785e-06
1.22787e-07
2.98422e-06
1.0194e-07
2.98604e-06
8.39992e-08
2.98538e-06
6.43708e-08
2.98376e-06
4.05353e-08
2.98344e-06
1.12921e-08
2.98454e-06
-2.05121e-08
2.98875e-06
-5.26364e-08
2.99604e-06
-8.14806e-08
3.0055e-06
-1.04599e-07
3.01568e-06
-1.2201e-07
3.02491e-06
-1.35339e-07
3.03263e-06
-1.47411e-07
-1.61182e-07
3.03874e-06
3.19335e-06
4.59483e-07
3.17821e-06
3.31338e-07
3.17949e-06
2.2684e-07
3.16907e-06
1.69597e-07
3.15589e-06
1.35965e-07
3.15203e-06
1.05805e-07
3.15806e-06
7.79676e-08
3.16677e-06
5.56566e-08
3.17168e-06
3.56238e-08
3.17076e-06
1.22111e-08
3.16794e-06
-1.7691e-08
3.16612e-06
-5.08149e-08
3.16769e-06
-8.30469e-08
3.17297e-06
-1.0988e-07
3.18129e-06
-1.30329e-07
3.19166e-06
-1.45706e-07
3.20348e-06
-1.59232e-07
-1.74258e-07
3.21655e-06
2.89294e-06
4.63608e-07
2.91358e-06
3.1069e-07
2.90382e-06
2.366e-07
2.88018e-06
1.93242e-07
2.86687e-06
1.49276e-07
2.86889e-06
1.03786e-07
2.87875e-06
6.81062e-08
2.88771e-06
4.6693e-08
2.89111e-06
3.22285e-08
2.88953e-06
1.37881e-08
2.8854e-06
-1.35624e-08
2.88222e-06
-4.76311e-08
2.88166e-06
-8.24893e-08
2.8838e-06
-1.12015e-07
2.88767e-06
-1.34201e-07
2.89275e-06
-1.50791e-07
2.89848e-06
-1.64958e-07
-1.80933e-07
2.90515e-06
3.54899e-06
3.29473e-07
3.5494e-06
3.10278e-07
3.53763e-06
2.48373e-07
3.52219e-06
2.08678e-07
3.50967e-06
1.61804e-07
3.50506e-06
1.0839e-07
3.50527e-06
6.78957e-08
3.50508e-06
4.68893e-08
3.50302e-06
3.4282e-08
3.50153e-06
1.52806e-08
3.50466e-06
-1.66954e-08
3.51384e-06
-5.68125e-08
3.52723e-06
-9.5879e-08
3.54149e-06
-1.26271e-07
3.55361e-06
-1.46325e-07
3.5626e-06
-1.59773e-07
3.56823e-06
-1.70588e-07
-1.84525e-07
3.57182e-06
4.36092e-06
3.41311e-07
4.3159e-06
3.553e-07
4.28091e-06
2.8336e-07
4.28092e-06
2.08677e-07
4.29554e-06
1.47182e-07
4.30231e-06
1.01622e-07
4.28939e-06
8.08101e-08
4.2634e-06
7.28794e-08
4.24105e-06
5.66305e-08
4.23506e-06
2.12748e-08
4.24661e-06
-2.82464e-08
4.26974e-06
-7.99416e-08
4.29582e-06
-1.21965e-07
4.31873e-06
-1.49176e-07
4.33555e-06
-1.63147e-07
4.34599e-06
-1.70216e-07
4.35118e-06
-1.75772e-07
-1.85592e-07
4.35224e-06
5.26491e-06
4.47768e-07
5.23301e-06
3.872e-07
5.24091e-06
2.7546e-07
5.26874e-06
1.80847e-07
5.28854e-06
1.27382e-07
5.27983e-06
1.10331e-07
5.25067e-06
1.09975e-07
5.22293e-06
1.00621e-07
5.21065e-06
6.89085e-08
5.21357e-06
1.83572e-08
5.22403e-06
-3.87044e-08
5.23371e-06
-8.96307e-08
5.23948e-06
-1.27728e-07
5.24216e-06
-1.51858e-07
5.24423e-06
-1.65217e-07
5.24738e-06
-1.73364e-07
5.25201e-06
-1.80402e-07
-1.90837e-07
5.25725e-06
6.38587e-06
4.94275e-07
6.33446e-06
4.3861e-07
6.31782e-06
2.92092e-07
6.32829e-06
1.70384e-07
6.34806e-06
1.07606e-07
6.36597e-06
9.24247e-08
6.38241e-06
9.35321e-08
6.40026e-06
8.27703e-08
6.41756e-06
5.16107e-08
6.42887e-06
7.0439e-09
6.43266e-06
-4.24942e-08
6.42894e-06
-8.59081e-08
6.42073e-06
-1.19515e-07
6.41074e-06
-1.4187e-07
6.40082e-06
-1.55296e-07
6.39164e-06
-1.64183e-07
6.38358e-06
-1.72349e-07
-1.83658e-07
6.3764e-06
7.91985e-06
6.31862e-07
7.89411e-06
4.64351e-07
7.87591e-06
3.10294e-07
7.83078e-06
2.15512e-07
7.77908e-06
1.59303e-07
7.74644e-06
1.2507e-07
7.74346e-06
9.65069e-08
7.76213e-06
6.40988e-08
7.78657e-06
2.71724e-08
7.80396e-06
-1.03469e-08
7.80654e-06
-4.5068e-08
7.79613e-06
-7.55024e-08
7.77685e-06
-1.0023e-07
7.75471e-06
-1.19732e-07
7.73523e-06
-1.35821e-07
7.72192e-06
-1.50867e-07
7.71602e-06
-1.66448e-07
-1.84496e-07
7.71685e-06
9.36632e-06
5.17344e-07
9.41151e-06
4.19162e-07
9.42617e-06
2.95635e-07
9.43861e-06
2.03078e-07
9.44864e-06
1.49272e-07
9.45737e-06
1.16338e-07
9.46825e-06
8.56291e-08
9.4805e-06
5.18468e-08
9.49025e-06
1.74218e-08
9.49653e-06
-1.66238e-08
9.49986e-06
-4.84015e-08
9.50127e-06
-7.69087e-08
9.50271e-06
-1.0167e-07
9.50502e-06
-1.22045e-07
9.50735e-06
-1.38145e-07
9.5082e-06
-1.51721e-07
9.50546e-06
-1.63712e-07
-1.7692e-07
9.49789e-06
1.13792e-05
4.53057e-07
1.14502e-05
3.482e-07
1.1508e-05
2.37753e-07
1.15561e-05
1.55008e-07
1.1605e-05
1.00356e-07
1.1655e-05
6.64101e-08
1.1697e-05
4.36357e-08
1.17233e-05
2.55508e-08
1.17338e-05
6.85289e-09
1.17346e-05
-1.73881e-08
1.1731e-05
-4.47913e-08
1.17251e-05
-7.1076e-08
1.17158e-05
-9.23221e-08
1.17005e-05
-1.06713e-07
1.16777e-05
-1.15415e-07
1.16479e-05
-1.21853e-07
1.16126e-05
-1.28462e-07
-1.38634e-07
1.15743e-05
8.26268e-06
3.76935e-07
8.3669e-06
2.43977e-07
8.44441e-06
1.60244e-07
8.4796e-06
1.19823e-07
8.48255e-06
9.74025e-08
8.4765e-06
7.24583e-08
8.4785e-06
4.16395e-08
8.49253e-06
1.15172e-08
8.51062e-06
-1.12361e-08
8.52185e-06
-2.86147e-08
8.52235e-06
-4.52887e-08
8.51346e-06
-6.21926e-08
8.49977e-06
-7.86339e-08
8.48618e-06
-9.31164e-08
8.47564e-06
-1.04876e-07
8.46849e-06
-1.14709e-07
8.46336e-06
-1.23329e-07
-1.32855e-07
8.45758e-06
7.38304e-06
3.91568e-07
7.33571e-06
2.9131e-07
7.29806e-06
1.97899e-07
7.30216e-06
1.15721e-07
7.33221e-06
6.73457e-08
7.36413e-06
4.05394e-08
7.38223e-06
2.35454e-08
7.38283e-06
1.09149e-08
7.37255e-06
-9.55298e-10
7.36161e-06
-1.76727e-08
7.3535e-06
-3.71788e-08
7.35055e-06
-5.92423e-08
7.3525e-06
-8.05902e-08
7.35737e-06
-9.79817e-08
7.36253e-06
-1.10042e-07
7.36562e-06
-1.17795e-07
7.36484e-06
-1.22545e-07
-1.2725e-07
7.35923e-06
6.4108e-06
3.14937e-07
6.44856e-06
2.53553e-07
6.46113e-06
1.85332e-07
6.47035e-06
1.06497e-07
6.48047e-06
5.7231e-08
6.48496e-06
3.60444e-08
6.481e-06
2.75117e-08
6.47533e-06
1.65757e-08
6.47741e-06
-3.0277e-09
6.48698e-06
-2.72443e-08
6.50391e-06
-5.41095e-08
6.52137e-06
-7.67036e-08
6.53362e-06
-9.28397e-08
6.53805e-06
-1.02409e-07
6.53501e-06
-1.07008e-07
6.52657e-06
-1.09352e-07
6.51509e-06
-1.11069e-07
-1.14313e-07
6.50216e-06
5.62294e-06
3.82885e-07
5.6724e-06
2.04096e-07
5.73759e-06
1.2014e-07
5.75341e-06
9.06744e-08
5.73783e-06
7.28073e-08
5.71953e-06
5.43467e-08
5.71341e-06
3.36325e-08
5.72037e-06
9.62204e-09
5.73553e-06
-1.81918e-08
5.75304e-06
-4.47515e-08
5.76725e-06
-6.83216e-08
5.7766e-06
-8.60572e-08
5.78056e-06
-9.68008e-08
5.77929e-06
-1.01133e-07
5.77283e-06
-1.00554e-07
5.76114e-06
-9.7662e-08
5.74401e-06
-9.39316e-08
-9.25409e-08
5.72223e-06
4.86323e-06
3.02065e-07
4.87713e-06
1.90193e-07
4.86934e-06
1.27931e-07
4.87434e-06
8.56735e-08
4.89797e-06
4.91787e-08
4.93112e-06
2.11918e-08
4.96224e-06
2.51925e-09
4.98322e-06
-1.13599e-08
4.9949e-06
-2.98729e-08
5.00289e-06
-5.27414e-08
5.01015e-06
-7.55854e-08
5.01744e-06
-9.33477e-08
5.02337e-06
-1.02723e-07
5.02574e-06
-1.03512e-07
5.02344e-06
-9.82509e-08
5.01678e-06
-9.10024e-08
5.00745e-06
-8.4602e-08
-8.24008e-08
4.99731e-06
4.20803e-06
3.30593e-07
4.26339e-06
1.34832e-07
4.29998e-06
9.13463e-08
4.32633e-06
5.93246e-08
4.35188e-06
2.36264e-08
4.37318e-06
-1.06641e-10
4.39228e-06
-1.65787e-08
4.40939e-06
-2.84708e-08
4.42344e-06
-4.393e-08
4.4334e-06
-6.26944e-08
4.4377e-06
-7.98836e-08
4.43589e-06
-9.1547e-08
4.42973e-06
-9.65591e-08
4.42198e-06
-9.57564e-08
4.41526e-06
-9.15375e-08
4.41125e-06
-8.69882e-08
4.41088e-06
-8.42302e-08
-8.53592e-08
4.41384e-06
3.76272e-06
3.16916e-07
3.80865e-06
8.89011e-08
3.83927e-06
6.07197e-08
3.8562e-06
4.2398e-08
3.87271e-06
7.12125e-09
3.89346e-06
-2.08626e-08
3.91635e-06
-3.94629e-08
3.93666e-06
-4.87892e-08
3.9464e-06
-5.36664e-08
3.94183e-06
-5.81239e-08
3.92565e-06
-6.37043e-08
3.90439e-06
-7.02834e-08
3.88468e-06
-7.6856e-08
3.87067e-06
-8.1744e-08
3.8633e-06
-8.41687e-08
3.86135e-06
-8.50314e-08
3.86279e-06
-8.56736e-08
-8.79119e-08
3.86534e-06
3.22759e-06
2.34754e-07
3.29792e-06
1.8574e-08
3.34789e-06
1.07461e-08
3.38371e-06
6.58619e-09
3.40993e-06
-1.90983e-08
3.42687e-06
-3.7811e-08
3.43179e-06
-4.43812e-08
3.42862e-06
-4.56168e-08
3.42217e-06
-4.72183e-08
3.4155e-06
-5.14488e-08
3.4102e-06
-5.84083e-08
3.40708e-06
-6.71615e-08
3.40636e-06
-7.61329e-08
3.40764e-06
-8.3032e-08
3.41007e-06
-8.65972e-08
3.41263e-06
-8.75917e-08
3.4144e-06
-8.74377e-08
-8.88848e-08
3.41537e-06
2.87164e-06
1.4648e-07
2.93022e-06
-4.00042e-08
2.95397e-06
-1.30062e-08
2.9769e-06
-1.6341e-08
2.99396e-06
-3.6159e-08
3.00448e-06
-4.83289e-08
3.01306e-06
-5.29573e-08
3.02372e-06
-5.62803e-08
3.03641e-06
-5.99062e-08
3.04802e-06
-6.30649e-08
3.05558e-06
-6.59678e-08
3.05807e-06
-6.96471e-08
3.05612e-06
-7.41805e-08
3.05084e-06
-7.77583e-08
3.0432e-06
-7.89542e-08
3.0338e-06
-7.81943e-08
3.02352e-06
-7.71575e-08
-7.90273e-08
3.01366e-06
2.53672e-06
7.44149e-08
2.5556e-06
-5.88786e-08
2.58436e-06
-4.17641e-08
2.61385e-06
-4.58324e-08
2.62908e-06
-5.1396e-08
2.63375e-06
-5.29921e-08
2.63517e-06
-5.43763e-08
2.63548e-06
-5.65956e-08
2.63345e-06
-5.78701e-08
2.62785e-06
-5.74638e-08
2.61869e-06
-5.68114e-08
2.60664e-06
-5.75972e-08
2.5921e-06
-5.96419e-08
2.57518e-06
-6.08429e-08
2.55594e-06
-5.9708e-08
2.53416e-06
-5.64126e-08
2.51016e-06
-5.31626e-08
-5.29623e-08
2.4841e-06
2.18204e-06
2.12316e-06
2.08139e-06
2.03556e-06
1.98417e-06
1.93117e-06
1.8768e-06
1.8202e-06
1.76233e-06
1.70487e-06
1.64806e-06
1.59046e-06
1.53082e-06
1.46997e-06
1.41027e-06
1.35385e-06
1.30069e-06
1.24773e-06
-3.77623e-08
3.77623e-08
-6.94925e-08
3.17302e-08
-9.92476e-08
2.97551e-08
-1.28394e-07
2.91469e-08
-1.56483e-07
2.80889e-08
-1.83034e-07
2.65505e-08
-2.07613e-07
2.45795e-08
-2.29816e-07
2.22026e-08
-2.49249e-07
1.94332e-08
-2.65511e-07
1.62617e-08
-2.78226e-07
1.27153e-08
-2.87058e-07
8.8318e-09
-2.91683e-07
4.62453e-09
-2.91844e-07
1.61061e-10
-2.87189e-07
-4.65475e-09
-2.77596e-07
-9.59274e-09
-2.62979e-07
-1.46174e-08
-2.43312e-07
-1.96667e-08
-2.18549e-07
-2.47634e-08
-1.88821e-07
-2.97273e-08
-1.54201e-07
-3.46199e-08
-1.14937e-07
-3.92645e-08
-7.12279e-08
-4.3709e-08
-2.33208e-08
-4.79071e-08
2.83332e-08
-5.1654e-08
8.34375e-08
-5.51043e-08
1.41612e-07
-5.81749e-08
2.0246e-07
-6.08474e-08
2.65573e-07
-6.31131e-08
3.30544e-07
-6.4971e-08
3.96971e-07
-6.64273e-08
4.64465e-07
-6.74937e-08
5.32652e-07
-6.81868e-08
6.01179e-07
-6.85273e-08
6.69718e-07
-6.85392e-08
7.37967e-07
-6.82484e-08
8.05649e-07
-6.7682e-08
8.72517e-07
-6.68679e-08
9.38351e-07
-6.58342e-08
1.00296e-06
-6.46081e-08
1.06617e-06
-6.32162e-08
1.12786e-06
-6.16837e-08
1.18789e-06
-6.00345e-08
1.24618e-06
-5.82907e-08
1.30266e-06
-5.64728e-08
1.35726e-06
-5.45994e-08
1.40994e-06
-5.26872e-08
1.46069e-06
-5.07514e-08
1.5095e-06
-4.88052e-08
1.55636e-06
-4.68604e-08
1.60129e-06
-4.49272e-08
1.6443e-06
-4.30144e-08
1.68543e-06
-4.11294e-08
1.72471e-06
-3.92787e-08
1.76218e-06
-3.74673e-08
1.79788e-06
-3.56996e-08
1.83186e-06
-3.3979e-08
1.86416e-06
-3.2308e-08
1.89485e-06
-3.06887e-08
1.92398e-06
-2.91224e-08
1.95159e-06
-2.76099e-08
1.97774e-06
-2.61516e-08
2.00248e-06
-2.47476e-08
2.02588e-06
-2.33975e-08
2.04798e-06
-2.21007e-08
2.06884e-06
-2.08564e-08
2.0885e-06
-1.96636e-08
2.10702e-06
-1.85212e-08
2.12445e-06
-1.74279e-08
2.14083e-06
-1.63822e-08
2.15622e-06
-1.53829e-08
2.17064e-06
-1.44283e-08
2.18416e-06
-1.35171e-08
2.19681e-06
-1.26476e-08
2.20863e-06
-1.18183e-08
2.21966e-06
-1.10277e-08
2.22993e-06
-1.02742e-08
2.23949e-06
-9.55652e-09
2.24836e-06
-8.87299e-09
2.25658e-06
-8.22226e-09
2.26418e-06
-7.60292e-09
2.2712e-06
-7.0136e-09
2.27765e-06
-6.45303e-09
2.28357e-06
-5.91989e-09
2.28898e-06
-5.41299e-09
2.29391e-06
-4.93101e-09
2.29839e-06
-4.47301e-09
2.30243e-06
-4.03772e-09
2.30605e-06
-3.62399e-09
2.30928e-06
-3.23121e-09
2.31214e-06
-2.85801e-09
2.31464e-06
-2.50305e-09
2.31681e-06
-2.16683e-09
2.31866e-06
-1.84756e-09
2.3202e-06
-1.54218e-09
2.32145e-06
-1.25444e-09
2.32244e-06
-9.82636e-10
2.32315e-06
-7.17198e-10
2.32362e-06
-4.66409e-10
2.32385e-06
-2.33373e-10
2.32385e-06
9.28509e-14
2.32359e-06
2.60407e-10
2.32308e-06
5.08129e-10
2.32234e-06
7.42155e-10
2.32138e-06
9.58106e-10
2.32023e-06
1.15068e-09
2.31891e-06
1.32018e-09
2.31744e-06
1.47059e-09
2.31584e-06
1.60668e-09
2.3141e-06
1.73264e-09
2.31225e-06
1.85112e-09
2.31029e-06
1.96361e-09
2.30822e-06
2.07076e-09
2.30604e-06
2.17302e-09
2.30377e-06
2.27061e-09
2.30141e-06
2.36382e-09
2.29896e-06
2.4528e-09
2.29642e-06
2.53793e-09
2.2938e-06
2.61926e-09
2.2911e-06
2.6972e-09
2.28833e-06
2.77179e-09
2.28549e-06
2.84336e-09
2.28258e-06
2.91204e-09
2.2796e-06
2.97812e-09
2.27656e-06
3.04173e-09
2.27345e-06
3.10305e-09
2.27029e-06
3.16228e-09
2.26707e-06
3.2195e-09
2.2638e-06
3.27486e-09
2.26047e-06
3.32854e-09
2.25709e-06
3.38057e-09
2.25366e-06
3.43119e-09
2.25018e-06
3.48041e-09
2.24665e-06
3.52845e-09
2.24307e-06
3.57534e-09
2.23945e-06
3.62126e-09
2.23578e-06
3.66618e-09
2.23207e-06
3.71035e-09
2.22832e-06
3.75371e-09
2.22452e-06
3.7964e-09
2.22069e-06
3.83849e-09
2.2168e-06
3.88007e-09
2.21288e-06
3.92126e-09
2.20892e-06
3.96214e-09
2.20492e-06
4.00285e-09
2.20088e-06
4.0435e-09
2.19679e-06
4.08422e-09
2.19267e-06
4.12513e-09
2.1885e-06
4.16638e-09
2.18429e-06
4.20814e-09
2.18004e-06
4.25057e-09
2.17575e-06
4.294e-09
2.17141e-06
4.33871e-09
2.16702e-06
4.38503e-09
2.16259e-06
4.43347e-09
2.1581e-06
4.4846e-09
2.15357e-06
4.53918e-09
2.14897e-06
4.59811e-09
2.14431e-06
4.66261e-09
2.13957e-06
4.7342e-09
2.13476e-06
4.81488e-09
2.12985e-06
4.9072e-09
2.12483e-06
5.01452e-09
2.11969e-06
5.14129e-09
2.1144e-06
5.29312e-09
2.10892e-06
5.47835e-09
2.10322e-06
5.70611e-09
2.09722e-06
5.99304e-09
2.09087e-06
6.35664e-09
2.08405e-06
6.81846e-09
2.07658e-06
7.46991e-09
2.06842e-06
8.15853e-09
2.05874e-06
9.6775e-09
2.04851e-06
1.02331e-08
2.03362e-06
1.48893e-08
2.02e-06
1.36139e-08
1.99109e-06
2.89105e-08
1.96825e-06
2.28404e-08
1.88624e-06
8.20122e-08
8.28634e-08
1.80338e-06
-3.86313e-08
7.63936e-08
-7.05949e-08
6.36938e-08
-1.00474e-07
5.96341e-08
-1.29675e-07
5.83484e-08
-1.57713e-07
5.61265e-08
-1.84067e-07
5.2904e-08
-2.08293e-07
4.88063e-08
-2.29971e-07
4.38806e-08
-2.48683e-07
3.81451e-08
-2.6403e-07
3.16081e-08
-2.75649e-07
2.43346e-08
-2.83173e-07
1.63558e-08
-2.86324e-07
7.77604e-09
-2.84724e-07
-1.43918e-09
-2.78131e-07
-1.12483e-08
-2.66372e-07
-2.1351e-08
-2.49288e-07
-3.17019e-08
-2.26828e-07
-4.21264e-08
-1.99052e-07
-5.25398e-08
-1.65997e-07
-6.27817e-08
-1.27883e-07
-7.27344e-08
-8.48318e-08
-8.23156e-08
-3.71808e-08
-9.136e-08
1.46805e-08
-9.97684e-08
7.06542e-08
-1.07628e-07
1.30205e-07
-1.14655e-07
1.92924e-07
-1.20894e-07
2.5839e-07
-1.26313e-07
3.26177e-07
-1.309e-07
3.95862e-07
-1.34656e-07
4.67028e-07
-1.37594e-07
5.39275e-07
-1.3974e-07
6.1222e-07
-1.41131e-07
6.85502e-07
-1.4181e-07
7.5879e-07
-1.41826e-07
8.31775e-07
-1.41233e-07
9.04179e-07
-1.40087e-07
9.75755e-07
-1.38443e-07
1.04628e-06
-1.36359e-07
1.11556e-06
-1.3389e-07
1.18344e-06
-1.31089e-07
1.24976e-06
-1.28006e-07
1.31441e-06
-1.24689e-07
1.3773e-06
-1.21182e-07
1.43836e-06
-1.17525e-07
1.49751e-06
-1.13754e-07
1.55473e-06
-1.09903e-07
1.60998e-06
-1.06002e-07
1.66325e-06
-1.02078e-07
1.71454e-06
-9.81517e-08
1.76386e-06
-9.42451e-08
1.81122e-06
-9.03752e-08
1.85665e-06
-8.65567e-08
1.90017e-06
-8.28023e-08
1.94183e-06
-7.91223e-08
1.98165e-06
-7.55255e-08
2.01969e-06
-7.20185e-08
2.05599e-06
-6.86071e-08
2.0906e-06
-6.52951e-08
2.12356e-06
-6.20856e-08
2.15493e-06
-5.89805e-08
2.18476e-06
-5.5981e-08
2.2131e-06
-5.30873e-08
2.24e-06
-5.02993e-08
2.26552e-06
-4.76159e-08
2.2897e-06
-4.50361e-08
2.31259e-06
-4.25581e-08
2.33425e-06
-4.01799e-08
2.35472e-06
-3.78993e-08
2.37405e-06
-3.57139e-08
2.39229e-06
-3.36212e-08
2.40948e-06
-3.16184e-08
2.42567e-06
-2.97028e-08
2.44089e-06
-2.78715e-08
2.45519e-06
-2.61218e-08
2.46862e-06
-2.44507e-08
2.4812e-06
-2.28555e-08
2.49298e-06
-2.13333e-08
2.50398e-06
-1.98813e-08
2.51426e-06
-1.84968e-08
2.52383e-06
-1.71772e-08
2.53274e-06
-1.59197e-08
2.54101e-06
-1.47219e-08
2.54867e-06
-1.35812e-08
2.55575e-06
-1.24953e-08
2.56228e-06
-1.14618e-08
2.56829e-06
-1.04784e-08
2.57379e-06
-9.54279e-09
2.57882e-06
-8.65302e-09
2.5834e-06
-7.80697e-09
2.58754e-06
-7.00259e-09
2.59128e-06
-6.23809e-09
2.59462e-06
-5.51181e-09
2.5976e-06
-4.82144e-09
2.60022e-06
-4.16545e-09
2.60251e-06
-3.54287e-09
2.60448e-06
-2.95098e-09
2.60615e-06
-2.38785e-09
2.60753e-06
-1.85354e-09
2.60865e-06
-1.34682e-09
2.60951e-06
-8.64264e-10
2.61017e-06
-3.98921e-10
2.61063e-06
4.87976e-11
2.61091e-06
4.61225e-10
2.61102e-06
8.51212e-10
2.61095e-06
1.21588e-09
2.61071e-06
1.55941e-09
2.6103e-06
1.88441e-09
2.60971e-06
2.19323e-09
2.60896e-06
2.48775e-09
2.60804e-06
2.76879e-09
2.60697e-06
3.0369e-09
2.60575e-06
3.29243e-09
2.60438e-06
3.53587e-09
2.60289e-06
3.76757e-09
2.60126e-06
3.98821e-09
2.59952e-06
4.19828e-09
2.59766e-06
4.39837e-09
2.59569e-06
4.58906e-09
2.59361e-06
4.77091e-09
2.59144e-06
4.94439e-09
2.58917e-06
5.11004e-09
2.58682e-06
5.26833e-09
2.58437e-06
5.41982e-09
2.58185e-06
5.56496e-09
2.57925e-06
5.70416e-09
2.57657e-06
5.83773e-09
2.57383e-06
5.96612e-09
2.57101e-06
6.08965e-09
2.56813e-06
6.20867e-09
2.56519e-06
6.32348e-09
2.56219e-06
6.43442e-09
2.55913e-06
6.54171e-09
2.55601e-06
6.64573e-09
2.55284e-06
6.74669e-09
2.54961e-06
6.84482e-09
2.54634e-06
6.94043e-09
2.54302e-06
7.03367e-09
2.53965e-06
7.12478e-09
2.53623e-06
7.21397e-09
2.53276e-06
7.30142e-09
2.52926e-06
7.38729e-09
2.52571e-06
7.47189e-09
2.52211e-06
7.55542e-09
2.51848e-06
7.63817e-09
2.5148e-06
7.72036e-09
2.51108e-06
7.80222e-09
2.50732e-06
7.88401e-09
2.50352e-06
7.96607e-09
2.49968e-06
8.04872e-09
2.4958e-06
8.13234e-09
2.49188e-06
8.21747e-09
2.48791e-06
8.30455e-09
2.4839e-06
8.39443e-09
2.47985e-06
8.48787e-09
2.47575e-06
8.586e-09
2.4716e-06
8.69011e-09
2.46739e-06
8.80197e-09
2.46313e-06
8.92372e-09
2.45881e-06
9.05815e-09
2.45441e-06
9.2089e-09
2.44994e-06
9.38046e-09
2.44538e-06
9.57908e-09
2.44071e-06
9.81232e-09
2.43591e-06
1.00915e-08
2.43096e-06
1.04281e-08
2.42582e-06
1.08471e-08
2.42045e-06
1.13578e-08
2.41477e-06
1.2036e-08
2.40876e-06
1.28291e-08
2.40217e-06
1.40592e-08
2.39511e-06
1.52239e-08
2.38688e-06
1.79066e-08
2.37792e-06
1.9191e-08
2.36655e-06
2.62543e-08
2.3535e-06
2.6665e-08
2.33525e-06
4.71598e-08
2.31066e-06
4.74309e-08
2.28043e-06
1.1225e-07
1.26722e-07
2.23657e-06
-4.06682e-08
1.17062e-07
-7.55221e-08
9.85477e-08
-1.08677e-07
9.27887e-08
-1.41177e-07
9.08485e-08
-1.72453e-07
8.74022e-08
-2.01973e-07
8.24242e-08
-2.2928e-07
7.61132e-08
-2.5391e-07
6.85106e-08
-2.75409e-07
5.9644e-08
-2.93339e-07
4.95385e-08
-3.07269e-07
3.82642e-08
-3.16803e-07
2.58903e-08
-3.21537e-07
1.25098e-08
-3.21189e-07
-1.78709e-09
-3.15378e-07
-1.70594e-08
-3.03944e-07
-3.27853e-08
-2.86767e-07
-4.88781e-08
-2.63777e-07
-6.5117e-08
-2.35083e-07
-8.12333e-08
-2.00719e-07
-9.71459e-08
-1.60904e-07
-1.12549e-07
-1.1589e-07
-1.2733e-07
-6.60826e-08
-1.41167e-07
-1.17461e-08
-1.54105e-07
4.66364e-08
-1.6601e-07
1.08663e-07
-1.76682e-07
1.73862e-07
-1.86092e-07
2.41761e-07
-1.94212e-07
3.11892e-07
-2.01032e-07
3.838e-07
-2.06563e-07
4.57042e-07
-2.10836e-07
5.31198e-07
-2.13897e-07
6.05875e-07
-2.15809e-07
6.80708e-07
-2.16643e-07
7.55363e-07
-2.16481e-07
8.29538e-07
-2.15408e-07
9.02962e-07
-2.13511e-07
9.75398e-07
-2.10879e-07
1.04664e-06
-2.07598e-07
1.1165e-06
-2.03753e-07
1.18483e-06
-1.99424e-07
1.25151e-06
-1.94687e-07
1.31644e-06
-1.89613e-07
1.37952e-06
-1.84266e-07
1.4407e-06
-1.78707e-07
1.49994e-06
-1.72989e-07
1.5572e-06
-1.67161e-07
1.61246e-06
-1.61265e-07
1.66572e-06
-1.55341e-07
1.71699e-06
-1.49421e-07
1.76628e-06
-1.43535e-07
1.81361e-06
-1.37707e-07
1.85902e-06
-1.31959e-07
1.90252e-06
-1.26309e-07
1.94417e-06
-1.2077e-07
1.984e-06
-1.15357e-07
2.02206e-06
-1.10078e-07
2.0584e-06
-1.04941e-07
2.09305e-06
-9.99518e-08
2.12608e-06
-9.51149e-08
2.15753e-06
-9.04328e-08
2.18746e-06
-8.59071e-08
2.21591e-06
-8.15382e-08
2.24294e-06
-7.73256e-08
2.26859e-06
-7.32683e-08
2.29292e-06
-6.93643e-08
2.31597e-06
-6.56113e-08
2.3378e-06
-6.20064e-08
2.35844e-06
-5.85465e-08
2.37796e-06
-5.5228e-08
2.39639e-06
-5.20475e-08
2.41377e-06
-4.90009e-08
2.43015e-06
-4.60844e-08
2.44557e-06
-4.32939e-08
2.46007e-06
-4.06252e-08
2.4737e-06
-3.80743e-08
2.48648e-06
-3.56372e-08
2.49846e-06
-3.33097e-08
2.50966e-06
-3.10877e-08
2.52013e-06
-2.89674e-08
2.5299e-06
-2.69448e-08
2.539e-06
-2.50161e-08
2.54745e-06
-2.31776e-08
2.5553e-06
-2.14256e-08
2.56256e-06
-1.97566e-08
2.56926e-06
-1.8167e-08
2.57544e-06
-1.66537e-08
2.58111e-06
-1.52133e-08
2.5863e-06
-1.38426e-08
2.59103e-06
-1.25387e-08
2.59533e-06
-1.12983e-08
2.59921e-06
-1.01192e-08
2.60269e-06
-8.99823e-09
2.60581e-06
-7.93243e-09
2.60856e-06
-6.92007e-09
2.61098e-06
-5.9583e-09
2.61307e-06
-5.0435e-09
2.61486e-06
-4.17466e-09
2.61635e-06
-3.34939e-09
2.61757e-06
-2.56284e-09
2.61852e-06
-1.81505e-09
2.61923e-06
-1.10749e-09
2.61972e-06
-4.40249e-10
2.61998e-06
1.9204e-10
2.62005e-06
7.89736e-10
2.61991e-06
1.35474e-09
2.61958e-06
1.88971e-09
2.61906e-06
2.39738e-09
2.61838e-06
2.88039e-09
2.61752e-06
3.34018e-09
2.61652e-06
3.77784e-09
2.61536e-06
4.19421e-09
2.61406e-06
4.59021e-09
2.61263e-06
4.96683e-09
2.61107e-06
5.32503e-09
2.60939e-06
5.66575e-09
2.6076e-06
5.98993e-09
2.6057e-06
6.29856e-09
2.6037e-06
6.59244e-09
2.6016e-06
6.87246e-09
2.5994e-06
7.13942e-09
2.59712e-06
7.39412e-09
2.59475e-06
7.6373e-09
2.5923e-06
7.86984e-09
2.58977e-06
8.0923e-09
2.58717e-06
8.30542e-09
2.5845e-06
8.50977e-09
2.58176e-06
8.70587e-09
2.57895e-06
8.89436e-09
2.57609e-06
9.07574e-09
2.57316e-06
9.25047e-09
2.57018e-06
9.41907e-09
2.56714e-06
9.58198e-09
2.56404e-06
9.73962e-09
2.5609e-06
9.89237e-09
2.5577e-06
1.00407e-08
2.55446e-06
1.01849e-08
2.55116e-06
1.03254e-08
2.54783e-06
1.04625e-08
2.54444e-06
1.05964e-08
2.54102e-06
1.07276e-08
2.53755e-06
1.08563e-08
2.53404e-06
1.09828e-08
2.53049e-06
1.11076e-08
2.52689e-06
1.1231e-08
2.52326e-06
1.13534e-08
2.51959e-06
1.14751e-08
2.51587e-06
1.15966e-08
2.51212e-06
1.17183e-08
2.50833e-06
1.18407e-08
2.5045e-06
1.19644e-08
2.50062e-06
1.20901e-08
2.49671e-06
1.22186e-08
2.49275e-06
1.23509e-08
2.48875e-06
1.24883e-08
2.48471e-06
1.26324e-08
2.48061e-06
1.27851e-08
2.47647e-06
1.29488e-08
2.47226e-06
1.31268e-08
2.468e-06
1.33231e-08
2.46366e-06
1.35428e-08
2.45925e-06
1.37925e-08
2.45475e-06
1.40812e-08
2.45014e-06
1.44196e-08
2.44541e-06
1.48244e-08
2.44053e-06
1.53109e-08
2.43546e-06
1.59178e-08
2.43016e-06
1.66517e-08
2.42456e-06
1.76331e-08
2.41863e-06
1.87677e-08
2.41216e-06
2.05248e-08
2.40514e-06
2.2243e-08
2.39719e-06
2.58569e-08
2.38814e-06
2.82443e-08
2.37759e-06
3.68027e-08
2.36413e-06
4.01213e-08
2.34923e-06
6.20676e-08
2.32618e-06
7.04783e-08
2.30806e-06
1.30372e-07
1.65767e-07
2.26901e-06
-4.42145e-08
1.61276e-07
-8.38309e-08
1.38164e-07
-1.22124e-07
1.31082e-07
-1.59742e-07
1.28467e-07
-1.95995e-07
1.23655e-07
-2.3032e-07
1.16749e-07
-2.62217e-07
1.08011e-07
-2.91179e-07
9.74719e-08
-3.16681e-07
8.51465e-08
-3.38214e-07
7.10718e-08
-3.55295e-07
5.53449e-08
-3.67442e-07
3.80369e-08
-3.74281e-07
1.93491e-08
-3.75424e-07
-6.43835e-10
-3.7037e-07
-2.21138e-08
-3.58946e-07
-4.42093e-08
-3.41071e-07
-6.67535e-08
-3.16706e-07
-8.94815e-08
-2.85867e-07
-1.12073e-07
-2.48821e-07
-1.34192e-07
-2.05794e-07
-1.55576e-07
-1.57193e-07
-1.7593e-07
-1.03275e-07
-1.95085e-07
-4.4667e-08
-2.12713e-07
1.80183e-08
-2.28695e-07
8.44863e-08
-2.4315e-07
1.54063e-07
-2.55669e-07
2.26215e-07
-2.66364e-07
3.00415e-07
-2.75233e-07
3.76156e-07
-2.82304e-07
4.52957e-07
-2.87636e-07
5.3037e-07
-2.91311e-07
6.07987e-07
-2.93425e-07
6.85435e-07
-2.94091e-07
7.62381e-07
-2.93427e-07
8.38531e-07
-2.91558e-07
9.13629e-07
-2.88609e-07
9.87454e-07
-2.84703e-07
1.05982e-06
-2.7996e-07
1.13056e-06
-2.74496e-07
1.19955e-06
-2.68419e-07
1.2667e-06
-2.61829e-07
1.33191e-06
-2.54822e-07
1.39512e-06
-2.47482e-07
1.4563e-06
-2.39888e-07
1.51542e-06
-2.32108e-07
1.57247e-06
-2.24205e-07
1.62744e-06
-2.16235e-07
1.68034e-06
-2.08246e-07
1.7312e-06
-2.00279e-07
1.78003e-06
-1.92372e-07
1.82688e-06
-1.84555e-07
1.87178e-06
-1.76855e-07
1.91476e-06
-1.69293e-07
1.95588e-06
-1.61889e-07
1.99518e-06
-1.54657e-07
2.03271e-06
-1.47608e-07
2.06852e-06
-1.40752e-07
2.10267e-06
-1.34095e-07
2.13519e-06
-1.27643e-07
2.16616e-06
-1.21398e-07
2.19561e-06
-1.15362e-07
2.22361e-06
-1.09535e-07
2.2502e-06
-1.03916e-07
2.27544e-06
-9.85028e-08
2.29937e-06
-9.32933e-08
2.32204e-06
-8.8284e-08
2.3435e-06
-8.34711e-08
2.36381e-06
-7.88502e-08
2.383e-06
-7.44168e-08
2.40111e-06
-7.0166e-08
2.41821e-06
-6.60927e-08
2.43431e-06
-6.21918e-08
2.44948e-06
-5.84578e-08
2.46374e-06
-5.48855e-08
2.47713e-06
-5.14694e-08
2.4897e-06
-4.82042e-08
2.50147e-06
-4.50845e-08
2.51249e-06
-4.21052e-08
2.52279e-06
-3.92609e-08
2.53239e-06
-3.65467e-08
2.54133e-06
-3.39574e-08
2.54964e-06
-3.14882e-08
2.55735e-06
-2.91344e-08
2.56448e-06
-2.68912e-08
2.57107e-06
-2.47542e-08
2.57714e-06
-2.27189e-08
2.5827e-06
-2.07811e-08
2.5878e-06
-1.89365e-08
2.59244e-06
-1.71811e-08
2.59665e-06
-1.55111e-08
2.60046e-06
-1.39229e-08
2.60387e-06
-1.24127e-08
2.60691e-06
-1.09771e-08
2.60961e-06
-9.61253e-09
2.61196e-06
-8.31593e-09
2.61401e-06
-7.08381e-09
2.61574e-06
-5.91289e-09
2.61719e-06
-4.80078e-09
2.61838e-06
-3.74538e-09
2.61931e-06
-2.74361e-09
2.61999e-06
-1.78989e-09
2.62043e-06
-8.82502e-10
2.62064e-06
-1.84699e-11
2.62065e-06
7.80793e-10
2.62046e-06
1.54597e-09
2.62008e-06
2.27099e-09
2.61952e-06
2.95931e-09
2.61878e-06
3.61317e-09
2.61789e-06
4.23455e-09
2.61684e-06
4.82525e-09
2.61565e-06
5.38686e-09
2.61432e-06
5.92078e-09
2.61286e-06
6.42832e-09
2.61127e-06
6.91093e-09
2.60957e-06
7.3699e-09
2.60775e-06
7.80643e-09
2.60583e-06
8.22184e-09
2.6038e-06
8.61735e-09
2.60168e-06
8.99403e-09
2.59947e-06
9.35298e-09
2.59717e-06
9.69536e-09
2.59478e-06
1.00222e-08
2.59232e-06
1.03344e-08
2.58977e-06
1.06332e-08
2.58716e-06
1.09191e-08
2.58448e-06
1.11932e-08
2.58173e-06
1.14561e-08
2.57891e-06
1.17086e-08
2.57604e-06
1.19515e-08
2.5731e-06
1.21854e-08
2.57011e-06