/*--------------------------------*- C++ -*----------------------------------*\
  =========                 |
  \\      /  F ield         | OpenFOAM: The Open Source CFD Toolbox
   \\    /   O peration     | Website:  https://openfoam.org
    \\  /    A nd           | Version:  7
     \\/     M anipulation  |
\*---------------------------------------------------------------------------*/
FoamFile
{
    version     2.0;
    format      ascii;
    class       volScalarField;
    location    "0.007";
    object      pMean;
}
// * * * * * * * * * * * * * * * * * * * * * * * * * * * * * * * * * * * * * //

dimensions      [0 2 -2 0 0 0 0];

internalField   nonuniform List<scalar> 
12225
(
9.94852
10.5216
10.7978
10.831
10.7685
10.6557
10.5148
10.3531
10.1705
9.96126
9.71893
9.42419
9.06924
8.60148
8.02122
7.11551
5.91656
3.05415
10.2896
10.5377
10.8001
10.8417
10.776
10.6615
10.5209
10.36
10.1772
9.96873
9.72539
9.43585
9.07599
8.63209
8.02532
7.26698
6.03341
4.74677
10.4608
10.5238
10.787
10.8513
10.7885
10.6743
10.5362
10.3775
10.1974
9.98944
9.7486
9.45804
9.10961
8.66617
8.11707
7.38086
6.46251
5.3244
10.6553
10.569
10.7998
10.8753
10.8129
10.6959
10.557
10.4005
10.2216
10.0164
9.77589
9.49375
9.1494
8.73667
8.21115
7.58316
6.79428
5.9354
10.818
10.6116
10.8062
10.8918
10.835
10.7168
10.5783
10.4239
10.2488
10.047
9.81287
9.53762
9.21049
8.81838
8.34734
7.79286
7.15585
6.50343
10.9953
10.6804
10.8302
10.9189
10.8684
10.7499
10.6106
10.4584
10.2868
10.0897
9.86111
9.59613
9.28626
8.92471
8.50455
8.02921
7.51683
7.00648
11.1565
10.754
10.8607
10.9478
10.9037
10.7856
10.6451
10.494
10.3268
10.1364
9.91797
9.667
9.37882
9.05063
8.6822
8.28157
7.86827
7.47468
11.3133
10.844
10.9072
10.9867
10.9473
10.831
10.6909
10.5425
10.3808
10.1978
9.98922
9.75352
9.48918
9.19594
8.87771
8.5438
8.21311
7.91055
11.4597
10.942
10.9653
11.0333
10.9963
10.8828
10.7434
10.5967
10.44
10.2662
10.0713
9.85389
9.61512
9.35733
9.08627
8.81163
8.54954
8.31871
11.5651
11.0402
11.0363
11.0904
11.0532
10.943
10.8063
10.6634
10.5134
10.3492
10.1677
9.96954
9.7569
9.53355
9.30595
9.08312
8.87801
8.70443
11.7026
11.1499
11.1193
11.1585
11.1188
11.0116
10.8782
10.739
10.5954
10.4421
10.2764
10.0985
9.91203
9.7215
9.53335
9.35543
9.19775
9.07025
11.83
11.2554
11.2044
11.2306
11.1875
11.0824
10.9528
10.8187
10.6821
10.5395
10.3879
10.2285
10.0652
9.9026
9.74665
9.60393
9.48226
9.38888
11.9386
11.3613
11.2964
11.3114
11.2647
11.1612
11.0353
10.9061
10.7773
10.645
10.5077
10.3666
10.2252
10.0882
9.96078
9.84839
9.75696
9.69166
12.0708
11.4916
11.4113
11.4143
11.3632
11.2613
11.1403
11.0178
10.8973
10.7771
10.6559
10.5347
10.4167
10.3061
10.2073
10.1242
10.0613
10.0216
12.2526
11.6477
11.5521
11.544
11.4887
11.3879
11.2714
11.1565
11.0472
10.9414
10.8379
10.7377
10.6437
10.5592
10.4877
10.4318
10.3944
10.3771
12.4709
11.8421
11.7277
11.7112
11.6526
11.553
11.442
11.3356
11.2372
11.1455
11.0596
10.98
10.9089
10.8487
10.8017
10.7694
10.7535
10.7544
12.6974
12.0598
11.9408
11.9203
11.8595
11.7598
11.6525
11.5538
11.4664
11.3884
11.3188
11.2579
11.207
11.1675
11.1409
11.1277
11.1285
11.1431
12.8669
12.2886
12.1895
12.1696
12.106
12.0078
11.9064
11.8167
11.7409
11.6769
11.6225
11.5776
11.5434
11.5205
11.5096
11.5106
11.5234
11.5474
13.2217
12.6294
12.5238
12.4976
12.4272
12.3227
12.2179
12.1286
12.0566
11.9989
11.9532
11.9184
11.8946
11.8818
11.8799
11.8883
11.9065
11.9334
13.5496
12.9586
12.8424
12.7963
12.708
12.5931
12.4844
12.3946
12.3228
12.2657
12.2217
12.1897
12.1693
12.1599
12.161
12.1717
12.1912
12.2184
13.8481
13.2425
13.1082
13.0384
12.9268
12.7931
12.6721
12.5761
12.503
12.4464
12.4027
12.3712
12.3517
12.3434
12.3454
12.3566
12.376
12.4024
14.1506
13.522
13.3494
13.2447
13.1129
12.9702
12.8421
12.7368
12.6533
12.5891
12.5417
12.5087
12.4883
12.4792
12.4804
12.4906
12.5087
12.5336
14.498
13.801
13.5565
13.3994
13.2358
13.0768
12.9427
12.8368
12.7539
12.689
12.64
12.6058
12.5846
12.5747
12.575
12.5841
12.601
12.6246
14.8334
14.0672
13.7567
13.5603
13.3811
13.2115
13.0617
12.9372
12.8403
12.7685
12.7167
12.6807
12.6578
12.6463
12.645
12.6526
12.6679
12.6898
15.1209
14.2742
13.8632
13.6139
13.4234
13.2587
13.1132
12.9898
12.8921
12.8193
12.767
12.7305
12.7068
12.6943
12.6921
12.6987
12.713
12.7336
15.5157
14.5397
14.0255
13.736
13.5324
13.3487
13.1818
13.0439
12.9394
12.8637
12.8094
12.771
12.7456
12.7316
12.728
12.7334
12.7463
12.7654
15.8177
14.6375
14.0254
13.7395
13.5569
13.3792
13.2088
13.0676
12.9627
12.8874
12.833
12.794
12.7678
12.7531
12.7487
12.7532
12.7651
12.783
16.3367
14.8598
14.1081
13.807
13.616
13.4202
13.2377
13.0918
12.9852
12.9087
12.853
12.8128
12.7855
12.7699
12.7647
12.7682
12.779
12.7956
16.6062
14.8374
14.0801
13.825
13.6351
13.4315
13.2465
13.1013
12.9953
12.9185
12.8623
12.8215
12.7936
12.7772
12.7712
12.774
12.784
12.7995
17.3721
14.8829
14.0857
13.8576
13.656
13.4426
13.2549
13.1095
13.0029
12.9255
12.8688
12.8275
12.7991
12.7822
12.7757
12.778
12.7874
12.8025
13.1556
13.1617
13.1716
13.1865
13.2061
13.2306
13.2599
13.2939
13.3325
13.3755
13.4228
13.4742
13.5292
13.5877
13.6493
13.7135
13.7798
13.8479
13.9172
13.9872
14.0573
14.127
14.196
14.2635
14.3292
14.3927
14.4535
14.5113
14.5658
14.6168
14.6641
14.7075
14.7469
14.7823
14.8137
14.841
14.8644
14.8838
14.8995
14.9115
14.92
14.9252
14.9271
14.926
14.9221
14.9154
14.9063
14.8947
14.881
14.8652
14.8476
14.8282
14.8071
14.7846
14.7607
14.7355
14.7092
14.6818
14.6535
14.6242
14.5941
14.5633
14.5318
14.4996
14.4669
14.4336
14.3998
14.3656
14.3309
14.2959
14.2605
14.2247
14.1886
14.1522
14.1155
14.0786
14.0414
14.0039
13.9662
13.9282
13.89
13.8516
13.813
13.7741
13.735
13.6957
13.6561
13.6164
13.5764
13.5361
13.4957
13.455
13.4141
13.3729
13.3315
13.2899
13.248
13.2059
13.1634
13.1208
13.0778
13.0346
12.9911
12.9473
12.9032
12.8588
12.8142
12.7692
12.724
12.6784
12.6325
12.5863
12.5398
12.493
12.4458
12.3983
12.3505
12.3023
12.2537
12.2048
12.1556
12.1059
12.0559
12.0056
11.9548
11.9037
11.8522
11.8003
11.7481
11.6954
11.6423
11.5889
11.535
11.4807
11.426
11.3709
11.3153
11.2593
11.2029
11.1461
11.0888
11.031
10.9728
10.9142
10.8551
10.7955
10.7355
10.675
10.6141
10.5527
10.4908
10.4284
10.3656
10.3023
10.2385
10.1742
10.1095
10.0443
9.97871
9.91262
9.84611
9.77919
9.7119
9.64425
9.57632
9.50816
9.43985
9.37153
9.30334
9.2355
9.16831
9.10219
9.03766
8.97581
8.91747
8.86592
8.82252
8.79941
8.79978
8.87227
13.1247
13.1306
13.1408
13.1561
13.1763
13.2014
13.2315
13.2663
13.3059
13.35
13.3986
13.4512
13.5076
13.5675
13.6305
13.6961
13.7639
13.8334
13.9041
13.9754
14.0468
14.1178
14.1878
14.2564
14.3231
14.3874
14.4489
14.5074
14.5625
14.614
14.6617
14.7054
14.7451
14.7807
14.8122
14.8397
14.8631
14.8826
14.8983
14.9104
14.9189
14.924
14.926
14.9249
14.9209
14.9142
14.9051
14.8935
14.8798
14.864
14.8463
14.8269
14.8059
14.7834
14.7595
14.7343
14.708
14.6807
14.6523
14.6231
14.593
14.5622
14.5307
14.4986
14.4659
14.4326
14.3989
14.3647
14.3301
14.2951
14.2597
14.2239
14.1879
14.1515
14.1149
14.078
14.0408
14.0033
13.9656
13.9277
13.8895
13.8511
13.8125
13.7736
13.7346
13.6953
13.6557
13.616
13.576
13.5358
13.4954
13.4547
13.4138
13.3726
13.3312
13.2896
13.2477
13.2055
13.1631
13.1204
13.0775
13.0343
12.9908
12.947
12.903
12.8586
12.814
12.769
12.7238
12.6782
12.6323
12.5862
12.5397
12.4928
12.4457
12.3982
12.3503
12.3021
12.2536
12.2047
12.1554
12.1058
12.0558
12.0054
11.9547
11.9036
11.8521
11.8002
11.748
11.6953
11.6422
11.5888
11.5349
11.4806
11.4259
11.3707
11.3152
11.2592
11.2028
11.1459
11.0887
11.0309
10.9727
10.9141
10.855
10.7954
10.7354
10.6749
10.614
10.5526
10.4907
10.4283
10.3655
10.3022
10.2384
10.1741
10.1094
10.0442
9.97858
9.91249
9.84597
9.77905
9.71173
9.64408
9.57612
9.50793
9.43959
9.37122
9.30297
9.23505
9.16775
9.10145
9.03674
8.97442
8.91575
8.86258
8.81804
8.78582
8.77071
8.76328
13.062
13.0682
13.0789
13.0949
13.1161
13.1425
13.1741
13.2108
13.2523
13.2987
13.3496
13.4048
13.4639
13.5266
13.5925
13.6611
13.7318
13.8042
13.8777
13.9518
14.0258
14.0992
14.1715
14.2422
14.3108
14.3768
14.4399
14.4997
14.5559
14.6084
14.6569
14.7013
14.7416
14.7776
14.8095
14.8372
14.8608
14.8805
14.8963
14.9084
14.9169
14.922
14.924
14.9229
14.9189
14.9122
14.903
14.8914
14.8777
14.8619
14.8442
14.8248
14.8038
14.7813
14.7575
14.7324
14.7061
14.6788
14.6505
14.6213
14.5913
14.5605
14.5291
14.497
14.4644
14.4312
14.3975
14.3633
14.3288
14.2938
14.2585
14.2228
14.1868
14.1505
14.1139
14.077
14.0399
14.0025
13.9648
13.9269
13.8888
13.8504
13.8118
13.773
13.734
13.6947
13.6552
13.6155
13.5755
13.5354
13.4949
13.4543
13.4134
13.3723
13.3309
13.2893
13.2474
13.2053
13.1629
13.1203
13.0773
13.0341
12.9906
12.9469
12.9028
12.8585
12.8138
12.7689
12.7237
12.6781
12.6323
12.5861
12.5396
12.4927
12.4456
12.3981
12.3502
12.3021
12.2535
12.2046
12.1554
12.1057
12.0558
12.0054
11.9547
11.9036
11.8521
11.8002
11.7479
11.6953
11.6422
11.5887
11.5348
11.4805
11.4258
11.3707
11.3152
11.2592
11.2028
11.1459
11.0886
11.0309
10.9727
10.9141
10.855
10.7954
10.7354
10.6749
10.614
10.5525
10.4906
10.4283
10.3654
10.3021
10.2383
10.1741
10.1094
10.0442
9.97851
9.91241
9.84588
9.77893
9.7116
9.64391
9.57592
9.50769
9.4393
9.37085
9.3025
9.23444
9.16696
9.1004
9.03532
8.97241
8.91288
8.85797
8.81037
8.77064
8.7438
8.7174
12.9666
12.9732
12.9846
13.0018
13.0245
13.0529
13.0868
13.1261
13.1708
13.2206
13.2751
13.3343
13.3975
13.4645
13.5348
13.6078
13.6831
13.7599
13.8378
13.916
13.994
14.0712
14.147
14.2209
14.2924
14.3611
14.4264
14.4883
14.5463
14.6002
14.65
14.6954
14.7365
14.7732
14.8056
14.8337
14.8577
14.8775
14.8935
14.9057
14.9142
14.9194
14.9213
14.9202
14.9162
14.9095
14.9003
14.8887
14.875
14.8592
14.8415
14.8222
14.8012
14.7787
14.7549
14.7298
14.7036
14.6763
14.6481
14.619
14.589
14.5583
14.527
14.495
14.4624
14.4293
14.3956
14.3616
14.3271
14.2922
14.2569
14.2213
14.1854
14.1491
14.1126
14.0758
14.0387
14.0014
13.9638
13.9259
13.8878
13.8495
13.811
13.7722
13.7332
13.694
13.6545
13.6148
13.5749
13.5348
13.4944
13.4538
13.4129
13.3718
13.3305
13.2889
13.247
13.2049
13.1626
13.1199
13.077
13.0338
12.9903
12.9466
12.9026
12.8582
12.8136
12.7687
12.7235
12.6779
12.6321
12.5859
12.5394
12.4926
12.4454
12.398
12.3501
12.3019
12.2534
12.2045
12.1553
12.1056
12.0557
12.0053
11.9546
11.9035
11.852
11.8001
11.7478
11.6952
11.6421
11.5887
11.5348
11.4805
11.4258
11.3707
11.3151
11.2591
11.2027
11.1459
11.0886
11.0308
10.9726
10.914
10.8549
10.7953
10.7353
10.6748
10.6139
10.5525
10.4906
10.4282
10.3654
10.3021
10.2383
10.174
10.1093
10.0441
9.9784
9.91229
9.84574
9.77877
9.7114
9.64368
9.57564
9.50734
9.43886
9.3703
9.3018
9.23355
9.1658
9.09886
9.03325
8.96952
8.90873
8.8516
8.80015
8.75358
8.71386
8.66416
12.8362
12.8433
12.8557
12.8744
12.8992
12.9302
12.9673
13.0104
13.0592
13.1136
13.1732
13.2377
13.3067
13.3796
13.456
13.5352
13.6166
13.6996
13.7834
13.8674
13.9509
14.0333
14.1139
14.1922
14.2677
14.3399
14.4084
14.473
14.5333
14.5893
14.6407
14.6875
14.7298
14.7674
14.8005
14.8291
14.8534
14.8736
14.8898
14.9021
14.9107
14.916
14.9179
14.9168
14.9128
14.906
14.8968
14.8852
14.8715
14.8557
14.8381
14.8187
14.7978
14.7753
14.7516
14.7266
14.7004
14.6732
14.6451
14.616
14.5862
14.5556
14.5243
14.4924
14.4599
14.4269
14.3934
14.3594
14.325
14.2902
14.255
14.2195
14.1836
14.1475
14.111
14.0743
14.0373
14
13.9625
13.9247
13.8867
13.8484
13.8099
13.7712
13.7323
13.6931
13.6537
13.6141
13.5742
13.5341
13.4937
13.4532
13.4123
13.3713
13.33
13.2884
13.2466
13.2045
13.1622
13.1195
13.0767
13.0335
12.99
12.9463
12.9023
12.858
12.8134
12.7685
12.7233
12.6777
12.6319
12.5857
12.5393
12.4924
12.4453
12.3978
12.35
12.3018
12.2533
12.2044
12.1552
12.1056
12.0556
12.0052
11.9545
11.9034
11.8519
11.8
11.7478
11.6951
11.6421
11.5886
11.5347
11.4804
11.4257
11.3706
11.3151
11.2591
11.2027
11.1458
11.0885
11.0308
10.9726
10.914
10.8549
10.7953
10.7353
10.6748
10.6138
10.5524
10.4905
10.4282
10.3653
10.302
10.2382
10.1739
10.1092
10.044
9.97828
9.91214
9.84557
9.77856
9.71116
9.64338
9.57528
9.50689
9.4383
9.3696
9.30092
9.23241
9.16431
9.0969
9.03062
8.96588
8.90355
8.84391
8.78836
8.73489
8.68407
8.62123
12.6677
12.6754
12.6891
12.7098
12.7373
12.7717
12.8129
12.8606
12.9148
12.9751
13.0412
13.1127
13.189
13.2696
13.3539
13.4412
13.5308
13.6218
13.7134
13.805
13.8957
13.9847
14.0716
14.1556
14.2362
14.3129
14.3855
14.4536
14.5169
14.5754
14.6289
14.6775
14.7211
14.7599
14.7939
14.8232
14.848
14.8686
14.885
14.8975
14.9063
14.9116
14.9136
14.9124
14.9084
14.9017
14.8925
14.8809
14.8672
14.8514
14.8338
14.8145
14.7936
14.7713
14.7476
14.7227
14.6966
14.6695
14.6414
14.6125
14.5828
14.5523
14.5211
14.4893
14.4569
14.424
14.3906
14.3568
14.3225
14.2878
14.2527
14.2173
14.1816
14.1455
14.1091
14.0725
14.0356
13.9984
13.9609
13.9232
13.8853
13.8471
13.8087
13.7701
13.7312
13.6921
13.6527
13.6131
13.5733
13.5333
13.493
13.4524
13.4117
13.3706
13.3294
13.2878
13.246
13.204
13.1617
13.1191
13.0762
13.0331
12.9897
12.946
12.902
12.8577
12.8131
12.7682
12.723
12.6775
12.6317
12.5855
12.5391
12.4923
12.4451
12.3977
12.3498
12.3017
12.2532
12.2043
12.155
12.1054
12.0555
12.0051
11.9544
11.9033
11.8518
11.8
11.7477
11.695
11.642
11.5885
11.5347
11.4804
11.4257
11.3706
11.315
11.259
11.2026
11.1458
11.0885
11.0307
10.9725
10.9139
10.8548
10.7952
10.7352
10.6747
10.6138
10.5524
10.4905
10.4281
10.3652
10.3019
10.2381
10.1738
10.1091
10.0438
9.97813
9.91197
9.84537
9.77833
9.71087
9.64303
9.57485
9.50636
9.43764
9.36877
9.29985
9.23104
9.16254
9.09457
9.02748
8.9616
8.89752
8.83529
8.7755
8.71612
8.65611
8.58482
12.4568
12.4653
12.4805
12.5036
12.5344
12.5729
12.6189
12.6724
12.7332
12.8008
12.8749
12.955
13.0406
13.1309
13.2253
13.3229
13.4228
13.524
13.6257
13.7268
13.8266
13.9243
14.019
14.1101
14.1971
14.2796
14.3572
14.4295
14.4966
14.5582
14.6143
14.665
14.7103
14.7505
14.7855
14.8157
14.8412
14.8622
14.8789
14.8917
14.9007
14.9061
14.9081
14.9071
14.9031
14.8964
14.8872
14.8757
14.862
14.8463
14.8288
14.8095
14.7887
14.7664
14.7428
14.718
14.6921
14.6651
14.6372
14.6084
14.5788
14.5484
14.5174
14.4857
14.4535
14.4207
14.3875
14.3537
14.3196
14.285
14.2501
14.2148
14.1792
14.1432
14.107
14.0704
14.0336
13.9965
13.9592
13.9216
13.8837
13.8456
13.8073
13.7687
13.7299
13.6909
13.6516
13.6121
13.5723
13.5323
13.4921
13.4516
13.4109
13.3699
13.3287
13.2872
13.2454
13.2034
13.1611
13.1186
13.0758
13.0326
12.9893
12.9456
12.9016
12.8573
12.8128
12.7679
12.7227
12.6772
12.6314
12.5853
12.5389
12.4921
12.4449
12.3975
12.3497
12.3015
12.253
12.2041
12.1549
12.1053
12.0554
12.005
11.9543
11.9032
11.8517
11.7999
11.7476
11.695
11.6419
11.5885
11.5346
11.4803
11.4256
11.3705
11.3149
11.259
11.2026
11.1457
11.0884
11.0307
10.9725
10.9138
10.8547
10.7952
10.7352
10.6747
10.6137
10.5523
10.4904
10.428
10.3652
10.3018
10.238
10.1737
10.1089
10.0437
9.97797
9.91178
9.84514
9.77805
9.71054
9.64263
9.57435
9.50575
9.43688
9.3678
9.29863
9.22948
9.16051
9.0919
9.02393
8.9568
8.89088
8.82601
8.76227
8.69758
8.63022
8.55201
12.1975
12.2069
12.2239
12.2499
12.2844
12.3276
12.3794
12.4396
12.508
12.5843
12.6681
12.7588
12.8556
12.958
13.0649
13.1753
13.2882
13.4024
13.5168
13.6301
13.7415
13.8498
13.9544
14.0545
14.1495
14.239
14.3226
14.4002
14.4717
14.5371
14.5963
14.6495
14.697
14.7387
14.7751
14.8063
14.8325
14.8541
14.8714
14.8844
14.8937
14.8992
14.9014
14.9005
14.8966
14.89
14.8809
14.8694
14.8558
14.8402
14.8228
14.8036
14.7829
14.7608
14.7373
14.7127
14.6869
14.66
14.6323
14.6036
14.5742
14.544
14.5132
14.4817
14.4496
14.417
14.3839
14.3503
14.3163
14.2819
14.2471
14.2119
14.1764
14.1406
14.1045
14.0681
14.0314
13.9944
13.9572
13.9197
13.8819
13.8439
13.8057
13.7672
13.7285
13.6895
13.6503
13.6109
13.5712
13.5313
13.4911
13.4507
13.41
13.3691
13.3279
13.2864
13.2447
13.2028
13.1605
13.118
13.0752
13.0321
12.9888
12.9451
12.9012
12.857
12.8124
12.7676
12.7224
12.677
12.6312
12.5851
12.5386
12.4918
12.4447
12.3973
12.3495
12.3014
12.2529
12.204
12.1548
12.1052
12.0552
12.0049
11.9542
11.9031
11.8516
11.7998
11.7475
11.6949
11.6418
11.5884
11.5345
11.4802
11.4255
11.3704
11.3149
11.2589
11.2025
11.1456
11.0884
11.0306
10.9724
10.9138
10.8547
10.7951
10.7351
10.6746
10.6136
10.5522
10.4903
10.4279
10.3651
10.3017
10.2379
10.1736
10.1088
10.0435
9.97779
9.91157
9.84489
9.77776
9.71018
9.64219
9.57381
9.50507
9.43602
9.36673
9.29727
9.22773
9.15825
9.08896
9.02005
8.95161
8.88382
8.81637
8.74897
8.67965
8.60631
8.52284
11.8816
11.8921
11.9111
11.9401
11.9786
12.0269
12.0849
12.1526
12.2297
12.3159
12.4109
12.5141
12.6246
12.7416
12.864
12.9907
13.1201
13.2508
13.3813
13.5102
13.6362
13.7582
13.8752
13.9865
14.0914
14.1895
14.2807
14.3647
14.4416
14.5114
14.5743
14.6306
14.6805
14.7242
14.7621
14.7946
14.8218
14.8441
14.8619
14.8755
14.885
14.8909
14.8933
14.8925
14.8888
14.8823
14.8733
14.862
14.8485
14.8331
14.8158
14.7968
14.7763
14.7543
14.731
14.7065
14.6809
14.6543
14.6267
14.5983
14.569
14.539
14.5084
14.4771
14.4452
14.4128
14.3798
14.3464
14.3126
14.2784
14.2437
14.2087
14.1734
14.1377
14.1018
14.0655
14.0289
13.9921
13.955
13.9176
13.88
13.8421
13.8039
13.7655
13.7269
13.688
13.6489
13.6096
13.5699
13.5301
13.49
13.4496
13.409
13.3682
13.327
13.2856
13.244
13.2021
13.1599
13.1174
13.0746
13.0316
12.9883
12.9447
12.9007
12.8565
12.812
12.7672
12.7221
12.6766
12.6309
12.5848
12.5384
12.4916
12.4445
12.3971
12.3493
12.3012
12.2527
12.2038
12.1546
12.105
12.0551
12.0048
11.9541
11.903
11.8515
11.7997
11.7474
11.6948
11.6418
11.5883
11.5344
11.4802
11.4255
11.3704
11.3148
11.2588
11.2024
11.1456
11.0883
11.0306
10.9724
10.9137
10.8546
10.7951
10.735
10.6745
10.6136
10.5521
10.4902
10.4278
10.365
10.3016
10.2378
10.1735
10.1087
10.0434
9.9776
9.91135
9.84462
9.77743
9.70979
9.64171
9.57321
9.50433
9.4351
9.36556
9.29579
9.22584
9.15582
9.08581
9.01591
8.94614
8.87651
8.80662
8.73588
8.66254
8.58436
8.49685
11.4986
11.5104
11.5313
11.5631
11.6054
11.6586
11.7227
11.7978
11.8838
11.9807
12.0881
12.2055
12.3322
12.4671
12.6088
12.7559
12.9066
13.0588
13.2104
13.3597
13.5048
13.6445
13.7774
13.9029
14.0202
14.1292
14.2295
14.3214
14.4048
14.48
14.5475
14.6074
14.6602
14.7063
14.7461
14.78
14.8085
14.8318
14.8503
14.8644
14.8744
14.8807
14.8834
14.883
14.8795
14.8733
14.8645
14.8534
14.8401
14.8249
14.8078
14.789
14.7687
14.7469
14.7239
14.6996
14.6742
14.6478
14.6205
14.5923
14.5633
14.5335
14.5031
14.472
14.4403
14.4081
14.3754
14.3422
14.3086
14.2745
14.2401
14.2052
14.1701
14.1346
14.0988
14.0626
14.0262
13.9895
13.9525
13.9153
13.8778
13.84
13.802
13.7637
13.7252
13.6864
13.6474
13.6081
13.5686
13.5288
13.4888
13.4485
13.4079
13.3671
13.3261
13.2848
13.2432
13.2013
13.1591
13.1167
13.074
13.031
12.9877
12.9441
12.9003
12.8561
12.8116
12.7668
12.7217
12.6763
12.6305
12.5845
12.5381
12.4913
12.4443
12.3968
12.3491
12.301
12.2525
12.2037
12.1545
12.1049
12.055
12.0046
11.954
11.9029
11.8514
11.7996
11.7473
11.6947
11.6417
11.5882
11.5344
11.4801
11.4254
11.3703
11.3148
11.2588
11.2024
11.1455
11.0882
11.0305
10.9723
10.9137
10.8546
10.795
10.735
10.6745
10.6135
10.5521
10.4902
10.4278
10.3649
10.3015
10.2377
10.1733
10.1085
10.0432
9.9774
9.91111
9.84433
9.77708
9.70937
9.64119
9.57257
9.50354
9.43411
9.36432
9.29422
9.22384
9.15326
9.0825
9.0116
8.94052
8.86911
8.79692
8.7232
8.64638
8.56427
8.47351
11.033
11.0458
11.0681
11.1018
11.1467
11.2032
11.2718
11.3528
11.4466
11.5535
11.6736
11.8066
11.9519
12.1084
12.2747
12.4487
12.6279
12.8091
12.9894
13.1662
13.3371
13.5003
13.6544
13.7985
13.932
14.0548
14.1668
14.2683
14.3598
14.4417
14.5146
14.5789
14.6353
14.6843
14.7264
14.7622
14.7921
14.8166
14.8361
14.851
14.8617
14.8685
14.8717
14.8716
14.8685
14.8626
14.8542
14.8434
14.8304
14.8154
14.7987
14.7802
14.7601
14.7387
14.7159
14.6919
14.6668
14.6407
14.6136
14.5857
14.5569
14.5274
14.4972
14.4664
14.435
14.403
14.3705
14.3375
14.3041
14.2703
14.236
14.2014
14.1665
14.1311
14.0955
14.0595
14.0233
13.9867
13.9499
13.9128
13.8754
13.8378
13.7999
13.7617
13.7233
13.6846
13.6457
13.6065
13.5671
13.5274
13.4875
13.4473
13.4068
13.3661
13.3251
13.2838
13.2423
13.2004
13.1583
13.116
13.0733
13.0304
12.9871
12.9436
12.8997
12.8556
12.8111
12.7664
12.7213
12.6759
12.6302
12.5842
12.5378
12.4911
12.444
12.3966
12.3489
12.3008
12.2523
12.2035
12.1543
12.1047
12.0548
12.0045
11.9538
11.9028
11.8513
11.7995
11.7472
11.6946
11.6416
11.5881
11.5343
11.48
11.4253
11.3702
11.3147
11.2587
11.2023
11.1455
11.0882
11.0304
10.9722
10.9136
10.8545
10.7949
10.7349
10.6744
10.6134
10.552
10.4901
10.4277
10.3648
10.3014
10.2376
10.1732
10.1084
10.043
9.97719
9.91086
9.84403
9.77672
9.70892
9.64065
9.57191
9.50271
9.43307
9.36302
9.29258
9.22176
9.1506
9.07909
9.0072
8.93483
8.86174
8.78742
8.71106
8.63121
8.5459
8.45248
10.4674
10.4806
10.5026
10.5355
10.5792
10.6348
10.703
10.785
10.8818
10.9946
11.1244
11.272
11.4377
11.6206
11.8188
12.0292
12.248
12.4704
12.692
12.9086
13.1165
13.3132
13.4969
13.6665
13.8216
13.9624
14.0894
14.2032
14.3048
14.3949
14.4744
14.5441
14.6048
14.6573
14.7023
14.7403
14.7721
14.7981
14.8189
14.8348
14.8464
14.8539
14.8578
14.8583
14.8557
14.8503
14.8423
14.8319
14.8194
14.8048
14.7884
14.7703
14.7506
14.7295
14.707
14.6834
14.6586
14.6328
14.6061
14.5784
14.55
14.5208
14.4909
14.4603
14.4292
14.3975
14.3652
14.3325
14.2993
14.2657
14.2317
14.1973
14.1626
14.1274
14.092
14.0562
14.0201
13.9838
13.9471
13.9101
13.8729
13.8354
13.7976
13.7596
13.7213
13.6828
13.6439
13.6049
13.5655
13.5259
13.4861
13.4459
13.4056
13.3649
13.324
13.2828
13.2413
13.1995
13.1575
13.1152
13.0726
13.0297
12.9865
12.943
12.8992
12.8551
12.8107
12.7659
12.7209
12.6755
12.6298
12.5838
12.5375
12.4908
12.4437
12.3963
12.3486
12.3005
12.2521
12.2033
12.1541
12.1046
12.0546
12.0044
11.9537
11.9026
11.8512
11.7994
11.7471
11.6945
11.6415
11.588
11.5342
11.4799
11.4253
11.3701
11.3146
11.2586
11.2022
11.1454
11.0881
11.0304
10.9722
10.9135
10.8544
10.7949
10.7348
10.6743
10.6134
10.5519
10.49
10.4276
10.3647
10.3013
10.2374
10.1731
10.1082
10.0428
9.97697
9.9106
9.84372
9.77635
9.70847
9.64009
9.57122
9.50185
9.43201
9.36169
9.2909
9.21963
9.14789
9.07564
9.00279
8.92918
8.8545
8.77824
8.69953
8.61709
8.52912
8.43351
9.77433
9.78647
9.80444
9.83096
9.86588
9.91078
9.96699
10.037
10.1233
10.2295
10.3591
10.5152
10.6999
10.9133
11.1537
11.4173
11.6975
11.9861
12.2742
12.5539
12.8193
13.0662
13.2925
13.4977
13.6822
13.847
13.9934
14.123
14.2374
14.3377
14.4255
14.5018
14.5679
14.6247
14.6731
14.714
14.748
14.776
14.7983
14.8156
14.8283
14.8369
14.8416
14.8429
14.841
14.8362
14.8288
14.819
14.807
14.7929
14.7769
14.7593
14.74
14.7193
14.6973
14.6741
14.6497
14.6242
14.5979
14.5706
14.5425
14.5136
14.484
14.4538
14.4229
14.3915
14.3596
14.3271
14.2942
14.2609
14.2271
14.1929
14.1584
14.1235
14.0882
14.0527
14.0168
13.9806
13.9441
13.9073
13.8702
13.8329
13.7952
13.7573
13.7192
13.6807
13.642
13.6031
13.5638
13.5243
13.4846
13.4446
13.4042
13.3637
13.3228
13.2817
13.2403
13.1986
13.1566
13.1143
13.0718
13.0289
12.9858
12.9423
12.8986
12.8545
12.8101
12.7654
12.7204
12.6751
12.6294
12.5834
12.5371
12.4904
12.4434
12.3961
12.3484
12.3003
12.2519
12.2031
12.1539
12.1044
12.0545
12.0042
11.9535
11.9025
11.8511
11.7992
11.747
11.6944
11.6414
11.588
11.5341
11.4799
11.4252
11.3701
11.3145
11.2586
11.2022
11.1453
11.088
11.0303
10.9721
10.9134
10.8543
10.7948
10.7347
10.6742
10.6133
10.5518
10.4899
10.4275
10.3646
10.3012
10.2373
10.1729
10.108
10.0426
9.97674
9.91033
9.8434
9.77596
9.708
9.63952
9.57051
9.50098
9.43092
9.36033
9.28919
9.21749
9.14518
9.07219
8.99841
8.92363
8.84749
8.76945
8.68868
8.60399
8.51381
8.41637
8.9302
8.93821
8.94466
8.9523
8.96098
8.97361
8.99219
9.02125
9.06525
9.13159
9.22892
9.36833
9.55978
9.80941
10.1158
10.4699
10.8569
11.2593
11.6596
12.0435
12.401
12.7265
13.0179
13.276
13.5028
13.7011
13.8739
14.0244
14.1552
14.2685
14.3665
14.451
14.5236
14.5856
14.6383
14.6826
14.7195
14.7498
14.7742
14.7932
14.8073
14.8171
14.823
14.8253
14.8243
14.8203
14.8136
14.8045
14.7931
14.7796
14.7643
14.7471
14.7284
14.7082
14.6867
14.6639
14.64
14.615
14.589
14.5621
14.5344
14.5059
14.4767
14.4468
14.4163
14.3852
14.3535
14.3214
14.2888
14.2557
14.2222
14.1883
14.1539
14.1193
14.0843
14.0489
14.0132
13.9772
13.9409
13.9043
13.8674
13.8302
13.7927
13.7549
13.7169
13.6786
13.64
13.6012
13.5621
13.5227
13.483
13.4431
13.4029
13.3624
13.3216
13.2805
13.2392
13.1976
13.1557
13.1135
13.071
13.0282
12.9851
12.9417
12.8979
12.8539
12.8096
12.7649
12.72
12.6747
12.629
12.5831
12.5368
12.4901
12.4431
12.3958
12.3481
12.3
12.2516
12.2028
12.1537
12.1042
12.0543
12.004
11.9534
11.9024
11.8509
11.7991
11.7469
11.6943
11.6413
11.5879
11.534
11.4798
11.4251
11.37
11.3145
11.2585
11.2021
11.1452
11.088
11.0302
10.972
10.9134
10.8543
10.7947
10.7347
10.6742
10.6132
10.5517
10.4898
10.4274
10.3645
10.3011
10.2372
10.1728
10.1079
10.0425
9.97652
9.91007
9.84309
9.77558
9.70754
9.63895
9.56981
9.50011
9.42984
9.35898
9.2875
9.21536
9.14249
9.06881
8.99415
8.91826
8.84078
8.76114
8.67855
8.59193
8.49987
8.40091
7.89562
7.8923
7.87157
7.83746
7.7888
7.72768
7.65396
7.57256
7.49227
7.43355
7.42439
7.49732
7.67905
7.98246
8.40083
8.91284
9.48919
10.0948
10.6948
11.2623
11.7807
12.2411
12.641
12.9832
13.2735
13.5192
13.7278
13.9056
14.0572
14.1866
14.297
14.3913
14.4717
14.5399
14.5976
14.6461
14.6864
14.7195
14.7463
14.7673
14.7833
14.7946
14.8019
14.8054
14.8055
14.8025
14.7968
14.7885
14.7778
14.7651
14.7504
14.7339
14.7158
14.6962
14.6752
14.653
14.6296
14.605
14.5795
14.5531
14.5258
14.4977
14.4689
14.4394
14.4092
14.3785
14.3472
14.3153
14.283
14.2502
14.217
14.1833
14.1493
14.1149
14.0801
14.0449
14.0094
13.9736
13.9375
13.9011
13.8644
13.8273
13.79
13.7524
13.7145
13.6764
13.6379
13.5992
13.5602
13.5209
13.4814
13.4415
13.4014
13.361
13.3203
13.2793
13.2381
13.1965
13.1547
13.1125
13.0701
13.0273
12.9843
12.9409
12.8973
12.8533
12.809
12.7644
12.7195
12.6742
12.6286
12.5827
12.5364
12.4898
12.4428
12.3955
12.3478
12.2998
12.2514
12.2026
12.1535
12.104
12.0541
12.0039
11.9532
11.9022
11.8508
11.799
11.7468
11.6942
11.6412
11.5878
11.5339
11.4797
11.425
11.3699
11.3144
11.2584
11.202
11.1452
11.0879
11.0301
10.9719
10.9133
10.8542
10.7946
10.7346
10.6741
10.6131
10.5517
10.4897
10.4273
10.3644
10.301
10.237
10.1726
10.1077
10.0423
9.97629
9.90979
9.84276
9.77519
9.70706
9.63837
9.5691
9.49924
9.42876
9.35763
9.28582
9.21325
9.13986
9.06551
8.99001
8.91311
8.8344
8.75333
8.66913
8.58084
8.48719
8.38695
6.61501
6.58706
6.50977
6.3883
6.21467
5.9826
5.68323
5.32964
4.95512
4.61921
4.3894
4.33116
4.49197
4.89495
5.52765
6.34583
7.28529
8.2722
9.23546
10.1229
10.9082
11.5829
12.1482
12.6127
12.9909
13.3001
13.5548
13.7661
13.9428
14.0911
14.2162
14.3219
14.4112
14.4867
14.5503
14.6036
14.6479
14.6844
14.714
14.7375
14.7556
14.7689
14.7777
14.7827
14.7842
14.7824
14.7778
14.7705
14.7608
14.7489
14.7351
14.7194
14.702
14.683
14.6627
14.641
14.6182
14.5942
14.5692
14.5433
14.5165
14.4888
14.4604
14.4313
14.4016
14.3712
14.3403
14.3088
14.2768
14.2443
14.2114
14.178
14.1443
14.1101
14.0756
14.0407
14.0054
13.9698
13.9339
13.8977
13.8612
13.8243
13.7872
13.7497
13.712
13.674
13.6357
13.5971
13.5582
13.5191
13.4796
13.4399
13.3998
13.3595
13.3189
13.278
13.2369
13.1954
13.1536
13.1115
13.0692
13.0265
12.9835
12.9402
12.8966
12.8527
12.8084
12.7638
12.7189
12.6737
12.6281
12.5822
12.536
12.4894
12.4425
12.3952
12.3475
12.2995
12.2511
12.2024
12.1533
12.1038
12.0539
12.0037
11.9531
11.902
11.8506
11.7989
11.7467
11.6941
11.6411
11.5876
11.5338
11.4796
11.4249
11.3698
11.3143
11.2583
11.2019
11.1451
11.0878
11.03
10.9719
10.9132
10.8541
10.7945
10.7345
10.674
10.613
10.5516
10.4896
10.4272
10.3643
10.3008
10.2369
10.1725
10.1075
10.042
9.97605
9.90951
9.84243
9.77479
9.70659
9.6378
9.5684
9.49838
9.42769
9.35631
9.28418
9.21121
9.13731
9.06233
8.98606
8.90822
8.82839
8.74605
8.66045
8.57071
8.47571
8.37437
5.11057
5.0268
4.82969
4.52548
4.08028
3.47291
2.7
1.82513
0.94651
0.185335
-0.34053
-0.521581
-0.284815
0.390004
1.45866
2.82766
4.37757
5.9764
7.49316
8.83066
9.95803
10.886
11.6364
12.2327
12.7034
13.0772
13.3777
13.6224
13.8238
13.991
14.1307
14.2479
14.3464
14.4294
14.4991
14.5575
14.6061
14.6463
14.6791
14.7053
14.7257
14.7411
14.7518
14.7585
14.7614
14.761
14.7576
14.7514
14.7428
14.7319
14.7189
14.704
14.6874
14.6692
14.6496
14.6286
14.6064
14.583
14.5585
14.5331
14.5068
14.4797
14.4517
14.4231
14.3937
14.3638
14.3332
14.3021
14.2704
14.2383
14.2057
14.1726
14.1391
14.1053
14.071
14.0363
14.0013
13.966
13.9303
13.8942
13.8579
13.8212
13.7843
13.747
13.7094
13.6716
13.6334
13.5949
13.5562
13.5171
13.4778
13.4382
13.3983
13.358
13.3175
13.2767
13.2356
13.1942
13.1525
13.1105
13.0682
13.0256
12.9827
12.9394
12.8959
12.852
12.8078
12.7633
12.7184
12.6732
12.6277
12.5818
12.5356
12.489
12.4421
12.3949
12.3472
12.2992
12.2509
12.2022
12.1531
12.1036
12.0537
12.0035
11.9529
11.9019
11.8505
11.7987
11.7466
11.694
11.641
11.5876
11.5337
11.4795
11.4248
11.3697
11.3142
11.2583
11.2019
11.145
11.0877
11.03
10.9718
10.9132
10.8541
10.7945
10.7345
10.6739
10.613
10.5515
10.4896
10.4271
10.3642
10.3008
10.2368
10.1724
10.1074
10.0419
9.97587
9.90929
9.84216
9.77446
9.70618
9.63729
9.56778
9.4976
9.42672
9.3551
9.28266
9.20931
9.13494
9.05938
8.9824
8.90371
8.82289
8.73941
8.65259
8.5616
8.46545
8.36317
3.60263
3.4179
2.99751
2.33403
1.37721
0.145438
-1.29527
-2.78393
-4.15523
-5.22361
-5.82432
-5.83829
-5.2155
-3.98004
-2.23597
-0.144064
2.09684
4.296
6.28209
7.9569
9.31557
10.4031
11.2682
11.948
12.4786
12.8959
13.2285
13.4976
13.718
13.9002
14.0518
14.1787
14.2852
14.3748
14.45
14.5131
14.5657
14.6093
14.6451
14.6739
14.6967
14.7141
14.7266
14.7349
14.7393
14.7402
14.7381
14.733
14.7254
14.7155
14.7034
14.6893
14.6735
14.656
14.6371
14.6167
14.5951
14.5723
14.5484
14.5235
14.4976
14.471
14.4435
14.4152
14.3863
14.3567
14.3265
14.2957
14.2644
14.2326
14.2003
14.1675
14.1343
14.1007
14.0666
14.0322
13.9974
13.9623
13.9268
13.891
13.8548
13.8183
13.7815
13.7444
13.707
13.6693
13.6312
13.5929
13.5543
13.5153
13.4761
13.4366
13.3968
13.3566
13.3162
13.2755
13.2345
13.1932
13.1515
13.1096
13.0673
13.0248
12.9819
12.9387
12.8952
12.8514
12.8072
12.7627
12.7179
12.6728
12.6273
12.5814
12.5352
12.4887
12.4418