/*--------------------------------*- C++ -*----------------------------------*\
  =========                 |
  \\      /  F ield         | OpenFOAM: The Open Source CFD Toolbox
   \\    /   O peration     | Website:  https://openfoam.org
    \\  /    A nd           | Version:  7
     \\/     M anipulation  |
\*---------------------------------------------------------------------------*/
FoamFile
{
    version     2.0;
    format      ascii;
    class       volVectorField;
    location    "0.007";
    object      U;
}
// * * * * * * * * * * * * * * * * * * * * * * * * * * * * * * * * * * * * * //

dimensions      [0 1 -1 0 0 0 0];

internalField   nonuniform List<vector> 
12225
(
(4.87147 0.166339 0)
(4.24361 0.105972 0)
(3.75177 0.0911926 0)
(3.36007 0.0760957 0)
(3.017 0.0625862 0)
(2.72835 0.0505741 0)
(2.49591 0.0410108 0)
(2.30299 0.0332741 0)
(2.15342 0.023791 0)
(2.03757 0.0138508 0)
(1.97762 0.00453736 0)
(1.94227 -0.00159452 0)
(1.97478 -0.0126346 0)
(2.00323 -0.0160786 0)
(2.10662 -0.0280938 0)
(2.16172 -0.0171988 0)
(2.30568 -0.0469827 0)
(2.41836 -0.0167002 0)
(5.1029 0.0952341 0)
(4.95189 0.0919944 0)
(4.77133 0.108592 0)
(4.63407 0.102714 0)
(4.5352 0.092938 0)
(4.46355 0.0793547 0)
(4.40364 0.0675808 0)
(4.34429 0.05842 0)
(4.28663 0.0506363 0)
(4.23149 0.0385088 0)
(4.19187 0.0239286 0)
(4.16653 0.00398256 0)
(4.16877 -0.0111733 0)
(4.18221 -0.0282821 0)
(4.226 -0.036799 0)
(4.26632 -0.051601 0)
(4.3389 -0.062843 0)
(4.40688 -0.0819079 0)
(4.96209 0.132727 0)
(4.9193 0.12564 0)
(4.8193 0.149236 0)
(4.76893 0.134578 0)
(4.77057 0.107154 0)
(4.78389 0.0846293 0)
(4.78654 0.0717477 0)
(4.78029 0.0649278 0)
(4.77226 0.0581899 0)
(4.76588 0.0475435 0)
(4.76284 0.030687 0)
(4.76385 0.00898189 0)
(4.77272 -0.0146457 0)
(4.78871 -0.0343912 0)
(4.81169 -0.0534253 0)
(4.83874 -0.0672858 0)
(4.87092 -0.0867745 0)
(4.89981 -0.108169 0)
(4.93305 0.163953 0)
(4.86183 0.13292 0)
(4.81859 0.148909 0)
(4.82135 0.12746 0)
(4.82196 0.098147 0)
(4.80783 0.0789384 0)
(4.79834 0.0696466 0)
(4.80418 0.0634228 0)
(4.82004 0.0554453 0)
(4.83737 0.0419142 0)
(4.85254 0.0227202 0)
(4.86521 -0.000388797 0)
(4.87744 -0.0243784 0)
(4.89002 -0.0463997 0)
(4.90447 -0.0633281 0)
(4.92039 -0.0786555 0)
(4.93899 -0.0959367 0)
(4.95744 -0.118729 0)
(4.8176 0.188626 0)
(4.80071 0.11869 0)
(4.8323 0.133585 0)
(4.85043 0.132475 0)
(4.8223 0.115714 0)
(4.78675 0.0917073 0)
(4.77839 0.0685094 0)
(4.79542 0.0517807 0)
(4.8203 0.0411973 0)
(4.84156 0.03199 0)
(4.85758 0.0188334 0)
(4.87045 -3.99615e-05 0)
(4.8839 -0.0225604 0)
(4.89961 -0.0453102 0)
(4.91853 -0.0657302 0)
(4.94017 -0.0851599 0)
(4.96486 -0.105596 0)
(4.99062 -0.130794 0)
(4.94063 0.225635 0)
(4.88172 0.141603 0)
(4.82056 0.129858 0)
(4.80153 0.131272 0)
(4.80422 0.119039 0)
(4.81669 0.0931566 0)
(4.82956 0.0672323 0)
(4.83331 0.0509647 0)
(4.82938 0.042547 0)
(4.8273 0.0331215 0)
(4.83519 0.0159273 0)
(4.85401 -0.00976202 0)
(4.87905 -0.0380312 0)
(4.90522 -0.0636035 0)
(4.93057 -0.0845853 0)
(4.95505 -0.102806 0)
(4.97992 -0.122105 0)
(5.00531 -0.145551 0)
(4.935 0.263098 0)
(4.89487 0.141467 0)
(4.86656 0.132695 0)
(4.86841 0.137204 0)
(4.87934 0.121409 0)
(4.87729 0.0916392 0)
(4.8604 0.0651688 0)
(4.84181 0.049611 0)
(4.83603 0.0395294 0)
(4.84929 0.0253638 0)
(4.87719 0.00438919 0)
(4.90896 -0.0212727 0)
(4.93644 -0.0479194 0)
(4.95661 -0.0717452 0)
(4.97248 -0.0926571 0)
(4.98772 -0.1128 0)
(5.00625 -0.135171 0)
(5.02695 -0.16146 0)
(5.01158 0.294998 0)
(4.92227 0.1933 0)
(4.85107 0.134888 0)
(4.84537 0.120513 0)
(4.87412 0.110982 0)
(4.89814 0.0950974 0)
(4.90594 0.0771753 0)
(4.90402 0.0599348 0)
(4.90369 0.0410613 0)
(4.91233 0.0186288 0)
(4.92972 -0.00822116 0)
(4.94992 -0.0351407 0)
(4.96906 -0.0595629 0)
(4.98684 -0.0807678 0)
(5.00557 -0.100228 0)
(5.02498 -0.120082 0)
(5.04667 -0.142652 0)
(5.06654 -0.16915 0)
(5.09747 0.310623 0)
(5.07732 0.203103 0)
(4.9805 0.145355 0)
(4.93518 0.127024 0)
(4.94411 0.109796 0)
(4.95971 0.0889434 0)
(4.9644 0.0692709 0)
(4.96347 0.0514977 0)
(4.96391 0.0326553 0)
(4.96772 0.00992231 0)
(4.97521 -0.015771 0)
(4.98689 -0.0431253 0)
(5.00282 -0.0698677 0)
(5.0229 -0.0944614 0)
(5.04612 -0.117209 0)
(5.07028 -0.139728 0)
(5.09339 -0.163414 0)
(5.11322 -0.190564 0)
(4.94617 0.27579 0)
(4.98219 0.238348 0)
(4.96475 0.177575 0)
(4.97269 0.123403 0)
(4.99235 0.0928705 0)
(5.00532 0.0803568 0)
(5.01199 0.072535 0)
(5.01377 0.0607443 0)
(5.01085 0.0416802 0)
(5.00719 0.0154876 0)
(5.00691 -0.0152226 0)
(5.01111 -0.0470135 0)
(5.02047 -0.077425 0)
(5.03448 -0.104164 0)
(5.05123 -0.126898 0)
(5.06827 -0.147098 0)
(5.08254 -0.167261 0)
(5.09492 -0.191127 0)
(4.99983 0.281507 0)
(4.97788 0.218114 0)
(4.99197 0.156796 0)
(4.98056 0.119431 0)
(4.95321 0.10181 0)
(4.93448 0.0872093 0)
(4.93749 0.0697999 0)
(4.95333 0.051415 0)
(4.96618 0.0319384 0)
(4.96835 0.00883983 0)
(4.96353 -0.0202673 0)
(4.95851 -0.053465 0)
(4.95764 -0.0869438 0)
(4.9625 -0.117045 0)
(4.97301 -0.142792 0)
(4.9878 -0.165007 0)
(5.00519 -0.186798 0)
(5.02487 -0.211713 0)
(4.97211 0.293881 0)
(5.06484 0.2236 0)
(5.08206 0.16734 0)
(5.03477 0.133444 0)
(4.99415 0.107151 0)
(4.98325 0.0818513 0)
(4.99662 0.0614898 0)
(5.01709 0.0480911 0)
(5.02944 0.0363385 0)
(5.0299 0.0185227 0)
(5.02309 -0.00831719 0)
(5.01558 -0.0426668 0)
(5.01178 -0.0799757 0)
(5.01295 -0.114621 0)
(5.01838 -0.144213 0)
(5.02607 -0.169355 0)
(5.0361 -0.193416 0)
(5.04584 -0.220923 0)
(5.04617 0.253789 0)
(5.06697 0.195076 0)
(5.06599 0.16784 0)
(5.04264 0.155139 0)
(5.01765 0.128892 0)
(5.00279 0.0907395 0)
(5.00046 0.0556392 0)
(5.00301 0.0336627 0)
(5.00164 0.0219366 0)
(4.99685 0.00947141 0)
(4.996 -0.0125263 0)
(5.00449 -0.0452007 0)
(5.02135 -0.0833474 0)
(5.04201 -0.119771 0)
(5.06185 -0.150684 0)
(5.07718 -0.177428 0)
(5.08836 -0.202498 0)
(5.09393 -0.231663 0)
(5.10547 0.200456 0)
(5.08423 0.232242 0)
(5.02816 0.193801 0)
(5.00736 0.156918 0)
(5.02046 0.120681 0)
(5.03753 0.084061 0)
(5.03508 0.061024 0)
(5.00933 0.0531169 0)
(4.97561 0.046402 0)
(4.95518 0.0259314 0)
(4.95846 -0.0128144 0)
(4.9807 -0.0622977 0)
(5.01145 -0.110421 0)
(5.0413 -0.148018 0)
(5.06549 -0.172833 0)
(5.08172 -0.189669 0)
(5.0911 -0.204284 0)
(5.09458 -0.224986 0)
(5.05657 0.238241 0)
(5.03732 0.250074 0)
(5.02631 0.207905 0)
(5.04584 0.155612 0)
(5.07645 0.111776 0)
(5.08204 0.0859326 0)
(5.05912 0.0801226 0)
(5.02707 0.0774617 0)
(5.0055 0.0588295 0)
(5.00145 0.0184343 0)
(5.00992 -0.0363673 0)
(5.02115 -0.091624 0)
(5.02891 -0.136995 0)
(5.03224 -0.168839 0)
(5.03405 -0.189392 0)
(5.03629 -0.2049 0)
(5.0401 -0.220471 0)
(5.04519 -0.241905 0)
(5.03347 0.307669 0)
(5.0157 0.275987 0)
(4.98149 0.188249 0)
(4.97916 0.112375 0)
(4.99305 0.0823969 0)
(5.00709 0.0881149 0)
(5.01972 0.100687 0)
(5.03307 0.0961919 0)
(5.04762 0.0679448 0)
(5.05997 0.0228403 0)
(5.06673 -0.0279246 0)
(5.06673 -0.0764273 0)
(5.06155 -0.117873 0)
(5.05377 -0.149987 0)
(5.04589 -0.173706 0)
(5.03833 -0.192694 0)
(5.03149 -0.210455 0)
(5.02543 -0.232193 0)
(5.1111 0.392898 0)
(5.11318 0.342966 0)
(5.10214 0.240438 0)
(5.08276 0.15489 0)
(5.04362 0.0949943 0)
(5.00916 0.0661254 0)
(4.99865 0.0573727 0)
(5.00648 0.0487522 0)
(5.0218 0.0283398 0)
(5.03709 -0.00482072 0)
(5.04549 -0.0452281 0)
(5.04308 -0.0859505 0)
(5.03264 -0.121316 0)
(5.01819 -0.148298 0)
(5.00425 -0.168139 0)
(4.99295 -0.18494 0)
(4.98673 -0.203195 0)
(4.98468 -0.227747 0)
(4.96873 0.392191 0)
(4.96398 0.276066 0)
(4.97827 0.193745 0)
(4.99345 0.16234 0)
(5.00145 0.151479 0)
(5.00679 0.135759 0)
(5.01318 0.104252 0)
(5.02007 0.062809 0)
(5.0266 0.0226109 0)
(5.03144 -0.0102207 0)
(5.03407 -0.035948 0)
(5.03519 -0.0570916 0)
(5.03582 -0.0775878 0)
(5.03683 -0.100599 0)
(5.03856 -0.12776 0)
(5.03962 -0.159478 0)
(5.03986 -0.194449 0)
(5.03684 -0.232267 0)
(4.95478 0.319499 0)
(4.94086 0.309504 0)
(4.97426 0.232558 0)
(5.00605 0.140264 0)
(5.02714 0.076264 0)
(5.05051 0.0473113 0)
(5.07502 0.0371286 0)
(5.0919 0.0292082 0)
(5.09939 0.013495 0)
(5.10133 -0.0137264 0)
(5.10107 -0.0507735 0)
(5.09948 -0.0922659 0)
(5.09658 -0.131136 0)
(5.09153 -0.161463 0)
(5.08379 -0.18057 0)
(5.07252 -0.191394 0)
(5.05854 -0.197439 0)
(5.04211 -0.206885 0)
(4.91505 0.227035 0)
(4.93038 0.155139 0)
(4.98257 0.105563 0)
(5.02529 0.0853536 0)
(5.03535 0.0708772 0)
(5.03144 0.0533675 0)
(5.03104 0.0349849 0)
(5.0372 0.0186117 0)
(5.04734 0.00338311 0)
(5.0574 -0.0134349 0)
(5.06247 -0.0317875 0)
(5.06022 -0.0491973 0)
(5.05281 -0.0639345 0)
(5.04394 -0.0760788 0)
(5.03671 -0.0880552 0)
(5.03152 -0.102976 0)
(5.02834 -0.122735 0)
(5.02528 -0.14907 0)
(5.06254 0.24374 0)
(5.0171 0.167336 0)
(4.98177 0.114376 0)
(4.97136 0.0879705 0)
(4.98367 0.077329 0)
(5.00922 0.0600033 0)
(5.03099 0.0319331 0)
(5.03924 0.00214745 0)
(5.03486 -0.0211075 0)
(5.02541 -0.0370851 0)
(5.01789 -0.052355 0)
(5.01434 -0.0718579 0)
(5.01449 -0.0957358 0)
(5.0171 -0.120611 0)
(5.02117 -0.142394 0)
(5.02433 -0.159659 0)
(5.02589 -0.171977 0)
(5.02355 -0.182692 0)
(5.02314 0.208003 0)
(5.03829 0.190583 0)
(5.04891 0.146277 0)
(5.06274 0.0739529 0)
(5.0733 0.0260175 0)
(5.08099 0.00837973 0)
(5.08215 0.0103664 0)
(5.07595 0.0177652 0)
(5.07189 0.0179059 0)
(5.07678 0.00535735 0)
(5.08889 -0.016738 0)
(5.10366 -0.0426549 0)
(5.11638 -0.0672338 0)
(5.12345 -0.0871876 0)
(5.12426 -0.102139 0)
(5.11949 -0.114104 0)
(5.11166 -0.12525 0)
(5.10159 -0.138606 0)
(5.03481 0.217475 0)
(5.06847 0.14233 0)
(5.13422 0.0976307 0)
(5.17871 0.0685665 0)
(5.17746 0.0491121 0)
(5.15624 0.0378572 0)
(5.14362 0.0265284 0)
(5.14482 0.0069917 0)
(5.15453 -0.0201779 0)
(5.16927 -0.0515691 0)
(5.18514 -0.081499 0)
(5.19701 -0.105025 0)
(5.20327 -0.120956 0)
(5.20455 -0.130503 0)
(5.2015 -0.135796 0)
(5.19371 -0.139651 0)
(5.18138 -0.143211 0)
(5.16352 -0.14906 0)
(5.01902 0.196334 0)
(5.04329 0.11885 0)
(5.02693 0.0727832 0)
(5.0336 0.0658598 0)
(5.05246 0.0639386 0)
(5.0825 0.0514948 0)
(5.11574 0.0325728 0)
(5.14266 0.0120492 0)
(5.16 -0.00803655 0)
(5.16966 -0.0267567 0)
(5.17693 -0.0455962 0)
(5.18465 -0.0632529 0)
(5.19218 -0.0774014 0)
(5.19697 -0.0862843 0)
(5.19758 -0.0895484 0)
(5.19294 -0.0892516 0)
(5.18455 -0.0871488 0)
(5.17378 -0.0879186 0)
(4.95754 0.203589 0)
(5.02622 0.113307 0)
(5.07588 0.08093 0)
(5.12539 0.042263 0)
(5.16192 0.0022803 0)
(5.18659 -0.0207955 0)
(5.20699 -0.0271531 0)
(5.2261 -0.030794 0)
(5.24503 -0.0441555 0)
(5.26148 -0.0684491 0)
(5.27132 -0.0964494 0)
(5.27272 -0.11967 0)
(5.26737 -0.132827 0)
(5.25817 -0.135171 0)
(5.24902 -0.130056 0)
(5.24209 -0.122877 0)
(5.23921 -0.117909 0)
(5.24062 -0.119434 0)
(5.07037 0.226156 0)
(5.14301 0.0773459 0)
(5.21369 0.0555887 0)
(5.26347 0.049753 0)
(5.28252 0.0349689 0)
(5.29823 0.0176088 0)
(5.3257 0.000966323 0)
(5.35828 -0.0147651 0)
(5.38254 -0.0295985 0)
(5.38794 -0.0427765 0)
(5.37303 -0.0532189 0)
(5.34503 -0.0610132 0)
(5.31471 -0.0671886 0)
(5.2903 -0.0722444 0)
(5.27556 -0.0765401 0)
(5.26941 -0.0810477 0)
(5.2697 -0.0866656 0)
(5.27272 -0.0950299 0)
(4.94555 0.170737 0)
(5.07892 0.0304797 0)
(5.21722 0.0155341 0)
(5.2971 0.00346356 0)
(5.33809 -0.0242415 0)
(5.36296 -0.04988 0)
(5.37696 -0.0645208 0)
(5.37857 -0.0674078 0)
(5.37099 -0.0650674 0)
(5.3602 -0.0643916 0)
(5.35019 -0.0690732 0)
(5.34284 -0.0790011 0)
(5.33936 -0.0914635 0)
(5.33985 -0.102752 0)
(5.34338 -0.110801 0)
(5.34779 -0.1163 0)
(5.35179 -0.121039 0)
(5.35359 -0.12775 0)
(5.02776 0.128502 0)
(5.19806 -0.00275779 0)
(5.31375 0.00101754 0)
(5.36631 0.00663466 0)
(5.38745 -0.00268455 0)
(5.40083 -0.00795062 0)
(5.41475 -0.00834192 0)
(5.43265 -0.0110754 0)
(5.45519 -0.0187965 0)
(5.47888 -0.029642 0)
(5.49741 -0.041343 0)
(5.5066 -0.0531248 0)
(5.50663 -0.0648861 0)
(5.50011 -0.0751248 0)
(5.48884 -0.0822378 0)
(5.474 -0.0865379 0)
(5.45604 -0.0894379 0)
(5.43698 -0.0953189 0)
(5.12714 -0.00366142 0)
(5.23653 -0.0580639 0)
(5.34444 -0.0236816 0)
(5.4047 -0.0319079 0)
(5.43338 -0.0521467 0)
(5.44348 -0.0669483 0)
(5.44801 -0.0758457 0)
(5.4514 -0.0810411 0)
(5.45092 -0.0829587 0)
(5.44366 -0.0822473 0)
(5.42826 -0.0810878 0)
(5.40583 -0.0820213 0)
(5.37762 -0.0859565 0)
(5.34522 -0.0910992 0)
(5.30836 -0.0952025 0)
(5.26721 -0.0975677 0)
(5.22034 -0.0987389 0)
(5.16853 -0.102108 0)
(5.05105 0.0981163 0)
(5.13098 -0.0198876 0)
(5.05218 -0.0310668 0)
(4.9129 -0.0294117 0)
(4.77734 -0.022699 0)
(4.64956 -0.0158052 0)
(4.52386 -0.013514 0)
(4.39317 -0.0161695 0)
(4.25629 -0.0208193 0)
(4.11858 -0.0250205 0)
(3.98312 -0.0288192 0)
(3.84797 -0.0333026 0)
(3.70821 -0.0379638 0)
(3.56419 -0.040442 0)
(3.41969 -0.0392879 0)
(3.28142 -0.0349652 0)
(3.15231 -0.031594 0)
(3.02769 -0.0335501 0)
(-0.0189104 0.0362837 -2.82408e-20)
(-0.0492862 0.031221 2.80377e-20)
(-0.0751312 0.0293663 0)
(-0.102113 0.0286143 0)
(-0.127585 0.0274687 0)
(-0.152289 0.0259178 -2.71955e-20)
(-0.175315 0.0240203 0)
(-0.196506 0.0217949 0)
(-0.215385 0.0192625 0)
(-0.23161 0.0164129 0)
(-0.244901 0.013271 2.61354e-20)
(-0.25486 0.00990039 0)
(-0.26124 0.00628369 0)
(-0.263706 0.00249016 0)
(-0.26198 -0.00140062 0)
(-0.255966 -0.00540651 2.50669e-20)
(-0.24554 -0.00939689 0)
(-0.230518 -0.0133541 0)
(-0.210955 -0.0173254 0)
(-0.186815 -0.0211078 0)
(-0.158172 -0.024808 0)
(-0.125461 -0.0282325 0)
(-0.0884408 -0.0314605 0)
(-0.0474366 -0.0344556 2.33558e-20)
(-0.00280997 -0.0370533 -2.31426e-20)
(0.0451905 -0.0393908 2.29275e-20)
(0.0960316 -0.0414065 2.2712e-20)
(0.149479 -0.0430921 0)
(0.205194 -0.0444479 0)
(0.262825 -0.0454802 -2.20727e-20)
(0.322017 -0.0462005 -2.18624e-20)
(0.382419 -0.0466242 0)
(0.443694 -0.0467701 0)
(0.505515 -0.0466593 -2.12413e-20)
(0.567577 -0.0463149 0)
(0.629595 -0.0457607 0)
(0.691305 -0.0450209 2.06362e-20)
(0.752471 -0.0441194 0)
(0.812881 -0.0430797 2.0242e-20)
(0.872346 -0.0419241 4.00953e-20)
(0.930703 -0.0406736 0)
(0.987811 -0.0393479 0)
(1.04355 -0.0379651 0)
(1.09783 -0.0365414 0)
(1.15055 -0.0350917 0)
(1.20168 -0.0336289 3.78367e-20)
(1.25115 -0.0321647 3.74719e-20)
(1.29894 -0.0307089 3.71101e-20)
(1.34503 -0.0292701 0)
(1.38942 -0.0278557 -3.63955e-20)
(1.4321 -0.0264716 0)
(1.47309 -0.0251228 3.56923e-20)
(1.51241 -0.0238133 3.53448e-20)
(1.55008 -0.022546 0)
(1.58613 -0.0213233 0)
(1.62061 -0.0201468 0)
(1.65355 -0.0190174 3.39806e-20)
(1.68499 -0.0179356 0)
(1.71497 -0.0169014 0)
(1.74354 -0.0159145 0)
(1.77076 -0.0149743 0)
(1.79665 -0.0140798 0)
(1.82128 -0.01323 0)
(1.84469 -0.0124236 0)
(1.86693 -0.0116593 0)
(1.88804 -0.0109355 -3.10486e-20)
(1.90807 -0.0102507 0)
(1.92707 -0.00960338 0)
(1.94507 -0.00899193 3.01102e-20)
(1.96213 -0.00841475 2.98015e-20)
(1.97828 -0.00787027 0)
(1.99357 -0.00735691 -2.91902e-20)
(2.00802 -0.00687315 2.88876e-20)
(2.02169 -0.00641751 0)
(2.03461 -0.00598853 -2.82882e-20)
(2.04681 -0.00558483 0)
(2.05832 -0.00520506 0)
(2.06919 -0.00484793 2.74037e-20)
(2.07943 -0.0045122 0)
(2.08909 -0.00419669 -2.68236e-20)
(2.09818 -0.00390027 0)
(2.10674 -0.00362187 2.62512e-20)
(2.11479 -0.00336046 2.59678e-20)
(2.12236 -0.00311506 2.56862e-20)
(2.12947 -0.00288475 5.08131e-20)
(2.13614 -0.00266856 -5.02574e-20)
(2.14241 -0.0024658 0)
(2.14828 -0.00227554 0)
(2.15378 -0.00209689 0)
(2.15892 -0.00192966 -4.80711e-20)
(2.16373 -0.00177264 -4.75336e-20)
(2.16823 -0.00162476 4.69996e-20)
(2.17242 -0.00148729 0)
(2.17632 -0.00135807 -4.59424e-20)
(2.17996 -0.00123421 -4.5419e-20)
(2.18334 -0.00112106 -4.48992e-20)
(2.18648 -0.00101626 0)
(2.18939 -0.000908626 0)
(2.19207 -0.000809345 0)
(2.19455 -0.000722237 -4.28542e-20)
(2.19684 -0.000617725 0)
(2.1989 -0.000496412 0)
(2.20075 -0.000372283 4.13561e-20)
(2.20239 -0.000261261 0)
(2.20383 -0.000166807 0)
(2.2051 -9.16484e-05 3.98879e-20)
(2.20622 -3.5439e-05 0)
(2.2072 5.70508e-06 0)
(2.20807 3.66806e-05 -3.8449e-20)
(2.20884 6.16089e-05 -3.79757e-20)
(2.20951 8.31164e-05 0)
(2.21008 0.000102617 3.70387e-20)
(2.21058 0.000120709 0)
(2.21099 0.00013766 -3.6114e-20)
(2.21133 0.000153549 0)
(2.21159 0.000168454 -3.52017e-20)
(2.21179 0.000182399 -3.475e-20)
(2.21192 0.000195446 0)
(2.212 0.000207617 0)
(2.21201 0.000218971 0)
(2.21198 0.000229544 0)
(2.21189 0.000239394 0)
(2.21176 0.000248562 0)
(2.21158 0.000257105 0)
(2.21135 0.000265056 -3.12427e-20)
(2.21109 0.000272474 3.08172e-20)
(2.21079 0.000279378 0)
(2.21045 0.000285814 0)
(2.21008 0.000291788 0)
(2.20968 0.000297346 0)
(2.20924 0.000302503 5.7461e-20)
(2.20878 0.00030731 0)
(2.20829 0.000311784 -5.58292e-20)
(2.20777 0.000315973 5.50211e-20)
(2.20723 0.00031988 0)
(2.20666 0.000323547 0)
(2.20607 0.000326975 0)
(2.20546 0.000330202 -5.18399e-20)
(2.20483 0.000333227 -5.10572e-20)
(2.20417 0.000336088 0)
(2.2035 0.00033879 -4.95065e-20)
(2.2028 0.000341367 -4.87384e-20)
(2.20209 0.000343836 4.79751e-20)
(2.20136 0.000346227 0)
(2.20061 0.000348573 0)
(2.19985 0.000350914 4.57133e-20)
(2.19906 0.000353278 0)
(2.19826 0.000355699 0)
(2.19744 0.000358211 0)
(2.1966 0.000360864 0)
(2.19575 0.000363715 -4.20347e-20)
(2.19487 0.000366839 -4.13121e-20)
(2.19397 0.000370317 0)
(2.19306 0.000374256 -3.98799e-20)
(2.19211 0.00037878 0)
(2.19115 0.000384054 0)
(2.19015 0.000390282 -3.77628e-20)
(2.18912 0.000397729 0)
(2.18805 0.000406723 -3.63718e-20)
(2.18694 0.000417696 0)
(2.18577 0.000431185 0)
(2.18454 0.000447914 -3.43146e-20)
(2.18323 0.000468756 0)
(2.18183 0.000495017 -3.29623e-20)
(2.18031 0.00052798 0)
(2.17864 0.000570477 0)
(2.17678 0.000623514 0)
(2.17468 0.000695006 3.03014e-20)
(2.17226 0.000781924 0)
(2.16944 0.000905527 -2.8992e-20)
(2.16602 0.00106355 0)
(2.16204 0.00124943 0)
(2.15665 0.00166565 0)
(2.15061 0.00171818 0)
(2.14143 0.00324967 0)
(2.13011 0.0022558 0)
(2.11493 0.00775559 0)
(2.08457 0.00357747 4.77484e-20)
(2.06044 0.0253204 0)
(1.94771 0.0193138 0)
(-0.0193877 0.108207 8.47479e-20)
(-0.0503314 0.089619 -8.41398e-20)
(-0.0762032 0.0831584 0)
(-0.103221 0.0808114 5.52623e-20)
(-0.128777 0.077238 0)
(-0.153373 0.0723779 2.7195e-20)
(-0.176173 0.0663993 -5.39959e-20)
(-0.196956 0.059404 -5.35725e-20)
(-0.215288 0.0514479 0)
(-0.230825 0.0425447 -5.27237e-20)
(-0.243175 0.0327927 -2.61361e-20)
(-0.252049 0.0222755 0)
(-0.25723 0.0110779 0)
(-0.258235 -0.000648245 0)
(-0.254937 -0.0128265 0)
(-0.24708 -0.0252662 -2.50681e-20)
(-0.234471 -0.0378088 0)
(-0.217235 -0.0502618 4.92977e-20)
(-0.195116 -0.0626131 0)
(-0.168155 -0.0745139 0)
(-0.13646 -0.085989 -4.80079e-20)
(-0.100425 -0.0967979 0)
(-0.0600745 -0.10688 4.71521e-20)
(-0.0153046 -0.116125 -2.33554e-20)
(0.0332135 -0.124452 2.314e-20)
(0.0850502 -0.131785 -2.29232e-20)
(0.139927 -0.138111 -2.27074e-20)
(0.197506 -0.14341 0)
(0.257423 -0.147685 0)
(0.319306 -0.150957 2.20673e-20)
(0.382786 -0.15326 -2.18647e-20)
(0.4475 -0.154644 0)
(0.513099 -0.155165 0)
(0.579252 -0.154887 2.12353e-20)
(0.645646 -0.153882 0)
(0.71199 -0.152222 0)
(0.778022 -0.149981 -2.06299e-20)
(0.843501 -0.14723 0)
(0.908215 -0.144042 2.02404e-20)
(0.971974 -0.140484 -4.00825e-20)
(1.03461 -0.13662 0)
(1.096 -0.13251 0)
(1.156 -0.128208 -7.78835e-20)
(1.21452 -0.123766 -7.71339e-20)
(1.27149 -0.119227 -7.63911e-20)
(1.32684 -0.114632 3.78309e-20)
(1.38052 -0.110017 -3.7459e-20)
(1.4325 -0.105412 -1.11298e-19)
(1.48275 -0.100845 7.34834e-20)
(1.53128 -0.0963377 3.63828e-20)
(1.57807 -0.0919102 0)
(1.62314 -0.0875783 -3.56797e-20)
(1.6665 -0.083355 3.53375e-20)
(1.70817 -0.0792507 0)
(1.74819 -0.0752735 0)
(1.78658 -0.0714294 0)
(1.82338 -0.0677225 -3.39683e-20)
(1.85862 -0.0641555 0)
(1.89235 -0.0607297 6.6606e-20)
(1.9246 -0.0574451 0)
(1.95543 -0.054301 6.52898e-20)
(1.98487 -0.0512955 0)
(2.01298 -0.0484265 -6.39915e-20)
(2.03979 -0.0456909 0)
(2.06536 -0.0430855 6.27108e-20)
(2.08972 -0.0406065 -3.10398e-20)
(2.11292 -0.0382501 0)
(2.135 -0.0360121 -6.08217e-20)
(2.15602 -0.0338883 -3.0099e-20)
(2.17601 -0.0318742 -2.97905e-20)
(2.195 -0.0299656 0)
(2.21305 -0.0281581 -2.91812e-20)
(2.2302 -0.0264474 -2.88768e-20)
(2.24647 -0.0248291 0)
(2.26191 -0.0232991 2.82777e-20)
(2.27656 -0.0218534 -5.59635e-20)
(2.29044 -0.0204878 0)
(2.3036 -0.0191986 -2.73936e-20)
(2.31606 -0.0179821 0)
(2.32786 -0.0168346 8.04424e-20)
(2.33903 -0.0157526 0)
(2.34959 -0.0147328 -7.87257e-20)
(2.35958 -0.0137721 -2.59583e-20)
(2.36902 -0.0128673 2.56777e-20)
(2.37794 -0.0120155 5.07962e-20)
(2.38636 -0.0112139 -5.02407e-20)
(2.39431 -0.01046 0)
(2.40181 -0.00975107 0)
(2.40888 -0.00908465 0)
(2.41554 -0.00845865 1.44163e-19)
(2.42182 -0.00787073 4.75167e-20)
(2.42774 -0.00731839 -4.6983e-20)
(2.4333 -0.00680049 0)
(2.43854 -0.00631483 -4.59272e-20)
(2.44346 -0.00585803 4.54032e-20)
(2.44809 -0.00543067 4.48836e-20)
(2.45243 -0.00503128 0)
(2.45651 -0.00465318 0)
(2.46035 -0.0042988 0)
(2.46394 -0.00396896 4.28397e-20)
(2.4673 -0.00365149 0)
(2.47049 -0.00335084 -8.36767e-20)
(2.4735 -0.00306746 -1.24027e-19)
(2.47636 -0.00279481 8.17001e-20)
(2.47908 -0.00254073 0)
(2.48167 -0.00231093 3.98751e-20)
(2.48411 -0.00210424 0)
(2.48641 -0.00191759 7.78256e-20)
(2.48858 -0.00174751 -3.84367e-20)
(2.4906 -0.00159086 -3.79636e-20)
(2.49249 -0.00144555 0)
(2.49425 -0.00131032 -1.1108e-19)
(2.49589 -0.00118442 7.31263e-20)
(2.49742 -0.00106728 3.61025e-20)
(2.49883 -0.000958442 0)
(2.50015 -0.000857378 3.51905e-20)
(2.50138 -0.000763641 1.04217e-19)
(2.50251 -0.000676726 0)
(2.50356 -0.00059621 6.76904e-20)
(2.50454 -0.000521637 6.68054e-20)
(2.50544 -0.00045262 6.59262e-20)
(2.50627 -0.00038876 0)
(2.50704 -0.000329708 0)
(2.50775 -0.000275097 0)
(2.5084 -0.00022463 -3.12334e-20)
(2.509 -0.000177978 -3.08079e-20)
(2.50955 -0.000134908 0)
(2.51006 -9.51352e-05 -5.9931e-20)
(2.51052 -5.84596e-05 -5.90968e-20)
(2.51095 -2.46241e-05 0)
(2.51134 6.54342e-06 -5.74443e-20)
(2.51169 3.52765e-05 -1.13252e-19)
(2.51201 6.17307e-05 5.58132e-20)
(2.51231 8.61234e-05 5.50055e-20)
(2.51257 0.000108583 0)
(2.51281 0.000129299 0)
(2.51303 0.000148373 0)
(2.51323 0.000165971 5.18256e-20)
(2.5134 0.000182185 -5.10432e-20)
(2.51356 0.000197164 -1.00531e-19)
(2.51369 0.000210997 4.9493e-20)
(2.51381 0.000223819 -4.87253e-20)
(2.51392 0.000235738 -4.79622e-20)
(2.51401 0.000246883 0)
(2.51409 0.000257383 0)
(2.51415 0.000267363 4.57014e-20)
(2.51421 0.000276937 0)
(2.51425 0.000286226 0)
(2.51428 0.000295361 -8.69632e-20)
(2.51429 0.000304499 0)
(2.5143 0.00031382 -4.20241e-20)
(2.5143 0.000323536 4.13017e-20)
(2.51428 0.000333896 0)
(2.51425 0.000345202 -3.98701e-20)
(2.51421 0.000357813 0)
(2.51415 0.000372179 0)
(2.51407 0.000388856 3.77537e-20)
(2.51398 0.000408547 -7.41128e-20)
(2.51386 0.000432133 3.63631e-20)
(2.51371 0.000460743 0)
(2.51353 0.000495813 0)
(2.5133 0.000539194 -3.43066e-20)
(2.51301 0.000593282 0)
(2.51266 0.000661174 -3.29547e-20)
(2.51222 0.00074703 0)
(2.51167 0.000856046 0)
(2.51098 0.000996203 0)
(2.51009 0.00117491 -3.02946e-20)
(2.509 0.00141367 0)
(2.50748 0.00170583 2.89855e-20)
(2.50578 0.00215679 0)
(2.50306 0.00258367 0)
(2.50035 0.00363948 -5.40936e-20)
(2.49526 0.00399165 5.28134e-20)
(2.49074 0.00701843 0)
(2.48078 0.00647668 0)
(2.47244 0.0157512 0)
(2.45196 0.0132926 -1.43225e-19)
(2.43618 0.0463416 0)
(2.39937 0.0490945 9.04951e-20)
(-0.0199335 0.183345 5.11355e-23)
(-0.0533699 0.152327 1.12246e-19)
(-0.082001 0.141944 0)
(-0.111976 0.137959 -1.10562e-19)
(-0.140419 0.13183 0)
(-0.167888 0.123484 0)
(-0.193493 0.113263 -4.78729e-23)
(-0.21695 0.1013 5.35661e-20)
(-0.23786 0.087676 5.31885e-20)
(-0.255796 0.072456 5.27177e-20)
(-0.27036 0.0557983 0)
(-0.281202 0.0378035 0)
(-0.287962 0.0186814 -5.14828e-20)
(-0.290336 -0.00136802 -1.02109e-19)
(-0.287977 -0.0222166 1.01245e-19)
(-0.280599 -0.0434902 0)
(-0.268109 -0.0650553 9.95151e-20)
(-0.250565 -0.0864995 -4.92904e-20)
(-0.227765 -0.107524 0)
(-0.199749 -0.128006 9.69197e-20)
(-0.166779 -0.147552 4.79994e-20)
(-0.129158 -0.166052 -9.51952e-20)
(-0.086876 -0.183104 -4.71432e-20)
(-0.0402323 -0.198725 0)
(0.0103574 -0.212887 9.26188e-20)
(0.0645221 -0.22524 9.1748e-20)
(0.121627 -0.23583 0)
(0.181414 -0.244647 9.00148e-20)
(0.243478 -0.251708 0)
(0.307415 -0.257057 8.83038e-20)
(0.372831 -0.260764 4.37155e-20)
(0.439341 -0.262915 0)
(0.506584 -0.263615 0)
(0.574218 -0.262979 0)
(0.641929 -0.261129 0)
(0.70943 -0.258192 0)
(0.77646 -0.254293 0)
(0.842789 -0.249558 8.1742e-20)
(0.908214 -0.244106 -1.21426e-19)
(0.972558 -0.238051 0)
(1.03567 -0.231499 0)
(1.09742 -0.224552 0)
(1.15771 -0.217298 -1.33341e-23)
(1.21644 -0.209821 7.71236e-20)
(1.27356 -0.202193 1.52775e-19)
(1.329 -0.194482 -1.51302e-19)
(1.38273 -0.186745 -7.49271e-20)
(1.43474 -0.179031 7.41926e-20)
(1.48499 -0.171384 1.02338e-23)
(1.5335 -0.163841 7.27737e-20)
(1.58027 -0.156432 0)
(1.62532 -0.149183 7.1367e-20)
(1.66866 -0.142115 8.51762e-24)
(1.71031 -0.135245 0)
(1.75032 -0.128585 0)
(1.78871 -0.122144 -6.86176e-20)
(1.82552 -0.115929 0)
(1.86078 -0.109945 0)
(1.89455 -0.104192 6.66141e-20)
(1.92686 -0.0986723 1.31895e-19)
(1.95776 -0.0933831 -6.52858e-20)
(1.98729 -0.088322 0)
(2.01549 -0.0834854 6.3988e-20)
(2.04242 -0.0788685 0)
(2.0681 -0.0744661 6.27168e-20)
(2.0926 -0.0702724 6.20739e-20)
(2.11595 -0.0662809 -1.22897e-19)
(2.13819 -0.0624852 -6.08267e-20)
(2.15936 -0.0588784 0)
(2.17952 -0.0554537 1.19168e-19)
(2.19869 -0.0522041 0)
(2.21692 -0.0491226 1.75081e-19)
(2.23425 -0.0462022 1.15512e-19)
(2.25071 -0.0434362 1.1431e-19)
(2.26634 -0.0408177 -1.13115e-19)
(2.28117 -0.0383403 1.6789e-19)
(2.29525 -0.0359975 0)
(2.30859 -0.033783 0)
(2.32125 -0.0316907 -1.08414e-19)
(2.33323 -0.0297149 -1.60885e-19)
(2.34459 -0.0278499 0)
(2.35534 -0.0260901 5.24829e-20)
(2.3655 -0.0244305 0)
(2.37512 -0.0228659 -1.54063e-19)
(2.38422 -0.0213916 2.52425e-24)
(2.39281 -0.0200029 -2.35279e-24)
(2.40093 -0.0186954 9.93765e-20)
(2.40859 -0.017465 0)
(2.41582 -0.0163076 -9.7191e-20)
(2.42264 -0.0152192 1.76454e-24)
(2.42907 -0.0141962 0)
(2.43513 -0.0132354 0)
(2.44084 -0.0123331 0)
(2.44621 -0.0114855 9.1852e-20)
(2.45127 -0.0106912 0)
(2.45603 -0.00994643 0)
(2.4605 -0.00924636 0)
(2.4647 -0.00859193 0)
(2.46865 -0.00798022 0)
(2.47235 -0.00740566 8.56796e-20)
(2.47582 -0.00687159 0)
(2.47907 -0.00637347 8.36756e-20)
(2.48214 -0.00590646 8.26841e-20)
(2.48502 -0.00547001 -8.16991e-20)
(2.48772 -0.00507372 0)
(2.49026 -0.0047059 -7.97489e-20)
(2.49263 -0.00436075 0)
(2.49485 -0.00403556 -7.78246e-20)
(2.49692 -0.00372861 7.68721e-20)
(2.49886 -0.00343927 2.27779e-19)
(2.50066 -0.00316743 0)
(2.50235 -0.0029129 2.22159e-19)
(2.50392 -0.00267524 7.31259e-20)
(2.50539 -0.00245376 0)
(2.50676 -0.00224767 1.42579e-19)
(2.50803 -0.00205609 1.40761e-19)
(2.50921 -0.00187816 -2.08433e-19)
(2.51032 -0.00171304 0)
(2.51134 -0.00155991 -6.76896e-20)
(2.51229 -0.00141798 -6.68046e-20)
(2.51318 -0.00128652 -1.97776e-19)
(2.514 -0.00116481 0)
(2.51476 -0.00105219 0)
(2.51547 -0.000948023 0)
(2.51613 -0.000851738 -6.24661e-20)
(2.51674 -0.000762802 0)
(2.5173 -0.000680732 0)
(2.51782 -0.00060504 5.99303e-20)
(2.51831 -0.00053527 5.9096e-20)
(2.51875 -0.000470977 0)
(2.51916 -0.000411776 0)
(2.51955 -0.000357292 1.13251e-19)
(2.5199 -0.000307188 0)
(2.52023 -0.000261119 -1.1001e-19)
(2.52053 -0.000218784 -1.08404e-19)
(2.5208 -0.000179872 0)
(2.52106 -0.000144131 0)
(2.5213 -0.000111295 1.0365e-19)
(2.52151 -8.1137e-05 -9.94967e-27)
(2.52171 -5.34184e-05 -1.02233e-26)
(2.5219 -2.7922e-05 0)
(2.52207 -4.4097e-06 1.94899e-19)
(2.52223 1.73417e-05 0)
(2.52237 3.75573e-05 0)
(2.5225 5.64468e-05 0)
(2.52262 7.42097e-05 -9.14015e-20)
(2.52273 9.10493e-05 0)
(2.52283 0.000107189 1.76866e-19)
(2.52292 0.000122869 8.69622e-20)
(2.523 0.000138346 0)
(2.52307 0.000153908 8.4047e-20)
(2.52313 0.000169887 0)
(2.52318 0.000186675 0)
(2.52322 0.000204748 2.39217e-19)
(2.52324 0.000224678 -1.5664e-19)
(2.52326 0.000247172 0)
(2.52325 0.000273101 -1.51013e-19)
(2.52323 0.000303557 7.41118e-20)
(2.52318 0.000339912 0)
(2.52311 0.000383905 0)
(2.523 0.000437767 0)
(2.52285 0.000504307 2.05837e-19)
(2.52265 0.000587323 0)
(2.52238 0.00069127 6.59085e-20)
(2.52203 0.000823291 0)
(2.52156 0.000989406 0)
(2.52096 0.00120634 0)
(2.52016 0.00147526 0)
(2.51917 0.00184913 0)
(2.51777 0.00228203 0)
(2.51615 0.0029814 1.13344e-19)
(2.51363 0.00364263 0)
(2.51095 0.00513664 5.40927e-20)
(2.50636 0.00599315 -1.58439e-19)
(2.50162 0.00968724 0)
(2.49324 0.0106023 0)
(2.48441 0.020495 9.80124e-20)
(2.46919 0.023166 9.54853e-20)
(2.4541 0.0517379 -9.29923e-20)
(2.43231 0.0657184 -9.04897e-20)
(-0.0209922 0.263671 -1.69785e-19)
(-0.0585963 0.222182 -1.68568e-19)
(-0.0916228 0.208409 -1.11584e-19)
(-0.126215 0.202728 -5.54397e-20)
(-0.159166 0.193784 0)
(-0.190989 0.181671 1.09043e-19)
(-0.220779 0.166894 -5.41654e-20)
(-0.248232 0.149567 0)
(-0.272887 0.129794 -5.31798e-20)
(-0.294239 0.107675 0)
(-0.311834 0.083405 1.04785e-19)
(-0.325283 0.0571671 0)
(-0.33416 0.0291833 5.14754e-20)
(-0.338128 -0.000144091 1.02095e-19)
(-0.336778 -0.0306189 -1.0123e-19)
(-0.329864 -0.0617845 0)
(-0.317162 -0.0932248 -9.94974e-20)
(-0.298544 -0.124556 0)
(-0.274253 -0.155242 0)
(-0.244224 -0.18501 -9.68997e-20)
(-0.208599 -0.213381 0)
(-0.167781 -0.240054 -7.74079e-23)
(-0.122026 -0.264678 0)
(-0.0719072 -0.287046 0)
(-0.0174751 -0.307009 6.17248e-23)
(0.0407171 -0.324549 -9.17398e-20)
(0.101794 -0.339368 -9.09218e-20)
(0.165463 -0.35158 -9.00039e-20)
(0.231273 -0.361227 0)
(0.29877 -0.368392 -1.76623e-19)
(0.36752 -0.373189 0)
(0.437108 -0.375762 -8.66399e-20)
(0.507152 -0.376275 0)
(0.5773 -0.374905 0)
(0.647233 -0.371838 8.41596e-20)
(0.716667 -0.36726 0)
(0.785354 -0.361357 -8.2546e-20)
(0.853075 -0.35431 2.40084e-23)
(0.919643 -0.34629 1.61906e-19)
(0.984902 -0.337459 -1.6037e-19)
(1.04872 -0.327968 0)
(1.11099 -0.317956 0)
(1.17162 -0.307549 -7.79106e-20)
(1.23055 -0.296861 0)
(1.28773 -0.285991 -7.63815e-20)
(1.34312 -0.27503 7.56456e-20)
(1.39672 -0.264056 7.49161e-20)
(1.44849 -0.253135 0)
(1.49846 -0.242326 -7.34757e-20)
(1.54663 -0.231678 -7.27643e-20)
(1.59301 -0.22123 1.44143e-19)
(1.63763 -0.211017 -7.13586e-20)
(1.68053 -0.201066 -7.06639e-20)
(1.72172 -0.191397 0)
(1.76125 -0.182028 0)
(1.79916 -0.17297 6.8611e-20)
(1.83549 -0.164232 0)
(1.87029 -0.155817 0)
(1.90359 -0.147728 -1.33205e-19)
(1.93544 -0.139964 -1.31885e-19)
(1.96589 -0.132524 0)
(1.99498 -0.125402 0)
(2.02277 -0.118593 0)
(2.04929 -0.112092 0)
(2.07459 -0.105889 -1.25417e-19)