/*--------------------------------*- C++ -*----------------------------------*\
  =========                 |
  \\      /  F ield         | OpenFOAM: The Open Source CFD Toolbox
   \\    /   O peration     | Website:  https://openfoam.org
    \\  /    A nd           | Version:  7
     \\/     M anipulation  |
\*---------------------------------------------------------------------------*/
FoamFile
{
    version     2.0;
    format      ascii;
    class       volSymmTensorField;
    location    "0.007";
    object      UPrime2Mean;
}
// * * * * * * * * * * * * * * * * * * * * * * * * * * * * * * * * * * * * * //

dimensions      [0 2 -2 0 0 0 0];

internalField   nonuniform List<symmTensor> 
12225
(
(0.0126843 -0.00208898 0 0.00110111 0 0)
(0.254201 -0.0111805 0 0.00106471 0 0)
(0.363115 -0.0151098 0 0.00123886 0 0)
(0.460009 -0.0166032 0 0.00115832 0 0)
(0.609539 -0.0176575 0 0.000984934 0 0)
(0.793735 -0.0182692 0 0.000797857 0 0)
(0.985051 -0.0171832 0 0.000612098 0 0)
(1.16533 -0.014345 0 0.000348704 0 0)
(1.31455 -0.0117428 0 0.000247877 0 0)
(1.4512 -0.00596905 0 0.000102281 0 0)
(1.542 -0.00921232 0 0.000131893 0 0)
(1.6657 0.00199796 0 0.000209738 0 0)
(1.73453 -0.0199546 0 0.000663507 0 0)
(1.93134 0.0164335 0 0.00164374 0 0)
(2.06926 -0.0773482 0 0.00729105 0 0)
(2.59551 0.083238 0 0.014886 0 0)
(3.18224 -0.421922 0 0.108733 0 0)
(5.74869 0.296309 0 0.0710393 0 0)
(0.0137408 -0.00152251 0 0.000804819 0 0)
(0.171373 -0.00629852 0 0.000673972 0 0)
(0.186531 -0.00900104 0 0.00121181 0 0)
(0.186935 -0.00934294 0 0.00155395 0 0)
(0.211171 -0.0101382 0 0.00177934 0 0)
(0.246541 -0.011488 0 0.001892 0 0)
(0.289032 -0.0128946 0 0.00184094 0 0)
(0.338165 -0.0136703 0 0.00171316 0 0)
(0.388321 -0.0134743 0 0.00129271 0 0)
(0.450102 -0.0138128 0 0.00108593 0 0)
(0.503186 -0.012373 0 0.000670867 0 0)
(0.590817 -0.0173171 0 0.000901361 0 0)
(0.647668 -0.0153328 0 0.00100842 0 0)
(0.813493 -0.0390061 0 0.00332452 0 0)
(0.885565 -0.033998 0 0.00468532 0 0)
(1.33429 -0.14298 0 0.0244674 0 0)
(1.45966 -0.167119 0 0.0253864 0 0)
(2.73288 -0.865975 0 0.31745 0 0)
(0.0087476 -0.00148345 0 0.00129659 0 0)
(0.166161 -0.00967781 0 0.00139557 0 0)
(0.175469 -0.0120775 0 0.00242563 0 0)
(0.167313 -0.01114 0 0.00306034 0 0)
(0.177904 -0.0105465 0 0.00334718 0 0)
(0.193709 -0.0109784 0 0.00344834 0 0)
(0.211576 -0.0116464 0 0.00350591 0 0)
(0.232294 -0.0123278 0 0.00304576 0 0)
(0.257438 -0.0133136 0 0.00285023 0 0)
(0.287676 -0.0136582 0 0.00206193 0 0)
(0.327649 -0.0174304 0 0.0021029 0 0)
(0.375576 -0.0186651 0 0.00166266 0 0)
(0.444585 -0.0324894 0 0.00345682 0 0)
(0.530842 -0.0364091 0 0.00336362 0 0)
(0.671997 -0.0895613 0 0.0154521 0 0)
(0.857779 -0.111067 0 0.0160627 0 0)
(1.15644 -0.338174 0 0.111931 0 0)
(1.50185 -0.614297 0 0.272639 0 0)
(0.0107018 -0.00265289 0 0.00176706 0 0)
(0.165149 -0.0109448 0 0.00192318 0 0)
(0.172567 -0.0124348 0 0.00275856 0 0)
(0.164521 -0.0114631 0 0.0033952 0 0)
(0.174594 -0.0109973 0 0.00373368 0 0)
(0.188733 -0.0114606 0 0.00390771 0 0)
(0.204085 -0.0124788 0 0.00393908 0 0)
(0.221685 -0.0135844 0 0.00390897 0 0)
(0.242645 -0.014973 0 0.00354744 0 0)
(0.26954 -0.017396 0 0.00341268 0 0)
(0.303329 -0.0209775 0 0.00324246 0 0)
(0.348571 -0.0284576 0 0.0040079 0 0)
(0.406528 -0.0387219 0 0.00512639 0 0)
(0.488752 -0.0617668 0 0.00955745 0 0)
(0.59788 -0.0965357 0 0.0171679 0 0)
(0.750708 -0.174789 0 0.0443825 0 0)
(0.942231 -0.321916 0 0.114349 0 0)
(1.08717 -0.557045 0 0.297024 0 0)
(0.0136771 -0.00258129 0 0.00232914 0 0)
(0.16378 -0.0129466 0 0.00246186 0 0)
(0.168927 -0.0142758 0 0.00348022 0 0)
(0.161303 -0.0133374 0 0.00449469 0 0)
(0.171815 -0.0129976 0 0.00500677 0 0)
(0.185758 -0.0137567 0 0.00521546 0 0)
(0.200277 -0.0151275 0 0.00542743 0 0)
(0.216525 -0.0169078 0 0.00538901 0 0)
(0.235893 -0.019373 0 0.00554492 0 0)
(0.26007 -0.0225297 0 0.00546579 0 0)
(0.291135 -0.0284447 0 0.00604481 0 0)
(0.331042 -0.0366674 0 0.00698426 0 0)
(0.383037 -0.0524313 0 0.0101796 0 0)
(0.451171 -0.0755975 0 0.0154634 0 0)
(0.539914 -0.120844 0 0.0306656 0 0)
(0.648086 -0.193794 0 0.0620688 0 0)
(0.761606 -0.320884 0 0.140466 0 0)
(0.810819 -0.50938 0 0.342226 0 0)
(0.00993519 -0.00345115 0 0.00252142 0 0)
(0.163141 -0.0151733 0 0.00333178 0 0)
(0.167952 -0.0161669 0 0.0045958 0 0)
(0.159512 -0.0148923 0 0.00586893 0 0)
(0.169017 -0.0144467 0 0.00653649 0 0)
(0.181978 -0.0152856 0 0.00679248 0 0)
(0.195825 -0.0170768 0 0.00698453 0 0)
(0.211426 -0.0194991 0 0.00722284 0 0)
(0.229545 -0.022623 0 0.00745062 0 0)
(0.251422 -0.0269298 0 0.00785388 0 0)
(0.278771 -0.0334822 0 0.00868608 0 0)
(0.313173 -0.0439404 0 0.0107229 0 0)
(0.357175 -0.0607516 0 0.0149631 0 0)
(0.411792 -0.0877363 0 0.0236041 0 0)
(0.479007 -0.132068 0 0.0418912 0 0)
(0.54904 -0.200483 0 0.079806 0 0)
(0.610286 -0.305064 0 0.162024 0 0)
(0.611852 -0.429307 0 0.317637 0 0)
(0.0110942 -0.00336891 0 0.00286011 0 0)
(0.159376 -0.0165068 0 0.00399803 0 0)
(0.161527 -0.0172123 0 0.0052542 0 0)
(0.152848 -0.0156875 0 0.00664831 0 0)
(0.162274 -0.0154682 0 0.00753568 0 0)
(0.174565 -0.0167497 0 0.00801881 0 0)
(0.187217 -0.0189484 0 0.00847542 0 0)
(0.201137 -0.0217721 0 0.00896601 0 0)
(0.217139 -0.0254036 0 0.00959448 0 0)
(0.236424 -0.0303924 0 0.0104969 0 0)
(0.260494 -0.0380558 0 0.0121213 0 0)
(0.290282 -0.0498241 0 0.0152483 0 0)
(0.326921 -0.0680002 0 0.0211564 0 0)
(0.369641 -0.0957591 0 0.032457 0 0)
(0.417423 -0.137466 0 0.0538028 0 0)
(0.459651 -0.197524 0 0.0954386 0 0)
(0.48642 -0.276032 0 0.169573 0 0)
(0.464005 -0.358557 0 0.298066 0 0)
(0.00843569 -0.00337466 0 0.0032122 0 0)
(0.155361 -0.0181907 0 0.00467223 0 0)
(0.156907 -0.0181703 0 0.00637134 0 0)
(0.148014 -0.0160627 0 0.00809033 0 0)
(0.156742 -0.0158054 0 0.00938451 0 0)
(0.167666 -0.0172614 0 0.0101918 0 0)
(0.178723 -0.0196999 0 0.0108289 0 0)
(0.191193 -0.0228703 0 0.0115117 0 0)
(0.205782 -0.0270457 0 0.0124448 0 0)
(0.223103 -0.0327835 0 0.0138454 0 0)
(0.243939 -0.0412143 0 0.0162194 0 0)
(0.268573 -0.0536864 0 0.020474 0 0)
(0.297162 -0.0720554 0 0.0279661 0 0)
(0.32795 -0.0984969 0 0.0412825 0 0)
(0.358685 -0.135588 0 0.0645785 0 0)
(0.380099 -0.184165 0 0.105347 0 0)
(0.385111 -0.241193 0 0.171281 0 0)
(0.353692 -0.293444 0 0.273036 0 0)
(0.00923737 -0.00338141 0 0.00311165 0 0)
(0.150862 -0.0193878 0 0.00528663 0 0)
(0.149664 -0.0187799 0 0.00713517 0 0)
(0.140772 -0.0157647 0 0.00889467 0 0)
(0.149431 -0.0151621 0 0.0103734 0 0)
(0.15959 -0.016668 0 0.0114665 0 0)
(0.169352 -0.0192944 0 0.0124208 0 0)
(0.180091 -0.0227025 0 0.0134946 0 0)
(0.192453 -0.0271483 0 0.0148916 0 0)
(0.206857 -0.0332204 0 0.0169558 0 0)
(0.223635 -0.0418575 0 0.0201549 0 0)
(0.242593 -0.0541588 0 0.02545 0 0)
(0.263314 -0.0715094 0 0.0341933 0 0)
(0.283701 -0.095239 0 0.0488587 0 0)
(0.301327 -0.126372 0 0.0726484 0 0)
(0.308863 -0.163832 0 0.110927 0 0)
(0.302522 -0.203689 0 0.167377 0 0)
(0.270118 -0.234971 0 0.246175 0 0)
(0.00763462 -0.0040424 0 0.00507924 0 0)
(0.151115 -0.0220864 0 0.00751201 0 0)
(0.149489 -0.0208182 0 0.00962627 0 0)
(0.140066 -0.0171464 0 0.0115733 0 0)
(0.148134 -0.0165071 0 0.0134081 0 0)
(0.157356 -0.0183242 0 0.0149714 0 0)
(0.16592 -0.0213403 0 0.0163542 0 0)
(0.175295 -0.0251544 0 0.0178053 0 0)
(0.186039 -0.030006 0 0.0196086 0 0)
(0.198291 -0.0364309 0 0.0221984 0 0)
(0.212075 -0.0452633 0 0.0261293 0 0)
(0.226871 -0.0573581 0 0.0323467 0 0)
(0.241796 -0.0736169 0 0.0420858 0 0)
(0.254652 -0.0945718 0 0.0574322 0 0)
(0.26317 -0.120165 0 0.0806149 0 0)
(0.261985 -0.148363 0 0.115028 0 0)
(0.249575 -0.175346 0 0.161693 0 0)
(0.218598 -0.192908 0 0.221921 0 0)
(0.0139427 -0.00496489 0 0.00459499 0 0)
(0.156637 -0.0244724 0 0.00726742 0 0)
(0.151675 -0.0238547 0 0.00966237 0 0)
(0.14039 -0.0202303 0 0.0118936 0 0)
(0.14756 -0.0197276 0 0.0139806 0 0)
(0.156115 -0.0216959 0 0.0158351 0 0)
(0.16371 -0.0247565 0 0.017581 0 0)
(0.171619 -0.0285144 0 0.0194638 0 0)
(0.180392 -0.033285 0 0.0218187 0 0)
(0.190076 -0.0395174 0 0.024999 0 0)
(0.200418 -0.0478132 0 0.0295226 0 0)
(0.210613 -0.0586994 0 0.0362921 0 0)
(0.219598 -0.0726458 0 0.0463799 0 0)
(0.225405 -0.0895563 0 0.0613975 0 0)
(0.22637 -0.108788 0 0.0827435 0 0)
(0.21896 -0.128009 0 0.112324 0 0)
(0.203469 -0.14425 0 0.149741 0 0)
(0.175331 -0.151667 0 0.194985 0 0)
(0.00926147 -0.00490948 0 0.00570303 0 0)
(0.150047 -0.0245863 0 0.00895991 0 0)
(0.146227 -0.0238635 0 0.0116618 0 0)
(0.135561 -0.0197487 0 0.0141641 0 0)
(0.142402 -0.0189475 0 0.0164914 0 0)
(0.150125 -0.020908 0 0.0187178 0 0)
(0.156798 -0.024099 0 0.0209382 0 0)
(0.163677 -0.0279808 0 0.0233228 0 0)
(0.171088 -0.0327346 0 0.0260853 0 0)
(0.17893 -0.0387718 0 0.0296106 0 0)
(0.186827 -0.0465591 0 0.0344419 0 0)
(0.193938 -0.056373 0 0.0413729 0 0)
(0.19924 -0.0683804 0 0.0512785 0 0)
(0.201133 -0.0821498 0 0.0653615 0 0)
(0.198535 -0.0968647 0 0.0843663 0 0)
(0.189115 -0.110324 0 0.109248 0 0)
(0.173991 -0.12043 0 0.138945 0 0)
(0.149809 -0.122938 0 0.173009 0 0)
(0.00936672 -0.00502778 0 0.0054872 0 0)
(0.150402 -0.0257987 0 0.00932992 0 0)
(0.145006 -0.025071 0 0.0124354 0 0)
(0.13332 -0.0205789 0 0.01521 0 0)
(0.139231 -0.0195192 0 0.0176751 0 0)
(0.145883 -0.0213323 0 0.0200875 0 0)
(0.151256 -0.0243571 0 0.0226092 0 0)
(0.156566 -0.0279401 0 0.0253894 0 0)
(0.16209 -0.0321643 0 0.0285929 0 0)
(0.1676 -0.0373361 0 0.032532 0 0)
(0.172662 -0.0438369 0 0.0376145 0 0)
(0.176557 -0.0518415 0 0.0445214 0 0)
(0.178491 -0.0613817 0 0.0539555 0 0)
(0.177361 -0.0719035 0 0.066789 0 0)
(0.172537 -0.082597 0 0.0833034 0 0)
(0.162604 -0.0915796 0 0.103891 0 0)
(0.14895 -0.0974709 0 0.127278 0 0)
(0.128943 -0.0971464 0 0.152882 0 0)
(0.0103288 -0.00539185 0 0.00630731 0 0)
(0.152202 -0.0275541 0 0.0115407 0 0)
(0.147095 -0.0270565 0 0.0153777 0 0)
(0.134699 -0.0222533 0 0.0185308 0 0)
(0.139593 -0.0209813 0 0.0213093 0 0)
(0.145119 -0.0228654 0 0.0240585 0 0)
(0.149269 -0.0261164 0 0.0269662 0 0)
(0.153126 -0.0297667 0 0.0300561 0 0)
(0.156746 -0.0336108 0 0.0334191 0 0)
(0.159815 -0.0378382 0 0.0373163 0 0)
(0.162043 -0.0429073 0 0.04227 0 0)
(0.163016 -0.0490614 0 0.0489616 0 0)
(0.162157 -0.0562184 0 0.0578696 0 0)
(0.158726 -0.0637385 0 0.0694342 0 0)
(0.152364 -0.070804 0 0.0834775 0 0)
(0.142397 -0.0759648 0 0.0998997 0 0)
(0.130186 -0.0783334 0 0.117325 0 0)
(0.113775 -0.0759244 0 0.135212 0 0)
(0.0107495 -0.00527307 0 0.00624561 0 0)
(0.148949 -0.0290707 0 0.0116313 0 0)
(0.141213 -0.0282491 0 0.0161041 0 0)
(0.127686 -0.0227101 0 0.019703 0 0)
(0.131763 -0.0208777 0 0.022821 0 0)
(0.136216 -0.022372 0 0.0258494 0 0)
(0.139085 -0.025197 0 0.0288933 0 0)
(0.141377 -0.0281884 0 0.0318861 0 0)
(0.143147 -0.0311058 0 0.0349549 0 0)
(0.14425 -0.0342334 0 0.0385568 0 0)
(0.144505 -0.037963 0 0.0432283 0 0)
(0.143561 -0.0423189 0 0.0494077 0 0)
(0.140959 -0.0470225 0 0.0572454 0 0)
(0.13632 -0.051401 0 0.0668235 0 0)
(0.129607 -0.0548169 0 0.0777464 0 0)
(0.120703 -0.0562738 0 0.0897491 0 0)
(0.110924 -0.0554656 0 0.101698 0 0)
(0.098705 -0.0512227 0 0.113291 0 0)
(0.00978481 -0.00497669 0 0.00641607 0 0)
(0.148558 -0.0299254 0 0.0128218 0 0)
(0.139529 -0.0294505 0 0.0178307 0 0)
(0.124519 -0.0235848 0 0.0218317 0 0)
(0.127061 -0.0212254 0 0.0254236 0 0)
(0.129848 -0.022001 0 0.0288881 0 0)
(0.131016 -0.0238712 0 0.0321322 0 0)
(0.131705 -0.025804 0 0.0350898 0 0)
(0.131996 -0.0276987 0 0.0380468 0 0)
(0.131677 -0.0297721 0 0.0414565 0 0)
(0.130526 -0.0321911 0 0.0456523 0 0)
(0.128303 -0.0348227 0 0.050821 0 0)
(0.12476 -0.0373802 0 0.0569564 0 0)
(0.119844 -0.0393604 0 0.0640023 0 0)
(0.113699 -0.0403916 0 0.0715287 0 0)
(0.106465 -0.0398819 0 0.0792809 0 0)
(0.099179 -0.0378239 0 0.0863801 0 0)
(0.0905021 -0.0335238 0 0.0927359 0 0)
(0.012983 -0.00434431 0 0.00610599 0 0)
(0.14921 -0.0297696 0 0.0118455 0 0)
(0.137893 -0.0295261 0 0.0171019 0 0)
(0.121444 -0.0234534 0 0.0212449 0 0)
(0.122624 -0.0207034 0 0.0247484 0 0)
(0.123997 -0.0210451 0 0.028084 0 0)
(0.123711 -0.0223553 0 0.0313669 0 0)
(0.122957 -0.0234788 0 0.0345036 0 0)
(0.121822 -0.0242311 0 0.0375145 0 0)
(0.120113 -0.0248296 0 0.0405794 0 0)
(0.117713 -0.0254985 0 0.0439294 0 0)
(0.114583 -0.0261699 0 0.0477068 0 0)
(0.110671 -0.0266191 0 0.0518905 0 0)
(0.10613 -0.026492 0 0.0563505 0 0)
(0.10115 -0.0255746 0 0.0607269 0 0)
(0.0959713 -0.0235792 0 0.0648065 0 0)
(0.091318 -0.0206416 0 0.06807 0 0)
(0.0860917 -0.0164833 0 0.0705634 0 0)
(0.00949837 -0.0042475 0 0.00724115 0 0)
(0.141668 -0.0296726 0 0.0126187 0 0)
(0.130982 -0.0295054 0 0.0171244 0 0)
(0.114997 -0.0230194 0 0.0211452 0 0)
(0.115278 -0.0195542 0 0.0245434 0 0)
(0.11491 -0.0188039 0 0.0273969 0 0)
(0.112975 -0.0187635 0 0.0299421 0 0)
(0.111047 -0.0184463 0 0.032402 0 0)
(0.109208 -0.0177218 0 0.0348762 0 0)
(0.107175 -0.0167656 0 0.0373378 0 0)
(0.104834 -0.0157587 0 0.0397493 0 0)
(0.102225 -0.0147084 0 0.0420585 0 0)
(0.0993711 -0.0135606 0 0.0441892 0 0)
(0.0964458 -0.0121525 0 0.0461163 0 0)
(0.0935576 -0.0104903 0 0.0477307 0 0)
(0.0908746 -0.00840963 0 0.0490814 0 0)
(0.088751 -0.0061432 0 0.0499878 0 0)
(0.0863378 -0.00337986 0 0.0505731 0 0)
(0.00950627 -0.00378107 0 0.00645918 0 0)
(0.142749 -0.0290182 0 0.010149 0 0)
(0.129382 -0.0265848 0 0.0133047 0 0)
(0.111724 -0.01894 0 0.0162531 0 0)
(0.111233 -0.0146524 0 0.0186855 0 0)
(0.110192 -0.0131647 0 0.0207885 0 0)
(0.107711 -0.0126025 0 0.0227074 0 0)
(0.105354 -0.0120358 0 0.0243892 0 0)
(0.103179 -0.0112424 0 0.0257893 0 0)
(0.100941 -0.0102846 0 0.026975 0 0)
(0.098577 -0.00928376 0 0.0280676 0 0)
(0.096145 -0.00827671 0 0.0291652 0 0)
(0.0936771 -0.00725555 0 0.0302899 0 0)
(0.0913107 -0.00616056 0 0.0313956 0 0)
(0.0891087 -0.00502492 0 0.0323217 0 0)
(0.0871787 -0.00379849 0 0.0329687 0 0)
(0.0857302 -0.00262624 0 0.0331472 0 0)
(0.084186 -0.00134222 0 0.0328138 0 0)
(0.00978524 -0.00472994 0 0.00645775 0 0)
(0.142639 -0.0278185 0 0.0105781 0 0)
(0.127358 -0.0256238 0 0.0142319 0 0)
(0.10878 -0.0185382 0 0.0173426 0 0)
(0.106899 -0.0143199 0 0.0197398 0 0)
(0.104612 -0.0126376 0 0.0217601 0 0)
(0.101261 -0.0116807 0 0.0236224 0 0)
(0.098404 -0.0104503 0 0.025298 0 0)
(0.0960429 -0.0087389 0 0.0266657 0 0)
(0.0939173 -0.00677421 0 0.0276762 0 0)
(0.0919899 -0.00485222 0 0.028395 0 0)
(0.090347 -0.00310645 0 0.0288791 0 0)
(0.0890369 -0.00153727 0 0.0291332 0 0)
(0.0881497 -9.07879e-05 0 0.0291409 0 0)
(0.0876859 0.00124012 0 0.0288385 0 0)
(0.0876442 0.0024813 0 0.0282851 0 0)
(0.0880948 0.00355261 0 0.0274745 0 0)
(0.0885723 0.00455194 0 0.0265123 0 0)
(0.0135256 -0.0048203 0 0.00564734 0 0)
(0.148832 -0.0258311 0 0.00819787 0 0)
(0.131837 -0.0235656 0 0.0103223 0 0)
(0.110842 -0.0170061 0 0.0120208 0 0)
(0.107103 -0.0129708 0 0.013176 0 0)
(0.103468 -0.0110841 0 0.0139405 0 0)
(0.0992279 -0.00994395 0 0.0145001 0 0)
(0.0958314 -0.00882234 0 0.0149791 0 0)
(0.0931505 -0.0074996 0 0.0154114 0 0)
(0.0908591 -0.00599437 0 0.0157321 0 0)
(0.0889656 -0.00443847 0 0.0158864 0 0)
(0.0875951 -0.00296357 0 0.0158919 0 0)
(0.0867674 -0.00163456 0 0.0158049 0 0)
(0.0864843 -0.0004541 0 0.0156798 0 0)
(0.0866737 0.000572224 0 0.0155048 0 0)
(0.0872574 0.00146363 0 0.0152865 0 0)
(0.0882544 0.00216951 0 0.0149694 0 0)
(0.0892917 0.00273824 0 0.014528 0 0)
(0.00976379 -0.00334029 0 0.00493901 0 0)
(0.141921 -0.0216411 0 0.00668055 0 0)
(0.124264 -0.0191872 0 0.00838842 0 0)
(0.104262 -0.0129477 0 0.00991417 0 0)
(0.101292 -0.00901088 0 0.0112019 0 0)
(0.0981239 -0.00705857 0 0.012308 0 0)
(0.0943935 -0.0057625 0 0.0131972 0 0)
(0.0917105 -0.00435933 0 0.0137495 0 0)
(0.0900232 -0.00267865 0 0.0139279 0 0)
(0.0889839 -0.000909197 0 0.0138504 0 0)
(0.0884675 0.000709305 0 0.0136536 0 0)
(0.0884568 0.00204905 0 0.0134128 0 0)
(0.0889008 0.00309824 0 0.0131559 0 0)
(0.0897602 0.00389969 0 0.0128875 0 0)
(0.090991 0.00449403 0 0.0125733 0 0)
(0.092515 0.00491873 0 0.0122166 0 0)
(0.0943827 0.00516367 0 0.0117945 0 0)
(0.0962613 0.0052849 0 0.0113118 0 0)
(0.00977954 -0.00294866 0 0.00494071 0 0)
(0.136682 -0.0178533 0 0.00644269 0 0)
(0.118919 -0.0144119 0 0.00736013 0 0)
(0.100254 -0.00807498 0 0.00793054 0 0)
(0.0979224 -0.00418772 0 0.0081877 0 0)
(0.094901 -0.00234565 0 0.00820623 0 0)
(0.0914763 -0.00131751 0 0.00806414 0 0)
(0.0896027 -0.000429129 0 0.00788618 0 0)
(0.0891458 0.000542818 0 0.00774722 0 0)
(0.089484 0.00156093 0 0.0076516 0 0)
(0.0902697 0.00249307 0 0.00759245 0 0)
(0.091362 0.00324978 0 0.00754587 0 0)
(0.0927027 0.00381411 0 0.0074907 0 0)
(0.0942855 0.00420323 0 0.00742106 0 0)
(0.0960993 0.00442265 0 0.00731611 0 0)
(0.0980856 0.00449883 0 0.00718633 0 0)
(0.100318 0.00442065 0 0.00702276 0 0)
(0.102578 0.00423793 0 0.00680358 0 0)
(0.0107618 -0.00430849 0 0.0043993 0 0)
(0.142973 -0.0185511 0 0.00597874 0 0)
(0.122162 -0.0144747 0 0.00660642 0 0)
(0.100427 -0.00830741 0 0.00734079 0 0)
(0.0967712 -0.00439194 0 0.00787597 0 0)
(0.0932093 -0.00239164 0 0.00804846 0 0)
(0.0895826 -0.00125987 0 0.00793745 0 0)
(0.0877119 -0.000324964 0 0.00773915 0 0)
(0.0874019 0.000670053 0 0.00758858 0 0)
(0.0879965 0.00171207 0 0.00746441 0 0)
(0.0891802 0.0026839 0 0.00731731 0 0)
(0.0908866 0.00348184 0 0.00714118 0 0)
(0.0930956 0.00407222 0 0.00694989 0 0)
(0.0957569 0.0044585 0 0.00675503 0 0)
(0.0988264 0.00464181 0 0.00653293 0 0)
(0.102141 0.00462772 0 0.00630002 0 0)
(0.105782 0.0044114 0 0.0060259 0 0)
(0.109401 0.00404109 0 0.00568635 0 0)
(0.0112607 -0.00392997 0 0.00352998 0 0)
(0.136739 -0.0144553 0 0.00440391 0 0)
(0.113097 -0.00959285 0 0.00437664 0 0)
(0.0926577 -0.00411703 0 0.00430119 0 0)
(0.0911639 -0.0010201 0 0.00417548 0 0)
(0.0895169 0.000220574 0 0.00399396 0 0)
(0.0877955 0.000591151 0 0.00384878 0 0)
(0.0879376 0.000769736 0 0.0037194 0 0)
(0.0896076 0.00103093 0 0.00357455 0 0)
(0.0920175 0.00135951 0 0.00343826 0 0)
(0.094906 0.00166008 0 0.0033233 0 0)
(0.098364 0.001871 0 0.00322252 0 0)
(0.102494 0.0019729 0 0.00313223 0 0)
(0.107255 0.00195682 0 0.00305464 0 0)
(0.112538 0.00181292 0 0.00297774 0 0)
(0.118053 0.00153936 0 0.00290501 0 0)
(0.123781 0.00113198 0 0.00282305 0 0)
(0.12923 0.000661657 0 0.00272029 0 0)
(0.0127009 -0.0035568 0 0.00231933 0 0)
(0.135487 -0.0116508 0 0.0025355 0 0)
(0.109248 -0.00842479 0 0.00302298 0 0)
(0.0895384 -0.00369797 0 0.00352875 0 0)
(0.0892642 -0.000675542 0 0.00354418 0 0)
(0.088538 0.000603252 0 0.00320988 0 0)
(0.0877917 0.00109324 0 0.00288078 0 0)
(0.0889289 0.0014121 0 0.00267895 0 0)
(0.0914071 0.00173629 0 0.00254543 0 0)
(0.0943924 0.00202711 0 0.0024135 0 0)
(0.0977977 0.00221355 0 0.00226409 0 0)
(0.101911 0.00226469 0 0.00210518 0 0)
(0.106887 0.00219161 0 0.00195013 0 0)
(0.112607 0.00201558 0 0.00181135 0 0)
(0.118854 0.00174432 0 0.00168652 0 0)
(0.125268 0.00139574 0 0.00158511 0 0)
(0.131796 0.000971095 0 0.00150589 0 0)
(0.137979 0.000540985 0 0.00144584 0 0)
(0.00876264 -0.00228338 0 0.00213145 0 0)
(0.129845 -0.00530802 0 0.00117842 0 0)
(0.104425 -0.00290286 0 0.00114055 0 0)
(0.0873525 -0.000557025 0 0.0012232 0 0)
(0.0883445 0.000717951 0 0.00115683 0 0)
(0.0877958 0.000979749 0 0.00104754 0 0)
(0.0872674 0.000774617 0 0.000968508 0 0)
(0.0891917 0.000449805 0 0.000917338 0 0)
(0.0930641 9.44804e-05 0 0.00087053 0 0)
(0.0979162 -0.000323043 0 0.000810146 0 0)
(0.103456 -0.000831721 0 0.000739113 0 0)
(0.109757 -0.00142629 0 0.000673433 0 0)
(0.11683 -0.00207248 0 0.000625991 0 0)
(0.12447 -0.00273442 0 0.000601076 0 0)
(0.132421 -0.00339649 0 0.000593937 0 0)
(0.140302 -0.00403846 0 0.00060337 0 0)
(0.148121 -0.00465899 0 0.000626362 0 0)
(0.155431 -0.00517824 0 0.000651286 0 0)
(0.0116218 -0.00234774 0 0.00178998 0 0)
(0.126738 -0.00596371 0 0.00107621 0 0)
(0.0977164 -0.00398028 0 0.00120676 0 0)
(0.0824253 -0.000805109 0 0.00117043 0 0)
(0.0854955 0.000786018 0 0.000913025 0 0)
(0.0872206 0.00116001 0 0.000701579 0 0)
(0.0897536 0.00111196 0 0.000565327 0 0)
(0.0952285 0.000906145 0 0.0004546 0 0)
(0.102561 0.00053693 0 0.000356578 0 0)
(0.110406 -7.88822e-06 0 0.000275456 0 0)
(0.118346 -0.000678747 0 0.000215451 0 0)
(0.126491 -0.00140601 0 0.000179289 0 0)
(0.134897 -0.0021184 0 0.000168264 0 0)
(0.143418 -0.00277393 0 0.000180371 0 0)
(0.151769 -0.00337994 0 0.000209609 0 0)
(0.159699 -0.00395209 0 0.000253634 0 0)
(0.167206 -0.00451292 0 0.000311082 0 0)
(0.17409 -0.00499309 0 0.000367633 0 0)
(0.00904411 -0.000576478 0 0.000676023 0 0)
(0.120424 0.00148494 0 0.000164382 0 0)
(0.0926431 0.000804585 0 0.000178068 0 0)
(0.08021 0.000917513 0 0.000207282 0 0)
(0.085147 0.000376958 0 0.000295642 0 0)
(0.0881161 -0.000453368 0 0.000402324 0 0)
(0.0912147 -0.00127731 0 0.000487445 0 0)
(0.0963411 -0.00208733 0 0.000561653 0 0)
(0.102265 -0.00292603 0 0.000640494 0 0)
(0.107572 -0.00379229 0 0.000728088 0 0)
(0.111741 -0.00464491 0 0.000820318 0 0)
(0.114816 -0.00543115 0 0.000911909 0 0)
(0.11679 -0.0060803 0 0.000996398 0 0)
(0.117725 -0.00654928 0 0.00106953 0 0)
(0.117451 -0.0068279 0 0.00112745 0 0)
(0.116176 -0.00695299 0 0.00117252 0 0)
(0.113852 -0.00695299 0 0.00120886 0 0)
(0.111 -0.0068419 0 0.00122148 0 0)
(0.0111524 -0.00114788 0 0.000717172 0 0)
(0.12997 -0.000855889 0 0.000250389 0 0)
(0.114865 -0.000233947 0 0.000174606 0 0)
(0.111612 0.000492069 0 0.000102886 0 0)
(0.123941 0.000738133 0 8.22564e-05 0 0)
(0.134337 0.000855614 0 8.66885e-05 0 0)
(0.143898 0.00102328 0 9.62539e-05 0 0)
(0.155342 0.00124513 0 0.000111474 0 0)
(0.169483 0.00147395 0 0.000133449 0 0)
(0.186246 0.00168476 0 0.000159878 0 0)
(0.205339 0.0018877 0 0.000188661 0 0)
(0.22643 0.00210064 0 0.000217385 0 0)
(0.249393 0.00231961 0 0.000241326 0 0)
(0.274044 0.00251179 0 0.00025723 0 0)
(0.300459 0.00263895 0 0.000267226 0 0)
(0.327814 0.00268184 0 0.00027768 0 0)
(0.356433 0.00265614 0 0.000290028 0 0)
(0.384496 0.00250536 0 0.000292281 0 0)
(0.000217819 -0.000441281 8.79262e-22 0.000895935 -1.80451e-21 1.33076e-36)
(0.00175104 -0.00119926 -2.4572e-21 0.0008246 1.6533e-21 1.31214e-36)
(0.00456834 -0.00187572 0 0.000771048 0 0)
(0.00881167 -0.00257227 0 0.000751233 0 0)
(0.0142973 -0.00321896 0 0.000724918 0 0)
(0.0210526 -0.00381253 8.33005e-21 0.000690569 -1.53879e-21 1.23595e-36)
(0.0289209 -0.00433491 0 0.00064989 0 0)
(0.0377933 -0.00477762 0 0.000604129 0 0)
(0.0474991 -0.00513128 0 0.000554552 0 0)
(0.0578587 -0.00538685 0 0.000501844 0 0)
(0.0686932 -0.00554017 -1.49311e-20 0.000447239 1.32233e-21 1.14483e-36)
(0.0797829 -0.00559351 0 0.000392717 0 0)
(0.0909267 -0.00554334 0 0.000338687 0 0)
(0.101902 -0.00539613 0 0.000286698 0 0)
(0.112504 -0.00516068 0 0.000237938 0 0)
(0.12257 -0.00484119 -2.02978e-20 0.000192732 1.05553e-21 1.05818e-36)
(0.13193 -0.0044578 0 0.000152502 0 0)
(0.140415 -0.00402125 0 0.00011745 0 0)
(0.147918 -0.00353541 0 8.72563e-05 0 0)
(0.154348 -0.00302915 0 6.27306e-05 0 0)
(0.159639 -0.00250452 0 4.31604e-05 0 0)
(0.163807 -0.00198491 0 2.85613e-05 0 0)
(0.166803 -0.00147701 0 1.82795e-05 0 0)
(0.168665 -0.000991399 -2.59469e-20 1.17653e-05 6.4941e-22 9.28686e-37)
(0.169463 -0.000539048 2.64145e-20 8.42099e-06 -6.06692e-22 9.13287e-37)
(0.169257 -0.000124523 -2.68353e-20 7.58794e-06 5.66243e-22 8.98062e-37)
(0.168133 0.000246609 -2.72118e-20 8.65413e-06 5.28111e-22 8.83013e-37)
(0.16618 0.000571454 0 1.10439e-05 0 0)
(0.163499 0.000848882 0 1.42466e-05 0 0)
(0.160194 0.00107928 2.80985e-20 1.78295e-05 -4.27496e-22 8.38913e-37)
(0.15637 0.00126432 2.83211e-20 2.14425e-05 -3.98375e-22 8.24562e-37)
(0.152129 0.00140665 0 2.48181e-05 0 0)
(0.147567 0.00150969 0 2.77665e-05 0 0)
(0.142775 0.00157734 2.88024e-20 3.01665e-05 -3.23031e-22 7.82553e-37)
(0.137836 0.00161377 0 3.1956e-05 0 0)
(0.132821 0.00162324 0 3.312e-05 0 0)
(0.127795 0.00160994 -2.90477e-20 3.36801e-05 2.63363e-22 7.42105e-37)
(0.122814 0.00157786 0 3.3684e-05 0 0)
(0.117923 0.00153071 -2.91044e-20 3.31967e-05 2.30749e-22 7.16002e-37)
(0.113159 0.00147188 -5.82107e-20 3.22925e-05 4.32525e-22 2.81283e-36)
(0.108553 0.00140438 0 3.10493e-05 0 0)
(0.104127 0.00133085 0 2.95437e-05 0 0)
(0.0998976 0.00125354 0 2.78475e-05 0 0)
(0.0958765 0.00117437 0 2.6026e-05 0 0)
(0.0920698 0.00109489 0 2.4136e-05 0 0)
(0.0884802 0.00101638 -5.76138e-20 2.22261e-05 2.97929e-22 2.51998e-36)
(0.0851069 0.000939825 -5.74316e-20 2.0336e-05 2.80616e-22 2.47351e-36)
(0.0819467 0.000865998 -5.72302e-20 1.84974e-05 2.64437e-22 2.4277e-36)
(0.0789942 0.000795445 0 1.67343e-05 0 0)
(0.0762424 0.000728555 5.6775e-20 1.50643e-05 -2.35097e-22 2.33805e-36)
(0.0736832 0.000665559 0 1.3499e-05 0 0)
(0.0713075 0.000606586 -5.62579e-20 1.20455e-05 2.09244e-22 2.25098e-36)
(0.0691059 0.000551655 -5.59786e-20 1.07067e-05 1.97453e-22 2.2084e-36)
(0.0670686 0.000500725 0 9.4825e-06 0 0)
(0.0651858 0.000453686 0 8.37015e-06 0 0)
(0.0634476 0.000410398 0 7.3654e-06 0 0)
(0.0618445 0.000370677 -5.47445e-20 6.46247e-06 1.56628e-22 2.04437e-36)
(0.0603672 0.000334335 0 5.65495e-06 0 0)
(0.0590068 0.000301158 0 4.93575e-06 0 0)
(0.0577548 0.000270941 0 4.29782e-06 0 0)
(0.0566031 0.000243464 0 3.73389e-06 0 0)
(0.0555442 0.000218526 0 3.23707e-06 0 0)
(0.0545709 0.000195918 0 2.80063e-06 0 0)
(0.0536766 0.000175454 0 2.41834e-06 0 0)
(0.052855 0.000156946 0 2.08428e-06 0 0)
(0.0521005 0.000140227 5.14646e-20 1.7931e-06 -9.21499e-23 1.71048e-36)
(0.0514076 0.000125132 0 1.53982e-06 0 0)
(0.0507714 0.000111517 0 1.31999e-06 0 0)
(0.0501873 9.92387e-05 -5.02666e-20 1.12954e-06 7.67999e-23 1.60946e-36)
(0.0496512 8.8176e-05 -4.98592e-20 9.64866e-07 7.22227e-23 1.57687e-36)
(0.0491592 7.8208e-05 0 8.22703e-07 0 0)
(0.0487078 6.92322e-05 4.90344e-20 7.00209e-07 -6.38001e-23 1.51329e-36)
(0.0482935 6.11479e-05 -4.86176e-20 5.94799e-07 5.99313e-23 1.48229e-36)
(0.0479136 5.38736e-05 0 5.0428e-07 0 0)
(0.0475652 4.73203e-05 4.77766e-20 4.26632e-07 -5.28262e-23 1.42182e-36)
(0.0472458 4.14254e-05 0 3.60162e-07 0 0)
(0.0469531 3.61161e-05 0 3.03332e-07 0 0)
(0.0466849 3.13382e-05 -4.65008e-20 2.54845e-07 4.36026e-23 1.33486e-36)
(0.0464395 2.7033e-05 0 2.13524e-07 0 0)
(0.0462149 2.31591e-05 4.56436e-20 1.78399e-07 -3.83042e-23 1.27932e-36)
(0.0460096 1.96653e-05 0 1.48576e-07 0 0)
(0.045822 1.65196e-05 -4.47832e-20 1.23325e-07 3.3612e-23 1.22566e-36)
(0.0456509 1.36787e-05 -4.43522e-20 1.01974e-07 3.14734e-23 1.19951e-36)
(0.0454949 1.1121e-05 -4.39211e-20 8.39866e-08 2.94671e-23 1.17382e-36)
(0.0453529 8.80689e-06 -8.69797e-20 6.88524e-08 5.51643e-23 4.59432e-36)
(0.0452238 6.71927e-06 8.61174e-20 5.61757e-08 -5.16291e-23 4.4951e-36)
(0.0451068 4.82842e-06 0 4.55784e-08 0 0)
(0.0450009 3.12385e-06 0 3.67707e-08 0 0)
(0.0449051 1.57237e-06 0 2.94804e-08 0 0)
(0.0448188 1.68532e-07 8.26767e-20 2.34905e-08 -3.95907e-23 4.11531e-36)
(0.0447412 -1.10961e-06 8.18199e-20 1.85917e-08 -3.70589e-23 4.02452e-36)
(0.0446718 -2.24452e-06 -8.09651e-20 1.46954e-08 3.47008e-23 3.93534e-36)
(0.0446097 -3.23763e-06 0 1.16598e-08 0 0)
(0.0445543 -4.09461e-06 7.92623e-20 9.40551e-09 -3.0538e-23 3.76172e-36)
(0.0445053 -4.79951e-06 7.84147e-20 7.87808e-09 -2.87207e-23 3.67724e-36)
(0.0444625 -5.47036e-06 7.75697e-20 6.87791e-09 -2.70736e-23 3.59428e-36)
(0.0444256 -6.38164e-06 0 6.09497e-09 0 0)
(0.0443946 -7.54789e-06 0 5.48908e-09 0 0)
(0.0443695 -8.98238e-06 0 5.18568e-09 0 0)
(0.0443509 -1.09985e-05 7.42211e-20 5.16353e-09 -2.20707e-23 3.2772e-36)
(0.0443402 -1.35453e-05 0 5.75329e-09 0 0)
(0.0443376 -1.60211e-05 0 7.43188e-09 0 0)
(0.0443425 -1.79775e-05 -7.17481e-20 9.9535e-09 1.92361e-23 3.05428e-36)
(0.0443538 -1.92812e-05 0 1.25836e-08 0 0)
(0.0443703 -1.99651e-05 0 1.46816e-08 0 0)
(0.0443907 -2.01338e-05 -6.93102e-20 1.59188e-08 1.60748e-23 2.84347e-36)
(0.0444141 -1.99379e-05 0 1.63316e-08 0 0)
(0.0444398 -1.95439e-05 0 1.61912e-08 0 0)
(0.0444673 -1.90609e-05 6.69074e-20 1.57653e-08 -1.30848e-23 2.64424e-36)
(0.0444966 -1.85704e-05 6.61144e-20 1.52518e-08 -1.22045e-23 2.58031e-36)
(0.0445273 -1.80967e-05 0 1.47391e-08 0 0)
(0.0445595 -1.7663e-05 -6.45409e-20 1.42724e-08 1.06558e-23 2.45605e-36)
(0.0445931 -1.72614e-05 0 1.38522e-08 0 0)
(0.044628 -1.69003e-05 6.2984e-20 1.34831e-08 -9.35018e-24 2.33646e-36)
(0.0446643 -1.65666e-05 0 1.31536e-08 0 0)
(0.0447017 -1.62656e-05 6.14442e-20 1.2861e-08 -8.25191e-24 2.2214e-36)
(0.0447404 -1.59883e-05 6.06808e-20 1.26002e-08 -7.77463e-24 2.16553e-36)
(0.0447802 -1.57376e-05 0 1.23656e-08 0 0)
(0.0448211 -1.55137e-05 0 1.21629e-08 0 0)
(0.044863 -1.53117e-05 0 1.19811e-08 0 0)
(0.044906 -1.51312e-05 0 1.18215e-08 0 0)
(0.04495 -1.49628e-05 0 1.16728e-08 0 0)
(0.0449951 -1.48061e-05 0 1.15334e-08 0 0)
(0.0450412 -1.46628e-05 0 1.14053e-08 0 0)
(0.0450882 -1.45312e-05 5.47308e-20 1.12887e-08 -5.05311e-24 1.75599e-36)
(0.0451362 -1.44183e-05 -5.40069e-20 1.1189e-08 4.81007e-24 1.70923e-36)
(0.045185 -1.43156e-05 0 1.11005e-08 0 0)
(0.0452348 -1.42299e-05 0 1.10257e-08 0 0)
(0.0452854 -1.41522e-05 0 1.0959e-08 0 0)
(0.0453368 -1.40892e-05 0 1.09038e-08 0 0)
(0.0453891 -1.40333e-05 -1.00905e-19 1.0856e-08 7.75369e-24 5.95657e-36)
(0.0454423 -1.39904e-05 0 1.08189e-08 0 0)
(0.0454963 -1.39534e-05 9.81221e-20 1.07881e-08 -7.20781e-24 5.62891e-36)
(0.0455511 -1.39282e-05 -9.67432e-20 1.07671e-08 6.96535e-24 5.47011e-36)
(0.0456068 -1.39073e-05 0 1.07508e-08 0 0)
(0.0456633 -1.38967e-05 0 1.07429e-08 0 0)
(0.0457206 -1.3889e-05 0 1.07385e-08 0 0)
(0.0457788 -1.38916e-05 9.13107e-20 1.07421e-08 -6.22764e-24 4.8671e-36)
(0.0458379 -1.39021e-05 8.99731e-20 1.07559e-08 -6.09386e-24 4.72415e-36)
(0.0458977 -1.39223e-05 0 1.07776e-08 0 0)
(0.0459584 -1.39514e-05 8.73223e-20 1.08102e-08 -5.8641e-24 4.44725e-36)
(0.04602 -1.39828e-05 8.60089e-20 1.08432e-08 -5.76599e-24 4.3132e-36)
(0.0460825 -1.40186e-05 -8.47036e-20 1.08794e-08 5.67087e-24 4.18203e-36)
(0.046146 -1.40543e-05 0 1.09141e-08 0 0)
(0.0462104 -1.40941e-05 0 1.09533e-08 0 0)
(0.0462758 -1.41346e-05 -8.08348e-20 1.09934e-08 5.39867e-24 3.80529e-36)
(0.0463422 -1.41794e-05 0 1.10389e-08 0 0)
(0.0464095 -1.42252e-05 0 1.10867e-08 0 0)
(0.0464779 -1.4275e-05 0 1.11406e-08 0 0)
(0.0465472 -1.4327e-05 0 1.11991e-08 0 0)
(0.0466176 -1.43834e-05 7.45406e-20 1.12657e-08 -4.93943e-24 3.23067e-36)
(0.0466889 -1.44425e-05 7.3304e-20 1.13393e-08 -4.84507e-24 3.12335e-36)
(0.0467613 -1.45055e-05 0 1.14226e-08 0 0)