/*--------------------------------*- C++ -*----------------------------------*\
  =========                 |
  \\      /  F ield         | OpenFOAM: The Open Source CFD Toolbox
   \\    /   O peration     | Website:  https://openfoam.org
    \\  /    A nd           | Version:  7
     \\/     M anipulation  |
\*---------------------------------------------------------------------------*/
FoamFile
{
    version     2.0;
    format      ascii;
    class       volScalarField;
    location    "0.063";
    object      k_0;
}
// * * * * * * * * * * * * * * * * * * * * * * * * * * * * * * * * * * * * * //

dimensions      [0 2 -2 0 0 0 0];

internalField   nonuniform List<scalar> 
12225
(
1.93035e-05
1.80958e-05
1.67871e-05
1.52497e-05
1.41185e-05
1.24798e-05
1.15761e-05
1.01558e-05
1.01734e-05
1.12993e-05
8.75104e-06
5.65954e-06
4.72548e-06
4.65351e-06
4.82677e-06
4.9199e-06
4.57026e-06
4.80452e-06
1.99783e-05
1.98785e-05
1.96697e-05
1.9415e-05
1.91818e-05
1.85986e-05
1.82296e-05
1.82748e-05
1.91148e-05
1.99153e-05
1.91693e-05
1.71544e-05
1.58966e-05
1.51586e-05
1.47846e-05
1.4342e-05
1.41187e-05
1.36478e-05
2.00002e-05
1.92876e-05
1.91201e-05
1.9108e-05
1.90977e-05
1.90666e-05
1.90696e-05
1.91233e-05
1.93195e-05
1.93914e-05
1.93342e-05
1.90447e-05
1.85269e-05
1.81803e-05
1.78845e-05
1.76855e-05
1.75085e-05
1.73108e-05
2.02686e-05
2.0045e-05
1.9153e-05
1.51192e-05
1.48157e-05
1.58131e-05
1.76292e-05
1.87318e-05
1.92687e-05
1.94295e-05
1.94246e-05
1.92517e-05
1.85519e-05
1.76496e-05
1.69851e-05
1.65711e-05
1.6228e-05
1.60997e-05
2.09134e-05
2.09847e-05
2.20356e-05
2.28063e-05
2.25761e-05
2.25601e-05
2.31376e-05
2.5256e-05
2.64815e-05
2.6662e-05
2.6474e-05
2.53736e-05
2.23116e-05
1.96645e-05
1.77988e-05
1.66965e-05
1.58394e-05
1.51457e-05
2.04727e-05
2.17505e-05
2.47077e-05
2.62787e-05
2.60668e-05
2.58923e-05
2.62514e-05
2.83193e-05
2.99567e-05
3.01942e-05
2.995e-05
2.85161e-05
2.56181e-05
2.29416e-05
2.10606e-05
1.94278e-05
1.86406e-05
1.77206e-05
2.12397e-05
2.34618e-05
2.44125e-05
2.398e-05
2.36307e-05
2.37653e-05
2.50097e-05
2.69389e-05
2.75108e-05
2.74791e-05
2.7047e-05
2.54979e-05
2.39355e-05
2.2958e-05
2.25002e-05
2.23209e-05
2.22761e-05
2.21727e-05
2.04725e-05
2.13967e-05
2.27159e-05
2.28812e-05
2.25579e-05
2.21609e-05
2.22103e-05
2.28106e-05
2.36787e-05
2.39582e-05
2.39793e-05
2.39663e-05
2.39889e-05
2.40139e-05
2.40017e-05
2.39552e-05
2.38446e-05
2.35587e-05
2.01265e-05
2.21594e-05
2.45307e-05
2.41373e-05
2.2517e-05
2.13376e-05
2.09502e-05
2.09218e-05
2.10231e-05
2.11562e-05
2.13262e-05
2.17485e-05
2.29162e-05
2.38643e-05
2.43048e-05
2.44396e-05
2.44552e-05
2.44149e-05
2.03319e-05
2.10817e-05
2.15032e-05
2.18211e-05
2.21566e-05
2.21683e-05
2.19352e-05
2.1058e-05
2.05079e-05
2.03671e-05
2.03696e-05
2.05151e-05
2.12099e-05
2.24752e-05
2.33903e-05
2.39441e-05
2.41618e-05
2.41997e-05
2.05624e-05
2.11814e-05
2.10217e-05
2.13394e-05
2.21686e-05
2.24568e-05
2.24353e-05
2.20499e-05
2.11627e-05
2.07233e-05
2.05991e-05
2.06319e-05
2.08561e-05
2.10502e-05
2.12743e-05
2.18146e-05
2.24314e-05
2.28761e-05
2.12246e-05
2.07979e-05
2.05323e-05
2.06116e-05
2.13792e-05
2.32521e-05
2.45855e-05
2.52969e-05
2.55023e-05
2.54506e-05
2.49874e-05
2.37651e-05
2.31563e-05
2.30283e-05
2.30244e-05
2.29828e-05
2.28543e-05
2.28148e-05
2.15088e-05
2.18744e-05
2.09501e-05
2.04991e-05
2.08174e-05
2.29044e-05
2.59076e-05
2.68917e-05
2.67675e-05
2.56621e-05
2.36102e-05
2.23824e-05
2.1844e-05
2.16782e-05
2.16449e-05
2.16308e-05
2.16111e-05
2.15745e-05
2.1109e-05
2.12643e-05
2.05427e-05
2.01786e-05
2.02343e-05
2.0971e-05
2.26181e-05
2.33402e-05
2.34481e-05
2.33631e-05
2.28991e-05
2.23093e-05
2.20883e-05
2.20411e-05
2.19905e-05
2.18379e-05
2.15332e-05
2.13137e-05
2.01562e-05
2.02109e-05
2.01685e-05
2.0134e-05
2.02669e-05
2.09988e-05
2.17581e-05
2.20619e-05
2.21335e-05
2.21306e-05
2.20603e-05
2.19129e-05
2.18415e-05
2.17595e-05
2.162e-05
2.1455e-05
2.13178e-05
2.12491e-05
2.02421e-05
2.05635e-05
2.05672e-05
2.0331e-05
2.02673e-05
2.03446e-05
2.05706e-05
2.11518e-05
2.20401e-05
2.26435e-05
2.2868e-05
2.28814e-05
2.27465e-05
2.21501e-05
2.14759e-05
2.10847e-05
2.08571e-05
2.07887e-05
2.0108e-05
2.03202e-05
2.03227e-05
2.02218e-05
2.01944e-05
2.02917e-05
2.0793e-05
2.14836e-05
2.18374e-05
2.19269e-05
2.19073e-05
2.17183e-05
2.10646e-05
2.05238e-05
2.0302e-05
2.02526e-05
2.02521e-05
2.02687e-05
2.0014e-05
2.02168e-05
2.0429e-05
2.04577e-05
2.0462e-05
2.04829e-05
2.05918e-05
2.06907e-05
2.07012e-05
2.06784e-05
2.05604e-05
2.03949e-05
2.03158e-05
2.02982e-05
2.02949e-05
2.02975e-05
2.03256e-05
2.03922e-05
2.01036e-05
2.01959e-05
2.06297e-05
2.0953e-05
2.10592e-05
2.11463e-05
2.1377e-05
2.16036e-05
2.16577e-05
2.16193e-05
2.13398e-05
2.08498e-05
2.05792e-05
2.04849e-05
2.04812e-05
2.05384e-05
2.05924e-05
2.06071e-05
2.0359e-05
2.03814e-05
2.05079e-05
2.08606e-05
2.0958e-05
2.09837e-05
2.11272e-05
2.14332e-05
2.14542e-05
2.13916e-05
2.12165e-05
2.10385e-05
2.09093e-05
2.08528e-05
2.08419e-05
2.08462e-05
2.08855e-05
2.10207e-05
2.00257e-05
2.00621e-05
2.01596e-05
2.02506e-05
2.02708e-05
2.02795e-05
2.03226e-05
2.0602e-05
2.08847e-05
2.09434e-05
2.10161e-05
2.10457e-05
2.10559e-05
2.10798e-05
2.12641e-05
2.21388e-05
2.26789e-05
2.26841e-05
2.02683e-05
2.04243e-05
2.0356e-05
2.03003e-05
2.03044e-05
2.0406e-05
2.05178e-05
2.05667e-05
2.05743e-05
2.05828e-05
2.06113e-05
2.06295e-05
2.0637e-05
2.06481e-05
2.06931e-05
2.09241e-05
2.19436e-05
2.38013e-05
2.04487e-05
2.08297e-05
2.07524e-05
2.05125e-05
2.04203e-05
2.03801e-05
2.03387e-05
2.02944e-05
2.02677e-05
2.02646e-05
2.02807e-05
2.03256e-05
2.03591e-05
2.0403e-05
2.04935e-05
2.07512e-05
2.17485e-05
2.41713e-05
2.00728e-05
2.01396e-05
2.02039e-05
2.03579e-05
2.0526e-05
2.0603e-05
2.06168e-05
2.06066e-05
2.05961e-05
2.05967e-05
2.0597e-05
2.05895e-05
2.05512e-05
2.05141e-05
2.04973e-05
2.04845e-05
2.04498e-05
2.04206e-05
2.01672e-05
2.12936e-05
2.1776e-05
2.17576e-05
2.13934e-05
2.082e-05
2.05165e-05
2.03954e-05
2.0378e-05
2.04197e-05
2.06765e-05
2.08765e-05
2.08937e-05
2.08713e-05
2.08147e-05
2.06987e-05
2.05467e-05
2.04033e-05
2.086e-05
2.08692e-05
2.09205e-05
2.14636e-05
2.18997e-05
2.17652e-05
2.11866e-05
2.07525e-05
2.05692e-05
2.0523e-05
2.05276e-05
2.06507e-05
2.09349e-05
2.10792e-05
2.11182e-05
2.11141e-05
2.10572e-05
2.08536e-05
2.09492e-05
2.05128e-05
2.0325e-05
2.03209e-05
2.02785e-05
2.00697e-05
1.99024e-05
1.98492e-05
1.97221e-05
1.93356e-05
1.8828e-05
1.853e-05
1.83901e-05
1.81283e-05
1.79376e-05
1.79343e-05
1.81084e-05
1.86308e-05
2.02869e-05
1.75614e-05
1.48836e-05
1.58226e-05
1.78364e-05
2.06151e-05
2.59053e-05
3.47083e-05
4.14133e-05
4.46954e-05
4.70301e-05
5.13101e-05
6.00588e-05
7.11913e-05
8.26212e-05
9.11379e-05
9.77986e-05
0.000100451
3.20604e-05
9.64867e-05
0.000167582
0.000237556
0.000278282
0.000326939
0.000408624
0.000501632
0.000569681
0.000598399
0.000603204
0.000604953
0.000611342
0.000630983
0.000654971
0.000673784
0.000687823
0.000693164
0.00265294
0.00256543
0.00245196
0.00237716
0.0022648
0.00220958
0.00219787
0.00219612
0.0021873
0.00213803
0.00197811
0.00181574
0.00169542
0.00160434
0.00153827
0.00149415
0.00146983
0.00145737
0.000358022
0.000876411
0.00117702
0.00146957
0.00186877
0.00216086
0.00287071
0.00349409
0.00348823
0.0032522
0.00266728
0.00230309
0.00200836
0.00178916
0.0016278
0.0014814
0.00138265
0.00126653
0.00119536
0.00110355
0.00104607
0.000979243
0.000907285
0.000887283
0.000891322
0.000902909
0.000934202
0.000930859
0.000900218
0.000825179
0.000697816
0.000713123
0.00098059
0.00188993
0.00249371
0.0028743
0.00322992
0.00372042
0.0044423
0.00574363
0.00895739
0.0169665
0.0226325
0.0213255
0.017469
0.0179905
0.0245928
0.048045
0.0470743
0.0139376
0.00225563
0.000965856
0.000766492
0.000778955
0.000782756
0.00078301
0.000719452
0.000649013
0.000541367
0.000460653
0.000371544
0.000289412
0.000241824
0.000182178
0.000156455
0.000127697
0.000108976
9.99753e-05
9.6567e-05
9.81955e-05
9.90473e-05
9.98681e-05
0.000100194
0.00010031
0.000100079
9.91826e-05
9.83733e-05
9.73224e-05
9.6399e-05
9.60285e-05
9.55603e-05
9.46609e-05
9.41787e-05
9.40203e-05
9.38168e-05
9.31538e-05
9.21938e-05
9.1432e-05
9.08983e-05
9.02611e-05
8.92441e-05
8.78034e-05
8.59697e-05
8.36145e-05
8.07581e-05
7.77919e-05
7.47871e-05
7.12997e-05
6.72437e-05
6.32688e-05
5.97347e-05
5.60354e-05
5.29645e-05
4.99441e-05
4.70531e-05
4.42832e-05
4.16134e-05
3.89908e-05
3.64348e-05
3.39313e-05
3.14607e-05
2.90031e-05
2.65523e-05
2.41043e-05
2.16652e-05
1.91489e-05
1.65885e-05
1.41068e-05
1.18287e-05
9.83523e-06
8.12613e-06
6.65568e-06
5.40285e-06
4.34039e-06
3.46185e-06
2.75061e-06
2.18093e-06
1.72794e-06
1.3697e-06
1.088e-06
8.67747e-07
6.9632e-07
5.63148e-07
4.59471e-07
3.78188e-07
3.1371e-07
2.61779e-07
2.19256e-07
1.83897e-07
1.54128e-07
1.28854e-07
1.07304e-07
8.89099e-08
7.32384e-08
5.99357e-08
4.87029e-08
3.92789e-08
3.14312e-08
2.49483e-08
1.96381e-08
1.53256e-08
1.18543e-08
9.08514e-09
6.89649e-09
5.1832e-09
3.85533e-09
2.83675e-09
2.0638e-09
1.48393e-09
1.0543e-09
7.39978e-10
5.12939e-10
3.51028e-10
2.37096e-10
1.57982e-10
1.03828e-10
6.72555e-11
4.29451e-11
2.69894e-11
1.67195e-11
1.01541e-11
6.11143e-12
3.53112e-12
2.11323e-12
1.11506e-12
5.85635e-13
4.31542e-12
1.92804e-09
6.68581e-07
7.72773e-07
0.000318588
0.000870874
0.00155064
0.00297308
0.00372947
0.0036546
0.0036394
0.0037004
0.00365345
0.00342702
0.00300979
0.00261152
0.00233769
0.00215022
0.00200575
0.00189552
0.00180715
0.00175015
0.00169386
0.0016478
0.0016037
0.00154348
0.00148464
0.00141271
0.00133836
0.00123692
0.00117146
0.00110603
0.00104287
0.000983879
0.000855398
0.000821231
0.000849196
0.000945533
0.00114699
0.00129105
0.00130515
0.00128649
0.00120688
0.00121762
0.00148274
0.00205051
0.00254749
0.00313937
0.00534432
0.0181544
0.0268745
0.0206614
0.0101389
0.00283108
0.000970556
0.000594226
0.000476661
0.000427402
0.000376775
0.000333705
0.00029778
0.000270206
0.000251284
0.000239766
0.000233854
0.000231339
0.000230764
0.000231451
0.000233084
0.000234783
0.000235686
0.000236852
0.000237411
0.000237725
0.000237847
0.000237723
0.000237429
0.000237373
0.000237159
0.000236439
0.000235684
0.00023506
0.000234352
0.000233501
0.000232493
0.000231364
0.000230287
0.000229308
0.000228213
0.000226886
0.000225346
0.000223682
0.000221815
0.000219757
0.000217469
0.00021474
0.000211403
0.000207901
0.000203854
0.000199523
0.000194751
0.000189284
0.000182796
0.0001755
0.000167412
0.000157874
0.000148115
0.000138128
0.000128689
0.000120263
0.00011268
0.000105248
9.80515e-05
9.11983e-05
8.48729e-05
7.90217e-05
7.35308e-05
6.84021e-05
6.36264e-05
5.91899e-05
5.49239e-05
5.06587e-05
4.63226e-05
4.19403e-05
3.76155e-05
3.34542e-05
2.94943e-05
2.57641e-05
2.22691e-05
1.90337e-05
1.61005e-05
1.35026e-05
1.12506e-05
9.3351e-06
7.73266e-06
6.4116e-06
5.33595e-06
4.46834e-06
3.77247e-06
3.21449e-06
2.7638e-06
2.39388e-06
2.0832e-06
1.81571e-06
1.58056e-06
1.37105e-06
1.18329e-06
1.01501e-06
8.64741e-07
7.31306e-07
6.1363e-07
5.10663e-07
4.21349e-07
3.44604e-07
2.79301e-07
2.24284e-07
1.78398e-07
1.40513e-07
1.09551e-07
8.45113e-08
6.44827e-08
4.86379e-08
3.62407e-08
2.6665e-08
1.93694e-08
1.38874e-08
9.82427e-09
6.85543e-09
4.71642e-09
3.19854e-09
2.13669e-09
1.40622e-09
9.10392e-10
5.80739e-10
3.6303e-10
2.2469e-10
1.34207e-10
8.10063e-11
4.69319e-11
2.41954e-11
1.52134e-11
4.51586e-10
1.16195e-07
1.4032e-07
0.000338723
0.000838344
0.00220005
0.0061159
0.00624103
0.00483685
0.00382877
0.00315801
0.00266281
0.00247746
0.00244644
0.00245125
0.00245626
0.00247414
0.00248611
0.00247879
0.00245722
0.00244712
0.00244184
0.00242859
0.00239927
0.00233529
0.00228697
0.00218983
0.00211531
0.00201696
0.00185626
0.00170972
0.00155087
0.00136762
0.00116618
0.00101831
0.00092147
0.000916509
0.000935294
0.000968002
0.00100342
0.000994835
0.000958654
0.00103995
0.00152946
0.00194473
0.00395257
0.0106042
0.012854
0.015045
0.00914016
0.00351505
0.00145292
0.000593722
0.000378883
0.000317443
0.000292567
0.00027993
0.000269514
0.00026298
0.000259133
0.000256146
0.000254136
0.00025274
0.000252116
0.000251657
0.000251091
0.000250923
0.000250817
0.000250796
0.000251209
0.000252327
0.000253775
0.000255477
0.000257477
0.00025965
0.000261594
0.000263156
0.000264349
0.000265528
0.000266201
0.000266407
0.000266416
0.000265939
0.000264586
0.000262719
0.000260661
0.000258347
0.000255906
0.000253559
0.000251198
0.000248718
0.000245955
0.000242941
0.000239893
0.000237017
0.000234238
0.000231482
0.000228649
0.000225914
0.000223029
0.000220061
0.000216823
0.000213387
0.000209847
0.000205471
0.000199706
0.000192359
0.000183053
0.000172375
0.000162193
0.000152601
0.000143329
0.000134151
0.000124408
0.000114046
0.000103366
9.30228e-05
8.3873e-05
7.64546e-05
7.02598e-05
6.5052e-05
6.06952e-05
5.70865e-05
5.40159e-05
5.11714e-05
4.83914e-05
4.55006e-05
4.22981e-05
3.86632e-05
3.46412e-05
3.04321e-05
2.62913e-05
2.23974e-05
1.88109e-05
1.55671e-05
1.27071e-05
1.02657e-05
8.25315e-06
6.64636e-06
5.39531e-06
4.43623e-06
3.70447e-06
3.14286e-06
2.70516e-06
2.35616e-06
2.07014e-06
1.82893e-06
1.62003e-06
1.43494e-06
1.26801e-06
1.11569e-06
9.75835e-07
8.47335e-07
7.29789e-07
6.22941e-07
5.2657e-07
4.40575e-07
3.64742e-07
2.98694e-07
2.41869e-07
1.93583e-07
1.53072e-07
1.19524e-07
9.21046e-08
7.00092e-08
5.24586e-08
3.87329e-08
2.81623e-08
2.01588e-08
1.41937e-08
9.83276e-09
6.69175e-09
4.47829e-09
2.93839e-09
1.89079e-09
1.19933e-09
7.25592e-10
4.65869e-10
2.32599e-10
1.88551e-10
1.34364e-10
3.91366e-09
1.0507e-08
0.00386201
0.00238614
0.00792952
0.00870107
0.00724607
0.00452409
0.00287945
0.00224857
0.00216804
0.00222229
0.00233883
0.00251523
0.00271412
0.00292549
0.00311511
0.0032445
0.0032879
0.00333075
0.0033994
0.00340914
0.00339926
0.00337281
0.00331059
0.00322463
0.00307939
0.00293295
0.00276282
0.00253402
0.00237751
0.00216161
0.00188538
0.00155432
0.00124043
0.00103872
0.000967892
0.000938904
0.000873034
0.000844379
0.000935232
0.00162216
0.0048535
0.0084324
0.00951207
0.010192
0.00817258
0.00405468
0.00178995
0.000767963
0.000419595
0.000314811
0.000294571
0.00029179
0.000295776
0.000301649
0.000314051
0.000319394
0.000322041
0.00032273
0.000320384
0.000312315
0.000306924
0.000296481
0.000289115
0.000286297
0.000284726
0.000283972
0.000283732
0.000283877
0.000285559
0.000288415
0.0002906
0.000292986
0.000293915
0.000294299
0.000294423
0.000294373
0.000293709
0.000292351
0.000290541
0.000288323
0.000285573
0.000282194
0.000278267
0.000273992
0.000269488
0.000264896
0.0002602
0.000255521
0.000251018
0.000246314
0.000241418
0.000236809
0.000232527
0.000228764
0.000225501
0.000222567
0.00021973
0.000217278
0.000215064
0.000212944
0.000211068
0.000209439
0.000207591
0.000204373
0.000200293
0.000193738
0.00018328
0.000172467
0.000162215
0.000152841
0.000144592
0.000137185
0.000129856
0.000121642
0.000111776
0.000100446
8.98705e-05
8.17274e-05
7.57091e-05
7.10174e-05
6.72744e-05
6.41978e-05
6.15823e-05
5.93942e-05
5.74245e-05
5.53417e-05
5.28159e-05
4.96795e-05
4.59112e-05
4.15604e-05
3.6685e-05
3.13501e-05
2.57753e-05
2.03868e-05
1.56464e-05
1.18186e-05
8.91203e-06
6.77465e-06
5.21795e-06
4.08254e-06
3.25092e-06
2.63924e-06
2.18658e-06
1.84755e-06
1.58799e-06
1.38367e-06
1.21794e-06
1.0793e-06
9.5989e-07
8.5418e-07
7.58313e-07
6.69965e-07
5.87908e-07
5.11503e-07
4.40622e-07
3.75421e-07
3.16182e-07
2.6313e-07
2.16328e-07
1.75658e-07
1.40831e-07
1.11436e-07
8.69852e-08
6.69652e-08
5.08245e-08
3.80127e-08
2.79987e-08
2.02953e-08
1.44677e-08
1.01339e-08
6.97788e-09
4.70996e-09
3.13215e-09
2.02389e-09
1.30717e-09
7.87588e-10
5.18346e-10
2.50567e-10
3.01586e-10
6.34131e-10
0.00569812
0.0128131
0.0134013
0.00983522
0.00423966
0.00231602
0.00193803
0.00196386
0.00208346
0.0023944
0.00272764
0.00314427
0.00346591
0.00369782
0.00387628
0.00398108
0.00410476
0.00418589
0.00418693
0.00416583
0.00409652
0.00399934
0.00384683
0.00370727
0.00354581
0.00337521
0.0032206
0.00295316
0.00272753
0.00261181
0.00241521
0.00211666
0.00174398
0.00133041
0.00113254
0.000976903
0.000885567
0.000957084
0.00217849
0.00681808
0.0081043
0.00835021
0.00799638
0.00529348
0.00227216
0.00103758
0.000531935
0.000351638
0.000304394
0.000297535
0.000306439
0.000325064
0.000344275
0.000353438
0.000356166
0.000356165
0.000349733
0.000337805
0.000328549
0.000318557
0.000308074
0.000296905
0.000291545
0.000289742
0.000289151
0.000289096
0.000290096
0.000293225
0.000297421
0.000301033
0.000305094
0.000307505
0.000308477
0.000308852
0.000308904
0.000308137
0.000306193
0.000303709
0.000300828
0.000297772
0.00029454
0.000290878
0.000286737
0.000282317
0.000277661
0.000272915
0.000267734
0.000262253
0.000257157
0.00025167
0.000245683
0.000239951
0.000234415
0.000229553
0.000225575
0.000222395
0.000218905
0.000215791
0.000212462
0.000208179
0.000204258
0.00020103
0.00019887
0.000199493
0.00020099
0.000200277
0.000196685
0.000187024
0.000172755
0.00015979
0.000148929
0.000140254
0.000133485
0.000128022
0.00012246
0.00011621
0.000108055
9.76434e-05
8.7044e-05
7.86448e-05
7.27702e-05
6.859e-05
6.54476e-05
6.2947e-05
6.09515e-05
5.9426e-05
5.81677e-05
5.67337e-05
5.47586e-05
5.2294e-05
4.96654e-05
4.69831e-05
4.39502e-05
4.0129e-05
3.53694e-05
2.99877e-05
2.45195e-05
1.94228e-05
1.49723e-05
1.12789e-05
8.35091e-06
6.14398e-06
4.55742e-06
3.43652e-06
2.63417e-06
2.05078e-06
1.62406e-06
1.31146e-06
1.08124e-06
9.09111e-07
7.76935e-07
6.71644e-07
5.84424e-07
5.09443e-07
4.42583e-07
3.81149e-07
3.24621e-07
2.73243e-07
2.27204e-07
1.86597e-07
1.51366e-07
1.21295e-07
9.60186e-08
7.50547e-08
5.78961e-08
4.40507e-08
3.30422e-08
2.44212e-08
1.77778e-08
1.27367e-08
8.97787e-09
6.2167e-09
4.2366e-09
2.82564e-09
1.86123e-09
1.18874e-09
7.58099e-10
4.60235e-10
2.8881e-10
1.984e-10
0.00385775
0.0133025
0.00767053
0.00286439
0.00169669
0.00169943
0.00185653
0.00218601
0.00266689
0.00313197
0.00349541
0.00381462
0.00410379
0.00434038
0.00459696
0.00482268
0.00503196
0.00518312
0.00534681
0.00546803
0.00545356
0.00538022
0.00520162
0.00488957
0.00451286
0.00408958
0.00381145
0.00344021
0.00305623
0.00280054
0.00260594
0.00234838
0.00199434
0.00170061
0.00131557
0.00100534
0.00105067
0.0028742
0.00680311
0.00753771
0.00741801
0.00599363
0.00332809
0.00160976
0.000748353
0.00043361
0.000334177
0.000311293
0.000309459
0.000330097
0.000358641
0.000374275
0.000379962
0.000381451
0.000380689
0.00037398
0.000362184
0.00034973
0.000338574
0.000327035
0.000314667
0.000308182
0.0003067
0.000306936
0.000309769
0.000315384
0.000322594
0.000330051
0.000337108
0.000343029
0.000346691
0.000348937
0.000350416
0.000350907
0.000350294
0.00034679
0.000342735
0.00033812
0.000331313
0.000324716
0.000319128
0.000314354
0.000309996
0.000306052
0.000302009
0.000298098
0.0002934
0.000287932
0.00028271
0.000276036
0.000268389
0.000260368
0.000251351
0.0002421
0.000233957
0.000228104
0.000224652
0.000223486
0.000223261
0.00022337
0.000219285
0.000209972
0.000197418
0.000189974
0.000187091
0.000191163
0.000199053
0.000201271
0.000198672
0.000182997
0.000160661
0.000143341
0.000131745
0.000124501
0.000120599
0.000117273
0.000112752
0.000107181
0.000100103
9.11815e-05
8.20419e-05
7.47767e-05
6.95309e-05
6.56804e-05
6.27305e-05
6.04678e-05
5.88562e-05
5.77825e-05
5.68664e-05
5.55245e-05
5.34096e-05
5.07791e-05
4.82327e-05
4.60641e-05
4.39839e-05
4.13161e-05
3.75774e-05
3.28333e-05
2.75618e-05
2.23288e-05
1.75671e-05
1.35141e-05
1.02349e-05
7.67005e-06
5.6935e-06
4.18008e-06
3.03912e-06
2.1995e-06
1.5972e-06
1.17502e-06
8.84311e-07
6.85809e-07
5.49217e-07
4.5262e-07
3.81621e-07
3.27493e-07
2.83636e-07
2.45337e-07
2.09896e-07
1.76931e-07
1.46833e-07
1.19922e-07
9.63883e-08
7.62634e-08
5.94176e-08
4.55907e-08
3.44547e-08
2.56417e-08
1.87921e-08
1.3554e-08
9.62467e-09
6.71701e-09
4.61342e-09
3.108e-09
2.06035e-09
1.33738e-09
8.52099e-10
5.34945e-10
3.2337e-10
1.95188e-10
0.0066979
0.00553672
0.00221314
0.0013023
0.00140928
0.00185274
0.00244067
0.00277644
0.00313987
0.00348523
0.00383319
0.00411639
0.00441379
0.00470341
0.00498161
0.00535689
0.00569763
0.00618328
0.00657766
0.00716708
0.00744797
0.0074186
0.00727501
0.00695212
0.0064273
0.00565072
0.00492739
0.00437566
0.00382455
0.00320394
0.00290723
0.00263017
0.00222841
0.00176094
0.0012445
0.00112076
0.00260701
0.00627072
0.00694769
0.00673657
0.00454095
0.00227981
0.00117053
0.000625791
0.000400302
0.000333907
0.000321857
0.000323889
0.000354229
0.000379412
0.000390448
0.00039532
0.000396941
0.000397135
0.000394765
0.000387322
0.000376449
0.000365467
0.000356297
0.000346365
0.000339299
0.000338004
0.000340516
0.000347539
0.000357653
0.000369482
0.00038086
0.000390953
0.000402037
0.000413609
0.00042286
0.000430197
0.000434638
0.000437151
0.000438058
0.000436359
0.000428839
0.00041966
0.000405236
0.000391407
0.000378871
0.000368908
0.000359207
0.000350313
0.000342039
0.000334525
0.000325825
0.000316321
0.00030662
0.000296005
0.000286419
0.00027659
0.000265765
0.000254
0.000241017
0.000229337
0.000220399
0.000214044
0.00021461
0.000223528
0.000232949
0.000237636
0.000234526
0.000214089
0.0001884
0.000176992
0.000176807
0.000191462
0.000205825
0.000208711
0.000202228
0.000173815
0.000142064
0.000123252
0.000113307
0.000109019
0.000108112
0.000106556
0.000102548
9.73091e-05
9.07917e-05
8.30568e-05
7.56681e-05
6.99e-05
6.55597e-05
6.22193e-05
5.96425e-05
5.78175e-05
5.67239e-05
5.60805e-05
5.52935e-05
5.3742e-05
5.12164e-05
4.82315e-05
4.55921e-05
4.36759e-05
4.2174e-05
4.03355e-05
3.75196e-05
3.35879e-05
2.88793e-05
2.39293e-05
1.92141e-05
1.50393e-05
1.15336e-05
8.68544e-06
6.4086e-06
4.61942e-06
3.25433e-06
2.24942e-06
1.53603e-06
1.04688e-06
7.2191e-07
5.11481e-07
3.7709e-07
2.90478e-07
2.32743e-07
1.92478e-07
1.63224e-07
1.4007e-07
1.19671e-07
1.00728e-07
8.33134e-08
6.76531e-08
5.39238e-08
4.21939e-08
3.24204e-08
2.44675e-08
1.81416e-08
1.32156e-08
9.45973e-09
6.65195e-09
4.59511e-09
3.11642e-09
2.07488e-09
1.35563e-09
8.68448e-10
5.46228e-10
3.36023e-10
2.02688e-10
0.0023576
0.0017516
0.000940074
0.00109087
0.00178088
0.0023963
0.00262118
0.0029303
0.00331978
0.00369324
0.00403084
0.00427961
0.00459969
0.00493391
0.00540237
0.00605279
0.00696915
0.00815894
0.00948055
0.0106176
0.0108978
0.0107313
0.0102206
0.00938741
0.00837046
0.00700757
0.00573117
0.00484694
0.00404575
0.00347604
0.00309085
0.00265166
0.00220495
0.00161848
0.00121927
0.00212862
0.00557001
0.00635112
0.00617972
0.00384133
0.0018634
0.000947076
0.000548149
0.000389391
0.000339331
0.000330842
0.000337766
0.000366734
0.00038409
0.000398116
0.000406608
0.00040984
0.000410985
0.000411081
0.00041019
0.000405913
0.000399605
0.000395194
0.000393668
0.000395014
0.000400713
0.000412406
0.000429501
0.000452784
0.000482059
0.000513974
0.000543173
0.000567197
0.000590271
0.000615846
0.000632431
0.00063911
0.000639541
0.000628355
0.000622886
0.000603867
0.000574416
0.00055053
0.000512856
0.000482997
0.00045442
0.000432589
0.000412053
0.000393016
0.000376765
0.00036344
0.000351796
0.000343663
0.000337094
0.000334139
0.00033134
0.000326953
0.000319811
0.00030751
0.000287949
0.000261711
0.000234801
0.000210815
0.000192917
0.000183972
0.000192958
0.000222559
0.000245207
0.00025033
0.000239661
0.000200687
0.000171082
0.00016587
0.000177344
0.000205761
0.000214615
0.000212204
0.000191464
0.000146705
0.000117795
0.000104113
9.80285e-05
9.6665e-05
9.69198e-05
9.62914e-05
9.2953e-05
8.78642e-05
8.19371e-05
7.53115e-05
6.94346e-05
6.48479e-05
6.12793e-05
5.85176e-05
5.65468e-05
5.53578e-05
5.4745e-05
5.42778e-05
5.34495e-05
5.15671e-05
4.85299e-05
4.52956e-05
4.26718e-05
4.09643e-05
3.98596e-05
3.86292e-05
3.65695e-05
3.33896e-05
2.92743e-05
2.46838e-05
2.01057e-05
1.59007e-05
1.22484e-05
9.188e-06
6.69148e-06
4.72259e-06
3.23312e-06
2.15389e-06
1.40379e-06
9.02599e-07
5.79803e-07
3.78629e-07
2.56436e-07
1.83013e-07
1.38091e-07
1.094e-07
9.02221e-08
7.64266e-08
6.50158e-08
5.45608e-08
4.49078e-08
3.61893e-08
2.85388e-08
2.2026e-08
1.66439e-08
1.23191e-08
8.93505e-09
6.35212e-09
4.42757e-09
3.02632e-09
2.02831e-09
1.33294e-09
8.58526e-10
5.42244e-10
3.35237e-10
2.03463e-10
0.00142361
0.00118858
0.000781349
0.00136853
0.00216842
0.00245629
0.0026496
0.00305557
0.00354347
0.00388132
0.00414952
0.0043802
0.00475799
0.00540797
0.00633428
0.00824279
0.0105178
0.0137228
0.0162063
0.0179068
0.0181124
0.0177012
0.016594
0.0144001
0.0120798
0.00948174
0.00737734
0.00599458
0.00461076
0.0036278
0.00306393
0.0025818
0.00198949
0.0014021
0.00174397
0.00479362
0.00574968
0.00575754
0.00352271
0.00166768
0.000860335
0.000513511
0.000382808
0.000342234
0.0003347
0.000339004
0.000366807
0.000380245
0.000391404
0.00040466
0.000415909
0.00042284
0.000428729
0.000433844
0.000436477
0.000441897
0.000447289
0.00045824
0.000479369
0.000514551
0.000563502
0.00062284
0.000692859
0.000771175
0.000859111
0.000961487
0.00106456
0.001126
0.00115893
0.00117216
0.0011611
0.00115498
0.00108064
0.000982208
0.000934395
0.000860539
0.000761303
0.000706751
0.000624749
0.000568259
0.000518506
0.000480935
0.00044888
0.000427471
0.000413879
0.000407608
0.000408462
0.000416082
0.000420705
0.000420205
0.000415689
0.000409045
0.000403808
0.00039972
0.000394982
0.000383468
0.00035329
0.000300117
0.000232791
0.000184256
0.000160657
0.000156075
0.00018305
0.000235329
0.000253881
0.000248362
0.000213712
0.000169585
0.000159394
0.000166604
0.00019975
0.000214188
0.000212729
0.000196269
0.000149437
0.000113778
9.72686e-05
8.98906e-05
8.69414e-05
8.67648e-05
8.70544e-05
8.66545e-05
8.42601e-05
7.96285e-05
7.41178e-05
6.83946e-05
6.35715e-05
5.97787e-05
5.6905e-05
5.49138e-05
5.37459e-05
5.31654e-05
5.28157e-05
5.2296e-05
5.1161e-05
4.85557e-05
4.51934e-05
4.20474e-05
3.97197e-05
3.83503e-05
3.76042e-05
3.6816e-05
3.53035e-05
3.26873e-05
2.90067e-05
2.46218e-05
2.00775e-05
1.5818e-05
1.2061e-05
8.88998e-06
6.32287e-06
4.3396e-06
2.87924e-06
1.85212e-06
1.16003e-06
7.12033e-07
4.32769e-07
2.6467e-07
1.66535e-07
1.10441e-07
7.83184e-08
5.92879e-08
4.74752e-08
3.96456e-08
3.35456e-08
2.80423e-08
2.29472e-08
1.83293e-08
1.42791e-08
1.0851e-08
8.04827e-09
5.83039e-09
4.12796e-09
2.85807e-09
1.93595e-09
1.28352e-09
8.33022e-10
5.29603e-10
3.29582e-10
2.01361e-10
0.00132001
0.00104156
0.00076264
0.00176863
0.0022271
0.00239026
0.0026819
0.00331613
0.00375728
0.00401686
0.00419895
0.00446329
0.00510409
0.00637485
0.00864515
0.0122793
0.0164195
0.0199328
0.0224778
0.0237711
0.0241993
0.0238893
0.0229074
0.0206265
0.0174252
0.013208
0.00919211
0.00629754
0.0045511
0.00352605
0.00291901
0.00224652
0.00167965
0.00166293
0.00391712
0.00518977
0.00536143
0.00363625
0.00160346
0.000824916
0.000505609
0.000384022
0.000346841
0.000340043
0.000343664
0.000368225
0.000384737
0.000396008
0.000405624
0.000418943
0.000433485
0.000447348
0.000458178
0.00047137
0.000487984
0.000513857
0.000550278
0.000604244
0.000684703
0.000799435
0.00095236
0.00114423
0.00137474
0.00161209
0.00183055
0.00209107
0.00234521
0.00249279
0.00254928
0.00252353
0.00236367
0.00228798
0.00203173
0.0017353
0.00155351
0.00133119
0.00111257
0.000969744
0.000827736
0.000722352
0.000640357
0.000573735
0.000519127
0.000492923
0.000485134
0.000485911
0.000490249
0.000478403
0.00046104
0.000445301
0.00043133
0.000417137
0.000407173
0.000404598
0.000408654
0.000417356
0.000420959
0.000410298
0.000373011
0.000287823
0.000195755
0.000149542
0.00013868
0.000150449
0.000211178
0.000246126
0.000243605
0.000214542
0.000168343
0.000154068
0.000158461
0.000189237
0.000205923
0.000205091
0.00018848
0.000144085
0.000108491
9.14607e-05
8.36311e-05
7.98036e-05
7.86887e-05
7.87844e-05
7.90684e-05
7.88696e-05
7.71584e-05
7.24368e-05
6.69958e-05
6.19482e-05
5.78799e-05
5.48829e-05
5.29272e-05
5.18712e-05
5.13916e-05
5.11315e-05
5.07679e-05
4.99759e-05
4.7921e-05
4.46639e-05
4.14652e-05
3.88682e-05
3.70405e-05
3.59219e-05
3.52957e-05
3.47727e-05
3.38115e-05
3.16168e-05
2.79627e-05
2.35082e-05
1.88941e-05
1.46064e-05
1.08701e-05
7.78207e-06
5.36041e-06
3.55824e-06
2.28162e-06
1.41724e-06
8.5575e-07
5.04756e-07
2.93172e-07
1.69989e-07
1.00587e-07
6.25395e-08
4.1894e-08
3.04279e-08
2.37824e-08
1.96652e-08
1.65801e-08
1.3802e-08
1.12102e-08
8.85324e-09
6.79341e-09
5.06743e-09
3.67801e-09
2.60029e-09
1.79236e-09
1.2057e-09
7.91966e-10
5.0858e-10
3.19038e-10
1.96474e-10
0.00120637
0.00097004
0.00084304
0.00190778
0.00220849
0.00234891
0.00280829
0.00349368
0.00383859
0.0040606
0.00419628
0.00452979
0.00535797
0.00705226
0.0101179
0.0144783
0.0189611
0.0221569
0.0245107
0.0255813
0.025343
0.0242645
0.0228004
0.0204402
0.0171371
0.012768
0.00872285
0.00587947
0.00421196
0.00321354
0.00238913
0.00190095
0.00181191
0.00315988
0.00465358
0.00493705
0.00389898
0.00168616
0.000827346
0.000507936
0.000388641
0.000350556
0.000343077
0.000344232
0.000362451
0.000383146
0.000394043
0.000406751
0.000418733
0.000435555
0.000455119
0.000478588
0.00050345
0.000537406
0.000586526
0.000665037
0.00080387
0.000960955
0.00118532
0.00148345
0.00178354
0.00222779
0.00274011
0.00330165
0.00387506
0.0044715
0.00502081
0.00536233
0.00549299
0.00539055
0.00502825
0.00463032
0.00397516
0.00337826
0.00289669
0.00230774
0.00192095
0.00155574
0.00128973
0.0010754
0.000904709
0.000769523
0.000669093
0.000609828
0.00058013
0.00055927
0.000522232
0.000489173
0.000460052
0.000424476
0.000389776
0.000358225
0.000326331
0.00029825
0.000292335
0.000318796
0.000371895
0.000405426
0.000403617
0.000367516
0.000299218
0.000208338
0.000144935
0.000129951
0.000136171
0.000187887
0.000228581
0.000228762
0.000202699
0.000161048
0.000143723
0.00014518
0.000170258
0.000187642
0.000188073
0.00017268
0.00013351
0.000101798
8.60596e-05
7.86131e-05
7.46981e-05
7.29961e-05
7.2696e-05
7.27761e-05
7.28621e-05
7.25373e-05
7.04921e-05
6.53112e-05
6.01e-05
5.58508e-05
5.27456e-05
5.07697e-05
4.97512e-05
4.93422e-05
4.91578e-05
4.892e-05
4.83916e-05
4.69297e-05
4.37683e-05
4.05195e-05
3.77886e-05
3.57896e-05
3.45039e-05
3.37643e-05
3.33219e-05
3.28493e-05
3.19269e-05
2.97764e-05
2.58332e-05
2.11604e-05
1.65347e-05
1.23845e-05
8.89973e-06
6.14106e-06
4.07652e-06
2.60971e-06
1.61524e-06
9.68869e-07
5.6469e-07
3.20962e-07
1.79026e-07
9.91482e-08
5.56842e-08
3.27566e-08
2.0882e-08
1.46494e-08
1.12595e-08
9.27582e-09
7.81396e-09
6.4774e-09
5.21307e-09
4.06019e-09
3.05995e-09
2.23416e-09