/*--------------------------------*- C++ -*----------------------------------*\
  =========                 |
  \\      /  F ield         | OpenFOAM: The Open Source CFD Toolbox
   \\    /   O peration     | Website:  https://openfoam.org
    \\  /    A nd           | Version:  7
     \\/     M anipulation  |
\*---------------------------------------------------------------------------*/
FoamFile
{
    version     2.0;
    format      ascii;
    class       surfaceScalarField;
    location    "0.063";
    object      phi;
}
// * * * * * * * * * * * * * * * * * * * * * * * * * * * * * * * * * * * * * //

dimensions      [0 3 -1 0 0 0 0];

internalField   nonuniform List<scalar> 
24170
(
1.4002e-06
2.17283e-07
1.25667e-06
1.43535e-07
1.12015e-06
1.36521e-07
9.94404e-07
1.25744e-07
8.81035e-07
1.13369e-07
7.81289e-07
9.97464e-08
6.91893e-07
8.93954e-08
6.10329e-07
8.15641e-08
5.36139e-07
7.41907e-08
4.69359e-07
6.67796e-08
4.10826e-07
5.8533e-08
3.61438e-07
4.93879e-08
3.21388e-07
4.00501e-08
2.90187e-07
3.12013e-08
2.66388e-07
2.37991e-08
2.49343e-07
1.70445e-08
2.33711e-07
1.56321e-08
6.90274e-09
2.26808e-07
1.65046e-06
2.19332e-07
1.63819e-06
1.5581e-07
1.61878e-06
1.55929e-07
1.59461e-06
1.49908e-07
1.55616e-06
1.51823e-07
1.5059e-06
1.50002e-07
1.45291e-06
1.42394e-07
1.40274e-06
1.31726e-07
1.35683e-06
1.20105e-07
1.31449e-06
1.09122e-07
1.27479e-06
9.82347e-08
1.23685e-06
8.7327e-08
1.19983e-06
7.70655e-08
1.16355e-06
6.74869e-08
1.12806e-06
5.92873e-08
1.09434e-06
5.07645e-08
1.06318e-06
4.67875e-08
4.02162e-08
1.02987e-06
1.77381e-06
2.8032e-07
1.76635e-06
1.63268e-07
1.75829e-06
1.63991e-07
1.75068e-06
1.57513e-07
1.74596e-06
1.56543e-07
1.7413e-06
1.54671e-07
1.73457e-06
1.4912e-07
1.72424e-06
1.42054e-07
1.71035e-06
1.33994e-07
1.69495e-06
1.24524e-07
1.68005e-06
1.13133e-07
1.66694e-06
1.00435e-07
1.6552e-06
8.88097e-08
1.64369e-06
7.90012e-08
1.63105e-06
7.19213e-08
1.61657e-06
6.52477e-08
1.60145e-06
6.19072e-08
5.87136e-08
1.58295e-06
1.9353e-06
3.56876e-07
1.91145e-06
1.87119e-07
1.89918e-06
1.76259e-07
1.88045e-06
1.76246e-07
1.86487e-06
1.72123e-07
1.85553e-06
1.64012e-07
1.85054e-06
1.54102e-07
1.8479e-06
1.44701e-07
1.84693e-06
1.3496e-07
1.84783e-06
1.23628e-07
1.85022e-06
1.10737e-07
1.85346e-06
9.71969e-08
1.85678e-06
8.54955e-08
1.85931e-06
7.64661e-08
1.8605e-06
7.07316e-08
1.85938e-06
6.6372e-08
1.85697e-06
6.4312e-08
6.30915e-08
1.85259e-06
2.04039e-06
3.56736e-07
2.03538e-06
1.92134e-07
2.03581e-06
1.75821e-07
2.02233e-06
1.89727e-07
2.0069e-06
1.87552e-07
1.9996e-06
1.71319e-07
2.00059e-06
1.53105e-07
2.00611e-06
1.39182e-07
2.01301e-06
1.28063e-07
2.0195e-06
1.1714e-07
2.02438e-06
1.05857e-07
2.02694e-06
9.46321e-08
2.02752e-06
8.4916e-08
2.02664e-06
7.73523e-08
2.0252e-06
7.21702e-08
2.02313e-06
6.844e-08
2.02129e-06
6.61565e-08
6.49033e-08
2.01947e-06
2.23997e-06
3.30365e-07
2.21755e-06
2.14555e-07
2.20223e-06
1.91144e-07
2.18665e-06
2.05307e-07
2.18013e-06
1.94075e-07
2.18546e-06
1.6598e-07
2.1947e-06
1.43873e-07
2.19964e-06
1.34238e-07
2.19848e-06
1.29222e-07
2.1944e-06
1.21222e-07
2.19106e-06
1.09194e-07
2.18969e-06
9.6006e-08
2.18956e-06
8.50491e-08
2.18892e-06
7.79878e-08
2.18676e-06
7.43273e-08
2.18267e-06
7.25346e-08
2.17747e-06
7.13542e-08
7.02605e-08
2.17211e-06
2.41076e-06
3.98055e-07
2.38187e-06
2.43447e-07
2.37783e-06
1.95183e-07
2.37627e-06
2.06861e-07
2.37031e-06
2.00038e-07
2.36221e-06
1.74078e-07
2.35565e-06
1.50438e-07
2.35149e-06
1.38394e-07
2.34851e-06
1.32205e-07
2.34573e-06
1.24003e-07
2.34322e-06
1.11704e-07
2.34139e-06
9.78285e-08
2.34058e-06
8.58615e-08
2.34065e-06
7.79187e-08
2.34113e-06
7.38436e-08
2.34147e-06
7.21955e-08
2.34136e-06
7.1464e-08
7.06222e-08
2.341e-06
2.52861e-06
4.45736e-07
2.51039e-06
2.61668e-07
2.49813e-06
2.07446e-07
2.50167e-06
2.03321e-07
2.51064e-06
1.91064e-07
2.51775e-06
1.66972e-07
2.52098e-06
1.47208e-07
2.52155e-06
1.37822e-07
2.52135e-06
1.32403e-07
2.52168e-06
1.23671e-07
2.52296e-06
1.1043e-07
2.52489e-06
9.58919e-08
2.52693e-06
8.38215e-08
2.52864e-06
7.62183e-08
2.52981e-06
7.26668e-08
2.53037e-06
7.16335e-08
2.5307e-06
7.11405e-08
7.01037e-08
2.53122e-06
2.76156e-06
4.36507e-07
2.73503e-06
2.88194e-07
2.70961e-06
2.32867e-07
2.70176e-06
2.11173e-07
2.70732e-06
1.85503e-07
2.71376e-06
1.60528e-07
2.71607e-06
1.44895e-07
2.71818e-06
1.35713e-07
2.72428e-06
1.26303e-07
2.73405e-06
1.13907e-07
2.74376e-06
1.00717e-07
2.74943e-06
9.02229e-08
2.74923e-06
8.40158e-08
2.74398e-06
8.1474e-08
2.73622e-06
8.04271e-08
2.72874e-06
7.91102e-08
2.72373e-06
7.61494e-08
7.15257e-08
2.72231e-06
2.94559e-06
3.08823e-07
2.963e-06
2.70785e-07
2.96096e-06
2.34903e-07
2.96058e-06
2.11559e-07
2.95408e-06
1.92002e-07
2.94047e-06
1.74138e-07
2.92801e-06
1.57352e-07
2.92367e-06
1.40056e-07
2.92751e-06
1.2246e-07
2.93494e-06
1.06483e-07
2.94137e-06
9.4286e-08
2.9446e-06
8.69866e-08
2.94472e-06
8.3898e-08
2.9431e-06
8.30912e-08
2.94122e-06
8.23156e-08
2.94031e-06
8.0016e-08
2.9407e-06
7.57565e-08
6.9676e-08
2.94255e-06
3.15883e-06
2.78721e-07
3.19013e-06
2.3948e-07
3.18718e-06
2.37858e-07
3.16837e-06
2.30368e-07
3.14585e-06
2.14518e-07
3.13004e-06
1.89955e-07
3.12781e-06
1.59577e-07
3.1371e-06
1.30765e-07
3.14963e-06
1.09937e-07
3.15846e-06
9.76436e-08
3.16187e-06
9.08852e-08
3.1621e-06
8.67518e-08
3.16237e-06
8.36238e-08
3.16461e-06
8.08568e-08
3.16894e-06
7.79795e-08
3.17428e-06
7.468e-08
3.1794e-06
7.06408e-08
6.5561e-08
3.18351e-06
2.85955e-06
3.31993e-07
2.83768e-06
2.61355e-07
2.85309e-06
2.22444e-07
2.86922e-06
2.14239e-07
2.87348e-06
2.10256e-07
2.86817e-06
1.95272e-07
2.85977e-06
1.67973e-07
2.8534e-06
1.37132e-07
2.85152e-06
1.11818e-07
2.85376e-06
9.54076e-08
2.85771e-06
8.69355e-08
2.86079e-06
8.3667e-08
2.86145e-06
8.29657e-08
2.85935e-06
8.29544e-08
2.8555e-06
8.18288e-08
2.85113e-06
7.90512e-08
2.84807e-06
7.36988e-08
6.65854e-08
2.84705e-06
3.54846e-06
3.23354e-07
3.52412e-06
2.85696e-07
3.51224e-06
2.34315e-07
3.51173e-06
2.14754e-07
3.50835e-06
2.13631e-07
3.4948e-06
2.08827e-07
3.47381e-06
1.88958e-07
3.45476e-06
1.56183e-07
3.44511e-06
1.21471e-07
3.4455e-06
9.5019e-08
3.45182e-06
8.06123e-08
3.4585e-06
7.69854e-08
3.46177e-06
7.97017e-08
3.46092e-06
8.38009e-08
3.45786e-06
8.48872e-08
3.45536e-06
8.15565e-08
3.45555e-06
7.35101e-08
6.26622e-08
3.45947e-06
4.28007e-06
3.55737e-07
4.25434e-06
3.11431e-07
4.25342e-06
2.35233e-07
4.25469e-06
2.13483e-07
4.25343e-06
2.14896e-07
4.25185e-06
2.10406e-07
4.25061e-06
1.90196e-07
4.24847e-06
1.58321e-07
4.24455e-06
1.25393e-07
4.2402e-06
9.93638e-08
4.23725e-06
8.35675e-08
4.23676e-06
7.74694e-08
4.23875e-06
7.77132e-08
4.24253e-06
8.00281e-08
4.24682e-06
8.05915e-08
4.2508e-06
7.75756e-08
4.25354e-06
7.07752e-08
6.10887e-08
4.25511e-06
5.15909e-06
4.28433e-07
5.1648e-06
3.05722e-07
5.18325e-06
2.16782e-07
5.19572e-06
2.01016e-07
5.19117e-06
2.19442e-07
5.17617e-06
2.25404e-07
5.16311e-06
2.03262e-07
5.15894e-06
1.62486e-07
5.16437e-06
1.19968e-07
5.17607e-06
8.7655e-08
5.18985e-06
6.97915e-08
5.20267e-06
6.46482e-08
5.2129e-06
6.74831e-08
5.22029e-06
7.26364e-08
5.22534e-06
7.55491e-08
5.22887e-06
7.40449e-08
5.23149e-06
6.81499e-08
5.89596e-08
5.23362e-06
6.47054e-06
4.13443e-07
6.4139e-06
3.62358e-07
6.36961e-06
2.61078e-07
6.35884e-06
2.11784e-07
6.37532e-06
2.02962e-07
6.40522e-06
1.95507e-07
6.43479e-06
1.73693e-07
6.4555e-06
1.41773e-07
6.46444e-06
1.11023e-07
6.4629e-06
8.9198e-08
6.45476e-06
7.79314e-08
6.44416e-06
7.52484e-08
6.4347e-06
7.69407e-08
6.42836e-06
7.89748e-08
6.42533e-06
7.85852e-08
6.42444e-06
7.49311e-08
6.42408e-06
6.85166e-08
6.02278e-08
6.42281e-06
7.65168e-06
4.44118e-07
7.68723e-06
3.26806e-07
7.6973e-06
2.51003e-07
7.71159e-06
1.97496e-07
7.73397e-06
1.80582e-07
7.7556e-06
1.73881e-07
7.77399e-06
1.55297e-07
7.79001e-06
1.25756e-07
7.80388e-06
9.71539e-08
7.81428e-06
7.87942e-08
7.82046e-06
7.17534e-08
7.82321e-06
7.2502e-08
7.82377e-06
7.6382e-08
7.82266e-06
8.0083e-08
7.82006e-06
8.11795e-08
7.81595e-06
7.90471e-08
7.81085e-06
7.36118e-08
6.55878e-08
7.80549e-06
9.43395e-06
3.93347e-07
9.46235e-06
2.98411e-07
9.45432e-06
2.59033e-07
9.43583e-06
2.15981e-07
9.42183e-06
1.94587e-07
9.41419e-06
1.81514e-07
9.41231e-06
1.57183e-07
9.41672e-06
1.21345e-07
9.42799e-06
8.58773e-08
9.44502e-06
6.17672e-08
9.46419e-06
5.25877e-08
9.48151e-06
5.51776e-08
9.49457e-06
6.33196e-08
9.5032e-06
7.146e-08
9.50877e-06
7.56077e-08
9.51324e-06
7.45725e-08
9.51832e-06
6.85368e-08
5.92486e-08
9.52466e-06
1.16201e-05
5.14743e-07
1.15601e-05
3.58356e-07
1.15626e-05
2.56599e-07
1.15881e-05
1.90437e-07
1.16325e-05
1.50184e-07
1.16785e-05
1.35594e-07
1.17058e-05
1.29853e-07
1.17079e-05
1.19245e-07
1.16907e-05
1.03067e-07
1.1665e-05
8.74175e-08
1.16412e-05
7.64232e-08
1.1627e-05
6.9348e-08
1.16274e-05
6.29405e-08
1.16444e-05
5.45071e-08
1.16763e-05
4.37158e-08
1.17184e-05
3.24053e-08
1.17646e-05
2.23683e-08
1.63498e-08
1.18075e-05
8.50802e-06
4.71035e-07
8.52885e-06
3.37524e-07
8.50955e-06
2.75892e-07
8.47828e-06
2.21713e-07
8.46454e-06
1.63916e-07
8.48341e-06
1.1673e-07
8.52453e-06
8.87289e-08
8.56665e-06
7.71307e-08
8.59474e-06
7.49751e-08
8.60658e-06
7.55774e-08
8.60871e-06
7.42883e-08
8.60928e-06
6.87838e-08
8.61364e-06
5.85801e-08
8.62363e-06
4.45112e-08
8.63872e-06
2.86257e-08
8.65726e-06
1.38675e-08
8.6776e-06
2.03314e-09
-3.76451e-09
8.69771e-06
7.29562e-06
4.99792e-07
7.32152e-06
3.11629e-07
7.36473e-06
2.32686e-07
7.38996e-06
1.96476e-07
7.40544e-06
1.4844e-07
7.42475e-06
9.74212e-08
7.45835e-06
5.51309e-08
7.50821e-06
2.72654e-08
7.56848e-06
1.47037e-08
7.62971e-06
1.43531e-08
7.68336e-06
2.06301e-08
7.72339e-06
2.87541e-08
7.74707e-06
3.49036e-08
7.75441e-06
3.71682e-08
7.74761e-06
3.54268e-08
7.73036e-06
3.11177e-08
7.70654e-06
2.58607e-08
2.15264e-08
7.68124e-06
6.41545e-06
5.15471e-07
6.45391e-06
2.73176e-07
6.47905e-06
2.07544e-07
6.50454e-06
1.70985e-07
6.52851e-06
1.24474e-07
6.55068e-06
7.52461e-08
6.57277e-06
3.30386e-08
6.59348e-06
6.56159e-09
6.60911e-06
-9.26294e-10
6.61668e-06
6.7829e-09
6.61697e-06
2.03431e-08
6.61385e-06
3.18741e-08
6.61188e-06
3.68713e-08
6.61452e-06
3.45298e-08
6.62312e-06
2.6826e-08
6.63714e-06
1.70975e-08
6.65503e-06
7.96854e-09
2.22935e-09
6.67433e-06
5.55715e-06
4.43068e-07
5.58633e-06
2.43995e-07
5.62169e-06
1.72185e-07
5.65882e-06
1.33853e-07
5.68715e-06
9.61485e-08
5.71087e-06
5.15204e-08
5.7324e-06
1.15116e-08
5.75131e-06
-1.23483e-08
5.76204e-06
-1.16601e-08
5.76477e-06
4.051e-09
5.76473e-06
2.03887e-08
5.76673e-06
2.98752e-08
5.77524e-06
2.83581e-08
5.79231e-06
1.74566e-08
5.817e-06
2.13834e-09
5.84802e-06
-1.39175e-08
5.88123e-06
-2.52451e-08
-2.97726e-08
5.91323e-06
4.8916e-06
3.65514e-07
4.94903e-06
1.86567e-07
4.97755e-06
1.43663e-07
5.00358e-06
1.0783e-07
5.03079e-06
6.89363e-08
5.05317e-06
2.91412e-08
5.06754e-06
-2.85917e-09
5.07288e-06
-1.76914e-08
5.0787e-06
-1.74782e-08
5.09063e-06
-7.88244e-09
5.1098e-06
1.21709e-09
5.13542e-06
4.25934e-09
5.1649e-06
-1.12707e-09
5.193e-06
-1.06403e-08
5.21647e-06
-2.13273e-08
5.23199e-06
-2.94384e-08
5.23985e-06
-3.3109e-08
-3.17741e-08
5.24185e-06
4.22101e-06
1.91276e-07
4.34058e-06
6.70028e-08
4.3937e-06
9.05359e-08
4.40743e-06
9.41003e-08
4.4141e-06
6.22739e-08
4.41889e-06
2.43426e-08
4.42308e-06
-7.04228e-09
4.43204e-06
-2.66504e-08
4.44906e-06
-3.45054e-08
4.47513e-06
-3.39503e-08
4.50586e-06
-2.95107e-08
4.53544e-06
-2.53222e-08
4.55833e-06
-2.40206e-08
4.57269e-06
-2.49925e-08
4.5782e-06
-2.68393e-08
4.57665e-06
-2.78899e-08
4.57057e-06
-2.70306e-08
-2.39539e-08
4.56275e-06
3.74762e-06
2.06728e-07
3.76201e-06
5.26158e-08
3.79501e-06
5.75335e-08
3.83983e-06
4.92844e-08
3.88088e-06
2.12239e-08
3.9084e-06
-3.18331e-09
3.92068e-06
-1.93157e-08
3.92645e-06
-3.2426e-08
3.93405e-06
-4.21015e-08
3.94722e-06
-4.71239e-08
3.96516e-06
-4.74492e-08
3.98429e-06
-4.44568e-08
4.00041e-06
-4.0135e-08
4.01104e-06
-3.56287e-08
4.01569e-06
-3.14799e-08
4.01555e-06
-2.77509e-08
4.01273e-06
-2.42129e-08
-2.0822e-08
4.0096e-06
3.349e-06
2.10601e-07
3.34527e-06
5.6351e-08
3.35201e-06
5.07944e-08
3.37834e-06
2.29543e-08
3.41559e-06
-1.60329e-08
3.45032e-06
-3.79101e-08
3.47489e-06
-4.38898e-08
3.48698e-06
-4.45164e-08
3.4889e-06
-4.4015e-08
3.48496e-06
-4.3183e-08
3.48e-06
-4.24882e-08
3.47751e-06
-4.19746e-08
3.47865e-06
-4.12746e-08
3.48276e-06
-3.97346e-08
3.48826e-06
-3.69828e-08
3.49386e-06
-3.33497e-08
3.49886e-06
-2.92147e-08
-2.55266e-08
3.50357e-06
2.86462e-06
1.60718e-07
2.92341e-06
-2.43358e-09
2.96787e-06
6.33062e-09
3.00388e-06
-1.30515e-08
3.0284e-06
-4.05527e-08
3.04442e-06
-5.39358e-08
3.05649e-06
-5.59561e-08
3.06601e-06
-5.40355e-08
3.07223e-06
-5.02368e-08
3.07463e-06
-4.55814e-08
3.07408e-06
-4.19348e-08
3.0725e-06
-4.04039e-08
3.07183e-06
-4.05951e-08
3.0734e-06
-4.13123e-08
3.07779e-06
-4.1368e-08
3.08491e-06
-4.04671e-08
3.09428e-06
-3.85869e-08
-3.63533e-08
3.1051e-06
2.53148e-06
6.90365e-08
2.55971e-06
-3.06696e-08
2.59497e-06
-2.89324e-08
2.62863e-06
-4.6705e-08
2.6454e-06
-5.73292e-08
2.64839e-06
-5.69251e-08
2.64594e-06
-5.35015e-08
2.64342e-06
-5.15126e-08
2.64336e-06
-5.01792e-08
2.64613e-06
-4.8356e-08
2.65034e-06
-4.61454e-08
2.65388e-06
-4.39428e-08
2.65511e-06
-4.18192e-08
2.65348e-06
-3.96875e-08
2.64958e-06
-3.74648e-08
2.64442e-06
-3.53096e-08
2.63907e-06
-3.32354e-08
-3.14127e-08
2.63413e-06
2.18689e-06
2.15622e-06
2.12728e-06
2.08058e-06
2.02325e-06
1.96632e-06
1.91282e-06
1.86131e-06
1.81113e-06
1.76278e-06
1.71663e-06
1.67269e-06
1.63087e-06
1.59118e-06
1.55372e-06
1.51841e-06
1.48517e-06
1.45376e-06
-2.40351e-07
2.40351e-07
-4.58773e-07
2.18422e-07
-5.93378e-07
1.34604e-07
-5.98598e-07
5.22039e-09
-4.76918e-07
-1.2168e-07
-2.54298e-07
-2.2262e-07
2.91362e-08
-2.83434e-07
3.39763e-07
-3.10627e-07
6.53867e-07
-3.14104e-07
9.55258e-07
-3.01391e-07
1.23485e-06
-2.79593e-07
1.48838e-06
-2.53533e-07
1.71436e-06
-2.25972e-07
1.91255e-06
-1.98194e-07
2.08316e-06
-1.70613e-07
2.22648e-06
-1.43315e-07
2.34232e-06
-1.15842e-07
2.43023e-06
-8.79149e-08
2.4897e-06
-5.94688e-08
2.51981e-06
-3.01043e-08
2.52045e-06
-6.46112e-10
2.48987e-06
3.05839e-08
2.4273e-06
6.25651e-08
2.33261e-06
9.46931e-08
2.20526e-06
1.27349e-07
2.04653e-06
1.58729e-07
1.8558e-06
1.90728e-07
1.63621e-06
2.19594e-07
1.38861e-06
2.47604e-07
1.11756e-06
2.71046e-07
8.35094e-07
2.82466e-07
5.43805e-07
2.91289e-07
2.99426e-07
2.44379e-07
1.41782e-07
1.57645e-07
4.95996e-08
9.21821e-08
1.27718e-08
3.68278e-08
2.41379e-08
-1.13661e-08
6.70253e-08
-4.28874e-08
1.40988e-07
-7.39628e-08
2.55217e-07
-1.14229e-07
3.93988e-07
-1.38771e-07
4.87599e-07
-9.36109e-08
5.2386e-07
-3.62614e-08
6.38523e-07
-1.14663e-07
8.16858e-07
-1.78334e-07
9.43881e-07
-1.27023e-07
9.72005e-07
-2.81241e-08
8.32757e-07
1.39248e-07
4.52168e-07
3.8059e-07
-8.2739e-08
5.34907e-07
-6.40287e-07
5.57548e-07
-1.18195e-06
5.41666e-07
-1.69612e-06
5.14162e-07
-2.1761e-06
4.79987e-07
-2.61823e-06
4.42127e-07
-3.02099e-06
4.02762e-07
-3.38437e-06
3.63377e-07
-3.70943e-06
3.2506e-07
-3.99796e-06
2.88527e-07
-4.25221e-06
2.54255e-07
-4.47469e-06
2.22478e-07
-4.66787e-06
1.93184e-07
-4.83403e-06
1.66161e-07
-4.97513e-06
1.41096e-07
-5.09279e-06
1.17656e-07
-5.1883e-06
9.55098e-08
-5.26267e-06
7.43739e-08
-5.31674e-06
5.4069e-08
-5.35127e-06
3.45352e-08
-5.36708e-06
1.58093e-08
-5.36518e-06
-1.9001e-09
-5.34766e-06
-1.75273e-08
-5.31564e-06
-3.20106e-08
-5.27054e-06
-4.51066e-08
-5.21395e-06
-5.659e-08
-5.14746e-06
-6.64924e-08
-5.07259e-06
-7.48661e-08
-4.99076e-06
-8.18265e-08
-4.90316e-06
-8.76067e-08
-4.81068e-06
-9.24756e-08
-4.71388e-06
-9.6798e-08
-4.61292e-06
-1.00962e-07
-4.50754e-06
-1.05377e-07
-4.3971e-06
-1.10444e-07
-4.28058e-06
-1.1652e-07
-4.15669e-06
-1.23892e-07
-4.02396e-06
-1.32733e-07
-3.88088e-06
-1.43078e-07
-3.72608e-06
-1.54801e-07
-3.55846e-06
-1.67614e-07
-3.37739e-06
-1.81074e-07
-3.18277e-06
-1.94621e-07
-2.97514e-06
-2.07629e-07
-2.75568e-06
-2.19457e-07
-2.52618e-06
-2.29503e-07
-2.28892e-06
-2.37259e-07
-2.04656e-06
-2.42361e-07
-1.80197e-06
-2.44588e-07
-1.55811e-06
-2.43862e-07
-1.31782e-06
-2.40291e-07
-1.08367e-06
-2.34146e-07
-8.57845e-07
-2.25827e-07
-6.42077e-07
-2.15768e-07
-4.37514e-07
-2.04563e-07
-2.44816e-07
-1.92698e-07
-6.40744e-08
-1.80742e-07
1.055e-07
-1.69574e-07
2.6441e-07
-1.5891e-07
4.1319e-07
-1.4878e-07
5.52179e-07
-1.38989e-07
6.81373e-07
-1.29194e-07
8.00403e-07
-1.19029e-07
9.08649e-07
-1.08246e-07
1.00545e-06
-9.68029e-08
1.09032e-06
-8.48708e-08
1.16309e-06
-7.2765e-08
1.22395e-06
-6.08674e-08
1.27351e-06
-4.95584e-08
1.31262e-06
-3.91066e-08
1.34232e-06
-2.96994e-08
1.36376e-06
-2.14359e-08
1.37797e-06
-1.42113e-08
1.38596e-06
-7.99435e-09
1.38861e-06
-2.64858e-09
1.38645e-06
2.16142e-09
1.37998e-06
6.46514e-09
1.36989e-06
1.00942e-08
1.3568e-06
1.30911e-08
1.34129e-06
1.5508e-08
1.32394e-06
1.73467e-08
1.30531e-06
1.863e-08
1.2859e-06
1.94178e-08
1.26612e-06
1.97794e-08
1.24632e-06
1.97977e-08
1.22677e-06
1.95522e-08
1.20766e-06
1.91089e-08
1.18915e-06
1.8509e-08
1.17137e-06
1.77773e-08
1.15444e-06
1.69286e-08
1.13847e-06
1.59764e-08
1.12353e-06
1.49389e-08
1.10969e-06
1.38414e-08
1.09697e-06
1.2714e-08
1.08538e-06
1.1588e-08
1.07489e-06
1.04945e-08
1.06543e-06
9.4624e-09
1.05691e-06
8.51504e-09
1.04925e-06
7.66193e-09
1.04235e-06
6.90423e-09
1.0361e-06
6.24168e-09
1.03043e-06
5.67109e-09
1.02525e-06
5.18708e-09
1.02046e-06
4.78216e-09
1.01601e-06
4.44897e-09
1.01184e-06
4.17075e-09
1.0079e-06
3.94475e-09
1.00413e-06
3.76427e-09
1.00051e-06
3.62604e-09
9.96977e-07
3.53076e-09
9.93495e-07
3.48246e-09
9.90005e-07
3.49011e-09
9.86452e-07
3.55254e-09
9.82766e-07
3.68622e-09
9.78876e-07
3.89027e-09
9.74676e-07
4.19974e-09
9.70084e-07
4.59203e-09
9.64924e-07
5.16051e-09
9.59109e-07
5.81478e-09
9.52309e-07
6.79934e-09
9.44481e-07
7.82848e-09
9.34917e-07
9.56368e-09
9.2382e-07
1.10971e-08
9.09503e-07
1.43171e-08
8.93134e-07
1.63689e-08
8.70219e-07
2.29148e-08
8.45385e-07
2.48342e-08
8.05563e-07
3.98225e-08
7.67784e-07
3.77787e-08
6.90977e-07
7.68069e-08
5.64206e-08
6.34557e-07
-1.23272e-07
3.63624e-07
-2.44743e-07
3.39893e-07
-3.05149e-07
1.9501e-07
-2.47673e-07
-5.22547e-08
-6.59098e-08
-3.03444e-07
1.95734e-07
-4.84264e-07
4.94128e-07
-5.81828e-07
7.97866e-07
-6.14365e-07
1.08835e-06
-6.04588e-07
1.35824e-06
-5.71276e-07
1.60553e-06
-5.26891e-07
1.83028e-06
-4.78281e-07
2.03285e-06
-4.28536e-07
2.21332e-06
-3.78665e-07
2.3715e-06
-3.28799e-07
2.5067e-06
-2.78509e-07
2.61802e-06
-2.27166e-07
2.70475e-06
-1.74643e-07
2.76634e-06
-1.21066e-07
2.80273e-06
-6.64854e-08
2.81309e-06
-1.10055e-08
2.79976e-06
4.39055e-08
2.76347e-06
9.88634e-08
2.70478e-06
1.5338e-07
2.62506e-06
2.07072e-07
2.5252e-06
2.58587e-07
2.40679e-06
3.09138e-07
2.2713e-06
3.55085e-07
2.12273e-06
3.96176e-07
1.96502e-06
4.28755e-07
1.80065e-06
4.46834e-07
1.64435e-06
4.47583e-07
1.46995e-06
4.18781e-07
1.26434e-06
3.63254e-07
1.0772e-06
2.79324e-07
9.33183e-07
1.80846e-07
8.3005e-07
9.17669e-08
7.73825e-07
1.33382e-08
7.98261e-07
-9.83991e-08
8.81423e-07
-1.97391e-07
9.65491e-07
-2.22839e-07
1.13496e-06
-2.63077e-07
1.30184e-06
-2.03142e-07
1.25446e-06
-6.72844e-08
9.55254e-07
1.2087e-07
3.51013e-07
4.77218e-07
-4.20552e-07
7.43441e-07
-1.1382e-06
8.56897e-07
-1.71205e-06
9.54443e-07
-2.17649e-06
9.99344e-07
-2.60105e-06
9.82111e-07
-2.99485e-06
9.35458e-07
-3.35294e-06
8.72257e-07
-3.67477e-06
8.01819e-07
-3.96188e-06
7.2923e-07
-4.21675e-06
6.57633e-07
-4.4422e-06
5.88825e-07
-4.64098e-06
5.23843e-07
-4.81569e-06
4.63238e-07
-4.96864e-06
4.07208e-07
-5.10183e-06
3.55668e-07
-5.21692e-06
3.08266e-07
-5.31523e-06
2.64477e-07
-5.3978e-06
2.23665e-07
-5.46532e-06
1.8518e-07
-5.51822e-06
1.484e-07
-5.55667e-06
1.12829e-07
-5.58078e-06
7.81838e-08
-5.59061e-06
4.436e-08
-5.58605e-06
1.12546e-08
-5.56786e-06
-2.01e-08
-5.53571e-06
-4.96703e-08
-5.49047e-06
-7.72487e-08
-5.4333e-06
-1.02284e-07
-5.36545e-06
-1.24438e-07
-5.2884e-06
-1.43538e-07
-5.20362e-06
-1.59647e-07
-5.11242e-06
-1.73026e-07
-5.01592e-06
-1.84109e-07
-4.91492e-06
-1.93479e-07
-4.80988e-06
-2.01834e-07
-4.70089e-06
-2.09949e-07
-4.58764e-06
-2.18633e-07
-4.46941e-06
-2.28676e-07
-4.34513e-06
-2.40791e-07
-4.21348e-06
-2.55545e-07
-4.07293e-06
-2.73283e-07
-3.92194e-06
-2.94068e-07
-3.7591e-06
-3.17639e-07
-3.58332e-06
-3.43397e-07
-3.39396e-06
-3.70432e-07
-3.19099e-06
-3.97593e-07
-2.97502e-06
-4.23595e-07
-2.74734e-06
-4.47135e-07
-2.50985e-06
-4.66996e-07
-2.26495e-06
-4.82165e-07
-2.01537e-06
-4.91939e-07
-1.76405e-06
-4.95907e-07
-1.51397e-06
-4.93936e-07
-1.26796e-06
-4.86309e-07
-1.02849e-06
-4.7361e-07
-7.97623e-07
-4.56696e-07
-5.76898e-07
-4.36492e-07
-3.67206e-07
-4.14256e-07
-1.69199e-07
-3.90705e-07
1.74837e-08
-3.67424e-07
1.94347e-07
-3.46438e-07
3.61364e-07
-3.25927e-07
5.19556e-07
-3.06973e-07
6.69527e-07
-2.88959e-07
8.11379e-07
-2.71047e-07
9.44732e-07
-2.52382e-07
1.06887e-06
-2.32385e-07
1.183e-06
-2.10929e-07
1.28647e-06
-1.88343e-07
1.37898e-06
-1.65278e-07
1.46064e-06
-1.42521e-07
1.53189e-06
-1.20812e-07
1.5935e-06
-1.00712e-07
1.64638e-06
-8.25808e-08
1.6915e-06
-6.65638e-08
1.72991e-06
-5.26131e-08
1.7625e-06
-4.059e-08
1.79016e-06
-3.03079e-08
1.81383e-06
-2.15065e-08
1.83424e-06
-1.39487e-08
1.85184e-06
-7.49932e-09
1.86696e-06
-2.03666e-09
1.87987e-06
2.60063e-09
1.89076e-06
6.45674e-09
1.8998e-06
9.59451e-09
1.90711e-06
1.21031e-08
1.91284e-06
1.40533e-08
1.91711e-06
1.55258e-08
1.92008e-06
1.65815e-08
1.92192e-06
1.72674e-08
1.92283e-06
1.75982e-08
1.92303e-06
1.75787e-08
1.92275e-06
1.72093e-08
1.92223e-06
1.64966e-08
1.9217e-06
1.54652e-08
1.92138e-06
1.41621e-08
1.92145e-06
1.26508e-08
1.92203e-06
1.10049e-08
1.92322e-06
9.30649e-09
1.92504e-06
7.63696e-09
1.9275e-06
6.06312e-09
1.93052e-06
4.64196e-09
1.93402e-06
3.40183e-09
1.9379e-06
2.35942e-09
1.94205e-06
1.51658e-09
1.94638e-06
8.63824e-10
1.95078e-06
3.82042e-10
1.95518e-06
5.08468e-11
1.95953e-06
-1.8179e-10
1.96378e-06
-3.05635e-10
1.96788e-06
-3.37393e-10
1.97178e-06
-2.7792e-10
1.97543e-06
-1.15543e-10
1.97876e-06
1.54164e-10
1.98171e-06
5.35365e-10
1.98425e-06
1.01905e-09
1.98631e-06
1.62341e-09
1.98785e-06
2.34782e-09
1.9888e-06
3.24858e-09
1.98911e-06
4.28279e-09
1.98865e-06
5.62015e-09
1.98738e-06
7.09018e-09
1.98502e-06
9.15532e-09
1.98161e-06
1.12439e-08
1.97655e-06
1.46209e-08
1.97014e-06
1.75051e-08
1.96102e-06
2.34399e-08
1.95024e-06
2.71468e-08
1.93457e-06
3.85881e-08
1.91693e-06
4.24713e-08
1.89017e-06
6.65856e-08
1.86035e-06
6.75922e-08
1.8153e-06
1.21862e-07
1.13618e-07
1.7581e-06
3.85373e-08
3.25086e-07
2.77548e-08
3.50675e-07
7.69455e-08
1.45819e-07
2.48939e-07
-2.24248e-07
5.01753e-07
-5.56258e-07
7.76398e-07
-7.58908e-07
1.03939e-06
-8.44816e-07
1.27913e-06
-8.54108e-07
1.498e-06
-8.23459e-07
1.70172e-06
-7.74999e-07
1.89487e-06
-7.20043e-07
2.07908e-06
-6.62482e-07
2.25328e-06
-6.02741e-07
2.41492e-06
-5.40304e-07
2.56077e-06
-4.74651e-07
2.68779e-06
-4.05523e-07
2.79358e-06
-3.32958e-07
2.87623e-06
-2.57296e-07
2.93415e-06
-1.7898e-07
2.96623e-06
-9.85698e-08
2.97186e-06
-1.66379e-08
2.95141e-06
6.43589e-08
2.90552e-06
1.44749e-07
2.83615e-06
2.2275e-07
2.74679e-06
2.96437e-07
2.64034e-06
3.65031e-07
2.52306e-06
4.26422e-07
2.39862e-06
4.79524e-07
2.27286e-06
5.21935e-07
2.14906e-06
5.52558e-07
2.028e-06
5.67891e-07
1.91065e-06
5.64935e-07
1.78899e-06
5.40444e-07
1.67066e-06
4.81583e-07
1.5424e-06
4.07582e-07
1.44786e-06
2.75388e-07
1.39342e-06
1.46209e-07
1.30372e-06
1.03038e-07
1.2775e-06
-7.21815e-08
1.4184e-06
-3.38295e-07
1.49992e-06
-3.04359e-07
1.29013e-06
-5.32844e-08
8.21489e-07
2.65499e-07
5.45959e-08
6.99608e-07
-7.87787e-07
9.63253e-07
-1.44853e-06
1.13796e-06
-1.957e-06
1.25191e-06
-2.4033e-06
1.30319e-06
-2.76013e-06
1.31128e-06
-3.04246e-06
1.28168e-06
-3.28421e-06
1.22385e-06
-3.50029e-06
1.15154e-06
-3.69935e-06
1.07132e-06
-3.88531e-06
9.87777e-07
-4.06018e-06
9.041e-07
-4.22462e-06
8.2208e-07
-4.37875e-06
7.42951e-07
-4.52234e-06
6.67438e-07
-4.65518e-06
5.96073e-07
-4.77706e-06
5.29094e-07
-4.88789e-06
4.66491e-07
-4.98755e-06
4.07931e-07
-5.07591e-06
3.52834e-07
-5.15267e-06
3.00423e-07
-5.21736e-06
2.49873e-07
-5.26939e-06
2.00435e-07
-5.30812e-06
1.51551e-07
-5.33284e-06
1.02911e-07
-5.34301e-06
5.45248e-08
-5.33837e-06
6.61556e-09
-5.3193e-06
-3.91694e-08
-5.28606e-06
-8.29058e-08
-5.23972e-06
-1.23594e-07
-5.18156e-06
-1.60442e-07
-5.11309e-06
-1.92914e-07
-5.03586e-06
-2.20764e-07
-4.95142e-06
-2.44084e-07
-4.86116e-06
-2.6329e-07
-4.7662e-06
-2.79066e-07
-4.66736e-06
-2.92319e-07
-4.56508e-06
-3.04118e-07
-4.45938e-06
-3.15641e-07
-4.3499e-06
-3.28117e-07
-4.23583e-06
-3.4275e-07
-4.11599e-06
-3.6063e-07
-3.9889e-06
-3.82636e-07
-3.85287e-06
-4.0931e-07
-3.70619e-06
-4.40753e-07
-3.54727e-06
-4.76556e-07
-3.37489e-06
-5.15774e-07
-3.18836e-06
-5.56961e-07
-2.98767e-06
-5.98287e-07
-2.77354e-06
-6.37726e-07
-2.54743e-06
-6.73245e-07
-2.31146e-06
-7.0296e-07
-2.0683e-06
-7.25324e-07
-1.82096e-06
-7.39281e-07
-1.57265e-06
-7.44218e-07
-1.32672e-06
-7.39871e-07
-1.08633e-06
-7.26693e-07
-8.5434e-07
-7.05602e-07
-6.32997e-07
-6.78039e-07
-4.23743e-07
-6.45746e-07
-2.27207e-07
-6.10792e-07
-4.40657e-08
-5.73847e-07
1.2849e-07
-5.3998e-07
2.89837e-07
-5.07784e-07
4.42389e-07
-4.78479e-07
5.87583e-07
-4.52167e-07
7.26524e-07
-4.279e-07
8.59581e-07
-4.04104e-07
9.8636e-07
-3.79161e-07
1.10591e-06
-3.51934e-07
1.21703e-06
-3.22052e-07
1.31863e-06
-2.89938e-07
1.40996e-06
-2.56615e-07
1.49084e-06
-2.23399e-07
1.5616e-06
-1.9157e-07
1.62301e-06
-1.62123e-07
1.67609e-06
-1.35662e-07
1.72193e-06
-1.124e-07
1.76157e-06
-9.22502e-08
1.79591e-06
-7.49368e-08
1.82572e-06
-6.0116e-08
1.85167e-06
-4.74534e-08
1.87436e-06
-3.66421e-08
1.89432e-06
-2.7461e-08
1.91204e-06
-1.97568e-08
1.92802e-06
-1.33761e-08
1.94263e-06
-8.15652e-09
1.95615e-06
-3.92271e-09
1.96874e-06
-4.82646e-10
1.98047e-06
2.32143e-09
1.99134e-06
4.65042e-09
2.00134e-06
6.58193e-09
2.01043e-06
8.1769e-09
2.01862e-06
9.40854e-09
2.02596e-06
1.02414e-08
2.03254e-06
1.06277e-08
2.03851e-06
1.05238e-08
2.04407e-06
9.91307e-09
2.04941e-06
8.8158e-09
2.05478e-06
7.28804e-09
2.06036e-06
5.41974e-09
2.06635e-06
3.32081e-09
2.07287e-06
1.11464e-09
2.07997e-06
-1.04249e-09
2.08769e-06
-3.06975e-09
2.09598e-06
-4.89159e-09
2.10479e-06
-6.44994e-09
2.11402e-06
-7.71811e-09
2.12358e-06
-8.6936e-09
2.13336e-06
-9.393e-09
2.14325e-06
-9.8452e-09
2.15317e-06
-1.0096e-08
2.16303e-06
-1.01736e-08
2.1728e-06
-1.01003e-08
2.1824e-06
-9.88353e-09
2.19181e-06
-9.5219e-09
2.20099e-06
-9.02454e-09
2.20991e-06
-8.38886e-09
2.21856e-06
-7.62462e-09
2.22687e-06
-6.69414e-09
2.23483e-06
-5.60692e-09
2.24235e-06
-4.26948e-09
2.24939e-06
-2.75972e-09
2.25585e-06
-8.38225e-10
2.26165e-06
1.28354e-09
2.26662e-06
4.18831e-09
2.2707e-06
7.16682e-09
2.27361e-06
1.17055e-08
2.27533e-06
1.57853e-08
2.27549e-06
2.32799e-08
2.27393e-06
2.87052e-08
2.27045e-06
4.20736e-08
2.26402e-06
4.89048e-08
2.256e-06
7.45981e-08
2.24126e-06
8.23331e-08
2.22927e-06
1.33857e-07
1.45018e-07
2.19787e-06
8.06154e-08
2.44471e-07
1.56993e-07
2.74298e-07
3.94537e-07
-9.17254e-08
7.09485e-07
-5.39196e-07
9.98346e-07
-8.45118e-07
1.22937e-06
-9.89931e-07
1.41237e-06
-1.02782e-06
1.57204e-06
-1.01377e-06
1.72812e-06
-9.79545e-07
1.89083e-06
-9.37704e-07
2.06085e-06
-8.90071e-07
2.23344e-06
-8.35065e-07
2.40201e-06
-7.71314e-07
2.56024e-06
-6.98531e-07
2.70296e-06
-6.17368e-07
2.82642e-06
-5.28983e-07
2.92806e-06
-4.34599e-07
3.00616e-06
-3.35403e-07
3.05966e-06
-2.32473e-07
3.08827e-06
-1.27186e-07
3.09313e-06
-2.14886e-08
3.06938e-06
8.81006e-08
3.01886e-06
1.95268e-07
2.94363e-06
2.97984e-07
2.84519e-06
3.94873e-07
2.72683e-06
4.834e-07
2.59227e-06
5.6098e-07
2.44688e-06
6.24908e-07
2.29781e-06
6.71008e-07
2.14933e-06
7.01042e-07
2.01057e-06
7.0665e-07
1.87788e-06
6.97627e-07
1.76611e-06
6.52214e-07
1.65667e-06
5.91023e-07
1.55496e-06
5.0929e-07
1.4605e-06
3.69842e-07
1.35077e-06
2.55939e-07
1.35726e-06
9.65556e-08
1.39872e-06
-1.13643e-07
1.18939e-06
-1.28962e-07
6.9138e-07
1.93646e-07
-6.80331e-08
7.06129e-07
-8.55359e-07
1.05283e-06
-1.45545e-06
1.2997e-06
-1.94816e-06
1.45596e-06
-2.34333e-06
1.53314e-06
-2.64362e-06
1.5522e-06
-2.88e-06
1.53957e-06
-3.06865e-06
1.49993e-06
-3.22691e-06
1.43994e-06
-3.37009e-06
1.36704e-06
-3.50582e-06
1.28727e-06
-3.63911e-06
1.20461e-06
-3.77153e-06
1.1202e-06
-3.9027e-06
1.03527e-06
-4.03113e-06
9.50512e-07
-4.15519e-06
8.67007e-07
-4.27354e-06
7.85791e-07
-4.38535e-06
7.0788e-07
-4.4902e-06
6.33946e-07
-4.5879e-06
5.64196e-07
-4.67825e-06
4.9828e-07
-4.76081e-06
4.35388e-07
-4.8348e-06
3.74419e-07
-4.89914e-06
3.14212e-07
-4.95247e-06
2.53761e-07
-4.99333e-06
1.92417e-07
-5.02038e-06
1.29959e-07
-5.03251e-06
6.66567e-08
-5.02863e-06
2.73197e-09
-5.00978e-06
-5.80223e-08
-4.97594e-06
-1.16748e-07
-4.92822e-06
-1.71306e-07
-4.86826e-06
-2.2041e-07
-4.7979e-06
-2.63273e-07
-4.71906e-06
-2.99601e-07
-4.63355e-06
-3.29596e-07
-4.54293e-06
-3.53911e-07
-4.44843e-06
-3.73562e-07
-4.35091e-06
-3.89839e-07
-4.2508e-06
-4.04228e-07
-4.1481e-06
-4.18345e-07
-4.04235e-06
-4.33861e-07
-3.93269e-06
-4.52417e-07
-3.8178e-06
-4.75518e-07
-3.69605e-06
-5.04388e-07
-3.56554e-06
-5.39813e-07
-3.42433e-06
-5.81971e-07
-3.27057e-06
-6.30316e-07
-3.10282e-06
-6.83525e-07
-2.92024e-06
-7.39534e-07
-2.72281e-06
-7.95719e-07
-2.51134e-06
-8.49197e-07
-2.28744e-06
-8.97146e-07
-2.05341e-06
-9.36989e-07
-1.81204e-06
-9.66694e-07
-1.56635e-06
-9.84968e-07
-1.31944e-06
-9.91134e-07
-1.07461e-06
-9.84701e-07
-8.35167e-07
-9.66133e-07
-6.04474e-07
-9.36295e-07
-3.85819e-07
-8.96695e-07
-1.82015e-07
-8.4955e-07
4.85323e-09
-7.9766e-07
1.7707e-07
-7.46064e-07
3.33092e-07
-6.96002e-07
4.75811e-07
-6.50504e-07
6.08286e-07
-6.10954e-07
7.33406e-07
-5.77287e-07
8.5338e-07
-5.47874e-07
9.69361e-07
-5.20086e-07
1.08142e-06
-4.9122e-07
1.18881e-06
-4.59327e-07
1.29038e-06
-4.23616e-07
1.38485e-06
-3.84413e-07
1.47111e-06
-3.42876e-07
1.54836e-06
-3.00646e-07
1.61629e-06
-2.59498e-07
1.67517e-06
-2.21007e-07
1.72579e-06
-1.86283e-07
1.76925e-06
-1.55861e-07
1.80675e-06
-1.29744e-07
1.83938e-06
-1.07566e-07
1.86804e-06
-8.87746e-08
1.89335e-06
-7.27685e-08
1.91569e-06
-5.89862e-08
1.93523e-06
-4.69988e-08
1.95203e-06
-3.6554e-08
1.96619e-06
-2.75368e-08
1.97796e-06
-1.9925e-08
1.98775e-06
-1.37139e-08
1.9961e-06
-8.82959e-09
2.00352e-06