/*--------------------------------*- C++ -*----------------------------------*\
  =========                 |
  \\      /  F ield         | OpenFOAM: The Open Source CFD Toolbox
   \\    /   O peration     | Website:  https://openfoam.org
    \\  /    A nd           | Version:  7
     \\/     M anipulation  |
\*---------------------------------------------------------------------------*/
FoamFile
{
    version     2.0;
    format      ascii;
    class       volScalarField;
    location    "0.12";
    object      nut;
}
// * * * * * * * * * * * * * * * * * * * * * * * * * * * * * * * * * * * * * //

dimensions      [0 2 -1 0 0 0 0];

internalField   nonuniform List<scalar> 
12225
(
3.8006e-05
3.33294e-05
2.94332e-05
2.6376e-05
2.41489e-05
2.2629e-05
2.16446e-05
2.10344e-05
2.06706e-05
2.04607e-05
2.03421e-05
2.02743e-05
2.02325e-05
2.02024e-05
2.01765e-05
2.01495e-05
2.01271e-05
2.02611e-05
0.000205723
0.000151532
0.000127318
0.000114409
0.000107378
0.000103276
0.000100622
9.87105e-05
9.72095e-05
9.59564e-05
9.48712e-05
9.39147e-05
9.30664e-05
9.23125e-05
9.16455e-05
9.1042e-05
9.05437e-05
8.99397e-05
0.000418642
0.000297
0.000242049
0.000210265
0.000189708
0.000175339
0.000164785
0.000156783
0.000150567
0.000145635
0.000141647
0.000138373
0.000135649
0.000133358
0.000131417
0.00012975
0.000128328
0.000127027
0.000615536
0.000473545
0.00039259
0.00034128
0.000306012
0.000280079
0.000260117
0.000244302
0.000231518
0.000221017
0.00021228
0.000204933
0.0001987
0.000193372
0.000188786
0.00018481
0.000181351
0.000178325
0.000739724
0.000627505
0.000543981
0.000483427
0.000438562
0.000404014
0.000376511
0.000354082
0.000335455
0.000319757
0.000306369
0.000294843
0.000284844
0.000276113
0.000268448
0.000261681
0.000255689
0.000250434
0.000803283
0.000733059
0.0006667
0.000610792
0.000565215
0.000527894
0.000496916
0.00047086
0.000448678
0.000429582
0.000412982
0.000398436
0.000385602
0.000374213
0.000364058
0.000354962
0.000346798
0.000339585
0.000832284
0.00079459
0.000750949
0.000708338
0.000669775
0.000635802
0.000606091
0.000580115
0.000557332
0.000537249
0.000519446
0.00050358
0.000489371
0.000476588
0.000465044
0.000454584
0.000445094
0.000436654
0.000844509
0.000826356
0.000801469
0.000773642
0.000745689
0.000719046
0.000694308
0.00067166
0.000651064
0.000632378
0.000615422
0.000600014
0.000585985
0.000573182
0.000561472
0.00055074
0.000540908
0.000532104
0.000849308
0.000841191
0.000828457
0.000812439
0.000794694
0.000776392
0.000758288
0.000740844
0.00072431
0.000708794
0.000694317
0.000680852
0.000668349
0.000656744
0.000645974
0.000635977
0.000626719
0.000618359
0.000851042
0.000847505
0.000841448
0.000833091
0.000823013
0.000811827
0.00080005
0.000788088
0.000776235
0.000764689
0.00075357
0.000742947
0.000732853
0.000723298
0.000714275
0.000705773
0.0006978
0.000690523
0.000851597
0.000849941
0.000847101
0.000842991
0.000837725
0.000831516
0.000824605
0.000817226
0.000809584
0.000801848
0.000794144
0.000786565
0.000779177
0.000772025
0.000765137
0.000758534
0.000752248
0.000746438
0.000851725
0.000850708
0.000849144
0.00084693
0.000844053
0.000840559
0.000836534
0.000832083
0.000827315
0.000822335
0.000817233
0.000812084
0.000806946
0.000801869
0.000796887
0.000792031
0.000787343
0.000782965
0.000851737
0.000850953
0.00084994
0.000848639
0.000847018
0.00084507
0.000842806
0.000840256
0.000837463
0.000834473
0.000831335
0.000828092
0.000824785
0.000821448
0.000818112
0.000814804
0.000811562
0.000808495
0.000851709
0.000850986
0.000850182
0.000849277
0.000848261
0.000847121
0.000845852
0.000844453
0.00084293
0.000841294
0.00083956
0.000837744
0.000835863
0.000833934
0.000831973
0.000829998
0.000828035
0.000826155
0.000851676
0.000850949
0.000850197
0.000849419
0.000848621
0.000847804
0.000846964
0.0008461
0.000845209
0.000844287
0.000843337
0.000842358
0.000841353
0.000840326
0.000839281
0.000838225
0.000837172
0.000836164
0.000851651
0.000850907
0.000850159
0.000849408
0.000848665
0.000847939
0.000847232
0.000846547
0.000845883
0.000845236
0.000844606
0.000843988
0.000843381
0.000842782
0.000842191
0.000841609
0.000841044
0.000840518
0.000851637
0.000850885
0.000850135
0.00084939
0.00084866
0.000847953
0.000847277
0.000846634
0.000846026
0.000845453
0.000844912
0.000844402
0.00084392
0.000843463
0.000843029
0.000842618
0.000842236
0.0008419
0.000851638
0.000850889
0.000850149
0.000849416
0.000848699
0.000848006
0.000847345
0.00084672
0.000846131
0.00084558
0.000845064
0.000844584
0.000844135
0.000843716
0.000843326
0.000842963
0.000842633
0.000842352
0.000851661
0.000850938
0.000850225
0.00084952
0.000848834
0.000848174
0.000847546
0.000846955
0.000846402
0.000845885
0.000845405
0.000844959
0.000844545
0.000844161
0.000843803
0.000843473
0.000843175
0.000842924
0.000851715
0.000851052
0.000850398
0.000849753
0.000849127
0.000848531
0.00084797
0.000847445
0.000846956
0.000846501
0.000846078
0.000845682
0.000845311
0.000844961
0.00084463
0.000844316
0.000844024
0.000843769
0.000851801
0.000851233
0.000850668
0.000850109
0.000849564
0.00084904
0.000848538
0.000848053
0.00084758
0.000847113
0.000846645
0.000846173
0.000845692
0.000845201
0.000844697
0.000844182
0.000843661
0.000843153
0.000851941
0.000851517
0.000851065
0.000850568
0.000850018
0.000849408
0.000848726
0.000847958
0.000847095
0.000846133
0.000845076
0.000843927
0.000842694
0.000841384
0.000840001
0.00083856
0.000837081
0.000835604
0.000852142
0.000851828
0.000851265
0.000850362
0.000849081
0.000847422
0.000845395
0.000843022
0.000840338
0.000837389
0.000834224
0.00083088
0.000827395
0.000823819
0.0008202
0.000816575
0.00081298
0.000809484
0.00085222
0.000851245
0.000849026
0.00084547
0.000840723
0.000835029
0.000828615
0.000821676
0.000814393
0.000806888
0.000799296
0.00079175
0.000784343
0.00077713
0.000770147
0.000763419
0.000756971
0.000750879
0.000850791
0.000845028
0.000835401
0.000822961
0.000808866
0.000794037
0.000779064
0.00076426
0.000749882
0.00073617
0.000723225
0.000711062
0.000699664
0.000688997
0.000679017
0.000669679
0.000660947
0.000652863
0.000841138
0.000816682
0.000786999
0.000756699
0.000727777
0.000700955
0.000676376
0.000654227
0.000634358
0.00061651
0.000600433
0.000585894
0.00057269
0.000560645
0.000549613
0.000539468
0.000530114
0.000521542
0.000798628
0.000728723
0.000669094
0.000620811
0.000580943
0.000547673
0.000520056
0.000496793
0.000476911
0.0004597
0.000444632
0.000431305
0.000419412
0.000408712
0.00039902
0.000390188
0.000382103
0.000374723
0.000662426
0.00054558
0.00047464
0.000425198
0.000388267
0.000360264
0.000338462
0.000320966
0.000306553
0.000294437
0.000284085
0.000275117
0.000267258
0.000260301
0.000254092
0.000248511
0.000243464
0.000238896
0.000377505
0.000286124
0.000242633
0.000214908
0.000195645
0.000182235
0.000172798
0.000165962
0.000160842
0.000156895
0.000153774
0.000151248
0.000149159
0.000147396
0.000145881
0.000144556
0.000143381
0.000142312
6.98062e-05
6.49724e-05
6.05479e-05
5.65124e-05
5.29009e-05
4.97257e-05
4.69805e-05
4.46404e-05
4.26664e-05
4.10143e-05
3.96406e-05
3.85048e-05
3.75711e-05
3.68077e-05
3.61875e-05
3.56871e-05
3.52867e-05
3.49698e-05
5.72037e-07
1.20428e-05
1.86547e-05
2.42896e-05
2.99627e-05
3.65925e-05
4.45704e-05
5.44623e-05
6.62856e-05
7.86709e-05
9.10785e-05
0.000103042
0.000114255
0.000124554
0.000133884
0.00014227
0.000149776
0.000156491
0.000162503
0.000167891
0.000172726
0.000177071
0.000180983
0.000184506
0.000187646
0.000190345
0.000192477
0.000193896
0.000194532
0.000194516
0.000194295
0.000195114
0.000195324
0.000194034
4.49858e-05
0.000202036
0.000201875
0.000199397
0.000201075
0.000202475
4.57579e-05
4.58159e-05
4.63832e-05
0.000204299
0.000205013
4.65272e-05
4.5671e-05
4.65689e-05
4.69848e-05
4.73925e-05
4.78041e-05
4.82162e-05
4.86278e-05
4.90382e-05
4.94472e-05
4.98547e-05
5.02607e-05
5.06652e-05
5.10682e-05
5.14696e-05
5.18693e-05
5.22674e-05
5.26637e-05
5.30579e-05
5.345e-05
5.38397e-05
5.42268e-05
5.46108e-05
5.49917e-05
5.53689e-05
5.57421e-05
5.6111e-05
5.64752e-05
5.68342e-05
5.71879e-05
5.75358e-05
5.78778e-05
5.82139e-05
5.85443e-05
5.887e-05
5.91946e-05
5.95107e-05
5.98178e-05
6.01157e-05
6.04043e-05
6.0683e-05
6.09515e-05
6.12094e-05
6.14561e-05
6.16913e-05
6.19145e-05
6.21254e-05
6.23234e-05
6.25084e-05
6.26798e-05
6.28375e-05
6.2981e-05
6.31103e-05
6.32251e-05
6.33251e-05
6.34103e-05
6.34806e-05
6.35359e-05
6.35762e-05
6.36016e-05
6.36121e-05
6.3608e-05
6.35894e-05
6.35566e-05
6.35097e-05
6.34492e-05
6.33755e-05
6.32889e-05
6.31899e-05
6.30789e-05
6.29566e-05
6.28233e-05
6.26798e-05
6.25265e-05
6.23641e-05
6.21931e-05
6.20142e-05
6.18278e-05
6.16347e-05
6.14353e-05
6.12303e-05
6.10201e-05
6.08052e-05
6.05862e-05
6.03633e-05
6.01369e-05
5.99074e-05
5.96751e-05
5.94401e-05
5.92026e-05
5.89626e-05
5.87201e-05
5.84751e-05
5.82273e-05
5.79766e-05
5.77226e-05
5.74647e-05
5.72024e-05
5.69351e-05
5.6662e-05
5.63819e-05
5.60943e-05
5.57976e-05
5.54902e-05
5.51716e-05
5.4838e-05
5.44887e-05
5.41138e-05
5.38881e-05
5.38154e-05
5.37522e-05
5.36843e-05
5.3607e-05
5.35169e-05
5.34106e-05
5.3285e-05
5.31365e-05
5.2962e-05
5.27579e-05
5.25211e-05
5.22485e-05
5.19368e-05
5.1584e-05
5.11872e-05
5.07442e-05
5.02551e-05
4.97142e-05
4.9131e-05
4.83921e-05
4.71683e-05
4.69239e-05
4.58905e-05
4.55366e-05
0.000195776
4.5851e-05
1.60171e-06
3.10215e-05
6.54441e-05
9.15406e-05
0.000110874
0.000125101
0.000137059
0.000148642
0.000160743
0.000173513
0.000186689
0.00019989
0.000212783
0.000225143
0.000236848
0.000247853
0.00025816
0.000267788
0.000276759
0.000285085
0.000292772
0.000299814
0.000306188
0.000311819
0.000316524
0.000319951
0.000321574
0.00032081
0.000317312
0.000311327
0.00030405
0.000298127
0.000296717
0.000291936
0.000283567
0.000311805
0.00030977
0.00030179
0.000303906
0.000304871
0.000285031
0.000287809
0.00029575
0.000317865
0.000318509
0.000303384
0.00030634
0.000312355
0.000317102
0.000320875
0.000324756
0.000328747
0.000332801
0.000336894
0.000341014
0.000345156
0.000349321
0.000353512
0.000357733
0.000361985
0.000366273
0.000370599
0.000374966
0.000379376
0.00038383
0.000388329
0.000392875
0.000397468
0.000402107
0.000406791
0.000411519
0.000416288
0.000421094
0.000425932
0.000430795
0.000435676
0.000440559
0.000445426
0.000450252
0.000454982
0.000459423
0.00046381
0.000468173
0.000472513
0.000476824
0.000481102
0.00048534
0.000489532
0.000493669
0.000497746
0.000501754
0.000505687
0.000509538
0.000513298
0.00051696
0.000520517
0.000523962
0.000527287
0.000530487
0.000533553
0.000536481
0.000539264
0.000541897
0.000544374
0.000546692
0.000548847
0.000550835
0.000552653
0.000554301
0.000555776
0.000557078
0.000558208
0.000559166
0.000559954
0.000560575
0.000561031
0.000561328
0.000561468
0.000561458
0.000561304
0.000561012
0.000560589
0.000560042
0.000559381
0.000558613
0.000557748
0.000556794
0.000555762
0.000554661
0.000553502
0.000552293
0.000551045
0.00054977
0.000548476
0.000547173
0.000545871
0.000544579
0.000543304
0.000542057
0.000540843
0.000539669
0.000538539
0.000537457
0.000536427
0.000535448
0.000534513
0.000533628
0.000532777
0.000531938
0.000531094
0.000530165
0.000528894
0.00052662
0.000522629
0.000517909
0.00051284
0.000507479
0.000501818
0.000495835
0.0004895
0.000482782
0.00047565
0.000468072
0.00046002
0.000451467
0.00044239
0.000432768
0.000422586
0.000411835
0.000400492
0.000388538
0.000375854
0.000362323
0.000347434
0.000329388
0.000315424
0.000301299
0.000291296
0.000316783
0.000290246
3.0481e-06
4.89395e-05
0.000101028
0.000140096
0.000168397
0.000189421
0.000206072
0.000220575
0.0002344
0.000248304
0.00026251
0.000276941
0.000291414
0.000305747
0.000319808
0.000333516
0.000346824
0.000359708
0.00037215
0.000384135
0.00039565
0.000406686
0.000417227
0.000427236
0.000436622
0.000445232
0.000452875
0.000459428
0.000464994
0.000470024
0.000475312
0.000481781
0.000489759
0.000497987
0.000506662
0.000517444
0.000524962
0.000531702
0.000539873
0.000547727
0.000553667
0.000562138
0.00057169
0.000582181
0.00059013
0.00059612
0.000603742
0.000612347
0.000621149
0.000629825
0.000638471
0.000647111
0.000655752
0.000664399
0.000673059
0.000681739
0.000690449
0.000699196
0.000707987
0.00071683
0.00072573
0.000734693
0.000743721
0.000752819
0.000761989
0.00077123
0.000780544
0.000789928
0.000799381
0.000808898
0.000818474
0.000828101
0.000837769
0.000847467
0.000857181
0.000866892
0.000876581
0.000886225
0.000895803
0.000905137
0.000914329
0.000923455
0.000932533
0.000941561
0.000950531
0.000959432
0.000968249
0.000976971
0.000985583
0.000994071
0.00100242
0.00101062
0.00101864
0.00102648
0.00103413
0.00104156
0.00104876
0.00105571
0.00106241
0.00106884
0.00107498
0.00108082
0.00108636
0.00109157
0.00109646
0.00110101
0.00110521
0.00110906
0.00111256
0.00111569
0.00111847
0.00112088
0.00112293
0.00112462
0.00112595
0.00112694
0.00112758
0.00112788
0.00112786
0.00112753
0.00112689
0.00112596
0.00112476
0.00112329
0.00112158
0.00111963
0.00111747
0.00111512
0.00111258
0.00110989
0.00110705
0.00110408
0.001101
0.00109782
0.00109457
0.00109126
0.00108789
0.00108449
0.00108107
0.00107763
0.00107419
0.00107075
0.00106731
0.00106388
0.00106045
0.001057
0.00105355
0.00105006
0.00104647
0.00104273
0.0010387
0.00103403
0.00102817
0.00102081
0.00101254
0.00100367
0.000994301
0.00098441
0.000973959
0.000962894
0.000951156
0.000938683
0.000925415
0.000911292
0.000896258
0.000880263
0.000863264
0.000845225
0.000826116
0.000805912
0.000784581
0.00076204
0.000738217
0.000712959
0.000687162
0.000661947
0.000638697
0.000618504
0.000609607
0.000593054
4.8311e-06
6.27015e-05
0.000126858
0.000175469
0.000211465
0.00023854
0.000259791
0.000277649
0.000293865
0.000309544
0.00032526
0.000341224
0.000357441
0.000373831
0.000390302
0.000406773
0.000423179
0.000439476
0.000455626
0.000471602
0.000487388
0.000502976
0.000518364
0.000533543
0.000548486
0.000563147
0.000577476
0.000591466
0.000605204
0.000618888
0.00063278
0.000647082
0.000661769
0.000676556
0.000691318
0.000705981
0.000720128
0.000734019
0.000747911
0.000761606
0.000774983
0.00078845
0.000801907
0.000815258
0.000828177
0.000840731
0.000853317
0.00086602
0.000878756
0.000891432
0.000904038
0.000916584
0.000929085
0.000941561
0.000954027
0.0009665
0.000978992
0.000991516
0.00100408
0.0010167
0.00102938
0.00104213
0.00105494
0.00106783
0.0010808
0.00109384
0.00110696
0.00112016
0.00113342
0.00114674
0.00116012
0.00117354
0.001187
0.00120048
0.00121396
0.00122742
0.00124085
0.00125423
0.00126749
0.00128057
0.00129356
0.00130647
0.00131933
0.00133211
0.00134482
0.00135743
0.00136993
0.0013823
0.00139453
0.00140659
0.00141847
0.00143015
0.0014416
0.0014528
0.00146374
0.00147439
0.00148474
0.00149476
0.00150443
0.00151374
0.00152266
0.00153118
0.00153928
0.00154695
0.00155416
0.00156091
0.00156718
0.00157296
0.00157825
0.00158304
0.00158731
0.00159108
0.00159433
0.00159706
0.00159929
0.00160101
0.00160223
0.00160295
0.00160319
0.00160296
0.00160228
0.00160114
0.00159959
0.00159762
0.00159526
0.00159252
0.00158944
0.00158602
0.00158229
0.00157826
0.00157397
0.00156943
0.00156465
0.00155967
0.0015545
0.00154916
0.00154365
0.00153801
0.00153223
0.00152634
0.00152035
0.00151424
0.00150804
0.00150174
0.00149533
0.0014888
0.00148214
0.00147532
0.00146828
0.00146092
0.0014531
0.00144456
0.00143498
0.00142424
0.00141261
0.00140027
0.0013873
0.00137366
0.00135933
0.00134422
0.00132828
0.00131143
0.0012936
0.00127472
0.00125472
0.00123354
0.00121113
0.00118744
0.00116243
0.00113609
0.00110838
0.00107929
0.00104881
0.00101703
0.000984732
0.000952361
0.000921137
0.000891832
0.000866564
0.000841265
6.52334e-06
7.29369e-05
0.000146218
0.000203079
0.000245901
0.000278503
0.000304152
0.000325436
0.000344293
0.000362062
0.00037957
0.000397259
0.000415314
0.000433772
0.000452601
0.000471743
0.000491136
0.000510721
0.000530449
0.000550279
0.00057018
0.000590132
0.000610122
0.000630134
0.000650147
0.000670133
0.00069006
0.00070991
0.000729693
0.000749447
0.000769215
0.000789009
0.000808778
0.000828424
0.000847865
0.00086704
0.000885892
0.000904437
0.000922701
0.000940664
0.00095832
0.000975719
0.000992867
0.00100976
0.0010264
0.00104279
0.00105901
0.0010751
0.00109108
0.00110694
0.00112268
0.00113833
0.00115389
0.0011694
0.00118487
0.00120033
0.00121578
0.00123125
0.00124675
0.00126228
0.00127786
0.0012935
0.0013092
0.00132496
0.00134079
0.00135669
0.00137265
0.00138868
0.00140476
0.0014209
0.00143708
0.0014533
0.00146954
0.00148579
0.00150203
0.00151825
0.00153444
0.00155058
0.00156657
0.00158245
0.00159826
0.00161399
0.00162966
0.00164527
0.00166078
0.0016762
0.00169149
0.00170665
0.00172165
0.00173647
0.00175109
0.00176549
0.00177964
0.00179352
0.00180711
0.00182037
0.0018333
0.00184585
0.00185802
0.00186977
0.00188109
0.00189194
0.00190231
0.00191218
0.00192152
0.00193032
0.00193856
0.00194622
0.0019533
0.00195977
0.00196562
0.00197086
0.00197546
0.00197944
0.00198278
0.00198548
0.00198756
0.00198901
0.00198984
0.00199006
0.00198968
0.00198872
0.00198718
0.00198509
0.00198245
0.0019793
0.00197566
0.00197153
0.00196694
0.00196192
0.00195648
0.00195064
0.00194444
0.00193788
0.001931
0.0019238
0.0019163
0.00190851
0.00190047
0.00189218
0.00188364
0.00187485
0.00186583
0.00185658
0.0018471
0.00183736
0.00182736
0.00181705
0.00180639
0.00179528
0.00178361
0.00177122
0.00175792
0.00174366
0.00172856
0.0017127
0.00169612
0.0016788
0.00166068
0.00164173
0.00162186
0.00160101
0.00157911
0.00155609
0.00153188
0.00150643
0.00147968
0.00145159
0.00142213
0.00139129
0.00135904
0.00132541
0.00129043
0.00125425
0.00121734
0.00118008
0.00114322
0.0011074
0.00107337
0.00104009
7.97141e-06
8.05364e-05
0.000161182
0.000224959
0.000273798
0.000311503
0.0003414
0.00036616
0.000387834
0.000407918
0.000427422
0.000446969
0.000466901
0.000487367
0.000508408
0.000530001
0.000552094
0.000574626
0.000597534
0.00062076
0.000644256
0.000667976
0.000691885
0.000715944
0.000740116
0.000764356
0.000788619
0.000812861
0.000837045
0.000861141
0.00088512
0.000908945
0.000932566
0.000955928
0.00097898
0.00100168
0.00102401
0.00104596
0.00106751
0.00108868
0.00110947
0.00112991
0.00115
0.00116976
0.00118922
0.0012084
0.00122734
0.00124605
0.00126457
0.00128291
0.00130109
0.00131913
0.00133706
0.0013549
0.00137268
0.00139041
0.00140811
0.0014258
0.00144349
0.0014612
0.00147893
0.0014967
0.00151451
0.00153236
0.00155026
0.00156822
0.00158622
0.00160427
0.00162237
0.0016405
0.00165867
0.00167686
0.00169506
0.00171327
0.00173147
0.00174965
0.00176779
0.00178587
0.00180384
0.00182172
0.00183955
0.00185733
0.00187505
0.00189271
0.00191029
0.00192779
0.00194517
0.00196243
0.00197954
0.00199648
0.00201323
0.00202977
0.00204607
0.0020621
0.00207784
0.00209326
0.00210834
0.00212304
0.00213735
0.00215123
0.00216466
0.00217761
0.00219005
0.00220196
0.00221331
0.00222408
0.00223424
0.00224377
0.00225266
0.00226088
0.00226842
0.00227525
0.00228138
0.00228678
0.00229146
0.0022954
0.0022986
0.00230107
0.00230279
0.00230379
0.00230405
0.00230359
0.00230243
0.00230057
0.00229803
0.00229482
0.00229096
0.00228647
0.00228137
0.00227568
0.00226941
0.00226259
0.00225524
0.00224739
0.00223904
0.00223022
0.00222094
0.00221122
0.00220108
0.00219053
0.00217959
0.00216825
0.00215653
0.00214443
0.00213194
0.00211906
0.00210576
0.00209202
0.0020778
0.00206304
0.00204764
0.00203151
0.00201454
0.00199672
0.00197808
0.00195865
0.00193846
0.00191747
0.00189566
0.00187298
0.00184937
0.00182477
0.00179913
0.00177239
0.00174449
0.00171538
0.00168503
0.0016534
0.00162047
0.00158623
0.00155068
0.00151385
0.00147581
0.00143669
0.00139676
0.00135637
0.001316
0.00127614
0.00123722
0.00119936
9.04831e-06
8.62933e-05
0.000172619
0.000242072
0.000296151
0.000338533
0.000372508
0.000400752
0.000425364
0.000447929
0.000469578
0.000491071
0.000512875
0.000535243
0.000558287
0.000582028
0.000606435
0.000631449
0.000657002
0.000683021
0.000709437
0.000736186
0.000763204
0.000790435
0.000817816
0.000845289
0.000872789
0.000900257
0.000927632
0.00095486
0.000981889
0.00100867
0.00103515
0.00106129
0.00108704
0.00111239
0.0011373
0.00116177
0.00118579
0.00120937
0.00123252
0.00125525
0.00127758
0.00129953
0.00132113
0.00134239
0.00136336
0.00138405
0.00140449
0.00142471
0.00144473
0.00146458
0.00148428
0.00150385
0.00152333
0.00154273
0.00156207
0.00158136
0.00160064
0.0016199
0.00163916
0.00165842
0.00167771
0.00169702
0.00171635
0.00173572
0.00175511
0.00177454
0.00179399
0.00181347
0.00183298
0.00185249
0.00187202
0.00189154
0.00191106
0.00193056
0.00195004
0.00196943
0.00198875
0.00200802
0.00202727
0.00204649
0.00206567
0.00208482
0.00210391
0.00212294
0.00214189
0.00216075
0.00217948
0.00219808
0.00221651
0.00223476
0.0022528
0.00227061
0.00228815
0.0023054
0.00232234
0.00233892
0.00235513
0.00237093
0.00238629
0.00240118
0.00241557
0.00242943
0.00244273
0.00245543
0.00246751
0.00247894
0.0024897
0.00249975
0.00250908
0.00251766
0.00252547
0.00253249
0.00253871
0.00254412
0.0025487
0.00255244
0.00255534
0.0025574
0.00255862
0.00255899
0.00255852
0.00255722
0.0025551
0.00255217
0.00254844
0.00254392
0.00253864
0.0025326
0.00252581
0.00251832
0.00251012
0.00250125
0.00249172
0.00248155
0.00247074
0.00245933
0.00244733
0.00243476
0.00242161
0.00240791
0.00239367
0.00237888
0.00236355
0.00234767
0.00233124
0.00231423
0.00229661
0.00227835
0.00225939
0.00223967
0.00221914
0.00219777
0.0021756
0.00215262
0.00212885
0.00210427
0.00207885
0.00205257
0.00202539
0.00199727
0.00196816
0.00193803
0.00190684
0.00187456
0.00184116
0.00180663
0.00177095
0.00173412
0.00169616
0.00165712
0.00161705
0.00157606
0.00153433
0.00149214
0.00144983
0.00140778
0.00136627
0.00132568
9.8239e-06
9.03757e-05
0.000180953
0.000254995
0.000313581
0.000360193
0.000398018
0.000429681
0.00045727
0.000482404
0.000506284
0.000529758
0.00055339
0.00057752
0.000602327
0.000627879
0.000654174
0.000681167
0.000708789
0.000736961
0.000765602
0.000794631
0.000823968
0.000853538
0.000883265
0.000913075
0.000942895
0.000972654
0.00100228
0.00103172
0.0010609
0.00108978
0.00111831
0.00114644
0.00117415
0.0012014
0.00122818
0.00125448
0.00128029
0.00130562
0.00133048
0.00135488
0.00137884
0.00140238
0.00142553
0.00144831
0.00147075
0.00149287
0.0015147
0.00153628
0.00155762
0.00157875
0.0015997
0.00162049
0.00164116
0.00166171
0.00168217
0.00170256
0.0017229
0.00174319
0.00176346
0.00178371
0.00180395
0.00182419
0.00184444
0.0018647
0.00188497
0.00190525
0.00192555
0.00194586
0.00196619
0.00198652
0.00200687
0.00202721
0.00204754
0.00206787
0.00208817
0.00210841
0.00212863
0.00214884
0.00216905
0.00218926
0.00220948
0.00222969
0.00224989
0.00227006
0.0022902
0.00231028
0.00233028
0.0023502
0.00237
0.00238966
0.00240916
0.00242848
0.00244759
0.00246645
0.00248503
0.00250332
0.00252126
0.00253884
0.00255602
0.00257277
0.00258904
0.00260481
0.00262003
0.00263467
0.00264869
0.00266207
0.00267476
0.00268675
0.00269798
0.00270844
0.00271809
0.0027269
0.00273486
0.00274194
0.00274812
0.0027534
0.00275773
0.00276113
0.00276357
0.00276506
0.00276559
0.00276516
0.00276377
0.00276143
0.00275813
0.0027539
0.00274875
0.00274267
0.0027357
0.00272783
0.0027191
0.00270951
0.00269908
0.00268784
0.00267579
0.00266295
0.00264934
0.00263497
0.00261987
0.00260403
0.00258748
0.00257022
0.00255225
0.00253359
0.00251421
0.00249413
0.00247331
0.00245175
0.00242941
0.00240626
0.00238228
0.00235746
0.00233181
0.00230534
0.00227806
0.00224997
0.00222107
0.00219133
0.00216074
0.00212928
0.00209695
0.00206371
0.00202956
0.00199449
0.00195848
0.00192155
0.00188368
0.00184489
0.00180521
0.00176469
0.00172337
0.00168135
0.00163874
0.00159577
0.00155266
0.0015097
0.00146708
0.00142515
1.03289e-05
9.2974e-05
0.000186545
0.000264194
0.000326583
0.00037695
0.000418334
0.000453263
0.000483777
0.00051148
0.000537598
0.000563032
0.000588409
0.000614138
0.000640456
0.000667481
0.000695244
0.00072372
0.000752852
0.000782564
0.000812769
0.00084338
0.000874309
0.000905469
0.000936776
0.000968148
0.000999506
0.00103078
0.00106189
0.00109277
0.00112337
0.00115363
0.00118351
0.00121296
0.00124196
0.00127048
0.0012985
0.00132601
0.00135302
0.00137952
0.00140552
0.00143104
0.00145609
0.0014807
0.00150488
0.00152866
0.00155207
0.00157514
0.00159788
0.00162034
0.00164253
0.00166449
0.00168623
0.00170779
0.00172919
0.00175045
0.0017716
0.00179264
0.00181361
0.00183451
0.00185535
0.00187616
0.00189693
0.00191769
0.00193843
0.00195917
0.0019799
0.00200063
0.00202137
0.00204212
0.00206287
0.00208363
0.0021044
0.00212517
0.00214595
0.00216673
0.00218749
0.00220824
0.00222901
0.00224981
0.00227066
0.00229155
0.00231249
0.00233347
0.00235448
0.00237552
0.00239657
0.00241762
0.00243865
0.00245965
0.0024806
0.00250147
0.00252224
0.00254289
0.00256339
0.0025837
0.00260381
0.00262367
0.00264325
0.00266252
0.00268145
0.00269999
0.00271811
0.00273576
0.0027529
0.0027695
0.0027855
0.00280088
0.00281559
0.00282959
0.00284285
0.00285531
0.00286694
0.00287771
0.00288758
0.00289653
0.00290453
0.00291155
0.00291755
0.00292253
0.00292646
0.00292933
0.00293113
0.00293185
0.00293148
0.00293002
0.00292747
0.00292383
0.00291911
0.00291331
0.00290644
0.00289852
0.00288954
0.00287953
0.0028685
0.00285647
0.00284345
0.00282946
0.00281451
0.00279862
0.00278181
0.00276409
0.00274547
0.00272597
0.0027056
0.00268436
0.00266227
0.00263932
0.00261552
0.00259085
0.00256531
0.00253889
0.00251159
0.00248343
0.0024544
0.00242454
0.00239385
0.00236236
0.00233008
0.00229701
0.00226317
0.00222856
0.0021932
0.00215709
0.00212025
0.00208269
0.00204443
0.00200548
0.00196587
0.00192562
0.00188476
0.00184334
0.0018014
0.00175901
0.00171625
0.00167326
0.00163021
0.00158727
0.00154455
0.0015023
1.05941e-05
9.43062e-05
0.00018976
0.000270108
0.000335611
0.000389231
0.000433823
0.000471787
0.00050508
0.000535262
0.00056355
0.000590861
0.000617861
0.000645006
0.000672583
0.000700754
0.000729587
0.000759085
0.000789208
0.000819892
0.000851056
0.000882613
0.000914474
0.000946549
0.000978751
0.001011
0.0010432
0.0010753
0.00110721
0.00113887
0.00117023
0.00120123
0.00123183
0.00126198
0.00129167
0.00132086
0.00134954
0.00137771
0.00140536
0.00143248
0.0014591
0.00148522
0.00151085
0.00153602
0.00156075
0.00158506
0.00160898
0.00163253
0.00165575
0.00167865
0.00170127
0.00172364
0.00174577
0.00176769
0.00178944
0.00181102
0.00183247
0.0018538
0.00187502
0.00189617
0.00191724
0.00193825
0.00195922
0.00198016
0.00200106
0.00202195
0.00204283
0.0020637
0.00208457
0.00210545
0.00212633
0.00214722
0.00216813
0.00218905
0.00220999
0.00223094
0.00225191
0.00227293
0.00229402
0.0023152
0.00233646
0.00235782
0.00237927
0.00240082
0.00242245
0.00244417
0.00246595
0.0024878
0.0025097
0.00253163
0.00255357
0.0025755
0.00259741
0.00261927
0.00264105
0.00266271
0.00268424
0.00270559
0.00272674
0.00274764
0.00276826
0.00278857
0.00280851
0.00282805
0.00284712
0.00286569
0.00288371
0.00290114
0.00291792
0.00293402
0.00294941
0.00296398
0.00297772
0.00299058
0.00300252
0.00301351
0.00302349
0.00303245
0.00304033
0.00304711
0.00305277
0.00305727
0.0030606
0.00306274
0.00306367
0.00306337
0.00306185
0.0030591
0.00305511
0.00304988
0.00304341
0.00303571
0.00302679
0.00301666
0.00300532
0.00299279
0.00297908
0.00296421
0.0029482
0.00293106
0.0029128
0.00289345
0.00287302
0.00285153
0.00282899
0.00280542
0.00278083
0.00275524
0.00272865
0.00270107
0.00267252
0.00264301
0.00261254
0.00258115
0.00254887
0.00251572
0.00248173
0.00244695
0.00241141
0.00237514
0.00233819
0.00230058
0.00226237
0.00222359
0.00218428
0.00214448
0.00210425
0.00206361
0.00202262
0.0019813
0.00193969
0.00189784
0.00185578
0.00181356
0.00177122
0.00172883
0.0016865
0.00164431
0.00160226
0.00156048
1.06526e-05
9.4585e-05
0.000190951
0.000273157
0.000341101
0.000397449
0.000444844
0.000485541
0.000521388
0.000553877
0.000584189
0.000613235
0.000641693
0.00067005
0.00069863
0.000727633
0.000757162
0.000787252
0.000817886
0.000849019
0.000880583
0.000912499
0.000944682
0.000977048
0.00100951
0.00104199
0.00107441
0.00110669
0.00113876
0.00117057
0.00120207
0.00123319
0.0012639
0.00129416
0.00132395
0.00135324
0.00138202
0.00141028
0.00143802
0.00146524
0.00149195
0.00151815
0.00154388
0.00156913
0.00159394
0.00161832
0.0016423
0.00166592
0.00168918
0.00171213
0.00173479
0.00175718
0.00177933
0.00180126
0.00182301
0.00184458
0.00186601
0.00188731
0.0019085
0.0019296
0.00195062
0.00197157
0.00199248
0.00201334
0.00203417
0.00205497
0.00207577
0.00209655
0.00211734
0.00213813
0.00215894
0.00217976
0.00220061
0.00222148
0.00224239
0.00226336
0.00228441
0.00230556
0.00232683
0.00234824
0.00236979
0.00239149
0.00241334
0.00243534
0.00245748
0.00247976
0.00250218
0.00252472
0.00254738
0.00257013
0.00259297
0.00261588
0.00263884
0.00266182
0.0026848
0.00270775
0.00273063
0.00275341
0.00277607
0.00279855
0.00282083
0.00284286
0.00286461
0.00288603
0.00290704
0.00292759
0.00294765
0.00296716
0.00298607
0.00300432
0.00302187
0.00303865
0.0030546
0.00306967
0.00308382
0.00309699
0.00310913
0.00312021
0.00313016
0.00313895
0.00314655
0.00315291
0.003158
0.0031618
0.00316428
0.00316542
0.0031652
0.0031636
0.00316061
0.00315623
0.00315046
0.00314328
0.0031347
0.00312472
0.00311336
0.00310062
0.00308651
0.00307105
0.00305424
0.00303612
0.00301668
0.00299596
0.00297398
0.00295074
0.00292628
0.00290061
0.00287376
0.00284574
0.00281658
0.0027863
0.00275492
0.00272248
0.00268901
0.00265454
0.00261912
0.00258281
0.00254564
0.00250769
0.00246901
0.00242966
0.00238972
0.00234926
0.00230834
0.00226705
0.00222545
0.00218363
0.00214165
0.00209958
0.00205748
0.00201541
0.00197341
0.00193152
0.00188976
0.00184815
0.0018067
0.00176544
0.00172438
0.00168351
0.00164275
0.0016021
1.05377e-05
9.40074e-05
0.00019045
0.00027374
0.000343467
0.000401998
0.000451751
0.000494813
0.000532914
0.000567459
0.000599577
0.000630149
0.000659852
0.000689182
0.000718491
0.000748006
0.000777865
0.000808132
0.000838818
0.000869899
0.000901326
0.000933035
0.000964953
0.000997003
0.00102911
0.00106119
0.00109318
0.00112501
0.00115662
0.00118795
0.00121894
0.00124956
0.00127977
0.00130953
0.00133882
0.00136762
0.00139592
0.00142371
0.00145099
0.00147777
0.00150404
0.00152983
0.00155514
0.00158
0.00160443
0.00162844
0.00165207
0.00167533
0.00169827
0.00172089