/*--------------------------------*- C++ -*----------------------------------*\
  =========                 |
  \\      /  F ield         | OpenFOAM: The Open Source CFD Toolbox
   \\    /   O peration     | Website:  https://openfoam.org
    \\  /    A nd           | Version:  7
     \\/     M anipulation  |
\*---------------------------------------------------------------------------*/
FoamFile
{
    version     2.0;
    format      ascii;
    class       surfaceScalarField;
    location    "0.12";
    object      phi;
}
// * * * * * * * * * * * * * * * * * * * * * * * * * * * * * * * * * * * * * //

dimensions      [0 3 -1 0 0 0 0];

internalField   nonuniform List<scalar> 
24170
(
1.4287e-06
1.65498e-07
1.33475e-06
9.3953e-08
1.25534e-06
7.94115e-08
1.18982e-06
6.55171e-08
1.13927e-06
5.05527e-08
1.09989e-06
3.9379e-08
1.06876e-06
3.11289e-08
1.04384e-06
2.49203e-08
1.02356e-06
2.02784e-08
1.0067e-06
1.68627e-08
9.92377e-07
1.43239e-08
9.80004e-07
1.23736e-08
9.69182e-07
1.08215e-08
9.59619e-07
9.56264e-09
9.5112e-07
8.49969e-09
9.43374e-07
7.74552e-09
9.36472e-07
6.9026e-09
7.82149e-09
9.2865e-07
1.67172e-06
2.02406e-07
1.63058e-06
1.35089e-07
1.58828e-06
1.21711e-07
1.55013e-06
1.03663e-07
1.51642e-06
8.42691e-08
1.48623e-06
6.95644e-08
1.45908e-06
5.82865e-08
1.43488e-06
4.91202e-08
1.41348e-06
4.16733e-08
1.39461e-06
3.57314e-08
1.37795e-06
3.09845e-08
1.3632e-06
2.71293e-08
1.35008e-06
2.39403e-08
1.33836e-06
2.12791e-08
1.32786e-06
1.89959e-08
1.3184e-06
1.7213e-08
1.30994e-06
1.53623e-08
1.52717e-08
1.30249e-06
1.78132e-06
2.52343e-07
1.75686e-06
1.59549e-07
1.73621e-06
1.42363e-07
1.71734e-06
1.22533e-07
1.6992e-06
1.0241e-07
1.68158e-06
8.71846e-08
1.66457e-06
7.5294e-08
1.64845e-06
6.52404e-08
1.63341e-06
5.67187e-08
1.6195e-06
4.96351e-08
1.60673e-06
4.37557e-08
1.59504e-06
3.88192e-08
1.58436e-06
3.46229e-08
1.5746e-06
3.10344e-08
1.56568e-06
2.79178e-08
1.55759e-06
2.53052e-08
1.55012e-06
2.28342e-08
2.12167e-08
1.54417e-06
1.91834e-06
2.96697e-07
1.89272e-06
1.85168e-07
1.8764e-06
1.58688e-07
1.86338e-06
1.35549e-07
1.85155e-06
1.14237e-07
1.84044e-06
9.83024e-08
1.82985e-06
8.58847e-08
1.81975e-06
7.53372e-08
1.81017e-06
6.62933e-08
1.80115e-06
5.86558e-08
1.7927e-06
5.2208e-08
1.78481e-06
4.67061e-08
1.77748e-06
4.19616e-08
1.77067e-06
3.78448e-08
1.76435e-06
3.42352e-08
1.75856e-06
3.10931e-08
1.75318e-06
2.82127e-08
2.57184e-08
1.74868e-06
2.0682e-06
3.32058e-07
2.04091e-06
2.1246e-07
2.02434e-06
1.75257e-07
2.01235e-06
1.47542e-07
2.00249e-06
1.24092e-07
1.99402e-06
1.06778e-07
1.98647e-06
9.34322e-08
1.97957e-06
8.22407e-08
1.97317e-06
7.26872e-08
1.96723e-06
6.45966e-08
1.96171e-06
5.77282e-08
1.95658e-06
5.18339e-08
1.95182e-06
4.67231e-08
1.94741e-06
4.22595e-08
1.94332e-06
3.83255e-08
1.93957e-06
3.48399e-08
1.93611e-06
3.16734e-08
2.87506e-08
1.93308e-06
2.22664e-06
3.59964e-07
2.1998e-06
2.39294e-07
2.18264e-06
1.92424e-07
2.17037e-06
1.59814e-07
2.16079e-06
1.33663e-07
2.15313e-06
1.14447e-07
2.14678e-06
9.9776e-08
2.14134e-06
8.76842e-08
2.13655e-06
7.7476e-08
2.13228e-06
6.88633e-08
2.12845e-06
6.15571e-08
2.125e-06
5.52879e-08
2.12187e-06
4.98514e-08
2.11903e-06
4.5097e-08
2.11646e-06
4.09011e-08
2.11414e-06
3.71596e-08
2.11204e-06
3.37735e-08
3.06204e-08
2.11017e-06
2.39441e-06
3.81915e-07
2.36953e-06
2.64169e-07
2.35224e-06
2.09713e-07
2.3395e-06
1.72559e-07
2.32962e-06
1.4354e-07
2.32196e-06
1.22111e-07
2.31592e-06
1.05814e-07
2.31102e-06
9.25823e-08
2.30695e-06
8.15475e-08
2.30352e-06
7.22974e-08
2.30059e-06
6.44811e-08
2.29808e-06
5.77968e-08
2.29592e-06
5.20173e-08
2.29404e-06
4.69729e-08
2.29242e-06
4.2528e-08
2.29101e-06
3.85648e-08
2.28979e-06
3.49918e-08
3.16878e-08
2.28872e-06
2.57276e-06
3.98947e-07
2.55054e-06
2.86391e-07
2.53368e-06
2.26564e-07
2.5207e-06
1.8554e-07
2.51047e-06
1.53778e-07
2.50254e-06
1.30035e-07
2.49642e-06
1.11935e-07
2.49161e-06
9.73881e-08
2.48778e-06
8.53776e-08
2.48471e-06
7.53749e-08
2.48222e-06
6.69643e-08
2.48021e-06
5.98058e-08
2.47859e-06
5.3644e-08
2.47727e-06
4.82871e-08
2.47622e-06
4.35838e-08
2.47538e-06
3.94057e-08
2.47471e-06
3.56584e-08
3.22315e-08
2.47417e-06
2.76268e-06
4.11934e-07
2.74336e-06
3.05716e-07
2.72745e-06
2.4247e-07
2.71465e-06
1.98341e-07
2.70427e-06
1.64158e-07
2.69612e-06
1.38186e-07
2.68982e-06
1.18239e-07
2.68492e-06
1.02281e-07
2.68111e-06
8.91933e-08
2.67814e-06
7.83468e-08
2.67583e-06
6.92675e-08
2.67406e-06
6.15769e-08
2.67272e-06
5.49894e-08
2.67171e-06
4.92896e-08
2.67099e-06
4.43095e-08
2.67048e-06
3.99098e-08
2.67015e-06
3.59887e-08
3.24432e-08
2.66994e-06
2.96512e-06
4.21699e-07
2.9487e-06
3.22136e-07
2.93414e-06
2.57035e-07
2.92195e-06
2.10532e-07
2.91177e-06
1.74333e-07
2.9036e-06
1.46353e-07
2.89721e-06
1.24632e-07
2.89223e-06
1.07258e-07
2.88838e-06
9.30505e-08
2.88542e-06
8.13089e-08
2.88317e-06
7.15113e-08
2.8815e-06
6.32451e-08
2.8803e-06
5.61964e-08
2.87946e-06
5.01268e-08
2.87892e-06
4.48508e-08
2.87861e-06
4.02186e-08
2.87848e-06
3.61182e-08
3.24491e-08
2.87847e-06
3.18114e-06
4.28968e-07
3.16749e-06
3.35786e-07
3.1545e-06
2.70023e-07
3.14326e-06
2.21771e-07
3.13365e-06
1.83944e-07
3.12576e-06
1.54244e-07
3.11948e-06
1.30907e-07
3.11456e-06
1.12184e-07
3.11073e-06
9.68775e-08
3.1078e-06
8.42369e-08
3.10561e-06
7.37061e-08
3.10401e-06
6.48459e-08
3.10289e-06
5.73177e-08
3.10215e-06
5.08627e-08
3.10172e-06
4.52792e-08
3.10153e-06
4.04063e-08
3.10153e-06
3.61212e-08
3.23228e-08
3.10166e-06
2.86573e-06
4.33653e-07
2.85621e-06
3.45312e-07
2.84651e-06
2.79724e-07
2.8379e-06
2.30376e-07
2.83045e-06
1.91396e-07
2.82423e-06
1.60465e-07
2.81921e-06
1.35924e-07
2.81525e-06
1.16149e-07
2.81216e-06
9.99651e-08
2.8098e-06
8.65958e-08
2.80804e-06
7.54629e-08
2.80678e-06
6.61092e-08
2.80592e-06
5.818e-08
2.80538e-06
5.14012e-08
2.8051e-06
4.5559e-08
2.80502e-06
4.04829e-08
2.8051e-06
3.60439e-08
3.21281e-08
2.80529e-06
3.49499e-06
4.37746e-07
3.48605e-06
3.54247e-07
3.47654e-06
2.89237e-07
3.46788e-06
2.39029e-07
3.46028e-06
1.98999e-07
3.45386e-06
1.66882e-07
3.44865e-06
1.41134e-07
3.44452e-06
1.20281e-07
3.4413e-06
1.0318e-07
3.43886e-06
8.90385e-08
3.43706e-06
7.726e-08
3.4358e-06
6.73733e-08
3.43497e-06
5.90082e-08
3.4345e-06
5.18764e-08
3.4343e-06
4.57517e-08
3.43433e-06
4.04537e-08
3.43453e-06
3.58442e-08
3.18018e-08
3.43486e-06
4.26204e-06
4.41133e-07
4.25416e-06
3.62122e-07
4.24537e-06
2.98028e-07
4.23721e-06
2.47191e-07
4.22998e-06
2.06227e-07
4.22385e-06
1.73013e-07
4.21887e-06
1.4611e-07
4.21496e-06
1.24198e-07
4.21195e-06
1.06185e-07
4.20972e-06
9.12694e-08
4.20814e-06
7.88406e-08
4.2071e-06
6.84151e-08
4.2065e-06
5.96093e-08
4.20625e-06
5.21209e-08
4.20629e-06
4.57116e-08
4.20656e-06
4.01909e-08
4.20699e-06
3.54104e-08
3.12438e-08
4.20755e-06
5.19701e-06
4.43731e-07
5.19068e-06
3.68455e-07
5.18328e-06
3.05424e-07
5.17632e-06
2.54148e-07
5.1702e-06
2.12354e-07
5.16505e-06
1.78158e-07
5.16096e-06
1.50206e-07
5.15785e-06
1.27308e-07
5.15559e-06
1.0844e-07
5.15406e-06
9.27993e-08
5.15314e-06
7.97648e-08
5.15271e-06
6.8841e-08
5.15269e-06
5.96316e-08
5.15299e-06
5.18212e-08
5.15354e-06
4.51594e-08
5.15429e-06
3.94455e-08
5.15518e-06
3.45208e-08
3.02543e-08
5.15617e-06
6.33668e-06
4.4545e-07
6.33239e-06
3.72743e-07
6.32726e-06
3.10554e-07
6.32249e-06
2.58915e-07
6.31848e-06
2.1637e-07
6.31531e-06
1.81321e-07
6.31304e-06
1.52478e-07
6.31161e-06
1.28739e-07
6.31091e-06
1.09143e-07
6.31081e-06
9.28973e-08
6.3112e-06
7.93678e-08
6.312e-06
6.80474e-08
6.3131e-06
5.85279e-08
6.31444e-06
5.04814e-08
6.31596e-06
4.36457e-08
6.31759e-06
3.78097e-08
6.31931e-06
3.28052e-08
2.8497e-08
6.32106e-06
7.72591e-06
4.4613e-07
7.72435e-06
3.74308e-07
7.72269e-06
3.12212e-07
7.72157e-06
2.60034e-07
7.72117e-06
2.16767e-07
7.72148e-06
1.81011e-07
7.72246e-06
1.51504e-07
7.72402e-06
1.27176e-07
7.72607e-06
1.07096e-07
7.72849e-06
9.04748e-08
7.73119e-06
7.66654e-08
7.73409e-06
6.51459e-08
7.73713e-06
5.54955e-08
7.74023e-06
4.73752e-08
7.74337e-06
4.05118e-08
7.74649e-06
3.46853e-08
7.74958e-06
2.97191e-08
2.54748e-08
7.7526e-06
9.41956e-06
4.45387e-07
9.42195e-06
3.7192e-07
9.42573e-06
3.08431e-07
9.43062e-06
2.55142e-07
9.4363e-06
2.1109e-07
9.44248e-06
1.74827e-07
9.44898e-06
1.45007e-07
9.45564e-06
1.20514e-07
9.46235e-06
1.00391e-07
9.469e-06
8.38209e-08
9.47554e-06
7.01283e-08
9.48191e-06
5.87717e-08
9.48809e-06
4.93168e-08
9.49405e-06
4.14141e-08
9.49978e-06
3.47824e-08
9.50527e-06
2.91958e-08
9.51052e-06
2.44727e-08
2.04746e-08
9.51552e-06
1.1485e-05
4.42055e-07
1.14942e-05
3.62713e-07
1.15074e-05
2.95247e-07
1.15227e-05
2.39855e-07
1.15388e-05
1.94979e-07
1.1555e-05
1.58611e-07
1.15709e-05
1.2912e-07
1.15862e-05
1.05236e-07
1.16007e-05
8.58792e-08
1.16144e-05
7.01346e-08
1.16272e-05
5.72729e-08
1.16393e-05
4.67248e-08
1.16505e-05
3.80415e-08
1.16611e-05
3.08657e-08
1.1671e-05
2.49135e-08
1.16802e-05
1.9959e-08
1.16889e-05
1.58222e-08
1.23689e-08
1.1697e-05
8.41018e-06
4.3723e-07
8.42291e-06
3.49975e-07
8.44031e-06
2.77851e-07
8.45946e-06
2.20705e-07
8.47878e-06
1.75655e-07
8.49758e-06
1.39816e-07
8.51543e-06
1.11268e-07
8.53209e-06
8.85747e-08
8.54749e-06
7.04844e-08
8.56165e-06
5.59716e-08
8.57466e-06
4.4264e-08
8.5866e-06
3.47802e-08
8.59758e-06
2.70677e-08
8.60767e-06
2.07706e-08
8.61698e-06
1.56108e-08
8.62556e-06
1.13709e-08
8.63351e-06
7.87881e-09
5.00807e-09
8.64087e-06
7.324e-06
4.30516e-07
7.34146e-06
3.3251e-07
7.36416e-06
2.55153e-07
7.38794e-06
1.96926e-07
7.41115e-06
1.52448e-07
7.4332e-06
1.17767e-07
7.45368e-06
9.07819e-08
7.4724e-06
6.98587e-08
7.48938e-06
5.35086e-08
7.50475e-06
4.05979e-08
7.51867e-06
3.03397e-08
7.5313e-06
2.21575e-08
7.54276e-06
1.56046e-08
7.5532e-06
1.03358e-08
7.56272e-06
6.08728e-09
7.57143e-06
2.65624e-09
7.57943e-06
-1.16056e-10
-2.34567e-09
7.58678e-06
6.37935e-06
4.21235e-07
6.40242e-06
3.09432e-07
6.43037e-06
2.27209e-07
6.45798e-06
1.69315e-07
6.4841e-06
1.2633e-07
6.5084e-06
9.34651e-08
6.53048e-06
6.86958e-08
6.55025e-06
5.00914e-08
6.56788e-06
3.58758e-08
6.58363e-06
2.48527e-08
6.59771e-06
1.62615e-08
6.61032e-06
9.54694e-09
6.62164e-06
4.27814e-09
6.63185e-06
1.3047e-10
6.64107e-06
-3.13765e-09
6.64944e-06
-5.70835e-09
6.65705e-06
-7.72328e-09
-9.28483e-09
6.66399e-06
5.55841e-06
4.08287e-07
5.58817e-06
2.79673e-07
5.62109e-06
1.94291e-07
5.65166e-06
1.38743e-07
5.67978e-06
9.82122e-08
5.70534e-06
6.79037e-08
5.72798e-06
4.60587e-08
5.74779e-06
3.02786e-08
5.76515e-06
1.8512e-08
5.78042e-06
9.58751e-09
5.79387e-06
2.8115e-09
5.80575e-06
-2.33699e-09
5.81629e-06
-6.2609e-09
5.82568e-06
-9.25258e-09
5.83406e-06
-1.15227e-08
5.84158e-06
-1.32286e-08
5.84835e-06
-1.44908e-08
-1.53961e-08
5.85446e-06
4.84594e-06
3.89956e-07
4.88335e-06
2.42257e-07
4.92034e-06
1.57309e-07
4.95268e-06
1.06402e-07
4.9817e-06
6.91942e-08
5.00731e-06
4.22849e-08
5.0293e-06
2.40772e-08
5.04806e-06
1.1513e-08
5.06419e-06
2.38513e-09
5.07812e-06
-4.34037e-09
5.09018e-06
-9.25523e-09
5.10068e-06
-1.28314e-08
5.10985e-06
-1.5429e-08
5.11789e-06
-1.72969e-08
5.12498e-06
-1.86093e-08
5.13124e-06
-1.94951e-08
5.1368e-06
-2.00513e-08
-2.03483e-08
5.14176e-06
4.22833e-06
3.64304e-07
4.27412e-06
1.96463e-07
4.31343e-06
1.17997e-07
4.34589e-06
7.3947e-08
4.37438e-06
4.07046e-08
4.39869e-06
1.79703e-08
4.41884e-06
3.92926e-09
4.4356e-06
-5.2455e-09
4.44969e-06
-1.17094e-08
4.46162e-06
-1.62624e-08
4.47173e-06
-1.93738e-08
4.48036e-06
-2.14525e-08
4.48773e-06
-2.28036e-08
4.49406e-06
-2.36271e-08
4.49951e-06
-2.40588e-08
4.50421e-06
-2.41991e-08
4.50828e-06
-2.41213e-08
-2.38818e-08
4.51182e-06
3.69255e-06
3.30401e-07
3.74699e-06
1.4202e-07
3.78678e-06
7.82061e-08
3.81777e-06
4.29581e-08
3.84424e-06
1.42289e-08
3.866e-06
-3.78299e-09
3.88338e-06
-1.34551e-08
3.89744e-06
-1.93017e-08
3.90892e-06
-2.31964e-08
3.91834e-06
-2.56733e-08
3.92605e-06
-2.70836e-08
3.93236e-06
-2.77682e-08
3.93753e-06
-2.79719e-08
3.94175e-06
-2.78455e-08
3.94518e-06
-2.74874e-08
3.94795e-06
-2.6971e-08
3.95017e-06
-2.63451e-08
-2.56534e-08
3.95194e-06
3.22817e-06
2.87266e-07
3.28933e-06
8.08588e-08
3.32811e-06
3.94264e-08
3.35686e-06
1.42091e-08
3.38016e-06
-9.07279e-09
3.39826e-06
-2.18801e-08
3.41201e-06
-2.72108e-08
3.42259e-06
-2.98756e-08
3.4307e-06
-3.13063e-08
3.43682e-06
-3.17971e-08
3.44134e-06
-3.16041e-08
3.44457e-06
-3.10004e-08
3.44677e-06
-3.01681e-08
3.44813e-06
-2.92066e-08
3.44882e-06
-2.81762e-08
3.44897e-06
-2.7122e-08
3.44869e-06
-2.60694e-08
-2.50533e-08
3.44809e-06
2.83411e-06
2.25893e-07
2.8927e-06
2.22613e-08
2.9269e-06
5.23378e-09
2.95233e-06
-1.12204e-08
2.97135e-06
-2.80967e-08
2.98446e-06
-3.49891e-08
2.99312e-06
-3.58774e-08
2.99846e-06
-3.52061e-08
3.00127e-06
-3.412e-08
3.00216e-06
-3.26863e-08
3.00159e-06
-3.10369e-08
2.99993e-06
-2.93413e-08
2.99746e-06
-2.76947e-08
2.99438e-06
-2.61307e-08
2.99087e-06
-2.46616e-08
2.98705e-06
-2.3303e-08
2.98303e-06
-2.2055e-08
-2.09322e-08
2.97891e-06
2.52607e-06
1.13627e-07
2.5595e-06
-1.11721e-08
2.57815e-06
-1.34176e-08
2.5924e-06
-2.54697e-08
2.60113e-06
-3.6819e-08
2.60369e-06
-3.75504e-08
2.60143e-06
-3.362e-08
2.59585e-06
-2.96223e-08
2.58812e-06
-2.63981e-08
2.57915e-06
-2.37096e-08
2.5695e-06
-2.13938e-08
2.55957e-06
-1.94029e-08
2.54957e-06
-1.76946e-08
2.53965e-06
-1.62184e-08
2.52993e-06
-1.49339e-08
2.52045e-06
-1.38306e-08
2.51131e-06
-1.29153e-08
-1.24462e-08
2.50283e-06
2.21497e-06
2.20379e-06
2.19038e-06
2.16491e-06
2.12809e-06
2.09054e-06
2.05692e-06
2.02729e-06
2.0009e-06
1.97719e-06
1.95579e-06
1.93639e-06
1.9187e-06
1.90248e-06
1.88754e-06
1.87371e-06
1.8608e-06
1.84835e-06
1.15838e-08
-1.15838e-08
2.51768e-08
-1.35931e-08
3.48965e-08
-9.71968e-09
3.87518e-08
-3.85525e-09
3.60426e-08
2.70921e-09
2.70978e-08
8.94473e-09
1.28287e-08
1.42692e-08
-5.55646e-09
1.83851e-08
-2.69289e-08
2.13724e-08
-5.04688e-08
2.354e-08
-7.56796e-08
2.52108e-08
-1.02308e-07
2.6628e-08
-1.30228e-07
2.79206e-08
-1.59357e-07
2.91293e-08
-1.896e-07
3.0243e-08
-2.20828e-07
3.12273e-08
-2.52872e-07
3.2044e-08
-2.85534e-07
3.26623e-08
-3.18599e-07
3.30655e-08
-3.51853e-07
3.32541e-08
-3.85098e-07
3.32446e-08
-4.18157e-07
3.30593e-08
-4.50864e-07
3.27064e-08
-4.83027e-07
3.21631e-08
-5.14423e-07
3.13964e-08
-5.44864e-07
3.04406e-08
-5.74362e-07
2.94977e-08
-6.03295e-07
2.89335e-08
-6.32068e-07
2.87731e-08
-6.6077e-07
2.87012e-08
-6.89504e-07
2.87341e-08
-7.1553e-07
2.6026e-08
-7.40011e-07
2.44816e-08
-7.61386e-07
2.13749e-08
-7.82004e-07
2.06178e-08
-8.04593e-07
2.25887e-08
-8.28517e-07
2.39239e-08
-8.5269e-07
2.41736e-08
-8.69652e-07
1.69619e-08
-8.85905e-07
1.62526e-08
-9.03496e-07
1.75917e-08
-9.21649e-07
1.81524e-08
-9.43831e-07
2.2182e-08
-9.63955e-07
2.01239e-08
-9.73325e-07
9.37054e-09
-9.87981e-07
1.46559e-08
-1.00915e-06
2.11692e-08
-1.02381e-06
1.46619e-08
-1.03537e-06
1.15533e-08
-1.0481e-06
1.2739e-08
-1.06116e-06
1.30597e-08
-1.07428e-06
1.31114e-08
-1.0873e-06
1.30263e-08
-1.10017e-06
1.28663e-08
-1.11283e-06
1.26639e-08
-1.12527e-06
1.24355e-08
-1.13746e-06
1.21884e-08
-1.14938e-06
1.19256e-08
-1.16103e-06
1.16475e-08
-1.17238e-06
1.13535e-08
-1.18342e-06
1.10424e-08
-1.19414e-06
1.07127e-08
-1.2045e-06
1.03628e-08
-1.21449e-06
9.99135e-09
-1.22409e-06
9.59666e-09
-1.23327e-06
9.1773e-09
-1.242e-06
8.73181e-09
-1.25026e-06
8.25877e-09
-1.25801e-06
7.75683e-09
-1.26524e-06
7.2246e-09
-1.2719e-06
6.6609e-09
-1.27796e-06
6.06449e-09
-1.2834e-06
5.43433e-09
-1.28817e-06
4.76875e-09
-1.29223e-06
4.06513e-09
-1.29555e-06
3.32046e-09
-1.29808e-06
2.5311e-09
-1.29978e-06
1.69662e-09
-1.3006e-06
8.20896e-10
-1.3005e-06
-9.78199e-11
-1.29964e-06
-8.598e-10
-1.29802e-06
-1.62664e-09
-1.29563e-06
-2.38171e-09
-1.2925e-06
-3.13528e-09
-1.28861e-06
-3.89093e-09
-1.28396e-06
-4.64869e-09
-1.27855e-06
-5.40698e-09
-1.27239e-06
-6.16353e-09
-1.26547e-06
-6.91561e-09
-1.25781e-06
-7.66031e-09
-1.24942e-06
-8.39462e-09
-1.2403e-06
-9.1154e-09
-1.23048e-06
-9.81956e-09
-1.21998e-06
-1.0504e-08
-1.20881e-06
-1.11656e-08
-1.19701e-06
-1.18014e-08
-1.1846e-06
-1.24085e-08
-1.17162e-06
-1.29843e-08
-1.15809e-06
-1.35259e-08
-1.14406e-06
-1.40313e-08
-1.12956e-06
-1.44981e-08
-1.11464e-06
-1.49245e-08
-1.09933e-06
-1.53091e-08
-1.08368e-06
-1.56507e-08
-1.06773e-06
-1.59484e-08
-1.05153e-06
-1.62019e-08
-1.03512e-06
-1.64113e-08
-1.01854e-06
-1.6577e-08
-1.00184e-06
-1.66999e-08
-9.8506e-07
-1.67817e-08
-9.68236e-07
-1.68242e-08
-9.51406e-07
-1.68297e-08
-9.34605e-07
-1.68012e-08
-9.17863e-07
-1.67421e-08
-9.01207e-07
-1.66563e-08
-8.84658e-07
-1.65481e-08
-8.68236e-07
-1.64223e-08
-8.51952e-07
-1.62843e-08
-8.35812e-07
-1.61395e-08
-8.19818e-07
-1.5994e-08
-8.03964e-07
-1.5854e-08
-7.88238e-07
-1.57261e-08
-7.72621e-07
-1.56172e-08
-7.57087e-07
-1.55343e-08
-7.41602e-07
-1.54846e-08
-7.26127e-07
-1.54753e-08
-7.10613e-07
-1.55139e-08
-6.95005e-07
-1.56076e-08
-6.79241e-07
-1.5764e-08
-6.63251e-07
-1.59902e-08
-6.46958e-07
-1.62934e-08
-6.30277e-07
-1.66803e-08
-6.1312e-07
-1.71575e-08
-5.95389e-07
-1.77315e-08
-5.7698e-07
-1.84086e-08
-5.57785e-07
-1.91945e-08
-5.37691e-07
-2.00943e-08
-5.16579e-07
-2.11123e-08
-4.94326e-07
-2.22527e-08
-4.70807e-07
-2.35193e-08
-4.45892e-07
-2.4915e-08
-4.19451e-07
-2.6441e-08
-3.91354e-07
-2.80973e-08
-3.61469e-07
-2.98841e-08
-3.29669e-07
-3.18005e-08
-2.95829e-07
-3.38405e-08
-2.59829e-07
-3.59996e-08
-2.21557e-07
-3.8272e-08
-1.80912e-07
-4.06451e-08
-1.37804e-07
-4.31083e-08
-9.21529e-08
-4.56506e-08
-4.39051e-08
-4.82478e-08
6.97513e-09
-5.08803e-08
6.05539e-08
-5.35788e-08
1.16864e-07
-5.63103e-08
1.75883e-07
-5.90193e-08
2.3757e-07
-6.16861e-08
3.01841e-07
-6.42712e-08
3.68573e-07
-6.67324e-08
4.37599e-07
-6.90256e-08
5.08705e-07
-7.11058e-08
5.8163e-07
-7.29257e-08
6.56068e-07
-7.44379e-08
7.31662e-07
-7.55934e-08
8.08011e-07
-7.6349e-08
8.84653e-07
-7.66425e-08
9.61109e-07
-7.64558e-08
1.03688e-06
-7.57679e-08
1.11135e-06
-7.44719e-08
1.18415e-06
-7.27985e-08
1.25476e-06
-7.06093e-08
1.32302e-06
-6.82669e-08
1.38953e-06
-6.65018e-08
1.44737e-06
-5.78495e-08
1.50103e-06
-5.36546e-08
1.54896e-06
-4.79277e-08
1.58613e-06
-3.71751e-08
1.61447e-06
-2.83333e-08
1.60823e-06
6.23897e-09
6.1311e-08
1.54692e-06
1.02662e-08
-2.185e-08
1.36735e-08
-1.70004e-08
1.08827e-08
-6.92887e-09
3.57339e-09
3.45407e-09
-7.27929e-09
1.35619e-08
-2.13292e-08
2.29947e-08
-3.84616e-08
3.14016e-08
-5.86023e-08
3.85258e-08
-8.15605e-08
4.43307e-08
-1.07016e-07
4.89957e-08
-1.34596e-07
5.27907e-08
-1.63931e-07
5.5963e-08
-1.94692e-07
5.8681e-08
-2.2659e-07
6.1028e-08
-2.59372e-07
6.30242e-08
-2.92798e-07
6.46538e-08
-3.26644e-07
6.58894e-08
-3.6069e-07
6.6709e-08
-3.94731e-07
6.71065e-08
-4.28573e-07
6.70958e-08
-4.62036e-07
6.67078e-08
-4.94957e-07
6.59803e-08
-5.27195e-07
6.49441e-08
-5.58649e-07
6.36174e-08
-5.89276e-07
6.20229e-08
-6.19065e-07
6.023e-08
-6.47957e-07
5.83897e-08
-6.75701e-07
5.66777e-08
-7.0204e-07
5.51118e-08
-7.26872e-07
5.35333e-08
-7.49888e-07
5.17505e-08
-7.73187e-07
4.93251e-08
-7.95434e-07
4.67283e-08
-8.18363e-07
4.43038e-08
-8.40059e-07
4.23138e-08
-8.58675e-07
4.12051e-08
-8.74948e-07
4.01965e-08
-8.89695e-07
3.89203e-08
-9.0906e-07
3.63271e-08
-9.27233e-07
3.44255e-08
-9.43217e-07
3.35755e-08
-9.58129e-07
3.30645e-08
-9.68919e-07
3.2972e-08
-9.80329e-07
3.15347e-08
-9.99657e-07
2.86981e-08
-1.01346e-06
2.84546e-08
-1.02141e-06
2.91272e-08
-1.03429e-06
2.7538e-08
-1.04878e-06
2.60441e-08
-1.06156e-06
2.55186e-08
-1.0736e-06
2.50997e-08
-1.08516e-06
2.46691e-08
-1.09635e-06
2.42158e-08
-1.10722e-06
2.37396e-08
-1.1178e-06
2.32408e-08
-1.12808e-06
2.2719e-08
-1.13807e-06
2.21729e-08
-1.14774e-06
2.16003e-08
-1.15709e-06
2.09987e-08
-1.1661e-06
2.03654e-08
-1.17476e-06
1.96977e-08
-1.18304e-06
1.89926e-08
-1.19092e-06
1.82477e-08
-1.19839e-06
1.74605e-08
-1.20542e-06
1.66287e-08
-1.212e-06
1.57505e-08
-1.21809e-06
1.48239e-08
-1.22368e-06
1.38475e-08
-1.22874e-06
1.28202e-08
-1.23326e-06
1.17412e-08
-1.23721e-06
1.06102e-08
-1.24057e-06
9.42734e-09
-1.24333e-06
8.19357e-09
-1.24547e-06
6.91019e-09
-1.24699e-06
5.57932e-09
-1.24787e-06
4.20424e-09
-1.24813e-06
2.79071e-09
-1.24778e-06
1.34969e-09
-1.24686e-06
-1.02985e-10
-1.24538e-06
-1.57374e-09
-1.24321e-06
-3.0277e-09
-1.24034e-06
-4.5036e-09
-1.23672e-06
-5.99712e-09
-1.23235e-06
-7.50453e-09
-1.22722e-06
-9.02241e-09
-1.22132e-06
-1.05467e-08
-1.21466e-06
-1.20727e-08
-1.20723e-06
-1.35952e-08
-1.19903e-06
-1.51087e-08
-1.19009e-06
-1.66072e-08
-1.1804e-06
-1.80847e-08
-1.16998e-06
-1.95351e-08
-1.15884e-06
-2.09521e-08
-1.14702e-06
-2.23294e-08
-1.13452e-06
-2.3661e-08
-1.12138e-06
-2.49408e-08
-1.10763e-06
-2.6163e-08
-1.09329e-06
-2.7322e-08
-1.0784e-06
-2.84126e-08
-1.06301e-06
-2.94302e-08
-1.04713e-06
-3.03703e-08
-1.03083e-06
-3.12291e-08
-1.01413e-06
-3.20036e-08
-9.97094e-07
-3.26913e-08
-9.79752e-07
-3.32903e-08
-9.62154e-07
-3.37997e-08
-9.44346e-07
-3.42195e-08
-9.26372e-07
-3.45506e-08
-9.08278e-07
-3.47946e-08
-8.90105e-07
-3.49545e-08
-8.71895e-07
-3.50338e-08
-8.53688e-07
-3.50372e-08
-8.35519e-07
-3.49703e-08
-8.17421e-07
-3.48399e-08
-7.99424e-07
-3.46535e-08
-7.81552e-07
-3.44198e-08
-7.63826e-07
-3.41484e-08
-7.46261e-07
-3.38497e-08
-7.28865e-07
-3.35347e-08
-7.11644e-07
-3.32156e-08
-6.94593e-07
-3.29049e-08
-6.77703e-07
-3.26158e-08
-6.60958e-07
-3.23622e-08
-6.44334e-07
-3.21583e-08
-6.278e-07
-3.20187e-08
-6.11317e-07
-3.19583e-08
-5.94839e-07
-3.19919e-08
-5.78312e-07
-3.21348e-08
-5.61674e-07
-3.24021e-08
-5.44855e-07
-3.28085e-08
-5.2778e-07
-3.33687e-08
-5.10364e-07
-3.40967e-08
-4.92515e-07
-3.50062e-08
-4.74136e-07
-3.61104e-08
-4.55122e-07
-3.74222e-08
-4.35364e-07
-3.89532e-08
-4.14744e-07
-4.07141e-08
-3.93142e-07
-4.27139e-08
-3.70434e-07
-4.49609e-08
-3.46491e-07
-4.74628e-08
-3.2118e-07
-5.02253e-08
-2.9437e-07
-5.32513e-08
-2.65926e-07
-5.6541e-08
-2.35716e-07
-6.00944e-08
-2.03607e-07
-6.39092e-08
-1.69472e-07
-6.79752e-08
-1.33189e-07
-7.22826e-08
-9.46421e-08
-7.68193e-08
-5.37233e-08
-8.1564e-08
-1.03372e-08
-8.64944e-08
3.56122e-08
-9.16e-08
8.42222e-08
-9.68578e-08
1.35571e-07
-1.02229e-07
1.89681e-07
-1.07689e-07
2.46563e-07
-1.13192e-07
3.0622e-07
-1.18676e-07
3.68609e-07
-1.24075e-07
4.33653e-07
-1.29315e-07
5.01234e-07
-1.34313e-07
5.71192e-07
-1.38984e-07
6.43323e-07
-1.43236e-07
7.17376e-07
-1.46979e-07
7.93052e-07
-1.50115e-07
8.70007e-07
-1.52548e-07
9.47843e-07
-1.54186e-07
1.02613e-06
-1.54926e-07
1.10437e-06
-1.54702e-07
1.18205e-06
-1.53447e-07
1.25865e-06
-1.51072e-07
1.33352e-06
-1.4767e-07
1.40609e-06
-1.43176e-07
1.47543e-06
-1.37606e-07
1.53952e-06
-1.30595e-07
1.60027e-06
-1.18601e-07
1.65384e-06
-1.07223e-07
1.69997e-06
-9.40584e-08
1.73794e-06
-7.51412e-08
1.76251e-06
-5.29001e-08
1.77738e-06
-8.63031e-09
6.47125e-08
1.77397e-06
7.46809e-10
-2.25968e-08
-6.0109e-09
-1.02427e-08
-1.65141e-08
3.57433e-09
-2.95116e-08
1.64516e-08
-4.45112e-08
2.85615e-08
-6.13487e-08
3.98322e-08
-8.00344e-08
5.00873e-08
-1.00665e-07
5.91567e-08
-1.23305e-07
6.69705e-08
-1.47895e-07
7.35853e-08
-1.74247e-07
7.91426e-08
-2.02089e-07
8.38055e-08
-2.31117e-07
8.77087e-08
-2.61028e-07
9.09387e-08
-2.9154e-07
9.35369e-08
-3.22401e-07
9.55148e-08
-3.53385e-07
9.68729e-08
-3.84291e-07
9.7615e-08
-4.14943e-07
9.77586e-08
-4.45184e-07
9.73371e-08
-4.74875e-07
9.63982e-08
-5.0389e-07
9.49959e-08
-5.3213e-07
9.31842e-08
-5.59529e-07
9.10158e-08
-5.86057e-07
8.85511e-08
-6.11699e-07
8.58725e-08
-6.36395e-07
8.30857e-08
-6.60003e-07
8.02851e-08
-6.82396e-07
7.7505e-08
-7.03559e-07
7.46965e-08
-7.23594e-07
7.17857e-08
-7.43031e-07
6.87622e-08
-7.61979e-07
6.56762e-08
-7.80439e-07
6.27637e-08
-7.9823e-07
6.01047e-08
-8.14812e-07
5.77868e-08
-8.30272e-07
5.56572e-08
-8.44898e-07
5.35458e-08
-8.5994e-07
5.13693e-08
-8.74881e-07
4.93664e-08
-8.89035e-07
4.77299e-08
-9.02352e-07
4.6381e-08
-9.14476e-07
4.50957e-08
-9.26543e-07
4.36024e-08
-9.39944e-07
4.20992e-08
-9.52473e-07
4.09833e-08
-9.63442e-07
4.00964e-08
-9.74909e-07
3.90048e-08
-9.86744e-07
3.78789e-08
-9.98184e-07
3.69588e-08
-1.00922e-06
3.61365e-08
-1.01991e-06
3.5357e-08
-1.03028e-06
3.45913e-08
-1.04037e-06
3.38222e-08
-1.05016e-06
3.30381e-08
-1.05968e-06
3.22308e-08
-1.0689e-06
3.13934e-08
-1.07782e-06
3.05201e-08
-1.08642e-06
2.96056e-08
-1.0947e-06
2.86451e-08
-1.10264e-06
2.76343e-08
-1.11022e-06
2.65691e-08
-1.11741e-06
2.54459e-08
-1.12422e-06
2.42614e-08
-1.1306e-06
2.30128e-08
-1.13655e-06
2.16977e-08
-1.14204e-06
2.03141e-08
-1.14705e-06
1.88605e-08
-1.15157e-06
1.73361e-08
-1.15557e-06
1.57406e-08
-1.15903e-06
1.40745e-08
-1.16194e-06
1.2339e-08
-1.16428e-06
1.05362e-08
-1.16604e-06
8.66929e-09
-1.16721e-06
6.74217e-09
-1.16776e-06
4.76017e-09
-1.1677e-06
2.73017e-09
-1.16701e-06
6.58607e-10
-1.16567e-06
-1.44342e-09
-1.16366e-06
-3.57916e-09
-1.16095e-06
-5.74498e-09
-1.15751e-06
-7.94454e-09
-1.15333e-06
-1.01744e-08
-1.1484e-06
-1.2429e-08
-1.14273e-06
-1.47015e-08
-1.13629e-06
-1.69849e-08
-1.12909e-06
-1.92716e-08
-1.12113e-06
-2.15535e-08
-1.11242e-06
-2.38221e-08
-1.10295e-06
-2.60688e-08
-1.09276e-06
-2.82844e-08
-1.08183e-06
-3.04599e-08
-1.0702e-06
-3.25859e-08
-1.05787e-06
-3.46531e-08
-1.04488e-06
-3.66523e-08
-1.03125e-06
-3.85745e-08
-1.017e-06
-4.0411e-08
-1.00217e-06
-4.21534e-08
-9.86787e-07
-4.37939e-08
-9.70892e-07
-4.53254e-08
-9.54521e-07
-4.67411e-08
-9.37715e-07
-4.80354e-08
-9.20515e-07
-4.92035e-08
-9.02965e-07
-5.02413e-08
-8.85109e-07
-5.11461e-08
-8.66992e-07
-5.19163e-08
-8.4866e-07
-5.25515e-08
-8.30158e-07
-5.30528e-08
-8.1153e-07
-5.34226e-08
-7.9282e-07
-5.36648e-08
-7.74069e-07
-5.37846e-08
-7.55317e-07
-5.37887e-08
-7.36602e-07
-5.36854e-08
-7.17958e-07
-5.34843e-08
-6.99415e-07
-5.31966e-08
-6.80999e-07
-5.28351e-08
-6.62734e-07
-5.24138e-08
-6.44636e-07
-5.19481e-08
-6.26716e-07
-5.14546e-08
-6.0898e-07
-5.0951e-08
-5.91429e-07
-5.04563e-08
-5.74055e-07
-4.99901e-08
-5.56844e-07
-4.95731e-08
-5.39776e-07
-4.92267e-08
-5.22821e-07
-4.89728e-08
-5.05946e-07
-4.88338e-08
-4.89106e-07
-4.88323e-08
-4.72249e-07
-4.89912e-08
-4.55318e-07
-4.93333e-08
-4.38245e-07
-4.98812e-08
-4.20957e-07
-5.0657e-08
-4.03372e-07
-5.16822e-08
-3.854e-07
-5.29778e-08
-3.66946e-07
-5.45641e-08
-3.47908e-07
-5.64602e-08
-3.28177e-07
-5.86844e-08
-3.07638e-07
-6.12528e-08
-2.86173e-07
-6.41794e-08
-2.63656e-07
-6.74772e-08
-2.39961e-07
-7.11578e-08
-2.14957e-07
-7.52298e-08
-1.8851e-07
-7.9698e-08
-1.60488e-07
-8.45634e-08
-1.30756e-07
-8.98261e-08
-9.91832e-08
-9.54821e-08
-6.56399e-08
-1.01519e-07
-3.00012e-08
-1.07921e-07
7.85224e-09
-1.14673e-07
4.8038e-08
-1.2175e-07
9.06672e-08
-1.29124e-07
1.35838e-07
-1.3677e-07
1.83643e-07
-1.44663e-07
2.34167e-07
-1.52753e-07
2.87453e-07
-1.60975e-07
3.43506e-07
-1.69246e-07
4.02311e-07
-1.77481e-07
4.63822e-07
-1.85586e-07
5.27961e-07
-1.93453e-07
5.94611e-07
-2.00964e-07
6.63617e-07
-2.0799e-07
7.34781e-07
-2.144e-07
8.07858e-07
-2.20055e-07
8.82557e-07
-2.24813e-07
9.58538e-07
-2.28529e-07
1.03541e-06
-2.31063e-07
1.11276e-06
-2.32271e-07
1.19009e-06
-2.32036e-07
1.2669e-06
-2.30249e-07
1.34262e-06
-2.268e-07
1.41663e-06
-2.21679e-07
1.48823e-06
-2.14775e-07
1.55654e-06
-2.05915e-07
1.62056e-06
-1.9461e-07
1.68099e-06
-1.79035e-07
1.73533e-06
-1.61564e-07
1.78245e-06
-1.4118e-07
1.82194e-06
-1.14631e-07
1.85025e-06
-8.12116e-08
1.87058e-06
-2.89587e-08
4.9541e-08
1.88575e-06
-8.8873e-09
-1.37095e-08
-2.25933e-08
3.4633e-09
-3.78985e-08
1.88796e-08
-5.43389e-08
3.2892e-08
-7.17725e-08
4.59951e-08
-9.02004e-08
5.826e-08
-1.09703e-07
6.95903e-08
-1.30398e-07
7.98517e-08
-1.52377e-07
8.89489e-08
-1.7565e-07
9.68582e-08
-2.00129e-07
1.03621e-07
-2.2564e-07
1.09317e-07
-2.51958e-07
1.14027e-07
-2.7884e-07
1.17821e-07
-3.06047e-07
1.20744e-07
-3.33363e-07
1.2283e-07
-3.60596e-07
1.24106e-07
-3.87585e-07
1.24604e-07
-4.14191e-07
1.24365e-07
-4.403e-07
1.23446e-07
-4.65813e-07
1.21911e-07
-4.90652e-07
1.19835e-07
-5.14759e-07
1.17291e-07
-5.38099e-07
1.14355e-07
-5.60655e-07
1.11107e-07
-5.82416e-07
1.07633e-07
-6.03354e-07
1.04024e-07
-6.23426e-07
1.00357e-07
-6.42601e-07
9.668e-08
-6.60914e-07
9.30095e-08
-6.78468e-07
8.93395e-08
-6.95395e-07
8.5689e-08
-7.11845e-07
8.21269e-08
-7.27812e-07
7.873e-08
-7.43256e-07
7.55492e-08
-7.58078e-07
7.2609e-08
-7.72298e-07
6.98771e-08
-7.86053e-07
6.73009e-08
-7.99534e-07
6.48501e-08
-8.12754e-07
6.25867e-08
-8.25578e-07
6.05533e-08
-8.37915e-07
5.87184e-08
-8.49829e-07
5.70102e-08
-8.61577e-07
5.53495e-08
-8.73247e-07
5.37698e-08
-8.8464e-07
5.23765e-08
-8.95643e-07
5.10993e-08
-9.06465e-07
4.98264e-08
-9.17183e-07
4.85974e-08
-9.27675e-07
4.74507e-08
-9.37904e-07
4.63654e-08
-9.47864e-07
4.53164e-08
-9.57554e-07
4.42821e-08
-9.66978e-07
4.32454e-08
-9.76132e-07
4.21922e-08
-9.85012e-07
4.11112e-08
-9.93611e-07
3.99927e-08
-1.00192e-06
3.88283e-08
-1.00992e-06
3.76108e-08
-1.01761e-06
3.63335e-08
-1.02497e-06
3.49907e-08
-1.03198e-06
3.35772e-08
-1.03862e-06
3.20884e-08
-1.04488e-06
3.05202e-08
-1.05074e-06
2.88691e-08
-1.05617e-06
2.71324e-08
-1.06116e-06
2.53079e-08
-1.0657e-06
2.33939e-08
-1.06975e-06
2.13897e-08
-1.07331e-06
1.92951e-08
-1.07634e-06
1.71111e-08
-1.07884e-06
1.48393e-08
-1.08079e-06
1.24823e-08
-1.08216e-06
1.00437e-08
-1.08295e-06
7.52793e-09
-1.08313e-06
4.94014e-09
-1.08268e-06
2.28623e-09
-1.0816e-06
-4.28109e-10
-1.07984e-06
-3.19718e-09
-1.0774e-06
-6.01845e-09
-1.07426e-06
-8.88962e-09
-1.0704e-06
-1.18081e-08
-1.0658e-06
-1.4768e-08
-1.06047e-06
-1.77616e-08
-1.05439e-06
-2.078e-08
-1.04756e-06
-2.38137e-08
-1.03998e-06
-2.68525e-08
-1.03165e-06
-2.98854e-08
-1.02257e-06
-3.29015e-08
-1.01275e-06
-3.58891e-08
-1.0022e-06
-3.88362e-08
-9.90928e-07
-4.17307e-08
-9.78954e-07
-4.45604e-08
-9.66294e-07
-4.73129e-08
-9.5297e-07
-4.9976e-08
-9.39007e-07
-5.25377e-08
-9.24431e-07
-5.49864e-08
-9.09274e-07
-5.7311e-08
-8.93567e-07
-5.95011e-08
-8.77345e-07
-6.15468e-08
-8.60647e-07
-6.34395e-08
-8.43511e-07
-6.51713e-08
-8.25979e-07
-6.67356e-08
-8.08093e-07
-6.8127e-08
-7.89898e-07
-6.93416e-08
-7.71437e-07
-7.0377e-08
-7.52756e-07
-7.12324e-08
-7.339e-07
-7.19089e-08
-7.14913e-07
-7.24095e-08
-6.95839e-07
-7.27389e-08
-6.7672e-07
-7.29039e-08
-6.57596e-07
-7.2913e-08
-6.38504e-07
-7.27768e-08
-6.19481e-07
-7.25078e-08
-6.00557e-07
-7.21206e-08
-5.8176e-07
-7.16318e-08
-5.63114e-07
-7.10597e-08
-5.44638e-07
-7.04246e-08
-5.26344e-07
-6.97483e-08
-5.08241e-07
-6.90542e-08