/*--------------------------------*- C++ -*----------------------------------*\
  =========                 |
  \\      /  F ield         | OpenFOAM: The Open Source CFD Toolbox
   \\    /   O peration     | Website:  https://openfoam.org
    \\  /    A nd           | Version:  7
     \\/     M anipulation  |
\*---------------------------------------------------------------------------*/
FoamFile
{
    version     2.0;
    format      ascii;
    class       volVectorField;
    location    "0.12";
    object      U;
}
// * * * * * * * * * * * * * * * * * * * * * * * * * * * * * * * * * * * * * //

dimensions      [0 1 -1 0 0 0 0];

internalField   nonuniform List<vector> 
12225
(
(4.73347 -0.57124 0)
(4.31413 -0.430534 0)
(4.03356 -0.17698 0)
(3.82427 -0.0515457 0)
(3.64929 -0.00459542 0)
(3.50637 0.0100302 0)
(3.39537 0.0130852 0)
(3.3091 0.0124787 0)
(3.23969 0.0110567 0)
(3.18216 0.00972185 0)
(3.13361 0.00865316 0)
(3.09204 0.00780854 0)
(3.0559 0.00711737 0)
(3.02412 0.00653586 0)
(2.99579 0.00603215 0)
(2.97104 0.00559568 0)
(2.9458 0.00575068 0)
(2.93496 0.00341106 0)
(5.02997 0.295076 0)
(4.84219 0.245064 0)
(4.69193 0.169891 0)
(4.58573 0.107155 0)
(4.48708 0.070544 0)
(4.39247 0.0517339 0)
(4.30742 0.0412446 0)
(4.23258 0.0343057 0)
(4.16631 0.0292373 0)
(4.10757 0.0254325 0)
(4.05568 0.0225275 0)
(4.00986 0.0202495 0)
(3.96922 0.0184109 0)
(3.93303 0.0169102 0)
(3.90056 0.0156132 0)
(3.87164 0.014773 0)
(3.84491 0.0133403 0)
(3.82341 0.0157233 0)
(4.96336 0.187525 0)
(4.82996 0.103982 0)
(4.75453 0.0857484 0)
(4.71154 0.0765419 0)
(4.66613 0.0680072 0)
(4.61611 0.0609405 0)
(4.56763 0.0547803 0)
(4.52239 0.0491372 0)
(4.47999 0.04415 0)
(4.44044 0.0399412 0)
(4.40396 0.0364359 0)
(4.37058 0.0334846 0)
(4.34008 0.0309618 0)
(4.31222 0.0287943 0)
(4.28675 0.026885 0)
(4.26353 0.0253506 0)
(4.24246 0.0237599 0)
(4.22301 0.023493 0)
(4.96282 0.171154 0)
(4.85056 0.102667 0)
(4.7899 0.0968312 0)
(4.76074 0.0903064 0)
(4.73306 0.0807187 0)
(4.70311 0.072613 0)
(4.6747 0.0659977 0)
(4.64844 0.0601348 0)
(4.62356 0.0549343 0)
(4.59986 0.0504569 0)
(4.57754 0.04663 0)
(4.55672 0.0433238 0)
(4.53733 0.0404324 0)
(4.51932 0.0378918 0)
(4.50261 0.0356253 0)
(4.48714 0.0336712 0)
(4.47313 0.0317817 0)
(4.45951 0.0303534 0)
(4.97359 0.195254 0)
(4.88121 0.129124 0)
(4.82302 0.11458 0)
(4.7943 0.101706 0)
(4.77159 0.089161 0)
(4.7496 0.0798984 0)
(4.73015 0.0728397 0)
(4.71315 0.0667689 0)
(4.69754 0.0614238 0)
(4.68291 0.056807 0)
(4.66926 0.0528321 0)
(4.65661 0.0493695 0)
(4.64487 0.0463161 0)
(4.63397 0.0436046 0)
(4.62388 0.0411672 0)
(4.61452 0.0389814 0)
(4.60612 0.0369055 0)
(4.5977 0.0349453 0)
(4.98217 0.218664 0)
(4.90831 0.150149 0)
(4.8534 0.1269 0)
(4.8237 0.110063 0)
(4.80219 0.0959829 0)
(4.7832 0.085823 0)
(4.76744 0.0781395 0)
(4.75455 0.0716495 0)
(4.74341 0.06601 0)
(4.73343 0.0611592 0)
(4.72446 0.0569817 0)
(4.7164 0.0533381 0)
(4.70913 0.0501197 0)
(4.70253 0.0472503 0)
(4.69654 0.0446611 0)
(4.69108 0.0422955 0)
(4.68631 0.0400645 0)
(4.68143 0.0378584 0)
(4.98794 0.235247 0)
(4.93047 0.166935 0)
(4.88096 0.138234 0)
(4.85119 0.118717 0)
(4.82992 0.1031 0)
(4.81204 0.0916734 0)
(4.79774 0.083024 0)
(4.7866 0.0758644 0)
(4.77752 0.0697464 0)
(4.76984 0.0645231 0)
(4.76329 0.0600393 0)
(4.7577 0.056138 0)
(4.7529 0.0526988 0)
(4.74873 0.0496332 0)
(4.74513 0.0468656 0)
(4.74198 0.0443229 0)
(4.73937 0.0419371 0)
(4.73665 0.0395873 0)
(4.9919 0.247341 0)
(4.94823 0.182027 0)
(4.90533 0.149853 0)
(4.87667 0.12796 0)
(4.85582 0.110634 0)
(4.8386 0.097716 0)
(4.82496 0.0878975 0)
(4.81455 0.0798887 0)
(4.8064 0.0731383 0)
(4.79983 0.0674164 0)
(4.79451 0.0625258 0)
(4.79021 0.0582876 0)
(4.78673 0.0545653 0)
(4.78392 0.0512562 0)
(4.78165 0.0482754 0)
(4.77982 0.0455413 0)
(4.77845 0.0429915 0)
(4.77701 0.0405215 0)
(4.99462 0.256592 0)
(4.9621 0.195593 0)
(4.92615 0.161193 0)
(4.89968 0.13728 0)
(4.87984 0.118373 0)
(4.86346 0.103977 0)
(4.85038 0.0929184 0)
(4.8404 0.0839539 0)
(4.83272 0.0764603 0)
(4.8267 0.0701394 0)
(4.822 0.0647564 0)
(4.81837 0.0601099 0)
(4.8156 0.0560454 0)
(4.81351 0.0524457 0)
(4.81198 0.0492156 0)
(4.81088 0.0462681 0)
(4.81021 0.0435399 0)
(4.80948 0.0409441 0)
(4.99645 0.263642 0)
(4.97261 0.207298 0)
(4.94336 0.171707 0)
(4.91987 0.146279 0)
(4.90167 0.126083 0)
(4.88653 0.110353 0)
(4.87425 0.0980791 0)
(4.86476 0.0881228 0)
(4.85746 0.0798263 0)
(4.85182 0.0728413 0)
(4.84749 0.0669035 0)
(4.84425 0.0617923 0)
(4.84187 0.0573366 0)
(4.84018 0.0534053 0)
(4.83905 0.0498932 0)
(4.83834 0.0467089 0)
(4.83805 0.0437852 0)
(4.83772 0.041048 0)
(4.99766 0.268921 0)
(4.98039 0.217079 0)
(4.95718 0.18115 0)
(4.93708 0.154685 0)
(4.92101 0.133498 0)
(4.9075 0.116636 0)
(4.89637 0.103247 0)
(4.88761 0.0923292 0)
(4.88084 0.0832235 0)
(4.87562 0.07555 0)
(4.87165 0.0690256 0)
(4.86871 0.0634159 0)
(4.86661 0.0585365 0)
(4.86518 0.0542447 0)
(4.8643 0.0504263 0)
(4.86382 0.0469858 0)
(4.86374 0.0438513 0)
(4.86363 0.0409558 0)
(4.99839 0.272609 0)
(4.9856 0.224493 0)
(4.96719 0.188769 0)
(4.95025 0.161677 0)
(4.93634 0.139786 0)
(4.92459 0.12207 0)
(4.91478 0.107787 0)
(4.90697 0.0960588 0)
(4.90089 0.086247 0)
(4.89621 0.0779579 0)
(4.89267 0.0708988 0)
(4.89007 0.0648276 0)
(4.88825 0.0595517 0)
(4.88706 0.05492 0)
(4.88637 0.0508121 0)
(4.88607 0.0471284 0)
(4.88613 0.0437941 0)
(4.88617 0.0407402 0)
(4.99887 0.275406 0)
(4.98948 0.230613 0)
(4.97516 0.195429 0)
(4.96126 0.167925 0)
(4.94956 0.145468 0)
(4.93966 0.127042 0)
(4.93135 0.111984 0)
(4.92467 0.0995245 0)
(4.91946 0.0890613 0)
(4.91547 0.080195 0)
(4.91248 0.0726274 0)
(4.91032 0.0661125 0)
(4.90885 0.0604518 0)
(4.90794 0.0554883 0)
(4.90749 0.0510964 0)
(4.90738 0.0471727 0)
(4.9076 0.0436401 0)
(4.90778 0.0404229 0)
(4.99923 0.27773 0)
(4.99273 0.236147 0)
(4.98227 0.201787 0)
(4.97156 0.174036 0)
(4.96236 0.151091 0)
(4.9546 0.132013 0)
(4.9481 0.116201 0)
(4.94288 0.103007 0)
(4.93885 0.091876 0)
(4.93582 0.0824101 0)
(4.93362 0.0743078 0)
(4.9321 0.0673216 0)
(4.93116 0.0612493 0)
(4.93069 0.0559286 0)
(4.93058 0.0512294 0)
(4.93077 0.0470447 0)
(4.93123 0.0432929 0)
(4.93163 0.0398963 0)
(4.99951 0.279569 0)
(4.99535 0.240797 0)
(4.98839 0.207394 0)
(4.98093 0.179541 0)
(4.97443 0.156178 0)
(4.96903 0.13651 0)
(4.96461 0.119993 0)
(4.96114 0.106087 0)
(4.95857 0.0942986 0)
(4.95678 0.0842384 0)
(4.95563 0.0756037 0)
(4.955 0.0681464 0)
(4.9548 0.0616618 0)
(4.95495 0.0559831 0)
(4.95537 0.0509756 0)
(4.956 0.0465286 0)
(4.95683 0.0425554 0)
(4.95757 0.0389783 0)
(4.99973 0.280889 0)
(4.99746 0.244264 0)
(4.99358 0.211733 0)
(4.98934 0.183842 0)
(4.98571 0.160096 0)
(4.98287 0.139886 0)
(4.98075 0.122726 0)
(4.97929 0.108159 0)
(4.97846 0.0957491 0)
(4.97816 0.0851273 0)
(4.9783 0.0759916 0)
(4.97878 0.0680929 0)
(4.97954 0.0612242 0)
(4.98052 0.0552147 0)
(4.98166 0.0499247 0)
(4.9829 0.0452391 0)
(4.98426 0.0410659 0)
(4.98548 0.0373277 0)
(4.99991 0.281608 0)
(4.99921 0.246185 0)
(4.99809 0.21413 0)
(4.99706 0.186096 0)
(4.99649 0.161934 0)
(4.99646 0.141205 0)
(4.9969 0.123472 0)
(4.99773 0.108324 0)
(4.99891 0.0953737 0)
(5.00037 0.0842681 0)
(5.00204 0.0747076 0)
(5.00387 0.0664407 0)
(5.0058 0.059257 0)
(5.00779 0.0529817 0)
(5.00982 0.0474699 0)
(5.01184 0.042602 0)
(5.01388 0.0382802 0)
(5.01573 0.0344275 0)
(5.00008 0.28154 0)
(5.00085 0.245982 0)
(5.00245 0.213605 0)
(5.00477 0.185064 0)
(5.00763 0.160346 0)
(5.01082 0.139081 0)
(5.01421 0.120844 0)
(5.01772 0.105238 0)
(5.02128 0.0918877 0)
(5.02484 0.0804442 0)
(5.02835 0.070603 0)
(5.03179 0.0621061 0)
(5.03512 0.0547379 0)
(5.03835 0.0483181 0)
(5.04146 0.0426968 0)
(5.04443 0.0377496 0)
(5.04731 0.0333743 0)
(5.04991 0.0294942 0)
(5.00031 0.280242 0)
(5.00288 0.242381 0)
(5.00774 0.208215 0)
(5.01415 0.178417 0)
(5.0212 0.152861 0)
(5.02834 0.131043 0)
(5.03536 0.112453 0)
(5.04217 0.0966429 0)
(5.04868 0.0831967 0)
(5.05483 0.071732 0)
(5.06062 0.0619188 0)
(5.06604 0.0534836 0)
(5.07112 0.0462 0)
(5.07587 0.0398804 0)
(5.08031 0.0343695 0)
(5.08447 0.0295394 0)
(5.08838 0.0252849 0)
(5.09192 0.0215305 0)
(5.00061 0.277687 0)
(5.00556 0.235218 0)
(5.0146 0.1977 0)
(5.02597 0.165899 0)
(5.03781 0.13928 0)
(5.04929 0.116964 0)
(5.06021 0.0982551 0)
(5.07049 0.0825967 0)
(5.08006 0.0694678 0)
(5.08886 0.0584035 0)
(5.09694 0.0490253 0)
(5.10435 0.0410335 0)
(5.11116 0.0341856 0)
(5.11742 0.0282839 0)
(5.12318 0.0231679 0)
(5.12849 0.0187076 0)
(5.13342 0.0147972 0)
(5.13787 0.011363 0)
(5.00095 0.274092 0)
(5.00882 0.22546 0)
(5.02282 0.184084 0)
(5.03961 0.150528 0)
(5.05625 0.123304 0)
(5.07181 0.100947 0)
(5.08632 0.0825767 0)
(5.09974 0.0675099 0)
(5.11196 0.0550832 0)
(5.12301 0.0447367 0)
(5.133 0.0360526 0)
(5.14205 0.0287153 0)
(5.15027 0.0224742 0)
(5.15774 0.0171278 0)
(5.16454 0.0125166 0)
(5.17076 0.00851423 0)
(5.17647 0.00501917 0)
(5.18161 0.0019618 0)
(5.00149 0.2691 0)
(5.01373 0.212459 0)
(5.03451 0.166986 0)
(5.05782 0.132202 0)
(5.07959 0.104879 0)
(5.09933 0.0828949 0)
(5.11745 0.0652797 0)
(5.13392 0.051187 0)
(5.14863 0.0397679 0)
(5.1617 0.0303775 0)
(5.17336 0.0225811 0)
(5.18381 0.0160595 0)
(5.19318 0.0105585 0)
(5.20161 0.00587832 0)
(5.20921 0.00186544 0)
(5.2161 -0.00159913 0)
(5.22237 -0.00461003 0)
(5.22798 -0.00723187 0)
(5.00238 0.262174 0)
(5.02131 0.195532 0)
(5.0513 0.146437 0)
(5.08219 0.111404 0)
(5.10921 0.0845395 0)
(5.13307 0.0633738 0)
(5.15467 0.0470016 0)
(5.17389 0.0343061 0)
(5.19066 0.0242038 0)
(5.2053 0.0160005 0)
(5.21818 0.00927743 0)
(5.22956 0.003722 0)
(5.23964 -0.000918048 0)
(5.24859 -0.00483442 0)
(5.25657 -0.0081688 0)
(5.26372 -0.0110291 0)
(5.27016 -0.0135 0)
(5.27586 -0.0156398 0)
(5.00395 0.252454 0)
(5.03318 0.173633 0)
(5.07519 0.122517 0)
(5.11407 0.0888555 0)
(5.14585 0.063145 0)
(5.17341 0.0433026 0)
(5.19798 0.0286932 0)
(5.21921 0.0177966 0)
(5.23723 0.00927943 0)
(5.25265 0.00245201 0)
(5.26603 -0.00305874 0)
(5.27766 -0.00754791 0)
(5.28781 -0.0112562 0)
(5.29668 -0.0143582 0)
(5.30448 -0.016978 0)
(5.31137 -0.0192083 0)
(5.31749 -0.0211213 0)
(5.32284 -0.0227671 0)
(5.00664 0.239252 0)
(5.05116 0.14603 0)
(5.10795 0.0952602 0)
(5.15401 0.0649787 0)
(5.18907 0.0415112 0)
(5.2193 0.0237808 0)
(5.24584 0.0114591 0)
(5.26797 0.00263185 0)
(5.28617 -0.00415728 0)
(5.30144 -0.00951823 0)
(5.31445 -0.0137623 0)
(5.32555 -0.0171592 0)
(5.33502 -0.0199269 0)
(5.34312 -0.0222145 0)
(5.35009 -0.0241242 0)
(5.3561 -0.0257327 0)
(5.36131 -0.0270979 0)
(5.36575 -0.0282628 0)
(5.01051 0.222562 0)
(5.07591 0.115752 0)
(5.14968 0.0673332 0)
(5.20132 0.0406324 0)
(5.23766 0.0201124 0)
(5.26901 0.00555957 0)
(5.29609 -0.00388089 0)
(5.31778 -0.0104717 0)
(5.33497 -0.0155057 0)
(5.34899 -0.0193989 0)
(5.36059 -0.022388 0)
(5.37012 -0.0247127 0)
(5.37791 -0.0265604 0)
(5.38427 -0.0280511 0)
(5.38945 -0.029265 0)
(5.39365 -0.030264 0)
(5.39705 -0.0310919 0)
(5.39971 -0.0317874 0)
(5.01612 0.196421 0)
(5.10841 0.0875916 0)
(5.19905 0.0463941 0)
(5.25418 0.0197622 0)
(5.29033 -6.99073e-05 0)
(5.32108 -0.0113373 0)
(5.34664 -0.0173933 0)
(5.36589 -0.0214595 0)
(5.38018 -0.0246011 0)
(5.39105 -0.0269546 0)
(5.3993 -0.0286511 0)
(5.40533 -0.0298876 0)
(5.40952 -0.0308128 0)
(5.41224 -0.031513 0)
(5.4138 -0.0320439 0)
(5.41442 -0.0324519 0)
(5.41429 -0.0327659 0)
(5.41355 -0.0330187 0)
(5.02989 0.134586 0)
(5.15986 0.0475777 0)
(5.25807 0.0412387 0)
(5.30885 0.0217209 0)
(5.34248 -0.00171981 0)
(5.37075 -0.0156337 0)
(5.39141 -0.0221849 0)
(5.40394 -0.0257828 0)
(5.41066 -0.0280889 0)
(5.41363 -0.0294667 0)
(5.41379 -0.0301775 0)
(5.41169 -0.030492 0)
(5.40787 -0.0305891 0)
(5.40278 -0.0305608 0)
(5.39677 -0.0304595 0)
(5.39011 -0.0303284 0)
(5.383 -0.0301972 0)
(5.37562 -0.0300942 0)
(5.08133 -0.0500366 0)
(5.26819 -0.199278 0)
(5.34722 -0.137921 0)
(5.36476 -0.0864759 0)
(5.37847 -0.0638864 0)
(5.39128 -0.051769 0)
(5.39356 -0.0435249 0)
(5.38503 -0.0382314 0)
(5.37021 -0.0349228 0)
(5.35238 -0.0326063 0)
(5.33294 -0.030766 0)
(5.31257 -0.0292213 0)
(5.29181 -0.0278974 0)
(5.27111 -0.0267426 0)
(5.25071 -0.0257226 0)
(5.2308 -0.0248357 0)
(5.21148 -0.0240862 0)
(5.19293 -0.0236624 0)
(5.01586 0.723718 0)
(5.23569 0.4675 0)
(5.28473 0.234426 0)
(5.20736 0.103791 0)
(5.10625 0.0382235 0)
(5.01531 0.00868979 0)
(4.93353 -0.00335133 0)
(4.85873 -0.00796746 0)
(4.79153 -0.00963407 0)
(4.73182 -0.0100988 0)
(4.67839 -0.0100689 0)
(4.63005 -0.00986394 0)
(4.58601 -0.00962446 0)
(4.54572 -0.00940171 0)
(4.50871 -0.00920861 0)
(4.47457 -0.00906045 0)
(4.4428 -0.00895956 0)
(4.41321 -0.00913214 0)
(0.00512509 -0.0100237 -1.51101e-20)
(0.0171727 -0.0171937 1.46376e-20)
(0.0274394 -0.0158447 0)
(0.0338352 -0.00974117 0)
(0.034684 -0.00136642 0)
(0.0294218 0.0072332 -1.2958e-20)
(0.0188909 0.0144888 0)
(0.00406248 0.019647 0)
(-0.0139064 0.0228134 0)
(-0.0340428 0.0246582 0)
(-0.0558354 0.0258809 1.08016e-20)
(-0.0789825 0.0269395 0)
(-0.103342 0.0280377 0)
(-0.128837 0.0292058 0)
(-0.155397 0.030386 0)
(-0.182927 0.0314907 9.01614e-21)
(-0.211296 0.0324366 0)
(-0.240339 0.0331623 0)
(-0.26987 0.0336368 0)
(-0.299693 0.0338636 0)
(-0.329621 0.0338768 0)
(-0.359486 0.0337223 0)
(-0.389141 0.0334167 0)
(-0.418435 0.0329133 7.75532e-21)
(-0.447173 0.0321454 -7.6698e-21)
(-0.475129 0.0312157 7.59618e-21)
(-0.502244 0.0306909 7.53487e-21)
(-0.528705 0.031577 0)
(-0.554866 0.0338237 0)
(-0.581183 0.0365509 -7.42051e-21)
(-0.607151 0.0391311 -7.39913e-21)
(-0.632155 0.0317069 0)
(-0.655159 0.0273897 0)
(-0.676408 0.0174931 -8.05001e-21)
(-0.695781 0.017683 0)
(-0.715304 0.029177 0)
(-0.736891 0.0385532 7.46584e-21)
(-0.758423 0.0397125 0)
(-0.778135 0.01416 8.14129e-21)
(-0.793621 0.0128376 1.47078e-20)
(-0.808937 0.021062 0)
(-0.825795 0.0275403 0)
(-0.844565 0.0433428 0)
(-0.863875 0.0361416 0)
(-0.878041 0.000272588 0)
(-0.890053 0.0185925 1.47584e-20)
(-0.906115 0.0415309 1.5474e-20)
(-0.923038 0.0207098 1.59351e-20)
(-0.935804 0.00863665 0)
(-0.947082 0.0104507 -1.57091e-20)
(-0.95951 0.0107481 0)
(-0.972067 0.010758 1.54493e-20)
(-0.984619 0.0106487 1.53159e-20)
(-0.997077 0.0104785 0)
(-1.00939 0.0102766 0)
(-1.02152 0.0100572 0)
(-1.03346 0.00982673 1.47575e-20)
(-1.04519 0.00958763 0)
(-1.0567 0.0093404 0)
(-1.06796 0.00908459 0)
(-1.07897 0.00881931 0)
(-1.08971 0.00854348 0)
(-1.10015 0.00825597 0)
(-1.11029 0.00795563 0)
(-1.1201 0.00764127 0)
(-1.12955 0.00731165 -1.33075e-20)
(-1.13862 0.00696547 0)
(-1.1473 0.00660129 0)
(-1.15554 0.00621758 1.27453e-20)
(-1.16333 0.00581274 1.25474e-20)
(-1.17063 0.00538515 0)
(-1.17741 0.00493332 -1.21346e-20)
(-1.18364 0.00445596 1.19195e-20)
(-1.18929 0.00395199 0)
(-1.19432 0.00342027 -1.14707e-20)
(-1.1987 0.00286018 0)
(-1.20239 0.00227465 0)
(-1.20534 0.00167569 1.07498e-20)
(-1.2075 0.00108564 0)
(-1.20882 0.00052013 -1.02356e-20)
(-1.20934 -1.83782e-05 0)
(-1.20919 -0.000499921 9.68893e-21)
(-1.20835 -0.00096151 9.40434e-21)
(-1.20681 -0.00141474 9.11212e-21)
(-1.20456 -0.0018629 1.76245e-20)
(-1.20162 -0.00230638 -1.70096e-20)
(-1.19797 -0.00274442 0)
(-1.19361 -0.00317578 0)
(-1.18854 -0.00359895 0)
(-1.18277 -0.00401231 -1.44006e-20)
(-1.17631 -0.00441422 -1.37125e-20)
(-1.16916 -0.00480306 1.3011e-20)
(-1.16133 -0.00517722 0)
(-1.15284 -0.00553514 -1.15697e-20)
(-1.14371 -0.00587534 -1.08313e-20)
(-1.13396 -0.00619639 -1.00821e-20)
(-1.12361 -0.00649698 0)
(-1.11269 -0.00677588 0)
(-1.10123 -0.00703203 0)
(-1.08926 -0.0072645 -6.99569e-21)
(-1.07682 -0.00747257 0)
(-1.06393 -0.00765566 0)
(-1.05065 -0.00781342 4.61599e-21)
(-1.03699 -0.00794571 0)
(-1.02302 -0.00805264 0)
(-1.00876 -0.00813451 2.21593e-21)
(-0.994263 -0.00819192 0)
(-0.979563 -0.00822568 0)
(-0.964703 -0.00823687 1.70819e-22)
(-0.949721 -0.0082268 9.57711e-22)
(-0.934657 -0.00819703 0)
(-0.919546 -0.00814935 -2.51161e-21)
(-0.904421 -0.0080858 0)
(-0.889314 -0.00800864 4.03229e-21)
(-0.874252 -0.00792034 0)
(-0.859258 -0.00782359 5.51301e-21)
(-0.844351 -0.00772122 6.2368e-21)
(-0.829547 -0.00761623 0)
(-0.814854 -0.00751175 0)
(-0.800276 -0.007411 0)
(-0.785811 -0.00731731 0)
(-0.77145 -0.00723408 0)
(-0.757178 -0.00716474 0)
(-0.742974 -0.00711271 0)
(-0.728809 -0.00708138 1.16103e-20)
(-0.714646 -0.00707413 -1.22358e-20)
(-0.700442 -0.00709427 0)
(-0.686146 -0.00714505 0)
(-0.671701 -0.00722967 0)
(-0.657039 -0.00735117 0)
(-0.642088 -0.00751242 -3.05769e-20)
(-0.626768 -0.00771612 0)
(-0.610991 -0.00796483 3.30223e-20)
(-0.594662 -0.00826105 -3.42649e-20)
(-0.57768 -0.00860714 0)
(-0.559938 -0.00900527 0)
(-0.541321 -0.00945724 0)
(-0.52171 -0.00996452 3.95029e-20)
(-0.500982 -0.0105285 4.09114e-20)
(-0.479007 -0.0111506 0)
(-0.455653 -0.0118319 4.38945e-20)
(-0.430782 -0.0125724 4.54833e-20)
(-0.404259 -0.013372 -4.71465e-20)
(-0.375943 -0.0142309 0)
(-0.345696 -0.0151483 0)
(-0.313381 -0.0161215 -5.26511e-20)
(-0.278864 -0.0171488 0)
(-0.242017 -0.0182271 0)
(-0.20272 -0.0193496 0)
(-0.160861 -0.0205069 0)
(-0.116348 -0.0216751 6.39227e-20)
(-0.0690957 -0.0228195 6.65428e-20)
(-0.0190894 -0.023868 0)
(0.0337918 -0.0247877 7.0793e-20)
(0.0896055 -0.025624 0)
(0.148358 -0.0264126 0)
(0.210048 -0.0271452 7.37781e-20)
(0.274629 -0.0278067 0)
(0.342013 -0.0283822 7.54093e-20)
(0.412068 -0.0288578 0)
(0.484616 -0.0292206 0)
(0.55943 -0.0294577 7.71408e-20)
(0.636233 -0.029558 0)
(0.714696 -0.0295095 7.77426e-20)
(0.794443 -0.029308 0)
(0.87504 -0.0289285 0)
(0.955994 -0.0283888 0)
(1.03682 -0.0277033 -7.75589e-20)
(1.11693 -0.0267674 0)
(1.19579 -0.0258608 7.68461e-20)
(1.27291 -0.0247248 0)
(1.348 -0.0235021 0)
(1.42121 -0.0216184 0)
(1.48915 -0.00533539 0)
(1.55243 -0.00360916 0)
(1.60673 -0.00127707 0)
(1.65706 0.00615476 0)
(1.69455 0.0021951 -1.45916e-19)
(1.72075 0.0247592 0)
(1.67425 0.0392232 0)
(0.00605569 -0.0360406 4.4373e-20)
(0.012527 -0.035177 -4.07773e-20)
(0.011752 -0.0206788 0)
(0.00709053 -0.00423825 2.2755e-20)
(-0.000919664 0.0120614 0)
(-0.011899 0.0270359 1.02212e-20)
(-0.0257798 0.0398433 -1.95326e-20)
(-0.0424447 0.0500519 -1.87316e-20)
(-0.0617348 0.0577421 0)
(-0.0834025 0.0634282 -1.72518e-20)
(-0.107135 0.0677386 -8.31154e-21)
(-0.132601 0.0711806 0)
(-0.159497 0.074065 0)
(-0.187553 0.0765287 0)
(-0.216535 0.0785951 0)
(-0.246225 0.0802304 -7.0355e-21)
(-0.276419 0.0813854 0)
(-0.306919 0.0820219 1.33404e-20)
(-0.337534 0.0821275 0)
(-0.368084 0.0817208 0)
(-0.398403 0.0808468 -1.2617e-20)
(-0.428336 0.0795588 0)
(-0.457746 0.0778905 1.22826e-20)
(-0.48652 0.0758407 -6.10518e-21)
(-0.514599 0.0734013 6.05167e-21)
(-0.541976 0.0706357 -6.01123e-21)
(-0.568611 0.0677488 -5.98607e-21)
(-0.594349 0.0650274 0)
(-0.618979 0.0625282 0)
(-0.642145 0.0600054 6.03218e-21)
(-0.663918 0.0575152 -6.0142e-21)
(-0.685361 0.054832 0)
(-0.706094 0.0519464 0)
(-0.727074 0.0498354 6.19474e-21)
(-0.747407 0.047045 0)
(-0.766008 0.0440157 0)
(-0.781872 0.0410598 -6.03922e-21)
(-0.796392 0.0399475 0)
(-0.812612 0.0390338 6.12844e-21)
(-0.829805 0.0368122 -1.19632e-20)
(-0.845806 0.0344872 0)
(-0.860345 0.0323613 0)
(-0.871941 0.0309542 -2.34137e-20)
(-0.882832 0.030321 -2.37853e-20)
(-0.897971 0.0294567 -2.37154e-20)
(-0.912643 0.0278202 1.14863e-20)
(-0.923073 0.0270434 -1.1767e-20)
(-0.933596 0.026782 -3.50007e-20)
(-0.946353 0.0266418 2.31706e-20)
(-0.959447 0.0266661 1.15453e-20)
(-0.971383 0.026471 0)
(-0.98273 0.0260882 -1.13583e-20)
(-0.993719 0.0255934 1.11843e-20)
(-1.00443 0.0250349 0)
(-1.01488 0.0244383 0)
(-1.02508 0.0238164 0)
(-1.03503 0.0231746 -1.08666e-20)
(-1.04473 0.0225144 0)
(-1.05415 0.0218353 2.12454e-20)
(-1.06329 0.0211359 0)
(-1.07213 0.0204144 2.08034e-20)
(-1.08065 0.0196688 0)
(-1.08884 0.0188971 -2.03365e-20)
(-1.09667 0.0180978 0)
(-1.10413 0.0172692 1.98422e-20)
(-1.1112 0.0164099 -9.77223e-21)
(-1.11785 0.0155189 0)
(-1.12406 0.0145952 -1.90439e-20)
(-1.12981 0.0136382 -9.39438e-21)
(-1.13509 0.0126474 -9.24663e-21)
(-1.13986 0.0116228 0)
(-1.14412 0.0105645 -8.92356e-21)
(-1.14784 0.00947289 -8.77565e-21)
(-1.151 0.00834881 0)
(-1.1536 0.0071931 8.43741e-21)
(-1.15563 0.00600662 -1.65273e-20)
(-1.15709 0.00479191 0)
(-1.15797 0.00355721 -7.89211e-21)
(-1.15832 0.00232164 0)
(-1.15816 0.00110696 2.25258e-20)
(-1.15746 -8.11629e-05 0)
(-1.15609 -0.00123483 -2.12902e-20)
(-1.15404 -0.00237138 -6.87018e-21)
(-1.1513 -0.00349678 6.69324e-21)
(-1.14786 -0.00461217 1.29448e-20)
(-1.1437 -0.00571601 -1.24925e-20)
(-1.13883 -0.00680547 0)
(-1.13323 -0.00787711 0)
(-1.12692 -0.00892716 0)
(-1.1199 -0.00995169 3.14524e-20)
(-1.11217 -0.0109467 9.92433e-21)
(-1.10373 -0.0119083 -9.40505e-21)
(-1.09462 -0.0128325 0)
(-1.08483 -0.0137157 -8.52431e-21)
(-1.07439 -0.0145542 7.80094e-21)
(-1.06331 -0.0153446 7.25272e-21)
(-1.05163 -0.016084 0)
(-1.03937 -0.0167693 0)
(-1.02656 -0.0173982 0)
(-1.01322 -0.0179684 5.00979e-21)
(-0.999404 -0.0184782 0)
(-0.985136 -0.0189264 -7.96345e-21)
(-0.970457 -0.019312 -1.01165e-20)
(-0.955405 -0.0196348 5.67655e-21)
(-0.940023 -0.0198947 0)
(-0.924351 -0.0200927 1.81219e-21)
(-0.908433 -0.0202299 0)
(-0.892309 -0.0203082 1.11787e-21)
(-0.876022 -0.0203299 -1.12025e-22)
(-0.859613 -0.0202981 4.48243e-22)
(-0.843122 -0.0202162 0)
(-0.826586 -0.0200882 5.12116e-21)
(-0.810041 -0.0199187 -4.42541e-21)
(-0.79352 -0.0197125 -2.8616e-21)
(-0.777053 -0.0194753 0)
(-0.760665 -0.0192129 -3.91194e-21)
(-0.744379 -0.0189318 -1.30632e-20)
(-0.728211 -0.0186385 0)
(-0.712174 -0.0183399 -1.06517e-20)
(-0.696274 -0.0180433 -1.16348e-20)
(-0.680511 -0.017756 -1.26021e-20)
(-0.664879 -0.0174856 0)
(-0.649366 -0.0172395 0)
(-0.633952 -0.0170255 0)
(-0.618611 -0.0168511 8.06442e-21)
(-0.603309 -0.0167238 8.70943e-21)
(-0.588004 -0.0166509 0)
(-0.572646 -0.0166397 1.89938e-20)
(-0.557179 -0.0166969 1.98693e-20)
(-0.541537 -0.0168294 0)
(-0.525648 -0.0170433 2.18202e-20)
(-0.509431 -0.0173444 4.49744e-20)
(-0.492798 -0.0177381 -2.35851e-20)
(-0.475654 -0.0182294 -2.4029e-20)
(-0.457896 -0.0188229 0)
(-0.439417 -0.0195228 0)
(-0.420099 -0.0203321 0)
(-0.399822 -0.0212533 -2.82386e-20)
(-0.378459 -0.0222884 2.868e-20)
(-0.35588 -0.023439 5.99664e-20)
(-0.331949 -0.0247058 -3.13538e-20)
(-0.306527 -0.0260879 3.18144e-20)
(-0.279475 -0.0275831 3.36352e-20)
(-0.25065 -0.0291896 0)
(-0.219912 -0.0309042 0)
(-0.187121 -0.0327198 -3.66298e-20)
(-0.152141 -0.0346298 0)
(-0.114841 -0.0366265 0)
(-0.0750971 -0.0386956 8.26572e-20)
(-0.0327883 -0.040826 0)
(0.012178 -0.0430042 4.37196e-20)
(0.059937 -0.0452178 -4.5826e-20)
(0.110568 -0.0474445 0)
(0.164157 -0.0496373 4.6767e-20)
(0.220737 -0.0517759 0)
(0.280327 -0.053861 0)
(0.342925 -0.0558702 -5.09999e-20)
(0.408489 -0.0577712 1.02718e-19)
(0.476936 -0.0595301 -5.28987e-20)
(0.548142 -0.0611123 0)
(0.621938 -0.0624831 0)
(0.698106 -0.0636078 5.41324e-20)
(0.77638 -0.0644521 0)
(0.856442 -0.0649828 5.54766e-20)
(0.937923 -0.0651686 0)
(1.0204 -0.0649762 0)
(1.10341 -0.0643899 0)
(1.18644 -0.0633935 5.83886e-20)
(1.26892 -0.0619657 0)
(1.35028 -0.0601652 -5.88203e-20)
(1.42987 -0.0579983 0)
(1.50693 -0.0555414 0)
(1.58 -0.0529405 1.17516e-19)
(1.64912 -0.0508466 -1.17978e-19)
(1.71155 -0.0469526 0)
(1.76893 -0.0426122 0)
(1.81669 -0.0366275 0)
(1.85294 -0.0269139 3.58128e-19)
(1.88109 -0.00964877 0)
(1.88645 0.0220732 -2.2768e-19)
(0.00171991 -0.046816 -8.27666e-23)
(-0.00131956 -0.0290808 5.14768e-20)
(-0.00959258 -0.00552957 0)
(-0.0199641 0.0167358 -3.96235e-20)
(-0.0323772 0.0374559 0)
(-0.0465338 0.056389 0)
(-0.0623368 0.0731616 4.68192e-24)
(-0.0798427 0.0874689 1.56834e-20)
(-0.0991396 0.0992635 1.50931e-20)
(-0.120238 0.108782 1.45527e-20)
(-0.143024 0.116419 0)
(-0.167289 0.122576 0)
(-0.192769 0.127561 -1.3144e-20)
(-0.219191 0.131555 -2.54952e-20)
(-0.246296 0.134639 2.47766e-20)
(-0.273845 0.136831 0)
(-0.301626 0.138127 2.35494e-20)
(-0.32945 0.138529 -1.15074e-20)
(-0.357149 0.138065 0)
(-0.384576 0.136792 2.2164e-20)
(-0.411596 0.134791 1.08919e-20)
(-0.438092 0.132152 -2.14876e-20)
(-0.463961 0.128957 -1.05953e-20)
(-0.489124 0.125284 0)
(-0.513542 0.121222 2.07561e-20)
(-0.537209 0.116913 2.05766e-20)
(-0.560099 0.112553 0)
(-0.582097 0.108306 2.03115e-20)
(-0.603074 0.104195 0)
(-0.622928 0.100051 2.0158e-20)
(-0.641669 0.0956505 1.00395e-20)
(-0.659758 0.090915 0)
(-0.677467 0.0861008 0)
(-0.694709 0.0815515 0)
(-0.711413 0.0775968 0)
(-0.727286 0.0744857 0)
(-0.742157 0.071693 0)
(-0.756084 0.0685572 1.93434e-20)
(-0.769881 0.064826 -2.88829e-20)
(-0.783929 0.0617004 0)
(-0.797582 0.0594443 0)
(-0.810495 0.0576769 0)
(-0.822411 0.0559882 -3.04289e-23)
(-0.83375 0.0534462 1.85679e-20)
(-0.845919 0.05061 3.69722e-20)
(-0.858304 0.049212 -3.66231e-20)
(-0.869344 0.0482202 -1.818e-20)
(-0.880033 0.0461973 1.80851e-20)
(-0.891236 0.0441949 -5.24735e-23)
(-0.90243 0.0428412 1.77815e-20)
(-0.913239 0.0416793 0)
(-0.92371 0.0405914 1.74874e-20)
(-0.933902 0.0395309 -4.9962e-23)
(-0.943841 0.0384753 0)
(-0.953536 0.0374131 0)
(-0.96299 0.0363372 -1.68681e-20)
(-0.972199 0.0352423 0)
(-0.981156 0.0341238 0)
(-0.98985 0.0329775 1.63298e-20)
(-0.998269 0.0317998 3.23893e-20)
(-1.0064 0.0305871 -1.60507e-20)
(-1.01422 0.0293366 0)
(-1.02172 0.0280455 1.56739e-20)
(-1.02889 0.0267116 0)
(-1.03569 0.0253333 1.52254e-20)
(-1.04212 0.0239091 1.50679e-20)
(-1.04815 0.0224382 -2.9669e-20)
(-1.05377 0.0209203 -1.46006e-20)
(-1.05896 0.0193556 0)
(-1.06369 0.017745 2.83274e-20)
(-1.06794 0.01609 0)
(-1.07171 0.0143929 4.10535e-20)
(-1.07497 0.012657 2.68644e-20)
(-1.07771 0.0108862 2.63482e-20)
(-1.07992 0.00908578 -2.58174e-20)
(-1.08157 0.00726235 3.78985e-20)
(-1.08267 0.00542432 0)
(-1.0832 0.00358144 0)
(-1.08315 0.0017415 -2.35379e-20)
(-1.08249 -9.05995e-05 -3.43596e-20)
(-1.0812 -0.00191595 0)
(-1.07924 -0.00374536 1.07923e-20)
(-1.07661 -0.00557327 0)
(-1.07328 -0.00739411 -3.04289e-20)
(-1.06926 -0.00920242 8.45517e-23)
(-1.06452 -0.0109925 -9.17042e-23)
(-1.05908 -0.0127585 1.81964e-20)
(-1.05292 -0.0144942 0)
(-1.04605 -0.0161933 -1.67153e-20)
(-1.03847 -0.0178494 1.18728e-22)
(-1.03018 -0.0194562 0)
(-1.0212 -0.0210072 0)
(-1.01153 -0.0224963 0)
(-1.00119 -0.0239174 1.26544e-20)
(-0.990207 -0.0252648 0)
(-0.978588 -0.0265331 0)
(-0.96636 -0.0277174 0)
(-0.95355 -0.028813 0)
(-0.940187 -0.0298161 0)
(-0.9263 -0.0307233 7.79997e-21)
(-0.911925 -0.0315317 0)
(-0.897095 -0.0322393 5.92636e-21)
(-0.881849 -0.0328448 5.07138e-21)
(-0.866226 -0.0333477 -4.217e-21)
(-0.850266 -0.0337481 0)
(-0.83401 -0.0340473 -2.5146e-21)
(-0.8175 -0.0342472 0)
(-0.800779 -0.0343509 -8.27907e-22)
(-0.783887 -0.0343621 -6.95947e-24)
(-0.766868 -0.0342857 -2.15674e-21)
(-0.749759 -0.0341272 0)
(-0.732601 -0.0338929 -7.05681e-21)
(-0.71543 -0.0335902 -2.92939e-21)
(-0.698279 -0.0332271 0)
(-0.681179 -0.0328123 -9.3526e-21)
(-0.664159 -0.0323554 -1.08976e-20)
(-0.64724 -0.0318665 1.87915e-20)
(-0.630443 -0.0313564 0)
(-0.613781 -0.0308361 7.85515e-21)
(-0.597263 -0.0303171 8.57959e-21)
(-0.580891 -0.0298113 2.75693e-20)
(-0.564662 -0.0293307 0)
(-0.548567 -0.0288877 0)
(-0.532588 -0.0284945 0)
(-0.516702 -0.0281634 1.17385e-20)
(-0.500877 -0.0279064 0)
(-0.485076 -0.0277354 0)
(-0.46925 -0.0276622 -1.40195e-20)
(-0.453347 -0.0276979 -1.46694e-20)
(-0.437303 -0.0278532 0)
(-0.42105 -0.0281383 0)
(-0.404508 -0.0285625 -3.3231e-20)
(-0.387593 -0.0291347 0)
(-0.370212 -0.0298627 3.5862e-20)
(-0.352265 -0.030754 3.6829e-20)
(-0.333644 -0.0318149 0)
(-0.314235 -0.0330503 0)
(-0.293921 -0.0344639 -4.09627e-20)
(-0.272574 -0.0360586 -4.47691e-22)
(-0.250065 -0.0378364 -4.70616e-22)
(-0.226261 -0.0397978 0)
(-0.201022 -0.0419411 -9.46153e-20)
(-0.17421 -0.0442624 0)
(-0.145683 -0.0467574 0)
(-0.1153 -0.0494202 0)
(-0.0829211 -0.0522391 5.4764e-20)
(-0.0484066 -0.0552027 0)
(-0.0116243 -0.0582987 -1.16151e-19)
(0.0275523 -0.0615103 -6.05945e-20)
(0.0692614 -0.0648199 0)
(0.113609 -0.0682114 -6.38572e-20)
(0.160713 -0.0716684 0)
(0.210679 -0.0751705 0)
(0.263597 -0.0786911 -2.05313e-19)
(0.319498 -0.0821884 1.39809e-19)
(0.378394 -0.0856206 0)
(0.440272 -0.0889435 1.46819e-19)
(0.505086 -0.0921071 -7.60796e-20)
(0.572757 -0.0950585 0)
(0.643162 -0.097743 0)
(0.716137 -0.100105 0)
(0.79147 -0.102087 -2.45652e-19)
(0.868903 -0.103634 0)
(0.948124 -0.104689 -8.53233e-20)
(1.02877 -0.105201 0)
(1.11043 -0.105117 0)
(1.19265 -0.104401 0)
(1.27491 -0.103019 0)
(1.35666 -0.100939 0)
(1.4373 -0.0981878 0)
(1.51613 -0.094741 -1.83164e-19)
(1.59233 -0.0905719 0)
(1.66477 -0.0855128 -9.37832e-20)
(1.73349 -0.0784366 2.82639e-19)
(1.79732 -0.070718 0)
(1.85488 -0.0619193 0)
(1.9045 -0.050547 -1.92885e-19)
(1.94409 -0.0363661 -1.95528e-19)
(1.97535 -0.0130845 1.96935e-19)
(1.99226 0.0231638 1.95998e-19)
(-0.00427934 -0.0368215 -8.56881e-20)
(-0.0141491 -0.00842488 -7.34256e-20)
(-0.0267432 0.0193658 -4.08434e-20)
(-0.040626 0.0445307 -1.78574e-20)
(-0.0556817 0.0677289 0)
(-0.0716456 0.0890072 3.05237e-20)
(-0.0885208 0.108179 -1.4496e-20)
(-0.106414 0.125031 0)
(-0.125436 0.139465 -1.3368e-20)
(-0.145641 0.151551 0)
(-0.166997 0.161487 2.50081e-20)
(-0.189382 0.169523 0)
(-0.212614 0.175891 1.17375e-20)
(-0.236478 0.180763 2.2807e-20)
(-0.260758 0.184251 -2.21932e-20)
(-0.285251 0.186428 0)
(-0.309773 0.187346 -2.11223e-20)
(-0.334168 0.187064 0)
(-0.358302 0.185658 0)
(-0.382063 0.183228 -1.9866e-20)
(-0.405357 0.179889 0)
(-0.428102 0.175764 -4.72377e-23)
(-0.450238 0.170976 0)
(-0.471721 0.165645 0)
(-0.492531 0.1599 3.68675e-23)
(-0.512657 0.153882 -1.82591e-20)
(-0.532088 0.147746 -1.80969e-20)
(-0.550782 0.141622 -1.78955e-20)
(-0.568694 0.135572 0)
(-0.585821 0.129597 -3.5178e-20)
(-0.602225 0.123639 0)
(-0.618034 0.117678 -1.72936e-20)
(-0.633398 0.11188 0)
(-0.64836 0.106381 0)
(-0.662874 0.101312 1.68397e-20)
(-0.676879 0.0967435 0)
(-0.690356 0.0925338 -1.65589e-20)
(-0.703359 0.0885119 -1.24429e-23)
(-0.71605 0.0845607 3.26186e-20)
(-0.728537 0.0809732 -3.23288e-20)
(-0.740753 0.0778545 0)
(-0.752575 0.0750775 0)
(-0.763978 0.072515 -1.57608e-20)
(-0.775129 0.0698923 0)
(-0.786231 0.0672616 -1.55495e-20)
(-0.7972 0.0651537 1.54208e-20)
(-0.807839 0.0633048 1.52895e-20)
(-0.818232 0.0612792 0)
(-0.828544 0.0593238 -1.50496e-20)
(-0.838732 0.0575612 -1.49236e-20)
(-0.848701 0.0559271 2.95424e-20)
(-0.858441 0.0543692 -1.46657e-20)
(-0.867953 0.0528539 -1.45344e-20)
(-0.877238 0.0513577 0)
(-0.886295 0.0498636 0)