/*--------------------------------*- C++ -*----------------------------------*\
  =========                 |
  \\      /  F ield         | OpenFOAM: The Open Source CFD Toolbox
   \\    /   O peration     | Website:  https://openfoam.org
    \\  /    A nd           | Version:  7
     \\/     M anipulation  |
\*---------------------------------------------------------------------------*/
FoamFile
{
    version     2.0;
    format      ascii;
    class       volScalarField;
    location    "0.073";
    object      k;
}
// * * * * * * * * * * * * * * * * * * * * * * * * * * * * * * * * * * * * * //

dimensions      [0 2 -2 0 0 0 0];

internalField   nonuniform List<scalar> 
12225
(
1.93888e-05
1.79028e-05
1.68013e-05
1.52879e-05
1.40017e-05
1.25038e-05
1.10969e-05
1.20317e-05
1.21939e-05
8.83682e-06
6.776e-06
6.0268e-06
5.82046e-06
5.71204e-06
5.1845e-06
5.0878e-06
2.49676e-05
1.60408e-05
1.99825e-05
1.98727e-05
1.96989e-05
1.93881e-05
1.9171e-05
1.87078e-05
1.81278e-05
1.85751e-05
1.97577e-05
1.9356e-05
1.8119e-05
1.68037e-05
1.58495e-05
1.55008e-05
1.48953e-05
1.4423e-05
2.22624e-05
2.23977e-05
1.99999e-05
1.9388e-05
1.93225e-05
1.91907e-05
1.90942e-05
1.89058e-05
1.88257e-05
1.88982e-05
1.92133e-05
1.92164e-05
1.91237e-05
1.8835e-05
1.83572e-05
1.8046e-05
1.77535e-05
1.74954e-05
1.8615e-05
1.91074e-05
2.01334e-05
2.01259e-05
1.93398e-05
1.42074e-05
1.37644e-05
1.43299e-05
1.57484e-05
1.68697e-05
1.73839e-05
1.75371e-05
1.75096e-05
1.72257e-05
1.65808e-05
1.62074e-05
1.60722e-05
1.60565e-05
1.61124e-05
1.63067e-05
2.1383e-05
2.71974e-05
2.66838e-05
2.28097e-05
2.02575e-05
1.93748e-05
1.90031e-05
1.84617e-05
1.79992e-05
1.77502e-05
1.74521e-05
1.67439e-05
1.5249e-05
1.40908e-05
1.35656e-05
1.34717e-05
1.35216e-05
1.38335e-05
2.18249e-05
2.46159e-05
2.42742e-05
2.28533e-05
2.15098e-05
2.09318e-05
2.08106e-05
2.09249e-05
2.10409e-05
2.10067e-05
2.08829e-05
2.06121e-05
1.9936e-05
1.89921e-05
1.82019e-05
1.77253e-05
1.7583e-05
1.75543e-05
2.02732e-05
2.58175e-05
2.79545e-05
2.70674e-05
2.43117e-05
2.19784e-05
2.11764e-05
2.10837e-05
2.11498e-05
2.14731e-05
2.20092e-05
2.23391e-05
2.24521e-05
2.24555e-05
2.24236e-05
2.22741e-05
2.20708e-05
2.19092e-05
2.02262e-05
2.20438e-05
2.34271e-05
2.34595e-05
2.3036e-05
2.1757e-05
2.10564e-05
2.09863e-05
2.12267e-05
2.22678e-05
2.29655e-05
2.30778e-05
2.30454e-05
2.28884e-05
2.27753e-05
2.27448e-05
2.27438e-05
2.27369e-05
2.12071e-05
2.09816e-05
2.22704e-05
2.35594e-05
2.32895e-05
2.18723e-05
2.09741e-05
2.08749e-05
2.11103e-05
2.21761e-05
2.331e-05
2.38324e-05
2.39579e-05
2.39331e-05
2.37345e-05
2.35111e-05
2.34507e-05
2.34412e-05
2.04927e-05
2.02501e-05
2.07567e-05
2.32779e-05
2.47299e-05
2.41985e-05
2.228e-05
2.16322e-05
2.18122e-05
2.36363e-05
2.61812e-05
2.6681e-05
2.64944e-05
2.55135e-05
2.44032e-05
2.38161e-05
2.35725e-05
2.35179e-05
2.00707e-05
2.0386e-05
2.30686e-05
2.56435e-05
2.50605e-05
2.29528e-05
2.14538e-05
2.08149e-05
2.05603e-05
2.06496e-05
2.16296e-05
2.23954e-05
2.25515e-05
2.25199e-05
2.23636e-05
2.22818e-05
2.22789e-05
2.23524e-05
2.07886e-05
2.14972e-05
2.16754e-05
2.18442e-05
2.20371e-05
2.21558e-05
2.21118e-05
2.19032e-05
2.18212e-05
2.17857e-05
2.16747e-05
2.14752e-05
2.13575e-05
2.1313e-05
2.13078e-05
2.13378e-05
2.15095e-05
2.22277e-05
2.10722e-05
2.13195e-05
2.15784e-05
2.13284e-05
2.11308e-05
2.11989e-05
2.18111e-05
2.2782e-05
2.29743e-05
2.27018e-05
2.18444e-05
2.12681e-05
2.10009e-05
2.08939e-05
2.08468e-05
2.08155e-05
2.07986e-05
2.08122e-05
2.04619e-05
2.07882e-05
2.10022e-05
2.08911e-05
2.08195e-05
2.07874e-05
2.08342e-05
2.11403e-05
2.12507e-05
2.12018e-05
2.10366e-05
2.09871e-05
2.10105e-05
2.12039e-05
2.15011e-05
2.16085e-05
2.16137e-05
2.15579e-05
2.01331e-05
2.03082e-05
2.12427e-05
2.2559e-05
2.25824e-05
2.18722e-05
2.09535e-05
2.0797e-05
2.08626e-05
2.13537e-05
2.22594e-05
2.27179e-05
2.28509e-05
2.28442e-05
2.26865e-05
2.21042e-05
2.14814e-05
2.10319e-05
2.02009e-05
2.03827e-05
2.10198e-05
2.13397e-05
2.10881e-05
2.05479e-05
2.0308e-05
2.02687e-05
2.02985e-05
2.04949e-05
2.13006e-05
2.32471e-05
2.4577e-05
2.50849e-05
2.51313e-05
2.49594e-05
2.40432e-05
2.26807e-05
2.0451e-05
2.02903e-05
2.03083e-05
2.04568e-05
2.04842e-05
2.04732e-05
2.04756e-05
2.05128e-05
2.06001e-05
2.08355e-05
2.16299e-05
2.26118e-05
2.31985e-05
2.34331e-05
2.34425e-05
2.32655e-05
2.25831e-05
2.19665e-05
2.08981e-05
2.05224e-05
2.03796e-05
2.06058e-05
2.07147e-05
2.08123e-05
2.09735e-05
2.0978e-05
2.09464e-05
2.08603e-05
2.08258e-05
2.08326e-05
2.08543e-05
2.08558e-05
2.0843e-05
2.08309e-05
2.08458e-05
2.08515e-05
2.01165e-05
2.00892e-05
2.01842e-05
2.06037e-05
2.07519e-05
2.07683e-05
2.09009e-05
2.12213e-05
2.12353e-05
2.1048e-05
2.06784e-05
2.04856e-05
2.0396e-05
2.03545e-05
2.0333e-05
2.03215e-05
2.03156e-05
2.03124e-05
2.04724e-05
2.06169e-05
2.06402e-05
2.05858e-05
2.05875e-05
2.07208e-05
2.10852e-05
2.11486e-05
2.11333e-05
2.11244e-05
2.11106e-05
2.10635e-05
2.09167e-05
2.07818e-05
2.07049e-05
2.06739e-05
2.06621e-05
2.06444e-05
2.00788e-05
2.05759e-05
2.10654e-05
2.10544e-05
2.06414e-05
2.04002e-05
2.04248e-05
2.05318e-05
2.05831e-05
2.06349e-05
2.06619e-05
2.0668e-05
2.06657e-05
2.06471e-05
2.05826e-05
2.05303e-05
2.0492e-05
2.04635e-05
2.01114e-05
2.09556e-05
2.15552e-05
2.14177e-05
2.07224e-05
2.0361e-05
2.03532e-05
2.04621e-05
2.04681e-05
2.03722e-05
2.03148e-05
2.03041e-05
2.02933e-05
2.02597e-05
2.01773e-05
2.01169e-05
2.00788e-05
2.00706e-05
2.05641e-05
2.08631e-05
2.0904e-05
2.07332e-05
2.04992e-05
2.04181e-05
2.04008e-05
2.03934e-05
2.03427e-05
2.02567e-05
2.02125e-05
2.01917e-05
2.01758e-05
2.01505e-05
2.01009e-05
1.99823e-05
1.96699e-05
1.93703e-05
2.06934e-05
2.0909e-05
2.09204e-05
2.07888e-05
2.05983e-05
2.0539e-05
2.05451e-05
2.06177e-05
2.06673e-05
2.06597e-05
2.05822e-05
2.0402e-05
2.02437e-05
2.0113e-05
2.00226e-05
1.99807e-05
1.99719e-05
1.99712e-05
2.07758e-05
2.03251e-05
2.02574e-05
2.03332e-05
2.04058e-05
2.04289e-05
2.04399e-05
2.04857e-05
2.06488e-05
2.07329e-05
2.07238e-05
2.06303e-05
2.03932e-05
2.02132e-05
2.01426e-05
2.01248e-05
2.01238e-05
2.01301e-05
2.07842e-05
2.01686e-05
2.01935e-05
2.04253e-05
2.07748e-05
2.11729e-05
2.12741e-05
2.12178e-05
2.08643e-05
2.04679e-05
2.03744e-05
2.04098e-05
2.05887e-05
2.0659e-05
2.06206e-05
2.04441e-05
2.02619e-05
2.01683e-05
2.00722e-05
2.00199e-05
2.00311e-05
2.00267e-05
2.00132e-05
2.00074e-05
1.99469e-05
1.96933e-05
1.95385e-05
1.95606e-05
1.97962e-05
2.05725e-05
2.1315e-05
2.16496e-05
2.17212e-05
2.16869e-05
2.16723e-05
2.16247e-05
2.01938e-05
1.86809e-05
1.46423e-05
1.52489e-05
1.83451e-05
2.46448e-05
2.82594e-05
3.01779e-05
3.26358e-05
3.76791e-05
5.02928e-05
6.57178e-05
7.81631e-05
8.70981e-05
9.34735e-05
9.75871e-05
0.000100749
0.000102291
3.08141e-05
0.000112356
0.000149107
0.000223884
0.000321985
0.000370432
0.000382145
0.000388462
0.000402401
0.000442126
0.000528807
0.000596657
0.000639272
0.000666213
0.000683164
0.000691808
0.000698118
0.000709597
0.00228005
0.00252375
0.00254283
0.00244607
0.00221985
0.00203539
0.00190944
0.00184349
0.00181857
0.00181134
0.00180432
0.0017843
0.00173254
0.00168849
0.00165077
0.00160921
0.00155337
0.00148388
0.00878661
0.0115443
0.00905655
0.00735805
0.00702798
0.00718076
0.00725258
0.00733965
0.00735391
0.0073516
0.0073686
0.00781156
0.00875435
0.0101861
0.0103227
0.0101821
0.00987907
0.00947044
0.00913264
0.00875816
0.0084184
0.00811795
0.00780592
0.00753143
0.00727021
0.00706109
0.00681715
0.00665498
0.00656045
0.00654347
0.00652498
0.00646733
0.00632469
0.00599713
0.00583835
0.0054568
0.00253397
0.00225697
0.00359706
0.00409742
0.00432005
0.0046231
0.00541238
0.00645128
0.00750735
0.00833442
0.00902032
0.00957719
0.0106554
0.0127877
0.0179427
0.031652
0.0436489
0.0484377
0.0525198
0.0627812
0.0742747
0.0834523
0.0888405
0.0754683
0.0220945
0.00424628
0.0018257
0.00145843
0.00149255
0.00152522
0.00153371
0.00143114
0.00127124
0.00108676
0.000877698
0.000701415
0.000518876
0.000390845
0.000306956
0.000217362
0.000178844
0.000159602
0.000154123
0.000155787
0.000156317
0.000156586
0.000156684
0.000156303
0.000155485
0.000154571
0.00015331
0.000152303
0.000150955
0.000149671
0.000148911
0.000148023
0.000147218
0.000146134
0.000145036
0.000144167
0.000143013
0.000141709
0.000139838
0.000137948
0.000135819
0.000133579
0.000131553
0.000129155
0.000126261
0.000123791
0.000120489
0.000116826
0.000112727
0.000107936
0.000102441
9.62679e-05
8.9627e-05
8.27021e-05
7.57101e-05
6.88601e-05
6.24147e-05
5.66601e-05
5.17695e-05
4.75491e-05
4.36772e-05
4.00842e-05
3.66721e-05
3.3286e-05
2.98883e-05
2.64569e-05
2.30374e-05
1.96746e-05
1.63523e-05
1.31784e-05
1.03767e-05
8.0766e-06
6.26193e-06
4.85389e-06
3.7676e-06
2.93001e-06
2.28421e-06
1.78708e-06
1.40543e-06
1.11311e-06
8.89272e-07
7.17472e-07
5.84972e-07
4.82002e-07
4.01159e-07
3.36864e-07
2.84903e-07
2.42142e-07
2.06305e-07
1.7579e-07
1.495e-07
1.26694e-07
1.06861e-07
8.96345e-08
7.47247e-08
6.18858e-08
5.08958e-08
4.15506e-08
3.36598e-08
2.7048e-08
2.15511e-08
1.70208e-08
1.33181e-08
1.03206e-08
7.91455e-09
6.00481e-09
4.50213e-09
3.33619e-09
2.43868e-09
1.76053e-09
1.24966e-09
8.7661e-10
5.99892e-10
4.07358e-10
2.68762e-10
1.5998e-10
2.07658e-10
3.7044e-08
3.25607e-06
2.52231e-06
0.00746128
0.00982754
0.00858568
0.00699582
0.00664845
0.00653096
0.00685555
0.00719449
0.00723957
0.00717807
0.00705758
0.00701468
0.00684894
0.00645259
0.00590904
0.00549552
0.00517741
0.00497136
0.00481161
0.00469591
0.00461855
0.00454541
0.00446776
0.00441195
0.00432583
0.00425371
0.00419824
0.00416551
0.00417308
0.00420428
0.00427065
0.0043988
0.00460732
0.00472792
0.0050716
0.00518269
0.00491735
0.00457419
0.00390054
0.00355913
0.00364827
0.00361215
0.00291317
0.00204323
0.0018873
0.00178983
0.00170458
0.00170707
0.00184466
0.00232402
0.00286859
0.00490381
0.00741474
0.00733846
0.00865425
0.0206764
0.0618814
0.0612651
0.0379016
0.017784
0.00530885
0.00186497
0.00109239
0.000846135
0.000736368
0.000619924
0.000518185
0.000447189
0.000376073
0.000334397
0.000298065
0.000280269
0.000270282
0.000266482
0.000265689
0.000267724
0.000271959
0.000274366
0.000275535
0.000275968
0.000275849
0.000273763
0.000271619
0.000269971
0.000265419
0.000259346
0.000254121
0.000248523
0.000242319
0.000236393
0.00023031
0.000224292
0.000218713
0.000212031
0.000206272
0.000201889
0.00019746
0.000194431
0.000192044
0.000189013
0.000187304
0.000186276
0.000185782
0.000184957
0.000184375
0.000184155
0.000183678
0.000183427
0.000183169
0.000182801
0.000182135
0.000180759
0.000178319
0.000174687
0.000169885
0.000163831
0.000156278
0.000147324
0.000137351
0.000127405
0.000118441
0.000109992
0.000101887
9.42029e-05
8.68523e-05
7.97226e-05
7.2767e-05
6.61169e-05
6.00083e-05
5.44743e-05
4.93425e-05
4.44464e-05
3.97052e-05
3.51057e-05
3.06709e-05
2.64505e-05
2.25121e-05
1.89262e-05
1.57464e-05
1.29977e-05
1.06739e-05
8.74311e-06
7.16435e-06
5.88512e-06
4.8544e-06
4.03067e-06
3.37592e-06
2.85363e-06
2.43279e-06
2.08812e-06
1.80008e-06
1.55455e-06
1.34185e-06
1.15556e-06
9.91456e-07
8.46656e-07
7.19013e-07
6.06832e-07
5.0866e-07
4.23226e-07
3.49334e-07
2.85936e-07
2.3198e-07
1.86458e-07
1.48349e-07
1.16796e-07
9.08899e-08
6.99147e-08
5.30589e-08
3.97849e-08
2.93312e-08
2.14068e-08
1.5215e-08
1.08441e-08
7.24318e-09
5.24117e-09
2.8499e-09
4.07008e-09
3.70584e-07
4.82185e-07
0.00438828
0.00609531
0.00669712
0.00612541
0.00625678
0.00661652
0.00692468
0.00678833
0.0064367
0.00588759
0.00529345
0.00467156
0.00432552
0.00411972
0.00405427
0.00406368
0.00408613
0.00414246
0.00418332
0.00424928
0.00432071
0.00435456
0.00435
0.0043247
0.00426935
0.00415125
0.00403648
0.00392733
0.00379974
0.00370821
0.00361341
0.00353357
0.00352474
0.00353715
0.00359845
0.0038161
0.00424202
0.00428455
0.00417514
0.00394267
0.00376651
0.00366934
0.00354917
0.00328905
0.00302598
0.0026145
0.00208843
0.00178589
0.00179152
0.00230479
0.00276629
0.0027791
0.00297707
0.006012
0.0219762
0.0311119
0.0291938
0.0142811
0.00693322
0.00281035
0.00111823
0.000630581
0.000470103
0.000398437
0.000351836
0.000325225
0.000308737
0.000300454
0.000296368
0.000295247
0.000296282
0.00029992
0.00031093
0.000321858
0.000335068
0.000344136
0.00034861
0.000352389
0.000353783
0.000354075
0.000351749
0.000345744
0.000341914
0.000338397
0.000331272
0.000322108
0.000312029
0.000301706
0.000291449
0.000280146
0.000269126
0.000259382
0.000250514
0.000237583
0.000227355
0.000217819
0.000208444
0.000200609
0.000195018
0.000188428
0.000183515
0.000178552
0.000175209
0.00017274
0.000171768
0.000172032
0.00017337
0.000175399
0.000177996
0.000180417
0.000182409
0.000184291
0.000185815
0.00018664
0.000186625
0.000185764
0.000184186
0.000181482
0.000176773
0.000169406
0.000158639
0.000145659
0.000132099
0.000119564
0.000108924
0.000100006
9.23067e-05
8.47186e-05
7.68848e-05
6.93483e-05
6.28638e-05
5.77742e-05
5.38723e-05
5.07561e-05
4.80328e-05
4.53344e-05
4.23946e-05
3.91044e-05
3.55006e-05
3.17037e-05
2.7855e-05
2.4083e-05
2.04876e-05
1.71569e-05
1.41629e-05
1.15519e-05
9.34325e-06
7.52996e-06
6.0789e-06
4.94e-06
4.05659e-06
3.37377e-06
2.84345e-06
2.42648e-06
2.09252e-06
1.81889e-06
1.58904e-06
1.39128e-06
1.2177e-06
1.06327e-06
9.24683e-07
7.99749e-07
6.86923e-07
5.85356e-07
4.94347e-07
4.1343e-07
3.42025e-07
2.79714e-07
2.25859e-07
1.80052e-07
1.41463e-07
1.09541e-07
8.35291e-08
6.23071e-08
4.6314e-08
3.22436e-08
2.44259e-08
1.36474e-08
2.18048e-08
4.08757e-08
0.00175206
0.00353232
0.00472704
0.00704137
0.00823786
0.00784041
0.00684942
0.00549025
0.00447297
0.00387977
0.00365823
0.00365612
0.00369674
0.00379573
0.00399524
0.00431667
0.00460668
0.00520201
0.00563165
0.00625165
0.00670099
0.00709428
0.0073677
0.00735284
0.00724427
0.00698137
0.00649339
0.00592075
0.0053337
0.00481989
0.00437294
0.00401515
0.00375822
0.00361456
0.00349888
0.00347744
0.00350223
0.00356755
0.0037569
0.00377296
0.00373869
0.00367025
0.00366318
0.00363049
0.00347431
0.003023
0.00226476
0.0020365
0.00214425
0.00281071
0.00360864
0.00554037
0.0134507
0.0188917
0.0217162
0.0166034
0.00740162
0.00333867
0.00152249
0.00073855
0.000462788
0.000377323
0.000346978
0.000335315
0.000330769
0.000329404
0.000331815
0.000346923
0.000369469
0.000400299
0.000433172
0.000468737
0.000488197
0.000497562
0.000501638
0.000502646
0.00050148
0.000494266
0.000485551
0.000482489
0.000480349
0.00047501
0.000460689
0.00044671
0.000438259
0.000427424
0.000410315
0.000391196
0.000374952
0.000356927
0.000337636
0.000317817
0.000306418
0.000283007
0.000269784
0.000254124
0.000239643
0.00022377
0.00021018
0.00019681
0.000186245
0.000177029
0.000168796
0.00015998
0.000153169
0.000147467
0.000143122
0.000140828
0.00014085
0.000143769
0.000148558
0.000154457
0.00016137
0.000169066
0.000176392
0.000181468
0.000184516
0.00018584
0.00018604
0.000185493
0.000183738
0.000180004
0.000173169
0.000162528
0.000149596
0.000137565
0.000127298
0.000119023
0.000111633
0.000103843
9.51137e-05
8.59223e-05
7.72253e-05
6.95645e-05
6.30491e-05
5.75757e-05
5.29392e-05
4.8936e-05
4.54356e-05
4.23088e-05
3.9297e-05
3.60422e-05
3.23289e-05
2.82539e-05
2.40937e-05
2.00757e-05
1.63897e-05
1.31651e-05
1.04494e-05
8.22337e-06
6.43353e-06
5.02107e-06
3.93185e-06
3.11287e-06
2.50839e-06
2.06376e-06
1.73233e-06
1.47893e-06
1.27904e-06
1.11604e-06
9.78829e-07
8.60142e-07
7.55341e-07
6.61412e-07
5.76393e-07
4.9889e-07
4.28267e-07
3.63935e-07
3.06091e-07
2.54203e-07
2.0882e-07
1.68892e-07
1.35069e-07
1.06103e-07
8.23864e-08
6.24581e-08
4.73047e-08
3.3854e-08
2.52461e-08
1.84386e-08
0.00281038
0.00443267
0.00869793
0.00771887
0.00574027
0.00400608
0.00328792
0.00319575
0.00322581
0.00332153
0.00351826
0.00380598
0.00433755
0.00500311
0.00593667
0.00700245
0.0082118
0.00962974
0.0108723
0.0122367
0.0133251
0.0141626
0.0148493
0.0148937
0.0147236
0.0142449
0.0132019
0.0116714
0.00992063
0.00820429
0.00672119
0.00559893
0.0047621
0.00417194
0.00376874
0.00356367
0.00347643
0.00346724
0.00349147
0.00356641
0.00365224
0.0036537
0.00364024
0.00357114
0.00334911
0.00257374
0.00205645
0.00218765
0.00325083
0.00680252
0.0128142
0.0148829
0.0159422
0.0163458
0.0102689
0.00454164
0.00203606
0.000978216
0.000555949
0.000401438
0.000353281
0.000340396
0.000338071
0.000340288
0.000353249
0.000381529
0.00041242
0.000455009
0.000490578
0.000529436
0.000554135
0.000567751
0.000575274
0.00058729
0.000609268
0.000634564
0.000661967
0.000700709
0.000755398
0.000818432
0.000855213
0.000873192
0.000877624
0.000845077
0.000819651
0.000779708
0.000734741
0.000680013
0.000632886
0.000588908
0.000540063
0.000480808
0.000446547
0.000389792
0.000355527
0.00032026
0.000295515
0.000272169
0.000253167
0.00023454
0.000216915
0.000200457
0.000185221
0.000172296
0.000159728
0.000149209
0.000140222
0.000133233
0.000128378
0.000125522
0.000124936
0.000126693
0.00013006
0.000133932
0.000139467
0.000149439
0.000161761
0.000172437
0.000178743
0.000182439
0.000184252
0.000184725
0.000184336
0.000182057
0.000174891
0.000159224
0.00014228
0.000129065
0.000119949
0.000113146
0.000106848
9.97267e-05
9.15919e-05
8.34471e-05
7.62015e-05
7.03209e-05
6.60144e-05
6.30146e-05
6.0636e-05
5.82784e-05
5.57869e-05
5.33433e-05
5.10334e-05
4.85722e-05
4.54903e-05
4.1542e-05
3.67934e-05
3.15543e-05
2.61841e-05
2.09336e-05
1.59826e-05
1.157e-05
7.96812e-06
5.3461e-06
3.6551e-06
2.64798e-06
2.05083e-06
1.67082e-06
1.40038e-06
1.18763e-06
1.01043e-06
8.61298e-07
7.36478e-07
6.32351e-07
5.44877e-07
4.70357e-07
4.0566e-07
3.48589e-07
2.97562e-07
2.51639e-07
2.10493e-07
1.73996e-07
1.42024e-07
1.14421e-07
9.08639e-08
7.10865e-08
5.48595e-08
4.13232e-08
3.11522e-08
2.22581e-08
0.00528157
0.00538294
0.00368433
0.00278374
0.00272513
0.00277185
0.0029221
0.0031955
0.0035734
0.00405987
0.00462069
0.0053124
0.00608962
0.00703155
0.00819782
0.00958177
0.0110965
0.0126698
0.0141851
0.0156367
0.0169266
0.017962
0.0189035
0.0196602
0.0198485
0.0197635
0.0194011
0.0185546
0.016681
0.0141307
0.0113962
0.00888842
0.00696944
0.00561166
0.00457365
0.00394062
0.00360806
0.00349199
0.00346033
0.00346696
0.00348217
0.00348321
0.00346295
0.00337523
0.00294273
0.00215192
0.00223388
0.00376044
0.0103138
0.0139821
0.0145159
0.0144079
0.012757
0.00675556
0.00305786
0.00142203
0.000736903
0.000468567
0.00037363
0.000344755
0.000338707
0.000342236
0.000352433
0.000381536
0.000411671
0.000433809
0.000470498
0.00050828
0.000549066
0.00058958
0.000629009
0.000663197
0.000704136
0.000771987
0.000877949
0.00103717
0.00125632
0.00153304
0.00183588
0.0021089
0.00226301
0.00233015
0.00234197
0.00223943
0.00215292
0.00194215
0.00178485
0.00163556
0.00146593
0.00135425
0.00121737
0.00108445
0.000964822
0.00082581
0.000709715
0.000599074
0.000520183
0.000458986
0.00041173
0.000373498
0.000341418
0.000312855
0.000285409
0.000258332
0.000231302
0.000204608
0.000178774
0.000155746
0.000137775
0.000126198
0.000120472
0.000118814
0.000119612
0.000122399
0.000124666
0.000125854
0.000128306
0.000136642
0.000150518
0.000162472
0.000170633
0.000176581
0.000180432
0.000181925
0.000181765
0.000179301
0.000170004
0.000149408
0.000130295
0.000117592
0.000109763
0.000104301
9.90902e-05
9.28712e-05
8.57238e-05
7.8509e-05
7.20205e-05
6.69088e-05
6.34741e-05
6.1364e-05
5.97526e-05
5.79054e-05
5.5618e-05
5.31926e-05
5.10021e-05
4.90381e-05
4.68692e-05
4.39648e-05
4.00473e-05
3.52118e-05
2.98189e-05
2.43362e-05
1.92324e-05
1.48383e-05
1.12635e-05
8.47149e-06
6.36118e-06
4.80512e-06
3.64704e-06
2.75002e-06
2.05252e-06
1.52386e-06
1.13452e-06
8.54332e-07
6.55589e-07
5.15015e-07
4.1446e-07
3.4058e-07
2.84231e-07
2.39394e-07
2.01984e-07
1.69364e-07
1.40377e-07
1.14707e-07
9.2337e-08
7.30985e-08
5.7004e-08
4.36523e-08
3.29527e-08
2.43838e-08
0.00358204
0.00228524
0.0022308
0.00241413
0.00277429
0.00319431
0.00368825
0.00403807
0.0043901
0.00476814
0.00523644
0.00585248
0.00658632
0.00756742
0.00880858
0.0102627
0.0118235
0.0134136
0.0149632
0.0164451
0.0177694
0.0189314
0.0199337
0.0207148
0.0211952
0.0213583
0.0213099
0.0209488
0.019927
0.0176408
0.0148406
0.0120146
0.0095469
0.00758887
0.00613406
0.00495998
0.00413889
0.00368316
0.00350731
0.00344904
0.00342004
0.00339585
0.00333376
0.00305696
0.00221964
0.0021463
0.00402818
0.0109229
0.0133231
0.0138361
0.0130447
0.00975533
0.00485454
0.00227342
0.00109729
0.000612333
0.000423624
0.000356939
0.000337454
0.000333861
0.00034199
0.000356783
0.000387619
0.000407
0.000427199
0.000454164
0.00049252
0.000537309
0.000592394
0.000654968
0.000733258
0.000832422
0.000983543
0.00123329
0.00164587
0.0022738
0.00312032
0.00410644
0.00504508
0.00562222
0.00586876
0.00591942
0.00561274
0.00524732
0.00476522
0.00392833
0.0033683
0.00286444
0.00247459
0.00219495
0.00195796
0.00178867
0.00163485
0.00151496
0.00139567
0.00127055
0.00113425
0.00100594
0.000898728
0.000812102
0.000741142
0.000680318
0.000623969
0.000566676
0.000504355
0.000436286
0.000366503
0.000295163
0.000228372
0.000174936
0.000139823
0.00012201
0.000116715
0.00011726
0.000120213
0.000121902
0.000121698
0.000120704
0.000121402
0.000128623
0.000141709
0.000152104
0.000160946
0.000168442
0.000173284
0.000174912
0.000174349
0.000169405
0.00015254
0.000130025
0.000113668
0.000104299
9.91687e-05
9.54747e-05
9.11281e-05
8.55421e-05
7.9193e-05
7.28314e-05
6.72386e-05
6.3064e-05
6.04939e-05
5.90731e-05
5.78374e-05
5.59763e-05
5.33864e-05
5.06252e-05
4.83212e-05
4.65876e-05
4.4951e-05
4.27437e-05
3.95402e-05
3.5343e-05
3.04919e-05
2.54537e-05
2.06464e-05
1.63553e-05
1.27234e-05
9.77651e-06
7.4526e-06
5.62679e-06
4.17231e-06
3.02316e-06
2.14422e-06
1.49687e-06
1.03684e-06
7.20218e-07
5.07902e-07
3.67888e-07
2.75716e-07
2.13868e-07
1.70916e-07
1.39754e-07
1.15939e-07
9.633e-08
7.94086e-08
6.45558e-08
5.16397e-08
4.05782e-08
3.12514e-08
2.36907e-08
0.00054794
0.00173019
0.00227714
0.00316342
0.00346119
0.00375119
0.00402807
0.0043394
0.00463175
0.00495123
0.00540514
0.00593883
0.00654727
0.00725729
0.00805804
0.00897112
0.00998629
0.0111207
0.0124307
0.0139023
0.0154573
0.0168873
0.0180265
0.0189262
0.0197231
0.0202182
0.0204169
0.0197459
0.0179438
0.0157745
0.0134276
0.0110967
0.00904712
0.00737083
0.00607835
0.00509859
0.0043507
0.00383891
0.00358948
0.00346316
0.00339466
0.00330899
0.00306753
0.00229094
0.00210203
0.00343028
0.00962961
0.0123034
0.0128016
0.0117352
0.00763408
0.00386389
0.00186242
0.000937723
0.000548128
0.000397916
0.000345123
0.000329605
0.000326815
0.00033659
0.000355504
0.000389694
0.000411678
0.00043242
0.000454857
0.000492465
0.000536688
0.000592733
0.000668488
0.000767981
0.000918612
0.00117183
0.00159581
0.00233441
0.00354662
0.00534948
0.00768601
0.0102105
0.0117483
0.0123719
0.0124943
0.0114497
0.00936031
0.00777749
0.00557945
0.00460595
0.00383768
0.00313684
0.00270585
0.0023548
0.00209517
0.00191467
0.00176297
0.00166836
0.00158864
0.00152261
0.00146052
0.00140043
0.00134222
0.00128833
0.00123901
0.00119182
0.00114344
0.00108969
0.00102542
0.00094412
0.000837421
0.000705225
0.000550432
0.00039044
0.000266256
0.00018093
0.00013553
0.00011918
0.000117455
0.000119948
0.000121108
0.000119881
0.000116011
0.00011415
0.000115681
0.000124337
0.000133874
0.000141979
0.000150278
0.000157289
0.000161137
0.000161864
0.000160037
0.000149751
0.000127549
0.00010886
9.75171e-05
9.22158e-05
9.0161e-05
8.78778e-05
8.38717e-05
7.84578e-05
7.25369e-05
6.70408e-05
6.26086e-05
5.94175e-05
5.74485e-05
5.64538e-05
5.55528e-05
5.36747e-05
5.07927e-05
4.77944e-05
4.53795e-05
4.37277e-05
4.23937e-05
4.06773e-05
3.80951e-05
3.45699e-05
3.03482e-05
2.58164e-05
2.13463e-05
1.72173e-05
1.35969e-05
1.05468e-05
8.03583e-06
5.98232e-06
4.32598e-06
3.035e-06
2.07056e-06
1.37974e-06
9.04037e-07
5.88138e-07
3.84965e-07
2.57579e-07
1.78839e-07
1.29969e-07
9.88127e-08
7.8092e-08
6.3425e-08
5.2089e-08
4.25227e-08
3.43809e-08
2.71231e-08
2.13348e-08
0.0011047
0.00257542
0.00297905
0.00347144
0.00365486
0.00399442
0.0043064
0.00449713
0.00471053
0.00493367
0.00500764
0.00507102
0.00523601
0.00543207
0.00564985
0.00588495
0.00615672
0.00648762
0.00689787
0.00742347
0.00807814
0.00883592
0.00963026
0.0103952
0.0111649
0.0118632
0.012199
0.0123044
0.0118971
0.0110657
0.00996774
0.0087719
0.00761343
0.00651722
0.00558418
0.00484929
0.00428478
0.00388668
0.00362712
0.00344665
0.0033216
0.00307429
0.00236078
0.00204777
0.00269631
0.00773497
0.0111056
0.0117918
0.0104454
0.00618833
0.00329281
0.00164369
0.000860437
0.000518052
0.000382992
0.000335467
0.00032147
0.000318973
0.000327813
0.000347394
0.000382249
0.00041245
0.00043975
0.00046102
0.000487633
0.000520603
0.000570642
0.000653777
0.000774044
0.000964882
0.00130207
0.00188177
0.00282124
0.0045207
0.00745564
0.0118076
0.0168342
0.020572
0.0221335
0.0226096
0.021446
0.0163875
0.0122087
0.0083644
0.00575513
0.00457813
0.00372629
0.00295066
0.0025491
0.00219682
0.00194717
0.00176869
0.00162705
0.00155431
0.00151026
0.00148162
0.00145454
0.00142358
0.00139292
0.00136354
0.00133581
0.00130777
0.00127732
0.00124292
0.00120376
0.00115811
0.00110372
0.00103675
0.000948289
0.000818044
0.00062118
0.000405124
0.000247254
0.000161651
0.000127359
0.000119915
0.000120683
0.000121163
0.000119537
0.000112934
0.000108128
0.000107464
0.00011165
0.000119769
0.000125188
0.000130971
0.000137206
0.000142078
0.000144203
0.000144083
0.000139877
0.000123721
0.000104637
9.20614e-05
8.55774e-05
8.29805e-05
8.19122e-05
8.05591e-05
7.73507e-05
7.17738e-05
6.62011e-05
6.15463e-05
5.81763e-05
5.59964e-05
5.47655e-05
5.40467e-05
5.30875e-05
5.08974e-05
4.77217e-05
4.47119e-05
4.23906e-05
4.08621e-05
3.97866e-05
3.85188e-05
3.65042e-05
3.35655e-05
2.98593e-05
2.57023e-05
2.14425e-05
1.73788e-05
1.37185e-05
1.05594e-05
7.90645e-06
5.73342e-06
4.01859e-06
2.72497e-06
1.79199e-06
1.147e-06
7.18311e-07
4.43655e-07
2.73501e-07
1.71139e-07
1.10843e-07
7.55878e-08
5.46086e-08
4.17785e-08
3.31919e-08
2.70434e-08
2.17258e-08
1.77072e-08
0.00167902
0.00282989
0.00315625
0.00362814
0.00393048
0.00426406
0.00440458
0.00453858
0.00463797
0.00470866
0.00477838
0.00486112
0.0049607
0.00505709
0.00514452
0.00522749
0.00532247
0.00541432
0.00550387
0.00559491
0.00568544
0.00578406
0.00589511
0.00601524
0.00614985
0.00629812
0.00644581
0.00655865
0.00661051
0.00652553
0.00632372
0.00599277
0.00560783
0.0052004
0.00483026
0.00449102
0.00415125
0.00382489
0.00357681
0.00334398
0.00308327
0.00242034
0.00202131
0.00228583
0.00569256
0.00975454
0.0107902
0.00989106
0.00562559
0.00297082
0.00153355
0.000829165
0.000508816
0.000377045
0.000329165
0.000314781
0.000311993
0.000316893
0.000330997
0.000360376
0.000399334
0.000430176
0.000461883
0.000491649
0.000523653
0.000566613
0.000656608
0.000827136
0.00104543
0.00138164
0.00192294
0.00289923
0.00496048
0.00905362
0.0149363
0.0220695
0.0304109
0.0347396
0.036505
0.0367158
0.0321522
0.0229253
0.0160143
0.00873984
0.00581873
0.0035814
0.00245887
0.00180646
0.00149961
0.00128438
0.00113768
0.00104717
0.000999109
0.000997763
0.00104037
0.00108732
0.00113065
0.0011694
0.00120185
0.00122535
0.00124095
0.00124751
0.00124398
0.00122903
0.00120403
0.00117098
0.00113125
0.00108459
0.00102977
0.00096531
0.000882498
0.000752582
0.000538099
0.000318285
0.000192118
0.000138317
0.000123119
0.000121066
0.000120532
0.000118309
0.000110086
0.000102933
0.000100652
0.00010172
0.000107989
0.000113117
0.000115065
0.000117854
0.000122257
0.000125532
0.000126473
0.000125403
0.000117602
0.000100243
8.75225e-05
8.04851e-05
7.74875e-05
7.64462e-05
7.56921e-05
7.42573e-05
7.05833e-05
6.50342e-05
6.0204e-05
5.66405e-05
5.4338e-05
5.3065e-05
5.23643e-05
5.16926e-05
5.03245e-05
4.7453e-05
4.43161e-05
4.16032e-05
3.94483e-05
3.79631e-05
3.71195e-05
3.63957e-05
3.49669e-05
3.24154e-05
2.89265e-05
2.48474e-05
2.05811e-05
1.64822e-05
1.27907e-05
9.61775e-06
6.98963e-06
4.90115e-06
3.31771e-06
2.17194e-06
1.37824e-06
8.50164e-07
5.11814e-07
3.0263e-07
1.77588e-07
1.05166e-07
6.42152e-08
4.14677e-08
2.86311e-08
2.14673e-08
1.66136e-08
1.37274e-08
0.00183116
0.0029565
0.00342433
0.00383025
0.00416688
0.00435348
0.00445336
0.00456717
0.00462667
0.00465798
0.00469279
0.0047626
0.00483636
0.00489807
0.00494801
0.00500655
0.00507918
0.00514301
0.00521661
0.00529992
0.00535146
0.00537459
0.00538059
0.00536765
0.00532219
0.00525697
0.00518774
0.00511463
0.00503483
0.00496646
0.00491766
0.00485309
0.00480001
0.00464437
0.00446121
0.00422299
0.00394465
0.00366426
0.00337492
0.00293232
0.00238087
0.00202102
0.00211323
0.00400526
0.00826813
0.00969198
0.00958894
0.00571028
0.00295876
0.00154048
0.00084065
0.0005184
0.00038076
0.000328527
0.000311571
0.000307787
0.000309083
0.000317599
0.000338181
0.000371397
0.000400603
0.000432139
0.000466681
0.000503219
0.000552984
0.000644991
0.000790943
0.00094704
0.00118856
0.00165504
0.00253542
0.00443749
0.00846714
0.0143357
0.023185
0.0358698
0.0464651
0.0516616
0.0536738
0.0537046
0.0466798
0.035436
0.023215
0.0111796
0.00610311
0.00314299
0.00171675
0.00103771
0.000729799
0.000581303
0.000492985
0.000436034
0.000405638
0.000404302
0.000450335
0.000531971
0.000612835
0.000681654
0.000748377
0.000809616
0.000865783
0.000916913
0.000961857
0.000996419
0.00101729
0.00102382
0.00102188
0.00101252
0.000994262
0.00096128
0.000910127
0.000841476
0.000748982
0.000593484
0.000370826
0.000215967
0.000147265
0.000125145
0.000120029
0.000118479
0.000115238
0.000105975
9.81719e-05
9.49427e-05
9.4819e-05
9.74755e-05
0.000102297
0.000104384
0.000105154
0.000106485
0.000109757
0.000111668
0.000111631
0.00010854
9.62816e-05
8.37283e-05
7.65707e-05
7.32605e-05
7.21186e-05
7.15626e-05
7.06076e-05
6.83607e-05
6.34037e-05
5.85839e-05
5.49045e-05
5.24727e-05
5.11432e-05
5.04643e-05
4.99329e-05
4.90502e-05
4.69455e-05
4.37018e-05
4.06997e-05
3.83595e-05
3.66665e-05
3.55323e-05
3.48175e-05
3.42262e-05
3.31564e-05
3.07465e-05
2.71038e-05
2.28624e-05
1.85145e-05
1.44498e-05
1.08885e-05
7.91636e-06
5.54724e-06
3.74864e-06
2.44705e-06
1.546e-06
9.47134e-07
5.63869e-07
3.27197e-07
1.86032e-07
1.04553e-07
5.9137e-08
3.4296e-08
2.13346e-08
1.40987e-08
1.06915e-08
0.00194819
0.00311633
0.00361787
0.00397265
0.00428394
0.00441002
0.00449042
0.00454324
0.00456506
0.00458799
0.0046322
0.00468904
0.00472003
0.00473033
0.00474646
0.00478934
0.00484709
0.00492576
0.00504106
0.00518347
0.00529854
0.00540031
0.00546706
0.00550095
0.00550943
0.00547004