/*--------------------------------*- C++ -*----------------------------------*\
  =========                 |
  \\      /  F ield         | OpenFOAM: The Open Source CFD Toolbox
   \\    /   O peration     | Website:  https://openfoam.org
    \\  /    A nd           | Version:  7
     \\/     M anipulation  |
\*---------------------------------------------------------------------------*/
FoamFile
{
    version     2.0;
    format      ascii;
    class       volScalarField;
    location    "0.073";
    object      k_0;
}
// * * * * * * * * * * * * * * * * * * * * * * * * * * * * * * * * * * * * * //

dimensions      [0 2 -2 0 0 0 0];

internalField   nonuniform List<scalar> 
12225
(
1.93877e-05
1.79035e-05
1.68028e-05
1.52864e-05
1.40005e-05
1.25004e-05
1.11056e-05
1.20741e-05
1.21727e-05
8.7861e-06
6.76808e-06
6.02936e-06
5.82597e-06
5.71684e-06
5.1847e-06
5.09004e-06
2.49889e-05
1.59812e-05
1.99823e-05
1.98728e-05
1.96984e-05
1.93888e-05
1.91715e-05
1.8702e-05
1.8132e-05
1.86218e-05
1.97665e-05
1.93453e-05
1.80837e-05
1.67793e-05
1.58401e-05
1.54962e-05
1.48886e-05
1.44263e-05
2.2344e-05
2.24109e-05
2e-05
1.93925e-05
1.93239e-05
1.91915e-05
1.90936e-05
1.89056e-05
1.88286e-05
1.89069e-05
1.92191e-05
1.9217e-05
1.91187e-05
1.88199e-05
1.83446e-05
1.80371e-05
1.77462e-05
1.74956e-05
1.86362e-05
1.91081e-05
2.01383e-05
2.01308e-05
1.93289e-05
1.41879e-05
1.3794e-05
1.43678e-05
1.57964e-05
1.68972e-05
1.73948e-05
1.75371e-05
1.75035e-05
1.7195e-05
1.65511e-05
1.61902e-05
1.60634e-05
1.6051e-05
1.61104e-05
1.63164e-05
2.15239e-05
2.72157e-05
2.65883e-05
2.26747e-05
2.0229e-05
1.93805e-05
1.90115e-05
1.8466e-05
1.80041e-05
1.77533e-05
1.74431e-05
1.66957e-05
1.5186e-05
1.4049e-05
1.35485e-05
1.34668e-05
1.35243e-05
1.38682e-05
2.19278e-05
2.4613e-05
2.42101e-05
2.27813e-05
2.14797e-05
2.09242e-05
2.08126e-05
2.09336e-05
2.10458e-05
2.10096e-05
2.0882e-05
2.06021e-05
1.99038e-05
1.89619e-05
1.81855e-05
1.77292e-05
1.76017e-05
1.75828e-05
2.02922e-05
2.5914e-05
2.78633e-05
2.69561e-05
2.41906e-05
2.19233e-05
2.11607e-05
2.10811e-05
2.11531e-05
2.14957e-05
2.20302e-05
2.23524e-05
2.24586e-05
2.24602e-05
2.24259e-05
2.22684e-05
2.2068e-05
2.19132e-05
2.025e-05
2.20958e-05
2.34198e-05
2.3439e-05
2.29964e-05
2.17106e-05
2.10425e-05
2.09855e-05
2.1247e-05
2.23143e-05
2.29786e-05
2.30777e-05
2.30415e-05
2.28808e-05
2.27737e-05
2.27462e-05
2.27457e-05
2.27398e-05
2.12475e-05
2.09647e-05
2.23172e-05
2.35549e-05
2.3252e-05
2.18079e-05
2.09543e-05
2.08727e-05
2.11278e-05
2.22338e-05
2.33466e-05
2.38505e-05
2.39645e-05
2.39348e-05
2.37231e-05
2.35062e-05
2.34507e-05
2.34427e-05
2.04952e-05
2.02427e-05
2.07829e-05
2.33656e-05
2.47273e-05
2.41416e-05
2.22172e-05
2.16228e-05
2.18355e-05
2.37774e-05
2.62517e-05
2.669e-05
2.64783e-05
2.54445e-05
2.4359e-05
2.37939e-05
2.35647e-05
2.35167e-05
2.00739e-05
2.04049e-05
2.31133e-05
2.5562e-05
2.49572e-05
2.28573e-05
2.141e-05
2.07954e-05
2.05564e-05
2.06737e-05
2.16887e-05
2.24129e-05
2.25506e-05
2.25125e-05
2.23527e-05
2.22782e-05
2.22782e-05
2.23614e-05
2.08043e-05
2.14763e-05
2.16392e-05
2.18074e-05
2.2026e-05
2.2154e-05
2.21054e-05
2.18968e-05
2.18237e-05
2.17867e-05
2.16699e-05
2.14694e-05
2.13545e-05
2.13126e-05
2.13089e-05
2.13437e-05
2.15338e-05
2.22931e-05
2.10508e-05
2.1317e-05
2.15663e-05
2.13123e-05
2.11267e-05
2.12049e-05
2.18553e-05
2.28055e-05
2.29734e-05
2.26753e-05
2.1805e-05
2.12479e-05
2.09916e-05
2.08901e-05
2.0845e-05
2.0815e-05
2.07997e-05
2.08149e-05
2.0461e-05
2.07944e-05
2.09892e-05
2.08838e-05
2.08131e-05
2.07878e-05
2.08432e-05
2.11535e-05
2.12506e-05
2.1195e-05
2.10295e-05
2.09858e-05
2.10133e-05
2.12218e-05
2.15126e-05
2.1612e-05
2.16144e-05
2.15509e-05
2.01154e-05
2.03121e-05
2.12704e-05
2.25589e-05
2.25652e-05
2.18227e-05
2.09367e-05
2.07945e-05
2.08688e-05
2.13956e-05
2.22928e-05
2.27331e-05
2.28548e-05
2.28433e-05
2.26675e-05
2.20603e-05
2.14484e-05
2.1009e-05
2.0179e-05
2.03905e-05
2.10336e-05
2.1324e-05
2.10635e-05
2.05319e-05
2.03029e-05
2.0268e-05
2.03014e-05
2.05124e-05
2.13746e-05
2.33371e-05
2.46248e-05
2.50997e-05
2.5133e-05
2.49371e-05
2.3953e-05
2.26068e-05
2.03973e-05
2.02816e-05
2.03109e-05
2.04604e-05
2.04839e-05
2.04725e-05
2.0476e-05
2.05149e-05
2.06054e-05
2.08555e-05
2.16832e-05
2.26518e-05
2.322e-05
2.34379e-05
2.34396e-05
2.32403e-05
2.25321e-05
2.19321e-05
2.09166e-05
2.05071e-05
2.03777e-05
2.06144e-05
2.07174e-05
2.08172e-05
2.0973e-05
2.09751e-05
2.09415e-05
2.08562e-05
2.08253e-05
2.08336e-05
2.0855e-05
2.08559e-05
2.08423e-05
2.08313e-05
2.08462e-05
2.08497e-05
2.01189e-05
2.00879e-05
2.01911e-05
2.06178e-05
2.07537e-05
2.07692e-05
2.09128e-05
2.12254e-05
2.12315e-05
2.10288e-05
2.0665e-05
2.04788e-05
2.03928e-05
2.03531e-05
2.03324e-05
2.03214e-05
2.03157e-05
2.03125e-05
2.04887e-05
2.06207e-05
2.06412e-05
2.05838e-05
2.05862e-05
2.07282e-05
2.10897e-05
2.1147e-05
2.11324e-05
2.11241e-05
2.11098e-05
2.10592e-05
2.09078e-05
2.07761e-05
2.0702e-05
2.06725e-05
2.06607e-05
2.0642e-05
2.0086e-05
2.05956e-05
2.10733e-05
2.10517e-05
2.06221e-05
2.03956e-05
2.04242e-05
2.05329e-05
2.0585e-05
2.0637e-05
2.0663e-05
2.06685e-05
2.06658e-05
2.06452e-05
2.05786e-05
2.05277e-05
2.04901e-05
2.04624e-05
2.0122e-05
2.09863e-05
2.15645e-05
2.14059e-05
2.06953e-05
2.03545e-05
2.03522e-05
2.04629e-05
2.04647e-05
2.03671e-05
2.03142e-05
2.03043e-05
2.0293e-05
2.02568e-05
2.01735e-05
2.01148e-05
2.00784e-05
2.00706e-05
2.05433e-05
2.08674e-05
2.09038e-05
2.07224e-05
2.04935e-05
2.04166e-05
2.04007e-05
2.03926e-05
2.03391e-05
2.02543e-05
2.02114e-05
2.01911e-05
2.01749e-05
2.01488e-05
2.0097e-05
1.99709e-05
1.96499e-05
1.93593e-05
2.0693e-05
2.09111e-05
2.09212e-05
2.07807e-05
2.0594e-05
2.05382e-05
2.05461e-05
2.06215e-05
2.06676e-05
2.0658e-05
2.05742e-05
2.03926e-05
2.02358e-05
2.0107e-05
2.00194e-05
1.99802e-05
1.99726e-05
1.99721e-05
2.07364e-05
2.03091e-05
2.02556e-05
2.03372e-05
2.04076e-05
2.04295e-05
2.04406e-05
2.04895e-05
2.06551e-05
2.07315e-05
2.07194e-05
2.06178e-05
2.03787e-05
2.0206e-05
2.01404e-05
2.01244e-05
2.01239e-05
2.01313e-05
2.06922e-05
2.01494e-05
2.01969e-05
2.04393e-05
2.07891e-05
2.11815e-05
2.12747e-05
2.1212e-05
2.08415e-05
2.04573e-05
2.0373e-05
2.04135e-05
2.05957e-05
2.0657e-05
2.06132e-05
2.0429e-05
2.02523e-05
2.01635e-05
2.00579e-05
2.00188e-05
2.00331e-05
2.00288e-05
2.00155e-05
2.00076e-05
1.9941e-05
1.96815e-05
1.95368e-05
1.9564e-05
1.98133e-05
2.06043e-05
2.13181e-05
2.16283e-05
2.1688e-05
2.16454e-05
2.16302e-05
2.15875e-05
2.01962e-05
1.86827e-05
1.46343e-05
1.52581e-05
1.84053e-05
2.46183e-05
2.81295e-05
3.00285e-05
3.25492e-05
3.77731e-05
5.07346e-05
6.60336e-05
7.82718e-05
8.70061e-05
9.32136e-05
9.7211e-05
0.000100287
0.000101877
3.0882e-05
0.000112385
0.00014897
0.000224904
0.000322246
0.000369218
0.000380409
0.000386962
0.000401585
0.000443767
0.00053122
0.000597992
0.000639687
0.000665989
0.000682418
0.000690759
0.000697261
0.000709444
0.00228407
0.00253241
0.00254727
0.0024426
0.00221556
0.00203294
0.00190893
0.00184472
0.00182083
0.00181389
0.00180665
0.0017856
0.00173295
0.00168931
0.00165153
0.00160947
0.00155291
0.00148298
0.00878068
0.0115427
0.00906042
0.00735843
0.00702787
0.0071815
0.00725352
0.00734087
0.00735529
0.00735313
0.00737049
0.00781363
0.00876422
0.0101979
0.0103317
0.0101896
0.00988347
0.00947211
0.00913236
0.00875523
0.0084144
0.00811222
0.00779863
0.00752338
0.00726199
0.00705228
0.006809
0.00664663
0.00655301
0.00653683
0.00651864
0.00646131
0.00631882
0.00599163
0.00583347
0.00544374
0.00251244
0.0022603
0.00359968
0.00409766
0.00431792
0.00462104
0.00540985
0.00644935
0.00750959
0.00834193
0.0090324
0.00959408
0.0106791
0.012822
0.0180162
0.0317697
0.0437204
0.0484627
0.0525649
0.0628398
0.0742832
0.0835008
0.0887954
0.0749311
0.0216021
0.0041876
0.0018158
0.00145593
0.0014917
0.00152378
0.00153082
0.00142833
0.00126858
0.00108493
0.000876439
0.000700848
0.000518973
0.000390095
0.000307198
0.000217383
0.000178833
0.000159573
0.000154081
0.000155751
0.000156284
0.000156556
0.000156656
0.000156285
0.000155471
0.000154562
0.000153298
0.000152289
0.000150946
0.000149651
0.00014888
0.000147993
0.000147193
0.000146113
0.000145011
0.000144139
0.000142988
0.000141687
0.000139816
0.000137924
0.000135794
0.000133548
0.000131515
0.000129115
0.000126212
0.000123734
0.000120427
0.000116754
0.000112646
0.000107845
0.000102339
9.61604e-05
8.95157e-05
8.259e-05
7.56006e-05
6.87568e-05
6.2322e-05
5.65815e-05
5.17052e-05
4.74935e-05
4.36264e-05
4.00373e-05
3.66266e-05
3.32412e-05
2.98443e-05
2.64142e-05
2.29967e-05
1.96358e-05
1.63158e-05
1.3146e-05
1.035e-05
8.05571e-06
6.24593e-06
4.84169e-06
3.75828e-06
2.92286e-06
2.27872e-06
1.78284e-06
1.40217e-06
1.1106e-06
8.87333e-07
7.15967e-07
5.83797e-07
4.81076e-07
4.00421e-07
3.36268e-07
2.84415e-07
2.41733e-07
2.05958e-07
1.75492e-07
1.49242e-07
1.26468e-07
1.06665e-07
8.9464e-08
7.45771e-08
6.17589e-08
5.07873e-08
4.14585e-08
3.35821e-08
2.69831e-08
2.14973e-08
1.69765e-08
1.32821e-08
1.02915e-08
7.89136e-09
5.98651e-09
4.48786e-09
3.32519e-09
2.43033e-09
1.75427e-09
1.24506e-09
8.73253e-10
5.97514e-10
4.05682e-10
2.67617e-10
1.59276e-10
2.06908e-10
3.70281e-08
3.25406e-06
2.52016e-06
0.00745438
0.00982443
0.00858609
0.0069954
0.0066493
0.00653093
0.00685723
0.00719756
0.00724336
0.0071823
0.00706073
0.00701855
0.00685279
0.00645506
0.0059109
0.00549691
0.00517801
0.0049712
0.00481059
0.0046946
0.0046167
0.0045426
0.00446484
0.00440854
0.00432186
0.00425012
0.00419431
0.00416173
0.00416937
0.00420076
0.00426729
0.00439675
0.00460413
0.00472506
0.00507117
0.00517685
0.00491126
0.00456642
0.00389168
0.00355529
0.0036448
0.00360755
0.00290536
0.00204056
0.00188555
0.00178791
0.00170315
0.00170634
0.00184613
0.00232622
0.0028742
0.00493691
0.00740393
0.00733611
0.00867232
0.021007
0.0621281
0.060945
0.0376183
0.0175593
0.00522513
0.00184941
0.0010884
0.00084416
0.00073431
0.000618528
0.000516546
0.000446035
0.000375371
0.00033389
0.000297776
0.000280002
0.00027008
0.000266308
0.000265546
0.00026764
0.000271854
0.000274321
0.00027551
0.000275954
0.000275854
0.000273793
0.000271603
0.000269986
0.000265528
0.000259455
0.000254202
0.000248617
0.000242413
0.000236481
0.000230404
0.000224377
0.000218808
0.000212143
0.000206355
0.000201963
0.000197526
0.000194483
0.000192102
0.000189072
0.000187352
0.000186319
0.00018582
0.000184999
0.000184413
0.000184192
0.000183711
0.000183456
0.000183192
0.000182819
0.000182144
0.000180749
0.000178288
0.000174634
0.000169809
0.00016373
0.000156152
0.000147179
0.000137199
0.000127264
0.000118316
0.000109876
0.000101779
9.41029e-05
8.67572e-05
7.96303e-05
7.26777e-05
6.60334e-05
5.99328e-05
5.44062e-05
4.92798e-05
4.43874e-05
3.96491e-05
3.50523e-05
3.06206e-05
2.64036e-05
2.24695e-05
1.88882e-05
1.57135e-05
1.29697e-05
1.06506e-05
8.72402e-06
7.14884e-06
5.87257e-06
4.84435e-06
4.0227e-06
3.36961e-06
2.8486e-06
2.42873e-06
2.08478e-06
1.79728e-06
1.55216e-06
1.33977e-06
1.15374e-06
9.89855e-07
8.45244e-07
7.17769e-07
6.05741e-07
5.07705e-07
4.22396e-07
3.48617e-07
2.85321e-07
2.31458e-07
1.86018e-07
1.47982e-07
1.16494e-07
9.06432e-08
6.97159e-08
5.2901e-08
3.9661e-08
2.92359e-08
2.13341e-08
1.51612e-08
1.08039e-08
7.21538e-09
5.22012e-09
2.83807e-09
4.06359e-09
3.70428e-07
4.81803e-07
0.00438026
0.00608847
0.00669235
0.00612089
0.00625242
0.00661316
0.00692742
0.00679169
0.00644046
0.00589435
0.00529969
0.00467584
0.00432834
0.00412108
0.00405433
0.00406361
0.00408577
0.00414107
0.00418116
0.00424689
0.00431762
0.00435038
0.00434558
0.00431998
0.00426439
0.00414593
0.00403156
0.00392204
0.00379464
0.00370358
0.00360857
0.00352979
0.00352167
0.00353433
0.00359665
0.00381805
0.0042407
0.00428001
0.00416941
0.00393704
0.00376144
0.00366495
0.00354386
0.00328261
0.00301915
0.00260559
0.00208108
0.00178284
0.00179063
0.00231128
0.00276079
0.0027765
0.00298342
0.00610738
0.0221705
0.0311558
0.0290346
0.0141505
0.00685695
0.00277714
0.00110804
0.000627877
0.000468894
0.000397641
0.000351135
0.000324663
0.00030825
0.000300039
0.000296
0.000294898
0.00029598
0.000299589
0.000310606
0.000321577
0.0003349
0.000344141
0.000348693
0.000352532
0.000353962
0.000354274
0.000352022
0.000345962
0.000341983
0.000338487
0.000331438
0.00032229
0.000312206
0.00030187
0.000291615
0.000280322
0.000269274
0.000259501
0.000250673
0.000237788
0.000227503
0.000217963
0.000208573
0.000200708
0.000195117
0.000188532
0.000183606
0.000178641
0.000175313
0.000172857
0.000171891
0.000172181
0.000173524
0.000175546
0.000178127
0.000180513
0.000182494
0.000184365
0.000185874
0.000186679
0.000186646
0.000185764
0.000184173
0.000181439
0.000176694
0.000169277
0.000158466
0.000145473
0.000131924
0.000119422
0.000108811
9.99122e-05
9.2218e-05
8.46222e-05
7.67842e-05
6.92549e-05
6.27875e-05
5.77165e-05
5.38285e-05
5.07211e-05
4.80013e-05
4.5302e-05
4.23584e-05
3.90639e-05
3.54567e-05
3.16581e-05
2.78093e-05
2.40387e-05
2.04459e-05
1.71187e-05
1.4129e-05
1.15227e-05
9.31886e-06
7.51021e-06
6.06327e-06
4.92785e-06
4.04723e-06
3.36657e-06
2.83787e-06
2.4221e-06
2.08902e-06
1.81602e-06
1.58661e-06
1.3892e-06
1.21587e-06
1.06164e-06
9.23221e-07
7.98433e-07
6.85738e-07
5.84292e-07
4.93398e-07
4.1259e-07
3.41288e-07
2.79076e-07
2.25313e-07
1.79591e-07
1.4108e-07
1.09228e-07
8.32768e-08
6.21097e-08
4.6158e-08
3.21308e-08
2.43348e-08
1.35941e-08
2.1752e-08
4.0819e-08
0.00175084
0.00353102
0.00472382
0.00703715
0.0082369
0.00784277
0.00685773
0.00549855
0.00448128
0.00388318
0.00365881
0.00365538
0.00369554
0.00379386
0.0039931
0.00431184
0.00460212
0.0051964
0.0056245
0.00624404
0.00669054
0.0070836
0.00735401
0.00733851
0.00722913
0.00696472
0.00647717
0.00590589
0.00532113
0.00480967
0.00436443
0.00400857
0.00375334
0.00361064
0.0034959
0.00347571
0.00350057
0.0035669
0.00375574
0.00377012
0.00373503
0.00366722
0.00366008
0.00362595
0.00346648
0.00300845
0.00225493
0.00203325
0.00214422
0.00281961
0.00361894
0.00560027
0.0135675
0.0189286
0.0217486
0.0164611
0.00733461
0.00330474
0.00150722
0.000733116
0.000461153
0.000376714
0.000346582
0.000334953
0.000330391
0.000329008
0.000331455
0.000346516
0.000368961
0.000399698
0.000432482
0.000468191
0.000488096
0.000497664
0.00050186
0.000502919
0.000501875
0.000494862
0.000485839
0.000482402
0.000480021
0.000474694
0.000460321
0.000446038
0.000437365
0.00042666
0.00040972
0.000390636
0.000374419
0.000356505
0.000337334
0.00031753
0.000306242
0.000282999
0.000269729
0.000254155
0.000239706
0.000223851
0.000210254
0.000196873
0.000186294
0.000177076
0.000168848
0.000160024
0.000153205
0.000147498
0.000143183
0.00014092
0.000140997
0.000143981
0.000148768
0.000154664
0.000161574
0.000169269
0.00017656
0.000181578
0.00018458
0.000185871
0.000186053
0.000185487
0.000183704
0.000179926
0.000173029
0.000162327
0.000149391
0.000137391
0.000127158
0.00011891
0.000111527
0.000103728
9.4988e-05
8.57997e-05
7.71184e-05
6.9477e-05
6.29803e-05
5.75222e-05
5.28967e-05
4.89009e-05
4.54054e-05
4.22806e-05
3.92666e-05
3.6006e-05
3.2286e-05
2.82069e-05
2.40458e-05
2.00296e-05
1.63477e-05
1.31286e-05
1.04189e-05
8.19848e-06
6.41369e-06
5.00563e-06
3.92016e-06
3.10423e-06
2.50209e-06
2.05914e-06
1.72887e-06
1.47626e-06
1.27691e-06
1.11429e-06
9.77346e-07
8.58855e-07
7.54203e-07
6.60393e-07
5.75471e-07
4.98052e-07
4.27505e-07
3.63246e-07
3.05473e-07
2.53656e-07
2.08341e-07
1.68479e-07
1.3472e-07
1.05811e-07
8.21466e-08
6.22666e-08
4.71507e-08
3.3737e-08
2.51568e-08
1.83725e-08
0.0028115
0.00443277
0.00871063
0.00772918
0.00575039
0.00401045
0.00328961
0.00319498
0.0032249
0.00332021
0.00351638
0.00380154
0.00433108
0.00499584
0.00592976
0.00699454
0.00820434
0.00962194
0.0108635
0.0122288
0.0133133
0.0141509
0.0148318
0.0148721
0.0146998
0.014216
0.0131653
0.0116333
0.00988557
0.00817562
0.00670059
0.00558476
0.00475237
0.00416471
0.00376399
0.00356065
0.00347456
0.00346616
0.00349051
0.00356626
0.0036501
0.00365108
0.00363683
0.00356581
0.00333873
0.00255587
0.00205065
0.00218826
0.00326976
0.00688623
0.0128662
0.0149079
0.0159479
0.0163187
0.0101394
0.00449227
0.00201614
0.000969911
0.000552791
0.00040035
0.00035282
0.000340069
0.00033776
0.000339961
0.0003529
0.000381131
0.000411769
0.000454156
0.000489686
0.000528688
0.000553861
0.000567771
0.000575317
0.000587047
0.000608689
0.000633833
0.000660833
0.00069877
0.000752551
0.00081495
0.000851363
0.000869163
0.000873522
0.000840863
0.000815063
0.000775655
0.000731098
0.000676614
0.000629711
0.000585983
0.00053777
0.000478707
0.000444807
0.000388535
0.000354418
0.000319439
0.000294825
0.000271603
0.000252683
0.000234126
0.000216547
0.000200121
0.000184912
0.000172019
0.000159497
0.00014903
0.000140095
0.000133156
0.000128345
0.000125518
0.000125001
0.000126815
0.000130191
0.000134064
0.000139663
0.000149714
0.000162046
0.000172632
0.000178864
0.000182508
0.000184285
0.000184739
0.000184331
0.000182003
0.000174707
0.000158954
0.000142034
0.000128894
0.00011983
0.00011305
0.000106752
9.96155e-05
9.14731e-05
8.33368e-05
7.61091e-05
7.02508e-05
6.59659e-05
6.29807e-05
6.06076e-05
5.82503e-05
5.57592e-05
5.33177e-05
5.10081e-05
4.8542e-05
4.54505e-05
4.14916e-05
3.67347e-05
3.14916e-05
2.61213e-05
2.08734e-05
1.59276e-05
1.15234e-05
7.9323e-06
5.32177e-06
3.64028e-06
2.6394e-06
2.04573e-06
1.66747e-06
1.39789e-06
1.18558e-06
1.00868e-06
8.59807e-07
7.35226e-07
6.31302e-07
5.43991e-07
4.69596e-07
4.04995e-07
3.47997e-07
2.97028e-07
2.51157e-07
2.10061e-07
1.73614e-07
1.41691e-07
1.14135e-07
9.06217e-08
7.08856e-08
5.46942e-08
4.11923e-08
3.10464e-08
2.21788e-08
0.00528639
0.00539801
0.00369109
0.00278533
0.00272442
0.00277072
0.00292016
0.00319302
0.00356915
0.00405466
0.00461551
0.00530883
0.00608824
0.00703245
0.00820079
0.00958671
0.0111032
0.0126781
0.014194
0.0156457
0.0169342
0.0179678
0.0189094
0.0196619
0.0198443
0.019757
0.0193897
0.0185334
0.0166433
0.014088
0.0113545
0.00885472
0.00694668
0.00559668
0.00456412
0.00393471
0.003605
0.00349046
0.00345944
0.0034662
0.00348077
0.00348143
0.00346038
0.00337019
0.00292526
0.00214384
0.00223355
0.00379292
0.0103897
0.0139936
0.0145163
0.0144021
0.0127064
0.00667697
0.00302149
0.00140755
0.000731377
0.000466447
0.000372786
0.000344323
0.000338366
0.00034192
0.00035209
0.000381113
0.000411222
0.000433073
0.000469454
0.00050709
0.000547847
0.000588411
0.000628123
0.000662559
0.000703152
0.000770004
0.000874519
0.0010318
0.00124854
0.00152262
0.00182335
0.00209537
0.00224968
0.00231707
0.00232918
0.00222685
0.00213775
0.00193153
0.00177431
0.00162633
0.00145804
0.0013468
0.00121122
0.00107849
0.000959569
0.000820874
0.000705235
0.000595331
0.000517304
0.000456346
0.000409332
0.000371304
0.000339388
0.000310963
0.000283643
0.000256702
0.000229835
0.000203347
0.000177744
0.000154983
0.000137287
0.000125947
0.000120372
0.000118797
0.000119671
0.000122496
0.000124723
0.000125904
0.000128412
0.000136932
0.000150827
0.000162701
0.000170792
0.000176692
0.000180497
0.00018195
0.00018177
0.00017924
0.000169762
0.000149077
0.000130045
0.000117437
0.000109665
0.000104225
9.90082e-05
9.27741e-05
8.56199e-05
7.84112e-05
7.19386e-05
6.68492e-05
6.3436e-05
6.1339e-05
5.97299e-05
5.78785e-05
5.55875e-05
5.31631e-05
5.09762e-05
4.90128e-05
4.68383e-05
4.3923e-05
3.99937e-05
3.51494e-05
2.97529e-05
2.42724e-05
1.91759e-05
1.47914e-05
1.12263e-05
8.44312e-06
6.34022e-06
4.78978e-06
3.63525e-06
2.74063e-06
2.0452e-06
1.51835e-06
1.1305e-06
8.51466e-07
6.5357e-07
5.13592e-07
4.1344e-07
3.39826e-07
2.83652e-07
2.38928e-07
2.0159e-07
1.69017e-07
1.40069e-07
1.14436e-07
9.21026e-08
7.28998e-08
5.68387e-08
4.35177e-08
3.28451e-08
2.42995e-08
0.00359235
0.00228886
0.00223016
0.00241246
0.0027716
0.00319107
0.00368447
0.00403432
0.00438692
0.00476559
0.00523452
0.00585273
0.00658894
0.00757149
0.00881487
0.0102717
0.0118352
0.0134276
0.0149783
0.01646
0.017783
0.0189433
0.0199444
0.0207236
0.0212007
0.0213608
0.02131
0.0209439
0.0199117
0.0176131
0.014809
0.0119833
0.00951955
0.00756713
0.00611716
0.00494808
0.00413177
0.00367959
0.00350582
0.00344786
0.003419
0.00339429
0.00333029
0.00304504
0.00220843
0.00214542
0.00407658
0.010977
0.0133273
0.0138355
0.0130231
0.00968797
0.00480214
0.0022498
0.00108691
0.000608133
0.000421974
0.00035622
0.000337042
0.000333527
0.000341673
0.000356495
0.000387316
0.000406685
0.000426662
0.000453412
0.000491475
0.00053604
0.000590955
0.000653363
0.000731481
0.000830272
0.000979973
0.00122677
0.00163466
0.00225645
0.00309632
0.00407714
0.00501416
0.00559532
0.00584496
0.00589841
0.00559897
0.00523069
0.00477228
0.00393606
0.00337345
0.00287071
0.00247793
0.00219743
0.0019593
0.00178907
0.00163451
0.00151357
0.00139331
0.00126692
0.00112925
0.00100061
0.000893218
0.000806546
0.000735623
0.000674882
0.000618653
0.000561546
0.000499559
0.000432103
0.000362979
0.000292118
0.000226007
0.000173372
0.000138938
0.000121632
0.000116609
0.000117263
0.000120282
0.000121935
0.000121697
0.000120703
0.000121471
0.000128907
0.000141983
0.000152317
0.000161122
0.000168576
0.000173362
0.000174944
0.000174344
0.000169276
0.000152187
0.000129713
0.000113472
0.000104191
9.91054e-05
9.54173e-05
9.10559e-05
8.54556e-05
7.91018e-05
7.27466e-05
6.71699e-05
6.30169e-05
6.04663e-05
5.90552e-05
5.78171e-05
5.59473e-05
5.33517e-05
5.05928e-05
4.82958e-05
4.65667e-05
4.49273e-05
4.27104e-05
3.94949e-05
3.5288e-05
3.04323e-05
2.53948e-05
2.05924e-05
1.63085e-05
1.26847e-05
9.74566e-06
7.42838e-06
5.60747e-06
4.15675e-06
3.01094e-06
2.135e-06
1.49018e-06
1.03216e-06
7.17039e-07
5.05796e-07
3.6651e-07
2.74809e-07
2.13256e-07
1.70487e-07
1.39439e-07
1.15692e-07
9.61221e-08
7.92272e-08
6.43969e-08
5.15023e-08
4.04614e-08
3.11548e-08
2.36119e-08
0.000548468
0.0017277
0.0022748
0.00316073
0.00345843
0.00374721
0.00402398
0.00433596
0.00462915
0.00494958
0.00540422
0.00594143
0.00655256
0.00726694
0.00807333
0.00899319
0.0100154
0.0111556
0.0124696
0.0139429
0.0154978
0.0169258
0.0180604
0.0189544
0.0197468
0.0202374
0.0204327
0.019755
0.0179417
0.0157625
0.0134091
0.0110757
0.00902739
0.00735435
0.00606561
0.00508923
0.00434395
0.00383502
0.00358761
0.003462
0.00339319
0.00330594
0.00305867
0.00227931
0.00210053
0.00346218
0.00967941
0.0123049
0.0127932
0.0116999
0.00757539
0.00383039
0.00184563
0.000930059
0.000544845
0.000396538
0.000344499
0.000329238
0.000326513
0.000336275
0.000355229
0.000389463
0.000411513
0.000432232
0.000454456
0.000491767
0.000535763
0.000591552
0.000667013
0.000766092
0.000915725
0.00116707
0.00158724
0.00231884
0.00352051
0.00531022
0.00763439
0.0101545
0.0117115
0.0123458
0.0124775
0.0114711
0.00939544
0.00783443
0.00562287
0.00463106
0.00385765
0.00315183
0.00271553
0.00236212
0.00210037
0.0019185
0.00176578
0.0016703
0.00159002
0.00152354
0.00146112
0.00140031
0.0013414
0.00128692
0.00123707
0.00118941
0.00114057
0.0010863
0.00102136
0.000939218
0.000831701
0.000699074
0.000544181
0.000385232
0.000262851
0.000178891
0.000134587
0.000118879
0.000117403
0.000119987
0.00012112
0.000119839
0.000115949
0.000114149
0.000115785
0.000124595
0.000134075
0.000142161
0.000150444
0.000157412
0.000161203
0.000161891
0.000159995
0.000149474
0.00012722
0.000108625
9.73917e-05
9.21618e-05
9.01303e-05
8.78319e-05
8.38033e-05
7.83761e-05
7.24556e-05
6.69709e-05
6.25554e-05
5.93812e-05
5.74278e-05
5.64412e-05
5.55355e-05
5.36438e-05
5.07551e-05
4.776e-05
4.53537e-05
4.37091e-05
4.23748e-05
4.0651e-05
3.8058e-05
3.45232e-05
3.0296e-05
2.5763e-05
2.12955e-05
1.71716e-05
1.35576e-05
1.05141e-05
8.00886e-06
5.96016e-06
4.30824e-06
3.02139e-06
2.06058e-06
1.37271e-06
8.9928e-07
5.85031e-07
3.82997e-07
2.56359e-07
1.7809e-07
1.29503e-07
9.85126e-08
7.78889e-08
6.32763e-08
5.19692e-08
4.24209e-08
3.42921e-08
2.70475e-08
2.12695e-08
0.00109925
0.00257314
0.00297729
0.0034686
0.00365153
0.00398972
0.0043032
0.00449461
0.00470808
0.00493386
0.00500999
0.00507219
0.00523675
0.00543363
0.00565298
0.00589011
0.00616398
0.00649768
0.00691175
0.00744269
0.00810451
0.00887075
0.0096732
0.0104414
0.0112082
0.0119031
0.0122344
0.0123322
0.0119155
0.011075
0.00996949
0.00876853
0.00760698
0.00650933
0.00557636
0.00484303
0.00428088
0.00388475
0.00362574
0.00344513
0.00331881
0.00306734
0.00235018
0.0020457
0.00271179
0.00778579
0.0111086
0.0117829
0.0103991
0.00613383
0.00326151
0.00162933
0.000853954
0.000515262
0.000381806
0.000334918
0.000321147
0.000318706
0.000327529
0.000347092
0.000381969
0.000412189
0.000439655
0.000460984
0.000487512
0.000520216
0.000569829
0.000652647
0.000772447
0.000962346
0.00129718
0.00187297
0.00280532
0.00449084
0.00740288
0.0117288
0.0167491
0.0205301
0.0221132
0.0226029
0.0215013
0.0164985
0.0123028
0.00846262
0.00580342
0.00461251
0.00375637
0.00297404
0.00256602
0.00221058
0.00195803
0.00177763
0.00163423
0.00156001
0.00151465
0.00148498
0.00145703
0.00142543
0.00139423
0.00136443
0.00133637
0.00130808
0.00127743
0.00124287
0.00120355
0.00115754
0.00110271
0.00103511
0.000945547
0.000813153
0.000614517
0.000399087
0.000243799
0.000159961
0.000126756
0.000119789
0.000120688
0.000121168
0.000119475
0.000112797
0.000108083
0.00010749
0.000111839
0.000119933
0.000125322
0.000131107
0.000137331
0.000142166
0.000144246
0.000144096
0.000139759
0.000123397
0.000104387
9.19169e-05
8.55097e-05
8.29538e-05
8.18941e-05
8.05296e-05
7.72837e-05
7.16939e-05
6.61287e-05
6.14903e-05
5.81375e-05
5.59723e-05
5.47518e-05
5.40358e-05
5.30693e-05
5.08616e-05
4.76826e-05
4.46782e-05
4.2366e-05
4.08456e-05
3.97721e-05
3.84989e-05
3.64744e-05
3.35259e-05
2.98126e-05
2.56524e-05
2.13932e-05
1.73331e-05
1.36781e-05
1.05249e-05
7.87761e-06
5.71004e-06
4.00046e-06
2.71156e-06
1.7825e-06
1.14056e-06
7.14109e-07
4.41009e-07
2.71888e-07
1.70183e-07
1.10285e-07
7.52619e-08
5.44138e-08
4.16555e-08
3.3107e-08
2.69768e-08
2.16711e-08
1.76584e-08
0.00167652
0.00282831
0.00315432
0.00362447
0.00392528
0.00426076
0.00440212
0.00453636
0.00463651
0.00470772
0.00477751
0.00485982
0.00495932
0.00505618
0.00514426
0.00522742
0.0053226
0.00541504
0.00550494
0.0055965
0.00568842
0.00578881
0.0059015
0.00602346
0.0061602
0.00631054
0.00645979
0.00657265
0.00662481
0.00653614
0.00633024
0.00599554
0.00560812
0.00519932
0.00482876
0.00448969
0.0041501
0.00382359
0.0035754
0.0033414
0.00307778
0.00241168
0.00201915
0.00229187
0.00573876
0.00976151
0.0107836
0.00985156
0.00558565
0.00294531
0.00152003
0.000823016
0.000506173
0.00037596
0.000328696
0.000314525
0.000311791
0.000316696
0.000330729
0.000360037
0.000398915
0.000429828
0.000461606
0.000491496
0.000523558
0.000566437
0.000656094
0.000826116
0.00104362
0.00137822
0.00191633
0.00288457
0.00492855
0.00899504
0.0148574
0.0219752
0.0303294
0.0347168
0.0365146
0.0367503
0.032291
0.023078
0.0161683
0.00883684
0.00587889
0.00363441
0.00250119
0.00183768
0.0015251
0.00130562
0.0011558
0.00106311
0.00101246
0.00100964
0.00105018
0.0010948
0.00113708
0.00117499
0.00120662
0.00122936
0.00124427
0.00125017
0.00124602
0.00123045
0.00120498
0.00117157
0.0011315
0.00108453
0.00102939
0.000964604
0.00088069
0.000748456
0.000531509
0.000313318
0.000189714
0.000137406
0.000122889
0.000121033
0.000120525
0.000118244
0.000109905
0.000102851
0.000100649
0.000101791
0.000108155
0.000113208
0.000115133
0.000117939
0.000122344
0.000125588
0.000126498
0.000125377
0.000117376
9.99995e-05
8.73714e-05
8.04099e-05
7.74573e-05
7.64317e-05
7.5675e-05
7.42261e-05
7.05112e-05
6.49604e-05
6.01449e-05
5.65992e-05
5.43127e-05
5.30508e-05
5.23547e-05
5.16797e-05
5.02978e-05
4.74141e-05
4.42793e-05
4.15724e-05
3.94248e-05
3.79479e-05
3.71098e-05
3.63828e-05
3.49431e-05
3.23795e-05
2.88816e-05
2.47978e-05
2.05313e-05
1.64358e-05
1.27498e-05
9.58305e-06
6.9613e-06
4.87906e-06
3.3013e-06
2.16031e-06
1.37034e-06
8.45003e-07
5.08566e-07
3.00657e-07
1.76429e-07
1.04504e-07
6.38462e-08
4.12628e-08
2.85161e-08
2.1398e-08
1.65683e-08
1.36914e-08
0.00182938
0.00295457
0.00342065
0.0038256
0.00416256
0.00435079
0.004451
0.00456528
0.00462562
0.00465725
0.00469139
0.00476042
0.00483434
0.0048967
0.00494697
0.00500524
0.00507804
0.00514211
0.00521532
0.00529853
0.00535034
0.00537345
0.00537943
0.00536682
0.00532164
0.00525781
0.00518894
0.00511627
0.0050372
0.00497019
0.0049224
0.00485706
0.00480281
0.00464602
0.00446195
0.00422318
0.00394431
0.00366337
0.00337261
0.00292822
0.00237565
0.00201922
0.00211556
0.00403925
0.00828234
0.00969034
0.0095645
0.00566385
0.00293529
0.00152818
0.000834581
0.000515718
0.000379672
0.000328102
0.000311382
0.000307663
0.000308977
0.000317431
0.000337983
0.000371113
0.000400224
0.000431741
0.000466287
0.000502923
0.000552692
0.000644589
0.000790351
0.000945897
0.0011867
0.00165174
0.00252858
0.00442094
0.00843233
0.0142737
0.023089
0.0357717
0.0464126
0.051661
0.0537059
0.0537588
0.0468134
0.0355666
0.0233834
0.0112682
0.00615791
0.00317345
0.00173234
0.00104599
0.000735767
0.000586046
0.00049701
0.000440044
0.000409895
0.000409484
0.000456871
0.000539725
0.000619589
0.000688027
0.000754411
0.000815313
0.000871161
0.000922259
0.000967034
0.00100115
0.00102128
0.00102711
0.00102464
0.00101466
0.000995706
0.000961863
0.000909998
0.000840653
0.000746906
0.000588534
0.000365311
0.0002131
0.00014613
0.000124822
0.000119964
0.000118451
0.000115155
0.000105785
9.80743e-05
9.49214e-05
9.48382e-05
9.75886e-05
0.000102379
0.000104425
0.000105187
0.000106533
0.000109818
0.000111694
0.000111634
0.000108444
9.60422e-05
8.35768e-05
7.64914e-05
7.32269e-05
7.2105e-05
7.15495e-05
7.05864e-05
6.8309e-05
6.33313e-05
5.85239e-05
5.48614e-05
5.2446e-05
5.11288e-05
5.04554e-05
4.99233e-05
4.90332e-05
4.69087e-05
4.36617e-05
4.0666e-05
3.83338e-05
3.66481e-05
3.552e-05
3.48092e-05
3.42164e-05
3.31372e-05
3.0709e-05
2.70567e-05
2.2811e-05
1.84642e-05
1.44042e-05
1.08494e-05
7.88431e-06
5.52221e-06
3.73005e-06
2.43387e-06
1.53705e-06
9.41301e-07
5.60202e-07
3.24973e-07
1.84729e-07
1.03814e-07
5.87309e-08
3.40787e-08
2.12188e-08
1.40373e-08
1.06552e-08
0.00194635
0.00311355
0.00361396
0.00396771
0.00428081
0.004408
0.00448871
0.00454236
0.00456429
0.00458671
0.00463013
0.00468691
0.00471951
0.00473074
0.00474718
0.00479034
0.00484869
0.00492724
0.00504174
0.00518381
0.00529864
0.00539966
0.00546525
0.00549857
0.00550685
0.00546526
0.00535535
0.00519423
0.00499487
0.00475671