/*--------------------------------*- C++ -*----------------------------------*\
  =========                 |
  \\      /  F ield         | OpenFOAM: The Open Source CFD Toolbox
   \\    /   O peration     | Website:  https://openfoam.org
    \\  /    A nd           | Version:  7
     \\/     M anipulation  |
\*---------------------------------------------------------------------------*/
FoamFile
{
    version     2.0;
    format      ascii;
    class       volScalarField;
    location    "0.073";
    object      p;
}
// * * * * * * * * * * * * * * * * * * * * * * * * * * * * * * * * * * * * * //

dimensions      [0 2 -2 0 0 0 0];

internalField   nonuniform List<scalar> 
12225
(
131.08
131.336
131.346
131.008
130.526
129.943
129.287
128.585
127.836
127.043
126.226
125.411
124.607
123.804
122.981
122.112
121.17
120.067
131.315
131.32
131.344
131.018
130.532
129.947
129.291
128.588
127.839
127.045
126.228
125.414
124.613
123.813
122.992
122.128
121.199
120.157
130.823
131.259
131.327
131.029
130.543
129.956
129.3
128.596
127.848
127.059
126.25
125.439
124.635
123.831
123.009
122.149
121.242
120.279
131.135
131.245
131.342
131.063
130.573
129.981
129.321
128.616
127.869
127.084
126.278
125.467
124.661
123.854
123.033
122.183
121.303
120.402
130.636
131.24
131.374
131.103
130.613
130.014
129.35
128.642
127.895
127.113
126.309
125.501
124.695
123.888
123.07
122.233
121.379
120.522
129.765
131.247
131.422
131.157
130.668
130.064
129.395
128.683
127.935
127.154
126.353
125.546
124.74
123.935
123.122
122.299
121.468
120.646
130.375
131.381
131.528
131.243
130.747
130.132
129.453
128.735
127.984
127.204
126.405
125.6
124.796
123.994
123.189
122.38
121.571
120.776
130.091
131.618
131.672
131.348
130.841
130.219
129.533
128.807
128.051
127.27
126.472
125.668
124.865
124.067
123.27
122.475
121.686
120.913
131.128
132.041
131.886
131.494
130.964
130.327
129.628
128.892
128.13
127.348
126.551
125.749
124.95
124.157
123.369
122.587
121.816
121.063
133.541
132.684
132.142
131.668
131.112
130.463
129.752
129.005
128.235
127.447
126.649
125.847
125.049
124.261
123.482
122.714
121.96
121.225
136.245
133.315
132.427
131.876
131.289
130.622
129.897
129.136
128.355
127.562
126.761
125.961
125.167
124.384
123.614
122.858
122.119
121.401
136.584
133.607
132.657
132.086
131.482
130.797
130.057
129.283
128.491
127.69
126.885
126.085
125.293
124.515
123.753
123.008
122.282
121.578
135.942
133.61
132.858
132.321
131.708
131.005
130.246
129.454
128.646
127.834
127.023
126.221
125.431
124.657
123.901
123.165
122.452
121.763
132.591
133.207
133.066
132.627
132.007
131.276
130.488
129.673
128.846
128.021
127.203
126.398
125.611
124.844
124.097
123.373
122.673
121.999
129.108
133.019
133.451
133.087
132.439
131.662
130.83
129.978
129.124
128.276
127.443
126.63
125.839
125.074
124.332
123.618
122.932
122.274
133.849
134.543
134.38
133.838
133.068
132.187
131.274
130.366
129.47
128.592
127.741
126.92
126.129
125.369
124.638
123.934
123.259
122.615
140.074
137.15
135.931
134.967
133.944
132.892
131.869
130.884
129.932
129.015
128.135
127.294
126.489
125.722
124.991
124.296
123.635
123.008
135.519
138.256
137.69
136.446
135.106
133.813
132.621
131.514
130.476
129.505
128.595
127.737
126.926
126.158
125.428
124.738
124.083
123.464
153.641
145.537
141.251
138.518
136.465
134.806
133.414
132.186
131.07
130.044
129.095
128.21
127.382
126.606
125.876
125.19
124.546
123.938
149.937
145.117
141.642
139.02
136.98
135.309
133.876
132.613
131.477
130.44
129.485
128.599
127.768
126.988
126.26
125.571
124.925
124.319
147.175
143.767
141.027
138.803
136.962
135.392
134.016
132.789
131.674
130.643
129.689
128.805
127.978
127.206
126.482
125.802
125.163
124.56
143.587
141.842
140.043
138.316
136.764
135.355
134.069
132.895
131.812
130.802
129.86
128.98
128.162
127.391
126.666
125.985
125.346
124.746
140.59
140.336
139.185
137.816
136.463
135.184
133.992
132.879
131.835
130.857
129.932
129.068
128.257
127.495
126.778
126.103
125.467
124.868
139.572
139.428
138.539
137.412
136.252
135.106
133.99
132.917
131.892
130.917
130.003
129.145
128.341
127.583
126.869
126.196
125.561
124.963
139.501
138.9
138.09
137.092
136.026
134.96
133.905
132.875
131.878
130.927
130.03
129.184
128.386
127.633
126.923
126.252
125.619
125.022
139.549
138.613
137.795
136.9
135.94
134.933
133.903
132.882
131.896
130.955
130.064
129.221
128.426
127.676
126.968
126.298
125.666
125.069
137.358
138.091
137.491
136.703
135.827
134.87
133.864
132.859
131.888
130.959
130.074
129.237
128.446
127.7
126.994
126.327
125.696
125.1
137.442
138.055
137.388
136.644
135.811
134.86
133.858
132.861
131.896
130.971
130.089
129.253
128.465
127.722
127.018
126.35
125.718
125.12
139.07
137.955
137.264
136.598
135.786
134.84
133.842
132.853
131.895
130.974
130.092
129.257
128.472
127.732
127.032
126.367
125.734
125.135
140.131
138.031
137.233
136.605
135.791
134.838
133.84
132.854
131.9
130.98
130.099
129.264
128.479
127.74
127.04
126.375
125.742
125.142
112.905
112.811
112.685
112.572
112.511
112.506
112.551
112.625
112.701
112.748
112.739
112.658
112.501
112.268
111.966
111.607
111.21
110.788
110.358
109.934
109.529
109.156
108.825
108.545
108.324
108.166
108.073
108.039
108.058
108.122
108.219
108.333
108.443
108.512
108.519
108.388
108.07
107.675
107.3
106.966
106.675
106.424
106.208
106.028
105.888
105.788
105.702
105.62
105.547
105.461
105.317
105.107
104.821
104.514
104.367
104.27
103.985
103.522
103.093
102.845
102.754
102.443
101.722
100.653
99.3376
97.8749
96.3432
94.7968
93.2708
91.7864
90.3575
88.9941
87.7057
86.5037
85.4013
84.4137
83.5557
82.8406
82.2794
81.8799
81.6449
81.5694
81.6408
81.8421
82.1532
82.5529
83.0202
83.5354
84.0808
84.6407
85.2018
85.7528
86.2847
86.7902
87.2639
87.7021
88.1027
88.4646
88.7878
89.0729
89.321
89.5327
89.7083
89.8468
89.9465
90.0049
90.0188
89.985
89.9005
89.763
89.5711
89.3251
89.0246
88.6748
88.279
87.8421
87.3696
86.8667
86.3386
85.7899
85.2248
84.6469
84.0589
83.463
82.8609
82.2537
81.6424
81.0275
80.4094
79.7885
79.1646
78.5373
77.9071
77.2743
76.6391
76.0017
75.3621
74.7205
74.0769
73.4316
72.7844
72.1355
71.4848
70.832
70.177
69.5196
68.8595
68.1965
67.5305
66.8611
66.1882
65.5116
64.8311
64.1466
63.4579
62.765
62.0677
61.3661
60.66
59.9494
59.2343
58.5146
57.7902
57.0611
56.3272
55.5885
54.8449
54.0964
53.3432
52.5852
51.8227
51.0559
50.2849
49.5105
48.7328
47.953
47.1718
46.3902
45.6159
44.8287
112.678
112.598
112.473
112.369
112.315
112.33
112.379
112.455
112.519
112.541
112.5
112.387
112.2
111.943
111.627
111.264
110.868
110.454
110.035
109.624
109.233
108.874
108.556
108.287
108.071
107.909
107.801
107.753
107.761
107.814
107.899
107.997
108.092
108.151
108.144
108.036
107.744
107.421
107.246
107.037
106.709
106.38
106.111
105.902
105.761
105.69
105.627
105.551
105.479
105.428
105.32
105.08
104.81
104.573
104.275
104.04
103.996
103.736
103.131
102.634
102.3
101.796
100.986
99.8925
98.5987
97.1873
95.7226
94.2476
92.7887
91.3624
89.98
88.6519
87.3888
86.2037
85.1121
84.1317
83.2808
82.5766
82.0315
81.6514
81.4351
81.3763
81.464
81.6813
82.0083
82.4232
82.9047
83.4326
83.9893
84.5592
85.1293
85.6884
86.2276
86.7395
87.2188
87.6616
88.0656
88.4298
88.7543
89.0398
89.2877
89.499
89.6741
89.8125
89.9127
89.9722
89.9881
89.9568
89.8753
89.7411
89.5525
89.3093
89.0122
88.6649
88.2712
87.8359
87.3644
86.8621
86.3343
85.7858
85.2208
84.6429
84.055
83.4592
82.8572
82.2503
81.6392
81.0243
80.4063
79.785
79.1606
78.5333
77.9034
77.2709
76.636
75.9989
75.3596
74.7183
74.0751
73.4301
72.7832
72.1346
71.484
70.8314
70.1765
69.5192
68.8593
68.1964
67.5304
66.8611
66.1883
65.5117
64.8312
64.1466
63.4579
62.7649
62.0676
61.3659
60.6598
59.9492
59.2341
58.5144
57.79
57.0608
56.3269
55.5881
54.8445
54.096
53.3426
52.5846
51.8219
51.0549
50.2838
49.509
48.7309
47.9504
47.1686
46.3853
45.6086
44.8202
112.857
112.813
112.749
112.687
112.624
112.568
112.524
112.482
112.419
112.318
112.167
111.959
111.695
111.382
111.03
110.65
110.251
109.842
109.433
109.034
108.657
108.31
108.004
107.746
107.542
107.398
107.312
107.278
107.287
107.331
107.4
107.479
107.555
107.61
107.626
107.592
107.493
107.35
107.179
106.927
106.617
106.346
106.133
105.953
105.804
105.714
105.622
105.502
105.402
105.309
105.207
105.022
104.745
104.635
104.646
104.315
103.826
103.347
102.767
102.107
101.404
100.601
99.6621
98.5869
97.3991
96.1316
94.8153
93.4749
92.1292
90.7925
89.4773
88.196
86.9632
85.7954
84.7112
83.7311
82.8769
82.1697
81.6252
81.2499
81.0458
81.0072
81.1205
81.3669
81.7237
82.1674
82.6756
83.2277
83.8059
84.3951
84.9823
85.5571
86.1104
86.6351
87.1255
87.5775
87.9887
88.3579
88.6852
88.9718
89.2194
89.4297
89.6038
89.7418
89.8425
89.9037
89.9225
89.8955
89.8194
89.6912
89.5092
89.2722
88.9816
88.6399
88.251
87.8196
87.3509
86.8504
86.3236
85.7755
85.2106
84.6327
84.0448
83.4491
82.8474
82.2409
81.6301
81.0158
80.3981
79.7774
79.1537
78.527
77.8975
77.2654
76.631
75.9944
75.3558
74.7151
74.0726
73.4281
72.7819
72.1337
71.4835
70.8312
70.1765
69.5194
68.8595
68.1967
67.5308
66.8615
66.1886
65.5119
64.8314
64.1468
63.458
62.765
62.0676
61.3659
60.6598
59.9491
59.2339
58.5141
57.7897
57.0605
56.3264
55.5875
54.8437
54.095
53.3415
52.5831
51.8201
51.0525
50.2807
49.5049
48.7258
47.9432
47.1595
46.372
45.5896
44.7957
113.025
113.029
113.046
112.997
112.895
112.762
112.607
112.431
112.234
112.009
111.755
111.472
111.162
110.826
110.466
110.087
109.694
109.294
108.894
108.504
108.135
107.797
107.5
107.252
107.06
106.924
106.845
106.817
106.833
106.883
106.955
107.037
107.12
107.195
107.253
107.286
107.288
107.249
107.17
107.057
106.914
106.746
106.565
106.371
106.184
106.016
105.834
105.604
105.354
105.093
104.744
104.632
104.708
104.494
104.194
103.861
103.348
102.706
101.979
101.194
100.356
99.4517
98.4742
97.4222
96.3025
95.1268
93.9094
92.6639
91.4022
90.1349
88.8729
87.6287
86.4177
85.2584
84.1727
83.1851
82.3212
81.605
81.0557
80.6853
80.4981
80.4876
80.6375
80.9249
81.3239
81.808
82.353
82.938
83.5454
84.1605
84.7712
85.3676
85.9409
86.4841
86.991
87.4571
87.8795
88.2566
88.5886
88.8767
89.1234
89.3315
89.5032
89.6393
89.7394
89.8017
89.8235
89.8015
89.7323
89.6128
89.4399
89.213
88.9321
88.5992
88.2177
87.7922
87.3283
86.8315
86.3072
85.7606
85.1964
84.6187
84.0308
83.4353
82.8339
82.2279
81.6179
81.0044
80.3876
79.7676
79.1446
78.5186
77.8898
77.2584
76.6245
75.9885
75.3505
74.7105
74.0685
73.4247
72.7789
72.1312
71.4814
70.8294
70.1751
69.5182
68.8585
68.1959
67.5301
66.861
66.1882
65.5116
64.8311
64.1465
63.4577
62.7646
62.0672
61.3655
60.6593
59.9486
59.2333
58.5135
57.7889
57.0597
56.3255
55.5865
54.8426
54.0937
53.3399
52.5812
51.8177
51.0495
50.277
49.5001
48.7197
47.9352
47.1488
46.3576
45.5681
44.767
113.114
113.108
113.106
113.054
112.933
112.744
112.514
112.268
112.011
111.742
111.453
111.142
110.809
110.453
110.078
109.686
109.281
108.869
108.459
108.06
107.683
107.341
107.044
106.802
106.62
106.501
106.443
106.439
106.481
106.554
106.645
106.745
106.845
106.942
107.032
107.112
107.177
107.222
107.248
107.254
107.228
107.163
107.056
106.91
106.721
106.483
106.214
105.843
105.316
104.919
104.629
104.263
104.146
104.009
103.672
103.183
102.561
101.838
101.046
100.209
99.3298
98.4017
97.4215
96.3895
95.3098
94.1895
93.0358
91.8558
90.6555
89.4407
88.219
87.0015
85.8033
84.6438
83.5471
82.5413
81.6553
80.9173
80.3535
79.9873
79.8211
79.8455
80.0408
80.3794
80.8306
81.3642
81.954
82.578
83.2193
83.8644
84.5024
85.1242
85.7219
86.2883
86.817
87.3026
87.7412
88.1306
88.4702
88.7616
89.0078
89.2127
89.3802
89.5124
89.6097
89.6713
89.6949
89.6773
89.6154
89.5054
89.3441
89.1297
88.8615
88.5406
88.1696
87.7528
87.2955
86.8036
86.2831
85.7393
85.1769
84.6002
84.0126
83.4172
82.816
82.2104
81.6011
80.9885
80.3727
79.7539
79.1319
78.507
77.8792
77.2487
76.6157
75.9806
75.3434
74.7041
74.0629
73.4198
72.7747
72.1276
71.4783
70.8268
70.1729
69.5164
68.857
68.1947
67.5291
66.8601
66.1874
65.5109
64.8305
64.1459
63.4571
62.7641
62.0666
61.3648
60.6586
59.9479
59.2326
58.5127
57.7881
57.0587
56.3245
55.5854
54.8412
54.0921
53.338
52.5789
51.815
51.0462
50.2728
49.4948
48.7129
47.9263
47.1368
46.3421
45.5453
44.7373
113.199
113.201
113.156
113.046
112.871
112.662
112.433
112.184
111.913
111.622
111.312
110.981
110.627
110.251
109.853
109.437
109.007
108.571
108.136
107.716
107.321
106.965
106.662
106.422
106.252
106.156
106.13
106.163
106.243
106.353
106.476
106.602
106.725
106.842
106.955
107.066
107.176
107.281
107.377
107.457
107.515
107.536
107.505
107.416
107.254
107.003
106.649
106.223
105.735
105.089
104.67
104.342
103.994
103.592
103.082
102.463
101.756
100.982
100.159
99.2962
98.3969
97.4581
96.4787
95.4605
94.408
93.3266
92.2211
91.0937
89.9449
88.7755
87.5886
86.3922
85.1995
84.0284
82.9031
81.8545
80.9208
80.1428
79.5563
79.184
79.0334
79.0952
79.3448
79.7471
80.2636
80.8584
81.5016
82.1706
82.8493
83.5261
84.1924
84.8408
85.4645
86.0568
86.611
87.1204
87.5801
87.9862
88.3374
88.6348
88.8819
89.0839
89.2461
89.3725
89.4648
89.5231
89.5459
89.5307
89.4746
89.3735
89.2242
89.0236
88.77
88.4635
88.1059
87.7009
87.2529
86.7679
86.252
85.7117
85.1521
84.5774
83.9912
83.3964
82.7954
82.19
81.5812
80.9694
80.3548
79.7373
79.1168
78.4932
77.8666
77.2373
76.6053
75.9711
75.3347
74.6963
74.056
73.4136
72.7692
72.1228
71.4742
70.8233
70.1698
69.5137
68.8547
68.1927
67.5274
66.8586
66.1861
65.5098
64.8294
64.1449
63.4562
62.7631
62.0656
61.3638
60.6575
59.9466
59.2314
58.5115
57.7868
57.0574
56.3231
55.5838
54.8395
54.0902
53.3358
52.5763
51.8119
51.0424
50.2682
49.489
48.7055
47.917
47.1244
46.326
45.5227
44.7084
113.391
113.338
113.241
113.09
112.904
112.693
112.459
112.206
111.933
111.638
111.319
110.976
110.609
110.217
109.803
109.372
108.929
108.482
108.04
107.615
107.219
106.866
106.568
106.337
106.18
106.098
106.087
106.141
106.243
106.371
106.51
106.648
106.78
106.904
107.026
107.151
107.281
107.415
107.549
107.667
107.766
107.83
107.846
107.79
107.656
107.451
107.116
106.63
106.093
105.548
104.988
104.436
103.861
103.239
102.565
101.837
101.059
100.24
99.3858
98.499
97.5803
96.6296
95.6484
94.6403
93.6105
92.5636
91.5017
90.423
89.3223
88.1938
87.0343
85.8462
84.6381
83.4267
82.238
81.11
80.0933
79.2454
78.6159
78.2319
78.1018
78.2136
78.5351
79.0207
79.6207
80.2914
80.9996
81.7218
82.4437
83.1564
83.854
84.5316
85.1838
85.8048
86.3874
86.9241
87.4081
87.834
88.1989
88.5034
88.7511
88.9483
89.1025
89.22
89.3045
89.3573
89.3774
89.3628
89.3113
89.2185
89.0812
88.8956
88.6585
88.3684
88.0262
87.6347
87.1985
86.723
86.2142
85.6784
85.1219
84.5496
83.9654
83.3721
82.772
82.1671
81.5586
80.9475
80.3339
79.7177
79.0987
78.4766
77.8514
77.2233
76.5925
75.9594
75.3242
74.6869
74.0475
73.406
72.7625
72.1168
71.4689
70.8186
70.1658
69.5102
68.8517
68.1901
67.5251
66.8567
66.1844
65.5083
64.8281
64.1436
63.4549
62.7618
62.0644
61.3625
60.6561
59.9453
59.23
58.51
57.7853
57.0559
56.3215
55.5821
54.8376
54.0881
53.3333
52.5735
51.8085
51.0383
50.2632
49.4829
48.6977
47.9072
47.1116
46.3097
45.5009
44.6807
113.636
113.53
113.363
113.193
113.007
112.805
112.585
112.341
112.07
111.768
111.434
111.075
110.694
110.295
109.879
109.45
109.014
108.578
108.15
107.743
107.368
107.039
106.768
106.562
106.426
106.362
106.364
106.422
106.516
106.638
106.768
106.897
107.019
107.136
107.252
107.373
107.502
107.636
107.767
107.891
107.995
108.06
108.07
108.015
107.889
107.66
107.341
106.914
106.371
105.759
105.097
104.399
103.672
102.916
102.133
101.323
100.488
99.6263
98.7395
97.8271
96.8892
95.9274
94.945
93.9474
92.9399
91.9263
90.9058
89.8719
88.8129
87.7144
86.5651
85.3607
84.1052
82.8131
81.5143
80.2583
79.1154
78.166
77.4767
77.0788
76.9782
77.1573
77.5736
78.1674
78.8743
79.6402
80.4276
81.2137
81.9867
82.7416
83.4759
84.1873
84.8729
85.5275
86.1442
86.7146
87.2299
87.6825
88.0667
88.381
88.6294
88.8198
88.9624
89.0667
89.1389
89.1816
89.1945
89.1766
89.126
89.0401
88.9152
88.7462
88.5277
88.2563
87.9316
87.5556
87.1325
86.6677
86.1674
85.6381
85.0863
84.5172
83.9354
83.344
82.7455
82.1415
81.5337
80.9232
80.3105
79.6957
79.0782
78.4577
77.834
77.2074
76.578
75.9463
75.3121
74.6759
74.0376
73.3972
72.7546
72.1098
71.4626
70.813
70.1608
69.5058
68.8479
68.1868
67.5223
66.8542
66.1823
65.5064
64.8264
64.1421
63.4534
62.7603
62.0628
61.3608
60.6544
59.9436
59.2282
58.5082
57.7835
57.054
56.3195
55.58
54.8354
54.0856
53.3306
52.5703
51.8047
51.0339
50.2578
49.4763
48.6895
47.8971
47.0987
46.2934
45.4799
44.6546
113.723
113.628
113.481
113.348
113.193
113.008
112.788
112.533
112.248
111.934
111.594
111.229
110.84
110.429
110.002
109.566
109.131
108.705
108.301
107.927
107.596
107.316
107.095
106.938
106.846
106.815
106.837
106.903
106.999
107.109
107.22
107.327
107.43
107.529
107.63
107.736
107.848
107.963
108.074
108.169
108.234
108.261
108.235
108.148
107.978
107.731
107.437
106.988
106.412
105.744
105.014
104.241
103.438
102.612
101.767
100.906
100.027
99.1307
98.2153
97.2803
96.3269
95.3577
94.3775
93.3921
92.4066
91.4233
90.4384
89.4409
88.4116
87.3269
86.1645
84.9123
83.5696
82.1516
80.6974
79.2743
77.9754
76.9039
76.1422
75.7275
75.6634
75.9254
76.4586
77.1857
78.0235
78.9032
79.782
80.6388
81.4668
82.2661
83.0392
83.788
84.5117
85.2063
85.8646
86.4768
87.0322
87.5208
87.9343
88.2696
88.5291
88.7202
88.8545
88.9449
89.0006
89.0268
89.0246
88.9941
88.9354
88.8487
88.7313
88.5774
88.3792
88.1294
87.8243
87.4651
87.0562
86.6033
86.1124
85.5901
85.0433
84.4783
83.8999
83.3113
82.7149
82.1126
81.5059
80.8963
80.2846
79.6711
79.0552
78.4365
77.8145
77.1894
76.5614
75.931
75.2982
74.6633
74.0262
73.3869
72.7454
72.1016
71.4553
70.8065
70.155
69.5007
68.8434
68.1828
67.5189
66.8513
66.1798
65.5042
64.8244
64.1403
63.4517
62.7586
62.061
61.359
60.6526
59.9417
59.2262
58.5062
57.7815
57.0519
56.3174
55.5778
54.833
54.0829
53.3276
52.5669
51.8008
51.0292
50.2522
49.4696
48.6812
47.8868
47.0859
46.2774
45.4598
44.6301
113.878
113.816
113.727
113.615
113.461
113.268
113.036
112.774
112.479
112.142
111.765
111.357
110.927
110.482
110.032
109.586
109.153
108.743
108.368
108.036
107.757
107.538
107.382
107.288
107.254
107.273
107.336
107.43
107.542
107.661
107.777
107.886
107.985
108.08
108.17
108.258
108.343
108.423
108.487
108.527
108.535
108.498
108.41
108.261
108.053
107.789
107.43
106.939
106.327
105.624
104.856
104.046
103.205
102.344
101.465
100.572
99.6643
98.7419
97.8046
96.8531
95.8899
94.9187
93.9444
92.9726
92.0073
91.0488
90.0907
89.1172
88.103
87.0142
85.8162
84.488
83.0268
81.4509
79.8112
78.1956
76.7222
75.5167
74.6761
74.243
74.2172
74.5685
75.2306
76.1086
77.0975
78.1085
79.0893
80.0217
80.905
81.746
82.5537
83.3356
84.0952
84.8311
85.5358
86.1974
86.802
87.3364
87.7881
88.1546
88.4354
88.6383
88.7753
88.8603
88.9047
88.9155
88.8961
88.8474
88.7717
88.6724
88.5505
88.4023
88.2188
87.9897
87.7067
87.3668
86.9729
86.5317
86.0503
85.5357
84.9945
84.4334
83.858
83.2724
82.679
82.0793
81.4746
80.8665
80.2561
79.6439
79.0296
78.4127
77.7926
77.1693
76.5429
75.9139
75.2826
74.6491
74.0133
73.3754
72.7351
72.0924
71.4471
70.7991
70.1484
69.4948
68.8381
68.1782
67.5149
66.8478
66.1768
65.5016
64.8221
64.1382
63.4497
62.7567
62.0591
61.3571
60.6505
59.9395
59.224
58.5039
57.7792
57.0495
56.315
55.5752
54.8303
54.08
53.3244
52.5633
51.7966
51.0244
50.2464
49.4626
48.6727
47.8764
47.0731
46.2617
45.4406
44.6072
114.179
114.136
114.052
113.931
113.767
113.56
113.304
112.997
112.644
112.247
111.81
111.343
110.854
110.358
109.865
109.39
108.945
108.546
108.202
107.924
107.715
107.578
107.512
107.511
107.568
107.673
107.811
107.97
108.137
108.3
108.451
108.587
108.706
108.804
108.883
108.946
108.992
109.018
109.018
108.988
108.919
108.803
108.638
108.426
108.176
107.856
107.43
106.885
106.235
105.504
104.714
103.882
103.02
102.137
101.237
100.322
99.394
98.4526
97.4995
96.5375
95.5699
94.6011
93.6358
92.6779
91.7296
90.7891
89.8473
88.8853
87.8722
86.7655
85.5185
84.1001
82.5064
80.7608
78.9284
77.1172
75.4669
74.122
73.1924
72.7232
72.7127
73.1323
73.9124
74.9457
76.1046
77.2704
78.3705
79.3872
80.3257
81.2025
82.0361
82.8428
83.6321
84.4063
85.1586
85.8746
86.5355
87.1219
87.6197
88.0223
88.3304
88.5517
88.6986
88.7853
88.8245
88.825
88.7919
88.7281
88.637
88.5234
88.3909
88.2388
88.0603
87.8444
87.58
87.2602
86.8841
86.456
85.9837
85.4759
84.9402
84.3834
83.8113
83.2284
82.6375
82.0405
81.4386
80.8328
80.2243
79.6138
79.0012
78.3861
77.768
77.1467
76.5222
75.8949
75.2652
74.6332
73.999
73.3625
72.7235
72.082
71.4378
70.7909
70.141
69.4882
68.8323
68.1731
67.5103
66.8438
66.1733
65.4986
64.8195
64.1359
63.4476
62.7547
62.0571
61.355
60.6484
59.9372
59.2216
58.5015
57.7767
57.047
56.3123
55.5725
54.8274
54.077
53.321
52.5595
51.7923
51.0193
50.2404
49.4555
48.6642
47.8661
47.0606
46.2466
45.4225
44.5859
114.477
114.432
114.343
114.206
114.02
113.78
113.471
113.098
112.667
112.176
111.628
111.037
110.414
109.836
109.276
108.758
108.301
107.923
107.632
107.435
107.331
107.315
107.38
107.516
107.71
107.946
108.209
108.481
108.746
108.993
109.212
109.398
109.547
109.658
109.733
109.764
109.762
109.724
109.648
109.534
109.378
109.177
108.939
108.675
108.37
107.977
107.483
106.885
106.2
105.444
104.634
103.785
102.908
102.008
101.091
100.159
99.214
98.2574
97.2925
96.3236
95.3552
94.3917
93.4365
92.4918
91.5569
90.6275
89.6929
88.732
87.7104
86.5797
85.2827
83.7788
82.0628
80.1618
78.1537
76.1616
74.3412
72.849
71.8054
71.2621
71.2241
71.6711
72.5399
73.7193
75.0608
76.4078
77.6508
78.7613
79.7504
80.6504
81.4951
82.3128
83.1221
83.9308
84.7329
85.5103
86.2362
86.8842
87.4355
87.88
88.2179
88.4579
88.6142
88.7034
88.7402
88.7348
88.6931
88.6189
88.5165
88.3916
88.2491
88.09
87.9101
87.7001
87.4482
87.145
86.7863
86.3737
85.9131
85.413
84.8822
84.3292
83.7603
83.1802
82.592
81.9975
81.3982
80.795
80.1888
79.5803
78.9697
78.3565
77.7405
77.1213
76.4989
75.8737
75.2459
74.6157
73.9832
73.3482
72.7108
72.0706
71.4276
70.7818
70.1329
69.481
68.8259
68.1673
67.5053
66.8394
66.1695
65.4953
64.8166
64.1333
63.4453
62.7526
62.0551
61.3529
60.6462
59.935
59.2192
58.499
57.7741
57.0443
56.3096
55.5697
54.8244
54.0737
53.3174
52.5555
51.7877
51.0141
50.2344
49.4483
48.6557
47.8559
47.0484
46.232
45.4053
44.566
114.678
114.633
114.531
114.372
114.145
113.838
113.442
112.949
112.371
111.719
111.007
110.262
109.52
108.762
108.07
107.471
106.988
106.634
106.416
106.334
106.381
106.544
106.804
107.142
107.536
107.964
108.407
108.843
109.256
109.63
109.955
110.221
110.424
110.56
110.632
110.64
110.581
110.472
110.318
110.116
109.873
109.602
109.311
109.005
108.631
108.171
107.615
106.971
106.251
105.47
104.64
103.773
102.879
101.963
101.03
100.082
99.1208
98.1507
97.1758
96.2015
95.2335
94.2756
93.3301
92.3966
91.4718
90.5486
89.6147
88.6483
87.6139
86.4607
85.1269
83.5615
81.7559
79.7384
77.5952
75.4578
73.4881
71.8527
70.6784
70.0295
69.924
70.3513
71.2596
72.544
74.047
75.5811
76.9836
78.1925
79.2187
80.1166
80.9428
81.744
82.5526
83.387
84.2424
85.0918
85.8946
86.6168
87.2324
87.7268
88.0996
88.3608
88.5274
88.6189
88.653
88.6424
88.5932
88.5088
88.3956
88.2625
88.1154
87.9533
87.7704
87.5597
87.3132
87.0218
86.6783
86.281
85.8338
85.344
84.8202
84.2716
83.7058
83.1285
82.543
81.9512
81.3544
80.7538
80.15
79.5437
78.9351
78.3239
77.71
77.0931
76.4731
75.8502
75.2247
74.5965
73.9659
73.3327
72.6968
72.0581
71.4165
70.7719
70.1242
69.4732
68.8189
68.1611
67.4997
66.8345
66.1652
65.4915
64.8134
64.1305
63.4428
62.7502
62.0529
61.3508
60.644
59.9327
59.2168
58.4964
57.7714
57.0416
56.3067
55.5667
54.8212
54.0703
53.3137
52.5514
51.7831
51.0088
50.2282
49.4411
48.6472
47.8459
47.0365
46.218
45.389
44.5475
114.678
114.625
114.504
114.31
114.023
113.623
113.094
112.424
111.614
110.687
109.68
108.639
107.619
106.666
105.83
105.149
104.636
104.318
104.208
104.302
104.581
105.011
105.555
106.177
106.847
107.54
108.231
108.893
109.501
110.038
110.492
110.857
111.128
111.307
111.393
111.391
111.307
111.142
110.912
110.642
110.351
110.05
109.736
109.388
108.963
108.448
107.843
107.157
106.401
105.591
104.736
103.848
102.934
102
101.049
100.083
99.1075
98.1245
97.14
96.1608
95.1925
94.2387
93.3008
92.3761
91.4586
90.5386
89.6023
88.6281
87.5819
86.4142
85.0639
83.4745
81.6303
79.5544
77.3382
75.1181
73.0349
71.285
69.9896
69.2307
69.0348
69.4019
70.2903
71.6058
73.1991
74.8801
76.4376
77.7434
78.7879
79.6463
80.4066
81.1427
81.9109
82.7511
83.6623
84.5884
85.4841
86.2974
86.9908
87.5451
87.9597
88.2468
88.426
88.5201
88.5509
88.5348
88.4804
88.3907
88.2702
88.129
87.9775
87.8162
87.6359
87.4259
87.1796
86.8926
86.5597
86.1766
85.7433
85.2651
84.7504
84.2085
83.6474
83.0736
82.4912
81.9022
81.3082
80.7101
80.1088
79.5047
78.8981
78.2889
77.6772
77.0626
76.4451
75.8248
75.2017
74.5758
73.9472
73.3159
72.6817
72.0446
71.4045
70.7612
70.1147
69.4648
68.8114
68.1545
67.4938
66.8293
66.1606
65.4875
64.8098
64.1274
63.44
62.7477
62.0506
61.3485
60.6418
59.9304
59.2145
58.494
57.7689
57.0388
56.3038
55.5636
54.818
54.0668
53.3099
52.5472
51.7784
51.0034
50.2221
49.434
48.6388
47.8361
47.025
46.2047
45.3737
44.5302
114.486
114.432
114.292
114.055
113.672
113.106
112.34
111.377
110.236
108.959
107.605
106.236
104.916
103.709
102.674
101.865
101.339
101.113
101.193
101.553
102.142
102.901
103.769
104.699
105.664
106.652
107.643
108.599
109.469
110.215
110.824
111.294
111.628
111.831
111.913
111.888
111.772
111.577
111.338
111.065
110.785
110.5
110.205
109.841
109.384
108.825
108.174
107.444
106.65
105.805
104.92
104.005
103.066
102.11
101.14
100.157
99.1653
98.1696
97.1758
96.1908
95.2201
94.2678
93.3342
92.4152
91.5026
90.5847
89.646
88.6658
87.6134
86.4448
85.1032
83.5324
81.7089
79.6477
77.4301
75.1841
73.0665
71.248
69.8643
69.004
68.7081
68.9871
69.8054
71.0751
72.6585
74.3898
76.0613
77.4519
78.5071
79.2915
79.9263
80.528
81.1859
82.018
82.9461
83.9626
84.9767
85.9054
86.6937
87.3176
87.7794
88.0965
88.2924
88.393
88.4226
88.4014
88.3414
88.2478
88.1249
87.9823
87.8307
87.6712
87.4945
87.2886
87.0453
86.7612
86.4338
86.0606
85.6404
85.1751
84.671
84.1372
83.5827
83.0143
82.4362
81.8509
81.2599
80.6646
80.0657
79.464
78.8595
78.2524
77.6426
77.0303
76.4154
75.7977
75.1771
74.5537
73.9273
73.2979
72.6656
72.0302
71.3916
70.7497
70.1045
69.4558
68.8035
68.1474
67.4876
66.8237
66.1556
65.4831
64.806
64.124
63.4371
62.7451
62.0481
61.3463
60.6396
59.9282
59.2122
58.4916
57.7663
57.0362
56.301
55.5606
54.8147
54.0633
53.3061
52.5429
51.7736
50.9981
50.2159
49.4269
48.6306
47.8266
47.014
46.192
45.3593
44.5142
114.156
114.089
113.91
113.599
113.083
112.312
111.278
109.999
108.522
106.917
105.259
103.622
102.071
100.675
99.5079
98.6458
98.1495
98.0536
98.3456
98.9797
99.8875
100.983
102.167
103.349
104.486
105.624
106.825
108.076
109.275
110.315
111.143
111.765
112.196
112.454
112.555
112.524
112.388
112.18
111.918
111.658
111.404
111.147
110.846
110.452
109.946
109.33
108.622
107.838
106.996
106.108
105.186
104.238
103.271
102.29
101.297
100.296
99.2883
98.2798
97.2758
96.2832
95.3079
94.3538
93.4208
92.5041
91.5943
90.6782
89.7395
88.7585
87.7088
86.5539
85.2464
83.7358
81.9922
80.019
77.8811
75.6926
73.6017
71.7694
70.3347
69.3926
68.9912
69.1585
69.866
71.0289
72.5126
74.1738
75.8437
77.2906
78.368
79.0724
79.5404
79.9414
80.4279
81.1184
82.0493
83.1685
84.3366
85.4199
86.333
87.0422
87.5566
87.9039
88.1164
88.2248
88.2565
88.2338
88.1718
88.0779
87.9556
87.812
87.6589
87.502
87.332
87.1334
86.8966
86.6191
86.2993
85.9351
85.5256
85.0723
84.58
84.0561
83.5095
82.9478
82.3756
81.7954
81.2085
80.6165
80.0204
79.4211
78.819
78.2141
77.6066
76.9966
76.3842
75.7691
75.1511
74.5301
73.906
73.2788
72.6484
72.0147
71.3778
70.7374
70.0936
69.4462
68.795
68.14
67.4809
66.8178
66.1503
65.4784
64.8019
64.1204
63.4339
62.7423
62.0456
61.3439
60.6374
59.9261
59.2101
58.4894
57.764
57.0337
56.2983
55.5577
54.8116
54.0598
53.3022
52.5387
51.7689
50.9927
50.2099
49.42
48.6226
47.8174
47.0034
46.18
45.3458
44.4993
113.902
113.82
113.595
113.211
112.571
111.635
110.401
108.901
107.199
105.375
103.506
101.658
99.8846
98.253
96.8618
95.8386
95.275
95.1907
95.6083
96.4977
97.7708
99.3029
100.947
102.545
103.957
105.131
106.279
107.579
109.019
110.381
111.495
112.326
112.901
113.261
113.436
113.457
113.357
113.176
112.949
112.696
112.424
112.117
111.735
111.247
110.645
109.942
109.158
108.309
107.411
106.474
105.51
104.526
103.527
102.519
101.504
100.484
99.4617
98.4411
97.4275
96.4271
95.4458
94.4872
93.5514
92.6336
91.7243
90.8104
89.8753
88.9003
87.8631
86.7354
85.4815
84.0611
82.4429
80.6204
78.6382
76.5894
74.6027
72.8228
71.3838
70.3839
69.883
69.918
70.4766
71.4813
72.796
74.2811
75.8204
77.2392
78.3341
78.9936
79.3069
79.4654
79.6861
80.1628
81.0188
82.2226
83.5722
84.85
85.9207
86.7358
87.3123
87.692
87.9196
88.0336
88.0653
88.0394
87.9747
87.882
87.7658
87.6289
87.4777
87.3178
87.147
86.9547
86.7286
86.4624
86.1542
85.8022
85.4047
84.9627
84.4813
83.9676
83.4298
82.8754
82.3097
81.7354
81.1538
80.566
79.9734
79.3769
78.7772
78.1748
77.5697
76.9621
76.3522
75.7397
75.1242
74.5057
73.884
73.2589
72.6304
71.9986
71.3633
70.7245
70.0822
69.4361
68.7861
68.1321
67.4739
66.8115
66.1448
65.4735
64.7975
64.1165
63.4305
62.7393
62.0429
61.3414
60.635
59.9238
59.2079
58.4873
57.7618
57.0313
56.2957
55.5549
54.8084
54.0563
53.2984
52.5344
51.7641
50.9874
50.2038
49.4131
48.6147
47.8083
46.9932
46.1684
45.333
44.4854
113.949
113.849
113.597
113.163
112.463
111.443
110.103
108.484
106.646
104.668
102.62
100.556
98.5248
96.5904
94.8643
93.5046
92.6971
92.5646
93.1329
94.3385
96.0309
98.0382
100.173
102.235
103.973
105.256
106.252
107.403
108.866
110.475
111.853
112.884
113.596
114.062
114.331
114.44
114.415
114.291
114.097
113.85
113.545
113.159
112.669
112.062
111.352
110.556
109.693
108.778
107.825
106.841
105.837
104.819
103.792
102.759
101.724
100.687
99.6525
98.622
97.6007
96.5939
95.607
94.6434
93.7033
92.7826
91.8728
90.9611
90.0321
89.0681
88.0499
86.9556
85.7595
84.4318
82.9464
81.2929
79.4984
77.6327
75.8002
74.1239
72.7273
71.7105
71.1374
71.0467
71.4412
72.2593
73.3748
74.6454
75.977
77.2688
78.3374
78.9977
79.2286
79.1836
79.1142
79.3102
80.0044
81.2377
82.7621
84.2495
85.4909
86.4176
87.0589
87.4739
87.7197
87.8425
87.8777
87.8518
87.7839
87.6876
87.5708
87.4387
87.2945
87.1392