/*--------------------------------*- C++ -*----------------------------------*\
  =========                 |
  \\      /  F ield         | OpenFOAM: The Open Source CFD Toolbox
   \\    /   O peration     | Website:  https://openfoam.org
    \\  /    A nd           | Version:  7
     \\/     M anipulation  |
\*---------------------------------------------------------------------------*/
FoamFile
{
    version     2.0;
    format      ascii;
    class       surfaceScalarField;
    location    "0.073";
    object      phi;
}
// * * * * * * * * * * * * * * * * * * * * * * * * * * * * * * * * * * * * * //

dimensions      [0 3 -1 0 0 0 0];

internalField   nonuniform List<scalar> 
24170
(
1.3907e-06
1.53006e-07
1.25263e-06
1.3807e-07
1.11275e-06
1.39881e-07
9.9039e-07
1.2236e-07
8.80091e-07
1.10299e-07
7.8183e-07
9.82614e-08
6.96424e-07
8.54063e-08
6.19678e-07
7.67452e-08
5.48449e-07
7.12294e-08
4.84178e-07
6.42704e-08
4.29622e-07
5.45568e-08
3.85936e-07
4.36853e-08
3.51147e-07
3.4789e-08
3.22349e-07
2.87982e-08
2.94621e-07
2.77285e-08
2.68049e-07
2.65719e-08
2.36717e-07
3.13316e-08
2.42294e-08
2.12488e-07
1.65997e-06
2.09166e-07
1.64925e-06
1.48788e-07
1.62734e-06
1.61794e-07
1.592e-06
1.57695e-07
1.54731e-06
1.5499e-07
1.4945e-06
1.5107e-07
1.43947e-06
1.40441e-07
1.38934e-06
1.26876e-07
1.34694e-06
1.13632e-07
1.31088e-06
1.00325e-07
1.27835e-06
8.70838e-08
1.24733e-06
7.47134e-08
1.21597e-06
6.6146e-08
1.18265e-06
6.21153e-08
1.14662e-06
6.3765e-08
1.10823e-06
6.49556e-08
1.06912e-06
7.04424e-08
6.75373e-08
1.02581e-06
1.78784e-06
3.20439e-07
1.76175e-06
1.74875e-07
1.75801e-06
1.65532e-07
1.74769e-06
1.68015e-07
1.73677e-06
1.65916e-07
1.72455e-06
1.63288e-07
1.71048e-06
1.54504e-07
1.69683e-06
1.40531e-07
1.68518e-06
1.25279e-07
1.67581e-06
1.09694e-07
1.66814e-06
9.47628e-08
1.66142e-06
8.14255e-08
1.65497e-06
7.26045e-08
1.64745e-06
6.96313e-08
1.63779e-06
7.34234e-08
1.62389e-06
7.88583e-08
1.606e-06
8.83301e-08
9.47576e-08
1.57878e-06
1.93074e-06
3.51856e-07
1.91089e-06
1.94723e-07
1.8907e-06
1.85725e-07
1.86884e-06
1.89869e-07
1.853e-06
1.81758e-07
1.84512e-06
1.7117e-07
1.84306e-06
1.56559e-07
1.84403e-06
1.39566e-07
1.84602e-06
1.23285e-07
1.84827e-06
1.07449e-07
1.85088e-06
9.21471e-08
1.85389e-06
7.84172e-08
1.85721e-06
6.9283e-08
1.86014e-06
6.67032e-08
1.86212e-06
7.14413e-08
1.86101e-06
7.99727e-08
1.85705e-06
9.22933e-08
1.03979e-07
1.84783e-06
2.08929e-06
3.60121e-07
2.06286e-06
2.21157e-07
2.03436e-06
2.14224e-07
2.0114e-06
2.12828e-07
1.99781e-06
1.95347e-07
1.992e-06
1.76981e-07
1.99032e-06
1.58236e-07
1.99043e-06
1.39455e-07
1.99174e-06
1.2198e-07
1.99422e-06
1.04961e-07
1.9978e-06
8.85726e-08
2.00175e-06
7.44611e-08
2.00557e-06
6.54627e-08
2.00874e-06
6.35403e-08
2.01146e-06
6.87213e-08
2.01305e-06
7.83796e-08
2.01449e-06
9.08585e-08
1.03515e-07
2.01495e-06
2.18371e-06
3.82351e-07
2.16938e-06
2.35486e-07
2.15838e-06
2.25227e-07
2.15305e-06
2.18159e-07
2.14854e-06
1.99848e-07
2.14668e-06
1.78841e-07
2.14796e-06
1.56958e-07
2.1505e-06
1.36917e-07
2.15236e-06
1.20117e-07
2.15273e-06
1.04597e-07
2.15212e-06
8.91767e-08
2.15148e-06
7.51079e-08
2.15195e-06
6.4985e-08
2.15427e-06
6.12242e-08
2.15893e-06
6.40668e-08
2.16535e-06
7.19539e-08
2.17341e-06
8.28009e-08
9.47761e-08
2.18215e-06
2.38588e-06
3.77294e-07
2.37593e-06
2.45442e-07
2.36072e-06
2.40434e-07
2.35161e-06
2.27265e-07
2.34577e-06
2.05689e-07
2.34318e-06
1.81437e-07
2.34307e-06
1.57068e-07
2.34332e-06
1.36666e-07
2.34271e-06
1.20721e-07
2.34133e-06
1.05982e-07
2.33983e-06
9.06692e-08
2.33854e-06
7.64021e-08
2.33761e-06
6.59146e-08
2.33726e-06
6.15722e-08
2.33818e-06
6.31527e-08
2.34064e-06
6.94877e-08
2.34534e-06
7.81062e-08
8.77363e-08
2.35238e-06
2.58022e-06
3.5987e-07
2.58434e-06
2.4132e-07
2.57493e-06
2.49843e-07
2.56473e-06
2.3747e-07
2.55467e-06
2.15741e-07
2.54489e-06
1.91223e-07
2.53472e-06
1.67241e-07
2.52577e-06
1.45616e-07
2.52141e-06
1.25076e-07
2.52312e-06
1.04278e-07
2.52894e-06
8.48476e-08
2.53498e-06
7.03579e-08
2.53804e-06
6.28507e-08
2.53738e-06
6.22326e-08
2.53466e-06
6.5878e-08
2.53253e-06
7.16212e-08
2.53382e-06
7.68106e-08
8.14439e-08
2.54011e-06
2.78266e-06
3.18538e-07
2.75184e-06
2.72142e-07
2.73511e-06
2.6657e-07
2.72517e-06
2.47407e-07
2.72052e-06
2.2039e-07
2.72039e-06
1.91352e-07
2.72377e-06
1.63869e-07
2.73022e-06
1.39164e-07
2.73834e-06
1.16953e-07
2.74511e-06
9.75049e-08
2.7478e-06
8.21646e-08
2.74586e-06
7.22899e-08
2.74109e-06
6.76253e-08
2.73666e-06
6.66632e-08
2.73526e-06
6.72754e-08
2.73852e-06
6.83605e-08
2.7467e-06
6.86301e-08
6.92498e-08
2.7589e-06
2.97527e-06
3.39909e-07
2.97766e-06
2.6975e-07
2.98933e-06
2.54908e-07
2.985e-06
2.51736e-07
2.96917e-06
2.36221e-07
2.95481e-06
2.05709e-07
2.94848e-06
1.70196e-07
2.94732e-06
1.40331e-07
2.94462e-06
1.19654e-07
2.93655e-06
1.05567e-07
2.92466e-06
9.40582e-08
2.91398e-06
8.29667e-08
2.90938e-06
7.22232e-08
2.91339e-06
6.26564e-08
2.92548e-06
5.51917e-08
2.94359e-06
5.02492e-08
2.96487e-06
4.73456e-08
4.69534e-08
2.98717e-06
3.18272e-06
3.145e-07
3.16535e-06
2.87123e-07
3.14954e-06
2.70713e-07
3.14044e-06
2.60837e-07
3.13571e-06
2.40949e-07
3.13612e-06
2.053e-07
3.14127e-06
1.65049e-07
3.14788e-06
1.33724e-07
3.15259e-06
1.14941e-07
3.15487e-06
1.03282e-07
3.15703e-06
9.19065e-08
3.16203e-06
7.79642e-08
3.17165e-06
6.26012e-08
3.18568e-06
4.86313e-08
3.20269e-06
3.81811e-08
3.22089e-06
3.20456e-08
3.23875e-06
2.949e-08
2.99239e-08
3.25578e-06
2.86972e-06
3.47292e-07
2.84374e-06
3.13099e-07
2.83387e-06
2.8059e-07
2.838e-06
2.56706e-07
2.8481e-06
2.30844e-07
2.8563e-06
1.97101e-07
2.85764e-06
1.63711e-07
2.85262e-06
1.38743e-07
2.84579e-06
1.21773e-07
2.84233e-06
1.06746e-07
2.84523e-06
8.90072e-08
2.85437e-06
6.88168e-08
2.86755e-06
4.94241e-08
2.88171e-06
3.44755e-08
2.89454e-06
2.53474e-08
2.90484e-06
2.17422e-08
2.91274e-06
2.15972e-08
2.33649e-08
2.9193e-06
3.55019e-06
4.34696e-07
3.52145e-06
3.41845e-07
3.5034e-06
2.98641e-07
3.49756e-06
2.62541e-07
3.5033e-06
2.25108e-07
3.5064e-06
1.93998e-07
3.49646e-06
1.73654e-07
3.4772e-06
1.57996e-07
3.45978e-06
1.39195e-07
3.45245e-06
1.14083e-07
3.4567e-06
8.47474e-08
3.4692e-06
5.63171e-08
3.48519e-06
3.34345e-08
3.50102e-06
1.86483e-08
3.51484e-06
1.15321e-08
3.52645e-06
1.01301e-08
3.53653e-06
1.15128e-08
1.37073e-08
3.54619e-06
4.24869e-06
4.14014e-07
4.24231e-06
3.48225e-07
4.22634e-06
3.14614e-07
4.22596e-06
2.62917e-07
4.24198e-06
2.09093e-07
4.25801e-06
1.77963e-07
4.2631e-06
1.6856e-07
4.25987e-06
1.61234e-07
4.25724e-06
1.41823e-07
4.26139e-06
1.09932e-07
4.27273e-06
7.34055e-08
4.28789e-06
4.11622e-08
4.30275e-06
1.85737e-08
4.3148e-06
6.5984e-09
4.32342e-06
2.90568e-09
4.32931e-06
4.24113e-09
4.33436e-06
6.47004e-09
7.61147e-09
4.34045e-06
5.2794e-06
4.02795e-07
5.27661e-06
3.51019e-07
5.26968e-06
3.21545e-07
5.24827e-06
2.84327e-07
5.2206e-06
2.36763e-07
5.20076e-06
1.97802e-07
5.19429e-06
1.75024e-07
5.19552e-06
1.6001e-07
5.19642e-06
1.40924e-07
5.19383e-06
1.12516e-07
5.1896e-06
7.76383e-08
5.18721e-06
4.35528e-08
5.1886e-06
1.71802e-08
5.19341e-06
1.79022e-09
5.20209e-06
-5.77083e-09
5.21379e-06
-7.4643e-09
5.22826e-06
-8.00215e-09
-9.22993e-09
5.24511e-06
6.38814e-06
4.15074e-07
6.40234e-06
3.36821e-07
6.38301e-06
3.4087e-07
6.35216e-06
3.15182e-07
6.33456e-06
2.54361e-07
6.34177e-06
1.90593e-07
6.36844e-06
1.48353e-07
6.40088e-06
1.27575e-07
6.42833e-06
1.13471e-07
6.44663e-06
9.42125e-08
6.45548e-06
6.87936e-08
6.45578e-06
4.32533e-08
6.44985e-06
2.31065e-08
6.44146e-06
1.01787e-08
6.43335e-06
2.34648e-09
6.42863e-06
-2.74578e-09
6.42933e-06
-8.70659e-09
-1.64566e-08
6.43656e-06
7.86946e-06
5.71453e-07
7.77777e-06
4.2851e-07
7.7568e-06
3.61843e-07
7.75864e-06
3.13334e-07
7.75699e-06
2.56019e-07
7.75365e-06
1.93929e-07
7.76235e-06
1.39651e-07
7.79001e-06
9.99114e-08
7.83146e-06
7.20297e-08
7.87467e-06
5.09995e-08
7.90851e-06
3.49566e-08
7.92686e-06
2.48995e-08
7.93003e-06
1.99371e-08
7.92271e-06
1.74972e-08
7.91113e-06
1.39287e-08
7.90104e-06
7.34163e-09
7.89602e-06
-3.68911e-09
-1.75171e-08
7.89708e-06
9.49664e-06
4.89601e-07
9.46586e-06
4.59284e-07
9.47519e-06
3.52513e-07
9.51229e-06
2.76231e-07
9.53191e-06
2.36408e-07
9.52532e-06
2.00509e-07
9.51015e-06
1.54829e-07
9.50424e-06
1.05822e-07
9.51039e-06
6.58706e-08
9.52074e-06
4.06495e-08
9.52731e-06
2.83935e-08
9.52885e-06
2.33584e-08
9.52933e-06
1.94539e-08
9.53383e-06
1.30032e-08
9.54477e-06
2.98433e-09
9.56033e-06
-8.21407e-09
9.57684e-06
-2.0203e-08
-3.11291e-08
9.59045e-06
1.13975e-05
5.49451e-07
1.13834e-05
4.73354e-07
1.14528e-05
2.83123e-07
1.15681e-05
1.60906e-07
1.16698e-05
1.34771e-07
1.1722e-05
1.48325e-07
1.17242e-05
1.52597e-07
1.16992e-05
1.30818e-07
1.16717e-05
9.33848e-08
1.16544e-05
5.79117e-08
1.16494e-05
3.33852e-08
1.16535e-05
1.92752e-08
1.1662e-05
1.09243e-08
1.16706e-05
4.46416e-09
1.16771e-05
-3.54565e-09
1.16816e-05
-1.27088e-08
1.16839e-05
-2.24563e-08
-3.22684e-08
1.1685e-05
8.38945e-06
3.74066e-07
8.49806e-06
3.64747e-07
8.5245e-06
2.5668e-07
8.52747e-06
1.57937e-07
8.54326e-06
1.18979e-07
8.57261e-06
1.18981e-07
8.60358e-06
1.21621e-07
8.62583e-06
1.08569e-07
8.63708e-06
8.214e-08
8.64172e-06
5.32721e-08
8.64437e-06
3.073e-08
8.64683e-06
1.68151e-08
8.64847e-06
9.28746e-09
8.64862e-06
4.31102e-09
8.64616e-06
-1.08782e-09
8.64159e-06
-8.13455e-09
8.63709e-06
-1.79528e-08
-2.91902e-08
8.63401e-06
7.43824e-06
4.55238e-07
7.47239e-06
3.30593e-07
7.49154e-06
2.37535e-07
7.49075e-06
1.5872e-07
7.48876e-06
1.2097e-07
7.49589e-06
1.11855e-07
7.5147e-06
1.02814e-07
7.54157e-06
8.16963e-08
7.5703e-06
5.34129e-08
7.59567e-06
2.79006e-08
7.61542e-06
1.09798e-08
7.62953e-06
2.69729e-09
7.63921e-06
-3.92188e-10
7.64638e-06
-2.85588e-09
7.65212e-06
-6.82234e-09
7.65722e-06
-1.32356e-08
7.66109e-06
-2.18261e-08
-3.16032e-08
7.6635e-06
6.36441e-06
4.11684e-07
6.41893e-06
2.76077e-07
6.4803e-06
1.76164e-07
6.52096e-06
1.18062e-07
6.538e-06
1.03927e-07
6.54402e-06
1.05837e-07
6.55353e-06
9.32999e-08
6.5719e-06
6.3333e-08
6.59633e-06
2.8979e-08
6.62241e-06
1.81763e-09
6.64473e-06
-1.13344e-08
6.6635e-06
-1.60754e-08
6.67916e-06
-1.60551e-08
6.69199e-06
-1.56853e-08
6.70237e-06
-1.72014e-08
6.71019e-06
-2.10565e-08
6.71468e-06
-2.63129e-08
-3.20618e-08
6.71514e-06
5.57007e-06
3.12614e-07
5.5804e-06
2.65749e-07
5.5742e-06
1.82366e-07
5.58273e-06
1.09525e-07
5.61491e-06
7.17562e-08
5.66273e-06
5.80167e-08
5.70761e-06
4.84134e-08
5.73632e-06
3.46271e-08
5.74715e-06
1.8147e-08
5.74633e-06
2.63943e-09
5.7468e-06
-1.18062e-08
5.75268e-06
-2.19539e-08
5.7656e-06
-2.89759e-08
5.78343e-06
-3.35189e-08
5.80252e-06
-3.62874e-08
5.81961e-06
-3.81428e-08
5.8328e-06
-3.95114e-08
-4.06702e-08
5.84141e-06
4.86142e-06
2.72308e-07
4.91143e-06
2.15739e-07
4.92112e-06
1.72672e-07
4.92614e-06
1.04504e-07
4.94596e-06
5.19372e-08
4.97778e-06
2.61959e-08
5.00995e-06
1.62478e-08
5.03497e-06
9.60812e-09
5.05329e-06
-1.78125e-10
5.06687e-06
-1.09412e-08
5.077e-06
-2.19308e-08
5.08492e-06
-2.98764e-08
5.09031e-06
-3.43683e-08
5.09318e-06
-3.63915e-08
5.09436e-06
-3.74616e-08
5.09495e-06
-3.87319e-08
5.09627e-06
-4.08368e-08
-4.36064e-08
5.09921e-06
4.20587e-06
2.72972e-07
4.24279e-06
1.78817e-07
4.28917e-06
1.26293e-07
4.32709e-06
6.65845e-08
4.35144e-06
2.75896e-08
4.36823e-06
9.40598e-09
4.38623e-06
-1.75391e-09
4.41084e-06
-1.50004e-08
4.43894e-06
-2.82806e-08
4.46541e-06
-3.74116e-08
4.48326e-06
-3.97812e-08
4.48998e-06
-3.65919e-08
4.48736e-06
-3.17488e-08
4.47973e-06
-2.87597e-08
4.47123e-06
-2.89634e-08
4.46444e-06
-3.1943e-08
4.46002e-06
-3.64193e-08
-4.11117e-08
4.45753e-06
3.71868e-06
3.10597e-07
3.76009e-06
1.37405e-07
3.80572e-06
8.06632e-08
3.82929e-06
4.30173e-08
3.84591e-06
1.09667e-08
3.86405e-06
-8.7375e-09
3.88257e-06
-2.02695e-08
3.89741e-06
-2.98472e-08
3.90737e-06
-3.82359e-08
3.91285e-06
-4.2894e-08
3.91641e-06
-4.33345e-08
3.92142e-06
-4.16083e-08
3.93021e-06
-4.05331e-08
3.94314e-06
-4.16933e-08
3.95868e-06
-4.45004e-08
3.97442e-06
-4.76872e-08
3.98779e-06
-4.97921e-08
-5.02765e-08
3.99696e-06
3.22843e-06
2.1704e-07
3.32585e-06
3.99898e-08
3.36787e-06
3.86362e-08
3.38445e-06
2.64355e-08
3.40118e-06
-5.76388e-09
3.42422e-06
-3.17702e-08
3.4451e-06
-4.11542e-08
3.45674e-06
-4.14846e-08
3.45908e-06
-4.05731e-08
3.45761e-06
-4.14257e-08
3.45823e-06
-4.39524e-08
3.46391e-06
-4.72894e-08
3.47411e-06
-5.07333e-08
3.48608e-06
-5.36689e-08
3.49677e-06
-5.51903e-08
3.50418e-06
-5.50936e-08
3.50765e-06
-5.32614e-08
-5.06767e-08
3.50805e-06
2.84896e-06
1.64998e-07
2.90174e-06
-1.2793e-08
2.94409e-06
-3.71558e-09
2.98815e-06
-1.76182e-08
3.02343e-06
-4.10471e-08
3.04381e-06
-5.21565e-08
3.05374e-06
-5.10785e-08
3.05955e-06
-4.72934e-08
3.06549e-06
-4.65192e-08
3.07258e-06
-4.85079e-08
3.07961e-06
-5.09875e-08
3.08512e-06
-5.28028e-08
3.08855e-06
-5.4158e-08
3.0905e-06
-5.56211e-08
3.09204e-06
-5.67291e-08
3.09398e-06
-5.70319e-08
3.09658e-06
-5.58616e-08
-5.3597e-08
3.0995e-06
2.54061e-06
7.14313e-08
2.57601e-06
-4.8189e-08
2.60312e-06
-3.08284e-08
2.63148e-06
-4.59711e-08
2.65297e-06
-6.25449e-08
2.66379e-06
-6.29751e-08
2.6682e-06
-5.54883e-08
2.67113e-06
-5.02236e-08
2.67398e-06
-4.9367e-08
2.67508e-06
-4.96023e-08
2.67209e-06
-4.79973e-08
2.664e-06
-4.47202e-08
2.6517e-06
-4.18513e-08
2.63712e-06
-4.10418e-08
2.62239e-06
-4.20019e-08
2.60881e-06
-4.34551e-08
2.59681e-06
-4.38576e-08
-4.27453e-08
2.58596e-06
2.1957e-06
2.14751e-06
2.11668e-06
2.07071e-06
2.00817e-06
1.94519e-06
1.88971e-06
1.83948e-06
1.79011e-06
1.74051e-06
1.69251e-06
1.64779e-06
1.60594e-06
1.5649e-06
1.5229e-06
1.47944e-06
1.43559e-06
1.39284e-06
-2.72623e-07
2.72623e-07
-5.22407e-07
2.49785e-07
-6.93544e-07
1.71137e-07
-7.81129e-07
8.75852e-08
-7.77288e-07
-3.84167e-09
-7.01602e-07
-7.56853e-08
-5.62756e-07
-1.38847e-07
-3.67434e-07
-1.95321e-07
-1.28013e-07
-2.39421e-07
1.43604e-07
-2.71617e-07
4.35037e-07
-2.91433e-07
7.35831e-07
-3.00794e-07
1.03712e-06
-3.01292e-07
1.33155e-06
-2.94422e-07
1.61358e-06
-2.82039e-07
1.87915e-06
-2.65561e-07
2.12508e-06
-2.4593e-07
2.34894e-06
-2.23866e-07
2.5488e-06
-1.99862e-07
2.72299e-06
-1.74183e-07
2.87009e-06
-1.471e-07
2.98904e-06
-1.18957e-07
3.07833e-06
-8.92824e-08
3.13634e-06
-5.80133e-08
3.16153e-06
-2.51956e-08
3.15256e-06
8.97615e-09
3.10743e-06
4.51257e-08
3.02507e-06
8.23609e-08
2.90381e-06
1.21258e-07
2.74302e-06
1.60796e-07
2.53962e-06
2.03399e-07
2.29357e-06
2.46049e-07
1.99947e-06
2.94097e-07
1.65783e-06
3.41644e-07
1.27293e-06
3.84897e-07
8.10842e-07
4.6209e-07
3.874e-07
4.23443e-07
1.07672e-07
2.79728e-07
-8.29524e-08
1.90624e-07
-2.1756e-07
1.34607e-07
-3.03242e-07
8.56823e-08
-3.49099e-07
4.58569e-08
-3.6143e-07
1.23309e-08
-3.40998e-07
-2.04322e-08
-2.81033e-07
-5.9965e-08
-1.83466e-07
-9.75663e-08
-5.9456e-08
-1.2401e-07
9.27935e-08
-1.5225e-07
2.80355e-07
-1.87561e-07
4.77951e-07
-1.97597e-07
6.16779e-07
-1.38828e-07
6.36489e-07
-1.97102e-08
5.78742e-07
5.77469e-08
5.91271e-07
-1.25282e-08
7.81233e-07
-1.89962e-07
1.03719e-06
-2.55958e-07
1.20543e-06
-1.68241e-07
1.21928e-06
-1.38444e-08
1.03049e-06
1.8879e-07
5.65613e-07
4.64873e-07
-1.0854e-07
6.74153e-07
-8.32322e-07
7.23781e-07
-1.52831e-06
6.95987e-07
-2.16681e-06
6.38499e-07
-2.73779e-06
5.70986e-07
-3.24228e-06
5.0449e-07
-3.68678e-06
4.44493e-07
-4.07958e-06
3.92807e-07
-4.42872e-06
3.49139e-07
-4.7408e-06
3.12075e-07
-5.02044e-06
2.79642e-07
-5.27022e-06
2.49784e-07
-5.49097e-06
2.20749e-07
-5.68224e-06
1.91266e-07
-5.84276e-06
1.60518e-07
-5.97083e-06
1.28072e-07
-6.06469e-06
9.38622e-08
-6.12298e-06
5.82908e-08
-6.14518e-06
2.21963e-08
-6.13268e-06
-1.2499e-08
-6.08781e-06
-4.48705e-08
-6.01203e-06
-7.57784e-08
-5.90771e-06
-1.04324e-07
-5.77777e-06
-1.29939e-07
-5.6254e-06
-1.52367e-07
-5.45395e-06
-1.71448e-07
-5.26671e-06
-1.87246e-07
-5.06684e-06
-1.9987e-07
-4.85727e-06
-2.09565e-07
-4.64073e-06
-2.16537e-07
-4.41968e-06
-2.21054e-07
-4.19629e-06
-2.23386e-07
-3.97245e-06
-2.23839e-07
-3.74972e-06
-2.22739e-07
-3.52926e-06
-2.20456e-07
-3.31185e-06
-2.17411e-07
-3.09779e-06
-2.14056e-07
-2.88695e-06
-2.10848e-07
-2.67874e-06
-2.0821e-07
-2.47224e-06
-2.06492e-07
-2.26632e-06
-2.05928e-07
-2.05975e-06
-2.0657e-07
-1.85147e-06
-2.08271e-07
-1.64078e-06
-2.10695e-07
-1.42741e-06
-2.13366e-07
-1.21172e-06
-2.15695e-07
-9.94679e-07
-2.1704e-07
-7.77888e-07
-2.16791e-07
-5.63429e-07
-2.14459e-07
-3.53646e-07
-2.09783e-07
-1.50924e-07
-2.02722e-07
4.2274e-08
-1.93198e-07
2.24399e-07
-1.82125e-07
3.93522e-07
-1.69123e-07
5.48564e-07
-1.55042e-07
6.89034e-07
-1.40471e-07
8.15009e-07
-1.25974e-07
9.27063e-07
-1.12054e-07
1.02615e-06
-9.90922e-08
1.11347e-06
-8.73193e-08
1.19029e-06
-7.68157e-08
1.25777e-06
-6.74834e-08
1.3168e-06
-5.90284e-08
1.36791e-06
-5.11098e-08
1.41134e-06
-4.34272e-08
1.44691e-06
-3.55702e-08
1.4742e-06
-2.72933e-08
1.49309e-06
-1.88866e-08
1.5034e-06
-1.03089e-08
1.50447e-06
-1.07025e-09
1.49626e-06
8.21196e-09
1.47988e-06
1.63797e-08
1.45682e-06
2.30533e-08
1.42859e-06
2.8236e-08
1.39659e-06
3.19966e-08
1.36209e-06
3.45052e-08
1.32618e-06
3.59003e-08
1.28989e-06
3.62979e-08
1.25407e-06
3.582e-08
1.21945e-06
3.46163e-08
1.18658e-06
3.28709e-08
1.1558e-06
3.07788e-08
1.12729e-06
2.85131e-08
1.10108e-06
2.62033e-08
1.07715e-06
2.39326e-08
1.0554e-06
2.1749e-08
1.03572e-06
1.96815e-08
1.01797e-06
1.775e-08
1.002e-06
1.59703e-08
9.87647e-07
1.43548e-08
9.74736e-07
1.29104e-08
9.63099e-07
1.16368e-08
9.52574e-07
1.0525e-08
9.43015e-07
9.55902e-09
9.34296e-07
8.71892e-09
9.26312e-07
7.98427e-09
9.18972e-07
7.33971e-09
9.12197e-07
6.77583e-09
9.05906e-07
6.2905e-09
9.00023e-07
5.88306e-09
8.94466e-07
5.55734e-09
8.8915e-07
5.31575e-09
8.83974e-07
5.17542e-09
8.7885e-07
5.12436e-09
8.73647e-07
5.20306e-09
8.68254e-07
5.3933e-09
8.62459e-07
5.79445e-09
8.56152e-07
6.30738e-09
8.48974e-07
7.17836e-09
8.4087e-07
8.10352e-09
8.31125e-07
9.74547e-09
8.19942e-07
1.11825e-08
8.05631e-07
1.43116e-08
7.89388e-07
1.62426e-08
7.66724e-07
2.26635e-08
7.42445e-07
2.42791e-08
7.03475e-07
3.89705e-08
6.67906e-07
3.5569e-08
5.93974e-07
7.39316e-08
4.9239e-08
5.44735e-07
1.44062e-08
2.58216e-07
-1.60387e-08
2.8023e-07
-3.58991e-08
1.90997e-07
-2.10225e-08
7.27086e-08
4.10376e-08
-6.59018e-08
1.68974e-07
-2.03622e-07
3.57322e-07
-3.27195e-07
5.90964e-07
-4.28963e-07
8.55713e-07
-5.0417e-07
1.13651e-06
-5.52417e-07
1.42093e-06
-5.75847e-07
1.69765e-06
-5.77516e-07
1.96302e-06
-5.66667e-07
2.21363e-06
-5.45027e-07
2.44726e-06
-5.15668e-07
2.66263e-06
-4.80934e-07
2.859e-06
-4.42304e-07
3.03575e-06
-4.00613e-07
3.19217e-06
-3.56278e-07
3.32747e-06
-3.09492e-07
3.44072e-06
-2.60347e-07
3.53075e-06
-2.08983e-07
3.59705e-06
-1.55583e-07
3.63963e-06
-1.00598e-07
3.65907e-06
-4.4629e-08
3.65564e-06
1.24052e-08
3.62701e-06
7.3754e-08
3.5752e-06
1.3417e-07
3.5009e-06
1.95553e-07
3.40372e-06
2.57983e-07
3.28438e-06
3.22737e-07
3.14076e-06
3.8967e-07
2.97653e-06
4.58322e-07
2.78724e-06
5.30942e-07
2.57825e-06
5.93879e-07
2.37895e-06
6.61396e-07
2.11768e-06
6.84711e-07
1.7298e-06
6.67606e-07
1.29368e-06
6.26745e-07
9.03681e-07
5.24606e-07
6.02542e-07
3.86822e-07
3.99857e-07
2.48542e-07
2.87714e-07
1.24474e-07
2.53579e-07
1.37025e-08
2.89396e-07
-9.57824e-08
3.83946e-07
-1.92116e-07
5.05433e-07
-2.45498e-07
6.42699e-07
-2.89515e-07
8.15921e-07
-3.60784e-07
1.02059e-06
-4.02261e-07
1.16455e-06
-2.82795e-07
1.23591e-06
-9.10684e-08
1.39492e-06
-1.01259e-07
1.59466e-06
-2.12268e-07
1.54118e-06
-1.36481e-07
1.16511e-06
1.20109e-07
4.91407e-07
5.05461e-07
-3.61112e-07
8.38675e-07
-1.21075e-06
1.03843e-06
-1.93662e-06
1.19074e-06
-2.52132e-06
1.25885e-06
-3.02669e-06
1.22915e-06
-3.47479e-06
1.14409e-06
-3.86923e-06
1.03294e-06
-4.21548e-06
9.17229e-07
-4.52015e-06
8.09161e-07
-4.78978e-06
7.14129e-07
-5.03019e-06
6.33219e-07
-5.246e-06
5.6494e-07
-5.44041e-06
5.06487e-07
-5.61529e-06
4.54525e-07
-5.77127e-06
4.05766e-07
-5.90824e-06
3.57712e-07
-6.02539e-06
3.08424e-07
-6.12133e-06
2.5646e-07
-6.19446e-06
2.01197e-07
-6.24324e-06
1.42639e-07
-6.26628e-06
8.1331e-08
-6.26241e-06
1.83314e-08
-6.23e-06
-4.49118e-08
-6.16772e-06
-1.07152e-07
-6.07671e-06
-1.66781e-07
-5.95886e-06
-2.22177e-07
-5.81672e-06
-2.72079e-07
-5.65341e-06
-3.15684e-07
-5.47216e-06
-3.5269e-07
-5.27626e-06
-3.8315e-07
-5.06874e-06
-4.07389e-07
-4.85245e-06
-4.25854e-07
-4.62995e-06
-4.39042e-07
-4.40354e-06
-4.47461e-07
-4.17527e-06
-4.51657e-07
-3.9469e-06
-4.52211e-07
-3.71987e-06
-4.49764e-07
-3.49529e-06
-4.45043e-07
-3.27382e-06
-4.38875e-07
-3.05572e-06
-4.32156e-07
-2.84077e-06
-4.25804e-07
-2.6283e-06
-4.20674e-07
-2.41732e-06
-4.1747e-07
-2.20659e-06
-4.16663e-07
-1.99479e-06
-4.18369e-07
-1.78078e-06
-4.22279e-07
-1.56378e-06
-4.27698e-07
-1.3435e-06
-4.33647e-07
-1.12028e-06
-4.38912e-07
-8.95186e-07
-4.42134e-07
-6.69922e-07
-4.42056e-07
-4.46757e-07
-4.37624e-07
-2.28132e-07
-4.28408e-07
-1.69322e-08
-4.13922e-07
1.8543e-07
-3.9556e-07
3.75631e-07
-3.72326e-07
5.52322e-07
-3.45814e-07
7.14429e-07
-3.17149e-07
8.61586e-07
-2.87628e-07
9.94164e-07
-2.58552e-07
1.11315e-06
-2.31041e-07
1.21994e-06
-2.05883e-07
1.31611e-06
-1.83491e-07
1.40323e-06
-1.63937e-07
1.48271e-06
-1.46964e-07
1.55572e-06
-1.32032e-07
1.62308e-06
-1.1847e-07
1.68519e-06
-1.05539e-07
1.74213e-06
-9.25062e-08
1.79377e-06
-7.89376e-08
1.83962e-06
-6.47324e-08
1.87916e-06
-4.98479e-08
1.91261e-06
-3.45222e-08
1.94025e-06
-1.9433e-08
1.96185e-06
-5.21923e-09
1.97723e-06
7.67189e-09
1.98674e-06
1.87266e-08
1.99104e-06
2.76961e-08
1.99093e-06
3.46176e-08
1.98726e-06
3.95694e-08
1.98086e-06
4.27019e-08
1.97247e-06
4.4206e-08
1.96276e-06
4.43252e-08
1.95228e-06
4.33552e-08
1.94145e-06
4.16088e-08
1.93059e-06
3.93727e-08
1.91992e-06
3.68745e-08
1.90957e-06
3.42751e-08
1.89965e-06
3.16776e-08
1.89018e-06
2.91434e-08
1.88123e-06
2.67043e-08
1.87283e-06
2.4373e-08
1.86503e-06
2.21527e-08
1.8579e-06
2.00432e-08
1.85149e-06
1.80433e-08
1.84586e-06
1.61513e-08
1.84106e-06
1.43653e-08
1.83709e-06
1.2684e-08
1.83397e-06
1.11074e-08
1.83167e-06
9.64181e-09
1.83014e-06
8.30138e-09
1.82933e-06
7.10664e-09
1.82913e-06
6.07899e-09
1.82945e-06
5.2389e-09
1.83016e-06
4.60318e-09
1.83113e-06
4.20776e-09
1.83222e-06
4.03147e-09
1.83329e-06
4.13354e-09
1.83421e-06
4.47296e-09
1.83478e-06
5.22287e-09
1.83489e-06
6.19739e-09
1.83423e-06
7.84489e-09
1.83277e-06
9.56276e-09
1.8299e-06
1.26119e-08
1.8259e-06
1.51799e-08
1.81937e-06
2.08423e-08
1.8114e-06
2.42144e-08
1.79869e-06
3.53747e-08
1.78431e-06
3.86626e-08
1.76104e-06
6.22337e-08
1.73509e-06
6.15201e-08
1.69517e-06
1.13848e-07
1.00743e-07
1.64367e-06
1.90754e-07
6.74621e-08
3.19369e-07
1.51615e-07
4.08367e-07
1.02e-07
5.09335e-07
-2.82593e-08
6.57503e-07
-2.1407e-07
8.54519e-07
-4.00638e-07
1.08709e-06
-5.59761e-07
1.33405e-06
-6.75931e-07
1.57605e-06
-7.46166e-07
1.80209e-06
-7.78463e-07
2.0091e-06
-7.82847e-07
2.19829e-06
-7.66713e-07
2.36899e-06
-7.3737e-07
2.52396e-06
-6.99994e-07
2.66607e-06
-6.57774e-07
2.79753e-06
-6.12392e-07
2.91969e-06
-5.64472e-07
3.03303e-06
-5.13954e-07
3.13718e-06
-4.60421e-07
3.23108e-06
-4.0339e-07
3.31322e-06
-3.42492e-07
3.3819e-06
-2.77661e-07
3.43541e-06
-2.09092e-07
3.47213e-06
-1.37317e-07
3.49051e-06
-6.30107e-08
3.49032e-06
1.25912e-08
3.47441e-06
8.96676e-08
3.44242e-06
1.66157e-07
3.39622e-06
2.41755e-07
3.33741e-06
3.16788e-07
3.26836e-06
3.9179e-07
3.19029e-06
4.67744e-07
3.10522e-06
5.43387e-07
3.01636e-06
6.19807e-07
2.92065e-06
6.89585e-07
2.82604e-06
7.56005e-07
2.70217e-06
8.08583e-07
2.5433e-06
8.26479e-07
2.3639e-06
8.06142e-07
2.14056e-06
7.47948e-07
1.88455e-06
6.42826e-07
1.63746e-06
4.95635e-07
1.43713e-06
3.24804e-07
1.30012e-06
1.50718e-07
1.24454e-06
-4.02039e-08
1.24855e-06
-1.96133e-07
1.27962e-06
-2.76567e-07
1.37325e-06
-3.83139e-07
1.50337e-06
-4.90907e-07
1.5971e-06
-4.95987e-07
1.71144e-06
-3.97143e-07
1.79456e-06
-1.74186e-07
1.6701e-06
2.31998e-08
1.19497e-06
2.62866e-07
3.4636e-07
7.12128e-07
-6.36867e-07
1.10334e-06
-1.46999e-06
1.33858e-06
-2.13514e-06
1.50383e-06
-2.68954e-06
1.59283e-06
-3.11268e-06
1.61388e-06
-3.4235e-06
1.56966e-06
-3.66871e-06
1.47437e-06
-3.87899e-06
1.35437e-06
-4.07355e-06
1.2275e-06
-4.26178e-06
1.10546e-06
-4.44727e-06
9.94656e-07
-4.6306e-06
8.9746e-07
-4.81106e-06
8.13681e-07
-4.98739e-06
7.41267e-07
-5.15793e-06
6.7702e-07
-5.3206e-06
6.17201e-07
-5.47297e-06
5.58139e-07
-5.61204e-06
4.96779e-07
-5.73453e-06
4.30911e-07
-5.83725e-06
3.59179e-07
-5.91716e-06
2.81113e-07
-5.97156e-06
1.97035e-07
-5.99803e-06
1.07802e-07
-5.99406e-06
1.43629e-08
-5.96002e-06
-7.89568e-08
-5.89592e-06
-1.71246e-07
-5.80297e-06
-2.59738e-07
-5.68344e-06
-3.41706e-07
-5.54032e-06
-4.15197e-07
-5.37699e-06
-4.79017e-07
-5.19687e-06
-5.32802e-07
-5.00326e-06
-5.76768e-07
-4.79912e-06
-6.11524e-07
-4.58715e-06
-6.37823e-07
-4.36976e-06
-6.56429e-07
-4.14915e-06
-6.68079e-07
-3.92727e-06
-6.73536e-07
-3.70586e-06
-6.73618e-07
-3.48637e-06
-6.69253e-07
-3.26991e-06
-6.61508e-07
-3.05714e-06
-6.51638e-07
-2.84827e-06
-6.41029e-07
-2.64295e-06
-6.31121e-07
-2.44035e-06
-6.2328e-07
-2.23921e-06
-6.1861e-07
-2.03801e-06
-6.17859e-07
-1.83515e-06
-6.21232e-07
-1.62916e-06
-6.28263e-07
-1.41901e-06
-6.37849e-07
-1.20422e-06
-6.48439e-07
-9.85038e-07
-6.58096e-07
-7.62505e-07
-6.64667e-07
-5.38281e-07
-6.6628e-07
-3.14646e-07
-6.61259e-07
-9.45049e-08
-6.48549e-07
1.19628e-07
-6.28054e-07
3.23822e-07
-5.99755e-07
5.15891e-07
-5.64395e-07
6.93596e-07
-5.2352e-07
8.55265e-07
-4.78817e-07
9.9975e-07
-4.32113e-07
1.12664e-06
-3.8544e-07
1.2366e-06
-3.41001e-07
1.33152e-06
-3.008e-07
1.41414e-06
-2.66116e-07
1.48744e-06
-2.37233e-07
1.554e-06
-2.13522e-07
1.61573e-06
-1.9377e-07
1.67384e-06
-1.76582e-07
1.72891e-06
-1.60608e-07
1.78109e-06
-1.44685e-07
1.83021e-06
-1.28051e-07
1.87579e-06
-1.10316e-07
1.9173e-06
-9.13613e-08
1.95427e-06
-7.14881e-08
1.98626e-06
-5.14213e-08
2.0131e-06
-3.20607e-08
2.035e-06
-1.42307e-08
2.05226e-06
1.46924e-09
2.06533e-06
1.463e-08
2.07466e-06
2.52824e-08
2.08081e-06
3.34184e-08
2.08426e-06
3.9255e-08
2.08546e-06
4.30016e-08
2.0849e-06
4.48905e-08
2.08303e-06
4.52223e-08
2.08031e-06
4.43259e-08
2.07715e-06
4.25388e-08
2.07385e-06
4.01759e-08
2.07062e-06
3.75044e-08
2.06756e-06
3.47307e-08
2.06471e-06
3.19977e-08
2.06202e-06
2.93895e-08
2.05946e-06
2.69404e-08
2.05696e-06
2.46475e-08
2.05452e-06
2.24813e-08
2.05217e-06
2.03969e-08
2.04998e-06
1.83441e-08
2.04806e-06
1.62781e-08
2.04658e-06
1.4169e-08
2.04568e-06
1.20083e-08
2.04551e-06
9.81483e-09
2.04617e-06
7.63236e-09
2.04776e-06
5.52585e-09
2.05027e-06
3.56866e-09
2.05368e-06
1.82175e-09
2.05794e-06
3.46704e-10
2.06289e-06
-7.46214e-10
2.06842e-06
-1.49278e-09
2.07434e-06
-1.78455e-09
2.08051e-06
-1.6997e-09
2.08675e-06
-1.02053e-09
2.09297e-06
-2.54909e-11
2.09893e-06
1.88852e-09
2.10458e-06
3.9104e-09
2.10965e-06
7.54457e-09
2.11412e-06
1.07121e-08
2.11762e-06
1.73381e-08
2.12004e-06
2.18017e-08
2.12117e-06
3.42416e-08
2.12e-06
3.98327e-08
2.118e-06
6.42322e-08
2.10974e-06
6.97804e-08
2.10528e-06
1.18304e-07
1.2505e-07
2.08098e-06
7.57659e-08
-8.3038e-09
1.59493e-07
6.78872e-08
3.16173e-07
-5.46802e-08
5.65215e-07
-2.77301e-07
8.6096e-07
-5.09816e-07
1.15617e-06
-6.95846e-07
1.41403e-06
-8.1762e-07
1.61877e-06
-8.80677e-07
1.77159e-06
-8.98983e-07
1.88152e-06
-8.88396e-07
1.96094e-06
-8.62267e-07
2.02371e-06
-8.29477e-07
2.08102e-06
-7.94683e-07
2.14049e-06
-7.59467e-07
2.20614e-06
-7.23422e-07
2.27929e-06
-6.85545e-07
2.35939e-06
-6.44565e-07
2.4444e-06
-5.98965e-07
2.53138e-06
-5.47397e-07
2.61687e-06
-4.8888e-07
2.6973e-06
-4.22927e-07
2.76923e-06
-3.49595e-07
2.82976e-06
-2.69617e-07
2.87687e-06
-1.84422e-07
2.90962e-06
-9.57636e-08
2.92867e-06
-6.45904e-09
2.93448e-06
8.38533e-08
2.92953e-06
1.71106e-07
2.91666e-06
2.54629e-07
2.89864e-06
3.34806e-07
2.87783e-06
4.12603e-07
2.85567e-06
4.89906e-07
2.83232e-06
5.66739e-07
2.8078e-06
6.44323e-07
2.77874e-06
7.18648e-07
2.74704e-06
7.87697e-07
2.71143e-06
8.44196e-07
2.66533e-06
8.72585e-07
2.59736e-06
8.74109e-07
2.50328e-06
8.42024e-07
2.37415e-06
7.7196e-07
2.22994e-06
6.39844e-07
2.08378e-06
4.70966e-07
1.94257e-06
2.91926e-07
1.84957e-06
5.27925e-08
1.79425e-06
-1.40806e-07
1.78494e-06
-2.67264e-07
1.85965e-06
-4.57847e-07
1.99837e-06
-6.29623e-07
2.0052e-06
-5.02822e-07
1.75495e-06
-1.46895e-07
1.27258e-06
3.08182e-07
4.50292e-07
8.45492e-07
-5.40349e-07
1.25351e-06
-1.36749e-06
1.53927e-06
-2.00376e-06
1.73961e-06
-2.51396e-06
1.84878e-06
-2.89613e-06
1.886e-06
-3.17324e-06
1.86994e-06
-3.37004e-06
1.81068e-06
-3.51765e-06
1.71728e-06
-3.64643e-06
1.60314e-06
-3.77467e-06
1.48261e-06
-3.91129e-06
1.36412e-06
-4.0584e-06
1.25257e-06
-4.21431e-06
1.15057e-06
-4.37587e-06
1.05902e-06
-4.53989e-06
9.7771e-07
-4.70346e-06
9.04834e-07
-4.86367e-06
8.37224e-07
-5.01744e-06
7.70977e-07
-5.16155e-06
7.02244e-07
-5.29271e-06
6.27938e-07
-5.40785e-06
5.4605e-07
-5.50421e-06
4.55545e-07
-5.57921e-06
3.5611e-07
-5.63026e-06
2.4809e-07
-5.65489e-06
1.32432e-07
-5.65046e-06
9.93194e-09
-5.61637e-06
-1.13048e-07
-5.55172e-06
-2.35901e-07
-5.4577e-06
-3.53758e-07
-5.33709e-06
-4.62314e-07
-5.19362e-06
-5.5866e-07
-5.03137e-06
-6.4127e-07
-4.85416e-06
-7.10011e-07
-4.6653e-06
-7.6563e-07
-4.46751e-06
-8.09312e-07
-4.26302e-06
-8.42316e-07
-4.05374e-06
-8.65711e-07
-3.84143e-06
-8.80382e-07
-3.62783e-06
-8.87143e-07
-3.41461e-06
-8.8684e-07
-3.20337e-06
-8.80492e-07
-2.99553e-06
-8.69349e-07
-2.79213e-06
-8.55032e-07
-2.59369e-06
-8.39475e-07
-2.40001e-06
-8.24793e-07
-2.21021e-06
-8.13083e-07
-2.02277e-06
-8.06049e-07
-1.83581e-06
-8.04825e-07
-1.64726e-06
-8.09773e-07
-1.45524e-06
-8.20289e-07
-1.25829e-06
-8.34802e-07
-1.05567e-06
-8.51053e-07
-8.47438e-07
-8.66329e-07
-6.34276e-07
-8.77829e-07
-4.17482e-07
-8.83074e-07
-1.99085e-07
-8.79656e-07
1.82781e-08
-8.65912e-07
2.31495e-07
-8.41272e-07
4.37115e-07
-8.05374e-07
6.32106e-07
-7.59386e-07
8.13962e-07
-7.05375e-07
9.81157e-07
-6.46012e-07
1.13284e-06
-5.83795e-07
1.26798e-06
-5.20579e-07
1.38505e-06
-4.5807e-07
1.48294e-06
-3.98694e-07
1.56241e-06
-3.45584e-07
1.62657e-06
-3.01391e-07
1.67999e-06
-2.66944e-07
1.72715e-06
-2.40934e-07
1.77127e-06
-2.20697e-07
1.81396e-06
-2.03305e-07
1.85563e-06
-1.86352e-07
1.8959e-06
-1.68319e-07
1.93413e-06
-1.48547e-07
1.96974e-06
-1.26969e-07
2.00218e-06
-1.03929e-07
2.03088e-06
-8.01192e-08
2.05533e-06
-5.65126e-08