/*--------------------------------*- C++ -*----------------------------------*\
  =========                 |
  \\      /  F ield         | OpenFOAM: The Open Source CFD Toolbox
   \\    /   O peration     | Website:  https://openfoam.org
    \\  /    A nd           | Version:  7
     \\/     M anipulation  |
\*---------------------------------------------------------------------------*/
FoamFile
{
    version     2.0;
    format      ascii;
    class       volScalarField;
    location    "0.073";
    object      s;
}
// * * * * * * * * * * * * * * * * * * * * * * * * * * * * * * * * * * * * * //

dimensions      [0 0 0 0 0 0 0];

internalField   nonuniform List<scalar> 
12225
(
1
1
1
1
1
1
1
1
1
1
1
1
1
1
1
1
1
1
1
1
1
1
1
1
1
1
1
1
1
1
1
1
1
1
1
1
1
1
1
1
1
1
1
1
1
1
1
1
1
1
1
1
1
1
1
1
1
1
1
1
1
1
1
1
1
1
1
1
1
1
1
1
1
1
1
1
1
1
1
1
1
1
1
1
1
1
1
1
1
1
1
1
1
1
1
1
1
1
1
1
1
1
1
1
1
1
1
1
1
1
1
1
1
1
1
1
1
1
1
1
1
1
1
1
1
1
1
1
1
1
1
1
1
1
1
1
1
1
1
1
1
1
1
1
1
1
1
1
1
1
1
1
1
1
1
1
1
1
1
1
1
1
1
1
1
1
1
1
1
1
1
1
1
1
1
1
1
1
1
1
1
1
1
1
1
1
1
1
1
1
1
1
1
1
1
1
1
1
1
1
1
1
1
1
1
1
1
1
1
1
1
1
1
1
1
1
1
1
1
1
1
1
1
1
1
1
1
1
1
1
1
1
1
1
1
1
1
1
1
1
1
1
1
1
1
1
1
1
1
1
1
1
1
1
1
1
1
1
1
1
1
1
1
1
1
1
1
1
1
1
1
1
1
1
1
1
1
1
1
1
1
1
1
1
1
1
1
1
1
1
1
1
1
1
1
1
1
1
1
1
1
1
1
1
1
1
1
1
1
1
1
1
1
1
1
1
1
1
1
1
1
1
1
1
1
1
1
1
1
1
1
1
1
1
1
1
1
1
1
1
1
1
1
1
1
1
1
1
1
1
1
1
1
1
1
1
1
1
1
1
1
1
1
1
1
1
1
1
1
1
1
1
1
1
1
1
1
1
1
1
1
1
1
1
1
1
1
1
1
1
1
1
1
1
1
1
1
1
1
1
1
1
1
1
1
1
1
1
1
1
1
1
1
1
1
1
1
1
1
1
1
1
1
1
1
1
1
1
1
1
1
1
1
1
1
1
1
1
1
1
1
1
1
1
1
1
1
1
1
1
1
1
1
1
1
1
1
1
1
1
1
1
1
1
1
1
1
1
1
1
1
1
1
1
1
1
1
1
1
1
1
1
1
1
1
1
1
1
1
1
1
1
1
1
1
1
1
1
1
1
1
1
1
1
1
1
1
1
1
1
1
1
1
1
1
1
1
1
1
1
1
1
1
1
1
1
1
1
1
1
1
1
1
1
1
1
1
1
1
1
0.0830747
0.161512
0.172717
0.173041
0.16937
0.165602
0.177199
0.199027
0.229221
0.261542
0.299991
0.334769
0.361825
0.385868
0.402478
0.419157
0.441136
0.462351
0.482799
0.501532
0.517169
0.529091
0.537522
0.545372
0.554142
0.561584
0.566515
0.568836
0.569461
0.569369
0.568344
0.564621
0.552605
0.53446
0.499617
0.402
0.169531
0.031009
0.0119648
0.0149479
0.0167197
0.0196347
0.0231647
0.0262204
0.0303041
0.0353595
0.04107
0.0479108
0.053202
0.0534378
0.0497186
0.0483614
0.058842
0.0809212
0.100173
0.129593
0.164323
0.225213
0.471429
0.745895
0.828758
0.841428
0.845241
0.847682
0.849085
0.85051
0.851633
0.852218
0.853171
0.853933
0.854514
0.855284
0.855874
0.856431
0.856987
0.85731
0.857948
0.858631
0.85924
0.859628
0.860324
0.860895
0.861175
0.861653
0.862365
0.86287
0.8632
0.863624
0.863799
0.863837
0.863734
0.8633
0.862655
0.862136
0.861592
0.860926
0.860295
0.859797
0.859562
0.859362
0.858985
0.85855
0.858155
0.857791
0.857136
0.856529
0.855809
0.854921
0.853748
0.851915
0.849226
0.845759
0.841363
0.835793
0.82872
0.819747
0.808679
0.794975
0.778145
0.758284
0.734767
0.706119
0.672416
0.633102
0.58377
0.523665
0.457018
0.379614
0.287822
0.198417
0.128759
0.0790411
0.045925
0.0252244
0.0130682
0.00637147
0.00291929
0.00125843
0.000511694
0.000193425
6.3551e-05
2.0398e-05
1.04896e-05
5.30707e-06
2.59353e-06
1.2287e-06
5.66731e-07
2.55224e-07
1.12508e-07
4.86722e-08
2.07195e-08
8.7029e-09
3.61702e-09
1.49165e-09
6.12084e-10
2.50565e-10
1.02562e-10
4.20513e-11
1.72899e-11
7.13183e-12
2.95042e-12
1.2232e-12
5.07637e-13
2.10597e-13
8.7192e-14
3.59511e-14
1.47233e-14
5.97007e-15
2.3884e-15
9.39362e-16
3.61953e-16
1.36204e-16
4.99057e-17
1.77541e-17
6.11391e-18
2.03028e-18
6.47983e-19
1.95665e-19
5.4863e-20
-6.13442e-20
0.0521831
0.132794
0.142661
0.114127
0.0575486
0.0485221
0.0676801
0.112338
0.175022
0.249538
0.319548
0.381753
0.430776
0.46472
0.492109
0.514393
0.5327
0.543443
0.552079
0.561145
0.568987
0.574091
0.582393
0.5916
0.597003
0.605624
0.615587
0.621919
0.628557
0.636985
0.641389
0.641427
0.638788
0.630353
0.611205
0.567912
0.472105
0.265855
0.122817
0.055785
0.0295059
0.0199236
0.0167318
0.0181169
0.0246102
0.036829
0.0538453
0.0790097
0.120902
0.143921
0.141833
0.126655
0.119967
0.122306
0.129748
0.175196
0.498667
0.739585
0.794964
0.831184
0.844347
0.848602
0.851436
0.853459
0.855083
0.856408
0.85735
0.858082
0.858875
0.859432
0.859781
0.860176
0.860358
0.860491
0.860648
0.860831
0.861136
0.861644
0.86241
0.863331
0.864325
0.865039
0.865871
0.867387
0.869462
0.871421
0.873048
0.875044
0.877243
0.879315
0.881368
0.883152
0.884703
0.886591
0.888275
0.890152
0.891366
0.891977
0.892231
0.892284
0.892268
0.892277
0.892062
0.891652
0.891171
0.890532
0.889759
0.88904
0.888554
0.888715
0.889864
0.892094
0.895585
0.90053
0.907035
0.915142
0.924863
0.935914
0.94709
0.956958
0.964361
0.969988
0.974386
0.977657
0.979958
0.981385
0.981951
0.981724
0.979575
0.973416
0.957633
0.920842
0.862422
0.782661
0.680451
0.561108
0.438387
0.328773
0.23987
0.170262
0.117603
0.079073
0.051765
0.0329961
0.0204801
0.0123805
0.00729256
0.00418861
0.00234825
0.00128657
0.000689851
0.000362548
0.000187043
9.48708e-05
4.73733e-05
2.33157e-05
1.13205e-05
5.42543e-06
2.56735e-06
1.19962e-06
5.53446e-07
2.52098e-07
1.13389e-07
5.03722e-08
2.21048e-08
9.58016e-09
4.09657e-09
1.72576e-09
7.14453e-10
2.90026e-10
1.15066e-10
4.45481e-11
1.67627e-11
6.13304e-12
2.16736e-12
7.42909e-13
2.44067e-13
7.60696e-14
2.08604e-14
-1.05771e-13
0.0222543
0.0498627
0.0630317
0.0530651
0.0568809
0.0889667
0.176985
0.31397
0.431377
0.502941
0.537955
0.55551
0.558889
0.56025
0.558814
0.555736
0.551404
0.546817
0.542721
0.537693
0.532414
0.532151
0.533271
0.536393
0.54365
0.553108
0.566768
0.582159
0.595354
0.612901
0.628889
0.637525
0.648563
0.656289
0.65649
0.651984
0.634822
0.591203
0.497545
0.30414
0.163402
0.092627
0.0565894
0.0460241
0.0474305
0.0548583
0.0684204
0.0894507
0.147777
0.239498
0.259785
0.253405
0.22228
0.215769
0.407589
0.699314
0.79321
0.827506
0.841226
0.847963
0.850877
0.852492
0.853667
0.854659
0.85541
0.85579
0.855894
0.855612
0.854699
0.853247
0.850949
0.848083
0.844502
0.840172
0.836142
0.834581
0.834082
0.834178
0.836664
0.84225
0.847458
0.851014
0.854729
0.858983
0.863086
0.866854
0.870467
0.873854
0.877039
0.880403
0.883853
0.886812
0.889777
0.893146
0.896514
0.900393
0.903971
0.907511
0.910919
0.913962
0.916651
0.91827
0.91906
0.919237
0.918196
0.915854
0.912022
0.906859
0.900464
0.89337
0.886873
0.881804
0.877346
0.873969
0.87209
0.871517
0.871939
0.873858
0.879036
0.888817
0.903418
0.921157
0.938968
0.953779
0.96514
0.974129
0.981171
0.986651
0.990818
0.99372
0.995754
0.996757
0.99674
0.995926
0.993282
0.987531
0.97805
0.958383
0.910989
0.799913
0.660976
0.519637
0.392332
0.288042
0.205799
0.142951
0.0965818
0.0635445
0.0407755
0.0255628
0.0156864
0.00944072
0.00558406
0.00325284
0.00187001
0.00106318
0.000599154
0.000335537
0.000187232
0.000104331
5.8099e-05
3.22815e-05
1.78073e-05
9.68753e-06
5.17091e-06
2.69989e-06
1.37465e-06
6.81264e-07
3.28829e-07
1.54766e-07
7.09707e-08
3.17576e-08
1.38289e-08
5.88001e-09
2.42383e-09
9.76671e-10
3.78237e-10
1.43179e-10
5.24222e-11
1.49672e-11
0.00459095
0.013059
0.0170697
0.0547571
0.176909
0.369273
0.498845
0.552563
0.568693
0.57448
0.571367
0.562843
0.543915
0.51546
0.479105
0.446341
0.413005
0.386465
0.361444
0.341121
0.327219
0.316435
0.316298
0.319292
0.327473
0.344755
0.370986
0.408847
0.44597
0.491949
0.538038
0.577125
0.611493
0.636647
0.651055
0.659262
0.659314
0.65418
0.635251
0.589338
0.482821
0.342266
0.22988
0.155923
0.138733
0.141448
0.152773
0.181764
0.262508
0.366238
0.379462
0.339127
0.354025
0.595061
0.753253
0.814376
0.836097
0.844731
0.848587
0.850479
0.851652
0.852487
0.853062
0.853252
0.852945
0.851604
0.849498
0.846134
0.840833
0.832988
0.820976
0.80721
0.801237
0.79869
0.797961
0.798157
0.801668
0.810444
0.821113
0.829737
0.836987
0.844383
0.850313
0.854474
0.858701
0.863507
0.868198
0.872234
0.875918
0.879906
0.884117
0.887745
0.891386
0.894905
0.898562
0.902759
0.906769
0.911212
0.916056
0.921487
0.927242
0.932861
0.938421
0.943725
0.948654
0.952942
0.956245
0.958171
0.958498
0.955856
0.94941
0.938289
0.923952
0.90768
0.893404
0.883311
0.875919
0.871128
0.868377
0.867416
0.867746
0.870416
0.879449
0.897343
0.918403
0.93707
0.951826
0.963718
0.9735
0.981633
0.988109
0.99277
0.995882
0.99787
0.9989
0.999165
0.999117
0.998728
0.997335
0.993329
0.987168
0.976825
0.954357
0.893438
0.73762
0.564724
0.416068
0.297793
0.20736
0.140511
0.0928312
0.05996
0.0379814
0.0236717
0.0145621
0.00886893
0.00536224
0.00322514
0.00193183
0.00115222
0.000682493
0.000399543
0.000230285
0.000130334
7.22666e-05
3.92008e-05
2.07696e-05
1.07447e-05
5.41667e-06
2.66287e-06
1.27158e-06
5.92751e-07
2.69172e-07
1.19429e-07
5.14635e-08
2.16779e-08
8.81085e-09
3.49758e-09
1.34141e-09
4.50074e-10
0.00049342
0.00669701
0.112375
0.364857
0.521482
0.569973
0.583514
0.581039
0.568793
0.538133
0.491776
0.439554
0.390143
0.353576
0.324023
0.299174
0.277312
0.257329
0.240335
0.224181
0.210089
0.200359
0.19028
0.185229
0.185797
0.189171
0.197723
0.214141
0.254491
0.288181
0.342603
0.402371
0.457156
0.534019
0.598966
0.637236
0.654394
0.659172
0.65782
0.649323
0.623353
0.566365
0.451082
0.33636
0.284293
0.281269
0.294316
0.335811
0.432627
0.497885
0.498898
0.544803
0.683833
0.781098
0.823095
0.838811
0.844912
0.847639
0.849359
0.850335
0.850781
0.850814
0.849519
0.846897
0.842991
0.838331
0.83096
0.820684
0.807298
0.79052
0.778703
0.774437
0.77299
0.772773
0.774079
0.779569
0.788549
0.796553
0.801871
0.807071
0.814308
0.820549
0.823787
0.826313
0.830045
0.834844
0.841344
0.847618
0.853813
0.860374
0.867783
0.874731
0.881864
0.888137
0.893789
0.898974
0.903442
0.908069
0.913003
0.918442
0.92426
0.930646
0.937016
0.943388
0.949565
0.955518
0.961114
0.966118
0.97054
0.974052
0.976127
0.976458
0.974474
0.968498
0.955964
0.937333
0.91722
0.900819
0.887978
0.877832
0.870904
0.867662
0.867224
0.868962
0.877061
0.899514
0.925804
0.946329
0.960275
0.970133
0.977762
0.98413
0.989416
0.993476
0.996276
0.998019
0.999024
0.999536
0.99969
0.999683
0.999585
0.999252
0.998301
0.995684
0.989149
0.97378
0.932348
0.803161
0.608481
0.442758
0.313203
0.216425
0.14644
0.0973135
0.0637192
0.0412354
0.0264352
0.016811
0.0106069
0.00663144
0.00409519
0.00249058
0.00148762
0.000870721
0.000498495
0.000278838
0.00015223
8.10971e-05
4.21215e-05
2.13375e-05
1.05273e-05
5.06091e-06
2.36291e-06
1.07679e-06
4.77079e-07
2.06225e-07
8.63041e-08
3.51409e-08
1.38923e-08
4.93604e-09
0.0056818
0.128348
0.449225
0.567428
0.586921
0.58312
0.563116
0.522561
0.465938
0.423909
0.389201
0.360157
0.334856
0.312181
0.29076
0.269889
0.249608
0.230217
0.212296
0.195295
0.179695
0.166833
0.155117
0.143598
0.138628
0.13901
0.142026
0.149483
0.165712
0.200941
0.243791
0.300728
0.355904
0.398046
0.471375
0.562641
0.624618
0.651102
0.657982
0.65774
0.652136
0.63242
0.568368
0.435797
0.377572
0.376668
0.397712
0.479273
0.603958
0.627951
0.662905
0.735925
0.798074
0.82699
0.839048
0.843892
0.84606
0.84768
0.848618
0.848821
0.847783
0.845136
0.840649
0.835998
0.830509
0.823174
0.812288
0.79719
0.779264
0.764198
0.75876
0.757077
0.756755
0.757127
0.759546
0.761326
0.761276
0.758077
0.75019
0.741111
0.733174
0.723473
0.713558
0.704305
0.701191
0.703261
0.715122
0.725031
0.737599
0.751881
0.768299
0.786048
0.806052
0.826309
0.844241
0.859297
0.871797
0.881724
0.889687
0.896587
0.90317
0.910119
0.917616
0.925738
0.934638
0.943968
0.953388
0.962148
0.969615
0.975398
0.979772
0.983094
0.985181
0.985661
0.984642
0.980985
0.971501
0.953803
0.935267
0.918847
0.902768
0.888016
0.87729
0.872142
0.871465
0.873936
0.885985
0.914565
0.941712
0.960269
0.971883
0.979423
0.984889
0.989278
0.992865
0.995602
0.997493
0.998666
0.99933
0.999683
0.999849
0.999893
0.999887
0.999824
0.999583
0.998817
0.996463
0.989511
0.969789
0.90857
0.737247
0.548377
0.396487
0.280538
0.195193
0.133985
0.090863
0.0609115
0.0403503
0.026374
0.0169693
0.0107206
0.0066343
0.00401393
0.00237088
0.00136603
0.000767305
0.000420156
0.00022421
0.000116636
5.91098e-05
2.91951e-05
1.40317e-05
6.55751e-06
2.98111e-06
1.32004e-06
5.67047e-07
2.36391e-07
9.59699e-08
3.54764e-08
0.150004
0.469508
0.592843
0.597049
0.575312
0.526855
0.491793
0.459627
0.427792
0.398709
0.373096
0.349326
0.327657
0.307063
0.28624
0.265201
0.244539
0.224905
0.206491
0.18871
0.172
0.156565
0.142735
0.130887
0.12272
0.119461
0.11959
0.122883
0.132807
0.156352
0.200404
0.261349
0.306086
0.337248
0.390305
0.468704
0.558058
0.622043
0.650818
0.656532
0.654441
0.639052
0.562487
0.461555
0.440711
0.445501
0.487536
0.642645
0.695743
0.723389
0.767474
0.807723
0.828633
0.837958
0.842061
0.844259
0.845802
0.846512
0.846508
0.845127
0.84191
0.837584
0.833093
0.828715
0.823367
0.815209
0.803611
0.788099
0.769644
0.751932
0.744145
0.740557
0.738353
0.735971
0.73157
0.720165
0.697971
0.665048
0.627802
0.597229
0.567905
0.552623
0.550902
0.555568
0.565425
0.579525
0.589612
0.597005
0.603329
0.610556
0.618182
0.627716
0.640281
0.657724
0.682029
0.710428
0.739144
0.765013
0.786141
0.802473
0.81552
0.826854
0.838364
0.851512
0.867158
0.885266
0.906101
0.92813
0.948474
0.964583
0.975827
0.982774
0.986915
0.989468
0.990793
0.990862
0.989844
0.986323
0.976787
0.9628
0.949255
0.934671
0.917422
0.90095
0.889671
0.885103
0.885172
0.89116
0.913388
0.94136
0.962135
0.974954
0.982629
0.987505
0.991
0.993752
0.995918
0.997512
0.998591
0.999258
0.999632
0.999827
0.999921
0.999952
0.999952
0.99993
0.99982
0.999415
0.998046
0.993595
0.979835
0.936836
0.800123
0.61061
0.453589
0.330468
0.236904
0.167308
0.116344
0.0795373
0.053347
0.0350256
0.0224648
0.0140534
0.00856557
0.00508405
0.00293797
0.00165328
0.000906028
0.000483716
0.000251558
0.000127463
6.28796e-05
3.02023e-05
1.40887e-05
6.39477e-06
2.81908e-06
1.20468e-06
5.02071e-07
1.92332e-07
0.548464
0.635275
0.612131
0.558537
0.521379
0.502002
0.478239
0.449911
0.421433
0.39727
0.379168
0.367147
0.356645
0.342079
0.323641
0.304261
0.285446
0.267623
0.249086
0.227593
0.204126
0.183113
0.16827
0.156187
0.144787
0.135951
0.130943
0.137235
0.162263
0.196139
0.239723
0.285164
0.313721
0.336774
0.381785
0.461768
0.546977
0.610743
0.644709
0.653834
0.651753
0.626832
0.541714
0.495149
0.475845
0.492989
0.639278
0.728535
0.753805
0.784827
0.812197
0.828287
0.835997
0.839621
0.842077
0.843626
0.844213
0.843754
0.841817
0.836856
0.830718
0.824114
0.817673
0.81281
0.808048
0.799482
0.787195
0.77118
0.747869
0.727065
0.719351
0.715977
0.713268
0.703745
0.677455
0.63044
0.565905
0.500507
0.469299
0.457928
0.455677
0.465495
0.4905
0.514934
0.540999
0.560812
0.570475
0.578084
0.581948
0.585439
0.587653
0.58979
0.591456
0.593549
0.596895
0.602248
0.610186
0.620551
0.632459
0.644353
0.6552
0.665135
0.675212
0.687244
0.703858
0.728482
0.762854
0.808228
0.861715
0.909662
0.945942
0.969529
0.982611
0.989058
0.992178
0.993815
0.994315
0.994069
0.992919
0.988957
0.977729
0.967841
0.959321
0.947416
0.93231
0.918375
0.91026
0.908036
0.909789
0.922492
0.947258
0.966813
0.979309
0.986428
0.990551
0.993225
0.995211
0.996763
0.997942
0.998774
0.999317
0.999645
0.999827
0.999921
0.999963
0.999976
0.999975
0.999957
0.999871
0.999546
0.998418
0.994697
0.982994
0.94658
0.828475
0.647983
0.493349
0.367885
0.268828
0.192349
0.134542
0.0918292
0.061058
0.0395026
0.0248502
0.0151976
0.0090368
0.00522665
0.00294153
0.00161165
0.000859824
0.000446775
0.000226056
0.000111356
5.33554e-05
2.48385e-05
1.12375e-05
4.92719e-06
2.10844e-06
8.35662e-07
0.629181
0.651543
0.553027
0.528811
0.516805
0.500669
0.47825
0.457712
0.453716
0.457249
0.462346
0.461776
0.45189
0.436266
0.423459
0.412969
0.403094
0.38974
0.37178
0.350676
0.329006
0.310489
0.29844
0.287933
0.278337
0.268856
0.264571
0.268214
0.280579
0.296444
0.310415
0.321572
0.334563
0.358435
0.412064
0.490624
0.566122
0.620617
0.644404
0.648422
0.638139
0.58561
0.545673
0.502599
0.499115
0.610619
0.733304
0.771587
0.791295
0.814276
0.826601
0.833002
0.836575
0.839445
0.841005
0.841449
0.840321
0.83697
0.832127
0.825614
0.816696
0.807327
0.798447
0.790768
0.783248
0.775186
0.762217
0.739137
0.715102
0.6994
0.692261
0.687019
0.672723
0.638634
0.573075
0.485799
0.421159
0.394778
0.384579
0.382702
0.395073
0.431282
0.463864
0.499503
0.540302
0.564774
0.578799
0.588354
0.5923
0.593962
0.5942
0.593401
0.591909
0.590668
0.589853
0.589715
0.590626
0.592601
0.59558
0.599846
0.605004
0.610474
0.616074
0.621984
0.628732
0.637303
0.649496
0.66878
0.702411
0.763631
0.844448
0.914172
0.956422
0.97919
0.989648
0.993971
0.995755
0.996464
0.996483
0.996104
0.994892
0.990649
0.980844
0.974174
0.968425
0.960616
0.950655
0.941586
0.936782
0.93616
0.939888
0.955788
0.972797
0.983895
0.990171
0.993531
0.995463
0.996773
0.997766
0.998531
0.999092
0.999474
0.999714
0.999855
0.999931
0.999969
0.999984
0.999987
0.999984
0.999963
0.999873
0.999548
0.998452
0.994929
0.984019
0.950376
0.84134
0.667884
0.514557
0.386109
0.281993
0.200241
0.138104
0.0924479
0.0600495
0.037854
0.0231686
0.0137769
0.00796438
0.00447891
0.00245139
0.00130619
0.000677645
0.000342227
0.000168217
8.03649e-05
3.73149e-05
1.67951e-05
7.38057e-06
3.02304e-06
0.637948
0.601804
0.542564
0.537083
0.536026
0.531056
0.534194
0.543399
0.545273
0.545582
0.537343
0.524154
0.521952
0.522355
0.521781
0.518249
0.514323
0.507782
0.502536
0.491522
0.476342
0.460023
0.44435
0.429306
0.415834
0.407463
0.396498
0.385379
0.375401
0.370523
0.368904
0.38008
0.401962
0.450055
0.509539
0.56779
0.610656
0.630483
0.636291
0.630293
0.605203
0.577629
0.54153
0.508733
0.567009
0.719155
0.774755
0.796147
0.81219
0.824168
0.829637
0.833137
0.83611
0.837645
0.837859
0.836326
0.833452
0.829079
0.822246
0.813515
0.803688
0.793565
0.784332
0.776264
0.768208
0.756601
0.73319
0.707225
0.684444
0.670851
0.664216
0.653166
0.622937
0.555565
0.462063
0.37855
0.34235
0.326956
0.322238
0.32464
0.352006
0.387669
0.42641
0.493442
0.550942
0.606587
0.63587
0.647242
0.65079
0.650719
0.647387
0.640118
0.630232
0.620463
0.611375
0.603837
0.598488
0.595574
0.595118
0.596778
0.600099
0.604397
0.609263
0.614456
0.620005
0.626119
0.633362
0.642813
0.655756
0.675741
0.715102
0.788123
0.877563
0.941039
0.974234
0.98919
0.995021
0.997077
0.997843
0.998002
0.997885
0.997466
0.99626
0.992087
0.984756
0.980332
0.977624
0.973896
0.968531
0.963415
0.960985
0.961185
0.96614
0.978753
0.987878
0.993146
0.99587
0.997262
0.998075
0.998651
0.999092
0.999421
0.999653
0.999805
0.999897
0.99995
0.999977
0.999989
0.999993
0.999992
0.999986
0.999958
0.999853
0.999494
0.99834
0.994733
0.983588
0.948489
0.834831
0.660137
0.50452
0.373282
0.267323
0.185297
0.12435
0.0808389
0.0509488
0.0311588
0.0185077
0.0106854
0.00600044
0.00327877
0.00174388
0.000902777
0.000454882
0.000222943
0.000106225
4.90819e-05
2.21487e-05
9.36547e-06
0.637285
0.582251
0.558362
0.581191
0.59725
0.600331
0.595199
0.584512
0.584566
0.596983
0.614282
0.619771
0.621053
0.619023
0.618344
0.620292
0.621289
0.618813
0.612613
0.602717
0.597854
0.58773
0.577231
0.567021
0.55554
0.544506
0.534156
0.527719
0.520759
0.517587
0.516751
0.52872
0.547838
0.565091
0.593341
0.612941
0.6244
0.628919
0.626014
0.615755
0.598504
0.573807
0.528262
0.533691
0.684051
0.768046
0.796531
0.809504
0.820358
0.825917
0.829588
0.832273
0.83362
0.833206
0.830976
0.828083
0.823719
0.817711
0.809625
0.80079
0.792193
0.784571
0.777065
0.76947
0.758168
0.736542
0.711183
0.685531
0.665289
0.652867
0.642862
0.619225
0.56614
0.477165
0.373699
0.309866
0.281258
0.267533
0.262594
0.263203
0.286484
0.322092
0.386943
0.472624
0.561128
0.664747
0.747298
0.778415
0.785386
0.783831
0.775953
0.76118
0.739477
0.715319
0.692167
0.669753
0.64956
0.633391
0.621994
0.615334
0.613037
0.613972
0.617495
0.62261
0.628826
0.635464
0.641924
0.648453
0.656537
0.668442
0.68942
0.723998
0.778854
0.858133
0.93042
0.970607
0.988658
0.995606
0.997944
0.998711
0.998936
0.998923
0.998783
0.998391
0.997209
0.993452
0.989046
0.986806
0.985828
0.984441
0.981292
0.978541
0.977769
0.978605
0.983963
0.991108
0.995266
0.997412
0.998445
0.998956
0.999266
0.999497
0.999674
0.999801
0.999885
0.999938
0.999969
0.999985
0.999993
0.999996
0.999996
0.999994
0.999984
0.999944
0.999808
0.999366
0.997967
0.993527
0.979212
0.931395
0.787347
0.607905
0.452836
0.32546
0.225873
0.151536
0.0983961
0.0619138
0.0377963
0.0224073
0.0129114
0.00723504
0.00394464
0.00209275
0.00108061
0.000542784
0.000265301
0.000125797
5.82689e-05
2.54057e-05
0.633214
0.585552
0.588275
0.625088
0.630019
0.633454
0.658684
0.694444
0.707963
0.718671
0.738283
0.756953
0.767963
0.777106
0.782463
0.784467
0.783965
0.776438
0.767533
0.754608
0.739017
0.7183
0.701412
0.681134
0.663491
0.647528
0.63422
0.623921
0.618727
0.616679
0.616225
0.617672
0.620728
0.622687
0.626372
0.628394
0.629418
0.628588
0.623236
0.612545
0.59416
0.551045
0.530806
0.625647
0.749306
0.791752
0.80756
0.815446
0.821713
0.825675
0.828101
0.828804
0.826831
0.823795
0.821049
0.817375
0.812565
0.806896
0.800513
0.794626
0.787973
0.781207
0.773809
0.76404
0.747983
0.727397
0.704755
0.674863
0.649395
0.631939
0.61577
0.585084
0.522921
0.418747
0.315844
0.262859
0.236661
0.218814
0.209861
0.207098
0.218214
0.25026
0.308745
0.396375
0.526526
0.663078
0.780671
0.84586
0.878339
0.893286
0.900227
0.90236
0.897211
0.883092
0.857331
0.822532
0.781631
0.740473
0.707516
0.682684
0.666082
0.657813
0.656179
0.659406
0.667522
0.677729
0.688195
0.696366
0.700586
0.702943
0.707886
0.723301
0.757754
0.805652
0.866651
0.930247
0.97068
0.989014
0.996116
0.998505
0.999239
0.999464
0.999493
0.999456
0.999324
0.998931
0.997599
0.995176
0.993476
0.992737
0.992209
0.990952
0.988898
0.987955
0.988005
0.989528
0.993792
0.996768
0.998355
0.999133
0.999496
0.999672
0.999776
0.999851
0.999907
0.999945
0.99997
0.999984
0.999993
0.999996
0.999998
0.999998
0.999997
0.999993
0.999974
0.999911
0.999699
0.999004
0.996718
0.989062
0.962806
0.871429
0.684072
0.511179
0.367422
0.254633
0.170451
0.110393
0.0692774
0.0421777
0.0249377
0.0143294
0.00800693
0.00435202
0.00230184
0.00118435
0.000593098
0.000288389
0.000137019
6.15192e-05
0.631484
0.58879
0.598144
0.670766
0.729774
0.756166
0.773734
0.786155
0.803076
0.812656
0.827869
0.84546
0.855593
0.863907
0.868172
0.87102
0.872127
0.872258
0.869813
0.865768
0.858479
0.843748
0.821939
0.792988
0.757541
0.719248
0.688281
0.6625
0.644526
0.634703
0.629923
0.628077
0.630287
0.63284
0.634943
0.634914
0.632047
0.628153
0.620508
0.604639
0.568154
0.541735
0.564972
0.714409
0.781011
0.803347
0.812403
0.816842
0.821289
0.823601
0.823253
0.819498
0.816014
0.813201
0.810247
0.806635
0.802154
0.797234
0.792459
0.788133
0.783535
0.778228
0.772217
0.762052
0.745557
0.725148
0.694354
0.660144
0.633909
0.616445
0.599418
0.568805
0.49371
0.383187
0.284856
0.233171
0.205813
0.183758
0.172816
0.168855
0.171833
0.185267
0.214914
0.274848
0.385795
0.583349
0.754968
0.847239
0.890576
0.912152
0.925322
0.936046
0.945094
0.95118
0.953494
0.95055
0.939304
0.916279
0.877976
0.832061
0.788236
0.756384
0.740386
0.735096
0.736682
0.745266
0.758898
0.774633
0.787716
0.793515
0.793579
0.788877
0.787665
0.803574
0.846546
0.893521
0.940821
0.974625
0.99052
0.996769
0.998899
0.999546
0.999735
0.999777
0.99977
0.999727
0.999578
0.999053
0.998037
0.997272
0.996876
0.99655
0.995777
0.994508
0.993821
0.993752
0.9942
0.996115
0.997973
0.998992
0.999505
0.999748
0.999861
0.999916
0.999947
0.999966
0.99998
0.999988
0.999994
0.999997
0.999998
0.999999
0.999999
0.999998
0.999996
0.999985
0.999948
0.999818
0.999375
0.997851
0.992556
0.97389
0.908141
0.731352
0.545141
0.390811
0.269919
0.180016
0.116157
0.0726288
0.0440596
0.0259553
0.0148596
0.00827113
0.00447864
0.00235887
0.0012093
0.000602209
0.000293171
0.00013536
0.632058
0.599383
0.633752
0.712698
0.746578
0.793618
0.830856
0.847468
0.86806
0.882079
0.889975
0.896736
0.899539
0.900957
0.901628
0.901922
0.902589
0.903488
0.905118
0.907342
0.909436
0.912704
0.916019
0.918602
0.910735
0.893011
0.852403
0.794811
0.732379
0.679834
0.647393
0.627522
0.618096
0.614137
0.613401
0.616422
0.618294
0.613575
0.598525
0.573129
0.552834
0.551458
0.658532
0.761321
0.796726
0.808606
0.813487
0.816633
0.819206
0.817282
0.811845
0.808558
0.806151
0.803779
0.801336
0.798784
0.795639
0.792317
0.788887
0.784841
0.780795
0.775803
0.768738
0.757037
0.741049
0.717882
0.688389
0.657753
0.629035
0.607866
0.592519
0.563048
0.492704
0.382753
0.281497
0.220425
0.189617
0.169778
0.159432
0.155513
0.157332
0.164209
0.180943
0.216693
0.269911
0.389329
0.643808
0.803952
0.877861
0.907957
0.922776
0.93501
0.947093
0.9576
0.966014
0.972486
0.976987
0.978144
0.975084
0.964985
0.945994
0.917119
0.884405
0.862561
0.850424
0.843858
0.842089
0.847684
0.86362
0.881234
0.893982
0.898119
0.893098
0.87612
0.869901
0.886921
0.924097
0.956485
0.980757
0.992767
0.997556
0.999215
0.999725
0.999869
0.999904
0.999905
0.999889
0.999822
0.999577
0.999192
0.998929
0.998785
0.998603
0.998137
0.997471
0.997096
0.997026
0.997177
0.997964
0.998915
0.999461
0.999742
0.999876
0.999938
0.999967
0.999981
0.999989
0.999993
0.999996
0.999998
0.999999
0.999999
1
0.999999
0.999999
0.999997
0.99999
0.999962
0.999865
0.999516
0.99827
0.993789
0.977628
0.919964
0.750557
0.556765
0.39721
0.272988
0.181184
0.11636
0.0724207
0.0437294
0.0256415
0.0146094
0.00809379
0.00436059
0.00228659
0.00116493
0.000580211
0.000274911
0.635826
0.604556
0.639629
0.742261
0.798681
0.847015
0.874472
0.88715
0.897239
0.900763
0.901814
0.901897
0.899848
0.89659
0.893219
0.889068
0.885982
0.884514
0.883978
0.885529
0.889368
0.898002
0.912051
0.929664
0.939303
0.949719
0.953759
0.950058
0.925014
0.868041
0.787394
0.707168
0.660059
0.626327
0.604809
0.590686
0.582767
0.577552
0.571109
0.562938
0.559122
0.60878
0.730756
0.786072
0.804442
0.810706
0.81337
0.815383
0.814974
0.807844
0.802572
0.799171
0.796997
0.795031
0.793007
0.791161
0.78899
0.786722
0.784232
0.781057
0.776946
0.771047
0.761923
0.749273
0.733564
0.711802
0.680549
0.650503
0.62631
0.607596
0.59403
0.567556
0.50581
0.400092
0.296911
0.229361
0.193857
0.170892
0.156756
0.152572
0.153606
0.158122
0.168922
0.197273
0.23823
0.29257
0.43539
0.690427
0.827876
0.878381
0.893921
0.904748
0.921882
0.940782
0.956824
0.969626
0.978648
0.984595
0.988367
0.990307
0.98998
0.986399
0.978509
0.970135
0.963627
0.958609
0.953048
0.944417
0.935808
0.933882
0.940997
0.952324
0.957551
0.957582
0.949657
0.932702
0.93116
0.948703
0.97147
0.98708
0.995117
0.998346
0.99948
0.999834
0.999933
0.999958
0.99996
0.999952
0.999914
0.999797
0.999681
0.999613
0.999563
0.999468
0.999221
0.998939
0.998787
0.998757
0.998805
0.999102
0.999515
0.999758
0.999884
0.999946
0.999975
0.999988
0.999994
0.999996
0.999998
0.999999
0.999999
1
1
1
1
0.999999
0.999998
0.999992
0.999968
0.999881
0.999559
0.998364
0.993941
0.977707
0.919137
0.746431
0.55031
0.390201
0.266584
0.17592
0.112347
0.0695287
0.0417462
0.0243366
0.0137873
0.00759293
0.00406913
0.00211878
0.00107847
0.000523359
0.638862
0.607669
0.649869
0.779871
0.841865
0.874477
0.890629
0.897363
0.899951
0.900271
0.897928
0.889947
0.881056
0.875202
0.870424
0.868498
0.867548
0.865737
0.864084
0.860543
0.857045
0.852933
0.850094
0.850617
0.880074
0.921101
0.957228
0.971969
0.976845
0.975345
0.95498
0.906094
0.818085
0.745501
0.691105
0.647516
0.615588
0.595361
0.584937
0.585915
0.618948
0.708904
0.771448
0.798747
0.80798
0.810935
0.812657
0.81233
0.804872
0.796716
0.792905
0.790404
0.788222
0.78625
0.784313
0.782374
0.780296
0.777968
0.774904
0.771568
0.765669
0.754992
0.740416
0.726341
0.713427
0.693845
0.671447
0.64656
0.623745
0.60714
0.596514
0.578089
0.537423
0.446247
0.339174
0.258932
0.211495
0.181536
0.163935
0.156429
0.156144
0.158255
0.166329
0.19054
0.230902
0.273944
0.333603
0.499225
0.72461
0.818941
0.839806
0.843281
0.857499
0.886333
0.915009
0.94132
0.963125
0.978274
0.987275
0.992094
0.994732
0.996121
0.996341
0.995563
0.994237
0.993128
0.992179
0.991153
0.98923
0.985314
0.980801
0.979586
0.982648
0.984739
0.98454
0.981944
0.97158
0.964999
0.969348
0.983033
0.992312
0.997065
0.999002
0.999688
0.999905
0.999966
0.999981
0.999982
0.999977
0.999953
0.999913
0.999887
0.999872
0.999853
0.999806
0.999706
0.999623
0.999586
0.999583
0.999604
0.99971
0.99984
0.999918
0.99996
0.999981
0.999991
0.999996
0.999998
0.999999
0.999999
1
1
1
1
1
1
0.999999
0.999998
0.999992
0.999969
0.999882
0.999545
0.998261
0.993399
0.975327
0.909611
0.726094
0.53166
0.374392
0.254077
0.16657
0.105672
0.0649614
0.0387362
0.0224296
0.0126183
0.00690536
0.00367119
0.0019076
0.000946505
0.64354
0.610406
0.645116
0.789072
0.861312
0.884159
0.894156
0.898126
0.899229
0.897127
0.887207
0.877497
0.873264
0.870701
0.86948
0.869057
0.868975
0.869204
0.871184
0.872581
0.871263
0.862451
0.84673
0.823901
0.814376
0.815462
0.864781
0.935645
0.975699
0.987901
0.991179
0.984587
0.956716
0.885311
0.816262
0.764119
0.720857
0.690077
0.67336
0.679649
0.716471
0.761487
0.79065
0.804219
0.80907
0.810714
0.810401
0.806105
0.79612
0.787937
0.783888
0.781803
0.780379
0.778808
0.777086
0.775111
0.772952
0.770323
0.767093
0.763606
0.757737
0.745853
0.72717
0.706992
0.690727
0.672231
0.652214
0.633222
0.618902
0.60565
0.596264
0.585557
0.563164
0.510694
0.416821
0.322926
0.253132
0.211307
0.185987
0.171628
0.170316
0.172884
0.180863
0.200371
0.240048
0.276687
0.318222
0.38572
0.568371
0.73217
0.78516
0.802789
0.811346
0.822068
0.84811
0.885244
0.923221
0.95428
0.975112
0.987247
0.99355
0.996534
0.997975
0.998716
0.999029
0.999084
0.999012
0.998846
0.998667
0.998365
0.997594
0.996592
0.996027
0.995744
0.995501
0.995037
0.993564
0.988402
0.983893
0.984456
0.990629
0.995953
0.998457
0.999476
0.999837
0.999951
0.999983
0.999991
0.999991
0.999987
0.999976
0.999966
0.999961
0.999957
0.999949
0.999927
0.999902
0.999887
0.999884
0.999886
0.999903
0.999941
0.999967
0.999983
0.999991
0.999996
0.999998
0.999999
1
1
1
1
1
1
1
1
1
1
0.999998
0.999992
0.999967
0.999867
0.999476
0.997954
0.992122
0.97033
0.890905
0.693865
0.504683
0.352752
0.237644
0.154646
0.0973733
0.0593989
0.0351509
0.0201954
0.0112813
0.00612028
0.0032442
0.00164407
0.652907
0.614018
0.630929
0.774073
0.859666
0.885615
0.895067
0.897585
0.89746
0.892985
0.883368
0.876528
0.873485
0.87091
0.868394
0.865736
0.864125
0.863826
0.868963
0.875259
0.882299
0.885211
0.881967
0.866217
0.819192
0.796915
0.798615
0.832951
0.927123
0.9762
0.992838