/*--------------------------------*- C++ -*----------------------------------*\
  =========                 |
  \\      /  F ield         | OpenFOAM: The Open Source CFD Toolbox
   \\    /   O peration     | Website:  https://openfoam.org
    \\  /    A nd           | Version:  7
     \\/     M anipulation  |
\*---------------------------------------------------------------------------*/
FoamFile
{
    version     2.0;
    format      ascii;
    class       volScalarField;
    location    "0.073";
    object      s_0;
}
// * * * * * * * * * * * * * * * * * * * * * * * * * * * * * * * * * * * * * //

dimensions      [0 0 0 0 0 0 0];

internalField   nonuniform List<scalar> 
12225
(
1
1
1
1
1
1
1
1
1
1
1
1
1
1
1
1
1
1
1
1
1
1
1
1
1
1
1
1
1
1
1
1
1
1
1
1
1
1
1
1
1
1
1
1
1
1
1
1
1
1
1
1
1
1
1
1
1
1
1
1
1
1
1
1
1
1
1
1
1
1
1
1
1
1
1
1
1
1
1
1
1
1
1
1
1
1
1
1
1
1
1
1
1
1
1
1
1
1
1
1
1
1
1
1
1
1
1
1
1
1
1
1
1
1
1
1
1
1
1
1
1
1
1
1
1
1
1
1
1
1
1
1
1
1
1
1
1
1
1
1
1
1
1
1
1
1
1
1
1
1
1
1
1
1
1
1
1
1
1
1
1
1
1
1
1
1
1
1
1
1
1
1
1
1
1
1
1
1
1
1
1
1
1
1
1
1
1
1
1
1
1
1
1
1
1
1
1
1
1
1
1
1
1
1
1
1
1
1
1
1
1
1
1
1
1
1
1
1
1
1
1
1
1
1
1
1
1
1
1
1
1
1
1
1
1
1
1
1
1
1
1
1
1
1
1
1
1
1
1
1
1
1
1
1
1
1
1
1
1
1
1
1
1
1
1
1
1
1
1
1
1
1
1
1
1
1
1
1
1
1
1
1
1
1
1
1
1
1
1
1
1
1
1
1
1
1
1
1
1
1
1
1
1
1
1
1
1
1
1
1
1
1
1
1
1
1
1
1
1
1
1
1
1
1
1
1
1
1
1
1
1
1
1
1
1
1
1
1
1
1
1
1
1
1
1
1
1
1
1
1
1
1
1
1
1
1
1
1
1
1
1
1
1
1
1
1
1
1
1
1
1
1
1
1
1
1
1
1
1
1
1
1
1
1
1
1
1
1
1
1
1
1
1
1
1
1
1
1
1
1
1
1
1
1
1
1
1
1
1
1
1
1
1
1
1
1
1
1
1
1
1
1
1
1
1
1
1
1
1
1
1
1
1
1
1
1
1
1
1
1
1
1
1
1
1
1
1
1
1
1
1
1
1
1
1
1
1
1
1
1
1
1
1
1
1
1
1
1
1
1
1
1
1
1
1
1
1
1
1
1
1
1
1
1
1
1
1
1
1
1
1
1
1
1
1
1
1
1
1
1
1
1
1
1
1
1
1
1
1
1
1
1
1
1
1
1
1
1
1
1
1
1
1
1
1
1
1
1
1
1
1
1
1
1
1
1
1
1
1
1
0.082768
0.161366
0.17271
0.173063
0.169447
0.165679
0.177279
0.199111
0.229306
0.261606
0.300109
0.334932
0.362012
0.386052
0.402662
0.41946
0.44152
0.462792
0.483309
0.502048
0.51762
0.529446
0.537824
0.545708
0.554492
0.561859
0.566673
0.568898
0.569473
0.569361
0.56827
0.564405
0.552102
0.533827
0.498639
0.399899
0.167804
0.0306537
0.0119503
0.0149439
0.0167118
0.0196216
0.0231503
0.0262072
0.0302913
0.0353438
0.0410519
0.0478735
0.0531165
0.0533335
0.0496193
0.0483484
0.058992
0.0810585
0.100338
0.129862
0.164631
0.22643
0.475482
0.747689
0.828996
0.841406
0.845204
0.847646
0.849048
0.85047
0.851603
0.852188
0.853134
0.853903
0.854481
0.855249
0.855844
0.8564
0.856963
0.857284
0.857911
0.858593
0.859211
0.859597
0.860285
0.860869
0.86115
0.861615
0.862324
0.862836
0.863165
0.863589
0.863771
0.863812
0.863715
0.863289
0.862643
0.86212
0.861576
0.86091
0.860278
0.859777
0.859539
0.85934
0.858965
0.858529
0.858132
0.857769
0.857115
0.856507
0.855787
0.854899
0.853717
0.85187
0.849168
0.845691
0.841282
0.835695
0.828599
0.819599
0.808499
0.794758
0.777889
0.757986
0.734419
0.705714
0.671949
0.63255
0.583108
0.522912
0.45618
0.378663
0.286838
0.197593
0.12815
0.0786246
0.0456597
0.0250662
0.0129798
0.00632532
0.00289676
0.00124817
0.000507307
0.00019164
6.28844e-05
2.02357e-05
1.04174e-05
5.27039e-06
2.57485e-06
1.21955e-06
5.62392e-07
2.53225e-07
1.11608e-07
4.82761e-08
2.05481e-08
8.62993e-09
3.58633e-09
1.47885e-09
6.06784e-10
2.48377e-10
1.01659e-10
4.16785e-11
1.71355e-11
7.0676e-12
2.92361e-12
1.21198e-12
5.02934e-13
2.08627e-13
8.63672e-14
3.56069e-14
1.45805e-14
5.91125e-15
2.36443e-15
9.2974e-16
3.5816e-16
1.34742e-16
4.93564e-17
1.75537e-17
6.04311e-18
2.00618e-18
6.40104e-19
1.93224e-19
5.41628e-20
-6.05308e-20
0.0519772
0.132556
0.142489
0.11403
0.0575497
0.048453
0.0675564
0.112089
0.174795
0.249086
0.319151
0.381483
0.430652
0.464721
0.492275
0.514712
0.533108
0.543841
0.552519
0.561608
0.569382
0.574505
0.582903
0.592022
0.597393
0.606117
0.616039
0.622314
0.629032
0.637441
0.64169
0.64168
0.638939
0.630332
0.610889
0.56709
0.470158
0.263555
0.121832
0.0554241
0.0293957
0.0198806
0.016723
0.0181264
0.0246343
0.0368687
0.0539313
0.0792103
0.121049
0.143699
0.14151
0.126358
0.1199
0.12227
0.129726
0.176495
0.503438
0.740509
0.795486
0.831365
0.844358
0.84858
0.851412
0.853435
0.855058
0.856388
0.857336
0.858067
0.85886
0.859425
0.859774
0.860173
0.860358
0.860491
0.860644
0.860822
0.861115
0.861609
0.862362
0.863279
0.864284
0.865008
0.865823
0.867303
0.869367
0.871339
0.872967
0.874951
0.87715
0.879224
0.88128
0.883074
0.884621
0.886502
0.888183
0.89006
0.891283
0.891898
0.892154
0.892209
0.892194
0.892206
0.891992
0.891582
0.891101
0.890466
0.889698
0.888985
0.888515
0.8887
0.889873
0.892128
0.895647
0.900621
0.907155
0.91529
0.925037
0.936102
0.947267
0.957099
0.964461
0.970065
0.974444
0.977698
0.979985
0.981399
0.981955
0.98171
0.979516
0.973275
0.957336
0.920274
0.861633
0.781607
0.679155
0.559691
0.437044
0.327655
0.238979
0.169575
0.11709
0.0787026
0.0515059
0.0328205
0.0203647
0.012307
0.00724708
0.00416131
0.00233231
0.00127752
0.00068484
0.00035984
0.000185611
9.41284e-05
4.69954e-05
2.31265e-05
1.12271e-05
5.38003e-06
2.54556e-06
1.18928e-06
5.48609e-07
2.49863e-07
1.1237e-07
4.99135e-08
2.19009e-08
9.49066e-09
4.05778e-09
1.70916e-09
7.07457e-10
2.87128e-10
1.1389e-10
4.40813e-11
1.65825e-11
6.06537e-12
2.14281e-12
7.34277e-13
2.41162e-13
7.51345e-14
2.05971e-14
-1.04397e-13
0.0221796
0.0496861
0.062872
0.0529616
0.0567447
0.0887373
0.17652
0.313445
0.430864
0.502821
0.538011
0.555685
0.559057
0.560511
0.559101
0.556092
0.551804
0.547244
0.543159
0.538094
0.532873
0.532637
0.533764
0.536907
0.544211
0.553669
0.567372
0.582689
0.595888
0.61349
0.629327
0.637915
0.64899
0.656544
0.656671
0.652038
0.634593
0.590564
0.495836
0.302019
0.162323
0.0920938
0.0563498
0.0459864
0.047439
0.0549275
0.068525
0.089735
0.148809
0.239897
0.259504
0.252987
0.221672
0.215886
0.411945
0.700811
0.793782
0.827666
0.841283
0.84796
0.850849
0.852465
0.853638
0.854629
0.855383
0.855769
0.855877
0.855604
0.854702
0.853269
0.850989
0.84814
0.844583
0.840284
0.836167
0.834542
0.834013
0.834078
0.836437
0.841958
0.847232
0.850838
0.854537
0.858789
0.862911
0.866694
0.870318
0.873718
0.876907
0.880272
0.883732
0.8867
0.889658
0.893026
0.896391
0.900272
0.903858
0.907399
0.910807
0.913842
0.916523
0.91813
0.918912
0.91907
0.918013
0.915656
0.911807
0.90663
0.900229
0.893153
0.886702
0.881667
0.877235
0.873891
0.872045
0.871497
0.871941
0.8739
0.879154
0.889012
0.903688
0.921452
0.939235
0.953977
0.965294
0.974249
0.981263
0.986722
0.99087
0.993756
0.995776
0.996764
0.996742
0.995917
0.993248
0.987476
0.977922
0.958064
0.910094
0.798296
0.659272
0.518021
0.390961
0.286944
0.204941
0.142303
0.0961097
0.0632126
0.0405497
0.0254139
0.0155909
0.00938104
0.00554762
0.00323105
0.00185721
0.00105578
0.000594929
0.000333153
0.000185898
0.000103588
5.76855e-05
3.20509e-05
1.76779e-05
9.61517e-06
5.13098e-06
2.67828e-06
1.36323e-06
6.75398e-07
3.25891e-07
1.53335e-07
7.02926e-08
3.14446e-08
1.36885e-08
5.81861e-09
2.39784e-09
9.65921e-10
3.73969e-10
1.41525e-10
5.18015e-11
1.47871e-11
0.00458154
0.0130249
0.0170145
0.0545777
0.176501
0.368803
0.498781
0.552669
0.568976
0.574811
0.571714
0.563204
0.544431
0.516056
0.479709
0.446955
0.413604
0.387075
0.36199
0.341699
0.327799
0.317083
0.316969
0.320002
0.328262
0.345661
0.372026
0.409845
0.446932
0.492901
0.538793
0.577799
0.612081
0.637064
0.651373
0.659446
0.659443
0.654182
0.634973
0.588637
0.480983
0.340584
0.228539
0.15524
0.138552
0.141348
0.152839
0.182163
0.263911
0.36685
0.379238
0.338535
0.35571
0.597768
0.754272
0.814699
0.83618
0.844733
0.848567
0.850447
0.851622
0.852456
0.85303
0.85322
0.852919
0.851591
0.849503
0.846177
0.840939
0.833196
0.821358
0.807429
0.801241
0.798615
0.797838
0.797985
0.801304
0.809908
0.820597
0.829334
0.83664
0.844088
0.850122
0.854351
0.858583
0.863393
0.868107
0.872167
0.875854
0.87983
0.884043
0.887676
0.891313
0.894829
0.898476
0.902672
0.906685
0.911126
0.915969
0.921399
0.927162
0.932789
0.938357
0.94367
0.948599
0.95288
0.956166
0.958072
0.958354
0.955651
0.949118
0.93793
0.923558
0.907299
0.893124
0.883107
0.875781
0.871042
0.86833
0.867399
0.867751
0.870487
0.879676
0.897667
0.918733
0.937328
0.952029
0.96388
0.973632
0.981739
0.98819
0.992826
0.995918
0.997891
0.998909
0.999167
0.999118
0.998723
0.997314
0.993281
0.987105
0.976676
0.953969
0.892201
0.735369
0.562744
0.414451
0.296538
0.206414
0.139824
0.0923485
0.0596321
0.0377652
0.0235326
0.0144745
0.00881461
0.00532899
0.00320497
0.00191966
0.00114489
0.00067807
0.000396879
0.000228697
0.000129401
7.17294e-05
3.88979e-05
2.06029e-05
1.06552e-05
5.36991e-06
2.63908e-06
1.25985e-06
5.87101e-07
2.66528e-07
1.18221e-07
5.09286e-08
2.14465e-08
8.71435e-09
3.45832e-09
1.32597e-09
4.44797e-10
0.000491348
0.00665111
0.111973
0.364192
0.521449
0.5702
0.583808
0.581351
0.569195
0.538655
0.492356
0.440105
0.390474
0.353755
0.324096
0.29919
0.277294
0.257303
0.240312
0.224141
0.210089
0.200365
0.190289
0.185357
0.185963
0.189403
0.198048
0.214677
0.255349
0.288969
0.343601
0.403137
0.458011
0.53501
0.599689
0.63767
0.654635
0.659274
0.657861
0.649208
0.622882
0.565006
0.44899
0.334743
0.283751
0.281099
0.294473
0.336564
0.433519
0.498223
0.49947
0.546359
0.685609
0.781795
0.823318
0.838855
0.844893
0.847597
0.84932
0.850299
0.850746
0.850779
0.849486
0.846866
0.84297
0.838363
0.831077
0.820891
0.807624
0.790922
0.778777
0.774381
0.77287
0.772626
0.773831
0.779152
0.788076
0.796191
0.801609
0.806822
0.814114
0.820553
0.823995
0.826629
0.830408
0.835223
0.841716
0.848012
0.854196
0.860715
0.868083
0.874986
0.882066
0.888291
0.893901
0.899056
0.903497
0.908101
0.91302
0.918454
0.92427
0.930657
0.93703
0.943403
0.94958
0.955531
0.961122
0.966121
0.970539
0.974031
0.976074
0.976366
0.974326
0.968249
0.955563
0.936862
0.916794
0.900505
0.887734
0.877654
0.870796
0.867616
0.867211
0.869006
0.877276
0.899947
0.92619
0.946594
0.960455
0.970263
0.977865
0.984216
0.989484
0.993525
0.996309
0.998039
0.999035
0.999541
0.999691
0.999683
0.999584
0.999247
0.998286
0.995641
0.989042
0.973509
0.931517
0.800848
0.606257
0.440965
0.311842
0.215427
0.14573
0.096822
0.0633869
0.0410151
0.0262911
0.0167176
0.0105469
0.00659297
0.00407066
0.0024751
0.00147798
0.000864837
0.000494976
0.000276783
0.00015106
8.04486e-05
4.17715e-05
2.11536e-05
1.04334e-05
5.01423e-06
2.34041e-06
1.06622e-06
4.72257e-07
2.04081e-07
8.53824e-08
3.47557e-08
1.3736e-08
4.87932e-09
0.00568636
0.127936
0.448646
0.56752
0.587161
0.583441
0.563488
0.522995
0.46623
0.424073
0.389223
0.360091
0.334727
0.312013
0.290577
0.269705
0.249428
0.230042
0.212128
0.195137
0.179563
0.16674
0.155021
0.14353
0.138654
0.139065
0.142129
0.149671
0.166117
0.201624
0.244626
0.301656
0.356561
0.3987
0.472417
0.563624
0.625184
0.651356
0.658072
0.657772
0.652014
0.631896
0.566158
0.433934
0.377143
0.376644
0.398186
0.4807
0.6047
0.628485
0.663871
0.736893
0.79853
0.827136
0.83906
0.843861
0.846015
0.847632
0.848573
0.848777
0.847743
0.84511
0.840647
0.836028
0.830591
0.823347
0.812598
0.797628
0.779791
0.764381
0.758726
0.756961
0.756612
0.756942
0.759288
0.761195
0.761199
0.758195
0.750537
0.74163
0.733937
0.724517
0.714969
0.705777
0.702618
0.704557
0.716364
0.72636
0.738933
0.753207
0.769607
0.787295
0.807186
0.827274
0.844979
0.859977
0.872403
0.882263
0.89017
0.897028
0.903583
0.910513
0.917995
0.926099
0.934971
0.944262
0.953627
0.962322
0.969722
0.975458
0.979802
0.983108
0.985159
0.985606
0.984552
0.980823
0.971174
0.953361
0.934863
0.918496
0.902449
0.887759
0.877126
0.872071
0.871445
0.873999
0.8863
0.915038
0.942076
0.960498
0.972027
0.979519
0.984961
0.989337
0.992911
0.995636
0.997515
0.998679
0.999337
0.999687
0.99985
0.999893
0.999887
0.999823
0.999579
0.998803
0.996419
0.989381
0.969405
0.907286
0.734731
0.546308
0.394881
0.27934
0.194325
0.133369
0.0904315
0.0606131
0.040146
0.0262353
0.0168763
0.010659
0.00659425
0.00398845
0.00235506
0.00135647
0.000761682
0.000416939
0.000222421
0.000115668
5.86009e-05
2.89348e-05
1.39024e-05
6.49507e-06
2.95184e-06
1.30669e-06
5.61146e-07
2.33862e-07
9.49145e-08
3.50772e-08
0.148983
0.468418
0.592926
0.597345
0.575614
0.527156
0.491929
0.459693
0.427792
0.39861
0.372947
0.349133
0.327422
0.306812
0.28599
0.264955
0.244293
0.224656
0.206249
0.18849
0.171817
0.156411
0.142591
0.130761
0.122636
0.119426
0.119584
0.122932
0.132965
0.156747
0.201066
0.262052
0.306539
0.337753
0.391126
0.469811
0.559101
0.622661
0.651043
0.656561
0.654367
0.638519
0.560318
0.46067
0.440723
0.445671
0.488535
0.643914
0.696216
0.724003
0.768067
0.80802
0.828724
0.837952
0.842011
0.844208
0.845749
0.846456
0.846449
0.845066
0.841846
0.837512
0.833019
0.828676
0.823408
0.815348
0.803878
0.788493
0.770116
0.75215
0.744123
0.740455
0.738236
0.735873
0.731569
0.720439
0.698649
0.666152
0.629151
0.598716
0.569596
0.55355
0.551522
0.555895
0.565507
0.579538
0.589783
0.597256
0.603661
0.610978
0.618721
0.628389
0.641143
0.658805
0.683387
0.711883
0.740681
0.766581
0.787687
0.803971
0.816972
0.828271
0.839747
0.852839
0.868359
0.886377
0.907115
0.928977
0.94909
0.964977
0.976043
0.982874
0.986959
0.989485
0.990777
0.990822
0.989774
0.986177
0.976485
0.962454
0.948935
0.934332
0.917079
0.900669
0.889499
0.885033
0.885157
0.891325
0.913836
0.941747
0.962391
0.975108
0.982722
0.987567
0.991045
0.993788
0.995945
0.997531
0.998603
0.999265
0.999636
0.999829
0.999922
0.999952
0.999952
0.999929
0.999818
0.999408
0.998019
0.993507
0.979565
0.93595
0.797818
0.60852
0.45192
0.329184
0.235939
0.166595
0.115824
0.0791628
0.0530815
0.0348409
0.0223392
0.0139701
0.00851184
0.00505039
0.00291751
0.0016412
0.000899105
0.000479862
0.000249473
0.000126367
6.23192e-05
2.99238e-05
1.39545e-05
6.33193e-06
2.79053e-06
1.19212e-06
4.96682e-07
1.90216e-07
0.547536
0.635334
0.612466
0.558945
0.521424
0.502012
0.478233
0.449894
0.421321
0.397036
0.378776
0.36662
0.356075
0.341536
0.323098
0.30368
0.284813
0.266971
0.248478
0.227063
0.203652
0.182643
0.167795
0.155756
0.144424
0.135678
0.130712
0.137102
0.162301
0.196388
0.240153
0.285568
0.314003
0.337103
0.38243
0.462703
0.547847
0.611316
0.644961
0.653849
0.651633
0.625908
0.540523
0.494895
0.47585
0.493568
0.640779
0.729039
0.754207
0.785222
0.812413
0.828329
0.835966
0.839566
0.842021
0.843563
0.844145
0.843679
0.841737
0.836774
0.830619
0.823985
0.817495
0.81259
0.807884
0.799457
0.787288
0.771397
0.748212
0.727098
0.719197
0.715767
0.713103
0.703849
0.678022
0.631577
0.567632
0.502146
0.470024
0.458307
0.455884
0.465207
0.489965
0.514348
0.54029
0.560353
0.570184
0.577868
0.581793
0.585321
0.587569
0.589735
0.591428
0.593596
0.597031
0.602498
0.610586
0.621133
0.633229
0.645263
0.656221
0.666252
0.676438
0.688626
0.705492
0.730338
0.764908
0.81042
0.863743
0.91104
0.946869
0.970036
0.98285
0.989152
0.992214
0.993823
0.994297
0.994036
0.99286
0.988801
0.977445
0.967599
0.95908
0.947126
0.932007
0.918139
0.91013
0.907983
0.909826
0.922832
0.947603
0.967064
0.979457
0.986512
0.990601
0.99326
0.995237
0.996783
0.997956
0.998784
0.999323
0.999648
0.999829
0.999922
0.999964
0.999976
0.999975
0.999956
0.99987
0.99954
0.998396
0.994623
0.982766
0.945842
0.826393
0.645978
0.491686
0.366553
0.267785
0.191549
0.133941
0.0913888
0.0607438
0.0392851
0.0247043
0.0151028
0.00897716
0.00519031
0.00292007
0.00159935
0.000852977
0.000443073
0.000224111
0.000110363
5.28633e-05
2.46017e-05
1.11269e-05
4.87719e-06
2.08638e-06
8.2668e-07
0.629002
0.651941
0.553252
0.528803
0.516754
0.500617
0.478191
0.457357
0.453053
0.456443
0.461573
0.461089
0.451317
0.435669
0.422726
0.412118
0.402196
0.388885
0.370962
0.349868
0.328156
0.309551
0.297488
0.287067
0.277601
0.268236
0.263962
0.267749
0.280277
0.296329
0.310421
0.321637
0.334679
0.35872
0.412682
0.491424
0.566832
0.621019
0.644495
0.648347
0.637691
0.58477
0.545379
0.502461
0.499314
0.612173
0.733931
0.771896
0.791583
0.814423
0.826633
0.832958
0.836511
0.839377
0.840927
0.841364
0.840225
0.836866
0.832019
0.825521
0.816608
0.807218
0.798312
0.790609
0.783087
0.775084
0.762226
0.739231
0.715159
0.699286
0.692053
0.686865
0.672828
0.639234
0.574349
0.487444
0.421889
0.39508
0.384635
0.382629
0.394493
0.430418
0.463112
0.498461
0.539293
0.563925
0.577993
0.587676
0.591702
0.593446
0.593742
0.593029
0.59163
0.590459
0.589698
0.589613
0.590567
0.592576
0.595595
0.599928
0.605134
0.610636
0.616258
0.622193
0.628983
0.637635
0.649991
0.669602
0.703919
0.766056
0.84693
0.915724
0.957322
0.979616
0.989818
0.994029
0.995773
0.99646
0.996468
0.996078
0.994839
0.990488
0.980636
0.974012
0.968264
0.96042
0.950446
0.941425
0.9367
0.93613
0.939995
0.956097
0.973015
0.984028
0.990243
0.99357
0.995487
0.99679
0.997779
0.99854
0.999099
0.999478
0.999717
0.999856
0.999932
0.999969
0.999984
0.999987
0.999984
0.999962
0.999872
0.999541
0.99843
0.994861
0.983808
0.949701
0.83939
0.665933
0.512878
0.38472
0.28088
0.199377
0.137456
0.0919782
0.0597211
0.0376324
0.0230243
0.0136861
0.00790904
0.00444624
0.00243268
0.00129579
0.000672031
0.000339283
0.000166717
7.96228e-05
3.69586e-05
1.66295e-05
7.30539e-06
2.99135e-06
0.63797
0.602439
0.542536
0.536867
0.535744
0.530627
0.533599
0.542837
0.544802
0.545138
0.537173
0.523731
0.521324
0.52164
0.521032
0.51746
0.513493
0.506878
0.50161
0.49069
0.475502
0.459146
0.443461
0.428422
0.414928
0.406621
0.395825
0.384844
0.374983
0.370183
0.368615
0.379855
0.401855
0.45017
0.509858
0.568148
0.610896
0.630538
0.636171
0.630048
0.604845
0.57743
0.541283
0.508712
0.568269
0.719983
0.775088
0.796334
0.81232
0.824179
0.829596
0.833078
0.83603
0.837544
0.837731
0.836181
0.833307
0.828945
0.82212
0.8134
0.803599
0.793501
0.784276
0.77621
0.768165
0.756596
0.733238
0.707272
0.684429
0.670708
0.664036
0.653116
0.623316
0.556501
0.463396
0.379263
0.342557
0.326919
0.322104
0.324308
0.351343
0.38708
0.425399
0.49198
0.54933
0.604216
0.633631
0.645476
0.649128
0.649117
0.64591
0.638801
0.629097
0.619511
0.610596
0.603231
0.598045
0.595267
0.594922
0.596657
0.600029
0.604363
0.609248
0.61445
0.620004
0.626127
0.633395
0.642895
0.655923
0.676245
0.716368
0.790593
0.87983
0.942289
0.97484
0.989436
0.995104
0.997102
0.997848
0.997995
0.997873
0.997446
0.996212
0.991946
0.984617
0.980239
0.977542
0.973793
0.968413
0.963323
0.960943
0.961182
0.96629
0.978936
0.987988
0.993207
0.995901
0.997278
0.998086
0.998659
0.999098
0.999425
0.999656
0.999807
0.999898
0.99995
0.999977
0.999989
0.999993
0.999992
0.999986
0.999958
0.999851
0.999487
0.998318
0.994663
0.98337
0.947778
0.832838
0.658156
0.502798
0.371855
0.26619
0.184435
0.123721
0.0803974
0.0506507
0.0309647
0.0183856
0.0106111
0.00595665
0.00325374
0.00172999
0.000895292
0.000450964
0.000220952
0.000105242
4.8612e-05
2.19294e-05
9.26984e-06
0.637373
0.58242
0.558085
0.580655
0.59686
0.600082
0.59518
0.584258
0.584147
0.596153
0.61358
0.619196
0.620517
0.618432
0.617494
0.619274
0.620244
0.617786
0.611675
0.601652
0.596718
0.586696
0.576181
0.566023
0.554609
0.543646
0.533314
0.526838
0.519845
0.516702
0.515925
0.528046
0.547466
0.564943
0.593307
0.612974
0.624418
0.628908
0.625963
0.615669
0.598425
0.57366
0.528111
0.534143
0.68514
0.768458
0.796713
0.809596
0.820368
0.825871
0.829535
0.832182
0.833496
0.833029
0.830782
0.827888
0.823529
0.817538
0.809484
0.800693
0.792129
0.78454
0.777057
0.769474
0.758193
0.736592
0.71128
0.68558
0.665242
0.652721
0.642725
0.619308
0.566637
0.478029
0.374539
0.310144
0.281291
0.26745
0.262469
0.263021
0.286148
0.321534
0.385921
0.471447
0.559438
0.662796
0.745073
0.775726
0.782601
0.78094
0.773023
0.75823
0.73663
0.712818
0.690036
0.667865
0.647993
0.632167
0.62106
0.614645
0.612534
0.613598
0.617206
0.622354
0.628572
0.635195
0.641645
0.648206
0.656392
0.668455
0.689686
0.724633
0.780311
0.860274
0.931924
0.971318
0.98895
0.995708
0.997974
0.998719
0.998935
0.998919
0.998775
0.998375
0.997165
0.993349
0.988969
0.986763
0.985794
0.984391
0.981225
0.9785
0.977756
0.978631
0.984089
0.991195
0.995314
0.997436
0.998457
0.998963
0.99927
0.9995
0.999676
0.999802
0.999886
0.999939
0.999969
0.999986
0.999993
0.999996
0.999996
0.999994
0.999984
0.999944
0.999806
0.999358
0.997939
0.993439
0.978921
0.930399
0.785113
0.605884
0.45113
0.324089
0.224824
0.150768
0.0978575
0.0615507
0.0375603
0.0222593
0.0128215
0.00718217
0.00391447
0.00207605
0.00107164
0.000538098
0.000262925
0.000124629
5.77084e-05
2.51533e-05
0.633388
0.585527
0.587862
0.624857
0.62987
0.633117
0.657796
0.693819
0.707543
0.718079
0.737426
0.756138
0.767218
0.776284
0.781664
0.783672
0.783177
0.77566
0.766701
0.753762
0.738294
0.717609
0.700674
0.680473
0.662861
0.646994
0.633728
0.623571
0.618461
0.616477
0.616069
0.617511
0.620611
0.622612
0.626354
0.628404
0.629437
0.6286
0.62324
0.612525
0.59408
0.550781
0.530823
0.626969
0.749884
0.79197
0.807645
0.815464
0.82167
0.825614
0.828001
0.828643
0.82659
0.823551
0.82081
0.817143
0.812347
0.806706
0.800368
0.794539
0.787935
0.781198
0.773826
0.764065
0.748002
0.727455
0.70481
0.674872
0.649317
0.631784
0.615621
0.585147
0.523301
0.419346
0.316301
0.262947
0.236625
0.218794
0.20985
0.207092
0.218213
0.250223
0.308795
0.396156
0.525985
0.661922
0.779624
0.845156
0.877569
0.892388
0.899162
0.900976
0.895321
0.880474
0.85405
0.818909
0.777953
0.73724
0.705048
0.68067
0.664535
0.656638
0.655232
0.658652
0.666864
0.677088
0.687512
0.695595
0.699759
0.70218
0.707343
0.723321
0.758254
0.806584
0.868123
0.931608
0.971375
0.989306
0.99622
0.998537
0.999248
0.999465
0.999491
0.999453
0.999318
0.998917
0.997555
0.99513
0.993447
0.992719
0.992189
0.990916
0.988868
0.987944
0.988006
0.989576
0.993857
0.996803
0.998372
0.999142
0.9995
0.999674
0.999778
0.999852
0.999907
0.999946
0.99997
0.999985
0.999993
0.999997
0.999998
0.999998
0.999997
0.999992
0.999974
0.99991
0.999695
0.99899
0.996671
0.988904
0.962253
0.869505
0.681881
0.509262
0.365871
0.253444
0.169582
0.109786
0.0688693
0.0419133
0.0247724
0.0142293
0.00794823
0.00431863
0.00228341
0.00117448
0.000587958
0.000285794
0.00013574
6.09248e-05
0.631647
0.588751
0.59768
0.669823
0.729084
0.755832
0.773591
0.785973
0.802931
0.812485
0.82737
0.844923
0.855157
0.863513
0.867815
0.870651
0.871756
0.871819
0.869293
0.865104
0.857737
0.842834
0.820836
0.791756
0.756318
0.718121
0.687582
0.661927
0.644149
0.634511
0.629847
0.628064
0.630345
0.632902
0.634987
0.634942
0.632073
0.628174
0.620509
0.604553
0.567897
0.541664
0.565716
0.715254
0.781325
0.803453
0.812424
0.816821
0.821222
0.82349
0.823034
0.819212
0.815756
0.812954
0.810011
0.806424
0.801971
0.797085
0.792346
0.788044
0.783477
0.778191
0.772192
0.762027
0.745534
0.725141
0.694288
0.660076
0.633798
0.616289
0.599294
0.568842
0.493935
0.383526
0.285111
0.23317
0.205757
0.183747
0.172822
0.16887
0.171886
0.185377
0.21517
0.275585
0.38721
0.584301
0.755085
0.847107
0.890443
0.912067
0.925272
0.936004
0.944957
0.950871
0.952919
0.949539
0.937578
0.913541
0.874217
0.828095
0.784623
0.753706
0.73836
0.733465
0.735355
0.74427
0.758048
0.773817
0.786751
0.792361
0.792305
0.78764
0.786802
0.803749
0.847297
0.89451
0.941853
0.97521
0.990771
0.996861
0.998928
0.999554
0.999737
0.999777
0.999769
0.999725
0.999572
0.999035
0.998018
0.997259
0.996867
0.996539
0.995757
0.99449
0.993815
0.993752
0.994215
0.996152
0.997995
0.999003
0.99951
0.999751
0.999862
0.999917
0.999947
0.999967
0.99998
0.999988
0.999994
0.999997
0.999998
0.999999
0.999999
0.999998
0.999996
0.999985
0.999947
0.999815
0.999365
0.997819
0.992444
0.973493
0.906744
0.728885
0.543076
0.389146
0.268648
0.179092
0.115514
0.0721982
0.0437818
0.0257822
0.0147552
0.00821017
0.0044441
0.00233989
0.00119916
0.00059696
0.000290514
0.000134088
0.632192
0.59926
0.633105
0.712166
0.745964
0.792917
0.830592
0.84728
0.867781
0.881943
0.889831
0.896666
0.899495
0.900926
0.901599
0.901895
0.90257
0.903471
0.905095
0.90734
0.909419
0.912629
0.915803
0.918363
0.910238
0.892078
0.850893
0.79314
0.730761
0.679024
0.646785
0.627258
0.617964
0.614096
0.613486
0.61653
0.618364
0.613548
0.598391
0.572934
0.552752
0.551631
0.659783
0.761813
0.796899
0.808654
0.813475
0.816594
0.819106
0.817049
0.811559
0.808292
0.805904
0.803548
0.801121
0.798595
0.795483
0.792195
0.788793
0.784762
0.780721
0.775722
0.768618
0.756878
0.74089
0.717667
0.688183
0.657605
0.628898
0.607737
0.592398
0.56289
0.492515
0.382598
0.281393
0.220305
0.189522
0.169738
0.159415
0.155512
0.157355
0.164279
0.18112
0.217035
0.270613
0.392414
0.646403
0.805151
0.87834
0.908225
0.923063
0.935318
0.947356
0.957789
0.966129
0.972535
0.976903
0.977836
0.974392
0.963687
0.943889
0.914085
0.881265
0.859765
0.84798
0.841768
0.840409
0.846737
0.862982
0.880589
0.893185
0.897068
0.891678
0.874705
0.869197
0.88738
0.924741
0.957167
0.981188
0.992955
0.997626
0.999237
0.999731
0.99987
0.999905
0.999905
0.999889
0.999819
0.99957
0.999186
0.998924
0.998781
0.998598
0.998126
0.997463
0.997093
0.997027
0.997183
0.997981
0.998927
0.999467
0.999745
0.999878
0.999939
0.999967
0.999981
0.999989
0.999993
0.999996
0.999998
0.999999
0.999999
1
0.999999
0.999999
0.999997
0.99999
0.999962
0.999863
0.999509
0.998243
0.993693
0.977281
0.918732
0.748026
0.55462
0.395493
0.271686
0.180243
0.115709
0.0719874
0.0434514
0.0254692
0.014506
0.00803369
0.00432672
0.00226804
0.00115509
0.000575108
0.000272401
0.635962
0.60445
0.638947
0.741509
0.798323
0.846575
0.874329
0.887037
0.897214
0.900792
0.901874
0.901979
0.900005
0.896736
0.893401
0.889309
0.886237
0.884787
0.884264
0.885873
0.889712
0.898347
0.912422
0.93005
0.939415
0.949663
0.953661
0.949579
0.924143
0.866225
0.785596
0.705819
0.659233
0.625821
0.604503
0.590521
0.582697
0.577523
0.571065
0.562901
0.559202
0.609882
0.731495
0.786351
0.804533
0.810718
0.81335
0.81532
0.814804
0.807578
0.802323
0.798934
0.796765
0.794807
0.792794
0.790958
0.788804
0.786551
0.784067
0.780918
0.7768
0.770862
0.761662
0.748968
0.733233
0.711444
0.680167
0.65017
0.626087
0.607452
0.593903
0.56737
0.505529
0.399816
0.296703
0.229187
0.193711
0.170753
0.156676
0.152557
0.153613
0.158158
0.169059
0.197619
0.238624
0.29356
0.440254
0.694071
0.829592
0.879323
0.894803
0.905765
0.922927
0.941665
0.957503
0.970073
0.978897
0.984718
0.988411
0.990229
0.989748
0.985857
0.977665
0.969097
0.96252
0.957444
0.951747
0.942923
0.934557
0.933001
0.940716
0.952
0.957146
0.957061
0.948598
0.931876
0.930919
0.949235
0.971894
0.98736
0.995241
0.998393
0.999495
0.999838
0.999934
0.999958
0.99996
0.999952
0.999912
0.999794
0.999679
0.999611
0.999562
0.999466
0.999216
0.998936
0.998786
0.998757
0.998808
0.999109
0.99952
0.99976
0.999886
0.999947
0.999975
0.999988
0.999994
0.999996
0.999998
0.999999
0.999999
1
1
1
1
0.999999
0.999998
0.999991
0.999968
0.999879
0.999552
0.998338
0.993845
0.977357
0.91788
0.743855
0.548148
0.388485
0.265293
0.174994
0.11171
0.0691079
0.0414779
0.0241713
0.0136887
0.00753599
0.00403721
0.00210143
0.00106926
0.00051871
0.638985
0.607574
0.649125
0.779123
0.841639
0.874296
0.890547
0.897324
0.899953
0.900296
0.898005
0.890047
0.881136
0.87533
0.870508
0.868568
0.867616
0.865803
0.864136
0.860579
0.857088
0.85305
0.850235
0.851256
0.880858
0.92185
0.957503
0.972119
0.976889
0.975032
0.954265
0.904645
0.816418
0.744451
0.690295
0.646933
0.61522
0.595187
0.58493
0.586069
0.619653
0.709683
0.771832
0.798889
0.808022
0.810931
0.812624
0.812203
0.804598
0.796446
0.792656
0.790175
0.788005
0.786042
0.784111
0.782173
0.780097
0.777765
0.774694
0.771331
0.765368
0.754572
0.739893
0.72578
0.712852
0.693233
0.67093
0.646152
0.623415
0.606935
0.596317
0.577827
0.536972
0.445632
0.338717
0.258594
0.211202
0.181301
0.163792
0.15637
0.156113
0.158259
0.166432
0.190912
0.231274
0.27442
0.335164
0.505486
0.72858
0.820799
0.840986
0.844436
0.85907
0.888139
0.916601
0.942653
0.964062
0.978824
0.987543
0.992213
0.994781
0.996114
0.996273
0.995402
0.994037
0.992907
0.991944
0.990892
0.988889
0.984855
0.980307
0.979234
0.982493
0.984557
0.984333
0.981586
0.970977
0.964739
0.9695
0.983312
0.992473
0.997138
0.999029
0.999697
0.999908
0.999967
0.999981
0.999982
0.999977
0.999952
0.999912
0.999887
0.999872
0.999852
0.999804
0.999704
0.999623
0.999586
0.999583
0.999605
0.999712
0.999842
0.999919
0.999961
0.999982
0.999991
0.999996
0.999998
0.999999
0.999999
1
1
1
1
1
1
0.999999
0.999998
0.999992
0.999969
0.99988
0.999538
0.998233
0.993293
0.974935
0.908196
0.723488
0.529525
0.372714
0.252825
0.165679
0.105065
0.0645626
0.0384839
0.0222753
0.0125269
0.00685293
0.00364204
0.00189177
0.000938322
0.643662
0.610399
0.644518
0.788365
0.861194
0.884102
0.894111
0.898096
0.899212
0.897148
0.88728
0.87755
0.873312
0.870744
0.869499
0.869064
0.868976
0.869185
0.87111
0.872505
0.871041
0.862184
0.84649
0.823664
0.8143
0.815862
0.866167
0.936723
0.975993
0.98794
0.991142
0.984282
0.955896
0.883785
0.815315
0.76344
0.720352
0.689829
0.673275
0.679974
0.716961
0.761885
0.790845
0.80429
0.809084
0.810703
0.810335
0.805958
0.795928
0.787753
0.7837
0.781614
0.780197
0.778635
0.776921
0.774949
0.772792
0.770154
0.766925
0.763429
0.757516
0.74554
0.726757
0.706536
0.690223
0.671696
0.651681
0.632737
0.618531
0.60539
0.596048
0.585274
0.562733
0.509842
0.415934
0.322123
0.252533
0.210904
0.185683
0.171468
0.170234
0.172832
0.180889
0.20075
0.240434
0.276933
0.318922
0.388077
0.575269
0.735706
0.786597
0.803532
0.81195
0.82317
0.850163
0.88742
0.925083
0.955564
0.975874
0.987645
0.993731
0.996608
0.998006
0.998726
0.99902
0.999063
0.99898
0.998809
0.998625
0.998312
0.997508
0.996495
0.995938
0.995666
0.995427
0.994956
0.993423
0.988131
0.983739
0.984458
0.990799
0.99604
0.998495
0.99949
0.999842
0.999953
0.999984
0.999991
0.999991
0.999987
0.999975
0.999966
0.999961
0.999957
0.999948
0.999927
0.999902
0.999887
0.999884
0.999886
0.999904
0.999942
0.999967
0.999983
0.999991
0.999996
0.999998
0.999999
1
1
1
1
1
1
1
1
1
0.999999
0.999998
0.999992
0.999966
0.999865
0.999468
0.99792
0.991994
0.969856
0.889191
0.691302
0.502612
0.351138
0.236451
0.153805
0.0968038
0.0590283
0.0349183
0.0200543
0.0111984
0.00607314
0.00321803
0.00163022
0.653018
0.614091
0.630561
0.773331
0.85954
0.885607
0.895067
0.897563
0.897438
0.892976
0.883388
0.87656
0.873526
0.870951
0.868428
0.865757
0.864148
0.863852
0.868992
0.875279
0.882262
0.885141
0.88179
0.865595
0.818644
0.796821
0.798822
0.833876
0.928195
0.976628
0.992917
0.996187