/*--------------------------------*- C++ -*----------------------------------*\
  =========                 |
  \\      /  F ield         | OpenFOAM: The Open Source CFD Toolbox
   \\    /   O peration     | Website:  https://openfoam.org
    \\  /    A nd           | Version:  7
     \\/     M anipulation  |
\*---------------------------------------------------------------------------*/
FoamFile
{
    version     2.0;
    format      ascii;
    class       volScalarField;
    location    "0.15";
    object      epsilon;
}
// * * * * * * * * * * * * * * * * * * * * * * * * * * * * * * * * * * * * * //

dimensions      [0 2 -3 0 0 0 0];

internalField   nonuniform List<scalar> 
12225
(
261.514
229.335
202.526
181.49
166.165
155.707
148.933
144.734
142.23
140.785
139.968
139.501
139.213
139.005
138.825
138.638
138.48
139.403
74.4044
97.583
104.477
109.107
114.648
121.074
127.662
133.856
139.378
144.135
148.132
151.433
154.126
156.305
158.066
159.448
160.727
161.4
31.9472
44.3631
51.5596
56.2987
60.154
63.8164
67.4451
71.0008
74.4095
77.6087
80.5547
83.2255
85.6186
87.7453
89.6271
91.283
92.7677
94.029
20.8063
26.6662
31.098
34.3345
36.8363
38.9655
40.9069
42.7358
44.4796
46.144
47.7244
49.2135
50.6055
51.8982
53.0924
54.191
55.2002
56.1091
17.0807
19.8448
22.2847
24.2532
25.8333
27.1488
28.2896
29.3112
30.2484
31.1219
31.9427
32.716
33.4444
34.129
34.7711
35.3716
35.9306
36.4396
15.6188
16.845
18.1012
19.2186
20.1686
20.9747
21.6665
22.27
22.8063
23.2911
23.735
24.1452
24.5265
24.882
25.2138
25.5237
25.8118
26.0719
15.0057
15.4484
16.0093
16.5714
17.0867
17.5428
17.941
18.2878
18.5917
18.8607
19.1013
19.3185
19.516
19.6966
19.8626
20.0153
20.1553
20.2787
14.7446
14.7907
14.9477
15.1533
15.3699
15.578
15.768
15.937
16.0856
16.2158
16.3302
16.4309
16.5201
16.5994
16.6702
16.7334
16.7895
16.8359
14.6329
14.4844
14.4155
14.4004
14.4175
14.4513
14.4909
14.5301
14.5659
14.597
14.623
14.6443
14.6613
14.6743
14.684
14.6906
14.6943
14.6935
14.5847
14.3444
14.156
14.0121
13.9028
13.8189
13.7523
13.6971
13.6494
13.6065
13.5669
13.5295
13.4936
13.4589
13.425
13.3919
13.3593
13.3264
14.5634
14.2814
14.0338
13.8196
13.6355
13.4771
13.3396
13.2186
13.1108
13.0136
12.9249
12.8432
12.7674
12.6965
12.6298
12.5668
12.5071
12.4503
14.5542
14.2552
13.9821
13.7352
13.5137
13.3154
13.1376
12.9774
12.8324
12.7004
12.5794
12.4681
12.365
12.2691
12.1796
12.0958
12.017
11.9433
14.5491
14.2419
13.9563
13.6925
13.4503
13.2287
13.0261
12.8408
12.6709
12.5148
12.371
12.238
12.1147
12.0001
11.8932
11.7932
11.6997
11.6128
14.546
14.2346
13.943
13.6708
13.4177
13.183
12.9656
12.7644
12.5781
12.4055
12.2453
12.0965
11.958
11.8288
11.7081
11.5951
11.4894
11.3916
14.544
14.2306
13.9366
13.6611
13.4033
13.1627
12.9382
12.7289
12.5339
12.352
12.1823
12.0239
11.8757
11.7371
11.6072
11.4854
11.3712
11.2655
14.5428
14.2284
13.9337
13.6572
13.3982
13.1557
12.9287
12.7165
12.5179
12.3322
12.1582
11.9953
11.8425
11.6991
11.5645
11.4379
11.319
11.2089
14.5422
14.2274
13.9327
13.6564
13.3975
13.155
12.9278
12.7152
12.516
12.3293
12.1543
11.9901
11.8359
11.691
11.5547
11.4264
11.3058
11.194
14.5422
14.2277
13.9334
13.6579
13.3998
13.1581
12.9318
12.7198
12.5214
12.3353
12.1609
11.9971
11.8433
11.6986
11.5625
11.4343
11.3138
11.202
14.5433
14.2297
13.9367
13.6624
13.4058
13.1657
12.9411
12.7309
12.5342
12.3499
12.1771
12.015
11.8628
11.7197
11.5851
11.4583
11.3391
11.2285
14.5456
14.2344
13.9436
13.6717
13.4176
13.1802
12.9585
12.7514
12.5578
12.3768
12.2072
12.0484
11.8994
11.7595
11.628
11.5044
11.3882
11.2806
14.5493
14.2418
13.9546
13.6865
13.4365
13.2037
12.9871
12.7854
12.5975
12.4224
12.2589
12.1061
11.9632
11.8294
11.704
11.5862
11.4758
11.3739
14.5555
14.2545
13.9745
13.7145
13.4739
13.2519
13.0472
12.8584
12.6839
12.5224
12.3726
12.2335
12.1041
11.9834
11.8707
11.7654
11.667
11.5762
14.567
14.2806
14.0189
13.7811
13.5664
13.3733
13.1996
13.0424
12.8993
12.7685
12.6483
12.5376
12.4351
12.3398
12.2505
12.1666
12.0877
12.0146
14.5931
14.349
14.1441
13.9723
13.8285
13.7083
13.606
13.5165
13.4361
13.3631
13.2957
13.2321
13.1709
13.1117
13.0541
12.9979
12.9433
12.8913
14.6719
14.5671
14.5334
14.5367
14.5582
14.5881
14.6181
14.6434
14.6615
14.6705
14.6701
14.6614
14.6456
14.6241
14.5979
14.5684
14.5365
14.5042
14.9618
15.3045
15.7118
16.0878
16.4099
16.6789
16.8974
17.0641
17.1859
17.272
17.33
17.3664
17.3869
17.3958
17.3968
17.3927
17.3855
17.3777
16.0826
17.7386
19.068
20.0268
20.7392
21.2728
21.6496
21.9106
22.0916
22.2193
22.3128
22.3859
22.4482
22.5066
22.5656
22.6279
22.6952
22.7684
20.4114
25.6123
28.3433
29.7402
30.594
31.1248
31.4553
31.6805
31.8651
32.0464
32.2449
32.4714
32.7303
33.0219
33.3442
33.6939
34.0673
34.4586
38.6011
49.0461
52.2932
53.1777
53.4519
53.5614
53.7096
54.0128
54.501
55.1598
55.9639
56.8876
57.9062
58.9967
60.1391
61.3168
62.5188
63.7312
159.121
148.102
138.017
128.818
120.586
113.348
107.09
101.756
97.2565
93.4907
90.3593
87.7704
85.642
83.9022
82.4886
81.3481
80.4358
79.7136
0.332114
0.367334
0.602594
0.845822
1.12348
1.44373
1.80245
2.16376
2.52301
2.87454
3.21426
3.53994
3.85087
4.14736
4.43029
4.7008
4.96013
5.20949
5.44997
5.68257
5.90813
6.12737
6.34087
6.54907
6.75231
6.95074
7.14445
7.33337
7.51737
7.69627
7.86983
8.0378
8.19988
8.35565
8.50451
8.64558
8.77775
8.89981
9.01089
9.111
9.20145
9.28449
9.36154
9.42927
9.47245
9.44778
9.23756
9.34191
9.63999
9.64774
9.64307
9.70754
41.3098
41.6042
41.5169
9.7133
9.79369
42.0891
42.0831
9.8835
9.92615
9.97935
10.0162
9.96785
42.8107
10.0439
42.9537
43.2511
44.4541
45.7264
47.0302
48.3576
49.7042
51.0671
52.4441
53.8334
55.2331
56.6416
58.0572
59.4783
60.903
62.3297
63.7568
65.1827
66.6066
68.0281
69.4487
70.8721
72.3063
73.7269
75.131
76.5177
77.8851
79.2311
80.5535
81.8496
83.1172
84.3538
85.5569
86.7242
87.8533
88.9417
89.9872
90.9875
91.9404
92.8438
93.6956
94.4938
95.2365
95.9219
96.5483
97.114
97.6177
98.058
98.4336
98.7436
98.9869
99.163
99.2712
99.3112
99.2827
99.186
99.0211
98.7887
98.4894
98.1242
97.6943
97.2012
96.6466
96.0324
95.361
94.6348
93.8565
93.0292
92.1559
91.2402
90.2857
89.2962
88.2756
87.2279
86.1578
85.0684
83.9664
82.8547
81.7353
80.6227
79.5267
78.5534
78.0916
77.752
77.4136
77.0706
76.7255
76.3818
76.0432
75.7131
75.395
75.0923
74.8083
74.5459
74.3081
74.0975
73.9164
73.7669
73.6506
73.569
73.5227
73.5121
73.5366
73.5948
73.6844
73.801
73.9387
74.088
74.2348
74.3581
74.4451
17.6709
79.0822
76.9809
1.17307
0.71456
0.761346
0.90073
1.08928
1.31604
1.5701
1.83782
2.10859
2.37468
2.6311
2.87515
3.10576
3.32297
3.52753
3.72056
3.90337
4.07733
4.24378
4.40396
4.55902
4.70995
4.85763
5.00278
5.14599
5.28773
5.42838
5.56821
5.70746
5.84634
5.98508
6.12397
6.26336
6.40368
6.54548
6.68934
6.83598
6.98625
7.14136
7.30324
7.4755
7.66522
7.88714
8.17153
8.57544
9.17894
9.96007
9.97067
9.65481
9.96227
10.4921
11.3122
13.0596
13.4955
13.6063
12.8884
13.5145
15.0565
15.2865
14.7011
15.543
16.0783
16.6302
17.3521
18.642
18.5219
20.0102
20.5781
21.1074
21.6568
22.2043
22.7545
23.3082
23.8658
24.4269
24.9913
25.5587
26.1284
26.7001
27.2731
27.8471
28.4214
28.9958
29.57
30.1439
30.718
31.2932
31.8708
32.4582
33.044
33.6246
34.1989
34.7663
35.3258
35.8765
36.4177
36.9484
37.4676
37.9746
38.4685
38.9482
39.4131
39.8621
40.2945
40.7095
41.1062
41.4838
41.8415
42.1787
42.4947
42.7886
43.06
43.3082
43.5326
43.7328
43.9083
44.0586
44.1835
44.2827
44.3559
44.403
44.4239
44.4187
44.3874
44.3302
44.2473
44.1392
44.0063
43.8491
43.6683
43.4647
43.2391
42.9924
42.7257
42.4401
42.1369
41.8173
41.4828
41.1347
40.7745
40.404
40.024
39.6374
39.2453
38.8451
38.45
38.061
37.7016
37.4316
37.2001
36.9789
36.7616
36.5473
36.3364
36.1298
35.9284
35.733
35.5445
35.3639
35.1917
35.0288
34.8756
34.7327
34.6003
34.4786
34.3678
34.2677
34.1781
34.0984
34.0279
33.9656
33.9101
33.8597
33.8121
33.7645
33.7121
33.5832
30.2738
33.6015
34.5862
2.29576
1.18362
1.09413
1.16411
1.29908
1.47419
1.67598
1.89315
2.11601
2.33702
2.55107
2.75518
2.94813
3.12987
3.30111
3.46301
3.61692
3.76426
3.90638
4.04456
4.17994
4.31355
4.44623
4.57874
4.71169
4.84558
4.98085
5.11786
5.25695
5.39845
5.54273
5.69022
5.84144
5.99701
6.15767
6.32422
6.49752
6.6785
6.86813
7.06761
7.27866
7.50403
7.74832
8.01864
8.32327
8.66286
9.00673
9.27067
9.51986
9.85202
10.2254
10.6275
11.065
11.4259
11.7611
12.0745
12.4637
12.8966
13.2689
13.6257
14.0653
14.491
14.9246
15.3786
15.8536
16.2757
16.7715
17.2145
17.6458
18.0773
18.5095
18.9442
19.382
19.823
20.267
20.7138
21.163
21.6144
22.0677
22.5226
22.9788
23.436
23.8943
24.3534
24.8134
25.2745
25.7371
26.2015
26.6666
27.1292
27.5878
28.0416
28.4898
28.9318
29.3669
29.7944
30.2136
30.6238
31.0243
31.4144
31.7935
32.1608
32.5156
32.8574
33.1855
33.4993
33.7981
34.0813
34.3485
34.5991
34.8326
35.0484
35.2461
35.4254
35.5858
35.727
35.8487
35.9506
36.0326
36.0944
36.1361
36.1574
36.1586
36.1395
36.1005
36.0416
35.9632
35.8655
35.7492
35.6146
35.4622
35.2929
35.1072
34.906
34.6901
34.4606
34.2182
33.9641
33.6994
33.4249
33.1424
32.8519
32.556
32.2571
31.9546
31.6528
31.3544
31.0688
30.8123
30.575
30.3472
30.1249
29.9069
29.6933
29.4843
29.2802
29.0815
28.8887
28.7022
28.5223
28.3493
28.1834
28.0247
27.8733
27.7291
27.5921
27.4619
27.3384
27.221
27.1092
27.0023
26.8997
26.8004
26.7038
26.6096
26.5178
26.4114
25.9473
26.3096
26.7354
3.37726
1.63107
1.4052
1.41459
1.50642
1.64227
1.8055
1.98514
2.17261
2.36122
2.54621
2.72464
2.89512
3.05737
3.2119
3.35968
3.50188
3.63978
3.77462
3.90754
4.03958
4.17166
4.30457
4.43898
4.57545
4.71446
4.85643
5.0017
5.15061
5.30348
5.46067
5.62256
5.7896
5.9623
6.14122
6.32696
6.52012
6.72125
6.93089
7.14956
7.37782
7.6164
7.86625
8.12847
8.40369
8.69048
8.9833
9.27454
9.57189
9.88458
10.2074
10.5367
10.8711
11.2041
11.5396
11.88
12.2312
12.5911
12.9537
13.3231
13.7048
14.0913
14.4835
14.8822
15.2858
15.6903
16.1016
16.5103
16.9188
17.3289
17.7414
18.1569
18.576
18.9985
19.4243
19.8532
20.285
20.7194
21.1561
21.5948
22.0353
22.4774
22.9208
23.3654
23.8111
24.2576
24.7048
25.1521
25.5977
26.0403
26.4788
26.9126
27.3409
27.763
28.1781
28.5858
28.9851
29.3755
29.7562
30.1266
30.486
30.8338
31.1692
31.4916
31.8005
32.0953
32.3753
32.64
32.889
33.1216
33.3375
33.5362
33.7173
33.8805
34.0253
34.1515
34.259
34.3474
34.4166
34.4665
34.4971
34.5083
34.5003
34.4731
34.4268
34.3618
34.2783
34.1767
34.0574
33.921
33.768
33.5989
33.4146
33.2157
33.0031
32.7778
32.5405
32.2921
32.0341
31.7663
31.4919
31.2115
30.9263
30.6376
30.3462
30.0543
29.7644
29.4811
29.2106
28.9514
28.6999
28.4541
28.2133
27.9773
27.7463
27.5205
27.3002
27.0859
26.8776
26.6756
26.4801
26.2912
26.1088
25.9331
25.7637
25.6007
25.4437
25.2925
25.1467
25.0058
24.8695
24.7373
24.6089
24.4844
24.3647
24.2524
24.1489
24.0138
24.0601
24.2721
4.27152
2.0012
1.66454
1.62369
1.68007
1.78437
1.91708
2.06716
2.2268
2.39016
2.55303
2.71268
2.86764
3.01743
3.1623
3.30293
3.44025
3.57531
3.70914
3.84274
3.97699
4.1127
4.25054
4.39111
4.5349
4.68233
4.83377
4.98951
5.14984
5.31503
5.48536
5.6611
5.84258
6.03013
6.22411
6.42489
6.63278
6.8481
7.07109
7.30193
7.54078
7.78778
8.04305
8.30665
8.57847
8.85805
9.14452
9.43698
9.73605
10.0424
10.3552
10.6737
10.9979
11.3275
11.6629
12.0048
12.3538
12.7098
13.0725
13.4423
13.8192
14.2025
14.5918
14.9869
15.3872
15.7924
16.2022
16.6156
17.0327
17.4535
17.8782
18.3072
18.7404
19.1778
19.6191
20.0642
20.5128
20.9646
21.4192
21.8764
22.3358
22.7972
23.2602
23.7244
24.1896
24.6553
25.1211
25.5855
26.0474
26.5056
26.9595
27.4081
27.8507
28.2866
28.7149
29.135
29.5461
29.9473
30.3381
30.7175
31.085
31.4398
31.7811
32.1084
32.4211
32.7184
32.9998
33.2647
33.5127
33.7432
33.9558
34.1501
34.3256
34.482
34.6191
34.7366
34.8343
34.912
34.9697
35.0072
35.0246
35.022
34.9994
34.9571
34.8952
34.8141
34.7141
34.5956
34.4591
34.3053
34.1346
33.9478
33.7456
33.5289
33.2981
33.0548
32.7997
32.5328
32.2576
31.9738
31.6831
31.3865
31.085
30.78
30.4724
30.1639
29.8564
29.5527
29.2559
28.9665
28.6834
28.4058
28.1335
27.8665
27.6048
27.3488
27.0988
26.8549
26.6173
26.3864
26.162
25.9444
25.7334
25.529
25.3312
25.1396
24.9542
24.7746
24.6006
24.4318
24.2679
24.1088
23.9545
23.8057
23.6639
23.5331
23.42
23.3298
23.3189
23.4307
4.94391
2.29088
1.86754
1.78605
1.81367
1.89268
2.00121
2.12794
2.26559
2.409
2.55449
2.69961
2.84291
2.98378
3.12225
3.25873
3.3939
3.52858
3.66359
3.79975
3.93782
4.07847
4.22228
4.36975
4.52132
4.67735
4.83812
5.00391
5.17493
5.35139
5.53348
5.7214
5.91535
6.11552
6.32214
6.5354
6.75547
6.98251
7.21663
7.45791
7.7064
7.96213
8.22511
8.4953
8.77266
9.05706
9.34839
9.64651
9.95143
10.2632
10.5817
10.9069
11.239
11.5779
11.924
12.2774
12.6383
13.0069
13.3831
13.7669
14.1581
14.5567
14.9622
15.3746
15.7936
16.219
16.6506
17.0881
17.5312
17.98
18.4342
18.8938
19.3588
19.8289
20.3038
20.7834
21.2672
21.7549
22.2461
22.7405
23.2376
23.737
24.2382
24.7408
25.2442
25.748
26.251
26.7516
27.249
27.7421
28.2301
28.7122
29.1874
29.6549
30.1138
30.5633
31.0024
31.4304
31.8464
32.2496
32.6391
33.0142
33.3742
33.7182
34.0456
34.3557
34.648
34.9217
35.1765
35.4118
35.627
35.8219
35.9961
36.1492
36.2809
36.3912
36.4797
36.5465
36.5915
36.6147
36.6161
36.596
36.5545
36.4918
36.4083
36.3045
36.1806
36.0372
35.8749
35.6945
35.4964
35.2814
35.0506
34.8048
34.5441
34.2709
33.9862
33.6906
33.3857
33.0724
32.752
32.4255
32.0942
31.7592
31.4218
31.0832
30.745
30.4093
30.0781
29.7521
29.4317
29.1166
28.807
28.503
28.2049
27.9129
27.6274
27.3485
27.0765
26.8115
26.5536
26.3028
26.0591
25.8224
25.5927
25.3696
25.1531
24.943
24.7388
24.5406
24.348
24.1612
23.9804
23.8066
23.642
23.4909
23.3612
23.2651
23.2254
23.2732
5.43531
2.50881
2.0181
1.9039
1.90828
1.96711
2.05655
2.16494
2.2853
2.41296
2.54468
2.67826
2.81235
2.94629
3.07994
3.21351
3.34748
3.48245
3.61907
3.758
3.89986
4.04523
4.19459
4.34839
4.50699
4.6707
4.83977
5.01442
5.19483
5.38114
5.5735
5.77205
5.97689
6.18816
6.40599
6.63047
6.86173
7.09984
7.34488
7.59692
7.85602
8.12221
8.39554
8.67606
8.96381
9.25883
9.56119
9.87095
10.1882
10.513
10.8455
11.1859
11.5342
11.8907
12.2555
12.6287
13.0105
13.4011
13.8004
14.2085
14.6252
15.0506
15.4843
15.9264
16.3767
16.835
17.3012
17.775
18.2563
18.7449
19.2404
19.7428
20.2517
20.7669
21.288
21.8148
22.3467
22.8834
23.4243
23.969
24.517
25.0676
25.6204
26.1746
26.7296
27.2848
27.838
28.3881
28.9341
29.4751
30.01
30.5379
31.0578
31.5687
32.0695
32.5593
33.0371
33.5018
33.9526
34.3886
34.8087
35.212
35.5979
35.9653
36.3137
36.6421
36.9501
37.2369
37.502
37.7449
37.9652
38.1624
38.3361
38.4862
38.6123
38.7144
38.7923
38.846
38.8756
38.8811
38.8628
38.8209
38.7556
38.6674
38.5566
38.4238
38.2696
38.0945
37.899
37.6844
37.4514
37.2
36.9322
36.6493
36.3517
36.0409
35.7181
35.3843
35.0409
34.6889
34.3296
33.9642
33.5939
33.22
32.8437
32.4661
32.0889
31.7134
31.3413
30.9736
30.6109
30.2536
29.902
29.5564
29.2173
28.8848
28.5593
28.2411
27.9304
27.6272
27.3318
27.044
26.764
26.4916
26.2266
25.9691
25.7187
25.4753
25.2386
25.0086
24.7853
24.5687
24.3594
24.1586
23.9688
23.7945
23.6432
23.5267
23.4576
23.4538
5.76628
2.66271
2.12207
1.98212
1.96789
2.01063
2.085
2.17897
2.28574
2.40094
2.52166
2.64593
2.7725
2.90071
3.03032
3.16141
3.2943
3.42943
3.56731
3.70848
3.85345
4.0027
4.15667
4.31574
4.48024
4.65043
4.82654
5.00877
5.19726
5.39214
5.59353
5.80152
6.01619
6.23765
6.46596
6.70123
6.94352
7.19291
7.4495
7.71336
7.98458
8.26327
8.54953
8.84348
9.14526
9.45502
9.77292
10.0991
10.4338
10.7772
11.1295
11.4909
11.8615
12.2417
12.6316
13.0313
13.441
13.8609
14.2911
14.7314
15.1821
15.6429
16.1139
16.595
17.086
17.5867
18.0972
18.617
19.1461
19.6841
20.2307
20.7856
21.3485
21.9189
22.4966
23.0809
23.6715
24.2678
24.8691
25.4749
26.0845
26.6972
27.3124
27.9291
28.5466
29.1634
29.7771
30.3869
30.9917
31.5903
32.1817
32.7647
33.3381
33.9008
34.4516
34.9894
35.5129
36.0212
36.5131
36.9876
37.4435
37.88
38.296
38.6906
39.063
39.4124
39.7381
40.0395
40.3159
40.5669
40.7919
40.9908
41.1629
41.3083
41.4266
41.5178
41.5819
41.619
41.6292
41.6127
41.5698
41.5009
41.4065
41.2869
41.1426
40.9746
40.7836
40.5701
40.3344
40.0787
39.8037
39.5101
39.1991
38.8722
38.5302
38.1745
37.8064
37.427
37.0377
36.6397
36.2343
35.8229
35.4067
34.9869
34.5648
34.1417
33.7189
33.2977
32.8795
32.4655
32.0563
31.6527
31.2552
30.8642
30.4801
30.1033
29.7341
29.3729
29.0198
28.675
28.3386
28.0106
27.6909
27.3796
27.0766
26.7815
26.4944
26.215
25.9433
25.679
25.4223
25.1735
24.9333
24.703
24.4851
24.2841
24.1067
23.963
23.8604
23.8095
5.95716
2.76069
2.18593
2.02648
1.99756
2.02749
2.08988
2.17243
2.26841
2.37365
2.48547
2.60206
2.7223
2.84552
2.97146
3.10012
3.2317
3.36654
3.50504
3.64765
3.79481
3.94695
4.10444
4.26765
4.43688
4.61237
4.79436
4.98302
5.17851
5.38095
5.59044
5.80709
6.03098
6.26218
6.50079
6.7469
7.00058
7.26195
7.53111
7.80818
8.0933
8.38663
8.68835
8.99863
9.31771
9.64579
9.98313
10.33
10.6866
11.0533
11.4302
11.8178
12.2162
12.6256
13.0464
13.4787
13.9227
14.3786
14.8465
15.3264
15.8185
16.3226
16.8388
17.3669
17.907
18.4587
19.0219
19.5964
20.182
20.7782
21.3847
22.0012
22.6271
23.262
23.9054
24.5568
25.2154
25.8806
26.5518
27.2282
27.9089
28.5932
29.2801
29.9687
30.658
31.3445
32.0272
32.7048
33.3763
34.0401
34.6952
35.34
35.9734
36.5939
37.2002
37.791
38.3651
38.9211
39.4578
39.9739
40.4685
40.9402
41.3881
41.8111
42.2083
42.5788
42.922
43.2371
43.5235
43.7808
44.0086
44.2064
44.374
44.5111
44.6177
44.6938
44.7396
44.7551
44.7407
44.6966
44.6234
44.5216
44.3918
44.2345
44.05
43.8402
43.6057
43.3473
43.0659
42.7629
42.4396
42.0968
41.7359
41.3583
40.9652
40.558
40.138
39.7065
39.2651
38.8149
38.3575
37.8941
37.4261
36.9548
36.4815
36.0075
35.534
35.0624
34.5938
34.1295
33.6702
33.2168
32.77
32.3302
31.8979
31.4736
31.0577
30.6504
30.2519
29.8625
29.4821
29.111
28.7489
28.396
28.052
27.7168
27.3903
27.0724
26.7629
26.4618
26.1693
25.8857
25.6118
25.349
25.1
24.8686
24.6609
24.4852
24.3456
24.2486
6.02772
2.8108
2.21615
2.04283
2.0026
2.02234
2.07513
2.1485
2.23576
2.33288
2.43733
2.54745
2.66218
2.7809
2.90334
3.02945
3.15938
3.29339
3.43182
3.57507
3.72353
3.87759
4.03762
4.20395
4.3769
4.55672
4.74364
4.93787
5.13957
5.34889
5.56596
5.7909
6.02381
6.26479
6.51396
6.77143
7.03732
7.31177
7.59493
7.88697
8.18808
8.49848
8.8184
9.14809
9.48785
9.83796
10.1987
10.5705
10.9536
11.3483
11.7551
12.1741
12.6057
13.0503
13.5081
13.9793
14.4642
14.9629
15.4757
16.0026
16.5436
17.0988
17.6681
18.2515
18.8488
19.4599
20.0844
20.7221
21.3728
22.0359
22.7111
23.3978
24.0955
24.8037
25.5216
26.2487
26.9841
27.7271
28.4768
29.2323
29.9927
30.7569
31.5239
32.2926
33.0599
33.8232
34.5814
35.3332
36.077
36.8115
37.5351
38.2462
38.9435
39.6253
40.2901
40.9365
41.563
42.1682
42.7506
43.309
43.8422
44.3488
44.8277
45.2778
45.6979
46.0873
46.4452
46.7709
47.0638
47.3236
47.5497
47.7419
47.9
48.0237
48.1131
48.1683
48.1897
48.1774
48.132
48.0536
47.9433
47.8018
47.6298
47.4281
47.1975
46.9395
46.655
46.3451
46.0111
45.6542
45.2759
44.8775
44.4602
44.0257
43.5753
43.1105
42.6328
42.1436
41.6445
41.1369
40.6222
40.1018
39.5773
39.0498
38.5209
37.9917
37.4635
36.9376
36.4151
35.8972
35.3849
34.8789
34.38
33.8888
33.4058
32.9315
32.4663
32.0104
31.5641
31.1276
30.701
30.2842
29.8774
29.4804
29.0931
28.7155
28.3472
27.9884
27.6387
27.2984
26.9675
26.6465
26.3363
26.0382
25.7548
25.4897
25.2479
25.0361
24.8563
24.7129
5.9968
2.82068
2.21879
2.03668
1.98807
1.9998
2.04483
2.11069
2.19075
2.28111
2.37932
2.48384
2.59367
2.70824
2.82727
2.95072
3.07869
3.21142
3.34923
3.49246
3.6415
3.79674
3.95854
4.12726
4.30321
4.4867
4.67799
4.87731
5.08487
5.30087
5.52547
5.75884
6.00112
6.25247
6.51305
6.783
7.06252
7.35178
7.65099
7.96037
8.28018
8.6107
8.95221
9.30504
9.66954
10.0461
10.435
10.8367
11.2516
11.68
12.1224
12.5792
13.0506
13.5371
14.0389
14.5563
15.0896
15.639
16.2046
16.7867
17.3851
17.9999
18.6312
19.2786
19.9421
20.6214
21.3162
22.0262
22.7509
23.4899
24.2426
25.0084
25.7867
26.5767
27.3777
28.1888
29.0093
29.838
30.6741
31.5165
32.364
33.2154
34.0694
34.9239
35.774
36.6188
37.4567
38.2864
39.1059
39.9136
40.7078
41.4868
42.2489
42.9924
43.7156
44.4169
45.0946
45.7473
46.3733
46.9713
47.5399
48.0779
48.584
49.0568
49.4951
49.8982
50.2653
50.5958
50.8892
51.1451
51.363
51.5429
51.6846
51.7877
51.8525
51.8794
51.8689
51.8214
51.7375
51.6178
51.4633
51.2749
51.0536
50.8004
50.5165
50.2033
49.8619
49.4938
49.1004
48.6831
48.2436
47.7832
47.3036
46.8064
46.2931
45.7654
45.2248
44.673
44.1116
43.5419
42.9657
42.3844
41.7995
41.2123
40.6242
40.0366
39.4506
38.8676
38.2886
37.7149
37.1472
36.5866
36.0337
35.4892
34.9536
34.4275
33.9111
33.4049
32.909
32.4236
31.9489
31.4848
31.0313
30.5883
30.1559
29.7337
29.3218
28.9199
28.5281
28.1463
27.7748
27.414
27.0649
26.7288
26.408
26.1058
25.8264
25.5752
25.3525
25.1618
5.88209
2.79739
2.19933
2.01301
1.95864
1.96419
2.00296
2.06262
2.13665
2.22126
2.31412
2.41373
2.51919
2.62994
2.74574
2.86653
2.99244
3.12368
3.26055
3.40343
3.55269
3.70874
3.87198
4.04278
4.22152
4.40855
4.60418
4.80871
5.02241
5.24554
5.47834
5.72104
5.97385
6.23699
6.5107
6.79519
7.0907
7.3975
7.71585
8.04604
8.38841
8.74328
9.11101
9.492
9.88665
10.2954
10.7186
11.1568
11.6104
12.0798
12.5655
13.0679
13.5873
14.1241
14.6788
15.2515
15.8425
16.452
17.0802
17.7272
18.393
19.0775
19.7808
20.5024
21.2423
21.9999
22.7749
23.5669
24.3753
25.1996
26.039
26.8929
27.7604
28.6407
29.5329
30.436
31.3489
32.2706
33.1999
34.1355
35.0761
36.0203
36.9663
37.9076
38.8428
39.7707
40.6895
41.5977
42.4926
43.3726
44.2357
45.0802
45.9042
46.7058
47.4833
48.2347
48.9585
49.6528
50.3162
50.9471
51.5442
52.1061
52.632
53.1196
53.5678
53.976
54.3437
54.6701
54.955
55.1978
55.3984
55.5566
55.6725
55.746
55.7776
55.7676
55.7167
55.6255
55.4948
55.3255
55.1187
54.8756
54.5973
54.2851
53.9404
53.5647
53.1596
52.7266
52.2673
51.7834
51.2767
50.7488
50.2015
49.6365
49.0555
48.4604
47.8528
47.2344
46.6069
45.9719
45.331
44.6858
44.0378
43.3883
42.7389
42.0907
41.445
40.8032
40.1661
39.5351
38.9109
38.2945
37.6865
37.0877
36.4986
35.9197
35.3513
34.7937
34.2472
33.7119
33.1879
32.6752
32.1738
31.6837
31.2047
30.7366
30.2794
29.8329
29.3972
28.9722
28.5581
28.1555
27.7653
27.3887
27.0278
26.6856
26.3655
26.0719
25.8039
25.5647
5.70004
2.74728
2.16261
1.97619
1.91844
1.91949
1.9533
2.00789
2.0769
2.15669
2.245
2.34043
2.44211
2.54954
2.66251
2.78097
2.90506
3.03501
3.17115
3.31386
3.46355
3.62068
3.78567
3.95899
4.14107
4.33232
4.53315
4.74395
4.96507
5.19686
5.43966
5.69378
5.95955
6.23727
6.52726
6.82983
7.14532
7.47406
7.81642
8.17276
8.54348
8.92899
9.32972
9.74612
10.1786
10.6278
11.094
11.5778
12.0796
12.5999
13.1392
13.6979
14.2763
14.8748
15.4938
16.1336
16.7942
17.4759
18.1789
18.903
19.6483
20.4147
21.202
22.0099
22.8378
23.6852
24.5515
25.4363
26.3388
27.2582
28.1938
29.1446
30.1098
31.0882
32.0787
33.0804
34.0919
35.112
36.1394
37.1726
38.2101
39.25
40.2842
41.3113
42.3298
43.3379
44.334
45.3169
46.2821
47.2282
48.1534
49.0558
49.9335
50.7843
51.6065
52.3982
53.1575
53.8827
54.5722
55.2244
55.8379
56.4114
56.9437
57.4333
57.8791
58.2804
58.6366
58.9471
59.2115
59.4296
59.6013
59.7266
59.8056
59.8387
59.8262
59.7689
59.6674
59.5227
59.3357
59.1077
58.8398
58.5334
58.1899
57.8109
57.398
56.9529
56.4773
55.9731
55.4421
54.8861
54.307
53.7068
53.0874
52.4505
51.7983
51.1324
50.4547
49.767
49.0711
48.3687
47.6613
46.9506
46.2382
45.5254
44.8136
44.1041
43.3983
42.6971
42.0018
41.3133
40.6325
39.9603
39.2974
38.6443
38.0018
37.37
36.7496
36.1406
35.5433
34.9579
34.3844
33.8228
33.2731
32.7351
32.2089
31.6941
31.1907
30.6986
30.2177
29.7482
29.2901
28.8441
28.4108
27.9917
27.5885
27.2038
26.8404
26.502
26.1868
25.898
5.46569
2.67602
2.11282
1.93003
1.87116
1.86933
1.89952
1.95021
2.0153
2.09129
2.17605
2.26826
2.3671
2.47213
2.58315
2.70018
2.82336
2.95297
3.08938
3.233
3.38429
3.54377
3.71197
3.88942
4.07664
4.27417
4.48252
4.70219
4.93366
5.17741
5.43389
5.70356
5.98685
6.2842
6.59604
6.92282
7.26496
7.62292
7.99715
8.38812
8.7963
9.22218
9.66626
10.129
10.611
11.1127
11.6346
12.1772
12.741
13.3264
13.9338
14.5637
15.2163
15.892
16.5909
17.3133
18.0593
18.8289
19.622
20.4386
21.2785
22.1414
23.0272
23.9356
24.8651
25.815
26.7846
27.7734
28.7804
29.8047
30.8452
31.9009
32.9707
34.0532
35.1474
36.2518
37.3652
38.486
39.6132
40.7448
41.8776
43.003
44.1196
45.2254
46.3188
47.3976
48.4601
49.5039
50.5264
51.5255
52.499
53.4449
54.3611
55.2457
56.0967
56.9122
57.6904
58.4296
59.1282
59.7846
60.3974
60.9654
61.4873
61.9621
62.3887
62.7665
63.0949
63.3735
63.602
63.7802
63.9083
63.9864
64.0149
63.9942
63.925
63.8081
63.6445
63.4352
63.1815
62.8846
62.5462
62.1678
61.7509
61.2975
60.8093
60.2882
59.7362
59.1553
58.5476
57.915
57.2597
56.5837
55.8891
55.178
54.4522
53.7138
52.9647
52.2067
51.4417
50.6714
49.8975
49.1215
48.345
47.5695
46.7961
46.0263
45.2613
44.502
43.7496
43.0049
42.269
41.5424
40.8259
40.12
39.4253
38.7421
38.0707
37.4114
36.7643
36.1296
35.5073
34.8973
34.2996
33.7141
33.1407
32.5792
32.0294
31.4913
30.9648
30.4499
29.947
29.4564
28.9789
28.5157
28.0684
27.6393
27.2307
26.8456
26.4818
26.1423
5.1941
2.58948
2.05396
1.87804
1.82026
1.81731
1.84546
1.89374
1.95639
2.0301
2.11287
2.20346
2.30113
2.4055
2.51641
2.63393
2.75827
2.88975
3.02884
3.17599
3.33169
3.49659
3.67131
3.85653
4.05292
4.26113
4.48184
4.7157
4.96336
5.22547
5.50264
5.7955
6.10465
6.43069
6.7742
7.13577
7.51598
7.91539
8.33458
8.77409
9.2345
9.71634
10.2202
10.7465
11.2958
11.8686
12.4654
13.0866
13.7326
14.4037
15.1002
15.8225
16.5705
17.3446
18.1446
18.9706
19.8225
20.7
21.603
22.5309
23.4834
24.4599
25.4598
26.4824
27.5266
28.5913
29.6756
30.7785
31.8987
33.0353
34.1868
35.352
36.5295
37.7181
38.9162
40.1226
41.3358
42.5539
43.7767
44.9958
46.2051
47.4028
48.5868
49.7552
50.906
52.037
53.146
54.231
55.2895
56.3193
57.3182
58.2843
59.2154
60.1097
60.9652
61.7801
62.5528
63.2815
63.9647
64.6012
65.1895
65.7285
66.2172
66.6547
67.0401
67.3729
67.6527
67.8792
68.0523
68.172
68.2387
68.2525
68.2142
68.1244
67.9839
67.7938
67.5551
67.2692
66.9376
66.5618
66.1434
65.6843
65.1863
64.6514
64.0816
63.479
62.8458
62.1841
61.4962
60.7843
60.0505
59.2972
58.5263
57.7402
56.9408
56.1302
55.3105
54.4833
53.6507
52.8144
51.9759
51.137
50.2989
49.4633
48.6312
47.804
46.9827
46.1684
45.362
44.5644
43.7763
42.9984
42.2313
41.4755
40.7314
39.9994
39.2796
38.5723
37.8777
37.1957
36.5264
35.8697
35.2255
34.5937
33.9741
33.3667
32.7711
32.1874
31.6155
31.0554
30.5074
29.9718
29.4494
28.9412
28.4488
27.974
27.5189
27.0859
26.6725
26.2819
4.91683
2.4976
1.98997
1.82266
1.76802
1.76608
1.79438
1.84257
1.90524
1.97927
2.06283
2.15478
2.25449
2.36162
2.47613
2.59814
2.72793
2.86593
3.01266
3.16872
3.3348
3.51165
3.70007
3.90089
4.11497
4.34318
4.5864
4.8455
5.12137
5.41487
5.72686
6.05816
6.40961
6.78201
7.17612
7.5927
8.03248
8.49614
8.98436
9.49775
10.0369
10.6024
11.1947
11.8143
12.4615
13.1368
13.8404
14.5725
15.3334
16.1229
16.9413
17.7884
18.664
19.5679
20.4997
21.4591
22.4455
23.4584
24.4969
25.5605
26.6482
27.759
28.892
30.046
31.2198
32.412
33.6214
34.8466
36.0862
37.3388
38.6029
39.8772
41.16
42.4499
43.7459
45.0456
46.3498
47.6515
48.9413
50.2175
51.478
52.7207
53.9434
55.1442
56.3209
57.4715
58.5938
59.6858
60.7453
61.7703
62.7588
63.7089
64.6187
65.4863
66.3102
67.0886
67.8201
68.5032
69.1367
69.7193
70.2499
70.7276
71.1515
71.5211
71.8356
72.0948
72.2984
72.4464
72.5389
72.576
72.5583
72.4863
72.3608
72.1826
71.9528
71.6727
71.3435
70.9668
70.5441
70.0773
69.5681
69.0187
68.4309
67.8069
67.149
66.4594
65.7404
64.9942
64.2233
63.43
62.6165
61.7851
60.9381
60.0777
59.206
58.3251
57.4369
56.5433
55.6462
54.7471
53.8478
52.9498
52.0543
51.1628
50.2764
49.3963
48.5233
47.6585
46.8027
45.9565
45.1207
44.2958
43.4823
42.6805
41.8909
41.1137
40.3491
39.5971
38.8579
38.1314
37.4177
36.7166
36.028
35.3518
34.6877
34.0358
33.3957
32.7674
32.1508
31.5459
30.9531
30.3726
29.8051
29.2517
28.7136
28.1926
27.6902
27.2088
26.7455
26.3039
4.66189
2.40707
1.92883
1.77256
1.72399
1.72645
1.7587
1.81097
1.87819
1.95747
2.04714
2.14622
2.25419
2.37084
2.49626
2.63069
2.77457
2.92847
3.09309
3.26924
3.45782
3.6598
3.87624
4.10822
4.35688
4.62338
4.90889
5.21461
5.54169
5.89131
6.26459
6.66264
7.08651
7.53721
8.01568
8.5228
9.05938
9.62614
10.2237
10.8526
11.5134
12.2063
12.9316
13.6894
14.4799
15.3028
16.1582
17.0455
17.9646
18.9149
19.8958
20.9067
21.9468
23.0153
24.1111
25.2334
26.381
27.5527
28.7474
29.9638
31.2006
32.4563
33.7296
35.0189
36.3228
37.6397
38.9681
40.3063
41.653
43.0065
44.3653
45.7282
47.0934
48.4589
49.8269
51.1882
52.5336
53.8614
55.1697
56.4568
57.7206
58.9592
60.1707
61.3532
62.5049
63.6237
64.708
65.7559
66.7656
67.7353
68.6634
69.5481
70.388
71.1815
71.9272
72.6238
73.27
73.8648
74.407
74.8957
75.3302
75.7097
76.0336
76.3015
76.5132
76.6685
76.7673
76.8098
76.7964
76.7275
76.6037
76.4257
76.1946
75.9113
75.5772
75.1935
74.7619
74.2839
73.7613
73.196
72.59
71.9454
71.2644
70.5492
69.8021
69.0255
68.2217
67.3931
66.5421
65.6711
64.7824
63.8784
62.9612
62.0331
61.0961
60.1523
59.2036
58.2518
57.2986
56.3456
55.3944
54.4462
53.5025
52.5643
51.6327
50.7086
49.793
48.8865
47.9899
47.1037
46.2284
45.3645
44.5123
43.6722
42.8443
42.0287
41.2257
40.4353
39.6574
38.892
38.139
37.3983
36.6698
35.9533
35.2486
34.5556
33.8741
33.204
32.5452
31.8978
31.262
30.6382
30.027
29.4294
28.8464
28.2797
27.7307
27.2013
26.6887
26.197
4.43212
2.31771
1.87169
1.73095
1.69369
1.70639
1.74902
1.81238
1.89174
1.98448
2.08915
2.20498
2.33166
2.46923
2.61798
2.7784
2.95118
3.13717
3.33737
3.55288
3.78494
4.03487
4.30408
4.59402
4.90621
5.24219
5.60348
5.99162
6.4081
6.85437
7.33179
7.84164
8.38511
8.96323
9.57692
10.2269
10.9139
11.6381
12.4
13.1995
14.0367
14.9111
15.8223
16.7698
17.7529
18.7705
19.8217
20.9053
22.02
23.1647
24.3377
25.5378
26.7632
28.0125
29.2839
30.576
31.887
33.2153
34.5592
35.917
37.2871
38.6679
40.0577
41.4549
42.8579
44.2653
45.6754
47.0867
48.4982
49.9082
51.3147
52.7189
54.1177
55.5032
56.8656
58.2063
59.5231
60.8144
62.0785
63.3138
64.5187
65.6916
66.8309
67.9352
69.0029
70.0324
71.0224
71.9714
72.878
73.7408
74.5584
75.3297
76.0533
76.7281
77.3531
77.9271
78.4494
78.919
79.3351
79.6972
80.0047
80.2571
80.4541
80.5956
80.6814
80.7116
80.6864
80.6061
80.4713
80.2825
80.0406
79.7464
79.4011
79.0058
78.5619