/*--------------------------------*- C++ -*----------------------------------*\
  =========                 |
  \\      /  F ield         | OpenFOAM: The Open Source CFD Toolbox
   \\    /   O peration     | Website:  https://openfoam.org
    \\  /    A nd           | Version:  7
     \\/     M anipulation  |
\*---------------------------------------------------------------------------*/
FoamFile
{
    version     2.0;
    format      ascii;
    class       volScalarField;
    location    "0.15";
    object      p;
}
// * * * * * * * * * * * * * * * * * * * * * * * * * * * * * * * * * * * * * //

dimensions      [0 2 -2 0 0 0 0];

internalField   nonuniform List<scalar> 
12225
(
-2.40258
-1.80639
-1.74178
-1.79209
-1.72732
-1.62544
-1.54998
-1.49959
-1.46026
-1.42794
-1.40312
-1.38525
-1.37286
-1.36471
-1.36011
-1.35808
-1.35985
-1.35679
-3.75539
-2.51885
-1.98769
-1.84773
-1.73379
-1.61963
-1.54051
-1.48932
-1.45047
-1.41906
-1.39513
-1.37803
-1.36629
-1.3587
-1.35458
-1.35318
-1.35482
-1.35827
-3.5123
-2.33051
-1.87437
-1.78537
-1.70179
-1.60197
-1.52822
-1.47931
-1.44208
-1.41204
-1.38916
-1.37282
-1.36166
-1.35453
-1.3508
-1.34985
-1.35198
-1.357
-3.06729
-2.22009
-1.85278
-1.76943
-1.68783
-1.5919
-1.51994
-1.47176
-1.43538
-1.40627
-1.38417
-1.3684
-1.35766
-1.35089
-1.34744
-1.34685
-1.34904
-1.35452
-2.77257
-2.19653
-1.86314
-1.75793
-1.67194
-1.57987
-1.51012
-1.46278
-1.42729
-1.39921
-1.37798
-1.36287
-1.35265
-1.34632
-1.34322
-1.34295
-1.3451
-1.35042
-2.5659
-2.16082
-1.8545
-1.73593
-1.65102
-1.56507
-1.49844
-1.45233
-1.41796
-1.39106
-1.37082
-1.35647
-1.34686
-1.34102
-1.33829
-1.33828
-1.34042
-1.34539
-2.38849
-2.09837
-1.82981
-1.70851
-1.62705
-1.5477
-1.48465
-1.44019
-1.40723
-1.38169
-1.36259
-1.34912
-1.34019
-1.33489
-1.33257
-1.33281
-1.33497
-1.33964
-2.22809
-2.02223
-1.7962
-1.6776
-1.59982
-1.52708
-1.46814
-1.42583
-1.3946
-1.37066
-1.35287
-1.34042
-1.33229
-1.32763
-1.32578
-1.32632
-1.32859
-1.33305
-2.08343
-1.93939
-1.75436
-1.64216
-1.56858
-1.50264
-1.4484
-1.40876
-1.3796
-1.35752
-1.34126
-1.33001
-1.32284
-1.31893
-1.31766
-1.31857
-1.32105
-1.32545
-1.95191
-1.85188
-1.70377
-1.60129
-1.53292
-1.47395
-1.42496
-1.38854
-1.36184
-1.3419
-1.32741
-1.31757
-1.31152
-1.30851
-1.30793
-1.30933
-1.31213
-1.31665
-1.83014
-1.76088
-1.64484
-1.55461
-1.49255
-1.44069
-1.39741
-1.36477
-1.34094
-1.32345
-1.31099
-1.30278
-1.29806
-1.29611
-1.29637
-1.2984
-1.30167
-1.30646
-1.7246
-1.67497
-1.58389
-1.50624
-1.45094
-1.40572
-1.36807
-1.33941
-1.31861
-1.30367
-1.29334
-1.28686
-1.28355
-1.28275
-1.28392
-1.28668
-1.29051
-1.29572
-1.62418
-1.58837
-1.51842
-1.45351
-1.40548
-1.367
-1.33522
-1.31092
-1.29349
-1.28136
-1.27339
-1.26885
-1.26713
-1.26763
-1.26988
-1.27349
-1.27803
-1.28376
-1.51262
-1.48799
-1.43769
-1.38704
-1.348
-1.31742
-1.29264
-1.27383
-1.26071
-1.25218
-1.24725
-1.24523
-1.24559
-1.24783
-1.25151
-1.2563
-1.26183
-1.2683
-1.38776
-1.37206
-1.3391
-1.30363
-1.27543
-1.25407
-1.23754
-1.22554
-1.21794
-1.21402
-1.21299
-1.21426
-1.21736
-1.2219
-1.22751
-1.23391
-1.24081
-1.24838
-1.24617
-1.23762
-1.21957
-1.1996
-1.18402
-1.17342
-1.16655
-1.16289
-1.16227
-1.16425
-1.16824
-1.17378
-1.1805
-1.18809
-1.1963
-1.20491
-1.2137
-1.22283
-1.08214
-1.07954
-1.07463
-1.07032
-1.06911
-1.07118
-1.07571
-1.08218
-1.09032
-1.09981
-1.11024
-1.12131
-1.13276
-1.14441
-1.15608
-1.16766
-1.17901
-1.1903
-0.885904
-0.888927
-0.896784
-0.909137
-0.924599
-0.941914
-0.960273
-0.979204
-0.998356
-1.01741
-1.03613
-1.05434
-1.07196
-1.08891
-1.10516
-1.12069
-1.13546
-1.14967
-0.639477
-0.64969
-0.6732
-0.706144
-0.742578
-0.779168
-0.814972
-0.849663
-0.882816
-0.914084
-0.943365
-0.970715
-0.996233
-1.02002
-1.04218
-1.06283
-1.08205
-1.10015
-0.378923
-0.398658
-0.442745
-0.501326
-0.562074
-0.619852
-0.674413
-0.725834
-0.773558
-0.817263
-0.857136
-0.893552
-0.926841
-0.957286
-0.98516
-1.01073
-1.03421
-1.05598
-0.143523
-0.174677
-0.243638
-0.330693
-0.415455
-0.492662
-0.564168
-0.630454
-0.690651
-0.744625
-0.793061
-0.836706
-0.876105
-0.911713
-0.943967
-0.973281
-0.999973
-1.02452
0.096805
0.0481196
-0.0561776
-0.178144
-0.287786
-0.383736
-0.471774
-0.552224
-0.623651
-0.686499
-0.742221
-0.791946
-0.836398
-0.876213
-0.911996
-0.944303
-0.973549
-1.00029
0.347638
0.27108
0.116967
-0.04545
-0.178675
-0.292186
-0.396386
-0.489942
-0.570971
-0.641176
-0.702937
-0.757643
-0.806148
-0.84928
-0.887838
-0.922481
-0.953708
-0.982134
0.61548
0.492932
0.269806
0.0654479
-0.0865943
-0.216487
-0.336772
-0.441989
-0.530675
-0.606709
-0.673348
-0.732018
-0.783666
-0.829338
-0.869999
-0.90641
-0.939132
-0.968815
0.908891
0.7128
0.394677
0.152056
-0.0101314
-0.154742
-0.290827
-0.405983
-0.500462
-0.581015
-0.651531
-0.71328
-0.767302
-0.814872
-0.857104
-0.894828
-0.928658
-0.959264
1.23281
0.936407
0.494483
0.217031
0.0510015
-0.106626
-0.256662
-0.379437
-0.47815
-0.562252
-0.635838
-0.699945
-0.755744
-0.804729
-0.848127
-0.88681
-0.921442
-0.952688
1.56757
1.14688
0.584441
0.280951
0.10375
-0.0714124
-0.233163
-0.36073
-0.462333
-0.549276
-0.625289
-0.69118
-0.748311
-0.79837
-0.842653
-0.882057
-0.917299
-0.949043
1.90461
1.21792
0.622568
0.362146
0.170771
-0.0362857
-0.21318
-0.345612
-0.450175
-0.539976
-0.61819
-0.685515
-0.743614
-0.7944
-0.839243
-0.879059
-0.914634
-0.946672
2.53751
0.998686
0.356263
0.263784
0.145924
-0.0503108
-0.224468
-0.352325
-0.454302
-0.543532
-0.62175
-0.689028
-0.747007
-0.797654
-0.84232
-0.881866
-0.917053
-0.948847
4.93973
2.01421
0.723379
0.448721
0.245464
-0.00302879
-0.202023
-0.34005
-0.446932
-0.539319
-0.619732
-0.688538
-0.747648
-0.7992
-0.844606
-0.88469
-0.92003
-0.950732
-1.51072
-1.51085
-1.51128
-1.51199
-1.51296
-1.51419
-1.51573
-1.51756
-1.51972
-1.5222
-1.52504
-1.52825
-1.53183
-1.5358
-1.54014
-1.54486
-1.54992
-1.55533
-1.56105
-1.56706
-1.57333
-1.57983
-1.58652
-1.59339
-1.6004
-1.60753
-1.61475
-1.62203
-1.62936
-1.63672
-1.64409
-1.65145
-1.6588
-1.66613
-1.67343
-1.6807
-1.68794
-1.69516
-1.70234
-1.70951
-1.71671
-1.72406
-1.73189
-1.74075
-1.75142
-1.76132
-1.75756
-1.74632
-1.75158
-1.76459
-1.77241
-1.77897
-1.78526
-1.79241
-1.79796
-1.79945
-1.80278
-1.81099
-1.81965
-1.82939
-1.82819
-1.81853
-1.81321
-1.80982
-1.80793
-1.80443
-1.79958
-1.79343
-1.78762
-1.78137
-1.77365
-1.76496
-1.7552
-1.74431
-1.73221
-1.71885
-1.70417
-1.68811
-1.67063
-1.65168
-1.63122
-1.6092
-1.58558
-1.56033
-1.53342
-1.50482
-1.47453
-1.44249
-1.40866
-1.3729
-1.33522
-1.29565
-1.25416
-1.21076
-1.16543
-1.11817
-1.06898
-1.01786
-0.964821
-0.909868
-0.853022
-0.794306
-0.733747
-0.671378
-0.607237
-0.541369
-0.473822
-0.404651
-0.333917
-0.261686
-0.18803
-0.113027
-0.0367586
0.0406855
0.119212
0.198721
0.279108
0.360266
0.44208
0.524434
0.607205
0.690271
0.773504
0.856775
0.939953
1.0229
1.1055
1.1876
1.26908
1.34981
1.42966
1.5085
1.58623
1.66272
1.73787
1.81158
1.88375
1.95431
2.02317
2.09028
2.15557
2.21902
2.28058
2.34025
2.39801
2.45388
2.50787
2.56001
2.61032
2.65881
2.70554
2.75059
2.79404
2.83598
2.87653
2.91578
2.95386
2.99088
3.02698
3.0623
3.09697
3.13114
3.16496
3.19859
3.23216
3.26585
3.29979
3.33413
3.36901
3.40458
3.44096
3.47828
3.51669
3.55631
3.59735
3.64002
3.68509
3.73312
3.78918
3.85598
-1.50857
-1.5092
-1.50989
-1.51045
-1.51087
-1.51135
-1.51209
-1.51318
-1.51467
-1.51657
-1.51889
-1.52164
-1.52482
-1.52843
-1.53248
-1.53695
-1.54183
-1.5471
-1.55273
-1.55868
-1.56493
-1.57143
-1.57815
-1.58505
-1.59209
-1.59926
-1.6065
-1.6138
-1.62113
-1.62847
-1.6358
-1.6431
-1.65037
-1.65758
-1.66473
-1.6718
-1.67878
-1.68564
-1.69238
-1.69899
-1.70551
-1.71189
-1.71787
-1.72284
-1.72533
-1.7249
-1.73555
-1.75728
-1.76373
-1.76201
-1.76535
-1.76981
-1.77366
-1.77565
-1.77776
-1.78395
-1.78945
-1.78926
-1.78718
-1.78208
-1.7839
-1.79136
-1.7934
-1.79391
-1.79165
-1.78964
-1.78824
-1.78647
-1.78265
-1.77614
-1.7689
-1.76068
-1.75133
-1.74082
-1.72908
-1.71608
-1.70176
-1.68608
-1.669
-1.65046
-1.63043
-1.60885
-1.5857
-1.56092
-1.53448
-1.50633
-1.47643
-1.44473
-1.41112
-1.37575
-1.33856
-1.29951
-1.25857
-1.21573
-1.17097
-1.1243
-1.07569
-1.02516
-0.972718
-0.918366
-0.862122
-0.804008
-0.744051
-0.682282
-0.618737
-0.553459
-0.486496
-0.417901
-0.347732
-0.276054
-0.202938
-0.128458
-0.0526966
0.0242602
0.10232
0.181386
0.261354
0.342119
0.423569
0.505588
0.588057
0.670854
0.753851
0.836923
0.919938
1.00277
1.08527
1.16733
1.2488
1.32956
1.40949
1.48845
1.56633
1.64301
1.71838
1.79236
1.86483
1.93571
2.00493
2.07242
2.13812
2.20199
2.264
2.32413
2.38236
2.43871
2.49318
2.5458
2.59657
2.64552
2.69271
2.7382
2.78208
2.82443
2.86535
2.90494
2.94333
2.98062
3.01695
3.05246
3.08727
3.12155
3.15543
3.18906
3.22261
3.25621
3.29003
3.32421
3.3589
3.39424
3.43037
3.46744
3.50557
3.54495
3.58578
3.62833
3.67334
3.72278
3.77969
3.83851
-1.50441
-1.50597
-1.50765
-1.50885
-1.50954
-1.51009
-1.51079
-1.5118
-1.51318
-1.51499
-1.51723
-1.51992
-1.52306
-1.52664
-1.53065
-1.53508
-1.53992
-1.54512
-1.55068
-1.55654
-1.56269
-1.56908
-1.57568
-1.58245
-1.58937
-1.59641
-1.60352
-1.6107
-1.61791
-1.62514
-1.63237
-1.63958
-1.64676
-1.65391
-1.661
-1.66802
-1.67497
-1.68183
-1.68859
-1.69523
-1.70177
-1.70821
-1.71447
-1.72028
-1.72522
-1.72962
-1.73662
-1.74648
-1.75366
-1.75805
-1.76267
-1.76733
-1.7718
-1.77564
-1.77873
-1.78211
-1.78555
-1.78741
-1.78769
-1.78709
-1.78819
-1.7907
-1.79184
-1.79198
-1.7907
-1.78842
-1.78544
-1.78176
-1.77711
-1.77105
-1.76406
-1.75607
-1.74699
-1.73677
-1.72534
-1.71267
-1.6987
-1.68339
-1.66669
-1.64855
-1.62894
-1.60781
-1.58511
-1.56081
-1.53486
-1.50722
-1.47783
-1.44669
-1.41373
-1.37898
-1.3424
-1.30397
-1.26367
-1.22148
-1.17738
-1.13138
-1.08346
-1.03362
-0.981871
-0.928223
-0.872688
-0.815287
-0.756043
-0.694986
-0.632152
-0.567582
-0.50132
-0.433418
-0.363934
-0.292929
-0.220471
-0.146634
-0.0714967
0.00485606
0.0823345
0.160843
0.240283
0.320548
0.401529
0.483114
0.565184
0.647619
0.730295
0.813087
0.895865
0.9785
1.06086
1.14282
1.22424
1.305
1.38496
1.46402
1.54204
1.6189
1.69451
1.76876
1.84155
1.91279
1.98241
2.05033
2.11649
2.18085
2.24337
2.30402
2.3628
2.41968
2.47469
2.52784
2.57915
2.62866
2.67641
2.72245
2.76686
2.8097
2.85109
2.89111
2.92987
2.9675
3.00412
3.03986
3.07486
3.10926
3.14321
3.17686
3.21036
3.24387
3.27754
3.31152
3.34597
3.38103
3.41685
3.45358
3.49137
3.53042
3.57095
3.61328
3.65815
3.70681
3.76238
3.81576
-1.49929
-1.50175
-1.50468
-1.50694
-1.50838
-1.50946
-1.51052
-1.51177
-1.51331
-1.51523
-1.51756
-1.52031
-1.52349
-1.52709
-1.53111
-1.53554
-1.54034
-1.54549
-1.55097
-1.55675
-1.56278
-1.56905
-1.57552
-1.58215
-1.58893
-1.59581
-1.60277
-1.6098
-1.61686
-1.62395
-1.63103
-1.63811
-1.64516
-1.65218
-1.65915
-1.66606
-1.67291
-1.67967
-1.68635
-1.69293
-1.69942
-1.70579
-1.71199
-1.71793
-1.72355
-1.72912
-1.73516
-1.74169
-1.7479
-1.75334
-1.75834
-1.76304
-1.76746
-1.77154
-1.77522
-1.77854
-1.78148
-1.78377
-1.78522
-1.78613
-1.78701
-1.78795
-1.78843
-1.7882
-1.78715
-1.78522
-1.78243
-1.77871
-1.77404
-1.76831
-1.7616
-1.75386
-1.74502
-1.73505
-1.72389
-1.7115
-1.69783
-1.68282
-1.66645
-1.64865
-1.62938
-1.60861
-1.58628
-1.56236
-1.5368
-1.50956
-1.48061
-1.4499
-1.41743
-1.38316
-1.34708
-1.30916
-1.26937
-1.22771
-1.18415
-1.13868
-1.09131
-1.04203
-0.990844
-0.93776
-0.882793
-0.825961
-0.767287
-0.706799
-0.644532
-0.580524
-0.51482
-0.44747
-0.378528
-0.308055
-0.236118
-0.162787
-0.0881418
-0.0122633
0.0647599
0.142834
0.221862
0.301739
0.382358
0.463608
0.545373
0.627534
0.709968
0.792551
0.875156
0.957653
1.03991
1.12181
1.2032
1.28397
1.36399
1.44313
1.52127
1.59831
1.67411
1.74859
1.82165
1.89319
1.96313
2.0314
2.09793
2.16269
2.22563
2.28671
2.34593
2.40326
2.45872
2.5123
2.56404
2.61397
2.66213
2.70858
2.75338
2.7966
2.83833
2.87866
2.91771
2.95558
2.9924
3.0283
3.06341
3.09787
3.13184
3.16546
3.19889
3.23227
3.26578
3.29955
3.33374
3.36851
3.40401
3.4404
3.47783
3.5165
3.55666
3.59862
3.64299
3.69028
3.74366
3.79143
-1.49511
-1.4983
-1.50231
-1.50556
-1.50781
-1.50952
-1.51109
-1.51274
-1.5146
-1.51676
-1.51929
-1.52219
-1.5255
-1.52919
-1.53327
-1.53773
-1.54253
-1.54765
-1.55308
-1.55878
-1.56472
-1.57087
-1.57721
-1.5837
-1.59032
-1.59704
-1.60384
-1.6107
-1.61761
-1.62453
-1.63146
-1.63839
-1.6453
-1.65218
-1.65901
-1.6658
-1.67253
-1.67919
-1.68577
-1.69227
-1.69867
-1.70496
-1.71111
-1.71708
-1.7229
-1.72867
-1.73454
-1.74046
-1.74615
-1.75147
-1.75647
-1.76119
-1.76561
-1.76971
-1.77348
-1.7769
-1.77987
-1.78227
-1.78411
-1.78546
-1.78646
-1.78715
-1.78738
-1.78699
-1.78587
-1.78401
-1.78133
-1.77776
-1.77324
-1.76773
-1.76122
-1.75366
-1.74502
-1.73524
-1.72429
-1.71212
-1.69867
-1.6839
-1.66777
-1.65022
-1.63122
-1.61072
-1.58868
-1.56505
-1.53979
-1.51287
-1.48425
-1.45389
-1.42178
-1.38788
-1.35216
-1.31461
-1.2752
-1.23392
-1.19074
-1.14567
-1.0987
-1.04981
-0.999029
-0.94635
-0.891788
-0.835362
-0.777093
-0.717009
-0.655143
-0.591532
-0.526221
-0.459256
-0.390693
-0.320591
-0.249014
-0.176033
-0.101725
-0.0261693
0.0505457
0.128328
0.207081
0.286702
0.367086
0.448121
0.529693
0.611685
0.693973
0.776436
0.858945
0.941373
1.02359
1.10547
1.18687
1.26768
1.34776
1.427
1.50526
1.58243
1.6584
1.73307
1.80634
1.8781
1.94829
2.01682
2.08364
2.1487
2.21194
2.27333
2.33286
2.39052
2.44628
2.50016
2.55219
2.60239
2.65082
2.69753
2.74257
2.78602
2.82795
2.86847
2.90768
2.94568
2.9826
3.01856
3.0537
3.08816
3.12209
3.15563
3.18895
3.22218
3.2555
3.28905
3.32299
3.35747
3.39266
3.4287
3.46577
3.50406
3.54378
3.58522
3.62884
3.67465
3.72563
3.76815
-1.49286
-1.49652
-1.50126
-1.50527
-1.50821
-1.51053
-1.51262
-1.51471
-1.51694
-1.5194
-1.52217
-1.52528
-1.52874
-1.53255
-1.53671
-1.54121
-1.54602
-1.55112
-1.5565
-1.56212
-1.56797
-1.574
-1.5802
-1.58655
-1.59301
-1.59957
-1.60621
-1.6129
-1.61964
-1.6264
-1.63317
-1.63994
-1.6467
-1.65344
-1.66015
-1.66681
-1.67343
-1.67998
-1.68647
-1.69288
-1.69921
-1.70543
-1.71155
-1.71753
-1.72342
-1.72923
-1.73501
-1.74071
-1.74622
-1.75146
-1.75645
-1.76118
-1.76563
-1.76977
-1.77357
-1.77701
-1.78002
-1.78255
-1.78458
-1.78616
-1.78731
-1.78802
-1.78819
-1.78776
-1.78664
-1.78477
-1.78211
-1.7786
-1.77418
-1.7688
-1.76242
-1.75501
-1.74652
-1.7369
-1.72611
-1.7141
-1.70082
-1.68624
-1.67029
-1.65294
-1.63414
-1.61385
-1.59203
-1.56862
-1.5436
-1.51692
-1.48855
-1.45845
-1.4266
-1.39296
-1.35751
-1.32023
-1.2811
-1.24009
-1.19719
-1.1524
-1.10571
-1.05711
-1.00661
-0.954219
-0.899944
-0.843803
-0.78582
-0.726019
-0.664434
-0.6011
-0.536061
-0.469364
-0.401062
-0.331213
-0.259882
-0.187137
-0.113055
-0.0377139
0.0387985
0.116391
0.194969
0.274429
0.354667
0.435574
0.517034
0.598931
0.681144
0.763549
0.84602
0.928429
1.01065
1.09254
1.17399
1.25485
1.33501
1.41434
1.49271
1.57001
1.64613
1.72095
1.79438
1.86633
1.93672
2.00546
2.07249
2.13776
2.20122
2.26283
2.32258
2.38045
2.43642
2.49051
2.54272
2.59311
2.64171
2.68857
2.73375
2.77732
2.81937
2.85998
2.89925
2.9373
2.97424
3.0102
3.04531
3.07971
3.11355
3.14697
3.18014
3.21319
3.2463
3.27962
3.3133
3.3475
3.38237
3.41807
3.45477
3.49264
3.53187
3.57269
3.61544
3.65974
3.70843
3.74632
-1.4929
-1.49675
-1.50186
-1.50632
-1.50975
-1.51255
-1.51509
-1.51756
-1.52012
-1.52287
-1.52587
-1.52916
-1.53276
-1.53668
-1.54091
-1.54545
-1.55026
-1.55534
-1.56067
-1.56622
-1.57196
-1.57788
-1.58396
-1.59016
-1.59648
-1.60288
-1.60936
-1.6159
-1.62247
-1.62908
-1.6357
-1.64233
-1.64895
-1.65556
-1.66214
-1.66869
-1.67521
-1.68167
-1.68808
-1.69442
-1.70069
-1.70687
-1.71297
-1.71896
-1.72486
-1.73068
-1.73641
-1.74202
-1.74746
-1.75269
-1.75769
-1.76244
-1.76692
-1.7711
-1.77494
-1.77842
-1.7815
-1.78413
-1.78631
-1.78803
-1.78929
-1.79005
-1.79026
-1.78985
-1.78875
-1.78691
-1.78428
-1.78082
-1.77647
-1.77117
-1.7649
-1.75759
-1.74921
-1.73971
-1.72905
-1.71716
-1.70402
-1.68957
-1.67376
-1.65656
-1.63791
-1.61778
-1.59611
-1.57287
-1.54802
-1.52151
-1.49332
-1.46341
-1.43175
-1.3983
-1.36305
-1.32595
-1.28701
-1.24619
-1.20349
-1.15889
-1.1124
-1.064
-1.01369
-0.961497
-0.90742
-0.851476
-0.793688
-0.734081
-0.672687
-0.609541
-0.544687
-0.478169
-0.410041
-0.340361
-0.269191
-0.1966
-0.122662
-0.0474569
0.0289299
0.106408
0.184881
0.26425
0.344408
0.425248
0.506656
0.588514
0.670701
0.753095
0.835569
0.917996
1.00025
1.08219
1.16369
1.24463
1.32487
1.40429
1.48277
1.56019
1.63643
1.71139
1.78497
1.85707
1.9276
1.9965
2.06369
2.12911
2.19273
2.25451
2.31441
2.37241
2.42853
2.48274
2.53508
2.58557
2.63426
2.6812
2.72645
2.77007
2.81216
2.85278
2.89206
2.93009
2.96698
3.00288
3.03791
3.0722
3.1059
3.13917
3.17216
3.20501
3.23789
3.27096
3.30437
3.33827
3.37282
3.40817
3.44448
3.4819
3.52061
3.56073
3.60254
3.64534
3.69192
3.72589
-1.49512
-1.49894
-1.50408
-1.50871
-1.5124
-1.51552
-1.51836
-1.52113
-1.52394
-1.52691
-1.53009
-1.53353
-1.53724
-1.54123
-1.5455
-1.55005
-1.55485
-1.5599
-1.56516
-1.57063
-1.57628
-1.58209
-1.58805
-1.59412
-1.6003
-1.60656
-1.6129
-1.61929
-1.62573
-1.6322
-1.63869
-1.64519
-1.65169
-1.65819
-1.66467
-1.67114
-1.67757
-1.68397
-1.69032
-1.69662
-1.70286
-1.70902
-1.71511
-1.72112
-1.72704
-1.73286
-1.73859
-1.74418
-1.74961
-1.75486
-1.75988
-1.76467
-1.7692
-1.77343
-1.77733
-1.78088
-1.78404
-1.78677
-1.78906
-1.79089
-1.79224
-1.79305
-1.7933
-1.79292
-1.79186
-1.79006
-1.78748
-1.78407
-1.77977
-1.77455
-1.76835
-1.76112
-1.75282
-1.74341
-1.73283
-1.72104
-1.70799
-1.69363
-1.67793
-1.66082
-1.64228
-1.62225
-1.6007
-1.57757
-1.55284
-1.52646
-1.49839
-1.4686
-1.43706
-1.40374
-1.36861
-1.33164
-1.29282
-1.25213
-1.20955
-1.16508
-1.11871
-1.07044
-1.02026
-0.968195
-0.914245
-0.858429
-0.800767
-0.741285
-0.680013
-0.616987
-0.552249
-0.485844
-0.417825
-0.348247
-0.277174
-0.204673
-0.130818
-0.0556882
0.0206319
0.098052
0.176477
0.255806
0.335937
0.416759
0.49816
0.580022
0.662224
0.744643
0.827154
0.909628
0.991934
1.07394
1.15552
1.23654
1.31688
1.3964
1.47498
1.55251
1.62887
1.70394
1.77764
1.84986
1.92052
1.98954
2.05684
2.12238
2.18611
2.24799
2.30799
2.36608
2.42227
2.47656
2.52895
2.57949
2.62822
2.67518
2.72043
2.76404
2.8061
2.84669
2.8859
2.92385
2.96066
2.99644
3.03133
3.06548
3.09901
3.13209
3.16487
3.19749
3.23013
3.26293
3.29604
3.32964
3.36385
3.39884
3.43474
3.47169
3.50982
3.54921
3.59003
3.63136
3.67604
3.70669
-1.49916
-1.50275
-1.50765
-1.5122
-1.51596
-1.51921
-1.52223
-1.52517
-1.52815
-1.53125
-1.53455
-1.53807
-1.54184
-1.54587
-1.55015
-1.55468
-1.55945
-1.56444
-1.56964
-1.57502
-1.58058
-1.58628
-1.59212
-1.59808
-1.60414
-1.61028
-1.61649
-1.62277
-1.62909
-1.63545
-1.64183
-1.64824
-1.65465
-1.66107
-1.66749
-1.67389
-1.68028
-1.68664
-1.69297
-1.69925
-1.70549
-1.71166
-1.71777
-1.72381
-1.72976
-1.73562
-1.74137
-1.74699
-1.75245
-1.75774
-1.76281
-1.76766
-1.77224
-1.77654
-1.78051
-1.78414
-1.78737
-1.7902
-1.79259
-1.7945
-1.79592
-1.79679
-1.79708
-1.79674
-1.79572
-1.79396
-1.79142
-1.78805
-1.78379
-1.77862
-1.77246
-1.76529
-1.75705
-1.74769
-1.73717
-1.72543
-1.71244
-1.69814
-1.6825
-1.66546
-1.64698
-1.62702
-1.60553
-1.58248
-1.55781
-1.53151
-1.50351
-1.4738
-1.44233
-1.40908
-1.37402
-1.33712
-1.29837
-1.25775
-1.21525
-1.17085
-1.12455
-1.07635
-1.02625
-0.974253
-0.920377
-0.864636
-0.807047
-0.747638
-0.686437
-0.62348
-0.558808
-0.492466
-0.424505
-0.354981
-0.283958
-0.211501
-0.137683
-0.0625829
0.0137142
0.091119
0.169537
0.248867
0.329007
0.409848
0.491276
0.573174
0.655421
0.737894
0.820465
0.903006
0.985388
1.06748
1.14915
1.23026
1.31069
1.39032
1.46901
1.54664
1.6231
1.69829
1.77209
1.84441
1.91516
1.98427
2.05166
2.11728
2.18108
2.24302
2.30307
2.36121
2.41743
2.47173
2.52414
2.57467
2.62338
2.67031
2.71551
2.75906
2.80104
2.84153
2.88063
2.91846
2.95513
2.99075
3.02548
3.05943
3.09277
3.12563
3.15817
3.19054
3.22291
3.25542
3.28823
3.3215
3.35536
3.38997
3.42544
3.46189
3.49943
3.53805
3.57786
3.61778
3.66076
3.68858
-1.5045
-1.50773
-1.5122
-1.51646
-1.52011
-1.52335
-1.5264
-1.5294
-1.53245
-1.53561
-1.53895
-1.5425
-1.54628
-1.5503
-1.55455
-1.55904
-1.56375
-1.56868
-1.5738
-1.5791
-1.58456
-1.59017
-1.59591
-1.60176
-1.60772
-1.61376
-1.61988
-1.62606
-1.6323
-1.63858
-1.6449
-1.65124
-1.65761
-1.66398
-1.67036
-1.67675
-1.68312
-1.68948
-1.69582
-1.70212
-1.70839
-1.7146
-1.72076
-1.72685
-1.73286
-1.73877
-1.74457
-1.75025
-1.75577
-1.76111
-1.76626
-1.77117
-1.77582
-1.78019
-1.78424
-1.78794
-1.79126
-1.79417
-1.79663
-1.79861
-1.80009
-1.80101
-1.80135
-1.80104
-1.80004
-1.79831
-1.79579
-1.79245
-1.78822
-1.78307
-1.77694
-1.76979
-1.76157
-1.75224
-1.74174
-1.73003
-1.71706
-1.70279
-1.68718
-1.67016
-1.65171
-1.63178
-1.61032
-1.5873
-1.56267
-1.5364
-1.50843
-1.47875
-1.44731
-1.41408
-1.37904
-1.34217
-1.30345
-1.26286
-1.22038
-1.17601
-1.12975
-1.08158
-1.03151
-0.979554
-0.925715
-0.870009
-0.812457
-0.753083
-0.691917
-0.628993
-0.564352
-0.498038
-0.430102
-0.360599
-0.289592
-0.217147
-0.143335
-0.0682356
0.0080678
0.0854857
0.163924
0.243283
0.323458
0.40434
0.485816
0.56777
0.650081
0.732625
0.815273
0.897897
0.980368
1.06255
1.14432
1.22553
1.30607
1.38579
1.46458
1.54231
1.61887
1.69415
1.76804
1.84044
1.91127
1.98044
2.04789
2.11356
2.1774
2.23936
2.29943
2.35757
2.41378
2.46807
2.52044
2.57092
2.61957
2.66641
2.71152
2.75497
2.79682
2.83718
2.87613
2.91379
2.95028
2.98572
3.02023
3.05397
3.08707
3.11969
3.15197
3.18407
3.21615
3.24836
3.28086
3.31379
3.34728
3.38149
3.41651
3.45244
3.48935
3.52719
3.566
3.60459
3.646
3.67143
-1.5106
-1.51337
-1.51728
-1.52111
-1.5245
-1.5276
-1.53057
-1.53353
-1.53655
-1.5397
-1.54302
-1.54654
-1.55028
-1.55425
-1.55845
-1.56287
-1.56751
-1.57236
-1.57739
-1.58261
-1.58798
-1.5935
-1.59916
-1.60494
-1.61082
-1.61679
-1.62284
-1.62897
-1.63516
-1.6414
-1.64768
-1.65401
-1.66036
-1.66673
-1.67312
-1.67952
-1.68592
-1.69232
-1.6987
-1.70506
-1.71138
-1.71767
-1.7239
-1.73006
-1.73615
-1.74214
-1.74802
-1.75377
-1.75937
-1.76478
-1.77
-1.77499
-1.77972
-1.78416
-1.78828
-1.79205
-1.79543
-1.79841
-1.80093
-1.80297
-1.80448
-1.80544
-1.8058
-1.80551
-1.80452
-1.8028
-1.80029
-1.79695
-1.79272
-1.78757
-1.78144
-1.77428
-1.76606
-1.75672
-1.74622
-1.7345
-1.72153
-1.70725
-1.69163
-1.67461
-1.65615
-1.63622
-1.61476
-1.59174
-1.5671
-1.54082
-1.51285
-1.48315
-1.4517
-1.41847
-1.38342
-1.34654
-1.30782
-1.26722
-1.22474
-1.18037
-1.13411
-1.08594
-1.03588
-0.983933
-0.930104
-0.87441
-0.81687
-0.757508
-0.696354
-0.633442
-0.56881
-0.502504
-0.434573
-0.365072
-0.294062
-0.22161
-0.147788
-0.0726733
0.00365082
0.0810959
0.159568
0.238967
0.31919
0.400127
0.481664
0.563685
0.64607
0.728693
0.811427
0.89414
0.976703
1.05898
1.14085
1.22216
1.30279
1.38261
1.4615
1.53932
1.61597
1.69132
1.76528
1.83775
1.90863
1.97785
2.04533
2.11102
2.17487
2.23683
2.29688
2.35499
2.41116
2.46539
2.51769
2.56809
2.61663
2.66336
2.70834
2.75164
2.79333
2.83352
2.87229
2.90975
2.94603
2.98124
3.01553
3.04902
3.08186
3.11421
3.14622
3.17803
3.20981
3.24171
3.27387
3.30644
3.33956
3.37334
3.4079
3.44329
3.47955
3.5166
3.55442
3.59174
3.63172
3.65512
-1.51694
-1.51921
-1.52245
-1.52575
-1.52878
-1.53163
-1.53443
-1.53727
-1.54019
-1.54326
-1.5465
-1.54995
-1.55361
-1.5575
-1.56161
-1.56595
-1.5705
-1.57526
-1.58021
-1.58535
-1.59065
-1.5961
-1.6017
-1.60742
-1.61325
-1.61919
-1.62521
-1.63132
-1.6375
-1.64374
-1.65003
-1.65638
-1.66276
-1.66917
-1.67561
-1.68207
-1.68854
-1.69501
-1.70147
-1.70791
-1.71432
-1.7207
-1.72703
-1.73329
-1.73947
-1.74555
-1.75152
-1.75736
-1.76303
-1.76853
-1.77382
-1.77888
-1.78367
-1.78818
-1.79236
-1.79618
-1.79962
-1.80263
-1.80519
-1.80726
-1.80879
-1.80976
-1.81012
-1.80982
-1.80882
-1.80708
-1.80455
-1.80118
-1.79692
-1.79174
-1.78558
-1.77839
-1.77013
-1.76076
-1.75022
-1.73846
-1.72545
-1.71114
-1.69548
-1.67843
-1.65994
-1.63998
-1.61849
-1.59543
-1.57076
-1.54443
-1.51642
-1.48668
-1.45519
-1.42192
-1.38684
-1.34993
-1.31118
-1.27055
-1.22805
-1.18366
-1.13738
-1.08921
-1.03914
-0.987181
-0.933348
-0.877653
-0.820114
-0.760755
-0.699605
-0.636696
-0.572068
-0.505763
-0.437831
-0.368327
-0.29731
-0.224847
-0.15101
-0.0758758
0.00047312
0.0779488
0.156457
0.2359
0.316171
0.397163
0.478762
0.56085
0.643307
0.726008
0.808823
0.891622
0.974273
1.05664
1.1386
1.22
1.30072
1.38063
1.4596
1.5375
1.61422
1.68963
1.76365
1.83616
1.90707
1.97631
2.04381
2.1095
2.17333
2.23526
2.29526
2.35332
2.40941
2.46355
2.51575
2.56603
2.61444
2.66102
2.70584
2.74896
2.79047
2.83045
2.86901
2.90625
2.94229
2.97726
3.01129
3.04452
3.07709
3.10915
3.14087
3.17238
3.20384
3.23541
3.26723
3.29944
3.33216
3.36552
3.39959
3.43442
3.47003
3.50628
3.54313
3.57925
3.61788
3.63959
-1.52307
-1.52481
-1.52734
-1.53004
-1.53264
-1.53517
-1.53773
-1.54037
-1.54313
-1.54606
-1.54917
-1.5525
-1.55605
-1.55983
-1.56384
-1.56808
-1.57255
-1.57722
-1.5821
-1.58716
-1.59241
-1.59781
-1.60337
-1.60906
-1.61488
-1.62082
-1.62685
-1.63298
-1.63919
-1.64548
-1.65183
-1.65824
-1.66469
-1.67119
-1.67772
-1.68427
-1.69084
-1.69741
-1.70398
-1.71053
-1.71706
-1.72354
-1.72998
-1.73634
-1.74262
-1.74881
-1.75487
-1.76078
-1.76654
-1.77211
-1.77746
-1.78257
-1.78741
-1.79195
-1.79617
-1.80002
-1.80347
-1.8065
-1.80906
-1.81112
-1.81264
-1.81358
-1.81391
-1.81357
-1.81253
-1.81074
-1.80815
-1.80472
-1.80041
-1.79516
-1.78894
-1.78168
-1.77336
-1.76392
-1.75331
-1.7415
-1.72842
-1.71405
-1.69833
-1.68122
-1.66268
-1.64265
-1.6211
-1.59798
-1.57324
-1.54685
-1.51877
-1.48897
-1.45742
-1.4241
-1.38897
-1.35201
-1.31321
-1.27255
-1.23002
-1.18561
-1.1393
-1.09111
-1.04103
-0.989067
-0.93523
-0.879534
-0.821998
-0.762644
-0.7015
-0.638598
-0.573976
-0.507678
-0.439751
-0.370249
-0.299233
-0.226767
-0.152923
-0.0777782
-0.00141371
0.0760827
0.154617
0.234092
0.314401
0.395437
0.477085
0.559229
0.641747
0.724512
0.807397
0.890268
0.972995
1.05544
1.13747
1.21895
1.29975
1.37973
1.45876
1.53672
1.61349
1.68895
1.763
1.83553
1.90646
1.97571
2.04319
2.10885
2.17264
2.23452
2.29445
2.35242
2.40841
2.46244
2.5145
2.56464
2.61289
2.6593
2.70394
2.74686
2.78815
2.82791
2.86623
2.90322
2.93901
2.97372
3.00747
3.04042
3.07271
3.10448
3.13589
3.16709
3.19823
3.22946
3.26093
3.29276
3.32509
3.358
3.39158
3.42585
3.46079
3.49624
3.53213
3.56712
3.60448
3.62476
-1.52862
-1.52983
-1.53166
-1.53373
-1.53584
-1.538
-1.54025
-1.54264
-1.54518
-1.54792
-1.55086
-1.55404
-1.55745
-1.5611
-1.565
-1.56913
-1.5735
-1.5781
-1.58291
-1.58793
-1.59313
-1.59852
-1.60407
-1.60977
-1.61561
-1.62158
-1.62767
-1.63386
-1.64015
-1.64652
-1.65296
-1.65947
-1.66604
-1.67266
-1.67931
-1.68598
-1.69268
-1.69938
-1.70607
-1.71275
-1.71939
-1.726
-1.73254
-1.73901
-1.74538
-1.75165
-1.75778
-1.76376
-1.76957
-1.77518
-1.78057
-1.7857
-1.79056
-1.7951
-1.79931
-1.80315
-1.80658
-1.80957
-1.81209
-1.8141
-1.81557
-1.81644
-1.8167
-1.81628
-1.81516
-1.81328
-1.8106
-1.80708
-1.80268
-1.79734
-1.79102
-1.78367
-1.77526
-1.76572
-1.75503
-1.74312
-1.72997
-1.71551
-1.69972
-1.68253
-1.66391
-1.6438
-1.62216
-1.59895
-1.57412
-1.54765
-1.51949
-1.48963
-1.45801
-1.42462
-1.38944
-1.35243
-1.31359
-1.27289
-1.23033
-1.1859
-1.13958
-1.09138
-1.04129
-0.989331
-0.935501
-0.879817
-0.822297
-0.762962
-0.70184
-0.638961
-0.574364
-0.50809
-0.440187
-0.370708
-0.299712
-0.227264
-0.153435
-0.0783004
-0.00194179
0.0755535
0.154092
0.233576
0.313902
0.394959
0.476635
0.558811
0.641367
0.724175
0.807106
0.890028
0.972808
1.05531
1.13739
1.21893
1.29978
1.3798
1.45888
1.53688
1.61368
1.68916
1.76322
1.83576
1.90667
1.97589
2.04334
2.10896
2.17268
2.23448
2.29432
2.35218
2.40805
2.46194
2.51385
2.56382
2.61189
2.65811
2.70253
2.74524
2.7863
2.82581
2.86388
2.90062
2.93614
2.97057
3.00404
3.0367
3.06869
3.10016
3.13127
3.16215
3.19296
3.22386
3.25497
3.28643
3.31834
3.35081
3.38388
3.41758
3.45185
3.48651
3.52147
3.55537
3.59152
3.61061
-1.5333
-1.53406
-1.53519
-1.53663
-1.53822
-1.53996
-1.54186
-1.54393
-1.54621
-1.54871
-1.55144
-1.55443
-1.55767
-1.56118
-1.56495
-1.56898
-1.57326
-1.57779
-1.58255
-1.58753
-1.59273
-1.59812
-1.6037
-1.60944
-1.61534
-1.62139
-1.62756
-1.63385
-1.64025
-1.64675
-1.65332
-1.65997
-1.66667
-1.67343
-1.68022
-1.68704
-1.69387
-1.7007
-1.70752
-1.71432
-1.72107
-1.72777
-1.73441
-1.74095
-1.74739
-1.7537
-1.75988
-1.76588
-1.7717
-1.77731
-1.78268
-1.78779
-1.79261
-1.79711
-1.80126
-1.80503
-1.80839
-1.8113
-1.81373
-1.81564
-1.817
-1.81777
-1.81791
-1.81738
-1.81614
-1.81413
-1.81134
-1.80769
-1.80316
-1.7977
-1.79127
-1.78381
-1.77528
-1.76564
-1.75484
-1.74283
-1.72958
-1.71504
-1.69915
-1.68187
-1.66314
-1.64293
-1.62118
-1.59787
-1.57295
-1.5464
-1.51816
-1.48822
-1.45654
-1.4231
-1.38787
-1.35083
-1.31195
-1.27124
-1.22866
-1.18422
-1.13791
-1.08971
-1.03965
-0.987714
-0.933916
-0.87827
-0.820792
-0.761504
-0.700431
-0.637605
-0.573062
-0.506843
-0.438995
-0.36957
-0.298627
-0.22623
-0.152448
-0.0773563
-0.00103691
0.0764239
0.154933
0.234394
0.314701
0.395746
0.477416
0.559592
0.642153
0.724971
0.807917
0.890858
0.973659
1.05618
1.13829
1.21985
1.30072
1.38077
1.45986
1.53787
1.61467
1.69015
1.76419
1.83671
1.90759
1.97676
2.04415
2.1097
2.17334
2.23503
2.29476
2.35249
2.40822
2.46195
2.51369
2.56348
2.61135
2.65736
2.70156
2.74403
2.78485
2.82411
2.86192
2.89839
2.93363
2.96778
3.00097
3.03334
3.06503
3.0962
3.12699
3.15756
3.18805
3.2186
3.24936
3.28044
3.31195
3.34396
3.37653
3.40965
3.44325
3.47713
3.51118
3.54405
3.57902
3.59712
-1.53723
-1.53748
-1.53797
-1.53878
-1.53983
-1.54109
-1.54256
-1.54425
-1.54619
-1.54838
-1.55085
-1.5536
-1.55663
-1.55996
-1.56358
-1.56749
-1.57168
-1.57614
-1.58087
-1.58583
-1.59104
-1.59646
-1.60209
-1.6079
-1.61389
-1.62004
-1.62633
-1.63275
-1.63929
-1.64593
-1.65265
-1.65945
-1.6663
-1.67321
-1.68014
-1.68709
-1.69405
-1.70099
-1.70792
-1.7148
-1.72163
-1.72839
-1.73506
-1.74163
-1.74808
-1.75439
-1.76054
-1.76651
-1.77228
-1.77782
-1.78312
-1.78814
-1.79286
-1.79725
-1.80128
-1.80493
-1.80815
-1.81092
-1.81321
-1.81498
-1.81619
-1.81681
-1.8168
-1.81611
-1.81471
-1.81256
-1.80961
-1.80582
-1.80115
-1.79555
-1.78898
-1.78139
-1.77274
-1.76299
-1.75208
-1.73998
-1.72663
-1.71199
-1.69599
-1.67859
-1.65975
-1.63943
-1.61758
-1.59418
-1.56918
-1.54255
-1.51425
-1.48425
-1.45253
-1.41905
-1.38379
-1.34674
-1.30786
-1.26715