/*--------------------------------*- C++ -*----------------------------------*\
  =========                 |
  \\      /  F ield         | OpenFOAM: The Open Source CFD Toolbox
   \\    /   O peration     | Website:  https://openfoam.org
    \\  /    A nd           | Version:  7
     \\/     M anipulation  |
\*---------------------------------------------------------------------------*/
FoamFile
{
    version     2.0;
    format      ascii;
    class       surfaceScalarField;
    location    "0.15";
    object      phi;
}
// * * * * * * * * * * * * * * * * * * * * * * * * * * * * * * * * * * * * * //

dimensions      [0 3 -1 0 0 0 0];

internalField   nonuniform List<scalar> 
24170
(
1.42871e-06
1.65497e-07
1.33476e-06
9.39501e-08
1.25535e-06
7.94068e-08
1.18984e-06
6.55106e-08
1.13929e-06
5.05445e-08
1.09992e-06
3.93691e-08
1.06881e-06
3.11172e-08
1.0439e-06
2.49065e-08
1.02364e-06
2.02622e-08
1.00679e-06
1.68439e-08
9.92493e-07
1.43019e-08
9.80145e-07
1.23476e-08
9.69355e-07
1.07905e-08
9.59831e-07
9.52449e-09
9.51379e-07
8.45157e-09
9.4371e-07
7.66942e-09
9.36887e-07
6.82286e-09
7.45772e-09
9.29429e-07
1.67172e-06
2.02405e-07
1.63058e-06
1.35085e-07
1.58829e-06
1.21703e-07
1.55014e-06
1.03652e-07
1.51643e-06
8.42548e-08
1.48626e-06
6.95465e-08
1.45911e-06
5.8265e-08
1.43492e-06
4.90946e-08
1.41354e-06
4.16432e-08
1.39469e-06
3.56962e-08
1.37805e-06
3.09434e-08
1.36331e-06
2.7081e-08
1.35022e-06
2.38833e-08
1.33853e-06
2.12101e-08
1.32807e-06
1.89122e-08
1.31865e-06
1.70944e-08
1.31025e-06
1.52254e-08
1.49414e-08
1.30276e-06
1.78132e-06
2.52341e-07
1.75686e-06
1.59543e-07
1.73621e-06
1.42353e-07
1.71735e-06
1.22518e-07
1.69921e-06
1.0239e-07
1.6816e-06
8.71594e-08
1.6646e-06
7.52633e-08
1.64849e-06
6.52037e-08
1.63346e-06
5.66753e-08
1.61957e-06
4.95841e-08
1.60682e-06
4.3696e-08
1.59515e-06
3.87492e-08
1.5845e-06
3.45405e-08
1.57477e-06
3.09357e-08
1.56588e-06
2.77991e-08
1.55783e-06
2.515e-08
1.55041e-06
2.26454e-08
2.092e-08
1.54443e-06
1.91834e-06
2.96694e-07
1.89272e-06
1.8516e-07
1.8764e-06
1.58674e-07
1.86339e-06
1.3553e-07
1.85157e-06
1.14211e-07
1.84046e-06
9.827e-08
1.82988e-06
8.5845e-08
1.81979e-06
7.52897e-08
1.81023e-06
6.6237e-08
1.80122e-06
5.85897e-08
1.79279e-06
5.21305e-08
1.78492e-06
4.66155e-08
1.77761e-06
4.18553e-08
1.77083e-06
3.77188e-08
1.76454e-06
3.4085e-08
1.75878e-06
3.09069e-08
1.75344e-06
2.79895e-08
2.54315e-08
1.74893e-06
2.0682e-06
3.32055e-07
2.04091e-06
2.12449e-07
2.02435e-06
1.7524e-07
2.01236e-06
1.47518e-07
2.00251e-06
1.24061e-07
1.99404e-06
1.06739e-07
1.9865e-06
9.33835e-08
1.97961e-06
8.21824e-08
1.97323e-06
7.26183e-08
1.9673e-06
6.45157e-08
1.9618e-06
5.76337e-08
1.95669e-06
5.17236e-08
1.95195e-06
4.65943e-08
1.94756e-06
4.21084e-08
1.9435e-06
3.81477e-08
1.93978e-06
3.46274e-08
1.93634e-06
3.14249e-08
2.84585e-08
1.93332e-06
2.22664e-06
3.59959e-07
2.19981e-06
2.39282e-07
2.18264e-06
1.92403e-07
2.17038e-06
1.59785e-07
2.16081e-06
1.33625e-07
2.15315e-06
1.144e-07
2.14682e-06
9.97181e-08
2.14138e-06
8.76151e-08
2.13661e-06
7.73944e-08
2.13236e-06
6.87678e-08
2.12854e-06
6.14457e-08
2.12511e-06
5.51586e-08
2.122e-06
4.97012e-08
2.11919e-06
4.49225e-08
2.11664e-06
4.06983e-08
2.11434e-06
3.69234e-08
2.11226e-06
3.3503e-08
3.03152e-08
2.11041e-06
2.39441e-06
3.8191e-07
2.36954e-06
2.64154e-07
2.35225e-06
2.09688e-07
2.33951e-06
1.72525e-07
2.32964e-06
1.43495e-07
2.32199e-06
1.22055e-07
2.31596e-06
1.05746e-07
2.31107e-06
9.2502e-08
2.30701e-06
8.1453e-08
2.30359e-06
7.21871e-08
2.30069e-06
6.43531e-08
2.2982e-06
5.76488e-08
2.29605e-06
5.18465e-08
2.2942e-06
4.67762e-08
2.29259e-06
4.23021e-08
2.29121e-06
3.83063e-08
2.29001e-06
3.47002e-08
3.13646e-08
2.28896e-06
2.57276e-06
3.98941e-07
2.55054e-06
2.86373e-07
2.53369e-06
2.26535e-07
2.52072e-06
1.855e-07
2.51049e-06
1.53727e-07
2.50257e-06
1.29971e-07
2.49646e-06
1.11858e-07
2.49166e-06
9.72965e-08
2.48785e-06
8.52701e-08
2.48478e-06
7.52498e-08
2.48232e-06
6.68197e-08
2.48033e-06
5.96395e-08
2.47872e-06
5.34533e-08
2.47743e-06
4.80691e-08
2.47639e-06
4.3336e-08
2.47557e-06
3.91256e-08
2.47493e-06
3.53456e-08
3.18874e-08
2.47441e-06
2.76268e-06
4.11927e-07
2.74336e-06
3.05696e-07
2.72746e-06
2.42437e-07
2.71466e-06
1.98296e-07
2.70429e-06
1.64099e-07
2.69615e-06
1.38113e-07
2.68986e-06
1.18152e-07
2.68497e-06
1.02178e-07
2.68117e-06
8.90726e-08
2.67821e-06
7.82069e-08
2.67593e-06
6.91066e-08
2.67417e-06
6.13926e-08
2.67285e-06
5.47794e-08
2.67187e-06
4.90514e-08
2.67116e-06
4.40407e-08
2.67068e-06
3.96088e-08
2.67037e-06
3.56548e-08
3.2077e-08
2.67018e-06
2.96512e-06
4.21691e-07
2.94871e-06
3.22113e-07
2.93415e-06
2.56998e-07
2.92196e-06
2.10481e-07
2.91179e-06
1.74267e-07
2.90363e-06
1.46272e-07
2.89725e-06
1.24535e-07
2.89229e-06
1.07143e-07
2.88844e-06
9.29168e-08
2.88549e-06
8.11545e-08
2.88327e-06
7.13344e-08
2.88161e-06
6.30435e-08
2.88043e-06
5.5968e-08
2.87961e-06
4.98693e-08
2.87909e-06
4.45624e-08
2.8788e-06
3.98976e-08
2.87869e-06
3.57638e-08
3.20613e-08
2.8787e-06
3.18114e-06
4.28958e-07
3.16749e-06
3.35761e-07
3.15451e-06
2.69982e-07
3.14328e-06
2.21714e-07
3.13367e-06
1.83871e-07
3.12579e-06
1.54154e-07
3.11952e-06
1.308e-07
3.11461e-06
1.12058e-07
3.11079e-06
9.67311e-08
3.10788e-06
8.40684e-08
3.1057e-06
7.35139e-08
3.10412e-06
6.46279e-08
3.10301e-06
5.70721e-08
3.10229e-06
5.05874e-08
3.10188e-06
4.49725e-08
3.10171e-06
4.00668e-08
3.10173e-06
3.5748e-08
3.19152e-08
3.10188e-06
2.86573e-06
4.33643e-07
2.85621e-06
3.45284e-07
2.84651e-06
2.79679e-07
2.83791e-06
2.30314e-07
2.83047e-06
1.91317e-07
2.82425e-06
1.60369e-07
2.81924e-06
1.35808e-07
2.81529e-06
1.16013e-07
2.81221e-06
9.98084e-08
2.80986e-06
8.64161e-08
2.80812e-06
7.52585e-08
2.80687e-06
6.58784e-08
2.80602e-06
5.79209e-08
2.80549e-06
5.11122e-08
2.80523e-06
4.52385e-08
2.80517e-06
4.01296e-08
2.80526e-06
3.56567e-08
3.17063e-08
2.80547e-06
3.49499e-06
4.37734e-07
3.48605e-06
3.54217e-07
3.47654e-06
2.89189e-07
3.4679e-06
2.38962e-07
3.4603e-06
1.98914e-07
3.45389e-06
1.66778e-07
3.44869e-06
1.4101e-07
3.44456e-06
1.20136e-07
3.44136e-06
1.03013e-07
3.43893e-06
8.88469e-08
3.43714e-06
7.70429e-08
3.43589e-06
6.71293e-08
3.43508e-06
5.87356e-08
3.43462e-06
5.15738e-08
3.43444e-06
4.54177e-08
3.43448e-06
4.00871e-08
3.43469e-06
3.54441e-08
3.13674e-08
3.43503e-06
4.26204e-06
4.41121e-07
4.25416e-06
3.62089e-07
4.24538e-06
2.97976e-07
4.23722e-06
2.47119e-07
4.23e-06
2.06136e-07
4.22388e-06
1.72901e-07
4.21891e-06
1.45977e-07
4.215e-06
1.24042e-07
4.21201e-06
1.06007e-07
4.20979e-06
9.10662e-08
4.20822e-06
7.86114e-08
4.20719e-06
6.81587e-08
4.2066e-06
5.93242e-08
4.20637e-06
5.18061e-08
4.20642e-06
4.53659e-08
4.2067e-06
3.98135e-08
4.20714e-06
3.50007e-08
3.08011e-08
4.20771e-06
5.19701e-06
4.43719e-07
5.19068e-06
3.6842e-07
5.18329e-06
3.05368e-07
5.17634e-06
2.54071e-07
5.17022e-06
2.12256e-07
5.16508e-06
1.78039e-07
5.16099e-06
1.50064e-07
5.15789e-06
1.27143e-07
5.15565e-06
1.08251e-07
5.15413e-06
9.25861e-08
5.15321e-06
7.95256e-08
5.1528e-06
6.85747e-08
5.15278e-06
5.93373e-08
5.15309e-06
5.14981e-08
5.15365e-06
4.48068e-08
5.1544e-06
3.90629e-08
5.15529e-06
3.4108e-08
2.98111e-08
5.15628e-06
6.33668e-06
4.45437e-07
6.33239e-06
3.72706e-07
6.32726e-06
3.10495e-07
6.3225e-06
2.58833e-07
6.31849e-06
2.16267e-07
6.31533e-06
1.81196e-07
6.31307e-06
1.5233e-07
6.31164e-06
1.28569e-07
6.31094e-06
1.08949e-07
6.31085e-06
9.26781e-08
6.31125e-06
7.91231e-08
6.31205e-06
6.77767e-08
6.31316e-06
5.82306e-08
6.3145e-06
5.01572e-08
6.31601e-06
4.32943e-08
6.31764e-06
3.74314e-08
6.31935e-06
3.24e-08
2.80654e-08
6.3211e-06
7.72591e-06
4.46116e-07
7.72435e-06
3.7427e-07
7.72269e-06
3.12151e-07
7.72157e-06
2.59951e-07
7.72118e-06
2.16662e-07
7.72149e-06
1.80884e-07
7.72247e-06
1.51355e-07
7.72403e-06
1.27004e-07
7.72608e-06
1.06901e-07
7.7285e-06
9.02563e-08
7.7312e-06
7.64231e-08
7.7341e-06
6.48797e-08
7.73712e-06
5.52054e-08
7.74022e-06
4.70612e-08
7.74334e-06
4.01742e-08
7.74644e-06
3.43249e-08
7.74951e-06
2.93364e-08
2.50711e-08
7.7525e-06
9.41956e-06
4.45373e-07
9.42195e-06
3.71883e-07
9.42573e-06
3.08372e-07
9.43062e-06
2.55061e-07
9.43629e-06
2.10988e-07
9.44247e-06
1.74704e-07
9.44896e-06
1.44863e-07
9.45562e-06
1.20349e-07
9.46231e-06
1.00205e-07
9.46896e-06
8.36138e-08
9.47548e-06
6.99003e-08
9.48184e-06
5.85231e-08
9.48799e-06
4.9048e-08
9.49393e-06
4.11257e-08
9.49963e-06
3.44752e-08
9.50508e-06
2.88709e-08
9.51029e-06
2.41311e-08
2.01179e-08
9.51524e-06
1.1485e-05
4.42043e-07
1.14942e-05
3.62679e-07
1.15074e-05
2.95194e-07
1.15227e-05
2.39782e-07
1.15388e-05
1.94887e-07
1.1555e-05
1.58501e-07
1.15708e-05
1.28992e-07
1.15861e-05
1.0509e-07
1.16006e-05
8.57153e-08
1.16142e-05
6.99534e-08
1.16271e-05
5.70749e-08
1.16391e-05
4.65105e-08
1.16503e-05
3.78118e-08
1.16608e-05
3.06215e-08
1.16706e-05
2.46557e-08
1.16798e-05
1.9689e-08
1.16884e-05
1.55413e-08
1.20786e-08
1.16965e-05
8.41018e-06
4.3722e-07
8.42291e-06
3.49946e-07
8.4403e-06
2.77804e-07
8.45944e-06
2.20641e-07
8.47875e-06
1.75574e-07
8.49753e-06
1.3972e-07
8.51537e-06
1.11156e-07
8.53201e-06
8.84473e-08
8.54739e-06
7.03421e-08
8.56152e-06
5.58149e-08
8.57451e-06
4.40935e-08
8.58642e-06
3.45966e-08
8.59736e-06
2.68718e-08
8.60742e-06
2.05634e-08
8.61668e-06
1.53934e-08
8.62522e-06
1.11445e-08
8.63312e-06
7.64472e-09
4.76774e-09
8.64043e-06
7.324e-06
4.30507e-07
7.34146e-06
3.32485e-07
7.36415e-06
2.55112e-07
7.38792e-06
1.96871e-07
7.41112e-06
1.5238e-07
7.43315e-06
1.17684e-07
7.45362e-06
9.06863e-08
7.47232e-06
6.97503e-08
7.48927e-06
5.33878e-08
7.50462e-06
4.04652e-08
7.51852e-06
3.01957e-08
7.53111e-06
2.20029e-08
7.54254e-06
1.54403e-08
7.55294e-06
1.01628e-08
7.56243e-06
5.90628e-09
7.57111e-06
2.46853e-09
7.57906e-06
-3.0934e-10
-2.54306e-09
7.58637e-06
6.37934e-06
4.21228e-07
6.40242e-06
3.09411e-07
6.43036e-06
2.27176e-07
6.45796e-06
1.69269e-07
6.48406e-06
1.26273e-07
6.50835e-06
9.33963e-08
6.53042e-06
6.86161e-08
6.55017e-06
5.0001e-08
6.56778e-06
3.57752e-08
6.58351e-06
2.47423e-08
6.59756e-06
1.61418e-08
6.61014e-06
9.41868e-09
6.62144e-06
4.1419e-09
6.63162e-06
-1.1368e-11
6.64081e-06
-3.28687e-09
6.64914e-06
-5.86251e-09
6.65671e-06
-7.88149e-09
-9.44594e-09
6.66362e-06
5.55841e-06
4.08281e-07
5.58817e-06
2.79656e-07
5.62108e-06
1.94264e-07
5.65164e-06
1.38706e-07
5.67975e-06
9.81653e-08
5.7053e-06
6.78474e-08
5.72792e-06
4.59935e-08
5.74772e-06
3.02046e-08
5.76506e-06
1.84296e-08
5.78031e-06
9.49719e-09
5.79374e-06
2.71371e-09
5.8056e-06
-2.44169e-09
5.81611e-06
-6.37181e-09
5.82547e-06
-9.36883e-09
5.83382e-06
-1.1644e-08
5.84132e-06
-1.33539e-08
5.84805e-06
-1.46191e-08
-1.55265e-08
5.85413e-06
4.84594e-06
3.89952e-07
4.88335e-06
2.42243e-07
4.92033e-06
1.57287e-07
4.95266e-06
1.06372e-07
4.98167e-06
6.91567e-08
5.00728e-06
4.22399e-08
5.02924e-06
2.40249e-08
5.048e-06
1.14536e-08
5.06411e-06
2.31902e-09
5.07802e-06
-4.41292e-09
5.09006e-06
-9.3338e-09
5.10054e-06
-1.29155e-08
5.10968e-06
-1.55181e-08
5.11771e-06
-1.73904e-08
5.12477e-06
-1.87066e-08
5.13101e-06
-1.95956e-08
5.13654e-06
-2.01541e-08
-2.04527e-08
5.14147e-06
4.22833e-06
3.64301e-07
4.27412e-06
1.96453e-07
4.31342e-06
1.1798e-07
4.34587e-06
7.3924e-08
4.37435e-06
4.06754e-08
4.39866e-06
1.79353e-08
4.4188e-06
3.88839e-09
4.43554e-06
-5.29201e-09
4.44962e-06
-1.17613e-08
4.46153e-06
-1.63195e-08
4.47163e-06
-1.94356e-08
4.48023e-06
-2.15187e-08
4.48759e-06
-2.28737e-08
4.4939e-06
-2.37007e-08
4.49933e-06
-2.41354e-08
4.50401e-06
-2.42783e-08
4.50806e-06
-2.42023e-08
-2.3964e-08
4.51157e-06
3.69254e-06
3.30398e-07
3.74698e-06
1.42013e-07
3.78677e-06
7.81939e-08
3.81775e-06
4.29409e-08
3.84422e-06
1.42067e-08
3.86597e-06
-3.80927e-09
3.88334e-06
-1.34861e-08
3.89739e-06
-1.93371e-08
3.90886e-06
-2.3236e-08
3.91826e-06
-2.57168e-08
3.92595e-06
-2.71309e-08
3.93225e-06
-2.78188e-08
3.93741e-06
-2.80257e-08
3.94161e-06
-2.79019e-08
3.94502e-06
-2.75462e-08
3.94777e-06
-2.70316e-08
3.94998e-06
-2.64072e-08
-2.57164e-08
3.95173e-06
3.22817e-06
2.87265e-07
3.28933e-06
8.08536e-08
3.3281e-06
3.9418e-08
3.35685e-06
1.4197e-08
3.38014e-06
-9.08913e-09
3.39823e-06
-2.1899e-08
3.41198e-06
-2.72334e-08
3.42254e-06
-2.99014e-08
3.43064e-06
-3.13352e-08
3.43675e-06
-3.1829e-08
3.44126e-06
-3.16387e-08
3.44448e-06
-3.10375e-08
3.44666e-06
-3.02075e-08
3.44801e-06
-2.9248e-08
3.44868e-06
-2.82192e-08
3.44882e-06
-2.71664e-08
3.44852e-06
-2.61148e-08
-2.50994e-08
3.44791e-06
2.83411e-06
2.25892e-07
2.8927e-06
2.2258e-08
2.92689e-06
5.22813e-09
2.95232e-06
-1.12287e-08
2.97133e-06
-2.81075e-08
2.98444e-06
-3.50021e-08
2.9931e-06
-3.58927e-08
2.99842e-06
-3.52237e-08
3.00122e-06
-3.41397e-08
3.0021e-06
-3.27079e-08
3.00152e-06
-3.10603e-08
2.99985e-06
-2.93664e-08
2.99737e-06
-2.77212e-08
2.99428e-06
-2.61585e-08
2.99075e-06
-2.46905e-08
2.98692e-06
-2.33327e-08
2.98289e-06
-2.20853e-08
-2.09629e-08
2.97875e-06
2.52607e-06
1.13626e-07
2.5595e-06
-1.11744e-08
2.57815e-06
-1.34213e-08
2.5924e-06
-2.54748e-08
2.60112e-06
-3.68256e-08
2.60367e-06
-3.75581e-08
2.60141e-06
-3.3629e-08
2.59582e-06
-2.96325e-08
2.58809e-06
-2.64094e-08
2.5791e-06
-2.37218e-08
2.56945e-06
-2.14068e-08
2.5595e-06
-1.94167e-08
2.54948e-06
-1.7709e-08
2.53956e-06
-1.62333e-08
2.52982e-06
-1.49492e-08
2.52033e-06
-1.38462e-08
2.51118e-06
-1.2931e-08
-1.2462e-08
2.50268e-06
2.21496e-06
2.20379e-06
2.19037e-06
2.16489e-06
2.12807e-06
2.09051e-06
2.05688e-06
2.02725e-06
2.00084e-06
1.97712e-06
1.95571e-06
1.93629e-06
1.91859e-06
1.90235e-06
1.8874e-06
1.87356e-06
1.86063e-06
1.84816e-06
1.09238e-08
-1.09238e-08
1.95313e-08
-8.60753e-09
2.19727e-08
-2.44143e-09
1.81546e-08
3.8181e-09
9.12667e-09
9.02795e-09
-3.78149e-09
1.29082e-08
-1.94194e-08
1.56379e-08
-3.69815e-08
1.75621e-08
-5.59498e-08
1.89683e-08
-7.60057e-08
2.00559e-08
-9.69446e-08
2.09389e-08
-1.18617e-07
2.16728e-08
-1.40897e-07
2.22798e-08
-1.63664e-07
2.2767e-08
-1.86801e-07
2.3137e-08
-2.10194e-07
2.33926e-08
-2.33733e-07
2.35389e-08
-2.57316e-07
2.35835e-08
-2.80852e-07
2.35361e-08
-3.0426e-07
2.34075e-08
-3.27469e-07
2.32092e-08
-3.50422e-07
2.29528e-08
-3.73071e-07
2.26495e-08
-3.95382e-07
2.23103e-08
-4.17327e-07
2.19451e-08
-4.3889e-07
2.15635e-08
-4.60064e-07
2.11741e-08
-4.80849e-07
2.07845e-08
-5.01251e-07
2.04017e-08
-5.21282e-07
2.00312e-08
-5.40959e-07
1.9677e-08
-5.603e-07
1.93409e-08
-5.79322e-07
1.90225e-08
-5.98042e-07
1.87201e-08
-6.16475e-07
1.84329e-08
-6.3464e-07
1.81652e-08
-6.5257e-07
1.79297e-08
-6.70316e-07
1.77461e-08
-6.87941e-07
1.76245e-08
-7.05473e-07
1.75324e-08
-7.22845e-07
1.73714e-08
-7.3988e-07
1.7035e-08
-7.56477e-07
1.65969e-08
-7.72923e-07
1.64465e-08
-7.90154e-07
1.72306e-08
-8.11652e-07
2.14985e-08
-8.31773e-07
2.01204e-08
-8.42858e-07
1.10854e-08
-8.57382e-07
1.45242e-08
-8.76717e-07
1.93345e-08
-8.93831e-07
1.71144e-08
-9.09459e-07
1.56284e-08
-9.25128e-07
1.5669e-08
-9.41782e-07
1.6654e-08
-9.61123e-07
1.9341e-08
-9.79095e-07
1.79719e-08
-9.92701e-07
1.36055e-08
-1.00757e-06
1.48677e-08
-1.02469e-06
1.71234e-08
-1.043e-06
1.83109e-08
-1.05965e-06
1.66482e-08
-1.07421e-06
1.45633e-08
-1.09092e-06
1.67055e-08
-1.10611e-06
1.51931e-08
-1.12199e-06
1.58822e-08
-1.1381e-06
1.6108e-08
-1.15226e-06
1.416e-08
-1.16523e-06
1.29649e-08
-1.17613e-06
1.09045e-08
-1.18794e-06
1.18061e-08
-1.19969e-06
1.17519e-08
-1.21121e-06
1.15148e-08
-1.22236e-06
1.11515e-08
-1.23306e-06
1.07033e-08
-1.24326e-06
1.01962e-08
-1.2529e-06
9.6446e-09
-1.26196e-06
9.05621e-09
-1.27039e-06
8.43481e-09
-1.27817e-06
7.78197e-09
-1.28527e-06
7.09788e-09
-1.29165e-06
6.38175e-09
-1.29729e-06
5.63186e-09
-1.30213e-06
4.84481e-09
-1.30615e-06
4.01669e-09
-1.30929e-06
3.1427e-09
-1.31151e-06
2.21985e-09
-1.31276e-06
1.2485e-09
-1.31293e-06
1.75188e-10
-1.31222e-06
-7.14099e-10
-1.31064e-06
-1.57771e-09
-1.30821e-06
-2.43004e-09
-1.30493e-06
-3.28332e-09
-1.30078e-06
-4.14546e-09
-1.29576e-06
-5.01869e-09
-1.28986e-06
-5.90335e-09
-1.28306e-06
-6.79885e-09
-1.27536e-06
-7.7043e-09
-1.26674e-06
-8.61864e-09
-1.2572e-06
-9.54065e-09
-1.24673e-06
-1.04691e-08
-1.23533e-06
-1.14026e-08
-1.22299e-06
-1.23398e-08
-1.20971e-06
-1.32791e-08
-1.19549e-06
-1.42191e-08
-1.18033e-06
-1.51582e-08
-1.16424e-06
-1.60946e-08
-1.14721e-06
-1.70267e-08
-1.12926e-06
-1.79526e-08
-1.11039e-06
-1.88705e-08
-1.09061e-06
-1.97784e-08
-1.06993e-06
-2.06744e-08
-1.04838e-06
-2.15563e-08
-1.02595e-06
-2.2422e-08
-1.00269e-06
-2.32692e-08
-9.7859e-07
-2.40956e-08
-9.53691e-07
-2.48989e-08
-9.28014e-07
-2.56765e-08
-9.01588e-07
-2.6426e-08
-8.74443e-07
-2.71449e-08
-8.46613e-07
-2.78306e-08
-8.18132e-07
-2.84804e-08
-7.8904e-07
-2.9092e-08
-7.59378e-07
-2.96625e-08
-7.29188e-07
-3.01897e-08
-6.98517e-07
-3.0671e-08
-6.67413e-07
-3.11039e-08
-6.35927e-07
-3.14863e-08
-6.04111e-07
-3.18161e-08
-5.7202e-07
-3.20912e-08
-5.3971e-07
-3.23101e-08
-5.07239e-07
-3.2471e-08
-4.74665e-07
-3.2573e-08
-4.4205e-07
-3.26151e-08
-4.09454e-07
-3.25966e-08
-3.76936e-07
-3.25175e-08
-3.44558e-07
-3.23779e-08
-3.1238e-07
-3.21786e-08
-2.80459e-07
-3.19205e-08
-2.48854e-07
-3.16052e-08
-2.17619e-07
-3.12348e-08
-1.86808e-07
-3.08115e-08
-1.56469e-07
-3.03387e-08
-1.2665e-07
-2.98192e-08
-9.73956e-08
-2.92544e-08
-6.87438e-08
-2.86518e-08
-4.07303e-08
-2.80136e-08
-1.33925e-08
-2.73378e-08
1.32427e-08
-2.66351e-08
3.9152e-08
-2.59093e-08
6.43234e-08
-2.51714e-08
8.87641e-08
-2.44407e-08
1.12494e-07
-2.37302e-08
1.35541e-07
-2.30463e-08
1.57936e-07
-2.23954e-08
1.7972e-07
-2.17843e-08
2.00941e-07
-2.12206e-08
2.21653e-07
-2.07118e-08
2.41919e-07
-2.02659e-08
2.61809e-07
-1.98903e-08
2.81401e-07
-1.95922e-08
3.00779e-07
-1.93782e-08
3.20034e-07
-1.92543e-08
3.39259e-07
-1.92256e-08
3.58555e-07
-1.92962e-08
3.78024e-07
-1.9469e-08
3.9777e-07
-1.97455e-08
4.17895e-07
-2.01254e-08
4.38501e-07
-2.06062e-08
4.59684e-07
-2.11826e-08
4.81529e-07
-2.18451e-08
5.04108e-07
-2.25788e-08
5.27468e-07
-2.33606e-08
5.51623e-07
-2.41544e-08
5.76526e-07
-2.49034e-08
6.02039e-07
-2.55132e-08
6.27888e-07
-2.58486e-08
6.54056e-07
-2.61684e-08
6.76314e-07
-2.22579e-08
6.86781e-07
-1.04669e-08
1.69379e-08
6.69843e-07
2.78356e-09
-1.37073e-08
-1.0224e-09
-4.80157e-09
-8.73938e-09
5.27555e-09
-1.91188e-08
1.41975e-08
-3.1901e-08
2.18101e-08
-4.70011e-08
2.80083e-08
-6.42295e-08
3.28663e-08
-8.32699e-08
3.66025e-08
-1.03772e-07
3.94705e-08
-1.25406e-07
4.16901e-08
-1.4789e-07
4.34222e-08
-1.70988e-07
4.47712e-08
-1.94509e-07
4.58008e-08
-2.18292e-07
4.65497e-08
-2.42199e-07
4.70445e-08
-2.66114e-07
4.73072e-08
-2.89935e-07
4.73596e-08
-3.13575e-07
4.72244e-08
-3.36965e-07
4.69258e-08
-3.60046e-07
4.64884e-08
-3.82774e-07
4.5937e-08
-4.05116e-07
4.52954e-08
-4.27053e-07
4.45861e-08
-4.48572e-07
4.38299e-08
-4.69673e-07
4.30459e-08
-4.9036e-07
4.22508e-08
-5.10646e-07
4.14596e-08
-5.30547e-07
4.06851e-08
-5.50083e-07
3.99382e-08
-5.69279e-07
3.92272e-08
-5.8816e-07
3.85583e-08
-6.06754e-07
3.79346e-08
-6.25089e-07
3.73574e-08
-6.43196e-07
3.68268e-08
-6.61107e-07
3.63442e-08
-6.78856e-07
3.59145e-08
-6.96473e-07
3.55469e-08
-7.13978e-07
3.52508e-08
-7.31378e-07
3.50242e-08
-7.48685e-07
3.48398e-08
-7.65959e-07
3.46453e-08
-7.8333e-07
3.44058e-08
-8.00916e-07
3.4183e-08
-8.18623e-07
3.41533e-08
-8.35954e-07
3.45618e-08
-8.49886e-07
3.54308e-08
-8.64592e-07
3.48262e-08
-8.86198e-07
3.26908e-08
-9.04382e-07
3.27091e-08
-9.18741e-07
3.36933e-08
-9.34901e-07
3.3274e-08
-9.51987e-07
3.2714e-08
-9.68843e-07
3.25256e-08
-9.84913e-07
3.27242e-08
-9.9878e-07
3.32076e-08
-1.01342e-06
3.26146e-08
-1.03097e-06
3.11548e-08
-1.0469e-06
3.07966e-08
-1.06093e-06
3.11481e-08
-1.0738e-06
3.11852e-08
-1.0875e-06
3.03505e-08
-1.10227e-06
2.93325e-08
-1.11453e-06
2.89673e-08
-1.12743e-06
2.80942e-08
-1.13897e-06
2.74177e-08
-1.14948e-06
2.66191e-08
-1.16064e-06
2.53202e-08
-1.17166e-06
2.3985e-08
-1.18342e-06
2.26591e-08
-1.19365e-06
2.20372e-08
-1.20318e-06
2.12857e-08
-1.21209e-06
2.04225e-08
-1.22041e-06
1.94745e-08
-1.22816e-06
1.84553e-08
-1.23534e-06
1.73741e-08
-1.24193e-06
1.62368e-08
-1.24792e-06
1.50474e-08
-1.2533e-06
1.38083e-08
-1.25804e-06
1.25208e-08
-1.26212e-06
1.11857e-08
-1.26555e-06
9.8035e-09
-1.26829e-06
8.37471e-09
-1.27034e-06
6.90004e-09
-1.27171e-06
5.38133e-09
-1.27239e-06
3.82261e-09
-1.2724e-06
2.23101e-09
-1.27178e-06
6.2483e-10
-1.27059e-06
-1.00814e-09
-1.26869e-06
-2.61696e-09
-1.26602e-06
-4.24957e-09
-1.26254e-06
-5.91017e-09
-1.25822e-06
-7.59695e-09
-1.25306e-06
-9.30973e-09
-1.24703e-06
-1.10477e-08
-1.24013e-06
-1.28094e-08
-1.23233e-06
-1.45931e-08
-1.22364e-06
-1.63968e-08
-1.21404e-06
-1.82181e-08
-1.20353e-06
-2.00548e-08
-1.19209e-06
-2.19042e-08
-1.17973e-06
-2.37638e-08
-1.16644e-06
-2.56309e-08
-1.15221e-06
-2.75024e-08
-1.13706e-06
-2.93755e-08
-1.12097e-06
-3.12469e-08
-1.10395e-06
-3.31134e-08
-1.08601e-06
-3.49715e-08
-1.06714e-06
-3.68177e-08
-1.04736e-06
-3.86483e-08
-1.02668e-06
-4.04596e-08
-1.00511e-06
-4.22474e-08
-9.82657e-07
-4.40077e-08
-9.59343e-07
-4.5736e-08
-9.35184e-07
-4.74281e-08
-9.10201e-07
-4.90792e-08
-8.84415e-07
-5.06846e-08
-8.57852e-07
-5.22394e-08
-8.30539e-07
-5.37389e-08
-8.02506e-07
-5.51779e-08
-7.73786e-07
-5.65512e-08
-7.44412e-07
-5.78538e-08
-7.14424e-07
-5.90805e-08
-6.8386e-07
-6.02261e-08
-6.52764e-07
-6.12858e-08
-6.2118e-07
-6.22544e-08
-5.89157e-07
-6.31274e-08
-5.56743e-07
-6.39e-08
-5.23991e-07
-6.45681e-08
-4.90955e-07
-6.51278e-08
-4.57689e-07
-6.55755e-08
-4.24252e-07
-6.59082e-08
-3.90702e-07
-6.61235e-08
-3.57097e-07
-6.62195e-08
-3.23499e-07
-6.61948e-08
-2.89967e-07
-6.60493e-08
-2.56562e-07
-6.57832e-08
-2.23343e-07
-6.53975e-08
-1.90369e-07
-6.48945e-08
-1.57697e-07
-6.42769e-08
-1.25383e-07
-6.35491e-08
-9.34794e-08
-6.27152e-08
-6.20367e-08
-6.17814e-08
-3.11018e-08
-6.07541e-08
-7.18148e-10
-5.9638e-08
2.90716e-08
-5.84415e-08
5.82299e-08
-5.71719e-08
8.67299e-08
-5.58378e-08
1.14551e-07
-5.44559e-08
1.41679e-07
-5.30382e-08
1.6811e-07
-5.1602e-08
1.93842e-07
-5.01732e-08
2.18884e-07
-4.87721e-08
2.43253e-07
-4.7415e-08
2.66975e-07
-4.61171e-08
2.90084e-07
-4.48938e-08
3.12625e-07
-4.37609e-08
3.34647e-07
-4.27347e-08
3.56213e-07
-4.1831e-08
3.77388e-07
-4.10655e-08
3.98249e-07
-4.0453e-08
4.18877e-07
-4.00072e-08
4.39364e-07
-3.97406e-08
4.59802e-07
-3.96641e-08
4.80293e-07
-3.97864e-08
5.00937e-07
-4.01138e-08
5.21842e-07
-4.065e-08
5.43111e-07
-4.13947e-08
5.64848e-07
-4.23435e-08
5.87152e-07
-4.34858e-08
6.1011e-07
-4.48032e-08
6.33797e-07
-4.62663e-08
6.58266e-07
-4.7829e-08
6.83531e-07
-4.94192e-08
7.0955e-07
-5.09233e-08
7.36188e-07
-5.21508e-08
7.63136e-07
-5.27963e-08
7.89075e-07
-5.21074e-08
8.13399e-07
-4.65818e-08
8.34998e-07
-3.2066e-08
6.8622e-10
8.5125e-07
-6.85798e-09
-6.84933e-09
-1.84641e-08
6.80456e-09
-3.16357e-08
1.84471e-08
-4.57777e-08
2.83396e-08
-6.08593e-08
3.68917e-08
-7.70116e-08
4.41606e-08
-9.43327e-08
5.01874e-08
-1.12805e-07
5.50748e-08
-1.32307e-07
5.89729e-08
-1.5266e-07
6.20427e-08
-1.73665e-07
6.44277e-08
-1.95136e-07
6.62418e-08
-2.16906e-07
6.75705e-08
-2.38834e-07
6.84779e-08
-2.60804e-07
6.90141e-08
-2.82718e-07
6.9222e-08
-3.045e-07
6.91411e-08
-3.26085e-07
6.88095e-08
-3.47423e-07
6.82643e-08
-3.68477e-07
6.75421e-08
-3.89218e-07
6.66777e-08
-4.09627e-07
6.57042e-08
-4.29693e-07
6.4652e-08
-4.49412e-07
6.3549e-08
-4.68786e-07
6.24199e-08
-4.87822e-07
6.12867e-08
-5.0653e-07
6.01682e-08
-5.24926e-07
5.90803e-08
-5.43024e-07
5.80362e-08
-5.60842e-07
5.70459e-08
-5.78401e-07
5.61166e-08
-5.95719e-07
5.52529e-08
-6.12819e-07
5.44572e-08
-6.29723e-07
5.37307e-08
-6.46454e-07
5.3075e-08
-6.63032e-07
5.24928e-08
-6.79472e-07
5.19874e-08
-6.95781e-07
5.15591e-08
-7.11957e-07
5.12003e-08
-7.28008e-07
5.08912e-08
-7.43968e-07
5.0605e-08
-7.59891e-07
5.03289e-08
-7.75795e-07
5.00874e-08
-7.91581e-07
4.99388e-08
-8.06938e-07
4.99192e-08
-8.21371e-07
4.98636e-08
-8.36006e-07
4.94612e-08
-8.52132e-07
4.88171e-08
-8.67864e-07
4.84407e-08
-8.82463e-07
4.82928e-08
-8.97148e-07
4.79591e-08
-9.11967e-07
4.75328e-08
-9.26607e-07
4.71654e-08
-9.40755e-07
4.68724e-08
-9.54096e-07
4.65482e-08
-9.67426e-07
4.59451e-08
-9.81383e-07
4.51108e-08
-9.94981e-07
4.43953e-08
-1.0077e-06
4.38688e-08
-1.01976e-06
4.32443e-08
-1.03178e-06
4.23724e-08
-1.04383e-06
4.13798e-08
-1.05525e-06
4.0389e-08
-1.06646e-06
3.93049e-08
-1.07718e-06
3.81384e-08
-1.08744e-06
3.68758e-08
-1.09759e-06
3.54719e-08
-1.10761e-06
3.4003e-08
-1.11751e-06
3.2563e-08
-1.12673e-06
3.12527e-08
-1.13535e-06
2.99073e-08
-1.14343e-06
2.8501e-08
-1.15098e-06
2.7026e-08
-1.15801e-06
2.54809e-08
-1.1645e-06
2.38665e-08
-1.17045e-06
2.21845e-08
-1.17584e-06
2.04366e-08
-1.18065e-06
1.86241e-08
-1.18488e-06
1.67484e-08
-1.1885e-06
1.48108e-08
-1.19151e-06
1.28128e-08
-1.19389e-06
1.07561e-08
-1.19564e-06
8.64339e-09
-1.19673e-06
6.47807e-09
-1.19718e-06
4.265e-09
-1.19696e-06
2.01054e-09
-1.19605e-06
-2.79438e-10
-1.19446e-06
-2.60352e-09
-1.19211e-06
-4.96346e-09
-1.18899e-06
-7.36832e-09
-1.18508e-06
-9.81885e-09
-1.18037e-06
-1.23134e-08
-1.17483e-06
-1.48497e-08
-1.16845e-06
-1.74249e-08
-1.16122e-06
-2.00362e-08
-1.15314e-06
-2.26807e-08
-1.14418e-06
-2.5355e-08
-1.13434e-06
-2.8056e-08
-1.12361e-06
-3.078e-08
-1.11199e-06
-3.35233e-08
-1.09948e-06
-3.62821e-08
-1.08606e-06
-3.90523e-08
-1.07173e-06
-4.18298e-08
-1.05649e-06
-4.461e-08
-1.04035e-06
-4.73884e-08
-1.02331e-06
-5.01602e-08
-1.00536e-06
-5.29202e-08
-9.86511e-07
-5.56633e-08
-9.66775e-07
-5.8384e-08
-9.46158e-07
-6.10768e-08
-9.2467e-07
-6.37356e-08
-9.02323e-07
-6.63545e-08
-8.79132e-07
-6.8927e-08
-8.55114e-07
-7.14464e-08
-8.30287e-07
-7.39059e-08
-8.04673e-07
-7.62986e-08
-7.78295e-07
-7.86172e-08
-7.51179e-07
-8.08545e-08
-7.23354e-07
-8.3003e-08
-6.9485e-07
-8.50551e-08
-6.65701e-07
-8.7003e-08
-6.35943e-07
-8.88391e-08
-6.05613e-07
-9.05559e-08
-5.74753e-07
-9.21457e-08
-5.43406e-07
-9.36014e-08
-5.11618e-07
-9.49156e-08
-4.79436e-07
-9.60816e-08
-4.46911e-07
-9.70931e-08
-4.14095e-07
-9.79442e-08
-3.81041e-07
-9.86294e-08
-3.47804e-07
-9.91443e-08
-3.14443e-07
-9.94852e-08
-2.81013e-07
-9.96489e-08
-2.47575e-07
-9.96337e-08
-2.14185e-07
-9.94388e-08
-1.80904e-07
-9.90645e-08
-1.47789e-07
-9.85123e-08
-1.14898e-07
-9.77854e-08
-8.22874e-08
-9.68876e-08
-5.00112e-08
-9.58252e-08
-1.81213e-08
-9.46051e-08
1.33319e-08
-9.32346e-08
4.43003e-08
-9.17225e-08
7.47411e-08
-9.00789e-08
1.04615e-07
-8.83155e-08
1.33888e-07
-8.64451e-08
1.62536e-07
-8.44852e-08
1.9054e-07
-8.24597e-08
2.1789e-07
-8.03889e-08
2.4458e-07
-7.82917e-08
2.70603e-07
-7.61965e-08
2.95963e-07
-7.41316e-08
3.20671e-07
-7.21228e-08
3.44748e-07
-7.01947e-08
3.68226e-07
-6.83718e-08
3.91144e-07
-6.66788e-08
4.1355e-07
-6.51402e-08
4.35499e-07
-6.37805e-08
4.57057e-07
-6.26234e-08
4.78296e-07
-6.16914e-08
4.99294e-07
-6.10056e-08
5.20138e-07
-6.05851e-08
5.40921e-07
-6.04466e-08
5.61738e-07
-6.06038e-08
5.82692e-07
-6.10669e-08
6.03883e-07
-6.18417e-08
6.25417e-07
-6.29284e-08
6.47394e-07
-6.4321e-08
6.69913e-07
-6.60041e-08
6.93061e-07
-6.79511e-08
7.16913e-07
-7.01185e-08
7.41523e-07
-7.24388e-08
7.6691e-07
-7.48065e-08
7.93041e-07
-7.70544e-08
8.19792e-07
-7.89019e-08
8.46852e-07
-7.98557e-08
8.73583e-07
-7.88383e-08
8.99927e-07
-7.29263e-08
9.25844e-07
-5.79828e-08
-2.65784e-08
9.53108e-07
-1.29261e-08
6.07675e-09
-2.89091e-08
2.27875e-08
-4.5259e-08
3.4797e-08
-6.16649e-08
4.47455e-08
-7.81995e-08
5.34264e-08
-9.50292e-08
6.09902e-08
-1.12309e-07
6.74671e-08
-1.30127e-07
7.28933e-08
-1.48494e-07
7.73392e-08
-1.67352e-07
8.09009e-08
-1.86607e-07
8.36824e-08
-2.06147e-07
8.57825e-08
-2.25865e-07
8.72879e-08
-2.4566e-07
8.82734e-08
-2.65449e-07
8.88033e-08
-2.85163e-07
8.89352e-08
-3.04744e-07
8.87221e-08
-3.24148e-07
8.82138e-08
-3.43341e-07
8.74575e-08
-3.62297e-07
8.64983e-08
-3.80998e-07
8.53782e-08
-3.9943e-07
8.41367e-08
-4.17588e-07
8.28094e-08
-4.35468e-07
8.14289e-08
-4.53071e-07
8.00239e-08
-4.70404e-07
7.86193e-08
-4.87472e-07
7.72366e-08
-5.04286e-07
7.58939e-08
-5.20856e-07
7.46057e-08
-5.37193e-07
7.33832e-08
-5.53311e-07
7.22347e-08
-5.69223e-07
7.11654e-08
-5.84945e-07
7.01784e-08
-6.00489e-07
6.92752e-08
-6.1587e-07
6.84563e-08
-6.311e-07
6.77221e-08
-6.46184e-07
6.70715e-08
-6.61125e-07
6.65008e-08
-6.75926e-07
6.60013e-08
-6.90594e-07
6.55585e-08
-7.05144e-07
6.51553e-08
-7.19596e-07
6.47807e-08
-7.33945e-07
6.44367e-08
-7.48138e-07
6.4132e-08
-7.62076e-07
6.3857e-08
-7.75762e-07
6.35499e-08
-7.89431e-07
6.31304e-08
-8.03245e-07
6.26311e-08
-8.16983e-07
6.21783e-08
-8.30448e-07
6.17577e-08
-8.43766e-07
6.12768e-08
-8.56975e-07
6.07423e-08
-8.7e-07
6.01899e-08
-8.82754e-07
5.96269e-08
-8.95205e-07
5.89989e-08
-9.07486e-07
5.82268e-08
-9.19717e-07
5.73411e-08
-9.31757e-07
5.6436e-08
-9.43406e-07
5.55179e-08
-9.54691e-07
5.45291e-08
-9.65741e-07
5.34218e-08
-9.76575e-07
5.22138e-08
-9.87114e-07
5.09284e-08
-9.9736e-07
4.95511e-08
-1.0073e-06
4.80823e-08
-1.01694e-06
4.65141e-08
-1.02632e-06
4.48498e-08
-1.03543e-06
4.31114e-08
-1.04421e-06
4.13471e-08
-1.05254e-06
3.95771e-08
-1.06039e-06
3.77578e-08
-1.06776e-06
3.58731e-08
-1.07465e-06
3.39142e-08
-1.08104e-06
3.18767e-08
-1.08694e-06
2.97589e-08
-1.09231e-06
2.75606e-08
-1.09716e-06
2.52822e-08
-1.10146e-06
2.29247e-08
-1.1052e-06
2.04893e-08
-1.10837e-06
1.79773e-08
-1.11094e-06
1.53905e-08
-1.11292e-06
1.2731e-08
-1.11428e-06
1.00016e-08
-1.115e-06
7.20528e-09
-1.11508e-06
4.34569e-09
-1.1145e-06
1.42648e-09
-1.11323e-06
-1.54994e-09
-1.11125e-06
-4.583e-09
-1.10854e-06
-7.67532e-09
-1.10508e-06
-1.08301e-08
-1.10085e-06
-1.40462e-08
-1.09584e-06
-1.73212e-08
-1.09004e-06
-2.0652e-08
-1.08343e-06
-2.40346e-08
-1.076e-06
-2.74654e-08
-1.06774e-06
-3.09401e-08
-1.05864e-06
-3.44546e-08
-1.04869e-06
-3.80044e-08
-1.03789e-06
-4.15849e-08
-1.02622e-06
-4.51914e-08
-1.01368e-06
-4.88187e-08
-1.00027e-06
-5.24617e-08
-9.85989e-07
-5.6115e-08
-9.70827e-07
-5.97726e-08
-9.54786e-07
-6.34287e-08
-9.3787e-07
-6.70768e-08
-9.20079e-07
-7.07105e-08
-9.0142e-07
-7.4323e-08
-8.81897e-07
-7.79071e-08
-8.61518e-07
-8.14554e-08
-8.40293e-07
-8.49604e-08
-8.18234e-07
-8.84139e-08
-7.95353e-07
-9.18076e-08
-7.71667e-07
-9.51328e-08
-7.47192e-07
-9.83805e-08
-7.21949e-07
-1.01541e-07
-6.9596e-07
-1.04606e-07
-6.6925e-07
-1.07565e-07
-6.41844e-07
-1.10409e-07
-6.13772e-07
-1.13127e-07
-5.85066e-07
-1.15709e-07
-5.5576e-07