/*--------------------------------*- C++ -*----------------------------------*\
  =========                 |
  \\      /  F ield         | OpenFOAM: The Open Source CFD Toolbox
   \\    /   O peration     | Website:  https://openfoam.org
    \\  /    A nd           | Version:  7
     \\/     M anipulation  |
\*---------------------------------------------------------------------------*/
FoamFile
{
    version     2.0;
    format      ascii;
    class       surfaceScalarField;
    location    "8";
    object      phi;
}
// * * * * * * * * * * * * * * * * * * * * * * * * * * * * * * * * * * * * * //

dimensions      [0 3 -1 0 0 0 0];

internalField   nonuniform List<scalar> 
1300
(
3.75095
5.62643
-3.19468
3.75095
-3.12938
5.62643
-2.31816
2.31816
-0.594746
0.594746
1.90689
1.84406
-1.81678
1.81678
-2.20238
2.20238
-1.21315
1.21315
-3.87942
3.87942
-3.16191
3.16191
2.07188
-2.07188
-2.1239
2.1239
-0.784917
0.784917
-2.30079
2.30079
1.95348
-1.95348
-2.30361
2.30361
-0.757397
0.757397
-1.49913
5.25008
2.25183
2.25183
-1.0684
1.0684
-3.56904
3.56904
4.6341
-4.6341
6.27348
-6.27348
-3.07881
-3.51916
1.16019
-8.0777
-1.96919
-1.96919
-8.391
8.391
-2.76457
2.86186
1.29045
-1.29045
-0.330287
0.330287
-2.08907
-0.229098
-2.08907
2.57328
-0.255119
2.57328
-0.661673
0.066927
-0.661673
1.70792
-1.70792
0.549043
0.045703
0.549043
1.29711
-1.29711
-1.90779
3.81468
1.84317
-1.75638
7.00646
-1.99457
3.83864
-2.22731
2.22731
-1.81994
0.00316072
-1.81994
1.9139
-0.0971198
1.9139
-2.31155
2.31155
-2.13939
-0.0629871
-2.13939
2.26269
-0.0603124
2.26269
1.35869
-1.35869
-1.23001
0.0168589
-1.23001
1.17868
0.0344628
1.17868
1.36027
4.26616
-6.9867
9.84855
-4.26616
0.386742
3.4867
0.392719
3.4867
-3.14836
-0.0135523
-3.14836
3.25734
-0.0954276
3.25734
1.84409
0.227789
1.84409
-2.38348
0.311603
-2.38348
-4.18968
-4.16578
-2.16033
0.0364252
-2.16033
-0.777274
-0.00764333
-0.777274
0.790926
-0.00600924
0.790926
-1.5084
1.5084
-2.5368
0.23601
-2.5368
1.53513
0.418351
1.53513
1.64982
2.10114
5.40077
-5.40077
3.44729
-2.24685
-0.0567647
-2.24685
-2.39372
-3.87976
2.39372
-0.0901056
-0.549694
-0.207703
-0.549694
1.78324
0.468589
1.78324
1.14308
0.0356014
-1.14308
0.074681
1.60673
-1.60673
0.673238
0.395164
0.673238
-3.52095
3.52095
3.3783
-0.120957
-3.3783
-0.190741
4.42941
0.204691
4.42941
-4.78442
0.15032
-4.78442
4.08338
-7.60254
-4.00038
2.04933
0.0745697
-2.04933
0.0801453
1.32341
-0.0329646
1.32341
-1.26271
1.26271
-1.29463
0.00418594
-1.29463
-0.29386
-0.0364263
-0.29386
0.376649
-0.0463629
0.376649
-1.95966
-0.129404
-1.95966
-2.69193
0.155129
2.69193
-0.118647
0.434057
-0.434057
-0.714998
0.0533257
-0.714998
-1.81004
-0.149626
1.81004
-0.102113
-1.68656
-0.0213649
-1.68656
-1.27569
-0.0189458
1.27569
0.0214202
1.46711
0.316129
-1.46711
0.170001
-1.77298
3.87412
-1.97797
3.82114
-2.09173
-0.13558
-2.09173
2.33641
-0.109103
2.33641
2.04549
0.255303
-2.04549
0.225546
2.04064
-0.126743
2.04064
-2.30371
-0.00784086
-2.30371
2.24945
0.0621011
2.24945
2.11445
-0.0738097
-2.11445
-0.0249349
2.28103
-0.0183426
2.28103
1.37533
-0.0166381
1.37533
-1.33944
-0.0192524
-1.33944
1.27728
-1.27728
1.27114
0.00614691
-1.27114
0.0411308
-14.4245
14.5748
-0.189927
-14.2346
3.29678
3.29678
1.0818
0.76229
1.0818
-2.6842
0.300717
-2.6842
4.18932
-8.1897
4.13322
-8.32289
3.81345
-11.8911
4.0986
-8.26439
2.24818
-2.24818
2.23806
0.0101186
-2.23806
0.0777305
-0.743231
-0.0340429
-0.743231
-1.33565
-0.172752
-1.33565
1.74184
-0.233438
1.74184
-1.29914
1.29914
-1.35968
0.0605388
1.35968
0.175454
2.28236
-0.00132927
-2.28236
0.0355102
0.516035
0.0330077
-0.516035
-0.0336587
1.66418
-0.0574419
1.66418
-1.48053
-0.126205
-1.48053
-0.70759
-0.0356405
0.70759
-0.0343525
-3.85074
0.329788
-3.85074
-14.1269
-0.107657
-13.7342
-4.89208
-4.89208
3.49893
13.3475
-1.34459
0.00515412
1.34459
-0.0211788
1.28678
0.0123574
-1.28678
0.0240703
-1.27234
-0.00494222
1.27234
-0.00962966
-0.353135
0.0592746
-0.353135
-0.399842
0.399842
-0.374195
-0.0256469
0.374195
0.00245454
0.520454
-0.0863964
0.520454
0.764314
0.0266125
-0.764314
0.0493153
-1.7058
0.019244
-1.7058
2.36273
-0.0263198
2.36273
-1.42862
-0.0519085
1.42862
-0.0532938
-0.100933
14.6758
-3.19584
0.0474806
3.19584
-14.8805
14.9279
-0.528615
0.17548
0.528615
0.553186
3.12174
0.399212
-3.12174
0.43754
2.24241
0.00703476
-2.24241
-0.0057656
-1.10521
-0.230435
-1.10521
-1.93456
-0.157172
1.93456
-0.192719
-15.0751
-0.322561
15.3976
-15.1705
4.1733
0.256109
-4.1733
15.1841
-0.435231
0.00117404
0.435231
-0.0353896
0.739734
-0.219281
0.739734
1.73399
-0.0698189
-1.73399
0.0281937
-2.36866
0.0649476
2.36866
-0.00592552
-0.911346
-0.193865
0.911346
-0.171612
-4.37192
4.84051
2.63454
-3.77821
-3.82433
-7.65797
1.42852
2.4456
4.87581
-6.76097
-5.13017
-6.68083
8.84145
-8.40391
-9.2372
9.46499
7.72479
-7.74615
-6.14796
6.32342
6.84148
-6.82006
1.89667
1.91801
10.4903
-10.4871
-10.8926
10.7571
10.249
-10.312
11.4266
-11.4344
-13.3172
13.3243
-5.89561
5.91247
-6.92173
6.90248
-7.1125
7.05921
-4.18023
-4.14267
9.07761
-9.04118
12.4023
-12.4591
-11.7829
12.0189
3.34026
1.50024
3.65639
-2.11476
4.01143
-1.72388
4.35842
4.07233
-8.25256
4.11737
-7.94171
5.97076
6.43155
-5.88066
-1.77731
-6.11629
6.08333
-6.02231
6.01268
9.2119
-9.441
-2.08788
4.00589
-1.73326
4.17885
-3.7708
-2.37716
3.35245
1.52336
5.21957
3.85804
-5.29414
-1.38669
-8.09396
8.02414
-8.45473
8.32853
0.0579125
7.35312
-7.41103
3.62695
-2.5077
9.86082
6.33375
6.63447
7.40261
-7.00339
1.0013
-8.41233
-8.60307
-2.3885
2.44182
2.33156
-2.28586
5.70962
2.01517
5.60751
-5.50478
-2.24137
-5.48554
3.82476
2.49866
3.88529
4.07904
2.76244
4.06009
3.51919
-3.48429
-0.0348999
-3.84664
7.36584
0.521593
-6.22381
-4.70045
6.36471
4.12555
6.26759
-6.8102
-3.67691
-6.58465
-5.98257
-4.91006
-6.13974
6.62192
4.13513
6.51282
-8.08534
8.07942
6.49407
3.75489
6.43376
-6.26259
-4.04936
-6.28752
13.0597
-3.22491
-9.83477
-7.02013
-6.2971
6.95803
4.46853
7.67261
5.65165
7.66685
4.30649
8.75319
-8.77502
2.47792
-3.69852
-2.19709
-3.65739
3.60569
2.30678
3.64015
-4.10291
-2.81882
-4.09776
-4.19101
-2.92149
4.20765
2.69483
-4.3275
-4.12724
4.3794
2.6798
3.70567
-8.83585
4.55871
-8.70138
-6.07376
-2.96743
-5.99603
5.1035
3.3619
-8.46541
-3.14906
12.8681
-6.43653
11.0908
-7.18581
-5.27327
-7.1503
-8.53244
-3.25043
-8.37731
-4.50976
4.27932
-5.00801
4.77457
13.3312
-7.7385
-5.59266
-4.05053
-2.76953
3.88053
-0.224135
-4.35742
4.32252
-0.345996
4.01243
5.51267
5.28853
-3.74911
-2.27321
-3.72504
3.74333
2.26936
3.73838
7.43702
1.77488
7.1819
-6.21331
-3.22769
-6.34272
4.46348
-4.49991
2.50699
-2.54263
5.22199
3.10654
-5.16455
-2.92941
7.38577
-3.53547
-3.8503
-13.9554
11.3491
2.6063
-4.09457
-0.467615
0.289782
-5.74785
-3.48935
5.43625
1.19822
12.5473
9.05796
-7.14042
7.47021
8.25722
8.13626
-0.466812
3.14848
-2.973
5.91851
-3.00137
-2.91714
4.9193
-5.06892
-1.42342
-6.1119
4.68848
0.538584
1.42133
-1.62903
-1.80536
-0.583137
-1.75604
1.43645
0.89511
1.46946
0.899779
1.54204
-3.22414
0.676885
2.54725
-2.32436
-1.60897
-4.10556
-1.66013
5.76569
5.52302
2.50112
-5.55122
0.0656754
2.41762
-2.42363
-0.581583
-3.52398
2.81507
-3.39665
-4.50695
-2.05557
6.56253
-3.2282
-0.496836
3.21584
0.66945
-3.70086
-2.41543
3.69668
0.363416
-3.82974
7.68099
-3.85125
-6.10295
2.935
4.43083
5.43366
-5.974
3.07361
2.90039
-1.54317
5.35836
0.909228
5.23162
-10.9561
7.27917
7.54883
4.47005
-7.80414
1.21948
-9.73659
12.2818
-10.7965
-1.48532
6.3646
5.91718
6.65794
6.67322
-4.04133
10.6993
-1.62165
-9.17482
11.3582
-6.88819
7.41658
-14.3048
-14.0898
4.91498
-8.70425
10.6135
-1.90929
-2.64564
-5.4397
11.3499
-1.0468
-10.3031
5.46602
-6.8371
-6.42711
13.2642
-10.062
10.4765
-3.39061
-7.08586
-6.73178
-4.70262
6.66683
1.41259
-12.4146
14.8925
-3.66141
5.5144
0.919354
5.49606
5.08489
-7.59615
2.51126
4.97712
-8.36773
3.41111
-11.0073
-5.87413
11.704
-5.82984
-8.84156
-7.85245
-0.989104
2.4491
12.4434
-8.10075
6.17151
1.92924
3.15562
0.58276
-3.16177
-0.495617
0.404658
5.35286
-5.75752
4.04481
4.08041
4.08141
1.27145
3.76287
2.32045
-3.74169
-0.356063
-4.74003
1.81854
-2.0452
-4.35778
6.17632
-4.95464
0.596857
-3.24476
-4.37624
7.621
-5.44185
3.77435
3.90664
6.04371
-6.04677
1.67052
-3.03759
-3.00917
3.28411
-5.32931
2.27334
3.90298
4.95314
0.825901
6.00312
5.70085
-9.36502
0.663647
9.55889
-8.1722
1.91354
5.75331
-8.08505
0.232597
-5.76343
1.42488
-7.86141
-7.04052
7.5067
-10.7571
-6.79807
7.22779
-0.0458893
-7.10914
-1.26817
-2.66505
-1.84471
-2.85892
-1.87636
-3.13165
-5.91769
-0.974916
-4.94278
3.30441
-3.77188
-2.36787
3.96459
0.80998
-2.54399
2.54517
-2.99947
2.78019
-0.0674769
4.39
5.22106
2.45153
-2.84683
5.29836
-6.77051
8.54539
-10.2153
3.44476
4.28127
-7.50895
-5.93401
1.98516
2.47832
1.9388
8.69192
-12.8391
4.14721
-9.85319
10.355
-0.501799
-13.8405
3.9873
-5.14858
2.34158
0.165408
2.30754
0.69631
2.51923
-3.21554
-1.84632
-1.88067
-2.69497
-4.19758
6.89255
1.51136
-3.99347
2.48211
-4.08588
5.59724
0.102825
-4.09629
6.01043
-3.4912
6.17584
-3.98306
2.19278
3.89456
6.79126
-2.8967
5.08298
-1.97645
2.04401
-4.9407
-2.15357
-3.66742
5.9742
-3.95358
4.55044
-0.216676
4.76712
-4.73675
1.20129
-0.655343
3.42507
3.49975
5.139
-3.86755
3.65201
-5.62846
-1.28869
-4.80256
-0.899571
-3.47323
-6.32785
9.80108
7.03422
-10.5075
-5.30391
9.13893
-3.83502
6.59606
-5.19708
-1.39898
-1.82467
-2.67524
1.76539
1.38309
7.97915
-0.281022
-4.91606
-3.25402
-2.70084
3.69997
2.21854
-2.31546
4.92176
2.02568
-0.60435
0.339624
1.12983
1.97445
-1.63482
0.532859
1.44159
-1.09617
1.76202
0.655597
-1.78864
0.0325918
-1.23819
4.05326
1.30906
-2.20417
0.569344
1.04737
-4.04874
5.60706
-3.00815
-2.59891
6.65443
1.21607
-4.22422
4.89584
-4.35725
2.52729
-4.18742
-1.69693
-6.05418
-4.03901
-3.21557
5.69769
-3.67697
6.17809
1.19074
-6.24377
7.4345
-4.16961
2.11403
-3.49667
4.15227
-1.42763
-2.06904
3.39313
3.16939
-3.38788
-0.136097
0.00524999
2.83153
-2.82628
-0.565117
-2.88948
-5.41928
5.7827
-2.64152
5.71513
2.65684
-2.40372
8.11885
2.25593
-4.65964
-3.84702
-4.34386
-1.75926
3.67441
-1.11887
-5.16865
-8.20474
5.24246
-0.0108421
-10.6912
12.263
-1.57175
-6.56567
-0.713499
7.0781
-9.38893
1.0212
-5.97782
6.28515
7.19438
7.18354
-10.22
-0.0830592
-6.08491
1.57608
-7.66098
7.49326
-3.38925
8.30424
-8.12
5.75213
-7.31002
6.81891
-0.842071
6.97298
-4.46172
2.86178
-7.5644
-6.15182
8.19411
-4.43921
9.11346
-5.16359
14.2771
-8.825
8.17565
6.10141
-1.55151
-5.59878
-8.0716
6.52008
0.10405
5.60011
5.7801
-3.45965
5.42404
2.72409
-5.76169
-2.60522
-8.08186
2.32017
-4.17522
-2.28632
4.6065
3.75739
4.34015
1.59732
-3.84453
8.34137
-9.33048
-2.51153
-4.52899
8.13299
-1.6129
5.00169
-9.53068
-2.85972
7.38015
-1.17111
-6.20904
0.358352
-7.15642
3.88301
-11.0394
6.87412
-8.14228
0.804489
-5.95307
-1.7395
-1.77489
-1.36233
-1.63714
-4.80893
3.4466
-0.821634
1.72353
-7.64958
6.47847
-2.70541
6.15201
-2.1078
-0.751116
2.27941
0.500777
6.65278
-0.53613
-5.39788
-2.13605
6.37341
-4.23736
1.56392
-6.86398
-0.490576
2.74264
3.91179
-7.43112
-0.0778297
-5.47571
-2.87473
5.35305
6.26421
13.2984
0.459304
5.89898
-0.545928
6.35828
1.39287
1.39532
-4.89402
9.04123
4.90706
8.35182
-0.75365
2.94643
1.55389
1.54624
0.877386
2.24866
1.25109
3.44995
0.234415
-1.64625
4.8651
-7.56594
-0.0509544
-6.80365
2.66134
6.78358
-4.12224
4.96254
-2.744
0.725183
-0.0362263
-1.62452
1.66075
-2.95337
-2.22887
-0.787283
-2.02391
2.59325
2.02935
-1.80597
-1.1474
0.578014
-4.61703
3.6094
-3.7455
-0.576108
6.8584
-3.25979
0.433504
-1.14575
-2.45597
-3.03911
3.00652
7.74257
0.376276
3.89132
6.15897
3.74355
0.283899
5.83047
-7.73976
-5.17679
-7.82282
-0.329559
6.74854
2.60852
9.83491
8.70992
7.09702
-2.43367
-11.7641
10.1533
-1.11211
9.65154
-3.4425
-7.59693
6.7659
1.77949
-6.72001
-1.42227
-9.01921
-10.1313
-0.322569
6.80104
-6.33022
5.5791
3.73439
1.20838
-1.39889
-0.375998
1.42454
-0.0292168
6.32906
-2.20447
-8.77422
10.9787
-4.57911
4.52816
2.39988
2.52188
4.06063
1.31663
-7.4576
-11.5798
-2.45475
-1.59399
-5.05365
0.712038
-2.74139
6.66859
-2.14043
5.2696
8.83826
9.56344
-3.7803
-6.72715
7.61532
-2.34572
7.21773
)
;

boundaryField
{
    wall-4
    {
        type            calculated;
        value           uniform 0;
    }
    velocity-inlet-5
    {
        type            calculated;
        value           uniform -3.75095;
    }
    velocity-inlet-6
    {
        type            calculated;
        value           uniform -5.62643;
    }
    pressure-outlet-7
    {
        type            calculated;
        value           nonuniform List<scalar> 8(3.19468 3.12938 6.59796 6.91751 8.35546 8.08377 8.32253 7.91205);
    }
    wall-8
    {
        type            calculated;
        value           uniform 0;
    }
    frontAndBackPlanes
    {
        type            empty;
        value           nonuniform 0();
    }
}


// ************************************************************************* //
