/*--------------------------------*- C++ -*----------------------------------*\
  =========                 |
  \\      /  F ield         | OpenFOAM: The Open Source CFD Toolbox
   \\    /   O peration     | Website:  https://openfoam.org
    \\  /    A nd           | Version:  7
     \\/     M anipulation  |
\*---------------------------------------------------------------------------*/
FoamFile
{
    version     2.0;
    format      ascii;
    class       volScalarField;
    location    "0.059";
    object      k_0;
}
// * * * * * * * * * * * * * * * * * * * * * * * * * * * * * * * * * * * * * //

dimensions      [0 2 -2 0 0 0 0];

internalField   nonuniform List<scalar> 
12225
(
1.93994e-05
1.7957e-05
1.67405e-05
1.53581e-05
1.41048e-05
1.29257e-05
1.12406e-05
1.02206e-05
8.23434e-06
7.31596e-06
8.02077e-06
9.83014e-06
9.02777e-06
5.74105e-06
4.52344e-06
4.49599e-06
4.36166e-06
5.35549e-06
1.99825e-05
1.98765e-05
1.96875e-05
1.94908e-05
1.91063e-05
1.88413e-05
1.83837e-05
1.77733e-05
1.73821e-05
1.66598e-05
1.60188e-05
1.58736e-05
1.5856e-05
1.58585e-05
1.59119e-05
1.59268e-05
1.58583e-05
1.50762e-05
2.00061e-05
1.95116e-05
1.93462e-05
1.91982e-05
1.89854e-05
1.88507e-05
1.87561e-05
1.86095e-05
1.85314e-05
1.84312e-05
1.82497e-05
1.80991e-05
1.80444e-05
1.80416e-05
1.80563e-05
1.81169e-05
1.81405e-05
1.8102e-05
2.05029e-05
2.03506e-05
1.78487e-05
1.38781e-05
1.34875e-05
1.37286e-05
1.42645e-05
1.51727e-05
1.60468e-05
1.65927e-05
1.67892e-05
1.68526e-05
1.69595e-05
1.71474e-05
1.73201e-05
1.74613e-05
1.75847e-05
1.76446e-05
2.06744e-05
2.17641e-05
2.13749e-05
2.04713e-05
2.02356e-05
2.03556e-05
2.09081e-05
2.11842e-05
2.11815e-05
2.09235e-05
1.98186e-05
1.86993e-05
1.77986e-05
1.66628e-05
1.55579e-05
1.47891e-05
1.43905e-05
1.43283e-05
2.06247e-05
2.29909e-05
2.29459e-05
2.18203e-05
2.13176e-05
2.13622e-05
2.18342e-05
2.30081e-05
2.3647e-05
2.37827e-05
2.37386e-05
2.3519e-05
2.28991e-05
2.13561e-05
1.89074e-05
1.65439e-05
1.48065e-05
1.40515e-05
2.0686e-05
2.10836e-05
2.31267e-05
2.44004e-05
2.48512e-05
2.46678e-05
2.44005e-05
2.45095e-05
2.50644e-05
2.54954e-05
2.55509e-05
2.54058e-05
2.4972e-05
2.44456e-05
2.37266e-05
2.22139e-05
2.10954e-05
2.00283e-05
2.34771e-05
2.29391e-05
2.23362e-05
2.23888e-05
2.34638e-05
2.73135e-05
2.92735e-05
2.96647e-05
2.96374e-05
2.90522e-05
2.69979e-05
2.52092e-05
2.41788e-05
2.36658e-05
2.35027e-05
2.35052e-05
2.36677e-05
2.37319e-05
2.15996e-05
2.14919e-05
2.11563e-05
2.17487e-05
2.49215e-05
2.75541e-05
2.8298e-05
2.83472e-05
2.80383e-05
2.67198e-05
2.51692e-05
2.41627e-05
2.36881e-05
2.35838e-05
2.36058e-05
2.38732e-05
2.5004e-05
2.60296e-05
2.06455e-05
2.27163e-05
2.31064e-05
2.30485e-05
2.38713e-05
2.42764e-05
2.41281e-05
2.37219e-05
2.34599e-05
2.31341e-05
2.27959e-05
2.25919e-05
2.25525e-05
2.25661e-05
2.26233e-05
2.28057e-05
2.34236e-05
2.47053e-05
2.1572e-05
2.31447e-05
2.23901e-05
2.23137e-05
2.35596e-05
2.42688e-05
2.42076e-05
2.36851e-05
2.25635e-05
2.1874e-05
2.15497e-05
2.14108e-05
2.13409e-05
2.13161e-05
2.1328e-05
2.13879e-05
2.15367e-05
2.19558e-05
2.08723e-05
2.10058e-05
2.07313e-05
2.08734e-05
2.20981e-05
2.30924e-05
2.32957e-05
2.3216e-05
2.27521e-05
2.20471e-05
2.16614e-05
2.15015e-05
2.14206e-05
2.1272e-05
2.09964e-05
2.07966e-05
2.07318e-05
2.07567e-05
2.06183e-05
2.04529e-05
2.04212e-05
2.09865e-05
2.17064e-05
2.16918e-05
2.16442e-05
2.17173e-05
2.21142e-05
2.24538e-05
2.25134e-05
2.24944e-05
2.23659e-05
2.19561e-05
2.1517e-05
2.11504e-05
2.08875e-05
2.06987e-05
2.01046e-05
2.07357e-05
2.19248e-05
2.18705e-05
2.18925e-05
2.21892e-05
2.20777e-05
2.18209e-05
2.17882e-05
2.17539e-05
2.17157e-05
2.17297e-05
2.18783e-05
2.24766e-05
2.30809e-05
2.33389e-05
2.33942e-05
2.33591e-05
2.02865e-05
2.03314e-05
2.09748e-05
2.29273e-05
2.36646e-05
2.34792e-05
2.22062e-05
2.10425e-05
2.06232e-05
2.05241e-05
2.05364e-05
2.07075e-05
2.13805e-05
2.23161e-05
2.29356e-05
2.32832e-05
2.34446e-05
2.3499e-05
2.01149e-05
2.08288e-05
2.10772e-05
2.11164e-05
2.11796e-05
2.12804e-05
2.12356e-05
2.1023e-05
2.08725e-05
2.08017e-05
2.07735e-05
2.07887e-05
2.09695e-05
2.16276e-05
2.22364e-05
2.25639e-05
2.26903e-05
2.27289e-05
2.01992e-05
2.03848e-05
2.03746e-05
2.0377e-05
2.04354e-05
2.05005e-05
2.0521e-05
2.05318e-05
2.05435e-05
2.05735e-05
2.06428e-05
2.06947e-05
2.07133e-05
2.07111e-05
2.0671e-05
2.05537e-05
2.05168e-05
2.05322e-05
2.02965e-05
2.07481e-05
2.07274e-05
2.05022e-05
2.04442e-05
2.04917e-05
2.05654e-05
2.05931e-05
2.06334e-05
2.07037e-05
2.0746e-05
2.07529e-05
2.07395e-05
2.06611e-05
2.05287e-05
2.04366e-05
2.03712e-05
2.0333e-05
2.02114e-05
2.10543e-05
2.19392e-05
2.22655e-05
2.18706e-05
2.09137e-05
2.06118e-05
2.0603e-05
2.0754e-05
2.09783e-05
2.10468e-05
2.10459e-05
2.09826e-05
2.0856e-05
2.07719e-05
2.06738e-05
2.06079e-05
2.05503e-05
2.17085e-05
2.15456e-05
2.12352e-05
2.12983e-05
2.13499e-05
2.12023e-05
2.08235e-05
2.07696e-05
2.08666e-05
2.12726e-05
2.15798e-05
2.16879e-05
2.17005e-05
2.1676e-05
2.15438e-05
2.13927e-05
2.1302e-05
2.12461e-05
2.04016e-05
2.04524e-05
2.04772e-05
2.0714e-05
2.10989e-05
2.11393e-05
2.08238e-05
2.05393e-05
2.05027e-05
2.05405e-05
2.07376e-05
2.09601e-05
2.10595e-05
2.10816e-05
2.10747e-05
2.10143e-05
2.09293e-05
2.0907e-05
2.03652e-05
2.11999e-05
2.13637e-05
2.12892e-05
2.08456e-05
2.03736e-05
2.01669e-05
2.0103e-05
2.00867e-05
2.01036e-05
2.02014e-05
2.03142e-05
2.03938e-05
2.05164e-05
2.07835e-05
2.14815e-05
2.22506e-05
2.27231e-05
2.00469e-05
2.04703e-05
2.08498e-05
2.09138e-05
2.08527e-05
2.06337e-05
2.05536e-05
2.05155e-05
2.04257e-05
2.03862e-05
2.0432e-05
2.05658e-05
2.06418e-05
2.0684e-05
2.07385e-05
2.08534e-05
2.11916e-05
2.16598e-05
2.03204e-05
2.03206e-05
2.02279e-05
2.02457e-05
2.05817e-05
2.12516e-05
2.14344e-05
2.13999e-05
2.12335e-05
2.09628e-05
2.07624e-05
2.06255e-05
2.05654e-05
2.05578e-05
2.05648e-05
2.05798e-05
2.05847e-05
2.05926e-05
2.00285e-05
2.02022e-05
2.0292e-05
2.03403e-05
2.06253e-05
2.0976e-05
2.10086e-05
2.0984e-05
2.09133e-05
2.07186e-05
2.04569e-05
2.03433e-05
2.03193e-05
2.03226e-05
2.03514e-05
2.03822e-05
2.03955e-05
2.04029e-05
2.00789e-05
2.06538e-05
2.09832e-05
2.09382e-05
2.10118e-05
2.12146e-05
2.14138e-05
2.13917e-05
2.11639e-05
2.07302e-05
2.05833e-05
2.05675e-05
2.05915e-05
2.06426e-05
2.06595e-05
2.06588e-05
2.0637e-05
2.05419e-05
2.00336e-05
2.01022e-05
2.00988e-05
2.00487e-05
1.98972e-05
1.98016e-05
1.97093e-05
1.96486e-05
1.96539e-05
1.97156e-05
1.99041e-05
2.03908e-05
2.09091e-05
2.11987e-05
2.1279e-05
2.12678e-05
2.11947e-05
2.10101e-05
2.02263e-05
1.89809e-05
1.72005e-05
1.67741e-05
1.78642e-05
2.03753e-05
2.43865e-05
2.73397e-05
3.08512e-05
3.80603e-05
4.86363e-05
5.87602e-05
6.72668e-05
7.37773e-05
7.84354e-05
8.10615e-05
8.31492e-05
8.62079e-05
3.08077e-05
0.000108496
0.000149933
0.000209502
0.000301224
0.000367111
0.000393557
0.000402647
0.000415307
0.000446976
0.00050355
0.000551825
0.000585734
0.000608695
0.000625106
0.000636098
0.000645857
0.000662551
0.00252032
0.00247719
0.00264602
0.00268257
0.00263071
0.00241393
0.0021614
0.00195133
0.00178641
0.00167606
0.00161713
0.00159514
0.00159159
0.00159327
0.0016067
0.00164581
0.00167487
0.00168685
0.000120828
0.000425708
0.000641119
0.000770226
0.000962938
0.00131938
0.00144643
0.00138669
0.00114458
0.000964525
0.000840125
0.000764363
0.000715375
0.00067842
0.000656468
0.000644669
0.000638263
0.000624983
0.000604021
0.000583149
0.000531358
0.000530248
0.00054121
0.000577407
0.000607499
0.000667078
0.00068217
0.000664234
0.000600957
0.000589253
0.000707037
0.00138368
0.00218777
0.00253136
0.00284947
0.00336619
0.00447984
0.00774125
0.0129182
0.0156862
0.0149374
0.0130628
0.0134614
0.023571
0.0488725
0.027247
0.00329022
0.00098836
0.000743138
0.000772515
0.000767083
0.000742617
0.000636569
0.000549874
0.000450146
0.000357011
0.000262451
0.000219235
0.000158914
0.00011959
9.84122e-05
7.69953e-05
6.69718e-05
6.06758e-05
5.83247e-05
5.87712e-05
5.91897e-05
5.98099e-05
6.03895e-05
6.10101e-05
6.16395e-05
6.22605e-05
6.28206e-05
6.33387e-05
6.38697e-05
6.4491e-05
6.52286e-05
6.60056e-05
6.66793e-05
6.69844e-05
6.7099e-05
6.71016e-05
6.66004e-05
6.55798e-05
6.47215e-05
6.40066e-05
6.29949e-05
6.17536e-05
6.01975e-05
5.81839e-05
5.60945e-05
5.42563e-05
5.26173e-05
5.0884e-05
4.86222e-05
4.64143e-05
4.48821e-05
4.29385e-05
4.10044e-05
3.92734e-05
3.74576e-05
3.56924e-05
3.39042e-05
3.20969e-05
3.02561e-05
2.83719e-05
2.64462e-05
2.44721e-05
2.23781e-05
2.01391e-05
1.78287e-05
1.55382e-05
1.33672e-05
1.14035e-05
9.6565e-06
8.1043e-06
6.74875e-06
5.57978e-06
4.58263e-06
3.73932e-06
3.03536e-06
2.45298e-06
1.97373e-06
1.58681e-06
1.27533e-06
1.02534e-06
8.25546e-07
6.66609e-07
5.40671e-07
4.40956e-07
3.61719e-07
2.98247e-07
2.46821e-07
2.04638e-07
1.69654e-07
1.40406e-07
1.15839e-07
9.5166e-08
7.77816e-08
6.31992e-08
5.10172e-08
4.08949e-08
3.25379e-08
2.56881e-08
2.0118e-08
1.56256e-08
1.20332e-08
9.18503e-09
6.94677e-09
5.20381e-09
3.85935e-09
2.83241e-09
2.05602e-09
1.47543e-09
1.04633e-09
7.33137e-10
5.0749e-10
3.47017e-10
2.34348e-10
1.56265e-10
1.02861e-10
6.68263e-11
4.28421e-11
2.71001e-11
1.69097e-11
1.04082e-11
6.31613e-12
3.78089e-12
2.22878e-12
1.29689e-12
7.4078e-13
4.19209e-13
2.28948e-13
1.31177e-13
5.63563e-14
7.71048e-14
8.04481e-13
3.66151e-10
1.74695e-07
4.63881e-07
0.000196557
0.000544802
0.000876644
0.00103746
0.00101816
0.00106227
0.00115975
0.00115873
0.00112956
0.0010677
0.000973953
0.000963581
0.00097924
0.00103034
0.00106879
0.00114006
0.00122155
0.00123942
0.00123283
0.00121234
0.00116668
0.00109165
0.00101472
0.000953626
0.000880167
0.000824698
0.000767689
0.000736682
0.000671754
0.000652988
0.000680306
0.000789843
0.000961625
0.00124231
0.00140538
0.00139574
0.00134567
0.00145227
0.00212411
0.00311073
0.00413272
0.0104823
0.019164
0.0206728
0.0138216
0.00485216
0.00106473
0.000546403
0.000434638
0.000392067
0.000313967
0.000271366
0.000219727
0.000196767
0.000176142
0.000163311
0.000157045
0.000154339
0.000153127
0.000153064
0.000156499
0.000157757
0.000159265
0.000160956
0.000162205
0.00016426
0.00016635
0.000169032
0.000171858
0.000174849
0.000178074
0.00018155
0.000185376
0.000189397
0.000193444
0.000197479
0.000201396
0.000204876
0.000207291
0.000208421
0.000208966
0.000209169
0.000208739
0.000206607
0.000203934
0.000201306
0.000197184
0.000192236
0.000187185
0.000180814
0.000173948
0.000166864
0.000159128
0.000151141
0.000142159
0.000133363
0.000125757
0.000117502
0.000110983
0.000104562
9.87096e-05
9.32797e-05
8.82411e-05
8.35109e-05
7.89966e-05
7.46857e-05
7.06017e-05
6.67323e-05
6.3092e-05
5.96285e-05
5.62008e-05
5.26716e-05
4.89137e-05
4.48308e-05
4.04653e-05
3.60323e-05
3.18262e-05
2.79276e-05
2.43181e-05
2.09902e-05
1.79532e-05
1.52296e-05
1.28367e-05
1.07665e-05
9.00381e-06
7.52354e-06
6.29669e-06
5.29184e-06
4.47596e-06
3.8156e-06
3.28e-06
2.84213e-06
2.47856e-06
2.16967e-06
1.90037e-06
1.66046e-06
1.44397e-06
1.24784e-06
1.07062e-06
9.11488e-07
7.69732e-07
6.4456e-07
5.35052e-07
4.40186e-07
3.58851e-07
2.89864e-07
2.31976e-07
1.83908e-07
1.4439e-07
1.12229e-07
8.63354e-08
6.57136e-08
4.94665e-08
3.68028e-08
2.70423e-08
1.96138e-08
1.40399e-08
9.9197e-09
6.91649e-09
4.75782e-09
3.22811e-09
2.15981e-09
1.42468e-09
9.26397e-10
5.93671e-10
3.74948e-10
2.33263e-10
1.4302e-10
8.62983e-11
5.13534e-11
2.99969e-11
1.73609e-11
9.66626e-12
5.69059e-12
2.50822e-12
5.69506e-12
5.02486e-12
2.17007e-10
3.33054e-08
6.87767e-08
0.00140707
0.00167457
0.00260372
0.00206491
0.00133109
0.00103143
0.000913877
0.000907168
0.000932243
0.00100861
0.00112974
0.00129117
0.00159267
0.00188702
0.0020708
0.00219836
0.00227017
0.00227617
0.00226461
0.00223045
0.00215836
0.00202251
0.00188099
0.00175265
0.00157997
0.00141812
0.00119197
0.00100887
0.000860697
0.000766382
0.000723504
0.000730484
0.000746795
0.000806406
0.000798603
0.000793119
0.000918507
0.00147738
0.00324008
0.00885108
0.0115249
0.0119022
0.0106316
0.0049638
0.00201881
0.000734074
0.00034022
0.000262791
0.000237381
0.000220909
0.000206434
0.000199138
0.000194672
0.000192845
0.000192118
0.000197404
0.000203035
0.000211918
0.000219279
0.0002289
0.00023327
0.000239527
0.000244513
0.000248795
0.00025587
0.000261172
0.000268275
0.00027565
0.000282315
0.000289226
0.000296201
0.000300928
0.00030238
0.000302673
0.000302513
0.000301582
0.0002997
0.000296947
0.000293653
0.000290155
0.000286665
0.00028362
0.000281302
0.000279665
0.0002783
0.000276691
0.000274709
0.000272715
0.000270631
0.000268094
0.000264928
0.00026098
0.000256169
0.000250466
0.000243159
0.000234195
0.000223694
0.000210929
0.000196321
0.000180845
0.00016564
0.000150974
0.000137246
0.000124655
0.000113308
0.000103402
9.5084e-05
8.78586e-05
8.16886e-05
7.65578e-05
7.22387e-05
6.84103e-05
6.48614e-05
6.15159e-05
5.83757e-05
5.52717e-05
5.20048e-05
4.86213e-05
4.5128e-05
4.14172e-05
3.74166e-05
3.31815e-05
2.88781e-05
2.47166e-05
2.08788e-05
1.74405e-05
1.43824e-05
1.17184e-05
9.46924e-06
7.63289e-06
6.17812e-06
5.05186e-06
4.19121e-06
3.53458e-06
3.0287e-06
2.63125e-06
2.31062e-06
2.04415e-06
1.81605e-06
1.6155e-06
1.43532e-06
1.27092e-06
1.11945e-06
9.79259e-07
8.49649e-07
7.30543e-07
6.22078e-07
5.24342e-07
4.37374e-07
3.60986e-07
2.94729e-07
2.37964e-07
1.89929e-07
1.4979e-07
1.1668e-07
8.97268e-08
6.8081e-08
5.0941e-08
3.75704e-08
2.73015e-08
1.95396e-08
1.37689e-08
9.54998e-09
6.51864e-09
4.37742e-09
2.89204e-09
1.87822e-09
1.20005e-09
7.52726e-10
4.65131e-10
2.81542e-10
1.68662e-10
9.73557e-11
5.7987e-11
3.08184e-11
1.64936e-11
4.69268e-11
4.72888e-11
1.49339e-09
4.92646e-09
0.00155293
0.00557715
0.00447746
0.0024211
0.00134745
0.000913872
0.000836635
0.000855962
0.00094796
0.00121922
0.00154859
0.00193412
0.00226448
0.00241221
0.0025462
0.00264545
0.00270672
0.00273894
0.00278869
0.0028016
0.00279359
0.00276417
0.00268714
0.00255405
0.00240193
0.00217653
0.0019121
0.00165107
0.0014205
0.00116922
0.000952552
0.000808627
0.000754132
0.000725852
0.000721742
0.000842173
0.00218396
0.00684027
0.00856746
0.00906015
0.00907984
0.00585617
0.00233911
0.000999994
0.000467644
0.000286633
0.000244258
0.00023656
0.000235173
0.000236494
0.000252677
0.000274728
0.0002855
0.000299379
0.000311656
0.000318722
0.000322919
0.000325812
0.000327311
0.000330134
0.000332768
0.000335879
0.000339392
0.000344205
0.000350285
0.000355701
0.000358783
0.000359659
0.00035983
0.000359536
0.000357948
0.000354609
0.000349639
0.000343576
0.000337294
0.000330905
0.000323531
0.000315115
0.000306735
0.000299361
0.000292987
0.000288027
0.000284861
0.000283145
0.000282202
0.000281416
0.000280602
0.000279947
0.000279217
0.000278254
0.000276803
0.000274756
0.000272529
0.00027006
0.00026696
0.000263152
0.000258287
0.000251692
0.000244251
0.000234846
0.000223555
0.000210671
0.000196613
0.000181881
0.000166744
0.000151243
0.000135638
0.000120598
0.000106447
9.4152e-05
8.50978e-05
7.86656e-05
7.39859e-05
7.03936e-05
6.73998e-05
6.48451e-05
6.26035e-05
6.05544e-05
5.86556e-05
5.68236e-05
5.48015e-05
5.23348e-05
4.92609e-05
4.55705e-05
4.12926e-05
3.64607e-05
3.11979e-05
2.57268e-05
2.04057e-05
1.56367e-05
1.16965e-05
8.66809e-06
6.47004e-06
4.91639e-06
3.8198e-06
3.03869e-06
2.4757e-06
2.06424e-06
1.75797e-06
1.52418e-06
1.33967e-06
1.18842e-06
1.05974e-06
9.46793e-07
8.45094e-07
7.51635e-07
6.64559e-07
5.83007e-07
5.06628e-07
4.35564e-07
3.70229e-07
3.11022e-07
2.58186e-07
2.11755e-07
1.7156e-07
1.37268e-07
1.08422e-07
8.45022e-08
6.49668e-08
4.92558e-08
3.68101e-08
2.71017e-08
1.96467e-08
1.40156e-08
9.83392e-09
6.78371e-09
4.59905e-09
3.06439e-09
2.00626e-09
1.29034e-09
8.15357e-10
5.04924e-10
3.08732e-10
1.81905e-10
1.10335e-10
5.7516e-11
3.99028e-11
2.09472e-11
6.11413e-11
2.70391e-10
0.00101254
0.00649389
0.00379387
0.00151321
0.000922851
0.00080834
0.000824492
0.000942168
0.00127801
0.00178358
0.00201031
0.00225324
0.00247939
0.00254594
0.00268212
0.00278542
0.00291874
0.00303634
0.00310695
0.00317162
0.00323344
0.00323142
0.00319771
0.00310412
0.00290345
0.00263141
0.00233086
0.00200138
0.00164189
0.0014461
0.00120898
0.000996268
0.000815778
0.000743765
0.000859133
0.0031864
0.00685868
0.00736304
0.00745382
0.0056399
0.00296136
0.00154055
0.000652025
0.000376925
0.000290422
0.000265416
0.000259475
0.00027004
0.000292199
0.000320416
0.000336048
0.000342514
0.000345929
0.000348862
0.000350156
0.000350537
0.00035046
0.000350352
0.000350492
0.000351638
0.000354539
0.000358097
0.000361691
0.00036757
0.000373968
0.000376345
0.000376879
0.000376805
0.000375527
0.000372246
0.000366788
0.000359559
0.000351481
0.000342529
0.000332
0.000320047
0.000307047
0.000296654
0.00028785
0.000280869
0.000275943
0.000272481
0.000271709
0.000271727
0.000272161
0.000273026
0.000274208
0.000275052
0.000275303
0.000275099
0.000273322
0.000270328
0.000266939
0.000263482
0.000260184
0.000256827
0.000253778
0.000250116
0.000245114
0.000238444
0.000230102
0.000220218
0.000208872
0.000196558
0.000184096
0.000171677
0.000159368
0.000147395
0.000135562
0.000122894
0.00010857
9.47396e-05
8.39446e-05
7.67255e-05
7.17711e-05
6.82583e-05
6.56061e-05
6.34191e-05
6.14965e-05
5.98189e-05
5.84145e-05
5.71252e-05
5.55688e-05
5.3443e-05
5.08256e-05
4.80428e-05
4.5218e-05
4.2116e-05
3.83139e-05
3.35725e-05
2.81858e-05
2.27774e-05
1.7872e-05
1.37106e-05
1.03451e-05
7.72701e-06
5.75053e-06
4.28914e-06
3.22323e-06
2.45397e-06
1.90376e-06
1.51228e-06
1.23306e-06
1.03098e-06
8.80376e-07
7.63366e-07
6.68322e-07
5.87419e-07
5.15203e-07
4.48011e-07
3.85021e-07
3.26879e-07
2.74082e-07
2.26957e-07
1.85615e-07
1.49954e-07
1.1969e-07
9.4394e-08
7.35304e-08
5.65436e-08
4.2904e-08
3.21089e-08
2.36902e-08
1.72238e-08
1.23338e-08
8.69541e-09
6.03289e-09
4.11686e-09
2.7622e-09
1.82155e-09
1.18082e-09
7.5125e-10
4.704e-10
2.87412e-10
1.74832e-10
1.00394e-10
6.22118e-11
3.05927e-11
2.27408e-11
2.60184e-11
0.00309597
0.00308954
0.00178021
0.00101329
0.000835092
0.000845927
0.000945602
0.00127068
0.00168674
0.00201081
0.00218514
0.00241955
0.0027928
0.00304553
0.00357985
0.00392012
0.00428097
0.00472757
0.00494046
0.00524604
0.00521983
0.00508485
0.00477145
0.00438303
0.00389574
0.00330153
0.00288203
0.00251391
0.00217285
0.00173088
0.00143554
0.00116593
0.00085283
0.000871365
0.00278114
0.00606059
0.00663303
0.00611299
0.0036755
0.00195282
0.000995578
0.000571951
0.000387766
0.000334197
0.000316882
0.000325765
0.000347521
0.000368473
0.000379007
0.00038222
0.000380813
0.000376401
0.000375586
0.000375263
0.000375515
0.000376454
0.000377693
0.000379596
0.000382709
0.000386709
0.000390712
0.000394138
0.000397765
0.000400446
0.00040143
0.000401601
0.000399794
0.000394263
0.00038739
0.000380894
0.000372719
0.00036239
0.000352462
0.00034072
0.000327197
0.000315073
0.000302013
0.00029497
0.000288354
0.000284899
0.000284587
0.000285971
0.000289625
0.000292634
0.000295138
0.000297282
0.000298641
0.000299051
0.000298913
0.000297642
0.00029398
0.000288134
0.000280314
0.000271928
0.000263647
0.000256474
0.000250498
0.000244898
0.000238962
0.000231689
0.000223182
0.00021331
0.000202732
0.000192294
0.000182549
0.000172753
0.000162058
0.000151442
0.000141368
0.000132064
0.000123152
0.000113365
0.000101691
8.95024e-05
7.99358e-05
7.33451e-05
6.87804e-05
6.55385e-05
6.30661e-05
6.10247e-05
5.93153e-05
5.79632e-05
5.69254e-05
5.58883e-05
5.43475e-05
5.20448e-05
4.93158e-05
4.67082e-05
4.44402e-05
4.23062e-05
3.9698e-05
3.6039e-05
3.12814e-05
2.59694e-05
2.07808e-05
1.61712e-05
1.23165e-05
9.22564e-06
6.81244e-06
4.96316e-06
3.57593e-06
2.56169e-06
1.83955e-06
1.33794e-06
9.96556e-07
7.66935e-07
6.11712e-07
5.04111e-07
4.26663e-07
3.68972e-07
3.23185e-07
2.83205e-07
2.45475e-07
2.09489e-07
1.7593e-07
1.45373e-07
1.18209e-07
9.46119e-08
7.45693e-08
5.78975e-08
4.42931e-08
3.33897e-08
2.48004e-08
1.81468e-08
1.30777e-08
9.27901e-09
6.48018e-09
4.45221e-09
3.00873e-09
1.9976e-09
1.304e-09
8.34453e-10
5.26059e-10
3.2276e-10
1.97819e-10
1.14295e-10
6.96981e-11
3.71764e-11
2.40618e-11
1.62567e-11
0.00132088
0.00154907
0.00126582
0.000919116
0.00089711
0.000948331
0.00112254
0.00151541
0.00185841
0.00222696
0.00275253
0.00345604
0.00421533
0.00488692
0.00552863
0.00598816
0.00658467
0.00790817
0.00853705
0.00958655
0.00981994
0.00959524
0.00896586
0.00764872
0.0059644
0.00445064
0.00341947
0.00278504
0.00235325
0.00191322
0.00156767
0.00114439
0.000925805
0.00211178
0.00528874
0.00588569
0.00530272
0.00279739
0.00147218
0.000822465
0.000534749
0.000434436
0.000405267
0.000404508
0.000437019
0.000450123
0.000450528
0.000439237
0.000437259
0.000432683
0.000424502
0.000421735
0.000421111
0.000424196
0.000432537
0.000440216
0.000451621
0.000462683
0.00047606
0.000491383
0.000499161
0.000501434
0.00049998
0.000484777
0.000475338
0.000470692
0.000458425
0.00043558
0.000413729
0.000403204
0.000392863
0.000375949
0.00036409
0.000352576
0.000335432
0.00032595
0.000313617
0.000310604
0.000310286
0.000310963
0.00031231
0.000312392
0.000310758
0.000309057
0.000307693
0.000306818
0.000305861
0.000304985
0.000303662
0.000301657
0.000298265
0.000292857
0.000285235
0.000276631
0.000267605
0.000259546
0.000253319
0.000248909
0.000245025
0.000240106
0.00023122
0.000216416
0.000198387
0.000181779
0.000167001
0.000156437
0.000151368
0.000147175
0.000139969
0.000131894
0.000124141
0.000116926
0.000109539
0.000101232
9.13816e-05
8.16345e-05
7.4131e-05
6.88208e-05
6.50668e-05
6.23001e-05
6.00963e-05
5.82938e-05
5.69299e-05
5.60061e-05
5.52882e-05
5.42845e-05
5.24577e-05
4.97327e-05
4.6742e-05
4.41664e-05
4.22525e-05
4.07474e-05
3.89872e-05
3.62759e-05
3.23594e-05
2.75682e-05
2.25497e-05
1.78592e-05
1.37793e-05
1.03893e-05
7.65396e-06
5.50196e-06
3.86147e-06
2.65534e-06
1.80063e-06
1.21624e-06
8.29852e-07
5.81634e-07
4.25125e-07
3.26101e-07
2.6154e-07
2.17579e-07
1.86515e-07
1.62396e-07
1.40938e-07
1.20415e-07
1.01011e-07
8.31379e-08
6.714e-08
5.32202e-08
4.14277e-08
3.16827e-08
2.3814e-08
1.75967e-08
1.27846e-08
9.1328e-09
6.41443e-09
4.42858e-09
3.00502e-09
2.00329e-09
1.3118e-09
8.43089e-10
5.32064e-10
3.29051e-10
1.99989e-10
1.18749e-10
6.93537e-11
3.96745e-11
2.21871e-11
1.26031e-11
0.000692503
0.00139448
0.00122649
0.000959057
0.000936914
0.00101198
0.00128471
0.00169891
0.00232702
0.00328609
0.00435613
0.00497018
0.00551849
0.00605715
0.00672514
0.00791478
0.0103082
0.0129092
0.0146537
0.0165555
0.0168902
0.0165541
0.0154046
0.0133187
0.0105833
0.00757903
0.00509213
0.00353364
0.00254972
0.00193881
0.00151993
0.00110388
0.00156092
0.00452872
0.00528686
0.00499403
0.00247747
0.00127775
0.000750938
0.000537948
0.000469941
0.00045601
0.000499799
0.000527235
0.000533965
0.000529101
0.000499851
0.000488238
0.000483227
0.000478274
0.000476671
0.000484975
0.000501216
0.000529168
0.000564575
0.000604124
0.00064931
0.000689541
0.000727829
0.000767858
0.00080102
0.000813666
0.000814748
0.000776441
0.000710382
0.000679749
0.000658627
0.000611187
0.000535555
0.000487394
0.000463731
0.000430451
0.000397886
0.000383072
0.000363227
0.000353133
0.000345214
0.000340601
0.000338486
0.000335225
0.000330351
0.000323348
0.000316787
0.000311363
0.000304394
0.000296526
0.000288473
0.000281118
0.000273982
0.000266689
0.000258942
0.000250178
0.000239868
0.000228252
0.000217067
0.000209236
0.000206738
0.00021247
0.000226275
0.000238889
0.000245296
0.00024551
0.000234205
0.000203936
0.000170821
0.00014708
0.000131457
0.000124429
0.00012476
0.000123757
0.000118071
0.000112879
0.000108445
0.000103262
9.69286e-05
8.96026e-05
8.14301e-05
7.39522e-05
6.82508e-05
6.40878e-05
6.10763e-05
5.87988e-05
5.69935e-05
5.56296e-05
5.47496e-05
5.42148e-05
5.35979e-05
5.23532e-05
5.00438e-05
4.69238e-05
4.38099e-05
4.13473e-05
3.9738e-05
3.86863e-05
3.75254e-05
3.55485e-05
3.23748e-05
2.81301e-05
2.33659e-05
1.87013e-05
1.4508e-05
1.0924e-05
7.973e-06
5.63345e-06
3.85645e-06
2.56504e-06
1.6659e-06
1.06489e-06
6.78328e-07
4.38302e-07
2.93602e-07
2.07815e-07
1.5637e-07
1.24331e-07
1.03572e-07
8.9142e-08
7.72477e-08
6.60021e-08
5.52428e-08
4.52268e-08
3.62101e-08
2.83634e-08
2.17506e-08
1.63405e-08
1.20339e-08
8.69171e-09
6.15922e-09
4.28315e-09
2.92325e-09
1.95808e-09
1.28722e-09
8.30319e-10
5.25472e-10
3.2612e-10
1.98474e-10
1.18396e-10
6.91551e-11
3.9647e-11
2.22223e-11
1.22698e-11
0.000829988
0.00188805
0.00131966
0.000978893
0.000951542
0.00110567
0.00160592
0.00234875
0.00362059
0.00456258
0.00511867
0.00556798
0.00604735
0.00701534
0.00906212
0.0122295
0.0152376
0.0182943
0.0206218
0.0221617
0.0227383
0.0225738
0.0218095
0.0196712
0.0147421
0.00930945
0.00545678
0.00350658
0.00247233
0.00184828
0.00140579
0.00138307
0.00366924
0.00474485
0.00481025
0.00269321
0.00124814
0.000726868
0.000539125
0.000487616
0.000481158
0.000533911
0.000577114
0.000585698
0.000584529
0.000556295
0.000528128
0.000520605
0.000518309
0.000530347
0.000553242
0.00059571
0.000657695
0.000745151
0.00085305
0.000981977
0.00112127
0.00125189
0.00136383
0.00146071
0.00155655
0.00163889
0.0016699
0.00166624
0.00150645
0.00132336
0.00123355
0.00114816
0.000980695
0.000790948
0.000705525
0.000623478
0.000518137
0.000471667
0.000434362
0.000407696
0.000393994
0.000383029
0.000376952
0.000368719
0.000361903
0.000354806
0.000346595
0.000334315
0.000321005
0.000307833
0.000295734
0.000284966
0.000274984
0.000265189
0.000254642
0.000242551
0.000228378
0.000211052
0.00019096
0.000170595
0.000152861
0.000139853
0.000135893
0.000152381
0.000194301
0.000237242
0.000256234
0.00025797
0.000237711
0.000184143
0.000138429
0.00011489
0.000105324
0.000105072
0.000107653
0.000105201
9.95254e-05
9.70722e-05
9.52563e-05
9.13029e-05
8.59774e-05
7.9669e-05
7.29092e-05
6.70954e-05
6.26292e-05
5.93626e-05
5.70054e-05
5.52657e-05
5.40156e-05
5.32469e-05
5.28307e-05
5.24014e-05
5.15442e-05
4.96902e-05
4.68115e-05
4.35563e-05
4.06492e-05
3.8548e-05
3.73292e-05
3.6669e-05
3.59375e-05
3.44475e-05
3.17519e-05
2.78528e-05
2.32062e-05
1.85197e-05
1.42468e-05
1.05685e-05
7.55314e-06
5.20139e-06
3.45731e-06
2.22442e-06
1.39091e-06
8.50371e-07
5.13324e-07
3.10832e-07
1.93244e-07
1.26737e-07
8.93188e-08
6.76852e-08
5.46943e-08
4.64689e-08
4.0178e-08
3.43131e-08
2.8639e-08
2.33002e-08
1.84706e-08
1.42747e-08
1.07654e-08
7.93042e-09
5.71164e-09
4.02485e-09
2.77666e-09
1.87618e-09
1.24205e-09
8.05765e-10
5.12273e-10
3.1922e-10
1.94914e-10
1.16666e-10
6.83941e-11
3.93002e-11
2.21095e-11
1.22173e-11
0.00096055
0.00224903
0.00127438
0.000958619
0.000970093
0.00136733
0.00229045
0.00333119
0.00442771
0.00501863
0.00542278
0.00582226
0.00651616
0.00800516
0.0106653
0.0141994
0.0174569
0.0206398
0.0234997
0.0246596
0.0246401
0.02408
0.0225417
0.0194806
0.0140745
0.00865252
0.00502553
0.00320145
0.00215456
0.00168096
0.00154375
0.00283028
0.00426583
0.00448633
0.0032383
0.00135847
0.00074015
0.000533789
0.000477547
0.000471065
0.00052863
0.00059165
0.000609409
0.000612202
0.000604703
0.000574023
0.000563106
0.000562579
0.000590026
0.000638723
0.000713089
0.000819116
0.000967438
0.00118084
0.00145797
0.00180463
0.00220242
0.00262605
0.00302574
0.0033506
0.00356922
0.0037021
0.00376181
0.00374889
0.00352754
0.0030252
0.00264701
0.00238287
0.00207222
0.00166507
0.00139062
0.0011734
0.000929089
0.000780751
0.000644972
0.000569436
0.000509531
0.000479871
0.000465225
0.000460314
0.000461783
0.000465088
0.000459129
0.000443649
0.000424151
0.000403391
0.000384356
0.000368768
0.000355973
0.000345117
0.000334255
0.000322442
0.00030836
0.000289299
0.000260951
0.000221252
0.000178419
0.000144326
0.000118949
0.000105672
0.000104475
0.000127983
0.000201536
0.000257261
0.000269276
0.000260726
0.000211073
0.000140032
0.00010532
9.34534e-05
9.15737e-05
9.44744e-05
9.41796e-05
8.91096e-05
8.57817e-05
8.53589e-05
8.48343e-05
8.21127e-05
7.6786e-05
7.11267e-05
6.556e-05
6.09059e-05
5.73368e-05
5.47705e-05
5.30419e-05
5.20343e-05
5.15094e-05
5.12369e-05
5.092e-05
5.02627e-05
4.87094e-05
4.60374e-05
4.2893e-05
3.99208e-05
3.75878e-05
3.60368e-05
3.51486e-05
3.46372e-05
3.40953e-05
3.30353e-05
3.06259e-05
2.66465e-05
2.18962e-05
1.71643e-05
1.29068e-05
9.31371e-06
6.45316e-06
4.30048e-06
2.7633e-06
1.71689e-06
1.03501e-06
6.08324e-07
3.51287e-07
2.01928e-07
1.18066e-07
7.2413e-08
4.80031e-08
3.47837e-08
2.74191e-08
2.31299e-08
2.00201e-08
1.71018e-08
1.42172e-08
1.14679e-08
8.9745e-09
6.82163e-09
5.04371e-09
3.63256e-09
2.5516e-09
1.74983e-09
1.17252e-09
7.68203e-10
4.92356e-10
3.08824e-10
1.89617e-10
1.13999e-10
6.71142e-11
3.87048e-11
2.18551e-11
1.21204e-11
0.00124276
0.0024173
0.00107078
0.000938556
0.00106798
0.00190678
0.00295243
0.00387775
0.00473449
0.0051612
0.00550606
0.00588223
0.00662017
0.00823228
0.0110278
0.0146992
0.0181398
0.0212626
0.0231794
0.0238322
0.0238167
0.0229728
0.0209801
0.0171536
0.0115002
0.00646806
0.00370988
0.002403
0.00189921
0.00177054
0.00241662
0.00379876
0.00413024
0.00358527
0.00158492
0.000786496
0.00053085
0.000456424
0.000443729
0.000473445
0.000558958
0.000609333
0.000621552
0.000622781
0.000612642
0.000596725
0.000592855
0.00061583
0.000680597
0.000788034
0.000953538
0.00119641
0.00154594
0.00204215
0.00269778
0.00353126
0.00447876
0.00545955
0.00645959
0.00727385
0.00771063
0.0078814
0.00780404
0.00733303
0.0068125
0.00597998
0.00505165
0.00441732
0.00362592
0.00311219
0.00264519
0.0021715
0.00180935
0.00148679
0.00122398
0.00101076
0.000854049
0.000743579
0.000683525
0.000651201
0.000625733
0.000595614
0.000562546
0.000528841
0.000495374
0.000464537
0.000436775
0.000414292
0.000396489
0.000383507
0.000373611
0.000366329
0.000361944
0.00036017
0.000360352
0.000356091
0.000330573
0.000270776
0.000191797
0.000128612
9.86562e-05
9.31281e-05
0.000103348
0.000167243
0.000250142
0.000269881
0.000262875
0.000221121
0.000140153
9.91489e-05
8.56763e-05
8.27877e-05
8.41722e-05
8.44639e-05
8.11093e-05
7.77358e-05
7.71232e-05
7.71761e-05
7.66571e-05
7.37015e-05
6.86494e-05
6.35101e-05
5.89209e-05
5.51621e-05
5.23778e-05
5.06025e-05
4.97676e-05
4.94725e-05
4.93348e-05
4.91356e-05
4.86838e-05
4.74782e-05
4.48632e-05
4.17754e-05
3.88098e-05
3.64016e-05
3.47243e-05
3.37165e-05
3.3172e-05
3.28065e-05
3.22835e-05
3.12115e-05
2.8672e-05
2.42993e-05
1.93737e-05
1.47169e-05
1.06872e-05
7.43129e-06
4.9586e-06
3.18372e-06
1.97253e-06
1.18259e-06
6.88052e-07
3.89833e-07
2.16248e-07
1.18698e-07
6.58056e-08
3.81017e-08
2.39458e-08
1.66959e-08
1.29304e-08
1.09105e-08