/*--------------------------------*- C++ -*----------------------------------*\
  =========                 |
  \\      /  F ield         | OpenFOAM: The Open Source CFD Toolbox
   \\    /   O peration     | Website:  https://openfoam.org
    \\  /    A nd           | Version:  7
     \\/     M anipulation  |
\*---------------------------------------------------------------------------*/
FoamFile
{
    version     2.0;
    format      ascii;
    class       volScalarField;
    location    "0.059";
    object      nut;
}
// * * * * * * * * * * * * * * * * * * * * * * * * * * * * * * * * * * * * * //

dimensions      [0 2 -1 0 0 0 0];

internalField   nonuniform List<scalar> 
12225
(
0
0
0
0
0
0
0
0
0
0
0
0
0
0
0
0
0
0
0
0
0
0
0
0
0
0
0
0
0
0
0
0
0
0
0
0
0
1.0595e-09
8.38267e-10
3.69432e-10
1.46966e-10
0
0
0
0
0
0
0
0
0
0
0
0
0
3.44566e-09
2.72548e-08
1.40014e-08
3.99756e-09
9.58753e-10
5.83546e-11
0
0
0
0
0
0
0
0
0
0
0
0
1.94538e-07
2.63022e-07
2.74585e-07
0
0
0
0
0
0
0
0
0
0
0
2.94787e-10
2.82384e-10
1.22992e-09
0
7.74133e-07
3.26335e-07
2.65763e-07
4.65001e-08
0
1.13518e-08
0
0
0
0
0
6.99392e-09
5.74382e-09
2.62499e-09
2.87236e-09
2.4649e-09
3.36339e-09
0
1.53189e-06
4.59071e-07
2.01164e-07
1.96407e-08
0
2.70331e-08
0
0
0
0
0
0
0
9.95241e-08
1.37067e-07
1.02723e-07
6.2523e-08
3.13617e-08
1.9897e-06
1.09385e-06
2.22877e-07
2.9145e-08
5.28471e-08
8.67049e-08
4.34736e-08
0
0
0
0
0
0
1.36448e-07
1.15194e-07
8.34727e-08
7.5556e-08
7.23506e-08
2.34381e-06
1.47622e-06
5.18445e-07
1.43221e-07
1.96222e-07
2.1069e-07
1.20108e-07
0
0
0
0
0
0
1.87357e-08
1.99236e-09
0
9.78699e-09
3.73585e-08
9.14322e-07
1.03718e-06
7.07534e-07
3.8117e-07
4.06269e-07
3.96675e-07
2.16278e-07
5.57843e-10
0
0
0
0
1.55122e-09
0
0
0
0
0
4.0702e-07
5.01221e-07
4.91167e-07
3.2146e-07
1.49172e-07
1.50448e-07
6.99727e-08
0
0
0
0
0
3.00179e-09
0
0
0
0
0
1.56939e-07
2.8634e-07
1.74667e-07
0
1.67602e-08
3.14809e-08
0
0
0
0
0
0
0
0
0
0
0
0
8.10688e-08
3.84417e-07
1.12356e-07
3.79044e-07
9.8305e-07
6.12386e-07
0
0
0
0
1.43773e-08
0
0
0
0
0
0
0
4.38892e-07
3.56716e-07
5.20128e-07
1.46269e-06
1.93243e-06
1.42054e-06
4.63158e-07
0
0
0
0
0
0
0
0
0
0
0
5.4193e-07
2.72217e-07
7.17188e-08
1.11057e-06
1.47024e-06
1.12539e-06
8.60683e-07
0
0
0
0
4.73517e-08
0
0
0
0
0
0
0
4.30226e-08
0
0
5.08402e-07
4.69187e-07
2.86564e-07
2.40437e-08
0
0
0
0
0
0
0
0
0
0
1.30055e-07
1.17956e-07
0
0
0
3.37132e-07
2.6386e-07
7.09943e-08
3.0993e-08
7.14734e-08
6.63296e-08
0
0
0
0
0
0
0
2.10136e-07
4.55447e-07
4.08413e-07
4.07083e-07
5.89014e-07
5.75297e-07
1.04956e-07
0
0
0
0
0
0
0
5.61327e-08
1.16813e-07
0
0
0
0
0
0
9.03132e-07
8.55788e-08
0
0
0
0
0
0
0
0
7.69007e-08
8.90536e-08
1.24237e-08
0
6.25676e-07
4.99239e-07
4.74117e-08
0
5.07141e-07
3.77348e-07
1.37899e-08
0
0
0
0
0
0
9.7665e-09
2.79717e-08
4.63746e-08
5.73389e-08
6.44811e-08
4.62456e-07
0
0
0
0
1.9664e-07
1.96945e-07
0
0
0
0
0
0
0
0
0
0
1.20945e-09
0
0
0
0
0
0
1.51148e-07
1.91476e-07
4.10895e-08
0
0
0
0
0
0
0
9.94218e-08
2.01563e-07
8.53254e-08
0
0
0
8.54424e-08
3.69721e-07
2.9082e-07
1.78856e-07
8.80475e-08
5.46755e-09
0
0
0
0
0
0
0
6.19691e-08
0
0
0
0
2.14735e-07
4.44789e-07
4.10271e-07
2.50633e-07
1.2933e-07
6.70746e-08
4.04811e-08
2.51861e-08
0
0
0
0
0
0
0
0
0
0
1.01424e-07
2.90889e-07
3.52871e-07
2.62064e-07
1.5067e-07
7.89544e-08
3.36443e-08
0
0
0
0
0
0
0
0
0
0
0
8.50436e-08
2.17947e-07
2.40846e-07
1.7039e-07
8.76214e-08
9.26411e-09
0
0
0
0
0
0
0
0
0
0
0
0
0
0
0
0
0
0
0
0
0
0
0
0
0
0
6.76122e-09
0
0
0
0
0
0
0
0
0
0
0
0
0
0
0
0
0
7.93666e-09
0
0
0
0
0
0
0
0
0
0
0
0
0
0
0
0
0
6.34114e-08
0
0
0
0
0
0
0
0
0
0
0
0
0
0
0
0
0
0
0
0
0
0
4.12846e-07
5.36492e-07
3.17628e-07
4.14215e-08
0
0
0
0
0
0
0
0
0
0
0
1.16821e-09
2.53561e-08
4.43416e-08
5.78985e-08
6.24128e-08
5.66587e-08
3.44941e-08
2.95761e-09
0
1.95479e-08
1.20246e-07
1.81683e-07
0
0
0
0
0
1.09628e-06
3.10452e-06
5.38807e-06
6.47682e-06
7.88398e-06
1.04679e-05
1.77945e-05
2.43871e-05
1.11292e-05
1.72355e-06
2.5522e-07
2.27478e-09
0
0
1.81766e-08
3.25748e-08
3.85739e-08
3.79054e-08
3.36181e-08
2.71855e-08
2.24106e-08
1.6536e-08
1.19912e-08
8.66439e-09
5.7121e-09
3.54836e-09
1.74749e-09
1.88415e-10
0
0
0
0
0
0
0
0
0
0
0
0
0
0
0
0
0
0
0
0
0
0
0
0
0
0
0
0
0
0
0
0
0
0
0
0
0
0
0
0
0
0
0
0
0
0
0
0
0
0
0
0
0
0
0
0
0
0
0
0
0
0
0
0
0
0
0
0
0
0
0
0
0
0
0
0
0
0
0
0
0
0
0
0
0
0
0
0
0
0
0
0
0
0
0
0
0
0
0
0
0
0
0
0
0
0
0
0
0
0
0
0
0
8.64398e-11
5.58098e-11
0
0
0
0
1.45175e-07
5.71477e-07
8.14836e-07
7.91399e-07
5.75914e-07
2.82883e-07
2.95106e-08
0
0
0
0
0
0
0
0
0
3.89232e-09
4.11831e-08
6.7281e-08
8.11083e-08
7.93839e-08
6.33712e-08
3.41372e-08
1.02379e-08
2.06155e-08
1.62628e-07
3.66789e-07
4.11514e-07
2.99356e-07
2.10119e-07
0
0
0
0
0
0
0
0
1.55573e-07
2.13293e-08
7.00351e-07
1.20198e-06
5.85055e-07
1.79745e-07
1.85021e-08
0
2.1307e-09
1.67168e-08
2.49331e-08
2.88044e-08
2.8922e-08
2.73144e-08
2.49106e-08
2.20424e-08
1.89062e-08
1.56872e-08
1.25905e-08
9.41582e-09
6.32563e-09
3.34975e-09
4.89373e-10
0
0
0
0
0
0
0
0
0
0
0
0
0
0
0
0
0
0
0
0
0
0
0
0
0
0
0
0
0
0
0
0
0
0
0
0
0
0
0
0
0
0
0
0
0
0
0
0
0
0
0
0
0
0
0
0
0
0
0
0
0
0
0
0
0
0
0
0
0
0
0
0
0
0
0
0
0
0
0
0
0
0
0
0
0
0
0
0
0
0
0
0
0
0
0
0
0
0
0
0
0
0
0
0
0
0
0
0
0
0
6.14315e-15
0
6.26053e-13
7.89565e-11
0
1.0051e-06
9.24305e-07
7.45398e-08
0
2.16923e-07
5.59164e-07
7.56137e-07
8.21592e-07
8.31881e-07
8.44018e-07
8.59292e-07
8.63502e-07
8.68945e-07
8.06384e-07
6.50964e-07
4.37121e-07
2.15622e-07
4.95233e-08
0
0
0
0
0
0
0
0
0
0
0
2.61152e-07
5.69539e-07
6.58433e-07
6.19934e-07
4.00716e-07
0
0
0
0
0
0
0
0
0
0
0
1.93058e-07
1.72363e-07
2.90311e-08
0
3.30387e-10
2.70919e-08
5.55198e-08
7.55655e-08
8.59208e-08
8.72536e-08
8.34984e-08
7.59047e-08
6.68478e-08
5.67648e-08
4.68814e-08
3.68402e-08
2.75451e-08
1.87552e-08
1.05265e-08
2.79339e-09
0
0
0
0
0
0
0
0
0
0
0
0
0
0
0
0
0
0
0
0
0
0
0
0
0
0
0
0
0
0
0
0
0
0
0
0
0
0
0
0
0
0
0
0
0
0
0
0
0
0
0
0
0
8.68128e-10
1.45018e-09
1.63794e-09
1.54975e-09
1.32894e-09
1.03665e-09
7.03217e-10
3.8692e-10
1.0924e-10
0
0
0
0
0
0
0
0
0
0
0
0
0
0
0
0
0
0
0
0
0
0
0
0
0
0
0
0
0
0
0
0
0
0
0
0
0
0
0
0
0
0
0
0
0
0
0
0
1.82231e-14
8.28909e-13
0
3.28243e-11
0
3.48028e-06
1.66822e-06
4.61074e-07
2.36482e-07
3.56846e-07
6.26343e-07
7.77291e-07
8.46973e-07
9.47935e-07
1.1196e-06
1.28284e-06
1.4258e-06
1.49797e-06
1.45063e-06
1.32818e-06
1.11564e-06
8.25442e-07
5.13362e-07
2.85567e-07
2.28006e-07
2.83716e-07
2.33897e-07
0
0
0
0
0
0
0
0
0
0
0
0
0
0
0
0
0
0
9.93374e-09
0
5.10877e-08
0
0
0
0
0
0
1.17076e-08
8.82751e-08
1.79687e-07
2.71472e-07
3.57417e-07
4.24927e-07
4.64982e-07
4.7831e-07
4.68467e-07
4.37152e-07
3.85549e-07
3.11421e-07
2.18983e-07
1.20738e-07
3.444e-08
0
0
0
0
0
0
0
0
0
0
0
0
0
0
0
0
0
0
0
0
0
0
0
0
0
0
0
0
0
0
0
0
0
0
0
0
0
0
0
0
0
0
0
0
0
0
0
0
0
0
0
0
0
0
0
0
0
4.81074e-09
9.34179e-09
1.05885e-08
9.54439e-09
7.25212e-09
4.63643e-09
2.27489e-09
4.16002e-10
0
0
0
0
0
0
0
0
0
0
0
0
0
0
0
0
0
0
0
0
0
0
0
0
0
0
0
0
0
0
0
0
0
0
0
0
0
0
0
0
0
0
0
0
0
0
0
1.33129e-12
0
1.03903e-11
0
2.25788e-06
1.79951e-06
6.71996e-07
3.45996e-07
4.63374e-07
7.67999e-07
9.04887e-07
1.04034e-06
1.24376e-06
1.45975e-06
1.48402e-06
1.42122e-06
1.22433e-06
8.44512e-07
3.50343e-07
0
0
0
0
5.66263e-07
1.57783e-06
1.91607e-06
1.56991e-06
8.98189e-07
1.92883e-07
0
0
0
0
0
0
0
0
0
0
0
0
0
0
6.53356e-09
4.66876e-08
0
0
0
0
3.30719e-08
1.35358e-07
1.97587e-07
2.42546e-07
2.78337e-07
3.09085e-07
3.31813e-07
3.44415e-07
3.44648e-07
3.34353e-07
3.18153e-07
2.99781e-07
2.79443e-07
2.5357e-07
2.15818e-07
1.59785e-07
8.55249e-08
6.35025e-09
0
0
0
0
0
0
0
0
0
0
0
0
0
0
0
0
0
0
0
0
0
0
0
0
0
0
0
0
3.67803e-09
5.31756e-09
3.6619e-09
0
0
0
0
0
0
0
0
0
0
0
0
0
0
0
0
0
0
0
0
0
0
0
0
0
0
0
0
0
0
0
0
0
0
0
0
0
0
0
0
0
0
0
0
0
0
0
0
0
0
0
0
0
0
0
0
0
0
0
0
0
0
0
0
0
0
0
0
0
0
0
0
0
0
0
0
0
0
0
0
0
0
4.19978e-12
0
1.15093e-11
0
1.72659e-06
1.19414e-06
6.75141e-07
4.91889e-07
7.46086e-07
9.68045e-07
1.0787e-06
1.26386e-06
1.41404e-06
1.39051e-06
1.10869e-06
5.64235e-07
0
0
0
0
0
0
0
1.8367e-06
4.10787e-06
4.5632e-06
3.80778e-06
2.58927e-06
1.3202e-06
2.80267e-07
0
0
0
0
0
0
0
0
0
0
0
0
0
0
0
0
0
1.98276e-07
5.27574e-07
6.78276e-07
6.57622e-07
5.97225e-07
5.41205e-07
5.00101e-07
4.66544e-07
4.33912e-07
4.03153e-07
3.7393e-07
3.50402e-07
3.35599e-07
3.30558e-07
3.33328e-07
3.36395e-07
3.214e-07
2.5611e-07
1.16269e-07
0
0
0
0
0
0
0
0
0
0
0
0
0
0
0
0
0
0
0
0
0
0
0
0
0
0
0
0
0
0
0
0
0
0
0
0
0
0
0
0
0
0
0
0
0
0
0
0
0
0
0
0
0
0
0
0
0
0
0
0
0
0
0
0
0
0
0
0
0
0
0
0
0
0
0
0
0
0
0
0
0
0
0
0
0
0
0
0
0
0
0
0
0
0
0
0
0
0
0
0
0
0
0
0
0
0
0
0
0
0
0
0
0
0
0
0
1.06906e-11
0
2.42536e-07
4.13284e-07
5.14179e-07
6.62007e-07
9.52443e-07
1.02958e-06
1.13567e-06
1.27422e-06
1.18782e-06
6.92753e-07
0
0
0
0
0
0
0
0
0
3.13897e-06
6.67517e-06
7.33433e-06
6.35401e-06
4.578e-06
2.63434e-06
1.01849e-06
0
0
0
0
0
0
0
0
0
0
0
0
0
0
0
0
7.57707e-07
1.2045e-06
9.94413e-07
7.65126e-07
6.32767e-07
5.62986e-07
5.29922e-07
5.02192e-07
4.6387e-07
4.17382e-07
3.66677e-07
3.22053e-07
2.9286e-07
2.83774e-07
3.02243e-07
3.54001e-07
4.48858e-07
5.89253e-07
7.01717e-07
4.02923e-07
0
0
0
0
0
0
0
0
0
0
0
0
0
0
0
0
0
0
0
0
0
0
0
0
0
0
0
0
0
0
0
0
0
0
0
0
0
0
0
0
0
0
0
0
0
0
0
0
0
0
0
0
0
0
0
0
0
0
0
0
0
0
0
0
0
0
0
0
0
0
0
0
0
0
0
0
0
0
0
0
0
0
0
0
0
0
0
0
0
0
0
0
0
0
0
0
0
0
0
0
0
0
0
0
0
0
0
0
0
0
0
0
0
0
0
0
0
0
1.70964e-09
6.44404e-08
2.26612e-07
7.14892e-07
9.25988e-07
9.70415e-07
1.05357e-06
9.73763e-07
3.05312e-07
0
0
0
0
0
0
0
0
0
0
7.44735e-06
1.15709e-05
1.15721e-05
9.66503e-06
7.14254e-06
4.5395e-06
2.16183e-06
4.8985e-07
0
0
0
0
0
0
0
0
0
0
0
0
0
0
5.28294e-07
5.6789e-07
5.43342e-07
5.41136e-07
5.09863e-07
4.74664e-07
4.63508e-07
4.49816e-07
4.11057e-07
3.43528e-07
2.62989e-07
1.86472e-07
1.27502e-07
9.13985e-08
8.03968e-08
9.69605e-08
1.4559e-07
2.35223e-07
3.71616e-07
5.00774e-07
2.36169e-07
0
0
0
0
0
0
1.8957e-08
3.34639e-08
3.69595e-08
3.25302e-08
2.37735e-08
1.38933e-08
4.67213e-09
0
0
0
0
0
0
0
0
0
0
0
0
0
0
0
0
0
0
0
0
0
0
0
0
0
0
0
0
0
0
0
0
0
0
0
0
0
0
0
0
0
0
0
0
0
0
0
0
0
0
0
0
0
0
0
0
0
0
0
0
0
0
0
0
0
0
0
0
0
0
0
0
0
0
0
0
0
0
0
0
0
0
0
0
0
0
0
0
0
0
0
0
0
0
0
0
0
0
0
0
0
0
0
0
0
0
0
4.81917e-08
7.27073e-07
8.16999e-07
8.17603e-07
7.7532e-07
1.31272e-07
0
0
0
0
0
0
0
0
0
0
1.12269e-05
1.8041e-05
1.90933e-05
1.70385e-05
1.37309e-05
1.01506e-05
6.3531e-06
3.0059e-06
8.20329e-07
0
0
0
0
0
0
0
0
0
0
0
0
0
0
0
0
1.08414e-07
3.42318e-07
3.32509e-07
2.99376e-07
2.7871e-07
2.43701e-07
1.82448e-07
1.03858e-07
2.93178e-08
0
0
0
0
0
0
6.75785e-08
1.51262e-07
1.67059e-07
0
0
0
0
0
2.90979e-08
8.4005e-08
1.03152e-07
9.96458e-08
9.02693e-08
7.39952e-08
5.31985e-08
3.5632e-08
2.11357e-08
1.16185e-08
7.21535e-09
5.70788e-09
5.36227e-09
4.51549e-09
3.50511e-09
4.54212e-09
8.8914e-09
1.50549e-08
2.0967e-08
2.58171e-08
2.94145e-08
3.1754e-08
3.20923e-08
2.90191e-08
2.13765e-08
7.2478e-09
0
0
0
0
0
0
0
0
0
0
0
0
0
0
0
0
0
0
0
0
0
0
0
0
0
0
0
0
0
0
0
0
0
0
0
0
0
0
0
0
0
0
0
0
0
0
0
0
0
0
0
0
0
0
0
0
0
0
0
0
0
0
0
0
0
0
0
0
0
0
0
0
0
0
0
0
0
0
0
0
0
0
0
0
0
0
0
0
0
0
0
5.39406e-07
5.49037e-07
4.76895e-07
9.58737e-08
0
0
8.76379e-06
1.56518e-05
1.55612e-05
1.02166e-05
5.62639e-06
4.7484e-06
7.93081e-06
2.28143e-05
2.80973e-05
2.57793e-05
2.55338e-05
2.52356e-05
2.28699e-05
1.84768e-05
1.34659e-05
8.26135e-06
3.77208e-06
9.97987e-07
0
0
0
0
0
0
0
0
0
0
0
0
0
0
0
0
9.57577e-08
1.9093e-07
1.34284e-07
9.79822e-08
7.97995e-08
5.17901e-08
3.1146e-09
0
0
0
0
0
0
0
0
9.31633e-08
2.08516e-07
2.17952e-07
1.82703e-08
0
0
6.82513e-08
2.23479e-07
2.94548e-07
3.04526e-07
2.70247e-07
2.10627e-07
1.55444e-07
1.07e-07
6.47415e-08
3.31373e-08
7.62995e-09
0
0
0
0
0
0
0
0
0
0
0
0
0
0
0
0
0
0
0
0
0
0
0
0
0
0
0
0
0
0
0
0
0
0
0
0
0
0
0
0
0
0
0
0
0
0
0
0
0
0
0
0
0
0
0
0
0
0
0
0
0
0
0
0
0
0
0
0
0
0
0
0
0
0
0
0
0
0
0
0
0
0
0
0
0
0
0
0
0
0
0
0
0
0
0
0
0
0
0
0
0
0
0
0
0
0
0
0
0
5.18184e-08
0
0
2.01236e-06
9.47263e-06
1.2102e-05
1.08345e-05
1.01701e-05
8.58956e-06
7.1129e-06
8.04935e-06
1.23853e-05
1.91542e-05
2.25503e-05
2.17847e-05
2.16713e-05
2.36575e-05
2.57835e-05
2.47549e-05
1.93979e-05
1.06594e-05
2.69264e-06
0
0
0
0
0
0
0
0
0
0
0
0
0
0
0
0
0
7.61416e-08
5.57091e-08
5.78145e-09
0
0
0
0
0
0
0
0
0
0
9.79553e-08
3.52812e-07
7.02786e-07
1.0216e-06
9.43896e-07
1.68897e-07
0
0
1.61959e-07
5.12376e-07
6.83332e-07
7.31317e-07
6.67572e-07
5.67494e-07
4.39561e-07
3.06128e-07
1.97263e-07
1.14994e-07
5.38995e-08
5.83092e-09
0
0
0
0
0
0
0
0
0
0
0
0
0
0
0
0
0
0
0
0
0
0
0
0
0
0
0
0
0
0
0
0
0
0
0
0
0
0
0
0
0
0
0
0
0
0
0
0
0
0
0
0
0
0
0
0
0
0
0
0
0
0
0
0
0
0
0
0
0
0
0
0
0
0
0
0
0
0
0
0
0
0
0
0
0
0
0
0
0
0
0
0
0
0
0
0
0
0
0
0
0
0
0
0
0
0
0
0
0
0
2.37012e-07
2.94783e-06
6.79832e-06
8.19421e-06
7.39757e-06
6.81594e-06
6.12311e-06
5.12434e-06
4.97542e-06
6.33908e-06
8.74393e-06
1.04583e-05
1.05447e-05
9.75664e-06
9.16663e-06
8.63378e-06
7.31281e-06
2.63227e-06
0
0
0
0
7.88616e-08
2.08958e-07
1.70156e-07
7.72797e-08
4.37326e-09
0
1.12251e-08
0
0
0
0
0
0
0
0
1.98124e-08
0
0
0
0
0
0
0
0
0
0
3.61194e-08
3.16268e-07
8.18544e-07
1.64677e-06
2.88291e-06
4.30238e-06
4.17215e-06
0
0
0
0
0
2.89404e-07
6.19454e-07
7.17145e-07
7.07104e-07
6.20874e-07
4.99757e-07
3.73608e-07
2.62829e-07
1.79556e-07
1.1655e-07
6.29907e-08
1.14328e-08
0
0
0
0
0
0
0
0
0
0
0
0
0
0
0
0
0
0
0
0
0
0
0
0
0
0
0
0
0
0
0
0
0
0
0
0
0
0
0
0
0
0
0
0
0
0
0
0
0
0
0
0
0
0
0
0
0
0
0
0
0
0
0
0
0
0
0
0
0
0
0
0
0
0
0
0
0
0
0
0
0
0
0
0
0
0
0
0
0
0
0
0
0
0
0
0
0
0
0
0
0
0
0
0
0
0
0
0
0
1.38114e-06
3.80238e-06
5.62161e-06
5.45562e-06
4.85149e-06
4.5186e-06
3.94274e-06
3.24332e-06
2.98732e-06
3.18234e-06
3.36999e-06
3.13208e-06
2.54215e-06
1.75676e-06
8.52621e-07
4.49611e-08
0
1.28473e-09
5.21073e-07
9.83145e-07
1.57863e-06
1.18354e-06
9.65867e-07
7.31979e-07
5.71962e-07
5.0321e-07
8.5006e-07
3.69998e-07
7.43282e-08
0
0
0
0
0
0
0
0
0
0
0
0
0
0
0
0
0
5.65696e-08
3.86668e-07
1.01893e-06
2.1541e-06
4.06521e-06
7.13006e-06
1.15852e-05
1.22961e-05
0
0
0
0
0
0
2.06139e-07
5.29611e-07
6.15975e-07
5.78236e-07
5.06133e-07
4.14072e-07
3.22304e-07
2.40963e-07
1.74506e-07
1.30237e-07
1.03184e-07
7.11035e-08
3.00076e-08
0
0
0
0
0
4.48906e-09
4.71522e-09
0
0
0
0
0
0
0
0
0
0
0
0
0
0
0
0
0
0
0
0
0
0
0
0
0
0
0
0
0
0
0
0
0
0
0
0
0
0
0
0
0
0
0
0
0
0
0
0
0
1.85477e-09
6.95791e-09
0
0
0
0
0
0
0
0
0
0
0
0
0
0
0
0
0
0
0
0
0
0
0
0
0
0
0
0
0
0
0
0
0
0
0
0
0
0
0
0
0
0
0
0
0
0
0
0
0
0
1.3055e-06
3.26154e-06
4.34824e-06
3.62034e-06
2.71223e-06
2.3325e-06
1.97098e-06
1.48102e-06
1.11951e-06
9.35291e-07
8.48575e-07
7.89568e-07
7.29069e-07
7.25628e-07
8.36775e-07
1.04738e-06
1.36255e-06
1.98849e-06
2.63908e-06
2.1332e-06
1.76741e-06
1.48702e-06
1.33476e-06
1.47007e-06
1.22134e-06
5.20421e-07
2.9555e-07
1.67159e-07
4.08736e-08
0
0
0
0
0
0
0
0
0
0
0
0
0
0
0
0
2.54165e-07
8.0288e-07
1.80624e-06
3.46925e-06
5.74547e-06
7.88729e-06
7.54108e-06
0
0
0
0
0
0
0
0
2.44808e-07
4.67824e-07
4.80176e-07
4.1677e-07
3.59009e-07
3.08553e-07
2.52709e-07
1.84651e-07
1.24769e-07
8.2051e-08
3.5323e-08
0
0
0
0
0
0
0
0
0
0
5.27018e-08
7.37284e-08
5.87649e-08
2.86761e-08
0
0
0
0
0
0
0
0
0
0
0
0
0
0
0
0
1.88522e-09
0
0
0
0
0
0
0
0
0
0
0
0
0
0
0
0
0
0
3.00856e-09
1.10691e-09
0
0
0
0
0
0
0
1.41189e-09
4.31794e-09
0
0
0
0
0
0
0
0
0
0
0
0
0
0
0
0
0
0
0
0
0
0
0
0
0
0
0
0
0
0
0
0
0
0
0
0
0
0
0
0
0
0
0
0
0
0
0
0
0
0
7.81514e-07
2.55467e-06
3.39132e-06
2.13024e-06
6.39314e-07
5.00378e-08
0
0
0
0
0
3.89789e-08
2.65292e-07
6.26187e-07
1.32066e-06
2.75695e-06
3.62164e-06
3.08493e-06
2.56652e-06
2.26977e-06
2.3062e-06
2.3891e-06
1.17089e-06
5.96654e-07
4.06057e-07
3.1205e-07
2.33635e-07
1.47755e-07
4.21558e-08
0
0
0
0
0
0
6.59657e-10
0
0
0
0
0
0
0
1.23439e-08
2.87532e-07
8.16811e-07
1.66572e-06
2.69178e-06
3.35886e-06
2.67413e-06
0
0
0
0
0
0
0
0
0
0
1.13223e-07
3.0387e-07
3.00133e-07
2.54104e-07
2.33475e-07
2.12705e-07
1.63432e-07
1.07919e-07
8.30416e-08
6.43225e-08
0
0
0
0
0
0
0
0
0
0
0
0
4.36113e-08
1.82561e-08
0
0
0
0
0
0
0
0
0
0
0
0
0
0
3.80364e-09
4.5093e-08
5.04535e-08
3.57948e-08
1.62191e-08
1.8397e-09
0
0
3.82904e-09
2.89949e-09
0
0
0
0
0
0
0
0
0
0
0
0
4.32083e-09
4.52488e-09
1.12229e-09
0
0
0
0
0
0
0
0
0
0
0
0
0
0
0
0
0
0
0
0
0
0
0
0
0
0
0
0
0
0
0
0
0
0
0
0
0
0
0
0
0
0
0
0
0
0
0
0
0
0
0
0
0
0
0
0
0
0
2.11992e-07
1.75883e-06
2.64033e-06
1.34506e-06
0
0
0
0
0
0
0
0
5.84753e-07
3.15238e-06
4.21657e-06
3.94267e-06
3.45602e-06
3.15414e-06
2.98803e-06
2.06639e-06
1.05622e-06
6.35902e-07
4.64215e-07
3.84591e-07
3.35728e-07
2.93126e-07
2.43201e-07
1.78012e-07
9.9147e-08
2.69196e-08
0
1.11623e-08
2.59058e-08
3.43486e-08
3.3972e-08
2.05909e-08
0
0
0
0
0
0
0
0
0
0
0
0
0
0
0
0
0
0
0
0
0
0
0
0
1.16572e-07
2.0817e-07
1.78595e-07
1.49708e-07
1.483e-07
1.24771e-07
6.16527e-08
1.09758e-08
3.78959e-08
8.12805e-08
0
0
0
0
0
0
0
0
0
0
0
0
4.51555e-08
1.71988e-08
0
0
0
0
0
0
0
0
0
2.34559e-08
1.62799e-08
5.60635e-09
3.90003e-09
1.85451e-08
4.51133e-08
6.39928e-08
6.31472e-08
4.98238e-08
3.20059e-08
1.907e-08
1.27834e-08
1.20877e-08
1.3526e-08
1.23218e-08
8.62199e-09
4.46681e-09
0
0
0
0
0
0
0
0
0
0
4.51581e-09
5.57285e-09
1.9771e-09
0
0
0
0
0
0
0
0
0
0
0
0
0
0
0
0
0
0
0
0
0
0
0
0
0
0
0
0
0
0
0
0
0
0
0
0
0
0
0
0
0
0
0
0
0
0
0
0
0
0
0
0
0
0
0
0
0
0
0
6.41457e-07
1.2845e-06
8.31944e-07
0
0
0
0
0
0
0
0
1.28774e-06
1.80611e-06
1.88276e-06
1.87394e-06
1.75338e-06
1.30888e-06
8.58191e-07
5.83975e-07
4.40998e-07
3.70469e-07
3.41151e-07
3.30383e-07
3.18598e-07
2.95344e-07
2.60938e-07
2.17534e-07
1.67156e-07
1.21964e-07
9.41169e-08
8.14622e-08
7.58039e-08
7.05297e-08
6.02479e-08
4.52779e-08
3.07204e-08
1.77442e-08
0
0
0
0
0
0
0
0
0
0
0
0
0
0
0
0
0
0
0
0
0
1.08864e-07
1.71215e-07
1.59525e-07
1.04484e-07
8.40878e-08
8.83921e-08
5.44749e-08
0
0
0
0
8.62939e-08
3.52856e-08
0
0
0
0
0
0
0
0
0
0
1.20046e-08
3.61139e-08
4.52715e-10
0
0
0
0
0
0
0
2.4347e-08
2.68672e-08
1.86125e-08
1.68711e-08
3.10105e-08
5.14289e-08
6.57853e-08
7.26484e-08
6.67784e-08
5.38983e-08
4.07412e-08
3.35292e-08
2.86823e-08
2.1973e-08
1.50604e-08
1.05733e-08
7.2523e-09
2.935e-09
0
0
0
0
0
0
0
0
0
0
3.11898e-09
2.45288e-09
0
0
0
0
0
0
0
0
0
0
0
0
0
0
0
0
0
0
0
0
0
0
0
0
0
0
0
0
0
0
0
0
0
0
0
0
0
0
0
0
0
0
0
0
0
0
0
0
0
0
0
0
0
0
0
0
0
0
0
0
0
2.63054e-07
2.41834e-07
0
0
0
0
0
0
0
1.94694e-07
6.67494e-07
9.94835e-07
1.07413e-06
9.2511e-07
6.99655e-07
5.09829e-07
3.83564e-07
3.095e-07
2.77747e-07
2.75784e-07
2.9247e-07
3.04155e-07
3.0134e-07
2.82417e-07
2.47627e-07
2.04438e-07
1.61993e-07
1.31023e-07
1.13104e-07
1.03445e-07
9.71363e-08
9.1416e-08
8.71661e-08
8.96478e-08
1.00707e-07
1.00657e-07
4.67662e-08
0
0
0
0
0
0
0
0
0
0
0
0
0
0
0
0
0
1.56445e-08
2.16845e-07
1.92533e-07
1.44842e-07
1.39162e-07
1.05127e-07
5.14594e-08
3.78878e-08
4.27239e-08
8.51171e-09
0
0
0
0
0
0
0
0
0
0
0
0
0
0
0
0
1.82199e-08
3.92501e-08
2.87708e-08
1.13488e-08
0
0
1.41878e-10
3.69977e-08
5.0123e-08
4.76662e-08
4.10464e-08
3.57927e-08
3.75985e-08
5.51314e-08
7.78028e-08
8.54995e-08
8.46613e-08
7.75491e-08
6.4336e-08
5.10196e-08
4.41745e-08
4.48877e-08
4.38896e-08
3.42739e-08
2.00911e-08
9.20552e-09
2.2894e-09
0
0
0
0
0
0
0
0
0
0
0
0
0
0
0
0
0
0
0
0
0
5.31518e-09
0
0
0
0
0
0
0
0
0
0
0
0
0
0
0
0
0
0
0
0
0
0
0
0
0
0
0
0
0
0
0
0
0
0
0
0
0
0
0
0
0
0
0
0
0
0
0
0
0
0
0
0
0
2.88199e-09
0
0
0
0
9.58029e-09
2.63608e-07
5.31697e-07
6.98686e-07
7.29102e-07
6.65164e-07
5.37634e-07
4.07219e-07
2.9884e-07
2.27241e-07
1.82391e-07
1.65734e-07
1.70235e-07
1.92027e-07
2.16332e-07
2.34514e-07
2.4011e-07
2.27002e-07
1.95504e-07
1.55574e-07
1.23991e-07
1.05658e-07
9.67647e-08
9.25416e-08
9.11771e-08
9.29795e-08
1.05205e-07
1.303e-07
1.61032e-07
1.54209e-07
9.00848e-08
0
0
0
0
0
0
0
0
0
0
0
0
0
0
0
0
1.31518e-07
2.63158e-07
2.59255e-07
1.58375e-07
1.01048e-07
1.09356e-07
8.12909e-08
1.60101e-08
0
0
0
0
0
0
0
0
0
0
0
0
0
0
0
0
0
0
5.92533e-08
7.80945e-08
6.18305e-08
4.25809e-08
2.8548e-08
2.34171e-08
3.78677e-08
7.33833e-08
9.83989e-08
9.96001e-08
8.61814e-08
6.93635e-08
6.59212e-08
8.11786e-08
1.01801e-07
1.05655e-07
9.72506e-08
8.9292e-08
7.97319e-08
6.64133e-08
5.37049e-08
5.07394e-08
5.63156e-08
5.66387e-08
4.64552e-08
3.04334e-08
1.46016e-08
6.02949e-10
0
0
0
0
0
0
0
0
0
0
0
0
0
0
0
0
0
0
0
0
0
1.98336e-08
0
0
0
0
0
0
0
0
0
0
0
0
0
0
0
0
0
0
0
0
0
0
0
0
0
0
0
0
0
0
0
0
0
0
0
0
0
0
0
0
0
0
0
0
0
0
0
0
0
0
0
0
1.77835e-08
3.90136e-10
0
0
0
1.17387e-07
3.11251e-07
4.33995e-07
4.67057e-07
4.39798e-07
3.8058e-07
3.01096e-07
2.17397e-07
1.51107e-07
1.04593e-07
7.92872e-08
6.89729e-08
6.67336e-08
7.64729e-08
9.71879e-08
1.22353e-07
1.43672e-07
1.5464e-07
1.48578e-07
1.26327e-07
9.76377e-08
7.61976e-08
6.50661e-08
6.05289e-08
5.99659e-08
6.28091e-08
7.22093e-08
9.56856e-08
1.30879e-07
1.50517e-07
1.37812e-07
9.31089e-08
1.47093e-08
0
0
0
0
0
0
0
0
0
0
0
0
0
0
1.20051e-07
2.29997e-07
3.05999e-07
2.34987e-07
9.16789e-08
5.37058e-08
1.03744e-07
6.53473e-08
0
0
0
0
2.69037e-07
1.72264e-07
2.64704e-08
0
0
0
0
0
0
0
0
0
0
9.23973e-09
1.04151e-07
1.15907e-07
9.44502e-08
6.81612e-08
5.00011e-08
4.71365e-08
6.58307e-08
9.34535e-08
1.21303e-07
1.34351e-07
1.27549e-07
1.09848e-07
9.06529e-08
9.03485e-08
1.04105e-07
1.09294e-07
9.53778e-08
8.33238e-08
8.19713e-08
8.27088e-08
7.7417e-08
6.62709e-08
6.10251e-08
6.19694e-08
5.75547e-08
4.60265e-08
3.10382e-08
1.51951e-08
9.58774e-11
0
0
0
1.88332e-10
6.81308e-09
5.44943e-09
0
0
0
0
0
0
0
0
0
0
0
0
0
0
0
2.93234e-08
0
0
0
0
0
0
0
0
0
0
0
0
0
0
0
0
0
0
0
0
0
0
0
0
0
0
0
0
0
0
0
0
0
0
0
0
0
0
0
0
0
0
0
0
0
0
0
0
0
0
3.71732e-08
5.42101e-08
3.42053e-08
0
0
0
0
1.27386e-07
1.9334e-07
2.13433e-07
2.113e-07
1.86718e-07
1.45247e-07
9.38685e-08
5.93518e-08
3.69786e-08
2.36556e-08
1.14239e-08
0
0
6.05568e-09
2.40312e-08
4.3267e-08
6.06866e-08
7.03975e-08
6.75883e-08
5.3469e-08
3.53998e-08
2.16828e-08
1.42739e-08
1.09918e-08
9.75273e-09
1.13648e-08
2.04985e-08
4.08632e-08
6.2345e-08
7.26662e-08
7.35745e-08
7.98308e-08
1.24009e-07
2.42267e-07
4.75941e-07
8.68441e-07
1.37697e-06
2.03663e-06
2.67431e-06
2.42614e-06
0
0
0
0
0
0
9.11948e-08
1.8575e-07
2.94015e-07
2.99183e-07
1.28216e-07
0
4.43526e-08
1.05628e-07
0
0
0
0
3.30813e-07
3.88222e-07
2.07323e-07
4.83379e-08
0
0
0
0
0
0
0
0
0
8.17828e-08
1.39627e-07
1.3947e-07
1.129e-07
8.57913e-08
7.01757e-08
7.75094e-08
1.0455e-07
1.26216e-07
1.45768e-07
1.6159e-07
1.58945e-07
1.45384e-07
1.26472e-07
1.14645e-07
1.1665e-07
1.17856e-07
1.00713e-07
7.42419e-08
6.67052e-08
7.52761e-08
8.49131e-08
8.50777e-08
7.40936e-08
6.45739e-08
5.81084e-08
5.00068e-08
3.97307e-08
2.78301e-08
1.50756e-08
3.25602e-09
0
0
5.9726e-09
1.51594e-08
1.62864e-08
8.30636e-09
0
0
0
0
0
0
0
0
0
0
0
0
0
0
1.73578e-08
1.89154e-08
0
0
0
0
0
0
0
0
0
0
0
0
0
0
0
0
0
0
0
0
0
0
0
0
0
0
0
0
0
0
0
0
0
0
0
0
0
0
0
0
0
0
0
0
0
0
0
0
0
5.39587e-08
8.03715e-08
7.80902e-08
4.17721e-08
0
0
0
0
0
1.45548e-08
3.4374e-08
3.57925e-08
2.04516e-08
2.92882e-09
0
0
0
0
0
0
0
0
0
0
0
0
0
0
0
0
0
0
0
0
0
0
0
0
2.29277e-08
1.42249e-07
4.0076e-07
8.67342e-07
1.6523e-06
2.68724e-06
4.19395e-06
6.12975e-06
8.54915e-06
7.08947e-06
0
0
0
0
0
1.14385e-07
1.96678e-07
3.099e-07
3.41156e-07
1.57236e-07
0
0
7.81403e-08
2.84293e-08
0
0
0
4.06499e-07
6.38708e-07
3.80873e-07
1.6464e-07
2.01904e-08
0
0
2.72896e-10
1.88021e-08
1.5435e-08
0
2.89625e-09
8.10266e-08
1.43938e-07
1.81054e-07
1.80226e-07
1.53446e-07
1.1356e-07
9.62229e-08
1.07497e-07
1.29088e-07
1.41138e-07
1.55158e-07
1.74499e-07
1.76185e-07
1.65202e-07
1.47927e-07
1.30544e-07
1.24826e-07
1.23141e-07
1.12256e-07
8.53377e-08
6.35185e-08
6.29993e-08
7.48504e-08
8.54973e-08
8.32899e-08
7.06384e-08
5.92754e-08
5.04424e-08
4.30176e-08
3.58705e-08
2.75408e-08
1.80042e-08
1.022e-08
8.29181e-09
1.26792e-08
2.07055e-08
2.40377e-08
1.75593e-08
6.06321e-09
0
0
0
0
0
0
0
0
0
0
0
0
0
0
2.46716e-08
0
0
0
0
0
0
0
0
0
0
0
0
0
0
0
0
0
0
0
0
0
0
0
0
0
0
0
0
0
0
0
0
0
0
0
0
0
0
0
0
3.91703e-09
7.64197e-09
0
0
0
0
0
0
0
5.0985e-08
8.9321e-08
1.01121e-07
8.77155e-08
4.188e-08
0
0
0
0
0
0
0
0
0
0
0
0
0
0
0
0
0
0
0
0
0
0
0
0
0
0
0
0
0
0
0
0
0
0
3.86805e-08
2.92888e-07
7.28711e-07
1.43501e-06
2.29722e-06
3.4516e-06
4.60938e-06
5.55149e-06
3.91002e-06
0
0
0
0
0
1.67015e-07
1.98315e-07
3.09327e-07
3.60629e-07
1.62487e-07
0
0
4.04512e-08
2.47144e-08
0
0
0
8.37868e-07
1.11593e-06
5.85778e-07
2.1121e-07
2.99309e-08
0
0
0
0
0
0
4.42818e-08
1.37687e-07
1.91268e-07
2.13985e-07
2.07728e-07
1.88358e-07
1.553e-07
1.3234e-07
1.35594e-07
1.44007e-07
1.48196e-07
1.54048e-07
1.7033e-07
1.76632e-07
1.68293e-07
1.51336e-07
1.31351e-07
1.2231e-07
1.21629e-07
1.19394e-07
1.02718e-07
7.6316e-08
6.25799e-08
6.56774e-08
7.73185e-08
8.30017e-08
7.47368e-08
6.21166e-08
5.21489e-08
4.54872e-08
4.10059e-08
3.66116e-08
3.05373e-08
2.35368e-08
1.95202e-08
2.08207e-08
2.57987e-08
2.86111e-08
2.3829e-08
1.33842e-08
1.9478e-09
0
0
0
0
0
0
0
0
0
0
0
0
0
0
6.27118e-09
0
0
0
0
0
0
0
0
0
0
0
0
0
0
0
0
0
0
0
0
0
0
0
0
0
0
0
0
0
0
0
0
0
0
0
0
4.73561e-09
4.66846e-08
8.47572e-08
1.23581e-07
1.57128e-07
1.50227e-07
6.54541e-08
0
2.10989e-07
1.71811e-07
2.80176e-08
0
0
4.01126e-08
8.44763e-08
1.15142e-07
1.1098e-07
4.5711e-08
0
8.68097e-08
5.37747e-08
0
0
0
0
0
0
0
0
0
0
0
0
0
0
0
0
0
0
0
0
0
0
0
0
0
0
0
0
0
0
0
1.07771e-07
4.14513e-07
8.44956e-07
1.31443e-06
1.83959e-06
2.15259e-06
2.06593e-06
9.47941e-07
0
0
0
0
5.534e-08
2.06398e-07
1.52712e-07
2.57289e-07
3.08288e-07
1.16143e-07
0
0
2.5211e-08
3.68404e-09
0
0
2.93222e-07
1.61293e-06
1.61365e-06
6.17426e-07
2.0505e-07
8.9606e-08
6.38266e-08
3.70905e-08
0
0
0
0
1.33506e-07
1.93317e-07
2.23195e-07
2.34712e-07
2.21941e-07
2.02318e-07
1.75905e-07
1.55202e-07
1.5381e-07
1.59145e-07
1.62413e-07
1.62527e-07
1.65375e-07
1.67832e-07
1.62887e-07
1.49858e-07
1.31023e-07
1.20126e-07
1.20685e-07
1.25088e-07
1.18433e-07
9.39397e-08
7.01162e-08
6.28122e-08
6.97367e-08
7.92728e-08
7.70575e-08
6.57811e-08
5.54957e-08
4.8846e-08
4.55484e-08
4.34539e-08
4.03006e-08
3.52e-08
3.04692e-08
2.94176e-08
3.13081e-08
3.17715e-08
2.67887e-08
1.8093e-08
7.83116e-09
0
0
0
0
0
0
0
0
0
0
0
0
0
0
0
0
0
0
0
0
0
0
0
0
0
0
0
0
0
0
0
0
0
0
0
0
0
0
0
0
0
0
0
0
0
0
0
0
0
0
0
4.66558e-08
1.04395e-07
1.42056e-07
1.72292e-07
1.84083e-07
1.3388e-07
9.62608e-09
0
0
0
0
0
0
1.46094e-09
8.18322e-08
1.46516e-07
1.50291e-07
5.18418e-08
0
0
1.30572e-07
3.738e-08
0
0
0
0
0
0
0
0
0
0
0
0
0
0
0
0
0
0
0
0
0
0
0
0
0
0
0
0
0
0
0
1.28511e-07
3.41485e-07
5.45403e-07
7.23749e-07
7.77993e-07
6.67455e-07
2.50632e-07
0
0
0
0
1.45113e-07
1.5624e-07
1.50793e-08
1.67393e-07
2.51379e-07
7.45118e-08
0
1.30466e-08
2.68574e-08
0
0
8.76009e-08
9.24692e-07
2.90903e-06
1.6138e-06
2.09063e-07
7.37098e-08
1.02696e-07
1.05994e-07
9.20366e-08
5.46598e-08
3.86361e-09
0
0
1.94467e-07
1.8744e-07
2.00396e-07
2.2044e-07
2.20511e-07
2.07518e-07
1.87323e-07
1.68121e-07
1.62536e-07
1.64856e-07
1.6749e-07
1.66268e-07
1.63845e-07
1.62052e-07
1.58483e-07
1.5019e-07
1.34911e-07
1.23294e-07
1.23899e-07
1.3191e-07
1.33202e-07
1.13198e-07
8.26693e-08
6.49714e-08
6.52072e-08
7.54056e-08
7.84112e-08
7.01107e-08
5.99714e-08
5.30539e-08
5.00516e-08
4.91666e-08
4.77597e-08
4.44129e-08
3.99933e-08
3.74028e-08
3.68902e-08
3.47788e-08
2.80249e-08
1.94439e-08
1.17927e-08
2.25304e-09
0
0
0
0
0
0
0
0
0
0
0
0
0
0
0
0
0
0
0
0
0
0
0
0
0
0
0
0
0
0
0
0
0
0
0
0
0
0
0
0
0
0
0
0
0
0
0
0
4.37181e-09
1.85057e-08
2.50814e-08
4.08274e-08
6.08805e-08
7.82097e-08
6.83668e-08
2.5676e-08
0
0
0
0
0
0
0
0
5.87564e-08
1.01123e-07
7.53418e-08
0
0
0
6.97717e-08
6.4808e-08
0
0
0
0
0
0
0
0
0
0
0
0
0
0
0
0
0
0
0
0
0
0
0
0
0
0
0
0
0
0
0
0
2.17991e-08
1.01164e-07
1.60499e-07
1.88273e-07
1.84388e-07
8.14415e-08
0
0
0
0
1.13371e-07
0
0
8.04122e-08
1.70275e-07
4.31144e-08
5.39493e-09
9.008e-08
3.54762e-08
0
0
2.68346e-07
1.95311e-06
5.05546e-06
1.90279e-06
0
1.56389e-08
1.01143e-07
1.12587e-07
1.03839e-07
8.1732e-08
5.03959e-08
2.86653e-08
5.95417e-08
1.5369e-07
1.61041e-07
1.65936e-07
1.78535e-07
1.88528e-07
1.90439e-07
1.8689e-07
1.76432e-07
1.6571e-07
1.63836e-07
1.64761e-07
1.63283e-07
1.60818e-07
1.59152e-07
1.5735e-07
1.5305e-07
1.42264e-07
1.30525e-07
1.29412e-07
1.3717e-07
1.43213e-07
1.28989e-07
9.70606e-08
7.06671e-08
6.36017e-08
7.14794e-08
7.87009e-08
7.38018e-08
6.39271e-08
5.65969e-08
5.33558e-08
5.29481e-08
5.26388e-08
5.05359e-08
4.67496e-08
4.34884e-08
4.15641e-08
3.74143e-08
2.82458e-08
1.80308e-08
1.18724e-08
5.92652e-09
0
0
0
0
0
0
0
0
0
0
0
0
0
0
0
0
0
0
0
0
0
0
0
0
0
0
0
0
0
0
0
0
0
0
0
0
0
0
0
0
0
0
0
0
0
0
0
0
0
0
0
1.01631e-08
2.5497e-08
4.36018e-08
4.47013e-08
2.20598e-08
0
0
0
0
0
0
0
0
5.14505e-08
5.51222e-08
1.98627e-08
0
0
3.64803e-09
7.31288e-08
8.78997e-08
3.59725e-08
0
0
0
0
0
0
0
0
0
0
0
0
0
0
0
0
0
0
0
0
0
0
0
0
0
0
0
0
0
0
0
0
0
0
0
0
0
0
0
0
0
0
0
0
3.61008e-08
1.12675e-07
2.91951e-08
6.43641e-08
1.54213e-07
4.49958e-08
0
0
5.75096e-07
2.81838e-06
5.49372e-06
2.30285e-06
0
4.869e-08
1.30213e-07
1.23225e-07
1.02954e-07
8.65207e-08
7.10855e-08
6.57255e-08
9.16285e-08
1.32975e-07
1.48903e-07
1.52756e-07
1.54704e-07
1.59334e-07
1.65474e-07
1.69787e-07
1.68915e-07
1.59566e-07
1.53836e-07
1.54082e-07
1.5499e-07
1.55288e-07
1.54452e-07
1.53489e-07
1.51388e-07
1.4525e-07
1.35572e-07
1.32725e-07
1.37866e-07
1.43916e-07
1.34656e-07
1.06065e-07
7.58372e-08
6.25393e-08
6.59991e-08
7.5006e-08
7.34539e-08
6.41344e-08
5.66116e-08
5.29519e-08
5.25082e-08
5.29667e-08
5.20887e-08
4.92608e-08
4.60015e-08
4.34219e-08
3.81845e-08
2.693e-08
1.43474e-08
7.82517e-09
5.72882e-09
0
0
0
0
0
0
0
0
1.64437e-08
0
0
0
0
0
0
0
0
0
0
0
0
0
0
0
0
0
0
0
0
0
0
0
0
0
0
0
0
0
0
0
0
0
0
0
0
0
0
0
0
0
0
0
7.50265e-09
2.9281e-08
4.83112e-08
4.99154e-08
3.05999e-08
0
0
0
0
0
0
0
3.45312e-08
3.944e-08
0
0
0
9.59136e-10
4.10867e-08
5.40429e-08
3.92249e-08
1.88159e-08
0
0
0
0
0
0
0
0
0
0
0
0
0
0
0
0
0
0
0
0
0
0
0
0
0
0
0
0
0
0
0
0
0
0
0
0
4.01461e-08
0
0
0
0
0
0
1.47937e-08
7.26506e-08
2.90166e-08
5.60685e-08
9.66874e-08
1.39761e-08
0
6.23673e-08
9.62563e-07
2.40821e-06
3.98536e-06
1.75151e-06
0
1.00349e-07
1.61658e-07
1.43129e-07
1.13049e-07
9.13562e-08
8.19465e-08
8.4134e-08
1.0063e-07
1.20474e-07
1.32723e-07
1.36249e-07
1.36461e-07
1.41626e-07
1.5177e-07
1.60611e-07
1.63344e-07
1.57566e-07
1.47981e-07
1.46763e-07
1.50589e-07
1.56807e-07
1.582e-07
1.56908e-07
1.54804e-07
1.50381e-07
1.42751e-07
1.38677e-07
1.40332e-07
1.43892e-07
1.37532e-07
1.1417e-07
8.39958e-08
6.59453e-08
6.3715e-08
7.05698e-08
7.16895e-08
6.33916e-08
5.58128e-08
5.18715e-08
5.14703e-08
5.29675e-08
5.35295e-08
5.19376e-08
4.90516e-08
4.59588e-08
3.99681e-08
2.69235e-08
1.14603e-08
2.86258e-09