/*--------------------------------*- C++ -*----------------------------------*\
  =========                 |
  \\      /  F ield         | OpenFOAM: The Open Source CFD Toolbox
   \\    /   O peration     | Website:  https://openfoam.org
    \\  /    A nd           | Version:  7
     \\/     M anipulation  |
\*---------------------------------------------------------------------------*/
FoamFile
{
    version     2.0;
    format      ascii;
    class       surfaceScalarField;
    location    "0.059";
    object      phi;
}
// * * * * * * * * * * * * * * * * * * * * * * * * * * * * * * * * * * * * * //

dimensions      [0 3 -1 0 0 0 0];

internalField   nonuniform List<scalar> 
24170
(
1.4007e-06
2.16758e-07
1.2586e-06
1.42102e-07
1.12095e-06
1.37649e-07
1.00546e-06
1.15493e-07
8.99423e-07
1.06034e-07
7.92882e-07
1.06542e-07
6.85776e-07
1.07106e-07
5.84933e-07
1.00843e-07
4.9751e-07
8.74226e-08
4.25756e-07
7.17544e-08
3.67879e-07
5.78769e-08
3.20772e-07
4.71065e-08
2.8147e-07
3.93019e-08
2.47874e-07
3.35967e-08
2.18385e-07
2.9489e-08
1.9294e-07
2.54452e-08
1.67901e-07
2.5039e-08
1.76579e-08
1.50243e-07
1.69519e-06
3.07324e-07
1.67369e-06
1.63599e-07
1.63385e-06
1.77496e-07
1.58982e-06
1.59513e-07
1.55184e-06
1.44015e-07
1.51233e-06
1.46059e-07
1.46503e-06
1.54404e-07
1.40933e-06
1.56541e-07
1.34909e-06
1.47662e-07
1.28929e-06
1.31553e-07
1.23399e-06
1.13183e-07
1.18452e-06
9.65737e-08
1.14023e-06
8.35908e-08
1.09871e-06
7.51163e-08
1.05729e-06
7.09147e-08
1.01473e-06
6.80029e-08
9.71007e-07
6.87595e-08
6.56513e-08
9.23014e-07
1.7952e-06
3.09055e-07
1.77045e-06
1.88345e-07
1.76042e-06
1.87532e-07
1.74917e-06
1.70757e-07
1.73988e-06
1.5331e-07
1.73312e-06
1.52823e-07
1.72677e-06
1.60749e-07
1.71781e-06
1.65503e-07
1.70397e-06
1.615e-07
1.68567e-06
1.49857e-07
1.66468e-06
1.34165e-07
1.64308e-06
1.18175e-07
1.62208e-06
1.04591e-07
1.60228e-06
9.49243e-08
1.58257e-06
9.06217e-08
1.56172e-06
8.88483e-08
1.53927e-06
9.12084e-08
9.26233e-08
1.5123e-06
1.93076e-06
3.1721e-07
1.89793e-06
2.21172e-07
1.88315e-06
2.02313e-07
1.86892e-06
1.84994e-07
1.85465e-06
1.67573e-07
1.84569e-06
1.61782e-07
1.84326e-06
1.63184e-07
1.84475e-06
1.64011e-07
1.84675e-06
1.59495e-07
1.84747e-06
1.49137e-07
1.84638e-06
1.35259e-07
1.84374e-06
1.20819e-07
1.83978e-06
1.08551e-07
1.83503e-06
9.96687e-08
1.82989e-06
9.57684e-08
1.82389e-06
9.48388e-08
1.8179e-06
9.72026e-08
1.00391e-07
1.81013e-06
2.06526e-06
3.8746e-07
2.03262e-06
2.53811e-07
2.01928e-06
2.15649e-07
2.00637e-06
1.97909e-07
1.9922e-06
1.81742e-07
1.98095e-06
1.73028e-07
1.97448e-06
1.69653e-07
1.97268e-06
1.65812e-07
1.97481e-06
1.57369e-07
1.97991e-06
1.44039e-07
1.98638e-06
1.28788e-07
1.99214e-06
1.1506e-07
1.99534e-06
1.05343e-07
1.99503e-06
9.99794e-08
1.99202e-06
9.87843e-08
1.98695e-06
9.99027e-08
1.98207e-06
1.02089e-07
1.04472e-07
1.97799e-06
2.23631e-06
3.99278e-07
2.18668e-06
3.0345e-07
2.15744e-06
2.4488e-07
2.14646e-06
2.08895e-07
2.14325e-06
1.84949e-07
2.14504e-06
1.71245e-07
2.15037e-06
1.64316e-07
2.15674e-06
1.59449e-07
2.16173e-06
1.5237e-07
2.16446e-06
1.41316e-07
2.16487e-06
1.28376e-07
2.16286e-06
1.17066e-07
2.15828e-06
1.09928e-07
2.15113e-06
1.07129e-07
2.14273e-06
1.0718e-07
2.13426e-06
1.08377e-07
2.12782e-06
1.08523e-07
1.07698e-07
2.1246e-06
2.37725e-06
3.8527e-07
2.37557e-06
3.05133e-07
2.36276e-06
2.57689e-07
2.34078e-06
2.30875e-07
2.3186e-06
2.07122e-07
2.30564e-06
1.84202e-07
2.30332e-06
1.66637e-07
2.30751e-06
1.55266e-07
2.31394e-06
1.45937e-07
2.32048e-06
1.34774e-07
2.32604e-06
1.22815e-07
2.32915e-06
1.13954e-07
2.32825e-06
1.10833e-07
2.3225e-06
1.12876e-07
2.31307e-06
1.16612e-07
2.30224e-06
1.19209e-07
2.29292e-06
1.17841e-07
1.12999e-07
2.28762e-06
2.59717e-06
4.60818e-07
2.55174e-06
3.50559e-07
2.54158e-06
2.67851e-07
2.54466e-06
2.27792e-07
2.54401e-06
2.07776e-07
2.53288e-06
1.95333e-07
2.51415e-06
1.85366e-07
2.49545e-06
1.73967e-07
2.48268e-06
1.58709e-07
2.47667e-06
1.4078e-07
2.47477e-06
1.2471e-07
2.47384e-06
1.14885e-07
2.47216e-06
1.12521e-07
2.46967e-06
1.15358e-07
2.46737e-06
1.18914e-07
2.4667e-06
1.19883e-07
2.46835e-06
1.16186e-07
1.08805e-07
2.47255e-06
2.73333e-06
4.49587e-07
2.73028e-06
3.53612e-07
2.73362e-06
2.64509e-07
2.73256e-06
2.2886e-07
2.72562e-06
2.14711e-07
2.71676e-06
2.04195e-07
2.70895e-06
1.93171e-07
2.70291e-06
1.80007e-07
2.69752e-06
1.64103e-07
2.6911e-06
1.47199e-07
2.6831e-06
1.3271e-07
2.67465e-06
1.23332e-07
2.66802e-06
1.19155e-07
2.6652e-06
1.18175e-07
2.6668e-06
1.17321e-07
2.67223e-06
1.1445e-07
2.67941e-06
1.09003e-07
1.01476e-07
2.68674e-06
3.00033e-06
4.061e-07
2.98088e-06
3.73067e-07
2.94125e-06
3.04139e-07
2.91456e-06
2.55551e-07
2.89947e-06
2.29794e-07
2.89208e-06
2.11593e-07
2.88877e-06
1.96474e-07
2.88617e-06
1.82608e-07
2.88288e-06
1.67394e-07
2.87971e-06
1.50372e-07
2.87848e-06
1.33934e-07
2.88063e-06
1.21188e-07
2.88638e-06
1.13406e-07
2.89451e-06
1.10045e-07
2.90287e-06
1.08957e-07
2.90928e-06
1.08042e-07
2.91191e-06
1.06371e-07
1.02753e-07
2.91064e-06
3.19087e-06
4.87293e-07
3.17734e-06
3.86598e-07
3.16922e-06
3.1226e-07
3.16269e-06
2.62077e-07
3.15702e-06
2.35461e-07
3.14897e-06
2.19645e-07
3.13896e-06
2.06487e-07
3.12895e-06
1.9262e-07
3.1198e-06
1.76542e-07
3.11175e-06
1.58419e-07
3.10556e-06
1.4012e-07
3.10256e-06
1.24194e-07
3.10352e-06
1.12443e-07
3.10806e-06
1.05507e-07
3.11441e-06
1.02609e-07
3.12047e-06
1.01977e-07
3.12471e-06
1.02135e-07
1.01378e-07
3.12608e-06
2.82865e-06
5.14974e-07
2.81721e-06
3.98046e-07
2.83163e-06
2.97832e-07
2.84753e-06
2.46178e-07
2.85055e-06
2.32449e-07
2.84215e-06
2.28041e-07
2.83103e-06
2.17602e-07
2.82367e-06
1.99986e-07
2.82093e-06
1.7928e-07
2.82015e-06
1.592e-07
2.81851e-06
1.41758e-07
2.81528e-06
1.27425e-07
2.81147e-06
1.16256e-07
2.80903e-06
1.07944e-07
2.80929e-06
1.0235e-07
2.81241e-06
9.88522e-08
2.81792e-06
9.66248e-08
9.51467e-08
2.82416e-06
3.47414e-06
5.19453e-07
3.46051e-06
4.11667e-07
3.47773e-06
2.80616e-07
3.48675e-06
2.37153e-07
3.48674e-06
2.32462e-07
3.4898e-06
2.24985e-07
3.49932e-06
2.08076e-07
3.50938e-06
1.89927e-07
3.51236e-06
1.76307e-07
3.50487e-06
1.66689e-07
3.48905e-06
1.57579e-07
3.47022e-06
1.46255e-07
3.45358e-06
1.32888e-07
3.44239e-06
1.19139e-07
3.43793e-06
1.06813e-07
3.43959e-06
9.71843e-08
3.4465e-06
8.9715e-08
8.48656e-08
3.45679e-06
4.28073e-06
4.95853e-07
4.25577e-06
4.36629e-07
4.21421e-06
3.22173e-07
4.19352e-06
2.57845e-07
4.19608e-06
2.29903e-07
4.20637e-06
2.14694e-07
4.21222e-06
2.02231e-07
4.21368e-06
1.88458e-07
4.21704e-06
1.72956e-07
4.2267e-06
1.57022e-07
4.24171e-06
1.42573e-07
4.25683e-06
1.31132e-07
4.26656e-06
1.23164e-07
4.26788e-06
1.17819e-07
4.26169e-06
1.13005e-07
4.25142e-06
1.0745e-07
4.24092e-06
1.00212e-07
9.18552e-08
4.23393e-06
5.18297e-06
6.11598e-07
5.17815e-06
4.41444e-07
5.18841e-06
3.11918e-07
5.17841e-06
2.67842e-07
5.1545e-06
2.53811e-07
5.1284e-06
2.408e-07
5.11091e-06
2.19718e-07
5.10886e-06
1.90504e-07
5.12364e-06
1.58177e-07
5.15096e-06
1.29704e-07
5.18312e-06
1.10408e-07
5.21249e-06
1.01765e-07
5.23425e-06
1.014e-07
5.24709e-06
1.04986e-07
5.25212e-06
1.07973e-07
5.25173e-06
1.07843e-07
5.24784e-06
1.04101e-07
9.78223e-08
5.24187e-06
6.3284e-06
5.40981e-07
6.34502e-06
4.24829e-07
6.31653e-06
3.40412e-07
6.29829e-06
2.86079e-07
6.30162e-06
2.5048e-07
6.31815e-06
2.24266e-07
6.33486e-06
2.0301e-07
6.34511e-06
1.80252e-07
6.34887e-06
1.54423e-07
6.34882e-06
1.29756e-07
6.34781e-06
1.11418e-07
6.34777e-06
1.018e-07
6.3497e-06
9.94719e-08
6.35363e-06
1.01055e-07
6.35902e-06
1.02583e-07
6.36481e-06
1.02055e-07
6.3702e-06
9.87077e-08
9.35976e-08
6.37443e-06
7.60232e-06
5.20884e-07
7.61292e-06
4.14231e-07
7.65081e-06
3.02517e-07
7.69336e-06
2.43528e-07
7.72333e-06
2.20511e-07
7.73608e-06
2.11522e-07
7.74134e-06
1.97744e-07
7.74824e-06
1.73357e-07
7.75866e-06
1.43999e-07
7.7696e-06
1.18817e-07
7.7774e-06
1.03613e-07
7.78032e-06
9.88811e-08
7.77875e-06
1.01043e-07
7.77419e-06
1.05616e-07
7.76865e-06
1.08122e-07
7.76382e-06
1.06891e-07
7.76127e-06
1.01255e-07
9.27082e-08
7.76216e-06
9.28455e-06
4.38086e-07
9.35491e-06
3.43864e-07
9.38446e-06
2.72973e-07
9.40423e-06
2.23754e-07
9.42289e-06
2.01853e-07
9.44427e-06
1.90143e-07
9.47035e-06
1.71666e-07
9.49871e-06
1.44997e-07
9.52408e-06
1.18628e-07
9.54163e-06
1.01263e-07
9.54861e-06
9.66369e-08
9.54512e-06
1.02367e-07
9.53404e-06
1.12126e-07
9.51978e-06
1.19873e-07
9.50673e-06
1.2118e-07
9.49807e-06
1.15543e-07
9.49543e-06
1.03894e-07
8.92795e-08
9.49886e-06
1.14505e-05
3.40218e-07
1.15454e-05
2.48976e-07
1.15636e-05
2.54737e-07
1.15257e-05
2.61651e-07
1.14954e-05
2.3212e-07
1.14989e-05
1.86665e-07
1.15248e-05
1.45814e-07
1.15494e-05
1.20341e-07
1.15597e-05
1.08311e-07
1.15578e-05
1.03232e-07
1.15543e-05
1.00134e-07
1.15593e-05
9.73105e-08
1.15774e-05
9.40881e-08
1.16072e-05
8.99966e-08
1.16439e-05
8.44927e-08
1.16818e-05
7.76453e-08
1.1716e-05
6.97133e-08
6.15518e-08
1.17437e-05
8.57174e-06
4.81408e-07
8.50178e-06
3.18941e-07
8.48929e-06
2.67221e-07
8.49773e-06
2.53216e-07
8.51666e-06
2.13189e-07
8.55231e-06
1.51018e-07
8.6017e-06
9.6421e-08
8.65109e-06
7.09482e-08
8.68468e-06
7.47262e-08
8.69646e-06
9.14462e-08
8.69068e-06
1.05919e-07
8.67756e-06
1.10432e-07
8.66704e-06
1.04603e-07
8.66503e-06
9.20121e-08
8.67257e-06
7.69465e-08
8.68731e-06
6.29101e-08
8.70553e-06
5.14968e-08
4.36695e-08
8.72341e-06
7.29576e-06
5.23789e-07
7.26023e-06
3.54474e-07
7.27601e-06
2.51442e-07
7.33006e-06
1.99159e-07
7.39235e-06
1.50905e-07
7.4438e-06
9.95687e-08
7.47946e-06
6.07583e-08
7.50357e-06
4.68422e-08
7.52362e-06
5.46745e-08
7.54443e-06
7.06349e-08
7.56784e-06
8.25078e-08
7.59329e-06
8.49799e-08
7.61908e-06
7.88159e-08
7.64313e-06
6.79664e-08
7.66376e-06
5.63132e-08
7.68018e-06
4.6491e-08
7.69246e-06
3.92108e-08
3.43867e-08
7.70175e-06
6.4057e-06
3.69325e-07
6.45449e-06
3.05678e-07
6.46098e-06
2.44952e-07
6.45995e-06
2.00188e-07
6.46101e-06
1.49846e-07
6.46575e-06
9.48349e-08
6.47237e-06
5.41394e-08
6.48201e-06
3.71976e-08
6.49798e-06
3.87068e-08
6.52175e-06
4.68595e-08
6.55198e-06
5.22846e-08
6.58566e-06
5.12958e-08
6.61987e-06
4.46115e-08
6.65255e-06
3.52784e-08
6.68247e-06
2.63921e-08
6.70903e-06
1.99401e-08
6.73183e-06
1.64076e-08
1.53842e-08
6.75083e-06
5.66413e-06
4.74532e-07
5.68543e-06
2.84372e-07
5.70468e-06
2.25701e-07
5.70944e-06
1.95434e-07
5.70886e-06
1.50425e-07
5.70822e-06
9.54724e-08
5.71337e-06
4.89957e-08
5.7279e-06
2.26648e-08
5.75131e-06
1.52947e-08
5.77968e-06
1.84938e-08
5.80861e-06
2.33471e-08
5.83534e-06
2.4572e-08
5.85875e-06
2.11999e-08
5.87894e-06
1.50899e-08
5.8965e-06
8.82882e-09
5.91208e-06
4.36114e-09
5.92614e-06
2.35088e-09
2.60441e-09
5.93892e-06
4.87643e-06
4.01207e-07
4.89741e-06
2.63392e-07
4.9119e-06
2.11203e-07
4.94156e-06
1.65773e-07
4.97576e-06
1.16229e-07
5.0032e-06
6.80289e-08
5.02077e-06
3.14298e-08
5.03344e-06
9.99816e-09
5.0486e-06
1.33601e-10
5.07061e-06
-3.51769e-09
5.09962e-06
-5.66879e-09
5.13179e-06
-7.59314e-09
5.1621e-06
-9.1089e-09
5.18665e-06
-9.46216e-09
5.20378e-06
-8.3024e-09
5.21397e-06
-5.82641e-09
5.21902e-06
-2.70304e-09
5.97627e-10
5.22103e-06
4.15856e-06
4.03263e-07
4.22156e-06
2.00387e-07
4.28056e-06
1.52209e-07
4.33803e-06
1.08295e-07
4.39385e-06
6.04156e-08
4.43603e-06
2.58439e-08
4.45828e-06
9.18059e-09
4.4664e-06
1.88084e-09
4.47245e-06
-5.92126e-09
4.48302e-06
-1.40852e-08
4.49812e-06
-2.07634e-08
4.51392e-06
-2.34013e-08
4.52663e-06
-2.18151e-08
4.53487e-06
-1.77008e-08
4.53958e-06
-1.30151e-08
4.54272e-06
-8.96677e-09
4.54611e-06
-6.09332e-09
-4.09284e-09
4.5508e-06
3.67505e-06
3.00771e-07
3.73451e-06
1.40927e-07
3.78597e-06
1.00751e-07
3.82762e-06
6.6638e-08
3.85709e-06
3.0953e-08
3.87639e-06
6.54237e-09
3.89018e-06
-4.61111e-09
3.90512e-06
-1.30621e-08
3.92227e-06
-2.30647e-08
3.94089e-06
-3.27076e-08
3.95913e-06
-3.90051e-08
3.97622e-06
-4.04958e-08
3.99232e-06
-3.791e-08
4.00783e-06
-3.32072e-08
4.02268e-06
-2.78744e-08
4.0365e-06
-2.27782e-08
4.04853e-06
-1.81317e-08
-1.37703e-08
4.05821e-06
3.19935e-06
2.13057e-07
3.25534e-06
8.4942e-08
3.30703e-06
4.90621e-08
3.36248e-06
1.11878e-08
3.40733e-06
-1.39027e-08
3.43277e-06
-1.88954e-08
3.4462e-06
-1.8038e-08
3.45474e-06
-2.16052e-08
3.46141e-06
-2.9734e-08
3.46586e-06
-3.71598e-08
3.46746e-06
-4.0604e-08
3.46726e-06
-4.02931e-08
3.46748e-06
-3.81335e-08
3.47024e-06
-3.59618e-08
3.47645e-06
-3.40914e-08
3.48591e-06
-3.22396e-08
3.49751e-06
-2.97325e-08
-2.62116e-08
3.50996e-06
2.85368e-06
1.25045e-07
2.92803e-06
1.05879e-08
2.95646e-06
2.06317e-08
2.97945e-06
-1.1798e-08
3.00056e-06
-3.50127e-08
3.02112e-06
-3.94548e-08
3.04066e-06
-3.75814e-08
3.05816e-06
-3.91078e-08
3.07259e-06
-4.4156e-08
3.08373e-06
-4.83001e-08
3.09178e-06
-4.86582e-08
3.0973e-06
-4.58127e-08
3.10129e-06
-4.21243e-08
3.10494e-06
-3.9609e-08
3.10915e-06
-3.83008e-08
3.11437e-06
-3.74586e-08
3.12059e-06
-3.5952e-08
-3.3303e-08
3.12768e-06
2.50714e-06
4.92068e-08
2.55865e-06
-4.09225e-08
2.60218e-06
-2.28981e-08
2.62241e-06
-3.20253e-08
2.63193e-06
-4.45338e-08
2.64143e-06
-4.89596e-08
2.65212e-06
-4.82652e-08
2.66118e-06
-4.8173e-08
2.66677e-06
-4.97417e-08
2.66878e-06
-5.0314e-08
2.66805e-06
-4.79224e-08
2.66561e-06
-4.33748e-08
2.66237e-06
-3.88851e-08
2.65874e-06
-3.59774e-08
2.65488e-06
-3.44478e-08
2.65082e-06
-3.33965e-08
2.64659e-06
-3.17189e-08
-2.9263e-08
2.64255e-06
2.14467e-06
2.10375e-06
2.08085e-06
2.04882e-06
2.00429e-06
1.95533e-06
1.90706e-06
1.85889e-06
1.80915e-06
1.75884e-06
1.71091e-06
1.66754e-06
1.62865e-06
1.59268e-06
1.55823e-06
1.52483e-06
1.49311e-06
1.46385e-06
-1.6213e-07
1.6213e-07
-2.93185e-07
1.31055e-07
-3.16951e-07
2.37656e-08
-2.26319e-07
-9.0632e-08
-5.40749e-08
-1.72244e-07
1.65057e-07
-2.19132e-07
4.05614e-07
-2.40556e-07
6.50067e-07
-2.44454e-07
8.87916e-07
-2.37849e-07
1.11374e-06
-2.25823e-07
1.32484e-06
-2.11105e-07
1.51966e-06
-1.94817e-07
1.69676e-06
-1.77097e-07
1.85446e-06
-1.57699e-07
1.99068e-06
-1.36228e-07
2.10289e-06
-1.12208e-07
2.18863e-06
-8.57357e-08
2.24543e-06
-5.68014e-08
2.27124e-06
-2.58071e-08
2.26482e-06
6.41824e-09
2.2242e-06
4.06144e-08
2.14894e-06
7.52597e-08
2.03978e-06
1.09167e-07
1.89853e-06
1.41245e-07
1.72753e-06
1.71004e-07
1.53088e-06
1.96645e-07
1.31262e-06
2.18261e-07
1.0781e-06
2.34523e-07
8.3732e-07
2.4078e-07
5.90475e-07
2.46845e-07
3.52731e-07
2.37744e-07
1.72889e-07
1.79842e-07
7.62895e-08
9.65997e-08
4.40256e-08
3.22638e-08
4.77998e-08
-3.77421e-09
8.63057e-08
-3.85058e-08
1.88175e-07
-1.01869e-07
3.64366e-07
-1.76191e-07
5.25962e-07
-1.61596e-07
6.85307e-07
-1.59345e-07
8.3583e-07
-1.50523e-07
9.18486e-07
-8.26566e-08
9.33765e-07
-1.5279e-08
8.39627e-07
9.41382e-08
5.16299e-07
3.23328e-07
-6.02765e-08
5.76576e-07
-6.76267e-07
6.15991e-07
-1.22312e-06
5.46849e-07
-1.72516e-06
5.02043e-07
-2.18388e-06
4.58723e-07
-2.6023e-06
4.18419e-07
-2.98223e-06
3.79933e-07
-3.32457e-06
3.42337e-07
-3.63086e-06
3.06287e-07
-3.90237e-06
2.71513e-07
-4.14086e-06
2.38488e-07
-4.34815e-06
2.07295e-07
-4.52627e-06
1.78119e-07
-4.67726e-06
1.50982e-07
-4.80309e-06
1.2583e-07
-4.90569e-06
1.02602e-07
-4.98694e-06
8.12566e-08
-5.04866e-06
6.17186e-08
-5.0925e-06
4.38354e-08
-5.11996e-06
2.74575e-08
-5.13255e-06
1.25944e-08
-5.13183e-06
-7.19761e-10
-5.1196e-06
-1.22349e-08
-5.09679e-06
-2.28039e-08
-5.06445e-06
-3.23431e-08
-5.02332e-06
-4.11299e-08
-4.97398e-06
-4.93387e-08
-4.91684e-06
-5.71376e-08
-4.85215e-06
-6.4692e-08
-4.78002e-06
-7.21337e-08
-4.70043e-06
-7.95902e-08
-4.61327e-06
-8.71602e-08
-4.51835e-06
-9.49148e-08
-4.41546e-06
-1.02894e-07
-4.30436e-06
-1.11093e-07
-4.18491e-06
-1.19457e-07
-4.05702e-06
-1.27887e-07
-3.92078e-06
-1.36242e-07
-3.77641e-06
-1.44369e-07
-3.62428e-06
-1.52126e-07
-3.46487e-06
-1.5941e-07
-3.2987e-06
-1.66169e-07
-3.1263e-06
-1.72404e-07
-2.94815e-06
-1.78148e-07
-2.76471e-06
-1.83444e-07
-2.5764e-06
-1.88312e-07
-2.38366e-06
-1.92738e-07
-2.18699e-06
-1.96667e-07
-1.98701e-06
-1.99984e-07
-1.78451e-06
-2.02495e-07
-1.58053e-06
-2.03981e-07
-1.37628e-06
-2.04255e-07
-1.17308e-06
-2.03199e-07
-9.72277e-07
-2.00802e-07
-7.75072e-07
-1.97205e-07
-5.82431e-07
-1.92641e-07
-3.95057e-07
-1.87375e-07
-2.13533e-07
-1.81523e-07
-3.84409e-08
-1.75092e-07
1.29974e-07
-1.68414e-07
2.90274e-07
-1.603e-07
4.41237e-07
-1.50963e-07
5.81485e-07
-1.40248e-07
7.09747e-07
-1.28263e-07
8.25071e-07
-1.15324e-07
9.26963e-07
-1.01891e-07
1.01544e-06
-8.84733e-08
1.09097e-06
-7.55373e-08
1.15442e-06
-6.34493e-08
1.20686e-06
-5.24366e-08
1.24946e-06
-4.26024e-08
1.28341e-06
-3.3945e-08
1.30977e-06
-2.63681e-08
1.32955e-06
-1.97763e-08
1.34357e-06
-1.40215e-08
1.35251e-06
-8.93575e-09
1.35701e-06
-4.49728e-09
1.35751e-06
-5.08316e-10
1.35433e-06
3.18487e-09
1.34787e-06
6.45967e-09
1.3387e-06
9.17345e-09
1.32734e-06
1.13577e-08
1.31429e-06
1.3049e-08
1.30002e-06
1.42742e-08
1.28491e-06
1.51005e-08
1.26931e-06
1.56027e-08
1.25347e-06
1.58371e-08
1.23763e-06
1.58491e-08
1.22196e-06
1.56693e-08
1.20664e-06
1.53171e-08
1.19183e-06
1.48053e-08
1.17768e-06
1.41502e-08
1.16431e-06
1.33751e-08
1.1518e-06
1.251e-08
1.1402e-06
1.15949e-08
1.12954e-06
1.0661e-08
1.1198e-06
9.74273e-09
1.11093e-06
8.86908e-09
1.10287e-06
8.06118e-09
1.09554e-06
7.33039e-09
1.08886e-06
6.67878e-09
1.08276e-06
6.10318e-09
1.07715e-06
5.60402e-09
1.07199e-06
5.16404e-09
1.0672e-06
4.78887e-09
1.06273e-06
4.46758e-09
1.05854e-06
4.19384e-09
1.05458e-06
3.96306e-09
1.0508e-06
3.77173e-09
1.04719e-06
3.6172e-09
1.04369e-06
3.4973e-09
1.04028e-06
3.41117e-09
1.03692e-06
3.36047e-09
1.03357e-06
3.34691e-09
1.0302e-06
3.37554e-09
1.02673e-06
3.46207e-09
1.02313e-06
3.60572e-09
1.01931e-06
3.81849e-09
1.01521e-06
4.09557e-09
1.01074e-06
4.47208e-09
1.00582e-06
4.92191e-09
1.00028e-06
5.53643e-09
9.94058e-07
6.22558e-09
9.86827e-07
7.23073e-09
9.78565e-07
8.26214e-09
9.68583e-07
9.98192e-09
9.57103e-07
1.14806e-08
9.42448e-07
1.46549e-08
9.258e-07
1.66472e-08
9.02663e-07
2.31378e-08
8.77629e-07
2.50339e-08
8.37588e-07
4.0041e-08
7.99186e-07
3.84021e-08
7.21596e-07
7.75895e-08
5.87976e-08
6.62799e-07
-8.24527e-08
2.44583e-07
-1.42414e-07
1.91016e-07
-8.97248e-08
-2.89237e-08
6.51919e-08
-2.45549e-07
2.75452e-07
-3.82503e-07
5.06922e-07
-4.50602e-07
7.38792e-07
-4.72427e-07
9.61986e-07
-4.67647e-07
1.17432e-06
-4.50185e-07
1.37613e-06
-4.2763e-07
1.56784e-06
-4.02812e-07
1.74903e-06
-3.76013e-07
1.91819e-06
-3.46255e-07
2.07227e-06
-3.11775e-07
2.20802e-06
-2.71985e-07
2.32256e-06
-2.26745e-07
2.4131e-06
-1.76272e-07
2.47764e-06
-1.21342e-07
2.51445e-06
-6.26158e-08
2.52135e-06
-4.83718e-10
2.50226e-06
5.97071e-08
2.45662e-06
1.20899e-07
2.38613e-06
1.79654e-07
2.29223e-06
2.35146e-07
2.17913e-06
2.84106e-07
2.04837e-06
3.27398e-07
1.90576e-06
3.60878e-07
1.75664e-06
3.83642e-07
1.60267e-06
3.94748e-07
1.46284e-06
3.86677e-07
1.32878e-06
3.71802e-07
1.18906e-06
3.1956e-07
1.0308e-06
2.54862e-07
8.90692e-07
1.72369e-07
8.40298e-07
4.66199e-08
8.48502e-07
-4.67095e-08
8.75275e-07
-1.28643e-07
1.00623e-06
-3.07145e-07
1.19842e-06
-3.53788e-07
1.19597e-06
-1.56896e-07
9.90679e-07
5.47699e-08
5.29626e-07
3.78397e-07
-2.17836e-07
7.32182e-07
-1.03156e-06
9.07864e-07
-1.69038e-06
9.82146e-07
-2.14419e-06
1.03038e-06
-2.51909e-06
9.90892e-07
-2.89441e-06
9.22166e-07
-3.24146e-06
8.49099e-07
-3.55674e-06
7.74001e-07
-3.84046e-06
7.02136e-07
-4.09346e-06
6.32933e-07
-4.31828e-06
5.67156e-07
-4.51667e-06
5.04683e-07
-4.69075e-06
4.45592e-07
-4.84228e-06
3.90019e-07
-4.97292e-06
3.37936e-07
-5.08416e-06
2.89358e-07
-5.17733e-06
2.44149e-07
-5.25364e-06
2.02144e-07
-5.31414e-06
1.63101e-07
-5.35974e-06
1.2685e-07
-5.39126e-06
9.32425e-08
-5.40952e-06
6.20981e-08
-5.41537e-06
3.3304e-08
-5.40934e-06
6.56079e-09
-5.39273e-06
-1.73253e-08
-5.36571e-06
-3.92563e-08
-5.32903e-06
-5.94802e-08
-5.28328e-06
-7.81004e-08
-5.22907e-06
-9.53318e-08
-5.16696e-06
-1.11455e-07
-5.09733e-06
-1.2677e-07
-5.02045e-06
-1.41569e-07
-4.93646e-06
-1.56125e-07
-4.84537e-06
-1.70674e-07
-4.74712e-06
-1.85412e-07
-4.64155e-06
-2.00488e-07
-4.52845e-06
-2.15989e-07
-4.40762e-06
-2.31923e-07
-4.27888e-06
-2.48197e-07
-4.14215e-06
-2.64618e-07
-3.99748e-06
-2.8091e-07
-3.84509e-06
-2.9676e-07
-3.68534e-06
-3.11878e-07
-3.51869e-06
-3.26057e-07
-3.34566e-06
-3.39205e-07
-3.16673e-06
-3.51337e-07
-2.98233e-06
-3.62543e-07
-2.79284e-06
-3.72931e-07
-2.59859e-06
-3.82559e-07
-2.39993e-06
-3.91407e-07
-2.19722e-06
-3.99368e-07
-1.991e-06
-4.06208e-07
-1.78197e-06
-4.11524e-07
-1.57111e-06
-4.14837e-07
-1.35962e-06
-4.15746e-07
-1.14884e-06
-4.13986e-07
-9.40137e-07
-4.09501e-07
-7.34745e-07
-4.02597e-07
-5.33565e-07
-3.9382e-07
-3.37236e-07
-3.83704e-07
-1.46029e-07
-3.7273e-07
3.98737e-08
-3.60995e-07
2.19658e-07
-3.48199e-07
3.92459e-07
-3.33101e-07
5.56915e-07
-3.15419e-07
7.11565e-07
-2.94897e-07
8.55048e-07
-2.71745e-07
9.86349e-07
-2.46625e-07
1.10496e-06
-2.20498e-07
1.21089e-06
-1.94409e-07
1.30465e-06
-1.69294e-07
1.38706e-06
-1.45864e-07
1.45918e-06
-1.24554e-07
1.52213e-06
-1.05556e-07
1.57704e-06
-8.88555e-08
1.62498e-06
-7.43067e-08
1.6669e-06
-6.16978e-08
1.70366e-06
-5.0774e-08
1.736e-06
-4.12831e-08
1.76452e-06
-3.30128e-08
1.78977e-06
-2.5762e-08
1.81229e-06
-1.9334e-08
1.83237e-06
-1.36171e-08
1.85013e-06
-8.58527e-09
1.86569e-06
-4.20028e-09
1.87911e-06
-3.76925e-10
1.89052e-06
2.86431e-09
1.90005e-06
5.57698e-09
1.90788e-06
7.76859e-09
1.91426e-06
9.4577e-09
1.91944e-06
1.06632e-08
1.92371e-06
1.14014e-08
1.92734e-06
1.16921e-08
1.93059e-06
1.15569e-08
1.9337e-06
1.10378e-08
1.93688e-06
1.01955e-08
1.94029e-06
9.10162e-09
1.94402e-06
7.85769e-09
1.94815e-06
6.5373e-09
1.95266e-06
5.22496e-09
1.95754e-06
3.98984e-09
1.96272e-06
2.88207e-09
1.96812e-06
1.92941e-09
1.97366e-06
1.13988e-09
1.97926e-06
5.0785e-10
1.98483e-06
3.19716e-11
1.99035e-06
-3.51397e-10
1.99574e-06
-6.0763e-10
2.00098e-06
-7.71264e-10
2.00603e-06
-8.56092e-10
2.01086e-06
-8.68521e-10
2.01544e-06
-8.06794e-10
2.01972e-06
-6.65885e-10
2.02366e-06
-4.41696e-10
2.02721e-06
-1.35575e-10
2.03034e-06
2.31547e-10
2.03303e-06
6.60463e-10
2.03524e-06
1.15736e-09
2.03697e-06
1.73955e-09
2.03816e-06
2.41379e-09
2.03878e-06
3.19524e-09
2.0388e-06
4.08064e-09
2.03814e-06
5.13206e-09
2.03676e-06
6.30063e-09
2.03455e-06
7.74749e-09
2.03148e-06
9.29265e-09
2.02732e-06
1.13861e-08
2.02213e-06
1.34552e-08
2.01536e-06
1.67538e-08
2.00732e-06
1.95232e-08
1.99669e-06
2.52835e-08
1.98452e-06
2.88127e-08
1.96765e-06
4.00125e-08
1.94891e-06
4.37692e-08
1.92125e-06
6.77004e-08
1.89058e-06
6.90772e-08
1.84447e-06
1.23697e-07
1.17178e-07
1.78609e-06
-1.40419e-08
2.58625e-07
4.14069e-08
1.35567e-07
2.12268e-07
-1.99785e-07
4.30317e-07
-4.63597e-07
6.50778e-07
-6.02965e-07
8.54247e-07
-6.54071e-07
1.03961e-06
-6.57788e-07
1.21404e-06
-6.4208e-07
1.38525e-06
-6.2139e-07
1.55777e-06
-6.00156e-07
1.73175e-06
-5.76785e-07
1.90388e-06
-5.48148e-07
2.06906e-06
-5.11438e-07
2.22218e-06
-4.64892e-07
2.35833e-06
-4.08134e-07
2.47329e-06
-3.41703e-07
2.56373e-06
-2.66715e-07
2.62699e-06
-1.84601e-07
2.66119e-06
-9.68208e-08
2.66583e-06
-5.11824e-09
2.63898e-06
8.65556e-08
2.58268e-06
1.77197e-07
2.49888e-06
2.63451e-07
2.39223e-06
3.41799e-07
2.26761e-06
4.08729e-07
2.13264e-06
4.62367e-07
1.99673e-06
4.96789e-07
1.86184e-06
5.18529e-07
1.7367e-06
5.19889e-07
1.61546e-06
5.07915e-07
1.50757e-06
4.79695e-07
1.39861e-06
4.28523e-07
1.30278e-06
3.50687e-07
1.22495e-06
2.50201e-07
1.1223e-06
1.49273e-07
1.16443e-06
-8.88461e-08
1.30592e-06
-2.70134e-07
1.17163e-06
-1.72847e-07
7.52691e-07
6.51475e-08
8.87559e-08
5.07039e-07
-7.14554e-07
8.5808e-07
-1.43522e-06
1.09906e-06
-1.96174e-06
1.2587e-06
-2.3806e-06
1.32673e-06
-2.72475e-06
1.32629e-06
-2.97819e-06
1.28383e-06
-3.19703e-06
1.20973e-06
-3.40786e-06
1.133e-06
-3.61123e-06
1.05247e-06
-3.80825e-06
9.7102e-07
-3.99632e-06
8.90204e-07
-4.174e-06
8.10612e-07
-4.33979e-06
7.32948e-07
-4.49252e-06
6.57412e-07
-4.63145e-06
5.84523e-07
-4.75607e-06
5.1464e-07
-4.86616e-06
4.48022e-07
-4.96163e-06
3.84829e-07
-5.04254e-06
3.25054e-07
-5.10904e-06
2.68647e-07
-5.16142e-06
2.15483e-07
-5.2e-06
1.65425e-07
-5.22513e-06
1.18373e-07
-5.23732e-06
7.42873e-08
-5.23709e-06
3.308e-08
-5.22551e-06
-5.02218e-09
-5.20302e-06
-3.98132e-08
-5.17034e-06
-7.19341e-08
-5.1284e-06
-1.01421e-07
-5.07796e-06
-1.28538e-07
-5.01968e-06
-1.53613e-07
-4.9541e-06
-1.77042e-07
-4.88162e-06
-1.99242e-07
-4.80257e-06
-2.20621e-07
-4.71713e-06
-2.41564e-07
-4.62539e-06
-2.62417e-07
-4.52732e-06
-2.83483e-07
-4.4228e-06
-3.05012e-07
-4.31161e-06
-3.27175e-07
-4.1935e-06
-3.50037e-07
-4.06819e-06
-3.73505e-07
-3.93549e-06
-3.97313e-07
-3.79536e-06
-4.21044e-07
-3.64791e-06
-4.44205e-07
-3.49347e-06
-4.66325e-07
-3.33246e-06
-4.87065e-07
-3.16539e-06
-5.06274e-07
-2.99274e-06
-5.23988e-07
-2.81492e-06
-5.40365e-07
-2.63226e-06
-5.55588e-07
-2.44505e-06
-5.69763e-07
-2.2536e-06
-5.82858e-07
-2.05827e-06
-5.94699e-07
-1.85955e-06
-6.04931e-07
-1.65815e-06
-6.1293e-07
-1.45506e-06
-6.17919e-07
-1.25156e-06
-6.19254e-07
-1.04902e-06
-6.1652e-07
-8.48885e-07
-6.09639e-07
-6.52335e-07
-5.99146e-07
-4.60094e-07
-5.86062e-07
-2.72423e-07
-5.71375e-07
-8.90786e-08
-5.56074e-07
9.0309e-08
-5.40383e-07
2.65071e-07
-5.22961e-07
4.34436e-07
-5.02467e-07
5.96834e-07
-4.77816e-07
7.50336e-07
-4.48399e-07
8.9304e-07
-4.14449e-07
1.02347e-06
-3.77058e-07
1.14086e-06
-3.37889e-07
1.24521e-06
-2.98752e-07
1.33714e-06
-2.6123e-07
1.41773e-06
-2.26455e-07
1.48824e-06
-1.95062e-07
1.54995e-06
-1.67259e-07
1.60403e-06
-1.42941e-07
1.65155e-06
-1.21823e-07
1.69339e-06
-1.03543e-07
1.73035e-06
-8.77299e-08
1.76312e-06
-7.40555e-08
1.79234e-06
-6.22344e-08
1.8186e-06
-5.20231e-08
1.84247e-06
-4.32014e-08
1.86441e-06
-3.55558e-08
1.88473e-06
-2.89103e-08
1.90364e-06
-2.31026e-08
1.92125e-06
-1.79894e-08
1.9376e-06
-1.34886e-08
1.95271e-06
-9.53435e-09
1.96659e-06
-6.11059e-09
1.97928e-06
-3.23389e-09
1.99088e-06
-9.38214e-10
2.00156e-06
7.28989e-10
2.01148e-06
1.76609e-09
2.02088e-06
2.1576e-09
2.02998e-06
1.93959e-09
2.03899e-06
1.18281e-09
2.04811e-06
-1.58616e-11
2.05745e-06
-1.48508e-09
2.06713e-06
-3.14042e-09
2.07719e-06
-4.83383e-09
2.08763e-06
-6.44972e-09
2.09841e-06
-7.89998e-09
2.10947e-06
-9.13056e-09
2.12073e-06
-1.01202e-08
2.13211e-06
-1.08706e-08
2.14353e-06
-1.13907e-08
2.1549e-06
-1.17182e-08
2.16616e-06
-1.18694e-08
2.17727e-06
-1.18808e-08
2.18819e-06
-1.17757e-08
2.19889e-06
-1.15628e-08
2.20932e-06
-1.12418e-08
2.21947e-06
-1.0813e-08
2.22931e-06
-1.02844e-08
2.23884e-06
-9.66512e-09
2.24803e-06
-8.95802e-09
2.25684e-06
-8.15237e-09
2.26524e-06
-7.23811e-09
2.27317e-06
-6.19152e-09
2.2806e-06
-5.0142e-09
2.28747e-06
-3.67346e-09
2.29372e-06
-2.17727e-09
2.29928e-06
-4.22328e-10
2.30406e-06
1.51409e-09
2.30799e-06
3.82592e-09
2.31102e-06
6.26139e-09
2.31302e-06
9.37788e-09
2.31401e-06
1.24737e-08
2.31375e-06
1.70085e-08
2.31226e-06
2.10104e-08
2.30925e-06
2.8299e-08
2.30457e-06
3.34964e-08
2.29808e-06
4.64993e-08
2.28876e-06
5.30899e-08
2.27804e-06
7.84138e-08
2.26082e-06
8.63046e-08
2.24649e-06
1.38026e-07
1.50368e-07
2.2133e-06
1.92006e-08
2.39424e-07
2.19237e-07
-6.44695e-08
4.85131e-07
-4.65679e-07
7.20708e-07
-6.99174e-07
9.06252e-07
-7.88509e-07
1.05683e-06
-8.0465e-07
1.19626e-06
-7.97214e-07
1.34264e-06
-7.88463e-07
1.50387e-06
-7.82619e-07
1.67863e-06
-7.74916e-07
1.86038e-06
-7.58541e-07
2.04063e-06
-7.28396e-07
2.21113e-06
-6.8194e-07
2.36528e-06
-6.19041e-07
2.4984e-06
-5.41251e-07
2.60745e-06
-4.50752e-07
2.69067e-06
-3.49934e-07
2.74695e-06
-2.40885e-07
2.77603e-06
-1.259e-07
2.77884e-06
-7.93097e-09
2.74846e-06
1.16942e-07
2.68697e-06
2.38683e-07
2.59494e-06
3.5548e-07
2.47422e-06
4.62524e-07
2.32815e-06
5.54794e-07
2.16532e-06
6.25204e-07
1.99178e-06
6.7033e-07
1.82512e-06
6.85185e-07
1.6682e-06
6.76807e-07
1.52906e-06
6.47061e-07
1.40829e-06
6.00463e-07
1.28987e-06
5.46945e-07
1.19956e-06
4.40999e-07
1.07437e-06
3.75385e-07
9.88944e-07
2.34701e-07
9.17927e-07
-1.7829e-08
6.29021e-07
1.87722e-08
3.76604e-09
4.52408e-07
-7.85554e-07
8.54468e-07
-1.43504e-06
1.15653e-06
-1.96709e-06
1.39013e-06
-2.38806e-06
1.52003e-06
-2.68316e-06
1.55381e-06
-2.89195e-06
1.53552e-06
-3.05815e-06
1.49249e-06
-3.20579e-06
1.43146e-06
-3.35274e-06
1.35668e-06
-3.49959e-06
1.27985e-06
-3.64716e-06
1.20004e-06
-3.79483e-06
1.11869e-06
-3.93959e-06
1.03496e-06
-4.07869e-06
9.49708e-07
-4.20971e-06
8.63976e-07
-4.33118e-06
7.78878e-07
-4.44227e-06
6.95616e-07
-4.54259e-06
6.14955e-07
-4.63195e-06
5.37381e-07
-4.71017e-06
4.63049e-07
-4.77701e-06
3.91901e-07
-4.83216e-06
3.23794e-07
-4.87528e-06
2.58602e-07
-4.90615e-06
1.96296e-07
-4.92471e-06
1.36928e-07
-4.93098e-06
8.05636e-08
-4.92512e-06
2.72178e-08
-4.90797e-06
-2.21717e-08
-4.87994e-06
-6.78397e-08
-4.84187e-06
-1.10008e-07
-4.79464e-06
-1.48653e-07
-4.73915e-06
-1.84029e-07
-4.67623e-06
-2.16528e-07
-4.60665e-06
-2.46623e-07
-4.53107e-06
-2.74824e-07
-4.45005e-06
-3.01643e-07
-4.36403e-06
-3.27578e-07
-4.27334e-06
-3.53114e-07
-4.17809e-06
-3.7873e-07
-4.07822e-06
-4.04882e-07
-3.97344e-06
-4.31958e-07
-3.86327e-06
-4.60201e-07
-3.74715e-06
-4.89625e-07
-3.62452e-06
-5.19944e-07
-3.49497e-06
-5.50593e-07
-3.35832e-06
-5.80856e-07
-3.21462e-06
-6.1003e-07
-3.06407e-06
-6.37607e-07
-2.90698e-06
-6.6337e-07
-2.74359e-06
-6.87378e-07
-2.5741e-06
-7.09856e-07
-2.39865e-06
-7.31034e-07
-2.21743e-06
-7.50982e-07
-2.03077e-06
-7.69526e-07
-1.8392e-06
-7.86269e-07
-1.64354e-06
-8.00586e-07
-1.44498e-06
-8.11492e-07
-1.2452e-06
-8.17702e-07
-1.04619e-06
-8.18259e-07
-8.5013e-07
-8.1258e-07
-6.59048e-07
-8.0072e-07
-4.74353e-07
-7.83841e-07
-2.96628e-07
-7.63787e-07
-1.25307e-07
-7.42696e-07
4.14067e-08
-7.22788e-07
2.04693e-07
-7.03669e-07
3.65161e-07
-6.83429e-07
5.22793e-07
-6.60098e-07
6.76387e-07
-6.31411e-07
8.23875e-07
-5.95887e-07
9.62813e-07
-5.53387e-07
1.09093e-06
-5.05179e-07
1.20662e-06
-4.53577e-07
1.3092e-06
-4.01326e-07
1.39894e-06
-3.50973e-07
1.47689e-06
-3.04411e-07
1.54453e-06
-2.62701e-07
1.60343e-06
-2.26156e-07
1.65505e-06
-1.94556e-07
1.7006e-06
-1.67376e-07
1.74102e-06
-1.43967e-07
1.77696e-06
-1.23672e-07
1.80882e-06
-1.05916e-07
1.83685e-06
-9.02564e-08
1.86124e-06
-7.64125e-08
1.88227e-06
-6.4239e-08
1.90039e-06
-5.36712e-08
1.91614e-06
-4.46618e-08
1.93015e-06
-3.71087e-08
1.94297e-06
-3.08125e-08
1.95501e-06
-2.55327e-08
1.96653e-06