/*--------------------------------*- C++ -*----------------------------------*\
  =========                 |
  \\      /  F ield         | OpenFOAM: The Open Source CFD Toolbox
   \\    /   O peration     | Website:  https://openfoam.org
    \\  /    A nd           | Version:  7
     \\/     M anipulation  |
\*---------------------------------------------------------------------------*/
FoamFile
{
    version     2.0;
    format      ascii;
    class       surfaceScalarField;
    location    "0.059";
    object      phi_0;
}
// * * * * * * * * * * * * * * * * * * * * * * * * * * * * * * * * * * * * * //

dimensions      [0 3 -1 0 0 0 0];

internalField   nonuniform List<scalar> 
24170
(
1.39811e-06
2.06019e-07
1.25598e-06
1.42131e-07
1.11844e-06
1.37544e-07
1.00305e-06
1.15384e-07
8.96946e-07
1.06108e-07
7.90253e-07
1.06693e-07
6.83037e-07
1.07217e-07
5.82162e-07
1.00874e-07
4.94755e-07
8.74077e-08
4.23012e-07
7.17428e-08
3.65113e-07
5.78992e-08
3.17939e-07
4.71737e-08
2.78523e-07
3.94162e-08
2.4476e-07
3.37624e-08
2.15038e-07
2.97223e-08
1.89245e-07
2.57927e-08
1.63559e-07
2.56863e-08
1.95333e-08
1.44026e-07
1.69221e-06
3.09038e-07
1.67099e-06
1.63353e-07
1.63089e-06
1.77646e-07
1.58703e-06
1.59239e-07
1.54922e-06
1.43919e-07
1.50966e-06
1.46254e-07
1.4622e-06
1.54681e-07
1.40633e-06
1.56742e-07
1.34598e-06
1.47751e-07
1.28616e-06
1.31564e-07
1.23089e-06
1.13175e-07
1.18145e-06
9.66138e-08
1.13712e-06
8.37424e-08
1.09546e-06
7.54279e-08
1.05377e-06
7.14111e-08
1.01082e-06
6.8735e-08
9.66544e-07
6.99665e-08
6.82473e-08
9.1783e-07
1.79315e-06
3.38344e-07
1.76727e-06
1.8924e-07
1.75748e-06
1.87436e-07
1.74629e-06
1.7042e-07
1.737e-06
1.53213e-07
1.73021e-06
1.53049e-07
1.7238e-06
1.61084e-07
1.71475e-06
1.65798e-07
1.7008e-06
1.61703e-07
1.68239e-06
1.49969e-07
1.66134e-06
1.34224e-07
1.6397e-06
1.18251e-07
1.61867e-06
1.04775e-07
1.59879e-06
9.53121e-08
1.57891e-06
9.12859e-08
1.55777e-06
8.98765e-08
1.5349e-06
9.2837e-08
9.54917e-08
1.50766e-06
1.92686e-06
3.28275e-07
1.89434e-06
2.21759e-07
1.87989e-06
2.01881e-07
1.86564e-06
1.8467e-07
1.85132e-06
1.67532e-07
1.8424e-06
1.61968e-07
1.84003e-06
1.6346e-07
1.84153e-06
1.64291e-07
1.84351e-06
1.5973e-07
1.84417e-06
1.49306e-07
1.84301e-06
1.35385e-07
1.84028e-06
1.20976e-07
1.83622e-06
1.08836e-07
1.83135e-06
1.00186e-07
1.82603e-06
9.66063e-08
1.81981e-06
9.60974e-08
1.81356e-06
9.90833e-08
1.03287e-07
1.80577e-06
2.05926e-06
3.81224e-07
2.02887e-06
2.5215e-07
2.01585e-06
2.14899e-07
2.00292e-06
1.97601e-07
1.98868e-06
1.81767e-07
1.97742e-06
1.73232e-07
1.97098e-06
1.699e-07
1.96924e-06
1.66026e-07
1.97146e-06
1.57518e-07
1.97662e-06
1.44145e-07
1.98308e-06
1.28927e-07
1.98872e-06
1.15336e-07
1.9917e-06
1.05849e-07
1.99111e-06
1.00773e-07
1.98781e-06
9.99059e-08
1.9825e-06
1.01408e-07
1.97748e-06
1.04105e-07
1.07219e-07
1.97355e-06
2.23104e-06
3.78119e-07
2.18206e-06
3.01134e-07
2.15358e-06
2.43382e-07
2.14302e-06
2.08155e-07
2.13997e-06
1.84822e-07
2.14179e-06
1.71413e-07
2.1471e-06
1.64588e-07
2.15338e-06
1.59748e-07
2.15824e-06
1.52651e-07
2.16081e-06
1.41576e-07
2.16105e-06
1.28689e-07
2.15884e-06
1.17546e-07
2.15402e-06
1.10667e-07
2.14664e-06
1.08156e-07
2.13805e-06
1.08492e-07
2.12947e-06
1.09986e-07
2.1231e-06
1.10483e-07
1.10131e-07
2.12018e-06
2.3743e-06
3.91972e-07
2.37201e-06
3.03421e-07
2.35887e-06
2.56523e-07
2.33663e-06
2.30393e-07
2.3145e-06
2.06955e-07
2.30173e-06
1.84175e-07
2.29956e-06
1.66756e-07
2.30379e-06
1.55522e-07
2.3102e-06
1.46246e-07
2.31668e-06
1.35094e-07
2.32213e-06
1.23241e-07
2.32503e-06
1.14638e-07
2.32383e-06
1.11867e-07
2.31776e-06
1.14226e-07
2.30808e-06
1.18176e-07
2.29715e-06
1.20914e-07
2.28795e-06
1.19679e-07
1.15058e-07
2.28303e-06
2.59135e-06
4.7418e-07
2.54722e-06
3.47549e-07
2.53787e-06
2.65877e-07
2.54108e-06
2.27178e-07
2.5401e-06
2.07939e-07
2.52847e-06
1.95805e-07
2.5094e-06
1.85826e-07
2.49065e-06
1.74269e-07
2.47803e-06
1.58871e-07
2.47217e-06
1.40952e-07
2.47031e-06
1.25099e-07
2.46931e-06
1.15645e-07
2.4675e-06
1.13675e-07
2.46492e-06
1.168e-07
2.46261e-06
1.20491e-07
2.46203e-06
1.21498e-07
2.46387e-06
1.17836e-07
1.10568e-07
2.46836e-06
2.72799e-06
4.31839e-07
2.72644e-06
3.49105e-07
2.7299e-06
2.62421e-07
2.72844e-06
2.28634e-07
2.72119e-06
2.15191e-07
2.71217e-06
2.04819e-07
2.70431e-06
1.93684e-07
2.69824e-06
1.80348e-07
2.69276e-06
1.64346e-07
2.68621e-06
1.47498e-07
2.6781e-06
1.33217e-07
2.66961e-06
1.24132e-07
2.66305e-06
1.20236e-07
2.66039e-06
1.19456e-07
2.66218e-06
1.18707e-07
2.66777e-06
1.15903e-07
2.67507e-06
1.10542e-07
1.03158e-07
2.68248e-06
2.9968e-06
4.14919e-07
2.97602e-06
3.69881e-07
2.93618e-06
3.02261e-07
2.90965e-06
2.55167e-07
2.89468e-06
2.30161e-07
2.88734e-06
2.1216e-07
2.88399e-06
1.97031e-07
2.88126e-06
1.83072e-07
2.87786e-06
1.67745e-07
2.87468e-06
1.50685e-07
2.87354e-06
1.34352e-07
2.87583e-06
1.2184e-07
2.88172e-06
1.1435e-07
2.88991e-06
1.11265e-07
2.89823e-06
1.1039e-07
2.90449e-06
1.09639e-07
2.90695e-06
1.08089e-07
1.04561e-07
2.90554e-06
3.18337e-06
4.59525e-07
3.17309e-06
3.80165e-07
3.16495e-06
3.104e-07
3.15814e-06
2.61975e-07
3.15217e-06
2.36129e-07
3.14384e-06
2.20499e-07
3.13362e-06
2.07248e-07
3.12349e-06
1.93201e-07
3.11428e-06
1.76951e-07
3.10623e-06
1.58739e-07
3.1001e-06
1.4048e-07
3.09722e-06
1.24725e-07
3.09833e-06
1.13239e-07
3.10298e-06
1.06609e-07
3.10938e-06
1.03998e-07
3.11542e-06
1.03595e-07
3.1196e-06
1.03903e-07
1.03207e-07
3.12096e-06
2.82538e-06
4.79405e-07
2.81447e-06
3.91077e-07
2.82874e-06
2.96131e-07
2.84394e-06
2.46771e-07
2.84619e-06
2.3388e-07
2.83735e-06
2.29334e-07
2.82616e-06
2.18437e-07
2.81891e-06
2.00459e-07
2.81626e-06
1.796e-07
2.81545e-06
1.59541e-07
2.81372e-06
1.42217e-07
2.8104e-06
1.28047e-07
2.80657e-06
1.17064e-07
2.80423e-06
1.08954e-07
2.80465e-06
1.03574e-07
2.80797e-06
1.00274e-07
2.81366e-06
9.82128e-08
9.68338e-08
2.82003e-06
3.47559e-06
5.10854e-07
3.45832e-06
4.08348e-07
3.47431e-06
2.80142e-07
3.48211e-06
2.38971e-07
3.48157e-06
2.34417e-07
3.48465e-06
2.26253e-07
3.49425e-06
2.08833e-07
3.50412e-06
1.90589e-07
3.50665e-06
1.77072e-07
3.49867e-06
1.6752e-07
3.48253e-06
1.58361e-07
3.46364e-06
1.46939e-07
3.44717e-06
1.33527e-07
3.43629e-06
1.19833e-07
3.43221e-06
1.0766e-07
3.43426e-06
9.82228e-08
3.44153e-06
9.09415e-08
8.62556e-08
3.45211e-06
4.28562e-06
4.95122e-07
4.25258e-06
4.41388e-07
4.2081e-06
3.24614e-07
4.18714e-06
2.59938e-07
4.18983e-06
2.31726e-07
4.19995e-06
2.16134e-07
4.20547e-06
2.03315e-07
4.2068e-06
1.89256e-07
4.21031e-06
1.73563e-07
4.22027e-06
1.57553e-07
4.23548e-06
1.43154e-07
4.25055e-06
1.31867e-07
4.25999e-06
1.2409e-07
4.26094e-06
1.18886e-07
4.25447e-06
1.14125e-07
4.24414e-06
1.08553e-07
4.23382e-06
1.01264e-07
9.29094e-08
4.22717e-06
5.18811e-06
6.89636e-07
5.17458e-06
4.54914e-07
5.1817e-06
3.17498e-07
5.17013e-06
2.71503e-07
5.1455e-06
2.56357e-07
5.11927e-06
2.42364e-07
5.10214e-06
2.20445e-07
5.10074e-06
1.90662e-07
5.11619e-06
1.58113e-07
5.14396e-06
1.29777e-07
5.17625e-06
1.1087e-07
5.20543e-06
1.02685e-07
5.22684e-06
1.02674e-07
5.23932e-06
1.06411e-07
5.24409e-06
1.09356e-07
5.24356e-06
1.0908e-07
5.23965e-06
1.05181e-07
9.88249e-08
5.23373e-06
6.31359e-06
5.58993e-07
6.33352e-06
4.34986e-07
6.30515e-06
3.45867e-07
6.28744e-06
2.8921e-07
6.29151e-06
2.52282e-07
6.30844e-06
2.25444e-07
6.32511e-06
2.03771e-07
6.33516e-06
1.80615e-07
6.33873e-06
1.54539e-07
6.33861e-06
1.29903e-07
6.33763e-06
1.11844e-07
6.33772e-06
1.02598e-07
6.33982e-06
1.00569e-07
6.34395e-06
1.02286e-07
6.34952e-06
1.03787e-07
6.35545e-06
1.03144e-07
6.36097e-06
9.96678e-08
9.44808e-08
6.36531e-06
7.57297e-06
5.21255e-07
7.59353e-06
4.14428e-07
7.63615e-06
3.0325e-07
7.68047e-06
2.4489e-07
7.7106e-06
2.22153e-07
7.72321e-06
2.12836e-07
7.7286e-06
1.98374e-07
7.73583e-06
1.73389e-07
7.74654e-06
1.43826e-07
7.75759e-06
1.18851e-07
7.76536e-06
1.04079e-07
7.76818e-06
9.97737e-08
7.76655e-06
1.02201e-07
7.76202e-06
1.06822e-07
7.75661e-06
1.09193e-07
7.75201e-06
1.07741e-07
7.74981e-06
1.01875e-07
9.31848e-08
7.7511e-06
9.25472e-06
4.14564e-07
9.33303e-06
3.36118e-07
9.36533e-06
2.70952e-07
9.38655e-06
2.23664e-07
9.40623e-06
2.02471e-07
9.4285e-06
1.9057e-07
9.45533e-06
1.71545e-07
9.48416e-06
1.44555e-07
9.50968e-06
1.18314e-07
9.5271e-06
1.0143e-07
9.5338e-06
9.73781e-08
9.53005e-06
1.03518e-07
9.51886e-06
1.13389e-07
9.50472e-06
1.20964e-07
9.49199e-06
1.21922e-07
9.48383e-06
1.15907e-07
9.48176e-06
1.03944e-07
8.9167e-08
9.48577e-06
1.14541e-05
3.79691e-07
1.15298e-05
2.60504e-07
1.15413e-05
2.59442e-07
1.15022e-05
2.62783e-07
1.14735e-05
2.31149e-07
1.1479e-05
1.85026e-07
1.15061e-05
1.4449e-07
1.1531e-05
1.19648e-07
1.15412e-05
1.08132e-07
1.15393e-05
1.0333e-07
1.15363e-05
1.00357e-07
1.15422e-05
9.75897e-08
1.15612e-05
9.43789e-08
1.15919e-05
9.02562e-08
1.16292e-05
8.46899e-08
1.16673e-05
7.77752e-08
1.17014e-05
6.97965e-08
6.16252e-08
1.1729e-05
8.53114e-06
4.87827e-07
8.47405e-06
3.17597e-07
8.46771e-06
2.65776e-07
8.47973e-06
2.5077e-07
8.50121e-06
2.0966e-07
8.53882e-06
1.47421e-07
8.58945e-06
9.38653e-08
8.63917e-06
6.9925e-08
8.67238e-06
7.49206e-08
8.68356e-06
9.21461e-08
8.6774e-06
1.0652e-07
8.66434e-06
1.10652e-07
8.65427e-06
1.04444e-07
8.6529e-06
9.16269e-08
8.66108e-06
7.65167e-08
8.67628e-06
6.2572e-08
8.69475e-06
5.13242e-08
4.36729e-08
8.7127e-06
7.25399e-06
5.11864e-07
7.23317e-06
3.38421e-07
7.25774e-06
2.412e-07
7.31644e-06
1.92076e-07
7.3807e-06
1.45397e-07
7.4328e-06
9.53208e-08
7.46861e-06
5.80537e-08
7.49284e-06
4.56989e-08
7.51314e-06
5.46226e-08
7.53429e-06
7.0993e-08
7.55805e-06
8.27624e-08
7.58377e-06
8.49252e-08
7.60972e-06
7.84987e-08
7.6338e-06
6.75487e-08
7.65437e-06
5.59488e-08
7.67067e-06
4.62671e-08
7.68285e-06
3.91446e-08
3.4447e-08
7.69208e-06
6.37894e-06
3.27316e-07
6.43535e-06
2.82014e-07
6.44638e-06
2.30168e-07
6.4477e-06
1.90755e-07
6.45017e-06
1.42924e-07
6.45571e-06
8.97817e-08
6.46281e-06
5.09591e-08
6.47289e-06
3.56125e-08
6.48937e-06
3.81471e-08
6.51365e-06
4.67099e-08
6.54427e-06
5.21413e-08
6.5782e-06
5.09984e-08
6.61251e-06
4.4186e-08
6.64522e-06
3.48454e-08
6.67509e-06
2.60728e-08
6.70156e-06
1.98035e-08
6.72424e-06
1.64575e-08
1.55629e-08
6.74313e-06
5.64037e-06
3.95584e-07
5.6733e-06
2.49088e-07
5.69498e-06
2.08484e-07
5.7007e-06
1.85037e-07
5.7006e-06
1.43024e-07
5.7003e-06
9.00806e-08
5.70584e-06
4.54196e-08
5.72083e-06
2.06192e-08
5.7446e-06
1.43739e-08
5.77317e-06
1.81453e-08
5.80214e-06
2.31739e-08
5.82879e-06
2.43469e-08
5.8521e-06
2.08772e-08
5.8722e-06
1.47431e-08
5.88971e-06
8.56144e-09
5.90527e-06
4.24436e-09
5.91932e-06
2.40323e-09
2.78936e-09
5.9321e-06
4.87591e-06
3.39241e-07
4.8932e-06
2.31797e-07
4.90714e-06
1.94543e-07
4.93696e-06
1.55219e-07
4.97085e-06
1.09129e-07
4.99773e-06
6.32045e-08
5.01482e-06
2.83225e-08
5.02738e-06
8.0617e-09
5.04271e-06
-9.50538e-10
5.06511e-06
-4.25843e-09
5.09443e-06
-6.14923e-09
5.12669e-06
-7.91392e-09
5.15686e-06
-9.2884e-09
5.1811e-06
-9.4939e-09
5.19785e-06
-8.19379e-09
5.20771e-06
-5.61101e-09
5.21254e-06
-2.43384e-09
9.15933e-10
5.21442e-06
4.16673e-06
3.64089e-07
4.22359e-06
1.74943e-07
4.28023e-06
1.37903e-07
4.33658e-06
9.88644e-08
4.39135e-06
5.43564e-08
4.4324e-06
2.21583e-08
4.45362e-06
7.10625e-09
4.46122e-06
4.58287e-10
4.46724e-06
-6.96706e-09
4.47793e-06
-1.49527e-08
4.49312e-06
-2.13405e-08
4.50886e-06
-2.36473e-08
4.52136e-06
-2.17884e-08
4.52938e-06
-1.75149e-08
4.53396e-06
-1.27763e-08
4.53709e-06
-8.74412e-09
4.54057e-06
-5.90938e-09
-3.93153e-09
4.54541e-06
3.68865e-06
2.78658e-07
3.73892e-06
1.24667e-07
3.78717e-06
8.96559e-08
3.82665e-06
5.93891e-08
3.85452e-06
2.64798e-08
3.8729e-06
3.78158e-09
3.88631e-06
-6.30217e-09
3.90114e-06
-1.43707e-08
3.91829e-06
-2.41193e-08
3.93686e-06
-3.35291e-08
3.95504e-06
-3.9521e-08
3.9721e-06
-4.06995e-08
3.98818e-06
-3.78729e-08
4.00369e-06
-3.30269e-08
4.01854e-06
-2.76266e-08
4.03231e-06
-2.25075e-08
4.04425e-06
-1.78499e-08
-1.34857e-08
4.0538e-06
3.21079e-06
2.20359e-07
3.26003e-06
7.5427e-08
3.30924e-06
4.04408e-08
3.36282e-06
5.81398e-09
3.40603e-06
-1.67342e-08
3.43021e-06
-2.03998e-08
3.44295e-06
-1.90406e-08
3.45111e-06
-2.25282e-08
3.45751e-06
-3.0524e-08
3.46171e-06
-3.7727e-08
3.46311e-06
-4.09211e-08
3.46283e-06
-4.04205e-08
3.46312e-06
-3.81647e-08
3.46606e-06
-3.59586e-08
3.47249e-06
-3.40632e-08
3.48216e-06
-3.21711e-08
3.4939e-06
-2.95975e-08
-2.60186e-08
3.50644e-06
2.86181e-06
1.01663e-07
2.9328e-06
4.43568e-09
2.9579e-06
1.53428e-08
2.97895e-06
-1.5236e-08
2.99911e-06
-3.68909e-08
3.01914e-06
-4.04353e-08
3.03832e-06
-3.82171e-08
3.05548e-06
-3.96882e-08
3.06961e-06
-4.46518e-08
3.0805e-06
-4.86242e-08
3.08837e-06
-4.87881e-08
3.09377e-06
-4.58163e-08
3.0977e-06
-4.21015e-08
3.10136e-06
-3.96168e-08
3.10563e-06
-3.83321e-08
3.11094e-06
-3.7477e-08
3.11726e-06
-3.59174e-08
-3.32157e-08
3.12445e-06
2.51551e-06
3.20223e-08
2.56327e-06
-4.33302e-08
2.60379e-06
-2.5171e-08
2.62192e-06
-3.33647e-08
2.63054e-06
-4.55101e-08
2.63968e-06
-4.95761e-08
2.6501e-06
-4.86423e-08
2.65889e-06
-4.848e-08
2.66424e-06
-4.99942e-08
2.66607e-06
-5.0456e-08
2.66522e-06
-4.79398e-08
2.66273e-06
-4.33259e-08
2.65947e-06
-3.88465e-08
2.65584e-06
-3.59843e-08
2.65199e-06
-3.44835e-08
2.64794e-06
-3.34228e-08
2.64373e-06
-3.1704e-08
-2.92122e-08
2.63972e-06
2.15084e-06
2.10751e-06
2.08233e-06
2.04897e-06
2.00346e-06
1.95388e-06
1.90524e-06
1.85676e-06
1.80677e-06
1.75631e-06
1.70837e-06
1.66505e-06
1.6262e-06
1.59021e-06
1.55573e-06
1.52231e-06
1.4906e-06
1.46139e-06
-1.62056e-07
1.62056e-07
-2.93e-07
1.30944e-07
-3.16591e-07
2.35905e-08
-2.25865e-07
-9.07257e-08
-5.36415e-08
-1.72224e-07
1.6538e-07
-2.19022e-07
4.05774e-07
-2.40394e-07
6.50038e-07
-2.44263e-07
8.87689e-07
-2.37652e-07
1.11332e-06
-2.25629e-07
1.32424e-06
-2.10919e-07
1.51887e-06
-1.94637e-07
1.69579e-06
-1.7692e-07
1.85332e-06
-1.57522e-07
1.98936e-06
-1.36047e-07
2.10139e-06
-1.12022e-07
2.18693e-06
-8.55428e-08
2.24353e-06
-5.66018e-08
2.26914e-06
-2.5605e-08
2.26251e-06
6.62772e-09
2.22169e-06
4.08221e-08
2.14622e-06
7.54638e-08
2.03687e-06
1.09355e-07
1.89545e-06
1.41418e-07
1.7243e-06
1.71147e-07
1.52755e-06
1.96753e-07
1.30921e-06
2.18341e-07
1.07466e-06
2.34544e-07
8.33865e-07
2.40799e-07
5.87013e-07
2.46852e-07
3.49345e-07
2.37668e-07
1.69681e-07
1.79664e-07
7.33213e-08
9.636e-08
4.11376e-08
3.21836e-08
4.48789e-08
-3.74129e-09
8.34798e-08
-3.86009e-08
1.8582e-07
-1.0234e-07
3.6231e-07
-1.7649e-07
5.23724e-07
-1.61415e-07
6.83507e-07
-1.59783e-07
8.33841e-07
-1.50334e-07
9.15891e-07
-8.205e-08
9.30529e-07
-1.46381e-08
8.35068e-07
9.54614e-08
5.09228e-07
3.2584e-07
-6.89409e-08
5.78169e-07
-6.85103e-07
6.16162e-07
-1.23188e-06
5.46776e-07
-1.7336e-06
5.01725e-07
-2.19189e-06
4.58284e-07
-2.60981e-06
4.17921e-07
-2.98926e-06
3.79452e-07
-3.33117e-06
3.41905e-07
-3.63708e-06
3.05919e-07
-3.90829e-06
2.71205e-07
-4.14652e-06
2.38226e-07
-4.35358e-06
2.07061e-07
-4.53147e-06
1.77896e-07
-4.68223e-06
1.50759e-07
-4.80783e-06
1.25597e-07
-4.91018e-06
1.02354e-07
-4.99117e-06
8.09917e-08
-5.05262e-06
6.14407e-08
-5.09617e-06
4.35537e-08
-5.12335e-06
2.71785e-08
-5.13567e-06
1.23203e-08
-5.13472e-06
-9.45128e-10
-5.12228e-06
-1.24463e-08
-5.09929e-06
-2.29839e-08
-5.06681e-06
-3.24867e-08
-5.02557e-06
-4.12364e-08
-4.97616e-06
-4.94095e-08
-4.91899e-06
-5.71744e-08
-4.85429e-06
-6.46989e-08
-4.78217e-06
-7.21161e-08
-4.70262e-06
-7.95543e-08
-4.6155e-06
-8.71125e-08
-4.52064e-06
-9.48617e-08
-4.4178e-06
-1.02841e-07
-4.30676e-06
-1.11045e-07
-4.18734e-06
-1.1942e-07
-4.05947e-06
-1.27862e-07
-3.92324e-06
-1.36232e-07
-3.77887e-06
-1.44376e-07
-3.62672e-06
-1.52149e-07
-3.46727e-06
-1.59448e-07
-3.30105e-06
-1.66219e-07
-3.12859e-06
-1.7246e-07
-2.95038e-06
-1.78206e-07
-2.76689e-06
-1.83498e-07
-2.57853e-06
-1.88357e-07
-2.38576e-06
-1.9277e-07
-2.18908e-06
-1.96682e-07
-1.9891e-06
-1.99979e-07
-1.78663e-06
-2.02471e-07
-1.58269e-06
-2.03937e-07
-1.3785e-06
-2.04194e-07
-1.17537e-06
-2.03125e-07
-9.74651e-07
-2.00721e-07
-7.77529e-07
-1.97122e-07
-5.84968e-07
-1.92561e-07
-3.97666e-07
-1.87302e-07
-2.16208e-07
-1.81458e-07
-4.11772e-08
-1.7503e-07
1.27184e-07
-1.68361e-07
2.87424e-07
-1.6024e-07
4.38316e-07
-1.50892e-07
5.78482e-07
-1.40166e-07
7.06654e-07
-1.28172e-07
8.21881e-07
-1.15227e-07
9.23673e-07
-1.01792e-07
1.01205e-06
-8.83771e-08
1.0875e-06
-7.54483e-08
1.15087e-06
-6.33703e-08
1.20324e-06
-5.2369e-08
1.24578e-06
-4.25465e-08
1.27968e-06
-3.39e-08
1.30602e-06
-2.63327e-08
1.32577e-06
-1.97491e-08
1.33977e-06
-1.40006e-08
1.34869e-06
-8.92021e-09
1.35317e-06
-4.48621e-09
1.35367e-06
-5.00183e-10
1.35048e-06
3.19009e-09
1.34402e-06
6.46141e-09
1.33485e-06
9.17179e-09
1.3235e-06
1.13529e-08
1.31046e-06
1.30415e-08
1.29619e-06
1.42643e-08
1.2811e-06
1.50888e-08
1.26551e-06
1.55897e-08
1.24969e-06
1.58233e-08
1.23385e-06
1.58346e-08
1.2182e-06
1.56544e-08
1.2029e-06
1.53017e-08
1.18811e-06
1.47895e-08
1.17398e-06
1.41341e-08
1.16062e-06
1.33588e-08
1.14812e-06
1.24941e-08
1.13654e-06
1.15791e-08
1.1259e-06
1.06458e-08
1.11617e-06
9.72832e-09
1.10731e-06
8.8556e-09
1.09926e-06
8.04867e-09
1.09195e-06
7.31883e-09
1.08528e-06
6.66807e-09
1.07918e-06
6.09319e-09
1.07359e-06
5.59507e-09
1.06843e-06
5.15531e-09
1.06365e-06
4.78066e-09
1.05919e-06
4.45977e-09
1.05501e-06
4.18636e-09
1.05105e-06
3.95585e-09
1.04729e-06
3.76478e-09
1.04368e-06
3.61047e-09
1.04019e-06
3.49075e-09
1.03678e-06
3.40479e-09
1.03343e-06
3.35419e-09
1.03009e-06
3.34074e-09
1.02672e-06
3.36951e-09
1.02326e-06
3.45619e-09
1.01966e-06
3.59993e-09
1.01585e-06
3.81276e-09
1.01176e-06
4.08984e-09
1.00729e-06
4.46628e-09
1.00238e-06
4.91597e-09
9.96845e-07
5.53025e-09
9.90626e-07
6.21905e-09
9.83402e-07
7.22369e-09
9.75148e-07
8.25444e-09
9.65175e-07
9.97331e-09
9.53704e-07
1.14708e-08
9.3906e-07
1.46435e-08
9.22427e-07
1.66337e-08
8.99305e-07
2.31214e-08
8.74292e-07
2.50131e-08
8.34279e-07
4.00135e-08
7.95915e-07
3.83633e-08
7.18391e-07
7.75239e-08
5.86488e-08
6.59743e-07
-8.24739e-08
2.4453e-07
-1.42293e-07
1.90763e-07
-8.94328e-08
-2.92697e-08
6.55099e-08
-2.45668e-07
2.75674e-07
-3.82388e-07
5.0697e-07
-4.50318e-07
7.38635e-07
-4.7206e-07
9.61629e-07
-4.67257e-07
1.17378e-06
-4.49806e-07
1.37543e-06
-4.27273e-07
1.56698e-06
-4.02475e-07
1.74803e-06
-3.7569e-07
1.91705e-06
-3.45932e-07
2.07097e-06
-3.11446e-07
2.20657e-06
-2.71645e-07
2.32094e-06
-2.26389e-07
2.41129e-06
-1.75902e-07
2.47565e-06
-1.20956e-07
2.51226e-06
-6.22133e-08
2.519e-06
-1.15874e-10
2.49971e-06
6.0113e-08
2.45388e-06
1.21294e-07
2.38321e-06
1.80026e-07
2.28914e-06
2.35487e-07
2.1759e-06
2.84387e-07
2.04502e-06
3.27634e-07
1.90234e-06
3.61024e-07
1.75314e-06
3.83737e-07
1.59919e-06
3.94754e-07
1.45938e-06
3.86661e-07
1.3253e-06
3.7174e-07
1.18559e-06
3.19381e-07
1.02713e-06
2.54814e-07
8.87315e-07
1.72002e-07
8.3739e-07
4.61838e-08
8.45454e-07
-4.66646e-08
8.72136e-07
-1.29022e-07
1.00407e-06
-3.08421e-07
1.19589e-06
-3.53239e-07
1.19136e-06
-1.55251e-07
9.84521e-07
5.65049e-08
5.20878e-07
3.81592e-07
-2.28187e-07
7.34427e-07
-1.04147e-06
9.0874e-07
-1.69884e-06
9.83214e-07
-2.15167e-06
1.031e-06
-2.52628e-06
9.90774e-07
-2.90119e-06
9.21689e-07
-3.24785e-06
8.48386e-07
-3.56277e-06
7.73202e-07
-3.8462e-06
7.01348e-07
-4.09897e-06
6.3222e-07
-4.3236e-06
5.66541e-07
-4.52185e-06
5.04165e-07
-4.69579e-06
4.45152e-07
-4.8472e-06
3.89628e-07
-4.9777e-06
3.37565e-07
-5.08879e-06
2.88984e-07
-5.18178e-06
2.43754e-07
-5.25791e-06
2.0172e-07
-5.3182e-06
1.62644e-07
-5.36357e-06
1.26365e-07
-5.39487e-06
9.27395e-08
-5.4129e-06
6.15898e-08
-5.41853e-06
3.28035e-08
-5.41228e-06
6.07589e-09
-5.39548e-06
-1.77525e-08
-5.36828e-06
-3.964e-08
-5.33146e-06
-5.98051e-08
-5.28559e-06
-7.83579e-08
-5.23131e-06
-9.55179e-08
-5.16915e-06
-1.11571e-07
-5.0995e-06
-1.2682e-07
-5.02264e-06
-1.41563e-07
-4.93868e-06
-1.56074e-07
-4.84765e-06
-1.7059e-07
-4.74945e-06
-1.85309e-07
-4.64393e-06
-2.00379e-07
-4.53089e-06
-2.15885e-07
-4.4101e-06
-2.31832e-07
-4.28139e-06
-2.48128e-07
-4.14468e-06
-2.64576e-07
-4.00001e-06
-2.809e-07
-3.8476e-06
-2.96783e-07
-3.68782e-06
-3.11934e-07
-3.52112e-06
-3.26143e-07
-3.34803e-06
-3.39313e-07
-3.16903e-06
-3.51458e-07
-2.98457e-06
-3.62667e-07
-2.79502e-06
-3.73046e-07
-2.60072e-06
-3.82655e-07
-2.40202e-06
-3.91474e-07
-2.1993e-06
-3.994e-07
-1.99308e-06
-4.06201e-07
-1.78407e-06
-4.11478e-07
-1.57326e-06
-4.14752e-07
-1.36182e-06
-4.15628e-07
-1.1511e-06
-4.13844e-07
-9.42479e-07
-4.09344e-07
-7.37164e-07
-4.02436e-07
-5.36057e-07
-3.93669e-07
-3.39791e-07
-3.83569e-07
-1.48635e-07
-3.72613e-07
3.72285e-08
-3.60894e-07
2.16964e-07
-3.48097e-07
3.89714e-07
-3.32989e-07
5.54109e-07
-3.15287e-07
7.08684e-07
-2.94742e-07
8.5208e-07
-2.71568e-07
9.83287e-07
-2.46434e-07
1.1018e-06
-2.20302e-07
1.20764e-06
-1.94219e-07
1.30131e-06
-1.69118e-07
1.38364e-06
-1.45706e-07
1.45569e-06
-1.24419e-07
1.51859e-06
-1.05444e-07
1.57346e-06
-8.87653e-08
1.62136e-06
-7.42358e-08
1.66326e-06
-6.16437e-08
1.69999e-06
-5.07338e-08
1.73232e-06
-4.12542e-08
1.76083e-06
-3.29929e-08
1.78608e-06
-2.5749e-08
1.80859e-06
-1.93263e-08
1.82867e-06
-1.36137e-08
1.84643e-06
-8.58554e-09
1.86198e-06
-4.20378e-09
1.87541e-06
-3.83138e-10
1.88682e-06
2.85525e-09
1.89634e-06
5.56522e-09
1.90418e-06
7.7541e-09
1.91056e-06
9.4404e-09
1.91575e-06
1.0643e-08
1.92003e-06
1.13781e-08
1.92366e-06
1.16658e-08
1.92692e-06
1.15279e-08
1.93005e-06
1.10066e-08
1.93325e-06
1.01626e-08
1.93667e-06
9.06862e-09
1.94043e-06
7.82423e-09
1.94457e-06
6.50479e-09
1.9491e-06
5.19412e-09
1.954e-06
3.96119e-09
1.95919e-06
2.85587e-09
1.9646e-06
1.90569e-09
1.97015e-06
1.11849e-09
1.97576e-06
4.88387e-10
1.98134e-06
1.50701e-11
1.98686e-06
-3.67801e-10
1.99226e-06
-6.22567e-10
1.99751e-06
-7.85167e-10
2.00257e-06
-8.69166e-10
2.0074e-06
-8.80833e-10
2.01198e-06
-8.18333e-10
2.01627e-06
-6.76629e-10
2.02021e-06
-4.51679e-10
2.02376e-06
-1.44886e-10
2.0269e-06
2.22506e-10
2.02958e-06
6.51754e-10
2.03181e-06
1.14896e-09
2.03353e-06
1.73143e-09
2.03472e-06
2.40587e-09
2.03535e-06
3.18743e-09
2.03537e-06
4.07286e-09
2.03471e-06
5.12415e-09
2.03333e-06
6.29241e-09
2.03112e-06
7.7387e-09
2.02806e-06
9.28303e-09
2.02391e-06
1.13754e-08
2.01872e-06
1.34429e-08
2.01195e-06
1.67395e-08
2.00392e-06
1.95064e-08
1.9933e-06
2.52633e-08
1.98114e-06
2.87881e-08
1.96428e-06
3.99817e-08
1.94557e-06
4.37299e-08
1.91793e-06
6.76477e-08
1.88729e-06
6.90026e-08
1.84124e-06
1.23577e-07
1.16949e-07
1.78294e-06
-1.42036e-08
2.58734e-07
4.14496e-08
1.3511e-07
2.12384e-07
-2.00204e-07
4.30323e-07
-4.63607e-07
6.50571e-07
-6.02635e-07
8.53822e-07
-6.53569e-07
1.039e-06
-6.57237e-07
1.21329e-06
-6.4155e-07
1.38439e-06
-6.20903e-07
1.55682e-06
-5.99707e-07
1.73071e-06
-5.76356e-07
1.90274e-06
-5.47722e-07
2.06781e-06
-5.11e-07
2.22079e-06
-4.64434e-07
2.3568e-06
-4.07652e-07
2.47161e-06
-3.41196e-07
2.56189e-06
-2.66183e-07
2.62498e-06
-1.84045e-07
2.65901e-06
-9.62476e-08
2.66342e-06
-4.51993e-09
2.63638e-06
8.71553e-08
2.57987e-06
1.77794e-07
2.49587e-06
2.64031e-07
2.38903e-06
3.42324e-07
2.26423e-06
4.09189e-07
2.12916e-06
4.62709e-07
1.99316e-06
4.97019e-07
1.85822e-06
5.18682e-07
1.73306e-06
5.19907e-07
1.6118e-06
5.07929e-07
1.50394e-06
4.79596e-07
1.39491e-06
4.2841e-07
1.29925e-06
3.50475e-07
1.22114e-06
2.50109e-07
1.11865e-06
1.48681e-07
1.16205e-06
-9.00709e-08
1.30246e-06
-2.69426e-07
1.16487e-06
-1.7083e-07
7.44075e-07
6.75524e-08
7.81507e-08
5.10673e-07
-7.25136e-07
8.59792e-07
-1.44404e-06
1.1005e-06
-1.96938e-06
1.25976e-06
-2.38806e-06
1.32742e-06
-2.73143e-06
1.32658e-06
-2.98408e-06
1.28365e-06
-3.2025e-06
1.20919e-06
-3.41305e-06
1.13224e-06
-3.61628e-06
1.05161e-06
-3.81323e-06
9.70153e-07
-4.00129e-06
8.89404e-07
-4.17898e-06
8.09913e-07
-4.3448e-06
7.32357e-07
-4.49754e-06
6.56908e-07
-4.63646e-06
5.84074e-07
-4.76104e-06
5.14209e-07
-4.87105e-06
4.47575e-07
-4.96641e-06
3.84339e-07
-5.04716e-06
3.24504e-07
-5.11347e-06
2.68033e-07
-5.16563e-06
2.1481e-07
-5.20398e-06
1.64707e-07
-5.22886e-06
1.17626e-07
-5.2408e-06
7.35316e-08
-5.24034e-06
3.23359e-08
-5.22856e-06
-5.70271e-09
-5.20587e-06
-4.04386e-08
-5.17303e-06
-7.2478e-08
-5.13097e-06
-1.01868e-07
-5.08045e-06
-1.2888e-07
-5.02212e-06
-1.53847e-07
-4.95652e-06
-1.77172e-07
-4.88406e-06
-1.99279e-07
-4.80504e-06
-2.20578e-07
-4.71966e-06
-2.41461e-07
-4.62797e-06
-2.62276e-07
-4.52996e-06
-2.83324e-07
-4.42548e-06
-3.04853e-07
-4.31434e-06
-3.27031e-07
-4.19625e-06
-3.4992e-07
-4.07095e-06
-3.73424e-07
-3.93826e-06
-3.97274e-07
-3.7981e-06
-4.21053e-07
-3.65062e-06
-4.44262e-07
-3.49613e-06
-4.6643e-07
-3.33506e-06
-4.87212e-07
-3.16792e-06
-5.06453e-07
-2.99519e-06
-5.24183e-07
-2.8173e-06
-5.40559e-07
-2.63458e-06
-5.55765e-07
-2.44733e-06
-5.69907e-07
-2.25585e-06
-5.82954e-07
-2.06051e-06
-5.94738e-07
-1.86181e-06
-6.04908e-07
-1.66044e-06
-6.12847e-07
-1.45741e-06
-6.17781e-07
-1.25397e-06
-6.19069e-07
-1.05151e-06
-6.16301e-07
-8.51451e-07
-6.09403e-07
-6.54975e-07
-5.98913e-07
-4.62792e-07
-5.85852e-07
-2.75163e-07
-5.71198e-07
-9.18431e-08
-5.55933e-07
8.75366e-08
-5.40274e-07
2.62291e-07
-5.22851e-07
4.31639e-07
-5.02338e-07
5.94001e-07
-4.7765e-07
7.47446e-07
-4.48186e-07
8.90071e-07
-4.14193e-07
1.02041e-06
-3.76772e-07
1.1377e-06
-3.37592e-07
1.24194e-06
-2.98462e-07
1.33379e-06
-2.60962e-07
1.4143e-06
-2.26218e-07
1.48474e-06
-1.94861e-07
1.54639e-06
-1.67092e-07
1.60043e-06
-1.42806e-07
1.64791e-06
-1.21716e-07
1.68973e-06
-1.0346e-07
1.72666e-06
-8.76679e-08
1.75942e-06
-7.40107e-08
1.78863e-06
-6.22042e-08
1.81489e-06
-5.20051e-08
1.83875e-06
-4.31933e-08
1.86069e-06
-3.55554e-08
1.88102e-06
-2.89154e-08
1.89993e-06
-2.31113e-08
1.91755e-06
-1.80004e-08
1.93391e-06
-1.35014e-08
1.94902e-06
-9.54889e-09
1.9629e-06
-6.12737e-09
1.9756e-06
-3.25374e-09
1.9872e-06
-9.61984e-10
1.99788e-06
7.00324e-10
2.00781e-06
1.73213e-09
2.01722e-06
2.11824e-09
2.02633e-06
1.89524e-09
2.03536e-06
1.134e-09
2.04449e-06
-6.47708e-11
2.05386e-06
-1.53701e-09
2.06355e-06
-3.1916e-09
2.07363e-06
-4.88301e-09
2.08409e-06
-6.49583e-09
2.09488e-06
-7.94232e-09
2.10596e-06
-9.16887e-09
2.11723e-06
-1.01546e-08
2.12862e-06
-1.09014e-08
2.14005e-06
-1.14178e-08
2.15143e-06
-1.17429e-08
2.1627e-06
-1.18919e-08
2.17382e-06
-1.19015e-08
2.18474e-06
-1.17949e-08
2.19544e-06
-1.15806e-08
2.20588e-06
-1.12583e-08
2.21603e-06
-1.08282e-08
2.22588e-06
-1.02986e-08
2.23541e-06
-9.6784e-09
2.24461e-06
-8.9705e-09
2.25342e-06
-8.164e-09
2.26182e-06
-7.24888e-09
2.26975e-06
-6.20149e-09
2.27718e-06
-5.02347e-09
2.28405e-06
-3.68214e-09
2.29031e-06
-2.18533e-09
2.29586e-06
-4.29949e-10
2.30065e-06
1.5065e-09
2.30457e-06
3.81781e-09
2.3076e-06
6.25229e-09
2.30961e-06
9.36722e-09
2.31059e-06
1.2461e-08
2.31034e-06
1.69928e-08
2.30885e-06
2.0991e-08
2.30584e-06
2.82745e-08
2.30116e-06
3.34654e-08
2.29469e-06
4.64591e-08
2.28538e-06
5.30372e-08
2.27469e-06
7.83419e-08
2.25749e-06
8.62024e-08
2.2432e-06
1.37868e-07
1.50099e-07
2.21005e-06
1.91925e-08
2.39541e-07
2.19343e-07
-6.50407e-08
4.85036e-07
-4.65897e-07
7.20307e-07
-6.98878e-07
9.05577e-07
-7.87906e-07
1.05597e-06
-8.03963e-07
1.1953e-06
-7.96564e-07
1.34163e-06
-7.87879e-07
1.50281e-06
-7.82087e-07
1.67751e-06
-7.7441e-07
1.85919e-06
-7.58037e-07
2.03935e-06
-7.27875e-07
2.20974e-06
-6.81392e-07
2.36377e-06
-6.18462e-07
2.49676e-06
-5.40643e-07
2.60568e-06
-4.50115e-07
2.68876e-06
-3.49267e-07
2.7449e-06
-2.40185e-07
2.77382e-06
-1.25171e-07
2.77652e-06
-7.21685e-09
2.74594e-06
1.1774e-07
2.68423e-06
2.39503e-07
2.59196e-06
3.563e-07
2.47097e-06
4.63307e-07
2.32467e-06
5.5549e-07
2.16163e-06
6.25751e-07
1.98796e-06
6.70692e-07
1.82131e-06
6.85329e-07
1.66435e-06
6.76864e-07
1.52531e-06
6.46977e-07
1.40444e-06
6.00463e-07
1.28608e-06
5.46771e-07
1.19569e-06
4.40866e-07
1.07011e-06
3.75687e-07
9.84998e-07
2.33792e-07
9.13188e-07
-1.82615e-08
6.22567e-07
2.11952e-08
-4.57659e-09
4.56313e-07
-7.94473e-07
8.57448e-07
-1.44258e-06
1.15878e-06
-1.97439e-06
1.39161e-06
-2.39492e-06
1.52102e-06
-2.68949e-06
1.55433e-06
-2.89782e-06
1.53575e-06
-3.06353e-06
1.4923e-06
-3.2108e-06
1.43092e-06
-3.35752e-06
1.35591e-06
-3.50425e-06
1.27897e-06
-3.6518e-06
1.19916e-06
-3.79952e-06
1.11787e-06
-3.94437e-06
1.03426e-06
-4.08358e-06
9.49117e-07
-4.2147e-06
8.63479e-07
-4.33623e-06
7.78435e-07
-4.44733e-06
6.95181e-07
-4.54761e-06
6.14484e-07
-4.63687e-06
5.36839e-07
-4.71495e-06
4.62415e-07
-4.78161e-06
3.91165e-07
-4.83654e-06
3.22961e-07
-4.87942e-06
2.57689e-07
-4.91004e-06
1.95326e-07
-4.92834e-06
1.3593e-07
-4.93438e-06
7.95694e-08
-4.9283e-06
2.62538e-08
-4.91096e-06
-2.30439e-08
-4.88277e-06
-6.86199e-08
-4.84459e-06
-1.10667e-07
-4.79728e-06
-1.49176e-07
-4.74175e-06
-1.84407e-07
-4.67884e-06
-2.16763e-07
-4.60928e-06
-2.46725e-07
-4.53375e-06
-2.74814e-07
-4.45278e-06
-3.01546e-07
-4.36682e-06
-3.27421e-07
-4.27617e-06
-3.52927e-07
-4.18095e-06
-3.7854e-07
-4.0811e-06
-4.0471e-07
-3.97631e-06
-4.31818e-07
-3.86613e-06
-4.60103e-07
-3.74998e-06
-4.89574e-07
-3.62731e-06
-5.19945e-07
-3.49771e-06
-5.5065e-07
-3.361e-06
-5.80971e-07
-3.21723e-06
-6.10202e-07
-3.06661e-06
-6.37829e-07
-2.90943e-06
-6.63628e-07
-2.74596e-06
-6.87653e-07
-2.5764e-06
-7.10125e-07
-2.40089e-06
-7.31271e-07
-2.21963e-06
-7.51164e-07
-2.03295e-06
-7.69635e-07
-1.8414e-06
-7.86291e-07
-1.64579e-06
-8.00515e-07
-1.44731e-06
-8.1133e-07
-1.24763e-06
-8.17459e-07
-1.04875e-06
-8.17948e-07
-8.52833e-07
-8.12223e-07
-6.61889e-07
-8.00347e-07
-4.77318e-07
-7.83484e-07
-2.99683e-07
-7.63486e-07
-1.28414e-07
-7.42466e-07
3.82952e-08
-7.22642e-07
2.01599e-07
-7.03578e-07
3.62109e-07
-6.83361e-07
5.19783e-07
-6.60012e-07
6.73404e-07
-6.31271e-07
8.2089e-07
-5.95672e-07
9.59793e-07
-5.53096e-07
1.08785e-06
-5.04827e-07
1.20345e-06
-4.53191e-07
1.30592e-06
-4.00938e-07
1.39557e-06
-3.5061e-07
1.47344e-06
-3.04091e-07
1.54101e-06
-2.62431e-07
1.59986e-06
-2.25937e-07
1.65143e-06
-1.94382e-07
1.69696e-06
-1.67241e-07
1.73736e-06
-1.43862e-07
1.77328e-06
-1.2359e-07
1.80512e-06
-1.05852e-07
1.83313e-06
-9.02073e-08
1.8575e-06
-7.6376e-08
1.87852e-06
-6.42149e-08
1.89662e-06
-5.36596e-08
1.91237e-06
-4.46624e-08
1.92638e-06
-3.71198e-08
1.93921e-06
-3.08314e-08
1.95126e-06
-2.55567e-08
1.96279e-06
-2.10728e-08
1.97388e-06
-1.72196e-08
1.98456e-06
-1.39305e-08