/*--------------------------------*- C++ -*----------------------------------*\
  =========                 |
  \\      /  F ield         | OpenFOAM: The Open Source CFD Toolbox
   \\    /   O peration     | Website:  https://openfoam.org
    \\  /    A nd           | Version:  7
     \\/     M anipulation  |
\*---------------------------------------------------------------------------*/
FoamFile
{
    version     2.0;
    format      ascii;
    class       volScalarField;
    location    "0.087";
    object      k;
}
// * * * * * * * * * * * * * * * * * * * * * * * * * * * * * * * * * * * * * //

dimensions      [0 2 -2 0 0 0 0];

internalField   nonuniform List<scalar> 
12225
(
1.9296e-05
1.80928e-05
1.67869e-05
1.53253e-05
1.40831e-05
1.26694e-05
1.13179e-05
1.03136e-05
8.98398e-06
7.41984e-06
6.45905e-06
5.99577e-06
5.32105e-06
4.77329e-06
4.04336e-06
1.4927e-05
8.15002e-06
1.23813e-05
1.99785e-05
1.98855e-05
1.97158e-05
1.94295e-05
1.91186e-05
1.87473e-05
1.83063e-05
1.79437e-05
1.74367e-05
1.69022e-05
1.61685e-05
1.58335e-05
1.52832e-05
1.49644e-05
1.4133e-05
1.75539e-05
1.64484e-05
1.57518e-05
2.00004e-05
1.94913e-05
1.91487e-05
1.90878e-05
1.9006e-05
1.88664e-05
1.87586e-05
1.87203e-05
1.86969e-05
1.86573e-05
1.85429e-05
1.84074e-05
1.81522e-05
1.80224e-05
1.77045e-05
1.792e-05
1.78374e-05
1.76963e-05
2.02446e-05
2.00659e-05
1.90694e-05
1.7067e-05
1.50297e-05
1.47153e-05
1.48503e-05
1.53956e-05
1.66036e-05
1.74284e-05
1.77677e-05
1.78155e-05
1.77794e-05
1.76527e-05
1.74714e-05
1.74151e-05
1.73857e-05
1.73843e-05
2.03175e-05
2.10337e-05
2.33036e-05
2.30646e-05
2.24521e-05
2.1253e-05
1.98729e-05
1.90171e-05
1.84861e-05
1.72728e-05
1.59245e-05
1.56086e-05
1.56292e-05
1.57292e-05
1.60505e-05
1.64137e-05
1.69569e-05
1.71554e-05
2.0485e-05
2.18932e-05
2.18285e-05
2.16528e-05
2.17547e-05
2.2484e-05
2.40318e-05
2.48535e-05
2.4853e-05
2.44422e-05
2.29988e-05
2.1284e-05
2.01193e-05
1.9436e-05
1.91934e-05
1.91721e-05
1.92638e-05
1.94816e-05
2.02724e-05
2.33385e-05
2.29635e-05
2.17882e-05
2.14794e-05
2.16623e-05
2.27679e-05
2.46896e-05
2.54263e-05
2.54598e-05
2.52728e-05
2.44894e-05
2.34284e-05
2.26908e-05
2.2259e-05
2.20738e-05
2.20462e-05
2.20595e-05
2.01028e-05
2.27517e-05
2.42443e-05
2.34589e-05
2.18214e-05
2.14452e-05
2.17377e-05
2.31384e-05
2.41744e-05
2.44424e-05
2.44167e-05
2.4082e-05
2.35495e-05
2.32449e-05
2.30666e-05
2.29789e-05
2.29061e-05
2.28412e-05
2.00827e-05
2.21594e-05
2.40265e-05
2.39385e-05
2.29439e-05
2.23201e-05
2.24933e-05
2.30762e-05
2.31478e-05
2.28871e-05
2.25065e-05
2.24503e-05
2.249e-05
2.27375e-05
2.31028e-05
2.33115e-05
2.34075e-05
2.3431e-05
2.00565e-05
2.08604e-05
2.12238e-05
2.1492e-05
2.2008e-05
2.3853e-05
2.67443e-05
2.77073e-05
2.76016e-05
2.63955e-05
2.40318e-05
2.27927e-05
2.24137e-05
2.24039e-05
2.25856e-05
2.28624e-05
2.29561e-05
2.29757e-05
2.00075e-05
2.00779e-05
2.03201e-05
2.09024e-05
2.13031e-05
2.20733e-05
2.38233e-05
2.49748e-05
2.51105e-05
2.48227e-05
2.35246e-05
2.1789e-05
2.10128e-05
2.08523e-05
2.08887e-05
2.11653e-05
2.16712e-05
2.20076e-05
2.0001e-05
2.00116e-05
2.02216e-05
2.13438e-05
2.46176e-05
2.62474e-05
2.6246e-05
2.57803e-05
2.5166e-05
2.41946e-05
2.26483e-05
2.11034e-05
2.00984e-05
1.97441e-05
1.97188e-05
1.97783e-05
2.00484e-05
2.06591e-05
2.00079e-05
2.0165e-05
2.10944e-05
2.28183e-05
2.32274e-05
2.30582e-05
2.25057e-05
2.20832e-05
2.1829e-05
2.1614e-05
2.12734e-05
2.07379e-05
2.02111e-05
1.99238e-05
1.98644e-05
1.98682e-05
1.98909e-05
1.99697e-05
2.01589e-05
2.06668e-05
2.10054e-05
2.16276e-05
2.20126e-05
2.19018e-05
2.16923e-05
2.16933e-05
2.19257e-05
2.26617e-05
2.29782e-05
2.29687e-05
2.26843e-05
2.18397e-05
2.12243e-05
2.08971e-05
2.07602e-05
2.07183e-05
2.10248e-05
2.06059e-05
2.06895e-05
2.07453e-05
2.0923e-05
2.14617e-05
2.26682e-05
2.35796e-05
2.39587e-05
2.39894e-05
2.37934e-05
2.29758e-05
2.21217e-05
2.1576e-05
2.12433e-05
2.10562e-05
2.09657e-05
2.0933e-05
2.05649e-05
2.03698e-05
2.03454e-05
2.08798e-05
2.39469e-05
2.66491e-05
2.6838e-05
2.56751e-05
2.34258e-05
2.2149e-05
2.14588e-05
2.11159e-05
2.09983e-05
2.09852e-05
2.10034e-05
2.10159e-05
2.10124e-05
2.09824e-05
2.03346e-05
2.03824e-05
2.05327e-05
2.09037e-05
2.18221e-05
2.24889e-05
2.26471e-05
2.26175e-05
2.24055e-05
2.18019e-05
2.14702e-05
2.13553e-05
2.12919e-05
2.13348e-05
2.15777e-05
2.1788e-05
2.18484e-05
2.18451e-05
2.1244e-05
2.12328e-05
2.09051e-05
2.09986e-05
2.16567e-05
2.21434e-05
2.20968e-05
2.17899e-05
2.12923e-05
2.09645e-05
2.07998e-05
2.07441e-05
2.07436e-05
2.07812e-05
2.08167e-05
2.0816e-05
2.07964e-05
2.08016e-05
2.03221e-05
2.04003e-05
2.04916e-05
2.06191e-05
2.07235e-05
2.07414e-05
2.07125e-05
2.06222e-05
2.05672e-05
2.05401e-05
2.05309e-05
2.05253e-05
2.0512e-05
2.04718e-05
2.04282e-05
2.04055e-05
2.04007e-05
2.04049e-05
2.00895e-05
2.04621e-05
2.07071e-05
2.07294e-05
2.06726e-05
2.05924e-05
2.05745e-05
2.05803e-05
2.05994e-05
2.06157e-05
2.06357e-05
2.06799e-05
2.08045e-05
2.09281e-05
2.09965e-05
2.10198e-05
2.10206e-05
2.10026e-05
2.04977e-05
2.02573e-05
2.04339e-05
2.06592e-05
2.07112e-05
2.0704e-05
2.06644e-05
2.06534e-05
2.06605e-05
2.06865e-05
2.07647e-05
2.08324e-05
2.08681e-05
2.08801e-05
2.08808e-05
2.08774e-05
2.08623e-05
2.08056e-05
2.04125e-05
2.02174e-05
2.0172e-05
2.02811e-05
2.05278e-05
2.07326e-05
2.08523e-05
2.08922e-05
2.08916e-05
2.08593e-05
2.07216e-05
2.058e-05
2.05155e-05
2.04977e-05
2.04974e-05
2.05113e-05
2.05222e-05
2.05183e-05
2.00504e-05
2.04494e-05
2.08279e-05
2.08908e-05
2.08296e-05
2.07059e-05
2.06302e-05
2.05206e-05
2.04106e-05
2.03269e-05
2.02801e-05
2.02663e-05
2.0265e-05
2.02712e-05
2.03048e-05
2.03475e-05
2.03725e-05
2.03827e-05
2.02876e-05
2.02744e-05
2.0219e-05
2.02132e-05
2.02194e-05
2.02742e-05
2.04787e-05
2.06034e-05
2.08132e-05
2.09954e-05
2.10495e-05
2.10456e-05
2.0998e-05
2.09443e-05
2.0943e-05
2.09747e-05
2.09913e-05
2.09658e-05
2.02311e-05
2.03705e-05
2.03304e-05
2.0181e-05
2.01313e-05
2.01322e-05
2.01727e-05
2.04091e-05
2.06933e-05
2.07616e-05
2.07869e-05
2.08704e-05
2.11715e-05
2.16054e-05
2.18966e-05
2.20082e-05
2.20163e-05
2.1956e-05
2.04277e-05
2.06838e-05
2.07187e-05
2.06905e-05
2.06517e-05
2.05786e-05
2.0431e-05
2.03126e-05
2.02464e-05
2.02278e-05
2.02389e-05
2.03396e-05
2.07184e-05
2.19472e-05
2.50485e-05
2.7664e-05
2.91118e-05
2.95864e-05
2.00704e-05
2.01323e-05
2.01266e-05
2.01013e-05
2.00334e-05
1.98969e-05
1.97812e-05
1.96121e-05
1.92189e-05
1.86352e-05
1.83547e-05
1.83449e-05
1.85208e-05
1.91065e-05
2.02961e-05
2.11373e-05
2.25146e-05
2.3363e-05
2.02481e-05
1.64037e-05
1.5029e-05
1.63027e-05
2.01833e-05
2.29664e-05
2.39408e-05
2.4791e-05
2.65313e-05
2.98078e-05
3.70193e-05
4.73343e-05
6.158e-05
7.32943e-05
8.51657e-05
9.23579e-05
0.000103328
0.000113896
3.42811e-05
7.65121e-05
0.000134987
0.000228534
0.000297811
0.000321955
0.000328036
0.000340194
0.000375784
0.0004235
0.000470194
0.000528516
0.000598518
0.000663108
0.000706981
0.000732185
0.000767386
0.000804865
0.00303398
0.00273988
0.00240234
0.00232324
0.00229719
0.00223608
0.00202751
0.00180056
0.00168851
0.00165563
0.00165511
0.00167777
0.00174487
0.00178732
0.00180323
0.00180473
0.00179807
0.00176479
0.00594679
0.00738689
0.00617739
0.00593498
0.00597934
0.00598559
0.00587664
0.0057518
0.00561082
0.00535683
0.00527756
0.00530388
0.00545681
0.00556746
0.00559543
0.00561566
0.00562613
0.00564696
0.00568879
0.00575334
0.00582072
0.00585714
0.00584724
0.00577775
0.00563429
0.00545864
0.00526619
0.00515685
0.00515718
0.00518601
0.00524943
0.00532481
0.00542084
0.0054926
0.00553971
0.0055432
0.00551793
0.00547684
0.00531054
0.0051366
0.00512144
0.00537179
0.00617731
0.00562026
0.00601745
0.00651556
0.00701998
0.00755125
0.00838338
0.0102083
0.0144881
0.0189602
0.0214
0.0214702
0.0209289
0.0203302
0.0196446
0.0183526
0.0158431
0.0132435
0.0119478
0.0115613
0.0114964
0.0124282
0.014936
0.0212854
0.0420981
0.0731174
0.0882677
0.0948605
0.109976
0.154212
0.176824
0.17107
0.14223
0.0646804
0.0107279
0.0023571
0.00130061
0.00105466
0.000848742
0.000676417
0.000544196
0.00044867
0.000382231
0.000343192
0.000317132
0.000305975
0.000303894
0.000298269
0.00029601
0.000291714
0.000282153
0.000274552
0.000270711
0.000264661
0.000256902
0.000250781
0.000245502
0.000239129
0.000231863
0.000225266
0.00022004
0.000214956
0.000209322
0.000203843
0.000198551
0.000193787
0.000190784
0.000187679
0.00018348
0.000180015
0.000176264
0.000172482
0.000169574
0.000165515
0.000162614
0.000158996
0.000155616
0.000152049
0.000148315
0.00014425
0.000139785
0.000134899
0.000129806
0.000124726
0.000119861
0.000114996
0.000110208
0.000105532
0.000100862
9.60407e-05
9.08394e-05
8.43689e-05
7.61467e-05
6.69398e-05
5.77185e-05
4.9176e-05
4.1874e-05
3.5125e-05
2.80318e-05
2.09783e-05
1.51105e-05
1.07159e-05
7.63488e-06
5.5742e-06
4.22015e-06
3.314e-06
2.67566e-06
2.19383e-06
1.80765e-06
1.48997e-06
1.23047e-06
1.02142e-06
8.52588e-07
7.14274e-07
5.99516e-07
5.03668e-07
4.23427e-07
3.56306e-07
3.00106e-07
2.53065e-07
2.13362e-07
1.80001e-07
1.5128e-07
1.27253e-07
1.05492e-07
9.2675e-08
7.57811e-08
7.05708e-08
5.09407e-08
4.85064e-08
3.24382e-08
3.80385e-08
2.32224e-08
7.76757e-08
8.95052e-08
3.06722e-07
7.67667e-06
6.13572e-06
0.00581145
0.00609463
0.00634089
0.00660314
0.00667408
0.00663344
0.00650905
0.00623855
0.00591923
0.00560424
0.00536841
0.00521765
0.00510473
0.0050355
0.00496405
0.00483897
0.00471599
0.00461472
0.00457679
0.00457315
0.00457398
0.00458143
0.00460362
0.00462693
0.00463664
0.00466666
0.00477121
0.0050048
0.00547677
0.0062222
0.00706194
0.00787236
0.00858218
0.00906631
0.00933872
0.00940337
0.00936774
0.00927151
0.00894293
0.00820054
0.00709678
0.00604985
0.0058338
0.00571209
0.00569119
0.00564937
0.00566102
0.00581371
0.0061357
0.00683957
0.00969575
0.0149313
0.0167318
0.016055
0.0135219
0.0116677
0.0104668
0.00921606
0.00767886
0.00652513
0.00609667
0.00616524
0.0063101
0.00661188
0.00757042
0.0104138
0.0126888
0.0224865
0.0336752
0.0305083
0.0308715
0.0440069
0.0978854
0.10718
0.0541947
0.0171212
0.00347457
0.00122879
0.000860124
0.000781536
0.00075878
0.000758827
0.000820987
0.000863664
0.000899511
0.000914959
0.000919405
0.000914034
0.000881877
0.00085898
0.000847243
0.000818434
0.000773656
0.000741892
0.000718978
0.000691832
0.000668113
0.000648463
0.000624176
0.000600239
0.000577937
0.000553516
0.000531905
0.000514048
0.000494669
0.000477007
0.0004603
0.000441425
0.000428968
0.000415656
0.000403214
0.000391666
0.000382926
0.000372686
0.000364816
0.000356035
0.000348098
0.000340147
0.00033205
0.000323862
0.000315579
0.000306994
0.000297623
0.000286955
0.000274754
0.00026088
0.000245216
0.000227991
0.00020942
0.000191503
0.00017769
0.000166932
0.000158613
0.000153225
0.000150011
0.000146979
0.000142714
0.000136651
0.00012816
0.000117576
0.000106383
9.55706e-05
8.48984e-05
7.43812e-05
6.43621e-05
5.52592e-05
4.73158e-05
4.04952e-05
3.46398e-05
2.95641e-05
2.50242e-05
2.08429e-05
1.70886e-05
1.39671e-05
1.1519e-05
9.57337e-06
7.98138e-06
6.65065e-06
5.52804e-06
4.58477e-06
3.79864e-06
3.15394e-06
2.62327e-06
2.19819e-06
1.84063e-06
1.55368e-06
1.31444e-06
1.14207e-06
9.63334e-07
8.43144e-07
6.79848e-07
6.05149e-07
4.54647e-07
4.09798e-07
3.03493e-07
2.85462e-07
2.44779e-07
2.46124e-07
1.05375e-06
1.29337e-06
0.00373931
0.00528332
0.00664107
0.00668468
0.00652573
0.00602437
0.0054537
0.00507985
0.00491015
0.00481041
0.00466413
0.00457536
0.00457813
0.00462567
0.00475213
0.00483897
0.00486889
0.00488722
0.00494479
0.00500447
0.00504319
0.00510148
0.00542229
0.00614398
0.0075677
0.0102192
0.0120957
0.0128572
0.0131425
0.013231
0.0132344
0.0130788
0.0129337
0.012825
0.0127178
0.0126252
0.012534
0.0124242
0.0122473
0.0119092
0.0114457
0.0105296
0.00944261
0.00885952
0.00838807
0.00757005
0.00674219
0.00630715
0.00608712
0.00599584
0.00602846
0.00638346
0.00806644
0.00953037
0.00936974
0.00771329
0.0064818
0.00598216
0.00565567
0.00562545
0.00574822
0.00594431
0.00615041
0.0063359
0.00679558
0.00858275
0.0124276
0.0143036
0.0149068
0.0155197
0.023757
0.0445468
0.0472711
0.0283424
0.0105743
0.00326661
0.00122444
0.000917836
0.000887822
0.000971384
0.00117697
0.00143789
0.00170302
0.00186738
0.00194543
0.00197189
0.00197285
0.0019088
0.00178234
0.00168798
0.00160943
0.00149193
0.0013783
0.00129454
0.00120601
0.0011138
0.00105259
0.00102329
0.000990204
0.000954012
0.000917991
0.000870079
0.000813911
0.000775278
0.000728827
0.000679717
0.000634498
0.000585231
0.000551454
0.00052361
0.000498456
0.000475903
0.00045903
0.000441868
0.000427655
0.000414095
0.000400763
0.000389895
0.000379638
0.000370082
0.000361043
0.000352503
0.000344341
0.000336642
0.000329413
0.000322557
0.000315683
0.000307189
0.000297028
0.00028193
0.000257336
0.000226296
0.000193587
0.000167122
0.000151727
0.0001437
0.000140502
0.000139809
0.00013965
0.000138809
0.00013482
0.00012315
0.000111007
0.000100446
9.07543e-05
8.19331e-05
7.38232e-05
6.63758e-05
5.97405e-05
5.39778e-05
4.90614e-05
4.4949e-05
4.14391e-05
3.81259e-05
3.46974e-05
3.11258e-05
2.74862e-05
2.3883e-05
2.04213e-05
1.7193e-05
1.42678e-05
1.16955e-05
9.49413e-06
7.65866e-06
6.16207e-06
4.96127e-06
4.01798e-06
3.2763e-06
2.70555e-06
2.24763e-06
1.89721e-06
1.59903e-06
1.37202e-06
1.15324e-06
1.00719e-06
8.18862e-07
7.35932e-07
5.48021e-07
5.382e-07
4.80545e-07
0.00125566
0.00269349
0.00363382
0.00435985
0.00466461
0.00464762
0.00468139
0.00477891
0.00494126
0.0051226
0.00521636
0.00542447
0.00582967
0.00606862
0.00599659
0.0058122
0.00590279
0.00649118
0.00771277
0.00915978
0.0104192
0.0113609
0.0121638
0.01268
0.0128759
0.0127371
0.0123755
0.0122207
0.0118292
0.0114024
0.0111879
0.011012
0.0109367
0.0109074
0.010905
0.0109913
0.0111501
0.0113467
0.0115527
0.0116728
0.0117597
0.0118448
0.0117411
0.0114952
0.0112383
0.0110117
0.010483
0.00968551
0.00881872
0.0078574
0.00692789
0.00648176
0.00647769
0.0066471
0.00692638
0.00690147
0.00670623
0.00615353
0.00569057
0.00543917
0.00540173
0.00553097
0.00614919
0.00650361
0.00680004
0.00801923
0.0114689
0.0118028
0.0124751
0.0173711
0.0275735
0.0280142
0.0168533
0.00718889
0.00268533
0.0012582
0.000987644
0.00100989
0.0013026
0.00194426
0.00292794
0.00350545
0.00376241
0.00385861
0.00387062
0.00372624
0.00336818
0.00304927
0.00282649
0.00258247
0.00230716
0.00203495
0.00180523
0.00162862
0.00149373
0.00132044
0.00121462
0.00117089
0.00114671
0.00112074
0.00109305
0.00106155
0.00101803
0.0009902
0.000961153
0.00092918
0.000886242
0.000834187
0.000778844
0.000718832
0.000659262
0.000605089
0.000556909
0.000515868
0.000481187
0.000452341
0.00042691
0.000407853
0.000391043
0.00037603
0.000362149
0.000349166
0.000336495
0.00032434
0.000313107
0.000303579
0.000296548
0.000294197
0.000296036
0.000302397
0.000307474
0.00030464
0.000290636
0.000261059
0.000221674
0.000185466
0.000164405
0.000156016
0.000154764
0.000157357
0.000163703
0.000165454
0.000165081
0.000162175
0.000151325
0.00013097
0.000112572
9.70199e-05
8.40272e-05
7.33233e-05
6.4669e-05
5.7678e-05
5.18877e-05
4.69636e-05
4.28503e-05
3.94425e-05
3.63922e-05
3.33559e-05
3.01579e-05
2.6812e-05
2.34365e-05
2.01535e-05
1.70353e-05
1.41171e-05
1.14502e-05
9.09162e-06
7.09482e-06
5.47721e-06
4.225e-06
3.27914e-06
2.58649e-06
2.0733e-06
1.70351e-06
1.41504e-06
1.20495e-06
1.02103e-06
8.85723e-07
7.53554e-07
6.5329e-07
5.5212e-07
0.00156302
0.00282698
0.00334693
0.00433289
0.00509167
0.0055869
0.00638525
0.00748836
0.0085614
0.00900471
0.00941284
0.00960603
0.00963976
0.0101302
0.0103979
0.0104109
0.0107284
0.0113466
0.0116594
0.0117836
0.0118165
0.011695
0.0116094
0.0109363
0.0103019
0.00960548
0.00915527
0.00868635
0.00846576
0.00835668
0.00830744
0.00828819
0.00833867
0.00848238
0.00860687
0.00884298
0.00908768
0.00941139
0.00978768
0.0102087
0.0106788
0.0111947
0.0115792
0.0117904
0.0119761
0.0122292
0.0124381
0.0124557
0.0121923
0.0114766
0.0104402
0.00921097
0.00804973
0.00729176
0.00693184
0.00678061
0.00669282
0.00652133
0.00612172
0.00589996
0.00591902
0.00617219
0.00687641
0.00694295
0.00708241
0.00822872
0.013399
0.0173374
0.0192048
0.0216412
0.0215879
0.0116459
0.00545672
0.00233233
0.0012474
0.0010202
0.00109185
0.00151573
0.00260289
0.00409814
0.00468543
0.00491562
0.00497618
0.00488769
0.00446624
0.00406119
0.0037797
0.00340828
0.0030136
0.0027259
0.00242808
0.00210148
0.00182353
0.00159262
0.00145247
0.00127659
0.00109058
0.00100676
0.000977525
0.000963474
0.000956213
0.000952301
0.000950894
0.000946424
0.000946924
0.000938478
0.000920851
0.000896988
0.000867649
0.000834094
0.000795149
0.000758432
0.000721975
0.000686041
0.000650777
0.000617512
0.000585584
0.000557482
0.000532403
0.000509289
0.000486488
0.000462833
0.000435886
0.000404431
0.000368005
0.000329578
0.000296474
0.000269382
0.000247946
0.000235719
0.000235201
0.000256772
0.000285781
0.00029588
0.000292345
0.000267625
0.000219205
0.000177738
0.000154661
0.000147306
0.000147267
0.00015294
0.000162623
0.000166125
0.000166162
0.000163787
0.000153342
0.000137252
0.000123201
0.000109664
9.64084e-05
8.43058e-05
7.41347e-05
6.59271e-05
5.91681e-05
5.35671e-05
4.9227e-05
4.60893e-05
4.37182e-05
4.15546e-05
3.91585e-05
3.62157e-05
3.24939e-05
2.79777e-05
2.29649e-05
1.79933e-05
1.35477e-05
9.88285e-06
7.06785e-06
5.03007e-06
3.61088e-06
2.64577e-06
1.99741e-06
1.56202e-06
1.26451e-06
1.04857e-06
8.84226e-07
7.48658e-07
6.41786e-07
5.4589e-07
0.00288428
0.00417051
0.00489619
0.00626884
0.00717192
0.00819031
0.00976395
0.0110797
0.0119211
0.0122042
0.0122332
0.0122886
0.0122004
0.0120431
0.0118314
0.0116236
0.0115585
0.0115216
0.0113885
0.0110807
0.0105963
0.00995232
0.00919214
0.00853443
0.00796601
0.00741211
0.00689093
0.00644856
0.00602602
0.00561283
0.00528432
0.00499131
0.00481021
0.00472143
0.00468608
0.0047628
0.00493804
0.005228
0.00562105
0.00614303
0.00680393
0.00761865
0.00857076
0.00959329
0.0105305
0.0114662
0.0123229
0.0129634
0.0134675
0.0138486
0.0138664
0.0133461
0.0118966
0.0100327
0.00855765
0.00762265
0.00726646
0.00706333
0.00669326
0.00664671
0.00674344
0.0071141
0.00717603
0.00699714
0.00755767
0.0126291
0.019711
0.0205446
0.0198052
0.0186869
0.00958159
0.00456729
0.00213768
0.00122028
0.00100906
0.00110316
0.00158741
0.00283107
0.00466358
0.005377
0.00559132
0.00560916
0.00522578
0.00473149
0.004465
0.00407129
0.00362269
0.0032482
0.00294349
0.0025788
0.00220952
0.00190533
0.00157913
0.00137842
0.00127944
0.00113631
0.000939108
0.000803488
0.000750912
0.000725327
0.000704833
0.00068229
0.000666918
0.000661923
0.000666794
0.000690666
0.000713959
0.000741638
0.000762882
0.00077412
0.000774868
0.000758873
0.000738841
0.000718233
0.000697615
0.000678647
0.000664106
0.000653301
0.000644801
0.00063704
0.000628746
0.000619246
0.000607524
0.000591679
0.000568075
0.0005311
0.000474965
0.000405827
0.000331171
0.000258413
0.000209305
0.000185215
0.000181445
0.000203835
0.000256203
0.000277664
0.000277
0.000255218
0.000202213
0.000162534
0.000144154
0.000140214
0.000141875
0.000151543
0.000159836
0.00016162
0.000161031
0.000156685
0.000142975
0.000128961
0.000116774
0.000104938
9.35853e-05
8.35822e-05
7.54697e-05
6.91178e-05
6.40167e-05
5.97396e-05
5.61487e-05
5.32894e-05
5.10977e-05
4.92185e-05
4.70305e-05
4.39136e-05
3.95269e-05
3.40425e-05
2.80474e-05
2.22773e-05
1.71712e-05
1.29072e-05
9.41492e-06
6.64351e-06
4.52837e-06
3.10957e-06
2.26325e-06
1.78377e-06
1.44187e-06
1.14828e-06
9.11745e-07
6.8898e-07
0.00336335
0.00467359
0.00555712
0.00681599
0.0079155
0.00937014
0.0109911
0.0119459
0.0122937
0.0124834
0.0125254
0.0124527
0.012221
0.0119316
0.0115668
0.0111727
0.010778
0.0101663
0.00914519
0.00802316
0.00688606
0.00592207
0.00505748
0.00421344
0.00359876
0.00296234
0.00247008
0.00208528
0.00176081
0.00158517
0.00143214
0.00136047
0.00128887
0.00124971
0.00122163
0.00120864
0.00121885
0.00125863
0.00133894
0.00146153
0.00165624
0.00196367
0.00244825
0.00324818
0.00456396
0.00632336
0.00849538
0.0107996
0.0125878
0.0139402
0.0146982
0.0149387
0.0148163
0.014021
0.0113588
0.00876874
0.00762616
0.00705966
0.00675959
0.00672331
0.00671429
0.00667566
0.00651324
0.00663163
0.00954576
0.0188482
0.021017
0.0198457
0.017188
0.0093173
0.0041314
0.00202301
0.00118495
0.000974576
0.00102191
0.00135967
0.00239094
0.00455484
0.00575389
0.00602006
0.00599797
0.00535201
0.00453218
0.00382723
0.00349659
0.00300756
0.00261923
0.00240775
0.00212435
0.00194964
0.00178218
0.00158838
0.0014743
0.00135204
0.00126473
0.00111886
0.000931816
0.000783653
0.0007019
0.000665529
0.000637286
0.000606358
0.000572603
0.000553415
0.000541477
0.000538134
0.000537792
0.000540505
0.000546419
0.000557061
0.000574019
0.000596807
0.000616394
0.000631609
0.000642532
0.000647457
0.000648493
0.000647092
0.000645178
0.000642857
0.000639677
0.00063524
0.000629635
0.000622363
0.000612088
0.000596447
0.000573171
0.000538455
0.000493192
0.0004327
0.000336247
0.000231461
0.000167811
0.000143935
0.000143683
0.000175677
0.000235831
0.000255902
0.000253458
0.000224903
0.000173386
0.000144506
0.000134798
0.000134315
0.000139125
0.000150113
0.000153889
0.000153766
0.00015103
0.000140073
0.000126041
0.000115023
0.00010478
9.44926e-05
8.48563e-05
7.69567e-05
7.11289e-05
6.67475e-05
6.28922e-05
5.91155e-05
5.56124e-05
5.28083e-05
5.07744e-05
4.90223e-05
4.67896e-05
4.35374e-05
3.91713e-05
3.40053e-05
2.85157e-05
2.31873e-05
1.83361e-05
1.4158e-05
1.07175e-05
8.0596e-06
6.07388e-06
4.59393e-06
3.44509e-06
2.50275e-06
1.81549e-06
1.20728e-06
0.00360737
0.00502134
0.00622594
0.00718786
0.00850391
0.00987276
0.0108763
0.0115335
0.0119426
0.012102
0.0121254
0.0119661
0.0115199
0.0108642
0.00996161
0.00876365
0.00752186
0.00615938
0.00491683
0.0040211
0.0031941
0.00257765
0.00208606
0.00168833
0.00148281
0.00128332
0.00119003
0.00111505
0.00107926
0.00105985
0.00104908
0.0010315
0.00100005
0.000948363
0.000893885
0.00083595
0.000786069
0.000749724
0.000723972
0.000691705
0.000674737
0.000664573
0.000670954
0.000738552
0.000923686
0.00133108
0.00214027
0.00376032
0.00675287
0.010386
0.0129053
0.0144007
0.0149197
0.0148256
0.0142991
0.012296
0.00881157
0.00701463
0.00647279
0.00642927
0.00644185
0.00641115
0.00638325
0.0072608
0.0148569
0.0206154
0.020012
0.0162905
0.00918403
0.00411859
0.00198387
0.00118014
0.000940985
0.000916911
0.00113904
0.00193736
0.00386022
0.00580565
0.00634698
0.0063542
0.00567362
0.00419897
0.0031569
0.00271645
0.00226458
0.00196169
0.00179783
0.00159266
0.00147796
0.00141271
0.00133261
0.00129763
0.0012621
0.0012322
0.00114511
0.00103907
0.00091667
0.00078679
0.000679103
0.000632059
0.000597417
0.000566305
0.000531488
0.000509988
0.000495419
0.000489924
0.000488396
0.000488279
0.000488435
0.000489155
0.000490909
0.00049471
0.000500342
0.000506874
0.000515442
0.000525599
0.00053815
0.000552984
0.00056669
0.000578648
0.000587719
0.000593018
0.000595246
0.000595261
0.000593412
0.000588106
0.000575943
0.000553012
0.000519342
0.000483472
0.000449237
0.000386384
0.000274407
0.000174512
0.000125695
0.000114396
0.000122672
0.000175854
0.00022355
0.000232387
0.000223995
0.000183039
0.000145848
0.000130572
0.000127629
0.000129222
0.000137495
0.000143233
0.000143681
0.000141817
0.000133217
0.000119595
0.000109622
0.000101144
9.24818e-05
8.37774e-05
7.61788e-05
7.04542e-05
6.63251e-05
6.2892e-05
5.94216e-05
5.58027e-05
5.24369e-05
4.97749e-05
4.78789e-05
4.62547e-05
4.41801e-05
4.11958e-05
3.7243e-05
3.26057e-05
2.7681e-05
2.28683e-05
1.8442e-05
1.45812e-05
1.13633e-05
8.74386e-06
6.6804e-06
4.91761e-06
3.6237e-06
2.36527e-06
0.00397039
0.00544615
0.00651314
0.00749317
0.00868323
0.00963254
0.0101972
0.010686
0.0110497
0.0111224
0.0108995
0.0102057
0.00884831
0.00742107
0.00595642
0.00482219
0.00378655
0.0029618
0.00241094
0.00196786
0.00167937
0.00153692
0.00145184
0.00141875
0.00141428
0.00144578
0.00157117
0.00172309
0.00187761
0.00199078
0.00204673
0.00205857
0.00193825
0.00180017
0.00158299
0.00135881
0.00114321
0.000949441
0.000784122
0.000679812
0.000620871
0.000561503
0.000499227
0.000424928
0.000383044
0.000403115
0.000527353
0.000871897
0.00171415
0.00383319
0.00809769
0.0112764
0.0133868
0.0142718
0.0144499
0.0141366
0.0119009
0.00808782
0.00635137
0.00588401
0.00589415
0.00597728
0.00623089
0.00940413
0.018559
0.0198912
0.0155867
0.00903755
0.00434974
0.00208967
0.00120061
0.000905099
0.000846066
0.000956085
0.00149265
0.00281526
0.0050412
0.00648571
0.00677239
0.00662854
0.00549027
0.00382303
0.00314599
0.00275512
0.00229836
0.00197882
0.0018139
0.00160559
0.00151931
0.00143003
0.00127898
0.00121422
0.00109217
0.00103316
0.000925433
0.000870645
0.000792927
0.000726118
0.000664877
0.000614863
0.000577853
0.000545737
0.000516654
0.000494514
0.000478774
0.000469791
0.00046516
0.000463885
0.000463915
0.000464201
0.00046465
0.000466612
0.000470755
0.000476036
0.000481702
0.00048664
0.000491063
0.000495716
0.000500599
0.000506082
0.000511803
0.000516319
0.000519288
0.000520649
0.00052103
0.000519853
0.000515677
0.000516038
0.000512958
0.000485096
0.000453731
0.000428507
0.000386837
0.000294648
0.000184252
0.000118224
9.66429e-05
9.79375e-05
0.000128333
0.000188648
0.000209012
0.000207793
0.000184733
0.000145673
0.000126635
0.000120998
0.000121104
0.000125143
0.00013083
0.000131888
0.000130741
0.000124938
0.000112485
0.000103231
9.60915e-05
8.90176e-05
8.14626e-05
7.43096e-05
6.86747e-05
6.47519e-05
6.17325e-05
5.86832e-05
5.52944e-05
5.18651e-05
4.88199e-05
4.6434e-05
4.47241e-05
4.32411e-05
4.1348e-05
3.86746e-05
3.51932e-05
3.11146e-05
2.67536e-05
2.238e-05
1.82948e-05
1.45718e-05
1.14769e-05
8.67411e-06
6.61622e-06
4.49033e-06
0.00410799
0.00564317
0.00657392
0.00750423
0.00855541
0.00903431
0.00925296
0.00935041
0.00918766
0.00873287
0.00789761
0.0065212
0.00527039
0.00414806
0.00320222
0.00267053
0.00214261
0.00186937
0.00172408
0.00165229
0.00162987
0.00165122
0.00182651
0.00213432
0.00263063
0.00304934
0.00344381
0.0036807
0.00385733
0.00394448
0.00398568
0.00399932
0.00395345
0.00385589
0.00364927
0.00329798
0.00279848
0.00222375
0.00158759
0.00115835
0.000839725
0.000619305
0.000513972
0.000414376
0.000323954
0.000270886
0.000250075
0.000295703
0.000498892
0.00116101
0.00349424
0.00771458
0.0110396
0.0134472
0.0145041
0.0144923
0.0134218
0.00946368
0.00665756
0.00566748
0.00551179
0.00556089
0.00637924
0.0132966
0.0189975
0.0159646
0.00928227
0.00476457
0.00233348
0.00129182
0.000912629
0.000813035
0.000822625
0.0010236
0.00165783
0.00305672
0.00553475
0.00723737
0.00755513
0.00727504
0.00554465
0.00425673
0.00385334
0.00368565
0.00344935
0.0031591
0.00300631
0.00285744
0.002777
0.00264417
0.00219501
0.00196346
0.00147332
0.00127073
0.00100888
0.000892352
0.000789157
0.000724051
0.000670039
0.000625075
0.00058399
0.000550244
0.000522792
0.000499549
0.00048009
0.00046724
0.000457754
0.000452356
0.000450366
0.000450056
0.000451356
0.000452404
0.000455476
0.000461799
0.000468869
0.000475516
0.000482227
0.000487545
0.000491493
0.000494658
0.000497574
0.000499676
0.00050073
0.000500819
0.000500311
0.000497697
0.000486416
0.000456963
0.000445949
0.000445425
0.00043001
0.00041066
0.000394539
0.000361254
0.000285991
0.000182629
0.000112017
8.51367e-05
8.3954e-05
0.000102087
0.000160666
0.000188673
0.000190392
0.000177713
0.000142463
0.000122035
0.000114362
0.000113407
0.000114722
0.000118957
0.00012041
0.000119841
0.000116208
0.000105918
9.72721e-05
9.10195e-05
8.50143e-05
7.85009e-05
7.20389e-05
6.65901e-05
6.26899e-05
5.99545e-05
5.74594e-05
5.45582e-05
5.13053e-05
4.81715e-05
4.5444e-05
4.3253e-05
4.16529e-05
4.03258e-05
3.87291e-05
3.64414e-05
3.34138e-05
2.97003e-05
2.5673e-05
2.14115e-05
1.75349e-05
1.37006e-05
1.07901e-05
7.65104e-06
0.00414844
0.0057572
0.00653787
0.00741109
0.00800219
0.00815036
0.00817098
0.00770772
0.00704516
0.0062653
0.00516002
0.00402441
0.00322271
0.00255049
0.00214486
0.0019497
0.00182236
0.00177796
0.0017691
0.00186686
0.00213913
0.00269699
0.00329573
0.00374276
0.00396915
0.00413087
0.00420851
0.00427948
0.00432748
0.00436684
0.00440613
0.00445233
0.00448506
0.00449574
0.00446841
0.00443257
0.00434885
0.00409473
0.0036085
0.00268696
0.00183221
0.00115582
0.000717765
0.000490326
0.000340787
0.0002564
0.000207589
0.000186976
0.000215203
0.000394502
0.00119555
0.00480234
0.0089021
0.0121469
0.0143246
0.0145691
0.0138052
0.0101347
0.00675375
0.00551725
0.00527307
0.00542493
0.00750695
0.0162857
0.0176334
0.0103482
0.00542168
0.00272596
0.00147348
0.000969715
0.000802616
0.000769748
0.000821067
0.00109403
0.00182133
0.00344179
0.00644037
0.00841297
0.00872892
0.00788715
0.00629377
0.00576579
0.00617596
0.00696937
0.0075325
0.00798835
0.00850889
0.00891852
0.00905122
0.00783118
0.00695573
0.00580566
0.00392763
0.00300543
0.00194283
0.0014013
0.001032
0.000831018
0.000717398
0.000648782
0.000597172
0.000557088
0.00052693
0.000503888
0.000484057
0.000468542
0.000456127
0.000447704
0.000444021
0.00044304
0.000442403
0.000442796
0.000444657
0.000449947
0.000458561
0.00046896
0.000478787
0.000486413
0.000491506
0.000495131
0.00049782
0.000499531
0.000500119
0.00050007
0.000499359
0.000496708
0.000487489
0.000454269
0.000405947
0.000372952
0.000351197
0.000344188
0.000343257
0.000340447
0.000324387
0.000266576
0.000169802
0.000102723
7.71571e-05
7.57861e-05
9.17042e-05
0.000147926
0.000176765
0.000178976
0.000168625
0.000136571
0.000116495
0.000108106
0.000106374
0.000106834
0.000109699
0.000111516
0.000111332
0.000108771
0.000100167
9.20357e-05
8.63187e-05
8.10407e-05
7.53348e-05
6.95372e-05
6.4382e-05
6.04598e-05
5.78185e-05
5.57879e-05
5.35218e-05
5.07242e-05
4.76537e-05
4.47238e-05
4.21895e-05
4.01599e-05
3.87663e-05
3.77067e-05
3.64655e-05
3.43934e-05
3.15652e-05
2.77878e-05
2.38796e-05
1.94254e-05
1.58348e-05
1.17317e-05
0.00414363
0.00578025
0.00642566
0.00712843
0.00739621
0.00741454
0.00695707
0.00618309
0.00538469
0.00450757
0.00349611
0.00274932
0.00235512
0.00205766
0.00193587
0.00188515
0.00186701
0.00195551
0.00224817
0.00291931
0.00353819
0.00397411
0.00417115
0.00424529
0.00423956
0.00413471
0.00405167
0.00392008
0.00386592
0.00384874
0.00384682
0.00387652
0.00394145
0.00407109
0.00423396
0.00442361
0.0045551
0.00463009
0.00443896
0.00413671
0.00344039
0.00253846
0.00144385
0.000820453
0.000467523
0.000292568
0.000205906
0.000169906
0.000157631
0.000191744
0.00042275
0.00190751