/*--------------------------------*- C++ -*----------------------------------*\
  =========                 |
  \\      /  F ield         | OpenFOAM: The Open Source CFD Toolbox
   \\    /   O peration     | Website:  https://openfoam.org
    \\  /    A nd           | Version:  7
     \\/     M anipulation  |
\*---------------------------------------------------------------------------*/
FoamFile
{
    version     2.0;
    format      ascii;
    class       volScalarField;
    location    "0.087";
    object      k_0;
}
// * * * * * * * * * * * * * * * * * * * * * * * * * * * * * * * * * * * * * //

dimensions      [0 2 -2 0 0 0 0];

internalField   nonuniform List<scalar> 
12225
(
1.92957e-05
1.80953e-05
1.6786e-05
1.5325e-05
1.40837e-05
1.26682e-05
1.13198e-05
1.03158e-05
8.98103e-06
7.41779e-06
6.46261e-06
5.99988e-06
5.32283e-06
4.77379e-06
4.04324e-06
1.4763e-05
8.11824e-06
1.23563e-05
1.99785e-05
1.98859e-05
1.97157e-05
1.94292e-05
1.91184e-05
1.87465e-05
1.83072e-05
1.79448e-05
1.74365e-05
1.68998e-05
1.61691e-05
1.5836e-05
1.5285e-05
1.4965e-05
1.41308e-05
1.74723e-05
1.64122e-05
1.57373e-05
2.00005e-05
1.94876e-05
1.91463e-05
1.9087e-05
1.90055e-05
1.8866e-05
1.87604e-05
1.87239e-05
1.87006e-05
1.86601e-05
1.85426e-05
1.84047e-05
1.81498e-05
1.80203e-05
1.77031e-05
1.79105e-05
1.78333e-05
1.76963e-05
2.02207e-05
2.00653e-05
1.9073e-05
1.70741e-05
1.50126e-05
1.47096e-05
1.48509e-05
1.54239e-05
1.66403e-05
1.74495e-05
1.7773e-05
1.7815e-05
1.77753e-05
1.76427e-05
1.74649e-05
1.741e-05
1.73829e-05
1.73829e-05
2.02592e-05
2.10466e-05
2.33265e-05
2.30714e-05
2.24479e-05
2.12344e-05
1.9864e-05
1.90305e-05
1.84945e-05
1.7243e-05
1.59056e-05
1.5608e-05
1.56318e-05
1.57366e-05
1.60705e-05
1.6438e-05
1.6978e-05
1.7174e-05
2.05183e-05
2.18925e-05
2.1814e-05
2.16466e-05
2.17619e-05
2.25415e-05
2.40877e-05
2.48775e-05
2.48661e-05
2.44313e-05
2.2939e-05
2.12394e-05
2.0095e-05
1.94339e-05
1.92081e-05
1.91918e-05
1.92952e-05
1.9525e-05
2.02922e-05
2.33106e-05
2.29183e-05
2.17588e-05
2.14776e-05
2.16761e-05
2.28388e-05
2.47397e-05
2.54399e-05
2.54623e-05
2.52596e-05
2.44409e-05
2.33887e-05
2.26659e-05
2.2249e-05
2.20759e-05
2.20539e-05
2.20736e-05
2.01116e-05
2.28003e-05
2.42003e-05
2.33821e-05
2.17814e-05
2.14396e-05
2.17634e-05
2.32029e-05
2.41987e-05
2.44455e-05
2.44115e-05
2.40538e-05
2.35301e-05
2.32339e-05
2.30612e-05
2.2977e-05
2.2905e-05
2.28415e-05
2.00913e-05
2.21796e-05
2.40002e-05
2.38985e-05
2.28915e-05
2.2314e-05
2.25142e-05
2.30943e-05
2.31499e-05
2.28673e-05
2.24969e-05
2.24473e-05
2.24923e-05
2.27572e-05
2.31188e-05
2.3321e-05
2.34121e-05
2.34326e-05
2.00623e-05
2.08786e-05
2.12239e-05
2.14947e-05
2.20286e-05
2.39619e-05
2.68211e-05
2.77246e-05
2.75921e-05
2.62962e-05
2.39509e-05
2.27553e-05
2.24051e-05
2.24038e-05
2.2602e-05
2.28712e-05
2.29573e-05
2.29738e-05
2.00082e-05
2.00815e-05
2.03353e-05
2.09213e-05
2.13247e-05
2.21155e-05
2.38748e-05
2.49817e-05
2.50951e-05
2.47876e-05
2.34357e-05
2.17312e-05
2.09914e-05
2.08482e-05
2.08915e-05
2.11912e-05
2.1693e-05
2.20184e-05
2.00011e-05
2.00128e-05
2.02362e-05
2.13971e-05
2.46931e-05
2.62445e-05
2.62245e-05
2.57405e-05
2.51281e-05
2.41375e-05
2.25768e-05
2.1046e-05
2.00713e-05
1.97407e-05
1.97216e-05
1.97873e-05
2.00799e-05
2.06896e-05
2.00088e-05
2.01777e-05
2.11328e-05
2.2826e-05
2.32069e-05
2.303e-05
2.24727e-05
2.20605e-05
2.18115e-05
2.15975e-05
2.12515e-05
2.07124e-05
2.0193e-05
1.99191e-05
1.98666e-05
1.98715e-05
1.98957e-05
1.99805e-05
2.01733e-05
2.06816e-05
2.10119e-05
2.16344e-05
2.20097e-05
2.18922e-05
2.1688e-05
2.16937e-05
2.19484e-05
2.26942e-05
2.29894e-05
2.29714e-05
2.26582e-05
2.17991e-05
2.12023e-05
2.08868e-05
2.07574e-05
2.07192e-05
2.10077e-05
2.05734e-05
2.06834e-05
2.07467e-05
2.0934e-05
2.14987e-05
2.27169e-05
2.36107e-05
2.39705e-05
2.39919e-05
2.37747e-05
2.29247e-05
2.20859e-05
2.15528e-05
2.12293e-05
2.10486e-05
2.09625e-05
2.09322e-05
2.05599e-05
2.03603e-05
2.03439e-05
2.09198e-05
2.40976e-05
2.67099e-05
2.68453e-05
2.55782e-05
2.33491e-05
2.2103e-05
2.14324e-05
2.11031e-05
2.09947e-05
2.09847e-05
2.10046e-05
2.10162e-05
2.10121e-05
2.09792e-05
2.03301e-05
2.0385e-05
2.05425e-05
2.0925e-05
2.18529e-05
2.24997e-05
2.26456e-05
2.26115e-05
2.23863e-05
2.17764e-05
2.14597e-05
2.13471e-05
2.12901e-05
2.13408e-05
2.15958e-05
2.17966e-05
2.18509e-05
2.18451e-05
2.12843e-05
2.12296e-05
2.08894e-05
2.09977e-05
2.16798e-05
2.21445e-05
2.20898e-05
2.17675e-05
2.12737e-05
2.09534e-05
2.0795e-05
2.07434e-05
2.07443e-05
2.07846e-05
2.08177e-05
2.08156e-05
2.07952e-05
2.08018e-05
2.03319e-05
2.04026e-05
2.04957e-05
2.06231e-05
2.07253e-05
2.07412e-05
2.07099e-05
2.06187e-05
2.05656e-05
2.05396e-05
2.05309e-05
2.05251e-05
2.05109e-05
2.04691e-05
2.04264e-05
2.04047e-05
2.04006e-05
2.04057e-05
2.00827e-05
2.0467e-05
2.07106e-05
2.07301e-05
2.06691e-05
2.0591e-05
2.05749e-05
2.05813e-05
2.06006e-05
2.06166e-05
2.06371e-05
2.0684e-05
2.08125e-05
2.09337e-05
2.09994e-05
2.10209e-05
2.10209e-05
2.10003e-05
2.0385e-05
2.02504e-05
2.0444e-05
2.06641e-05
2.07124e-05
2.07038e-05
2.06635e-05
2.06537e-05
2.06611e-05
2.06889e-05
2.07693e-05
2.08353e-05
2.08695e-05
2.08806e-05
2.08811e-05
2.08773e-05
2.08608e-05
2.07982e-05
2.04179e-05
2.02103e-05
2.01713e-05
2.02893e-05
2.05367e-05
2.07392e-05
2.08559e-05
2.08932e-05
2.08919e-05
2.08566e-05
2.07134e-05
2.05754e-05
2.05139e-05
2.04976e-05
2.04978e-05
2.05128e-05
2.05222e-05
2.05181e-05
2.00538e-05
2.04664e-05
2.08364e-05
2.08927e-05
2.08253e-05
2.07023e-05
2.0626e-05
2.05154e-05
2.0406e-05
2.03238e-05
2.02787e-05
2.02659e-05
2.02649e-05
2.02721e-05
2.03079e-05
2.03497e-05
2.03738e-05
2.03834e-05
2.02744e-05
2.02739e-05
2.02166e-05
2.02126e-05
2.02197e-05
2.02772e-05
2.04818e-05
2.06053e-05
2.08174e-05
2.09974e-05
2.10483e-05
2.10434e-05
2.09932e-05
2.09426e-05
2.09429e-05
2.09761e-05
2.09899e-05
2.09599e-05
2.02407e-05
2.03732e-05
2.03275e-05
2.01763e-05
2.01305e-05
2.01325e-05
2.01763e-05
2.04225e-05
2.06959e-05
2.07586e-05
2.07854e-05
2.08762e-05
2.11937e-05
2.16226e-05
2.19029e-05
2.2005e-05
2.20099e-05
2.19423e-05
2.04413e-05
2.06895e-05
2.07201e-05
2.06896e-05
2.06502e-05
2.05745e-05
2.04257e-05
2.03091e-05
2.02455e-05
2.02287e-05
2.02419e-05
2.03514e-05
2.07555e-05
2.20737e-05
2.52322e-05
2.77801e-05
2.91606e-05
2.9591e-05
2.00723e-05
2.01333e-05
2.01276e-05
2.01017e-05
2.00316e-05
1.98949e-05
1.97794e-05
1.96066e-05
1.9202e-05
1.86255e-05
1.83618e-05
1.83588e-05
1.85478e-05
1.91627e-05
2.0344e-05
2.11862e-05
2.25566e-05
2.33902e-05
2.02475e-05
1.63579e-05
1.50829e-05
1.6368e-05
2.01982e-05
2.28414e-05
2.37687e-05
2.46339e-05
2.64214e-05
2.97854e-05
3.72117e-05
4.76666e-05
6.19217e-05
7.35415e-05
8.52617e-05
9.24264e-05
0.000103489
0.000114116
3.4116e-05
7.69922e-05
0.000136406
0.000229495
0.000297217
0.000320268
0.000326423
0.000339285
0.000376363
0.000424187
0.000471361
0.000530526
0.000600853
0.000664828
0.000707653
0.000732705
0.000768381
0.000805997
0.00303787
0.00272877
0.00239934
0.00232523
0.00229953
0.00223592
0.0020208
0.00179704
0.00168843
0.00165754
0.00165761
0.00168228
0.00175012
0.00179117
0.00180626
0.00180737
0.00180005
0.00176448
0.00595034
0.00739032
0.00617876
0.0059356
0.00597981
0.00598595
0.00587681
0.00575194
0.00561086
0.00535681
0.00527812
0.00530499
0.00545885
0.00556891
0.00559655
0.00561672
0.00562679
0.00564716
0.00568849
0.0057526
0.0058197
0.00585609
0.00584661
0.00577784
0.00563497
0.00545946
0.00526697
0.00515765
0.00515796
0.00518668
0.00524992
0.00532508
0.00542085
0.00549239
0.00553924
0.00554262
0.00551736
0.00547612
0.00530986
0.00513709
0.00512235
0.00537478
0.00617318
0.00562076
0.00601842
0.00651787
0.00702265
0.00755426
0.00839019
0.0102247
0.0145158
0.0189824
0.0214109
0.0214737
0.0209291
0.0203297
0.0196406
0.0183432
0.0158297
0.0132366
0.0119501
0.0115681
0.011505
0.0124421
0.0149707
0.0213728
0.042424
0.0733484
0.08838
0.094972
0.110324
0.154721
0.17675
0.170812
0.141478
0.0637015
0.0105123
0.0023395
0.001299
0.0010558
0.00084879
0.000675482
0.000543
0.000447517
0.0003812
0.000342535
0.000316932
0.000305969
0.000304105
0.000298383
0.000296064
0.000291883
0.000282369
0.000274625
0.000270725
0.000264734
0.00025696
0.000250776
0.00024549
0.000239142
0.000231871
0.000225238
0.000219987
0.000214905
0.000209276
0.000203793
0.000198495
0.000193712
0.000190695
0.000187599
0.000183397
0.000179923
0.00017617
0.000172381
0.000169471
0.000165411
0.000162502
0.000158884
0.000155501
0.000151932
0.000148195
0.000144129
0.000139663
0.00013478
0.000129695
0.00012463
0.000119776
0.000114917
0.000110137
0.000105469
0.000100803
9.59824e-05
9.07751e-05
8.42795e-05
7.60395e-05
6.68296e-05
5.76158e-05
4.90889e-05
4.18014e-05
3.50569e-05
2.79654e-05
2.09213e-05
1.50679e-05
1.06861e-05
7.61515e-06
5.56141e-06
4.21168e-06
3.30803e-06
2.67107e-06
2.19005e-06
1.80443e-06
1.48724e-06
1.22821e-06
1.01957e-06
8.51063e-07
7.13004e-07
5.98453e-07
5.02779e-07
4.22686e-07
3.5569e-07
2.99595e-07
2.52641e-07
2.13008e-07
1.79704e-07
1.5103e-07
1.27041e-07
1.0532e-07
9.24924e-08
7.56181e-08
7.0382e-08
5.07957e-08
4.8349e-08
3.23509e-08
3.78942e-08
2.31479e-08
7.74262e-08
8.91728e-08
3.06166e-07
7.67346e-06
6.13344e-06
0.00581489
0.00609553
0.00634111
0.00660423
0.00667489
0.00663386
0.00650866
0.00623757
0.00591786
0.00560244
0.0053667
0.00521602
0.00510299
0.00503365
0.00496195
0.00483679
0.00471382
0.00461249
0.00457465
0.0045713
0.00457261
0.00458057
0.00460309
0.00462651
0.00463629
0.00466637
0.00477101
0.00500451
0.0054764
0.00622159
0.00706074
0.00786975
0.00857841
0.00906193
0.00933408
0.00939821
0.00936239
0.00926556
0.00893653
0.00819217
0.00708556
0.00604444
0.00583128
0.00571032
0.00568919
0.00564852
0.00566141
0.00581704
0.00614054
0.00685059
0.00973473
0.014954
0.0167284
0.0160337
0.0134901
0.0116391
0.010436
0.00918435
0.00765393
0.0065122
0.00609403
0.00616539
0.00631099
0.00661533
0.00758889
0.0104408
0.0127134
0.022665
0.0336737
0.0304794
0.0309244
0.04439
0.0983624
0.106556
0.053544
0.0168544
0.00342664
0.00122315
0.000858924
0.000780711
0.000757858
0.000757891
0.000820216
0.00086352
0.00089982
0.000915574
0.000920148
0.000915139
0.000883128
0.000859528
0.00084774
0.000819529
0.000774739
0.000742434
0.000719371
0.00069222
0.000668265
0.000648535
0.000624299
0.000600324
0.000578018
0.000553575
0.000531879
0.000513988
0.000494623
0.000476953
0.000460285
0.000441401
0.000428908
0.000415618
0.000403185
0.000391628
0.000382891
0.000372655
0.000364784
0.000356007
0.000348069
0.000340101
0.000331986
0.000323778
0.000315471
0.000306864
0.000297465
0.000286761
0.000274518
0.000260595
0.000244886
0.000227626
0.000209034
0.000191184
0.000177468
0.000166763
0.000158498
0.000153169
0.000149981
0.000146945
0.000142658
0.000136564
0.000128042
0.000117442
0.000106251
9.54458e-05
8.47803e-05
7.42722e-05
6.4265e-05
5.5176e-05
4.72458e-05
4.0436e-05
3.45889e-05
2.95188e-05
2.49824e-05
2.08042e-05
1.70549e-05
1.394e-05
1.14975e-05
9.55582e-06
7.96671e-06
6.63823e-06
5.51754e-06
4.57598e-06
3.7914e-06
3.14803e-06
2.61851e-06
2.19435e-06
1.83752e-06
1.55116e-06
1.3124e-06
1.14026e-06
9.61791e-07
8.4164e-07
6.78633e-07
6.03931e-07
4.53715e-07
4.08962e-07
3.02846e-07
2.84824e-07
2.44186e-07
2.45529e-07
1.05274e-06
1.29256e-06
0.00374563
0.00529089
0.00664556
0.00668702
0.00652642
0.00602144
0.00545137
0.00507767
0.00490852
0.00480843
0.00466233
0.00457483
0.00457791
0.00462583
0.00475234
0.0048384
0.0048685
0.00488735
0.00494568
0.00500566
0.00504506
0.00510418
0.00542548
0.00614708
0.0075676
0.01021
0.0120913
0.0128585
0.0131455
0.013234
0.0132369
0.0130819
0.0129369
0.0128285
0.0127216
0.012629
0.0125378
0.012428
0.0122512
0.0119125
0.0114466
0.0105247
0.00943296
0.00884671
0.00837198
0.00755142
0.00672847
0.00629843
0.00608219
0.0059947
0.00602968
0.00639205
0.00809319
0.00953074
0.00935492
0.00767985
0.00646554
0.00597114
0.00565011
0.00562434
0.0057502
0.00594761
0.00615241
0.00633872
0.0068047
0.00863095
0.0124574
0.0143168
0.0148994
0.0155358
0.0239754
0.0446854
0.0470236
0.0279993
0.0104276
0.00322337
0.00121712
0.000915956
0.000886442
0.00096965
0.0011748
0.00143578
0.00170173
0.00186818
0.00194761
0.00197483
0.00197628
0.00191424
0.00178798
0.0016921
0.0016137
0.00149666
0.00138211
0.00129767
0.00120912
0.00111645
0.001054
0.00102416
0.000990967
0.00095458
0.000918517
0.000870684
0.000814224
0.000775302
0.000728817
0.000679593
0.000634416
0.000585137
0.000551336
0.000523563
0.000498422
0.000475861
0.000459
0.000441855
0.000427648
0.000414097
0.000400764
0.000389902
0.000379652
0.000370101
0.000361067
0.000352531
0.000344375
0.000336685
0.000329464
0.000322611
0.000315718
0.000307161
0.000296941
0.000281651
0.000256852
0.000225719
0.000193029
0.000166778
0.000151555
0.000143634
0.000140498
0.000139829
0.000139668
0.000138809
0.00013474
0.000122979
0.000110867
0.000100324
9.06457e-05
8.18364e-05
7.37345e-05
6.62955e-05
5.967e-05
5.39175e-05
4.90113e-05
4.49076e-05
4.14026e-05
3.80896e-05
3.46595e-05
3.10866e-05
2.74467e-05
2.38444e-05
2.03847e-05
1.71594e-05
1.42378e-05
1.16696e-05
9.47228e-06
7.64068e-06
6.14757e-06
4.9498e-06
4.00903e-06
3.26937e-06
2.70018e-06
2.24344e-06
1.89391e-06
1.59636e-06
1.36983e-06
1.15143e-06
1.00561e-06
8.17555e-07
7.34736e-07
5.47074e-07
5.3728e-07
4.79794e-07
0.0012565
0.00269229
0.00363417
0.00435847
0.00466245
0.0046451
0.00467878
0.00477621
0.004939
0.00512106
0.0052158
0.00542603
0.00583314
0.00607352
0.00600134
0.00581752
0.00591025
0.00650223
0.00772771
0.00917386
0.0104335
0.0113743
0.0121759
0.012692
0.0128878
0.0127488
0.0123824
0.0122246
0.0118347
0.0114063
0.0111912
0.0110156
0.0109401
0.0109105
0.0109079
0.0109927
0.0111507
0.011347
0.0115527
0.0116721
0.011758
0.0118424
0.0117366
0.0114883
0.0112282
0.0109968
0.0104593
0.00965926
0.00879219
0.00783232
0.00691019
0.00647637
0.00647552
0.00665046
0.00692515
0.0068979
0.00669786
0.00614083
0.00568234
0.00543567
0.00540126
0.00553554
0.0061602
0.00650702
0.00680657
0.00805416
0.0114902
0.0118051
0.0124918
0.0175122
0.0276389
0.0277878
0.016664
0.00709087
0.00265258
0.00124967
0.000984615
0.00100775
0.00129861
0.00193725
0.00291981
0.00350531
0.00376489
0.00386301
0.00387623
0.00373711
0.00338171
0.00305978
0.00283525
0.00259211
0.00231715
0.00204404
0.00181258
0.00163423
0.00149915
0.00132561
0.00121705
0.00117235
0.00114788
0.00112193
0.00109423
0.00106284
0.00101912
0.000990999
0.000961869
0.000929847
0.000886791
0.0008345
0.000778897
0.000718674
0.000658966
0.00060465
0.000556442
0.000515398
0.000480748
0.000451957
0.000426604
0.000407538
0.000390728
0.000375717
0.000361842
0.000348865
0.000336209
0.000324088
0.000312913
0.000303463
0.000296527
0.00029434
0.000296301
0.000302753
0.000307678
0.000304657
0.000290336
0.000260463
0.000220978
0.000184937
0.000164157
0.000155937
0.000154761
0.000157444
0.000163777
0.000165481
0.00016509
0.000162127
0.000151109
0.00013074
0.000112376
9.68567e-05
8.38911e-05
7.32114e-05
6.45782e-05
5.76034e-05
5.1825e-05
4.69109e-05
4.28073e-05
3.94061e-05
3.63582e-05
3.33211e-05
3.01215e-05
2.67746e-05
2.33996e-05
2.01181e-05
1.70019e-05
1.40861e-05
1.14224e-05
9.06758e-06
7.07498e-06
5.46157e-06
4.21311e-06
3.27035e-06
2.58008e-06
2.06865e-06
1.70008e-06
1.41246e-06
1.20293e-06
1.01942e-06
8.84381e-07
7.52423e-07
6.52296e-07
5.51266e-07
0.00155906
0.0028222
0.00334429
0.0043299
0.00508735
0.00558239
0.00637914
0.00748122
0.00855551
0.00900204
0.0094125
0.0096092
0.0096469
0.0101403
0.0104137
0.0104295
0.0107457
0.0113585
0.0116679
0.0117912
0.0118235
0.0116994
0.0116128
0.0109357
0.0103
0.00960122
0.00915113
0.00868234
0.00846184
0.0083535
0.00830604
0.00828793
0.00833904
0.00848463
0.0086107
0.00884787
0.00909418
0.00941843
0.0097951
0.0102157
0.0106847
0.0111989
0.011581
0.0117896
0.0119727
0.0122226
0.0124287
0.0124393
0.0121633
0.0114341
0.0103968
0.00917267
0.0080226
0.00727743
0.00692411
0.00677655
0.00668833
0.00651463
0.0061129
0.0058985
0.00591956
0.00618188
0.00688053
0.00694157
0.00708502
0.00826264
0.0135117
0.0173918
0.019242
0.0216523
0.0214277
0.0115113
0.0053859
0.00230489
0.00123879
0.0010163
0.00108877
0.00151005
0.00258832
0.0040923
0.00468644
0.00491975
0.0049815
0.00489771
0.00448043
0.0040728
0.00379097
0.00342168
0.00302561
0.00273625
0.00243915
0.00211219
0.00183262
0.00159953
0.00145828
0.00128311
0.00109587
0.00100939
0.000979531
0.000965235
0.000957892
0.000953943
0.000952493
0.000947765
0.000948147
0.000939604
0.000921938
0.000897946
0.000868454
0.000834758
0.000795651
0.000758797
0.00072211
0.000685966
0.000650502
0.000617044
0.000584891
0.000556662
0.000531465
0.000508263
0.000485372
0.000461623
0.000434577
0.000403038
0.000366601
0.000328353
0.000295631
0.000268716
0.000247522
0.000235588
0.000235418
0.00025761
0.000286347
0.000296083
0.00029229
0.000266946
0.000218432
0.000177167
0.000154416
0.000147247
0.000147267
0.000153095
0.000162722
0.000166154
0.000166169
0.00016373
0.00015313
0.00013706
0.00012303
0.000109501
9.6257e-05
8.41754e-05
7.40296e-05
6.58435e-05
5.91003e-05
5.35144e-05
4.91897e-05
4.60642e-05
4.3699e-05
4.1535e-05
3.9134e-05
3.61829e-05
3.24516e-05
2.79276e-05
2.29118e-05
1.79431e-05
1.35044e-05
9.84814e-06
7.04184e-06
5.01153e-06
3.59811e-06
2.63715e-06
1.99166e-06
1.55816e-06
1.26183e-06
1.04657e-06
8.82655e-07
7.47385e-07
6.4072e-07
5.45015e-07
0.00288141
0.00416771
0.00489382
0.00626425
0.00716502
0.00818038
0.00975163
0.0110687
0.0119137
0.0121994
0.0122295
0.0122875
0.0122037
0.0120496
0.011841
0.0116308
0.0115636
0.0115253
0.0113898
0.0110786
0.0105897
0.0099413
0.0091798
0.00852713
0.00796068
0.00741078
0.00689131
0.00645174
0.00603337
0.00562295
0.00529652
0.00500652
0.00482743
0.00474183
0.0047093
0.0047897
0.00496827
0.0052623
0.00565969
0.00618587
0.00685071
0.00766802
0.00861962
0.0096349
0.0105611
0.0114898
0.0123355
0.0129652
0.0134619
0.0138342
0.0138384
0.0132935
0.0118243
0.00997372
0.00852375
0.00760612
0.00726071
0.00705526
0.00668803
0.00664584
0.00674477
0.00711689
0.00717055
0.0069932
0.00757868
0.012768
0.019782
0.020552
0.019798
0.0186074
0.00946241
0.00450972
0.00211319
0.00121151
0.00100467
0.00109945
0.00158184
0.00281607
0.00465612
0.00537862
0.00559713
0.00561706
0.00523887
0.0047405
0.00447491
0.00408476
0.00363546
0.0032591
0.00295481
0.00259142
0.00222135
0.00191647
0.00158848
0.00138328
0.0012832
0.00114143
0.000944404
0.000805878
0.000752357
0.00072646
0.000706002
0.000683548
0.000668165
0.000663157
0.000668086
0.000692032
0.000715377
0.000743094
0.00076428
0.000775503
0.000775917
0.000759628
0.000739424
0.000718652
0.000697889
0.000678806
0.000664187
0.000653335
0.000644797
0.000636959
0.000628585
0.000618997
0.000607156
0.000591128
0.000567219
0.00052975
0.000473046
0.000403746
0.000329097
0.000256785
0.000208439
0.000184903
0.000181511
0.000204867
0.000257068
0.000277932
0.000277014
0.000254552
0.000201385
0.000162054
0.000143978
0.000140182
0.000141919
0.000151715
0.000159905
0.000161632
0.000161018
0.000156575
0.000142753
0.000128786
0.000116615
0.000104786
9.34481e-05
8.3468e-05
7.53808e-05
6.90494e-05
6.39625e-05
5.96955e-05
5.61138e-05
5.32634e-05
5.10778e-05
4.91987e-05
4.70034e-05
4.38737e-05
3.94736e-05
3.39803e-05
2.79841e-05
2.22194e-05
1.7122e-05
1.2867e-05
9.38279e-06
6.61878e-06
4.51078e-06
3.09859e-06
2.25715e-06
1.78004e-06
1.43897e-06
1.14582e-06
9.09604e-07
6.87433e-07
0.00336156
0.00467187
0.00555585
0.00680984
0.00790502
0.0093562
0.0109773
0.0119346
0.0122828
0.012475
0.0125194
0.0124506
0.012224
0.0119367
0.0115724
0.0111746
0.0107754
0.0101606
0.00913138
0.00801143
0.00687496
0.00591382
0.00505609
0.00421198
0.00359874
0.00296534
0.0024729
0.00208919
0.00176409
0.0015887
0.00143607
0.00136489
0.00129331
0.00125419
0.00122672
0.00121391
0.00122525
0.00126617
0.00134858
0.00147446
0.00167324
0.00198735
0.00248229
0.00329832
0.00463223
0.0064019
0.00857838
0.0108637
0.0126278
0.0139561
0.0146977
0.0149262
0.0147954
0.0139689
0.0112623
0.00871494
0.00760185
0.00704647
0.00675468
0.00672149
0.0067127
0.00667321
0.00650987
0.00663699
0.00964934
0.0189604
0.0210301
0.0198264
0.0171162
0.00917604
0.00407756
0.00200028
0.00117579
0.000969526
0.00101799
0.00135445
0.00237913
0.00453596
0.00575514
0.00602718
0.00600841
0.00536583
0.00454166
0.0038317
0.00349929
0.00301345
0.00262411
0.00241308
0.00213056
0.00195525
0.00178883
0.0015942
0.00147855
0.00135552
0.00126841
0.00112371
0.000936299
0.000786621
0.000703424
0.000666597
0.00063832
0.000607454
0.000573652
0.000554335
0.000542236
0.000538812
0.000538437
0.000541154
0.000547128
0.000557896
0.000575067
0.000597978
0.000617539
0.000632691
0.000643496
0.000648241
0.000649051
0.000647486
0.000645486
0.000643104
0.000639866
0.00063538
0.000629729
0.000622402
0.000612043
0.000596275
0.000572785
0.000537723
0.000492093
0.000430887
0.000333685
0.00022942
0.000166855
0.00014368
0.000143762
0.000176933
0.000236642
0.000256112
0.000253395
0.000224082
0.000172735
0.000144202
0.000134715
0.000134305
0.000139263
0.000150217
0.000153907
0.000153759
0.000150958
0.000139863
0.000125871
0.00011488
0.000104643
9.43615e-05
8.47427e-05
7.68692e-05
7.10652e-05
6.66973e-05
6.28465e-05
5.90725e-05
5.55756e-05
5.27807e-05
5.07533e-05
4.90004e-05
4.67594e-05
4.34956e-05
3.91194e-05
3.39479e-05
2.8458e-05
2.31337e-05
1.82891e-05
1.41188e-05
1.06867e-05
8.03662e-06
6.05709e-06
4.5813e-06
3.43508e-06
2.495e-06
1.80941e-06
1.20323e-06
0.00360531
0.00501857
0.00622121
0.00717863
0.00849003
0.00985761
0.0108616
0.011518
0.01193
0.0120923
0.0121174
0.0119628
0.0115198
0.0108633
0.00995671
0.00875027
0.00750688
0.00614822
0.00491197
0.00401469
0.00319043
0.00257439
0.00208535
0.00168742
0.00148241
0.00128305
0.00118981
0.00111502
0.0010793
0.00106002
0.00104937
0.00103121
0.000999764
0.000947947
0.000893421
0.000835529
0.000785653
0.000749335
0.00072386
0.000691717
0.000675498
0.000666348
0.000674653
0.000745915
0.000936413
0.00135377
0.00218155
0.00384055
0.0068623
0.0104796
0.0129583
0.0144237
0.0149194
0.0148171
0.0142763
0.0122095
0.00874552
0.00698429
0.00646401
0.00642616
0.00644035
0.00640873
0.00638256
0.00729279
0.0149936
0.0206463
0.0199905
0.0161913
0.00905542
0.0040625
0.00196113
0.00117063
0.000936454
0.000913687
0.00113487
0.00192962
0.00384256
0.00580293
0.00635536
0.00636619
0.00569336
0.00421977
0.00316709
0.00272402
0.00227093
0.00196548
0.00180154
0.0015963
0.00148021
0.00141504
0.00133431
0.00129913
0.00126421
0.00123519
0.00114943
0.00104342
0.000920631
0.00079006
0.000680765
0.000633137
0.000598361
0.00056723
0.000532204
0.000510571
0.00049588
0.000490349
0.000488802
0.000488657
0.0004888
0.000489516
0.000491276
0.000495093
0.00050074
0.000507303
0.000515945
0.000526227
0.000538967
0.000553908
0.000567628
0.000579562
0.000588568
0.000593789
0.000595936
0.000595892
0.000593937
0.000588457
0.000575962
0.000552744
0.000518818
0.000482883
0.000448363
0.000384396
0.000271812
0.000172907
0.000125068
0.000114286
0.000123037
0.000177142
0.00022407
0.000232473
0.000223722
0.000182227
0.000145434
0.000130424
0.000127599
0.000129259
0.000137623
0.000143265
0.000143675
0.000141765
0.00013303
0.000119434
0.000109498
0.000101029
9.23668e-05
8.36712e-05
7.60931e-05
7.03916e-05
6.62779e-05
6.28499e-05
5.93791e-05
5.57614e-05
5.24017e-05
4.97484e-05
4.7859e-05
4.62341e-05
4.41522e-05
4.1158e-05
3.71968e-05
3.25549e-05
2.763e-05
2.28205e-05
1.83997e-05
1.45454e-05
1.13342e-05
8.72074e-06
6.66164e-06
4.90271e-06
3.61139e-06
2.35663e-06
0.003969
0.00544332
0.00650755
0.00748281
0.00867052
0.00962089
0.0101841
0.0106675
0.0110336
0.011108
0.0108871
0.0101959
0.00883936
0.00740988
0.0059431
0.00481379
0.00377928
0.00295465
0.00240618
0.00196571
0.00167698
0.00153494
0.00145026
0.00141729
0.00141289
0.00144453
0.00156932
0.0017214
0.00187557
0.00198741
0.00204249
0.00205392
0.00193275
0.00179345
0.00157672
0.00135335
0.00113749
0.000944657
0.000781398
0.000677906
0.000619362
0.000560687
0.000498523
0.000425173
0.000384024
0.000406504
0.000535056
0.000888877
0.00175188
0.00392478
0.00819376
0.0113471
0.0134259
0.0142838
0.01445
0.0141215
0.0118207
0.00803276
0.00632768
0.00587759
0.00589238
0.00597744
0.00623685
0.00949429
0.01863
0.0198798
0.0154842
0.00894366
0.00429333
0.00206575
0.00119104
0.000900802
0.000843133
0.000952773
0.00148606
0.00279972
0.00502137
0.00649051
0.00678485
0.00664782
0.00552203
0.00384332
0.00315869
0.00276684
0.0023094
0.00198575
0.00181993
0.00160933
0.00152186
0.00143337
0.0012804
0.00121506
0.00109322
0.00103423
0.000926883
0.000871892
0.000794427
0.000727351
0.000665812
0.000615494
0.000578311
0.000546102
0.000516908
0.00049467
0.000478869
0.000469906
0.00046533
0.000464101
0.000464139
0.000464422
0.000464867
0.000466846
0.000471005
0.000476277
0.000481923
0.000486834
0.000491237
0.000495908
0.000500832
0.000506371
0.000512146
0.000516694
0.000519679
0.000521049
0.000521436
0.000520252
0.000516215
0.000516761
0.000513162
0.000484522
0.000453287
0.000427927
0.000385559
0.000292157
0.000182317
0.000117323
9.64277e-05
9.79971e-05
0.000129435
0.000189365
0.00020919
0.000207755
0.000184075
0.00014522
0.000126433
0.000120948
0.000121094
0.00012523
0.000130867
0.000131883
0.000130705
0.00012479
0.000112333
0.000103121
9.59957e-05
8.89204e-05
8.13667e-05
7.42274e-05
6.86139e-05
6.47084e-05
6.16951e-05
5.86445e-05
5.52542e-05
5.18276e-05
4.87885e-05
4.64104e-05
4.47062e-05
4.32224e-05
4.1323e-05
3.86416e-05
3.51533e-05
3.10707e-05
2.67088e-05
2.2337e-05
1.82556e-05
1.45378e-05
1.14478e-05
8.65026e-06
6.59584e-06
4.47501e-06
0.00410772
0.00564118
0.00656808
0.00749355
0.00854558
0.00902506
0.00924192
0.00933792
0.00917143
0.00871485
0.00788386
0.00651221
0.00526268
0.00414201
0.0031947
0.00266427
0.00214074
0.00186658
0.00172227
0.00165075
0.00162831
0.00164969
0.00182556
0.0021333
0.00262956
0.00304806
0.00344205
0.00367895
0.00385491
0.00394175
0.0039826
0.00399607
0.003949
0.00385021
0.00364151
0.00328562
0.00278421
0.00221051
0.00157514
0.00114902
0.000834003
0.000616281
0.000512443
0.000413499
0.000323447
0.000271001
0.000251054
0.000298987
0.000508344
0.00118772
0.00358394
0.00779392
0.0110995
0.0134804
0.0145107
0.014491
0.0133863
0.00939575
0.00662712
0.0056573
0.00550866
0.00556023
0.00639874
0.0134006
0.0190166
0.0158658
0.00919378
0.00470905
0.0023074
0.00128118
0.000908332
0.000810634
0.000820748
0.00102014
0.00164895
0.00303855
0.00551473
0.00724907
0.00757625
0.00730448
0.00557939
0.00428275
0.00387804
0.00371246
0.00347954
0.00318449
0.00302482
0.00286988
0.00278315
0.00264852
0.00219433
0.00196105
0.00147024
0.0012676
0.00100742
0.000891539
0.000789209
0.000724342
0.00067041
0.000625397
0.000584272
0.000550457
0.000522893
0.00049959
0.000480103
0.000467258
0.000457801
0.000452448
0.000450488
0.000450187
0.000451502
0.000452575
0.000455703
0.00046204
0.000469082
0.000475694
0.000482358
0.000487627
0.000491541
0.000494699
0.000497611
0.000499705
0.000500753
0.000500836
0.000500312
0.000497626
0.000486005
0.000456594
0.00044648
0.000445889
0.000429889
0.000410559
0.000394168
0.000360261
0.000283883
0.000180693
0.000111017
8.48598e-05
8.39289e-05
0.000102769
0.000161604
0.000188912
0.00019041
0.000177295
0.000141965
0.000121808
0.000114289
0.000113389
0.00011475
0.000118998
0.000120409
0.000119818
0.000116113
0.000105768
9.71707e-05
9.09367e-05
8.4931e-05
7.84165e-05
7.19627e-05
6.65309e-05
6.26481e-05
5.9922e-05
5.74268e-05
5.4522e-05
5.12686e-05
4.81385e-05
4.54159e-05
4.32311e-05
4.16364e-05
4.03097e-05
3.87081e-05
3.64134e-05
3.33789e-05
2.96607e-05
2.5631e-05
2.13705e-05
1.74964e-05
1.36671e-05
1.07603e-05
7.62738e-06
0.00414863
0.00575506
0.00653205
0.00740155
0.00799468
0.00814322
0.00816368
0.00770013
0.00703496
0.00625645
0.00515413
0.00401923
0.00321862
0.00254878
0.0021423
0.00194777
0.00182135
0.00177689
0.00176806
0.00186667
0.00213942
0.00269811
0.00329554
0.00374217
0.00396809
0.00412918
0.00420658
0.00427739
0.00432567
0.00436512
0.00440489
0.00445094
0.00448337
0.0044938
0.00446572
0.00443016
0.00434478
0.00408457
0.00359195
0.0026684
0.00181536
0.00114375
0.000712042
0.000487757
0.000339538
0.000255783
0.000207402
0.000187331
0.000217215
0.000402257
0.00122642
0.00488084
0.00896168
0.0121931
0.01434
0.0145709
0.0137882
0.0100812
0.00672608
0.00550717
0.00526982
0.00542708
0.00755915
0.0163532
0.0175917
0.0102608
0.00536464
0.00269654
0.00146073
0.000964753
0.0008006
0.000768444
0.000819417
0.00109039
0.0018125
0.0034259
0.00643087
0.00843306
0.00875727
0.00792676
0.00633683
0.00580606
0.0062252
0.00703358
0.00760465
0.00805756
0.00856292
0.00895542
0.00908037
0.00783943
0.00694024
0.00578994
0.00390794
0.00298516
0.0019296
0.00139202
0.00102706
0.000828574
0.000716382
0.000648488
0.000597183
0.000557198
0.000527158
0.000504064
0.000484182
0.000468611
0.000456174
0.000447774
0.00044412
0.000443147
0.000442507
0.000442886
0.00044476
0.000450119
0.000458775
0.000469158
0.000478942
0.000486498
0.000491535
0.000495121
0.000497792
0.000499492
0.000500069
0.000500014
0.000499287
0.000496575
0.000487091
0.00045311
0.00040513
0.000372828
0.000351469
0.000344536
0.000343538
0.000340509
0.000323817
0.000264666
0.000168015
0.000101784
7.68869e-05
7.57544e-05
9.22816e-05
0.000148853
0.000177003
0.000178992
0.000168287
0.000136091
0.000116269
0.000108022
0.000106352
0.000106837
0.000109738
0.000111522
0.000111318
0.0001087
0.000100028
9.19409e-05
8.62442e-05
8.09676e-05
7.52602e-05
6.94675e-05
6.43247e-05
6.04181e-05
5.77892e-05
5.57618e-05
5.34918e-05
5.06903e-05
4.76197e-05
4.46931e-05
4.21634e-05
4.01401e-05
3.87523e-05
3.76941e-05
3.6448e-05
3.43679e-05
3.15313e-05
2.77487e-05
2.38374e-05
1.93851e-05
1.57964e-05
1.16993e-05
0.00414353
0.00577781
0.00641982
0.00712067
0.00738996
0.00740893
0.00695255
0.00617788
0.00537899
0.00450425
0.00349435
0.00274693
0.00235398
0.00205755
0.00193581
0.00188507
0.00186685
0.00195596
0.00224975
0.00292287
0.00354023
0.00397469
0.00417103
0.00424483
0.00423841
0.00413355
0.00405053
0.00392009
0.00386647
0.00384948
0.0038476
0.00387792
0.00394352
0.00407456
0.00423724
0.00442719
0.00455649
0.00462516
0.00443608
0.00412673
0.00342676
0.00251599
0.00142856
0.000812142
0.000463771
0.000290885
0.000205265
0.000169717
0.000157845
0.000193462
0.000432259
0.00196982
0.00691039
0.01053