/*--------------------------------*- C++ -*----------------------------------*\
  =========                 |
  \\      /  F ield         | OpenFOAM: The Open Source CFD Toolbox
   \\    /   O peration     | Website:  https://openfoam.org
    \\  /    A nd           | Version:  7
     \\/     M anipulation  |
\*---------------------------------------------------------------------------*/
FoamFile
{
    version     2.0;
    format      ascii;
    class       volScalarField;
    location    "0.087";
    object      nut;
}
// * * * * * * * * * * * * * * * * * * * * * * * * * * * * * * * * * * * * * //

dimensions      [0 2 -1 0 0 0 0];

internalField   nonuniform List<scalar> 
12225
(
0
0
0
0
0
0
0
0
0
0
0
0
0
0
0
1.16019e-09
0
0
0
0
0
0
0
0
0
0
0
0
0
0
0
0
0
8.86961e-10
0
0
0
6.82913e-10
5.14291e-11
0
0
0
0
0
0
0
0
0
0
0
0
5.21903e-10
0
0
4.43914e-08
1.57939e-08
8.11193e-09
3.18339e-09
1.36294e-09
0
0
0
0
0
0
0
0
0
0
0
0
0
3.14547e-07
3.88208e-07
3.43419e-07
1.54333e-08
0
0
0
0
0
0
0
7.1047e-12
0
0
0
0
0
0
1.76813e-07
4.18909e-07
5.64708e-07
0
0
0
0
2.02098e-08
1.94012e-08
8.6742e-09
1.4694e-09
9.3505e-10
1.81273e-09
1.09487e-09
1.4951e-09
4.91755e-10
0
0
0
5.04907e-07
5.62986e-07
1.24e-07
0
0
0
1.17372e-08
1.18446e-08
4.2611e-09
0
0
1.1989e-08
2.38052e-08
2.14497e-08
7.66202e-09
1.26611e-10
0
1.43292e-09
8.10543e-07
4.55336e-07
2.1129e-07
9.28314e-08
0
0
0
1.20932e-08
7.8308e-09
0
0
0
2.38513e-09
3.93069e-09
0
0
1.28385e-09
5.34846e-07
7.84603e-07
3.72568e-07
1.9518e-07
8.77561e-08
0
0
1.40536e-08
5.10621e-08
4.02541e-08
2.44639e-08
6.69783e-09
4.55978e-11
1.55216e-10
4.2765e-10
0
2.03827e-10
3.66114e-09
3.63527e-08
5.25437e-07
3.03172e-07
1.63356e-07
8.88017e-08
4.80503e-08
8.04599e-08
1.4891e-07
1.60339e-07
1.08601e-07
8.13418e-08
5.21176e-08
1.58013e-08
9.61007e-10
0
0
0
0
0
0
9.0041e-08
1.99957e-07
2.90319e-07
3.54508e-07
4.26147e-07
5.2929e-07
5.81689e-07
4.98727e-07
2.56379e-07
3.35125e-08
0
0
0
0
0
0
0
0
4.76709e-08
3.55531e-07
3.86193e-07
3.32084e-07
2.1149e-07
1.11663e-07
6.64713e-08
0
0
0
0
0
0
0
0
0
0
0
5.9958e-07
7.38652e-07
8.38903e-07
7.33275e-07
6.30066e-08
0
0
0
0
0
0
0
0
0
0
0
0
0
9.1028e-07
7.46867e-07
4.2678e-07
1.98961e-08
0
0
0
0
0
0
0
0
0
0
0
0
0
8.34566e-07
1.24958e-06
1.01644e-06
0
0
0
0
0
0
0
0
0
0
0
0
0
0
0
2.41514e-07
8.1181e-07
9.27431e-08
0
0
0
0
0
0
0
0
0
0
0
0
0
0
6.58119e-07
8.7944e-07
6.67203e-07
3.39518e-07
0
0
0
0
0
0
0
1.46709e-07
4.29562e-08
0
0
0
0
0
0
1.043e-07
7.32776e-07
6.86508e-07
9.7628e-07
5.2703e-07
1.03125e-07
0
0
0
6.6846e-08
1.82594e-07
0
0
0
0
0
0
0
0
0
0
0
5.17835e-08
1.00427e-08
0
0
0
0
0
0
0
0
0
0
0
5.46411e-08
1.41033e-07
1.35031e-07
0
0
0
0
0
0
2.439e-08
2.37387e-08
3.77913e-09
0
0
0
0
0
0
4.26287e-07
4.51943e-07
1.28727e-07
0
0
0
0
0
5.47174e-08
2.70504e-08
0
0
0
0
0
0
0
0
2.46992e-07
1.38022e-08
0
0
0
0
0
9.66758e-09
3.9452e-09
0
0
0
0
0
0
0
4.09587e-08
4.88082e-08
7.08446e-08
0
0
0
0
0
2.15206e-08
1.60447e-08
0
0
0
0
0
0
0
0
0
0
1.56394e-07
0
0
0
0
1.63967e-08
8.30567e-08
9.54076e-08
8.51813e-08
6.35778e-08
4.39871e-08
3.09352e-08
1.56788e-08
7.04765e-10
0
1.26279e-08
3.15302e-08
3.9696e-08
0
0
0
0
0
0
0
1.56471e-08
5.98481e-08
8.53223e-08
9.93664e-08
1.04002e-07
9.83154e-08
9.70753e-08
1.04337e-07
1.10315e-07
1.09072e-07
9.6504e-08
0
0
0
0
0
0
0
0
0
0
0
3.73526e-08
8.94681e-08
1.12789e-07
1.25364e-07
1.28628e-07
1.25531e-07
1.18149e-07
0
0
0
0
0
0
0
0
0
9.63665e-10
0
0
0
0
0
0
0
0
4.72045e-09
0
0
0
0
0
0
0
0
0
0
0
0
0
0
0
0
0
7.77944e-09
0
0
0
0
0
0
0
0
0
0
0
0
0
0
0
0
0
6.73428e-08
0
0
0
0
0
0
0
0
0
0
0
0
0
0
0
0
0
8.3844e-07
2.99002e-06
0
0
0
0
0
0
0
0
0
0
0
0
0
0
1.51796e-07
4.30083e-07
8.53848e-07
1.45991e-06
2.31936e-06
3.4694e-06
4.45058e-06
4.05085e-06
2.42423e-06
8.87465e-07
0
0
0
0
0
0
0
0
0
0
0
0
0
0
0
0
2.68045e-06
0
0
0
0
0
0
0
0
0
0
5.11186e-07
1.31034e-06
3.64488e-06
8.40442e-06
1.39189e-05
1.61241e-05
1.23584e-05
3.44071e-06
0
0
0
0
8.30034e-07
2.42736e-07
0
0
0
5.10358e-06
1.76712e-05
4.26948e-05
6.0212e-05
5.31733e-05
2.38077e-05
4.16492e-06
5.63649e-07
9.72817e-08
4.57777e-08
4.83789e-08
4.6818e-08
3.91024e-08
2.97362e-08
2.0982e-08
1.35052e-08
6.99988e-09
1.35564e-09
0
0
0
0
0
0
0
0
0
0
0
0
0
0
0
0
0
0
0
0
0
0
0
0
0
0
0
0
0
0
0
0
0
0
0
0
0
0
0
0
0
0
0
0
0
0
0
0
0
0
0
0
0
0
0
0
0
0
0
0
0
0
0
0
0
0
0
0
0
0
0
0
0
0
0
0
0
0
0
2.58518e-12
3.1346e-12
6.38749e-12
2.36968e-12
6.76697e-12
0
9.50841e-12
0
3.19519e-11
2.99113e-11
1.29131e-10
1.91643e-09
0
2.9532e-06
2.7632e-06
1.70946e-06
2.31573e-07
0
0
0
0
0
0
3.03845e-07
6.99154e-07
1.19875e-06
1.77644e-06
2.33877e-06
2.9051e-06
3.59572e-06
4.10746e-06
3.9181e-06
3.05164e-06
2.02232e-06
1.1984e-06
6.55466e-07
3.32822e-07
1.18435e-07
0
0
0
0
0
0
0
0
0
0
0
0
0
0
0
0
0
0
0
0
0
0
0
0
0
0
0
0
9.95233e-08
2.73412e-07
3.73304e-07
8.99074e-07
1.69401e-06
2.37267e-06
1.85038e-06
0
0
0
0
0
1.89997e-06
1.93933e-06
7.1044e-07
0
1.65373e-06
4.22037e-06
5.20785e-06
8.19739e-06
8.55979e-06
6.3883e-06
3.90331e-06
1.45529e-06
4.43757e-07
1.24586e-07
7.22829e-08
7.96709e-08
8.00634e-08
7.31682e-08
6.05122e-08
4.63054e-08
3.17421e-08
1.7837e-08
4.99063e-09
0
0
0
0
0
0
0
0
0
0
0
0
0
0
0
0
0
0
0
0
0
0
0
0
0
0
0
0
0
0
0
0
0
0
0
0
0
0
0
0
0
0
0
0
0
0
0
0
0
0
0
0
0
0
0
0
0
0
0
0
0
0
0
0
0
0
0
0
0
0
0
0
0
0
0
0
0
6.73596e-12
2.77843e-11
4.83405e-11
4.72206e-11
6.05278e-11
4.17633e-11
6.12268e-11
2.49581e-11
6.55527e-11
1.95087e-11
8.84975e-11
8.64529e-11
1.01703e-10
9.03052e-10
0
6.82996e-07
2.07918e-06
2.75278e-06
2.48991e-06
1.84283e-06
9.25398e-07
2.34982e-08
0
0
1.66085e-06
3.83904e-06
5.13965e-06
4.78988e-06
3.15962e-06
1.83493e-06
1.20971e-06
1.00176e-06
8.83119e-07
7.01679e-07
4.56511e-07
1.88889e-07
0
0
0
0
0
0
0
0
0
0
0
0
0
0
0
0
0
0
0
0
0
0
0
0
0
0
0
0
0
0
0
0
0
0
0
0
1.73026e-07
1.73678e-07
0
0
0
0
0
2.88069e-07
2.46595e-06
3.06201e-06
2.18533e-06
7.40615e-07
0
0
0
2.53088e-07
8.37747e-07
7.41518e-07
6.65597e-07
4.93439e-07
2.93069e-07
1.81014e-07
2.53594e-07
3.90931e-07
4.49766e-07
4.18656e-07
3.39711e-07
2.53242e-07
1.73961e-07
1.04413e-07
4.30299e-08
0
0
0
0
0
0
0
0
0
0
0
0
0
0
0
0
0
0
0
0
0
0
0
0
0
0
0
0
0
0
0
0
0
0
0
0
0
0
0
0
0
0
0
0
0
0
0
2.17481e-09
4.7681e-09
5.71946e-09
5.61405e-09
4.78812e-09
3.74407e-09
2.74899e-09
1.73296e-09
1.76667e-10
0
0
0
0
0
0
0
0
0
0
0
0
0
0
0
0
0
0
5.92904e-11
1.25346e-10
1.61553e-10
1.92561e-10
1.96572e-10
2.13046e-10
1.91451e-10
2.08186e-10
1.63571e-10
1.92163e-10
1.15721e-10
1.71879e-10
9.41978e-11
1.36085e-10
2.37854e-10
0
8.98351e-10
0
3.50669e-08
7.52809e-07
1.86869e-06
2.25799e-06
1.69481e-06
1.11863e-07
0
4.73367e-07
3.72554e-06
2.47837e-06
1.66568e-06
1.50489e-06
1.28346e-06
8.44241e-07
4.39004e-07
1.50459e-07
0
0
0
0
0
0
0
0
0
0
0
0
0
0
0
0
5.45705e-08
1.31214e-07
2.04034e-07
2.71592e-07
3.30105e-07
3.7713e-07
5.00234e-07
5.7864e-07
5.22701e-07
6.2961e-07
6.91053e-07
5.16033e-07
2.00286e-07
0
0
0
0
0
0
0
0
0
0
0
0
0
0
0
0
0
1.8276e-07
1.35746e-07
1.64743e-06
3.54598e-06
3.07565e-06
1.86597e-06
8.79024e-07
3.23349e-07
0
0
1.71328e-07
2.34169e-07
1.19267e-07
1.24396e-07
1.70944e-07
1.44528e-07
2.78243e-07
8.0097e-07
1.8595e-06
2.31703e-06
1.80505e-06
1.29221e-06
9.81924e-07
7.74477e-07
5.93082e-07
4.12294e-07
1.98429e-07
0
0
0
0
0
0
0
0
0
0
0
0
0
0
0
0
0
0
0
0
0
0
0
0
0
0
0
0
0
0
0
0
0
0
0
0
0
0
0
0
0
0
0
0
0
0
0
0
0
0
1.35133e-08
1.8274e-08
2.05611e-08
2.20742e-08
2.07479e-08
1.44218e-08
4.80507e-09
0
0
0
0
0
0
0
0
0
0
2.36687e-10
1.08022e-09
1.63544e-09
1.92759e-09
1.99474e-09
1.89876e-09
1.68791e-09
1.43213e-09
1.16335e-09
9.46073e-10
7.54043e-10
6.39947e-10
5.19234e-10
4.71936e-10
3.75901e-10
3.34276e-10
2.3737e-10
1.4226e-10
1.54874e-10
0
3.5708e-10
0
1.33821e-09
0
0
1.21443e-07
8.19362e-07
1.33427e-06
0
2.71364e-06
5.43201e-06
5.68192e-06
4.68648e-06
3.19115e-06
2.03941e-06
1.23528e-06
7.04833e-07
4.99951e-07
4.05161e-07
2.20143e-07
0
0
0
0
0
0
0
0
0
0
0
0
0
0
0
0
6.07102e-08
1.75036e-07
2.936e-07
4.10715e-07
5.15517e-07
6.19068e-07
7.53053e-07
8.54043e-07
9.09643e-07
1.08141e-06
1.2303e-06
1.21778e-06
1.14954e-06
1.14029e-06
1.14327e-06
9.49668e-07
6.63994e-07
4.8998e-07
2.54741e-07
0
0
0
0
0
0
0
0
2.84203e-08
2.11513e-06
4.63781e-06
6.22108e-06
4.93621e-06
1.64857e-06
9.49294e-07
1.00843e-06
9.85062e-07
8.20858e-07
4.36165e-07
0
0
0
0
0
6.98321e-08
2.3333e-07
3.56122e-07
5.52704e-07
1.34093e-06
2.20436e-06
1.84448e-06
1.39753e-06
1.13791e-06
9.61941e-07
8.28437e-07
6.95247e-07
5.01719e-07
2.29195e-07
0
0
0
0
0
0
1.85337e-08
2.0378e-08
1.08725e-08
0
0
0
0
0
0
0
0
0
0
0
0
0
0
0
0
0
0
0
0
0
0
0
0
0
0
0
0
0
0
0
0
0
0
0
0
0
0
0
0
0
0
0
0
0
0
0
0
8.60129e-09
2.99683e-08
4.01058e-08
3.2997e-08
1.8653e-08
5.65531e-09
0
0
0
0
0
0
0
0
0
0
0
0
0
0
1.13112e-10
5.2218e-10
7.06754e-10
5.36496e-10
6.06097e-10
1.44564e-10
4.76629e-10
0
5.26514e-10
0
1.04767e-09
0
2.41961e-09
0
0
0
0
6.51509e-06
6.86438e-06
5.70697e-06
4.97136e-06
4.26239e-06
3.72045e-06
3.27261e-06
2.47732e-06
1.4936e-06
7.28428e-07
3.26353e-07
7.22278e-08
0
0
0
0
0
0
0
0
0
0
0
0
0
0
0
0
1.94686e-08
1.50999e-07
2.81946e-07
4.06366e-07
5.29413e-07
6.53079e-07
7.77551e-07
9.00235e-07
1.00649e-06
1.09546e-06
1.20901e-06
1.30089e-06
1.31126e-06
1.2901e-06
1.32286e-06
1.39562e-06
1.39419e-06
1.33663e-06
1.31759e-06
1.27741e-06
1.10341e-06
7.69599e-07
2.43178e-07
0
0
0
0
0
2.97004e-06
4.08622e-06
2.70678e-06
1.69582e-06
1.12888e-07
0
0
0
2.14902e-07
3.78201e-07
1.40233e-07
0
0
0
0
2.45831e-08
2.90346e-07
4.99002e-07
3.62346e-07
0
1.34979e-06
2.39174e-06
1.72886e-06
1.14159e-06
7.49633e-07
4.86629e-07
2.71862e-07
8.525e-08
0
0
0
0
0
0
3.31939e-08
5.34218e-08
5.413e-08
4.0146e-08
1.94461e-08
0
0
0
0
0
0
0
0
0
0
0
0
0
0
0
0
0
0
0
0
0
0
0
0
0
0
0
0
0
0
0
0
0
0
0
0
0
0
0
0
0
0
0
0
0
0
0
0
0
0
0
1.75373e-08
2.52343e-08
1.36765e-08
8.30619e-11
0
0
0
0
0
0
0
0
0
0
0
0
0
0
0
0
0
0
0
1.25649e-09
0
2.88492e-09
0
1.51594e-09
0
0
0
0
0
0
1.4901e-06
1.74889e-06
2.00179e-06
2.38423e-06
2.27439e-06
1.99565e-06
1.85983e-06
1.61533e-06
1.15385e-06
6.59523e-07
2.97312e-07
0
0
0
0
0
0
0
0
0
0
0
0
0
0
0
0
0
0
0
0
4.81571e-08
1.54809e-07
2.64084e-07
3.68659e-07
4.63615e-07
5.47067e-07
6.26856e-07
7.14543e-07
8.13087e-07
9.26138e-07
1.07977e-06
1.27237e-06
1.48591e-06
1.64876e-06
1.70098e-06
1.69624e-06
1.64641e-06
1.52087e-06
1.28892e-06
8.48339e-07
1.49414e-07
0
0
0
0
6.74798e-07
3.99731e-07
0
0
0
0
0
0
8.3511e-08
2.82707e-07
4.86893e-08
0
0
0
9.47524e-08
3.48135e-07
5.78145e-07
3.65777e-07
0
0
4.90371e-07
1.04169e-06
6.42187e-07
3.2402e-07
1.29162e-07
2.25423e-08
0
5.09856e-08
2.10785e-07
2.98335e-07
0
0
0
0
0
0
0
0
0
0
0
0
0
0
0
0
0
0
0
0
0
0
0
0
0
0
0
0
0
0
0
0
0
0
0
0
0
0
0
0
0
0
0
0
0
0
0
0
0
0
0
0
0
0
0
0
0
0
0
0
0
2.99652e-09
3.32661e-08
3.17996e-08
2.46526e-08
2.2501e-08
2.12018e-08
1.81034e-08
1.29163e-08
6.11518e-09
0
0
0
0
0
0
0
0
0
0
0
1.78791e-09
7.02483e-10
1.56104e-09
0
0
0
0
0
0
0
0
0
0
0
4.10759e-07
6.20123e-07
8.23151e-07
8.15619e-07
7.12407e-07
6.60056e-07
5.55427e-07
3.33044e-07
5.59392e-08
0
0
0
0
0
0
0
0
0
0
0
0
0
0
0
0
0
0
0
0
0
0
0
0
7.87004e-08
2.48728e-07
3.69483e-07
4.43611e-07
4.77356e-07
4.8344e-07
4.86976e-07
5.15516e-07
6.019e-07
7.69316e-07
1.03766e-06
1.3927e-06
1.68394e-06
1.76151e-06
1.64679e-06
1.33994e-06
7.72751e-07
0
0
0
0
6.14869e-08
3.14224e-07
0
0
0
0
0
0
0
1.11921e-07
2.63114e-07
1.59483e-07
7.94189e-08
2.44764e-07
4.50178e-07
4.56254e-07
6.3054e-07
8.14056e-07
0
0
0
5.46444e-07
5.186e-07
2.55574e-07
8.63941e-08
0
0
1.89313e-10
1.0107e-07
2.87569e-07
3.41143e-07
0
0
0
0
0
0
0
0
0
5.50752e-10
3.18362e-09
1.38149e-09
0
0
0
0
0
0
0
0
0
0
0
0
0
0
0
0
0
0
0
0
0
0
0
0
0
0
0
0
0
0
0
0
0
0
0
0
0
0
0
0
0
1.7311e-08
2.12241e-08
5.27519e-09
0
0
0
0
0
0
1.01646e-08
5.29945e-08
6.39227e-08
5.61236e-08
4.81358e-08
3.94641e-08
2.85403e-08
1.58441e-08
2.35711e-09
0
0
0
0
0
0
0
0
0
0
0
0
0
0
0
0
0
0
0
0
0
0
0
0
0
0
0
0
0
0
0
0
0
0
0
0
0
0
0
0
1.19322e-07
3.16383e-07
3.62473e-07
1.90149e-07
0
0
0
0
0
0
0
0
0
0
0
0
0
0
0
0
3.14556e-07
4.665e-07
5.01844e-07
4.63687e-07
4.11697e-07
3.87152e-07
4.14622e-07
5.17926e-07
7.26959e-07
1.08705e-06
1.4996e-06
1.51518e-06
1.18006e-06
4.72402e-07
0
0
0
0
4.4051e-07
1.13215e-07
0
0
0
0
0
0
0
4.51113e-08
2.15835e-07
4.21891e-07
8.23075e-07
7.20242e-07
4.13391e-07
4.11478e-07
7.03867e-07
8.38876e-07
0
0
1.2326e-07
6.04173e-07
4.15202e-07
1.76183e-07
5.59307e-08
0
0
0
0
0
1.91469e-07
5.42995e-07
3.49375e-07
2.45582e-07
1.73893e-07
1.26208e-07
8.66851e-08
5.6927e-08
3.1272e-08
1.1573e-08
0
0
0
0
0
0
0
0
0
0
0
0
0
0
0
0
0
0
0
0
0
0
0
0
0
0
0
0
0
0
0
0
0
0
0
0
0
0
0
0
0
0
0
0
3.7246e-09
3.76917e-08
3.71766e-08
7.80355e-09
0
0
0
0
0
0
2.91862e-08
6.596e-08
8.20208e-08
7.27353e-08
5.51516e-08
3.70626e-08
1.94518e-08
2.71419e-09
0
0
0
0
0
7.10484e-09
0
0
0
0
0
0
0
0
0
0
0
0
0
0
0
0
0
0
0
0
0
0
0
0
0
0
0
0
0
0
1.02748e-08
6.43974e-07
1.46007e-06
2.42167e-06
3.32286e-06
3.59433e-06
2.90406e-06
1.69707e-06
6.13971e-07
0
0
0
0
0
0
0
0
0
0
0
0
0
0
0
0
0
3.38787e-07
4.35695e-07
4.06578e-07
3.53279e-07
3.15277e-07
3.22036e-07
4.00794e-07
6.03772e-07
1.02564e-06
1.29339e-06
9.70853e-07
1.97235e-07
0
0
0
0
1.76916e-06
4.3466e-07
0
9.063e-08
0
0
0
0
0
0
2.53596e-07
6.92056e-07
5.94897e-07
2.74649e-07
1.86499e-07
2.39656e-07
4.74233e-07
5.28967e-07
0
0
4.99293e-07
6.72134e-07
3.77928e-07
1.62864e-07
1.06286e-07
7.26182e-08
2.01341e-08
0
0
0
2.39636e-07
5.39938e-07
4.0865e-07
3.05092e-07
2.00203e-07
1.33202e-07
7.83193e-08
4.14582e-08
1.27489e-08
0
0
0
0
0
0
0
0
0
0
0
0
0
0
0
0
0
0
0
0
0
0
0
0
0
0
0
0
0
0
0
0
0
0
0
0
0
0
0
0
0
0
0
0
1.45625e-08
2.30737e-08
3.11774e-08
5.61376e-08
4.80272e-08
5.87031e-09
0
0
0
0
0
2.14862e-08
5.28429e-08
7.8871e-08
9.02874e-08
7.69082e-08
5.04088e-08
2.52294e-08
4.21715e-09
0
0
0
0
0
0
1.95392e-08
7.08814e-09
0
0
0
0
0
0
0
0
0
0
0
0
0
0
0
0
0
0
0
0
0
0
0
0
0
0
0
4.48686e-07
9.93528e-07
1.45184e-06
1.86526e-06
2.34752e-06
2.82361e-06
3.03171e-06
2.74492e-06
2.21606e-06
1.6892e-06
1.22705e-06
7.79816e-07
3.87443e-07
1.51953e-07
1.49459e-07
3.51338e-07
6.51649e-07
9.4243e-07
1.14553e-06
1.19456e-06
1.02594e-06
5.5109e-07
0
0
0
0
0
0
1.42243e-07
3.13219e-07
3.10044e-07
2.68916e-07
2.38161e-07
2.38259e-07
3.0428e-07
5.3184e-07
8.62361e-07
4.25677e-07
0
0
0
0
0
1.13502e-06
1.75614e-06
9.92786e-07
5.54125e-07
0
0
0
0
0
3.69811e-08
4.02451e-07
4.49568e-07
1.80261e-07
7.90345e-08
7.59013e-08
1.12149e-07
1.84439e-07
1.13506e-07
0
0
6.2484e-07
6.87778e-07
3.57637e-07
2.17442e-07
2.69702e-07
3.0918e-07
3.04508e-07
2.79169e-07
1.15033e-07
0
1.7266e-07
7.28226e-07
7.61729e-07
6.70627e-07
4.88063e-07
3.46363e-07
2.02709e-07
1.08031e-07
4.68791e-08
1.31013e-08
0
0
0
0
0
0
0
0
0
0
0
0
0
0
0
0
0
0
0
0
0
0
0
0
0
0
0
0
0
4.10865e-09
1.03963e-08
1.34631e-08
2.05646e-08
3.50951e-08
4.0536e-08
2.14145e-08
0
0
0
0
0
0
7.94585e-09
3.88393e-08
5.36785e-08
5.84974e-08
6.189e-08
7.77148e-08
5.71273e-08
9.74743e-10
0
0
0
4.51682e-11
2.83203e-08
5.58749e-08
7.63643e-08
8.86944e-08
8.88124e-08
6.82746e-08
3.59406e-08
7.36046e-09
0
0
0
0
0
0
1.2461e-09
2.762e-08
1.64459e-08
1.71641e-09
0
0
0
0
0
0
0
0
0
0
0
0
0
0
0
0
0
0
0
0
0
0
0
0
3.14891e-07
5.38088e-07
6.66198e-07
8.08717e-07
1.00929e-06
1.24431e-06
1.39963e-06
1.59533e-06
1.97905e-06
2.57391e-06
3.18401e-06
3.35991e-06
2.64513e-06
1.09913e-06
0
0
0
0
0
1.04457e-07
7.21606e-07
1.28748e-06
1.68125e-06
1.76923e-06
1.36001e-06
1.8903e-07
0
0
0
0
1.71608e-09
2.05452e-07
2.06674e-07
1.75198e-07
1.47269e-07
1.27914e-07
1.3543e-07
1.77983e-07
0
0
0
0
0
0
0
1.94478e-06
1.56588e-06
6.37908e-07
2.12363e-07
0
0
0
0
2.46742e-07
3.77963e-07
1.62622e-07
1.97781e-08
9.71235e-09
3.35586e-08
3.41525e-08
0
0
0
0
5.95628e-07
6.80828e-07
3.76625e-07
3.17321e-07
5.1688e-07
6.61216e-07
6.98109e-07
6.30855e-07
8.81195e-08
0
0
0
2.00155e-07
5.57472e-07
6.61477e-07
6.02261e-07
4.41497e-07
2.60215e-07
1.22299e-07
4.49909e-08
1.40379e-08
5.92602e-09
2.63328e-09
2.86587e-10
0
0
0
0
0
0
0
0
0
0
0
0
0
0
0
0
0
0
0
0
0
0
0
8.64574e-09
1.99823e-08
3.77795e-08
5.76252e-08
6.74372e-08
6.89389e-08
7.50839e-08
8.49781e-08
8.24277e-08
7.00312e-08
6.44137e-08
3.92789e-08
0
0
0
6.66638e-09
4.90793e-08
7.75142e-08
8.8466e-08
9.11734e-08
9.29372e-08
1.01717e-07
6.52335e-08
0
0
0
1.98754e-08
4.86733e-08
7.33264e-08
8.92802e-08
9.37476e-08
9.01782e-08
7.7928e-08
5.14738e-08
1.74785e-08
0
0
0
0
0
0
0
5.50356e-09
2.93528e-08
2.18512e-08
4.87271e-09
0
0
0
0
0
0
0
0
0
0
0
0
0
0
0
0
0
0
0
0
0
0
1.70363e-07
2.72549e-07
3.27432e-07
3.95924e-07
4.68633e-07
4.93632e-07
5.18195e-07
6.91838e-07
1.16713e-06
2.05624e-06
3.42719e-06
5.37041e-06
7.52497e-06
7.63039e-06
6.90265e-08
0
0
0
0
0
0
0
0
0
6.49023e-07
1.33289e-06
1.46809e-06
7.17671e-07
0
0
0
0
0
1.19359e-07
1.04974e-07
6.91642e-08
2.54231e-08
0
0
0
0
0
0
0
0
0
3.62321e-07
2.04268e-07
4.54588e-07
4.02573e-07
1.03407e-07
0
0
1.85906e-07
3.52164e-07
2.21435e-07
3.20409e-08
0
0
3.04293e-08
1.10521e-08
0
0
0
0
4.62946e-07
5.96903e-07
3.42987e-07
3.22412e-07
5.66801e-07
6.56757e-07
4.56847e-07
0
0
0
0
0
0
0
0
2.23193e-07
3.81776e-07
3.42974e-07
2.07048e-07
8.10464e-08
1.60492e-08
0
0
1.09363e-09
2.33421e-09
0
0
0
0
0
0
0
0
0
0
0
0
0
0
0
0
0
0
0
0
0
0
2.28118e-08
4.85669e-08
7.63375e-08
1.03232e-07
1.17987e-07
1.18515e-07
1.17763e-07
1.23111e-07
1.20306e-07
1.03397e-07
1.06198e-07
1.35118e-07
1.32339e-07
6.37448e-08
0
0
5.76158e-08
8.81236e-08
1.11341e-07
1.17533e-07
1.19244e-07
1.20048e-07
1.22285e-07
7.64642e-08
2.01056e-08
2.86647e-08
5.75293e-08
8.76627e-08
1.09079e-07
1.18037e-07
1.1471e-07
1.00453e-07
8.27345e-08
6.19e-08
3.26009e-08
0
0
0
0
0
0
0
0
1.06096e-08
2.77534e-08
2.22822e-08
3.81113e-09
0
0
0
0
0
0
0
0
4.52809e-08
0
0
0
0
0
0
0
0
0
0
0
4.49475e-08
7.28927e-08
7.81561e-08
1.12679e-07
1.38991e-07
1.15903e-07
8.62082e-08
1.49466e-07
4.02036e-07
9.16128e-07
1.73749e-06
2.8804e-06
4.29903e-06
5.60682e-06
3.3272e-06
0
0
0
0
0
0
0
0
0
0
0
0
6.51967e-07
9.07999e-07
2.20846e-07
0
0
0
0
4.83373e-08
6.95601e-08
2.50788e-08
0
0
0
0
0
0
0
0
0
1.31268e-07
2.82037e-08
0
2.44424e-07
4.64543e-07
2.46337e-07
1.16335e-07
1.95859e-07
3.39049e-07
2.90245e-07
1.12117e-07
0
0
0
5.0211e-08
4.62589e-08
0
0
0
0
1.70456e-07
4.87991e-07
2.29211e-07
7.62416e-08
1.4157e-07
0
0
0
0
0
0
0
0
0
0
0
0
9.70222e-08
1.91867e-07
1.24882e-07
3.0122e-08
0
0
0
5.67866e-09
9.77426e-09
5.54377e-09
0
0
0
0
0
0
0
0
0
0
0
0
0
0
0
0
0
8.49684e-10
1.41225e-08
3.30629e-08
6.62141e-08
1.07657e-07
1.38867e-07
1.5505e-07
1.55372e-07
1.45651e-07
1.3963e-07
1.46456e-07
1.51686e-07
1.34616e-07
1.1662e-07
1.49019e-07
2.03292e-07
2.06872e-07
1.37672e-07
6.64026e-08
7.38942e-08
1.0037e-07
1.25111e-07
1.39797e-07
1.41436e-07
1.42833e-07
1.42427e-07
1.43894e-07
1.31394e-07
1.20983e-07
1.46574e-07
1.69559e-07
1.80135e-07
1.75049e-07
1.57298e-07
1.306e-07
9.99903e-08
7.3156e-08
4.73815e-08
1.43076e-08
0
0
0
0
0
0
0
0
1.47066e-08
2.4492e-08
1.75826e-08
0
0
0
0
0
0
0
0
3.24783e-08
6.38337e-09
0
0
0
0
0
0
0
0
0
0
0
0
0
0
0
0
0
4.03744e-08
1.79489e-07
3.97453e-07
6.24958e-07
7.05911e-07
4.2139e-07
0
0
0
0
0
0
0
0
0
0
0
0
0
0
0
4.69983e-07
4.37556e-07
0
0
0
0
5.30814e-08
6.68008e-08
1.00378e-08
0
0
0
0
0
0
0
0
0
0
0
0
0
3.5195e-07
3.10132e-07
2.40738e-07
3.11981e-07
3.33901e-07
2.09493e-07
5.35896e-08
0
0
0
7.23224e-08
1.13047e-07
3.19334e-08
0
0
0
0
3.14259e-07
1.81731e-07
0
0
0
0
0
0
0
0
0
0
0
0
0
0
0
0
3.68279e-08
1.08714e-08
0
0
0
0
1.13691e-09
3.59156e-09
5.44759e-10
0
0
0
0
0
0
0
0
0
0
0
0
0
0
0
6.37655e-09
2.47131e-08
5.29394e-08
9.18098e-08
1.38453e-07
1.81049e-07
2.03441e-07
2.03334e-07
1.85954e-07
1.60609e-07
1.4306e-07
1.45388e-07
1.61619e-07
1.6044e-07
1.37517e-07
1.39912e-07
2.02683e-07
2.61961e-07
2.57402e-07
1.89418e-07
1.33115e-07
1.29161e-07
1.36407e-07
1.58162e-07
1.632e-07
1.63388e-07
1.69188e-07
1.76965e-07
2.08783e-07
2.83699e-07
3.39364e-07
3.49502e-07
3.28824e-07
2.89741e-07
2.41761e-07
1.92639e-07
1.46096e-07
1.06184e-07
7.36492e-08
3.81347e-08
0
0
0
0
0
0
0
0
4.17485e-09
1.54539e-08
1.83144e-08
9.07323e-09
0
0
0
0
0
0
0
2.15063e-09
1.08002e-08
0
0
0
0
0
1.88241e-08
5.56343e-08
5.91996e-08
9.83972e-09
0
0
0
0
0
0
0
0
0
0
0
0
0
0
0
0
0
0
0
0
0
0
0
0
0
0
0
0
0
3.04072e-07
3.95967e-07
0
0
0
1.29414e-07
1.24677e-07
6.28812e-08
0
0
0
0
0
0
0
0
0
0
0
0
0
0
2.88254e-07
3.81175e-07
3.32402e-07
3.32289e-07
2.87864e-07
1.69538e-07
3.00859e-08
0
0
0
6.81948e-08
1.51515e-07
1.41958e-07
0
0
0
0
0
1.53704e-07
0
0
0
0
0
0
0
0
0
0
0
0
0
0
0
0
0
0
0
0
0
0
0
0
0
0
0
0
0
0
0
0
0
0
0
0
0
0
9.77721e-09
3.08007e-08
5.71007e-08
8.70125e-08
1.24487e-07
1.70876e-07
2.10141e-07
2.26954e-07
2.23985e-07
2.12133e-07
1.94013e-07
1.71033e-07
1.52399e-07
1.47815e-07
1.60283e-07
1.74118e-07
1.67657e-07
1.58609e-07
1.89553e-07
2.66785e-07
3.1611e-07
2.95712e-07
2.32898e-07
1.8501e-07
1.6899e-07
1.77132e-07
1.92319e-07
1.94063e-07
2.01956e-07
2.24849e-07
2.59039e-07
3.28136e-07
4.04655e-07
4.53361e-07
4.86358e-07
4.68098e-07
3.95844e-07
3.10632e-07
2.3929e-07
1.84976e-07
1.41396e-07
9.55955e-08
2.82699e-08
0
0
0
0
0
0
0
0
7.41982e-09
1.11566e-08
9.13603e-09
0
0
0
0
0
0
0
8.61782e-08
1.65059e-07
1.97004e-07
2.1317e-07
2.5166e-07
3.01013e-07
3.49046e-07
3.84898e-07
3.74562e-07
2.88899e-07
1.04905e-07
0
0
0
0
0
0
4.59144e-08
0
0
0
0
0
0
0
0
0
0
0
0
0
0
0
1.67021e-07
3.14501e-07
2.75867e-07
1.46058e-07
0
0
4.62424e-08
2.5034e-07
3.15244e-07
1.77018e-07
0
0
3.8697e-07
1.74111e-07
4.50928e-08
0
0
0
0
0
0
0
0
0
0
0
0
0
0
4.95553e-07
5.42931e-07
4.03393e-07
3.40983e-07
2.71451e-07
1.61133e-07
3.94688e-08
0
0
0
2.92395e-08
1.24425e-07
1.69165e-07
7.30407e-08
0
0
0
0
0
1.14846e-08
0
0
0
0
0
0
0
0
0
0
0
0
1.08617e-08
0
0
0
0
0
0
0
4.29596e-09
6.57131e-09
0
0
0
0
0
0
0
0
0
0
0
0
0
0
1.7664e-08
5.18523e-08
9.22989e-08
1.36103e-07
1.78471e-07
2.10819e-07
2.29219e-07
2.28835e-07
2.15623e-07
2.00446e-07
1.87477e-07
1.77128e-07
1.67987e-07
1.60575e-07
1.59534e-07
1.69696e-07
1.88648e-07
1.97719e-07
1.93096e-07
2.04818e-07
2.59312e-07
3.30819e-07
3.60276e-07
3.19689e-07
2.63022e-07
2.2099e-07
2.05578e-07
2.23715e-07
2.30911e-07
2.3978e-07
2.70875e-07
3.18552e-07
3.68636e-07
4.19218e-07
4.34509e-07
4.20619e-07
4.43404e-07
4.73496e-07
4.32356e-07
3.5311e-07
2.87473e-07
2.41328e-07
1.94831e-07
1.17118e-07
0
0
0
0
0
0
0
0
1.35733e-09
3.27645e-09
2.10127e-09
0
0
0
0
0
0
0
6.02142e-07
6.25015e-07
4.68434e-07
4.45534e-07
5.20156e-07
5.94353e-07
6.44665e-07
6.67997e-07
6.3493e-07
5.17513e-07
2.93176e-07
0
0
0
0
0
1.43214e-08
2.11836e-07
2.56163e-07
1.18417e-07
0
0
0
0
0
0
0
0
0
0
0
1.19495e-06
1.69966e-06
1.43323e-06
1.03868e-06
6.85068e-07
3.85204e-07
1.49099e-07
4.11263e-08
1.01321e-07
2.01571e-07
2.75008e-07
4.69681e-07
3.93849e-07
2.79032e-07
4.50821e-07
1.58679e-07
2.56031e-08
0
0
0
0
0
0
0
0
0
0
0
0
0
1.45865e-07
7.74523e-07
7.09704e-07
4.44616e-07
3.16862e-07
2.48119e-07
1.51401e-07
5.21042e-08
0
0
0
0
5.97093e-08
1.2211e-07
1.21085e-07
0
0
0
0
0
6.05202e-08
2.95185e-07
2.0148e-07
0
0
0
0
0
0
0
0
0
0
3.61504e-09
1.08794e-08
0
0
0
0
0
2.45431e-08
4.16926e-08
2.96337e-08
1.17687e-08
0
0
0
0
0
0
0
0
0
0
0
0
1.30639e-08
5.43899e-08
1.02289e-07
1.52683e-07
1.94726e-07
2.22047e-07
2.33302e-07
2.26034e-07
2.05661e-07
1.84809e-07
1.70712e-07
1.65303e-07
1.63956e-07
1.6356e-07
1.65469e-07
1.71453e-07
1.84423e-07
2.05012e-07
2.23963e-07
2.3253e-07
2.47486e-07
2.80572e-07
3.42239e-07
3.91623e-07
3.9165e-07
3.40526e-07
2.90125e-07
2.55996e-07
2.61449e-07
2.77303e-07
2.87992e-07
3.2152e-07
3.7953e-07
4.19242e-07
4.43397e-07
4.54936e-07
4.36674e-07
3.88068e-07
3.74091e-07
4.00766e-07
3.86902e-07
3.38581e-07
2.93721e-07
2.52579e-07
1.89091e-07
5.06317e-08
0
0
0
0
0
0
0
0
0
0
0
0
0
0
0
0
0
2.48191e-06
1.03805e-06
4.79597e-07
4.156e-07
5.56144e-07
6.78555e-07
7.62248e-07
7.79922e-07
7.44341e-07
6.43628e-07
4.53832e-07
1.88363e-07
0
0
0
0
0
2.31044e-07
3.86558e-07
3.86864e-07
2.25833e-07
0
0
0
0
0
0
0
0
0
3.20896e-06
3.81806e-06
2.60563e-06
1.66136e-06
1.03554e-06
6.08339e-07
2.94665e-07
1.23761e-07
1.08008e-07
1.7732e-07
2.4072e-07
4.05324e-07
1.06991e-06
1.24451e-06
9.03095e-07
3.61807e-07
1.1805e-07
2.08892e-08
0
0
0
0
0
0
0
0
0
0
0
0
0
0
7.50227e-07
7.25832e-07
4.4706e-07
2.69378e-07
1.91447e-07
1.06397e-07
3.99417e-08
7.40658e-10
0
0
0
0
3.37868e-08
6.12969e-08
3.0564e-08
0
0
0
0
0
4.02835e-07
9.4382e-07
1.31681e-06
1.23416e-06
4.63315e-07
0
0
0
0
0
0
0
0
0
0
0
0
0
4.52088e-08
1.1423e-07
1.00955e-07
6.27856e-08
2.93821e-08
1.50642e-09
0
0
0
0
0
0
0
0
0
0
0
3.66734e-08
8.50215e-08
1.29012e-07
1.61103e-07
1.79319e-07
1.84963e-07
1.90488e-07
1.91685e-07
1.83801e-07
1.69279e-07
1.5512e-07
1.4793e-07
1.49831e-07
1.57258e-07
1.66822e-07
1.79364e-07
1.96095e-07
2.17168e-07
2.40792e-07
2.62222e-07
2.87289e-07
3.20579e-07
3.64418e-07
4.12321e-07
4.35575e-07
4.03705e-07
3.57728e-07
3.13873e-07
3.01551e-07
3.26496e-07
3.42141e-07
3.76726e-07
4.35632e-07
4.71955e-07
4.66912e-07
4.55527e-07
4.46408e-07
4.26829e-07
3.75289e-07
3.41363e-07
3.42874e-07
3.21819e-07
2.8104e-07
2.32056e-07
1.59924e-07
2.54414e-08
0
0
0
0
0
0
0
0
0
0
0
0
0
0
0
0
0
3.3626e-06
1.10969e-06
3.11779e-07
2.64264e-07
4.19647e-07
5.67733e-07
6.69231e-07
7.22719e-07
6.81419e-07
6.01323e-07
4.76413e-07
2.96917e-07
8.17733e-08
0
0
0
0
8.99634e-08
2.76088e-07
3.82678e-07
3.70831e-07
2.40592e-07
0
0
0
0
0
0
0
0
3.56543e-06
2.7578e-06
1.70272e-06
1.00928e-06
5.89013e-07
3.18756e-07
1.53896e-07
1.29514e-07
2.12384e-07
2.77114e-07
3.45118e-07
7.77597e-07
1.9681e-06
1.4973e-06
8.22986e-07
2.62377e-07
9.60354e-08
2.99241e-08
2.53151e-09
0
3.77556e-09
6.05705e-09
6.15021e-09
5.96431e-09
8.41694e-09
4.96356e-09
0
0
0
0
0
0
2.05626e-07
4.8085e-07
3.66302e-07
2.08735e-07
1.19932e-07
4.28892e-08
1.8405e-08
2.02005e-08
2.50299e-08
2.12384e-08
1.64654e-09
0
0
0
0
0
0
0
0
0
3.04489e-07
9.96249e-07
2.01053e-06
2.94041e-06
3.32986e-06
1.88736e-06
0
0
0
0
0
0
0
0
0
0
0
0
1.92447e-07
2.22679e-07
1.65411e-07
1.05108e-07
5.68428e-08
1.56174e-08
0
0
0
0
0
0
0
0
0
0
0
4.04374e-08
7.68386e-08
1.03301e-07
1.22736e-07
1.37347e-07
1.51083e-07
1.661e-07
1.76605e-07
1.74429e-07
1.60682e-07
1.45472e-07
1.37606e-07
1.4181e-07
1.54492e-07
1.69447e-07
1.85867e-07
2.05814e-07
2.27951e-07
2.53674e-07
2.82265e-07
3.15702e-07
3.57319e-07
3.95215e-07
4.33182e-07
4.61328e-07
4.53367e-07
4.13963e-07
3.70852e-07
3.43922e-07
3.68097e-07
3.9536e-07
4.33134e-07
4.90012e-07
5.19984e-07
4.88785e-07
4.44907e-07
4.07801e-07
3.89073e-07
3.81583e-07
3.55094e-07
3.23116e-07
2.86598e-07
2.2718e-07
1.47613e-07
3.20008e-08
0
0
0
0
0
0
0
0
0
0
0
0
0
0
0
0
1.04729e-08
0
2.90868e-06
1.45761e-06
3.01324e-07
2.16502e-07
2.99448e-07
3.72313e-07
4.53817e-07
5.15764e-07
5.27347e-07
4.60629e-07
3.77257e-07
2.72006e-07
1.43909e-07
7.15604e-09
0
0
0
0
7.82845e-08
1.93302e-07
2.68373e-07
2.7304e-07
2.07616e-07
7.91458e-08
0
0
0
0
0
4.46747e-07
1.10854e-06
9.93935e-07
6.36862e-07
3.47873e-07
1.81636e-07
9.89326e-08
1.08929e-07
2.49917e-07
3.86702e-07
4.37331e-07
6.35643e-07
1.69303e-06
2.17497e-06
1.36441e-06
4.89654e-07
1.73206e-07
8.28126e-08
4.24227e-08
2.63051e-08
2.59625e-08
3.03575e-08
3.19983e-08
3.08191e-08
3.23156e-08
3.22952e-08
3.95775e-08
2.41409e-08
0
0
0
0
0
0
9.76427e-08
1.74984e-07
1.17467e-07
2.85558e-08
0
9.79526e-09
4.11424e-08
6.37419e-08
6.9291e-08
4.46194e-08
0
0
0
0
0
0
0
0
0
2.20208e-07
8.25333e-07
2.01038e-06
3.55715e-06
5.53954e-06
6.29838e-06
8.5458e-07
0
0
0
0
0
0
0
0
0
0
1.84943e-07
4.05647e-07
3.53602e-07
2.44154e-07
1.58337e-07
9.35909e-08
3.53982e-08
0
0
0
0
0
0
0
0
0
0
0
3.44626e-08
6.34318e-08
8.82686e-08
1.08757e-07
1.24984e-07
1.39806e-07
1.55722e-07
1.67583e-07
1.65875e-07
1.50767e-07
1.35924e-07
1.31333e-07
1.38933e-07
1.55164e-07
1.73138e-07
1.91383e-07
2.12901e-07
2.37068e-07
2.65418e-07
2.97344e-07
3.35502e-07
3.84145e-07
4.26628e-07
4.592e-07
4.83884e-07
4.90558e-07
4.58262e-07
4.21112e-07
3.86329e-07
4.02367e-07
4.42055e-07
4.85887e-07
5.42274e-07
5.664e-07
5.10536e-07
4.30945e-07
3.57364e-07
2.99399e-07
2.6281e-07
2.4974e-07
2.40373e-07
1.8571e-07
8.70797e-08
0
0
0
0
0
0
0
0
0
0
0
0
0
0
0
0
0
0
2.99808e-08
2.51664e-08
1.31941e-06
1.4505e-06
2.04423e-07
1.6909e-07
1.82521e-07
1.18936e-07
1.68514e-07
2.34053e-07
2.64239e-07
2.52216e-07
1.98603e-07
1.35185e-07
6.63522e-08
0
0
0
0
0
0
2.90995e-08
9.71171e-08
1.53713e-07
1.87084e-07
1.90547e-07
1.74588e-07
1.48777e-07
1.31513e-07
1.40348e-07
2.06719e-07
3.09621e-07
3.07979e-07
1.78849e-07
3.31117e-08
0
0
6.03259e-08
2.54432e-07
4.7113e-07
5.69391e-07
6.61785e-07
1.35246e-06
2.48891e-06
1.62689e-06
9.00313e-07
2.90987e-07
1.44506e-07
8.86724e-08
5.93142e-08
4.90227e-08
5.12268e-08
5.41343e-08
5.4012e-08
5.1341e-08
5.10628e-08
5.2868e-08
5.53242e-08
8.10122e-08
5.95154e-08
0
0
0
0
0
0
1.20961e-07
1.27309e-08
0
0
0
4.89225e-08
8.61857e-08
1.04274e-07
8.76506e-08
3.28094e-08
0
0
0
0
0
0
0
0
0
4.42026e-07
1.35964e-06
2.78449e-06
5.11765e-06
8.25203e-06
4.18147e-06
0
0
0
0
0
0
0
0
0
0
5.49052e-07
6.31095e-07
4.70589e-07
3.2143e-07
2.21487e-07
1.38884e-07
6.11751e-08
0
0
0
0
0
0
0
0
0
0
0
3.07656e-08
5.98854e-08
8.72331e-08
1.10537e-07
1.2744e-07
1.41567e-07
1.54701e-07
1.63841e-07
1.59649e-07
1.42593e-07
1.29061e-07
1.27501e-07
1.36793e-07
1.54305e-07
1.7437e-07
1.94402e-07
2.17187e-07
2.44241e-07
2.76649e-07
3.10929e-07
3.50452e-07
4.03657e-07
4.55793e-07
4.91213e-07
5.11918e-07
5.24203e-07
5.04425e-07
4.69881e-07
4.32886e-07
4.3385e-07
4.81033e-07
5.31111e-07
5.88764e-07
6.11514e-07
5.36597e-07
4.21021e-07
3.1153e-07
2.17935e-07
1.39558e-07
7.43164e-08
2.71799e-08
0
0
0
0
0
0
0
0
0
0
0
0
0
0
0
0
0
0
0
0
3.02976e-09
5.40435e-08
0
1.12856e-06
5.79271e-08
1.63277e-07
4.42239e-08
0
0
0
2.38841e-08
2.18822e-08
0
0
0
0
0
0
0
0
0
0
0
2.18399e-08
6.97261e-08
1.18471e-07
1.67236e-07
2.14988e-07
2.59529e-07
2.8182e-07
2.47977e-07
1.04134e-07
0
0
0
0
0
2.53144e-07
5.41749e-07
7.1141e-07
7.85692e-07
1.21348e-06
2.4443e-06
1.80362e-06
1.16466e-06
4.68323e-07
2.02887e-07
1.24659e-07
8.89276e-08
7.21924e-08
6.95362e-08
7.34047e-08
7.54352e-08
7.30357e-08
6.95562e-08
6.67396e-08
6.83048e-08
6.91172e-08
8.14095e-08
1.52679e-07
1.03329e-07
0
0
0
0
0
5.21154e-08
0
0
0
0
2.83266e-08
8.63112e-08
1.21387e-07
1.22151e-07
7.58818e-08
0
0
0
0
0
0
0
0
0
8.74559e-09
4.61329e-07
1.17054e-06
2.11103e-06
2.6859e-06
1.07827e-06
0
0
0
0
0
0
0
0
0
4.5274e-07
9.59868e-07
7.84723e-07
5.63654e-07
4.13481e-07
2.98192e-07
1.90884e-07
9.48381e-08
1.26223e-08
0
0
0
0
0
0
0
0
0
0
2.87807e-08
6.106e-08
9.22464e-08
1.18466e-07
1.37272e-07
1.49378e-07
1.58987e-07
1.643e-07
1.56411e-07
1.3779e-07
1.26702e-07