/*--------------------------------*- C++ -*----------------------------------*\
  =========                 |
  \\      /  F ield         | OpenFOAM: The Open Source CFD Toolbox
   \\    /   O peration     | Website:  https://openfoam.org
    \\  /    A nd           | Version:  7
     \\/     M anipulation  |
\*---------------------------------------------------------------------------*/
FoamFile
{
    version     2.0;
    format      ascii;
    class       surfaceScalarField;
    location    "0.087";
    object      phi;
}
// * * * * * * * * * * * * * * * * * * * * * * * * * * * * * * * * * * * * * //

dimensions      [0 3 -1 0 0 0 0];

internalField   nonuniform List<scalar> 
24170
(
1.37923e-06
2.16241e-07
1.24186e-06
1.37371e-07
1.11446e-06
1.27404e-07
9.92367e-07
1.22093e-07
8.77488e-07
1.14879e-07
7.73793e-07
1.03695e-07
6.79783e-07
9.40095e-08
5.91811e-07
8.79725e-08
5.09439e-07
8.23718e-08
4.3539e-07
7.40487e-08
3.72059e-07
6.33312e-08
3.19805e-07
5.22534e-08
2.76344e-07
4.34615e-08
2.383e-07
3.8044e-08
2.03259e-07
3.50406e-08
1.68205e-07
3.50541e-08
1.3369e-07
3.4515e-08
2.5124e-08
1.08566e-07
1.67636e-06
2.62981e-07
1.64581e-06
1.67925e-07
1.61187e-06
1.61339e-07
1.57547e-06
1.585e-07
1.53685e-06
1.53496e-07
1.49197e-06
1.48572e-07
1.43944e-06
1.46538e-07
1.38208e-06
1.4534e-07
1.32505e-06
1.39394e-07
1.27206e-06
1.2704e-07
1.22398e-06
1.11413e-07
1.17799e-06
9.82458e-08
1.13114e-06
9.03102e-08
1.08203e-06
8.71524e-08
1.0308e-06
8.62738e-08
9.80549e-07
8.53029e-08
9.30635e-07
8.44293e-08
8.28622e-08
8.72897e-07
1.78427e-06
2.94732e-07
1.7646e-06
1.87594e-07
1.75308e-06
1.72859e-07
1.73975e-06
1.71828e-07
1.72674e-06
1.66513e-07
1.71492e-06
1.60383e-07
1.70504e-06
1.56425e-07
1.69576e-06
1.54616e-07
1.68441e-06
1.50749e-07
1.66951e-06
1.41936e-07
1.65167e-06
1.2925e-07
1.63192e-06
1.18004e-07
1.60979e-06
1.12433e-07
1.58512e-06
1.11822e-07
1.55677e-06
1.14629e-07
1.52548e-06
1.16587e-07
1.49203e-06
1.17878e-07
1.1718e-07
1.45772e-06
1.92751e-06
3.99196e-07
1.88662e-06
2.28489e-07
1.86459e-06
1.94888e-07
1.849e-06
1.87421e-07
1.83807e-06
1.77443e-07
1.83285e-06
1.65601e-07
1.83265e-06
1.56622e-07
1.8346e-06
1.52666e-07
1.83538e-06
1.49974e-07
1.83349e-06
1.43823e-07
1.82931e-06
1.33433e-07
1.82438e-06
1.22939e-07
1.81931e-06
1.17501e-07
1.81371e-06
1.17422e-07
1.80638e-06
1.21956e-07
1.79635e-06
1.26614e-07
1.78376e-06
1.3047e-07
1.31826e-07
1.76912e-06
2.03197e-06
4.43496e-07
2.01816e-06
2.42293e-07
2.00723e-06
2.05819e-07
1.99691e-06
1.9774e-07
1.98739e-06
1.86969e-07
1.97756e-06
1.75432e-07
1.96844e-06
1.65738e-07
1.96264e-06
1.58464e-07
1.96134e-06
1.51276e-07
1.96349e-06
1.4167e-07
1.96679e-06
1.30132e-07
1.96949e-06
1.20243e-07
1.97078e-06
1.16211e-07
1.97008e-06
1.18118e-07
1.96762e-06
1.24414e-07
1.96298e-06
1.31261e-07
1.95668e-06
1.36764e-07
1.39929e-07
1.94858e-06
2.21637e-06
4.35774e-07
2.1903e-06
2.68363e-07
2.18351e-06
2.12602e-07
2.17731e-06
2.03949e-07
2.16351e-06
2.00766e-07
2.14555e-06
1.93387e-07
2.12874e-06
1.8255e-07
2.11651e-06
1.70701e-07
2.10987e-06
1.57915e-07
2.10818e-06
1.43354e-07
2.1099e-06
1.28411e-07
2.11341e-06
1.16736e-07
2.11751e-06
1.12117e-07
2.12088e-06
1.14739e-07
2.12296e-06
1.22337e-07
2.12305e-06
1.3117e-07
2.12116e-06
1.38653e-07
1.43715e-07
2.11738e-06
2.36095e-06
4.17162e-07
2.32611e-06
3.03194e-07
2.31424e-06
2.24478e-07
2.31714e-06
2.01048e-07
2.32003e-06
1.97872e-07
2.32176e-06
1.91664e-07
2.32259e-06
1.81717e-07
2.32135e-06
1.71935e-07
2.31739e-06
1.61883e-07
2.31158e-06
1.49158e-07
2.30569e-06
1.34301e-07
2.30126e-06
1.21173e-07
2.29916e-06
1.14215e-07
2.29902e-06
1.14875e-07
2.29996e-06
1.21397e-07
2.30068e-06
1.30447e-07
2.30036e-06
1.38977e-07
1.4544e-07
2.29863e-06
2.5028e-06
4.40708e-07
2.48966e-06
3.16336e-07
2.48512e-06
2.29013e-07
2.48938e-06
1.9679e-07
2.50018e-06
1.87067e-07
2.5122e-06
1.79649e-07
2.52138e-06
1.72538e-07
2.52516e-06
1.68154e-07
2.52261e-06
1.64431e-07
2.51449e-06
1.57278e-07
2.50278e-06
1.46014e-07
2.48993e-06
1.3402e-07
2.47844e-06
1.2571e-07
2.47002e-06
1.23292e-07
2.46542e-06
1.25998e-07
2.4643e-06
1.31565e-07
2.46589e-06
1.37389e-07
1.42381e-07
2.46895e-06
2.75388e-06
4.88967e-07
2.75159e-06
3.18631e-07
2.73737e-06
2.43232e-07
2.72144e-06
2.12717e-07
2.70982e-06
1.98685e-07
2.69961e-06
1.89861e-07
2.68961e-06
1.82544e-07
2.68272e-06
1.75041e-07
2.68136e-06
1.65795e-07
2.68426e-06
1.54375e-07
2.68786e-06
1.42414e-07
2.68914e-06
1.32739e-07
2.68749e-06
1.27363e-07
2.68435e-06
1.26423e-07
2.68178e-06
1.28568e-07
2.6813e-06
1.32053e-07
2.68294e-06
1.35742e-07
1.39522e-07
2.6858e-06
2.94955e-06
4.34547e-07
2.95386e-06
3.14325e-07
2.94323e-06
2.53866e-07
2.93981e-06
2.16134e-07
2.93556e-06
2.02931e-07
2.9227e-06
2.0272e-07
2.90591e-06
1.99334e-07
2.89443e-06
1.86522e-07
2.89236e-06
1.67862e-07
2.89707e-06
1.49669e-07
2.90327e-06
1.36211e-07
2.90709e-06
1.28926e-07
2.90763e-06
1.26824e-07
2.90609e-06
1.27964e-07
2.90436e-06
1.30296e-07
2.90365e-06
1.32764e-07
2.90417e-06
1.35215e-07
1.38057e-07
2.90564e-06
3.1788e-06
4.89972e-07
3.1664e-06
3.26722e-07
3.17544e-06
2.44825e-07
3.18295e-06
2.08632e-07
3.1839e-06
2.01976e-07
3.17904e-06
2.07578e-07
3.17043e-06
2.07945e-07
3.16019e-06
1.96767e-07
3.15046e-06
1.77586e-07
3.14302e-06
1.57118e-07
3.13869e-06
1.40536e-07
3.1372e-06
1.30413e-07
3.13758e-06
1.26447e-07
3.1384e-06
1.27142e-07
3.13848e-06
1.30222e-07
3.1371e-06
1.34142e-07
3.13407e-06
1.3824e-07
1.42325e-07
3.12981e-06
2.81896e-06
5.00598e-07
2.83293e-06
3.12746e-07
2.83119e-06
2.46567e-07
2.82412e-06
2.15703e-07
2.82314e-06
2.02951e-07
2.82759e-06
2.03133e-07
2.83151e-06
2.04028e-07
2.83039e-06
1.97882e-07
2.82455e-06
1.83429e-07
2.81789e-06
1.63773e-07
2.81448e-06
1.43947e-07
2.81619e-06
1.28699e-07
2.82221e-06
1.20427e-07
2.83027e-06
1.19086e-07
2.83783e-06
1.22662e-07
2.84314e-06
1.28836e-07
2.84571e-06
1.35665e-07
1.41732e-07
2.8463e-06
3.48205e-06
4.47122e-07
3.47415e-06
3.20644e-07
3.44461e-06
2.76101e-07
3.41392e-06
2.46392e-07
3.39146e-06
2.25415e-07
3.38071e-06
2.1388e-07
3.38018e-06
2.0456e-07
3.38547e-06
1.92591e-07
3.3933e-06
1.75607e-07
3.40237e-06
1.54695e-07
3.41223e-06
1.34089e-07
3.42247e-06
1.18461e-07
3.43252e-06
1.10378e-07
3.44208e-06
1.09528e-07
3.4512e-06
1.13539e-07
3.46014e-06
1.19896e-07
3.46987e-06
1.25937e-07
1.31397e-07
3.4802e-06
4.25126e-06
3.6365e-07
4.25805e-06
3.13853e-07
4.23531e-06
2.98841e-07
4.21325e-06
2.68446e-07
4.19337e-06
2.45297e-07
4.18289e-06
2.24359e-07
4.18575e-06
2.01701e-07
4.19867e-06
1.79675e-07
4.21436e-06
1.59911e-07
4.22554e-06
1.43519e-07
4.22817e-06
1.31454e-07
4.22307e-06
1.23568e-07
4.21458e-06
1.18868e-07
4.20809e-06
1.16016e-07
4.20761e-06
1.14017e-07
4.21464e-06
1.12866e-07
4.22872e-06
1.11858e-07
1.12646e-07
4.24747e-06
5.15821e-06
4.50902e-07
5.12196e-06
3.50096e-07
5.10546e-06
3.15343e-07
5.10349e-06
2.70412e-07
5.12307e-06
2.25722e-07
5.15673e-06
1.90699e-07
5.18928e-06
1.69152e-07
5.2095e-06
1.59449e-07
5.21451e-06
1.54906e-07
5.2076e-06
1.50432e-07
5.19494e-06
1.44114e-07
5.18243e-06
1.3607e-07
5.17419e-06
1.2711e-07
5.17226e-06
1.17945e-07
5.17741e-06
1.08869e-07
5.18905e-06
1.01223e-07
5.20627e-06
9.46399e-08
9.16113e-08
5.22731e-06
6.33066e-06
3.42984e-07
6.32666e-06
3.54099e-07
6.31511e-06
3.26894e-07
6.29885e-06
2.86676e-07
6.27008e-06
2.54485e-07
6.23558e-06
2.25203e-07
6.20993e-06
1.948e-07
6.20308e-06
1.66302e-07
6.21491e-06
1.43074e-07
6.23933e-06
1.26018e-07
6.26852e-06
1.14918e-07
6.29586e-06
1.08726e-07
6.31748e-06
1.05497e-07
6.33236e-06
1.0306e-07
6.34221e-06
9.90238e-08
6.35007e-06
9.33629e-08
6.35899e-06
8.57166e-08
7.85323e-08
6.37207e-06
7.67949e-06
4.45793e-07
7.67871e-06
3.54879e-07
7.68655e-06
3.19059e-07
7.70549e-06
2.67734e-07
7.7314e-06
2.28575e-07
7.74808e-06
2.08522e-07
7.75162e-06
1.91261e-07
7.75297e-06
1.64949e-07
7.76422e-06
1.31824e-07
7.78759e-06
1.02648e-07
7.81673e-06
8.57875e-08
7.84347e-06
8.19807e-08
7.8631e-06
8.58658e-08
7.87545e-06
9.07108e-08
7.88247e-06
9.20019e-08
7.88678e-06
8.90598e-08
7.88939e-06
8.31009e-08
7.6927e-08
7.891e-06
9.51582e-06
4.39152e-07
9.4589e-06
4.11801e-07
9.39922e-06
3.78736e-07
9.36611e-06
3.00842e-07
9.37241e-06
2.22275e-07
9.41161e-06
1.6933e-07
9.46179e-06
1.41081e-07
9.50198e-06
1.24756e-07
9.52227e-06
1.11534e-07
9.52427e-06
1.00646e-07
9.51657e-06
9.34822e-08
9.5094e-06
8.91573e-08
9.51014e-06
8.51186e-08
9.52138e-06
7.94802e-08
9.54105e-06
7.23256e-08
9.56479e-06
6.53236e-08
9.58798e-06
5.99112e-08
5.79133e-08
9.60699e-06
1.13613e-05
2.94571e-07
1.14366e-05
3.36489e-07
1.1504e-05
3.11409e-07
1.1549e-05
2.5578e-07
1.15671e-05
2.04209e-07
1.15695e-05
1.66961e-07
1.15705e-05
1.40016e-07
1.15757e-05
1.19565e-07
1.15842e-05
1.03063e-07
1.15956e-05
8.92311e-08
1.16113e-05
7.78088e-08
1.16317e-05
6.86866e-08
1.16555e-05
6.13635e-08
1.16793e-05
5.56805e-08
1.17005e-05
5.11279e-08
1.17182e-05
4.75826e-08
1.17337e-05
4.44297e-08
4.14351e-08
1.17502e-05
8.31925e-06
2.41429e-07
8.40868e-06
2.47058e-07
8.46209e-06
2.57999e-07
8.49682e-06
2.21052e-07
8.52015e-06
1.80885e-07
8.53463e-06
1.52471e-07
8.54235e-06
1.32298e-07
8.54844e-06
1.13478e-07
8.55944e-06
9.20604e-08
8.57968e-06
6.89911e-08
8.60892e-06
4.85737e-08
8.64246e-06
3.51456e-08
8.67389e-06
2.99342e-08
8.69809e-06
3.14809e-08
8.71257e-06
3.66485e-08
8.71801e-06
4.21414e-08
8.71674e-06
4.56978e-08
4.54674e-08
8.71271e-06
7.29169e-06
3.93606e-07
7.27118e-06
2.67564e-07
7.29586e-06
2.33319e-07
7.33159e-06
1.8532e-07
7.37029e-06
1.42192e-07
7.40733e-06
1.15428e-07
7.43924e-06
1.00387e-07
7.46701e-06
8.57107e-08
7.49384e-06
6.52322e-08
7.52248e-06
4.03487e-08
7.55381e-06
1.72394e-08
7.58663e-06
2.33023e-09
7.61801e-06
-1.44878e-09
7.64514e-06
4.35526e-09
7.66586e-06
1.59257e-08
7.68022e-06
2.77837e-08
7.68957e-06
3.63488e-08
3.88763e-08
7.69616e-06
6.34997e-06
3.97046e-07
6.34753e-06
2.70008e-07
6.39429e-06
1.86561e-07
6.43859e-06
1.41013e-07
6.46746e-06
1.13326e-07
6.48965e-06
9.32331e-08
6.51201e-06
7.80327e-08
6.53191e-06
6.58078e-08
6.54477e-06
5.23703e-08
6.55137e-06
3.37512e-08
6.55786e-06
1.07448e-08
6.56932e-06
-9.12194e-09
6.58819e-06
-2.03198e-08
6.6128e-06
-2.02567e-08
6.63961e-06
-1.08887e-08
6.66445e-06
2.95173e-09
6.68428e-06
1.65158e-08
2.45773e-08
6.69858e-06
5.55802e-06
3.98187e-07
5.59938e-06
2.28648e-07
5.64419e-06
1.41759e-07
5.67262e-06
1.1258e-07
5.69319e-06
9.27579e-08
5.71462e-06
7.17997e-08
5.73547e-06
5.71807e-08
5.7516e-06
4.96794e-08
5.76133e-06
4.26421e-08
5.76598e-06
2.91059e-08
5.76817e-06
8.54787e-09
5.77303e-06
-1.39831e-08
5.7819e-06
-2.9191e-08
5.79476e-06
-3.31086e-08
5.81068e-06
-2.6817e-08
5.82878e-06
-1.5144e-08
5.84792e-06
-2.62636e-09
5.18922e-09
5.86731e-06
4.8897e-06
4.7765e-07
4.86392e-06
2.54426e-07
4.87584e-06
1.29841e-07
4.90791e-06
8.05056e-08
4.95239e-06
4.82818e-08
4.99786e-06
2.63236e-08
5.03564e-06
1.94063e-08
5.06353e-06
2.17884e-08
5.08425e-06
2.19219e-08
5.10074e-06
1.26141e-08
5.11334e-06
-4.04596e-09
5.11959e-06
-2.02354e-08
5.12119e-06
-3.07935e-08
5.1214e-06
-3.33136e-08
5.12426e-06
-2.96826e-08
5.13239e-06
-2.32753e-08
5.14704e-06
-1.72778e-08
-1.40982e-08
5.16633e-06
4.28595e-06
4.10908e-07
4.35108e-06
1.89299e-07
4.37641e-06
1.04506e-07
4.387e-06
6.99161e-08
4.39547e-06
3.98151e-08
4.40904e-06
1.27479e-08
4.43164e-06
-3.1854e-09
4.46216e-06
-8.73863e-09
4.49308e-06
-8.99932e-09
4.51621e-06
-1.05133e-08
4.52726e-06
-1.50938e-08
4.52822e-06
-2.11998e-08
4.52364e-06
-2.62047e-08
4.51849e-06
-2.81686e-08
4.51602e-06
-2.72125e-08
4.51733e-06
-2.45843e-08
4.52185e-06
-2.18028e-08
-2.01696e-08
4.52793e-06
3.75833e-06
3.61057e-07
3.7981e-06
1.49525e-07
3.83178e-06
7.08304e-08
3.85797e-06
4.37191e-08
3.88071e-06
1.70843e-08
3.89851e-06
-5.06157e-09
3.91233e-06
-1.70025e-08
3.92588e-06
-2.22848e-08
3.93981e-06
-2.2936e-08
3.95133e-06
-2.203e-08
3.95781e-06
-2.15694e-08
3.95888e-06
-2.22715e-08
3.95666e-06
-2.39893e-08
3.95441e-06
-2.59166e-08
3.95483e-06
-2.76297e-08
3.95927e-06
-2.90278e-08
3.96797e-06
-3.05042e-08
-3.21984e-08
3.98e-06
3.26931e-06
3.4174e-07
3.31558e-06
1.03256e-07
3.33213e-06
5.42725e-08
3.34911e-06
2.67456e-08
3.3741e-06
-7.90704e-09
3.39931e-06
-3.02755e-08
3.41856e-06
-3.62509e-08
3.43182e-06
-3.55434e-08
3.4433e-06
-3.442e-08
3.456e-06
-3.47244e-08
3.47022e-06
-3.5793e-08
3.48458e-06
-3.66327e-08
3.49738e-06
-3.67854e-08
3.50797e-06
-3.65038e-08
3.51681e-06
-3.6477e-08
3.52492e-06
-3.71355e-08
3.53312e-06
-3.87071e-08
-4.06906e-08
3.54162e-06
2.84152e-06
2.01125e-07
2.91784e-06
2.69376e-08
2.94488e-06
2.72363e-08
2.97408e-06
-2.45421e-09
3.00312e-06
-3.6951e-08
3.02526e-06
-5.24096e-08
3.04008e-06
-5.10785e-08
3.04997e-06
-4.54338e-08
3.05739e-06
-4.18327e-08
3.06368e-06
-4.10175e-08
3.06937e-06
-4.14845e-08
3.07473e-06
-4.19902e-08
3.08006e-06
-4.21122e-08
3.08573e-06
-4.21757e-08
3.09187e-06
-4.26149e-08
3.09835e-06
-4.36183e-08
3.10476e-06
-4.51185e-08
-4.65368e-08
3.11061e-06
2.51681e-06
1.10938e-07
2.54807e-06
-4.32316e-09
2.58944e-06
-1.41375e-08
2.6278e-06
-4.08123e-08
2.64093e-06
-5.00843e-08
2.63467e-06
-4.61519e-08
2.62682e-06
-4.32287e-08
2.62692e-06
-4.55278e-08
2.63424e-06
-4.91512e-08
2.64357e-06
-5.03517e-08
2.65057e-06
-4.84795e-08
2.65347e-06
-4.48942e-08
2.6525e-06
-4.11454e-08
2.64858e-06
-3.82518e-08
2.64254e-06
-3.65704e-08
2.6349e-06
-3.59836e-08
2.62596e-06
-3.61751e-08
-3.65947e-08
2.61602e-06
2.10596e-06
2.10164e-06
2.0875e-06
2.04669e-06
1.99661e-06
1.95046e-06
1.90723e-06
1.8617e-06
1.81255e-06
1.7622e-06
1.71372e-06
1.66882e-06
1.62768e-06
1.58943e-06
1.55285e-06
1.51687e-06
1.4807e-06
1.4441e-06
-4.44629e-08
4.44629e-08
-8.6873e-08
4.24101e-08
-1.08246e-07
2.13735e-08
-9.86383e-08
-9.60815e-09
-6.18795e-08
-3.67588e-08
-6.86653e-09
-5.50129e-08
5.83985e-08
-6.5265e-08
1.27119e-07
-6.87204e-08
1.9487e-07
-6.77511e-08
2.57599e-07
-6.27293e-08
3.12608e-07
-5.50089e-08
3.57949e-07
-4.53405e-08
3.90856e-07
-3.29073e-08
4.08814e-07
-1.79577e-08
4.10744e-07
-1.93041e-09
3.98867e-07
1.18777e-08
3.74221e-07
2.46453e-08
3.38065e-07
3.6156e-08
2.93054e-07
4.50114e-08
2.43458e-07
4.95961e-08
1.93812e-07
4.96455e-08
1.48006e-07
4.58061e-08
1.08952e-07
3.90544e-08
7.81157e-08
3.08361e-08
5.5907e-08
2.22087e-08
4.21121e-08
1.37948e-08
3.66017e-08
5.51044e-09
3.87693e-08
-2.16763e-09
4.8092e-08
-9.32262e-09
6.45743e-08
-1.64823e-08
8.76502e-08
-2.30759e-08
1.1682e-07
-2.91703e-08
1.53371e-07
-3.655e-08
1.93613e-07
-4.0242e-08
2.39215e-07
-4.56027e-08
2.85979e-07
-4.67641e-08
3.25177e-07
-3.9198e-08
3.67724e-07
-4.25468e-08
3.78588e-07
-1.08642e-08
3.58753e-07
1.98348e-08
3.33129e-07
2.56249e-08
1.59703e-07
1.73426e-07
-6.11443e-08
2.20847e-07
-1.07795e-07
4.66508e-08
-2.99398e-08
-7.78553e-08
6.87131e-08
-9.86528e-08
1.18171e-07
-4.94584e-08
1.44847e-07
-2.6675e-08
2.3477e-07
-8.99238e-08
3.71116e-07
-1.36346e-07
4.56268e-07
-8.51519e-08
4.54953e-07
1.31474e-09
3.76942e-07
7.80112e-08
2.53447e-07
1.23495e-07
1.07598e-07
1.45849e-07
-5.09085e-08
1.58507e-07
-2.26248e-07
1.7534e-07
-4.1372e-07
1.87472e-07
-5.88485e-07
1.74765e-07
-7.11278e-07
1.22793e-07
-7.48654e-07
3.73762e-08
-6.87485e-07
-6.11696e-08
-5.2076e-07
-1.66724e-07
-2.29529e-07
-2.91232e-07
1.95591e-07
-4.25119e-07
6.53871e-07
-4.58281e-07
8.9636e-07
-2.42489e-07
8.54056e-07
4.2304e-08
7.2046e-07
1.33596e-07
7.50775e-07
-3.03156e-08
9.71138e-07
-2.20362e-07
1.21492e-06
-2.43778e-07
1.3493e-06
-1.34387e-07
1.31463e-06
3.46689e-08
1.00517e-06
3.09467e-07
3.16029e-07
6.89139e-07
-6.24236e-07
9.40265e-07
-1.55779e-06
9.33557e-07
-2.38151e-06
8.23722e-07
-3.0649e-06
6.83388e-07
-3.60921e-06
5.44306e-07
-4.02934e-06
4.2013e-07
-4.34517e-06
3.15834e-07
-4.57645e-06
2.31275e-07
-4.7406e-06
1.64148e-07
-4.8519e-06
1.11307e-07
-4.92133e-06
6.94258e-08
-4.95699e-06
3.56582e-08
-4.9642e-06
7.21662e-09
-4.94846e-06
-1.57422e-08
-4.91271e-06
-3.57485e-08
-4.85888e-06
-5.383e-08
-4.78878e-06
-7.00989e-08
-4.70395e-06
-8.48349e-08
-4.60564e-06
-9.8308e-08
-4.49502e-06
-1.10616e-07
-4.37313e-06
-1.21896e-07
-4.24092e-06
-1.32212e-07
-4.0993e-06
-1.41614e-07
-3.94922e-06
-1.50078e-07
-3.79167e-06
-1.57554e-07
-3.62776e-06
-1.63908e-07
-3.45873e-06
-1.69033e-07
-3.28588e-06
-1.72852e-07
-3.11053e-06
-1.75347e-07
-2.93397e-06
-1.76556e-07
-2.75741e-06
-1.76564e-07
-2.58192e-06
-1.75488e-07
-2.40841e-06
-1.73509e-07
-2.23756e-06
-1.70857e-07
-2.06979e-06
-1.67766e-07
-1.90531e-06
-1.64482e-07
-1.74399e-06
-1.61316e-07
-1.58541e-06
-1.58582e-07
-1.42887e-06
-1.5654e-07
-1.27343e-06
-1.55439e-07
-1.11797e-06
-1.55463e-07
-9.61246e-07
-1.56723e-07
-8.02016e-07
-1.5923e-07
-6.39153e-07
-1.62863e-07
-4.71742e-07
-1.67411e-07
-2.99348e-07
-1.72394e-07
-1.21906e-07
-1.77442e-07
5.93165e-08
-1.81222e-07
2.4284e-07
-1.83523e-07
4.26076e-07
-1.83236e-07
6.05716e-07
-1.7964e-07
7.78047e-07
-1.72331e-07
9.39382e-07
-1.61335e-07
1.08647e-06
-1.47089e-07
1.21675e-06
-1.30275e-07
1.32848e-06
-1.11731e-07
1.42098e-06
-9.2502e-08
1.49453e-06
-7.35459e-08
1.54978e-06
-5.52546e-08
1.58777e-06
-3.79866e-08
1.61037e-06
-2.26017e-08
1.61921e-06
-8.84238e-09
1.61478e-06
4.42878e-09
1.59751e-06
1.72755e-08
1.56794e-06
2.95629e-08
1.52637e-06
4.15718e-08
1.47337e-06
5.30047e-08
1.41063e-06
6.27349e-08
1.34122e-06
6.94072e-08
1.26916e-06
7.20617e-08
1.19864e-06
7.05198e-08
1.13322e-06
6.54224e-08
1.07518e-06
5.804e-08
1.02543e-06
4.97498e-08
9.8377e-07
4.16604e-08
9.49311e-07
3.44593e-08
9.20884e-07
2.84267e-08
8.97332e-07
2.35524e-08
8.77654e-07
1.96777e-08
8.61046e-07
1.66083e-08
8.4687e-07
1.41763e-08
8.34617e-07
1.22528e-08
8.23875e-07
1.07421e-08
8.1431e-07
9.56501e-09
8.05649e-07
8.66082e-09
7.97677e-07
7.97201e-09
7.90204e-07
7.47309e-09
7.83075e-07
7.12895e-09
7.76118e-07
6.95691e-09
7.69198e-07
6.92027e-09
7.62087e-07
7.1113e-09
7.54651e-07
7.43539e-09
7.46521e-07
8.13027e-09
7.37633e-07
8.88818e-09
7.27246e-07
1.03862e-08
7.15563e-07
1.16836e-08
7.00928e-07
1.46344e-08
6.84549e-07
1.63792e-08
6.62033e-07
2.25164e-08
6.38303e-07
2.37297e-08
6.00458e-07
3.78454e-08
5.67131e-07
3.33268e-08
4.97087e-07
7.00439e-08
4.32542e-08
4.53833e-07
7.72275e-08
-3.27646e-08
1.59704e-07
-4.00664e-08
2.50603e-07
-6.95257e-08
3.46101e-07
-1.05106e-07
4.43279e-07
-1.33936e-07
5.3788e-07
-1.49614e-07
6.2487e-07
-1.52255e-07
7.01827e-07
-1.45677e-07
7.66378e-07
-1.32303e-07
8.1508e-07
-1.11431e-07
8.48665e-07
-8.85937e-08
8.6928e-07
-6.5956e-08
8.7715e-07
-4.07765e-08
8.72143e-07
-1.29506e-08
8.55065e-07
1.51469e-08
8.25093e-07
4.18504e-08
7.81884e-07
6.78537e-08
7.23627e-07
9.44133e-08
6.51235e-07
1.17403e-07
5.70011e-07
1.3082e-07
4.87003e-07
1.32653e-07
4.08262e-07
1.24547e-07
3.36509e-07
1.10808e-07
2.69934e-07
9.74114e-08
2.05612e-07
8.65306e-08
1.41869e-07
7.75376e-08
7.87048e-08
6.86745e-08
1.85572e-08
5.798e-08
-3.51994e-08
4.4434e-08
-7.94413e-08
2.77596e-08
-1.1095e-07
8.43287e-09
-1.25641e-07
-1.44792e-08
-1.22435e-07
-3.97567e-08
-9.8852e-08
-6.38246e-08
-5.75716e-08
-8.6883e-08
2.9657e-09
-1.07301e-07
8.37134e-08
-1.19946e-07
1.73425e-07
-1.32258e-07
2.87444e-07
-1.24884e-07
4.16633e-07
-1.09354e-07
5.54816e-07
-1.12558e-07
7.7451e-07
-4.62689e-08
9.932e-07
2.1574e-09
1.08923e-06
-4.938e-08
1.10942e-06
-9.80462e-08
1.06588e-06
-5.51085e-08
9.69325e-07
4.70941e-08
8.78246e-07
6.44039e-08
8.00047e-07
-1.17253e-08
7.08364e-07
-4.46625e-08
6.21379e-07
1.83339e-09
5.54617e-07
6.80767e-08
5.11206e-07
1.21421e-07
4.64795e-07
1.69907e-07
3.95607e-07
2.15037e-07
2.94174e-07
2.5994e-07
1.65554e-07
3.03959e-07
2.87591e-08
3.24267e-07
-7.22269e-08
2.75751e-07
-1.08548e-07
1.59114e-07
-6.97029e-08
-1.46924e-09
3.04617e-08
-1.61334e-07
1.77782e-07
-3.14045e-07
3.79001e-07
-4.92451e-07
6.69552e-07
-7.1567e-07
1.06347e-06
-8.52196e-07
1.43755e-06
-6.16572e-07
1.54747e-06
-6.76179e-08
1.47573e-06
2.05336e-07
1.51363e-06
-6.8212e-08
1.59751e-06
-3.04243e-07
1.42624e-06
-7.25086e-08
8.94166e-07
3.97687e-07
1.05042e-09
9.27785e-07
-1.02765e-06
1.33817e-06
-1.93557e-06
1.59706e-06
-2.63986e-06
1.64455e-06
-3.21831e-06
1.51201e-06
-3.69281e-06
1.29822e-06
-4.0709e-06
1.06148e-06
-4.36345e-06
8.36862e-07
-4.58453e-06
6.41202e-07
-4.74819e-06
4.79501e-07
-4.86689e-06
3.49971e-07
-4.95029e-06
2.47554e-07
-5.00528e-06
1.66288e-07
-5.03638e-06
1.00534e-07
-5.04617e-06
4.54475e-08
-5.03693e-06
-2.02593e-09
-5.00953e-06
-4.3145e-08
-4.96463e-06
-8.06509e-08
-4.90342e-06
-1.15032e-07
-4.82689e-06
-1.46628e-07
-4.73609e-06
-1.7564e-07
-4.63214e-06
-2.0226e-07
-4.51606e-06
-2.26694e-07
-4.38883e-06
-2.49129e-07
-4.25133e-06
-2.69707e-07
-4.10447e-06
-2.88477e-07
-3.94915e-06
-3.05398e-07
-3.78639e-06
-3.20311e-07
-3.61732e-06
-3.3298e-07
-3.44318e-06
-3.43173e-07
-3.26528e-06
-3.50753e-07
-3.08494e-06
-3.55689e-07
-2.90343e-06
-3.5806e-07
-2.72196e-06
-3.5804e-07
-2.54157e-06
-3.55878e-07
-2.36313e-06
-3.51941e-07
-2.18729e-06
-3.46701e-07
-2.01443e-06
-3.4063e-07
-1.84469e-06
-3.34219e-07
-1.67794e-06
-3.28065e-07
-1.51373e-06
-3.22792e-07
-1.35136e-06
-3.18909e-07
-1.1899e-06
-3.16904e-07
-1.02821e-06
-3.1715e-07
-8.65072e-07
-3.1986e-07
-6.99238e-07
-3.25064e-07
-5.29503e-07
-3.32599e-07
-3.54884e-07
-3.4203e-07
-1.74859e-07
-3.52418e-07
1.05689e-08
-3.62871e-07
2.00699e-07
-3.71352e-07
3.94248e-07
-3.77073e-07
5.88839e-07
-3.77827e-07
7.81477e-07
-3.72277e-07
9.68771e-07
-3.59626e-07
1.1473e-06
-3.39865e-07
1.31392e-06
-3.13707e-07
1.46599e-06
-2.82348e-07
1.6016e-06
-2.4734e-07
1.71958e-06
-2.10478e-07
1.81939e-06
-1.73354e-07
1.9013e-06
-1.37168e-07
1.96639e-06
-1.03082e-07
2.01579e-06
-7.19994e-08
2.05127e-06
-4.43208e-08
2.07574e-06
-2.00432e-08
2.09184e-06
1.17392e-09
2.10125e-06
2.0162e-08
2.10537e-06
3.74504e-08
2.105e-06
5.33731e-08
2.10032e-06
6.7416e-08
2.09126e-06
7.84671e-08
2.07774e-06
8.5583e-08
2.05989e-06
8.8363e-08
2.03828e-06
8.70339e-08
2.0137e-06
8.2622e-08
1.98705e-06
7.64019e-08
1.95923e-06
6.94817e-08
1.9311e-06
6.25836e-08
1.90349e-06
5.60415e-08
1.87709e-06
4.99472e-08
1.85245e-06
4.43153e-08
1.82989e-06
3.91761e-08
1.80948e-06
3.45833e-08
1.79115e-06
3.05805e-08
1.77472e-06
2.71714e-08
1.75998e-06
2.43123e-08
1.7467e-06
2.19328e-08
1.73473e-06
1.99459e-08
1.72391e-06
1.82928e-08
1.71413e-06
1.69102e-08
1.70527e-06
1.58178e-08
1.69721e-06
1.49749e-08
1.68979e-06
1.45376e-08
1.68285e-06
1.43723e-08
1.67608e-06
1.48949e-08
1.6694e-06
1.55774e-08
1.66218e-06
1.76043e-08
1.65462e-06
1.92369e-08
1.64537e-06
2.38921e-08
1.63544e-06
2.63027e-08
1.62165e-06
3.63135e-08
1.60698e-06
3.83984e-08
1.58454e-06
6.02877e-08
1.56028e-06
5.758e-08
1.52402e-06
1.0631e-07
8.91699e-08
1.4781e-06
6.60525e-08
-9.88172e-08
2.3174e-07
-2.05754e-07
4.25883e-07
-2.63669e-07
6.08195e-07
-2.87417e-07
7.64534e-07
-2.90275e-07
8.91303e-07
-2.76384e-07
9.89418e-07
-2.50371e-07
1.06314e-06
-2.19402e-07
1.11255e-06
-1.81713e-07
1.1377e-06
-1.36573e-07
1.14117e-06
-9.20669e-08
1.12453e-06
-4.93125e-08
1.07958e-06
4.16573e-09
1.00379e-06
6.28374e-08
9.02068e-07
1.16874e-07
7.89775e-07
1.54143e-07
6.76376e-07
1.81252e-07
5.59709e-07
2.11081e-07
4.33781e-07
2.43331e-07
2.98205e-07
2.66396e-07
1.51479e-07
2.79379e-07
-5.93163e-09
2.81958e-07
-1.72525e-07
2.77401e-07
-3.43914e-07
2.688e-07
-5.14816e-07
2.57433e-07
-6.78893e-07
2.41614e-07
-8.29235e-07
2.19017e-07
-9.59567e-07
1.88311e-07
-1.06484e-06
1.49708e-07
-1.14181e-06
1.04733e-07
-1.18889e-06
5.55069e-08
-1.2082e-06
4.83596e-09
-1.19799e-06
-4.9971e-08
-1.15858e-06
-1.03237e-07
-1.09186e-06
-1.53596e-07
-9.99878e-07
-1.99287e-07
-8.79565e-07
-2.40259e-07
-7.3745e-07
-2.74374e-07
-5.67094e-07
-2.95239e-07
-3.6586e-07
-3.10589e-07
-1.54347e-07
-3.24071e-07
1.00531e-07
-3.01147e-07
3.83601e-07
-2.80913e-07
6.47513e-07
-3.13292e-07
8.89791e-07
-3.40324e-07
1.14622e-06
-3.11535e-07
1.42584e-06
-2.32529e-07
1.66234e-06
-1.72094e-07
1.77654e-06
-1.25922e-07
1.76088e-06
-2.90072e-08
1.66844e-06
9.4271e-08
1.54986e-06
1.86658e-07
1.42009e-06
2.5119e-07
1.2748e-06
3.15198e-07
1.11898e-06
3.70858e-07
9.71169e-07
4.0775e-07
8.37718e-07
4.37411e-07
7.37056e-07
4.24929e-07
6.86923e-07
3.25884e-07
6.86182e-07
1.59855e-07
7.39911e-07
-5.51983e-08
8.68687e-07
-2.9011e-07
1.03575e-06
-4.81113e-07
1.20395e-06
-6.60648e-07
1.38903e-06
-9.00752e-07
1.5609e-06
-1.02406e-06
1.65057e-06
-7.06249e-07
1.66344e-06
-8.0486e-08
1.7041e-06
1.64678e-07
1.59686e-06
3.90247e-08
1.07648e-06
2.1614e-07
2.01213e-07
8.02758e-07
-7.85157e-07
1.38406e-06
-1.67235e-06
1.81497e-06
-2.39426e-06
2.06008e-06
-2.91386e-06
2.11666e-06
-3.27743e-06
2.00813e-06
-3.56066e-06
1.79523e-06
-3.79895e-06
1.53651e-06
-4.00275e-06
1.26528e-06
-4.17339e-06
1.0075e-06
-4.31288e-06
7.80698e-07
-4.42476e-06
5.91378e-07
-4.51285e-06
4.38061e-07
-4.58027e-06
3.14972e-07
-4.62904e-06
2.15057e-07
-4.66039e-06
1.31883e-07
-4.67505e-06
6.01137e-08
-4.67335e-06
-3.73102e-09
-4.65508e-06
-6.14135e-08
-4.62006e-06
-1.15666e-07
-4.56885e-06
-1.66248e-07
-4.50224e-06
-2.13238e-07
-4.42112e-06
-2.56755e-07
-4.3264e-06
-2.96983e-07
-4.21894e-06
-3.34157e-07
-4.09957e-06
-3.68491e-07
-3.96913e-06
-4.00147e-07
-3.82846e-06
-4.29147e-07
-3.67851e-06
-4.55349e-07
-3.52038e-06
-4.78442e-07
-3.35534e-06
-4.98025e-07
-3.18479e-06
-5.13721e-07
-3.01021e-06
-5.25333e-07
-2.83304e-06
-5.32863e-07
-2.65464e-06
-5.36456e-07
-2.4763e-06
-5.36379e-07
-2.29918e-06
-5.32999e-07
-2.12428e-06
-5.26842e-07
-1.95236e-06
-5.18621e-07
-1.78389e-06
-5.09096e-07
-1.61906e-06
-4.99054e-07
-1.45772e-06
-4.89407e-07
-1.29939e-06
-4.81121e-07
-1.14333e-06
-4.74962e-07
-9.88551e-07
-4.71685e-07
-8.33788e-07
-4.71913e-07
-6.77739e-07
-4.7591e-07
-5.19127e-07
-4.83676e-07
-3.56597e-07
-4.95129e-07
-1.89084e-07
-5.09543e-07
-1.62952e-08
-5.25207e-07
1.61204e-07
-5.40369e-07
3.43588e-07
-5.53737e-07
5.28677e-07
-5.62161e-07
7.13743e-07
-5.62893e-07
8.95489e-07
-5.54024e-07
1.07063e-06
-5.34766e-07
1.2365e-06
-5.05733e-07
1.39141e-06
-4.68624e-07
1.53455e-06
-4.25485e-07
1.66535e-06
-3.78135e-07
1.78297e-06
-3.28103e-07
1.88639e-06
-2.76772e-07
1.97472e-06
-2.25501e-07
2.04743e-06
-1.75793e-07
2.1044e-06
-1.28971e-07
2.14608e-06
-8.5997e-08
2.17381e-06
-4.77747e-08
2.19012e-06
-1.51319e-08
2.1987e-06
1.15793e-08
2.20305e-06
3.31053e-08
2.20607e-06
5.03475e-08
2.20948e-06
6.40095e-08
2.21361e-06
7.43321e-08
2.21791e-06
8.12879e-08
2.22141e-06
8.48612e-08
2.2231e-06
8.53388e-08
2.22216e-06
8.35712e-08
2.21804e-06
8.05133e-08
2.21059e-06
7.69405e-08
2.19989e-06
7.32788e-08
2.18631e-06
6.96202e-08
2.17039e-06
6.58712e-08
2.15279e-06
6.19174e-08
2.13424e-06
5.77215e-08
2.11548e-06
5.33431e-08
2.09716e-06
4.89039e-08
2.07978e-06
4.45484e-08
2.06369e-06
4.03987e-08
2.04908e-06
3.6551e-08
2.03598e-06
3.30445e-08
2.02434e-06
2.99266e-08
2.01407e-06
2.71867e-08
2.00498e-06
2.49074e-08
1.99692e-06
2.30342e-08
1.98967e-06
2.17817e-08
1.98312e-06
2.09213e-08
1.97705e-06
2.09696e-08
1.97141e-06
2.12142e-08
1.966e-06
2.30212e-08
1.96085e-06
2.43813e-08
1.95574e-06
2.90051e-08
1.95062e-06
3.14242e-08
1.94545e-06
4.14825e-08
1.93924e-06
4.46037e-08
1.93361e-06
6.59198e-08
1.92316e-06
6.80268e-08
1.91785e-06
1.11628e-07
1.12376e-07
1.89464e-06
1.22252e-07
-2.21069e-07
3.42782e-07
-4.26283e-07
5.53387e-07
-4.74274e-07
7.22847e-07
-4.56877e-07
8.50959e-07
-4.18388e-07
9.36777e-07
-3.62202e-07
9.85519e-07
-2.99112e-07
1.00504e-06
-2.38925e-07
9.8779e-07
-1.64461e-07
9.22805e-07
-7.15887e-08
8.23053e-07
7.68552e-09
7.11139e-07
6.26013e-08
5.89901e-07
1.25404e-07
4.46284e-07
2.06455e-07
2.92475e-07
2.70683e-07
1.33662e-07
3.12957e-07
-3.14424e-08
3.46356e-07
-2.05287e-07
3.84925e-07
-3.91331e-07
4.29376e-07
-5.95206e-07
4.7027e-07
-8.15396e-07
4.99569e-07
-1.04669e-06
5.13247e-07
-1.27804e-06
5.08759e-07
-1.49741e-06
4.88171e-07
-1.69371e-06
4.53725e-07
-1.85992e-06
4.07831e-07
-1.99433e-06
3.53421e-07
-2.09735e-06
2.91336e-07
-2.17056e-06
2.22911e-07
-2.21556e-06
1.4974e-07
-2.2336e-06
7.35411e-08
-2.2245e-06
-4.26032e-09
-2.1899e-06
-8.45748e-08
-2.12986e-06
-1.63274e-07
-2.04408e-06
-2.39378e-07
-1.93167e-06
-3.11694e-07
-1.79314e-06
-3.78788e-07
-1.62899e-06
-4.38525e-07
-1.43475e-06
-4.89476e-07
-1.21261e-06
-5.32729e-07
-9.70036e-07
-5.66647e-07
-6.86208e-07
-5.84975e-07
-3.71416e-07
-5.95704e-07
-7.34024e-08
-6.11306e-07
2.07407e-07
-6.21134e-07
4.98353e-07
-6.02481e-07
8.18707e-07
-5.52883e-07
1.1406e-06
-4.93984e-07
1.45082e-06
-4.3615e-07
1.76562e-06
-3.43802e-07
2.06327e-06
-2.03384e-07
2.28549e-06
-3.55564e-08
2.41484e-06
1.21841e-07
2.4559e-06
2.74135e-07
2.41994e-06
4.0682e-07
2.33401e-06
4.93685e-07
2.24046e-06
5.30953e-07
2.16341e-06
5.01983e-07
2.09748e-06
3.91813e-07
2.02473e-06
2.32608e-07
1.9542e-06
1.53266e-08
1.94849e-06
-2.844e-07
1.98311e-06
-5.15732e-07
2.03381e-06
-7.11342e-07
2.08847e-06
-9.5542e-07
2.08398e-06
-1.01956e-06
2.02187e-06
-6.44144e-07
1.98258e-06
-4.11986e-08
1.76486e-06
3.82399e-07
1.05698e-06
7.46913e-07
-8.79704e-09
1.28191e-06
-1.01685e-06
1.81081e-06
-1.83274e-06
2.19994e-06
-2.43076e-06
2.41299e-06
-2.83558e-06
2.4649e-06
-3.10649e-06
2.38757e-06
-3.31063e-06
2.21226e-06
-3.48618e-06
1.97078e-06
-3.63632e-06
1.68665e-06
-3.75846e-06
1.38741e-06
-3.85612e-06
1.10517e-06
-3.93669e-06
8.61268e-07
-4.00742e-06
6.62103e-07
-4.07271e-06
5.03357e-07
-4.1336e-06
3.75856e-07
-4.18856e-06
2.70021e-07
-4.23442e-06
1.77738e-07
-4.26855e-06
9.4247e-08
-4.28871e-06
1.64322e-08
-4.29067e-06
-5.94588e-08
-4.27471e-06
-1.31625e-07
-4.24105e-06
-1.99908e-07
-4.19056e-06
-2.63732e-07
-4.12437e-06
-3.22938e-07
-4.04351e-06
-3.77842e-07
-3.94894e-06
-4.28726e-07
-3.84142e-06
-4.76016e-07
-3.72153e-06
-5.20037e-07
-3.58986e-06
-5.60821e-07
-3.44719e-06
-5.98016e-07
-3.29467e-06
-6.30961e-07
-3.13379e-06
-6.5891e-07
-2.96627e-06
-6.81234e-07
-2.79397e-06
-6.97632e-07
-2.61863e-06
-7.08205e-07
-2.44179e-06
-7.13295e-07
-2.26475e-06
-7.13416e-07
-2.08859e-06
-7.09166e-07
-1.91423e-06
-7.01196e-07
-1.74252e-06
-6.90337e-07
-1.57402e-06
-6.77592e-07
-1.40904e-06
-6.64032e-07
-1.24761e-06
-6.50839e-07
-1.08941e-06
-6.3932e-07
-9.33793e-07
-6.30582e-07
-7.79838e-07
-6.2564e-07
-6.26147e-07
-6.25604e-07
-4.71282e-07
-6.30775e-07
-3.13775e-07
-6.41183e-07
-1.52004e-07
-6.56899e-07
1.48424e-08
-6.7639e-07
1.87938e-07
-6.98303e-07
3.67972e-07
-7.20403e-07
5.53889e-07
-7.39654e-07
7.43466e-07
-7.51738e-07
9.32765e-07
-7.52192e-07
1.11627e-06
-7.37528e-07
1.28779e-06
-7.06283e-07
1.44196e-06
-6.59905e-07
1.57608e-06
-6.02741e-07
1.69122e-06