/*--------------------------------*- C++ -*----------------------------------*\
  =========                 |
  \\      /  F ield         | OpenFOAM: The Open Source CFD Toolbox
   \\    /   O peration     | Website:  https://openfoam.org
    \\  /    A nd           | Version:  7
     \\/     M anipulation  |
\*---------------------------------------------------------------------------*/
FoamFile
{
    version     2.0;
    format      ascii;
    class       surfaceScalarField;
    location    "0.087";
    object      phi_0;
}
// * * * * * * * * * * * * * * * * * * * * * * * * * * * * * * * * * * * * * //

dimensions      [0 3 -1 0 0 0 0];

internalField   nonuniform List<scalar> 
24170
(
1.37952e-06
2.21192e-07
1.24445e-06
1.35069e-07
1.11791e-06
1.26544e-07
9.96161e-07
1.21746e-07
8.81621e-07
1.1454e-07
7.78233e-07
1.03388e-07
6.84418e-07
9.38147e-08
5.96555e-07
8.78632e-08
5.14287e-07
8.22682e-08
4.40385e-07
7.39019e-08
3.77243e-07
6.31413e-08
3.252e-07
5.2043e-08
2.81958e-07
4.32426e-08
2.44173e-07
3.77844e-08
2.09513e-07
3.46601e-08
1.75084e-07
3.44297e-08
1.41826e-07
3.32572e-08
2.18407e-08
1.19986e-07
1.67679e-06
2.42789e-07
1.64833e-06
1.63533e-07
1.61549e-06
1.59379e-07
1.57967e-06
1.57568e-07
1.54136e-06
1.52851e-07
1.49659e-06
1.48158e-07
1.44412e-06
1.46284e-07
1.3869e-06
1.45082e-07
1.33015e-06
1.39022e-07
1.27747e-06
1.2658e-07
1.22965e-06
1.10959e-07
1.18383e-06
9.78643e-08
1.13712e-06
8.99527e-08
1.08822e-06
8.66832e-08
1.03736e-06
8.5516e-08
9.87839e-07
8.39552e-08
9.39075e-07
8.20216e-08
7.79302e-08
8.82985e-07
1.78562e-06
2.81274e-07
1.76758e-06
1.81571e-07
1.75698e-06
1.69984e-07
1.74412e-06
1.70424e-07
1.73143e-06
1.65545e-07
1.71993e-06
1.59655e-07
1.71035e-06
1.55862e-07
1.7013e-06
1.54132e-07
1.69007e-06
1.50249e-07
1.67528e-06
1.41374e-07
1.65758e-06
1.28656e-07
1.638e-06
1.17444e-07
1.61608e-06
1.11879e-07
1.59164e-06
1.11119e-07
1.56361e-06
1.13549e-07
1.53285e-06
1.14713e-07
1.5002e-06
1.14674e-07
1.11633e-07
1.4665e-06
1.92789e-06
3.68885e-07
1.8896e-06
2.19861e-07
1.86855e-06
1.9103e-07
1.85365e-06
1.85324e-07
1.84318e-06
1.76019e-07
1.83834e-06
1.64492e-07
1.83843e-06
1.55771e-07
1.84054e-06
1.52025e-07
1.84139e-06
1.49399e-07
1.8396e-06
1.43171e-07
1.83558e-06
1.32669e-07
1.8309e-06
1.22128e-07
1.82612e-06
1.16659e-07
1.82081e-06
1.16427e-07
1.8138e-06
1.20559e-07
1.80413e-06
1.24388e-07
1.7919e-06
1.26903e-07
1.26295e-07
1.77723e-06
2.03512e-06
4.13907e-07
2.0223e-06
2.32683e-07
2.01193e-06
2.01401e-07
2.00218e-06
1.95071e-07
1.99297e-06
1.85228e-07
1.9833e-06
1.74162e-07
1.97436e-06
1.64713e-07
1.96881e-06
1.57572e-07
1.9678e-06
1.50409e-07
1.97023e-06
1.40742e-07
1.97377e-06
1.29135e-07
1.97666e-06
1.19233e-07
1.97814e-06
1.15184e-07
1.97763e-06
1.16932e-07
1.9754e-06
1.22794e-07
1.97097e-06
1.28815e-07
1.9648e-06
1.33067e-07
1.3464e-07
1.95646e-06
2.22188e-06
4.27308e-07
2.19478e-06
2.5978e-07
2.18885e-06
2.07327e-07
2.18301e-06
2.00916e-07
2.16931e-06
1.98925e-07
2.15148e-06
1.91994e-07
2.1349e-06
1.81291e-07
2.12298e-06
1.69496e-07
2.11668e-06
1.56711e-07
2.11532e-06
1.421e-07
2.11734e-06
1.27115e-07
2.12112e-06
1.15456e-07
2.12545e-06
1.10855e-07
2.12903e-06
1.13348e-07
2.13129e-06
1.20538e-07
2.1315e-06
1.28605e-07
2.12958e-06
1.34985e-07
1.38781e-07
2.12544e-06
2.36642e-06
4.18886e-07
2.33073e-06
2.95466e-07
2.32009e-06
2.17971e-07
2.3237e-06
1.97299e-07
2.32694e-06
1.95691e-07
2.32889e-06
1.90043e-07
2.32985e-06
1.80324e-07
2.32867e-06
1.70684e-07
2.32473e-06
1.60649e-07
2.31902e-06
1.47813e-07
2.31331e-06
1.32822e-07
2.30913e-06
1.19634e-07
2.30733e-06
1.1266e-07
2.30746e-06
1.13213e-07
2.3086e-06
1.19394e-07
2.30941e-06
1.27799e-07
2.30898e-06
1.35415e-07
1.40882e-07
2.30688e-06
2.50726e-06
4.54168e-07
2.4955e-06
3.07221e-07
2.49184e-06
2.21632e-07
2.49677e-06
1.92377e-07
2.50803e-06
1.84422e-07
2.52024e-06
1.77842e-07
2.52939e-06
1.71168e-07
2.53304e-06
1.67035e-07
2.53035e-06
1.63335e-07
2.52217e-06
1.56001e-07
2.51049e-06
1.44497e-07
2.4978e-06
1.32327e-07
2.48656e-06
1.239e-07
2.47845e-06
1.21318e-07
2.47415e-06
1.23694e-07
2.47324e-06
1.28711e-07
2.47485e-06
1.33808e-07
1.38053e-07
2.47768e-06
2.75629e-06
4.61248e-07
2.75817e-06
3.05344e-07
2.74434e-06
2.35459e-07
2.72879e-06
2.07928e-07
2.71749e-06
1.95722e-07
2.70742e-06
1.87911e-07
2.69754e-06
1.81056e-07
2.69089e-06
1.73681e-07
2.68985e-06
1.64379e-07
2.69301e-06
1.52835e-07
2.69675e-06
1.40763e-07
2.69807e-06
1.31003e-07
2.69646e-06
1.25513e-07
2.69342e-06
1.24352e-07
2.69099e-06
1.26126e-07
2.6906e-06
1.29101e-07
2.69219e-06
1.32219e-07
1.35475e-07
2.69477e-06
2.95579e-06
4.11645e-07
2.96115e-06
2.99982e-07
2.95124e-06
2.45371e-07
2.94827e-06
2.10895e-07
2.94403e-06
1.99966e-07
2.93103e-06
2.00906e-07
2.91434e-06
1.9775e-07
2.90323e-06
1.84794e-07
2.90159e-06
1.6602e-07
2.90657e-06
1.4785e-07
2.91286e-06
1.34475e-07
2.91664e-06
1.27223e-07
2.91713e-06
1.25018e-07
2.91559e-06
1.25893e-07
2.91389e-06
1.27827e-07
2.91316e-06
1.29831e-07
2.91354e-06
1.31833e-07
1.34313e-07
2.91471e-06
3.18457e-06
4.63252e-07
3.17519e-06
3.09364e-07
3.1851e-06
2.35459e-07
3.19256e-06
2.03442e-07
3.19333e-06
1.99192e-07
3.18837e-06
2.05868e-07
3.17972e-06
2.06399e-07
3.16949e-06
1.95023e-07
3.15985e-06
1.7566e-07
3.15256e-06
1.55144e-07
3.14842e-06
1.38609e-07
3.14711e-06
1.28536e-07
3.1476e-06
1.24532e-07
3.14843e-06
1.25063e-07
3.14839e-06
1.27859e-07
3.1468e-06
1.31431e-07
3.14345e-06
1.35177e-07
1.38965e-07
3.1388e-06
2.82627e-06
4.59707e-07
2.84198e-06
2.93651e-07
2.83987e-06
2.37575e-07
2.83265e-06
2.1066e-07
2.83181e-06
2.00036e-07
2.83633e-06
2.01343e-07
2.84014e-06
2.02587e-07
2.83884e-06
1.96329e-07
2.8329e-06
1.81598e-07
2.82634e-06
1.61704e-07
2.82317e-06
1.41776e-07
2.82516e-06
1.26546e-07
2.83137e-06
1.18326e-07
2.83946e-06
1.16975e-07
2.84688e-06
1.20432e-07
2.85193e-06
1.26389e-07
2.85416e-06
1.32944e-07
1.38732e-07
2.85439e-06
3.49574e-06
4.05872e-07
3.48564e-06
3.03751e-07
3.45503e-06
2.68189e-07
3.42402e-06
2.41673e-07
3.40163e-06
2.22425e-07
3.39113e-06
2.11841e-07
3.39083e-06
2.02884e-07
3.39627e-06
1.90889e-07
3.40419e-06
1.73679e-07
3.41335e-06
1.52546e-07
3.42327e-06
1.3186e-07
3.43352e-06
1.16292e-07
3.44353e-06
1.08313e-07
3.45301e-06
1.07503e-07
3.462e-06
1.11437e-07
3.47079e-06
1.17599e-07
3.48035e-06
1.23386e-07
1.28587e-07
3.49049e-06
4.27475e-06
3.35755e-07
4.27457e-06
3.03932e-07
4.24947e-06
2.93293e-07
4.22653e-06
2.64614e-07
4.20636e-06
2.42589e-07
4.19604e-06
2.2216e-07
4.19922e-06
1.9971e-07
4.21231e-06
1.77795e-07
4.22791e-06
1.58085e-07
4.23872e-06
1.41733e-07
4.24089e-06
1.2969e-07
4.23541e-06
1.21773e-07
4.22676e-06
1.16963e-07
4.22033e-06
1.13929e-07
4.22005e-06
1.11722e-07
4.22727e-06
1.1037e-07
4.24144e-06
1.09221e-07
1.09933e-07
4.26009e-06
5.18725e-06
4.54292e-07
5.14357e-06
3.47615e-07
5.12411e-06
3.12756e-07
5.12133e-06
2.67389e-07
5.14082e-06
2.23099e-07
5.1743e-06
1.88679e-07
5.2063e-06
1.67716e-07
5.22573e-06
1.58361e-07
5.22996e-06
1.5386e-07
5.22248e-06
1.49211e-07
5.20954e-06
1.42629e-07
5.19701e-06
1.34307e-07
5.18888e-06
1.25087e-07
5.18713e-06
1.15683e-07
5.19243e-06
1.06418e-07
5.20416e-06
9.86457e-08
5.22135e-06
9.20269e-08
8.90643e-08
5.24222e-06
6.3695e-06
3.78932e-07
6.35329e-06
3.63816e-07
6.33809e-06
3.2796e-07
6.3197e-06
2.85784e-07
6.28944e-06
2.53356e-07
6.25419e-06
2.23933e-07
6.22854e-06
1.93366e-07
6.22209e-06
1.64811e-07
6.23435e-06
1.41595e-07
6.25899e-06
1.24576e-07
6.2881e-06
1.13512e-07
6.3151e-06
1.07311e-07
6.3362e-06
1.0399e-07
6.35052e-06
1.01356e-07
6.35988e-06
9.706e-08
6.36738e-06
9.11471e-08
6.37608e-06
8.33229e-08
7.61149e-08
6.38903e-06
7.69208e-06
4.35933e-07
7.70406e-06
3.51838e-07
7.71347e-06
3.18544e-07
7.73217e-06
2.67088e-07
7.75716e-06
2.28364e-07
7.77261e-06
2.08477e-07
7.7752e-06
1.90779e-07
7.77622e-06
1.63789e-07
7.78757e-06
1.30252e-07
7.81101e-06
1.01131e-07
7.83991e-06
8.46129e-08
7.86611e-06
8.11128e-08
7.88504e-06
8.5054e-08
7.89671e-06
8.96875e-08
7.90314e-06
9.0632e-08
7.90692e-06
8.73678e-08
7.90902e-06
8.12208e-08
7.50301e-08
7.91011e-06
9.54857e-06
4.19865e-07
9.49125e-06
4.09161e-07
9.43058e-06
3.79217e-07
9.39694e-06
3.00727e-07
9.40321e-06
2.22089e-07
9.4422e-06
1.69491e-07
9.49158e-06
1.41393e-07
9.5305e-06
1.24877e-07
9.54939e-06
1.11361e-07
9.55025e-06
1.00272e-07
9.54188e-06
9.29795e-08
9.5345e-06
8.84937e-08
9.53534e-06
8.4218e-08
9.5467e-06
7.83199e-08
9.56636e-06
7.09791e-08
9.58981e-06
6.39161e-08
9.61245e-06
5.85764e-08
5.67163e-08
9.63077e-06
1.14341e-05
3.2594e-07
1.14889e-05
3.5437e-07
1.1548e-05
3.20138e-07
1.15882e-05
2.60555e-07
1.1603e-05
2.07242e-07
1.16034e-05
1.69047e-07
1.16035e-05
1.4139e-07
1.1608e-05
1.20364e-07
1.16159e-05
1.034e-07
1.1627e-05
8.92129e-08
1.16424e-05
7.75314e-08
1.16627e-05
6.82207e-08
1.16862e-05
6.07622e-08
1.17095e-05
5.49823e-08
1.17301e-05
5.0356e-08
1.17473e-05
4.67524e-08
1.17623e-05
4.35421e-08
4.04967e-08
1.17785e-05
8.34784e-06
2.45144e-07
8.43828e-06
2.63929e-07
8.4894e-06
2.69019e-07
8.52231e-06
2.27643e-07
8.54444e-06
1.85116e-07
8.55808e-06
1.55401e-07
8.56522e-06
1.34252e-07
8.57104e-06
1.14544e-07
8.58208e-06
9.23574e-08
8.60252e-06
6.87775e-08
8.63188e-06
4.81737e-08
8.66529e-06
3.48101e-08
8.69626e-06
2.97904e-08
8.71977e-06
3.14666e-08
8.73347e-06
3.66554e-08
8.73819e-06
4.20397e-08
8.73636e-06
4.53724e-08
4.48673e-08
8.73199e-06
7.31106e-06
4.22324e-07
7.29061e-06
2.84377e-07
7.31562e-06
2.44008e-07
7.35166e-06
1.91608e-07
7.39039e-06
1.46389e-07
7.42724e-06
1.18544e-07
7.4589e-06
1.02597e-07
7.48651e-06
8.69352e-08
7.51333e-06
6.55382e-08
7.54205e-06
4.00502e-08
7.57344e-06
1.67813e-08
7.60626e-06
1.99903e-09
7.63734e-06
-1.29407e-09
7.66408e-06
4.72239e-09
7.6843e-06
1.64362e-08
7.69817e-06
2.81759e-08
7.70711e-06
3.64256e-08
3.8566e-08
7.71342e-06
6.36177e-06
4.47856e-07
6.36046e-06
2.85696e-07
6.40941e-06
1.95054e-07
6.45428e-06
1.46741e-07
6.48329e-06
1.17376e-07
6.50571e-06
9.61269e-08
6.52821e-06
8.00966e-08
6.54798e-06
6.71602e-08
6.56055e-06
5.29746e-08
6.56696e-06
3.36336e-08
6.57359e-06
1.01569e-08
6.58529e-06
-9.69868e-09
6.60454e-06
-2.05484e-08
6.62931e-06
-2.00438e-08
6.65611e-06
-1.03634e-08
6.68061e-06
3.66635e-09
6.70003e-06
1.70142e-08
2.47012e-08
6.71389e-06
5.55041e-06
3.72764e-07
5.60691e-06
2.2919e-07
5.6553e-06
1.46673e-07
5.68475e-06
1.17288e-07
5.70597e-06
9.6158e-08
5.72788e-06
7.42122e-08
5.74892e-06
5.90549e-08
5.76501e-06
5.10753e-08
5.77462e-06
4.3364e-08
5.77919e-06
2.90576e-08
5.7814e-06
7.95602e-09
5.78643e-06
-1.47346e-08
5.79551e-06
-2.96262e-08
5.80853e-06
-3.30662e-08
5.82455e-06
-2.63821e-08
5.84275e-06
-1.45363e-08
5.86187e-06
-2.10394e-09
5.37086e-09
5.8812e-06
4.89125e-06
4.53194e-07
4.86986e-06
2.50584e-07
4.88465e-06
1.31875e-07
4.91856e-06
8.33818e-08
4.96408e-06
5.06415e-08
5.00992e-06
2.83649e-08
5.04768e-06
2.13023e-08
5.07547e-06
2.32853e-08
5.09612e-06
2.27099e-08
5.11254e-06
1.26407e-08
5.12496e-06
-4.46788e-09
5.13096e-06
-2.07291e-08
5.1324e-06
-3.10666e-08
5.13262e-06
-3.32929e-08
5.1357e-06
-2.94574e-08
5.14416e-06
-2.30019e-08
5.15917e-06
-1.71087e-08
-1.41361e-08
5.17868e-06
4.29834e-06
3.93548e-07
4.35953e-06
1.89388e-07
4.38413e-06
1.0728e-07
4.39508e-06
7.24264e-08
4.40416e-06
4.15646e-08
4.41851e-06
1.40145e-08
4.44185e-06
-2.03291e-09
4.47286e-06
-7.72732e-09
4.50383e-06
-8.26459e-09
4.52661e-06
-1.01393e-08
4.53718e-06
-1.50368e-08
4.53776e-06
-2.13089e-08
4.53302e-06
-2.63199e-08
4.52792e-06
-2.81978e-08
4.52562e-06
-2.71551e-08
4.52711e-06
-2.44937e-08
4.53176e-06
-2.17549e-08
-2.02168e-08
4.53784e-06
3.77201e-06
3.89998e-07
3.80535e-06
1.56048e-07
3.8387e-06
7.39249e-08
3.86533e-06
4.58002e-08
3.8884e-06
1.84918e-08
3.90648e-06
-4.06426e-09
3.92062e-06
-1.61743e-08
3.93448e-06
-2.15854e-08
3.94856e-06
-2.23436e-08
3.96001e-06
-2.15887e-08
3.96628e-06
-2.13124e-08
3.96717e-06
-2.21904e-08
3.96488e-06
-2.40304e-08
3.9627e-06
-2.60189e-08
3.9633e-06
-2.77589e-08
3.96799e-06
-2.91782e-08
3.97692e-06
-3.06898e-08
-3.24218e-08
3.98913e-06
3.27669e-06
3.96741e-07
3.32097e-06
1.11766e-07
3.33747e-06
5.74251e-08
3.3552e-06
2.80692e-08
3.38095e-06
-7.25634e-09
3.40651e-06
-2.96247e-08
3.42587e-06
-3.55399e-08
3.43921e-06
-3.49251e-08
3.45086e-06
-3.39916e-08
3.46376e-06
-3.4489e-08
3.47814e-06
-3.56923e-08
3.49255e-06
-3.66004e-08
3.5053e-06
-3.67795e-08
3.5158e-06
-3.65229e-08
3.52459e-06
-3.65413e-08
3.53267e-06
-3.72613e-08
3.54087e-06
-3.8891e-08
-4.08957e-08
3.54935e-06
2.84469e-06
2.34079e-07
2.92207e-06
3.4383e-08
2.94972e-06
2.97734e-08
2.97956e-06
-1.76824e-09
3.0091e-06
-3.67938e-08
3.03146e-06
-5.19874e-08
3.04638e-06
-5.04554e-08
3.05632e-06
-4.48659e-08
3.06379e-06
-4.14635e-08
3.07014e-06
-4.08441e-08
3.07589e-06
-4.14382e-08
3.0813e-06
-4.20079e-08
3.08668e-06
-4.21604e-08
3.09241e-06
-4.22503e-08
3.09859e-06
-4.27212e-08
3.10508e-06
-4.37572e-08
3.11147e-06
-4.52748e-08
-4.66757e-08
3.11725e-06
2.51548e-06
1.29254e-07
2.55084e-06
-9.84933e-10
2.59396e-06
-1.33432e-08
2.63261e-06
-4.04152e-08
2.64545e-06
-4.96373e-08
2.63923e-06
-4.57626e-08
2.63184e-06
-4.30705e-08
2.63253e-06
-4.55522e-08
2.64027e-06
-4.92058e-08
2.64977e-06
-5.03436e-08
2.65674e-06
-4.84087e-08
2.65954e-06
-4.48059e-08
2.65846e-06
-4.10802e-08
2.65444e-06
-3.82311e-08
2.64831e-06
-3.65977e-08
2.64061e-06
-3.60505e-08
2.6316e-06
-3.62647e-08
-3.66827e-08
2.6216e-06
2.10542e-06
2.10443e-06
2.09109e-06
2.05068e-06
2.00104e-06
1.95528e-06
1.91221e-06
1.86665e-06
1.81745e-06
1.7671e-06
1.7187e-06
1.67389e-06
1.63281e-06
1.59458e-06
1.55798e-06
1.52193e-06
1.48567e-06
1.44898e-06
-4.44977e-08
4.44977e-08
-8.69631e-08
4.24654e-08
-1.08353e-07
2.139e-08
-9.86824e-08
-9.67071e-09
-6.17891e-08
-3.68933e-08
-6.58141e-09
-5.52077e-08
5.89323e-08
-6.55137e-08
1.27955e-07
-6.90227e-08
1.96069e-07
-6.81142e-08
2.59208e-07
-6.31391e-08
3.14658e-07
-5.54496e-08
3.6045e-07
-4.57924e-08
3.93803e-07
-3.33521e-08
4.12192e-07
-1.83895e-08
4.14555e-07
-2.36263e-09
4.03057e-07
1.14974e-08
3.78777e-07
2.42807e-08
3.42967e-07
3.58098e-08
2.98282e-07
4.46847e-08
2.48993e-07
4.92889e-08
1.99628e-07
4.93647e-08
1.54077e-07
4.55516e-08
1.15254e-07
3.88225e-08
8.46415e-08
3.06128e-08
6.26614e-08
2.19802e-08
4.91091e-08
1.35522e-08
4.38561e-08
5.25309e-09
4.62938e-08
-2.4377e-09
5.59152e-08
-9.62142e-09
7.27202e-08
-1.6805e-08
9.6131e-08
-2.34107e-08
1.25648e-07
-2.95173e-08
1.62542e-07
-3.68933e-08
2.03112e-07
-4.05701e-08
2.49022e-07
-4.59102e-08
2.96042e-07
-4.70206e-08
3.35384e-07
-3.93415e-08
3.78004e-07
-4.26201e-08
3.88812e-07
-1.08083e-08
3.68854e-07
1.9958e-08
3.42867e-07
2.5987e-08
1.68835e-07
1.74033e-07
-5.24684e-08
2.21303e-07
-9.94628e-08
4.69943e-08
-2.19104e-08
-7.75524e-08
7.61402e-08
-9.80506e-08
1.24988e-07
-4.88482e-08
1.51645e-07
-2.66569e-08
2.41944e-07
-9.02986e-08
3.77997e-07
-1.36053e-07
4.62107e-07
-8.4109e-08
4.59447e-07
2.65999e-09
3.8058e-07
7.88666e-08
2.56513e-07
1.24067e-07
1.10418e-07
1.46094e-07
-4.81401e-08
1.58558e-07
-2.23329e-07
1.75189e-07
-4.1032e-07
1.86991e-07
-5.84194e-07
1.73874e-07
-7.05701e-07
1.21507e-07
-7.41621e-07
3.59197e-08
-6.7912e-07
-6.25002e-08
-5.11056e-07
-1.68065e-07
-2.18323e-07
-2.92733e-07
2.08001e-07
-4.26324e-07
6.65284e-07
-4.57283e-07
9.04579e-07
-2.39295e-07
8.59864e-07
4.47143e-08
7.26527e-07
1.33337e-07
7.59133e-07
-3.26058e-08
9.80978e-07
-2.21845e-07
1.22444e-06
-2.43464e-07
1.35743e-06
-1.32984e-07
1.32009e-06
3.73329e-08
1.00769e-06
3.12405e-07
3.15542e-07
6.92145e-07
-6.2497e-07
9.40513e-07
-1.55769e-06
9.32718e-07
-2.3807e-06
8.2301e-07
-3.06366e-06
6.82964e-07
-3.60775e-06
5.4409e-07
-4.02776e-06
4.20006e-07
-4.34346e-06
3.15705e-07
-4.57454e-06
2.3108e-07
-4.7384e-06
1.63858e-07
-4.84932e-06
1.10916e-07
-4.91826e-06
6.89431e-08
-4.95338e-06
3.51139e-08
-4.96002e-06
6.64e-09
-4.94371e-06
-1.63019e-08
-4.9074e-06
-3.63139e-08
-4.85303e-06
-5.43739e-08
-4.78241e-06
-7.06115e-08
-4.69711e-06
-8.53046e-08
-4.59838e-06
-9.87276e-08
-4.4874e-06
-1.10982e-07
-4.36519e-06
-1.22206e-07
-4.23273e-06
-1.32467e-07
-4.09091e-06
-1.41819e-07
-3.94067e-06
-1.50237e-07
-3.783e-06
-1.57673e-07
-3.61901e-06
-1.63991e-07
-3.44992e-06
-1.69087e-07
-3.27704e-06
-1.72879e-07
-3.10169e-06
-1.75351e-07
-2.92515e-06
-1.76538e-07
-2.74862e-06
-1.76527e-07
-2.57319e-06
-1.75435e-07
-2.39975e-06
-1.73442e-07
-2.22897e-06
-1.70779e-07
-2.06129e-06
-1.67681e-07
-1.89689e-06
-1.64395e-07
-1.73566e-06
-1.61231e-07
-1.57716e-06
-1.58503e-07
-1.42069e-06
-1.56472e-07
-1.2653e-06
-1.55388e-07
-1.10987e-06
-1.55432e-07
-9.5315e-07
-1.56715e-07
-7.93903e-07
-1.59248e-07
-6.30997e-07
-1.62906e-07
-4.6352e-07
-1.67477e-07
-2.91044e-07
-1.72477e-07
-1.13507e-07
-1.77536e-07
6.77952e-08
-1.81302e-07
2.51382e-07
-1.83587e-07
4.34648e-07
-1.83266e-07
6.14273e-07
-1.79625e-07
7.8654e-07
-1.72267e-07
9.47765e-07
-1.61225e-07
1.09471e-06
-1.46942e-07
1.22481e-06
-1.30102e-07
1.33636e-06
-1.11548e-07
1.42868e-06
-9.23219e-08
1.50206e-06
-7.33785e-08
1.55716e-06
-5.51045e-08
1.59502e-06
-3.78594e-08
1.61752e-06
-2.25008e-08
1.62628e-06
-8.75982e-09
1.62178e-06
4.50026e-09
1.60444e-06
1.73383e-08
1.57482e-06
2.96213e-08
1.53319e-06
4.16276e-08
1.48014e-06
5.30522e-08
1.41738e-06
6.27645e-08
1.34797e-06
6.94113e-08
1.27593e-06
7.20397e-08
1.20545e-06
7.04772e-08
1.14008e-06
6.53695e-08
1.08209e-06
5.79878e-08
1.03239e-06
4.9706e-08
9.90757e-07
4.16291e-08
9.56316e-07
3.44409e-08
9.27897e-07
2.84196e-08
9.04343e-07
2.3554e-08
8.84657e-07
1.96853e-08
8.68037e-07
1.662e-08
8.53847e-07
1.41906e-08
8.41578e-07
1.22689e-08
8.30819e-07
1.07592e-08
8.21236e-07
9.58275e-09
8.12557e-07
8.6788e-09
8.04567e-07
7.99001e-09
7.97076e-07
7.49105e-09
7.89929e-07
7.14685e-09
7.82954e-07
6.97484e-09
7.76016e-07
6.93838e-09
7.68886e-07
7.12977e-09
7.61432e-07
7.45442e-09
7.53282e-07
8.15001e-09
7.44373e-07
8.90877e-09
7.33965e-07
1.0408e-08
7.22258e-07
1.17068e-08
7.07598e-07
1.46597e-08
6.91191e-07
1.64075e-08
6.68642e-07
2.25494e-08
6.44872e-07
2.37699e-08
6.06973e-07
3.78982e-08
5.73571e-07
3.34025e-08
5.03397e-07
7.01733e-08
4.35533e-08
4.59844e-07
7.74098e-08
-3.29121e-08
1.59897e-07
-4.00216e-08
2.50764e-07
-6.94769e-08
3.46254e-07
-1.05161e-07
4.43493e-07
-1.34132e-07
5.38235e-07
-1.49949e-07
6.25448e-07
-1.52727e-07
7.02702e-07
-1.46277e-07
7.67601e-07
-1.33013e-07
8.16677e-07
-1.12216e-07
8.50673e-07
-8.94452e-08
8.71706e-07
-6.68257e-08
8.79971e-07
-4.16168e-08
8.7533e-07
-1.37484e-08
8.58616e-07
1.43516e-08
8.28982e-07
4.11313e-08
7.86064e-07
6.71985e-08
7.28106e-07
9.37683e-08
6.56022e-07
1.16768e-07
5.75098e-07
1.30213e-07
4.92358e-07
1.32104e-07
4.13841e-07
1.24069e-07
3.42278e-07
1.10386e-07
2.75904e-07
9.69868e-08
2.11827e-07
8.60565e-08
1.48389e-07
7.69902e-08
8.55903e-08
6.80522e-08
2.5859e-08
5.72936e-08
-2.74586e-08
4.36962e-08
-7.12592e-08
2.69955e-08
-1.0234e-07
7.66963e-09
-1.16554e-07
-1.53024e-08
-1.12895e-07
-4.05523e-08
-8.88958e-08
-6.45698e-08
-4.72557e-08
-8.75503e-08
1.3585e-08
-1.07861e-07
9.46803e-08
-1.20437e-07
1.84661e-07
-1.32601e-07
2.98856e-07
-1.25003e-07
4.28067e-07
-1.09253e-07
5.66278e-07
-1.12225e-07
7.85951e-07
-4.56394e-08
1.00443e-06
2.8259e-09
1.09963e-06
-4.82108e-08
1.11869e-06
-9.66131e-08
1.07376e-06
-5.3115e-08
9.75997e-07
4.89125e-08
8.84084e-07
6.52567e-08
8.05081e-07
-1.12963e-08
7.12688e-07
-4.36603e-08
6.25573e-07
3.0057e-09
5.59039e-07
6.91939e-08
5.15545e-07
1.22361e-07
4.68736e-07
1.70877e-07
3.98908e-07
2.15922e-07
2.96974e-07
2.60492e-07
1.6821e-07
3.03953e-07
3.1899e-08
3.23302e-07
-6.79013e-08
2.73675e-07
-1.02756e-07
1.56361e-07
-6.27188e-08
-4.11735e-09
3.86794e-08
-1.63898e-07
1.86924e-07
-3.16309e-07
3.89278e-07
-4.95087e-07
6.81274e-07
-7.18319e-07
1.07599e-06
-8.52002e-07
1.44807e-06
-6.11374e-07
1.55425e-06
-6.14658e-08
1.48239e-06
2.05203e-07
1.5221e-06
-7.23209e-08
1.60427e-06
-3.04015e-07
1.42854e-06
-6.7729e-08
8.92406e-07
4.03147e-07
-2.05155e-09
9.31791e-07
-1.03085e-06
1.3412e-06
-1.93649e-06
1.59778e-06
-2.63945e-06
1.64348e-06
-3.21734e-06
1.51061e-06
-3.69148e-06
1.29714e-06
-4.06935e-06
1.06084e-06
-4.36176e-06
8.36505e-07
-4.58269e-06
6.40932e-07
-4.74615e-06
4.79169e-07
-4.86457e-06
3.49496e-07
-4.94762e-06
2.46905e-07
-5.00217e-06
1.6547e-07
-5.0328e-06
9.9577e-08
-5.04207e-06
4.43773e-08
-5.03232e-06
-3.10541e-09
-5.00435e-06
-4.42739e-08
-4.9589e-06
-8.17673e-08
-4.89717e-06
-1.16103e-07
-4.82015e-06
-1.47629e-07
-4.7289e-06
-1.76551e-07
-4.62456e-06
-2.0307e-07
-4.50815e-06
-2.27394e-07
-4.38064e-06
-2.49718e-07
-4.24292e-06
-2.70189e-07
-4.09587e-06
-2.8886e-07
-3.94042e-06
-3.05691e-07
-3.77757e-06
-3.20526e-07
-3.60843e-06
-3.33129e-07
-3.43425e-06
-3.43264e-07
-3.25634e-06
-3.50793e-07
-3.07601e-06
-3.55683e-07
-2.89453e-06
-3.58013e-07
-2.7131e-06
-3.57955e-07
-2.53278e-06
-3.55761e-07
-2.35442e-06
-3.51798e-07
-2.17866e-06
-3.46537e-07
-2.00589e-06
-3.40453e-07
-1.83625e-06
-3.34038e-07
-1.66959e-06
-3.27888e-07
-1.50547e-06
-3.22629e-07
-1.34317e-06
-3.18769e-07
-1.18176e-06
-3.16797e-07
-1.02011e-06
-3.17084e-07
-8.56981e-07
-3.19842e-07
-6.91131e-07
-3.25098e-07
-5.21352e-07
-3.32685e-07
-3.46665e-07
-3.42164e-07
-1.66552e-07
-3.52589e-07
1.89682e-08
-3.63057e-07
2.09205e-07
-3.71539e-07
4.02839e-07
-3.77222e-07
5.97485e-07
-3.77912e-07
7.90137e-07
-3.72276e-07
9.774e-07
-3.5953e-07
1.15585e-06
-3.39677e-07
1.32235e-06
-3.13442e-07
1.47428e-06
-2.82026e-07
1.60971e-06
-2.46985e-07
1.72751e-06
-2.10116e-07
1.82713e-06
-1.73006e-07
1.90888e-06
-1.36849e-07
1.97382e-06
-1.02804e-07
2.02309e-06
-7.17687e-08
2.05847e-06
-4.41379e-08
2.08287e-06
-1.99041e-08
2.09893e-06
1.27938e-09
2.10831e-06
2.02433e-08
2.11242e-06
3.7517e-08
2.11205e-06
5.34271e-08
2.10736e-06
6.74537e-08
2.09829e-06
7.84822e-08
2.08475e-06
8.55766e-08
2.06689e-06
8.83378e-08
2.04526e-06
8.69992e-08
2.02066e-06
8.25879e-08
1.99399e-06
7.63759e-08
1.96615e-06
6.94668e-08
1.93801e-06
6.25792e-08
1.91039e-06
5.60448e-08
1.88399e-06
4.99555e-08
1.85934e-06
4.4327e-08
1.83677e-06
3.91906e-08
1.81636e-06
3.46007e-08
1.79803e-06
3.06007e-08
1.7816e-06
2.71942e-08
1.76684e-06
2.43371e-08
1.75356e-06
2.19589e-08
1.74158e-06
1.99727e-08
1.73075e-06
1.832e-08
1.72096e-06
1.69375e-08
1.71209e-06
1.58455e-08
1.70402e-06
1.50033e-08
1.69659e-06
1.45671e-08
1.68964e-06
1.44034e-08
1.68286e-06
1.49279e-08
1.67616e-06
1.56127e-08
1.66892e-06
1.76422e-08
1.66135e-06
1.92781e-08
1.65207e-06
2.39378e-08
1.64213e-06
2.63545e-08
1.6283e-06
3.63748e-08
1.6136e-06
3.8474e-08
1.59111e-06
6.03877e-08
1.56679e-06
5.77223e-08
1.53042e-06
1.06542e-07
8.96173e-08
1.48435e-06
6.62724e-08
-9.91846e-08
2.31983e-07
-2.05732e-07
4.26113e-07
-2.63607e-07
6.0845e-07
-2.87499e-07
7.64868e-07
-2.9055e-07
8.91773e-07
-2.76854e-07
9.9008e-07
-2.51033e-07
1.06404e-06
-2.20233e-07
1.11369e-06
-1.82667e-07
1.13909e-06
-1.37618e-07
1.14282e-06
-9.31729e-08
1.12641e-06
-5.04176e-08
1.08162e-06
3.17562e-09
1.006e-06
6.18701e-08
9.04432e-07
1.1592e-07
7.92355e-07
1.53209e-07
6.79191e-07
1.80362e-07
5.62754e-07
2.10205e-07
4.37081e-07
2.42441e-07
3.01776e-07
2.65518e-07
1.55359e-07
2.78522e-07
-1.71485e-09
2.81142e-07
-1.67916e-07
2.76587e-07
-3.38868e-07
2.67939e-07
-5.09287e-07
2.56475e-07
-6.72845e-07
2.40548e-07
-8.2265e-07
2.17857e-07
-9.52445e-07
1.87088e-07
-1.0572e-06
1.48447e-07
-1.13365e-06
1.03452e-07
-1.1802e-06
5.42157e-08
-1.1991e-06
3.60367e-09
-1.18841e-06
-5.12475e-08
-1.14854e-06
-1.04435e-07
-1.08139e-06
-1.54704e-07
-9.88986e-07
-2.00265e-07
-8.68333e-07
-2.4109e-07
-7.25901e-07
-2.75033e-07
-5.55248e-07
-2.95657e-07
-3.53772e-07
-3.10728e-07
-1.42017e-07
-3.2398e-07
1.13053e-07
-3.00709e-07
3.9605e-07
-2.80171e-07
6.60017e-07
-3.12177e-07
9.02234e-07
-3.3883e-07
1.15867e-06
-3.09551e-07
1.43783e-06
-2.30247e-07
1.67292e-06
-1.69838e-07
1.78492e-06
-1.23288e-07
1.76707e-06
-2.58166e-08
1.6731e-06
9.69819e-08
1.55363e-06
1.88663e-07
1.42324e-06
2.52749e-07
1.27761e-06
3.16509e-07
1.12187e-06
3.71657e-07
9.74331e-07
4.08035e-07
8.41184e-07
4.371e-07
7.4106e-07
4.23425e-07
6.91593e-07
3.23142e-07
6.91622e-07
1.56332e-07
7.46448e-07
-5.89435e-08
8.76531e-07
-2.93982e-07
1.04419e-06
-4.83972e-07
1.21298e-06
-6.63877e-07
1.39884e-06
-9.04174e-07
1.57053e-06
-1.02369e-06
1.65893e-06
-6.99777e-07
1.67177e-06
-7.43073e-08
1.71246e-06
1.64515e-07
1.60068e-06
3.94555e-08
1.07421e-06
2.22463e-07
1.96155e-07
8.10322e-07
-7.89689e-07
1.38899e-06
-1.67523e-06
1.81733e-06
-2.3944e-06
2.06037e-06
-2.91205e-06
2.11543e-06
-3.27489e-06
2.00633e-06
-3.55807e-06
1.79378e-06
-3.79657e-06
1.53565e-06
-4.00062e-06
1.26489e-06
-4.17142e-06
1.0073e-06
-4.31091e-06
7.8042e-07
-4.42261e-06
5.90872e-07
-4.51038e-06
4.37264e-07
-4.57736e-06
3.13887e-07
-4.62561e-06
2.13722e-07
-4.65639e-06
1.30355e-07
-4.67046e-06
5.84505e-08
-4.66819e-06
-5.37487e-09
-4.64934e-06
-6.31259e-08
-4.61377e-06
-1.17333e-07
-4.56205e-06
-1.67827e-07
-4.49498e-06
-2.14698e-07
-4.41346e-06
-2.58072e-07
-4.31839e-06
-2.98142e-07
-4.21063e-06
-3.3515e-07
-4.09103e-06
-3.69316e-07
-3.96041e-06
-4.00812e-07
-3.81961e-06
-4.29666e-07
-3.66956e-06
-4.55739e-07
-3.51136e-06
-4.78723e-07
-3.34627e-06
-4.98214e-07
-3.17571e-06
-5.13829e-07
-3.00113e-06
-5.25369e-07
-2.82398e-06
-5.32833e-07
-2.64563e-06
-5.36365e-07
-2.46735e-06
-5.36233e-07
-2.29031e-06
-5.32806e-07
-2.1155e-06
-5.26608e-07
-1.94368e-06
-5.18355e-07
-1.77532e-06
-5.08809e-07
-1.6106e-06
-4.9876e-07
-1.44937e-06
-4.8912e-07
-1.29114e-06
-4.80855e-07
-1.13518e-06
-4.74732e-07
-9.80474e-07
-4.71505e-07
-8.25762e-07
-4.71795e-07
-6.6974e-07
-4.75865e-07
-5.11127e-07
-4.83711e-07
-3.48568e-07
-4.95244e-07
-1.80999e-07
-5.09733e-07
-8.13715e-09
-5.25451e-07
1.69449e-07
-5.40643e-07
3.51913e-07
-5.54004e-07
5.37063e-07
-5.62371e-07
7.22156e-07
-5.63006e-07
9.03892e-07
-5.54012e-07
1.07899e-06
-5.34626e-07
1.24479e-06
-5.05482e-07
1.39964e-06
-4.68287e-07
1.5427e-06
-4.25088e-07
1.67341e-06
-3.77696e-07
1.79093e-06
-3.27637e-07
1.89422e-06
-2.76298e-07
1.98242e-06
-2.25039e-07
2.05498e-06
-1.75364e-07
2.11179e-06
-1.28588e-07
2.15333e-06
-8.56712e-08
2.18094e-06
-4.75151e-08
2.19716e-06
-1.49422e-08
2.2057e-06
1.17032e-08
2.21004e-06
3.31775e-08
2.21308e-06
5.03832e-08
2.21652e-06
6.40201e-08
2.22068e-06
7.43244e-08
2.22498e-06
8.12684e-08
2.22849e-06
8.48352e-08
2.23017e-06
8.53156e-08
2.2292e-06
8.35593e-08
2.22506e-06
8.05179e-08
2.21756e-06
7.69619e-08
2.20683e-06
7.33135e-08
2.19321e-06
6.96622e-08
2.17725e-06
6.59151e-08
2.15962e-06
6.19593e-08
2.14105e-06
5.77596e-08
2.12227e-06
5.33772e-08
2.10394e-06
4.89349e-08
2.08656e-06
4.45773e-08
2.07047e-06
4.04266e-08
2.05585e-06
3.65788e-08
2.04275e-06
3.3073e-08
2.03111e-06
2.9956e-08
2.02083e-06
2.72176e-08
2.01173e-06
2.49403e-08
2.00367e-06
2.30696e-08
1.99642e-06
2.182e-08
1.98986e-06
2.09627e-08
1.98377e-06
2.10143e-08
1.97812e-06
2.12621e-08
1.97269e-06
2.30726e-08
1.96753e-06
2.44368e-08
1.9624e-06
2.90662e-08
1.95726e-06
3.14936e-08
1.95207e-06
4.15648e-08
1.94584e-06
4.47061e-08
1.94017e-06
6.60559e-08
1.92968e-06
6.822e-08
1.92429e-06
1.11929e-07
1.12893e-07
1.90101e-06
1.22047e-07
-2.21231e-07
3.42529e-07
-4.26214e-07
5.53275e-07
-4.74353e-07
7.22947e-07
-4.57171e-07
8.51265e-07
-4.18868e-07
9.37261e-07
-3.62851e-07
9.86152e-07
-2.99924e-07
1.00577e-06
-2.39853e-07
9.88536e-07
-1.65431e-07
9.23522e-07
-7.26036e-08
8.23853e-07
6.49655e-09
7.12015e-07
6.14203e-08
5.90886e-07
1.24304e-07
4.47368e-07
2.05388e-07
2.9369e-07
2.69598e-07
1.35045e-07
3.11854e-07
-2.98405e-08
3.45248e-07
-2.03429e-07
3.83794e-07
-3.89165e-07
4.28178e-07
-5.92651e-07
4.69004e-07
-8.12374e-07
4.98245e-07
-1.04313e-06
5.11895e-07
-1.27392e-06
5.07385e-07
-1.49274e-06
4.86752e-07
-1.68851e-06
4.52248e-07
-1.85424e-06
4.06277e-07
-1.98817e-06
3.51788e-07
-2.09071e-06
2.89631e-07
-2.16342e-06
2.21151e-07
-2.20791e-06
1.47946e-07
-2.22544e-06
7.17463e-08
-2.21574e-06
-6.09541e-09
-2.18066e-06
-8.63335e-08
-2.12014e-06
-1.64954e-07
-2.0339e-06
-2.40944e-07
-1.92105e-06
-3.1311e-07
-1.78212e-06
-3.80024e-07
-1.6176e-06
-4.39548e-07
-1.42301e-06
-4.90249e-07
-1.20052e-06
-5.33216e-07
-9.57659e-07
-5.66843e-07
-6.73546e-07
-5.84822e-07
-3.58548e-07
-5.95169e-07
-6.03554e-08
-6.1037e-07
2.20683e-07
-6.19869e-07
5.11856e-07
-6.00724e-07
8.32277e-07
-5.50668e-07
1.15385e-06
-4.91413e-07
1.4638e-06
-4.33237e-07
1.77824e-06
-3.40254e-07
2.07463e-06
-1.99412e-07
2.29475e-06
-3.14567e-08
2.42221e-06
1.25287e-07
2.46167e-06
2.77052e-07
2.42454e-06
4.08789e-07
2.33811e-06
4.94457e-07
2.24466e-06
5.30559e-07
2.16786e-06
5.00217e-07
2.10202e-06
3.88987e-07
2.02926e-06
2.29087e-07
1.95916e-06
1.11584e-08
1.95444e-06
-2.89263e-07
1.98955e-06
-5.19079e-07
2.04085e-06
-7.15176e-07
2.09585e-06
-9.59175e-07
2.09099e-06
-1.01883e-06
2.02896e-06
-6.3774e-07
1.98966e-06
-3.50111e-08
1.76679e-06
3.87388e-07
1.05221e-06
7.5403e-07
-1.47659e-08
1.28944e-06
-1.02079e-06
1.81635e-06
-1.83405e-06
2.20224e-06
-2.42958e-06
2.41286e-06
-2.8326e-06
2.4634e-06
-3.10272e-06
2.38556e-06
-3.30694e-06
2.21054e-06
-3.48296e-06
1.96981e-06
-3.63367e-06
1.68636e-06
-3.75622e-06
1.38743e-06
-3.85401e-06
1.1051e-06
-3.93444e-06
8.60851e-07
-4.00481e-06
6.61235e-07
-4.06959e-06
5.02043e-07
-4.12986e-06
3.74163e-07
-4.18418e-06
2.68042e-07
-4.22939e-06
1.75567e-07
-4.26292e-06
9.19764e-08
-4.28247e-06
1.41754e-08
-4.28387e-06
-6.17304e-08
-4.2674e-06
-1.33799e-07
-4.23328e-06
-2.01944e-07
-4.18238e-06
-2.65596e-07
-4.11585e-06
-3.24602e-07
-4.03471e-06
-3.79284e-07
-3.93993e-06
-4.29934e-07
-3.83225e-06
-4.76993e-07
-3.71227e-06
-5.20797e-07
-3.58054e-06
-5.61391e-07
-3.43785e-06
-5.98426e-07
-3.28533e-06
-6.31241e-07
-3.12446e-06
-6.59086e-07
-2.95697e-06
-6.8132e-07
-2.78471e-06
-6.97635e-07
-2.60941e-06
-7.08128e-07
-2.43263e-06
-7.13142e-07
-2.25568e-06
-7.13193e-07
-2.0796e-06
-7.08883e-07
-1.90534e-06
-7.00861e-07
-1.73374e-06
-6.89963e-07
-1.56535e-06
-6.77194e-07
-1.40049e-06
-6.63625e-07
-1.23917e-06
-6.50441e-07
-1.08107e-06
-6.38949e-07
-9.25547e-07
-6.30258e-07
-7.71669e-07
-6.25382e-07
-6.18035e-07
-6.2543e-07
-4.63198e-07
-6.30702e-07
-3.05688e-07
-6.41221e-07
-1.43881e-07
-6.57051e-07
2.30314e-08
-6.76646e-07
1.96224e-07
-6.98644e-07
3.7637e-07
-7.20788e-07
5.62388e-07
-7.40021e-07
7.52025e-07
-7.52009e-07
9.4131e-07
-7.5229e-07
1.1247e-06
-7.37406e-07
1.29602e-06
-7.05941e-07
1.44994e-06
-6.59397e-07
1.58381e-06
-6.02161e-07