/*--------------------------------*- C++ -*----------------------------------*\
  =========                 |
  \\      /  F ield         | OpenFOAM: The Open Source CFD Toolbox
   \\    /   O peration     | Website:  https://openfoam.org
    \\  /    A nd           | Version:  7
     \\/     M anipulation  |
\*---------------------------------------------------------------------------*/
FoamFile
{
    version     2.0;
    format      ascii;
    class       volScalarField;
    location    "0.087";
    object      pPrime2Mean;
}
// * * * * * * * * * * * * * * * * * * * * * * * * * * * * * * * * * * * * * //

dimensions      [0 4 -4 0 0 0 0];

internalField   nonuniform List<scalar> 
12225
(
4.13787e+06
4.07213e+06
4.00423e+06
3.93869e+06
3.87571e+06
3.81511e+06
3.75672e+06
3.70036e+06
3.64587e+06
3.59305e+06
3.54168e+06
3.49153e+06
3.44229e+06
3.39361e+06
3.34496e+06
3.29556e+06
3.24401e+06
3.18683e+06
4.13793e+06
4.07217e+06
4.00426e+06
3.93873e+06
3.87575e+06
3.81515e+06
3.75677e+06
3.70042e+06
3.64595e+06
3.59314e+06
3.5418e+06
3.49168e+06
3.44249e+06
3.39389e+06
3.34538e+06
3.29623e+06
3.24528e+06
3.18971e+06
4.13803e+06
4.07224e+06
4.00433e+06
3.9388e+06
3.87583e+06
3.81525e+06
3.75688e+06
3.70056e+06
3.64611e+06
3.59335e+06
3.54206e+06
3.49201e+06
3.44294e+06
3.3945e+06
3.34628e+06
3.29766e+06
3.24781e+06
3.19566e+06
4.13815e+06
4.07235e+06
4.00445e+06
3.93893e+06
3.87597e+06
3.81541e+06
3.75707e+06
3.70078e+06
3.64638e+06
3.59368e+06
3.54248e+06
3.49256e+06
3.44366e+06
3.3955e+06
3.34772e+06
3.29988e+06
3.25157e+06
3.20278e+06
4.1383e+06
4.07252e+06
4.00462e+06
3.93911e+06
3.87618e+06
3.81564e+06
3.75734e+06
3.70111e+06
3.64678e+06
3.59417e+06
3.5431e+06
3.49336e+06
3.44471e+06
3.39693e+06
3.34974e+06
3.30288e+06
3.25627e+06
3.21049e+06
4.13852e+06
4.07275e+06
4.00486e+06
3.93936e+06
3.87646e+06
3.81596e+06
3.75772e+06
3.70156e+06
3.64733e+06
3.59485e+06
3.54395e+06
3.49444e+06
3.44612e+06
3.39882e+06
3.35234e+06
3.3066e+06
3.26173e+06
3.21847e+06
4.13881e+06
4.07305e+06
4.00517e+06
3.9397e+06
3.87683e+06
3.81639e+06
3.75821e+06
3.70215e+06
3.64804e+06
3.59573e+06
3.54505e+06
3.49583e+06
3.44792e+06
3.40118e+06
3.35552e+06
3.31096e+06
3.26775e+06
3.2266e+06
4.13918e+06
4.07344e+06
4.00558e+06
3.94014e+06
3.87731e+06
3.81693e+06
3.75885e+06
3.7029e+06
3.64895e+06
3.59684e+06
3.54642e+06
3.49756e+06
3.45013e+06
3.40403e+06
3.35925e+06
3.31588e+06
3.2742e+06
3.2348e+06
4.13968e+06
4.07394e+06
4.00609e+06
3.94068e+06
3.87791e+06
3.81762e+06
3.75964e+06
3.70384e+06
3.65008e+06
3.59821e+06
3.54811e+06
3.49965e+06
3.45276e+06
3.40736e+06
3.36349e+06
3.32127e+06
3.28098e+06
3.24304e+06
4.14028e+06
4.07456e+06
4.00672e+06
3.94135e+06
3.87865e+06
3.81845e+06
3.76061e+06
3.70498e+06
3.65144e+06
3.59986e+06
3.55012e+06
3.50212e+06
3.45581e+06
3.41115e+06
3.3682e+06
3.32708e+06
3.28801e+06
3.25131e+06
4.14114e+06
4.07533e+06
4.0075e+06
3.94217e+06
3.87954e+06
3.81946e+06
3.76177e+06
3.70635e+06
3.65306e+06
3.6018e+06
3.55246e+06
3.50497e+06
3.45928e+06
3.41537e+06
3.37332e+06
3.33321e+06
3.29524e+06
3.25959e+06
4.14194e+06
4.07618e+06
4.00835e+06
3.94306e+06
3.88052e+06
3.82055e+06
3.76303e+06
3.70782e+06
3.6548e+06
3.60387e+06
3.55493e+06
3.50793e+06
3.46282e+06
3.41961e+06
3.37834e+06
3.3391e+06
3.30201e+06
3.26719e+06
4.14304e+06
4.07716e+06
4.00932e+06
3.94408e+06
3.88162e+06
3.8218e+06
3.76445e+06
3.70947e+06
3.65674e+06
3.60616e+06
3.55764e+06
3.51114e+06
3.46662e+06
3.42408e+06
3.38355e+06
3.3451e+06
3.3088e+06
3.27471e+06
4.1445e+06
4.07847e+06
4.01061e+06
3.94542e+06
3.88308e+06
3.82343e+06
3.76631e+06
3.71162e+06
3.65924e+06
3.60908e+06
3.56107e+06
3.51515e+06
3.47129e+06
3.42949e+06
3.38976e+06
3.35213e+06
3.31662e+06
3.28325e+06
4.14637e+06
4.0802e+06
4.0123e+06
3.94718e+06
3.88499e+06
3.82555e+06
3.76872e+06
3.71438e+06
3.66243e+06
3.61278e+06
3.56535e+06
3.52009e+06
3.47696e+06
3.43595e+06
3.39704e+06
3.36022e+06
3.3255e+06
3.29284e+06
4.14871e+06
4.08241e+06
4.0145e+06
3.94947e+06
3.88747e+06
3.82829e+06
3.77181e+06
3.71789e+06
3.66644e+06
3.61736e+06
3.57058e+06
3.52605e+06
3.48369e+06
3.44349e+06
3.40541e+06
3.3694e+06
3.33542e+06
3.30343e+06
4.15168e+06
4.0852e+06
4.01729e+06
3.95238e+06
3.8906e+06
3.83175e+06
3.77567e+06
3.72224e+06
3.67135e+06
3.62292e+06
3.57684e+06
3.53306e+06
3.49149e+06
3.4521e+06
3.41481e+06
3.37956e+06
3.34629e+06
3.31492e+06
4.15507e+06
4.08853e+06
4.02067e+06
3.95594e+06
3.89444e+06
3.83596e+06
3.78034e+06
3.72745e+06
3.67718e+06
3.62941e+06
3.58406e+06
3.54102e+06
3.50023e+06
3.4616e+06
3.42505e+06
3.3905e+06
3.35787e+06
3.32707e+06
4.15892e+06
4.09232e+06
4.02457e+06
3.96006e+06
3.89889e+06
3.84083e+06
3.78571e+06
3.73339e+06
3.68374e+06
3.63664e+06
3.59198e+06
3.54966e+06
3.50958e+06
3.47164e+06
3.43575e+06
3.40181e+06
3.36974e+06
3.33943e+06
4.16178e+06
4.09531e+06
4.02773e+06
3.96346e+06
3.90258e+06
3.84487e+06
3.79015e+06
3.73826e+06
3.68907e+06
3.64245e+06
3.59828e+06
3.55645e+06
3.51685e+06
3.47938e+06
3.44392e+06
3.41039e+06
3.37867e+06
3.34869e+06
4.16339e+06
4.09719e+06
4.02981e+06
3.96574e+06
3.90509e+06
3.84762e+06
3.79316e+06
3.74156e+06
3.69267e+06
3.64635e+06
3.60249e+06
3.56096e+06
3.52165e+06
3.48446e+06
3.44926e+06
3.41596e+06
3.38447e+06
3.35467e+06
4.16466e+06
4.09851e+06
4.03128e+06
3.96739e+06
3.90691e+06
3.84964e+06
3.79537e+06
3.74397e+06
3.69529e+06
3.64919e+06
3.60554e+06
3.56422e+06
3.52511e+06
3.4881e+06
3.45308e+06
3.41994e+06
3.38859e+06
3.35892e+06
4.16515e+06
4.09933e+06
4.03229e+06
3.96855e+06
3.90822e+06
3.85108e+06
3.79697e+06
3.74571e+06
3.69718e+06
3.65122e+06
3.60772e+06
3.56654e+06
3.52757e+06
3.49068e+06
3.45578e+06
3.42275e+06
3.3915e+06
3.36191e+06
4.16557e+06
4.09988e+06
4.03297e+06
3.96935e+06
3.90913e+06
3.8521e+06
3.79809e+06
3.74694e+06
3.69851e+06
3.65265e+06
3.60925e+06
3.56817e+06
3.52929e+06
3.4925e+06
3.45767e+06
3.42472e+06
3.39353e+06
3.364e+06
4.16579e+06
4.10021e+06
4.03342e+06
3.9699e+06
3.90976e+06
3.8528e+06
3.79886e+06
3.74779e+06
3.69943e+06
3.65364e+06
3.61031e+06
3.5693e+06
3.53048e+06
3.49374e+06
3.45898e+06
3.42607e+06
3.39492e+06
3.36543e+06
4.1657e+06
4.10038e+06
4.03371e+06
3.97026e+06
3.91018e+06
3.85328e+06
3.79939e+06
3.74836e+06
3.70004e+06
3.65431e+06
3.61102e+06
3.57005e+06
3.53127e+06
3.49458e+06
3.45985e+06
3.42697e+06
3.39586e+06
3.36639e+06
4.16564e+06
4.10048e+06
4.03389e+06
3.97049e+06
3.91045e+06
3.85358e+06
3.79972e+06
3.74872e+06
3.70044e+06
3.65474e+06
3.61148e+06
3.57054e+06
3.53179e+06
3.49512e+06
3.46041e+06
3.42756e+06
3.39646e+06
3.36701e+06
4.16564e+06
4.10054e+06
4.03399e+06
3.97063e+06
3.91061e+06
3.85376e+06
3.79993e+06
3.74895e+06
3.70069e+06
3.655e+06
3.61176e+06
3.57083e+06
3.5321e+06
3.49544e+06
3.46075e+06
3.42791e+06
3.39682e+06
3.36738e+06
4.16564e+06
4.10057e+06
4.03405e+06
3.9707e+06
3.9107e+06
3.85386e+06
3.80004e+06
3.74907e+06
3.70082e+06
3.65514e+06
3.61191e+06
3.57099e+06
3.53227e+06
3.49562e+06
3.46093e+06
3.4281e+06
3.39702e+06
3.36758e+06
4.16565e+06
4.10058e+06
4.03407e+06
3.97073e+06
3.91073e+06
3.8539e+06
3.80008e+06
3.74912e+06
3.70087e+06
3.6552e+06
3.61197e+06
3.57106e+06
3.53233e+06
3.49569e+06
3.461e+06
3.42817e+06
3.39709e+06
3.36767e+06
2.69282e+06
2.6926e+06
2.69217e+06
2.69151e+06
2.69063e+06
2.68952e+06
2.68817e+06
2.68658e+06
2.68475e+06
2.68268e+06
2.68036e+06
2.67779e+06
2.67497e+06
2.67189e+06
2.66857e+06
2.66498e+06
2.66114e+06
2.65705e+06
2.6527e+06
2.64809e+06
2.64323e+06
2.63811e+06
2.63274e+06
2.62712e+06
2.62125e+06
2.61513e+06
2.60876e+06
2.60215e+06
2.5953e+06
2.58821e+06
2.58088e+06
2.57332e+06
2.56553e+06
2.55751e+06
2.54927e+06
2.54081e+06
2.53213e+06
2.52324e+06
2.51414e+06
2.50483e+06
2.49532e+06
2.48561e+06
2.4757e+06
2.4656e+06
2.45531e+06
2.44483e+06
2.43417e+06
2.42334e+06
2.41233e+06
2.40114e+06
2.38979e+06
2.37827e+06
2.36659e+06
2.35475e+06
2.34276e+06
2.33061e+06
2.31831e+06
2.30587e+06
2.29328e+06
2.28056e+06
2.26769e+06
2.25469e+06
2.24156e+06
2.2283e+06
2.21492e+06
2.20141e+06
2.18778e+06
2.17403e+06
2.16016e+06
2.14618e+06
2.13209e+06
2.11789e+06
2.10358e+06
2.08916e+06
2.07465e+06
2.06003e+06
2.04532e+06
2.0305e+06
2.0156e+06
2.0006e+06
1.98551e+06
1.97033e+06
1.95506e+06
1.93971e+06
1.92427e+06
1.90876e+06
1.89316e+06
1.87748e+06
1.86173e+06
1.8459e+06
1.83e+06
1.81403e+06
1.79799e+06
1.78188e+06
1.7657e+06
1.74946e+06
1.73315e+06
1.71679e+06
1.70036e+06
1.68387e+06
1.66733e+06
1.65073e+06
1.63408e+06
1.61738e+06
1.60062e+06
1.58382e+06
1.56697e+06
1.55007e+06
1.53312e+06
1.51614e+06
1.49911e+06
1.48204e+06
1.46493e+06
1.44778e+06
1.4306e+06
1.41339e+06
1.39614e+06
1.37887e+06
1.36156e+06
1.34423e+06
1.32687e+06
1.30949e+06
1.29209e+06
1.27467e+06
1.25723e+06
1.23977e+06
1.2223e+06
1.20482e+06
1.18733e+06
1.16983e+06
1.15232e+06
1.13481e+06
1.1173e+06
1.09979e+06
1.08228e+06
1.06478e+06
1.04728e+06
1.0298e+06
1.01233e+06
994867
977426
960006
942608
925235
907890
890577
873297
856054
838850
821689
804574
787509
770495
753537
736638
719802
703032
686332
669705
653156
636689
620306
604014
587816
571716
555720
539832
524058
508403
492873
477475
462216
447104
432148
417361
402757
388356
374187
360300
346804
2.69379e+06
2.69357e+06
2.69314e+06
2.69248e+06
2.69159e+06
2.69047e+06
2.68911e+06
2.68752e+06
2.68568e+06
2.68359e+06
2.68126e+06
2.67867e+06
2.67584e+06
2.67275e+06
2.6694e+06
2.6658e+06
2.66195e+06
2.65783e+06
2.65346e+06
2.64883e+06
2.64395e+06
2.63881e+06
2.63342e+06
2.62778e+06
2.62189e+06
2.61575e+06
2.60936e+06
2.60273e+06
2.59586e+06
2.58875e+06
2.5814e+06
2.57382e+06
2.56601e+06
2.55797e+06
2.54972e+06
2.54124e+06
2.53254e+06
2.52363e+06
2.51451e+06
2.50519e+06
2.49566e+06
2.48593e+06
2.47601e+06
2.46589e+06
2.45559e+06
2.4451e+06
2.43443e+06
2.42358e+06
2.41256e+06
2.40136e+06
2.39e+06
2.37847e+06
2.36678e+06
2.35493e+06
2.34293e+06
2.33077e+06
2.31846e+06
2.30601e+06
2.29342e+06
2.28069e+06
2.26781e+06
2.25481e+06
2.24167e+06
2.22841e+06
2.21501e+06
2.2015e+06
2.18786e+06
2.17411e+06
2.16024e+06
2.14625e+06
2.13215e+06
2.11795e+06
2.10364e+06
2.08922e+06
2.0747e+06
2.06008e+06
2.04536e+06
2.03055e+06
2.01564e+06
2.00064e+06
1.98554e+06
1.97036e+06
1.95509e+06
1.93974e+06
1.9243e+06
1.90878e+06
1.89318e+06
1.87751e+06
1.86175e+06
1.84592e+06
1.83002e+06
1.81405e+06
1.798e+06
1.78189e+06
1.76571e+06
1.74947e+06
1.73316e+06
1.7168e+06
1.70037e+06
1.68388e+06
1.66734e+06
1.65074e+06
1.63409e+06
1.61739e+06
1.60063e+06
1.58382e+06
1.56697e+06
1.55007e+06
1.53313e+06
1.51614e+06
1.49911e+06
1.48204e+06
1.46493e+06
1.44779e+06
1.43061e+06
1.41339e+06
1.39615e+06
1.37887e+06
1.36156e+06
1.34423e+06
1.32687e+06
1.30949e+06
1.29209e+06
1.27467e+06
1.25723e+06
1.23977e+06
1.2223e+06
1.20482e+06
1.18733e+06
1.16983e+06
1.15232e+06
1.13481e+06
1.1173e+06
1.09979e+06
1.08228e+06
1.06478e+06
1.04728e+06
1.0298e+06
1.01233e+06
994867
977427
960006
942608
925235
907891
890577
873297
856054
838850
821689
804574
787509
770495
753537
736638
719802
703032
686332
669705
653156
636688
620306
604014
587815
571715
555719
539831
524057
508401
492871
477472
462212
447099
432142
417353
402746
388340
374161
360254
346694
2.69574e+06
2.69552e+06
2.69508e+06
2.69441e+06
2.69351e+06
2.69238e+06
2.691e+06
2.68939e+06
2.68753e+06
2.68542e+06
2.68306e+06
2.68045e+06
2.67758e+06
2.67446e+06
2.67108e+06
2.66745e+06
2.66355e+06
2.6594e+06
2.65499e+06
2.65033e+06
2.6454e+06
2.64023e+06
2.63479e+06
2.62911e+06
2.62318e+06
2.61699e+06
2.61056e+06
2.60389e+06
2.59698e+06
2.58982e+06
2.58244e+06
2.57482e+06
2.56697e+06
2.5589e+06
2.5506e+06
2.54208e+06
2.53335e+06
2.52441e+06
2.51526e+06
2.5059e+06
2.49634e+06
2.48658e+06
2.47663e+06
2.46648e+06
2.45615e+06
2.44564e+06
2.43494e+06
2.42407e+06
2.41302e+06
2.4018e+06
2.39042e+06
2.37887e+06
2.36716e+06
2.35529e+06
2.34326e+06
2.33109e+06
2.31877e+06
2.3063e+06
2.29369e+06
2.28094e+06
2.26806e+06
2.25504e+06
2.24189e+06
2.22861e+06
2.21521e+06
2.20168e+06
2.18803e+06
2.17427e+06
2.16039e+06
2.14639e+06
2.13229e+06
2.11808e+06
2.10376e+06
2.08933e+06
2.07481e+06
2.06018e+06
2.04546e+06
2.03064e+06
2.01572e+06
2.00071e+06
1.98562e+06
1.97043e+06
1.95516e+06
1.9398e+06
1.92436e+06
1.90884e+06
1.89323e+06
1.87755e+06
1.86179e+06
1.84596e+06
1.83006e+06
1.81408e+06
1.79803e+06
1.78192e+06
1.76574e+06
1.74949e+06
1.73319e+06
1.71682e+06
1.70039e+06
1.6839e+06
1.66736e+06
1.65076e+06
1.6341e+06
1.6174e+06
1.60064e+06
1.58384e+06
1.56698e+06
1.55008e+06
1.53314e+06
1.51615e+06
1.49912e+06
1.48205e+06
1.46494e+06
1.44779e+06
1.43061e+06
1.4134e+06
1.39615e+06
1.37887e+06
1.36157e+06
1.34424e+06
1.32688e+06
1.3095e+06
1.29209e+06
1.27467e+06
1.25723e+06
1.23978e+06
1.2223e+06
1.20482e+06
1.18733e+06
1.16983e+06
1.15232e+06
1.13481e+06
1.1173e+06
1.09979e+06
1.08228e+06
1.06478e+06
1.04728e+06
1.0298e+06
1.01233e+06
994868
977427
960006
942608
925235
907891
890577
873297
856054
838850
821690
804575
787509
770495
753537
736638
719802
703032
686332
669705
653156
636688
620306
604013
587814
571714
555718
539829
524054
508398
492867
477467
462205
447090
432130
417337
402724
388307
374111
360169
346522
2.69869e+06
2.69846e+06
2.69801e+06
2.69733e+06
2.69641e+06
2.69525e+06
2.69385e+06
2.69221e+06
2.69032e+06
2.68817e+06
2.68577e+06
2.68312e+06
2.68021e+06
2.67704e+06
2.67361e+06
2.66992e+06
2.66597e+06
2.66176e+06
2.6573e+06
2.65257e+06
2.64759e+06
2.64235e+06
2.63685e+06
2.6311e+06
2.6251e+06
2.61886e+06
2.61237e+06
2.60563e+06
2.59865e+06
2.59144e+06
2.58399e+06
2.57632e+06
2.56841e+06
2.56028e+06
2.55192e+06
2.54335e+06
2.53457e+06
2.52557e+06
2.51637e+06
2.50696e+06
2.49736e+06
2.48755e+06
2.47756e+06
2.46737e+06
2.457e+06
2.44644e+06
2.43571e+06
2.42479e+06
2.41371e+06
2.40246e+06
2.39104e+06
2.37946e+06
2.36772e+06
2.35582e+06
2.34377e+06
2.33157e+06
2.31922e+06
2.30673e+06
2.2941e+06
2.28132e+06
2.26842e+06
2.25538e+06
2.24221e+06
2.22891e+06
2.21549e+06
2.20195e+06
2.18829e+06
2.17451e+06
2.16061e+06
2.14661e+06
2.13249e+06
2.11826e+06
2.10393e+06
2.0895e+06
2.07496e+06
2.06033e+06
2.04559e+06
2.03077e+06
2.01584e+06
2.00083e+06
1.98572e+06
1.97053e+06
1.95525e+06
1.93989e+06
1.92444e+06
1.90891e+06
1.8933e+06
1.87762e+06
1.86186e+06
1.84602e+06
1.83011e+06
1.81413e+06
1.79808e+06
1.78196e+06
1.76578e+06
1.74953e+06
1.73322e+06
1.71685e+06
1.70042e+06
1.68393e+06
1.66738e+06
1.65078e+06
1.63413e+06
1.61742e+06
1.60066e+06
1.58385e+06
1.567e+06
1.5501e+06
1.53315e+06
1.51616e+06
1.49913e+06
1.48206e+06
1.46495e+06
1.4478e+06
1.43062e+06
1.4134e+06
1.39616e+06
1.37888e+06
1.36157e+06
1.34424e+06
1.32688e+06
1.3095e+06
1.2921e+06
1.27467e+06
1.25723e+06
1.23978e+06
1.22231e+06
1.20482e+06
1.18733e+06
1.16983e+06
1.15233e+06
1.13481e+06
1.1173e+06
1.09979e+06
1.08228e+06
1.06478e+06
1.04729e+06
1.0298e+06
1.01233e+06
994868
977428
960007
942609
925236
907891
890578
873298
856054
838851
821690
804575
787509
770495
753537
736638
719802
703032
686331
669705
653155
636687
620305
604012
587813
571712
555715
539826
524050
508393
492861
477459
462195
447077
432113
417313
402691
388261
374042
360056
346322
2.70264e+06
2.70241e+06
2.70194e+06
2.70124e+06
2.7003e+06
2.69911e+06
2.69768e+06
2.69599e+06
2.69406e+06
2.69186e+06
2.68941e+06
2.6867e+06
2.68372e+06
2.68049e+06
2.67699e+06
2.67323e+06
2.66921e+06
2.66492e+06
2.66037e+06
2.65556e+06
2.6505e+06
2.64517e+06
2.63959e+06
2.63376e+06
2.62768e+06
2.62135e+06
2.61477e+06
2.60795e+06
2.60089e+06
2.59359e+06
2.58606e+06
2.57831e+06
2.57032e+06
2.56211e+06
2.55368e+06
2.54504e+06
2.53618e+06
2.52712e+06
2.51785e+06
2.50838e+06
2.49871e+06
2.48884e+06
2.47879e+06
2.46854e+06
2.45811e+06
2.44751e+06
2.43672e+06
2.42576e+06
2.41463e+06
2.40333e+06
2.39187e+06
2.38024e+06
2.36846e+06
2.35653e+06
2.34444e+06
2.3322e+06
2.31982e+06
2.3073e+06
2.29463e+06
2.28183e+06
2.2689e+06
2.25583e+06
2.24264e+06
2.22932e+06
2.21587e+06
2.20231e+06
2.18863e+06
2.17483e+06
2.16091e+06
2.14689e+06
2.13276e+06
2.11851e+06
2.10417e+06
2.08972e+06
2.07517e+06
2.06052e+06
2.04578e+06
2.03094e+06
2.01601e+06
2.00098e+06
1.98587e+06
1.97067e+06
1.95538e+06
1.94001e+06
1.92455e+06
1.90901e+06
1.8934e+06
1.87771e+06
1.86194e+06
1.8461e+06
1.83018e+06
1.8142e+06
1.79814e+06
1.78202e+06
1.76583e+06
1.74958e+06
1.73327e+06
1.71689e+06
1.70046e+06
1.68396e+06
1.66742e+06
1.65081e+06
1.63415e+06
1.61744e+06
1.60068e+06
1.58387e+06
1.56702e+06
1.55011e+06
1.53317e+06
1.51617e+06
1.49914e+06
1.48207e+06
1.46496e+06
1.44781e+06
1.43063e+06
1.41341e+06
1.39617e+06
1.37889e+06
1.36158e+06
1.34425e+06
1.32689e+06
1.30951e+06
1.2921e+06
1.27468e+06
1.25724e+06
1.23978e+06
1.22231e+06
1.20483e+06
1.18733e+06
1.16983e+06
1.15233e+06
1.13482e+06
1.1173e+06
1.09979e+06
1.08229e+06
1.06478e+06
1.04729e+06
1.0298e+06
1.01233e+06
994869
977428
960007
942609
925236
907892
890578
873298
856055
838851
821690
804575
787509
770495
753537
736638
719802
703032
686331
669704
653155
636686
620304
604010
587811
571710
555712
539822
524045
508387
492853
477449
462182
447059
432090
417283
402649
388202
373956
359925
346111
2.70763e+06
2.70738e+06
2.7069e+06
2.70617e+06
2.7052e+06
2.70398e+06
2.7025e+06
2.70076e+06
2.69877e+06
2.69651e+06
2.69399e+06
2.6912e+06
2.68815e+06
2.68483e+06
2.68124e+06
2.67738e+06
2.67326e+06
2.66888e+06
2.66423e+06
2.65932e+06
2.65414e+06
2.64871e+06
2.64303e+06
2.63708e+06
2.63089e+06
2.62445e+06
2.61777e+06
2.61084e+06
2.60368e+06
2.59628e+06
2.58865e+06
2.58079e+06
2.5727e+06
2.5644e+06
2.55588e+06
2.54714e+06
2.5382e+06
2.52904e+06
2.51969e+06
2.51014e+06
2.50039e+06
2.49044e+06
2.48031e+06
2.47e+06
2.4595e+06
2.44883e+06
2.43798e+06
2.42696e+06
2.41577e+06
2.40441e+06
2.39289e+06
2.38122e+06
2.36939e+06
2.3574e+06
2.34527e+06
2.33299e+06
2.32056e+06
2.308e+06
2.2953e+06
2.28246e+06
2.26949e+06
2.25639e+06
2.24317e+06
2.22982e+06
2.21635e+06
2.20275e+06
2.18905e+06
2.17522e+06
2.16129e+06
2.14724e+06
2.13309e+06
2.11883e+06
2.10446e+06
2.09e+06
2.07543e+06
2.06077e+06
2.04601e+06
2.03115e+06
2.01621e+06
2.00117e+06
1.98604e+06
1.97083e+06
1.95553e+06
1.94015e+06
1.92469e+06
1.90914e+06
1.89352e+06
1.87782e+06
1.86204e+06
1.84619e+06
1.83027e+06
1.81428e+06
1.79822e+06
1.78209e+06
1.7659e+06
1.74964e+06
1.73332e+06
1.71694e+06
1.70051e+06
1.68401e+06
1.66746e+06
1.65085e+06
1.63419e+06
1.61748e+06
1.60071e+06
1.5839e+06
1.56704e+06
1.55014e+06
1.53319e+06
1.51619e+06
1.49916e+06
1.48209e+06
1.46497e+06
1.44783e+06
1.43064e+06
1.41342e+06
1.39618e+06
1.3789e+06
1.36159e+06
1.34425e+06
1.32689e+06
1.30951e+06
1.29211e+06
1.27468e+06
1.25724e+06
1.23979e+06
1.22231e+06
1.20483e+06
1.18734e+06
1.16984e+06
1.15233e+06
1.13482e+06
1.11731e+06
1.0998e+06
1.08229e+06
1.06478e+06
1.04729e+06
1.0298e+06
1.01233e+06
994870
977429
960008
942610
925237
907892
890579
873299
856055
838851
821690
804575
787509
770496
753537
736638
719802
703031
686331
669704
653154
636685
620302
604009
587809
571707
555709
539818
524039
508379
492843
477436
462166
447038
432062
417246
402600
388134
373859
359782
345899
2.71369e+06
2.71343e+06
2.71292e+06
2.71216e+06
2.71115e+06
2.70988e+06
2.70834e+06
2.70654e+06
2.70447e+06
2.70213e+06
2.69952e+06
2.69664e+06
2.69349e+06
2.69006e+06
2.68637e+06
2.6824e+06
2.67816e+06
2.67365e+06
2.66887e+06
2.66383e+06
2.65853e+06
2.65297e+06
2.64715e+06
2.64107e+06
2.63475e+06
2.62818e+06
2.62136e+06
2.6143e+06
2.60701e+06
2.59949e+06
2.59173e+06
2.58375e+06
2.57555e+06
2.56713e+06
2.55849e+06
2.54965e+06
2.54059e+06
2.53134e+06
2.52188e+06
2.51223e+06
2.50239e+06
2.49235e+06
2.48214e+06
2.47174e+06
2.46116e+06
2.4504e+06
2.43948e+06
2.42838e+06
2.41712e+06
2.4057e+06
2.39411e+06
2.38238e+06
2.37048e+06
2.35844e+06
2.34626e+06
2.33392e+06
2.32145e+06
2.30884e+06
2.29609e+06
2.28321e+06
2.2702e+06
2.25706e+06
2.2438e+06
2.23041e+06
2.21691e+06
2.20328e+06
2.18954e+06
2.17569e+06
2.16173e+06
2.14766e+06
2.13348e+06
2.11919e+06
2.10481e+06
2.09032e+06
2.07574e+06
2.06105e+06
2.04628e+06
2.03141e+06
2.01644e+06
2.00139e+06
1.98625e+06
1.97103e+06
1.95572e+06
1.94032e+06
1.92485e+06
1.90929e+06
1.89366e+06
1.87795e+06
1.86216e+06
1.8463e+06
1.83037e+06
1.81437e+06
1.79831e+06
1.78217e+06
1.76598e+06
1.74971e+06
1.73339e+06
1.71701e+06
1.70056e+06
1.68406e+06
1.66751e+06
1.65089e+06
1.63423e+06
1.61751e+06
1.60075e+06
1.58393e+06
1.56707e+06
1.55016e+06
1.53321e+06
1.51622e+06
1.49918e+06
1.48211e+06
1.46499e+06
1.44784e+06
1.43066e+06
1.41344e+06
1.39619e+06
1.37891e+06
1.3616e+06
1.34426e+06
1.3269e+06
1.30952e+06
1.29212e+06
1.27469e+06
1.25725e+06
1.23979e+06
1.22232e+06
1.20484e+06
1.18734e+06
1.16984e+06
1.15233e+06
1.13482e+06
1.11731e+06
1.0998e+06
1.08229e+06
1.06479e+06
1.04729e+06
1.0298e+06
1.01233e+06
994871
977430
960009
942611
925238
907893
890579
873299
856056
838852
821691
804576
787510
770496
753538
736638
719802
703031
686330
669703
653153
636684
620301
604007
587806
571704
555704
539812
524032
508370
492831
477422
462147
447014
432031
417205
402544
388058
373753
359634
345690
2.72085e+06
2.72057e+06
2.72004e+06
2.71924e+06
2.71818e+06
2.71685e+06
2.71524e+06
2.71336e+06
2.7112e+06
2.70877e+06
2.70605e+06
2.70305e+06
2.69978e+06
2.69622e+06
2.69239e+06
2.68828e+06
2.68389e+06
2.67924e+06
2.67431e+06
2.66911e+06
2.66365e+06
2.65793e+06
2.65196e+06
2.64572e+06
2.63924e+06
2.63251e+06
2.62554e+06
2.61833e+06
2.61089e+06
2.60322e+06
2.59532e+06
2.58719e+06
2.57885e+06
2.57029e+06
2.56153e+06
2.55255e+06
2.54337e+06
2.534e+06
2.52442e+06
2.51466e+06
2.5047e+06
2.49456e+06
2.48424e+06
2.47374e+06
2.46307e+06
2.45222e+06
2.44121e+06
2.43003e+06
2.41869e+06
2.40719e+06
2.39553e+06
2.38372e+06
2.37176e+06
2.35965e+06
2.3474e+06
2.335e+06
2.32247e+06
2.3098e+06
2.297e+06
2.28407e+06
2.27102e+06
2.25783e+06
2.24453e+06
2.2311e+06
2.21755e+06
2.20389e+06
2.19012e+06
2.17623e+06
2.16224e+06
2.14814e+06
2.13393e+06
2.11962e+06
2.10521e+06
2.0907e+06
2.07609e+06
2.06139e+06
2.04659e+06
2.0317e+06
2.01672e+06
2.00165e+06
1.9865e+06
1.97126e+06
1.95593e+06
1.94052e+06
1.92503e+06
1.90947e+06
1.89382e+06
1.8781e+06
1.8623e+06
1.84643e+06
1.83049e+06
1.81449e+06
1.79841e+06
1.78227e+06
1.76606e+06
1.7498e+06
1.73347e+06
1.71708e+06
1.70063e+06
1.68412e+06
1.66756e+06
1.65095e+06
1.63428e+06
1.61756e+06
1.60079e+06
1.58397e+06
1.56711e+06
1.5502e+06
1.53324e+06
1.51624e+06
1.49921e+06
1.48213e+06
1.46501e+06
1.44786e+06
1.43067e+06
1.41345e+06
1.3962e+06
1.37892e+06
1.36161e+06
1.34427e+06
1.32691e+06
1.30953e+06
1.29212e+06
1.2747e+06
1.25726e+06
1.2398e+06
1.22232e+06
1.20484e+06
1.18735e+06
1.16984e+06
1.15234e+06
1.13482e+06
1.11731e+06
1.0998e+06
1.08229e+06
1.06479e+06
1.04729e+06
1.0298e+06
1.01233e+06
994873
977432
960011
942612
925239
907894
890580
873300
856056
838853
821691
804576
787510
770496
753538
736638
719802
703031
686330
669702
653152
636683
620299
604004
587803
571700
555699
539806
524025
508360
492819
477405
462126
446987
431996
417159
402483
387976
373643
359483
345487
2.72917e+06
2.72888e+06
2.72831e+06
2.72747e+06
2.72634e+06
2.72494e+06
2.72325e+06
2.72127e+06
2.719e+06
2.71644e+06
2.7136e+06
2.71046e+06
2.70703e+06
2.70332e+06
2.69933e+06
2.69505e+06
2.69049e+06
2.68565e+06
2.68055e+06
2.67517e+06
2.66952e+06
2.66362e+06
2.65746e+06
2.65104e+06
2.64437e+06
2.63746e+06
2.63031e+06
2.62292e+06
2.61531e+06
2.60746e+06
2.59939e+06
2.5911e+06
2.5826e+06
2.57389e+06
2.56497e+06
2.55584e+06
2.54652e+06
2.53701e+06
2.5273e+06
2.5174e+06
2.50732e+06
2.49706e+06
2.48663e+06
2.47601e+06
2.46523e+06
2.45428e+06
2.44317e+06
2.43189e+06
2.42046e+06
2.40887e+06
2.39713e+06
2.38523e+06
2.37319e+06
2.36101e+06
2.34869e+06
2.33622e+06
2.32363e+06
2.3109e+06
2.29804e+06
2.28505e+06
2.27194e+06
2.2587e+06
2.24535e+06
2.23188e+06
2.21829e+06
2.20458e+06
2.19077e+06
2.17685e+06
2.16282e+06
2.14868e+06
2.13444e+06
2.1201e+06
2.10566e+06
2.09112e+06
2.07649e+06
2.06176e+06
2.04694e+06
2.03203e+06
2.01703e+06
2.00195e+06
1.98677e+06
1.97151e+06
1.95617e+06
1.94075e+06
1.92524e+06
1.90966e+06
1.894e+06
1.87827e+06
1.86246e+06
1.84658e+06
1.83063e+06
1.81461e+06
1.79853e+06
1.78238e+06
1.76617e+06
1.74989e+06
1.73355e+06
1.71716e+06
1.7007e+06
1.68419e+06
1.66763e+06
1.65101e+06
1.63433e+06
1.61761e+06
1.60084e+06
1.58401e+06
1.56714e+06
1.55023e+06
1.53327e+06
1.51627e+06
1.49923e+06
1.48215e+06
1.46504e+06
1.44788e+06
1.43069e+06
1.41347e+06
1.39622e+06
1.37894e+06
1.36162e+06
1.34429e+06
1.32692e+06
1.30954e+06
1.29213e+06
1.27471e+06
1.25726e+06
1.2398e+06
1.22233e+06
1.20485e+06
1.18735e+06
1.16985e+06
1.15234e+06
1.13483e+06
1.11732e+06
1.0998e+06
1.08229e+06
1.06479e+06
1.04729e+06
1.02981e+06
1.01233e+06
994874
977433
960012
942613
925240
907895
890581
873301
856057
838853
821692
804577
787510
770496
753538
736639
719802
703031
686330
669702
653151
636682
620297
604002
587800
571696
555694
539799
524016
508350
492805
477388
462103
446958
431958
417110
402419
387891
373530
359334
345291
2.73872e+06
2.7384e+06
2.73779e+06
2.73689e+06
2.73569e+06
2.7342e+06
2.7324e+06
2.7303e+06
2.7279e+06
2.7252e+06
2.7222e+06
2.71889e+06
2.71529e+06
2.71139e+06
2.7072e+06
2.70272e+06
2.69796e+06
2.69291e+06
2.68759e+06
2.682e+06
2.67614e+06
2.67002e+06
2.66364e+06
2.65701e+06
2.65013e+06
2.64301e+06
2.63566e+06
2.62807e+06
2.62025e+06
2.61221e+06
2.60395e+06
2.59547e+06
2.58679e+06
2.5779e+06
2.5688e+06
2.55951e+06
2.55003e+06
2.54036e+06
2.5305e+06
2.52046e+06
2.51024e+06
2.49984e+06
2.48928e+06
2.47854e+06
2.46764e+06
2.45657e+06
2.44535e+06
2.43397e+06
2.42243e+06
2.41074e+06
2.3989e+06
2.38692e+06
2.37479e+06
2.36252e+06
2.35012e+06
2.33758e+06
2.32491e+06
2.31211e+06
2.29919e+06
2.28614e+06
2.27296e+06
2.25967e+06
2.24626e+06
2.23274e+06
2.2191e+06
2.20535e+06
2.19149e+06
2.17753e+06
2.16346e+06
2.14928e+06
2.13501e+06
2.12063e+06
2.10616e+06
2.09159e+06
2.07693e+06
2.06218e+06
2.04733e+06
2.0324e+06
2.01738e+06
2.00227e+06
1.98708e+06
1.9718e+06
1.95644e+06
1.941e+06
1.92548e+06
1.90988e+06
1.89421e+06
1.87846e+06
1.86264e+06
1.84674e+06
1.83078e+06
1.81475e+06
1.79866e+06
1.7825e+06
1.76628e+06
1.74999e+06
1.73365e+06
1.71725e+06
1.70079e+06
1.68427e+06
1.6677e+06
1.65107e+06
1.63439e+06
1.61766e+06
1.60089e+06
1.58406e+06
1.56719e+06
1.55027e+06
1.53331e+06
1.51631e+06
1.49926e+06
1.48218e+06
1.46506e+06
1.44791e+06
1.43071e+06
1.41349e+06
1.39624e+06
1.37895e+06
1.36164e+06
1.3443e+06
1.32694e+06
1.30955e+06
1.29214e+06
1.27472e+06
1.25727e+06
1.23981e+06
1.22234e+06
1.20485e+06
1.18736e+06
1.16985e+06
1.15234e+06
1.13483e+06
1.11732e+06
1.09981e+06
1.0823e+06
1.06479e+06
1.0473e+06
1.02981e+06
1.01234e+06
994876
977435
960013
942615
925242
907896
890582
873302
856058
838854
821693
804577
787511
770497
753538
736639
719802
703031
686329
669701
653150
636680
620295
603999
587797
571692
555689
539792
524007
508338
492790
477369
462079
446927
431918
417058
402352
387804
373417
359186
345104
2.74957e+06
2.74922e+06
2.74856e+06
2.74759e+06
2.7463e+06
2.7447e+06
2.74277e+06
2.74053e+06
2.73797e+06
2.73509e+06
2.7319e+06
2.72839e+06
2.72457e+06
2.72045e+06
2.71603e+06
2.71132e+06
2.70631e+06
2.70103e+06
2.69546e+06
2.68962e+06
2.68351e+06
2.67714e+06
2.67051e+06
2.66364e+06
2.65652e+06
2.64916e+06
2.64157e+06
2.63375e+06
2.6257e+06
2.61744e+06
2.60897e+06
2.60028e+06
2.5914e+06
2.58231e+06
2.57302e+06
2.56355e+06
2.55389e+06
2.54404e+06
2.53402e+06
2.52382e+06
2.51344e+06
2.5029e+06
2.49219e+06
2.48131e+06
2.47028e+06
2.45909e+06
2.44774e+06
2.43624e+06
2.42459e+06
2.41279e+06
2.40085e+06
2.38877e+06
2.37654e+06
2.36418e+06
2.35169e+06
2.33907e+06
2.32632e+06
2.31344e+06
2.30044e+06
2.28732e+06
2.27408e+06
2.26073e+06
2.24726e+06
2.23368e+06
2.21999e+06
2.20619e+06
2.19228e+06
2.17827e+06
2.16416e+06
2.14994e+06
2.13563e+06
2.12122e+06
2.10671e+06
2.09211e+06
2.07742e+06
2.06264e+06
2.04776e+06
2.03281e+06
2.01776e+06
2.00263e+06
1.98741e+06
1.97211e+06
1.95673e+06
1.94127e+06
1.92574e+06
1.91012e+06
1.89443e+06
1.87867e+06
1.86283e+06
1.84692e+06
1.83095e+06
1.81491e+06
1.7988e+06
1.78263e+06
1.7664e+06
1.75011e+06
1.73376e+06
1.71734e+06
1.70088e+06
1.68435e+06
1.66777e+06
1.65114e+06
1.63446e+06
1.61772e+06
1.60094e+06
1.58411e+06
1.56724e+06
1.55031e+06
1.53335e+06
1.51634e+06
1.4993e+06
1.48221e+06
1.46509e+06
1.44793e+06
1.43074e+06
1.41351e+06
1.39626e+06
1.37897e+06
1.36166e+06
1.34432e+06
1.32695e+06
1.30956e+06
1.29215e+06
1.27473e+06
1.25728e+06
1.23982e+06
1.22234e+06
1.20486e+06
1.18736e+06
1.16986e+06
1.15235e+06
1.13484e+06
1.11732e+06
1.09981e+06
1.0823e+06
1.0648e+06
1.0473e+06
1.02981e+06
1.01234e+06
994878
977437
960015
942616
925243
907898
890583
873303
856059
838855
821694
804578
787511
770497
753538
736639
719802
703030
686329
669700
653149
636679
620293
603996
587793
571687
555683
539785
523997
508326
492774
477349
462054
446895
431877
417005
402284
387717
373304
359044
344926
2.76181e+06
2.76142e+06
2.7607e+06
2.75965e+06
2.75825e+06
2.75651e+06
2.75443e+06
2.75201e+06
2.74926e+06
2.74617e+06
2.74274e+06
2.73899e+06
2.73493e+06
2.73054e+06
2.72585e+06
2.72086e+06
2.71557e+06
2.71e+06
2.70414e+06
2.69802e+06
2.69162e+06
2.68497e+06
2.67806e+06
2.67091e+06
2.66351e+06
2.65589e+06
2.64803e+06
2.63995e+06
2.63166e+06
2.62315e+06
2.61444e+06
2.60552e+06
2.59641e+06
2.58711e+06
2.57761e+06
2.56794e+06
2.55808e+06
2.54804e+06
2.53784e+06
2.52746e+06
2.51691e+06
2.50621e+06
2.49534e+06
2.48432e+06
2.47314e+06
2.46181e+06
2.45033e+06
2.4387e+06
2.42693e+06
2.41501e+06
2.40296e+06
2.39077e+06
2.37844e+06
2.36598e+06
2.35339e+06
2.34068e+06
2.32784e+06
2.31488e+06
2.3018e+06
2.28861e+06
2.2753e+06
2.26188e+06
2.24834e+06
2.2347e+06
2.22095e+06
2.2071e+06
2.19314e+06
2.17908e+06
2.16491e+06
2.15066e+06
2.1363e+06
2.12185e+06
2.10731e+06
2.09267e+06
2.07794e+06
2.06313e+06
2.04823e+06
2.03324e+06
2.01817e+06
2.00301e+06
1.98777e+06
1.97245e+06
1.95705e+06
1.94157e+06
1.92601e+06
1.91038e+06
1.89467e+06
1.87889e+06
1.86304e+06
1.84712e+06
1.83113e+06
1.81508e+06
1.79896e+06
1.78278e+06
1.76653e+06
1.75023e+06
1.73387e+06
1.71745e+06
1.70097e+06
1.68444e+06
1.66786e+06
1.65122e+06
1.63453e+06
1.61779e+06
1.601e+06
1.58417e+06
1.56729e+06
1.55036e+06
1.53339e+06
1.51638e+06
1.49933e+06
1.48225e+06
1.46512e+06
1.44796e+06
1.43076e+06
1.41354e+06
1.39628e+06
1.37899e+06
1.36167e+06
1.34433e+06
1.32697e+06
1.30958e+06
1.29217e+06
1.27474e+06
1.25729e+06
1.23983e+06
1.22235e+06
1.20487e+06
1.18737e+06
1.16986e+06