/*--------------------------------*- C++ -*----------------------------------*\
  =========                 |
  \\      /  F ield         | OpenFOAM: The Open Source CFD Toolbox
   \\    /   O peration     | Website:  https://openfoam.org
    \\  /    A nd           | Version:  7
     \\/     M anipulation  |
\*---------------------------------------------------------------------------*/
FoamFile
{
    version     2.0;
    format      ascii;
    class       volVectorField;
    location    "0.087";
    object      U;
}
// * * * * * * * * * * * * * * * * * * * * * * * * * * * * * * * * * * * * * //

dimensions      [0 1 -1 0 0 0 0];

internalField   nonuniform List<vector> 
12225
(
(4.72101 0.159469 0)
(4.09118 0.110287 0)
(3.65916 0.0908699 0)
(3.29228 0.0813663 0)
(2.92712 0.071455 0)
(2.58648 0.0585196 0)
(2.27874 0.0486581 0)
(1.99187 0.0439646 0)
(1.7204 0.0404284 0)
(1.47303 0.0340042 0)
(1.25759 0.0254682 0)
(1.08034 0.0168299 0)
(0.929738 0.0116361 0)
(0.8083 0.0096038 0)
(0.685125 0.00908155 0)
(0.595637 0.0124825 0)
(0.445058 0.00931455 0)
(0.406501 -0.00625193 0)
(5.07096 0.133986 0)
(4.87517 0.0795725 0)
(4.7405 0.0891737 0)
(4.65084 0.0976587 0)
(4.55678 0.100905 0)
(4.44167 0.101594 0)
(4.29796 0.103011 0)
(4.13142 0.104983 0)
(3.95666 0.104816 0)
(3.79553 0.101277 0)
(3.6482 0.0943481 0)
(3.51882 0.0866094 0)
(3.37965 0.0798664 0)
(3.24505 0.07592 0)
(3.08812 0.073445 0)
(2.94869 0.0722303 0)
(2.77836 0.0781872 0)
(2.68493 0.0696666 0)
(4.99838 0.181705 0)
(4.86188 0.128395 0)
(4.78164 0.123085 0)
(4.75294 0.122522 0)
(4.72977 0.122893 0)
(4.69983 0.125813 0)
(4.66958 0.131403 0)
(4.64301 0.13707 0)
(4.61427 0.137895 0)
(4.57955 0.132254 0)
(4.535 0.1214 0)
(4.48557 0.112239 0)
(4.42803 0.10997 0)
(4.36469 0.113383 0)
(4.29138 0.120665 0)
(4.20937 0.127358 0)
(4.1203 0.130402 0)
(4.03319 0.135036 0)
(5.03748 0.233513 0)
(4.87846 0.134183 0)
(4.75892 0.123701 0)
(4.71283 0.130424 0)
(4.68909 0.131 0)
(4.67366 0.126995 0)
(4.66832 0.123869 0)
(4.67068 0.12529 0)
(4.67417 0.128739 0)
(4.67312 0.129362 0)
(4.66592 0.125434 0)
(4.65433 0.120758 0)
(4.64198 0.120469 0)
(4.62804 0.125128 0)
(4.61276 0.134528 0)
(4.58952 0.1437 0)
(4.56316 0.152329 0)
(4.5254 0.161241 0)
(4.89047 0.251889 0)
(4.84719 0.154601 0)
(4.77873 0.135335 0)
(4.74479 0.13143 0)
(4.72977 0.127972 0)
(4.71323 0.125456 0)
(4.69049 0.12571 0)
(4.66944 0.128789 0)
(4.65928 0.131611 0)
(4.66117 0.130828 0)
(4.67013 0.126263 0)
(4.67883 0.121429 0)
(4.68434 0.121299 0)
(4.68458 0.127035 0)
(4.68086 0.13809 0)
(4.67171 0.150818 0)
(4.65968 0.163454 0)
(4.64121 0.174494 0)
(5.00166 0.283698 0)
(4.89953 0.173247 0)
(4.84545 0.152066 0)
(4.83075 0.15478 0)
(4.8114 0.154751 0)
(4.77836 0.150682 0)
(4.73953 0.145309 0)
(4.7051 0.14036 0)
(4.68244 0.135229 0)
(4.6733 0.128643 0)
(4.67508 0.121393 0)
(4.68241 0.116612 0)
(4.6919 0.118107 0)
(4.70028 0.126308 0)
(4.70672 0.139549 0)
(4.70866 0.154333 0)
(4.70766 0.168024 0)
(4.70041 0.179424 0)
(4.97106 0.266467 0)
(4.86215 0.174522 0)
(4.79055 0.139292 0)
(4.78521 0.134735 0)
(4.79265 0.142195 0)
(4.80035 0.147296 0)
(4.80659 0.147508 0)
(4.80701 0.14481 0)
(4.80014 0.139606 0)
(4.7885 0.131282 0)
(4.77602 0.121255 0)
(4.76532 0.11344 0)
(4.75878 0.112375 0)
(4.75645 0.119684 0)
(4.75796 0.133874 0)
(4.75979 0.151254 0)
(4.76141 0.168584 0)
(4.7589 0.183543 0)
(4.87893 0.282099 0)
(4.83268 0.228344 0)
(4.80324 0.169019 0)
(4.79608 0.150345 0)
(4.80966 0.150529 0)
(4.83564 0.149688 0)
(4.86112 0.146477 0)
(4.87553 0.145137 0)
(4.87572 0.145092 0)
(4.8639 0.14244 0)
(4.84395 0.135751 0)
(4.81961 0.12795 0)
(4.79543 0.124004 0)
(4.77528 0.127179 0)
(4.76268 0.137232 0)
(4.75711 0.151763 0)
(4.75868 0.167411 0)
(4.76347 0.182303 0)
(4.97846 0.27838 0)
(4.97886 0.191574 0)
(4.95327 0.146409 0)
(4.91675 0.133144 0)
(4.8867 0.130603 0)
(4.8688 0.130884 0)
(4.8532 0.133491 0)
(4.83759 0.13849 0)
(4.82888 0.143051 0)
(4.83066 0.143854 0)
(4.83834 0.140492 0)
(4.84426 0.135906 0)
(4.84411 0.134024 0)
(4.83872 0.13699 0)
(4.83282 0.144493 0)
(4.82926 0.154763 0)
(4.83137 0.165813 0)
(4.83529 0.17689 0)
(4.96982 0.304275 0)
(4.98409 0.223295 0)
(4.95588 0.185836 0)
(4.94499 0.167826 0)
(4.93878 0.161564 0)
(4.92332 0.160844 0)
(4.89701 0.159346 0)
(4.87152 0.153957 0)
(4.85949 0.145492 0)
(4.86289 0.136635 0)
(4.87421 0.13004 0)
(4.88411 0.127527 0)
(4.88798 0.129453 0)
(4.88639 0.134959 0)
(4.8829 0.142789 0)
(4.88051 0.151916 0)
(4.88081 0.16214 0)
(4.88264 0.174082 0)
(5.03124 0.265699 0)
(4.96666 0.199906 0)
(4.97371 0.166768 0)
(4.99252 0.144645 0)
(4.9938 0.143766 0)
(4.98766 0.156221 0)
(4.97868 0.165143 0)
(4.96483 0.16232 0)
(4.94809 0.150591 0)
(4.93325 0.137283 0)
(4.92374 0.128332 0)
(4.91979 0.126369 0)
(4.91976 0.130519 0)
(4.92132 0.138681 0)
(4.92247 0.148127 0)
(4.92157 0.157498 0)
(4.91851 0.166469 0)
(4.91221 0.175622 0)
(4.9195 0.341375 0)
(4.93265 0.216942 0)
(4.9402 0.163853 0)
(4.92819 0.149428 0)
(4.91457 0.153393 0)
(4.91741 0.163404 0)
(4.92935 0.169281 0)
(4.93441 0.1673 0)
(4.92709 0.159068 0)
(4.91348 0.148274 0)
(4.90319 0.138386 0)
(4.9016 0.132223 0)
(4.90956 0.131064 0)
(4.92271 0.135077 0)
(4.93777 0.143315 0)
(4.94903 0.15446 0)
(4.95686 0.167832 0)
(4.95818 0.182084 0)
(4.99269 0.277361 0)
(4.98414 0.202173 0)
(4.94895 0.177284 0)
(4.90261 0.159834 0)
(4.85826 0.14684 0)
(4.83224 0.148418 0)
(4.82679 0.158253 0)
(4.83288 0.16548 0)
(4.84284 0.163129 0)
(4.85463 0.150876 0)
(4.86828 0.134136 0)
(4.883 0.120164 0)
(4.89806 0.114224 0)
(4.91197 0.117903 0)
(4.92552 0.129092 0)
(4.938 0.144697 0)
(4.95142 0.160953 0)
(4.96562 0.176402 0)
(5.00325 0.256062 0)
(4.99989 0.214502 0)
(4.98081 0.206561 0)
(4.95502 0.199868 0)
(4.92538 0.197497 0)
(4.90427 0.189896 0)
(4.90043 0.174315 0)
(4.91217 0.156405 0)
(4.93131 0.140292 0)
(4.94872 0.127481 0)
(4.95745 0.118598 0)
(4.95533 0.114017 0)
(4.94594 0.113922 0)
(4.93554 0.117734 0)
(4.93071 0.124502 0)
(4.93425 0.13332 0)
(4.9473 0.142557 0)
(4.96724 0.153032 0)
(4.99345 0.236476 0)
(4.9392 0.202519 0)
(4.91806 0.198184 0)
(4.90411 0.176825 0)
(4.91175 0.158449 0)
(4.93993 0.149721 0)
(4.97592 0.147074 0)
(5.00369 0.145559 0)
(5.01548 0.142064 0)
(5.013 0.137234 0)
(5.00229 0.133559 0)
(4.98911 0.132236 0)
(4.97855 0.132436 0)
(4.97317 0.132351 0)
(4.97474 0.13094 0)
(4.98293 0.129269 0)
(4.99715 0.127639 0)
(5.01596 0.130006 0)
(5.02762 0.281544 0)
(4.99046 0.260146 0)
(4.98458 0.244956 0)
(4.97941 0.217689 0)
(4.96138 0.184341 0)
(4.9317 0.150014 0)
(4.90532 0.125992 0)
(4.89223 0.119329 0)
(4.89468 0.125773 0)
(4.91015 0.1351 0)
(4.93299 0.139455 0)
(4.95659 0.136576 0)
(4.97639 0.128531 0)
(4.99072 0.11891 0)
(4.9999 0.109707 0)
(5.00641 0.103235 0)
(5.01241 0.0985589 0)
(5.0206 0.0979423 0)
(4.96725 0.230388 0)
(4.97084 0.204822 0)
(4.97154 0.191169 0)
(4.97977 0.182781 0)
(4.99536 0.189991 0)
(5.01045 0.19952 0)
(5.0167 0.192741 0)
(5.01597 0.164743 0)
(5.01829 0.125676 0)
(5.02996 0.0914797 0)
(5.04858 0.0732811 0)
(5.068 0.0731747 0)
(5.08336 0.0855269 0)
(5.09345 0.101603 0)
(5.09934 0.113181 0)
(5.1026 0.116751 0)
(5.10503 0.111964 0)
(5.10592 0.102363 0)
(5.08511 0.269124 0)
(5.02943 0.263372 0)
(5.0074 0.258587 0)
(4.9791 0.20835 0)
(4.96792 0.152073 0)
(4.98165 0.120209 0)
(5.00944 0.110952 0)
(5.03582 0.108867 0)
(5.05219 0.103772 0)
(5.05742 0.0963957 0)
(5.05474 0.091467 0)
(5.04947 0.0907224 0)
(5.04701 0.0920733 0)
(5.05005 0.0923816 0)
(5.05883 0.09086 0)
(5.07089 0.0888036 0)
(5.08409 0.0885128 0)
(5.09541 0.0926845 0)
(4.97764 0.264304 0)
(4.96189 0.25888 0)
(4.99136 0.246002 0)
(5.02231 0.212231 0)
(5.03713 0.173851 0)
(5.03685 0.140191 0)
(5.03697 0.114353 0)
(5.03986 0.0971044 0)
(5.04284 0.0876865 0)
(5.04653 0.0841402 0)
(5.05239 0.0837124 0)
(5.0604 0.0833601 0)
(5.0703 0.0806853 0)
(5.08092 0.0750849 0)
(5.091 0.067166 0)
(5.09947 0.0591664 0)
(5.10655 0.0521428 0)
(5.11292 0.0483101 0)
(4.95028 0.15926 0)
(4.97977 0.202073 0)
(5.01456 0.198534 0)
(5.04551 0.167695 0)
(5.06244 0.140644 0)
(5.07213 0.124412 0)
(5.07977 0.114872 0)
(5.08409 0.106521 0)
(5.08748 0.0959942 0)
(5.09567 0.0832958 0)
(5.11097 0.0706099 0)
(5.13085 0.0604265 0)
(5.1511 0.0540406 0)
(5.16812 0.0519521 0)
(5.17988 0.0530816 0)
(5.18553 0.0557538 0)
(5.18655 0.0581 0)
(5.18386 0.0581524 0)
(4.98531 0.174771 0)
(4.9696 0.141909 0)
(4.96899 0.15875 0)
(4.99375 0.150658 0)
(5.023 0.131821 0)
(5.04792 0.113535 0)
(5.07272 0.097841 0)
(5.09437 0.0820602 0)
(5.11166 0.0629057 0)
(5.12926 0.0409373 0)
(5.15004 0.0210275 0)
(5.17279 0.00905905 0)
(5.19529 0.00746674 0)
(5.21551 0.0147097 0)
(5.23209 0.0269615 0)
(5.24394 0.0396332 0)
(5.25196 0.0495178 0)
(5.25673 0.0533342 0)
(4.98821 0.269194 0)
(4.96705 0.204829 0)
(4.99118 0.165576 0)
(5.03521 0.11722 0)
(5.06876 0.0816757 0)
(5.08585 0.0694858 0)
(5.10269 0.0698784 0)
(5.12119 0.0681712 0)
(5.13406 0.057102 0)
(5.13987 0.0374341 0)
(5.14367 0.0150769 0)
(5.15047 -0.00248024 0)
(5.1626 -0.00891349 0)
(5.17996 -0.00244753 0)
(5.2009 0.0125568 0)
(5.22178 0.029503 0)
(5.23989 0.0431274 0)
(5.25294 0.0492174 0)
(4.98331 0.252516 0)
(5.02273 0.146444 0)
(5.06293 0.0943607 0)
(5.10089 0.0882132 0)
(5.12598 0.0863222 0)
(5.14337 0.0719101 0)
(5.16261 0.0526478 0)
(5.18035 0.038976 0)
(5.19192 0.0308795 0)
(5.19771 0.0208309 0)
(5.19994 0.00393945 0)
(5.20214 -0.0166587 0)
(5.20817 -0.0339022 0)
(5.21811 -0.0408064 0)
(5.23131 -0.0350934 0)
(5.24654 -0.0206329 0)
(5.26385 -0.0026613 0)
(5.28129 0.012346 0)
(5.06176 0.262073 0)
(5.02877 0.166342 0)
(5.02919 0.102282 0)
(5.06024 0.0773255 0)
(5.10825 0.058399 0)
(5.15667 0.046326 0)
(5.19901 0.0456855 0)
(5.23158 0.0495845 0)
(5.25536 0.0481609 0)
(5.2746 0.0354868 0)
(5.29093 0.0134907 0)
(5.30128 -0.00911564 0)
(5.30448 -0.0239829 0)
(5.30393 -0.0281789 0)
(5.30458 -0.023231 0)
(5.30975 -0.0133672 0)
(5.32153 -0.00333753 0)
(5.33954 0.00287118 0)
(5.04089 0.293943 0)
(5.12899 0.148896 0)
(5.18606 0.0697974 0)
(5.21749 0.0341156 0)
(5.23126 0.0111575 0)
(5.23852 -0.00631262 0)
(5.25534 -0.013998 0)
(5.28755 -0.0124843 0)
(5.32776 -0.00954538 0)
(5.36277 -0.0117708 0)
(5.38346 -0.0201922 0)
(5.38935 -0.0317868 0)
(5.38565 -0.0409827 0)
(5.37845 -0.0448533 0)
(5.37328 -0.0440698 0)
(5.37234 -0.0409392 0)
(5.37624 -0.0379746 0)
(5.38297 -0.0372466 0)
(5.08224 0.234404 0)
(5.1329 0.119214 0)
(5.20788 0.082842 0)
(5.26281 0.0708832 0)
(5.30008 0.0508986 0)
(5.32052 0.0268538 0)
(5.33565 0.00836395 0)
(5.35359 -0.00134602 0)
(5.37446 -0.00483126 0)
(5.39401 -0.00594492 0)
(5.40712 -0.00719141 0)
(5.4115 -0.00940135 0)
(5.40948 -0.0125837 0)
(5.40525 -0.0153451 0)
(5.40336 -0.0166226 0)
(5.40625 -0.0162718 0)
(5.4153 -0.0149959 0)
(5.42969 -0.0140036 0)
(5.03321 0.236048 0)
(5.14642 0.0680586 0)
(5.2212 0.0101258 0)
(5.25715 -0.00956196 0)
(5.28538 -0.0240318 0)
(5.3184 -0.0320051 0)
(5.35143 -0.0351354 0)
(5.37708 -0.0361694 0)
(5.39638 -0.0356384 0)
(5.41507 -0.0345158 0)
(5.43637 -0.0340845 0)
(5.45927 -0.0350171 0)
(5.48106 -0.0373074 0)
(5.49939 -0.0406675 0)
(5.51442 -0.0451896 0)
(5.52716 -0.0507866 0)
(5.53978 -0.0576842 0)
(5.55271 -0.0652861 0)
(4.97959 0.182769 0)
(5.17473 0.0802567 0)
(5.29636 0.0682959 0)
(5.35775 0.0482481 0)
(5.39948 0.0119738 0)
(5.43696 -0.012916 0)
(5.46872 -0.0213768 0)
(5.49197 -0.0220573 0)
(5.50774 -0.0230748 0)
(5.5197 -0.0268281 0)
(5.53025 -0.0314608 0)
(5.54 -0.0347749 0)
(5.54936 -0.0358897 0)
(5.55909 -0.0354531 0)
(5.56976 -0.0347163 0)
(5.58116 -0.0347406 0)
(5.59298 -0.0360245 0)
(5.60406 -0.0381336 0)
(5.09933 0.0482998 0)
(5.20939 -0.0430723 0)
(5.33724 -0.0290209 0)
(5.43585 -0.0464027 0)
(5.47563 -0.0651285 0)
(5.46697 -0.0677584 0)
(5.4445 -0.0608274 0)
(5.4362 -0.053922 0)
(5.44678 -0.0500511 0)
(5.46684 -0.048623 0)
(5.48528 -0.048789 0)
(5.4959 -0.0502452 0)
(5.49742 -0.0528862 0)
(5.49204 -0.056691 0)
(5.48115 -0.0614767 0)
(5.46705 -0.066764 0)
(5.44924 -0.0721076 0)
(5.42994 -0.0768289 0)
(4.80411 0.126291 0)
(5.02676 0.0339705 0)
(5.05175 0.00865595 0)
(4.9465 -0.00935556 0)
(4.81124 -0.00960599 0)
(4.69181 -0.00617388 0)
(4.58962 -0.0110173 0)
(4.48755 -0.0232277 0)
(4.37475 -0.0352676 0)
(4.25427 -0.0415713 0)
(4.13496 -0.0413272 0)
(4.02332 -0.0367695 0)
(3.92103 -0.0306001 0)
(3.82733 -0.0247921 0)
(3.73866 -0.0204157 0)
(3.65319 -0.017937 0)
(3.56691 -0.0173087 0)
(3.48107 -0.0179098 0)
(-0.016738 0.104349 -4.76905e-20)
(-0.0630241 0.0556835 4.73475e-20)
(-0.0938264 0.020748 0)
(-0.101588 -0.0159353 0)
(-0.0742495 -0.0418236 0)
(-0.0339285 -0.0556405 -4.59844e-20)
(0.022312 -0.0640929 0)
(0.0815743 -0.0664352 0)
(0.143504 -0.0656223 0)
(0.202015 -0.061546 0)
(0.254724 -0.0558032 4.42493e-20)
(0.299808 -0.0490919 0)
(0.335372 -0.0409757 0)
(0.358781 -0.0305449 0)
(0.368178 -0.0173104 0)
(0.364108 -0.0010893 4.25178e-20)
(0.348096 0.0170186 0)
(0.321017 0.0347654 0)
(0.284394 0.0490465 0)
(0.241316 0.0568062 0)
(0.195995 0.0569151 0)
(0.15249 0.0508361 0)
(0.113912 0.0413627 0)
(0.0823633 0.0313369 3.97526e-20)
(0.0584736 0.0222288 -3.94109e-20)
(0.0423405 0.0140499 3.90689e-20)
(0.0337678 0.0067013 3.87253e-20)
(0.032422 -0.000909777 0)
(0.037846 -0.00828432 0)
(0.0491245 -0.0163293 -3.76846e-20)
(0.0674427 -0.0231553 -3.73363e-20)
(0.090515 -0.0285159 0)
(0.119788 -0.0345973 0)
(0.156458 -0.0324614 -3.62891e-20)
(0.191969 -0.0343003 0)
(0.239239 -0.0280604 0)
(0.276559 -0.00907394 3.52419e-20)
(0.310692 -0.0157909 0)
(0.358819 0.0454923 3.45516e-20)
(0.32115 0.081514 6.84192e-20)
(0.337613 0.0910185 0)
(0.279551 0.369789 0)
(-0.00053798 0.370143 0)
(-0.115075 -0.0694715 0)
(-0.0775806 -0.351821 0)
(0.0266182 -0.444567 6.4534e-20)
(0.0949205 -0.390774 6.38985e-20)
(0.107926 -0.244965 6.32897e-20)
(0.161213 -0.12353 0)
(0.279196 -0.0350742 -6.20642e-20)
(0.392348 0.0365971 0)
(0.4339 0.0655157 6.09111e-20)
(0.3911 0.0656919 6.03616e-20)
(0.291693 0.071814 0)
(0.166278 0.0910647 0)
(0.0285012 0.115121 0)
(-0.1253 0.128641 5.8294e-20)
(-0.297505 0.122243 0)
(-0.472659 0.0914844 0)
(-0.616032 0.0400626 0)
(-0.690086 -0.0225321 0)
(-0.676005 -0.0887195 0)
(-0.573618 -0.155713 0)
(-0.370954 -0.227539 0)
(-0.0338119 -0.279431 0)
(0.408861 -0.195328 -5.32057e-20)
(0.781823 0.0706194 0)
(0.84681 0.21869 0)
(0.691437 0.0939541 5.15651e-20)
(0.633383 -0.0835035 5.10556e-20)
(0.784007 -0.150103 0)
(1.02505 -0.112704 -4.99224e-20)
(1.20202 -0.162064 4.93644e-20)
(1.25227 -0.311254 0)
(1.16603 -0.251322 -4.8392e-20)
(0.737933 0.159406 0)
(-0.123222 0.524842 0)
(-1.05292 0.589349 4.70288e-20)
(-1.88908 0.529618 0)
(-2.59006 0.438365 -4.6367e-20)
(-3.15409 0.346616 0)
(-3.59353 0.265438 4.58337e-20)
(-3.92794 0.198476 4.55522e-20)
(-4.17732 0.145251 4.52484e-20)
(-4.35925 0.103927 8.98401e-20)
(-4.48774 0.0722914 -8.91346e-20)
(-4.57363 0.0481044 0)
(-4.6251 0.0294583 0)
(-4.64832 0.0144289 0)
(-4.64731 0.00209965 -8.58726e-20)
(-4.62681 -0.00780954 -8.49604e-20)
(-4.58872 -0.0164236 8.40165e-20)
(-4.5343 -0.0239467 0)
(-4.46553 -0.0305632 -8.20475e-20)
(-4.38327 -0.0364747 -8.103e-20)
(-4.28892 -0.0417372 -7.99958e-20)
(-4.18325 -0.0464364 0)
(-4.06731 -0.0506337 0)
(-3.94179 -0.0543606 0)
(-3.80759 -0.0576108 -7.57684e-20)
(-3.66551 -0.0603772 0)
(-3.5166 -0.0626032 0)
(-3.36199 -0.0642642 7.25978e-20)
(-3.20291 -0.0653345 0)
(-3.0406 -0.0658235 0)
(-2.87628 -0.0657587 6.95118e-20)
(-2.71111 -0.0651865 0)
(-2.54618 -0.0641665 0)
(-2.38244 -0.062785 -6.65606e-20)
(-2.22058 -0.0611467 -6.56113e-20)
(-2.06116 -0.0593518 0)
(-1.90447 -0.0575047 6.37656e-20)
(-1.75051 -0.0557297 0)
(-1.59896 -0.0541463 -6.19876e-20)
(-1.44929 -0.0528517 0)
(-1.30072 -0.0519355 -6.02709e-20)
(-1.15232 -0.0514525 -5.94331e-20)
(-1.00296 -0.0514271 0)
(-0.851499 -0.051843 0)
(-0.696769 -0.0526407 0)
(-0.537751 -0.0537407 0)
(-0.373796 -0.0549486 0)
(-0.204666 -0.0562409 0)
(-0.0305145 -0.0568081 0)
(0.147159 -0.0569014 -5.30948e-20)
(0.326045 -0.0560178 5.23279e-20)
(0.50364 -0.0539432 0)
(0.676483 -0.0505883 0)
(0.840882 -0.0460217 0)
(0.993378 -0.0404491 0)
(1.13105 -0.0341121 9.73798e-20)
(1.25168 -0.027288 0)
(1.35393 -0.0204161 -9.46391e-20)
(1.43757 -0.0138917 9.32949e-20)
(1.50309 -0.00764254 0)
(1.55107 -0.00167957 0)
(1.58289 0.00335653 0)
(1.60085 0.00768947 -8.8029e-20)
(1.6052 0.0122834 -8.67312e-20)
(1.59652 0.0171049 0)
(1.57556 0.0219856 -8.41525e-20)
(1.54232 0.0269644 -8.28725e-20)
(1.49701 0.0315495 8.15992e-20)
(1.44065 0.0347068 0)
(1.37566 0.0354725 0)
(1.30578 0.0335767 7.78221e-20)
(1.23536 0.0294995 0)
(1.16844 0.0241395 0)
(1.10796 0.0184928 0)
(1.05547 0.0133556 0)
(1.01123 0.00918721 -7.16489e-20)
(0.974643 0.00611449 -7.04296e-20)
(0.944632 0.00402121 0)
(0.920026 0.00267099 -6.80091e-20)
(0.899748 0.00181817 0)
(0.882911 0.00127178 0)
(0.868799 0.000912606 -6.44288e-20)
(0.856857 0.000678779 0)
(0.846613 0.000545145 -6.20774e-20)
(0.837721 0.000499057 0)
(0.829844 0.000532533 0)
(0.822793 0.000629457 -5.86036e-20)
(0.816285 0.000775983 0)
(0.810271 0.000948705 -5.63223e-20)
(0.804398 0.00114873 0)
(0.798797 0.0013604 0)
(0.792852 0.00160363 0)
(0.787021 0.00186166 5.184e-20)
(0.780095 0.00218131 0)
(0.773218 0.00253282 -4.96378e-20)
(0.764057 0.003027 0)
(0.754921 0.00352146 0)
(0.74176 0.00434047 0)
(0.728064 0.00502504 0)
(0.709107 0.00665987 0)
(0.684574 0.00724264 0)
(0.662093 0.0112959 0)
(0.603871 0.00938761 8.21974e-20)
(0.603886 0.0223269 0)
(0.438583 0.00848945 0)
(0.0355824 0.0583993 1.4306e-19)
(0.103611 0.0979753 -1.42027e-19)
(0.177208 0.0551991 0)
(0.263283 -0.0216312 9.32764e-20)
(0.350932 -0.0959104 0)
(0.437022 -0.146768 4.59202e-20)
(0.518349 -0.172352 -9.11723e-20)
(0.591397 -0.178512 -9.04801e-20)
(0.654937 -0.171973 0)
(0.705881 -0.155398 -8.91052e-20)
(0.74308 -0.131777 -4.41821e-20)
(0.767433 -0.103084 0)
(0.780135 -0.0674569 0)
(0.781432 -0.0273338 0)
(0.771586 0.011255 0)
(0.751087 0.0424629 -4.24661e-20)
(0.719565 0.0668893 0)
(0.675621 0.0863437 8.35934e-20)
(0.618231 0.100498 0)
(0.549192 0.107792 0)
(0.474388 0.10754 -8.15388e-20)
(0.400681 0.100326 0)
(0.332625 0.0865226 8.01752e-20)
(0.270581 0.0684303 -3.97365e-20)
(0.212321 0.0481307 3.93972e-20)
(0.155244 0.0276558 -3.90578e-20)
(0.0986424 0.00928462 -3.87182e-20)
(0.042764 -0.00644233 0)
(-0.00908733 -0.0196495 0)
(-0.0539943 -0.0315202 3.76868e-20)
(-0.0892563 -0.0430619 -3.73636e-20)
(-0.109716 -0.0545176 0)
(-0.117034 -0.0689705 0)
(-0.102819 -0.0808476 3.62953e-20)
(-0.0739597 -0.0936213 0)
(-0.0312105 -0.10364 0)
(0.039901 -0.0998925 -3.52593e-20)
(0.107754 -0.10467 0)
(0.206421 -0.0775259 3.45702e-20)
(0.323914 -0.0279816 -6.84173e-20)
(0.42869 -0.0243721 0)
(0.600519 0.095519 0)
(0.783256 0.208762 -1.32644e-19)
(0.971054 0.179367 -1.31342e-19)
(1.03247 0.123835 -1.30026e-19)
(1.01695 0.1702 6.43479e-20)
(0.915535 0.266523 -6.37795e-20)
(0.819989 0.182788 -1.8952e-19)
(0.774145 -0.0951934 1.25171e-19)
(0.690553 -0.304313 6.20098e-20)
(0.592774 -0.262693 0)
(0.528967 -0.065638 -6.08948e-20)
(0.487381 0.116784 6.0295e-20)
(0.448842 0.223689 0)
(0.396552 0.267035 0)
(0.320109 0.28008 0)
(0.212467 0.300301 -5.82838e-20)
(0.0837339 0.325792 0)
(-0.035976 0.316536 1.14729e-19)
(-0.102069 0.241371 0)
(-0.0952735 0.105647 1.12724e-19)
(-0.028276 -0.0643818 0)
(0.0846364 -0.251186 -1.10361e-19)
(0.239975 -0.473096 0)
(0.477784 -0.724495 1.07728e-19)
(0.787872 -0.852771 -5.32243e-20)
(1.17171 -0.616217 0)
(1.42792 -0.131433 -1.04059e-19)
(1.38039 0.186995 -5.14937e-20)
(1.3699 0.00564278 -5.09879e-20)
(1.45023 -0.359772 0)
(1.46113 -0.451246 -4.9918e-20)
(1.19764 -0.143649 -4.94099e-20)
(0.482839 0.397062 0)
(-0.487645 0.938347 4.84532e-20)
(-1.38232 1.31086 -9.59151e-20)
(-2.15074 1.42574 0)
(-2.76495 1.32291 -4.68386e-20)
(-3.2586 1.13642 0)
(-3.65065 0.927225 1.39134e-19)
(-3.95549 0.729436 0)
(-4.18765 0.557738 -1.37575e-19)
(-4.36228 0.416103 -4.55046e-20)
(-4.49192 0.302759 4.53906e-20)
(-4.58646 0.213616 9.00786e-20)
(-4.65294 0.143782 -8.93392e-20)
(-4.69596 0.0884812 0)
(-4.71861 0.0438548 0)
(-4.72263 0.00669237 0)
(-4.70984 -0.025208 2.5774e-19)
(-4.67986 -0.0528488 8.49534e-20)
(-4.63386 -0.0773725 -8.40085e-20)
(-4.57324 -0.0992086 0)
(-4.49846 -0.118708 -8.21329e-20)
(-4.41094 -0.136195 8.10197e-20)
(-4.3113 -0.15187 7.9985e-20)
(-4.20066 -0.165935 0)
(-4.07967 -0.178521 0)
(-3.94924 -0.189707 0)
(-3.81005 -0.199492 7.57566e-20)
(-3.66303 -0.207816 0)
(-3.50917 -0.214558 -1.47309e-19)
(-3.34965 -0.219613 -2.17789e-19)
(-3.18571 -0.222933 1.43116e-19)
(-3.01861 -0.224537 0)
(-2.84953 -0.224516 6.95185e-20)
(-2.67963 -0.223013 0)
(-2.50999 -0.220213 1.35048e-19)
(-2.34152 -0.216367 -6.6561e-20)
(-2.17491 -0.211772 -6.56108e-20)
(-2.01063 -0.206721 0)
(-1.84894 -0.201517 -1.91287e-19)
(-1.68981 -0.196526 1.25733e-19)
(-1.53289 -0.192112 6.19841e-20)
(-1.37766 -0.188567 0)
(-1.22334 -0.186163 6.02687e-20)
(-1.06897 -0.185086 1.78304e-19)
(-0.913446 -0.185437 0)
(-0.755611 -0.187214 1.15599e-19)
(-0.594295 -0.190253 1.13994e-19)
(-0.428403 -0.194295 1.12408e-19)
(-0.257298 -0.198813 0)
(-0.0802787 -0.203191 0)
(0.102443 -0.206245 0)
(0.289333 -0.207726 -5.30951e-20)
(0.478704 -0.206425 -5.231e-20)
(0.668267 -0.201635 0)
(0.854877 -0.19298 -1.01641e-19)
(1.03517 -0.180547 -1.00185e-19)
(1.2059 -0.164863 0)
(1.36415 -0.146736 -9.7344e-20)
(1.50756 -0.127114 -1.91942e-19)
(1.63457 -0.107012 9.46037e-20)
(1.74429 -0.087319 9.32705e-20)
(1.83625 -0.0686076 0)
(1.91118 -0.0513469 0)
(1.9705 -0.035981 0)
(2.01468 -0.0223655 8.79925e-20)
(2.04655 -0.00997595 -8.6703e-20)
(2.06923 0.00146471 -1.7081e-19)
(2.08442 0.0120269 8.41109e-20)
(2.09379 0.0219513 -8.28354e-20)
(2.09844 0.0313239 -8.15502e-20)
(2.09882 0.0397677 0)
(2.09492 0.0466091 0)
(2.08666 0.0510596 7.77654e-20)
(2.07404 0.0525418 0)
(2.05732 0.0511176 0)
(2.03714 0.0474306 -1.4807e-19)
(2.01434 0.042363 0)
(1.98979 0.036749 -7.15795e-20)
(1.96441 0.0312207 7.03635e-20)
(1.93907 0.0261642 0)
(1.91459 0.0217569 -6.79441e-20)
(1.89162 0.018038 0)
(1.87063 0.014971 0)
(1.8518 0.0124818 6.4372e-20)
(1.83515 0.01048 -1.26388e-19)
(1.8205 0.00887251 6.20243e-20)
(1.80767 0.00757333 0)
(1.79642 0.00651424 0)
(1.7866 0.00564206 -5.85547e-20)
(1.77798 0.00492842 0)
(1.77054 0.00434647 -5.62766e-20)
(1.76403 0.00391141 0)
(1.75854 0.00360753 0)
(1.75362 0.00350736 0)
(1.74955 0.00354088 -5.17998e-20)
(1.74549 0.00389049 0)
(1.74204 0.00430598 4.95997e-20)
(1.73783 0.00530057 0)
(1.73377 0.00608574 0)
(1.72822 0.00817839 -9.26948e-20)
(1.72144 0.00918381 9.05526e-20)
(1.71371 0.0135588 0)
(1.69908 0.0140946 0)
(1.69103 0.0237345 0)
(1.65375 0.0211489 -2.46395e-19)
(1.65849 0.0433357 0)
(1.55792 0.031903 1.56107e-19)
(0.00442383 -0.174866 3.21774e-23)
(0.11846 -0.239629 1.89355e-19)
(0.289727 -0.302806 0)
(0.459935 -0.353724 -1.86396e-19)
(0.612452 -0.38225 0)
(0.739632 -0.385954 0)
(0.840645 -0.36776 -7.81723e-23)
(0.916996 -0.336173 9.0374e-20)
(0.971514 -0.293987 8.97856e-20)
(1.00523 -0.241876 8.90108e-20)
(1.01764 -0.188689 0)
(1.01005 -0.138389 0)
(0.984869 -0.0847161 -8.70855e-20)
(0.936655 -0.0249552 -1.72824e-19)
(0.859481 0.0334261 1.7147e-19)
(0.759167 0.0918729 0)
(0.653245 0.158479 1.68747e-19)
(0.550218 0.230277 -8.3614e-20)
(0.445782 0.290327 0)
(0.331313 0.323501 1.64649e-19)
(0.204868 0.325806 8.15832e-20)
(0.0678022 0.30488 -1.61938e-19)
(-0.0785046 0.275103 -8.02125e-20)
(-0.23044 0.250766 0)
(-0.385816 0.236471 1.57639e-19)
(-0.538232 0.227859 1.56206e-19)
(-0.681406 0.217061 0)
(-0.808946 0.197501 1.53369e-19)
(-0.915735 0.166394 0)
(-0.998346 0.124355 1.50572e-19)
(-1.05449 0.0738445 7.45219e-20)
(-1.08502 0.0185213 0)
(-1.08851 -0.0389622 0)
(-1.06685 -0.0956153 0)
(-1.02092 -0.147851 0)
(-0.946496 -0.193353 0)
(-0.85128 -0.231746 0)
(-0.74001 -0.259136 1.39516e-19)
(-0.594231 -0.262889 -2.07217e-19)
(-0.418855 -0.267008 0)
(-0.248099 -0.276257 0)
(-0.0322129 -0.215848 0)
(0.226491 -0.201039 3.09213e-23)
(0.469461 -0.296527 1.31448e-19)
(0.694361 -0.366136 2.60091e-19)
(0.928273 -0.309048 -2.57429e-19)
(1.16338 -0.147907 -1.27394e-19)
(1.3965 -0.0297135 1.26155e-19)
(1.59757 0.0541453 -3.02619e-23)
(1.66333 0.176082 1.23733e-19)
(1.57604 0.266233 0)
(1.45433 0.255925 1.21449e-19)
(1.34867 0.214641 -7.64304e-24)
(1.22364 0.227105 0)
(1.08633 0.284178 0)
(0.950396 0.354898 -1.17413e-19)
(0.813299 0.428313 0)
(0.698506 0.444096 0)
(0.629787 0.335298 1.14758e-19)
(0.612273 0.127764 2.27454e-19)
(0.644896 -0.11303 -1.12592e-19)
(0.732413 -0.335953 0)
(0.865397 -0.510381 1.10161e-19)
(1.02302 -0.703225 0)
(1.21127 -0.962228 1.07747e-19)
(1.39112 -1.11231 1.06182e-19)
(1.48614 -0.776879 -2.10212e-19)
(1.49785 -0.0217535 -1.04182e-19)
(1.54555 0.288111 0)
(1.63414 -0.149059 2.0378e-19)
(1.34668 -0.289056 0)
(0.627963 0.303905 2.99827e-19)
(-0.269395 1.0298 1.9794e-19)
(-1.1634 1.56776 1.95787e-19)
(-1.9257 1.90218 -1.93782e-19)
(-2.49341 2.0371 2.8761e-19)
(-2.89796 1.97097 0)
(-3.19533 1.76478 0)
(-3.44009 1.49593 -1.87766e-19)
(-3.64693 1.21594 -2.79447e-19)
(-3.82053 0.956415 0)
(-3.96352 0.732955 9.18132e-20)
(-4.07975 0.549525 0)
(-4.17295 0.403265 -2.72342e-19)
(-4.24663 0.287808 3.59892e-22)
(-4.30329 0.196016 -3.09053e-22)
(-4.34395 0.121514 1.7729e-19)
(-4.36903 0.0590828 0)
(-4.37883 0.00527515 -1.73967e-19)
(-4.37307 -0.042742 2.13918e-22)
(-4.35167 -0.0861218 0)
(-4.3149 -0.125241 0)
(-4.26328 -0.160623 0)
(-4.19764 -0.192626 1.64225e-19)
(-4.1187 -0.221496 0)
(-4.02732 -0.247513 0)
(-3.92419 -0.270898 0)
(-3.81006 -0.291856 0)
(-3.68564 -0.310485 0)
(-3.55168 -0.326792 1.51658e-19)
(-3.4091 -0.340649 0)
(-3.25901 -0.351857 1.47328e-19)
(-3.10277 -0.360223 1.45219e-19)
(-2.9418 -0.365676 -1.43131e-19)
(-2.77751 -0.368258 0)
(-2.61118 -0.368109 -1.39033e-19)
(-2.444 -0.365462 0)
(-2.27714 -0.360637 -1.3506e-19)
(-2.11165 -0.354079 1.33125e-19)
(-1.94836 -0.346335 3.93698e-19)
(-1.78781 -0.337926 0)
(-1.63033 -0.329353 3.82622e-19)
(-1.47592 -0.321196 1.25758e-19)
(-1.32421 -0.314053 0)
(-1.17467 -0.308379 2.44527e-19)
(-1.02646 -0.304593 2.4113e-19)
(-0.878494 -0.303001 -3.56666e-19)
(-0.729548 -0.303748 0)
(-0.578436 -0.306795 -1.15601e-19)
(-0.423925 -0.31196 -1.13995e-19)
(-0.264838 -0.318789 -3.37277e-19)
(-0.10047 -0.326341 0)
(0.0698317 -0.333509 0)
(0.245419 -0.339332 0)
(0.424587 -0.342371 -1.06191e-19)
(0.605446 -0.341012 0)
(0.785204 -0.334205 0)
(0.960572 -0.321388 1.01607e-19)
(1.12856 -0.302628 1.00154e-19)
(1.28703 -0.278555 0)
(1.43482 -0.250213 0)
(1.57137 -0.219013 1.91899e-19)
(1.69599 -0.18658 0)
(1.80756 -0.15425 -1.86495e-19)
(1.90494 -0.122963 -1.83855e-19)
(1.98734 -0.0936569 0)
(2.05435 -0.0670591 0)
(2.10602 -0.0437176 1.75985e-19)
(2.14299 -0.023993 -1.41484e-23)
(2.16709 -0.00777515 -1.30151e-23)
(2.18161 0.0056248 0)
(2.19024 0.0172545 3.31304e-19)
(2.19639 0.0274168 0)
(2.20244 0.0360019 0)
(2.20942 0.0426665 0)
(2.21712 0.0469249 -1.55505e-19)
(2.22463 0.0485342 0)
(2.23088 0.0478493 3.01031e-19)
(2.2349 0.0455595 1.48039e-19)
(2.23592 0.0424294 0)
(2.23357 0.0390445 1.43124e-19)
(2.22782 0.0356975 0)
(2.2189 0.0324357 0)
(2.20729 0.0292011 4.07542e-19)
(2.19361 0.0259601 -2.66899e-19)
(2.17858 0.0227585 0)
(2.16296 0.019702 -2.57399e-19)
(2.14747 0.0169043 1.26348e-19)
(2.1327 0.0144428 0)
(2.1191 0.0123391 0)
(2.10694 0.0105717 0)
(2.09633 0.00908746 3.51224e-19)
(2.08727 0.00784203 0)
(2.07968 0.00678057 1.12521e-19)
(2.07341 0.00590807 0)
(2.06828 0.00518149 0)
(2.06414 0.00469805 0)
(2.06073 0.00435837 0)
(2.05805 0.00442757 0)
(2.05567 0.00456614 0)
(2.05397 0.0054835 1.93983e-19)
(2.052 0.00615334 0)
(2.05119 0.00852171 9.26691e-20)
(2.04875 0.00964374 -2.71582e-19)
(2.04926 0.0148322 0)
(2.04423 0.0159423 0)
(2.04759 0.0270349 1.68369e-19)
(2.03445 0.0264498 1.64211e-19)
(2.04493 0.049832 -1.60077e-19)
(2.01168 0.044701 -1.56051e-19)
(0.0171704 -0.209144 -2.863e-19)
(0.206265 -0.547394 -2.84025e-19)
(0.403546 -0.693276 -1.87906e-19)
(0.571043 -0.722853 -9.33361e-20)
(0.702913 -0.699157 0)
(0.798681 -0.640204 1.8378e-19)
(0.859781 -0.559301 -9.13454e-20)
(0.888 -0.473719 0)
(0.889593 -0.374505 -8.97935e-20)
(0.861388 -0.259234 0)
(0.791058 -0.147511 1.7726e-19)
(0.683953 -0.036412 0)
(0.574672 0.0952639 8.71901e-20)
(0.467689 0.238121 1.73033e-19)
(0.335262 0.354344 -1.71681e-19)
(0.190565 0.413183 0)
(0.0452205 0.430375 -1.68974e-19)
(-0.104218 0.452686 0)
(-0.26102 0.498476 0)
(-0.43312 0.553515 -1.64541e-19)
(-0.623935 0.598829 0)
(-0.828784 0.626205 -2.30103e-22)
(-1.04206 0.635328 0)
(-1.24941 0.624003 0)
(-1.43882 0.592881 2.64956e-22)
(-1.60238 0.542628 -1.55724e-19)
(-1.73731 0.475325 -1.54605e-19)
(-1.84391 0.394502 -1.52929e-19)
(-1.92325 0.303733 0)
(-1.97678 0.206579 -3.0067e-19)
(-2.00569 0.106226 0)
(-2.01056 0.00535632 -1.47757e-19)
(-1.99189 -0.093493 0)
(-1.94994 -0.18895 0)
(-1.88474 -0.278769 1.43552e-19)
(-1.79727 -0.361121 0)
(-1.6864 -0.434835 -1.40769e-19)
(-1.54848 -0.497829 1.83287e-22)
(-1.38423 -0.546455 2.75872e-19)
(-1.20066 -0.581356 -2.7332e-19)
(-0.995152 -0.603992 0)
(-0.75216 -0.597599 0)
(-0.474693 -0.580897 -1.32792e-19)
(-0.194931 -0.580644 0)
(0.0612787 -0.580115 -1.30113e-19)
(0.316971 -0.54426 1.28798e-19)
(0.598191 -0.467944 1.27491e-19)
(0.891059 -0.41214 0)
(1.18146 -0.371434 -1.24969e-19)
(1.469 -0.253912 -1.23735e-19)
(1.74515 -0.0461389 2.45021e-19)
(1.99183 0.180723 -1.21318e-19)
(2.17087 0.374612 -1.20187e-19)
(2.24355 0.52138 0)
(2.23186 0.611748 0)
(2.1739 0.641566 1.17092e-19)
(2.07572 0.630515 0)
(1.98564 0.563661 0)
(1.93748 0.417266 -2.28715e-19)
(1.88536 0.225819 -2.26865e-19)
(1.82439 -0.0415945 0)
(1.79744 -0.384977 0)
(1.79301 -0.652152 0)
(1.83384 -0.865586 0)
(1.91676 -1.14525 -2.14938e-19)
(1.9592 -1.23702 2.12558e-19)
(1.86977 -0.807576 2.10043e-19)
(1.79891 -0.157607 4.16552e-19)
(1.85375 0.0857262 0)
(1.46565 0.239635 1.68959e-22)
(0.491844 0.794153 0)
(-0.519794 1.48495 -1.99637e-19)
(-1.37507 2.01827 3.8149e-22)
(-2.02565 2.34548 -1.95268e-19)
(-2.47463 2.46695 1.93424e-19)
(-2.77177 2.41943 8.39824e-22)
(-2.98533 2.2453 0)
(-3.16566 1.99128 1.8992e-19)
(-3.32349 1.69321 1.87742e-19)
(-3.45229 1.3848 3.74097e-19)
(-3.5534 1.09589 0)
(-3.6347 0.845654 -1.84977e-19)
(-3.70423 0.640399 0)
(-3.76848 0.476614 3.64062e-19)
(-3.82997 0.346329 -1.8041e-19)
(-3.88751 0.24109 1.78941e-19)
(-3.93849 0.153518 -1.77393e-19)
(-3.97981 0.0776358 -3.52158e-19)