/*--------------------------------*- C++ -*----------------------------------*\
  =========                 |
  \\      /  F ield         | OpenFOAM: The Open Source CFD Toolbox
   \\    /   O peration     | Website:  https://openfoam.org
    \\  /    A nd           | Version:  7
     \\/     M anipulation  |
\*---------------------------------------------------------------------------*/
FoamFile
{
    version     2.0;
    format      ascii;
    class       volVectorField;
    location    "0.087";
    object      U_0;
}
// * * * * * * * * * * * * * * * * * * * * * * * * * * * * * * * * * * * * * //

dimensions      [0 1 -1 0 0 0 0];

internalField   nonuniform List<vector> 
12225
(
(4.72017 0.161421 0)
(4.09611 0.109508 0)
(3.66896 0.090547 0)
(3.30352 0.0812956 0)
(2.93944 0.0713186 0)
(2.59996 0.058347 0)
(2.29302 0.0485618 0)
(2.00657 0.0439524 0)
(1.73541 0.0404227 0)
(1.48845 0.0339521 0)
(1.27357 0.0253681 0)
(1.09695 0.0167165 0)
(0.947004 0.0115369 0)
(0.826312 0.00948706 0)
(0.704123 0.00889856 0)
(0.616172 0.0121158 0)
(0.468558 0.00850889 0)
(0.437327 -0.0083964 0)
(5.07239 0.128227 0)
(4.87906 0.0772455 0)
(4.74963 0.0882725 0)
(4.66234 0.0972237 0)
(4.56963 0.100509 0)
(4.45509 0.101286 0)
(4.31148 0.102807 0)
(4.14518 0.104813 0)
(3.97109 0.104615 0)
(3.81091 0.101034 0)
(3.66451 0.0940778 0)
(3.53576 0.0863233 0)
(3.39693 0.0795357 0)
(3.26283 0.0754688 0)
(3.1067 0.0727407 0)
(2.96879 0.0710743 0)
(2.80157 0.0759975 0)
(2.71143 0.06456 0)
(5.0013 0.172385 0)
(4.86751 0.125254 0)
(4.79116 0.12132 0)
(4.76426 0.121624 0)
(4.74208 0.122342 0)
(4.713 0.125488 0)
(4.68366 0.13118 0)
(4.65787 0.13679 0)
(4.62961 0.137467 0)
(4.59518 0.131698 0)
(4.55094 0.120818 0)
(4.50196 0.111758 0)
(4.44492 0.109548 0)
(4.38218 0.112822 0)
(4.30961 0.119715 0)
(4.22868 0.125491 0)
(4.14145 0.126966 0)
(4.05608 0.128441 0)
(5.03476 0.220475 0)
(4.88373 0.129248 0)
(4.76766 0.121531 0)
(4.72393 0.129304 0)
(4.70148 0.1301 0)
(4.68715 0.126165 0)
(4.68273 0.123172 0)
(4.68566 0.124766 0)
(4.68941 0.1283 0)
(4.68853 0.128874 0)
(4.68165 0.12484 0)
(4.67061 0.1201 0)
(4.65898 0.119742 0)
(4.64579 0.124199 0)
(4.63127 0.13312 0)
(4.60888 0.141289 0)
(4.58339 0.148202 0)
(4.54599 0.154169 0)
(4.89348 0.232797 0)
(4.85664 0.148564 0)
(4.78899 0.132315 0)
(4.75669 0.129568 0)
(4.74272 0.126749 0)
(4.72668 0.124579 0)
(4.70428 0.125045 0)
(4.68374 0.128236 0)
(4.67428 0.131043 0)
(4.67689 0.130137 0)
(4.68648 0.125428 0)
(4.69567 0.120511 0)
(4.70162 0.120314 0)
(4.7023 0.12585 0)
(4.69907 0.136405 0)
(4.69044 0.148124 0)
(4.67881 0.159076 0)
(4.66015 0.167654 0)
(5.01055 0.270962 0)
(4.90933 0.167246 0)
(4.85677 0.148912 0)
(4.84318 0.152837 0)
(4.82409 0.153403 0)
(4.79126 0.149593 0)
(4.75285 0.144311 0)
(4.71906 0.1394 0)
(4.69715 0.13426 0)
(4.68878 0.127618 0)
(4.69126 0.120311 0)
(4.69922 0.115514 0)
(4.70927 0.116969 0)
(4.71813 0.12495 0)
(4.72499 0.137639 0)
(4.72726 0.151392 0)
(4.72635 0.163512 0)
(4.71863 0.172908 0)
(4.97962 0.264906 0)
(4.87097 0.169018 0)
(4.80167 0.135307 0)
(4.79832 0.132343 0)
(4.80656 0.140794 0)
(4.81486 0.146219 0)
(4.82153 0.14647 0)
(4.82211 0.143745 0)
(4.81529 0.138467 0)
(4.80375 0.130022 0)
(4.79155 0.119886 0)
(4.78132 0.112028 0)
(4.77537 0.11094 0)
(4.77365 0.118091 0)
(4.77566 0.131812 0)
(4.77778 0.148287 0)
(4.77938 0.164261 0)
(4.77631 0.177589 0)
(4.88293 0.287137 0)
(4.84278 0.223111 0)
(4.81544 0.164004 0)
(4.80971 0.147363 0)
(4.82441 0.148721 0)
(4.85106 0.148303 0)
(4.87669 0.1453 0)
(4.89089 0.144126 0)
(4.89077 0.1441 0)
(4.87874 0.141274 0)
(4.85876 0.134325 0)
(4.8346 0.126311 0)
(4.81082 0.12222 0)
(4.79124 0.125195 0)
(4.77925 0.134823 0)
(4.77419 0.148584 0)
(4.77599 0.163116 0)
(4.78053 0.176723 0)
(4.97986 0.27289 0)
(4.98784 0.183941 0)
(4.96533 0.141266 0)
(4.92956 0.129879 0)
(4.90022 0.128497 0)
(4.88278 0.129462 0)
(4.86734 0.132453 0)
(4.85202 0.137609 0)
(4.84387 0.1421 0)
(4.84624 0.142667 0)
(4.8543 0.139022 0)
(4.86033 0.1342 0)
(4.86021 0.132109 0)
(4.85492 0.134784 0)
(4.84924 0.141799 0)
(4.84594 0.15133 0)
(4.84812 0.161433 0)
(4.8517 0.171512 0)
(4.97843 0.289643 0)
(4.9946 0.214181 0)
(4.9686 0.180359 0)
(4.95902 0.164248 0)
(4.95308 0.159281 0)
(4.93737 0.159278 0)
(4.91095 0.157995 0)
(4.8859 0.152555 0)
(4.87465 0.143986 0)
(4.87871 0.135061 0)
(4.89032 0.128426 0)
(4.90021 0.125837 0)
(4.90397 0.127571 0)
(4.90233 0.132718 0)
(4.89887 0.140017 0)
(4.89652 0.148475 0)
(4.8967 0.157975 0)
(4.89813 0.169229 0)
(5.03437 0.249249 0)
(4.97814 0.190021 0)
(4.98865 0.160643 0)
(5.00776 0.140818 0)
(5.00863 0.141695 0)
(5.00232 0.155008 0)
(4.99328 0.163966 0)
(4.97939 0.160836 0)
(4.9627 0.148865 0)
(4.94806 0.135506 0)
(4.93885 0.126618 0)
(4.9352 0.124683 0)
(4.9354 0.128703 0)
(4.93706 0.136526 0)
(4.93813 0.145438 0)
(4.93697 0.154161 0)
(4.93347 0.162454 0)
(4.92658 0.171004 0)
(4.92585 0.319767 0)
(4.94732 0.204267 0)
(4.95566 0.157404 0)
(4.94303 0.145918 0)
(4.92947 0.151386 0)
(4.93266 0.162027 0)
(4.9446 0.167994 0)
(4.9493 0.165863 0)
(4.94164 0.15744 0)
(4.92802 0.146492 0)
(4.91808 0.136497 0)
(4.91699 0.130247 0)
(4.92539 0.128964 0)
(4.93874 0.132772 0)
(4.95371 0.140698 0)
(4.96459 0.151446 0)
(4.97188 0.164367 0)
(4.97252 0.178151 0)
(5.00527 0.251469 0)
(5.00134 0.190482 0)
(4.96457 0.171546 0)
(4.91717 0.156196 0)
(4.87264 0.144516 0)
(4.84695 0.147068 0)
(4.8419 0.157301 0)
(4.84824 0.164382 0)
(4.85835 0.161571 0)
(4.87027 0.148848 0)
(4.88402 0.131843 0)
(4.8988 0.11784 0)
(4.91383 0.111994 0)
(4.92765 0.115721 0)
(4.94105 0.126792 0)
(4.95331 0.142082 0)
(4.96652 0.157867 0)
(4.98041 0.172771 0)
(5.02027 0.234396 0)
(5.02232 0.205999 0)
(4.99884 0.202098 0)
(4.97108 0.197056 0)
(4.94067 0.195488 0)
(4.91954 0.188032 0)
(4.91607 0.172426 0)
(4.92815 0.154535 0)
(4.94735 0.138459 0)
(4.96445 0.125664 0)
(4.97263 0.116771 0)
(4.96996 0.112145 0)
(4.96023 0.111948 0)
(4.94979 0.115577 0)
(4.94514 0.122081 0)
(4.94895 0.13056 0)
(4.9622 0.139436 0)
(4.9821 0.149558 0)
(5.00543 0.227901 0)
(4.96395 0.19849 0)
(4.93743 0.195445 0)
(4.92157 0.174274 0)
(4.92891 0.156499 0)
(4.95705 0.148327 0)
(4.99269 0.14596 0)
(5.01973 0.144452 0)
(5.03068 0.140816 0)
(5.02752 0.135841 0)
(5.01641 0.132048 0)
(5.00309 0.130566 0)
(4.99259 0.130497 0)
(4.98737 0.130034 0)
(4.98911 0.128221 0)
(4.99743 0.126192 0)
(5.01168 0.124335 0)
(5.03038 0.126615 0)
(5.04581 0.294293 0)
(5.01496 0.262473 0)
(5.00448 0.244232 0)
(4.99679 0.215957 0)
(4.97718 0.182404 0)
(4.94654 0.148241 0)
(4.91992 0.124724 0)
(4.90705 0.118609 0)
(4.90986 0.125265 0)
(4.92563 0.134365 0)
(4.94853 0.138217 0)
(4.97194 0.134786 0)
(4.99138 0.126295 0)
(5.00526 0.116356 0)
(5.01401 0.106943 0)
(5.02018 0.100323 0)
(5.02594 0.0955459 0)
(5.03399 0.0949203 0)
(4.96979 0.238857 0)
(4.98376 0.206822 0)
(4.98833 0.191508 0)
(4.99714 0.182953 0)
(5.0124 0.190396 0)
(5.02676 0.199549 0)
(5.03221 0.191845 0)
(5.03103 0.162949 0)
(5.03333 0.123489 0)
(5.04514 0.0894996 0)
(5.06373 0.0718589 0)
(5.08287 0.0722814 0)
(5.09779 0.0848365 0)
(5.10741 0.100682 0)
(5.11289 0.111691 0)
(5.1158 0.114573 0)
(5.1179 0.109178 0)
(5.11843 0.0992417 0)
(5.09472 0.25899 0)
(5.04599 0.261528 0)
(5.0245 0.258398 0)
(4.99544 0.207386 0)
(4.98427 0.15128 0)
(4.99805 0.120086 0)
(5.0256 0.111153 0)
(5.05136 0.108861 0)
(5.06696 0.103367 0)
(5.07147 0.0957349 0)
(5.06829 0.0907229 0)
(5.0628 0.0899007 0)
(5.06033 0.09105 0)
(5.06347 0.0910567 0)
(5.0723 0.0892637 0)
(5.08428 0.0870667 0)
(5.09726 0.0868215 0)
(5.10821 0.0911351 0)
(4.99564 0.26763 0)
(4.98823 0.263454 0)
(5.01267 0.249079 0)
(5.04051 0.213981 0)
(5.05342 0.17483 0)
(5.05197 0.140772 0)
(5.05154 0.114718 0)
(5.05407 0.0973595 0)
(5.05676 0.0878704 0)
(5.06027 0.0842159 0)
(5.06601 0.0835855 0)
(5.07394 0.0829259 0)
(5.08374 0.0798882 0)
(5.0942 0.073941 0)
(5.10404 0.0657662 0)
(5.11225 0.0576334 0)
(5.11908 0.0505921 0)
(5.12529 0.0468213 0)
(4.96001 0.174107 0)
(4.99697 0.214216 0)
(5.03156 0.205138 0)
(5.06122 0.171703 0)
(5.07718 0.143484 0)
(5.08631 0.126565 0)
(5.09354 0.116412 0)
(5.09758 0.107432 0)
(5.10089 0.0963205 0)
(5.10918 0.0831723 0)
(5.12463 0.0702152 0)
(5.14452 0.0599167 0)
(5.16458 0.0535306 0)
(5.18125 0.0514685 0)
(5.19256 0.0525905 0)
(5.19773 0.05518 0)
(5.19835 0.0573462 0)
(5.19539 0.0571608 0)
(4.98894 0.183885 0)
(4.98376 0.153644 0)
(4.98226 0.166905 0)
(5.00748 0.155676 0)
(5.03674 0.135037 0)
(5.06157 0.115718 0)
(5.08627 0.0993079 0)
(5.10774 0.0828523 0)
(5.12494 0.063057 0)
(5.14259 0.0406524 0)
(5.16346 0.0206425 0)
(5.18624 0.00887665 0)
(5.20863 0.00757703 0)
(5.22861 0.0150611 0)
(5.24487 0.0273592 0)
(5.25637 0.0398795 0)
(5.26407 0.0494165 0)
(5.2686 0.0527722 0)
(4.99252 0.293805 0)
(4.97644 0.215163 0)
(5.00242 0.171666 0)
(5.04744 0.120878 0)
(5.08109 0.0845161 0)
(5.09827 0.0720275 0)
(5.11539 0.0719086 0)
(5.13392 0.0693856 0)
(5.14655 0.0574413 0)
(5.15212 0.0371301 0)
(5.15591 0.014539 0)
(5.16289 -0.00284216 0)
(5.17529 -0.00882 0)
(5.19289 -0.00187856 0)
(5.2139 0.0133397 0)
(5.23463 0.0301663 0)
(5.25243 0.0434029 0)
(5.26512 0.0489641 0)
(4.97952 0.26115 0)
(5.023 0.151642 0)
(5.0713 0.0992181 0)
(5.11136 0.0925255 0)
(5.13714 0.0893988 0)
(5.15508 0.07381 0)
(5.17471 0.0539195 0)
(5.19249 0.0399817 0)
(5.20395 0.0315375 0)
(5.20963 0.0209017 0)
(5.21182 0.00343551 0)
(5.21411 -0.0174109 0)
(5.22034 -0.0344506 0)
(5.23046 -0.0408433 0)
(5.24377 -0.034588 0)
(5.2591 -0.0198228 0)
(5.27645 -0.00186112 0)
(5.29385 0.0128257 0)
(5.05994 0.24653 0)
(5.03297 0.165491 0)
(5.03673 0.104562 0)
(5.07041 0.079868 0)
(5.11995 0.0604247 0)
(5.16905 0.0481448 0)
(5.21152 0.0474198 0)
(5.24398 0.0509295 0)
(5.26765 0.0487759 0)
(5.28687 0.0353012 0)
(5.3031 0.0127916 0)
(5.31319 -0.00981969 0)
(5.31612 -0.0243355 0)
(5.31549 -0.0280816 0)
(5.31627 -0.0227954 0)
(5.32174 -0.0128153 0)
(5.33392 -0.00294109 0)
(5.35224 0.00295043 0)
(5.04903 0.279699 0)
(5.14154 0.14726 0)
(5.19546 0.0711793 0)
(5.22683 0.0359253 0)
(5.24118 0.0127047 0)
(5.24923 -0.0049984 0)
(5.26704 -0.0127678 0)
(5.30008 -0.0114078 0)
(5.34065 -0.00884682 0)
(5.37543 -0.0115554 0)
(5.39554 -0.0203628 0)
(5.40086 -0.0321147 0)
(5.39683 -0.0412126 0)
(5.38958 -0.0448914 0)
(5.38458 -0.0439659 0)
(5.38387 -0.0408105 0)
(5.38798 -0.0379543 0)
(5.39478 -0.037404 0)
(5.09082 0.238268 0)
(5.14712 0.122379 0)
(5.21762 0.0852369 0)
(5.27263 0.0726292 0)
(5.31043 0.0519504 0)
(5.33116 0.0275691 0)
(5.3467 0.0089447 0)
(5.36514 -0.000777099 0)
(5.38637 -0.00429098 0)
(5.40598 -0.00551823 0)
(5.41886 -0.00693132 0)
(5.42292 -0.009314 0)
(5.4207 -0.0126066 0)
(5.41646 -0.0153802 0)
(5.41478 -0.0166073 0)
(5.41797 -0.0162004 0)
(5.42737 -0.0149156 0)
(5.44205 -0.0139879 0)
(5.03617 0.261877 0)
(5.15754 0.0719454 0)
(5.22924 0.0118586 0)
(5.26607 -0.00835485 0)
(5.29562 -0.0230267 0)
(5.32952 -0.0311086 0)
(5.36285 -0.0344114 0)
(5.38857 -0.0355905 0)
(5.40806 -0.0351531 0)
(5.42709 -0.0341371 0)
(5.44871 -0.0338553 0)
(5.47179 -0.0349456 0)
(5.49356 -0.0373691 0)
(5.51176 -0.0408409 0)
(5.52666 -0.0454683 0)
(5.53932 -0.0511703 0)
(5.55193 -0.0581676 0)
(5.56487 -0.0658207 0)
(4.9857 0.21028 0)
(5.18071 0.0855159 0)
(5.30431 0.0704069 0)
(5.36705 0.0487167 0)
(5.40988 0.0119792 0)
(5.44798 -0.0127432 0)
(5.47999 -0.0209297 0)
(5.50334 -0.0215827 0)
(5.5192 -0.0227841 0)
(5.53129 -0.0267409 0)
(5.54196 -0.0314691 0)
(5.55179 -0.0347704 0)
(5.56124 -0.0358252 0)
(5.57108 -0.0353484 0)
(5.58185 -0.034621 0)
(5.59331 -0.034696 0)
(5.60511 -0.0360387 0)
(5.61611 -0.0381743 0)
(5.09949 0.0627797 0)
(5.20979 -0.0386041 0)
(5.34544 -0.027787 0)
(5.44592 -0.0462301 0)
(5.48519 -0.0649209 0)
(5.47603 -0.0672963 0)
(5.45419 -0.0602688 0)
(5.4472 -0.0534516 0)
(5.45895 -0.0497253 0)
(5.47962 -0.048435 0)
(5.49815 -0.0487266 0)
(5.50859 -0.0502981 0)
(5.50985 -0.0530392 0)
(5.50426 -0.0569243 0)
(5.49319 -0.0617631 0)
(5.47894 -0.0670712 0)
(5.46098 -0.072404 0)
(5.44156 -0.0770834 0)
(4.80691 0.132683 0)
(5.02936 0.0350057 0)
(5.05928 0.00852207 0)
(4.95524 -0.00910771 0)
(4.82113 -0.00919467 0)
(4.70288 -0.00602702 0)
(4.60139 -0.0112586 0)
(4.49941 -0.023657 0)
(4.38643 -0.0356148 0)
(4.26588 -0.0416937 0)
(4.14669 -0.0412344 0)
(4.03527 -0.0365479 0)
(3.93318 -0.0303377 0)
(3.83959 -0.0245506 0)
(3.75091 -0.0202325 0)
(3.66532 -0.0178309 0)
(3.57883 -0.0172763 0)
(3.49278 -0.0179237 0)
(-0.0167424 0.104392 6.9134e-21)
(-0.0630927 0.0556683 -6.86205e-21)
(-0.0939317 0.0207405 0)
(-0.101682 -0.0159838 0)
(-0.0742362 -0.0419369 0)
(-0.0337669 -0.0558146 6.64571e-21)
(0.0226686 -0.0643308 0)
(0.0821738 -0.0667299 0)
(0.144403 -0.0659605 0)
(0.203261 -0.0619114 0)
(0.256349 -0.0561808 -6.37878e-21)
(0.301831 -0.0494635 0)
(0.337795 -0.0413267 0)
(0.361597 -0.0308684 0)
(0.371382 -0.0176085 0)
(0.367675 -0.00137178 -6.15284e-21)
(0.351999 0.0167478 0)
(0.32524 0.0344968 0)
(0.288922 0.0487822 0)
(0.246134 0.0565609 0)
(0.20108 0.0567039 0)
(0.157819 0.0506615 0)
(0.119459 0.0412101 0)
(0.0881148 0.0311806 -5.88015e-21)
(0.064428 0.0220487 5.84935e-21)
(0.0485081 0.0138398 -5.81899e-21)
(0.0401624 0.00646738 -5.78919e-21)
(0.0390566 -0.00115438 0)
(0.0447383 -0.0085231 0)
(0.0562978 -0.0165567 5.70488e-21)
(0.0749157 -0.0233691 5.679e-21)
(0.0982962 -0.0287222 0)
(0.127888 -0.0347913 0)
(0.164863 -0.0326336 5.60843e-21)
(0.200665 -0.0344616 0)
(0.248215 -0.0281888 0)
(0.285684 -0.0091242 -5.54875e-21)
(0.319998 -0.015802 0)
(0.368101 0.0456727 -5.51202e-21)
(0.330314 0.0816103 -1.09902e-20)
(0.346809 0.0914414 0)
(0.288012 0.370449 0)
(0.00757061 0.370235 0)
(-0.107322 -0.0696802 0)
(-0.0703348 -0.352389 0)
(0.0335466 -0.444999 -1.06785e-20)
(0.101192 -0.390427 -1.06135e-20)
(0.113968 -0.243985 -1.05256e-20)
(0.167681 -0.122491 0)
(0.285752 -0.0339617 1.03439e-20)
(0.398245 0.0373061 0)
(0.438574 0.0655599 -1.01251e-20)
(0.394723 0.0656304 -1.00004e-20)
(0.294679 0.0719093 0)
(0.16893 0.0912624 0)
(0.030992 0.115232 0)
(-0.122821 0.128614 -9.41728e-21)
(-0.29474 0.122044 0)
(-0.469204 0.0910303 0)
(-0.611494 0.0393741 0)
(-0.684221 -0.0232745 0)
(-0.668905 -0.0894772 0)
(-0.56537 -0.156506 0)
(-0.361404 -0.228362 0)
(-0.0228474 -0.279719 0)
(0.420382 -0.193611 8.7003e-21)
(0.791148 0.0729881 0)
(0.852536 0.218487 0)
(0.696345 0.0921251 -8.46502e-21)
(0.640289 -0.0849174 -8.37292e-21)
(0.79273 -0.150389 0)
(1.0341 -0.113221 8.2167e-21)
(1.21009 -0.164315 -8.12392e-21)
(1.25897 -0.312235 0)
(1.17067 -0.248587 7.91813e-21)
(0.738052 0.164073 0)
(-0.124772 0.526023 0)
(-1.05323 0.588821 -7.58987e-21)
(-1.88854 0.529127 0)
(-2.58898 0.438084 6.9787e-21)
(-3.15277 0.346492 0)
(-3.59211 0.265389 -6.30619e-21)
(-3.92643 0.198435 -6.00564e-21)
(-4.17567 0.145179 -5.73862e-21)
(-4.35737 0.103804 -1.10111e-20)
(-4.48554 0.0721113 1.06099e-20)
(-4.57101 0.0478713 0)
(-4.62198 0.0291982 0)
(-4.64465 0.0141751 0)
(-4.64311 0.00182521 9.56914e-21)
(-4.62207 -0.00808361 9.42978e-21)
(-4.58346 -0.0166837 -9.33166e-21)
(-4.52853 -0.0241918 0)
(-4.4593 -0.0307869 9.24349e-21)
(-4.37662 -0.0366735 9.24511e-21)
(-4.28189 -0.0419099 9.27149e-21)
(-4.1759 -0.0465825 0)
(-4.05969 -0.0507538 0)
(-3.93395 -0.054457 0)
(-3.79956 -0.0576857 9.54373e-21)
(-3.65735 -0.0604338 0)
(-3.50834 -0.0626442 0)
(-3.35366 -0.0642918 -9.82196e-21)
(-3.19453 -0.0653502 0)
(-3.0322 -0.0658288 0)
(-2.86787 -0.0657548 -1.00735e-20)
(-2.70272 -0.0651745 0)
(-2.53783 -0.0641477 0)
(-2.37413 -0.0627605 1.02433e-20)
(-2.21234 -0.0611179 1.02766e-20)
(-2.05298 -0.0593205 0)
(-1.89637 -0.0574726 -1.03066e-20)
(-1.74248 -0.0556986 0)
(-1.591 -0.0541179 1.02902e-20)
(-1.44139 -0.0528279 0)
(-1.29287 -0.051918 1.02339e-20)
(-1.14449 -0.0514428 1.01934e-20)
(-0.995149 -0.0514262 0)
(-0.843672 -0.0518514 0)
(-0.688904 -0.0526581 0)
(-0.529825 -0.0537663 0)
(-0.365789 -0.0549799 0)
(-0.196564 -0.0562757 0)
(-0.0223164 -0.0568371 0)
(0.155439 -0.0569242 9.68225e-21)
(0.334381 -0.0560284 -9.59454e-21)
(0.511996 -0.0539383 0)
(0.684811 -0.0505671 0)
(0.849136 -0.0459859 0)
(1.00152 -0.040402 0)
(1.13904 -0.0340578 -1.81153e-20)
(1.2595 -0.0272314 0)
(1.36158 -0.0203624 1.7611e-20)
(1.44506 -0.0138435 -1.73527e-20)
(1.51044 -0.00759915 0)
(1.55829 -0.00164369 0)
(1.59001 0.0033819 0)
(1.60789 0.00771005 1.63332e-20)
(1.61217 0.0123038 1.60884e-20)
(1.60343 0.0171254 0)
(1.58242 0.0220078 1.56134e-20)
(1.54913 0.0269874 1.53829e-20)
(1.50378 0.0315661 -1.51563e-20)
(1.44739 0.0347087 0)
(1.38239 0.0354556 0)
(1.31253 0.0335444 -1.44941e-20)
(1.24216 0.0294592 0)
(1.17529 0.0240991 0)
(1.11488 0.0184587 0)
(1.06245 0.013331 0)
(1.01826 0.00917254 1.34448e-20)
(0.98171 0.00610816 1.32432e-20)
(0.951722 0.0040207 0)
(0.92713 0.00267383 1.28456e-20)
(0.906858 0.00182249 0)
(0.890023 0.00127646 0)
(0.875909 0.000917163 1.22578e-20)
(0.863963 0.0006831 0)
(0.853714 0.000549286 1.18698e-20)
(0.844816 0.000503096 0)
(0.836933 0.000536499 0)
(0.829876 0.000633318 1.12927e-20)
(0.823361 0.000779665 0)
(0.817341 0.000952176 1.09113e-20)
(0.811462 0.00115197 0)
(0.805855 0.0013634 0)
(0.799903 0.00160641 0)
(0.794066 0.00186426 -1.01582e-20)
(0.787132 0.00218378 0)
(0.780248 0.00253531 9.78698e-21)
(0.771078 0.00302959 0)
(0.761931 0.00352428 0)
(0.748759 0.00434371 0)
(0.735048 0.00502895 0)
(0.716072 0.00666484 0)
(0.691514 0.00724932 0)
(0.668999 0.0113055 0)
(0.610722 0.00940264 -1.67058e-20)
(0.610644 0.0223549 0)
(0.44512 0.00855735 0)
(0.0357039 0.0584609 -2.07545e-20)
(0.103794 0.0981675 2.06028e-20)
(0.17736 0.0552418 0)
(0.263416 -0.021815 -1.35142e-20)
(0.351087 -0.0963127 0)
(0.437264 -0.147342 -6.63647e-21)
(0.518756 -0.173075 1.31527e-20)
(0.592038 -0.179374 1.30357e-20)
(0.655867 -0.172962 0)
(0.707131 -0.15649 1.28124e-20)
(0.744681 -0.132941 6.36908e-21)
(0.769402 -0.104272 0)
(0.782469 -0.0686197 0)
(0.784109 -0.0284627 0)
(0.774591 0.0101675 0)
(0.754405 0.0414243 6.14536e-21)
(0.723166 0.0659108 0)
(0.679484 0.085427 -1.21189e-20)
(0.622366 0.0996416 0)
(0.553607 0.107001 0)
(0.479067 0.106815 1.19283e-20)
(0.405586 0.0996616 0)
(0.337715 0.0859255 -1.18112e-20)
(0.275843 0.067878 5.87778e-21)
(0.217781 0.0476059 -5.84732e-21)
(0.160949 0.0271322 5.81735e-21)
(0.104649 0.0087299 5.78814e-21)
(0.0491264 -0.00705815 0)
(-0.00233403 -0.0203423 0)
(-0.0468412 -0.0322877 -5.70528e-21)
(-0.0817131 -0.0438835 5.66663e-21)
(-0.101757 -0.0553525 0)
(-0.10865 -0.0698071 0)
(-0.0940371 -0.0816437 -5.60947e-21)
(-0.0648264 -0.0943421 0)
(-0.0216143 -0.104248 0)
(0.0497624 -0.100355 5.55148e-21)
(0.117766 -0.104975 0)
(0.216732 -0.0775797 -5.51129e-21)
(0.334249 -0.0278079 1.09898e-20)
(0.439187 -0.0238691 0)
(0.610879 0.0964118 0)
(0.793518 0.209856 2.17272e-20)
(0.980871 0.18043 2.1593e-20)
(1.04165 0.125276 2.14775e-20)
(1.02476 0.172289 -1.07167e-20)
(0.921774 0.267799 1.05937e-20)
(0.825765 0.18188 3.15824e-20)
(0.779176 -0.0971593 -2.08825e-20)
(0.694532 -0.304722 -1.03348e-20)
(0.596589 -0.260683 0)
(0.532984 -0.0628923 1.01224e-20)
(0.491434 0.118994 -1.00552e-20)
(0.45264 0.225094 0)
(0.399832 0.2677 0)
(0.322836 0.280175 0)
(0.21488 0.29994 9.41586e-21)
(0.0862802 0.324792 0)
(-0.0326334 0.314775 -1.81012e-20)
(-0.0973968 0.239018 0)
(-0.0893661 0.103018 -1.757e-20)
(-0.0212891 -0.0668538 0)
(0.0925481 -0.253614 1.73166e-20)
(0.248963 -0.475813 0)
(0.488017 -0.726855 -1.72528e-20)
(0.79907 -0.851922 8.59397e-21)
(1.18301 -0.611407 0)
(1.43549 -0.12613 1.70911e-20)
(1.38588 0.188187 8.45328e-21)
(1.37726 0.00169598 8.36179e-21)
(1.45762 -0.363019 0)
(1.4662 -0.450234 8.20929e-21)
(1.19763 -0.138182 8.13156e-21)
(0.477281 0.403491 0)
(-0.492353 0.942608 -7.92786e-21)
(-1.38404 1.31243 1.54522e-20)
(-2.15107 1.425 0)
(-2.76424 1.32167 7.55919e-21)
(-3.25743 1.13542 0)
(-3.64923 0.926625 -2.04898e-20)
(-3.95395 0.72911 0)
(-4.18601 0.557525 1.86193e-20)
(-4.3605 0.415875 5.99937e-21)
(-4.48992 0.302436 -5.55976e-21)
(-4.58415 0.213163 -1.07232e-20)
(-4.65024 0.1432 1.03732e-20)
(-4.69283 0.087788 0)
(-4.71501 0.0430864 0)
(-4.71854 0.00589435 0)
(-4.70524 -0.0260287 -2.85665e-20)
(-4.67473 -0.0536571 -9.429e-21)
(-4.62821 -0.078142 9.33077e-21)
(-4.56712 -0.0999249 0)
(-4.4919 -0.119358 9.14856e-21)
(-4.40397 -0.136771 -9.24393e-21)
(-4.30399 -0.152367 -9.27024e-21)
(-4.19306 -0.166354 0)
(-4.07182 -0.178864 0)
(-3.9412 -0.189981 0)
(-3.80185 -0.199705 -9.54225e-21)
(-3.65472 -0.207976 0)
(-3.50077 -0.214673 1.94203e-20)
(-3.3412 -0.21969 2.94324e-20)
(-3.17723 -0.222977 -1.9797e-20)
(-3.01011 -0.224552 0)
(-2.84104 -0.224504 -1.00561e-20)
(-2.67117 -0.222979 0)
(-2.50158 -0.220159 -2.03836e-20)
(-2.33317 -0.216296 1.02346e-20)
(-2.16662 -0.21169 1.02697e-20)
(-2.00242 -0.206631 0)
(-1.84081 -0.201425 3.09128e-20)
(-1.68176 -0.196437 -2.06017e-20)
(-1.52492 -0.192031 -1.02896e-20)
(-1.36975 -0.1885 0)
(-1.21548 -0.186114 -1.02335e-20)
(-1.06115 -0.18506 -3.05697e-20)
(-0.905636 -0.185439 0)
(-0.747789 -0.187244 -2.01721e-20)
(-0.586436 -0.190311 -2.00544e-20)
(-0.420482 -0.194379 -1.99285e-20)
(-0.249292 -0.198917 0)
(-0.072167 -0.203301 0)
(0.110662 -0.206348 0)
(0.297647 -0.207808 9.6613e-21)
(0.487098 -0.20647 9.59126e-21)
(0.676707 -0.201632 0)
(0.86332 -0.192924 1.87809e-20)
(1.04357 -0.180442 1.85673e-20)
(1.21421 -0.164719 0)
(1.37234 -0.146567 1.81087e-20)
(1.51561 -0.126934 3.5706e-20)
(1.64246 -0.106836 -1.76044e-20)
(1.75201 -0.0871561 -1.73351e-20)
(1.84379 -0.0684645 0)
(1.91858 -0.0512283 0)
(1.97778 -0.0358876 0)
(2.02185 -0.0222924 -1.63264e-20)
(2.05364 -0.00991772 1.60726e-20)
(2.07627 0.00151181 3.16741e-20)
(2.09145 0.0120668 -1.56057e-20)
(2.10081 0.0219867 1.53666e-20)
(2.10546 0.0313544 1.51472e-20)
(2.10585 0.0397899 0)
(2.10195 0.0466184 0)
(2.09369 0.0510521 -1.44785e-20)
(2.08106 0.052518 0)
(2.06433 0.0510826 0)
(2.04415 0.047391 2.76865e-20)
(2.02133 0.0423246 0)
(1.99678 0.0367157 1.34343e-20)
(1.97139 0.0311941 -1.32308e-20)
(1.94605 0.0261445 0)
(1.92157 0.0217434 1.2836e-20)
(1.89862 0.0180297 0)
(1.87763 0.0149668 0)
(1.85881 0.0124807 -1.2247e-20)
(1.84216 0.010481 2.41073e-20)
(1.82752 0.00887481 -1.18596e-20)
(1.8147 0.00757626 0)
(1.80345 0.00651737 0)
(1.79363 0.00564515 1.12841e-20)
(1.78502 0.00493136 0)
(1.77759 0.00434931 1.09031e-20)
(1.77107 0.00391432 0)
(1.76559 0.0036107 0)
(1.76067 0.00351097 0)
(1.7566 0.00354506 1.01503e-20)
(1.75254 0.00389536 0)
(1.74909 0.00431165 -9.77946e-21)
(1.74487 0.00530716 0)
(1.74081 0.00609343 0)
(1.73525 0.00818759 1.8461e-20)
(1.72846 0.00919511 -1.81e-20)
(1.72072 0.0135734 0)
(1.70607 0.0141142 0)
(1.69799 0.0237628 0)
(1.66067 0.0211924 5.00681e-20)
(1.66533 0.0434129 0)
(1.56464 0.0320712 -3.20073e-20)
(0.00458819 -0.1755 -1.71858e-23)
(0.118685 -0.239689 -2.7493e-20)
(0.289925 -0.302696 0)
(0.460142 -0.353764 2.7003e-20)
(0.612707 -0.382575 0)
(0.739986 -0.386605 0)
(0.841146 -0.368741 -3.24636e-23)
(0.917687 -0.337462 -1.30204e-20)
(0.972417 -0.295526 -1.28571e-20)
(1.00635 -0.243612 -1.27988e-20)
(1.01899 -0.190567 0)
(1.01162 -0.140294 0)
(0.98662 -0.0865441 1.245e-20)
(0.938553 -0.0266665 2.47286e-20)
(0.861508 0.0318706 -2.45753e-20)
(0.76136 0.0904878 0)
(0.655655 0.157209 -2.42938e-20)
(0.55284 0.22902 1.21219e-20)
(0.448608 0.289066 0)
(0.334373 0.32229 -2.39196e-20)
(0.208185 0.324736 -1.19348e-20)
(0.0714375 0.303979 2.37036e-20)
(-0.0745422 0.274305 1.18167e-20)
(-0.226127 0.24992 0)
(-0.381081 0.235447 -2.33063e-20)
(-0.533039 0.22661 -2.3165e-20)
(-0.675731 0.215619 0)
(-0.802782 0.195934 -2.2892e-20)
(-0.90909 0.164761 0)
(-0.991236 0.122702 -2.26461e-20)
(-1.0469 0.0721981 -1.13187e-20)
(-1.07703 0.0169166 0)
(-1.08011 -0.0404681 0)
(-1.058 -0.0970119 0)
(-1.01169 -0.149114 0)
(-0.936876 -0.194417 0)
(-0.841275 -0.232663 0)
(-0.729722 -0.259836 -2.2033e-20)
(-0.583695 -0.263227 3.30051e-20)
(-0.408034 -0.26695 0)
(-0.237029 -0.275906 0)
(-0.0208323 -0.215123 0)
(0.237922 -0.199755 5.47794e-23)
(0.480763 -0.294746 -2.16105e-20)
(0.705732 -0.363976 -4.30613e-20)
(0.939635 -0.306127 4.28007e-20)
(1.17436 -0.144679 2.12744e-20)
(1.40696 -0.0268096 -2.10441e-20)
(1.60667 0.0573195 -4.7411e-23)
(1.66989 0.17915 -2.07067e-20)
(1.58052 0.267833 0)
(1.45803 0.256144 -2.03004e-20)
(1.3518 0.214847 -2.11007e-23)
(1.22622 0.228067 0)
(1.08888 0.285393 0)
(0.953132 0.355834 1.90947e-20)
(0.81623 0.428505 0)
(0.701888 0.442699 0)
(0.63378 0.332121 -1.79209e-20)
(0.616941 0.123576 -3.53754e-20)
(0.650478 -0.117478 1.75495e-20)
(0.738982 -0.33971 0)
(0.872781 -0.513347 -1.72852e-20)
(1.03115 -0.706713 0)
(1.22027 -0.965887 -1.70225e-20)
(1.39998 -1.11217 -1.7254e-20)
(1.49405 -0.769604 3.42546e-20)
(1.50515 -0.0135361 1.69374e-20)
(1.5544 0.286701 0)
(1.64091 -0.153891 -3.35774e-20)
(1.34677 -0.284902 0)
(0.623696 0.312779 -4.93553e-20)
(-0.274073 1.03629 -3.23334e-20)
(-1.16714 1.57105 -3.16526e-20)
(-1.92698 1.90375 3.09064e-20)
(-2.49243 2.03656 -4.55169e-20)
(-2.89578 1.9693 0)
(-3.19286 1.76314 0)
(-3.43772 1.49479 2.72232e-20)
(-3.64484 1.21533 3.96491e-20)
(-3.81866 0.956097 0)
(-3.96173 0.732687 -1.2323e-20)
(-4.07788 0.549135 0)
(-4.17083 0.402668 3.34669e-20)
(-4.24414 0.286987 3.56867e-22)
(-4.30033 0.194993 -3.06152e-22)
(-4.34048 0.120335 -2.00764e-20)
(-4.365 0.0577864 0)
(-4.37425 0.00389659 1.91346e-20)
(-4.36794 -0.0441176 2.11423e-22)
(-4.34601 -0.0874616 0)
(-4.30874 -0.126514 0)
(-4.25666 -0.1618 0)
(-4.1906 -0.193689 -1.8397e-20)
(-4.11131 -0.222434 0)
(-4.01962 -0.248318 0)
(-3.91624 -0.271573 0)
(-3.80191 -0.292405 0)
(-3.67732 -0.310919 0)
(-3.54325 -0.327125 -1.89697e-20)
(-3.40058 -0.340895 0)
(-3.25044 -0.35203 -1.94228e-20)
(-3.09416 -0.360333 -1.96143e-20)
(-2.93318 -0.365731 1.97991e-20)
(-2.76889 -0.368264 0)
(-2.60258 -0.368071 2.01299e-20)
(-2.43545 -0.365387 0)
(-2.26864 -0.360528 2.03853e-20)
(-2.10323 -0.353943 -2.04784e-20)
(-1.94002 -0.34618 -6.16204e-20)
(-1.77956 -0.33776 0)
(-1.62218 -0.329186 -6.18107e-20)
(-1.46787 -0.321036 -2.05879e-20)
(-1.31625 -0.313909 0)
(-1.1668 -0.30826 -4.10334e-20)
(-1.01865 -0.304508 -4.08953e-20)
(-0.870736 -0.302957 6.11014e-20)
(-0.721819 -0.303752 0)
(-0.57071 -0.306849 2.01725e-20)
(-0.416177 -0.312064 2.00546e-20)
(-0.257041 -0.318938 5.97301e-20)
(-0.0925994 -0.326524 0)
(0.0777931 -0.333707 0)
(0.253471 -0.339529 0)
(0.432715 -0.342535 1.92737e-20)
(0.613627 -0.34112 0)
(0.793403 -0.334239 0)
(0.968753 -0.321338 -1.87747e-20)
(1.13669 -0.302497 -1.85616e-20)
(1.29511 -0.278353 0)
(1.44285 -0.249958 0)
(1.57933 -0.218728 -3.5698e-20)
(1.70387 -0.186288 0)
(1.81534 -0.153968 3.46748e-20)
(1.9126 -0.122704 3.41396e-20)
(1.99486 -0.0934304 0)
(2.06173 -0.0668723 0)
(2.11326 -0.0435752 -3.26239e-20)
(2.1501 -0.0238945 -1.40109e-23)
(2.1741 -0.00771347 -1.28859e-23)
(2.18857 0.00566321 0)
(2.19719 0.0172778 -6.14652e-20)
(2.20336 0.0274291 0)
(2.20945 0.0360035 0)
(2.21647 0.0426565 0)
(2.22419 0.0469027 2.89571e-20)
(2.23172 0.0485036 0)
(2.23798 0.047817 -5.61988e-20)
(2.24199 0.0455315 -2.76806e-20)
(2.243 0.0424095 0)
(2.24062 0.0390329 -2.68594e-20)
(2.23484 0.035692 0)
(2.2259 0.0324329 0)
(2.21426 0.0291984 -7.69915e-20)
(2.20056 0.0259564 5.05428e-20)
(2.18551 0.022754 0)
(2.16988 0.0196976 4.89803e-20)
(2.15439 0.0169008 -2.40998e-20)
(2.13962 0.0144406 0)
(2.12603 0.0123382 0)
(2.11388 0.0105718 0)
(2.10328 0.00908819 -6.76849e-20)
(2.09423 0.00784305 0)
(2.08664 0.00678173 -2.17994e-20)
(2.08038 0.00590937 0)
(2.07526 0.00518309 0)
(2.07112 0.00470016 0)
(2.06772 0.0043612 0)
(2.06504 0.00443138 0)
(2.06266 0.00457112 0)
(2.06096 0.00548995 -3.8369e-20)
(2.05899 0.00616163 0)
(2.05818 0.00853255 -1.84558e-20)
(2.05573 0.00965815 5.42801e-20)
(2.05624 0.0148521 0)
(2.0512 0.0159705 0)
(2.05454 0.0270768 -3.40503e-20)
(2.04136 0.0265151 -3.33649e-20)
(2.0518 0.0499438 3.26628e-20)
(2.01848 0.0449137 3.19958e-20)
(0.017062 -0.209903 4.15836e-20)
(0.205999 -0.547243 4.12283e-20)
(0.403369 -0.693144 2.72104e-20)
(0.571037 -0.723082 1.34363e-20)
(0.703104 -0.699798 0)
(0.799042 -0.641238 -2.63672e-20)
(0.860284 -0.560703 1.29987e-20)
(0.88861 -0.475413 0)
(0.890269 -0.376366 1.28583e-20)
(0.862059 -0.261185 0)
(0.791708 -0.149472 -2.51747e-20)
(0.684663 -0.0382539 0)
(0.575508 0.0936126 -1.2465e-20)
(0.468611 0.236553 -2.47585e-20)
(0.336267 0.352687 2.46058e-20)
(0.191719 0.411429 0)
(0.0465364 0.428672 2.43265e-20)
(-0.102697 0.451042 0)
(-0.259245 0.49679 0)
(-0.431036 0.551764 2.39037e-20)
(-0.621474 0.597057 0)
(-0.825853 0.624419 -1.43808e-22)
(-1.0386 0.633495 0)
(-1.24544 0.622104 0)
(-1.43437 0.590897 1.87835e-22)
(-1.59749 0.540565 2.30935e-20)
(-1.732 0.473191 2.27416e-20)
(-1.83817 0.392306 2.28263e-20)
(-1.91706 0.301485 0)
(-1.97014 0.204294 4.49416e-20)
(-1.99858 0.103929 0)
(-2.00296 0.00306754 2.21583e-20)
(-1.98378 -0.0957163 0)
(-1.9414 -0.191064 0)
(-1.87577 -0.280733 -2.19502e-20)
(-1.78788 -0.362884 0)
(-1.67665 -0.436344 2.18698e-20)
(-1.53838 -0.499042 1.3949e-22)
(-1.37378 -0.547333 -4.37687e-20)
(-1.18986 -0.581858 4.36153e-20)
(-0.984092 -0.604143 0)
(-0.740877 -0.597254 0)
(-0.463155 -0.580102 2.16926e-20)
(-0.183113 -0.579322 0)
(0.0732934 -0.578334 2.15921e-20)
(0.329184 -0.541881 -2.14471e-20)
(0.610507 -0.465085 -2.12906e-20)
(0.903247 -0.40916 0)
(1.19347 -0.367928 2.09011e-20)
(1.48072 -0.249303 2.07068e-20)
(1.75609 -0.0410671 -4.10365e-20)
(2.0014 0.185288 2.02785e-20)
(2.17854 0.378214 1.99996e-20)
(2.2493 0.523763 0)
(2.23638 0.612773 0)
(2.17771 0.641401 -1.90423e-20)
(2.07925 0.629388 0)
(1.98963 0.56122 0)
(1.94183 0.413792 3.59008e-20)
(1.8895 0.221687 3.52838e-20)
(1.82894 -0.0471503 0)
(1.80238 -0.390568 0)
(1.79836 -0.655941 0)
(1.84024 -0.869688 0)
(1.92379 -1.14959 3.41899e-20)
(1.96551 -1.23629 -3.40386e-20)
(1.87525 -0.800461 -3.42273e-20)
(1.80665 -0.152269 -6.76442e-20)
(1.86028 0.0867537 0)
(1.46277 0.24549 1.53726e-22)
(0.484247 0.803929 0)
(-0.525433 1.49253 3.28697e-20)
(-1.37746 2.02218 3.67071e-22)
(-2.02553 2.34634 3.15691e-20)
(-2.47243 2.46603 -3.08495e-20)
(-2.76842 2.41755 8.36694e-22)
(-2.98173 2.24336 0)
(-3.1624 1.98994 -2.72923e-20)
(-3.32079 1.69257 -2.72198e-20)
(-3.4501 1.3846 -5.13928e-20)
(-3.55147 1.09577 0)
(-3.63275 0.845333 2.33727e-20)
(-3.70202 0.639744 0)
(-3.76583 0.475598 -4.38998e-20)
(-3.82677 0.344986 2.13931e-20)
(-3.8837 0.239478 -2.06954e-20)
(-3.93407 0.151715 2.00881e-20)