/*--------------------------------*- C++ -*----------------------------------*\
  =========                 |
  \\      /  F ield         | OpenFOAM: The Open Source CFD Toolbox
   \\    /   O peration     | Website:  https://openfoam.org
    \\  /    A nd           | Version:  7
     \\/     M anipulation  |
\*---------------------------------------------------------------------------*/
FoamFile
{
    version     2.0;
    format      ascii;
    class       volSymmTensorField;
    location    "0.087";
    object      UPrime2Mean;
}
// * * * * * * * * * * * * * * * * * * * * * * * * * * * * * * * * * * * * * //

dimensions      [0 2 -2 0 0 0 0];

internalField   nonuniform List<symmTensor> 
12225
(
(0.0042468 -8.78383e-05 0 0.000495894 0 0)
(0.0240948 -0.00104432 0 0.000211318 0 0)
(0.0347249 -0.00152919 0 0.00017876 0 0)
(0.0462191 -0.00187754 0 0.000164037 0 0)
(0.0661085 -0.00234835 0 0.000157921 0 0)
(0.0956819 -0.00295491 0 0.000156951 0 0)
(0.135185 -0.00369278 0 0.000166318 0 0)
(0.184868 -0.00426607 0 0.000154789 0 0)
(0.244783 -0.00516775 0 0.000167485 0 0)
(0.314309 -0.00498899 0 0.00012913 0 0)
(0.394942 -0.00669431 0 0.00015581 0 0)
(0.480821 -0.00439324 0 8.99366e-05 0 0)
(0.58546 -0.0102398 0 0.00022936 0 0)
(0.686959 -0.00124654 0 0.000158829 0 0)
(0.838976 -0.0240308 0 0.00108074 0 0)
(0.987618 0.010502 0 0.00125942 0 0)
(1.27942 -0.0906382 0 0.0121179 0 0)
(1.73397 0.0334304 0 0.00587353 0 0)
(0.0041129 1.89345e-05 0 0.000649655 0 0)
(0.0164492 -0.000505458 0 0.000215165 0 0)
(0.0178243 -0.000832593 0 0.000243083 0 0)
(0.0182747 -0.00103512 0 0.000320873 0 0)
(0.0215313 -0.00145485 0 0.000419012 0 0)
(0.0274177 -0.00222633 0 0.000546713 0 0)
(0.0364166 -0.0033167 0 0.000679499 0 0)
(0.0499805 -0.00486776 0 0.000864789 0 0)
(0.0684586 -0.00652499 0 0.000973852 0 0)
(0.0952166 -0.00902988 0 0.00120692 0 0)
(0.128317 -0.0108649 0 0.00121101 0 0)
(0.175665 -0.0150705 0 0.00157207 0 0)
(0.228616 -0.0163955 0 0.00143143 0 0)
(0.309061 -0.0254712 0 0.0023513 0 0)
(0.390901 -0.0259253 0 0.00211909 0 0)
(0.540902 -0.0524448 0 0.00591331 0 0)
(0.68005 -0.0634233 0 0.00660761 0 0)
(0.988392 -0.178091 0 0.0416738 0 0)
(0.00399211 7.73801e-05 0 0.00085722 0 0)
(0.0161087 -0.000756962 0 0.000400289 0 0)
(0.0168174 -0.00117786 0 0.000435825 0 0)
(0.0162528 -0.00129974 0 0.000545594 0 0)
(0.0175213 -0.00152533 0 0.000693282 0 0)
(0.0196467 -0.00196862 0 0.00088104 0 0)
(0.0224876 -0.00264946 0 0.00115464 0 0)
(0.0262123 -0.00350987 0 0.00141503 0 0)
(0.0312865 -0.00474142 0 0.00181502 0 0)
(0.0380912 -0.00603922 0 0.00207554 0 0)
(0.0478577 -0.0082807 0 0.00262754 0 0)
(0.0609036 -0.0101439 0 0.00280458 0 0)
(0.0800067 -0.0147677 0 0.00384333 0 0)
(0.105372 -0.0176646 0 0.00396702 0 0)
(0.143425 -0.0297658 0 0.00715754 0 0)
(0.194843 -0.0377054 0 0.00811522 0 0)
(0.268899 -0.0771 0 0.0235094 0 0)
(0.364288 -0.128865 0 0.0485679 0 0)
(0.00391626 -0.000219935 0 0.000958193 0 0)
(0.016047 -0.000981161 0 0.000469974 0 0)
(0.0167635 -0.00133525 0 0.00050092 0 0)
(0.0161317 -0.00146893 0 0.000651564 0 0)
(0.0171561 -0.00169685 0 0.000832654 0 0)
(0.0188521 -0.00213857 0 0.00106676 0 0)
(0.0209995 -0.00276924 0 0.00135407 0 0)
(0.0236885 -0.00358942 0 0.00174215 0 0)
(0.0270034 -0.00454545 0 0.00214235 0 0)
(0.0313901 -0.00584695 0 0.00268897 0 0)
(0.0371164 -0.00738442 0 0.00320325 0 0)
(0.0451824 -0.00982001 0 0.00404462 0 0)
(0.0560388 -0.0128313 0 0.00490522 0 0)
(0.0718327 -0.018306 0 0.00672388 0 0)
(0.0934329 -0.0260092 0 0.0092609 0 0)
(0.123969 -0.0408949 0 0.0154851 0 0)
(0.16357 -0.0668192 0 0.0289679 0 0)
(0.204004 -0.107831 0 0.0588746 0 0)
(0.00433783 -0.000161714 0 0.00107709 0 0)
(0.0157712 -0.00111752 0 0.000592485 0 0)
(0.0162545 -0.00147155 0 0.000618558 0 0)
(0.0156417 -0.00160943 0 0.000806335 0 0)
(0.0166926 -0.0018583 0 0.00103558 0 0)
(0.01833 -0.00233218 0 0.0013093 0 0)
(0.0203412 -0.00302369 0 0.00168023 0 0)
(0.0228027 -0.003894 0 0.00211525 0 0)
(0.0258498 -0.00500093 0 0.00269194 0 0)
(0.0297419 -0.0063297 0 0.00331243 0 0)
(0.0348582 -0.00822026 0 0.00417566 0 0)
(0.0416978 -0.0106471 0 0.00515838 0 0)
(0.0509515 -0.0144813 0 0.00678411 0 0)
(0.0635583 -0.0198364 0 0.00899898 0 0)
(0.0804774 -0.0288943 0 0.0133209 0 0)
(0.102228 -0.0429664 0 0.0210413 0 0)
(0.12749 -0.0656447 0 0.0365946 0 0)
(0.148408 -0.0997853 0 0.0709181 0 0)
(0.00416378 -0.000244284 0 0.00119084 0 0)
(0.0157969 -0.00129721 0 0.000732066 0 0)
(0.0160562 -0.00159507 0 0.000771539 0 0)
(0.0153423 -0.00169526 0 0.00102124 0 0)
(0.0162775 -0.00194819 0 0.00131891 0 0)
(0.017732 -0.00244691 0 0.00166495 0 0)
(0.0195228 -0.00316708 0 0.00209304 0 0)
(0.0217439 -0.00409657 0 0.00263923 0 0)
(0.024513 -0.00526299 0 0.00330692 0 0)
(0.0280397 -0.00676978 0 0.00414331 0 0)
(0.0326489 -0.0087922 0 0.0051967 0 0)
(0.0386992 -0.0116194 0 0.00662896 0 0)
(0.0467484 -0.0156877 0 0.00868025 0 0)
(0.0572038 -0.0216725 0 0.0118619 0 0)
(0.0706767 -0.0307807 0 0.017221 0 0)
(0.086344 -0.0442693 0 0.0265805 0 0)
(0.102931 -0.0641413 0 0.0438283 0 0)
(0.114382 -0.0894112 0 0.0739852 0 0)
(0.00354576 -0.000227434 0 0.00138936 0 0)
(0.015102 -0.0014362 0 0.000978194 0 0)
(0.0152571 -0.00173314 0 0.000989506 0 0)
(0.0145237 -0.00185089 0 0.00125339 0 0)
(0.0154548 -0.00212296 0 0.00160247 0 0)
(0.0168625 -0.00265096 0 0.00200981 0 0)
(0.0185459 -0.00342342 0 0.00251846 0 0)
(0.0205906 -0.00442376 0 0.00315948 0 0)
(0.0231139 -0.00569215 0 0.0039774 0 0)
(0.0262992 -0.00731971 0 0.0050096 0 0)
(0.0304073 -0.00951002 0 0.00634924 0 0)
(0.0356892 -0.0125341 0 0.00817611 0 0)
(0.042485 -0.0168108 0 0.010795 0 0)
(0.0509236 -0.0229387 0 0.0148227 0 0)
(0.0611359 -0.0316918 0 0.0211779 0 0)
(0.0720478 -0.0439977 0 0.0318311 0 0)
(0.082418 -0.0601779 0 0.048963 0 0)
(0.0879764 -0.0790347 0 0.076487 0 0)
(0.00362243 -0.000244152 0 0.00133041 0 0)
(0.0149222 -0.00157825 0 0.000988393 0 0)
(0.0150309 -0.00181401 0 0.00110312 0 0)
(0.0142508 -0.0018785 0 0.00143487 0 0)
(0.0151229 -0.0021623 0 0.00185584 0 0)
(0.0164464 -0.00271879 0 0.00234917 0 0)
(0.0179829 -0.00351194 0 0.00295682 0 0)
(0.0197926 -0.00454318 0 0.0037299 0 0)
(0.0219843 -0.00586869 0 0.00471437 0 0)
(0.0247207 -0.00759259 0 0.00597517 0 0)
(0.0282057 -0.00989615 0 0.00762379 0 0)
(0.0325903 -0.0130244 0 0.00987677 0 0)
(0.0380416 -0.0173311 0 0.0130737 0 0)
(0.0444987 -0.0232584 0 0.0178361 0 0)
(0.051817 -0.0313153 0 0.0250476 0 0)
(0.0589754 -0.0418644 0 0.0362645 0 0)
(0.0649308 -0.0546951 0 0.0530309 0 0)
(0.0670139 -0.0684359 0 0.0777131 0 0)
(0.00438954 -0.000497449 0 0.00141035 0 0)
(0.0152329 -0.00196438 0 0.0011833 0 0)
(0.0149865 -0.00217607 0 0.00132867 0 0)
(0.0141785 -0.00218933 0 0.00169133 0 0)
(0.015026 -0.0024727 0 0.00218207 0 0)
(0.0161955 -0.00306478 0 0.00277342 0 0)
(0.0174977 -0.00390307 0 0.00349784 0 0)
(0.0190496 -0.00497465 0 0.00441063 0 0)
(0.020945 -0.00633344 0 0.00557241 0 0)
(0.0232842 -0.00808644 0 0.00707079 0 0)
(0.0261881 -0.0104036 0 0.00903288 0 0)
(0.0297292 -0.0135041 0 0.0117047 0 0)
(0.0339536 -0.0176556 0 0.0154235 0 0)
(0.0386904 -0.0231534 0 0.0207955 0 0)
(0.0436759 -0.0302442 0 0.0285569 0 0)
(0.0480323 -0.0389511 0 0.0399295 0 0)
(0.0510519 -0.0488105 0 0.0558632 0 0)
(0.0510868 -0.0585363 0 0.0776814 0 0)
(0.00375582 -0.000339674 0 0.00156624 0 0)
(0.0148978 -0.00193427 0 0.00129566 0 0)
(0.0147423 -0.00214716 0 0.00147181 0 0)
(0.0139196 -0.00212544 0 0.00187976 0 0)
(0.0146631 -0.00238876 0 0.00242803 0 0)
(0.0156927 -0.00297839 0 0.003095 0 0)
(0.0168309 -0.003818 0 0.00391329 0 0)
(0.0181659 -0.00488733 0 0.00494754 0 0)
(0.0197618 -0.00624104 0 0.0062762 0 0)
(0.0216878 -0.007981 0 0.00800438 0 0)
(0.0240173 -0.0102487 0 0.0102699 0 0)
(0.0267536 -0.0132087 0 0.0133193 0 0)
(0.0298538 -0.0170436 0 0.0174777 0 0)
(0.0330903 -0.0219067 0 0.0232866 0 0)
(0.036184 -0.027862 0 0.0313291 0 0)
(0.0384555 -0.0347315 0 0.0425095 0 0)
(0.0395167 -0.0419949 0 0.0573321 0 0)
(0.0383586 -0.04859 0 0.0765756 0 0)
(0.00389803 -0.000389336 0 0.0018427 0 0)
(0.0149126 -0.00223645 0 0.00161883 0 0)
(0.0144428 -0.00248411 0 0.0017833 0 0)
(0.0134004 -0.00238959 0 0.00222479 0 0)
(0.0140113 -0.00260552 0 0.00284344 0 0)
(0.0149226 -0.00317909 0 0.00361326 0 0)
(0.0159054 -0.00400652 0 0.00455561 0 0)
(0.0170284 -0.00504903 0 0.00573556 0 0)
(0.0183456 -0.00634803 0 0.00723732 0 0)
(0.0198974 -0.00799365 0 0.00918319 0 0)
(0.02171 -0.0101047 0 0.011721 0 0)
(0.0237386 -0.012797 0 0.0150878 0 0)
(0.0258982 -0.016177 0 0.0195722 0 0)
(0.0279605 -0.0202859 0 0.0256291 0 0)
(0.0296981 -0.025076 0 0.033688 0 0)
(0.0306207 -0.0302704 0 0.0443893 0 0)
(0.0305798 -0.0354041 0 0.057937 0 0)
(0.0289474 -0.0396307 0 0.0747922 0 0)
(0.00380697 -0.000462664 0 0.00188106 0 0)
(0.0147803 -0.00229541 0 0.00169182 0 0)
(0.0142735 -0.00255215 0 0.00191353 0 0)
(0.0131674 -0.00244605 0 0.00240484 0 0)
(0.0136942 -0.00265045 0 0.00308337 0 0)
(0.0144818 -0.00321168 0 0.00393929 0 0)
(0.0153041 -0.00401276 0 0.00499118 0 0)
(0.0162204 -0.00500841 0 0.00629774 0 0)
(0.0172609 -0.00623573 0 0.00795278 0 0)
(0.01844 -0.00776936 0 0.0100828 0 0)
(0.0197543 -0.00969725 0 0.0128342 0 0)
(0.0211364 -0.0120863 0 0.016429 0 0)
(0.0224917 -0.0149804 0 0.0211137 0 0)
(0.0236351 -0.0183483 0 0.0272619 0 0)
(0.0244049 -0.0220803 0 0.0351697 0 0)
(0.0244799 -0.0258828 0 0.0452886 0 0)
(0.023845 -0.0293643 0 0.0576351 0 0)
(0.0220902 -0.0318813 0 0.0725131 0 0)
(0.00378246 -0.000612634 0 0.00206588 0 0)
(0.0149364 -0.00249904 0 0.00194852 0 0)
(0.0143628 -0.00269621 0 0.00215075 0 0)
(0.0131377 -0.00250568 0 0.00267592 0 0)
(0.0135195 -0.00265218 0 0.00340784 0 0)
(0.0141412 -0.00317073 0 0.00434143 0 0)
(0.0147754 -0.0039175 0 0.00549726 0 0)
(0.0154743 -0.00482565 0 0.00692706 0 0)
(0.0162439 -0.00591954 0 0.00871879 0 0)
(0.0170741 -0.00726198 0 0.0109964 0 0)
(0.017944 -0.00891848 0 0.0139027 0 0)
(0.0187922 -0.0109218 0 0.017637 0 0)
(0.0195321 -0.0132697 0 0.0224013 0 0)
(0.0200208 -0.0158866 0 0.0284932 0 0)
(0.0201432 -0.0186307 0 0.0361012 0 0)
(0.0197012 -0.0212269 0 0.0455441 0 0)
(0.0187463 -0.0233526 0 0.0567247 0 0)
(0.0170272 -0.024532 0 0.0698647 0 0)
(0.0037853 -0.000632076 0 0.00249499 0 0)
(0.0146845 -0.00263012 0 0.00239879 0 0)
(0.0139743 -0.0027734 0 0.00256916 0 0)
(0.0126783 -0.00250266 0 0.00310712 0 0)
(0.0129675 -0.00256739 0 0.00388529 0 0)
(0.0134648 -0.00300166 0 0.00488034 0 0)
(0.0139203 -0.00364823 0 0.006113 0 0)
(0.0143614 -0.00442246 0 0.00764224 0 0)
(0.014791 -0.00533009 0 0.00955114 0 0)
(0.0152143 -0.00641623 0 0.011955 0 0)
(0.0156313 -0.00772709 0 0.0149775 0 0)
(0.0159953 -0.00926483 0 0.0187869 0 0)
(0.0162283 -0.01099 0 0.0235327 0 0)
(0.0162135 -0.0127884 0 0.0294337 0 0)
(0.0158735 -0.0145131 0 0.036582 0 0)
(0.0151044 -0.0159149 0 0.0451916 0 0)
(0.0140139 -0.0167746 0 0.0550845 0 0)
(0.0124444 -0.0167377 0 0.0664443 0 0)
(0.00395325 -0.000383993 0 0.00257919 0 0)
(0.0146513 -0.00275546 0 0.00264097 0 0)
(0.0138211 -0.00296367 0 0.00287701 0 0)
(0.0124744 -0.00267839 0 0.00348504 0 0)
(0.0127078 -0.00269745 0 0.00433671 0 0)
(0.0130956 -0.00305198 0 0.00541416 0 0)
(0.0133861 -0.00358301 0 0.00674191 0 0)
(0.0136123 -0.00420555 0 0.00837061 0 0)
(0.0137862 -0.0049181 0 0.010373 0 0)
(0.0139187 -0.00574531 0 0.0128487 0 0)
(0.0140038 -0.00669954 0 0.0158979 0 0)
(0.0139968 -0.00774501 0 0.0196496 0 0)
(0.0138369 -0.00881432 0 0.0241994 0 0)
(0.0134603 -0.00978373 0 0.0296951 0 0)
(0.0128537 -0.0105322 0 0.0361519 0 0)
(0.0119901 -0.0108643 0 0.0437128 0 0)
(0.0110083 -0.0106557 0 0.0521639 0 0)
(0.0097982 -0.00965261 0 0.0616732 0 0)
(0.00437853 -0.000342368 0 0.00283349 0 0)
(0.0148743 -0.00278468 0 0.00268166 0 0)
(0.0137571 -0.00301972 0 0.00287018 0 0)
(0.0121318 -0.00267811 0 0.00349521 0 0)
(0.0120799 -0.00262378 0 0.00437635 0 0)
(0.0121924 -0.00289882 0 0.00550183 0 0)
(0.0122658 -0.00331964 0 0.00688802 0 0)
(0.0123329 -0.00377007 0 0.00857156 0 0)
(0.0123552 -0.00422339 0 0.0106075 0 0)
(0.0122909 -0.00468809 0 0.0130716 0 0)
(0.0121219 -0.0051695 0 0.0160364 0 0)
(0.0118354 -0.00562971 0 0.0195953 0 0)
(0.0114272 -0.00600725 0 0.0237992 0 0)
(0.0109012 -0.0061892 0 0.0287395 0 0)
(0.0102864 -0.00608867 0 0.0343799 0 0)
(0.00960519 -0.00555065 0 0.0408121 0 0)
(0.00897989 -0.00453223 0 0.0478197 0 0)
(0.00832403 -0.00283587 0 0.0555691 0 0)
(0.00423811 -0.000355145 0 0.0029676 0 0)
(0.0149721 -0.00297269 0 0.00283196 0 0)
(0.0137629 -0.00325149 0 0.00305498 0 0)
(0.0120565 -0.00282249 0 0.0037221 0 0)
(0.0119191 -0.00266887 0 0.00462863 0 0)
(0.0119004 -0.00285882 0 0.00576383 0 0)
(0.0118096 -0.00316445 0 0.00713323 0 0)
(0.0117036 -0.00342369 0 0.00876178 0 0)
(0.011561 -0.00359605 0 0.0106949 0 0)
(0.0113537 -0.00369866 0 0.0129914 0 0)
(0.0110723 -0.00374614 0 0.0156982 0 0)
(0.0107174 -0.00370735 0 0.0188732 0 0)
(0.0102952 -0.00352891 0 0.0225263 0 0)
(0.00983267 -0.00311508 0 0.0267031 0 0)
(0.00936478 -0.00240378 0 0.0313353 0 0)
(0.00894239 -0.001284 0 0.0364911 0 0)
(0.00865968 0.000243575 0 0.041968 0 0)
(0.00848053 0.00231953 0 0.0479404 0 0)
(0.00388349 -0.000464387 0 0.00312213 0 0)
(0.0147163 -0.0030258 0 0.00320345 0 0)
(0.013448 -0.00324666 0 0.00318793 0 0)
(0.0116097 -0.00285591 0 0.00367234 0 0)
(0.0113135 -0.00270832 0 0.00448559 0 0)
(0.0110816 -0.0027876 0 0.00552777 0 0)
(0.0107582 -0.00288316 0 0.00677096 0 0)
(0.0104514 -0.00288254 0 0.00822765 0 0)
(0.0101707 -0.00276707 0 0.00992666 0 0)
(0.00989953 -0.00254429 0 0.0119067 0 0)
(0.00962922 -0.00220816 0 0.0141909 0 0)
(0.00936173 -0.00172083 0 0.0168059 0 0)
(0.00910631 -0.00103502 0 0.019741 0 0)
(0.00890025 -8.93738e-05 0 0.0230202 0 0)
(0.00878206 0.00114552 0 0.026578 0 0)
(0.00880972 0.0027233 0 0.0304704 0 0)
(0.00905044 0.00462435 0 0.0345332 0 0)
(0.00948739 0.00692206 0 0.0389103 0 0)
(0.00391357 -0.000266295 0 0.00289156 0 0)
(0.0148722 -0.00270327 0 0.0028414 0 0)
(0.0132442 -0.00285162 0 0.00281309 0 0)
(0.0111783 -0.00230013 0 0.00326659 0 0)
(0.0107778 -0.00191835 0 0.003961 0 0)
(0.0104525 -0.00175339 0 0.00481587 0 0)
(0.010071 -0.00161944 0 0.00582532 0 0)
(0.00976934 -0.00138866 0 0.00700046 0 0)
(0.00955798 -0.00101039 0 0.00834884 0 0)
(0.00941349 -0.000475013 0 0.00987786 0 0)
(0.00932869 0.000215372 0 0.0115869 0 0)
(0.00931631 0.00107142 0 0.0134859 0 0)
(0.00940197 0.00210923 0 0.0155621 0 0)
(0.00963418 0.00336032 0 0.0178311 0 0)
(0.0100503 0.00483363 0 0.0202429 0 0)
(0.0107002 0.00656308 0 0.0228393 0 0)
(0.0116215 0.00852054 0 0.0255022 0 0)
(0.0128028 0.0107599 0 0.0283397 0 0)
(0.00400773 -0.000408016 0 0.00332159 0 0)
(0.0142573 -0.00257301 0 0.00306716 0 0)
(0.0124932 -0.00255214 0 0.00290043 0 0)
(0.0104509 -0.0019392 0 0.00320452 0 0)
(0.00997523 -0.00148176 0 0.00370951 0 0)
(0.00960626 -0.00121348 0 0.00434331 0 0)
(0.00923765 -0.000976697 0 0.0050925 0 0)
(0.008984 -0.000647299 0 0.00595067 0 0)
(0.00885562 -0.000166286 0 0.00691584 0 0)
(0.00884162 0.00047839 0 0.00799437 0 0)
(0.00894438 0.00127868 0 0.009189 0 0)
(0.00918112 0.00223178 0 0.0105059 0 0)
(0.00957438 0.00333862 0 0.011933 0 0)
(0.0101628 0.00461373 0 0.0134769 0 0)
(0.0109759 0.00605565 0 0.0150973 0 0)
(0.0120523 0.00768379 0 0.0168227 0 0)
(0.0134161 0.00947232 0 0.0185741 0 0)
(0.0150631 0.011458 0 0.0204183 0 0)
(0.0044664 -0.000331602 0 0.00292005 0 0)
(0.0146869 -0.00223208 0 0.00257633 0 0)
(0.0128742 -0.0020956 0 0.00232307 0 0)
(0.0108173 -0.00143552 0 0.0024919 0 0)
(0.0103151 -0.000951219 0 0.00284128 0 0)
(0.00991128 -0.000644066 0 0.00329688 0 0)
(0.00954606 -0.000359725 0 0.00382588 0 0)
(0.00935351 1.16471e-05 0 0.00441263 0 0)
(0.00933436 0.000518898 0 0.00505583 0 0)
(0.00946473 0.0011708 0 0.00576404 0 0)
(0.00974767 0.00195806 0 0.00654181 0 0)
(0.0102074 0.0028733 0 0.00739443 0 0)
(0.0108715 0.0039102 0 0.00831315 0 0)
(0.0117721 0.00507356 0 0.00930273 0 0)
(0.0129266 0.00635727 0 0.0103366 0 0)
(0.014359 0.00777497 0 0.0114337 0 0)
(0.016084 0.00930572 0 0.0125435 0 0)
(0.0180928 0.0109813 0 0.0137129 0 0)
(0.00374197 -0.000184563 0 0.00288767 0 0)
(0.0143064 -0.00196246 0 0.00215795 0 0)
(0.0125635 -0.00192531 0 0.00184468 0 0)
(0.0105121 -0.00134584 0 0.00194317 0 0)
(0.0100061 -0.000872031 0 0.00221123 0 0)
(0.00959576 -0.000560769 0 0.00256978 0 0)
(0.00922157 -0.000292868 0 0.00297965 0 0)
(0.00902029 4.6272e-05 0 0.00343146 0 0)
(0.00901003 0.000519429 0 0.00392862 0 0)
(0.00919095 0.0011379 0 0.00447618 0 0)
(0.00957764 0.00188385 0 0.00507067 0 0)
(0.0101906 0.00273814 0 0.00570918 0 0)
(0.0110469 0.00368968 0 0.0063834 0 0)
(0.0121698 0.00474109 0 0.00709726 0 0)
(0.0135722 0.00589022 0 0.00783202 0 0)
(0.0152723 0.00714739 0 0.0086024 0 0)
(0.0172807 0.008493 0 0.00937014 0 0)
(0.0195881 0.00994702 0 0.0101668 0 0)
(0.00414489 -0.000301499 0 0.00247614 0 0)
(0.0140714 -0.00176911 0 0.00201085 0 0)
(0.0122072 -0.00157412 0 0.00168652 0 0)
(0.0101488 -0.000978068 0 0.00163717 0 0)
(0.00964776 -0.000523557 0 0.00173232 0 0)
(0.00925473 -0.000221426 0 0.00190293 0 0)
(0.00892319 3.75862e-05 0 0.00210815 0 0)
(0.00881009 0.00034176 0 0.0023339 0 0)
(0.00893442 0.000739832 0 0.00258669 0 0)
(0.00928167 0.00124548 0 0.00287769 0 0)
(0.00985789 0.00185169 0 0.00320879 0 0)
(0.0106806 0.00254709 0 0.00357566 0 0)
(0.0117681 0.00332269 0 0.00396823 0 0)
(0.0131394 0.00417692 0 0.00438646 0 0)
(0.0148106 0.0051041 0 0.00481919 0 0)
(0.0167918 0.00610724 0 0.00527919 0 0)
(0.0190994 0.00717349 0 0.00574324 0 0)
(0.0217033 0.0083115 0 0.0062275 0 0)
(0.00428052 -0.000551483 0 0.00219434 0 0)
(0.0139083 -0.00169236 0 0.00155957 0 0)
(0.0117289 -0.00127142 0 0.0012994 0 0)
(0.00971572 -0.000600542 0 0.00131716 0 0)
(0.00944566 -0.000126646 0 0.00143085 0 0)
(0.0092793 0.000173741 0 0.00158528 0 0)
(0.00914162 0.000432585 0 0.00175585 0 0)
(0.00922385 0.000745562 0 0.00193827 0 0)
(0.00957926 0.00115549 0 0.00213519 0 0)
(0.0102034 0.00166536 0 0.00234913 0 0)
(0.0110963 0.00225998 0 0.00257896 0 0)
(0.0122721 0.0029234 0 0.00282409 0 0)
(0.013749 0.00364407 0 0.00308208 0 0)
(0.0155452 0.00442014 0 0.00335648 0 0)
(0.0176654 0.00524569 0 0.00364038 0 0)
(0.0201096 0.00612573 0 0.00394389 0 0)
(0.0228786 0.00704814 0 0.00425031 0 0)
(0.0259414 0.00802865 0 0.00456723 0 0)
(0.00447358 -0.000390444 0 0.00190659 0 0)
(0.0139334 -0.00140318 0 0.00124976 0 0)
(0.0115895 -0.00108587 0 0.000904914 0 0)
(0.00950809 -0.000600046 0 0.000854256 0 0)
(0.00919031 -0.000251611 0 0.000887411 0 0)
(0.00897307 -3.42838e-05 0 0.000924874 0 0)
(0.00880952 0.000136111 0 0.000964138 0 0)
(0.00890603 0.00033352 0 0.00102805 0 0)
(0.00930006 0.000597739 0 0.00112183 0 0)
(0.00996968 0.000934791 0 0.00123572 0 0)
(0.0109176 0.00133318 0 0.00135954 0 0)
(0.0121684 0.00178249 0 0.00149077 0 0)
(0.0137471 0.00227618 0 0.00163002 0 0)
(0.015666 0.00281284 0 0.00178055 0 0)
(0.0179233 0.00338878 0 0.00193855 0 0)
(0.0205055 0.00400531 0 0.00210917 0 0)
(0.0234117 0.00465337 0 0.00228288 0 0)
(0.0266 0.00534431 0 0.00246433 0 0)
(0.00432477 -0.000301146 0 0.00188393 0 0)
(0.0138026 -0.00105582 0 0.00106685 0 0)
(0.0113038 -0.000867712 0 0.000719644 0 0)
(0.00927092 -0.000440451 0 0.000705832 0 0)
(0.00904691 -6.84899e-05 0 0.000741496 0 0)
(0.00895968 0.000182709 0 0.000768664 0 0)
(0.00902484 0.000378651 0 0.000787859 0 0)
(0.00944038 0.000584103 0 0.000812514 0 0)
(0.0101949 0.000833668 0 0.000850959 0 0)
(0.0112259 0.00113545 0 0.000901348 0 0)
(0.0125268 0.00148213 0 0.000959701 0 0)
(0.0141344 0.00186628 0 0.00102496 0 0)
(0.0160864 0.00228321 0 0.00109761 0 0)
(0.0184006 0.00273191 0 0.00117996 0 0)
(0.0210766 0.00320848 0 0.00126965 0 0)
(0.0240984 0.00371451 0 0.00137013 0 0)
(0.0274686 0.00424172 0 0.00147574 0 0)
(0.0311396 0.00479936 0 0.00158969 0 0)
(0.00358042 -0.000430501 0 0.00153093 0 0)
(0.0128739 -0.000645541 0 0.0006987 0 0)
(0.0104213 -0.000389655 0 0.000386129 0 0)
(0.00865047 -0.000150467 0 0.000341446 0 0)
(0.00862473 3.22999e-05 0 0.000327241 0 0)
(0.00868733 0.000133453 0 0.000322387 0 0)
(0.00889532 0.000204422 0 0.000332276 0 0)
(0.00946028 0.000293207 0 0.000350978 0 0)
(0.0103871 0.000417909 0 0.000373127 0 0)
(0.0116325 0.000576775 0 0.000396837 0 0)
(0.0132025 0.000761789 0 0.000422733 0 0)
(0.0151295 0.000965496 0 0.000452385 0 0)
(0.0174344 0.00118415 0 0.000486784 0 0)
(0.020112 0.00141821 0 0.00052737 0 0)
(0.0231454 0.00166758 0 0.000573467 0 0)
(0.0265074 0.00193566 0 0.000627386 0 0)
(0.0301996 0.00221755 0 0.000686553 0 0)
(0.0341739 0.00252215 0 0.000751548 0 0)
(0.00447223 -0.000453757 0 0.00120613 0 0)
(0.0128548 -0.000785173 0 0.000505682 0 0)
(0.0100869 -0.000579786 0 0.000354354 0 0)
(0.00857268 -0.000271775 0 0.000325932 0 0)
(0.00874499 -5.50076e-05 0 0.000284021 0 0)
(0.00895086 6.73664e-05 0 0.000244385 0 0)
(0.00939148 0.000160467 0 0.000223178 0 0)
(0.0102982 0.000254497 0 0.000215102 0 0)
(0.0116336 0.000350883 0 0.000213712 0 0)
(0.0133168 0.00045043 0 0.000216255 0 0)
(0.0153314 0.000558807 0 0.000222687 0 0)
(0.0177019 0.000681534 0 0.000233914 0 0)
(0.0204457 0.000821599 0 0.000250711 0 0)
(0.0235624 0.000979173 0 0.000273413 0 0)
(0.027032 0.0011511 0 0.000301553 0 0)
(0.0308388 0.00133353 0 0.000336633 0 0)
(0.0349775 0.00152111 0 0.000377737 0 0)
(0.0394159 0.00171584 0 0.000424312 0 0)
(0.0037178 -0.000216266 0 0.000884524 0 0)
(0.0119562 3.47716e-06 0 0.000217587 0 0)
(0.00929361 -5.81092e-05 0 0.000134991 0 0)
(0.00793218 -2.2662e-05 0 0.000122925 0 0)
(0.00823964 -2.29082e-05 0 0.000122353 0 0)
(0.0086141 -5.75131e-05 0 0.00012405 0 0)
(0.00922509 -0.000103313 0 0.000127058 0 0)
(0.0102534 -0.000147124 0 0.000131491 0 0)
(0.0116303 -0.000185365 0 0.000137779 0 0)
(0.0132564 -0.000216431 0 0.000145672 0 0)
(0.0150912 -0.000237315 0 0.000154737 0 0)
(0.0171513 -0.000245526 0 0.000164977 0 0)
(0.0194476 -0.000238542 0 0.000176695 0 0)
(0.0220094 -0.000214435 0 0.000190496 0 0)
(0.0248158 -0.000171706 0 0.000206264 0 0)
(0.0279069 -0.000110307 0 0.000225204 0 0)
(0.0312374 -3.05165e-05 0 0.000247307 0 0)
(0.0348824 6.92033e-05 0 0.000271535 0 0)
(0.00379687 -0.000347752 0 0.000739735 0 0)
(0.0125691 -5.25863e-05 0 0.000217433 0 0)
(0.0109536 1.62166e-05 0 0.000132721 0 0)
(0.0104006 8.49814e-05 0 9.94079e-05 0 0)
(0.0112967 0.000103218 0 8.055e-05 0 0)
(0.0121414 0.000113155 0 6.75935e-05 0 0)
(0.0129757 0.000126422 0 5.82341e-05 0 0)
(0.0139983 0.00014106 0 5.246e-05 0 0)
(0.0152865 0.000156332 0 4.89786e-05 0 0)
(0.0168682 0.000173791 0 4.66955e-05 0 0)
(0.018759 0.000196499 0 4.56427e-05 0 0)
(0.0209755 0.000227935 0 4.60815e-05 0 0)
(0.0235513 0.000270632 0 4.78187e-05 0 0)
(0.0265324 0.000324778 0 5.0397e-05 0 0)
(0.0299805 0.000388635 0 5.36175e-05 0 0)
(0.0339172 0.000460296 0 5.77071e-05 0 0)
(0.038411 0.000538698 0 6.22756e-05 0 0)
(0.0434119 0.000627451 0 6.68086e-05 0 0)
(0.00244618 -0.00647465 1.17767e-22 0.0175175 -2.62569e-22 1.08027e-37)
(0.0276113 -0.0226722 -3.38179e-22 0.0189525 2.19182e-22 1.06516e-37)
(0.0732559 -0.0313306 0 0.0141889 0 0)
(0.121906 -0.0305758 0 0.0092489 0 0)
(0.160049 -0.0232119 0 0.00607577 0 0)
(0.185544 -0.015393 7.93377e-22 0.00558695 -5.24673e-23 1.00329e-37)
(0.204127 -0.0107087 0 0.00689441 0 0)
(0.221272 -0.0103766 0 0.0090643 0 0)
(0.24602 -0.0151318 0 0.0111037 0 0)
(0.285773 -0.0236352 0 0.0125386 0 0)
(0.346252 -0.034331 -8.65414e-22 0.0130224 6.64215e-24 9.2932e-38)
(0.430049 -0.0451051 0 0.0127742 0 0)
(0.536233 -0.0545094 0 0.0119252 0 0)
(0.661357 -0.0615696 0 0.0106903 0 0)
(0.80043 -0.0656816 0 0.00928245 0 0)
(0.947429 -0.0666153 -9.60756e-22 0.00788124 5.54355e-23 8.58964e-38)
(1.09589 -0.0644549 0 0.00662729 0 0)
(1.23987 -0.0595141 0 0.00563349 0 0)
(1.37421 -0.0522887 0 0.00499438 0 0)
(1.49384 -0.0435196 0 0.00478533 0 0)
(1.59641 -0.0341386 0 0.00504074 0 0)
(1.68108 -0.0251532 0 0.00572549 0 0)
(1.74914 -0.017418 0 0.00671848 0 0)
(1.80338 -0.0114533 -1.85401e-21 0.00782129 1.8148e-22 7.53849e-38)
(1.84711 -0.00726795 2.04121e-21 0.00881968 -1.8987e-22 7.41351e-38)
(1.88321 -0.00451778 -2.23876e-21 0.00959084 1.94514e-22 7.28995e-38)
(1.91352 -0.00255322 -2.44328e-21 0.0103134 1.96186e-22 7.16781e-38)
(1.93868 -0.000784452 0 0.0114498 0 0)
(1.9579 0.00058862 0 0.0143689 0 0)
(1.9722 0.00075177 3.06038e-21 0.0198608 -1.71751e-22 6.8099e-38)
(1.98336 -0.00235171 3.2521e-21 0.0287377 -1.49021e-22 6.69342e-38)
(1.99832 -0.0114238 0 0.0388748 0 0)
(2.02253 -0.0242549 0 0.0462786 0 0)
(2.055 -0.0365301 3.78753e-21 0.049022 -1.16913e-22 6.35244e-38)
(2.09818 -0.0469622 0 0.0482782 0 0)
(2.15788 -0.0595118 0 0.0488373 0 0)
(2.23976 -0.0779885 -4.32852e-21 0.0510008 1.28001e-22 6.0241e-38)
(2.34355 -0.0962977 0 0.0526588 0 0)
(2.4704 -0.10648 -4.68016e-21 0.0514898 1.21408e-22 5.8122e-38)
(2.62099 -0.120127 -9.70204e-21 0.0547887 2.43623e-22 2.28333e-37)
(2.79719 -0.136446 0 0.0544032 0 0)
(2.98776 -0.14378 0 0.0520736 0 0)
(3.19867 -0.154631 0 0.0473785 0 0)
(3.43506 -0.164749 0 0.0461099 0 0)
(3.68132 -0.163543 0 0.0438407 0 0)
(3.92823 -0.145537 -1.14706e-20 0.0395727 2.2144e-22 2.04559e-37)
(4.16504 -0.130254 -1.16993e-20 0.0354639 2.13791e-22 2.00787e-37)
(4.39747 -0.123133 -1.19008e-20 0.02947 1.92289e-22 1.97068e-37)
(4.61837 -0.113806 0 0.0262088 0 0)
(4.81119 -0.102639 1.22193e-20 0.0243931 -1.61656e-22 1.8979e-37)
(4.96949 -0.0916055 0 0.0230541 0 0)
(5.09217 -0.0808896 -1.24417e-20 0.0222285 1.34909e-22 1.82721e-37)
(5.18625 -0.069664 -1.25157e-20 0.0222415 1.25274e-22 1.79265e-37)
(5.26142 -0.0603859 0 0.0228247 0 0)
(5.32834 -0.0556612 0 0.022963 0 0)
(5.39387 -0.0547939 0 0.0224323 0 0)
(5.45872 -0.0563447 -1.25648e-20 0.0214327 8.23519e-23 1.6595e-37)
(5.5198 -0.0590989 0 0.0203151 0 0)
(5.57593 -0.0610863 0 0.0197504 0 0)
(5.6298 -0.0609914 0 0.0202451 0 0)
(5.68418 -0.0589733 0 0.0218327 0 0)
(5.73797 -0.0553436 0 0.0239629 0 0)
(5.78975 -0.0525333 0 0.025758 0 0)
(5.84098 -0.0523798 0 0.0261487 0 0)
(5.89317 -0.0518816 0 0.0259122 0 0)
(5.94587 -0.0513952 1.20926e-20 0.0262208 -7.07366e-23 1.38847e-37)
(6.00299 -0.0570282 0 0.0262489 0 0)
(6.07913 -0.0702574 0 0.0244206 0 0)
(6.18889 -0.0818408 -1.20152e-20 0.0214513 6.82138e-23 1.30646e-37)
(6.32618 -0.0850863 -1.19941e-20 0.0185708 6.4174e-23 1.28001e-37)
(6.47022 -0.0809632 0 0.0158824 0 0)
(6.60207 -0.0735871 1.19475e-20 0.0138929 -6.023e-23 1.22841e-37)
(6.71255 -0.0656765 -1.19236e-20 0.0128961 5.97035e-23 1.20324e-37)
(6.80273 -0.0547899 0 0.0124772 0 0)
(6.87828 -0.0416183 1.18701e-20 0.0125015 -5.54001e-23 1.15416e-37)
(6.95209 -0.0356282 0 0.0140241 0 0)
(7.04906 -0.0412847 0 0.0149666 0 0)
(7.17771 -0.0493853 -1.17402e-20 0.013626 5.03222e-23 1.08357e-37)
(7.32589 -0.0536453 0 0.0113359 0 0)
(7.47767 -0.0528873 1.15934e-20 0.00897582 -3.55655e-23 1.03848e-37)
(7.61843 -0.0476785 0 0.00691429 0 0)
(7.73621 -0.039028 -1.13754e-20 0.00524575 1.69106e-23 9.94924e-38)
(7.82081 -0.0279762 -1.12301e-20 0.00395344 6.68974e-24 9.73705e-38)
(7.86568 -0.0154534 -1.10565e-20 0.00298087 -3.65428e-24 9.52852e-38)
(7.86627 -0.0022142 -2.17064e-20 0.00226818 -2.75619e-23 3.72944e-37)
(7.82058 0.0110588 2.12403e-20 0.00176768 4.66561e-23 3.6489e-37)
(7.7283 0.0237642 0 0.00144004 0 0)
(7.59095 0.0353816 0 0.00124925 0 0)
(7.41181 0.045573 0 0.00116049 0 0)
(7.19725 0.0542114 1.88753e-20 0.00114211 1.00046e-22 3.34061e-37)
(6.95074 0.0613349 1.82006e-20 0.00116913 1.06819e-22 3.26691e-37)
(6.67807 0.0669485 -1.75119e-20 0.00122337 -1.11244e-22 3.19452e-37)
(6.38401 0.0711401 0 0.00129081 0 0)
(6.07397 0.0739915 1.61269e-20 0.00136032 1.14155e-22 3.05358e-37)
(5.75255 0.0756544 1.54459e-20 0.00142417 1.13222e-22 2.985e-37)
(5.42414 0.0762831 1.47804e-20 0.00147686 1.111e-22 2.91766e-37)
(5.09239 0.0760599 0 0.00151575 0 0)
(4.7605 0.0751423 0 0.00154062 0 0)
(4.43102 0.0736705 0 0.0015521 0 0)
(4.10608 0.0717443 1.23422e-20 0.00155279 9.57681e-23 2.66027e-37)
(3.78755 0.0694248 0 0.00154387 0 0)
(3.47722 0.0667442 0 0.00152719 0 0)
(3.1769 0.0637039 -1.0795e-20 0.00150203 -8.07556e-23 2.47932e-37)
(2.88847 0.0603111 0 0.00146772 0 0)
(2.61376 0.0565828 0 0.00142234 0 0)
(2.35446 0.0525732 -9.51133e-21 0.0013651 -6.40028e-23 2.3082e-37)
(2.11199 0.0483609 0 0.00129558 0 0)
(1.88727 0.0440541 0 0.00121543 0 0)
(1.68072 0.0397691 8.48758e-21 0.00112744 4.71942e-23 2.14647e-37)
(1.49228 0.0356146 8.19834e-21 0.00103491 4.20127e-23 2.09457e-37)
(1.3215 0.0316869 0 0.000941937 0 0)
(1.16751 0.0280415 -7.68629e-21 0.000850812 -3.26853e-23 1.9937e-37)
(1.02911 0.0247331 0 0.000765686 0 0)
(0.905011 0.0217684 7.24898e-21 0.000688081 2.4918e-23 1.89663e-37)
(0.793814 0.0191321 0 0.000618852 0 0)
(0.694248 0.0168084 6.87137e-21 0.000559204 1.86503e-23 1.80323e-37)
(0.605151 0.0147489 6.70115e-21 0.000507985 1.60007e-23 1.75787e-37)
(0.525484 0.0129035 0 0.000463961 0 0)
(0.454435 0.0112291 0 0.000425845 0 0)
(0.391392 0.00967937 0 0.000391527 0 0)
(0.335909 0.00823245 0 0.000359847 0 0)
(0.287675 0.00686515 0 0.000328932 0 0)
(0.246418 0.00557709 0 0.000297945 0 0)
(0.211863 0.00436519 0 0.000265698 0 0)
(0.18368 0.0032516 5.66197e-21 0.000232795 1.39983e-24 1.42543e-37)
(0.161436 0.00224828 -5.56345e-21 0.000199472 -8.47726e-26 1.38747e-37)
(0.144592 0.00137134 0 0.000166788 0 0)
(0.132516 0.000632294 0 0.000136093 0 0)
(0.124507 3.53643e-05 0 0.000108718 0 0)
(0.11984 -0.000424265 0 8.56932e-05 0 0)
(0.11781 -0.000758938 -1.02847e-20 6.76266e-05 9.99036e-24 4.83525e-37)
(0.117775 -0.00098605 0 5.47361e-05 0 0)
(0.119183 -0.0011266 9.99977e-21 4.67675e-05 -1.25333e-23 4.56927e-37)
(0.121589 -0.00120262 -9.86574e-21 4.30142e-05 1.34812e-23 4.44036e-37)
(0.124653 -0.00123326 0 4.2684e-05 0 0)
(0.128133 -0.00123407 0 4.5046e-05 0 0)
(0.131869 -0.00121819 0 4.92199e-05 0 0)
(0.135768 -0.00119532 9.37199e-21 5.44295e-05 -1.51045e-23 3.95088e-37)
(0.139786 -0.00117295 9.25638e-21 6.01024e-05 -1.50539e-23 3.83483e-37)
(0.143923 -0.00115722 0 6.54349e-05 0 0)
(0.148207 -0.00115099 9.03091e-21 6.94116e-05 -1.43717e-23 3.61006e-37)
(0.152675 -0.0011531 8.91998e-21 7.08677e-05 -1.37169e-23 3.50125e-37)
(0.157366 -0.00115774 -8.80953e-21 6.85663e-05 1.28412e-23 3.39477e-37)
(0.162289 -0.00115443 0 6.18257e-05 0 0)
(0.167413 -0.00113087 0 5.12691e-05 0 0)