/*--------------------------------*- C++ -*----------------------------------*\
  =========                 |
  \\      /  F ield         | OpenFOAM: The Open Source CFD Toolbox
   \\    /   O peration     | Website:  https://openfoam.org
    \\  /    A nd           | Version:  7
     \\/     M anipulation  |
\*---------------------------------------------------------------------------*/
FoamFile
{
    version     2.0;
    format      ascii;
    class       volScalarField;
    location    "0.043";
    object      p;
}
// * * * * * * * * * * * * * * * * * * * * * * * * * * * * * * * * * * * * * //

dimensions      [0 2 -2 0 0 0 0];

internalField   nonuniform List<scalar> 
12225
(
-17.4314
-18.0927
-18.483
-18.6508
-18.6835
-18.68
-18.6598
-18.6283
-18.6009
-18.5788
-18.5492
-18.5013
-18.4345
-18.3528
-18.2612
-18.1598
-18.0538
-17.9142
-16.7517
-18.1119
-18.5084
-18.6599
-18.6937
-18.69
-18.6664
-18.6326
-18.6044
-18.582
-18.5512
-18.5014
-18.4335
-18.3515
-18.2593
-18.1579
-18.0513
-17.9215
-16.3785
-18.2664
-18.5906
-18.6876
-18.7116
-18.703
-18.675
-18.6388
-18.6079
-18.5811
-18.5469
-18.4968
-18.4305
-18.351
-18.2608
-18.163
-18.0553
-17.9266
-16.9426
-18.4595
-18.6725
-18.7128
-18.7237
-18.712
-18.6816
-18.6433
-18.6098
-18.5803
-18.545
-18.4957
-18.431
-18.354
-18.2667
-18.171
-18.0644
-17.9407
-18.1734
-18.7814
-18.8006
-18.7629
-18.7448
-18.724
-18.6897
-18.6497
-18.6143
-18.5827
-18.5459
-18.4968
-18.434
-18.36
-18.2761
-18.1838
-18.0812
-17.9656
-20.0629
-19.1557
-18.9346
-18.8173
-18.7674
-18.736
-18.6981
-18.6566
-18.6192
-18.5855
-18.5479
-18.5
-18.4397
-18.3689
-18.289
-18.201
-18.1037
-17.9973
-21.0846
-19.4891
-19.0727
-18.8808
-18.7906
-18.7433
-18.7024
-18.6619
-18.6249
-18.5904
-18.5525
-18.5057
-18.4482
-18.3811
-18.3057
-18.2227
-18.1319
-18.0348
-20.7696
-19.7071
-19.1945
-18.9383
-18.8147
-18.7541
-18.7094
-18.6688
-18.6316
-18.5967
-18.5596
-18.5153
-18.4614
-18.3985
-18.3279
-18.2503
-18.1662
-18.078
-21.1364
-19.8752
-19.2981
-18.9952
-18.8374
-18.7582
-18.7099
-18.6727
-18.6391
-18.606
-18.5703
-18.5285
-18.478
-18.4194
-18.3537
-18.2823
-18.2057
-18.1268
-20.7486
-19.9567
-19.3633
-19.0266
-18.8475
-18.7602
-18.7119
-18.6781
-18.6475
-18.6165
-18.5836
-18.5455
-18.4994
-18.4454
-18.385
-18.3197
-18.2502
-18.179
-21.0261
-20.0235
-19.407
-19.0425
-18.849
-18.753
-18.7054
-18.6789
-18.656
-18.6306
-18.6017
-18.5675
-18.5257
-18.4766
-18.422
-18.3633
-18.3015
-18.2386
-20.6815
-20.0429
-19.3904
-19.0206
-18.8303
-18.74
-18.7001
-18.6819
-18.6654
-18.6448
-18.6207
-18.5915
-18.5547
-18.5107
-18.4613
-18.4084
-18.3527
-18.2965
-20.8324
-20.1219
-19.3703
-18.9752
-18.7913
-18.7128
-18.6858
-18.6805
-18.6753
-18.6633
-18.6453
-18.6207
-18.5882
-18.5491
-18.5053
-18.4584
-18.4092
-18.3597
-22.0796
-20.0185
-19.2077
-18.8455
-18.7073
-18.6672
-18.6678
-18.6806
-18.6876
-18.6857
-18.6765
-18.6593
-18.6334
-18.6006
-18.563
-18.5223
-18.4794
-18.4372
-21.5051
-19.7555
-18.9134
-18.6379
-18.5768
-18.5972
-18.6415
-18.6835
-18.7112
-18.7247
-18.7263
-18.7162
-18.696
-18.6688
-18.6374
-18.6033
-18.5672
-18.5308
-22.7932
-18.9188
-18.1928
-18.207
-18.3384
-18.4823
-18.6034
-18.6902
-18.7449
-18.7764
-18.7906
-18.7899
-18.7777
-18.7583
-18.7347
-18.7082
-18.68
-18.6521
-12.4782
-15.2263
-16.7428
-17.5549
-18.0654
-18.3964
-18.6066
-18.7407
-18.8241
-18.8739
-18.8995
-18.9054
-18.8971
-18.8807
-18.8597
-18.8362
-18.8113
-18.7868
-4.90591
-12.561
-15.7176
-17.1703
-17.9587
-18.4208
-18.7053
-18.8795
-18.9803
-19.036
-19.0633
-19.07
-19.0628
-19.0479
-19.029
-19.0075
-18.9849
-18.9631
-17.3589
-16.4464
-17.1897
-17.9494
-18.5091
-18.8732
-19.1007
-19.2368
-19.3071
-19.3358
-19.3407
-19.3296
-19.3079
-19.2812
-19.2527
-19.2239
-19.1957
-19.1696
-12.1294
-16.6292
-18.3599
-19.0846
-19.4587
-19.649
-19.7323
-19.7513
-19.7313
-19.6921
-19.6461
-19.5973
-19.5472
-19.498
-19.4519
-19.4098
-19.3716
-19.3375
-19.6672
-19.9291
-20.3432
-20.4761
-20.479
-20.4239
-20.3457
-20.2514
-20.1469
-20.0439
-19.9491
-19.8622
-19.7824
-19.7096
-19.6445
-19.5867
-19.5354
-19.4904
-22.1487
-22.6269
-22.2211
-21.8022
-21.4402
-21.1347
-20.8778
-20.6553
-20.4603
-20.2935
-20.1524
-20.0311
-19.9255
-19.8336
-19.7539
-19.6851
-19.6256
-19.5744
-29.8003
-25.5627
-23.8867
-22.9089
-22.2366
-21.7328
-21.3401
-21.0247
-20.7667
-20.5539
-20.3751
-20.2214
-20.0918
-19.9794
-19.8831
-19.8008
-19.7298
-19.6684
-29.6375
-26.8919
-24.944
-23.6816
-22.8112
-22.157
-21.6498
-21.2567
-20.948
-20.6961
-20.4883
-20.3087
-20.1683
-20.045
-19.9408
-19.8519
-19.7765
-19.7129
-32.0803
-27.8207
-25.6555
-24.2638
-23.2596
-22.4992
-21.9142
-21.467
-21.1169
-20.8358
-20.6039
-20.4186
-20.2532
-20.1196
-20.0062
-19.9102
-19.8279
-19.757
-31.4117
-28.0479
-26.011
-24.5798
-23.4973
-22.6793
-22.0598
-21.5853
-21.2133
-20.9129
-20.6656
-20.4639
-20.2943
-20.1542
-20.036
-19.936
-19.8512
-19.779
-30.6755
-28.0767
-26.2688
-24.8342
-23.6863
-22.8174
-22.1731
-21.681
-21.2932
-20.9779
-20.7194
-20.5086
-20.3346
-20.19
-20.0678
-19.9635
-19.8745
-19.7986
-29.6844
-27.8994
-26.3618
-24.9257
-23.7566
-22.8806
-22.2301
-21.7295
-21.3316
-21.0076
-20.7429
-20.5277
-20.3511
-20.204
-20.0796
-19.9732
-19.8826
-19.8057
-28.6003
-27.932
-26.4515
-24.9867
-23.8074
-22.9268
-22.2693
-21.7615
-21.3577
-21.0284
-20.7592
-20.5411
-20.3635
-20.2162
-20.0908
-19.9826
-19.8898
-19.8112
-28.3717
-27.875
-26.4794
-24.9857
-23.8105
-22.9368
-22.2799
-21.7708
-21.3652
-21.0344
-20.7641
-20.5454
-20.3676
-20.2199
-20.0938
-19.9844
-19.8904
-19.8104
-18.2441
-18.2375
-18.2476
-18.2774
-18.3307
-18.4081
-18.5097
-18.6359
-18.787
-18.9632
-19.1635
-19.3849
-19.6219
-19.8655
-20.103
-20.3181
-20.4926
-20.608
-20.6498
-20.6105
-20.4904
-20.2982
-20.0534
-19.7859
-19.5247
-19.2994
-19.1193
-18.9893
-18.9639
-18.8981
-18.7675
-18.7692
-18.8128
-18.7895
-18.6413
-18.3979
-18.3676
-18.5846
-18.9921
-19.5389
-20.1785
-20.8733
-21.5927
-22.3124
-23.012
-23.6743
-24.2841
-24.8282
-25.2949
-25.6736
-25.956
-26.1359
-26.2103
-26.1792
-26.0445
-25.8097
-25.4804
-25.0663
-24.5796
-24.0338
-23.4426
-22.8199
-22.1792
-21.5333
-20.8935
-20.2686
-19.6645
-19.0835
-18.5247
-17.9841
-17.4561
-16.9336
-16.4098
-15.8782
-15.3341
-14.7744
-14.1989
-13.6102
-13.0138
-12.4179
-11.8326
-11.2686
-10.7357
-10.2413
-9.79044
-9.38585
-9.02796
-8.71513
-8.44415
-8.21127
-8.01353
-7.84435
-7.70028
-7.5774
-7.47225
-7.38176
-7.30324
-7.2344
-7.17328
-7.11821
-7.06779
-7.02084
-6.97637
-6.93357
-6.89173
-6.85028
-6.80873
-6.76667
-6.72378
-6.67978
-6.63446
-6.58765
-6.53925
-6.48918
-6.43741
-6.38394
-6.32879
-6.27201
-6.21364
-6.15375
-6.09245
-6.02985
-5.96593
-5.90073
-5.83427
-5.76659
-5.69771
-5.62766
-5.55646
-5.48415
-5.41076
-5.33632
-5.26088
-5.18448
-5.10716
-5.02895
-4.94987
-4.86997
-4.78927
-4.70784
-4.62569
-4.54285
-4.45933
-4.37513
-4.29027
-4.20475
-4.11855
-4.03169
-3.94416
-3.85596
-3.76708
-3.67753
-3.58729
-3.49635
-3.40472
-3.31237
-3.21929
-3.12547
-3.03087
-2.93548
-2.83927
-2.7422
-2.64425
-2.54535
-2.44547
-2.34451
-2.2424
-2.13902
-2.03425
-1.92784
-1.81968
-1.70929
-1.59652
-1.48051
-1.36107
-1.23674
-1.10697
-0.970586
-0.82437
-0.678354
-18.2691
-18.2703
-18.2896
-18.3282
-18.3872
-18.4681
-18.5725
-18.7021
-18.8586
-19.0427
-19.2544
-19.4917
-19.7497
-20.0198
-20.2889
-20.5398
-20.7523
-20.9054
-20.9803
-20.963
-20.8483
-20.6423
-20.3653
-20.0487
-19.7269
-19.4312
-19.1864
-19.0047
-18.8891
-18.8454
-18.7506
-18.5646
-18.6253
-18.9381
-19.0033
-18.8729
-18.9093
-19.1509
-19.5637
-20.101
-20.721
-21.3897
-22.0802
-22.7705
-23.4422
-24.0788
-24.666
-25.1904
-25.6394
-26.0015
-26.2672
-26.4291
-26.4826
-26.4264
-26.263
-25.9993
-25.6449
-25.2098
-24.7049
-24.1427
-23.5366
-22.9002
-22.247
-21.5898
-20.9397
-20.3061
-19.6953
-19.1102
-18.5502
-18.0113
-17.4872
-16.9706
-16.4534
-15.9286
-15.3904
-14.8354
-14.2627
-13.6746
-13.0764
-12.4765
-11.8855
-11.3148
-10.7749
-10.2738
-9.81708
-9.40762
-9.04588
-8.7301
-8.45688
-8.22273
-8.02337
-7.85336
-7.7085
-7.58495
-7.47919
-7.38815
-7.30912
-7.23981
-7.17824
-7.12276
-7.07197
-7.02469
-6.97993
-6.93687
-6.8948
-6.85314
-6.81141
-6.76919
-6.72614
-6.68199
-6.63653
-6.58959
-6.54106
-6.49086
-6.43897
-6.38539
-6.33013
-6.27326
-6.21484
-6.15493
-6.09358
-6.03088
-5.96687
-5.90157
-5.83503
-5.76726
-5.69831
-5.62818
-5.55691
-5.48454
-5.4111
-5.33662
-5.26114
-5.1847
-5.10734
-5.0291
-4.95001
-4.8701
-4.78936
-4.7079
-4.62574
-4.54288
-4.45935
-4.37514
-4.29027
-4.20474
-4.11854
-4.03168
-3.94414
-3.85594
-3.76707
-3.67751
-3.58728
-3.49635
-3.40472
-3.31238
-3.21931
-3.12549
-3.0309
-2.93552
-2.83933
-2.74228
-2.64435
-2.54549
-2.44563
-2.34472
-2.24267
-2.13936
-2.03467
-1.92839
-1.82036
-1.7102
-1.59766
-1.48212
-1.36308
-1.23979
-1.11087
-0.977046
-0.832835
-0.693412
-18.3063
-18.3174
-18.3471
-18.3944
-18.4603
-18.5476
-18.6594
-18.7985
-18.9678
-19.1693
-19.4043
-19.6721
-19.9692
-20.2866
-20.6099
-20.9183
-21.1869
-21.3886
-21.4999
-21.5034
-21.389
-21.16
-20.8379
-20.4568
-20.0506
-19.6483
-19.2822
-18.9717
-18.6703
-18.3829
-18.5282
-18.6652
-18.7831
-18.9992
-19.2452
-19.4777
-19.7499
-20.093
-20.5181
-21.0181
-21.579
-22.1828
-22.8122
-23.4499
-24.0792
-24.6833
-25.2455
-25.7495
-26.1802
-26.5242
-26.7702
-26.9095
-26.9365
-26.8499
-26.654
-26.3567
-25.9671
-25.4964
-24.9573
-24.3633
-23.7282
-23.0655
-22.3883
-21.7091
-21.0391
-20.388
-19.7633
-19.169
-18.6054
-18.0686
-17.5517
-17.046
-16.5419
-16.0306
-15.505
-14.9603
-14.3947
-13.8095
-13.2094
-12.6025
-12.0002
-11.4156
-10.8607
-10.3454
-9.87606
-9.45615
-9.08619
-8.76412
-8.48626
-8.24911
-8.04685
-7.87478
-7.7282
-7.60315
-7.49607
-7.40383
-7.32371
-7.25338
-7.19086
-7.13449
-7.08286
-7.03479
-6.98931
-6.94558
-6.90291
-6.86071
-6.81848
-6.77581
-6.73235
-6.68781
-6.64198
-6.59469
-6.54582
-6.49529
-6.44308
-6.38918
-6.33362
-6.27645
-6.21774
-6.15755
-6.09593
-6.03294
-5.96866
-5.90311
-5.83633
-5.76834
-5.69918
-5.62887
-5.55745
-5.48494
-5.41139
-5.33681
-5.26125
-5.18475
-5.10734
-5.02905
-4.94991
-4.86996
-4.78928
-4.70784
-4.62567
-4.54281
-4.45927
-4.37507
-4.29019
-4.20466
-4.11846
-4.0316
-3.94407
-3.85588
-3.76701
-3.67747
-3.58725
-3.49633
-3.40472
-3.31239
-3.21933
-3.12553
-3.03096
-2.93561
-2.83944
-2.74243
-2.64455
-2.54575
-2.44597
-2.34515
-2.24322
-2.14007
-2.03557
-1.92958
-1.82187
-1.71224
-1.60027
-1.48577
-1.36785
-1.24678
-1.12047
-0.991702
-0.854826
-0.726703
-18.3338
-18.351
-18.3858
-18.4378
-18.5094
-18.6038
-18.7248
-18.8764
-19.0627
-19.2878
-19.555
-19.866
-20.2188
-20.6049
-21.0074
-21.4006
-21.7517
-22.0245
-22.1871
-22.2136
-22.0913
-21.8266
-21.4484
-20.9994
-20.5156
-20.0276
-19.5459
-19.1368
-18.9731
-18.9199
-18.9611
-19.1191
-19.338
-19.6006
-19.889
-20.2122
-20.5747
-20.9809
-21.4349
-21.9364
-22.4812
-23.0612
-23.6652
-24.2797
-24.8896
-25.4784
-26.0284
-26.5211
-26.9385
-27.2647
-27.4872
-27.5963
-27.586
-27.4571
-27.2159
-26.8679
-26.424
-25.8986
-25.3075
-24.6663
-23.9895
-23.2905
-22.5812
-21.8732
-21.1769
-20.5022
-19.8575
-19.2491
-18.6792
-18.1447
-17.6381
-17.149
-16.6658
-16.177
-15.6729
-15.1467
-14.5948
-14.0169
-13.4164
-12.8005
-12.1815
-11.575
-10.9964
-10.4581
-9.96837
-9.53165
-9.14856
-8.8165
-8.53175
-8.28972
-8.08327
-7.90776
-7.75835
-7.63084
-7.52153
-7.42725
-7.34525
-7.27319
-7.20909
-7.15127
-7.09833
-7.04907
-7.0025
-6.95779
-6.91423
-6.87123
-6.82828
-6.78496
-6.74092
-6.69584
-6.64952
-6.60175
-6.55243
-6.50146
-6.44883
-6.39452
-6.33856
-6.28101
-6.22193
-6.16138
-6.09942
-6.03612
-5.97154
-5.90571
-5.83867
-5.77044
-5.70106
-5.63055
-5.55893
-5.48625
-5.41254
-5.33782
-5.26213
-5.18551
-5.10799
-5.02961
-4.95039
-4.87037
-4.78961
-4.7081
-4.62588
-4.54298
-4.4594
-4.37516
-4.29026
-4.2047
-4.11849
-4.03161
-3.94408
-3.85589
-3.76702
-3.67748
-3.58726
-3.49635
-3.40474
-3.31242
-3.21938
-3.1256
-3.03105
-2.93573
-2.8396
-2.74264
-2.64481
-2.54608
-2.44639
-2.34569
-2.2439
-2.14093
-2.03667
-1.93099
-1.82368
-1.71461
-1.60336
-1.48992
-1.37341
-1.25445
-1.13119
-1.00685
-0.877408
-0.757475
-18.3172
-18.3358
-18.3708
-18.4234
-18.4965
-18.5932
-18.7176
-18.8742
-19.0686
-19.307
-19.5957
-19.9388
-20.3372
-20.7848
-21.2649
-21.7484
-22.1959
-22.5581
-22.7935
-22.8705
-22.7758
-22.5147
-22.1203
-21.6358
-21.0989
-20.5795
-20.1592
-19.866
-19.6982
-19.6592
-19.7317
-19.89
-20.1138
-20.3844
-20.6914
-21.0395
-21.4314
-21.8676
-22.3458
-22.8634
-23.417
-24.0008
-24.6063
-25.222
-25.8331
-26.4228
-26.9722
-27.4611
-27.8687
-28.177
-28.3719
-28.4448
-28.3908
-28.2046
-27.8882
-27.4577
-26.9323
-26.331
-25.6717
-24.971
-24.2437
-23.5026
-22.7591
-22.0229
-21.3031
-20.6083
-19.9471
-19.3272
-18.7531
-18.2238
-17.7328
-17.2692
-16.8186
-16.3655
-15.896
-15.4008
-14.8744
-14.314
-13.7193
-13.0947
-12.4528
-11.8135
-11.1976
-10.623
-10.1013
-9.63856
-9.23565
-8.88911
-8.59531
-8.34534
-8.1333
-7.9532
-7.79996
-7.6691
-7.55679
-7.45972
-7.37509
-7.30056
-7.23413
-7.17416
-7.11927
-7.06827
-7.02019
-6.97417
-6.92948
-6.88547
-6.84162
-6.79749
-6.75269
-6.70693
-6.65996
-6.61158
-6.56166
-6.51011
-6.4569
-6.40203
-6.34552
-6.28744
-6.22784
-6.1668
-6.10438
-6.04065
-5.97564
-5.90942
-5.842
-5.77342
-5.70371
-5.63289
-5.56099
-5.48806
-5.4141
-5.33917
-5.26328
-5.18649
-5.10882
-5.0303
-4.95096
-4.87085
-4.78999
-4.70841
-4.62613
-4.54318
-4.45955
-4.37527
-4.29033
-4.20474
-4.1185
-4.03161
-3.94407
-3.85586
-3.767
-3.67746
-3.58724
-3.49634
-3.40475
-3.31244
-3.21941
-3.12565
-3.03114
-2.93585
-2.83976
-2.74285
-2.64509
-2.54644
-2.44686
-2.34629
-2.24466
-2.1419
-2.03791
-1.93259
-1.82573
-1.71727
-1.60684
-1.4945
-1.37958
-1.2627
-1.14272
-1.02235
-0.899939
-0.785841
-18.2398
-18.2566
-18.2887
-18.3375
-18.4061
-18.4972
-18.6147
-18.7635
-18.9496
-19.1798
-19.4613
-19.7997
-20.1967
-20.6492
-21.1426
-21.6501
-22.1325
-22.5428
-22.8317
-22.9646
-22.9337
-22.7462
-22.4303
-22.031
-21.5983
-21.1848
-20.8365
-20.5866
-20.4506
-20.43
-20.5116
-20.6744
-20.9039
-21.1865
-21.514
-21.8829
-22.292
-22.7408
-23.2283
-23.7534
-24.3138
-24.9048
-25.5195
-26.1474
-26.7745
-27.3822
-27.9487
-28.4502
-28.8625
-29.1628
-29.3322
-29.3586
-29.2373
-28.9728
-28.5779
-28.0668
-27.4582
-26.7739
-26.0361
-25.2649
-24.4771
-23.6861
-22.9024
-22.1342
-21.3892
-20.676
-20.0031
-19.378
-18.806
-18.2883
-17.8208
-17.3921
-16.9858
-16.5825
-16.163
-15.7133
-15.2262
-14.6972
-14.1226
-13.5006
-12.8377
-12.1555
-11.4847
-10.8542
-10.2833
-9.78142
-9.34977
-8.98396
-8.67669
-8.41683
-8.19726
-8.01119
-7.85294
-7.71774
-7.60155
-7.50095
-7.41304
-7.33538
-7.26598
-7.20319
-7.14566
-7.09225
-7.042
-6.99409
-6.9478
-6.90247
-6.85752
-6.81244
-6.76682
-6.72029
-6.67259
-6.62351
-6.57291
-6.52068
-6.46679
-6.41125
-6.35408
-6.29535
-6.23513
-6.1735
-6.11051
-6.04624
-5.98073
-5.91403
-5.84617
-5.77717
-5.70708
-5.6359
-5.56368
-5.49044
-5.41621
-5.34103
-5.26491
-5.18791
-5.11005
-5.03135
-4.95187
-4.87162
-4.79064
-4.70896
-4.62658
-4.54354
-4.45984
-4.3755
-4.2905
-4.20487
-4.11859
-4.03167
-3.9441
-3.85588
-3.767
-3.67746
-3.58724
-3.49635
-3.40476
-3.31247
-3.21946
-3.12572
-3.03123
-2.93598
-2.83994
-2.74309
-2.6454
-2.54684
-2.44737
-2.34695
-2.2455
-2.14298
-2.03928
-1.93433
-1.82798
-1.72017
-1.61062
-1.49941
-1.38612
-1.27129
-1.15443
-1.03773
-0.921094
-0.811714
-18.0992
-18.1124
-18.1392
-18.1805
-18.2387
-18.3163
-18.4165
-18.5436
-18.7031
-18.901
-19.1437
-19.436
-19.7802
-20.1742
-20.6076
-21.0604
-21.5
-21.8824
-22.1715
-22.3441
-22.3899
-22.3145
-22.1387
-21.896
-21.6262
-21.3692
-21.1606
-21.0266
-20.9803
-21.0212
-21.1423
-21.3329
-21.5819
-21.8792
-22.2185
-22.5964
-23.0123
-23.4674
-23.9634
-24.5011
-25.08
-25.6976
-26.3485
-27.0226
-27.7048
-28.3744
-29.0054
-29.568
-30.0305
-30.363
-30.5401
-30.5454
-30.3756
-30.0405
-29.5502
-28.9259
-28.1956
-27.3898
-26.5372
-25.6628
-24.786
-23.9208
-23.0774
-22.2628
-21.4835
-20.7453
-20.0539
-19.416
-18.8407
-18.3343
-17.8925
-17.5008
-17.1396
-16.7863
-16.4195
-16.0221
-15.5861
-15.1086
-14.5813
-13.9892
-13.3226
-12.6006
-11.865
-11.161
-10.5221
-9.96541
-9.49398
-9.10284
-8.77675
-8.50428
-8.2754
-8.08201
-7.9176
-7.77701
-7.65599
-7.55102
-7.45911
-7.37773
-7.3048
-7.23866
-7.17794
-7.12155
-7.06857
-7.0182
-6.96974
-6.92257
-6.87611
-6.82982
-6.78321
-6.73586
-6.68741
-6.63762
-6.58629
-6.53333
-6.47868
-6.42237
-6.36443
-6.30494
-6.24398
-6.18163
-6.11797
-6.05306
-5.98694
-5.91968
-5.85129
-5.78181
-5.71125
-5.63966
-5.56704
-5.49343
-5.41887
-5.34337
-5.26697
-5.1897
-5.1116
-5.03269
-4.95301
-4.87258
-4.79145
-4.70963
-4.62714
-4.54399
-4.4602
-4.37578
-4.29072
-4.20502
-4.1187
-4.03174
-3.94414
-3.85589
-3.767
-3.67745
-3.58723
-3.49634
-3.40476
-3.31248
-3.21949
-3.12577
-3.03132
-2.93611
-2.84012
-2.74334
-2.64573
-2.54727
-2.44792
-2.34765
-2.2464
-2.14412
-2.04074
-1.9362
-1.83038
-1.72323
-1.6146
-1.50454
-1.39287
-1.28006
-1.16609
-1.05272
-0.940787
-0.83521
-17.9136
-17.9231
-17.9429
-17.9739
-18.018
-18.0769
-18.1531
-18.2501
-18.3718
-18.5224
-18.7059
-18.9254
-19.1827
-19.4768
-19.8017
-20.1421
-20.4754
-20.7768
-21.029
-21.2136
-21.3226
-21.3587
-21.336
-21.2767
-21.2069
-21.1517
-21.1315
-21.1593
-21.2409
-21.3766
-21.5635
-21.7972
-22.0724
-22.3856
-22.7354
-23.1228
-23.5512
-24.0256
-24.5513
-25.1323
-25.7701
-26.463
-27.2051
-27.9849
-28.7841
-29.577
-30.33
-31.0038
-31.5564
-31.9476
-32.1457
-32.1329
-31.9027
-31.4613
-30.8343
-30.055
-29.1615
-28.1944
-27.1919
-26.1853
-25.1967
-24.2394
-23.3212
-22.4468
-21.6197
-20.8443
-20.1269
-19.4747
-18.8927
-18.3826
-17.941
-17.5598
-17.221
-16.8975
-16.5648
-16.2057
-15.8146
-15.3976
-14.9535
-14.4472
-13.8341
-13.108
-12.3197
-11.5363
-10.8164
-10.1915
-9.6707
-9.24518
-8.89632
-8.60797
-8.36748
-8.16509
-7.99333
-7.84638
-7.71965
-7.60948
-7.51282
-7.4271
-7.35013
-7.28015
-7.21579
-7.15596
-7.09977
-7.04647
-6.99538
-6.94589
-6.89744
-6.84949
-6.80154
-6.75314
-6.70384
-6.65332
-6.6013
-6.54763
-6.49224
-6.43512
-6.37636
-6.31602
-6.25422
-6.19106
-6.12661
-6.06096
-5.99416
-5.92625
-5.85726
-5.78721
-5.71614
-5.64406
-5.57099
-5.49696
-5.422
-5.34614
-5.26941
-5.19184
-5.11345
-5.03429
-4.95438
-4.87376
-4.79244
-4.71046
-4.62783
-4.54456
-4.46066
-4.37613
-4.29099
-4.20522
-4.11884
-4.03183
-3.9442
-3.85592
-3.76701
-3.67744
-3.58723
-3.49633
-3.40476
-3.31249
-3.21952
-3.12583
-3.03141
-2.93624
-2.84031
-2.74359
-2.64607
-2.54772
-2.4485
-2.34839
-2.24735
-2.14534
-2.04229
-1.93817
-1.83289
-1.72644
-1.61872
-1.50982
-1.39972
-1.28885
-1.17752
-1.06714
-0.959017
-0.856596
-17.7112
-17.7168
-17.7292
-17.7494
-17.7784
-17.8175
-17.8685
-17.9336
-18.0153
-18.1162
-18.239
-18.3855
-18.557
-18.7529
-18.9692
-19.198
-19.4314
-19.6619
-19.8763
-20.0653
-20.225
-20.3572
-20.4693
-20.5723
-20.6788
-20.7997
-20.943
-21.1129
-21.3108
-21.5363
-21.7883
-22.0663
-22.371
-22.7055
-23.0748
-23.4856
-23.9459
-24.4643
-25.0485
-25.7044
-26.435
-27.2394
-28.1113
-29.0375
-29.9959
-30.9546
-31.8716
-32.6964
-33.3735
-33.8468
-34.0712
-34.0268
-33.7175
-33.1563
-32.3685
-31.3971
-30.2963
-29.124
-27.9335
-26.7675
-25.6526
-24.6003
-23.6125
-22.6858
-21.8172
-21.0075
-20.2616
-19.585
-18.9819
-18.4535
-17.9964
-17.6024
-17.2543
-16.9292
-16.6081
-16.2731
-15.9145
-15.5469
-15.1856
-14.7959
-14.2944
-13.6198
-12.8123
-11.9584
-11.1513
-10.4495
-9.87317
-9.40914
-9.03449
-8.72797
-8.47368
-8.26029
-8.07957
-7.92513
-7.79188
-7.67576
-7.57362
-7.48288
-7.40135
-7.32717
-7.25884
-7.19523
-7.13546
-7.07884
-7.02473
-6.97255
-6.92172
-6.87172
-6.82205
-6.77224
-6.72182
-6.67041
-6.61766
-6.5633
-6.50721
-6.44935
-6.38975
-6.32854
-6.26584
-6.20178
-6.13646
-6.06998
-6.0024
-5.93376
-5.8641
-5.79342
-5.72176
-5.64913
-5.57555
-5.50105
-5.42565
-5.34938
-5.27226
-5.19434
-5.11563
-5.03618
-4.95601
-4.87515
-4.79362
-4.71145
-4.62864
-4.54522
-4.46119
-4.37655
-4.29131
-4.20546
-4.11901
-4.03194
-3.94426
-3.85595
-3.76701
-3.67743
-3.5872
-3.49631
-3.40474
-3.31249
-3.21954
-3.12588
-3.03149
-2.93637
-2.8405
-2.74385
-2.64642
-2.54818
-2.4491
-2.34917
-2.24834
-2.14659
-2.04389
-1.9402
-1.83547
-1.72972
-1.62292
-1.51517
-1.40657
-1.29754
-1.18857
-1.08087
-0.975852
-0.876096
-17.5173
-17.5193
-17.5249
-17.5349
-17.5503
-17.5717
-17.6005
-17.6378
-17.6854
-17.7448
-17.8177
-17.9055
-18.0093
-18.1299
-18.2667
-18.4191
-18.584
-18.7594
-18.9431
-19.1334
-19.33
-19.5339
-19.747
-19.9715
-20.2091
-20.4603
-20.7242
-20.9989
-21.2824
-21.5737
-21.8738
-22.1863
-22.5175
-22.8761
-23.2723
-23.7174
-24.2229
-24.8
-25.4583
-26.2056
-27.0469
-27.9838
-29.0124
-30.1201
-31.2822
-32.459
-33.5959
-34.626
-35.4745
-36.0685
-36.3494
-36.2872
-35.8977
-35.1874
-34.1945
-32.9803
-31.6193
-30.1895
-28.7629
-27.3971
-26.1267
-24.9636
-23.905
-22.9374
-22.045
-21.2178
-20.4543
-19.7596
-19.1382
-18.5899
-18.1104
-17.6908
-17.3173
-16.9734
-16.6471
-16.3193
-15.9837
-15.6481
-15.3362
-15.0351
-14.6846
-14.0779
-13.2805
-12.376
-11.492
-10.7179
-10.0853
-9.58471
-9.18568
-8.8612
-8.59233
-8.36662
-8.17547
-8.01229
-7.87164
-7.74901
-7.64085
-7.54446
-7.45773
-7.37885
-7.30625
-7.23865
-7.17512
-7.11493
-7.05751
-7.00232
-6.94882
-6.89647
-6.84475
-6.79319
-6.74134
-6.68876
-6.63507
-6.57995
-6.52317
-6.46462
-6.40428
-6.34223
-6.27864
-6.21365
-6.14741
-6.08003
-6.01159
-5.94215
-5.87174
-5.80037
-5.72806
-5.65483
-5.58069
-5.50565
-5.42976
-5.35303
-5.27549
-5.19718
-5.11811
-5.03833
-4.95786
-4.87673
-4.79496
-4.71257
-4.62957
-4.54598
-4.4618
-4.37703
-4.29167
-4.20573
-4.1192
-4.03207
-3.94433
-3.85599
-3.76702
-3.67742
-3.58718
-3.49628
-3.40472
-3.31248
-3.21955
-3.12591
-3.03157
-2.9365
-2.84068
-2.74411
-2.64677
-2.54864
-2.44971
-2.34995
-2.24935
-2.14788
-2.04552
-1.94227
-1.8381
-1.73305
-1.62714
-1.5205
-1.41332
-1.30602
-1.19916
-1.09383
-0.991392
-0.893887
-17.3487
-17.3476
-17.3474
-17.3492
-17.3534
-17.3608
-17.3722
-17.3882
-17.41
-17.4392
-17.4767
-17.5239
-17.5825
-17.6541
-17.7406
-17.8439
-17.966
-18.1091
-18.2755
-18.4677
-18.6877
-18.9365
-19.2134
-19.5159
-19.8392
-20.1769
-20.5217
-20.8663
-21.2057
-21.5387
-21.8687
-22.2035
-22.554
-22.9339
-23.3575
-23.8395
-24.3938
-25.0335
-25.7709
-26.6166
-27.58
-28.6668
-29.8774
-31.2004
-32.6068
-34.0457
-35.4449
-36.7166
-37.7654
-38.501
-38.8567
-38.799
-38.3157
-37.4367
-36.2156
-34.7333
-33.0836
-31.365
-29.6686
-28.0693
-26.6143
-25.3197
-24.1784
-23.1665
-22.2562
-21.4235
-20.6554
-19.9505
-19.3144
-18.7503
-18.2532
-17.8132
-17.4187
-17.0572
-16.7199
-16.389
-16.059
-15.7339
-15.4424
-15.1942
-14.8813
-14.3526
-13.6002
-12.7044
-11.7896
-10.9735
-10.3009
-9.77008
-9.34829
-9.00554
-8.72114
-8.48196
-8.27925
-8.10633
-7.95756
-7.82798
-7.71354
-7.61123
-7.51886
-7.43476
-7.35744
-7.28559
-7.21812
-7.15424
-7.09335
-7.03495
-6.97853
-6.9236
-6.86962
-6.81608
-6.76251
-6.70847
-6.65357
-6.59748
-6.53989
-6.48063
-6.41959
-6.35681
-6.29238
-6.2265
-6.15933
-6.09102
-6.02169
-5.95139
-5.88017
-5.80805
-5.73504
-5.66114
-5.58638
-5.51077
-5.43434
-5.3571
-5.2791
-5.20035
-5.12088
-5.04074
-4.95994
-4.87851
-4.79646
-4.71383
-4.63062
-4.54683
-4.46248
-4.37756
-4.29208
-4.20603
-4.1194
-4.0322
-3.94441
-3.85602
-3.76702
-3.67739
-3.58714
-3.49624
-3.40468
-3.31245
-3.21954
-3.12594
-3.03163
-2.93661
-2.84086
-2.74436
-2.64712
-2.54911
-2.45032
-2.35075
-2.25037
-2.14918
-2.04717
-1.94435
-1.84074
-1.73637
-1.63132
-1.52575
-1.4199
-1.31419
-1.20923
-1.10598
-1.00572
-0.910118
-17.2124
-17.2092
-17.2043
-17.2001
-17.1966
-17.1941
-17.1936
-17.1956
-17.2012
-17.2107
-17.2256
-17.2477
-17.2791
-17.3224
-17.3804
-17.4567
-17.5554
-17.6808
-17.8377
-18.0304
-18.2621
-18.5342
-18.845
-19.1902
-19.562
-19.9499
-20.3424
-20.7285
-21.1005
-21.4573
-21.8039
-22.1511
-22.5137
-22.9093
-23.3555
-23.8697
-24.4677
-25.1648
-25.9754
-26.9141
-27.9947
-29.228
-30.6175
-32.1516
-33.7944
-35.4812
-37.1222
-38.6119
-39.8398
-40.701
-41.1168
-41.0514
-40.4993
-39.4864
-38.0731
-36.3556
-34.4479
-32.4688
-30.5258
-28.7067
-27.0732
-25.6498
-24.4284
-23.3741
-22.4459
-21.6093
-20.8421
-20.1354
-19.4867
-18.9011
-18.3803
-17.9183
-17.5061
-17.1351
-16.7926
-16.4601
-16.1272
-15.7956
-15.4911
-15.2219
-14.8925
-14.3931
-13.7012
-12.8739
-12.0108
-11.2116
-10.5299
-9.97776
-9.53165
-9.16594
-8.86169
-8.60599
-8.38975
-8.20583
-8.04813
-7.91123
-7.79047
-7.68224
-7.58409
-7.49444
-7.41203
-7.33562
-7.26402
-7.19631
-7.13182
-7.07006
-7.01057
-6.95287
-6.89644
-6.84076
-6.78532
-6.72962
-6.67328
-6.61594
-6.55732
-6.4972
-6.43542
-6.37192
-6.30675
-6.24006
-6.17202
-6.10281
-6.03257
-5.96139
-5.88933
-5.81641
-5.74264
-5.66804
-5.59261
-5.51638
-5.43936
-5.36157
-5.28306
-5.20384
-5.12394
-5.04339
-4.96223
-4.88046
-4.79812
-4.71522
-4.63176
-4.54776
-4.46321
-4.37813
-4.29251
-4.20634
-4.11962
-4.03234
-3.94448
-3.85604
-3.767
-3.67735
-3.58709
-3.49618
-3.40463
-3.31241
-3.21952
-3.12595
-3.03168
-2.93671
-2.84102
-2.7446
-2.64746
-2.54957
-2.45093
-2.35153
-2.25138
-2.15047
-2.04881
-1.94642
-1.84334
-1.73964
-1.63542
-1.53087
-1.42625
-1.322
-1.21873
-1.11732
-1.01892
-0.924925
-17.111
-17.1069
-17.0998
-17.0914
-17.0825
-17.0734
-17.0649
-17.0578
-17.053
-17.0514
-17.0541
-17.0627
-17.0796
-17.108
-17.1513
-17.2137
-17.3
-17.4153
-17.5653
-17.7552
-17.9889
-18.2683
-18.592
-18.955
-19.3486
-19.7607
-20.1773
-20.5853
-20.9752
-21.3451
-21.7007
-22.0539
-22.4226
-22.8269
-23.2874
-23.8237
-24.4532
-25.1924
-26.058
-27.0675
-28.2388
-29.5851
-31.1121
-32.8076
-34.6289
-36.5005
-38.3185
-39.9643
-41.3196
-42.2749
-42.744
-42.6859
-42.0808
-40.9595
-39.396
-37.5028
-35.4097
-33.2504
-31.1429
-29.1762
-27.4204
-25.9082
-24.6347
-23.5561
-22.6182
-21.7797
-21.0151
-20.3136
-19.6676
-19.0695
-18.5201
-18.025
-17.5865
-17.2019
-16.8605
-16.5378
-16.2135
-15.8793
-15.5476
-15.2215
-14.8356
-14.3299
-13.6887
-12.9476
-12.1723
-11.43
-10.7666
-10.2046
-9.73568
-9.34411
-9.01595
-8.74009
-8.50766
-8.31091
-8.14301
-7.998
-7.87066
-7.75666
-7.65291
-7.55762
-7.46978
-7.38846
-7.31254
-7.24089
-7.1727
-7.10746
-7.04474
-6.98411
-6.92508
-6.8671
-6.80965
-6.75218
-6.69425
-6.63548
-6.57559
-6.51437
-6.45167
-6.38738
-6.32149
-6.25406
-6.18524
-6.1152
-6.0441
-5.97205
-5.89913
-5.82539
-5.75084
-5.67549
-5.59935
-5.52245
-5.4448
-5.36643
-5.28736
-5.20763
-5.12726
-5.04628
-4.96472
-4.88259
-4.79992
-4.71672
-4.633
-4.54876
-4.46401
-4.37875
-4.29297
-4.20667
-4.11985
-4.03247
-3.94455
-3.85605
-3.76698
-3.6773
-3.58701
-3.49611
-3.40456
-3.31235
-3.21948
-3.12594
-3.03171
-2.93679
-2.84116
-2.74483
-2.64778
-2.55001
-2.45151
-2.3523
-2.25237
-2.15174
-2.05042
-1.94845
-1.84589
-1.74283
-1.63939
-1.53579
-1.43232
-1.3294
-1.22764
-1.12784
-1.03104
-0.938422
-17.0422
-17.0375
-17.028
-17.0175
-17.0056
-16.9931
-16.9809
-16.9694
-16.9594
-16.952
-16.9487
-16.951
-16.9611
-16.9822
-17.018
-17.073
-17.1524
-17.2611
-17.4046
-17.5881
-17.8159
-18.0906
-18.4114
-18.7741
-19.1704
-19.5883
-20.0132
-20.4313
-20.8317
-21.2109
-21.5734
-21.9309
-22.3018
-22.708
-23.1723
-23.7164
-24.3597
-25.1195
-26.0128
-27.0577
-28.2736
-29.6751
-31.267
-33.0335
-34.9315
-36.8792
-38.7646
-40.4651
-41.8586
-42.8388
-43.3215
-43.2561
-42.623
-41.4581
-39.8408
-37.8906
-35.7413
-33.5305
-31.3823
-29.3829
-27.5967
-26.0638
-24.7857
-23.7076
-22.7722
-21.9385
-21.1808
-20.4899
-19.858
-19.2676
-18.7041
-18.1702
-17.6829
-17.2636
-16.9166
-16.6158
-16.3244
-16.0156
-15.6823
-15.3226
-14.8962
-14.37
-13.7398
-13.0383
-12.3144
-11.6137
-10.9713
-10.4083
-9.92636
-9.51765
-9.17184
-8.87914
-8.63141
-8.4215
-8.24266
-8.08865
-7.95397
-7.83391
-7.72474
-7.62407
-7.53074
-7.44417
-7.36357
-7.28784
-7.2159
-7.14708
-7.08096
-7.01723
-6.95542
-6.89501
-6.83541
-6.77605
-6.71643
-6.65612
-6.5948
-6.53228
-6.46843
-6.40317
-6.33645
-6.26828
-6.19875
-6.12796
-6.05608
-5.98322
-5.90948
-5.83492
-5.75956
-5.68344
-5.60657
-5.52896
-5.45065
-5.37165
-5.292
-5.21172
-5.13085
-5.0494
-4.96741
-4.88489
-4.80186
-4.71833
-4.63432
-4.54982
-4.46485
-4.37939
-4.29345
-4.20701
-4.12007
-4.0326
-3.9446
-3.85605
-3.76693
-3.67723
-3.58692
-3.49601
-3.40446
-3.31227
-3.21942
-3.12591
-3.03172
-2.93685
-2.84129
-2.74503
-2.64808
-2.55043
-2.45208
-2.35304
-2.25333
-2.15296
-2.05198
-1.95042
-1.84836
-1.7459
-1.6432
-1.54049
-1.43806
-1.33635
-1.23593
-1.13755
-1.04213
-0.950706
-16.9973
-16.992
-16.9829
-16.9705
-16.9584
-16.9447
-16.9305
-16.917
-16.9053
-16.8964
-16.8914
-16.8918
-16.8999
-16.9183
-16.9507
-17.0015
-17.0755
-17.178
-17.3142
-17.4888
-17.7059
-17.968
-18.2752
-18.6246
-19.0096
-19.4197
-19.8409
-20.2597
-20.6673
-21.0555
-21.427
-21.7911
-22.1651
-22.5701
-23.0294
-23.5664
-24.2025
-24.9564
-25.8451
-26.8854
-28.0935
-29.4812
-31.0512
-32.7858
-34.6403
-36.5362
-38.3673
-40.0139
-41.3592
-42.2998
-42.7592
-42.6932
-42.0818
-40.9506
-39.3836
-37.4993
-35.4275
-33.2978
-31.2312
-29.3107
-27.5856
-26.097
-24.8596
-23.8135
-22.8955
-22.0753
-21.3362
-20.6691
-20.0636
-19.4937
-18.9321
-18.3728
-17.8333
-17.3453
-16.943
-16.6353
-16.3818
-16.1236
-15.8268
-15.4871
-15.0718
-14.5417
-13.893
-13.1725
-12.44
-11.7413
-11.1044
-10.5441
-10.062
-9.65175
-9.30327
-9.0059
-8.7511
-8.53256
-8.34482
-8.18251
-8.04043
-7.91394
-7.7992
-7.69335
-7.59478
-7.50289
-7.41728
-7.33716
-7.26137
-7.18894
-7.11932
-7.05227
-6.98749
-6.92446
-6.86257
-6.80119
-6.73976
-6.6778
-6.61495
-6.55099
-6.4858
-6.41935
-6.35162
-6.28262
-6.21237
-6.14091
-6.06834
-5.99476
-5.92027
-5.84492
-5.76877
-5.69186
-5.61423
-5.53589
-5.45687
-5.37722
-5.29695
-5.21609
-5.13468
-5.05273
-4.97028
-4.88733
-4.80392
-4.72004
-4.63571
-4.55094
-4.46572
-4.38005
-4.29394
-4.20735
-4.12028
-4.03272
-3.94464
-3.85603
-3.76687
-3.67713
-3.58681
-3.49588
-3.40434
-3.31216
-3.21933
-3.12585
-3.0317
-2.93688
-2.84139
-2.74521
-2.64835
-2.55082
-2.45261
-2.35375
-2.25425
-2.15414
-2.05347
-1.9523
-1.85071
-1.74883
-1.64682
-1.54492
-1.44344
-1.34282
-1.2436
-1.14646
-1.05224
-0.961856
-16.9745
-16.9723
-16.9624
-16.948
-16.9342
-16.921
-16.9084
-16.896
-16.8844
-16.8753
-16.8699
-16.8698
-16.8771
-16.8945
-16.9252
-16.9732
-17.0429
-17.139
-17.2667
-17.4303
-17.633
-17.8777
-18.1647
-18.4922
-18.8552
-19.2457
-19.6528
-20.065
-20.4728
-20.8691
-21.253
-21.63
-22.0125
-22.4187
-22.8705
-23.3909
-24.0022
-24.724
-25.573
-26.5631
-27.7055
-29.0069
-30.4654
-32.0621
-33.7552
-35.4762
-37.1336
-38.6221
-39.8381
-40.6897
-41.108
-41.0527
-40.5079