/*--------------------------------*- C++ -*----------------------------------*\
  =========                 |
  \\      /  F ield         | OpenFOAM: The Open Source CFD Toolbox
   \\    /   O peration     | Website:  https://openfoam.org
    \\  /    A nd           | Version:  7
     \\/     M anipulation  |
\*---------------------------------------------------------------------------*/
FoamFile
{
    version     2.0;
    format      ascii;
    class       surfaceScalarField;
    location    "0.043";
    object      phi;
}
// * * * * * * * * * * * * * * * * * * * * * * * * * * * * * * * * * * * * * //

dimensions      [0 3 -1 0 0 0 0];

internalField   nonuniform List<scalar> 
24170
(
1.41911e-06
1.98835e-07
1.26985e-06
1.49262e-07
1.13884e-06
1.31003e-07
1.02176e-06
1.1708e-07
9.0354e-07
1.18223e-07
7.89948e-07
1.13592e-07
6.87525e-07
1.02423e-07
5.9602e-07
9.15047e-08
5.14094e-07
8.19256e-08
4.41951e-07
7.21431e-08
3.80141e-07
6.18104e-08
3.28224e-07
5.19166e-08
2.84596e-07
4.36281e-08
2.47446e-07
3.71497e-08
2.15131e-07
3.23152e-08
1.86901e-07
2.82304e-08
1.60486e-07
2.64144e-08
1.60935e-08
1.44393e-07
1.67546e-06
2.50629e-07
1.65132e-06
1.73404e-07
1.6142e-06
1.6812e-07
1.58359e-06
1.47696e-07
1.55515e-06
1.46661e-07
1.51786e-06
1.50881e-07
1.4694e-06
1.50881e-07
1.41417e-06
1.4674e-07
1.35798e-06
1.38111e-07
1.30372e-06
1.26404e-07
1.25184e-06
1.13691e-07
1.20123e-06
1.02524e-07
1.15145e-06
9.34145e-08
1.10234e-06
8.6253e-08
1.05349e-06
8.11695e-08
1.00494e-06
7.67763e-08
9.58129e-07
7.32279e-08
6.28588e-08
9.11364e-07
1.80364e-06
2.73778e-07
1.79768e-06
1.79367e-07
1.78063e-06
1.85168e-07
1.76048e-06
1.67845e-07
1.7503e-06
1.56846e-07
1.74535e-06
1.55825e-07
1.73689e-06
1.59344e-07
1.7219e-06
1.61733e-07
1.70238e-06
1.57632e-07
1.68145e-06
1.47328e-07
1.66055e-06
1.34595e-07
1.63972e-06
1.23355e-07
1.61815e-06
1.14985e-07
1.59598e-06
1.08426e-07
1.57295e-06
1.04193e-07
1.54909e-06
1.00639e-07
1.52478e-06
9.75404e-08
9.05964e-08
1.49704e-06
1.95487e-06
2.98066e-07
1.9384e-06
1.95836e-07
1.92598e-06
1.97587e-07
1.90315e-06
1.90677e-07
1.88475e-06
1.75249e-07
1.87735e-06
1.63222e-07
1.87588e-06
1.60812e-07
1.87347e-06
1.64144e-07
1.86726e-06
1.63839e-07
1.85856e-06
1.56027e-07
1.84966e-06
1.435e-07
1.84217e-06
1.30841e-07
1.83614e-06
1.21021e-07
1.83094e-06
1.1362e-07
1.82595e-06
1.0919e-07
1.82046e-06
1.06125e-07
1.81423e-06
1.03769e-07
1.00347e-07
1.80448e-06
2.1277e-06
3.41432e-07
2.08975e-06
2.33782e-07
2.05754e-06
2.298e-07
2.03112e-06
2.17095e-07
2.01823e-06
1.88133e-07
2.01716e-06
1.64293e-07
2.02181e-06
1.5617e-07
2.02649e-06
1.59459e-07
2.02774e-06
1.62591e-07
2.02511e-06
1.58653e-07
2.02017e-06
1.48439e-07
2.01483e-06
1.36186e-07
2.01009e-06
1.25756e-07
2.00566e-06
1.18051e-07
2.00148e-06
1.13374e-07
1.9969e-06
1.10705e-07
1.99191e-06
1.08755e-07
1.06838e-07
1.98542e-06
2.23787e-06
3.66578e-07
2.21102e-06
2.60632e-07
2.19549e-06
2.45333e-07
2.18783e-06
2.24756e-07
2.183e-06
1.92962e-07
2.18119e-06
1.66097e-07
2.18243e-06
1.54932e-07
2.18473e-06
1.57155e-07
2.18582e-06
1.615e-07
2.18472e-06
1.59753e-07
2.18169e-06
1.51474e-07
2.17725e-06
1.40624e-07
2.1718e-06
1.31212e-07
2.16531e-06
1.24541e-07
2.15832e-06
1.20358e-07
2.15112e-06
1.17905e-07
2.14417e-06
1.15704e-07
1.13826e-07
2.13718e-06
2.41309e-06
3.87483e-07
2.3894e-06
2.84327e-07
2.38792e-06
2.46813e-07
2.38444e-06
2.2823e-07
2.36986e-06
2.07545e-07
2.35228e-06
1.83675e-07
2.34095e-06
1.66263e-07
2.33745e-06
1.60654e-07
2.33791e-06
1.61041e-07
2.33826e-06
1.59407e-07
2.33651e-06
1.5322e-07
2.33252e-06
1.44612e-07
2.32718e-06
1.36555e-07
2.32162e-06
1.30105e-07
2.31691e-06
1.25066e-07
2.31361e-06
1.21205e-07
2.31157e-06
1.17739e-07
1.15516e-07
2.30988e-06
2.59293e-06
4.35311e-07
2.56457e-06
3.12692e-07
2.5365e-06
2.7488e-07
2.52324e-06
2.41491e-07
2.52088e-06
2.09907e-07
2.52374e-06
1.80813e-07
2.52889e-06
1.61116e-07
2.5343e-06
1.55238e-07
2.53711e-06
1.58228e-07
2.5343e-06
1.62226e-07
2.52475e-06
1.62771e-07
2.51039e-06
1.58966e-07
2.49518e-06
1.51763e-07
2.48303e-06
1.42259e-07
2.4762e-06
1.31899e-07
2.47494e-06
1.22462e-07
2.47794e-06
1.14734e-07
1.10662e-07
2.4828e-06
2.73561e-06
3.84622e-07
2.74154e-06
3.06765e-07
2.75062e-06
2.658e-07
2.7576e-06
2.34513e-07
2.75653e-06
2.10979e-07
2.74933e-06
1.8801e-07
2.74014e-06
1.70309e-07
2.73182e-06
1.6356e-07
2.72499e-06
1.65058e-07
2.71912e-06
1.68093e-07
2.71387e-06
1.68018e-07
2.70949e-06
1.63345e-07
2.70641e-06
1.54847e-07
2.70469e-06
1.4398e-07
2.70403e-06
1.32555e-07
2.70409e-06
1.22406e-07
2.70434e-06
1.14487e-07
1.09961e-07
2.70504e-06
2.984e-06
3.97597e-07
2.95866e-06
3.32106e-07
2.95578e-06
2.68683e-07
2.95513e-06
2.35164e-07
2.95167e-06
2.14435e-07
2.94481e-06
1.94872e-07
2.93298e-06
1.82144e-07
2.91851e-06
1.78026e-07
2.90698e-06
1.76594e-07
2.90233e-06
1.7274e-07
2.90485e-06
1.655e-07
2.91205e-06
1.56139e-07
2.92066e-06
1.46244e-07
2.92773e-06
1.36902e-07
2.93159e-06
1.28704e-07
2.93176e-06
1.22236e-07
2.92863e-06
1.17609e-07
1.15411e-07
2.92318e-06
3.14186e-06
4.57811e-07
3.16637e-06
3.07596e-07
3.17504e-06
2.60015e-07
3.17168e-06
2.38523e-07
3.16995e-06
2.16168e-07
3.17004e-06
1.94778e-07
3.16737e-06
1.84812e-07
3.16036e-06
1.85032e-07
3.15112e-06
1.85833e-07
3.14269e-06
1.81171e-07
3.13677e-06
1.71425e-07
3.13342e-06
1.59482e-07
3.13181e-06
1.47861e-07
3.1309e-06
1.37809e-07
3.1301e-06
1.29509e-07
3.12901e-06
1.2332e-07
3.12769e-06
1.18931e-07
1.17151e-07
3.12595e-06
2.84224e-06
4.24965e-07
2.83294e-06
3.16887e-07
2.82014e-06
2.72822e-07
2.81778e-06
2.4088e-07
2.82447e-06
2.09482e-07
2.83366e-06
1.85582e-07
2.84093e-06
1.77541e-07
2.84612e-06
1.79843e-07
2.85028e-06
1.81673e-07
2.8534e-06
1.78049e-07
2.85477e-06
1.70056e-07
2.85402e-06
1.6024e-07
2.85149e-06
1.50389e-07
2.84802e-06
1.41278e-07
2.84445e-06
1.33081e-07
2.84134e-06
1.26425e-07
2.83889e-06
1.21382e-07
1.19008e-07
2.83703e-06
3.46694e-06
3.40873e-07
3.49254e-06
2.91289e-07
3.49717e-06
2.6819e-07
3.50103e-06
2.37021e-07
3.50315e-06
2.07364e-07
3.49882e-06
1.89908e-07
3.49107e-06
1.8529e-07
3.48434e-06
1.86572e-07
3.47921e-06
1.86812e-07
3.47405e-06
1.83205e-07
3.4684e-06
1.75706e-07
3.46342e-06
1.65217e-07
3.46079e-06
1.53018e-07
3.46131e-06
1.40756e-07
3.46454e-06
1.29859e-07
3.46944e-06
1.2152e-07
3.47455e-06
1.16272e-07
1.14767e-07
3.47879e-06
4.2988e-06
4.1397e-07
4.24245e-06
3.47638e-07
4.25394e-06
2.56699e-07
4.28874e-06
2.02219e-07
4.31639e-06
1.79712e-07
4.32215e-06
1.84152e-07
4.30632e-06
2.01119e-07
4.27892e-06
2.1397e-07
4.25184e-06
2.13886e-07
4.23381e-06
2.01236e-07
4.22861e-06
1.80907e-07
4.23514e-06
1.58689e-07
4.24916e-06
1.38995e-07
4.26536e-06
1.24561e-07
4.27898e-06
1.16236e-07
4.28734e-06
1.13162e-07
4.28919e-06
1.14419e-07
1.17618e-07
4.28634e-06
5.09429e-06
3.81316e-07
5.14243e-06
2.99502e-07
5.17601e-06
2.23118e-07
5.19241e-06
1.85817e-07
5.203e-06
1.69122e-07
5.21058e-06
1.76571e-07
5.213e-06
1.98699e-07
5.21081e-06
2.16165e-07
5.20897e-06
2.15723e-07
5.21319e-06
1.97018e-07
5.22577e-06
1.68329e-07
5.24467e-06
1.39789e-07
5.26512e-06
1.18537e-07
5.28216e-06
1.07529e-07
5.29241e-06
1.05984e-07
5.29477e-06
1.10798e-07
5.29024e-06
1.18952e-07
1.27371e-07
5.28049e-06
6.3983e-06
1.97888e-07
6.47073e-06
2.27078e-07
6.44343e-06
2.5042e-07
6.40175e-06
2.2749e-07
6.36775e-06
2.03119e-07
6.35168e-06
1.92641e-07
6.35205e-06
1.98335e-07
6.3599e-06
2.0831e-07
6.36826e-06
2.07364e-07
6.37491e-06
1.9037e-07
6.38012e-06
1.63122e-07
6.38415e-06
1.35754e-07
6.38648e-06
1.16214e-07
6.3864e-06
1.07603e-07
6.38444e-06
1.07944e-07
6.38178e-06
1.13456e-07
6.38086e-06
1.1988e-07
1.24517e-07
6.38371e-06
7.8688e-06
3.3475e-07
7.74659e-06
3.49285e-07
7.71192e-06
2.85095e-07
7.71492e-06
2.24491e-07
7.72553e-06
1.92508e-07
7.73837e-06
1.79801e-07
7.75942e-06
1.7728e-07
7.7923e-06
1.75434e-07
7.83152e-06
1.6814e-07
7.86664e-06
1.55252e-07
7.88906e-06
1.40703e-07
7.89586e-06
1.28956e-07
7.88983e-06
1.22242e-07
7.87675e-06
1.20685e-07
7.86263e-06
1.22058e-07
7.85181e-06
1.24281e-07
7.84665e-06
1.25041e-07
1.23824e-07
7.84734e-06
9.59182e-06
4.66513e-07
9.55809e-06
3.83019e-07
9.54338e-06
2.99801e-07
9.53175e-06
2.36124e-07
9.52258e-06
2.01675e-07
9.52031e-06
1.82069e-07
9.53015e-06
1.67443e-07
9.55224e-06
1.53345e-07
9.58088e-06
1.39497e-07
9.60768e-06
1.28453e-07
9.626e-06
1.22385e-07
9.63363e-06
1.2132e-07
9.63287e-06
1.23011e-07
9.62876e-06
1.24794e-07
9.62673e-06
1.24086e-07
9.63052e-06
1.20484e-07
9.64185e-06
1.13714e-07
1.05462e-07
9.66021e-06
1.17444e-05
4.38521e-07
1.17492e-05
3.78203e-07
1.17726e-05
2.76354e-07
1.17838e-05
2.2489e-07
1.17834e-05
2.02157e-07
1.17891e-05
1.76371e-07
1.18119e-05
1.44572e-07
1.18463e-05
1.18944e-07
1.18775e-05
1.08334e-07
1.18949e-05
1.11053e-07
1.18982e-05
1.19119e-07
1.18947e-05
1.2479e-07
1.18939e-05
1.23822e-07
1.19027e-05
1.15957e-07
1.1924e-05
1.02851e-07
1.19566e-05
8.78676e-08
1.19974e-05
7.28842e-08
6.04964e-08
1.20424e-05
8.58117e-06
5.98204e-07
8.55185e-06
4.07524e-07
8.56715e-06
2.61055e-07
8.57594e-06
2.16103e-07
8.56873e-06
2.09362e-07
8.55578e-06
1.8932e-07
8.55272e-06
1.47636e-07
8.56707e-06
1.04595e-07
8.59646e-06
7.89437e-08
8.63394e-06
7.35728e-08
8.67366e-06
7.93926e-08
8.71251e-06
8.59469e-08
8.74908e-06
8.72455e-08
8.78246e-06
8.25774e-08
8.81193e-06
7.3382e-08
8.83736e-06
6.24381e-08
8.85889e-06
5.13576e-08
4.18265e-08
8.87756e-06
7.43711e-06
5.33812e-07
7.46492e-06
3.79714e-07
7.46408e-06
2.6189e-07
7.46136e-06
2.1883e-07
7.46355e-06
2.07165e-07
7.4683e-06
1.84577e-07
7.47468e-06
1.41252e-07
7.4858e-06
9.34792e-08
7.50538e-06
5.93618e-08
7.53461e-06
4.43444e-08
7.57118e-06
4.28237e-08
7.61043e-06
4.6691e-08
7.64754e-06
5.01392e-08
7.67892e-06
5.11902e-08
7.70265e-06
4.96576e-08
7.71868e-06
4.64103e-08
7.72793e-06
4.21067e-08
3.70304e-08
7.73272e-06
6.50657e-06
4.6781e-07
6.53487e-06
3.51423e-07
6.53673e-06
2.60025e-07
6.54214e-06
2.13423e-07
6.56438e-06
1.84922e-07
6.59944e-06
1.49516e-07
6.63568e-06
1.05014e-07
6.66486e-06
6.43015e-08
6.68465e-06
3.95667e-08
6.69714e-06
3.18586e-08
6.70617e-06
3.37915e-08
6.71539e-06
3.74678e-08
6.72702e-06
3.85071e-08
6.74162e-06
3.65913e-08
6.75821e-06
3.30754e-08
6.77526e-06
2.93573e-08
6.79113e-06
2.62402e-08
2.36976e-08
6.80446e-06
5.57553e-06
4.54694e-07
5.63036e-06
2.96592e-07
5.67601e-06
2.14376e-07
5.70423e-06
1.85196e-07
5.72375e-06
1.65404e-07
5.74123e-06
1.32036e-07
5.76127e-06
8.4978e-08
5.78487e-06
4.06938e-08
5.81016e-06
1.42839e-08
5.83482e-06
7.20016e-09
5.85717e-06
1.1433e-08
5.87644e-06
1.8197e-08
5.8929e-06
2.20563e-08
5.90786e-06
2.16252e-08
5.92253e-06
1.84061e-08
5.93742e-06
1.44679e-08
5.95238e-06
1.1281e-08
9.61148e-09
5.96647e-06
4.91739e-06
4.59355e-07
4.92749e-06
2.8649e-07
4.96244e-06
1.79431e-07
4.98952e-06
1.58108e-07
5.01736e-06
1.37569e-07
5.05263e-06
9.67681e-08
5.08855e-06
4.90507e-08
5.11674e-06
1.25051e-08
5.13496e-06
-3.93684e-09
5.14731e-06
-5.15021e-09
5.16022e-06
-1.46729e-09
5.17739e-06
1.0252e-09
5.19978e-06
-3.38409e-10
5.22514e-06
-3.73357e-09
5.25068e-06
-7.13452e-09
5.27379e-06
-8.6431e-09
5.29275e-06
-7.6737e-09
-4.78283e-09
5.30714e-06
4.17861e-06
4.34465e-07
4.25868e-06
2.0642e-07
4.30654e-06
1.31566e-07
4.33019e-06
1.34461e-07
4.35527e-06
1.12486e-07
4.3914e-06
6.06397e-08
4.42835e-06
1.20981e-08
4.45684e-06
-1.59806e-08
4.47601e-06
-2.31086e-08
4.49178e-06
-2.09205e-08
4.50933e-06
-1.90145e-08
4.53103e-06
-2.06723e-08
4.55533e-06
-2.46425e-08
4.57968e-06
-2.80823e-08
4.60123e-06
-2.86808e-08
4.61842e-06
-2.58393e-08
4.63072e-06
-1.99717e-08
-1.27978e-08
4.63874e-06
3.69073e-06
4.27057e-07
3.76128e-06
1.35872e-07
3.79239e-06
1.00458e-07
3.82963e-06
9.7219e-08
3.88165e-06
6.04648e-08
3.93228e-06
1.00117e-08
3.96946e-06
-2.50839e-08
3.99361e-06
-4.01236e-08
4.01072e-06
-4.02205e-08
4.02437e-06
-3.45753e-08
4.03413e-06
-2.87658e-08
4.0382e-06
-2.47422e-08
4.03615e-06
-2.25991e-08
4.02965e-06
-2.1584e-08
4.02184e-06
-2.08628e-08
4.01591e-06
-1.99096e-08
4.01435e-06
-1.8414e-08
-1.64065e-08
4.01796e-06
3.24427e-06
2.94713e-07
3.2961e-06
8.40392e-08
3.33394e-06
6.2619e-08
3.39004e-06
4.11213e-08
3.44593e-06
4.57934e-09
3.48379e-06
-2.78529e-08
3.49953e-06
-4.08221e-08
3.50056e-06
-4.11506e-08
3.49712e-06
-3.67808e-08
3.49541e-06
-3.28688e-08
3.49735e-06
-3.07101e-08
3.50228e-06
-2.96715e-08
3.5087e-06
-2.90175e-08
3.51564e-06
-2.85235e-08
3.52286e-06
-2.80772e-08
3.53068e-06
-2.77372e-08
3.53956e-06
-2.7292e-08
-2.64989e-08
3.54965e-06
2.83614e-06
1.81775e-07
2.9171e-06
3.08203e-09
2.96812e-06
1.15927e-08
3.01017e-06
-9.23681e-10
3.03828e-06
-2.35369e-08
3.05146e-06
-4.10278e-08
3.05775e-06
-4.71178e-08
3.06343e-06
-4.68248e-08
3.07178e-06
-4.5129e-08
3.08339e-06
-4.44819e-08
3.0974e-06
-4.47189e-08
3.11221e-06
-4.44871e-08
3.12612e-06
-4.2918e-08
3.13792e-06
-4.0327e-08
3.14727e-06
-3.7426e-08
3.15459e-06
-3.50583e-08
3.16061e-06
-3.33125e-08
-3.19527e-08
3.16606e-06
2.52871e-06
7.44577e-08
2.56991e-06
-3.81168e-08
2.60219e-06
-2.06895e-08
2.63151e-06
-3.02477e-08
2.65191e-06
-4.39367e-08
2.66376e-06
-5.28802e-08
2.6716e-06
-5.49509e-08
2.67658e-06
-5.18076e-08
2.67837e-06
-4.69176e-08
2.67728e-06
-4.33927e-08
2.67447e-06
-4.19102e-08
2.67105e-06
-4.10657e-08
2.66753e-06
-3.93963e-08
2.66392e-06
-3.67216e-08
2.66028e-06
-3.37866e-08
2.65676e-06
-3.15354e-08
2.65361e-06
-3.01646e-08
-2.93861e-08
2.65105e-06
2.16544e-06
2.12732e-06
2.10663e-06
2.07638e-06
2.03245e-06
1.97957e-06
1.92461e-06
1.87281e-06
1.82589e-06
1.7825e-06
1.74059e-06
1.69952e-06
1.66012e-06
1.6234e-06
1.58962e-06
1.55808e-06
1.52792e-06
1.49853e-06
4.21109e-08
-4.21109e-08
1.52306e-07
-1.10195e-07
2.90208e-07
-1.37902e-07
4.36855e-07
-1.46647e-07
5.86144e-07
-1.49289e-07
7.36988e-07
-1.50845e-07
8.89746e-07
-1.52758e-07
1.04481e-06
-1.55063e-07
1.20207e-06
-1.57256e-07
1.3607e-06
-1.58634e-07
1.51901e-06
-1.58314e-07
1.67434e-06
-1.5533e-07
1.82284e-06
-1.48493e-07
1.95949e-06
-1.36648e-07
2.0783e-06
-1.18811e-07
2.17252e-06
-9.42277e-08
2.23528e-06
-6.27544e-08
2.26032e-06
-2.50411e-08
2.24142e-06
1.89006e-08
2.1731e-06
6.83142e-08
2.05417e-06
1.18933e-07
1.88715e-06
1.67024e-07
1.67745e-06
2.09697e-07
1.4357e-06
2.41749e-07
1.17674e-06
2.5896e-07
9.19439e-07
2.57303e-07
6.97432e-07
2.22006e-07
4.79271e-07
2.18162e-07
2.91624e-07
1.87646e-07
3.38313e-07
-4.66883e-08
5.42769e-07
-2.04456e-07
6.62512e-07
-1.19743e-07
6.67013e-07
-4.50118e-09
5.22165e-07
1.44848e-07
1.25508e-07
3.96657e-07
-4.2572e-07
5.51228e-07
-9.64867e-07
5.39147e-07
-1.4709e-06
5.0603e-07
-1.93826e-06
4.67368e-07
-2.36699e-06
4.28723e-07
-2.75852e-06
3.9153e-07
-3.1152e-06
3.56678e-07
-3.4395e-06
3.243e-07
-3.7336e-06
2.94104e-07
-3.99933e-06
2.65735e-07
-4.23804e-06
2.38704e-07
-4.45058e-06
2.12539e-07
-4.63738e-06
1.86799e-07
-4.79857e-06
1.61197e-07
-4.93415e-06
1.35576e-07
-5.04397e-06
1.09822e-07
-5.12783e-06
8.38599e-08
-5.18559e-06
5.77581e-08
-5.21742e-06
3.18322e-08
-5.22383e-06
6.4049e-09
-5.20653e-06
-1.72943e-08
-5.16611e-06
-4.04198e-08
-5.10334e-06
-6.277e-08
-5.01934e-06
-8.40001e-08
-4.91526e-06
-1.04083e-07
-4.79265e-06
-1.22608e-07
-4.65355e-06
-1.39103e-07
-4.5007e-06
-1.52848e-07
-4.33759e-06
-1.63113e-07
-4.16832e-06
-1.69269e-07
-3.99734e-06
-1.70982e-07
-3.82892e-06
-1.68415e-07
-3.66658e-06
-1.62341e-07
-3.51248e-06
-1.54101e-07
-3.36715e-06
-1.45328e-07
-3.22957e-06
-1.37582e-07
-3.09748e-06
-1.32093e-07
-2.96781e-06
-1.29665e-07
-2.83713e-06
-1.30685e-07
-2.70191e-06
-1.35218e-07
-2.55887e-06
-1.43037e-07
-2.40536e-06
-1.53509e-07
-2.2398e-06
-1.6556e-07
-2.0619e-06
-1.77904e-07
-1.87263e-06
-1.89269e-07
-1.67418e-06
-1.98445e-07
-1.46967e-06
-2.04509e-07
-1.26258e-06
-2.07099e-07
-1.05629e-06
-2.0629e-07
-8.53859e-07
-2.02427e-07
-6.57839e-07
-1.9602e-07
-4.70169e-07
-1.8767e-07
-2.9217e-07
-1.77999e-07
-1.24718e-07
-1.67452e-07
3.17333e-08
-1.56452e-07
1.77602e-07
-1.45868e-07
3.12754e-07
-1.35152e-07
4.37492e-07
-1.24739e-07
5.52218e-07
-1.14726e-07
6.57389e-07
-1.05171e-07
7.53492e-07
-9.61028e-08
8.41019e-07
-8.75274e-08
9.20458e-07
-7.94392e-08
9.92284e-07
-7.18254e-08
1.05695e-06
-6.46712e-08
1.11492e-06
-5.79624e-08
1.16661e-06
-5.16881e-08
1.21245e-06
-4.58409e-08
1.25286e-06
-4.04172e-08
1.28828e-06
-3.54152e-08
1.31911e-06
-3.08331e-08
1.34578e-06
-2.66666e-08
1.36868e-06
-2.29058e-08
1.38822e-06
-1.95342e-08
1.40475e-06
-1.65292e-08
1.41861e-06
-1.38587e-08
1.43009e-06
-1.14869e-08
1.43947e-06
-9.37786e-09
1.44696e-06
-7.48658e-09
1.45274e-06
-5.78029e-09
1.45697e-06
-4.23443e-09
1.45978e-06
-2.80551e-09
1.46127e-06
-1.49066e-09
1.46155e-06
-2.79818e-10
1.4607e-06
8.51965e-10
1.45877e-06
1.9232e-09
1.4559e-06
2.86919e-09
1.45223e-06
3.67389e-09
1.44789e-06
4.33997e-09
1.44303e-06
4.86425e-09
1.43777e-06
5.25365e-09
1.43225e-06
5.52272e-09
1.42656e-06
5.68925e-09
1.42079e-06
5.77217e-09
1.415e-06
5.78741e-09
1.40925e-06
5.74924e-09
1.40358e-06
5.67595e-09
1.39799e-06
5.58624e-09
1.3925e-06
5.48757e-09
1.38713e-06
5.37587e-09
1.38187e-06
5.25206e-09
1.37674e-06
5.13019e-09
1.37171e-06
5.02965e-09
1.36677e-06
4.94686e-09
1.36188e-06
4.88283e-09
1.35706e-06
4.82644e-09
1.35228e-06
4.77527e-09
1.34755e-06
4.72879e-09
1.34287e-06
4.68541e-09
1.33823e-06
4.64331e-09
1.33362e-06
4.60145e-09
1.32906e-06
4.56107e-09
1.32454e-06
4.52336e-09
1.32005e-06
4.49181e-09
1.31558e-06
4.4698e-09
1.31112e-06
4.45975e-09
1.30665e-06
4.46297e-09
1.30218e-06
4.47844e-09
1.29767e-06
4.50486e-09
1.29313e-06
4.54119e-09
1.28854e-06
4.58689e-09
1.2839e-06
4.64271e-09
1.27919e-06
4.71e-09
1.2744e-06
4.79198e-09
1.26951e-06
4.89124e-09
1.26449e-06
5.01438e-09
1.25933e-06
5.16308e-09
1.25398e-06
5.35092e-09
1.2484e-06
5.57473e-09
1.24254e-06
5.86856e-09
1.23633e-06
6.20844e-09
1.22964e-06
6.68517e-09
1.22244e-06
7.2028e-09
1.21442e-06
8.01557e-09
1.20562e-06
8.80457e-09
1.19534e-06
1.02802e-08
1.18389e-06
1.14473e-08
1.16954e-06
1.43497e-08
1.15362e-06
1.5918e-08
1.13141e-06
2.22145e-08
1.10766e-06
2.37475e-08
1.06858e-06
3.90854e-08
1.02996e-06
3.86176e-08
9.49684e-07
8.02755e-08
7.03835e-08
8.793e-07
8.07915e-08
-1.22902e-07
1.98419e-07
-2.27822e-07
3.19017e-07
-2.585e-07
4.40022e-07
-2.67653e-07
5.64008e-07
-2.73275e-07
6.92958e-07
-2.79794e-07
8.27788e-07
-2.87588e-07
9.68675e-07
-2.9595e-07
1.11521e-06
-3.03795e-07
1.26641e-06
-3.09833e-07
1.42056e-06
-3.12462e-07
1.57499e-06
-3.09765e-07
1.72591e-06
-2.99405e-07
1.86822e-06
-2.78961e-07
1.99565e-06
-2.46243e-07
2.10127e-06
-1.99848e-07
2.17769e-06
-1.39177e-07
2.21839e-06
-6.5738e-08
2.21909e-06
1.81979e-08
2.17749e-06
1.09919e-07
2.094e-06
2.02419e-07
1.97105e-06
2.89976e-07
1.81287e-06
3.67875e-07
1.6263e-06
4.28319e-07
1.41288e-06
4.7238e-07
1.18229e-06
4.879e-07
9.54354e-07
4.49938e-07
8.07907e-07
3.64609e-07
8.06811e-07
1.88743e-07
6.94351e-07
6.57711e-08
3.42076e-07
1.4782e-07
-2.36123e-07
4.58456e-07
-9.27994e-07
6.8737e-07
-1.56601e-06
7.82865e-07
-2.03293e-06
8.63572e-07
-2.38516e-06
9.03466e-07
-2.72253e-06
8.7651e-07
-3.04546e-06
8.28958e-07
-3.34688e-06
7.6879e-07
-3.62565e-06
7.07499e-07
-3.88235e-06
6.4823e-07
-4.11829e-06
5.92611e-07
-4.33489e-06
5.40905e-07
-4.53318e-06
4.92391e-07
-4.71373e-06
4.46285e-07
-4.87659e-06
4.01565e-07
-5.02175e-06
3.57697e-07
-5.14879e-06
3.13842e-07
-5.25703e-06
2.69434e-07
-5.3457e-06
2.24245e-07
-5.4141e-06
1.78228e-07
-5.46176e-06
1.31516e-07
-5.48846e-06
8.44638e-08
-5.49419e-06
3.75539e-08
-5.47888e-06
-8.90441e-09
-5.44176e-06
-5.441e-08
-5.38321e-06
-9.89716e-08
-5.30374e-06
-1.42241e-07
-5.20399e-06
-1.83752e-07
-5.0851e-06
-2.22964e-07
-4.94859e-06
-2.59126e-07
-4.7965e-06
-2.91193e-07
-4.63149e-06
-3.17851e-07
-4.45698e-06
-3.3763e-07
-4.27706e-06
-3.49191e-07
-4.09631e-06
-3.51728e-07
-3.91931e-06
-3.45417e-07
-3.74988e-06
-3.3177e-07
-3.59036e-06
-3.13619e-07
-3.44113e-06
-2.94563e-07
-3.30067e-06
-2.7804e-07
-3.16615e-06
-2.6661e-07
-3.03401e-06
-2.61803e-07
-2.90041e-06
-2.64284e-07
-2.7615e-06
-2.74127e-07
-2.6137e-06
-2.90837e-07
-2.45411e-06
-3.13099e-07
-2.28103e-06
-3.38644e-07
-2.09421e-06
-3.64725e-07
-1.89484e-06
-3.88642e-07
-1.68548e-06
-4.07797e-07
-1.46977e-06
-4.20222e-07
-1.25158e-06
-4.25288e-07
-1.03455e-06
-4.23318e-07
-8.21894e-07
-4.15087e-07
-6.16117e-07
-4.01796e-07
-4.19065e-07
-3.84722e-07
-2.31939e-07
-3.65124e-07
-5.53321e-08
-3.44059e-07
1.10704e-07
-3.22488e-07
2.66039e-07
-3.01203e-07
4.11101e-07
-2.80215e-07
5.46265e-07
-2.59903e-07
6.72021e-07
-2.40481e-07
7.88905e-07
-2.22056e-07
8.97471e-07
-2.04669e-07
9.98259e-07
-1.88316e-07
1.09178e-06
-1.72965e-07
1.17853e-06
-1.58566e-07
1.25892e-06
-1.45064e-07
1.33336e-06
-1.32407e-07
1.40223e-06
-1.20553e-07
1.46586e-06
-1.09474e-07
1.5246e-06
-9.91575e-08
1.57879e-06
-8.95996e-08
1.62875e-06
-8.08027e-08
1.67486e-06
-7.27684e-08
1.71744e-06
-6.54905e-08
1.75686e-06
-5.89513e-08
1.79345e-06
-5.31199e-08
1.82754e-06
-4.79479e-08
1.85943e-06
-4.33753e-08
1.88938e-06
-3.93325e-08
1.91763e-06
-3.5739e-08
1.94437e-06
-3.252e-08
1.96974e-06
-2.9605e-08
1.99386e-06
-2.69244e-08
2.0168e-06
-2.44301e-08
2.03862e-06
-2.20978e-08
2.05938e-06
-1.99027e-08
2.07912e-06
-1.78201e-08
2.09784e-06
-1.58522e-08
2.11554e-06
-1.40237e-08
2.13222e-06
-1.23395e-08
2.14789e-06
-1.08059e-08
2.16257e-06
-9.4244e-09
2.17628e-06
-8.18891e-09
2.18905e-06
-7.08657e-09
2.20092e-06
-6.1e-09
2.21193e-06
-5.21371e-09
2.22209e-06
-4.41406e-09
2.23145e-06
-3.68128e-09
2.24003e-06
-2.99235e-09
2.24785e-06
-2.33887e-09
2.25495e-06
-1.72671e-09
2.26135e-06
-1.14795e-09
2.26706e-06
-5.72199e-10
2.27206e-06
3.01691e-11
2.27639e-06
6.15785e-10
2.28006e-06
1.20742e-09
2.28311e-06
1.78227e-09
2.28555e-06
2.33672e-09
2.28741e-06
2.86757e-09
2.28872e-06
3.37287e-09
2.28951e-06
3.85191e-09
2.28981e-06
4.30264e-09
2.28964e-06
4.72656e-09
2.28904e-06
5.124e-09
2.28804e-06
5.49939e-09
2.28665e-06
5.85618e-09
2.28491e-06
6.19841e-09
2.28284e-06
6.53017e-09
2.28047e-06
6.85177e-09
2.27781e-06
7.16441e-09
2.27488e-06
7.46884e-09
2.2717e-06
7.76618e-09
2.26829e-06
8.05889e-09
2.26465e-06
8.35093e-09
2.26079e-06
8.64973e-09
2.25672e-06
8.9629e-09
2.25243e-06
9.30526e-09
2.24791e-06
9.68311e-09
2.24313e-06
1.01219e-08
2.23809e-06
1.06166e-08
2.23273e-06
1.12273e-08
2.22703e-06
1.1908e-08
2.2209e-06
1.28198e-08
2.21432e-06
1.37871e-08
2.20707e-06
1.52587e-08
2.19922e-06
1.66585e-08
2.19026e-06
1.92411e-08
2.18046e-06
2.12455e-08
2.16862e-06
2.61907e-08
2.15563e-06
2.89083e-08
2.13858e-06
3.92615e-08
2.11982e-06
4.25093e-08
2.09278e-06
6.61242e-08
2.0622e-06
6.91934e-08
2.01544e-06
1.27041e-07
1.30824e-07
1.955e-06
9.4472e-08
-2.17374e-07
1.89135e-07
-3.22485e-07
2.75184e-07
-3.44549e-07
3.62924e-07
-3.55393e-07
4.57301e-07
-3.67652e-07
5.59583e-07
-3.82076e-07
6.69752e-07
-3.97756e-07
7.87481e-07
-4.1368e-07
9.12354e-07
-4.28667e-07
1.04373e-06
-4.41212e-07
1.18043e-06
-4.49154e-07
1.32021e-06
-4.49552e-07
1.45953e-06
-4.38721e-07
1.59309e-06
-4.12519e-07
1.714e-06
-3.6716e-07
1.8145e-06
-3.00342e-07
1.88594e-06
-2.10615e-07
1.9218e-06
-1.01606e-07
1.91678e-06
2.32251e-08
1.86279e-06
1.63905e-07
1.76188e-06
3.03328e-07
1.61857e-06
4.33288e-07
1.44115e-06
5.45297e-07
1.23987e-06
6.29594e-07
1.03164e-06
6.80614e-07
8.41817e-07
6.77723e-07
6.83192e-07
6.08563e-07
5.42437e-07
5.05364e-07
2.37016e-07
4.94163e-07
-4.00883e-07
7.0367e-07
-1.17771e-06
9.24646e-07
-1.76827e-06
1.04902e-06
-2.20395e-06
1.12305e-06
-2.57285e-06
1.15176e-06
-2.86497e-06
1.1557e-06
-3.08417e-06
1.12266e-06
-3.27974e-06
1.07208e-06
-3.46575e-06
1.01497e-06
-3.65082e-06
9.53861e-07
-3.83631e-06
8.92986e-07
-4.02147e-06
8.33389e-07
-4.20452e-06
7.75662e-07
-4.38345e-06
7.19838e-07
-4.55601e-06
6.64951e-07
-4.71986e-06
6.10128e-07
-4.87258e-06
5.54294e-07
-5.0116e-06
4.96709e-07
-5.13448e-06
4.36725e-07
-5.23904e-06
3.73994e-07
-5.32335e-06
3.08552e-07
-5.38592e-06
2.40801e-07
-5.42573e-06
1.71325e-07
-5.44206e-06
1.0079e-07
-5.43446e-06
2.99536e-08
-5.40407e-06
-3.9287e-08
-5.35226e-06
-1.06221e-07
-5.28023e-06
-1.71e-07
-5.18949e-06
-2.3299e-07
-5.08162e-06
-2.91618e-07
-4.95828e-06
-3.46306e-07
-4.82111e-06
-3.96296e-07
-4.6718e-06
-4.40503e-07
-4.51219e-06
-4.77453e-07
-4.34453e-06
-5.05298e-07
-4.17166e-06
-5.22061e-07
-3.99725e-06
-5.26134e-07
-3.82565e-06
-5.17017e-07
-3.66129e-06
-4.96132e-07
-3.5076e-06
-4.6731e-07
-3.36584e-06
-4.36322e-07
-3.23462e-06
-4.09256e-07
-3.11046e-06
-3.90775e-07
-2.98884e-06
-3.83421e-07
-2.86507e-06
-3.8805e-07
-2.73457e-06
-4.04627e-07
-2.59318e-06
-4.3223e-07
-2.43741e-06
-4.68871e-07
-2.26505e-06
-5.11006e-07
-2.07573e-06
-5.54042e-07
-1.87106e-06
-5.93317e-07
-1.65456e-06
-6.24292e-07
-1.43123e-06
-6.43549e-07
-1.20611e-06
-6.50407e-07
-9.83593e-07
-6.4584e-07
-7.67341e-07
-6.31339e-07
-5.5988e-07
-6.09257e-07
-3.62862e-07
-5.81741e-07
-1.77222e-07
-5.50764e-07
-3.50098e-09
-5.1778e-07
1.59533e-07
-4.85522e-07
3.11063e-07
-4.52733e-07
4.51789e-07
-4.20941e-07
5.82268e-07
-3.90382e-07
7.03073e-07
-3.61286e-07
8.1481e-07
-3.33792e-07
9.18116e-07
-3.07975e-07
1.01365e-06
-2.83853e-07
1.10209e-06
-2.61401e-07
1.18408e-06
-2.40555e-07
1.26023e-06
-2.21214e-07
1.33108e-06
-2.03262e-07
1.3971e-06
-1.86574e-07
1.45867e-06
-1.71042e-07
1.5161e-06
-1.56587e-07
1.56967e-06
-1.43164e-07
1.61962e-06
-1.3076e-07
1.66623e-06
-1.19379e-07
1.70977e-06
-1.09031e-07
1.75054e-06
-9.97154e-08
1.78883e-06
-9.14115e-08
1.82495e-06
-8.40712e-08
1.8592e-06
-7.76213e-08
1.89183e-06
-7.19673e-08
1.92309e-06
-6.6996e-08
1.95316e-06
-6.25905e-08
1.98219e-06
-5.86362e-08
2.01029e-06
-5.50261e-08
2.03754e-06
-5.16727e-08
2.06395e-06
-4.85118e-08
2.08955e-06
-4.55005e-08
2.11433e-06
-4.26046e-08
2.13829e-06
-3.98115e-08
2.1614e-06
-3.71352e-08
2.18366e-06
-3.45904e-08
2.20503e-06
-3.21852e-08
2.22553e-06
-2.99244e-08
2.24515e-06
-2.7808e-08
2.26389e-06
-2.58273e-08
2.28176e-06
-2.397e-08
2.29877e-06
-2.22234e-08
2.31493e-06
-2.05731e-08
2.33025e-06
-1.90002e-08
2.34475e-06
-1.74864e-08
2.35843e-06
-1.60212e-08
2.3713e-06
-1.45981e-08
2.38336e-06
-1.3208e-08
2.39463e-06
-1.18394e-08
2.40514e-06
-1.04807e-08
2.41489e-06
-9.13799e-09
2.4239e-06
-7.80383e-09
2.43217e-06
-6.48855e-09
2.43971e-06
-5.20004e-09
2.44652e-06
-3.94462e-09
2.45262e-06
-2.72546e-09
2.45802e-06
-1.54217e-09
2.46272e-06
-3.9949e-10
2.46674e-06
7.08692e-10
2.4701e-06
1.76389e-09
2.47283e-06
2.76829e-09
2.47496e-06
3.72354e-09
2.47652e-06
4.63353e-09
2.47755e-06
5.50272e-09
2.47807e-06
6.33024e-09
2.47812e-06
7.11834e-09
2.47772e-06
7.86981e-09
2.4769e-06
8.58714e-09
2.47568e-06
9.2754e-09
2.47409e-06
9.9389e-09
2.47215e-06
1.05886e-08
2.46988e-06
1.12319e-08
2.4673e-06
1.18911e-08
2.46441e-06
1.2571e-08
2.46122e-06
1.33132e-08
2.45773e-06
1.41041e-08
2.45393e-06
1.50326e-08
2.44981e-06
1.6029e-08
2.44532e-06
1.73089e-08
2.44046e-06
1.86443e-08
2.43513e-06
2.05852e-08
2.42933e-06
2.24595e-08
2.42288e-06
2.56906e-08
2.41574e-06
2.83926e-08
2.40766e-06
3.42641e-08
2.39837e-06
3.82036e-08
2.38786e-06
4.97653e-08
2.37475e-06
5.56203e-08
2.36082e-06
8.00519e-08
2.34039e-06
8.96247e-08
2.32344e-06
1.43999e-07
1.64921e-07
2.28934e-06
7.602e-08
-2.93394e-07
1.35643e-07
-3.82108e-07
1.90531e-07
-3.99436e-07
2.49626e-07
-4.14488e-07
3.14395e-07
-4.32421e-07
3.84604e-07
-4.52285e-07
4.60097e-07
-4.73249e-07
5.41117e-07
-4.947e-07
6.28265e-07
-5.15816e-07
7.22213e-07
-5.3516e-07
8.23029e-07
-5.49971e-07
9.29339e-07
-5.55862e-07
1.03813e-06
-5.47512e-07
1.14444e-06
-5.18827e-07
1.24159e-06
-4.64309e-07
1.32156e-06
-3.80313e-07
1.37616e-06
-2.65216e-07
1.39761e-06
-1.23053e-07
1.37952e-06
4.13072e-08
1.31779e-06
2.25643e-07
1.21473e-06
4.06384e-07
1.07624e-06
5.71776e-07
9.12904e-07
7.08634e-07
7.37617e-07
8.04881e-07
5.57812e-07
8.6042e-07
3.52827e-07
8.82708e-07
5.37933e-08
9.07596e-07
-4.41447e-07
1.0006e-06
-1.10764e-06
1.16035e-06
-1.69872e-06
1.29475e-06
-2.14113e-06
1.36705e-06
-2.48362e-06
1.39151e-06
-2.74635e-06
1.38578e-06
-2.95847e-06
1.36388e-06
-3.13262e-06
1.32984e-06
-3.29198e-06
1.28203e-06
-3.44683e-06
1.22693e-06
-3.6013e-06
1.16944e-06
-3.75884e-06
1.11141e-06
-3.91934e-06
1.05349e-06
-4.08172e-06
9.95767e-07
-4.24388e-06
9.37824e-07
-4.40322e-06
8.79172e-07
-4.55691e-06
8.18649e-07
-4.70199e-06
7.55202e-07
-4.83539e-06
6.87693e-07
-4.954e-06
6.15318e-07
-5.05481e-06
5.37541e-07
-5.13516e-06
4.54348e-07
-5.19288e-06
3.66265e-07
-5.22646e-06
2.74388e-07
-5.2353e-06
1.80166e-07
-5.21935e-06
8.48309e-08
-5.17864e-06
-1.07528e-08
-5.11795e-06
-9.99714e-08
-5.03781e-06
-1.8637e-07
-4.94116e-06
-2.67643e-07
-4.83168e-06
-3.42476e-07
-4.71298e-06
-4.10318e-07
-4.58833e-06
-4.70952e-07
-4.46032e-06
-5.24311e-07
-4.33066e-06
-5.70159e-07
-4.20014e-06
-6.07968e-07
-4.06869e-06
-6.36749e-07
-3.93577e-06
-6.54986e-07
-3.80108e-06
-6.60824e-07
-3.66546e-06
-6.5264e-07
-3.53143e-06
-6.30159e-07
-3.40275e-06
-5.95992e-07
-3.28256e-06
-5.5651e-07
-3.17139e-06
-5.20428e-07
-3.06642e-06
-4.95744e-07
-2.96257e-06
-4.87273e-07
-2.85414e-06
-4.96472e-07
-2.73595e-06
-5.22825e-07
-2.60329e-06
-5.64887e-07
-2.45191e-06
-6.2025e-07
-2.27908e-06
-6.83836e-07
-2.08386e-06
-7.49264e-07
-1.86805e-06
-8.09124e-07
-1.63666e-06
-8.55689e-07
-1.39702e-06
-8.83188e-07
-1.1563e-06
-8.9112e-07
-9.20511e-07
-8.81632e-07
-6.94133e-07
-8.57717e-07
-4.79814e-07
-8.23576e-07
-2.7886e-07
-7.82695e-07
-9.15445e-08
-7.3808e-07
8.27506e-08
-6.92075e-07
2.44206e-07
-6.46977e-07
3.94038e-07
-6.02564e-07
5.32856e-07
-5.59759e-07
6.61362e-07
-5.18888e-07
7.80154e-07
-4.80078e-07
8.89724e-07
-4.43362e-07
9.90493e-07
-4.08744e-07
1.08288e-06
-3.76236e-07
1.16734e-06
-3.45866e-07
1.24446e-06
-3.17668e-07
1.3149e-06
-2.91659e-07
1.37945e-06
-2.67815e-07
1.43893e-06
-2.4605e-07
1.4941e-06
-2.26216e-07
1.54564e-06
-2.08123e-07
1.59405e-06
-1.91572e-07
1.63968e-06
-1.76397e-07
1.68279e-06
-1.62488e-07
1.72355e-06
-1.4979e-07
1.76212e-06
-1.38285e-07
1.79867e-06
-1.27962e-07
1.8334e-06
-1.18796e-07
1.8665e-06
-1.10727e-07
1.8982e-06
-1.03662e-07
1.92867e-06
-9.74735e-08
1.9581e-06
-9.20152e-08
1.9866e-06
-8.71362e-08
2.01427e-06
-8.2693e-08
2.04115e-06
-7.85612e-08
2.06729e-06
-7.46458e-08
2.09267e-06
-7.0883e-08
2.1173e-06
-6.72308e-08
2.14116e-06
-6.36706e-08
2.16423e-06
-6.02114e-08
2.18651e-06
-5.68691e-08
2.20798e-06
-5.36557e-08
2.22864e-06
-5.05815e-08
2.24848e-06
-4.76529e-08
2.26752e-06
-4.48663e-08
2.28577e-06
-4.22119e-08
2.30322e-06
-3.96792e-08
2.3199e-06
-3.72529e-08
2.33581e-06
-3.4914e-08
2.35097e-06