/*--------------------------------*- C++ -*----------------------------------*\
  =========                 |
  \\      /  F ield         | OpenFOAM: The Open Source CFD Toolbox
   \\    /   O peration     | Website:  https://openfoam.org
    \\  /    A nd           | Version:  7
     \\/     M anipulation  |
\*---------------------------------------------------------------------------*/
FoamFile
{
    version     2.0;
    format      ascii;
    class       surfaceScalarField;
    location    "0.043";
    object      phi_0;
}
// * * * * * * * * * * * * * * * * * * * * * * * * * * * * * * * * * * * * * //

dimensions      [0 3 -1 0 0 0 0];

internalField   nonuniform List<scalar> 
24170
(
1.41526e-06
2.0863e-07
1.2676e-06
1.47659e-07
1.13771e-06
1.29893e-07
1.02084e-06
1.16865e-07
9.02608e-07
1.18233e-07
7.8913e-07
1.13478e-07
6.86844e-07
1.02286e-07
5.95403e-07
9.14409e-08
5.13498e-07
8.19052e-08
4.41373e-07
7.21245e-08
3.79584e-07
6.17896e-08
3.27675e-07
5.19086e-08
2.84031e-07
4.36443e-08
2.46844e-07
3.71869e-08
2.14471e-07
3.23733e-08
1.86153e-07
2.83175e-08
1.59616e-07
2.65366e-08
1.61463e-08
1.4347e-07
1.67086e-06
2.52269e-07
1.64898e-06
1.69539e-07
1.61285e-06
1.66026e-07
1.58287e-06
1.46838e-07
1.55463e-06
1.46478e-07
1.51723e-06
1.50875e-07
1.46862e-06
1.50901e-07
1.41334e-06
1.46718e-07
1.35722e-06
1.38024e-07
1.30305e-06
1.263e-07
1.2512e-06
1.13631e-07
1.20058e-06
1.02529e-07
1.15076e-06
9.34644e-08
1.10161e-06
8.63359e-08
1.05269e-06
8.12958e-08
1.00408e-06
7.69308e-08
9.57169e-07
7.34461e-08
6.32386e-08
9.10077e-07
1.79944e-06
2.51034e-07
1.79567e-06
1.73305e-07
1.77906e-06
1.8264e-07
1.75932e-06
1.66578e-07
1.74948e-06
1.56319e-07
1.74464e-06
1.55717e-07
1.73608e-06
1.59458e-07
1.72097e-06
1.61826e-07
1.70143e-06
1.57568e-07
1.68056e-06
1.47165e-07
1.65974e-06
1.34452e-07
1.63897e-06
1.233e-07
1.61743e-06
1.15003e-07
1.59528e-06
1.08492e-07
1.57225e-06
1.0432e-07
1.54836e-06
1.0082e-07
1.52401e-06
9.78034e-08
9.10433e-08
1.4962e-06
1.9509e-06
2.70905e-07
1.93641e-06
1.87803e-07
1.92436e-06
1.9469e-07
1.90166e-06
1.89272e-07
1.88358e-06
1.74403e-07
1.87649e-06
1.62807e-07
1.87512e-06
1.60827e-07
1.87263e-06
1.64313e-07
1.86632e-06
1.63877e-07
1.85761e-06
1.55882e-07
1.84878e-06
1.43282e-07
1.84141e-06
1.30667e-07
1.83548e-06
1.20935e-07
1.83035e-06
1.13622e-07
1.82537e-06
1.09292e-07
1.81988e-06
1.06319e-07
1.81361e-06
1.04066e-07
1.00807e-07
1.80385e-06
2.12407e-06
2.91816e-07
2.08729e-06
2.24582e-07
2.05545e-06
2.26527e-07
2.02961e-06
2.15112e-07
2.01728e-06
1.86731e-07
2.01654e-06
1.63549e-07
2.02129e-06
1.56078e-07
2.02592e-06
1.59686e-07
2.02703e-06
1.62762e-07
2.0243e-06
1.58617e-07
2.01933e-06
1.48254e-07
2.01401e-06
1.35984e-07
2.00931e-06
1.25633e-07
2.00489e-06
1.1804e-07
2.0007e-06
1.13486e-07
1.99609e-06
1.10926e-07
1.99109e-06
1.09067e-07
1.07269e-07
1.98463e-06
2.23691e-06
3.38255e-07
2.20938e-06
2.5212e-07
2.19415e-06
2.41751e-07
2.18686e-06
2.22402e-07
2.1822e-06
1.91396e-07
2.18048e-06
1.6527e-07
2.18176e-06
1.54798e-07
2.18404e-06
1.57406e-07
2.18506e-06
1.61744e-07
2.18388e-06
1.59791e-07
2.18079e-06
1.5134e-07
2.17632e-06
1.4046e-07
2.17082e-06
1.31128e-07
2.16429e-06
1.24571e-07
2.15728e-06
1.20494e-07
2.15009e-06
1.18117e-07
2.14319e-06
1.15968e-07
1.14163e-07
2.1363e-06
2.41368e-06
3.92366e-07
2.38852e-06
2.77278e-07
2.38713e-06
2.43144e-07
2.38338e-06
2.26151e-07
2.36852e-06
2.06262e-07
2.35095e-06
1.82837e-07
2.33985e-06
1.65894e-07
2.33657e-06
1.60687e-07
2.33711e-06
1.61207e-07
2.33742e-06
1.59484e-07
2.33558e-06
1.53173e-07
2.33152e-06
1.44524e-07
2.32614e-06
1.36504e-07
2.32061e-06
1.30109e-07
2.31598e-06
1.25122e-07
2.31279e-06
1.21303e-07
2.31087e-06
1.17888e-07
1.15749e-07
2.30929e-06
2.59192e-06
4.18074e-07
2.56337e-06
3.05829e-07
2.53508e-06
2.71432e-07
2.52216e-06
2.39074e-07
2.5201e-06
2.08323e-07
2.52311e-06
1.79821e-07
2.52831e-06
1.60702e-07
2.53367e-06
1.55327e-07
2.5363e-06
1.58576e-07
2.53319e-06
1.62588e-07
2.52336e-06
1.63003e-07
2.50886e-06
1.59025e-07
2.4937e-06
1.51662e-07
2.48177e-06
1.42041e-07
2.47525e-06
1.31642e-07
2.47431e-06
1.22246e-07
2.47756e-06
1.1464e-07
1.10744e-07
2.48256e-06
2.73763e-06
3.89253e-07
2.74167e-06
3.01784e-07
2.75051e-06
2.62593e-07
2.7571e-06
2.3248e-07
2.75567e-06
2.09761e-07
2.74822e-06
1.87265e-07
2.73892e-06
1.70006e-07
2.73057e-06
1.63673e-07
2.72376e-06
1.65395e-07
2.71792e-06
1.68421e-07
2.71274e-06
1.68184e-07
2.70847e-06
1.633e-07
2.70551e-06
1.54623e-07
2.7039e-06
1.43647e-07
2.70333e-06
1.32208e-07
2.70345e-06
1.22127e-07
2.70375e-06
1.14344e-07
1.1001e-07
2.70448e-06
2.9837e-06
3.82129e-07
2.9583e-06
3.27182e-07
2.95544e-06
2.65449e-07
2.95439e-06
2.3353e-07
2.95064e-06
2.13514e-07
2.94354e-06
1.94366e-07
2.93148e-06
1.82058e-07
2.91697e-06
1.78188e-07
2.90562e-06
1.76747e-07
2.90129e-06
1.72747e-07
2.90412e-06
1.65356e-07
2.91152e-06
1.55899e-07
2.92017e-06
1.45974e-07
2.92717e-06
1.36651e-07
2.93087e-06
1.28508e-07
2.93087e-06
1.22122e-07
2.92762e-06
1.17598e-07
1.15532e-07
2.92209e-06
3.14198e-06
4.52676e-07
3.16741e-06
3.01752e-07
3.17494e-06
2.57916e-07
3.17096e-06
2.37508e-07
3.16907e-06
2.15408e-07
3.16904e-06
1.94392e-07
3.16618e-06
1.84919e-07
3.15901e-06
1.85361e-07
3.14973e-06
1.86028e-07
3.14137e-06
1.81102e-07
3.13557e-06
1.71159e-07
3.13233e-06
1.5914e-07
3.13077e-06
1.47531e-07
3.12989e-06
1.37531e-07
3.1291e-06
1.293e-07
3.12803e-06
1.23191e-07
3.12673e-06
1.18903e-07
1.17256e-07
3.125e-06
2.84321e-06
4.05631e-07
2.83308e-06
3.11889e-07
2.81987e-06
2.71124e-07
2.81739e-06
2.39984e-07
2.82403e-06
2.08776e-07
2.83311e-06
1.85307e-07
2.84025e-06
1.77777e-07
2.84537e-06
1.80246e-07
2.84949e-06
1.81902e-07
2.85258e-06
1.7802e-07
2.85388e-06
1.69857e-07
2.85305e-06
1.59972e-07
2.85047e-06
1.5011e-07
2.84699e-06
1.41009e-07
2.84345e-06
1.3284e-07
2.8404e-06
1.26238e-07
2.83802e-06
1.21289e-07
1.19042e-07
2.83623e-06
3.47093e-06
3.10873e-07
3.49442e-06
2.88399e-07
3.49767e-06
2.67874e-07
3.5008e-06
2.36853e-07
3.50236e-06
2.07224e-07
3.49761e-06
1.90053e-07
3.48969e-06
1.85691e-07
3.48295e-06
1.86992e-07
3.47779e-06
1.87058e-07
3.4726e-06
1.83217e-07
3.46695e-06
1.75505e-07
3.46207e-06
1.64854e-07
3.45961e-06
1.52561e-07
3.46034e-06
1.40281e-07
3.46374e-06
1.29443e-07
3.46875e-06
1.21226e-07
3.47389e-06
1.16146e-07
1.14817e-07
3.47812e-06
4.30393e-06
4.21341e-07
4.244e-06
3.48331e-07
4.25495e-06
2.56922e-07
4.2892e-06
2.02609e-07
4.3159e-06
1.80524e-07
4.32059e-06
1.85355e-07
4.30399e-06
2.02298e-07
4.27629e-06
2.14693e-07
4.24938e-06
2.13964e-07
4.23185e-06
2.00751e-07
4.22726e-06
1.80087e-07
4.23433e-06
1.57787e-07
4.24868e-06
1.38213e-07
4.26494e-06
1.24023e-07
4.2784e-06
1.15979e-07
4.28646e-06
1.13169e-07
4.28797e-06
1.14631e-07
1.17947e-07
4.28484e-06
5.10414e-06
3.79896e-07
5.14679e-06
3.05678e-07
5.177e-06
2.26715e-07
5.19178e-06
1.87824e-07
5.20169e-06
1.7061e-07
5.20892e-06
1.78128e-07
5.21109e-06
2.00127e-07
5.20883e-06
2.16954e-07
5.2072e-06
2.15592e-07
5.21184e-06
1.96114e-07
5.22486e-06
1.67067e-07
5.24404e-06
1.38611e-07
5.26451e-06
1.17739e-07
5.28131e-06
1.07221e-07
5.29118e-06
1.06112e-07
5.29312e-06
1.11223e-07
5.28825e-06
1.19507e-07
1.27908e-07
5.27829e-06
6.4179e-06
2.55933e-07
6.47338e-06
2.50199e-07
6.44094e-06
2.59155e-07
6.39808e-06
2.30683e-07
6.36426e-06
2.04431e-07
6.34884e-06
1.9355e-07
6.34975e-06
1.99217e-07
6.35787e-06
2.08837e-07
6.3663e-06
2.07164e-07
6.37295e-06
1.89456e-07
6.37816e-06
1.6186e-07
6.38217e-06
1.34602e-07
6.38442e-06
1.15492e-07
6.38425e-06
1.07391e-07
6.38223e-06
1.08127e-07
6.37962e-06
1.13836e-07
6.37886e-06
1.2026e-07
1.24781e-07
6.38199e-06
7.84319e-06
3.57434e-07
7.73283e-06
3.60557e-07
7.7043e-06
2.87683e-07
7.71e-06
2.24985e-07
7.72176e-06
1.92677e-07
7.73536e-06
1.79949e-07
7.75721e-06
1.77361e-07
7.79079e-06
1.75263e-07
7.83031e-06
1.67642e-07
7.86522e-06
1.5454e-07
7.88709e-06
1.39993e-07
7.89326e-06
1.28434e-07
7.88676e-06
1.21987e-07
7.87349e-06
1.20664e-07
7.85946e-06
1.22159e-07
7.84891e-06
1.24381e-07
7.84414e-06
1.25037e-07
1.23683e-07
7.84524e-06
9.54299e-06
4.17702e-07
9.53643e-06
3.67108e-07
9.53116e-06
2.92954e-07
9.52345e-06
2.32703e-07
9.51629e-06
1.99831e-07
9.51542e-06
1.8082e-07
9.52643e-06
1.66357e-07
9.54939e-06
1.52297e-07
9.57847e-06
1.3856e-07
9.60526e-06
1.27751e-07
9.62327e-06
1.21982e-07
9.63054e-06
1.21169e-07
9.62954e-06
1.22983e-07
9.62546e-06
1.24741e-07
9.62372e-06
1.239e-07
9.62798e-06
1.20127e-07
9.63981e-06
1.132e-07
1.04858e-07
9.65864e-06
1.17565e-05
4.6638e-07
1.17439e-05
3.79717e-07
1.17647e-05
2.72141e-07
1.1776e-05
2.21385e-07
1.17766e-05
1.99297e-07
1.17838e-05
1.73649e-07
1.1808e-05
1.42122e-07
1.18431e-05
1.17174e-07
1.18743e-05
1.0741e-07
1.18913e-05
1.10756e-07
1.18942e-05
1.19053e-07
1.18907e-05
1.24614e-07
1.18904e-05
1.23359e-07
1.18999e-05
1.15192e-07
1.19219e-05
1.01878e-07
1.19552e-05
8.68203e-08
1.19966e-05
7.18852e-08
5.96456e-08
1.20418e-05
8.54779e-06
5.70972e-07
8.53837e-06
3.89133e-07
8.55965e-06
2.5086e-07
8.57038e-06
2.10661e-07
8.56394e-06
2.05729e-07
8.55178e-06
1.85814e-07
8.54973e-06
1.44173e-07
8.56507e-06
1.01835e-07
8.59518e-06
7.73011e-08
8.63305e-06
7.28791e-08
8.67295e-06
7.91593e-08
8.71183e-06
8.57316e-08
8.74836e-06
8.68262e-08
8.78162e-06
8.19287e-08
8.81092e-06
7.25804e-08
8.83615e-06
6.15896e-08
8.8575e-06
5.05427e-08
4.11103e-08
8.87603e-06
7.42869e-06
5.09331e-07
7.45893e-06
3.58896e-07
7.4598e-06
2.49995e-07
7.45821e-06
2.1225e-07
7.46108e-06
2.02856e-07
7.46618e-06
1.8071e-07
7.47285e-06
1.37511e-07
7.48434e-06
9.03444e-08
7.50441e-06
5.72293e-08
7.53412e-06
4.31691e-08
7.57101e-06
4.22711e-08
7.61034e-06
4.64025e-08
7.64728e-06
4.98824e-08
7.67833e-06
5.08795e-08
7.70163e-06
4.92832e-08
7.71722e-06
4.59941e-08
7.72611e-06
4.16584e-08
3.65591e-08
7.73066e-06
6.50648e-06
4.13615e-07
6.53469e-06
3.30689e-07
6.53598e-06
2.48709e-07
6.54161e-06
2.06618e-07
6.56442e-06
1.80039e-07
6.59974e-06
1.45394e-07
6.63579e-06
1.0146e-07
6.66455e-06
6.1588e-08
6.68391e-06
3.78708e-08
6.69608e-06
3.09926e-08
6.70499e-06
3.33629e-08
6.71425e-06
3.71497e-08
6.726e-06
3.81304e-08
6.74072e-06
3.61556e-08
6.75737e-06
3.26361e-08
6.7744e-06
2.89653e-08
6.79014e-06
2.59106e-08
2.34036e-08
6.8033e-06
5.59022e-06
4.58954e-07
5.63606e-06
2.84851e-07
5.67868e-06
2.06089e-07
5.70545e-06
1.79847e-07
5.72424e-06
1.61249e-07
5.7414e-06
1.28236e-07
5.76134e-06
8.15168e-08
5.78494e-06
3.79863e-08
5.81018e-06
1.26311e-08
5.83473e-06
6.44552e-09
5.85694e-06
1.11503e-08
5.87602e-06
1.80745e-08
5.89234e-06
2.18122e-08
5.90723e-06
2.12587e-08
5.92189e-06
1.7978e-08
5.93679e-06
1.40665e-08
5.95173e-06
1.09703e-08
9.39817e-09
5.96574e-06
4.92366e-06
4.39919e-07
4.93231e-06
2.76198e-07
4.96562e-06
1.72779e-07
4.99154e-06
1.53925e-07
5.01892e-06
1.33876e-07
5.05397e-06
9.31857e-08
5.08948e-06
4.59979e-08
5.1171e-06
1.0367e-08
5.13486e-06
-5.125e-09
5.14699e-06
-5.68083e-09
5.15997e-06
-1.83774e-09
5.17729e-06
7.62051e-10
5.19994e-06
-8.36618e-10
5.22539e-06
-4.19825e-09
5.25087e-06
-7.50304e-09
5.27378e-06
-8.84172e-09
5.29245e-06
-7.69285e-09
-4.6876e-09
5.30653e-06
4.18803e-06
4.36888e-07
4.26464e-06
1.99584e-07
4.30997e-06
1.27454e-07
4.33234e-06
1.31558e-07
4.357e-06
1.09215e-07
4.39297e-06
5.72089e-08
4.4295e-06
9.47645e-09
4.45743e-06
-1.75665e-08
4.47617e-06
-2.38628e-08
4.49181e-06
-2.13278e-08
4.50942e-06
-1.94456e-08
4.53134e-06
-2.11585e-08
4.55568e-06
-2.51759e-08
4.57996e-06
-2.84778e-08
4.60131e-06
-2.88485e-08
4.61822e-06
-2.57577e-08
4.63022e-06
-1.96925e-08
-1.24397e-08
4.63797e-06
3.69717e-06
4.29201e-07
3.76621e-06
1.30548e-07
3.79571e-06
9.79513e-08
3.83266e-06
9.46132e-08
3.8843e-06
5.75722e-08
3.93425e-06
7.25444e-09
3.97066e-06
-2.69328e-08
3.99422e-06
-4.11239e-08
4.01098e-06
-4.06231e-08
4.02436e-06
-3.47111e-08
4.03377e-06
-2.88494e-08
4.03745e-06
-2.48426e-08
4.03502e-06
-2.27475e-08
4.02829e-06
-2.17398e-08
4.02043e-06
-2.09891e-08
4.01465e-06
-1.99779e-08
4.01337e-06
-1.8415e-08
-1.63683e-08
4.0173e-06
3.25101e-06
2.92286e-07
3.30003e-06
8.15308e-08
3.33754e-06
6.04411e-08
3.39332e-06
3.88306e-08
3.44838e-06
2.51559e-09
3.48507e-06
-2.94351e-08
3.4998e-06
-4.16667e-08
3.50022e-06
-4.15391e-08
3.49657e-06
-3.69728e-08
3.49488e-06
-3.30224e-08
3.4969e-06
-3.08684e-08
3.50188e-06
-2.98244e-08
3.5083e-06
-2.91687e-08
3.51523e-06
-2.86692e-08
3.52245e-06
-2.82119e-08
3.53033e-06
-2.78508e-08
3.53928e-06
-2.73689e-08
-2.654e-08
3.54945e-06
2.84156e-06
1.96838e-07
2.92133e-06
1.76076e-09
2.97144e-06
1.03338e-08
3.01234e-06
-2.07002e-09
3.03952e-06
-2.46642e-08
3.052e-06
-4.19116e-08
3.05795e-06
-4.76194e-08
3.06352e-06
-4.71159e-08
3.07191e-06
-4.53606e-08
3.0836e-06
-4.47104e-08
3.09765e-06
-4.49183e-08
3.11244e-06
-4.46157e-08
3.12625e-06
-4.29738e-08
3.13791e-06
-4.03356e-08
3.14712e-06
-3.74212e-08
3.15433e-06
-3.50614e-08
3.16029e-06
-3.33217e-08
-3.19614e-08
3.16571e-06
2.53199e-06
6.14255e-08
2.57292e-06
-3.91699e-08
2.60449e-06
-2.12397e-08
2.63319e-06
-3.07665e-08
2.65306e-06
-4.45342e-08
2.66452e-06
-5.33746e-08
2.67211e-06
-5.52053e-08
2.67688e-06
-5.18882e-08
2.67847e-06
-4.69518e-08
2.67723e-06
-4.34663e-08
2.67433e-06
-4.20193e-08
2.67087e-06
-4.11569e-08
2.66733e-06
-3.94367e-08
2.66372e-06
-3.67215e-08
2.66008e-06
-3.37819e-08
2.65657e-06
-3.15537e-08
2.65345e-06
-3.02059e-08
-2.94351e-08
2.65093e-06
2.16925e-06
2.13008e-06
2.10884e-06
2.07807e-06
2.03354e-06
1.98016e-06
1.92496e-06
1.87307e-06
1.82612e-06
1.78265e-06
1.74063e-06
1.69948e-06
1.66004e-06
1.62332e-06
1.58954e-06
1.55798e-06
1.52778e-06
1.49834e-06
4.21561e-08
-4.21561e-08
1.52337e-07
-1.1018e-07
2.90179e-07
-1.37843e-07
4.36748e-07
-1.46568e-07
5.85954e-07
-1.49206e-07
7.36719e-07
-1.50765e-07
8.89401e-07
-1.52683e-07
1.0444e-06
-1.54995e-07
1.20159e-06
-1.57195e-07
1.36017e-06
-1.58581e-07
1.51844e-06
-1.58269e-07
1.67374e-06
-1.55294e-07
1.8222e-06
-1.48466e-07
1.95883e-06
-1.36633e-07
2.07764e-06
-1.18809e-07
2.17188e-06
-9.42413e-08
2.23467e-06
-6.27871e-08
2.25977e-06
-2.50934e-08
2.24094e-06
1.88264e-08
2.17271e-06
6.82308e-08
2.05386e-06
1.18846e-07
1.88692e-06
1.66939e-07
1.6773e-06
2.0962e-07
1.43565e-06
2.41657e-07
1.17676e-06
2.58884e-07
9.19562e-07
2.572e-07
6.97423e-07
2.22139e-07
4.788e-07
2.18623e-07
2.91656e-07
1.87144e-07
3.39308e-07
-4.7652e-08
5.43447e-07
-2.04139e-07
6.62472e-07
-1.19025e-07
6.66235e-07
-3.76283e-09
5.20126e-07
1.4611e-07
1.22128e-07
3.97998e-07
-4.29418e-07
5.51546e-07
-9.6855e-07
5.39132e-07
-1.47448e-06
5.05932e-07
-1.94168e-06
4.67203e-07
-2.37018e-06
4.28492e-07
-2.76143e-06
3.91251e-07
-3.11779e-06
3.5636e-07
-3.44174e-06
3.23956e-07
-3.73548e-06
2.93741e-07
-4.00084e-06
2.65359e-07
-4.23917e-06
2.38323e-07
-4.45133e-06
2.12162e-07
-4.63776e-06
1.86433e-07
-4.79861e-06
1.60847e-07
-4.93386e-06
1.35251e-07
-5.0434e-06
1.09535e-07
-5.12702e-06
8.36256e-08
-5.18461e-06
5.75864e-08
-5.21634e-06
3.17295e-08
-5.22272e-06
6.38315e-09
-5.20549e-06
-1.72292e-08
-5.16522e-06
-4.02723e-08
-5.10268e-06
-6.25432e-08
-5.01897e-06
-8.37035e-08
-4.91523e-06
-1.0374e-07
-4.79298e-06
-1.22248e-07
-4.65422e-06
-1.38761e-07
-4.50166e-06
-1.52564e-07
-4.33874e-06
-1.62922e-07
-4.16954e-06
-1.69197e-07
-3.9985e-06
-1.7104e-07
-3.82991e-06
-1.68593e-07
-3.66729e-06
-1.62614e-07
-3.51286e-06
-1.54429e-07
-3.36719e-06
-1.45673e-07
-3.22928e-06
-1.37912e-07
-3.09689e-06
-1.32391e-07
-2.96696e-06
-1.29921e-07
-2.83607e-06
-1.30898e-07
-2.70068e-06
-1.35386e-07
-2.55752e-06
-1.43162e-07
-2.40392e-06
-1.536e-07
-2.2383e-06
-1.65623e-07
-2.06035e-06
-1.77946e-07
-1.87106e-06
-1.89291e-07
-1.67261e-06
-1.98448e-07
-1.46812e-06
-2.04493e-07
-1.26106e-06
-2.07062e-07
-1.05482e-06
-2.06232e-07
-8.52474e-07
-2.0235e-07
-6.56547e-07
-1.95927e-07
-4.68982e-07
-1.87565e-07
-2.91095e-07
-1.77887e-07
-1.23758e-07
-1.67337e-07
3.25806e-08
-1.56339e-07
1.78337e-07
-1.45756e-07
3.13382e-07
-1.35045e-07
4.38019e-07
-1.24637e-07
5.52649e-07
-1.1463e-07
6.57731e-07
-1.05082e-07
7.53751e-07
-9.60197e-08
8.41201e-07
-8.74501e-08
9.20568e-07
-7.93673e-08
9.92327e-07
-7.17587e-08
1.05694e-06
-6.46094e-08
1.11484e-06
-5.79054e-08
1.16648e-06
-5.16357e-08
1.21227e-06
-4.57933e-08
1.25265e-06
-4.03743e-08
1.28802e-06
-3.53771e-08
1.31882e-06
-3.07997e-08
1.34546e-06
-2.66379e-08
1.36834e-06
-2.28817e-08
1.38786e-06
-1.95145e-08
1.40437e-06
-1.65134e-08
1.41822e-06
-1.38464e-08
1.42969e-06
-1.14775e-08
1.43906e-06
-9.37071e-09
1.44655e-06
-7.48112e-09
1.45232e-06
-5.77609e-09
1.45655e-06
-4.23104e-09
1.45935e-06
-2.80259e-09
1.46084e-06
-1.48819e-09
1.46112e-06
-2.77654e-10
1.46027e-06
8.53986e-10
1.45834e-06
1.92494e-09
1.45547e-06
2.87031e-09
1.4518e-06
3.67436e-09
1.44746e-06
4.33972e-09
1.44259e-06
4.86329e-09
1.43734e-06
5.25206e-09
1.43182e-06
5.52062e-09
1.42613e-06
5.68678e-09
1.42037e-06
5.76948e-09
1.41458e-06
5.78461e-09
1.40883e-06
5.74642e-09
1.40316e-06
5.67326e-09
1.39758e-06
5.5838e-09
1.39209e-06
5.48533e-09
1.38672e-06
5.37375e-09
1.38147e-06
5.25011e-09
1.37634e-06
5.12852e-09
1.37131e-06
5.02826e-09
1.36637e-06
4.94594e-09
1.36148e-06
4.88209e-09
1.35666e-06
4.82581e-09
1.35188e-06
4.77473e-09
1.34715e-06
4.72832e-09
1.34247e-06
4.68498e-09
1.33783e-06
4.64289e-09
1.33323e-06
4.60101e-09
1.32866e-06
4.56064e-09
1.32414e-06
4.52293e-09
1.31965e-06
4.49139e-09
1.31518e-06
4.4694e-09
1.31072e-06
4.45938e-09
1.30626e-06
4.46263e-09
1.30178e-06
4.4781e-09
1.29728e-06
4.50451e-09
1.29274e-06
4.54081e-09
1.28815e-06
4.58647e-09
1.28351e-06
4.64225e-09
1.2788e-06
4.70949e-09
1.27401e-06
4.79143e-09
1.26912e-06
4.89065e-09
1.2641e-06
5.01373e-09
1.25894e-06
5.16239e-09
1.25359e-06
5.35017e-09
1.24801e-06
5.57391e-09
1.24215e-06
5.86765e-09
1.23594e-06
6.20742e-09
1.22926e-06
6.68403e-09
1.22205e-06
7.2015e-09
1.21404e-06
8.01407e-09
1.20524e-06
8.80282e-09
1.19496e-06
1.02781e-08
1.18351e-06
1.14448e-08
1.16917e-06
1.43468e-08
1.15325e-06
1.59144e-08
1.13104e-06
2.22103e-08
1.1073e-06
2.3742e-08
1.06822e-06
3.90788e-08
1.02961e-06
3.86086e-08
9.4935e-07
8.02641e-08
7.03695e-08
8.7898e-07
8.07791e-08
-1.22935e-07
1.98329e-07
-2.2773e-07
3.18831e-07
-2.58345e-07
4.39743e-07
-2.6748e-07
5.63639e-07
-2.73102e-07
6.92501e-07
-2.79627e-07
8.27248e-07
-2.87429e-07
9.68053e-07
-2.95801e-07
1.11452e-06
-3.03656e-07
1.26564e-06
-3.09707e-07
1.41972e-06
-3.12351e-07
1.5741e-06
-3.09669e-07
1.72496e-06
-2.99326e-07
1.86723e-06
-2.78904e-07
1.99463e-06
-2.46214e-07
2.10024e-06
-1.99852e-07
2.17668e-06
-1.39221e-07
2.21741e-06
-6.58256e-08
2.21816e-06
1.80786e-08
2.17661e-06
1.09779e-07
2.09319e-06
2.02268e-07
1.97028e-06
2.89851e-07
1.81211e-06
3.6779e-07
1.62545e-06
4.28308e-07
1.41188e-06
4.72457e-07
1.18125e-06
4.87832e-07
9.53661e-07
4.49729e-07
8.08186e-07
3.64098e-07
8.07077e-07
1.88253e-07
6.93168e-07
6.6257e-08
3.39586e-07
1.49443e-07
-2.39949e-07
4.60509e-07
-9.31994e-07
6.88283e-07
-1.56949e-06
7.83601e-07
-2.03565e-06
8.64166e-07
-2.38776e-06
9.03649e-07
-2.72505e-06
8.76423e-07
-3.04778e-06
8.28661e-07
-3.34896e-06
7.68386e-07
-3.62747e-06
7.06997e-07
-3.88388e-06
6.4767e-07
-4.11953e-06
5.92006e-07
-4.33585e-06
5.40273e-07
-4.53385e-06
4.91741e-07
-4.71411e-06
4.45627e-07
-4.8767e-06
4.00911e-07
-5.0216e-06
3.57061e-07
-5.1484e-06
3.13233e-07
-5.25642e-06
2.68865e-07
-5.3449e-06
2.2373e-07
-5.41315e-06
1.77786e-07
-5.46069e-06
1.31166e-07
-5.48733e-06
8.4224e-08
-5.49304e-06
3.74435e-08
-5.47779e-06
-8.87114e-09
-5.44079e-06
-5.42217e-08
-5.38244e-06
-9.86272e-08
-5.30323e-06
-1.4175e-07
-5.2038e-06
-1.83139e-07
-5.08526e-06
-2.22271e-07
-4.9491e-06
-2.5841e-07
-4.79734e-06
-2.90524e-07
-4.6326e-06
-3.17305e-07
-4.45824e-06
-3.37277e-07
-4.27836e-06
-3.49083e-07
-4.09751e-06
-3.51886e-07
-3.92028e-06
-3.45825e-07
-3.75053e-06
-3.32369e-07
-3.59063e-06
-3.14326e-07
-3.44101e-06
-2.9529e-07
-3.3002e-06
-2.78722e-07
-3.16538e-06
-2.67212e-07
-3.03299e-06
-2.62312e-07
-2.89919e-06
-2.64699e-07
-2.76013e-06
-2.74449e-07
-2.61222e-06
-2.91071e-07
-2.45256e-06
-3.13263e-07
-2.27942e-06
-3.38756e-07
-2.09257e-06
-3.64799e-07
-1.89318e-06
-3.88681e-07
-1.68383e-06
-4.07802e-07
-1.46813e-06
-4.2019e-07
-1.24998e-06
-4.25213e-07
-1.03301e-06
-4.232e-07
-8.20429e-07
-4.1493e-07
-6.14749e-07
-4.01607e-07
-4.17804e-07
-3.8451e-07
-2.30793e-07
-3.64898e-07
-5.4302e-08
-3.43828e-07
1.11623e-07
-3.22264e-07
2.6685e-07
-3.00983e-07
4.1181e-07
-2.80005e-07
5.46878e-07
-2.59706e-07
6.72544e-07
-2.40297e-07
7.89347e-07
-2.21885e-07
8.97838e-07
-2.0451e-07
9.98557e-07
-1.88169e-07
1.09202e-06
-1.72829e-07
1.1787e-06
-1.58441e-07
1.25904e-06
-1.44948e-07
1.33343e-06
-1.32299e-07
1.40225e-06
-1.20453e-07
1.46584e-06
-1.09383e-07
1.52454e-06
-9.90742e-08
1.57869e-06
-8.95247e-08
1.62862e-06
-8.07365e-08
1.6747e-06
-7.27111e-08
1.71726e-06
-6.5442e-08
1.75666e-06
-5.89114e-08
1.79323e-06
-5.3088e-08
1.82731e-06
-4.79232e-08
1.85919e-06
-4.33567e-08
1.88913e-06
-3.9319e-08
1.91738e-06
-3.57294e-08
1.94412e-06
-3.25132e-08
1.96949e-06
-2.95999e-08
1.99361e-06
-2.69201e-08
2.01654e-06
-2.44261e-08
2.03836e-06
-2.20936e-08
2.05911e-06
-1.98982e-08
2.07885e-06
-1.78151e-08
2.09757e-06
-1.5847e-08
2.11526e-06
-1.40185e-08
2.13194e-06
-1.23344e-08
2.1476e-06
-1.08011e-08
2.16227e-06
-9.4199e-09
2.17598e-06
-8.18472e-09
2.18875e-06
-7.0826e-09
2.20061e-06
-6.09616e-09
2.21161e-06
-5.20992e-09
2.22176e-06
-4.41024e-09
2.23111e-06
-3.67725e-09
2.23969e-06
-2.98801e-09
2.24751e-06
-2.33431e-09
2.2546e-06
-1.72202e-09
2.26099e-06
-1.14297e-09
2.26669e-06
-5.66595e-10
2.27168e-06
3.56846e-11
2.27601e-06
6.22074e-10
2.27967e-06
1.21365e-09
2.28271e-06
1.78839e-09
2.28514e-06
2.34267e-09
2.287e-06
2.87327e-09
2.28831e-06
3.37828e-09
2.28909e-06
3.857e-09
2.28939e-06
4.3073e-09
2.28922e-06
4.73086e-09
2.28861e-06
5.12788e-09
2.2876e-06
5.50288e-09
2.28621e-06
5.85927e-09
2.28447e-06
6.20113e-09
2.2824e-06
6.53254e-09
2.28002e-06
6.85379e-09
2.27736e-06
7.16607e-09
2.27443e-06
7.47015e-09
2.27125e-06
7.76712e-09
2.26783e-06
8.05948e-09
2.26419e-06
8.35119e-09
2.26033e-06
8.6497e-09
2.25626e-06
8.96261e-09
2.25197e-06
9.30476e-09
2.24745e-06
9.68242e-09
2.24268e-06
1.01211e-08
2.23764e-06
1.06156e-08
2.23228e-06
1.1226e-08
2.22658e-06
1.19065e-08
2.22045e-06
1.2818e-08
2.21386e-06
1.37849e-08
2.20662e-06
1.52561e-08
2.19877e-06
1.66554e-08
2.18981e-06
1.92373e-08
2.18001e-06
2.12409e-08
2.16817e-06
2.61852e-08
2.15519e-06
2.89015e-08
2.13814e-06
3.92532e-08
2.11939e-06
4.24989e-08
2.09235e-06
6.61111e-08
2.06179e-06
6.91768e-08
2.01503e-06
1.27019e-07
1.30793e-07
1.95461e-06
9.43799e-08
-2.17315e-07
1.88915e-07
-3.22266e-07
2.74851e-07
-3.44281e-07
3.62489e-07
-3.55117e-07
4.56763e-07
-3.67377e-07
5.5894e-07
-3.81804e-07
6.69e-07
-3.97489e-07
7.86619e-07
-4.1342e-07
9.11379e-07
-4.28417e-07
1.04265e-06
-4.40973e-07
1.17922e-06
-4.48926e-07
1.31889e-06
-4.49338e-07
1.45809e-06
-4.38524e-07
1.59153e-06
-4.12349e-07
1.71235e-06
-3.67033e-07
1.81277e-06
-3.00272e-07
1.88417e-06
-2.10624e-07
1.92006e-06
-1.01712e-07
1.91511e-06
2.30336e-08
1.8612e-06
1.6368e-07
1.76039e-06
3.03077e-07
1.61721e-06
4.33038e-07
1.43996e-06
5.45036e-07
1.23896e-06
6.29306e-07
1.03117e-06
6.80253e-07
8.41834e-07
6.77165e-07
6.83471e-07
6.08091e-07
5.41937e-07
5.05632e-07
2.34289e-07
4.95902e-07
-4.05446e-07
7.05992e-07
-1.18202e-06
9.2602e-07
-1.77155e-06
1.05003e-06
-2.20692e-06
1.12366e-06
-2.57552e-06
1.15219e-06
-2.86716e-06
1.15581e-06
-3.08605e-06
1.12254e-06
-3.28144e-06
1.07181e-06
-3.46732e-06
1.01454e-06
-3.65226e-06
9.53324e-07
-3.83761e-06
8.92346e-07
-4.02261e-06
8.32673e-07
-4.20549e-06
7.74883e-07
-4.38423e-06
7.19016e-07
-4.55659e-06
6.641e-07
-4.72022e-06
6.09263e-07
-4.87275e-06
5.53433e-07
-5.01156e-06
4.9587e-07
-5.13425e-06
4.35929e-07
-5.23865e-06
3.73263e-07
-5.32283e-06
3.07907e-07
-5.38531e-06
2.40266e-07
-5.42506e-06
1.70924e-07
-5.44139e-06
1.0055e-07
-5.43385e-06
2.98993e-08
-5.40357e-06
-3.91437e-08
-5.35192e-06
-1.05878e-07
-5.28009e-06
-1.70459e-07
-5.18957e-06
-2.32268e-07
-5.08195e-06
-2.90756e-07
-4.95886e-06
-3.45359e-07
-4.82194e-06
-3.95339e-07
-4.67284e-06
-4.39624e-07
-4.51339e-06
-4.76746e-07
-4.34581e-06
-5.04857e-07
-4.17294e-06
-5.21959e-07
-3.99841e-06
-5.26412e-07
-3.82657e-06
-5.17663e-07
-3.66187e-06
-4.97074e-07
-3.50777e-06
-4.68424e-07
-3.36559e-06
-4.37467e-07
-3.234e-06
-4.10315e-07
-3.10953e-06
-3.91688e-07
-2.98766e-06
-3.84175e-07
-2.86371e-06
-3.8865e-07
-2.73308e-06
-4.05082e-07
-2.5916e-06
-4.32551e-07
-2.43578e-06
-4.69085e-07
-2.26338e-06
-5.11149e-07
-2.07405e-06
-5.54136e-07
-1.86936e-06
-5.93367e-07
-1.65286e-06
-6.24298e-07
-1.42955e-06
-6.43501e-07
-1.20448e-06
-6.5029e-07
-9.82026e-07
-6.45652e-07
-7.65868e-07
-6.31088e-07
-5.58519e-07
-6.08955e-07
-3.61623e-07
-5.81406e-07
-1.7611e-07
-5.50411e-07
-2.51278e-09
-5.17425e-07
1.60399e-07
-4.85176e-07
3.11816e-07
-4.524e-07
4.52434e-07
-4.20623e-07
5.82812e-07
-3.90084e-07
7.03523e-07
-3.61008e-07
8.15174e-07
-3.33535e-07
9.18402e-07
-3.07739e-07
1.01387e-06
-2.83637e-07
1.10225e-06
-2.61205e-07
1.18418e-06
-2.40376e-07
1.26029e-06
-2.21052e-07
1.3311e-06
-2.03114e-07
1.39708e-06
-1.86438e-07
1.45862e-06
-1.70918e-07
1.51602e-06
-1.56474e-07
1.56956e-06
-1.43061e-07
1.61949e-06
-1.30667e-07
1.66607e-06
-1.19298e-07
1.70959e-06
-1.08962e-07
1.75034e-06
-9.96582e-08
1.78862e-06
-9.13659e-08
1.82473e-06
-8.40364e-08
1.85897e-06
-7.75961e-08
1.8916e-06
-7.195e-08
1.92286e-06
-6.69848e-08
1.95293e-06
-6.25836e-08
1.98196e-06
-5.86319e-08
2.01006e-06
-5.5023e-08
2.0373e-06
-5.16695e-08
2.06372e-06
-4.85079e-08
2.08932e-06
-4.54953e-08
2.1141e-06
-4.2598e-08
2.13806e-06
-3.98036e-08
2.16116e-06
-3.71263e-08
2.18341e-06
-3.45808e-08
2.20478e-06
-3.21751e-08
2.22528e-06
-2.9914e-08
2.24489e-06
-2.77974e-08
2.26362e-06
-2.58165e-08
2.28149e-06
-2.39589e-08
2.29849e-06
-2.22121e-08
2.31464e-06
-2.05615e-08
2.32995e-06
-1.89881e-08
2.34444e-06
-1.74739e-08
2.35811e-06
-1.60081e-08
2.37097e-06
-1.45846e-08
2.38302e-06
-1.31939e-08
2.39428e-06
-1.18249e-08
2.40478e-06
-1.04659e-08
2.41453e-06
-9.12268e-09
2.42353e-06
-7.78835e-09
2.43179e-06
-6.47309e-09
2.43932e-06
-5.18476e-09
2.44612e-06
-3.92965e-09
2.45221e-06
-2.71088e-09
2.4576e-06
-1.52803e-09
2.46229e-06
-3.8601e-10
2.4663e-06
7.21583e-10
2.46965e-06
1.77592e-09
2.47237e-06
2.77946e-09
2.4745e-06
3.7338e-09
2.47606e-06
4.64292e-09
2.47708e-06
5.51125e-09
2.4776e-06
6.33789e-09
2.47764e-06
7.12513e-09
2.47723e-06
7.87575e-09
2.47641e-06
8.59225e-09
2.47519e-06
9.2797e-09
2.47359e-06
9.94241e-09
2.47165e-06
1.05914e-08
2.46938e-06
1.1234e-08
2.46679e-06
1.18927e-08
2.4639e-06
1.2572e-08
2.46071e-06
1.33138e-08
2.45722e-06
1.41041e-08
2.45342e-06
1.50322e-08
2.44929e-06
1.60281e-08
2.44481e-06
1.73074e-08
2.43995e-06
1.86422e-08
2.43462e-06
2.05824e-08
2.42882e-06
2.24559e-08
2.42237e-06
2.56861e-08
2.41523e-06
2.83869e-08
2.40715e-06
3.42571e-08
2.39786e-06
3.81949e-08
2.38736e-06
4.97544e-08
2.37425e-06
5.56067e-08
2.36033e-06
8.00344e-08
2.3399e-06
8.96025e-08
2.32295e-06
1.43969e-07
1.64879e-07
2.28887e-06
7.58753e-08
-2.9319e-07
1.35356e-07
-3.81746e-07
1.90119e-07
-3.99045e-07
2.4909e-07
-4.14088e-07
3.13728e-07
-4.32014e-07
3.83798e-07
-4.51874e-07
4.59144e-07
-4.72835e-07
5.40005e-07
-4.94281e-07
6.26979e-07
-5.15391e-07
7.20733e-07
-5.34727e-07
8.21341e-07
-5.49533e-07
9.2743e-07
-5.55426e-07
1.036e-06
-5.47091e-07
1.14209e-06
-5.1844e-07
1.23904e-06
-4.63989e-07
1.31886e-06
-3.80091e-07
1.37336e-06
-2.65122e-07
1.39476e-06
-1.23116e-07
1.37672e-06
4.10738e-08
1.31512e-06
2.25279e-07
1.21229e-06
4.0591e-07
1.0741e-06
5.71224e-07
9.11107e-07
7.08033e-07
7.36132e-07
8.04281e-07
5.56294e-07
8.60091e-07
3.5053e-07
8.8293e-07
4.98997e-08
9.08721e-07
-4.46981e-07
1.00251e-06
-1.11315e-06
1.16207e-06
-1.703e-06
1.29584e-06
-2.14471e-06
1.36773e-06
-2.48661e-06
1.39193e-06
-2.74895e-06
1.38601e-06
-2.96073e-06
1.36397e-06
-3.13466e-06
1.32974e-06
-3.29388e-06
1.28176e-06
-3.44858e-06
1.22651e-06
-3.60292e-06
1.16888e-06
-3.76034e-06
1.11073e-06
-3.92069e-06
1.0527e-06
-4.08291e-06
9.94894e-07
-4.24491e-06
9.36883e-07
-4.40408e-06
8.78187e-07
-4.55763e-06
8.17646e-07
-4.70257e-06
7.54205e-07
-4.83587e-06
6.86728e-07
-4.9544e-06
6.14407e-07
-5.05518e-06
5.36708e-07
-5.13553e-06
4.53614e-07
-5.19328e-06
3.65652e-07
-5.22693e-06
2.73919e-07
-5.23587e-06
1.7986e-07
-5.22002e-06
8.47023e-08
-5.17943e-06
-1.0691e-08
-5.11886e-06
-9.971e-08
-5.03883e-06
-1.85915e-07
-4.94228e-06
-2.67009e-07
-4.83285e-06
-3.41693e-07
-4.71417e-06
-4.09433e-07
-4.58951e-06
-4.70025e-07
-4.46143e-06
-5.23414e-07
-4.33168e-06
-5.69373e-07
-4.20106e-06
-6.07374e-07
-4.06948e-06
-6.36428e-07
-3.93643e-06
-6.55009e-07
-3.80161e-06
-6.61239e-07
-3.66581e-06
-6.53459e-07
-3.53155e-06
-6.31337e-07
-3.40256e-06
-5.97412e-07
-3.28203e-06
-5.58001e-07
-3.17052e-06
-5.21818e-07
-3.06528e-06
-4.96925e-07
-2.96124e-06
-4.88218e-07
-2.85269e-06
-4.97201e-07
-2.73441e-06
-5.23363e-07
-2.6017e-06
-5.65259e-07
-2.45029e-06
-6.20494e-07
-2.27744e-06
-6.84004e-07
-2.08218e-06
-7.49392e-07
-1.86633e-06
-8.09218e-07
-1.63489e-06
-8.55734e-07
-1.39524e-06
-8.83153e-07
-1.15456e-06
-8.90971e-07
-9.18846e-07
-8.81367e-07
-6.92582e-07
-8.57352e-07
-4.784e-07
-8.23137e-07
-2.77593e-07
-7.82213e-07
-9.04247e-08
-7.37579e-07
8.37379e-08
-6.91588e-07
2.45064e-07
-6.46502e-07
3.94777e-07
-6.02113e-07
5.33487e-07
-5.59333e-07
6.61892e-07
-5.1849e-07
7.8059e-07
-4.79705e-07
8.90069e-07
-4.43014e-07
9.9075e-07
-4.0842e-07
1.08305e-06
-3.75937e-07
1.16744e-06
-3.45592e-07
1.24448e-06
-3.1742e-07
1.31486e-06
-2.91437e-07
1.37937e-06
-2.67618e-07
1.43881e-06
-2.45876e-07
1.49395e-06
-2.26064e-07
1.54547e-06
-2.0799e-07
1.59386e-06
-1.91454e-07
1.63949e-06
-1.76293e-07
1.68259e-06
-1.62397e-07
1.72334e-06
-1.49711e-07
1.7619e-06
-1.38219e-07
1.79844e-06
-1.27909e-07
1.83316e-06
-1.18755e-07
1.86626e-06
-1.10698e-07
1.89796e-06
-1.03643e-07
1.92843e-06
-9.74626e-08
1.95786e-06
-9.20098e-08
1.98636e-06
-8.7134e-08
2.01403e-06
-8.26918e-08
2.04092e-06
-7.85596e-08
2.06706e-06
-7.46426e-08
2.09244e-06
-7.08775e-08
2.11706e-06
-6.72228e-08
2.14092e-06
-6.36603e-08
2.16399e-06
-6.0199e-08
2.18627e-06
-5.68552e-08
2.20773e-06
-5.36406e-08
2.22838e-06
-5.05655e-08
2.24822e-06
-4.76363e-08
2.26725e-06
-4.4849e-08
2.28549e-06
-4.21942e-08
2.30294e-06
-3.96609e-08
2.31961e-06
-3.7234e-08
2.33552e-06