/*--------------------------------*- C++ -*----------------------------------*\
  =========                 |
  \\      /  F ield         | OpenFOAM: The Open Source CFD Toolbox
   \\    /   O peration     | Website:  https://openfoam.org
    \\  /    A nd           | Version:  7
     \\/     M anipulation  |
\*---------------------------------------------------------------------------*/
FoamFile
{
    version     2.0;
    format      ascii;
    class       volScalarField;
    location    "0.043";
    object      s;
}
// * * * * * * * * * * * * * * * * * * * * * * * * * * * * * * * * * * * * * //

dimensions      [0 0 0 0 0 0 0];

internalField   nonuniform List<scalar> 
12225
(
1
1
1
1
1
1
1
1
1
1
1
1
1
1
1
1
1
1
1
1
1
1
1
1
1
1
1
1
1
1
1
1
1
1
1
1
1
1
1
1
1
1
1
1
1
1
1
1
1
1
1
1
1
1
1
1
1
1
1
1
1
1
1
1
1
1
1
1
1
1
1
1
1
1
1
1
1
1
1
1
1
1
1
1
1
1
1
1
1
1
1
1
1
1
1
1
1
1
1
1
1
1
1
1
1
1
1
1
1
1
1
1
1
1
1
1
1
1
1
1
1
1
1
1
1
1
1
1
1
1
1
1
1
1
1
1
1
1
1
1
1
1
1
1
1
1
1
1
1
1
1
1
1
1
1
1
1
1
1
1
1
1
1
1
1
1
1
1
1
1
1
1
1
1
1
1
1
1
1
1
1
1
1
1
1
1
1
1
1
1
1
1
1
1
1
1
1
1
1
1
1
1
1
1
1
1
1
1
1
1
1
1
1
1
1
1
1
1
1
1
1
1
1
1
1
1
1
1
1
1
1
1
1
1
1
1
1
1
1
1
1
1
1
1
1
1
1
1
1
1
1
1
1
1
1
1
1
1
1
1
1
1
1
1
1
1
1
1
1
1
1
1
1
1
1
1
1
1
1
1
1
1
1
1
1
1
1
1
1
1
1
1
1
1
1
1
1
1
1
1
1
1
1
1
1
1
1
1
1
1
1
1
1
1
1
1
1
1
1
1
1
1
1
1
1
1
1
1
1
1
1
1
1
1
1
1
1
1
1
1
1
1
1
1
1
1
1
1
1
1
1
1
1
1
1
1
1
1
1
1
1
1
1
1
1
1
1
1
1
1
1
1
1
1
1
1
1
1
1
1
1
1
1
1
1
1
1
1
1
1
1
1
1
1
1
1
1
1
1
1
1
1
1
1
1
1
1
1
1
1
1
1
1
1
1
1
1
1
1
1
1
1
1
1
1
1
1
1
1
1
1
1
1
1
1
1
1
1
1
1
1
1
1
1
1
1
1
1
1
1
1
1
1
1
1
1
1
1
1
1
1
1
1
1
1
1
1
1
1
1
1
1
1
1
1
1
1
1
1
1
1
1
1
1
1
1
1
1
1
1
1
1
1
1
1
1
1
1
1
1
1
1
1
1
1
1
1
1
1
1
1
1
1
1
1
1
1
1
1
1
1
1
1
1
1
1
1
1
1
1
1
1
1
1
1
1
1
1
1
1
1.37534e-09
5.44303e-08
3.93565e-07
1.61575e-06
4.98317e-06
1.27941e-05
2.94165e-05
6.12449e-05
0.000124652
0.000224278
0.000357303
0.000493429
0.000666899
0.000789613
0.000915265
0.000946034
0.000922956
0.000859444
0.000730219
0.000614232
0.000512629
0.000419611
0.000336417
0.000259409
0.00018913
0.000125015
7.4088e-05
3.27019e-05
1.19875e-05
5.14024e-05
0.000855792
0.00324124
0.00333904
0.0182018
0.165531
0.368324
0.402563
0.406626
0.406659
0.405268
0.402408
0.398774
0.394882
0.393254
0.392859
0.392757
0.392904
0.393856
0.396483
0.401581
0.409275
0.418744
0.429014
0.44022
0.453334
0.468423
0.481784
0.495916
0.50763
0.518258
0.526085
0.530059
0.531712
0.532147
0.530242
0.522356
0.509425
0.494935
0.480083
0.464149
0.446765
0.430776
0.417303
0.403566
0.390185
0.379113
0.36735
0.35377
0.339355
0.323242
0.304467
0.282564
0.259124
0.233179
0.206285
0.179017
0.152681
0.128749
0.108644
0.0905141
0.0736739
0.0585037
0.0452774
0.0341619
0.0251792
0.0181679
0.0127948
0.00874236
0.00578987
0.00371922
0.00231719
0.00139858
0.000817149
0.000462188
0.000253129
0.000134282
6.90328e-05
3.44093e-05
1.66362e-05
7.80292e-06
3.54925e-06
1.56415e-06
6.66678e-07
2.73962e-07
1.08059e-07
4.06383e-08
1.44054e-08
4.7275e-09
1.36966e-09
3.72222e-10
9.78398e-11
2.49023e-11
6.16339e-12
1.24253e-12
4.10938e-13
1.357e-13
4.50003e-14
1.49288e-14
4.90706e-15
1.58458e-15
5.00784e-16
1.54924e-16
4.70067e-17
1.40134e-17
4.10819e-18
1.18446e-18
3.35781e-19
9.35787e-20
2.56383e-20
6.90651e-21
1.82965e-21
4.76765e-22
1.22216e-22
3.08245e-23
7.64976e-24
1.86823e-24
4.49044e-25
1.06234e-25
2.47391e-26
5.67093e-27
1.27949e-27
2.84081e-28
6.20448e-29
1.33223e-29
2.81014e-30
5.81747e-31
1.18064e-31
2.34627e-32
4.56053e-33
8.66161e-34
1.60616e-34
2.90661e-35
5.13288e-36
8.84851e-37
1.4903e-37
2.45545e-38
3.96439e-39
6.28436e-40
9.8017e-41
1.50695e-41
2.28724e-42
3.42859e-43
5.07472e-44
7.39878e-45
1.06014e-45
1.48315e-46
2.01893e-47
2.63473e-48
3.28754e-49
-8.41471e-49
2.86088e-08
6.89288e-07
4.96185e-06
2.16068e-05
7.04399e-05
0.000187792
0.00043851
0.000953779
0.00183425
0.00310309
0.00450674
0.00610818
0.00764549
0.00864076
0.00949959
0.00946316
0.00921151
0.00860842
0.00732983
0.00584846
0.00437239
0.00305958
0.00200354
0.00120319
0.00064847
0.000366249
0.000233863
9.36805e-05
4.03215e-05
0.000103458
0.00345507
0.0400502
0.122494
0.248299
0.371782
0.458993
0.495947
0.54448
0.597595
0.644195
0.683159
0.721937
0.751105
0.78523
0.806587
0.835389
0.852107
0.875264
0.888418
0.907247
0.916793
0.929962
0.936458
0.94328
0.946393
0.947965
0.949418
0.950612
0.95249
0.953542
0.955064
0.956219
0.957374
0.958534
0.959657
0.960391
0.960816
0.961009
0.960343
0.958252
0.954979
0.95148
0.948336
0.945162
0.941195
0.937707
0.933657
0.929278
0.923629
0.916433
0.907323
0.895866
0.880791
0.862152
0.838633
0.809403
0.773303
0.729222
0.675932
0.616093
0.550857
0.48123
0.408808
0.336149
0.267119
0.207027
0.15996
0.120849
0.0882762
0.0624809
0.043068
0.0289294
0.0188796
0.0119736
0.00738756
0.0044373
0.00259675
0.00148206
0.000825757
0.000449554
0.000239314
0.000124631
6.35123e-05
3.16697e-05
1.54479e-05
7.36792e-06
3.43414e-06
1.56325e-06
6.94663e-07
3.01157e-07
1.27326e-07
5.24926e-08
2.11048e-08
8.2768e-09
3.16717e-09
1.18295e-09
4.31416e-10
1.53671e-10
5.34732e-11
1.81795e-11
6.03876e-12
1.95966e-12
6.2108e-13
1.92176e-13
5.80374e-14
1.70981e-14
4.90867e-15
1.37534e-15
3.78375e-16
1.0224e-16
2.71326e-17
7.07139e-18
1.80977e-18
4.54795e-19
1.12218e-19
2.71865e-20
6.46659e-21
1.51018e-21
3.4627e-22
7.79549e-23
1.72316e-23
3.74007e-24
7.97123e-25
1.66835e-25
3.42921e-26
6.92266e-27
1.37264e-27
2.67351e-28
5.11536e-29
9.61558e-30
1.77586e-30
3.22257e-31
5.74615e-32
1.00681e-32
1.73348e-33
2.93286e-34
4.87571e-35
7.96411e-36
1.27795e-36
2.01427e-37
3.11725e-38
4.73576e-39
7.05622e-40
1.03093e-40
1.47375e-41
2.06147e-42
2.80646e-43
3.72274e-44
4.80357e-45
7.09209e-47
2.24906e-07
4.57634e-06
3.40926e-05
0.000155965
0.000523498
0.00140802
0.00331457
0.00691981
0.0124241
0.0190685
0.0258966
0.0328655
0.037257
0.0388075
0.0403813
0.039157
0.0358011
0.0307958
0.0258228
0.0206118
0.0157119
0.0114513
0.00783808
0.00480996
0.00252105
0.00104412
0.000349858
0.000210114
0.00211904
0.0347484
0.122557
0.27945
0.454694
0.567556
0.650623
0.706331
0.784199
0.828429
0.865439
0.889162
0.91048
0.924055
0.935869
0.945138
0.951414
0.956782
0.95977
0.961951
0.962855
0.963176
0.962744
0.960682
0.958025
0.955287
0.951074
0.947136
0.943909
0.941928
0.940938
0.940763
0.942611
0.946336
0.950369
0.955929
0.961037
0.966403
0.971481
0.976672
0.983365
0.986808
0.98895
0.990647
0.991709
0.992905
0.993419
0.993978
0.994322
0.99497
0.995244
0.995381
0.995599
0.995861
0.995335
0.994723
0.9934
0.991424
0.98848
0.984192
0.978037
0.969267
0.956755
0.938993
0.913875
0.878503
0.829038
0.760799
0.671324
0.568718
0.45957
0.35217
0.258538
0.187261
0.131885
0.0897782
0.0593677
0.0381848
0.0238907
0.0145578
0.0086498
0.00501675
0.00284283
0.00157507
0.000853616
0.000452601
0.000234761
0.000119092
5.90635e-05
2.86255e-05
1.35526e-05
6.26622e-06
2.82891e-06
1.24691e-06
5.36667e-07
2.25592e-07
9.26454e-08
3.71837e-08
1.45901e-08
5.59863e-09
2.10153e-09
7.71827e-10
2.77403e-10
9.75803e-11
3.35969e-11
1.13225e-11
3.73515e-12
1.20614e-12
3.81239e-13
1.17946e-13
3.57125e-14
1.05829e-14
3.06943e-15
8.71371e-16
2.42147e-16
6.58751e-17
1.75451e-17
4.57737e-18
1.17294e-18
2.95462e-19
7.3156e-20
1.78026e-20
4.25767e-21
1.00066e-21
2.31102e-22
5.24463e-23
1.16953e-23
2.56264e-24
5.51759e-25
1.16736e-25
2.42693e-26
4.95819e-27
9.95438e-28
1.964e-28
3.80819e-29
7.25695e-30
1.3591e-30
2.50158e-31
4.52509e-32
8.04427e-33
1.40517e-33
2.41185e-34
4.06614e-35
6.73375e-36
1.09436e-36
1.74604e-37
2.72857e-38
4.18215e-39
6.25123e-40
9.15113e-41
1.2939e-41
1.76471e-42
1.02496e-06
2.08735e-05
0.000160939
0.000750976
0.0025134
0.00666201
0.015296
0.0295114
0.0492482
0.068998
0.0855683
0.0961436
0.0951645
0.0899995
0.0771171
0.060493
0.0464727
0.0359677
0.0294352
0.0217363
0.015205
0.0105895
0.00696664
0.0039872
0.00200246
0.0010233
0.00203329
0.0178781
0.0771357
0.220699
0.482239
0.616436
0.726202
0.785383
0.836905
0.868193
0.892296
0.90359
0.914563
0.919643
0.924144
0.926407
0.927687
0.925991
0.92109
0.913209
0.902711
0.889541
0.874754
0.857232
0.83861
0.818444
0.798944
0.781032
0.766106
0.753426
0.744686
0.740631
0.739305
0.744596
0.758423
0.778714
0.803858
0.834876
0.86289
0.885878
0.904628
0.918211
0.937131
0.952944
0.963754
0.971589
0.975647
0.980885
0.983302
0.985753
0.987126
0.990457
0.992773
0.993782
0.995357
0.997063
0.997751
0.998597
0.998984
0.999241
0.999367
0.99943
0.999365
0.999138
0.998688
0.997892
0.996525
0.994201
0.990275
0.983655
0.972472
0.953513
0.921329
0.867497
0.781745
0.66087
0.52224
0.386026
0.273285
0.189528
0.127198
0.0828545
0.0524931
0.0323778
0.0194642
0.0114144
0.0065338
0.00365181
0.00199299
0.00106191
0.000552253
0.000280223
0.000138691
6.69392e-05
3.15026e-05
1.44562e-05
6.4695e-06
2.82435e-06
1.20321e-06
5.00392e-07
2.0323e-07
8.06375e-08
3.12681e-08
1.18524e-08
4.39298e-09
1.59238e-09
5.64588e-10
1.95827e-10
6.64526e-11
2.2064e-11
7.16826e-12
2.27889e-12
7.08987e-13
2.15867e-13
6.43279e-14
1.87638e-14
5.35792e-15
1.49788e-15
4.10032e-16
1.0992e-16
2.88585e-17
7.42101e-18
1.86972e-18
4.62328e-19
1.12335e-19
2.68206e-20
6.29217e-21
1.45044e-21
3.28523e-22
7.31128e-23
1.59878e-23
3.43523e-24
7.2528e-25
1.50469e-25
3.06756e-26
6.14544e-27
1.20987e-27
2.34078e-28
4.45061e-29
8.31628e-30
1.52711e-30
2.75582e-31
4.88662e-32
8.51447e-33
1.45726e-33
2.45016e-34
4.0434e-35
6.55183e-36
1.0403e-36
1.62052e-37
2.46505e-38
3.6737e-39
5.30947e-40
7.46618e-41
3.34104e-06
7.05354e-05
0.000550256
0.0025444
0.00832553
0.021583
0.0464332
0.0862229
0.132274
0.162147
0.173852
0.167121
0.147842
0.11453
0.0818639
0.0549711
0.0357771
0.0219065
0.0143346
0.0113691
0.00853454
0.0062872
0.00472801
0.0039057
0.00511665
0.0147986
0.0506511
0.154717
0.391147
0.615648
0.73109
0.802593
0.845589
0.868772
0.881358
0.888092
0.891461
0.892789
0.886989
0.87307
0.851257
0.820612
0.785131
0.749414
0.713024
0.684273
0.651205
0.627126
0.602728
0.586174
0.570285
0.562298
0.553673
0.549455
0.545231
0.539416
0.534862
0.530125
0.526552
0.524833
0.524409
0.532516
0.550415
0.582849
0.63939
0.71291
0.777071
0.813269
0.832362
0.858033
0.88136
0.904286
0.915934
0.928957
0.937621
0.94492
0.950973
0.962667
0.971531
0.975463
0.981134
0.988588
0.99163
0.995233
0.997103
0.998386
0.99911
0.999498
0.999704
0.999814
0.999869
0.999896
0.999902
0.999878
0.999792
0.999601
0.999222
0.998433
0.996782
0.993307
0.985937
0.97016
0.935986
0.866772
0.750502
0.596627
0.437574
0.305391
0.207825
0.137028
0.0877513
0.0546485
0.0331242
0.0195516
0.0112405
0.00629424
0.00343234
0.00182232
0.0009418
0.000473741
0.000231937
0.000110535
5.12916e-05
2.31826e-05
1.02103e-05
4.38399e-06
1.83596e-06
7.50251e-07
2.99279e-07
1.16581e-07
4.43604e-08
1.64925e-08
5.99237e-09
2.12816e-09
7.38873e-10
2.50812e-10
8.32503e-11
2.70226e-11
8.57852e-12
2.66369e-12
8.09077e-13
2.40425e-13
6.99053e-14
1.98903e-14
5.53908e-15
1.50999e-15
4.03013e-16
1.05331e-16
2.69623e-17
6.76019e-18
1.66093e-18
4.00625e-19
9.4909e-20
2.20838e-20
5.04717e-21
1.13305e-21
2.49854e-22
5.4123e-23
1.15174e-23
2.4078e-24
4.9454e-25
9.97965e-26
1.9787e-26
3.85488e-27
7.37936e-28
1.38809e-28
2.56563e-29
4.65975e-30
8.31517e-31
1.4579e-31
2.51072e-32
4.24722e-33
7.05246e-34
1.1497e-34
1.83724e-35
2.87964e-36
4.41261e-37
6.62106e-38
9.66807e-39
1.37492e-39
8.65545e-06
0.000182476
0.00138294
0.00613809
0.0194418
0.0489157
0.104751
0.190176
0.248284
0.257563
0.249707
0.223781
0.18022
0.136259
0.0953281
0.0596424
0.035855
0.0225585
0.0162655
0.012872
0.0113974
0.0113086
0.0148373
0.0257776
0.055618
0.129926
0.298149
0.540326
0.710822
0.793391
0.835887
0.856582
0.865577
0.869459
0.870852
0.857837
0.830677
0.78276
0.735741
0.684278
0.642525
0.606329
0.586936
0.565312
0.55435
0.544575
0.539196
0.536555
0.535664
0.536681
0.539979
0.543881
0.548837
0.551478
0.552458
0.551315
0.547294
0.542484
0.534031
0.522536
0.507817
0.494749
0.488043
0.486536
0.493045
0.516919
0.559636
0.638998
0.693209
0.716231
0.726292
0.738829
0.76042
0.789517
0.817669
0.836168
0.860273
0.892395
0.920816
0.934144
0.946986
0.967174
0.976319
0.985478
0.991039
0.994743
0.997014
0.998372
0.999143
0.999559
0.999774
0.999882
0.999933
0.99996
0.999973
0.999979
0.999979
0.99997
0.999934
0.999838
0.999591
0.998961
0.997347
0.993209
0.982597
0.955391
0.885543
0.749137
0.578375
0.412428
0.283226
0.188537
0.121638
0.0761483
0.0462804
0.0273133
0.015653
0.00871055
0.00470649
0.00246929
0.00125817
0.000622773
0.000299584
0.00014013
6.37689e-05
2.82494e-05
1.21894e-05
5.12585e-06
2.1017e-06
8.40601e-07
3.28084e-07
1.24996e-07
4.64986e-08
1.68933e-08
5.99527e-09
2.0787e-09
7.04249e-10
2.3317e-10
7.54547e-11
2.38683e-11
7.38141e-12
2.23202e-12
6.60033e-13
1.90902e-13
5.40141e-14
1.49533e-14
4.05114e-15
1.07428e-15
2.78898e-16
7.09006e-17
1.76525e-17
4.30593e-18
1.03075e-18
2.42231e-19
5.58883e-20
1.26608e-20
2.81633e-21
6.15202e-22
1.31976e-22
2.78064e-23
5.75437e-24
1.16972e-24
2.33573e-25
4.5819e-26
8.83012e-27
1.67188e-27
3.11001e-28
5.68389e-29
1.02052e-29
1.80008e-30
3.11854e-31
5.30632e-32
8.86308e-33
1.45319e-33
2.33628e-34
3.68325e-35
5.68219e-36
8.58144e-37
1.26428e-37
1.81574e-38
1.79869e-05
0.000324514
0.00236372
0.0105429
0.033939
0.0878949
0.193904
0.314877
0.347985
0.352844
0.346551
0.318754
0.273123
0.214248
0.155266
0.108583
0.0765204
0.059016
0.0492571
0.0460164
0.0500953
0.0651558
0.0986
0.166859
0.306917
0.490594
0.668647
0.768574
0.821324
0.84415
0.852733
0.855199
0.853133
0.834698
0.794521
0.726261
0.667531
0.625062
0.595169
0.571809
0.559651
0.553357
0.551461
0.551166
0.556173
0.562561
0.575584
0.588334
0.599423
0.609981
0.618607
0.622727
0.624394
0.624756
0.626939
0.628892
0.631395
0.634434
0.6358
0.636275
0.631484
0.61865
0.593278
0.556405
0.516934
0.495187
0.489109
0.507372
0.533449
0.56552
0.581971
0.586371
0.582134
0.578367
0.58135
0.618648
0.662438
0.739403
0.818772
0.864382
0.888199
0.926016
0.949495
0.968376
0.980483
0.988243
0.99307
0.99604
0.99784
0.998878
0.999425
0.999706
0.99985
0.999923
0.999961
0.99998
0.999989
0.999993
0.999995
0.999994
0.999991
0.999975
0.999923
0.999763
0.999277
0.997815
0.993477
0.980794
0.944263
0.842186
0.66889
0.487522
0.337062
0.225328
0.145572
0.0909629
0.054997
0.0321809
0.0182275
0.00999644
0.00531031
0.00273387
0.00136487
0.000661255
0.000311128
0.000142274
6.32773e-05
2.739e-05
1.15458e-05
4.74209e-06
1.8986e-06
7.41286e-07
2.82339e-07
1.04933e-07
3.8064e-08
1.34795e-08
4.66086e-09
1.57388e-09
5.19106e-10
1.6726e-10
5.26565e-11
1.61996e-11
4.8711e-12
1.43185e-12
4.11531e-13
1.15671e-13
3.18025e-14
8.55464e-15
2.25188e-15
5.80217e-16
1.46364e-16
3.61556e-17
8.75264e-18
2.07897e-18
4.8459e-19
1.10858e-19
2.48925e-20
5.48689e-21
1.18736e-21
2.52281e-22
5.2634e-23
1.07838e-23
2.16985e-24
4.28825e-25
8.32425e-26
1.58727e-26
2.97308e-27
5.4705e-28
9.88756e-29
1.75546e-29
3.06094e-30
5.2415e-31
8.81094e-32
1.45377e-32
2.35258e-33
3.73313e-34
5.80093e-35
8.82523e-36
1.31208e-36
1.90401e-37
2.1858e-05
0.000383941
0.00284169
0.0130076
0.0431833
0.113479
0.244399
0.386328
0.431346
0.441485
0.443106
0.438014
0.411799
0.36534
0.317171
0.270698
0.223684
0.201574
0.192708
0.200121
0.231008
0.300185
0.398854
0.525897
0.647097
0.744972
0.805207
0.833042
0.843957
0.846467
0.845262
0.829395
0.789718
0.708207
0.653607
0.602649
0.577628
0.560342
0.551888
0.548426
0.548018
0.553532
0.557985
0.567162
0.577484
0.586864
0.591726
0.594379
0.595385
0.594964
0.588243
0.581364
0.577218
0.575976
0.581633
0.591186
0.598905
0.614592
0.629946
0.640199
0.650747
0.655439
0.65666
0.649593
0.636624
0.601472
0.539587
0.510064
0.498902
0.496997
0.511246
0.53137
0.536801
0.524282
0.49987
0.489696
0.490499
0.533864
0.648062
0.764465
0.812017
0.860123
0.907674
0.943753
0.966952
0.980506
0.988482
0.993223
0.996064
0.997777
0.998834
0.999428
0.999726
0.999864
0.99993
0.999963
0.999981
0.99999
0.999995
0.999997
0.999998
0.999998
0.999998
0.999993
0.999975
0.99991
0.999684
0.998919
0.996398
0.988328
0.963126
0.886076
0.712209
0.521688
0.360852
0.240262
0.154039
0.095175
0.0567079
0.0326035
0.0181006
0.0097115
0.00504013
0.0025327
0.0012335
0.000582818
0.000267396
0.000119224
5.16986e-05
2.18164e-05
8.96428e-06
3.58826e-06
1.39979e-06
5.32361e-07
1.97442e-07
7.14299e-08
2.52131e-08
8.68503e-09
2.92012e-09
9.58517e-10
3.07221e-10
9.61696e-11
2.94068e-11
8.7856e-12
2.56508e-12
7.32043e-13
2.04257e-13
5.57348e-14
1.48762e-14
3.88492e-15
9.92894e-16
2.48405e-16
6.08573e-17
1.46181e-17
3.44412e-18
7.96047e-19
1.80524e-19
4.01719e-20
8.7733e-21
1.88065e-21
3.95741e-22
8.17561e-23
1.65837e-23
3.3032e-24
6.46125e-25
1.24125e-25
2.34198e-26
4.34013e-27
7.89976e-28
1.41225e-28
2.4794e-29
4.27446e-30
7.23428e-31
1.20172e-31
1.95829e-32
3.12945e-33
4.90012e-34
7.51461e-35
1.12765e-35
1.6539e-36
2.01877e-05
0.000385642
0.00296216
0.0137614
0.0459918
0.12071
0.255264
0.419133
0.490586
0.513858
0.520761
0.521192
0.515604
0.502375
0.476107
0.456849
0.447237
0.442843
0.450513
0.477861
0.534206
0.586907
0.666835
0.739831
0.794544
0.824807
0.838747
0.842957
0.842133
0.83349
0.804256
0.735939
0.654164
0.612823
0.572614
0.553186
0.544352
0.54083
0.540164
0.542567
0.547861
0.55475
0.56085
0.566134
0.568436
0.564456
0.546828
0.515774
0.470191
0.439755
0.415181
0.404507
0.40126
0.406715
0.420363
0.439836
0.460616
0.483982
0.509703
0.537744
0.573584
0.608363
0.636506
0.651528
0.654507
0.644111
0.616834
0.568796
0.526233
0.495017
0.480201
0.47249
0.485529
0.502881
0.490543
0.466335
0.450397
0.458128
0.510278
0.64337
0.711077
0.751921
0.828084
0.897638
0.944865
0.971701
0.985167
0.991807
0.99531
0.997292
0.998434
0.999121
0.999538
0.999776
0.999896
0.999952
0.999976
0.999988
0.999994
0.999997
0.999998
0.999999
0.999999
0.999999
0.999999
0.999996
0.999985
0.999942
0.999777
0.99918
0.99709
0.990027
0.966857
0.892631
0.711299
0.513554
0.35157
0.230652
0.145208
0.0878362
0.0511142
0.0286508
0.015489
0.00808671
0.00408269
0.00199563
0.000945507
0.000434652
0.000194044
8.41935e-05
3.55274e-05
1.45883e-05
5.83189e-06
2.2707e-06
8.61418e-07
3.18497e-07
1.14804e-07
4.03535e-08
1.3835e-08
4.62752e-09
1.51039e-09
4.81171e-10
1.4965e-10
4.54486e-11
1.34815e-11
3.90697e-12
1.10645e-12
3.06291e-13
8.29004e-14
2.19442e-14
5.68256e-15
1.43993e-15
3.57151e-16
8.67863e-17
2.06751e-17
4.82977e-18
1.10652e-18
2.4867e-19
5.48257e-20
1.18607e-20
2.51805e-21
5.24694e-22
1.07323e-22
2.15512e-23
4.24902e-24
8.22595e-25
1.56384e-25
2.91964e-26
5.35309e-27
9.63869e-28
1.70428e-28
2.95893e-29
5.04335e-30
8.43735e-31
1.38496e-31
2.22976e-32
3.51918e-33
5.44238e-34
8.2439e-35
1.22215e-35
9.36501e-06
0.000235105
0.0020801
0.0106869
0.0383043
0.106251
0.239157
0.429191
0.529029
0.565215
0.586837
0.602197
0.602625
0.599609
0.599957
0.600104
0.597464
0.606042
0.636592
0.662327
0.703047
0.749629
0.789039
0.821714
0.837147
0.843636
0.845194
0.839532
0.826287
0.787165
0.701528
0.630899
0.589281
0.563446
0.544916
0.538027
0.535465
0.534814
0.535405
0.54002
0.546148
0.549824
0.550633
0.541303
0.513774
0.456642
0.403453
0.355127
0.330561
0.309751
0.300786
0.297935
0.303786
0.320518
0.341729
0.367647
0.399645
0.426133
0.450687
0.474756
0.496164
0.521212
0.551792
0.599826
0.637525
0.650703
0.645048
0.596443
0.542865
0.502642
0.473565
0.450203
0.431767
0.424944
0.431602
0.438405
0.433763
0.433968
0.46217
0.541376
0.57154
0.597482
0.681066
0.795704
0.886735
0.944663
0.975273
0.988859
0.994579
0.997135
0.998397
0.999069
0.999477
0.99972
0.999858
0.999932
0.999969
0.999986
0.999993
0.999997
0.999998
0.999999
1
1
1
1
0.999999
0.999997
0.999986
0.999941
0.999765
0.999103
0.996717
0.988403
0.960248
0.866871
0.662651
0.465977
0.311769
0.199292
0.121985
0.0716346
0.0404333
0.0219749
0.011519
0.00583289
0.00285721
0.0013556
0.000623628
0.000278436
0.000120747
5.08942e-05
2.08619e-05
8.32042e-06
3.23018e-06
1.22113e-06
4.49667e-07
1.61342e-07
5.64228e-08
1.92364e-08
6.39546e-09
2.07399e-09
6.56209e-10
2.02624e-10
6.10762e-11
1.79764e-11
5.16781e-12
1.45147e-12
3.98415e-13
1.06909e-13
2.80528e-14
7.20019e-15
1.80823e-15
4.44626e-16
1.0713e-16
2.52995e-17
5.85714e-18
1.32959e-18
2.96003e-19
6.46391e-20
1.38481e-20
2.91109e-21
6.00553e-22
1.21602e-22
2.41701e-23
4.71639e-24
9.03602e-25
1.69985e-25
3.14e-26
5.69561e-27
1.01445e-27
1.77408e-28
3.04589e-29
5.1331e-30
8.48906e-31
1.37729e-31
2.19147e-32
3.41846e-33
5.22718e-34
7.83201e-35
3.27261e-06
9.42411e-05
0.0010381
0.00625296
0.0252108
0.0762211
0.185047
0.370277
0.54701
0.60505
0.625497
0.641443
0.67525
0.686239
0.686036
0.687915
0.701681
0.717537
0.734677
0.762858
0.793591
0.821356
0.838204
0.847032
0.849908
0.85005
0.841715
0.824602
0.781258
0.699125
0.624508
0.5799
0.557036
0.538277
0.529329
0.526557
0.526194
0.527423
0.530597
0.534324
0.536423
0.529867
0.505558
0.456633
0.391632
0.339035
0.293387
0.258704
0.232942
0.212702
0.202973
0.199232
0.202169
0.218229
0.243916
0.280404
0.330396
0.384088
0.420719
0.451135
0.472967
0.497221
0.523987
0.5495
0.587316
0.638722
0.658999
0.65594
0.589888
0.513608
0.469677
0.445638
0.426407
0.414022
0.410521
0.411159
0.414097
0.42252
0.449392
0.497916
0.517521
0.54815
0.621524
0.737574
0.839257
0.911385
0.955997
0.98048
0.991981
0.996661
0.998448
0.999204
0.999534
0.999727
0.999853
0.999926
0.999964
0.999984
0.999993
0.999997
0.999998
0.999999
1
1
1
1
1
1
0.999999
0.999995
0.999979
0.999913
0.999652
0.998658
0.995015
0.982055
0.93706
0.789991
0.569364
0.386676
0.249994
0.154298
0.0911602
0.0516799
0.0281749
0.0148007
0.00750486
0.00367875
0.00174551
0.00080259
0.000357947
0.000154969
6.51718e-05
2.6639e-05
1.05885e-05
4.09444e-06
1.54089e-06
5.64566e-07
2.0145e-07
7.00261e-08
2.37204e-08
7.83215e-09
2.52152e-09
7.91759e-10
2.42551e-10
7.25143e-11
2.11636e-11
6.03169e-12
1.67922e-12
4.56808e-13
1.21467e-13
3.15803e-14
8.03065e-15
1.99847e-15
4.87084e-16
1.16303e-16
2.72127e-17
6.24081e-18
1.40313e-18
3.09336e-19
6.6885e-20
1.41864e-20
2.95212e-21
6.02821e-22
1.20808e-22
2.37638e-23
4.58878e-24
8.69919e-25
1.61917e-25
2.95905e-26
5.30963e-27
9.35436e-28
1.61797e-28
2.74712e-29
4.57793e-30
7.48592e-31
1.20097e-31
1.88981e-32
2.91701e-33
4.41656e-34
3.65383e-06
2.35554e-05
0.000360137
0.00269262
0.0129155
0.0447092
0.120938
0.26638
0.476859
0.616295
0.666345
0.687064
0.699498
0.722347
0.746145
0.753393
0.759004
0.777812
0.800404
0.816085
0.835432
0.849278
0.854415
0.855966
0.855313
0.84719
0.826959
0.787316
0.716713
0.633863
0.583954
0.559109
0.545137
0.531499
0.524512
0.521668
0.520701
0.520989
0.521333
0.518327
0.509344
0.483827
0.439849
0.378398
0.31844
0.264275
0.216267
0.183852
0.156437
0.14025
0.132724
0.130353
0.136155
0.147126
0.165343
0.19388
0.233232
0.292934
0.366721
0.419571
0.44935
0.479795
0.515902
0.545606
0.570792
0.605399
0.656556
0.681654
0.680838
0.618335
0.515357
0.458528
0.438581
0.431392
0.434639
0.437554
0.436975
0.438952
0.459559
0.493962
0.520188
0.556114
0.624958
0.733509
0.832495
0.90438
0.949963
0.975872
0.989159
0.995431
0.998167
0.999248
0.999667
0.999827
0.999895
0.999938
0.999967
0.999984
0.999993
0.999997
0.999999
0.999999
1
1
1
1
1
1
1
1
0.999998
0.999991
0.999959
0.99983
0.999316
0.99735
0.990046
0.963608
0.869871
0.649759
0.446107
0.29047
0.180125
0.106744
0.060628
0.0330867
0.0173868
0.0088141
0.00431721
0.00204582
0.000938968
0.000417788
0.000180353
7.55865e-05
3.07729e-05
1.21763e-05
4.68468e-06
1.75322e-06
6.38479e-07
2.26341e-07
7.8132e-08
2.62717e-08
8.60762e-09
2.74886e-09
8.55936e-10
2.59952e-10
7.70293e-11
2.2278e-11
6.29082e-12
1.73499e-12
4.67516e-13
1.23127e-13
3.17041e-14
7.98539e-15
1.9689e-15
4.75374e-16
1.12422e-16
2.60491e-17
5.9151e-18
1.31663e-18
2.8734e-19
6.14962e-20
1.29095e-20
2.65862e-21
5.37236e-22
1.06537e-22
2.07359e-23
3.96169e-24
7.43044e-25
1.36822e-25
2.47353e-26
4.39042e-27
7.65083e-28
1.30886e-28
2.198e-29
3.62283e-30
5.86044e-31
9.30268e-32
1.44935e-32
2.21697e-33
8.43392e-05
2.53101e-06
7.45437e-05
0.000786148
0.00474308
0.0197164
0.0620186
0.15695
0.327631
0.551816
0.660959
0.705922
0.731976
0.753185
0.774203
0.794696
0.804928
0.811571
0.827389
0.845385
0.857104
0.862502
0.86373
0.863136
0.858508
0.846984
0.819551
0.767388
0.691159
0.612675
0.566171
0.544791
0.533573
0.524721
0.519401
0.515727
0.511826
0.509354
0.508284
0.500961
0.477227
0.437382
0.380458
0.315691
0.254561
0.204074
0.164925
0.136973
0.119846
0.111383
0.107597
0.106494
0.112432
0.123896
0.139943
0.164972
0.198002
0.248028
0.31835
0.388883
0.430354
0.453205
0.496428
0.551917
0.58302
0.599359
0.622832
0.671532
0.693577
0.688502
0.651722
0.557498
0.500116
0.498398
0.527424
0.560925
0.57051
0.569736
0.575277
0.594484
0.637166
0.695096
0.764907
0.832614
0.888637
0.929778
0.95843
0.977491
0.989085
0.995172
0.997979
0.999186
0.999684
0.999876
0.999947
0.999973
0.999984
0.99999
0.999995
0.999997
0.999999
0.999999
1
1
1
1
1
1
1
1
1
0.999999
0.999995
0.999976
0.999896
0.999569
0.998266
0.993242
0.974389
0.905375
0.703589
0.484382
0.316195
0.196304
0.116349
0.0660479
0.0360069
0.0188937
0.00956002
0.00467181
0.00220777
0.00101003
0.000447736
0.000192465
8.02804e-05
3.25125e-05
1.27907e-05
4.89041e-06
1.81795e-06
6.57325e-07
2.3126e-07
7.91956e-08
2.64083e-08
8.57773e-09
2.71491e-09
8.37625e-10
2.52007e-10
7.39616e-11
2.11833e-11
5.92293e-12
1.61732e-12
4.31452e-13
1.12487e-13
2.86756e-14
7.15253e-15
1.74621e-15
4.17406e-16
9.77177e-17
2.2411e-17
5.03661e-18
1.10946e-18
2.39598e-19
5.07397e-20
1.05389e-20
2.1474e-21
4.2931e-22
8.4225e-23
1.62174e-23
3.0651e-24
5.68685e-25
1.03584e-25
1.85238e-26
3.25229e-27
5.60611e-28
9.48737e-29
1.57619e-29
2.57083e-30
4.11638e-31
6.47235e-32
9.99948e-33
0.0013134
3.9538e-05
1.11074e-05
0.000147001
0.00121606
0.00634411
0.0241491
0.0719973
0.175907
0.360085
0.589379
0.691226
0.733045
0.760703
0.78632
0.809588
0.829244
0.840751
0.848219
0.859415
0.867366
0.870093
0.870631
0.86984
0.864743
0.850582
0.824415
0.773633
0.698348
0.619612
0.568467
0.544645
0.531258
0.521606
0.515423
0.508886
0.501148
0.489507
0.478267
0.466098
0.444013
0.401742
0.350534
0.294664
0.241059
0.1933
0.157819
0.131761
0.116351
0.106967
0.0997509
0.100098
0.104868
0.116383
0.132536
0.156807
0.188067
0.233841
0.302259
0.376599
0.424525
0.446712
0.471435
0.537142
0.595564
0.614575
0.617674
0.624615
0.659713
0.67962
0.677581
0.648363
0.604337
0.596367
0.608712
0.645454
0.687569
0.710274
0.722382
0.734606
0.755821
0.792238
0.845493
0.900678
0.94359
0.970211
0.984407
0.991479
0.995099
0.997253
0.99859
0.999335
0.999715
0.999891
0.999961
0.999985
0.999994
0.999997
0.999998
0.999999
0.999999
1
1
1
1
1
1
1
1
1
1
1
0.999999
0.999996
0.999983
0.999923
0.999669
0.998624
0.994463
0.978385
0.918025
0.726512
0.499832
0.325754
0.201796
0.119294
0.0675255
0.0366988
0.0191926
0.00967608
0.00470977
0.00221601
0.00100895
0.00044491
0.000190159
7.88292e-05
3.1713e-05
1.23878e-05
4.70072e-06
1.73357e-06
6.2159e-07
2.16786e-07
7.35688e-08
2.43032e-08
7.81831e-09
2.45027e-09
7.4841e-10
2.22877e-10
6.4739e-11
1.83491e-11
5.07679e-12
1.37169e-12
3.62065e-13
9.34072e-14
2.35673e-14
5.81755e-15
1.40546e-15
3.32418e-16
7.69963e-17
1.74703e-17
3.88415e-18
8.46386e-19
1.8081e-19
3.78755e-20
7.78156e-21
1.56832e-21
3.10125e-22
6.01794e-23
1.14611e-23
2.14254e-24
3.93188e-25
7.08389e-26
1.25307e-26
2.17631e-27
3.7114e-28
6.21474e-29
1.02196e-29
1.65037e-30
2.61835e-31
4.08456e-32
0.0087807
0.000478416
4.44235e-05
2.71473e-05
0.000204251
0.00140175
0.00660008
0.0237333
0.0689999
0.16743
0.34809
0.587678
0.706051
0.754067
0.783219
0.807582
0.829494
0.846877
0.858579
0.867442
0.873766
0.875708
0.875844
0.875079
0.871923
0.86153
0.839521
0.795511
0.726269
0.645336
0.583493
0.551154
0.533829
0.522687
0.515866
0.508758
0.500869
0.487282
0.470158
0.450355
0.428494
0.399934
0.354447
0.302215
0.251476
0.204381
0.168473
0.141371
0.124971
0.114801
0.109155
0.110415
0.115037
0.124468
0.142161
0.169291
0.203047
0.244872
0.30701
0.376502
0.427157
0.448558
0.468048
0.516716
0.588307
0.617985
0.618949
0.599183
0.57959
0.588697
0.609429
0.623298
0.62042
0.620703
0.626499
0.646169
0.692429
0.723508
0.737279
0.745073
0.75736
0.783505
0.833716
0.896473
0.944762
0.973615
0.988333
0.995081
0.99798
0.999162
0.99963
0.999822
0.999908
0.999952
0.999978
0.999991
0.999997
0.999999
0.999999
1
1
1
1
1
1
1
1
1
1
1
1
1
1
0.999999
0.999997
0.999985
0.999932
0.999697
0.998702
0.994634
0.978568
0.917205
0.721911
0.494265
0.320497
0.197513
0.116159
0.0654131
0.0353667
0.0183979
0.00922433
0.00446384
0.00208739
0.000944185
0.000413469
0.000175424
7.2157e-05
2.87919e-05
1.11505e-05
4.19341e-06
1.53211e-06
5.44068e-07
1.87867e-07
6.31052e-08
2.06294e-08
6.56601e-09
2.03562e-09
6.14982e-10
1.81128e-10
5.20296e-11
1.4583e-11
3.98982e-12
1.06599e-12
2.78257e-13
7.10039e-14
1.77188e-14
4.32577e-15
1.03352e-15
2.41739e-16
5.53708e-17
1.24237e-17
2.73135e-18
5.88541e-19
1.24324e-19
2.57524e-20
5.23186e-21
1.04269e-21
2.03892e-22
3.91257e-23
7.36895e-24
1.36235e-24
2.47265e-25
4.4063e-26
7.71006e-27
1.32484e-27
2.23573e-28
3.70604e-29
6.03512e-30
9.65887e-31
1.5209e-31
0.0214426
0.00291802
0.000253839
4.8455e-05
4.65964e-05
0.000219384
0.00129088
0.0056561
0.0195547
0.0558761
0.135675
0.286976
0.521091
0.689744
0.760119
0.796256
0.822245
0.843186
0.857717
0.867406
0.874331
0.877743
0.879054
0.878943
0.877579
0.872555
0.860026
0.832895
0.776439
0.703746
0.634681
0.581787
0.547848
0.529424
0.519592
0.51106
0.503443
0.491135
0.473964
0.452844
0.430626
0.405592
0.370003
0.328036
0.284604
0.242152
0.205827
0.175239
0.15597
0.14279
0.1384
0.140336
0.146444
0.159605
0.179359
0.214262
0.25792
0.310016
0.37997
0.43184
0.459709
0.47133
0.481113
0.512283
0.584596
0.618085
0.619015
0.595662
0.54976
0.521277
0.508018
0.509353
0.52451
0.554655
0.589798
0.611226
0.641422
0.673979
0.684438
0.676316
0.657174
0.657244
0.698592
0.814155
0.908656
0.960483
0.984372
0.994195
0.99793
0.99928
0.999754
0.999916
0.999971
0.999989
0.999995
0.999998
0.999999
1
1
1
1
1
1
1
1
1
1
1
1
1
1
1
1
1
0.999999
0.999997
0.999986
0.999932
0.999687
0.998624
0.994178
0.976311
0.90721
0.698539
0.474496
0.305267
0.18669
0.108987
0.0609341
0.03271
0.0168929
0.00840687
0.00403693
0.00187262
0.000839944
0.000364605
0.000153282
6.24516e-05
2.4674e-05
9.4584e-06
3.51968e-06
1.27206e-06
4.46724e-07
1.52511e-07
5.06408e-08
1.6362e-08
5.1465e-09
1.57664e-09
4.70648e-10
1.36964e-10
3.8874e-11
1.07659e-11
2.91052e-12
7.68516e-13