/*--------------------------------*- C++ -*----------------------------------*\
  =========                 |
  \\      /  F ield         | OpenFOAM: The Open Source CFD Toolbox
   \\    /   O peration     | Website:  https://openfoam.org
    \\  /    A nd           | Version:  7
     \\/     M anipulation  |
\*---------------------------------------------------------------------------*/
FoamFile
{
    version     2.0;
    format      ascii;
    class       volVectorField;
    location    "0.043";
    object      UMean;
}
// * * * * * * * * * * * * * * * * * * * * * * * * * * * * * * * * * * * * * //

dimensions      [0 1 -1 0 0 0 0];

internalField   nonuniform List<vector> 
12225
(
(4.77812 0.164318 0)
(4.18803 0.110788 0)
(3.73242 0.0969963 0)
(3.36971 0.0800534 0)
(3.04691 0.0663739 0)
(2.75049 0.0561813 0)
(2.48144 0.0472127 0)
(2.24361 0.0388679 0)
(2.04053 0.0300339 0)
(1.8711 0.022626 0)
(1.73747 0.0141 0)
(1.63207 0.00962996 0)
(1.55994 0.000535847 0)
(1.50634 0.00237356 0)
(1.48104 -0.012267 0)
(1.46815 0.00302453 0)
(1.47961 -0.0333798 0)
(1.51406 0.00225738 0)
(5.02241 0.112794 0)
(4.87966 0.0725293 0)
(4.76477 0.0879296 0)
(4.67836 0.0867248 0)
(4.58991 0.0842127 0)
(4.49205 0.0832179 0)
(4.38669 0.0819638 0)
(4.28026 0.0783624 0)
(4.17515 0.0733796 0)
(4.07718 0.0654093 0)
(3.98426 0.0580086 0)
(3.90423 0.0469723 0)
(3.82865 0.0402585 0)
(3.77217 0.0268032 0)
(3.71402 0.0239849 0)
(3.68455 0.0050674 0)
(3.64406 0.00340554 0)
(3.64009 -0.0371747 0)
(4.99674 0.172166 0)
(4.88039 0.121554 0)
(4.80309 0.128502 0)
(4.77363 0.121895 0)
(4.76036 0.113504 0)
(4.74775 0.108651 0)
(4.73337 0.10469 0)
(4.71794 0.100048 0)
(4.70204 0.0928335 0)
(4.68525 0.0849497 0)
(4.66812 0.074114 0)
(4.65024 0.0651235 0)
(4.63384 0.0520221 0)
(4.61772 0.0445957 0)
(4.6063 0.0291141 0)
(4.5957 0.0224191 0)
(4.59348 -0.000113241 0)
(4.58806 -0.024469 0)
(4.99727 0.188093 0)
(4.90345 0.118823 0)
(4.82724 0.11648 0)
(4.79329 0.11115 0)
(4.78156 0.102675 0)
(4.77618 0.0968458 0)
(4.77344 0.0932302 0)
(4.77373 0.0889659 0)
(4.7769 0.0833884 0)
(4.78198 0.0757397 0)
(4.78795 0.0675458 0)
(4.79409 0.0576078 0)
(4.8007 0.0484202 0)
(4.80742 0.0371156 0)
(4.81638 0.0270158 0)
(4.82563 0.0128733 0)
(4.83969 -0.00409385 0)
(4.85001 -0.02849 0)
(4.99592 0.214369 0)
(4.92543 0.143403 0)
(4.85751 0.133208 0)
(4.82217 0.127196 0)
(4.8089 0.11664 0)
(4.8029 0.107502 0)
(4.79961 0.100738 0)
(4.79924 0.0945318 0)
(4.80227 0.0870603 0)
(4.8079 0.0785346 0)
(4.8154 0.068658 0)
(4.82383 0.0585538 0)
(4.83338 0.047389 0)
(4.84367 0.03617 0)
(4.85573 0.023469 0)
(4.86877 0.00863854 0)
(4.88379 -0.00935355 0)
(4.89673 -0.0354983 0)
(4.9897 0.228479 0)
(4.93866 0.15642 0)
(4.881 0.137362 0)
(4.84675 0.12916 0)
(4.83306 0.117544 0)
(4.8276 0.106366 0)
(4.82483 0.0977497 0)
(4.8244 0.0902558 0)
(4.82692 0.0822928 0)
(4.83197 0.0731656 0)
(4.83891 0.0631258 0)
(4.84688 0.0522879 0)
(4.85598 0.0409223 0)
(4.86574 0.0287337 0)
(4.87699 0.0153293 0)
(4.88866 -0.000176943 0)
(4.90141 -0.0191464 0)
(4.91185 -0.0427566 0)
(4.99368 0.244547 0)
(4.95643 0.173999 0)
(4.90739 0.147779 0)
(4.87385 0.136446 0)
(4.85875 0.123843 0)
(4.85298 0.111081 0)
(4.8505 0.100404 0)
(4.85014 0.0912754 0)
(4.85234 0.0821278 0)
(4.85689 0.0721802 0)
(4.86332 0.0614009 0)
(4.8708 0.04994 0)
(4.87934 0.0378847 0)
(4.88837 0.0248958 0)
(4.8985 0.0107919 0)
(4.90843 -0.0054699 0)
(4.91888 -0.0241652 0)
(4.92651 -0.0463133 0)
(5.00159 0.253754 0)
(4.97568 0.187365 0)
(4.93574 0.15598 0)
(4.90521 0.140896 0)
(4.89023 0.127259 0)
(4.88462 0.113313 0)
(4.88243 0.100893 0)
(4.88189 0.0901197 0)
(4.88338 0.0798642 0)
(4.887 0.0691699 0)
(4.89253 0.0577849 0)
(4.89918 0.0457314 0)
(4.90691 0.0330501 0)
(4.91502 0.0195003 0)
(4.92397 0.00482445 0)
(4.93236 -0.0115648 0)
(4.94093 -0.0298458 0)
(4.94652 -0.0504721 0)
(5.00131 0.261156 0)
(4.98532 0.199874 0)
(4.95444 0.165093 0)
(4.92764 0.146088 0)
(4.91308 0.130975 0)
(4.90756 0.116088 0)
(4.90594 0.102326 0)
(4.90602 0.0901034 0)
(4.90779 0.0786575 0)
(4.91137 0.067076 0)
(4.91665 0.0549571 0)
(4.92292 0.042193 0)
(4.93002 0.0288526 0)
(4.93722 0.0147539 0)
(4.94481 -0.000233692 0)
(4.95161 -0.0165257 0)
(4.95824 -0.0341375 0)
(4.96229 -0.0532353 0)
(4.99652 0.267912 0)
(4.98694 0.210896 0)
(4.96338 0.174134 0)
(4.94079 0.151801 0)
(4.92763 0.134876 0)
(4.92266 0.118917 0)
(4.92173 0.103857 0)
(4.92248 0.0901641 0)
(4.92464 0.0774609 0)
(4.92833 0.0650123 0)
(4.93345 0.0523271 0)
(4.93937 0.0391919 0)
(4.94581 0.0255473 0)
(4.95215 0.0112463 0)
(4.95853 -0.00381689 0)
(4.96403 -0.0198572 0)
(4.96911 -0.0368178 0)
(4.97207 -0.0546533 0)
(4.98843 0.270223 0)
(4.98324 0.217644 0)
(4.96484 0.180152 0)
(4.94554 0.155127 0)
(4.93339 0.136233 0)
(4.92844 0.119248 0)
(4.92752 0.103282 0)
(4.92834 0.0884829 0)
(4.93033 0.0747062 0)
(4.93352 0.0613896 0)
(4.938 0.0480568 0)
(4.94327 0.0344526 0)
(4.94912 0.0204876 0)
(4.9548 0.00606625 0)
(4.96051 -0.00887779 0)
(4.9652 -0.024458 0)
(4.96962 -0.0405863 0)
(4.97187 -0.0571778 0)
(5.01004 0.27482 0)
(5.00651 0.225869 0)
(4.99175 0.188291 0)
(4.9753 0.161246 0)
(4.96424 0.14047 0)
(4.95927 0.122349 0)
(4.95807 0.10547 0)
(4.95859 0.0896835 0)
(4.96011 0.0748772 0)
(4.96252 0.0607023 0)
(4.96594 0.0467552 0)
(4.96997 0.0327359 0)
(4.97453 0.0185048 0)
(4.97891 0.00396362 0)
(4.98336 -0.010924 0)
(4.98676 -0.0261997 0)
(4.99008 -0.0417561 0)
(4.99129 -0.0574778 0)
(5.00106 0.276461 0)
(5.00188 0.229767 0)
(4.99171 0.192343 0)
(4.97893 0.1638 0)
(4.96999 0.141337 0)
(4.96608 0.12207 0)
(4.96563 0.104409 0)
(4.9669 0.0879256 0)
(4.96908 0.0724604 0)
(4.97196 0.0577355 0)
(4.97563 0.0433729 0)
(4.97974 0.0290769 0)
(4.98425 0.0147095 0)
(4.98844 0.000191054 0)
(4.99258 -0.0144694 0)
(4.99561 -0.0292849 0)
(4.99852 -0.0441467 0)
(4.99944 -0.0589831 0)
(5.01382 0.279694 0)
(5.01664 0.236092 0)
(5.00973 0.199155 0)
(4.9997 0.169469 0)
(4.99225 0.14541 0)
(4.9887 0.12476 0)
(4.98807 0.105989 0)
(4.98912 0.0884631 0)
(4.99122 0.0720034 0)
(4.99403 0.0564008 0)
(4.9975 0.0413943 0)
(5.00123 0.0267136 0)
(5.00521 0.012197 0)
(5.00876 -0.0022565 0)
(5.01219 -0.0166601 0)
(5.01454 -0.0310206 0)
(5.01683 -0.0452554 0)
(5.01737 -0.059291 0)
(5.00747 0.277578 0)
(5.01343 0.236571 0)
(5.01028 0.200661 0)
(5.00416 0.170653 0)
(5.00002 0.145596 0)
(4.99888 0.123922 0)
(4.99987 0.104308 0)
(5.00201 0.0860596 0)
(5.00479 0.0689178 0)
(5.00792 0.0527331 0)
(5.01136 0.0373301 0)
(5.01483 0.0225034 0)
(5.0183 0.00808836 0)
(5.02129 -0.00604547 0)
(5.02406 -0.0199558 0)
(5.02592 -0.0336849 0)
(5.02767 -0.047177 0)
(5.02804 -0.0604102 0)
(5.00684 0.281176 0)
(5.01314 0.241654 0)
(5.0116 0.20598 0)
(5.00757 0.17487 0)
(5.00549 0.148145 0)
(5.00596 0.12489 0)
(5.00805 0.104053 0)
(5.01091 0.0848915 0)
(5.01413 0.0670426 0)
(5.01745 0.0503308 0)
(5.02085 0.0346016 0)
(5.02415 0.019675 0)
(5.02739 0.0053646 0)
(5.0302 -0.00847622 0)
(5.03281 -0.0219521 0)
(5.03464 -0.0350912 0)
(5.03635 -0.0479085 0)
(5.03689 -0.0603304 0)
(5.00115 0.276213 0)
(5.0089 0.238255 0)
(5.01017 0.203068 0)
(5.00954 0.171794 0)
(5.01042 0.14444 0)
(5.01307 0.120425 0)
(5.01666 0.0989841 0)
(5.0205 0.0794494 0)
(5.02432 0.0613782 0)
(5.02794 0.0445221 0)
(5.03137 0.0287215 0)
(5.03449 0.0138293 0)
(5.03741 -0.000303153 0)
(5.03986 -0.0138177 0)
(5.04212 -0.0268152 0)
(5.04366 -0.0393547 0)
(5.04516 -0.0514509 0)
(5.04557 -0.0631075 0)
(5.00922 0.280579 0)
(5.01735 0.239967 0)
(5.01994 0.20325 0)
(5.02124 0.170853 0)
(5.02432 0.142413 0)
(5.02899 0.117384 0)
(5.03414 0.0951731 0)
(5.03906 0.0752476 0)
(5.04359 0.0571797 0)
(5.04766 0.0406382 0)
(5.05135 0.0253439 0)
(5.05459 0.0110644 0)
(5.05749 -0.00240216 0)
(5.05983 -0.015186 0)
(5.0619 -0.0273953 0)
(5.06322 -0.0390522 0)
(5.06447 -0.0502195 0)
(5.06465 -0.0608474 0)
(5.00723 0.27602 0)
(5.01922 0.234045 0)
(5.02592 0.195729 0)
(5.03096 0.161948 0)
(5.03736 0.132648 0)
(5.04497 0.107197 0)
(5.05257 0.0848038 0)
(5.05941 0.0647797 0)
(5.06541 0.0466328 0)
(5.07062 0.03004 0)
(5.0752 0.0147733 0)
(5.0791 0.00064406 0)
(5.08245 -0.0125072 0)
(5.08505 -0.0248153 0)
(5.08717 -0.0363752 0)
(5.08846 -0.0472641 0)
(5.0895 -0.057532 0)
(5.08954 -0.0672322 0)
(4.99992 0.271431 0)
(5.01237 0.225148 0)
(5.02198 0.183851 0)
(5.03171 0.148588 0)
(5.04297 0.118987 0)
(5.05455 0.0940993 0)
(5.06507 0.0729155 0)
(5.07407 0.0545985 0)
(5.0818 0.0384732 0)
(5.08848 0.0240179 0)
(5.09432 0.0108462 0)
(5.09925 -0.0012992 0)
(5.10336 -0.0125933 0)
(5.10654 -0.0231245 0)
(5.10907 -0.0329792 0)
(5.11069 -0.0421899 0)
(5.11197 -0.0508616 0)
(5.11225 -0.0590023 0)
(5.00096 0.270458 0)
(5.01557 0.216317 0)
(5.02932 0.170766 0)
(5.04414 0.133851 0)
(5.06026 0.103746 0)
(5.07583 0.0784186 0)
(5.08945 0.0565152 0)
(5.10093 0.0374008 0)
(5.11065 0.0207627 0)
(5.1189 0.00627449 0)
(5.12587 -0.00647125 0)
(5.13152 -0.0178728 0)
(5.13605 -0.0282384 0)
(5.13943 -0.0377796 0)
(5.14205 -0.0466371 0)
(5.14366 -0.0549063 0)
(5.14493 -0.0626517 0)
(5.14514 -0.0699318 0)
(5.01319 0.26466 0)
(5.03271 0.201746 0)
(5.05323 0.15251 0)
(5.07419 0.1162 0)
(5.09433 0.0890915 0)
(5.11183 0.0675653 0)
(5.12623 0.0494401 0)
(5.13829 0.0337737 0)
(5.14881 0.0201529 0)
(5.15801 0.00821794 0)
(5.16589 -0.0024266 0)
(5.17234 -0.0121045 0)
(5.17756 -0.0210476 0)
(5.18154 -0.0293701 0)
(5.18466 -0.0371606 0)
(5.18675 -0.0444466 0)
(5.18839 -0.0513262 0)
(5.18896 -0.0577976 0)
(5.00353 0.258228 0)
(5.03267 0.184409 0)
(5.06477 0.130334 0)
(5.09556 0.0925894 0)
(5.12232 0.0645346 0)
(5.14388 0.0415054 0)
(5.16088 0.0219215 0)
(5.17474 0.00570065 0)
(5.18644 -0.00742258 0)
(5.19626 -0.0181868 0)
(5.20431 -0.0273971 0)
(5.21065 -0.0356167 0)
(5.2156 -0.0431204 0)
(5.21928 -0.050031 0)
(5.22211 -0.05642 0)
(5.2239 -0.0623752 0)
(5.22518 -0.0679594 0)
(5.22538 -0.07326 0)
(5.00787 0.243671 0)
(5.04606 0.162304 0)
(5.08932 0.112022 0)
(5.12731 0.0831752 0)
(5.15676 0.0630263 0)
(5.17913 0.0449812 0)
(5.19739 0.0285387 0)
(5.21341 0.0145801 0)
(5.22742 0.0032078 0)
(5.23908 -0.00625618 0)
(5.24837 -0.0145661 0)
(5.25553 -0.0221425 0)
(5.2611 -0.029134 0)
(5.26524 -0.0355736 0)
(5.26838 -0.0415248 0)
(5.27036 -0.0470418 0)
(5.27175 -0.0522247 0)
(5.27204 -0.0570934 0)
(5.00722 0.226171 0)
(5.06213 0.124361 0)
(5.12371 0.069471 0)
(5.17189 0.0407083 0)
(5.20443 0.0198471 0)
(5.22725 0.00159249 0)
(5.24591 -0.0129774 0)
(5.26239 -0.0235057 0)
(5.27663 -0.0313028 0)
(5.28821 -0.0378224 0)
(5.29731 -0.0437719 0)
(5.30434 -0.0492816 0)
(5.30982 -0.0543164 0)
(5.31391 -0.0589061 0)
(5.31697 -0.0631335 0)
(5.31886 -0.0671172 0)
(5.32012 -0.0709196 0)
(5.32026 -0.0746255 0)
(5.01327 0.210307 0)
(5.08959 0.110492 0)
(5.16883 0.0745939 0)
(5.22367 0.0575073 0)
(5.2572 0.0384665 0)
(5.28124 0.0194773 0)
(5.30233 0.00458236 0)
(5.32102 -0.00583456 0)
(5.33627 -0.0135829 0)
(5.3479 -0.0201581 0)
(5.35665 -0.0261157 0)
(5.36328 -0.0315364 0)
(5.36844 -0.0364437 0)
(5.3723 -0.0409226 0)
(5.37522 -0.0450856 0)
(5.37708 -0.0490138 0)
(5.37837 -0.0527703 0)
(5.37867 -0.0563711 0)
(5.00393 0.158364 0)
(5.11896 0.0336252 0)
(5.21702 0.00532437 0)
(5.27202 -0.00476015 0)
(5.302 -0.0192535 0)
(5.3253 -0.0317916 0)
(5.3472 -0.0396221 0)
(5.36667 -0.0445919 0)
(5.38243 -0.0486598 0)
(5.3946 -0.0525142 0)
(5.4041 -0.0561447 0)
(5.41162 -0.0594813 0)
(5.41765 -0.0625356 0)
(5.4223 -0.0653944 0)
(5.42589 -0.0681049 0)
(5.42829 -0.0707319 0)
(5.43004 -0.0732767 0)
(5.43068 -0.0757877 0)
(5.01555 0.150626 0)
(5.17885 0.0558315 0)
(5.30049 0.0419889 0)
(5.35788 0.0253286 0)
(5.3881 0.00592219 0)
(5.41398 -0.00783547 0)
(5.43819 -0.016023 0)
(5.45865 -0.0217888 0)
(5.47453 -0.0268127 0)
(5.48648 -0.0314152 0)
(5.49544 -0.0355262 0)
(5.50212 -0.0392021 0)
(5.50691 -0.0425188 0)
(5.51001 -0.0456237 0)
(5.51164 -0.048532 0)
(5.51189 -0.0513606 0)
(5.51106 -0.0540594 0)
(5.50907 -0.0567506 0)
(5.01506 0.020323 0)
(5.22834 -0.051264 0)
(5.35305 -0.0343771 0)
(5.40423 -0.0431321 0)
(5.43178 -0.0534491 0)
(5.45298 -0.0581597 0)
(5.46829 -0.0599821 0)
(5.47612 -0.0613352 0)
(5.47656 -0.0627623 0)
(5.47094 -0.0641484 0)
(5.46051 -0.0653719 0)
(5.44641 -0.0664664 0)
(5.42908 -0.0674548 0)
(5.40929 -0.068426 0)
(5.38693 -0.0693482 0)
(5.36304 -0.0703105 0)
(5.33686 -0.0712352 0)
(5.3102 -0.072262 0)
(4.97132 0.0678462 0)
(5.10639 -0.00199976 0)
(5.07593 -0.00205234 0)
(4.95914 -0.0122075 0)
(4.82922 -0.0197456 0)
(4.70281 -0.0226859 0)
(4.58003 -0.0237875 0)
(4.45911 -0.0245107 0)
(4.33958 -0.0250844 0)
(4.22209 -0.0254637 0)
(4.10736 -0.025646 0)
(3.99607 -0.0256841 0)
(3.8882 -0.0256295 0)
(3.78409 -0.0255397 0)
(3.68304 -0.0254232 0)
(3.58587 -0.0253239 0)
(3.49095 -0.0252086 0)
(3.40059 -0.025173 0)
(0.00387605 -0.0188515 2.30289e-21)
(0.0220405 -0.0359774 -2.28833e-21)
(0.048174 -0.0403508 0)
(0.0728906 -0.0400792 0)
(0.0965247 -0.0383325 0)
(0.118739 -0.036165 2.21736e-21)
(0.139555 -0.0338904 0)
(0.158945 -0.0315845 0)
(0.176907 -0.0292105 0)
(0.193303 -0.0266888 0)
(0.207865 -0.0238937 -2.11269e-21)
(0.220158 -0.0206826 0)
(0.229607 -0.0168989 0)
(0.235416 -0.0124056 0)
(0.236734 -0.00706751 0)
(0.232422 -0.000824543 -1.99509e-21)
(0.221563 0.00638183 0)
(0.202794 0.0145038 0)
(0.175638 0.0234833 0)
(0.138531 0.0331512 0)
(0.0909296 0.0430566 0)
(0.0328187 0.0525644 0)
(-0.0351634 0.0608673 0)
(-0.111694 0.0668893 -1.84874e-21)
(-0.194771 0.0697688 1.83526e-21)
(-0.282232 0.0690948 -1.82146e-21)
(-0.371477 0.0654782 -1.80696e-21)
(-0.461402 0.0630788 0)
(-0.549663 0.0599711 0)
(-0.632799 0.050113 1.75764e-21)
(-0.717561 0.0431448 1.73891e-21)
(-0.81136 0.0475063 0)
(-0.91643 0.0665858 0)
(-1.0318 0.0938153 1.67364e-21)
(-1.15609 0.11572 0)
(-1.28068 0.118745 0)
(-1.39532 0.1096 -1.59858e-21)
(-1.49768 0.0980418 0)
(-1.5873 0.0857084 -1.54124e-21)
(-1.66365 0.073205 -3.02586e-21)
(-1.72675 0.060874 0)
(-1.77667 0.0489012 0)
(-1.81357 0.0373961 0)
(-1.83769 0.0264226 0)
(-1.84928 0.0160148 0)
(-1.84865 0.00620149 -2.78494e-21)
(-1.83623 -0.00301002 -2.76859e-21)
(-1.81249 -0.0115941 -2.75983e-21)
(-1.77794 -0.0195211 0)
(-1.73322 -0.0267238 2.76424e-21)
(-1.679 -0.0331507 0)
(-1.61607 -0.0387689 -2.79464e-21)
(-1.54557 -0.0435836 -2.81775e-21)
(-1.46824 -0.0476384 0)
(-1.38513 -0.0509536 0)
(-1.29708 -0.0535759 0)
(-1.20507 -0.0555391 -2.94106e-21)
(-1.10989 -0.0569294 0)
(-1.01237 -0.0577855 0)
(-0.913149 -0.0581893 0)
(-0.812856 -0.0581973 0)
(-0.712007 -0.0578932 0)
(-0.611043 -0.0573224 0)
(-0.510317 -0.0565406 0)
(-0.410151 -0.0555799 0)
(-0.310807 -0.0544866 3.18929e-21)
(-0.212498 -0.0532805 0)
(-0.115404 -0.0519934 0)
(-0.0196585 -0.0506523 -3.22712e-21)
(0.0746447 -0.0492747 -3.23438e-21)
(0.167421 -0.0478731 0)
(0.258591 -0.0464433 3.24155e-21)
(0.348064 -0.0449754 -3.24167e-21)
(0.435728 -0.0434616 0)
(0.52142 -0.0418877 3.23527e-21)
(0.604974 -0.0402405 0)
(0.686218 -0.0385255 0)
(0.764988 -0.0367401 -3.20959e-21)
(0.841139 -0.034895 0)
(0.91449 -0.032989 3.18224e-21)
(0.984885 -0.0310231 0)
(1.05215 -0.0290134 -3.14721e-21)
(1.11614 -0.0269698 -3.12704e-21)
(1.17675 -0.0249173 -3.10525e-21)
(1.23391 -0.0228801 -6.16397e-21)
(1.2876 -0.0208838 6.11484e-21)
(1.33785 -0.0189476 0)
(1.38472 -0.0170879 0)
(1.42829 -0.0153168 0)
(1.46868 -0.0136493 5.89895e-21)
(1.50603 -0.0120792 5.84171e-21)
(1.5405 -0.0106116 -5.78371e-21)
(1.57223 -0.00924656 0)
(1.60136 -0.00798234 5.66632e-21)
(1.62803 -0.00681599 5.60728e-21)
(1.65238 -0.00574398 5.54819e-21)
(1.67457 -0.0047624 0)
(1.69471 -0.00386714 0)
(1.71296 -0.00305395 0)
(1.72943 -0.00231852 5.31336e-21)
(1.74425 -0.00165651 0)
(1.75753 -0.00106357 0)
(1.7694 -0.000535321 -5.14067e-21)
(1.77995 -6.73805e-05 0)
(1.78929 0.000344639 0)
(1.79751 0.000705083 -4.97197e-21)
(1.80471 0.00101824 0)
(1.81097 0.00128827 0)
(1.81637 0.00151917 4.8076e-21)
(1.82098 0.00171463 4.75379e-21)
(1.82486 0.00187803 0)
(1.82808 0.00201231 -4.64761e-21)
(1.8307 0.00212016 0)
(1.83276 0.00220384 4.54332e-21)
(1.83431 0.00226517 0)
(1.83541 0.00230636 4.44087e-21)
(1.8361 0.00232901 4.39031e-21)
(1.83641 0.00233446 0)
(1.83639 0.00232539 0)
(1.83608 0.00230254 0)
(1.8355 0.00226434 0)
(1.83471 0.00221202 0)
(1.83374 0.00214816 0)
(1.83261 0.00207517 0)
(1.83135 0.00199549 4.00089e-21)
(1.83 0.00191158 -3.95399e-21)
(1.82858 0.00182556 0)
(1.82709 0.00173917 0)
(1.82555 0.00165385 0)
(1.82398 0.00157074 0)
(1.82239 0.00149071 -7.44985e-21)
(1.82078 0.00141434 0)
(1.81916 0.00134195 7.27145e-21)
(1.81753 0.00127362 -7.18325e-21)
(1.81589 0.00120938 0)
(1.81426 0.00114937 0)
(1.81262 0.00109372 0)
(1.81098 0.00104252 6.83682e-21)
(1.80934 0.000995677 6.75176e-21)
(1.8077 0.000952976 0)
(1.80607 0.000914111 6.58343e-21)
(1.80443 0.000878834 6.50015e-21)
(1.8028 0.000846917 -6.41744e-21)
(1.80117 0.000818174 0)
(1.79954 0.000792451 0)
(1.7979 0.00076964 -6.17271e-21)
(1.79626 0.000749663 0)
(1.79462 0.00073244 0)
(1.79297 0.000717828 0)
(1.79131 0.000705637 0)
(1.78964 0.000695648 5.77572e-21)
(1.78795 0.000687677 5.69791e-21)
(1.78624 0.000681578 0)
(1.7845 0.000677325 5.54381e-21)
(1.78275 0.000674946 0)
(1.78096 0.000674636 0)
(1.77913 0.000676585 5.31646e-21)
(1.77726 0.000681261 0)
(1.77534 0.000689007 5.16739e-21)
(1.77336 0.000700708 0)
(1.77129 0.000716906 0)
(1.76915 0.00073915 4.94752e-21)
(1.76688 0.0007684 0)
(1.7645 0.000806934 4.80348e-21)
(1.76188 0.000857252 0)
(1.75915 0.000921224 0)
(1.75598 0.00100784 0)
(1.7527 0.00111116 -4.52199e-21)
(1.7486 0.00126641 0)
(1.74444 0.00142659 4.38506e-21)
(1.73875 0.00172824 0)
(1.73305 0.00195345 0)
(1.72463 0.00261493 0)
(1.71579 0.00284059 0)
(1.70298 0.00452034 0)
(1.68619 0.00434772 0)
(1.66756 0.00933728 0)
(1.62576 0.00717358 -7.78035e-21)
(1.60467 0.0254705 0)
(1.4679 0.0196163 0)
(0.000829519 -0.0345875 -6.91223e-21)
(-0.00215269 -0.0624609 6.86814e-21)
(-0.00290429 -0.0663581 0)
(-0.00538381 -0.0624779 -4.50968e-21)
(-0.00799138 -0.0575969 0)
(-0.0108057 -0.0530447 -2.21878e-21)
(-0.0135804 -0.0489575 4.39669e-21)
(-0.0164342 -0.0450631 4.35614e-21)
(-0.0195032 -0.0409893 0)
(-0.0230573 -0.0363267 4.27033e-21)
(-0.0274515 -0.0306459 2.11402e-21)
(-0.0331626 -0.0235037 0)
(-0.0408534 -0.0144419 0)
(-0.0512367 -0.00302959 0)
(-0.0653632 0.0110989 0)
(-0.0840342 0.0281553 1.99631e-21)
(-0.10855 0.0481627 0)
(-0.139418 0.0708211 -3.88868e-21)
(-0.17821 0.0955307 0)
(-0.224522 0.121391 0)
(-0.279224 0.147093 3.76841e-21)
(-0.343029 0.171373 0)
(-0.415993 0.193177 -3.70592e-21)
(-0.497844 0.211821 1.84993e-21)
(-0.587851 0.226618 -1.83646e-21)
(-0.684397 0.236239 1.82269e-21)
(-0.785364 0.241086 1.80822e-21)
(-0.888868 0.240156 0)
(-0.993115 0.230027 0)
(-1.10543 0.227716 -1.75896e-21)
(-1.22862 0.250667 1.70639e-21)
(-1.35509 0.280103 0)
(-1.47422 0.292383 0)
(-1.57613 0.289597 -1.67506e-21)
(-1.66334 0.27672 0)
(-1.73951 0.254248 0)
(-1.8052 0.226744 1.59987e-21)
(-1.86116 0.197218 0)
(-1.9075 0.166997 -1.4873e-21)
(-1.94417 0.136891 3.02817e-21)
(-1.97121 0.107347 0)
(-1.98862 0.0785655 0)
(-1.99644 0.050655 5.66794e-21)
(-1.99471 0.0236707 5.59591e-21)
(-1.98347 -0.00233052 5.53746e-21)
(-1.96283 -0.0272695 -2.70702e-21)
(-1.93283 -0.0510511 2.77008e-21)
(-1.89362 -0.0735412 8.21257e-21)
(-1.84547 -0.0945911 -5.453e-21)
(-1.78872 -0.113999 -2.76543e-21)
(-1.72385 -0.131596 0)
(-1.65144 -0.147234 2.7957e-21)
(-1.57189 -0.160855 -2.77178e-21)
(-1.4861 -0.172419 0)
(-1.39483 -0.181935 0)
(-1.29898 -0.189465 0)
(-1.19934 -0.195105 2.94187e-21)
(-1.09678 -0.199029 0)
(-0.992027 -0.2014 -5.99509e-21)
(-0.885764 -0.20243 0)
(-0.778572 -0.202323 -6.12571e-21)
(-0.670956 -0.201277 0)
(-0.563304 -0.199466 6.23878e-21)
(-0.455948 -0.197036 0)
(-0.349186 -0.194098 -6.3303e-21)
(-0.243268 -0.190758 3.17768e-21)
(-0.138378 -0.187078 0)
(-0.0346941 -0.183152 6.42418e-21)
(0.0676695 -0.179044 3.22746e-21)
(0.168643 -0.17483 3.23469e-21)
(0.268172 -0.170541 0)
(0.366207 -0.16619 3.23202e-21)
(0.462667 -0.161742 3.24191e-21)
(0.557449 -0.157152 0)
(0.650394 -0.15237 -3.23547e-21)
(0.741323 -0.147357 6.45041e-21)
(0.830051 -0.14213 0)
(0.916414 -0.136688 3.20975e-21)
(1.00027 -0.131051 0)
(1.08145 -0.125215 -9.54217e-21)
(1.15978 -0.119189 0)
(1.2351 -0.112995 9.43821e-21)
(1.30724 -0.106686 3.12713e-21)
(1.37608 -0.100324 -3.10248e-21)
(1.44157 -0.0939927 -6.15908e-21)
(1.50368 -0.0877639 6.11045e-21)
(1.56245 -0.0816948 0)
(1.61796 -0.0758468 0)
(1.67028 -0.0702517 0)
(1.71954 -0.0649398 -1.76938e-20)
(1.76589 -0.0599076 -5.84173e-21)
(1.80949 -0.055165 5.78372e-21)
(1.85044 -0.0507106 0)
(1.88891 -0.0465385 5.66391e-21)
(1.92502 -0.0426402 -5.60724e-21)
(1.9589 -0.0390052 -5.54815e-21)
(1.99069 -0.0356223 0)
(2.02051 -0.0324799 0)
(2.04847 -0.029566 0)
(2.0747 -0.0268687 -5.31328e-21)
(2.09929 -0.0243763 0)
(2.12236 -0.0220772 1.03941e-20)
(2.14399 -0.01996 1.54205e-20)
(2.16428 -0.0180135 -1.01666e-20)
(2.18332 -0.0162265 0)
(2.20119 -0.0145882 -4.97085e-21)
(2.21797 -0.0130877 0)
(2.23372 -0.0117146 -9.72266e-21)
(2.24853 -0.0104586 4.80667e-21)
(2.26243 -0.00931002 4.75291e-21)
(2.27551 -0.00825981 0)
(2.28779 -0.00729977 1.39417e-20)
(2.29934 -0.00642249 -9.18953e-21)
(2.3102 -0.00562138 -4.54312e-21)
(2.3204 -0.00489082 0)
(2.32997 -0.00422563 -4.44066e-21)
(2.33895 -0.00362145 -1.31699e-20)
(2.34737 -0.00307475 0)
(2.35526 -0.00258188 -8.58022e-21)
(2.36264 -0.0021403 -8.4817e-21)
(2.36954 -0.00174923 -8.38399e-21)
(2.37598 -0.00140606 0)
(2.38198 -0.0011068 0)
(2.38756 -0.000847475 0)
(2.39275 -0.000624118 4.00049e-21)
(2.39755 -0.000432594 3.95374e-21)
(2.402 -0.000268861 0)
(2.40611 -0.000129156 7.72197e-21)
(2.4099 -1.01106e-05 7.63037e-21)
(2.41339 9.12812e-05 0)
(2.4166 0.000177698 7.44933e-21)
(2.41954 0.000251516 1.47195e-20)
(2.42223 0.000314591 -7.27094e-21)
(2.42469 0.000368427 -7.18264e-21)
(2.42692 0.000414505 0)
(2.42894 0.000454252 0)
(2.43076 0.000488654 0)
(2.43241 0.000518108 -6.83632e-21)
(2.43387 0.000542689 6.7512e-21)
(2.43518 0.00056269 1.33336e-20)
(2.43634 0.00057871 -6.58294e-21)
(2.43736 0.000591405 6.49961e-21)
(2.43825 0.000601395 6.41696e-21)
(2.43902 0.00060929 0)
(2.43968 0.00061568 0)
(2.44024 0.00062115 -6.1722e-21)
(2.4407 0.000626203 0)
(2.44108 0.000631288 0)
(2.44137 0.000636802 1.18649e-20)
(2.44158 0.00064308 0)
(2.44172 0.000650396 5.77524e-21)
(2.4418 0.000659024 -5.69747e-21)
(2.44181 0.000669234 0)
(2.44175 0.000681419 5.54334e-21)
(2.44164 0.000696032 0)
(2.44146 0.000713735 0)
(2.44123 0.000735297 -5.31605e-21)
(2.44093 0.000761723 1.04825e-20)
(2.44057 0.00079432 -5.16698e-21)
(2.44013 0.000834421 0)
(2.43962 0.000884582 0)
(2.43903 0.000946066 4.94703e-21)
(2.43832 0.00102489 0)
(2.43752 0.00112007 4.80295e-21)
(2.43655 0.00124772 0)
(2.43543 0.00139573 0)
(2.43406 0.00161091 0)
(2.43248 0.00183914 4.52161e-21)
(2.4305 0.00222241 0)
(2.42815 0.00256326 -4.38469e-21)
(2.42517 0.00329831 0)
(2.42145 0.00376672 0)
(2.41691 0.00531301 8.37049e-21)
(2.41043 0.00582296 -8.24229e-21)
(2.40351 0.009437 0)
(2.39077 0.00957032 0)
(2.38071 0.0191002 0)
(2.35213 0.0179807 2.33209e-20)
(2.34037 0.0475878 0)
(2.27265 0.0482974 -1.51395e-20)
(-0.00332221 -0.0146408 1.50734e-24)
(-0.026547 -0.0308104 -9.15981e-21)
(-0.0479888 -0.0322489 0)
(-0.0706817 -0.0290163 9.0225e-21)
(-0.0923477 -0.0264746 0)
(-0.113576 -0.0242973 0)
(-0.134259 -0.0221251 -1.27138e-24)
(-0.154755 -0.0195065 -4.35845e-21)
(-0.17527 -0.0160009 -4.31512e-21)
(-0.196127 -0.0110991 -4.27258e-21)
(-0.217632 -0.00422125 0)
(-0.240168 0.00526558 0)
(-0.264225 0.0180453 4.12926e-21)
(-0.290393 0.0347483 8.15796e-21)
(-0.319394 0.0558396 -8.05578e-21)
(-0.351953 0.0815005 0)
(-0.389087 0.111604 -7.85246e-21)
(-0.431517 0.145606 3.89054e-21)
(-0.480412 0.182783 0)
(-0.535794 0.222079 -7.57711e-21)
(-0.598303 0.262269 -3.77024e-21)
(-0.668036 0.301661 7.42859e-21)
(-0.744527 0.338165 3.70781e-21)
(-0.826655 0.369563 0)
(-0.913597 0.393986 -7.2455e-21)
(-1.00461 0.409514 -7.18542e-21)
(-1.09896 0.415859 0)
(-1.19611 0.417204 -7.04948e-21)
(-1.2989 0.425635 0)
(-1.40907 0.443184 -6.88161e-21)
(-1.51116 0.451702 -3.44856e-21)
(-1.59835 0.446904 0)
(-1.67385 0.431534 0)
(-1.73815 0.40843 0)
(-1.7938 0.378712 0)
(-1.84239 0.343001 0)
(-1.88533 0.303671 0)
(-1.92313 0.26231 -6.02044e-21)
(-1.95561 0.220206 8.94084e-21)
(-1.98222 0.178009 0)
(-2.00227 0.136135 0)
(-2.01503 0.0947575 0)
(-2.01984 0.0540058 -1.36277e-22)
(-2.01612 0.0139983 -5.59754e-21)
(-2.00341 -0.0251063 -1.09502e-20)
(-1.9814 -0.0631051 1.08668e-20)
(-1.94992 -0.0997385 5.34802e-21)
(-1.90896 -0.134709 -5.45257e-21)
(-1.85866 -0.167701 1.06593e-22)
(-1.79934 -0.198393 -5.36997e-21)
(-1.73153 -0.226487 0)
(-1.6559 -0.25172 -5.45452e-21)
(-1.57322 -0.273848 7.83178e-23)
(-1.48434 -0.292683 0)
(-1.39019 -0.308159 0)
(-1.29169 -0.320313 5.72817e-21)
(-1.18976 -0.329301 0)
(-1.08526 -0.33537 0)
(-0.978935 -0.338849 -5.9191e-21)
(-0.871468 -0.3401 -1.20576e-20)
(-0.763412 -0.339496 6.12616e-21)
(-0.655239 -0.337374 0)
(-0.547322 -0.334035 -6.23912e-21)
(-0.43995 -0.329736 0)
(-0.333392 -0.324664 -6.28763e-21)
(-0.22786 -0.318956 -6.36762e-21)
(-0.123529 -0.31273 1.27589e-20)
(-0.0205533 -0.30611 6.38693e-21)
(0.0809907 -0.299216 0)
(0.181082 -0.292186 -1.28825e-20)
(0.279734 -0.2851 0)
(0.37696 -0.277969 -1.9388e-20)
(0.472749 -0.270722 -1.29167e-20)
(0.567011 -0.263237 -1.2911e-20)
(0.65957 -0.255412 1.28969e-20)
(0.750182 -0.247188 -1.93248e-20)
(0.838616 -0.238584 0)
(0.924692 -0.229634 0)
(1.00827 -0.220375 1.27574e-20)
(1.08918 -0.210783 1.9062e-20)
(1.16725 -0.200871 0)
(1.24228 -0.190658 -6.2908e-21)
(1.31406 -0.180236 0)
(1.38248 -0.169737 1.86132e-20)
(1.44748 -0.159291 8.77838e-24)
(1.50907 -0.149032 -7.85481e-24)
(1.56729 -0.139063 -1.21157e-20)
(1.62226 -0.129484 0)
(1.67408 -0.120354 1.19009e-20)
(1.72291 -0.111701 5.52643e-24)
(1.76891 -0.103529 0)
(1.81224 -0.0958474 0)
(1.85304 -0.0886487 0)
(1.89147 -0.0819192 -1.133e-20)
(1.92766 -0.0756409 0)
(1.96176 -0.0697938 0)
(1.9939 -0.0643564 0)
(2.02421 -0.059307 0)
(2.0528 -0.0546244 0)
(2.07979 -0.0502877 -1.06223e-20)
(2.10529 -0.046277 0)
(2.12938 -0.0425727 -1.0394e-20)
(2.15216 -0.0391561 -1.02798e-20)
(2.17371 -0.0360089 1.01665e-20)
(2.19412 -0.033113 0)
(2.21344 -0.0304506 9.94263e-21)
(2.23176 -0.0280043 0)
(2.24913 -0.0257568 9.7226e-21)
(2.26562 -0.0236915 -9.61405e-21)
(2.28129 -0.0217926 -2.85171e-20)
(2.29617 -0.020045 0)
(2.31033 -0.018435 -2.78806e-20)
(2.32379 -0.01695 -9.1877e-21)
(2.33659 -0.0155786 0)
(2.34878 -0.0143112 -1.79641e-20)
(2.36036 -0.013139 -1.77603e-20)
(2.37137 -0.0120549 2.6338e-20)
(2.38183 -0.0110526 0)
(2.39177 -0.0101271 8.58015e-21)
(2.40119 -0.00927375 8.48162e-21)
(2.41013 -0.00848801 2.5151e-20)
(2.41859 -0.00776562 0)
(2.4266 -0.00710203 0)
(2.43418 -0.00649265 0)
(2.44133 -0.00593317 8.00056e-21)
(2.44807 -0.0054194 0)
(2.45443 -0.00494729 0)
(2.46042 -0.00451299 -7.72187e-21)
(2.46605 -0.004113 -7.63026e-21)
(2.47134 -0.00374406 0)
(2.4763 -0.00340319 0)
(2.48095 -0.00308781 -1.47193e-20)
(2.48531 -0.00279578 0)
(2.48938 -0.00252532 1.43651e-20)
(2.49318 -0.00227473 1.41899e-20)
(2.49672 -0.0020424 0)
(2.50002 -0.00182701 0)
(2.50308 -0.00162761 -1.36722e-20)
(2.50592 -0.00144355 -8.00469e-26)
(2.50855 -0.00127413 -7.08809e-26)
(2.51098 -0.00111849 0)
(2.51322 -0.000975673 -2.5998e-20)
(2.51528 -0.000844701 0)
(2.51718 -0.000724577 0)
(2.51891 -0.000614338 0)
(2.52049 -0.000513095 1.23442e-20)
(2.52193 -0.000419911 0)
(2.52324 -0.000333737 -2.40467e-20)
(2.52443 -0.000253672 -1.18646e-20)
(2.5255 -0.000178855 0)
(2.52646 -0.000108426 -1.15503e-20)
(2.52733 -4.15695e-05 0)
(2.5281 2.25781e-05 0)
(2.52879 8.49442e-05 -3.32593e-20)
(2.52939 0.000146662 2.18677e-20)
(2.52991 0.00020891 0)
(2.53035 0.000273389 2.12635e-20)
(2.53072 0.000341572 -1.04822e-20)
(2.53102 0.00041628 0)
(2.53124 0.000498984 0)
(2.53138 0.000594977 0)
(2.53144 0.000704501 -2.96815e-20)
(2.53141 0.000839158 0)
(2.53126 0.000993835 -9.6058e-21)
(2.53101 0.00119708 0)
(2.5306 0.00142481 0)
(2.53004 0.00175217 0)
(2.52922 0.0020945 0)
(2.52822 0.00265673 0)
(2.52674 0.00317137 0)
(2.52506 0.00420618 -1.7266e-20)
(2.52244 0.00496211 0)
(2.51969 0.00701953 -8.37028e-21)
(2.51497 0.00808015 2.47217e-20)
(2.51051 0.01254 0)
(2.50172 0.0140209 0)
(2.49456 0.024722 -1.57467e-20)
(2.47812 0.0277377 -1.55409e-20)
(2.46771 0.0563571 1.53023e-20)
(2.44148 0.0675949 1.51397e-20)
(-0.00771014 0.0311594 1.3829e-20)
(-0.0432114 0.0312154 1.37402e-20)
(-0.0759501 0.0295322 9.09157e-21)
(-0.110225 0.0317837 4.50935e-21)
(-0.143824 0.0333394 0)
(-0.177694 0.034907 -8.87615e-21)
(-0.211655 0.0368047 4.39875e-21)
(-0.246048 0.0394795 0)
(-0.280989 0.0433612 4.31757e-21)
(-0.316719 0.0490129 0)
(-0.35346 0.0571287 -8.45746e-21)
(-0.391453 0.0684568 0)
(-0.430984 0.0837821 -4.13157e-21)
(-0.472465 0.103914 -8.16251e-21)
(-0.516403 0.12959 8.06025e-21)
(-0.563223 0.161389 0)
(-0.613633 0.199461 7.85676e-21)
(-0.667786 0.243161 0)
(-0.726677 0.291324 0)
(-0.789461 0.341605 7.58132e-21)
(-0.855949 0.391579 0)
(-0.925956 0.43875 -3.64196e-23)
(-0.999041 0.480782 0)
(-1.07446 0.515733 0)
(-1.15182 0.542365 6.67295e-23)
(-1.23127 0.560876 7.18963e-21)
(-1.31355 0.573943 7.0336e-21)
(-1.39891 0.584904 7.05364e-21)
(-1.4834 0.591677 0)
(-1.56094 0.588755 1.36433e-20)
(-1.62923 0.575496 0)
(-1.69012 0.55397 6.54192e-21)
(-1.74558 0.525637 0)
(-1.79658 0.491827 0)
(-1.84411 0.453201 -6.19164e-21)
(-1.88829 0.410418 0)
(-1.9288 0.364328 5.9537e-21)
(-1.96474 0.315607 1.85545e-22)
(-1.99519 0.264908 -1.16375e-20)
(-2.01918 0.212716 1.12373e-20)
(-2.03589 0.159509 0)
(-2.04462 0.105705 0)
(-2.0448 0.0517343 5.17045e-21)
(-2.03598 -0.00198708 0)
(-2.01787 -0.0550268 5.41286e-21)
(-1.99029 -0.106958 -5.37335e-21)
(-1.95318 -0.157315 -5.34937e-21)
(-1.90661 -0.205604 0)
(-1.85081 -0.251326 5.3486e-21)
(-1.78618 -0.294002 5.37092e-21)
(-1.71328 -0.333146 -1.05524e-20)
(-1.63284 -0.368209 5.45533e-21)
(-1.54566 -0.398756 5.51383e-21)
(-1.45267 -0.424504 0)
(-1.35493 -0.445346 0)
(-1.25347 -0.46137 -5.72879e-21)
(-1.14929 -0.472874 0)
(-1.04327 -0.480266 0)
(-0.936138 -0.484068 1.19157e-20)
(-0.828467 -0.484823 1.20585e-20)
(-0.720689 -0.483064 0)
(-0.613135 -0.47929 0)
(-0.506071 -0.473919 0)
(-0.399713 -0.467295 0)
(-0.294276 -0.459686 1.26187e-20)
(-0.189982 -0.451257 -1.26394e-20)
(-0.0870404 -0.442187 -1.27593e-20)