/*--------------------------------*- C++ -*----------------------------------*\
  =========                 |
  \\      /  F ield         | OpenFOAM: The Open Source CFD Toolbox
   \\    /   O peration     | Website:  https://openfoam.org
    \\  /    A nd           | Version:  7
     \\/     M anipulation  |
\*---------------------------------------------------------------------------*/
FoamFile
{
    version     2.0;
    format      ascii;
    class       volSymmTensorField;
    location    "0.043";
    object      UPrime2Mean;
}
// * * * * * * * * * * * * * * * * * * * * * * * * * * * * * * * * * * * * * //

dimensions      [0 2 -2 0 0 0 0];

internalField   nonuniform List<symmTensor> 
12225
(
(0.00501088 -0.000230729 0 0.00052832 0 0)
(0.0451976 -0.00199178 0 0.000290472 0 0)
(0.0663241 -0.00295833 0 0.000291242 0 0)
(0.0889568 -0.00364558 0 0.000285365 0 0)
(0.127538 -0.00453039 0 0.000280013 0 0)
(0.18388 -0.00561404 0 0.000276227 0 0)
(0.25731 -0.00683018 0 0.000286057 0 0)
(0.347086 -0.00763713 0 0.000253521 0 0)
(0.451899 -0.00896554 0 0.000265675 0 0)
(0.570349 -0.00828308 0 0.000191314 0 0)
(0.703817 -0.0111338 0 0.000236837 0 0)
(0.843773 -0.00670252 0 0.000131479 0 0)
(1.01263 -0.0173021 0 0.000382321 0 0)
(1.17535 -0.000729493 0 0.000295287 0 0)
(1.42437 -0.0423739 0 0.0020134 0 0)
(1.66952 0.0216088 0 0.00252691 0 0)
(2.16627 -0.166001 0 0.0236785 0 0)
(2.97867 0.0641867 0 0.0117745 0 0)
(0.00458603 -9.3572e-05 0 0.000606767 0 0)
(0.0303065 -0.00103405 0 0.000252728 0 0)
(0.0333573 -0.00170174 0 0.000371704 0 0)
(0.0343501 -0.00209632 0 0.000527729 0 0)
(0.0406629 -0.00284548 0 0.00071143 0 0)
(0.0517296 -0.00419786 0 0.00093553 0 0)
(0.0682328 -0.0060478 0 0.00114823 0 0)
(0.0925032 -0.00858446 0 0.00143628 0 0)
(0.12455 -0.0111358 0 0.00156885 0 0)
(0.170024 -0.0150359 0 0.00190967 0 0)
(0.224345 -0.0175555 0 0.00184535 0 0)
(0.301916 -0.0242387 0 0.00240887 0 0)
(0.385322 -0.0256236 0 0.00212389 0 0)
(0.515817 -0.0409495 0 0.00368506 0 0)
(0.642027 -0.0405602 0 0.00327803 0 0)
(0.890983 -0.0875591 0 0.010136 0 0)
(1.10551 -0.105595 0 0.011238 0 0)
(1.63394 -0.318126 0 0.0788773 0 0)
(0.00448051 4.93845e-05 0 0.000903996 0 0)
(0.0300291 -0.00158997 0 0.000521906 0 0)
(0.0317959 -0.00238061 0 0.000685634 0 0)
(0.0307625 -0.00258369 0 0.000917686 0 0)
(0.0333137 -0.00298468 0 0.00119267 0 0)
(0.0374209 -0.00378523 0 0.00152256 0 0)
(0.0427433 -0.00497395 0 0.00197964 0 0)
(0.0496117 -0.00640529 0 0.00236567 0 0)
(0.0588748 -0.00840578 0 0.00296134 0 0)
(0.071147 -0.0104021 0 0.00326798 0 0)
(0.0885463 -0.0140325 0 0.00407688 0 0)
(0.111433 -0.0168177 0 0.0042258 0 0)
(0.144715 -0.0246047 0 0.00589123 0 0)
(0.188458 -0.0289717 0 0.00595207 0 0)
(0.254389 -0.0503672 0 0.0114917 0 0)
(0.343136 -0.0634678 0 0.0128932 0 0)
(0.471907 -0.135768 0 0.0412861 0 0)
(0.635727 -0.230079 0 0.0878755 0 0)
(0.00482411 -0.000437496 0 0.000993056 0 0)
(0.0300392 -0.00194608 0 0.000637202 0 0)
(0.031612 -0.00257513 0 0.000805089 0 0)
(0.0304476 -0.00279137 0 0.00109758 0 0)
(0.032602 -0.00318476 0 0.00141875 0 0)
(0.0360262 -0.00396153 0 0.00181904 0 0)
(0.0402232 -0.00505756 0 0.00228797 0 0)
(0.0453697 -0.00645656 0 0.00289698 0 0)
(0.0516723 -0.00806404 0 0.00347887 0 0)
(0.0599892 -0.0102636 0 0.00428344 0 0)
(0.0708079 -0.0128576 0 0.005003 0 0)
(0.08595 -0.0170655 0 0.0062866 0 0)
(0.10623 -0.0222745 0 0.0075916 0 0)
(0.13561 -0.0320113 0 0.0105845 0 0)
(0.17574 -0.0458176 0 0.0148316 0 0)
(0.232275 -0.0730725 0 0.0257891 0 0)
(0.305559 -0.121161 0 0.0501157 0 0)
(0.37851 -0.197439 0 0.10522 0 0)
(0.0046976 -0.000321731 0 0.00125683 0 0)
(0.0291445 -0.00222029 0 0.000827017 0 0)
(0.0303752 -0.00284617 0 0.00100099 0 0)
(0.0293013 -0.0030701 0 0.00138123 0 0)
(0.0315154 -0.00349876 0 0.00180429 0 0)
(0.0348201 -0.0043337 0 0.00228457 0 0)
(0.0387651 -0.00553893 0 0.0029104 0 0)
(0.0435058 -0.00703832 0 0.00360256 0 0)
(0.049341 -0.00895724 0 0.00449892 0 0)
(0.0567911 -0.0112725 0 0.00542229 0 0)
(0.0665972 -0.0146281 0 0.00674893 0 0)
(0.0796814 -0.0189472 0 0.00826591 0 0)
(0.0973585 -0.0258861 0 0.0109174 0 0)
(0.121355 -0.0356154 0 0.014594 0 0)
(0.153514 -0.0523342 0 0.0220722 0 0)
(0.194671 -0.0784709 0 0.0356967 0 0)
(0.242276 -0.121002 0 0.0637938 0 0)
(0.280737 -0.185242 0 0.127014 0 0)
(0.00431683 -0.000682786 0 0.00133052 0 0)
(0.0287268 -0.00271142 0 0.00102284 0 0)
(0.0296197 -0.00319424 0 0.00126794 0 0)
(0.0283987 -0.00333286 0 0.00175245 0 0)
(0.0304156 -0.00375283 0 0.00228323 0 0)
(0.0334329 -0.00461461 0 0.00288182 0 0)
(0.0370359 -0.00586753 0 0.00360208 0 0)
(0.0413913 -0.00748758 0 0.00449494 0 0)
(0.0467595 -0.00953697 0 0.00555559 0 0)
(0.0535801 -0.0122164 0 0.00687013 0 0)
(0.0624874 -0.0158512 0 0.00853298 0 0)
(0.074145 -0.0209725 0 0.0108468 0 0)
(0.0895951 -0.0283902 0 0.0142469 0 0)
(0.109573 -0.0393781 0 0.0196584 0 0)
(0.135222 -0.0562344 0 0.0289945 0 0)
(0.164865 -0.0813542 0 0.0456105 0 0)
(0.196006 -0.118605 0 0.0767752 0 0)
(0.216792 -0.166015 0 0.131772 0 0)
(0.00461607 -0.000523639 0 0.00148895 0 0)
(0.028715 -0.00300197 0 0.00132343 0 0)
(0.0293275 -0.00354421 0 0.00156329 0 0)
(0.0279906 -0.00374039 0 0.0021102 0 0)
(0.0298976 -0.00426698 0 0.00275043 0 0)
(0.0327311 -0.00526052 0 0.00346357 0 0)
(0.0360753 -0.00666124 0 0.00433296 0 0)
(0.0400788 -0.00843976 0 0.0054011 0 0)
(0.0449723 -0.0106951 0 0.0067353 0 0)
(0.0511218 -0.0136179 0 0.00840031 0 0)
(0.0590353 -0.0175964 0 0.0105741 0 0)
(0.069184 -0.0231297 0 0.0135947 0 0)
(0.0822025 -0.0309954 0 0.0180169 0 0)
(0.0983011 -0.0423249 0 0.0249595 0 0)
(0.117698 -0.0585959 0 0.0361077 0 0)
(0.138254 -0.0815899 0 0.0550902 0 0)
(0.157548 -0.111942 0 0.0859502 0 0)
(0.167224 -0.147349 0 0.135918 0 0)
(0.0034747 -0.000504125 0 0.00164574 0 0)
(0.0275618 -0.0032164 0 0.00149698 0 0)
(0.0283074 -0.0036307 0 0.00188275 0 0)
(0.0270716 -0.0036992 0 0.0025217 0 0)
(0.028883 -0.00420087 0 0.00327143 0 0)
(0.0314114 -0.0052124 0 0.00411947 0 0)
(0.0343216 -0.00664346 0 0.00514313 0 0)
(0.0378241 -0.00849131 0 0.00642919 0 0)
(0.0421316 -0.0108715 0 0.00805586 0 0)
(0.0475101 -0.0139915 0 0.0101374 0 0)
(0.0543037 -0.0181951 0 0.0128766 0 0)
(0.0627722 -0.0239359 0 0.0166685 0 0)
(0.0732128 -0.0318688 0 0.0221314 0 0)
(0.0854873 -0.0428301 0 0.0303964 0 0)
(0.0992916 -0.0577948 0 0.0430875 0 0)
(0.112623 -0.0774779 0 0.0630625 0 0)
(0.123451 -0.101502 0 0.093181 0 0)
(0.126582 -0.127292 0 0.13776 0 0)
(0.00505803 -0.000838423 0 0.0016384 0 0)
(0.0281449 -0.00393961 0 0.00175557 0 0)
(0.0279564 -0.00431435 0 0.00225577 0 0)
(0.0263941 -0.00425784 0 0.0029866 0 0)
(0.028117 -0.00474718 0 0.00387558 0 0)
(0.0305063 -0.00583486 0 0.00490226 0 0)
(0.0331629 -0.00737383 0 0.00613704 0 0)
(0.0362886 -0.00932859 0 0.00767896 0 0)
(0.0400481 -0.0118025 0 0.00962835 0 0)
(0.0446216 -0.0149985 0 0.0121334 0 0)
(0.0502309 -0.0192341 0 0.0154195 0 0)
(0.0570035 -0.024919 0 0.0199357 0 0)
(0.0650249 -0.0325589 0 0.0263056 0 0)
(0.0739583 -0.0427216 0 0.035643 0 0)
(0.0832972 -0.0558932 0 0.0493107 0 0)
(0.0913115 -0.0721354 0 0.0695472 0 0)
(0.0966359 -0.0906044 0 0.0981067 0 0)
(0.0959986 -0.108868 0 0.137363 0 0)
(0.00437163 -0.000853088 0 0.00181793 0 0)
(0.0277873 -0.00411777 0 0.00191521 0 0)
(0.02769 -0.00443984 0 0.00248728 0 0)
(0.0261524 -0.00432156 0 0.00330901 0 0)
(0.0277595 -0.00479596 0 0.00432499 0 0)
(0.029919 -0.00590114 0 0.00551276 0 0)
(0.0322401 -0.00745422 0 0.00693421 0 0)
(0.0348886 -0.00940352 0 0.00870398 0 0)
(0.037986 -0.0118527 0 0.0109583 0 0)
(0.0416629 -0.0149987 0 0.0138862 0 0)
(0.0460654 -0.0191187 0 0.0177398 0 0)
(0.0512152 -0.024533 0 0.0229715 0 0)
(0.0570448 -0.0315956 0 0.0301763 0 0)
(0.0631123 -0.0406061 0 0.0403443 0 0)
(0.0688823 -0.0517 0 0.0545457 0 0)
(0.0729877 -0.0645473 0 0.0744343 0 0)
(0.0746735 -0.0781955 0 0.100931 0 0)
(0.0718657 -0.0906165 0 0.135425 0 0)
(0.00443124 -0.000993217 0 0.00200244 0 0)
(0.0277369 -0.0046232 0 0.00224111 0 0)
(0.0271167 -0.00498234 0 0.0028945 0 0)
(0.0251758 -0.00475127 0 0.00381428 0 0)
(0.0265274 -0.00518146 0 0.00495352 0 0)
(0.0284775 -0.00629773 0 0.00631513 0 0)
(0.0305409 -0.00786025 0 0.00795275 0 0)
(0.0328359 -0.00979428 0 0.00997824 0 0)
(0.0354628 -0.0121942 0 0.0125313 0 0)
(0.0385037 -0.0152412 0 0.0158292 0 0)
(0.0420084 -0.0191624 0 0.0201475 0 0)
(0.0458916 -0.0241792 0 0.0259279 0 0)
(0.0499845 -0.0304911 0 0.0337045 0 0)
(0.0538449 -0.0381858 0 0.0443129 0 0)
(0.0570133 -0.0471706 0 0.0585417 0 0)
(0.0585195 -0.0569455 0 0.0775533 0 0)
(0.0580256 -0.0666232 0 0.101715 0 0)
(0.0542591 -0.074648 0 0.131838 0 0)
(0.00405935 -0.000855989 0 0.0021969 0 0)
(0.0270229 -0.00468077 0 0.00249568 0 0)
(0.0263307 -0.00503942 0 0.00316673 0 0)
(0.0243089 -0.004671 0 0.0041727 0 0)
(0.025418 -0.0049632 0 0.0054413 0 0)
(0.026974 -0.00596224 0 0.00697931 0 0)
(0.0285661 -0.00739474 0 0.00883114 0 0)
(0.0303468 -0.00915997 0 0.0110988 0 0)
(0.0323871 -0.0113403 0 0.0139406 0 0)
(0.0347076 -0.0140944 0 0.0175843 0 0)
(0.0372774 -0.0175977 0 0.0223032 0 0)
(0.0399462 -0.0219813 0 0.028508 0 0)
(0.0425071 -0.0273224 0 0.0366542 0 0)
(0.0445912 -0.0335645 0 0.0474233 0 0)
(0.045867 -0.0404859 0 0.0613598 0 0)
(0.0457071 -0.0475484 0 0.0792782 0 0)
(0.0440417 -0.0539935 0 0.101208 0 0)
(0.0400677 -0.0586495 0 0.127682 0 0)
(0.00423056 -0.00113724 0 0.00247712 0 0)
(0.0274229 -0.00498842 0 0.0027701 0 0)
(0.0264594 -0.00526126 0 0.00344812 0 0)
(0.0241739 -0.00478453 0 0.00452886 0 0)
(0.0250744 -0.00501348 0 0.00590116 0 0)
(0.0264254 -0.00597652 0 0.00758364 0 0)
(0.0277563 -0.00736059 0 0.00962255 0 0)
(0.0291668 -0.0090248 0 0.0121166 0 0)
(0.0306958 -0.0110172 0 0.0152217 0 0)
(0.032347 -0.0134625 0 0.0191552 0 0)
(0.034074 -0.0164878 0 0.0241717 0 0)
(0.0357294 -0.0201585 0 0.0306347 0 0)
(0.0371137 -0.0244707 0 0.0389184 0 0)
(0.0379289 -0.0292886 0 0.0495682 0 0)
(0.0379425 -0.0343452 0 0.0629389 0 0)
(0.0367646 -0.0391292 0 0.0796064 0 0)
(0.0344934 -0.0430339 0 0.099395 0 0)
(0.0306042 -0.0451691 0 0.122692 0 0)
(0.00438564 -0.00109113 0 0.00299106 0 0)
(0.0271094 -0.00493202 0 0.0034287 0 0)
(0.0259758 -0.00514985 0 0.00421018 0 0)
(0.0237445 -0.00457753 0 0.00536213 0 0)
(0.0245541 -0.00466768 0 0.00682526 0 0)
(0.02558 -0.00546546 0 0.00863279 0 0)
(0.026431 -0.00665744 0 0.0108258 0 0)
(0.027272 -0.00807292 0 0.013496 0 0)
(0.0281452 -0.00971369 0 0.0167884 0 0)
(0.0290324 -0.0116571 0 0.0209155 0 0)
(0.0298855 -0.0139914 0 0.02611 0 0)
(0.0305859 -0.01673 0 0.032683 0 0)
(0.0309784 -0.019813 0 0.0409126 0 0)
(0.0308465 -0.02304 0 0.0511965 0 0)
(0.0300563 -0.026147 0 0.0637048 0 0)
(0.0283931 -0.0286628 0 0.0788181 0 0)
(0.0260715 -0.0301826 0 0.0962083 0 0)
(0.022722 -0.0300091 0 0.116192 0 0)
(0.00445329 -0.000833219 0 0.00296745 0 0)
(0.0269659 -0.00556126 0 0.0037237 0 0)
(0.0256921 -0.0058775 0 0.00468158 0 0)
(0.0231781 -0.00521868 0 0.00599766 0 0)
(0.0236697 -0.00518508 0 0.00760354 0 0)
(0.0243906 -0.00582946 0 0.00955548 0 0)
(0.0249465 -0.00682637 0 0.0119151 0 0)
(0.0254533 -0.00798597 0 0.0147567 0 0)
(0.0259084 -0.00928185 0 0.0182044 0 0)
(0.0262785 -0.0107538 0 0.0224509 0 0)
(0.0265162 -0.0124406 0 0.0276961 0 0)
(0.0265308 -0.014297 0 0.0341858 0 0)
(0.0262182 -0.0162205 0 0.042097 0 0)
(0.0254665 -0.0179864 0 0.0516929 0 0)
(0.0242526 -0.0193775 0 0.0629901 0 0)
(0.0225145 -0.0200047 0 0.0762262 0 0)
(0.0205122 -0.0196499 0 0.0909927 0 0)
(0.0180022 -0.0177797 0 0.107571 0 0)
(0.00470893 -0.000977893 0 0.00315259 0 0)
(0.0268354 -0.0055972 0 0.00372963 0 0)
(0.0250871 -0.00599172 0 0.00462838 0 0)
(0.0222686 -0.00525707 0 0.00598634 0 0)
(0.0225107 -0.00510471 0 0.0076884 0 0)
(0.0229748 -0.0056343 0 0.00974368 0 0)
(0.0232785 -0.00646769 0 0.0121914 0 0)
(0.023516 -0.00734933 0 0.0150992 0 0)
(0.0236302 -0.00821575 0 0.0185716 0 0)
(0.0235551 -0.00908795 0 0.0227677 0 0)
(0.0232656 -0.00998642 0 0.0278423 0 0)
(0.0227396 -0.0108476 0 0.0339705 0 0)
(0.0219619 -0.0115605 0 0.0412359 0 0)
(0.0209259 -0.0119149 0 0.049789 0 0)
(0.0196763 -0.0117474 0 0.059547 0 0)
(0.0182465 -0.0107615 0 0.070654 0 0)
(0.0168631 -0.0088772 0 0.0826967 0 0)
(0.0153624 -0.00570807 0 0.0959632 0 0)
(0.00499702 -0.000958582 0 0.00329543 0 0)
(0.0274445 -0.00579165 0 0.00398662 0 0)
(0.0253718 -0.00627802 0 0.00500667 0 0)
(0.0221635 -0.00545163 0 0.00646675 0 0)
(0.0220635 -0.00512762 0 0.00821162 0 0)
(0.0221881 -0.00543827 0 0.0102903 0 0)
(0.0221153 -0.0059749 0 0.0127455 0 0)
(0.0219491 -0.00644793 0 0.015619 0 0)
(0.0216765 -0.00678063 0 0.0189782 0 0)
(0.0212724 -0.00699858 0 0.0229287 0 0)
(0.0207297 -0.00712489 0 0.0275646 0 0)
(0.0200516 -0.00709591 0 0.0329962 0 0)
(0.019248 -0.00680707 0 0.0392443 0 0)
(0.0183628 -0.00608073 0 0.0463868 0 0)
(0.0174586 -0.00480459 0 0.0542944 0 0)
(0.0166217 -0.00277394 0 0.0630686 0 0)
(0.0160281 3.7203e-06 0 0.0723268 0 0)
(0.0155911 0.00379622 0 0.0823611 0 0)
(0.00446323 -0.000917382 0 0.00339787 0 0)
(0.0266772 -0.00597284 0 0.00394345 0 0)
(0.0245812 -0.00637761 0 0.0046355 0 0)
(0.0212588 -0.00553183 0 0.00588585 0 0)
(0.0208825 -0.0051817 0 0.00748168 0 0)
(0.0206064 -0.0053135 0 0.00937853 0 0)
(0.0201296 -0.00551935 0 0.011581 0 0)
(0.0196462 -0.00556501 0 0.014123 0 0)
(0.0191739 -0.00539854 0 0.0170586 0 0)
(0.0186882 -0.00503469 0 0.020455 0 0)
(0.0181797 -0.00447384 0 0.0243499 0 0)
(0.0176579 -0.00365632 0 0.0287842 0 0)
(0.0171438 -0.00250164 0 0.0337299 0 0)
(0.0167064 -0.000896057 0 0.0392163 0 0)
(0.0164164 0.00121766 0 0.0451202 0 0)
(0.0163798 0.00394674 0 0.0515256 0 0)
(0.0167223 0.00725251 0 0.0581396 0 0)
(0.017403 0.0112793 0 0.0652206 0 0)
(0.00463364 -0.000660463 0 0.00321025 0 0)
(0.0270068 -0.00550048 0 0.00382145 0 0)
(0.0243716 -0.00564152 0 0.0044279 0 0)
(0.0207028 -0.00443898 0 0.00549786 0 0)
(0.0201401 -0.00364791 0 0.00683804 0 0)
(0.0196629 -0.0033215 0 0.00842024 0 0)
(0.0190292 -0.00307882 0 0.0102575 0 0)
(0.0184974 -0.00267087 0 0.0123547 0 0)
(0.0180956 -0.00200845 0 0.0147096 0 0)
(0.0177947 -0.0010804 0 0.0173301 0 0)
(0.0175931 0.000107863 0 0.0202161 0 0)
(0.0175208 0.00158007 0 0.0233842 0 0)
(0.0176189 0.00336763 0 0.0268112 0 0)
(0.0179685 0.00552549 0 0.0305168 0 0)
(0.0186301 0.00806128 0 0.0344156 0 0)
(0.0196921 0.0110297 0 0.0385737 0 0)
(0.0212205 0.0143678 0 0.0427907 0 0)
(0.0231923 0.0181746 0 0.0472473 0 0)
(0.00463595 -0.000904305 0 0.00344382 0 0)
(0.0263461 -0.00515684 0 0.00375836 0 0)
(0.0233883 -0.00502003 0 0.0041397 0 0)
(0.0196438 -0.00383669 0 0.00499338 0 0)
(0.0189182 -0.00303219 0 0.00600211 0 0)
(0.0183234 -0.00261352 0 0.00714886 0 0)
(0.0176412 -0.00224464 0 0.0084778 0 0)
(0.0171079 -0.00169335 0 0.0100003 0 0)
(0.0167534 -0.000866095 0 0.0117026 0 0)
(0.0165735 0.00024468 0 0.0135719 0 0)
(0.0165952 0.00161501 0 0.0155868 0 0)
(0.0168656 0.00323257 0 0.0177409 0 0)
(0.0174292 0.00509658 0 0.0200154 0 0)
(0.018348 0.0072301 0 0.0224346 0 0)
(0.0196674 0.00963172 0 0.0249488 0 0)
(0.0214399 0.0123349 0 0.0276101 0 0)
(0.0237092 0.0152937 0 0.0302871 0 0)
(0.0264516 0.0185724 0 0.0330919 0 0)
(0.00461541 -0.000696453 0 0.0031228 0 0)
(0.0262122 -0.00451403 0 0.0031864 0 0)
(0.0231114 -0.00418296 0 0.00338777 0 0)
(0.0193552 -0.00289422 0 0.00398498 0 0)
(0.0186249 -0.00197704 0 0.00474266 0 0)
(0.0180106 -0.00140295 0 0.00558346 0 0)
(0.0173769 -0.000862991 0 0.00650132 0 0)
(0.0169989 -0.000160184 0 0.00750798 0 0)
(0.0168941 0.000777034 0 0.00860968 0 0)
(0.0170385 0.00195034 0 0.00981386 0 0)
(0.0174651 0.00333755 0 0.0111194 0 0)
(0.0182338 0.00492398 0 0.0125255 0 0)
(0.0193925 0.00670283 0 0.0140098 0 0)
(0.0209848 0.00868457 0 0.0155754 0 0)
(0.0230367 0.0108621 0 0.0171801 0 0)
(0.025575 0.0132537 0 0.0188536 0 0)
(0.0286271 0.0158208 0 0.0205156 0 0)
(0.0321608 0.0186071 0 0.0222444 0 0)
(0.00418549 -0.000482442 0 0.0029256 0 0)
(0.0257092 -0.00373335 0 0.00254671 0 0)
(0.0224936 -0.00356941 0 0.00262739 0 0)
(0.018695 -0.00244437 0 0.00306 0 0)
(0.0179504 -0.00154268 0 0.0036169 0 0)
(0.0173735 -0.000938777 0 0.0042549 0 0)
(0.0168331 -0.000398451 0 0.00496182 0 0)
(0.0165794 0.000274909 0 0.00574079 0 0)
(0.0166362 0.00117126 0 0.0065903 0 0)
(0.0170085 0.00229205 0 0.00750532 0 0)
(0.0177378 0.0036011 0 0.00847268 0 0)
(0.0188744 0.00507127 0 0.00948466 0 0)
(0.0204535 0.00668953 0 0.010525 0 0)
(0.022512 0.00846305 0 0.0115988 0 0)
(0.0250646 0.0103847 0 0.0126791 0 0)
(0.0281348 0.0124716 0 0.0137926 0 0)
(0.031735 0.014682 0 0.0148806 0 0)
(0.0358449 0.0170541 0 0.0159971 0 0)
(0.00464242 -0.000623562 0 0.00266005 0 0)
(0.0254728 -0.00338977 0 0.00230246 0 0)
(0.0222509 -0.003033 0 0.0022197 0 0)
(0.0184909 -0.00191214 0 0.00239465 0 0)
(0.0176822 -0.0010811 0 0.00268219 0 0)
(0.0169772 -0.000540623 0 0.00302625 0 0)
(0.016343 -5.3374e-05 0 0.00339632 0 0)
(0.0161257 0.000541997 0 0.00379283 0 0)
(0.0163666 0.00130352 0 0.0042347 0 0)
(0.0170221 0.00222538 0 0.00473512 0 0)
(0.0180862 0.0032809 0 0.00528682 0 0)
(0.0195787 0.00445088 0 0.00587641 0 0)
(0.0215221 0.00573035 0 0.00648757 0 0)
(0.0239454 0.00712688 0 0.00712191 0 0)
(0.0268752 0.00863431 0 0.00776191 0 0)
(0.030324 0.0102571 0 0.00842323 0 0)
(0.0343153 0.0119648 0 0.00907041 0 0)
(0.0387957 0.013768 0 0.00973008 0 0)
(0.0048915 -0.000845712 0 0.0023587 0 0)
(0.0253528 -0.00317492 0 0.0020537 0 0)
(0.0214704 -0.00244915 0 0.00197521 0 0)
(0.0176811 -0.00120453 0 0.00213769 0 0)
(0.0172122 -0.000300312 0 0.0023766 0 0)
(0.0168742 0.000284716 0 0.00263374 0 0)
(0.0165685 0.000782381 0 0.00289806 0 0)
(0.0166917 0.00136214 0 0.00318364 0 0)
(0.0173414 0.00209375 0 0.00349725 0 0)
(0.0184888 0.00297029 0 0.0038384 0 0)
(0.020106 0.00395984 0 0.00419866 0 0)
(0.0221923 0.00503874 0 0.00457048 0 0)
(0.0247643 0.00619471 0 0.00494617 0 0)
(0.0278486 0.00742862 0 0.00533067 0 0)
(0.0314582 0.00872925 0 0.00571471 0 0)
(0.0355915 0.0101012 0 0.00611537 0 0)
(0.0402568 0.0115186 0 0.00650846 0 0)
(0.0454074 0.0130055 0 0.0069065 0 0)
(0.00521736 -0.000714701 0 0.00215038 0 0)
(0.0254956 -0.002807 0 0.00167932 0 0)
(0.0212227 -0.00218973 0 0.00141001 0 0)
(0.0172212 -0.00123444 0 0.00140523 0 0)
(0.0165994 -0.000553949 0 0.00147623 0 0)
(0.0161557 -0.000133827 0 0.00154581 0 0)
(0.0158586 0.000192776 0 0.00162568 0 0)
(0.0161032 0.000566986 0 0.00174486 0 0)
(0.0169169 0.00105431 0 0.00190764 0 0)
(0.0182137 0.0016534 0 0.00209474 0 0)
(0.0199689 0.00233521 0 0.0022872 0 0)
(0.0222152 0.00307896 0 0.00248192 0 0)
(0.0249976 0.00387592 0 0.00268217 0 0)
(0.0283426 0.00472717 0 0.00289366 0 0)
(0.0322551 0.00562762 0 0.00310958 0 0)
(0.0367109 0.00657568 0 0.00333549 0 0)
(0.0417092 0.00754872 0 0.00355511 0 0)
(0.0471825 0.00856176 0 0.00377249 0 0)
(0.00531581 -0.000624488 0 0.00186123 0 0)
(0.0252251 -0.00219086 0 0.00118934 0 0)
(0.0204487 -0.00181665 0 0.00096147 0 0)
(0.0165366 -0.000979551 0 0.00104446 0 0)
(0.0161362 -0.000282421 0 0.00111298 0 0)
(0.0159083 0.000145877 0 0.0011368 0 0)
(0.0159015 0.000461932 0 0.00116068 0 0)
(0.0165281 0.000809237 0 0.00120897 0 0)
(0.0177811 0.00124372 0 0.00127903 0 0)
(0.0195412 0.00175941 0 0.00136165 0 0)
(0.0217797 0.00233053 0 0.00145096 0 0)
(0.0245442 0.00293912 0 0.00154601 0 0)
(0.027892 0.00357784 0 0.00164721 0 0)
(0.0318511 0.00424724 0 0.00175739 0 0)
(0.036423 0.00494258 0 0.00187193 0 0)
(0.0415736 0.00566696 0 0.00199421 0 0)
(0.0473059 0.00640454 0 0.00211503 0 0)
(0.0535376 0.00717044 0 0.00223806 0 0)
(0.00366378 -0.000561135 0 0.00155542 0 0)
(0.0233541 -0.00109786 0 0.000731207 0 0)
(0.0188 -0.00069439 0 0.000449879 0 0)
(0.0153807 -0.000247072 0 0.000443228 0 0)
(0.0153491 8.88022e-05 0 0.000448903 0 0)
(0.0153816 0.000263899 0 0.00045382 0 0)
(0.0156113 0.000385779 0 0.000471549 0 0)
(0.0164993 0.000532758 0 0.000500034 0 0)
(0.018068 0.000728131 0 0.000534684 0 0)
(0.0202237 0.00096622 0 0.000571796 0 0)
(0.0229562 0.00123527 0 0.000609511 0 0)
(0.0263063 0.00152546 0 0.0006489 0 0)
(0.0303024 0.0018311 0 0.000690905 0 0)
(0.0349299 0.00215056 0 0.000737551 0 0)
(0.0401607 0.00248002 0 0.000788101 0 0)
(0.0459388 0.00282102 0 0.000844955 0 0)
(0.052273 0.00316212 0 0.000904721 0 0)
(0.05907 0.00351353 0 0.000969005 0 0)
(0.00531201 -0.000578606 0 0.00110597 0 0)
(0.0233766 -0.00120068 0 0.000465103 0 0)
(0.0181623 -0.000893029 0 0.000399065 0 0)
(0.0152874 -0.00031749 0 0.0003904 0 0)
(0.0157166 5.56402e-05 0 0.000342161 0 0)
(0.0161415 0.000242362 0 0.000297733 0 0)
(0.0169665 0.000380453 0 0.000276372 0 0)
(0.0186573 0.000523672 0 0.000269665 0 0)
(0.0211366 0.000668209 0 0.000269852 0 0)
(0.0242388 0.000808911 0 0.000274201 0 0)
(0.0279222 0.000952409 0 0.000283116 0 0)
(0.0322195 0.00110709 0 0.000297624 0 0)
(0.0371467 0.00127727 0 0.000318243 0 0)
(0.0426876 0.00146126 0 0.000344885 0 0)
(0.0487956 0.00165178 0 0.000376545 0 0)
(0.0554275 0.00184 0 0.000414691 0 0)
(0.062573 0.00201546 0 0.000457969 0 0)
(0.0701672 0.00217951 0 0.000504716 0 0)
(0.00363584 -6.09491e-05 0 0.000862434 0 0)
(0.0217726 0.000190381 0 0.000214974 0 0)
(0.0167873 1.23255e-05 0 0.000161413 0 0)
(0.0142879 6.09841e-05 0 0.000159086 0 0)
(0.0150876 3.90246e-05 0 0.000167561 0 0)
(0.0159128 -4.5315e-05 0 0.000176965 0 0)
(0.0170904 -0.000147296 0 0.000185949 0 0)
(0.0189994 -0.000252132 0 0.000196116 0 0)
(0.0214953 -0.000357535 0 0.000208981 0 0)
(0.0243718 -0.000458374 0 0.000224196 0 0)
(0.027549 -0.000545657 0 0.000240884 0 0)
(0.0310529 -0.000613265 0 0.000258824 0 0)
(0.0348879 -0.000657743 0 0.000278176 0 0)
(0.039083 -0.000679681 0 0.000299471 0 0)
(0.0435722 -0.000681305 0 0.000322406 0 0)
(0.0483947 -0.000669143 0 0.000348586 0 0)
(0.053442 -0.000647101 0 0.000378272 0 0)
(0.0588208 -0.000618193 0 0.000410302 0 0)
(0.00468619 -0.000323719 0 0.000691916 0 0)
(0.0234521 -9.49691e-05 0 0.000223138 0 0)
(0.0206324 1.4593e-05 0 0.000138919 0 0)
(0.0197577 0.000123727 0 9.94374e-05 0 0)
(0.0216083 0.000140116 0 7.78547e-05 0 0)
(0.0232714 0.000152286 0 6.59447e-05 0 0)
(0.0249061 0.000183278 0 5.90925e-05 0 0)
(0.0269249 0.000220649 0 5.58704e-05 0 0)
(0.0294477 0.000254249 0 5.52848e-05 0 0)
(0.0324837 0.000284153 0 5.67225e-05 0 0)
(0.0360249 0.000317336 0 6.00531e-05 0 0)
(0.0400738 0.000362238 0 6.49955e-05 0 0)
(0.0446749 0.000424654 0 7.0911e-05 0 0)
(0.0498912 0.000504591 0 7.71936e-05 0 0)
(0.0558194 0.000597147 0 8.37518e-05 0 0)
(0.0624409 0.000696213 0 9.1101e-05 0 0)
(0.069857 0.000798704 0 9.85322e-05 0 0)
(0.0778816 0.000907486 0 0.000105114 0 0)
(0.000265085 -0.000638117 1.39972e-22 0.00156791 -2.72581e-22 2.1753e-37)
(0.00380169 -0.00334188 -3.92416e-22 0.00301033 2.26404e-22 2.14487e-37)
(0.0135222 -0.00694588 0 0.00365144 0 0)
(0.029669 -0.0106074 0 0.00386959 0 0)
(0.0525076 -0.0142417 0 0.00392627 0 0)
(0.0824139 -0.0179612 1.32102e-21 0.00396409 -2.14301e-22 2.0203e-37)
(0.119739 -0.0218455 0 0.00402474 0 0)
(0.164979 -0.0259212 0 0.00410692 0 0)
(0.218593 -0.0301462 0 0.0041935 0 0)
(0.280949 -0.034417 0 0.00426182 0 0)
(0.352167 -0.0385632 -2.47264e-21 0.004287 2.19805e-22 1.87136e-37)
(0.431922 -0.0423466 0 0.00424529 0 0)
(0.519373 -0.0454485 0 0.0041142 0 0)
(0.612832 -0.0475161 0 0.00388516 0 0)
(0.710027 -0.0481616 0 0.00356221 0 0)
(0.807434 -0.047061 -3.62383e-21 0.00317917 2.42876e-22 1.72972e-37)
(0.901611 -0.0439821 0 0.00279351 0 0)
(0.987472 -0.0388901 0 0.00249597 0 0)
(1.06245 -0.0319869 0 0.00239549 0 0)
(1.12087 -0.0237889 0 0.00260762 0 0)
(1.16065 -0.0154177 0 0.00321574 0 0)
(1.18217 -0.00837242 0 0.00420666 0 0)
(1.18872 -0.00418722 0 0.00546844 0 0)
(1.18656 -0.00441332 -6.04018e-21 0.00674564 3.43537e-22 1.51804e-37)
(1.18376 -0.00973341 6.40316e-21 0.00784779 -3.41655e-22 1.49287e-37)
(1.1883 -0.0202137 -6.76594e-21 0.00875139 3.3202e-22 1.46799e-37)
(1.20791 -0.0348008 -7.12321e-21 0.00978843 3.1837e-22 1.44339e-37)
(1.24606 -0.0493941 0 0.0123519 0 0)
(1.30878 -0.0664509 0 0.0170107 0 0)
(1.40303 -0.0908176 8.12659e-21 0.0245664 -2.70221e-22 1.3713e-37)
(1.51864 -0.114425 8.44356e-21 0.0356219 -2.50902e-22 1.34784e-37)
(1.63995 -0.12583 0 0.0438377 0 0)
(1.75826 -0.114854 0 0.0392476 0 0)
(1.87449 -0.0882577 9.47194e-21 0.0269035 -3.48454e-22 1.27917e-37)
(1.99512 -0.0707045 0 0.0260929 0 0)
(2.15051 -0.0837459 0 0.0305084 0 0)
(2.36319 -0.107458 -1.05267e-20 0.0287959 3.52366e-22 1.21305e-37)
(2.62519 -0.126893 0 0.0256447 0 0)
(2.92471 -0.140578 -1.11028e-20 0.0222393 2.97608e-22 1.17038e-37)
(3.24998 -0.148557 -2.26975e-20 0.0189681 5.38807e-22 4.59785e-37)
(3.58991 -0.151429 0 0.0159946 0 0)
(3.93435 -0.149883 0 0.0133647 0 0)
(4.27425 -0.144614 0 0.0110736 0 0)
(4.60149 -0.13625 0 0.00909417 0 0)
(4.9088 -0.125356 0 0.00739428 0 0)
(5.18981 -0.112424 -2.43502e-20 0.0059433 2.2102e-22 4.11916e-37)
(5.43924 -0.097921 -2.43873e-20 0.00471834 1.74126e-22 4.0432e-37)
(5.65285 -0.0822826 -2.43528e-20 0.00370012 1.29609e-22 3.96833e-37)
(5.82724 -0.0660083 0 0.00287592 0 0)
(5.9603 -0.0496152 2.40728e-20 0.00223141 -4.92231e-23 3.82178e-37)
(6.05106 -0.0336432 0 0.00175078 0 0)
(6.09972 -0.0185432 -2.35308e-20 0.00141138 -1.67205e-23 3.67946e-37)
(6.1095 -0.00460936 -2.31752e-20 0.00118647 -4.36656e-23 3.60986e-37)
(6.08179 0.00802632 0 0.00105048 0 0)
(6.02034 0.0192186 0 0.000982157 0 0)
(5.92842 0.0288972 0 0.000962675 0 0)
(5.81042 0.037062 -2.13461e-20 0.000974783 -1.13929e-22 3.34173e-37)
(5.66995 0.0437658 0 0.00100604 0 0)
(5.51096 0.0491161 0 0.0010459 0 0)
(5.33689 0.053251 0 0.00108856 0 0)
(5.15096 0.0563235 0 0.00112997 0 0)
(4.95589 0.0584859 0 0.00116905 0 0)
(4.75408 0.059888 0 0.00120442 0 0)
(4.54755 0.060659 0 0.00123558 0 0)
(4.33801 0.0609115 0 0.00126083 0 0)
(4.12687 0.0607458 1.65773e-20 0.00127882 1.30364e-22 2.79596e-37)
(3.91531 0.0602554 0 0.00128738 0 0)
(3.70418 0.0595308 0 0.00128625 0 0)
(3.49409 0.0586487 -1.51339e-20 0.00127711 -1.20154e-22 2.63083e-37)
(3.28547 0.0576575 -1.4679e-20 0.00126353 -1.16393e-22 2.57756e-37)
(3.07872 0.0565631 0 0.00124997 0 0)
(2.87431 0.0553319 1.3809e-20 0.00123935 1.08447e-22 2.47364e-37)
(2.6729 0.0539134 -1.33945e-20 0.00123205 -1.04179e-22 2.42296e-37)
(2.47531 0.0522614 0 0.00122574 0 0)
(2.28256 0.0503459 1.26082e-20 0.00121571 9.49665e-23 2.32411e-37)
(2.09571 0.0481657 0 0.00119742 0 0)
(1.91576 0.0457548 0 0.0011689 0 0)
(1.74356 0.0431436 -1.15427e-20 0.0011297 -7.96514e-23 2.18197e-37)
(1.57984 0.0403664 0 0.0010814 0 0)
(1.42535 0.037439 1.09111e-20 0.0010246 6.89297e-23 2.09118e-37)
(1.28077 0.0343859 0 0.000959701 0 0)
(1.14675 0.0312557 -1.03427e-20 0.000887495 -5.81171e-23 2.00346e-37)
(1.0237 0.0281004 -1.00819e-20 0.000808497 -5.27988e-23 1.96073e-37)
(0.911769 0.0249937 -9.83592e-21 0.000724925 -4.76247e-23 1.91873e-37)
(0.810847 0.0220041 -1.92084e-20 0.000639512 -8.53115e-23 7.50988e-37)
(0.720582 0.0191923 1.8772e-20 0.000555375 7.58732e-23 7.34769e-37)
(0.64039 0.0165973 0 0.000475089 0 0)
(0.569559 0.0142415 0 0.000400644 0 0)
(0.507325 0.012133 0 0.000333323 0 0)
(0.45286 0.0102778 1.726e-20 0.000274415 4.41779e-23 6.72688e-37)
(0.405299 0.00864562 1.69316e-20 0.000222877 3.77792e-23 6.57847e-37)
(0.363828 0.00722371 -1.66197e-20 0.000178744 -3.19615e-23 6.43269e-37)
(0.327765 0.00599365 0 0.000141516 0 0)
(0.296462 0.00493532 1.60405e-20 0.000110534 2.19225e-23 6.14889e-37)
(0.26933 0.00402894 1.57708e-20 8.50796e-05 1.76382e-23 6.0108e-37)
(0.245844 0.00325578 1.55128e-20 6.444e-05 1.38004e-23 5.87519e-37)
(0.225536 0.00259863 0 4.79361e-05 0 0)
(0.207993 0.00204194 0 3.4942e-05 0 0)
(0.192852 0.00157187 0 2.48916e-05 0 0)
(0.179796 0.00117621 1.45804e-20 1.72802e-05 2.29113e-24 5.35689e-37)
(0.168546 0.000844241 0 1.1663e-05 0 0)
(0.158864 0.000566625 0 7.65135e-06 0 0)
(0.150538 0.000335232 -1.39649e-20 4.9094e-06 3.07542e-24 4.9925e-37)
(0.143389 0.000143023 0 3.1506e-06 0 0)
(0.13726 -1.60715e-05 0 2.13405e-06 0 0)
(0.132017 -0.000147274 -1.34033e-20 1.66109e-06 6.3642e-24 4.64792e-37)
(0.127544 -0.000255048 0 1.57117e-06 0 0)
(0.123742 -0.000343194 0 1.73767e-06 0 0)
(0.120526 -0.0004149 1.28833e-20 2.06326e-06 -8.14238e-24 4.32226e-37)
(0.117824 -0.000472851 1.27175e-20 2.47501e-06 -8.48197e-24 4.21775e-37)
(0.115575 -0.000519265 0 2.9198e-06 0 0)
(0.113726 -0.000555919 -1.23954e-20 3.3597e-06 8.87094e-24 4.01463e-37)
(0.112231 -0.000584309 0 3.76874e-06 0 0)
(0.111054 -0.000605607 1.20845e-20 4.12911e-06 -8.94436e-24 3.81916e-37)
(0.110158 -0.000620619 0 4.42769e-06 0 0)
(0.109514 -0.000630235 1.1783e-20 4.65934e-06 -8.76912e-24 3.63109e-37)
(0.109097 -0.000635042 1.16353e-20 4.82013e-06 -8.60839e-24 3.53976e-37)
(0.10888 -0.000635398 0 4.90732e-06 0 0)
(0.108842 -0.000632239 0 4.93292e-06 0 0)
(0.108963 -0.000625645 0 4.89605e-06 0 0)
(0.109218 -0.000614564 0 4.77345e-06 0 0)
(0.109587 -0.000599085 0 4.56619e-06 0 0)
(0.11005 -0.000579886 0 4.29037e-06 0 0)
(0.110586 -0.000557612 0 3.96321e-06 0 0)
(0.111179 -0.000532958 1.05094e-20 3.60359e-06 -6.18412e-24 2.87033e-37)
(0.111814 -0.00050668 -1.03739e-20 3.2308e-06 5.81552e-24 2.7939e-37)
(0.112478 -0.000479461 0 2.86117e-06 0 0)
(0.113161 -0.000451879 0 2.50689e-06 0 0)
(0.113854 -0.000424404 0 2.17638e-06 0 0)
(0.11455 -0.000397432 0 1.87502e-06 0 0)
(0.115245 -0.000371284 -1.9417e-20 1.60546e-06 8.31362e-24 9.73659e-37)
(0.115935 -0.000346185 0 1.36788e-06 0 0)
(0.116616 -0.000322245 1.8895e-20 1.1604e-06 -7.23499e-24 9.201e-37)
(0.117287 -0.000299502 -1.86361e-20 9.80238e-07 6.75082e-24 8.94141e-37)
(0.117946 -0.000277966 0 8.24551e-07 0 0)
(0.118592 -0.000257708 0 6.91282e-07 0 0)
(0.119226 -0.000238821 0 5.78679e-07 0 0)
(0.119847 -0.000221371 1.76139e-20 4.84687e-07 -5.17087e-24 7.95574e-37)
(0.120455 -0.000205365 1.73617e-20 4.06936e-07 -4.8602e-24 7.72207e-37)
(0.12105 -0.000190725 0 3.42745e-07 0 0)
(0.121633 -0.000177346 1.68612e-20 2.89688e-07 -4.32232e-24 7.26945e-37)
(0.122203 -0.000165132 1.6613e-20 2.45808e-07 -4.09045e-24 7.05034e-37)
(0.122761 -0.000154006 -1.6366e-20 2.09545e-07 3.87939e-24 6.83593e-37)
(0.123306 -0.000143905 0 1.7964e-07 0 0)
(0.12384 -0.000134787 0 1.55102e-07 0 0)
(0.124362 -0.000126625 -1.56331e-20 1.35116e-07 3.35467e-24 6.22012e-37)
(0.124875 -0.000119412 0 1.19019e-07 0 0)
(0.12538 -0.000113131 0 1.06184e-07 0 0)
(0.125877 -0.000107733 0 9.60072e-08 0 0)