/*--------------------------------*- C++ -*----------------------------------*\
  =========                 |
  \\      /  F ield         | OpenFOAM: The Open Source CFD Toolbox
   \\    /   O peration     | Website:  https://openfoam.org
    \\  /    A nd           | Version:  7
     \\/     M anipulation  |
\*---------------------------------------------------------------------------*/
FoamFile
{
    version     2.0;
    format      ascii;
    class       surfaceScalarField;
    location    "0.033";
    object      phi_0;
}
// * * * * * * * * * * * * * * * * * * * * * * * * * * * * * * * * * * * * * //

dimensions      [0 3 -1 0 0 0 0];

internalField   nonuniform List<scalar> 
24170
(
1.4201e-06
2.1846e-07
1.2828e-06
1.37304e-07
1.14588e-06
1.36923e-07
1.01122e-06
1.34655e-07
8.91044e-07
1.2018e-07
7.88322e-07
1.02722e-07
6.95471e-07
9.2851e-08
6.07325e-07
8.81462e-08
5.26062e-07
8.12622e-08
4.55591e-07
7.04713e-08
3.97484e-07
5.81073e-08
3.5063e-07
4.68538e-08
3.12427e-07
3.8203e-08
2.8075e-07
3.16773e-08
2.53244e-07
2.75062e-08
2.29412e-07
2.38322e-08
2.06337e-07
2.30747e-08
1.85745e-08
1.87762e-07
1.68483e-06
2.72028e-07
1.66217e-06
1.59965e-07
1.63948e-06
1.59607e-07
1.60181e-06
1.72331e-07
1.5497e-06
1.72285e-07
1.4921e-06
1.60325e-07
1.43755e-06
1.47404e-07
1.389e-06
1.36693e-07
1.3445e-06
1.25759e-07
1.3006e-06
1.14376e-07
1.25605e-06
1.0266e-07
1.21141e-06
9.14885e-08
1.16884e-06
8.07763e-08
1.12925e-06
7.12645e-08
1.0919e-06
6.48529e-08
1.0569e-06
5.88344e-08
1.022e-06
5.79793e-08
5.52925e-08
9.85279e-07
1.77123e-06
3.58111e-07
1.75898e-06
1.72217e-07
1.7583e-06
1.60293e-07
1.75095e-06
1.79681e-07
1.73898e-06
1.84248e-07
1.72354e-06
1.75765e-07
1.70752e-06
1.63432e-07
1.6938e-06
1.50412e-07
1.68287e-06
1.36688e-07
1.6733e-06
1.23939e-07
1.6626e-06
1.13368e-07
1.64909e-06
1.04996e-07
1.63242e-06
9.74482e-08
1.61382e-06
8.98577e-08
1.59423e-06
8.44499e-08
1.5744e-06
7.86582e-08
1.55592e-06
7.64644e-08
7.56005e-08
1.53561e-06
1.95045e-06
4.61714e-07
1.91114e-06
2.11529e-07
1.88849e-06
1.82941e-07
1.86873e-06
1.99443e-07
1.85994e-06
1.93035e-07
1.85963e-06
1.76084e-07
1.85944e-06
1.63614e-07
1.85586e-06
1.54e-07
1.85072e-06
1.41827e-07
1.84691e-06
1.27742e-07
1.84484e-06
1.15443e-07
1.84317e-06
1.06668e-07
1.84024e-06
1.00375e-07
1.83571e-06
9.43864e-08
1.83055e-06
8.96065e-08
1.82484e-06
8.43769e-08
1.81982e-06
8.14763e-08
8.14093e-08
1.81402e-06
2.09047e-06
4.68113e-07
2.06606e-06
2.35935e-07
2.04329e-06
2.05718e-07
2.02643e-06
2.16298e-07
2.01617e-06
2.033e-07
2.00957e-06
1.8268e-07
2.00356e-06
1.69627e-07
1.99708e-06
1.60475e-07
1.99076e-06
1.48155e-07
1.9858e-06
1.32693e-07
1.98299e-06
1.18257e-07
1.98228e-06
1.07379e-07
1.98299e-06
9.96607e-08
1.98422e-06
9.31579e-08
1.98583e-06
8.79953e-08
1.98669e-06
8.35244e-08
1.98701e-06
8.115e-08
8.17718e-08
1.98665e-06
2.20264e-06
4.47112e-07
2.18234e-06
2.5624e-07
2.17434e-06
2.1372e-07
2.17012e-06
2.20512e-07
2.16298e-06
2.10441e-07
2.15693e-06
1.88737e-07
2.15637e-06
1.70184e-07
2.16075e-06
1.56098e-07
2.16603e-06
1.42872e-07
2.1688e-06
1.29922e-07
2.16832e-06
1.18735e-07
2.16574e-06
1.09963e-07
2.16251e-06
1.02888e-07
2.15916e-06
9.65075e-08
2.15597e-06
9.1182e-08
2.15226e-06
8.72384e-08
2.14806e-06
8.53454e-08
8.64786e-08
2.14336e-06
2.4056e-06
4.11595e-07
2.38465e-06
2.77187e-07
2.36365e-06
2.34719e-07
2.35866e-06
2.25508e-07
2.35431e-06
2.1479e-07
2.34575e-06
1.97296e-07
2.33809e-06
1.77838e-07
2.33573e-06
1.58461e-07
2.33734e-06
1.41259e-07
2.3387e-06
1.28568e-07
2.33682e-06
1.20614e-07
2.33134e-06
1.15437e-07
2.32369e-06
1.1054e-07
2.31548e-06
1.04717e-07
2.30806e-06
9.86031e-08
2.30177e-06
9.35308e-08
2.29659e-06
9.05298e-08
9.04589e-08
2.2926e-06
2.57043e-06
4.09451e-07
2.58895e-06
2.58666e-07
2.58993e-06
2.33739e-07
2.57858e-06
2.36858e-07
2.55855e-06
2.34822e-07
2.53769e-06
2.18156e-07
2.52404e-06
1.91482e-07
2.52036e-06
1.62146e-07
2.52355e-06
1.38069e-07
2.52807e-06
1.24042e-07
2.52964e-06
1.19044e-07
2.52674e-06
1.18341e-07
2.52015e-06
1.17129e-07
2.51177e-06
1.13097e-07
2.50337e-06
1.07003e-07
2.49602e-06
1.00876e-07
2.48987e-06
9.66862e-08
9.60228e-08
2.4843e-06
2.80266e-06
3.99276e-07
2.75475e-06
3.06574e-07
2.7266e-06
2.6189e-07
2.72324e-06
2.4021e-07
2.72825e-06
2.29813e-07
2.73157e-06
2.14837e-07
2.73188e-06
1.91176e-07
2.72912e-06
1.64904e-07
2.72321e-06
1.43979e-07
2.71527e-06
1.31981e-07
2.70712e-06
1.272e-07
2.70015e-06
1.25308e-07
2.69486e-06
1.2242e-07
2.69114e-06
1.16812e-07
2.68864e-06
1.09511e-07
2.68689e-06
1.02618e-07
2.68551e-06
9.80717e-08
9.67855e-08
2.68475e-06
2.95168e-06
4.59e-07
2.94065e-06
3.17609e-07
2.93672e-06
2.65819e-07
2.92863e-06
2.48302e-07
2.92421e-06
2.34228e-07
2.92788e-06
2.1117e-07
2.93438e-06
1.84672e-07
2.93592e-06
1.63362e-07
2.9306e-06
1.49302e-07
2.92281e-06
1.39767e-07
2.91802e-06
1.31989e-07
2.91843e-06
1.24897e-07
2.92244e-06
1.18413e-07
2.92653e-06
1.12719e-07
2.9278e-06
1.08241e-07
2.92521e-06
1.05217e-07
2.91934e-06
1.03935e-07
1.04251e-07
2.91188e-06
3.21358e-06
4.08856e-07
3.19064e-06
3.40549e-07
3.16505e-06
2.91402e-07
3.14128e-06
2.72076e-07
3.12893e-06
2.46572e-07
3.12601e-06
2.14092e-07
3.12505e-06
1.85636e-07
3.12212e-06
1.66292e-07
3.11892e-06
1.52501e-07
3.11913e-06
1.3956e-07
3.12452e-06
1.26596e-07
3.13379e-06
1.1563e-07
3.14385e-06
1.08352e-07
3.15148e-06
1.05085e-07
3.15476e-06
1.04965e-07
3.15332e-06
1.06654e-07
3.14807e-06
1.09186e-07
1.11267e-07
3.14106e-06
2.84856e-06
4.55796e-07
2.84461e-06
3.44496e-07
2.84354e-06
2.92472e-07
2.84112e-06
2.745e-07
2.83709e-06
2.50603e-07
2.83122e-06
2.19958e-07
2.82624e-06
1.90617e-07
2.8254e-06
1.6713e-07
2.82928e-06
1.48619e-07
2.83574e-06
1.33106e-07
2.84179e-06
1.20539e-07
2.84536e-06
1.12063e-07
2.84575e-06
1.07965e-07
2.84325e-06
1.07586e-07
2.83871e-06
1.09498e-07
2.8331e-06
1.12272e-07
2.8274e-06
1.14883e-07
1.16714e-07
2.82195e-06
3.45224e-06
3.894e-07
3.4859e-06
3.10839e-07
3.495e-06
2.83368e-07
3.49578e-06
2.73722e-07
3.49426e-06
2.52121e-07
3.49435e-06
2.19865e-07
3.49703e-06
1.87939e-07
3.50059e-06
1.63566e-07
3.50219e-06
1.47023e-07
3.50001e-06
1.35285e-07
3.49443e-06
1.2612e-07
3.48734e-06
1.1915e-07
3.48079e-06
1.14522e-07
3.47577e-06
1.12603e-07
3.47227e-06
1.12995e-07
3.46987e-06
1.14673e-07
3.46782e-06
1.16933e-07
1.18144e-07
3.46639e-06
4.36419e-06
4.8056e-07
4.29964e-06
3.75395e-07
4.2623e-06
3.20701e-07
4.24876e-06
2.87269e-07
4.25123e-06
2.49645e-07
4.2596e-06
2.11494e-07
4.26401e-06
1.83536e-07
4.2597e-06
1.6787e-07
4.24924e-06
1.57481e-07
4.23934e-06
1.45184e-07
4.23592e-06
1.29541e-07
4.24091e-06
1.14168e-07
4.25224e-06
1.03188e-07
4.26559e-06
9.92564e-08
4.27649e-06
1.02091e-07
4.28204e-06
1.0912e-07
4.28119e-06
1.17786e-07
1.24592e-07
4.27474e-06
5.30709e-06
4.76181e-07
5.24946e-06
4.33024e-07
5.20855e-06
3.61615e-07
5.18988e-06
3.05935e-07
5.18078e-06
2.58749e-07
5.17307e-06
2.19205e-07
5.16449e-06
1.92109e-07
5.15893e-06
1.73435e-07
5.16021e-06
1.56201e-07
5.16715e-06
1.38243e-07
5.175e-06
1.21685e-07
5.17993e-06
1.09244e-07
5.181e-06
1.02117e-07
5.18008e-06
1.00179e-07
5.1798e-06
1.0237e-07
5.18199e-06
1.06929e-07
5.18795e-06
1.11828e-07
1.15468e-07
5.19707e-06
6.33129e-06
4.07705e-07
6.36421e-06
4.00097e-07
6.38112e-06
3.44709e-07
6.39006e-06
2.96998e-07
6.39e-06
2.588e-07
6.38254e-06
2.26671e-07
6.37337e-06
2.01277e-07
6.36711e-06
1.79699e-07
6.36348e-06
1.59827e-07
6.35868e-06
1.43048e-07
6.34991e-06
1.30456e-07
6.33815e-06
1.21005e-07
6.32729e-06
1.12975e-07
6.32226e-06
1.05203e-07
6.32647e-06
9.8166e-08
6.34062e-06
9.27761e-08
6.36319e-06
8.92577e-08
8.87069e-08
6.38995e-06
7.82053e-06
4.77116e-07
7.8086e-06
4.12031e-07
7.79208e-06
3.61229e-07
7.79747e-06
2.91605e-07
7.80891e-06
2.4736e-07
7.80431e-06
2.31269e-07
7.78164e-06
2.23945e-07
7.75259e-06
2.08754e-07
7.72895e-06
1.83464e-07
7.7167e-06
1.55303e-07
7.71657e-06
1.30586e-07
7.72634e-06
1.11231e-07
7.74287e-06
9.64435e-08
7.76331e-06
8.47646e-08
7.78594e-06
7.55365e-08
7.8096e-06
6.91162e-08
7.83355e-06
6.53094e-08
6.53945e-08
7.85686e-06
9.31541e-06
4.84454e-07
9.35956e-06
3.67873e-07
9.39749e-06
3.23304e-07
9.40815e-06
2.80942e-07
9.39999e-06
2.55522e-07
9.39112e-06
2.40142e-07
9.39956e-06
2.15507e-07
9.42999e-06
1.78321e-07
9.47383e-06
1.39624e-07
9.51867e-06
1.10462e-07
9.55524e-06
9.40183e-08
9.57938e-06
8.70867e-08
9.59155e-06
8.42761e-08
9.59485e-06
8.14653e-08
9.59391e-06
7.64758e-08
9.59298e-06
7.00485e-08
9.59543e-06
6.28533e-08
5.70495e-08
9.60378e-06
1.12508e-05
4.0832e-07
1.13147e-05
3.03971e-07
1.13874e-05
2.50661e-07
1.14486e-05
2.19688e-07
1.15022e-05
2.01899e-07
1.15629e-05
1.79501e-07
1.16351e-05
1.4329e-07
1.17106e-05
1.02809e-07
1.17777e-05
7.25656e-08
1.18298e-05
5.83185e-08
1.18668e-05
5.70259e-08
1.18907e-05
6.31492e-08
1.19039e-05
7.10831e-08
1.19084e-05
7.70083e-08
1.19066e-05
7.82677e-08
1.19018e-05
7.48395e-08
1.18974e-05
6.72057e-08
5.70108e-08
1.18975e-05
8.52218e-06
3.41302e-07
8.51308e-06
3.13071e-07
8.48225e-06
2.81485e-07
8.4938e-06
2.0814e-07
8.53637e-06
1.59329e-07
8.58476e-06
1.31116e-07
8.6176e-06
1.10451e-07
8.62827e-06
9.21308e-08
8.62385e-06
7.69861e-08
8.61554e-06
6.66332e-08
8.61096e-06
6.16088e-08
8.61293e-06
6.11711e-08
8.62104e-06
6.29811e-08
8.63341e-06
6.46298e-08
8.64804e-06
6.36451e-08
8.66369e-06
5.91901e-08
8.67975e-06
5.114e-08
4.05168e-08
8.69625e-06
7.41992e-06
3.99879e-07
7.40203e-06
3.30964e-07
7.42774e-06
2.55779e-07
7.45614e-06
1.79738e-07
7.4909e-06
1.24564e-07
7.52459e-06
9.7434e-08
7.54989e-06
8.51424e-08
7.56739e-06
7.4634e-08
7.58165e-06
6.27241e-08
7.59515e-06
5.31416e-08
7.60755e-06
4.92079e-08
7.61831e-06
5.04022e-08
7.62809e-06
5.32108e-08
7.63843e-06
5.42891e-08
7.65016e-06
5.1914e-08
7.66309e-06
4.62592e-08
7.67588e-06
3.83474e-08
2.94356e-08
7.68696e-06
6.44437e-06
4.22642e-07
6.44607e-06
3.2926e-07
6.45419e-06
2.47657e-07
6.46809e-06
1.6584e-07
6.48842e-06
1.0424e-07
6.51354e-06
7.23084e-08
6.5386e-06
6.00846e-08
6.55978e-06
5.34523e-08
6.57633e-06
4.61776e-08
6.58978e-06
3.96914e-08
6.60298e-06
3.60068e-08
6.61914e-06
3.4238e-08
6.64047e-06
3.18852e-08
6.6673e-06
2.74589e-08
6.69773e-06
2.14858e-08
6.72869e-06
1.52976e-08
6.75671e-06
1.03246e-08
7.35199e-09
6.77879e-06
5.63363e-06
3.79722e-07
5.65822e-06
3.04662e-07
5.67603e-06
2.29846e-07
5.6953e-06
1.4657e-07
5.71409e-06
8.54496e-08
5.73248e-06
5.39259e-08
5.74902e-06
4.35378e-08
5.76069e-06
4.17854e-08
5.76723e-06
3.96338e-08
5.77256e-06
3.43704e-08
5.78205e-06
2.65086e-08
5.79953e-06
1.67583e-08
5.82542e-06
5.9969e-09
5.85827e-06
-5.39127e-09
5.89437e-06
-1.4612e-08
5.92968e-06
-2.00123e-08
5.96091e-06
-2.09036e-08
-1.73657e-08
5.98563e-06
4.87669e-06
3.87966e-07
4.90821e-06
2.73144e-07
4.93346e-06
2.04589e-07
4.94433e-06
1.35703e-07
4.96093e-06
6.88488e-08
4.98987e-06
2.49846e-08
5.02695e-06
6.46109e-09
5.06503e-06
3.70053e-09
5.09891e-06
5.76129e-09
5.12675e-06
6.52639e-09
5.14929e-06
3.97191e-09
5.16781e-06
-1.76039e-09
5.18301e-06
-9.20296e-09
5.19513e-06
-1.75194e-08
5.20477e-06
-2.42435e-08
5.21253e-06
-2.77753e-08
5.21903e-06
-2.74024e-08
-2.31402e-08
5.2248e-06
4.12589e-06
3.41391e-07
4.24158e-06
1.57453e-07
4.30662e-06
1.39552e-07
4.34412e-06
9.82067e-08
4.37369e-06
3.92722e-08
4.39821e-06
4.69119e-10
4.42028e-06
-1.56144e-08
4.4397e-06
-1.57206e-08
4.46022e-06
-1.4753e-08
4.48437e-06
-1.7627e-08
4.51138e-06
-2.30327e-08
4.53793e-06
-2.83151e-08
4.56066e-06
-3.19275e-08
4.57705e-06
-3.39125e-08
4.58681e-06
-3.40014e-08
4.59111e-06
-3.20768e-08
4.5919e-06
-2.81891e-08
-2.25464e-08
4.5913e-06
3.75023e-06
2.62121e-07
3.80073e-06
1.06956e-07
3.86034e-06
7.99423e-08
3.89949e-06
5.90604e-08
3.91345e-06
2.53076e-08
3.91463e-06
-7.12001e-10
3.91119e-06
-1.21754e-08
3.9149e-06
-1.9427e-08
3.9275e-06
-2.73571e-08
3.94593e-06
-3.60503e-08
3.96509e-06
-4.21985e-08
3.98059e-06
-4.38167e-08
3.9904e-06
-4.17375e-08
3.99477e-06
-3.82765e-08
3.9959e-06
-3.51355e-08
3.99652e-06
-3.26983e-08
3.99904e-06
-3.07083e-08
-2.83383e-08
4.00483e-06
3.26754e-06
1.8578e-07
3.30771e-06
6.67865e-08
3.34193e-06
4.57243e-08
3.37325e-06
2.77408e-08
3.39386e-06
4.70174e-09
3.40669e-06
-1.3542e-08
3.42e-06
-2.54905e-08
3.43676e-06
-3.61802e-08
3.45572e-06
-4.63254e-08
3.47313e-06
-5.34586e-08
3.4862e-06
-5.52698e-08
3.49435e-06
-5.19597e-08
3.49868e-06
-4.6068e-08
3.50115e-06
-4.07445e-08
3.50382e-06
-3.78091e-08
3.50822e-06
-3.70979e-08
3.51515e-06
-3.76419e-08
-3.78891e-08
3.5247e-06
2.88903e-06
6.40485e-08
2.94737e-06
8.4405e-09
2.96856e-06
2.45376e-08
2.99182e-06
4.48285e-09
3.02082e-06
-2.43005e-08
3.05318e-06
-4.59069e-08
3.08244e-06
-5.47464e-08
3.10227e-06
-5.60123e-08
3.11143e-06
-5.54801e-08
3.1134e-06
-5.54376e-08
3.11296e-06
-5.48244e-08
3.11318e-06
-5.21824e-08
3.11487e-06
-4.77553e-08
3.11757e-06
-4.34412e-08
3.12065e-06
-4.08947e-08
3.12391e-06
-4.03522e-08
3.12732e-06
-4.10606e-08
-4.14588e-08
3.13089e-06
2.53934e-06
4.33378e-08
2.58171e-06
-3.3923e-08
2.61586e-06
-9.61397e-09
2.64972e-06
-2.93826e-08
2.67584e-06
-5.04124e-08
2.68985e-06
-5.99206e-08
2.69443e-06
-5.93311e-08
2.69255e-06
-5.41309e-08
2.68666e-06
-4.95906e-08
2.67871e-06
-4.74814e-08
2.67002e-06
-4.6135e-08
2.66135e-06
-4.35115e-08
2.65314e-06
-3.95444e-08
2.6457e-06
-3.60079e-08
2.63922e-06
-3.44136e-08
2.63375e-06
-3.48788e-08
2.62905e-06
-3.63582e-08
-3.70838e-08
2.62467e-06
2.15912e-06
2.1252e-06
2.11559e-06
2.0862e-06
2.03579e-06
1.97587e-06
1.91654e-06
1.86241e-06
1.81282e-06
1.76534e-06
1.7192e-06
1.67569e-06
1.63615e-06
1.60014e-06
1.56573e-06
1.53085e-06
1.49449e-06
1.4574e-06
5.74639e-08
-5.74639e-08
1.38984e-07
-8.15206e-08
2.2321e-07
-8.42256e-08
3.0621e-07
-8.3e-08
3.87741e-07
-8.15313e-08
4.68176e-07
-8.04342e-08
5.47795e-07
-7.96195e-08
6.26608e-07
-7.88126e-08
7.04302e-07
-7.76946e-08
7.80238e-07
-7.5936e-08
8.53474e-07
-7.32357e-08
9.22793e-07
-6.93196e-08
9.86752e-07
-6.39585e-08
1.04379e-06
-5.70402e-08
1.0924e-06
-4.86052e-08
1.13092e-06
-3.85253e-08
1.15748e-06
-2.65531e-08
1.17003e-06
-1.25591e-08
1.16688e-06
3.1544e-09
1.14607e-06
2.08079e-08
1.1086e-06
3.7476e-08
1.05363e-06
5.49689e-08
9.76765e-07
7.68631e-08
8.69357e-07
1.07408e-07
7.19737e-07
1.4962e-07
5.17125e-07
2.02612e-07
2.5637e-07
2.60755e-07
-5.71208e-08
3.13491e-07
-4.04726e-07
3.47605e-07
-7.64186e-07
3.5946e-07
-1.12205e-06
3.57865e-07
-1.47159e-06
3.49541e-07
-1.80929e-06
3.37698e-07
-2.13299e-06
3.23705e-07
-2.44141e-06
3.08415e-07
-2.73374e-06
2.92328e-07
-3.00934e-06
2.75607e-07
-3.26756e-06
2.58215e-07
-3.50767e-06
2.40106e-07
-3.72892e-06
2.21255e-07
-3.93052e-06
2.01601e-07
-4.11151e-06
1.80991e-07
-4.27081e-06
1.59299e-07
-4.40733e-06
1.3652e-07
-4.52009e-06
1.12755e-07
-4.60828e-06
8.81888e-08
-4.67142e-06
6.31438e-08
-4.70951e-06
3.8093e-08
-4.723e-06
1.3485e-08
-4.71327e-06
-9.72988e-09
-4.68164e-06
-3.16292e-08
-4.62968e-06
-5.19572e-08
-4.55928e-06
-7.03973e-08
-4.47232e-06
-8.69647e-08
-4.37062e-06
-1.01703e-07
-4.25588e-06
-1.14741e-07
-4.12962e-06
-1.26252e-07
-3.99308e-06
-1.36543e-07
-3.84715e-06
-1.45928e-07
-3.69239e-06
-1.54764e-07
-3.52904e-06
-1.63349e-07
-3.35716e-06
-1.71883e-07
-3.17675e-06
-1.80405e-07
-2.988e-06
-1.88751e-07
-2.79143e-06
-1.96574e-07
-2.58802e-06
-2.03409e-07
-2.37925e-06
-2.08771e-07
-2.16698e-06
-2.12264e-07
-1.95333e-06
-2.13658e-07
-1.7404e-06
-2.12926e-07
-1.53019e-06
-2.1021e-07
-1.32443e-06
-2.05758e-07
-1.12456e-06
-1.99875e-07
-9.31684e-07
-1.92872e-07
-7.46648e-07
-1.85036e-07
-5.70015e-07
-1.76633e-07
-4.02088e-07
-1.67928e-07
-2.43065e-07
-1.59022e-07
-9.29658e-08
-1.501e-07
4.82301e-08
-1.41196e-07
1.80924e-07
-1.32694e-07
3.05244e-07
-1.2432e-07
4.21425e-07
-1.16181e-07
5.29754e-07
-1.08329e-07
6.30546e-07
-1.00792e-07
7.24135e-07
-9.35894e-08
8.10867e-07
-8.67321e-08
8.91094e-07
-8.0227e-08
9.65172e-07
-7.40771e-08
1.03345e-06
-6.82817e-08
1.09629e-06
-6.28367e-08
1.15402e-06
-5.77336e-08
1.20698e-06
-5.29603e-08
1.25548e-06
-4.85007e-08
1.29982e-06
-4.43354e-08
1.34026e-06
-4.04427e-08
1.37706e-06
-3.67997e-08
1.41045e-06
-3.33837e-08
1.44062e-06
-3.01736e-08
1.46777e-06
-2.71509e-08
1.49207e-06
-2.43004e-08
1.51368e-06
-2.16108e-08
1.53276e-06
-1.90747e-08
1.54944e-06
-1.66872e-08
1.56389e-06
-1.44466e-08
1.57624e-06
-1.2353e-08
1.58665e-06
-1.04054e-08
1.59525e-06
-8.60626e-09
1.60221e-06
-6.95377e-09
1.60765e-06
-5.44474e-09
1.61174e-06
-4.08253e-09
1.61459e-06
-2.85212e-09
1.61634e-06
-1.75094e-09
1.61712e-06
-7.81058e-10
1.61702e-06
9.5265e-11
1.61612e-06
9.04815e-10
1.61451e-06
1.60744e-09
1.61231e-06
2.20074e-09
1.60961e-06
2.69754e-09
1.6065e-06
3.10965e-09
1.60306e-06
3.44799e-09
1.59933e-06
3.72179e-09
1.59539e-06
3.94127e-09
1.59127e-06
4.12083e-09
1.587e-06
4.26838e-09
1.58262e-06
4.38117e-09
1.57816e-06
4.46512e-09
1.57363e-06
4.52632e-09
1.56905e-06
4.58325e-09
1.56442e-06
4.63181e-09
1.55975e-06
4.67117e-09
1.55504e-06
4.70212e-09
1.55032e-06
4.72552e-09
1.54557e-06
4.74369e-09
1.54082e-06
4.75411e-09
1.53606e-06
4.7556e-09
1.53132e-06
4.74681e-09
1.52659e-06
4.7275e-09
1.52189e-06
4.69874e-09
1.51723e-06
4.66455e-09
1.5126e-06
4.63005e-09
1.508e-06
4.59945e-09
1.50342e-06
4.57538e-09
1.49886e-06
4.55865e-09
1.49431e-06
4.54891e-09
1.48977e-06
4.54519e-09
1.48522e-06
4.54659e-09
1.48067e-06
4.55246e-09
1.47611e-06
4.56247e-09
1.47153e-06
4.57654e-09
1.46694e-06
4.59473e-09
1.46232e-06
4.61734e-09
1.45767e-06
4.64468e-09
1.453e-06
4.67722e-09
1.44828e-06
4.71563e-09
1.44352e-06
4.76082e-09
1.43871e-06
4.81409e-09
1.43383e-06
4.87694e-09
1.42888e-06
4.9518e-09
1.42384e-06
5.04077e-09
1.41869e-06
5.14881e-09
1.41341e-06
5.27773e-09
1.40797e-06
5.4391e-09
1.40234e-06
5.63057e-09
1.39646e-06
5.88155e-09
1.39029e-06
6.16982e-09
1.38371e-06
6.57908e-09
1.37669e-06
7.01556e-09
1.36897e-06
7.7258e-09
1.36059e-06
8.37912e-09
1.35088e-06
9.70932e-09
1.34024e-06
1.06407e-08
1.32687e-06
1.33649e-08
1.31235e-06
1.45214e-08
1.29168e-06
2.06739e-08
1.27019e-06
2.14914e-08
1.23309e-06
3.70958e-08
1.19743e-06
3.56619e-08
1.11604e-06
8.13889e-08
7.58211e-08
1.04022e-06
4.5231e-08
-1.02695e-07
9.05677e-08
-1.26857e-07
1.33603e-07
-1.27261e-07
1.76331e-07
-1.25728e-07
2.19387e-07
-1.24588e-07
2.62749e-07
-1.23796e-07
3.06154e-07
-1.23024e-07
3.49098e-07
-1.21757e-07
3.90818e-07
-1.19414e-07
4.30272e-07
-1.1539e-07
4.66135e-07
-1.09099e-07
4.96696e-07
-9.98805e-08
5.19729e-07
-8.69912e-08
5.32495e-07
-6.9806e-08
5.31956e-07
-4.80665e-08
5.14933e-07
-2.15026e-08
4.78477e-07
9.90274e-09
4.19679e-07
4.62389e-08
3.34918e-07
8.79155e-08
2.20535e-07
1.35191e-07
6.96671e-08
1.88344e-07
-1.22414e-07
2.4705e-07
-3.56603e-07
3.11052e-07
-6.27906e-07
3.78711e-07
-9.24338e-07
4.46052e-07
-1.22936e-06
5.07638e-07
-1.52718e-06
5.58573e-07
-1.8079e-06
5.94205e-07
-2.07208e-06
6.11785e-07
-2.32595e-06
6.13337e-07
-2.57146e-06
6.03374e-07
-2.80787e-06
5.85945e-07
-3.03416e-06
5.63991e-07
-3.24993e-06
5.39474e-07
-3.45511e-06
5.136e-07
-3.64969e-06
4.86901e-07
-3.83353e-06
4.59448e-07
-4.00635e-06
4.3104e-07
-4.16752e-06
4.01277e-07
-4.31644e-06
3.70173e-07
-4.45242e-06
3.37581e-07
-4.57438e-06
3.02946e-07
-4.68111e-06
2.66028e-07
-4.77138e-06
2.26792e-07
-4.84402e-06
1.85395e-07
-4.89802e-06
1.42196e-07
-4.93264e-06
9.77579e-08
-4.94739e-06
5.28475e-08
-4.94237e-06
8.46216e-09
-4.91641e-06
-3.56898e-08
-4.87034e-06
-7.77023e-08
-4.80511e-06
-1.17183e-07
-4.72214e-06
-1.53368e-07
-4.62324e-06
-1.85868e-07
-4.51021e-06
-2.14728e-07
-4.38485e-06
-2.40108e-07
-4.24868e-06
-2.62415e-07
-4.10298e-06
-2.8224e-07
-3.9486e-06
-3.0031e-07
-3.78599e-06
-3.17378e-07
-3.61522e-06
-3.34115e-07
-3.43612e-06
-3.50986e-07
-3.24843e-06
-3.68094e-07
-3.0521e-06
-3.85086e-07
-2.84749e-06
-4.01176e-07
-2.6356e-06
-4.15302e-07
-2.41798e-06
-4.26394e-07
-2.19668e-06
-4.33563e-07
-1.97401e-06
-4.36331e-07
-1.75224e-06
-4.34691e-07
-1.53344e-06
-4.29007e-07
-1.31935e-06
-4.19853e-07
-1.11133e-06
-4.07899e-07
-9.10394e-07
-3.93803e-07
-7.17255e-07
-3.78175e-07
-5.32353e-07
-3.61535e-07
-3.55936e-07
-3.44345e-07
-1.88078e-07
-3.2688e-07
-2.86551e-08
-3.09523e-07
1.22654e-07
-2.92505e-07
2.6579e-07
-2.75829e-07
4.01041e-07
-2.59572e-07
5.28675e-07
-2.43815e-07
6.48977e-07
-2.28631e-07
7.62252e-07
-2.14067e-07
8.68818e-07
-2.00156e-07
9.69008e-07
-1.86922e-07
1.06316e-06
-1.7438e-07
1.15162e-06
-1.62538e-07
1.23474e-06
-1.51396e-07
1.31285e-06
-1.40947e-07
1.38629e-06
-1.31174e-07
1.45538e-06
-1.22053e-07
1.52043e-06
-1.1355e-07
1.58172e-06
-1.05627e-07
1.63952e-06
-9.82367e-08
1.69405e-06
-9.1332e-08
1.74553e-06
-8.48637e-08
1.79414e-06
-7.87848e-08
1.84004e-06
-7.30528e-08
1.88337e-06
-6.76314e-08
1.92425e-06
-6.2491e-08
1.96279e-06
-5.76098e-08
1.99907e-06
-5.29721e-08
2.03319e-06
-4.85683e-08
2.06523e-06
-4.43928e-08
2.09527e-06
-4.04421e-08
2.12338e-06
-3.67153e-08
2.14964e-06
-3.32101e-08
2.17411e-06
-2.99235e-08
2.19689e-06
-2.68531e-08
2.21802e-06
-2.39904e-08
2.2376e-06
-2.13304e-08
2.25569e-06
-1.88716e-08
2.27238e-06
-1.6595e-08
2.28777e-06
-1.44797e-08
2.3019e-06
-1.25263e-08
2.31484e-06
-1.07339e-08
2.32663e-06
-9.09237e-09
2.33732e-06
-7.58835e-09
2.34698e-06
-6.21031e-09
2.35565e-06
-4.95018e-09
2.36339e-06
-3.79519e-09
2.37024e-06
-2.72974e-09
2.37626e-06
-1.74986e-09
2.38149e-06
-8.51289e-10
2.38596e-06
-4.41548e-12
2.38973e-06
7.61399e-10
2.39282e-06
1.48869e-09
2.39529e-06
2.16024e-09
2.39718e-06
2.78025e-09
2.39854e-06
3.35078e-09
2.39939e-06
3.87244e-09
2.39978e-06
4.35318e-09
2.39974e-06
4.78901e-09
2.39932e-06
5.18164e-09
2.39853e-06
5.53182e-09
2.39742e-06
5.84199e-09
2.396e-06
6.11467e-09
2.39431e-06
6.35581e-09
2.39237e-06
6.57266e-09
2.3902e-06
6.77128e-09
2.38782e-06
6.95585e-09
2.38525e-06
7.12852e-09
2.3825e-06
7.29054e-09
2.37961e-06
7.44324e-09
2.37656e-06
7.58894e-09
2.37339e-06
7.73069e-09
2.37008e-06
7.87174e-09
2.36664e-06
8.01462e-09
2.36307e-06
8.16084e-09
2.35938e-06
8.31105e-09
2.35556e-06
8.46517e-09
2.35161e-06
8.62336e-09
2.34754e-06
8.786e-09
2.34335e-06
8.9542e-09
2.33903e-06
9.13011e-09
2.33459e-06
9.31627e-09
2.33003e-06
9.51749e-09
2.32533e-06
9.73706e-09
2.3205e-06
9.98491e-09
2.31551e-06
1.02628e-08
2.31036e-06
1.05931e-08
2.30502e-06
1.09692e-08
2.29945e-06
1.1446e-08
2.29364e-06
1.19787e-08
2.2875e-06
1.27198e-08
2.28102e-06
1.34954e-08
2.27401e-06
1.47414e-08
2.26651e-06
1.58766e-08
2.25807e-06
1.81499e-08
2.24894e-06
1.97657e-08
2.23802e-06
2.42849e-08
2.22614e-06
2.64109e-08
2.21058e-06
3.62288e-08
2.19343e-06
3.86444e-08
2.16847e-06
6.20567e-08
2.13938e-06
6.47463e-08
2.09497e-06
1.25802e-07
1.34681e-07
2.03611e-06
6.90879e-09
-1.09604e-07
9.57128e-10
-1.20906e-07
-6.30787e-09
-1.19996e-07
-1.34354e-08
-1.186e-07
-2.06272e-08
-1.17396e-07
-2.85781e-08
-1.15845e-07
-3.81386e-08
-1.13464e-07
-5.04161e-08
-1.0948e-07
-6.67156e-08
-1.03115e-07
-8.84974e-08
-9.36083e-08
-1.17409e-07
-8.01873e-08
-1.55169e-07
-6.21204e-08
-2.03762e-07
-3.83979e-08
-2.65528e-07
-8.04028e-09
-3.41321e-07
2.77262e-08
-4.32861e-07
7.00375e-08
-5.41971e-07
1.19012e-07
-6.70254e-07
1.74522e-07
-8.18652e-07
2.36313e-07
-9.87009e-07
3.03548e-07
-1.17334e-06
3.74672e-07
-1.3738e-06
4.47517e-07
-1.58202e-06
5.1927e-07
-1.7901e-06
5.86784e-07
-1.99079e-06
6.46749e-07
-2.17852e-06
6.95362e-07
-2.35008e-06
7.30133e-07
-2.50648e-06
7.5061e-07
-2.65257e-06
7.57878e-07
-2.79435e-06
7.55112e-07
-2.93605e-06
7.45077e-07
-3.08018e-06
7.30072e-07
-3.22794e-06
7.11753e-07
-3.37959e-06
6.91125e-07
-3.53463e-06
6.68636e-07
-3.69197e-06
6.44244e-07
-3.85008e-06
6.17558e-07
-4.00699e-06
5.87954e-07
-4.16054e-06
5.54827e-07
-4.30811e-06
5.17742e-07
-4.4469e-06
4.76368e-07
-4.57434e-06
4.30391e-07
-4.68796e-06
3.79648e-07
-4.78539e-06
3.24218e-07
-4.86447e-06
2.64474e-07
-4.92332e-06
2.01048e-07
-4.96044e-06
1.34872e-07
-4.97486e-06
6.72671e-08
-4.96706e-06
6.64382e-10
-4.93598e-06
-6.67636e-08
-4.8834e-06
-1.30284e-07
-4.8112e-06
-1.89389e-07
-4.72132e-06
-2.43248e-07
-4.61584e-06
-2.91343e-07
-4.49688e-06
-3.33685e-07
-4.36651e-06
-3.70484e-07
-4.22652e-06
-4.02401e-07
-4.07829e-06
-4.30469e-07
-3.92265e-06
-4.55958e-07
-3.75983e-06
-4.80193e-07
-3.58958e-06
-5.04366e-07
-3.41121e-06
-5.29352e-07
-3.22393e-06
-5.55379e-07
-3.02716e-06
-5.81855e-07
-2.82093e-06
-6.07408e-07
-2.60614e-06
-6.30096e-07
-2.38465e-06
-6.47877e-07
-2.15912e-06
-6.59096e-07
-1.93253e-06
-6.62925e-07
-1.70774e-06
-6.5948e-07
-1.48718e-06
-6.49567e-07
-1.27271e-06
-6.34317e-07
-1.06568e-06
-6.14931e-07
-8.6697e-07
-5.92512e-07
-6.77084e-07
-5.68061e-07
-4.96222e-07
-5.42397e-07
-3.24417e-07
-5.1615e-07
-1.61539e-07
-4.89758e-07
-7.39488e-09
-4.63667e-07
1.39061e-07
-4.38961e-07
2.77521e-07
-4.14288e-07
4.08431e-07
-3.90483e-07
5.3216e-07
-3.67544e-07
6.49025e-07
-3.45496e-07
7.59318e-07
-3.24359e-07
8.63318e-07
-3.04156e-07
9.61305e-07
-2.84909e-07
1.05357e-06
-2.66645e-07
1.14042e-06
-2.49389e-07
1.22218e-06
-2.33154e-07
1.29918e-06
-2.17945e-07
1.37175e-06
-2.03747e-07
1.44022e-06
-1.9053e-07
1.50492e-06
-1.78248e-07
1.56614e-06
-1.66841e-07
1.62414e-06
-1.5624e-07
1.67918e-06
-1.46368e-07
1.73146e-06
-1.37147e-07
1.78118e-06
-1.28502e-07
1.82849e-06
-1.20365e-07
1.87353e-06
-1.12675e-07
1.91642e-06
-1.05384e-07
1.95727e-06
-9.8453e-08
1.99615e-06
-9.18537e-08
2.03315e-06
-8.55665e-08
2.06833e-06
-7.95783e-08
2.10177e-06
-7.38804e-08
2.13352e-06
-6.84669e-08
2.16365e-06
-6.33324e-08
2.19219e-06
-5.84713e-08
2.21922e-06
-5.38775e-08
2.24477e-06
-4.95428e-08
2.2689e-06
-4.54583e-08
2.29164e-06
-4.16138e-08
2.31304e-06
-3.7995e-08
2.33315e-06
-3.45863e-08
2.352e-06
-3.13795e-08
2.36964e-06
-2.83716e-08
2.3861e-06
-2.55519e-08
2.40142e-06
-2.29068e-08
2.41563e-06
-2.04244e-08
2.42877e-06
-1.80944e-08
2.44089e-06
-1.59068e-08
2.45201e-06
-1.38498e-08
2.46217e-06
-1.19141e-08
2.47142e-06
-1.00965e-08
2.4798e-06
-8.39001e-09
2.48736e-06
-6.79371e-09
2.49413e-06
-5.28543e-09
2.50016e-06
-3.86702e-09
2.50548e-06
-2.53845e-09
2.51012e-06
-1.29459e-09
2.51413e-06
-1.37156e-10
2.51752e-06
9.5966e-10
2.52034e-06
1.97009e-09
2.52262e-06
2.90454e-09
2.52439e-06
3.76448e-09
2.52568e-06
4.55435e-09
2.52651e-06
5.27611e-09
2.52693e-06
5.93665e-09
2.52696e-06
6.54404e-09
2.52663e-06
7.10538e-09
2.52596e-06
7.62615e-09
2.52498e-06
8.11003e-09
2.52371e-06
8.55969e-09
2.52217e-06
8.97781e-09
2.52039e-06
9.36827e-09
2.51839e-06
9.73624e-09
2.51617e-06
1.00872e-08
2.51376e-06
1.04261e-08
2.51116e-06
1.07567e-08
2.50839e-06
1.10814e-08
2.50546e-06
1.14015e-08
2.50236e-06
1.1718e-08
2.49912e-06
1.20324e-08
2.49572e-06
1.23461e-08
2.49219e-06
1.26632e-08
2.48852e-06
1.29861e-08
2.48472e-06
1.33231e-08
2.48078e-06
1.36766e-08
2.4767e-06
1.40629e-08
2.47248e-06
1.448e-08
2.46811e-06
1.49638e-08
2.46358e-06
1.54956e-08
2.45887e-06
1.61594e-08
2.45397e-06
1.68823e-08
2.44881e-06
1.78743e-08
2.4434e-06
1.89042e-08
2.43763e-06
2.05133e-08
2.43149e-06
2.20221e-08
2.42479e-06
2.48444e-08
2.41748e-06
2.70769e-08
2.40935e-06
3.24182e-08
2.40002e-06
3.57383e-08
2.3896e-06
4.66528e-08
2.37641e-06
5.18314e-08
2.36261e-06
7.58583e-08
2.34171e-06
8.56466e-08
2.32534e-06
1.42168e-07
1.67819e-07
2.2922e-06
-2.54618e-08
-8.41419e-08
-6.44873e-08
-8.18801e-08
-1.04933e-07
-7.95506e-08
-1.47318e-07
-7.62148e-08
-1.92287e-07
-7.24271e-08
-2.40525e-07
-6.76066e-08
-2.92799e-07
-6.11901e-08
-3.50025e-07
-5.22534e-08
-4.13221e-07
-3.99194e-08
-4.83425e-07
-2.3404e-08
-5.62023e-07
-1.58884e-09
-6.48164e-07
2.402e-08
-7.42671e-07
5.61093e-08
-8.45448e-07
9.47367e-08
-9.57708e-07
1.39986e-07
-1.07942e-06
1.91749e-07
-1.21021e-06
2.49804e-07
-1.34925e-06
3.13561e-07
-1.4948e-06
3.81861e-07
-1.64414e-06
4.52885e-07
-1.79371e-06
5.24244e-07
-1.93945e-06
5.93259e-07
-2.07745e-06
6.57271e-07
-2.20466e-06
7.13993e-07
-2.31968e-06
7.61768e-07
-2.424e-06
7.99686e-07
-2.52154e-06
8.2767e-07
-2.61745e-06
8.46519e-07
-2.71727e-06
8.57699e-07
-2.8251e-06
8.6294e-07
-2.94357e-06
8.63553e-07
-3.07383e-06
8.60328e-07
-3.2156e-06
8.53526e-07
-3.36743e-06
8.42951e-07
-3.52695e-06
8.28156e-07
-3.69131e-06
8.08603e-07
-3.8574e-06
7.83653e-07
-4.022e-06
7.52547e-07
-4.1821e-06
7.14926e-07
-4.33484e-06
6.70482e-07
-4.47746e-06
6.18988e-07
-4.60735e-06
5.60284e-07
-4.72202e-06
4.94323e-07
-4.81914e-06
4.21338e-07
-4.89659e-06
3.4192e-07
-4.95255e-06
2.57011e-07
-4.98561e-06
1.67934e-07
-4.99468e-06
7.63338e-08
-4.97814e-06
-1.58746e-08
-4.94054e-06
-1.04363e-07
-4.88154e-06
-1.89288e-07
-4.80258e-06
-2.68345e-07
-4.7059e-06
-3.39929e-07
-4.5941e-06
-4.03142e-07
-4.46996e-06
-4.57826e-07
-4.33597e-06
-5.04478e-07
-4.19415e-06
-5.44222e-07
-4.04594e-06
-5.78671e-07
-3.89209e-06
-6.09815e-07
-3.7325e-06
-6.39783e-07
-3.56632e-06
-6.70543e-07
-3.39208e-06
-7.03589e-07
-3.20787e-06
-7.39594e-07
-3.01173e-06
-7.77986e-07
-2.8028e-06
-8.16343e-07
-2.58174e-06
-8.51157e-07
-2.35096e-06
-8.78653e-07
-2.11439e-06
-8.95672e-07
-1.87654e-06
-9.00775e-07
-1.64157e-06
-8.94451e-07
-1.41265e-06
-8.78482e-07
-1.19191e-06
-8.55064e-07
-9.80635e-07
-8.262e-07
-7.79564e-07
-7.93584e-07
-5.88988e-07
-7.58637e-07
-4.08957e-07
-7.22428e-07
-2.39374e-07
-6.85733e-07
-8.00306e-08
-6.49102e-07
7.01166e-08
-6.13814e-07
2.10711e-07
-5.79555e-07
3.42929e-07
-5.46507e-07
4.67355e-07
-5.14908e-07
5.84654e-07
-4.84843e-07
6.95452e-07
-4.56294e-07
8.00279e-07
-4.29186e-07
8.99549e-07
-4.03426e-07
9.93572e-07
-3.78931e-07
1.08258e-06
-3.55649e-07
1.16675e-06
-3.33564e-07
1.24629e-06
-3.12689e-07
1.32139e-06
-2.93046e-07
1.39229e-06
-2.74652e-07
1.45926e-06
-2.57502e-07
1.52258e-06
-2.41561e-07
1.58251e-06
-2.2677e-07
1.63931e-06
-2.13043e-07
1.69322e-06
-2.00282e-07
1.74446e-06
-1.88381e-07
1.79319e-06
-1.77235e-07
1.83958e-06
-1.6675e-07
1.88374e-06
-1.56842e-07
1.9258e-06
-1.47444e-07
1.96585e-06
-1.38502e-07
2.00398e-06
-1.29978e-07
2.04025e-06
-1.21844e-07
2.07476e-06
-1.14082e-07
2.10756e-06
-1.0668e-07
2.13872e-06
-9.96278e-08
2.1683e-06
-9.29175e-08
2.19637e-06
-8.65405e-08
2.22298e-06
-8.04873e-08
2.24819e-06
-7.47469e-08
2.27203e-06
-6.93063e-08
2.29457e-06
-6.41521e-08
2.31585e-06
-5.92704e-08
2.33591e-06
-5.46443e-08
2.35479e-06
-5.02603e-08
2.37253e-06
-4.61095e-08
2.38915e-06
-4.21802e-08
2.40471e-06
-3.84585e-08
2.41921e-06
-3.49314e-08
2.43271e-06
-3.15879e-08
2.44522e-06
-2.8418e-08
2.45678e-06
-2.5412e-08
2.46743e-06
-2.2561e-08
2.47719e-06
-1.98572e-08
2.48609e-06
-1.72961e-08
2.49417e-06
-1.48752e-08
2.50147e-06
-1.2583e-08
2.50802e-06
-1.04156e-08
2.51385e-06
-8.36973e-09
2.519e-06