/*--------------------------------*- C++ -*----------------------------------*\
  =========                 |
  \\      /  F ield         | OpenFOAM: The Open Source CFD Toolbox
   \\    /   O peration     | Website:  https://openfoam.org
    \\  /    A nd           | Version:  7
     \\/     M anipulation  |
\*---------------------------------------------------------------------------*/
FoamFile
{
    version     2.0;
    format      ascii;
    class       volVectorField;
    location    "0.033";
    object      UMean;
}
// * * * * * * * * * * * * * * * * * * * * * * * * * * * * * * * * * * * * * //

dimensions      [0 1 -1 0 0 0 0];

internalField   nonuniform List<vector> 
12225
(
(4.78137 0.163839 0)
(4.19648 0.110445 0)
(3.74512 0.0964999 0)
(3.38859 0.0791542 0)
(3.07552 0.0650569 0)
(2.79168 0.0545028 0)
(2.53749 0.0450723 0)
(2.31668 0.0363084 0)
(2.1331 0.0269382 0)
(1.98448 0.0195286 0)
(1.87347 0.0106889 0)
(1.78954 0.00701954 0)
(1.74088 -0.00296933 0)
(1.70742 0.000826251 0)
(1.70719 -0.0173415 0)
(1.715 0.00299186 0)
(1.75794 -0.0450379 0)
(1.82473 0.00368708 0)
(5.01823 0.112423 0)
(4.87914 0.0714672 0)
(4.76634 0.0860134 0)
(4.68187 0.0837669 0)
(4.59717 0.0801902 0)
(4.50575 0.0781388 0)
(4.40938 0.0759282 0)
(4.31442 0.071148 0)
(4.2227 0.0651237 0)
(4.14032 0.0557755 0)
(4.06451 0.0477291 0)
(4.00384 0.0353335 0)
(3.94859 0.0287228 0)
(3.91511 0.0132546 0)
(3.88028 0.0110704 0)
(3.87867 -0.0122414 0)
(3.86632 -0.0150226 0)
(3.89797 -0.067096 0)
(4.99774 0.171515 0)
(4.88519 0.120818 0)
(4.81009 0.127097 0)
(4.78195 0.119492 0)
(4.77016 0.109585 0)
(4.75985 0.103029 0)
(4.7489 0.0972197 0)
(4.73792 0.0908136 0)
(4.72747 0.08162 0)
(4.71696 0.0721029 0)
(4.70731 0.059277 0)
(4.69803 0.0491521 0)
(4.69196 0.0337704 0)
(4.68767 0.0255791 0)
(4.69025 0.00629086 0)
(4.69576 -0.00208877 0)
(4.71171 -0.0326307 0)
(4.72733 -0.0660537 0)
(4.9944 0.18624 0)
(4.90329 0.116737 0)
(4.82952 0.113522 0)
(4.79803 0.107091 0)
(4.78899 0.0972722 0)
(4.78648 0.0898857 0)
(4.78673 0.0845874 0)
(4.79021 0.0784302 0)
(4.79679 0.07099 0)
(4.80563 0.0613483 0)
(4.81568 0.0513837 0)
(4.82664 0.0393753 0)
(4.83879 0.0282709 0)
(4.85241 0.0142143 0)
(4.86938 0.00103194 0)
(4.88838 -0.0179687 0)
(4.91313 -0.0420252 0)
(4.93491 -0.076586 0)
(4.99216 0.214148 0)
(4.92386 0.141599 0)
(4.85768 0.130453 0)
(4.82389 0.123132 0)
(4.81249 0.110949 0)
(4.80884 0.100066 0)
(4.80832 0.0913801 0)
(4.81109 0.0831503 0)
(4.81756 0.0735173 0)
(4.82693 0.0628948 0)
(4.83848 0.0507657 0)
(4.8514 0.0384442 0)
(4.866 0.024573 0)
(4.8821 0.0103534 0)
(4.90073 -0.00642787 0)
(4.92116 -0.0266284 0)
(4.94387 -0.0519585 0)
(4.96408 -0.0887636 0)
(4.98615 0.228295 0)
(4.93797 0.153927 0)
(4.88203 0.133923 0)
(4.84905 0.124343 0)
(4.83702 0.111003 0)
(4.83376 0.097922 0)
(4.83358 0.0872602 0)
(4.83596 0.0775772 0)
(4.84142 0.0673608 0)
(4.84955 0.0559314 0)
(4.85986 0.0435292 0)
(4.87162 0.0301459 0)
(4.8851 0.0158985 0)
(4.89985 0.000249872 0)
(4.91675 -0.0175516 0)
(4.93445 -0.0387628 0)
(4.95332 -0.0652689 0)
(4.96917 -0.0985836 0)
(4.99518 0.243553 0)
(4.96043 0.17095 0)
(4.9125 0.143453 0)
(4.87999 0.130614 0)
(4.86639 0.116267 0)
(4.86247 0.101601 0)
(4.86205 0.0888541 0)
(4.86395 0.0775242 0)
(4.86859 0.0660644 0)
(4.87579 0.0536968 0)
(4.88513 0.0403192 0)
(4.89593 0.025978 0)
(4.90831 0.0106197 0)
(4.92172 -0.00631709 0)
(4.93672 -0.025201 0)
(4.95176 -0.0474798 0)
(4.96727 -0.0735421 0)
(4.97923 -0.104698 0)
(5.00343 0.252435 0)
(4.98098 0.18514 0)
(4.94178 0.152414 0)
(4.91105 0.135613 0)
(4.89647 0.119995 0)
(4.89211 0.103893 0)
(4.8918 0.0891552 0)
(4.89358 0.0759309 0)
(4.89765 0.063143 0)
(4.90402 0.0498095 0)
(4.91244 0.0355964 0)
(4.92217 0.0203971 0)
(4.93324 0.00411249 0)
(4.94498 -0.0136905 0)
(4.95783 -0.0334407 0)
(4.97021 -0.0559699 0)
(4.98259 -0.0815016 0)
(4.99143 -0.110609 0)
(5.00144 0.25919 0)
(4.98717 0.196127 0)
(4.95739 0.159875 0)
(4.93166 0.139272 0)
(4.9186 0.122213 0)
(4.91487 0.105059 0)
(4.9151 0.0888134 0)
(4.91708 0.0740163 0)
(4.92089 0.0599714 0)
(4.92672 0.0457152 0)
(4.93451 0.0307222 0)
(4.94362 0.0147162 0)
(4.95385 -0.00237025 0)
(4.96442 -0.0208829 0)
(4.97552 -0.0410597 0)
(4.98574 -0.063465 0)
(4.99548 -0.0880974 0)
(5.00199 -0.115131 0)
(4.99876 0.268279 0)
(4.99246 0.208639 0)
(4.97001 0.169858 0)
(4.94796 0.145501 0)
(4.93594 0.126395 0)
(4.93259 0.108088 0)
(4.93332 0.0905342 0)
(4.9356 0.0742173 0)
(4.93926 0.0587377 0)
(4.94455 0.0433028 0)
(4.95152 0.0273541 0)
(4.95956 0.010589 0)
(4.96838 -0.00713767 0)
(4.97723 -0.0260918 0)
(4.98616 -0.0464465 0)
(4.99407 -0.0685228 0)
(5.00124 -0.0922132 0)
(5.00575 -0.117476 0)
(4.989 0.267533 0)
(4.9864 0.213403 0)
(4.96903 0.17418 0)
(4.95037 0.147243 0)
(4.93954 0.126203 0)
(4.93644 0.10688 0)
(4.93755 0.0884518 0)
(4.94041 0.0710711 0)
(4.94446 0.054555 0)
(4.94973 0.0382564 0)
(4.95631 0.0216366 0)
(4.96365 0.00436186 0)
(4.97155 -0.0137263 0)
(4.97918 -0.0328246 0)
(4.98672 -0.0530394 0)
(4.99296 -0.0745483 0)
(4.99866 -0.0971713 0)
(5.00164 -0.120806 0)
(5.0106 0.274056 0)
(5.01005 0.222724 0)
(4.99611 0.182875 0)
(4.9796 0.153497 0)
(4.96892 0.130225 0)
(4.96495 0.109485 0)
(4.96516 0.0899305 0)
(4.96732 0.0714146 0)
(4.97062 0.0537472 0)
(4.97488 0.0364933 0)
(4.98016 0.0191938 0)
(4.98606 0.00147679 0)
(4.99247 -0.0168563 0)
(4.99863 -0.0359911 0)
(5.00472 -0.0559924 0)
(5.00957 -0.0769513 0)
(5.01396 -0.0986711 0)
(5.01591 -0.121025 0)
(4.99897 0.274813 0)
(5.00342 0.22571 0)
(4.99455 0.186275 0)
(4.98199 0.155633 0)
(4.9736 0.130774 0)
(4.97066 0.10884 0)
(4.97129 0.0883543 0)
(4.97359 0.0689637 0)
(4.97675 0.0504911 0)
(4.98062 0.0325883 0)
(4.98531 0.0147963 0)
(4.99052 -0.00327017 0)
(4.99614 -0.0218158 0)
(5.00143 -0.0409874 0)
(5.00653 -0.060777 0)
(5.01039 -0.081202 0)
(5.0138 -0.10205 0)
(5.01495 -0.12322 0)
(5.01073 0.277398 0)
(5.01567 0.231662 0)
(5.00915 0.192772 0)
(4.99911 0.160771 0)
(4.99236 0.134096 0)
(4.99006 0.110744 0)
(4.99076 0.089304 0)
(4.99299 0.0690779 0)
(4.99609 0.0497474 0)
(4.9998 0.0309913 0)
(5.00414 0.0125126 0)
(5.00872 -0.00598296 0)
(5.0135 -0.0246659 0)
(5.01772 -0.0436737 0)
(5.02165 -0.0630127 0)
(5.02424 -0.0827162 0)
(5.0265 -0.102605 0)
(5.02661 -0.122624 0)
(5.00768 0.27681 0)
(5.01483 0.233201 0)
(5.0114 0.19436 0)
(5.00462 0.161331 0)
(5.00037 0.133312 0)
(4.99963 0.108775 0)
(5.00131 0.0863751 0)
(5.00426 0.0653123 0)
(5.00782 0.0452078 0)
(5.01166 0.0258351 0)
(5.01576 0.00699301 0)
(5.01981 -0.0115636 0)
(5.02383 -0.0300177 0)
(5.02727 -0.0485477 0)
(5.0304 -0.06718 0)
(5.03234 -0.0859782 0)
(5.03397 -0.104755 0)
(5.03372 -0.123518 0)
(5.01246 0.28023 0)
(5.02195 0.238444 0)
(5.0212 0.200156 0)
(5.01673 0.16632 0)
(5.01413 0.136694 0)
(5.01427 0.110486 0)
(5.0162 0.0867614 0)
(5.01895 0.0647629 0)
(5.02208 0.0440277 0)
(5.02529 0.0242316 0)
(5.02858 0.00510243 0)
(5.03173 -0.0136094 0)
(5.03478 -0.0320505 0)
(5.0373 -0.0503223 0)
(5.03948 -0.0684032 0)
(5.04057 -0.0863212 0)
(5.04132 -0.103949 0)
(5.04043 -0.121323 0)
(5.00729 0.274262 0)
(5.01675 0.234142 0)
(5.01771 0.196409 0)
(5.01595 0.162452 0)
(5.01595 0.132343 0)
(5.01808 0.105476 0)
(5.02128 0.0810615 0)
(5.02484 0.0584461 0)
(5.02851 0.0372227 0)
(5.03211 0.0171223 0)
(5.03558 -0.00206044 0)
(5.03866 -0.02053 0)
(5.04136 -0.0384155 0)
(5.0433 -0.0558557 0)
(5.04474 -0.0728495 0)
(5.0451 -0.0894906 0)
(5.04512 -0.105654 0)
(5.0437 -0.1215 0)
(5.01008 0.2797 0)
(5.02074 0.237542 0)
(5.02365 0.198499 0)
(5.02434 0.163436 0)
(5.027 0.132353 0)
(5.03157 0.104589 0)
(5.03664 0.0794261 0)
(5.04134 0.0563578 0)
(5.04542 0.0350483 0)
(5.04883 0.0152112 0)
(5.05165 -0.00341043 0)
(5.05381 -0.0210562 0)
(5.05544 -0.0379031 0)
(5.05631 -0.0541085 0)
(5.05671 -0.0697373 0)
(5.0562 -0.0848842 0)
(5.05546 -0.0995186 0)
(5.05349 -0.113738 0)
(5.00443 0.273726 0)
(5.01895 0.2294 0)
(5.02601 0.189025 0)
(5.03064 0.152922 0)
(5.03684 0.120936 0)
(5.04432 0.0925719 0)
(5.05157 0.0672727 0)
(5.05776 0.0445254 0)
(5.06277 0.0238689 0)
(5.0667 0.00487054 0)
(5.06971 -0.0128276 0)
(5.0718 -0.0295204 0)
(5.07311 -0.0453778 0)
(5.0735 -0.0605387 0)
(5.07326 -0.0750145 0)
(5.07207 -0.0888876 0)
(5.07056 -0.102089 0)
(5.06796 -0.114766 0)
(5.00195 0.269674 0)
(5.01513 0.221081 0)
(5.02379 0.177406 0)
(5.03208 0.139983 0)
(5.04221 0.10845 0)
(5.05263 0.0816794 0)
(5.06163 0.0585567 0)
(5.06882 0.0382119 0)
(5.07459 0.0199862 0)
(5.07932 0.00339209 0)
(5.08322 -0.0119215 0)
(5.08621 -0.0262333 0)
(5.08835 -0.0397495 0)
(5.08946 -0.0526207 0)
(5.08981 -0.064927 0)
(5.08913 -0.076726 0)
(5.08799 -0.0880224 0)
(5.08573 -0.0988646 0)
(5.00316 0.272057 0)
(5.02048 0.215248 0)
(5.03403 0.166761 0)
(5.04734 0.127388 0)
(5.06184 0.0953849 0)
(5.07578 0.0683797 0)
(5.0876 0.0447246 0)
(5.09702 0.0236847 0)
(5.10443 0.00499729 0)
(5.11019 -0.0115852 0)
(5.11457 -0.0264198 0)
(5.11759 -0.0399154 0)
(5.11947 -0.0523829 0)
(5.12016 -0.0640572 0)
(5.12005 -0.0750386 0)
(5.11883 -0.0854458 0)
(5.1172 -0.0952584 0)
(5.11434 -0.104614 0)
(5.01397 0.262106 0)
(5.0362 0.197977 0)
(5.05678 0.147184 0)
(5.07661 0.109334 0)
(5.09553 0.0809793 0)
(5.1119 0.0584035 0)
(5.12513 0.0391639 0)
(5.13586 0.0221437 0)
(5.14483 0.00695108 0)
(5.15227 -0.0066728 0)
(5.15817 -0.0190504 0)
(5.16245 -0.0304955 0)
(5.1653 -0.0412333 0)
(5.16671 -0.0513884 0)
(5.16709 -0.0610097 0)
(5.16623 -0.0701391 0)
(5.16478 -0.0788044 0)
(5.16211 -0.0870631 0)
(5.00587 0.258996 0)
(5.03633 0.183272 0)
(5.06772 0.127117 0)
(5.09689 0.0877566 0)
(5.12208 0.0584464 0)
(5.14212 0.034301 0)
(5.15742 0.0135532 0)
(5.1693 -0.00395637 0)
(5.17883 -0.0184694 0)
(5.1864 -0.0306678 0)
(5.19213 -0.041309 0)
(5.19607 -0.0509537 0)
(5.19849 -0.0598718 0)
(5.19947 -0.0681953 0)
(5.19939 -0.0759629 0)
(5.19807 -0.0832894 0)
(5.19605 -0.0901889 0)
(5.19282 -0.0968357 0)
(5.00133 0.24312 0)
(5.04182 0.159831 0)
(5.08477 0.107976 0)
(5.1213 0.0779391 0)
(5.14937 0.0569275 0)
(5.17059 0.038203 0)
(5.18765 0.0210153 0)
(5.20215 0.00606439 0)
(5.21424 -0.0065351 0)
(5.22361 -0.0173257 0)
(5.2303 -0.0269284 0)
(5.23463 -0.0356971 0)
(5.23721 -0.0437604 0)
(5.23828 -0.051193 0)
(5.23829 -0.0580907 0)
(5.2371 -0.0645697 0)
(5.23531 -0.0707198 0)
(5.23235 -0.0766264 0)
(5.01588 0.226601 0)
(5.07299 0.12353 0)
(5.13414 0.0672214 0)
(5.18036 0.0372114 0)
(5.21065 0.0154915 0)
(5.23136 -0.00335095 0)
(5.2479 -0.0184667 0)
(5.26213 -0.0296781 0)
(5.27395 -0.0383001 0)
(5.28292 -0.0457172 0)
(5.28918 -0.0525967 0)
(5.29315 -0.0590701 0)
(5.29541 -0.0651013 0)
(5.29616 -0.0707173 0)
(5.29583 -0.0759642 0)
(5.29427 -0.0809547 0)
(5.29211 -0.0857088 0)
(5.28883 -0.0903484 0)
(5.01792 0.209987 0)
(5.09677 0.109144 0)
(5.17534 0.0720777 0)
(5.22754 0.0540867 0)
(5.25835 0.0345366 0)
(5.28027 0.0151817 0)
(5.29956 -0.00016571 0)
(5.3164 -0.0111798 0)
(5.32964 -0.0196274 0)
(5.33906 -0.0269264 0)
(5.34537 -0.0335646 0)
(5.34932 -0.0396173 0)
(5.35156 -0.0451365 0)
(5.3523 -0.0502464 0)
(5.35194 -0.0550647 0)
(5.3504 -0.0596932 0)
(5.34821 -0.0641685 0)
(5.34495 -0.0685387 0)
(5.00899 0.158208 0)
(5.12619 0.0333455 0)
(5.22371 0.00447566 0)
(5.27666 -0.00620519 0)
(5.30466 -0.0211577 0)
(5.32644 -0.0342674 0)
(5.34692 -0.0428286 0)
(5.36464 -0.0485135 0)
(5.37816 -0.0531678 0)
(5.38766 -0.0574902 0)
(5.39414 -0.061533 0)
(5.39841 -0.0652946 0)
(5.40106 -0.0688164 0)
(5.40224 -0.0721978 0)
(5.40231 -0.0754616 0)
(5.40117 -0.0786658 0)
(5.39933 -0.08178 0)
(5.39636 -0.0848707 0)
(5.01541 0.150348 0)
(5.18024 0.0547929 0)
(5.30086 0.0405615 0)
(5.35629 0.0233665 0)
(5.38478 0.00361307 0)
(5.40893 -0.0103293 0)
(5.43093 -0.0187015 0)
(5.44857 -0.0247041 0)
(5.46121 -0.0299746 0)
(5.46972 -0.034809 0)
(5.4752 -0.0391538 0)
(5.47841 -0.0430977 0)
(5.47972 -0.0467358 0)
(5.47932 -0.0502202 0)
(5.4774 -0.0535462 0)
(5.47405 -0.0568175 0)
(5.46955 -0.0599616 0)
(5.46383 -0.0631099 0)
(5.01793 0.0216207 0)
(5.23369 -0.0508361 0)
(5.35751 -0.0345881 0)
(5.40622 -0.0436823 0)
(5.43116 -0.0542458 0)
(5.4497 -0.0591042 0)
(5.46209 -0.0610263 0)
(5.46674 -0.0625019 0)
(5.46382 -0.0640874 0)
(5.45472 -0.0656495 0)
(5.44069 -0.0670614 0)
(5.42286 -0.0683681 0)
(5.40168 -0.0696033 0)
(5.37788 -0.0708568 0)
(5.35139 -0.0720785 0)
(5.32318 -0.0733424 0)
(5.29254 -0.0745519 0)
(5.26123 -0.0758484 0)
(4.96892 0.0669422 0)
(5.10685 -0.00219632 0)
(5.07598 -0.00246102 0)
(4.95716 -0.0126351 0)
(4.82524 -0.0200657 0)
(4.69719 -0.0229097 0)
(4.57285 -0.0239766 0)
(4.45021 -0.0247183 0)
(4.32874 -0.0253246 0)
(4.20911 -0.0257221 0)
(4.0921 -0.0259148 0)
(3.97838 -0.0259808 0)
(3.86787 -0.0259881 0)
(3.76084 -0.0259885 0)
(3.65658 -0.0259664 0)
(3.55592 -0.02595 0)
(3.45731 -0.0258953 0)
(3.36308 -0.0259155 0)
(0.000955 -0.012381 3.07975e-21)
(0.00294372 -0.0190419 -3.0603e-21)
(0.0074001 -0.0189862 0)
(0.00946053 -0.0171886 0)
(0.00981142 -0.0148838 0)
(0.00803389 -0.0123105 2.97207e-21)
(0.00412312 -0.00954431 0)
(-0.0020394 -0.00666639 0)
(-0.0104974 -0.00372566 0)
(-0.0213512 -0.000756448 0)
(-0.0347234 0.00224087 -2.85631e-21)
(-0.0507569 0.00528016 0)
(-0.0696184 0.0083688 0)
(-0.0915026 0.0115231 0)
(-0.116627 0.0147501 0)
(-0.145223 0.0180482 -2.73726e-21)
(-0.177516 0.0214242 0)
(-0.213704 0.0248634 0)
(-0.253976 0.0283343 0)
(-0.298404 0.0318778 0)
(-0.346991 0.0356256 0)
(-0.399697 0.0397758 0)
(-0.456467 0.0444593 0)
(-0.517266 0.049624 -2.54907e-21)
(-0.581887 0.0549566 2.52559e-21)
(-0.649918 0.0601736 -2.50196e-21)
(-0.720555 0.0650321 -2.47811e-21)
(-0.792583 0.0688546 0)
(-0.864699 0.070592 0)
(-0.935285 0.0699278 2.40398e-21)
(-1.00258 0.0672473 2.37827e-21)
(-1.06531 0.0631027 0)
(-1.12254 0.0579072 0)
(-1.17349 0.0519342 2.30058e-21)
(-1.21755 0.0453998 0)
(-1.25418 0.0384617 0)
(-1.28294 0.0312588 -2.22863e-21)
(-1.3035 0.0238941 0)
(-1.31555 0.0164608 -2.18815e-21)
(-1.3189 0.009036 -4.34199e-21)
(-1.31341 0.00169445 0)
(-1.29905 -0.005489 0)
(-1.27588 -0.012434 0)
(-1.244 -0.0190532 0)
(-1.20367 -0.0252658 0)
(-1.15522 -0.0309923 -4.24143e-21)
(-1.09917 -0.0361919 -4.24216e-21)
(-1.03608 -0.0408241 -4.24706e-21)
(-0.96656 -0.0448793 0)
(-0.891328 -0.0483376 4.26694e-21)
(-0.8111 -0.051217 0)
(-0.726587 -0.0535362 -4.29554e-21)
(-0.638519 -0.055309 -4.31125e-21)
(-0.547602 -0.0565631 0)
(-0.454546 -0.0573242 0)
(-0.360002 -0.0576428 0)
(-0.26455 -0.0575514 -4.36795e-21)
(-0.16874 -0.0571337 0)
(-0.0730511 -0.0564148 0)
(0.0221347 -0.0554591 0)
(0.116479 -0.0542979 0)
(0.209688 -0.0529888 0)
(0.30151 -0.051541 0)
(0.391732 -0.0499766 0)
(0.480116 -0.0482912 0)
(0.566437 -0.0465015 4.36576e-21)
(0.650466 -0.0445954 0)
(0.731965 -0.0425826 0)
(0.810708 -0.0404757 -4.31627e-21)
(0.886498 -0.0382901 -4.29464e-21)
(0.95916 -0.0360539 0)
(1.02857 -0.0337906 4.24445e-21)
(1.09464 -0.0315273 -4.21627e-21)
(1.15734 -0.0292982 0)
(1.21665 -0.0271252 4.15473e-21)
(1.27261 -0.0250191 0)
(1.3253 -0.0230018 0)
(1.37481 -0.0210757 -4.0525e-21)
(1.42124 -0.0192535 0)
(1.4647 -0.0175374 3.97988e-21)
(1.50536 -0.0159186 0)
(1.54333 -0.0144014 -3.90507e-21)
(1.57874 -0.0129832 -3.86715e-21)
(1.61172 -0.0116611 -3.82901e-21)
(1.64238 -0.0104314 -7.58149e-21)
(1.67085 -0.00929013 7.50483e-21)
(1.69725 -0.00823323 0)
(1.7217 -0.00725648 0)
(1.7443 -0.00635578 0)
(1.76515 -0.00552701 7.19909e-21)
(1.78437 -0.00476613 7.12329e-21)
(1.80204 -0.0040692 -7.04787e-21)
(1.81826 -0.00343236 0)
(1.83311 -0.0028518 6.89832e-21)
(1.84669 -0.00232389 6.82425e-21)
(1.85906 -0.00184524 6.75069e-21)
(1.87031 -0.0014127 0)
(1.88051 -0.00102335 0)
(1.88972 -0.000674435 0)
(1.89801 -0.000363372 6.46179e-21)
(1.90544 -8.76957e-05 0)
(1.91208 0.000154948 0)
(1.91797 0.000366849 -6.25091e-21)
(1.92317 0.000550249 0)
(1.92774 0.000707354 0)
(1.93173 0.000840406 -6.04505e-21)
(1.93517 0.000951585 0)
(1.93812 0.00104311 0)
(1.94062 0.00111726 5.84413e-21)
(1.94271 0.00117602 5.77823e-21)
(1.94442 0.00122154 0)
(1.94579 0.00125575 -5.64802e-21)
(1.94685 0.00127989 0)
(1.94762 0.00129597 5.51988e-21)
(1.94814 0.00130503 0)
(1.94843 0.00130606 5.39375e-21)
(1.94852 0.00129888 5.33143e-21)
(1.94842 0.00128471 0)
(1.94817 0.00126491 0)
(1.94778 0.00124069 0)
(1.94727 0.00121312 0)
(1.94666 0.00118318 0)
(1.94595 0.00115168 0)
(1.94517 0.00111927 0)
(1.94431 0.00108622 4.84981e-21)
(1.94339 0.00105276 -4.79163e-21)
(1.94242 0.00101941 0)
(1.9414 0.000986977 0)
(1.94034 0.000955847 0)
(1.93924 0.000926024 0)
(1.93811 0.000897456 -9.01418e-21)
(1.93696 0.000870123 0)
(1.93578 0.000843994 8.79226e-21)
(1.93458 0.000819051 -8.68249e-21)
(1.93336 0.000795295 0)
(1.93213 0.000772784 0)
(1.93088 0.000751655 0)
(1.92963 0.000732089 8.25106e-21)
(1.92836 0.000714232 8.14508e-21)
(1.92708 0.000698162 0)
(1.92579 0.000683821 7.93529e-21)
(1.92449 0.000671076 7.83147e-21)
(1.92317 0.000659717 -7.72836e-21)
(1.92185 0.000649549 0)
(1.9205 0.000640399 0)
(1.91915 0.000632166 -7.42316e-21)
(1.91777 0.000624795 0)
(1.91639 0.000618287 0)
(1.91498 0.000612662 0)
(1.91356 0.000607966 0)
(1.91211 0.00060424 6.92788e-21)
(1.91065 0.000601553 6.83077e-21)
(1.90916 0.000599967 0)
(1.90765 0.000599607 6.63843e-21)
(1.90611 0.000600571 0)
(1.90454 0.000603108 0)
(1.90293 0.000607371 6.35458e-21)
(1.90128 0.000613839 0)
(1.89958 0.00062271 6.1684e-21)
(1.89783 0.000634894 0)
(1.896 0.000650608 0)
(1.8941 0.000671531 5.89369e-21)
(1.89208 0.000697936 0)
(1.88996 0.000732649 5.71361e-21)
(1.88764 0.000776686 0)
(1.8852 0.000833381 0)
(1.88239 0.000908529 0)
(1.87947 0.000999311 -5.36128e-21)
(1.87582 0.00113479 0)
(1.87211 0.00127363 5.18955e-21)
(1.86703 0.00154266 0)
(1.86195 0.00172954 0)
(1.85437 0.00234178 0)
(1.8465 0.00249006 0)
(1.83475 0.00411456 0)
(1.81973 0.00376539 0)
(1.80202 0.00878168 0)
(1.76386 0.00619437 -9.12333e-21)
(1.74126 0.0254168 0)
(1.61175 0.0198445 0)
(-0.0067083 0.00558596 -9.2444e-21)
(-0.0313118 0.00356729 9.18597e-21)
(-0.0540689 0.00638792 0)
(-0.0787797 0.0122731 -6.03663e-21)
(-0.104132 0.0183933 0)
(-0.130579 0.0245277 -2.97394e-21)
(-0.157985 0.0306087 5.90178e-21)
(-0.186517 0.0367096 5.85582e-21)
(-0.21627 0.0429287 0)
(-0.247435 0.0493696 5.76252e-21)
(-0.280195 0.0561416 2.85808e-21)
(-0.314796 0.0633275 0)
(-0.351456 0.0709971 0)
(-0.390413 0.0792141 0)
(-0.43192 0.0880151 0)
(-0.476151 0.0974045 2.73894e-21)
(-0.523225 0.107297 0)
(-0.573171 0.117496 -5.3783e-21)
(-0.625906 0.127709 0)
(-0.681323 0.137652 0)
(-0.739154 0.147079 5.2335e-21)
(-0.798953 0.155844 0)
(-0.860082 0.163766 -5.13653e-21)
(-0.921813 0.170515 2.55074e-21)
(-0.983309 0.175541 -2.52727e-21)
(-1.04356 0.178198 2.50364e-21)
(-1.10151 0.17792 2.47978e-21)
(-1.15631 0.174374 0)
(-1.2074 0.16753 0)
(-1.25434 0.157762 -2.40553e-21)
(-1.2967 0.145567 2.35056e-21)
(-1.3341 0.13144 0)
(-1.36621 0.115806 0)
(-1.39268 0.0990077 -2.30195e-21)
(-1.4132 0.0813174 0)
(-1.42747 0.0629492 0)
(-1.43519 0.0440735 2.22983e-21)
(-1.43612 0.0248418 0)
(-1.43002 0.00540013 -2.15812e-21)
(-1.41667 -0.0140973 4.34405e-21)
(-1.39591 -0.0334858 0)
(-1.36763 -0.0525887 0)
(-1.33181 -0.0712144 8.48335e-21)
(-1.28849 -0.0891601 8.45709e-21)
(-1.23784 -0.106223 8.44161e-21)
(-1.18009 -0.122192 -4.19361e-21)
(-1.11551 -0.13689 4.24353e-21)
(-1.04443 -0.150152 1.27023e-20)
(-0.967357 -0.161876 -8.47422e-21)
(-0.884811 -0.171966 -4.26813e-21)
(-0.797391 -0.180408 0)
(-0.705828 -0.187191 4.29663e-21)
(-0.610809 -0.192363 -4.28594e-21)
(-0.51305 -0.19598 0)
(-0.413261 -0.198136 0)
(-0.312095 -0.198962 0)
(-0.210142 -0.198588 4.36877e-21)
(-0.107939 -0.197205 0)
(-0.00591858 -0.194948 -8.75915e-21)
(0.095542 -0.191984 0)
(0.196125 -0.188442 -8.77694e-21)
(0.295567 -0.184432 0)
(0.393669 -0.180031 8.77272e-21)
(0.490244 -0.17528 0)
(0.585066 -0.170184 -8.74641e-21)
(0.677914 -0.164756 4.35874e-21)
(0.768579 -0.158966 0)
(0.856798 -0.152844 8.66576e-21)
(0.942338 -0.146405 4.31667e-21)
(1.02499 -0.139719 4.29501e-21)
(1.10458 -0.132845 0)
(1.18098 -0.125883 4.24119e-21)
(1.2541 -0.118909 4.21659e-21)
(1.32391 -0.112014 0)
(1.39042 -0.105267 -4.15501e-21)
(1.45367 -0.0987092 8.24162e-21)
(1.51374 -0.0924013 0)
(1.57072 -0.086355 4.05274e-21)
(1.62471 -0.0805975 0)
(1.67585 -0.0751351 -1.19384e-20)
(1.72426 -0.0699565 0)
(1.77007 -0.0650652 1.17141e-20)
(1.8134 -0.0604543 3.86731e-21)
(1.85436 -0.0561145 -3.82777e-21)
(1.89306 -0.0520353 -7.57917e-21)
(1.92963 -0.0482053 7.50266e-21)
(1.96416 -0.0446128 0)
(1.99677 -0.041246 0)
(2.02755 -0.0380933 0)
(2.05659 -0.0351434 -2.1596e-20)
(2.08399 -0.0323851 -7.12346e-21)
(2.10984 -0.0298075 7.04802e-21)
(2.13421 -0.0274003 0)
(2.15719 -0.0251533 6.89705e-21)
(2.17883 -0.0230571 -6.82437e-21)
(2.19922 -0.0211025 -6.7508e-21)
(2.21842 -0.0192812 0)
(2.23648 -0.0175854 0)
(2.25347 -0.0160078 0)
(2.26944 -0.0145419 -6.46186e-21)
(2.28443 -0.0131816 0)
(2.2985 -0.0119211 1.26407e-20)
(2.3117 -0.0107553 1.87522e-20)
(2.32406 -0.009679 -1.23629e-20)
(2.33563 -0.00868744 0)
(2.34646 -0.00777584 -6.04453e-21)
(2.35658 -0.00693957 0)
(2.36602 -0.00617405 -1.18207e-20)
(2.37484 -0.00547469 5.84372e-21)
(2.38305 -0.00483712 5.77785e-21)
(2.3907 -0.00425708 0)
(2.39782 -0.00373047 1.69438e-20)
(2.40444 -0.00325377 -1.11671e-20)
(2.41059 -0.00282321 -5.51988e-21)
(2.41631 -0.00243543 0)
(2.42161 -0.00208812 -5.39375e-21)
(2.42652 -0.00177857 -1.59941e-20)
(2.43106 -0.00150328 0)
(2.43525 -0.00125875 -1.04163e-20)
(2.43912 -0.00104181 -1.02945e-20)
(2.44268 -0.000849537 -1.01737e-20)
(2.44596 -0.00067914 0)
(2.44896 -0.000528096 0)
(2.45172 -0.000394274 0)
(2.45424 -0.000275843 4.84969e-21)
(2.45654 -0.000170938 4.7916e-21)
(2.45863 -7.7971e-05 0)
(2.46053 3.94493e-06 9.353e-21)
(2.46226 7.55291e-05 9.2392e-21)
(2.46383 0.000137791 0)
(2.46524 0.000191669 9.01412e-21)
(2.46652 0.000238107 1.78054e-20)
(2.46767 0.000277962 -8.7922e-21)
(2.4687 0.000312017 -8.68234e-21)
(2.46962 0.000341008 0)
(2.47044 0.000365665 0)
(2.47117 0.000386686 0)
(2.47181 0.000404747 -8.25101e-21)
(2.47237 0.000420486 8.14496e-21)
(2.47286 0.000434497 1.60795e-20)
(2.47329 0.000447236 -7.93524e-21)
(2.47365 0.000459066 7.83136e-21)
(2.47396 0.000470229 7.7283e-21)
(2.47421 0.00048091 0)
(2.47441 0.000491224 0)
(2.47456 0.00050128 -7.42306e-21)
(2.47467 0.00051116 0)
(2.47473 0.000520971 0)
(2.47476 0.000530823 1.42479e-20)
(2.47474 0.000540874 0)
(2.47469 0.000551306 6.92778e-21)
(2.4746 0.000562377 -6.83071e-21)
(2.47448 0.000574377 0)
(2.47432 0.000587712 6.63833e-21)
(2.47412 0.000602823 0)
(2.47389 0.000620332 0)
(2.47362 0.00064092 -6.35453e-21)
(2.47331 0.00066553 1.25222e-20)
(2.47295 0.000695295 -6.16834e-21)
(2.47255 0.000731556 0)
(2.47208 0.000776472 0)
(2.47156 0.000831531 5.89353e-21)
(2.47095 0.000901663 0)
(2.47025 0.000986718 5.71341e-21)
(2.46943 0.00110001 0)
(2.46848 0.00123225 0)
(2.46732 0.00142335 0)
(2.46595 0.00162748 5.36121e-21)
(2.46426 0.00196966 0)
(2.4622 0.00227435 -5.18948e-21)
(2.45963 0.00293839 0)
(2.4563 0.00335286 0)
(2.4523 0.00477692 9.87737e-21)
(2.44645 0.00520412 -9.71546e-21)
(2.44016 0.00862139 0)
(2.42861 0.00861629 0)
(2.41886 0.0179436 0)
(2.39311 0.0166363 2.73508e-20)
(2.37981 0.0471596 0)
(2.32099 0.0488534 -1.77065e-20)
(-0.0122638 0.0690237 3.25019e-24)
(-0.0538933 0.0795522 -1.22506e-20)
(-0.0921727 0.0814966 0)
(-0.131916 0.0869823 1.20766e-20)
(-0.1713 0.0924991 0)
(-0.21109 0.0983923 0)
(-0.251199 0.104681 -2.5329e-24)
(-0.291903 0.111479 -5.85896e-21)
(-0.333339 0.118876 -5.8102e-21)
(-0.375682 0.126984 -5.76562e-21)
(-0.419065 0.135889 0)
(-0.463619 0.145641 0)
(-0.509431 0.156267 5.62018e-21)
(-0.556545 0.167733 1.11433e-20)
(-0.604937 0.179912 -1.10457e-20)
(-0.654538 0.192575 0)
(-0.705227 0.205406 -1.08486e-20)
(-0.756825 0.218056 5.38119e-21)
(-0.809077 0.230145 0)
(-0.861701 0.241279 -1.05491e-20)
(-0.91436 0.251094 -5.23623e-21)
(-0.966635 0.259212 1.03461e-20)
(-1.01803 0.265242 5.13909e-21)
(-1.06804 0.268738 0)
(-1.11621 0.269281 -1.00343e-20)
(-1.16211 0.266523 -9.92809e-21)
(-1.20541 0.260241 0)
(-1.24592 0.250377 -9.71198e-21)
(-1.28355 0.237064 0)
(-1.31829 0.220621 -9.49195e-21)
(-1.35004 0.201487 -4.73215e-21)
(-1.37863 0.180095 0)
(-1.40376 0.156821 0)
(-1.42505 0.13198 0)
(-1.44201 0.105807 0)
(-1.45413 0.0784937 0)
(-1.46081 0.0502019 0)
(-1.46149 0.0211067 -8.67756e-21)
(-1.4556 -0.00859911 1.2949e-20)
(-1.44265 -0.0386884 0)
(-1.42224 -0.068898 0)
(-1.39407 -0.0989266 0)
(-1.35797 -0.128444 -9.22202e-23)
(-1.31391 -0.157084 -8.45889e-21)
(-1.26197 -0.184475 -1.68006e-20)
(-1.20237 -0.210253 1.67943e-20)
(-1.13548 -0.234081 8.36536e-21)
(-1.06179 -0.255672 -8.45534e-21)
(-0.981892 -0.27481 6.65119e-23)
(-0.896474 -0.29134 -8.44061e-21)
(-0.806258 -0.305169 0)
(-0.712022 -0.31625 -8.51496e-21)
(-0.614536 -0.324617 4.4883e-23)
(-0.514539 -0.330359 0)
(-0.4128 -0.333646 0)
(-0.309997 -0.334687 8.66329e-21)
(-0.206742 -0.333751 0)
(-0.103571 -0.331117 0)
(-0.000899908 -0.327083 -8.71236e-21)
(0.100922 -0.321923 -1.7499e-20)
(0.201648 -0.315878 8.77738e-21)
(0.301073 -0.309123 0)
(0.399048 -0.301775 -8.77306e-21)
(0.495455 -0.29391 0)
(0.590112 -0.285525 -8.71777e-21)
(0.682824 -0.276584 -8.72519e-21)
(0.773363 -0.267052 1.73733e-20)
(0.861436 -0.256933 8.64543e-21)
(0.94678 -0.246261 0)
(1.02915 -0.23515 -1.71553e-20)
(1.10836 -0.223731 0)
(1.18426 -0.212165 -2.54456e-20)
(1.25681 -0.200606 -1.68487e-20)
(1.32599 -0.18919 -1.67304e-20)
(1.39184 -0.178045 1.66054e-20)
(1.45443 -0.16725 -2.47163e-20)
(1.51387 -0.156879 0)
(1.57027 -0.146964 0)
(1.62377 -0.137538 1.60562e-20)
(1.67449 -0.128597 2.38686e-20)
(1.7226 -0.120138 0)
(1.76821 -0.112156 -7.80886e-21)
(1.81144 -0.104638 0)
(1.8524 -0.0975677 2.29659e-20)
(1.89121 -0.0909257 4.47801e-24)
(1.92797 -0.0846923 -4.17471e-24)
(1.9628 -0.0788472 -1.48506e-20)
(1.99578 -0.0733701 0)
(2.02703 -0.0682412 1.45454e-20)
(2.05663 -0.0634408 3.13744e-24)
(2.08467 -0.0589497 0)
(2.11124 -0.0547493 0)
(2.13641 -0.0508217 0)
(2.16026 -0.0471498 -1.37954e-20)
(2.18285 -0.0437172 0)
(2.20426 -0.0405085 0)
(2.22454 -0.0375092 0)
(2.24375 -0.034706 0)
(2.26194 -0.0320867 0)
(2.27916 -0.02964 -1.29214e-20)
(2.29545 -0.0273557 0)
(2.31087 -0.0252243 -1.26406e-20)
(2.32544 -0.0232372 -1.25012e-20)
(2.33921 -0.0213863 1.23629e-20)
(2.35221 -0.019664 0)
(2.36449 -0.018063 1.20896e-20)
(2.37607 -0.0165764 0)
(2.38698 -0.0151975 1.18207e-20)
(2.39726 -0.0139199 -1.16878e-20)
(2.40694 -0.0127373 -3.4667e-20)
(2.41604 -0.0116439 0)
(2.42459 -0.0106342 -3.38861e-20)
(2.43262 -0.00970262 -1.11662e-20)
(2.44016 -0.00884435 0)
(2.44722 -0.00805452 -2.18249e-20)
(2.45383 -0.00732823 -2.15738e-20)
(2.46002 -0.00666072 3.19872e-20)
(2.46581 -0.00604746 0)
(2.47121 -0.00548428 1.04162e-20)
(2.47625 -0.00496731 1.02945e-20)
(2.48094 -0.00449298 3.05206e-20)
(2.48532 -0.00405797 0)
(2.48938 -0.00365915 0)
(2.49316 -0.00329372 0)
(2.49666 -0.00295914 9.69916e-21)
(2.49992 -0.00265303 0)
(2.50293 -0.00237325 0)
(2.50572 -0.00211817 -9.35294e-21)
(2.50829 -0.00188624 -9.23914e-21)
(2.51067 -0.00167566 0)
(2.51287 -0.00148467 0)
(2.51489 -0.0013117 -1.78053e-20)
(2.51675 -0.00115532 0)
(2.51846 -0.0010141 1.73647e-20)
(2.52003 -0.000886652 1.71466e-20)
(2.52147 -0.000771681 0)
(2.52279 -0.000667814 0)
(2.524 -0.000573772 -1.65018e-20)
(2.5251 -0.000488366 -6.30507e-26)
(2.52611 -0.000410492 -5.83271e-26)
(2.52702 -0.000339211 0)
(2.52786 -0.000273738 -3.13253e-20)
(2.52862 -0.000213429 0)
(2.52931 -0.000157713 0)
(2.52994 -0.000106056 0)
(2.53051 -5.79277e-05 1.4846e-20)
(2.53102 -1.28206e-05 0)
(2.53149 2.97518e-05 -2.88917e-20)
(2.5319 7.02266e-05 -1.42478e-20)
(2.53227 0.000109013 0)
(2.5326 0.000146512 -1.38555e-20)
(2.53289 0.000183158 0)
(2.53314 0.000219475 0)
(2.53336 0.000256071 -3.98296e-20)
(2.53354 0.000293768 2.61721e-20)
(2.53368 0.000333436 0)
(2.53379 0.000376418 2.54176e-20)
(2.53386 0.000423857 -1.25221e-20)
(2.53389 0.000478098 0)
(2.53388 0.00054037 0)
(2.53382 0.000615278 0)
(2.5337 0.000703147 -3.53608e-20)
(2.53352 0.000814231 0)
(2.53325 0.000944271 -1.14268e-20)
(2.5329 0.0011186 0)
(2.5324 0.00131628 0)
(2.53178 0.00160448 0)
(2.53092 0.00190806 0)
(2.5299 0.00241204 0)
(2.52842 0.00287493 0)
(2.52674 0.00381603 -2.04166e-20)
(2.52416 0.00450241 0)
(2.5214 0.00640098 -9.87728e-21)
(2.51679 0.00737215 2.91418e-20)
(2.51221 0.0115622 0)
(2.50365 0.0129537 0)
(2.49595 0.0232794 -1.84962e-20)
(2.48008 0.0264243 -1.82277e-20)
(2.46806 0.0551269 1.79267e-20)
(2.44398 0.0676841 1.77073e-20)
(-0.0145561 0.148148 1.84826e-20)
(-0.0624413 0.171607 1.83664e-20)
(-0.106336 0.172286 1.21535e-20)
(-0.152033 0.177715 6.02633e-21)
(-0.197327 0.183162 0)
(-0.243085 0.189178 -1.1889e-20)
(-0.289059 0.195777 5.89302e-21)
(-0.335468 0.203061 0)
(-0.382329 0.211102 5.81345e-21)
(-0.429718 0.219966 0)
(-0.477639 0.229674 -1.14265e-20)
(-0.526094 0.240195 0)
(-0.575034 0.251457 -5.62332e-21)
(-0.624385 0.263339 -1.11496e-20)
(-0.674031 0.275623 1.10518e-20)
(-0.723834 0.288042 0)
(-0.773616 0.300264 1.08545e-20)
(-0.823204 0.311922 0)
(-0.872438 0.322638 0)
(-0.921122 0.332 1.05546e-20)
(-0.969066 0.339607 0)
(-1.01607 0.345042 -4.11252e-23)
(-1.06192 0.347896 0)
(-1.10641 0.347784 0)
(-1.14936 0.344387 6.13652e-23)
(-1.19068 0.337494 9.93258e-21)
(-1.23035 0.327025 9.74868e-21)
(-1.26837 0.313015 9.71613e-21)
(-1.30473 0.295605 0)
(-1.33934 0.275016 1.88938e-20)
(-1.37198 0.251476 0)
(-1.40228 0.22519 9.16446e-21)
(-1.42971 0.196314 0)
(-1.45361 0.164969 0)
(-1.47323 0.131285 -8.83082e-21)
(-1.48776 0.0954182 0)
(-1.4964 0.057579 8.63269e-21)
(-1.49838 0.0180389 1.35731e-22)
(-1.49306 -0.0228655 -1.7069e-20)
(-1.4799 -0.0647307 1.67943e-20)
(-1.45848 -0.107094 0)
(-1.42854 -0.149422 0)
(-1.38995 -0.191133 8.12834e-21)
(-1.34272 -0.231624 0)
(-1.28708 -0.270301 8.35922e-21)
(-1.2234 -0.306641 -8.35802e-21)
(-1.15219 -0.340175 -8.367e-21)
(-1.0741 -0.370497 0)
(-0.989857 -0.397276 8.41049e-21)
(-0.900199 -0.420268 8.44197e-21)
(-0.805894 -0.439323 -1.67962e-20)
(-0.707753 -0.454378 8.51614e-21)
(-0.606595 -0.465487 8.55543e-21)
(-0.503237 -0.472808 0)
(-0.398496 -0.476603 0)
(-0.293104 -0.477196 -8.66411e-21)
(-0.187713 -0.475018 0)
(-0.0828672 -0.470498 0)
(0.0210344 -0.464102 1.74733e-20)
(0.123702 -0.456247 1.75001e-20)
(0.224961 -0.447282 0)
(0.324709 -0.437483 0)
(0.42289 -0.42701 0)
(0.519468 -0.415925 0)
(0.614358 -0.404207 1.7465e-20)