/*--------------------------------*- C++ -*----------------------------------*\
  =========                 |
  \\      /  F ield         | OpenFOAM: The Open Source CFD Toolbox
   \\    /   O peration     | Website:  https://openfoam.org
    \\  /    A nd           | Version:  7
     \\/     M anipulation  |
\*---------------------------------------------------------------------------*/
FoamFile
{
    version     2.0;
    format      ascii;
    class       volSymmTensorField;
    location    "0.033";
    object      UPrime2Mean;
}
// * * * * * * * * * * * * * * * * * * * * * * * * * * * * * * * * * * * * * //

dimensions      [0 2 -2 0 0 0 0];

internalField   nonuniform List<symmTensor> 
12225
(
(0.0054166 -0.000352462 0 0.000579559 0 0)
(0.0580431 -0.00257812 0 0.000344376 0 0)
(0.0852432 -0.00379824 0 0.000359581 0 0)
(0.113885 -0.00464784 0 0.000358682 0 0)
(0.16227 -0.00572554 0 0.000354008 0 0)
(0.232021 -0.00701268 0 0.000346836 0 0)
(0.32154 -0.00838207 0 0.000351423 0 0)
(0.42906 -0.00914926 0 0.000299197 0 0)
(0.55172 -0.0104588 0 0.000301284 0 0)
(0.687624 -0.00929434 0 0.000204962 0 0)
(0.837263 -0.01252 0 0.000256384 0 0)
(0.992504 -0.00696457 0 0.000140371 0 0)
(1.17829 -0.0198088 0 0.000444099 0 0)
(1.35709 0.000399955 0 0.000373541 0 0)
(1.63529 -0.0502668 0 0.00251195 0 0)
(1.91244 0.0282068 0 0.00329159 0 0)
(2.48827 -0.202336 0 0.0302669 0 0)
(3.46481 0.0817567 0 0.0153285 0 0)
(0.00525344 -0.000217839 0 0.000632472 0 0)
(0.0390341 -0.00142189 0 0.000283827 0 0)
(0.0430941 -0.00225283 0 0.000444488 0 0)
(0.044333 -0.00273005 0 0.000628964 0 0)
(0.0523661 -0.00363858 0 0.000832763 0 0)
(0.0662413 -0.00522498 0 0.00108569 0 0)
(0.0863874 -0.00733045 0 0.00132266 0 0)
(0.115234 -0.0101512 0 0.00163549 0 0)
(0.152305 -0.0128369 0 0.00174301 0 0)
(0.204155 -0.0169843 0 0.00208431 0 0)
(0.264382 -0.0193304 0 0.00194696 0 0)
(0.350446 -0.0265921 0 0.00255309 0 0)
(0.439852 -0.0274186 0 0.00219059 0 0)
(0.58376 -0.0449934 0 0.00400542 0 0)
(0.716988 -0.0435601 0 0.00354583 0 0)
(0.997993 -0.0995651 0 0.0119095 0 0)
(1.22663 -0.119873 0 0.0131727 0 0)
(1.84128 -0.381202 0 0.0989107 0 0)
(0.00479647 -8.31408e-05 0 0.00092114 0 0)
(0.038217 -0.00220895 0 0.000573959 0 0)
(0.0406436 -0.00315745 0 0.00081654 0 0)
(0.0393107 -0.00334342 0 0.00112524 0 0)
(0.0425109 -0.00377391 0 0.00146214 0 0)
(0.047633 -0.00467671 0 0.00183176 0 0)
(0.0541803 -0.0059998 0 0.00232641 0 0)
(0.0624851 -0.00755487 0 0.00270325 0 0)
(0.0735166 -0.00972676 0 0.0033059 0 0)
(0.0879763 -0.01181 0 0.0035372 0 0)
(0.10838 -0.0157978 0 0.00435422 0 0)
(0.134991 -0.0186395 0 0.0043967 0 0)
(0.173644 -0.0274919 0 0.00622888 0 0)
(0.224106 -0.0320028 0 0.00618156 0 0)
(0.30068 -0.0573357 0 0.0127104 0 0)
(0.403478 -0.0720724 0 0.0141888 0 0)
(0.554045 -0.160249 0 0.049214 0 0)
(0.744008 -0.274687 0 0.107011 0 0)
(0.00493227 -0.000618646 0 0.00110368 0 0)
(0.0382575 -0.00254952 0 0.00076265 0 0)
(0.040467 -0.00331368 0 0.000987528 0 0)
(0.039061 -0.00353802 0 0.00134048 0 0)
(0.0418464 -0.00396942 0 0.00170617 0 0)
(0.0461639 -0.00485426 0 0.0021453 0 0)
(0.051376 -0.00609472 0 0.00264264 0 0)
(0.0577042 -0.00765538 0 0.00327916 0 0)
(0.0654105 -0.00943067 0 0.00385374 0 0)
(0.0755603 -0.0118942 0 0.00467236 0 0)
(0.0887657 -0.0148146 0 0.00537551 0 0)
(0.107251 -0.0196734 0 0.00673868 0 0)
(0.131994 -0.0257086 0 0.00811944 0 0)
(0.167807 -0.0372567 0 0.0115055 0 0)
(0.2167 -0.0537414 0 0.0163862 0 0)
(0.285475 -0.0868346 0 0.0294699 0 0)
(0.374645 -0.145804 0 0.0590586 0 0)
(0.461837 -0.239555 0 0.127075 0 0)
(0.0051929 -0.000474503 0 0.0013157 0 0)
(0.0374246 -0.00295987 0 0.00094831 0 0)
(0.0391184 -0.00370473 0 0.00120161 0 0)
(0.037764 -0.00395244 0 0.00167983 0 0)
(0.0406521 -0.00446572 0 0.0021782 0 0)
(0.0449099 -0.00546687 0 0.00271459 0 0)
(0.0499141 -0.00688293 0 0.00339536 0 0)
(0.0558378 -0.00860528 0 0.00411789 0 0)
(0.0630515 -0.010789 0 0.00505593 0 0)
(0.0722114 -0.0134107 0 0.00599937 0 0)
(0.0842571 -0.0172851 0 0.00740567 0 0)
(0.100325 -0.0223024 0 0.00901955 0 0)
(0.122052 -0.0305252 0 0.0119719 0 0)
(0.151534 -0.0421294 0 0.0161295 0 0)
(0.19107 -0.0623868 0 0.0248872 0 0)
(0.24158 -0.0942675 0 0.041122 0 0)
(0.299862 -0.146598 0 0.0752551 0 0)
(0.345987 -0.225846 0 0.153205 0 0)
(0.00470573 -0.000864564 0 0.00137392 0 0)
(0.036909 -0.00353085 0 0.00119821 0 0)
(0.038178 -0.00413692 0 0.00155281 0 0)
(0.0366243 -0.00428393 0 0.00215302 0 0)
(0.0392373 -0.00476819 0 0.00276559 0 0)
(0.0430777 -0.00577777 0 0.00342315 0 0)
(0.0475955 -0.00723401 0 0.004195 0 0)
(0.0530211 -0.00910402 0 0.00514089 0 0)
(0.0596959 -0.0114715 0 0.00625699 0 0)
(0.0681675 -0.014589 0 0.00765353 0 0)
(0.0792156 -0.0188577 0 0.00944634 0 0)
(0.0936486 -0.0249292 0 0.0120012 0 0)
(0.11275 -0.0338001 0 0.0158407 0 0)
(0.137409 -0.0470524 0 0.0220866 0 0)
(0.169025 -0.0675516 0 0.0330791 0 0)
(0.205424 -0.0982838 0 0.0529611 0 0)
(0.243428 -0.1441 0 0.0908043 0 0)
(0.267991 -0.202388 0 0.158185 0 0)
(0.00530102 -0.000744818 0 0.00154281 0 0)
(0.0368038 -0.00393149 0 0.00150315 0 0)
(0.0376175 -0.00455082 0 0.00184365 0 0)
(0.0358842 -0.00472973 0 0.0025205 0 0)
(0.0382972 -0.00532086 0 0.00327845 0 0)
(0.0418132 -0.00647597 0 0.00408451 0 0)
(0.0459321 -0.00810544 0 0.0050397 0 0)
(0.0508883 -0.0101715 0 0.00619667 0 0)
(0.0569757 -0.012801 0 0.00764141 0 0)
(0.0646307 -0.0162295 0 0.00945462 0 0)
(0.0744568 -0.0209325 0 0.0118477 0 0)
(0.0870166 -0.0275199 0 0.0152259 0 0)
(0.103081 -0.0369462 0 0.0202575 0 0)
(0.122884 -0.0506142 0 0.0283052 0 0)
(0.146662 -0.070359 0 0.041441 0 0)
(0.171667 -0.0983963 0 0.0641446 0 0)
(0.194828 -0.135488 0 0.101444 0 0)
(0.205574 -0.178655 0 0.162358 0 0)
(0.00368568 -0.000744468 0 0.00181808 0 0)
(0.0351862 -0.0041957 0 0.00180798 0 0)
(0.0361341 -0.0046422 0 0.00234189 0 0)
(0.0345313 -0.00468091 0 0.00312493 0 0)
(0.0368622 -0.00527908 0 0.0040003 0 0)
(0.0400571 -0.00649142 0 0.00495329 0 0)
(0.0436867 -0.00818407 0 0.00607881 0 0)
(0.0480373 -0.0103508 0 0.00748454 0 0)
(0.0533861 -0.0131382 0 0.00926913 0 0)
(0.0600633 -0.0168051 0 0.0115706 0 0)
(0.0684865 -0.0217821 0 0.0146315 0 0)
(0.0789696 -0.0286363 0 0.0189261 0 0)
(0.091882 -0.0381832 0 0.0251999 0 0)
(0.107028 -0.0514556 0 0.0348285 0 0)
(0.123996 -0.0696551 0 0.0497996 0 0)
(0.140188 -0.0936435 0 0.0736349 0 0)
(0.15304 -0.122918 0 0.109871 0 0)
(0.155946 -0.154163 0 0.163864 0 0)
(0.0055751 -0.00110364 0 0.00172028 0 0)
(0.0359648 -0.00503105 0 0.0020111 0 0)
(0.035858 -0.0054589 0 0.00265622 0 0)
(0.0338532 -0.00533167 0 0.00355193 0 0)
(0.0360892 -0.00588975 0 0.00459728 0 0)
(0.039174 -0.00718686 0 0.0057507 0 0)
(0.0425529 -0.0090261 0 0.00710412 0 0)
(0.0464697 -0.0113541 0 0.00879244 0 0)
(0.051145 -0.0142968 0 0.0109473 0 0)
(0.0568201 -0.0181058 0 0.0137531 0 0)
(0.0637733 -0.0231712 0 0.0174784 0 0)
(0.0721438 -0.0299921 0 0.0226542 0 0)
(0.0820133 -0.0391884 0 0.0300217 0 0)
(0.0929273 -0.0514575 0 0.0409283 0 0)
(0.104233 -0.067394 0 0.0570334 0 0)
(0.113725 -0.0870551 0 0.0810894 0 0)
(0.119712 -0.109363 0 0.115246 0 0)
(0.118074 -0.131231 0 0.162429 0 0)
(0.00472928 -0.000997684 0 0.00199867 0 0)
(0.0354319 -0.00529037 0 0.00230687 0 0)
(0.0353723 -0.00564339 0 0.00308764 0 0)
(0.033371 -0.00541609 0 0.00409627 0 0)
(0.0354222 -0.00593569 0 0.00529358 0 0)
(0.038139 -0.00721848 0 0.00665003 0 0)
(0.0410143 -0.00903467 0 0.00824447 0 0)
(0.0442855 -0.0113329 0 0.0102216 0 0)
(0.0481314 -0.0142467 0 0.0127461 0 0)
(0.052717 -0.0180116 0 0.016042 0 0)
(0.0582005 -0.022955 0 0.0204077 0 0)
(0.0645748 -0.0294599 0 0.0263871 0 0)
(0.0717385 -0.0379603 0 0.0346965 0 0)
(0.079126 -0.0488261 0 0.04654 0 0)
(0.0860607 -0.062222 0 0.0632184 0 0)
(0.0908172 -0.077721 0 0.0867552 0 0)
(0.09246 -0.0941173 0 0.118259 0 0)
(0.0883956 -0.108845 0 0.159418 0 0)
(0.00478753 -0.00127515 0 0.00219654 0 0)
(0.0354095 -0.00607763 0 0.00262369 0 0)
(0.0346717 -0.00647528 0 0.0034577 0 0)
(0.0322198 -0.00609403 0 0.00456919 0 0)
(0.0339915 -0.00654567 0 0.00590442 0 0)
(0.0364595 -0.00783074 0 0.00746462 0 0)
(0.0390184 -0.00964633 0 0.00931981 0 0)
(0.0418413 -0.0118996 0 0.0116088 0 0)
(0.0450553 -0.0147053 0 0.0145011 0 0)
(0.0487604 -0.0182867 0 0.018253 0 0)
(0.0530194 -0.0229234 0 0.0231885 0 0)
(0.0577312 -0.0288908 0 0.0298344 0 0)
(0.0626817 -0.0364351 0 0.0388291 0 0)
(0.0673131 -0.0456673 0 0.0511794 0 0)
(0.0710306 -0.0564577 0 0.0678327 0 0)
(0.072615 -0.0681751 0 0.090196 0 0)
(0.0716422 -0.0796857 0 0.118693 0 0)
(0.0665377 -0.0890456 0 0.154296 0 0)
(0.00437189 -0.00112189 0 0.00247882 0 0)
(0.0345216 -0.00604156 0 0.00300191 0 0)
(0.0337633 -0.00644293 0 0.0038849 0 0)
(0.0312717 -0.00591533 0 0.00509789 0 0)
(0.0327618 -0.00623034 0 0.00656696 0 0)
(0.0347604 -0.00741765 0 0.00831314 0 0)
(0.0367689 -0.00912493 0 0.0104007 0 0)
(0.0389945 -0.0112213 0 0.0129604 0 0)
(0.0415207 -0.0138042 0 0.0161838 0 0)
(0.0443652 -0.0170692 0 0.0203386 0 0)
(0.0474881 -0.0212345 0 0.0257461 0 0)
(0.0507029 -0.0264592 0 0.0328957 0 0)
(0.0537543 -0.0328383 0 0.0423299 0 0)
(0.0561726 -0.0402927 0 0.0548656 0 0)
(0.0575432 -0.0485446 0 0.0711458 0 0)
(0.0570577 -0.0568972 0 0.0921422 0 0)
(0.0546703 -0.06442 0 0.117854 0 0)
(0.0493322 -0.0695998 0 0.148908 0 0)
(0.00443039 -0.00145029 0 0.00276831 0 0)
(0.034953 -0.00649432 0 0.00331103 0 0)
(0.0337876 -0.00679075 0 0.00420275 0 0)
(0.0309273 -0.00610877 0 0.00549915 0 0)
(0.0321555 -0.00633171 0 0.00709726 0 0)
(0.0339208 -0.00748687 0 0.00902448 0 0)
(0.0356313 -0.00916889 0 0.011337 0 0)
(0.0374271 -0.0111913 0 0.0141575 0 0)
(0.0393569 -0.0136094 0 0.0176772 0 0)
(0.0414211 -0.016576 0 0.0221581 0 0)
(0.0435675 -0.0202517 0 0.0279005 0 0)
(0.0456153 -0.0247142 0 0.0353326 0 0)
(0.0473197 -0.0299582 0 0.0448877 0 0)
(0.0482935 -0.0358002 0 0.0572073 0 0)
(0.0482434 -0.0419078 0 0.0726954 0 0)
(0.0466542 -0.0476169 0 0.0920368 0 0)
(0.0436761 -0.0522004 0 0.114985 0 0)
(0.0386194 -0.0544997 0 0.142006 0 0)
(0.00459704 -0.00148773 0 0.00329948 0 0)
(0.0343966 -0.00641462 0 0.0040953 0 0)
(0.0330369 -0.00664277 0 0.00512247 0 0)
(0.0301791 -0.00588255 0 0.00651239 0 0)
(0.0312783 -0.00597554 0 0.00821962 0 0)
(0.0326978 -0.00695204 0 0.0102964 0 0)
(0.033881 -0.00839989 0 0.0128085 0 0)
(0.0350099 -0.0101095 0 0.0158734 0 0)
(0.0361449 -0.0121004 0 0.0196591 0 0)
(0.0372811 -0.0144765 0 0.024405 0 0)
(0.0383629 -0.0173407 0 0.0303784 0 0)
(0.0392358 -0.0206981 0 0.0379452 0 0)
(0.0396989 -0.0244663 0 0.0474292 0 0)
(0.0394777 -0.0283922 0 0.0592969 0 0)
(0.0384056 -0.0321458 0 0.073729 0 0)
(0.036219 -0.0351444 0 0.0911627 0 0)
(0.0331946 -0.0368888 0 0.111164 0 0)
(0.0288801 -0.0365208 0 0.13409 0 0)
(0.00488852 -0.00121866 0 0.00317241 0 0)
(0.0344682 -0.00721539 0 0.00425164 0 0)
(0.0328338 -0.00758014 0 0.00553927 0 0)
(0.0295852 -0.00670118 0 0.00714185 0 0)
(0.0302866 -0.0066435 0 0.00902307 0 0)
(0.031302 -0.00746597 0 0.0112685 0 0)
(0.0320821 -0.00872844 0 0.0139655 0 0)
(0.0327691 -0.0101688 0 0.0172163 0 0)
(0.0333695 -0.0117534 0 0.0211653 0 0)
(0.0338469 -0.0135452 0 0.0260269 0 0)
(0.0341389 -0.0155991 0 0.0320266 0 0)
(0.0341248 -0.0178591 0 0.0394481 0 0)
(0.0336705 -0.0201886 0 0.0484924 0 0)
(0.03264 -0.0223065 0 0.0594596 0 0)
(0.0310102 -0.0239303 0 0.0723497 0 0)
(0.028718 -0.0245922 0 0.087421 0 0)
(0.0260951 -0.0240159 0 0.104162 0 0)
(0.0228473 -0.0215942 0 0.122895 0 0)
(0.00491348 -0.00129388 0 0.00346892 0 0)
(0.0339581 -0.00707794 0 0.00439679 0 0)
(0.0318726 -0.00744217 0 0.00561217 0 0)
(0.0283331 -0.00642594 0 0.00727921 0 0)
(0.0287081 -0.0061917 0 0.00927802 0 0)
(0.02935 -0.00681978 0 0.0116409 0 0)
(0.0297598 -0.00781453 0 0.0144434 0 0)
(0.0300562 -0.00886076 0 0.0177874 0 0)
(0.0301881 -0.00988601 0 0.0217982 0 0)
(0.0300943 -0.0109182 0 0.0266354 0 0)
(0.0297468 -0.0119794 0 0.0324445 0 0)
(0.0291087 -0.0129881 0 0.0394074 0 0)
(0.0281455 -0.0138033 0 0.0476147 0 0)
(0.0268419 -0.0141704 0 0.0572451 0 0)
(0.0252556 -0.0138931 0 0.0682068 0 0)
(0.0234387 -0.0126284 0 0.0806667 0 0)
(0.0216883 -0.0102867 0 0.094135 0 0)
(0.0197942 -0.00643132 0 0.108928 0 0)
(0.00553769 -0.00115132 0 0.00357614 0 0)
(0.0347637 -0.00733006 0 0.00470085 0 0)
(0.0321869 -0.00788418 0 0.0060928 0 0)
(0.0282133 -0.00678838 0 0.00789908 0 0)
(0.0281971 -0.00636963 0 0.00996442 0 0)
(0.0284048 -0.00675802 0 0.0123536 0 0)
(0.0283316 -0.00742327 0 0.0151293 0 0)
(0.0281294 -0.00800069 0 0.018355 0 0)
(0.0277846 -0.00838951 0 0.0221255 0 0)
(0.0272712 -0.00861561 0 0.0265655 0 0)
(0.0265884 -0.00870978 0 0.0317698 0 0)
(0.0257424 -0.00860565 0 0.0378485 0 0)
(0.0247401 -0.00819029 0 0.0448181 0 0)
(0.0236328 -0.00726132 0 0.0527658 0 0)
(0.0224973 -0.00569475 0 0.0615475 0 0)
(0.0214409 -0.00325131 0 0.0712743 0 0)
(0.020686 4.81903e-05 0 0.081504 0 0)
(0.0201082 0.00452512 0 0.0925454 0 0)
(0.00492959 -0.00121779 0 0.00360735 0 0)
(0.0340225 -0.00773748 0 0.00465094 0 0)
(0.0314908 -0.0082711 0 0.00569633 0 0)
(0.0273399 -0.00714019 0 0.00725267 0 0)
(0.0269163 -0.00664487 0 0.00917324 0 0)
(0.0265537 -0.00677691 0 0.0113942 0 0)
(0.025908 -0.00700793 0 0.0139028 0 0)
(0.0252567 -0.00704631 0 0.0167406 0 0)
(0.0246307 -0.0068418 0 0.0199904 0 0)
(0.0239958 -0.00642263 0 0.0237432 0 0)
(0.0233333 -0.00579077 0 0.0280447 0 0)
(0.022648 -0.0048707 0 0.0329396 0 0)
(0.0219628 -0.00356496 0 0.0383966 0 0)
(0.0213623 -0.00173793 0 0.0444462 0 0)
(0.0209329 0.000672062 0 0.0509426 0 0)
(0.0208036 0.00379462 0 0.0579667 0 0)
(0.0211263 0.00757107 0 0.0651692 0 0)
(0.021843 0.0121843 0 0.07282 0 0)
(0.00489905 -0.00101683 0 0.00347652 0 0)
(0.0341337 -0.00724953 0 0.00434052 0 0)
(0.0308755 -0.00738876 0 0.00524365 0 0)
(0.0262266 -0.005836 0 0.00657733 0 0)
(0.0255316 -0.0048111 0 0.00813154 0 0)
(0.024928 -0.00437888 0 0.00987821 0 0)
(0.024126 -0.00407884 0 0.0118737 0 0)
(0.023448 -0.00360934 0 0.0141679 0 0)
(0.022915 -0.00285496 0 0.0167675 0 0)
(0.0224798 -0.0018001 0 0.0196699 0 0)
(0.0221353 -0.000459992 0 0.0228639 0 0)
(0.0219173 0.00117964 0 0.0263525 0 0)
(0.0218793 0.00314654 0 0.0300923 0 0)
(0.0221215 0.00550433 0 0.0340924 0 0)
(0.0227212 0.00826783 0 0.0382546 0 0)
(0.0237871 0.0115119 0 0.0426534 0 0)
(0.0254025 0.0151644 0 0.0470692 0 0)
(0.0275338 0.0193483 0 0.051704 0 0)
(0.00500988 -0.00128581 0 0.0035763 0 0)
(0.0334176 -0.00682487 0 0.00410428 0 0)
(0.0297123 -0.00657311 0 0.00475757 0 0)
(0.0249634 -0.00501369 0 0.00586503 0 0)
(0.0241099 -0.00399512 0 0.00707806 0 0)
(0.0233956 -0.00350819 0 0.0084079 0 0)
(0.0225193 -0.00311948 0 0.00991868 0 0)
(0.0217868 -0.00253433 0 0.0116285 0 0)
(0.0212476 -0.00164149 0 0.0135238 0 0)
(0.0209012 -0.000437118 0 0.0155922 0 0)
(0.0207829 0.00105459 0 0.0178165 0 0)
(0.0209508 0.00282762 0 0.0201905 0 0)
(0.0214567 0.00488358 0 0.0226786 0 0)
(0.0223724 0.00724321 0 0.0252834 0 0)
(0.023751 0.0098943 0 0.0279272 0 0)
(0.0256532 0.0128646 0 0.0306603 0 0)
(0.0281349 0.0160928 0 0.0333376 0 0)
(0.031155 0.0196487 0 0.0360967 0 0)
(0.00527406 -0.00103009 0 0.00328294 0 0)
(0.0334585 -0.00588279 0 0.00359629 0 0)
(0.0294907 -0.00543313 0 0.00400818 0 0)
(0.0246791 -0.00378541 0 0.00477778 0 0)
(0.0237958 -0.0026245 0 0.00568153 0 0)
(0.0230491 -0.00192058 0 0.0066689 0 0)
(0.022249 -0.00129068 0 0.00772409 0 0)
(0.0217418 -0.000497534 0 0.00884101 0 0)
(0.0215387 0.000541037 0 0.0100298 0 0)
(0.0215962 0.00182567 0 0.0113076 0 0)
(0.02195 0.00333307 0 0.0126768 0 0)
(0.0226785 0.0050491 0 0.0141342 0 0)
(0.0238493 0.00696865 0 0.0156519 0 0)
(0.0255183 0.00910027 0 0.0172297 0 0)
(0.027717 0.0114339 0 0.018822 0 0)
(0.0304641 0.0139808 0 0.020462 0 0)
(0.033792 0.016699 0 0.0220681 0 0)
(0.0376322 0.0196249 0 0.0237223 0 0)
(0.00484384 -0.000694775 0 0.00300895 0 0)
(0.033048 -0.00485829 0 0.00273589 0 0)
(0.0289463 -0.00461059 0 0.00299975 0 0)
(0.0240664 -0.00314761 0 0.00358247 0 0)
(0.0231216 -0.00202026 0 0.00426603 0 0)
(0.0223736 -0.00129712 0 0.00503184 0 0)
(0.0216678 -0.000650225 0 0.00586529 0 0)
(0.0213293 0.000164227 0 0.00675658 0 0)
(0.0213738 0.00123787 0 0.00769945 0 0)
(0.0217918 0.00255725 0 0.0086906 0 0)
(0.0226267 0.00407169 0 0.00971737 0 0)
(0.0239378 0.00574628 0 0.0107709 0 0)
(0.0257648 0.00756457 0 0.0118307 0 0)
(0.0281461 0.00953175 0 0.0128999 0 0)
(0.031089 0.0116363 0 0.013949 0 0)
(0.0346082 0.0138927 0 0.0150086 0 0)
(0.0387105 0.0162515 0 0.0160186 0 0)
(0.0433571 0.0187535 0 0.0170392 0 0)
(0.00526878 -0.000820893 0 0.00285756 0 0)
(0.0324895 -0.00446701 0 0.00266242 0 0)
(0.0283757 -0.00399047 0 0.00266476 0 0)
(0.0236086 -0.0025269 0 0.00290717 0 0)
(0.0226533 -0.00147059 0 0.00325576 0 0)
(0.0217818 -0.000814968 0 0.0036508 0 0)
(0.0209497 -0.000245047 0 0.00406017 0 0)
(0.0206135 0.000442342 0 0.00448522 0 0)
(0.0208277 0.00131321 0 0.00494817 0 0)
(0.0215283 0.00235442 0 0.0054636 0 0)
(0.022697 0.00353103 0 0.00602388 0 0)
(0.0243513 0.00481969 0 0.00661403 0 0)
(0.0265131 0.00621271 0 0.00721582 0 0)
(0.0292136 0.00771593 0 0.00783076 0 0)
(0.0324736 0.00931869 0 0.00844111 0 0)
(0.0362977 0.0110232 0 0.00906264 0 0)
(0.0406971 0.0127919 0 0.00965837 0 0)
(0.0456095 0.0146332 0 0.0102494 0 0)
(0.00547445 -0.000984074 0 0.00250816 0 0)
(0.0325476 -0.00405887 0 0.00231911 0 0)
(0.0275674 -0.00319121 0 0.0022627 0 0)
(0.0225959 -0.00166386 0 0.00248846 0 0)
(0.0219136 -0.000567617 0 0.00279865 0 0)
(0.0213998 0.000116243 0 0.00311671 0 0)
(0.0209078 0.000683867 0 0.00342268 0 0)
(0.0209281 0.0013418 0 0.00372771 0 0)
(0.0215636 0.00216122 0 0.00404484 0 0)
(0.0227576 0.00312538 0 0.00437891 0 0)
(0.0244661 0.00419531 0 0.00472412 0 0)
(0.0266851 0.00534506 0 0.00507795 0 0)
(0.0294394 0.00656645 0 0.00543798 0 0)
(0.0327637 0.00786391 0 0.00580912 0 0)
(0.0366843 0.0092259 0 0.00617646 0 0)
(0.0411945 0.0106504 0 0.00655345 0 0)
(0.0463153 0.0121053 0 0.00691077 0 0)
(0.0519685 0.0136064 0 0.00725742 0 0)
(0.00531147 -0.000962045 0 0.00213553 0 0)
(0.0318004 -0.00349519 0 0.00176821 0 0)
(0.0263022 -0.0025674 0 0.00158609 0 0)
(0.0212916 -0.0013098 0 0.00161507 0 0)
(0.0206658 -0.000459194 0 0.00170453 0 0)
(0.0202142 4.86281e-05 0 0.0017806 0 0)
(0.0198922 0.000439085 0 0.00186746 0 0)
(0.020218 0.000882313 0 0.00200131 0 0)
(0.0212328 0.00145016 0 0.00217881 0 0)
(0.0228245 0.0021323 0 0.00237338 0 0)
(0.0249491 0.00288628 0 0.00256296 0 0)
(0.0276304 0.00368411 0 0.00274369 0 0)
(0.0309113 0.00451679 0 0.00291945 0 0)
(0.0348155 0.00538672 0 0.00309809 0 0)
(0.0393553 0.00629078 0 0.0032745 0 0)
(0.0444985 0.00722817 0 0.00345514 0 0)
(0.0502587 0.00817636 0 0.00362407 0 0)
(0.0565363 0.00915052 0 0.00378417 0 0)
(0.00524977 -0.000760574 0 0.0018622 0 0)
(0.0315141 -0.00265058 0 0.00124914 0 0)
(0.025577 -0.0021417 0 0.00107819 0 0)
(0.0206883 -0.00109557 0 0.00120546 0 0)
(0.020218 -0.000239376 0 0.00130374 0 0)
(0.019906 0.000294466 0 0.00133106 0 0)
(0.0198887 0.000682489 0 0.00134426 0 0)
(0.0207027 0.00108905 0 0.00138526 0 0)
(0.022314 0.00158237 0 0.00145123 0 0)
(0.0245422 0.00215543 0 0.0015273 0 0)
(0.0273236 0.002779 0 0.00160618 0 0)
(0.0306951 0.00343381 0 0.00168723 0 0)
(0.0347141 0.0041107 0 0.00177122 0 0)
(0.0394066 0.0048065 0 0.00186112 0 0)
(0.0447757 0.00551166 0 0.00195185 0 0)
(0.0507764 0.00622535 0 0.00204586 0 0)
(0.0574166 0.00692783 0 0.0021331 0 0)
(0.0645842 0.00763224 0 0.00221516 0 0)
(0.00390186 -0.00062986 0 0.00158956 0 0)
(0.0296396 -0.00131866 0 0.000756844 0 0)
(0.0238289 -0.000805222 0 0.00049439 0 0)
(0.0195222 -0.000229601 0 0.000513787 0 0)
(0.0195522 0.000201839 0 0.000524156 0 0)
(0.0196545 0.00041483 0 0.00052104 0 0)
(0.0200314 0.000538812 0 0.000531309 0 0)
(0.0212449 0.000681409 0 0.000556297 0 0)
(0.023281 0.00088029 0 0.000587056 0 0)
(0.0259909 0.00112692 0 0.000617402 0 0)
(0.0293461 0.00139984 0 0.00064636 0 0)
(0.0333929 0.00168046 0 0.000676002 0 0)
(0.0381662 0.00195833 0 0.000707026 0 0)
(0.0436489 0.00223084 0 0.000740106 0 0)
(0.0498054 0.00249554 0 0.000774131 0 0)
(0.0565629 0.00275556 0 0.000811769 0 0)
(0.0639281 0.00299834 0 0.000850451 0 0)
(0.0717819 0.00323561 0 0.000891064 0 0)
(0.00591722 -0.000674536 0 0.00112121 0 0)
(0.029822 -0.00151315 0 0.000507806 0 0)
(0.0230924 -0.00112868 0 0.000467553 0 0)
(0.0193737 -0.000406596 0 0.000461823 0 0)
(0.0199366 5.75003e-05 0 0.000399129 0 0)
(0.0204674 0.000280152 0 0.000340336 0 0)
(0.0214505 0.000433407 0 0.000309645 0 0)
(0.0234475 0.000582196 0 0.000296367 0 0)
(0.026348 0.000721501 0 0.000290414 0 0)
(0.0299531 0.000845997 0 0.000288052 0 0)
(0.0342189 0.000963194 0 0.000289424 0 0)
(0.0391841 0.0010812 0 0.000295887 0 0)
(0.044861 0.00120297 0 0.000308322 0 0)
(0.0512229 0.0013243 0 0.000326397 0 0)
(0.0582039 0.00143634 0 0.000349113 0 0)
(0.0657443 0.00152787 0 0.000377822 0 0)
(0.0738191 0.00158702 0 0.000411666 0 0)
(0.0823444 0.00161432 0 0.000448863 0 0)
(0.0038772 -9.90316e-05 0 0.000890209 0 0)
(0.0277824 0.000228212 0 0.000232879 0 0)
(0.0213895 -1.0579e-05 0 0.000178691 0 0)
(0.0182097 4.07735e-05 0 0.000176467 0 0)
(0.019236 1.56778e-06 0 0.000184194 0 0)
(0.0202145 -0.000114419 0 0.000194672 0 0)
(0.0215818 -0.000250411 0 0.000205252 0 0)
(0.0238365 -0.000392785 0 0.000217308 0 0)
(0.026788 -0.00054326 0 0.000233067 0 0)
(0.0301517 -0.000696586 0 0.000251954 0 0)
(0.0337982 -0.000842011 0 0.000272612 0 0)
(0.037732 -0.000973773 0 0.000294455 0 0)
(0.0419378 -0.00108981 0 0.000317247 0 0)
(0.0464323 -0.00119282 0 0.000341302 0 0)
(0.0511202 -0.00128527 0 0.000366551 0 0)
(0.0560275 -0.00137456 0 0.000395335 0 0)
(0.0610071 -0.00146189 0 0.000428792 0 0)
(0.0661619 -0.00155106 0 0.00046537 0 0)
(0.00508167 -0.000389017 0 0.000696623 0 0)
(0.0298316 -0.000118863 0 0.000224155 0 0)
(0.0263345 1.04835e-05 0 0.00013504 0 0)
(0.0252313 0.000141948 0 9.48048e-05 0 0)
(0.0276117 0.000168378 0 7.45983e-05 0 0)
(0.0297466 0.000190599 0 6.42573e-05 0 0)
(0.0318282 0.000230979 0 5.91936e-05 0 0)
(0.0343671 0.000276022 0 5.80496e-05 0 0)
(0.0375129 0.000315975 0 5.95686e-05 0 0)
(0.0412764 0.000352526 0 6.3201e-05 0 0)
(0.0456434 0.000394482 0 6.86508e-05 0 0)
(0.0506027 0.000450337 0 7.54928e-05 0 0)
(0.0561914 0.000524783 0 8.3162e-05 0 0)
(0.0624579 0.00061624 0 9.10191e-05 0 0)
(0.0695042 0.000719449 0 9.90311e-05 0 0)
(0.0772764 0.000828773 0 0.000107836 0 0)
(0.085914 0.000942952 0 0.000116616 0 0)
(0.0951638 0.00106359 0 0.000124412 0 0)
(0.000300145 -0.000735063 1.92241e-22 0.00183598 -3.76862e-22 2.83099e-37)
(0.00338334 -0.00296455 -5.74358e-22 0.00268827 3.5081e-22 2.79139e-37)
(0.0104365 -0.00527355 0 0.00276464 0 0)
(0.0211578 -0.00747112 0 0.00273045 0 0)
(0.0355388 -0.00961587 0 0.00267886 0 0)
(0.0535898 -0.011753 2.07631e-21 0.0026383 -3.55606e-22 2.62929e-37)
(0.0752747 -0.0138868 0 0.00260978 0 0)
(0.100613 -0.0160095 0 0.0025895 0 0)
(0.129558 -0.0180962 0 0.00257246 0 0)
(0.162027 -0.0201168 0 0.00255512 0 0)
(0.197856 -0.0220398 -3.98901e-21 0.00253625 3.69099e-22 2.43545e-37)
(0.236803 -0.0238353 0 0.00251668 0 0)
(0.278559 -0.0254839 0 0.00250066 0 0)
(0.322726 -0.0269773 0 0.00249443 0 0)
(0.368855 -0.0283236 0 0.00250672 0 0)
(0.416467 -0.029549 -5.9172e-21 0.00254818 3.76316e-22 2.25112e-37)
(0.465079 -0.0306998 0 0.00263087 0 0)
(0.514307 -0.0318494 0 0.0027701 0 0)
(0.563888 -0.0331216 0 0.00298502 0 0)
(0.613937 -0.0345901 0 0.00328752 0 0)
(0.664915 -0.0361652 0 0.00368201 0 0)
(0.717513 -0.0376435 0 0.00416471 0 0)
(0.772536 -0.038821 0 0.00472534 0 0)
(0.830911 -0.0396825 -9.08276e-21 0.00534702 3.98282e-22 1.97564e-37)
(0.894038 -0.0405674 9.48429e-21 0.0060499 -4.04894e-22 1.94288e-37)
(0.964236 -0.0420846 -9.88486e-21 0.00696029 4.10981e-22 1.91049e-37)
(1.04513 -0.0450238 -1.02821e-20 0.00827619 4.15933e-22 1.87847e-37)
(1.1414 -0.0504214 0 0.0100143 0 0)
(1.25732 -0.0588414 0 0.0116922 0 0)
(1.39628 -0.0693583 1.14194e-20 0.0127849 -4.04482e-22 1.78465e-37)
(1.55972 -0.0803983 1.17678e-20 0.0132151 -3.89456e-22 1.75412e-37)
(1.74678 -0.0907613 0 0.0131316 0 0)
(1.95523 -0.0997287 0 0.0126882 0 0)
(2.18193 -0.106879 1.26812e-20 0.0119988 -3.26633e-22 1.66476e-37)
(2.42306 -0.111954 0 0.0111426 0 0)
(2.67435 -0.114824 0 0.0101811 0 0)
(2.93119 -0.115433 -1.33634e-20 0.00915994 2.51418e-22 1.57871e-37)
(3.18869 -0.113793 0 0.00811521 0 0)
(3.44179 -0.109953 -1.36707e-20 0.00707388 1.99045e-22 1.52318e-37)
(3.68538 -0.104004 -2.75518e-20 0.00605952 3.45658e-22 5.98384e-37)
(3.9144 -0.0960879 0 0.00509313 0 0)
(4.12402 -0.0864054 0 0.00419479 0 0)
(4.30974 -0.0752274 0 0.00338296 0 0)
(4.4676 -0.0628952 0 0.0026732 0 0)
(4.59427 -0.0498118 0 0.00207686 0 0)
(4.68734 -0.036387 -2.73518e-20 0.00159758 5.79975e-23 5.36085e-37)
(4.74572 -0.0230207 -2.70771e-20 0.00123376 1.93197e-23 5.262e-37)
(4.76934 -0.0100508 -2.67412e-20 0.000976945 -1.55964e-23 5.16455e-37)
(4.75873 0.00220345 0 0.000816241 0 0)
(4.7157 0.0134989 2.5908e-20 0.000735545 7.35485e-23 4.97382e-37)
(4.64283 0.0236576 0 0.000718489 0 0)
(4.54273 0.0325636 -2.49054e-20 0.000748434 -1.1566e-22 4.78859e-37)
(4.4188 0.0401364 -2.43587e-20 0.000810237 -1.31069e-22 4.69801e-37)
(4.27452 0.0463538 0 0.000890287 0 0)
(4.11351 0.0512439 0 0.000976942 0 0)
(3.93925 0.0548889 0 0.00106151 0 0)
(3.75503 0.0574094 -2.20293e-20 0.00113737 -1.60824e-22 4.34905e-37)
(3.56377 0.0589528 0 0.00120204 0 0)
(3.36802 0.0596667 0 0.00125294 0 0)
(3.16993 0.0597014 0 0.00129097 0 0)
(2.97128 0.0591776 0 0.00131672 0 0)
(2.7736 0.0582028 0 0.00133268 0 0)
(2.5782 0.0568326 0 0.00133923 0 0)
(2.38631 0.0551058 0 0.00133717 0 0)
(2.19914 0.053028 0 0.00132532 0 0)
(2.01794 0.0506185 1.71292e-20 0.00130312 1.30702e-22 3.63876e-37)
(1.84392 0.047881 0 0.00126802 0 0)
(1.67827 0.0448573 0 0.00121907 0 0)
(1.52201 0.0416087 -1.57928e-20 0.00115617 -1.09371e-22 3.42385e-37)
(1.37593 0.0382122 -1.53873e-20 0.0010805 -1.01746e-22 3.35452e-37)
(1.24054 0.0347609 0 0.000994941 0 0)
(1.11609 0.0313375 1.4636e-20 0.000902715 8.6448e-23 3.21927e-37)
(1.00252 0.0280177 -1.42891e-20 0.000807507 -7.89785e-23 3.15331e-37)
(0.899519 0.0248736 0 0.000713524 0 0)
(0.806679 0.0219467 1.36489e-20 0.000623485 6.49342e-23 3.02467e-37)
(0.723365 0.019252 0 0.000538902 0 0)
(0.648884 0.0168112 0 0.000461758 0 0)
(0.58251 0.0146127 -1.28077e-20 0.000392061 -4.67289e-23 2.83968e-37)
(0.523498 0.0126575 0 0.000330555 0 0)
(0.471161 0.0109309 1.23147e-20 0.00027697 3.66981e-23 2.72152e-37)
(0.424743 0.00939991 0 0.00023 0 0)
(0.383609 0.00805465 -1.18669e-20 0.000189574 -2.82042e-23 2.60736e-37)
(0.347217 0.00687687 -1.16579e-20 0.000155046 -2.44955e-23 2.55175e-37)
(0.31505 0.005849 -1.14579e-20 0.000125781 -2.11165e-23 2.49709e-37)
(0.286639 0.00495436 -2.25326e-20 0.00010116 -3.60931e-23 9.77357e-37)
(0.261559 0.00417752 2.21649e-20 8.05957e-05 3.05282e-23 9.56249e-37)
(0.239433 0.0035044 0 6.355e-05 0 0)
(0.21992 0.0029223 0 4.95343e-05 0 0)
(0.202719 0.00241986 0 3.81103e-05 0 0)
(0.187563 0.00198694 2.0828e-20 2.88886e-05 1.3236e-23 8.75456e-37)
(0.174213 0.00161457 2.05227e-20 2.15254e-05 9.97589e-24 8.56141e-37)
(0.162461 0.00129486 -2.02274e-20 1.57196e-05 -7.07672e-24 8.37169e-37)
(0.152122 0.00102088 0 1.12091e-05 0 0)
(0.143032 0.000786585 1.9664e-20 7.76774e-06 2.24097e-24 8.00236e-37)
(0.135049 0.000586737 1.93947e-20 5.20083e-06 2.55906e-25 7.82264e-37)
(0.128045 0.00041672 1.91328e-20 3.34203e-06 -1.47214e-24 7.64615e-37)
(0.121909 0.000272512 0 2.04993e-06 0 0)
(0.116544 0.000150647 0 1.20503e-06 0 0)
(0.111861 4.81224e-05 0 7.06631e-07 0 0)
(0.107785 -3.76341e-05 1.81501e-20 4.70168e-07 -6.23739e-24 6.97162e-37)
(0.104249 -0.000108838 0 4.24751e-07 0 0)
(0.101191 -0.000167407 0 5.11417e-07 0 0)
(0.0985582 -0.000215015 -1.74694e-20 6.81551e-07 8.04251e-24 6.4974e-37)
(0.0963032 -0.000253118 0 8.95789e-07 0 0)
(0.0943833 -0.000282986 0 1.1231e-06 0 0)
(0.0927605 -0.000305777 -1.68266e-20 1.34017e-06 8.76268e-24 6.04896e-37)
(0.0914008 -0.000322502 0 1.53039e-06 0 0)
(0.0902742 -0.000334092 0 1.68346e-06 0 0)
(0.0893536 -0.000341434 1.62141e-20 1.79483e-06 -8.7421e-24 5.62513e-37)
(0.0886154 -0.000345245 1.60156e-20 1.86341e-06 -8.62225e-24 5.48912e-37)
(0.0880388 -0.000346297 0 1.89358e-06 0 0)
(0.0876061 -0.000345279 -1.56259e-20 1.8923e-06 8.27801e-24 5.22478e-37)
(0.0873011 -0.000342583 0 1.86484e-06 0 0)
(0.0871097 -0.000338915 1.52449e-20 1.82317e-06 -7.83998e-24 4.97038e-37)
(0.0870209 -0.000334581 0 1.7742e-06 0 0)
(0.0870213 -0.000329 1.48715e-20 1.71034e-06 -7.34542e-24 4.72562e-37)
(0.0870986 -0.000321864 1.46874e-20 1.62751e-06 -7.07379e-24 4.60676e-37)
(0.087242 -0.000313409 0 1.53019e-06 0 0)
(0.0874412 -0.000303959 0 1.42424e-06 0 0)
(0.0876871 -0.000293774 0 1.31436e-06 0 0)
(0.0879722 -0.000283096 0 1.20442e-06 0 0)
(0.0882899 -0.000272128 0 1.0974e-06 0 0)
(0.0886347 -0.00026105 0 9.95526e-07 0 0)
(0.0890018 -0.000249996 0 9.00058e-07 0 0)
(0.089387 -0.000238971 1.32646e-20 8.10525e-07 -4.80229e-24 3.73554e-37)
(0.0897867 -0.000227969 -1.30921e-20 7.26308e-07 4.54645e-24 3.63608e-37)
(0.0901977 -0.000217115 0 6.48183e-07 0 0)
(0.0906177 -0.000206674 0 5.78023e-07 0 0)
(0.0910445 -0.000196761 0 5.16071e-07 0 0)
(0.0914762 -0.000187341 0 4.61215e-07 0 0)
(0.0919109 -0.000178355 -2.4491e-20 4.1233e-07 6.93189e-24 1.26715e-36)
(0.0923468 -0.000169765 0 3.68572e-07 0 0)
(0.0927823 -0.000161529 2.38276e-20 3.2921e-07 -6.24348e-24 1.19745e-36)
(0.0932161 -0.000153622 -2.34987e-20 2.93695e-07 5.93092e-24 1.16366e-36)
(0.0936467 -0.000146025 0 2.61603e-07 0 0)
(0.0940732 -0.000138751 0 2.32714e-07 0 0)
(0.0944946 -0.000131853 0 2.06997e-07 0 0)
(0.0949105 -0.000125411 2.22016e-20 1.845e-07 -4.88852e-24 1.03539e-36)
(0.0953209 -0.000119501 2.18818e-20 1.65201e-07 -4.67945e-24 1.00498e-36)
(0.0957261 -0.000114169 0 1.48911e-07 0 0)
(0.0961266 -0.000109414 2.12477e-20 1.35281e-07 -4.31715e-24 9.4607e-37)
(0.0965234 -0.000105181 2.09333e-20 1.23851e-07 -4.16074e-24 9.17554e-37)
(0.0969172 -0.000101397 -2.06207e-20 1.14169e-07 4.01671e-24 8.8965e-37)
(0.0973087 -9.79771e-05 0 1.0584e-07 0 0)
(0.0976988 -9.48555e-05 0 9.85769e-08 0 0)
(0.098088 -9.19829e-05 -1.96935e-20 9.21789e-08 3.64143e-24 8.09506e-37)
(0.0984767 -8.9337e-05 0 8.65273e-08 0 0)
(0.0988656 -8.6907e-05 0 8.15421e-08 0 0)