/*--------------------------------*- C++ -*----------------------------------*\
  =========                 |
  \\      /  F ield         | OpenFOAM: The Open Source CFD Toolbox
   \\    /   O peration     | Website:  https://openfoam.org
    \\  /    A nd           | Version:  7
     \\/     M anipulation  |
\*---------------------------------------------------------------------------*/
FoamFile
{
    version     2.0;
    format      ascii;
    class       volVectorField;
    location    "36";
    object      U;
}
// * * * * * * * * * * * * * * * * * * * * * * * * * * * * * * * * * * * * * //

dimensions      [0 1 -1 0 0 0 0];

internalField   nonuniform List<vector> 
918
(
(0.813496 -0.0529589 0)
(0.134464 2.47694 0)
(0.0512396 0.593922 0)
(0.756261 0.0535048 0)
(-0.0174943 0.681218 -1.77387e-19)
(-0.136691 2.25728 -2.72107e-17)
(0.246836 0.42067 -9.40275e-19)
(0.100575 0.0538966 -5.23804e-20)
(1.00266 -0.00702889 0)
(-0.00339478 0.247935 0)
(-0.00957245 0.300248 0)
(0.200497 0.00197108 0)
(0.117393 1.74038 0)
(0.00851293 1.30143 0)
(-0.00598936 1.03728 -1.32875e-18)
(-0.00359712 0.432661 -1.60785e-19)
(0.109076 0.0261257 3.85271e-18)
(0.0449608 0.362465 -4.90983e-19)
(0.47638 0.0500621 0)
(-0.0147315 0.35575 0)
(0.238437 0.122968 -1.76424e-18)
(1.02785 -0.139875 0)
(0.959598 -0.177492 0)
(0.589274 -0.0666008 0)
(0.172954 0.0116145 0)
(-0.0150229 1.47525 0)
(-0.0469634 1.72795 8.39437e-18)
(-0.0223003 0.766535 0)
(0.0180499 1.55414 0)
(0.0487423 0.937297 0)
(-0.0304698 1.73466 0)
(0.00936283 0.917255 1.38777e-19)
(0.0124178 0.370885 0)
(-0.320951 2.70296 -1.01922e-21)
(-0.310509 3.10884 2.35113e-17)
(-0.0130235 3.04129 0)
(0.241564 -0.000668871 0)
(0.0667532 0.0844033 5.7607e-19)
(0.431184 0.69737 2.04654e-18)
(0.275742 0.354199 -1.65649e-18)
(0.376783 0.785706 1.9685e-19)
(0.211364 0.461498 -9.75706e-19)
(0.197709 0.105395 5.27719e-20)
(0.104825 0.0528286 0)
(0.319191 0.197015 0)
(0.198426 0.107584 2.35821e-19)
(0.102673 0.0586419 -2.34294e-19)
(0.275458 -0.0145414 0)
(1.01043 -0.000249724 0)
(1.00278 0.00668114 0)
(1.07491 -0.154049 0)
(1.01611 -0.0279837 0)
(1.01126 -0.0177097 0)
(0.00880125 0.556851 -2.45291e-18)
(-0.0165423 0.508608 0)
(0.00349942 0.250082 0)
(-0.0115035 0.501513 0)
(-0.00540721 0.248343 0)
(-0.00255236 0.51583 0)
(-0.028825 0.567378 0)
(-0.00695101 0.271673 0)
(-0.0108884 0.595077 0)
(-0.00281182 0.319014 0)
(0.255186 0.0027336 0)
(0.387863 -0.000261621 0)
(0.204294 0.00335929 0)
(0.374093 0.005614 0)
(0.190541 0.0024043 0)
(0.345185 2.93893 1.0722e-17)
(0.284413 3.23577 0)
(0.225159 3.03561 0)
(0.211121 2.70618 1.15656e-22)
(0.138778 2.12556 -1.50701e-17)
(0.177549 2.49081 0)
(0.0775988 1.54065 0)
(0.0169093 2.25862 1.59528e-23)
(0.0180278 1.30089 0)
(-0.0622278 2.29154 0)
(-0.0451628 1.32089 0)
(0.0245963 1.75841 0)
(-0.0103007 1.16681 0)
(0.0115415 1.89411 1.34404e-18)
(0.00295164 1.09114 0)
(-0.0643071 2.50377 0)
(0.00142544 0.820431 1.62703e-19)
(-0.00648704 0.444256 -2.17167e-19)
(0.220186 0.0514452 -1.36349e-18)
(0.111476 0.0221863 -1.30331e-18)
(0.222399 0.0593659 -4.10122e-18)
(0.110201 0.0332553 -2.59222e-18)
(0.0516855 0.381217 0)
(0.109315 0.701084 4.66769e-19)
(0.106028 0.4145 -7.34668e-19)
(0.656717 0.0840862 0)
(0.346231 0.0354572 0)
(1.00992 0.0417578 0)
(1.0276 0.159003 0)
(0.93556 0.139989 -1.69818e-17)
(0.85007 0.134928 1.27294e-17)
(-0.0371947 0.662328 0)
(-0.00625541 0.319349 0)
(-0.0140182 1.0449 0)
(-0.0281759 0.711601 0)
(-0.029156 0.355298 0)
(0.398613 0.132631 6.07834e-19)
(0.171053 0.085681 0)
(0.742648 -0.0931962 0)
(0.41198 -0.0416448 0)
(0.359525 0.0036565 0)
(0.341723 0.00751647 0)
(0.180792 0.00249445 0)
(0.32571 0.0176293 0)
(0.278359 0.0216432 0)
(0.118078 0.00936316 5.97817e-18)
(-0.0215388 1.34805 4.36518e-18)
(-0.0515658 2.42633 0)
(-0.073214 2.51375 0)
(-0.0190412 1.35903 0)
(-0.066661 2.63611 7.71218e-18)
(-0.0345621 1.62913 0)
(-0.103459 2.69815 -2.53117e-17)
(-0.0733537 1.81721 8.47824e-18)
(0.00213023 1.89579 0)
(-0.0130164 2.13644 0)
(-0.0117969 0.78466 -3.31423e-21)
(-0.00735986 0.747612 0)
(-0.00701605 0.411221 0)
(0.459539 0.010845 0)
(0.246933 0.00465042 0)
(0.230486 0.00337256 0)
(0.45914 -0.00863988 0)
(0.2506 -0.00250147 0)
(0.216347 0.24654 -7.74462e-19)
(0.0556195 0.0710647 0)
(0.200373 0.277548 1.01568e-19)
(0.0727944 0.117798 0)
(0.491262 0.591124 5.415e-19)
(0.296151 0.306085 -1.21594e-18)
(0.227869 0.763212 0)
(0.308781 0.810055 0)
(0.166056 0.462505 0)
(0.0664431 0.170408 -7.9352e-19)
(0.210979 0.0967594 0)
(0.108509 0.0464122 7.0766e-19)
(0.514712 0.511015 0)
(0.539666 0.418828 0)
(0.305463 0.249544 1.3543e-18)
(0.572301 0.323152 0)
(0.345717 0.148552 2.81699e-20)
(0.477525 0.0031127 0)
(0.484131 -0.00639994 0)
(0.256793 -0.000192303 0)
(0.6194 -0.0612822 0)
(0.527041 -0.0412238 0)
(0.329256 -0.0267323 0)
(1.0256 0.0654655 0)
(1.01256 0.0271096 0)
(1.00465 0.0215274 0)
(0.0128618 1.00276 1.32956e-18)
(0.0079814 0.520752 0)
(0.00728833 1.05402 2.34907e-18)
(0.00145296 0.583442 -2.07112e-18)
(0.0407483 0.61625 4.20481e-19)
(0.0212859 0.527935 0)
(0.019826 0.29951 0)
(-0.0131364 0.511377 0)
(-0.00299583 0.262331 0)
(-0.00301227 0.958187 -8.75062e-21)
(-0.0162068 0.528377 0)
(-0.0299615 0.930782 -4.31903e-19)
(-0.014065 0.483181 8.1942e-19)
(0.000323749 0.5201 0)
(0.00244139 0.527022 0)
(0.000434439 0.269097 0)
(0.00504167 0.600975 0)
(0.000700663 0.316976 0)
(0.474831 -0.00105586 0)
(0.255123 0.003021 0)
(0.467935 0.00897682 0)
(0.24706 0.000332045 0)
(0.222034 0.00115383 0)
(0.415536 0.00477092 0)
(0.396926 0.0137646 0)
(0.217241 0.00483188 0)
(-0.0064856 4.03788 -6.95096e-20)
(0.0602177 3.91025 0)
(0.0867552 2.35695 0)
(0.0374092 1.39791 0)
(0.241315 1.65539 0)
(0.256681 0.703075 2.0748e-19)
(0.0254772 1.98458 0)
(-0.0221313 1.14566 0)
(-0.0348966 2.29523 0)
(-0.0627079 2.48961 0)
(-0.0488089 2.42638 0)
(-0.0357427 1.85044 2.17692e-20)
(-0.0559358 2.47781 0)
(-0.0420716 2.25912 0)
(0.002703 0.462592 1.6883e-20)
(0.0093498 0.886528 3.10169e-19)
(-0.015956 0.850778 2.26806e-19)
(-0.00241633 0.466027 0)
(0.227511 0.0362053 2.1022e-18)
(0.111845 0.0149893 -2.02078e-18)
(0.0955673 0.705773 0)
(0.0657567 0.343434 -5.93023e-19)
(0.0844179 0.783335 -1.97922e-18)
(0.0358566 0.436976 1.93599e-18)
(0.258612 0.00611207 0)
(0.500467 0.0124969 0)
(0.545602 0.0365705 0)
(0.289339 0.0121328 0)
(0.00380108 0.608119 0)
(0.0101792 0.614494 0)
(0.00220688 0.322761 0)
(0.202541 0.11305 2.11742e-18)
(0.242781 0.117917 -2.38962e-18)
(0.115167 0.063509 0)
(0.619078 0.047847 2.3778e-19)
(0.362134 0.0310908 0)
(0.553709 0.0358297 0)
(0.284043 0.00761886 0)
(0.230305 0.028715 0)
(0.237414 0.0168358 -9.78398e-18)
(0.117464 0.0111172 3.56108e-18)
(-0.0284451 2.4067 4.87978e-18)
(-0.0222742 1.43696 4.50829e-19)
(0.0206244 3.94123 -1.60508e-19)
(0.126144 3.8064 7.03331e-18)
(-0.141175 2.77487 3.10507e-19)
(-0.0946642 1.99797 -1.26681e-21)
(-0.258628 3.0954 -6.591e-18)
(0.0494084 3.53287 4.938e-18)
(0.0129015 3.73836 -7.39442e-18)
(0.461978 -0.00460818 0)
(0.469062 0.00553263 0)
(0.249891 -0.000350694 0)
(0.469631 0.0065331 0)
(0.442774 0.0126764 0)
(0.245885 0.00577104 0)
(0.426018 -0.000820988 0)
(0.431118 -0.00202585 0)
(0.226652 -0.000517529 0)
(0.163665 0.276699 -4.19988e-19)
(0.0528752 0.118733 0)
(0.0689398 0.134743 2.12437e-19)
(0.15779 0.309901 1.66533e-18)
(0.164592 0.301575 -9.20068e-19)
(0.066206 0.125641 1.72799e-18)
(0.133792 0.373882 4.06787e-18)
(0.0726786 0.170672 7.7281e-19)
(0.219883 0.0734277 2.78446e-18)
(0.216631 0.0869574 7.24002e-19)
(0.110407 0.0401427 1.3352e-18)
(0.621127 0.23783 -1.54908e-18)
(0.372486 0.110561 -1.68631e-18)
(-0.0185709 1.05439 1.00281e-18)
(-0.00848164 0.577337 0)
(0.515743 0.00697232 0)
(0.492222 0.0192237 0)
(0.274328 0.00738688 0)
(0.0159581 4.013 0)
(0.0437133 2.26226 9.91778e-18)
(0.058042 2.29559 0)
(0.0235504 1.33437 -9.20517e-18)
(-0.0171327 4.07977 1.959e-18)
(-0.0298901 4.10505 0)
(0.235871 0.375555 -2.25288e-20)
(0.312167 0.684049 2.2949e-19)
(0.0728928 0.21057 -3.63995e-19)
(-0.0483751 2.27072 -4.2366e-18)
(-0.0487589 2.101 0)
(-0.0313696 1.26674 0)
(0.00649595 0.89174 -3.20736e-20)
(0.0140325 0.902828 -6.75937e-19)
(0.00768783 0.468967 -3.02461e-20)
(0.145679 0.632968 1.96828e-18)
(0.0728199 0.281221 -1.27421e-18)
(0.00976059 0.935787 1.63073e-18)
(0.0320815 0.856443 -1.82033e-18)
(0.0156633 0.479646 8.77515e-20)
(-0.0254843 4.05481 -1.1307e-17)
(-0.0369988 4.13954 1.10135e-17)
(-0.0387481 2.5559 6.23893e-18)
(-0.0742077 2.45531 -5.36326e-18)
(-0.0193594 1.55223 -6.0174e-18)
(-0.0420906 4.1304 -1.45337e-17)
(-0.0442059 4.12788 1.27727e-17)
(0.158908 0.364438 0)
(0.168972 0.334564 -3.79129e-18)
(0.074402 0.154462 1.61436e-18)
(0.179221 0.428672 2.43112e-18)
(0.0785172 0.220329 -3.64235e-18)
(0.6583 0.102129 9.04717e-19)
(0.658078 0.176436 0)
(0.385858 0.0719804 -8.97733e-19)
(-0.0424621 0.989372 -9.85205e-21)
(-0.0180117 1.03459 0)
(-0.0113974 0.568979 0)
(0.137664 0.546647 -6.91471e-19)
(0.143376 0.494562 -1.49447e-18)
(0.0716518 0.252235 2.72294e-18)
(1.05427 -0.151103 0)
(1.12549 -0.152656 3.02801e-18)
(0.0063238 1.84264 0)
(0.00595604 1.50043 0)
(1.05544 0.0995231 2.23914e-20)
(1.0398 0.174096 6.29605e-18)
(-0.00833457 1.88259 -2.8432e-20)
(-0.00977748 1.47974 0)
(-0.0725197 3.76559 2.88274e-18)
(0.0327662 3.43718 0)
(1.13566 0.55005 -8.06936e-19)
(1.04684 0.0885801 -3.58606e-20)
(1.0347 -0.0365863 0)
(1.03873 -0.000377053 -2.51138e-23)
(0.037979 1.30617 0)
(0.0856411 2.01853 0)
(-0.0312336 1.29869 0)
(-0.0375422 2.03959 6.33711e-19)
(-0.0403482 2.04902 3.91851e-19)
(0.870606 0.0149539 -1.94896e-20)
(1.00188 0.00874284 0)
(1.0362 0.026511 0)
(-0.0617771 2.46726 0)
(-0.0373617 1.7505 0)
(-0.0483703 1.54823 0)
(0.314044 1.49651 6.10607e-19)
(1.11645 -0.143999 0)
(0.991698 -0.111572 0)
(1.06512 -0.0204828 3.86735e-18)
(1.10706 -0.121384 -4.57924e-18)
(1.04037 -0.0478761 0)
(-0.0661417 2.40962 0)
(-0.0256844 2.07945 0)
(-0.0356671 2.2588 0)
(-0.0319765 1.61703 0)
(-0.0238323 1.51054 0)
(-0.0283007 1.27414 0)
(0.976276 -0.000654381 0)
(0.934848 0.0139259 -2.45142e-20)
(0.801686 1.25226 -9.89159e-19)
(1.06052 0.0183083 -3.86849e-18)
(1.07212 0.107107 4.67551e-18)
(1.03328 0.045524 0)
(1.1318 0.11181 3.58408e-18)
(1.11805 0.166598 -4.56308e-18)
(1.00786 0.135685 0)
(-0.0471878 1.87682 0)
(-0.0222511 1.83066 1.40293e-19)
(-0.0264912 1.44945 -9.92367e-20)
(1.2171 0.181768 4.77735e-18)
(1.14129 0.0666553 0)
(-0.237948 3.94972 -3.7576e-18)
(-0.155296 2.49857 -2.44431e-19)
(-0.240196 4.01194 4.41079e-18)
(-0.0605704 3.90751 -1.75662e-18)
(-0.0189443 3.54618 0)
(-0.0227412 3.82434 1.42417e-18)
(-0.165117 4.15531 3.87357e-18)
(-0.0815417 4.04395 -2.6501e-18)
(-0.102931 4.05494 0)
(0.443229 0.201677 0)
(0.423607 0.2301 0)
(1.16069 0.699763 2.4485e-18)
(1.003 0.671831 -3.11594e-18)
(1.26149 0.576586 0)
(1.09682 0.385452 0)
(1.11015 0.0916138 -6.87177e-18)
(0.94336 0.0538623 8.48202e-18)
(1.10913 -0.0480187 0)
(0.930251 -0.023249 0)
(1.16642 0.0158868 0)
(1.21743 0.0519472 0)
(1.11042 0.0428078 0)
(1.19568 0.105718 0)
(1.15024 0.107383 0)
(1.12464 0.0818178 0)
(0.0492945 1.3918 0)
(0.0202803 1.05927 0)
(0.0774268 1.51518 0)
(0.0620765 1.12135 0)
(0.0978084 2.16509 0)
(0.0894523 1.65292 -1.22946e-18)
(0.0257831 2.1588 0)
(0.0131133 1.88408 8.72563e-19)
(-0.0243348 1.93241 -1.06239e-18)
(-0.0332488 1.40828 0)
(-0.0159889 1.12329 0)
(-0.0372891 1.48106 0)
(-0.0282844 1.03149 0)
(-0.0855089 2.56217 -4.7354e-19)
(-0.0688679 2.2337 5.15347e-19)
(-0.0596481 2.18108 6.11478e-19)
(-0.0391815 1.79646 0)
(-0.0674732 2.15137 -9.12979e-19)
(-0.0293505 1.87766 -5.57043e-19)
(-0.0753918 2.58103 3.67985e-19)
(-0.0770387 2.46796 -6.58774e-19)
(-0.0667207 2.39692 -7.44173e-19)
(1.0059 0.0253141 6.18627e-18)
(0.754051 0.00892602 -7.77032e-18)
(0.960803 0.0398487 -6.18073e-18)
(0.729938 0.0227444 7.69396e-18)
(1.11512 0.00884271 0)
(0.860276 -0.000425929 0)
(1.14306 0.0292069 0)
(1.0967 0.00649839 0)
(0.880156 0.00376678 0)
(1.22026 0.076938 0)
(1.13539 0.0309472 0)
(0.929199 0.0192628 0)
(-0.0426326 2.36729 -2.05597e-20)
(-0.0598209 2.49243 0)
(-0.0592065 2.4495 0)
(-0.0563259 1.97324 1.61641e-19)
(-0.0240628 1.60079 -6.58056e-21)
(-0.0745356 2.49541 2.08148e-19)
(-0.0765455 2.37192 -2.12072e-19)
(-0.0621165 2.07878 0)
(-0.0547347 2.05634 0)
(-0.044757 2.10221 0)
(-0.0476632 1.70472 0)
(-0.0278101 1.18482 0)
(0.4171 1.71552 -1.37429e-18)
(0.434861 1.37539 -4.45261e-19)
(0.304343 1.31603 -5.08683e-19)
(0.168599 1.45895 1.57047e-18)
(0.481968 2.46575 5.58158e-19)
(1.13947 -0.054329 0)
(1.10068 -0.0857052 0)
(0.935468 -0.0569241 0)
(1.1772 -0.0229847 0)
(1.12961 -0.0540323 0)
(1.16237 -0.0955409 0)
(1.18508 -0.100795 0)
(1.20174 -0.0970373 0)
(1.06346 0.0265102 6.51698e-18)
(0.828743 0.0185307 -8.20255e-18)
(1.02208 0.0312248 -6.47587e-18)
(0.81888 0.0168166 8.04018e-18)
(0.777971 1.39854 0)
(0.689892 1.30211 -1.22085e-18)
(0.84184 1.30754 -1.14179e-18)
(0.840523 1.00472 1.52956e-18)
(0.659949 1.25623 2.99595e-18)
(0.488985 0.0701949 2.44742e-18)
(1.2326 0.0986812 0)
(1.28875 0.188153 -3.86043e-18)
(1.07301 0.0796059 -1.70103e-19)
(1.25457 0.142869 0)
(-0.217349 3.32356 2.9998e-18)
(-0.260767 3.42356 -3.94649e-18)
(-0.051637 1.66949 2.2853e-18)
(0.252582 0.511966 -1.21769e-18)
(0.0435109 3.5964 8.27213e-19)
(-0.00730447 3.64804 0)
(0.0256578 3.32242 -1.17726e-18)
(-0.148387 3.55979 -7.68968e-18)
(-0.0381372 3.62616 0)
(-0.030233 3.96216 2.95623e-19)
(-0.0402962 4.24156 -3.28713e-18)
(-0.0499913 4.0286 4.74152e-18)
(-0.0955158 4.18173 0)
(-0.0373826 4.11285 0)
(0.65674 1.45532 0)
(0.659857 0.807322 -2.25984e-18)
(0.89753 0.803057 1.0903e-18)
(0.89694 1.07008 0)
(0.995924 1.1271 -9.6e-19)
(1.02589 0.858738 4.45726e-20)
(0.477745 0.142581 -3.14065e-18)
(0.533424 0.232593 -1.79281e-20)
(0.422558 0.155879 1.57663e-18)
(0.472591 0.274918 1.06202e-19)
(0.370221 0.212403 -4.18307e-18)
(0.507189 0.239281 0)
(0.686476 0.36011 2.66653e-18)
(0.696206 0.336333 0)
(0.501947 0.263241 0)
(0.3761 0.187843 0)
(1.09518 0.72068 2.11319e-18)
(1.30501 0.251112 -3.98776e-18)
(1.26379 0.402671 0)
(1.15027 0.251356 0)
(0.472387 0.124515 2.42753e-18)
(1.08267 0.602946 -1.61241e-18)
(0.952274 0.541423 2.98685e-18)
(1.25753 0.462732 -3.66922e-18)
(1.01469 0.0354073 4.39908e-18)
(1.03988 0.0558388 -4.54206e-18)
(0.863876 0.0274101 0)
(1.09222 -0.0110497 0)
(1.05074 -0.026524 -4.25487e-18)
(0.851498 -0.00918447 4.20198e-18)
(1.33834 0.0290914 0)
(1.25615 0.0449457 0)
(1.2512 0.0533111 0)
(1.20547 0.067775 0)
(1.30202 0.0200113 0)
(1.2656 0.0168314 0)
(-0.00938808 1.26501 0)
(-0.0137395 1.01879 0)
(0.159565 1.90744 -7.9749e-19)
(0.304862 1.61349 -3.47036e-19)
(0.147305 1.50807 -7.52906e-19)
(0.178678 1.27768 1.21428e-18)
(0.181839 1.92944 0)
(0.189803 2.4299 -1.05981e-18)
(0.164871 2.44562 0)
(0.402278 2.4996 -7.68583e-19)
(0.353362 2.35957 1.99745e-18)
(0.248139 2.37987 9.16425e-19)
(0.300457 1.93115 -4.12246e-19)
(0.235003 2.03554 3.30652e-19)
(0.35772 2.21245 -1.3841e-18)
(0.301992 2.44749 0)
(0.352819 2.41134 1.01616e-18)
(-0.0320319 2.51444 -3.79507e-19)
(-0.0277326 2.14208 0)
(0.0176645 2.41815 1.12039e-18)
(-0.0220109 2.46857 0)
(-0.0138727 2.07674 -9.68859e-19)
(-0.0166225 1.79314 0)
(-0.0640069 2.22548 -5.33764e-19)
(-0.082263 2.47045 0)
(-0.035974 1.93863 0)
(-0.0296477 1.89578 6.27256e-19)
(-0.0548392 2.23574 1.99437e-20)
(-0.0469367 2.16527 1.29015e-18)
(-0.0395292 1.77035 8.31882e-21)
(-0.0863941 2.52855 3.33551e-19)
(-0.0834129 2.53426 1.91181e-19)
(-0.019334 1.33822 0)
(-0.00361973 1.08624 0)
(-0.0519432 2.548 9.57341e-19)
(-0.0408089 2.19935 8.17606e-19)
(-0.0621918 2.37993 -1.06457e-18)
(-0.0202895 2.49992 0)
(-0.0695928 2.45085 -5.79524e-19)
(-0.0851875 2.29445 2.45503e-19)
(-0.0709188 2.32642 -7.76557e-20)
(-0.0713556 2.53644 -4.1957e-19)
(-0.0698305 2.34265 -1.3038e-19)
(-0.0713356 2.31656 6.22441e-19)
(0.943793 0.0173348 -4.28256e-18)
(0.939889 0.0139828 4.16389e-18)
(0.768853 0.00991932 0)
(1.17554 0.0615514 5.6991e-18)
(0.899625 0.0395279 -6.14539e-18)
(0.7444 0.0203251 6.70853e-18)
(1.2393 0.104869 -7.61514e-19)
(1.06003 -0.0146682 0)
(1.0446 -0.00466162 4.10009e-18)
(0.878713 -0.00471504 -4.0334e-18)
(1.29384 0.0377552 -2.36525e-19)
(1.25822 0.0330684 2.03174e-18)
(1.39845 0.0553424 0)
(1.42313 0.0572401 -6.93053e-19)
(1.35241 0.0443885 0)
(1.23321 0.0474586 0)
(1.36246 0.0292564 0)
(1.24147 0.0260681 0)
(1.41163 0.035513 1.4415e-18)
(1.39729 0.0235761 -3.19617e-18)
(1.39029 0.0348161 -1.60446e-18)
(1.40979 0.0369132 -1.70536e-18)
(1.41613 0.0728576 3.36934e-18)
(1.28744 0.0618626 0)
(1.35667 0.0951477 0)
(-0.0653843 2.47775 -2.33845e-19)
(-0.0533839 2.4929 -1.9941e-20)
(-0.0643844 2.50001 0)
(-0.0579489 2.29427 2.34905e-19)
(-0.0543065 2.30174 3.90143e-20)
(-0.0580287 2.25183 -3.59346e-20)
(-0.054914 2.02044 4.96172e-19)
(-0.0931366 2.22456 -2.80303e-20)
(-0.0721337 2.29 1.40931e-19)
(-0.0497195 1.93781 -2.56461e-19)
(-0.0209708 1.70192 3.06632e-19)
(-0.0715473 2.33737 1.04774e-20)
(-0.0779202 2.47531 3.33257e-19)
(0.464481 1.93706 7.76267e-19)
(0.432794 2.16764 1.46304e-18)
(0.664114 1.49102 1.1827e-18)
(0.537743 1.59294 4.29245e-19)
(0.566449 1.35691 0)
(0.373227 1.50538 5.93447e-19)
(0.296952 1.06843 7.05044e-19)
(0.215608 1.63908 4.88244e-20)
(0.304614 2.06626 -2.41045e-18)
(0.390894 2.05509 1.88056e-18)
(0.291785 1.54071 0)
(0.197335 1.23365 -1.23651e-18)
(0.142145 1.90159 3.05885e-18)
(0.156157 1.70321 -8.52177e-20)
(0.0897583 1.41591 -3.87257e-18)
(0.356393 0.937254 2.61836e-18)
(0.384237 1.03183 0)
(1.21514 -0.0261387 1.50662e-19)
(1.21959 -0.0857755 -1.26285e-19)
(1.25181 -0.0747581 -2.21556e-18)
(1.27241 -0.043958 2.23444e-18)
(1.24878 -0.0178506 0)
(0.750811 1.56251 0)
(0.762594 1.5625 0)
(0.901765 1.37415 0)
(0.778644 1.46965 0)
(0.665593 1.32424 -3.98256e-21)
(0.473381 0.858123 0)
(0.949748 2.68652 2.53932e-20)
(0.768732 2.42186 0)
(0.869097 2.35025 -2.0976e-18)
(0.871642 2.36567 1.3597e-18)
(0.607486 0.101973 0)
(0.482616 0.0866062 6.42011e-19)
(0.813181 0.115238 4.03051e-18)
(0.60232 0.0895294 -1.43304e-18)
(0.478798 0.0392021 -4.48424e-18)
(1.42997 0.259569 -5.03499e-18)
(1.29127 0.332407 -3.97651e-20)
(1.11646 0.284879 3.84596e-18)
(1.30368 0.245568 3.43018e-18)
(1.05327 0.153887 -5.68539e-18)
(0.977481 0.153482 6.96739e-19)
(1.08146 0.22793 -1.55832e-18)
(0.999655 0.22189 0)
(1.26733 0.184813 2.91015e-18)
(1.37774 0.207448 0)
(1.37817 0.252323 0)
(1.3519 0.136756 1.61402e-18)
(1.43859 0.210079 -3.42566e-20)
(1.4178 0.233985 -8.79667e-19)
(1.39257 0.210347 0)
(1.21036 0.0406652 3.1949e-18)
(1.41093 0.0575039 3.98757e-18)
(1.37735 0.046986 -3.13494e-18)
(1.39364 0.0761039 -2.7043e-18)
(1.2607 0.0732761 -4.04529e-18)
(1.1058 0.124888 0)
(1.14184 0.0969224 0)
(0.859517 0.0589719 -2.37395e-18)
(0.705122 0.0362438 8.84672e-19)
(1.36069 0.114543 3.69683e-18)
(1.4387 0.13938 -4.54984e-18)
(1.4397 0.159456 4.03671e-18)
(1.39851 0.1578 0)
(1.4297 0.107931 0)
(1.43285 0.103926 -1.84225e-18)
(1.41733 0.101444 -3.04426e-18)
(0.717665 2.1592 1.13667e-18)
(0.81883 2.76546 -1.15773e-18)
(0.949254 2.79241 -1.30164e-18)
(0.919538 3.06847 2.66739e-19)
(0.738452 1.60711 -2.73715e-18)
(0.725236 1.50471 4.69423e-19)
(0.508935 0.860667 -4.43071e-20)
(0.898465 2.54781 -9.3884e-19)
(0.913403 2.50951 1.70044e-18)
(0.790313 2.86412 2.42467e-19)
(0.739801 2.05083 -2.47745e-19)
(0.677565 1.92105 0)
(0.596025 0.895754 -2.47972e-19)
(0.00123688 1.51758 1.75094e-18)
(0.500826 0.204599 2.0397e-18)
(0.357534 0.336799 2.17695e-18)
(0.444693 0.235004 2.33904e-18)
(0.564319 0.301603 -4.0335e-18)
(0.57303 0.265954 3.29223e-18)
(0.494357 0.204031 -1.15811e-18)
(0.387894 0.184501 2.5738e-18)
(0.550368 0.165436 -1.41694e-18)
(0.530216 0.175729 0)
(0.424675 0.138578 4.9967e-21)
(0.84452 0.487046 1.47162e-18)
(0.722258 0.406239 -5.1753e-18)
(0.623149 0.351077 -6.97917e-21)
(0.599358 0.345435 0)
(0.824699 0.849747 1.79566e-18)
(1.0724 0.943195 2.29346e-18)
(0.978212 1.01545 -2.65378e-18)
(1.11799 0.959337 -9.32226e-19)
(1.11509 0.92244 -3.28582e-19)
(1.11636 0.992969 3.35646e-19)
(1.19434 0.765331 -3.41746e-18)
(1.1993 0.846501 8.72882e-19)
(1.22835 0.836592 0)
(1.23677 0.754317 -1.27085e-18)
(1.35983 0.360128 1.16799e-18)
(1.4284 0.329662 2.10819e-18)
(1.44126 0.319724 2.00677e-18)
(1.35667 0.441979 -2.28639e-18)
(1.36361 0.449437 0)
(1.37657 0.412154 0)
(1.12462 0.413536 -2.16905e-20)
(0.811828 0.222578 0)
(0.916293 0.244597 1.72183e-18)
(1.09215 0.298541 -2.83702e-20)
(1.26011 0.516982 1.01001e-17)
(1.18468 0.58726 2.56921e-18)
(1.1633 0.515076 -2.52274e-18)
(1.02466 0.456827 2.70031e-18)
(0.933343 0.453093 1.51039e-18)
(0.789391 0.381744 -1.46191e-18)
(1.22384 -0.0261478 3.57792e-18)
(1.32225 -0.0100325 0)
(1.30632 -0.0235601 2.39591e-18)
(1.25848 -0.0177439 -5.3577e-18)
(1.3519 0.0116725 2.62526e-18)
(1.32241 0.035857 -5.49719e-18)
(1.25573 0.0409305 0)
(1.18074 0.052678 -1.11798e-18)
(1.29215 0.0410429 2.85805e-18)
(1.24279 0.0629107 -1.46698e-18)
(1.20062 0.0535736 1.05342e-18)
(-0.0392349 1.31947 0)
(-0.02611 1.7272 0)
(-0.0193689 1.24492 0)
(-0.0113129 0.993348 0)
(0.0157853 1.96669 1.31088e-18)
(0.0658902 1.81325 -3.518e-19)
(0.11445 2.36329 -4.61512e-19)
(0.088823 2.18979 4.61238e-19)
(-0.0342978 2.19022 -9.84412e-19)
(-0.0170526 2.1963 7.4176e-19)
(0.0321159 1.93181 3.15265e-20)
(0.00919071 1.79734 -8.8172e-19)
(-0.00299029 1.65475 -1.19166e-19)
(-0.0227919 1.85529 -1.11032e-19)
(0.0397882 2.48485 -1.1914e-18)
(0.0614287 2.43718 0)
(0.0909011 2.53391 5.85073e-19)
(0.0967072 2.50911 5.22098e-19)
(0.236826 2.45754 -4.77226e-19)
(0.227803 2.31437 0)
(0.23664 2.24128 -2.36764e-18)
(0.296345 2.40888 1.69682e-18)
(0.198616 2.49088 -1.24759e-18)
(0.140285 2.49637 6.81007e-19)
(0.12922 2.47975 0)
(-0.0463962 2.55972 -1.10485e-18)
(-0.0652724 2.53301 -1.27685e-18)
(-0.0717824 2.57607 0)
(-0.0471066 2.44711 -1.66563e-20)
(-0.0410161 2.54905 5.48197e-19)
(-0.0661684 2.00734 8.69916e-20)
(-0.0372178 1.7948 -1.24102e-18)
(-0.0588562 2.02852 3.27899e-19)
(-0.0866181 2.34898 4.43718e-19)
(-0.0543544 2.23467 0)
(-0.0459855 2.00459 0)
(-0.0492307 1.50517 3.7916e-19)
(-0.0376295 1.88203 -1.15253e-19)
(-0.0456328 1.87951 0)
(-0.0438875 1.38476 2.99814e-19)
(-0.0235342 1.12011 -5.78198e-19)
(1.25577 0.0109757 0)
(1.24495 0.00346269 -3.68319e-19)
(1.41187 0.0207569 -2.61983e-18)
(1.37702 0.0145344 0)
(1.29438 0.00413337 0)
(1.40453 0.0102788 -1.41332e-20)
(1.38705 0.00932336 4.36833e-18)
(1.35047 0.0244919 5.17521e-18)
(1.25995 0.0363962 0)
(1.18419 0.0330966 0)
(1.35235 0.0275013 2.61611e-18)
(1.24123 0.0356585 0)
(1.1536 0.0386339 0)
(-0.0737332 2.53394 0)
(-0.0860135 2.5015 2.15254e-20)
(-0.0695859 2.53665 1.17018e-19)
(-0.0452402 1.98903 0)
(-0.0880553 2.40801 2.1341e-19)
(-0.0671856 2.22361 -1.22792e-19)
(-0.0496334 2.0598 0)
(0.635512 2.49813 0)
(0.459101 2.33653 -2.58913e-18)
(0.493342 2.47095 0)
(0.591095 2.16 3.02028e-18)
(0.570569 1.7454 0)
(0.551994 1.96383 -1.26899e-18)
(0.694551 1.83813 -5.58306e-20)
(0.443045 1.17552 -3.10866e-18)
(0.390029 0.800622 3.46866e-18)
(0.470121 1.23837 7.52487e-19)
(0.687298 1.83959 0)
(0.714357 1.88096 0)
(0.440685 1.12614 0)
(0.308098 0.793666 -2.60289e-18)
(0.642607 2.47638 -1.9625e-18)
(0.711816 2.20874 -4.62634e-19)
(0.757375 2.41 3.6283e-19)
(0.38708 1.31667 0)
(0.407175 1.24878 0)
(0.293651 0.966353 -8.11748e-19)
(0.628369 1.93805 0)
(0.726682 1.44858 0)
(0.542023 1.40943 -2.95595e-18)
(0.63515 1.11705 -1.81862e-19)
(0.660169 1.705 0)
(0.627901 1.83374 4.4839e-18)
(0.986988 1.08235 -8.86512e-19)
(0.955547 1.22553 0)
(0.95367 1.15337 1.50594e-18)
(0.758957 1.26557 0)
(0.754706 1.18403 0)
(0.922196 2.25557 -1.10157e-18)
(0.993646 2.74536 -9.8853e-19)
(0.951989 2.75142 1.97099e-18)
(0.955483 2.68987 -5.78184e-19)
(0.789979 1.81846 0)
(0.838233 2.04038 7.84473e-19)
(0.515547 1.04144 -9.38241e-19)
(0.381934 0.744809 -2.13575e-20)
(0.840145 2.51984 0)
(0.71778 2.14049 -1.00939e-18)
(0.739819 1.98493 0)
(0.762127 0.17363 0)
(0.547864 0.114697 0)
(0.415336 0.0936668 0)
(0.74301 0.183911 -2.66423e-18)
(0.554386 0.135832 1.47208e-18)
(0.717129 0.0418319 -1.77564e-18)
(0.882824 0.0963162 0)
(0.823274 0.0962881 7.42002e-19)
(0.591881 0.045637 2.92069e-18)
(0.512166 0.0273035 -1.85256e-18)
(0.630495 3.05498 3.28532e-19)
(0.724529 3.23536 0)
(0.454148 3.07421 7.49977e-19)
(0.328142 3.54259 -6.27576e-19)
(0.399813 3.46324 -1.35507e-18)
(0.444521 1.21379 2.77176e-18)
(0.433438 1.60783 0)
(0.348282 0.516044 -5.4595e-19)
(0.503337 0.582642 3.63734e-18)
(0.530208 0.255854 -7.61412e-19)
(0.610502 0.314275 8.47747e-19)
(0.730186 0.442299 1.8671e-18)
(0.820159 0.516039 0)
(0.725876 0.498369 0)
(0.703277 0.422781 0)
(1.29919 0.70699 9.12198e-19)
(1.24795 0.630793 -2.49119e-18)
(1.25578 0.685607 2.15826e-18)
(1.29688 0.596333 -2.01457e-18)
(1.38043 0.56431 0)
(1.36114 0.625393 -6.48304e-19)
(0.964921 0.387958 -3.5176e-18)
(1.00725 0.38555 -4.55334e-18)
(0.795426 0.348713 2.68487e-18)
(0.724016 0.310371 -2.58409e-18)
(0.837229 0.282187 -2.16355e-18)
(0.73751 0.261032 2.64155e-18)
(1.36 0.0103192 -2.7719e-18)
(1.37482 0.0124039 5.47599e-18)
(1.26374 -0.0204737 3.35193e-18)
(1.26986 -0.0229063 -3.96002e-18)
(1.32885 0.00345314 0)
(1.37089 0.00688701 -6.69809e-18)
(0.0101789 2.53104 2.17045e-19)
(-0.00298499 2.48077 0)
(0.0594754 2.51273 1.89866e-18)
(0.0673047 2.51087 -1.71878e-18)
(0.0766305 2.42406 8.62145e-19)
(0.0319518 2.3919 0)
(-0.0832039 2.55591 0)
(-0.08196 2.31791 -1.19706e-19)
(-0.0789337 2.27494 1.07075e-19)
(-0.0842344 2.37298 1.2896e-20)
(-0.0829305 2.53935 -1.86349e-19)
(-0.0734069 2.53189 1.00709e-19)
(0.760677 2.39777 -3.07438e-18)
(0.740176 2.41628 3.28123e-18)
(0.608499 2.15707 -1.71299e-18)
(0.696405 2.44436 1.45772e-19)
(0.700313 1.66715 0)
(0.635362 1.78997 -1.46159e-18)
(0.666551 1.63916 1.43615e-18)
(0.622094 1.93036 1.70543e-18)
(0.705005 2.05119 0)
(0.717767 1.91042 0)
(0.614378 2.40155 2.93495e-18)
(0.537337 1.93604 4.25229e-18)
(0.591968 2.06244 -2.97877e-18)
(0.505305 2.00613 -4.96906e-19)
(0.511115 2.42919 9.86947e-19)
(0.443193 2.23546 -2.42919e-18)
(0.523143 1.06848 -1.95431e-18)
(0.516655 0.974297 0)
(0.388804 0.7376 -1.95777e-18)
(0.798126 1.8236 0)
(0.786543 1.8347 0)
(0.401738 3.02037 -1.55957e-18)
(0.659697 3.36625 -9.31259e-19)
(0.491021 3.44477 1.45499e-18)
(0.138422 1.52905 0)
(0.19089 1.11354 -1.27306e-18)
(0.355786 1.51122 -1.75284e-18)
(0.305121 2.78061 0)
(0.195598 3.32446 9.71358e-19)
(0.0403552 3.18646 0)
(0.895525 0.721803 -3.75996e-18)
(1.04344 0.816342 5.35773e-18)
(1.0526 0.715096 -5.32008e-18)
(0.828312 0.61656 -4.50973e-19)
(0.890341 0.607304 -1.89171e-18)
(0.707389 3.28995 7.66388e-19)
(0.848195 3.19018 -1.5312e-18)
(0.570471 3.01526 3.29979e-18)
(0.544533 2.67683 -2.30993e-18)
(0.835137 2.81351 -2.35242e-18)
(0.857189 3.08794 -3.30555e-19)
(0.920353 2.98997 1.78973e-18)
(0.688842 2.82482 1.50045e-19)
(0.675728 2.62834 1.01105e-18)
)
;

boundaryField
{
    wall-4
    {
        type            noSlip;
    }
    velocity-inlet-5
    {
        type            fixedValue;
        value           uniform (1 0 0);
    }
    velocity-inlet-6
    {
        type            fixedValue;
        value           uniform (0 3 0);
    }
    pressure-outlet-7
    {
        type            zeroGradient;
    }
    wall-8
    {
        type            noSlip;
    }
    frontAndBackPlanes
    {
        type            empty;
    }
}


// ************************************************************************* //
