/*--------------------------------*- C++ -*----------------------------------*\
  =========                 |
  \\      /  F ield         | OpenFOAM: The Open Source CFD Toolbox
   \\    /   O peration     | Website:  https://openfoam.org
    \\  /    A nd           | Version:  7
     \\/     M anipulation  |
\*---------------------------------------------------------------------------*/
FoamFile
{
    version     2.0;
    format      ascii;
    class       surfaceScalarField;
    location    "22";
    object      phi;
}
// * * * * * * * * * * * * * * * * * * * * * * * * * * * * * * * * * * * * * //

dimensions      [0 3 -1 0 0 0 0];

internalField   nonuniform List<scalar> 
1300
(
3.75095
5.62643
-2.60597
3.75095
-2.72959
5.62643
-2.04828
2.04828
-0.456432
0.456432
1.90726
1.8437
-1.24407
1.24407
-1.57191
1.57191
-0.969978
0.969978
-3.87943
3.87943
-3.1624
3.1624
2.06222
-2.06222
-1.80808
1.80808
-0.543457
0.543457
-1.6099
1.6099
1.94995
-1.94995
-1.8961
1.8961
-0.74534
0.74534
-1.50152
5.25248
2.24943
2.24943
-0.83487
0.83487
-3.57176
3.57176
4.63403
-4.63403
5.37329
-5.37329
-2.76732
-3.32827
1.0816
-7.57202
-1.64799
-1.64799
-8.391
8.391
-2.76457
2.86186
1.1279
-1.1279
-0.375859
0.375859
-1.89577
-0.152509
-1.89577
2.11361
-0.065324
2.11361
-0.496683
0.0402512
-0.496683
1.56833
-1.56833
0.435243
0.0211891
0.435243
1.25354
-1.25354
-1.9076
3.81486
1.84336
-1.75654
7.00902
-1.99441
3.83811
-2.33444
2.33444
-1.25317
0.00909476
-1.25317
1.23485
0.00921776
1.23485
-2.17395
2.17395
-1.39658
-0.17533
-1.39658
1.67979
-0.10788
1.67979
1.18271
-1.18271
-0.98039
0.0104116
-0.98039
0.930411
0.0395675
0.930411
1.36026
4.26617
-6.98669
9.84855
-4.26616
0.386739
3.48672
0.39271
3.48672
-3.14854
-0.0138625
-3.14854
3.25834
-0.0959412
3.25834
1.83604
0.226186
1.83604
-2.37341
0.31119
-2.37341
-4.54672
-4.6026
-1.8618
0.0537219
-1.8618
-0.543665
0.000208357
-0.543665
0.554549
-0.0110916
0.554549
-1.55024
1.55024
-1.8064
0.196499
-1.8064
1.51778
0.432169
1.51778
1.64938
2.10158
5.40033
-5.40033
3.45038
-1.76159
-0.134507
-1.76159
-2.00525
-3.36804
2.00525
-0.109157
-0.500491
-0.244849
-0.500491
1.77727
0.472158
1.77727
0.89862
0.0317907
-0.89862
0.0637496
1.475
-1.475
0.509387
0.325483
0.509387
-3.51873
3.51873
3.37994
-0.121598
-3.37994
-0.191818
4.42923
0.204807
4.42923
-4.7844
0.150364
-4.7844
4.0297
-7.35797
-4.19214
1.7161
0.0919771
-1.7161
0.0681127
1.15653
-0.0286371
1.15653
-1.08042
1.08042
-1.1677
0.0398032
-1.1677
-0.32369
-0.0521692
-0.32369
0.440082
-0.0642228
0.440082
-1.80528
-0.0904919
-1.80528
-2.03807
0.231672
2.03807
0.0755385
0.634904
-0.634904
-0.52971
0.0330267
-0.52971
-1.66677
-0.138516
1.66677
-0.0984381
-1.55325
-0.0150778
-1.55325
-1.19551
0.0278122
1.19551
0.0580259
1.45063
0.326637
-1.45063
0.197096
-1.77252
3.87409
-1.97844
3.82179
-2.14605
-0.188389
-2.14605
2.43371
-0.0992695
2.43371
1.41956
0.19034
-1.41956
0.166393
1.29265
-0.0578006
1.29265
-2.21996
0.0460068
-2.21996
2.04242
0.13153
2.04242
1.3319
-0.0392429
-1.3319
-0.0646879
1.71079
-0.030993
1.71079
1.18661
-0.00390472
1.18661
-1.14727
-0.0354397
-1.14727
1.05086
-1.05086
1.02617
0.0246917
-1.02617
0.0457772
-14.4245
14.5749
-0.189906
-14.2346
3.29681
3.29681
1.09274
0.743297
1.09274
-2.67793
0.304514
-2.67793
4.46118
-8.65332
4.57384
-9.12055
3.86769
-11.4397
4.31792
-8.92052
1.99398
-1.99398
1.96248
0.0314932
-1.96248
0.100683
-0.530506
-0.0131595
-0.530506
-1.38483
-0.165415
-1.38483
1.78267
-0.232429
1.78267
-1.20356
1.20356
-1.31334
0.109787
1.31334
0.204435
1.74914
-0.0383548
-1.74914
-0.0124465
0.427747
0.00749537
-0.427747
-0.0727441
1.54808
-0.0730816
1.54808
-1.31228
-0.162725
-1.31228
-0.526543
-0.00396326
0.526543
-0.0171555
-3.84965
0.330916
-3.84965
-14.1269
-0.107673
-13.7342
-4.89207
-4.89207
3.49893
13.3475
-1.16058
0.0133128
1.16058
-0.00404582
1.14334
0.0602153
-1.14334
0.0629177
-1.07091
0.0200522
1.07091
0.00951304
-0.377819
0.0541295
-0.377819
-0.510308
0.510308
-0.459025
-0.0512831
0.459025
-0.0189426
0.690395
-0.0554905
0.690395
0.547098
0.00745052
-0.547098
0.0173884
-1.59656
0.0433077
-1.59656
2.40684
0.026862
2.40684
-1.26855
-0.0437259
1.26855
-0.0819377
-0.100882
14.6758
-3.19593
0.0473881
3.19593
-14.8806
14.928
-0.545451
0.167631
0.545451
0.547288
3.11757
0.401164
-3.11757
0.439639
2.01462
0.0278053
-2.01462
0.0206411
-1.14625
-0.238583
-1.14625
-1.95137
-0.194674
1.95137
-0.168701
-15.0746
-0.323147
15.3977
-15.1705
4.17279
0.256434
-4.17279
15.1844
-0.591843
-0.0430612
0.591843
-0.0815351
0.87618
-0.185785
0.87618
1.62226
-0.0741756
-1.62226
0.0257
-2.35953
0.139566
2.35953
0.0473182
-0.988479
-0.157767
0.988479
-0.112299
-4.37036
4.84252
2.63866
-3.53199
-3.82598
-6.90004
1.42508
2.44901
4.87546
-6.24134
-5.19836
-6.17323
8.83953
-8.39989
-9.20091
9.42709
7.65756
-7.67264
-6.10035
6.30478
6.85188
-6.79385
1.90624
1.90861
8.0791
-8.07001
-12.3959
12.2075
8.32916
-8.50449
12.1977
-12.1517
-13.7777
13.8055
-5.40182
5.41224
-6.66673
6.63129
-6.90114
6.81921
-4.48304
-4.63751
8.65725
-8.60353
11.4363
-11.5708
-9.31536
9.51186
3.33443
1.50809
3.66107
-2.1131
4.01935
-1.72501
4.36366
4.40562
-8.88867
4.2477
-8.07368
5.28139
6.15487
-5.17223
-1.7278
-5.91318
5.88455
-5.6962
5.70571
9.15523
-9.30774
-2.09001
3.99862
-1.73178
4.1808
-3.77046
-2.32989
3.33829
1.53717
4.74064
3.91662
-4.83261
-1.34062
-8.0813
8.00712
-8.39885
8.23612
0.0595794
7.35693
-7.41651
3.63134
-2.51698
9.87391
6.32255
6.62706
7.40232
-7.00115
0.997569
-8.41408
-8.60589
-1.9416
1.97463
1.91471
-1.89352
5.52022
2.13734
5.42178
-5.4012
-2.27144
-5.35789
3.72908
2.57571
3.83886
3.95265
2.89923
3.98046
3.50905
-3.5002
-0.00885346
-3.8865
7.39555
0.498427
-6.2164
-4.67922
4.56595
3.51315
4.57517
-5.07224
-2.99777
-4.90585
-6.67399
-5.7219
-6.86866
7.34229
4.86521
7.24302
-8.75494
8.80226
5.19224
3.13692
5.08436
-4.77099
-3.7335
-4.83568
14.5482
-3.18131
-11.3669
-7.21567
-6.56201
7.08414
5.11353
7.61219
6.19329
7.63283
4.5358
10.0124
-9.64933
3.08732
-3.30478
-2.09705
-3.259
3.13134
2.28089
3.17091
-3.85066
-2.81607
-3.83735
-3.91489
-2.98626
3.91879
2.7125
-4.08724
-4.3116
4.13097
2.68824
4.02928
-9.22764
4.89124
-9.52875
-5.75806
-2.84547
-5.65738
5.66921
3.57086
-9.24007
-3.21945
13.0209
-6.86606
11.2931
-6.27428
-5.2965
-6.28672
-6.97146
-2.3439
-6.73979
-5.13517
4.89658
-5.52376
5.29133
15.4342
-8.38879
-7.04545
-4.05531
-2.73854
3.85822
-0.197149
-4.35054
4.34169
-0.331197
4.03247
5.54055
5.34341
-3.5548
-2.1414
-3.49188
3.38427
2.32144
3.40432
6.84226
2.31297
6.77694
-6.04285
-3.26489
-6.13334
4.79378
-4.84595
2.01876
-2.02272
5.07122
3.1649
-4.99813
-3.08316
7.735
-3.60651
-4.12849
-13.9776
11.3156
2.662
-4.10371
-0.47237
0.272971
-5.73188
-3.46903
5.42068
1.20637
12.522
9.05296
-7.13925
7.47016
8.25848
8.13689
-0.469008
3.2209
-3.05327
5.77375
-3.12501
-2.64873
4.71534
-4.85386
-1.418
-6.3571
4.9391
0.567927
1.22719
-1.47203
-1.42978
-0.511823
-1.41239
1.18555
0.729161
1.19304
0.732351
1.24227
-2.87923
0.610995
2.26824
-2.14688
-1.28253
-4.36752
-1.92021
6.28773
5.4158
2.59132
-5.4415
0.0836107
1.90234
-1.91344
-0.489913
-3.87761
2.89311
-3.38302
-5.04497
-2.13752
7.18249
-3.1251
-0.366788
3.06488
0.773982
-3.5479
-2.36528
3.50809
0.472367
-4.04452
8.09532
-4.0508
-6.18591
2.87834
4.51722
5.45404
-6.06699
3.16297
2.90402
-1.54977
3.85284
0.722332
3.79503
-9.66707
6.6693
5.682
3.82987
-5.87234
0.96649
-8.70058
13.1737
-11.3416
-1.83209
6.83889
6.33479
7.77551
7.65873
-5.09161
12.8671
-1.43499
-9.90661
10.1356
-6.3057
7.48604
-13.7917
-15.1448
5.23816
-10.1746
12.0473
-1.8727
-2.80029
-5.95465
12.9749
-1.31523
-11.6596
5.92779
-7.62831
-6.06412
13.6924
-10.8096
9.79762
-3.50942
-6.2882
-7.14867
-5.003
7.0091
1.79316
-13.389
16.4763
-3.3766
4.46655
0.617814
4.43555
5.85243
-8.3819
2.52948
4.95719
-8.46661
3.83704
-12.2189
-6.29885
12.6095
-6.31068
-9.14432
-8.26546
-0.878867
2.39605
14.0803
-8.58934
6.2585
2.33083
2.80371
0.60061
-2.82841
-0.430597
0.364328
5.43456
-5.79889
3.53524
3.56703
4.02253
1.41203
3.52701
2.35753
-3.52297
-0.314383
-4.90688
1.92063
-2.19438
-4.83828
6.7589
-5.45056
0.61228
-3.42271
-4.74376
8.16647
-5.51976
3.86806
4.22726
6.1895
-6.60619
1.86243
-3.31043
-3.29575
3.58813
-5.78251
2.48065
4.27825
5.16889
0.857288
6.62246
5.98707
-10.1933
0.664571
9.90369
-8.56307
2.10369
5.52914
-8.3622
0.096742
-5.56063
1.41948
-8.28553
-7.82059
7.13467
-9.47857
-6.65707
6.1479
0.629037
-6.22344
-0.516351
-3.09634
-2.03883
-3.25411
-2.0567
-3.46706
-7.14831
-1.26411
-5.8842
3.63248
-4.11381
-2.75485
4.28251
1.00882
-3.30838
3.26532
-3.64676
3.46097
-0.0762624
4.41795
5.26714
2.5286
-2.86819
5.39679
-6.55977
8.87274
-10.909
4.34924
4.80531
-8.0702
-6.1037
2.22801
2.56577
2.16379
9.49326
-12.3954
2.90218
-10.4329
11.7371
-1.30418
-15.1052
4.67229
-5.61194
1.8495
0.169259
1.83634
0.523491
2.33241
-2.8559
-1.49923
-1.51639
-3.0072
-4.57015
7.57735
1.61583
-4.36079
2.74496
-4.13
5.74582
0.0789448
-4.43973
5.8119
-3.47949
5.98116
-4.05105
1.93011
4.2555
7.44693
-3.19143
5.35859
-2.19369
2.29472
-5.48615
-2.27543
-3.82788
6.10878
-4.33859
4.95087
-0.309888
5.26076
-4.66847
1.06196
-0.645936
2.92109
2.98484
5.6057
-4.19368
4.00893
-6.20262
-1.47721
-5.34533
-1.06708
-2.45216
-6.04107
8.49323
7.48907
-9.94123
-5.14687
9.24888
-4.10201
6.71779
-5.14398
-1.57381
-1.92121
-2.92473
1.86708
1.35382
8.07161
-0.223326
-4.92065
-3.27659
-2.72931
3.70221
2.07153
-2.20877
4.87077
1.9358
-0.708614
0.217637
0.975406
1.71509
-1.49746
0.569372
1.14572
-0.902662
1.38538
0.516968
-1.39283
-0.019561
-1.06471
3.95783
1.20352
-1.93268
0.435228
1.12444
-4.24945
6.1344
-3.33088
-2.80353
7.25885
1.27228
-4.60316
5.08482
-4.51689
2.71849
-4.6387
-1.88467
-6.40156
-4.26421
-3.56002
6.30498
-4.01733
6.60865
1.26001
-6.69226
7.95227
-4.32284
2.18532
-3.27621
3.79318
-1.42299
-1.85322
3.74112
3.44137
-3.65833
-0.219283
0.0827927
2.88379
-2.801
-0.49923
-2.64611
-5.49033
5.9627
-2.80569
5.96865
2.5911
-2.57934
8.548
2.22931
-4.80865
-3.9566
-4.32339
-1.90463
3.54941
-1.04676
-3.78892
-7.33496
3.82816
-0.0331282
-9.57726
11.2753
-1.69807
-6.0641
-0.605196
7.44409
-9.55596
1.08935
-5.71893
5.5564
6.27873
6.2456
-11.7272
0.0675438
-6.86197
1.94329
-8.80526
8.27808
-4.17128
9.40944
-9.70467
6.94981
-8.69585
7.57735
-1.22791
7.79239
-5.26291
3.57453
-8.57753
-6.78437
7.83004
-4.69312
8.44785
-5.62272
14.0706
-8.99931
8.07162
5.99894
-1.59137
-4.69536
-7.77346
6.1821
0.29816
4.73371
5.93502
-3.57749
5.62064
2.97794
-6.28837
-2.80457
-8.74438
2.456
-4.51712
-2.45825
4.91425
3.73125
4.33186
1.6185
-3.90126
9.38085
-10.2597
-3.07017
-4.75042
8.10064
-1.91855
5.48138
-10.2318
-2.80415
7.87476
-1.09853
-6.77623
0.514032
-7.17111
2.95292
-10.124
6.52564
-7.04199
1.14061
-6.75255
-2.16777
-2.2493
-1.49768
-2.14907
-5.73305
4.23536
-1.06075
2.20456
-8.57554
7.47701
-3.16153
7.3969
-2.54015
-0.713959
2.65245
0.808525
8.20542
-0.27935
-5.82435
-2.0056
6.06908
-4.06347
1.69661
-6.32042
-0.251346
3.00364
4.2552
-7.94274
-0.127463
-5.95181
-3.30507
5.87083
5.94382
13.4329
1.03745
6.39157
-0.520732
7.42902
1.64305
1.62411
-5.32014
8.22232
3.17309
7.52233
-0.646385
2.57649
1.18996
1.19016
0.723272
1.96568
1.01917
3.02764
0.171735
-1.34465
4.8131
-7.5424
-0.107557
-6.7991
2.62799
6.72495
-4.09696
4.72589
-2.65436
0.662421
-0.114814
-1.30136
1.41618
-2.76355
-2.00998
-0.864254
-1.9766
2.41183
1.98123
-1.54757
-1.21598
0.705172
-4.96939
3.93353
-4.15281
-0.71144
7.24083
-3.26306
0.462058
-1.07774
-2.18405
-2.69588
2.71544
8.2039
0.3441
4.1531
6.3068
3.94151
0.364021
6.73258
-8.60528
-5.48636
-8.53774
-0.259658
7.18443
3.19807
10.8822
9.19702
7.27847
-2.95333
-13.2131
10.7997
-2.57735
9.4955
-2.71927
-7.40476
6.13865
2.73409
-6.76769
-0.27431
-7.67907
-10.2564
-0.607971
8.08498
-7.59745
6.88349
4.84467
1.03954
-1.69429
-0.555016
1.74557
-0.121458
7.30756
-2.1696
-8.58859
10.7582
-4.55535
4.44779
2.43819
2.43258
3.85437
1.20001
-7.38858
-11.4855
-2.67826
-1.57119
-5.48179
0.805938
-2.78717
6.63827
-2.19047
5.06446
8.56771
9.23013
-3.40392
-6.53732
7.50593
-2.44147
6.78866
)
;

boundaryField
{
    wall-4
    {
        type            calculated;
        value           uniform 0;
    }
    velocity-inlet-5
    {
        type            calculated;
        value           uniform -3.75095;
    }
    velocity-inlet-6
    {
        type            calculated;
        value           uniform -5.62643;
    }
    pressure-outlet-7
    {
        type            calculated;
        value           nonuniform List<scalar> 8(2.60597 2.72959 6.09559 6.49042 9.14932 8.22183 9.03502 8.1856);
    }
    wall-8
    {
        type            calculated;
        value           uniform 0;
    }
    frontAndBackPlanes
    {
        type            empty;
        value           nonuniform 0();
    }
}


// ************************************************************************* //
