/*--------------------------------*- C++ -*----------------------------------*\
  =========                 |
  \\      /  F ield         | OpenFOAM: The Open Source CFD Toolbox
   \\    /   O peration     | Website:  https://openfoam.org
    \\  /    A nd           | Version:  7
     \\/     M anipulation  |
\*---------------------------------------------------------------------------*/
FoamFile
{
    version     2.0;
    format      ascii;
    class       volScalarField;
    location    "0.1";
    object      nut;
}
// * * * * * * * * * * * * * * * * * * * * * * * * * * * * * * * * * * * * * //

dimensions      [0 2 -1 0 0 0 0];

internalField   nonuniform List<scalar> 
12225
(
0
0
0
0
0
0
0
0
0
0
0
8.63577e-12
0
0
0
0
0
0
0
0
0
0
0
1.64258e-10
0
0
0
0
0
0
0
0
0
0
0
0
0
3.89879e-10
8.85468e-11
2.49069e-10
8.35218e-10
1.0105e-09
3.70895e-10
0
0
0
0
0
0
0
0
0
0
0
0
8.99873e-09
6.50161e-09
1.28419e-09
4.68494e-10
1.03639e-09
6.31102e-10
0
0
0
0
0
0
0
0
0
0
0
0
1.71915e-07
9.95561e-08
0
0
5.13833e-09
9.06821e-09
8.22503e-10
0
0
0
0
0
0
8.19728e-11
0
0
0
0
1.77418e-07
1.8521e-07
9.28627e-08
8.98876e-08
1.25867e-07
1.01726e-07
2.99605e-08
0
0
1.26735e-09
1.80339e-09
0
0
0
0
0
0
0
3.68889e-07
3.21227e-07
1.57522e-07
7.70994e-08
4.34818e-08
1.73776e-08
0
0
0
2.20934e-10
0
0
0
0
0
0
0
0
5.99472e-07
6.65964e-07
2.51525e-07
1.21983e-07
4.77518e-08
1.61275e-08
2.54393e-08
3.43469e-08
3.04757e-08
2.01413e-08
0
0
0
0
2.32074e-09
4.81993e-09
6.17493e-09
0
4.16792e-07
6.65366e-07
2.809e-07
1.48522e-07
6.23333e-08
2.79046e-08
5.58884e-08
7.22599e-08
7.55209e-08
7.79187e-08
5.15231e-08
0
0
3.21239e-08
7.18766e-08
8.0787e-08
7.46545e-08
0
5.51242e-07
1.76197e-07
0
2.1317e-08
9.62548e-09
7.71182e-09
6.77942e-08
1.16057e-07
1.48722e-07
1.78807e-07
1.04734e-07
3.56565e-09
0
2.4639e-08
7.19688e-08
1.15499e-07
1.53947e-07
0
1.98889e-07
1.74858e-08
0
4.92295e-08
2.06518e-08
5.23144e-08
3.91161e-07
6.40207e-07
1.23826e-07
0
0
0
0
0
0
6.52452e-08
1.76407e-07
0
1.33726e-07
7.89026e-08
2.01838e-07
4.76362e-07
5.56161e-07
5.19317e-07
5.0045e-07
2.15944e-07
0
0
0
0
0
0
0
0
0
0
2.38551e-07
3.39948e-07
3.90977e-07
9.17523e-07
1.24694e-06
0
0
0
0
0
0
0
0
0
0
7.12062e-09
3.53172e-08
0
1.3626e-07
2.58301e-07
1.96037e-07
4.77557e-07
3.39555e-07
0
0
0
0
0
0
0
2.33112e-08
1.21527e-07
2.14446e-07
2.97448e-07
3.589e-07
5.276e-07
5.46566e-07
4.37567e-07
3.9965e-07
4.73797e-07
8.25171e-07
1.30885e-06
0
0
0
0
0
0
0
1.77114e-07
5.05929e-07
6.6352e-07
6.74996e-07
9.91993e-07
1.12024e-06
1.58428e-06
1.78849e-06
1.32986e-06
6.08095e-07
7.28202e-08
0
0
0
0
0
0
0
0
1.26371e-09
8.21387e-08
9.26409e-08
6.17483e-07
4.32889e-07
1.68253e-06
2.93503e-06
3.00146e-06
1.09968e-06
0
0
0
0
0
0
0
0
0
0
3.19361e-08
6.07857e-08
7.52247e-07
7.78619e-07
1.39143e-06
1.73939e-06
1.65939e-06
1.32323e-06
0
0
0
0
0
0
0
2.90774e-09
0
0
0
0
5.96973e-07
8.0027e-07
8.56602e-07
6.58715e-07
5.06434e-07
2.78597e-07
2.19297e-07
1.52503e-07
0
0
0
7.073e-08
1.64273e-07
1.78601e-07
1.14259e-07
0
0
0
1.43444e-07
8.4233e-07
8.8384e-07
3.77197e-07
1.35328e-07
0
0
3.32497e-07
0
0
1.09952e-08
8.43e-09
0
0
0
0
0
0
0
3.18459e-07
5.06834e-07
1.67046e-07
0
0
0
0
0
0
0
2.87642e-08
8.88152e-10
0
0
0
0
0
0
9.97728e-08
0
0
0
0
0
0
0
0
1.10114e-07
1.89847e-07
1.4252e-07
6.27913e-08
7.09601e-09
0
0
1.28251e-08
1.62418e-08
0
0
0
0
0
0
0
0
0
9.2676e-08
1.29381e-07
8.88183e-08
1.70678e-08
0
0
0
0
9.84697e-08
0
0
0
0
0
0
0
0
0
2.0788e-08
4.18775e-08
2.82324e-08
0
0
0
0
0
0
0
0
5.67729e-08
8.37035e-08
0
0
0
0
0
0
0
0
0
0
0
0
0
7.21085e-08
2.84008e-08
0
1.50715e-07
1.90556e-07
1.07541e-07
2.86113e-08
0
0
0
0
0
0
0
0
0
0
0
0
0
0
0
0
0
0
0
0
0
0
0
0
0
0
0
0
0
3.8757e-09
0
0
0
0
0
0
0
0
0
0
0
0
0
0
0
0
0
6.37325e-09
0
0
0
0
0
0
0
0
0
0
0
0
0
0
0
0
0
5.22872e-08
0
0
0
0
0
0
0
0
0
0
0
0
0
0
0
0
0
0
0
0
0
0
0
8.06575e-07
1.2964e-06
7.07071e-07
0
0
0
0
0
0
0
1.29548e-07
2.03423e-07
0
0
0
0
0
0
0
0
0
0
0
0
2.83887e-08
1.2113e-07
1.84847e-07
2.18634e-07
2.31004e-07
2.26103e-07
2.13031e-07
1.95549e-07
1.71727e-07
1.4813e-07
1.23225e-07
9.74489e-08
7.07392e-08
4.26753e-08
1.17788e-08
0
0
0
0
0
0
0
0
0
0
0
0
0
0
0
0
1.51607e-07
1.72754e-07
0
0
0
0
0
0
0
0
0
0
3.61625e-06
9.05879e-06
1.60584e-05
0
0
0
0
0
0
0
5.36588e-07
1.91692e-07
8.20606e-07
2.01964e-05
5.08898e-05
5.99421e-05
3.8094e-05
1.08753e-05
1.60887e-06
2.57708e-07
6.0172e-08
5.1748e-08
6.28087e-08
6.40482e-08
5.87291e-08
4.95185e-08
3.82133e-08
2.94696e-08
2.06643e-08
1.34652e-08
6.84785e-09
5.09598e-10
0
0
0
0
0
0
0
0
0
0
0
0
0
0
0
0
0
0
0
0
0
0
0
1.36023e-08
6.46874e-09
0
0
0
0
0
0
0
0
0
0
0
0
0
0
0
0
0
0
0
0
0
0
0
0
0
0
0
0
0
0
0
0
0
0
0
0
0
0
2.11074e-11
5.67342e-11
5.28661e-11
7.96132e-11
5.21981e-11
1.19561e-10
7.04718e-11
2.2119e-10
2.49486e-10
4.37108e-10
2.56368e-09
2.77934e-10
0
0
0
0
0
1.63952e-06
2.4375e-06
2.03984e-06
9.86147e-07
0
0
0
0
0
0
0
0
0
0
0
0
2.21944e-07
4.50615e-07
2.74913e-07
1.64776e-07
4.23705e-07
5.68015e-07
2.88885e-07
1.84708e-08
0
2.05492e-08
8.20292e-08
1.24657e-07
1.47657e-07
1.47244e-07
1.3602e-07
1.238e-07
1.07911e-07
9.37545e-08
7.99711e-08
6.60616e-08
5.28835e-08
3.9441e-08
2.37271e-08
5.37702e-09
0
0
0
0
0
0
0
0
0
0
0
0
0
0
0
1.93645e-07
5.09011e-07
6.02305e-07
2.65488e-07
0
0
0
0
0
0
0
0
0
1.56544e-06
3.62243e-06
5.15887e-06
2.16613e-06
1.29874e-06
4.16815e-07
0
0
0
0
3.706e-07
7.25118e-07
8.37492e-06
1.43211e-05
1.36786e-05
1.05533e-05
6.64132e-06
3.13826e-06
1.11759e-06
3.70182e-07
1.50729e-07
1.10547e-07
1.00468e-07
9.11697e-08
8.08738e-08
6.9948e-08
5.8983e-08
4.87517e-08
3.83174e-08
2.75539e-08
1.62619e-08
4.07864e-09
0
0
0
0
0
0
0
0
0
0
0
0
0
0
0
0
0
0
0
0
0
0
0
1.21338e-09
2.97703e-08
2.80168e-08
2.01188e-08
1.28237e-08
7.36225e-09
3.52407e-09
8.70344e-10
0
0
0
0
0
0
0
0
0
0
0
0
0
0
0
0
0
0
0
0
0
0
0
0
0
0
0
0
0
0
0
0
1.75946e-10
3.39479e-10
3.32505e-10
4.23452e-10
3.22432e-10
4.70175e-10
3.38891e-10
5.44046e-10
5.85603e-10
5.25249e-10
1.95789e-09
0
3.26754e-06
3.59082e-06
4.06323e-07
0
9.53155e-07
2.8156e-06
2.94169e-06
2.07315e-06
1.07321e-06
1.11381e-07
0
0
0
0
0
0
0
0
0
0
0
0
0
0
1.20022e-07
2.76301e-07
4.03028e-07
2.08965e-07
0
0
0
0
0
0
2.74455e-09
2.84094e-08
4.29119e-08
4.77507e-08
4.6015e-08
3.99036e-08
3.16408e-08
2.24695e-08
1.30628e-08
3.6721e-09
0
0
0
0
0
0
0
0
0
0
0
0
0
8.21083e-09
7.3751e-08
1.82356e-07
3.30437e-07
4.61892e-07
5.36474e-07
5.30463e-07
3.85842e-07
3.35778e-08
0
0
0
0
0
0
0
0
6.58616e-07
0
0
1.56617e-06
5.02815e-06
1.20283e-06
0
0
0
4.69652e-06
2.9715e-06
1.65174e-06
1.97575e-06
1.63857e-06
1.1402e-06
1.02607e-06
8.84414e-07
6.46907e-07
5.00053e-07
5.01029e-07
5.33165e-07
5.1232e-07
4.51017e-07
3.85071e-07
3.24573e-07
2.72025e-07
2.25501e-07
1.80673e-07
1.36189e-07
8.95715e-08
3.8757e-08
0
0
0
0
0
0
0
0
0
0
0
0
0
0
0
0
0
0
0
0
0
0
0
0
0
0
0
0
1.1528e-08
2.09671e-08
2.32775e-08
2.16108e-08
1.79173e-08
1.34802e-08
9.01077e-09
4.99115e-09
1.61908e-09
0
0
0
0
0
0
0
0
0
0
0
0
0
0
0
0
0
0
0
0
0
0
0
0
0
0
3.47602e-10
8.20686e-10
9.42731e-10
1.22613e-09
1.086e-09
1.31983e-09
1.12235e-09
1.13821e-09
1.53413e-09
1.56472e-10
3.13127e-09
0
8.39691e-06
5.4122e-06
1.86756e-06
8.80281e-07
1.71088e-06
3.52037e-06
2.55649e-06
1.69153e-06
1.17461e-06
7.8121e-07
1.19694e-07
0
0
0
0
0
0
0
0
0
0
0
0
0
0
0
0
0
0
0
0
0
0
0
0
0
0
0
0
0
0
8.46537e-08
1.52175e-07
7.70809e-08
0
0
1.50935e-08
1.67545e-07
2.87775e-07
3.69819e-07
4.20132e-07
4.40098e-07
4.36306e-07
4.19122e-07
3.91056e-07
3.50606e-07
3.10407e-07
2.7493e-07
2.47143e-07
2.34536e-07
2.27252e-07
2.22695e-07
2.32633e-07
2.76655e-07
3.35045e-07
2.777e-07
2.15991e-08
0
0
0
0
1.64445e-07
3.48286e-07
0
0
0
0
1.21627e-07
9.8358e-07
2.54178e-06
0
0
0
3.81116e-06
8.36991e-07
0
6.72841e-08
2.26719e-07
1.83783e-07
2.30691e-07
3.90727e-07
5.25916e-07
6.73166e-07
7.22068e-07
6.19585e-07
4.79452e-07
3.62892e-07
2.80543e-07
2.22105e-07
1.78487e-07
1.41262e-07
1.05116e-07
6.57299e-08
2.23229e-08
0
0
0
0
0
0
0
0
0
0
0
0
0
0
0
0
0
0
0
0
0
0
0
0
0
0
0
0
0
0
0
0
0
0
0
0
0
0
0
0
0
0
0
0
1.13415e-09
0
0
0
0
0
0
0
0
0
0
3.00135e-09
5.85691e-09
6.19991e-09
4.60335e-09
2.14117e-09
0
0
0
0
0
1.08958e-10
6.63185e-10
1.24923e-09
1.57201e-09
1.61324e-09
2.1577e-09
6.89286e-10
3.24621e-09
0
6.17733e-09
0
5.33566e-06
3.9907e-06
2.07024e-06
1.5161e-06
3.05121e-06
1.96104e-06
1.16594e-06
9.14806e-07
8.32932e-07
6.81996e-07
4.05191e-07
0
0
0
0
0
0
0
0
0
0
0
0
0
0
0
0
0
0
0
0
0
0
0
0
0
0
1.47339e-07
3.95263e-07
7.1425e-07
1.12514e-06
1.64226e-06
2.14043e-06
1.52644e-06
0
0
0
0
0
0
2.07416e-07
3.47166e-07
4.30218e-07
4.67601e-07
4.63939e-07
4.24346e-07
3.7378e-07
3.26324e-07
2.881e-07
2.55865e-07
2.28793e-07
2.05161e-07
1.83311e-07
1.56059e-07
1.24455e-07
8.73832e-08
0
0
0
0
0
2.64061e-07
3.75007e-07
0
0
0
0
0
0
0
0
0
8.04441e-07
4.20478e-06
2.60607e-06
5.7099e-07
1.85838e-07
1.58988e-07
1.59885e-07
2.71506e-07
4.38044e-07
3.35637e-07
1.655e-07
5.10437e-08
0
0
0
0
0
0
0
0
0
0
0
0
0
0
0
0
0
0
0
0
0
0
0
0
0
0
0
0
0
0
0
0
0
0
0
0
0
0
0
0
0
0
0
0
0
0
0
0
0
0
0
1.20947e-09
0
0
0
1.10267e-08
1.62643e-08
0
0
0
0
3.15892e-10
0
0
0
0
0
0
0
0
0
0
0
0
0
0
0
0
0
0
2.18887e-09
0
8.66652e-09
0
1.71381e-08
0
7.02087e-07
1.20642e-06
1.47977e-06
2.35905e-06
7.20965e-07
1.54676e-07
2.84121e-07
4.2354e-07
5.79672e-07
7.00035e-07
7.33862e-07
4.73083e-07
0
0
0
0
0
0
0
0
0
0
0
0
0
0
0
0
0
0
0
0
1.52419e-08
3.08521e-07
6.4487e-07
1.01461e-06
1.411e-06
1.84831e-06
2.36146e-06
2.97829e-06
3.76391e-06
4.7753e-06
5.65491e-06
3.05945e-06
0
0
0
0
0
0
0
0
0
1.69847e-07
3.4219e-07
4.04842e-07
3.95628e-07
3.47558e-07
3.0869e-07
2.76987e-07
2.43996e-07
2.20707e-07
1.99572e-07
1.76556e-07
1.47041e-07
8.10125e-08
0
0
0
0
1.44204e-08
2.4936e-07
3.08641e-07
3.28944e-08
0
0
0
0
0
0
0
0
4.23562e-07
2.03327e-06
2.68844e-06
1.50244e-06
8.49084e-07
7.40307e-07
7.94781e-07
5.11555e-07
1.81624e-07
4.84156e-08
0
0
0
0
6.03648e-09
4.62712e-08
8.18044e-08
1.12785e-07
1.36591e-07
1.4619e-07
1.29611e-07
7.10395e-08
0
0
0
0
0
0
0
0
0
0
0
0
0
0
0
0
0
0
0
0
0
0
0
0
0
0
0
0
0
0
0
0
0
0
0
0
0
0
0
0
5.53009e-09
2.40978e-08
2.46403e-08
1.62943e-08
6.07996e-10
0
0
2.37359e-08
1.69192e-08
0
0
0
0
7.88792e-09
3.33457e-09
0
0
0
0
0
0
0
0
0
0
0
0
0
0
0
2.48148e-09
0
1.57559e-08
0
3.81714e-08
0
4.63827e-08
2.07165e-07
7.0818e-07
1.18889e-06
0
0
0
2.72702e-07
5.50213e-07
7.96933e-07
8.87574e-07
7.45809e-07
2.41018e-08
0
0
0
0
0
0
0
0
0
0
0
0
0
0
0
0
0
1.10837e-07
5.56404e-07
1.04283e-06
1.44342e-06
1.72352e-06
1.97861e-06
2.23543e-06
2.62084e-06
3.15282e-06
3.91218e-06
4.96882e-06
6.24293e-06
6.27569e-06
0
0
0
0
0
0
0
0
0
0
0
0
0
2.05618e-07
2.85355e-07
2.91235e-07
2.74953e-07
2.45928e-07
2.27109e-07
2.10715e-07
1.94723e-07
1.76194e-07
1.46204e-07
8.90713e-08
1.67123e-09
0
0
4.38411e-08
2.493e-07
3.37622e-07
1.9746e-07
0
0
0
0
0
0
0
0
1.7277e-08
6.45891e-07
1.09627e-06
1.16097e-06
1.04328e-06
7.17133e-07
3.43562e-07
1.3664e-07
2.77699e-08
0
0
0
0
5.32755e-08
1.22927e-07
1.85769e-07
2.45284e-07
2.98602e-07
3.38344e-07
3.44396e-07
2.9799e-07
1.64483e-07
0
0
0
0
0
0
0
0
0
0
0
0
0
0
0
0
0
0
0
0
0
0
0
0
0
0
0
0
0
0
0
0
0
0
0
0
0
0
0
0
0
9.83315e-09
3.68544e-08
4.70277e-08
3.47323e-08
8.7478e-09
0
0
9.69601e-09
1.8878e-08
0
0
0
0
3.37061e-08
5.89765e-08
4.01212e-08
2.13434e-08
9.49303e-09
0
0
0
0
0
0
0
1.86163e-09
4.48502e-09
1.64031e-08
1.69649e-08
3.22305e-08
1.47651e-08
3.51631e-08
0
3.4324e-08
0
0
1.35691e-08
2.72013e-07
0
0
0
7.22939e-08
2.39303e-07
3.23514e-07
4.7105e-07
6.11193e-07
6.05627e-07
2.77286e-07
0
0
0
0
0
0
0
0
0
0
0
0
0
0
0
0
4.26066e-07
1.03921e-06
1.5238e-06
1.65315e-06
1.65138e-06
1.61647e-06
1.6353e-06
1.74701e-06
1.9728e-06
2.32454e-06
2.77364e-06
3.17186e-06
3.08367e-06
1.86752e-06
0
0
0
0
0
0
0
0
0
0
0
0
0
0
0
1.1383e-07
2.18348e-07
2.36388e-07
2.29633e-07
2.09182e-07
1.90434e-07
1.73886e-07
1.53921e-07
1.18022e-07
6.37685e-08
8.98863e-09
0
0
1.74762e-07
3.52641e-07
2.76148e-07
6.62295e-08
0
0
0
0
0
0
0
0
2.90358e-07
3.99991e-07
3.84867e-07
2.94448e-07
1.77216e-07
9.35247e-08
3.58781e-08
0
0
0
0
5.94212e-08
1.56185e-07
2.3365e-07
2.93153e-07
3.3178e-07
3.30751e-07
2.81925e-07
1.77818e-07
5.65651e-09
0
0
4.01253e-07
8.95238e-07
6.28098e-07
3.84147e-07
2.30322e-07
1.33123e-07
6.45806e-08
1.47099e-08
0
0
6.00465e-09
1.90054e-08
0
0
0
0
0
0
0
0
0
0
0
0
0
0
0
0
0
0
0
0
0
0
0
0
0
0
0
0
0
3.85426e-10
5.08319e-08
6.31949e-08
4.90296e-08
1.8613e-08
0
0
0
2.44775e-08
0
0
0
2.49666e-08
7.03116e-08
9.42927e-08
7.44034e-08
4.40876e-08
1.48356e-08
0
0
0
0
0
2.55241e-08
2.18179e-08
1.58113e-08
2.04611e-08
2.06505e-08
3.21642e-08
2.95165e-08
4.56975e-08
1.52513e-08
3.03685e-08
0
0
0
7.32076e-08
0
0
0
1.08211e-07
2.27562e-07
2.2344e-07
2.48417e-07
3.50575e-07
3.99542e-07
2.63203e-07
0
0
0
0
0
0
0
0
0
0
0
0
0
0
5.92855e-08
6.91261e-07
1.41251e-06
1.67536e-06
1.34291e-06
8.55601e-07
4.59027e-07
2.2302e-07
1.47041e-07
2.1215e-07
3.94266e-07
6.62688e-07
9.49073e-07
1.10428e-06
9.28868e-07
4.37127e-07
3.44315e-08
0
9.24086e-08
2.50878e-07
3.61095e-07
3.80173e-07
2.79156e-07
3.77767e-08
0
0
0
0
0
0
0
0
0
1.54114e-07
2.32188e-07
2.268e-07
1.96068e-07
1.6346e-07
1.38716e-07
1.16915e-07
8.63274e-08
4.42832e-08
0
0
0
2.26873e-07
3.90353e-07
2.09445e-07
0
0
0
0
0
0
0
0
1.00703e-07
1.61847e-07
1.43485e-07
1.01975e-07
5.70323e-08
2.47173e-08
9.55675e-09
0
0
0
0
1.24881e-07
2.18357e-07
2.62792e-07
2.77178e-07
2.69936e-07
2.31763e-07
1.55287e-07
2.57735e-08
0
0
0
5.14612e-07
8.86972e-07
6.8271e-07
4.4611e-07
2.90081e-07
1.87973e-07
1.13504e-07
5.16781e-08
1.16773e-08
1.83945e-09
2.16855e-08
5.87654e-08
6.3766e-08
0
0
0
0
0
0
0
0
0
0
0
0
0
0
0
0
0
0
0
0
0
0
0
0
0
0
0
0
0
7.53811e-09
6.55377e-08
7.41158e-08
5.02586e-08
9.98066e-09
0
0
8.5918e-09
5.37815e-08
2.95629e-08
2.04287e-08
3.6898e-08
6.56349e-08
9.9013e-08
1.09501e-07
7.60183e-08
3.0943e-08
0
0
0
0
0
2.66702e-08
4.65081e-08
3.43306e-08
2.85218e-08
2.28544e-08
2.52117e-08
2.08667e-08
3.21954e-08
1.86169e-08
2.71922e-08
0
0
0
0
0
4.47395e-10
6.12709e-08
1.44669e-07
2.08075e-07
1.41618e-07
3.75458e-08
4.17937e-08
8.64127e-08
4.80247e-08
0
0
0
0
0
0
0
0
0
0
0
0
0
9.2508e-08
8.10468e-07
1.58154e-06
1.67604e-06
1.04294e-06
3.97494e-07
0
0
0
1.38784e-08
3.18766e-07
7.3282e-07
1.24153e-06
1.78215e-06
2.12659e-06
1.74842e-06
4.00979e-07
0
0
0
0
0
0
1.88482e-07
3.94815e-07
5.47448e-07
6.10756e-07
4.72603e-07
1.05917e-08
0
0
0
0
0
0
1.40193e-07
2.43169e-07
2.24756e-07
1.75891e-07
1.33868e-07
1.05592e-07
8.64142e-08
6.6203e-08
3.475e-08
0
0
0
1.23262e-07
2.90205e-07
5.06347e-08
0
0
0
0
0
0
0
0
3.92658e-08
3.66836e-08
2.56832e-08
9.24506e-09
9.06725e-10
2.83761e-09
0
0
0
1.64516e-08
1.67926e-07
2.41727e-07
2.5766e-07
2.65157e-07
2.65793e-07
2.41553e-07
1.70909e-07
1.92392e-08
0
0
0
1.33127e-06
1.32831e-06
9.02927e-07
5.56799e-07
3.40105e-07
2.09048e-07
1.27747e-07
6.58396e-08
2.19224e-08
4.92483e-09
2.16407e-08
6.59734e-08
1.01898e-07
5.53235e-08
0
0
0
0
0
0
0
0
0
0
0
0
0
0
0
0
0
0
0
0
0
0
0
0
0
0
0
0
0
2.99972e-08
9.58281e-08
8.78245e-08
4.70053e-08
8.67931e-10
0
0
6.32572e-08
1.07936e-07
8.04409e-08
7.21968e-08
8.20402e-08
9.98734e-08
1.18742e-07
1.06338e-07
4.98887e-08
0
0
0
0
0
0
4.23389e-08
5.48096e-08
4.64636e-08
3.27553e-08
2.62483e-08
1.63794e-08
1.82194e-08
7.44663e-09
1.94384e-08
0
0
0
0
9.22835e-08
7.36156e-08
4.89718e-08
7.83163e-08
1.35537e-07
9.95471e-08
0
0
0
0
0
0
0
0
0
0
0
0
0
0
0
0
2.16497e-08
7.27461e-07
1.593e-06
1.80221e-06
1.05756e-06
3.34509e-07
0
0
0
2.04553e-08
3.39471e-07
7.63271e-07
1.31026e-06
2.02609e-06
2.91122e-06
3.76998e-06
3.56701e-06
6.59641e-07
0
0
0
0
0
0
0
0
0
0
3.57634e-07
7.22537e-07
6.36768e-07
0
0
0
0
0
0
1.7059e-07
2.32104e-07
1.91219e-07
1.41437e-07
1.05472e-07
8.15491e-08
6.67938e-08
5.38223e-08
2.85238e-08
0
0
0
0
1.36686e-07
0
0
0
0
0
0
0
0
0
0
0
0
0
0
0
0
0
4.2019e-08
1.95743e-07
2.48578e-07
2.59255e-07
2.84355e-07
3.06566e-07
2.95184e-07
2.04068e-07
0
0
0
0
3.04831e-06
2.1245e-06
1.3471e-06
8.15033e-07
4.63565e-07
2.49332e-07
1.29021e-07
6.07478e-08
2.47782e-08
1.5809e-08
3.28349e-08
6.52181e-08
1.03805e-07
9.18486e-08
0
0
0
0
0
0
0
0
0
0
0
0
0
0
0
0
0
0
0
0
0
0
0
0
0
0
0
0
0
0
8.31572e-08
1.25838e-07
9.75631e-08
5.06248e-08
1.09409e-08
0
4.65396e-08
1.58847e-07
1.68624e-07
1.3178e-07
1.18923e-07
1.18657e-07
1.22702e-07
1.19484e-07
7.15491e-08
0
0
0
0
0
0
1.83655e-08
5.09004e-08
6.17077e-08
4.91585e-08
3.45024e-08
1.81144e-08
1.29469e-08
0
6.19908e-09
0
0
0
0
7.53884e-08
8.28946e-08
2.35574e-08
3.51469e-08
1.06237e-07
1.49476e-07
5.61957e-08
0
0
4.99216e-08
2.25469e-07
7.3368e-07
2.20357e-06
1.65803e-07
0
0
0
0
0
0
0
0
4.56791e-07
1.39323e-06
1.92678e-06
1.34719e-06
5.23539e-07
6.23476e-08
0
0
1.3951e-07
4.63867e-07
8.87309e-07
1.42086e-06
2.12063e-06
3.10485e-06
4.50654e-06
6.54889e-06
8.33928e-06
1.97285e-06
0
0
0
0
0
0
0
1.73252e-07
2.91795e-08
0
0
0
5.02999e-07
6.54741e-07
1.41688e-07
0
0
0
0
1.00344e-08
1.91565e-07
1.86265e-07
1.40621e-07
1.02789e-07
7.71773e-08
6.05954e-08
5.34646e-08
4.69582e-08
1.72083e-08
0
0
0
0
1.52791e-07
0
0
0
0
0
0
0
0
0
0
0
0
0
0
0
0
5.6781e-08
1.96703e-07
2.44672e-07
2.6525e-07
3.14072e-07
3.56854e-07
3.15093e-07
1.18969e-07
0
0
0
2.99231e-07
2.65213e-06
2.35169e-06
1.67221e-06
1.05771e-06
5.89828e-07
2.65327e-07
6.74885e-08
0
0
7.78304e-09
4.87096e-08
7.11537e-08
9.52411e-08
1.0828e-07
5.62321e-08
0
0
0
0
0
0
0
0
0
0
0
0
0
0
0
0
0
0
0
0
0
0
0
0
0
3.12311e-07
5.58174e-08
0
0
0
1.62011e-07
1.70233e-07
1.26365e-07
8.24841e-08
5.87938e-08
7.66853e-08
1.72525e-07
2.67765e-07
2.2193e-07
1.75976e-07
1.54565e-07
1.41973e-07
1.27785e-07
8.916e-08
0
0
0
0
0
0
5.03813e-09
3.95249e-08
6.12921e-08
6.24023e-08
4.88303e-08
2.62515e-08
1.42888e-08
0
0
0
0
0
0
0
6.14368e-08
0
0
4.43995e-08
1.80128e-07
2.55934e-07
2.50401e-07
2.89486e-07
4.58412e-07
8.54586e-07
1.65995e-06
2.77523e-06
1.24036e-06
3.04397e-07
0
0
0
0
0
0
8.98828e-08
7.34817e-07
1.58395e-06
1.5714e-06
7.95427e-07
2.52957e-07
3.42274e-08
9.87844e-09
1.18891e-07
3.42893e-07
6.65256e-07
1.06877e-06
1.5854e-06
2.31e-06
3.33729e-06
4.79678e-06
6.73328e-06
7.90305e-06
0
0
0
0
0
0
0
0
0
2.60149e-07
1.41344e-07
0
0
0
2.74308e-07
4.35699e-07
1.61908e-07
0
0
0
0
1.49443e-07
1.5886e-07
1.17083e-07
8.2065e-08
6.32627e-08
5.24478e-08
4.60677e-08
4.29998e-08
3.63628e-08
0
0
0
0
1.2278e-07
1.7495e-07
0
0
0
0
0
0
0
0
0
0
0
0
0
0
0
6.07104e-08
1.9595e-07
2.38067e-07
2.69788e-07
3.19077e-07
3.0686e-07
1.72896e-07
0
0
0
0
1.51928e-08
1.89492e-06
2.23389e-06
1.85575e-06
1.31078e-06
7.88998e-07
3.55696e-07
3.03272e-08
0
0
0
3.16787e-08
7.84716e-08
9.97546e-08
1.22794e-07
1.05791e-07
9.92553e-09
0
0
0
0
0
0
0
0
0
0
0
0
0
0
0
0
0
0
0
0
0
0
0
2.82515e-07
1.02591e-06
1.34993e-06
3.26551e-07
0
0
1.14537e-07
2.86821e-07
2.45966e-07
1.9101e-07
1.55907e-07
1.55423e-07
2.13134e-07
3.41072e-07
3.45882e-07
2.58998e-07
2.06442e-07
1.75816e-07
1.49211e-07
1.07977e-07
1.65684e-08
0
0
0
0
0
3.19361e-09
3.64129e-08
5.78586e-08
6.50321e-08
6.02193e-08
3.84104e-08
2.09618e-08
5.73781e-10
0
0
0
0
0
0
0
0
0
0
9.72673e-08
2.83383e-07
4.48305e-07
6.18506e-07
9.01778e-07
1.37599e-06
1.92967e-06
2.17899e-06
1.20992e-06
4.96515e-07
1.6877e-07
0
0
0
0
0
8.89819e-08
3.01759e-07
6.05181e-07
5.82277e-07
2.66011e-07
6.28579e-08
0
1.02328e-08
8.53709e-08
2.37258e-07
4.64924e-07
7.64263e-07
1.16343e-06
1.69221e-06
2.31097e-06
2.73406e-06
2.43191e-06
5.90877e-07
0
0
0
0
0
0
0
0
0
0
5.6982e-08
0
0
0
2.64188e-08
2.27567e-07
3.42436e-07
1.1338e-07
0
0
3.6567e-08
1.69648e-07
1.37052e-07
8.4676e-08
5.02514e-08
3.59219e-08
3.41409e-08
3.47658e-08
3.3933e-08
2.99813e-08
1.851e-08
0
0
0
0
1.73235e-07
9.78606e-08
0
0
0
0
0
0
0
0
0
0
0
0
0
0
4.42323e-08
1.79752e-07
1.93962e-07
1.90697e-07
1.9675e-07
1.29925e-07
0
0
0
0
0
0
1.21543e-06
1.73541e-06
1.6355e-06
1.29848e-06
9.22253e-07
5.50818e-07
1.81668e-07
0
0
0
0
5.38241e-08
1.09666e-07
1.39686e-07
1.37253e-07
6.72006e-08
0
0
0
0
0
0
0
0
0
0
0
0
0
0
0
0
0
0
0
0
0
0
0
3.95058e-07
1.21905e-06
1.78263e-06
5.03149e-07
0
0
0
4.17338e-07
4.45851e-07
3.51099e-07
2.89257e-07
2.69326e-07
3.01568e-07
4.05833e-07
4.83807e-07
3.78753e-07
2.78473e-07
2.20802e-07
1.80548e-07
1.35388e-07
5.57693e-08
0
0
0
0
0
1.15834e-08
4.3222e-08
6.08058e-08
6.57642e-08
6.43431e-08
4.825e-08
3.01184e-08
6.98626e-09
0
0
0
0
0
0
0
0
0
0
0
9.60831e-08
3.41076e-07
6.37466e-07
1.01306e-06
1.4455e-06
1.70359e-06
1.53722e-06
8.73087e-07
4.77359e-07
3.08114e-07
1.7025e-07
3.88433e-08
5.66187e-08
1.04767e-07
7.58307e-08
0
0
0
0
0
0
0
0
0
0
0
8.26497e-08
1.76182e-07
2.33023e-07
1.77898e-07
0
0
0
0
0
0
0
0
0
0
0
0
0
0
0
0
0
1.17543e-07
1.89871e-07
2.56726e-07
8.69639e-08
0
0
2.07054e-07
2.2266e-07
1.24985e-07
5.98962e-08
2.70573e-08
1.18744e-08
1.03212e-08
1.66333e-08
2.15791e-08
1.87658e-08
1.11069e-08
0
0
0
0
0
8.71822e-08
0
0
0
0
0
0
0
0
0
0
0
0
0
0
1.55384e-08
1.6988e-07
1.56357e-07
8.86649e-08
1.92353e-08
0
0
0
0
0
0
0
1.88926e-07
5.57331e-07
5.95841e-07
5.11675e-07
4.67912e-07
4.78219e-07
3.58566e-07
8.30602e-08
0
0
0
0
9.82241e-08
1.52988e-07
1.56036e-07
1.05975e-07
0
0
0
0
0
0
0
0
0
0
0
0
0
0
0
0
0
0
0
0
0
0
1.21756e-08
3.3734e-07
1.26666e-06
1.78294e-06
8.888e-07
0
0
0
0
7.38114e-07
5.91712e-07
4.62505e-07
4.10288e-07
4.2338e-07
4.98914e-07
6.01707e-07
5.32964e-07
3.78786e-07
2.79873e-07
2.17679e-07
1.65975e-07
9.67553e-08
0
0
0
0
0
3.30536e-08
6.24391e-08
7.38161e-08
7.19059e-08
6.71058e-08
5.36896e-08
3.73631e-08
1.3977e-08
0
0
0
0
0
0
1.90513e-07
0
0
0
0
0
0
2.10564e-07
5.4214e-07
8.33539e-07
8.84449e-07
6.8428e-07
4.52121e-07
3.51052e-07
3.47788e-07
3.55366e-07
3.20027e-07
3.31206e-07
3.15874e-07
1.34548e-07
0
0
0
0
0
0
0
0
0
0
0
0
0
0
0
0
0
0
0
0
0
0
0
0
0
0
0
6.36723e-08
6.83692e-08
0
0
0
1.91302e-07
2.35413e-07
2.49859e-07
0
0
0
3.26811e-07
2.24378e-07
9.60344e-08
3.73798e-08
1.56738e-08
4.08746e-09
0
2.88937e-09
1.03808e-08
1.13549e-08
1.44682e-09
0
0
0
0
0
0
0
0
0
0
0
0
0
0
0
0
0
0
0
0
0
1.21926e-07
8.6732e-08
0
0
0
0
0
0
0
0
0
0
0
0
0
0
5.40344e-08
2.99901e-07
2.21976e-07
0
0
0
0
7.12153e-08
1.75287e-07
1.82471e-07
1.39844e-07
5.46109e-08
0
0
0
0
0
0
0
0
0
0
0
0
0
0
0
0
0
0
0
0
0
3.02014e-08
7.98077e-07
9.66286e-07
1.66165e-06
1.62757e-06
0
0
0
0
9.09094e-07
9.64684e-07
7.16944e-07
5.97986e-07
5.81937e-07
6.34182e-07
7.17951e-07
7.00971e-07
5.15293e-07
3.62864e-07
2.68187e-07
1.99154e-07
1.30802e-07
3.76488e-08
0
0
0
3.65714e-09
8.16647e-08
1.04736e-07
1.04673e-07
9.11561e-08
7.65314e-08
5.92713e-08
4.22238e-08
1.8382e-08
1.52393e-09
0
0
0
0
0
5.72161e-07
3.9192e-07
0
0
0
0
0
0
0
0
0
0
5.57886e-09
1.76101e-07
3.44804e-07
5.26493e-07
5.95799e-07
5.62487e-07
4.51092e-07
2.2185e-07
0
0
0
0
0
0
5.7756e-08
0
0
0
0
0
0
0
0
0
0
0
0
0
0
0
8.09055e-08
3.76901e-07
3.82458e-07
2.83642e-07
2.39981e-07
2.49891e-07
1.66463e-07
0
0
6.80936e-08
2.40117e-07
2.64184e-07
3.06069e-07
1.69806e-08
0
3.23578e-07
3.90986e-07
1.63879e-07
4.84311e-08
1.20842e-08
4.42164e-09
2.10099e-09
0
0
4.58828e-09
8.41895e-09
2.85122e-09
0
0
0
0
0
0
0
0
0
0
0
0
0
0
0
0
0
0
0
0
0
3.81579e-08
2.26808e-08
0
0
0
0
0
0
0
0
0
0
0
0
0
0
0
9.21335e-08
1.91794e-07
6.66783e-08
0
0
0
3.68764e-08
2.01809e-07
2.13088e-07
1.65712e-07
1.0297e-07
2.22748e-08
0
0
0
0
0
0
0
0
0
0
0
0
0
0
0
0
0
0
0
0
0
1.28859e-06
1.4995e-06
1.41493e-06
1.58325e-06
0
0
0
0
2.94054e-07
1.43416e-06
1.06649e-06
8.2272e-07
7.53918e-07
7.79102e-07
8.31799e-07
8.28413e-07
6.60804e-07
4.63124e-07
3.29495e-07
2.3691e-07
1.57656e-07
7.28989e-08
0
0
0
9.55507e-08
2.06172e-07
2.01496e-07
1.73647e-07
1.36754e-07
1.02834e-07
7.17687e-08
4.74322e-08
1.96129e-08
1.6025e-10
0
0
0
0
0
6.00553e-07
8.33558e-07
2.08689e-07
0
0
0
0
0
0
0
0
0
0
1.711e-07
4.99347e-07
7.92512e-07
8.05255e-07
6.84837e-07
5.33722e-07
3.3476e-07
6.82857e-08
0
0
0
0
1.60143e-07
2.54651e-07
2.21859e-07
8.88337e-08
0
0
0
0
0
0
0
0
0
0
0
0
1.16297e-06
1.61381e-06
1.29824e-06
8.95756e-07
5.66223e-07
3.87066e-07
3.0409e-07
1.53806e-07
0
0
1.64561e-07
2.80814e-07
2.97673e-07
4.56292e-07
3.16297e-07
3.64364e-07
5.91224e-07
2.86323e-07
8.00125e-08
1.57239e-08
1.31422e-09
1.72516e-09
4.94369e-09
3.66106e-09
2.6632e-09
6.82106e-09
1.03214e-08
1.01682e-08
2.26933e-09
0
0
0
0
0
0
0
0
0
0
0
0
0
0
0
0
0
0
0
0
0
4.44511e-08
0
0
0
0
1.88634e-07
4.59903e-07
6.93686e-07
8.73824e-07
8.26837e-07
3.99165e-07
2.15284e-08
0
0
0
0
0
1.23279e-07
9.94524e-08
0
0
0
0
2.21132e-07
2.35327e-07
1.81026e-07
1.46454e-07
1.1239e-07
6.47291e-08
6.40719e-09
0
0
0
0
0
0
0
0
0
0
0
0
0
0
0
0
0
0
0
1.44229e-06
2.3909e-06
2.56319e-06
1.91661e-06
9.12344e-07
0
0
0
0
1.82212e-06
1.51442e-06
1.10904e-06
9.51034e-07
9.29455e-07
9.41838e-07
9.15367e-07
7.77393e-07
5.69402e-07
4.03037e-07
2.83829e-07
1.8764e-07
9.8797e-08
2.19633e-08
0
4.81498e-08
2.32897e-07
4.54135e-07
4.26175e-07
3.33005e-07
2.45076e-07
1.7063e-07
1.05069e-07
5.56171e-08
1.65923e-08
0
0
0
0
0
0
2.94835e-07
7.41865e-07
7.23279e-07
0
0
0
0
0
0
0
0
0
6.8615e-09
3.61369e-07
7.00663e-07
8.94301e-07
7.82878e-07
6.32222e-07
5.02273e-07
3.60441e-07
1.83868e-07
5.80197e-09
0
0
7.06089e-08
2.29492e-07
3.19835e-07
3.26814e-07
2.59214e-07
1.36724e-07
0
0
0
0
0
0
0
0
0
0
6.13526e-07
3.5816e-06
2.2809e-06
1.38895e-06
8.38944e-07
4.84068e-07
3.15515e-07
2.4517e-07
1.03617e-07
0
3.98082e-08
2.6418e-07
3.13364e-07
3.62796e-07
7.59304e-07
8.92663e-07
8.81358e-07
4.81898e-07
1.61848e-07
5.18822e-08
2.12755e-08
1.49815e-08
1.63174e-08
1.91259e-08
1.8713e-08
1.58136e-08
1.80623e-08
2.00175e-08
2.08412e-08
1.8644e-08
2.73267e-10
0
0
0
0
0
0
0
0
0
0
0
0
0
0
0
0
0
0
0
0
1.46588e-07
1.75638e-07
2.31911e-07
6.01368e-07
1.40027e-06
2.49848e-06
3.60063e-06
4.34342e-06
4.37943e-06
3.3722e-06
1.46601e-06
0
0
0
0
0
0
6.57818e-08
1.15239e-07
0
0
0
0
2.17243e-07
2.30635e-07
1.88164e-07
2.10277e-07
2.47242e-07
2.40959e-07
1.79645e-07
6.57259e-08
0
0
0
0
0
0
0
0
0
0
0
0
0
0
0
8.54898e-08
0
0
1.40528e-06
2.91404e-06
3.60618e-06
3.09987e-06
1.84645e-06
0
0
0
0
1.97361e-06
1.99686e-06
1.4307e-06
1.15415e-06
1.06555e-06
1.02751e-06
9.62585e-07
8.30734e-07
6.44924e-07
4.72862e-07
3.36152e-07
2.24537e-07
1.27232e-07
5.50978e-08
4.42419e-08
1.34482e-07
3.16023e-07
5.04203e-07
5.90826e-07
5.57129e-07
4.37743e-07
3.13525e-07
1.90095e-07
7.26768e-08
1.15167e-09
0
0
0
0
0
0
4.15264e-08
3.02691e-07
5.2268e-07
5.01397e-07
0
0
0
0
0
0
0
2.89447e-08
2.29733e-07
4.82883e-07
7.02345e-07
7.50563e-07
6.04171e-07
4.85495e-07
3.92779e-07
2.97638e-07
1.84971e-07
6.74416e-08
0
5.05032e-09
9.09113e-08
1.94386e-07
2.64463e-07
2.85683e-07
2.59569e-07
1.9638e-07
1.07019e-07
0
0
0
0
0
0
0
0
0
1.45802e-06
2.16332e-06
1.32834e-06
7.73665e-07
4.41981e-07
2.40882e-07
1.88858e-07
1.72162e-07
4.70264e-08
0
1.60072e-07
3.55687e-07
3.53657e-07
5.04744e-07
1.30702e-06
1.55144e-06
8.26308e-07
2.90557e-07
1.17578e-07
5.66861e-08
3.67879e-08
3.3799e-08
3.69273e-08
3.89321e-08
3.7827e-08
3.35309e-08
3.37686e-08
3.55683e-08
3.48442e-08
3.61146e-08
2.94463e-08
0
0
0
0
0
0
0
0
0
0
0
0
0
0
0
0
0
0
0
0
3.08173e-07
5.22818e-07
7.75153e-07
1.38199e-06
2.73298e-06
4.74209e-06
6.94858e-06
8.97543e-06
9.68303e-06
7.8147e-06
3.02483e-06
0
0
0
0
0
0
2.14754e-08
1.19334e-07
0
0
0
0
1.92562e-07
1.99637e-07
2.06938e-07
3.29716e-07
4.55694e-07
4.9087e-07
4.12628e-07
2.56062e-07
1.03269e-07
0
0
0
0
0
0
0
0
0
0
0
0
0
0
5.72043e-07
6.04589e-07
1.87045e-07
1.35943e-06
3.18638e-06
4.10208e-06
3.81663e-06
2.56657e-06
0
0
0
0
1.83155e-06
2.41924e-06
1.74055e-06
1.33779e-06
1.17241e-06
1.08008e-06
9.75832e-07
8.33542e-07
6.67487e-07
5.14749e-07
3.81979e-07
2.65794e-07
1.63501e-07
9.17863e-08
9.11831e-08
1.91115e-07
3.62673e-07
5.12869e-07
5.68632e-07
5.60206e-07
5.34079e-07
4.29767e-07
2.742e-07
6.60509e-08
0
4.83223e-08
9.56961e-08
0
0
0
0
0
1.00024e-07
1.70014e-07
4.65327e-07
0
0
0
0
2.06569e-08
1.20234e-07
1.64399e-07
1.95402e-07
2.83779e-07
4.25045e-07
5.29374e-07
4.98482e-07
3.72057e-07
2.91967e-07
2.42299e-07
1.89174e-07
1.23509e-07
5.23355e-08
5.28179e-09
5.67992e-09
5.35058e-08
1.17783e-07
1.65668e-07
1.84831e-07
1.76004e-07
1.46569e-07
1.04909e-07
5.83126e-08
1.17105e-08
0
0
0
0
0
0
1.00123e-07
4.26111e-07
4.85486e-07
2.9382e-07
1.59417e-07
7.05907e-08
3.55125e-08
9.31907e-08
9.79798e-08
0
9.90324e-09
2.99907e-07
4.39996e-07
4.18499e-07
8.29708e-07
2.15596e-06
1.77787e-06
5.01864e-07
2.10724e-07
1.1371e-07
6.85286e-08
5.27062e-08
5.28891e-08
5.7064e-08
5.75656e-08
5.45537e-08
4.93776e-08
4.76808e-08
5.04892e-08
4.99767e-08
5.13516e-08
4.97788e-08
6.81292e-09
0
0
0
0
0
0
0
0
0
0
0
0
0
0
0
0
0
0
7.75082e-08
5.3699e-07
9.01263e-07
1.26228e-06
1.94928e-06
3.39884e-06
5.97149e-06
9.04988e-06
1.31707e-05
1.6324e-05
1.54987e-05
4.67852e-06
0
0
0
0
0
0
2.88286e-09
1.24028e-07
0
0
0
0
1.53242e-07
1.65757e-07
2.79842e-07
5.42048e-07
7.49959e-07
8.04923e-07
6.79994e-07
4.78948e-07
3.11573e-07
5.32222e-08
0
0
0
0
0
0
0
0
0
0
0
0
0
8.70749e-07
1.10163e-06
9.28192e-07
1.44976e-06
3.3303e-06
4.34134e-06
4.15732e-06
3.01399e-06
1.46547e-06
0
0
0
1.53811e-06
2.69885e-06
1.98889e-06
1.48044e-06
1.24195e-06
1.09812e-06
9.60532e-07
8.07405e-07
6.48336e-07
5.156e-07
4.04019e-07
3.00806e-07
2.04361e-07
1.3529e-07
1.37882e-07
2.33611e-07
3.79105e-07
4.9213e-07
5.50164e-07
5.46265e-07
4.94363e-07
3.95062e-07
1.8499e-07
0
0
3.31602e-07
2.43976e-07
0
0
0
0
0
3.06236e-08
7.56169e-09
0
0
0
0
1.13006e-07
1.85907e-07
1.88399e-07
1.5967e-07
1.32568e-07
1.61343e-07
2.35307e-07
2.74638e-07
2.25169e-07
1.38535e-07
9.46523e-08
7.68957e-08
5.66945e-08
2.76143e-08
0
0
0
1.48882e-08
5.40448e-08
8.33154e-08
9.50074e-08
9.08569e-08
7.7591e-08
6.27193e-08
5.26229e-08
5.31825e-08
6.52332e-08
9.06083e-08
1.30376e-07
1.82161e-07
2.43067e-07
2.76034e-07
2.4659e-07
1.38032e-07
0
0
0
0
0
3.60037e-09
0
0
1.05416e-07
4.48207e-07
5.18844e-07
5.42952e-07
1.60542e-06
2.93871e-06
1.26009e-06
3.25362e-07
1.95194e-07
1.22796e-07
8.31647e-08
7.09117e-08
7.34663e-08
7.64089e-08
7.47463e-08
6.92679e-08
6.17205e-08
5.769e-08
6.1469e-08
6.31599e-08
6.3994e-08
6.53576e-08
4.87019e-08
0
0
0
0
0
0
0
0
0
0
0
0
0
0
0
0
0
6.75741e-08
3.33939e-07
7.59764e-07
1.25394e-06
1.65389e-06
2.25248e-06
3.43749e-06
5.83847e-06
8.88702e-06
1.39565e-05
1.993e-05
2.63917e-05
5.75418e-06
0
0
0
0
0
0
0
1.1577e-07
0
0
0
5.3881e-08
1.06805e-07
1.73684e-07
4.61145e-07
8.64251e-07
1.11254e-06
1.1492e-06
9.41876e-07
6.83194e-07
5.00852e-07
2.56993e-07
0
0
0
0
0
0
0
0
0
0
0
0
1.19774e-07
1.25273e-06
1.66455e-06
1.56897e-06
1.76162e-06
3.48266e-06
4.60925e-06
4.56732e-06
3.53229e-06
2.82798e-06
1.05332e-06
3.16507e-07
0
1.34233e-06
2.86508e-06
2.18258e-06
1.58394e-06
1.27409e-06
1.0832e-06
9.22156e-07