/*--------------------------------*- C++ -*----------------------------------*\
  =========                 |
  \\      /  F ield         | OpenFOAM: The Open Source CFD Toolbox
   \\    /   O peration     | Website:  https://openfoam.org
    \\  /    A nd           | Version:  7
     \\/     M anipulation  |
\*---------------------------------------------------------------------------*/
FoamFile
{
    version     2.0;
    format      ascii;
    class       surfaceScalarField;
    location    "0.1";
    object      phi_0;
}
// * * * * * * * * * * * * * * * * * * * * * * * * * * * * * * * * * * * * * //

dimensions      [0 3 -1 0 0 0 0];

internalField   nonuniform List<scalar> 
24170
(
1.38455e-06
1.8455e-07
1.25542e-06
1.29135e-07
1.11113e-06
1.44286e-07
9.7972e-07
1.31412e-07
8.67529e-07
1.12191e-07
7.64763e-07
1.02766e-07
6.64018e-07
1.00745e-07
5.69255e-07
9.47629e-08
4.86263e-07
8.29922e-08
4.15429e-07
7.08339e-08
3.5348e-07
6.19485e-08
2.98053e-07
5.54271e-08
2.49009e-07
4.90436e-08
2.06887e-07
4.21229e-08
1.71944e-07
3.49429e-08
1.42385e-07
2.95586e-08
1.18939e-07
2.34462e-08
8.37777e-09
1.10561e-07
1.65396e-06
2.36478e-07
1.63806e-06
1.45039e-07
1.60157e-06
1.80774e-07
1.55987e-06
1.73116e-07
1.52486e-06
1.47193e-07
1.48977e-06
1.37859e-07
1.44554e-06
1.44974e-07
1.39112e-06
1.49186e-07
1.33157e-06
1.42538e-07
1.27146e-06
1.30951e-07
1.21314e-06
1.20265e-07
1.15653e-06
1.12035e-07
1.10185e-06
1.03722e-07
1.04899e-06
9.49911e-08
9.98208e-07
8.57208e-08
9.52868e-07
7.48978e-08
9.0739e-07
6.89245e-08
6.12321e-08
8.54536e-07
1.78392e-06
3.53838e-07
1.76337e-06
1.65596e-07
1.76521e-06
1.7893e-07
1.75935e-06
1.78974e-07
1.74988e-06
1.56667e-07
1.73995e-06
1.47792e-07
1.72795e-06
1.56967e-07
1.71192e-06
1.65218e-07
1.69235e-06
1.62105e-07
1.6712e-06
1.52104e-07
1.64958e-06
1.41888e-07
1.62731e-06
1.34299e-07
1.60336e-06
1.27677e-07
1.5777e-06
1.20653e-07
1.54968e-06
1.13737e-07
1.52008e-06
1.04497e-07
1.48953e-06
9.94776e-08
9.61113e-08
1.45465e-06
1.90621e-06
3.879e-07
1.87488e-06
1.96928e-07
1.86953e-06
1.84281e-07
1.87144e-06
1.77062e-07
1.86935e-06
1.58754e-07
1.86194e-06
1.55202e-07
1.85241e-06
1.66497e-07
1.84367e-06
1.73961e-07
1.83719e-06
1.68582e-07
1.83332e-06
1.55979e-07
1.83082e-06
1.44381e-07
1.82807e-06
1.37056e-07
1.82313e-06
1.32608e-07
1.81549e-06
1.28296e-07
1.80529e-06
1.2394e-07
1.79237e-06
1.17419e-07
1.77931e-06
1.12533e-07
1.09138e-07
1.76628e-06
2.07826e-06
3.82972e-07
2.044e-06
2.3119e-07
2.02111e-06
2.07169e-07
2.00246e-06
1.95715e-07
1.98488e-06
1.76329e-07
1.9713e-06
1.6878e-07
1.96506e-06
1.7274e-07
1.96624e-06
1.72787e-07
1.97225e-06
1.62564e-07
1.97979e-06
1.48444e-07
1.98572e-06
1.38455e-07
1.98804e-06
1.34728e-07
1.98605e-06
1.34599e-07
1.98035e-06
1.34003e-07
1.97278e-06
1.31511e-07
1.96415e-06
1.26041e-07
1.95723e-06
1.19453e-07
1.13894e-07
1.95248e-06
2.22e-06
4.1129e-07
2.20004e-06
2.51147e-07
2.18512e-06
2.22088e-07
2.16759e-06
2.13247e-07
2.1498e-06
1.94121e-07
2.13512e-06
1.83452e-07
2.1249e-06
1.82961e-07
2.11961e-06
1.78083e-07
2.11926e-06
1.6291e-07
2.12309e-06
1.44617e-07
2.12933e-06
1.32211e-07
2.13573e-06
1.28327e-07
2.14041e-06
1.29917e-07
2.1424e-06
1.3202e-07
2.14214e-06
1.31768e-07
2.14013e-06
1.2805e-07
2.13763e-06
1.21949e-07
1.15707e-07
2.13582e-06
2.3917e-06
4.25971e-07
2.35727e-06
2.85578e-07
2.34728e-06
2.32079e-07
2.34423e-06
2.1629e-07
2.33732e-06
2.01038e-07
2.3253e-06
1.95471e-07
2.31218e-06
1.96083e-07
2.30233e-06
1.87926e-07
2.29784e-06
1.67402e-07
2.29862e-06
1.43839e-07
2.30335e-06
1.27483e-07
2.31015e-06
1.21528e-07
2.31706e-06
1.23002e-07
2.32248e-06
1.26603e-07
2.32578e-06
1.28466e-07
2.32677e-06
1.27057e-07
2.32604e-06
1.22679e-07
1.17211e-07
2.32454e-06
2.59135e-06
4.32005e-07
2.5782e-06
2.98724e-07
2.56252e-06
2.47766e-07
2.54742e-06
2.31387e-07
2.52929e-06
2.19172e-07
2.51172e-06
2.13041e-07
2.50015e-06
2.07649e-07
2.49547e-06
1.92609e-07
2.49497e-06
1.67901e-07
2.49588e-06
1.42922e-07
2.49694e-06
1.26426e-07
2.49809e-06
1.20384e-07
2.49966e-06
1.21428e-07
2.50173e-06
1.24533e-07
2.50414e-06
1.26053e-07
2.50654e-06
1.24666e-07
2.50874e-06
1.20479e-07
1.14967e-07
2.51098e-06
2.7519e-06
3.95159e-07
2.73613e-06
3.14491e-07
2.7344e-06
2.49501e-07
2.72779e-06
2.37996e-07
2.71322e-06
2.33737e-07
2.70402e-06
2.22243e-07
2.7072e-06
2.04471e-07
2.71832e-06
1.81491e-07
2.7281e-06
1.58119e-07
2.72995e-06
1.41072e-07
2.72334e-06
1.33032e-07
2.71248e-06
1.31243e-07
2.70264e-06
1.31275e-07
2.69733e-06
1.29841e-07
2.69723e-06
1.26149e-07
2.70125e-06
1.2065e-07
2.70712e-06
1.14607e-07
1.09508e-07
2.71258e-06
2.89266e-06
4.66469e-07
2.89323e-06
3.13917e-07
2.91278e-06
2.29953e-07
2.93242e-06
2.18356e-07
2.94183e-06
2.24328e-07
2.94283e-06
2.21244e-07
2.93979e-06
2.0751e-07
2.93337e-06
1.87907e-07
2.92346e-06
1.68031e-07
2.91228e-06
1.5225e-07
2.90358e-06
1.41729e-07
2.90019e-06
1.34633e-07
2.90287e-06
1.28597e-07
2.91029e-06
1.2242e-07
2.91994e-06
1.16502e-07
2.92925e-06
1.11337e-07
2.93618e-06
1.0768e-07
1.05283e-07
2.9404e-06
3.18064e-06
4.09523e-07
3.18123e-06
3.13333e-07
3.15779e-06
2.53396e-07
3.14417e-06
2.31974e-07
3.14554e-06
2.22956e-07
3.1506e-06
2.16181e-07
3.15152e-06
2.06597e-07
3.1478e-06
1.91626e-07
3.14282e-06
1.73011e-07
3.13992e-06
1.5515e-07
3.14039e-06
1.41262e-07
3.14346e-06
1.31556e-07
3.14735e-06
1.24706e-07
3.15025e-06
1.19523e-07
3.15125e-06
1.15501e-07
3.15006e-06
1.12529e-07
3.1472e-06
1.10539e-07
1.09599e-07
3.14288e-06
2.90704e-06
4.56296e-07
2.88409e-06
3.36285e-07
2.87009e-06
2.67396e-07
2.86913e-06
2.32935e-07
2.86542e-06
2.26664e-07
2.85083e-06
2.30773e-07
2.83059e-06
2.26842e-07
2.81441e-06
2.07802e-07
2.80853e-06
1.78889e-07
2.813e-06
1.50679e-07
2.82333e-06
1.30936e-07
2.83388e-06
1.20998e-07
2.84079e-06
1.17796e-07
2.84297e-06
1.17343e-07
2.84149e-06
1.1699e-07
2.83819e-06
1.15829e-07
2.83476e-06
1.1397e-07
1.12081e-07
2.83227e-06
3.57554e-06
3.92357e-07
3.5562e-06
3.55618e-07
3.5068e-06
3.168e-07
3.47301e-06
2.66724e-07
3.46277e-06
2.369e-07
3.46565e-06
2.27897e-07
3.47301e-06
2.19481e-07
3.48173e-06
1.99085e-07
3.49114e-06
1.69472e-07
3.50055e-06
1.41273e-07
3.50843e-06
1.23053e-07
3.51303e-06
1.16402e-07
3.51306e-06
1.17763e-07
3.50848e-06
1.21925e-07
3.5005e-06
1.24966e-07
3.49102e-06
1.25312e-07
3.4817e-06
1.23287e-07
1.20225e-07
3.47356e-06
4.31629e-06
4.19398e-07
4.29098e-06
3.80924e-07
4.26935e-06
3.38432e-07
4.2516e-06
2.84479e-07
4.24711e-06
2.41386e-07
4.25746e-06
2.17547e-07
4.27206e-06
2.04882e-07
4.28136e-06
1.89783e-07
4.28354e-06
1.67292e-07
4.28208e-06
1.42735e-07
4.28064e-06
1.24489e-07
4.28034e-06
1.16703e-07
4.28031e-06
1.17793e-07
4.27921e-06
1.23028e-07
4.27634e-06
1.27841e-07
4.27171e-06
1.29937e-07
4.26608e-06
1.28921e-07
1.25912e-07
4.26039e-06
5.29119e-06
4.54902e-07
5.24113e-06
4.30981e-07
5.2087e-06
3.70858e-07
5.17578e-06
3.17407e-07
5.14824e-06
2.68919e-07
5.12958e-06
2.3621e-07
5.1207e-06
2.13763e-07
5.12226e-06
1.8822e-07
5.13339e-06
1.56159e-07
5.15054e-06
1.25588e-07
5.16849e-06
1.06538e-07
5.1825e-06
1.027e-07
5.19001e-06
1.10276e-07
5.19096e-06
1.22079e-07
5.18727e-06
1.31533e-07
5.18133e-06
1.35878e-07
5.17547e-06
1.34786e-07
1.30623e-07
5.17075e-06
6.29667e-06
4.90311e-07
6.36398e-06
3.63667e-07
6.37853e-06
3.56312e-07
6.37277e-06
3.23167e-07
6.35594e-06
2.85744e-07
6.33529e-06
2.56856e-07
6.32169e-06
2.27365e-07
6.31844e-06
1.91474e-07
6.32091e-06
1.53691e-07
6.32338e-06
1.2311e-07
6.32379e-06
1.06128e-07
6.32329e-06
1.03205e-07
6.32386e-06
1.09706e-07
6.32671e-06
1.19225e-07
6.33183e-06
1.26416e-07
6.33843e-06
1.29277e-07
6.34534e-06
1.27877e-07
1.24515e-07
6.35145e-06
7.78117e-06
4.7584e-07
7.69229e-06
4.52544e-07
7.66282e-06
3.85789e-07
7.66651e-06
3.19473e-07
7.68684e-06
2.65414e-07
7.71779e-06
2.25903e-07
7.75528e-06
1.89874e-07
7.79238e-06
1.54383e-07
7.81976e-06
1.26311e-07
7.83106e-06
1.11807e-07
7.82683e-06
1.10355e-07
7.81338e-06
1.16653e-07
7.79862e-06
1.24472e-07
7.78848e-06
1.2936e-07
7.78538e-06
1.29523e-07
7.78865e-06
1.26001e-07
7.7961e-06
1.20431e-07
1.15719e-07
7.80489e-06
9.57228e-06
5.92449e-07
9.54392e-06
4.80901e-07
9.51059e-06
4.1912e-07
9.46057e-06
3.69499e-07
9.41588e-06
3.10094e-07
9.39786e-06
2.43922e-07
9.40972e-06
1.78015e-07
9.44059e-06
1.23517e-07
9.47705e-06
8.98528e-08
9.5098e-06
7.90585e-08
9.53476e-06
8.53933e-08
9.55189e-06
9.95154e-08
9.56358e-06
1.12789e-07
9.57265e-06
1.20283e-07
9.58121e-06
1.20972e-07
9.59004e-06
1.17165e-07
9.59918e-06
1.11293e-07
1.06616e-07
9.60828e-06
1.13884e-05
5.02462e-07
1.14723e-05
3.97027e-07
1.15625e-05
3.2897e-07
1.16298e-05
3.02141e-07
1.1666e-05
2.73926e-07
1.16773e-05
2.32575e-07
1.16707e-05
1.84646e-07
1.16526e-05
1.41653e-07
1.16334e-05
1.09042e-07
1.16251e-05
8.73035e-08
1.16354e-05
7.51593e-08
1.1664e-05
7.08876e-08
1.17047e-05
7.20382e-08
1.17488e-05
7.62403e-08
1.17887e-05
8.10313e-08
1.18207e-05
8.51573e-08
1.18444e-05
8.76591e-08
8.85141e-08
1.18625e-05
8.38385e-06
4.5423e-07
8.38898e-06
3.91904e-07
8.42129e-06
2.96662e-07
8.49425e-06
2.29179e-07
8.5654e-06
2.02774e-07
8.60392e-06
1.94059e-07
8.60708e-06
1.8148e-07
8.59264e-06
1.56095e-07
8.5795e-06
1.22179e-07
8.57673e-06
9.0071e-08
8.58429e-06
6.76089e-08
8.59777e-06
5.74051e-08
8.61264e-06
5.71678e-08
8.62615e-06
6.27302e-08
8.6379e-06
6.92771e-08
8.64915e-06
7.39068e-08
8.66189e-06
7.49213e-08
7.25254e-08
8.67788e-06
7.36282e-06
3.94503e-07
7.40525e-06
3.49474e-07
7.39815e-06
3.03759e-07
7.39763e-06
2.29695e-07
7.41031e-06
1.90097e-07
7.4349e-06
1.69465e-07
7.47031e-06
1.46076e-07
7.50958e-06
1.16822e-07
7.5444e-06
8.73625e-08
7.56888e-06
6.55873e-08
7.58191e-06
5.45856e-08
7.58687e-06
5.24398e-08
7.58923e-06
5.4804e-08
7.59427e-06
5.76999e-08
7.60528e-06
5.8261e-08
7.62331e-06
5.58803e-08
7.64752e-06
5.07062e-08
4.43406e-08
7.67571e-06
6.27195e-06
3.74407e-07
6.34337e-06
2.78052e-07
6.40441e-06
2.42717e-07
6.44411e-06
1.89993e-07
6.4763e-06
1.57911e-07
6.50178e-06
1.43985e-07
6.52145e-06
1.26407e-07
6.5379e-06
1.00372e-07
6.55298e-06
7.22803e-08
6.56795e-06
5.06199e-08
6.58358e-06
3.89562e-08
6.60067e-06
3.53509e-08
6.62008e-06
3.53895e-08
6.64263e-06
3.51456e-08
6.66833e-06
3.25666e-08
6.69627e-06
2.794e-08
6.72481e-06
2.21623e-08
1.72738e-08
6.75188e-06
5.53155e-06
3.90045e-07
5.56509e-06
2.44507e-07
5.63518e-06
1.72631e-07
5.69091e-06
1.34263e-07
5.73071e-06
1.18109e-07
5.76022e-06
1.14471e-07
5.7799e-06
1.06727e-07
5.79236e-06
8.79139e-08
5.80202e-06
6.26233e-08
5.81336e-06
3.92774e-08
5.82922e-06
2.3099e-08
5.85001e-06
1.45586e-08
5.87426e-06
1.11393e-08
5.89939e-06
1.00118e-08
5.9228e-06
9.15953e-09
5.94272e-06
8.02205e-09
5.95816e-06
6.72404e-09
6.10517e-09
5.96933e-06
4.8432e-06
4.57685e-07
4.82814e-06
2.59562e-07
4.8746e-06
1.26171e-07
4.92626e-06
8.2606e-08
4.97404e-06
7.03239e-08
5.01923e-06
6.92814e-08
5.05698e-06
6.89786e-08
5.08224e-06
6.2659e-08
5.09568e-06
4.91785e-08
5.10259e-06
3.23685e-08
5.10835e-06
1.73341e-08
5.11637e-06
6.54793e-09
5.12785e-06
-3.49062e-10
5.14226e-06
-4.39837e-09
5.15906e-06
-7.6411e-09
5.17718e-06
-1.00963e-08
5.19547e-06
-1.15622e-08
-1.10605e-08
5.21263e-06
4.26182e-06
4.45255e-07
4.31742e-06
2.03967e-07
4.33061e-06
1.12978e-07
4.32271e-06
9.05103e-08
4.32218e-06
7.08577e-08
4.34336e-06
4.80922e-08
4.38123e-06
3.11094e-08
4.42254e-06
2.13499e-08
4.45748e-06
1.42374e-08
4.48237e-06
7.48608e-09
4.49783e-06
1.8722e-09
4.50673e-06
-2.35037e-09
4.51224e-06
-5.86152e-09
4.51755e-06
-9.70663e-09
4.52435e-06
-1.44407e-08
4.53349e-06
-1.92353e-08
4.54523e-06
-2.33021e-08
-2.50242e-08
4.55919e-06
3.67248e-06
3.66971e-07
3.7309e-06
1.45538e-07
3.76771e-06
7.61676e-08
3.79015e-06
6.80776e-08
3.81488e-06
4.61292e-08
3.84795e-06
1.50154e-08
3.88513e-06
-6.06571e-09
3.92099e-06
-1.45084e-08
3.95045e-06
-1.52309e-08
3.97108e-06
-1.31377e-08
3.98359e-06
-1.06366e-08
3.99052e-06
-9.2854e-09
3.9949e-06
-1.02427e-08
3.99925e-06
-1.40535e-08
4.00501e-06
-2.0203e-08
4.01263e-06
-2.68539e-08
4.02194e-06
-3.26139e-08
-3.56888e-08
4.03261e-06
3.22373e-06
3.34168e-07
3.28164e-06
8.76269e-08
3.31713e-06
4.06739e-08
3.36092e-06
2.42858e-08
3.40669e-06
3.58368e-10
3.44214e-06
-2.0432e-08
3.46333e-06
-2.72558e-08
3.4749e-06
-2.60802e-08
3.48311e-06
-2.34336e-08
3.49172e-06
-2.1754e-08
3.50204e-06
-2.0956e-08
3.51386e-06
-2.1101e-08
3.52644e-06
-2.28235e-08
3.53909e-06
-2.67072e-08
3.55108e-06
-3.21876e-08
3.56186e-06
-3.7633e-08
3.57093e-06
-4.169e-08
-4.29533e-08
3.5782e-06
2.81807e-06
1.79145e-07
2.90218e-06
3.51481e-09
2.9363e-06
6.55586e-09
2.97223e-06
-1.16475e-08
3.00474e-06
-3.215e-08
3.0287e-06
-4.43904e-08
3.04771e-06
-4.62698e-08
3.06413e-06
-4.24952e-08
3.07908e-06
-3.8384e-08
3.09343e-06
-3.6103e-08
3.1076e-06
-3.51275e-08
3.12112e-06
-3.46254e-08
3.13287e-06
-3.45721e-08
3.14178e-06
-3.56166e-08
3.14733e-06
-3.77334e-08
3.14975e-06
-4.00582e-08
3.14966e-06
-4.16015e-08
-4.12643e-08
3.14797e-06
2.50352e-06
7.62833e-08
2.55659e-06
-4.95593e-08
2.59982e-06
-3.66745e-08
2.62912e-06
-4.09473e-08
2.64294e-06
-4.59723e-08
2.64889e-06
-5.03386e-08
2.65371e-06
-5.10861e-08
2.65959e-06
-4.83758e-08
2.66626e-06
-4.50569e-08
2.67285e-06
-4.26938e-08
2.67837e-06
-4.0644e-08
2.68176e-06
-3.80157e-08
2.68229e-06
-3.51055e-08
2.67983e-06
-3.31527e-08
2.67486e-06
-3.27644e-08
2.6683e-06
-3.34998e-08
2.66097e-06
-3.42651e-08
-3.38484e-08
2.65355e-06
2.18113e-06
2.13157e-06
2.09489e-06
2.05394e-06
2.00797e-06
1.95763e-06
1.90655e-06
1.85817e-06
1.81312e-06
1.77042e-06
1.72978e-06
1.69176e-06
1.65666e-06
1.6235e-06
1.59074e-06
1.55724e-06
1.52297e-06
1.48913e-06
-1.74277e-07
1.74277e-07
-3.30881e-07
1.56604e-07
-3.85105e-07
5.42234e-08
-3.20331e-07
-6.47731e-08
-1.88929e-07
-1.31403e-07
-3.49893e-08
-1.53939e-07
9.96268e-08
-1.34616e-07
1.86838e-07
-8.72109e-08
2.08271e-07
-2.14336e-08
1.60502e-07
4.77697e-08
7.29455e-08
8.75561e-08
-2.99461e-09
7.59401e-08
-4.62024e-08
4.32078e-08
-7.07245e-08
2.45221e-08
-1.15836e-07
4.51111e-08
-1.71017e-07
5.51818e-08
-2.02729e-07
3.17119e-08
-1.98061e-07
-4.66823e-09
-1.61737e-07
-3.6324e-08
-1.16165e-07
-4.55715e-08
-8.2621e-08
-3.35445e-08
-6.94765e-08
-1.31444e-08
-9.48396e-08
2.5363e-08
-1.77797e-07
8.29573e-08
-3.25373e-07
1.47576e-07
-5.57227e-07
2.31854e-07
-8.65717e-07
3.0849e-07
-1.20327e-06
3.37549e-07
-1.55284e-06
3.4957e-07
-1.90483e-06
3.5199e-07
-2.23893e-06
3.34105e-07
-2.54932e-06
3.10392e-07
-2.83138e-06
2.82053e-07
-3.08275e-06
2.51375e-07
-3.30358e-06
2.20833e-07
-3.49444e-06
1.90852e-07
-3.65661e-06
1.62179e-07
-3.79144e-06
1.34827e-07
-3.90078e-06
1.09339e-07
-3.98595e-06
8.5175e-08
-4.04826e-06
6.23003e-08
-4.08853e-06
4.02738e-08
-4.10835e-06
1.98251e-08
-4.10905e-06
7.00212e-10
-4.08978e-06
-1.92715e-08
-4.05166e-06
-3.81205e-08
-3.99502e-06
-5.66388e-08
-3.91988e-06
-7.51446e-08
-3.82527e-06
-9.46046e-08
-3.70995e-06
-1.1532e-07
-3.57256e-06
-1.37391e-07
-3.41172e-06
-1.60847e-07
-3.22631e-06
-1.85404e-07
-3.01604e-06
-2.10271e-07
-2.78192e-06
-2.3412e-07
-2.52652e-06
-2.554e-07
-2.25363e-06
-2.7289e-07
-1.96673e-06
-2.869e-07
-1.6671e-06
-2.99629e-07
-1.35297e-06
-3.1413e-07
-1.02022e-06
-3.32755e-07
-6.67381e-07
-3.52838e-07
-3.012e-07
-3.66181e-07
6.96369e-08
-3.70837e-07
4.3007e-07
-3.60433e-07
7.79977e-07
-3.49907e-07
1.15873e-06
-3.78758e-07
1.53031e-06
-3.71573e-07
1.60952e-06
-7.9215e-08
1.26887e-06
3.40654e-07
8.49958e-07
4.18911e-07
5.3142e-07
3.18538e-07
3.04582e-07
2.26838e-07
1.205e-07
1.84083e-07
-1.04728e-07
2.25228e-07
-2.88747e-07
1.84019e-07
-2.22299e-07
-6.64484e-08
2.10343e-07
-4.32641e-07
9.25253e-07
-7.14911e-07
1.66724e-06
-7.41982e-07
2.25529e-06
-5.88051e-07
2.52206e-06
-2.66773e-07
2.32274e-06
1.99321e-07
1.77823e-06
5.44505e-07
1.24401e-06
5.34222e-07
1.01438e-06
2.29629e-07
1.08271e-06
-6.83298e-08
1.20413e-06
-1.21421e-07
1.11275e-06
9.1378e-08
6.70357e-07
4.42397e-07
-6.98502e-08
7.40208e-07
-8.76694e-07
8.06844e-07
-1.62073e-06
7.4404e-07
-2.26807e-06
6.47333e-07
-2.81741e-06
5.49342e-07
-3.27901e-06
4.61604e-07
-3.66599e-06
3.86977e-07
-3.99059e-06
3.24598e-07
-4.26294e-06
2.72356e-07
-4.49057e-06
2.27622e-07
-4.67847e-06
1.879e-07
-4.82977e-06
1.51301e-07
-4.94614e-06
1.16376e-07
-5.02826e-06
8.2117e-08
-5.07617e-06
4.7911e-08
-5.0894e-06
1.32344e-08
-5.06986e-06
-1.95411e-08
-5.01816e-06
-5.16998e-08
-4.93415e-06
-8.40142e-08
-4.81796e-06
-1.16194e-07
-4.66946e-06
-1.48499e-07
-4.48845e-06
-1.81008e-07
-4.27474e-06
-2.13706e-07
-4.02834e-06
-2.46406e-07
-3.74968e-06
-2.78659e-07
-3.44009e-06
-3.0959e-07
-3.10233e-06
-3.37758e-07
-2.74081e-06
-3.6152e-07
-2.36297e-06
-3.77835e-07
-1.97809e-06
-3.84885e-07
-1.59623e-06
-3.81861e-07
-1.22618e-06
-3.70052e-07
-8.74912e-07
-3.51265e-07
-5.47098e-07
-3.27814e-07
-2.43529e-07
-3.03569e-07
3.65526e-08
-2.80081e-07
2.95157e-07
-2.58604e-07
5.32175e-07
-2.37018e-07
7.48623e-07
-2.16448e-07
9.45118e-07
-1.96495e-07
1.12207e-06
-1.76953e-07
1.27995e-06
-1.57875e-07
1.41941e-06
-1.39462e-07
1.54133e-06
-1.21923e-07
1.64665e-06
-1.05324e-07
1.73613e-06
-8.94712e-08
1.81028e-06
-7.41568e-08
1.86947e-06
-5.91843e-08
1.91363e-06
-4.41647e-08
1.9428e-06
-2.91688e-08
1.95713e-06
-1.43327e-08
1.95635e-06
7.84312e-10
1.94138e-06
1.49637e-08
1.91308e-06
2.83083e-08
1.87209e-06
4.09854e-08
1.81842e-06
5.36725e-08
1.7512e-06
6.72177e-08
1.66906e-06
8.21406e-08
1.57169e-06
9.73678e-08
1.46045e-06
1.11245e-07
1.33761e-06
1.22835e-07
1.20652e-06
1.31095e-07
1.07343e-06
1.3309e-07
9.48333e-07
1.25095e-07
8.41975e-07
1.06358e-07
7.61787e-07
8.01884e-08
7.08966e-07
5.28207e-08
6.79381e-07
2.95847e-08
6.66412e-07
1.2969e-08
6.63431e-07
2.98099e-09
6.65179e-07
-1.74746e-09
6.68351e-07
-3.17226e-09
6.71267e-07
-2.91652e-09
6.73316e-07
-2.04888e-09
6.74394e-07
-1.07797e-09
6.74639e-07
-2.44817e-10
6.74154e-07
4.84829e-10
6.72988e-07
1.16631e-09
6.70861e-07
2.12662e-09
6.67708e-07
3.15335e-09
6.62832e-07
4.87633e-09
6.56419e-07
6.41284e-09
6.4694e-07
9.4792e-09
6.35618e-07
1.13212e-08
6.18369e-07
1.72491e-08
5.99963e-07
1.84067e-08
5.68285e-07
3.16779e-08
5.40847e-07
2.74379e-08
4.79356e-07
6.14907e-08
3.88607e-08
4.40495e-07
-9.77855e-08
2.72062e-07
-1.93235e-07
2.52054e-07
-1.64073e-07
2.50617e-08
-3.52836e-08
-1.93563e-07
1.39559e-07
-3.06245e-07
3.12114e-07
-3.26494e-07
4.54765e-07
-2.77268e-07
5.5033e-07
-1.82775e-07
5.92758e-07
-6.38618e-08
5.79152e-07
6.13756e-08
4.91205e-07
1.75504e-07
3.08944e-07
2.582e-07
8.88173e-08
2.63335e-07
-8.28959e-08
1.96235e-07
-1.91484e-07
1.53699e-07
-2.71275e-07
1.34973e-07
-3.29855e-07
9.02914e-08
-3.76808e-07
4.22853e-08
-4.42244e-07
2.91115e-08
-5.49976e-07
6.21609e-08
-7.01291e-07
1.17771e-07
-8.93168e-07
1.78732e-07
-1.13466e-06
2.66857e-07
-1.4258e-06
3.74096e-07
-1.73654e-06
4.58317e-07
-2.02476e-06
5.20072e-07
-2.28548e-06
5.69213e-07
-2.53868e-06
5.90742e-07
-2.77734e-06
5.88236e-07
-2.99486e-06
5.69512e-07
-3.19694e-06
5.36177e-07
-3.38416e-06
4.9762e-07
-3.55802e-06
4.55911e-07
-3.72003e-06
4.13384e-07
-3.87226e-06
3.73066e-07
-4.01529e-06
3.33874e-07
-4.14853e-06
2.95425e-07
-4.27102e-06
2.57318e-07
-4.38076e-06
2.1908e-07
-4.476e-06
1.80415e-07
-4.55493e-06
1.41229e-07
-4.61541e-06
1.00753e-07
-4.65477e-06
5.91858e-08
-4.6704e-06
1.63286e-08
-4.66341e-06
-2.62613e-08
-4.63172e-06
-6.98124e-08
-4.57345e-06
-1.14906e-07
-4.4875e-06
-1.61099e-07
-4.37409e-06
-2.0801e-07
-4.23426e-06
-2.55154e-07
-4.0698e-06
-3.01848e-07
-3.88341e-06
-3.47239e-07
-3.67851e-06
-3.90301e-07
-3.45885e-06
-4.29931e-07
-3.22755e-06
-4.65429e-07
-2.98605e-06
-4.969e-07
-2.73387e-06
-5.25067e-07
-2.46964e-06
-5.51132e-07
-2.19224e-06
-5.77025e-07
-1.90058e-06
-6.0579e-07
-1.5937e-06
-6.39637e-07
-1.27052e-06
-6.76013e-07
-9.28238e-07
-7.08464e-07
-5.65955e-07
-7.3312e-07
-1.7838e-07
-7.48008e-07
2.27531e-07
-7.55818e-07
6.20458e-07
-7.71684e-07
9.87564e-07
-7.38679e-07
1.34436e-06
-4.36007e-07
1.55116e-06
1.33846e-07
1.42505e-06
5.4502e-07
1.15361e-06
5.89981e-07
9.53518e-07
4.2693e-07
7.96577e-07
3.41023e-07
5.91904e-07
4.29901e-07
3.72948e-07
4.02975e-07
2.76422e-07
3.00771e-08
4.46221e-07
-6.0244e-07
9.02083e-07
-1.17077e-06
1.44886e-06
-1.28876e-06
1.88173e-06
-1.02092e-06
2.14591e-06
-5.30954e-07
2.21526e-06
1.2997e-07
2.0888e-06
6.7096e-07
1.93227e-06
6.90755e-07
1.80284e-06
3.59064e-07
1.47405e-06
2.60457e-07
7.81408e-07
5.7122e-07
-1.59273e-07
1.03206e-06
-1.07894e-06
1.36207e-06
-1.81614e-06
1.4774e-06
-2.41086e-06
1.40157e-06
-2.90635e-06
1.23953e-06
-3.31775e-06
1.05873e-06
-3.65902e-06
8.90606e-07
-3.94352e-06
7.46112e-07
-4.18224e-06
6.25693e-07
-4.38343e-06
5.25783e-07
-4.55281e-06
4.41736e-07
-4.69404e-06
3.68858e-07
-4.80926e-06
3.03121e-07
-4.89943e-06
2.41472e-07
-4.96471e-06
1.81654e-07
-5.00473e-06
1.22134e-07
-5.01884e-06
6.20228e-08
-5.00632e-06
7.17612e-10
-4.96556e-06
-6.0302e-08
-4.89496e-06
-1.223e-07
-4.79433e-06
-1.84644e-07
-4.66331e-06
-2.4722e-07
-4.50165e-06
-3.1016e-07
-4.30894e-06
-3.73713e-07
-4.08471e-06
-4.37933e-07
-3.82861e-06
-5.02514e-07
-3.54059e-06
-5.66679e-07
-3.22136e-06
-6.28815e-07
-2.87312e-06
-6.85997e-07
-2.50044e-06
-7.34199e-07
-2.11038e-06
-7.67896e-07
-1.71256e-06
-7.82707e-07
-1.31781e-06
-7.76615e-07
-9.36069e-07
-7.51789e-07
-5.74807e-07
-7.12526e-07
-2.38369e-07
-6.64252e-07
7.28588e-08
-6.14797e-07
3.59862e-07
-5.67085e-07
6.22427e-07
-5.21169e-07
8.62807e-07
-4.77398e-07
1.08196e-06
-4.35598e-07
1.28057e-06
-3.95112e-07
1.45922e-06
-3.556e-07
1.61857e-06
-3.17229e-07
1.75958e-06
-2.80466e-07
1.8834e-06
-2.45747e-07
1.99124e-06
-2.13159e-07
2.08415e-06
-1.82378e-07
2.1629e-06
-1.52909e-07
2.22787e-06
-1.24161e-07
2.27941e-06
-9.57051e-08
2.31779e-06
-6.7546e-08
2.34329e-06
-3.98303e-08
2.35705e-06
-1.29714e-08
2.35938e-06
1.26287e-08
2.35101e-06
3.66775e-08
2.33294e-06
5.90533e-08
2.3076e-06
7.90166e-08
2.27798e-06
9.68362e-08
2.24665e-06
1.13473e-07
2.21454e-06
1.29477e-07
2.18073e-06
1.45054e-07
2.14347e-06
1.60091e-07
2.10108e-06
1.73494e-07
2.0526e-06
1.81563e-07
1.99811e-06
1.79586e-07
1.9399e-06
1.64569e-07
1.88259e-06
1.375e-07
1.831e-06
1.04412e-07
1.78834e-06
7.22422e-08
1.75538e-06
4.59291e-08
1.73071e-06
2.76503e-08
1.71186e-06
1.71081e-08
1.69621e-06
1.24775e-08
1.68173e-06
1.15593e-08
1.66759e-06
1.20932e-08
1.65361e-06
1.28948e-08
1.64017e-06
1.31952e-08
1.62764e-06
1.30213e-08
1.61627e-06
1.25357e-08
1.60587e-06
1.25274e-08
1.59624e-06
1.27831e-08
1.58658e-06
1.45297e-08
1.57689e-06
1.6103e-08
1.56576e-06
2.06183e-08
1.55409e-06
2.29841e-08
1.53894e-06
3.24059e-08
1.52316e-06
3.41833e-08
1.50039e-06
5.44453e-08
1.47631e-06
5.15181e-08
1.44091e-06
9.68933e-08
8.17007e-08
1.39807e-06
-7.24119e-09
2.79304e-07
7.41516e-08
1.70661e-07
2.66323e-07
-1.6711e-07
4.8421e-07
-4.1145e-07
6.77402e-07
-4.99437e-07
8.25406e-07
-4.74498e-07
9.24367e-07
-3.76228e-07
9.77072e-07
-2.3548e-07
9.87549e-07
-7.43388e-08
9.50088e-07
9.88362e-08
8.60622e-07
2.6497e-07
7.09489e-07
4.09333e-07
4.69289e-07
5.03535e-07
1.76068e-07
4.89456e-07
-6.16524e-08
3.91419e-07
-2.23535e-07
2.96856e-07
-3.57362e-07
2.24118e-07
-4.92102e-07
1.77026e-07
-6.5819e-07
1.95199e-07
-8.68492e-07
2.72462e-07
-1.11426e-06
3.63537e-07
-1.39414e-06
4.58611e-07
-1.69204e-06
5.64763e-07
-1.97022e-06
6.52275e-07
-2.22003e-06
7.08124e-07
-2.44978e-06
7.4982e-07
-2.65321e-06
7.72645e-07
-2.83308e-06
7.70613e-07
-3.00177e-06
7.56924e-07
-3.16581e-06
7.33549e-07
-3.33162e-06
7.01987e-07
-3.50151e-06
6.67508e-07
-3.67524e-06
6.29647e-07
-3.85089e-06
5.89034e-07
-4.02371e-06
5.45889e-07
-4.18912e-06
4.99279e-07
-4.34285e-06
4.49158e-07
-4.48115e-06
3.95614e-07
-4.60106e-06
3.38993e-07
-4.70044e-06
2.79793e-07
-4.77748e-06
2.18272e-07
-4.83109e-06
1.54357e-07
-4.86047e-06
8.8567e-08
-4.86587e-06
2.17349e-08
-4.84433e-06
-4.78053e-08
-4.79564e-06
-1.185e-07
-4.72047e-06
-1.90081e-07
-4.6191e-06
-2.62471e-07
-4.49217e-06
-3.3494e-07
-4.34101e-06
-4.06313e-07
-4.16784e-06
-4.75013e-07
-3.97589e-06
-5.39193e-07
-3.76907e-06
-5.97122e-07
-3.55133e-06
-6.47666e-07
-3.32592e-06
-6.90835e-07
-3.09493e-06
-7.27893e-07
-2.85928e-06
-7.60717e-07
-2.61924e-06
-7.91177e-07
-2.37482e-06
-8.21441e-07
-2.12598e-06
-8.54636e-07
-1.87247e-06
-8.93143e-07
-1.61188e-06
-9.36602e-07
-1.3379e-06
-9.82441e-07
-1.04557e-06
-1.02545e-06
-7.33354e-07
-1.06023e-06
-4.05225e-07
-1.08395e-06
-7.84412e-08
-1.09847e-06
2.5791e-07
-1.07503e-06
6.73404e-07
-8.515e-07
1.12787e-06
-3.20616e-07
1.39089e-06
2.81998e-07
1.37746e-06
6.03406e-07
1.24531e-06
5.59087e-07
1.1612e-06
4.25128e-07
1.0829e-06
5.08198e-07
9.31901e-07
5.53978e-07
7.48114e-07
2.13864e-07
6.48141e-07
-5.02467e-07
7.60081e-07
-1.28271e-06
1.02612e-06
-1.5548e-06
1.27122e-06
-1.26602e-06
1.42998e-06
-6.89714e-07
1.5627e-06
-2.74698e-09
1.68608e-06
5.47582e-07
1.66993e-06
7.06899e-07
1.24032e-06
7.88679e-07
3.70757e-07
1.13002e-06
-6.12672e-07
1.55465e-06
-1.42618e-06
1.84557e-06
-2.01631e-06
1.95219e-06
-2.42223e-06
1.88332e-06
-2.72521e-06
1.70455e-06
-2.97734e-06
1.49166e-06
-3.20441e-06
1.28581e-06
-3.41614e-06
1.10234e-06
-3.61448e-06
9.44445e-07
-3.79868e-06
8.09895e-07
-3.96738e-06
6.94485e-07
-4.11919e-06
5.9354e-07
-4.25277e-06
5.02447e-07
-4.36682e-06
4.17166e-07
-4.45979e-06
3.34442e-07
-4.53001e-06
2.51876e-07
-4.57581e-06
1.67929e-07
-4.59553e-06
8.17434e-08
-4.5881e-06
-6.70827e-09
-4.55264e-06
-9.57606e-08
-4.48876e-06
-1.8618e-07
-4.39637e-06
-2.77038e-07
-4.27542e-06
-3.68166e-07
-4.12571e-06
-4.59869e-07
-3.94668e-06
-5.52748e-07
-3.73742e-06
-6.47193e-07
-3.49689e-06
-7.43041e-07
-3.22411e-06
-8.39464e-07
-2.91845e-06
-9.34469e-07
-2.58059e-06
-1.02386e-06
-2.21396e-06
-1.10083e-06
-1.82499e-06
-1.15687e-06
-1.42315e-06
-1.18454e-06
-1.02011e-06
-1.17966e-06
-6.27777e-07
-1.14412e-06
-2.5471e-07
-1.08559e-06
9.44295e-08
-1.01339e-06
4.1887e-07
-9.39237e-07
7.17187e-07
-8.65401e-07
9.90771e-07
-7.94753e-07
1.24091e-06
-7.2754e-07
1.46804e-06
-6.62723e-07
1.67198e-06
-5.99055e-07
1.85247e-06
-5.36092e-07
2.00967e-06
-4.74422e-07
2.1444e-06
-4.15202e-07
2.25809e-06
-3.59433e-07
2.35236e-06
-3.07436e-07
2.42875e-06
-2.58765e-07
2.4884e-06
-2.12553e-07
2.53215e-06
-1.67915e-07
2.56078e-06
-1.24338e-07
2.57521e-06
-8.19688e-08
2.57673e-06
-4.13522e-08
2.56674e-06
-2.98387e-09
2.54851e-06
3.08541e-08
2.52369e-06
6.14979e-08
2.4936e-06
8.9145e-08
2.45826e-06
1.14363e-07
2.41792e-06
1.37175e-07
2.37545e-06
1.5594e-07
2.33681e-06
1.68113e-07
2.30781e-06
1.74059e-07
2.29104e-06
1.76859e-07
2.28494e-06
1.79598e-07
2.28388e-06
1.82618e-07
2.28094e-06
1.82524e-07
2.27071e-06
1.74804e-07
2.25134e-06
1.56871e-07
2.22435e-06
1.31396e-07
2.19337e-06
1.03229e-07
2.16222e-06
7.70743e-08
2.13376e-06
5.61164e-08
2.10932e-06
4.15456e-08
2.08892e-06
3.28728e-08
2.07184e-06
2.86409e-08
2.05697e-06
2.69647e-08
2.04337e-06
2.64933e-08
2.03045e-06
2.61144e-08
2.01783e-06
2.56418e-08
2.00536e-06
2.50034e-08
1.99291e-06
2.4979e-08
1.98053e-06
2.51662e-08
1.96813e-06
2.69295e-08
1.95585e-06
2.83833e-08
1.94355e-06
3.29193e-08
1.93124e-06
3.52882e-08
1.91888e-06
4.47686e-08
1.90566e-06
4.74067e-08
1.89285e-06
6.72524e-08
1.87589e-06
6.84779e-08
1.86316e-06
1.09626e-07
1.09423e-07
1.83544e-06
6.5877e-08
2.13427e-07
3.70323e-07
-1.33784e-07
6.92207e-07
-4.88994e-07
9.26855e-07
-6.46098e-07
1.07141e-06
-6.43995e-07
1.14491e-06
-5.47993e-07
1.16908e-06
-4.00404e-07
1.1593e-06
-2.25698e-07
1.12251e-06
-3.75471e-08
1.05929e-06
1.62051e-07
9.6592e-07
3.58344e-07
8.37807e-07
5.37446e-07
6.54777e-07
6.86565e-07
3.97033e-07
7.472e-07
1.08513e-07
6.7994e-07
-1.36819e-07
5.42188e-07
-3.36429e-07
4.23728e-07
-5.27879e-07
3.68476e-07
-7.46666e-07
4.13986e-07
-1.00117e-06
5.2697e-07
-1.27913e-06
6.41493e-07
-1.56311e-06
7.42589e-07
-1.82975e-06
8.31404e-07
-2.06505e-06
8.87577e-07
-2.2764e-06
9.19479e-07
-2.47201e-06
9.45428e-07
-2.65377e-06
9.54405e-07
-2.83002e-06
9.46862e-07
-3.00743e-06
9.3433e-07
-3.18775e-06
9.13875e-07
-3.37136e-06
8.85594e-07
-3.55537e-06
8.51519e-07
-3.73595e-06
8.1023e-07
-3.90965e-06
7.62726e-07
-4.0731e-06
7.09347e-07
-4.22414e-06
6.50313e-07
-4.36158e-06
5.86595e-07
-4.48464e-06
5.18675e-07
-4.59268e-06
4.47034e-07
-4.68466e-06
3.71773e-07
-4.75911e-06
2.92724e-07
-4.81473e-06
2.09976e-07
-4.84992e-06
1.2376e-07
-4.86249e-06
3.43047e-08
-4.85112e-06
-5.91772e-08
-4.81413e-06
-1.55488e-07
-4.74973e-06
-2.54482e-07
-4.65658e-06
-3.55624e-07
-4.534e-06
-4.57514e-07
-4.38238e-06
-5.57932e-07
-4.20339e-06
-6.54006e-07
-4.0002e-06
-7.42382e-07
-3.7775e-06
-8.1982e-07
-3.54112e-06
-8.84052e-07
-3.29728e-06
-9.34669e-07
-3.05171e-06
-9.7347e-07
-2.80854e-06
-1.00389e-06
-2.56981e-06
-1.02991e-06
-2.33609e-06
-1.05516e-06
-2.10822e-06
-1.0825e-06
-1.88757e-06
-1.11379e-06
-1.67399e-06
-1.15018e-06
-1.46398e-06
-1.19245e-06
-1.25039e-06
-1.23904e-06
-1.02633e-06
-1.28428e-06
-7.90053e-07
-1.32023e-06
-5.51754e-07
-1.33677e-06
-3.08561e-07
-1.31822e-06
3.20376e-08
-1.1921e-06
5.40394e-07
-8.28972e-07
1.05887e-06
-2.36473e-07
1.34555e-06
3.16717e-07
1.3698e-06
5.34841e-07
1.31262e-06
4.82312e-07
1.28312e-06
5.37699e-07
1.20459e-06
6.32501e-07
1e-06
4.18457e-07
7.29791e-07
-2.32256e-07
5.72304e-07
-1.12523e-06
5.92646e-07
-1.57514e-06
6.75327e-07
-1.3487e-06
7.55094e-07
-7.69481e-07
8.1696e-07
-6.46132e-08
8.13236e-07
5.51306e-07
5.10017e-07
1.01012e-06
-1.42423e-07
1.44112e-06
-8.84406e-07
1.872e-06
-1.50333e-06
2.17358e-06
-1.94219e-06
2.28443e-06
-2.22196e-06
2.23196e-06
-2.40885e-06
2.07021e-06
-2.56657e-06
1.86227e-06
-2.72594e-06
1.65102e-06
-2.89452e-06
1.45439e-06
-3.06929e-06
1.2771e-06
-3.24369e-06
1.11884e-06
-3.41196e-06
9.78166e-07
-3.57e-06
8.52524e-07
-3.71496e-06
7.38503e-07
-3.84464e-06
6.32129e-07
-3.95698e-06
5.29498e-07
-4.04978e-06
4.27243e-07
-4.12086e-06
3.2296e-07
-4.16829e-06
2.1536e-07
-4.19039e-06
1.0384e-07
-4.18604e-06
-1.10601e-08
-4.15514e-06
-1.26652e-07
-4.09736e-06
-2.43964e-07
-4.01316e-06
-3.6124e-07
-3.90313e-06
-4.78198e-07
-3.76752e-06
-5.95479e-07
-3.60599e-06
-7.14278e-07
-3.41751e-06
-8.35669e-07
-3.20052e-06
-9.60031e-07
-2.95314e-06
-1.08684e-06
-2.67342e-06
-1.21419e-06
-2.3602e-06
-1.33708e-06
-2.01493e-06
-1.4461e-06
-1.64272e-06
-1.52908e-06
-1.25243e-06
-1.57484e-06
-8.55524e-07
-1.57656e-06
-4.64817e-07
-1.53482e-06
-8.97941e-08
-1.46062e-06
2.66435e-07
-1.36962e-06
5.98947e-07
-1.27175e-06
9.09444e-07
-1.1759e-06
1.19993e-06
-1.08524e-06
1.4717e-06
-9.99305e-07
1.72459e-06
-9.15619e-07
1.95721e-06
-8.31676e-07
2.16761e-06