/*--------------------------------*- C++ -*----------------------------------*\
  =========                 |
  \\      /  F ield         | OpenFOAM: The Open Source CFD Toolbox
   \\    /   O peration     | Website:  https://openfoam.org
    \\  /    A nd           | Version:  7
     \\/     M anipulation  |
\*---------------------------------------------------------------------------*/
FoamFile
{
    version     2.0;
    format      ascii;
    class       volScalarField;
    location    "0.1";
    object      s;
}
// * * * * * * * * * * * * * * * * * * * * * * * * * * * * * * * * * * * * * //

dimensions      [0 0 0 0 0 0 0];

internalField   nonuniform List<scalar> 
12225
(
1
1
1
1
1
1
1
1
1
1
1
1
1
1
1
1
1
1
1
1
1
1
1
1
1
1
1
1
1
1
1
1
1
1
1
1
1
1
1
1
1
1
1
1
1
1
1
1
1
1
1
1
1
1
1
1
1
1
1
1
1
1
1
1
1
1
1
1
1
1
1
1
1
1
1
1
1
1
1
1
1
1
1
1
1
1
1
1
1
1
1
1
1
1
1
1
1
1
1
1
1
1
1
1
1
1
1
1
1
1
1
1
1
1
1
1
1
1
1
1
1
1
1
1
1
1
1
1
1
1
1
1
1
1
1
1
1
1
1
1
1
1
1
1
1
1
1
1
1
1
1
1
1
1
1
1
1
1
1
1
1
1
1
1
1
1
1
1
1
1
1
1
1
1
1
1
1
1
1
1
1
1
1
1
1
1
1
1
1
1
1
1
1
1
1
1
1
1
1
1
1
1
1
1
1
1
1
1
1
1
1
1
1
1
1
1
1
1
1
1
1
1
1
1
1
1
1
1
1
1
1
1
1
1
1
1
1
1
1
1
1
1
1
1
1
1
1
1
1
1
1
1
1
1
1
1
1
1
1
1
1
1
1
1
1
1
1
1
1
1
1
1
1
1
1
1
1
1
1
1
1
1
1
1
1
1
1
1
1
1
1
1
1
1
1
1
1
1
1
1
1
1
1
1
1
1
1
1
1
1
1
1
1
1
1
1
1
1
1
1
1
1
1
1
1
1
1
1
1
1
1
1
1
1
1
1
1
1
1
1
1
1
1
1
1
1
1
1
1
1
1
1
1
1
1
1
1
1
1
1
1
1
1
1
1
1
1
1
1
1
1
1
1
1
1
1
1
1
1
1
1
1
1
1
1
1
1
1
1
1
1
1
1
1
1
1
1
1
1
1
1
1
1
1
1
1
1
1
1
1
1
1
1
1
1
1
1
1
1
1
1
1
1
1
1
1
1
1
1
1
1
1
1
1
1
1
1
1
1
1
1
1
1
1
1
1
1
1
1
1
1
1
1
1
1
1
1
1
1
1
1
1
1
1
1
1
1
1
1
1
1
1
1
1
1
1
1
1
1
1
1
1
1
1
1
1
1
1
1
1
1
1
1
1
1
1
1
1
1
1
1
1
1
1
1
1
1
1
1
1
1
1
1
1
1
1
1
1
1
1
1
1
1
1
1
1
1
1
1
1
1
1
1
1
1
1
1
1
1
1
0.184188
0.310905
0.413628
0.446399
0.456175
0.455977
0.441382
0.408334
0.322483
0.24592
0.218457
0.268874
0.36272
0.399902
0.415437
0.420097
0.420865
0.420453
0.417617
0.408816
0.389708
0.347331
0.28716
0.272834
0.282479
0.341999
0.481877
0.63413
0.693511
0.723174
0.758253
0.781803
0.792979
0.810697
0.829095
0.836203
0.839216
0.839986
0.839927
0.838905
0.836004
0.830566
0.82269
0.813399
0.80346
0.792588
0.780494
0.768294
0.756954
0.746962
0.738649
0.732919
0.729064
0.726629
0.723829
0.718884
0.711642
0.704417
0.699928
0.696854
0.691822
0.68799
0.68435
0.681036
0.678874
0.67797
0.678397
0.678891
0.67663
0.64678
0.498328
0.386462
0.33811
0.348239
0.365798
0.332933
0.319313
0.338117
0.444203
0.527463
0.529278
0.513126
0.46244
0.429478
0.427562
0.466022
0.604695
0.740619
0.82983
0.872945
0.880401
0.875693
0.870308
0.865115
0.860911
0.857338
0.853935
0.850759
0.84803
0.845586
0.843094
0.840755
0.838572
0.836483
0.834611
0.832882
0.831225
0.830065
0.829077
0.828369
0.828061
0.82794
0.827926
0.82826
0.829059
0.829892
0.830806
0.83197
0.832841
0.834013
0.83559
0.837939
0.840651
0.844206
0.848161
0.852421
0.857433
0.862907
0.868754
0.874882
0.881116
0.886808
0.891509
0.895082
0.898019
0.900541
0.902504
0.903696
0.904053
0.903813
0.901992
0.898538
0.896347
0.894293
0.890226
0.878748
0.856544
0.84125
0.830783
0.813324
0.770763
0.633882
0.381745
0.186462
0.0746855
0.025158
0.00739778
0.00197676
0.000502359
0.00014048
0.000110587
0.000148658
0.000117617
5.9377e-05
1.81453e-05
3.89805e-06
1.68663e-06
9.49801e-07
5.45379e-07
3.13779e-07
1.79065e-07
1.00585e-07
5.52538e-08
2.957e-08
1.53428e-08
7.69781e-09
3.7254e-09
1.69547e-09
8.08259e-10
3.3119e-11
0.189395
0.363456
0.539771
0.57131
0.579402
0.579654
0.576543
0.557956
0.537528
0.489416
0.438446
0.331863
0.321241
0.352732
0.419429
0.429282
0.429763
0.424834
0.40187
0.349113
0.31375
0.309327
0.317608
0.361862
0.458768
0.600747
0.705061
0.757627
0.805708
0.84637
0.872877
0.89761
0.910125
0.923032
0.92857
0.930391
0.93062
0.928117
0.920711
0.912564
0.903374
0.889534
0.875565
0.862428
0.849357
0.840757
0.832648
0.826723
0.824994
0.824863
0.82544
0.825988
0.825456
0.823657
0.819168
0.811786
0.801673
0.789306
0.775432
0.761712
0.748263
0.734231
0.719789
0.704627
0.691982
0.683833
0.681242
0.682347
0.681143
0.668088
0.589121
0.447544
0.367392
0.353306
0.358192
0.333931
0.296972
0.314337
0.452678
0.704807
0.752699
0.741464
0.659523
0.504527
0.455096
0.460474
0.526875
0.757935
0.867498
0.876746
0.87161
0.857609
0.83895
0.819325
0.808277
0.798132
0.792974
0.788151
0.785837
0.784304
0.78366
0.783464
0.783852
0.785149
0.786092
0.787295
0.788868
0.790682
0.791799
0.793791
0.795339
0.79742
0.799992
0.802817
0.806074
0.809703
0.812839
0.815141
0.816114
0.81477
0.811049
0.807176
0.803924
0.800852
0.797769
0.795012
0.79284
0.791571
0.791329
0.792073
0.794135
0.798396
0.805344
0.814959
0.826542
0.839677
0.854075
0.869743
0.885011
0.898151
0.909034
0.916729
0.92217
0.927511
0.931468
0.932309
0.931885
0.930261
0.925726
0.918922
0.908232
0.884188
0.820023
0.737086
0.665569
0.587514
0.513736
0.474687
0.468294
0.47123
0.479854
0.480513
0.470497
0.41638
0.310744
0.227061
0.162634
0.113359
0.0764246
0.0497442
0.0311626
0.0188321
0.0109324
0.0061365
0.00329788
0.00171599
0.000858107
0.000388238
0.000231629
-0.000129368
0.192341
0.446051
0.55761
0.593537
0.606611
0.609813
0.602391
0.583313
0.562006
0.530606
0.500715
0.466482
0.387714
0.355196
0.377198
0.429232
0.434769
0.421559
0.374394
0.344364
0.340331
0.372433
0.475697
0.650634
0.779325
0.833685
0.87383
0.907849
0.935894
0.950262
0.961468
0.967639
0.970362
0.971503
0.9717
0.970942
0.969945
0.96964
0.969485
0.969612
0.970076
0.970628
0.971393
0.972343
0.973011
0.973433
0.973831
0.974286
0.974732
0.975089
0.975383
0.975434
0.974883
0.973951
0.97207
0.968832
0.96396
0.957504
0.948869
0.937837
0.922898
0.900614
0.869567
0.830554
0.785439
0.746483
0.716936
0.696589
0.684685
0.675019
0.648251
0.562027
0.436174
0.375402
0.364825
0.349881
0.309057
0.310439
0.437855
0.743668
0.820414
0.80936
0.737165
0.566595
0.511108
0.532441
0.72486
0.860261
0.870385
0.860966
0.826617
0.798594
0.783305
0.777517
0.77581
0.775682
0.778366
0.779852
0.783066
0.784629
0.787871
0.789991
0.790968
0.791878
0.792248
0.792298
0.791983
0.791719
0.791608
0.791859
0.793151
0.794836
0.798448
0.803528
0.810124
0.818763
0.8281
0.837438
0.847664
0.85926
0.867875
0.871912
0.870604
0.866019
0.85861
0.848806
0.836946
0.82367
0.8107
0.799797
0.790521
0.78226
0.775607
0.770995
0.768451
0.767679
0.768134
0.770808
0.77794
0.792751
0.815633
0.844088
0.871925
0.894182
0.909524
0.919487
0.926958
0.933765
0.938619
0.940372
0.940292
0.938794
0.93321
0.917427
0.886061
0.852466
0.830615
0.825366
0.826292
0.830748
0.845903
0.863758
0.871399
0.872213
0.868712
0.852496
0.837706
0.823289
0.793242
0.713357
0.569238
0.430262
0.311269
0.220834
0.15053
0.100812
0.0641174
0.0394815
0.0240602
0.0111797
0.255242
0.49254
0.59103
0.629309
0.63692
0.629307
0.606888
0.578293
0.539344
0.494911
0.478056
0.461922
0.435107
0.377045
0.363836
0.406099
0.433429
0.41671
0.376722
0.368726
0.405576
0.531818
0.724803
0.843339
0.899862
0.932152
0.949581
0.968497
0.977525
0.982045
0.984917
0.986226
0.986858
0.987184
0.98743
0.987709
0.988159
0.988855
0.989467
0.99008
0.990755
0.991291
0.991818
0.992235
0.992485
0.993033
0.993514
0.99407
0.994681
0.99514
0.995541
0.996011
0.996246
0.996685
0.996913
0.99701
0.99662
0.996056
0.994925
0.993142
0.990295
0.98562
0.977656
0.963535
0.937569
0.886334
0.815252
0.754347
0.711333
0.688658
0.670608
0.632125
0.524536
0.419543
0.382136
0.361774
0.312495
0.302368
0.399495
0.741884
0.843001
0.82349
0.745041
0.67579
0.677571
0.773499
0.849184
0.863303
0.852446
0.806238
0.781883
0.773012
0.770741
0.773808
0.776705
0.782065
0.784882
0.788048
0.789337
0.78974
0.789679
0.787588
0.783923
0.779016
0.772578
0.765472
0.759176
0.753588
0.748713
0.745189
0.743602
0.743148
0.745814
0.75498
0.768131
0.787598
0.810245
0.830188
0.847854
0.863376
0.880195
0.895892
0.907044
0.91529
0.921065
0.92335
0.923948
0.922321
0.915944
0.9059
0.891771
0.873057
0.851698
0.830188
0.810448
0.793994
0.780724
0.770785
0.764169
0.760815
0.760146
0.761271
0.768539
0.795004
0.83618
0.872922
0.901146
0.918284
0.926932
0.933146
0.939954
0.945342
0.946881
0.946431
0.943721
0.933214
0.910012
0.897092
0.893714
0.893805
0.895832
0.904825
0.926673
0.944393
0.954976
0.959793
0.961149
0.961089
0.959169
0.950276
0.938439
0.926358
0.901954
0.842006
0.684859
0.505041
0.351391
0.234607
0.156773
0.0858274
0.538246
0.620243
0.656962
0.661082
0.651792
0.624665
0.558514
0.48861
0.447604
0.412444
0.408787
0.41741
0.423429
0.404743
0.366388
0.376701
0.427464
0.41495
0.390842
0.408855
0.515877
0.707899
0.855961
0.921964
0.956004
0.971619
0.979791
0.985088
0.987058
0.98771
0.987856
0.987639
0.987287
0.986915
0.986361
0.985759
0.98514
0.984597
0.984028
0.983584
0.983317
0.983196
0.983186
0.983652
0.984323
0.985609
0.986627
0.988617
0.990036
0.991606
0.9927
0.994354
0.995205
0.996627
0.997449
0.998309
0.998708
0.999028
0.99912
0.999149
0.998897
0.998306
0.996996
0.994259
0.988334
0.975134
0.945103
0.874924
0.786723
0.72723
0.694328
0.668315
0.614628
0.489906
0.419104
0.378979
0.320253
0.297145
0.325105
0.658725
0.8479
0.847574
0.819219
0.802648
0.820282
0.847028
0.854521
0.84528
0.798087
0.774655
0.767839
0.767012
0.771363
0.77734
0.780186
0.782109
0.782784
0.782315
0.776609
0.767919
0.758431
0.748596
0.738252
0.729837
0.723219
0.718168
0.713662
0.710308
0.70747
0.705016
0.703818
0.703509
0.704243
0.708732
0.718671
0.735945
0.763378
0.801234
0.835161
0.858391
0.88007
0.899339
0.916256
0.929709
0.940453
0.947888
0.953784
0.957743
0.958881
0.958478
0.956466
0.95209
0.945892
0.937029
0.923571
0.904416
0.880905
0.854929
0.828636
0.804575
0.783549
0.769771
0.763954
0.763392
0.765138
0.77451
0.809889
0.859337
0.8944
0.917369
0.930655
0.938527
0.944887
0.949548
0.950932
0.95063
0.948403
0.938827
0.920306
0.910693
0.908437
0.908973
0.913529
0.929428
0.947631
0.962468
0.973843
0.981114
0.984544
0.985457
0.985464
0.985035
0.983405
0.978833
0.967289
0.940489
0.870786
0.678321
0.492946
0.295583
0.64081
0.660464
0.677926
0.672071
0.637803
0.539966
0.465641
0.425277
0.400393
0.372616
0.365446
0.370765
0.398449
0.401171
0.375986
0.365165
0.411233
0.418545
0.413978
0.466598
0.621666
0.828841
0.919776
0.960826
0.978186
0.984606
0.987009
0.987717
0.987718
0.986927
0.985613
0.983294
0.980199
0.976098
0.971206
0.965795
0.960451
0.955352
0.952075
0.948658
0.94698
0.946132
0.94592
0.947124
0.948881
0.952325
0.95593
0.961017
0.96568
0.971073
0.975228
0.979583
0.983562
0.987604
0.991463
0.994732
0.996757
0.998441
0.999121
0.999451
0.9996
0.999646
0.99959
0.999269
0.998309
0.995721
0.988802
0.970602
0.924536
0.833121
0.754593
0.709887
0.676981
0.604393
0.500556
0.422298
0.344921
0.305158
0.311074
0.514452
0.838777
0.859037
0.851995
0.84791
0.850448
0.850612
0.841196
0.794123
0.770787
0.764411
0.764164
0.76826
0.774473
0.77696
0.77763
0.774351
0.763786
0.754363
0.744088
0.73895
0.732887
0.727818
0.723527
0.718536
0.714903
0.710372
0.706177
0.701839
0.698476
0.696337
0.695372
0.695196
0.695638
0.698242
0.70482
0.716843
0.737204
0.77011
0.815915
0.845341
0.875078
0.8987
0.918467
0.934624
0.947782
0.958236
0.966467
0.972733
0.977116
0.979669
0.98058
0.980514
0.979627
0.977578
0.974415
0.969829
0.963189
0.953283
0.93745
0.914082
0.884046
0.847306
0.811899
0.786504
0.77461
0.772869
0.774437
0.782826
0.816185
0.869408
0.904487
0.925106
0.937433
0.945645
0.951721
0.954883
0.955381
0.954699
0.950519
0.935039
0.920092
0.91395
0.912992
0.913881
0.919906
0.939881
0.959786
0.973267
0.982394
0.988554
0.992243
0.993931
0.994323
0.994248
0.993606
0.991224
0.983735
0.96235
0.907566
0.710704
0.641864
0.672054
0.69357
0.67498
0.574635
0.473572
0.427641
0.39769
0.372225
0.345859
0.337788
0.342266
0.36619
0.392179
0.379155
0.362124
0.400308
0.420519
0.426786
0.517048
0.732668
0.893078
0.953246
0.977491
0.985585
0.987551
0.987801
0.987101
0.985064
0.980388
0.972727
0.960931
0.950509
0.939875
0.931648
0.92548
0.919858
0.9169
0.913544
0.911931
0.910847
0.910466
0.910446
0.911715
0.91336
0.915679
0.918578
0.922141
0.926497
0.93154
0.937821
0.945378
0.953782
0.963246
0.973092
0.9804
0.988034
0.993874
0.99681
0.998468
0.999261
0.999629
0.999771
0.999812
0.999763
0.999428
0.998222
0.994365
0.982983
0.953075
0.88279
0.798556
0.739298
0.696348
0.646769
0.537955
0.416421
0.337004
0.319559
0.386355
0.770915
0.86125
0.858736
0.854963
0.85099
0.840879
0.797804
0.769881
0.761408
0.759616
0.765371
0.77146
0.773543
0.773533
0.765386
0.756159
0.751115
0.746793
0.742868
0.740339
0.737715
0.735823
0.733057
0.727913
0.721523
0.713254
0.706658
0.700085
0.696643
0.694562
0.693906
0.693841
0.69434
0.696531
0.701946
0.711866
0.728649
0.757105
0.801161
0.839569
0.872416
0.898334
0.919625
0.936848
0.950755
0.962143
0.971156
0.978142
0.983395
0.98724
0.989921
0.991645
0.99255
0.992758
0.992565
0.991645
0.990076
0.987488
0.984097
0.979402
0.970723
0.953353
0.919557
0.870245
0.824537
0.795
0.783569
0.783113
0.786356
0.801227
0.847644
0.893433
0.92142
0.937461
0.947397
0.954383
0.958623
0.95982
0.959591
0.957149
0.945507
0.927594
0.918971
0.916956
0.917342
0.920816
0.935146
0.956537
0.972347
0.982917
0.989603
0.993746
0.996182
0.997308
0.997571
0.997501
0.996917
0.994538
0.986573
0.944347
0.638738
0.685521
0.709737
0.664939
0.525429
0.44642
0.412663
0.382516
0.346564
0.322031
0.316512
0.320457
0.339548
0.384314
0.382917
0.361831
0.392675
0.42531
0.451647
0.573755
0.813085
0.930066
0.970097
0.983974
0.987427
0.987765
0.98693
0.983459
0.975303
0.959396
0.940601
0.931065
0.921208
0.91621
0.910799
0.908186
0.905578
0.904358
0.903286
0.902855
0.902693
0.902692
0.903173
0.90409
0.905059
0.906433
0.908252
0.910311
0.912766
0.91526
0.917769
0.920285
0.923473
0.928204
0.936213
0.948597
0.964852
0.978545
0.988582
0.994291
0.997196
0.998707
0.999448
0.99977
0.999872
0.99989
0.999783
0.9992
0.996885
0.988983
0.966809
0.920839
0.858264
0.78209
0.720337
0.675623
0.587109
0.431849
0.354118
0.35966
0.603969
0.846241
0.859504
0.854391
0.844237
0.808098
0.771515
0.758102
0.755327
0.75992
0.768083
0.770807
0.770866
0.763305
0.756673
0.753951
0.752686
0.752771
0.754456
0.755529
0.755423
0.750092
0.743012
0.734999
0.725008
0.716137
0.707518
0.701513
0.697777
0.696326
0.695939
0.696244
0.697086
0.699134
0.703684
0.712192
0.727326
0.753038
0.793509
0.835222
0.871888
0.902475
0.925485
0.942842
0.956393
0.96696
0.9752
0.981552
0.986424
0.990124
0.992846
0.994717
0.995935
0.996735
0.997184
0.997298
0.997273
0.997109
0.996556
0.995584
0.994445
0.992206
0.987008
0.974561
0.938693
0.868962
0.821027
0.797073
0.791915
0.793406
0.803112
0.840261
0.889125
0.921022
0.939424
0.950333
0.95775
0.962576
0.964315
0.964318
0.962862
0.955243
0.937247
0.927314
0.924751
0.925184
0.928786
0.942253
0.9605
0.974434
0.984372
0.990898
0.994831
0.997092
0.9983
0.998757
0.998799
0.998634
0.997704
0.989983
0.633087
0.69178
0.72298
0.657607
0.505222
0.43876
0.408502
0.375288
0.327166
0.306189
0.304289
0.309634
0.334185
0.384559
0.385523
0.362433
0.389823
0.430527
0.467472
0.628958
0.866659
0.95134
0.978182
0.986133
0.987506
0.987218
0.983819
0.973905
0.953495
0.931812
0.921546
0.914186
0.909494
0.906875
0.904626
0.903287
0.902329
0.901696
0.901085
0.900794
0.90066
0.900639
0.900885
0.90145
0.902033
0.903059
0.904613
0.906403
0.908627
0.910964
0.913212
0.915153
0.916384
0.917188
0.918393
0.920779
0.927092
0.943352
0.965463
0.981954
0.990884
0.995523
0.997965
0.999168
0.999698
0.99989
0.999935
0.999911
0.99963
0.998142
0.991705
0.970473
0.933132
0.889692
0.809016
0.739384
0.695535
0.608662
0.437966
0.387736
0.471141
0.792918
0.85701
0.850759
0.823081
0.78014
0.75845
0.752317
0.751671
0.761573
0.767793
0.768862
0.764131
0.758108
0.756716
0.757152
0.761729
0.763613
0.763424
0.760424
0.755367
0.747512
0.737895
0.728136
0.71889
0.711815
0.706094
0.703045
0.702293
0.703014
0.705492
0.708588
0.711297
0.714082
0.718108
0.724896
0.736023
0.753755
0.788435
0.831402
0.871948
0.9063
0.933123
0.952206
0.965846
0.975711
0.982762
0.987735
0.991136
0.993435
0.9951
0.996368
0.997316
0.99793
0.998275
0.998431
0.99847
0.998467
0.998435
0.998293
0.998057
0.997835
0.997314
0.995754
0.990693
0.976106
0.927914
0.852686
0.813628
0.80128
0.801649
0.808806
0.840515
0.890701
0.924372
0.943603
0.95444
0.961717
0.966777
0.968972
0.969194
0.968417
0.964151
0.951298
0.942245
0.939497
0.939706
0.942623
0.953282
0.967892
0.979124
0.987142
0.992519
0.99587
0.997777
0.998794
0.999246
0.999337
0.999279
0.998052
0.63166
0.69466
0.729185
0.65639
0.500749
0.442589
0.412499
0.372981
0.317842
0.302508
0.302025
0.309382
0.337146
0.385977
0.386224
0.36392
0.389111
0.43535
0.486823
0.678312
0.89949
0.963233
0.981978
0.986739
0.987251
0.985271
0.976755
0.957369
0.930712
0.91799
0.911572
0.907296
0.905216
0.9039
0.902673
0.901251
0.899951
0.898666
0.897273
0.89605
0.894572
0.893186
0.892437
0.892138
0.892411
0.893321
0.895406
0.898383
0.902211
0.906386
0.910662
0.913614
0.915102
0.915731
0.91578
0.914936
0.914245
0.916783
0.926831
0.951258
0.975264
0.987471
0.993937
0.997331
0.998944
0.999636
0.999891
0.999955
0.999953
0.999805
0.998735
0.992414
0.964975
0.929713
0.89251
0.809702
0.749711
0.701587
0.578586
0.441025
0.447554
0.679404
0.842283
0.84275
0.803593
0.765876
0.750209
0.74623
0.750355
0.762017
0.766892
0.766346
0.760197
0.757574
0.758628
0.763846
0.765179
0.764802
0.761964
0.755303
0.744253
0.728887
0.712924
0.702908
0.696677
0.693774
0.692868
0.695792
0.698049
0.702626
0.708318
0.715133
0.722189
0.72941
0.736159
0.742702
0.750266
0.761515
0.785308
0.827046
0.869292
0.906096
0.93506
0.956292
0.970404
0.979951
0.986566
0.991135
0.994213
0.996181
0.997352
0.998014
0.998397
0.998611
0.998731
0.998768
0.998764
0.99874
0.998669
0.998459
0.9982
0.998099
0.998057
0.997932
0.997423
0.995247
0.986753
0.959082
0.880932
0.828907
0.810731
0.81022
0.816535
0.847846
0.898685
0.931668
0.94991
0.959641
0.966166
0.97112
0.973716
0.97424
0.97391
0.971763
0.964468
0.958589
0.956694
0.956665
0.958263
0.964868
0.975743
0.984289
0.990353
0.99438
0.996902
0.99837
0.999149
0.999513
0.999607
0.999443
0.632431
0.694956
0.732933
0.688512
0.521395
0.454255
0.427731
0.392194
0.327589
0.306764
0.30457
0.313822
0.347017
0.388594
0.387022
0.366414
0.389055
0.440101
0.504978
0.726166
0.920308
0.970257
0.983737
0.986598
0.986619
0.982202
0.966219
0.938432
0.918799
0.910663
0.906656
0.904541
0.903508
0.902405
0.900247
0.89731
0.893608
0.890089
0.886364
0.883611
0.881252
0.879931
0.879239
0.878972
0.87905
0.879564
0.880644
0.882488
0.88571
0.89188
0.900753
0.909676
0.914016
0.915697
0.916107
0.914786
0.912464
0.91145
0.913358
0.921514
0.943906
0.971597
0.985608
0.993362
0.997191
0.998925
0.999637
0.999896
0.999965
0.999968
0.99987
0.999034
0.992976
0.95805
0.919429
0.88187
0.799357
0.754872
0.677665
0.510907
0.468822
0.566132
0.805145
0.833729
0.798816
0.757671
0.744195
0.741188
0.748441
0.761451
0.76538
0.764003
0.757761
0.757204
0.761925
0.764469
0.764675
0.761346
0.751423
0.73166
0.708294
0.687413
0.672946
0.658092
0.647087
0.640825
0.638556
0.64618
0.656174
0.671732
0.687089
0.703209
0.717717
0.729468
0.73857
0.745657
0.752217
0.762209
0.782977
0.821441
0.864642
0.9037
0.934771
0.957392
0.972884
0.982646
0.988771
0.99281
0.995489
0.997205
0.998189
0.998695
0.998907
0.998972
0.998966
0.998947
0.998911
0.99884
0.998688
0.998198
0.997343
0.997087
0.997107
0.997288
0.997355
0.997214
0.9961
0.990405
0.968913
0.89791
0.839214
0.81922
0.818675
0.826229
0.861732
0.910554
0.940858
0.956913
0.965258
0.970794
0.975398
0.978379
0.979369
0.979341
0.978641
0.975675
0.972194
0.970995
0.970907
0.971587
0.974982
0.982548
0.988787
0.993183
0.996059
0.997836
0.998872
0.999424
0.999697
0.99973
0.637579
0.68767
0.733654
0.718829
0.552165
0.469446
0.442143
0.420933
0.371808
0.33132
0.321267
0.335066
0.373341
0.393984
0.38955
0.372732
0.39053
0.443758
0.517124
0.753844
0.931708
0.973655
0.98402
0.98604
0.984709
0.976001
0.955711
0.926141
0.912839
0.90723
0.904619
0.903326
0.902245
0.899736
0.894864
0.889225
0.884998
0.881442
0.878816
0.877273
0.876217
0.875675
0.87542
0.875342
0.875482
0.875753
0.876244
0.877031
0.878201
0.880221
0.884646
0.895078
0.909045
0.915185
0.916997
0.917136
0.913423
0.911044
0.911028
0.914038
0.925143
0.951534
0.974524
0.987699
0.994494
0.997735
0.999143
0.999707
0.999917
0.999975
0.999975
0.999873
0.998931
0.991413
0.945485
0.911047
0.853
0.796938
0.742975
0.598917
0.502335
0.52404
0.717905
0.814115
0.798666
0.755497
0.738747
0.736898
0.744827
0.759993
0.763919
0.760193
0.756292
0.756693
0.761976
0.763828
0.761026
0.750034
0.728102
0.697172
0.661345
0.62676
0.591558
0.554417
0.525418
0.512896
0.51217
0.52755
0.552656
0.582157
0.61194
0.644931
0.6783
0.708755
0.729329
0.741818
0.749728
0.759341
0.778849
0.815376
0.857446
0.897954
0.931799
0.956711
0.973488
0.984333
0.991009
0.994866
0.997034
0.998224
0.998826
0.999088
0.999171
0.999171
0.999157
0.999119
0.999032
0.998884
0.998616
0.99792
0.995893
0.99431
0.994008
0.994129
0.994805
0.995862
0.995877
0.995154
0.990438
0.969976
0.901002
0.844502
0.827289
0.82802
0.840176
0.884123
0.926737
0.951777
0.964413
0.971009
0.97553
0.979473
0.982572
0.984249
0.984671
0.984606
0.984097
0.982321
0.981125
0.980904
0.981138
0.982847
0.987756
0.992283
0.995384
0.99737
0.998574
0.999258
0.999643
0.999795
0.64844
0.67576
0.732824
0.742524
0.611999
0.491927
0.45689
0.441642
0.419882
0.391965
0.377497
0.390724
0.405161
0.408666
0.398277
0.387669
0.39725
0.442169
0.529579
0.769734
0.938828
0.975404
0.983816
0.98548
0.983605
0.972823
0.946076
0.918857
0.908688
0.904756
0.903025
0.901924
0.899875
0.894726
0.888552
0.883292
0.879969
0.877302
0.875849
0.874929
0.874474
0.874261
0.874189
0.874207
0.874357
0.874609
0.874935
0.875491
0.876249
0.877206
0.879035
0.883229
0.894884
0.910477
0.917038
0.918661
0.91726
0.912313
0.911118
0.912846
0.920322
0.943489
0.969581
0.98516
0.993251
0.997115
0.998845
0.999569
0.999851
0.999957
0.999985
0.999975
0.999813
0.9983
0.985379
0.933934
0.884591
0.830507
0.788761
0.682416
0.544433
0.531202
0.621444
0.779649
0.791364
0.760065
0.735265
0.732425
0.740017
0.757273
0.762071
0.75834
0.753548
0.75552
0.761204
0.759916
0.745628
0.721738
0.678385
0.623732
0.550357
0.479534
0.413575
0.371379
0.351558
0.345738
0.364986
0.400009
0.451661
0.506911
0.554398
0.590577
0.619949
0.652115
0.693254
0.723993
0.739674
0.752371
0.773543
0.805838
0.84556
0.887386
0.924545
0.953015
0.972259
0.984211
0.99131
0.995406
0.997618
0.998756
0.999294
0.999483
0.999503
0.999491
0.999456
0.999379
0.999194
0.998798
0.998414
0.997672
0.995655
0.992957
0.991035
0.990351
0.990378
0.990822
0.992771
0.993554
0.992862
0.987863
0.964393
0.894539
0.848394
0.837177
0.84087
0.86394
0.911992
0.944521
0.962854
0.971843
0.976514
0.980075
0.983433
0.986314
0.988314
0.989341
0.989615
0.989552
0.988879
0.987701
0.98734
0.987414
0.988424
0.991689
0.994865
0.996982
0.998315
0.999093
0.999548
0.999773
0.669454
0.667637
0.721189
0.754573
0.685127
0.526727
0.473958
0.456228
0.446797
0.435448
0.428297
0.432244
0.434201
0.432167
0.417082
0.403072
0.4065
0.437378
0.528022
0.774065
0.939756
0.97522
0.983291
0.98455
0.981539
0.968288
0.938552
0.915643
0.907076
0.903528
0.901868
0.900639
0.897009
0.891539
0.885222
0.880246
0.877595
0.875612
0.874674
0.874073
0.873801
0.873671
0.873626
0.873689
0.873858
0.874148
0.874452
0.874907
0.875607
0.87635
0.877397
0.879506
0.885073
0.901465
0.914608
0.918886
0.919405
0.916135
0.913489
0.913938
0.919646
0.940913
0.967983
0.984417
0.992931
0.996969
0.998774
0.999535
0.999834
0.999945
0.999984
0.99999
0.999963
0.999625
0.996544
0.972079
0.903997
0.854531
0.822191
0.752453
0.600614
0.54407
0.571396
0.717477
0.776673
0.766054
0.736
0.728511
0.733754
0.752922
0.760228
0.757723
0.752478
0.753539
0.758624
0.755906
0.731639
0.673475
0.589138
0.503841
0.41758
0.348017
0.299193
0.272426
0.260902
0.263041
0.285417
0.330852
0.398962
0.471929
0.536139
0.580054
0.607051
0.627045
0.648421
0.685345
0.718893
0.741581
0.765273
0.793833
0.830849
0.873498
0.914213
0.946739
0.969212
0.983101
0.991074
0.995448
0.997757
0.9989
0.999422
0.999628
0.999683
0.999685
0.99967
0.999605
0.999413
0.998748
0.997763
0.996998
0.995337
0.992789
0.990881
0.98931
0.988126
0.987875
0.988051
0.989388
0.99061
0.989715
0.982865
0.949406
0.884848
0.855255
0.851178
0.860255
0.898396
0.937527
0.96027
0.972299
0.978151
0.981375
0.984145
0.987035
0.989695
0.991673
0.992792
0.99317
0.993156
0.992694
0.991768
0.991477
0.991526
0.992275
0.99462
0.996741
0.998129
0.998972
0.999466
0.999735
0.682246
0.662446
0.687499
0.759611
0.743352
0.586446
0.500302
0.470118
0.460512
0.455848
0.453004
0.454084
0.453824
0.45042
0.435936
0.416866
0.413899
0.433705
0.519809
0.76814
0.935894
0.974093
0.982042
0.983037
0.979628
0.965369
0.934398
0.913661
0.905268
0.902144
0.900959
0.899228
0.89543
0.889432
0.883447
0.879089
0.876633
0.874988
0.874147
0.873663
0.87344
0.873352
0.873343
0.873389
0.873511
0.873846
0.874269
0.874687
0.875376
0.876153
0.877029
0.878486
0.881957
0.893143
0.909887
0.918356
0.920194
0.919692
0.91768
0.918361
0.923573
0.943263
0.970435
0.986501
0.994187
0.997555
0.998989
0.999596
0.999847
0.999946
0.999984
0.999995
0.999991
0.999913
0.999075
0.991653
0.938019
0.869277
0.842207
0.797982
0.665452
0.566003
0.564881
0.639884
0.751301
0.760276
0.740093
0.725901
0.727706
0.745385
0.757644
0.757022
0.751237
0.751156
0.754236
0.746947
0.697701
0.603379
0.516419
0.420079
0.336717
0.278498
0.243116
0.224538
0.216629
0.217855
0.229133
0.257476
0.325445
0.432737
0.527165
0.579996
0.608166
0.625331
0.639257
0.654268
0.688811
0.727299
0.755667
0.781954
0.815984
0.858651
0.90259
0.939394
0.965447
0.981555
0.990638
0.995417
0.997822
0.998974
0.999488
0.999692
0.999754
0.999758
0.999738
0.999664
0.999474
0.998928
0.997351
0.996066
0.995044
0.993016
0.990597
0.989361
0.988459
0.987101
0.986364
0.98642
0.987342
0.987881
0.986235
0.974578
0.926529
0.879019
0.865518
0.86771
0.890569
0.932428
0.958074
0.972182
0.979515
0.983125
0.985384
0.98768
0.990218
0.992561
0.994264
0.995175
0.995447
0.995415
0.994992
0.994399
0.994257
0.994327
0.994991
0.996715
0.998057
0.998906
0.999415
0.999702
0.683827
0.656142
0.669704
0.759964
0.770146
0.678413
0.548974
0.492466
0.471861
0.465144
0.462883
0.462871
0.462532
0.459045
0.446386
0.425605
0.418798
0.433051
0.506164
0.753647
0.926504
0.971109
0.980379
0.981513
0.978727
0.965122
0.934312
0.914271
0.905189
0.901369
0.899649
0.897857
0.894564
0.889696
0.883926
0.879539
0.876929
0.87522
0.87428
0.873744
0.873475
0.873347
0.873302
0.873316
0.873399
0.87368
0.874222
0.874658
0.875319
0.876257
0.877096
0.878349
0.881172
0.889562
0.907143
0.917812
0.921139
0.921454
0.921719
0.923437
0.931862
0.958483
0.981426
0.992433
0.997131
0.99895
0.999614
0.999853
0.999943
0.999976
0.999991
0.999998
0.999998
0.999981
0.999752
0.997455
0.976672
0.89005
0.845385
0.817898
0.736643
0.603449
0.570787
0.594321
0.700502
0.74723
0.742347
0.725286
0.723329
0.73426
0.753479
0.755667
0.751646
0.747534
0.747801
0.739528
0.691257
0.564239
0.451866
0.356771
0.285114
0.240206
0.216453
0.205505
0.202575
0.204313
0.212299
0.233516
0.286144
0.407112
0.523049
0.60044
0.631275
0.638087
0.642523
0.649184
0.664392
0.708781
0.745304
0.771616
0.803545
0.845957
0.892307
0.932827
0.962106
0.980356
0.990395
0.995486
0.997966
0.999102
0.999581
0.999757
0.999796
0.999791
0.999758
0.999664
0.999446
0.998934
0.997392
0.995365
0.99416
0.992886
0.990902
0.989191
0.988416
0.987706
0.986289
0.985328
0.985334
0.98586
0.985618
0.981637
0.958619
0.904996
0.881186
0.879383
0.891069
0.929104
0.957289
0.972395
0.980643
0.98492
0.987091
0.988771
0.990751
0.992931
0.994842
0.996136
0.99676
0.996909
0.996858
0.996523
0.996248
0.996217
0.996315
0.996938
0.998103
0.998908
0.999403
0.999688
0.678348
0.651474
0.666719
0.754094
0.784895
0.734053
0.62724
0.543186
0.491711
0.475606
0.469239
0.466814
0.465293
0.460409
0.447846
0.42889
0.422491
0.434235
0.502713
0.742823
0.914617
0.966226
0.978702
0.980074
0.977335
0.963238
0.935013
0.915811
0.905802
0.901074
0.899032
0.89761
0.894793
0.890561
0.885306
0.88089
0.877946
0.876017
0.874837
0.874148
0.873763
0.873535
0.8735
0.873537
0.873661
0.873946
0.874693
0.875317
0.875875
0.877032
0.878227
0.879457
0.881838
0.888899
0.906288
0.917959
0.922118
0.923062
0.923957
0.926919
0.938676
0.967271
0.98529
0.99414
0.997906
0.999308
0.999779
0.999929
0.999976
0.999992
0.999997
0.999999
0.999999
0.999996
0.999936
0.999216
0.991902
0.930888
0.848346
0.822611
0.776917
0.65852
0.587823
0.589321
0.643143
0.72488
0.737313
0.727138
0.720215
0.724493
0.744623
0.753404
0.752115
0.747289
0.744192
0.736315
0.696507
0.573208
0.452171
0.354373
0.283357
0.23943
0.215498
0.204134
0.20158
0.202949
0.209945
0.230002
0.280616
0.401198
0.541712
0.631008
0.660325
0.661796
0.655237
0.652415
0.65744
0.689178
0.735904
0.764925
0.795452
0.837718
0.885729
0.929018
0.960421
0.979846
0.990389
0.995712
0.998181
0.999255
0.999671
0.999795
0.99981
0.999798
0.999734
0.999546
0.999101
0.998402
0.99692
0.994852
0.993165
0.992001
0.990654
0.989184
0.9883
0.987884
0.987085
0.98558
0.984712
0.984655
0.98463
0.983223
0.97287
0.931361
0.897811
0.891652
0.897431
0.927719
0.957682
0.973623
0.982044
0.986588
0.988895
0.990225
0.991601
0.993327
0.995113
0.996552
0.997438
0.997814
0.997883
0.997835
0.997663
0.997602
0.997616
0.997757
0.998326
0.998997
0.999436
0.999698
0.669631
0.650734
0.671221
0.757302
0.795687
0.771751
0.690005
0.622186
0.543858
0.496223
0.479735
0.472151
0.467087
0.459905
0.447272
0.431529
0.427281
0.438818
0.506798
0.742473
0.904465
0.959485
0.975515
0.977707
0.975554
0.963583
0.936695
0.917986
0.907032
0.901452
0.898639
0.897266
0.895312
0.892052
0.887793
0.883478
0.880048
0.87767
0.876066
0.875109
0.874545
0.874159
0.874123
0.874189
0.874379
0.874773
0.875591
0.876324
0.876831
0.877915
0.879395
0.880993
0.884183
0.893257
0.911067
0.921236
0.924339
0.924943
0.925739
0.929341
0.945913
0.971346
0.987069
0.99494
0.998255
0.999456
0.999841
0.999954
0.999986
0.999996
0.999999
1
1
0.999999
0.999983
0.999741
0.997019
0.968038
0.864582
0.821645
0.789764
0.701902
0.61405
0.594153
0.613206
0.689839
0.726275
0.725451
0.717957
0.718569
0.732754
0.749375
0.751206
0.747826
0.744058
0.736546
0.709106
0.603166
0.469401
0.366651
0.293082
0.247355
0.22115
0.208582
0.207647