/*--------------------------------*- C++ -*----------------------------------*\
  =========                 |
  \\      /  F ield         | OpenFOAM: The Open Source CFD Toolbox
   \\    /   O peration     | Website:  https://openfoam.org
    \\  /    A nd           | Version:  7
     \\/     M anipulation  |
\*---------------------------------------------------------------------------*/
FoamFile
{
    version     2.0;
    format      ascii;
    class       volScalarField;
    location    "0.1";
    object      s_0;
}
// * * * * * * * * * * * * * * * * * * * * * * * * * * * * * * * * * * * * * //

dimensions      [0 0 0 0 0 0 0];

internalField   nonuniform List<scalar> 
12225
(
1
1
1
1
1
1
1
1
1
1
1
1
1
1
1
1
1
1
1
1
1
1
1
1
1
1
1
1
1
1
1
1
1
1
1
1
1
1
1
1
1
1
1
1
1
1
1
1
1
1
1
1
1
1
1
1
1
1
1
1
1
1
1
1
1
1
1
1
1
1
1
1
1
1
1
1
1
1
1
1
1
1
1
1
1
1
1
1
1
1
1
1
1
1
1
1
1
1
1
1
1
1
1
1
1
1
1
1
1
1
1
1
1
1
1
1
1
1
1
1
1
1
1
1
1
1
1
1
1
1
1
1
1
1
1
1
1
1
1
1
1
1
1
1
1
1
1
1
1
1
1
1
1
1
1
1
1
1
1
1
1
1
1
1
1
1
1
1
1
1
1
1
1
1
1
1
1
1
1
1
1
1
1
1
1
1
1
1
1
1
1
1
1
1
1
1
1
1
1
1
1
1
1
1
1
1
1
1
1
1
1
1
1
1
1
1
1
1
1
1
1
1
1
1
1
1
1
1
1
1
1
1
1
1
1
1
1
1
1
1
1
1
1
1
1
1
1
1
1
1
1
1
1
1
1
1
1
1
1
1
1
1
1
1
1
1
1
1
1
1
1
1
1
1
1
1
1
1
1
1
1
1
1
1
1
1
1
1
1
1
1
1
1
1
1
1
1
1
1
1
1
1
1
1
1
1
1
1
1
1
1
1
1
1
1
1
1
1
1
1
1
1
1
1
1
1
1
1
1
1
1
1
1
1
1
1
1
1
1
1
1
1
1
1
1
1
1
1
1
1
1
1
1
1
1
1
1
1
1
1
1
1
1
1
1
1
1
1
1
1
1
1
1
1
1
1
1
1
1
1
1
1
1
1
1
1
1
1
1
1
1
1
1
1
1
1
1
1
1
1
1
1
1
1
1
1
1
1
1
1
1
1
1
1
1
1
1
1
1
1
1
1
1
1
1
1
1
1
1
1
1
1
1
1
1
1
1
1
1
1
1
1
1
1
1
1
1
1
1
1
1
1
1
1
1
1
1
1
1
1
1
1
1
1
1
1
1
1
1
1
1
1
1
1
1
1
1
1
1
1
1
1
1
1
1
1
1
1
1
1
1
1
1
1
1
1
1
1
1
1
1
1
1
1
1
1
1
1
1
1
1
1
1
1
1
1
1
1
1
1
1
1
1
1
1
1
1
1
1
1
1
1
1
1
1
1
1
1
1
1
0.184005
0.310337
0.413303
0.446178
0.455971
0.455749
0.441127
0.408033
0.322137
0.24576
0.218423
0.268927
0.362703
0.399879
0.415426
0.420094
0.420866
0.420458
0.417635
0.408878
0.389787
0.347411
0.287194
0.272822
0.282332
0.341327
0.480227
0.632923
0.69272
0.722419
0.757426
0.78129
0.792474
0.809923
0.828628
0.835968
0.839139
0.839986
0.839951
0.838996
0.836203
0.83089
0.823111
0.813871
0.803961
0.793129
0.781052
0.768815
0.7574
0.747314
0.73888
0.733029
0.729085
0.726607
0.723828
0.71893
0.711699
0.704423
0.699882
0.69681
0.69178
0.687937
0.6843
0.680995
0.678847
0.677958
0.678398
0.678888
0.676552
0.645915
0.496328
0.385856
0.337982
0.348281
0.365829
0.332985
0.319307
0.338218
0.444672
0.526859
0.52843
0.511982
0.461281
0.429112
0.427548
0.466835
0.60633
0.741759
0.830527
0.873179
0.880424
0.875715
0.870364
0.865192
0.860995
0.857428
0.85403
0.850853
0.848118
0.845674
0.843184
0.840842
0.838656
0.836562
0.834683
0.832949
0.831287
0.830123
0.829135
0.828417
0.828104
0.827979
0.827963
0.82829
0.829084
0.829915
0.830826
0.831993
0.832869
0.834046
0.835634
0.837995
0.84072
0.844288
0.848258
0.852531
0.857556
0.86304
0.868896
0.875029
0.881258
0.886926
0.891598
0.895146
0.898073
0.900583
0.902533
0.903712
0.904057
0.903808
0.901951
0.898503
0.896321
0.894256
0.890154
0.878536
0.856338
0.841115
0.830646
0.813086
0.770197
0.632226
0.380228
0.185536
0.0742554
0.0249982
0.00734782
0.00196291
0.000498825
0.000139794
0.000108204
0.000144505
0.000113729
5.6843e-05
1.70963e-05
3.70556e-06
1.67712e-06
9.45923e-07
5.43104e-07
3.12418e-07
1.78253e-07
1.00108e-07
5.49797e-08
2.94169e-08
1.52601e-08
7.65475e-09
3.70382e-09
1.68534e-09
8.0329e-10
3.26781e-11
0.189276
0.363159
0.539724
0.571225
0.579276
0.5795
0.576354
0.557645
0.537213
0.489131
0.438208
0.331742
0.321188
0.352684
0.419392
0.429286
0.429783
0.424909
0.402102
0.349534
0.313833
0.309277
0.317331
0.361114
0.457482
0.599225
0.704391
0.757153
0.805166
0.846057
0.872647
0.897509
0.910124
0.923077
0.928782
0.930671
0.930939
0.928587
0.921301
0.913171
0.904111
0.890385
0.87637
0.863176
0.84993
0.841117
0.83292
0.826656
0.824684
0.82442
0.824903
0.825408
0.824841
0.823051
0.818598
0.811245
0.801141
0.788765
0.774862
0.761115
0.747687
0.733761
0.71933
0.704208
0.691641
0.68358
0.681093
0.682296
0.681105
0.667787
0.587603
0.446593
0.367052
0.353266
0.358213
0.333727
0.296905
0.314489
0.454361
0.705432
0.75221
0.740581
0.656909
0.503029
0.454933
0.460658
0.528818
0.760562
0.867908
0.876786
0.871574
0.857567
0.838891
0.819283
0.808222
0.798074
0.792913
0.788085
0.785769
0.784232
0.783585
0.783387
0.783768
0.785071
0.786031
0.787237
0.7888
0.790625
0.791742
0.793731
0.795281
0.79735
0.799912
0.802725
0.805964
0.809577
0.812699
0.814985
0.81595
0.814576
0.810844
0.806989
0.803773
0.800709
0.797641
0.794903
0.792756
0.791515
0.7913
0.792076
0.794182
0.798509
0.805525
0.815195
0.826809
0.839968
0.854383
0.870051
0.885278
0.89836
0.909183
0.91683
0.922253
0.927586
0.931514
0.932332
0.931903
0.930268
0.925702
0.918886
0.908138
0.883936
0.819431
0.736665
0.665181
0.587038
0.513379
0.474603
0.468343
0.471324
0.479928
0.480525
0.470314
0.415495
0.309898
0.226411
0.162141
0.11299
0.0761555
0.0495551
0.0310354
0.01875
0.0108819
0.00610657
0.00328101
0.00170683
0.000853341
0.000386011
0.000230264
-0.000128766
0.192345
0.446347
0.557715
0.593511
0.606486
0.609604
0.602136
0.582984
0.561606
0.530157
0.500348
0.466162
0.387566
0.355105
0.377075
0.429207
0.434807
0.421756
0.37481
0.344455
0.340264
0.371736
0.474074
0.648391
0.778604
0.833518
0.8736
0.907613
0.935792
0.950287
0.961499
0.967757
0.970508
0.971668
0.971876
0.971136
0.970096
0.96977
0.96959
0.969695
0.970133
0.97066
0.97139
0.972311
0.972964
0.973367
0.973738
0.974165
0.974587
0.974917
0.975205
0.975238
0.974676
0.973731
0.97185
0.968602
0.963698
0.957187
0.948469
0.937328
0.922259
0.899778
0.868618
0.829483
0.784345
0.745659
0.716309
0.696211
0.684514
0.674856
0.647864
0.560868
0.435338
0.375114
0.364745
0.349755
0.308829
0.310493
0.43991
0.745297
0.820354
0.808954
0.735289
0.565262
0.511233
0.533815
0.7281
0.860869
0.870459
0.860866
0.826379
0.798428
0.783167
0.777394
0.775696
0.77557
0.778263
0.779756
0.782984
0.784549
0.787786
0.789952
0.790942
0.791858
0.792247
0.792304
0.792006
0.791753
0.791649
0.791901
0.793193
0.794868
0.798454
0.803506
0.810066
0.818667
0.827979
0.837297
0.847504
0.859078
0.867632
0.871617
0.870232
0.865618
0.858177
0.848353
0.836475
0.823199
0.81028
0.799463
0.790233
0.782019
0.775424
0.770874
0.768385
0.767652
0.768142
0.77089
0.778155
0.793097
0.816084
0.844552
0.872315
0.89446
0.909701
0.919606
0.927058
0.933852
0.938671
0.940394
0.940305
0.938786
0.933145
0.91719
0.885765
0.852245
0.830566
0.825427
0.826374
0.830885
0.846164
0.863925
0.871465
0.872238
0.868653
0.852314
0.83759
0.823095
0.7928
0.712124
0.567817
0.428996
0.31028
0.220086
0.149989
0.100427
0.0638581
0.0393128
0.0239511
0.0111263
0.255751
0.492974
0.591141
0.629243
0.636702
0.629054
0.606502
0.577831
0.538626
0.494226
0.477571
0.461559
0.434847
0.376997
0.363756
0.405887
0.433456
0.416989
0.376894
0.368714
0.404872
0.530085
0.722799
0.842436
0.89948
0.932112
0.949531
0.968414
0.977535
0.982076
0.984957
0.986273
0.986905
0.987229
0.987472
0.987743
0.98818
0.988866
0.989475
0.990078
0.990748
0.991279
0.991801
0.992218
0.992465
0.99301
0.993495
0.994049
0.994664
0.995129
0.995529
0.996002
0.996236
0.99667
0.996896
0.996992
0.996595
0.996022
0.994878
0.993074
0.990197
0.985472
0.977421
0.963143
0.936894
0.885168
0.813969
0.753456
0.710828
0.688422
0.670367
0.631645
0.523369
0.418842
0.381908
0.361485
0.312125
0.302351
0.401624
0.744088
0.843154
0.823082
0.744347
0.676136
0.678994
0.77554
0.84973
0.863398
0.852249
0.805959
0.781698
0.772872
0.770624
0.773716
0.776617
0.782008
0.784833
0.788032
0.789343
0.789761
0.789716
0.787666
0.78403
0.779163
0.772772
0.765696
0.759419
0.753849
0.748985
0.745451
0.743855
0.74339
0.745997
0.755099
0.768182
0.787563
0.810148
0.830069
0.847703
0.863236
0.880072
0.895759
0.906878
0.915096
0.920838
0.92309
0.923655
0.921969
0.915482
0.905348
0.891147
0.872377
0.851006
0.829543
0.80991
0.793571
0.780405
0.77057
0.764044
0.760766
0.760139
0.761316
0.768778
0.795671
0.836788
0.87339
0.901466
0.918453
0.927019
0.933226
0.940042
0.945395
0.946899
0.946435
0.943684
0.933001
0.909802
0.897019
0.893715
0.893822
0.895891
0.905033
0.926942
0.944569
0.955074
0.959837
0.961167
0.961098
0.959138
0.950152
0.938336
0.926199
0.901606
0.841057
0.683011
0.503434
0.35017
0.233747
0.156157
0.085471
0.538982
0.620425
0.656886
0.660896
0.651557
0.624298
0.557788
0.487996
0.447051
0.411975
0.408358
0.416989
0.423192
0.404622
0.366333
0.376461
0.427404
0.415164
0.390927
0.408451
0.514504
0.706083
0.854925
0.921392
0.955864
0.971605
0.979792
0.985095
0.987078
0.987732
0.987878
0.98766
0.987307
0.986932
0.986369
0.985756
0.985122
0.984566
0.983989
0.983538
0.983271
0.983153
0.983143
0.98361
0.984284
0.985587
0.986609
0.988605
0.990048
0.99163
0.992724
0.994379
0.995228
0.996636
0.997454
0.998312
0.998708
0.999027
0.999119
0.999144
0.998887
0.998288
0.996961
0.994188
0.988187
0.974815
0.944393
0.873577
0.78555
0.726549
0.693987
0.667958
0.613847
0.488804
0.418607
0.378447
0.319771
0.297008
0.325766
0.662134
0.848239
0.847433
0.819201
0.803113
0.820998
0.847422
0.854631
0.844966
0.797711
0.774466
0.767707
0.76692
0.771272
0.777294
0.780153
0.782078
0.782753
0.782308
0.776633
0.767967
0.758503
0.748716
0.738403
0.729984
0.723362
0.71831
0.713793
0.710428
0.707594
0.705135
0.70391
0.703592
0.704294
0.70873
0.718621
0.735866
0.763293
0.801115
0.835025
0.858319
0.879975
0.899277
0.916201
0.929644
0.94037
0.947773
0.953649
0.957577
0.958675
0.958245
0.95619
0.951771
0.945518
0.936568
0.922979
0.903714
0.880151
0.854187
0.827978
0.804034
0.783166
0.769567
0.763886
0.763373
0.765174
0.774777
0.810682
0.859934
0.894794
0.917621
0.930792
0.938616
0.944963
0.949593
0.950946
0.950631
0.948362
0.938618
0.920134
0.910626
0.908428
0.908989
0.913635
0.929674
0.947829
0.962626
0.973955
0.981179
0.984572
0.985466
0.985469
0.985033
0.983385
0.978769
0.967131
0.94011
0.869705
0.67625
0.491213
0.29448
0.640803
0.660488
0.677776
0.671851
0.637426
0.539385
0.465271
0.424988
0.40006
0.372288
0.365158
0.37048
0.398256
0.401071
0.375981
0.365007
0.411015
0.418623
0.413884
0.465901
0.620081
0.827589
0.919128
0.960569
0.978139
0.984612
0.987026
0.987737
0.987739
0.986946
0.985623
0.98329
0.980174
0.976044
0.971119
0.96566
0.960322
0.955203
0.951927
0.948514
0.946842
0.946
0.945791
0.947015
0.948777
0.952239
0.955866
0.96099
0.965695
0.971131
0.975309
0.979682
0.98366
0.987679
0.991509
0.994778
0.996777
0.998453
0.999127
0.999453
0.999601
0.999647
0.999587
0.99926
0.998285
0.995658
0.988636
0.970172
0.923408
0.831665
0.753705
0.709358
0.676426
0.603354
0.499603
0.421405
0.344216
0.30489
0.311182
0.518076
0.839542
0.859026
0.852048
0.848084
0.850641
0.850705
0.841029
0.79371
0.770577
0.764259
0.764096
0.768206
0.774435
0.776924
0.777598
0.77432
0.763775
0.754365
0.744117
0.738995
0.732957
0.727893
0.723623
0.718637
0.715006
0.710486
0.706287
0.701946
0.69856
0.696397
0.695398
0.695211
0.69563
0.698191
0.704724
0.716714
0.737048
0.769957
0.815794
0.845258
0.87502
0.89866
0.918446
0.934618
0.947784
0.958234
0.966458
0.972712
0.977074
0.979593
0.980472
0.980386
0.979466
0.977393
0.9742
0.969573
0.962869
0.952854
0.936862
0.913353
0.883223
0.846505
0.811288
0.78615
0.774495
0.772849
0.77447
0.783055
0.817002
0.870034
0.904866
0.925335
0.937574
0.945744
0.95179
0.954911
0.955389
0.954687
0.950425
0.9348
0.919963
0.913908
0.912986
0.913902
0.920041
0.940162
0.95998
0.973397
0.982483
0.988612
0.992275
0.993944
0.994328
0.99425
0.993598
0.99119
0.983627
0.962051
0.906785
0.70871
0.64188
0.672075
0.693411
0.674725
0.5741
0.473268
0.427414
0.397475
0.371958
0.345592
0.337559
0.342037
0.365936
0.39208
0.379172
0.362056
0.400072
0.420507
0.426574
0.515998
0.731222
0.892311
0.952888
0.977377
0.985576
0.987566
0.98782
0.987126
0.985088
0.980405
0.972714
0.960861
0.9504
0.939774
0.931525
0.925415
0.919771
0.916818
0.913464
0.911853
0.910769
0.910387
0.910366
0.911628
0.913276
0.915593
0.918499
0.922078
0.926466
0.931561
0.937911
0.945529
0.95398
0.963454
0.973252
0.980557
0.98811
0.99393
0.996846
0.998487
0.999271
0.999634
0.999773
0.999813
0.999761
0.999418
0.99819
0.994265
0.982694
0.952348
0.881377
0.797327
0.73842
0.69566
0.64583
0.536421
0.415223
0.336398
0.319432
0.387765
0.773144
0.861286
0.858763
0.855024
0.851064
0.84078
0.79733
0.769653
0.761277
0.759527
0.765326
0.771437
0.773511
0.773499
0.765339
0.756145
0.751133
0.746836
0.742926
0.740414
0.737827
0.735957
0.733208
0.728085
0.721711
0.713433
0.706813
0.7002
0.696711
0.694583
0.693902
0.693827
0.694305
0.696459
0.70183
0.711698
0.728445
0.756905
0.801039
0.839464
0.87234
0.898276
0.919592
0.936838
0.950764
0.962162
0.971178
0.97816
0.983407
0.987245
0.989917
0.991631
0.992522
0.992719
0.992513
0.991565
0.989978
0.987362
0.983946
0.979192
0.970366
0.952725
0.918611
0.86927
0.823846
0.794647
0.783493
0.783109
0.786452
0.801652
0.848496
0.893969
0.921737
0.937649
0.947518
0.954468
0.958665
0.959833
0.95959
0.957095
0.945277
0.927434
0.918909
0.916947
0.917352
0.920895
0.935403
0.956757
0.972501
0.983016
0.989665
0.993784
0.996202
0.997317
0.997573
0.997501
0.996908
0.994503
0.986458
0.94392
0.638812
0.68555
0.709551
0.664595
0.525056
0.446206
0.41251
0.382344
0.34636
0.321849
0.316351
0.320285
0.339393
0.384302
0.382993
0.361789
0.392472
0.425225
0.451302
0.57272
0.811821
0.929617
0.969907
0.983925
0.987431
0.98778
0.986956
0.983498
0.975349
0.959435
0.940569
0.931011
0.921152
0.916165
0.910765
0.908154
0.905554
0.904335
0.903262
0.902829
0.902664
0.902661
0.903129
0.904044
0.905012
0.90638
0.908198
0.910259
0.912722
0.915233
0.917761
0.920307
0.923539
0.928344
0.936497
0.948888
0.965145
0.978739
0.988709
0.994365
0.997239
0.998729
0.999459
0.999774
0.999873
0.99989
0.999779
0.999182
0.996816
0.988757
0.966228
0.919833
0.856973
0.780755
0.719467
0.674696
0.585496
0.430531
0.353683
0.359813
0.60695
0.846645
0.859515
0.854412
0.844148
0.807628
0.771265
0.757945
0.755192
0.759855
0.768057
0.770781
0.770833
0.763252
0.756666
0.753973
0.752723
0.75288
0.754575
0.755666
0.755569
0.750266
0.743202
0.735217
0.725231
0.716342
0.707689
0.701622
0.697802
0.696285
0.695869
0.696161
0.696971
0.698984
0.703502
0.711981
0.727087
0.75281
0.793413
0.835166
0.871836
0.90237
0.925377
0.942771
0.956348
0.966935
0.975192
0.981555
0.986435
0.990138
0.992857
0.994723
0.995937
0.996734
0.997179
0.997289
0.997261
0.997092
0.996524
0.995546
0.994393
0.992117
0.986829
0.974155
0.937422
0.867832
0.820403
0.796846
0.791904
0.793458
0.803406
0.841109
0.889741
0.921401
0.939646
0.950469
0.957844
0.962627
0.964331
0.964324
0.962832
0.955069
0.93707
0.927247
0.924746
0.925201
0.92887
0.942482
0.960691
0.974574
0.984468
0.990958
0.994865
0.997112
0.998309
0.99876
0.9988
0.998632
0.99769
0.989901
0.63313
0.691815
0.722863
0.65726
0.504957
0.438583
0.408389
0.375179
0.327052
0.306108
0.30422
0.309575
0.334162
0.384572
0.385597
0.362418
0.389656
0.430404
0.466996
0.627695
0.865951
0.951082
0.978083
0.986113
0.98751
0.987236
0.98386
0.973982
0.953586
0.931823
0.921524
0.914153
0.909473
0.906857
0.904628
0.903281
0.902323
0.901687
0.901071
0.900777
0.900641
0.900619
0.900858
0.901424
0.902013
0.903034
0.904589
0.906378
0.9086
0.910939
0.913193
0.915139
0.916386
0.917213
0.918447
0.920903
0.927323
0.943746
0.965853
0.982184
0.991012
0.995596
0.998003
0.999186
0.999705
0.999892
0.999936
0.999909
0.99962
0.998091
0.991495
0.969882
0.93239
0.888668
0.807558
0.738462
0.69456
0.606957
0.436775
0.387619
0.472806
0.794284
0.857071
0.850669
0.822691
0.779801
0.758248
0.752179
0.751582
0.761541
0.767764
0.76883
0.764083
0.758087
0.756714
0.757209
0.761798
0.763685
0.763497
0.760518
0.75549
0.747652
0.738043
0.728293
0.719054
0.711966
0.706232
0.703098
0.702302
0.702988
0.705387
0.708399
0.711032
0.713731
0.717718
0.724487
0.735645
0.753499
0.788404
0.83143
0.871988
0.906365
0.933127
0.952162
0.965813
0.975684
0.982741
0.987718
0.99112
0.993423
0.995096
0.996369
0.99732
0.997932
0.998275
0.99843
0.998468
0.998465
0.998432
0.998287
0.99805
0.997825
0.997295
0.995703
0.99054
0.975687
0.92649
0.851719
0.813201
0.801218
0.801665
0.80904
0.841347
0.891363
0.924787
0.943838
0.95458
0.961812
0.966834
0.968994
0.969203
0.968406
0.964063
0.95115
0.942188
0.939494
0.939724
0.942694
0.953464
0.968046
0.979237
0.98722
0.992569
0.995899
0.997794
0.998803
0.999249
0.999338
0.999278
0.998039
0.631654
0.694706
0.729098
0.656024
0.50053
0.442487
0.412431
0.372959
0.317838
0.302498
0.302011
0.309364
0.33717
0.386028
0.38629
0.36393
0.388973
0.435209
0.486387
0.67733
0.899084
0.963089
0.981925
0.98673
0.987256
0.985298
0.976809
0.957452
0.93074
0.917984
0.911552
0.907282
0.905207
0.903898
0.902678
0.901248
0.899943
0.898654
0.897256
0.896031
0.894554
0.893174
0.892431
0.892137
0.892434
0.893348
0.895436
0.898417
0.902232
0.906394
0.910658
0.913598
0.915094
0.91573
0.915785
0.914963
0.9143
0.9169
0.927106
0.951763
0.975567
0.987646
0.994035
0.99738
0.998967
0.999645
0.999893
0.999956
0.999953
0.999798
0.998694
0.992178
0.964259
0.929055
0.891613
0.808354
0.748832
0.700556
0.576893
0.440328
0.447679
0.681493
0.84253
0.842587
0.803206
0.765587
0.750035
0.746087
0.750293
0.761992
0.766861
0.766315
0.760165
0.757562
0.758649
0.763877
0.765206
0.764832
0.761996
0.755324
0.74425
0.728869
0.712904
0.702889
0.696698
0.693835
0.692957
0.69592
0.698191
0.702713
0.708361
0.715127
0.722146
0.729342
0.73603
0.742558
0.750157
0.761451
0.78535
0.827188
0.869461
0.906248
0.935197
0.956365
0.970426
0.979972
0.986582
0.991147
0.994222
0.996184
0.997352
0.998011
0.998395
0.99861
0.99873
0.998767
0.998763
0.998738
0.998666
0.998453
0.998196
0.998098
0.998055
0.997928
0.997406
0.995179
0.986505
0.958181
0.879523
0.828335
0.810619
0.810228
0.816758
0.848713
0.899368
0.93208
0.950135
0.95977
0.966256
0.971179
0.973744
0.974251
0.973911
0.971726
0.964382
0.958556
0.956694
0.956677
0.958308
0.964994
0.975859
0.984375
0.990412
0.994417
0.996924
0.998382
0.999155
0.999515
0.999607
0.999442
0.632385
0.695017
0.73292
0.688147
0.521184
0.454182
0.427699
0.392276
0.327717
0.306826
0.304611
0.313897
0.347176
0.388679
0.387101
0.36647
0.388945
0.439976
0.504589
0.72552
0.920088
0.970181
0.983703
0.986589
0.986621
0.982226
0.966287
0.938457
0.918796
0.910649
0.90664
0.904531
0.903501
0.902404
0.900246
0.897298
0.893579
0.890058
0.886333
0.883585
0.881241
0.879925
0.879239
0.878975
0.879062
0.87958
0.880668
0.882523
0.885764
0.89194
0.900811
0.909698
0.914017
0.915688
0.916094
0.914786
0.912479
0.911458
0.913411
0.921682
0.944408
0.971927
0.985798
0.993462
0.99724
0.998946
0.999645
0.999899
0.999965
0.999968
0.999866
0.999
0.992733
0.957145
0.918795
0.880856
0.798249
0.753887
0.676082
0.509795
0.468932
0.567792
0.805881
0.833575
0.798398
0.757395
0.744011
0.741061
0.748392
0.761429
0.765346
0.763946
0.757724
0.757184
0.761928
0.764471
0.764674
0.76131
0.751317
0.731474
0.708045
0.687149
0.672713
0.657974
0.647102
0.641005
0.638877
0.64665
0.656711
0.672267
0.687593
0.70361
0.71798
0.729587
0.738619
0.745675
0.752235
0.762249
0.783105
0.821697
0.864954
0.903989
0.934994
0.957559
0.972978
0.982672
0.988778
0.992816
0.995497
0.997211
0.998192
0.998694
0.998906
0.998969
0.998964
0.998945
0.998908
0.998836
0.998682
0.998179
0.997333
0.997087
0.997108
0.997292
0.997355
0.997209
0.996062
0.990222
0.968251
0.896415
0.838576
0.81909
0.818692
0.826508
0.862647
0.911217
0.94124
0.957113
0.965371
0.970874
0.975458
0.978413
0.979383
0.97935
0.978636
0.975638
0.972177
0.970996
0.970914
0.97161
0.975058
0.982635
0.988849
0.993226
0.996086
0.997852
0.998881
0.999428
0.999699
0.999731
0.637445
0.687798
0.733671
0.718617
0.551923
0.469383
0.442138
0.421016
0.372144
0.331674
0.321553
0.335511
0.37378
0.394161
0.389688
0.372948
0.390537
0.443666
0.51695
0.753443
0.931616
0.973618
0.983994
0.986023
0.984702
0.976013
0.955717
0.926118
0.912814
0.907208
0.904602
0.903314
0.902235
0.899723
0.894847
0.889196
0.884968
0.881418
0.878799
0.87726
0.876212
0.875672
0.875418
0.875341
0.875483
0.875756
0.87625
0.87704
0.878217
0.880248
0.884697
0.895186
0.909098
0.915197
0.916992
0.917092
0.9134
0.911029
0.91102
0.914059
0.925278
0.951793
0.974692
0.987798
0.99455
0.997764
0.999157
0.999713
0.999919
0.999975
0.999975
0.999868
0.99889
0.991102
0.944422
0.910273
0.851966
0.796009
0.741774
0.597317
0.501971
0.524465
0.719282
0.814117
0.798333
0.755136
0.738548
0.736771
0.744797
0.759977
0.763884
0.760117
0.756242
0.756669
0.761965
0.763811
0.760946
0.749825
0.727742
0.696734
0.660799
0.62617
0.590993
0.554121
0.525491
0.513131
0.512763
0.528313
0.553482
0.583023
0.612895
0.645988
0.679363
0.709458
0.729752
0.742039
0.749876
0.759496
0.779079
0.815773
0.857946
0.898436
0.932178
0.956968
0.973656
0.984444
0.991067
0.99489
0.997042
0.998224
0.998824
0.999085
0.999168
0.999168
0.999154
0.999116
0.999027
0.998879
0.998605
0.997889
0.995835
0.994288
0.994006
0.994131
0.994825
0.995868
0.995875
0.995126
0.990275
0.969325
0.899538
0.843915
0.827196
0.828077
0.840628
0.885064
0.927317
0.952094
0.964575
0.971103
0.975598
0.979529
0.982611
0.98427
0.984682
0.984614
0.984094
0.982306
0.981123
0.980907
0.981149
0.982887
0.987822
0.992328
0.995413
0.997388
0.998585
0.999264
0.999646
0.999796
0.64819
0.675878
0.732889
0.742433
0.611677
0.491864
0.456893
0.441693
0.420079
0.39244
0.378114
0.391403
0.405658
0.409095
0.398626
0.388018
0.397461
0.442102
0.529635
0.769732
0.938831
0.97539
0.98379
0.985459
0.983584
0.972805
0.945997
0.918811
0.908651
0.904726
0.903001
0.901905
0.899852
0.894702
0.888524
0.883261
0.879946
0.877287
0.87584
0.874923
0.87447
0.874257
0.874186
0.874206
0.874356
0.874609
0.874936
0.875493
0.876253
0.877217
0.879061
0.883296
0.895088
0.910559
0.917047
0.918652
0.917191
0.912256
0.911088
0.912831
0.920356
0.943641
0.969693
0.985226
0.993287
0.997134
0.998855
0.999574
0.999853
0.999957
0.999985
0.999974
0.999806
0.998234
0.984823
0.932882
0.883705
0.829653
0.787717
0.680623
0.543692
0.531326
0.622905
0.779896
0.79107
0.759694
0.735049
0.732289
0.740001
0.757273
0.762039
0.758278
0.753493
0.755489
0.761173
0.759824
0.74531
0.721077
0.677337
0.622505
0.549018
0.47831
0.412744
0.370943
0.351416
0.345862
0.365348
0.40051
0.452172
0.507346
0.554653
0.590869
0.620439
0.653181
0.694475
0.724678
0.740082
0.752674
0.773888
0.806388
0.846259
0.888082
0.925115
0.953412
0.972505
0.984355
0.991395
0.995453
0.997642
0.998767
0.999297
0.999481
0.999499
0.999487
0.999451
0.999372
0.999184
0.998788
0.998401
0.99764
0.995578
0.992889
0.990997
0.990339
0.990372
0.990829
0.992799
0.993547
0.99283
0.987679
0.963596
0.893231
0.847952
0.837171
0.841042
0.864766
0.912714
0.944964
0.96309
0.971963
0.976587
0.980131
0.983482
0.986352
0.98834
0.989356
0.989623
0.989556
0.988869
0.987695
0.987341
0.98742
0.98845
0.991735
0.994896
0.997003
0.998327
0.9991
0.999552
0.999775
0.66913
0.667725
0.721426
0.754543
0.684837
0.526657
0.473955
0.456265
0.44689
0.435693
0.428661
0.43265
0.434598
0.432561
0.417462
0.403362
0.406689
0.437415
0.52828
0.774572
0.939922
0.975233
0.983265
0.984507
0.981472
0.968171
0.938381
0.915574
0.907032
0.903494
0.901841
0.900609
0.896967
0.891501
0.885194
0.880224
0.877578
0.875602
0.874667
0.874068
0.873797
0.873668
0.873625
0.873689
0.873858
0.874149
0.874452
0.874908
0.87561
0.876353
0.877407
0.879542
0.885195
0.901691
0.914702
0.918893
0.919372
0.916029
0.913405
0.913873
0.919643
0.941028
0.968073
0.984468
0.992959
0.996984
0.998782
0.999539
0.999836
0.999946
0.999985
0.99999
0.999962
0.999609
0.996408
0.971037
0.902854
0.853791
0.821281
0.750739
0.59928
0.543801
0.571908
0.718582
0.776666
0.765779
0.73568
0.728358
0.733709
0.752957
0.760205
0.757662
0.752428
0.753495
0.758543
0.755748
0.731155
0.67226
0.587688
0.50224
0.416186
0.346981
0.298583
0.272132
0.26076
0.263155
0.285781
0.331525
0.399628
0.472416
0.536357
0.580083
0.607094
0.627208
0.649018
0.686631
0.719694
0.742074
0.765738
0.79448
0.831684
0.874374
0.91496
0.947275
0.969549
0.983294
0.991178
0.995503
0.997786
0.998913
0.999428
0.999629
0.999681
0.999684
0.999668
0.999601
0.999403
0.998719
0.997744
0.996967
0.99527
0.99272
0.990828
0.989268
0.988102
0.987864
0.988046
0.989415
0.990601
0.989671
0.982606
0.948232
0.88403
0.855035
0.851257
0.860639
0.899312
0.938088
0.960577
0.972457
0.978234
0.981428
0.984192
0.987078
0.989731
0.991698
0.992805
0.993176
0.993159
0.992686
0.991764
0.991478
0.99153
0.992294
0.994652
0.996762
0.998142
0.998979
0.99947
0.999737
0.6822
0.662531
0.687813
0.759625
0.743254
0.586376
0.500327
0.470149
0.460564
0.455949
0.453164
0.454273
0.454038
0.45064
0.43614
0.417035
0.414015
0.433867
0.520228
0.769006
0.936146
0.974132
0.982011
0.982988
0.979546
0.965185
0.934189
0.913555
0.905209
0.902101
0.900919
0.899175
0.895373
0.889381
0.883408
0.879066
0.876618
0.87498
0.874142
0.873659
0.873438
0.87335
0.873342
0.873389
0.873513
0.87385
0.874271
0.874689
0.87538
0.876154
0.877033
0.878505
0.882034
0.893422
0.910087
0.918413
0.920177
0.919613
0.917564
0.918251
0.923495
0.943284
0.970409
0.986471
0.994168
0.997546
0.998986
0.999597
0.999848
0.999947
0.999984
0.999995
0.999991
0.999909
0.999035
0.991318
0.936404
0.868424
0.841561
0.796811
0.663444
0.565449
0.564791
0.641151
0.751518
0.760019
0.739714
0.72572
0.727609
0.745443
0.757634
0.756978
0.751163
0.751078
0.754122
0.746639
0.696749
0.601795
0.514697
0.418481
0.335517
0.277728
0.242696
0.224343
0.216581
0.217941
0.229394
0.258084
0.326788
0.433792
0.52763
0.579984
0.608042
0.625309
0.63935
0.654755
0.690003
0.728066
0.756243
0.782632
0.816869
0.85963
0.903465
0.940043
0.965861
0.981791
0.990763
0.995479
0.997852
0.998988
0.999494
0.999694
0.999754
0.999757
0.999737
0.99966
0.999465
0.9989
0.9973
0.996035
0.994996
0.992943
0.990539
0.989328
0.988426
0.987068
0.986349
0.986412
0.987356
0.987865
0.986157
0.974145
0.925359
0.878513
0.86549
0.867907
0.891397
0.933065
0.958438
0.972373
0.979615
0.98318
0.985425
0.987719
0.990255
0.992591
0.994284
0.995185
0.995451
0.995416
0.994985
0.994397
0.994259
0.994331
0.995007
0.996736
0.99807
0.998914
0.999419
0.999704
0.683867
0.656235
0.669657
0.759976
0.770141
0.678402
0.5491
0.492548
0.471922
0.465201
0.462948
0.462941
0.462608
0.459096
0.446376
0.425623
0.418858
0.433258
0.506948
0.75524
0.927014
0.971193
0.980368
0.981468
0.978631
0.964844
0.934018
0.914139
0.905112
0.901318
0.899598
0.897799
0.894496
0.889637
0.88388
0.879513
0.876912
0.875211
0.874274
0.873741
0.873473
0.873346
0.873302
0.873316
0.873401
0.873686
0.874226
0.87466
0.875325
0.876259
0.877095
0.878362
0.88123
0.88981
0.907392
0.917909
0.921138
0.921413
0.921643
0.92337
0.931871
0.958568
0.981507
0.992478
0.997147
0.998954
0.999614
0.999853
0.999942
0.999976
0.999991
0.999998
0.999998
0.99998
0.999741
0.997346
0.975708
0.88842
0.844779
0.817101
0.734662
0.602393
0.570667
0.594824
0.70146
0.747225
0.74216
0.725002
0.723191
0.73432
0.753483
0.755633
0.751573
0.747454
0.74767
0.739209
0.690345
0.562629
0.450331
0.35548
0.284233
0.239694
0.216195
0.205398
0.202557
0.204348
0.212448
0.23389
0.287078
0.408504
0.523787
0.600395
0.630811
0.637684
0.642351
0.64927
0.665049
0.709906
0.746009
0.772286
0.804411
0.846956
0.893243
0.933543
0.962572
0.98062
0.990528
0.995552
0.997997
0.999115
0.999586
0.999758
0.999796
0.999791
0.999757
0.999661
0.999438
0.998911
0.997329
0.995317
0.994123
0.99283
0.99084
0.98915
0.988392
0.987676
0.986253
0.98531
0.985326
0.985862
0.985593
0.981467
0.957735
0.904249
0.881043
0.879464
0.89158
0.929885
0.957696
0.97261
0.980759
0.984982
0.987129
0.988803
0.990784
0.992961
0.994865
0.99615
0.996766
0.996911
0.996859
0.99652
0.996248
0.996219
0.996319
0.996952
0.998115
0.998916
0.999408
0.999691
0.678506
0.651487
0.666554
0.753888
0.784918
0.734175
0.627468
0.543485
0.491858
0.475698
0.469303
0.466859
0.465316
0.460384
0.447757
0.428858
0.422556
0.434494
0.503796
0.74508
0.91542
0.966392
0.978704
0.980016
0.977196
0.962786
0.93466
0.915619
0.905702
0.901005
0.898981
0.897554
0.894725
0.890488
0.885249
0.880855
0.877924
0.876004
0.874829
0.874144
0.873761
0.873534
0.873501
0.873538
0.873663
0.873953
0.874704
0.875316
0.87588
0.877042
0.878226
0.879464
0.88188
0.88911
0.906568
0.918076
0.922124
0.923032
0.923929
0.926936
0.938879
0.967596
0.985479
0.994229
0.997941
0.99932
0.999783
0.99993
0.999977
0.999992
0.999997
0.999999
0.999999
0.999996
0.999933
0.999179
0.991546
0.928882
0.847408
0.821913
0.775636
0.656891
0.587531
0.589345
0.644249
0.725166
0.737136
0.72687
0.720041
0.724424
0.7447
0.753392
0.752074
0.747197
0.744063
0.736075
0.695733
0.571651
0.450688
0.353208
0.282571
0.238968
0.215253
0.204034
0.201562
0.20297
0.210067
0.230334
0.281425
0.402581
0.542705
0.631278
0.660088
0.661419
0.654939
0.652341
0.657682
0.690418
0.736743
0.765585
0.796272
0.838706
0.886693
0.929772
0.960912
0.980123
0.990533
0.99578
0.998212
0.999267
0.999675
0.999796
0.999811
0.999798
0.999732
0.999542
0.999095
0.998383
0.996868
0.994793
0.993119
0.991957
0.990603
0.989143
0.988279
0.987865
0.987057
0.985549
0.984697
0.984648
0.984622
0.983154
0.972463
0.930426
0.89752
0.891705
0.897779
0.928507
0.958127
0.97386
0.982168
0.986655
0.988933
0.990253
0.991628
0.993354
0.995137
0.996569
0.997447
0.997818
0.997884
0.997835
0.997663
0.997603
0.997618
0.997761
0.998336
0.999004
0.99944
0.999701
0.669697
0.650681
0.670899
0.756846
0.795687
0.77193
0.690293
0.622564
0.544358
0.496461
0.479869
0.47223
0.467116
0.459876
0.447205
0.431549
0.427419
0.43922
0.508262
0.745084
0.905523
0.959769
0.975537
0.977635
0.975406
0.963152
0.936272
0.917731
0.906887
0.901369
0.898577
0.897206
0.895242
0.891972
0.88772
0.883424
0.880015
0.877652
0.876054
0.875103
0.874541
0.874158
0.874125
0.874192
0.874383
0.874783
0.875601
0.876323
0.876829
0.877926
0.879396
0.881006
0.884239
0.893526
0.911305
0.921317
0.924326
0.924909
0.925724
0.929422
0.94633
0.9717
0.987277
0.995036
0.998293
0.999469
0.999844
0.999955
0.999986
0.999996
0.999999
1
1
0.999999
0.999982
0.999728
0.99688
0.966651
0.862794
0.820966
0.788771
0.700121
0.613298
0.594172
0.613722
0.690697
0.726266
0.72528
0.71773
0.718436
0.732859
0.749389
0.751166
0.747737
0.74394
0.736334
0.708584
0.601825
0.468026
0.365525
0.292309
0.246897
0.220887
0.2085
0.207643