/*--------------------------------*- C++ -*----------------------------------*\
  =========                 |
  \\      /  F ield         | OpenFOAM: The Open Source CFD Toolbox
   \\    /   O peration     | Website:  https://openfoam.org
    \\  /    A nd           | Version:  7
     \\/     M anipulation  |
\*---------------------------------------------------------------------------*/
FoamFile
{
    version     2.0;
    format      ascii;
    class       volVectorField;
    location    "0.1";
    object      U_0;
}
// * * * * * * * * * * * * * * * * * * * * * * * * * * * * * * * * * * * * * //

dimensions      [0 1 -1 0 0 0 0];

internalField   nonuniform List<vector> 
12225
(
(4.68737 0.162195 0)
(4.15022 0.103854 0)
(3.67386 0.106038 0)
(3.25368 0.0975145 0)
(2.89132 0.0798664 0)
(2.56429 0.0676143 0)
(2.23953 0.0587638 0)
(1.9262 0.0473495 0)
(1.64773 0.0356292 0)
(1.41063 0.0284212 0)
(1.20167 0.0255458 0)
(1.01697 0.022062 0)
(0.849567 0.0163948 0)
(0.710854 0.00996003 0)
(0.58427 0.00371037 0)
(0.499603 0.00216727 0)
(0.387148 -0.00608865 0)
(0.365024 -0.0225563 0)
(4.95533 0.094151 0)
(4.84242 0.0725839 0)
(4.71893 0.0974911 0)
(4.60764 0.094654 0)
(4.51257 0.0854175 0)
(4.41992 0.0887017 0)
(4.30266 0.10185 0)
(4.15563 0.111188 0)
(3.98681 0.110028 0)
(3.81257 0.10231 0)
(3.6348 0.0947302 0)
(3.46729 0.0901655 0)
(3.29897 0.086305 0)
(3.14896 0.0813938 0)
(2.98889 0.0748587 0)
(2.85879 0.0666894 0)
(2.71397 0.0645447 0)
(2.60279 0.0478261 0)
(5.00005 0.190434 0)
(4.83875 0.10854 0)
(4.79808 0.141213 0)
(4.80015 0.147242 0)
(4.79129 0.131259 0)
(4.76797 0.123531 0)
(4.73589 0.130732 0)
(4.69743 0.139388 0)
(4.64941 0.140515 0)
(4.59456 0.136928 0)
(4.53421 0.133478 0)
(4.47395 0.132134 0)
(4.40983 0.130313 0)
(4.3437 0.126758 0)
(4.27059 0.122084 0)
(4.1926 0.113189 0)
(4.1143 0.108339 0)
(4.02715 0.105788 0)
(4.95801 0.261187 0)
(4.83386 0.116028 0)
(4.74454 0.111385 0)
(4.74922 0.114663 0)
(4.7666 0.105996 0)
(4.75795 0.108031 0)
(4.73163 0.124842 0)
(4.70534 0.140926 0)
(4.68656 0.145932 0)
(4.67473 0.142589 0)
(4.66715 0.137596 0)
(4.66028 0.13472 0)
(4.65129 0.133582 0)
(4.63513 0.132528 0)
(4.61388 0.131936 0)
(4.58415 0.129193 0)
(4.55416 0.129561 0)
(4.51782 0.133595 0)
(5.01483 0.2192 0)
(4.9276 0.142728 0)
(4.82189 0.136047 0)
(4.76768 0.133273 0)
(4.73342 0.126998 0)
(4.6997 0.130292 0)
(4.67408 0.141712 0)
(4.6672 0.148903 0)
(4.67822 0.146463 0)
(4.69711 0.139527 0)
(4.71458 0.135247 0)
(4.72429 0.136032 0)
(4.72462 0.139878 0)
(4.71463 0.143243 0)
(4.69903 0.145186 0)
(4.67968 0.144299 0)
(4.66218 0.142858 0)
(4.64665 0.143937 0)
(4.96717 0.26256 0)
(4.92477 0.160643 0)
(4.86679 0.150296 0)
(4.81781 0.148954 0)
(4.78038 0.138459 0)
(4.7495 0.134048 0)
(4.72232 0.139525 0)
(4.70346 0.143786 0)
(4.69726 0.140143 0)
(4.70226 0.132669 0)
(4.71449 0.128458 0)
(4.72915 0.13033 0)
(4.74211 0.136543 0)
(4.74972 0.143082 0)
(4.75222 0.147417 0)
(4.74966 0.148036 0)
(4.74575 0.146262 0)
(4.73927 0.144832 0)
(4.99991 0.268539 0)
(4.92262 0.178377 0)
(4.86722 0.156832 0)
(4.84796 0.155367 0)
(4.84054 0.149927 0)
(4.82494 0.149275 0)
(4.79827 0.154109 0)
(4.77188 0.153465 0)
(4.75628 0.143104 0)
(4.753 0.129839 0)
(4.75946 0.122452 0)
(4.77191 0.124122 0)
(4.78708 0.132262 0)
(4.80042 0.141705 0)
(4.81047 0.148734 0)
(4.81494 0.151724 0)
(4.81617 0.151339 0)
(4.81233 0.149644 0)
(5.02188 0.257205 0)
(5.01133 0.190871 0)
(4.96777 0.161004 0)
(4.93161 0.151912 0)
(4.89699 0.14919 0)
(4.86228 0.155785 0)
(4.83492 0.165471 0)
(4.81989 0.165486 0)
(4.81615 0.152313 0)
(4.8175 0.133609 0)
(4.81956 0.119441 0)
(4.82115 0.114848 0)
(4.82379 0.119008 0)
(4.82723 0.127594 0)
(4.83237 0.136142 0)
(4.83707 0.142182 0)
(4.84256 0.144864 0)
(4.84581 0.145592 0)
(5.00819 0.262607 0)
(4.94012 0.206312 0)
(4.92976 0.183341 0)
(4.9269 0.181151 0)
(4.89735 0.177397 0)
(4.87098 0.172551 0)
(4.86798 0.166282 0)
(4.88529 0.154476 0)
(4.90811 0.138538 0)
(4.9203 0.125484 0)
(4.91482 0.121005 0)
(4.8964 0.125091 0)
(4.87562 0.133754 0)
(4.86089 0.142364 0)
(4.85667 0.148084 0)
(4.86071 0.150185 0)
(4.8715 0.149251 0)
(4.88153 0.147241 0)
(4.88816 0.273665 0)
(4.85699 0.209454 0)
(4.87816 0.154759 0)
(4.91826 0.154867 0)
(4.93883 0.169841 0)
(4.94451 0.174784 0)
(4.94417 0.168105 0)
(4.93762 0.154963 0)
(4.92352 0.141787 0)
(4.90412 0.133737 0)
(4.88556 0.131899 0)
(4.87437 0.133344 0)
(4.87394 0.134562 0)
(4.88332 0.133604 0)
(4.899 0.131125 0)
(4.91591 0.128227 0)
(4.93065 0.126734 0)
(4.93953 0.127552 0)
(4.98563 0.282814 0)
(5.01016 0.199324 0)
(4.97249 0.164887 0)
(4.93728 0.161332 0)
(4.92657 0.163879 0)
(4.93482 0.164633 0)
(4.94293 0.162146 0)
(4.94082 0.156513 0)
(4.93241 0.149192 0)
(4.92499 0.142405 0)
(4.92285 0.137519 0)
(4.92605 0.134436 0)
(4.93237 0.132525 0)
(4.93832 0.131504 0)
(4.94168 0.131674 0)
(4.94162 0.13323 0)
(4.93808 0.136413 0)
(4.93256 0.140706 0)
(5.08663 0.271007 0)
(5.04752 0.216352 0)
(5.0046 0.177463 0)
(5.00025 0.165468 0)
(4.99935 0.167293 0)
(4.98126 0.173064 0)
(4.94796 0.175318 0)
(4.91307 0.169617 0)
(4.89239 0.156969 0)
(4.89217 0.142555 0)
(4.90745 0.131437 0)
(4.92776 0.125263 0)
(4.94422 0.123023 0)
(4.95205 0.123173 0)
(4.95214 0.124696 0)
(4.94699 0.127295 0)
(4.94081 0.130772 0)
(4.93512 0.135378 0)
(5.11311 0.252676 0)
(5.11504 0.224951 0)
(5.04744 0.196934 0)
(4.98144 0.173125 0)
(4.949 0.170843 0)
(4.94573 0.182273 0)
(4.95598 0.187188 0)
(4.96864 0.175385 0)
(4.98169 0.151705 0)
(4.99545 0.128324 0)
(5.00847 0.114951 0)
(5.01796 0.113883 0)
(5.0216 0.121445 0)
(5.01808 0.131862 0)
(5.00871 0.14071 0)
(4.99541 0.146252 0)
(4.98174 0.148944 0)
(4.96854 0.150557 0)
(5.06368 0.25447 0)
(5.04067 0.243501 0)
(5.02127 0.235586 0)
(4.99608 0.207741 0)
(4.9763 0.183193 0)
(4.9799 0.172965 0)
(4.99926 0.169708 0)
(5.01564 0.162798 0)
(5.02161 0.148978 0)
(5.02061 0.132534 0)
(5.01831 0.12015 0)
(5.01733 0.115852 0)
(5.01755 0.119369 0)
(5.01714 0.127415 0)
(5.01503 0.136323 0)
(5.01048 0.143686 0)
(5.0043 0.148822 0)
(4.99733 0.152178 0)
(5.06579 0.298246 0)
(5.05966 0.287076 0)
(5.03217 0.237137 0)
(4.99593 0.201547 0)
(4.96242 0.174819 0)
(4.93876 0.160031 0)
(4.92598 0.155677 0)
(4.92253 0.15113 0)
(4.92876 0.139811 0)
(4.94337 0.12514 0)
(4.96173 0.115321 0)
(4.9781 0.115471 0)
(4.98875 0.124906 0)
(4.99251 0.138938 0)
(4.9907 0.152125 0)
(4.98554 0.161572 0)
(4.97942 0.16634 0)
(4.97429 0.168203 0)
(4.91509 0.271376 0)
(5.01166 0.247932 0)
(5.02671 0.266975 0)
(5.03323 0.255937 0)
(5.02346 0.232486 0)
(5.0051 0.214765 0)
(4.98999 0.197137 0)
(4.98378 0.1702 0)
(4.98473 0.135212 0)
(4.98752 0.102947 0)
(4.98878 0.0846801 0)
(4.98827 0.0848655 0)
(4.98792 0.0996784 0)
(4.98899 0.120945 0)
(4.99244 0.140269 0)
(4.99701 0.153386 0)
(5.00296 0.159073 0)
(5.00775 0.159786 0)
(5.02619 0.282831 0)
(4.99374 0.244212 0)
(4.96793 0.227507 0)
(4.95717 0.203368 0)
(4.96582 0.186075 0)
(4.98328 0.175467 0)
(5.00583 0.162895 0)
(5.03105 0.146762 0)
(5.05348 0.131667 0)
(5.06679 0.122189 0)
(5.06856 0.119598 0)
(5.06143 0.122645 0)
(5.05106 0.129067 0)
(5.04221 0.136396 0)
(5.03801 0.142686 0)
(5.03816 0.147364 0)
(5.0424 0.150677 0)
(5.04765 0.154511 0)
(5.06823 0.370535 0)
(5.07099 0.342821 0)
(5.0632 0.296324 0)
(5.03911 0.253807 0)
(5.0077 0.213032 0)
(4.98872 0.178141 0)
(4.98867 0.144512 0)
(5.00184 0.11161 0)
(5.02107 0.0872155 0)
(5.04038 0.0791187 0)
(5.05604 0.0878764 0)
(5.0669 0.106971 0)
(5.0742 0.127162 0)
(5.07932 0.141328 0)
(5.08396 0.146563 0)
(5.08835 0.144877 0)
(5.0934 0.139317 0)
(5.098 0.135293 0)
(4.96877 0.329646 0)
(4.97316 0.279229 0)
(5.01258 0.269217 0)
(5.05223 0.268918 0)
(5.07552 0.245222 0)
(5.08483 0.196963 0)
(5.08488 0.139 0)
(5.07901 0.0911748 0)
(5.0701 0.0652736 0)
(5.0628 0.0609132 0)
(5.06243 0.0707139 0)
(5.07113 0.0864113 0)
(5.08727 0.101755 0)
(5.10674 0.113542 0)
(5.12576 0.12106 0)
(5.14158 0.125641 0)
(5.1537 0.128771 0)
(5.16208 0.132195 0)
(5.02422 0.314192 0)
(4.9886 0.242687 0)
(4.98602 0.188311 0)
(5.02496 0.173451 0)
(5.07608 0.170519 0)
(5.11279 0.165668 0)
(5.12315 0.156007 0)
(5.11651 0.140712 0)
(5.10659 0.119591 0)
(5.10127 0.0956493 0)
(5.10281 0.0743554 0)
(5.10966 0.0606925 0)
(5.11882 0.0564602 0)
(5.1276 0.0608169 0)
(5.13508 0.070323 0)
(5.14158 0.0817652 0)
(5.14841 0.0919712 0)
(5.15676 0.0994897 0)
(5.04387 0.280889 0)
(5.05962 0.274408 0)
(5.04866 0.222111 0)
(5.05131 0.160095 0)
(5.05676 0.138898 0)
(5.06945 0.141318 0)
(5.09053 0.138849 0)
(5.11761 0.120603 0)
(5.1446 0.0924807 0)
(5.16568 0.0666294 0)
(5.17823 0.051736 0)
(5.18342 0.0498422 0)
(5.18501 0.0575398 0)
(5.18673 0.0695788 0)
(5.19195 0.0804058 0)
(5.20161 0.0867677 0)
(5.21648 0.0870679 0)
(5.23449 0.0818032 0)
(4.91688 0.210395 0)
(4.95483 0.19378 0)
(4.99555 0.192417 0)
(5.03979 0.162064 0)
(5.0724 0.137859 0)
(5.09549 0.119346 0)
(5.11274 0.100745 0)
(5.12572 0.0819975 0)
(5.13733 0.0666724 0)
(5.14916 0.0580565 0)
(5.16117 0.0560654 0)
(5.17373 0.0577769 0)
(5.18792 0.0596261 0)
(5.20429 0.0591841 0)
(5.22343 0.0554479 0)
(5.24449 0.0493952 0)
(5.26725 0.0420199 0)
(5.28911 0.0360867 0)
(4.98258 0.244653 0)
(4.98655 0.176646 0)
(5.04227 0.150381 0)
(5.10477 0.119453 0)
(5.15226 0.104528 0)
(5.18442 0.103979 0)
(5.20563 0.0993944 0)
(5.21811 0.0816352 0)
(5.22652 0.0555246 0)
(5.23552 0.0314737 0)
(5.24765 0.0165147 0)
(5.26416 0.0114638 0)
(5.28485 0.0127708 0)
(5.30771 0.0157654 0)
(5.33022 0.0169282 0)
(5.3499 0.0154152 0)
(5.36619 0.011768 0)
(5.3778 0.0078597 0)
(5.01874 0.259116 0)
(4.98089 0.1561 0)
(5.01192 0.0909399 0)
(5.07229 0.0763431 0)
(5.13047 0.0759651 0)
(5.17953 0.0795337 0)
(5.22168 0.0799211 0)
(5.25314 0.0727652 0)
(5.27214 0.0592197 0)
(5.2819 0.0435444 0)
(5.28768 0.0296057 0)
(5.29422 0.0191757 0)
(5.30424 0.0123564 0)
(5.31766 0.00818392 0)
(5.33403 0.0060308 0)
(5.35223 0.00542854 0)
(5.37154 0.00612182 0)
(5.39001 0.00851112 0)
(5.03161 0.294095 0)
(5.09828 0.165049 0)
(5.14229 0.0726792 0)
(5.1498 0.0369852 0)
(5.14279 0.0261788 0)
(5.15194 0.0259232 0)
(5.18682 0.0292938 0)
(5.2359 0.030162 0)
(5.28393 0.0245133 0)
(5.32119 0.0137996 0)
(5.345 0.00253142 0)
(5.35803 -0.00592942 0)
(5.36542 -0.0118654 0)
(5.37114 -0.0171875 0)
(5.37802 -0.0227648 0)
(5.38721 -0.0283038 0)
(5.39966 -0.0330116 0)
(5.41512 -0.0347138 0)
(5.00311 0.247277 0)
(5.0291 0.122101 0)
(5.11614 0.0940862 0)
(5.17319 0.097359 0)
(5.20373 0.0819594 0)
(5.23602 0.0515423 0)
(5.2816 0.0250565 0)
(5.33346 0.0100886 0)
(5.38064 0.00419671 0)
(5.41617 0.00231914 0)
(5.43854 0.00184982 0)
(5.45047 0.0016954 0)
(5.4569 0.000473496 0)
(5.46212 -0.00280724 0)
(5.46881 -0.00853646 0)
(5.4778 -0.015415 0)
(5.48951 -0.0224003 0)
(5.50307 -0.0273322 0)
(4.99914 0.238313 0)
(5.07973 0.0611421 0)
(5.17607 0.00515301 0)
(5.25365 -0.00190803 0)
(5.3227 -0.0127867 0)
(5.38129 -0.0252778 0)
(5.42264 -0.032711 0)
(5.44704 -0.0338721 0)
(5.46178 -0.0308007 0)
(5.47449 -0.0263335 0)
(5.48922 -0.0222322 0)
(5.5066 -0.0202574 0)
(5.52584 -0.0218119 0)
(5.54583 -0.0275505 0)
(5.56551 -0.0367124 0)
(5.58341 -0.0469741 0)
(5.59927 -0.0562743 0)
(5.61185 -0.0622884 0)
(4.96158 0.176725 0)
(5.13865 0.0670064 0)
(5.27364 0.0548434 0)
(5.35233 0.0379863 0)
(5.39927 0.0123923 0)
(5.43957 -0.00465419 0)
(5.47759 -0.00986074 0)
(5.51118 -0.00919917 0)
(5.53969 -0.00940007 0)
(5.56559 -0.0121373 0)
(5.59125 -0.0158821 0)
(5.61666 -0.0194309 0)
(5.63993 -0.0230058 0)
(5.6589 -0.0276767 0)
(5.67195 -0.0335612 0)
(5.67885 -0.0395496 0)
(5.68059 -0.044213 0)
(5.67844 -0.0456893 0)
(5.03975 0.0305863 0)
(5.21849 -0.055939 0)
(5.377 -0.0415893 0)
(5.44664 -0.0511383 0)
(5.46861 -0.0593242 0)
(5.47869 -0.0636599 0)
(5.48971 -0.0640683 0)
(5.5027 -0.0610208 0)
(5.51631 -0.0565899 0)
(5.53019 -0.0528703 0)
(5.54323 -0.0505264 0)
(5.55322 -0.0492093 0)
(5.55755 -0.0486002 0)
(5.5555 -0.0490276 0)
(5.54702 -0.0507716 0)
(5.53469 -0.0536446 0)
(5.51932 -0.057013 0)
(5.50445 -0.059584 0)
(5.04689 0.0842332 0)
(5.14998 -0.00513365 0)
(5.08313 -0.00705168 0)
(4.95536 -0.00576789 0)
(4.83604 -0.00889492 0)
(4.71775 -0.0150193 0)
(4.59648 -0.0193141 0)
(4.47851 -0.0212651 0)
(4.36786 -0.0230965 0)
(4.26368 -0.0254189 0)
(4.16421 -0.026737 0)
(4.07028 -0.0259147 0)
(3.98328 -0.0237713 0)
(3.90294 -0.0224214 0)
(3.82487 -0.0229841 0)
(3.74671 -0.0249467 0)
(3.66476 -0.0266242 0)
(3.58404 -0.0262487 0)
(-0.0685908 0.166644 -8.6651e-22)
(-0.248658 0.152532 8.64176e-22)
(-0.34988 0.0728366 0)
(-0.325689 -0.0441179 0)
(-0.232285 -0.105558 0)
(-0.096015 -0.124492 -8.04696e-22)
(0.0355985 -0.104303 0)
(0.138345 -0.0569365 0)
(0.191459 0.0152266 0)
(0.180938 0.0945605 0)
(0.105754 0.0819025 7.54249e-22)
(0.022316 -0.039731 0)
(-0.0285785 -0.0711602 0)
(-0.0512238 -0.00256944 0)
(-0.0771234 0.0364928 0)
(-0.130304 0.0454457 7.54243e-22)
(-0.175687 0.035716 0)
(-0.186579 -0.0053734 0)
(-0.164644 -0.0597527 0)
(-0.123628 -0.106726 0)
(-0.0848357 -0.130746 0)
(-0.062336 -0.127211 0)
(-0.0652246 -0.110961 0)
(-0.110735 -0.109177 8.49064e-22)
(-0.209519 -0.0733616 -8.66566e-22)
(-0.369237 0.0748666 8.80242e-22)
(-0.616461 0.229094 8.91567e-22)
(-0.922595 0.273545 0)
(-1.23615 0.300408 0)
(-1.55813 0.323608 -9.65031e-22)
(-1.87366 0.310174 -1.00538e-21)
(-2.1654 0.29005 0)
(-2.43428 0.263438 0)
(-2.67537 0.232835 -1.15406e-21)
(-2.88883 0.201738 0)
(-3.0751 0.170548 0)
(-3.23493 0.140784 1.2997e-21)
(-3.36978 0.112296 0)
(-3.48104 0.0869388 1.37318e-21)
(-3.57032 0.0634785 2.79859e-21)
(-3.63828 0.0419898 0)
(-3.68625 0.0227954 0)
(-3.71493 0.00537415 0)
(-3.72539 -0.00992216 0)
(-3.71836 -0.0229205 0)
(-3.69402 -0.0343094 2.72102e-21)
(-3.65308 -0.0442246 2.63793e-21)
(-3.59536 -0.0528021 2.53581e-21)
(-3.52036 -0.060132 0)
(-3.42693 -0.0667034 -2.28062e-21)
(-3.31386 -0.0736129 0)
(-3.18021 -0.0824445 1.97325e-21)
(-3.0251 -0.0944521 1.80738e-21)
(-2.84724 -0.10973 0)
(-2.64575 -0.127121 0)
(-2.42237 -0.144815 0)
(-2.18172 -0.160663 1.1251e-21)
(-1.92801 -0.172596 0)
(-1.66176 -0.180162 0)
(-1.38128 -0.185923 0)
(-1.08599 -0.194663 0)
(-0.774112 -0.206862 0)
(-0.443998 -0.211805 0)
(-0.107106 -0.203925 0)
(0.233035 -0.172208 0)
(0.565641 -0.145192 -7.60999e-23)
(0.871225 -0.199263 0)
(1.22222 -0.242351 0)
(1.585 0.0600332 8.35108e-23)
(1.41816 0.378064 6.60493e-23)
(0.932851 0.238396 0)
(0.614357 0.128074 -1.3196e-23)
(0.367611 0.144757 1.67338e-24)
(0.207148 0.0897592 0)
(0.0216764 0.0875833 9.34223e-24)
(-0.228683 0.0558065 0)
(-0.325025 -0.0911283 0)
(-0.0726853 -0.301021 -1.63225e-23)
(0.497666 -0.434436 0)
(1.20671 -0.432905 7.46067e-23)
(1.82591 -0.349537 0)
(2.30947 -0.126834 1.43608e-22)
(2.42575 0.190404 2.01288e-22)
(1.96567 0.324473 1.81169e-22)
(1.32015 0.22865 3.29442e-22)
(0.976796 0.0748974 -3.26418e-22)
(0.960514 -0.0877717 0)
(1.06979 -0.252414 0)
(1.14345 -0.295637 0)
(0.95775 -0.0328894 -2.92677e-22)
(0.336295 0.322907 -3.34995e-22)
(-0.465705 0.4344 4.733e-22)
(-1.21573 0.411 0)
(-1.87256 0.358427 -1.10691e-21)
(-2.43119 0.302874 -1.50457e-21)
(-2.9017 0.252922 -1.90339e-21)
(-3.29774 0.2108 0)
(-3.63179 0.176082 0)
(-3.91403 0.147581 0)
(-4.15229 0.123758 -3.2122e-21)
(-4.35185 0.103118 0)
(-4.51608 0.0846055 0)
(-4.64698 0.0674167 3.75915e-21)
(-4.7454 0.0510335 0)
(-4.81149 0.0351485 0)
(-4.84514 0.0195031 3.86622e-21)
(-4.84572 0.00470579 0)
(-4.81669 -0.0093291 0)
(-4.75673 -0.0231093 -3.52211e-21)
(-4.66615 -0.036537 -3.31576e-21)
(-4.54444 -0.0498254 0)
(-4.39119 -0.0629785 2.78951e-21)
(-4.20606 -0.0759665 0)
(-3.98884 -0.0886901 -2.1454e-21)
(-3.73969 -0.100916 0)
(-3.45937 -0.112245 -1.43229e-21)
(-3.14969 -0.122093 -1.06901e-21)
(-2.81431 -0.129823 0)
(-2.45959 -0.134836 0)
(-2.09415 -0.136409 0)
(-1.72705 -0.134363 0)
(-1.36567 -0.129247 0)
(-1.01714 -0.121719 0)
(-0.687996 -0.112438 0)
(-0.380808 -0.102336 8.75125e-22)
(-0.095937 -0.0939005 -9.5414e-22)
(0.165888 -0.0857005 0)
(0.406766 -0.077331 0)
(0.628516 -0.0694291 0)
(0.831203 -0.0618232 0)
(1.01517 -0.0544268 -2.00899e-21)
(1.18073 -0.0472763 0)
(1.32834 -0.0404492 1.8349e-21)
(1.45866 -0.0340243 -1.72068e-21)
(1.57253 -0.0280286 0)
(1.67076 -0.0223531 0)
(1.75388 -0.0169533 0)
(1.82236 -0.0118266 1.17552e-21)
(1.87627 -0.00672867 1.03381e-21)
(1.9154 -0.00176425 0)
(1.94 0.00299626 7.6415e-22)
(1.94996 0.00798777 6.41404e-22)
(1.94497 0.0132586 -5.29617e-22)
(1.9263 0.0180907 0)
(1.89459 0.0226892 0)
(1.85042 0.0273858 -2.76685e-22)
(1.79324 0.0329433 0)
(1.72142 0.0395585 0)
(1.63373 0.0460083 0)
(1.53076 0.0508723 0)
(1.41419 0.0540205 1.47293e-22)
(1.28612 0.0553549 1.56475e-22)
(1.15122 0.0526265 0)
(1.01884 0.0438826 1.94811e-22)
(0.901327 0.0305183 0)
(0.808423 0.0162044 0)
(0.743448 0.00452803 3.0105e-22)
(0.704315 -0.00300059 0)
(0.685214 -0.00682146 4.03493e-22)
(0.679181 -0.00812549 0)
(0.680199 -0.00805087 0)
(0.684165 -0.00729601 5.52225e-22)
(0.688591 -0.00621931 0)
(0.692475 -0.00509035 6.3055e-22)
(0.695276 -0.00398054 0)
(0.697343 -0.00294773 0)
(0.698348 -0.0019885 0)
(0.699053 -0.001193 -7.42803e-22)
(0.698331 -0.000489884 0)
(0.697449 0.000110917 7.84012e-22)
(0.693965 0.00078537 0)
(0.690389 0.00142639 0)
(0.682464 0.002378 0)
(0.674077 0.00316588 0)
(0.660324 0.00487046 0)
(0.641281 0.00549182 0)
(0.624698 0.00944148 0)
(0.573127 0.00769797 -1.78258e-21)
(0.578622 0.0196608 0)
(0.426989 0.00812758 0)
(-0.0133364 0.4745 2.64689e-21)
(-0.168352 0.416767 -2.64126e-21)
(-0.184882 0.118545 0)
(-0.101646 -0.206461 1.73845e-21)
(0.0445292 -0.383544 0)
(0.209616 -0.427553 8.04073e-22)
(0.34775 -0.369358 -1.60614e-21)
(0.454809 -0.2437 -1.5783e-21)
(0.516944 -0.0856378 0)
(0.533054 0.0833601 -1.54089e-21)
(0.494973 0.236992 -7.53288e-22)
(0.382257 0.314761 0)
(0.174794 0.228587 0)
(-0.0201537 0.0917037 0)
(-0.130811 0.122028 0)
(-0.21331 0.145712 -7.53993e-22)
(-0.273402 0.073903 0)
(-0.313865 -0.00904028 1.51577e-21)
(-0.356399 -0.0568743 0)
(-0.430345 -0.0383058 0)
(-0.54971 0.0258301 -1.56565e-21)
(-0.703887 0.08809 0)
(-0.888977 0.197541 1.63041e-21)
(-1.13963 0.380755 -8.46471e-22)
(-1.43466 0.539505 8.63485e-22)
(-1.68707 0.641114 -8.76848e-22)
(-1.92174 0.718999 -8.88093e-22)
(-2.16928 0.752181 0)
(-2.39244 0.750706 0)
(-2.59882 0.72502 9.61986e-22)
(-2.79166 0.675487 -1.10061e-21)
(-2.96747 0.617411 0)
(-3.13142 0.554468 0)
(-3.28304 0.49106 1.15191e-21)
(-3.42607 0.430464 0)
(-3.56081 0.373165 0)
(-3.68713 0.319544 -1.29798e-21)
(-3.80471 0.269585 0)
(-3.91164 0.222772 1.45545e-21)
(-4.00665 0.178485 -2.79543e-21)
(-4.08789 0.136545 0)
(-4.15301 0.0964078 0)
(-4.20037 0.0575292 -5.85443e-21)
(-4.22807 0.0192686 -5.80697e-21)
(-4.23489 -0.018866 -5.71906e-21)
(-4.21985 -0.057273 2.8713e-21)
(-4.18112 -0.0966249 -2.63477e-21)
(-4.11783 -0.137484 -7.74201e-21)
(-4.02927 -0.180307 4.96428e-21)
(-3.91573 -0.225244 2.27782e-21)
(-3.77872 -0.272031 0)
(-3.6207 -0.319839 -1.97089e-21)
(-3.44446 -0.367022 1.92292e-21)
(-3.25262 -0.411205 0)
(-3.04803 -0.449999 0)
(-2.83367 -0.481989 0)
(-2.61114 -0.507287 -1.12365e-21)
(-2.37881 -0.527794 0)
(-2.13271 -0.547354 1.72293e-21)
(-1.87148 -0.570909 0)
(-1.59854 -0.600624 1.15172e-21)
(-1.31416 -0.630515 0)
(-1.01153 -0.650418 -6.82602e-22)
(-0.690186 -0.659577 0)
(-0.347499 -0.658705 3.48639e-22)
(0.0249936 -0.658283 -1.67653e-22)
(0.402474 -0.675002 0)
(0.708914 -0.620587 -2.07304e-22)
(1.08063 -0.253338 -8.35426e-23)
(1.43149 0.341765 -6.60437e-23)
(1.4599 0.649612 0)
(1.18488 0.548721 -5.07043e-23)
(0.933111 0.337453 -1.67111e-24)
(0.83879 0.294152 0)
(0.656814 0.378637 -9.33204e-24)
(0.413231 0.31547 -4.79384e-23)
(0.247644 -0.0657502 0)
(0.286771 -0.646241 1.63111e-23)
(0.582694 -1.10589 0)
(1.08449 -1.15083 -3.94234e-23)
(1.55316 -0.900569 0)
(1.88218 -0.451125 -6.06574e-22)
(2.13608 0.17077 -2.01354e-22)
(2.06406 0.71219 3.28835e-22)
(1.82915 0.795725 4.93007e-22)
(1.75856 0.360957 -3.3185e-22)
(1.6402 -0.054416 0)
(1.1516 0.029611 0)
(0.293378 0.489678 0)
(-0.601289 0.910721 1.02709e-21)
(-1.38859 1.10226 3.34211e-22)
(-2.02737 1.07274 -4.71746e-22)
(-2.54034 0.953516 0)
(-2.9625 0.812752 -1.57692e-21)
(-3.31094 0.680008 1.50171e-21)
(-3.60184 0.565524 1.9005e-21)
(-3.84708 0.47034 0)
(-4.05532 0.391943 0)
(-4.23253 0.326805 0)
(-4.38254 0.271225 3.2105e-21)
(-4.50764 0.221994 0)
(-4.60901 0.176739 -7.3904e-21)
(-4.68693 0.133756 -1.14137e-20)
(-4.74111 0.0919217 7.82376e-21)
(-4.77104 0.0506644 0)
(-4.77598 0.00977786 3.98955e-21)
(-4.75604 -0.0305057 0)
(-4.70742 -0.0700098 7.48052e-21)
(-4.6307 -0.108906 -3.62689e-21)
(-4.52497 -0.147163 -3.41604e-21)
(-4.38985 -0.184991 0)
(-4.22468 -0.222498 -8.46365e-21)
(-4.02883 -0.259655 5.05271e-21)
(-3.80184 -0.296213 2.14537e-21)
(-3.54343 -0.33161 0)
(-3.25381 -0.364776 1.4322e-21)
(-2.93433 -0.393961 3.29509e-21)
(-2.58832 -0.416939 0)
(-2.2218 -0.431481 8.30262e-22)
(-1.84348 -0.435617 2.06675e-22)
(-1.46338 -0.42863 -3.43338e-22)
(-1.0896 -0.412129 0)
(-0.729783 -0.388288 0)
(-0.390973 -0.359806 0)
(-0.0753008 -0.331818 8.48465e-22)
(0.215086 -0.304647 9.53795e-22)
(0.482015 -0.279698 0)
(0.727637 -0.255658 2.05016e-21)
(0.95293 -0.232916 2.06793e-21)
(1.15848 -0.211123 0)
(1.34477 -0.190063 2.00795e-21)
(1.51231 -0.169761 3.8524e-21)
(1.6618 -0.15039 -1.83404e-21)
(1.79421 -0.13213 -1.71183e-21)
(1.91067 -0.115007 0)
(2.01219 -0.0988483 0)
(2.09972 -0.0834131 0)
(2.17381 -0.0684285 -1.17507e-21)
(2.23454 -0.0536143 1.02183e-21)
(2.28246 -0.0389715 1.77746e-21)
(2.31761 -0.0246622 -7.63873e-22)
(2.34024 -0.010781 6.23222e-22)
(2.35198 0.00184075 5.29419e-22)
(2.3526 0.0131083 0)
(2.34267 0.0236936 0)
(2.32393 0.0340389 -2.54134e-22)
(2.29929 0.0444377 0)
(2.2718 0.0553348 0)
(2.24346 0.066483 2.95092e-22)
(2.21423 0.0771746 0)
(2.18221 0.0866639 1.26267e-22)
(2.14495 0.0940101 -1.5634e-22)
(2.10127 0.0978905 0)
(2.05159 0.0959948 1.86835e-22)
(1.99751 0.0866007 0)
(1.94215 0.0704329 0)
(1.88963 0.0510765 -3.00729e-22)
(1.84418 0.0327574 7.08456e-22)
(1.80831 0.0183843 -4.03088e-22)
(1.78189 0.00894532 0)
(1.76286 0.00381337 0)
(1.74852 0.00163567 5.55859e-22)
(1.7363 0.000940169 0)
(1.72477 0.000781916 6.32776e-22)
(1.71324 0.000707243 0)
(1.70217 0.0005243 0)
(1.69163 0.000367443 0)
(1.68251 0.000289298 7.42214e-22)
(1.67412 0.000569574 0)
(1.66722 0.00101511 -7.8341e-22)
(1.66002 0.0020962 0)
(1.65359 0.00300926 0)
(1.64564 0.00513189 1.6645e-21)
(1.63699 0.00616025 -1.69126e-21)
(1.62722 0.0102995 0)
(1.61133 0.0107613 0)
(1.60207 0.019715 0)
(1.56469 0.017257 5.33822e-21)
(1.56957 0.0379036 0)
(1.47146 0.0279901 -3.61342e-21)
(0.00894844 0.541482 3.2346e-23)
(-0.0235008 0.517493 3.58165e-21)
(0.146317 -0.0295959 0)
(0.341194 -0.504236 -3.51336e-21)
(0.532381 -0.730827 0)
(0.680146 -0.747815 0)
(0.784598 -0.618282 -9.21942e-23)
(0.850006 -0.399859 1.57608e-21)
(0.878875 -0.135372 1.65613e-21)
(0.871293 0.140015 1.53923e-21)
(0.819584 0.390579 0)
(0.72123 0.599074 0)
(0.550787 0.696025 -1.54415e-21)
(0.29058 0.596093 -3.0384e-21)
(0.0253524 0.415247 3.01046e-21)
(-0.140941 0.321555 0)
(-0.26094 0.238398 3.00894e-21)
(-0.373164 0.157585 -1.51519e-21)
(-0.501062 0.160502 0)
(-0.669998 0.252911 3.05341e-21)
(-0.875016 0.372751 1.56367e-21)
(-1.11316 0.507975 -3.15759e-21)
(-1.38239 0.678692 -1.62738e-21)
(-1.64712 0.833431 0)
(-1.88772 0.935944 3.47609e-21)
(-2.10139 1.01253 3.61329e-21)
(-2.29346 1.06035 0)
(-2.46662 1.06129 3.91533e-21)
(-2.62199 1.03487 0)
(-2.77246 0.989334 4.26011e-21)
(-2.92198 0.929001 2.10161e-21)
(-3.07449 0.865745 0)
(-3.23192 0.801415 0)
(-3.3918 0.73763 0)
(-3.55181 0.674836 0)
(-3.70713 0.611553 0)
(-3.85398 0.547087 0)
(-3.98866 0.480699 5.78282e-21)
(-4.10771 0.411843 -8.74163e-21)
(-4.20898 0.340673 0)
(-4.2909 0.26753 0)
(-4.35238 0.192581 0)
(-4.39272 0.116035 -2.66289e-22)
(-4.41087 0.0383588 5.80451e-21)
(-4.40531 -0.0400882 1.1694e-20)
(-4.37573 -0.118582 -1.14282e-20)
(-4.322 -0.196725 -5.66374e-21)
(-4.24407 -0.273948 5.20691e-21)
(-4.14227 -0.349558 2.31132e-22)
(-4.01741 -0.422606 4.90751e-21)
(-3.87135 -0.49187 0)
(-3.70678 -0.555937 4.26384e-21)
(-3.52684 -0.613544 1.92641e-22)
(-3.33481 -0.664177 0)
(-3.1341 -0.708531 0)
(-2.92786 -0.74822 -2.86561e-21)
(-2.71771 -0.784914 0)
(-2.503 -0.819904 0)
(-2.28257 -0.854796 2.05326e-21)
(-2.05752 -0.89247 3.18539e-21)
(-1.82954 -0.935089 -1.15062e-21)
(-1.59681 -0.981242 0)
(-1.35405 -1.026 6.81773e-22)
(-1.09498 -1.0619 0)
(-0.817649 -1.0847 6.41684e-22)
(-0.521676 -1.0924 2.43454e-22)
(-0.213716 -1.09376 -6.02082e-22)
(0.0659385 -1.03948 -3.49405e-22)
(0.38914 -0.717736 0)
(0.864458 -0.0567776 4.94094e-22)
(1.25433 0.535706 0)
(1.32886 0.718864 2.02795e-22)
(1.20128 0.56665 3.04007e-23)
(1.11485 0.424583 -2.25531e-23)
(1.05129 0.524575 3.26932e-23)
(0.921126 0.533741 9.6328e-23)
(0.772735 0.131113 0)
(0.64031 -0.608837 0)
(0.604381 -1.34248 -1.10559e-22)
(0.797198 -1.53994 -2.93195e-22)
(1.06331 -1.22654 0)
(1.25319 -0.648979 4.63265e-22)
(1.41993 0.0791023 0)
(1.54214 0.612418 -1.74843e-21)
(1.64211 0.586687 1.77457e-22)
(1.50551 0.370625 -1.28705e-22)
(0.820767 0.591457 6.48207e-22)
(-0.140566 1.07447 0)
(-1.00793 1.45387 -8.43997e-22)
(-1.66239 1.6402 4.06717e-22)
(-2.12036 1.63455 0)
(-2.44312 1.49421 0)
(-2.69873 1.29863 0)
(-2.9218 1.10094 2.68006e-21)
(-3.12828 0.924615 0)
(-3.3227 0.776121 0)
(-3.50521 0.653437 0)
(-3.67452 0.551714 0)
(-3.82918 0.465707 0)
(-3.9677 0.390567 6.82732e-21)
(-4.0887 0.322332 0)
(-4.19069 0.257984 7.39385e-21)
(-4.27201 0.195383 7.65881e-21)
(-4.33094 0.133204 -7.82778e-21)
(-4.36589 0.0708102 0)
(-4.37561 0.00804927 -7.86072e-21)
(-4.35918 -0.0552099 0)
(-4.31598 -0.118518 -7.48382e-21)
(-4.2459 -0.181237 7.15217e-21)
(-4.14873 -0.243312 2.05107e-20)
(-4.02402 -0.304869 0)
(-3.87099 -0.366196 1.73185e-20)
(-3.68872 -0.427377 5.34482e-21)
(-3.47624 -0.488129 0)
(-3.23255 -0.547726 7.65696e-21)
(-2.95672 -0.604652 6.20693e-21)
(-2.64871 -0.656053 -6.96752e-21)
(-2.3105 -0.697705 0)
(-1.94698 -0.72489 -8.30154e-22)
(-1.56643 -0.73395 -2.06646e-22)
(-1.1796 -0.723224 8.31165e-22)
(-0.795877 -0.694805 0)
(-0.423943 -0.653265 0)
(-0.0728664 -0.60442 0)
(0.253793 -0.555327 1.61798e-21)
(0.556471 -0.507727 0)
(0.835566 -0.462407 0)
(1.09216 -0.419897 -2.04869e-21)
(1.3269 -0.379803 -2.06649e-21)
(1.53973 -0.341463 0)
(1.73023 -0.304579 0)
(1.89821 -0.269335 -3.85001e-21)
(2.04406 -0.236157 0)
(2.16882 -0.205394 3.42983e-21)
(2.27397 -0.17706 3.1581e-21)
(2.36104 -0.150818 0)
(2.43134 -0.126189 0)
(2.48575 -0.10266 -2.31849e-21)
(2.52497 -0.0798471 -2.23871e-23)
(2.54974 -0.057699 -2.45959e-23)
(2.56117 -0.0361574 0)
(2.56042 -0.0152889 -2.49873e-21)
(2.54969 0.00489434 0)
(2.53175 0.0241135 0)
(2.50829 0.0413789 0)
(2.47959 0.0553129 5.30588e-22)
(2.44515 0.0654205 0)
(2.40619 0.0728433 -6.16858e-22)
(2.36754 0.0793617 -2.95044e-22)
(2.336 0.0860702 0)
(2.31624 0.0932796 -2.73401e-22)
(2.30867 0.100455 0)
(2.30977 0.105737 0)
(2.31292 0.105635 -1.1251e-21)
(2.31121 0.0974089 8.86103e-22)
(2.30054 0.0817547 0)
(2.28052 0.0622541 1.23793e-21)
(2.25381 0.0429813 -7.08159e-22)
(2.22465 0.0268327 0)
(2.19695 0.0152226 0)
(2.17308 0.00824014 0)
(2.1537 0.00503052 -3.33435e-21)
(2.13829 0.00431217 0)
(2.12585 0.00487571 -1.26231e-21)
(2.11518 0.00568925 0)
(2.10544 0.00611535 0)
(2.0961 0.00607554 0)
(2.08697 0.00564515 0)
(2.07787 0.00533308 0)
(2.06876 0.00507995 0)
(2.05976 0.0056793 -3.20684e-21)
(2.05056 0.00621505 0)
(2.04201 0.00845507 -1.66393e-21)
(2.03228 0.00956819 5.07065e-21)
(2.0249 0.0144626 0)
(2.01261 0.0154266 0)
(2.00828 0.0257036 -3.51232e-21)
(1.98753 0.0248754 -3.5557e-21)
(1.99174 0.0466978 3.58325e-21)
(1.94896 0.0419477 3.61204e-21)
(-0.0354382 0.520409 -5.4572e-21)
(0.157822 0.13508 -5.42855e-21)
(0.486383 -0.577211 -3.63662e-21)
(0.74428 -1.00363 -1.87548e-21)
(0.904979 -1.1153 0)
(0.993016 -1.00814 3.65943e-21)
(1.03251 -0.77477 -1.96119e-21)
(1.03778 -0.475348 0)
(1.01946 -0.149126 -1.65548e-21)
(0.978513 0.186976 0)
(0.912209 0.509369 3.47992e-21)
(0.816276 0.795992 0)
(0.68815 1.01966 1.5427e-21)
(0.490842 1.06773 3.03469e-21)
(0.218366 0.911448 -3.00743e-21)
(-0.0306767 0.691396 0)
(-0.2191 0.524081 -3.00809e-21)
(-0.381347 0.442144 0)
(-0.556293 0.495412 0)
(-0.76988 0.652229 -3.05089e-21)
(-1.01351 0.820333 0)
(-1.27125 0.979184 -5.93629e-23)
(-1.52827 1.13002 0)
(-1.75558 1.23089 0)
(-1.95132 1.28481 1.2508e-22)
(-2.134 1.32587 -3.61123e-21)
(-2.30307 1.34003 -3.93352e-21)
(-2.46244 1.32283 -3.91378e-21)
(-2.62147 1.29383 0)
(-2.78387 1.25304 -8.77525e-21)
(-2.9495 1.20178 0)
(-3.11775 1.14494 -4.94548e-21)
(-3.28487 1.08027 0)
(-3.44726 1.00871 0)
(-3.60184 0.930537 5.59303e-21)
(-3.74576 0.845639 0)
(-3.87805 0.755519 -5.97655e-21)
(-3.99779 0.661171 3.58242e-22)
(-4.10431 0.56373 1.21915e-20)
(-4.19696 0.463942 -1.27662e-20)
(-4.27464 0.362066 0)
(-4.33599 0.2583 0)
(-4.37935 0.152862 -6.84667e-21)
(-4.40333 0.0465079 0)
(-4.40671 -0.0606615 -5.97701e-21)
(-4.38752 -0.169266 5.84073e-21)
(-4.34427 -0.278984 5.66269e-21)
(-4.27524 -0.389271 0)
(-4.17937 -0.49852 -5.19133e-21)
(-4.05651 -0.604485 -4.90563e-21)
(-3.90767 -0.704324 9.7884e-21)
(-3.73505 -0.794958 -4.26194e-21)
(-3.54214 -0.873707 -3.91691e-21)
(-3.33372 -0.939044 0)
(-3.11571 -0.991253 0)
(-2.8941 -1.03242 2.8645e-21)
(-2.67329 -1.06573 0)
(-2.45526 -1.09473 0)
(-2.24076 -1.12318 -3.77347e-21)
(-2.03093 -1.15487 -3.18416e-21)
(-1.82697 -1.19241 0)
(-1.62937 -1.23665 0)
(-1.4368 -1.28625 0)
(-1.2448 -1.3359 0)
(-1.04593 -1.37671 -9.88895e-22)
(-0.835853 -1.40196 1.02658e-21)
(-0.618965 -1.40523 6.01342e-22)
(-0.410389 -1.36844 1.23912e-21)
(-0.171432 -1.16634 0)
(0.232368 -0.642714 -4.29015e-23)
(0.787562 0.080377 0)
(1.19111 0.592581 -1.39012e-22)
(1.29199 0.644099 -9.31669e-23)
(1.2419 0.480235 2.25454e-23)
(1.19756 0.561057 -3.26812e-23)
(1.15455 0.651326 -1.17163e-22)
(1.04972 0.324853 0)
(0.825577 -0.421644 9.05996e-23)
(0.564366 -1.29695 1.10577e-22)
(0.499093 -1.65902 4.44476e-22)
(0.57124 -1.37953 0)
(0.650123 -0.780547 -9.48834e-22)
(0.737571 -0.0943191 0)
(0.823918 0.435883 2.48199e-21)
(0.723885 0.759416 -1.00114e-21)
(0.233751 1.10897 7.8747e-22)
(-0.49003 1.53202 -6.47741e-22)
(-1.16822 1.87379 -2.02993e-21)
(-1.6665 2.03912 8.42387e-22)
(-1.98792 2.03052 -1.13792e-21)
(-2.19028 1.89306 0)
(-2.34377 1.69169 5.20243e-21)
(-2.49173 1.47725 0)
(-2.64825 1.27662 7.5065e-21)
(-2.81346 1.09928 -8.71827e-21)