/*--------------------------------*- C++ -*----------------------------------*\
  =========                 |
  \\      /  F ield         | OpenFOAM: The Open Source CFD Toolbox
   \\    /   O peration     | Website:  https://openfoam.org
    \\  /    A nd           | Version:  7
     \\/     M anipulation  |
\*---------------------------------------------------------------------------*/
FoamFile
{
    version     2.0;
    format      ascii;
    class       volVectorField;
    location    "0.1";
    object      UMean;
}
// * * * * * * * * * * * * * * * * * * * * * * * * * * * * * * * * * * * * * //

dimensions      [0 1 -1 0 0 0 0];

internalField   nonuniform List<vector> 
12225
(
(4.76816 0.164473 0)
(4.16889 0.11159 0)
(3.70374 0.0984851 0)
(3.33025 0.082098 0)
(2.99219 0.0691155 0)
(2.67466 0.0596679 0)
(2.37873 0.0515931 0)
(2.10913 0.0438881 0)
(1.86936 0.0359139 0)
(1.6605 0.0284761 0)
(1.48336 0.0206193 0)
(1.33613 0.014721 0)
(1.21766 0.00744787 0)
(1.12368 0.00570014 0)
(1.04795 -0.00221187 0)
(0.993173 0.00395799 0)
(0.938255 -0.0120048 0)
(0.914462 -0.00336666 0)
(5.02096 0.113749 0)
(4.87204 0.0745835 0)
(4.75278 0.0911286 0)
(4.66165 0.091139 0)
(4.56596 0.0902417 0)
(4.4573 0.0914417 0)
(4.33744 0.0925156 0)
(4.21211 0.0915859 0)
(4.08384 0.0888429 0)
(3.95793 0.0837128 0)
(3.83317 0.0778297 0)
(3.71698 0.0697211 0)
(3.60215 0.0631954 0)
(3.50182 0.0539769 0)
(3.39647 0.0503911 0)
(3.31306 0.040266 0)
(3.21134 0.041066 0)
(3.13873 0.0206606 0)
(4.99408 0.172187 0)
(4.87234 0.122982 0)
(4.79284 0.13184 0)
(4.76161 0.127036 0)
(4.74498 0.120789 0)
(4.72757 0.118527 0)
(4.70712 0.117776 0)
(4.68447 0.116469 0)
(4.65947 0.113156 0)
(4.63182 0.108669 0)
(4.60099 0.101982 0)
(4.56722 0.0955879 0)
(4.53103 0.0872426 0)
(4.49263 0.0818231 0)
(4.4537 0.0741925 0)
(4.41232 0.071423 0)
(4.37326 0.0651021 0)
(4.32605 0.0579534 0)
(4.98939 0.190521 0)
(4.89024 0.121923 0)
(4.81225 0.12128 0)
(4.77726 0.117933 0)
(4.76308 0.111764 0)
(4.75395 0.108775 0)
(4.74696 0.108359 0)
(4.74275 0.107808 0)
(4.74117 0.106029 0)
(4.74077 0.102605 0)
(4.74039 0.0983111 0)
(4.73857 0.0928813 0)
(4.73566 0.0878897 0)
(4.73028 0.0824064 0)
(4.72499 0.0788475 0)
(4.7167 0.0746989 0)
(4.71123 0.0722589 0)
(4.69997 0.0682085 0)
(4.99571 0.21438 0)
(4.91979 0.144748 0)
(4.84945 0.136856 0)
(4.81218 0.133392 0)
(4.79585 0.125581 0)
(4.78583 0.119448 0)
(4.77819 0.116128 0)
(4.7734 0.113699 0)
(4.77193 0.110474 0)
(4.77273 0.106301 0)
(4.77486 0.101192 0)
(4.77697 0.0958123 0)
(4.77909 0.0902761 0)
(4.78037 0.0852654 0)
(4.78198 0.0809452 0)
(4.78288 0.0770774 0)
(4.78509 0.0741696 0)
(4.78581 0.0698048 0)
(4.98912 0.231216 0)
(4.933 0.160496 0)
(4.8729 0.143703 0)
(4.83685 0.138131 0)
(4.82046 0.129287 0)
(4.8114 0.121148 0)
(4.80464 0.11591 0)
(4.80009 0.112223 0)
(4.79835 0.108447 0)
(4.79886 0.103896 0)
(4.80075 0.0987604 0)
(4.80294 0.0932852 0)
(4.80527 0.0879608 0)
(4.8072 0.0829502 0)
(4.80946 0.0785829 0)
(4.81144 0.0747388 0)
(4.81437 0.0712039 0)
(4.81648 0.0676099 0)
(5.00014 0.244997 0)
(4.95778 0.176694 0)
(4.90665 0.153012 0)
(4.87177 0.144615 0)
(4.85433 0.135166 0)
(4.84513 0.125764 0)
(4.8386 0.118748 0)
(4.83393 0.113661 0)
(4.83166 0.109013 0)
(4.83153 0.103994 0)
(4.83287 0.0985722 0)
(4.83469 0.0929924 0)
(4.8368 0.0875811 0)
(4.83864 0.0824916 0)
(4.84086 0.0779606 0)
(4.84272 0.0738428 0)
(4.84552 0.0701221 0)
(4.84728 0.066575 0)
(5.00359 0.255486 0)
(4.97327 0.191736 0)
(4.93186 0.16321 0)
(4.90027 0.151233 0)
(4.88317 0.140901 0)
(4.8746 0.130476 0)
(4.86911 0.121836 0)
(4.86515 0.115196 0)
(4.86308 0.109496 0)
(4.86288 0.103849 0)
(4.86413 0.0980457 0)
(4.86597 0.0922425 0)
(4.86821 0.0866702 0)
(4.87026 0.0814877 0)
(4.87275 0.0767607 0)
(4.87482 0.0725011 0)
(4.87782 0.0685947 0)
(4.87972 0.065065 0)
(5.00347 0.262288 0)
(4.98241 0.203686 0)
(4.94995 0.172117 0)
(4.92245 0.15649 0)
(4.90636 0.144882 0)
(4.8985 0.133673 0)
(4.89408 0.123842 0)
(4.89106 0.115941 0)
(4.88945 0.109321 0)
(4.88934 0.103146 0)
(4.8906 0.0970405 0)
(4.89255 0.0910253 0)
(4.89502 0.0852731 0)
(4.89742 0.0799271 0)
(4.90024 0.0750283 0)
(4.90272 0.070613 0)
(4.90598 0.0665681 0)
(4.90835 0.0630119 0)
(4.99792 0.269389 0)
(4.9841 0.21532 0)
(4.95935 0.181883 0)
(4.93624 0.162977 0)
(4.92159 0.149675 0)
(4.91427 0.137591 0)
(4.9106 0.12671 0)
(4.9084 0.117585 0)
(4.9074 0.109918 0)
(4.90772 0.10303 0)
(4.9093 0.0964672 0)
(4.91159 0.0901567 0)
(4.91439 0.0841703 0)
(4.91718 0.078637 0)
(4.9203 0.0735526 0)
(4.92315 0.0689845 0)
(4.92663 0.0647862 0)
(4.92949 0.0611286 0)
(4.99523 0.27155 0)
(4.98551 0.223 0)
(4.96602 0.189055 0)
(4.94655 0.167617 0)
(4.93338 0.152565 0)
(4.92655 0.139652 0)
(4.92338 0.128007 0)
(4.92182 0.117919 0)
(4.92132 0.109331 0)
(4.92187 0.101755 0)
(4.92353 0.0947405 0)
(4.92588 0.0881299 0)
(4.92878 0.0819082 0)
(4.93173 0.0761755 0)
(4.93506 0.0708879 0)
(4.93816 0.0661269 0)
(4.94194 0.0617123 0)
(4.94513 0.0578422 0)
(5.00377 0.274838 0)
(4.99597 0.230394 0)
(4.98027 0.196519 0)
(4.96379 0.173247 0)
(4.95185 0.156477 0)
(4.94525 0.142564 0)
(4.94224 0.13015 0)
(4.94105 0.119228 0)
(4.94094 0.109789 0)
(4.94174 0.101532 0)
(4.94347 0.094051 0)
(4.94581 0.0871298 0)
(4.94871 0.0806668 0)
(4.95167 0.0747191 0)
(4.95506 0.069211 0)
(4.95822 0.0642339 0)
(4.96209 0.0595789 0)
(4.96536 0.0554628 0)
(5.00132 0.278326 0)
(4.99631 0.235695 0)
(4.98457 0.202106 0)
(4.97171 0.177491 0)
(4.96218 0.159104 0)
(4.95692 0.144051 0)
(4.95476 0.130829 0)
(4.95425 0.119151 0)
(4.95466 0.10898 0)
(4.95577 0.100113 0)
(4.95767 0.0921856 0)
(4.9601 0.0849484 0)
(4.9631 0.0782312 0)
(4.96619 0.0720421 0)
(4.96973 0.0662866 0)
(4.97304 0.0610572 0)
(4.97709 0.0561386 0)
(4.98048 0.0517428 0)
(5.00453 0.280668 0)
(5.00279 0.241067 0)
(4.99482 0.208265 0)
(4.98521 0.182603 0)
(4.97788 0.162658 0)
(4.97387 0.146395 0)
(4.97247 0.13237 0)
(4.9726 0.120006 0)
(4.97364 0.109133 0)
(4.97529 0.099587 0)
(4.9776 0.0910941 0)
(4.98036 0.0834254 0)
(4.98365 0.0763717 0)
(4.98704 0.0698969 0)
(4.99086 0.0638639 0)
(4.99444 0.0583533 0)
(4.99869 0.0531246 0)
(5.00229 0.0484104 0)
(5.00037 0.279679 0)
(5.00061 0.243492 0)
(4.99568 0.211592 0)
(4.98941 0.185274 0)
(4.98486 0.164049 0)
(4.98283 0.146579 0)
(4.98288 0.131634 0)
(4.98425 0.118533 0)
(4.98644 0.106974 0)
(4.98911 0.0967808 0)
(4.99225 0.0877204 0)
(4.99567 0.0795849 0)
(4.9995 0.0721451 0)
(5.00335 0.0653269 0)
(5.00757 0.058965 0)
(5.01153 0.0531233 0)
(5.0161 0.047559 0)
(5.01999 0.0424911 0)
(5.00842 0.282167 0)
(5.00939 0.247848 0)
(5.00679 0.216391 0)
(5.00342 0.18931 0)
(5.00143 0.166712 0)
(5.00127 0.147791 0)
(5.0026 0.131608 0)
(5.00492 0.117523 0)
(5.0079 0.105168 0)
(5.01127 0.0943144 0)
(5.01501 0.0847045 0)
(5.01895 0.07612 0)
(5.02318 0.0683061 0)
(5.02742 0.0611641 0)
(5.03192 0.0544955 0)
(5.03615 0.0483619 0)
(5.04081 0.0424952 0)
(5.04484 0.0371455 0)
(4.99927 0.28074 0)
(5.00128 0.246216 0)
(5.00114 0.214968 0)
(5.00124 0.187666 0)
(5.00274 0.164325 0)
(5.00549 0.144464 0)
(5.00904 0.127429 0)
(5.01305 0.112644 0)
(5.01737 0.0996676 0)
(5.02187 0.0881995 0)
(5.02654 0.0779766 0)
(5.03127 0.0688108 0)
(5.03614 0.060482 0)
(5.04092 0.052889 0)
(5.04582 0.045834 0)
(5.05043 0.0393378 0)
(5.05529 0.0331497 0)
(5.05958 0.027449 0)
(5.0005 0.284434 0)
(5.00431 0.247351 0)
(5.00655 0.214517 0)
(5.00919 0.185917 0)
(5.01338 0.16129 0)
(5.01876 0.140229 0)
(5.02463 0.122217 0)
(5.03056 0.10674 0)
(5.03643 0.0933298 0)
(5.04219 0.0816131 0)
(5.04787 0.0712559 0)
(5.05339 0.062028 0)
(5.05885 0.0536795 0)
(5.06404 0.0461072 0)
(5.06924 0.0390975 0)
(5.074 0.0326844 0)
(5.07893 0.0265928 0)
(5.0831 0.0210361 0)
(5.00016 0.279512 0)
(5.00749 0.240908 0)
(5.01406 0.206208 0)
(5.02097 0.175947 0)
(5.02911 0.150082 0)
(5.03801 0.128131 0)
(5.04695 0.109423 0)
(5.05553 0.0933074 0)
(5.06372 0.0792486 0)
(5.07152 0.0668654 0)
(5.07899 0.0558601 0)
(5.08603 0.0460301 0)
(5.09271 0.0371646 0)
(5.09883 0.0291507 0)
(5.10468 0.0217967 0)
(5.1099 0.0150828 0)
(5.11513 0.00878058 0)
(5.11956 0.00300928 0)
(5.00218 0.275461 0)
(5.01085 0.232409 0)
(5.02092 0.194097 0)
(5.03266 0.161729 0)
(5.04561 0.13511 0)
(5.05844 0.113255 0)
(5.07027 0.0950677 0)
(5.08096 0.0797158 0)
(5.09079 0.0666314 0)
(5.09997 0.0554198 0)
(5.10866 0.0457211 0)
(5.11679 0.0372378 0)
(5.12443 0.0296651 0)
(5.13143 0.0228384 0)
(5.13804 0.0165391 0)
(5.14395 0.0107618 0)
(5.14967 0.00528303 0)
(5.15451 0.000258082 0)
(5.00166 0.272852 0)
(5.01237 0.222319 0)
(5.02689 0.179315 0)
(5.04431 0.144853 0)
(5.06272 0.11752 0)
(5.08016 0.0951647 0)
(5.09572 0.0761882 0)
(5.10945 0.0598216 0)
(5.12176 0.0457712 0)
(5.13292 0.0338258 0)
(5.14306 0.0236657 0)
(5.15216 0.0149331 0)
(5.16039 0.00727745 0)
(5.16774 0.000473768 0)
(5.17453 -0.00569249 0)
(5.18054 -0.0112817 0)
(5.1863 -0.0164624 0)
(5.19116 -0.0211705 0)
(5.00317 0.267142 0)
(5.01881 0.206948 0)
(5.04017 0.160043 0)
(5.06404 0.125927 0)
(5.0869 0.101106 0)
(5.10674 0.0819678 0)
(5.12359 0.0662489 0)
(5.13844 0.0529712 0)
(5.15212 0.0417164 0)
(5.16481 0.0321444 0)
(5.17645 0.0238654 0)
(5.1869 0.016568 0)
(5.19627 0.0100021 0)
(5.20456 0.00406421 0)
(5.21212 -0.00137941 0)
(5.21875 -0.00632669 0)
(5.22499 -0.0109609 0)
(5.23024 -0.0151905 0)
(4.99935 0.261305 0)
(5.0241 0.1892 0)
(5.05665 0.136832 0)
(5.09004 0.10098 0)
(5.1193 0.0749164 0)
(5.14302 0.0537739 0)
(5.16235 0.0358527 0)
(5.17899 0.0211108 0)
(5.19389 0.00946552 0)
(5.20724 0.000325706 0)
(5.21907 -0.00710777 0)
(5.2294 -0.0134471 0)
(5.23853 -0.0190487 0)
(5.24654 -0.0240619 0)
(5.25384 -0.0286013 0)
(5.2602 -0.0327113 0)
(5.26617 -0.0365098 0)
(5.2711 -0.039985 0)
(5.00629 0.245354 0)
(5.04029 0.16546 0)
(5.08432 0.116877 0)
(5.12532 0.0898565 0)
(5.15764 0.0716595 0)
(5.18241 0.0555974 0)
(5.20312 0.041016 0)
(5.22202 0.0287193 0)
(5.23946 0.0188082 0)
(5.25493 0.0107138 0)
(5.2683 0.00380234 0)
(5.27972 -0.00228341 0)
(5.28971 -0.00771095 0)
(5.29847 -0.012538 0)
(5.3064 -0.0168903 0)
(5.31331 -0.0208163 0)
(5.31972 -0.0244785 0)
(5.3251 -0.0278312 0)
(5.00236 0.229269 0)
(5.05284 0.127867 0)
(5.11502 0.0738559 0)
(5.16605 0.046314 0)
(5.2014 0.0267177 0)
(5.2268 0.00946564 0)
(5.24829 -0.00431517 0)
(5.26804 -0.0140431 0)
(5.28588 -0.0208824 0)
(5.30132 -0.0262845 0)
(5.31449 -0.0310335 0)
(5.32579 -0.0353243 0)
(5.33579 -0.0391666 0)
(5.34461 -0.0425879 0)
(5.35263 -0.0456782 0)
(5.3596 -0.0485084 0)
(5.36606 -0.0511633 0)
(5.37143 -0.0536533 0)
(5.01443 0.212681 0)
(5.08711 0.113333 0)
(5.16752 0.0784162 0)
(5.22545 0.0626985 0)
(5.262 0.0449772 0)
(5.28895 0.0271213 0)
(5.31337 0.0131016 0)
(5.33595 0.0033597 0)
(5.35553 -0.00373957 0)
(5.37174 -0.00959749 0)
(5.38522 -0.0147763 0)
(5.39672 -0.0193776 0)
(5.40686 -0.0234417 0)
(5.41578 -0.0270448 0)
(5.42379 -0.0303062 0)
(5.43074 -0.0332847 0)
(5.43713 -0.0360725 0)
(5.4425 -0.0386418 0)
(5.01026 0.160787 0)
(5.12247 0.0353219 0)
(5.222 0.00743452 0)
(5.28033 -0.00183272 0)
(5.31362 -0.015813 0)
(5.34013 -0.0280085 0)
(5.36548 -0.0354264 0)
(5.3888 -0.0398792 0)
(5.40872 -0.0433839 0)
(5.42523 -0.0466444 0)
(5.43916 -0.0496392 0)
(5.45123 -0.0522957 0)
(5.46194 -0.0546377 0)
(5.47139 -0.0567508 0)
(5.47988 -0.0586926 0)
(5.48727 -0.0605178 0)
(5.49406 -0.0622544 0)
(5.49978 -0.0639252 0)
(5.01637 0.152845 0)
(5.17752 0.0584492 0)
(5.30172 0.0448658 0)
(5.36328 0.0287106 0)
(5.3973 0.00963342 0)
(5.42669 -0.00397461 0)
(5.45455 -0.0119428 0)
(5.47897 -0.0173629 0)
(5.49911 -0.0219898 0)
(5.51553 -0.0261893 0)
(5.52918 -0.0298917 0)
(5.54075 -0.0331424 0)
(5.55063 -0.0360114 0)
(5.55901 -0.038637 0)
(5.56607 -0.0410323 0)
(5.57188 -0.0433042 0)
(5.5767 -0.0454197 0)
(5.58045 -0.0474853 0)
(5.01994 0.0198567 0)
(5.23022 -0.0516611 0)
(5.35701 -0.0341999 0)
(5.41201 -0.0427115 0)
(5.44307 -0.0528554 0)
(5.46765 -0.0574253 0)
(5.48668 -0.0591271 0)
(5.4987 -0.0603392 0)
(5.50373 -0.0615974 0)
(5.50297 -0.0627982 0)
(5.49759 -0.0638238 0)
(5.48873 -0.0647026 0)
(5.47682 -0.0654497 0)
(5.46267 -0.0661457 0)
(5.44615 -0.0667567 0)
(5.42833 -0.0673699 0)
(5.40838 -0.0679231 0)
(5.38819 -0.0685519 0)
(4.96917 0.0703527 0)
(5.10362 -0.000732332 0)
(5.0758 -0.000568909 0)
(4.96264 -0.0109507 0)
(4.83566 -0.0186914 0)
(4.71156 -0.0217524 0)
(4.59096 -0.0229421 0)
(4.47233 -0.0237163 0)
(4.35525 -0.0242939 0)
(4.24039 -0.0246441 0)
(4.12845 -0.0247888 0)
(4.02013 -0.0247945 0)
(3.91541 -0.0247107 0)
(3.81466 -0.024583 0)
(3.71719 -0.0244109 0)
(3.6239 -0.0242343 0)
(3.5331 -0.0240279 0)
(3.44722 -0.023889 0)
(-0.0343143 0.0843484 7.5298e-22)
(-0.0952237 0.0529359 -7.46213e-22)
(-0.117697 0.013 0)
(-0.103306 -0.02552 0)
(-0.0579256 -0.0556837 0)
(0.00819425 -0.0761229 7.19986e-22)
(0.0872277 -0.0885178 0)
(0.174106 -0.094717 0)
(0.263894 -0.0952037 0)
(0.353064 -0.0925372 0)
(0.438719 -0.0903026 -6.83206e-22)
(0.520001 -0.089255 0)
(0.596511 -0.0836855 0)
(0.667148 -0.0725154 0)
(0.72918 -0.0594038 0)
(0.779475 -0.0454707 -5.97743e-22)
(0.816993 -0.0308829 0)
(0.84209 -0.0165499 0)
(0.854691 -0.00261998 0)
(0.853547 0.0109573 0)
(0.837979 0.0244857 0)
(0.807304 0.0384162 0)
(0.761397 0.0525999 0)
(0.70057 0.0657415 -5.22156e-22)
(0.625708 0.0766197 5.22099e-22)
(0.538019 0.0854969 -5.22475e-22)
(0.439335 0.0926941 -5.22729e-22)
(0.332229 0.0959049 0)
(0.220994 0.0947838 0)
(0.108464 0.0878948 5.18715e-22)
(-7.08501e-05 0.0749497 5.15261e-22)
(-0.103717 0.0630686 0)
(-0.207049 0.0572195 0)
(-0.314189 0.0581267 4.98717e-22)
(-0.42502 0.0648674 0)
(-0.537921 0.0704175 0)
(-0.650531 0.0665635 -4.75857e-22)
(-0.760375 0.0583307 0)
(-0.866303 0.0588627 -4.57155e-22)
(-0.970476 0.058535 -8.95195e-22)
(-1.06687 0.0514638 0)
(-1.1559 0.0516603 0)
(-1.23919 0.0418337 0)
(-1.30322 0.0237445 0)
(-1.35494 0.0152888 0)
(-1.39687 0.0180706 -7.9213e-22)
(-1.43506 0.0210928 -7.8012e-22)
(-1.46633 0.017325 -7.69686e-22)
(-1.48882 0.0131129 0)
(-1.50372 0.00880718 7.56751e-22)
(-1.51119 0.0043722 0)
(-1.51304 0.00109426 -7.55489e-22)
(-1.51006 -0.000377161 -7.58467e-22)
(-1.50227 -0.00119518 0)
(-1.48876 -0.00347519 0)
(-1.46801 -0.00735634 0)
(-1.4413 -0.0104094 -7.79403e-22)
(-1.41377 -0.0116595 0)
(-1.3894 -0.0130364 0)
(-1.36695 -0.0134241 0)
(-1.34651 -0.0115521 0)
(-1.33023 -0.00756683 0)
(-1.31987 -0.00247514 0)
(-1.31616 0.00215423 0)
(-1.31865 0.00639092 0)
(-1.32652 0.0103389 8.17151e-22)
(-1.33742 0.0136997 0)
(-1.34859 0.01773 0)
(-1.36018 0.0211762 -8.09851e-22)
(-1.37124 0.0201103 -8.04965e-22)
(-1.37884 0.0169697 0)
(-1.38649 0.0114501 7.94281e-22)
(-1.39387 0.0021543 -7.89655e-22)
(-1.39828 -0.000856285 0)
(-1.39996 0.000368336 7.84109e-22)
(-1.39183 -0.00364727 0)
(-1.37294 -0.00755631 0)
(-1.35226 -0.00492414 -7.81149e-22)
(-1.33746 0.000695831 0)
(-1.32862 0.0044034 7.68167e-22)
(-1.3232 0.00576339 0)
(-1.31912 0.00503262 -7.58277e-22)
(-1.31405 0.0017795 -7.58716e-22)
(-1.30403 -0.00342053 -7.62527e-22)
(-1.28577 -0.00844252 -1.5384e-21)
(-1.26019 -0.011811 1.55712e-21)
(-1.23062 -0.0132348 0)
(-1.19992 -0.0125026 0)
(-1.16964 -0.00982424 0)
(-1.13987 -0.00730379 1.66642e-21)
(-1.1074 -0.00775244 1.6973e-21)
(-1.06857 -0.0108565 -1.72783e-21)
(-1.02219 -0.014682 0)
(-0.968492 -0.0183857 1.79063e-21)
(-0.908092 -0.0217076 1.8244e-21)
(-0.841755 -0.0245636 1.86021e-21)
(-0.770245 -0.0269515 0)
(-0.694306 -0.0289037 0)
(-0.614611 -0.0304457 0)
(-0.531796 -0.0316182 2.02146e-21)
(-0.446476 -0.0324343 0)
(-0.359272 -0.0329272 0)
(-0.2708 -0.0331071 -2.15069e-21)
(-0.181672 -0.0329969 0)
(-0.0924902 -0.0326109 0)
(-0.00382766 -0.0319791 -2.27067e-21)
(0.0837826 -0.0311353 0)
(0.16991 -0.030129 0)
(0.254235 -0.0290181 2.36884e-21)
(0.336561 -0.0278584 2.39582e-21)
(0.416799 -0.0267091 0)
(0.49498 -0.0256067 -2.44149e-21)
(0.571224 -0.0245911 0)
(0.64568 -0.0236638 2.4769e-21)
(0.718488 -0.0228024 0)
(0.789707 -0.0219714 2.50195e-21)
(0.859283 -0.0211092 2.50999e-21)
(0.927036 -0.0201594 0)
(0.992631 -0.0190799 0)
(1.05564 -0.0178386 0)
(1.11564 -0.0164447 0)
(1.17223 -0.0149291 0)
(1.22508 -0.0133373 0)
(1.27398 -0.0116896 0)
(1.3188 -0.0100738 2.43386e-21)
(1.35946 -0.00858163 -2.40908e-21)
(1.39611 -0.00707501 0)
(1.42887 -0.00562869 0)
(1.45779 -0.00424636 0)
(1.48296 -0.00293021 0)
(1.50449 -0.00168278 -4.52755e-21)
(1.52248 -0.000506432 0)
(1.53706 0.000597733 4.40381e-21)
(1.54834 0.0016299 -4.34229e-21)
(1.55645 0.00259038 0)
(1.56154 0.00347813 0)
(1.56373 0.00429154 0)
(1.56317 0.00503122 4.1054e-21)
(1.56001 0.00569605 4.04938e-21)
(1.55442 0.00628432 0)
(1.54656 0.00679964 3.94184e-21)
(1.53661 0.00723893 3.89032e-21)
(1.52476 0.00759964 -3.84027e-21)
(1.51121 0.00787125 0)
(1.4962 0.00803836 0)
(1.47998 0.00808839 -3.69808e-21)
(1.46284 0.00800702 0)
(1.4451 0.00777035 0)
(1.42713 0.00735852 0)
(1.40933 0.00677105 0)
(1.39217 0.00601878 3.48135e-21)
(1.37609 0.00511206 3.4402e-21)
(1.36157 0.00408746 0)
(1.349 0.0030459 3.35987e-21)
(1.33854 0.00211824 0)
(1.33013 0.00140123 0)
(1.32348 0.000923671 3.24445e-21)
(1.3182 0.000652526 0)
(1.31388 0.000530458 3.17011e-21)
(1.31021 0.000501812 0)
(1.3069 0.000527264 0)
(1.30384 0.000582371 3.06068e-21)
(1.30081 0.000658262 0)
(1.29783 0.000746465 2.98884e-21)
(1.29466 0.000852106 0)
(1.29143 0.00097114 0)
(1.2877 0.00112096 0)
(1.28384 0.00129023 -2.84845e-21)
(1.27895 0.00152576 0)
(1.27393 0.00178101 2.7804e-21)
(1.26697 0.00218563 0)
(1.25985 0.00256378 0)
(1.24942 0.00333355 0)
(1.23814 0.00383221 0)
(1.22255 0.00553702 0)
(1.20129 0.00585503 0)
(1.1809 0.0104306 0)
(1.12938 0.00880623 -5.08093e-21)
(1.11834 0.0242183 0)
(0.963406 0.0150884 0)
(-0.00204053 0.175664 -2.24657e-21)
(-0.0117303 0.111564 2.22704e-21)
(0.0110329 -0.00059768 0)
(0.0517789 -0.101004 -1.44831e-21)
(0.111224 -0.176749 0)
(0.180461 -0.226692 -7.20757e-22)
(0.259764 -0.256522 1.40815e-21)
(0.342853 -0.270559 1.39362e-21)
(0.426242 -0.271662 0)
(0.50537 -0.261972 1.35482e-21)
(0.576909 -0.244921 6.84064e-22)
(0.63845 -0.224902 0)
(0.688903 -0.205785 0)
(0.730984 -0.185448 0)
(0.767265 -0.156874 0)
(0.796161 -0.122252 5.98445e-22)
(0.816862 -0.087125 0)
(0.828981 -0.0529432 -1.08641e-21)
(0.829849 -0.0180579 0)
(0.818438 0.0188991 0)
(0.794808 0.0577447 1.02416e-21)
(0.758884 0.0967915 0)
(0.709988 0.134351 -1.01093e-21)
(0.647267 0.170303 5.22879e-22)
(0.570964 0.204235 -5.22857e-22)
(0.483341 0.234015 5.23278e-22)
(0.387574 0.25735 5.23577e-22)
(0.286269 0.272255 0)
(0.182762 0.278423 0)
(0.078748 0.277133 -5.19663e-22)
(-0.0266581 0.27128 4.83311e-22)
(-0.138954 0.271258 0)
(-0.256937 0.280261 0)
(-0.375881 0.287302 -4.9967e-22)
(-0.491938 0.285647 0)
(-0.605725 0.27915 0)
(-0.719319 0.275383 4.76805e-22)
(-0.834327 0.270127 0)
(-0.945883 0.258899 -4.0868e-22)
(-1.05381 0.243739 8.96964e-22)
(-1.15913 0.225048 0)
(-1.25482 0.203849 0)
(-1.34248 0.174713 1.57782e-21)
(-1.42173 0.144982 1.54387e-21)
(-1.49505 0.118109 1.5131e-21)
(-1.55347 0.0944029 -6.9178e-22)
(-1.59881 0.0749678 7.81476e-22)
(-1.63305 0.0566928 2.21281e-21)
(-1.65737 0.037956 -1.42783e-21)
(-1.6735 0.0203249 -7.57931e-22)
(-1.68319 0.00641749 0)
(-1.68736 -0.00505955 7.56595e-22)
(-1.68542 -0.0168106 -6.71775e-22)
(-1.67736 -0.0300809 0)
(-1.66311 -0.0449528 0)
(-1.6417 -0.0595666 0)
(-1.61443 -0.0651682 7.80298e-22)
(-1.58389 -0.0590815 0)
(-1.55553 -0.050589 -1.50308e-21)
(-1.52921 -0.0444202 0)
(-1.50477 -0.037583 -1.52218e-21)
(-1.48451 -0.0290356 0)
(-1.46898 -0.0182876 1.54383e-21)
(-1.45932 -0.00626013 0)
(-1.45587 0.00406787 -1.56304e-21)
(-1.45774 0.00983936 7.51051e-22)
(-1.46336 0.0104459 0)
(-1.47044 0.00761074 1.56993e-21)
(-1.47659 0.00372081 8.10438e-22)
(-1.48172 0.000199232 8.05514e-22)
(-1.48435 0.0002269 0)
(-1.48406 0.00560547 7.50436e-22)
(-1.48592 0.0104314 7.90158e-22)
(-1.49174 0.00674389 0)
(-1.49293 -0.0085035 -7.84547e-22)
(-1.4839 -0.0282447 1.51681e-21)
(-1.46884 -0.040074 0)
(-1.45082 -0.0389032 7.81475e-22)
(-1.43169 -0.0301333 0)
(-1.41284 -0.0212964 -2.24861e-21)
(-1.39485 -0.0163058 0)
(-1.37675 -0.0156332 2.2275e-21)
(-1.35818 -0.0194035 7.58993e-22)
(-1.33816 -0.0275705 -7.22457e-22)
(-1.31465 -0.0379788 -1.46427e-21)
(-1.28808 -0.0463394 1.48693e-21)
(-1.25985 -0.0498103 0)
(-1.22898 -0.0501692 0)
(-1.19233 -0.0517268 0)
(-1.14739 -0.0570076 -4.93393e-21)
(-1.09408 -0.0656031 -1.69757e-21)
(-1.03301 -0.0756366 1.72812e-21)
(-0.965282 -0.0854984 0)
(-0.891779 -0.0944503 1.73944e-21)
(-0.813313 -0.102226 -1.82462e-21)
(-0.730554 -0.108792 -1.86039e-21)
(-0.644121 -0.114219 0)
(-0.554544 -0.11861 0)
(-0.462297 -0.122049 0)
(-0.3678 -0.124611 -2.02147e-21)
(-0.271467 -0.12634 0)
(-0.173718 -0.127264 4.19174e-21)
(-0.0750052 -0.127389 6.43026e-21)
(0.0241628 -0.126736 -4.36532e-21)
(0.123264 -0.125326 0)
(0.221789 -0.123232 -2.25479e-21)
(0.31926 -0.120544 0)
(0.415296 -0.117391 -4.66453e-21)
(0.5096 -0.113919 2.35653e-21)
(0.601997 -0.110293 2.38421e-21)
(0.692432 -0.106675 0)
(0.780961 -0.103199 7.31333e-21)
(0.867724 -0.0999578 -4.91033e-21)
(0.952903 -0.0969676 -2.47666e-21)
(1.03665 -0.0941689 0)
(1.11904 -0.0914431 -2.50169e-21)
(1.20001 -0.0886143 -7.5214e-21)
(1.27938 -0.0855078 0)
(1.35676 -0.0819922 -5.02355e-21)
(1.43171 -0.0779853 -5.01707e-21)
(1.50376 -0.0735058 -5.00187e-21)
(1.57252 -0.0686608 0)
(1.63765 -0.0635803 0)
(1.69893 -0.058439 0)
(1.75625 -0.0534427 2.43017e-21)
(1.80959 -0.0485611 2.40866e-21)
(1.85914 -0.0437961 0)
(1.90499 -0.0391918 4.70456e-21)
(1.9472 -0.0347585 4.64594e-21)
(1.98587 -0.0305014 0)
(2.0211 -0.0264242 4.52667e-21)
(2.05299 -0.0225304 8.9255e-21)
(2.08165 -0.0188232 -4.40291e-21)
(2.10722 -0.0153035 -4.33779e-21)
(2.12981 -0.0119712 0)
(2.14955 -0.00882688 0)
(2.16656 -0.00587201 0)
(2.18098 -0.00310889 -4.10446e-21)
(2.19295 -0.00054203 4.04582e-21)
(2.20261 0.0018226 7.98533e-21)
(2.21014 0.00398103 -3.94086e-21)
(2.2157 0.00592861 3.88719e-21)
(2.21946 0.00766194 3.83927e-21)
(2.22161 0.00918032 0)
(2.22231 0.0104683 0)
(2.22172 0.0115121 -3.69555e-21)
(2.21999 0.0123044 0)
(2.21726 0.0128275 0)
(2.21365 0.0130525 7.12824e-21)
(2.20928 0.0129513 0)
(2.20433 0.0125038 3.4799e-21)
(2.19897 0.0117043 -3.43913e-21)
(2.19344 0.0105734 0)
(2.18799 0.0091752 3.35918e-21)
(2.18284 0.00763859 0)
(2.17818 0.00613211 0)
(2.17415 0.00480784 -3.24343e-21)
(2.1708 0.00374974 6.41259e-21)
(2.16806 0.00296842 -3.16911e-21)
(2.16586 0.00242435 0)
(2.16405 0.00206177 0)
(2.16257 0.00182701 3.0598e-21)
(2.16127 0.00169033 0)
(2.16017 0.00162883 2.98787e-21)
(2.15909 0.00165245 0)
(2.15811 0.00173883 0)
(2.15697 0.0019448 0)
(2.1558 0.00220166 2.84754e-21)
(2.15414 0.00267622 0)
(2.15227 0.00313847 -2.77951e-21)
(2.14949 0.00407987 0)
(2.14604 0.00476809 0)
(2.14134 0.00666049 5.36176e-21)
(2.13452 0.00749332 -5.29905e-21)
(2.12715 0.0115882 0)
(2.11247 0.0120819 0)
(2.10307 0.0218288 0)
(2.06789 0.0203866 1.52239e-20)
(2.06389 0.046437 0)
(1.97435 0.0416377 -9.9513e-21)
(0.0136309 0.122187 4.04826e-24)
(0.0614721 0.0340679 -2.96003e-21)
(0.128088 -0.105837 0)
(0.194663 -0.224632 2.89417e-21)
(0.265507 -0.313679 0)
(0.339353 -0.374174 0)
(0.413231 -0.409742 -2.85852e-23)
(0.483121 -0.422367 -1.39518e-21)
(0.546344 -0.41492 -1.33252e-21)
(0.601264 -0.391132 -1.35626e-21)
(0.646823 -0.355672 0)
(0.682448 -0.31325 0)
(0.70728 -0.269133 1.20499e-21)
(0.720662 -0.227542 2.33485e-21)
(0.724565 -0.186615 -2.25865e-21)
(0.722723 -0.141212 0)
(0.715737 -0.0917818 -2.11409e-21)
(0.703073 -0.0393366 1.08726e-21)
(0.681681 0.0188708 0)
(0.649921 0.0797465 -1.96234e-21)
(0.606979 0.137987 -1.0249e-21)
(0.550646 0.195242 1.92176e-21)
(0.479594 0.255185 1.01172e-21)
(0.395907 0.314644 0)
(0.302545 0.366894 -1.92186e-21)
(0.203224 0.408166 -1.92774e-21)
(0.10108 0.43662 0)
(-0.00173031 0.451271 -1.93323e-21)
(-0.103625 0.452249 0)
(-0.204884 0.444063 -1.91751e-21)
(-0.309848 0.443667 -1.00061e-21)
(-0.41799 0.451265 0)
(-0.522736 0.454188 0)
(-0.622947 0.451621 0)
(-0.720141 0.448211 0)
(-0.815286 0.444823 0)
(-0.906864 0.437168 0)
(-0.994702 0.425221 -1.65124e-21)
(-1.0786 0.411264 2.47482e-21)
(-1.15857 0.390498 0)
(-1.23426 0.362524 0)
(-1.30516 0.332617 0)
(-1.37229 0.295803 -1.39201e-22)
(-1.43455 0.252268 -1.54569e-21)
(-1.49024 0.209462 -2.88638e-21)
(-1.53872 0.170455 2.82898e-21)
(-1.57954 0.135626 1.31732e-21)
(-1.6128 0.102915 -1.4431e-21)
(-1.63948 0.0726482 1.44294e-22)
(-1.6605 0.0459948 -1.27824e-21)
(-1.67525 0.0231904 0)
(-1.68286 0.00283499 -1.28661e-21)
(-1.68325 -0.0164991 1.31948e-22)
(-1.67732 -0.0356885 0)
(-1.66589 -0.0567398 0)
(-1.64917 -0.0791984 1.35579e-21)
(-1.62874 -0.0931222 0)
(-1.60345 -0.0939905 0)
(-1.57703 -0.0902269 -1.28953e-21)
(-1.54918 -0.085341 -2.81546e-21)
(-1.52026 -0.0751172 1.52236e-21)
(-1.49403 -0.0598492 0)
(-1.47176 -0.0409042 -1.54396e-21)
(-1.45366 -0.0205352 0)
(-1.43957 -0.00180508 -1.36401e-21)
(-1.42966 0.0131806 -1.56888e-21)
(-1.42443 0.0233392 2.96438e-21)
(-1.42457 0.029146 1.40545e-21)
(-1.43067 0.0307206 0)
(-1.44321 0.026276 -2.98133e-21)
(-1.45957 0.017061 0)
(-1.47105 0.0114082 -4.50742e-21)
(-1.47242 0.0097968 -2.94491e-21)
(-1.46899 0.00311888 -2.92566e-21)
(-1.4636 -0.0143786 2.9084e-21)
(-1.45717 -0.037047 -4.40956e-21)
(-1.4501 -0.0525844 0)
(-1.4397 -0.0553034 0)
(-1.42426 -0.048609 2.82926e-21)
(-1.40556 -0.0402901 4.28937e-21)
(-1.38436 -0.0361503 0)
(-1.36042 -0.0370383 -1.46862e-21)
(-1.33434 -0.0426566 0)
(-1.30682 -0.0526436 4.33465e-21)
(-1.27814 -0.0639167 1.13978e-22)
(-1.24834 -0.0724784 -1.09349e-22)
(-1.21504 -0.0788025 -2.98628e-21)
(-1.17462 -0.0864829 0)
(-1.12566 -0.0972246 3.10432e-21)
(-1.06873 -0.110766 9.76721e-23)
(-1.00519 -0.125975 0)
(-0.936457 -0.141312 0)
(-0.863499 -0.155611 0)
(-0.786862 -0.168295 -3.52993e-21)
(-0.706873 -0.179195 0)
(-0.623744 -0.188373 0)
(-0.537681 -0.195966 0)
(-0.448915 -0.202119 0)
(-0.357698 -0.206954 0)
(-0.264318 -0.210544 -3.96881e-21)
(-0.169111 -0.212935 0)
(-0.0724675 -0.214123 -4.19137e-21)
(0.0251444 -0.214093 -4.27929e-21)
(0.123199 -0.212843 4.36498e-21)
(0.221135 -0.210398 0)
(0.3184 -0.206865 4.52502e-21)
(0.414492 -0.202376 0)
(0.509006 -0.197143 4.66424e-21)
(0.601648 -0.191414 -4.7249e-21)
(0.692259 -0.185455 -1.43012e-20)
(0.780821 -0.179542 0)
(0.86745 -0.173907 -1.45812e-20)
(0.95237 -0.168703 -4.87703e-21)
(1.03585 -0.163963 0)
(1.11813 -0.15959 -9.91331e-21)
(1.19934 -0.155358 -9.96108e-21)
(1.27947 -0.150959 1.50085e-20)
(1.35833 -0.146072 0)
(1.43549 -0.140446 5.02336e-21)
(1.51044 -0.133943 5.01689e-21)
(1.58263 -0.126586 1.49884e-20)
(1.6516 -0.118577 0)
(1.71694 -0.110274 0)
(1.77833 -0.101884 0)
(1.83583 -0.0936879 4.85121e-21)
(1.88945 -0.0856652 0)
(1.93929 -0.0779092 0)
(1.98545 -0.0704547 -4.70421e-21)
(2.02805 -0.0633074 -4.64561e-21)
(2.06721 -0.0564694 0)
(2.10303 -0.0499446 0)
(2.13565 -0.0437373 -8.92496e-21)
(2.1652 -0.0378498 0)
(2.19184 -0.0322824 8.6787e-21)
(2.2157 -0.0270331 8.55148e-21)
(2.23694 -0.0221005 0)
(2.25571 -0.0174855 0)
(2.27217 -0.0131905 -8.20109e-21)
(2.28649 -0.00922149 -4.29628e-24)
(2.29884 -0.00558295 -3.97684e-24)
(2.30941 -0.0022817 0)
(2.31837 0.000672992 -1.55489e-20)
(2.32593 0.00327087 0)
(2.33225 0.00550833 0)
(2.33751 0.00739105 0)
(2.34187 0.00892763 7.39215e-21)
(2.3455 0.0101252 0)
(2.34855 0.0109904 -1.44251e-20)
(2.35113 0.0115196 -7.12774e-21)
(2.35332 0.0116968 0)
(2.35511 0.0114992 -6.95964e-21)
(2.35647 0.0109067 0)
(2.35736 0.00992459 0)
(2.35776 0.00861092 -2.01534e-20)
(2.35776 0.00710452 1.32801e-20)
(2.35748 0.00558809 0)
(2.35711 0.00422278 1.29749e-20)
(2.35681 0.00310157 -6.41201e-21)
(2.35672 0.00224887 0)
(2.35688 0.00163937 0)
(2.35731 0.00122846 0)
(2.35797 0.000962818 -1.8357e-20)
(2.35882 0.000811574 0)
(2.35981 0.000740402 -5.97519e-21)
(2.36089 0.000768247 0)
(2.36201 0.000862771 0)
(2.36316 0.00111583 0)
(2.36421 0.00143112 0)
(2.36523 0.00205166 0)
(2.3659 0.00266424 0)
(2.36656 0.00392632 -1.09802e-20)
(2.36629 0.00490651 0)
(2.36627 0.00740734 -5.36119e-21)
(2.36397 0.00877793 1.58906e-20)
(2.36297 0.0139342 0)
(2.35631 0.0155769 0)
(2.35452 0.0269231 -1.0236e-20)
(2.33865 0.0286534 -1.01435e-20)
(2.33811 0.0553427 1.00232e-20)
(2.30544 0.0592065 9.95014e-21)
(0.0154514 0.0185214 4.46504e-21)
(0.0853796 -0.132141 4.43054e-21)
(0.164299 -0.276269 2.91364e-21)
(0.247173 -0.391445 1.4206e-21)
(0.327611 -0.477499 0)
(0.398708 -0.530791 -2.753e-21)
(0.457032 -0.551364 1.30924e-21)
(0.501459 -0.543625 0)
(0.533607 -0.512944 1.33374e-21)
(0.555657 -0.465268 0)
(0.569174 -0.407161 -2.42311e-21)
(0.575536 -0.343551 0)
(0.576615 -0.2779 -1.20601e-21)
(0.571645 -0.214958 -2.33682e-21)
(0.558256 -0.157462 2.26054e-21)
(0.5381 -0.102338 0)
(0.512403 -0.0457351 2.11566e-21)
(0.481201 0.0148943 0)
(0.441687 0.085591 0)
(0.393917 0.16262 1.96387e-21)
(0.333527 0.243574 0)
(0.255394 0.331125 -1.39321e-22)
(0.164458 0.41556 0)
(0.0670824 0.487803 0)
(-0.0333871 0.54505 1.38216e-22)
(-0.134368 0.586645 1.92983e-21)
(-0.234277 0.612671 1.79417e-21)
(-0.332229 0.623736 1.93526e-21)
(-0.42877 0.624 0)
(-0.528515 0.624595 3.69443e-21)
(-0.630574 0.627572 0)
(-0.728723 0.625054 1.72944e-21)
(-0.822283 0.617797 0)
(-0.912138 0.608155 0)
(-0.997982 0.596556 -1.62568e-21)
(-1.07855 0.581437 0)
(-1.15373 0.564175 1.54013e-21)
(-1.22373 0.545377 1.5881e-22)
(-1.28704 0.521485 -3.05604e-21)
(-1.34431 0.492197 2.80205e-21)
(-1.39606 0.459256 0)
(-1.4414 0.421564 0)
(-1.48031 0.377184 1.10517e-21)
(-1.51404 0.327861 0)
(-1.54319 0.277736 1.37295e-21)
(-1.56722 0.229671 -1.34341e-21)
(-1.58571 0.184531 -1.31844e-21)
(-1.59888 0.142673 0)
(-1.60756 0.104207 1.28556e-21)
(-1.61173 0.0691547 1.27897e-21)
(-1.61128 0.0368531 -2.21841e-21)
(-1.6061 0.00629726 1.28701e-21)
(-1.59658 -0.0233239 1.30035e-21)
(-1.58321 -0.0523769 0)
(-1.56545 -0.0822766 0)
(-1.54502 -0.110506 -1.35577e-21)
(-1.52359 -0.125882 0)
(-1.49979 -0.12578 0)
(-1.47786 -0.121688 2.79256e-21)
(-1.45648 -0.117643 2.81511e-21)
(-1.43395 -0.107109 0)
(-1.41208 -0.0899279 0)
(-1.39135 -0.0689233 0)
(-1.37155 -0.0465126 0)
(-1.35319 -0.0251579 2.92648e-21)
(-1.33743 -0.00679941 -2.74251e-21)
(-1.32573 0.00784822 -2.96364e-21)
(-1.3192 0.0195505 -5.76305e-21)
(-1.31793 0.0290026 0)
(-1.32249 0.0345112 1.66526e-22)
(-1.33432 0.0321308 0)
(-1.35188 0.0214935 2.96135e-21)
(-1.3658 0.00921202 1.48067e-22)
(-1.3718 -0.00210324 2.92464e-21)
(-1.37508 -0.0181378 -2.90742e-21)