/*--------------------------------*- C++ -*----------------------------------*\
  =========                 |
  \\      /  F ield         | OpenFOAM: The Open Source CFD Toolbox
   \\    /   O peration     | Website:  https://openfoam.org
    \\  /    A nd           | Version:  7
     \\/     M anipulation  |
\*---------------------------------------------------------------------------*/
FoamFile
{
    version     2.0;
    format      ascii;
    class       volScalarField;
    location    "0.025";
    object      k_0;
}
// * * * * * * * * * * * * * * * * * * * * * * * * * * * * * * * * * * * * * //

dimensions      [0 2 -2 0 0 0 0];

internalField   nonuniform List<scalar> 
12225
(
1.93072e-05
1.81935e-05
1.68076e-05
1.52235e-05
1.41232e-05
1.26936e-05
1.12281e-05
1.04242e-05
9.26925e-06
7.65514e-06
6.63808e-06
6.43075e-06
6.49054e-06
6.51702e-06
6.24854e-06
5.33327e-06
4.59512e-06
7.63878e-06
1.99825e-05
1.98873e-05
1.97011e-05
1.93347e-05
1.90715e-05
1.87627e-05
1.82885e-05
1.7926e-05
1.75796e-05
1.70113e-05
1.64081e-05
1.60357e-05
1.562e-05
1.53651e-05
1.50747e-05
1.49003e-05
1.4499e-05
1.42427e-05
2.0001e-05
1.91938e-05
1.89638e-05
1.8941e-05
1.8924e-05
1.88956e-05
1.88379e-05
1.87898e-05
1.87528e-05
1.86999e-05
1.85877e-05
1.84667e-05
1.8339e-05
1.82459e-05
1.82025e-05
1.8132e-05
1.80588e-05
1.78231e-05
2.02309e-05
2.00745e-05
1.83603e-05
1.63306e-05
1.6502e-05
1.68316e-05
1.71837e-05
1.74843e-05
1.77668e-05
1.7965e-05
1.80439e-05
1.80588e-05
1.80647e-05
1.80836e-05
1.81549e-05
1.82284e-05
1.82575e-05
1.82378e-05
2.00515e-05
2.04453e-05
2.02739e-05
2.04138e-05
2.06252e-05
2.07458e-05
2.08074e-05
2.08031e-05
2.07081e-05
2.03797e-05
1.95333e-05
1.87968e-05
1.84171e-05
1.83223e-05
1.83326e-05
1.84405e-05
1.88138e-05
1.90334e-05
2.07308e-05
2.07678e-05
2.10072e-05
2.14427e-05
2.16252e-05
2.16762e-05
2.17775e-05
2.22893e-05
2.43947e-05
2.58316e-05
2.59207e-05
2.55186e-05
2.38124e-05
2.23045e-05
2.1822e-05
2.17834e-05
2.18325e-05
2.18778e-05
2.03872e-05
2.25376e-05
2.33837e-05
2.29409e-05
2.17796e-05
2.15044e-05
2.16659e-05
2.27645e-05
2.43798e-05
2.49947e-05
2.5072e-05
2.49753e-05
2.45906e-05
2.42911e-05
2.40923e-05
2.37672e-05
2.29097e-05
2.18421e-05
2.40335e-05
2.28087e-05
2.18321e-05
2.18269e-05
2.18417e-05
2.2599e-05
2.60464e-05
2.80026e-05
2.79489e-05
2.68048e-05
2.45678e-05
2.34756e-05
2.3176e-05
2.31547e-05
2.31754e-05
2.31696e-05
2.3118e-05
2.29282e-05
2.1216e-05
2.07762e-05
2.06877e-05
2.08039e-05
2.11635e-05
2.24145e-05
2.65772e-05
2.92516e-05
2.94455e-05
2.87906e-05
2.63451e-05
2.42357e-05
2.32168e-05
2.28251e-05
2.27477e-05
2.27894e-05
2.31489e-05
2.41604e-05
2.11437e-05
2.10723e-05
2.08737e-05
2.08381e-05
2.16452e-05
2.53924e-05
2.86438e-05
2.92905e-05
2.90421e-05
2.74105e-05
2.50571e-05
2.36584e-05
2.29512e-05
2.26619e-05
2.25837e-05
2.25886e-05
2.2714e-05
2.33319e-05
2.07488e-05
2.06708e-05
2.06378e-05
2.0946e-05
2.23724e-05
2.61953e-05
2.84739e-05
2.89439e-05
2.8666e-05
2.67759e-05
2.38542e-05
2.22868e-05
2.16494e-05
2.14756e-05
2.14551e-05
2.14844e-05
2.17175e-05
2.25561e-05
2.05128e-05
2.06634e-05
2.06406e-05
2.0752e-05
2.14245e-05
2.34265e-05
2.47279e-05
2.501e-05
2.49044e-05
2.41806e-05
2.25596e-05
2.16931e-05
2.14619e-05
2.14816e-05
2.18082e-05
2.27157e-05
2.3219e-05
2.33962e-05
2.04135e-05
2.0617e-05
2.06541e-05
2.07241e-05
2.09529e-05
2.1612e-05
2.2554e-05
2.33438e-05
2.37934e-05
2.38529e-05
2.33158e-05
2.19201e-05
2.13966e-05
2.13485e-05
2.15319e-05
2.24794e-05
2.35216e-05
2.39102e-05
2.0713e-05
2.09907e-05
2.0873e-05
2.05806e-05
2.05852e-05
2.07522e-05
2.14756e-05
2.25189e-05
2.30558e-05
2.3097e-05
2.25714e-05
2.14075e-05
2.08233e-05
2.06487e-05
2.06484e-05
2.07864e-05
2.1333e-05
2.19724e-05
2.12885e-05
2.09902e-05
2.05821e-05
2.05598e-05
2.07473e-05
2.08871e-05
2.09197e-05
2.10332e-05
2.11167e-05
2.1127e-05
2.10669e-05
2.08837e-05
2.07473e-05
2.06791e-05
2.06596e-05
2.06636e-05
2.06944e-05
2.07739e-05
2.09923e-05
2.24914e-05
2.24862e-05
2.16975e-05
2.09944e-05
2.07599e-05
2.07406e-05
2.08593e-05
2.09331e-05
2.09138e-05
2.09681e-05
2.11765e-05
2.13154e-05
2.13532e-05
2.135e-05
2.12992e-05
2.12535e-05
2.1255e-05
2.06231e-05
2.08781e-05
2.08428e-05
2.05739e-05
2.03068e-05
2.024e-05
2.02564e-05
2.03613e-05
2.06049e-05
2.08349e-05
2.09879e-05
2.10345e-05
2.10258e-05
2.09488e-05
2.09051e-05
2.09181e-05
2.0919e-05
2.08858e-05
2.01595e-05
2.02204e-05
2.03636e-05
2.05923e-05
2.0662e-05
2.06729e-05
2.06617e-05
2.06065e-05
2.05794e-05
2.05791e-05
2.05745e-05
2.05345e-05
2.03671e-05
2.02023e-05
2.01573e-05
2.01595e-05
2.01999e-05
2.0319e-05
2.03829e-05
2.03848e-05
2.02829e-05
2.03345e-05
2.04473e-05
2.04754e-05
2.05134e-05
2.06285e-05
2.07846e-05
2.08808e-05
2.0963e-05
2.10025e-05
2.10085e-05
2.09977e-05
2.09246e-05
2.08487e-05
2.08414e-05
2.08769e-05
2.02017e-05
2.0315e-05
2.03024e-05
2.0259e-05
2.0239e-05
2.02384e-05
2.02673e-05
2.04955e-05
2.08487e-05
2.08873e-05
2.08454e-05
2.08202e-05
2.08154e-05
2.08073e-05
2.07712e-05
2.06455e-05
2.05397e-05
2.05028e-05
2.01228e-05
2.02234e-05
2.02503e-05
2.02955e-05
2.03422e-05
2.03577e-05
2.03569e-05
2.035e-05
2.03498e-05
2.03573e-05
2.04008e-05
2.0507e-05
2.05879e-05
2.06412e-05
2.06722e-05
2.06858e-05
2.06888e-05
2.06875e-05
2.00735e-05
2.01089e-05
2.01964e-05
2.04804e-05
2.07691e-05
2.09186e-05
2.09668e-05
2.09682e-05
2.09347e-05
2.08036e-05
2.06911e-05
2.06352e-05
2.06078e-05
2.05891e-05
2.0572e-05
2.05595e-05
2.05554e-05
2.05564e-05
2.08617e-05
2.03943e-05
2.04201e-05
2.08049e-05
2.10343e-05
2.10953e-05
2.10903e-05
2.10064e-05
2.07153e-05
2.04643e-05
2.03306e-05
2.02708e-05
2.02516e-05
2.02501e-05
2.0262e-05
2.03318e-05
2.05263e-05
2.06921e-05
2.04507e-05
2.03898e-05
2.08315e-05
2.09697e-05
2.09542e-05
2.08371e-05
2.06044e-05
2.0444e-05
2.03819e-05
2.03721e-05
2.0377e-05
2.04036e-05
2.04882e-05
2.06978e-05
2.09151e-05
2.10824e-05
2.11936e-05
2.12447e-05
2.02793e-05
2.07833e-05
2.09403e-05
2.08933e-05
2.06502e-05
2.04069e-05
2.0279e-05
2.02443e-05
2.02554e-05
2.03411e-05
2.0491e-05
2.05357e-05
2.05147e-05
2.04999e-05
2.05106e-05
2.05863e-05
2.09322e-05
2.14596e-05
2.05046e-05
2.06604e-05
2.07831e-05
2.07822e-05
2.06901e-05
2.04284e-05
2.0275e-05
2.02536e-05
2.03214e-05
2.08778e-05
2.2027e-05
2.23668e-05
2.22748e-05
2.1633e-05
2.09136e-05
2.05793e-05
2.04642e-05
2.04358e-05
2.01674e-05
2.02197e-05
2.02358e-05
2.02239e-05
2.0157e-05
1.99451e-05
1.98711e-05
1.98938e-05
1.99308e-05
1.99178e-05
1.97655e-05
1.93073e-05
1.89658e-05
1.8878e-05
1.8959e-05
1.93383e-05
2.05757e-05
2.18048e-05
2.02497e-05
1.75125e-05
1.57053e-05
1.65905e-05
1.87819e-05
2.15581e-05
2.67307e-05
3.27389e-05
3.67138e-05
3.89406e-05
4.15101e-05
4.66015e-05
5.82518e-05
7.1658e-05
8.50242e-05
9.51526e-05
0.000105826
0.000112381
3.25671e-05
9.059e-05
0.000145613
0.00023794
0.000298561
0.000330021
0.000371169
0.000416167
0.000446468
0.00046703
0.000493137
0.000530709
0.000573783
0.00061267
0.000644766
0.000668408
0.000689012
0.000699371
0.002809
0.0026281
0.00246027
0.00239612
0.00233298
0.00217763
0.00194723
0.00179738
0.00172464
0.00169644
0.00168558
0.0016749
0.0016535
0.00161141
0.00155683
0.00149252
0.00142556
0.00136346
9.35941e-07
4.62379e-06
1.27611e-05
2.82037e-05
4.93616e-05
7.34165e-05
9.87336e-05
0.000125922
0.000156698
0.000195168
0.00024232
0.000294555
0.00034573
0.000389864
0.000422449
0.00044223
0.000450873
0.000453541
0.000457044
0.000466015
0.00048602
0.000512585
0.000536067
0.000557876
0.000575942
0.000592521
0.000603212
0.000599117
0.000574235
0.000539447
0.000488692
0.000417331
0.000360502
0.000298801
0.000220926
0.000180846
0.000127309
8.7064e-05
6.58451e-05
4.28347e-05
3.23067e-05
2.58597e-05
2.35065e-05
2.39569e-05
2.41139e-05
2.42473e-05
2.4308e-05
2.41457e-05
2.35088e-05
2.28518e-05
2.24829e-05
2.1974e-05
2.09734e-05
1.99313e-05
1.90319e-05
1.81325e-05
1.69766e-05
1.57639e-05
1.46789e-05
1.3539e-05
1.22286e-05
1.1113e-05
9.98478e-06
8.8858e-06
7.8447e-06
6.7576e-06
5.74761e-06
4.80427e-06
3.94134e-06
3.1697e-06
2.55733e-06
2.11047e-06
1.76512e-06
1.48491e-06
1.24853e-06
1.04484e-06
8.68741e-07
7.17022e-07
5.8757e-07
4.78353e-07
3.86719e-07
3.10089e-07
2.46497e-07
1.9427e-07
1.51804e-07
1.17586e-07
9.02858e-08
6.87268e-08
5.18717e-08
3.88221e-08
2.88143e-08
2.12102e-08
1.54845e-08
1.12117e-08
8.05107e-09
5.7338e-09
4.04978e-09
2.83674e-09
1.97067e-09
1.35778e-09
9.2788e-10
6.28977e-10
4.22971e-10
2.82207e-10
1.86838e-10
1.22759e-10
8.00566e-11
5.1824e-11
3.33119e-11
2.12612e-11
1.34759e-11
8.51846e-12
5.36802e-12
3.3712e-12
2.10952e-12
1.31503e-12
8.16552e-13
5.04889e-13
3.10709e-13
1.90291e-13
1.16004e-13
7.04093e-14
4.2567e-14
2.56517e-14
1.54251e-14
9.2699e-15
5.58009e-15
3.37649e-15
2.06545e-15
1.28872e-15
8.30874e-16
5.62737e-16
4.07105e-16
3.17986e-16
2.68104e-16
2.41353e-16
2.28246e-16
2.23072e-16
2.22045e-16
2.22045e-16
2.22045e-16
2.22045e-16
2.22045e-16
2.22045e-16
2.22045e-16
2.22045e-16
2.22045e-16
2.22045e-16
2.22045e-16
2.22045e-16
2.22045e-16
2.22045e-16
2.22045e-16
2.22045e-16
2.22045e-16
2.22045e-16
2.22045e-16
2.22045e-16
2.22045e-16
2.22045e-16
2.22045e-16
2.22045e-16
2.22045e-16
2.22045e-16
2.22045e-16
2.22045e-16
2.22045e-16
2.22045e-16
2.22045e-16
2.22045e-16
2.22045e-16
2.22045e-16
2.22045e-16
2.22045e-16
2.22045e-16
2.22045e-16
8.68058e-16
3.6462e-13
2.02401e-10
1.08619e-07
3.33033e-06
1.55888e-05
4.07894e-05
8.15109e-05
0.000136766
0.000196496
0.000251711
0.000300432
0.000343933
0.0003816
0.000412486
0.000436676
0.000451566
0.000458724
0.00046109
0.000457586
0.000447729
0.000435346
0.000418477
0.00039866
0.000375278
0.000351546
0.000329019
0.000306164
0.000282259
0.000258563
0.000233237
0.000205843
0.000181136
0.000160873
0.000139423
0.000120366
0.000110947
0.000101177
9.35063e-05
8.99e-05
8.77788e-05
8.72196e-05
8.84295e-05
9.01248e-05
9.22801e-05
9.35492e-05
9.44583e-05
9.55255e-05
9.65307e-05
9.69096e-05
9.6703e-05
9.43917e-05
9.20905e-05
9.0874e-05
8.94129e-05
8.60769e-05
8.13199e-05
7.80442e-05
7.58157e-05
7.13247e-05
6.6546e-05
6.31922e-05
5.97795e-05
5.51059e-05
5.18094e-05
4.79143e-05
4.44383e-05
4.09818e-05
3.76834e-05
3.426e-05
3.08539e-05
2.73728e-05
2.40978e-05
2.01655e-05
1.55556e-05
1.22834e-05
1.02168e-05
8.68165e-06
7.48789e-06
6.45051e-06
5.52162e-06
4.69086e-06
3.95672e-06
3.31725e-06
2.76237e-06
2.2778e-06
1.85995e-06
1.50923e-06
1.22204e-06
9.86344e-07
7.91837e-07
6.32046e-07
5.01513e-07
3.95501e-07
3.09918e-07
2.41256e-07
1.86525e-07
1.43187e-07
1.09109e-07
8.25061e-08
6.18946e-08
4.60514e-08
3.39736e-08
2.48454e-08
1.80078e-08
1.29333e-08
9.20302e-09
6.48767e-09
4.53069e-09
3.13441e-09
2.14817e-09
1.45852e-09
9.81033e-10
6.53715e-10
4.31593e-10
2.82359e-10
1.83141e-10
1.17844e-10
7.52804e-11
4.77739e-11
3.01363e-11
1.89042e-11
1.17893e-11
7.31245e-12
4.51468e-12
2.77366e-12
1.69524e-12
1.03075e-12
6.23638e-13
3.75613e-13
2.25305e-13
1.34651e-13
8.02108e-14
4.76508e-14
2.82539e-14
1.67444e-14
9.94137e-15
5.93442e-15
3.58088e-15
2.20065e-15
1.39118e-15
9.15719e-16
6.35868e-16
4.70596e-16
3.72541e-16
3.14045e-16
2.78923e-16
2.57678e-16
2.44712e-16
2.36713e-16
2.31713e-16
2.28538e-16
2.26484e-16
2.25129e-16
2.24221e-16
2.23602e-16
2.23173e-16
2.22871e-16
2.22653e-16
2.22493e-16
2.22374e-16
2.22286e-16
2.22221e-16
2.22175e-16
2.22142e-16
2.2212e-16
2.22105e-16
2.22094e-16
2.22087e-16
2.22083e-16
2.22079e-16
2.22076e-16
2.22074e-16
2.22072e-16
2.2207e-16
2.22067e-16
2.22062e-16
2.22058e-16
2.22058e-16
2.22123e-16
2.62166e-16
2.5818e-14
1.68161e-11
9.51679e-09
4.3734e-06
1.95924e-05
4.51473e-05
7.35634e-05
9.98811e-05
0.000127917
0.000159144
0.000191533
0.000220137
0.000242537
0.000260164
0.000270953
0.000276223
0.000277897
0.000272499
0.000262165
0.000246459
0.000228288
0.00020896
0.000191105
0.000176927
0.000165301
0.000154773
0.000145237
0.000137201
0.000131203
0.000126159
0.000123029
0.000121172
0.000119893
0.000119161
0.000119045
0.000120306
0.000123217
0.000127199
0.000133542
0.000139574
0.000146972
0.000154331
0.000161355
0.0001671
0.000173439
0.000182836
0.000194332
0.000201004
0.000204457
0.000205616
0.000202971
0.00020104
0.000196786
0.000189173
0.000177712
0.000165445
0.000158581
0.00015042
0.000135974
0.000125453
0.000116959
0.000106913
9.6963e-05
8.99639e-05
8.21089e-05
7.60145e-05
6.98084e-05
6.34945e-05
5.70515e-05
5.08534e-05
4.4901e-05
3.91443e-05
3.36113e-05
2.85113e-05
2.40127e-05
2.02059e-05
1.7115e-05
1.49057e-05
1.3102e-05
1.15023e-05
1.00469e-05
8.71447e-06
7.51695e-06
6.45242e-06
5.48321e-06
4.58762e-06
3.80154e-06
3.13657e-06
2.58182e-06
2.12153e-06
1.73934e-06
1.4216e-06
1.15741e-06
9.38011e-07
7.56201e-07
6.06021e-07
4.82549e-07
3.81597e-07
2.99568e-07
2.33365e-07
1.80323e-07
1.38159e-07
1.04924e-07
7.89603e-08
5.88669e-08
4.34691e-08
3.179e-08
2.3025e-08
1.65179e-08
1.17397e-08
8.26937e-09
5.77584e-09
4.00164e-09
2.74848e-09
1.8706e-09
1.2618e-09
8.44072e-10
5.60374e-10
3.69499e-10
2.42125e-10
1.57723e-10
1.02141e-10
6.57366e-11
4.20235e-11
2.66716e-11
1.67976e-11
1.04984e-11
6.51646e-12
4.01848e-12
2.46271e-12
1.50037e-12
9.08974e-13
5.47811e-13
3.28595e-13
1.96323e-13
1.16956e-13
6.95673e-14
4.13857e-14
2.46724e-14
1.47738e-14
8.91063e-15
5.43258e-15
3.36393e-15
2.12926e-15
1.38935e-15
9.43884e-16
6.7416e-16
5.09621e-16
4.08251e-16
3.45004e-16
3.04916e-16
2.79026e-16
2.61982e-16
2.50542e-16
2.42739e-16
2.37313e-16
2.335e-16
2.30741e-16
2.28739e-16
2.27234e-16
2.26141e-16
2.25312e-16
2.24734e-16
2.24291e-16
2.24002e-16
2.2378e-16
2.23644e-16
2.23531e-16
2.23457e-16
2.23386e-16
2.23325e-16
2.2326e-16
2.23194e-16
2.23109e-16
2.22971e-16
2.22708e-16
2.22625e-16
2.22737e-16
2.2336e-16
2.3902e-16
1.43546e-15
7.66652e-13
4.02763e-10
3.97647e-06
1.70935e-05
3.52729e-05
4.87547e-05
5.96401e-05
7.11388e-05
8.21347e-05
9.35682e-05
0.000104694
0.000113509
0.000120795
0.00012609
0.000129498
0.000130935
0.000131213
0.000130627
0.000129436
0.000128468
0.000127936
0.00012795
0.000128379
0.000128862
0.000129174
0.000129752
0.000131208
0.000133158
0.000137024
0.000144342
0.000154892
0.000168516
0.000187272
0.000212567
0.000235031
0.000256926
0.000281258
0.000298776
0.000314498
0.000330645
0.000341476
0.00034914
0.00035605
0.000363935
0.000370878
0.00037554
0.000378461
0.000381246
0.000383895
0.000385394
0.000384738
0.000381163
0.000374271
0.000359612
0.0003399
0.000318002
0.000292008
0.000261407
0.000237993
0.000211668
0.000186299
0.000165217
0.000143541
0.000124418
0.000106929
9.18165e-05
7.88159e-05
6.77981e-05
5.84303e-05
5.03681e-05
4.33347e-05
3.71488e-05
3.17806e-05
2.71742e-05
2.32584e-05
2.00411e-05
1.73896e-05
1.51765e-05
1.33149e-05
1.1718e-05
1.02444e-05
8.89436e-06
7.69763e-06
6.62548e-06
5.65661e-06
4.81998e-06
4.11287e-06
3.50089e-06
2.968e-06
2.50451e-06
2.10284e-06
1.75659e-06
1.45953e-06
1.20607e-06
9.91207e-07
8.10129e-07
6.58375e-07
5.31915e-07
4.2716e-07
3.4088e-07
2.70232e-07
2.1274e-07
1.66261e-07
1.28945e-07
9.92053e-08
7.56868e-08
5.72403e-08
4.28966e-08
3.18438e-08
2.34068e-08
1.703e-08
1.22611e-08
8.7372e-09
6.16447e-09
4.30814e-09
2.98418e-09
2.05039e-09
1.39853e-09
9.47551e-10
6.37934e-10
4.26773e-10
2.83631e-10
1.87173e-10
1.22586e-10
7.9644e-11
5.13035e-11
3.27496e-11
2.07184e-11
1.29947e-11
8.08386e-12
4.99094e-12
3.06061e-12
1.86605e-12
1.1325e-12
6.85089e-13
4.13695e-13
2.49725e-13
1.50913e-13
9.14313e-14
5.5616e-14
3.40181e-14
2.09598e-14
1.30381e-14
8.2147e-15
5.26651e-15
3.4563e-15
2.33682e-15
1.63577e-15
1.18927e-15
8.99536e-16
7.07649e-16
5.78201e-16
4.89189e-16
4.27172e-16
3.83082e-16
3.51769e-16
3.28694e-16
3.12258e-16
2.99567e-16
2.90937e-16
2.83822e-16
2.79626e-16
2.7548e-16
2.73741e-16
2.71232e-16
2.70559e-16
2.68685e-16
2.68385e-16
2.6613e-16
2.66038e-16
2.61995e-16
2.61645e-16
2.55398e-16
2.47006e-16
2.39939e-16
2.43192e-16
2.74779e-16
3.64947e-16
3.63284e-15
5.35502e-15
9.565e-14
1.78656e-11
2.87712e-06
1.19111e-05
2.35721e-05
3.17807e-05
3.74137e-05
4.37446e-05
5.02272e-05
5.71792e-05
6.45791e-05
7.13383e-05
7.78307e-05
8.39432e-05
8.96604e-05
9.52286e-05
0.00010068
0.000106109
0.000111214
0.000116036
0.000120615
0.000124712
0.000128286
0.000131974
0.000137035
0.00014456
0.000156138
0.000174827
0.000203842
0.000244409
0.000277083
0.000312506
0.000340863
0.00035964
0.000371845
0.000384553
0.000391477
0.000400363
0.000404586
0.000406452
0.000407286
0.0004079
0.00040953
0.000411563
0.000412607
0.000414144
0.000417304
0.00042187
0.00042405
0.000425788
0.000429289
0.000432151
0.000433333
0.000432504
0.00042578
0.00041187
0.000384547
0.000347416
0.000303369
0.00026293
0.000231245
0.000203457
0.000180112
0.000158713
0.000137243
0.000117141
9.91038e-05
8.36473e-05
7.08903e-05
6.01661e-05
5.08306e-05
4.26243e-05
3.54682e-05
2.93228e-05
2.41834e-05
2.00324e-05
1.67133e-05
1.40432e-05
1.18873e-05
1.015e-05
8.85232e-06
7.87078e-06
7.07848e-06
6.37818e-06
5.68055e-06
4.98088e-06
4.3271e-06
3.72796e-06
3.1865e-06
2.70394e-06
2.27888e-06
1.90844e-06
1.5877e-06
1.31378e-06
1.08236e-06
8.87623e-07
7.24441e-07
5.88327e-07
4.75271e-07
3.81818e-07
3.04992e-07
2.42186e-07
1.91135e-07
1.49885e-07
1.16757e-07
9.0324e-08
6.93732e-08
5.28844e-08
4.00025e-08
3.00158e-08
2.23354e-08
1.6478e-08
1.20495e-08
8.73131e-09
6.26813e-09
4.45705e-09
3.13843e-09
2.18796e-09
1.50979e-09
1.03088e-09
6.96295e-10
4.65092e-10
3.07037e-10
2.00262e-10
1.29071e-10
8.20969e-11
5.14245e-11
3.18388e-11
1.95709e-11
1.19413e-11
7.23208e-12
4.34911e-12
2.59932e-12
1.54647e-12
9.18173e-13
5.45917e-13
3.26541e-13
1.97591e-13
1.21684e-13
7.66943e-14
4.96693e-14
3.31015e-14
2.26716e-14
1.59009e-14
1.13652e-14
8.23964e-15
6.03694e-15
4.46152e-15
3.32502e-15
2.50016e-15
1.89893e-15
1.46005e-15
1.13917e-15
9.03725e-16
7.30461e-16
6.0306e-16
5.08815e-16
4.38418e-16
3.85527e-16
3.46218e-16
3.1676e-16
2.94447e-16
2.77293e-16
2.64346e-16
2.54837e-16
2.48361e-16
2.4278e-16
2.39049e-16
2.35268e-16
2.3116e-16
2.30195e-16
2.31823e-16
2.44795e-16
3.10751e-16
6.10803e-16
1.6922e-15
6.57614e-15
1.66405e-14
2.57656e-13
3.15875e-13
3.93151e-12
5.12199e-12
2.03183e-06
8.17223e-06
1.5844e-05
2.13743e-05
2.50077e-05
2.98123e-05
3.54632e-05
4.18368e-05
4.89769e-05
5.63518e-05
6.40596e-05
7.21761e-05
8.0679e-05
8.94619e-05
9.8188e-05
0.000106474
0.000114642
0.000122833
0.000129879
0.000134438
0.000142799
0.000153428
0.000173746
0.000205361
0.000245877
0.000289985
0.00033218
0.000356567
0.000378346
0.000391773
0.000406199
0.000413988
0.000421678
0.000425078
0.000429368
0.000433612
0.000435551
0.000436894
0.000438945
0.000443366
0.00044618
0.000447057
0.000447946
0.000451324
0.000455552
0.000456354
0.000445258
0.000437303
0.00043462
0.00043265
0.000431883
0.000436677
0.000438998
0.000440357
0.000436882
0.000417122
0.000386973
0.000341804
0.000291211
0.000245998
0.00021314
0.000186106
0.000164945
0.000145145
0.000127186
0.000110294
9.44231e-05
8.02552e-05
6.85479e-05
5.8671e-05
4.99722e-05
4.16968e-05
3.3632e-05
2.62678e-05
2.04302e-05
1.58619e-05
1.24589e-05
9.95327e-06
8.07206e-06
6.62939e-06
5.5065e-06
4.66857e-06
4.10563e-06
3.73879e-06
3.44247e-06
3.13869e-06
2.80278e-06
2.458e-06
2.12756e-06
1.8185e-06
1.5389e-06
1.28795e-06
1.06992e-06
8.82626e-07
7.23343e-07
5.89086e-07
4.76843e-07
3.83677e-07
3.06861e-07
2.4393e-07
1.927e-07
1.51258e-07
1.17947e-07
9.13457e-08
7.02457e-08
5.36253e-08
4.06281e-08
3.05404e-08
2.27719e-08
1.68378e-08
1.23429e-08
8.96766e-09
6.45588e-09
4.60391e-09
3.25141e-09
2.27332e-09
1.5731e-09
1.07701e-09
7.29268e-10
4.88201e-10
3.22975e-10
2.11059e-10
1.36175e-10
8.6697e-11
5.44327e-11
3.36819e-11
2.05272e-11
1.23126e-11
7.26408e-12
4.21278e-12
2.40047e-12
1.34345e-12
7.38504e-13
3.98968e-13
2.12159e-13
1.11407e-13
5.81071e-14
3.03996e-14
1.6194e-14
8.96292e-15
5.2671e-15
3.33733e-15
2.2844e-15
1.67068e-15
1.28372e-15
1.02098e-15
8.32282e-16
6.9165e-16
5.84568e-16
5.02333e-16
4.39007e-16
3.90027e-16
3.52097e-16
3.22923e-16
3.00359e-16
2.82752e-16
2.69146e-16
2.58541e-16
2.50377e-16
2.44152e-16
2.39055e-16
2.34906e-16
2.3218e-16
2.29683e-16
2.28718e-16
2.28981e-16
2.30857e-16
2.46141e-16
3.36745e-16
7.43206e-16
2.98062e-15
1.33269e-14
6.06782e-14
2.11795e-13
7.32678e-13
1.72379e-12
8.38886e-12
8.38108e-12
1.70027e-11
1.66604e-11
1.47631e-06
5.6424e-06
1.07433e-05
1.48368e-05
1.77885e-05
2.21817e-05
2.79241e-05
3.46313e-05
4.22664e-05
5.06543e-05
6.00638e-05
7.01686e-05
8.06337e-05
9.13474e-05
0.000102815
0.00011519
0.000129049
0.000142514
0.000151294
0.000161206
0.000177108
0.000206757
0.000256531
0.000306904
0.000343255
0.000379417
0.000404601
0.000417069
0.000426793
0.000435801
0.000447334
0.000465363
0.000484119
0.000499285
0.000517685
0.00054177
0.000570502
0.0006036
0.000653071
0.00072355
0.000789104
0.000818445
0.00083322
0.000842623
0.000844757
0.000837777
0.00073332
0.000628805
0.000587081
0.000524205
0.000466376
0.000440536
0.000418287
0.000408832
0.000404489
0.000407352
0.000395976
0.000366121
0.000321214
0.000271902
0.000228138
0.000194938
0.000171051
0.000151862
0.000135594
0.000120709
0.000106652
9.32192e-05
8.04154e-05
6.95885e-05
6.08946e-05
5.39065e-05
4.78581e-05
4.13848e-05
3.34366e-05
2.51634e-05
1.83859e-05
1.33901e-05
9.79542e-06
7.28537e-06
5.55828e-06
4.35293e-06
3.47755e-06
2.82476e-06
2.3569e-06
2.06061e-06
1.89246e-06
1.76617e-06
1.6282e-06
1.46261e-06
1.28846e-06
1.11505e-06
9.52257e-07
8.03455e-07
6.70406e-07
5.53685e-07
4.5298e-07
3.67354e-07
2.95475e-07
2.35815e-07
1.86796e-07
1.46888e-07
1.14673e-07
8.88774e-08
6.83817e-08
5.22214e-08
3.95768e-08
2.97595e-08
2.21977e-08
1.64202e-08
1.20429e-08
8.75489e-09
6.307e-09
4.50119e-09
3.18156e-09
2.22654e-09
1.54227e-09
1.05702e-09
7.16539e-10
4.80246e-10
3.18105e-10
2.08144e-10
1.34471e-10
8.57294e-11
5.39027e-11
3.3403e-11
2.03866e-11
1.22448e-11
7.23167e-12
4.19589e-12
2.38952e-12
1.33445e-12
7.30173e-13
3.91159e-13
2.05034e-13
1.05128e-13
5.27428e-14
2.593e-14
1.25402e-14
6.01727e-15
2.91549e-15
1.47352e-15
8.15668e-16
5.18792e-16
3.84181e-16
3.21127e-16
2.89421e-16
2.71569e-16
2.60178e-16
2.5211e-16
2.45982e-16
2.41221e-16
2.37322e-16
2.34307e-16
2.31832e-16
2.29776e-16
2.28329e-16
2.26816e-16
2.26062e-16
2.25101e-16
2.24265e-16
2.26068e-16
2.36491e-16
2.64498e-16
3.28009e-16
4.64394e-16
7.6822e-16
1.46469e-15
3.17716e-15
7.40554e-15
1.84904e-14
4.60958e-14
1.18982e-13
2.84442e-13
8.17487e-13
1.50112e-12
5.23206e-12
5.52687e-12
6.2508e-12
8.24377e-12
1.13579e-06
4.00469e-06
7.422e-06
1.06535e-05
1.34033e-05
1.76389e-05
2.35263e-05
3.07497e-05
3.92277e-05
4.88284e-05
5.96702e-05
7.12242e-05
8.4883e-05
0.000102842
0.00012539
0.00014389
0.000157174
0.000163466
0.000176961
0.000208171
0.000255852
0.000311184
0.000359039
0.000392941
0.000416476
0.000436271
0.000451313
0.000461905
0.000477175
0.000498571
0.000528574
0.000576203
0.000639
0.000719348
0.000834923
0.00099417
0.00119112
0.0014233
0.0017213
0.00210921
0.00249855
0.00268148
0.00275459
0.00273365
0.00264234
0.00256596
0.00207669
0.00163416
0.00143512
0.00111488
0.000832039
0.000677769
0.000511655
0.000437636
0.000397477
0.000375475
0.000358701
0.000348502
0.000323836
0.000281768
0.000236269
0.000197834
0.000171243
0.000151624
0.00013613
0.000122535
0.000109788
9.79806e-05
8.68447e-05
7.5904e-05
6.58445e-05
5.80951e-05
5.23274e-05
4.79059e-05
4.41262e-05
3.94337e-05
3.22465e-05
2.37738e-05
1.66684e-05
1.15002e-05
7.87953e-06
5.45286e-06
3.87482e-06
2.85701e-06
2.182e-06
1.70869e-06
1.36842e-06
1.14329e-06
1.01426e-06
9.46369e-07
8.91768e-07
8.25073e-07
7.43566e-07
6.56228e-07
5.68763e-07
4.84825e-07
4.07039e-07
3.37025e-07
2.75551e-07
2.22711e-07
1.78111e-07
1.41056e-07
1.1069e-07
8.61058e-08
6.64187e-08
5.08105e-08
3.85521e-08
2.90108e-08
2.16497e-08
1.60199e-08
1.17519e-08
8.54484e-09
6.15675e-09
4.39484e-09
3.10716e-09
2.17515e-09
1.50726e-09
1.03351e-09
7.01004e-10
4.7015e-10
3.11662e-10
2.04112e-10
1.32002e-10
8.42532e-11
5.30439e-11
3.29192e-11
2.01244e-11
1.21093e-11
7.16603e-12
4.16697e-12
2.37872e-12
1.33181e-12
7.30667e-13
3.9246e-13
2.06225e-13
1.05953e-13
5.3216e-14
2.6146e-14
1.25942e-14
5.98068e-15
2.83612e-15
1.37997e-15
7.23361e-16
4.35009e-16
3.11598e-16
2.60003e-16
2.38825e-16
2.30184e-16
2.26596e-16
2.25007e-16
2.24208e-16
2.2374e-16
2.23401e-16
2.23157e-16
2.22952e-16
2.22777e-16
2.22656e-16
2.22516e-16
2.22449e-16
2.22359e-16
2.22276e-16
2.22493e-16
2.29233e-16
2.51445e-16
3.04586e-16
4.18686e-16
6.69807e-16
1.22968e-15
2.57133e-15
5.76555e-15
1.38687e-14
3.30479e-14
8.12055e-14
1.83201e-13
5.39739e-13
8.54063e-13
2.01906e-12
2.29746e-12
2.49579e-12
3.14743e-12
9.36521e-07
2.98371e-06
5.30079e-06
7.85682e-06
1.04149e-05
1.44869e-05
2.03731e-05
2.79879e-05
3.75002e-05
4.92034e-05
6.34531e-05
8.00288e-05
9.91964e-05
0.000121678
0.00014213
0.000163354
0.000183238
0.000205184
0.000233896
0.000268759
0.000310086
0.00036208
0.000398401
0.000421974
0.000451197
0.000471623
0.000491322
0.00051179
0.000555737
0.000618696
0.000702188
0.000834541
0.0010344
0.0013236
0.00175135
0.00234514
0.00309736
0.00398794
0.00506199
0.00636304
0.00757444
0.0081587
0.00839078
0.00824185
0.00778832
0.00722666
0.00559615
0.00451501
0.00384634
0.00281282
0.00218961
0.0016127
0.00106663
0.00071657
0.000526747
0.000426015
0.000363558
0.000323203
0.000298812
0.00027392
0.000236871
0.000197546
0.000163854
0.000141572
0.000126884
0.000116395
0.000107242
9.79815e-05
8.84311e-05
7.92306e-05
7.05679e-05
6.18506e-05
5.44863e-05
4.94471e-05
4.59096e-05
4.3362e-05
4.08786e-05
3.69269e-05
2.98625e-05
2.13485e-05
1.4432e-05
9.4661e-06
6.11249e-06
3.966e-06
2.64205e-06
1.8366e-06
1.33822e-06
1.01109e-06
7.83682e-07
6.29276e-07
5.35033e-07
4.8312e-07
4.5418e-07
4.29241e-07
3.98592e-07
3.60476e-07
3.18453e-07
2.75316e-07
2.3333e-07
1.94208e-07
1.59035e-07
1.28335e-07
1.02197e-07
8.0405e-08
6.25607e-08
4.81744e-08
3.67337e-08
2.77465e-08
2.07656e-08
1.54e-08
1.13172e-08
8.24091e-09
5.94526e-09
4.24867e-09
3.00699e-09
2.10718e-09
1.46164e-09
1.00328e-09
6.81236e-10
4.57414e-10
3.03588e-10
1.99084e-10
1.28932e-10
8.24206e-11
5.19773e-11
3.23166e-11
1.97958e-11
1.1938e-11
7.08189e-12
4.12905e-12
2.36398e-12
1.32779e-12
7.31004e-13
3.94128e-13
2.07947e-13
1.07304e-13
5.41413e-14
2.67223e-14
1.29265e-14
6.16034e-15
2.92729e-15
1.42285e-15
7.41375e-16
4.40954e-16
3.12025e-16
2.58138e-16
2.36214e-16
2.27524e-16
2.24166e-16
2.22896e-16
2.2242e-16
2.22241e-16
2.22168e-16
2.22135e-16
2.22116e-16
2.22102e-16
2.22093e-16
2.22083e-16
2.22078e-16
2.22071e-16
2.22064e-16
2.22082e-16
2.24803e-16
2.38763e-16
2.76659e-16
3.60219e-16
5.41913e-16
9.33563e-16
1.83736e-15
3.89696e-15
8.88253e-15
2.00312e-14
4.82987e-14
9.75738e-14
2.00742e-13
4.02964e-13
4.62788e-13
6.01899e-13
6.91687e-13
9.61317e-13
8.19554e-07
2.37181e-06
4.00558e-06
6.04685e-06
8.39343e-06
1.20902e-05
1.76527e-05
2.5196e-05
3.53253e-05
4.90636e-05
6.77016e-05
9.38961e-05
0.000120736
0.000142464
0.000156439
0.000171987
0.000193825
0.000221049
0.000263725
0.000315966
0.000366335
0.000411498
0.000444272
0.000459622
0.000477884
0.000503302
0.000539808
0.000596455
0.000693462
0.000833279
0.00104095
0.00138363
0.00191146
0.00271405
0.00396213
0.00541968
0.00740098
0.00974657
0.0125713
0.0155642
0.0181155
0.0194095
0.019967
0.0195027
0.0179265
0.014834
0.0112901
0.00910714
0.0070048
0.00517255
0.00414032
0.00318037
0.00251375
0.00161236
0.000985566
0.000690696
0.000506398
0.000380156
0.000302918
0.00026163
0.000230654
0.000193274
0.00015893
0.000133068
0.000115932
0.000104848
9.75248e-05
9.18153e-05
8.58709e-05
7.89659e-05
7.16019e-05
6.45422e-05
5.74745e-05
5.09825e-05
4.64576e-05
4.35593e-05
4.17478e-05
4.02384e-05
3.827e-05
3.4171e-05
2.64243e-05
1.79663e-05
1.16003e-05
7.21457e-06
4.40483e-06
2.70068e-06
1.70402e-06
1.12858e-06
7.89849e-07
5.78695e-07
4.36764e-07
3.41774e-07
2.81771e-07
2.4552e-07
2.24747e-07
2.12899e-07
2.02175e-07
1.88139e-07
1.69913e-07
1.49342e-07
1.28042e-07
1.0733e-07
8.81628e-08
7.11153e-08
5.64376e-08
4.4137e-08
3.40602e-08
2.5964e-08
1.95677e-08
1.45888e-08
1.07647e-08
7.86324e-09
5.68694e-09
4.07238e-09
2.88726e-09
2.02644e-09
1.4077e-09
9.67632e-10
6.5797e-10
4.42439e-10
2.94099e-10
1.93173e-10
1.25319e-10
8.02589e-11
5.07151e-11
3.16003e-11
1.9403e-11
1.17316e-11
6.9793e-12
4.08197e-12
2.34503e-12
1.32208e-12
7.30824e-13
3.95774e-13
2.09811e-13
1.0882e-13
5.52057e-14
2.74057e-14
1.33374e-14
6.3941e-15
3.05389e-15
1.48838e-15
7.73762e-16
4.56137e-16
3.18758e-16
2.60962e-16
2.37303e-16
2.27879e-16
2.24223e-16
2.2284e-16
2.2233e-16
2.22147e-16
2.22083e-16
2.2206e-16
2.22052e-16
2.22049e-16
2.22048e-16
2.22047e-16
2.22047e-16
2.22046e-16
2.22046e-16
2.22047e-16
2.22207e-16
2.2786e-16
2.49903e-16
3.03144e-16
4.19805e-16
6.63775e-16
1.2005e-15
2.35664e-15
4.96912e-15
1.0362e-14
2.56001e-14
4.27963e-14
9.07728e-14
1.09617e-13
1.22664e-13
1.52394e-13
1.75981e-13
2.54695e-13
7.44769e-07
2.02944e-06
3.19969e-06
4.79491e-06
6.84977e-06
1.02338e-05
1.55776e-05
2.32906e-05
3.41656e-05
4.90364e-05
6.97699e-05
9.5575e-05
0.000125217
0.000153293
0.00017835
0.000197507
0.000217149
0.000244886
0.000285733
0.000337921
0.000390626
0.000437236
0.000473936
0.000504856
0.000536937
0.000592536
0.000672798
0.000809057
0.00101573
0.00135835
0.00196522
0.00299595
0.00432155
0.00568807
0.00761816
0.0107402
0.0156628
0.0214989
0.0286386
0.0366167
0.0445008
0.0489945
0.0507239
0.0487155
0.043324
0.0343886
0.0253058
0.017389
0.0109799
0.00724022
0.0049628
0.00378537
0.00309151
0.00263704
0.00186383
0.00121207
0.000842488
0.000595443
0.000416261
0.000299245
0.000238531
0.000197581
0.000159168
0.000130413
0.000110603
9.80761e-05
9.09345e-05
8.55975e-05
8.07329e-05
7.58605e-05
7.04665e-05
6.46405e-05
5.88994e-05
5.30288e-05
4.74902e-05
4.34742e-05
4.10535e-05
3.99609e-05
3.91174e-05
3.80049e-05
3.5904e-05
3.06017e-05
2.16619e-05
1.3887e-05
8.47258e-06
4.98561e-06
2.88406e-06
1.68101e-06
1.01453e-06
6.48003e-07
4.40721e-07
3.15417e-07
2.33153e-07
1.79901e-07
1.45676e-07
1.22781e-07
1.08126e-07
1.00045e-07
9.56784e-08
9.1232e-08
8.47443e-08
7.61019e-08
6.62997e-08
5.61902e-08
4.64543e-08
3.75631e-08
2.97786e-08
2.31926e-08
1.77772e-08
1.343e-08
1.00114e-08
7.37078e-09
5.36325e-09
3.85874e-09
2.74599e-09
1.93313e-09
1.3463e-09
9.27498e-10
6.31974e-10
4.25791e-10
2.83579e-10
1.86628e-10
1.21318e-10
7.78614e-11
4.93108e-11
3.07999e-11
1.89625e-11
1.15e-11
6.86471e-12
4.03003e-12
2.32477e-12
1.31661e-12
7.31433e-13
3.98264e-13
2.12385e-13
1.10865e-13
5.66338e-14
2.83231e-14