/*--------------------------------*- C++ -*----------------------------------*\
  =========                 |
  \\      /  F ield         | OpenFOAM: The Open Source CFD Toolbox
   \\    /   O peration     | Website:  https://openfoam.org
    \\  /    A nd           | Version:  7
     \\/     M anipulation  |
\*---------------------------------------------------------------------------*/
FoamFile
{
    version     2.0;
    format      ascii;
    class       volScalarField;
    location    "0.025";
    object      nut;
}
// * * * * * * * * * * * * * * * * * * * * * * * * * * * * * * * * * * * * * //

dimensions      [0 2 -1 0 0 0 0];

internalField   nonuniform List<scalar> 
12225
(
0
0
0
0
0
0
0
0
0
0
0
0
0
0
0
0
0
0
0
0
0
0
0
0
0
0
0
0
0
0
0
0
0
0
0
0
0
8.67325e-10
4.43588e-10
0
0
0
0
0
0
0
0
0
0
0
0
0
0
0
0
1.98433e-08
1.223e-08
2.74217e-09
0
0
0
0
0
0
0
0
0
0
0
0
1.54793e-10
0
0
2.81243e-07
2.53511e-07
0
0
0
0
5.26726e-10
2.06821e-09
2.272e-09
2.63047e-09
2.87286e-09
2.51476e-09
1.42242e-09
5.77607e-10
0
0
0
2.73082e-07
5.34207e-07
3.06715e-07
1.25369e-07
0
0
0
0
2.50524e-08
6.85723e-08
7.87765e-08
5.56689e-08
2.39573e-08
2.29343e-09
0
0
0
0
5.24263e-07
5.20026e-07
2.89592e-07
1.37655e-07
0
0
0
2.76202e-08
0
0
0
0
1.10754e-07
1.072e-07
7.01731e-08
3.1847e-08
3.87955e-09
0
7.86851e-07
6.53779e-07
3.45412e-07
1.13218e-07
0
0
1.40268e-08
1.04496e-07
4.92642e-08
0
0
0
9.39583e-09
6.60915e-08
5.73878e-08
3.94554e-08
2.62491e-08
1.8535e-08
9.43791e-07
7.61702e-07
5.54563e-07
1.71178e-07
0
5.33898e-11
1.25555e-07
1.78019e-07
1.02391e-07
0
0
0
1.05574e-08
4.73577e-08
5.25472e-08
4.35747e-08
3.53274e-08
2.9262e-08
1.05432e-06
7.81949e-07
5.45534e-07
3.962e-07
2.24647e-07
1.9734e-07
2.61628e-07
2.37137e-07
1.34017e-07
2.2433e-08
0
0
1.21295e-08
2.94744e-08
3.67043e-08
2.64484e-08
1.28557e-08
1.97568e-09
7.91735e-07
3.39743e-07
1.27247e-07
2.65627e-07
1.07179e-07
8.80718e-08
1.91073e-07
1.99879e-07
1.70144e-07
1.31198e-07
6.30072e-08
1.06687e-08
0
2.58529e-08
6.04059e-08
6.34273e-08
3.6571e-08
8.98217e-09
0
0
0
0
0
0
1.11422e-07
2.49262e-07
3.32152e-07
4.21103e-07
3.09247e-07
0
0
0
3.25668e-07
4.21923e-07
3.40013e-07
2.21965e-07
0
0
0
0
0
0
2.63915e-07
4.54612e-07
3.81807e-07
5.32478e-07
6.65239e-07
0
0
0
7.04089e-08
1.85268e-07
1.78787e-07
1.40404e-07
0
0
0
0
1.8713e-07
3.31173e-07
6.0066e-07
3.94512e-08
0
2.73543e-07
3.94701e-07
0
0
0
8.862e-10
0
0
0
0
0
0
1.92443e-07
8.27704e-07
8.6217e-07
0
0
0
1.30603e-07
1.73755e-08
0
0
0
0
0
0
0
2.59696e-07
5.40558e-07
3.7331e-07
1.55713e-07
2.11942e-07
3.87642e-07
4.3177e-07
3.57832e-07
3.93013e-07
0
0
0
0
0
0
0
1.26212e-08
1.28676e-07
2.26858e-07
1.69014e-07
1.5455e-07
1.35491e-07
6.4341e-08
1.23757e-07
2.82654e-07
5.3072e-07
4.24243e-07
0
0
0
0
0
0
1.18627e-07
2.40838e-07
3.47943e-07
0
0
0
1.11164e-07
7.64497e-08
8.96614e-08
1.74011e-07
1.96193e-07
9.09965e-08
0
0
0
0
0
6.99558e-08
1.31798e-07
2.10044e-07
3.36721e-07
0
0
0
0
7.76657e-09
3.0449e-08
1.07215e-07
1.92806e-07
1.91193e-07
6.68945e-08
0
0
0
0
0
0
0
7.59186e-08
0
0
0
0
0
0
0
1.01443e-07
1.63674e-07
1.50623e-07
5.95439e-08
0
0
0
0
0
0
0
0
0
0
0
0
0
0
0
0
0
0
0
0
0
0
0
0
0
0
0
0
0
0
0
0
0
0
0
0
0
0
0
0
0
0
0
0
0
0
0
0
0
0
0
0
0
0
0
0
0
0
0
0
0
1.94196e-07
1.75247e-08
0
0
0
0
0
0
0
0
0
0
0
0
0
0
0
0
2.32065e-07
2.07583e-08
0
0
0
0
0
0
0
4.23454e-08
1.03342e-07
1.12055e-07
4.05718e-08
0
0
0
0
0
0
0
0
0
0
0
0
0
0
3.11649e-08
1.17249e-07
1.61547e-07
1.22116e-07
3.58197e-08
0
0
0
0
0
0
0
0
0
0
0
0
0
2.56539e-09
2.11639e-09
0
0
0
0
0
0
0
8.24098e-09
0
0
0
0
0
0
0
0
0
0
0
0
0
0
0
0
0
9.99077e-09
0
0
0
0
0
0
0
0
0
0
0
0
0
0
0
0
0
8.23313e-08
0
0
0
0
0
0
0
0
0
0
0
0
0
0
0
0
0
0
0
0
0
0
0
0
1.74013e-07
1.63188e-06
2.76014e-06
3.13861e-06
2.95926e-06
2.5164e-06
1.99491e-06
1.48842e-06
1.04409e-06
6.836e-07
4.10938e-07
2.1696e-07
8.77676e-08
9.61846e-09
0
0
0
0
0
1.76578e-08
3.62145e-08
5.06547e-08
6.0503e-08
6.52573e-08
6.46649e-08
6.18523e-08
5.59713e-08
4.64605e-08
3.94064e-08
2.99785e-08
2.17218e-08
1.5765e-08
9.91079e-09
5.95949e-09
2.77924e-09
6.54635e-11
0
0
0
0
0
0
0
0
0
0
0
0
0
0
0
0
0
0
0
0
0
0
0
0
0
0
0
0
0
0
0
0
0
0
0
0
0
0
0
0
0
0
0
0
0
0
0
0
0
0
0
0
0
0
0
0
0
0
0
0
0
0
0
0
0
0
0
0
0
0
0
0
0
0
0
0
0
0
0
0
0
0
0
0
0
0
0
0
0
0
0
0
0
0
0
0
0
0
0
0
0
0
0
0
0
0
0
0
0
0
0
0
0
0
0
0
0
0
0
0
0
0
0
0
0
0
0
0
0
0
0
0
0
0
0
0
0
0
0
0
6.7077e-08
1.87173e-07
2.91114e-07
3.75267e-07
4.41046e-07
4.9045e-07
5.24242e-07
5.43537e-07
5.49937e-07
5.43225e-07
5.25725e-07
5.00243e-07
4.67165e-07
4.27165e-07
3.81609e-07
3.28277e-07
2.68374e-07
2.05239e-07
1.45715e-07
9.63005e-08
6.08825e-08
4.01909e-08
3.17392e-08
3.10467e-08
3.3793e-08
3.7244e-08
3.99879e-08
4.07194e-08
3.98421e-08
3.89062e-08
3.65971e-08
3.36563e-08
3.06439e-08
2.72356e-08
2.35305e-08
1.95847e-08
1.52862e-08
1.06577e-08
5.62315e-09
2.55767e-10
0
0
0
0
0
0
0
0
0
0
0
0
0
0
0
0
0
0
0
0
0
0
0
0
0
0
2.54083e-08
2.11592e-08
0
0
0
0
0
0
0
0
0
0
0
0
0
0
0
0
0
0
0
0
0
0
0
0
0
0
0
0
0
0
0
0
0
0
0
0
0
0
0
0
0
0
0
0
0
0
0
0
0
0
0
0
0
0
0
0
0
0
0
0
0
0
0
0
0
0
0
0
0
0
0
0
0
0
0
0
0
0
0
0
0
0
0
0
0
0
0
0
0
0
0
0
0
0
0
0
0
0
0
0
0
0
0
0
0
0
0
0
0
0
0
0
0
0
6.26217e-09
7.34193e-08
1.35562e-07
1.88762e-07
2.31184e-07
2.63869e-07
2.86397e-07
2.99921e-07
3.05921e-07
3.03002e-07
2.92913e-07
2.76282e-07
2.54938e-07
2.295e-07
2.01558e-07
1.72638e-07
1.43021e-07
1.13408e-07
8.54881e-08
6.09568e-08
4.10926e-08
2.64501e-08
1.73759e-08
1.34716e-08
1.39405e-08
1.7671e-08
2.33511e-08
2.97306e-08
3.56547e-08
4.00491e-08
4.23953e-08
4.19031e-08
3.88371e-08
3.33746e-08
2.61847e-08
1.79982e-08
9.48871e-09
7.59795e-10
0
0
0
0
0
0
0
0
0
0
0
0
0
0
0
0
0
0
0
4.34914e-09
2.26698e-08
3.81772e-08
4.99668e-08
5.79157e-08
6.22831e-08
6.3549e-08
6.02929e-08
5.11061e-08
3.7969e-08
2.31354e-08
7.59104e-09
0
0
0
0
0
0
0
0
0
0
0
0
0
0
0
0
0
0
0
0
0
0
0
0
0
0
0
0
0
0
0
0
0
0
0
0
0
0
0
0
0
0
0
0
0
0
0
0
0
0
0
0
0
0
0
0
0
0
0
0
0
0
0
0
0
0
0
0
0
0
0
0
0
0
0
0
0
0
0
0
0
0
0
0
0
0
0
0
0
0
0
0
0
0
0
0
0
0
0
0
0
0
0
0
0
0
0
0
0
0
0
0
0
0
0
0
0
0
0
0
0
0
0
0
0
0
0
0
0
0
0
0
0
0
0
0
0
0
0
0
0
0
0
0
0
0
0
0
0
1.90641e-08
1.26655e-07
2.1338e-07
2.75809e-07
3.17662e-07
3.43382e-07
3.56376e-07
3.59273e-07
3.52258e-07
3.38711e-07
3.21715e-07
3.01575e-07
2.78882e-07
2.59863e-07
2.3893e-07
2.18042e-07
1.99066e-07
1.79326e-07
1.60981e-07
1.43666e-07
1.28018e-07
1.13881e-07
1.01289e-07
9.04162e-08
8.17732e-08
7.50102e-08
6.7853e-08
5.98206e-08
5.2116e-08
4.53609e-08
3.94755e-08
3.42422e-08
2.95047e-08
2.5157e-08
2.10942e-08
1.71701e-08
1.33753e-08
9.72981e-09
6.20899e-09
2.80872e-09
0
0
0
0
0
0
0
0
0
0
0
0
0
0
0
0
0
0
0
0
0
0
0
0
0
0
0
0
0
0
0
0
0
0
0
0
0
0
0
0
0
0
0
0
0
0
0
0
0
0
4.86458e-15
7.97667e-15
9.18498e-15
9.11655e-15
8.31166e-15
7.18125e-15
5.99824e-15
4.91226e-15
3.9877e-15
3.23622e-15
2.64392e-15
2.18642e-15
1.83705e-15
1.57158e-15
1.37035e-15
1.2177e-15
1.10201e-15
1.01402e-15
9.4728e-16
8.95701e-16
8.56522e-16
8.2434e-16
7.99985e-16
7.76599e-16
7.60025e-16
7.38393e-16
7.25763e-16
6.9916e-16
6.88898e-16
6.48691e-16
6.43295e-16
5.74783e-16
5.86251e-16
4.66221e-16
5.17703e-16
3.05176e-16
4.0354e-16
5.7147e-17
1.39727e-16
0
0
1.70978e-16
0
1.02271e-14
0
1.33986e-13
0
0
0
0
0
0
0
0
0
0
0
0
0
0
0
0
0
0
0
0
0
0
0
0
0
0
0
0
0
0
0
0
0
0
0
0
0
0
0
0
0
0
0
0
0
0
2.00097e-08
9.03531e-08
1.57949e-07
2.19492e-07
2.73057e-07
3.16692e-07
3.48382e-07
3.65436e-07
3.67721e-07
3.54558e-07
3.30564e-07
2.99951e-07
2.69599e-07
2.43254e-07
2.18948e-07
1.97116e-07
1.76465e-07
1.55975e-07
1.36482e-07
1.18478e-07
1.02755e-07
9.01843e-08
8.10206e-08
7.35603e-08
6.55432e-08
5.75121e-08
5.03635e-08
4.41097e-08
3.85872e-08
3.36797e-08
2.93016e-08
2.54145e-08
2.1992e-08
1.91029e-08
1.66374e-08
1.44562e-08
1.2455e-08
1.05454e-08
8.72951e-09
7.05736e-09
5.53922e-09
4.17798e-09
2.97313e-09
1.9203e-09
1.0124e-09
2.40395e-10
0
0
0
0
0
0
0
0
0
0
0
0
0
0
0
0
0
0
0
0
0
0
0
0
0
0
0
0
0
0
0
0
0
0
3.02744e-13
2.8999e-12
3.77207e-12
3.75037e-12
3.3208e-12
2.75555e-12
2.19449e-12
1.70137e-12
1.29768e-12
9.81483e-13
7.40748e-13
5.60381e-13
4.2636e-13
3.26899e-13
2.52838e-13
1.97252e-13
1.55094e-13
1.22739e-13
9.7642e-14
7.80116e-14
6.2584e-14
5.04338e-14
4.08493e-14
3.32795e-14
2.73023e-14
2.258e-14
1.88432e-14
1.58754e-14
1.35184e-14
1.16234e-14
1.00881e-14
8.81003e-15
7.7481e-15
6.81293e-15
5.98785e-15
5.18874e-15
4.42765e-15
3.62866e-15
2.78346e-15
1.8722e-15
7.28488e-16
0
0
0
0
0
0
0
0
4.68102e-14
0
1.71582e-12
0
1.08505e-11
0
0
0
0
0
0
0
0
0
0
0
0
0
0
0
0
0
0
0
0
0
0
0
0
0
0
0
0
0
0
0
0
0
0
0
0
0
0
0
0
5.38802e-08
8.28102e-08
0
0
0
0
0
0
0
0
0
0
3.2245e-08
1.55206e-07
2.60493e-07
3.3021e-07
3.57941e-07
3.5387e-07
3.2642e-07
2.8881e-07
2.51942e-07
2.22096e-07
1.96388e-07
1.74446e-07
1.53525e-07
1.33927e-07
1.16035e-07
1.00627e-07
8.77451e-08
7.643e-08
6.61344e-08
5.76785e-08
5.09282e-08
4.50458e-08
3.9512e-08
3.44814e-08
2.97481e-08
2.54582e-08
2.16765e-08
1.83793e-08
1.55253e-08
1.30676e-08
1.10044e-08
9.33658e-09
7.95942e-09
6.71599e-09
5.52233e-09
4.36632e-09
3.28057e-09
2.29112e-09
1.40664e-09
6.32304e-10
0
0
0
0
0
0
0
0
0
0
0
0
0
0
0
0
0
0
0
0
0
0
0
0
0
0
0
0
0
0
0
0
0
0
0
0
0
0
0
0
0
0
0
0
0
0
0
0
0
0
0
0
0
0
0
0
0
0
0
0
0
0
0
0
0
0
0
0
0
0
0
0
0
0
0
0
1.69825e-14
8.85321e-14
2.33147e-13
9.16893e-13
2.37377e-12
7.40764e-12
1.19079e-11
2.71379e-11
2.34078e-11
6.17567e-11
7.44342e-14
2.8247e-11
0
0
0
0
0
0
0
0
0
0
0
0
0
0
0
0
0
0
0
0
0
0
0
0
0
0
0
0
0
0
0
0
0
0
0
0
8.57929e-09
9.62543e-08
1.86397e-07
2.75253e-07
3.24545e-07
2.213e-07
0
0
0
0
0
0
0
0
0
0
0
0
0
0
1.78105e-07
2.92484e-07
3.28699e-07
3.14006e-07
2.77651e-07
2.39178e-07
2.07316e-07
1.82357e-07
1.61465e-07
1.43576e-07
1.27837e-07
1.12996e-07
9.75568e-08
8.1385e-08
6.66843e-08
5.48341e-08
4.61682e-08
4.04623e-08
3.68158e-08
3.37609e-08
3.03654e-08
2.66387e-08
2.27773e-08
1.89903e-08
1.5585e-08
1.27103e-08
1.0345e-08
8.38967e-09
6.76375e-09
5.43283e-09
4.37152e-09
3.50253e-09
2.71376e-09
1.95506e-09
1.22889e-09
5.6069e-10
0
0
0
0
0
0
0
0
0
0
0
0
0
0
0
0
0
0
0
0
0
0
0
0
0
0
0
0
0
0
0
0
0
0
0
0
0
0
0
0
0
0
0
0
0
0
0
0
0
0
0
0
0
0
0
0
0
0
0
0
0
0
0
0
0
0
0
0
0
0
4.45519e-14
2.04965e-13
3.30844e-13
4.74752e-13
6.25376e-13
9.02228e-13
1.25751e-12
1.99834e-12
2.90157e-12
4.87243e-12
6.80628e-12
1.14431e-11
1.37416e-11
2.362e-11
1.77721e-11
3.18464e-11
0
0
0
0
0
0
0
0
0
0
0
0
0
0
0
0
0
0
0
0
0
0
0
0
0
0
0
0
0
0
0
0
0
0
0
0
0
0
0
0
0
0
0
0
0
0
0
0
0
0
0
0
0
0
0
0
0
0
0
0
1.83507e-07
2.74076e-07
2.78494e-07
2.46878e-07
2.10052e-07
1.8055e-07
1.58517e-07
1.42696e-07
1.30425e-07
1.18318e-07
1.04823e-07
9.01403e-08
7.48685e-08
6.00019e-08
4.70328e-08
3.66923e-08
2.9469e-08
2.5565e-08
2.43655e-08
2.41491e-08
2.31164e-08
2.08659e-08
1.77776e-08
1.44132e-08
1.1334e-08
8.80037e-09
6.8208e-09
5.28055e-09
4.05342e-09
3.06256e-09
2.27507e-09
1.64326e-09
1.1001e-09
5.89979e-10
1.02384e-10
0
0
0
0
0
0
0
0
0
0
0
0
0
0
0
0
0
0
0
0
0
0
0
0
0
0
0
0
0
0
0
0
0
0
0
0
0
0
0
0
0
0
0
0
0
0
0
0
0
0
0
0
0
0
0
0
0
0
0
0
0
0
0
0
0
0
0
0
0
0
1.05636e-13
2.19906e-13
3.4242e-13
4.65555e-13
6.75012e-13
9.39086e-13
1.46321e-12
2.09884e-12
3.3966e-12
4.64171e-12
7.31732e-12
8.42474e-12
1.35136e-11
8.54232e-12
9.57694e-12
0
0
0
0
0
0
0
0
0
0
0
0
0
0
0
0
0
0
0
0
0
0
0
0
0
0
0
0
0
0
0
0
0
0
0
0
0
0
0
0
0
0
0
9.97282e-08
2.37903e-07
4.25799e-07
7.80355e-07
1.18113e-06
1.47757e-06
1.47964e-06
1.35176e-06
1.10981e-06
6.74183e-07
1.89428e-07
0
0
0
0
0
0
0
7.70557e-08
2.09669e-07
2.29331e-07
2.03719e-07
1.71463e-07
1.47306e-07
1.30617e-07
1.18225e-07
1.07351e-07
9.73339e-08
8.81009e-08
7.88405e-08
6.82984e-08
5.57298e-08
4.25705e-08
3.07501e-08
2.14212e-08
1.54424e-08
1.31521e-08
1.41264e-08
1.63258e-08
1.71604e-08
1.59823e-08
1.34264e-08
1.04759e-08
7.82953e-09
5.74105e-09
4.18584e-09
3.03743e-09
2.16498e-09
1.48194e-09
9.43242e-10
5.11257e-10
1.41749e-10
0
0
0
0
0
0
0
0
0
0
0
0
0
0
0
0
0
0
0
0
0
0
0
0
0
0
0
0
0
0
0
0
0
0
0
0
0
0
0
0
0
0
0
0
0
0
0
0
0
0
0
0
0
0
0
0
0
0
0
0
0
0
0
0
0
0
0
0
0
0
2.82184e-14
1.25272e-13
2.22407e-13
3.13985e-13
4.55062e-13
6.2614e-13
9.46179e-13
1.32623e-12
2.04413e-12
2.69049e-12
3.99174e-12
4.1487e-12
4.88234e-12
2.32248e-12
0
0
0
0
0
0
0
0
0
0
0
0
0
0
0
0
0
0
0
0
0
0
0
0
0
0
0
0
0
0
0
0
0
0
0
0
0
0
0
0
0
4.14724e-07
1.46404e-06
2.46126e-06
2.39372e-06
5.49589e-07
0
0
0
0
8.15369e-07
1.32005e-06
1.50863e-06
1.45809e-06
1.29431e-06
9.27463e-07
3.63334e-07
0
0
0
0
0
0
1.73156e-08
1.52555e-07
1.72045e-07
1.54271e-07
1.33047e-07
1.16182e-07
1.02862e-07
9.19472e-08
8.29742e-08
7.54367e-08
6.9156e-08
6.39451e-08
5.85904e-08
5.08688e-08
4.00768e-08
2.79737e-08
1.6877e-08
8.7359e-09
4.39488e-09
4.18385e-09
7.51528e-09
1.15122e-08
1.31119e-08
1.21381e-08
9.76791e-09
7.20943e-09
5.07013e-09
3.4808e-09
2.35671e-09
1.56216e-09
9.81922e-10
5.41217e-10
1.99966e-10
0
0
0
0
0
0
0
0
0
0
0
0
0
0
0
0
0
0
0
0
0
0
0
0
0
0
0
0
0
0
0
0
0
0
0
0
0
0
0
0
0
0
0
0
0
0
0
0
0
0
0
0
0
0
0
0
0
0
0
0
0
0
0
0
0
0
0
0
0
0
0
4.29658e-14
1.18462e-13
1.83055e-13
2.69063e-13
3.64874e-13
5.30252e-13
7.13802e-13
1.02805e-12
1.25642e-12
1.73752e-12
1.4063e-12
1.15197e-12
0
0
0
0
0
0
0
0
0
0
0
0
0
0
0
0
0
0
0
0
0
0
0
0
0
0
0
0
0
0
0
0
0
0
0
0
0
0
0
0
0
1.11725e-06
3.46409e-06
7.42213e-06
1.26651e-05
1.3182e-05
0
0
0
0
0
0
0
4.28049e-07
6.05951e-07
6.39857e-07
7.30215e-07
7.90554e-07
5.96622e-07
0
0
0
0
0
0
2.38909e-08
1.20494e-07
1.28141e-07
1.12342e-07
9.64029e-08
8.48757e-08
7.74416e-08
7.19677e-08
6.65832e-08
6.03262e-08
5.38015e-08
4.88216e-08
4.60582e-08
4.31788e-08
3.70041e-08
2.68187e-08
1.48556e-08
4.71469e-09
0
0
0
4.55153e-09
9.04668e-09
1.01344e-08
8.76226e-09
6.54126e-09
4.4832e-09
2.92108e-09
1.83846e-09
1.11142e-09
6.16314e-10
2.64597e-10
4.28464e-12
0
0
0
0
0
0
0
0
0
0
0
0
0
0
0
0
0
0
0
0
0
0
0
0
0
0
0
0
0
0
0
0
0
0
0
0
0
0
0
0
0
0
0
0
0
0
0
0
0
0
0
0
0
0
0
0
0
0
0
0
0
0
0
0
0
0
0
0
0
0
0
2.79268e-14
7.26745e-14
1.19585e-13
1.61675e-13
2.25652e-13
2.78609e-13
3.6808e-13
3.56093e-13
3.44452e-13
3.60695e-14
0
0
0
0
0
0
0
0
0
0
0
0
0
0
0
0
0
0
0
0
0
0
0
0
0
0
0
0
0
0
0
0
0
0
0
0
0
0
0
0
0
9.68378e-07
3.37777e-06
7.98565e-06
1.55549e-05
2.52005e-05
1.78963e-05
0
0
0
0
0
0
0
2.22467e-07
5.06216e-07
3.02606e-07
1.06891e-07
2.1873e-07
4.92899e-07
4.99292e-07
8.36846e-09
0
0
0
0
0
8.28883e-08
1.1595e-07
9.94993e-08
8.02373e-08
6.69655e-08
5.89384e-08
5.58804e-08
5.58298e-08
5.5029e-08
5.11274e-08
4.45069e-08
3.79922e-08
3.45881e-08
3.39939e-08
3.23242e-08
2.58235e-08
1.46053e-08
2.98987e-09
0
0
0
0
4.66416e-09
7.77795e-09
7.55668e-09
5.81642e-09
3.93729e-09
2.4593e-09
1.44307e-09
7.85758e-10
3.64907e-10
8.63975e-11
0
0
0
0
0
0
0
0
0
0
0
0
0
0
0
0
0
0
0
0
0
0
0
0
0
0
0
0
0
0
0
0
0
0
0
0
0
0
0
0
0
0
0
0
0
0
0
0
0
0
0
0
0
0
0
0
0
0
0
0
0
0
0
0
0
0
0
0
0
0
0
0
0
1.09008e-14
2.50288e-14
3.71538e-14
3.19961e-14
2.07233e-14
0
0
0
0
0
0
0
0
0
9.33351e-10
2.04462e-09
2.98058e-09
1.14388e-09
0
0
0
0
0
0
0
0
0
0
0
0
0
0
0
0
0
0
0
0
0
0
0
0
0
0
0
0
0
0
2.06525e-07
1.14744e-06
2.81524e-06
4.93049e-06
5.84837e-06
1.41806e-06
0
0
0
0
0
0
0
0
0
1.79337e-07
3.35949e-07
1.00734e-07
0
8.87711e-08
3.78686e-07
3.40357e-07
0
0
0
0
0
6.09632e-08
1.12565e-07
9.62287e-08
7.41305e-08
5.86722e-08
4.84027e-08
4.18581e-08
3.93613e-08
4.08562e-08
4.35931e-08
4.34696e-08
3.86848e-08
3.16114e-08
2.66309e-08
2.59301e-08
2.68159e-08
2.39882e-08
1.47637e-08
2.59162e-09
0
0
0
0
9.29416e-10
5.56483e-09
6.35353e-09
5.09559e-09
3.43254e-09
2.07145e-09
1.13866e-09
5.52844e-10
1.98125e-10
0
0
0
0
0
0
0
0
0
0
0
0
0
0
0
0
0
0
0
0
0
0
0
0
0
0
0
0
0
0
0
0
0
0
0
0
0
0
0
0
0
0
0
0
0
0
0
0
0
0
0
0
0
0
0
0
0
0
0
0
0
0
0
0
0
0
0
0
0
0
0
0
0
0
0
0
0
0
0
0
0
0
0
0
0
0
0
3.34426e-08
2.156e-08
1.20538e-08
9.42006e-09
8.81625e-09
1.06513e-08
1.07189e-08
1.1175e-08
1.29618e-08
1.56655e-08
1.93358e-08
2.38896e-08
2.90743e-08
3.45659e-08
3.95824e-08
4.25539e-08
4.33465e-08
4.1965e-08
3.95977e-08
3.81148e-08
3.80605e-08
4.04992e-08
4.52082e-08
4.33538e-08
2.36394e-08
0
0
0
0
0
0
0
0
0
0
0
0
0
0
0
0
0
0
0
0
0
0
0
0
0
0
0
0
0
1.69644e-07
2.98066e-07
1.11819e-07
0
0
0
0
5.7524e-08
1.0038e-07
8.3278e-08
6.38345e-08
5.13059e-08
4.2791e-08
3.61741e-08
3.10723e-08
2.79896e-08
2.79537e-08
3.10584e-08
3.43998e-08
3.36224e-08
2.80525e-08
2.22042e-08
2.04592e-08
2.20471e-08
2.17093e-08
1.46787e-08
2.67259e-09
0
0
0
0
0
3.8822e-09
5.43369e-09
4.56799e-09
3.0925e-09
1.83447e-09
9.69964e-10
4.36644e-10
1.27346e-10
0
0
0
0
0
0
0
0
0
0
0
0
0
0
0
0
0
0
0
0
0
0
0
0
0
0
0
0
0
0
0
0
0
0
0
0
0
0
0
0
0
0
0
0
0
0
0
0
0
0
0
0
0
0
0
0
0
0
0
0
0
0
0
0
0
0
0
0
0
0
0
0
0
0
0
0
0
0
0
0
0
0
0
0
0
0
5.07231e-07
1.78923e-07
4.71017e-08
1.81317e-08
1.40115e-08
1.63406e-08
2.06233e-08
2.76939e-08
3.59998e-08
4.74628e-08
6.14417e-08
7.64452e-08
9.25806e-08
1.08675e-07
1.23445e-07
1.34333e-07
1.40016e-07
1.43538e-07
1.48263e-07
1.54828e-07
1.62894e-07
1.73841e-07
1.83904e-07
1.80268e-07
1.48264e-07
8.1502e-08
0
0
0
2.76488e-08
1.53441e-07
2.65052e-07
2.65853e-07
8.99708e-09
0
0
0
0
0
0
0
0
0
0
0
0
0
0
0
0
0
0
0
0
5.995e-08
1.78098e-07
1.58297e-07
1.00492e-08
0
0
0
1.01147e-07
8.7547e-08
5.66821e-08
4.0647e-08
3.49081e-08
3.20716e-08
2.96958e-08
2.74299e-08
2.4285e-08
1.99596e-08
1.67478e-08
1.82538e-08
2.43102e-08
2.86038e-08
2.59131e-08
1.97379e-08
1.70309e-08
1.89328e-08
2.02257e-08
1.45773e-08
2.3784e-09
0
0
0
0
0
3.23873e-09
5.1941e-09
4.48939e-09
3.06968e-09
1.83405e-09
9.81061e-10
4.56073e-10
1.56485e-10
0
0
0
0
0
0
0
0
0
0
0
0
0
0
0
0
0
0
0
0
0
0
0
0
0
0
0
0
0
0
0
0
0
0
0
0
0
0
0
0
0
0
0
0
0
0
0
0
0
0
0
0
0
0
0
0
0
0
0
0
0
0
0
0
0
0
0
0
0
0
0
0
0
0
0
0
0
0
0
0
0
0
0
0
0
2.62648e-06
5.99435e-07
1.4152e-07
4.59254e-08
2.13548e-08
1.47147e-08
2.32825e-08
3.45261e-08
5.13899e-08
7.18541e-08
9.15483e-08
1.1667e-07
1.43431e-07
1.70547e-07
1.98294e-07
2.18161e-07
2.32108e-07
2.45226e-07
2.55136e-07
2.67264e-07
2.8326e-07
3.02982e-07
3.22291e-07
3.27449e-07
2.92039e-07
2.14546e-07
1.02714e-07
4.0922e-09
0
1.0502e-07
3.57506e-07
6.72641e-07
8.66202e-07
7.30641e-07
6.02875e-08
0
0
0
0
0
0
0
0
0
1.18177e-05
9.81016e-06
5.58768e-06
2.53648e-06
8.76065e-07
1.58231e-07
0
0
0
0
1.64829e-08
1.11041e-07
1.76001e-07
4.53287e-07
0
0
3.54502e-08
1.73278e-07
8.45119e-08
3.3527e-08
1.66479e-08
1.51702e-08
1.73561e-08
1.92743e-08
2.14184e-08
2.28253e-08
2.06498e-08
1.44418e-08
8.41908e-09
8.48605e-09
1.60175e-08
2.34894e-08
2.27795e-08
1.70608e-08
1.50518e-08
1.80226e-08
1.96618e-08
1.30398e-08
0
0
0
0
0
0
3.87369e-09
5.18087e-09
4.16125e-09
2.68418e-09
1.5086e-09
7.43175e-10
2.96424e-10
5.70651e-11
0
0
0
0
0
0
0
0
0
0
0
0
0
0
0
0
0
0
0
0
0
0
0
0
0
0
0
0
0
0
0
0
0
0
0
0
0
0
0
0
0
0
0
0
0
0
0
0
0
0
0
0
0
0
0
0
0
0
0
0
0
0
0
0
0
0
0
0
0
0
0
0
0
0
0
0
0
0
0
0
0
0
0
0
3.87029e-06
1.13231e-06
3.87597e-07
1.32516e-07
4.51269e-08
1.27976e-08
1.64674e-08
3.64336e-08
5.09496e-08
6.97408e-08
9.79835e-08
1.23501e-07
1.49885e-07
1.84173e-07
2.18396e-07
2.46731e-07
2.66737e-07
2.8482e-07
3.02636e-07
3.2026e-07
3.3987e-07
3.61021e-07
3.83989e-07
4.01715e-07
3.83016e-07
3.24784e-07
2.28312e-07
1.17691e-07
5.29898e-08
1.02908e-07
3.08842e-07
6.8178e-07
1.11141e-06
1.33102e-06
1.14188e-06
4.14077e-07
0
0
0
0
0
0
0
2.70643e-05
2.18944e-05
1.15462e-05
5.12778e-06
1.95185e-06
5.74599e-07
3.50225e-08
0
0
0
0
4.07765e-08
1.18607e-07
3.35355e-07
8.54345e-07
0
0
2.25048e-07
2.00108e-07
7.01821e-08
1.77395e-08
3.25759e-09
3.43505e-09
6.81464e-09
9.38197e-09
1.21962e-08
1.59078e-08
1.80256e-08
1.52125e-08
8.19626e-09
2.44598e-09
2.6109e-09
8.9671e-09
1.54836e-08
1.52145e-08
1.17066e-08
1.20813e-08
1.55911e-08
1.56698e-08
7.20243e-09
0
0
0
0
0
0
2.03539e-09
2.26086e-09
1.32846e-09
4.30133e-10
0
0
0
0
0
0
0
0
0
0
0
0
0
0
0
0
0
0
0
0
0
0
0
0
0
0
0
0
0
0
0
0
0
0
0
0
0
0
0
0
0
0
0
0
0
0
0
0
0
0
0
0
0
0
0
0
0
0
0
0
0
0
0
0
0
0
0
0
0
0
0
0
0
0
0
0
0
0
0
0
0
0
0
0
0
0
0
3.53168e-06
2.50341e-06
1.1313e-06
3.8825e-07
1.05027e-07
2.34743e-08
1.17266e-08
4.54758e-08
5.54175e-08
6.23734e-08
7.90633e-08
1.04445e-07
1.3697e-07
1.59214e-07
1.95903e-07
2.29262e-07
2.54481e-07
2.75037e-07
2.944e-07
3.13024e-07
3.34161e-07
3.5807e-07
3.81411e-07
4.01944e-07
4.13644e-07
3.81423e-07
3.17873e-07
2.30521e-07
1.43358e-07
1.07649e-07
1.74769e-07
3.82391e-07
6.89934e-07
1.09392e-06
1.2353e-06
1.20902e-06
7.06055e-07
0
0
0
0
0
3.56409e-07
5.68114e-06
5.66186e-06
3.37017e-06
1.47464e-06
4.42787e-07
1.27912e-08
0
0
0
0
0
8.98097e-08
2.24465e-07
8.1714e-07
6.52559e-07
0
4.02981e-08
3.66051e-07
1.66451e-07
4.79839e-08
1.07405e-08
2.24487e-09
3.65783e-09
6.57751e-09
7.8987e-09
8.81275e-09
1.0795e-08
1.33131e-08
1.40003e-08
1.05845e-08
4.91284e-09
1.8545e-09
2.5971e-09
6.44155e-09
1.00235e-08
9.36068e-09
7.95867e-09
9.46804e-09
1.18281e-08
9.9528e-09
1.30268e-09
0
0
0
0
0
0
0
0
0
0
0
0
0
0
0
0
0
0
0
0
0
0
0
0
0
0
0
0
0
0
0
0
0
0
0
0
0
0
0
0
0
0
0
0
0
0
0
0
0
0
0
0
0
0
0
0
0
0
0
0
0
0
0
0
0
0
0
0
0
0
0
0
0
0
0
0
0
0
0
0
0
0
0
0
0
0
0
0
0
0
0
0
0
0
0
0
9.40295e-07
3.37983e-06
1.87743e-06
8.62789e-07
3.18168e-07
1.04564e-07
7.16643e-08
8.07204e-08
2.92328e-08
4.7139e-08
5.75588e-08
7.0889e-08
9.26736e-08
1.23832e-07
1.44001e-07
1.73122e-07
2.04406e-07
2.25887e-07
2.44481e-07
2.61817e-07
2.80307e-07
3.0099e-07
3.20544e-07
3.39737e-07
3.5608e-07
3.56601e-07
3.28946e-07
2.73663e-07
2.03542e-07
1.35888e-07
1.04004e-07
1.42568e-07
2.59312e-07
4.74776e-07
6.49605e-07
8.22856e-07
7.92366e-07
5.93532e-07
2.36926e-07
0
0
0
3.21847e-07
9.03409e-07
9.06528e-07
5.22609e-07
1.50463e-07
0
0
0
0
3.38988e-09
1.26247e-08
7.40592e-08
1.98943e-07
6.29407e-07
1.16982e-06
3.73829e-07
1.48678e-07
3.18934e-07
3.3319e-07
1.09657e-07
3.78013e-08
1.70938e-08
1.25963e-08
1.35215e-08
1.45845e-08
1.38653e-08
1.26756e-08
1.24999e-08
1.31355e-08
1.38073e-08
1.30865e-08
1.00075e-08
7.39931e-09
7.60802e-09
8.25574e-09
9.53615e-09
9.7495e-09
7.86873e-09
7.04951e-09
7.67157e-09
8.21232e-09
5.21433e-09
0
0
0
0
0
0
0
0
0
0
0
0
0
0
0
0
0
0
0
0
0
0
0
0
0
0
0
0
0
0
0
0
0
0
0
0
0
0
0
0
0
0
0
0
0
0
0
0
0
0
0
0
0
0
0
0
0
0
0
0
0
0
0
0
0
0
0
0
0
0
0
0
0
0
0
0
0
0
0
0
0
0
0
0
0
0
0
0
0
0
0
0
0
0
0
0
4.69945e-07
1.91495e-06
1.74633e-06
6.63324e-07
3.1005e-07
1.12971e-07
4.3878e-08
0
0
2.39109e-08
3.79421e-08
4.57977e-08
5.59236e-08
7.46781e-08
9.56258e-08
1.10077e-07
1.33132e-07
1.55254e-07
1.71184e-07
1.85441e-07
1.99356e-07
2.14955e-07
2.28979e-07
2.42943e-07
2.56176e-07
2.64963e-07
2.57606e-07
2.35676e-07
1.94212e-07
1.41986e-07
8.91714e-08
5.45737e-08
5.39618e-08
9.6517e-08
1.62681e-07
2.51137e-07
2.93831e-07
2.92983e-07
2.35839e-07
1.34237e-07
2.37563e-08
0
0
0
0
0
0
0
0
7.28455e-08
1.03019e-07
8.01435e-08
6.80496e-08
1.651e-07
5.17768e-07
1.07172e-06
5.64183e-07
2.91096e-07
2.7096e-07
4.54119e-07
2.13112e-07
8.34725e-08
4.57597e-08
3.33384e-08
2.93404e-08
2.80437e-08
2.65858e-08
2.38534e-08
2.10515e-08
1.97287e-08
1.93642e-08
1.86416e-08
1.74592e-08
1.56511e-08
1.36881e-08
1.43004e-08
1.55427e-08
1.48631e-08
1.36956e-08
1.11408e-08
8.76649e-09
7.54273e-09
6.4402e-09
5.81275e-09
2.67789e-09
0
0
2.55577e-09
3.06246e-09
0
0
0
0
0
0
0
0
0
0
0
0
0
0
0
0
0
0
0
0
0
0
0
0
0
0
0
0
0
0
0
0
0
0
0
0
0
0
0
0
0
0
0
0
0
0
0
0
0
0
0
0
0
0
0
0
0
0
0
0
0
0
0
0
0
0
0
0
0
0
0
0
0
0
0
0
0
0
0
0
0
0
0
0
0
0
0
0
0
0
0
8.22204e-08
6.43165e-07
7.83722e-07
0
0
0
0
0
0
6.94634e-09
1.826e-08
2.50896e-08
3.01678e-08
3.70163e-08
4.94392e-08
5.80743e-08
6.99196e-08
8.19999e-08
9.17396e-08
1.03329e-07
1.11812e-07
1.20604e-07
1.28426e-07
1.3465e-07
1.4197e-07
1.49062e-07
1.48775e-07
1.40172e-07
1.21664e-07
9.35705e-08
5.84541e-08
2.14661e-08
0
0
0
0
0
0
0
0
0
0
0
0
0
0
5.33632e-09
7.10115e-08
1.4442e-07
1.9473e-07
1.87556e-07
1.47076e-07
1.7697e-07
4.75056e-07
8.05769e-07
4.90197e-07
3.17147e-07
2.64908e-07
3.65234e-07
3.6543e-07
1.4772e-07
8.26449e-08
6.16626e-08
5.20273e-08
4.62285e-08
4.22751e-08
3.86035e-08
3.47073e-08
3.14649e-08
3.03724e-08
3.03698e-08
2.91223e-08
2.62505e-08
2.3122e-08
2.05784e-08
2.02636e-08
2.2219e-08
2.18756e-08
1.9684e-08
1.65212e-08
1.29109e-08
1.07658e-08
8.18678e-09
6.37753e-09
5.56516e-09
3.46038e-09
3.70469e-09
7.44369e-09
9.44559e-09
6.32778e-09
0
0
0
0
0
0
0
0
0
0
0
0
0
0
0
0
0
0
0
0
0
0
0
0
0
0
0
0
0
0
0
0
0
0
0
0
0
0
0
0
0
0
0
0
0
0
0
0
0
0
0
0
0
0
0
0
0
0
0
0
0
0
0
0
0
0
0
0
0
0
0
0
0
0
0
0
0
0
0
0
0
0
0
0
0
0
0
0
0
0
0
0
0
0
0
0
0
0
0
9.28864e-10
6.9737e-09
1.00227e-08
1.23202e-08
1.39977e-08
1.62031e-08
1.92095e-08
2.14949e-08
2.51457e-08
2.66125e-08
2.79596e-08
2.94115e-08
3.14107e-08
3.27152e-08
3.36205e-08
3.49075e-08
3.58369e-08
3.48588e-08
2.99731e-08
2.09179e-08
7.33464e-09
0
0
0
0
0
0
0
0
0
0
0
0
0
0
0
6.16536e-08
1.37433e-07
1.98869e-07
2.51039e-07
2.71368e-07
2.53302e-07
2.51713e-07
4.25287e-07
5.01934e-07
3.28511e-07
2.57704e-07
2.38845e-07
2.68984e-07
4.65904e-07
2.47457e-07
1.32501e-07
9.52525e-08
8.09081e-08
7.12984e-08
6.21681e-08
5.45391e-08
4.8513e-08
4.3693e-08
4.08362e-08
4.09174e-08
4.23958e-08
4.21117e-08
3.84928e-08
3.29852e-08
2.81891e-08
2.58564e-08
2.7031e-08
2.77254e-08
2.55028e-08
2.22331e-08
1.81054e-08
1.52126e-08
1.25697e-08
9.2642e-09
8.37414e-09
7.94559e-09
8.44807e-09
1.22969e-08
1.5433e-08
1.36811e-08
5.70888e-09
0
0
0
0
0
0
0
0
0
0
0
0
0
0
0
0
0
0
0
0
0
0
0
0
0
0
0
0
0
0
0
0
0
0
0
0
0
0
0
0
0
0
0
0
0
0
0
0
0
0
0
0
0
0
0
0
0
0
0
0
0
0
0
0
0
0
0
0
0
0
0
0
0
0
0
0
0
0
0
0
0
0
0
0
0
0
0
0
0
0
0
0
0
0
6.13234e-08
4.22612e-08
0
0
0
0
0
0
0
0
0
0
0
0
0
0
0
0
0
0
0
0
0
0
0
0
0
0
0
0
0
0
0
0
0
0
0
0
1.58851e-08
8.86497e-08
1.6567e-07
2.28888e-07
2.80167e-07
3.17222e-07
3.27594e-07
3.21158e-07
3.53946e-07
2.65374e-07
1.95975e-07
1.82818e-07
1.85527e-07
1.94244e-07
3.59499e-07
3.31832e-07
1.80328e-07
1.2427e-07
1.03719e-07
9.43941e-08
8.49633e-08
7.41319e-08
6.47321e-08
5.78332e-08
5.29276e-08
5.04986e-08
5.14827e-08
5.41789e-08
5.5194e-08
5.23132e-08
4.47639e-08
3.65321e-08
3.10243e-08
3.01706e-08
3.13953e-08
3.0085e-08
2.69812e-08
2.31681e-08
1.98079e-08
1.76174e-08
1.41343e-08
1.2326e-08
1.26204e-08
1.36682e-08
1.74481e-08
2.10723e-08
2.02401e-08
1.33673e-08
7.65872e-10
0
0
0
0
0
0
0
0
0
0
0
0
0
0
0
0
0
0
0
0
0
0
0
0
0
0
0
0
0
0
0
0
0
0
0
0
0
0
0
0
0
0
0
0
0
0
0
0
0
0
0
0
0
0
0
0
0
0
0
0
0
0
0
0
0
0
0
0
0
0
0
0
0
0
0
0
0
0
0
0
0
0
0
0
0
0
0
0
0
0
0
0
2.5514e-08
9.48043e-08
3.03967e-09
0
0
0
0
0
0
0
0
0
0
0
0
0
0
0
0
0
0
0
0
0
0
0
0
0
0
0
0
0
0
0
0
0
0
0
8.70954e-09
7.84677e-08
1.52068e-07
2.21458e-07
2.80765e-07
3.29648e-07
3.62531e-07
3.6892e-07
3.21437e-07
1.90479e-07
1.46005e-07
1.4097e-07
1.46483e-07
1.51305e-07
2.65061e-07
3.82129e-07
2.2138e-07
1.59235e-07
1.2625e-07
1.12404e-07
1.04467e-07
9.41656e-08
8.30728e-08
7.4379e-08
6.79758e-08
6.31403e-08
6.1062e-08
6.24727e-08
6.57348e-08
6.73824e-08
6.54941e-08
5.75767e-08
4.54409e-08
3.56244e-08
3.17171e-08
3.26654e-08
3.29001e-08
3.06209e-08
2.74728e-08
2.43377e-08
2.25425e-08
1.9825e-08
1.74411e-08
1.77513e-08
1.92631e-08
2.29138e-08
2.6564e-08
2.57686e-08
1.99178e-08
7.73555e-09
0
0
0
0
0
0
0
0
0
0
0
0
0
0
0
0
0
0
0
0
0
0
0
0
0
0
0
0
0
0
0
0
0
0
0
0
0
0
0
0
0
0
0
0
0
0
0
0
0
0
0
0
0
0
0
0
0
0
0
0
0
0
0
0
0
0
0
0
0
0
0
0
0
0
0
0
0
0
0
0
0
0
0
0
0
0
0
0
0
5.70257e-09
6.22721e-08
0
0
0
0
0
0
0
0
0
0
0
0
0
0
0
0
0
0
0
0
0
0
0
0
0
0
0
0
0
0
0
0
0
0
0
0
0
0
0
2.04576e-08
9.29617e-08
1.68281e-07
2.39177e-07
2.99812e-07
3.40093e-07
3.96951e-07
2.8703e-07
1.96142e-07
1.56148e-07
1.3856e-07
1.31622e-07
1.28754e-07
2.17887e-07
3.82422e-07
2.34973e-07
1.73515e-07
1.36117e-07
1.20881e-07
1.15186e-07
1.1075e-07
1.02507e-07
9.21704e-08
8.48693e-08
7.9346e-08
7.46924e-08
7.1952e-08
7.27852e-08
7.57944e-08
7.76488e-08
7.64199e-08
6.91548e-08
5.43949e-08
3.99496e-08
3.22892e-08
3.20665e-08
3.38444e-08
3.31306e-08
3.09774e-08
2.86436e-08
2.72694e-08
2.56384e-08
2.32786e-08
2.33134e-08
2.50552e-08
2.85431e-08
3.20058e-08
3.04659e-08
2.45481e-08
1.40478e-08
0
0
0
0
0
0
0
0
0
0
0
0
0
0
0
0
0
0
0
0
0
0
0
0
0
0
0
0
0
0
0
0
0
0
0
0
0
0
0
0
0
0
0
0
0
0
0
0
0
0
0
0
0
0
0
0
0
0
0
0
0
0
0
0
0
0
0
0
0
0
0
0
0
0
0
0
0
0
0
0
0
0
0
0
0
0
0
0
1.5929e-07
1.38516e-07
6.09372e-08
0
0
0
0
0
0
0
0
0
0
0
0
0
0
0
0
0
0
0
0
0
0
0
0
0
0
0
0
0
0
0
0
0
0
0
0
0
0
0
3.57999e-08
1.02307e-07
1.68561e-07
2.25823e-07
3.01041e-07
2.93522e-07
2.19987e-07
1.87226e-07
1.69873e-07
1.52752e-07
1.32234e-07
1.25187e-07
2.10024e-07
3.52573e-07
2.30862e-07
1.78529e-07
1.44056e-07
1.2865e-07
1.23444e-07
1.21288e-07
1.16289e-07
1.06357e-07
9.72496e-08
9.24291e-08
8.86811e-08
8.40342e-08
8.06231e-08
8.02607e-08
8.25283e-08
8.43522e-08
8.37044e-08
7.72635e-08
6.16741e-08
4.37583e-08
3.24493e-08
3.05256e-08
3.31528e-08
3.43291e-08
3.34366e-08
3.21304e-08
3.1401e-08
3.08062e-08
2.89112e-08
2.86415e-08
3.03675e-08
3.35572e-08
3.66664e-08
3.38897e-08
2.66028e-08
1.75472e-08
3.5121e-09
0
0
0
0
0
0
0
0
0
0
0
0
0
0
0
0
0
0
0
0
0
0
0
0
0
0
0
0
0
0
0
0
0
0
0
0
0
0
0
0
0
0
0
0
0
0
0
0
0
0
0
0
0
0
0
0
0
0
0
0
0
0
0
0
0
0
0
0
0
0
0
0
0
0
0
0
0
0
0
0
0
0
0
0
0
0
0
3.26372e-08
6.69676e-08
4.19375e-08
0
0
0
0
0
0
0
0
0
0
0
0
0
0
0
0
0
0
0
0
0
0
0
0
0
0
0
0
0
0
0
0
0
0
0
0
0
0
0
0
4.23052e-08
1.16608e-07
1.87892e-07
1.7095e-07
1.57445e-07
1.57007e-07
1.57591e-07
1.51301e-07
1.28041e-07
1.30145e-07
2.29991e-07
3.04967e-07
2.13187e-07
1.71117e-07
1.44508e-07
1.29886e-07
1.23271e-07
1.22674e-07
1.21244e-07
1.16201e-07
1.08139e-07
1.00812e-07
9.75971e-08
9.50344e-08
9.04879e-08
8.54439e-08
8.31843e-08
8.38142e-08
8.51699e-08
8.48953e-08
7.94264e-08
6.44431e-08
4.5369e-08
3.18053e-08
2.82915e-08
3.08945e-08
3.36171e-08
3.40501e-08
3.3703e-08
3.3674e-08
3.39318e-08
3.27602e-08
3.23648e-08
3.38987e-08
3.6415e-08
3.85757e-08
3.44587e-08
2.5154e-08
1.63162e-08
5.89905e-09
0
0
0
0
0
0
0
0
0
0
0
0
0
0
0
0
0
0
0
0
0
0
0
0
0
0
0
0
0
0
0
0
0
0
0
0
0
0
0
0
0
0
0
0
0
0
0
0
0
0
0
0
0
0
0
0
0
0
0
0
0
0
0
0
0
0
0
0
0
0
0
0
0
0
0
0
0
0
0
0
0
0
0
0
0
0
0
0
9.79732e-09
1.99237e-08
1.19672e-08
4.35086e-10
0
0
0
0
0
0
0
0
0
0
0
0
0
0
0
0
0
0
0
0
0
0
0
0
0
0
0
0
0
0
0
0
0
0
0
0
0
0
8.90172e-09
6.83072e-08
9.41919e-08
1.09132e-07
1.2156e-07
1.31319e-07
1.32032e-07
1.16114e-07
1.41819e-07
2.59519e-07
2.54678e-07
1.92426e-07
1.5832e-07
1.39558e-07
1.26977e-07
1.21154e-07
1.21128e-07
1.22597e-07
1.20065e-07
1.13749e-07
1.04924e-07
1.00426e-07
9.88241e-08
9.6981e-08
9.33736e-08
8.78425e-08
8.40405e-08
8.31856e-08
8.37722e-08
8.32942e-08
7.77265e-08
6.37861e-08
4.55346e-08
3.14288e-08
2.68091e-08
2.87872e-08
3.23941e-08
3.40467e-08
3.44926e-08
3.50361e-08
3.60911e-08
3.58332e-08
3.55757e-08
3.69461e-08
3.85596e-08
3.90755e-08
3.36833e-08
2.23507e-08
1.21795e-08
4.53823e-09
0
0
0
0
0
0
0