/*--------------------------------*- C++ -*----------------------------------*\
  =========                 |
  \\      /  F ield         | OpenFOAM: The Open Source CFD Toolbox
   \\    /   O peration     | Website:  https://openfoam.org
    \\  /    A nd           | Version:  7
     \\/     M anipulation  |
\*---------------------------------------------------------------------------*/
FoamFile
{
    version     2.0;
    format      ascii;
    class       volScalarField;
    location    "0.025";
    object      p;
}
// * * * * * * * * * * * * * * * * * * * * * * * * * * * * * * * * * * * * * //

dimensions      [0 2 -2 0 0 0 0];

internalField   nonuniform List<scalar> 
12225
(
-68.617
-69.869
-70.4126
-70.8026
-71.0015
-71.06
-71.0296
-70.9385
-70.8026
-70.6353
-70.4408
-70.2095
-69.9321
-69.6049
-69.2343
-68.8246
-68.3748
-67.8592
-68.7159
-69.9252
-70.4428
-70.8136
-71.0111
-71.0688
-71.0367
-70.9442
-70.8072
-70.6389
-70.4442
-70.2134
-69.9359
-69.6082
-69.2378
-68.8314
-68.3874
-67.9021
-69.1067
-70.091
-70.5244
-70.8448
-71.0297
-71.0839
-71.0498
-70.9555
-70.8164
-70.645
-70.445
-70.2095
-69.9306
-69.6071
-69.2441
-68.8488
-68.4219
-67.9688
-69.9889
-70.2459
-70.6059
-70.8788
-71.0497
-71.1015
-71.066
-70.9695
-70.8282
-70.6534
-70.4493
-70.2114
-69.9334
-69.6151
-69.2609
-68.8787
-68.4724
-68.0511
-70.0539
-70.425
-70.7272
-70.9396
-71.0843
-71.1288
-71.0911
-70.9925
-70.8483
-70.6701
-70.4624
-70.2224
-69.9456
-69.6327
-69.2883
-68.9205
-68.5352
-68.1449
-70.1584
-70.6025
-70.8603
-71.0173
-71.1301
-71.164
-71.1228
-71.0213
-70.8742
-70.6931
-70.4826
-70.2412
-69.9662
-69.659
-69.3249
-68.9717
-68.6075
-68.2441
-69.8728
-70.7811
-71.0145
-71.1092
-71.1856
-71.2073
-71.1635
-71.0602
-70.9106
-70.7265
-70.5132
-70.2706
-69.9978
-69.697
-69.3736
-69.0353
-68.6907
-68.3509
-70.3528
-71.0388
-71.192
-71.2246
-71.2596
-71.2641
-71.2139
-71.1076
-70.9559
-70.7695
-70.5544
-70.3118
-70.0419
-69.7475
-69.4342
-69.1097
-68.7827
-68.463
-70.7975
-71.4037
-71.3955
-71.3488
-71.3422
-71.3301
-71.277
-71.1707
-71.0166
-70.8268
-70.6085
-70.365
-70.0976
-69.8093
-69.5059
-69.1949
-68.884
-68.5818
-71.5226
-71.8007
-71.5999
-71.4796
-71.4411
-71.4131
-71.3504
-71.2397
-71.0852
-70.8951
-70.6769
-70.4345
-70.1701
-69.8875
-69.5927
-69.2931
-68.9958
-68.7079
-73.8684
-72.3458
-71.8214
-71.6146
-71.544
-71.5056
-71.4423
-71.3333
-71.1778
-70.9848
-70.7631
-70.5185
-70.2553
-69.9778
-69.6913
-69.4027
-69.1179
-68.8423
-74.3181
-72.6977
-71.9499
-71.7131
-71.6471
-71.6119
-71.547
-71.4339
-71.275
-71.08
-70.8573
-70.6131
-70.3516
-70.0775
-69.7966
-69.5149
-69.2385
-68.9717
-76.3725
-72.9767
-72.0202
-71.7989
-71.7492
-71.7209
-71.6606
-71.5498
-71.3912
-71.1942
-70.9683
-70.7214
-70.4593
-70.1877
-69.9117
-69.6369
-69.3677
-69.1084
-76.6524
-72.7102
-71.9193
-71.8355
-71.8679
-71.8798
-71.8302
-71.7168
-71.552
-71.3497
-71.12
-70.8698
-70.6054
-70.333
-70.0587
-69.7876
-69.5237
-69.2701
-72.3452
-71.3823
-71.5393
-71.8433
-72.0262
-72.0923
-72.059
-71.9457
-71.7748
-71.564
-71.3247
-71.0661
-70.7963
-70.5223
-70.2492
-69.981
-69.7206
-69.4703
-65.0946
-69.155
-71.0194
-71.8957
-72.2913
-72.4306
-72.4108
-72.283
-72.09
-71.8592
-71.6032
-71.3304
-71.0489
-70.766
-70.4869
-70.2152
-69.9531
-69.7024
-61.0957
-67.982
-71.0591
-72.3583
-72.8826
-73.0268
-72.9668
-72.7878
-72.5452
-72.271
-71.9796
-71.6795
-71.3783
-71.0816
-70.7927
-70.5135
-70.2453
-69.9897
-65.1805
-70.8461
-73.1451
-73.9554
-74.1542
-74.0658
-73.8309
-73.5229
-73.1853
-72.8392
-72.4909
-72.1439
-71.804
-71.4763
-71.1627
-70.8638
-70.5798
-70.3111
-84.4286
-80.2316
-78.2757
-77.1665
-76.3524
-75.6933
-75.1074
-74.5636
-74.0577
-73.5881
-73.1489
-72.7341
-72.3418
-71.9725
-71.6252
-71.2981
-70.9896
-70.6993
-88.8498
-84.516
-81.533
-79.5755
-78.1671
-77.095
-76.2216
-75.4727
-74.8159
-74.2332
-73.7082
-73.227
-72.7817
-72.3697
-71.9881
-71.6335
-71.3029
-70.9945
-92.8702
-86.5692
-83.0438
-80.7962
-79.1827
-77.9545
-76.9595
-76.1122
-75.3747
-74.7255
-74.1453
-73.6185
-73.1359
-72.6929
-72.2848
-71.9065
-71.5538
-71.2248
-89.6871
-86.1151
-83.3428
-81.2942
-79.7144
-78.444
-77.3852
-76.4831
-75.7021
-75.014
-74.4022
-73.8491
-73.3443
-72.8818
-72.4568
-72.0641
-71.7013
-71.3653
-89.0136
-85.389
-83.131
-81.3945
-79.9659
-78.7569
-77.7082
-76.7959
-75.9957
-75.2859
-74.6453
-74.066
-73.5402
-73.0608
-72.6249
-72.2142
-71.8364
-71.4864
-84.8977
-84.0696
-82.7563
-81.3577
-80.0545
-78.8804
-77.8359
-76.9248
-76.1249
-75.41
-74.7661
-74.1788
-73.6422
-73.1508
-72.696
-72.2873
-71.9076
-71.5555
-81.3231
-83.1406
-82.4641
-81.3124
-80.1263
-79.0024
-77.9742
-77.0664
-76.2614
-75.5378
-74.8784
-74.2791
-73.7329
-73.2342
-72.7769
-72.3574
-71.9694
-71.6102
-82.3064
-83.0173
-82.3778
-81.2862
-80.114
-79.0115
-78.01
-77.1192
-76.3195
-75.5935
-74.9322
-74.3301
-73.7805
-73.2773
-72.8154
-72.391
-71.9997
-71.6385
-84.3059
-83.2623
-82.3978
-81.304
-80.141
-79.0436
-78.0608
-77.1755
-76.3746
-75.6445
-74.979
-74.3733
-73.8205
-73.3137
-72.8476
-72.4184
-72.0233
-71.6591
-85.2566
-83.3442
-82.4106
-81.2903
-80.1265
-79.0404
-78.0702
-77.1935
-76.3949
-75.6643
-74.9975
-74.3903
-73.8357
-73.3265
-72.8574
-72.4253
-72.0289
-71.6656
-85.273
-83.4926
-82.4616
-81.2815
-80.1219
-79.0504
-78.0865
-77.2109
-76.4113
-75.6803
-75.014
-74.4075
-73.8529
-73.3411
-72.8666
-72.4286
-72.0266
-71.6611
-83.2794
-83.4533
-82.4863
-81.2611
-80.1093
-79.0492
-78.0882
-77.2135
-76.4142
-75.6823
-75.0139
-74.4051
-73.8493
-73.3381
-72.8652
-72.428
-72.0271
-71.6618
-63.448
-63.4499
-63.457
-63.4674
-63.4809
-63.4971
-63.5153
-63.5353
-63.5569
-63.5797
-63.6039
-63.6287
-63.6538
-63.6792
-63.7048
-63.7311
-63.7585
-63.7881
-63.8217
-63.8615
-63.91
-63.9699
-64.0441
-64.1354
-64.2458
-64.377
-64.5297
-64.7037
-64.8979
-65.11
-65.3366
-65.5732
-65.8144
-66.0535
-66.2831
-66.4947
-66.6792
-66.8271
-66.9287
-66.9749
-66.9577
-66.8703
-66.7074
-66.4658
-66.1416
-65.7356
-65.2525
-64.6981
-64.0803
-63.4079
-62.6909
-61.9395
-61.1644
-60.3759
-59.584
-58.7982
-58.0265
-57.2761
-56.5527
-55.8604
-55.2024
-54.5805
-53.9956
-53.4475
-52.9356
-52.4583
-52.0137
-51.5996
-51.2134
-50.853
-50.5167
-50.2005
-49.9023
-49.62
-49.3515
-49.0948
-48.8483
-48.6104
-48.3797
-48.1549
-47.935
-47.7189
-47.5059
-47.2952
-47.086
-46.878
-46.6705
-46.4631
-46.2555
-46.0473
-45.8383
-45.6281
-45.4166
-45.2037
-44.989
-44.7726
-44.5542
-44.3338
-44.1114
-43.8867
-43.6599
-43.4308
-43.1993
-42.9655
-42.7294
-42.4909
-42.2499
-42.0065
-41.7607
-41.5125
-41.2617
-41.0086
-40.7529
-40.4949
-40.2344
-39.9714
-39.7059
-39.438
-39.1676
-38.8948
-38.6194
-38.3416
-38.0614
-37.7786
-37.4934
-37.2057
-36.9156
-36.623
-36.3278
-36.0302
-35.7301
-35.4275
-35.1223
-34.8146
-34.5044
-34.1915
-33.8761
-33.5582
-33.2376
-32.9144
-32.5886
-32.2602
-31.9291
-31.5954
-31.259
-30.9199
-30.5781
-30.2335
-29.8863
-29.5362
-29.1834
-28.8279
-28.4695
-28.1082
-27.7441
-27.3772
-27.0073
-26.6345
-26.2587
-25.8799
-25.4981
-25.1133
-24.7253
-24.3342
-23.9398
-23.5422
-23.1411
-22.7366
-22.3285
-21.9166
-21.5008
-21.0805
-20.6559
-20.2258
-19.7903
-19.3471
-18.8966
-18.4339
-17.9591
-17.4685
-63.4411
-63.4439
-63.4505
-63.4602
-63.473
-63.4876
-63.5045
-63.5231
-63.5435
-63.5652
-63.5878
-63.6116
-63.6364
-63.6622
-63.6893
-63.7183
-63.75
-63.7857
-63.8271
-63.8761
-63.935
-64.0063
-64.0923
-64.1955
-64.3182
-64.4616
-64.6265
-64.8125
-65.0185
-65.242
-65.4796
-65.7269
-65.9783
-66.2276
-66.4671
-66.6881
-66.8812
-67.0364
-67.1436
-67.193
-67.1759
-67.0848
-66.914
-66.6601
-66.3236
-65.9071
-65.4134
-64.8486
-64.2201
-63.5371
-62.8094
-62.0477
-61.2625
-60.4644
-59.6635
-58.869
-58.0893
-57.3315
-56.6013
-55.9029
-55.2395
-54.6129
-54.0238
-53.4722
-52.9573
-52.4775
-52.0308
-51.615
-51.2275
-50.8661
-50.5285
-50.2115
-49.9126
-49.6296
-49.3605
-49.1032
-48.8562
-48.6178
-48.3866
-48.1614
-47.9411
-47.7246
-47.5112
-47.3001
-47.0907
-46.8824
-46.6746
-46.467
-46.2591
-46.0507
-45.8414
-45.6311
-45.4194
-45.2063
-44.9915
-44.7749
-44.5564
-44.3359
-44.1133
-43.8885
-43.6616
-43.4324
-43.2008
-42.967
-42.7307
-42.4921
-42.2511
-42.0076
-41.7617
-41.5134
-41.2626
-41.0094
-40.7538
-40.4957
-40.2351
-39.972
-39.7065
-39.4386
-39.1682
-38.8953
-38.6199
-38.342
-38.0617
-37.7789
-37.4937
-37.206
-36.9158
-36.6232
-36.3281
-36.0304
-35.7303
-35.4277
-35.1225
-34.8148
-34.5045
-34.1917
-33.8763
-33.5583
-33.2377
-32.9145
-32.5887
-32.2603
-31.9292
-31.5955
-31.2591
-30.92
-30.5781
-30.2336
-29.8863
-29.5363
-29.1835
-28.8279
-28.4695
-28.1083
-27.7442
-27.3772
-27.0074
-26.6346
-26.2588
-25.88
-25.4983
-25.1134
-24.7254
-24.3343
-23.94
-23.5424
-23.1414
-22.7369
-22.3289
-21.917
-21.5013
-21.0813
-20.6568
-20.2272
-19.7921
-19.3502
-18.9004
-18.4421
-17.9717
-17.503
-63.4194
-63.4216
-63.4268
-63.4345
-63.4442
-63.4565
-63.471
-63.4876
-63.5061
-63.5266
-63.549
-63.5737
-63.6007
-63.6306
-63.6637
-63.701
-63.7432
-63.7914
-63.8472
-63.9125
-63.9895
-64.0799
-64.1857
-64.3086
-64.45
-64.6111
-64.7923
-64.9935
-65.2139
-65.4518
-65.7042
-65.9672
-66.2354
-66.5021
-66.7594
-66.9982
-67.2086
-67.3799
-67.5012
-67.5621
-67.553
-67.466
-67.2954
-67.0375
-66.6915
-66.2595
-65.7469
-65.1612
-64.5111
-63.8063
-63.0573
-62.2747
-61.4694
-60.652
-59.8325
-59.0204
-58.2241
-57.4509
-56.7066
-55.9956
-55.3208
-54.6841
-54.0863
-53.5273
-53.006
-52.5208
-52.0697
-51.6501
-51.2595
-50.8962
-50.5563
-50.2374
-49.9369
-49.6525
-49.382
-49.1236
-48.8754
-48.6359
-48.4037
-48.1775
-47.9562
-47.7388
-47.5245
-47.3126
-47.1024
-46.8933
-46.6848
-46.4765
-46.268
-46.059
-45.8491
-45.6383
-45.4261
-45.2125
-44.9972
-44.7802
-44.5613
-44.3405
-44.1175
-43.8925
-43.6652
-43.4357
-43.2039
-42.9698
-42.7333
-42.4945
-42.2533
-42.0096
-41.7636
-41.5151
-41.2642
-41.0109
-40.7551
-40.4968
-40.2361
-39.973
-39.7074
-39.4394
-39.1689
-38.8959
-38.6205
-38.3426
-38.0622
-37.7794
-37.4942
-37.2064
-36.9162
-36.6235
-36.3284
-36.0307
-35.7306
-35.4279
-35.1227
-34.8149
-34.5047
-34.1918
-33.8764
-33.5584
-33.2379
-32.9147
-32.5889
-32.2604
-31.9293
-31.5956
-31.2591
-30.92
-30.5782
-30.2337
-29.8864
-29.5364
-29.1836
-28.828
-28.4696
-28.1084
-27.7443
-27.3773
-27.0074
-26.6346
-26.2589
-25.8801
-25.4984
-25.1136
-24.7256
-24.3345
-23.9402
-23.5427
-23.1418
-22.7374
-22.3295
-21.9178
-21.5023
-21.0827
-20.6586
-20.2298
-19.7955
-19.3557
-18.9085
-18.4563
-17.9951
-17.5428
-63.4108
-63.4123
-63.4168
-63.4237
-63.4328
-63.444
-63.4573
-63.4727
-63.4903
-63.5103
-63.533
-63.5587
-63.588
-63.6214
-63.6599
-63.7042
-63.7555
-63.8149
-63.8838
-63.9638
-64.0567
-64.1644
-64.2885
-64.4307
-64.5924
-64.7746
-64.9782
-65.203
-65.4485
-65.713
-65.9939
-66.2872
-66.5876
-66.888
-67.18
-67.4537
-67.6978
-67.9005
-68.0492
-68.1319
-68.1377
-68.0575
-67.8847
-67.6159
-67.2518
-66.7961
-66.2552
-65.6382
-64.9551
-64.2171
-63.4355
-62.6214
-61.7858
-60.9392
-60.0917
-59.2529
-58.4314
-57.6345
-56.8684
-56.1375
-55.445
-54.7928
-54.1815
-53.6109
-53.0799
-52.5866
-52.1287
-51.7034
-51.3081
-50.9419
-50.5985
-50.2767
-49.9736
-49.687
-49.4145
-49.1542
-48.9043
-48.6631
-48.4292
-48.2015
-47.9787
-47.7599
-47.5442
-47.331
-47.1195
-46.9092
-46.6996
-46.4903
-46.2808
-46.0709
-45.8602
-45.6485
-45.4356
-45.2213
-45.0054
-44.7878
-44.5683
-44.347
-44.1235
-43.898
-43.6703
-43.4404
-43.2083
-42.9738
-42.737
-42.4979
-42.2564
-42.0125
-41.7662
-41.5175
-41.2664
-41.0129
-40.757
-40.4986
-40.2377
-39.9745
-39.7088
-39.4406
-39.17
-38.897
-38.6215
-38.3435
-38.0631
-37.7802
-37.4948
-37.2071
-36.9168
-36.6241
-36.3289
-36.0312
-35.731
-35.4283
-35.123
-34.8153
-34.505
-34.1921
-33.8767
-33.5587
-33.2381
-32.9149
-32.5891
-32.2606
-31.9295
-31.5957
-31.2593
-30.9202
-30.5783
-30.2338
-29.8865
-29.5365
-29.1837
-28.8281
-28.4697
-28.1085
-27.7444
-27.3774
-27.0076
-26.6348
-26.259
-25.8803
-25.4986
-25.1138
-24.7259
-24.3348
-23.9406
-23.5431
-23.1423
-22.738
-22.3302
-21.9188
-21.5036
-21.0843
-20.6607
-20.2328
-19.7996
-19.3617
-18.9175
-18.4702
-18.0172
-17.5751
-63.43
-63.4311
-63.4348
-63.4406
-63.4484
-63.4584
-63.4705
-63.4848
-63.5017
-63.5215
-63.5446
-63.5714
-63.6028
-63.6394
-63.6821
-63.732
-63.7903
-63.8582
-63.9374
-64.0295
-64.1364
-64.26
-64.4023
-64.5649
-64.7497
-64.9579
-65.1903
-65.4473
-65.7284
-66.0321
-66.3557
-66.6952
-67.0447
-67.3967
-67.7421
-68.0697
-68.3667
-68.6189
-68.8116
-68.9301
-68.9607
-68.892
-68.7163
-68.4314
-68.0408
-67.5496
-66.9664
-66.3025
-65.571
-64.7851
-63.9576
-63.1001
-62.2232
-61.3371
-60.4515
-59.5758
-58.7188
-57.8884
-57.0912
-56.3321
-55.6142
-54.9397
-54.3093
-53.7226
-53.1782
-52.6739
-52.207
-51.7746
-51.3739
-51.0022
-50.6548
-50.3294
-50.0231
-49.7336
-49.4584
-49.1956
-48.9433
-48.6999
-48.4639
-48.234
-48.0092
-47.7885
-47.571
-47.356
-47.1429
-46.931
-46.7199
-46.5091
-46.2983
-46.0872
-45.8753
-45.6625
-45.4486
-45.2333
-45.0166
-44.7981
-44.5779
-44.3558
-44.1317
-43.9055
-43.6772
-43.4468
-43.2141
-42.9792
-42.742
-42.5024
-42.2606
-42.0164
-41.7698
-41.5208
-41.2694
-41.0156
-40.7595
-40.5009
-40.2398
-39.9764
-39.7105
-39.4422
-39.1715
-38.8983
-38.6227
-38.3446
-38.0641
-37.7811
-37.4957
-37.2079
-36.9175
-36.6248
-36.3295
-36.0317
-35.7315
-35.4288
-35.1235
-34.8157
-34.5054
-34.1925
-33.877
-33.559
-33.2384
-32.9151
-32.5893
-32.2608
-31.9297
-31.5959
-31.2595
-30.9203
-30.5785
-30.234
-29.8867
-29.5366
-29.1838
-28.8282
-28.4698
-28.1086
-27.7445
-27.3776
-27.0077
-26.6349
-26.2592
-25.8805
-25.4988
-25.114
-24.7261
-24.3351
-23.941
-23.5436
-23.1428
-22.7387
-22.3311
-21.9199
-21.505
-21.0862
-20.6632
-20.2361
-19.8042
-19.3682
-18.9271
-18.484
-18.0381
-17.6021
-63.477
-63.4777
-63.481
-63.4859
-63.4927
-63.5014
-63.5122
-63.5254
-63.5413
-63.5604
-63.5832
-63.6104
-63.6429
-63.6814
-63.7271
-63.781
-63.8446
-63.9196
-64.0077
-64.111
-64.2316
-64.3716
-64.5333
-64.7186
-64.9297
-65.1683
-65.4359
-65.7334
-66.0607
-66.4165
-66.7981
-67.201
-67.6188
-68.0435
-68.4645
-68.8693
-69.2425
-69.5667
-69.8229
-69.9924
-70.0579
-70.0053
-69.8267
-69.5204
-69.091
-68.5458
-67.8986
-67.1664
-66.367
-65.517
-64.6307
-63.7196
-62.7934
-61.8601
-60.9275
-60.0044
-59.1001
-58.224
-57.3838
-56.5852
-55.8321
-55.1269
-54.4702
-53.8615
-53.299
-52.7801
-52.3018
-51.8606
-51.4539
-51.0759
-50.7238
-50.3942
-50.0843
-49.7913
-49.513
-49.2472
-48.992
-48.7457
-48.507
-48.2746
-48.0472
-47.8241
-47.6043
-47.3871
-47.1719
-46.958
-46.745
-46.5325
-46.32
-46.1073
-45.894
-45.6798
-45.4646
-45.2482
-45.0303
-44.8108
-44.5896
-44.3666
-44.1416
-43.9147
-43.6857
-43.4546
-43.2213
-42.9858
-42.748
-42.508
-42.2657
-42.021
-41.7741
-41.5247
-41.273
-41.019
-40.7625
-40.5036
-40.2424
-39.9787
-39.7127
-39.4442
-39.1733
-38.8999
-38.6242
-38.346
-38.0654
-37.7823
-37.4968
-37.2089
-36.9185
-36.6256
-36.3303
-36.0325
-35.7322
-35.4294
-35.1241
-34.8162
-34.5058
-34.1929
-33.8774
-33.5594
-33.2387
-32.9155
-32.5896
-32.2611
-31.93
-31.5962
-31.2597
-30.9205
-30.5787
-30.2341
-29.8869
-29.5368
-29.184
-28.8284
-28.47
-28.1088
-27.7447
-27.3777
-27.0079
-26.6351
-26.2594
-25.8807
-25.499
-25.1143
-24.7265
-24.3355
-23.9414
-23.5441
-23.1435
-22.7395
-22.3321
-21.9212
-21.5066
-21.0883
-20.666
-20.2398
-19.8092
-19.375
-18.9368
-18.4972
-18.0568
-17.6247
-63.5459
-63.5465
-63.5493
-63.5534
-63.5592
-63.5667
-63.5763
-63.5882
-63.6029
-63.621
-63.6432
-63.6702
-63.7029
-63.7424
-63.7898
-63.8467
-63.9147
-63.9959
-64.0925
-64.2067
-64.3411
-64.498
-64.6799
-64.8897
-65.1303
-65.4048
-65.7158
-66.0649
-66.4523
-66.8761
-67.333
-67.8177
-68.3235
-68.8414
-69.3596
-69.8636
-70.3351
-70.7518
-71.0888
-71.321
-71.4283
-71.3966
-71.2156
-70.8773
-70.3839
-69.7544
-69.0128
-68.1857
-67.2982
-66.3707
-65.4185
-64.4524
-63.4791
-62.5024
-61.5258
-60.5544
-59.5962
-58.6619
-57.7634
-56.91
-56.1079
-55.3604
-54.6682
-54.0301
-53.4437
-52.9057
-52.4127
-51.9612
-51.545
-51.1602
-50.8029
-50.4691
-50.1556
-49.8593
-49.5776
-49.3085
-49.05
-48.8005
-48.5586
-48.3231
-48.0928
-47.8667
-47.6442
-47.4243
-47.2065
-46.9903
-46.775
-46.5604
-46.3459
-46.1313
-45.9163
-45.7005
-45.4838
-45.2659
-45.0466
-44.8259
-44.6035
-44.3794
-44.1535
-43.9256
-43.6958
-43.4638
-43.2298
-42.9936
-42.7552
-42.5146
-42.2717
-42.0266
-41.7792
-41.5294
-41.2773
-41.0229
-40.7661
-40.5069
-40.2454
-39.9815
-39.7152
-39.4465
-39.1754
-38.9019
-38.626
-38.3476
-38.0669
-37.7837
-37.4981
-37.21
-36.9195
-36.6266
-36.3312
-36.0333
-35.7329
-35.4301
-35.1247
-34.8168
-34.5064
-34.1935
-33.8779
-33.5598
-33.2391
-32.9159
-32.59
-32.2614
-31.9303
-31.5964
-31.26
-30.9208
-30.5789
-30.2344
-29.8871
-29.537
-29.1842
-28.8286
-28.4702
-28.109
-27.7449
-27.378
-27.0081
-26.6354
-26.2597
-25.881
-25.4993
-25.1146
-24.7269
-24.336
-23.9419
-23.5447
-23.1442
-22.7404
-22.3333
-21.9226
-21.5084
-21.0905
-20.6689
-20.2436
-19.8144
-19.3819
-18.9463
-18.5097
-18.0735
-17.6438
-63.6299
-63.6305
-63.633
-63.6365
-63.6414
-63.6479
-63.6563
-63.6671
-63.6807
-63.6978
-63.7191
-63.7456
-63.7781
-63.818
-63.8666
-63.9259
-63.9978
-64.0848
-64.1894
-64.3141
-64.4618
-64.6352
-64.838
-65.0746
-65.3498
-65.6684
-66.0341
-66.4481
-66.9093
-67.4145
-67.9589
-68.5369
-69.1412
-69.7625
-70.3882
-71.003
-71.5869
-72.1129
-72.5496
-72.8641
-73.0254
-73.0105
-72.8075
-72.396
-71.7993
-71.0448
-70.1675
-69.2054
-68.1954
-67.1689
-66.1476
-65.1428
-64.1559
-63.1759
-62.1915
-61.1981
-60.1997
-59.2087
-58.2424
-57.3184
-56.4504
-55.6458
-54.9062
-54.23
-53.6135
-53.0522
-52.5425
-52.0757
-51.6479
-51.2543
-50.8903
-50.5517
-50.2344
-49.9349
-49.6503
-49.3781
-49.1164
-48.8635
-48.6181
-48.3791
-48.1454
-47.916
-47.6902
-47.4673
-47.2466
-47.0275
-46.8097
-46.5926
-46.3758
-46.159
-45.9419
-45.7243
-45.5058
-45.2862
-45.0654
-44.8433
-44.6196
-44.3942
-44.1671
-43.9382
-43.7073
-43.4745
-43.2396
-43.0026
-42.7635
-42.5222
-42.2787
-42.033
-41.785
-41.5348
-41.2822
-41.0274
-40.7702
-40.5107
-40.2489
-39.9847
-39.7181
-39.4492
-39.1778
-38.9041
-38.628
-38.3495
-38.0686
-37.7853
-37.4995
-37.2114
-36.9208
-36.6278
-36.3323
-36.0343
-35.7339
-35.4309
-35.1255
-34.8176
-34.5071
-34.1941
-33.8785
-33.5604
-33.2396
-32.9163
-32.5904
-32.2618
-31.9306
-31.5968
-31.2603
-30.9211
-30.5792
-30.2346
-29.8873
-29.5373
-29.1844
-28.8288
-28.4704
-28.1092
-27.7451
-27.3782
-27.0084
-26.6356
-26.2599
-25.8813
-25.4997
-25.115
-24.7273
-24.3365
-23.9425
-23.5454
-23.145
-22.7414
-22.3345
-21.9241
-21.5103
-21.0929
-20.672
-20.2476
-19.8197
-19.3888
-18.9555
-18.5214
-18.0882
-17.6602
-63.7226
-63.7235
-63.7262
-63.7294
-63.7338
-63.7396
-63.7472
-63.757
-63.7696
-63.7857
-63.8062
-63.832
-63.8641
-63.9041
-63.9537
-64.0149
-64.0902
-64.1824
-64.2942
-64.4284
-64.5885
-64.7784
-65.0036
-65.2709
-65.5875
-65.9591
-66.3886
-66.8748
-67.4133
-67.9978
-68.6219
-69.2805
-69.9705
-70.6895
-71.4313
-72.1815
-72.9161
-73.6015
-74.1934
-74.64
-74.8901
-74.9018
-74.6512
-74.1634
-73.444
-72.5236
-71.4516
-70.2886
-69.0926
-67.9099
-66.7701
-65.6873
-64.6657
-63.6999
-62.7634
-61.8188
-60.8412
-59.8311
-58.8104
-57.8109
-56.8625
-55.9845
-55.1838
-54.4596
-53.8067
-53.2209
-52.6884
-52.2048
-51.7638
-51.3596
-50.9872
-50.642
-50.3196
-50.0164
-49.7287
-49.4539
-49.1894
-48.9335
-48.6847
-48.4421
-48.2047
-47.9716
-47.7422
-47.5158
-47.2918
-47.0696
-46.8488
-46.6289
-46.4095
-46.1903
-45.9709
-45.7511
-45.5306
-45.3092
-45.0867
-44.8629
-44.6377
-44.4109
-44.1825
-43.9523
-43.7203
-43.4864
-43.2506
-43.0127
-42.7727
-42.5307
-42.2865
-42.0401
-41.7916
-41.5408
-41.2877
-41.0324
-40.7748
-40.515
-40.2528
-39.9882
-39.7214
-39.4521
-39.1806
-38.9066
-38.6303
-38.3516
-38.0705
-37.7871
-37.5012
-37.2129
-36.9222
-36.629
-36.3335
-36.0354
-35.7349
-35.4319
-35.1264
-34.8184
-34.5078
-34.1948
-33.8791
-33.5609
-33.2402
-32.9168
-32.5908
-32.2622
-31.931
-31.5971
-31.2606
-30.9214
-30.5795
-30.2349
-29.8876
-29.5375
-29.1847
-28.8291
-28.4707
-28.1094
-27.7454
-27.3784
-27.0086
-26.6359
-26.2602
-25.8816
-25.5
-25.1154
-24.7277
-24.337
-23.9431
-23.5461
-23.1459
-22.7425
-22.3357
-21.9257
-21.5123
-21.0954
-20.6752
-20.2517
-19.8249
-19.3956
-18.9641
-18.5321
-18.1012
-17.6744
-63.8195
-63.821
-63.8245
-63.8279
-63.8325
-63.838
-63.8451
-63.8543
-63.866
-63.8812
-63.9007
-63.9255
-63.957
-63.9967
-64.0466
-64.1092
-64.1871
-64.2834
-64.401
-64.5435
-64.715
-64.9214
-65.1705
-65.4716
-65.833
-66.2595
-66.7509
-67.3011
-67.901
-68.5434
-69.2263
-69.9544
-70.7369
-71.5826
-72.4955
-73.4676
-74.4729
-75.4635
-76.3683
-77.0961
-77.5561
-77.6843
-77.4483
-76.8589
-75.9379
-74.7402
-73.3455
-71.8459
-70.3281
-68.8593
-67.4809
-66.2138
-65.0715
-64.0549
-63.14
-62.2732
-61.3872
-60.4368
-59.417
-58.365
-57.3346
-56.3711
-55.4965
-54.715
-54.023
-53.404
-52.8484
-52.347
-51.8918
-51.4762
-51.0944
-50.7412
-50.4123
-50.1037
-49.812
-49.534
-49.2668
-49.0083
-48.7568
-48.5109
-48.2699
-48.033
-47.7998
-47.5696
-47.3419
-47.1162
-46.892
-46.669
-46.4468
-46.2248
-46.0029
-45.7807
-45.558
-45.3346
-45.1101
-44.8845
-44.6577
-44.4293
-44.1995
-43.968
-43.7347
-43.4996
-43.2627
-43.0238
-42.783
-42.5401
-42.2951
-42.048
-41.7988
-41.5474
-41.2938
-41.038
-40.7799
-40.5196
-40.257
-39.9922
-39.725
-39.4554
-39.1836
-38.9094
-38.6329
-38.354
-38.0727
-37.789
-37.503
-37.2146
-36.9237
-36.6305
-36.3348
-36.0366
-35.736
-35.4329
-35.1273
-34.8193
-34.5087
-34.1955
-33.8798
-33.5616
-33.2408
-32.9174
-32.5913
-32.2627
-31.9314
-31.5975
-31.261
-30.9218
-30.5798
-30.2352
-29.8879
-29.5378
-29.185
-28.8294
-28.4709
-28.1097
-27.7456
-27.3787
-27.0089
-26.6362
-26.2606
-25.882
-25.5004
-25.1158
-24.7282
-24.3375
-23.9438
-23.5469
-23.1468
-22.7436
-22.3371
-21.9273
-21.5143
-21.098
-20.6784
-20.2557
-19.8301
-19.402
-18.9722
-18.5419
-18.1126
-17.6866
-63.9179
-63.9202
-63.9252
-63.9297
-63.935
-63.9408
-63.9478
-63.9565
-63.9675
-63.9816
-63.9999
-64.0234
-64.0536
-64.0923
-64.1417
-64.2045
-64.2836
-64.3822
-64.5039
-64.6526
-64.834
-65.0555
-65.3272
-65.6601
-66.0623
-66.5364
-67.0778
-67.6754
-68.319
-69.0063
-69.7458
-70.5597
-71.477
-72.5216
-73.7062
-75.023
-76.4316
-77.8547
-79.1822
-80.28
-81.0164
-81.2984
-81.0795
-80.3505
-79.1586
-77.5951
-75.7809
-73.8494
-71.9238
-70.0962
-68.4167
-66.9017
-65.5509
-64.3762
-63.3912
-62.5585
-61.7735
-60.9318
-59.982
-58.9289
-57.8354
-56.7867
-55.8334
-54.9911
-54.2512
-53.5991
-53.0197
-52.5003
-52.0308
-51.6032
-51.2113
-50.8496
-50.5133
-50.1982
-49.9009
-49.6184
-49.3478
-49.0865
-48.8324
-48.5839
-48.3397
-48.0994
-47.8623
-47.6281
-47.3964
-47.167
-46.9392
-46.7128
-46.4874
-46.2625
-46.0378
-45.8131
-45.5879
-45.3622
-45.1357
-44.9081
-44.6794
-44.4494
-44.218
-43.985
-43.7504
-43.514
-43.2759
-43.036
-42.7941
-42.5503
-42.3045
-42.0566
-41.8067
-41.5546
-41.3004
-41.0441
-40.7855
-40.5247
-40.2617
-39.9964
-39.7289
-39.459
-39.1869
-38.9124
-38.6356
-38.3565
-38.075
-37.7912
-37.505
-37.2164
-36.9254
-36.632
-36.3362
-36.038
-35.7372
-35.4341
-35.1284
-34.8202
-34.5096
-34.1964
-33.8806
-33.5623
-33.2414
-32.918
-32.5919
-32.2632
-31.9319
-31.598
-31.2614
-30.9222
-30.5802
-30.2356
-29.8882
-29.5381
-29.1853
-28.8297
-28.4712
-28.11
-27.746
-27.379
-27.0092
-26.6365
-26.2609
-25.8823
-25.5008
-25.1163
-24.7287
-24.3381
-23.9445
-23.5477
-23.1478
-22.7447
-22.3385
-21.929
-21.5164
-21.1005
-20.6816
-20.2597
-19.8351
-19.4082
-18.9798
-18.5508
-18.1227
-17.6972
-64.0177
-64.021
-64.0281
-64.0345
-64.041
-64.0474
-64.0546
-64.0629
-64.073
-64.0858
-64.1024
-64.124
-64.1521
-64.1888
-64.2363
-64.2976
-64.3758
-64.4745
-64.5974
-64.7495
-64.9374
-65.1701
-65.459
-65.8164
-66.2493
-66.7587
-67.3361
-67.9676
-68.6464
-69.3763
-70.181
-71.1032
-72.1923
-73.484
-74.9944
-76.7063
-78.5551
-80.4293
-82.1807
-83.6383
-84.6296
-85.0369
-84.8089
-83.9435
-82.4913
-80.5644
-78.3178
-75.9322
-73.5789
-71.385
-69.4119
-67.6724
-66.1359
-64.7838
-63.6483
-62.7641
-62.0267
-61.2966
-60.4494
-59.4463
-58.3199
-57.2036
-56.1793
-55.2742
-54.4873
-53.8016
-53.1988
-52.6623
-52.1792
-51.74
-51.3376
-50.9666
-50.6222
-50.3
-49.9963
-49.7081
-49.4326
-49.1676
-48.9105
-48.6593
-48.4126
-48.1692
-47.9286
-47.6906
-47.455
-47.2216
-46.99
-46.76
-46.5311
-46.303
-46.0754
-45.8478
-45.6201
-45.392
-45.1632
-44.9335
-44.7029
-44.471
-44.2379
-44.0033
-43.7672
-43.5295
-43.2901
-43.049
-42.8061
-42.5613
-42.3145
-42.0658
-41.8151
-41.5624
-41.3075
-41.0506
-40.7915
-40.5302
-40.2667
-40.001
-39.7331
-39.4629
-39.1904
-38.9157
-38.6386
-38.3593
-38.0776
-37.7935
-37.5072
-37.2184
-36.9273
-36.6337
-36.3378
-36.0394
-35.7386
-35.4353
-35.1295
-34.8213
-34.5105
-34.1973
-33.8814
-33.5631
-33.2421
-32.9186
-32.5925
-32.2638
-31.9324
-31.5985
-31.2619
-30.9226
-30.5806
-30.236
-29.8886
-29.5385
-29.1856
-28.83
-28.4716
-28.1103
-27.7463
-27.3794
-27.0096
-26.6369
-26.2613
-25.8827
-25.5012
-25.1168
-24.7293
-24.3387
-23.9452
-23.5485
-23.1487
-22.7459
-22.3399
-21.9307
-21.5184
-21.1031
-20.6848
-20.2636
-19.8399
-19.414
-18.9867
-18.5589
-18.1316
-17.7064
-64.1213
-64.1253
-64.1352
-64.1439
-64.1519
-64.1592
-64.1664
-64.174
-64.1829
-64.1939
-64.2081
-64.2268
-64.2517
-64.2848
-64.3287
-64.3863
-64.461
-64.5568
-64.6777
-64.8292
-65.0185
-65.2559
-65.5533
-65.9239
-66.3741
-66.9045
-67.5046
-68.1602
-68.8678
-69.6378
-70.507
-71.5306
-72.7747
-74.284
-76.0757
-78.1245
-80.3445
-82.5956
-84.7034
-86.4765
-87.7154
-88.2654
-88.0606
-87.0769
-85.3808
-83.118
-80.4798
-77.6851
-74.9495
-72.4343
-70.2168
-68.3253
-66.6874
-65.2199
-63.9581
-62.9668
-62.2194
-61.5581
-60.8062
-59.8714
-58.7554
-57.5972
-56.5137
-55.5541
-54.7254
-54.0092
-53.384
-52.8308
-52.3347
-51.8845
-51.4722
-51.0919
-50.7388
-50.4087
-50.0981
-49.8035
-49.5223
-49.2522
-48.9911
-48.7367
-48.4873
-48.2412
-47.9977
-47.7563
-47.5169
-47.2794
-47.0439
-46.81
-46.5776
-46.3461
-46.1153
-45.8848
-45.6544
-45.4237
-45.1925
-44.9606
-44.7278
-44.494
-44.259
-44.0228
-43.7851
-43.546
-43.3053
-43.0629
-42.8188
-42.573
-42.3253
-42.0757
-41.8241
-41.5706
-41.3151
-41.0575
-40.7978
-40.536
-40.2721
-40.0059
-39.7376
-39.467
-39.1942
-38.9191
-38.6418
-38.3622
-38.0803
-37.796
-37.5095
-37.2205
-36.9292
-36.6355
-36.3394
-36.041
-35.74
-35.4366
-35.1308
-34.8224
-34.5116
-34.1982
-33.8823
-33.5639
-33.2429
-32.9193
-32.5931
-32.2644
-31.933
-31.599
-31.2623
-30.923
-30.5811
-30.2364
-29.889
-29.5389
-29.186
-28.8304
-28.4719
-28.1107
-27.7466
-27.3797
-27.0099
-26.6373
-26.2617
-25.8832
-25.5017
-25.1173
-24.7298
-24.3394
-23.9459
-23.5493
-23.1497
-22.747
-22.3413
-21.9324
-21.5205
-21.1056
-20.6878
-20.2674
-19.8444
-19.4195
-18.9931
-18.5662
-18.1395
-17.7144
-64.2371
-64.2396
-64.2512
-64.2619
-64.2712
-64.2791
-64.2859
-64.2923
-64.2991
-64.3071
-64.3176
-64.3321
-64.3521
-64.3799
-64.4181
-64.4698
-64.5382
-64.6276
-64.7423
-64.8882
-65.073
-65.3073
-65.6034
-65.9739
-66.4262
-66.9611
-67.5693
-68.2378
-68.9635
-69.7604
-70.6712
-71.7563
-73.0878
-74.7191
-76.6667
-78.9005
-81.3206
-83.7695
-86.0509
-87.9614
-89.3022
-89.9121
-89.6961
-88.6273
-86.7965
-84.3731
-81.5629
-78.5912
-75.6908
-73.036
-70.7042
-68.7287
-67.0556
-65.575
-64.2557
-63.1819
-62.3977
-61.7645
-61.0759
-60.2023
-59.1109
-57.9334
-56.8117
-55.8145
-54.9557
-54.2162
-53.5727
-53.0048
-52.496
-52.0347
-51.6125
-51.2232
-50.8618
-50.5238
-50.2056
-49.9043
-49.6168
-49.341
-49.0748
-48.8162
-48.5633
-48.3144
-48.0682
-47.8238
-47.581
-47.3399
-47.1004
-46.8627
-46.6265
-46.3915
-46.1574
-45.9238
-45.6905
-45.4571
-45.2234
-44.9891
-44.7541
-44.5183
-44.2814
-44.0433
-43.804
-43.5633
-43.3212
-43.0775
-42.8323
-42.5853
-42.3366
-42.086
-41.8336
-41.5793
-41.3231
-41.0648
-40.8045
-40.5422
-40.2777
-40.0111
-39.7423
-39.4714
-39.1982
-38.9228
-38.6452
-38.3653
-38.0832
-37.7987
-37.5119
-37.2228
-36.9313
-36.6375
-36.3412
-36.0426
-35.7415
-35.438
-35.1321
-34.8236
-34.5127
-34.1992
-33.8833
-33.5647
-33.2437
-32.92
-32.5938
-32.265
-31.9336
-31.5996
-31.2629
-30.9235
-30.5815
-30.2368
-29.8894
-29.5393
-29.1864
-28.8307
-28.4723
-28.1111
-27.747
-27.3801
-27.0103
-26.6377
-26.2621
-25.8836
-25.5022
-25.1178
-24.7304
-24.34
-23.9466
-23.5502
-23.1507
-22.7482
-22.3427
-21.9341
-21.5225
-21.1081
-20.6908
-20.2709
-19.8487
-19.4246
-18.999
-18.5727
-18.1465
-17.7214
-64.3825
-64.3785
-64.3851
-64.3954
-64.405
-64.4126
-64.418
-64.4219
-64.4249
-64.4282
-64.4331
-64.4412
-64.4543
-64.4746
-64.5048
-64.5478
-64.6071
-64.6867
-64.7912
-64.9264
-65.1
-65.3223
-65.6053
-65.9615
-66.3999
-66.9227
-67.5235
-68.1908
-68.92
-69.7225
-70.6371
-71.7229
-73.0486
-74.6656
-76.5938
-78.8003
-81.184
-83.5873
-85.8161
-87.6658
-88.9556
-89.5475
-89.3419
-88.2905
-86.4911
-84.1175
-81.3755
-78.4844
-75.6657
-73.0899
-70.8234
-68.8783
-67.2249
-65.7751
-64.4726
-63.3803
-62.5739
-61.9517
-61.2926
-60.4477
-59.3702
-58.187
-57.0497
-56.0365
-55.164
-54.4122
-53.7572
-53.1785
-52.6596
-52.1882
-51.7561
-51.3578
-50.9884
-50.643
-50.3177
-50.0094
-49.7155
-49.4338
-49.162
-48.8984
-48.6412
-48.3887
-48.1393
-47.8921
-47.6464
-47.402
-47.1589
-46.9175
-46.6775
-46.4389
-46.2014
-45.9646
-45.7282
-45.492
-45.2557
-45.0189
-44.7817
-44.5436
-44.3047
-44.0648
-43.8238
-43.5815
-43.3379
-43.0929
-42.8463
-42.5982
-42.3484
-42.0969
-41.8436
-41.5884
-41.3314
-41.0725
-40.8115
-40.5486
-40.2836
-40.0165
-39.7473
-39.4759
-39.2024
-38.9267
-38.6488
-38.3686
-38.0862
-37.8015
-37.5145
-37.2252
-36.9335
-36.6395
-36.3431
-36.0443
-35.7431
-35.4395
-35.1334
-34.8249
-34.5139
-34.2003
-33.8842
-33.5656
-33.2445
-32.9208
-32.5945
-32.2657
-31.9342
-31.6001
-31.2634
-30.9241
-30.582
-30.2373
-29.8899
-29.5397
-29.1868
-28.8311
-28.4727
-28.1115
-27.7474
-27.3805
-27.0107
-26.6381
-26.2625
-25.8841
-25.5027
-25.1183
-24.731
-24.3407
-23.9474
-23.5511
-23.1517
-22.7494
-22.3441
-21.9357
-21.5245
-21.1104
-20.6937
-20.2743
-19.8528
-19.4293
-19.0043
-18.5786
-18.1527
-17.7275
-64.5644
-64.5507
-64.5478
-64.5551
-64.5646
-64.5709
-64.5733
-64.5722
-64.5687
-64.5643
-64.5607
-64.5596
-64.5629
-64.5729
-64.5923
-64.6238
-64.6709
-64.7373
-64.8274
-64.9466
-65.1022
-65.3035
-65.5619
-65.8896
-66.2972
-66.7897
-67.365
-68.0138
-68.7286
-69.5132
-70.3935
-71.4147
-72.6314
-74.09
-75.8109
-77.768
-79.874
-81.9926
-83.9549
-85.5858
-86.7234
-87.2433
-87.0682
-86.1444
-84.5433
-82.4285
-79.9911
-77.4263
-74.9188
-72.61
-70.5613
-68.776
-67.2243
-65.8434
-64.5937
-63.5365
-62.7462
-62.1326
-61.4749
-60.6217