/*--------------------------------*- C++ -*----------------------------------*\
  =========                 |
  \\      /  F ield         | OpenFOAM: The Open Source CFD Toolbox
   \\    /   O peration     | Website:  https://openfoam.org
    \\  /    A nd           | Version:  7
     \\/     M anipulation  |
\*---------------------------------------------------------------------------*/
FoamFile
{
    version     2.0;
    format      ascii;
    class       surfaceScalarField;
    location    "0.025";
    object      phi;
}
// * * * * * * * * * * * * * * * * * * * * * * * * * * * * * * * * * * * * * //

dimensions      [0 3 -1 0 0 0 0];

internalField   nonuniform List<scalar> 
24170
(
1.42613e-06
1.77813e-07
1.29598e-06
1.30155e-07
1.1462e-06
1.49774e-07
1.00982e-06
1.36382e-07
8.9175e-07
1.18072e-07
7.88983e-07
1.02767e-07
6.98055e-07
9.09278e-08
6.16836e-07
8.12194e-08
5.44111e-07
7.27248e-08
4.79816e-07
6.42951e-08
4.24669e-07
5.5147e-08
3.79587e-07
4.50819e-08
3.44351e-07
3.5236e-08
3.17433e-07
2.69173e-08
2.95681e-07
2.1752e-08
2.77423e-07
1.82583e-08
2.57558e-07
1.9865e-08
1.86566e-08
2.38901e-07
1.70128e-06
2.65761e-07
1.67622e-06
1.55213e-07
1.63422e-06
1.91781e-07
1.5841e-06
1.86502e-07
1.53575e-06
1.66418e-07
1.49025e-06
1.48272e-07
1.44628e-06
1.34893e-07
1.40222e-06
1.25282e-07
1.35688e-06
1.18061e-07
1.31095e-06
1.10224e-07
1.26702e-06
9.90811e-08
1.22723e-06
8.48675e-08
1.19213e-06
7.03349e-08
1.16072e-06
5.83281e-08
1.1313e-06
5.11722e-08
1.10209e-06
4.7472e-08
1.07275e-06
4.92037e-08
4.83568e-08
1.04305e-06
1.80183e-06
2.99943e-07
1.79236e-06
1.64678e-07
1.77541e-06
2.08734e-07
1.74856e-06
2.13351e-07
1.72318e-06
1.91801e-07
1.70588e-06
1.65567e-07
1.69634e-06
1.44436e-07
1.69041e-06
1.31212e-07
1.68371e-06
1.24758e-07
1.67406e-06
1.19872e-07
1.66189e-06
1.11258e-07
1.64858e-06
9.81731e-08
1.6349e-06
8.40208e-08
1.62118e-06
7.20439e-08
1.60714e-06
6.52133e-08
1.59258e-06
6.20294e-08
1.57825e-06
6.35322e-08
6.56144e-08
1.561e-06
1.93731e-06
2.83585e-07
1.91388e-06
1.88108e-07
1.90051e-06
2.22103e-07
1.88443e-06
2.29428e-07
1.87058e-06
2.05647e-07
1.86214e-06
1.74009e-07
1.85863e-06
1.47948e-07
1.85926e-06
1.30584e-07
1.86281e-06
1.21205e-07
1.86681e-06
1.15877e-07
1.86812e-06
1.09943e-07
1.86487e-06
1.01427e-07
1.85705e-06
9.18376e-08
1.84636e-06
8.27334e-08
1.83542e-06
7.61599e-08
1.8256e-06
7.18417e-08
1.81846e-06
7.06804e-08
7.17493e-08
1.81232e-06
2.06221e-06
3.09837e-07
2.03841e-06
2.11916e-07
2.03524e-06
2.25265e-07
2.02638e-06
2.38293e-07
2.01051e-06
2.21515e-07
1.99554e-06
1.88979e-07
1.98676e-06
1.56727e-07
1.98479e-06
1.32557e-07
1.98788e-06
1.18115e-07
1.99334e-06
1.10414e-07
1.99847e-06
1.04817e-07
2.00155e-06
9.83415e-08
2.0024e-06
9.0987e-08
2.00167e-06
8.34646e-08
2.00049e-06
7.73394e-08
1.99909e-06
7.32389e-08
1.99792e-06
7.18532e-08
7.29872e-08
1.99668e-06
2.19565e-06
3.34349e-07
2.17489e-06
2.32684e-07
2.18065e-06
2.19503e-07
2.17892e-06
2.40024e-07
2.16912e-06
2.3131e-07
2.16148e-06
1.96623e-07
2.1608e-06
1.57406e-07
2.16452e-06
1.28833e-07
2.16807e-06
1.14566e-07
2.16885e-06
1.09632e-07
2.16691e-06
1.06758e-07
2.1637e-06
1.01557e-07
2.16091e-06
9.37757e-08
2.15942e-06
8.49502e-08
2.15941e-06
7.73508e-08
2.16019e-06
7.24631e-08
2.16101e-06
7.10326e-08
7.3174e-08
2.16082e-06
2.41241e-06
4.03838e-07
2.38119e-06
2.639e-07
2.3534e-06
2.4729e-07
2.33348e-06
2.59952e-07
2.31947e-06
2.45319e-07
2.31041e-06
2.05675e-07
2.30709e-06
1.60727e-07
2.30932e-06
1.26606e-07
2.3146e-06
1.09287e-07
2.31951e-06
1.04722e-07
2.32186e-06
1.04405e-07
2.32151e-06
1.01913e-07
2.31974e-06
9.55464e-08
2.31788e-06
8.68073e-08
2.31684e-06
7.8386e-08
2.31671e-06
7.25928e-08
2.31727e-06
7.04739e-08
7.22616e-08
2.31818e-06
2.59532e-06
4.73797e-07
2.55564e-06
3.03575e-07
2.54847e-06
2.54463e-07
2.54429e-06
2.64135e-07
2.53089e-06
2.58711e-07
2.51036e-06
2.26213e-07
2.4902e-06
1.80881e-07
2.4764e-06
1.40413e-07
2.47124e-06
1.14446e-07
2.47399e-06
1.01969e-07
2.48213e-06
9.62669e-08
2.49248e-06
9.15628e-08
2.50212e-06
8.59071e-08
2.50863e-06
8.02967e-08
2.51087e-06
7.61444e-08
2.50893e-06
7.4536e-08
2.50406e-06
7.53432e-08
7.80377e-08
2.49828e-06
2.72394e-06
4.59315e-07
2.71977e-06
3.07748e-07
2.71992e-06
2.54318e-07
2.72383e-06
2.60221e-07
2.72976e-06
2.52781e-07
2.73597e-06
2.20005e-07
2.73671e-06
1.8014e-07
2.72797e-06
1.49154e-07
2.71272e-06
1.297e-07
2.6983e-06
1.16384e-07
2.69034e-06
1.04229e-07
2.68962e-06
9.2281e-08
2.69333e-06
8.21965e-08
2.69773e-06
7.5901e-08
2.69993e-06
7.39405e-08
2.69897e-06
7.54977e-08
2.69523e-06
7.90816e-08
8.30658e-08
2.6902e-06
3.00206e-06
5.21944e-07
2.95966e-06
3.5014e-07
2.93669e-06
2.77293e-07
2.93548e-06
2.61428e-07
2.9398e-06
2.48468e-07
2.9365e-06
2.23304e-07
2.92599e-06
1.90648e-07
2.91528e-06
1.59862e-07
2.90949e-06
1.35494e-07
2.90898e-06
1.16888e-07
2.9115e-06
1.01707e-07
2.91503e-06
8.87511e-08
2.91858e-06
7.86527e-08
2.92207e-06
7.24082e-08
2.92535e-06
7.06564e-08
2.92842e-06
7.24324e-08
2.93085e-06
7.66524e-08
8.14811e-08
2.93243e-06
3.17206e-06
5.2948e-07
3.15945e-06
3.62744e-07
3.14558e-06
2.91162e-07
3.13374e-06
2.73269e-07
3.12624e-06
2.5597e-07
3.12346e-06
2.26087e-07
3.1254e-06
1.88711e-07
3.13134e-06
1.5392e-07
3.13902e-06
1.27813e-07
3.14547e-06
1.10433e-07
3.14895e-06
9.82348e-08
3.14947e-06
8.82301e-08
3.14837e-06
7.97509e-08
3.14719e-06
7.35833e-08
3.14717e-06
7.06774e-08
3.14849e-06
7.11148e-08
3.15096e-06
7.41797e-08
7.87374e-08
3.15371e-06
2.86195e-06
5.57167e-07
2.85013e-06
3.74559e-07
2.8504e-06
2.90894e-07
2.86145e-06
2.62224e-07
2.87129e-06
2.46126e-07
2.87616e-06
2.21217e-07
2.87509e-06
1.89783e-07
2.86886e-06
1.60143e-07
2.86068e-06
1.35993e-07
2.85458e-06
1.16537e-07
2.85261e-06
1.00206e-07
2.85384e-06
8.69943e-08
2.85567e-06
7.79219e-08
2.85545e-06
7.38032e-08
2.85232e-06
7.38068e-08
2.84673e-06
7.67075e-08
2.84045e-06
8.04575e-08
8.41287e-08
2.83506e-06
3.4964e-06
4.62655e-07
3.49896e-06
3.72003e-07
3.48272e-06
3.07126e-07
3.47247e-06
2.72478e-07
3.47225e-06
2.46347e-07
3.47876e-06
2.14708e-07
3.48327e-06
1.85267e-07
3.47998e-06
1.63434e-07
3.4699e-06
1.46073e-07
3.45853e-06
1.27909e-07
3.45092e-06
1.07821e-07
3.44861e-06
8.92994e-08
3.44992e-06
7.66093e-08
3.45219e-06
7.1541e-08
3.45347e-06
7.25198e-08
3.45358e-06
7.66001e-08
3.45317e-06
8.08708e-08
8.37121e-08
3.45358e-06
4.3001e-06
4.82369e-07
4.30599e-06
3.6611e-07
4.28289e-06
3.30232e-07
4.26733e-06
2.88036e-07
4.27449e-06
2.39186e-07
4.28605e-06
2.03149e-07
4.28198e-06
1.89335e-07
4.25959e-06
1.85822e-07
4.23063e-06
1.75036e-07
4.20849e-06
1.50044e-07
4.19996e-06
1.16353e-07
4.20457e-06
8.4688e-08
4.21784e-06
6.33409e-08
4.23483e-06
5.45542e-08
4.25157e-06
5.57743e-08
4.26596e-06
6.22107e-08
4.27701e-06
6.98272e-08
7.62376e-08
4.28448e-06
5.21237e-06
3.6147e-07
5.23469e-06
3.4379e-07
5.25243e-06
3.12493e-07
5.25373e-06
2.86739e-07
5.24386e-06
2.49056e-07
5.22819e-06
2.18824e-07
5.21167e-06
2.05851e-07
5.1993e-06
1.98191e-07
5.19373e-06
1.80611e-07
5.19418e-06
1.49593e-07
5.19756e-06
1.12965e-07
5.2008e-06
8.14487e-08
5.20246e-06
6.16835e-08
5.20293e-06
5.4085e-08
5.20371e-06
5.49968e-08
5.20585e-06
6.0071e-08
5.21012e-06
6.55582e-08
7.01801e-08
5.21617e-06
6.47607e-06
4.10838e-07
6.44802e-06
3.71841e-07
6.39765e-06
3.62862e-07
6.3621e-06
3.22292e-07
6.34484e-06
2.66318e-07
6.33901e-06
2.24656e-07
6.34266e-06
2.02198e-07
6.35719e-06
1.83659e-07
6.38007e-06
1.57732e-07
6.40355e-06
1.26118e-07
6.41936e-06
9.71508e-08
6.42349e-06
7.7324e-08
6.41747e-06
6.77038e-08
6.40634e-06
6.52078e-08
6.39583e-06
6.55131e-08
6.39003e-06
6.58677e-08
6.39097e-06
6.46156e-08
6.29689e-08
6.39818e-06
7.86581e-06
5.52418e-07
7.80767e-06
4.29986e-07
7.78595e-06
3.84579e-07
7.77403e-06
3.3421e-07
7.76939e-06
2.70962e-07
7.7706e-06
2.23444e-07
7.7756e-06
1.97194e-07
7.77941e-06
1.79852e-07
7.77826e-06
1.58879e-07
7.77356e-06
1.30822e-07
7.77037e-06
1.00338e-07
7.77353e-06
7.41694e-08
7.78494e-06
5.6288e-08
7.80295e-06
4.71979e-08
7.82361e-06
4.48552e-08
7.84297e-06
4.6503e-08
7.85775e-06
4.98416e-08
5.33652e-08
7.86735e-06
9.43414e-06
6.99714e-07
9.40206e-06
4.62066e-07
9.41644e-06
3.70192e-07
9.42763e-06
3.23021e-07
9.43796e-06
2.60631e-07
9.45728e-06
2.04128e-07
9.48269e-06
1.7178e-07
9.50398e-06
1.58565e-07
9.51496e-06
1.47898e-07
9.51737e-06
1.28413e-07
9.51789e-06
9.98216e-08
9.52278e-06
6.92733e-08
9.53435e-06
4.47165e-08
9.55049e-06
3.10593e-08
9.56676e-06
2.85874e-08
9.57921e-06
3.40543e-08
9.58578e-06
4.32694e-08
5.217e-08
9.58698e-06
1.13523e-05
4.47068e-07
1.14081e-05
4.06262e-07
1.14295e-05
3.4879e-07
1.14668e-05
2.85749e-07
1.1508e-05
2.19436e-07
1.1548e-05
1.64122e-07
1.15904e-05
1.2937e-07
1.16376e-05
1.11369e-07
1.16852e-05
1.00329e-07
1.17249e-05
8.86459e-08
1.17503e-05
7.44327e-08
1.17596e-05
5.9961e-08
1.17563e-05
4.80854e-08
1.1747e-05
4.03033e-08
1.17395e-05
3.61047e-08
1.17393e-05
3.42775e-08
1.17496e-05
3.29732e-08
3.13618e-08
1.17704e-05
8.24561e-06
4.10423e-07
8.29237e-06
3.59498e-07
8.34383e-06
2.97338e-07
8.39632e-06
2.3326e-07
8.43615e-06
1.79599e-07
8.46841e-06
1.31865e-07
8.50693e-06
9.08481e-08
8.55678e-06
6.15209e-08
8.61144e-06
4.5663e-08
8.65974e-06
4.03554e-08
8.69311e-06
4.106e-08
8.70901e-06
4.40559e-08
8.71058e-06
4.65144e-08
8.70437e-06
4.65184e-08
8.69744e-06
4.30294e-08
8.69516e-06
3.65577e-08
8.70019e-06
2.79492e-08
1.89532e-08
8.7126e-06
7.21871e-06
3.28713e-07
7.30687e-06
2.71331e-07
7.35286e-06
2.51348e-07
7.38127e-06
2.04847e-07
7.41215e-06
1.48727e-07
7.44717e-06
9.68454e-08
7.48112e-06
5.68969e-08
7.51029e-06
3.23502e-08
7.53491e-06
2.10424e-08
7.55737e-06
1.78921e-08
7.57999e-06
1.84379e-08
7.60375e-06
2.03016e-08
7.62819e-06
2.20707e-08
7.65191e-06
2.27999e-08
7.67308e-06
2.18557e-08
7.69029e-06
1.93503e-08
7.70253e-06
1.57118e-08
1.14139e-08
7.71007e-06
6.4413e-06
3.45819e-07
6.4962e-06
2.16428e-07
6.54402e-06
2.03527e-07
6.57642e-06
1.72446e-07
6.59741e-06
1.27737e-07
6.61495e-06
7.93041e-08
6.63056e-06
4.12879e-08
6.64291e-06
2.00004e-08
6.65231e-06
1.1643e-08
6.66075e-06
9.45568e-09
6.67054e-06
8.64081e-09
6.68246e-06
8.381e-09
6.6956e-06
8.93127e-09
6.70807e-06
1.03309e-08
6.7184e-06
1.15316e-08
6.72623e-06
1.1512e-08
6.73224e-06
9.70842e-09
5.70351e-09
6.73795e-06
5.65564e-06
2.62548e-07
5.66137e-06
2.10701e-07
5.70183e-06
1.63066e-07
5.74557e-06
1.28711e-07
5.76827e-06
1.05034e-07
5.77099e-06
7.6587e-08
5.76348e-06
4.87982e-08
5.75558e-06
2.78967e-08
5.75413e-06
1.30958e-08
5.76204e-06
1.54284e-09
5.7802e-06
-9.5174e-09
5.80327e-06
-1.46907e-08
5.82598e-06
-1.37768e-08
5.84399e-06
-7.6845e-09
5.85497e-06
5.57142e-10
5.86009e-06
6.39479e-09
5.86063e-06
9.15992e-09
7.22735e-09
5.85911e-06
4.85362e-06
3.14164e-07
4.88492e-06
1.794e-07
4.93827e-06
1.09717e-07
4.98728e-06
7.96966e-08
5.02854e-06
6.37767e-08
5.05636e-06
4.87671e-08
5.0713e-06
3.38551e-08
5.08032e-06
1.88739e-08
5.09022e-06
3.19998e-09
5.1014e-06
-9.63902e-09
5.11108e-06
-1.91909e-08
5.11884e-06
-2.24514e-08
5.12495e-06
-1.98892e-08
5.13143e-06
-1.41703e-08
5.14055e-06
-8.55785e-09
5.15241e-06
-5.46831e-09
5.16724e-06
-5.66587e-09
-8.67457e-09
5.18314e-06
4.29413e-06
3.25677e-07
4.30474e-06
1.68789e-07
4.30252e-06
1.11941e-07
4.31172e-06
7.04963e-08
4.33803e-06
3.74611e-08
4.37369e-06
1.31096e-08
4.41174e-06
-4.19845e-09
4.44841e-06
-1.77958e-08
4.47779e-06
-2.61798e-08
4.49693e-06
-2.87754e-08
4.50353e-06
-2.57915e-08
4.50091e-06
-1.98337e-08
4.49551e-06
-1.44842e-08
4.49379e-06
-1.24495e-08
4.49953e-06
-1.43033e-08
4.51285e-06
-1.87855e-08
4.53149e-06
-2.43112e-08
-2.8911e-08
4.55173e-06
3.75625e-06
3.63452e-07
3.78139e-06
1.4365e-07
3.80858e-06
8.47592e-08
3.83027e-06
4.88059e-08
3.85218e-06
1.555e-08
3.86967e-06
-4.38334e-09
3.87891e-06
-1.34387e-08
3.88446e-06
-2.33415e-08
3.89251e-06
-3.42373e-08
3.90504e-06
-4.13007e-08
3.92105e-06
-4.18058e-08
3.93847e-06
-3.72553e-08
3.95541e-06
-3.14153e-08
3.97055e-06
-2.75928e-08
3.98336e-06
-2.71097e-08
3.99379e-06
-2.92199e-08
4.00208e-06
-3.25965e-08
-3.55004e-08
4.00866e-06
3.27681e-06
2.26737e-07
3.33332e-06
8.71445e-08
3.35274e-06
6.53332e-08
3.36529e-06
3.62618e-08
3.3819e-06
-1.06515e-09
3.40617e-06
-2.86536e-08
3.43269e-06
-3.99536e-08
3.45435e-06
-4.5008e-08
3.46828e-06
-4.81669e-08
3.47593e-06
-4.89463e-08
3.48057e-06
-4.6446e-08
3.48491e-06
-4.15919e-08
3.48995e-06
-3.64574e-08
3.49559e-06
-3.32378e-08
3.50162e-06
-3.31417e-08
3.508e-06
-3.55994e-08
3.5149e-06
-3.94956e-08
-4.30422e-08
3.52244e-06
2.85945e-06
1.77769e-07
2.92511e-06
2.14819e-08
2.97847e-06
1.19753e-08
3.01889e-06
-4.15255e-09
3.04308e-06
-2.52544e-08
3.0584e-06
-4.39748e-08
3.07227e-06
-5.38309e-08
3.08231e-06
-5.50432e-08
3.08438e-06
-5.02364e-08
3.07921e-06
-4.37758e-08
3.07203e-06
-3.92722e-08
3.06828e-06
-3.78356e-08
3.07047e-06
-3.86461e-08
3.07816e-06
-4.09323e-08
3.08941e-06
-4.4387e-08
3.10194e-06
-4.81363e-08
3.11387e-06
-5.14224e-08
-5.31835e-08
3.12401e-06
2.48729e-06
6.70689e-08
2.53502e-06
-2.62411e-08
2.56845e-06
-2.14606e-08
2.60648e-06
-4.21835e-08
2.6344e-06
-5.317e-08
2.64562e-06
-5.51977e-08
2.64625e-06
-5.44627e-08
2.64408e-06
-5.28678e-08
2.64433e-06
-5.04928e-08
2.64855e-06
-4.79884e-08
2.65503e-06
-4.57556e-08
2.66059e-06
-4.34013e-08
2.66253e-06
-4.05852e-08
2.65958e-06
-3.79762e-08
2.65183e-06
-3.66346e-08
2.64064e-06
-3.69484e-08
2.62778e-06
-3.85684e-08
-4.00421e-08
2.61464e-06
2.15097e-06
2.12473e-06
2.10327e-06
2.06109e-06
2.00792e-06
1.95272e-06
1.89826e-06
1.84539e-06
1.7949e-06
1.74691e-06
1.70115e-06
1.65775e-06
1.61717e-06
1.57919e-06
1.54255e-06
1.50561e-06
1.46704e-06
1.427e-06
3.90184e-08
-3.90184e-08
8.09058e-08
-4.18874e-08
1.20019e-07
-3.91128e-08
1.55021e-07
-3.50021e-08
1.85217e-07
-3.01967e-08
2.10091e-07
-2.48736e-08
2.29065e-07
-1.89737e-08
2.4151e-07
-1.24458e-08
2.46828e-07
-5.3179e-09
2.4429e-07
2.53841e-09
2.33138e-07
1.11516e-08
2.12545e-07
2.0593e-08
1.81471e-07
3.10741e-08
1.38852e-07
4.26196e-08
8.36294e-08
5.52222e-08
1.48459e-08
6.87835e-08
-6.83814e-08
8.32273e-08
-1.66428e-07
9.80468e-08
-2.79434e-07
1.13006e-07
-4.07083e-07
1.27649e-07
-5.48633e-07
1.4155e-07
-7.03034e-07
1.54401e-07
-8.6905e-07
1.66016e-07
-1.04475e-06
1.75701e-07
-1.22822e-06
1.83467e-07
-1.41752e-06
1.89304e-07
-1.61075e-06
1.93229e-07
-1.80604e-06
1.95293e-07
-2.0016e-06
1.95561e-07
-2.1957e-06
1.94092e-07
-2.38662e-06
1.90925e-07
-2.57269e-06
1.86073e-07
-2.75223e-06
1.79541e-07
-2.92355e-06
1.71313e-07
-3.0849e-06
1.61354e-07
-3.23454e-06
1.49634e-07
-3.37067e-06
1.3613e-07
-3.49153e-06
1.20864e-07
-3.59545e-06
1.03925e-07
-3.68087e-06
8.54179e-08
-3.7464e-06
6.55249e-08
-3.79099e-06
4.45974e-08
-3.81398e-06
2.29889e-08
-3.81487e-06
8.8763e-10
-3.79417e-06
-2.07023e-08
-3.75239e-06
-4.17833e-08
-3.69021e-06
-6.21751e-08
-3.60853e-06
-8.16772e-08
-3.50841e-06
-1.00119e-07
-3.39108e-06
-1.17337e-07
-3.25792e-06
-1.33155e-07
-3.11051e-06
-1.47412e-07
-2.95056e-06
-1.59955e-07
-2.77991e-06
-1.70651e-07
-2.60051e-06
-1.79401e-07
-2.41435e-06
-1.86152e-07
-2.22344e-06
-1.90911e-07
-2.0297e-06
-1.93745e-07
-1.83492e-06
-1.94774e-07
-1.64077e-06
-1.94152e-07
-1.44872e-06
-1.92053e-07
-1.26004e-06
-1.88674e-07
-1.07582e-06
-1.84221e-07
-8.96936e-07
-1.78888e-07
-7.24088e-07
-1.72847e-07
-5.57786e-07
-1.66302e-07
-3.98446e-07
-1.5934e-07
-2.46279e-07
-1.52167e-07
-1.01426e-07
-1.44853e-07
3.59505e-08
-1.37377e-07
1.66198e-07
-1.30247e-07
2.89328e-07
-1.2313e-07
4.05478e-07
-1.16151e-07
5.14848e-07
-1.0937e-07
6.17668e-07
-1.0282e-07
7.14186e-07
-9.65181e-08
8.04659e-07
-9.04734e-08
8.89347e-07
-8.46877e-08
9.68506e-07
-7.91585e-08
1.04239e-06
-7.388e-08
1.11123e-06
-6.88448e-08
1.17527e-06
-6.40444e-08
1.23474e-06
-5.947e-08
1.28986e-06
-5.51133e-08
1.34082e-06
-5.09662e-08
1.38785e-06
-4.70216e-08
1.43112e-06
-4.32732e-08
1.47083e-06
-3.97154e-08
1.50718e-06
-3.63434e-08
1.54033e-06
-3.3153e-08
1.57047e-06
-3.01402e-08
1.59777e-06
-2.73016e-08
1.62241e-06
-2.46336e-08
1.64454e-06
-2.21327e-08
1.66433e-06
-1.9795e-08
1.68195e-06
-1.76163e-08
1.69754e-06
-1.5592e-08
1.71126e-06
-1.37171e-08
1.72325e-06
-1.1986e-08
1.73364e-06
-1.03927e-08
1.74257e-06
-8.93089e-09
1.75016e-06
-7.59353e-09
1.75654e-06
-6.37491e-09
1.76181e-06
-5.26801e-09
1.76607e-06
-4.26618e-09
1.76943e-06
-3.36038e-09
1.77198e-06
-2.54337e-09
1.77378e-06
-1.8097e-09
1.77493e-06
-1.1471e-09
1.77549e-06
-5.55153e-10
1.77551e-06
-2.40509e-11
1.77502e-06
4.86934e-10
1.77408e-06
9.45024e-10
1.77273e-06
1.35069e-09
1.77102e-06
1.70856e-09
1.769e-06
2.02429e-09
1.76669e-06
2.30317e-09
1.76414e-06
2.55215e-09
1.76137e-06
2.77249e-09
1.7584e-06
2.96536e-09
1.75527e-06
3.13497e-09
1.75198e-06
3.29036e-09
1.74855e-06
3.43053e-09
1.74499e-06
3.55729e-09
1.74132e-06
3.67262e-09
1.73754e-06
3.77647e-09
1.73367e-06
3.86819e-09
1.72973e-06
3.94635e-09
1.72572e-06
4.00815e-09
1.72167e-06
4.05262e-09
1.71758e-06
4.08139e-09
1.71349e-06
4.09851e-09
1.70938e-06
4.10886e-09
1.70526e-06
4.11729e-09
1.70113e-06
4.12709e-09
1.69699e-06
4.14004e-09
1.69284e-06
4.15633e-09
1.68866e-06
4.17562e-09
1.68446e-06
4.19702e-09
1.68024e-06
4.21992e-09
1.676e-06
4.24383e-09
1.67173e-06
4.2685e-09
1.66744e-06
4.29387e-09
1.66312e-06
4.31997e-09
1.65877e-06
4.34695e-09
1.65439e-06
4.37495e-09
1.64999e-06
4.40412e-09
1.64556e-06
4.43459e-09
1.64109e-06
4.46656e-09
1.63659e-06
4.50021e-09
1.63205e-06
4.53579e-09
1.62748e-06
4.57374e-09
1.62287e-06
4.61446e-09
1.61821e-06
4.65854e-09
1.6135e-06
4.70658e-09
1.60874e-06
4.75965e-09
1.60392e-06
4.81863e-09
1.59904e-06
4.88529e-09
1.59408e-06
4.96113e-09
1.58903e-06
5.0487e-09
1.58388e-06
5.15144e-09
1.5786e-06
5.27179e-09
1.57318e-06
5.4188e-09
1.56759e-06
5.59082e-09
1.56178e-06
5.81365e-09
1.55571e-06
6.06682e-09
1.54929e-06
6.42728e-09
1.54248e-06
6.80405e-09
1.53505e-06
7.432e-09
1.52707e-06
7.98139e-09
1.51789e-06
9.18031e-09
1.50796e-06
9.92419e-09
1.4955e-06
1.24665e-08
1.48224e-06
1.32544e-08
1.46297e-06
1.92781e-08
1.44364e-06
1.93289e-08
1.40841e-06
3.52258e-08
1.37602e-06
3.23894e-08
1.29262e-06
8.34004e-08
7.82788e-08
1.21434e-06
-9.28579e-09
-2.97326e-08
-2.95696e-08
-2.16036e-08
-5.29001e-08
-1.57823e-08
-8.00765e-08
-7.82571e-09
-1.1155e-07
1.27669e-09
-1.47271e-07
1.08473e-08
-1.87836e-07
2.15913e-08
-2.33789e-07
3.3507e-08
-2.85785e-07
4.66786e-08
-3.44415e-07
6.11682e-08
-4.10314e-07
7.70511e-08
-4.84066e-07
9.43447e-08
-5.66002e-07
1.1301e-07
-6.56306e-07
1.32923e-07
-7.54957e-07
1.53874e-07
-8.61744e-07
1.7557e-07
-9.76217e-07
1.97701e-07
-1.098e-06
2.19834e-07
-1.22622e-06
2.41221e-07
-1.35991e-06
2.61345e-07
-1.49822e-06
2.79851e-07
-1.64022e-06
2.96405e-07
-1.78494e-06
3.1074e-07
-1.93189e-06
3.22644e-07
-2.08042e-06
3.31996e-07
-2.22988e-06
3.38771e-07
-2.37964e-06
3.42979e-07
-2.52899e-06
3.44649e-07
-2.67722e-06
3.43787e-07
-2.82349e-06
3.40359e-07
-2.96683e-06
3.34269e-07
-3.10619e-06
3.25435e-07
-3.24055e-06
3.13901e-07
-3.36871e-06
2.99472e-07
-3.4893e-06
2.81941e-07
-3.60083e-06
2.61162e-07
-3.70173e-06
2.37038e-07
-3.79043e-06
2.09564e-07
-3.86536e-06
1.78851e-07
-3.92507e-06
1.45127e-07
-3.96829e-06
1.0875e-07
-3.99392e-06
7.02246e-08
-4.00111e-06
3.01753e-08
-3.98908e-06
-1.11424e-08
-3.95672e-06
-5.30578e-08
-3.90399e-06
-9.45146e-08
-3.83114e-06
-1.35031e-07
-3.73882e-06
-1.7399e-07
-3.62806e-06
-2.10879e-07
-3.50011e-06
-2.45293e-07
-3.35637e-06
-2.76895e-07
-3.19841e-06
-3.05367e-07
-3.02796e-06
-3.30401e-07
-2.84689e-06
-3.51721e-07
-2.65718e-06
-3.69115e-07
-2.46086e-06
-3.82473e-07
-2.25996e-06
-3.9181e-07
-2.05643e-06
-3.97272e-07
-1.85209e-06
-3.99117e-07
-1.64856e-06
-3.97679e-07
-1.44728e-06
-3.93332e-07
-1.24949e-06
-3.86467e-07
-1.05622e-06
-3.77493e-07
-8.68316e-07
-3.6679e-07
-6.86411e-07
-3.54752e-07
-5.11012e-07
-3.41701e-07
-3.42461e-07
-3.27892e-07
-1.80915e-07
-3.13713e-07
-2.65179e-08
-2.99251e-07
1.21163e-07
-2.85057e-07
2.61717e-07
-2.70802e-07
3.95415e-07
-2.56828e-07
5.22472e-07
-2.43208e-07
6.43117e-07
-2.30015e-07
7.57596e-07
-2.17299e-07
8.66165e-07
-2.05086e-07
9.69081e-07
-1.9339e-07
1.0666e-06
-1.82208e-07
1.15898e-06
-1.71534e-07
1.24645e-06
-1.61352e-07
1.32925e-06
-1.51643e-07
1.40759e-06
-1.42389e-07
1.48169e-06
-1.33568e-07
1.55174e-06
-1.2516e-07
1.61792e-06
-1.17146e-07
1.6804e-06
-1.09509e-07
1.73936e-06
-1.02233e-07
1.79495e-06
-9.53036e-08
1.84732e-06
-8.87084e-08
1.8966e-06
-8.24363e-08
1.94294e-06
-7.64772e-08
1.98646e-06
-7.08221e-08
2.02729e-06
-6.54626e-08
2.06554e-06
-6.03905e-08
2.10135e-06
-5.55976e-08
2.13481e-06
-5.10759e-08
2.16603e-06
-4.68171e-08
2.19513e-06
-4.28127e-08
2.2222e-06
-3.90537e-08
2.24733e-06
-3.55312e-08
2.27064e-06
-3.2236e-08
2.2922e-06
-2.91585e-08
2.31212e-06
-2.62889e-08
2.33047e-06
-2.36169e-08
2.34733e-06
-2.11323e-08
2.3628e-06
-1.88246e-08
2.37694e-06
-1.66835e-08
2.38983e-06
-1.46995e-08
2.40154e-06
-1.2862e-08
2.41215e-06
-1.11639e-08
2.42172e-06
-9.59622e-09
2.43035e-06
-8.14031e-09
2.43809e-06
-6.79322e-09
2.44499e-06
-5.551e-09
2.45111e-06
-4.40789e-09
2.45649e-06
-3.35671e-09
2.46118e-06
-2.38739e-09
2.46522e-06
-1.49331e-09
2.46867e-06
-6.70223e-10
2.47154e-06
9.40598e-11
2.47388e-06
7.95392e-10
2.47572e-06
1.44912e-09
2.4771e-06
2.05047e-09
2.47805e-06
2.60533e-09
2.4786e-06
3.11786e-09
2.47879e-06
3.58792e-09
2.47865e-06
4.01557e-09
2.47819e-06
4.40308e-09
2.47745e-06
4.75004e-09
2.47644e-06
5.058e-09
2.47519e-06
5.33021e-09
2.47372e-06
5.5709e-09
2.47204e-06
5.785e-09
2.47018e-06
5.97818e-09
2.46815e-06
6.15611e-09
2.46597e-06
6.32413e-09
2.46364e-06
6.4867e-09
2.46117e-06
6.64671e-09
2.45856e-06
6.80551e-09
2.45582e-06
6.96318e-09
2.45294e-06
7.11887e-09
2.44994e-06
7.27146e-09
2.44681e-06
7.42011e-09
2.44357e-06
7.5642e-09
2.44021e-06
7.70368e-09
2.43675e-06
7.8387e-09
2.43318e-06
7.96968e-09
2.42952e-06
8.09716e-09
2.42576e-06
8.22183e-09
2.42192e-06
8.34443e-09
2.41799e-06
8.46582e-09
2.41398e-06
8.58702e-09
2.40988e-06
8.70903e-09
2.40571e-06
8.83327e-09
2.40145e-06
8.96116e-09
2.39712e-06
9.09452e-09
2.3927e-06
9.23564e-09
2.3882e-06
9.38688e-09
2.38361e-06
9.55255e-09
2.37892e-06
9.73502e-09
2.37413e-06
9.94351e-09
2.36922e-06
1.01779e-08
2.36418e-06
1.046e-08
2.35899e-06
1.07788e-08
2.35362e-06
1.11893e-08
2.34804e-06
1.16423e-08
2.34218e-06
1.22873e-08
2.33604e-06
1.2948e-08
2.32943e-06
1.40443e-08
2.32241e-06
1.50017e-08
2.31455e-06
1.70366e-08
2.30611e-06
1.83683e-08
2.29606e-06
2.25155e-08
2.28514e-06
2.41715e-08
2.27095e-06
3.34735e-08
2.25516e-06
3.51114e-08
2.23214e-06
5.82523e-08
2.20441e-06
6.01132e-08
2.16348e-06
1.24332e-07
1.35031e-07
2.10673e-06
-4.70314e-08
1.72988e-08
-1.08052e-07
3.94169e-08
-1.69439e-07
4.56051e-08
-2.31939e-07
5.4674e-08
-2.95795e-07
6.51326e-08
-3.62082e-07
7.71343e-08
-4.31126e-07
9.06353e-08
-5.03277e-07
1.05658e-07
-5.78806e-07
1.22208e-07
-6.57894e-07
1.40256e-07
-7.40586e-07
1.59744e-07
-8.26838e-07
1.80596e-07
-9.16512e-07
2.02684e-07
-1.00939e-06
2.25806e-07
-1.1052e-06
2.49682e-07
-1.20361e-06
2.73974e-07
-1.30422e-06
2.98315e-07
-1.4067e-06
3.22311e-07
-1.51101e-06
3.45532e-07
-1.61726e-06
3.67591e-07
-1.72559e-06
3.88187e-07
-1.83628e-06
4.07089e-07
-1.94963e-06
4.24092e-07
-2.06602e-06
4.39032e-07
-2.18578e-06
4.51763e-07
-2.30915e-06
4.62137e-07
-2.43616e-06
4.69993e-07
-2.56665e-06
4.75137e-07
-2.70019e-06
4.77328e-07
-2.83609e-06
4.76258e-07
-2.9734e-06
4.71577e-07
-3.11088e-06
4.62923e-07
-3.24692e-06
4.49938e-07
-3.37968e-06
4.3223e-07
-3.50715e-06
4.09416e-07
-3.62718e-06
3.81185e-07
-3.73748e-06
3.47339e-07
-3.83574e-06
3.07828e-07
-3.91969e-06
2.62801e-07
-3.9872e-06
2.12636e-07
-4.03638e-06
1.57934e-07
-4.0657e-06
9.95426e-08
-4.07413e-06
3.86033e-08
-4.0608e-06
-2.44732e-08
-4.02521e-06
-8.86443e-08
-3.96781e-06
-1.51913e-07
-3.88943e-06
-2.13413e-07
-3.79111e-06
-2.72312e-07
-3.67406e-06
-3.27926e-07
-3.53966e-06
-3.79692e-07
-3.38942e-06
-4.27138e-07
-3.22498e-06
-4.69805e-07
-3.04816e-06
-5.07224e-07
-2.86093e-06
-5.38949e-07
-2.66542e-06
-5.64632e-07
-2.46379e-06
-5.84094e-07
-2.25824e-06
-5.97361e-07
-2.05083e-06
-6.04689e-07
-1.84341e-06
-6.06531e-07
-1.63764e-06
-6.03454e-07
-1.43489e-06
-5.9608e-07
-1.23632e-06
-5.85037e-07
-1.04288e-06
-5.70934e-07
-8.55285e-07
-5.54383e-07
-6.74099e-07
-5.35938e-07
-4.99777e-07
-5.16022e-07
-3.32524e-07
-4.95145e-07
-1.72529e-07
-4.73708e-07
-1.98575e-08
-4.51923e-07
1.25778e-07
-4.30693e-07
2.64319e-07
-4.09342e-07
3.95972e-07
-3.8848e-07
5.20986e-07
-3.68222e-07
6.39633e-07
-3.48662e-07
7.52195e-07
-3.29861e-07
8.58963e-07
-3.11854e-07
9.6022e-07
-2.94647e-07
1.05625e-06
-2.78235e-07
1.14731e-06
-2.62597e-07
1.23366e-06
-2.47705e-07
1.31555e-06
-2.33529e-07
1.39319e-06
-2.20034e-07
1.46681e-06
-2.07187e-07
1.53661e-06
-1.94954e-07
1.60277e-06
-1.83305e-07
1.66547e-06
-1.72209e-07
1.72487e-06
-1.6164e-07
1.78114e-06
-1.51574e-07
1.83442e-06
-1.41989e-07
1.88485e-06
-1.32867e-07
1.93256e-06
-1.24189e-07
1.97768e-06
-1.15938e-07
2.02032e-06
-1.08101e-07
2.06059e-06
-1.00661e-07
2.0986e-06
-9.36064e-08
2.13444e-06
-8.69221e-08
2.16822e-06
-8.05948e-08
2.20002e-06
-7.46114e-08
2.22993e-06
-6.89584e-08
2.25802e-06
-6.36227e-08
2.28437e-06
-5.85912e-08
2.30906e-06
-5.38509e-08
2.33217e-06
-4.93891e-08
2.35374e-06
-4.51931e-08
2.37386e-06
-4.12501e-08
2.39258e-06
-3.75479e-08
2.40997e-06
-3.40743e-08
2.42609e-06
-3.08174e-08
2.441e-06
-2.77666e-08
2.45474e-06
-2.49104e-08
2.46738e-06
-2.22375e-08
2.47898e-06
-1.97353e-08
2.48958e-06
-1.73946e-08
2.49924e-06
-1.52093e-08
2.508e-06
-1.31721e-08
2.51592e-06
-1.12742e-08
2.52304e-06
-9.50636e-09
2.5294e-06
-7.85868e-09
2.53506e-06
-6.32589e-09
2.54006e-06
-4.90226e-09
2.54443e-06
-3.58102e-09
2.54823e-06
-2.3495e-09
2.55149e-06
-1.20501e-09
2.55423e-06
-1.41464e-10
2.5565e-06
8.51859e-10
2.55832e-06
1.77151e-09
2.55971e-06
2.61772e-09
2.56072e-06
3.39832e-09
2.56136e-06
4.11338e-09
2.56165e-06
4.76708e-09
2.56161e-06
5.36406e-09
2.56127e-06
5.90922e-09
2.56065e-06
6.40776e-09
2.55976e-06
6.86534e-09
2.55863e-06
7.28817e-09
2.55727e-06
7.68281e-09
2.5557e-06
8.05529e-09
2.55394e-06
8.41057e-09
2.55199e-06
8.75189e-09
2.54988e-06
9.08086e-09
2.5476e-06
9.39786e-09
2.54517e-06
9.70261e-09
2.54259e-06
9.99473e-09
2.53988e-06
1.02741e-08
2.53704e-06
1.05412e-08
2.53409e-06
1.07965e-08
2.53102e-06
1.1041e-08
2.52784e-06
1.12759e-08
2.52456e-06
1.15023e-08
2.52118e-06
1.17216e-08
2.51771e-06
1.19353e-08
2.51415e-06
1.21449e-08
2.51051e-06
1.23523e-08
2.50678e-06
1.25593e-08
2.50298e-06
1.27683e-08
2.49909e-06
1.29816e-08
2.49512e-06
1.32032e-08
2.49107e-06
1.34351e-08
2.48694e-06
1.3685e-08
2.48272e-06
1.39537e-08
2.47841e-06
1.42568e-08
2.474e-06
1.45898e-08
2.46947e-06
1.49873e-08
2.46482e-06
1.54271e-08
2.46002e-06
1.59914e-08
2.45506e-06
1.66038e-08
2.44987e-06
1.747e-08
2.44447e-06
1.83552e-08
2.43872e-06
1.9788e-08
2.43263e-06
2.10913e-08
2.42602e-06
2.36506e-08
2.41881e-06
2.55782e-08
2.4108e-06
3.05275e-08
2.40158e-06
3.33873e-08
2.39128e-06
4.37748e-08
2.37806e-06
4.83356e-08
2.36426e-06
7.20528e-08
2.34285e-06
8.15235e-08
2.32696e-06
1.40221e-07
1.68421e-07
2.29357e-06
-5.87931e-08
7.60919e-08
-1.32417e-07
1.13041e-07
-2.05794e-07
1.18983e-07
-2.79531e-07
1.28411e-07
-3.53737e-07
1.39339e-07
-4.28617e-07
1.52014e-07
-5.04315e-07
1.66333e-07
-5.80969e-07
1.82312e-07
-6.58651e-07
1.99891e-07
-7.37441e-07
2.19045e-07
-8.17413e-07
2.39716e-07
-8.98595e-07
2.61777e-07
-9.80955e-07
2.85044e-07
-1.06444e-06
3.09289e-07
-1.14902e-06
3.34261e-07
-1.23475e-06
3.59705e-07
-1.32181e-06
3.85382e-07
-1.41056e-06
4.11059e-07
-1.50154e-06
4.3651e-07
-1.59548e-06
4.61534e-07
-1.69324e-06
4.85947e-07
-1.79565e-06
5.09496e-07
-1.90342e-06
5.31865e-07
-2.01709e-06
5.52698e-07
-2.13694e-06
5.71617e-07
-2.26303e-06
5.88224e-07
-2.39513e-06
6.02089e-07
-2.53273e-06
6.12743e-07
-2.67509e-06
6.19681e-07
-2.82117e-06
6.22342e-07
-2.9697e-06
6.20103e-07
-3.11908e-06
6.12301e-07
-3.26741e-06
5.98271e-07
-3.41255e-06
5.77375e-07
-3.55217e-06
5.49036e-07
-3.68377e-06
5.12785e-07
-3.80474e-06
4.68302e-07
-3.91239e-06
4.15481e-07
-4.00411e-06
3.54521e-07
-4.07746e-06
2.85981e-07
-4.13027e-06
2.10744e-07
-4.16082e-06
1.30092e-07
-4.16803e-06
4.58199e-08
-4.15104e-06
-4.14691e-08
-4.11e-06
-1.29678e-07
-4.04563e-06
-2.16287e-07
-3.95899e-06
-3.00051e-07
-3.85145e-06
-3.79854e-07
-3.72451e-06
-4.54868e-07
-3.57975e-06
-5.24452e-07
-3.41883e-06
-5.88058e-07
-3.2435e-06
-6.45134e-07
-3.05568e-06
-6.95036e-07
-2.85758e-06
-7.37058e-07
-2.65159e-06
-7.70618e-07
-2.44028e-06
-7.95404e-07
-2.22619e-06
-8.11451e-07
-2.01167e-06
-8.19205e-07
-1.79875e-06
-8.19455e-07
-1.58906e-06
-8.1314e-07
-1.3839e-06
-8.01243e-07
-1.18425e-06
-7.84693e-07
-9.90784e-07
-7.64396e-07
-8.03997e-07
-7.41171e-07
-6.24184e-07
-7.15751e-07
-4.51537e-07
-6.88669e-07
-2.86066e-07
-6.60616e-07
-1.27901e-07
-6.31872e-07
2.32137e-08
-6.03037e-07
1.67031e-07
-5.7451e-07
3.03886e-07
-5.46198e-07
4.33895e-07
-5.18489e-07
5.57272e-07
-4.91599e-07
6.7428e-07
-4.6567e-07
7.8521e-07
-4.40791e-07
8.9036e-07
-4.17004e-07
9.9003e-07
-3.94317e-07
1.08451e-06
-3.72711e-07
1.17406e-06
-3.52153e-07
1.25896e-06
-3.326e-07
1.33943e-06
-3.14003e-07
1.41571e-06
-2.96315e-07
1.48801e-06
-2.79485e-07
1.55652e-06
-2.63468e-07
1.62144e-06
-2.4822e-07
1.68293e-06
-2.33701e-07
1.74117e-06
-2.19873e-07
1.7963e-06
-2.06705e-07
1.84847e-06
-1.94166e-07
1.89784e-06
-1.82229e-07
1.94452e-06
-1.70869e-07
1.98864e-06
-1.60064e-07
2.03033e-06
-1.49792e-07
2.06971e-06
-1.40033e-07
2.10687e-06
-1.30767e-07
2.14192e-06
-1.21973e-07
2.17496e-06
-1.13634e-07
2.20608e-06
-1.05731e-07
2.23536e-06
-9.82455e-08
2.2629e-06
-9.11594e-08
2.28876e-06
-8.44555e-08
2.31303e-06
-7.81167e-08
2.33577e-06
-7.21266e-08
2.35704e-06
-6.6469e-08
2.37692e-06
-6.11284e-08
2.39546e-06
-5.60897e-08
2.41273e-06
-5.13384e-08
2.42877e-06
-4.68608e-08
2.44365e-06
-4.26437e-08
2.45741e-06
-3.86736e-08
2.47011e-06
-3.49382e-08
2.4818e-06
-3.14255e-08
2.49253e-06
-2.81238e-08
2.50235e-06
-2.50241e-08
2.51129e-06
-2.21173e-08
2.51941e-06
-1.93932e-08
2.52675e-06
-1.68421e-08
2.53334e-06
-1.4454e-08
2.53923e-06
-1.22187e-08
2.54446e-06
-1.01297e-08
2.54906e-06
-8.18077e-09
2.55307e-06
-6.36041e-09
2.55653e-06
-4.66128e-09
2.55946e-06
-3.07721e-09
2.56192e-06
-1.59945e-09
2.5639e-06
-2.16893e-10
2.56547e-06
1.05206e-09
2.56663e-06
2.23517e-09
2.56742e-06
3.32733e-09
2.56785e-06
4.33587e-09
2.56795e-06
5.26655e-09
2.56773e-06
6.12518e-09
2.56722e-06