/*--------------------------------*- C++ -*----------------------------------*\
  =========                 |
  \\      /  F ield         | OpenFOAM: The Open Source CFD Toolbox
   \\    /   O peration     | Website:  https://openfoam.org
    \\  /    A nd           | Version:  7
     \\/     M anipulation  |
\*---------------------------------------------------------------------------*/
FoamFile
{
    version     2.0;
    format      ascii;
    class       volScalarField;
    location    "0.025";
    object      pPrime2Mean;
}
// * * * * * * * * * * * * * * * * * * * * * * * * * * * * * * * * * * * * * //

dimensions      [0 4 -4 0 0 0 0];

internalField   nonuniform List<scalar> 
12225
(
1.42184e+07
1.39913e+07
1.3757e+07
1.35311e+07
1.33142e+07
1.31056e+07
1.29047e+07
1.27108e+07
1.25235e+07
1.23419e+07
1.21653e+07
1.19929e+07
1.18237e+07
1.16565e+07
1.14893e+07
1.13196e+07
1.11425e+07
1.09462e+07
1.42185e+07
1.39914e+07
1.37571e+07
1.35312e+07
1.33143e+07
1.31057e+07
1.29048e+07
1.2711e+07
1.25237e+07
1.23422e+07
1.21657e+07
1.19935e+07
1.18244e+07
1.16574e+07
1.14908e+07
1.13219e+07
1.11469e+07
1.0956e+07
1.42189e+07
1.39917e+07
1.37573e+07
1.35315e+07
1.33146e+07
1.3106e+07
1.29052e+07
1.27115e+07
1.25243e+07
1.23429e+07
1.21666e+07
1.19946e+07
1.1826e+07
1.16595e+07
1.14938e+07
1.13268e+07
1.11556e+07
1.09764e+07
1.42192e+07
1.3992e+07
1.37577e+07
1.35319e+07
1.3315e+07
1.31066e+07
1.29058e+07
1.27123e+07
1.25252e+07
1.2344e+07
1.2168e+07
1.19965e+07
1.18285e+07
1.1663e+07
1.14988e+07
1.13344e+07
1.11685e+07
1.10009e+07
1.42196e+07
1.39925e+07
1.37582e+07
1.35324e+07
1.33157e+07
1.31073e+07
1.29067e+07
1.27134e+07
1.25266e+07
1.23457e+07
1.21702e+07
1.19992e+07
1.18321e+07
1.16679e+07
1.15057e+07
1.13447e+07
1.11846e+07
1.10273e+07
1.42202e+07
1.39931e+07
1.37589e+07
1.35332e+07
1.33166e+07
1.31084e+07
1.2908e+07
1.27149e+07
1.25284e+07
1.2348e+07
1.21731e+07
1.20029e+07
1.18369e+07
1.16743e+07
1.15146e+07
1.13575e+07
1.12033e+07
1.10547e+07
1.4221e+07
1.3994e+07
1.37599e+07
1.35343e+07
1.33178e+07
1.31098e+07
1.29097e+07
1.27169e+07
1.25308e+07
1.2351e+07
1.21768e+07
1.20077e+07
1.1843e+07
1.16824e+07
1.15256e+07
1.13725e+07
1.1224e+07
1.10826e+07
1.4222e+07
1.39952e+07
1.37611e+07
1.35357e+07
1.33194e+07
1.31116e+07
1.29118e+07
1.27194e+07
1.25339e+07
1.23548e+07
1.21815e+07
1.20136e+07
1.18506e+07
1.16922e+07
1.15384e+07
1.13893e+07
1.12462e+07
1.11108e+07
1.42233e+07
1.39966e+07
1.37627e+07
1.35374e+07
1.33213e+07
1.31139e+07
1.29144e+07
1.27226e+07
1.25378e+07
1.23595e+07
1.21873e+07
1.20208e+07
1.18596e+07
1.17036e+07
1.15529e+07
1.14079e+07
1.12694e+07
1.11391e+07
1.4225e+07
1.39984e+07
1.37646e+07
1.35395e+07
1.33237e+07
1.31166e+07
1.29177e+07
1.27264e+07
1.25424e+07
1.23651e+07
1.21941e+07
1.20292e+07
1.18701e+07
1.17166e+07
1.15691e+07
1.14278e+07
1.12936e+07
1.11675e+07
1.42275e+07
1.40007e+07
1.3767e+07
1.35421e+07
1.33266e+07
1.31199e+07
1.29216e+07
1.2731e+07
1.25479e+07
1.23717e+07
1.22022e+07
1.2039e+07
1.18819e+07
1.17311e+07
1.15866e+07
1.14488e+07
1.13184e+07
1.11959e+07
1.42297e+07
1.40032e+07
1.37696e+07
1.35449e+07
1.33298e+07
1.31236e+07
1.29258e+07
1.2736e+07
1.25538e+07
1.23787e+07
1.22106e+07
1.20491e+07
1.18941e+07
1.17456e+07
1.16038e+07
1.1469e+07
1.13416e+07
1.1222e+07
1.42329e+07
1.40061e+07
1.37726e+07
1.35481e+07
1.33334e+07
1.31277e+07
1.29306e+07
1.27416e+07
1.25604e+07
1.23865e+07
1.22198e+07
1.20601e+07
1.19071e+07
1.1761e+07
1.16217e+07
1.14896e+07
1.13649e+07
1.12478e+07
1.4237e+07
1.40099e+07
1.37765e+07
1.35524e+07
1.33381e+07
1.31331e+07
1.29368e+07
1.27488e+07
1.25688e+07
1.23965e+07
1.22315e+07
1.20738e+07
1.19231e+07
1.17795e+07
1.1643e+07
1.15137e+07
1.13917e+07
1.12771e+07
1.42422e+07
1.4015e+07
1.37817e+07
1.3558e+07
1.33443e+07
1.31401e+07
1.29448e+07
1.27582e+07
1.25797e+07
1.24091e+07
1.22461e+07
1.20907e+07
1.19425e+07
1.18016e+07
1.1668e+07
1.15415e+07
1.14222e+07
1.131e+07
1.42488e+07
1.40215e+07
1.37885e+07
1.35653e+07
1.33524e+07
1.31492e+07
1.29552e+07
1.277e+07
1.25933e+07
1.24247e+07
1.2264e+07
1.2111e+07
1.19656e+07
1.18275e+07
1.16966e+07
1.1573e+07
1.14563e+07
1.13464e+07
1.4257e+07
1.40298e+07
1.37971e+07
1.35746e+07
1.33626e+07
1.31606e+07
1.29681e+07
1.27847e+07
1.261e+07
1.24436e+07
1.22854e+07
1.2135e+07
1.19923e+07
1.18569e+07
1.17289e+07
1.16078e+07
1.14935e+07
1.13858e+07
1.42665e+07
1.40398e+07
1.38078e+07
1.35861e+07
1.33753e+07
1.31747e+07
1.29838e+07
1.28023e+07
1.26297e+07
1.24657e+07
1.231e+07
1.21622e+07
1.20222e+07
1.18895e+07
1.1764e+07
1.16453e+07
1.15332e+07
1.14274e+07
1.42782e+07
1.40519e+07
1.38205e+07
1.35997e+07
1.33901e+07
1.31911e+07
1.3002e+07
1.28225e+07
1.26521e+07
1.24904e+07
1.23371e+07
1.21918e+07
1.20541e+07
1.19239e+07
1.18006e+07
1.16841e+07
1.15739e+07
1.14698e+07
1.42892e+07
1.40626e+07
1.38315e+07
1.36114e+07
1.34028e+07
1.32049e+07
1.30172e+07
1.28391e+07
1.26703e+07
1.25103e+07
1.23586e+07
1.2215e+07
1.20791e+07
1.19504e+07
1.18286e+07
1.17135e+07
1.16046e+07
1.15016e+07
1.4296e+07
1.40698e+07
1.38391e+07
1.36195e+07
1.34115e+07
1.32144e+07
1.30276e+07
1.28504e+07
1.26826e+07
1.25236e+07
1.23731e+07
1.22305e+07
1.20955e+07
1.19678e+07
1.18469e+07
1.17326e+07
1.16244e+07
1.15221e+07
1.43016e+07
1.40751e+07
1.38446e+07
1.36255e+07
1.3418e+07
1.32214e+07
1.30352e+07
1.28588e+07
1.26916e+07
1.25334e+07
1.23835e+07
1.22416e+07
1.21074e+07
1.19803e+07
1.186e+07
1.17462e+07
1.16386e+07
1.15367e+07
1.43044e+07
1.40787e+07
1.38486e+07
1.36297e+07
1.34226e+07
1.32265e+07
1.30407e+07
1.28648e+07
1.26981e+07
1.25404e+07
1.2391e+07
1.22496e+07
1.21158e+07
1.19891e+07
1.18693e+07
1.17559e+07
1.16485e+07
1.15469e+07
1.43067e+07
1.40811e+07
1.38513e+07
1.36328e+07
1.34259e+07
1.32301e+07
1.30447e+07
1.2869e+07
1.27027e+07
1.25453e+07
1.23963e+07
1.22552e+07
1.21217e+07
1.19954e+07
1.18758e+07
1.17626e+07
1.16555e+07
1.15541e+07
1.43082e+07
1.40827e+07
1.38531e+07
1.36348e+07
1.34282e+07
1.32326e+07
1.30474e+07
1.2872e+07
1.27059e+07
1.25487e+07
1.23999e+07
1.22591e+07
1.21258e+07
1.19996e+07
1.18802e+07
1.17673e+07
1.16603e+07
1.1559e+07
1.43084e+07
1.40837e+07
1.38543e+07
1.36362e+07
1.34298e+07
1.32343e+07
1.30492e+07
1.2874e+07
1.2708e+07
1.2551e+07
1.24024e+07
1.22617e+07
1.21285e+07
1.20025e+07
1.18832e+07
1.17704e+07
1.16635e+07
1.15623e+07
1.43086e+07
1.40842e+07
1.38551e+07
1.36371e+07
1.34307e+07
1.32354e+07
1.30504e+07
1.28752e+07
1.27094e+07
1.25525e+07
1.24039e+07
1.22633e+07
1.21303e+07
1.20044e+07
1.18852e+07
1.17724e+07
1.16656e+07
1.15644e+07
1.43088e+07
1.40846e+07
1.38556e+07
1.36376e+07
1.34313e+07
1.3236e+07
1.30511e+07
1.2876e+07
1.27103e+07
1.25534e+07
1.24049e+07
1.22644e+07
1.21313e+07
1.20055e+07
1.18863e+07
1.17736e+07
1.16668e+07
1.15657e+07
1.4309e+07
1.40848e+07
1.38558e+07
1.36379e+07
1.34317e+07
1.32364e+07
1.30515e+07
1.28764e+07
1.27107e+07
1.25539e+07
1.24054e+07
1.22649e+07
1.21319e+07
1.20061e+07
1.1887e+07
1.17742e+07
1.16675e+07
1.15664e+07
1.43091e+07
1.40849e+07
1.38559e+07
1.3638e+07
1.34318e+07
1.32365e+07
1.30516e+07
1.28766e+07
1.27109e+07
1.25541e+07
1.24056e+07
1.22651e+07
1.21322e+07
1.20063e+07
1.18872e+07
1.17745e+07
1.16677e+07
1.15667e+07
9.24904e+06
9.24831e+06
9.24682e+06
9.24457e+06
9.24154e+06
9.23771e+06
9.23308e+06
9.22763e+06
9.22134e+06
9.21422e+06
9.20625e+06
9.19742e+06
9.18773e+06
9.17717e+06
9.16574e+06
9.15343e+06
9.14024e+06
9.12617e+06
9.11123e+06
9.0954e+06
9.0787e+06
9.06113e+06
9.04268e+06
9.02337e+06
9.0032e+06
8.98218e+06
8.96031e+06
8.93761e+06
8.91408e+06
8.88972e+06
8.86455e+06
8.83859e+06
8.81183e+06
8.78429e+06
8.75599e+06
8.72692e+06
8.69711e+06
8.66656e+06
8.6353e+06
8.60332e+06
8.57064e+06
8.53727e+06
8.50323e+06
8.46853e+06
8.43318e+06
8.39719e+06
8.36058e+06
8.32335e+06
8.28552e+06
8.24709e+06
8.20809e+06
8.16852e+06
8.1284e+06
8.08773e+06
8.04653e+06
8.0048e+06
7.96256e+06
7.91982e+06
7.87659e+06
7.83287e+06
7.78868e+06
7.74403e+06
7.69893e+06
7.65339e+06
7.60741e+06
7.561e+06
7.51418e+06
7.46695e+06
7.41931e+06
7.37129e+06
7.32289e+06
7.27411e+06
7.22496e+06
7.17545e+06
7.12558e+06
7.07538e+06
7.02483e+06
6.97395e+06
6.92275e+06
6.87123e+06
6.8194e+06
6.76726e+06
6.71483e+06
6.6621e+06
6.60909e+06
6.5558e+06
6.50223e+06
6.4484e+06
6.3943e+06
6.33995e+06
6.28535e+06
6.2305e+06
6.17541e+06
6.12009e+06
6.06454e+06
6.00877e+06
5.95278e+06
5.89657e+06
5.84016e+06
5.78355e+06
5.72674e+06
5.66974e+06
5.61255e+06
5.55518e+06
5.49764e+06
5.43992e+06
5.38204e+06
5.324e+06
5.26581e+06
5.20746e+06
5.14897e+06
5.09035e+06
5.03159e+06
4.9727e+06
4.91369e+06
4.85457e+06
4.79533e+06
4.73599e+06
4.67655e+06
4.61702e+06
4.55741e+06
4.49771e+06
4.43794e+06
4.3781e+06
4.3182e+06
4.25824e+06
4.19824e+06
4.13819e+06
4.07811e+06
4.018e+06
3.95787e+06
3.89773e+06
3.83759e+06
3.77744e+06
3.71731e+06
3.65719e+06
3.5971e+06
3.53704e+06
3.47703e+06
3.41706e+06
3.35716e+06
3.29732e+06
3.23757e+06
3.1779e+06
3.11832e+06
3.05886e+06
2.9995e+06
2.94028e+06
2.88119e+06
2.82225e+06
2.76346e+06
2.70485e+06
2.64641e+06
2.58816e+06
2.53012e+06
2.4723e+06
2.41469e+06
2.35733e+06
2.30023e+06
2.24339e+06
2.18682e+06
2.13056e+06
2.0746e+06
2.01896e+06
1.96366e+06
1.90872e+06
1.85415e+06
1.79997e+06
1.7462e+06
1.69286e+06
1.63997e+06
1.58756e+06
1.53566e+06
1.48429e+06
1.4335e+06
1.38334e+06
1.33388e+06
1.28521e+06
1.23751e+06
1.19116e+06
9.25238e+06
9.25164e+06
9.25015e+06
9.24788e+06
9.24483e+06
9.24098e+06
9.23632e+06
9.23083e+06
9.22452e+06
9.21735e+06
9.20934e+06
9.20046e+06
9.19072e+06
9.18011e+06
9.16862e+06
9.15625e+06
9.143e+06
9.12887e+06
9.11386e+06
9.09796e+06
9.08119e+06
9.06355e+06
9.04503e+06
9.02565e+06
9.00541e+06
8.98432e+06
8.96238e+06
8.9396e+06
8.916e+06
8.89157e+06
8.86634e+06
8.84031e+06
8.81348e+06
8.78588e+06
8.75751e+06
8.72838e+06
8.69851e+06
8.6679e+06
8.63657e+06
8.60454e+06
8.57181e+06
8.53839e+06
8.5043e+06
8.46955e+06
8.43415e+06
8.39811e+06
8.36145e+06
8.32418e+06
8.28631e+06
8.24785e+06
8.20881e+06
8.1692e+06
8.12904e+06
8.08834e+06
8.0471e+06
8.00535e+06
7.96308e+06
7.92031e+06
7.87705e+06
7.83331e+06
7.7891e+06
7.74443e+06
7.6993e+06
7.65373e+06
7.60773e+06
7.56131e+06
7.51447e+06
7.46722e+06
7.41957e+06
7.37154e+06
7.32312e+06
7.27432e+06
7.22516e+06
7.17564e+06
7.12576e+06
7.07554e+06
7.02499e+06
6.9741e+06
6.92289e+06
6.87136e+06
6.81952e+06
6.76737e+06
6.71493e+06
6.6622e+06
6.60918e+06
6.55588e+06
6.50231e+06
6.44847e+06
6.39437e+06
6.34001e+06
6.28541e+06
6.23055e+06
6.17546e+06
6.12014e+06
6.06458e+06
6.00881e+06
5.95281e+06
5.89661e+06
5.84019e+06
5.78358e+06
5.72677e+06
5.66976e+06
5.61257e+06
5.5552e+06
5.49766e+06
5.43994e+06
5.38206e+06
5.32402e+06
5.26582e+06
5.20747e+06
5.14898e+06
5.09036e+06
5.0316e+06
4.97271e+06
4.9137e+06
4.85457e+06
4.79534e+06
4.736e+06
4.67656e+06
4.61703e+06
4.55741e+06
4.49771e+06
4.43794e+06
4.3781e+06
4.3182e+06
4.25824e+06
4.19824e+06
4.13819e+06
4.07811e+06
4.018e+06
3.95788e+06
3.89773e+06
3.83759e+06
3.77744e+06
3.71731e+06
3.65719e+06
3.5971e+06
3.53704e+06
3.47703e+06
3.41706e+06
3.35716e+06
3.29732e+06
3.23757e+06
3.1779e+06
3.11832e+06
3.05886e+06
2.9995e+06
2.94028e+06
2.88119e+06
2.82225e+06
2.76346e+06
2.70485e+06
2.64641e+06
2.58816e+06
2.53012e+06
2.4723e+06
2.41469e+06
2.35733e+06
2.30023e+06
2.24339e+06
2.18682e+06
2.13056e+06
2.0746e+06
2.01896e+06
1.96366e+06
1.90872e+06
1.85415e+06
1.79997e+06
1.74619e+06
1.69285e+06
1.63996e+06
1.58755e+06
1.53564e+06
1.48427e+06
1.43347e+06
1.3833e+06
1.33382e+06
1.28512e+06
1.23735e+06
1.19078e+06
9.25909e+06
9.25834e+06
9.25682e+06
9.25452e+06
9.25143e+06
9.24753e+06
9.24282e+06
9.23727e+06
9.23087e+06
9.22363e+06
9.21553e+06
9.20656e+06
9.19671e+06
9.18599e+06
9.17438e+06
9.1619e+06
9.14852e+06
9.13426e+06
9.11912e+06
9.10309e+06
9.08618e+06
9.06839e+06
9.04974e+06
9.03021e+06
9.00983e+06
8.98859e+06
8.96651e+06
8.94359e+06
8.91985e+06
8.89528e+06
8.86991e+06
8.84374e+06
8.81678e+06
8.78904e+06
8.76054e+06
8.73129e+06
8.7013e+06
8.67057e+06
8.63913e+06
8.60698e+06
8.57414e+06
8.54061e+06
8.50642e+06
8.47157e+06
8.43608e+06
8.39995e+06
8.3632e+06
8.32584e+06
8.28789e+06
8.24935e+06
8.21023e+06
8.17055e+06
8.13032e+06
8.08956e+06
8.04826e+06
8.00644e+06
7.96411e+06
7.92129e+06
7.87797e+06
7.83418e+06
7.78992e+06
7.74521e+06
7.70004e+06
7.65443e+06
7.60839e+06
7.56193e+06
7.51505e+06
7.46777e+06
7.42009e+06
7.37202e+06
7.32357e+06
7.27475e+06
7.22556e+06
7.17601e+06
7.12612e+06
7.07588e+06
7.0253e+06
6.97439e+06
6.92316e+06
6.87161e+06
6.81976e+06
6.7676e+06
6.71514e+06
6.6624e+06
6.60936e+06
6.55605e+06
6.50247e+06
6.44862e+06
6.39451e+06
6.34014e+06
6.28553e+06
6.23067e+06
6.17557e+06
6.12023e+06
6.06467e+06
6.00889e+06
5.95289e+06
5.89668e+06
5.84026e+06
5.78364e+06
5.72682e+06
5.66981e+06
5.61262e+06
5.55525e+06
5.4977e+06
5.43998e+06
5.38209e+06
5.32405e+06
5.26585e+06
5.2075e+06
5.14901e+06
5.09038e+06
5.03162e+06
4.97273e+06
4.91372e+06
4.85459e+06
4.79535e+06
4.73601e+06
4.67657e+06
4.61704e+06
4.55742e+06
4.49772e+06
4.43795e+06
4.37811e+06
4.31821e+06
4.25825e+06
4.19825e+06
4.1382e+06
4.07812e+06
4.01801e+06
3.95788e+06
3.89774e+06
3.83759e+06
3.77745e+06
3.71731e+06
3.65719e+06
3.5971e+06
3.53704e+06
3.47703e+06
3.41706e+06
3.35716e+06
3.29733e+06
3.23757e+06
3.1779e+06
3.11832e+06
3.05886e+06
2.99951e+06
2.94028e+06
2.88119e+06
2.82225e+06
2.76346e+06
2.70485e+06
2.64641e+06
2.58817e+06
2.53012e+06
2.47229e+06
2.41469e+06
2.35733e+06
2.30023e+06
2.24338e+06
2.18682e+06
2.13055e+06
2.07459e+06
2.01896e+06
1.96366e+06
1.90871e+06
1.85414e+06
1.79996e+06
1.74618e+06
1.69284e+06
1.63994e+06
1.58753e+06
1.53561e+06
1.48423e+06
1.43342e+06
1.38322e+06
1.33371e+06
1.28495e+06
1.23706e+06
1.19019e+06
9.26921e+06
9.26843e+06
9.26688e+06
9.26453e+06
9.26138e+06
9.25741e+06
9.2526e+06
9.24696e+06
9.24045e+06
9.23308e+06
9.22484e+06
9.21573e+06
9.20573e+06
9.19484e+06
9.18306e+06
9.17039e+06
9.15682e+06
9.14237e+06
9.12702e+06
9.11079e+06
9.09367e+06
9.07567e+06
9.0568e+06
9.03705e+06
9.01645e+06
8.995e+06
8.9727e+06
8.94957e+06
8.92561e+06
8.90083e+06
8.87525e+06
8.84888e+06
8.82172e+06
8.79378e+06
8.76509e+06
8.73565e+06
8.70547e+06
8.67457e+06
8.64295e+06
8.61063e+06
8.57762e+06
8.54394e+06
8.5096e+06
8.4746e+06
8.43896e+06
8.40269e+06
8.36581e+06
8.32832e+06
8.29025e+06
8.25159e+06
8.21236e+06
8.17257e+06
8.13224e+06
8.09137e+06
8.04998e+06
8.00807e+06
7.96566e+06
7.92275e+06
7.87936e+06
7.83549e+06
7.79116e+06
7.74637e+06
7.70114e+06
7.65547e+06
7.60937e+06
7.56285e+06
7.51592e+06
7.46859e+06
7.42086e+06
7.37275e+06
7.32425e+06
7.27539e+06
7.22616e+06
7.17658e+06
7.12665e+06
7.07637e+06
7.02577e+06
6.97483e+06
6.92357e+06
6.872e+06
6.82012e+06
6.76794e+06
6.71546e+06
6.66269e+06
6.60964e+06
6.55631e+06
6.50271e+06
6.44884e+06
6.39472e+06
6.34034e+06
6.28571e+06
6.23083e+06
6.17572e+06
6.12038e+06
6.06481e+06
6.00902e+06
5.95301e+06
5.89679e+06
5.84036e+06
5.78373e+06
5.72691e+06
5.66989e+06
5.61269e+06
5.55531e+06
5.49776e+06
5.44003e+06
5.38214e+06
5.3241e+06
5.26589e+06
5.20754e+06
5.14905e+06
5.09041e+06
5.03165e+06
4.97276e+06
4.91374e+06
4.85461e+06
4.79537e+06
4.73603e+06
4.67659e+06
4.61706e+06
4.55744e+06
4.49774e+06
4.43796e+06
4.37812e+06
4.31822e+06
4.25826e+06
4.19825e+06
4.13821e+06
4.07812e+06
4.01801e+06
3.95789e+06
3.89774e+06
3.83759e+06
3.77745e+06
3.71731e+06
3.6572e+06
3.5971e+06
3.53705e+06
3.47703e+06
3.41707e+06
3.35716e+06
3.29733e+06
3.23757e+06
3.1779e+06
3.11833e+06
3.05886e+06
2.99951e+06
2.94028e+06
2.88119e+06
2.82225e+06
2.76346e+06
2.70485e+06
2.64641e+06
2.58817e+06
2.53012e+06
2.47229e+06
2.41469e+06
2.35733e+06
2.30022e+06
2.24338e+06
2.18682e+06
2.13055e+06
2.07459e+06
2.01895e+06
1.96365e+06
1.9087e+06
1.85413e+06
1.79994e+06
1.74617e+06
1.69282e+06
1.63992e+06
1.58749e+06
1.53556e+06
1.48417e+06
1.43333e+06
1.38311e+06
1.33355e+06
1.28471e+06
1.23667e+06
1.1895e+06
9.28279e+06
9.28199e+06
9.28038e+06
9.27797e+06
9.27474e+06
9.27066e+06
9.26574e+06
9.25995e+06
9.2533e+06
9.24576e+06
9.23733e+06
9.22802e+06
9.2178e+06
9.20669e+06
9.19467e+06
9.18175e+06
9.16793e+06
9.1532e+06
9.13758e+06
9.12107e+06
9.10366e+06
9.08538e+06
9.06621e+06
9.04618e+06
9.02529e+06
9.00354e+06
8.98095e+06
8.95753e+06
8.93328e+06
8.90822e+06
8.88236e+06
8.85571e+06
8.82828e+06
8.80009e+06
8.77113e+06
8.74144e+06
8.71102e+06
8.67987e+06
8.64802e+06
8.61548e+06
8.58225e+06
8.54836e+06
8.51381e+06
8.47861e+06
8.44278e+06
8.40633e+06
8.36928e+06
8.33162e+06
8.29338e+06
8.25456e+06
8.21518e+06
8.17525e+06
8.13478e+06
8.09378e+06
8.05226e+06
8.01023e+06
7.9677e+06
7.92469e+06
7.88119e+06
7.83722e+06
7.79279e+06
7.74792e+06
7.7026e+06
7.65684e+06
7.61067e+06
7.56407e+06
7.51707e+06
7.46967e+06
7.42188e+06
7.37371e+06
7.32516e+06
7.27624e+06
7.22696e+06
7.17733e+06
7.12735e+06
7.07704e+06
7.02639e+06
6.97541e+06
6.92412e+06
6.87251e+06
6.82059e+06
6.76838e+06
6.71587e+06
6.66308e+06
6.61e+06
6.55665e+06
6.50303e+06
6.44914e+06
6.39499e+06
6.34059e+06
6.28595e+06
6.23106e+06
6.17593e+06
6.12057e+06
6.06499e+06
6.00918e+06
5.95316e+06
5.89693e+06
5.84049e+06
5.78385e+06
5.72702e+06
5.67e+06
5.61279e+06
5.5554e+06
5.49784e+06
5.44011e+06
5.38221e+06
5.32416e+06
5.26595e+06
5.20759e+06
5.1491e+06
5.09046e+06
5.03169e+06
4.97279e+06
4.91378e+06
4.85464e+06
4.7954e+06
4.73606e+06
4.67661e+06
4.61708e+06
4.55746e+06
4.49775e+06
4.43798e+06
4.37814e+06
4.31823e+06
4.25827e+06
4.19826e+06
4.13822e+06
4.07813e+06
4.01802e+06
3.95789e+06
3.89775e+06
3.8376e+06
3.77745e+06
3.71732e+06
3.6572e+06
3.59711e+06
3.53705e+06
3.47703e+06
3.41707e+06
3.35717e+06
3.29733e+06
3.23757e+06
3.1779e+06
3.11833e+06
3.05886e+06
2.99951e+06
2.94028e+06
2.88119e+06
2.82225e+06
2.76347e+06
2.70485e+06
2.64641e+06
2.58817e+06
2.53012e+06
2.47229e+06
2.41469e+06
2.35733e+06
2.30022e+06
2.24338e+06
2.18682e+06
2.13055e+06
2.07458e+06
2.01894e+06
1.96364e+06
1.90869e+06
1.85412e+06
1.79993e+06
1.74615e+06
1.69279e+06
1.63988e+06
1.58744e+06
1.5355e+06
1.48409e+06
1.43323e+06
1.38297e+06
1.33335e+06
1.28442e+06
1.23622e+06
1.18878e+06
9.29993e+06
9.29908e+06
9.29742e+06
9.29493e+06
9.29158e+06
9.28738e+06
9.2823e+06
9.27633e+06
9.26948e+06
9.26172e+06
9.25305e+06
9.24348e+06
9.23299e+06
9.22158e+06
9.20925e+06
9.19601e+06
9.18186e+06
9.16679e+06
9.15082e+06
9.13395e+06
9.11618e+06
9.09753e+06
9.078e+06
9.05759e+06
9.03633e+06
9.01421e+06
8.99125e+06
8.96746e+06
8.94285e+06
8.91744e+06
8.89123e+06
8.86423e+06
8.83646e+06
8.80793e+06
8.77866e+06
8.74865e+06
8.71792e+06
8.68647e+06
8.65433e+06
8.62151e+06
8.58801e+06
8.55385e+06
8.51905e+06
8.4836e+06
8.44754e+06
8.41086e+06
8.37358e+06
8.33571e+06
8.29727e+06
8.25826e+06
8.21869e+06
8.17858e+06
8.13794e+06
8.09677e+06
8.0551e+06
8.01292e+06
7.97024e+06
7.92709e+06
7.88346e+06
7.83937e+06
7.79483e+06
7.74983e+06
7.70441e+06
7.65855e+06
7.61228e+06
7.56559e+06
7.5185e+06
7.47102e+06
7.42315e+06
7.3749e+06
7.32628e+06
7.2773e+06
7.22795e+06
7.17826e+06
7.12823e+06
7.07786e+06
7.02715e+06
6.97613e+06
6.92479e+06
6.87314e+06
6.82119e+06
6.76893e+06
6.71639e+06
6.66356e+06
6.61045e+06
6.55707e+06
6.50342e+06
6.4495e+06
6.39533e+06
6.34091e+06
6.28624e+06
6.23133e+06
6.17618e+06
6.12081e+06
6.06521e+06
6.00939e+06
5.95335e+06
5.8971e+06
5.84065e+06
5.784e+06
5.72716e+06
5.67013e+06
5.61291e+06
5.55551e+06
5.49794e+06
5.4402e+06
5.3823e+06
5.32424e+06
5.26602e+06
5.20766e+06
5.14916e+06
5.09051e+06
5.03174e+06
4.97284e+06
4.91382e+06
4.85468e+06
4.79544e+06
4.73609e+06
4.67664e+06
4.6171e+06
4.55748e+06
4.49778e+06
4.438e+06
4.37815e+06
4.31825e+06
4.25829e+06
4.19828e+06
4.13823e+06
4.07814e+06
4.01803e+06
3.9579e+06
3.89776e+06
3.83761e+06
3.77746e+06
3.71732e+06
3.6572e+06
3.59711e+06
3.53705e+06
3.47704e+06
3.41707e+06
3.35717e+06
3.29733e+06
3.23758e+06
3.1779e+06
3.11833e+06
3.05886e+06
2.99951e+06
2.94028e+06
2.88119e+06
2.82225e+06
2.76347e+06
2.70485e+06
2.64641e+06
2.58817e+06
2.53012e+06
2.47229e+06
2.41469e+06
2.35733e+06
2.30022e+06
2.24338e+06
2.18681e+06
2.13054e+06
2.07458e+06
2.01894e+06
1.96363e+06
1.90868e+06
1.8541e+06
1.79991e+06
1.74612e+06
1.69276e+06
1.63984e+06
1.58739e+06
1.53543e+06
1.48399e+06
1.4331e+06
1.3828e+06
1.33311e+06
1.28408e+06
1.23573e+06
1.18805e+06
9.32073e+06
9.31984e+06
9.3181e+06
9.3155e+06
9.31202e+06
9.30764e+06
9.30237e+06
9.29618e+06
9.28907e+06
9.28104e+06
9.27207e+06
9.26217e+06
9.25134e+06
9.23957e+06
9.22686e+06
9.21322e+06
9.19866e+06
9.18317e+06
9.16677e+06
9.14945e+06
9.13124e+06
9.11213e+06
9.09215e+06
9.07129e+06
9.04957e+06
9.027e+06
9.00359e+06
8.97936e+06
8.95431e+06
8.92846e+06
8.90183e+06
8.87441e+06
8.84624e+06
8.81731e+06
8.78764e+06
8.75725e+06
8.72615e+06
8.69435e+06
8.66186e+06
8.6287e+06
8.59487e+06
8.5604e+06
8.52529e+06
8.48955e+06
8.4532e+06
8.41625e+06
8.37871e+06
8.34059e+06
8.3019e+06
8.26266e+06
8.22287e+06
8.18254e+06
8.1417e+06
8.10034e+06
8.05847e+06
8.01611e+06
7.97327e+06
7.92995e+06
7.88617e+06
7.84193e+06
7.79724e+06
7.75212e+06
7.70656e+06
7.66059e+06
7.6142e+06
7.5674e+06
7.52021e+06
7.47263e+06
7.42466e+06
7.37632e+06
7.32762e+06
7.27855e+06
7.22913e+06
7.17937e+06
7.12927e+06
7.07883e+06
7.02807e+06
6.97699e+06
6.92559e+06
6.87389e+06
6.82189e+06
6.76959e+06
6.71701e+06
6.66414e+06
6.61099e+06
6.55757e+06
6.50389e+06
6.44994e+06
6.39574e+06
6.34129e+06
6.28659e+06
6.23166e+06
6.17649e+06
6.12109e+06
6.06547e+06
6.00963e+06
5.95357e+06
5.89731e+06
5.84085e+06
5.78418e+06
5.72732e+06
5.67028e+06
5.61305e+06
5.55564e+06
5.49806e+06
5.44031e+06
5.3824e+06
5.32433e+06
5.26611e+06
5.20774e+06
5.14923e+06
5.09058e+06
5.0318e+06
4.9729e+06
4.91387e+06
4.85473e+06
4.79548e+06
4.73613e+06
4.67668e+06
4.61714e+06
4.55751e+06
4.4978e+06
4.43802e+06
4.37818e+06
4.31827e+06
4.2583e+06
4.19829e+06
4.13824e+06
4.07816e+06
4.01804e+06
3.95791e+06
3.89777e+06
3.83762e+06
3.77747e+06
3.71733e+06
3.65721e+06
3.59712e+06
3.53706e+06
3.47704e+06
3.41708e+06
3.35717e+06
3.29734e+06
3.23758e+06
3.17791e+06
3.11833e+06
3.05886e+06
2.99951e+06
2.94029e+06
2.8812e+06
2.82225e+06
2.76347e+06
2.70485e+06
2.64641e+06
2.58817e+06
2.53012e+06
2.47229e+06
2.41469e+06
2.35733e+06
2.30022e+06
2.24338e+06
2.18681e+06
2.13054e+06
2.07457e+06
2.01893e+06
1.96362e+06
1.90867e+06
1.85408e+06
1.79988e+06
1.74609e+06
1.69272e+06
1.63979e+06
1.58732e+06
1.53535e+06
1.48389e+06
1.43296e+06
1.38261e+06
1.33285e+06
1.28372e+06
1.23522e+06
1.18733e+06
9.34534e+06
9.34439e+06
9.34256e+06
9.33982e+06
9.33617e+06
9.33159e+06
9.32608e+06
9.31961e+06
9.3122e+06
9.30382e+06
9.29449e+06
9.28419e+06
9.27294e+06
9.26072e+06
9.24755e+06
9.23343e+06
9.21836e+06
9.20236e+06
9.18544e+06
9.16759e+06
9.14884e+06
9.1292e+06
9.10867e+06
9.08727e+06
9.06501e+06
9.0419e+06
9.01796e+06
8.9932e+06
8.96764e+06
8.94128e+06
8.91414e+06
8.88623e+06
8.85758e+06
8.82818e+06
8.79806e+06
8.76723e+06
8.7357e+06
8.70347e+06
8.67058e+06
8.63702e+06
8.60282e+06
8.56798e+06
8.53251e+06
8.49643e+06
8.45975e+06
8.42248e+06
8.38463e+06
8.34622e+06
8.30725e+06
8.26774e+06
8.22769e+06
8.18712e+06
8.14604e+06
8.10445e+06
8.06237e+06
8.0198e+06
7.97676e+06
7.93326e+06
7.88929e+06
7.84488e+06
7.80003e+06
7.75475e+06
7.70905e+06
7.66293e+06
7.61641e+06
7.56949e+06
7.52218e+06
7.47448e+06
7.42641e+06
7.37797e+06
7.32916e+06
7.28e+06
7.2305e+06
7.18065e+06
7.13047e+06
7.07996e+06
7.02913e+06
6.97798e+06
6.92652e+06
6.87476e+06
6.8227e+06
6.77035e+06
6.71772e+06
6.6648e+06
6.61161e+06
6.55815e+06
6.50443e+06
6.45045e+06
6.39621e+06
6.34173e+06
6.287e+06
6.23204e+06
6.17684e+06
6.12142e+06
6.06577e+06
6.00991e+06
5.95384e+06
5.89755e+06
5.84107e+06
5.78439e+06
5.72752e+06
5.67046e+06
5.61321e+06
5.55579e+06
5.4982e+06
5.44044e+06
5.38252e+06
5.32444e+06
5.26621e+06
5.20783e+06
5.14931e+06
5.09066e+06
5.03187e+06
4.97296e+06
4.91393e+06
4.85478e+06
4.79553e+06
4.73617e+06
4.67672e+06
4.61717e+06
4.55754e+06
4.49783e+06
4.43805e+06
4.3782e+06
4.31829e+06
4.25832e+06
4.19831e+06
4.13826e+06
4.07817e+06
4.01806e+06
3.95792e+06
3.89778e+06
3.83763e+06
3.77748e+06
3.71734e+06
3.65722e+06
3.59712e+06
3.53706e+06
3.47705e+06
3.41708e+06
3.35718e+06
3.29734e+06
3.23758e+06
3.17791e+06
3.11834e+06
3.05887e+06
2.99952e+06
2.94029e+06
2.8812e+06
2.82226e+06
2.76347e+06
2.70485e+06
2.64641e+06
2.58817e+06
2.53012e+06
2.47229e+06
2.41469e+06
2.35733e+06
2.30022e+06
2.24337e+06
2.18681e+06
2.13053e+06
2.07456e+06
2.01892e+06
1.96361e+06
1.90865e+06
1.85406e+06
1.79986e+06
1.74605e+06
1.69267e+06
1.63973e+06
1.58725e+06
1.53526e+06
1.48377e+06
1.4328e+06
1.3824e+06
1.33257e+06
1.28334e+06
1.23471e+06
1.18663e+06
9.37393e+06
9.37291e+06
9.37096e+06
9.36807e+06
9.36421e+06
9.35938e+06
9.35357e+06
9.34677e+06
9.33898e+06
9.33019e+06
9.32041e+06
9.30963e+06
9.29786e+06
9.28511e+06
9.27138e+06
9.25668e+06
9.24102e+06
9.22441e+06
9.20686e+06
9.18839e+06
9.16901e+06
9.14872e+06
9.12756e+06
9.10552e+06
9.08263e+06
9.0589e+06
9.03434e+06
9.00897e+06
8.9828e+06
8.95585e+06
8.92814e+06
8.89967e+06
8.87046e+06
8.84053e+06
8.80988e+06
8.77854e+06
8.74651e+06
8.71381e+06
8.68046e+06
8.64645e+06
8.61181e+06
8.57655e+06
8.54068e+06
8.50421e+06
8.46715e+06
8.42953e+06
8.39133e+06
8.35259e+06
8.3133e+06
8.27348e+06
8.23314e+06
8.19229e+06
8.15094e+06
8.1091e+06
8.06677e+06
8.02397e+06
7.98071e+06
7.93699e+06
7.89283e+06
7.84822e+06
7.80319e+06
7.75773e+06
7.71186e+06
7.66559e+06
7.61891e+06
7.57185e+06
7.5244e+06
7.47657e+06
7.42838e+06
7.37982e+06
7.33091e+06
7.28164e+06
7.23204e+06
7.1821e+06
7.13183e+06
7.08123e+06
7.03032e+06
6.9791e+06
6.92757e+06
6.87574e+06
6.82362e+06
6.77121e+06
6.71852e+06
6.66555e+06
6.61231e+06
6.55881e+06
6.50504e+06
6.45101e+06
6.39674e+06
6.34222e+06
6.28746e+06
6.23246e+06
6.17724e+06
6.12179e+06
6.06612e+06
6.01023e+06
5.95413e+06
5.89783e+06
5.84132e+06
5.78462e+06
5.72773e+06
5.67066e+06
5.6134e+06
5.55596e+06
5.49836e+06
5.44058e+06
5.38265e+06
5.32456e+06
5.26632e+06
5.20793e+06
5.14941e+06
5.09074e+06
5.03195e+06
4.97303e+06
4.914e+06
4.85484e+06
4.79559e+06
4.73622e+06
4.67677e+06
4.61722e+06
4.55758e+06
4.49787e+06
4.43808e+06
4.37823e+06
4.31832e+06
4.25835e+06
4.19833e+06
4.13828e+06
4.07819e+06
4.01807e+06
3.95794e+06
3.89779e+06
3.83764e+06
3.77749e+06
3.71735e+06
3.65723e+06
3.59713e+06
3.53707e+06
3.47705e+06
3.41709e+06
3.35718e+06
3.29735e+06
3.23759e+06
3.17792e+06
3.11834e+06
3.05887e+06
2.99952e+06
2.94029e+06
2.8812e+06
2.82226e+06
2.76347e+06
2.70485e+06
2.64641e+06
2.58817e+06
2.53012e+06
2.47229e+06
2.41469e+06
2.35733e+06
2.30021e+06
2.24337e+06
2.1868e+06
2.13052e+06
2.07456e+06
2.01891e+06
1.96359e+06
1.90863e+06
1.85404e+06
1.79983e+06
1.74602e+06
1.69263e+06
1.63967e+06
1.58718e+06
1.53516e+06
1.48364e+06
1.43264e+06
1.38218e+06
1.33228e+06
1.28295e+06
1.23419e+06
1.18596e+06
9.40673e+06
9.40562e+06
9.40353e+06
9.40043e+06
9.39632e+06
9.39119e+06
9.38502e+06
9.37781e+06
9.36956e+06
9.36027e+06
9.34995e+06
9.3386e+06
9.32622e+06
9.31282e+06
9.29843e+06
9.28304e+06
9.26668e+06
9.24935e+06
9.23107e+06
9.21186e+06
9.19174e+06
9.17072e+06
9.14881e+06
9.12604e+06
9.10242e+06
9.07796e+06
9.0527e+06
9.02663e+06
8.99977e+06
8.97215e+06
8.94378e+06
8.91467e+06
8.88484e+06
8.8543e+06
8.82306e+06
8.79115e+06
8.75857e+06
8.72533e+06
8.69145e+06
8.65694e+06
8.62182e+06
8.58609e+06
8.54977e+06
8.51286e+06
8.47539e+06
8.43736e+06
8.39878e+06
8.35966e+06
8.32002e+06
8.27986e+06
8.2392e+06
8.19804e+06
8.15639e+06
8.11426e+06
8.07166e+06
8.0286e+06
7.98509e+06
7.94114e+06
7.89675e+06
7.85193e+06
7.80669e+06
7.76104e+06
7.71498e+06
7.66853e+06
7.62169e+06
7.57447e+06
7.52686e+06
7.4789e+06
7.43056e+06
7.38188e+06
7.33284e+06
7.28346e+06
7.23375e+06
7.1837e+06
7.13333e+06
7.08265e+06
7.03165e+06
6.98034e+06
6.92874e+06
6.87684e+06
6.82464e+06
6.77217e+06
6.71942e+06
6.66639e+06
6.61309e+06
6.55953e+06
6.50572e+06
6.45165e+06
6.39733e+06
6.34277e+06
6.28797e+06
6.23294e+06
6.17768e+06
6.1222e+06
6.0665e+06
6.01058e+06
5.95446e+06
5.89813e+06
5.8416e+06
5.78488e+06
5.72797e+06
5.67088e+06
5.6136e+06
5.55615e+06
5.49853e+06
5.44074e+06
5.3828e+06
5.3247e+06
5.26644e+06
5.20805e+06
5.14951e+06
5.09084e+06
5.03204e+06
4.97311e+06
4.91407e+06
4.85491e+06
4.79565e+06
4.73628e+06
4.67682e+06
4.61726e+06
4.55762e+06
4.49791e+06
4.43812e+06
4.37826e+06
4.31834e+06
4.25837e+06
4.19836e+06
4.1383e+06
4.07821e+06
4.01809e+06
3.95795e+06
3.8978e+06
3.83765e+06
3.7775e+06
3.71736e+06
3.65724e+06
3.59714e+06
3.53708e+06
3.47706e+06
3.41709e+06
3.35719e+06
3.29735e+06
3.23759e+06
3.17792e+06
3.11834e+06
3.05887e+06
2.99952e+06
2.94029e+06
2.8812e+06
2.82226e+06
2.76347e+06
2.70485e+06
2.64642e+06
2.58817e+06
2.53012e+06
2.47229e+06
2.41469e+06
2.35732e+06
2.30021e+06
2.24336e+06
2.1868e+06
2.13052e+06
2.07455e+06
2.01889e+06
1.96358e+06
1.90861e+06
1.85401e+06
1.7998e+06
1.74598e+06
1.69258e+06
1.63961e+06
1.58709e+06
1.53505e+06
1.4835e+06
1.43246e+06
1.38195e+06
1.33198e+06
1.28256e+06
1.23369e+06
1.18532e+06
9.44399e+06
9.44278e+06
9.44052e+06
9.43718e+06
9.43276e+06
9.42725e+06
9.42064e+06
9.41294e+06
9.40414e+06
9.39425e+06
9.38327e+06
9.37122e+06
9.35811e+06
9.34396e+06
9.32877e+06
9.31258e+06
9.29538e+06
9.27721e+06
9.25809e+06
9.23802e+06
9.21704e+06
9.19517e+06
9.17241e+06
9.1488e+06
9.12435e+06
9.09907e+06
9.073e+06
9.04614e+06
9.01852e+06
8.99014e+06
8.96103e+06
8.9312e+06
8.90067e+06
8.86946e+06
8.83756e+06
8.80501e+06
8.77182e+06
8.73798e+06
8.70353e+06
8.66847e+06
8.6328e+06
8.59656e+06
8.55973e+06
8.52235e+06
8.48441e+06
8.44594e+06
8.40693e+06
8.36741e+06
8.32738e+06
8.28685e+06
8.24582e+06
8.20432e+06
8.16235e+06
8.11991e+06
8.07701e+06
8.03367e+06
7.98989e+06
7.94567e+06
7.90104e+06
7.85598e+06
7.81052e+06
7.76466e+06
7.7184e+06
7.67175e+06
7.62473e+06
7.57733e+06
7.52957e+06
7.48144e+06
7.43296e+06
7.38413e+06
7.33496e+06
7.28546e+06
7.23562e+06
7.18546e+06
7.13499e+06
7.0842e+06
7.0331e+06
6.9817e+06
6.93001e+06
6.87803e+06
6.82576e+06
6.77321e+06
6.72039e+06
6.6673e+06
6.61395e+06
6.56033e+06
6.50646e+06
6.45234e+06
6.39798e+06
6.34337e+06
6.28853e+06
6.23346e+06
6.17816e+06
6.12265e+06
6.06691e+06
6.01097e+06
5.95482e+06
5.89846e+06
5.84191e+06
5.78517e+06
5.72824e+06
5.67112e+06
5.61383e+06
5.55636e+06
5.49872e+06
5.44092e+06
5.38296e+06
5.32484e+06
5.26658e+06
5.20817e+06
5.14963e+06
5.09094e+06
5.03213e+06
4.9732e+06
4.91415e+06
4.85499e+06
4.79571e+06
4.73634e+06
4.67687e+06
4.61731e+06
4.55767e+06
4.49795e+06
4.43816e+06