/*--------------------------------*- C++ -*----------------------------------*\
  =========                 |
  \\      /  F ield         | OpenFOAM: The Open Source CFD Toolbox
   \\    /   O peration     | Website:  https://openfoam.org
    \\  /    A nd           | Version:  7
     \\/     M anipulation  |
\*---------------------------------------------------------------------------*/
FoamFile
{
    version     2.0;
    format      ascii;
    class       volVectorField;
    location    "0.025";
    object      U;
}
// * * * * * * * * * * * * * * * * * * * * * * * * * * * * * * * * * * * * * //

dimensions      [0 1 -1 0 0 0 0];

internalField   nonuniform List<vector> 
12225
(
(4.8234 0.125442 0)
(4.28355 0.110505 0)
(3.78892 0.112153 0)
(3.35841 0.0924497 0)
(2.97219 0.0718888 0)
(2.63063 0.0582039 0)
(2.32814 0.0499522 0)
(2.05814 0.0441715 0)
(1.81418 0.0389845 0)
(1.5976 0.0324562 0)
(1.40912 0.0244321 0)
(1.25475 0.015918 0)
(1.12872 0.0082903 0)
(1.03699 0.00326818 0)
(0.957217 0.00190852 0)
(0.902527 0.000932424 0)
(0.838178 0.00472571 0)
(0.777101 0.00213832 0)
(5.12461 0.129407 0)
(4.9575 0.0680106 0)
(4.82188 0.0971387 0)
(4.69626 0.105695 0)
(4.56355 0.104523 0)
(4.42907 0.101337 0)
(4.29853 0.0973721 0)
(4.17071 0.0929493 0)
(4.03788 0.088911 0)
(3.90173 0.0850544 0)
(3.76741 0.0797428 0)
(3.64744 0.0722268 0)
(3.53741 0.0634881 0)
(3.44484 0.0545507 0)
(3.35247 0.0486577 0)
(3.27254 0.0442014 0)
(3.18421 0.0468475 0)
(3.09511 0.0455883 0)
(5.00211 0.179183 0)
(4.93706 0.123571 0)
(4.8576 0.157518 0)
(4.79785 0.156684 0)
(4.73359 0.140783 0)
(4.67697 0.126431 0)
(4.64214 0.118457 0)
(4.62357 0.116276 0)
(4.60696 0.117537 0)
(4.58393 0.118087 0)
(4.5537 0.112681 0)
(4.51954 0.100891 0)
(4.48374 0.0865556 0)
(4.44644 0.0746278 0)
(4.40974 0.0684355 0)
(4.3689 0.0665804 0)
(4.33258 0.0711726 0)
(4.28411 0.0770841 0)
(5.01611 0.202552 0)
(4.92941 0.104454 0)
(4.8475 0.136637 0)
(4.80582 0.154405 0)
(4.77597 0.149216 0)
(4.75256 0.133394 0)
(4.73837 0.117286 0)
(4.73381 0.106483 0)
(4.73861 0.102706 0)
(4.74907 0.102321 0)
(4.75826 0.100117 0)
(4.75755 0.0941475 0)
(4.74433 0.0866396 0)
(4.71927 0.0800894 0)
(4.69116 0.077097 0)
(4.66239 0.0772719 0)
(4.64207 0.0819852 0)
(4.6231 0.0885055 0)
(4.96597 0.168135 0)
(4.88722 0.135961 0)
(4.83532 0.162646 0)
(4.81962 0.16957 0)
(4.79443 0.154492 0)
(4.75878 0.134234 0)
(4.73044 0.119337 0)
(4.71714 0.111016 0)
(4.71816 0.107848 0)
(4.72892 0.107491 0)
(4.74331 0.107259 0)
(4.75472 0.105243 0)
(4.7603 0.101596 0)
(4.76009 0.0967169 0)
(4.75767 0.0922705 0)
(4.75373 0.0891605 0)
(4.75129 0.0886873 0)
(4.74687 0.0914655 0)
(4.9202 0.208532 0)
(4.84849 0.14896 0)
(4.83179 0.14482 0)
(4.83107 0.168821 0)
(4.81682 0.175804 0)
(4.79768 0.160542 0)
(4.79059 0.135682 0)
(4.79605 0.113583 0)
(4.80482 0.100275 0)
(4.80928 0.0947404 0)
(4.80767 0.0924562 0)
(4.80191 0.0899123 0)
(4.79537 0.086601 0)
(4.79058 0.0832665 0)
(4.78917 0.0815995 0)
(4.78997 0.082507 0)
(4.79237 0.0868236 0)
(4.79276 0.0945151 0)
(4.99821 0.233109 0)
(4.98898 0.161639 0)
(4.90297 0.160957 0)
(4.83915 0.177084 0)
(4.80529 0.169825 0)
(4.78585 0.143497 0)
(4.7754 0.11651 0)
(4.77473 0.101102 0)
(4.78285 0.098983 0)
(4.79413 0.104568 0)
(4.80241 0.110255 0)
(4.80485 0.111103 0)
(4.80264 0.106553 0)
(4.79854 0.0986783 0)
(4.79527 0.0906932 0)
(4.79383 0.0854272 0)
(4.79439 0.0846509 0)
(4.79589 0.0893776 0)
(5.04728 0.283034 0)
(4.96837 0.188295 0)
(4.93087 0.175042 0)
(4.91702 0.190942 0)
(4.89886 0.194591 0)
(4.86611 0.177265 0)
(4.82617 0.145806 0)
(4.79163 0.113843 0)
(4.77183 0.0929806 0)
(4.76936 0.0857335 0)
(4.78125 0.0866788 0)
(4.8012 0.089011 0)
(4.82254 0.089094 0)
(4.83939 0.0869297 0)
(4.84811 0.0844453 0)
(4.8479 0.0839896 0)
(4.84052 0.086944 0)
(4.82888 0.0938788 0)
(4.90795 0.278819 0)
(4.91148 0.20071 0)
(4.90488 0.176125 0)
(4.90199 0.189055 0)
(4.90625 0.191024 0)
(4.92069 0.171626 0)
(4.93324 0.143118 0)
(4.9275 0.119738 0)
(4.90226 0.10669 0)
(4.87108 0.101019 0)
(4.84915 0.0976312 0)
(4.84232 0.0936337 0)
(4.8474 0.0892014 0)
(4.85639 0.0864136 0)
(4.86355 0.0865946 0)
(4.86413 0.0902649 0)
(4.86012 0.0965113 0)
(4.8502 0.104078 0)
(5.06912 0.331188 0)
(5.0138 0.21839 0)
(4.95223 0.175904 0)
(4.92954 0.18054 0)
(4.93641 0.183195 0)
(4.94032 0.170764 0)
(4.92798 0.151555 0)
(4.90789 0.135205 0)
(4.89269 0.122919 0)
(4.88744 0.111509 0)
(4.88995 0.0991148 0)
(4.8959 0.0869748 0)
(4.90261 0.0781233 0)
(4.90849 0.0747934 0)
(4.91459 0.077606 0)
(4.91924 0.0850055 0)
(4.92492 0.0951705 0)
(4.92698 0.105607 0)
(4.96381 0.325161 0)
(4.97188 0.231017 0)
(4.95215 0.198717 0)
(4.92426 0.194762 0)
(4.90479 0.189034 0)
(4.89629 0.174998 0)
(4.89691 0.153449 0)
(4.90468 0.130013 0)
(4.91667 0.111654 0)
(4.92837 0.100778 0)
(4.93628 0.0947938 0)
(4.93918 0.090142 0)
(4.93849 0.0854867 0)
(4.93629 0.0815609 0)
(4.93503 0.0805093 0)
(4.93599 0.0832541 0)
(4.93908 0.0899957 0)
(4.94361 0.0996283 0)
(4.99233 0.340151 0)
(4.9744 0.253428 0)
(4.9624 0.206544 0)
(4.97581 0.194565 0)
(4.99388 0.187713 0)
(5.00661 0.172757 0)
(5.01102 0.1517 0)
(5.00462 0.13077 0)
(4.99039 0.113945 0)
(4.97604 0.101245 0)
(4.96857 0.091382 0)
(4.96891 0.0836801 0)
(4.97319 0.0784067 0)
(4.97567 0.0764874 0)
(4.97273 0.0780976 0)
(4.96474 0.0832448 0)
(4.95321 0.0908955 0)
(4.94283 0.100333 0)
(5.01473 0.321629 0)
(5.00325 0.223463 0)
(4.98915 0.183723 0)
(4.96882 0.178115 0)
(4.95766 0.181979 0)
(4.96389 0.174613 0)
(4.97562 0.157147 0)
(4.9782 0.139055 0)
(4.96743 0.124651 0)
(4.94971 0.112483 0)
(4.93462 0.100558 0)
(4.92764 0.0897888 0)
(4.92808 0.0828781 0)
(4.93154 0.0820811 0)
(4.93472 0.0868433 0)
(4.93515 0.0952781 0)
(4.93519 0.104281 0)
(4.93376 0.111934 0)
(5.03749 0.301295 0)
(5.05287 0.278407 0)
(5.03928 0.248972 0)
(5.00532 0.216375 0)
(5.00122 0.180715 0)
(5.01933 0.151011 0)
(5.02783 0.136776 0)
(5.01061 0.134114 0)
(4.97611 0.13141 0)
(4.94284 0.120958 0)
(4.92401 0.103613 0)
(4.92257 0.0858637 0)
(4.93468 0.0742697 0)
(4.95358 0.0712903 0)
(4.97454 0.0756133 0)
(4.99275 0.0837029 0)
(5.00853 0.0925084 0)
(5.0183 0.100283 0)
(5.00759 0.263577 0)
(5.01038 0.206195 0)
(5.05229 0.196311 0)
(5.05847 0.191437 0)
(5.04931 0.177569 0)
(5.03535 0.169303 0)
(5.019 0.175008 0)
(5.00405 0.183829 0)
(4.99516 0.179803 0)
(4.99337 0.156278 0)
(4.99624 0.119176 0)
(4.99995 0.0811451 0)
(5.00246 0.0535682 0)
(5.00308 0.0416603 0)
(5.00345 0.0442961 0)
(5.00452 0.0565118 0)
(5.00767 0.0728577 0)
(5.01268 0.0891392 0)
(5.09508 0.253496 0)
(5.10471 0.243964 0)
(5.07044 0.237087 0)
(5.03175 0.224829 0)
(5.0078 0.196698 0)
(5.00056 0.169478 0)
(5.00058 0.15496 0)
(5.00678 0.146069 0)
(5.0221 0.132247 0)
(5.04258 0.112242 0)
(5.05993 0.0926622 0)
(5.06807 0.0800667 0)
(5.06654 0.0765157 0)
(5.05847 0.0794038 0)
(5.04902 0.0843299 0)
(5.04182 0.0885798 0)
(5.03991 0.0900602 0)
(5.04301 0.0906823 0)
(5.06939 0.286371 0)
(5.06872 0.272501 0)
(5.04726 0.269269 0)
(5.03386 0.235362 0)
(5.02668 0.196265 0)
(5.02702 0.176208 0)
(5.03107 0.170414 0)
(5.03385 0.16312 0)
(5.03416 0.145387 0)
(5.03197 0.119343 0)
(5.02887 0.0926826 0)
(5.02817 0.0721632 0)
(5.03264 0.060603 0)
(5.04263 0.0568665 0)
(5.05592 0.0575954 0)
(5.0695 0.0598305 0)
(5.08113 0.061661 0)
(5.08862 0.0633886 0)
(4.98832 0.418631 0)
(4.99587 0.285232 0)
(4.99711 0.25414 0)
(5.00129 0.243155 0)
(5.00522 0.209473 0)
(5.01409 0.172051 0)
(5.02774 0.148538 0)
(5.04052 0.138556 0)
(5.04886 0.131379 0)
(5.05228 0.118386 0)
(5.0526 0.0982172 0)
(5.05326 0.0754512 0)
(5.05734 0.0561005 0)
(5.06509 0.0448427 0)
(5.0745 0.0432081 0)
(5.08252 0.0496856 0)
(5.08785 0.061655 0)
(5.08937 0.0753026 0)
(4.97247 0.352011 0)
(4.95549 0.273863 0)
(4.97239 0.232839 0)
(4.98226 0.207476 0)
(4.99934 0.170852 0)
(5.01971 0.137056 0)
(5.03824 0.122468 0)
(5.05722 0.123586 0)
(5.07791 0.124713 0)
(5.09799 0.113411 0)
(5.11332 0.088432 0)
(5.12086 0.0577218 0)
(5.12139 0.031496 0)
(5.11765 0.0169747 0)
(5.1135 0.0157392 0)
(5.11125 0.0246161 0)
(5.11332 0.0382874 0)
(5.11998 0.0512893 0)
(4.93667 0.260267 0)
(4.91241 0.267489 0)
(4.94558 0.240702 0)
(4.97827 0.198253 0)
(5.00483 0.157481 0)
(5.02658 0.121999 0)
(5.0478 0.094185 0)
(5.07409 0.0751355 0)
(5.10583 0.0645393 0)
(5.13798 0.0606893 0)
(5.16378 0.0612416 0)
(5.17864 0.0637835 0)
(5.18289 0.0658555 0)
(5.18022 0.0654521 0)
(5.17552 0.0612477 0)
(5.17214 0.0538679 0)
(5.17281 0.0438124 0)
(5.17773 0.0334532 0)
(4.92535 0.262619 0)
(4.96217 0.21707 0)
(5.01355 0.176707 0)
(5.03271 0.141057 0)
(5.04922 0.111663 0)
(5.07533 0.0812826 0)
(5.10204 0.0506189 0)
(5.12336 0.0269217 0)
(5.14036 0.0145022 0)
(5.15586 0.0119996 0)
(5.17149 0.0155601 0)
(5.18748 0.0218273 0)
(5.20394 0.0281066 0)
(5.2205 0.0322552 0)
(5.23633 0.0327525 0)
(5.24966 0.0292885 0)
(5.26012 0.0225053 0)
(5.26643 0.0136505 0)
(5.03798 0.191664 0)
(5.07105 0.146135 0)
(5.11793 0.166412 0)
(5.15002 0.152027 0)
(5.17013 0.113488 0)
(5.18614 0.0746186 0)
(5.19961 0.0467442 0)
(5.21035 0.0314945 0)
(5.21813 0.025184 0)
(5.22435 0.0232225 0)
(5.23133 0.0223285 0)
(5.24012 0.0217374 0)
(5.25032 0.0212845 0)
(5.26069 0.0208978 0)
(5.2698 0.020295 0)
(5.27698 0.0194295 0)
(5.2821 0.0183228 0)
(5.28622 0.0167386 0)
(5.10916 0.182105 0)
(5.08303 0.140215 0)
(5.11177 0.123071 0)
(5.15854 0.100802 0)
(5.19634 0.0755834 0)
(5.20829 0.0448066 0)
(5.20229 0.0169922 0)
(5.19218 0.000580373 0)
(5.18655 -0.00546956 0)
(5.18926 -0.00653714 0)
(5.20162 -0.00617175 0)
(5.22136 -0.00532733 0)
(5.24324 -0.0032439 0)
(5.2623 0.000474979 0)
(5.27559 0.0041708 0)
(5.28254 0.00606325 0)
(5.28478 0.00439622 0)
(5.28365 -0.00207478 0)
(5.0061 0.178857 0)
(5.02438 0.136103 0)
(5.07736 0.101121 0)
(5.13493 0.0879504 0)
(5.19266 0.0863494 0)
(5.23077 0.0785649 0)
(5.24815 0.0646852 0)
(5.25649 0.047778 0)
(5.26534 0.0289961 0)
(5.27731 0.00870691 0)
(5.28936 -0.00921234 0)
(5.29854 -0.0201354 0)
(5.30521 -0.0216035 0)
(5.31083 -0.014307 0)
(5.3186 -0.00208967 0)
(5.32911 0.0101871 0)
(5.34345 0.018467 0)
(5.35953 0.0198642 0)
(5.06097 0.218596 0)
(5.10896 0.108317 0)
(5.10717 0.0576223 0)
(5.11678 0.0267381 0)
(5.1482 0.00789244 0)
(5.18567 -0.0034091 0)
(5.22601 -0.00999069 0)
(5.26972 -0.0151198 0)
(5.31151 -0.021038 0)
(5.34259 -0.0264337 0)
(5.35799 -0.0286255 0)
(5.35861 -0.0263184 0)
(5.35148 -0.0214978 0)
(5.34539 -0.0176796 0)
(5.34738 -0.0175915 0)
(5.35882 -0.0219517 0)
(5.37882 -0.0300335 0)
(5.40285 -0.0389124 0)
(5.06897 0.20508 0)
(5.12027 0.113241 0)
(5.18332 0.093506 0)
(5.22436 0.0750743 0)
(5.25919 0.0500024 0)
(5.2826 0.0250885 0)
(5.29539 0.00396291 0)
(5.30341 -0.011856 0)
(5.31254 -0.0214424 0)
(5.32688 -0.0231264 0)
(5.34703 -0.0185229 0)
(5.3705 -0.0119029 0)
(5.39439 -0.00764311 0)
(5.41651 -0.00808713 0)
(5.43574 -0.0128911 0)
(5.4515 -0.0199917 0)
(5.46423 -0.027263 0)
(5.47396 -0.0328374 0)
(5.03002 0.205803 0)
(5.16664 0.0688313 0)
(5.2573 0.023657 0)
(5.2889 -0.00437827 0)
(5.30197 -0.0250233 0)
(5.32624 -0.029165 0)
(5.36597 -0.0262244 0)
(5.40717 -0.0291465 0)
(5.43698 -0.0403815 0)
(5.45309 -0.05326 0)
(5.46113 -0.0608366 0)
(5.46723 -0.0609783 0)
(5.47451 -0.0560856 0)
(5.48294 -0.05045 0)
(5.49219 -0.0475578 0)
(5.50171 -0.0482769 0)
(5.51204 -0.0520151 0)
(5.52314 -0.0567176 0)
(5.02726 0.116786 0)
(5.16575 0.0605777 0)
(5.33795 0.0687589 0)
(5.43834 0.0555531 0)
(5.47991 0.020811 0)
(5.5006 -0.012609 0)
(5.52531 -0.0340118 0)
(5.55159 -0.0422949 0)
(5.56504 -0.040862 0)
(5.56052 -0.0343476 0)
(5.54609 -0.0268488 0)
(5.53405 -0.0212346 0)
(5.53224 -0.0188875 0)
(5.54181 -0.0204537 0)
(5.55985 -0.0258123 0)
(5.58196 -0.034147 0)
(5.60469 -0.0441717 0)
(5.62464 -0.0528923 0)
(4.96665 0.0718846 0)
(5.18609 -0.0325772 0)
(5.30565 -0.0466511 0)
(5.38206 -0.0542232 0)
(5.44089 -0.0557465 0)
(5.47366 -0.055676 0)
(5.48247 -0.0547576 0)
(5.47899 -0.0523641 0)
(5.4758 -0.0489197 0)
(5.48042 -0.0470374 0)
(5.49257 -0.04898 0)
(5.50677 -0.0544608 0)
(5.51581 -0.0611426 0)
(5.5155 -0.0669064 0)
(5.50373 -0.0709711 0)
(5.48334 -0.0738344 0)
(5.45666 -0.0759248 0)
(5.42969 -0.0773017 0)
(4.90629 0.0653225 0)
(5.10549 0.00050828 0)
(5.09447 0.0119628 0)
(4.9808 -0.00539543 0)
(4.84567 -0.0223812 0)
(4.71129 -0.0292898 0)
(4.58116 -0.0323592 0)
(4.45411 -0.035518 0)
(4.33132 -0.0381795 0)
(4.21426 -0.0387247 0)
(4.10235 -0.0360175 0)
(3.99578 -0.029933 0)
(3.89562 -0.022039 0)
(3.80298 -0.0156289 0)
(3.71475 -0.0137102 0)
(3.62832 -0.0165334 0)
(3.5379 -0.0222749 0)
(3.44463 -0.0276466 0)
(0.0177787 -0.0591403 -9.1577e-21)
(0.052592 -0.0716591 9.09246e-21)
(0.0898724 -0.0706608 0)
(0.122629 -0.0678553 0)
(0.151776 -0.0643307 0)
(0.176454 -0.0600755 -8.83408e-21)
(0.196251 -0.0549651 0)
(0.210479 -0.0490928 0)
(0.218617 -0.0427261 0)
(0.220119 -0.0360263 0)
(0.21434 -0.0288399 8.53005e-21)
(0.200545 -0.0208476 0)
(0.177933 -0.0117345 0)
(0.145442 -0.00125135 0)
(0.102055 0.0108546 0)
(0.0468693 0.0246631 8.24688e-21)
(-0.0204832 0.0401349 0)
(-0.100847 0.0567168 0)
(-0.195033 0.0739907 0)
(-0.302722 0.0912571 0)
(-0.423492 0.107807 0)
(-0.556585 0.12304 0)
(-0.700975 0.136555 0)
(-0.855205 0.148125 7.81961e-21)
(-1.0174 0.157454 -7.77429e-21)
(-1.18587 0.16443 7.73167e-21)
(-1.35885 0.169054 7.69182e-21)
(-1.53467 0.171416 0)
(-1.71167 0.171657 0)
(-1.88829 0.169965 -7.58776e-21)
(-2.06298 0.166525 -7.55726e-21)
(-2.23421 0.16149 0)
(-2.40048 0.154988 0)
(-2.56026 0.147093 -7.47109e-21)
(-2.71198 0.137856 0)
(-2.85402 0.127345 0)
(-2.98477 0.115612 7.37681e-21)
(-3.10259 0.102737 0)
(-3.20588 0.0888676 7.29713e-21)
(-3.29317 0.0741318 1.44988e-20)
(-3.36317 0.0587252 0)
(-3.41473 0.0430437 0)
(-3.44696 0.0274323 0)
(-3.45934 0.0120914 0)
(-3.45122 -0.00264565 0)
(-3.42455 -0.0165451 1.3631e-20)
(-3.37899 -0.0298225 1.34357e-20)
(-3.31531 -0.0423467 1.32285e-20)
(-3.23437 -0.0539951 0)
(-3.13714 -0.0646823 -1.27857e-20)
(-3.02481 -0.0742988 0)
(-2.89868 -0.0827628 1.23189e-20)
(-2.76023 -0.0900036 1.20818e-20)
(-2.61108 -0.0959687 0)
(-2.45295 -0.100628 0)
(-2.28764 -0.103981 0)
(-2.11697 -0.106057 1.11554e-20)
(-1.94271 -0.106927 0)
(-1.76653 -0.106686 0)
(-1.58996 -0.105451 0)
(-1.41439 -0.103349 0)
(-1.24103 -0.100512 0)
(-1.07094 -0.0970758 0)
(-0.905028 -0.093169 0)
(-0.744059 -0.088889 0)
(-0.588583 -0.0844067 -9.49306e-21)
(-0.439 -0.0797388 0)
(-0.29563 -0.0749888 0)
(-0.158628 -0.0702772 9.08239e-21)
(-0.028739 -0.0655892 8.9572e-21)
(0.0942337 -0.0611197 0)
(0.211102 -0.056728 -8.71729e-21)
(0.321738 -0.0524789 8.60364e-21)
(0.426245 -0.0484028 0)
(0.524781 -0.0445155 -8.38812e-21)
(0.617538 -0.0408241 0)
(0.704731 -0.0373305 0)
(0.786579 -0.0340328 8.08839e-21)
(0.86331 -0.0309266 0)
(0.935144 -0.0280062 -7.90057e-21)
(1.0023 -0.025265 0)
(1.065 -0.0226958 7.7201e-21)
(1.12343 -0.0202919 7.63217e-21)
(1.1778 -0.0180463 7.54556e-21)
(1.2283 -0.0159529 1.49203e-20)
(1.27511 -0.0140056 -1.47517e-20)
(1.31842 -0.012199 0)
(1.35838 -0.0105279 0)
(1.39519 -0.00898756 0)
(1.42898 -0.00757318 -1.40957e-20)
(1.45994 -0.00628026 -1.39357e-20)
(1.48822 -0.00510423 1.3777e-20)
(1.51397 -0.00404048 0)
(1.53734 -0.00308415 -1.34634e-20)
(1.55849 -0.00223021 -1.33084e-20)
(1.57757 -0.00147339 -1.31545e-20)
(1.59471 -0.000808236 0)
(1.61005 -0.000229196 0)
(1.62373 0.000269703 0)
(1.63588 0.000694297 -1.25492e-20)
(1.64662 0.00105105 0)
(1.65606 0.00134678 0)
(1.66433 0.00158819 1.21053e-20)
(1.67152 0.00178318 0)
(1.67774 0.00193581 0)
(1.68308 0.00205199 1.16694e-20)
(1.68763 0.00213609 0)
(1.69146 0.00219093 0)
(1.69465 0.00222575 -1.12413e-20)
(1.69726 0.0022387 -1.11003e-20)
(1.69937 0.00224184 0)
(1.70097 0.00224235 1.08208e-20)
(1.70213 0.00223684 0)
(1.70291 0.00221952 -1.05446e-20)
(1.70333 0.00219217 0)
(1.70345 0.00215766 -1.02717e-20)
(1.70329 0.00211639 -1.01364e-20)
(1.70289 0.00207363 0)
(1.70229 0.00203224 0)
(1.7015 0.00198411 0)
(1.70054 0.0019256 0)
(1.69945 0.00186656 0)
(1.69822 0.00181105 0)
(1.69688 0.00175913 0)
(1.69543 0.0017104 -9.08344e-21)
(1.69389 0.00166476 8.95539e-21)
(1.69227 0.00162089 0)
(1.69058 0.00157574 0)
(1.68882 0.00152611 0)
(1.68703 0.00147109 0)
(1.68522 0.00141229 1.66536e-20)
(1.6834 0.00135298 0)
(1.68157 0.00129654 -1.61615e-20)
(1.67975 0.00124527 1.59176e-20)
(1.67794 0.00119981 0)
(1.67613 0.00115956 0)
(1.67431 0.00112328 0)
(1.67249 0.00108986 -1.4957e-20)
(1.67066 0.00105856 -1.47204e-20)
(1.66883 0.00102909 0)
(1.66698 0.00100142 -1.42516e-20)
(1.66512 0.000975651 -1.40193e-20)
(1.66325 0.000951852 1.37884e-20)
(1.66137 0.000930079 0)
(1.65947 0.000910338 0)
(1.65756 0.000892587 1.3104e-20)
(1.65564 0.000876742 0)
(1.6537 0.000862714 0)
(1.65174 0.000850422 0)
(1.64976 0.000839821 0)
(1.64776 0.000830892 -1.19899e-20)
(1.64574 0.000823672 -1.1771e-20)
(1.64369 0.000818186 0)
(1.64161 0.00081458 -1.13369e-20)
(1.6395 0.000812892 0)
(1.63735 0.000813487 0)
(1.63515 0.000816412 -1.06951e-20)
(1.63291 0.000822404 0)
(1.63061 0.00083153 -1.02732e-20)
(1.62824 0.000845023 0)
(1.62578 0.000863202 0)
(1.62324 0.000887754 -9.64887e-21)
(1.62053 0.000919995 0)
(1.61774 0.000961505 -9.23818e-21)
(1.61466 0.00101686 0)
(1.61149 0.00108486 0)
(1.6078 0.00118126 0)
(1.60405 0.00129019 8.42904e-21)
(1.59933 0.00146552 0)
(1.59468 0.00163169 -8.02995e-21)
(1.58819 0.00197367 0)
(1.58195 0.00220337 0)
(1.57245 0.0029488 0)
(1.5629 0.00317756 0)
(1.54863 0.00503611 0)
(1.5305 0.0048776 0)
(1.51019 0.0102426 0)
(1.46522 0.00808702 1.28992e-20)
(1.44351 0.0264177 0)
(1.29935 0.0199103 0)
(0.00110527 -0.0897621 2.74704e-20)
(-0.0172916 -0.087415 -2.7277e-20)
(-0.0357921 -0.0769 0)
(-0.058517 -0.0633449 1.7922e-20)
(-0.0844402 -0.0482114 0)
(-0.114238 -0.0320464 8.836e-21)
(-0.148005 -0.0149211 -1.75405e-20)
(-0.18629 0.00341564 -1.74158e-20)
(-0.229696 0.0231661 0)
(-0.278716 0.0445308 -1.71699e-20)
(-0.334053 0.0677654 -8.52784e-21)
(-0.396219 0.0929799 0)
(-0.465606 0.120126 0)
(-0.54247 0.149012 0)
(-0.626885 0.179288 0)
(-0.718785 0.21042 -8.23031e-21)
(-0.817908 0.241859 0)
(-0.923911 0.272681 1.623e-20)
(-1.03623 0.302299 0)
(-1.15406 0.329916 0)
(-1.27656 0.354806 -1.59088e-20)
(-1.40288 0.37638 0)
(-1.53225 0.394243 1.57132e-20)
(-1.66411 0.408189 -7.80067e-21)
(-1.79782 0.41811 7.7561e-21)
(-1.9328 0.424108 -7.71432e-21)
(-2.06848 0.426355 -7.67539e-21)
(-2.20427 0.425084 0)
(-2.33951 0.420514 0)
(-2.47351 0.412814 7.5743e-21)
(-2.60544 0.402075 -7.58721e-21)
(-2.73444 0.388302 0)
(-2.85957 0.371443 0)
(-2.9798 0.351439 7.46155e-21)
(-3.09393 0.328235 0)
(-3.20064 0.301795 0)
(-3.29853 0.272122 -7.36993e-21)
(-3.38613 0.239321 0)
(-3.462 0.20361 7.35412e-21)
(-3.52471 0.165274 -1.44897e-20)
(-3.57302 0.124751 0)
(-3.60591 0.0826963 0)
(-3.6224 0.039782 -2.8378e-20)
(-3.62177 -0.00333962 -2.80718e-20)
(-3.60404 -0.0458966 -2.77312e-20)
(-3.56707 -0.0871938 1.37346e-20)
(-3.51178 -0.12681 -1.34308e-20)
(-3.43852 -0.164253 -3.97649e-20)
(-3.34797 -0.199128 2.60994e-20)
(-3.24117 -0.231114 1.27805e-20)
(-3.11926 -0.259925 0)
(-2.98357 -0.28532 -1.23138e-20)
(-2.83559 -0.307089 1.2137e-20)
(-2.67694 -0.325067 0)
(-2.50938 -0.339156 0)
(-2.33474 -0.349347 0)
(-2.15487 -0.355735 -1.11512e-20)
(-1.97159 -0.358522 0)
(-1.78656 -0.357996 2.14751e-20)
(-1.60132 -0.354504 0)
(-1.41724 -0.348427 2.06775e-20)
(-1.23549 -0.340168 0)
(-1.05706 -0.330133 -1.99521e-20)
(-0.882821 -0.318689 0)
(-0.71353 -0.306195 1.92971e-20)
(-0.549691 -0.292984 -9.50277e-21)
(-0.391569 -0.279224 0)
(-0.239552 -0.265314 -1.84325e-20)
(-0.0936976 -0.251322 -9.08165e-21)
(0.0451405 -0.237608 -8.95544e-21)
(0.177387 -0.224192 0)
(0.304042 -0.211097 -8.72081e-21)
(0.424721 -0.198431 -8.60076e-21)
(0.539595 -0.186261 0)
(0.648852 -0.174622 8.38523e-21)
(0.7527 -0.163531 -1.65699e-20)
(0.85136 -0.152989 0)
(0.945056 -0.142987 -8.08542e-21)
(1.03401 -0.13351 0)
(1.11844 -0.124539 2.36962e-20)
(1.19857 -0.11605 0)
(1.27457 -0.108022 -2.3154e-20)
(1.34666 -0.100431 -7.62894e-21)
(1.41501 -0.0932546 7.54505e-21)
(1.47978 -0.086473 1.49188e-20)
(1.54115 -0.0800667 -1.47497e-20)
(1.59925 -0.0740186 0)
(1.65424 -0.0683132 0)
(1.70624 -0.0629362 0)
(1.7554 -0.0578752 4.22685e-20)
(1.80182 -0.0531184 1.39281e-20)
(1.84564 -0.048655 -1.37693e-20)
(1.88696 -0.0444749 0)
(1.9259 -0.0405681 -1.34582e-20)
(1.96255 -0.0369247 1.33004e-20)
(1.99703 -0.0335349 1.31464e-20)
(2.02943 -0.0303888 0)
(2.05984 -0.0274763 0)
(2.08836 -0.0247872 0)
(2.11509 -0.0223111 1.25408e-20)
(2.1401 -0.0200378 0)
(2.16348 -0.0179561 -2.44891e-20)
(2.18532 -0.0160545 -3.62915e-20)
(2.20569 -0.0143199 2.39023e-20)
(2.22467 -0.0127414 0)
(2.24233 -0.0113079 1.16618e-20)
(2.25875 -0.0100085 0)
(2.274 -0.00883437 2.275e-20)
(2.28814 -0.00777204 -1.12335e-20)
(2.30124 -0.00681481 -1.10925e-20)
(2.31336 -0.0059495 0)
(2.32458 -0.00516522 -3.24376e-20)
(2.33496 -0.00445967 2.13483e-20)
(2.34456 -0.00383072 1.05362e-20)
(2.35342 -0.00327307 0)
(2.3616 -0.00278008 1.02634e-20)
(2.36912 -0.00234243 3.03852e-20)
(2.37604 -0.00195408 0)
(2.3824 -0.00161363 1.97212e-20)
(2.38823 -0.00130978 1.94557e-20)
(2.39355 -0.00102906 1.91918e-20)
(2.39841 -0.000776734 0)
(2.40285 -0.000554104 0)
(2.40688 -0.000356898 0)
(2.41054 -0.000181265 -9.07627e-21)
(2.41387 -2.75919e-05 -8.94815e-21)
(2.41688 0.000104967 0)
(2.41961 0.000218251 -1.73894e-20)
(2.42209 0.000311636 -1.71382e-20)
(2.42432 0.00038531 0)
(2.42634 0.000440689 -1.66403e-20)
(2.42815 0.000480498 -3.27876e-20)
(2.42979 0.000508389 1.61486e-20)
(2.43126 0.000528631 1.59052e-20)
(2.43259 0.000545012 0)
(2.43379 0.000560452 0)
(2.43488 0.000576472 0)
(2.43584 0.000593586 1.49453e-20)
(2.4367 0.000611445 -1.47091e-20)
(2.43746 0.000629474 -2.89484e-20)
(2.43811 0.000647019 1.42407e-20)
(2.43866 0.000663648 -1.40087e-20)
(2.43911 0.000679126 -1.3778e-20)
(2.43947 0.000693434 0)
(2.43975 0.000706701 0)
(2.43994 0.000719122 1.30942e-20)
(2.44006 0.000730915 0)
(2.44011 0.000742304 0)
(2.44009 0.000753526 -2.4845e-20)
(2.44 0.000764848 0)
(2.43986 0.000776568 -1.19813e-20)
(2.43967 0.000789055 1.17625e-20)
(2.43941 0.000802695 0)
(2.43911 0.000818019 -1.13289e-20)
(2.43875 0.000835531 0)
(2.43835 0.000856025 0)
(2.43789 0.000880264 1.06876e-20)
(2.43737 0.000909401 -2.09526e-20)
(2.43679 0.00094484 1.02661e-20)
(2.43616 0.000987947 0)
(2.43544 0.00104187 0)
(2.43465 0.00110717 -9.64245e-21)
(2.43375 0.00119192 0)
(2.43275 0.00129197 -9.23214e-21)
(2.43159 0.00142972 0)
(2.43029 0.00158284 0)
(2.42871 0.00181644 0)
(2.42695 0.00204759 -8.42354e-21)
(2.42472 0.00246832 0)
(2.4222 0.00280519 8.02477e-21)
(2.41891 0.00362335 0)
(2.41501 0.00406574 0)
(2.41003 0.00579902 -1.48648e-20)
(2.40334 0.00622762 1.44718e-20)
(2.39584 0.0102521 0)
(2.38264 0.010206 0)
(2.37211 0.0205153 0)
(2.34175 0.0190766 -3.8688e-20)
(2.33095 0.0489172 0)
(2.25341 0.048131 2.42258e-20)
(-0.0131377 -0.0198512 -4.37706e-24)
(-0.0697634 0.00894231 3.63565e-20)
(-0.122915 0.0205516 0)
(-0.178231 0.0364043 -3.58251e-20)
(-0.23405 0.0542718 0)
(-0.29178 0.0745139 0)
(-0.351808 0.0970001 6.51206e-24)
(-0.414559 0.121763 1.74022e-20)
(-0.480282 0.148859 1.72701e-20)
(-0.549191 0.1782 1.71538e-20)
(-0.621378 0.20965 0)
(-0.696844 0.243069 0)
(-0.775509 0.278221 -1.67838e-20)
(-0.857225 0.314709 -3.33324e-20)
(-0.941773 0.351971 3.3101e-20)
(-1.02887 0.389312 0)
(-1.11819 0.425982 3.26511e-20)
(-1.20941 0.461236 -1.62131e-20)
(-1.30241 0.494438 0)
(-1.3972 0.524964 3.20174e-20)
(-1.4939 0.552272 1.5895e-20)
(-1.59268 0.575943 -3.16313e-20)
(-1.69382 0.595687 -1.57018e-20)
(-1.79768 0.611342 0)
(-1.90457 0.622892 3.11215e-20)
(-2.01476 0.630384 3.0972e-20)
(-2.12839 0.633891 0)
(-2.2454 0.633461 3.07044e-20)
(-2.36555 0.629067 0)
(-2.48835 0.620601 3.04753e-20)
(-2.61306 0.607859 1.5127e-20)
(-2.73865 0.59055 0)
(-2.86383 0.568333 0)
(-2.98704 0.540894 0)
(-3.10653 0.507974 0)
(-3.22038 0.469409 0)
(-3.32653 0.425131 0)
(-3.42287 0.375212 2.9635e-20)
(-3.50729 0.319945 -4.41229e-20)
(-3.57774 0.259851 0)
(-3.63241 0.195614 0)
(-3.66978 0.128103 0)
(-3.6886 0.0584166 -2.05203e-22)
(-3.688 -0.0121948 2.8067e-20)
(-3.66746 -0.0825023 5.56442e-20)
(-3.627 -0.151362 -5.48924e-20)
(-3.56715 -0.21753 -2.71289e-20)
(-3.48871 -0.280119 2.65335e-20)
(-3.39267 -0.338397 1.48971e-22)
(-3.28014 -0.391769 2.57695e-20)
(-3.15238 -0.439772 0)
(-3.0108 -0.482004 2.47989e-20)
(-2.85694 -0.518114 1.03196e-22)
(-2.69254 -0.547812 0)
(-2.51947 -0.570926 0)
(-2.33972 -0.587442 -2.28601e-20)
(-2.15528 -0.597521 0)
(-1.96808 -0.601519 0)
(-1.77987 -0.599956 2.15685e-20)
(-1.59221 -0.593453 4.22081e-20)
(-1.40642 -0.582676 -2.06704e-20)
(-1.22363 -0.568307 0)
(-1.04478 -0.551035 1.99457e-20)
(-0.870632 -0.531517 0)
(-0.701826 -0.510365 1.9336e-20)
(-0.538771 -0.488013 1.89888e-20)
(-0.381771 -0.465003 -3.74377e-20)
(-0.231103 -0.441777 -1.84592e-20)
(-0.0868914 -0.418488 0)
(0.0502016 -0.395977 3.58547e-20)
(0.180755 -0.373675 0)
(0.305524 -0.352096 5.23165e-20)
(0.424308 -0.331328 3.44288e-20)
(0.537304 -0.311447 3.39889e-20)
(0.644738 -0.292498 -3.35636e-20)
(0.746852 -0.274496 4.97186e-20)
(0.843895 -0.257437 0)
(0.936116 -0.241299 0)
(1.02375 -0.226051 -3.19797e-20)
(1.10704 -0.211655 -4.74037e-20)
(1.18621 -0.198069 0)
(1.26145 -0.18525 1.54356e-20)
(1.33298 -0.173156 0)
(1.40097 -0.161745 -4.5268e-20)
(1.4656 -0.15098 9.12478e-24)
(1.52704 -0.140824 -8.45364e-24)
(1.58544 -0.131245 2.91665e-20)
(1.64094 -0.122211 0)
(1.69368 -0.113697 -2.85088e-20)
(1.7438 -0.105676 6.18078e-24)
(1.7914 -0.0981251 0)
(1.8366 -0.0910234 0)
(1.87952 -0.0843504 0)
(1.92024 -0.0780869 2.69124e-20)
(1.95888 -0.0722145 0)
(1.99553 -0.0667152 0)
(2.03026 -0.0615717 0)
(2.06316 -0.0567668 0)
(2.09431 -0.0522838 0)
(2.12378 -0.0481062 2.50847e-20)
(2.15164 -0.0442179 0)
(2.17797 -0.0406035 2.44878e-20)
(2.20282 -0.0372481 2.41934e-20)
(2.22626 -0.0341374 -2.39009e-20)
(2.24835 -0.0312567 0)
(2.26914 -0.0285918 -2.33212e-20)
(2.2887 -0.0261291 0)
(2.30707 -0.0238546 -2.27485e-20)
(2.32431 -0.0217565 2.24647e-20)
(2.34048 -0.0198217 6.65503e-20)
(2.35562 -0.0180408 0)
(2.36977 -0.0164031 6.48728e-20)
(2.38301 -0.0149005 2.13483e-20)
(2.39536 -0.0135235 0)
(2.40688 -0.012262 4.15968e-20)
(2.4176 -0.011107 4.10526e-20)
(2.42758 -0.0100487 -6.07671e-20)
(2.43686 -0.00907933 0)
(2.44547 -0.00819359 -1.97195e-20)
(2.45346 -0.00737921 -1.94541e-20)
(2.46089 -0.00662403 -5.75714e-20)
(2.46776 -0.00593333 0)
(2.47413 -0.00530431 0)
(2.48004 -0.00473063 0)
(2.4855 -0.00420946 -1.81513e-20)
(2.49054 -0.00373521 0)
(2.49519 -0.00331041 0)
(2.49949 -0.00293092 1.73878e-20)
(2.50345 -0.00259499 1.71366e-20)
(2.5071 -0.00229971 0)
(2.51045 -0.00204126 0)
(2.51353 -0.0018156 3.27843e-20)
(2.51635 -0.00161869 0)
(2.51894 -0.00144622 -3.1807e-20)
(2.52131 -0.00129353 -3.1323e-20)
(2.52347 -0.00115568 0)
(2.52546 -0.00102811 0)
(2.52728 -0.000907245 2.98878e-20)
(2.52894 -0.000790961 -1.61188e-25)
(2.53046 -0.00067856 -1.48609e-25)
(2.53185 -0.000570409 0)
(2.53311 -0.000467337 5.6029e-20)
(2.53426 -0.000370186 0)
(2.5353 -0.000279488 0)
(2.53624 -0.000195386 0)
(2.53709 -0.000117697 -2.61857e-20)
(2.53785 -4.59997e-05 0)
(2.53854 2.02672e-05 5.05753e-20)
(2.53915 8.17677e-05 2.48424e-20)
(2.53969 0.00013921 0)
(2.54017 0.000193377 2.396e-20)
(2.54059 0.000245076 0)
(2.54096 0.000295232 0)
(2.54127 0.000344768 6.79665e-20)
(2.54154 0.000394875 -4.44513e-20)
(2.54175 0.000446627 0)
(2.54191 0.000501829 -4.27464e-20)
(2.54203 0.000561629 2.09504e-20)
(2.5421 0.000629287 0)
(2.54211 0.000705459 0)
(2.54206 0.000796893 0)
(2.54194 0.000901808 5.78487e-20)
(2.54176 0.00103551 0)
(2.54147 0.00118773 1.84623e-20)
(2.5411 0.00139596 0)
(2.54057 0.00162275 0)
(2.53992 0.00196571 0)
(2.539 0.00230656 0)
(2.53793 0.00290619 0)
(2.53637 0.00341608 0)
(2.53466 0.00453699 3.13057e-20)
(2.53197 0.00527191 0)
(2.52923 0.00752311 1.48632e-20)
(2.52446 0.00851523 -4.34145e-20)
(2.52012 0.0133965 0)
(2.51137 0.0146994 0)
(2.50462 0.0262408 2.65939e-20)
(2.48845 0.0288044 2.57937e-20)
(2.47911 0.0587281 -2.503e-20)
(2.45368 0.0686906 -2.42214e-20)
(-0.0174567 0.0871251 -5.4921e-20)
(-0.0861187 0.142013 -5.45211e-20)
(-0.14984 0.152712 -3.60784e-20)
(-0.215654 0.169417 -1.79067e-20)
(-0.281078 0.188533 0)
(-0.347345 0.210386 3.52879e-20)
(-0.414213 0.234738 -1.75152e-20)
(-0.48202 0.261519 0)
(-0.550767 0.290597 -1.72633e-20)
(-0.620536 0.32188 0)
(-0.691398 0.355205 3.40333e-20)
(-0.763418 0.390317 0)
(-0.83659 0.426873 1.67775e-20)
(-0.910869 0.464459 3.33205e-20)
(-0.986201 0.502587 -3.30899e-20)
(-1.06258 0.540736 0)
(-1.14012 0.578401 -3.26419e-20)
(-1.21905 0.615075 0)
(-1.2998 0.650243 0)
(-1.38295 0.683461 -3.20111e-20)
(-1.46924 0.714384 0)
(-1.55946 0.742723 -4.44298e-23)
(-1.65432 0.768178 0)
(-1.75441 0.79042 0)
(-1.8601 0.809115 7.22681e-23)
(-1.97157 0.823902 -3.09665e-20)
(-2.08874 0.83438 -3.09215e-20)
(-2.2113 0.840113 -3.06976e-20)
(-2.33867 0.840639 0)
(-2.47008 0.835445 -6.10688e-20)
(-2.60449 0.823972 0)
(-2.74059 0.805643 -3.04323e-20)
(-2.8768 0.779875 0)
(-3.01125 0.746088 0)
(-3.14192 0.703771 3.01986e-20)
(-3.26659 0.652564 0)
(-3.38289 0.592307 -3.00124e-20)
(-3.48839 0.523089 2.71325e-22)
(-3.58064 0.445311 5.92261e-20)
(-3.65731 0.359758 -5.91747e-20)
(-3.71624 0.267614 0)
(-3.75571 0.170465 0)
(-3.77442 0.0702068 -2.91734e-20)
(-3.77155 -0.0311285 0)
(-3.74684 -0.131599 -2.79117e-20)
(-3.70076 -0.229645 2.75303e-20)
(-3.63402 -0.323728 2.71203e-20)
(-3.5477 -0.412462 0)
(-3.44305 -0.494779 -2.62307e-20)
(-3.32139 -0.56988 -2.576e-20)
(-3.18414 -0.637168 5.0916e-20)
(-3.03276 -0.696145 -2.47895e-20)
(-2.86889 -0.746341 -2.42986e-20)
(-2.69442 -0.787332 0)
(-2.51148 -0.818852 0)
(-2.3224 -0.840862 2.28519e-20)
(-2.12955 -0.853607 0)
(-1.93517 -0.857652 0)
(-1.74119 -0.853842 -4.30222e-20)
(-1.54924 -0.843164 -4.21955e-20)
(-1.36056 -0.826651 0)
(-1.17617 -0.805301 0)
(-0.996822 -0.780066 0)
(-0.823064 -0.751849 0)
(-0.655249 -0.721493 -3.86184e-20)
(-0.493581 -0.689572 3.8064e-20)
(-0.338184 -0.656917 3.74299e-20)
(-0.189093 -0.623889 7.38037e-20)
(-0.0467745 -0.591114 0)
(0.0886932 -0.559258 3.73088e-23)
(0.218006 -0.527931 0)
(0.341294 -0.497669 -3.48752e-20)
(0.458608 -0.468625 2.97062e-23)
(0.570124 -0.440891 -3.39802e-20)
(0.676071 -0.414516 3.35556e-20)
(0.776702 -0.389505 2.4294e-23)
(0.87228 -0.365841 0)
(0.963063 -0.343483 3.23755e-20)
(1.0493 -0.322377 3.19736e-20)