/*--------------------------------*- C++ -*----------------------------------*\
  =========                 |
  \\      /  F ield         | OpenFOAM: The Open Source CFD Toolbox
   \\    /   O peration     | Website:  https://openfoam.org
    \\  /    A nd           | Version:  7
     \\/     M anipulation  |
\*---------------------------------------------------------------------------*/
FoamFile
{
    version     2.0;
    format      ascii;
    class       volSymmTensorField;
    location    "0.025";
    object      UPrime2Mean;
}
// * * * * * * * * * * * * * * * * * * * * * * * * * * * * * * * * * * * * * //

dimensions      [0 2 -2 0 0 0 0];

internalField   nonuniform List<symmTensor> 
12225
(
(0.00597452 -0.000465595 0 0.000625289 0 0)
(0.0752891 -0.00335441 0 0.000420258 0 0)
(0.110472 -0.00494117 0 0.000459355 0 0)
(0.146911 -0.00597902 0 0.000453034 0 0)
(0.207879 -0.00724502 0 0.000439761 0 0)
(0.29439 -0.00870668 0 0.000420858 0 0)
(0.402919 -0.0101576 0 0.000414663 0 0)
(0.530307 -0.010832 0 0.000343004 0 0)
(0.671956 -0.0121236 0 0.000341966 0 0)
(0.826104 -0.0103931 0 0.000224204 0 0)
(0.991289 -0.014023 0 0.000281128 0 0)
(1.16137 -0.00707437 0 0.000153814 0 0)
(1.36162 -0.0224817 0 0.000516112 0 0)
(1.55528 0.00204115 0 0.000482935 0 0)
(1.86072 -0.0591384 0 0.00314055 0 0)
(2.17019 0.0366122 0 0.00434333 0 0)
(2.8347 -0.245451 0 0.0389095 0 0)
(3.99674 0.105893 0 0.0202225 0 0)
(0.00593484 -0.000421733 0 0.000586001 0 0)
(0.0507788 -0.0019432 0 0.000298502 0 0)
(0.0560301 -0.00302228 0 0.000517944 0 0)
(0.0575993 -0.00359557 0 0.000749653 0 0)
(0.0678979 -0.00465273 0 0.000998236 0 0)
(0.0852164 -0.00647199 0 0.00128554 0 0)
(0.109704 -0.00880956 0 0.0015305 0 0)
(0.143959 -0.0118595 0 0.00184614 0 0)
(0.186762 -0.0146105 0 0.00190802 0 0)
(0.245549 -0.0189469 0 0.00223888 0 0)
(0.311496 -0.0209822 0 0.00201441 0 0)
(0.405958 -0.0287582 0 0.00265297 0 0)
(0.500309 -0.0287784 0 0.00220236 0 0)
(0.657904 -0.0487773 0 0.00428344 0 0)
(0.796678 -0.0459224 0 0.00378252 0 0)
(1.11307 -0.112499 0 0.0139645 0 0)
(1.35452 -0.135041 0 0.0153534 0 0)
(2.068 -0.456487 0 0.124541 0 0)
(0.00536976 -0.000142524 0 0.000917798 0 0)
(0.0496454 -0.0028434 0 0.000639887 0 0)
(0.0528734 -0.00404529 0 0.000991362 0 0)
(0.051042 -0.004261 0 0.00136176 0 0)
(0.0550368 -0.00473661 0 0.00174528 0 0)
(0.0613679 -0.00573833 0 0.00215751 0 0)
(0.0693518 -0.00718434 0 0.00269471 0 0)
(0.079422 -0.00885454 0 0.00305404 0 0)
(0.0926921 -0.0111939 0 0.00365677 0 0)
(0.109842 -0.0133195 0 0.00378553 0 0)
(0.133776 -0.0176375 0 0.00457874 0 0)
(0.164574 -0.0204278 0 0.00447701 0 0)
(0.209302 -0.0304513 0 0.00646665 0 0)
(0.267276 -0.0350269 0 0.00629722 0 0)
(0.35624 -0.0650835 0 0.0139738 0 0)
(0.475282 -0.0815925 0 0.0154932 0 0)
(0.652025 -0.189456 0 0.0587855 0 0)
(0.872705 -0.328351 0 0.130513 0 0)
(0.00549184 -0.000859654 0 0.00114763 0 0)
(0.0496823 -0.00331181 0 0.000864815 0 0)
(0.0525988 -0.00426885 0 0.00118546 0 0)
(0.050685 -0.00449343 0 0.0016139 0 0)
(0.0542077 -0.00496555 0 0.00202436 0 0)
(0.0596028 -0.00596355 0 0.00250215 0 0)
(0.0660322 -0.00733948 0 0.00302673 0 0)
(0.0738157 -0.00904652 0 0.00368798 0 0)
(0.0833212 -0.0109832 0 0.00423836 0 0)
(0.0958631 -0.0137196 0 0.00504143 0 0)
(0.112171 -0.016982 0 0.00567806 0 0)
(0.134923 -0.0225713 0 0.00707715 0 0)
(0.165275 -0.0295501 0 0.00849725 0 0)
(0.209067 -0.0432593 0 0.0122954 0 0)
(0.268733 -0.0629649 0 0.0178796 0 0)
(0.352481 -0.103229 0 0.0334836 0 0)
(0.461001 -0.175684 0 0.0694671 0 0)
(0.564988 -0.291141 0 0.153564 0 0)
(0.00613905 -0.000603687 0 0.00141147 0 0)
(0.0489422 -0.00387364 0 0.00112381 0 0)
(0.0511199 -0.00478848 0 0.00147721 0 0)
(0.0492555 -0.00502196 0 0.00204414 0 0)
(0.0528956 -0.00557266 0 0.00260662 0 0)
(0.0581853 -0.00669468 0 0.00319392 0 0)
(0.0642956 -0.00827786 0 0.00392956 0 0)
(0.0714969 -0.0101984 0 0.00468446 0 0)
(0.0803054 -0.0126545 0 0.00567093 0 0)
(0.0915506 -0.0156133 0 0.00662519 0 0)
(0.106401 -0.0200797 0 0.00809262 0 0)
(0.126226 -0.0259044 0 0.00977387 0 0)
(0.153034 -0.0356517 0 0.0130239 0 0)
(0.189344 -0.0494996 0 0.0176849 0 0)
(0.237988 -0.0740625 0 0.0279052 0 0)
(0.29995 -0.112959 0 0.0471967 0 0)
(0.371132 -0.177383 0 0.0886496 0 0)
(0.425988 -0.27516 0 0.184901 0 0)
(0.00489257 -0.00110928 0 0.00156424 0 0)
(0.0476552 -0.00456658 0 0.0014697 0 0)
(0.0494186 -0.00531643 0 0.00193504 0 0)
(0.0474776 -0.00544289 0 0.00266158 0 0)
(0.0509634 -0.00597854 0 0.00334668 0 0)
(0.0559306 -0.00713431 0 0.00403881 0 0)
(0.0616374 -0.0088064 0 0.00484629 0 0)
(0.0684054 -0.0109582 0 0.00584517 0 0)
(0.0766823 -0.0136874 0 0.00702016 0 0)
(0.0871538 -0.0172911 0 0.00849291 0 0)
(0.100785 -0.0222557 0 0.0103942 0 0)
(0.118572 -0.0293867 0 0.0131666 0 0)
(0.142087 -0.0399192 0 0.017443 0 0)
(0.1724 -0.0558252 0 0.024584 0 0)
(0.211194 -0.0806714 0 0.037451 0 0)
(0.255641 -0.118179 0 0.0611535 0 0)
(0.30163 -0.174415 0 0.107034 0 0)
(0.330076 -0.245895 0 0.18954 0 0)
(0.00552886 -0.00095414 0 0.00168079 0 0)
(0.047488 -0.00507952 0 0.0018485 0 0)
(0.048498 -0.00578727 0 0.00231962 0 0)
(0.0461514 -0.0058741 0 0.00312521 0 0)
(0.0491729 -0.00644365 0 0.00397395 0 0)
(0.0534608 -0.00768178 0 0.00485496 0 0)
(0.0583627 -0.00947874 0 0.00589792 0 0)
(0.0642421 -0.0117912 0 0.00715551 0 0)
(0.0715073 -0.014764 0 0.00872188 0 0)
(0.0807032 -0.0186695 0 0.0106835 0 0)
(0.0925482 -0.0240812 0 0.0132846 0 0)
(0.107714 -0.0317506 0 0.0170136 0 0)
(0.127108 -0.0428524 0 0.0226823 0 0)
(0.151006 -0.0591281 0 0.0319477 0 0)
(0.179619 -0.0828423 0 0.047357 0 0)
(0.2095 -0.116745 0 0.0744276 0 0)
(0.236671 -0.161706 0 0.119418 0 0)
(0.247944 -0.213884 0 0.193573 0 0)
(0.00418356 -0.000884728 0 0.00198349 0 0)
(0.0458623 -0.00548625 0 0.00218354 0 0)
(0.0469876 -0.0060328 0 0.00289682 0 0)
(0.044909 -0.00599966 0 0.00383337 0 0)
(0.0479706 -0.00663366 0 0.00481622 0 0)
(0.0520035 -0.00797857 0 0.00584113 0 0)
(0.0564202 -0.00986122 0 0.00705061 0 0)
(0.061604 -0.0122893 0 0.00857826 0 0)
(0.0679152 -0.015444 0 0.010529 0 0)
(0.07578 -0.0196185 0 0.013054 0 0)
(0.0857324 -0.0253232 0 0.0164373 0 0)
(0.0981683 -0.0332591 0 0.0212481 0 0)
(0.113521 -0.0444471 0 0.0283912 0 0)
(0.131512 -0.0601709 0 0.0395375 0 0)
(0.151574 -0.0819087 0 0.0571225 0 0)
(0.170397 -0.110683 0 0.0854715 0 0)
(0.184764 -0.145801 0 0.12896 0 0)
(0.186359 -0.182956 0 0.194211 0 0)
(0.00582477 -0.0013784 0 0.00194304 0 0)
(0.0463519 -0.00645998 0 0.0024578 0 0)
(0.0462299 -0.0068938 0 0.00327452 0 0)
(0.0435877 -0.00659416 0 0.00432238 0 0)
(0.0463765 -0.00714761 0 0.00549337 0 0)
(0.0501663 -0.00859414 0 0.00675773 0 0)
(0.0542909 -0.0106833 0 0.00824024 0 0)
(0.059077 -0.0133476 0 0.01009 0 0)
(0.0647775 -0.0167335 0 0.0124495 0 0)
(0.0716452 -0.021129 0 0.0155334 0 0)
(0.0799949 -0.027001 0 0.0196648 0 0)
(0.0899935 -0.0349607 0 0.0254877 0 0)
(0.101761 -0.0457888 0 0.0339048 0 0)
(0.1147 -0.0603387 0 0.046547 0 0)
(0.127986 -0.0793409 0 0.065425 0 0)
(0.13876 -0.102793 0 0.0938948 0 0)
(0.144977 -0.129326 0 0.134566 0 0)
(0.141363 -0.154921 0 0.191023 0 0)
(0.00520244 -0.00131537 0 0.00225675 0 0)
(0.0459789 -0.0069228 0 0.00284221 0 0)
(0.0459657 -0.00725196 0 0.00386533 0 0)
(0.043339 -0.00682068 0 0.00507946 0 0)
(0.0459514 -0.00735641 0 0.00645039 0 0)
(0.0493561 -0.0088583 0 0.00795657 0 0)
(0.0529257 -0.0109865 0 0.00970666 0 0)
(0.0569739 -0.0136481 0 0.01187 0 0)
(0.0616933 -0.0170092 0 0.0146354 0 0)
(0.0672599 -0.0213691 0 0.0182717 0 0)
(0.0738746 -0.0271456 0 0.0231415 0 0)
(0.0815261 -0.0348092 0 0.0299066 0 0)
(0.0900892 -0.0448924 0 0.0394292 0 0)
(0.0988144 -0.0578199 0 0.0531602 0 0)
(0.106866 -0.0737897 0 0.0726583 0 0)
(0.112012 -0.0922102 0 0.100373 0 0)
(0.113189 -0.111599 0 0.137612 0 0)
(0.107046 -0.128636 0 0.186407 0 0)
(0.0057395 -0.00161293 0 0.00246968 0 0)
(0.0461973 -0.00792653 0 0.00323208 0 0)
(0.045249 -0.00837205 0 0.00428415 0 0)
(0.0420284 -0.00774996 0 0.00559482 0 0)
(0.0442973 -0.00818476 0 0.00712555 0 0)
(0.047422 -0.00966756 0 0.00886942 0 0)
(0.0506244 -0.0117888 0 0.0109088 0 0)
(0.0541444 -0.0144243 0 0.0134198 0 0)
(0.0581458 -0.0177229 0 0.0166132 0 0)
(0.0627409 -0.0219613 0 0.0207907 0 0)
(0.0679862 -0.0274781 0 0.0263269 0 0)
(0.0737283 -0.0345985 0 0.0338463 0 0)
(0.0796823 -0.0436118 0 0.0441126 0 0)
(0.085131 -0.0546362 0 0.0583442 0 0)
(0.0893333 -0.0674971 0 0.0776799 0 0)
(0.0907471 -0.0813864 0 0.10381 0 0)
(0.0888992 -0.094891 0 0.137206 0 0)
(0.0818076 -0.105559 0 0.178992 0 0)
(0.00496176 -0.00133782 0 0.00278836 0 0)
(0.0447648 -0.00766149 0 0.00363626 0 0)
(0.0437178 -0.00806601 0 0.00475909 0 0)
(0.0404313 -0.00724731 0 0.00622137 0 0)
(0.0423642 -0.00751539 0 0.00793305 0 0)
(0.0448981 -0.00889941 0 0.00991473 0 0)
(0.0473997 -0.0109275 0 0.0122482 0 0)
(0.050163 -0.0134135 0 0.0150969 0 0)
(0.0532899 -0.0164631 0 0.018691 0 0)
(0.0567821 -0.0203077 0 0.0233446 0 0)
(0.0605755 -0.0252148 0 0.0294316 0 0)
(0.0644347 -0.0313849 0 0.0375306 0 0)
(0.0680439 -0.0389412 0 0.0482882 0 0)
(0.0708063 -0.0477813 0 0.0626856 0 0)
(0.0722071 -0.0575532 0 0.0814869 0 0)
(0.0712112 -0.0673635 0 0.10585 0 0)
(0.0678109 -0.076053 0 0.135725 0 0)
(0.0606524 -0.0816922 0 0.171834 0 0)
(0.00501849 -0.00209443 0 0.00308431 0 0)
(0.0457141 -0.00867462 0 0.00403106 0 0)
(0.0443508 -0.00902379 0 0.00522224 0 0)
(0.0406406 -0.00812502 0 0.00677807 0 0)
(0.0422656 -0.00836433 0 0.00862733 0 0)
(0.0445615 -0.00975938 0 0.0108085 0 0)
(0.0467668 -0.0117962 0 0.0133974 0 0)
(0.0490681 -0.0142314 0 0.0165388 0 0)
(0.0515161 -0.0171183 0 0.0204506 0 0)
(0.0540908 -0.0206357 0 0.0254401 0 0)
(0.0567073 -0.0249831 0 0.0318659 0 0)
(0.0591351 -0.0302623 0 0.0402449 0 0)
(0.06108 -0.0364762 0 0.0510969 0 0)
(0.062065 -0.0433903 0 0.065181 0 0)
(0.0617352 -0.0505898 0 0.0829553 0 0)
(0.0594289 -0.057221 0 0.105208 0 0)
(0.0553779 -0.0623968 0 0.131583 0 0)
(0.0486807 -0.064632 0 0.162597 0 0)
(0.00520993 -0.00192992 0 0.00351568 0 0)
(0.0448037 -0.00845371 0 0.00456594 0 0)
(0.0431759 -0.00870294 0 0.0059964 0 0)
(0.0394848 -0.00763322 0 0.00772924 0 0)
(0.0409187 -0.00768798 0 0.00975233 0 0)
(0.0427476 -0.00890309 0 0.0121568 0 0)
(0.0442841 -0.0107238 0 0.0150145 0 0)
(0.0457775 -0.0128478 0 0.0184513 0 0)
(0.0472798 -0.0152659 0 0.0226635 0 0)
(0.0487365 -0.0180984 0 0.0279471 0 0)
(0.0500514 -0.021495 0 0.0346348 0 0)
(0.0510352 -0.0254809 0 0.0431644 0 0)
(0.0514574 -0.0299623 0 0.0539083 0 0)
(0.0509893 -0.0346132 0 0.0674021 0 0)
(0.0494456 -0.0390247 0 0.083833 0 0)
(0.0464928 -0.0424588 0 0.103692 0 0)
(0.0425127 -0.0443314 0 0.126425 0 0)
(0.036905 -0.0435505 0 0.152429 0 0)
(0.00540965 -0.00157382 0 0.00355387 0 0)
(0.0445787 -0.00931038 0 0.00507995 0 0)
(0.0425596 -0.00975225 0 0.00682901 0 0)
(0.0383701 -0.00854585 0 0.00881952 0 0)
(0.0393568 -0.00842771 0 0.0110351 0 0)
(0.040746 -0.00946099 0 0.0136093 0 0)
(0.0417946 -0.0110541 0 0.0166366 0 0)
(0.0426874 -0.0128495 0 0.0202123 0 0)
(0.0434525 -0.0147939 0 0.0245049 0 0)
(0.0440645 -0.0169739 0 0.0297999 0 0)
(0.0444518 -0.0194736 0 0.0363983 0 0)
(0.0444559 -0.0222368 0 0.0446475 0 0)
(0.0438931 -0.0250993 0 0.0547728 0 0)
(0.0425811 -0.0277153 0 0.0671095 0 0)
(0.0404816 -0.0297293 0 0.0816318 0 0)
(0.0375137 -0.0305621 0 0.0986095 0 0)
(0.0341129 -0.0298749 0 0.117398 0 0)
(0.0298914 -0.0269233 0 0.138337 0 0)
(0.00549822 -0.00163447 0 0.00394777 0 0)
(0.043898 -0.00927292 0 0.00541074 0 0)
(0.0412225 -0.00963645 0 0.0069871 0 0)
(0.0366523 -0.00817471 0 0.00897842 0 0)
(0.0372209 -0.00773261 0 0.0113155 0 0)
(0.0380906 -0.00839719 0 0.0140423 0 0)
(0.0385954 -0.00952136 0 0.0172225 0 0)
(0.0389272 -0.0107023 0 0.0209585 0 0)
(0.0390665 -0.0118644 0 0.025402 0 0)
(0.0389562 -0.0130636 0 0.0307594 0 0)
(0.0385499 -0.0143363 0 0.037216 0 0)
(0.0377822 -0.0155817 0 0.0449809 0 0)
(0.0365909 -0.0166203 0 0.0541415 0 0)
(0.0349502 -0.0171377 0 0.0648734 0 0)
(0.0329257 -0.0168818 0 0.0770384 0 0)
(0.0305843 -0.0154372 0 0.0908014 0 0)
(0.028308 -0.0126851 0 0.105573 0 0)
(0.0258281 -0.00811552 0 0.1217 0 0)
(0.00640757 -0.00156516 0 0.00402286 0 0)
(0.0452387 -0.00956874 0 0.00558458 0 0)
(0.0418798 -0.010135 0 0.00736551 0 0)
(0.0366689 -0.00863903 0 0.0095551 0 0)
(0.0366638 -0.00803863 0 0.012002 0 0)
(0.0369529 -0.00846868 0 0.0147746 0 0)
(0.0368738 -0.00925591 0 0.0179342 0 0)
(0.036635 -0.00995238 0 0.0215499 0 0)
(0.0362261 -0.0104413 0 0.0257397 0 0)
(0.0356124 -0.0107543 0 0.0306595 0 0)
(0.0347843 -0.0109213 0 0.0364248 0 0)
(0.0337385 -0.0108568 0 0.0431525 0 0)
(0.0324737 -0.0104246 0 0.0508431 0 0)
(0.0310503 -0.00939131 0 0.0595694 0 0)
(0.0295628 -0.00761929 0 0.0691405 0 0)
(0.028145 -0.00483777 0 0.0796603 0 0)
(0.0270825 -0.00107833 0 0.090611 0 0)
(0.0261976 0.004038 0 0.102333 0 0)
(0.00555121 -0.00155588 0 0.00387359 0 0)
(0.0437984 -0.00983026 0 0.00556489 0 0)
(0.0406415 -0.010465 0 0.00697801 0 0)
(0.0353639 -0.00893751 0 0.00884515 0 0)
(0.0349359 -0.0082285 0 0.0110447 0 0)
(0.0345602 -0.00835418 0 0.0135652 0 0)
(0.0337971 -0.00865491 0 0.0164243 0 0)
(0.0330056 -0.00874982 0 0.0196524 0 0)
(0.0322161 -0.0085588 0 0.0233002 0 0)
(0.031384 -0.0081093 0 0.0274487 0 0)
(0.0304998 -0.00740308 0 0.0321588 0 0)
(0.0295873 -0.00635325 0 0.0374931 0 0)
(0.0286807 -0.00485271 0 0.0434166 0 0)
(0.0278823 -0.00275492 0 0.0499511 0 0)
(0.0272875 -3.73329e-06 0 0.0569076 0 0)
(0.0270422 0.00353887 0 0.0643484 0 0)
(0.0273277 0.00779236 0 0.0718519 0 0)
(0.0280445 0.0129671 0 0.0796937 0 0)
(0.00573748 -0.0012079 0 0.00376788 0 0)
(0.0441904 -0.00939642 0 0.00484088 0 0)
(0.04001 -0.00951003 0 0.00610018 0 0)
(0.0339901 -0.0074811 0 0.00778184 0 0)
(0.0331561 -0.00620963 0 0.009638 0 0)
(0.0324285 -0.00573517 0 0.0117144 0 0)
(0.0314124 -0.00542844 0 0.0140488 0 0)
(0.0305236 -0.00490862 0 0.0166212 0 0)
(0.0297927 -0.00406606 0 0.0194053 0 0)
(0.0291617 -0.00291178 0 0.022425 0 0)
(0.0286221 -0.00146546 0 0.0257246 0 0)
(0.0282212 0.000310257 0 0.0293544 0 0)
(0.0280293 0.00246549 0 0.0332852 0 0)
(0.0281712 0.00507586 0 0.0375134 0 0)
(0.0287367 0.00814686 0 0.041897 0 0)
(0.0298444 0.0117441 0 0.0464675 0 0)
(0.0315894 0.0157661 0 0.0509481 0 0)
(0.0339007 0.0203323 0 0.0555226 0 0)
(0.00546934 -0.00165238 0 0.00398734 0 0)
(0.0433061 -0.008763 0 0.00478292 0 0)
(0.0386354 -0.00833544 0 0.00568035 0 0)
(0.0325428 -0.00626804 0 0.00701364 0 0)
(0.0314808 -0.00495766 0 0.00843736 0 0)
(0.0305512 -0.00436042 0 0.00997796 0 0)
(0.0294188 -0.0038924 0 0.0116997 0 0)
(0.028493 -0.00318229 0 0.013612 0 0)
(0.0278092 -0.00211172 0 0.0156909 0 0)
(0.0273309 -0.00070538 0 0.0179152 0 0)
(0.0270768 0.000978943 0 0.0202603 0 0)
(0.0271148 0.00292007 0 0.0227148 0 0)
(0.0275193 0.00512329 0 0.025241 0 0)
(0.0283889 0.00762558 0 0.0278455 0 0)
(0.0297895 0.0104246 0 0.0304554 0 0)
(0.0317913 0.0135579 0 0.0331267 0 0)
(0.0344523 0.0169515 0 0.0357073 0 0)
(0.0377066 0.0206828 0 0.0383336 0 0)
(0.00573782 -0.00153195 0 0.00337261 0 0)
(0.0434524 -0.00777253 0 0.00394779 0 0)
(0.0384619 -0.0071832 0 0.00460183 0 0)
(0.032235 -0.00510025 0 0.00554853 0 0)
(0.0310782 -0.00367762 0 0.0065722 0 0)
(0.030072 -0.00284281 0 0.00765276 0 0)
(0.0289778 -0.00210396 0 0.00879856 0 0)
(0.0282346 -0.00117703 0 0.0100127 0 0)
(0.0278495 2.09144e-05 0 0.0113039 0 0)
(0.0277599 0.00147661 0 0.0126825 0 0)
(0.0279991 0.00315184 0 0.0141416 0 0)
(0.0286518 0.00502258 0 0.0156687 0 0)
(0.0297873 0.00707897 0 0.0172285 0 0)
(0.0314613 0.00932736 0 0.0188148 0 0)
(0.0336991 0.0117544 0 0.0203765 0 0)
(0.0365176 0.0143727 0 0.0219447 0 0)
(0.0399559 0.0171364 0 0.0234349 0 0)
(0.0439318 0.0200882 0 0.0249276 0 0)
(0.0050154 -0.00110163 0 0.00301633 0 0)
(0.0423592 -0.00646126 0 0.00304172 0 0)
(0.0371139 -0.00599596 0 0.00363522 0 0)
(0.0308524 -0.00404631 0 0.00435741 0 0)
(0.0296578 -0.00260508 0 0.00512104 0 0)
(0.0286515 -0.00172415 0 0.0059784 0 0)
(0.0276653 -0.000970946 0 0.00691468 0 0)
(0.0271447 -3.99875e-05 0 0.00790153 0 0)
(0.0271025 0.00117358 0 0.0089183 0 0)
(0.0274946 0.00264178 0 0.00995529 0 0)
(0.0283397 0.00429525 0 0.0110027 0 0)
(0.0296847 0.00608741 0 0.0120601 0 0)
(0.0315703 0.00799989 0 0.0131121 0 0)
(0.0340388 0.0100397 0 0.0141604 0 0)
(0.0371084 0.0122015 0 0.0151693 0 0)
(0.0407998 0.0145037 0 0.0161646 0 0)
(0.0451419 0.0168962 0 0.0170792 0 0)
(0.0500826 0.0194186 0 0.0179716 0 0)
(0.00601287 -0.00112051 0 0.0028231 0 0)
(0.0419486 -0.0057119 0 0.00281634 0 0)
(0.0365264 -0.00497475 0 0.00307044 0 0)
(0.030296 -0.00307024 0 0.00343699 0 0)
(0.0290105 -0.00175371 0 0.00383905 0 0)
(0.0277897 -0.000997323 0 0.00426533 0 0)
(0.0266099 -0.000381336 0 0.0047062 0 0)
(0.0260697 0.000361027 0 0.00517263 0 0)
(0.0262249 0.00131688 0 0.00568414 0 0)
(0.0269706 0.0024674 0 0.00624483 0 0)
(0.0282568 0.00376032 0 0.00683794 0 0)
(0.0300747 0.00515335 0 0.00744143 0 0)
(0.0324219 0.00662649 0 0.00803243 0 0)
(0.0353225 0.00818025 0 0.00860697 0 0)
(0.0388118 0.00980218 0 0.00914137 0 0)
(0.0429171 0.0114978 0 0.00965341 0 0)
(0.047679 0.0132285 0 0.0101075 0 0)
(0.053039 0.0150155 0 0.0105357 0 0)
(0.00577115 -0.00125113 0 0.00259752 0 0)
(0.042065 -0.0054233 0 0.00260587 0 0)
(0.0357586 -0.00427766 0 0.00270834 0 0)
(0.0293652 -0.00226414 0 0.00305993 0 0)
(0.0284909 -0.000858501 0 0.00344453 0 0)
(0.0277282 -5.5492e-05 0 0.0037947 0 0)
(0.0269021 0.00053576 0 0.00410311 0 0)
(0.0266663 0.00120473 0 0.00439805 0 0)
(0.0271593 0.0020641 0 0.00470895 0 0)
(0.0283093 0.00310382 0 0.00504442 0 0)
(0.0300579 0.00427249 0 0.0053913 0 0)
(0.0323953 0.00552582 0 0.00573746 0 0)
(0.0353486 0.0068388 0 0.00607399 0 0)
(0.0389514 0.00819973 0 0.00640114 0 0)
(0.0432269 0.009584 0 0.00669664 0 0)
(0.0481458 0.0109804 0 0.00697082 0 0)
(0.0537293 0.0123536 0 0.00719212 0 0)
(0.05985 0.0137236 0 0.00737872 0 0)
(0.00581698 -0.00133513 0 0.00220517 0 0)
(0.0410149 -0.00449802 0 0.00190738 0 0)
(0.0338986 -0.00328876 0 0.00178734 0 0)
(0.027399 -0.00169445 0 0.00188271 0 0)
(0.0266495 -0.000614971 0 0.00200658 0 0)
(0.0261456 2.04462e-05 0 0.00209078 0 0)
(0.0257917 0.00047422 0 0.00218305 0 0)
(0.0262079 0.000954932 0 0.00232272 0 0)
(0.0273963 0.00155876 0 0.0025039 0 0)
(0.0291846 0.00228274 0 0.00269656 0 0)
(0.031529 0.00308155 0 0.00287628 0 0)
(0.0344986 0.00392008 0 0.00303675 0 0)
(0.038183 0.00478193 0 0.00317825 0 0)
(0.0426226 0.00566063 0 0.00330546 0 0)
(0.0478245 0.00654451 0 0.00341402 0 0)
(0.0537183 0.00742621 0 0.00351538 0 0)
(0.060299 0.00828159 0 0.0035992 0 0)
(0.0673987 0.00913118 0 0.00367124 0 0)
(0.00568125 -0.00104872 0 0.00188469 0 0)
(0.040474 -0.00347154 0 0.00130886 0 0)
(0.0327177 -0.00277396 0 0.00123806 0 0)
(0.026381 -0.00138903 0 0.00144093 0 0)
(0.0259191 -0.000299597 0 0.00155855 0 0)
(0.0256308 0.000333133 0 0.0015679 0 0)
(0.0256248 0.000764256 0 0.00155776 0 0)
(0.0265815 0.00120989 0 0.00158711 0 0)
(0.0284548 0.00175766 0 0.00164987 0 0)
(0.0310264 0.00239876 0 0.00172175 0 0)
(0.0342364 0.00309004 0 0.00178821 0 0)
(0.038142 0.00379171 0 0.00184444 0 0)
(0.0428041 0.00447853 0 0.00189027 0 0)
(0.0482276 0.00514062 0 0.00193099 0 0)
(0.0543843 0.00577023 0 0.00196595 0 0)
(0.0611908 0.00637336 0 0.00200158 0 0)
(0.0686466 0.00693451 0 0.00202991 0 0)
(0.0766109 0.00747509 0 0.00205245 0 0)
(0.00422186 -0.000645296 0 0.00167914 0 0)
(0.0383598 -0.00165784 0 0.000831824 0 0)
(0.0308643 -0.00103518 0 0.000573911 0 0)
(0.0253201 -0.000306463 0 0.000604508 0 0)
(0.0254132 0.000234633 0 0.000617939 0 0)
(0.0255398 0.000493082 0 0.000613719 0 0)
(0.0259665 0.000625687 0 0.000622102 0 0)
(0.0274006 0.000759136 0 0.000640846 0 0)
(0.0297845 0.000939996 0 0.000662608 0 0)
(0.0329201 0.00116102 0 0.00068278 0 0)
(0.0367906 0.00139657 0 0.000699435 0 0)
(0.0414677 0.00162334 0 0.000714351 0 0)
(0.046986 0.00182796 0 0.000728457 0 0)
(0.0533011 0.00200436 0 0.000742014 0 0)
(0.060343 0.00214742 0 0.000753161 0 0)
(0.0680012 0.00225897 0 0.000764343 0 0)
(0.0762795 0.00232646 0 0.000774309 0 0)
(0.0850282 0.00236402 0 0.000783574 0 0)
(0.00667403 -0.000773691 0 0.00114433 0 0)
(0.0385392 -0.00191702 0 0.000562552 0 0)
(0.0297945 -0.00140583 0 0.000553886 0 0)
(0.0249052 -0.000465366 0 0.000539297 0 0)
(0.025515 9.11868e-05 0 0.000452896 0 0)
(0.0259984 0.000337252 0 0.000381278 0 0)
(0.027043 0.000506077 0 0.000344896 0 0)
(0.0293937 0.000674485 0 0.000326098 0 0)
(0.0328632 0.000822257 0 0.000315041 0 0)
(0.0371504 0.000928549 0 0.000308014 0 0)
(0.0421864 0.00099784 0 0.000303184 0 0)
(0.0480232 0.00104327 0 0.00029977 0 0)
(0.0546727 0.00107285 0 0.000297874 0 0)
(0.0620858 0.00108228 0 0.000298316 0 0)
(0.0701528 0.00105953 0 0.000302756 0 0)
(0.078766 0.000989958 0 0.000314194 0 0)
(0.0878701 0.000862317 0 0.000333395 0 0)
(0.0973409 0.000678342 0 0.000358253 0 0)
(0.00441193 -0.000161701 0 0.000888924 0 0)
(0.0361477 0.000315729 0 0.000239138 0 0)
(0.027745 2.99415e-06 0 0.000191453 0 0)
(0.0235711 6.46241e-05 0 0.000198399 0 0)
(0.0249211 1.81408e-05 0 0.000214438 0 0)
(0.0261649 -0.000139121 0 0.000228572 0 0)
(0.0278695 -0.00034049 0 0.000241354 0 0)
(0.030669 -0.000557581 0 0.000255735 0 0)
(0.0342791 -0.000785023 0 0.000273375 0 0)
(0.0383004 -0.00102145 0 0.000293404 0 0)
(0.0425426 -0.00126317 0 0.000315238 0 0)
(0.0469747 -0.00150536 0 0.000339636 0 0)
(0.0515356 -0.00173807 0 0.000366946 0 0)
(0.0562124 -0.0019568 0 0.000397409 0 0)
(0.0608782 -0.00216064 0 0.000430408 0 0)
(0.0655664 -0.00236136 0 0.000467629 0 0)
(0.070111 -0.00256234 0 0.000509766 0 0)
(0.0746386 -0.00277588 0 0.000554378 0 0)
(0.00576243 -0.000444466 0 0.000722869 0 0)
(0.0386924 -0.000185031 0 0.000227373 0 0)
(0.0341386 -1.768e-05 0 0.0001419 0 0)
(0.0327308 0.000168622 0 9.98979e-05 0 0)
(0.0359698 0.000210931 0 8.09325e-05 0 0)
(0.0388783 0.000235872 0 7.27197e-05 0 0)
(0.0416385 0.000284457 0 6.9408e-05 0 0)
(0.0449349 0.000345594 0 6.96789e-05 0 0)
(0.0490005 0.000405379 0 7.24699e-05 0 0)
(0.0538606 0.000461709 0 7.73491e-05 0 0)
(0.0594781 0.000522389 0 8.45142e-05 0 0)
(0.0658042 0.000597769 0 9.3953e-05 0 0)
(0.0728651 0.000694801 0 0.000104587 0 0)
(0.0807147 0.000810995 0 0.000114759 0 0)
(0.0894961 0.000937507 0 0.000124342 0 0)
(0.0991308 0.00106564 0 0.000134988 0 0)
(0.109808 0.00119444 0 0.000146541 0 0)
(0.121163 0.00132918 0 0.000157468 0 0)
(0.000235723 -0.000580786 2.81221e-22 0.0014743 -5.6437e-22 3.73381e-37)
(0.0024431 -0.00203844 -8.54449e-22 0.00180625 5.53037e-22 3.68159e-37)
(0.00727743 -0.00346661 0 0.00176475 0 0)
(0.0146012 -0.00485656 0 0.00171703 0 0)
(0.0244237 -0.0062167 0 0.00166212 0 0)
(0.0367561 -0.00755277 3.12163e-21 0.00160772 -5.59983e-22 3.46779e-37)
(0.0516038 -0.0088739 0 0.00156291 0 0)
(0.0690327 -0.0101984 0 0.00153497 0 0)
(0.0891156 -0.0115443 0 0.00152827 0 0)
(0.111978 -0.0129276 0 0.00154428 0 0)
(0.137766 -0.0143615 -5.962e-21 0.00158376 5.71463e-22 3.21214e-37)
(0.166686 -0.0158623 0 0.00164832 0 0)
(0.198996 -0.0174541 0 0.00174185 0 0)
(0.235012 -0.0191713 0 0.00186931 0 0)
(0.275134 -0.0210537 0 0.00203583 0 0)
(0.319842 -0.0231512 -8.71182e-21 0.00224661 5.58387e-22 2.96902e-37)
(0.369695 -0.0255141 0 0.00250357 0 0)
(0.425343 -0.0281907 0 0.00280611 0 0)
(0.487497 -0.031221 0 0.00314914 0 0)
(0.556906 -0.0346186 0 0.00351975 0 0)
(0.634311 -0.0383746 0 0.0039032 0 0)
(0.720369 -0.0424392 0 0.00427902 0 0)
(0.815656 -0.0467381 0 0.00462999 0 0)
(0.920542 -0.051159 -1.2561e-20 0.00493668 4.70343e-22 2.60568e-37)
(1.03514 -0.0555573 1.29635e-20 0.00518052 -4.51663e-22 2.56248e-37)
(1.15929 -0.0597735 -1.3343e-20 0.00534722 4.31308e-22 2.51976e-37)
(1.29251 -0.0636298 -1.36979e-20 0.00542603 4.09392e-22 2.47753e-37)
(1.43395 -0.0669467 0 0.00541177 0 0)
(1.58238 -0.0695533 0 0.00530502 0 0)
(1.73619 -0.0712763 1.45994e-20 0.0051073 -3.3566e-22 2.3538e-37)
(1.89341 -0.0719843 1.48406e-20 0.00482977 -3.0901e-22 2.31353e-37)
(2.05169 -0.0715593 0 0.0044825 0 0)
(2.20846 -0.0699179 0 0.00407932 0 0)
(2.36086 -0.0670285 1.53684e-20 0.00363807 -2.25844e-22 2.19567e-37)
(2.50591 -0.0628934 0 0.00317535 0 0)
(2.64062 -0.057575 0 0.00271031 0 0)
(2.76205 -0.0511829 -1.55831e-20 0.00226041 1.42885e-22 2.08218e-37)
(2.86751 -0.0438809 0 0.00184273 0 0)
(2.95465 -0.0358728 -1.5548e-20 0.00147077 9.13047e-23 2.00894e-37)
(3.02159 -0.0273942 -3.0957e-20 0.0011549 1.34926e-22 7.89216e-37)
(3.06701 -0.0186946 0 0.000900874 0 0)
(3.09023 -0.0100231 0 0.0007103 0 0)
(3.09113 -0.00161479 0 0.000580719 0 0)
(3.07027 0.00633484 0 0.000505829 0 0)
(3.0288 0.0136789 0 0.000477249 0 0)
(2.96815 0.020317 -2.89073e-20 0.00048527 -7.37057e-23 7.07048e-37)
(2.89008 0.02617 -2.84146e-20 0.000521713 -9.46871e-23 6.9401e-37)
(2.79658 0.0311827 -2.78951e-20 0.000577792 -1.11949e-22 6.81158e-37)
(2.68984 0.0353281 0 0.000646634 0 0)
(2.57208 0.0385974 2.68002e-20 0.000720725 1.36342e-22 6.56002e-37)
(2.44558 0.0410156 0 0.000794871 0 0)
(2.31262 0.0426167 -2.56673e-20 0.000864146 -1.48927e-22 6.31572e-37)
(2.17536 0.043447 -2.50987e-20 0.000924296 -1.51488e-22 6.19625e-37)
(2.03591 0.0435636 0 0.000971954 0 0)
(1.89628 0.0430295 0 0.00100418 0 0)
(1.75826 0.0419308 0 0.00101986 0 0)
(1.62342 0.0403395 -2.28966e-20 0.00101751 -1.42992e-22 5.736e-37)
(1.49317 0.0383877 0 0.000999952 0 0)
(1.36861 0.0361302 0 0.000966346 0 0)
(1.25056 0.0336817 0 0.000920269 0 0)
(1.1396 0.0311052 0 0.00086319 0 0)
(1.03612 0.0285132 0 0.000800154 0 0)
(0.940275 0.0259399 0 0.000732347 0 0)
(0.851988 0.0234492 0 0.000663176 0 0)
(0.771136 0.0210588 0 0.000593584 0 0)
(0.697447 0.0188247 1.88541e-20 0.000527067 7.88931e-23 4.79919e-37)
(0.630537 0.0167438 0 0.000463755 0 0)
(0.570017 0.0148291 0 0.000404792 0 0)
(0.51546 0.0130877 -1.78111e-20 0.000350993 -5.88936e-23 4.51574e-37)
(0.466387 0.0115126 -1.74923e-20 0.00030238 -5.29735e-23 4.42431e-37)
(0.422301 0.0100874 0 0.000258423 0 0)
(0.382752 0.00881012 1.68931e-20 0.000219402 4.22443e-23 4.24592e-37)
(0.347354 0.00767098 -1.66112e-20 0.000185052 -3.74463e-23 4.15893e-37)
(0.315717 0.00665922 0 0.000155057 0 0)
(0.287479 0.00576377 1.60795e-20 0.000129055 2.89323e-23 3.98926e-37)
(0.2623 0.00497369 0 0.000106666 0 0)
(0.23987 0.00427849 0 8.75123e-05 0 0)
(0.219906 0.0036683 -1.53525e-20 7.12329e-05 -1.86333e-23 3.74528e-37)
(0.202151 0.00313393 0 5.74867e-05 0 0)
(0.186371 0.00266701 1.49084e-20 4.59593e-05 1.3213e-23 3.58943e-37)
(0.172355 0.00225988 0 3.63632e-05 0 0)
(0.159914 0.00190563 -1.44922e-20 2.84384e-05 -8.78728e-24 3.43887e-37)
(0.148877 0.00159806 -1.42934e-20 2.19513e-05 -6.90703e-24 3.36552e-37)
(0.139092 0.00133159 -1.41003e-20 1.66933e-05 -5.22735e-24 3.29344e-37)
(0.130421 0.00110124 -2.78252e-20 1.24786e-05 -7.46967e-24 1.28905e-36)
(0.122743 0.000902605 2.74598e-20 9.14295e-06 4.83043e-24 1.26121e-36)
(0.115947 0.000731725 0 6.54164e-06 0 0)
(0.109936 0.000585126 0 4.54797e-06 0 0)
(0.104622 0.000459707 0 3.05142e-06 0 0)
(0.0999279 0.000352748 2.60857e-20 1.95648e-06 -2.77368e-24 1.15465e-36)
(0.0957845 0.00026185 2.57613e-20 1.18118e-06 -4.05402e-24 1.12917e-36)
(0.0921302 0.000184922 -2.54436e-20 6.55895e-07 5.12899e-24 1.10415e-36)
(0.0889101 0.000120133 0 3.22004e-07 0 0)
(0.0860755 6.59304e-05 2.48265e-20 1.30876e-07 -6.75049e-24 1.05544e-36)
(0.083583 2.09405e-05 2.45262e-20 4.25512e-08 -7.32934e-24 1.03174e-36)
(0.0813941 -1.6092e-05 2.4231e-20 2.47769e-08 -7.77624e-24 1.00846e-36)
(0.0794743 -4.63069e-05 0 5.21833e-08 0 0)
(0.0777933 -7.06976e-05 0 1.05406e-07 0 0)
(0.0763239 -9.01617e-05 0 1.70207e-07 0 0)
(0.0750424 -0.000105473 2.30942e-20 2.36573e-07 -8.56354e-24 9.19496e-37)
(0.0739275 -0.00011731 0 2.97937e-07 0 0)
(0.0729606 -0.000126265 0 3.5032e-07 0 0)
(0.0721253 -0.000132872 -2.22809e-20 3.91837e-07 8.46058e-24 8.56949e-37)
(0.0714072 -0.000137572 0 4.21917e-07 0 0)
(0.0707934 -0.000140745 0 4.40921e-07 0 0)
(0.070273 -0.000142774 -2.14951e-20 4.50363e-07 8.04837e-24 7.97804e-37)
(0.0698362 -0.000143939 0 4.51576e-07 0 0)
(0.0694747 -0.000144601 0 4.47298e-07 0 0)
(0.0691817 -0.000145006 2.07328e-20 4.39704e-07 -7.51242e-24 7.41904e-37)
(0.068951 -0.000145369 2.04834e-20 4.30983e-07 -7.3264e-24 7.23967e-37)
(0.0687794 -0.000145962 0 4.24703e-07 0 0)
(0.0686626 -0.000146596 -1.99912e-20 4.20228e-07 6.9615e-24 6.89102e-37)
(0.0685948 -0.000146925 0 4.15145e-07 0 0)
(0.0685711 -0.000146822 1.9507e-20 4.08467e-07 -6.57239e-24 6.55549e-37)
(0.0685871 -0.000146311 0 4.00497e-07 0 0)
(0.0686385 -0.000145405 1.90304e-20 3.91368e-07 -6.15736e-24 6.23268e-37)
(0.0687212 -0.000144124 1.87947e-20 3.81182e-07 -5.94567e-24 6.07591e-37)
(0.0688318 -0.000142471 0 3.69895e-07 0 0)
(0.0689671 -0.000140386 0 3.56853e-07 0 0)
(0.0691241 -0.000137846 0 3.41823e-07 0 0)
(0.0693002 -0.000135029 0 3.26008e-07 0 0)
(0.0694931 -0.000132051 0 3.10177e-07 0 0)
(0.0697005 -0.000128919 0 2.94303e-07 0 0)
(0.0699203 -0.000125615 0 2.78187e-07 0 0)
(0.0701504 -0.000122127 1.69663e-20 2.61723e-07 -4.26748e-24 4.92685e-37)
(0.0703888 -0.000118456 -1.67444e-20 2.44881e-07 4.07615e-24 4.79566e-37)
(0.0706336 -0.0001146 0 2.27658e-07 0 0)
(0.070883 -0.000110589 0 2.10233e-07 0 0)
(0.0711355 -0.000106497 0 1.93035e-07 0 0)
(0.07139 -0.000102443 0 1.76641e-07 0 0)
(0.0716455 -9.85414e-05 -3.13096e-20 1.61558e-07 6.47469e-24 1.67126e-36)
(0.0719018 -9.48846e-05 0 1.48085e-07 0 0)
(0.0721587 -9.15133e-05 3.04561e-20 1.36265e-07 -5.94239e-24 1.57933e-36)
(0.0724164 -8.84301e-05 -3.00332e-20 1.25959e-07 5.70623e-24 1.53477e-36)
(0.0726751 -8.56044e-05 0 1.16933e-07 0 0)
(0.072935 -8.30021e-05 0 1.08961e-07 0 0)
(0.0731964 -8.05905e-05 0 1.01861e-07 0 0)
(0.0734594 -7.8352e-05 2.83663e-20 9.55123e-08 -4.93918e-24 1.36558e-36)
(0.0737242 -7.62792e-05 2.79557e-20 8.98399e-08 -4.78452e-24 1.32547e-36)
(0.0739909 -7.43667e-05 0 8.47804e-08 0 0)
(0.0742595 -7.26141e-05 2.71419e-20 8.02909e-08 -4.50912e-24 1.24778e-36)
(0.0745303 -7.10119e-05 2.67386e-20 7.63105e-08 -4.38675e-24 1.21017e-36)
(0.0748033 -6.95563e-05 -2.63376e-20 7.27942e-08 4.27166e-24 1.17337e-36)
(0.0750785 -6.82367e-05 0 6.9688e-08 0 0)
(0.0753562 -6.70489e-05 0 6.69537e-08 0 0)
(0.0756365 -6.59826e-05 -2.51489e-20 6.45468e-08 3.96321e-24 1.06767e-36)
(0.0759193 -6.50338e-05 0 6.24377e-08 0 0)
(0.076205 -6.4194e-05 0 6.05926e-08 0 0)