/*--------------------------------*- C++ -*----------------------------------*\
  =========                 |
  \\      /  F ield         | OpenFOAM: The Open Source CFD Toolbox
   \\    /   O peration     | Website:  https://openfoam.org
    \\  /    A nd           | Version:  7
     \\/     M anipulation  |
\*---------------------------------------------------------------------------*/
FoamFile
{
    version     2.0;
    format      ascii;
    class       volScalarField;
    location    "18";
    object      p;
}
// * * * * * * * * * * * * * * * * * * * * * * * * * * * * * * * * * * * * * //

dimensions      [0 2 -2 0 0 0 0];

internalField   nonuniform List<scalar> 
918
(
3.86855
17.0816
0.192878
3.79404
0.154757
16.1746
1.05874
2.62146
3.33299
0.545434
0.598452
2.73032
12.1845
6.34175
1.48865
0.185909
2.67115
0.45978
3.23145
0.276306
2.08204
3.49764
3.62316
3.35349
2.6854
3.37444
8.89991
0.280148
0.0299179
0.109378
0.137589
0.0813769
0.0142105
13.5631
14.6977
15.1509
2.87637
1.16706
1.18447
1.2607
0.964038
0.849572
2.62865
2.64259
1.69951
2.6154
2.60885
3.01647
3.31711
3.33431
3.37856
3.34339
3.39002
1.32204
0.512327
0.476525
0.56051
0.583918
0.599836
0.616403
0.606955
0.569649
0.535924
2.68073
2.74176
2.74979
2.71448
2.70563
15.3527
14.4191
15.0491
12.9964
13.3492
11.3783
10.6029
6.87324
7.34397
5.85339
5.28727
1.02343
0.727027
1.83697
2.25933
0.0266655
0.222264
0.253596
2.673
2.67781
2.67404
2.67408
1.92417
0.498627
0.524871
3.15719
3.10551
3.49233
3.5431
3.42483
3.44381
0.308361
0.314515
0.260035
0.24109
0.193889
2.40297
2.51082
3.30504
3.21771
2.69656
2.68346
2.68968
2.39364
2.66154
2.66882
4.51329
4.85452
3.9612
4.43382
8.28832
7.64541
9.65677
10.3446
0.0926633
0.0382485
0.133935
0.0501015
0.0949574
2.86001
2.83532
2.88601
2.8976
2.92712
0.947985
0.689608
1.30978
1.41871
1.35973
1.43331
0.587681
0.758792
0.664228
1.91648
2.6471
2.65346
1.52004
1.65073
1.58083
1.76893
1.82193
2.94312
2.99288
2.96324
3.14385
3.04873
3.09161
3.4088
3.34038
3.38023
1.41199
1.48434
1.23382
1.15157
0.450137
0.458705
0.457451
0.609586
0.623113
0.646598
0.684618
0.542076
0.511913
0.626453
0.620634
0.623668
0.49302
0.456653
2.64848
2.62251
2.71191
2.73423
2.82042
2.80249
2.76467
2.78639
9.42213
9.94812
10.0881
9.46142
-0.415269
-1.28619
2.60741
2.92046
0.064972
0.0497143
0.0255141
0.0536464
0.0714523
0.0201447
0.409866
0.376691
0.292222
0.347179
2.67561
2.67181
1.97983
2.03687
1.88575
1.82409
2.97391
2.9921
3.06294
3.0187
0.423604
0.351316
0.386772
2.59058
2.54692
2.5759
2.32911
2.26207
2.44977
2.48457
2.67066
2.67374
2.67317
4.87922
5.25606
10.6464
11.066
11.1357
11.6987
13.3358
13.0798
12.0776
2.76004
2.81067
2.79008
2.95208
2.90515
2.93309
2.83449
2.87133
2.85358
0.473184
0.29521
1.71225
1.647
1.48808
1.56648
1.9385
1.9655
2.66872
2.6583
2.66441
1.88981
1.951
1.05225
0.971372
2.5201
2.59932
2.56066
8.77927
7.86798
8.92376
8.36304
7.69436
8.17543
-0.0132897
-0.783133
-0.335293
4.08005
3.28423
3.70695
0.488705
0.423951
0.449581
2.06376
2.04993
1.57386
1.73472
1.65109
5.62768
6.12016
7.05527
5.844
6.46419
7.05673
6.75745
1.87234
1.78256
1.82685
2.0452
2.06704
2.18503
2.02269
2.09341
0.747603
0.898565
0.832064
2.06203
2.06078
2.0558
3.26265
3.32617
0.17555
0.257017
3.37476
3.35221
0.0119999
0.0424639
3.29121
1.2832
1.87576
3.08165
3.01783
3.30161
0.568004
1.37311
0.632023
0.687938
0.541983
2.75383
2.72082
2.61122
0.0960573
0.253583
0.337849
0.602393
3.22892
3.1512
3.28628
3.32369
3.32892
0.138956
0.186675
0.122686
0.273641
0.21798
0.259298
2.88114
2.88785
1.2561
3.28613
3.3225
3.32495
3.13576
3.25336
3.14224
0.194847
0.119187
0.137626
2.22071
2.4636
3.14952
2.69834
3.09719
3.06285
2.78361
4.01463
3.53166
3.56835
4.0031
2.64626
2.61786
1.92131
1.75464
1.97425
1.9464
3.06521
3.02105
2.99594
2.96952
3.19029
3.13257
3.23573
3.15838
3.21263
3.25115
0.56457
0.588235
0.550901
0.479518
1.37429
1.50042
1.21218
1.23868
0.901692
0.58226
0.573341
0.606653
0.58891
0.625391
0.534224
0.601015
0.525045
0.481975
0.467659
0.607853
0.541656
0.532288
2.75581
2.75027
2.71892
2.72283
2.737
2.75237
2.63675
2.68257
2.64333
2.49953
2.56659
2.51508
0.146393
0.130644
0.108743
0.264928
0.280541
0.227647
0.172402
0.24264
0.228103
0.176822
0.307424
0.308904
0.704251
0.643141
2.03838
1.85852
1.47475
3.0417
3.12701
3.03743
3.18139
3.23354
3.24707
3.1994
3.13665
2.90152
2.90167
2.85403
2.84935
1.26835
1.0602
1.39752
1.3964
1.33742
2.67609
2.42791
2.30584
2.34601
2.59784
3.15209
2.30315
2.15873
2.16019
1.62186
2.49856
1.8848
2.39349
2.25086
4.87313
5.27606
4.87069
4.37272
4.45581
0.499961
2.54795
1.60194
1.58452
1.83473
1.75546
2.53832
2.6443
2.64532
2.58584
2.60019
2.62083
2.60507
2.6228
2.62565
2.61888
2.42704
2.22151
2.09299
2.10032
2.67001
2.46777
2.53151
2.46534
2.94639
3.01004
2.96658
2.89642
2.94889
2.89246
2.8842
2.91453
3.08126
3.0474
3.0225
3.06952
0.608807
0.606791
0.674376
0.65179
0.588071
0.545482
0.664943
0.974941
0.896392
1.45725
1.5264
0.919816
0.751032
0.734663
0.944488
1.13596
1.13708
0.851759
0.961966
1.05134
0.959847
1.14458
1.03653
0.599837
0.641723
0.622925
0.622218
0.696829
0.810232
0.715524
0.521461
0.563787
0.522261
0.484249
0.733996
0.639289
0.647508
0.768438
0.238641
0.269729
0.303006
0.501666
0.396271
0.427291
2.82898
2.78428
2.80252
2.70257
2.71477
2.70612
2.65678
2.84129
2.80551
2.82273
2.65471
2.66907
2.64024
2.67485
2.72434
2.75808
2.86434
2.83224
2.73733
2.75773
2.71451
2.70493
2.61836
2.56095
2.54895
0.218632
0.162062
0.196786
0.181307
0.122564
0.154585
0.442589
0.33459
0.401936
0.355215
0.401311
0.295732
0.27227
0.892143
1.0128
1.03961
0.834829
0.836363
2.01629
2.01798
1.87449
1.75583
1.82291
1.91967
1.9328
1.61143
1.74009
1.68651
1.92137
2.06114
3.12806
3.12062
3.08508
3.06377
3.09005
1.39548
1.63902
1.69409
1.81427
1.2642
1.43893
1.79782
1.67252
1.88589
1.458
2.67162
2.68044
2.62676
2.6723
2.67701
2.42048
2.52299
2.59547
2.56906
2.63944
2.65022
2.55464
2.6118
2.59708
2.52177
2.52204
2.46025
2.49166
2.43847
2.41803
2.69131
2.67766
2.71063
2.65414
2.69455
2.63483
2.67088
2.68424
2.70311
2.60645
2.53597
2.53738
2.58417
2.5591
2.59926
2.6179
1.8025
1.87884
1.38275
1.03542
1.15583
0.589572
0.530569
0.869204
1.33649
0.710914
0.436704
-0.180109
2.4728
3.04784
2.6239
2.54623
2.57719
2.59837
2.58505
2.55146
2.55885
2.64938
2.65762
2.66473
2.56361
2.57089
2.58765
2.57144
2.48618
2.24868
2.23034
2.15929
1.90743
1.95817
2.32368
2.1994
2.07107
2.0789
2.44804
2.2954
2.39022
2.42144
2.27924
2.2357
2.53741
2.62576
2.65152
2.61905
2.42817
2.44554
2.49016
2.54042
2.56505
2.61306
2.92172
2.98784
2.99946
2.9669
2.94691
2.95828
2.92504
2.93941
2.99884
3.01487
2.99443
0.628188
0.644702
0.611098
0.609529
0.591665
0.559937
0.776992
0.742392
0.66537
0.691898
0.640757
0.673811
0.623162
0.633595
1.01121
1.06572
1.1325
1.01442
1.30229
1.53378
1.64214
1.5351
1.20194
1.23043
1.34928
0.733632
0.731476
0.690357
0.76392
0.785389
0.585407
0.513559
0.462504
0.557333
0.582861
0.446833
0.377613
0.401677
0.489027
0.458265
0.399212
2.81098
2.78417
2.78065
2.75392
2.76231
2.80871
2.83554
2.80945
2.82713
2.83298
2.7832
2.76828
2.79039
0.376925
0.315253
0.341924
0.346511
0.346189
0.327366
0.355202
1.47842
1.25178
1.35821
1.20112
0.944745
1.00246
1.62213
1.8528
1.78393
2.01562
1.9685
1.96029
1.87159
1.90348
1.67127
1.9157
1.77523
2.04099
1.98904
2.03267
1.93915
1.95574
2.23844
2.33534
1.94399
2.04637
2.13127
1.89563
1.94671
2.0173
2.23191
1.32437
1.50168
1.73057
1.77883
1.45156
1.67626
1.42064
1.51348
1.60675
1.68386
1.72015
2.65583
2.65459
2.66761
2.66068
2.67881
2.66855
2.65144
2.67703
2.68637
2.6628
0.566252
0.956856
0.138007
1.14632
1.50458
2.59913
2.42802
2.83488
2.71936
2.64876
2.62466
2.60902
2.56692
2.62415
2.60565
2.20247
2.36694
2.3159
2.34078
2.20559
2.11558
2.55993
2.56749
2.5746
2.60791
2.60483
2.6634
2.91481
2.89756
2.9042
2.91146
2.85879
2.86344
0.876082
0.79489
0.940399
0.927
0.807456
0.753423
0.481176
0.4243
0.381774
0.361684
0.397262
0.410432
1.52626
1.52386
1.25954
1.43696
1.31106
1.09511
1.14104
1.20906
1.36736
1.46414
1.75581
2.03933
1.88957
1.93149
1.69973
1.79342
1.73132
1.58671
1.62411
1.79834
1.77919
1.9958
1.17559
1.49864
2.9137
2.89607
2.64654
2.3703
2.09258
2.37351
2.49595
2.37932
2.45044
2.55231
2.52519
1.43033
1.34627
2.1379
2.47558
1.75363
1.62659
1.66873
1.97207
1.97519
)
;

boundaryField
{
    wall-4
    {
        type            zeroGradient;
    }
    velocity-inlet-5
    {
        type            zeroGradient;
    }
    velocity-inlet-6
    {
        type            zeroGradient;
    }
    pressure-outlet-7
    {
        type            fixedValue;
        value           uniform 0;
    }
    wall-8
    {
        type            zeroGradient;
    }
    frontAndBackPlanes
    {
        type            empty;
    }
}


// ************************************************************************* //
