/*--------------------------------*- C++ -*----------------------------------*\
  =========                 |
  \\      /  F ield         | OpenFOAM: The Open Source CFD Toolbox
   \\    /   O peration     | Website:  https://openfoam.org
    \\  /    A nd           | Version:  7
     \\/     M anipulation  |
\*---------------------------------------------------------------------------*/
FoamFile
{
    version     2.0;
    format      ascii;
    class       volVectorField;
    location    "18";
    object      U;
}
// * * * * * * * * * * * * * * * * * * * * * * * * * * * * * * * * * * * * * //

dimensions      [0 1 -1 0 0 0 0];

internalField   nonuniform List<vector> 
918
(
(0.813493 -0.0529579 0)
(0.134464 2.47694 0)
(0.0547643 0.670098 0)
(0.756263 0.0535038 0)
(-0.0117502 0.692861 -1.88399e-19)
(-0.136691 2.25728 -2.71628e-17)
(0.252277 0.43031 -8.99584e-19)
(0.112021 0.0606682 -5.17612e-20)
(1.00266 -0.00705193 0)
(-0.00755447 0.251348 0)
(-0.010614 0.36151 0)
(0.211088 0.00105186 0)
(0.117394 1.74038 0)
(0.00852553 1.3013 0)
(-0.00567808 1.04144 -1.29525e-18)
(-0.000924094 0.418483 -1.76422e-19)
(0.124179 0.0296667 3.81277e-18)
(0.0468075 0.372245 -4.26796e-19)
(0.476501 0.0500173 0)
(-0.0139657 0.407234 0)
(0.239055 0.12501 -1.74166e-18)
(1.02784 -0.139902 0)
(0.959576 -0.177524 0)
(0.589234 -0.0666205 0)
(0.186978 0.01175 0)
(-0.0149089 1.47428 0)
(-0.0469623 1.72797 8.37137e-18)
(-0.0157146 0.860483 0)
(0.0398799 1.66234 0)
(0.0570703 1.04006 0)
(-0.0108692 1.69447 0)
(0.0156533 0.918278 1.47411e-19)
(0.0138596 0.371959 0)
(-0.320951 2.70296 -1.01717e-21)
(-0.310509 3.10884 2.34699e-17)
(-0.0130235 3.04129 0)
(0.24115 -0.0005512 0)
(0.0661095 0.0836237 5.43273e-19)
(0.438202 0.709996 1.9769e-18)
(0.280856 0.361993 -1.60854e-18)
(0.384601 0.800933 1.86074e-19)
(0.21635 0.471804 -9.18393e-19)
(0.220618 0.118176 5.21483e-20)
(0.117606 0.059298 0)
(0.320176 0.198398 0)
(0.219173 0.120404 2.32933e-19)
(0.112853 0.0654365 -2.31428e-19)
(0.275194 -0.0145599 0)
(1.01042 -0.000298429 0)
(1.00278 0.00665793 0)
(1.0749 -0.154097 0)
(1.01612 -0.0280331 0)
(1.01126 -0.0177401 0)
(0.00643073 0.513413 -2.37424e-18)
(-0.0190623 0.523506 0)
(0.00259932 0.249245 0)
(-0.0192865 0.534542 0)
(-0.011364 0.263412 0)
(-0.00155214 0.458451 0)
(-0.028589 0.68007 0)
(-0.00717073 0.329389 0)
(-0.01553 0.716037 0)
(-0.00470434 0.384978 0)
(0.257101 0.0031219 0)
(0.405392 -0.00124979 0)
(0.213342 0.00281578 0)
(0.395889 0.00472148 0)
(0.202888 0.00217932 0)
(0.345186 2.93893 1.07013e-17)
(0.284413 3.23577 0)
(0.225159 3.03561 0)
(0.211121 2.70618 1.15408e-22)
(0.138778 2.12556 -1.5041e-17)
(0.177552 2.49081 0)
(0.0775997 1.54064 0)
(0.0169714 2.25848 1.58895e-23)
(0.0180427 1.30086 0)
(-0.0620604 2.2913 0)
(-0.0450635 1.32058 0)
(0.0255729 1.76584 0)
(-0.0102103 1.17281 0)
(0.0123001 1.90008 1.31016e-18)
(0.00347285 1.09419 0)
(-0.0187384 2.4109 0)
(0.00541123 0.786179 1.78538e-19)
(-0.00441135 0.422796 -2.29907e-19)
(0.248403 0.0574634 -1.34938e-18)
(0.126209 0.0246395 -1.28981e-18)
(0.251232 0.0671218 -4.05832e-18)
(0.125671 0.0379199 -2.56433e-18)
(0.0476491 0.366873 0)
(0.113352 0.717385 4.15504e-19)
(0.109491 0.426207 -6.549e-19)
(0.656994 0.0839887 0)
(0.346441 0.0354027 0)
(1.00992 0.0417411 0)
(1.02762 0.158978 0)
(0.935646 0.139913 -1.67947e-17)
(0.850094 0.13491 1.25897e-17)
(-0.0288699 0.761031 0)
(-0.00161489 0.382548 0)
(-0.0066162 1.17198 0)
(-0.030384 0.810841 0)
(-0.0305387 0.400132 0)
(0.402495 0.140482 5.99453e-19)
(0.174551 0.0907917 0)
(0.742534 -0.0932595 0)
(0.411877 -0.0416801 0)
(0.383034 0.00312298 0)
(0.366694 0.00766421 0)
(0.194378 0.0021811 0)
(0.327724 0.0170124 0)
(0.301558 0.0223487 0)
(0.128894 0.00971522 5.91311e-18)
(-0.0213651 1.34853 4.33557e-18)
(-0.0513465 2.42574 0)
(-0.0727605 2.51263 0)
(-0.0189535 1.3586 0)
(-0.0666329 2.63615 7.68761e-18)
(-0.0345586 1.62918 0)
(-0.10345 2.69816 -2.5239e-17)
(-0.0733535 1.81722 8.45508e-18)
(0.0274985 2.01038 0)
(0.0222023 2.19644 0)
(-0.00638269 0.764693 -3.80754e-21)
(-0.00475995 0.740293 0)
(-0.00414178 0.405354 0)
(0.459101 0.0111457 0)
(0.246712 0.00498623 0)
(0.232101 0.00302023 0)
(0.458426 -0.00853295 0)
(0.250086 -0.00246645 0)
(0.215923 0.245728 -7.31535e-19)
(0.0553069 0.0707518 0)
(0.199374 0.275981 9.68167e-20)
(0.0719722 0.116744 0)
(0.496093 0.60143 5.26628e-19)
(0.299658 0.310431 -1.18779e-18)
(0.232955 0.781728 0)
(0.314403 0.827818 0)
(0.169964 0.474395 0)
(0.0640945 0.165803 -7.69675e-19)
(0.235716 0.108387 0)
(0.121801 0.0524014 6.99662e-19)
(0.518893 0.516346 0)
(0.541282 0.421534 0)
(0.307615 0.252167 1.32763e-18)
(0.571503 0.32353 0)
(0.34568 0.149116 2.80869e-20)
(0.476769 0.00305448 0)
(0.483576 -0.00645518 0)
(0.256416 -0.000209451 0)
(0.619152 -0.0613537 0)
(0.526652 -0.0412718 0)
(0.329073 -0.0267679 0)
(1.0256 0.065419 0)
(1.01256 0.0270594 0)
(1.00465 0.0214971 0)
(0.0125375 0.926336 1.28799e-18)
(0.00693442 0.48071 0)
(0.00155662 0.956845 2.26799e-18)
(-0.00217149 0.528004 -1.99395e-18)
(0.0434388 0.628878 3.65386e-19)
(0.0247765 0.536126 0)
(0.0205707 0.305006 0)
(-0.0252364 0.571225 0)
(-0.00916726 0.293332 0)
(0.0026136 0.853798 -8.59565e-21)
(-0.0111196 0.465794 0)
(-0.0243043 0.830126 -4.33944e-19)
(-0.00862786 0.431815 8.27072e-19)
(-0.0113429 0.606873 0)
(-0.00322919 0.632939 0)
(-0.00412764 0.316912 0)
(0.0017818 0.725202 0)
(0.000405338 0.386583 0)
(0.479545 7.24673e-05 0)
(0.258257 0.00295926 0)
(0.470695 0.0089714 0)
(0.248825 0.000421848 0)
(0.226325 0.000218657 0)
(0.426222 0.00300044 0)
(0.411632 0.0122435 0)
(0.223856 0.00379482 0)
(-0.00647582 4.03788 -6.93112e-20)
(0.0602218 3.91025 0)
(0.0867611 2.35695 0)
(0.0374114 1.3979 0)
(0.242324 1.6637 0)
(0.258228 0.707408 2.22502e-19)
(0.0266099 1.98874 0)
(-0.0217472 1.14738 0)
(0.00194792 2.31226 0)
(-0.0159456 2.41103 0)
(-0.00509197 2.38637 0)
(-0.0104275 1.79037 2.36092e-20)
(-0.0137371 2.37422 0)
(-0.00433204 2.17106 0)
(0.00493976 0.432086 1.9275e-20)
(0.0105131 0.82724 3.23759e-19)
(-0.0136433 0.803268 2.39992e-19)
(-0.000797349 0.43959 0)
(0.254693 0.0404431 2.08103e-18)
(0.125865 0.0163861 -2.00014e-18)
(0.089428 0.679582 0)
(0.0625448 0.33244 -5.76764e-19)
(0.0747108 0.745649 -1.91562e-18)
(0.0300594 0.414748 1.87403e-18)
(0.259226 0.00591558 0)
(0.501363 0.0122241 0)
(0.546094 0.0364442 0)
(0.289692 0.0120283 0)
(0.00593918 0.72794 0)
(0.0139958 0.727983 0)
(0.00308698 0.388826 0)
(0.220332 0.126354 2.0908e-18)
(0.25458 0.130157 -2.35967e-18)
(0.123039 0.0703492 0)
(0.621019 0.0474568 2.34848e-19)
(0.363588 0.0304304 0)
(0.556967 0.0337328 0)
(0.287852 0.00731245 0)
(0.25552 0.0302698 0)
(0.259687 0.0177722 -9.67788e-18)
(0.129325 0.0115362 3.52341e-18)
(-0.0280711 2.40739 4.85257e-18)
(-0.0221925 1.43723 4.51048e-19)
(0.0206279 3.94123 -1.60108e-19)
(0.126146 3.8064 7.01672e-18)
(-0.141172 2.77488 3.09733e-19)
(-0.0946642 1.99797 -1.26385e-21)
(-0.258627 3.0954 -6.5774e-18)
(0.0494094 3.53287 4.92781e-18)
(0.0129023 3.73836 -7.37698e-18)
(0.464314 -0.00399235 0)
(0.469839 0.00614513 0)
(0.250498 6.37723e-05 0)
(0.471159 0.00620853 0)
(0.445327 0.0122579 0)
(0.246807 0.00549102 0)
(0.433062 -0.0022769 0)
(0.435192 -0.00312016 0)
(0.229299 -0.00132886 0)
(0.163495 0.276827 -3.72899e-19)
(0.0526849 0.118967 0)
(0.067556 0.132639 2.05409e-19)
(0.155448 0.306371 1.60717e-18)
(0.16293 0.299202 -8.85705e-19)
(0.0650946 0.124112 1.66313e-18)
(0.129485 0.364076 3.94688e-18)
(0.070388 0.165084 7.51268e-19)
(0.247995 0.0835971 2.75466e-18)
(0.242517 0.0984277 7.1539e-19)
(0.125025 0.045881 1.32045e-18)
(0.618752 0.238688 -1.52748e-18)
(0.370948 0.110305 -1.66292e-18)
(-0.0208763 0.939823 9.6427e-19)
(-0.00814392 0.511958 0)
(0.52122 0.00823418 0)
(0.496171 0.0183536 0)
(0.27676 0.00756206 0)
(0.0159681 4.013 0)
(0.0437408 2.2622 9.88453e-18)
(0.0580559 2.29557 0)
(0.0235579 1.33435 -9.17433e-18)
(-0.0171151 4.07975 1.95179e-18)
(-0.0298645 4.10506 0)
(0.236254 0.376902 -3.61429e-20)
(0.313317 0.687659 2.74962e-19)
(0.073062 0.211751 -4.03871e-19)
(-0.0477772 2.27212 -4.20807e-18)
(-0.0479832 2.10341 0)
(-0.0310904 1.26779 0)
(0.0134894 0.811475 -2.41596e-20)
(0.0178455 0.83138 -7.10048e-19)
(0.00930628 0.429064 -2.61458e-20)
(0.14078 0.613096 1.91528e-18)
(0.0703905 0.272001 -1.23962e-18)
(0.00668072 0.868169 1.57472e-18)
(0.0228255 0.801811 -1.75794e-18)
(0.0115027 0.447056 8.47912e-20)
(-0.0253596 4.05486 -1.12544e-17)
(-0.0368501 4.13954 1.09622e-17)
(-0.0386639 2.55599 6.21341e-18)
(-0.0740435 2.45555 -5.33603e-18)
(-0.019331 1.55238 -5.99278e-18)
(-0.042017 4.13041 -1.44768e-17)
(-0.0441184 4.12787 1.27223e-17)
(0.155024 0.357094 0)
(0.166051 0.329505 -3.6692e-18)
(0.0726468 0.151539 1.56238e-18)
(0.174914 0.416873 2.36427e-18)
(0.0759689 0.213701 -3.54146e-18)
(0.657064 0.10014 8.92495e-19)
(0.655309 0.175603 0)
(0.385181 0.0713905 -8.85062e-19)
(-0.0353785 0.873245 -9.60976e-21)
(-0.0144097 0.917139 0)
(-0.0101959 0.500613 0)
(0.133344 0.529763 -6.72847e-19)
(0.138522 0.48032 -1.45352e-18)
(0.0690292 0.244178 2.64824e-18)
(1.05419 -0.151201 0)
(1.12545 -0.152764 2.99409e-18)
(0.0299379 1.94914 0)
(0.0168951 1.66448 0)
(1.05546 0.0994094 2.23383e-20)
(1.03988 0.173977 6.22523e-18)
(0.0157718 1.81548 -3.0876e-20)
(0.00390225 1.4309 0)
(-0.0715665 3.76712 2.85365e-18)
(0.0356152 3.44462 0)
(1.12009 0.544144 -7.93097e-19)
(1.04739 0.0882344 -3.58981e-20)
(1.03395 -0.0369359 0)
(1.03873 -0.000540909 -7.62571e-23)
(0.0219989 1.35687 0)
(0.0593225 1.9247 0)
(-0.045302 1.50459 0)
(-0.0321277 1.8385 6.24444e-19)
(-0.0164564 1.86089 3.95131e-19)
(0.894407 0.00965077 -1.87e-20)
(1.0003 0.00996823 0)
(1.03454 0.0266433 0)
(-0.0190832 2.39693 0)
(-0.017418 1.6431 0)
(-0.0349544 1.71575 0)
(0.318662 1.52026 5.57986e-19)
(1.11634 -0.14417 0)
(0.991445 -0.111695 0)
(1.06511 -0.020675 3.8234e-18)
(1.10704 -0.121521 -4.52794e-18)
(1.04037 -0.0479804 0)
(-0.0256415 2.37142 0)
(0.0012572 2.16068 0)
(-0.000874825 2.27907 0)
(-0.0178337 1.78456 0)
(-0.0201413 1.66786 0)
(-0.0241209 1.46354 0)
(0.97468 -0.000311752 0)
(0.940134 0.0114133 -2.4072e-20)
(0.798803 1.25263 -9.5556e-19)
(1.06051 0.0181242 -3.82446e-18)
(1.07214 0.106963 4.62303e-18)
(1.03328 0.045415 0)
(1.13209 0.111359 3.54014e-18)
(1.11817 0.166399 -4.51069e-18)
(1.00816 0.135551 0)
(-0.0220046 1.76964 0)
(0.00269974 1.74413 1.5489e-19)
(-0.0133403 1.38244 -1.0995e-19)
(1.20543 0.176587 4.69772e-18)
(1.1339 0.063957 0)
(-0.236791 3.9483 -3.72935e-18)
(-0.154424 2.49685 -2.42501e-19)
(-0.237208 4.01176 4.38096e-18)
(-0.0579273 3.90865 -1.73771e-18)
(-0.0167458 3.54993 0)
(-0.0221295 3.82526 1.41287e-18)
(-0.163778 4.15472 3.84413e-18)
(-0.0801625 4.04422 -2.62837e-18)
(-0.10236 4.05445 0)
(0.48969 0.222335 0)
(0.464338 0.254787 0)
(1.13986 0.69256 2.40585e-18)
(0.995879 0.670761 -3.05851e-18)
(1.23505 0.565877 0)
(1.08906 0.382643 0)
(1.11072 0.0910055 -6.78639e-18)
(0.944438 0.0534098 8.37546e-18)
(1.10825 -0.0483619 0)
(0.929209 -0.0234671 0)
(1.16641 0.0152892 0)
(1.21746 0.0513141 0)
(1.11044 0.0424954 0)
(1.19581 0.105177 0)
(1.15033 0.107075 0)
(1.1247 0.0814891 0)
(0.0164758 1.46123 0)
(-0.000658745 1.12451 0)
(0.0570245 1.56924 0)
(0.0658691 1.14816 0)
(0.0646557 2.09898 0)
(0.0777659 1.56541 -1.19637e-18)
(-0.00733823 2.06619 0)
(-0.011822 1.73975 8.53937e-19)
(-0.0367947 1.75054 -1.04316e-18)
(-0.0352771 1.63664 0)
(-0.0205325 1.34042 0)
(-0.0587909 1.68997 0)
(-0.0442903 1.20962 0)
(-0.1119 2.47125 -4.97691e-19)
(-0.0449857 2.04202 5.24748e-19)
(-0.0470949 1.97854 6.10177e-19)
(-0.0291299 1.57751 0)
(-0.0424808 1.9661 -9.2645e-19)
(-0.0117775 1.68583 -5.73381e-19)
(-0.0821937 2.48419 3.70023e-19)
(-0.05264 2.30964 -6.69328e-19)
(-0.059302 2.23742 -7.43246e-19)
(1.02503 0.0174217 6.10796e-18)
(0.775254 0.00566429 -7.67408e-18)
(0.984862 0.0321244 -6.09914e-18)
(0.765786 0.018749 7.59061e-18)
(1.11023 0.0102107 0)
(0.861677 0.000786981 0)
(1.13581 0.0296097 0)
(1.09268 0.0082257 0)
(0.885585 0.0052817 0)
(1.20682 0.0737606 0)
(1.12973 0.031154 0)
(0.935588 0.0202625 0)
(-0.00353311 2.26065 -2.11777e-20)
(-0.0178911 2.40406 0)
(-0.0171982 2.34623 0)
(-0.0274647 1.84652 1.69249e-19)
(-0.0112883 1.47833 -6.86557e-21)
(-0.0302895 2.42937 2.17039e-19)
(-0.039367 2.35182 -2.24722e-19)
(-0.0342891 2.16036 0)
(-0.0249158 2.14364 0)
(-0.0202146 2.17087 0)
(-0.0293833 1.87241 0)
(-0.0192876 1.37329 0)
(0.414665 1.73244 -1.27074e-18)
(0.440853 1.39847 -4.13718e-19)
(0.293697 1.28539 -4.95231e-19)
(0.149759 1.40322 1.5251e-18)
(0.463809 2.46969 5.42218e-19)
(1.13895 -0.0547827 0)
(1.1004 -0.0859946 0)
(0.934954 -0.0570716 0)
(1.17714 -0.0235573 0)
(1.12959 -0.0543068 0)
(1.16232 -0.095825 0)
(1.18499 -0.101091 0)
(1.20157 -0.0974129 0)
(1.06765 0.0233351 6.43222e-18)
(0.832455 0.0172333 -8.09482e-18)
(1.02809 0.0267162 -6.39083e-18)
(0.829144 0.0132982 7.93464e-18)
(0.771789 1.39656 0)
(0.694076 1.31363 -1.16119e-18)
(0.834563 1.30235 -1.11344e-18)
(0.839799 1.00917 1.49146e-18)
(0.659116 1.25913 2.86235e-18)
(0.535571 0.0723086 2.42026e-18)
(1.21983 0.0950056 0)
(1.27004 0.181692 -3.79458e-18)
(1.07332 0.0781505 -1.67742e-19)
(1.25191 0.134492 0)
(-0.212353 3.32171 2.9552e-18)
(-0.257799 3.42167 -3.9163e-18)
(-0.0507259 1.66694 2.26553e-18)
(0.255485 0.513241 -1.21089e-18)
(0.0469164 3.60258 8.06881e-19)
(-0.00466283 3.65163 0)
(0.0274053 3.32872 -1.14737e-18)
(-0.142795 3.56204 -7.59389e-18)
(-0.0325775 3.6302 0)
(-0.0299265 3.96245 2.93918e-19)
(-0.0399782 4.24152 -3.2698e-18)
(-0.0497458 4.0284 4.71659e-18)
(-0.0948325 4.18144 0)
(-0.0366639 4.11294 0)
(0.658306 1.46221 0)
(0.65716 0.838554 -2.20704e-18)
(0.895478 0.806563 1.06701e-18)
(0.891018 1.06845 0)
(0.969038 1.11426 -9.35899e-19)
(1.01163 0.854734 4.53115e-20)
(0.490923 0.164261 -3.10993e-18)
(0.584348 0.253574 -1.90926e-20)
(0.466652 0.173971 1.55694e-18)
(0.514003 0.303877 1.04853e-19)
(0.403675 0.237687 -4.1286e-18)
(0.556124 0.264616 0)
(0.733618 0.387482 2.63856e-18)
(0.743207 0.361364 0)
(0.547765 0.290221 0)
(0.416603 0.209747 0)
(1.06906 0.710939 2.06814e-18)
(1.28583 0.244984 -3.93155e-18)
(1.24458 0.394763 0)
(1.14261 0.248652 0)
(0.522218 0.136988 2.40096e-18)
(1.0716 0.603225 -1.58574e-18)
(0.965934 0.552491 2.93266e-18)
(1.23597 0.452727 -3.6058e-18)
(1.01691 0.0334557 4.34133e-18)
(1.04101 0.0549171 -4.48471e-18)
(0.865915 0.0267706 0)
(1.09023 -0.0109707 0)
(1.04934 -0.0265969 -4.20207e-18)
(0.850369 -0.00908629 4.14984e-18)
(1.3382 0.0243989 0)
(1.25908 0.0401216 0)
(1.25124 0.0524267 0)
(1.20584 0.0668801 0)
(1.30194 0.0184518 0)
(1.26551 0.0157967 0)
(-0.0520175 1.36816 0)
(-0.0441773 1.12332 0)
(0.136735 1.95515 -7.48545e-19)
(0.30606 1.64065 -3.12177e-19)
(0.144201 1.54497 -6.71503e-19)
(0.184715 1.30122 1.08566e-18)
(0.180104 1.97234 0)
(0.156757 2.46444 -9.97899e-19)
(0.119068 2.4917 0)
(0.381437 2.50758 -7.46856e-19)
(0.330229 2.34421 1.94274e-18)
(0.226792 2.42101 8.58959e-19)
(0.299667 1.95501 -3.8258e-19)
(0.223966 2.07179 3.06858e-19)
(0.34342 2.23695 -1.3167e-18)
(0.275139 2.46986 0)
(0.337246 2.4267 9.67539e-19)
(-0.0939669 2.43893 -3.74438e-19)
(-0.0484722 1.99636 0)
(-0.0372125 2.35564 1.11428e-18)
(-0.0732424 2.3833 0)
(-0.0390047 1.94324 -9.48499e-19)
(-0.0266321 1.61167 0)
(-0.104775 2.31879 -6.09436e-19)
(-0.122339 2.45865 0)
(-0.0975738 2.07831 0)
(-0.0754647 2.08518 6.93197e-19)
(-0.0541015 2.03974 2.69069e-20)
(-0.0509375 1.98701 1.26734e-18)
(-0.0331771 1.56302 8.16558e-21)
(-0.0665779 2.44935 3.55898e-19)
(-0.0716209 2.47371 1.99584e-19)
(-0.0161855 1.56263 0)
(-0.00325905 1.29266 0)
(-0.120725 2.52308 9.57672e-19)
(-0.119949 2.29581 8.68737e-19)
(-0.13325 2.43166 -1.11725e-18)
(-0.113325 2.51741 0)
(-0.0251141 2.33643 -6.18556e-19)
(-0.0427565 2.16177 2.62549e-19)
(-0.0294473 2.19358 -8.23529e-20)
(-0.037976 2.45671 -4.49194e-19)
(-0.031235 2.2028 -1.37592e-19)
(-0.0357948 2.17524 6.31127e-19)
(0.955861 0.0118828 -4.22807e-18)
(0.956719 0.00800524 4.11278e-18)
(0.783807 0.00604608 0)
(1.18532 0.0527034 5.62531e-18)
(0.932636 0.0351291 -6.07078e-18)
(0.780488 0.017758 6.62843e-18)
(1.24427 0.0927473 -7.51681e-19)
(1.05761 -0.0133506 0)
(1.04194 -0.00276167 4.04941e-18)
(0.87895 -0.00351919 -3.98329e-18)
(1.278 0.0375743 -2.33706e-19)
(1.24552 0.0330191 2.00832e-18)
(1.37495 0.0516016 0)
(1.39947 0.0521757 -6.84786e-19)
(1.34487 0.0353488 0)
(1.24029 0.0354711 0)
(1.361 0.0223234 0)
(1.24406 0.0192905 0)
(1.39636 0.0291976 1.42287e-18)
(1.38787 0.0167839 -3.15702e-18)
(1.37255 0.0331706 -1.58582e-18)
(1.3913 0.0333829 -1.68492e-18)
(1.3892 0.0685864 3.3286e-18)
(1.26986 0.0592597 0)
(1.33202 0.0906084 0)
(-0.0232396 2.3625 -2.56272e-19)
(-0.00774672 2.39883 -2.24172e-20)
(-0.0235896 2.40988 0)
(-0.0213678 2.17864 2.60365e-19)
(-0.0192276 2.19508 4.08247e-20)
(-0.0222759 2.13747 -3.97468e-20)
(-0.0292866 1.84157 5.06971e-19)
(-0.0527893 2.07586 -2.90251e-20)
(-0.0339848 2.14233 1.46069e-19)
(-0.0237699 1.78574 -2.58822e-19)
(-0.00775514 1.54533 3.10925e-19)
(-0.0316944 2.36339 1.09802e-20)
(-0.034203 2.42439 3.26849e-19)
(0.454508 1.94536 7.25116e-19)
(0.420302 2.18022 1.39791e-18)
(0.661884 1.49587 1.12646e-18)
(0.536265 1.60313 3.98878e-19)
(0.571927 1.3753 0)
(0.361336 1.47511 5.78819e-19)
(0.289021 1.04251 6.86116e-19)
(0.19526 1.5906 4.74918e-20)
(0.27848 2.02282 -2.33212e-18)
(0.365752 2.02456 1.82519e-18)
(0.277113 1.50296 0)
(0.185658 1.19393 -1.203e-18)
(0.119636 1.84179 2.97493e-18)
(0.136926 1.64806 -8.62808e-20)
(0.0751014 1.34126 -3.76002e-18)
(0.3479 0.925678 2.54105e-18)
(0.375302 1.01319 0)
(1.21501 -0.0267039 1.48869e-19)
(1.2194 -0.0862309 -1.24782e-19)
(1.25144 -0.0753593 -2.18897e-18)
(1.27208 -0.0448593 2.20756e-18)
(1.24858 -0.0187969 0)
(0.735266 1.54994 0)
(0.740266 1.54863 0)
(0.877975 1.35814 0)
(0.760132 1.46003 0)
(0.66361 1.32613 -5.12449e-21)
(0.471795 0.857676 0)
(0.940559 2.69995 2.46106e-20)
(0.755566 2.42629 0)
(0.858361 2.35316 -2.03219e-18)
(0.861236 2.37004 1.31726e-18)
(0.656306 0.107519 0)
(0.529137 0.0929785 6.3545e-19)
(0.860311 0.114668 3.98328e-18)
(0.651631 0.0890413 -1.41814e-18)
(0.51932 0.0395497 -4.43256e-18)
(1.39166 0.245671 -4.97249e-18)
(1.27273 0.321757 -3.7102e-20)
(1.1287 0.280727 3.78462e-18)
(1.28749 0.235989 3.38619e-18)
(1.07836 0.150473 -5.60854e-18)
(1.00875 0.153131 6.86954e-19)
(1.1052 0.227158 -1.53633e-18)
(1.03269 0.217305 0)
(1.26693 0.174568 2.87025e-18)
(1.35182 0.196839 0)
(1.35221 0.238388 0)
(1.32434 0.129082 1.59486e-18)
(1.39875 0.198269 -3.31958e-20)
(1.3772 0.221614 -8.66985e-19)
(1.35984 0.200423 0)
(1.21637 0.0317035 3.15463e-18)
(1.39128 0.0489911 3.94203e-18)
(1.36638 0.0372675 -3.09537e-18)
(1.37524 0.0665103 -2.67326e-18)
(1.26005 0.0615937 -3.99268e-18)
(1.13142 0.118211 0)
(1.15663 0.0882124 0)
(0.898539 0.0565863 -2.34628e-18)
(0.746841 0.0352217 8.74805e-19)
(1.34507 0.103304 3.65241e-18)
(1.40316 0.129792 -4.49282e-18)
(1.40438 0.148376 3.98082e-18)
(1.37202 0.145956 0)
(1.39704 0.100514 0)
(1.40253 0.0940184 -1.84696e-18)
(1.39146 0.0906744 -3.00743e-18)
(0.711696 2.17949 1.09241e-18)
(0.815979 2.78302 -1.11681e-18)
(0.946662 2.80413 -1.24481e-18)
(0.92005 3.08091 2.52883e-19)
(0.737043 1.61204 -2.61269e-18)
(0.726098 1.51095 4.22061e-19)
(0.509349 0.863021 -4.49174e-20)
(0.898274 2.55844 -8.86337e-19)
(0.912367 2.51985 1.61644e-18)
(0.792156 2.87603 2.17883e-19)
(0.741519 2.06033 -2.22762e-19)
(0.679982 1.93048 0)
(0.599126 0.926656 -2.40491e-19)
(0.0138634 1.52025 1.73864e-18)
(0.511003 0.23333 2.01782e-18)
(0.366054 0.352768 2.16004e-18)
(0.476314 0.265179 2.30979e-18)
(0.598221 0.340277 -3.98012e-18)
(0.600612 0.307419 3.24808e-18)
(0.514749 0.234915 -1.14459e-18)
(0.409763 0.207611 2.53968e-18)
(0.602055 0.182067 -1.40152e-18)
(0.579594 0.195811 0)
(0.471105 0.154968 5.31752e-21)
(0.869961 0.50855 1.45478e-18)
(0.763569 0.435756 -5.10269e-18)
(0.65962 0.389905 -3.51684e-21)
(0.641438 0.377892 0)
(0.811011 0.860796 1.75364e-18)
(1.03438 0.927395 2.2351e-18)
(0.94507 1.00896 -2.58625e-18)
(1.07793 0.940893 -9.12635e-19)
(1.08628 0.911186 -3.22056e-19)
(1.08234 0.978909 3.28952e-19)
(1.15583 0.749012 -3.34851e-18)
(1.15848 0.829718 8.54903e-19)
(1.18923 0.820036 0)
(1.20089 0.740863 -1.24867e-18)
(1.32807 0.346766 1.15354e-18)
(1.39046 0.316398 2.08241e-18)
(1.40111 0.303968 1.9863e-18)
(1.31865 0.425625 -2.25307e-18)
(1.32669 0.435256 0)
(1.34079 0.399345 0)
(1.1325 0.410675 -1.98524e-20)
(0.8554 0.236989 0)
(0.952362 0.253525 1.69943e-18)
(1.1078 0.29707 -2.82079e-20)
(1.23612 0.504581 9.93588e-18)
(1.16251 0.57668 2.52409e-18)
(1.14896 0.509521 -2.48332e-18)
(1.03769 0.462366 2.65404e-18)
(0.957964 0.465816 1.48618e-18)
(0.833253 0.403326 -1.43878e-18)
(1.22222 -0.0268747 3.53551e-18)
(1.32143 -0.0113104 0)
(1.30561 -0.0249051 2.36653e-18)
(1.25761 -0.018859 -5.29425e-18)
(1.35085 0.00871698 2.59225e-18)
(1.32271 0.0327438 -5.42806e-18)
(1.25738 0.0368627 0)
(1.18217 0.0505715 -1.10368e-18)
(1.29252 0.0394598 2.82159e-18)
(1.24331 0.0615352 -1.4486e-18)
(1.20122 0.0522527 1.03996e-18)
(-0.0709263 1.50514 0)
(-0.0841495 1.90222 0)
(-0.0620525 1.39421 0)
(-0.0383894 1.13623 0)
(-0.055704 2.05759 1.23821e-18)
(0.0147205 1.89939 -3.28235e-19)
(0.0603633 2.43272 -4.39723e-19)
(0.0376165 2.26304 4.29182e-19)
(-0.120552 2.27506 -9.99362e-19)
(-0.10762 2.28061 7.49594e-19)
(-0.0464498 2.03051 4.77389e-20)
(-0.0661024 1.91164 -8.62963e-19)
(-0.070821 1.80111 -1.20721e-19)
(-0.099052 1.98902 -1.14711e-19)
(-0.0141941 2.46182 -1.18576e-18)
(0.0106768 2.39158 0)
(0.0380407 2.53694 5.77944e-19)
(0.0408878 2.5265 5.07737e-19)
(0.208245 2.45629 -4.63395e-19)
(0.19818 2.27856 0)
(0.207709 2.21177 -2.3206e-18)
(0.268448 2.39766 1.66183e-18)
(0.157426 2.50218 -1.2121e-18)
(0.092821 2.48169 6.61376e-19)
(0.0852734 2.4447 0)
(-0.109803 2.51136 -1.09073e-18)
(-0.0884111 2.37472 -1.27112e-18)
(-0.102931 2.4717 0)
(-0.0864605 2.31217 -1.34032e-20)
(-0.095619 2.46726 5.57209e-19)
(-0.0697633 2.15688 9.82627e-20)
(-0.0293096 1.97941 -1.41365e-18)
(-0.046514 2.1716 3.80498e-19)
(-0.0928353 2.41993 4.96737e-19)
(-0.0835756 2.33395 0)
(-0.0327711 2.16824 0)
(-0.0356343 1.69681 4.17849e-19)
(-0.0196993 2.06946 -1.2575e-19)
(-0.0279168 2.06221 0)
(-0.0298751 1.59432 3.37442e-19)
(-0.0141656 1.30849 -6.45889e-19)
(1.25022 0.0106446 0)
(1.23829 0.00340158 -3.65726e-19)
(1.40061 0.0166928 -2.59089e-18)
(1.36371 0.0126516 0)
(1.28463 0.00476887 0)
(1.39741 0.00541721 -1.32042e-20)
(1.38195 0.00554201 4.31244e-18)
(1.34749 0.0172379 5.10405e-18)
(1.26254 0.0276548 0)
(1.18945 0.0244007 0)
(1.34779 0.018097 2.58427e-18)
(1.2447 0.0259996 0)
(1.16271 0.0296227 0)
(-0.0264288 2.42802 0)
(-0.037544 2.42518 2.12447e-20)
(-0.0253861 2.44151 1.27498e-19)
(-0.0186948 2.13835 0)
(-0.038792 2.38851 2.27284e-19)
(-0.0277644 2.2904 -1.28205e-19)
(-0.023099 2.20087 0)
(0.620004 2.51067 0)
(0.441854 2.35669 -2.48614e-18)
(0.477077 2.4867 0)
(0.575884 2.16934 2.89693e-18)
(0.560199 1.7434 0)
(0.539589 1.96909 -1.21401e-18)
(0.684821 1.83433 -5.39768e-20)
(0.432807 1.16537 -3.01709e-18)
(0.383978 0.792563 3.35744e-18)
(0.460271 1.22076 7.3109e-19)
(0.676225 1.82769 0)
(0.703704 1.87256 0)
(0.431618 1.11183 0)
(0.300787 0.778642 -2.52631e-18)
(0.626649 2.48256 -1.91555e-18)
(0.698249 2.20122 -4.50551e-19)
(0.74416 2.41236 3.52707e-19)
(0.377485 1.29106 0)
(0.397421 1.22683 0)
(0.285415 0.944498 -7.8948e-19)
(0.616062 1.92286 0)
(0.707456 1.44515 0)
(0.542012 1.4286 -2.85333e-18)
(0.630973 1.13348 -1.75456e-19)
(0.655689 1.71816 0)
(0.627722 1.85625 4.32691e-18)
(0.953287 1.07202 -8.62885e-19)
(0.928176 1.21173 0)
(0.926961 1.13893 1.46753e-18)
(0.733782 1.25894 0)
(0.730874 1.18469 0)
(0.917548 2.26161 -1.05339e-18)
(0.989195 2.75679 -9.51851e-19)
(0.944738 2.7654 1.89931e-18)
(0.946949 2.7025 -5.5976e-19)
(0.785191 1.82058 0)
(0.831644 2.04262 7.59648e-19)
(0.512342 1.03999 -9.02065e-19)
(0.378966 0.741943 -2.10819e-20)
(0.831606 2.53802 0)
(0.711223 2.15925 -9.70016e-19)
(0.726927 1.99518 0)
(0.811761 0.17845 0)
(0.598792 0.122879 0)
(0.461457 0.102711 0)
(0.794886 0.193104 -2.62881e-18)
(0.607228 0.1475 1.45533e-18)
(0.761679 0.0404264 -1.75461e-18)
(0.923216 0.0930198 0)
(0.867102 0.0941272 7.33425e-19)
(0.636063 0.0453141 2.88698e-18)
(0.551849 0.0269875 -1.82994e-18)
(0.633262 3.06713 2.84247e-19)
(0.727034 3.24712 0)
(0.456895 3.08527 6.80783e-19)
(0.331776 3.55116 -5.64499e-19)
(0.40478 3.47127 -1.31108e-18)
(0.451399 1.24182 2.69436e-18)
(0.440244 1.63167 0)
(0.371638 0.557596 -5.38312e-19)
(0.519231 0.63042 3.55053e-18)
(0.551781 0.302191 -7.52483e-19)
(0.633641 0.360564 8.36998e-19)
(0.759018 0.479384 1.83824e-18)
(0.843722 0.545254 0)
(0.744466 0.538203 0)
(0.726762 0.467176 0)
(1.25566 0.690069 8.99273e-19)
(1.21629 0.615889 -2.44698e-18)
(1.21825 0.669957 2.12329e-18)
(1.26328 0.580703 -1.98062e-18)
(1.34008 0.549583 0)
(1.32011 0.609994 -6.36723e-19)
(0.992832 0.397718 -3.46633e-18)
(1.029 0.389831 -4.4834e-18)
(0.840649 0.367035 2.64626e-18)
(0.774651 0.32972 -2.55191e-18)
(0.881065 0.295704 -2.13393e-18)
(0.786377 0.278563 2.60531e-18)
(1.35838 0.00734136 -2.73712e-18)
(1.37232 0.00895332 5.40077e-18)
(1.26145 -0.0213335 3.31036e-18)
(1.26727 -0.0235241 -3.91027e-18)
(1.32374 0.00146686 0)
(1.3662 0.00453195 -6.61284e-18)
(-0.0684592 2.53051 2.13744e-19)
(-0.0849619 2.5006 0)
(-0.0168021 2.53344 1.86496e-18)
(-0.00193048 2.53447 -1.68628e-18)
(0.00696088 2.47457 8.21558e-19)
(-0.0542317 2.45668 0)
(-0.0412977 2.47296 0)
(-0.0409736 2.34672 -1.27187e-19)
(-0.0402182 2.32813 1.13829e-19)
(-0.0407084 2.37037 1.4464e-20)
(-0.0366105 2.44059 -2.00191e-19)
(-0.0311283 2.4359 1.06446e-19)
(0.749299 2.4153 -2.96937e-18)
(0.727281 2.43082 3.16946e-18)
(0.593287 2.1684 -1.64267e-18)
(0.682209 2.46043 1.40827e-19)
(0.682825 1.65495 0)
(0.621676 1.7854 -1.39845e-18)
(0.65438 1.63072 1.37397e-18)
(0.605957 1.93086 1.63634e-18)
(0.688604 2.05791 0)
(0.702506 1.91139 0)
(0.597236 2.40107 2.86775e-18)
(0.522896 1.91591 4.14337e-18)
(0.577422 2.04625 -2.90878e-18)
(0.490333 1.98173 -4.83703e-19)
(0.489805 2.42082 9.6147e-19)
(0.422887 2.21031 -2.36759e-18)
(0.516456 1.06162 -1.89161e-18)
(0.512245 0.970068 0)
(0.384579 0.732408 -1.88933e-18)
(0.791284 1.82272 0)
(0.778467 1.83327 0)
(0.409247 3.03135 -1.50286e-18)
(0.66252 3.37729 -8.85061e-19)
(0.495591 3.45432 1.39822e-18)
(0.149672 1.53755 0)
(0.208752 1.13704 -1.24394e-18)
(0.367441 1.53507 -1.69416e-18)
(0.314247 2.79128 0)
(0.204461 3.3307 9.39487e-19)
(0.0486216 3.18997 0)
(0.883508 0.735793 -3.67231e-18)
(1.01249 0.811796 5.23986e-18)
(1.02882 0.713849 -5.2008e-18)
(0.834881 0.641956 -4.41568e-19)
(0.895552 0.627049 -1.85483e-18)
(0.709269 3.30172 7.28743e-19)
(0.848448 3.20271 -1.46216e-18)
(0.574905 3.02867 3.18894e-18)
(0.549985 2.69317 -2.23311e-18)
(0.83295 2.82968 -2.26142e-18)
(0.85716 3.10086 -3.21594e-19)
(0.917902 3.00442 1.71559e-18)
(0.690645 2.83984 1.44169e-19)
(0.676722 2.64662 9.71023e-19)
)
;

boundaryField
{
    wall-4
    {
        type            noSlip;
    }
    velocity-inlet-5
    {
        type            fixedValue;
        value           uniform (1 0 0);
    }
    velocity-inlet-6
    {
        type            fixedValue;
        value           uniform (0 3 0);
    }
    pressure-outlet-7
    {
        type            zeroGradient;
    }
    wall-8
    {
        type            noSlip;
    }
    frontAndBackPlanes
    {
        type            empty;
    }
}


// ************************************************************************* //
