/*--------------------------------*- C++ -*----------------------------------*\
  =========                 |
  \\      /  F ield         | OpenFOAM: The Open Source CFD Toolbox
   \\    /   O peration     | Website:  https://openfoam.org
    \\  /    A nd           | Version:  7
     \\/     M anipulation  |
\*---------------------------------------------------------------------------*/
FoamFile
{
    version     2.0;
    format      ascii;
    class       volScalarField;
    location    "0.1";
    object      nut;
}
// * * * * * * * * * * * * * * * * * * * * * * * * * * * * * * * * * * * * * //

dimensions      [0 2 -1 0 0 0 0];

internalField   nonuniform List<scalar> 
12225
(
3.8006e-05
3.33294e-05
2.94332e-05
2.6376e-05
2.4149e-05
2.26292e-05
2.1645e-05
2.1035e-05
2.06714e-05
2.04619e-05
2.03437e-05
2.02762e-05
2.02349e-05
2.02053e-05
2.01799e-05
2.01535e-05
2.01321e-05
2.02668e-05
0.000205722
0.000151531
0.000127316
0.000114407
0.000107376
0.000103272
0.000100617
9.87053e-05
9.72033e-05
9.5949e-05
9.48624e-05
9.39044e-05
9.30544e-05
9.22984e-05
9.16291e-05
9.1022e-05
9.05224e-05
8.98954e-05
0.00041864
0.000296997
0.000242044
0.000210258
0.000189698
0.000175326
0.000164769
0.000156763
0.000150544
0.000145608
0.000141616
0.000138337
0.000135608
0.000133312
0.000131364
0.000129689
0.000128258
0.000126937
0.000615534
0.000473541
0.000392582
0.000341269
0.000305996
0.000280058
0.00026009
0.000244268
0.000231476
0.000220967
0.000212221
0.000204865
0.000198622
0.000193282
0.000188684
0.000184691
0.000181214
0.000178161
0.000739723
0.000627501
0.000543973
0.000483414
0.000438543
0.000403988
0.000376475
0.000354037
0.000335399
0.000319688
0.000306286
0.000294745
0.000284729
0.00027598
0.000268293
0.000261501
0.000255479
0.000250188
0.000803283
0.000733056
0.000666693
0.00061078
0.000565195
0.000527866
0.000496878
0.000470811
0.000448614
0.000429503
0.000412886
0.00039832
0.000385464
0.00037405
0.000363867
0.000354738
0.000346536
0.000339279
0.000832283
0.000794588
0.000750945
0.000708328
0.000669758
0.000635777
0.000606056
0.000580067
0.00055727
0.00053717
0.000519349
0.000503461
0.000489226
0.000476416
0.00046484
0.000454343
0.000444812
0.000436326
0.000844509
0.000826355
0.000801466
0.000773636
0.000745677
0.000719026
0.000694279
0.000671619
0.000651009
0.000632308
0.000615333
0.000599904
0.00058585
0.000573019
0.000561277
0.000550509
0.000540637
0.000531788
0.000849308
0.000841191
0.000828456
0.000812436
0.000794687
0.000776379
0.000758267
0.000740813
0.000724268
0.000708738
0.000694244
0.00068076
0.000668235
0.000656605
0.000645806
0.000635776
0.000626481
0.000618082
0.000851042
0.000847505
0.000841447
0.000833089
0.000823009
0.00081182
0.000800038
0.000788068
0.000776207
0.000764649
0.000753517
0.000742879
0.000732767
0.00072319
0.000714144
0.000705615
0.00069761
0.000690302
0.000851597
0.00084994
0.000847101
0.000842991
0.000837723
0.000831513
0.000824599
0.000817215
0.000809568
0.000801824
0.00079411
0.00078652
0.000779119
0.000771951
0.000765045
0.000758421
0.000752112
0.000746277
0.000851724
0.000850708
0.000849143
0.00084693
0.000844052
0.000840558
0.000836532
0.000832078
0.000827307
0.000822322
0.000817214
0.000812057
0.000806911
0.000801822
0.000796828
0.000791957
0.000787252
0.000782857
0.000851737
0.000850953
0.000849939
0.000848639
0.000847018
0.00084507
0.000842806
0.000840255
0.00083746
0.000834468
0.000831327
0.00082808
0.000824767
0.000821425
0.000818081
0.000814764
0.000811512
0.000808434
0.000851709
0.000850986
0.000850181
0.000849277
0.00084826
0.000847121
0.000845852
0.000844453
0.00084293
0.000841294
0.000839559
0.000837741
0.000835858
0.000833927
0.000831963
0.000829984
0.000828016
0.000826132
0.000851676
0.000850948
0.000850195
0.000849418
0.00084862
0.000847803
0.000846964
0.0008461
0.000845209
0.000844288
0.000843338
0.00084236
0.000841356
0.000840329
0.000839283
0.000838227
0.000837174
0.000836165
0.00085165
0.000850907
0.000850157
0.000849406
0.000848663
0.000847937
0.000847231
0.000846546
0.000845882
0.000845236
0.000844607
0.00084399
0.000843384
0.000842787
0.000842197
0.000841617
0.000841054
0.00084053
0.000851637
0.000850884
0.000850134
0.000849388
0.000848658
0.000847951
0.000847274
0.000846632
0.000846024
0.000845452
0.000844912
0.000844403
0.000843922
0.000843467
0.000843035
0.000842627
0.000842247
0.000841914
0.000851638
0.000850888
0.000850147
0.000849414
0.000848696
0.000848004
0.000847343
0.000846717
0.000846129
0.000845578
0.000845064
0.000844584
0.000844137
0.00084372
0.000843331
0.000842971
0.000842643
0.000842365
0.000851661
0.000850937
0.000850223
0.000849519
0.000848832
0.000848172
0.000847544
0.000846954
0.000846401
0.000845885
0.000845406
0.000844962
0.000844549
0.000844167
0.000843812
0.000843484
0.000843189
0.000842941
0.000851714
0.000851051
0.000850396
0.000849751
0.000849126
0.00084853
0.000847969
0.000847446
0.000846958
0.000846505
0.000846083
0.000845689
0.00084532
0.000844973
0.000844644
0.000844333
0.000844044
0.000843793
0.0008518
0.000851232
0.000850668
0.000850108
0.000849564
0.000849041
0.00084854
0.000848057
0.000847585
0.00084712
0.000846654
0.000846185
0.000845707
0.000845219
0.000844719
0.000844207
0.000843691
0.000843188
0.00085194
0.000851517
0.000851065
0.000850568
0.00085002
0.000849411
0.000848731
0.000847965
0.000847104
0.000846145
0.000845091
0.000843946
0.000842717
0.000841412
0.000840036
0.000838603
0.000837131
0.000835662
0.000852142
0.000851828
0.000851265
0.000850363
0.000849084
0.000847427
0.000845403
0.000843032
0.000840352
0.000837407
0.000834248
0.000830912
0.000827436
0.000823869
0.00082026
0.000816644
0.000813059
0.000809574
0.00085222
0.000851246
0.000849028
0.000845473
0.000840728
0.000835037
0.000828627
0.000821692
0.000814415
0.00080692
0.000799339
0.000791801
0.000784404
0.000777202
0.000770231
0.000763516
0.000757081
0.000751002
0.000850791
0.000845029
0.000835403
0.000822966
0.000808873
0.000794049
0.000779082
0.000764288
0.00074992
0.000736217
0.000723282
0.000711129
0.000699743
0.000689088
0.000679121
0.000669796
0.000661079
0.000653009
0.000841138
0.000816683
0.000787002
0.000756705
0.000727788
0.000700974
0.000676404
0.000654262
0.000634401
0.000616563
0.000600495
0.000585967
0.000572774
0.000560741
0.000549721
0.00053959
0.00053025
0.000521692
0.000798629
0.000728725
0.000669098
0.000620819
0.000580957
0.000547694
0.000520082
0.000496826
0.000476951
0.000459748
0.000444688
0.000431371
0.000419487
0.000408798
0.000399117
0.000390296
0.000382221
0.000374853
0.000662427
0.000545582
0.000474645
0.000425207
0.00038828
0.00036028
0.000338482
0.00032099
0.000306582
0.000294472
0.000284125
0.000275163
0.00026731
0.00026036
0.000254158
0.000248583
0.000243543
0.000238982
0.000377506
0.000286126
0.000242636
0.000214913
0.00019565
0.000182242
0.000172806
0.000165971
0.000160852
0.000156906
0.000153786
0.000151262
0.000149174
0.000147412
0.000145898
0.000144574
0.0001434
0.000142332
6.98062e-05
6.49724e-05
6.05479e-05
5.65125e-05
5.29012e-05
4.9726e-05
4.69809e-05
4.46408e-05
4.26669e-05
4.10147e-05
3.96409e-05
3.8505e-05
3.75709e-05
3.68073e-05
3.61867e-05
3.56858e-05
3.5285e-05
3.49675e-05
1.16994e-06
2.02338e-05
2.92754e-05
3.61578e-05
4.17259e-05
4.66187e-05
5.16791e-05
5.77412e-05
6.53011e-05
7.50123e-05
8.73444e-05
0.000102393
0.000118659
0.000134312
0.000148615
0.0001611
0.000171534
0.000179858
0.000186155
0.000190648
0.000193701
0.000195717
0.000196907
0.000197457
0.000199664
0.000200701
0.000201931
0.000199709
4.46085e-05
4.48308e-05
0.000197663
4.48241e-05
4.55447e-05
4.69402e-05
4.77055e-05
4.84403e-05
4.91436e-05
4.98144e-05
5.04541e-05
5.10645e-05
5.16481e-05
5.22069e-05
5.27434e-05
5.32597e-05
5.37576e-05
5.42392e-05
5.47059e-05
5.51592e-05
5.56004e-05
5.60306e-05
5.64509e-05
5.6862e-05
5.72648e-05
5.76598e-05
5.80475e-05
5.84285e-05
5.88029e-05
5.91712e-05
5.95334e-05
5.98898e-05
6.02403e-05
6.05851e-05
6.0924e-05
6.1257e-05
6.15839e-05
6.19046e-05
6.2219e-05
6.25267e-05
6.28276e-05
6.31214e-05
6.34078e-05
6.36864e-05
6.39571e-05
6.42194e-05
6.4473e-05
6.47177e-05
6.49531e-05
6.51788e-05
6.53945e-05
6.55999e-05
6.57948e-05
6.59788e-05
6.61516e-05
6.6313e-05
6.64628e-05
6.66007e-05
6.67266e-05
6.68402e-05
6.69416e-05
6.70306e-05
6.71071e-05
6.71714e-05
6.72232e-05
6.72627e-05
6.72906e-05
6.73104e-05
6.73131e-05
6.72973e-05
6.72662e-05
6.72228e-05
6.71678e-05
6.71016e-05
6.70246e-05
6.69372e-05
6.68397e-05
6.67327e-05
6.66164e-05
6.64914e-05
6.6358e-05
6.62167e-05
6.60678e-05
6.59118e-05
6.5749e-05
6.55797e-05
6.54042e-05
6.52226e-05
6.50351e-05
6.48417e-05
6.46425e-05
6.44373e-05
6.42258e-05
6.40078e-05
6.37826e-05
6.35498e-05
6.33085e-05
6.30578e-05
6.27965e-05
6.25234e-05
6.22371e-05
6.19358e-05
6.16177e-05
6.12807e-05
6.09223e-05
6.05402e-05
6.01314e-05
5.96929e-05
5.92215e-05
5.87137e-05
5.81653e-05
5.75709e-05
5.69213e-05
5.61928e-05
5.53617e-05
5.48452e-05
5.45878e-05
5.43161e-05
5.4005e-05
5.36492e-05
5.32472e-05
5.27993e-05
5.23075e-05
5.17735e-05
5.11992e-05
5.05917e-05
4.99649e-05
4.92785e-05
4.83539e-05
4.76316e-05
0.000207305
0.000210874
0.00020927
0.000201964
0.000197829
0.000199401
0.000198004
0.000193746
0.000187601
0.000180337
0.000172485
0.0001644
0.000156395
0.000148673
0.000141307
0.000134336
0.000127779
0.000121644
0.000115932
0.000110668
0.000105888
0.000102111
2.4653e-06
3.23829e-05
6.62949e-05
9.41234e-05
0.000116282
0.000134011
0.000148227
0.000159329
0.00016932
0.000179795
0.00019154
0.00020473
0.000218786
0.000232824
0.000246004
0.000257674
0.000267371
0.000274791
0.000279778
0.000282375
0.000282871
0.000281672
0.000279002
0.00027521
0.000272578
0.00027568
0.000273499
0.0002668
0.000247386
0.00025143
0.000267185
0.000262319
0.000270372
0.000281083
0.000290734
0.000299435
0.000307923
0.000316182
0.000324156
0.000331816
0.000339153
0.000346174
0.000352892
0.000359328
0.000365504
0.000371442
0.000377165
0.000382695
0.000388053
0.000393256
0.000398323
0.00040327
0.000408111
0.000412857
0.000417522
0.000422114
0.000426643
0.000431115
0.000435537
0.000439914
0.000444249
0.000448545
0.000452805
0.00045703
0.00046122
0.000465373
0.00046949
0.000473568
0.000477605
0.000481597
0.000485541
0.000489433
0.000493268
0.000497042
0.00050075
0.000504386
0.000507944
0.00051142
0.000514807
0.000518099
0.000521292
0.000524378
0.000527354
0.000530214
0.000532954
0.000535569
0.000538055
0.00054041
0.000542631
0.000544716
0.000546667
0.000548495
0.000550179
0.00055171
0.000553058
0.000554161
0.000555028
0.000555676
0.000556131
0.000556415
0.00055654
0.000556513
0.000556342
0.000556031
0.00055559
0.000555025
0.000554346
0.000553562
0.000552683
0.000551721
0.000550687
0.000549595
0.000548456
0.000547285
0.000546096
0.000544903
0.00054372
0.000542561
0.00054144
0.00054037
0.000539363
0.000538432
0.000537584
0.000536829
0.000536171
0.000535614
0.00053516
0.000534804
0.000534543
0.000534364
0.000534254
0.000534193
0.000534156
0.000534111
0.00053402
0.000533835
0.000533496
0.000532927
0.000532018
0.000530593
0.000528342
0.000524667
0.000518692
0.000510832
0.000502137
0.000492769
0.000482755
0.000472106
0.000460841
0.000448984
0.000436578
0.000423666
0.000410291
0.000396481
0.000382226
0.000367291
0.000350551
0.000334713
0.000349384
0.00035759
0.00035671
0.000337514
0.000329418
0.000361883
0.000386856
0.000397134
0.000396675
0.00038994
0.000379851
0.000368048
0.000355286
0.000342555
0.000330209
0.000318375
0.00030709
0.000296335
0.000286019
0.000276049
0.000265762
0.000256703
4.39529e-06
4.81797e-05
9.87404e-05
0.000140687
0.000174154
0.000200441
0.000219912
0.000234519
0.000246381
0.00025733
0.000268642
0.000280872
0.00029392
0.000307293
0.000320389
0.000332692
0.00034385
0.000353701
0.000362288
0.000369872
0.000376909
0.000383926
0.000391355
0.000399622
0.000409496
0.000421501
0.000433702
0.000446163
0.000458547
0.000474238
0.000491735
0.000508438
0.000526855
0.000545787
0.000564431
0.000582418
0.000599734
0.000616371
0.000632335
0.000647643
0.000662324
0.000676416
0.000689959
0.000702994
0.000715564
0.000727711
0.000739474
0.000750891
0.000761996
0.000772822
0.0007834
0.000793757
0.000803916
0.000813902
0.000823734
0.000833429
0.000843003
0.000852469
0.000861838
0.00087112
0.000880322
0.000889448
0.000898504
0.000907492
0.000916411
0.000925261
0.00093404
0.000942744
0.00095137
0.00095991
0.000968359
0.000976709
0.00098495
0.000993075
0.00100107
0.00100893
0.00101664
0.0010242
0.00103158
0.00103877
0.00104578
0.00105257
0.00105915
0.00106551
0.00107162
0.00107748
0.00108309
0.00108844
0.00109351
0.00109828
0.00110274
0.00110684
0.00111059
0.00111398
0.00111697
0.00111956
0.00112172
0.00112348
0.00112485
0.00112585
0.00112648
0.00112676
0.00112671
0.00112632
0.00112561
0.0011246
0.00112328
0.00112168
0.00111982
0.0011177
0.00111535
0.00111278
0.00111001
0.00110707
0.00110397
0.00110074
0.0010974
0.00109397
0.00109048
0.00108694
0.00108337
0.00107979
0.00107622
0.00107268
0.00106916
0.00106568
0.00106223
0.00105882
0.00105544
0.00105207
0.00104868
0.00104524
0.00104171
0.00103805
0.00103417
0.00103
0.00102545
0.00102037
0.00101461
0.00100792
0.000999976
0.000990329
0.000978638
0.000965183
0.000950492
0.000934704
0.000917845
0.000899923
0.000880962
0.000860997
0.000840085
0.000818295
0.000795703
0.000772387
0.000748397
0.000723653
0.000698107
0.000673076
0.000655395
0.000640092
0.000624715
0.000606627
0.0005933
0.000594881
0.000598694
0.000598051
0.000591905
0.000581372
0.000567895
0.000552614
0.000536251
0.000519383
0.000502669
0.000486347
0.000470526
0.000455217
0.000440306
0.00042557
0.00041009
0.000393541
6.81155e-06
6.63827e-05
0.000131443
0.000183224
0.00022336
0.000253575
0.000276157
0.000293257
0.000306951
0.000319072
0.000331002
0.000343528
0.000356882
0.000370912
0.000385309
0.000399779
0.000414144
0.000428384
0.000442642
0.000457201
0.000472436
0.000488718
0.000506321
0.000525423
0.000546153
0.000568467
0.000591906
0.000616266
0.000641328
0.000667177
0.000693481
0.00071986
0.000746262
0.000772359
0.000797864
0.000822579
0.000846426
0.000869389
0.000891485
0.000912749
0.000933223
0.000952957
0.000972001
0.000990405
0.00100822
0.0010255
0.00104228
0.00105861
0.00107454
0.0010901
0.00110532
0.00112026
0.00113492
0.00114935
0.00116356
0.00117759
0.00119144
0.00120514
0.0012187
0.00123214
0.00124545
0.00125866
0.00127177
0.00128478
0.00129768
0.00131049
0.00132319
0.00133579
0.00134827
0.00136064
0.00137287
0.00138497
0.00139691
0.00140869
0.0014203
0.00143171
0.00144292
0.00145391
0.00146466
0.00147515
0.00148538
0.00149532
0.00150495
0.00151426
0.00152325
0.00153188
0.00154012
0.00154794
0.00155531
0.00156224
0.0015687
0.00157467
0.00158013
0.00158506
0.00158945
0.00159327
0.00159651
0.00159918
0.00160129
0.00160284
0.00160385
0.00160432
0.00160427
0.00160369
0.00160262
0.00160105
0.00159899
0.00159647
0.00159349
0.00159008
0.00158625
0.00158202
0.00157742
0.00157246
0.00156716
0.00156156
0.00155568
0.00154953
0.00154315
0.00153656
0.00152977
0.00152282
0.00151572
0.00150848
0.00150112
0.00149364
0.00148606
0.00147837
0.00147055
0.00146261
0.00145452
0.00144623
0.00143773
0.00142894
0.00141981
0.00141025
0.00140015
0.00138941
0.00137785
0.00136529
0.00135153
0.00133634
0.00131958
0.00130137
0.00128191
0.00126127
0.00123945
0.00121646
0.00119234
0.00116712
0.00114086
0.00111364
0.00108556
0.00105672
0.00102723
0.000997175
0.000966742
0.000936557
0.00090828
0.000881817
0.000856891
0.000833211
0.000812646
0.000797718
0.000785504
0.000773075
0.000759051
0.000743222
0.00072591
0.000707567
0.000688575
0.000669215
0.000649967
0.000631057
0.000612613
0.000594673
0.000577159
0.000559862
0.000542042
0.000523202
9.59303e-06
8.18883e-05
0.000158294
0.000218456
0.000264129
0.000298446
0.000324192
0.00034381
0.000359504
0.000373174
0.000386295
0.000399839
0.000414297
0.000429806
0.000446315
0.000463727
0.000481993
0.00050115
0.000521322
0.000542696
0.00056547
0.000589802
0.000615759
0.000643313
0.000672357
0.000702694
0.000734035
0.000766101
0.000798616
0.000831346
0.000864047
0.000896492
0.000928489
0.000959849
0.000990416
0.00102008
0.00104879
0.00107654
0.00110334
0.00112923
0.00115425
0.00117844
0.00120186
0.00122457
0.00124661
0.00126802
0.00128888
0.00130921
0.00132906
0.00134848
0.00136751
0.00138617
0.00140452
0.00142258
0.00144037
0.00145792
0.00147527
0.00149242
0.00150939
0.0015262
0.00154286
0.00155938
0.00157577
0.00159203
0.00160816
0.00162417
0.00164005
0.00165579
0.00167139
0.00168685
0.00170214
0.00171727
0.00173221
0.00174696
0.0017615
0.0017758
0.00178986
0.00180365
0.00181715
0.00183035
0.00184323
0.00185575
0.00186792
0.00187968
0.00189098
0.0019018
0.00191214
0.00192195
0.00193123
0.00193994
0.00194807
0.00195559
0.00196248
0.00196871
0.00197427
0.00197913
0.00198328
0.00198671
0.00198943
0.00199144
0.00199273
0.00199333
0.00199323
0.00199244
0.00199098
0.00198883
0.00198603
0.00198257
0.00197848
0.00197377
0.00196845
0.00196254
0.00195607
0.00194905
0.00194151
0.00193346
0.00192494
0.00191596
0.00190655
0.00189674
0.00188655
0.00187599
0.0018651
0.00185389
0.00184237
0.00183056
0.00181846
0.00180609
0.00179344
0.00178051
0.00176728
0.00175373
0.00173984
0.00172556
0.00171083
0.00169562
0.00167981
0.00166335
0.00164605
0.00162793
0.00160881
0.00158855
0.00156708
0.00154444
0.0015207
0.00149587
0.00146996
0.00144297
0.00141495
0.00138593
0.00135598
0.00132518
0.00129363
0.00126144
0.00122873
0.00119566
0.00116239
0.00112927
0.0010969
0.00106562
0.00103566
0.00100727
0.000981047
0.00095762
0.000936312
0.000916039
0.000895967
0.000875686
0.000855107
0.000834303
0.000813394
0.000792472
0.000771786
0.000751493
0.000731695
0.00071243
0.00069365
0.000675191
0.00065654
0.000637445
1.21854e-05
9.40888e-05
0.000180005
0.000247313
0.00029846
0.000337085
0.000366299
0.000388773
0.000406839
0.000422481
0.000437279
0.000452365
0.000468448
0.000485898
0.000504868
0.000525405
0.000547528
0.000571268
0.000596673
0.000623792
0.000652654
0.000683236
0.00071545
0.000749141
0.000784102
0.000820081
0.000856799
0.000893977
0.000931344
0.000968656
0.00100569
0.00104226
0.0010782
0.00111337
0.00114767
0.00118102
0.0012134
0.00124479
0.00127522
0.0013047
0.00133328
0.001361
0.0013879
0.00141404
0.00143946
0.00146422
0.00148835
0.00151192
0.00153495
0.0015575
0.00157961
0.00160131
0.00162265
0.00164365
0.00166435
0.00168477
0.00170494
0.00172489
0.00174462
0.00176416
0.00178353
0.00180273
0.00182177
0.00184066
0.00185941
0.001878
0.00189645
0.00191474
0.00193288
0.00195085
0.00196864
0.00198624
0.00200364
0.00202083
0.00203778
0.00205447
0.0020709
0.00208703
0.00210284
0.00211833
0.00213344
0.00214815
0.00216239
0.00217615
0.00218941
0.00220213
0.00221429
0.00222586
0.00223681
0.00224712
0.00225675
0.00226568
0.00227388
0.00228132
0.00228797
0.00229382
0.00229884
0.00230303
0.00230637
0.00230886
0.0023105
0.00231128
0.00231121
0.0023103
0.00230853
0.00230592
0.00230248
0.00229821
0.00229312
0.00228723
0.00228054
0.00227308
0.00226485
0.00225589
0.0022462
0.00223581
0.00222474
0.002213
0.00220064
0.00218766
0.00217411
0.00215998
0.00214533
0.00213015
0.00211447
0.00209831
0.00208167
0.00206459
0.00204707
0.00202911
0.00201071
0.00199186
0.00197257
0.0019528
0.0019325
0.00191171
0.00189028
0.00186827
0.00184561
0.00182223
0.00179805
0.00177298
0.00174701
0.00172014
0.00169237
0.00166373
0.00163421
0.00160384
0.00157265
0.00154069
0.00150802
0.00147472
0.00144088
0.00140662
0.00137206
0.00133732
0.00130255
0.00126796
0.00123386
0.00120053
0.00116822
0.00113718
0.0011077
0.00108
0.00105394
0.00102919
0.00100532
0.00098204
0.000959173
0.000936656
0.000914478
0.000892633
0.000871199
0.000850265
0.000829897
0.000810122
0.000790908
0.000772134
0.000753461
0.000734851
1.44045e-05
0.000103628
0.000196833
0.000270507
0.000326973
0.000370032
0.000403007
0.000428718
0.000449585
0.000467654
0.000484587
0.000501645
0.000519703
0.000539309
0.000560768
0.000584222
0.000609724
0.000637274
0.000666837
0.00069835
0.000731711
0.000766781
0.000803375
0.000841273
0.000880226
0.00091997
0.000960237
0.00100077
0.00104131
0.00108166
0.00112161
0.001161
0.0011997
0.00123759
0.00127461
0.00131069
0.00134581
0.00137996
0.00141315
0.0014454
0.00147674
0.00150721
0.00153685
0.0015657
0.00159382
0.00162123
0.00164799
0.00167414
0.00169973
0.00172481
0.0017494
0.00177355
0.0017973
0.00182068
0.00184372
0.00186646
0.00188891
0.00191111
0.00193308
0.00195484
0.00197639
0.00199776
0.00201896
0.00203998
0.00206085
0.00208156
0.0021021
0.00212249
0.0021427
0.00216275
0.00218261
0.00220228
0.00222173
0.00224097
0.00225996
0.0022787
0.00229715
0.00231531
0.00233313
0.00235058
0.00236759
0.00238416
0.00240025
0.00241583
0.00243087
0.00244534
0.00245921
0.00247243
0.00248498
0.00249682
0.00250793
0.00251825
0.00252777
0.00253644
0.00254424
0.00255115
0.00255713
0.00256216
0.00256624
0.00256935
0.00257147
0.0025726
0.00257273
0.00257187
0.00257
0.00256712
0.00256325
0.00255837
0.0025525
0.00254564
0.0025378
0.002529
0.00251924
0.00250855
0.00249693
0.0024844
0.00247099
0.00245671
0.00244158
0.00242564
0.0024089
0.00239139
0.00237314
0.00235416
0.00233448
0.00231412
0.00229309
0.00227143
0.00224917
0.00222632
0.00220287
0.00217883
0.00215427
0.00212915
0.00210339
0.00207718
0.00205042
0.00202313
0.00199527
0.00196682
0.00193775
0.00190804
0.00187768
0.00184668
0.00181506
0.00178282
0.00175
0.00171662
0.00168271
0.00164834
0.00161356
0.00157845
0.00154309
0.00150758
0.00147202
0.00143652
0.00140118
0.00136611
0.00133153
0.00129761
0.00126454
0.00123249
0.00120163
0.00117208
0.00114388
0.00111693
0.00109108
0.00106614
0.00104197
0.00101849
0.000995647
0.000973387
0.000951693
0.000930606
0.000910163
0.000890382
0.000871235
0.000852636
0.000834364
0.000816503
1.61551e-05
0.000110369
0.000209404
0.000288625
0.000350023
0.000397457
0.00043435
0.000463588
0.00048762
0.000508513
0.00052797
0.000547329
0.000567578
0.000589385
0.000613159
0.000639114
0.000667323
0.000697763
0.000730346
0.000764935
0.000801354
0.000839395
0.000878829
0.000919406
0.000960868
0.00100296
0.00104543
0.00108803
0.00113056
0.00117283
0.00121465
0.0012559
0.00129645
0.00133622
0.00137513
0.00141315
0.00145024
0.0014864
0.00152163
0.00155595
0.00158938
0.00162194
0.00165368
0.00168462
0.00171481
0.00174429
0.0017731
0.00180129
0.00182889
0.00185595
0.0018825
0.00190859
0.00193425
0.00195952
0.00198443
0.00200901
0.0020333
0.0020573
0.00208106
0.00210459
0.0021279
0.00215102
0.00217396
0.00219672
0.00221931
0.00224174
0.00226402
0.00228613
0.00230808
0.00232986
0.00235146
0.00237288
0.0023941
0.0024151
0.00243587
0.00245639
0.00247664
0.00249657
0.00251614
0.00253532
0.00255408
0.0025724
0.00259023
0.00260754
0.0026243
0.00264047
0.00265602
0.00267089
0.00268505
0.00269846
0.00271109
0.00272288
0.00273381
0.00274383
0.0027529
0.002761
0.0027681
0.00277415
0.00277915
0.00278307
0.00278588
0.00278758
0.00278815
0.00278758
0.00278585
0.00278297
0.00277892
0.00277371
0.00276733
0.00275978
0.00275107
0.00274121
0.00273021
0.00271806
0.00270479
0.00269042
0.00267494
0.00265839
0.00264078
0.00262213
0.00260248
0.00258184
0.00256025
0.00253773
0.00251429
0.00248996
0.00246476
0.00243876
0.00241197
0.00238444
0.00235614
0.00232708
0.00229743
0.00226717
0.00223629
0.00220488
0.00217294
0.00214049
0.00210757
0.00207417
0.00204033
0.00200606
0.00197139
0.00193635
0.00190096
0.00186528
0.00182934
0.00179317
0.00175684
0.00172041
0.00168392
0.00164746
0.0016111
0.0015749
0.00153895
0.00150332
0.00146806
0.00143324
0.00139899
0.00136541
0.00133261
0.0013007
0.00126976
0.00123989
0.00121114
0.00118353
0.001157
0.00113148
0.00110688
0.00108312
0.00106015
0.00103791
0.00101634
0.000995453
0.000975273
0.000955807
0.000937036
0.000918894
0.000901236
0.000884202
1.72644e-05
0.000114945
0.000218382
0.000302151
0.000367927
0.000419508
0.000460313
0.000493217
0.000520642
0.00054463
0.000566878
0.000588749
0.000611282
0.000635221
0.000661043
0.000689015
0.000719235
0.000751683
0.000786249
0.000822767
0.000861031
0.000900807
0.000941851
0.000983908
0.00102673
0.00107007
0.0011137
0.00115741
0.001201
0.00124431
0.00128718
0.0013295
0.00137115
0.00141207
0.00145218
0.00149145
0.00152985
0.00156736
0.00160399
0.00163974
0.00167464
0.00170869
0.00174193
0.0017744
0.00180612
0.00183713
0.00186746
0.00189717
0.00192628
0.00195484
0.00198288
0.00201045
0.00203757
0.00206429
0.00209063
0.00211664
0.00214233
0.00216774
0.0021929
0.00221782
0.00224252
0.00226703
0.00229135
0.0023155
0.0023395
0.00236333
0.00238703
0.00241057
0.00243396
0.00245721
0.00248029
0.00250321
0.00252595
0.00254851
0.00257086
0.00259297
0.0026148
0.00263632
0.00265752
0.00267834
0.00269878
0.00271878
0.00273832
0.00275735
0.00277583
0.00279372
0.00281097
0.00282755
0.0028434
0.00285847
0.00287272
0.00288611
0.00289859
0.00291012
0.00292064
0.00293013
0.00293853
0.00294582
0.00295196
0.00295693
0.00296068
0.00296321
0.00296448
0.00296447
0.00296318
0.00296057
0.00295665
0.00295141
0.00294483
0.00293691
0.00292765
0.00291705
0.00290511
0.00289184
0.00287725
0.00286134
0.00284412
0.00282562
0.00280583
0.0027848
0.00276255
0.0027391
0.00271447
0.0026887
0.0026618
0.0026338
0.0026047
0.0025746
0.00254356
0.0025116
0.00247874
0.00244503
0.00241057
0.00237539
0.00233955
0.00230311
0.00226614
0.00222869
0.00219082
0.00215259
0.00211407
0.00207531
0.00203639
0.00199736
0.00195829
0.00191925
0.00188031
0.00184152
0.00180297
0.0017647
0.00172679
0.00168931
0.00165229
0.00161581
0.00157991
0.00154461
0.00150994
0.00147592
0.0014426
0.00141002
0.00137823
0.00134726
0.00131715
0.00128795
0.00125971
0.00123248
0.00120626
0.001181
0.00115666
0.00113321
0.00111059
0.00108876
0.00106763
0.00104723
0.00102757
0.00100864
0.000990449
0.000972933
0.000956
0.000939805
1.78733e-05
0.000117639
0.000224125
0.000311471
0.000381012
0.000436398
0.000480964
0.000517515
0.000548401
0.0005756
0.000600759
0.000625221
0.000650031
0.000675963
0.000703538
0.000733063
0.000764672
0.000798364
0.000834043
0.000871548
0.000910672
0.000951189
0.000992858
0.00103544
0.0010787
0.00112241
0.00116636
0.00121037
0.00125425
0.00129787
0.00134107
0.00138377
0.00142585
0.00146725
0.00150792
0.0015478
0.00158688
0.00162513
0.00166255
0.00169914
0.00173491
0.00176989
0.00180408
0.00183751
0.00187022
0.00190224
0.0019336
0.00196433
0.00199447
0.00202407
0.00205314
0.00208174
0.0021099
0.00213765
0.00216503
0.00219207
0.0022188
0.00224525
0.00227144
0.0022974
0.00232316
0.00234873
0.00237412
0.00239937
0.00242447
0.00244943
0.00247427
0.00249899
0.00252359
0.00254806
0.00257242
0.00259664
0.00262073
0.00264466
0.0026684
0.00269194
0.00271524
0.00273829
0.00276105
0.00278349
0.00280557
0.00282725
0.0028485
0.00286927
0.00288952
0.00290919
0.00292824
0.00294661
0.00296425
0.00298111
0.00299714
0.00301229
0.00302649
0.00303971
0.00305188
0.00306296
0.0030729
0.00308166
0.00308919
0.00309546
0.00310043
0.00310405
0.00310631
0.00310717
0.00310661
0.0031046
0.00310112
0.00309617
0.00308971
0.00308175
0.00307227
0.00306127
0.00304874
0.00303469
0.00301912
0.00300202
0.00298342
0.0029633
0.00294168
0.00291861
0.00289409
0.00286816
0.00284083
0.00281214
0.00278211
0.00275077
0.00271815
0.00268433
0.00264935
0.00261327
0.00257614
0.00253802
0.002499
0.00245915
0.00241854
0.00237728
0.00233546
0.00229316
0.00225049
0.00220755
0.00216445
0.00212129
0.00207819
0.00203524
0.00199256
0.00195025
0.00190841
0.00186712
0.00182648
0.00178656
0.00174744
0.00170916
0.00167178
0.00163532
0.0015998
0.00156521
0.00153152
0.00149873
0.00146679
0.00143572
0.00140548
0.00137605
0.00134743
0.00131962
0.00129266
0.00126656
0.00124134
0.001217
0.00119351
0.00117086
0.00114901
0.00112793
0.00110754
0.00108787
0.00106893
0.00105073
0.00103326
0.00101648
0.00100034
0.000984981
1.8068e-05
0.000118671
0.000226987
0.000316991
0.00038966
0.000448426
0.00049648
0.000536513
0.000570773
0.000601141
0.000629186
0.000656195
0.000683186
0.00071093
0.000739967
0.000770638
0.000803113
0.000837426
0.000873515
0.000911245
0.000950438
0.000990887
0.00103238
0.00107469
0.0011176
0.00116093
0.00120447
0.00124807
0.00129155
0.00133479
0.00137767
0.00142008
0.00146195
0.0015032
0.00154379
0.00158366
0.00162279
0.00166117
0.00169877
0.00173561
0.00177168
0.001807
0.00184158
0.00187544
0.00190861
0.00194112
0.00197299
0.00200426
0.00203496
0.00206512
0.00209479
0.002124
0.00215277
0.00218116
0.00220918
0.00223688
0.00226428
0.00229141
0.00231831
0.00234499
0.00237149
0.00239782
0.00242401
0.00245007
0.00247601
0.00250186
0.00252761
0.00255328
0.00257888
0.00260439
0.00262983
0.00265519
0.00268046
0.00270562
0.00273066
0.00275556
0.00278029
0.00280482
0.00282913
0.00285317
0.00287691
0.00290031
0.00292332
0.00294589
0.00296797
0.00298951
0.00301046
0.00303075
0.00305032
0.00306913
0.00308709
0.00310417
0.00312029
0.0031354
0.00314943
0.00316234
0.00317406
0.00318453
0.00319372
0.00320156
0.00320801
0.00321303
0.00321658
0.00321861
0.00321909
0.00321799
0.00321529
0.00321095
0.00320496
0.0031973
0.00318795
0.00317689
0.00316413
0.00314965
0.00313345
0.00311553
0.00309589
0.00307453
0.00305147
0.00302673
0.00300032
0.00297228
0.00294262
0.00291137
0.00287857
0.00284424
0.00280844
0.00277122
0.00273265
0.00269277
0.00265168
0.00260943
0.00256613
0.00252187
0.00247675
0.0024309
0.00238443
0.00233748
0.00229019
0.00224269
0.00219515
0.00214771
0.00210053
0.00205376
0.00200756
0.00196208
0.00191743
0.00187376
0.00183117
0.00178975
0.00174958
0.00171071
0.00167318
0.00163698
0.00160211
0.00156852
0.00153615
0.00150491
0.00147475
0.00144557
0.00141732
0.00138991
0.00136328
0.0013374
0.00131226
0.00128786
0.00126421
0.00124131
0.00121915
0.00119772
0.001177
0.00115698
0.00113759
0.00111887
0.00110084
0.00108352
0.0010669
0.00105096
0.00103566
0.00102114
1.79147e-05
0.000118316
0.000227378
0.000319168
0.000394306
0.000455956
0.000507122
0.000550348
0.000587753
0.000621106
0.000651877
0.000681275
0.000710268
0.000739601
0.000769817
0.000801275
0.000834179
0.000868605
0.000904533
0.000941869
0.000980472
0.00102017
0.00106079
0.00110213
0.00114401
0.00118626
0.0012287
0.0012712
0.0013136
0.0013558
0.00139768
0.00143916
0.00148016
0.00152061
0.00156046
0.00159968
0.00163823
0.0016761
0.00171327
0.00174973
0.0017855
0.00182057
0.00185497
0.00188869
0.00192178
0.00195425
0.00198612
0.00201744