/*--------------------------------*- C++ -*----------------------------------*\
  =========                 |
  \\      /  F ield         | OpenFOAM: The Open Source CFD Toolbox
   \\    /   O peration     | Website:  https://openfoam.org
    \\  /    A nd           | Version:  7
     \\/     M anipulation  |
\*---------------------------------------------------------------------------*/
FoamFile
{
    version     2.0;
    format      ascii;
    class       volScalarField;
    location    "0.074";
    object      p;
}
// * * * * * * * * * * * * * * * * * * * * * * * * * * * * * * * * * * * * * //

dimensions      [0 2 -2 0 0 0 0];

internalField   nonuniform List<scalar> 
12225
(
10.2698
9.88512
8.63762
7.44504
6.55103
5.90153
5.40678
5.01602
4.70308
4.43957
4.20203
3.99036
3.81521
3.68268
3.58619
3.51068
3.44012
3.34973
10.9667
9.89633
8.6156
7.42922
6.53582
5.88857
5.39801
5.0108
4.70034
4.43853
4.20156
3.98853
3.81205
3.67929
3.58463
3.50932
3.44068
3.36317
11.2288
9.88946
8.55343
7.38867
6.50645
5.86624
5.38322
5.00173
4.6933
4.43247
4.19909
3.99217
3.8206
3.68722
3.58722
3.50458
3.43017
3.3568
11.8187
9.89671
8.48683
7.33501
6.46708
5.836
5.36159
4.98697
4.68234
4.42537
4.19833
3.99706
3.82708
3.69005
3.58239
3.49144
3.40862
3.32804
11.7415
9.86631
8.37153
7.24609
6.40719
5.79253
5.3297
4.96425
4.66591
4.414
4.19224
3.99535
3.82703
3.68834
3.57514
3.4768
3.38437
3.29117
12.5698
9.84084
8.21875
7.12165
6.32185
5.73047
5.28378
4.93146
4.64274
4.39818
4.1831
3.99191
3.82638
3.68651
3.56787
3.46159
3.35896
3.25249
13.2677
9.69626
7.99679
6.95582
6.21397
5.65703
5.23081
4.89292
4.61459
4.3774
4.16877
3.98286
3.81975
3.67877
3.55569
3.44266
3.33144
3.21429
12.6649
9.3605
7.70552
6.74236
6.06847
5.55564
5.15801
4.84048
4.57723
4.35164
4.15215
3.97286
3.81282
3.67115
3.54414
3.42496
3.30608
3.18018
12.4683
8.83987
7.28957
6.465
5.88916
5.43766
5.07582
4.78107
4.53339
4.31887
4.12786
3.95497
3.79869
3.65782
3.52894
3.40598
3.28213
3.15136
10.6448
8.01396
6.80198
6.14203
5.67328
5.29126
4.97384
4.70802
4.48059
4.2809
4.10108
3.93638
3.78501
3.64576
3.51585
3.39016
3.26295
3.12949
8.47172
6.8236
6.15784
5.74816
5.4204
5.12482
4.85985
4.62643
4.42038
4.23573
4.06719
3.91108
3.76545
3.62916
3.50021
3.37448
3.24764
3.11556
4.68202
5.60886
5.52443
5.35837
5.16107
4.95008
4.73927
4.53927
4.35546
4.18697
4.03074
3.88417
3.74559
3.61398
3.48787
3.36434
3.24
3.11178
3.317
4.45032
4.84754
4.95473
4.89814
4.77218
4.61572
4.45038
4.29033
4.13909
3.99544
3.85803
3.72606
3.59909
3.47634
3.35581
3.2351
3.11203
1.33319
3.19712
4.11761
4.49889
4.59223
4.55954
4.4635
4.33787
4.20542
4.07416
3.94522
3.81937
3.69702
3.57817
3.4625
3.34899
3.23604
3.12194
-2.32967
1.94321
3.46211
4.06654
4.29028
4.33996
4.29837
4.21271
4.11178
4.0048
3.89397
3.78226
3.67189
3.56324
3.456
3.35005
3.24547
3.14155
-1.04316
1.85488
3.11682
3.73206
4.01719
4.12696
4.13143
4.08055
4.00686
3.92126
3.8275
3.73054
3.63393
3.53845
3.44447
3.35211
3.26135
3.17355
3.4431
2.91487
3.30097
3.67792
3.88931
3.98071
3.98864
3.95236
3.89935
3.83521
3.76186
3.6846
3.60693
3.52917
3.45123
3.37408
3.29927
3.22664
2.99152
3.31193
3.5624
3.75463
3.84487
3.87931
3.8728
3.84431
3.80559
3.75486
3.69517
3.63373
3.5734
3.51394
3.45323
3.39443
3.33832
3.28533
2.82147
3.94942
4.06556
4.01585
3.94901
3.88735
3.82291
3.77163
3.72735
3.67894
3.6285
3.58056
3.53539
3.49146
3.45028
3.4122
3.376
3.34222
9.42076
6.35621
4.94326
4.28209
3.96473
3.80158
3.7236
3.68321
3.65374
3.62465
3.59412
3.56331
3.53283
3.50254
3.47486
3.44344
3.41627
3.39301
11.791
6.42319
4.73863
4.09939
3.83101
3.70346
3.64152
3.60412
3.57632
3.5546
3.53379
3.51243
3.49294
3.47363
3.45746
3.44392
3.42998
3.41744
3.44546
3.56115
3.57382
3.54037
3.51602
3.51473
3.52667
3.53653
3.5386
3.53477
3.5269
3.51488
3.50466
3.49097
3.47669
3.46537
3.45508
3.44615
-4.59736
0.949855
2.57623
3.0873
3.28438
3.37107
3.42107
3.45193
3.4697
3.4746
3.47535
3.47309
3.469
3.47052
3.46736
3.46315
3.45957
3.45673
-3.40348
0.577229
2.18993
2.83443
3.13053
3.28401
3.37513
3.42321
3.4515
3.46732
3.47516
3.47859
3.47792
3.47784
3.47721
3.47608
3.4753
3.47488
-1.10524
1.2102
2.28306
2.77125
3.04764
3.21503
3.31876
3.37632
3.40872
3.43196
3.44717
3.45853
3.46598
3.47132
3.47501
3.47768
3.48033
3.48302
0.157711
1.96294
2.53904
2.82877
3.06441
3.22611
3.32376
3.37645
3.40503
3.42902
3.44791
3.46163
3.47082
3.47748
3.48291
3.48784
3.49261
3.49723
3.18486
2.73655
2.722
2.85275
3.05769
3.21087
3.29896
3.35436
3.38815
3.41575
3.43843
3.45515
3.46679
3.47541
3.48276
3.48989
3.49713
3.50418
4.8316
3.6319
2.97758
2.95227
3.10327
3.23253
3.30837
3.35581
3.38844
3.41639
3.44047
3.45877
3.47134
3.48047
3.48877
3.49784
3.50776
3.51708
7.03159
3.96807
3.05507
2.98663
3.11299
3.22995
3.30298
3.35076
3.38407
3.4124
3.43815
3.45872
3.47239
3.4811
3.4888
3.49873
3.51164
3.52486
9.52746
4.27263
3.10757
3.03793
3.1382
3.24
3.3096
3.35539
3.38657
3.4134
3.43911
3.46069
3.47555
3.48525
3.49382
3.50458
3.51822
3.53215
5.02956
4.94519
4.83787
4.75344
4.7215
4.74449
4.817
4.92121
5.02773
5.10933
5.1337
5.09071
4.97643
4.79384
4.55298
4.26841
3.95552
3.62876
3.3013
2.98517
2.69139
2.43011
2.21039
2.04019
1.92661
1.87558
1.88971
1.96629
2.10091
2.28611
2.51426
2.76929
3.03613
3.28479
3.48304
3.60253
3.54915
3.35119
3.15766
2.99473
2.86862
2.78492
2.73223
2.71382
2.74192
2.82373
2.95784
3.11388
3.27895
3.45799
3.63092
3.74519
3.78683
3.75306
3.72056
3.81797
3.99641
4.00756
3.8314
3.68352
3.72893
3.95411
3.93229
3.44391
2.5965
1.51567
0.30205
-0.972011
-2.25643
-3.51638
-4.72678
-5.86865
-6.9265
-7.88655
-8.73549
-9.46049
-10.05
-10.4944
-10.787
-10.9237
-10.9046
-10.736
-10.4294
-9.99935
-9.46202
-8.8341
-8.13197
-7.37103
-6.56531
-5.7272
-4.86734
-3.99475
-3.11698
-2.24033
-1.37007
-0.5107
0.33385
1.15997
1.96429
2.74363
3.49494
4.21518
4.90116
5.54958
6.15713
6.72064
7.23725
7.70453
8.12076
8.48494
8.79682
9.05698
9.26654
9.42761
9.5448
9.62176
9.66307
9.67365
9.65852
9.62251
9.57013
9.50541
9.43179
9.35215
9.26875
9.18333
9.09717
9.01109
8.92571
8.84156
8.75876
8.67686
8.59574
8.51586
8.4374
8.36054
8.28549
8.21242
8.14152
8.07296
8.00687
7.94338
7.8825
7.82419
7.76833
7.71476
7.6633
7.61377
7.56598
7.51974
7.47489
7.43124
7.38864
7.34695
7.30607
7.26593
7.22647
7.18767
7.14953
7.11206
7.07522
7.03897
7.00334
6.96835
6.93398
6.90022
6.86705
6.83449
6.80258
6.77145
6.74114
6.71194
6.68387
6.65749
6.63274
6.61039
6.59045
6.5727
6.56214
6.53135
4.80196
4.73402
4.62419
4.55115
4.52668
4.56239
4.63345
4.7348
4.82812
4.88348
4.87924
4.80853
4.67073
4.47217
4.22444
3.9408
3.63429
3.31721
3.00104
2.6965
2.41379
2.16246
1.95146
1.78827
1.67804
1.62282
1.62415
1.68545
1.80825
1.98478
2.2027
2.44726
2.69898
2.9402
3.12789
3.24985
3.23254
3.05214
3.00882
3.05818
2.96647
2.78132
2.6465
2.57966
2.58951
2.67954
2.85008
3.03143
3.20201
3.38297
3.58826
3.74185
3.75222
3.71394
3.74151
3.73435
3.71175
3.93344
4.03381
3.72897
3.49096
3.46412
3.24971
2.6854
1.82337
0.766778
-0.398562
-1.61202
-2.83231
-4.0303
-5.18415
-6.2765
-7.29303
-8.2206
-9.04506
-9.7513
-10.3242
-10.7508
-11.0227
-11.1377
-11.0992
-10.914
-10.5924
-10.1481
-9.59706
-8.95605
-8.24175
-7.46978
-6.65426
-5.80751
-4.94009
-4.06086
-3.17724
-2.29541
-1.42053
-0.557035
0.291157
1.12044
1.9274
2.70883
3.4617
4.18305
4.86984
5.51888
6.12702
6.69125
7.20883
7.67745
8.09534
8.46153
8.77582
9.03879
9.24998
9.41429
9.53399
9.61308
9.65607
9.66787
9.65355
9.61805
9.56597
9.50142
9.42792
9.34839
9.26512
9.17986
9.09388
9.00794
8.92266
8.83843
8.75516
8.67287
8.59184
8.51222
8.43406
8.35754
8.28285
8.21015
8.1396
8.07136
8.00559
7.94237
7.88173
7.82362
7.76792
7.71448
7.66313
7.61369
7.56597
7.51979
7.47497
7.43133
7.38873
7.34702
7.30611
7.26593
7.22643
7.18759
7.14942
7.11191
7.07505
7.03877
7.00312
6.96811
6.93372
6.89992
6.86672
6.83408
6.8021
6.77089
6.74046
6.7111
6.68285
6.65617
6.63115
6.6082
6.58795
6.56904
6.55746
6.53097
4.94485
4.90888
4.85963
4.81713
4.77516
4.73962
4.71724
4.70119
4.67105
4.60956
4.50335
4.34664
4.14418
3.90482
3.63762
3.35062
3.05118
2.74658
2.44448
2.15309
1.88116
1.63775
1.43177
1.27145
1.16392
1.11516
1.12869
1.20165
1.32623
1.49494
1.69815
1.92423
2.15744
2.38443
2.58504
2.74571
2.85451
2.89879
2.92427
2.89604
2.76694
2.64638
2.58901
2.57533
2.59031
2.6667
2.82826
2.99408
3.12961
3.29174
3.47988
3.64363
3.76324
3.76608
3.81641
4.06035
4.02968
3.78842
3.59405
3.32033
2.94145
2.5187
1.98718
1.3094
0.48665
-0.452309
-1.47278
-2.5418
-3.63155
-4.71839
-5.78223
-6.80547
-7.77163
-8.66417
-9.46623
-10.1595
-10.7249
-11.1453
-11.4095
-11.5143
-11.4604
-11.2546
-10.909
-10.4392
-9.86258
-9.19697
-8.45967
-7.66666
-6.83225
-5.9688
-5.08671
-4.19461
-3.2996
-2.40761
-1.5236
-0.65188
0.203684
1.03943
1.85184
2.63758
3.39361
4.11714
4.80538
5.45542
6.0644
6.62958
7.14843
7.61884
8.03927
8.40887
8.72735
8.99491
9.21198
9.38174
9.50675
9.59063
9.63772
9.65279
9.64084
9.60684
9.55556
9.49137
9.41803
9.33861
9.2555
9.17048
9.08479
8.99925
8.91437
8.83051
8.74781
8.66624
8.58579
8.50658
8.42888
8.35291
8.2788
8.20675
8.13688
8.06932
8.00419
7.94152
7.88132
7.82355
7.76809
7.71482
7.66357
7.61419
7.56648
7.52029
7.47544
7.43176
7.38911
7.34735
7.30638
7.26615
7.22659
7.1877
7.14947
7.11191
7.07504
7.03864
7.00291
6.96781
6.93335
6.89942
6.8661
6.83326
6.80106
6.76954
6.73879
6.7089
6.68013
6.6525
6.62662
6.60191
6.58021
6.55818
6.54307
6.51711
5.03227
5.03854
5.0588
5.02039
4.94392
4.84132
4.71891
4.581
4.42766
4.25544
4.06369
3.85222
3.62107
3.37119
3.10466
2.82436
2.53407
2.23881
1.94504
1.66053
1.39422
1.15573
0.954865
0.80074
0.700583
0.658787
0.675992
0.74929
0.87687
1.05009
1.25656
1.48425
1.72159
1.95837
2.18498
2.39261
2.57599
2.72287
2.83244
2.90612
2.94955
2.96816
2.96583
2.95923
2.95768
2.9894
3.06939
3.14844
3.18577
3.21194
3.2866
3.27651
3.35005
3.72394
3.86654
3.76605
3.629
3.35304
2.96529
2.50461
1.98909
1.4214
0.78396
0.0690818
-0.725321
-1.59275
-2.52091
-3.4925
-4.48877
-5.49102
-6.48198
-7.44617
-8.36865
-9.2329
-10.0193
-10.7056
-11.2685
-11.6873
-11.9464
-12.0385
-11.9637
-11.7304
-11.3526
-10.8483
-10.2367
-9.53734
-8.76838
-7.9464
-7.08594
-6.1994
-5.29697
-4.38691
-3.4759
-2.56939
-1.67204
-0.787994
0.0788559
0.924667
1.7456
2.538
3.2987
4.02506
4.71472
5.36525
5.9743
6.5396
7.05903
7.5308
7.95378
8.32736
8.65147
8.92556
9.15106
9.32933
9.46259
9.55395
9.60742
9.62774
9.61995
9.5891
9.53998
9.47706
9.40433
9.32521
9.24236
9.1577
9.07253
8.98764
8.90352
8.82045
8.73849
8.65759
8.57784
8.49936
8.42232
8.34691
8.27347
8.20207
8.13284
8.06589
8.00131
7.93914
7.87936
7.82194
7.76678
7.71377
7.66274
7.61354
7.566
7.51993
7.47518
7.43157
7.38895
7.34721
7.30624
7.26597
7.22637
7.18742
7.14913
7.11152
7.07466
7.03809
7.00231
6.96714
6.93253
6.8985
6.86497
6.83206
6.79966
6.76783
6.73671
6.7063
6.67691
6.64837
6.62141
6.59514
6.57145
6.5469
6.52738
6.49956
5.04483
5.04392
5.04133
4.99987
4.89785
4.74128
4.55881
4.36918
4.17424
3.96948
3.75083
3.5173
3.26927
3.007
2.73088
2.44251
2.14475
1.84186
1.53984
1.24672
0.972207
0.727058
0.522271
0.36795
0.272109
0.240202
0.273213
0.37008
0.522085
0.71987
0.948708
1.19548
1.45019
1.70547
1.95616
2.19787
2.42843
2.64179
2.83684
3.01783
3.1778
3.30556
3.40008
3.4653
3.50556
3.51429
3.49151
3.44472
3.33222
3.06884
2.88113
2.95559
3.01213
3.12246
3.2559
3.18942
2.93911
2.55524
2.07443
1.53388
0.957881
0.343916
-0.319993
-1.03899
-1.81398
-2.64073
-3.51229
-4.41831
-5.34598
-6.28176
-7.21315
-8.12919
-9.01861
-9.86616
-10.6504
-11.3444
-11.9189
-12.3469
-12.6076
-12.687
-12.5882
-12.322
-11.9052
-11.3584
-10.7038
-9.96286
-9.15513
-8.29786
-7.40591
-6.49163
-5.56485
-4.63324
-3.70273
-2.77808
-1.86346
-0.962801
-0.0801059
0.780373
1.61415
2.41686
3.18484
3.91541
4.60664
5.25685
5.86445
6.42799
6.94604
7.41749
7.84179
8.21883
8.54849
8.83066
9.06591
9.255
9.39933
9.5012
9.56388
9.59162
9.58955
9.56308
9.51733
9.45689
9.38581
9.30758
9.22514
9.14075
9.05597
8.97171
8.88843
8.80631
8.72539
8.64562
8.56698
8.48951
8.41344
8.33889
8.26641
8.19579
8.1273
8.06107
7.99716
7.93562
7.87643
7.81952
7.7648
7.71214
7.66142
7.61247
7.56513
7.51923
7.47461
7.4311
7.38856
7.34686
7.3059
7.26562
7.22599
7.18699
7.14863
7.11096
7.07428
7.0375
7.0016
6.96636
6.93167
6.89751
6.86384
6.8307
6.79805
6.76589
6.73435
6.7034
6.6733
6.64386
6.61565
6.58791
6.56192
6.53517
6.51079
6.48074
5.04976
5.05134
5.01012
4.91597
4.774
4.61005
4.43069
4.23515
4.02578
3.80504
3.57247
3.32658
3.0661
2.79045
2.50024
2.19727
1.88464
1.5672
1.25156
0.946321
0.661815
0.409584
0.201516
0.0485315
-0.0406861
-0.0597966
-0.006863
0.114469
0.296868
0.525008
0.783062
1.0565
1.33448
1.60998
1.88031
2.14576
2.40743
2.66662
2.92139
3.16827
3.40141
3.61184
3.79254
3.9339
4.01954
4.04216
3.99922
3.83105
3.57087
3.31622
2.94745
2.79011
2.81136
2.80658
2.7145
2.48809
2.13266
1.67875
1.15706
0.589175
-0.0130682
-0.649637
-1.32531
-2.0428
-2.80123
-3.59667
-4.42333
-5.27403
-6.14094
-7.01682
-7.8963
-8.77551
-9.64889
-10.5033
-11.3136
-12.0437
-12.6525
-13.103
-13.3696
-13.4403
-13.3175
-13.0139
-12.5504
-11.9522
-11.2451
-10.4536
-9.59925
-8.70035
-7.77213
-6.82684
-5.87363
-4.91915
-3.96808
-3.02395
-2.08997
-1.16959
-0.26696
0.612913
1.4644
2.28181
3.06044
3.79717
4.4904
5.13945
5.74399
6.30354
6.81764
7.28613
7.70919
8.08751
8.42156
8.71158
8.95749
9.15907
9.31658
9.43138
9.50602
9.54414
9.55025
9.52968
9.48817
9.43098
9.36246
9.28612
9.20491
9.1212
9.03685
8.95307
8.87054
8.78948
8.70983
8.63142
8.55412
8.47796
8.4031
8.32977
8.25792
8.18814
8.1205
8.05508
7.99192
7.93106
7.87249
7.81613
7.76189
7.70966
7.65931
7.61068
7.56361
7.51795
7.47353
7.43017
7.38774
7.34612
7.3052
7.26492
7.22526
7.18621
7.14778
7.10994
7.07238
7.03629
7.00046
6.96517
6.93042
6.89616
6.86237
6.82902
6.79612
6.76363
6.73166
6.70016
6.66934
6.63902
6.60956
6.58038
6.55219
6.52324
6.49474
6.46189
5.13518
5.07972
4.99072
4.86833
4.71999
4.55037
4.36609
4.17231
3.96745
3.74866
3.51373
3.26094
2.98946
2.70039
2.39661
2.08209
1.7616
1.44073
1.12637
0.82699
0.552448
0.313618
0.121497
-0.0136066
-0.0835178
-0.0824809
-0.0107773
0.128482
0.326005
0.566296
0.834881
1.11649
1.40074
1.68147
1.95703
2.23015
2.50502
2.78346
3.06636
3.34883
3.61858
3.87211
4.09833
4.28125
4.40092
4.43996
4.39124
4.26258
3.97646
3.61225
3.32122
3.06806
2.83927
2.58398
2.26496
1.8749
1.41677
0.901338
0.341523
-0.253636
-0.879732
-1.53566
-2.22117
-2.93499
-3.6746
-4.4366
-5.21736
-6.01379
-6.82428
-7.64997
-8.49483
-9.36295
-10.2525
-11.1488
-12.0198
-12.818
-13.4876
-13.9776
-14.2563
-14.3189
-14.1682
-13.8199
-13.2996
-12.6379
-11.866
-11.0121
-10.1005
-9.15105
-8.17962
-7.19824
-6.21518
-5.23564
-4.26254
-3.29761
-2.34242
-1.39946
-0.472856
0.431326
1.30568
2.14237
2.93513
3.67985
4.37522
5.02182
5.62114
6.17378
6.6806
7.14247
7.56047
7.93645
8.27232
8.56898
8.82583
9.04138
9.21424
9.34422
9.43283
9.48324
9.49984
9.48776
9.45244
9.39944
9.33394
9.26007
9.18082
9.09852
9.01508
8.93194
8.85007
8.76992
8.6915
8.61451
8.53868
8.46392
8.39032
8.31812
8.24754
8.17886
8.11219
8.04768
7.98539
7.92531
7.86744
7.8117
7.75803
7.70632
7.65644
7.60823
7.56153
7.51619
7.47203
7.4289
7.38663
7.34511
7.30426
7.264
7.22433
7.18523
7.14672
7.10881
7.0715
7.03509
6.9992
6.96385
6.92901
6.89464
6.86071
6.82716
6.794
6.76118
6.72877
6.69674
6.66518
6.63396
6.60325
6.57265
6.54238
6.51125
6.4793
6.44352
5.19808
5.11236
4.9793
4.84695
4.69832
4.54491
4.37991
4.19727
3.98855
3.75436
3.49955
3.22972
2.94717
2.65281
2.34795
2.03551
1.72042
1.40933
1.11045
0.833055
0.587052
0.382407
0.22863
0.13343
0.10142
0.134993
0.233052
0.390432
0.597365
0.839599
1.10059
1.37118
1.64331
1.91343
2.18033
2.44787
2.71925
2.99692
3.27894
3.55985
3.83779
4.09871
4.32793
4.51233
4.63573
4.68291
4.62843
4.47447
4.25782
3.9435
3.58745
3.21
2.80434
2.36514
1.88918
1.37826
0.833898
0.258968
-0.343889
-0.972505
-1.62496
-2.29871
-2.99027
-3.69572
-4.4118
-5.13678
-5.87093
-6.61712
-7.3817
-8.17525
-9.0111
-9.9003
-10.8437
-11.8225
-12.7932
-13.6917
-14.4454
-14.9915
-15.2953
-15.355
-15.1753
-14.7747
-14.1845
-13.443
-12.589
-11.6568
-10.6744
-9.66326
-8.63992
-7.6161
-6.59895
-5.59169
-4.59484
-3.60753
-2.62882
-1.6595
-0.703157
0.233181
1.13983
2.00557
2.82103
3.57979
4.28044
4.92479
5.51695
6.05962
6.55503
7.00471
7.41108
7.77782
8.10909
8.40756
8.67308
8.90276
9.09265
9.24007
9.34497
9.40967
9.43821
9.43573
9.40808
9.36113
9.3001
9.2294
9.15264
9.07239
8.99047
8.90841
8.8274
8.7482
8.67099
8.59549
8.52127
8.44807
8.37592
8.30504
8.23568
8.1681
8.10252
8.03905
7.97771
7.91851
7.86142
7.80639
7.75335
7.70221
7.65284
7.60513
7.55889
7.51395
7.47013
7.42727
7.38522
7.34386
7.30309
7.26287
7.22317
7.18401
7.14544
7.10746
7.07009
7.03356
6.99761
6.96221
6.92731
6.89285
6.85878
6.82505
6.79163
6.75849
6.72564
6.69305
6.66075
6.62864
6.59675
6.56475
6.53257
6.49932
6.46447
6.42593
5.13864
5.06027
4.9618
4.86471
4.74613
4.60025
4.42255
4.22021
3.99948
3.76045
3.50037
3.21685
2.91232
2.5923
2.26349
1.93399
1.61239
1.30738
1.02788
0.782759
0.580541
0.428946
0.334039
0.299404
0.326211
0.412863
0.554664
0.743841
0.969843
1.22048
1.4841
1.75263
2.01658
2.27613
2.53218
2.78845
3.04764
3.31154
3.5799
3.8444
4.09471
4.324
4.52437
4.67822
4.77199
4.78713
4.73368
4.61306
4.39021
4.05774
3.64288
3.17446
2.66497
2.1239
1.55776
0.970811
0.36481
-0.259977
-0.903665
-1.5654
-2.24254
-2.9305
-3.62357
-4.31658
-5.00677
-5.69515
-6.38694
-7.09204
-7.82569
-8.60849
-9.46321
-10.4062
-11.4378
-12.5324
-13.6322
-14.6552
-15.5134
-16.1346
-16.4811
-16.5441
-16.3348
-15.8756
-15.2038
-14.3662
-13.4118
-12.3841
-11.3166
-10.233
-9.15043
-8.0804
-7.0287
-5.99586
-4.97863
-3.97172
-2.97046
-1.97283
-0.981233
-0.00346972
0.947707
1.85482
2.70463
3.48811
4.20347
4.85278
5.44129
5.97465
6.4573
6.89244
7.2833
7.63468
7.95294
8.24394
8.51004
8.74884
8.95445
9.1205
9.24349
9.32411
9.36615
9.37472
9.3556
9.31498
9.25891
9.19248
9.11929
9.0419
8.96226
8.88192
8.80221
8.72415
8.64821
8.57426
8.50175
8.43025
8.35963
8.2901
8.22197
8.1557
8.09133
8.02901
7.96876
7.91057
7.85438
7.80016
7.74783
7.69732
7.64853
7.60135
7.55561
7.51114
7.46775
7.42525
7.38349
7.34235
7.30172
7.26156
7.22186
7.18265
7.14399
7.10594
7.06853
7.03186
6.99583
6.96037
6.92541
6.89086
6.85666
6.82275
6.78908
6.75561
6.72233
6.68918
6.65617
6.62318
6.59015
6.55679
6.52285
6.4876
6.45026
6.40923
5.15538
5.11493
5.05038
4.95769
4.82903
4.67197
4.4912
4.27927
4.02694
3.73921
3.42347
3.08423
2.72929
2.36827
2.00892
1.66013
1.3314
1.03306
0.775452
0.567941
0.418098
0.331036
0.30911
0.352042
0.456844
0.617826
0.826704
1.07308
1.34542
1.63229
1.92296
2.20955
2.48697
2.75343
3.01044
3.26404
3.51048
3.75024
3.99564
4.21629
4.42193
4.60335
4.7462
4.84124
4.87831
4.86616
4.80747
4.66171
4.4
4.02656
3.56561
3.04243
2.47701
1.88284
1.26802
0.636569
-0.00998598
-0.671649
-1.34794
-2.03666
-2.73319
-3.43087
-4.12244
-4.80222
-5.46854
-6.12534
-6.78309
-7.45893
-8.17666
-8.96651
-9.86005
-10.8773
-12.0174
-13.2472
-14.4935
-15.6567
-16.6356
-17.3502
-17.7563
-17.8464
-17.6277
-17.1204
-16.3642
-15.4144
-14.3345
-13.1847
-12.0106
-10.8399
-9.68975
-8.57116
-7.48742
-6.43506
-5.40559
-4.38793
-3.37183
-2.35053
-1.32411
-0.300065
0.707362
1.66762
2.56361
3.38396
4.12399
4.78596
5.37667
5.9044
6.37652
6.79868
7.1756
7.51272
7.817
8.09588
8.3547
8.59377
8.80793
8.98917
9.13038
9.22843
9.28504
9.30538
9.29575
9.26248
9.21178
9.14933
9.07966
9.00573
8.92928
8.85161
8.77396
8.69753
8.62308
8.55071
8.47998
8.41031
8.34143
8.27349
8.20687
8.14185
8.07876
8.01769
7.95864
7.90156
7.84639
7.79308
7.74155
7.69175
7.6436
7.59699
7.5518
7.50784
7.46492
7.42285
7.38145
7.34059
7.30017
7.26012
7.22045
7.1812
7.14245
7.10428
7.06677
7.02998
6.99385
6.95832
6.92329
6.88866
6.85435
6.82026
6.78635
6.75255
6.71884
6.68516
6.65145
6.6176
6.58348
6.54882
6.51326
6.47617
6.43667
6.39343
5.25622
5.22161
5.14983
5.04288
4.89996
4.71688
4.49027
4.21613
3.89956
3.54566
3.15806
2.74093
2.30136
1.86519
1.44323
1.04911
0.69742
0.401986
0.174004
0.0212751
-0.0520465
-0.0454269
0.038365
0.19377
0.412867
0.685683
1.00042
1.34391
1.70255
2.06364
2.41659
2.75391
3.07125
3.36693
3.6418
3.89053
4.11623
4.32536
4.51753
4.68833
4.83495
4.94945
5.02134
5.04637
5.03523
4.99566
4.89472
4.69435
4.3804
3.96312
3.46396
2.90553
2.30716
1.68208
1.03799
0.378258
-0.295996
-0.98411
-1.68422
-2.39236
-3.10218
-3.80566
-4.49473
-5.16375
-5.81194
-6.44542
-7.0789
-7.73587
-8.44781
-9.25315
-10.1918
-11.2873
-12.537
-13.9028
-15.2998
-16.6145
-17.736
-18.5791
-19.0906
-19.2496
-19.0578
-18.5249
-17.687
-16.6087
-15.3721
-14.0631
-12.75
-11.4704
-10.2415
-9.07157
-7.95943
-6.89612
-5.86597
-4.84989
-3.82965
-2.79186
-1.7333
-0.660705
0.421078
1.44294
2.39472
3.26033
4.03222
4.71251
5.30999
5.83604
6.30115
6.71324
7.07834
7.40272
7.69426
7.96165
8.21167
8.44637
8.66227
8.85201
9.00736
9.12236
9.19531
9.229
9.22944
9.20384
9.15912
9.1013
9.03525
8.96445
8.89111
8.81653
8.74171
8.66764
8.59515
8.52456
8.45564
8.38788
8.32093
8.25481
8.18981
8.12633
8.06469
8.00501
7.94728
7.89144
7.83741
7.78512
7.7345
7.6855
7.63806
7.59209
7.54748
7.50406
7.46166
7.42006
7.37907
7.33855
7.29839
7.25852
7.21893
7.17969
7.14087
7.10259
7.06495
7.02799
6.99176
6.95613
6.92102
6.8863
6.85186
6.8176
6.78346
6.74935
6.71522
6.68101
6.64664
6.61196
6.57681
6.54091
6.50387
6.46508
6.42369
6.37851
5.26937
5.23196
5.15345
5.02903
4.85208
4.6176
4.32463
3.97197
3.551
3.07199
2.55024
1.99946
1.44208
0.887794
0.36367
-0.0969597
-0.477234
-0.763129
-0.944981
-1.01788
-0.982078
-0.842871
-0.609658
-0.294775
0.087593
0.522159
0.992841
1.48291
1.97577
2.45632
2.91206
3.3338
3.71556
4.05445
4.35011
4.60322
4.8178
4.98922
5.13007
5.23913
5.31433
5.35111
5.34917
5.31926
5.27168
5.18904
5.02451
4.76008
4.39232
3.93359
3.40225
2.81765
2.19605
1.54906
0.883345
0.202008
-0.493464
-1.20141
-1.9187
-2.64008
-3.35821
-4.06457
-4.75134
-5.41345
-6.05071
-6.67037
-7.28925
-7.93488
-8.64492
-9.46405
-10.4393
-11.5988
-12.9403
-14.4252
-15.9638
-17.4338
-18.7162
-19.7214
-20.3838
-20.6596
-20.5388
-20.0143
-19.1159
-17.9126
-16.5036
-15.003
-13.5134
-12.0966
-10.7766
-9.55569
-8.42428
-7.36533
-6.35424
-5.36112
-4.35569
-3.31493
-2.23064
-1.1187
0.0869506
1.17208
2.19208
3.11386
3.92513
4.62854
5.23563
5.76167
6.2213
6.62535
6.98084
7.29426
7.57462
7.83241
8.07543
8.30581
8.52051
8.71347
8.87737
9.00556
9.09423
9.1433
9.15638
9.13992
9.10163
9.04868
8.98664
8.91933
8.84913
8.77755
8.70562
8.63423
8.5641
8.49559
8.4286
8.36279
8.29786
8.23377
8.17074
8.1091
8.04913
7.99099
7.93472
7.88024
7.82747
7.77632
7.72672
7.67862
7.63198
7.58671
7.54272
7.49988
7.45801
7.41691
7.37638
7.33625
7.2964
7.25676
7.21732
7.17812
7.13927
7.10089
7.06312
7.02602
6.98962
6.95387
6.91865
6.88382
6.84925
6.81482
6.78043
6.74602
6.71149
6.67677
6.64175
6.60628
6.57017
6.53311
6.4947
6.45437
6.4113
6.36442
5.11918
5.07652
4.97584
4.8183
4.59041
4.27781
3.87572
3.38586
2.8041
2.13744
1.40605
0.637884
-0.130389
-0.860113
-1.51029
-2.05549
-2.48684
-2.77559
-2.90522
-2.87057
-2.67698
-2.3393
-1.87985
-1.32478
-0.700213
-0.030307
0.662894
1.35865
2.03764
2.68342
3.28302
3.82657
4.30598
4.71622
5.05484
5.32267
5.52448
5.66654
5.74856
5.79019
5.79287
5.76678
5.71905
5.6568
5.57895
5.4361
5.20819
4.88388
4.46744
3.97091
3.41065
2.80275
2.16075
1.49439
0.809475
0.109143
-0.604433
-1.32853
-2.05903
-2.78992
-3.51319
-4.22068
-4.9057
-5.56416
-6.19665
-6.81094
-7.42401
-8.06407
-8.77143
-9.59494
-10.5857
-11.7791
-13.1758
-14.7414
-16.3883
-17.9927
-19.4271
-20.5932
-21.4163
-21.8357
-21.808
-21.334
-20.4312
-19.1603
-17.6203
-15.9414
-14.258
-12.673
-11.2397
-9.96715
-8.83268
-7.80435
-6.84565
-5.91347
-4.96031
-3.94641
-2.84733
-1.66649
-0.394243
0.806573
1.92408
2.92174
3.78454
4.51769
5.13751
5.66454
6.11853
6.51512
6.86433
7.17232
7.44617
7.69703
7.93575
8.16529
8.38056
8.57486
8.74298
8.88004
8.98153
9.0453
9.07272
9.06827
9.03876
8.9919
8.93439
8.87088
8.80411
8.73567
8.66667
8.59798
8.53027
8.46391
8.39893
8.33513
8.27229
8.21038
8.14956
8.09003
8.03201
7.97563
7.92097
7.86798
7.81657
7.76667
7.7182
7.67111
7.62535
7.58086
7.53756
7.49533
7.45402
7.41344
7.37339
7.33369
7.29419
7.25482
7.21557
7.17648
7.13764
7.09921
7.06132
7.02407
6.98752
6.95162
6.91625
6.88129
6.84656
6.81194
6.77732
6.7426
6.70768
6.67247
6.63684
6.60062
6.56359
6.52545
6.4858
6.44408
6.3995
6.35113
4.70353
4.65565
4.54053
4.35274
4.06685
3.65495
3.09398
2.38311
1.53439
0.574947
-0.455426
-1.51351
-2.55108
-3.51692
-4.36636
-5.06083
-5.54879
-5.81843
-5.853
-5.64862
-5.2198
-4.59899
-3.83011
-2.95982
-2.02903
-1.06916
-0.102289
0.851856
1.77053
2.62858
3.40716
4.09514
4.68569
5.17652
5.56829
5.86407
6.06924
6.19377
6.24828
6.24251
6.20802
6.15891
6.10363
6.03478
5.92369
5.73461
5.45421
5.08041
4.62086
4.08899
3.50015
2.86822
2.20487
1.5186
0.814648
0.0961292
-0.634198
-1.37279
-2.11456
-2.85312
-3.58048
-4.28877
-4.97281
-5.62971
-6.26143
-6.87619
-7.49007
-8.12914
-8.83181
-9.64726
-10.6276
-11.8145
-13.2152
-14.8031
-16.4991
-18.1858
-19.7314
-21.0214
-21.9784
-22.5186
-22.6028
-22.213
-21.3624
-20.1015
-18.5197
-16.745
-14.9183
-13.1719
-11.6042
-10.2608
-9.12874
-8.15841
-7.29339
-6.47377
-5.63139
-4.70105
-3.62443
-2.39155
-1.02288
0.315151
1.55987
2.65738
3.5878
4.36105
5.00059
5.53335
5.98433
6.37384
6.71592
7.01936
7.29176
7.5426
7.78168
8.01353
8.23357
8.4326
8.60456
8.74726
8.85856
8.93559
8.97726
8.98603
8.96759
8.92926
8.87806
8.81939
8.75659
8.69159
8.62566
8.55973
8.4945
8.43031
8.36728
8.30539
8.24463
8.18502
8.12655
8.06929
8.0134
7.95899
7.90609
7.8547
7.80476
7.75621
7.70897
7.66299
7.61822
7.57458
7.53202
7.49045
7.44973
7.40968
7.37013
7.33088
7.29177
7.25272
7.21369
7.17475
7.13598
7.09754
7.05958
7.02222
6.98552
6.94944
6.9139
6.87877
6.84386
6.80903
6.77415
6.73912
6.70382
6.66814
6.63193
6.595
6.55711
6.51798
6.47718
6.4342
6.3883
6.3386
4.09474
4.04023
3.89711
3.65184
3.25674
2.67726
1.89446
0.911867
-0.240714
-1.51357
-2.84566
-4.1771
-5.45549
-6.63125
-7.65041
-8.45742
-8.99606
-9.20557
-9.0831
-8.64931
-7.94401
-7.0211
-5.94655
-4.78821
-3.59903
-2.40494
-1.20353
0.00464362
1.19407
2.31246
3.31205
4.16967
4.88405
5.45765
5.89498
6.20491
6.40319
6.51003
6.54495
6.54118
6.5214
6.50082
6.47689
6.4352
6.3143
6.09704
5.77596
5.35923
4.85806
4.29043
3.67067
3.01177
2.32456
1.61635
0.892459
0.155677
-0.590865
-1.34324
-2.09579
-2.84151
-3.57308
-4.28364
-4.96821
-5.62528
-6.2583
-6.87613
-7.49397
-8.13468
-8.83104
-9.62694
-10.5718
-11.7103
-13.0586
-14.602
-16.2746
-17.9705
-19.5623
-20.9279
-21.9709
-22.6113
-22.798
-22.5027
-21.7383
-20.5477
-19.009
-17.243
-15.3891
-13.5705
-11.9039
-10.4728
-9.30919
-8.385
-7.63393
-6.97206
-6.30265
-5.54322
-4.55399
-3.29914
-1.83222
-0.323506
1.08869
2.31775
3.33452
4.15735
4.82171
5.36418
5.81623
6.20261
6.5409
6.842
7.11343
7.36416
7.60456
7.83985
8.06612
8.27409
8.45553
8.60667
8.72684
8.81528
8.87071
8.89342
8.88723
8.85894
8.81592
8.76384
8.70631
8.64552
8.58302
8.52
8.45731
8.39539
8.33438
8.27443
8.21568
8.15823
8.10206
8.04716
7.99353
7.94121
7.89021
7.84052
7.79212
7.74498
7.69906
7.65429
7.61059
7.5679
7.52615
7.48528
7.44516
7.40567
7.36662
7.32784
7.28915
7.25045
7.2117
7.17293
7.13428
7.09588
7.0579
7.02047
6.98364
6.9474
6.91168
6.87634
6.84122
6.80614
6.77099
6.73563
6.69995
6.66381
6.62704
6.58945
6.55077
6.51071
6.46887
6.42475
6.37766
6.3268
3.3519
3.28523
3.10451
2.78964
2.26953
1.51094
0.506505
-0.724447
-2.12926
-3.63831
-5.18234
-6.70529
-8.1634
-9.51462
-10.6987
-11.6185
-12.1853
-12.3766
-12.171
-11.565
-10.6003
-9.34723
-7.89763
-6.36191
-4.85753
-3.46944
-2.18421
-0.886499
0.48535
1.87268
3.15131
4.23741
5.11701
5.80481
6.3188
6.67392
6.88961
6.99587
7.03304
7.0324
7.01291
7.01444
7.01779
6.97319
6.82957
6.57032
6.20004
5.73359
5.18534
4.57658
3.92011
3.22964
2.51495
1.78263
1.03708
0.281441
-0.481219
-1.24708
-2.01066
-2.765
-3.50299
-4.2179
-4.90519
-5.56435
-6.19978
-6.82081
-7.44193
-8.08298
-8.77023
-9.53858
-10.4294
-11.4839
-12.7266
-14.1558
-15.7254
-17.3471
-18.9064
-20.2835
-21.3713
-22.0855
-22.3713
-22.1814
-21.5312
-20.4583
-19.0309
-17.3595
-15.5814
-13.8125
-12.145
-10.6662
-9.44838
-8.51496
-7.83051
-7.31996
-6.87046
-6.32888
-5.52181
-4.33851
-2.80228
-1.11279
0.501812
1.89686
3.02351
3.90951
4.6063
5.16291
5.61875
6.00372
6.33959
6.64055
6.91459
7.16809
7.40924
7.64488
7.87447
8.09024
8.2833
8.44813
8.58215
8.684
8.75311
8.78988
8.79697
8.78003
8.74629
8.70207
8.65127
8.59603
8.53787
8.47823
8.41828
8.35879
8.30001
8.24209
8.18538
8.13008
8.0762
8.02367
7.97236
7.92223
7.87323
7.82535
7.77859
7.73295
7.68841
7.64492
7.6024
7.56075
7.51991
7.47979
7.44032
7.4014
7.36287
7.32457
7.28633
7.24802
7.20958
7.17104
7.13253
7.09422
7.05627
7.01882
6.98191
6.94554
6.90964
6.87407
6.8387
6.80335
6.76789
6.73218
6.69611
6.65952
6.62222
6.584
6.54458
6.50368
6.46088
6.41574
6.36759
6.3157
2.75471
2.67065
2.45492
2.08684
1.47837
0.603511
-0.542329
-1.92789
-3.4924
-5.16661
-6.87641
-8.58803
-10.2771
-11.9085
-13.409
-14.6493
-15.4804
-15.7927
-15.5408
-14.7204
-13.3956
-11.6781
-9.71064
-7.65906
-5.68916
-3.96119
-2.56187
-1.35069
-0.0496718
1.44731
2.98658
4.34205
5.43625
6.27704
6.90393
7.34882
7.63732
7.79885
7.87387
7.9036
7.90783
7.89754
7.85161
7.73105
7.50335
7.16149
6.71622
6.18266
5.57947
4.92248
4.22527
3.50021
2.75609
1.9987
1.23196
0.458657
-0.318698
-1.09677
-1.87068
-2.63397
-3.37949
-4.10064
-4.79316
-5.45668
-6.09559
-6.71904
-7.34068
-7.97807
-8.65247
-9.38976
-10.2203
-11.1761
-12.2828
-13.5483
-14.947
-16.4133
-17.8533
-19.1605
-20.2296
-20.9716
-21.3216
-21.2624
-20.7556
-19.8402
-18.5805
-17.0735
-15.4475
-13.8174
-12.2564
-10.8241
-9.59161
-8.61602
-7.90596
-7.43002
-7.11064
-6.78613
-6.22338
-5.22054
-3.72193
-1.92198
-0.130818
1.42626
2.66522
3.61872
4.35448
4.93374
5.40217
5.79254
6.12887
6.42875
6.70416
6.96249
7.20875
7.44681
7.67746
7.89683
8.09832
8.27586
8.4254
8.54395
8.6291
8.68048
8.70083
8.6956
8.67172
8.63565
8.59192
8.54297
8.49016
8.43474
8.37804
8.3212
8.26467
8.20897
8.15446
8.10139
8.0498
7.99958
7.95056
7.9026
7.85563
7.80959
7.7645
7.72039
7.67728
7.63512
7.59382
7.55328
7.51339
7.47409
7.43531
7.39697
7.35896
7.32114
7.28336
7.24546
7.20737
7.1691
7.13078
7.09258
7.0547
7.01726
6.98032
6.94387
6.90781
6.87203
6.83638
6.80073
6.76492