/*--------------------------------*- C++ -*----------------------------------*\
  =========                 |
  \\      /  F ield         | OpenFOAM: The Open Source CFD Toolbox
   \\    /   O peration     | Website:  https://openfoam.org
    \\  /    A nd           | Version:  7
     \\/     M anipulation  |
\*---------------------------------------------------------------------------*/
FoamFile
{
    version     2.0;
    format      ascii;
    class       volScalarField;
    location    "0.074";
    object      s_0;
}
// * * * * * * * * * * * * * * * * * * * * * * * * * * * * * * * * * * * * * //

dimensions      [0 0 0 0 0 0 0];

internalField   nonuniform List<scalar> 
12225
(
1
1
1
1
1
1
1
1
1
1
1
1
1
1
1
1
1
1
1
1
1
1
1
1
1
1
1
1
1
1
1
1
1
1
1
1
1
1
1
1
1
1
1
1
1
1
1
1
1
1
1
1
1
1
1
1
1
1
1
1
1
1
1
1
1
1
1
1
1
1
1
1
1
1
1
1
1
1
1
1
1
1
1
1
1
1
1
1
1
1
1
1
1
1
1
1
1
1
1
1
1
1
1
1
1
1
1
1
1
1
1
1
1
1
1
1
1
1
1
1
1
1
1
1
1
1
1
1
1
1
1
1
1
1
1
1
1
1
1
1
1
1
1
1
1
1
1
1
1
1
1
1
1
1
1
1
1
1
1
1
1
1
1
1
1
1
1
1
1
1
1
1
1
1
1
1
1
1
1
1
1
1
1
1
1
1
1
1
1
1
1
1
1
1
1
1
1
1
1
1
1
1
1
1
1
1
1
1
1
1
1
1
1
1
1
1
1
1
1
1
1
1
1
1
1
1
1
1
1
1
1
1
1
1
1
1
1
1
1
1
1
1
1
1
1
1
1
1
1
1
1
1
1
1
1
1
1
1
1
1
1
1
1
1
1
1
1
1
1
1
1
1
1
1
1
1
1
1
1
1
1
1
1
1
1
1
1
1
1
1
1
1
1
1
1
1
1
1
1
1
1
1
1
1
1
1
1
1
1
1
1
1
1
1
1
1
1
1
1
1
1
1
1
1
1
1
1
1
1
1
1
1
1
1
1
1
1
1
1
1
1
1
1
1
1
1
1
1
1
1
1
1
1
1
1
1
1
1
1
1
1
1
1
1
1
1
1
1
1
1
1
1
1
1
1
1
1
1
1
1
1
1
1
1
1
1
1
1
1
1
1
1
1
1
1
1
1
1
1
1
1
1
1
1
1
1
1
1
1
1
1
1
1
1
1
1
1
1
1
1
1
1
1
1
1
1
1
1
1
1
1
1
1
1
1
1
1
1
1
1
1
1
1
1
1
1
1
1
1
1
1
1
1
1
1
1
1
1
1
1
1
1
1
1
1
1
1
1
1
1
1
1
1
1
1
1
1
1
1
1
1
1
1
1
1
1
1
1
1
1
1
1
1
1
1
1
1
1
1
1
1
1
1
1
1
1
1
1
1
1
1
1
1
1
1
1
1
1
1
1
1
1
1
1
1
1
1
1
1
1
1
1
1
1
1
1
1
1
1
1
0.110889
0.169447
0.172011
0.168296
0.160798
0.158202
0.170557
0.194059
0.225586
0.260783
0.29293
0.323263
0.346893
0.368431
0.387211
0.401225
0.414143
0.428866
0.44312
0.456408
0.469069
0.482115
0.495937
0.508854
0.51977
0.527599
0.535076
0.543756
0.552992
0.560892
0.566035
0.568309
0.568654
0.567745
0.561481
0.534254
0.398396
0.10164
0.0168971
0.0152591
0.0175436
0.0209985
0.0246705
0.0278398
0.0320023
0.0372745
0.0432564
0.0509356
0.0623941
0.0661721
0.062881
0.0544798
0.0530482
0.0653055
0.0869806
0.107563
0.138548
0.172286
0.221945
0.42847
0.731124
0.834513
0.84802
0.850734
0.852342
0.853622
0.854464
0.855584
0.85627
0.856908
0.857646
0.858036
0.858805
0.859502
0.860125
0.860687
0.861057
0.86175
0.862373
0.862823
0.86367
0.864547
0.865109
0.865425
0.865921
0.866157
0.866244
0.866254
0.866066
0.865651
0.86526
0.864999
0.864683
0.864144
0.863514
0.863034
0.862547
0.862227
0.861958
0.861593
0.861214
0.860916
0.860561
0.860073
0.859445
0.85891
0.858137
0.857249
0.856219
0.855005
0.853601
0.851543
0.848432
0.844264
0.839049
0.832397
0.824118
0.813775
0.800703
0.784794
0.765933
0.742715
0.714502
0.682332
0.643377
0.592995
0.534361
0.468745
0.386576
0.2894
0.199382
0.129428
0.0792692
0.0457973
0.0249285
0.0127606
0.00613171
0.00276431
0.00117168
0.000466873
0.000170245
5.29546e-05
1.95946e-05
1.03809e-05
5.21149e-06
2.52397e-06
1.18802e-06
5.44925e-07
2.44188e-07
1.072e-07
4.62372e-08
1.965e-08
8.25239e-09
3.43494e-09
1.42117e-09
5.86109e-10
2.41553e-10
9.96921e-11
4.12629e-11
1.71405e-11
7.14542e-12
2.98713e-12
1.25077e-12
5.23785e-13
2.19011e-13
9.1269e-14
3.7826e-14
1.55508e-14
6.32267e-15
2.53393e-15
9.97489e-16
3.84368e-16
1.4448e-16
5.28019e-17
1.86945e-17
6.38575e-18
2.09591e-18
6.52534e-19
1.88376e-19
-2.2565e-19
0.0749827
0.150658
0.155095
0.122743
0.0580107
0.0564266
0.0807491
0.136516
0.207588
0.292091
0.359359
0.409687
0.446107
0.470571
0.488639
0.499339
0.506557
0.510657
0.516231
0.52194
0.525619
0.533048
0.541249
0.546462
0.552946
0.563445
0.570852
0.577971
0.587394
0.594908
0.600336
0.607755
0.614652
0.615935
0.614105
0.605095
0.571176
0.48932
0.28555
0.119434
0.0492437
0.0261733
0.0182972
0.0178486
0.0225424
0.0340052
0.0484072
0.0643719
0.0943452
0.14309
0.169801
0.166238
0.139049
0.12859
0.131945
0.142363
0.176651
0.446949
0.726403
0.793631
0.834879
0.849647
0.853453
0.855565
0.856845
0.857804
0.858594
0.859221
0.859558
0.860025
0.860463
0.860916
0.861746
0.862601
0.863621
0.864631
0.865443
0.866305
0.867442
0.869122
0.871285
0.873231
0.874776
0.876315
0.878369
0.88052
0.882597
0.884542
0.886515
0.888375
0.890209
0.892362
0.894528
0.896333
0.897957
0.899211
0.899973
0.90068
0.900996
0.90113
0.901091
0.9007
0.900238
0.899637
0.898994
0.898136
0.89707
0.895865
0.894548
0.893231
0.892126
0.891645
0.892326
0.894373
0.897933
0.903122
0.910009
0.918583
0.928786
0.940155
0.951173
0.960342
0.967053
0.972237
0.976168
0.979025
0.980869
0.981759
0.981963
0.981044
0.976313
0.961964
0.926635
0.870265
0.793934
0.694621
0.575947
0.451502
0.339202
0.248243
0.176986
0.122854
0.0830214
0.0546157
0.0349741
0.0218012
0.0132312
0.00782143
0.00450647
0.0025332
0.00139094
0.000747062
0.000393077
0.000202934
0.000102959
5.14074e-05
2.52918e-05
1.22729e-05
5.87797e-06
2.77958e-06
1.29794e-06
5.98468e-07
2.72469e-07
1.22492e-07
5.43811e-08
2.38435e-08
1.03205e-08
4.40678e-09
1.85298e-09
7.65943e-10
3.10256e-10
1.22946e-10
4.7448e-11
1.78344e-11
6.48033e-12
2.28595e-12
7.71951e-13
2.4987e-13
7.08587e-14
-3.72279e-13
0.0309073
0.068329
0.0799652
0.0647206
0.0709402
0.109757
0.215256
0.35277
0.457375
0.504904
0.526912
0.533372
0.536273
0.535077
0.531596
0.525215
0.517136
0.510149
0.500576
0.492084
0.487127
0.48187
0.48184
0.483614
0.488166
0.498395
0.510854
0.523329
0.541997
0.559151
0.573698
0.592657
0.60727
0.615809
0.62853
0.635378
0.633551
0.622517
0.587353
0.505291
0.321171
0.170022
0.0947559
0.057915
0.0488272
0.0513913
0.0620989
0.0750647
0.0931628
0.141646
0.244953
0.278658
0.275624
0.251073
0.237679
0.378074
0.690299
0.790027
0.82952
0.845064
0.852305
0.854982
0.856024
0.856621
0.856885
0.856987
0.856493
0.855077
0.852981
0.850295
0.847354
0.845351
0.844515
0.844282
0.844989
0.848825
0.854014
0.856481
0.858068
0.861341
0.865559
0.868375
0.870731
0.873858
0.876688
0.879324
0.882182
0.885187
0.888153
0.890849
0.893709
0.896982
0.90038
0.903623
0.907129
0.910475
0.913827
0.917682
0.921272
0.924838
0.927951
0.930582
0.932805
0.93421
0.934902
0.934352
0.932549
0.929372
0.9245
0.917936
0.909941
0.900981
0.892221
0.885395
0.880131
0.87627
0.874054
0.873356
0.873794
0.876128
0.882702
0.894352
0.910502
0.928817
0.946031
0.959536
0.96993
0.978031
0.98436
0.989064
0.992549
0.995191
0.996309
0.996239
0.995283
0.992107
0.985674
0.976886
0.959897
0.920929
0.823312
0.68513
0.541877
0.410982
0.303215
0.218118
0.152668
0.103948
0.0689014
0.044519
0.0280842
0.0173284
0.010478
0.00622174
0.00363559
0.00209501
0.00119312
0.000673078
0.000377079
0.000210343
0.000117087
6.51065e-05
3.61198e-05
1.99226e-05
1.08618e-05
5.81966e-06
3.04859e-06
1.55758e-06
7.75661e-07
3.76605e-07
1.78055e-07
8.21032e-08
3.6816e-08
1.61131e-08
6.83189e-09
2.83115e-09
1.12674e-09
4.3828e-10
1.65092e-10
4.7954e-11
0.00559654
0.016736
0.0236232
0.0770306
0.216466
0.408584
0.500195
0.537921
0.547148
0.545216
0.538871
0.523301
0.49428
0.462775
0.428659
0.396843
0.367715
0.340301
0.318912
0.300998
0.287551
0.275427
0.267178
0.26621
0.267943
0.273969
0.287164
0.309182
0.349001
0.389696
0.440703
0.499046
0.544816
0.580454
0.610083
0.627592
0.640187
0.643728
0.64065
0.626889
0.589839
0.50683
0.379275
0.263775
0.183338
0.161442
0.163265
0.171858
0.193337
0.253352
0.352702
0.379626
0.353453
0.340593
0.560325
0.748429
0.815472
0.839356
0.848796
0.852759
0.854489
0.855206
0.855475
0.855299
0.85374
0.850594
0.844817
0.835348
0.822983
0.817385
0.815073
0.814512
0.816013
0.822937
0.833619
0.840983
0.844285
0.847019
0.849903
0.850519
0.850594
0.851237
0.853691
0.856294
0.858527
0.861564
0.865112
0.869654
0.874833
0.879317
0.884178
0.889071
0.89407
0.898652
0.903518
0.907887
0.912459
0.917476
0.922415
0.927606
0.932632
0.937594
0.942445
0.947109
0.951586
0.955822
0.959729
0.963224
0.966189
0.968009
0.968067
0.965573
0.95907
0.946952
0.930851
0.913209
0.897083
0.885438
0.877222
0.872105
0.869452
0.868811
0.869597
0.8738
0.886392
0.9064
0.927255
0.944425
0.95807
0.96913
0.978271
0.985561
0.990945
0.994712
0.997207
0.998525
0.99889
0.998855
0.998479
0.997083
0.992702
0.985914
0.976492
0.957281
0.909046
0.773735
0.596792
0.441975
0.317897
0.222714
0.151889
0.100963
0.0655657
0.0417205
0.0260954
0.0160964
0.00982208
0.00594598
0.00357902
0.002145
0.0012802
0.000759846
0.000446626
0.00025879
0.000147297
8.21714e-05
4.48256e-05
2.38903e-05
1.24097e-05
6.28609e-06
3.09217e-06
1.48478e-06
6.94095e-07
3.16902e-07
1.4044e-07
6.0831e-08
2.54103e-08
1.03651e-08
4.08931e-09
1.40139e-09
0.000759359
0.0133442
0.159126
0.423355
0.525294
0.551643
0.557307
0.552386
0.533722
0.495555
0.449074
0.406641
0.375142
0.349292
0.326228
0.304684
0.284491
0.265255
0.247186
0.23118
0.215742
0.20152
0.192271
0.182612
0.175457
0.175327
0.177419
0.183414
0.195628
0.22429
0.25207
0.30836
0.374398
0.437887
0.515261
0.578176
0.618724
0.637823
0.647035
0.647083
0.642118
0.624902
0.590113
0.518746
0.417047
0.338272
0.314664
0.318784
0.343309
0.436442
0.4828
0.457724
0.488605
0.651637
0.775771
0.825261
0.842936
0.849518
0.852197
0.853376
0.853896
0.853913
0.852381
0.849153
0.842274
0.830336
0.811494
0.796835
0.791876
0.790376
0.790291
0.792799
0.800526
0.81029
0.814351
0.815288
0.81445
0.810582
0.802628
0.790844
0.780448
0.771972
0.766188
0.764494
0.766892
0.77242
0.776645
0.785654
0.797728
0.808586
0.822259
0.83523
0.847184
0.857985
0.868274
0.876949
0.884807
0.891886
0.898344
0.904623
0.9109
0.917351
0.923716
0.930515
0.937659
0.945156
0.952783
0.960065
0.96659
0.971986
0.976248
0.979461
0.981655
0.982158
0.980409
0.974473
0.962005
0.942172
0.920744
0.902743
0.888558
0.877933
0.871549
0.86926
0.86943
0.872833
0.885949
0.911808
0.935907
0.953247
0.965279
0.974204
0.981391
0.987305
0.991932
0.995247
0.997387
0.998668
0.999353
0.999573
0.999569
0.999464
0.999127
0.998222
0.995829
0.989883
0.976407
0.942702
0.838454
0.644591
0.471897
0.33521
0.23257
0.157979
0.105342
0.0691751
0.044873
0.028827
0.0183688
0.0116156
0.007284
0.00451825
0.00276254
0.0016601
0.000977926
0.000563662
0.000317346
0.000174396
9.34327e-05
4.88077e-05
2.48221e-05
1.22953e-05
5.91371e-06
2.77483e-06
1.2652e-06
5.62695e-07
2.42205e-07
1.01406e-07
4.12661e-08
1.50119e-08
0.00578429
0.192568
0.493407
0.557927
0.566561
0.557568
0.533492
0.487664
0.450739
0.420599
0.394955
0.372639
0.351924
0.331274
0.310483
0.289769
0.269502
0.249932
0.231197
0.212382
0.194274
0.177992
0.164744
0.152731
0.141434
0.136128
0.136195
0.138533
0.144482
0.157121
0.181335
0.214699
0.271692
0.333546
0.382159
0.458996
0.548747
0.609212
0.638003
0.649082
0.651128
0.648947
0.640452
0.61813
0.546826
0.4332
0.399429
0.407244
0.473674
0.577561
0.586501
0.61971
0.715796
0.793558
0.829979
0.844001
0.849156
0.851117
0.851925
0.852163
0.85068
0.846753
0.839676
0.82916
0.813289
0.793841
0.779973
0.774966
0.773538
0.77335
0.774097
0.77671
0.778172
0.778394
0.772966
0.754634
0.727787
0.694607
0.657944
0.624567
0.611149
0.608535
0.609062
0.613862
0.619832
0.623643
0.627677
0.633922
0.641183
0.649738
0.661096
0.676233
0.695648
0.717233
0.739402
0.760685
0.779941
0.79617
0.809577
0.820545
0.829877
0.838453
0.847376
0.857425
0.869406
0.883548
0.900164
0.918496
0.936997
0.953623
0.966859
0.97636
0.98239
0.98604
0.988211
0.989096
0.988415
0.984747
0.975152
0.958857
0.939393
0.920018
0.901874
0.887049
0.877841
0.874513
0.874797
0.879829
0.898945
0.928013
0.951124
0.966139
0.97574
0.982338
0.987383
0.991428
0.994567
0.996814
0.998256
0.999096
0.999557
0.999786
0.999856
0.999854
0.999797
0.999571
0.998876
0.996817
0.990846
0.97436
0.925453
0.775869
0.580933
0.421555
0.299122
0.208622
0.143553
0.097615
0.0656393
0.0436384
0.0286495
0.0185314
0.0117784
0.00733767
0.00447063
0.00265979
0.00154337
0.000873016
0.000481103
0.000258337
0.000135068
6.87901e-05
3.40744e-05
1.64085e-05
7.68263e-06
3.50257e-06
1.54879e-06
6.64398e-07
2.77863e-07
1.05347e-07
0.271278
0.532853
0.58179
0.572198
0.54955
0.512975
0.485735
0.459761
0.434985
0.411561
0.39058
0.371702
0.352762
0.332736
0.312385
0.292311
0.272616
0.252823
0.232407
0.211554
0.192011
0.174957
0.160171
0.146197
0.134322
0.126398
0.122944
0.122597
0.12527
0.134401
0.154282
0.196312
0.253246
0.295189
0.328939
0.37827
0.450855
0.53784
0.604106
0.639366
0.651113
0.652522
0.649027
0.626351
0.531636
0.456531
0.450865
0.490207
0.62927
0.668038
0.698259
0.753431
0.805949
0.83229
0.843738
0.848222
0.849938
0.850607
0.850623
0.848491
0.84329
0.836597
0.827464
0.815393
0.799234
0.780315
0.766277
0.761018
0.75841
0.756542
0.754604
0.752184
0.746075
0.727575
0.687597
0.622529
0.556495
0.53184
0.524054
0.523251
0.533544
0.554675
0.572464
0.58473
0.589811
0.593052
0.596657
0.599369
0.601018
0.603305
0.604562
0.606383
0.608261
0.611607
0.616512
0.623261
0.631593
0.640896
0.650545
0.660011
0.668947
0.677252
0.685841
0.695957
0.709405
0.728237
0.753831
0.787588
0.82932
0.875332
0.914931
0.946152
0.967724
0.980623
0.987507
0.990899
0.992576
0.993047
0.992268
0.988882
0.980237
0.967703
0.952544
0.934589
0.915509
0.900095
0.89137
0.888958
0.890405
0.901108
0.92779
0.952013
0.968672
0.978856
0.985141
0.989389
0.992579
0.995057
0.996908
0.9982
0.999026
0.999504
0.99976
0.999888
0.999936
0.99994
0.999921
0.999825
0.999471
0.998295
0.994531
0.982993
0.947892
0.832643
0.641481
0.478324
0.349512
0.251297
0.17809
0.124374
0.085463
0.0576604
0.0381076
0.0246166
0.0155144
0.00952811
0.00569775
0.00331686
0.00187936
0.00103672
0.000556703
0.000291084
0.000148101
7.33343e-05
3.52584e-05
1.64889e-05
7.48821e-06
3.29531e-06
1.41585e-06
5.57087e-07
0.609182
0.61968
0.58551
0.538774
0.521908
0.503111
0.480835
0.459085
0.441981
0.432662
0.428271
0.422744
0.410862
0.3965
0.383373
0.369575
0.353369
0.332756
0.308537
0.283172
0.261227
0.243421
0.226592
0.207002
0.187686
0.172455
0.165556
0.163362
0.175067
0.189133
0.212881
0.24989
0.284342
0.308246
0.334588
0.383313
0.456748
0.538488
0.601775
0.638006
0.651339
0.652435
0.64584
0.600949
0.505159
0.476566
0.500911
0.643575
0.71195
0.738002
0.776904
0.812887
0.833163
0.842565
0.846711
0.848509
0.84929
0.849282
0.847919
0.844387
0.838829
0.83199
0.823052
0.811144
0.795168
0.776114
0.756982
0.746452
0.742051
0.739603
0.735893
0.724093
0.692104
0.628417
0.536847
0.484248
0.465134
0.45981
0.460755
0.480248
0.517205
0.546812
0.576386
0.599827
0.608058
0.614165
0.616428
0.617064
0.616944
0.615436
0.612851
0.609732
0.606981
0.604875
0.603502
0.60291
0.603266
0.604468
0.606373
0.60888
0.611995
0.615826
0.620261
0.625363
0.631428
0.638983
0.648914
0.662939
0.684182
0.718443
0.775635
0.84572
0.909012
0.949769
0.974124
0.986586
0.992208
0.994543
0.995485
0.995498
0.994367
0.989949
0.981987
0.973074
0.961886
0.947008
0.931058
0.91907
0.913514
0.912843
0.916753
0.934737
0.95731
0.973233
0.982893
0.988487
0.991927
0.994312
0.996112
0.997477
0.998459
0.999118
0.999529
0.999765
0.999889
0.999949
0.999969
0.999969
0.999955
0.999882
0.999601
0.998636
0.995476
0.985575
0.955337
0.85598
0.675981
0.516971
0.387146
0.284274
0.204538
0.143978
0.0989585
0.0662922
0.0432224
0.0274045
0.01689
0.0101194
0.00589511
0.00334056
0.00184182
0.00098834
0.000516122
0.000262273
0.000129591
6.22002e-05
2.90101e-05
1.31083e-05
5.78688e-06
2.35875e-06
0.63426
0.604152
0.546181
0.534763
0.525853
0.51045
0.50678
0.510865
0.521208
0.524066
0.521793
0.510942
0.503359
0.501565
0.500227
0.493016
0.481226
0.465669
0.450956
0.436666
0.424038
0.409144
0.392623
0.374216
0.35785
0.342553
0.330811
0.323628
0.31943
0.317937
0.318334
0.321577
0.328947
0.341809
0.370241
0.424685
0.494649
0.564093
0.617754
0.644093
0.650874
0.647451
0.619865
0.544814
0.497991
0.506003
0.630914
0.729799
0.759159
0.788511
0.815715
0.832674
0.840831
0.844697
0.846732
0.847674
0.847536
0.845459
0.841274
0.835287
0.829894
0.823555
0.81535
0.803886
0.787649
0.768589
0.747058
0.729447
0.722495
0.716917
0.704216
0.672842
0.608812
0.509889
0.438434
0.413676
0.405738
0.404903
0.418247
0.456231
0.495572
0.534159
0.596142
0.65713
0.698912
0.715595
0.718497
0.717758
0.71358
0.705694
0.69489
0.681898
0.669042
0.656337
0.643825
0.632689
0.623469
0.616646
0.6123
0.610186
0.610165
0.611714
0.614477
0.61821
0.62284
0.628357
0.634851
0.642778
0.653016
0.66571
0.685628
0.720912
0.780622
0.8604
0.926916
0.964859
0.984119
0.992537
0.995774
0.996961
0.997275
0.997038
0.995694
0.99098
0.984216
0.97761
0.970297
0.960809
0.950496
0.942961
0.940102
0.940476
0.947037
0.964642
0.978512
0.987059
0.991806
0.994468
0.996139
0.997325
0.998215
0.998872
0.99933
0.999626
0.999805
0.999905
0.999957
0.999979
0.999984
0.999982
0.999964
0.999888
0.999606
0.998661
0.995639
0.986322
0.958126
0.866203
0.69456
0.538331
0.406454
0.298876
0.213792
0.148596
0.100267
0.0656531
0.0417158
0.0257304
0.0154143
0.00897425
0.00508045
0.00279778
0.00149912
0.000781517
0.000396378
0.00019535
9.35681e-05
4.34299e-05
1.97022e-05
8.30848e-06
0.631568
0.574796
0.555506
0.567313
0.569898
0.574938
0.579361
0.580152
0.57386
0.567395
0.568793
0.578591
0.587371
0.591245
0.594331
0.596229
0.596804
0.592157
0.583923
0.57254
0.561001
0.546982
0.534775
0.519416
0.50432
0.484742
0.466807
0.452292
0.437281
0.428475
0.424464
0.4242
0.433165
0.458741
0.494098
0.540221
0.584463
0.618336
0.636219
0.643977
0.640428
0.615139
0.577707
0.521126
0.511112
0.600753
0.726948
0.771333
0.791367
0.816388
0.830322
0.838309
0.842158
0.844625
0.845769
0.84577
0.843773
0.839782
0.8333
0.824353
0.81496
0.806044
0.797289
0.787184
0.773746
0.754453
0.727152
0.705402
0.695625
0.688371
0.670071
0.622299
0.533771
0.427003
0.378432
0.359396
0.352022
0.350499
0.360927
0.395356
0.438058
0.501044
0.588611
0.663863
0.742932
0.806012
0.838648
0.854384
0.861531
0.862437
0.857844
0.847598
0.831021
0.810559
0.785966
0.758318
0.72935
0.70236
0.680812
0.662771
0.649138
0.640414
0.636026
0.635101
0.636834
0.640771
0.645839
0.651459
0.658027
0.665645
0.677438
0.697155
0.726869
0.769818
0.833032
0.906108
0.956659
0.981641
0.992472
0.996556
0.99794
0.998375
0.998375
0.998027
0.99665
0.992024
0.986597
0.982742
0.979084
0.974212
0.968472
0.96438
0.963234
0.964326
0.971899
0.983382
0.990546
0.994467
0.996508
0.997637
0.998368
0.998898
0.999287
0.999563
0.999748
0.999864
0.999931
0.999968
0.999985
0.999991
0.999991
0.999986
0.999962
0.999871
0.999559
0.99856
0.99546
0.98598
0.956768
0.860684
0.687878
0.529725
0.394965
0.28512
0.199248
0.134808
0.0883456
0.0561188
0.0345819
0.0206904
0.0120283
0.00679822
0.00373718
0.00199842
0.00103966
0.000525926
0.000258643
0.000123314
5.74796e-05
2.50483e-05
0.62253
0.581369
0.596382
0.617757
0.616815
0.607862
0.60689
0.622271
0.645931
0.654468
0.66088
0.673131
0.689025
0.700829
0.706791
0.710739
0.712378
0.712136
0.70954
0.701999
0.691554
0.680936
0.666792
0.650466
0.639762
0.626558
0.614648
0.601056
0.592618
0.588412
0.586851
0.586461
0.586725
0.59003
0.603551
0.612163
0.622791
0.629013
0.632559
0.627136
0.61112
0.591799
0.546988
0.520377
0.565192
0.708076
0.770572
0.79533
0.812167
0.827434
0.834335
0.838929
0.842003
0.843517
0.843635
0.841426
0.837094
0.830544
0.821528
0.810997
0.800738
0.791356
0.782922
0.77306
0.757366
0.731965
0.70351
0.685525
0.676063
0.667752
0.641948
0.580114
0.479214
0.375459
0.327887
0.30528
0.29082
0.284742
0.283925
0.301628
0.342479
0.397966
0.478692
0.581077
0.703188
0.802446
0.856912
0.8843
0.902749
0.912952
0.919596
0.925151
0.928868
0.93038
0.928307
0.921723
0.908685
0.886778
0.854414
0.816527
0.776901
0.741883
0.717807
0.70326
0.696312
0.695341
0.698635
0.704083
0.708889
0.710992
0.712239
0.716257
0.729228
0.756735
0.795112
0.843211
0.90184
0.953188
0.980684
0.992608
0.997105
0.998593
0.999055
0.999137
0.999055
0.998666
0.997269
0.993318
0.989883
0.988294
0.986981
0.984188
0.980873
0.979124
0.979023
0.980811
0.987513
0.993211
0.996312
0.997886
0.998664
0.999093
0.999382
0.999596
0.999749
0.999853
0.999918
0.999958
0.99998
0.999991
0.999995
0.999995
0.999994
0.999985
0.999951
0.999834
0.999453
0.998258
0.994516
0.982627
0.943637
0.81818
0.637644
0.478877
0.347044
0.242855
0.164263
0.107512
0.0681726
0.0419259
0.0250325
0.014521
0.00818907
0.00449081
0.00239573
0.00124274
0.000627243
0.000307064
0.000146995
6.61093e-05
0.619847
0.594972
0.623383
0.64142
0.654215
0.693397
0.720789
0.73444
0.763185
0.790249
0.802375
0.815934
0.828239
0.834419
0.841029
0.843998
0.845097
0.843247
0.837863
0.829411
0.819264
0.800068
0.779713
0.755876
0.727406
0.702663
0.680891
0.661739
0.647073
0.636479
0.630242
0.627594
0.626948
0.627433
0.628215
0.628309
0.62826
0.627607
0.62301
0.614372
0.600746
0.57062
0.535641
0.540218
0.671686
0.760147
0.793744
0.809326
0.822355
0.830328
0.83458
0.838639
0.840742
0.841198
0.839802
0.836339
0.830836
0.82295
0.812772
0.801975
0.791878
0.782695
0.773216
0.762184
0.74455
0.719615
0.69606
0.674785
0.660127
0.647708
0.620529
0.555399
0.452802
0.342173
0.290798
0.264385
0.241327
0.221229
0.211236
0.207741
0.2149
0.239121
0.282441
0.367057
0.490933
0.662651
0.798183
0.867355
0.89999
0.9152
0.92421
0.932563
0.940721
0.947969
0.953886
0.958799
0.96267
0.964476
0.963056
0.956826
0.942905
0.919293
0.883526
0.846697
0.817873
0.79975
0.792193
0.792469
0.79783
0.803883
0.805366
0.804393
0.799478
0.796647
0.803503
0.832715
0.871815
0.914767
0.956562
0.981997
0.993288
0.997596
0.999029
0.999461
0.999568
0.999557
0.999441
0.998995
0.997443
0.995255
0.994028
0.993424
0.992349
0.990214
0.988698
0.988345
0.988761
0.99141
0.995293
0.997552
0.998722
0.999293
0.999567
0.999715
0.999812
0.999881
0.999929
0.99996
0.999979
0.99999
0.999995
0.999997
0.999998
0.999997
0.999993
0.999978
0.999924
0.999745
0.999163
0.99727
0.991007
0.969794
0.896274
0.717561
0.540588
0.391885
0.273851
0.1848
0.120626
0.0762705
0.0467735
0.0278467
0.0161077
0.00905638
0.00495201
0.00263284
0.00136218
0.000684128
0.000336099
0.000155768
0.619465
0.602727
0.670501
0.735417
0.750728
0.761483
0.783117
0.804912
0.836184
0.857257
0.866801
0.877195
0.885611
0.88935
0.892621
0.894098
0.894968
0.896047
0.897008
0.89794
0.898716
0.899275
0.897642
0.889199
0.87415
0.843893
0.801353
0.753811
0.704978
0.674086
0.649403
0.636015
0.629563
0.627311
0.627762
0.628706
0.628657
0.625674
0.619283
0.608266
0.58495
0.550717
0.539451
0.615526
0.737772
0.786438
0.806192
0.816571
0.825428
0.830294
0.834226
0.837088
0.837823
0.836196
0.832742
0.828294
0.82214
0.814355
0.805323
0.796614
0.787704
0.779525
0.771381
0.760486
0.743062
0.720055
0.693064
0.663464
0.645086
0.633642
0.609062
0.554884
0.458381
0.340161
0.267429
0.235343
0.210037
0.184436
0.17273
0.168328
0.168338
0.177674
0.195294
0.228895
0.284611
0.373807
0.555628
0.749681
0.845645
0.887334
0.903648
0.913889
0.92549
0.937335
0.947531
0.956482
0.964315
0.971046
0.976471
0.980482
0.982961
0.982705
0.978359
0.968393
0.954487
0.938458
0.921596
0.90618
0.895723
0.892963
0.897776
0.905649
0.908849
0.906795
0.892872
0.878097
0.878722
0.902608
0.934929
0.964864
0.985185
0.994496
0.998108
0.999328
0.999694
0.999792
0.999799
0.999763
0.999591
0.998953
0.998001
0.997441
0.997112
0.99648
0.99517
0.994165
0.993832
0.993944
0.994932
0.997081
0.998482
0.999239
0.999617
0.999797
0.999884
0.999929
0.999956
0.999973
0.999984
0.999992
0.999996
0.999998
0.999999
0.999999
0.999998
0.999996
0.999988
0.999956
0.999849
0.999484
0.998244
0.99397
0.979024
0.926374
0.767849
0.576978
0.417121
0.290475
0.195275
0.126971
0.0799809
0.0488649
0.028985
0.0167019
0.009356
0.00509504
0.00270005
0.00138938
0.000699581
0.000333671
0.623339
0.619049
0.696925
0.761834
0.79078
0.823707
0.84169
0.868135
0.885157
0.893205
0.897659
0.899895
0.900823
0.900981
0.900372
0.898371
0.896912
0.896322
0.896734
0.898811
0.902757
0.90987
0.919162
0.925202
0.932715
0.935898
0.937187
0.923819
0.891096
0.826374
0.754371
0.689076
0.651002
0.627348
0.615699
0.610171
0.607925
0.608508
0.60313
0.587119
0.56271
0.548815
0.564088
0.696229
0.771758
0.800064
0.812533
0.819022
0.825448
0.829689
0.832525
0.83345
0.830943
0.827492
0.823715
0.818783
0.81266
0.805661
0.798418
0.792044
0.785554
0.779284
0.772137
0.761917
0.745346
0.7238
0.696094
0.664854
0.639887
0.622005
0.605245
0.564108
0.47783
0.358581
0.274689
0.232151
0.199831
0.174324
0.160958
0.155906
0.156169
0.159844
0.168605
0.186834
0.221487
0.269152
0.331994
0.455851
0.669623
0.798043
0.843102
0.858244
0.871407
0.887485
0.902992
0.918602
0.935028
0.951449
0.966185
0.977565
0.984875
0.989238
0.991702
0.992606
0.991801
0.989056
0.985579
0.98147
0.976062
0.968842
0.961943
0.959507
0.96119
0.963602
0.963657
0.960445
0.945048
0.931147
0.933827
0.954124
0.974885
0.989158
0.995957
0.99863
0.999547
0.999826
0.9999
0.99991
0.999895
0.999814
0.999515
0.999169
0.998983
0.998824
0.998468
0.997758
0.997216
0.997008
0.99703
0.997415
0.998448
0.999187
0.999597
0.999805
0.999904
0.999951
0.999973
0.999984
0.999991
0.999995
0.999997
0.999999
0.999999
0.999999
0.999999
0.999999
0.999998
0.999992
0.999969
0.999889
0.999607
0.998605
0.995025
0.982154
0.936174
0.787818
0.589957
0.424425
0.294081
0.196718
0.127297
0.079806
0.0485318
0.02865
0.0164329
0.00915988
0.0049678
0.00261651
0.0013484
0.00066022
0.627078
0.624896
0.711352
0.795254
0.833188
0.863895
0.878264
0.890819
0.895371
0.896647
0.896778
0.894842
0.888079
0.877901
0.872878
0.869563
0.867942
0.867239
0.866515
0.865239
0.864673
0.86443
0.868115
0.880813
0.902211
0.934049
0.952122
0.962834
0.966487
0.963044
0.939094
0.883167
0.793463
0.706327
0.655369
0.620176
0.598325
0.584509
0.575272
0.566797
0.558707
0.559565
0.639818
0.747062
0.790197
0.806852
0.814484
0.819096
0.824795
0.827675
0.827633
0.82475
0.821634
0.818533
0.815149
0.811091
0.806123
0.800811
0.795406
0.790114
0.784973
0.779456
0.773455
0.764284
0.750239
0.731559
0.704343
0.671627
0.64263
0.622125
0.606845
0.581384
0.52335
0.404883
0.304576
0.244927
0.207634
0.180812
0.164987
0.155823
0.154005
0.15578
0.161583
0.172861
0.19741
0.239832
0.285424
0.333075
0.415176
0.593143
0.734402
0.783015
0.802438
0.816915
0.829093
0.842558
0.862568
0.890446
0.919998
0.948404
0.970303
0.983963
0.991138
0.99454
0.996266
0.997125
0.997266
0.996921
0.996195
0.995188
0.993177
0.989818
0.987166
0.986719
0.986767
0.986472
0.985153
0.979391
0.966234
0.962525
0.96971
0.983783
0.992906
0.99735
0.999105
0.999714
0.999901
0.999951
0.999958
0.99995
0.9999
0.999771
0.999677
0.999624
0.999548
0.999354
0.99903
0.998802
0.998718
0.998722
0.99886
0.999293
0.999631
0.999817
0.999913
0.999959
0.99998
0.99999
0.999995
0.999997
0.999998
0.999999
1
1
1
1
0.999999
0.999998
0.999993
0.999974
0.999904
0.999646
0.998695
0.995189
0.982315
0.935779
0.784666
0.584005
0.417551
0.287578
0.191257
0.123058
0.0767163
0.046385
0.0272298
0.0155265
0.0086112
0.00463779
0.00244364
0.00122604
0.630255
0.62696
0.727853
0.823345
0.859135
0.882625
0.891818
0.895933
0.896714
0.895197
0.890315
0.877503
0.869876
0.866635
0.865458
0.865213
0.865631
0.866772
0.86713
0.866268
0.863522
0.857801
0.848278
0.839784
0.836735
0.839374
0.882424
0.933855
0.967926
0.981609
0.985325
0.980078
0.956634
0.899989
0.801112
0.726731
0.670576
0.628425
0.599806
0.583138
0.583888
0.628502
0.721344
0.777063
0.800242
0.81001
0.814459
0.818605
0.822809
0.822961
0.819196
0.815109
0.811943
0.809196
0.806424
0.80353
0.800094
0.796338
0.7927
0.788362
0.783895
0.779012
0.77311
0.764001
0.751167
0.734917
0.710863
0.681758
0.652474
0.626011
0.611442
0.596938
0.566871
0.500501
0.378478
0.288691
0.235607
0.202261
0.180635
0.166123
0.160382
0.160814
0.163574
0.171527
0.190245
0.230089
0.27686
0.31842
0.357999
0.413645
0.532713
0.673278
0.745676
0.776295
0.787568
0.791022
0.793408
0.803078
0.835246
0.882637
0.928269
0.961421
0.980974
0.991038
0.995671
0.997673
0.99862
0.999101
0.999276
0.999284
0.999164
0.998761
0.997903
0.997191
0.99662
0.996139
0.995659
0.994719
0.99184
0.984277
0.980595
0.982592
0.990391
0.995848
0.998445
0.999477
0.999836
0.999946
0.999975
0.999979
0.999973
0.999944
0.999907
0.999887
0.99987
0.999834
0.999741
0.999633
0.999568
0.999552
0.999559
0.999616
0.999764
0.999874
0.999937
0.999969
0.999986
0.999993
0.999997
0.999998
0.999999
1
1
1
1
1
1
1
0.999998
0.999994
0.999975
0.999906
0.999639
0.998625
0.994791
0.980507
0.92843
0.765384
0.565179
0.401289
0.274533
0.181377
0.115937
0.0717905
0.0431194
0.0251376
0.0142469
0.00783902
0.00421858
0.00216527
0.633448
0.6225
0.718945
0.829398
0.871051
0.889786
0.895958
0.897343
0.896585
0.890923
0.879516
0.872033
0.868991
0.868108
0.868269
0.870054
0.872585
0.873804
0.876986
0.879879
0.882588
0.883881
0.880241
0.865575
0.838851
0.81354
0.805598
0.823631
0.896264
0.963029
0.986583
0.992886
0.993875
0.983837
0.948547
0.85991
0.788353
0.735685
0.697971
0.67646
0.67942
0.719392
0.764979
0.792722
0.805275
0.810626
0.814042
0.817269
0.818315
0.814336
0.809814
0.806267
0.803307
0.800564
0.797804
0.795326
0.792568
0.789839
0.786811
0.783831
0.780562
0.775572
0.767415
0.754732
0.743666
0.730161
0.70969
0.683597
0.658351
0.634404
0.616831
0.606805
0.592628
0.563612
0.501256
0.393379
0.30517
0.252497
0.219553
0.197025
0.183332
0.183047
0.186439
0.197153
0.211954
0.238692
0.288001
0.331821
0.36274
0.393294
0.433756
0.509781
0.63667
0.728097
0.764201
0.771916
0.769915
0.764698
0.764687
0.789716
0.856625
0.919148
0.958921
0.98052
0.991263
0.996211
0.998334
0.999208
0.999592
0.999773
0.999843
0.99985
0.999816
0.999699
0.999496
0.999238
0.99901
0.998724
0.998118
0.996223
0.992337
0.990456
0.99105
0.994844
0.997855
0.999203
0.999733
0.999917
0.999973
0.999987
0.999989
0.999985
0.999972
0.999965
0.99996
0.999953
0.999935
0.999904
0.99988
0.999871
0.999871
0.999878
0.999912
0.99995
0.999973
0.999986
0.999993
0.999997
0.999998
0.999999
1
1
1
1
1
1
1
1
1
0.999998
0.999993
0.999974
0.999895
0.999588
0.998392
0.993809
0.976625
0.913817
0.733585
0.537519
0.378858
0.257297
0.168754
0.107061
0.0658019
0.0392176
0.0227074
0.0127587
0.00700874
0.00367651
0.640012
0.615762
0.690101
0.820981
0.868779
0.889143
0.89618
0.898268
0.897442
0.891827
0.880319
0.872723
0.86957
0.86851
0.867497
0.865707
0.863412
0.862401
0.865209
0.870508
0.880418
0.886217
0.888264
0.886801
0.877724
0.840622
0.802198
0.796531
0.815315
0.892778
0.962608
0.989518
0.996666
0.997929
0.992874
0.963002
0.869657
0.803482