/*--------------------------------*- C++ -*----------------------------------*\
  =========                 |
  \\      /  F ield         | OpenFOAM: The Open Source CFD Toolbox
   \\    /   O peration     | Website:  https://openfoam.org
    \\  /    A nd           | Version:  7
     \\/     M anipulation  |
\*---------------------------------------------------------------------------*/
FoamFile
{
    version     2.0;
    format      ascii;
    class       volVectorField;
    location    "0.074";
    object      U;
}
// * * * * * * * * * * * * * * * * * * * * * * * * * * * * * * * * * * * * * //

dimensions      [0 1 -1 0 0 0 0];

internalField   nonuniform List<vector> 
12225
(
(4.77326 0.133245 0)
(4.21895 0.111784 0)
(3.72394 0.110494 0)
(3.31783 0.0885297 0)
(2.95501 0.0703958 0)
(2.61431 0.0590605 0)
(2.30643 0.0481707 0)
(2.04343 0.0383903 0)
(1.81603 0.0330867 0)
(1.61395 0.0303112 0)
(1.43319 0.0265733 0)
(1.27674 0.0211035 0)
(1.14459 0.0142187 0)
(1.03909 0.00823754 0)
(0.952484 0.00577471 0)
(0.86945 0.00456166 0)
(0.813813 0.0119367 0)
(0.666729 -0.000326951 0)
(5.0257 0.118989 0)
(4.89526 0.0719056 0)
(4.77042 0.0906124 0)
(4.66472 0.0972 0)
(4.56941 0.09909 0)
(4.47341 0.100533 0)
(4.36444 0.0991148 0)
(4.23672 0.0941661 0)
(4.08685 0.0879816 0)
(3.92505 0.0820884 0)
(3.77053 0.0766096 0)
(3.63968 0.0701837 0)
(3.53172 0.0636284 0)
(3.44151 0.05666 0)
(3.36258 0.0543341 0)
(3.27551 0.0525644 0)
(3.19342 0.0610043 0)
(3.06605 0.0613033 0)
(5.01763 0.154479 0)
(4.90559 0.127126 0)
(4.82691 0.14854 0)
(4.7789 0.139548 0)
(4.75453 0.120645 0)
(4.74391 0.111683 0)
(4.73346 0.112323 0)
(4.71247 0.116757 0)
(4.67567 0.122027 0)
(4.62679 0.1248 0)
(4.57559 0.12085 0)
(4.528 0.10835 0)
(4.48675 0.0919849 0)
(4.4477 0.0767229 0)
(4.41491 0.0703677 0)
(4.37765 0.070911 0)
(4.34997 0.0823492 0)
(4.30449 0.0952065 0)
(4.89389 0.191668 0)
(4.86268 0.108276 0)
(4.81309 0.125915 0)
(4.79984 0.129692 0)
(4.79821 0.118524 0)
(4.78717 0.11127 0)
(4.76614 0.111205 0)
(4.74245 0.113876 0)
(4.72151 0.116768 0)
(4.70645 0.117084 0)
(4.69901 0.111863 0)
(4.69504 0.101148 0)
(4.69179 0.0895066 0)
(4.68507 0.0796408 0)
(4.67848 0.0760711 0)
(4.67075 0.0781836 0)
(4.66978 0.087483 0)
(4.66802 0.101772 0)
(4.94143 0.168255 0)
(4.96492 0.113345 0)
(4.91431 0.142695 0)
(4.88371 0.142426 0)
(4.8641 0.127189 0)
(4.83147 0.121128 0)
(4.79159 0.12456 0)
(4.75873 0.12954 0)
(4.73861 0.131565 0)
(4.73008 0.128849 0)
(4.73012 0.120706 0)
(4.73302 0.108046 0)
(4.73519 0.0947368 0)
(4.73493 0.0832598 0)
(4.73414 0.076989 0)
(4.73489 0.0771026 0)
(4.74001 0.0840363 0)
(4.74925 0.0985232 0)
(4.9868 0.193094 0)
(4.82713 0.117351 0)
(4.77102 0.140081 0)
(4.76811 0.142345 0)
(4.77023 0.134756 0)
(4.76441 0.133307 0)
(4.75472 0.134232 0)
(4.74721 0.132273 0)
(4.74435 0.127628 0)
(4.74703 0.12162 0)
(4.7549 0.113901 0)
(4.76422 0.104015 0)
(4.77112 0.093494 0)
(4.77345 0.0840841 0)
(4.772 0.0777544 0)
(4.76949 0.076621 0)
(4.76951 0.0806076 0)
(4.77431 0.0921513 0)
(5.04311 0.230123 0)
(4.9708 0.158585 0)
(4.90428 0.152208 0)
(4.86893 0.147325 0)
(4.84972 0.139647 0)
(4.83624 0.13629 0)
(4.82574 0.136145 0)
(4.81981 0.134794 0)
(4.8194 0.129804 0)
(4.82419 0.121195 0)
(4.83252 0.109916 0)
(4.84072 0.0977546 0)
(4.84547 0.0870955 0)
(4.84574 0.0796929 0)
(4.84342 0.0759374 0)
(4.84048 0.0767481 0)
(4.84122 0.0811805 0)
(4.84441 0.0907455 0)
(5.10973 0.215817 0)
(5.06052 0.17725 0)
(4.96723 0.168626 0)
(4.93063 0.150301 0)
(4.92759 0.139204 0)
(4.92998 0.13659 0)
(4.92682 0.136115 0)
(4.92071 0.133065 0)
(4.91444 0.126605 0)
(4.9073 0.118625 0)
(4.89837 0.110708 0)
(4.88816 0.103301 0)
(4.87948 0.0961352 0)
(4.87533 0.0892614 0)
(4.8781 0.0830031 0)
(4.88637 0.079126 0)
(4.90031 0.0786186 0)
(4.91403 0.0835053 0)
(5.00499 0.188273 0)
(4.9954 0.197531 0)
(4.9893 0.182176 0)
(4.96607 0.157266 0)
(4.94074 0.147051 0)
(4.92016 0.146642 0)
(4.90496 0.146018 0)
(4.89646 0.141191 0)
(4.89395 0.133336 0)
(4.89549 0.124502 0)
(4.90082 0.114773 0)
(4.90989 0.103421 0)
(4.92258 0.0903773 0)
(4.93665 0.0775523 0)
(4.94986 0.0673358 0)
(4.96037 0.0625779 0)
(4.96793 0.064114 0)
(4.97435 0.0722222 0)
(5.10244 0.239896 0)
(5.04071 0.226855 0)
(4.98381 0.194212 0)
(4.95077 0.164327 0)
(4.95375 0.151592 0)
(4.97478 0.148489 0)
(4.98971 0.1455 0)
(4.98851 0.138798 0)
(4.97621 0.128988 0)
(4.96371 0.11808 0)
(4.959 0.10697 0)
(4.96173 0.0958904 0)
(4.96687 0.0851892 0)
(4.96751 0.0765676 0)
(4.96187 0.0705093 0)
(4.9514 0.0686374 0)
(4.94194 0.0694806 0)
(4.93878 0.0733761 0)
(4.94731 0.276141 0)
(5.02722 0.221176 0)
(5.01786 0.197339 0)
(4.9787 0.159949 0)
(4.95238 0.137008 0)
(4.94226 0.134681 0)
(4.93669 0.142719 0)
(4.92939 0.148667 0)
(4.92259 0.144748 0)
(4.92163 0.130963 0)
(4.92857 0.112684 0)
(4.94042 0.0960737 0)
(4.95255 0.0846273 0)
(4.96095 0.0790562 0)
(4.96662 0.0767078 0)
(4.97094 0.0758831 0)
(4.98003 0.0733534 0)
(4.99381 0.0699426 0)
(5.0341 0.217384 0)
(4.98561 0.2392 0)
(4.95093 0.230449 0)
(4.93846 0.187475 0)
(4.92386 0.160201 0)
(4.9119 0.151664 0)
(4.91181 0.149788 0)
(4.92358 0.144809 0)
(4.94162 0.132368 0)
(4.95987 0.11458 0)
(4.97304 0.0967831 0)
(4.97878 0.0831961 0)
(4.97807 0.074704 0)
(4.97498 0.0698749 0)
(4.97432 0.0656358 0)
(4.9801 0.060828 0)
(4.99411 0.0534495 0)
(5.01637 0.0457358 0)
(5.05357 0.203676 0)
(5.04627 0.229603 0)
(5.03486 0.211117 0)
(5.023 0.175891 0)
(5.00638 0.154235 0)
(4.98622 0.145628 0)
(4.97666 0.142785 0)
(4.98336 0.13902 0)
(4.9991 0.13016 0)
(5.0116 0.117326 0)
(5.01214 0.104662 0)
(5.00026 0.0950917 0)
(4.98265 0.0881345 0)
(4.96759 0.0814763 0)
(4.96169 0.0721217 0)
(4.96668 0.0597794 0)
(4.98275 0.0438512 0)
(5.00521 0.028166 0)
(5.02327 0.283264 0)
(5.01069 0.274788 0)
(4.98188 0.238677 0)
(4.96925 0.196258 0)
(4.95648 0.173932 0)
(4.93999 0.162634 0)
(4.93499 0.147154 0)
(4.94757 0.126128 0)
(4.97 0.1078 0)
(4.99102 0.098768 0)
(5.00333 0.0980875 0)
(5.00662 0.0992419 0)
(5.0058 0.0954149 0)
(5.00703 0.0836892 0)
(5.01381 0.0649057 0)
(5.02713 0.0430005 0)
(5.04554 0.0205658 0)
(5.0672 0.0017539 0)
(5.07302 0.252822 0)
(5.07883 0.27335 0)
(5.06084 0.239357 0)
(5.05263 0.200116 0)
(5.05042 0.178668 0)
(5.05046 0.161567 0)
(5.04817 0.141018 0)
(5.03873 0.120137 0)
(5.02459 0.105133 0)
(5.01328 0.0987981 0)
(5.00914 0.0983934 0)
(5.01101 0.0979167 0)
(5.01547 0.0914442 0)
(5.0197 0.0766678 0)
(5.02285 0.0542731 0)
(5.02526 0.028456 0)
(5.02843 0.00212015 0)
(5.03255 -0.0199255 0)
(4.93876 0.263334 0)
(4.99274 0.280632 0)
(5.01723 0.242782 0)
(5.03387 0.190522 0)
(5.04369 0.165284 0)
(5.04197 0.160333 0)
(5.03109 0.158778 0)
(5.01608 0.148561 0)
(5.00573 0.129334 0)
(5.00735 0.10908 0)
(5.02135 0.0945419 0)
(5.04248 0.08637 0)
(5.06537 0.0802468 0)
(5.086 0.0713679 0)
(5.10323 0.0570107 0)
(5.11513 0.0371656 0)
(5.12431 0.0135765 0)
(5.12785 -0.0106937 0)
(5.03492 0.242952 0)
(5.05451 0.237811 0)
(5.06804 0.227263 0)
(5.06261 0.195519 0)
(5.04517 0.178081 0)
(5.03027 0.175088 0)
(5.02766 0.168196 0)
(5.02846 0.14543 0)
(5.02633 0.111365 0)
(5.02435 0.0791993 0)
(5.02774 0.0573346 0)
(5.03918 0.0449782 0)
(5.05868 0.0362266 0)
(5.08362 0.0254063 0)
(5.10998 0.0109566 0)
(5.13331 -0.00585036 0)
(5.15119 -0.0217843 0)
(5.16152 -0.034049 0)
(5.00628 0.356142 0)
(5.02324 0.287336 0)
(5.03137 0.219385 0)
(5.03079 0.199953 0)
(5.02067 0.185009 0)
(5.0187 0.170751 0)
(5.03484 0.162068 0)
(5.05534 0.153427 0)
(5.0682 0.137287 0)
(5.07215 0.11077 0)
(5.0709 0.0763858 0)
(5.06881 0.0401039 0)
(5.0692 0.00806582 0)
(5.07263 -0.015614 0)
(5.07726 -0.0297723 0)
(5.08103 -0.0360438 0)
(5.08279 -0.0371557 0)
(5.08332 -0.0369053 0)
(4.98915 0.360305 0)
(5.03206 0.242496 0)
(5.0305 0.209863 0)
(5.02151 0.220719 0)
(4.99887 0.206309 0)
(4.99807 0.163189 0)
(5.02542 0.115514 0)
(5.06373 0.0836791 0)
(5.09898 0.0705437 0)
(5.12297 0.0662684 0)
(5.13267 0.0603289 0)
(5.13032 0.0484712 0)
(5.1216 0.0321389 0)
(5.11145 0.0148349 0)
(5.10318 -0.00090374 0)
(5.09765 -0.0141326 0)
(5.09564 -0.025728 0)
(5.09507 -0.0371018 0)
(4.99619 0.368178 0)
(4.96412 0.246011 0)
(4.97275 0.228418 0)
(5.00295 0.237499 0)
(5.04527 0.198647 0)
(5.07571 0.122987 0)
(5.08858 0.0537975 0)
(5.09505 0.0236292 0)
(5.1051 0.0310534 0)
(5.12009 0.0529859 0)
(5.13616 0.0679306 0)
(5.14918 0.0667344 0)
(5.15771 0.0510269 0)
(5.16207 0.0274784 0)
(5.16462 0.00356711 0)
(5.16534 -0.0159313 0)
(5.16558 -0.0290715 0)
(5.16432 -0.0367562 0)
(5.01799 0.320866 0)
(5.03019 0.249776 0)
(5.04104 0.179084 0)
(5.07645 0.154079 0)
(5.12248 0.142496 0)
(5.15554 0.118881 0)
(5.16799 0.0822449 0)
(5.16765 0.0463024 0)
(5.16246 0.0229819 0)
(5.159 0.0136235 0)
(5.16169 0.0123473 0)
(5.17016 0.0121875 0)
(5.18166 0.00905165 0)
(5.19329 0.0022151 0)
(5.20433 -0.00720724 0)
(5.21378 -0.0177672 0)
(5.22164 -0.0275013 0)
(5.22641 -0.0353168 0)
(4.8924 0.246374 0)
(4.89806 0.19921 0)
(4.93514 0.169422 0)
(4.98086 0.137398 0)
(5.03822 0.103779 0)
(5.09156 0.0684689 0)
(5.13129 0.0440495 0)
(5.15758 0.0382308 0)
(5.17141 0.0456892 0)
(5.17646 0.0542642 0)
(5.17931 0.0535641 0)
(5.18465 0.0403211 0)
(5.19395 0.0179881 0)
(5.2054 -0.00669277 0)
(5.21669 -0.0268968 0)
(5.2269 -0.0399977 0)
(5.23593 -0.0463709 0)
(5.24357 -0.0480344 0)
(5.09331 0.317296 0)
(5.02447 0.179422 0)
(5.04966 0.113653 0)
(5.08347 0.084016 0)
(5.10608 0.0576525 0)
(5.10846 0.0301252 0)
(5.10044 0.00895835 0)
(5.09843 -0.000617956 0)
(5.11073 -0.000396315 0)
(5.13547 0.00255078 0)
(5.16484 0.00141767 0)
(5.18961 -0.00598961 0)
(5.20422 -0.0178609 0)
(5.20922 -0.0312049 0)
(5.20824 -0.0431265 0)
(5.20472 -0.0519665 0)
(5.20211 -0.0579378 0)
(5.20286 -0.0615964 0)
(5.02173 0.285634 0)
(5.02888 0.196108 0)
(5.08467 0.111435 0)
(5.1386 0.0826409 0)
(5.17197 0.0819067 0)
(5.17681 0.0742727 0)
(5.16752 0.0527424 0)
(5.16495 0.0275646 0)
(5.17583 0.00903583 0)
(5.19531 0.000597904 0)
(5.21715 -0.00144485 0)
(5.23697 -0.00230801 0)
(5.25247 -0.00498266 0)
(5.2637 -0.0103564 0)
(5.27206 -0.0189068 0)
(5.27813 -0.0296076 0)
(5.28295 -0.0413255 0)
(5.2855 -0.0525289 0)
(5.07926 0.268717 0)
(5.07846 0.167806 0)
(5.12425 0.0623261 0)
(5.13563 0.02943 0)
(5.1405 0.0331328 0)
(5.15908 0.0305631 0)
(5.18794 0.0126622 0)
(5.21546 -0.00915934 0)
(5.23459 -0.0255931 0)
(5.24588 -0.0341832 0)
(5.25442 -0.0375711 0)
(5.26594 -0.0403489 0)
(5.28314 -0.0450952 0)
(5.30442 -0.0517839 0)
(5.32606 -0.0587617 0)
(5.34349 -0.0645929 0)
(5.35452 -0.0680813 0)
(5.35735 -0.0692007 0)
(4.88409 0.261509 0)
(5.05821 0.146923 0)
(5.17306 0.09262 0)
(5.21221 0.0839737 0)
(5.23454 0.0737788 0)
(5.26342 0.0467781 0)
(5.29254 0.0155267 0)
(5.31404 -0.00522401 0)
(5.32727 -0.0114942 0)
(5.3374 -0.0121436 0)
(5.34871 -0.0157645 0)
(5.361 -0.0248847 0)
(5.37182 -0.0369743 0)
(5.37831 -0.0476664 0)
(5.37998 -0.0540367 0)
(5.37825 -0.05572 0)
(5.37578 -0.0539256 0)
(5.37557 -0.0512816 0)
(4.92566 0.0907082 0)
(5.09587 -0.00368331 0)
(5.1775 0.00179959 0)
(5.22266 0.00399725 0)
(5.27657 -0.00254177 0)
(5.33405 -0.0114539 0)
(5.37393 -0.0209928 0)
(5.39587 -0.0317554 0)
(5.4116 -0.0416989 0)
(5.42882 -0.0494844 0)
(5.44788 -0.0552169 0)
(5.46417 -0.0590254 0)
(5.4733 -0.0610209 0)
(5.47383 -0.0617413 0)
(5.4686 -0.0624762 0)
(5.46179 -0.0643367 0)
(5.45784 -0.068224 0)
(5.45921 -0.0740594 0)
(5.09612 0.117968 0)
(5.14731 0.0648051 0)
(5.23367 0.0730245 0)
(5.28524 0.0483538 0)
(5.32433 0.0135852 0)
(5.36943 -0.00624071 0)
(5.42109 -0.0149417 0)
(5.47232 -0.0206955 0)
(5.51413 -0.0266481 0)
(5.54123 -0.0321741 0)
(5.55498 -0.036645 0)
(5.56065 -0.0398524 0)
(5.56329 -0.041555 0)
(5.56582 -0.0420841 0)
(5.56889 -0.0427954 0)
(5.57188 -0.0450639 0)
(5.57429 -0.0498183 0)
(5.57556 -0.056733 0)
(4.92844 -0.0127664 0)
(5.13305 -0.0394086 0)
(5.29588 -0.0246167 0)
(5.40092 -0.0353766 0)
(5.45413 -0.0487343 0)
(5.48214 -0.0594302 0)
(5.50172 -0.0684471 0)
(5.51621 -0.0743318 0)
(5.52219 -0.0748503 0)
(5.51787 -0.0710585 0)
(5.50622 -0.06669 0)
(5.49238 -0.064572 0)
(5.47916 -0.06484 0)
(5.46718 -0.0661616 0)
(5.45374 -0.0676384 0)
(5.43714 -0.0692812 0)
(5.4145 -0.0714651 0)
(5.38657 -0.0747889 0)
(4.95104 0.071485 0)
(5.09962 -0.00204014 0)
(5.09945 0.00330783 0)
(4.99819 -0.0141693 0)
(4.86989 -0.023008 0)
(4.74126 -0.0248291 0)
(4.60614 -0.0270885 0)
(4.46142 -0.0291712 0)
(4.31698 -0.0288918 0)
(4.18363 -0.0273375 0)
(4.06336 -0.0269589 0)
(3.95115 -0.0282553 0)
(3.8417 -0.0294464 0)
(3.73501 -0.0287747 0)
(3.6326 -0.0262366 0)
(3.53685 -0.0233039 0)
(3.44513 -0.02196 0)
(3.35599 -0.022897 0)
(-0.115787 0.311884 7.09093e-22)
(-0.361076 0.272859 -6.92665e-22)
(-0.535731 0.184623 0)
(-0.636544 0.0981865 0)
(-0.654794 0.0084774 0)
(-0.605606 -0.0679586 6.46602e-22)
(-0.507518 -0.130357 0)
(-0.35161 -0.188195 0)
(-0.156732 -0.227219 0)
(0.0753929 -0.252933 0)
(0.329365 -0.264448 -6.71139e-22)
(0.590655 -0.265895 0)
(0.851182 -0.25987 0)
(1.10575 -0.247924 0)
(1.35019 -0.231967 0)
(1.5806 -0.21355 -5.28798e-22)
(1.79444 -0.193857 0)
(1.99019 -0.173362 0)
(2.16691 -0.152282 0)
(2.32393 -0.130678 0)
(2.46027 -0.108452 0)
(2.5753 -0.0856485 0)
(2.66755 -0.0620988 0)
(2.73679 -0.0380558 -2.32142e-22)
(2.78005 -0.0131221 2.16994e-22)
(2.79834 0.012588 -2.09095e-22)
(2.78647 0.0406372 -2.0852e-22)
(2.74319 0.0705657 0)
(2.66917 0.103957 0)
(2.56007 0.137398 2.48179e-22)
(2.42155 0.173911 2.72234e-22)
(2.23819 0.21237 0)
(2.03031 0.247266 0)
(1.76365 0.304846 3.52174e-22)
(1.46743 0.315598 0)
(1.1406 0.4135 0)
(0.671194 0.44076 -3.76422e-22)
(0.303956 0.081317 0)
(0.0844901 -0.169524 -3.37995e-22)
(-0.0789173 -0.12739 -6.58896e-22)
(-0.19964 -0.00675718 0)
(-0.279851 0.0651662 0)
(-0.334788 0.0841547 0)
(-0.369377 0.0729848 0)
(-0.372891 0.0417146 0)
(-0.336018 0.00158659 -5.73695e-22)
(-0.261044 -0.0339887 -6.01235e-22)
(-0.158397 -0.0618118 -6.3178e-22)
(-0.0305997 -0.0863396 0)
(0.134348 -0.104504 6.93338e-22)
(0.328645 -0.0887529 0)
(0.50127 -0.00500239 -7.47609e-22)
(0.565961 0.0849344 -7.47505e-22)
(0.501078 0.0763477 0)
(0.467135 0.0107249 0)
(0.598375 -0.0464313 0)
(0.825175 -0.116564 -7.41807e-22)
(1.03599 -0.296964 0)
(1.13677 -0.496013 0)
(1.10581 -0.423169 0)
(0.865426 -0.0204098 0)
(0.26968 0.397577 0)
(-0.460708 0.517991 0)
(-1.14419 0.494256 0)
(-1.76294 0.446165 0)
(-2.31836 0.39803 2.05746e-22)
(-2.81513 0.354182 0)
(-3.25953 0.314791 0)
(-3.65681 0.279052 4.48187e-22)
(-4.01088 0.246066 6.59676e-22)
(-4.32466 0.215368 0)
(-4.60043 0.186728 -1.04602e-21)
(-4.84003 0.159924 1.21578e-21)
(-5.04482 0.134664 0)
(-5.21566 0.110618 -1.49855e-21)
(-5.35301 0.0875163 0)
(-5.45707 0.0652397 0)
(-5.52798 0.0439722 1.75325e-21)
(-5.566 0.0241369 0)
(-5.57188 0.00611589 -1.79575e-21)
(-5.54903 -0.00996401 0)
(-5.50045 -0.024238 1.73845e-21)
(-5.42731 -0.0367936 1.67669e-21)
(-5.33282 -0.0476461 1.59624e-21)
(-5.21918 -0.0568271 3.00001e-21)
(-5.08941 -0.0643775 -2.78181e-21)
(-4.94589 -0.0703996 0)
(-4.79124 -0.0750209 0)
(-4.62761 -0.0784111 0)
(-4.45713 -0.0807364 -1.75698e-21)
(-4.28149 -0.0821735 -1.48417e-21)
(-4.10224 -0.0828867 1.21116e-21)
(-3.92057 -0.0830448 0)
(-3.73743 -0.0827964 -6.73149e-22)
(-3.55343 -0.0822964 -4.11476e-22)
(-3.36893 -0.0816797 -1.56421e-22)
(-3.18402 -0.0810713 0)
(-2.99854 -0.0805748 0)
(-2.81216 -0.0802702 0)
(-2.62436 -0.0802138 7.78369e-22)
(-2.43451 -0.0804287 0)
(-2.242 -0.0808938 0)
(-2.04635 -0.081538 -1.36814e-21)
(-1.84733 -0.0822455 0)
(-1.64499 -0.0828721 0)
(-1.43969 -0.0832536 -1.84211e-21)
(-1.23219 -0.08322 0)
(-1.02355 -0.0825976 0)
(-0.815116 -0.0812399 2.18493e-21)
(-0.608481 -0.0791141 2.2688e-21)
(-0.405518 -0.076207 0)
(-0.208192 -0.0723658 -2.39193e-21)
(-0.0189995 -0.0681363 0)
(0.160209 -0.0631134 2.45789e-21)
(0.328504 -0.057545 0)
(0.484507 -0.0516167 2.47514e-21)
(0.627365 -0.0455319 2.46919e-21)
(0.75671 -0.0395055 0)
(0.872646 -0.0337352 0)
(0.975693 -0.0283612 0)
(1.06669 -0.0234651 0)
(1.14671 -0.0190769 0)
(1.21689 -0.0151272 0)
(1.2782 -0.0114859 0)
(1.33142 -0.00808886 2.24602e-21)
(1.37705 -0.00481626 -2.21081e-21)
(1.41517 -0.00141301 0)
(1.4454 0.00203524 0)
(1.46767 0.00522728 0)
(1.48187 0.00857116 0)
(1.48674 0.0124195 -4.08254e-21)
(1.48196 0.0160552 0)
(1.46849 0.0187248 3.95536e-21)
(1.44759 0.0203467 -3.89371e-21)
(1.42084 0.021083 0)
(1.38976 0.0211364 0)
(1.35573 0.0206605 0)
(1.31999 0.0197614 3.66115e-21)
(1.28365 0.0185145 3.6068e-21)
(1.24768 0.0170001 0)
(1.2129 0.0153275 3.50293e-21)
(1.17993 0.013616 3.45348e-21)
(1.14915 0.011964 -3.40566e-21)
(1.12078 0.010433 0)
(1.09487 0.00904851 0)
(1.07138 0.00781392 -3.27145e-21)
(1.0502 0.00672609 0)
(1.03122 0.00578328 0)
(1.01427 0.00498527 0)
(0.999188 0.00432961 0)
(0.985801 0.00380799 3.07307e-21)
(0.97392 0.00340491 3.03635e-21)
(0.96336 0.00309932 0)
(0.953947 0.00286716 2.96526e-21)
(0.94552 0.00268509 0)
(0.937946 0.00253335 0)
(0.931107 0.00239843 2.86365e-21)
(0.924915 0.00227154 0)
(0.919273 0.00214952 2.79895e-21)
(0.914127 0.00203024 0)
(0.909366 0.00191731 0)
(0.904962 0.00181381 2.70621e-21)
(0.900745 0.00173189 0)
(0.896741 0.00167401 2.64713e-21)
(0.892658 0.0016572 0)
(0.888644 0.00167915 0)
(0.884127 0.00177072 0)
(0.87953 0.00191263 -2.53524e-21)
(0.873738 0.00213807 0)
(0.867757 0.00239873 2.4824e-21)
(0.85949 0.00281917 0)
(0.850894 0.00327114 0)
(0.838479 0.00408461 0)
(0.824787 0.00478455 0)
(0.806478 0.00647727 0)
(0.78101 0.00718261 0)
(0.758855 0.011377 0)
(0.698342 0.00991123 -4.59983e-21)
(0.697 0.0232244 0)
(0.524483 0.00997823 0)
(0.0327229 0.63522 -2.11522e-21)
(0.00583433 0.574492 2.07448e-21)
(-0.00634587 0.363824 0)
(-0.0184754 0.148506 -1.32315e-21)
(0.0252258 -0.0628954 0)
(0.0961391 -0.246138 -6.47392e-22)
(0.246152 -0.409561 1.29058e-21)
(0.434659 -0.55127 1.29191e-21)
(0.658737 -0.66122 0)
(0.900467 -0.733293 1.2789e-21)
(1.14613 -0.770903 6.69072e-22)
(1.38651 -0.778435 0)
(1.61791 -0.762373 0)
(1.83769 -0.729494 0)
(2.04399 -0.685791 0)
(2.23598 -0.635641 5.2755e-22)
(2.41329 -0.581843 0)
(2.57576 -0.525938 -7.67606e-22)
(2.72314 -0.468543 0)
(2.855 -0.409765 0)
(2.97071 -0.349413 5.31658e-22)
(3.06922 -0.287269 0)
(3.14982 -0.223132 -4.12714e-22)
(3.21072 -0.156975 2.31832e-22)
(3.25261 -0.0888138 -2.1672e-22)
(3.2727 -0.0189852 2.08843e-22)
(3.27471 0.0525237 2.08255e-22)
(3.25582 0.125024 0)
(3.2161 0.198635 0)
(3.15305 0.274094 -2.47755e-22)
(3.0712 0.350264 1.77692e-22)
(2.96593 0.43178 0)
(2.84275 0.510345 0)
(2.69643 0.601402 -3.51197e-22)
(2.52641 0.680177 0)
(2.34857 0.762656 0)
(2.11876 0.846899 3.74871e-22)
(1.9149 0.837032 0)
(1.60549 0.757619 -3.11143e-22)
(1.14066 0.586588 6.56847e-22)
(0.750017 0.340336 0)
(0.486639 0.139512 0)
(0.293858 0.0401465 1.11496e-21)
(0.185562 -0.0192155 1.09045e-21)
(0.149802 -0.0888703 1.08815e-21)
(0.181144 -0.175064 -5.41081e-22)
(0.264328 -0.246621 6.01117e-22)
(0.372261 -0.288541 1.86938e-21)
(0.493666 -0.336544 -1.29131e-21)
(0.638798 -0.405829 -6.92381e-22)
(0.815307 -0.43161 0)
(0.983971 -0.331499 7.46676e-22)
(1.05059 -0.108894 -7.41993e-22)
(1.11405 0.0543027 0)
(1.31826 -0.0901889 0)
(1.48325 -0.453939 0)
(1.38866 -0.574012 7.41589e-22)
(0.972886 -0.142177 0)
(0.195349 0.441214 -1.44896e-21)
(-0.679513 0.8612 0)
(-1.41318 1.13546 -1.20158e-21)
(-2.03638 1.25847 0)
(-2.5586 1.22119 9.62454e-22)
(-3.00999 1.12272 0)
(-3.40602 1.00592 -4.18132e-22)
(-3.75538 0.892268 -1.48538e-22)
(-4.0634 0.78783 0)
(-4.33587 0.69438 -7.35407e-22)
(-4.57718 0.610823 -4.47208e-22)
(-4.79081 0.535536 -6.58458e-22)
(-4.97917 0.466908 0)
(-5.14403 0.403499 -1.20585e-21)
(-5.28674 0.344029 -1.21451e-21)
(-5.4082 0.287393 0)
(-5.50861 0.232629 1.49756e-21)
(-5.58753 0.178948 -3.33079e-21)
(-5.64413 0.125985 0)
(-5.67757 0.0739776 -1.75279e-21)
(-5.68748 0.0237032 0)
(-5.67393 -0.0239176 5.48257e-21)
(-5.63563 -0.068223 0)
(-5.5725 -0.108533 -5.29768e-21)
(-5.48739 -0.144402 -1.67636e-21)
(-5.38181 -0.175521 1.66559e-21)
(-5.25872 -0.201845 3.12542e-21)
(-5.12033 -0.22349 -2.89463e-21)
(-4.96937 -0.240747 0)
(-4.80801 -0.253999 0)
(-4.63852 -0.263706 0)
(-4.46272 -0.27036 5.34328e-21)
(-4.28229 -0.274469 1.48383e-21)
(-4.09857 -0.276527 -1.21089e-21)
(-3.91268 -0.277011 0)
(-3.72543 -0.276368 -7.22648e-22)
(-3.53736 -0.275023 4.11392e-22)
(-3.34874 -0.273369 1.5639e-22)
(-3.15958 -0.271754 0)
(-2.96966 -0.270471 0)
(-2.7786 -0.269746 0)
(-2.58585 -0.269741 -7.78238e-22)
(-2.39076 -0.270525 0)
(-2.19267 -0.272038 2.33905e-21)
(-1.99106 -0.274066 4.077e-21)
(-1.78568 -0.27626 -3.05312e-21)
(-1.57655 -0.278179 0)
(-1.36402 -0.279333 -1.81686e-21)
(-1.14883 -0.279246 0)
(-0.932044 -0.277479 -4.14797e-21)
(-0.715103 -0.273653 2.16277e-21)
(-0.499659 -0.267566 2.24826e-21)
(-0.28759 -0.259107 0)
(-0.0812238 -0.248296 7.15894e-21)
(0.116972 -0.235852 -4.84804e-21)
(0.30534 -0.221293 -2.45699e-21)
(0.482479 -0.205258 0)
(0.646897 -0.188298 -2.47427e-21)
(0.797722 -0.170971 -7.39859e-21)
(0.934675 -0.153805 0)
(1.05812 -0.137266 -4.86455e-21)
(1.16895 -0.121753 -4.81475e-21)
(1.26848 -0.107581 -4.75709e-21)
(1.35817 -0.0949258 0)
(1.43941 -0.0837576 0)
(1.51351 -0.0738548 0)
(1.58158 -0.0649012 2.24211e-21)
(1.64433 -0.0565041 2.2101e-21)
(1.70205 -0.048208 0)
(1.75505 -0.039786 4.27825e-21)
(1.80308 -0.0312415 4.21034e-21)
(1.84519 -0.0223481 0)
(1.88175 -0.0130508 4.08085e-21)
(1.91324 -0.00395652 8.02822e-21)
(1.93902 0.00434142 -3.95348e-21)
(1.9585 0.011522 -3.88743e-21)
(1.97179 0.0173709 0)
(1.97939 0.0218392 0)
(1.982 0.0250173 0)
(1.98051 0.0270093 -3.65865e-21)
(1.9758 0.0279551 3.60216e-21)
(1.96873 0.0280036 7.10122e-21)
(1.96008 0.0273092 -3.50026e-21)
(1.95051 0.0260484 3.44998e-21)
(1.94055 0.0244045 3.40296e-21)
(1.9306 0.0225423 0)
(1.92094 0.020592 0)
(1.91175 0.0186429 -3.26878e-21)
(1.90312 0.0167476 0)
(1.89511 0.0149333 0)
(1.88774 0.013214 6.29336e-21)
(1.88105 0.0116002 0)
(1.87505 0.0101029 3.07075e-21)
(1.8698 0.00873361 -3.03384e-21)
(1.86534 0.00750109 0)
(1.86171 0.00640868 2.96298e-21)
(1.85894 0.00545357 0)
(1.85707 0.00462666 0)
(1.85608 0.00391534 -2.86131e-21)
(1.85598 0.00330768 5.6574e-21)
(1.85671 0.0027954 -2.79667e-21)
(1.85824 0.00237272 0)
(1.86046 0.00203983 0)
(1.86331 0.00179532 2.70389e-21)
(1.86662 0.00163817 0)
(1.87034 0.0015594 2.64478e-21)
(1.8742 0.00158346 0)
(1.87822 0.0016893 0)
(1.882 0.00194992 0)
(1.88569 0.00229052 2.53319e-21)
(1.88861 0.00290864 0)
(1.89114 0.00354936 -2.48039e-21)
(1.89228 0.00474741 0)
(1.89249 0.0056995 0)
(1.89083 0.00796852 4.80995e-21)
(1.8865 0.00913288 -4.76267e-21)
(1.88136 0.0137194 0)
(1.86713 0.0144938 0)
(1.86044 0.0245285 0)
(1.82102 0.0224408 1.37775e-20)
(1.82579 0.0457759 0)
(1.7184 0.0352406 -9.02349e-21)
(0.093426 0.29733 -3.32254e-23)
(0.2282 0.434126 -2.80455e-21)
(0.321393 0.295023 0)
(0.389014 0.0745177 2.70942e-21)
(0.489097 -0.190151 0)
(0.650882 -0.472566 0)
(0.851544 -0.744034 1.17673e-23)
(1.06602 -0.964604 -1.2887e-21)
(1.27404 -1.11619 -1.23268e-21)
(1.46498 -1.19928 -1.27597e-21)
(1.63647 -1.22388 0)
(1.79055 -1.20442 0)
(1.92984 -1.15546 1.02005e-21)
(2.05732 -1.08891 1.89729e-21)
(2.17599 -1.01316 -1.74506e-21)
(2.28839 -0.933344 0)
(2.39617 -0.852029 -1.42432e-21)
(2.50002 -0.77006 7.67494e-22)
(2.59974 -0.687221 0)
(2.69438 -0.602805 -9.51305e-22)
(2.78261 -0.515974 -5.31791e-22)
(2.86261 -0.426059 6.86756e-22)
(2.93268 -0.332743 4.12878e-22)
(2.9908 -0.23603 0)
(3.0355 -0.13644 -4.48609e-22)
(3.06493 -0.0347873 -4.23807e-22)
(3.07817 0.0677871 0)
(3.07548 0.17042 -4.59365e-22)
(3.05909 0.27244 0)
(3.02956 0.374988 -5.9063e-22)
(2.98869 0.476531 -4.49399e-22)
(2.93768 0.581175 0)
(2.87827 0.683883 0)
(2.81287 0.790361 0)
(2.7389 0.893067 0)
(2.66388 0.98357 0)
(2.57276 1.06626 0)
(2.47959 1.09329 -1.23278e-21)
(2.35177 1.07848 1.90004e-21)
(2.16751 1.03236 0)
(1.96544 0.920849 0)
(1.73928 0.746024 0)
(1.49935 0.520907 6.77915e-23)
(1.29336 0.279921 -1.08741e-21)
(1.14776 0.0576821 -2.24825e-21)
(1.08987 -0.16146 2.28968e-21)
(1.09108 -0.335573 1.2184e-21)
(1.10974 -0.412009 -1.23578e-21)
(1.17592 -0.455021 3.30643e-24)
(1.31006 -0.536622 -1.31423e-21)
(1.41075 -0.594818 0)
(1.43486 -0.378778 -1.37857e-21)
(1.49837 -0.0462368 7.95706e-23)
(1.61135 -0.244133 0)
(1.52369 -0.540531 0)
(0.947952 -0.0535591 1.51749e-21)
(-0.013345 0.727017 0)
(-0.883109 1.23552 0)
(-1.61631 1.55646 -1.03932e-21)
(-2.21252 1.72749 -2.18655e-21)
(-2.65997 1.80314 1.19761e-21)
(-2.9941 1.78004 0)
(-3.24775 1.66795 -9.60545e-22)
(-3.46484 1.51768 0)
(-3.66408 1.35758 5.04002e-22)
(-3.85675 1.20654 -5.64589e-23)
(-4.04552 1.07042 -1.42387e-21)
(-4.23056 0.949631 -1.40094e-21)
(-4.40996 0.841793 0)
(-4.58137 0.74405 3.56328e-21)
(-4.74236 0.653908 0)
(-4.89089 0.569406 7.15536e-21)
(-5.02531 0.488901 5.51553e-21)
(-5.1441 0.41091 6.07333e-21)
(-5.24562 0.334074 -6.56664e-21)
(-5.32777 0.257299 1.03151e-20)
(-5.38808 0.180044 0)
(-5.42424 0.102451 0)
(-5.43486 0.0254012 -7.65887e-21)
(-5.41978 -0.049575 -1.13588e-20)
(-5.37925 -0.120606 0)
(-5.31475 -0.185893 3.56059e-21)
(-5.22832 -0.244121 0)
(-5.12252 -0.294601 -1.00086e-20)
(-4.99993 -0.337146 2.01368e-22)
(-4.86316 -0.37199 -1.81779e-22)
(-4.71463 -0.399627 5.352e-21)
(-4.55659 -0.420724 0)
(-4.39108 -0.436027 -4.2673e-21)
(-4.21993 -0.44636 1.19366e-22)
(-4.04468 -0.452571 0)
(-3.86666 -0.455501 0)
(-3.68694 -0.455954 0)
(-3.50631 -0.454686 1.39571e-21)
(-3.3253 -0.452395 0)
(-3.14411 -0.449718 0)
(-2.96269 -0.447204 0)
(-2.78074 -0.445314 0)
(-2.59776 -0.4444 0)
(-2.41312 -0.444718 -1.47739e-21)
(-2.22605 -0.446396 0)
(-2.03573 -0.449354 -2.33891e-21)
(-1.84151 -0.453246 -2.70885e-21)
(-1.64298 -0.457463 3.05284e-21)
(-1.44005 -0.461225 0)
(-1.23295 -0.463663 3.65831e-21)
(-1.02228 -0.463946 0)
(-0.809027 -0.461361 4.14743e-21)
(-0.594565 -0.455263 -4.34692e-21)
(-0.380409 -0.445249 -1.34771e-20)
(-0.16844 -0.431166 0)
(0.0386975 -0.41318 -1.42377e-20)
(0.238598 -0.391447 -4.79407e-21)
(0.429301 -0.366104 0)
(0.608617 -0.338014 -9.82325e-21)
(0.774695 -0.308103 -9.84701e-21)
(0.926044 -0.277535 1.47607e-20)
(1.06154 -0.247596 0)
(1.18066 -0.219449 4.8631e-21)
(1.28387 -0.193891 4.81346e-21)
(1.37287 -0.171292 1.42549e-20)
(1.45022 -0.151662 0)
(1.51876 -0.134748 0)
(1.58098 -0.120137 0)
(1.63873 -0.107288 4.47578e-21)
(1.69313 -0.0954947 0)
(1.74476 -0.0841121 0)
(1.79382 -0.0727351 -4.27781e-21)
(1.84013 -0.0609957 -4.20994e-21)
(1.88322 -0.0487543 0)
(1.92269 -0.036371 0)
(1.95799 -0.0242924 -8.02764e-21)
(1.98871 -0.0128551 0)
(2.0148 -0.00249814 7.77867e-21)
(2.0362 0.00646721 7.65279e-21)
(2.05314 0.0138757 0)
(2.06602 0.0196011 0)
(2.07531 0.0236429 -7.31039e-21)
(2.08151 0.0260914 -2.99477e-24)
(2.08512 0.0271266 -2.40609e-24)
(2.08661 0.027004 0)
(2.0865 0.0260126 -1.3798e-20)
(2.08529 0.0244442 0)
(2.08346 0.0225483 0)
(2.08141 0.0205088 0)
(2.07945 0.018449 6.53635e-21)
(2.07776 0.0164478 0)
(2.07643 0.0145522 -1.27423e-20)
(2.07546 0.0127844 -6.29212e-21)
(2.0748 0.0111464 0)
(2.0744 0.00962577 -6.14001e-21)
(2.0742 0.00820243 0)
(2.0742 0.00685578 0)
(2.07441 0.00556879 -1.77738e-20)
(2.07492 0.00432961 1.17113e-20)
(2.07585 0.00313301 0)
(2.07734 0.00198084 1.14429e-20)
(2.07954 0.000883137 -5.6562e-21)
(2.08259 -0.000142021 0)
(2.08659 -0.00107771 0)
(2.0916 -0.00190105 0)
(2.09762 -0.00259211 -1.62198e-20)
(2.10462 -0.00312152 0)
(2.11249 -0.00348051 -5.28862e-21)
(2.12112 -0.00363477 0)
(2.1303 -0.00361909 0)
(2.13994 -0.00332743 0)
(2.14972 -0.00289818 0)
(2.15971 -0.00204446 0)
(2.16933 -0.00114217 0)
(2.17907 0.000555595 -9.81244e-21)
(2.18761 0.00196341 0)
(2.19669 0.00511801 -4.80871e-21)
(2.20276 0.00699871 1.42786e-20)
(2.21118 0.013045 0)
(2.21209 0.0150067 0)
(2.22104 0.0271767 -9.24858e-21)
(2.21082 0.0277627 -9.17864e-21)
(2.22452 0.0529863 9.08654e-21)
(2.19098 0.0499343 9.0201e-21)
(0.0160934 -0.0943698 4.3485e-21)
(0.0919075 0.0650405 4.31378e-21)
(0.165659 0.0294961 2.872e-21)
(0.353215 -0.225419 1.43894e-21)
(0.609685 -0.606848 0)
(0.8789 -0.977231 -2.65707e-21)
(1.11779 -1.25971 1.25386e-21)
(1.30241 -1.43225 0)
(1.43009 -1.50399 1.23156e-21)
(1.51228 -1.49929 0)
(1.56456 -1.44547 -2.0843e-21)
(1.60206 -1.36646 0)
(1.63674 -1.27905 -1.02066e-21)
(1.67638 -1.19263 -1.89889e-21)
(1.72495 -1.11072 1.74687e-21)
(1.78362 -1.03326 0)
(1.85165 -0.958331 1.42613e-21)
(1.92726 -0.883249 0)
(2.00795 -0.805302 0)
(2.09095 -0.722168 9.52648e-22)
(2.17341 -0.632135 0)
(2.25228 -0.534372 -2.2421e-22)
(2.32503 -0.428794 0)
(2.38866 -0.316335 0)
(2.44192 -0.198474 2.14887e-22)
(2.48278 -0.0772329 4.24422e-22)
(2.51181 0.0450739 2.25473e-22)
(2.53004 0.167225 4.60012e-22)
(2.5374 0.287312 0)
(2.53671 0.404146 1.0026e-21)
(2.53079 0.517203 0)
(2.52352 0.628472 6.13609e-22)
(2.51592 0.737629 0)
(2.50974 0.845966 0)
(2.50449 0.951146 -9.2775e-22)
(2.49793 1.04714 0)
(2.48891 1.13043 1.10505e-21)
(2.47423 1.18565 5.63454e-23)
(2.45163 1.2022 -2.48745e-21)
(2.40613 1.18377 2.5614e-21)
(2.3377 1.11236 0)
(2.23874 0.96608 0)
(2.10999 0.757522 1.52084e-21)
(1.98589 0.51602 0)
(1.85674 0.255701 1.16052e-21)
(1.76066 -0.0513198 -1.17537e-21)
(1.68397 -0.290968 -1.21677e-21)
(1.63362 -0.399483 0)
(1.67088 -0.571111 1.28412e-21)
(1.78758 -0.731277 1.31254e-21)
(1.87983 -0.62574 -2.47182e-21)
(1.82138 -0.542756 1.37768e-21)
(1.67063 -0.438102 1.40712e-21)
(1.19691 0.114996 0)
(0.221397 0.874067 0)
(-0.718288 1.4394 -1.51615e-21)
(-1.47524 1.83064 0)
(-2.0544 2.06997 0)
(-2.48658 2.18721 2.47645e-21)
(-2.78956 2.20099 2.18237e-21)
(-2.99983 2.13888 0)
(-3.15172 2.02198 0)
(-3.28152 1.87203 0)
(-3.41142 1.71298 0)
(-3.54995 1.55828 -8.63014e-23)
(-3.69939 1.4145 1.52007e-21)
(-3.85691 1.28268 1.4239e-21)
(-4.0179 1.16079 4.93701e-21)
(-4.17708 1.04603 0)
(-4.32992 0.936155 5.45741e-22)
(-4.47332 0.83001 0)
(-4.60581 0.727208 -4.90573e-21)
(-4.72697 0.627284 4.26257e-22)
(-4.8363 0.52907 -6.07548e-21)
(-4.93233 0.430817 6.5692e-21)
(-5.01234 0.330876 3.9673e-22)
(-5.07283 0.228325 0)
(-5.11028 0.123518 7.93867e-21)
(-5.12203 0.018117 7.66299e-21)
(-5.10704 -0.0850962 1.57299e-20)
(-5.06579 -0.182629 0)
(-5.00026 -0.272107 -7.72925e-21)
(-4.91318 -0.351555 0)
(-4.80768 -0.420133 1.37884e-20)
(-4.68675 -0.477608 -6.32916e-21)
(-4.5531 -0.52444 5.86008e-21)
(-4.40904 -0.561378 -5.35326e-21)
(-4.25651 -0.589396 -1.00286e-20)
(-4.09721 -0.609515 4.26811e-21)
(-3.93261 -0.622834 -3.70706e-21)
(-3.76399 -0.630492 0)