/*--------------------------------*- C++ -*----------------------------------*\
  =========                 |
  \\      /  F ield         | OpenFOAM: The Open Source CFD Toolbox
   \\    /   O peration     | Website:  https://openfoam.org
    \\  /    A nd           | Version:  7
     \\/     M anipulation  |
\*---------------------------------------------------------------------------*/
FoamFile
{
    version     2.0;
    format      ascii;
    class       volSymmTensorField;
    location    "0.074";
    object      UPrime2Mean;
}
// * * * * * * * * * * * * * * * * * * * * * * * * * * * * * * * * * * * * * //

dimensions      [0 2 -2 0 0 0 0];

internalField   nonuniform List<symmTensor> 
12225
(
(0.0044364 -0.000139381 0 0.000498218 0 0)
(0.0279171 -0.00121684 0 0.000227242 0 0)
(0.0404405 -0.00178947 0 0.000201987 0 0)
(0.0539615 -0.00219989 0 0.00018883 0 0)
(0.0772888 -0.00274896 0 0.000183007 0 0)
(0.111863 -0.00345328 0 0.000182137 0 0)
(0.157875 -0.00430339 0 0.000192677 0 0)
(0.21558 -0.0049604 0 0.000178431 0 0)
(0.285012 -0.00599618 0 0.000192346 0 0)
(0.365462 -0.00577029 0 0.000147373 0 0)
(0.45851 -0.00771866 0 0.000177071 0 0)
(0.557371 -0.00499951 0 0.000100413 0 0)
(0.677341 -0.0117113 0 0.000258413 0 0)
(0.793184 -0.00120807 0 0.000181189 0 0)
(0.966536 -0.0275115 0 0.00124137 0 0)
(1.13559 0.0126538 0 0.00147646 0 0)
(1.46755 -0.104617 0 0.0141274 0 0)
(1.99282 0.0390443 0 0.00689635 0 0)
(0.00423052 3.87959e-05 0 0.000668226 0 0)
(0.0189106 -0.000573749 0 0.000233317 0 0)
(0.0205947 -0.000954073 0 0.000274386 0 0)
(0.0211322 -0.00119344 0 0.00036513 0 0)
(0.0249423 -0.00168382 0 0.000478666 0 0)
(0.0318196 -0.00257859 0 0.000626367 0 0)
(0.0423024 -0.00383821 0 0.000779207 0 0)
(0.0580547 -0.00562634 0 0.000992292 0 0)
(0.07946 -0.00753446 0 0.00111698 0 0)
(0.11043 -0.0104206 0 0.00138426 0 0)
(0.148623 -0.0125163 0 0.00138522 0 0)
(0.203233 -0.0173321 0 0.00179371 0 0)
(0.263986 -0.0187717 0 0.00162201 0 0)
(0.356514 -0.0291427 0 0.00266206 0 0)
(0.449798 -0.0294851 0 0.0023841 0 0)
(0.62233 -0.0599519 0 0.0067296 0 0)
(0.779637 -0.0723543 0 0.00750989 0 0)
(1.13517 -0.205365 0 0.0483574 0 0)
(0.00409928 0.000129823 0 0.000863817 0 0)
(0.0185588 -0.000871767 0 0.00042939 0 0)
(0.0195047 -0.00137001 0 0.000492132 0 0)
(0.0188837 -0.00151337 0 0.000625957 0 0)
(0.0203717 -0.00177593 0 0.000798343 0 0)
(0.0228389 -0.00229083 0 0.0010152 0 0)
(0.0261399 -0.00307744 0 0.0013299 0 0)
(0.0304739 -0.00406672 0 0.0016275 0 0)
(0.0363646 -0.00548079 0 0.00208609 0 0)
(0.0442395 -0.00696516 0 0.00238008 0 0)
(0.0555153 -0.00953583 0 0.00300579 0 0)
(0.0705658 -0.0116494 0 0.00319086 0 0)
(0.0925911 -0.0169478 0 0.00436255 0 0)
(0.121848 -0.0202103 0 0.00447244 0 0)
(0.165698 -0.0341304 0 0.00811218 0 0)
(0.224978 -0.04315 0 0.00915632 0 0)
(0.310193 -0.0886905 0 0.0269341 0 0)
(0.419854 -0.148516 0 0.0559513 0 0)
(0.00392004 -0.000239264 0 0.000973291 0 0)
(0.0183527 -0.00115225 0 0.000504663 0 0)
(0.019218 -0.00156084 0 0.000559349 0 0)
(0.0185248 -0.0017107 0 0.000739234 0 0)
(0.0197639 -0.00197509 0 0.000951575 0 0)
(0.0217761 -0.00248901 0 0.00122486 0 0)
(0.024311 -0.00321763 0 0.00155728 0 0)
(0.0274747 -0.00415826 0 0.00200346 0 0)
(0.0313565 -0.00525059 0 0.0024617 0 0)
(0.0364646 -0.00673795 0 0.00308657 0 0)
(0.0431073 -0.00849456 0 0.00366873 0 0)
(0.0524524 -0.0112865 0 0.00461969 0 0)
(0.0650268 -0.0147376 0 0.00558361 0 0)
(0.0833247 -0.0210328 0 0.00764011 0 0)
(0.108346 -0.0298922 0 0.0105131 0 0)
(0.143705 -0.0470651 0 0.0176326 0 0)
(0.189527 -0.0770268 0 0.0331335 0 0)
(0.236071 -0.124448 0 0.0676786 0 0)
(0.00446731 -0.000230958 0 0.00114523 0 0)
(0.018115 -0.00133155 0 0.000653127 0 0)
(0.0186975 -0.00174529 0 0.000702194 0 0)
(0.0180237 -0.00190694 0 0.000923674 0 0)
(0.0193005 -0.0021925 0 0.00119094 0 0)
(0.0212477 -0.00273931 0 0.00150911 0 0)
(0.0236178 -0.00353733 0 0.00193748 0 0)
(0.0265044 -0.0045378 0 0.00243614 0 0)
(0.0300703 -0.00580935 0 0.00309553 0 0)
(0.0346178 -0.00733512 0 0.00380093 0 0)
(0.0405888 -0.00951169 0 0.00478085 0 0)
(0.0485632 -0.0123057 0 0.00588958 0 0)
(0.0593444 -0.0167301 0 0.00773007 0 0)
(0.0740153 -0.0229074 0 0.0102356 0 0)
(0.0936872 -0.0333757 0 0.0151604 0 0)
(0.118941 -0.049644 0 0.0239907 0 0)
(0.148227 -0.0758898 0 0.041861 0 0)
(0.172319 -0.115397 0 0.0814638 0 0)
(0.00435869 -0.000318779 0 0.00119835 0 0)
(0.0181419 -0.00154464 0 0.000780858 0 0)
(0.0184243 -0.00189184 0 0.000867793 0 0)
(0.0175854 -0.00200213 0 0.00116583 0 0)
(0.0187042 -0.00228706 0 0.0015155 0 0)
(0.0204381 -0.00285637 0 0.00192161 0 0)
(0.0225593 -0.00368164 0 0.00241946 0 0)
(0.025176 -0.00474901 0 0.00304952 0 0)
(0.0284278 -0.00609297 0 0.00381627 0 0)
(0.0325584 -0.00783334 0 0.00477304 0 0)
(0.0379453 -0.0101708 0 0.00597293 0 0)
(0.0450051 -0.0134374 0 0.00760013 0 0)
(0.0543861 -0.0181364 0 0.00992945 0 0)
(0.0665572 -0.0250479 0 0.0135483 0 0)
(0.082223 -0.0355709 0 0.0196637 0 0)
(0.100412 -0.0511574 0 0.0303783 0 0)
(0.119627 -0.0741291 0 0.050182 0 0)
(0.132787 -0.103302 0 0.0848571 0 0)
(0.00365129 -0.000325794 0 0.00142895 0 0)
(0.0173987 -0.00172488 0 0.00105875 0 0)
(0.0176543 -0.00207114 0 0.00110458 0 0)
(0.0168264 -0.00220916 0 0.00141578 0 0)
(0.0179369 -0.00253381 0 0.00182163 0 0)
(0.0196101 -0.00315798 0 0.00229587 0 0)
(0.0216101 -0.0040597 0 0.00288661 0 0)
(0.0240326 -0.00521715 0 0.00362702 0 0)
(0.0270088 -0.00668178 0 0.00456784 0 0)
(0.0307494 -0.00856473 0 0.00575068 0 0)
(0.0355594 -0.0111046 0 0.00728065 0 0)
(0.041733 -0.0146136 0 0.00936233 0 0)
(0.0496687 -0.0195743 0 0.0123445 0 0)
(0.0595125 -0.0266777 0 0.0169354 0 0)
(0.0714153 -0.0368214 0 0.0241929 0 0)
(0.0841099 -0.0510754 0 0.0363874 0 0)
(0.0961528 -0.0698117 0 0.0560233 0 0)
(0.102538 -0.0916085 0 0.0875884 0 0)
(0.00373299 -0.000300885 0 0.00133288 0 0)
(0.0171562 -0.00186409 0 0.00108183 0 0)
(0.0173617 -0.00214856 0 0.00125629 0 0)
(0.0164811 -0.00222626 0 0.00164506 0 0)
(0.0174979 -0.00256569 0 0.00213604 0 0)
(0.0190259 -0.00322678 0 0.00271088 0 0)
(0.0208074 -0.00415792 0 0.00341426 0 0)
(0.0229284 -0.00535595 0 0.00430452 0 0)
(0.0255176 -0.00688891 0 0.0054365 0 0)
(0.028756 -0.00888407 0 0.0068846 0 0)
(0.0328699 -0.011557 0 0.00877398 0 0)
(0.0380278 -0.0151925 0 0.0113499 0 0)
(0.0444221 -0.020199 0 0.0150005 0 0)
(0.0519823 -0.0270881 0 0.0204387 0 0)
(0.0605413 -0.0364518 0 0.0286803 0 0)
(0.0689038 -0.0487117 0 0.0415124 0 0)
(0.0758507 -0.063625 0 0.0607023 0 0)
(0.07826 -0.0795916 0 0.088938 0 0)
(0.00439269 -0.000538881 0 0.00146856 0 0)
(0.0173585 -0.00230509 0 0.00130678 0 0)
(0.0171472 -0.00254329 0 0.00151559 0 0)
(0.0162509 -0.00256354 0 0.00195013 0 0)
(0.0173007 -0.00290528 0 0.00252662 0 0)
(0.0187189 -0.00360354 0 0.00321314 0 0)
(0.0202731 -0.00458183 0 0.00404758 0 0)
(0.0221077 -0.0058275 0 0.0050965 0 0)
(0.0243448 -0.00740783 0 0.00643202 0 0)
(0.0271048 -0.00944872 0 0.00815408 0 0)
(0.0305223 -0.012146 0 0.0104058 0 0)
(0.0346736 -0.0157529 0 0.0134668 0 0)
(0.0396104 -0.0205796 0 0.0177235 0 0)
(0.0451359 -0.0269713 0 0.0238709 0 0)
(0.0509477 -0.0352165 0 0.0327549 0 0)
(0.0560261 -0.045347 0 0.0457731 0 0)
(0.0595416 -0.0568275 0 0.064007 0 0)
(0.059568 -0.0681731 0 0.0889382 0 0)
(0.00394525 -0.000441659 0 0.00162996 0 0)
(0.0171959 -0.00229761 0 0.00142074 0 0)
(0.0170693 -0.00253428 0 0.00166732 0 0)
(0.0161364 -0.00250726 0 0.00215143 0 0)
(0.0170389 -0.00281573 0 0.00278986 0 0)
(0.0182643 -0.0035046 0 0.00356329 0 0)
(0.0195964 -0.00448653 0 0.00451158 0 0)
(0.0211512 -0.00573861 0 0.0057089 0 0)
(0.0230168 -0.00732145 0 0.00724346 0 0)
(0.0252727 -0.00935092 0 0.00923362 0 0)
(0.0279956 -0.0119914 0 0.0118363 0 0)
(0.0311863 -0.0154365 0 0.0153336 0 0)
(0.0347975 -0.0199005 0 0.0200995 0 0)
(0.0385695 -0.0255657 0 0.0267543 0 0)
(0.0421792 -0.0325086 0 0.0359675 0 0)
(0.0448323 -0.0405287 0 0.0487684 0 0)
(0.0460653 -0.0490227 0 0.0657274 0 0)
(0.0446905 -0.0567727 0 0.0877032 0 0)
(0.00403575 -0.000520642 0 0.0018933 0 0)
(0.017116 -0.00267823 0 0.00173801 0 0)
(0.0165903 -0.00295277 0 0.00200127 0 0)
(0.0153827 -0.00284018 0 0.00254148 0 0)
(0.0161217 -0.00309566 0 0.00326792 0 0)
(0.0172234 -0.00376561 0 0.00416395 0 0)
(0.0184141 -0.00472271 0 0.00526052 0 0)
(0.0197616 -0.0059229 0 0.00663042 0 0)
(0.021317 -0.00741863 0 0.008366 0 0)
(0.0231252 -0.00931822 0 0.0106069 0 0)
(0.0252228 -0.0117616 0 0.0135244 0 0)
(0.0275695 -0.0148845 0 0.0173908 0 0)
(0.0300747 -0.0188108 0 0.0225387 0 0)
(0.032477 -0.0235904 0 0.0294887 0 0)
(0.0345092 -0.0291676 0 0.038734 0 0)
(0.0355936 -0.0352285 0 0.0509981 0 0)
(0.035548 -0.0412352 0 0.0665111 0 0)
(0.033626 -0.0462292 0 0.0857709 0 0)
(0.00392061 -0.000571555 0 0.00192529 0 0)
(0.0169602 -0.00277121 0 0.00182786 0 0)
(0.0164492 -0.00307162 0 0.00212006 0 0)
(0.015184 -0.00293353 0 0.00270562 0 0)
(0.0158092 -0.00316913 0 0.00350305 0 0)
(0.0167462 -0.00382866 0 0.0045016 0 0)
(0.0177306 -0.00476299 0 0.00572549 0 0)
(0.0188288 -0.00591343 0 0.00724225 0 0)
(0.0200707 -0.00732793 0 0.00915816 0 0)
(0.0214692 -0.00910107 0 0.0116173 0 0)
(0.0230205 -0.0113399 0 0.0147879 0 0)
(0.0246494 -0.0141239 0 0.0189242 0 0)
(0.0262471 -0.0175041 0 0.0243105 0 0)
(0.0275961 -0.0214425 0 0.031374 0 0)
(0.0285058 -0.0258111 0 0.0404559 0 0)
(0.0285979 -0.0302692 0 0.0520655 0 0)
(0.0278511 -0.0343739 0 0.0662215 0 0)
(0.0257812 -0.0373826 0 0.0832537 0 0)
(0.00375886 -0.000656959 0 0.00217349 0 0)
(0.0168673 -0.00285871 0 0.0021391 0 0)
(0.0162056 -0.00309027 0 0.00240986 0 0)
(0.0148323 -0.00286468 0 0.00302775 0 0)
(0.0153512 -0.00304016 0 0.00388141 0 0)
(0.0161531 -0.00365639 0 0.00496567 0 0)
(0.0169569 -0.00454108 0 0.00630595 0 0)
(0.0178186 -0.00561413 0 0.0079649 0 0)
(0.0187544 -0.0069046 0 0.0100435 0 0)
(0.0197609 -0.00848724 0 0.0126803 0 0)
(0.0208154 -0.0104391 0 0.016036 0 0)
(0.0218418 -0.0128 0 0.0203378 0 0)
(0.0227298 -0.0155674 0 0.0258182 0 0)
(0.0233042 -0.018656 0 0.0328178 0 0)
(0.0234276 -0.021902 0 0.041556 0 0)
(0.0228698 -0.0249936 0 0.0523948 0 0)
(0.0216931 -0.0275601 0 0.0652267 0 0)
(0.0196005 -0.0290684 0 0.0802941 0 0)
(0.00383128 -0.000721738 0 0.00263756 0 0)
(0.0167633 -0.00302559 0 0.00260784 0 0)
(0.015984 -0.00316823 0 0.00287581 0 0)
(0.0145203 -0.0028369 0 0.00352714 0 0)
(0.0148825 -0.00290491 0 0.00444613 0 0)
(0.0154614 -0.00340851 0 0.00561377 0 0)
(0.0159812 -0.00415937 0 0.0070545 0 0)
(0.0164921 -0.00505557 0 0.00883597 0 0)
(0.0170068 -0.00610309 0 0.0110529 0 0)
(0.0175286 -0.00735506 0 0.0138362 0 0)
(0.0180473 -0.00886756 0 0.0173279 0 0)
(0.0184993 -0.010646 0 0.0217201 0 0)
(0.0187883 -0.0126473 0 0.0271861 0 0)
(0.0187792 -0.0147438 0 0.0339773 0 0)
(0.018386 -0.0167695 0 0.0422042 0 0)
(0.0174875 -0.0184426 0 0.052108 0 0)
(0.016207 -0.0195102 0 0.0634907 0 0)
(0.0143488 -0.019572 0 0.0765501 0 0)
(0.00403717 -0.000454503 0 0.00266861 0 0)
(0.0167508 -0.00323657 0 0.00288225 0 0)
(0.0158386 -0.00345986 0 0.00323149 0 0)
(0.0142718 -0.00310763 0 0.00396298 0 0)
(0.0145384 -0.00313148 0 0.00495784 0 0)
(0.0149864 -0.00356092 0 0.00620783 0 0)
(0.0153268 -0.00419555 0 0.00774984 0 0)
(0.0156035 -0.00492715 0 0.00964346 0 0)
(0.0158305 -0.0057545 0 0.0119696 0 0)
(0.0160145 -0.00671166 0 0.0148398 0 0)
(0.016141 -0.00781737 0 0.0183688 0 0)
(0.0161536 -0.00903348 0 0.0227051 0 0)
(0.0159778 -0.0102859 0 0.027961 0 0)
(0.0155382 -0.0114344 0 0.0343075 0 0)
(0.0148173 -0.0123421 0 0.0417653 0 0)
(0.0137817 -0.0127832 0 0.0504954 0 0)
(0.0125904 -0.0126164 0 0.0602543 0 0)
(0.0111058 -0.011546 0 0.071229 0 0)
(0.00424441 -0.000500017 0 0.00290781 0 0)
(0.016712 -0.00332711 0 0.00282397 0 0)
(0.0155207 -0.00352845 0 0.00314371 0 0)
(0.0137329 -0.00308038 0 0.00393907 0 0)
(0.0137644 -0.00300016 0 0.00500654 0 0)
(0.0139523 -0.00332373 0 0.00633109 0 0)
(0.01407 -0.00381851 0 0.00794043 0 0)
(0.0141718 -0.00434126 0 0.00988836 0 0)
(0.0142195 -0.00486568 0 0.0122466 0 0)
(0.0141664 -0.0054078 0 0.0151056 0 0)
(0.0139932 -0.00597385 0 0.0185476 0 0)
(0.0136846 -0.00651743 0 0.0226761 0 0)
(0.0132313 -0.00696794 0 0.0275474 0 0)
(0.0126316 -0.00719809 0 0.0332663 0 0)
(0.0119147 -0.00711141 0 0.0397944 0 0)
(0.0111022 -0.00653067 0 0.0472384 0 0)
(0.0103329 -0.00540683 0 0.0553548 0 0)
(0.00950333 -0.00351156 0 0.0643309 0 0)
(0.00410799 -0.000460076 0 0.00294935 0 0)
(0.0169124 -0.00343741 0 0.00294218 0 0)
(0.01556 -0.00374597 0 0.00335971 0 0)
(0.0136017 -0.00326433 0 0.00421015 0 0)
(0.0135051 -0.00309836 0 0.00529566 0 0)
(0.0135437 -0.00331208 0 0.00662986 0 0)
(0.0134723 -0.00365018 0 0.00823343 0 0)
(0.0133627 -0.00394268 0 0.0101385 0 0)
(0.0132012 -0.00414834 0 0.0123968 0 0)
(0.0129611 -0.00428148 0 0.0150744 0 0)
(0.0126347 -0.00435159 0 0.0182236 0 0)
(0.0122247 -0.00431655 0 0.0219108 0 0)
(0.0117407 -0.0041119 0 0.0261504 0 0)
(0.0112108 -0.00362896 0 0.0309996 0 0)
(0.0106726 -0.0028001 0 0.0363849 0 0)
(0.0101775 -0.0015007 0 0.0423842 0 0)
(0.00982996 0.000266504 0 0.0487634 0 0)
(0.0095812 0.00266455 0 0.0557197 0 0)
(0.00406203 -0.000444797 0 0.00304656 0 0)
(0.0168298 -0.00349686 0 0.00320719 0 0)
(0.0154386 -0.00379616 0 0.00342453 0 0)
(0.0133543 -0.00334019 0 0.00410575 0 0)
(0.0130364 -0.00314886 0 0.0050866 0 0)
(0.012782 -0.00322103 0 0.00630941 0 0)
(0.0124219 -0.00332332 0 0.00776192 0 0)
(0.0120844 -0.00332295 0 0.0094591 0 0)
(0.0117769 -0.00319014 0 0.0114338 0 0)
(0.0114752 -0.0029286 0 0.0137324 0 0)
(0.0111662 -0.00253215 0 0.0163847 0 0)
(0.0108523 -0.00196185 0 0.0194228 0 0)
(0.0105468 -0.00116814 0 0.0228353 0 0)
(0.0102949 -8.20909e-05 0 0.0266501 0 0)
(0.0101421 0.00133284 0 0.0307938 0 0)
(0.0101545 0.00314332 0 0.0353309 0 0)
(0.0104077 0.00532981 0 0.0400732 0 0)
(0.0108798 0.00798391 0 0.0451888 0 0)
(0.00405902 -0.000297478 0 0.00303617 0 0)
(0.016997 -0.00317499 0 0.0030894 0 0)
(0.0151919 -0.00335858 0 0.00312462 0 0)
(0.0128277 -0.00269976 0 0.00367967 0 0)
(0.0123767 -0.00222618 0 0.00450037 0 0)
(0.0120038 -0.00201188 0 0.00550737 0 0)
(0.011569 -0.00184884 0 0.00669834 0 0)
(0.011231 -0.00158079 0 0.00808067 0 0)
(0.0109972 -0.00114271 0 0.00966157 0 0)
(0.0108403 -0.000522634 0 0.0114515 0 0)
(0.0107545 0.000277567 0 0.0134509 0 0)
(0.0107559 0.00127234 0 0.0156729 0 0)
(0.010871 0.00248106 0 0.0181035 0 0)
(0.0111506 0.00393975 0 0.0207604 0 0)
(0.0116337 0.00565681 0 0.0235852 0 0)
(0.0123773 0.00767172 0 0.0266262 0 0)
(0.0134258 0.00995032 0 0.0297465 0 0)
(0.014771 0.0125583 0 0.0330731 0 0)
(0.00417575 -0.000520328 0 0.00345315 0 0)
(0.0163473 -0.00300139 0 0.0033205 0 0)
(0.0143558 -0.00292951 0 0.00319677 0 0)
(0.0120211 -0.00221793 0 0.00355596 0 0)
(0.0115061 -0.00170229 0 0.00413008 0 0)
(0.0111018 -0.00140386 0 0.00486405 0 0)
(0.0106843 -0.00113321 0 0.0057388 0 0)
(0.0103863 -0.000752591 0 0.00673876 0 0)
(0.0102184 -0.000198543 0 0.00786979 0 0)
(0.010174 0.000543897 0 0.00913993 0 0)
(0.0102661 0.00146854 0 0.0105436 0 0)
(0.0105226 0.00257507 0 0.0120844 0 0)
(0.0109731 0.00386622 0 0.0137513 0 0)
(0.01166 0.00535836 0 0.0155554 0 0)
(0.0126139 0.00704784 0 0.0174524 0 0)
(0.013872 0.00895505 0 0.0194746 0 0)
(0.0154606 0.0110481 0 0.0215309 0 0)
(0.0173694 0.01337 0 0.0237016 0 0)
(0.00431826 -0.000390464 0 0.00299696 0 0)
(0.0164993 -0.00262453 0 0.00270807 0 0)
(0.0144906 -0.00243483 0 0.00255343 0 0)
(0.0121921 -0.00166561 0 0.00279909 0 0)
(0.0116908 -0.00111235 0 0.00322212 0 0)
(0.0112692 -0.000766079 0 0.00376067 0 0)
(0.0108644 -0.000436633 0 0.00438626 0 0)
(0.0106431 3.9748e-06 0 0.00508035 0 0)
(0.0106121 0.000603984 0 0.00583835 0 0)
(0.0107509 0.00136672 0 0.00667046 0 0)
(0.0110703 0.00228086 0 0.00758343 0 0)
(0.0116032 0.00334149 0 0.0085838 0 0)
(0.0123828 0.00454607 0 0.00966076 0 0)
(0.0134447 0.00590434 0 0.0108201 0 0)
(0.014809 0.00741171 0 0.0120326 0 0)
(0.0165006 0.00908451 0 0.0133221 0 0)
(0.0185347 0.0108963 0 0.0146304 0 0)
(0.020901 0.0128833 0 0.0160127 0 0)
(0.00391822 -0.000312276 0 0.00290679 0 0)
(0.0163578 -0.00234693 0 0.00221753 0 0)
(0.0143349 -0.00227935 0 0.00198996 0 0)
(0.0119406 -0.00160019 0 0.00215972 0 0)
(0.0113711 -0.00105014 0 0.00248802 0 0)
(0.0109307 -0.000685646 0 0.00291091 0 0)
(0.0105354 -0.000360516 0 0.00339027 0 0)
(0.010334 5.0546e-05 0 0.00391905 0 0)
(0.0103421 0.000609563 0 0.00450246 0 0)
(0.0105592 0.0013276 0 0.00514356 0 0)
(0.011006 0.00218984 0 0.00583708 0 0)
(0.0117123 0.00318069 0 0.00658177 0 0)
(0.0127027 0.00428928 0 0.00736945 0 0)
(0.0140078 0.00551768 0 0.00820375 0 0)
(0.0156448 0.00686165 0 0.00906244 0 0)
(0.0176358 0.00833304 0 0.00996373 0 0)
(0.0199919 0.00990814 0 0.0108658 0 0)
(0.0227012 0.0116121 0 0.0118067 0 0)
(0.00415174 -0.00032596 0 0.00244358 0 0)
(0.0159733 -0.00203277 0 0.00198418 0 0)
(0.0138882 -0.00180431 0 0.00172705 0 0)
(0.0115414 -0.00111773 0 0.00173446 0 0)
(0.010992 -0.000599814 0 0.00187698 0 0)
(0.0105556 -0.000259128 0 0.00209263 0 0)
(0.0101869 3.96524e-05 0 0.00234 0 0)
(0.0100675 0.000402252 0 0.00260762 0 0)
(0.0102185 0.000880192 0 0.00290732 0 0)
(0.0106254 0.00148216 0 0.00325254 0 0)
(0.0112998 0.00219489 0 0.0036433 0 0)
(0.0122654 0.00300352 0 0.00407439 0 0)
(0.0135434 0.00390039 0 0.0045355 0 0)
(0.0151549 0.00488771 0 0.00502713 0 0)
(0.0171162 0.00596136 0 0.00553565 0 0)
(0.019436 0.00712722 0 0.00607493 0 0)
(0.0221302 0.00837107 0 0.00661973 0 0)
(0.0251658 0.00970598 0 0.00719198 0 0)
(0.00434586 -0.000569736 0 0.00213399 0 0)
(0.0158586 -0.00191393 0 0.00161071 0 0)
(0.0133864 -0.0014543 0 0.00141917 0 0)
(0.0110525 -0.000701595 0 0.00147313 0 0)
(0.0107335 -0.000164989 0 0.00161188 0 0)
(0.0105299 0.000182365 0 0.00178993 0 0)
(0.0103645 0.000492472 0 0.00198572 0 0)
(0.0104576 0.000871352 0 0.00219734 0 0)
(0.0108711 0.00136097 0 0.00242848 0 0)
(0.0116042 0.00195908 0 0.00268103 0 0)
(0.0126558 0.00264796 0 0.00295228 0 0)
(0.0140366 0.00341244 0 0.00324138 0 0)
(0.0157615 0.00424391 0 0.00354588 0 0)
(0.0178485 0.00514449 0 0.00386958 0 0)
(0.0203044 0.00610862 0 0.00420377 0 0)
(0.0231318 0.00714141 0 0.0045602 0 0)
(0.0263364 0.00822686 0 0.00492017 0 0)
(0.029889 0.00938247 0 0.00529277 0 0)
(0.00474306 -0.000434381 0 0.00199309 0 0)
(0.0160157 -0.00163943 0 0.00132509 0 0)
(0.0133531 -0.00126498 0 0.000989137 0 0)
(0.0109504 -0.000693982 0 0.000945505 0 0)
(0.0105612 -0.000293036 0 0.000985467 0 0)
(0.0102644 -4.4658e-05 0 0.00103059 0 0)
(0.0100404 0.000155956 0 0.00108188 0 0)
(0.0101473 0.000393752 0 0.00116186 0 0)
(0.0106264 0.000711294 0 0.00127415 0 0)
(0.0114407 0.0011116 0 0.00140857 0 0)
(0.0125798 0.00157897 0 0.00155438 0 0)
(0.0140619 0.00210206 0 0.00170865 0 0)
(0.0159149 0.00267583 0 0.00187201 0 0)
(0.0181574 0.00330101 0 0.00204827 0 0)
(0.0207933 0.00397438 0 0.00223295 0 0)
(0.0238106 0.00469759 0 0.00243169 0 0)
(0.0272105 0.0054589 0 0.0026336 0 0)
(0.030945 0.00627114 0 0.0028449 0 0)
(0.00438037 -0.000444649 0 0.00196762 0 0)
(0.0154696 -0.00129633 0 0.00112678 0 0)
(0.0125799 -0.00105654 0 0.000777541 0 0)
(0.0102817 -0.000547576 0 0.000781693 0 0)
(0.0100761 -0.000109052 0 0.000827316 0 0)
(0.00998582 0.000182353 0 0.000859061 0 0)
(0.0100506 0.000406746 0 0.000883213 0 0)
(0.0105236 0.000644618 0 0.000914876 0 0)
(0.011405 0.000937108 0 0.000961986 0 0)
(0.0126253 0.00129138 0 0.00102278 0 0)
(0.014171 0.0016972 0 0.00109289 0 0)
(0.0160758 0.00214518 0 0.00117116 0 0)
(0.0183766 0.00262987 0 0.00125781 0 0)
(0.0210912 0.00315086 0 0.0013551 0 0)
(0.0242196 0.00370444 0 0.00146024 0 0)
(0.0277445 0.00429354 0 0.00157764 0 0)
(0.03167 0.00490881 0 0.00170107 0 0)
(0.0359466 0.00556279 0 0.00183436 0 0)
(0.00369989 -0.000429126 0 0.00151674 0 0)
(0.0147249 -0.000698031 0 0.000681497 0 0)
(0.0119185 -0.000444351 0 0.000381992 0 0)
(0.00985381 -0.000175148 0 0.000349142 0 0)
(0.00982633 4.20031e-05 0 0.000340336 0 0)
(0.00990293 0.000160765 0 0.000337512 0 0)
(0.0101396 0.000240414 0 0.000350757 0 0)
(0.0107861 0.000339883 0 0.00037464 0 0)
(0.0118535 0.000481291 0 0.000402482 0 0)
(0.0132942 0.000661975 0 0.000431905 0 0)
(0.0151131 0.000873908 0 0.000463821 0 0)
(0.017345 0.00111094 0 0.000500085 0 0)
(0.0200144 0.00137001 0 0.000541603 0 0)
(0.0231189 0.00165128 0 0.000589908 0 0)
(0.0266423 0.00195285 0 0.000644191 0 0)
(0.0305545 0.00227737 0 0.000706821 0 0)
(0.0348579 0.00261755 0 0.000774873 0 0)
(0.0394995 0.00298295 0 0.00084939 0 0)
(0.00449832 -0.000420536 0 0.00115159 0 0)
(0.014614 -0.000859231 0 0.000494442 0 0)
(0.0114361 -0.00063753 0 0.000362825 0 0)
(0.00964079 -0.000274373 0 0.000337194 0 0)
(0.00982665 -2.36836e-05 0 0.000294229 0 0)
(0.0100719 0.000114662 0 0.000253172 0 0)
(0.0106029 0.000220285 0 0.000232034 0 0)
(0.0116824 0.000328064 0 0.000225131 0 0)
(0.0132591 0.000439043 0 0.000225386 0 0)
(0.0152339 0.000554321 0 0.0002299 0 0)
(0.0175873 0.000680813 0 0.000238722 0 0)
(0.0203506 0.000825051 0 0.000252869 0 0)
(0.0235479 0.000990251 0 0.00027315 0 0)
(0.0271823 0.0011761 0 0.000300004 0 0)
(0.0312339 0.00137877 0 0.000333003 0 0)
(0.0356838 0.00159469 0 0.000373641 0 0)
(0.0405262 0.0018179 0 0.000420829 0 0)
(0.0457229 0.00205188 0 0.000473857 0 0)
(0.00359908 -0.000145872 0 0.000865984 0 0)
(0.0135192 6.29726e-05 0 0.000217776 0 0)
(0.0104263 -2.49754e-05 0 0.000140345 0 0)
(0.00890307 1.13727e-05 0 0.000129875 0 0)
(0.00934727 6.4107e-07 0 0.000131551 0 0)
(0.00984139 -4.91151e-05 0 0.000135884 0 0)
(0.0105833 -0.00010784 0 0.000140527 0 0)
(0.0117958 -0.000162969 0 0.000145774 0 0)
(0.0133986 -0.000211054 0 0.000152888 0 0)
(0.0152792 -0.00024947 0 0.000162138 0 0)
(0.0174017 -0.000274218 0 0.000173001 0 0)
(0.0197959 -0.000282308 0 0.00018521 0 0)
(0.0224771 -0.000271237 0 0.000198928 0 0)
(0.0254779 -0.00023945 0 0.000214761 0 0)
(0.0287697 -0.00018588 0 0.000232599 0 0)
(0.0323951 -0.000111037 0 0.000253748 0 0)
(0.0362989 -1.56992e-05 0 0.00027825 0 0)
(0.04057 0.0001018 0 0.000305063 0 0)
(0.00393182 -0.000289915 0 0.000722266 0 0)
(0.0145007 -3.21121e-05 0 0.000216113 0 0)
(0.0126567 2.35688e-05 0 0.000130661 0 0)
(0.0120013 9.53954e-05 0 9.53842e-05 0 0)
(0.01303 0.000115699 0 7.56894e-05 0 0)
(0.0140046 0.000129264 0 6.33306e-05 0 0)
(0.0149813 0.000149076 0 5.50344e-05 0 0)
(0.0161973 0.00017067 0 4.98488e-05 0 0)
(0.0177335 0.000189481 0 4.69808e-05 0 0)
(0.0196074 0.000207036 0 4.59695e-05 0 0)
(0.0218296 0.00022883 0 4.65201e-05 0 0)
(0.0244185 0.000260206 0 4.83468e-05 0 0)
(0.0274127 0.000304797 0 5.10937e-05 0 0)
(0.0308664 0.000363574 0 5.44686e-05 0 0)
(0.0348529 0.000435039 0 5.84835e-05 0 0)
(0.039396 0.000516892 0 6.34355e-05 0 0)
(0.0445748 0.000607073 0 6.88161e-05 0 0)
(0.0503241 0.000707722 0 7.40032e-05 0 0)
(0.00248135 -0.00643719 1.30079e-22 0.0168692 -2.77306e-22 1.26832e-37)
(0.0277298 -0.0231632 -3.65407e-22 0.0196847 2.33144e-22 1.25057e-37)
(0.0739739 -0.0320051 0 0.0147554 0 0)
(0.123851 -0.0315786 0 0.00989221 0 0)
(0.164197 -0.0246461 0 0.00684735 0 0)
(0.191908 -0.0172459 8.50992e-22 0.00652256 -5.75948e-23 1.17794e-37)
(0.214497 -0.0136687 0 0.00801588 0 0)
(0.238514 -0.0148693 0 0.0102162 0 0)
(0.273324 -0.0210829 0 0.0121392 0 0)
(0.32627 -0.0305915 0 0.0134113 0 0)
(0.40183 -0.0419071 -9.76346e-22 0.0136961 2.16102e-23 1.09109e-37)
(0.501759 -0.0529244 0 0.0132789 0 0)
(0.624549 -0.0622059 0 0.012292 0 0)
(0.765927 -0.0687959 0 0.0109301 0 0)
(0.920147 -0.072073 0 0.00938865 0 0)
(1.08038 -0.0717409 -1.15628e-21 0.00783691 7.64756e-23 1.00849e-37)
(1.23921 -0.0678196 0 0.00642102 0 0)
(1.38966 -0.060609 0 0.00527119 0 0)
(1.52552 -0.050645 0 0.00450051 0 0)
(1.64044 -0.0387635 0 0.00419727 0 0)
(1.73129 -0.0260438 0 0.00439621 0 0)
(1.79657 -0.01365 0 0.00504951 0 0)
(1.83735 -0.00261479 0 0.00602381 0 0)
(1.85657 0.00634123 -2.34881e-21 0.00712058 2.33892e-22 8.8508e-38)
(1.85819 0.0129412 2.59447e-21 0.00814507 -2.44697e-22 8.70406e-38)
(1.84596 0.017179 -2.85254e-21 0.0090147 2.50133e-22 8.55899e-38)
(1.8234 0.0193943 -3.11782e-21 0.00995875 2.51024e-22 8.41559e-38)
(1.79389 0.0195388 0 0.0115399 0 0)
(1.76002 0.0169819 0 0.0152988 0 0)
(1.72667 0.00966489 3.89839e-21 0.022091 -2.11205e-22 7.99537e-38)
(1.70162 -0.00505695 4.13157e-21 0.0326552 -1.77776e-22 7.85862e-38)
(1.69618 -0.0277919 0 0.0441597 0 0)
(1.71517 -0.0531299 0 0.0520549 0 0)
(1.75467 -0.0760929 4.75086e-21 0.054155 -1.23977e-22 7.45827e-38)
(1.82113 -0.0942016 0 0.052075 0 0)
(1.91887 -0.115102 0 0.0513438 0 0)
(2.06248 -0.148217 -5.3387e-21 0.0501305 1.23193e-22 7.07276e-38)
(2.25009 -0.172688 0 0.0511397 0 0)
(2.46959 -0.171218 -5.70093e-21 0.0510577 1.24879e-22 6.82394e-38)
(2.70851 -0.165626 -1.1763e-20 0.0533901 2.85336e-22 2.68079e-37)
(2.96364 -0.170714 0 0.0498421 0 0)
(3.23214 -0.166149 0 0.044721 0 0)
(3.5028 -0.155041 0 0.0427305 0 0)
(3.77345 -0.155073 0 0.0410558 0 0)
(4.04521 -0.159418 0 0.0376779 0 0)
(4.318 -0.150249 -1.3774e-20 0.03693 2.69974e-22 2.40166e-37)
(4.58162 -0.143949 -1.40443e-20 0.0372857 2.55821e-22 2.35737e-37)
(4.84047 -0.143021 -1.42825e-20 0.0329534 2.28299e-22 2.31371e-37)
(5.08332 -0.132897 0 0.0298179 0 0)
(5.29122 -0.117154 1.46637e-20 0.027652 -1.97296e-22 2.22826e-37)
(5.45764 -0.1009 0 0.0258499 0 0)
(5.57858 -0.0874226 -1.49394e-20 0.0249167 1.66986e-22 2.14528e-37)
(5.66094 -0.0784999 -1.50352e-20 0.0252222 1.51863e-22 2.1047e-37)
(5.72119 -0.0743118 0 0.0260877 0 0)
(5.77387 -0.0721225 0 0.0263599 0 0)
(5.81862 -0.0685412 0 0.0258043 0 0)
(5.84748 -0.0633158 -1.51271e-20 0.0246515 9.72708e-23 1.94836e-37)
(5.85552 -0.0553032 0 0.0229915 0 0)
(5.84486 -0.0402402 0 0.0204312 0 0)
(5.82237 -0.0209754 0 0.0177732 0 0)
(5.79954 -0.00986419 0 0.0177759 0 0)
(5.80038 -0.0151023 0 0.0187584 0 0)
(5.84398 -0.0284897 0 0.0174984 0 0)
(5.92688 -0.040705 0 0.0151279 0 0)
(6.03928 -0.0493455 0 0.0126741 0 0)
(6.17141 -0.0544819 1.45464e-20 0.0105045 -5.39882e-23 1.63017e-37)
(6.31488 -0.0567521 0 0.00869707 0 0)
(6.463 -0.0568405 0 0.00722598 0 0)
(6.61045 -0.0552952 -1.42392e-20 0.00603437 3.41929e-23 1.53389e-37)
(6.75301 -0.0524957 -1.41212e-20 0.00506333 2.79155e-23 1.50283e-37)
(6.88722 -0.048683 0 0.00426335 0 0)
(7.00995 -0.0439865 1.38533e-20 0.00359551 -1.54569e-23 1.44224e-37)
(7.11827 -0.0384668 -1.37001e-20 0.00303042 9.09703e-24 1.4127e-37)
(7.20923 -0.0321506 0 0.0025469 0 0)
(7.27984 -0.025054 1.33473e-20 0.00213064 4.30196e-24 1.35507e-37)
(7.32706 -0.0172163 0 0.00177437 0 0)
(7.34795 -0.00874988 0 0.00147737 0 0)
(7.3399 0.000150341 -1.26756e-20 0.00124191 -2.60556e-23 1.2722e-37)
(7.30095 0.00919834 0 0.00107003 0 0)
(7.23043 0.0181038 1.21199e-20 0.000958174 3.99229e-23 1.21926e-37)
(7.12882 0.0266494 0 0.000897539 0 0)
(6.99722 0.0346912 -1.14839e-20 0.000876815 -5.14018e-23 1.16812e-37)
(6.83653 0.0421228 -1.1141e-20 0.000884707 -5.59881e-23 1.1432e-37)
(6.6489 0.0488529 -1.07856e-20 0.000911842 -5.97279e-23 1.11872e-37)
(6.43636 0.0548433 -2.08413e-20 0.000951477 -1.2525e-22 4.37864e-37)
(6.20137 0.0600786 2.00992e-20 0.000999752 1.29404e-22 4.28408e-37)
(5.94623 0.0645695 0 0.00105514 0 0)
(5.67342 0.068319 0 0.00111691 0 0)
(5.38544 0.0713261 0 0.00118459 0 0)
(5.08498 0.0735663 1.71306e-20 0.00125698 1.32056e-22 3.92212e-37)
(4.77495 0.0750051 1.64156e-20 0.00133139 1.29747e-22 3.83558e-37)
(4.45852 0.0756001 -1.57212e-20 0.00140418 -1.26402e-22 3.75059e-37)
(4.1391 0.0753208 0 0.00147092 0 0)
(3.82029 0.0741604 1.44108e-20 0.00152642 1.16909e-22 3.58512e-37)
(3.50568 0.0721545 1.38015e-20 0.00156626 1.10988e-22 3.50461e-37)
(3.19873 0.0693801 1.32262e-20 0.00158662 1.04491e-22 3.42554e-37)
(2.90255 0.0659574 0 0.00158535 0 0)
(2.61976 0.0620415 0 0.00156273 0 0)
(2.35231 0.0577853 0 0.00151957 0 0)
(2.10143 0.0533561 1.12776e-20 0.00145992 7.64449e-23 3.12335e-37)
(1.86783 0.0488715 0 0.00138646 0 0)
(1.65176 0.0444476 0 0.0013042 0 0)
(1.45321 0.0401376 -1.01561e-20 0.00121564 -5.71446e-23 2.91089e-37)
(1.27192 0.03599 0 0.00112411 0 0)
(1.10753 0.0320148 0 0.00103071 0 0)
(0.959549 0.028226 -9.26817e-21 0.000936722 -4.06314e-23 2.70999e-37)
(0.827478 0.0246243 0 0.000842044 0 0)
(0.710677 0.0212313 0 0.000747744 0 0)
(0.608441 0.0180707 8.56493e-21 0.000654959 2.65963e-23 2.52011e-37)
(0.519916 0.0151594 8.36421e-21 0.000564589 2.24699e-23 2.45917e-37)
(0.444146 0.0125268 0 0.000478916 0 0)
(0.380043 0.0101695 -8.00464e-21 0.00039824 -1.50928e-23 2.34074e-37)
(0.326412 0.00810977 0 0.00032543 0 0)
(0.282029 0.00632963 7.69204e-21 0.000260566 8.91065e-24 2.22677e-37)
(0.245679 0.00482188 0 0.000204842 0 0)
(0.216227 0.00356432 7.41703e-21 0.000158264 3.9025e-24 2.11711e-37)
(0.192615 0.00252976 7.29117e-21 0.000120385 1.81234e-24 2.06386e-37)
(0.173896 0.0016885 0 9.03996e-05 0 0)
(0.159243 0.00101057 0 6.72745e-05 0 0)
(0.14795 0.000467665 0 4.99159e-05 0 0)
(0.13943 3.44172e-05 0 3.72979e-05 0 0)
(0.133195 -0.000310355 0 2.84787e-05 0 0)
(0.128843 -0.00058389 0 2.26678e-05 0 0)
(0.126047 -0.000799876 0 1.92794e-05 0 0)
(0.124537 -0.0009692 6.47465e-21 1.7852e-05 -7.44522e-24 1.67355e-37)
(0.12409 -0.00110086 -6.38937e-21 1.79723e-05 7.92592e-24 1.62899e-37)
(0.124521 -0.00120165 0 1.93197e-05 0 0)
(0.125676 -0.00127703 0 2.16051e-05 0 0)
(0.127427 -0.00133211 0 2.44551e-05 0 0)
(0.129674 -0.0013708 0 2.75239e-05 0 0)
(0.132332 -0.00139445 -1.19923e-20 3.03799e-05 1.72455e-23 5.67693e-37)
(0.135329 -0.00140383 0 3.24069e-05 0 0)
(0.138606 -0.00140025 1.16982e-20 3.31685e-05 -1.62006e-23 5.36465e-37)
(0.142111 -0.00138477 -1.15533e-20 3.2609e-05 1.5406e-23 5.2133e-37)
(0.145793 -0.00135783 0 3.09129e-05 0 0)
(0.149602 -0.00131952 0 2.83517e-05 0 0)
(0.153486 -0.00127004 0 2.5208e-05 0 0)
(0.157389 -0.00121013 1.0979e-20 2.17621e-05 -1.14515e-23 4.63861e-37)
(0.161256 -0.00114126 1.08353e-20 1.82773e-05 -1.04295e-23 4.50237e-37)
(0.165035 -0.00106558 0 1.49791e-05 0 0)
(0.168678 -0.000985647 1.05469e-20 1.20281e-05 -8.51642e-24 4.23847e-37)
(0.172147 -0.000904077 1.0402e-20 9.50429e-06 -7.65611e-24 4.11072e-37)
(0.175411 -0.000823166 -1.02567e-20 7.41844e-06 6.86937e-24 3.9857e-37)
(0.178448 -0.000744743 0 5.73661e-06 0 0)
(0.181247 -0.000670182 0 4.4053e-06 0 0)
(0.183802 -0.00060049 -9.81876e-21 3.36766e-06 4.95287e-24 3.62666e-37)
(0.186114 -0.000536382 0 2.57048e-06 0 0)
(0.188191 -0.000478259 0 1.96577e-06 0 0)