/*--------------------------------*- C++ -*----------------------------------*\
  =========                 |
  \\      /  F ield         | OpenFOAM: The Open Source CFD Toolbox
   \\    /   O peration     | Website:  https://openfoam.org
    \\  /    A nd           | Version:  7
     \\/     M anipulation  |
\*---------------------------------------------------------------------------*/
FoamFile
{
    version     2.0;
    format      ascii;
    class       volScalarField;
    location    "0.052";
    object      k;
}
// * * * * * * * * * * * * * * * * * * * * * * * * * * * * * * * * * * * * * //

dimensions      [0 2 -2 0 0 0 0];

internalField   nonuniform List<scalar> 
12225
(
1.93455e-05
1.80189e-05
1.68215e-05
1.54448e-05
1.40284e-05
1.26814e-05
1.12225e-05
9.94407e-06
8.43338e-06
1.00096e-05
1.46218e-05
1.10475e-05
4.971e-06
3.73817e-06
3.1471e-06
3.03094e-06
3.09086e-06
5.26086e-06
1.99803e-05
1.98795e-05
1.96783e-05
1.9414e-05
1.91761e-05
1.86862e-05
1.80258e-05
1.77326e-05
1.75415e-05
1.78299e-05
2.02668e-05
2.02899e-05
1.807e-05
1.54477e-05
1.42314e-05
1.32645e-05
1.27535e-05
1.22981e-05
1.99986e-05
1.92491e-05
1.88436e-05
1.88354e-05
1.88276e-05
1.87929e-05
1.87386e-05
1.87358e-05
1.87559e-05
1.88182e-05
1.91231e-05
1.91504e-05
1.89415e-05
1.83504e-05
1.80377e-05
1.76427e-05
1.74608e-05
1.70808e-05
2.00111e-05
1.98271e-05
1.94605e-05
1.75072e-05
1.42448e-05
1.46592e-05
1.59113e-05
1.67715e-05
1.70742e-05
1.72432e-05
1.74321e-05
1.772e-05
1.79651e-05
1.80242e-05
1.80227e-05
1.79934e-05
1.79588e-05
1.7859e-05
2.00029e-05
2.01174e-05
2.13406e-05
2.26882e-05
2.26315e-05
2.24377e-05
2.22503e-05
2.17506e-05
1.98425e-05
1.82384e-05
1.79754e-05
1.8036e-05
1.82915e-05
1.84971e-05
1.8573e-05
1.85873e-05
1.85497e-05
1.83324e-05
2.00597e-05
2.10982e-05
2.1429e-05
2.14994e-05
2.17051e-05
2.25864e-05
2.37456e-05
2.41226e-05
2.40794e-05
2.37275e-05
2.3552e-05
2.35752e-05
2.37681e-05
2.38569e-05
2.38478e-05
2.37383e-05
2.33033e-05
2.19995e-05
2.01635e-05
2.20709e-05
2.22603e-05
2.17893e-05
2.16647e-05
2.19514e-05
2.29129e-05
2.36973e-05
2.40591e-05
2.42881e-05
2.46331e-05
2.49117e-05
2.50043e-05
2.50026e-05
2.49683e-05
2.48692e-05
2.46242e-05
2.38854e-05
2.03491e-05
2.09324e-05
2.2294e-05
2.39911e-05
2.44198e-05
2.44034e-05
2.43784e-05
2.44266e-05
2.46565e-05
2.48825e-05
2.49176e-05
2.48491e-05
2.45392e-05
2.4188e-05
2.40158e-05
2.39621e-05
2.39402e-05
2.38678e-05
2.04708e-05
2.10683e-05
2.21896e-05
2.38448e-05
2.42608e-05
2.41161e-05
2.3466e-05
2.30134e-05
2.2871e-05
2.28555e-05
2.28765e-05
2.29503e-05
2.31461e-05
2.35849e-05
2.40797e-05
2.45578e-05
2.49974e-05
2.52392e-05
2.01801e-05
2.19004e-05
2.48676e-05
2.58154e-05
2.59817e-05
2.57402e-05
2.43677e-05
2.23996e-05
2.14335e-05
2.11311e-05
2.1139e-05
2.14501e-05
2.22703e-05
2.28243e-05
2.31245e-05
2.3378e-05
2.38142e-05
2.44436e-05
2.16994e-05
2.19425e-05
2.15887e-05
2.15316e-05
2.23264e-05
2.41281e-05
2.42659e-05
2.3635e-05
2.27222e-05
2.25747e-05
2.26473e-05
2.26673e-05
2.25274e-05
2.19892e-05
2.17383e-05
2.17332e-05
2.17763e-05
2.19484e-05
2.12846e-05
2.09829e-05
2.09501e-05
2.13553e-05
2.3541e-05
2.61178e-05
2.67451e-05
2.63332e-05
2.45618e-05
2.32718e-05
2.25451e-05
2.19733e-05
2.14483e-05
2.11284e-05
2.10437e-05
2.10409e-05
2.10472e-05
2.10769e-05
2.06005e-05
2.08477e-05
2.09967e-05
2.13103e-05
2.19178e-05
2.22558e-05
2.2309e-05
2.2357e-05
2.26537e-05
2.31481e-05
2.32044e-05
2.3054e-05
2.24116e-05
2.17767e-05
2.14685e-05
2.13318e-05
2.12854e-05
2.12895e-05
2.02048e-05
2.09144e-05
2.1372e-05
2.14336e-05
2.13551e-05
2.1075e-05
2.09153e-05
2.09175e-05
2.10826e-05
2.1499e-05
2.16699e-05
2.16804e-05
2.15855e-05
2.12434e-05
2.09822e-05
2.08789e-05
2.08637e-05
2.08952e-05
2.01396e-05
2.07826e-05
2.09541e-05
2.09104e-05
2.08861e-05
2.09259e-05
2.09742e-05
2.09736e-05
2.091e-05
2.078e-05
2.07482e-05
2.07528e-05
2.07897e-05
2.0816e-05
2.08161e-05
2.08082e-05
2.07652e-05
2.06857e-05
2.00578e-05
2.04688e-05
2.0956e-05
2.09167e-05
2.06344e-05
2.05759e-05
2.07042e-05
2.11744e-05
2.14513e-05
2.15052e-05
2.14688e-05
2.13148e-05
2.11622e-05
2.1028e-05
2.08686e-05
2.06925e-05
2.05352e-05
2.04358e-05
2.0052e-05
2.09467e-05
2.15056e-05
2.14361e-05
2.09365e-05
2.06334e-05
2.06005e-05
2.06926e-05
2.11244e-05
2.1528e-05
2.16833e-05
2.17326e-05
2.1738e-05
2.17287e-05
2.16889e-05
2.15627e-05
2.12684e-05
2.10012e-05
2.01187e-05
2.03696e-05
2.08602e-05
2.10081e-05
2.10014e-05
2.09037e-05
2.07931e-05
2.07596e-05
2.07679e-05
2.08304e-05
2.08624e-05
2.08674e-05
2.08724e-05
2.08995e-05
2.09612e-05
2.09787e-05
2.09658e-05
2.08798e-05
2.02411e-05
2.03925e-05
2.04807e-05
2.04973e-05
2.04885e-05
2.0449e-05
2.03641e-05
2.02728e-05
2.02174e-05
2.02001e-05
2.02018e-05
2.02127e-05
2.0233e-05
2.02649e-05
2.03317e-05
2.05237e-05
2.11554e-05
2.18452e-05
2.15199e-05
2.08452e-05
2.07618e-05
2.07522e-05
2.07349e-05
2.0716e-05
2.06913e-05
2.06318e-05
2.04235e-05
2.0203e-05
2.01112e-05
2.00895e-05
2.00887e-05
2.00923e-05
2.01045e-05
2.01381e-05
2.02403e-05
2.05889e-05
2.02974e-05
2.0469e-05
2.0492e-05
2.0489e-05
2.04973e-05
2.05102e-05
2.05042e-05
2.04547e-05
2.03017e-05
2.01854e-05
2.01302e-05
2.01104e-05
2.01064e-05
2.01064e-05
2.01078e-05
2.01121e-05
2.01241e-05
2.01672e-05
2.03269e-05
2.0833e-05
2.08857e-05
2.075e-05
2.06056e-05
2.05642e-05
2.05204e-05
2.04594e-05
2.03974e-05
2.03437e-05
2.02938e-05
2.02504e-05
2.0226e-05
2.02213e-05
2.02276e-05
2.02997e-05
2.0604e-05
2.09553e-05
2.01971e-05
2.0399e-05
2.06494e-05
2.07051e-05
2.06849e-05
2.05518e-05
2.03976e-05
2.03351e-05
2.03232e-05
2.0326e-05
2.03435e-05
2.03946e-05
2.0566e-05
2.11426e-05
2.21487e-05
2.27374e-05
2.2903e-05
2.29032e-05
2.00199e-05
2.02191e-05
2.07205e-05
2.07778e-05
2.05604e-05
2.02467e-05
2.01799e-05
2.02556e-05
2.05712e-05
2.06665e-05
2.06476e-05
2.05648e-05
2.0495e-05
2.04685e-05
2.04643e-05
2.04687e-05
2.04925e-05
2.05689e-05
2.00326e-05
2.03776e-05
2.05918e-05
2.0607e-05
2.05122e-05
2.02657e-05
2.02039e-05
2.02626e-05
2.06703e-05
2.09648e-05
2.09814e-05
2.09316e-05
2.07798e-05
2.06202e-05
2.05018e-05
2.04318e-05
2.04035e-05
2.03997e-05
2.02351e-05
2.04731e-05
2.04108e-05
2.02418e-05
2.01801e-05
2.01728e-05
2.02074e-05
2.04411e-05
2.16123e-05
2.46085e-05
2.62164e-05
2.64859e-05
2.62822e-05
2.52584e-05
2.35462e-05
2.23228e-05
2.14947e-05
2.097e-05
2.04911e-05
2.03266e-05
2.0056e-05
1.99666e-05
1.99285e-05
1.98644e-05
1.96961e-05
1.94891e-05
1.93848e-05
1.93859e-05
1.95405e-05
1.97858e-05
1.98519e-05
1.97888e-05
1.93712e-05
1.88565e-05
1.87566e-05
1.87252e-05
2.02624e-05
1.5864e-05
1.48887e-05
1.612e-05
1.89921e-05
2.21742e-05
2.39138e-05
2.50406e-05
2.69901e-05
3.12192e-05
4.18217e-05
5.17729e-05
6.07153e-05
6.56456e-05
6.94171e-05
7.15462e-05
7.6076e-05
7.97957e-05
3.51368e-05
0.000101926
0.000128942
0.000199152
0.000277507
0.000323455
0.000341075
0.000356624
0.000388417
0.000447623
0.000513142
0.000553344
0.000562627
0.000561918
0.000556458
0.000546073
0.000541247
0.000540128
0.00263121
0.00253799
0.00234375
0.00227245
0.00224587
0.00219674
0.00205939
0.00193132
0.00186912
0.00183981
0.00180355
0.00172156
0.00152285
0.00133047
0.00120019
0.00112771
0.00109444
0.00108204
5.2471e-05
0.000187709
0.000337016
0.000422212
0.000415668
0.000366818
0.000330407
0.000297588
0.000278162
0.0002664
0.000264201
0.000265615
0.000268411
0.000268146
0.000266159
0.000265055
0.000263856
0.000261359
0.00025142
0.000253282
0.00026319
0.000283802
0.000321006
0.000371875
0.000405253
0.000485361
0.00052143
0.000559131
0.000700541
0.00132286
0.00233598
0.00266553
0.00287915
0.00373692
0.00721597
0.00871016
0.00956778
0.0105609
0.0198607
0.0430829
0.0201327
0.0026293
0.000976397
0.000706396
0.000644045
0.000578833
0.000556883
0.000464968
0.00037757
0.000302918
0.000218892
0.00018104
0.000137103
0.000104679
8.81748e-05
7.15755e-05
6.36525e-05
5.87533e-05
5.68255e-05
5.6754e-05
5.68469e-05
5.71325e-05
5.76699e-05
5.86312e-05
6.01582e-05
6.21696e-05
6.42541e-05
6.54507e-05
6.59495e-05
6.61268e-05
6.60882e-05
6.52204e-05
6.31572e-05
6.06228e-05
5.84397e-05
5.65323e-05
5.43419e-05
5.20643e-05
5.00641e-05
4.8017e-05
4.58836e-05
4.40601e-05
4.2652e-05
4.12012e-05
3.97686e-05
3.85473e-05
3.68026e-05
3.51027e-05
3.42108e-05
3.32243e-05
3.1512e-05
3.06084e-05
2.90598e-05
2.76835e-05
2.61829e-05
2.4604e-05
2.29442e-05
2.12257e-05
1.94558e-05
1.76549e-05
1.586e-05
1.41368e-05
1.25425e-05
1.1033e-05
9.60975e-06
8.29565e-06
7.11016e-06
6.06192e-06
5.14598e-06
4.35008e-06
3.66371e-06
3.07697e-06
2.57866e-06
2.1574e-06
1.80207e-06
1.50244e-06
1.25005e-06
1.03671e-06
8.57196e-07
7.05014e-07
5.76539e-07
4.69536e-07
3.81388e-07
3.09361e-07
2.50692e-07
2.02868e-07
1.63806e-07
1.31871e-07
1.0579e-07
8.4535e-08
6.72535e-08
5.32398e-08
4.1912e-08
3.27926e-08
2.54884e-08
1.96732e-08
1.50743e-08
1.1463e-08
8.64769e-09
6.46933e-09
4.79705e-09
3.52399e-09
2.56339e-09
1.84528e-09
1.31378e-09
9.24668e-10
6.43159e-10
4.42066e-10
3.00275e-10
2.01572e-10
1.33724e-10
8.76679e-11
5.67965e-11
3.63629e-11
2.30072e-11
1.43865e-11
8.89124e-12
5.43151e-12
3.28002e-12
1.95831e-12
1.15606e-12
6.7488e-13
3.89615e-13
2.2247e-13
1.25634e-13
7.0206e-14
3.88025e-14
2.12633e-14
1.153e-14
6.24246e-15
3.33994e-15
1.88695e-15
9.4318e-16
6.32765e-16
5.62797e-16
6.30892e-16
6.50709e-15
2.93183e-12
2.05055e-09
2.33e-07
3.78486e-05
0.000326725
0.000353665
0.000373082
0.000412167
0.000438517
0.000452392
0.000461856
0.000502191
0.000527029
0.000560627
0.000632713
0.000692068
0.000712563
0.000720512
0.000740629
0.000786515
0.000798369
0.00079393
0.000779845
0.00074981
0.000698436
0.000661697
0.0006149
0.000553538
0.000542666
0.000546214
0.000563917
0.000622788
0.000794104
0.00145469
0.00161932
0.00163065
0.00212994
0.00252019
0.00345313
0.00998184
0.0151636
0.0165614
0.011473
0.00368291
0.000972566
0.000530019
0.000394071
0.000336702
0.000287601
0.000255149
0.000234022
0.000216953
0.00020855
0.000202511
0.000199608
0.000196695
0.000190614
0.000182396
0.000175757
0.000171675
0.000167483
0.000166437
0.000166403
0.000166695
0.000167412
0.000168771
0.000171079
0.000174356
0.000177938
0.000180051
0.000180967
0.000181297
0.000181094
0.000178541
0.00017271
0.00016559
0.000159467
0.000154468
0.000149654
0.000144624
0.000138988
0.00013268
0.000126683
0.000121591
0.00011706
0.000112598
0.000108501
0.000104894
0.000101037
9.63417e-05
9.14889e-05
8.91318e-05
8.52738e-05
8.10164e-05
7.87275e-05
7.54299e-05
7.25486e-05
6.97509e-05
6.70242e-05
6.43566e-05
6.16828e-05
5.89596e-05
5.6179e-05
5.32575e-05
5.00895e-05
4.66361e-05
4.29615e-05
3.90863e-05
3.5035e-05
3.09381e-05
2.70134e-05
2.34966e-05
2.03607e-05
1.75173e-05
1.49748e-05
1.27453e-05
1.08246e-05
9.19077e-06
7.81203e-06
6.65556e-06
5.69368e-06
4.89823e-06
4.24236e-06
3.69994e-06
3.24676e-06
2.86262e-06
2.53104e-06
2.23944e-06
1.9782e-06
1.73964e-06
1.51832e-06
1.31266e-06
1.12373e-06
9.52638e-07
7.9979e-07
6.64948e-07
5.47428e-07
4.4624e-07
3.60186e-07
2.87924e-07
2.27989e-07
1.78855e-07
1.3901e-07
1.07024e-07
8.16022e-08
6.15977e-08
4.60118e-08
3.3985e-08
2.48006e-08
1.78685e-08
1.27054e-08
8.91614e-09
6.17677e-09
4.22408e-09
2.85131e-09
1.89968e-09
1.24923e-09
8.10858e-10
5.19529e-10
3.286e-10
2.05193e-10
1.26516e-10
7.70364e-11
4.63325e-11
2.7529e-11
1.61604e-11
9.3743e-12
5.3729e-12
3.04372e-12
1.70307e-12
9.42408e-13
5.14506e-13
2.78617e-13
1.46956e-13
8.10512e-14
3.70673e-14
2.36547e-14
1.90121e-14
2.52463e-14
1.07057e-13
5.63942e-12
4.39896e-09
2.60308e-08
4.1188e-05
0.00026745
0.000186927
0.000183015
0.00023358
0.000339755
0.000459773
0.00057893
0.000776876
0.000896673
0.000992652
0.0011765
0.00131647
0.00136384
0.0013742
0.00140724
0.00148912
0.00149816
0.0014854
0.00144125
0.00136844
0.00130943
0.00118742
0.00111443
0.00102458
0.000844709
0.000712803
0.000650677
0.000655501
0.000686024
0.000805764
0.000910471
0.00122301
0.00356616
0.00867383
0.0100376
0.0099854
0.00779528
0.0037834
0.00168159
0.000656721
0.000356805
0.000291195
0.000272197
0.000265509
0.000263556
0.000264793
0.000271655
0.000281763
0.000289428
0.000292886
0.000294019
0.00029183
0.000280904
0.000268183
0.0002608
0.000252942
0.000237405
0.000227907
0.000226097
0.000226007
0.000226563
0.000227938
0.000230307
0.000233875
0.000238735
0.000244507
0.000248425
0.000249768
0.000249932
0.000247035
0.000238095
0.000225315
0.000212588
0.00020282
0.000197477
0.000194155
0.000189348
0.000182598
0.000176707
0.000172211
0.000165438
0.000156349
0.000150545
0.0001471
0.000140318
0.000133449
0.00012505
0.000120837
0.000112929
0.000107254
0.000102321
9.75052e-05
9.30633e-05
8.89275e-05
8.51542e-05
8.16978e-05
7.84763e-05
7.541e-05
7.24522e-05
6.96529e-05
6.70276e-05
6.45005e-05
6.20109e-05
5.95227e-05
5.68748e-05
5.39176e-05
5.05097e-05
4.65128e-05
4.20898e-05
3.74686e-05
3.2788e-05
2.82156e-05
2.39373e-05
2.01076e-05
1.68002e-05
1.39241e-05
1.14295e-05
9.32339e-06
7.60071e-06
6.22909e-06
5.15879e-06
4.33325e-06
3.69673e-06
3.20016e-06
2.80453e-06
2.48137e-06
2.21076e-06
1.9776e-06
1.77088e-06
1.58312e-06
1.40949e-06
1.24735e-06
1.09552e-06
9.53658e-07
8.22078e-07
7.01198e-07
5.91613e-07
4.93847e-07
4.07894e-07
3.33328e-07
2.69452e-07
2.15405e-07
1.70243e-07
1.3298e-07
1.02622e-07
7.82053e-08
5.88245e-08
4.36505e-08
3.19394e-08
2.30368e-08
1.63746e-08
1.14686e-08
7.91413e-09
5.38087e-09
3.60473e-09
2.37945e-09
1.54759e-09
9.91837e-10
6.26497e-10
3.90141e-10
2.39591e-10
1.45122e-10
8.67191e-11
5.11181e-11
2.97398e-11
1.70604e-11
9.66758e-12
5.39517e-12
2.98107e-12
1.60246e-12
9.04855e-13
3.85073e-13
6.93683e-13
5.93235e-13
1.58959e-12
1.75119e-11
1.52211e-11
4.64552e-10
1.85156e-09
2.41988e-05
0.000100388
9.71207e-05
0.000130363
0.000221231
0.000368444
0.000554016
0.000669092
0.000889836
0.00110391
0.00122844
0.00149495
0.00168701
0.00181494
0.00187448
0.00197249
0.00215897
0.00225689
0.00225356
0.00222032
0.00213806
0.00206152
0.00198588
0.00180692
0.00145113
0.00133306
0.00117537
0.000897464
0.000756003
0.000738615
0.000823617
0.0016208
0.0064745
0.00833584
0.00855596
0.00793463
0.00433209
0.00183244
0.000857653
0.000458101
0.000318083
0.000290677
0.000289498
0.000305652
0.000345887
0.000406228
0.00046412
0.000499467
0.000519262
0.000526917
0.000528311
0.000519327
0.000495718
0.000474729
0.000456601
0.000437481
0.000418096
0.00039609
0.000372883
0.000351679
0.000332661
0.000325633
0.000324841
0.000326223
0.000331016
0.000340582
0.000355882
0.00037582
0.000386381
0.000389171
0.000389194
0.000380979
0.000356202
0.000320217
0.000294528
0.000283535
0.000277512
0.000270535
0.000261274
0.000255367
0.000252441
0.000246319
0.000234526
0.00022434
0.00021842
0.000211084
0.000200458
0.000188021
0.000176802
0.000163239
0.000150694
0.00013875
0.000127726
0.000117491
0.00010859
0.000100998
9.45815e-05
8.92008e-05
8.45827e-05
8.0545e-05
7.69819e-05
7.38747e-05
7.11425e-05
6.86855e-05
6.63984e-05
6.42706e-05
6.22676e-05
6.03237e-05
5.8365e-05
5.63011e-05
5.40724e-05
5.15399e-05
4.85265e-05
4.49684e-05
4.09092e-05
3.63901e-05
3.15379e-05
2.65134e-05
2.15808e-05
1.71071e-05
1.33129e-05
1.0202e-05
7.75522e-06
5.90089e-06
4.53499e-06
3.548e-06
2.84163e-06
2.33607e-06
1.97031e-06
1.69897e-06
1.48991e-06
1.32127e-06
1.17856e-06
1.05268e-06
9.38531e-07
8.33218e-07
7.35574e-07
6.44698e-07
5.59923e-07
4.81339e-07
4.09347e-07
3.44301e-07
2.86374e-07
2.35519e-07
1.91491e-07
1.53887e-07
1.22191e-07
9.58233e-08
7.41839e-08
5.66783e-08
4.27186e-08
3.17468e-08
2.32513e-08
1.67743e-08
1.19152e-08
8.33037e-09
5.73114e-09
3.87975e-09
2.58443e-09
1.69421e-09
1.09318e-09
6.9449e-10
4.34453e-10
2.67658e-10
1.624e-10
9.70585e-11
5.71295e-11
3.31335e-11
1.89232e-11
1.06507e-11
5.91119e-12
3.22062e-12
1.75815e-12
8.97018e-13
5.41404e-13
3.31448e-13
1.43897e-12
1.70077e-12
1.73313e-11
1.00543e-10
9.17365e-06
4.95613e-05
7.03451e-05
0.000127322
0.000278417
0.000432812
0.000606739
0.000773415
0.000968577
0.0013145
0.0015082
0.00183936
0.00207889
0.00224242
0.00251846
0.00278809
0.00313252
0.00329818
0.00330181
0.00325346
0.00313013
0.0028829
0.00265521
0.0025482
0.00235465
0.00182981
0.00151237
0.00131905
0.000894443
0.000915743
0.00244267
0.00660319
0.00749626
0.00737188
0.00538196
0.0025931
0.0011913
0.00057955
0.00037201
0.000311111
0.000301431
0.000319362
0.000370204
0.000468447
0.000546744
0.000597966
0.000626761
0.000639782
0.000644188
0.000644155
0.000632756
0.000613377
0.000599909
0.00058747
0.000569796
0.000553753
0.00054569
0.000535199
0.000519812
0.000500489
0.000486895
0.000473295
0.000470581
0.000471094
0.000475003
0.000483194
0.000494424
0.000508332
0.000515327
0.000516531
0.000515034
0.000505454
0.000482839
0.000448401
0.000411591
0.00038327
0.000367722
0.000359913
0.000351647
0.000341308
0.000333096
0.000326928
0.000319777
0.000311175
0.00030677
0.000303241
0.000297968
0.000292309
0.000285027
0.000274052
0.000258379
0.000236886
0.000209904
0.000181213
0.00015605
0.000136091
0.00011954
0.000107216
9.81121e-05
9.1116e-05
8.53938e-05
8.0521e-05
7.63091e-05
7.27501e-05
6.97874e-05
6.73492e-05
6.52759e-05
6.33965e-05
6.1626e-05
5.9909e-05
5.81826e-05
5.64663e-05
5.46511e-05
5.24782e-05
4.98515e-05
4.6986e-05
4.40599e-05
4.10233e-05
3.75822e-05
3.3315e-05
2.82039e-05
2.28057e-05
1.78031e-05
1.36009e-05
1.02147e-05
7.58285e-06
5.59916e-06
4.14208e-06
3.09494e-06
2.35552e-06
1.8398e-06
1.48194e-06
1.23217e-06
1.054e-06
9.21635e-07
8.18303e-07
7.31939e-07
6.53995e-07
5.7881e-07
5.05312e-07
4.3534e-07
3.70221e-07
3.10878e-07
2.57842e-07
2.11287e-07
1.71101e-07
1.36955e-07
1.08369e-07
8.47632e-08
6.55055e-08
4.99933e-08
3.76659e-08
2.80049e-08
2.05403e-08
1.48556e-08
1.05902e-08
7.43848e-09
5.14663e-09
3.50718e-09
2.35368e-09
1.55536e-09
1.01186e-09
6.47966e-10
4.08357e-10
2.53196e-10
1.54414e-10
9.26083e-11
5.46146e-11
3.16742e-11
1.80618e-11
1.014e-11
5.5877e-12
3.05836e-12
1.60578e-12
8.95267e-13
3.93427e-13
3.3365e-13
2.49561e-13
1.04035e-12
5.57566e-12
2.95339e-05
5.0636e-05
7.04177e-05
0.000153684
0.000327138
0.000473042
0.000631099
0.00091089
0.00118891
0.00159124
0.00198872
0.00247537
0.00314769
0.00362777
0.004648
0.00572262
0.00639844
0.00659567
0.0064388
0.00602096
0.00537722
0.00458388
0.0037637
0.00321944
0.00276513
0.00256875
0.00228302
0.00139998
0.00113364
0.0031105
0.00612332
0.00676436
0.00644551
0.00371814
0.00178462
0.000860144
0.000475802
0.000343796
0.000315111
0.000315048
0.000350204
0.000440807
0.000549219
0.000619244
0.000677236
0.000700878
0.000709542
0.000711445
0.000710863
0.000706329
0.00069291
0.00067631
0.000667025
0.000648873
0.000626021
0.000616849
0.000611533
0.000599338
0.000581656
0.000575284
0.000570269
0.000558058
0.00054329
0.00053672
0.000533301
0.00053071
0.000530079
0.000533156
0.000536615
0.00053716
0.000535751
0.000527551
0.000509512
0.000479617
0.000443547
0.000408854
0.000385576
0.000375107
0.000367496
0.000356982
0.000344777
0.00033617
0.000330924
0.00032503
0.000322452
0.000321411
0.000321167
0.000321551
0.00032189
0.000322307
0.000322873
0.000322876
0.000319633
0.000306757
0.000277957
0.000235343
0.000187858
0.000148761
0.000123423
0.000106437
9.58178e-05
8.86587e-05
8.30683e-05
7.8226e-05
7.39681e-05
7.03396e-05
6.73842e-05
6.50209e-05
6.30694e-05
6.13681e-05
5.97671e-05
5.8185e-05
5.67128e-05
5.5301e-05
5.35867e-05
5.12542e-05
4.85217e-05
4.58199e-05
4.33354e-05
4.11143e-05
3.88647e-05
3.595e-05
3.17985e-05
2.65858e-05
2.11623e-05
1.62893e-05
1.22339e-05
8.99007e-06
6.48331e-06
4.60687e-06
3.24561e-06
2.28785e-06
1.63315e-06
1.19674e-06
9.10667e-07
7.22711e-07
5.96476e-07
5.08989e-07
4.47144e-07
4.00333e-07
3.59192e-07
3.1823e-07
2.76981e-07
2.36907e-07
1.99229e-07
1.64838e-07
1.3427e-07
1.07734e-07
8.51928e-08
6.64257e-08
5.10838e-08
3.8752e-08
2.89971e-08
2.13997e-08
1.55723e-08
1.11705e-08
7.89623e-09
5.49861e-09
3.7707e-09
2.5455e-09
1.69102e-09
1.10505e-09
7.10059e-10
4.48442e-10
2.78289e-10
1.69638e-10
1.01563e-10
5.96906e-11
3.44612e-11
1.94981e-11
1.08791e-11
5.88821e-12
3.23014e-12
1.60662e-12
9.87414e-13
4.28203e-13
6.46796e-13
5.5442e-13
2.62727e-12
3.28492e-12
7.76269e-05
8.66828e-05
9.3269e-05
0.000192932
0.00035564
0.000523631
0.000746321
0.00112545
0.00164047
0.00207009
0.00289411
0.00421808
0.00587775
0.00737898
0.0103289
0.012142
0.013362
0.0132428
0.0126681
0.0112481
0.00958385
0.00805245
0.00641126
0.00517448
0.00439662
0.00332713
0.00220168
0.001554
0.00318727
0.00546491
0.0060214
0.00566159
0.00298052
0.00136515
0.000695486
0.000424242
0.000336166
0.000318744
0.000326736
0.000373286
0.000486091
0.000584446
0.000653035
0.000710163
0.000740547
0.000770741
0.000791865
0.000810769
0.000829945
0.000843256
0.00085598
0.000873982
0.000882325
0.000883374
0.000870875
0.000864354
0.000860662
0.000827952
0.000758925
0.000722207
0.000698335
0.000660401
0.000615483
0.000579874
0.00056432
0.000545792
0.000532478
0.000526264
0.000517931
0.000512619
0.000508229
0.00050152
0.000494661
0.00047685
0.000444678
0.000408908
0.000373773
0.000352587
0.000343293
0.000336493
0.000327995
0.000318186
0.000314046
0.000313137
0.000313619
0.000315453
0.000317782
0.000319968
0.000320234
0.000319596
0.000319653
0.000322978
0.000330006
0.000339014
0.000337997
0.000327812
0.000303519
0.000258143
0.000201358
0.00015131
0.000117718
9.91436e-05
8.89959e-05
8.28692e-05
7.80913e-05
7.37046e-05
6.96838e-05
6.64053e-05
6.38803e-05
6.19191e-05
6.03023e-05
5.8826e-05
5.73691e-05
5.60297e-05
5.48702e-05
5.36092e-05
5.17149e-05
4.90054e-05
4.60372e-05
4.33846e-05
4.12522e-05
3.96014e-05
3.81228e-05
3.61494e-05
3.29656e-05
2.84114e-05
2.31523e-05
1.80805e-05
1.36857e-05
1.00579e-05
7.18433e-06
4.99682e-06
3.39675e-06
2.27161e-06
1.51012e-06
1.01314e-06
6.99281e-07
5.05823e-07
3.86863e-07
3.11967e-07
2.63277e-07
2.31084e-07
2.07045e-07
1.84755e-07
1.61821e-07
1.38841e-07
1.16706e-07
9.61728e-08
7.77659e-08
6.17583e-08
4.82081e-08
3.70125e-08
2.79638e-08
2.07976e-08
1.52294e-08
1.09808e-08
7.79559e-09
5.44838e-09
3.74804e-09
2.53716e-09
1.68955e-09
1.10646e-09
7.12341e-10
4.50681e-10
2.80102e-10
1.70947e-10
1.02429e-10
6.02125e-11
3.47418e-11
1.96465e-11
1.09163e-11
5.89329e-12
3.20916e-12
1.62425e-12
8.44349e-13
4.00941e-13
2.80819e-13
2.67978e-13
3.60089e-13
6.93064e-13
0.000160457
0.000125079
0.000103792
0.000228947
0.000401011
0.000619451
0.00098368
0.0015263
0.00206494
0.00294362
0.00463163
0.00716698
0.00997347
0.0133291
0.0172045
0.0194629
0.0202767
0.0204504
0.0199934
0.0183876
0.0157465
0.0128083
0.00941849
0.00650609
0.00457537
0.00296131
0.00227831
0.00307572
0.00485984
0.00529053
0.00482792
0.00242436
0.00114798
0.000608216
0.000404627
0.000341016
0.000330149
0.000340601
0.00040933
0.00053647
0.000622732
0.000689279
0.000744932
0.000787181
0.000850375
0.000917196
0.000991112
0.00107634
0.00118071
0.00129484
0.00142965
0.00157083
0.00168184
0.00175535
0.00179664
0.0018097
0.00175783
0.00165922
0.00149186
0.00136985
0.00116816
0.00106301
0.000958892
0.000801204
0.000741421
0.000681144
0.000610124
0.000578181
0.000535936
0.000508887
0.000493217
0.000472737
0.000458657
0.000438389
0.000413394
0.000387712
0.000363272
0.000344821
0.000336831
0.000333689
0.000331549
0.00033082
0.000332582
0.000336743
0.0003435
0.000352211
0.000358049
0.000360101
0.000354243
0.000339183
0.000319514
0.000305215
0.000296212
0.000295146
0.000308759
0.000323501
0.000323471
0.000303713
0.000270144
0.00022777
0.000179266
0.000133521
0.000103599
8.87852e-05
8.13201e-05
7.67209e-05
7.27596e-05
6.87177e-05
6.50421e-05
6.23042e-05
6.03613e-05
5.8921e-05
5.7565e-05
5.61897e-05
5.49356e-05
5.39053e-05
5.2939e-05
5.15802e-05
4.93094e-05
4.62533e-05
4.31891e-05
4.066e-05
3.88487e-05
3.76446e-05
3.66839e-05
3.5324e-05
3.28472e-05
2.8896e-05
2.38922e-05
1.87883e-05
1.42287e-05
1.03925e-05
7.32505e-06
4.98958e-06
3.29409e-06
2.11797e-06
1.33673e-06
8.38776e-07
5.33509e-07
3.52707e-07
2.48038e-07
1.8709e-07
1.50627e-07
1.28571e-07
1.14395e-07
1.0259e-07
9.04061e-08
7.77789e-08
6.53024e-08
5.35423e-08
4.29201e-08
3.36787e-08
2.58986e-08
1.95365e-08
1.4468e-08
1.05249e-08
7.52424e-09
5.28758e-09
3.65307e-09
2.48129e-09
1.65684e-09
1.08745e-09
7.01405e-10
4.44488e-10
2.76672e-10
1.69098e-10
1.01452e-10
5.97208e-11
3.44865e-11
1.9525e-11
1.08429e-11
5.88637e-12
3.14165e-12
1.64204e-12
8.38484e-13
4.10438e-13
1.98688e-13
1.11471e-13
9.5579e-14
1.3304e-13
0.00027827
0.000165177
0.000108713
0.000267231
0.000484154
0.000774658
0.00121761
0.00173207
0.00240076
0.00363178
0.00576242
0.00854331
0.0119436
0.0160325
0.0198046
0.0218986
0.022484
0.0216535
0.0201786
0.0182012
0.0155188
0.012412
0.00892208
0.00594182
0.00383187
0.00297746
0.00313238
0.00435024
0.00468594
0.00418417
0.00200678
0.000995057
0.000563207
0.000399158
0.000349458
0.000339951
0.000349243
0.000406516
0.000526403
0.000612847
0.000699244
0.000777262
0.000859218
0.000948858
0.00107845
0.00123808
0.00145257
0.00173493
0.00209358
0.00252013
0.00301176
0.00351019
0.00393767
0.00426431
0.00442358
0.00446742
0.00423346
0.00387996
0.00334803
0.00306751
0.0024027
0.00201739
0.00176252
0.00134262
0.00117916
0.00105044
0.000886702
0.000801714
0.000723085
0.000643687
0.000586901
0.000532188
0.000489447
0.000453815
0.000420445
0.000395482
0.000377044
0.000368827
0.000368321
0.000375303
0.000389244
0.000401707
0.00040854
0.00041221
0.000415691
0.000421024
0.000427275
0.000431192
0.000431842
0.00042691
0.000412457
0.00037793
0.000329165
0.000285506
0.000264444
0.000253534
0.000256212
0.000266735
0.000266398
0.000243083
0.000210298
0.000176983
0.000140063
0.000106559
8.77627e-05
7.88483e-05
7.41841e-05
7.07188e-05
6.71147e-05
6.32759e-05
6.02838e-05
5.82958e-05
5.71106e-05
5.60444e-05
5.48759e-05
5.37367e-05
5.27673e-05
5.18803e-05
5.07446e-05
4.88888e-05
4.61032e-05
4.29339e-05
4.00873e-05
3.79403e-05
3.65615e-05
3.57613e-05
3.51528e-05
3.41783e-05
3.21087e-05
2.83983e-05
2.34778e-05
1.83359e-05
1.37131e-05
9.83525e-06
6.77342e-06
4.48868e-06
2.87106e-06
1.77993e-06
1.07632e-06
6.41303e-07
3.82718e-07
2.3446e-07
1.52034e-07
1.06827e-07
8.1747e-08
6.77676e-08
5.98561e-08
5.3964e-08
4.78615e-08
4.12969e-08
3.46211e-08
2.82203e-08
2.24004e-08
1.73449e-08
1.31221e-08
9.71243e-09
7.04081e-09
5.00326e-09
3.48737e-09
2.38538e-09
1.60164e-09
1.05584e-09
6.8342e-10
4.34327e-10
2.70984e-10
1.65956e-10
9.97406e-11
5.88118e-11
3.40138e-11
1.92882e-11
1.07229e-11
5.84036e-12
3.11595e-12
1.6291e-12
8.33835e-13
4.17363e-13
2.03315e-13
9.65331e-14
4.53546e-14
3.86414e-14
0.000427683
0.000208384
0.000123176
0.000284249
0.00052662
0.000855168
0.00131731
0.00181912
0.00252407
0.00385271
0.00603231
0.00878952
0.0122916
0.0164473
0.0189509
0.0201019
0.0204875
0.0198887
0.0183174
0.0162411
0.0134758
0.0100908
0.00639328
0.00428056
0.00347619
0.00332323
0.00394396
0.00417851
0.00371374
0.00178314
0.000910664
0.00055424
0.000417533
0.000371599
0.000358432
0.000374311
0.000440762
0.000562838
0.000659926
0.000752455
0.000857778
0.00099104
0.00115689
0.00135714
0.00161028
0.00194939
0.0024444
0.00317634
0.00415599
0.00537615
0.00677783
0.00819898
0.00946145
0.0103426
0.0107256
0.0107905
0.00981701
0.0089671
0.00741255
0.00643335
0.00525999
0.00401638
0.00338796
0.00232432
0.00186951
0.00149281
0.00118662
0.00103885
0.000898987
0.000825967
0.000734699
0.000666969
0.000606474
0.000554388
0.000508224
0.000468181
0.00043883
0.000423948
0.000417861
0.000416458
0.000418387
0.000420979
0.000421704
0.000419383
0.000415929
0.000413927
0.000414019
0.000416308
0.00042074
0.000427774
0.000436506
0.000439366
0.000428024
0.00038879
0.000315684
0.000251733
0.000218202
0.000195171
0.000183113
0.000186925
0.000191704
0.000181749
0.000158117
0.000133087
0.000105192
8.53694e-05
7.58512e-05
7.12132e-05
6.81542e-05
6.50364e-05
6.1312e-05
5.80133e-05
5.58071e-05
5.47501e-05
5.40603e-05
5.32503e-05
5.23571e-05
5.14967e-05
5.06324e-05
4.95124e-05
4.77904e-05
4.524e-05
4.21927e-05
3.92956e-05
3.69971e-05
3.54524e-05
3.45617e-05
3.40591e-05
3.35744e-05
3.27136e-05
3.0859e-05
2.69648e-05
2.18604e-05
1.67011e-05
1.21651e-05
8.46572e-06
5.64284e-06
3.61371e-06
2.23114e-06
1.33341e-06
7.75314e-07
4.41862e-07
2.50017e-07
1.43748e-07
8.70193e-08
5.74694e-08
4.19912e-08
3.38933e-08
2.9793e-08
2.71322e-08
2.43372e-08
2.10824e-08
1.76181e-08
1.42338e-08
1.11501e-08
8.49218e-09
6.30232e-09
4.56537e-09
3.23238e-09
2.23917e-09
1.51887e-09
1.00945e-09
6.57641e-10
4.20113e-10
2.6321e-10
1.61746e-10
9.74899e-11
5.76289e-11
3.3405e-11
1.8984e-11
1.05748e-11
5.77242e-12
3.08683e-12
1.61683e-12
8.293e-13
4.16621e-13
2.0437e-13
9.92255e-14
4.46255e-14
2.29162e-14
0.000595542
0.000269348
0.000155609
0.0002856
0.000541055
0.000883341
0.00134301
0.0018073
0.00227823
0.00317866
0.00450943
0.00593104
0.00756937
0.00986386
0.0122146
0.0134313
0.0139247
0.0138232
0.0124031
0.0107807
0.00804836
0.00571256
0.00429819
0.00373845
0.00360286
0.00364135
0.00375785
0.00327312
0.00163228
0.000877972
0.000569283
0.000450443
0.000406448
0.000389155
0.000407194
0.000498698
0.000596062
0.000693843
0.000771774
0.0008848
0.00103169
0.00124035
0.00150882
0.00186451
0.00235828
0.00309653
0.00424225
0.00598475
0.00835936
0.0113495
0.0148189
0.0183871
0.0215223
0.0232897
0.0239798
0.0238407
0.0212888
0.0189107
0.0156664
0.0119829
0.0100791
0.00740594
0.00599151
0.00426968
0.00334365
0.00243311
0.00183293
0.00143279
0.00116509
0.000964772
0.000828999
0.000726728
0.000653288
0.000590636
0.000538683
0.000498231
0.000465834
0.000439555
0.0004246
0.000415852
0.000406679
0.000390358
0.000365702
0.000336044
0.000306012
0.00027868
0.000255852
0.000240819
0.000237244
0.000249951
0.000293456
0.000365172
0.000420849
0.000432661
0.000413057
0.000354977
0.000267477
0.000199202
0.000160254
0.000135243
0.000124073
0.000130405
0.000141644
0.000137995
0.000120132
9.9475e-05
8.16168e-05
7.22208e-05
6.80069e-05
6.54661e-05
6.26089e-05
5.90656e-05
5.56026e-05
5.31281e-05
5.19849e-05
5.16049e-05
5.12341e-05
5.07176e-05
5.00648e-05
4.92255e-05
4.80227e-05
4.62489e-05
4.37896e-05
4.08893e-05
3.80599e-05
3.57414e-05
3.41351e-05
3.32029e-05
3.27432e-05
3.24347e-05
3.19684e-05
3.10249e-05
2.88894e-05
2.44063e-05
1.90536e-05
1.40431e-05
9.84301e-06
6.58471e-06
4.21988e-06
2.60008e-06
1.54562e-06
8.89599e-07
4.97861e-07
2.72625e-07
1.47679e-07
8.07288e-08
4.6021e-08
2.84601e-08
1.96304e-08
1.54935e-08
1.38683e-08
1.29889e-08
1.18583e-08
1.03189e-08
8.57395e-09
6.83982e-09
5.26726e-09
3.93312e-09
2.85603e-09
2.02071e-09
1.39497e-09