/*--------------------------------*- C++ -*----------------------------------*\
  =========                 |
  \\      /  F ield         | OpenFOAM: The Open Source CFD Toolbox
   \\    /   O peration     | Website:  https://openfoam.org
    \\  /    A nd           | Version:  7
     \\/     M anipulation  |
\*---------------------------------------------------------------------------*/
FoamFile
{
    version     2.0;
    format      ascii;
    class       volScalarField;
    location    "0.052";
    object      k_0;
}
// * * * * * * * * * * * * * * * * * * * * * * * * * * * * * * * * * * * * * //

dimensions      [0 2 -2 0 0 0 0];

internalField   nonuniform List<scalar> 
12225
(
1.93453e-05
1.80207e-05
1.68227e-05
1.54432e-05
1.40276e-05
1.26807e-05
1.12219e-05
9.9427e-06
8.43889e-06
1.0065e-05
1.45178e-05
1.08836e-05
4.94374e-06
3.73544e-06
3.14722e-06
3.03241e-06
3.093e-06
5.26143e-06
1.99802e-05
1.98795e-05
1.96779e-05
1.94152e-05
1.91763e-05
1.86794e-05
1.80252e-05
1.77416e-05
1.75568e-05
1.78647e-05
2.02787e-05
2.02533e-05
1.79695e-05
1.54031e-05
1.4214e-05
1.32572e-05
1.27539e-05
1.23005e-05
1.99986e-05
1.9242e-05
1.88415e-05
1.88357e-05
1.88296e-05
1.87949e-05
1.87419e-05
1.874e-05
1.87621e-05
1.88262e-05
1.91268e-05
1.91453e-05
1.89245e-05
1.83329e-05
1.80297e-05
1.76389e-05
1.74585e-05
1.70811e-05
2.00105e-05
1.98329e-05
1.94707e-05
1.7462e-05
1.4259e-05
1.46923e-05
1.59515e-05
1.67869e-05
1.70781e-05
1.72462e-05
1.744e-05
1.77297e-05
1.79688e-05
1.80246e-05
1.80226e-05
1.79931e-05
1.79583e-05
1.78579e-05
2.00031e-05
2.0127e-05
2.14012e-05
2.27272e-05
2.26595e-05
2.24622e-05
2.22706e-05
2.17479e-05
1.97823e-05
1.82226e-05
1.79834e-05
1.80496e-05
1.83113e-05
1.8509e-05
1.85799e-05
1.85909e-05
1.85479e-05
1.83185e-05
2.00665e-05
2.11266e-05
2.14319e-05
2.15008e-05
2.17161e-05
2.26365e-05
2.37798e-05
2.41362e-05
2.40842e-05
2.37285e-05
2.35694e-05
2.36024e-05
2.38036e-05
2.38837e-05
2.38709e-05
2.37493e-05
2.32777e-05
2.193e-05
2.01815e-05
2.21041e-05
2.22458e-05
2.17707e-05
2.16623e-05
2.19726e-05
2.29525e-05
2.37203e-05
2.40713e-05
2.43004e-05
2.46465e-05
2.49199e-05
2.50068e-05
2.50036e-05
2.49669e-05
2.48627e-05
2.46038e-05
2.38288e-05
2.0371e-05
2.09511e-05
2.23351e-05
2.40222e-05
2.4433e-05
2.4411e-05
2.43846e-05
2.44351e-05
2.46729e-05
2.48875e-05
2.49156e-05
2.48375e-05
2.45123e-05
2.41706e-05
2.4009e-05
2.39609e-05
2.394e-05
2.38641e-05
2.04956e-05
2.10898e-05
2.22051e-05
2.38694e-05
2.42623e-05
2.41022e-05
2.34361e-05
2.29989e-05
2.28639e-05
2.28506e-05
2.28733e-05
2.29506e-05
2.31604e-05
2.36099e-05
2.41076e-05
2.45851e-05
2.50176e-05
2.52509e-05
2.01976e-05
2.1998e-05
2.48835e-05
2.58038e-05
2.59665e-05
2.57073e-05
2.4281e-05
2.23395e-05
2.1406e-05
2.11245e-05
2.1141e-05
2.14823e-05
2.23064e-05
2.28424e-05
2.31338e-05
2.3391e-05
2.38366e-05
2.44708e-05
2.17611e-05
2.19217e-05
2.15495e-05
2.15148e-05
2.23693e-05
2.41429e-05
2.42521e-05
2.35891e-05
2.27046e-05
2.2575e-05
2.265e-05
2.26654e-05
2.25104e-05
2.19621e-05
2.17321e-05
2.17305e-05
2.17766e-05
2.19562e-05
2.13058e-05
2.09696e-05
2.09452e-05
2.13869e-05
2.36581e-05
2.61746e-05
2.67457e-05
2.62798e-05
2.44705e-05
2.32247e-05
2.25142e-05
2.19457e-05
2.1426e-05
2.11197e-05
2.10421e-05
2.10402e-05
2.1047e-05
2.10788e-05
2.05907e-05
2.08456e-05
2.10045e-05
2.13271e-05
2.19305e-05
2.22533e-05
2.23016e-05
2.23521e-05
2.26715e-05
2.31583e-05
2.32049e-05
2.30411e-05
2.23743e-05
2.17549e-05
2.14575e-05
2.13269e-05
2.12846e-05
2.12915e-05
2.02225e-05
2.09353e-05
2.13823e-05
2.14355e-05
2.13475e-05
2.10611e-05
2.09111e-05
2.09172e-05
2.1097e-05
2.15109e-05
2.16711e-05
2.16776e-05
2.15726e-05
2.12221e-05
2.09714e-05
2.08749e-05
2.08627e-05
2.08984e-05
2.01541e-05
2.07965e-05
2.09575e-05
2.09081e-05
2.08857e-05
2.09288e-05
2.09757e-05
2.09739e-05
2.09045e-05
2.07766e-05
2.07474e-05
2.07528e-05
2.07916e-05
2.08166e-05
2.08164e-05
2.08078e-05
2.07609e-05
2.06811e-05
2.00639e-05
2.04866e-05
2.09646e-05
2.09134e-05
2.06251e-05
2.05754e-05
2.07159e-05
2.1195e-05
2.14591e-05
2.1507e-05
2.14662e-05
2.13063e-05
2.11556e-05
2.10205e-05
2.08592e-05
2.06828e-05
2.05275e-05
2.04314e-05
2.00575e-05
2.09833e-05
2.15157e-05
2.14308e-05
2.09158e-05
2.06275e-05
2.06003e-05
2.07012e-05
2.11486e-05
2.154e-05
2.1688e-05
2.17343e-05
2.17387e-05
2.17284e-05
2.16858e-05
2.15503e-05
2.12509e-05
2.09872e-05
2.01133e-05
2.0382e-05
2.08705e-05
2.10102e-05
2.10008e-05
2.08982e-05
2.07892e-05
2.07585e-05
2.07695e-05
2.08333e-05
2.08628e-05
2.08672e-05
2.08723e-05
2.09013e-05
2.09612e-05
2.09762e-05
2.09606e-05
2.08664e-05
2.02165e-05
2.03925e-05
2.04814e-05
2.04975e-05
2.04875e-05
2.0446e-05
2.03603e-05
2.02697e-05
2.02158e-05
2.02e-05
2.02022e-05
2.02137e-05
2.02343e-05
2.02675e-05
2.03377e-05
2.05444e-05
2.12027e-05
2.18733e-05
2.15306e-05
2.08163e-05
2.076e-05
2.07523e-05
2.0735e-05
2.07159e-05
2.06904e-05
2.06276e-05
2.04115e-05
2.01964e-05
2.01092e-05
2.00894e-05
2.00889e-05
2.00928e-05
2.01058e-05
2.01417e-05
2.02517e-05
2.0617e-05
2.0304e-05
2.04716e-05
2.04921e-05
2.04889e-05
2.04982e-05
2.05107e-05
2.0504e-05
2.04508e-05
2.02949e-05
2.0182e-05
2.01288e-05
2.01102e-05
2.01065e-05
2.01066e-05
2.01081e-05
2.01128e-05
2.01258e-05
2.01732e-05
2.03251e-05
2.08432e-05
2.08875e-05
2.07431e-05
2.06027e-05
2.05628e-05
2.05184e-05
2.04569e-05
2.0395e-05
2.03415e-05
2.02917e-05
2.02488e-05
2.02254e-05
2.02213e-05
2.02284e-05
2.03071e-05
2.06244e-05
2.0964e-05
2.01891e-05
2.04058e-05
2.06542e-05
2.07062e-05
2.06834e-05
2.05442e-05
2.03932e-05
2.03336e-05
2.03229e-05
2.03263e-05
2.03453e-05
2.03994e-05
2.05806e-05
2.11884e-05
2.21821e-05
2.27424e-05
2.28902e-05
2.28858e-05
2.00187e-05
2.02276e-05
2.07314e-05
2.07751e-05
2.05459e-05
2.02394e-05
2.01788e-05
2.02625e-05
2.05799e-05
2.06648e-05
2.06438e-05
2.05594e-05
2.04925e-05
2.04678e-05
2.04642e-05
2.04693e-05
2.04951e-05
2.05765e-05
2.00361e-05
2.03907e-05
2.05957e-05
2.06074e-05
2.05046e-05
2.0259e-05
2.02029e-05
2.02685e-05
2.06906e-05
2.09663e-05
2.09778e-05
2.09242e-05
2.07692e-05
2.06117e-05
2.04958e-05
2.04285e-05
2.04024e-05
2.03995e-05
2.02475e-05
2.04771e-05
2.04058e-05
2.0237e-05
2.01786e-05
2.01728e-05
2.0211e-05
2.04625e-05
2.17197e-05
2.47259e-05
2.625e-05
2.64811e-05
2.62533e-05
2.51588e-05
2.34573e-05
2.22583e-05
2.14505e-05
2.09399e-05
2.04909e-05
2.03174e-05
2.00518e-05
1.99667e-05
1.99287e-05
1.98624e-05
1.96891e-05
1.94862e-05
1.9389e-05
1.93944e-05
1.95602e-05
1.97958e-05
1.98525e-05
1.97796e-05
1.93331e-05
1.88388e-05
1.87523e-05
1.87269e-05
2.02583e-05
1.58448e-05
1.4975e-05
1.61947e-05
1.90147e-05
2.20959e-05
2.37727e-05
2.49076e-05
2.69186e-05
3.13159e-05
4.2131e-05
5.19407e-05
6.07239e-05
6.54992e-05
6.91994e-05
7.13703e-05
7.60147e-05
7.97524e-05
3.48229e-05
0.000100673
0.000129019
0.00020041
0.000277724
0.000322529
0.000339793
0.00035591
0.000389079
0.000449232
0.000514359
0.000553145
0.000561572
0.00056071
0.000554865
0.000544744
0.000540296
0.000539415
0.00262556
0.00253612
0.00234277
0.00227447
0.00224811
0.00219749
0.00205686
0.0019308
0.0018703
0.00184134
0.00180409
0.00171864
0.00151608
0.00132559
0.00119759
0.00112705
0.00109501
0.00108324
5.23332e-05
0.000187487
0.000336683
0.000421513
0.000414872
0.000366098
0.000329719
0.000297021
0.000277625
0.000265961
0.000263852
0.000265302
0.000268061
0.000267786
0.000265814
0.000264808
0.000263665
0.000261212
0.000251271
0.000253109
0.000262986
0.000283543
0.000320879
0.00037163
0.000405301
0.000485946
0.000521815
0.000559711
0.000702182
0.00132736
0.00233857
0.00266661
0.00288128
0.00374373
0.007231
0.00871982
0.00957179
0.0105719
0.0200186
0.0431054
0.019894
0.00260249
0.000974465
0.000708242
0.000646122
0.000580006
0.000556971
0.000465006
0.000376843
0.000302611
0.000218007
0.000180008
0.000136709
0.000104238
8.78207e-05
7.13795e-05
6.35159e-05
5.87144e-05
5.68272e-05
5.67573e-05
5.68381e-05
5.71079e-05
5.76237e-05
5.85548e-05
6.00489e-05
6.20386e-05
6.41296e-05
6.53647e-05
6.58782e-05
6.60632e-05
6.60375e-05
6.52113e-05
6.31829e-05
6.06506e-05
5.84546e-05
5.65469e-05
5.43633e-05
5.20824e-05
5.00783e-05
4.80325e-05
4.58942e-05
4.40583e-05
4.26432e-05
4.11908e-05
3.97531e-05
3.85329e-05
3.67915e-05
3.50827e-05
3.41824e-05
3.32019e-05
3.14892e-05
3.05822e-05
2.90346e-05
2.7656e-05
2.61543e-05
2.45744e-05
2.29139e-05
2.11949e-05
1.94249e-05
1.76243e-05
1.58306e-05
1.41097e-05
1.25179e-05
1.101e-05
9.58864e-06
8.27672e-06
7.09355e-06
6.0476e-06
5.13372e-06
4.33965e-06
3.65492e-06
3.06962e-06
2.57257e-06
2.15236e-06
1.7979e-06
1.499e-06
1.24721e-06
1.03436e-06
8.5525e-07
7.03393e-07
5.75193e-07
4.68423e-07
3.80471e-07
3.08607e-07
2.50069e-07
2.02352e-07
1.63377e-07
1.31515e-07
1.05495e-07
8.42908e-08
6.70525e-08
5.3075e-08
4.17777e-08
3.26838e-08
2.54008e-08
1.96033e-08
1.50189e-08
1.14194e-08
8.61373e-09
6.44307e-09
4.77692e-09
3.5087e-09
2.55188e-09
1.83671e-09
1.30747e-09
9.20068e-10
6.39851e-10
4.39718e-10
2.98629e-10
2.00434e-10
1.32947e-10
8.7144e-11
5.64479e-11
3.61338e-11
2.28586e-11
1.42914e-11
8.83109e-12
5.39397e-12
3.25687e-12
1.94422e-12
1.14759e-12
6.69846e-13
3.8666e-13
2.20756e-13
1.24651e-13
6.96495e-14
3.84913e-14
2.10912e-14
1.14361e-14
6.19174e-15
3.31327e-15
1.8724e-15
9.36188e-16
6.29481e-16
5.60843e-16
6.29109e-16
6.48034e-15
2.90667e-12
2.03423e-09
2.32986e-07
3.77238e-05
0.000326032
0.000353094
0.000372633
0.000411775
0.000438046
0.000451896
0.000461519
0.000501839
0.000526422
0.000560495
0.000632865
0.000691563
0.000711573
0.000719753
0.000740848
0.000786943
0.00079842
0.000793898
0.000779696
0.00074941
0.000698184
0.000661599
0.000614514
0.000553277
0.000542733
0.000546342
0.000564203
0.00062343
0.000795815
0.00145898
0.00161881
0.00163198
0.00213557
0.00252177
0.00346743
0.0100421
0.0151642
0.0165667
0.0114179
0.00364607
0.000968408
0.000530355
0.000394638
0.000336736
0.00028778
0.0002549
0.000233931
0.000216943
0.000208599
0.000202653
0.000199806
0.000197078
0.000191144
0.000182926
0.000176147
0.000172029
0.000167652
0.000166469
0.000166408
0.00016667
0.00016735
0.000168657
0.000170903
0.000174133
0.000177721
0.000179895
0.000180834
0.000181176
0.000181012
0.000178572
0.000172836
0.000165723
0.000159557
0.000154534
0.000149718
0.000144696
0.000139077
0.00013277
0.000126747
0.000121623
0.000117077
0.000112608
0.000108494
0.000104874
0.000101026
9.63367e-05
9.14578e-05
8.90879e-05
8.52466e-05
8.09768e-05
7.86823e-05
7.53887e-05
7.25063e-05
6.97089e-05
6.69821e-05
6.43139e-05
6.16392e-05
5.8915e-05
5.61332e-05
5.32081e-05
5.00356e-05
4.65782e-05
4.29008e-05
3.90231e-05
3.49706e-05
3.08751e-05
2.69553e-05
2.34458e-05
2.03148e-05
1.74762e-05
1.49386e-05
1.27141e-05
1.07982e-05
9.16855e-06
7.79353e-06
6.64029e-06
5.68118e-06
4.88805e-06
4.23408e-06
3.69316e-06
3.24114e-06
2.85788e-06
2.52696e-06
2.23584e-06
1.97496e-06
1.73667e-06
1.51555e-06
1.31009e-06
1.12138e-06
9.50514e-07
7.97894e-07
6.63277e-07
5.45972e-07
4.44987e-07
3.59123e-07
2.87032e-07
2.27251e-07
1.78251e-07
1.3852e-07
1.06632e-07
8.12917e-08
6.13541e-08
4.58227e-08
3.38396e-08
2.46901e-08
1.77856e-08
1.26441e-08
8.87147e-09
6.14471e-09
4.20138e-09
2.83547e-09
1.88879e-09
1.24184e-09
8.0592e-10
5.16275e-10
3.26486e-10
2.03838e-10
1.25661e-10
7.65034e-11
4.60049e-11
2.73303e-11
1.60415e-11
9.30404e-12
5.33191e-12
3.02011e-12
1.68965e-12
9.3487e-13
5.10332e-13
2.76326e-13
1.45736e-13
8.03794e-14
3.67277e-14
2.34918e-14
1.89318e-14
2.52289e-14
1.06797e-13
5.62067e-12
4.38697e-09
2.60014e-08
4.10463e-05
0.000266199
0.000186385
0.00018279
0.000233691
0.000339771
0.000459661
0.000579327
0.000777015
0.000895429
0.00099242
0.00117692
0.0013156
0.00136184
0.00137268
0.00140792
0.00149027
0.00149868
0.00148572
0.00144081
0.00136852
0.00130937
0.00118754
0.00111522
0.00102406
0.000843788
0.000712314
0.000650771
0.000655814
0.000686657
0.000806863
0.00091182
0.00122876
0.00360704
0.00869379
0.0100462
0.0100084
0.0077578
0.00374906
0.0016724
0.000652995
0.000356228
0.000291029
0.000272034
0.000265332
0.0002634
0.000264663
0.000271649
0.000281977
0.000289889
0.000293499
0.000294711
0.000292687
0.000281997
0.000269118
0.000261537
0.000253849
0.000238482
0.000228256
0.000226207
0.000226056
0.000226546
0.000227845
0.000230129
0.000233605
0.000238376
0.000244096
0.000248101
0.000249492
0.00024969
0.000246952
0.000238203
0.000225518
0.000212781
0.000202911
0.000197462
0.000194137
0.000189391
0.000182657
0.000176715
0.000172205
0.000165473
0.000156356
0.000150465
0.000147013
0.000140252
0.000133389
0.000124959
0.000120744
0.000112854
0.000107165
0.000102241
9.74331e-05
9.29992e-05
8.887e-05
8.51017e-05
8.1649e-05
7.84301e-05
7.53654e-05
7.24088e-05
6.96124e-05
6.6989e-05
6.4463e-05
6.19738e-05
5.9485e-05
5.68335e-05
5.38709e-05
5.04552e-05
4.64498e-05
4.20223e-05
3.73986e-05
3.27177e-05
2.81479e-05
2.3875e-05
2.00529e-05
1.67532e-05
1.38831e-05
1.13946e-05
9.29453e-06
7.5776e-06
6.21104e-06
5.14493e-06
4.32269e-06
3.68865e-06
3.19389e-06
2.79953e-06
2.47729e-06
2.20733e-06
1.97462e-06
1.76822e-06
1.58068e-06
1.40723e-06
1.24523e-06
1.09353e-06
9.51789e-07
8.20345e-07
6.99608e-07
5.90178e-07
4.9257e-07
4.06776e-07
3.32361e-07
2.68626e-07
2.14709e-07
1.69664e-07
1.32504e-07
1.02236e-07
7.7897e-08
5.85814e-08
4.34614e-08
3.17946e-08
2.29276e-08
1.62937e-08
1.14095e-08
7.87172e-09
5.35094e-09
3.58396e-09
2.36526e-09
1.53806e-09
9.85537e-10
6.22401e-10
3.8752e-10
2.3794e-10
1.44098e-10
8.60932e-11
5.07412e-11
2.9516e-11
1.69294e-11
9.59205e-12
5.35224e-12
2.95694e-12
1.58937e-12
8.97294e-13
3.81825e-13
6.92149e-13
5.92175e-13
1.58887e-12
1.74825e-11
1.5189e-11
4.635e-10
1.84857e-09
2.40112e-05
9.98853e-05
9.69098e-05
0.000130371
0.000221458
0.000368857
0.000553765
0.000668869
0.000890384
0.00110242
0.00122741
0.00149517
0.00168576
0.00181269
0.00187261
0.00197397
0.00216177
0.00225799
0.00225427
0.00222069
0.0021389
0.00206326
0.0019871
0.00180477
0.00145027
0.00133383
0.0011748
0.000896703
0.000755756
0.000739142
0.000825405
0.0016383
0.00651327
0.00833913
0.00855955
0.00792503
0.00431844
0.00182365
0.000852729
0.000456306
0.000317345
0.000290261
0.000289111
0.000305267
0.000345375
0.000405706
0.000463984
0.000499572
0.000519582
0.000527388
0.00052888
0.000520315
0.000496929
0.000475787
0.000457631
0.000438581
0.000419335
0.000397376
0.000374072
0.000352789
0.000333323
0.000325613
0.000324656
0.000325876
0.00033042
0.000339666
0.000354638
0.000374461
0.000385482
0.000388431
0.000388552
0.000380787
0.000356551
0.000320713
0.000294511
0.000283307
0.000277229
0.000270296
0.000261016
0.000255007
0.000252067
0.000246025
0.000234243
0.000223962
0.000217978
0.000210648
0.000200041
0.000187575
0.00017637
0.000162863
0.000150353
0.000138432
0.000127455
0.000117278
0.000108425
0.000100869
9.44835e-05
8.91232e-05
8.45183e-05
8.04894e-05
7.69331e-05
7.38319e-05
7.11044e-05
6.86507e-05
6.63657e-05
6.42402e-05
6.22383e-05
6.02946e-05
5.83344e-05
5.62682e-05
5.40359e-05
5.14971e-05
4.84755e-05
4.49094e-05
4.0843e-05
3.63178e-05
3.14621e-05
2.64371e-05
2.15092e-05
1.70455e-05
1.32619e-05
1.01615e-05
7.72437e-06
5.87818e-06
4.51867e-06
3.53645e-06
2.83349e-06
2.33031e-06
1.96616e-06
1.69589e-06
1.4875e-06
1.31929e-06
1.17685e-06
1.05114e-06
9.37101e-07
8.31876e-07
7.34312e-07
6.43505e-07
5.588e-07
4.80296e-07
4.08392e-07
3.4344e-07
2.8561e-07
2.34851e-07
1.90916e-07
1.53399e-07
1.21782e-07
9.54851e-08
7.39085e-08
5.64573e-08
4.25438e-08
3.16106e-08
2.31467e-08
1.66953e-08
1.18565e-08
8.28753e-09
5.70041e-09
3.85811e-09
2.56946e-09
1.68404e-09
1.0864e-09
6.9004e-10
4.31584e-10
2.6584e-10
1.61267e-10
9.63635e-11
5.67104e-11
3.28848e-11
1.87779e-11
1.05673e-11
5.864e-12
3.19446e-12
1.74373e-12
8.8936e-13
5.3716e-13
3.29612e-13
1.436e-12
1.69735e-12
1.72963e-11
1.00369e-10
9.11388e-06
4.93893e-05
7.02684e-05
0.000127437
0.000278649
0.000432832
0.000606745
0.00077238
0.000968821
0.00131367
0.00150658
0.00183849
0.00207536
0.0022408
0.00251837
0.00279001
0.00313606
0.00329946
0.00330309
0.00325482
0.00313186
0.00288534
0.00265849
0.0025512
0.00235521
0.0018276
0.0015137
0.00131806
0.000893885
0.000917977
0.00247772
0.00662317
0.00750167
0.00736482
0.00535764
0.00257968
0.00118668
0.00057725
0.000370864
0.000310457
0.000300891
0.000318839
0.000369488
0.000467464
0.000546166
0.000597566
0.000626664
0.000639846
0.000644381
0.000644432
0.000633352
0.000613961
0.000600356
0.000588073
0.000570586
0.000554451
0.000546252
0.000535868
0.00052063
0.000501189
0.000487577
0.000473397
0.000470376
0.000470794
0.000474542
0.000482576
0.000493705
0.000507657
0.000515054
0.000516358
0.000515005
0.000505749
0.000483482
0.000449212
0.00041229
0.000383687
0.000367894
0.000359995
0.000351748
0.000341394
0.000333155
0.000326988
0.000319831
0.000311149
0.000306649
0.000303079
0.000297736
0.000291982
0.000284598
0.000273472
0.000257654
0.000236032
0.000208988
0.000180381
0.000155486
0.000135628
0.000119213
0.000107002
9.79678e-05
9.10146e-05
8.53149e-05
8.04548e-05
7.62527e-05
7.2703e-05
6.97486e-05
6.7317e-05
6.52479e-05
6.33706e-05
6.16013e-05
5.98838e-05
5.81569e-05
5.64397e-05
5.46206e-05
5.24406e-05
4.98083e-05
4.69412e-05
4.40142e-05
4.09742e-05
3.75241e-05
3.32429e-05
2.8123e-05
2.2726e-05
1.77335e-05
1.35438e-05
1.01694e-05
7.54816e-06
5.57332e-06
4.12329e-06
3.08156e-06
2.34616e-06
1.83333e-06
1.47748e-06
1.22907e-06
1.05179e-06
9.19989e-07
8.17013e-07
7.30841e-07
6.52977e-07
5.77799e-07
5.04329e-07
4.34409e-07
3.69359e-07
3.10096e-07
2.57147e-07
2.10681e-07
1.7058e-07
1.36516e-07
1.08004e-07
8.44632e-08
6.52623e-08
4.97988e-08
3.75124e-08
2.78855e-08
2.04489e-08
1.47866e-08
1.05388e-08
7.4009e-09
5.11958e-09
3.48802e-09
2.34035e-09
1.54623e-09
1.00571e-09
6.43901e-10
4.05711e-10
2.51504e-10
1.5335e-10
9.19513e-11
5.42161e-11
3.14367e-11
1.79229e-11
1.00602e-11
5.54272e-12
3.03328e-12
1.5923e-12
8.8776e-13
3.89949e-13
3.31344e-13
2.48454e-13
1.03823e-12
5.56605e-12
2.93265e-05
5.04621e-05
7.03284e-05
0.000153906
0.000327193
0.000472681
0.000631075
0.000910088
0.00118715
0.00159112
0.00198738
0.00247439
0.0031417
0.00362408
0.00465143
0.00572597
0.00639811
0.00659657
0.00644013
0.00602349
0.00538067
0.00458794
0.003768
0.00322304
0.00276808
0.00257531
0.00228448
0.00139689
0.00113659
0.00313983
0.00613304
0.00676873
0.00644028
0.00369848
0.00177571
0.000856103
0.000474189
0.000342937
0.000314484
0.000314493
0.000349617
0.000439916
0.000548251
0.000618296
0.000676842
0.000701028
0.000709913
0.000711908
0.000711407
0.000707077
0.000693826
0.000677071
0.000667773
0.000649988
0.000626691
0.000617322
0.000612039
0.000600127
0.000581978
0.000575341
0.000570371
0.000558362
0.000543444
0.000536718
0.000533262
0.000530665
0.000530021
0.000533061
0.000536689
0.0005373
0.000535962
0.000527982
0.000510199
0.000480505
0.000444464
0.000409636
0.000386006
0.000375415
0.000367817
0.000357352
0.000345121
0.000336447
0.000331173
0.000325207
0.000322563
0.000321478
0.000321202
0.000321568
0.000321909
0.000322333
0.0003229
0.000322888
0.000319482
0.000306246
0.000276976
0.000234132
0.000186721
0.000148008
0.000122942
0.00010615
9.56553e-05
8.8557e-05
8.29915e-05
7.81601e-05
7.3911e-05
7.02925e-05
6.73472e-05
6.49914e-05
6.30447e-05
6.13459e-05
5.97449e-05
5.8163e-05
5.6692e-05
5.5278e-05
5.35555e-05
5.1214e-05
4.84793e-05
4.57799e-05
4.32992e-05
4.10808e-05
3.88267e-05
3.58973e-05
3.1727e-05
2.65045e-05
2.10841e-05
1.62223e-05
1.2179e-05
8.94673e-06
6.45018e-06
4.58236e-06
3.22804e-06
2.27564e-06
1.62492e-06
1.19132e-06
9.07147e-07
7.204e-07
5.94926e-07
5.07925e-07
4.46413e-07
3.99759e-07
3.58653e-07
3.17674e-07
2.76424e-07
2.3637e-07
1.98728e-07
1.64385e-07
1.3387e-07
1.0739e-07
8.49029e-08
6.61863e-08
5.08897e-08
3.85972e-08
2.88757e-08
2.1306e-08
1.55011e-08
1.11171e-08
7.85694e-09
5.47012e-09
3.75038e-09
2.53124e-09
1.68118e-09
1.09839e-09
7.05618e-10
4.45536e-10
2.76423e-10
1.68462e-10
1.00835e-10
5.92491e-11
3.41984e-11
1.93449e-11
1.07913e-11
5.83916e-12
3.20291e-12
1.59241e-12
9.79177e-13
4.24719e-13
6.44806e-13
5.53487e-13
2.62956e-12
3.28662e-12
7.70374e-05
8.62017e-05
9.30493e-05
0.000193053
0.000355585
0.000523172
0.000745348
0.00112447
0.00163893
0.0020697
0.00289447
0.00421419
0.0058686
0.00737567
0.0103266
0.0121333
0.0133557
0.013238
0.0126664
0.0112504
0.00959879
0.00807289
0.00643133
0.00519186
0.00440848
0.00332767
0.00219876
0.00155502
0.0032094
0.0054693
0.00602113
0.00564849
0.00296182
0.00135778
0.000692407
0.000422972
0.000335561
0.000318303
0.000326243
0.0003729
0.000485571
0.000583869
0.000652436
0.000709745
0.000740513
0.000771153
0.000792736
0.00081184
0.000831289
0.000844842
0.000857637
0.000875713
0.000884379
0.000885522
0.000872713
0.000865361
0.000861664
0.000829755
0.000760321
0.000722199
0.000698343
0.000660784
0.000615916
0.000579873
0.00056421
0.000545811
0.000532478
0.000526287
0.000518053
0.000512794
0.000508543
0.000501938
0.000495206
0.000477645
0.000445606
0.00040979
0.000374482
0.000352958
0.000343513
0.000336672
0.000328149
0.000318258
0.000313998
0.000313031
0.000313467
0.00031525
0.000317544
0.000319748
0.000320052
0.00031949
0.000319674
0.000323176
0.000330369
0.000339372
0.000338153
0.000327818
0.000303048
0.000257111
0.000200136
0.00015035
0.000117203
9.88637e-05
8.88557e-05
8.27856e-05
7.80245e-05
7.36432e-05
6.96296e-05
6.63634e-05
6.38492e-05
6.18951e-05
6.0282e-05
5.88061e-05
5.73495e-05
5.60121e-05
5.48533e-05
5.35862e-05
5.16789e-05
4.89601e-05
4.59935e-05
4.33478e-05
4.12234e-05
3.95781e-05
3.80978e-05
3.61117e-05
3.29075e-05
2.83364e-05
2.30736e-05
1.80093e-05
1.36251e-05
1.00086e-05
7.14583e-06
4.96793e-06
3.37595e-06
2.25722e-06
1.50054e-06
1.007e-06
6.95467e-07
5.03503e-07
3.85439e-07
3.11071e-07
2.62711e-07
2.30718e-07
2.06752e-07
1.84458e-07
1.61512e-07
1.38534e-07
1.16412e-07
9.59029e-08
7.75263e-08
6.1552e-08
4.80351e-08
3.68709e-08
2.78505e-08
2.07088e-08
1.5161e-08
1.09291e-08
7.75723e-09
5.4204e-09
3.72799e-09
2.52303e-09
1.67977e-09
1.0998e-09
7.07898e-10
4.47767e-10
2.78226e-10
1.69762e-10
1.01695e-10
5.97663e-11
3.4476e-11
1.94915e-11
1.08274e-11
5.84378e-12
3.18193e-12
1.60928e-12
8.36606e-13
3.97415e-13
2.79762e-13
2.67659e-13
3.60274e-13
6.94591e-13
0.000159366
0.000124378
0.000103642
0.000228989
0.000400577
0.000618614
0.000982051
0.00152505
0.00206484
0.0029426
0.00462889
0.00716307
0.0099646
0.0133176
0.0171991
0.0194565
0.0202726
0.0204528
0.0199951
0.0183851
0.0157495
0.0128142
0.00942495
0.00651216
0.00457884
0.00295935
0.00227804
0.00309224
0.00486251
0.00528809
0.00480604
0.00240265
0.00114098
0.000605646
0.000403649
0.000340607
0.000329877
0.000340387
0.00040924
0.000536284
0.000622521
0.000689073
0.000745065
0.000787405
0.000850894
0.000918209
0.000992875
0.00107869
0.00118381
0.00129854
0.00143374
0.00157563
0.00168743
0.00176029
0.00180085
0.00181359
0.00176095
0.00166227
0.00149378
0.00137107
0.00116944
0.00106249
0.000960086
0.000801294
0.000740822
0.000681109
0.000609961
0.000577986
0.000535922
0.000508793
0.000493165
0.000472757
0.000458752
0.000438654
0.000413775
0.000388095
0.000363581
0.000344931
0.000336782
0.000333566
0.000331329
0.00033032
0.000331903
0.000335928
0.000342557
0.00035121
0.000357015
0.000359039
0.000353119
0.000338023
0.000318679
0.000304756
0.00029601
0.0002954
0.000309502
0.000324295
0.000323833
0.000303717
0.000269932
0.000227152
0.000178329
0.000132713
0.000103186
8.85874e-05
8.12239e-05
7.66573e-05
7.27007e-05
6.86576e-05
6.49945e-05
6.2271e-05
6.0339e-05
5.89029e-05
5.75467e-05
5.61715e-05
5.49195e-05
5.38913e-05
5.29224e-05
5.1553e-05
4.9267e-05
4.62048e-05
4.31458e-05
4.06269e-05
3.88261e-05
3.76287e-05
3.66673e-05
3.52964e-05
3.27994e-05
2.88273e-05
2.38147e-05
1.8715e-05
1.41649e-05
1.03398e-05
7.2837e-06
4.95869e-06
3.27209e-06
2.103e-06
1.32697e-06
8.32675e-07
5.29841e-07
3.50574e-07
2.46816e-07
1.8638e-07
1.50208e-07
1.28333e-07
1.14235e-07
1.02439e-07
9.02424e-08
7.76101e-08
6.51372e-08
5.33883e-08
4.27827e-08
3.35606e-08
2.58003e-08
1.9457e-08
1.44053e-08
1.04767e-08
7.48796e-09
5.26083e-09
3.63374e-09
2.46758e-09
1.64731e-09
1.08094e-09
6.97047e-10
4.41623e-10
2.74824e-10
1.67929e-10
1.00726e-10
5.92789e-11
3.42229e-11
1.93709e-11
1.07547e-11
5.83687e-12
3.11454e-12
1.62745e-12
8.30735e-13
4.06449e-13
1.96806e-13
1.10767e-13
9.53331e-14
1.33126e-13
0.000276689
0.000164319
0.00010859
0.000267198
0.000483519
0.000773314
0.00121599
0.00173108
0.00239992
0.00362998
0.00576059
0.00854116
0.0119363
0.016022
0.0198038
0.0218968
0.0224786
0.0216481
0.0201741
0.0181966
0.0155185
0.0124136
0.00892441
0.00594138
0.00382898
0.00297703
0.00314135
0.0043516
0.00468371
0.00416671
0.00199069
0.000988886
0.000561192
0.000398569
0.000349278
0.000339795
0.000349262
0.000406709
0.000526448
0.000612805
0.000699237
0.000777511
0.000860071
0.00095018
0.00108018
0.00124056
0.00145601
0.00173984
0.00210026
0.00252849
0.00302171
0.0035221
0.00395034
0.00427573
0.00443468
0.0044783
0.00424253
0.00388798
0.00335032
0.00306937
0.00240626
0.00201542
0.00176327
0.00134254
0.00117754
0.0010501
0.000886816
0.000801209
0.000722899
0.000643409
0.00058668
0.000531946
0.000489199
0.000453626
0.000420324
0.000395395
0.000376917
0.000368454
0.000367836
0.000374704
0.000388634
0.000401271
0.000408241
0.000412028
0.00041564
0.000421027
0.000427317
0.000431278
0.000431922
0.000426869
0.000411767
0.000376538
0.00032745
0.000284648
0.000264049
0.000253582
0.000257085
0.000267802
0.000267057
0.000243036
0.000210077
0.000176529
0.000139371
0.000106029
8.75159e-05
7.87382e-05
7.41238e-05
7.06686e-05
6.70557e-05
6.3222e-05
6.02473e-05
5.82754e-05
5.70983e-05
5.60302e-05
5.48602e-05
5.3722e-05
5.27542e-05
5.18657e-05
5.07225e-05
4.88527e-05
4.60558e-05
4.28869e-05
4.00489e-05
3.79136e-05
3.65453e-05
3.57512e-05
3.51416e-05
3.41574e-05
3.20653e-05
2.83321e-05
2.34e-05
1.82614e-05
1.36481e-05
9.78204e-06
6.73238e-06
4.45874e-06
2.85031e-06
1.76622e-06
1.06765e-06
6.36043e-07
3.7965e-07
2.32736e-07
1.51092e-07
1.06314e-07
8.14661e-08
6.76217e-08
5.97738e-08
5.38912e-08
4.77798e-08
4.12091e-08
3.45327e-08
2.81368e-08
2.23256e-08
1.72808e-08
1.30692e-08
9.67034e-09
7.00825e-09
4.97874e-09
3.46935e-09
2.37244e-09
1.59255e-09
1.04959e-09
6.79205e-10
4.31544e-10
2.69182e-10
1.64812e-10
9.9029e-11
5.83779e-11
3.37545e-11
1.91364e-11
1.06358e-11
5.79141e-12
3.08904e-12
1.61462e-12
8.26202e-13
4.13424e-13
2.01327e-13
9.55536e-14
4.49739e-14
3.84858e-14
0.000425794
0.000207422
0.000123023
0.000284146
0.000525949
0.000853766
0.00131574
0.00181811
0.00252298
0.0038507
0.00603152
0.00878915
0.0122866
0.0164384
0.0189445
0.0200945
0.0204786
0.0198797
0.0183074
0.0162312
0.0134672
0.0100768
0.00638323
0.00427441
0.00347642
0.00332548
0.00394321
0.00417592
0.00369993
0.00177274
0.000906615
0.000553035
0.000417556
0.000371958
0.000358722
0.000375084
0.000442214
0.000563975
0.000660493
0.000753033
0.000858401
0.000992542
0.0011595
0.00136108
0.00161525
0.00195539
0.00245129
0.00318607
0.00416989
0.0053943
0.00680033
0.00822575
0.00948942
0.010371
0.0107547
0.0108193
0.00983959
0.00898364
0.00742204
0.0064351
0.00526305
0.00401577
0.00338915
0.00232462
0.00186609
0.00149202
0.00118539
0.00103774
0.000898148
0.000825292
0.000734342
0.000666705
0.000606319
0.000554332
0.000508069
0.000467951
0.00043855
0.000423762
0.000417764
0.000416457
0.000418427
0.000421117
0.000421994
0.000419846
0.000416576
0.000414803
0.000415133
0.000417616
0.000422142
0.000429103
0.000437574
0.0004399
0.000427977
0.000387155
0.00031355
0.000250605
0.000217663
0.000194992
0.000183603
0.000187895
0.000192402
0.000181759
0.000157882
0.000132663
0.000104706
8.51071e-05
7.57339e-05
7.11562e-05
6.81113e-05
6.49837e-05
6.12545e-05
5.79713e-05
5.57845e-05
5.47429e-05
5.40527e-05
5.324e-05
5.23455e-05
5.14847e-05
5.06179e-05
4.94911e-05
4.77575e-05
4.51957e-05
4.21461e-05
3.92554e-05
3.69679e-05
3.54342e-05
3.45517e-05
3.40521e-05
3.35649e-05
3.26951e-05
3.08166e-05
2.68944e-05
2.17805e-05
1.66268e-05
1.21019e-05
8.41563e-06
5.60561e-06
3.58759e-06
2.21373e-06
1.32233e-06
7.68551e-07
4.37894e-07
2.47777e-07
1.42532e-07
8.63832e-08
5.7141e-08
4.18216e-08
3.38121e-08
2.97547e-08
2.71016e-08
2.42993e-08
2.10384e-08
1.75722e-08
1.41898e-08
1.11108e-08
8.45883e-09
6.27528e-09
4.54424e-09
3.21639e-09
2.22742e-09
1.51046e-09
1.00359e-09
6.53643e-10
4.17449e-10
2.61474e-10
1.60639e-10
9.67979e-11
5.72055e-11
3.31513e-11
1.8835e-11
1.04892e-11
5.7242e-12
3.06025e-12
1.60249e-12
8.21731e-13
4.12708e-13
2.02397e-13
9.82411e-14
4.41566e-14
2.27078e-14
0.000593667
0.000268237
0.000155282
0.000285422
0.000540356
0.000881882
0.00134147
0.00180584
0.00227596
0.00317506
0.00450619
0.00593003
0.00756865
0.00986186
0.0122071
0.0134193
0.0139099
0.0137994
0.0123767
0.0107583
0.00802921
0.00570485
0.00429449
0.00373674
0.00360192
0.00363871
0.00375402
0.00326048
0.00162443
0.00087528
0.000568695
0.000450871
0.000407193
0.000389905
0.000408274
0.000500219
0.00059686
0.000694521
0.000772252
0.00088526
0.00103256
0.00124214
0.00151209
0.00187019
0.00236704
0.00310768
0.00425615
0.00600454
0.00838779
0.0113883
0.0148696
0.0184505
0.0215948
0.0233641
0.0240541
0.0238978
0.0213334
0.0189301
0.0156838
0.0119836
0.0100762
0.00740579
0.00599217
0.00426879
0.00334158
0.00243378
0.00183245
0.0014325
0.00116392
0.000963414
0.000827823
0.000726096
0.000652912
0.000590434
0.000538755
0.000498436
0.000466118
0.000439732
0.000424819
0.000416128
0.00040719
0.000391211
0.000366902
0.000337557
0.000307784
0.000280717
0.000258207
0.000243576
0.000240383
0.000253656
0.000297822
0.000369221
0.000422738
0.00043333
0.000412762
0.000353014
0.000265276
0.000197956
0.000159641
0.000134993
0.000124328
0.000131194
0.000142122
0.000138018
0.000119816
9.90933e-05
8.13528e-05
7.21052e-05
6.79556e-05
6.54283e-05
6.25607e-05
5.90086e-05
5.55554e-05
5.31014e-05
5.19797e-05
5.16044e-05
5.12311e-05
5.07113e-05
5.00549e-05
4.92105e-05
4.79999e-05
4.6216e-05
4.37475e-05
4.08445e-05
3.802e-05
3.57114e-05
3.4116e-05
3.31929e-05
3.2738e-05
3.24294e-05
3.19585e-05
3.10046e-05
2.88393e-05
2.43287e-05
1.89732e-05
1.39724e-05
9.78576e-06
6.54162e-06
4.18942e-06
2.5797e-06
1.53262e-06
8.81661e-07
4.93203e-07
2.69992e-07
1.46243e-07
7.99739e-08
4.56371e-08
2.82681e-08
1.9537e-08
1.54548e-08
1.38558e-08
1.29793e-08
1.18427e-08
1.02977e-08
8.55076e-09
6.8174e-09
5.24741e-09
3.91661e-09
2.84293e-09