/*--------------------------------*- C++ -*----------------------------------*\
  =========                 |
  \\      /  F ield         | OpenFOAM: The Open Source CFD Toolbox
   \\    /   O peration     | Website:  https://openfoam.org
    \\  /    A nd           | Version:  7
     \\/     M anipulation  |
\*---------------------------------------------------------------------------*/
FoamFile
{
    version     2.0;
    format      ascii;
    class       volScalarField;
    location    "0.052";
    object      nut;
}
// * * * * * * * * * * * * * * * * * * * * * * * * * * * * * * * * * * * * * //

dimensions      [0 2 -1 0 0 0 0];

internalField   nonuniform List<scalar> 
12225
(
0
0
0
0
0
0
0
0
0
0
2.81757e-10
2.23075e-10
0
0
0
0
0
0
0
0
0
0
0
0
0
0
0
0
2.90364e-10
1.86425e-10
0
0
0
0
0
0
0
5.47168e-10
4.68573e-10
0
0
0
0
0
0
0
3.6143e-11
0
0
0
0
0
0
0
5.82322e-09
8.05257e-09
1.0648e-08
4.98473e-09
0
0
0
0
0
0
0
0
0
0
0
0
0
0
0
0
1.07004e-07
4.47301e-08
0
0
0
0
0
0
0
0
0
1.40598e-11
8.09279e-13
0
0
0
0
1.10545e-07
1.8504e-07
3.60165e-08
0
0
0
0
3.12798e-08
2.33738e-08
1.62678e-08
1.21938e-08
7.10223e-09
2.10354e-09
0
0
0
0
0
1.79877e-07
1.22018e-07
1.66951e-08
0
0
0
0
5.18981e-08
4.90326e-08
3.66032e-08
2.66396e-08
2.03762e-08
1.58961e-08
1.3349e-08
1.19883e-08
1.38063e-08
1.52023e-08
0
2.41255e-07
1.05966e-07
4.66183e-08
1.2884e-08
0
0
0
0
1.36715e-08
2.36782e-08
3.0965e-08
3.94768e-08
4.80756e-08
5.71527e-08
7.2202e-08
1.03061e-07
1.41415e-07
0
0
3.34897e-07
1.70195e-07
1.64179e-07
2.49323e-07
8.63026e-08
0
0
0
3.11769e-09
4.23203e-08
8.44885e-08
1.19981e-07
1.43043e-07
1.83401e-07
2.35084e-07
2.47783e-07
0
0
1.1422e-06
6.27394e-07
4.39791e-07
5.32266e-07
3.44116e-07
0
0
0
2.99657e-08
1.68954e-07
2.09464e-07
1.61233e-07
1.40528e-07
1.51623e-07
1.37126e-07
1.0604e-07
0
0
1.02103e-06
1.15098e-06
6.25493e-07
5.9647e-07
6.23368e-07
4.85477e-07
2.63315e-07
5.90612e-07
1.11862e-06
9.5572e-07
5.58608e-07
2.4106e-07
8.66822e-08
6.28413e-08
7.27644e-08
7.24959e-08
5.05234e-08
1.54875e-07
7.29373e-07
1.74203e-06
1.26579e-06
8.39554e-07
9.67057e-07
1.24275e-06
1.00005e-06
8.24214e-07
6.56954e-07
3.77049e-07
1.14049e-07
8.53245e-09
0
1.46301e-09
9.28126e-09
1.80024e-08
3.90272e-07
5.04282e-07
2.60294e-07
3.34325e-07
4.07099e-07
4.98288e-07
5.70039e-07
3.40514e-07
1.14366e-07
9.77752e-08
8.58089e-08
3.73216e-08
0
0
1.44445e-08
2.84388e-08
2.36861e-08
1.23438e-09
5.13651e-07
4.37349e-07
0
0
9.41618e-09
7.79781e-08
2.81603e-08
0
0
0
0
0
0
0
0
0
0
0
8.40927e-08
0
0
0
0
0
0
0
0
0
0
0
0
0
0
0
0
0
0
0
0
0
0
0
0
0
0
2.21088e-08
0
0
0
0
0
0
0
0
0
0
0
0
0
0
0
0
0
9.52074e-08
3.17415e-08
0
0
0
0
0
0
1.12229e-08
5.23994e-08
0
0
0
0
0
2.86459e-07
4.52901e-07
1.62273e-07
1.29065e-07
1.14933e-07
3.51439e-08
1.4213e-08
6.74069e-08
1.0859e-07
1.14771e-07
1.05493e-07
9.16326e-08
5.93003e-07
4.45544e-07
1.03266e-07
0
0
0
0
0
7.39306e-08
2.56752e-08
0
0
0
0
0
0
9.58853e-08
1.83945e-07
6.04297e-07
0
0
0
0
0
0
6.49622e-08
1.04986e-07
4.84653e-08
0
9.25612e-10
4.74006e-09
0
0
0
0
4.72661e-08
0
0
0
0
0
0
0
0
0
0
0
0
0
0
0
0
0
5.51367e-08
5.22542e-08
0
0
0
0
0
0
0
0
0
0
0
0
0
0
4.20551e-08
1.88462e-07
3.01561e-07
8.01056e-07
0
0
0
0
0
0
0
0
0
0
0
3.42615e-08
1.45708e-07
2.94967e-07
4.25136e-07
4.80937e-07
4.66092e-07
5.78221e-07
5.05006e-08
0
1.29044e-07
0
0
0
4.06965e-09
5.22729e-08
5.48552e-08
3.59681e-08
1.37208e-08
5.17777e-09
9.6258e-09
1.27015e-08
2.56361e-08
5.49494e-08
8.78771e-08
0
0
0
0
0
0
0
0
2.33043e-08
9.51335e-08
1.31291e-07
7.41177e-08
0
0
0
0
0
0
1.67355e-08
0
0
0
0
0
0
0
8.23522e-09
8.64923e-08
1.62298e-07
1.59931e-07
7.35024e-08
0
0
0
0
0
6.71002e-08
0
0
0
0
0
0
0
0
0
0
0
0
0
0
0
0
0
7.06599e-09
0
0
0
0
0
0
0
0
0
0
0
0
0
0
0
0
0
9.31883e-09
0
0
0
0
0
0
0
0
0
0
0
0
0
0
0
0
0
7.18265e-08
0
0
0
0
0
0
0
0
0
0
0
0
0
0
0
0
0
1.50258e-07
1.59801e-07
2.62938e-07
3.0908e-07
1.8188e-07
1.44816e-08
0
0
0
0
0
0
0
0
0
0
0
0
0
1.62118e-08
3.53314e-08
5.16156e-08
6.37127e-08
6.92144e-08
5.93068e-08
4.15323e-08
1.6579e-08
3.76855e-09
8.08862e-09
0
0
0
0
0
1.55311e-06
2.76599e-06
3.89486e-06
6.87117e-06
1.4746e-05
2.02665e-05
7.88821e-06
1.14676e-06
1.65362e-07
0
0
9.22021e-11
2.13093e-08
3.21603e-08
3.43342e-08
3.14988e-08
2.52504e-08
2.04726e-08
1.51876e-08
1.08284e-08
7.71492e-09
5.04827e-09
3.09773e-09
1.51237e-09
1.7232e-10
0
0
0
0
0
0
0
0
0
0
0
0
0
0
0
0
0
0
0
0
0
0
0
0
0
0
0
0
0
0
0
0
0
0
0
0
0
0
0
0
0
0
0
0
0
0
0
0
0
0
0
0
0
0
0
0
0
0
0
0
0
0
0
0
0
0
0
0
0
0
0
0
0
0
0
0
0
0
0
0
0
0
0
0
0
0
0
0
0
0
0
0
0
0
0
0
0
0
0
0
0
0
0
0
0
0
0
0
0
0
0
0
0
0
0
0
0
0
0
9.40704e-13
1.77253e-11
3.69137e-07
3.69607e-07
3.44149e-07
4.6205e-07
5.14811e-07
4.09635e-07
2.12408e-07
1.25239e-08
0
0
0
0
0
0
0
0
0
0
0
3.89008e-08
7.86747e-08
1.08931e-07
1.26321e-07
1.29634e-07
1.09521e-07
9.35185e-08
1.00768e-07
1.90119e-07
4.03273e-07
7.64277e-07
1.44412e-06
6.62717e-07
0
0
0
0
0
0
0
7.57378e-07
1.01991e-06
4.15645e-07
1.16541e-07
2.38382e-09
0
0
1.43816e-08
2.57958e-08
3.0237e-08
3.03875e-08
2.80258e-08
2.45463e-08
2.05551e-08
1.6349e-08
1.23122e-08
8.72583e-09
5.5975e-09
2.81967e-09
3.61911e-10
0
0
0
0
0
0
0
0
0
0
0
0
0
0
0
0
0
0
0
0
0
0
0
0
0
0
0
0
0
0
0
0
0
0
0
0
0
0
0
0
0
0
0
0
0
0
0
0
0
0
0
0
0
0
0
0
0
0
0
0
0
0
0
0
0
0
0
0
0
0
0
0
0
0
0
0
0
0
0
0
0
0
0
0
0
0
0
0
0
0
0
0
0
0
0
0
0
0
0
0
0
0
0
0
0
0
0
0
0
0
0
0
0
0
0
0
0
0
0
1.50622e-11
0
1.88547e-07
3.26012e-07
2.57366e-07
3.26514e-07
4.58577e-07
5.69232e-07
6.43658e-07
6.94919e-07
7.68081e-07
7.75867e-07
7.48158e-07
7.13838e-07
6.12153e-07
4.38892e-07
2.34993e-07
5.56687e-08
0
0
0
9.66726e-09
2.231e-08
7.87613e-09
0
0
0
8.91847e-08
2.1531e-07
2.9798e-07
2.21598e-07
4.75904e-08
0
0
0
0
0
0
0
0
0
4.14452e-08
1.87544e-07
9.76653e-08
9.74698e-09
0
0
5.36052e-09
4.57121e-08
7.86291e-08
9.58819e-08
9.69929e-08
8.78269e-08
7.40188e-08
5.91784e-08
4.47118e-08
3.22581e-08
2.2231e-08
1.39383e-08
6.89472e-09
1.03321e-09
0
0
0
0
0
0
0
0
0
0
0
0
0
0
0
0
0
0
0
0
0
0
0
0
0
0
0
0
0
0
0
0
0
0
0
0
0
0
0
0
0
0
0
0
0
0
0
0
0
0
0
0
0
0
0
0
0
0
0
0
0
0
0
0
0
0
0
0
0
0
0
0
0
0
0
0
0
0
0
0
0
0
0
0
0
0
0
0
0
0
0
0
0
0
0
0
0
0
0
0
0
0
0
0
0
0
0
0
0
0
0
0
0
0
1.38765e-14
0
5.47674e-14
4.61348e-13
0
1.46062e-11
0
4.13893e-08
1.34524e-07
1.81157e-07
2.99564e-07
4.7863e-07
6.41356e-07
8.01223e-07
8.90064e-07
1.02943e-06
1.13855e-06
1.17492e-06
1.23936e-06
1.2155e-06
1.10072e-06
8.94287e-07
6.44939e-07
4.20373e-07
2.75413e-07
1.49852e-07
0
0
0
0
0
0
0
0
0
0
0
0
0
0
0
0
0
0
2.57645e-09
0
0
0
0
0
8.10556e-09
1.6558e-07
4.32827e-07
7.64067e-07
1.00561e-06
1.09008e-06
1.06255e-06
9.98299e-07
9.22889e-07
8.27452e-07
6.99085e-07
5.08013e-07
2.59525e-07
2.09788e-08
0
0
0
0
0
0
0
0
0
0
0
0
0
0
0
0
0
0
0
0
0
0
0
0
0
0
0
0
0
0
0
0
0
0
0
0
0
0
0
0
0
0
0
0
0
0
0
0
0
0
0
0
0
0
0
0
0
0
0
0
0
0
0
0
0
0
0
0
0
0
0
0
0
0
0
0
0
0
0
0
0
0
0
0
0
0
0
0
0
0
0
0
0
0
0
0
0
0
0
0
0
0
0
0
0
0
0
0
0
0
0
0
0
0
0
0
0
3.97069e-14
0
4.2342e-13
0
5.45951e-12
0
2.30946e-09
3.31866e-08
1.13924e-07
3.18254e-07
5.57104e-07
7.13395e-07
8.53778e-07
9.67184e-07
1.07512e-06
1.21557e-06
1.20957e-06
1.14934e-06
9.1071e-07
5.0596e-07
3.6879e-08
0
1.51594e-07
1.13121e-06
1.62662e-06
1.30752e-06
6.66204e-07
8.15601e-08
0
0
0
0
0
0
0
0
0
0
0
0
0
0
0
0
0
0
0
1.36617e-07
4.87745e-07
9.81373e-07
1.41488e-06
1.52079e-06
1.37343e-06
1.18676e-06
1.06836e-06
1.03508e-06
1.07128e-06
1.15867e-06
1.26921e-06
1.29627e-06
1.01275e-06
2.76991e-07
0
0
0
0
0
0
0
0
0
0
0
0
0
0
0
0
0
0
0
0
0
0
0
0
0
0
0
0
0
0
0
0
0
0
0
0
0
0
0
0
0
0
0
0
0
0
0
0
0
0
0
0
0
0
0
0
0
0
0
0
0
0
0
0
0
0
0
0
0
0
0
0
0
0
0
0
0
0
0
0
0
0
0
0
0
0
0
0
0
0
0
0
0
0
0
0
0
0
0
0
0
0
0
0
0
0
0
0
0
0
0
0
0
0
0
0
0
0
6.36269e-14
0
5.00882e-13
0
2.65927e-12
0
0
3.48847e-09
5.80306e-08
3.52226e-07
5.81893e-07
7.05862e-07
8.13347e-07
9.65438e-07
1.05111e-06
1.05614e-06
8.2162e-07
2.51763e-07
0
0
0
0
2.04719e-06
6.29205e-06
6.20309e-06
4.28998e-06
2.37064e-06
9.70201e-07
1.20302e-07
0
0
0
0
0
0
0
0
0
0
0
0
0
0
0
0
7.89007e-08
5.60043e-07
1.3251e-06
2.07787e-06
2.15771e-06
1.73412e-06
1.24247e-06
8.79426e-07
6.51217e-07
5.29865e-07
4.89457e-07
5.15489e-07
6.07269e-07
7.75862e-07
1.00753e-06
1.15745e-06
5.45261e-07
0
0
0
0
0
0
0
0
0
0
0
0
0
0
0
0
0
0
0
0
0
0
0
0
0
0
0
0
0
0
0
0
0
0
0
0
0
0
0
0
0
0
0
0
0
0
0
0
0
0
0
0
0
0
0
0
0
0
0
0
0
0
0
0
0
0
0
0
0
0
0
0
0
0
0
0
0
0
0
0
0
0
0
0
0
0
0
0
0
0
0
0
0
0
0
0
0
0
0
0
0
0
0
0
0
0
0
0
0
0
0
0
0
0
0
0
0
0
2.3934e-12
0
5.05901e-12
0
1.03841e-11
0
0
0
2.32442e-08
3.56739e-07
5.17822e-07
6.11309e-07
7.02397e-07
7.90356e-07
7.25435e-07
2.51474e-07
0
0
0
0
0
8.0328e-06
2.3857e-05
2.00565e-05
1.41022e-05
8.89785e-06
5.02413e-06
2.4277e-06
8.38098e-07
0
0
0
0
0
0
0
0
0
0
0
0
0
0
0
4.92654e-07
1.38158e-06
2.6653e-06
2.8327e-06
1.83128e-06
9.71831e-07
4.22419e-07
1.1326e-07
0
0
0
0
0
0
2.46651e-08
1.27986e-07
1.65625e-07
0
0
0
0
0
0
4.32556e-09
2.36521e-08
2.36714e-08
1.09773e-08
0
0
0
0
0
0
0
0
0
0
0
0
3.13873e-09
1.18582e-08
0
0
0
0
0
0
0
0
0
0
0
0
0
0
0
0
0
0
0
0
0
0
0
0
0
0
0
0
0
0
0
0
0
0
0
0
0
0
0
0
0
0
0
0
0
0
0
0
0
0
0
0
0
0
0
0
0
0
0
0
0
0
0
0
0
0
0
0
0
0
0
0
0
0
0
0
0
0
0
0
0
0
0
0
0
0
0
0
0
0
0
0
0
0
0
0
0
0
0
0
0
0
0
3.50478e-09
2.81475e-07
3.65961e-07
4.10523e-07
4.46564e-07
3.5788e-07
0
0
0
0
1.92082e-06
1.73756e-05
3.36717e-05
4.23964e-05
3.81261e-05
2.98835e-05
2.21605e-05
1.50716e-05
9.00665e-06
4.5874e-06
1.74974e-06
2.53411e-07
0
0
0
0
0
0
0
0
0
0
0
0
3.62584e-07
1.05263e-06
2.26322e-06
3.94805e-06
2.74852e-06
1.33941e-06
5.21614e-07
7.2767e-08
0
0
0
0
0
0
0
0
0
1.51217e-08
0
0
0
0
0
0
0
1.81429e-08
4.18214e-08
4.71403e-08
4.52806e-08
3.74736e-08
2.68029e-08
1.82342e-08
1.58851e-08
2.4686e-08
4.34186e-08
6.20325e-08
6.69488e-08
4.9144e-08
1.58218e-08
0
0
0
0
0
0
0
0
0
0
0
0
0
0
0
0
0
0
0
0
0
0
0
0
0
0
0
0
0
0
0
0
0
0
0
0
0
0
0
0
0
0
0
0
0
0
0
0
0
0
0
0
0
0
0
0
0
0
0
0
0
0
0
0
0
0
0
0
0
0
0
0
0
0
0
0
0
0
0
0
0
0
0
0
0
0
0
0
0
0
0
0
0
0
0
0
0
0
0
0
0
0
0
0
0
0
0
0
8.944e-08
9.95298e-08
9.07424e-08
4.96611e-08
0
0
9.15876e-07
6.57535e-06
1.1908e-05
1.56016e-05
1.98032e-05
2.44598e-05
2.71523e-05
2.64821e-05
2.41106e-05
2.1719e-05
1.82582e-05
1.24683e-05
6.26461e-06
2.24638e-06
6.88742e-07
2.32942e-07
0
0
0
0
0
0
0
0
0
7.20422e-08
0
0
0
4.60207e-07
1.5802e-06
9.72915e-07
3.50604e-07
0
0
0
0
0
0
0
0
0
0
1.78287e-07
2.30839e-07
0
0
0
0
2.0115e-07
3.35759e-07
3.49617e-07
3.19183e-07
2.69364e-07
1.99473e-07
1.54267e-07
1.21775e-07
9.91449e-08
8.95589e-08
8.3861e-08
7.82395e-08
7.32803e-08
6.76065e-08
5.83373e-08
3.89878e-08
7.02894e-09
0
0
0
0
0
0
0
0
0
0
0
0
0
0
0
0
0
0
0
0
0
0
0
0
0
0
0
0
0
0
0
0
0
0
0
0
0
0
0
0
0
0
0
0
0
0
0
0
0
0
0
0
0
0
0
0
0
0
0
0
0
0
0
0
0
0
0
0
0
0
0
0
0
0
0
0
0
0
0
0
0
0
0
0
0
0
0
0
0
0
0
0
0
0
0
0
0
0
0
0
0
0
0
0
0
0
0
0
0
0
0
0
0
1.17915e-06
4.14286e-06
6.78859e-06
8.36439e-06
9.96296e-06
1.18643e-05
1.30536e-05
1.32601e-05
1.27126e-05
1.20479e-05
1.20035e-05
1.30512e-05
1.44828e-05
1.0899e-05
4.6443e-06
2.22151e-06
8.12948e-07
1.30031e-07
0
0
0
0
0
0
0
0
0
0
0
0
1.72959e-07
5.28492e-07
2.56462e-07
0
0
0
0
0
0
0
0
1.32216e-07
6.38761e-07
1.26947e-06
1.76704e-06
1.42955e-06
0
0
0
0
1.13257e-07
5.48237e-07
7.28854e-07
7.21599e-07
6.53928e-07
4.78878e-07
3.43729e-07
2.2987e-07
1.5685e-07
1.31752e-07
1.32924e-07
1.44671e-07
1.41525e-07
1.2015e-07
8.50556e-08
4.63212e-08
9.46404e-09
0
0
0
0
0
0
0
0
0
0
0
0
0
0
0
0
0
0
0
0
0
0
0
0
0
0
0
0
0
0
0
0
0
0
0
0
0
0
0
0
0
0
0
0
0
0
0
0
0
0
0
0
0
0
0
0
0
0
0
0
0
0
0
0
0
0
0
0
0
0
0
0
0
0
0
0
0
0
0
0
0
0
0
0
0
0
0
0
0
0
0
0
0
0
0
0
0
0
0
0
0
0
0
0
0
0
0
0
0
0
0
0
0
8.084e-07
2.41644e-06
3.51418e-06
4.01621e-06
4.44485e-06
4.99867e-06
5.33415e-06
5.10376e-06
4.53008e-06
3.81437e-06
2.94393e-06
2.00426e-06
1.06825e-06
2.02828e-06
3.68665e-06
2.31334e-06
1.30958e-06
7.24609e-07
3.43068e-07
8.28401e-08
0
0
0
0
0
0
0
0
0
0
3.33916e-08
9.679e-08
0
0
0
0
0
0
0
3.63413e-08
6.42241e-07
1.73014e-06
3.43443e-06
5.81406e-06
8.48651e-06
7.53496e-06
0
0
0
0
0
0
4.89645e-07
7.69936e-07
8.5216e-07
7.32103e-07
5.64301e-07
3.62645e-07
2.04521e-07
1.01562e-07
5.5867e-08
5.92562e-08
9.38061e-08
1.31707e-07
1.50968e-07
1.44365e-07
1.20668e-07
9.12689e-08
6.08504e-08
2.94888e-08
0
0
0
0
0
0
0
0
0
0
0
0
0
0
0
0
0
0
0
0
0
0
0
0
0
0
0
0
0
0
0
0
0
0
0
0
0
0
0
0
0
0
0
0
0
0
0
0
0
0
0
0
0
0
0
0
0
0
0
0
0
0
0
0
0
0
0
0
0
0
0
0
0
0
0
0
0
0
0
0
0
0
0
0
0
0
0
0
0
0
0
0
0
0
0
0
0
0
0
0
0
0
0
0
0
0
0
0
0
0
0
9.06063e-07
1.78805e-06
2.1305e-06
2.19006e-06
2.1926e-06
2.10183e-06
1.84424e-06
1.49639e-06
1.11022e-06
7.58112e-07
5.71881e-07
8.73522e-07
1.7306e-06
2.18491e-06
2.06021e-06
1.74352e-06
1.40203e-06
1.14032e-06
9.71765e-07
4.09767e-07
1.44254e-07
7.53449e-08
3.67389e-08
0
0
0
0
0
0
0
0
0
0
0
0
0
0
1.36514e-07
8.37389e-07
2.19654e-06
4.52036e-06
8.05211e-06
1.26803e-05
1.69441e-05
7.71415e-06
0
0
0
0
0
0
0
2.80375e-07
5.98701e-07
7.00791e-07
6.16564e-07
4.53601e-07
2.94117e-07
1.59605e-07
6.03388e-08
1.41419e-09
0
2.14258e-08
7.29061e-08
1.12197e-07
1.23026e-07
1.12768e-07
9.34506e-08
7.30319e-08
5.25441e-08
3.07149e-08
1.13049e-08
3.76976e-09
1.46225e-08
3.78345e-08
5.94359e-08
6.55072e-08
4.81668e-08
5.78297e-09
0
0
0
0
0
0
0
0
0
0
0
0
2.19648e-09
6.54643e-09
5.83416e-09
5.81077e-09
2.59088e-09
0
0
0
0
0
0
0
0
0
0
0
0
0
0
0
0
0
0
0
0
0
0
0
0
0
0
0
0
0
0
0
0
0
0
0
0
0
0
0
0
0
0
0
0
0
0
0
0
0
0
0
0
0
0
0
0
0
0
0
0
0
0
0
0
0
0
0
0
0
0
0
0
0
0
0
0
0
0
0
0
0
0
0
0
0
4.6913e-07
9.59217e-07
1.14223e-06
1.15703e-06
1.09927e-06
9.73177e-07
8.19193e-07
6.9451e-07
6.7867e-07
8.04703e-07
1.07902e-06
1.3904e-06
1.61272e-06
1.78909e-06
2.01171e-06
2.40942e-06
1.76087e-06
5.41121e-07
2.37459e-07
1.62582e-07
1.42431e-07
1.33415e-07
1.19679e-07
9.50097e-08
4.65639e-08
0
0
0
0
0
0
0
0
0
0
5.56156e-08
4.91131e-07
1.39898e-06
2.95991e-06
5.0517e-06
6.99731e-06
7.24527e-06
3.3414e-06
0
0
0
0
0
0
0
0
0
3.67418e-08
3.49863e-07
4.46734e-07
3.84132e-07
2.79157e-07
1.92502e-07
1.18605e-07
4.42525e-08
0
0
0
0
3.00662e-08
4.55173e-08
2.08088e-08
0
0
0
0
0
0
0
7.9507e-09
1.32426e-08
1.07448e-08
8.77798e-09
5.04827e-09
0
0
0
0
0
0
0
0
0
0
0
0
1.60729e-08
1.70715e-08
1.45774e-08
1.05353e-08
4.51732e-09
0
0
0
0
0
0
0
0
0
0
0
0
0
0
0
0
0
0
0
0
0
5.24513e-09
6.94417e-09
0
0
0
0
0
0
0
0
0
0
0
0
0
0
0
0
0
0
0
0
0
0
0
0
0
0
0
0
0
0
0
0
0
0
0
0
0
0
0
0
0
0
0
0
0
0
0
0
0
0
0
0
0
0
0
0
0
0
0
0
0
0
1.57821e-08
3.54983e-07
5.32449e-07
5.85015e-07
5.70757e-07
5.35991e-07
5.25411e-07
5.60326e-07
6.40644e-07
7.62915e-07
9.34699e-07
1.16093e-06
1.5231e-06
1.78967e-06
1.25125e-06
5.63995e-07
2.65196e-07
1.73257e-07
1.65697e-07
1.92114e-07
2.24768e-07
2.37073e-07
2.17907e-07
1.75134e-07
1.22386e-07
7.45802e-08
3.546e-08
1.01482e-09
0
0
0
0
0
0
3.93926e-08
2.31867e-07
5.7079e-07
9.80431e-07
1.17682e-06
6.41935e-07
0
0
0
0
0
0
0
0
0
0
0
0
0
1.52846e-07
2.48145e-07
2.12825e-07
1.55654e-07
1.18495e-07
8.66545e-08
3.97785e-08
0
0
0
0
5.48445e-08
5.58945e-08
0
0
0
0
0
0
0
0
0
0
0
0
0
0
0
0
0
0
0
0
0
0
0
8.74001e-09
1.66577e-08
1.37767e-08
1.07202e-08
7.1828e-09
2.73534e-09
0
0
0
0
0
0
0
0
0
0
0
0
0
0
0
0
0
0
0
0
0
0
9.52659e-09
1.28892e-08
0
0
0
0
0
0
0
0
0
0
0
0
0
0
0
0
0
0
0
0
0
0
0
0
0
0
0
0
0
0
0
0
0
0
0
0
0
0
0
0
0
0
0
0
0
0
0
0
0
0
0
0
0
0
0
0
0
0
0
0
0
0
0
0
5.94339e-08
1.52009e-07
2.17233e-07
2.83171e-07
3.64299e-07
4.69651e-07
6.12227e-07
8.02937e-07
1.01405e-06
1.11686e-06
8.94895e-07
5.51191e-07
2.72223e-07
1.23458e-07
8.79722e-08
1.34309e-07
2.2839e-07
3.26791e-07
3.81469e-07
3.68553e-07
3.09419e-07
2.42174e-07
1.92278e-07
1.61335e-07
1.40289e-07
1.15269e-07
8.25045e-08
5.38625e-08
4.22997e-08
3.97256e-08
0
0
0
0
0
0
0
0
0
0
0
0
0
0
0
0
0
0
0
0
0
1.01191e-07
1.19868e-07
8.44874e-08
6.14932e-08
5.13225e-08
3.4399e-08
4.46608e-09
0
0
0
7.2776e-08
1.35974e-07
9.20554e-08
0
0
0
0
0
0
0
0
0
0
0
0
2.1499e-08
0
0
0
0
0
0
0
0
2.42142e-08
3.21094e-08
2.32241e-08
1.13624e-08
2.83729e-09
0
0
0
0
0
0
0
0
0
0
0
0
0
0
0
0
0
0
0
0
0
0
0
0
3.55859e-10
1.11915e-08
1.33231e-08
0
0
0
0
0
0
0
0
0
0
0
0
0
0
0
0
0
0
0
0
0
0
0
0
0
0
0
0
0
0
0
0
0
0
0
0
0
0
0
0
0
0
0
0
0
0
0
0
0
1.71914e-08
0
0
0
0
0
0
0
0
0
0
0
0
0
0
0
8.08551e-08
2.32742e-07
3.79816e-07
5.31665e-07
6.778e-07
7.99637e-07
8.51014e-07
7.64141e-07
5.50745e-07
3.32738e-07
1.31425e-07
0
0
1.16399e-08
1.49603e-07
3.14304e-07
4.45098e-07
5.01885e-07
4.83253e-07
4.16878e-07
3.44639e-07
2.9658e-07
2.81562e-07
2.7856e-07
2.6802e-07
2.52714e-07
2.4491e-07
2.29694e-07
1.35449e-07
0
0
0
0
0
0
0
0
0
0
0
0
0
0
0
0
0
0
0
1.76822e-08
9.98018e-08
7.38383e-08
1.02244e-08
1.54139e-08
3.38997e-08
0
0
0
0
0
8.18581e-08
1.43482e-07
1.63443e-07
1.25348e-07
3.96994e-08
0
0
0
0
0
0
0
0
0
0
0
0
0
0
0
0
0
2.32223e-08
4.63978e-08
4.61731e-08
4.21068e-08
3.45744e-08
2.46036e-08
1.26714e-08
1.72331e-09
0
0
0
3.00996e-10
1.91151e-09
2.4977e-09
2.63133e-09
3.64236e-10
0
0
0
0
0
0
1.17457e-09
1.21729e-09
0
0
0
0
0
2.46271e-10
0
0
3.717e-09
1.45682e-08
1.1998e-08
0
0
0
0
0
0
0
0
0
0
0
0
0
0
0
0
0
0
0
0
0
0
0
0
0
0
0
0
0
0
0
0
0
0
0
0
0
0
0
0
0
0
0
0
0
0
0
0
1.69497e-08
0
0
0
0
0
0
0
0
0
0
0
0
0
0
0
6.43971e-08
2.28988e-07
3.78266e-07
5.1394e-07
6.1899e-07
6.70064e-07
6.5483e-07
5.58427e-07
4.01652e-07
2.38209e-07
7.2066e-08
0
0
0
0
1.42988e-07
3.02386e-07
4.21772e-07
4.85634e-07
4.90683e-07
4.49606e-07
3.92646e-07
3.55816e-07
3.50689e-07
3.64555e-07
3.829e-07
4.04739e-07
4.19031e-07
3.75431e-07
1.73952e-07
0
0
0
0
0
0
0
0
0
0
0
0
1.82403e-08
5.37424e-07
5.79612e-07
4.99575e-07
3.17497e-07
1.31403e-07
9.77659e-08
1.40402e-07
8.72539e-08
0
0
6.72623e-08
3.52533e-08
0
0
0
0
2.87931e-08
7.35419e-08
7.56252e-08
5.49692e-08
2.37586e-08
0
0
0
0
0
0
0
0
0
0
0
0
5.87131e-09
2.33639e-08
1.45765e-08
8.28958e-09
1.56105e-08
3.50562e-08
4.44262e-08
3.99857e-08
3.87632e-08
3.86219e-08
3.42234e-08
2.49863e-08
1.60458e-08
1.12982e-08
8.95419e-09
8.13696e-09
8.88306e-09
9.66405e-09
8.94869e-09
7.36671e-09
5.21746e-09
1.05932e-09
0
0
0
0
1.18875e-09
2.72795e-09
3.43554e-09
1.87019e-09
0
0
0
0
0
0
0
0
7.19738e-09
1.89178e-08
8.46565e-09
0
0
0
0
0
0
0
0
0
0
0
0
0
0
0
0
0
0
0
0
0
0
0
0
0
0
0
0
0
0
0
0
0
0
0
0
0
0
0
0
0
0
0
0
0
0
0
0
0
0
0
0
0
0
0
0
0
0
0
0
0
0
0
4.69837e-08
1.83424e-07
3.04313e-07
4.0704e-07
4.83336e-07
5.22744e-07
5.13299e-07
4.48289e-07
3.32382e-07
2.13273e-07
8.76755e-08
0
0
0
0
0
8.52079e-08
2.04946e-07
3.19107e-07
4.01377e-07
4.37402e-07
4.29174e-07
4.00068e-07
3.81345e-07
3.8658e-07
4.15763e-07
4.56779e-07
4.94646e-07
5.11451e-07
4.47511e-07
2.00464e-07
0
0
0
0
0
0
0
0
0
0
1.44815e-06
2.00435e-06
1.51716e-06
9.23253e-07
5.73147e-07
3.30435e-07
1.26586e-07
8.35678e-08
1.30251e-07
8.08769e-08
0
0
1.01578e-07
1.12101e-07
0
0
0
0
0
9.53999e-09
3.57642e-08
1.60186e-08
0
0
0
0
0
0
0
0
0
0
0
0
0
0
3.62032e-08
5.16925e-08
4.34044e-08
3.5199e-08
3.2157e-08
2.97601e-08
2.67632e-08
2.80924e-08
3.09247e-08
3.12531e-08
2.79541e-08
2.40053e-08
2.48547e-08
2.8808e-08
3.01787e-08
2.75966e-08
2.29602e-08
1.82918e-08
1.46647e-08
1.16925e-08
8.19126e-09
4.07199e-09
1.13169e-09
6.43118e-10
1.16164e-09
2.2506e-09
4.04509e-09
5.21128e-09
3.63485e-09
0
0
0
0
0
0
0
0
0
1.07934e-08
2.30982e-08
2.86924e-09
0
0
0
0
0
0
0
0
0
0
0
0
0
0
0
0
0
0
0
0
0
0
0
0
0
0
0
0
0
0
0
0
0
0
0
0
0
0
0
0
0
0
0
0
0
0
0
0
0
0
0
0
0
0
0
0
0
0
0
0
0
0
1.68043e-08
1.21972e-07
2.14447e-07
2.89494e-07
3.46754e-07
3.77112e-07
3.77424e-07
3.44043e-07
2.74361e-07
2.00287e-07
1.1433e-07
3.5961e-08
0
0
0
0
0
3.1809e-08
1.12084e-07
2.02889e-07
2.84649e-07
3.36917e-07
3.55946e-07
3.52719e-07
3.51372e-07
3.51255e-07
3.8228e-07
4.04056e-07
4.24263e-07
4.0377e-07
3.26885e-07
8.31168e-08
0
0
0
0
0
0
0
0
2.1343e-06
2.99209e-06
2.10404e-06
1.19697e-06
5.99656e-07
3.71107e-07
2.49188e-07
9.01937e-08
4.18848e-08
1.1615e-07
8.54033e-08
0
0
1.257e-07
1.51924e-07
0
0
0
0
0
0
3.41793e-08
3.78129e-09
0
0
0
0
0
0
0
0
0
0
0
0
0
0
1.11762e-08
5.80066e-08
6.31409e-08
5.25825e-08
4.69031e-08
4.64086e-08
3.99394e-08
3.1139e-08
2.74308e-08
2.73109e-08
2.72817e-08
2.56378e-08
2.59443e-08
3.14435e-08
3.87183e-08
4.26482e-08
3.95805e-08
3.09355e-08
2.2811e-08
1.90589e-08
1.73346e-08
1.51638e-08
1.24119e-08
9.37906e-09
4.82398e-09
1.03161e-09
1.60994e-09
5.50415e-09
7.0108e-09
2.14661e-09
0
0
0
0
0
0
0
0
0
1.64958e-08
2.28107e-08
0
0
0
0
0
0
0
0
0
0
0
0
0
0
0
0
0
0
0
0
0
0
0
0
0
0
0
0
0
0
0
0
0
0
0
0
0
0
0
0
0
0
0
0
0
0
0
0
0
0
0
0
0
0
0
0
0
0
0
0
0
0
0
4.65547e-08
1.17745e-07
1.79167e-07
2.24224e-07
2.51311e-07
2.56949e-07
2.41688e-07
2.07757e-07
1.72531e-07
1.19789e-07
6.46195e-08
1.41688e-08
0
0
0
0
0
0
3.8047e-08
9.15366e-08
1.47897e-07
2.0158e-07
2.26116e-07
2.4487e-07
2.45568e-07
2.47066e-07
2.53101e-07
2.5954e-07
2.44277e-07
2.21468e-07
1.40018e-07
0
0
0
0
0
0
0
0
1.97535e-06
1.32733e-06
8.74938e-07
5.57967e-07
3.06642e-07
2.33603e-07
2.14927e-07
7.35362e-08
0
6.89512e-08
8.91103e-08
0
0
4.69355e-08
1.30781e-07
0
0
0
0
0
0
4.13464e-08
2.4385e-10
0
0
0
0
0
0
0
0
0
0
0
0
0
0
2.2102e-08
8.12189e-08
8.84784e-08
7.6782e-08
6.85263e-08
6.7441e-08
6.55162e-08
5.90121e-08
5.27639e-08
4.96201e-08
4.79359e-08
4.30949e-08
3.40818e-08
2.73022e-08
2.89952e-08
3.73797e-08
4.41055e-08
4.21751e-08
3.32044e-08
2.5992e-08
2.43087e-08
2.49661e-08
2.45283e-08
2.05186e-08
1.10951e-08
6.93256e-10
0
6.81963e-10
7.79535e-09
7.65349e-09
0
0
0
0
0
0
0
0
0
0
2.08798e-08
1.19183e-08
0
0
0
0
0
0
0
0
0
0
0
0
0
0
0
0
0
0
0
0
0
0
0
0
0
0
0
0
0
0
0
0
0
0
0
0
0
0
0
0
0
0
0
0
0
0
0
0
0
0
0
0
0
0
0
0
0
0
0
0
0
0
0
2.22192e-08
6.37792e-08
9.95318e-08
1.25992e-07
1.40323e-07
1.41534e-07
1.30102e-07
1.14472e-07
8.85901e-08
5.67966e-08
2.28928e-08
0
0
0
0
0
0
0
0
1.6378e-08
4.19587e-08
6.55193e-08
8.24976e-08
9.38148e-08
9.30172e-08
9.15385e-08
8.87054e-08
7.88193e-08
7.22986e-08
6.28967e-08
5.33658e-08
4.94303e-08
6.76514e-08
1.35096e-07
2.82594e-07
5.29668e-07
5.57009e-07
1.11434e-07
2.20259e-08
8.75189e-08
2.18595e-07
2.78627e-07
2.06729e-07
1.72833e-07
1.89371e-07
5.3982e-08
0
1.58696e-08
1.06522e-07
0
0
0
4.28303e-08
0
0
0
0
0
0
0
1.45957e-08
0
0
0
0
0
0
0
0
0
0
0
0
0
0
6.87756e-08
1.34812e-07
1.29834e-07
1.05109e-07
8.61998e-08
8.14021e-08
8.53264e-08
8.80471e-08
8.70321e-08
8.42929e-08
8.25076e-08
7.90572e-08
7.00147e-08
5.3992e-08
3.8049e-08
3.25105e-08
3.81019e-08
4.41054e-08
4.24236e-08
3.55783e-08
3.13526e-08
3.1917e-08
3.38816e-08
3.23067e-08
2.17743e-08
4.41306e-09
0
0
3.0024e-09
1.0636e-08
5.71412e-09
0
0
0
0
0
0
0
0
0
0
1.29508e-08
0
0
0
0
0
0
0
0
0
0
0
0
0
0
0
0
0
0
0
0
0
0
0
0
0
0
0
0
0
0
0
0
0
0
0
0
0
0
0
0
0
0
0
0
0
0
0
0
0
0
0
0
0
0
0
0
0
0
0
0
0
0
0
0
0
0
2.08239e-08
3.43035e-08
4.04478e-08
4.1313e-08
3.87887e-08
3.16409e-08
2.18944e-08
9.58287e-09
0
0
0
0
0
0
0
0
0
0
0
0
0
0
0
0
0
0
0
0
3.25556e-08
1.61671e-07
3.66085e-07
6.26664e-07
7.32033e-07
3.22753e-07
0
0
0
1.78456e-07
2.88591e-07
2.25363e-07
1.4812e-07
1.52597e-07
1.56975e-08
0
0
8.42894e-08
0
0
0
0
0
0
0
0
0
0
0
0
0
0
0
0
0
0
0
0
0
0
0
0
0
0
9.18438e-08
1.78732e-07
1.71078e-07
1.39428e-07
1.1203e-07
9.87934e-08
1.0189e-07
1.09655e-07
1.1338e-07
1.11073e-07
1.07359e-07
1.03221e-07
9.66341e-08
8.39542e-08
6.49334e-08
4.75063e-08
4.0409e-08
4.30324e-08
4.63309e-08
4.46389e-08
4.0462e-08
3.88527e-08
4.04376e-08
4.10428e-08
3.37216e-08
1.42058e-08
0
0
0
8.36173e-09
1.16098e-08
1.40174e-09
0
0
0
0
0
0
0
0
0
0
0
0
0
0
0
0
0
0
0
0
0
0
0
0
0
0
0
0
0
0
0
0
0
0
0
0
0
0
0
0
0
0
0
0
0
0
0
0
0
0
0
0
0
0
0
0
0
0
0
0
3.84923e-08
7.4276e-08
1.46422e-09
0
1.29573e-09
1.36543e-08
8.21441e-09
0
0
0
0
0
0
0
0
0
0
0
0
0
0
0
0
0
0
0
0
0
0
0
0
0
0
0
0
0
0
0
0
0
0
0
0
0
0
1.64425e-08
1.8866e-07
3.60701e-07
3.46931e-07
3.2548e-08
0
0
1.03436e-07
2.8196e-07
3.40427e-07
2.13998e-07
5.51409e-08
3.48821e-08
0
0
0
3.59758e-08
0
0
0
0
0
0
0
0
0
0
0
0
0
0
0
0
0
0
0
6.84565e-09
0
0
0
0
0
0
1.29501e-07
2.01431e-07
1.93429e-07
1.6677e-07
1.41824e-07
1.25577e-07
1.21014e-07
1.24958e-07
1.28304e-07
1.26382e-07
1.20193e-07
1.12982e-07
1.05961e-07
9.71823e-08
8.24853e-08
6.4531e-08
5.09576e-08
4.67019e-08
4.9001e-08
5.09558e-08
4.97313e-08
4.73208e-08
4.66028e-08
4.68417e-08
4.25668e-08
2.64415e-08
2.75749e-09
0
0
3.0394e-09
1.33637e-08
9.3607e-09
0
0
0
0
0
0
0
0
0
0
0
0
0
0
0
0
0
0
0
0
0
0
0
0
0
0
0
0
0
0
0
0
0
0
0
0
0
0
0
0
0
0
0
0
0
0
0
0
0
0
0
0
0
0
0
0
0
0
0
0
0
0
0
0
0
0
0
0
0
0
0
0
0
0
0
0
0
0
0
0
0
0
0
0
0
0
0
0
0
0
0
0
0
0
0
0
0
0
0
0
0
0
0
0
0
0
0
1.21105e-07
1.12992e-07
0
0
8.61514e-08
2.41634e-07
3.52331e-07
3.07052e-07
6.08535e-08
0
0
0
0
0
3.58365e-10
0
0
0
0
0
0
0
0
0
0
0
0
0
0
0
0
0
0
5.25708e-08
7.57465e-08
4.93932e-08
3.177e-08
2.87593e-08
0
0
4.26213e-08
1.96027e-07
2.25521e-07
2.06718e-07
1.82525e-07
1.63882e-07
1.51105e-07
1.43444e-07
1.3944e-07
1.36892e-07
1.32728e-07
1.25067e-07
1.14881e-07
1.05861e-07
9.892e-08
9.04609e-08
7.7037e-08
6.30751e-08
5.44899e-08
5.32785e-08
5.58462e-08
5.73494e-08
5.63447e-08
5.39335e-08
5.19163e-08
4.82224e-08
3.65839e-08
1.35071e-08
0
0
0
1.14818e-08
1.44181e-08
5.16758e-09
0
0
0
0
0
0
0
0
0
0
0
0
0
0
0
0
0
0
0
0
0
0
0
0
0
0
0
0
0
0
0
0
0
0
0
0
0
0
0
0
0
0
0
0
0
0
0
0
0
0
0
0
0
0
0
1.68633e-07
2.22437e-07
8.19795e-08
0
0
0
0
0
0
0
0
1.84294e-08
1.77005e-08
0
0
0
0
0
0
0
0
0
0
0
0
0
0
0
0
0
0
0
0
0
0
0
0
0
0
0
0
0
0
0
0
0
0
0
0
0
0
4.94817e-08
5.49036e-08
0
2.4368e-08
1.80483e-07
2.84675e-07
3.00707e-07
1.15572e-07
0
0
0
0
0
2.14395e-08
1.2615e-09
0
0
0
0
0
0
0
0
0
0
0
0
0
0
0
0
0
7.89164e-09
8.85231e-08
1.08964e-07
1.07481e-07
1.15836e-07
9.14252e-08
3.92787e-08
3.02471e-08
1.54204e-07
2.19819e-07
2.32155e-07
2.14738e-07
1.91541e-07
1.76299e-07
1.68123e-07
1.62335e-07
1.55458e-07
1.46307e-07
1.36504e-07
1.25869e-07
1.13446e-07
1.02772e-07
9.63189e-08
9.2012e-08
8.55852e-08
7.51615e-08
6.51791e-08
6.00955e-08
6.06136e-08
6.32205e-08
6.40046e-08
6.15823e-08
5.72732e-08
5.22511e-08
4.34147e-08
2.45186e-08
1.51351e-09
0
0
7.75026e-09
1.60882e-08
1.14748e-08
1.15867e-09
0
0
0
0
0
0
0
0
0
0
0
0
0
0
0
0
0
0
0
0
0
0
0
0
0
0
0
0
0
0
0
0
0
0
0
0
0
0
0
0
0
0
0
0
0
0
0
0
0
0
0
0
0
0
7.80605e-09
0
0
0
0
0
0
0
0
0
0
0
0
0
0
0
0
0
0
0
0
0
0
0
0
0
0
0
0
0
0
0
0
0
0
0
0
0
0
0
0
0
0
0
0
0
0
0
0
0
0
5.54432e-08
5.37637e-08
0
7.74535e-08
1.78063e-07
1.84416e-07
9.36394e-08
0
0
0
0
0
1.98769e-07
1.52944e-07
5.18983e-08
0
0
0
6.73467e-08
0
0
0
0
0
0
0
0
0
1.37852e-08
3.63865e-08
2.31896e-08
1.94033e-08
4.84641e-08
9.90576e-08
1.12431e-07
1.13446e-07
9.60492e-08
6.18975e-08
4.48157e-08
1.25229e-07
1.97489e-07
2.23565e-07
2.2698e-07
2.16605e-07
1.97964e-07
1.80425e-07
1.7397e-07
1.70725e-07
1.64407e-07
1.52617e-07
1.38001e-07
1.23015e-07
1.08871e-07
9.79553e-08
9.21696e-08
9.0508e-08
8.89548e-08
8.41373e-08
7.55074e-08
6.7873e-08
6.5304e-08
6.71511e-08
6.90673e-08
6.71545e-08
6.15729e-08
5.48949e-08
4.68656e-08
3.27217e-08
1.02797e-08
0
0
3.52813e-09
1.47649e-08
1.46103e-08
6.76792e-09
0
0
0
0
0
0
0
0
0
0
0
0
0
0
0
0
0
0
0
0
0
0
0
0
0
0
0
0
0
0
0
0
0
0
0
0
0
0
0
0
0
0
0
0
0
0
0
0
0
0
0
0
0
0
3.15363e-09
2.46657e-08
2.06866e-08
0
0
0
0
0
0
0
0
0
0
0
0
0
0
0
0
0
0
0
0
0
0
0
0
0
0
0
0
0
0
0
0
0
0
0
0
0
0
0
0
0
0
0
0
0
0
0
0
1.73649e-07
1.50176e-07
0
0
0
0
0
0
0
0
3.46009e-07
2.27803e-07
1.47254e-07
9.28895e-08
4.6558e-08
0
0
0
7.76288e-08
0
0
0
0
0
0
0
0
0
1.62408e-08
7.50082e-08
6.75386e-08
6.42283e-08
7.73888e-08
9.65025e-08
9.99524e-08
8.78119e-08
6.69176e-08
4.824e-08
6.95152e-08
1.66407e-07
2.05514e-07
2.19979e-07
2.18743e-07
2.08351e-07
1.94199e-07
1.76386e-07
1.67809e-07
1.65004e-07
1.59601e-07
1.47887e-07
1.31683e-07
1.15396e-07
1.01356e-07
9.10073e-08
8.58842e-08
8.57181e-08
8.70081e-08
8.57589e-08
8.03804e-08
7.20437e-08
6.67839e-08
6.67958e-08
6.88506e-08
6.79053e-08
6.20707e-08
5.45995e-08
4.63171e-08
3.5567e-08
1.73525e-08
0
0
0
1.06522e-08
1.39967e-08
9.12709e-09
1.79651e-09
0
0
1.0726e-08
0
0
0
0
0
0
0
0
0
0
0
0
0
0
0
0
0
0
0
0
0
0
0
0
0
0
0
0
0
0
0
0
0
0
0
0
0
0
0
0
0
0
0
0
0
0
0
0
0
0
0
1.22286e-08
2.53242e-08
2.05056e-08
0
0
0
0
0
0
0
0
0
0
0
0
0
0
0
0
0
0
0
0
0
0
0
0
0
0
0
0
0
0
0
0
0
0
0
0
0
0
0
0
0
0
0
0
0
0
1.55865e-07
4.84848e-07
6.10661e-07
0
0
0
0
5.87471e-08
2.82089e-08
0
4.38803e-07
3.19122e-07
1.31405e-07
7.72471e-08
4.76826e-08
2.9964e-08
1.16354e-08
0
0
0
0
0
0
0
0
0
0
0
0
2.78751e-08
1.0178e-07
9.76578e-08
9.21458e-08
9.39787e-08
9.50558e-08
8.75749e-08
7.36952e-08
6.14198e-08
6.69495e-08
1.28394e-07
1.78216e-07
2.02328e-07
2.12866e-07
2.06735e-07
1.95402e-07
1.83345e-07
1.70083e-07
1.60107e-07
1.5679e-07
1.529e-07
1.42244e-07
1.26982e-07
1.11771e-07
9.84081e-08
8.82236e-08
8.29429e-08
8.2783e-08
8.55581e-08
8.67995e-08
8.4112e-08
7.6706e-08
6.90244e-08
6.64949e-08
6.7674e-08
6.7745e-08
6.28006e-08
5.50328e-08
4.6148e-08
3.64889e-08
2.26526e-08
5.22163e-09
0
0
5.26745e-09
1.09443e-08
9.14357e-09
3.57532e-09
0
0
9.23912e-09
1.93647e-08
0
0
0
0
0
0
0
0
0
0
0
0
0
0
0
0
0
0
0
0
0
0
0
0
0
0
0
0
0
0
0
0
0
0
0
0
0
0
0
0
0
0
0
0
0
0
0
0
1.74209e-10
0
5.34531e-10
3.26912e-09
4.18037e-09
2.38612e-09
0
0
0
0
0
0
0
0
0
0
0
0
0
0
0
0
0
0
0
0
0
0
0
0
0
0
0
0
0
0
0
0
0
0
0
0
0
0
0
0
0
0
0
0
0
1.20681e-07
3.63066e-07
3.79583e-07
0
0
0
2.15391e-07
2.22757e-07
0
1.74116e-07
5.7918e-07
2.40443e-07
9.9372e-08
5.4675e-08
3.34288e-08
2.3828e-08
1.40578e-08
0
0
0
0
0
0
0
3.3564e-07
0
0
0
0
7.66464e-08
1.27749e-07
1.15525e-07
1.04575e-07
9.92693e-08
9.17797e-08
7.98165e-08
6.89355e-08
7.06831e-08
9.95385e-08
1.44004e-07
1.62954e-07
1.85745e-07
1.96838e-07
1.8978e-07
1.77266e-07
1.64685e-07
1.5294e-07
1.43984e-07
1.39396e-07
1.37023e-07
1.3113e-07
1.1962e-07
1.06475e-07
9.42873e-08
8.44411e-08
7.86826e-08
7.75937e-08
8.01725e-08
8.27404e-08
8.23131e-08
7.70636e-08
6.83476e-08
6.31484e-08
6.24924e-08
6.26465e-08
5.9179e-08
5.24107e-08
4.42618e-08
3.53513e-08
2.53617e-08
1.13155e-08
0
0
1.09909e-10
5.86446e-09
6.73986e-09
3.58153e-09
0
0
8.58387e-10
2.08477e-08
1.13193e-08
0
0
0
0
0
0
0
0
0
0
0
0
0
0
0
0
0
0
0
0
0
0
0
0
0
0
0
0
0
0
0
0
0
0
0
0
0
0
0
0
0
0
0
0
0
0
0
5.49354e-10
0
0
0
0
4.0232e-10
1.17156e-09
1.74287e-09
6.6441e-10
0
0
0
0
0
0
0
0
0
0
0
0
0
0
0
0
0
0
0
0
0
0
0
0
0
0
0
0
0
0
0
0
0
0
0
0
0
0
0
0
0
3.856e-08
1.34425e-07
2.15588e-07
5.35127e-08
5.00107e-08
2.9641e-07
5.0989e-07
4.27879e-07
1.31527e-07
0
6.73159e-07
5.00085e-07
2.36805e-07
9.76327e-08
5.19818e-08
3.34847e-08
2.38981e-08
1.3749e-08
0
0
0
0
0
0
5.68011e-08
1.49895e-06
5.02643e-08
0
0
0
1.27223e-07
1.46156e-07
1.21673e-07
1.04674e-07
9.67474e-08
8.91106e-08
7.92192e-08
7.38486e-08
8.18449e-08
1.04196e-07
1.29311e-07
1.47082e-07
1.66484e-07
1.76156e-07
1.71576e-07
1.60507e-07
1.48823e-07
1.40401e-07
1.33027e-07
1.27038e-07
1.23985e-07
1.21266e-07
1.15212e-07