/*--------------------------------*- C++ -*----------------------------------*\
  =========                 |
  \\      /  F ield         | OpenFOAM: The Open Source CFD Toolbox
   \\    /   O peration     | Website:  https://openfoam.org
    \\  /    A nd           | Version:  7
     \\/     M anipulation  |
\*---------------------------------------------------------------------------*/
FoamFile
{
    version     2.0;
    format      ascii;
    class       volScalarField;
    location    "0.052";
    object      s;
}
// * * * * * * * * * * * * * * * * * * * * * * * * * * * * * * * * * * * * * //

dimensions      [0 0 0 0 0 0 0];

internalField   nonuniform List<scalar> 
12225
(
1
1
1
1
1
1
1
1
1
1
1
1
1
1
1
1
1
1
1
1
1
1
1
1
1
1
1
1
1
1
1
1
1
1
1
1
1
1
1
1
1
1
1
1
1
1
1
1
1
1
1
1
1
1
1
1
1
1
1
1
1
1
1
1
1
1
1
1
1
1
1
1
1
1
1
1
1
1
1
1
1
1
1
1
1
1
1
1
1
1
1
1
1
1
1
1
1
1
1
1
1
1
1
1
1
1
1
1
1
1
1
1
1
1
1
1
1
1
1
1
1
1
1
1
1
1
1
1
1
1
1
1
1
1
1
1
1
1
1
1
1
1
1
1
1
1
1
1
1
1
1
1
1
1
1
1
1
1
1
1
1
1
1
1
1
1
1
1
1
1
1
1
1
1
1
1
1
1
1
1
1
1
1
1
1
1
1
1
1
1
1
1
1
1
1
1
1
1
1
1
1
1
1
1
1
1
1
1
1
1
1
1
1
1
1
1
1
1
1
1
1
1
1
1
1
1
1
1
1
1
1
1
1
1
1
1
1
1
1
1
1
1
1
1
1
1
1
1
1
1
1
1
1
1
1
1
1
1
1
1
1
1
1
1
1
1
1
1
1
1
1
1
1
1
1
1
1
1
1
1
1
1
1
1
1
1
1
1
1
1
1
1
1
1
1
1
1
1
1
1
1
1
1
1
1
1
1
1
1
1
1
1
1
1
1
1
1
1
1
1
1
1
1
1
1
1
1
1
1
1
1
1
1
1
1
1
1
1
1
1
1
1
1
1
1
1
1
1
1
1
1
1
1
1
1
1
1
1
1
1
1
1
1
1
1
1
1
1
1
1
1
1
1
1
1
1
1
1
1
1
1
1
1
1
1
1
1
1
1
1
1
1
1
1
1
1
1
1
1
1
1
1
1
1
1
1
1
1
1
1
1
1
1
1
1
1
1
1
1
1
1
1
1
1
1
1
1
1
1
1
1
1
1
1
1
1
1
1
1
1
1
1
1
1
1
1
1
1
1
1
1
1
1
1
1
1
1
1
1
1
1
1
1
1
1
1
1
1
1
1
1
1
1
1
1
1
1
1
1
1
1
1
1
1
1
1
1
1
1
1
1
1
1
1
1
1
1
1
1
1
1
1
1
1
1
1
1
1
1
1
1
1
1
1
1
1
1
1
1
1
1
1
1
1
1
1
1
1
1
1
1
1
1
1
1
1
1
1
1
1
4.04531e-07
5.39414e-06
4.1544e-05
0.000135014
0.00032352
0.000755332
0.00126025
0.00251417
0.00427102
0.0061254
0.00884991
0.0130189
0.0160253
0.0203562
0.0224512
0.0247333
0.0252681
0.0247859
0.0236856
0.022368
0.0209611
0.0193617
0.0175813
0.0156879
0.0136329
0.0114176
0.00913855
0.00646339
0.00341594
0.00113224
0.000266339
0.000225437
0.000463978
0.00109921
0.00297852
0.00961624
0.0188299
0.0205084
0.0322335
0.243715
0.573423
0.584095
0.593159
0.618747
0.645639
0.662208
0.673544
0.684367
0.690535
0.693126
0.69395
0.693951
0.693211
0.69079
0.685679
0.677653
0.673889
0.673188
0.673141
0.673715
0.675163
0.677428
0.68164
0.688917
0.699586
0.712232
0.724173
0.733267
0.739242
0.742497
0.743855
0.744262
0.743913
0.740812
0.733975
0.725586
0.718208
0.711311
0.702731
0.693028
0.684441
0.676025
0.665847
0.655597
0.645658
0.633614
0.621614
0.607919
0.592626
0.576499
0.558201
0.538273
0.516302
0.492253
0.465957
0.437221
0.40595
0.372355
0.336403
0.298432
0.259147
0.219559
0.181063
0.145433
0.114674
0.090105
0.0694299
0.0517503
0.0372175
0.0258316
0.0173351
0.011253
0.00703714
0.00421916
0.0024184
0.00132161
0.000685817
0.000335795
0.000154026
6.43087e-05
2.47977e-05
9.32046e-06
3.41804e-06
1.22236e-06
4.2538e-07
1.4418e-07
4.78163e-08
1.32899e-08
4.40842e-09
1.96663e-09
8.3479e-10
3.45436e-10
1.40309e-10
5.58588e-11
2.17594e-11
8.29298e-12
3.09454e-12
1.13145e-12
4.05594e-13
1.42619e-13
4.92157e-14
1.66748e-14
5.54914e-15
1.81446e-15
5.83092e-16
1.84185e-16
5.71875e-17
1.74513e-17
5.23364e-18
1.54277e-18
4.47111e-19
1.27415e-19
3.57091e-20
9.84309e-21
2.66875e-21
7.11735e-22
1.86707e-22
4.81745e-23
1.22252e-23
3.05098e-24
7.48707e-25
1.80641e-25
4.28436e-26
9.98718e-27
2.28771e-27
5.14818e-28
1.13784e-28
2.469e-29
5.25765e-30
1.09806e-30
2.24767e-31
4.50425e-32
8.82753e-33
1.68806e-33
3.14472e-34
5.67812e-35
9.91634e-36
1.65317e-36
2.64073e-37
2.92376e-38
4.87493e-07
3.50039e-05
0.000215253
0.000747706
0.00198782
0.00472014
0.00918654
0.0204084
0.0343328
0.0542835
0.0789642
0.108816
0.132496
0.160257
0.180906
0.196783
0.204218
0.202259
0.195693
0.181762
0.161446
0.137436
0.111015
0.0856604
0.0626497
0.0434542
0.028979
0.0182979
0.0107673
0.00623462
0.00314681
0.00190062
0.0022703
0.00541774
0.00648091
0.00880962
0.0545
0.368365
0.491499
0.560678
0.627274
0.650266
0.715966
0.768863
0.817977
0.844632
0.877579
0.893339
0.9129
0.924556
0.937036
0.947349
0.953624
0.960781
0.964227
0.967643
0.969308
0.970425
0.971052
0.971351
0.971402
0.971113
0.970577
0.969555
0.967924
0.9658
0.963587
0.962064
0.961553
0.961481
0.962094
0.964498
0.96823
0.971393
0.97319
0.974849
0.977325
0.979088
0.98002
0.981298
0.982698
0.983263
0.983503
0.983629
0.983673
0.983786
0.983971
0.983798
0.982674
0.982041
0.980584
0.978445
0.975729
0.972104
0.967436
0.961447
0.953772
0.943937
0.931283
0.915028
0.894119
0.867229
0.832734
0.788745
0.733289
0.665395
0.588398
0.505015
0.417972
0.331793
0.252993
0.188193
0.138233
0.0985533
0.0679509
0.0454276
0.0295055
0.0186173
0.0114157
0.00681063
0.00395765
0.00224298
0.00124224
0.000673604
0.000358242
0.000187118
9.60805e-05
4.8527e-05
2.41131e-05
1.17871e-05
5.66645e-06
2.67763e-06
1.24298e-06
5.66453e-07
2.53266e-07
1.11034e-07
4.77071e-08
2.00801e-08
8.27644e-09
3.33921e-09
1.31812e-09
5.0878e-10
1.91923e-10
7.07144e-11
2.54294e-11
8.91303e-12
3.0383e-12
1.00451e-12
3.21915e-13
1.00803e-13
3.09688e-14
9.33476e-15
2.76068e-15
8.01066e-16
2.28059e-16
6.36979e-17
1.7453e-17
4.69083e-18
1.23659e-18
3.19719e-19
8.10683e-20
2.0158e-20
4.91512e-21
1.17514e-21
2.75473e-22
6.3311e-23
1.42639e-23
3.15004e-24
6.81722e-25
1.44562e-25
3.00207e-26
6.10437e-27
1.2139e-27
2.36065e-28
4.47654e-29
8.28352e-30
1.48522e-30
2.58253e-31
4.72191e-32
-2.1928e-32
1.03771e-05
0.000130564
0.000724188
0.00266708
0.00775688
0.0190723
0.0420633
0.0963968
0.155715
0.248667
0.338628
0.416261
0.479503
0.516757
0.537901
0.546706
0.54554
0.540679
0.530217
0.511068
0.483267
0.44778
0.398547
0.336818
0.263823
0.183548
0.113818
0.0655034
0.0348661
0.0237845
0.01483
0.00796184
0.00792877
0.0163445
0.0776882
0.308091
0.484009
0.614341
0.667792
0.734966
0.777259
0.841124
0.871826
0.886865
0.894642
0.898141
0.899486
0.899521
0.900092
0.899468
0.899929
0.900822
0.903931
0.91275
0.921191
0.924506
0.9264
0.927036
0.926792
0.925677
0.924026
0.921359
0.916545
0.908458
0.896954
0.883682
0.872913
0.868277
0.866319
0.865907
0.868987
0.880275
0.896482
0.907611
0.912481
0.918292
0.931654
0.942969
0.947638
0.952216
0.959763
0.966409
0.969557
0.972077
0.975697
0.979143
0.982476
0.985419
0.987412
0.990251
0.992516
0.994204
0.995807
0.996905
0.997687
0.998165
0.998412
0.998495
0.998412
0.998037
0.997319
0.996139
0.994274
0.991346
0.986791
0.979729
0.968781
0.95184
0.925608
0.885135
0.823959
0.736741
0.626162
0.503914
0.382789
0.277221
0.196044
0.135124
0.0903672
0.0587599
0.0372199
0.0230061
0.0139034
0.00823102
0.00478224
0.00273093
0.0015345
0.000848949
0.000462513
0.000248083
0.000130936
6.79481e-05
3.46389e-05
1.73315e-05
8.50446e-06
4.08993e-06
1.92677e-06
8.88879e-07
4.01485e-07
1.77526e-07
7.684e-08
3.25561e-08
1.35018e-08
5.48103e-09
2.17776e-09
8.46778e-10
3.22148e-10
1.19892e-10
4.3642e-11
1.55355e-11
5.40731e-12
1.84002e-12
6.1206e-13
1.98993e-13
6.32248e-14
1.96271e-14
5.95163e-15
1.76374e-15
5.12637e-16
1.46339e-16
4.1023e-17
1.12916e-17
3.05142e-18
8.09493e-19
2.10781e-19
5.38655e-20
1.35072e-20
3.32318e-21
8.01938e-22
1.89802e-22
4.40322e-23
1.00137e-23
2.22943e-24
4.86233e-25
1.03557e-25
2.15859e-26
4.3703e-27
8.6506e-28
1.64803e-28
2.79175e-29
6.54533e-05
0.000375967
0.00205777
0.00808722
0.0253831
0.066211
0.154576
0.317284
0.48178
0.585505
0.633814
0.658282
0.658838
0.655123
0.646807
0.639334
0.630157
0.620917
0.610714
0.596642
0.577708
0.554342
0.527109
0.489697
0.433456
0.360942
0.278696
0.1842
0.107518
0.0524912
0.0204836
0.0197356
0.0759795
0.261267
0.460021
0.63581
0.711409
0.780749
0.820305
0.858158
0.876219
0.884781
0.885966
0.880254
0.867788
0.837415
0.794798
0.739485
0.704471
0.676288
0.661151
0.654966
0.653508
0.657985
0.677746
0.701913
0.721198
0.740211
0.745942
0.746035
0.744537
0.740966
0.73379
0.720793
0.700668
0.67586
0.661169
0.656203
0.654938
0.658497
0.676485
0.709749
0.745702
0.765649
0.775309
0.782091
0.792347
0.80737
0.821729
0.831086
0.841782
0.85311
0.862765
0.873191
0.885179
0.895158
0.905763
0.918948
0.930776
0.944185
0.955314
0.965654
0.975454
0.983325
0.989322
0.99365
0.996477
0.998122
0.998996
0.999449
0.999672
0.999775
0.999819
0.999831
0.999803
0.999695
0.999461
0.999021
0.998198
0.996761
0.993928
0.988039
0.975679
0.949152
0.895229
0.803717
0.673973
0.525508
0.383551
0.269209
0.184187
0.122544
0.0794577
0.0503277
0.0312017
0.0189663
0.0113177
0.00663486
0.00382208
0.00216309
0.00120202
0.000655342
0.000350237
0.000183326
9.39164e-05
4.70628e-05
2.30611e-05
1.10477e-05
5.17423e-06
2.36934e-06
1.06088e-06
4.64548e-07
1.98967e-07
8.33627e-08
3.41695e-08
1.37021e-08
5.37532e-09
2.06291e-09
7.74466e-10
2.84416e-10
1.02168e-10
3.58974e-11
1.23358e-11
4.14576e-12
1.36253e-12
4.37892e-13
1.37613e-13
4.2287e-14
1.27041e-14
3.73122e-15
1.07185e-15
3.01969e-16
8.35047e-17
2.26641e-17
6.03674e-18
1.57788e-18
4.04655e-19
1.01815e-19
2.51264e-20
6.08182e-21
1.44302e-21
3.35668e-22
7.64564e-23
1.70628e-23
3.72079e-24
7.94298e-25
1.64988e-25
3.35107e-26
6.57174e-27
1.23953e-27
0.000200973
0.000886111
0.00517906
0.0218694
0.0736338
0.198566
0.460511
0.619284
0.679951
0.700736
0.698414
0.691008
0.674533
0.648617
0.620111
0.599669
0.579167
0.568943
0.564137
0.562086
0.556823
0.546019
0.526964
0.501563
0.457218
0.384379
0.286871
0.184632
0.0968508
0.0394089
0.0406565
0.163722
0.40917
0.599062
0.721396
0.796285
0.83915
0.867505
0.880353
0.88524
0.884809
0.874689
0.851623
0.800442
0.714342
0.643247
0.594307
0.565867
0.548191
0.530696
0.522269
0.514018
0.510499
0.508372
0.50758
0.507401
0.508703
0.514072
0.522367
0.533158
0.538593
0.539319
0.538959
0.537984
0.536642
0.53487
0.534203
0.535025
0.5407
0.553402
0.574795
0.606351
0.646192
0.689351
0.720586
0.733929
0.740288
0.744243
0.74919
0.754419
0.759658
0.764392
0.768321
0.773697
0.779306
0.783032
0.786419
0.792011
0.799959
0.812231
0.830543
0.855538
0.885904
0.917596
0.943824
0.963774
0.978859
0.988497
0.994142
0.997181
0.9987
0.999411
0.999725
0.999859
0.999919
0.999949
0.999963
0.999969
0.99997
0.999961
0.999924
0.999822
0.999564
0.998915
0.997258
0.992955
0.981599
0.951144
0.869393
0.728055
0.565613
0.410621
0.28672
0.194935
0.129191
0.0836487
0.0529986
0.0328911
0.020002
0.0119178
0.00695407
0.00397086
0.0022171
0.00120954
0.000644363
0.000335077
0.000170053
8.42254e-05
4.07179e-05
1.9218e-05
8.85791e-06
3.98818e-06
1.7545e-06
7.54336e-07
3.17016e-07
1.30242e-07
5.23127e-08
2.0543e-08
7.88735e-09
2.96081e-09
1.08666e-09
3.89914e-10
1.36779e-10
4.69066e-11
1.57251e-11
5.15342e-12
1.65096e-12
5.17046e-13
1.58302e-13
4.73851e-14
1.38676e-14
3.96754e-15
1.11104e-15
3.05155e-16
8.2206e-17
2.17207e-17
5.62842e-18
1.43032e-18
3.5639e-19
8.70678e-20
2.08466e-20
4.89202e-21
1.1241e-21
2.53004e-22
5.56657e-23
1.19841e-23
2.51431e-24
5.15295e-25
1.02405e-25
1.96378e-26
0.000555878
0.00186056
0.0118856
0.0537732
0.19319
0.518254
0.6705
0.717899
0.721677
0.715159
0.696697
0.648898
0.577459
0.48042
0.400426
0.349572
0.312354
0.315283
0.330829
0.365882
0.422293
0.475531
0.491149
0.482769
0.448651
0.370112
0.26659
0.142089
0.0604485
0.0706293
0.242075
0.534877
0.676998
0.786797
0.840701
0.870481
0.883834
0.888315
0.888174
0.879895
0.861125
0.812078
0.721298
0.636688
0.592343
0.566947
0.550905
0.543119
0.536194
0.531121
0.527647
0.525598
0.524622
0.522174
0.518602
0.51459
0.509622
0.506735
0.504439
0.502047
0.501204
0.500863
0.500962
0.501611
0.503415
0.506058
0.507585
0.510659
0.518413
0.52953
0.545806
0.569734
0.602476
0.644483
0.689205
0.721032
0.734444
0.741628
0.745625
0.751071
0.757276
0.761577
0.763684
0.766656
0.767644
0.766929
0.765062
0.762697
0.760414
0.758301
0.756383
0.75512
0.758363
0.773551
0.807374
0.856501
0.908592
0.948022
0.972175
0.986303
0.993682
0.997249
0.998836
0.999503
0.999778
0.999894
0.999946
0.99997
0.999982
0.999988
0.999991
0.999992
0.999991
0.999982
0.999951
0.999851
0.999537
0.998556
0.995491
0.985937
0.956437
0.866371
0.700154
0.527909
0.37744
0.261935
0.176963
0.116615
0.0750271
0.0471378
0.0289126
0.0173032
0.0100975
0.00574237
0.00318117
0.00171637
0.000901921
0.000461684
0.000230292
0.000111982
5.31052e-05
2.45712e-05
1.10963e-05
4.89259e-06
2.10676e-06
8.86119e-07
3.64107e-07
1.46173e-07
5.73364e-08
2.19755e-08
8.22992e-09
3.01162e-09
1.07683e-09
3.76209e-10
1.28424e-10
4.28349e-11
1.39603e-11
4.44583e-12
1.38357e-12
4.20795e-13
1.25086e-13
3.63456e-14
1.0323e-14
2.86917e-15
7.81625e-16
2.08719e-16
5.46301e-17
1.40156e-17
3.5241e-18
8.68435e-19
2.09672e-19
4.95973e-20
1.14867e-20
2.60479e-21
5.77569e-22
1.25256e-22
2.64999e-23
5.47317e-24
1.0992e-24
2.13418e-25
0.00147167
0.00350484
0.0247279
0.118844
0.450176
0.674178
0.736001
0.737062
0.724982
0.685586
0.59976
0.424321
0.252152
0.156539
0.105247
0.083213
0.0707589
0.0738609
0.0895758
0.130199
0.192748
0.289433
0.360178
0.409629
0.409602
0.332478
0.175908
0.0884105
0.0985234
0.289302
0.600853
0.743535
0.820602
0.864133
0.882574
0.889488
0.890711
0.886892
0.875371
0.841653
0.771092
0.676376
0.615167
0.582934
0.56788
0.560844
0.557698
0.557618
0.562348
0.568121
0.572799
0.577669
0.581078
0.583929
0.586391
0.588739
0.589891
0.590273
0.5889
0.58599
0.582547
0.577666
0.569786
0.563335
0.553569
0.547045
0.542717
0.539858
0.539386
0.544028
0.553362
0.567074
0.592909
0.626954
0.66319
0.70027
0.734264
0.752452
0.764635
0.776623
0.787775
0.792287
0.793032
0.791637
0.786825
0.780841
0.775025
0.770085
0.766406
0.764133
0.760839
0.754125
0.74416
0.734015
0.735073
0.746022
0.776054
0.83294
0.898377
0.947044
0.974454
0.98863
0.995294
0.998146
0.999282
0.999712
0.999874
0.999939
0.999968
0.999983
0.999991
0.999995
0.999997
0.999997
0.999997
0.999996
0.999988
0.99996
0.999855
0.999482
0.998179
0.993715
0.978736
0.929686
0.789698
0.607783
0.443098
0.312124
0.213497
0.141967
0.0918033
0.0577213
0.0352749
0.0209462
0.0120831
0.00677176
0.00368798
0.00195264
0.00100563
0.000504075
0.000246069
0.00011705
5.42814e-05
2.45521e-05
1.08351e-05
4.66658e-06
1.9619e-06
8.05254e-07
3.2271e-07
1.26284e-07
4.82566e-08
1.80074e-08
6.562e-09
2.33516e-09
8.11515e-10
2.75415e-10
9.12864e-11
2.95515e-11
9.34421e-12
2.8863e-12
8.71019e-13
2.56839e-13
7.40097e-14
2.08448e-14
5.74713e-15
1.55224e-15
4.10703e-16
1.06458e-16
2.70326e-17
6.72452e-18
1.63837e-18
3.90947e-19
9.13233e-20
2.08812e-20
4.66928e-21
1.02093e-21
2.1793e-22
4.54077e-23
9.21708e-24
1.81231e-24
0.00326857
0.00566491
0.0455101
0.228316
0.613577
0.737062
0.752757
0.738779
0.683593
0.56444
0.333741
0.161632
0.0812611
0.0499783
0.0351487
0.030288
0.0267531
0.0276244
0.0360856
0.0636048
0.116189
0.203847
0.314277
0.374518
0.33432
0.194167
0.119791
0.128465
0.317955
0.636486
0.775842
0.84118
0.872627
0.885803
0.889388
0.889624
0.884492
0.866375
0.8226
0.736217
0.659686
0.608817
0.584424
0.573817
0.569779
0.568641
0.570183
0.571999
0.574767
0.576661
0.578299
0.580974
0.584104
0.587878
0.591306
0.594358
0.59799
0.601605
0.604665
0.609267
0.612562
0.615761
0.617231
0.618341
0.618705
0.617089
0.614573
0.610034
0.605102
0.602778
0.602395
0.60555
0.613406
0.629287
0.65172
0.682562
0.718081
0.746354
0.766381
0.779222
0.79051
0.7946
0.79463
0.790493
0.779542
0.76648
0.756043
0.75052
0.749454
0.757255
0.768864
0.776903
0.781045
0.776938
0.758878
0.743166
0.746173
0.769763
0.811646
0.867126
0.922071
0.961694
0.983437
0.993238
0.99743
0.999066
0.999665
0.999874
0.999948
0.999975
0.999987
0.999993
0.999996
0.999998
0.999999
0.999999
0.999999
0.999998
0.999995
0.99998
0.999921
0.999695
0.99886
0.995869
0.985465
0.950305
0.836931
0.650982
0.47853
0.338759
0.231966
0.153749
0.0986663
0.0613113
0.0368983
0.0215141
0.0121598
0.00666689
0.00354861
0.00183524
0.000922933
0.000451659
0.000215226
9.99206e-05
4.52155e-05
1.995e-05
8.58499e-06
3.60388e-06
1.47605e-06
5.89901e-07
2.3006e-07
8.7561e-08
3.2524e-08
1.17906e-08
4.1718e-09
1.44074e-09
4.85676e-10
1.59826e-10
5.13487e-11
1.61083e-11
4.93477e-12
1.47658e-12
4.31602e-13
1.23258e-13
3.44165e-14
9.40772e-15
2.51781e-15
6.59812e-16
1.6931e-16
4.25428e-17
1.04666e-17
2.52113e-18
5.94393e-19
1.3714e-19
3.09465e-20
6.82769e-21
1.47145e-21
3.09599e-22
6.35416e-23
1.26573e-23
0.00597665
0.00785142
0.071744
0.344694
0.682907
0.75844
0.756329
0.712371
0.608483
0.441838
0.20989
0.0860721
0.0464621
0.0346465
0.0277849
0.0262788
0.0280538
0.0341642
0.0473959
0.0800483
0.139595
0.222983
0.284113
0.271125
0.181397
0.148071
0.1611
0.342894
0.655504
0.788354
0.846719
0.872577
0.882765
0.885988
0.886471
0.878192
0.853135
0.795409
0.717183
0.658407
0.613226
0.589462
0.577984
0.572658
0.570216
0.56933
0.569137
0.568425
0.566549
0.562151
0.556097
0.549664
0.543001
0.537823
0.534592
0.533645
0.538846
0.545418
0.556648
0.566093
0.580452
0.596556
0.605006
0.614439
0.620727
0.623805
0.62501
0.624992
0.622367
0.617698
0.61444
0.61348
0.616309
0.626873
0.644587
0.666738
0.691325
0.71581
0.738465
0.75557
0.76252
0.762877
0.758411
0.743045
0.723493
0.716966
0.71039
0.700268
0.69328
0.691969
0.701389
0.726295
0.762619
0.794022
0.809825
0.817287
0.807071
0.794484
0.803173
0.841636
0.88489
0.925167
0.958266
0.980548
0.992078
0.996994
0.998922
0.999629
0.999873
0.999954
0.999982
0.999991
0.999996
0.999998
0.999999
0.999999
1
1
1
0.999999
0.999996
0.999983
0.999932
0.999731
0.998976
0.996245
0.986673
0.954011
0.845923
0.655123
0.478733
0.336168
0.227382
0.148296
0.0933278
0.0567237
0.0333272
0.0189482
0.0104364
0.00557466
0.00289081
0.00145665
0.000713785
0.00034037
0.000158031
7.14716e-05
3.14973e-05
1.35294e-05
5.66553e-06
2.31328e-06
9.21064e-07
3.57657e-07
1.35453e-07
5.00356e-08
1.80288e-08
6.33699e-09
2.17301e-09
7.27023e-10
2.37355e-10
7.56272e-11
2.35212e-11
7.14207e-12
2.11766e-12
6.13252e-13
1.7351e-13
4.80239e-14
1.30067e-14
3.44757e-15
8.94401e-16
2.27119e-16
5.6451e-17
1.37332e-17
3.26952e-18
7.61611e-19
1.73525e-19
3.86559e-20
8.41498e-21
1.78911e-21
3.7139e-22
7.49587e-23
0.00933592
0.00985531
0.0872405
0.394324
0.709585
0.765487
0.75653
0.696794
0.578794
0.397769
0.168688
0.0708314
0.0438639
0.0388174
0.0393769
0.0450673
0.0573391
0.0696818
0.0917499
0.126215
0.167964
0.196061
0.19308
0.176644
0.169016
0.197735
0.377495
0.666614
0.789172
0.840657
0.863601
0.874724
0.879157
0.877226
0.864373
0.827782
0.764858
0.703456
0.652394
0.61705
0.595236
0.583615
0.576437
0.570374
0.567647
0.563338
0.556107
0.54372
0.522823
0.499433
0.477415
0.455792
0.441513
0.433051
0.42966
0.429225
0.438109
0.448313
0.465338
0.478738
0.494453
0.516282
0.536116
0.55945
0.581831
0.60028
0.614468
0.621887
0.623911
0.621768
0.617424
0.612142
0.609247
0.60779
0.612261
0.624099
0.639924
0.658025
0.674058
0.683312
0.685267
0.682435
0.680607
0.69094
0.705611
0.710822
0.710675
0.704911
0.696383
0.68796
0.680816
0.67703
0.682699
0.714162
0.775737
0.829257
0.860743
0.881252
0.884288
0.878433
0.886447
0.917471
0.946206
0.968416
0.98362
0.992662
0.997094
0.998954
0.999643
0.999882
0.999961
0.999986
0.999995
0.999998
0.999999
0.999999
1
1
1
1
1
0.999999
0.999995
0.99998
0.999917
0.999673
0.998763
0.995479
0.983967
0.944467
0.815734
0.615971
0.44127
0.303189
0.20011
0.12707
0.0777496
0.0459087
0.0261985
0.0144697
0.00774462
0.00402158
0.00202801
0.000993973
0.000473802
0.00021977
9.92369e-05
4.36373e-05
1.86912e-05
7.80009e-06
3.17187e-06
1.25701e-06
4.85526e-07
1.828e-07
6.70912e-08
2.40062e-08
8.37521e-09
2.8493e-09
9.45402e-10
3.0599e-10
9.66262e-11
2.97764e-11
8.95651e-12
2.6302e-12
7.5431e-13
2.11452e-13
5.79727e-14
1.55475e-14
4.07925e-15
1.04721e-15
2.63056e-16
6.46583e-17
1.55502e-17
3.65869e-18
8.41988e-19
1.89472e-19
4.16785e-20
8.95794e-21
1.88118e-21
3.84709e-22
0.0128785
0.0108412
0.092516
0.409368
0.715356
0.768176
0.759944
0.694829
0.574971
0.393495
0.184954
0.0951941
0.0637365
0.0542667
0.0529388
0.0597659
0.0756625
0.0889924
0.108119
0.131028
0.15184
0.161281
0.169788
0.184405
0.238955
0.43115
0.676928
0.784894
0.829765
0.848839
0.860411
0.864903
0.857811
0.835402
0.792628
0.740376
0.692232
0.655595
0.625522
0.604127
0.590697
0.580235
0.573243
0.564658
0.55787
0.543659
0.51904
0.485819
0.454283
0.424755
0.397556
0.38044
0.36908
0.364219
0.363222
0.372
0.384349
0.401586
0.417101
0.44137
0.457265
0.476691
0.491381
0.509675
0.529514
0.552933
0.577295
0.59931
0.615484
0.622277
0.62247
0.613908
0.606501
0.599471
0.594869
0.59286
0.594681
0.600204
0.607858
0.615174
0.622434
0.629923
0.646463
0.677744
0.705601
0.73213
0.760901
0.784751
0.796811
0.794429
0.772306
0.726132
0.684884
0.673697
0.687727
0.74318
0.83199
0.891134
0.92375
0.943246
0.947661
0.943716
0.948358
0.966238
0.980591
0.989819
0.995114
0.997869
0.999168
0.999705
0.999903
0.999969
0.99999
0.999997
0.999999
0.999999
1
1
1
1
1
1
1
0.999998
0.999992
0.999967
0.999866
0.999478
0.998044
0.992876
0.97466
0.911479
0.733554
0.53345
0.370614
0.24654
0.157417
0.0966874
0.057242
0.0327248
0.0180949
0.00969082
0.00503267
0.00253684
0.00124218
0.000591225
0.000273664
0.000123241
5.40145e-05
2.30458e-05
9.57389e-06
3.87322e-06
1.52617e-06
5.85772e-07
2.19029e-07
7.97948e-08
2.83271e-08
9.80062e-09
3.30525e-09
1.08678e-09
3.48468e-10
1.08987e-10
3.32571e-11
9.90394e-12
2.87919e-12
8.17633e-13
2.26967e-13
6.16004e-14
1.63495e-14
4.24423e-15
1.07774e-15
2.67722e-16
6.50595e-17
1.54657e-17
3.59604e-18
8.17681e-19
1.81799e-19
3.95101e-20
8.39488e-21
1.73934e-21
0.0161063
0.00917551
0.0701664
0.355081
0.700032
0.771473
0.775564
0.742362
0.660068
0.521867
0.302865
0.154785
0.100271
0.0795637
0.0737747
0.0738095
0.0860034
0.0994384
0.11454
0.134986
0.153169
0.17263
0.205891
0.286806
0.503535
0.690382
0.778275
0.816105
0.832433
0.840294
0.838716
0.819175
0.781014
0.745969
0.714664
0.679678
0.64786
0.62623
0.609749
0.595755
0.585449
0.575675
0.565994
0.551623
0.532679
0.495885
0.454018
0.418553
0.379308
0.345745
0.316715
0.295223
0.277996
0.269141
0.265822
0.269931
0.28345
0.310396
0.34107
0.388135
0.426655
0.454727
0.474214
0.491231
0.509354
0.53506
0.564351
0.589789
0.607893
0.623294
0.629944
0.631888
0.624901
0.60904
0.596586
0.58944
0.587026
0.588628
0.594527
0.604438
0.615971
0.627403
0.647548
0.684477
0.733808
0.781328
0.820224
0.854681
0.885093
0.908534
0.91857
0.907548
0.836831
0.729981
0.689541
0.696974
0.745435
0.8365
0.90998
0.949516
0.969657
0.978727
0.979375
0.977884
0.981298
0.989453
0.994608
0.997433
0.998843
0.999512
0.999809
0.999932
0.999978
0.999993
0.999998
0.999999
1
1
1
1
1
1
1
1
0.999999
0.999996
0.999983
0.99993
0.999722
0.998931
0.996001
0.985379
0.947527
0.81714
0.602842
0.421432
0.281437
0.180112
0.110763
0.0656094
0.0375087
0.0207317
0.0110939
0.00575411
0.0028955
0.00141464
0.000671442
0.000309756
0.000138948
6.06236e-05
2.57335e-05
1.06295e-05
4.27322e-06
1.67223e-06
6.37078e-07
2.36326e-07
8.53726e-08
3.00396e-08
1.02973e-08
3.43963e-09
1.11986e-09
3.55466e-10
1.10038e-10
3.32292e-11
9.7919e-12
2.81717e-12
7.91859e-13
2.1752e-13
5.8408e-14
1.53342e-14
3.93681e-15
9.88492e-16
2.42767e-16
5.83172e-17
1.37026e-17
3.14891e-18
7.07739e-19
1.55547e-19
3.34396e-20
7.01825e-21
0.0192343
0.00805752
0.0459531
0.261083
0.651717
0.771912
0.782875
0.767374
0.716975
0.642402
0.504352
0.296633
0.194226
0.1434
0.120499
0.11323
0.113093
0.125413
0.140822
0.166539
0.202212
0.266306
0.394465
0.571559
0.708546
0.772778
0.80196
0.815099
0.821055
0.810071
0.766636
0.720377
0.697262
0.67987
0.662944
0.643284
0.62467
0.611094
0.600073
0.588634
0.576331
0.561791
0.543466
0.516793
0.483713
0.444915
0.401495
0.357899
0.310448
0.268942
0.233163
0.205528
0.183048
0.171357
0.165757
0.164336
0.174736
0.191943
0.216655
0.258365
0.33098
0.406171
0.450787
0.475198
0.48992
0.514136
0.555701
0.595259
0.617256
0.629291
0.642339
0.656918
0.663507
0.658937
0.641104
0.619384
0.607079
0.605836
0.610989
0.631753
0.65968
0.681774
0.704904
0.73213
0.759147
0.791671
0.82468
0.857527
0.890427
0.920847
0.943996
0.955955
0.953652
0.912594
0.798488
0.74248
0.744468
0.797638
0.876915
0.934481
0.967868
0.983997
0.991068
0.993236
0.993338
0.993336
0.995195
0.99752
0.998807
0.999461
0.99977
0.999907
0.999964
0.999987
0.999996
0.999999
1
1
1
1
1
1
1
1
1
0.999999
0.999998
0.999989
0.999955
0.999817
0.999278
0.997223
0.989561
0.961551
0.860797
0.644107
0.451489
0.301606
0.192898
0.11849
0.0700829
0.0399966
0.0220622
0.0117782
0.00609228
0.00305588
0.00148749
0.000703038
0.000322787
0.000144023
6.24674e-05
2.63447e-05
1.08055e-05
4.31102e-06
1.67332e-06
6.31999e-07
2.32312e-07
8.31252e-08
2.89602e-08
9.8263e-09
3.24803e-09
1.04622e-09
3.28504e-10
1.0058e-10
3.00391e-11
8.75508e-12
2.49178e-12
6.9276e-13
1.88195e-13
4.99693e-14
1.29708e-14
3.29214e-15
8.17163e-16
1.98379e-16
4.71067e-17
1.09413e-17
2.486e-18
5.52537e-19
1.20178e-19
2.55441e-20
0.0213426
0.00754291
0.0222491
0.132241
0.528573
0.75301
0.785604
0.785242
0.758142
0.721916
0.67244
0.570495
0.430059
0.328526
0.269233
0.235282
0.223474
0.223903
0.258175
0.314289
0.409005
0.523357
0.640245
0.724255
0.76899
0.78903
0.797104
0.799191
0.779602
0.731855
0.683736
0.659938
0.64726
0.63883
0.631358
0.622344
0.613089
0.6053
0.59682
0.585792
0.572253
0.553859
0.529278
0.494702
0.455762
0.410797
0.357761
0.304149
0.254017
0.210633
0.177336
0.155498
0.138745
0.131171
0.128362
0.130962
0.139381
0.153629
0.173364
0.197161
0.240387
0.318608
0.402565
0.457054
0.481982
0.495571
0.522325
0.587256
0.630516
0.650834
0.657904
0.665327
0.67157
0.676811
0.676554
0.670325
0.659909
0.656706
0.65885
0.670423
0.698313
0.722069
0.735497
0.744449
0.758583
0.765758
0.772228
0.7938
0.832711
0.880309
0.926063
0.955961
0.967894
0.968274
0.947226
0.889233
0.852153
0.844586
0.874366
0.929645
0.96457
0.983626
0.99279
0.996592
0.997993
0.998435
0.998613
0.998884
0.999252
0.999572
0.999787
0.999905
0.999961
0.999985
0.999994
0.999998
0.999999
1
1
1
1
1
1
1
1
1
1
0.999998
0.999992
0.999965
0.999855
0.999412
0.997678
0.991042
0.966238
0.875434
0.659331
0.460924
0.307012
0.195725
0.119828
0.0706343
0.0401696
0.0220749
0.0117373
0.00604429
0.00301706
0.00146074
0.000686361
0.000313124
0.000138747
5.97313e-05
2.49898e-05
1.01625e-05
4.0179e-06
1.54472e-06
5.77624e-07
2.10128e-07
7.43839e-08
2.56304e-08
8.59905e-09
2.81002e-09
8.94714e-10
2.77674e-10
8.40274e-11
2.48046e-11
7.14689e-12
2.01069e-12
5.52545e-13
1.48361e-13
3.89338e-14
9.98829e-15
2.5056e-15
6.14691e-16
1.47505e-16
3.46254e-17
7.95277e-18
1.78731e-18
3.93234e-19
8.46227e-20
0.0224846
0.00969392
0.012479
0.057399
0.296076
0.68377
0.78369
0.794293
0.78732
0.765187
0.748084
0.711403
0.653363
0.586576
0.528643
0.493666
0.47708
0.472994
0.506939
0.551415
0.625129
0.684593
0.739462
0.766718
0.779368
0.783245
0.77564
0.748631
0.702955
0.656648
0.63362
0.622381
0.616672
0.61341
0.610957
0.607736
0.60317
0.597226
0.589244
0.577601
0.560697
0.535291
0.500665
0.462352
0.420085
0.373492
0.322055
0.26929
0.222121
0.184583
0.155111
0.138013
0.125554
0.118128
0.115519
0.119074
0.127603
0.138951
0.160019
0.182361
0.216335
0.286544
0.373853
0.444357
0.479971
0.493604
0.507806
0.538697
0.612023
0.652122
0.667381
0.672076
0.67328
0.678649
0.682041
0.682103
0.67744
0.670919
0.668245
0.671429
0.688451
0.71417
0.729048
0.737519
0.732666
0.7107
0.684756
0.670475
0.680034
0.738848
0.833924
0.913042
0.957936
0.974234
0.978191
0.97532
0.966635
0.957993
0.949813
0.95141
0.968868
0.984957
0.993529
0.997426
0.998937
0.999485
0.999691
0.999777
0.999827
0.999869
0.999907
0.999943
0.99997
0.999986
0.999994
0.999998
0.999999
1
1
1
1
1
1
1
1
1
1
1
0.999998
0.999993
0.999969
0.999865
0.999438
0.997723
0.991021
0.965549
0.87117
0.651228
0.452789
0.299909
0.190161
0.115805
0.0679034
0.0384094
0.0209897
0.0110945
0.00567734
0.00281487
0.00135308
0.000630912
0.000285484
0.000125406
5.34937e-05
2.21641e-05
8.92193e-06
3.49005e-06
1.32701e-06
4.90565e-07
1.76371e-07
6.16883e-08
2.09978e-08
6.95827e-09
2.2457e-09
7.06157e-10
2.16433e-10
6.46858e-11
1.88619e-11
5.36831e-12
1.49189e-12
4.04985e-13
1.07421e-13
2.78496e-14
7.05907e-15
1.74974e-15
4.24235e-16
1.00628e-16
2.33586e-17
5.30701e-18
1.18077e-18
2.57158e-19
0.0231567
0.0122982
0.00966822
0.0192416
0.0967853
0.430983
0.74063
0.797801
0.801509
0.791817
0.783324
0.777064
0.762654
0.737295
0.708201
0.684789
0.669396
0.664349
0.672109
0.697514
0.729572
0.75132
0.769921
0.778275
0.781961
0.781615
0.768076
0.734128
0.684172
0.634774
0.613416
0.603998
0.599706
0.597803
0.596949
0.596228
0.594402
0.590199
0.583042
0.571986
0.553967
0.526776
0.492008
0.454425
0.4136
0.371517
0.323752
0.272674
0.225952
0.189203
0.159493
0.141647
0.129792
0.121646
0.120672
0.122416
0.127323
0.13611
0.156629
0.180948
0.214441
0.281687
0.369161
0.442191
0.489109
0.505661
0.510904
0.523929
0.560783
0.62737
0.661059
0.674484
0.68157
0.688947
0.6968
0.699452
0.69609
0.681719
0.665103
0.654237
0.651097
0.658116
0.679458
0.692839
0.695223
0.690345
0.668943
0.637651
0.614019
0.61229
0.65443
0.788715
0.902373
0.958583
0.979893
0.987762
0.991346
0.992236
0.991905
0.991587
0.99196
0.994019
0.996689
0.998424
0.999353
0.99975
0.999892
0.999943
0.999964
0.999974
0.999981
0.999986
0.999991
0.999994
0.999997
0.999999
0.999999
1
1
1
1
1
1
1
1
1
1
1
1
0.999999
0.999993
0.999968
0.99986
0.9994
0.997512
0.990009
0.961148
0.85333
0.628027
0.433258
0.284797
0.179278
0.108411
0.0631203
0.0354467
0.0192257
0.0100824
0.00511687
0.00251495
0.00119786
0.000553166
0.000247777
0.000107689
4.54277e-05
1.86048e-05
7.39949e-06
2.85871e-06
1.07314e-06
3.91566e-07
1.38921e-07
4.79414e-08
1.60994e-08
5.26322e-09
1.67581e-09
5.19903e-10
1.57236e-10
4.63789e-11
1.33482e-11
3.75012e-12
1.02887e-12
2.75763e-13
7.22301e-14
1.8495e-14
4.6309e-15
1.1342e-15
2.71791e-16
6.37466e-17
1.46373e-17
3.29226e-18
7.2534e-19
0.022582
0.0153216
0.0122748
0.00980584
0.0206106
0.119713
0.509577
0.771976
0.80698
0.805961
0.797135
0.796486
0.799802
0.800588
0.795764
0.786234
0.779516
0.774255
0.77248
0.77822
0.787343
0.791604
0.793885
0.794183
0.790475
0.785145
0.771599
0.739971
0.691925
0.639975
0.613871
0.602159
0.596075
0.592796
0.590971
0.589978
0.589081
0.586917
0.582549
0.572966
0.555998
0.529881
0.496099
0.459464
0.419656
0.379055
0.335358
0.288711
0.243179
0.207198
0.177043
0.156994
0.144853
0.13622
0.136371
0.139163
0.147065
0.15856
0.182436
0.213337
0.26797
0.350363
0.433454
0.492292
0.519655
0.528301
0.529104
0.529527
0.539081
0.585207