/*--------------------------------*- C++ -*----------------------------------*\
  =========                 |
  \\      /  F ield         | OpenFOAM: The Open Source CFD Toolbox
   \\    /   O peration     | Website:  https://openfoam.org
    \\  /    A nd           | Version:  7
     \\/     M anipulation  |
\*---------------------------------------------------------------------------*/
FoamFile
{
    version     2.0;
    format      ascii;
    class       volVectorField;
    location    "0.052";
    object      U_0;
}
// * * * * * * * * * * * * * * * * * * * * * * * * * * * * * * * * * * * * * //

dimensions      [0 1 -1 0 0 0 0];

internalField   nonuniform List<vector> 
12225
(
(4.75039 0.134132 0)
(4.11339 0.103758 0)
(3.69887 0.0960485 0)
(3.34671 0.0832267 0)
(2.97446 0.0702777 0)
(2.59875 0.0602768 0)
(2.24676 0.0534974 0)
(1.93802 0.0470115 0)
(1.67586 0.0400014 0)
(1.44785 0.0340251 0)
(1.24064 0.0295135 0)
(1.05204 0.0243381 0)
(0.880334 0.0171027 0)
(0.733184 0.00960479 0)
(0.60303 0.00321842 0)
(0.504564 0.000852673 0)
(0.397857 0.000193035 0)
(0.343273 -0.0137585 0)
(5.05374 0.123997 0)
(4.79903 0.0778564 0)
(4.68641 0.0764234 0)
(4.64389 0.0883804 0)
(4.58425 0.10886 0)
(4.4649 0.121151 0)
(4.30008 0.118855 0)
(4.13022 0.107919 0)
(3.97515 0.0973645 0)
(3.82975 0.0913943 0)
(3.67753 0.0895202 0)
(3.51701 0.0897315 0)
(3.35048 0.0893371 0)
(3.18542 0.0869011 0)
(3.01776 0.0824834 0)
(2.86272 0.0753209 0)
(2.69136 0.0722646 0)
(2.56888 0.0598019 0)
(4.96682 0.189006 0)
(4.83776 0.122056 0)
(4.72376 0.118742 0)
(4.68737 0.112382 0)
(4.69907 0.117414 0)
(4.71137 0.130873 0)
(4.70146 0.13902 0)
(4.67361 0.137606 0)
(4.63511 0.131917 0)
(4.58781 0.128775 0)
(4.53067 0.130929 0)
(4.46364 0.135208 0)
(4.39001 0.13698 0)
(4.30942 0.135314 0)
(4.22763 0.130926 0)
(4.1422 0.126844 0)
(4.06121 0.124674 0)
(3.97784 0.120754 0)
(4.94645 0.22315 0)
(4.85914 0.144572 0)
(4.79742 0.113829 0)
(4.75234 0.105319 0)
(4.71851 0.11455 0)
(4.6996 0.129425 0)
(4.69377 0.136571 0)
(4.69675 0.133353 0)
(4.70314 0.126432 0)
(4.7067 0.12394 0)
(4.70435 0.128879 0)
(4.69357 0.137278 0)
(4.67544 0.144263 0)
(4.64773 0.14752 0)
(4.61668 0.147616 0)
(4.57976 0.146047 0)
(4.54802 0.144358 0)
(4.51285 0.142432 0)
(4.93415 0.176152 0)
(4.89349 0.118167 0)
(4.83327 0.12447 0)
(4.76687 0.130177 0)
(4.73052 0.131271 0)
(4.72452 0.133189 0)
(4.73174 0.132872 0)
(4.73985 0.128641 0)
(4.74337 0.124605 0)
(4.74048 0.126046 0)
(4.73318 0.134351 0)
(4.72358 0.145521 0)
(4.71333 0.154816 0)
(4.70099 0.159535 0)
(4.68861 0.1601 0)
(4.67503 0.157749 0)
(4.66505 0.155004 0)
(4.65545 0.152659 0)
(4.96698 0.255238 0)
(4.88382 0.162052 0)
(4.82034 0.137093 0)
(4.79559 0.137494 0)
(4.79955 0.137778 0)
(4.81644 0.137251 0)
(4.82641 0.135517 0)
(4.82175 0.132225 0)
(4.8067 0.129752 0)
(4.78889 0.131308 0)
(4.77451 0.138188 0)
(4.76552 0.147898 0)
(4.76087 0.156558 0)
(4.7569 0.161445 0)
(4.75189 0.162147 0)
(4.744 0.159816 0)
(4.73541 0.156378 0)
(4.72397 0.152786 0)
(5.00669 0.181856 0)
(4.95313 0.159054 0)
(4.84649 0.144303 0)
(4.7876 0.132696 0)
(4.77671 0.123257 0)
(4.78317 0.12305 0)
(4.78575 0.129619 0)
(4.7836 0.135023 0)
(4.78254 0.136388 0)
(4.78536 0.136951 0)
(4.79213 0.140737 0)
(4.80125 0.148017 0)
(4.81069 0.156041 0)
(4.8173 0.162106 0)
(4.81948 0.165213 0)
(4.81574 0.16573 0)
(4.80769 0.165039 0)
(4.79413 0.163508 0)
(5.00459 0.241572 0)
(4.96079 0.189788 0)
(4.91527 0.176877 0)
(4.88353 0.156817 0)
(4.86121 0.143398 0)
(4.84641 0.138427 0)
(4.84188 0.13622 0)
(4.84788 0.132763 0)
(4.85823 0.128965 0)
(4.86618 0.128134 0)
(4.86976 0.132435 0)
(4.86995 0.141032 0)
(4.86779 0.150934 0)
(4.86242 0.159442 0)
(4.85272 0.165182 0)
(4.83867 0.168287 0)
(4.82089 0.169687 0)
(4.80169 0.170059 0)
(4.98956 0.227306 0)
(4.96328 0.186042 0)
(4.97781 0.16915 0)
(4.95858 0.148248 0)
(4.92238 0.137293 0)
(4.89709 0.133626 0)
(4.89116 0.131353 0)
(4.90048 0.12868 0)
(4.91475 0.127414 0)
(4.92433 0.129842 0)
(4.92493 0.136795 0)
(4.91676 0.14735 0)
(4.90203 0.159207 0)
(4.88216 0.170355 0)
(4.85901 0.178905 0)
(4.83363 0.184635 0)
(4.80899 0.187607 0)
(4.78579 0.1882 0)
(5.05745 0.186634 0)
(5.07141 0.175157 0)
(5.03336 0.179066 0)
(4.97278 0.17944 0)
(4.90898 0.169682 0)
(4.86352 0.152293 0)
(4.84781 0.134093 0)
(4.85954 0.121552 0)
(4.8855 0.118369 0)
(4.90971 0.124649 0)
(4.92122 0.13789 0)
(4.91703 0.154495 0)
(4.90121 0.171033 0)
(4.87966 0.18497 0)
(4.86022 0.194723 0)
(4.84455 0.199907 0)
(4.83739 0.200976 0)
(4.83311 0.1993 0)
(5.02208 0.16795 0)
(4.94834 0.204411 0)
(4.91338 0.201604 0)
(4.93063 0.186731 0)
(4.95131 0.178108 0)
(4.95667 0.162025 0)
(4.95068 0.13509 0)
(4.94316 0.109643 0)
(4.93929 0.0989735 0)
(4.93736 0.107569 0)
(4.93298 0.13068 0)
(4.92328 0.158874 0)
(4.90959 0.183452 0)
(4.89567 0.198942 0)
(4.88605 0.204699 0)
(4.88199 0.202803 0)
(4.88417 0.196758 0)
(4.8885 0.191109 0)
(4.95639 0.222209 0)
(4.95109 0.21012 0)
(4.98095 0.187497 0)
(4.98215 0.170158 0)
(4.96775 0.164057 0)
(4.95014 0.156578 0)
(4.93066 0.143061 0)
(4.91048 0.129474 0)
(4.89216 0.123692 0)
(4.87786 0.129949 0)
(4.86917 0.146753 0)
(4.86617 0.168086 0)
(4.86816 0.186783 0)
(4.87414 0.198046 0)
(4.88224 0.201101 0)
(4.89088 0.198253 0)
(4.89765 0.193048 0)
(4.90098 0.189152 0)
(4.99916 0.269309 0)
(4.96831 0.205543 0)
(4.94144 0.182317 0)
(4.93638 0.180644 0)
(4.93223 0.182879 0)
(4.92539 0.174856 0)
(4.91962 0.152662 0)
(4.91671 0.127229 0)
(4.91327 0.113221 0)
(4.90636 0.117355 0)
(4.89853 0.135993 0)
(4.8947 0.160082 0)
(4.8981 0.180757 0)
(4.90808 0.193276 0)
(4.92094 0.197437 0)
(4.93178 0.196052 0)
(4.93759 0.193194 0)
(4.93468 0.191909 0)
(5.01545 0.246918 0)
(5.03353 0.226577 0)
(5.00946 0.202047 0)
(4.99235 0.181493 0)
(4.98078 0.170893 0)
(4.9731 0.161384 0)
(4.96795 0.148283 0)
(4.96291 0.137866 0)
(4.95533 0.136968 0)
(4.94575 0.145586 0)
(4.93859 0.158154 0)
(4.93806 0.168911 0)
(4.94517 0.17468 0)
(4.9568 0.176306 0)
(4.96878 0.176875 0)
(4.976 0.179149 0)
(4.97711 0.185587 0)
(4.96984 0.194693 0)
(4.94335 0.244745 0)
(4.9979 0.200917 0)
(5.0326 0.207052 0)
(5.05875 0.201704 0)
(5.05923 0.197676 0)
(5.03184 0.186066 0)
(4.99665 0.160604 0)
(4.97246 0.132955 0)
(4.96377 0.118213 0)
(4.9668 0.120872 0)
(4.97736 0.134922 0)
(4.99128 0.151821 0)
(5.00513 0.166161 0)
(5.01491 0.177128 0)
(5.01956 0.186512 0)
(5.01814 0.195988 0)
(5.0134 0.206627 0)
(5.00617 0.216922 0)
(5.06934 0.205369 0)
(5.03203 0.162798 0)
(5.01012 0.151391 0)
(5.0144 0.16116 0)
(5.03648 0.19145 0)
(5.04949 0.210519 0)
(5.04573 0.202522 0)
(5.02965 0.1781 0)
(5.00807 0.155245 0)
(4.98801 0.142917 0)
(4.97547 0.139893 0)
(4.97212 0.142182 0)
(4.97567 0.147322 0)
(4.98181 0.155237 0)
(4.98839 0.165926 0)
(4.99435 0.17892 0)
(5.00088 0.192452 0)
(5.00821 0.204524 0)
(5.02887 0.252409 0)
(5.02905 0.26527 0)
(4.98816 0.219798 0)
(4.97008 0.173912 0)
(4.98729 0.160558 0)
(5.02034 0.161975 0)
(5.04806 0.162444 0)
(5.06196 0.158602 0)
(5.06407 0.152792 0)
(5.06008 0.148244 0)
(5.05539 0.147034 0)
(5.05241 0.149995 0)
(5.05086 0.156525 0)
(5.04945 0.165512 0)
(5.04886 0.175152 0)
(5.04948 0.18404 0)
(5.0532 0.190735 0)
(5.05861 0.194831 0)
(5.04217 0.220236 0)
(5.08696 0.221107 0)
(5.11294 0.208621 0)
(5.12729 0.170497 0)
(5.12927 0.147357 0)
(5.12004 0.150089 0)
(5.10849 0.16431 0)
(5.09769 0.174191 0)
(5.08711 0.17399 0)
(5.07682 0.167048 0)
(5.06878 0.159222 0)
(5.06518 0.154551 0)
(5.0672 0.15412 0)
(5.07406 0.156965 0)
(5.08574 0.161354 0)
(5.10055 0.165887 0)
(5.11869 0.16948 0)
(5.13704 0.172591 0)
(4.97971 0.255046 0)
(5.02451 0.198952 0)
(5.03148 0.164633 0)
(5.03196 0.15789 0)
(5.03629 0.166562 0)
(5.04195 0.176777 0)
(5.05298 0.181673 0)
(5.06978 0.180233 0)
(5.0874 0.173981 0)
(5.1008 0.164728 0)
(5.10829 0.153977 0)
(5.11123 0.142935 0)
(5.11266 0.132575 0)
(5.11528 0.123246 0)
(5.12202 0.115084 0)
(5.134 0.109046 0)
(5.15164 0.104948 0)
(5.17294 0.105325 0)
(5.12045 0.272721 0)
(5.10072 0.224291 0)
(5.07211 0.186715 0)
(5.0536 0.162608 0)
(5.05865 0.145371 0)
(5.0737 0.135468 0)
(5.09102 0.131415 0)
(5.10696 0.130787 0)
(5.12115 0.133381 0)
(5.13352 0.139686 0)
(5.14451 0.148001 0)
(5.15561 0.15377 0)
(5.16812 0.152023 0)
(5.18236 0.140251 0)
(5.19808 0.119614 0)
(5.21452 0.0953313 0)
(5.2311 0.0719444 0)
(5.24629 0.0564119 0)
(4.98816 0.391739 0)
(4.99315 0.295426 0)
(4.98742 0.205768 0)
(5.00221 0.155635 0)
(5.03291 0.127547 0)
(5.06916 0.115763 0)
(5.10036 0.113803 0)
(5.12137 0.114784 0)
(5.13468 0.114748 0)
(5.14588 0.112406 0)
(5.16036 0.107115 0)
(5.18103 0.0979851 0)
(5.20706 0.084859 0)
(5.23478 0.0690948 0)
(5.25981 0.0534943 0)
(5.27912 0.0413553 0)
(5.29174 0.0346142 0)
(5.29797 0.0350183 0)
(4.96896 0.311785 0)
(5.05188 0.255476 0)
(5.06229 0.198293 0)
(5.04739 0.133338 0)
(5.03748 0.0913509 0)
(5.04337 0.0795285 0)
(5.05792 0.0887858 0)
(5.07232 0.105203 0)
(5.08518 0.117018 0)
(5.09857 0.118574 0)
(5.11488 0.110089 0)
(5.13542 0.0950322 0)
(5.15995 0.0777539 0)
(5.1865 0.0620996 0)
(5.2128 0.0502127 0)
(5.23654 0.0432483 0)
(5.25698 0.0406109 0)
(5.27322 0.042376 0)
(4.92207 0.199474 0)
(4.91 0.225253 0)
(4.98412 0.199742 0)
(5.06554 0.156085 0)
(5.11599 0.110157 0)
(5.1394 0.0783085 0)
(5.15545 0.0661961 0)
(5.17634 0.0671196 0)
(5.20572 0.0694304 0)
(5.24096 0.0650399 0)
(5.2766 0.051898 0)
(5.3078 0.032516 0)
(5.3319 0.0113471 0)
(5.34809 -0.00712226 0)
(5.35745 -0.0195099 0)
(5.36197 -0.0242725 0)
(5.36446 -0.0218288 0)
(5.36659 -0.0131569 0)
(4.98947 0.326894 0)
(5.02381 0.218444 0)
(5.08356 0.110942 0)
(5.13113 0.065529 0)
(5.15082 0.0610983 0)
(5.16553 0.0673307 0)
(5.18916 0.0713666 0)
(5.22173 0.0714438 0)
(5.26041 0.067793 0)
(5.30077 0.0604367 0)
(5.33698 0.0505437 0)
(5.36432 0.0410918 0)
(5.38123 0.0341863 0)
(5.38877 0.0303757 0)
(5.38967 0.0287733 0)
(5.38721 0.0286825 0)
(5.38443 0.029275 0)
(5.38406 0.0306058 0)
(4.8887 0.245606 0)
(5.0266 0.111852 0)
(5.119 0.0956089 0)
(5.14845 0.0918582 0)
(5.1476 0.0638826 0)
(5.15871 0.0313931 0)
(5.19664 0.00872929 0)
(5.25014 -0.00179613 0)
(5.30283 -0.00612543 0)
(5.34339 -0.00909572 0)
(5.36906 -0.0114787 0)
(5.38314 -0.0132781 0)
(5.391 -0.0142809 0)
(5.39715 -0.0145401 0)
(5.4044 -0.0144494 0)
(5.41355 -0.0141587 0)
(5.42484 -0.0140771 0)
(5.43734 -0.0136175 0)
(5.06298 0.216851 0)
(5.12202 0.0935311 0)
(5.19169 0.0827978 0)
(5.23973 0.0949945 0)
(5.26811 0.0773716 0)
(5.29018 0.0422384 0)
(5.31377 0.0117663 0)
(5.33809 -0.00137941 0)
(5.36046 0.00129215 0)
(5.3822 0.0103046 0)
(5.40511 0.0181428 0)
(5.43023 0.0211659 0)
(5.45785 0.019573 0)
(5.48639 0.015492 0)
(5.51316 0.0108318 0)
(5.53529 0.00672721 0)
(5.55228 0.00318392 0)
(5.56368 1.54128e-05 0)
(5.02649 0.13284 0)
(5.11741 0.00879416 0)
(5.18633 0.0287175 0)
(5.24576 0.0412387 0)
(5.31079 0.0202576 0)
(5.36817 -0.00733502 0)
(5.41043 -0.0249913 0)
(5.43825 -0.0325922 0)
(5.45584 -0.0348423 0)
(5.46956 -0.0373844 0)
(5.48457 -0.0426484 0)
(5.50251 -0.0487582 0)
(5.52302 -0.0531313 0)
(5.54476 -0.0538605 0)
(5.56675 -0.050717 0)
(5.58746 -0.0448535 0)
(5.60677 -0.0378037 0)
(5.62347 -0.0316155 0)
(5.06421 0.191206 0)
(5.14231 0.0543318 0)
(5.2413 0.0696207 0)
(5.33392 0.0596224 0)
(5.41874 0.0217057 0)
(5.4776 -0.00890933 0)
(5.50791 -0.0210566 0)
(5.51978 -0.0199018 0)
(5.52429 -0.0129316 0)
(5.53049 -0.00619543 0)
(5.5429 -0.00373679 0)
(5.56113 -0.00619783 0)
(5.58276 -0.0116936 0)
(5.60555 -0.0177007 0)
(5.62849 -0.0222014 0)
(5.65087 -0.0246308 0)
(5.67293 -0.0253634 0)
(5.6945 -0.0253742 0)
(4.94909 -0.00900465 0)
(5.15276 -0.0462666 0)
(5.30435 -0.0213614 0)
(5.41337 -0.0369763 0)
(5.47526 -0.051774 0)
(5.49426 -0.0537073 0)
(5.49595 -0.0479399 0)
(5.50226 -0.0423421 0)
(5.51763 -0.0420346 0)
(5.53677 -0.0480643 0)
(5.55314 -0.0581617 0)
(5.56292 -0.0682721 0)
(5.5652 -0.0750715 0)
(5.56217 -0.0774403 0)
(5.55588 -0.0757991 0)
(5.54899 -0.0717064 0)
(5.54112 -0.0665935 0)
(5.53435 -0.0617544 0)
(4.98725 0.0116071 0)
(5.0406 -0.0161388 0)
(5.03314 0.00189718 0)
(4.9364 -0.00840231 0)
(4.81823 -0.0150577 0)
(4.70302 -0.0178883 0)
(4.59709 -0.0217985 0)
(4.49912 -0.0252327 0)
(4.40548 -0.0249392 0)
(4.3138 -0.0210541 0)
(4.22127 -0.016874 0)
(4.12471 -0.0153263 0)
(4.02267 -0.0167037 0)
(3.9183 -0.01921 0)
(3.81566 -0.0209394 0)
(3.72019 -0.0212929 0)
(3.63214 -0.0205832 0)
(3.55505 -0.0195337 0)
(-0.0451687 0.0747391 -1.95056e-21)
(-0.066196 0.00125849 1.93561e-21)
(0.00645889 -0.0909578 0)
(0.136575 -0.144102 0)
(0.293173 -0.168996 0)
(0.458346 -0.175922 -1.87714e-21)
(0.624759 -0.172935 0)
(0.787181 -0.165166 0)
(0.942715 -0.15516 0)
(1.09008 -0.143885 0)
(1.22822 -0.131532 1.88629e-21)
(1.35596 -0.117886 0)
(1.47156 -0.102713 0)
(1.57303 -0.085699 0)
(1.65793 -0.066842 0)
(1.72401 -0.0460707 1.91886e-21)
(1.76873 -0.023373 0)
(1.79124 0.000702426 0)
(1.78906 0.0268659 0)
(1.76054 0.0527837 0)
(1.70471 0.0804014 0)
(1.62489 0.106095 0)
(1.51687 0.131752 0)
(1.38909 0.157793 1.77907e-21)
(1.23444 0.176428 -1.74981e-21)
(1.06119 0.203675 1.72214e-21)
(0.870375 0.210151 1.69711e-21)
(0.659077 0.223728 0)
(0.451481 0.1984 0)
(0.272057 0.0759784 -1.64753e-21)
(0.152454 -0.0366596 -1.63418e-21)
(0.105949 -0.0840088 0)
(0.1688 -0.0891012 0)
(0.224226 -0.0816079 -1.5734e-21)
(0.289991 -0.0833322 0)
(0.441909 -0.0648965 0)
(0.631758 -0.184367 1.50967e-21)
(0.682329 -0.598383 0)
(0.680674 -0.659559 1.49798e-21)
(0.599906 -0.121925 2.9893e-21)
(0.123707 0.365692 0)
(-0.415969 0.443015 0)
(-0.963122 0.467785 0)
(-1.48982 0.460995 0)
(-1.98805 0.43233 0)
(-2.43547 0.386819 3.20804e-21)
(-2.83072 0.33615 3.34967e-21)
(-3.1705 0.284841 3.49407e-21)
(-3.45935 0.237299 0)
(-3.70086 0.194714 -3.7596e-21)
(-3.90098 0.157991 0)
(-4.06473 0.126827 3.96484e-21)
(-4.19745 0.100873 4.03987e-21)
(-4.30356 0.0794684 0)
(-4.3871 0.062019 0)
(-4.45153 0.0478534 0)
(-4.49993 0.0364757 4.15129e-21)
(-4.53492 0.0275121 0)
(-4.5588 0.0205107 0)
(-4.57352 0.0149794 0)
(-4.58033 0.0105864 0)
(-4.58022 0.00672801 0)
(-4.57331 0.00273172 0)
(-4.5588 -0.00195555 0)
(-4.53532 -0.00782279 0)
(-4.50066 -0.0150697 -3.55799e-21)
(-4.45262 -0.0236176 0)
(-4.38918 -0.0330088 0)
(-4.30946 -0.0424698 3.22318e-21)
(-4.21413 -0.0510854 3.10639e-21)
(-4.10556 -0.0579846 0)
(-3.98728 -0.0626232 -2.87318e-21)
(-3.86323 -0.0649316 2.75896e-21)
(-3.73689 -0.0652979 0)
(-3.61088 -0.0643561 -2.53762e-21)
(-3.48669 -0.0627682 0)
(-3.36473 -0.0611141 0)
(-3.2444 -0.0598571 2.22053e-21)
(-3.12446 -0.0592818 0)
(-3.00351 -0.0594592 -2.01348e-21)
(-2.88025 -0.0603432 0)
(-2.75337 -0.0618737 1.80659e-21)
(-2.62171 -0.0639395 1.70312e-21)
(-2.4844 -0.066354 1.5999e-21)
(-2.34093 -0.0689432 2.99466e-21)
(-2.19102 -0.0715573 -2.79184e-21)
(-2.03472 -0.0740161 0)
(-1.87244 -0.0761416 0)
(-1.70493 -0.0777819 0)
(-1.53321 -0.0788186 -2.03355e-21)
(-1.35851 -0.0791874 -1.8654e-21)
(-1.18211 -0.0788636 1.70861e-21)
(-1.0053 -0.0778852 0)
(-0.829272 -0.0763064 -1.43203e-21)
(-0.655207 -0.0741887 -1.31285e-21)
(-0.484169 -0.0715437 -1.20634e-21)
(-0.317192 -0.0683558 0)
(-0.155444 -0.0647827 0)
(-0.000596264 -0.0607289 0)
(0.146498 -0.0563067 -8.98973e-22)
(0.285332 -0.0514705 0)
(0.414883 -0.0463624 0)
(0.534485 -0.0411224 7.72903e-22)
(0.643772 -0.0358921 0)
(0.742675 -0.0308019 0)
(0.831394 -0.0259584 7.0594e-22)
(0.910341 -0.0214383 0)
(0.980081 -0.0172868 0)
(1.04126 -0.0135207 -6.697e-22)
(1.09457 -0.0101355 -6.60859e-22)
(1.14067 -0.00711212 0)
(1.1802 -0.00442287 6.45199e-22)
(1.21373 -0.0020406 0)
(1.24179 6.07781e-05 -6.30426e-22)
(1.26487 0.00189987 0)
(1.2834 0.00349186 -6.1528e-22)
(1.2978 0.00484478 -6.07361e-22)
(1.30851 0.00597484 0)
(1.31586 0.00689604 0)
(1.32033 0.00762145 0)
(1.3222 0.00822455 0)
(1.32174 0.00872108 0)
(1.3194 0.00906685 0)
(1.31553 0.00926511 0)
(1.31044 0.00934525 -5.32325e-22)
(1.30443 0.00933514 5.21394e-22)
(1.29771 0.00925412 0)
(1.29046 0.00911375 0)
(1.28287 0.00891645 0)
(1.27506 0.00865853 0)
(1.26719 0.00833919 9.23907e-22)
(1.25938 0.00796159 0)
(1.25174 0.00753303 -8.72552e-22)
(1.24436 0.00706589 8.4623e-22)
(1.23732 0.00657524 0)
(1.23066 0.00607521 0)
(1.22442 0.00557811 0)
(1.21862 0.00509584 -7.37717e-22)
(1.21325 0.0046395 -7.09997e-22)
(1.20831 0.00421553 0)
(1.20377 0.00382386 -6.54114e-22)
(1.1996 0.00346171 -6.26017e-22)
(1.19579 0.00312906 5.97855e-22)
(1.1923 0.00282898 0)
(1.1891 0.00256193 0)
(1.18617 0.00232183 5.13209e-22)
(1.18347 0.00209917 0)
(1.18094 0.00188755 0)
(1.17857 0.00168724 0)
(1.17632 0.00150093 0)
(1.17418 0.00133584 -3.72872e-22)
(1.17213 0.00119368 -3.45073e-22)
(1.17014 0.00107316 0)
(1.16821 0.000974457 -2.89833e-22)
(1.16631 0.000898522 0)
(1.16441 0.000843164 0)
(1.16249 0.000807531 -2.07978e-22)
(1.16051 0.000789732 0)
(1.15844 0.000788172 -1.54128e-22)
(1.15627 0.000800899 0)
(1.15392 0.000827509 0)
(1.15142 0.000866311 -7.43844e-23)
(1.14865 0.000921422 0)
(1.14568 0.000992161 -2.1783e-23)
(1.14227 0.00108883 0)
(1.13863 0.00120666 0)
(1.13426 0.00136783 0)
(1.12962 0.00155604 -8.28702e-23)
(1.12371 0.00182237 0)
(1.11751 0.00211818 1.35537e-22)
(1.10914 0.00257554 0)
(1.10028 0.0030378 0)
(1.08803 0.00388839 0)
(1.07405 0.00457107 0)
(1.05627 0.00636096 0)
(1.03037 0.00711894 0)
(1.00787 0.0116309 0)
(0.947861 0.0112163 -7.31274e-22)
(0.937902 0.0248799 0)
(0.765905 0.0161329 0)
(-0.0305102 0.152296 5.87207e-21)
(0.0252793 -0.103825 -5.82595e-21)
(0.147925 -0.336832 0)
(0.296499 -0.462352 3.82569e-21)
(0.449385 -0.51211 0)
(0.600916 -0.519327 1.87549e-21)
(0.75004 -0.505949 -3.78134e-21)
(0.896112 -0.483676 -3.78161e-21)
(1.03889 -0.457426 0)
(1.17784 -0.428501 -3.80026e-21)
(1.31207 -0.396498 -1.8852e-21)
(1.4396 -0.360563 0)
(1.55807 -0.319583 0)
(1.66408 -0.272911 0)
(1.75511 -0.22045 0)
(1.82746 -0.162366 -1.91809e-21)
(1.87984 -0.100368 0)
(1.90887 -0.034633 3.8806e-21)
(1.91542 0.031338 0)
(1.90064 0.0983567 0)
(1.86509 0.162222 -3.77615e-21)
(1.8116 0.222541 0)
(1.7409 0.281983 3.66271e-21)
(1.65888 0.328252 -1.77733e-21)
(1.56111 0.384641 1.74777e-21)
(1.46405 0.416814 -1.71976e-21)
(1.3478 0.448321 -1.6944e-21)
(1.2401 0.470343 0)
(1.11853 0.437279 0)
(1.0104 0.407553 1.64401e-21)
(0.943124 0.303823 -1.61381e-21)
(0.784497 0.0881093 0)
(0.705057 -0.148275 0)
(0.837788 -0.129707 1.57061e-21)
(1.02233 -0.231926 0)
(0.806596 -0.575037 0)
(0.525767 -0.185854 -1.51007e-21)
(-0.0998304 0.530343 0)
(-0.88649 0.824372 1.52074e-21)
(-1.41076 1.00631 -2.9821e-21)
(-1.89115 1.13938 0)
(-2.30006 1.15036 0)
(-2.69305 1.12169 -6.17926e-21)
(-3.03378 1.0433 -6.3277e-21)
(-3.34215 0.943106 -6.52869e-21)
(-3.60412 0.82906 3.56788e-21)
(-3.83272 0.714638 -3.34042e-21)
(-4.02526 0.605754 -1.076e-20)
(-4.19014 0.506744 7.51734e-21)
(-4.32855 0.419172 3.75338e-21)
(-4.44561 0.343102 0)
(-4.54306 0.277792 -3.96012e-21)
(-4.62388 0.222065 4.19576e-21)
(-4.68955 0.174777 0)
(-4.74187 0.134796 0)
(-4.78203 0.101117 0)
(-4.81137 0.0728626 -4.14868e-21)
(-4.83093 0.0492568 0)
(-4.84169 0.029508 8.28343e-21)
(-4.84448 0.0127861 0)
(-4.84017 -0.0019452 8.05343e-21)
(-4.82887 -0.015863 0)
(-4.81015 -0.0303123 -7.73687e-21)
(-4.78308 -0.046593 0)
(-4.74606 -0.0658138 7.35651e-21)
(-4.69723 -0.0885086 -3.59139e-21)
(-4.63451 -0.114366 0)
(-4.55648 -0.142026 -6.70293e-21)
(-4.46272 -0.169202 -3.22187e-21)
(-4.35443 -0.193197 -3.10514e-21)
(-4.2343 -0.211622 0)
(-4.10615 -0.223147 -2.89138e-21)
(-3.974 -0.227877 -2.75792e-21)
(-3.84125 -0.227207 0)
(-3.71012 -0.223174 2.53674e-21)
(-3.58166 -0.217766 -4.87605e-21)
(-3.45585 -0.212607 0)
(-3.33171 -0.208943 -2.21984e-21)
(-3.20761 -0.207531 0)
(-3.08192 -0.208523 6.05978e-21)
(-2.95332 -0.211714 0)
(-2.8206 -0.216857 -5.44066e-21)
(-2.68256 -0.223584 -1.70265e-21)
(-2.53837 -0.231305 1.62221e-21)
(-2.38757 -0.239496 3.03875e-21)
(-2.22993 -0.247744 -2.83469e-21)
(-2.06552 -0.255524 0)
(-1.89479 -0.262289 0)
(-1.71854 -0.267587 0)
(-1.53789 -0.27105 6.13169e-21)
(-1.35411 -0.272486 1.865e-21)
(-1.16858 -0.271844 -1.70827e-21)
(-0.982585 -0.269266 0)
(-0.797348 -0.264942 -1.4533e-21)
(-0.613971 -0.259021 1.31266e-21)
(-0.433372 -0.251636 1.20618e-21)
(-0.256588 -0.242796 0)
(-0.0847352 -0.232566 0)
(0.080607 -0.221275 0)
(0.23871 -0.208528 8.98708e-22)
(0.389094 -0.194644 0)
(0.530595 -0.17994 -1.62023e-21)
(0.662595 -0.164804 -2.32417e-21)
(0.784763 -0.149646 1.49614e-21)
(0.89707 -0.134844 0)
(0.999759 -0.120706 7.10392e-22)
(1.09329 -0.10745 0)
(1.17829 -0.0951989 1.36323e-21)
(1.25544 -0.0839925 -6.73371e-22)
(1.32549 -0.0738101 -6.64287e-22)
(1.38915 -0.0645906 0)
(1.44708 -0.0562516 -1.93808e-21)
(1.49988 -0.0487063 1.27806e-21)
(1.54805 -0.0418724 6.3018e-22)
(1.59202 -0.0356795 0)
(1.63213 -0.0300716 6.15017e-22)
(1.66867 -0.0250092 1.82338e-21)
(1.70186 -0.0204637 0)
(1.73199 -0.0164159 1.18244e-21)
(1.75922 -0.0128557 1.16457e-21)
(1.78388 -0.00974389 1.14602e-21)
(1.80631 -0.0070648 0)
(1.82675 -0.00483085 0)
(1.84544 -0.00301944 0)
(1.86265 -0.00157914 -5.33002e-22)
(1.87865 -0.000452077 -5.21064e-22)
(1.8937 0.00040948 0)
(1.90803 0.00105086 -9.97096e-22)
(1.92184 0.00151499 -9.73194e-22)
(1.93528 0.00183054 0)
(1.94845 0.00201894 -9.23234e-22)
(1.96142 0.00210289 -1.79633e-21)
(1.97422 0.00210492 8.71886e-22)
(1.98685 0.00204389 8.46068e-22)
(1.99929 0.00193461 0)
(2.0115 0.00179032 0)
(2.02347 0.00162341 0)
(2.03517 0.00144355 7.37102e-22)
(2.04656 0.00125762 -7.09527e-22)
(2.05765 0.00107289 -1.36316e-21)
(2.06841 0.000898017 6.53548e-22)
(2.07883 0.000738421 -6.25523e-22)
(2.08892 0.000592531 -5.97329e-22)
(2.09864 0.000455853 0)
(2.10802 0.000330116 0)
(2.11703 0.000226929 5.12764e-22)
(2.12567 0.000159922 0)
(2.13391 0.000133353 0)
(2.14171 0.000138296 -8.5679e-22)
(2.14905 0.000162085 0)
(2.15592 0.000190438 -3.72537e-22)
(2.16231 0.000217183 3.44759e-22)
(2.16823 0.000245944 0)
(2.17368 0.000280405 -2.89569e-22)
(2.17865 0.000323491 0)
(2.18314 0.00037546 0)
(2.18716 0.000436601 2.0779e-22)
(2.1907 0.000509299 -3.61664e-22)
(2.19377 0.000599815 1.53989e-22)
(2.19637 0.000706958 0)
(2.19848 0.000834491 0)
(2.20015 0.000982814 -7.44183e-23)
(2.20132 0.00116146 0)
(2.20204 0.00136512 -2.19299e-23)
(2.20221 0.00161999 0)
(2.20194 0.00190549 0)
(2.20099 0.0022938 0)
(2.19956 0.002708 8.27983e-23)
(2.19722 0.00334569 0)
(2.19428 0.00395268 -1.3542e-22)
(2.19009 0.00507973 0)
(2.1848 0.00593861 0)
(2.17808 0.00808937 4.31132e-22)
(2.16845 0.00917143 -4.86521e-22)
(2.15866 0.0136456 0)
(2.13949 0.0145856 0)
(2.12806 0.0247531 0)
(2.08459 0.0241248 2.17862e-21)
(2.08145 0.0488838 0)
(1.97144 0.0431385 -1.70024e-21)
(-0.00143593 0.0928395 2.31574e-23)
(0.12698 -0.357203 7.80116e-21)
(0.278877 -0.651477 0)
(0.421707 -0.774791 -7.68462e-21)
(0.554522 -0.804949 0)
(0.683083 -0.795598 0)
(0.812195 -0.772712 -5.72159e-23)
(0.944414 -0.745818 3.77937e-21)
(1.08022 -0.716369 3.85151e-21)
(1.21837 -0.682657 3.79813e-21)
(1.35631 -0.64204 0)
(1.4905 -0.591885 0)
(1.6167 -0.53011 -3.94136e-21)
(1.73042 -0.455593 -7.93125e-21)
(1.82693 -0.368669 7.96972e-21)
(1.90207 -0.270785 0)
(1.95251 -0.165042 7.99249e-21)
(1.97574 -0.0549899 -3.87978e-21)
(1.97163 0.0552815 0)
(1.94007 0.160723 7.83216e-21)
(1.88493 0.259738 3.7754e-21)
(1.80819 0.34548 -7.60024e-21)
(1.71777 0.420787 -3.66211e-21)
(1.6193 0.487507 0)
(1.51714 0.527485 7.17644e-21)
(1.4116 0.58577 7.03697e-21)
(1.31902 0.603559 0)
(1.2302 0.61394 6.77451e-21)
(1.13541 0.628612 0)
(1.07267 0.416489 6.5379e-21)
(0.92797 0.378402 3.24357e-21)
(0.917617 0.386375 0)
(0.918029 -0.218715 0)
(0.679626 -0.621558 0)
(0.352887 0.0611775 0)
(-0.45436 0.847645 0)
(-1.11546 1.20056 0)
(-1.63169 1.43158 6.15766e-21)
(-2.09042 1.5201 -9.20492e-21)
(-2.45891 1.62378 0)
(-2.77882 1.66013 0)
(-3.03414 1.62714 0)
(-3.26385 1.53963 -4.69227e-22)
(-3.45539 1.41242 6.3181e-21)
(-3.63278 1.26432 1.35252e-20)
(-3.78815 1.10882 -1.39752e-20)
(-3.93295 0.956934 -7.43284e-21)
(-4.06301 0.815666 7.27104e-21)
(-4.18297 0.688117 3.36562e-22)
(-4.29089 0.575522 8.0394e-21)
(-4.38818 0.477034 0)
(-4.47371 0.391442 8.34471e-21)
(-4.54759 0.31707 2.23098e-22)
(-4.60924 0.252512 0)
(-4.6587 0.19655 0)
(-4.69609 0.148245 -8.58554e-21)
(-4.72197 0.106731 0)
(-4.73697 0.0711146 0)
(-4.74184 0.0404552 8.54395e-21)
(-4.73771 0.0136332 1.65962e-20)
(-4.72541 -0.0107114 -8.05497e-21)
(-4.70524 -0.0341393 0)
(-4.67715 -0.0586312 7.73836e-21)
(-4.64058 -0.086342 0)
(-4.59457 -0.119036 7.47523e-21)
(-4.5379 -0.15754 7.14919e-21)
(-4.4694 -0.201121 -1.3957e-20)
(-4.38826 -0.247257 -6.79186e-21)
(-4.2945 -0.291926 0)
(-4.18931 -0.33052 1.25434e-20)
(-4.07511 -0.359145 0)
(-3.95528 -0.375763 1.73514e-20)
(-3.83345 -0.380824 1.11232e-20)
(-3.71265 -0.377014 1.06719e-20)
(-3.59462 -0.368154 -1.02335e-20)
(-3.47979 -0.357824 1.46824e-20)
(-3.36751 -0.348692 0)
(-3.25609 -0.342613 0)
(-3.14308 -0.340673 -8.57032e-21)
(-3.02633 -0.342962 -1.2209e-20)
(-2.90464 -0.348903 0)
(-2.77729 -0.357992 3.63402e-21)
(-2.64339 -0.369708 0)
(-2.50221 -0.383051 -9.73989e-21)
(-2.35346 -0.397076 7.61023e-23)
(-2.19699 -0.411189 -7.43497e-23)
(-2.03295 -0.424551 5.29572e-21)
(-1.86186 -0.43617 0)
(-1.68463 -0.445248 -4.5191e-21)
(-1.5026 -0.451114 5.61345e-23)
(-1.31727 -0.45343 0)
(-1.13022 -0.452164 0)
(-0.942935 -0.447606 0)
(-0.756689 -0.440176 2.88445e-21)
(-0.572591 -0.430138 0)
(-0.391501 -0.417777 0)
(-0.214322 -0.403216 0)
(-0.0425209 -0.386332 0)
(0.122698 -0.367598 0)
(0.280646 -0.346349 1.82461e-21)
(0.430267 -0.323225 0)
(0.570552 -0.298737 1.61982e-21)
(0.700861 -0.273557 1.55114e-21)
(0.820912 -0.248407 -1.49582e-21)
(0.930768 -0.223954 0)
(1.03078 -0.200735 -1.41587e-21)
(1.1215 -0.179126 0)
(1.20362 -0.159345 -1.36304e-21)
(1.27788 -0.141465 1.34268e-21)
(1.34504 -0.125448 3.98727e-21)
(1.40585 -0.111173 0)
(1.46107 -0.0984662 3.89e-21)
(1.5114 -0.0871288 1.28808e-21)
(1.55752 -0.0769669 0)
(1.60004 -0.0678078 2.50408e-21)
(1.63946 -0.0595185 2.47224e-21)
(1.67617 -0.052002 -3.65569e-21)
(1.71043 -0.0451974 0)
(1.74244 -0.0390736 -1.18238e-21)
(1.77234 -0.0336079 -1.16451e-21)
(1.80024 -0.0288059 -3.4427e-21)
(1.82627 -0.0246684 0)
(1.85061 -0.0211706 0)
(1.87346 -0.0182821 0)
(1.89505 -0.0159618 -1.06823e-21)
(1.91564 -0.0141571 0)
(1.93546 -0.0128105 0)
(1.95476 -0.0118587 9.97034e-22)
(1.97375 -0.0112373 9.73129e-22)
(1.99256 -0.0108766 0)
(2.01132 -0.0107078 0)
(2.03007 -0.0106711 1.79618e-21)
(2.04882 -0.0107133 0)
(2.06756 -0.0107895 -1.69148e-21)
(2.08622 -0.0108673 -1.63892e-21)
(2.10476 -0.0109258 0)
(2.12312 -0.0109525 0)
(2.14124 -0.010941 1.47475e-21)
(2.15908 -0.0108896 -4.68507e-25)
(2.17661 -0.0107995 -4.01787e-25)
(2.1938 -0.0106725 0)
(2.21064 -0.0105106 2.50192e-21)
(2.22712 -0.0103165 0)
(2.24322 -0.0100938 0)
(2.25894 -0.00984368 0)
(2.27425 -0.00956303 -1.02534e-21)
(2.28914 -0.00924633 0)
(2.30361 -0.00889093 1.82578e-21)
(2.31765 -0.00849962 8.56635e-22)
(2.33127 -0.00807508 0)
(2.34444 -0.00762791 7.44927e-22)
(2.35713 -0.00716883 0)
(2.36929 -0.00670098 0)
(2.38091 -0.00622581 1.73718e-21)
(2.39197 -0.00574299 -1.04858e-21)
(2.40244 -0.00524922 0)
(2.41229 -0.00474129 -8.31154e-22)
(2.4215 -0.00422059 3.61585e-22)
(2.43004 -0.00369616 0)
(2.43791 -0.00317216 0)
(2.44512 -0.00264481 0)
(2.45166 -0.00211737 4.46458e-22)
(2.45754 -0.00157151 0)
(2.46277 -0.00101451 4.36834e-23)
(2.46735 -0.00040577 0)
(2.47126 0.000222127 0)
(2.47455 0.000973694 0)
(2.4771 0.00173616 0)
(2.47906 0.00278577 0)
(2.48008 0.00377555 0)
(2.48063 0.00544338 -6.43491e-22)
(2.47968 0.00677583 0)
(2.47871 0.0097468 -4.31019e-22)
(2.47475 0.011505 1.45326e-21)
(2.47227 0.0173197 0)
(2.46291 0.0194357 0)
(2.45977 0.0316993 -1.3103e-21)
(2.43963 0.0337489 -1.44755e-21)
(2.43925 0.0608777 1.55314e-21)
(2.39795 0.0633133 1.69964e-21)
(0.0411866 -0.107908 -1.18918e-20)
(0.203701 -0.692097 -1.17995e-20)
(0.351995 -0.96172 -7.84787e-21)
(0.478029 -1.04175 -3.96131e-21)
(0.594673 -1.05179 0)
(0.713594 -1.0441 7.8032e-21)
(0.840769 -1.03347 -3.97872e-21)
(0.977442 -1.02078 0)
(1.1223 -1.00221 -3.84935e-21)
(1.27273 -0.973347 0)
(1.42507 -0.929628 7.99689e-21)
(1.57428 -0.866758 0)
(1.71442 -0.78185 3.93873e-21)
(1.83912 -0.673834 7.92613e-21)
(1.94257 -0.543805 -7.96497e-21)
(2.01952 -0.395293 0)
(2.06644 -0.233241 -7.98914e-21)
(2.08031 -0.0650225 0)
(2.06069 0.102803 0)
(2.0068 0.261683 -7.82951e-21)
(1.92109 0.403922 0)
(1.81063 0.525896 -2.31227e-22)
(1.67997 0.619638 0)
(1.54273 0.692814 0)
(1.40475 0.755884 1.31213e-22)
(1.27931 0.768483 -7.03746e-21)
(1.15162 0.778033 -6.9843e-21)
(1.02147 0.785566 -6.77621e-21)
(0.94425 0.696939 0)
(0.789948 0.742622 -1.31056e-20)
(0.666131 0.566424 0)
(0.726748 0.0303998 -6.36302e-21)
(0.437099 0.210113 0)
(-0.390705 0.929547 0)
(-1.05173 1.42653 6.26893e-21)
(-1.5935 1.72483 0)
(-1.99175 1.88374 -6.33516e-21)
(-2.33255 1.98903 2.71211e-22)
(-2.61034 2.03016 1.27017e-20)
(-2.85639 2.0449 -1.32696e-20)
(-3.05786 2.00241 0)
(-3.23186 1.91687 0)
(-3.38059 1.78952 -7.56519e-21)
(-3.50759 1.63532 0)
(-3.62109 1.46574 -7.00204e-21)
(-3.72143 1.29328 7.21442e-21)
(-3.81524 1.12643 7.43268e-21)
(-3.90315 0.971282 0)
(-3.98845 0.830176 -7.85315e-21)
(-4.0708 0.703884 -8.04136e-21)
(-4.15001 0.591298 1.70294e-20)
(-4.22429 0.490967 -8.34756e-21)
(-4.29173 0.401055 -8.45787e-21)
(-4.35009 0.320145 0)
(-4.39736 0.247267 0)
(-4.43208 0.181915 8.58961e-21)
(-4.45337 0.123869 0)
(-4.46093 0.0727377 0)
(-4.4549 0.0277884 -1.68389e-20)
(-4.43588 -0.0117715 -1.66054e-20)
(-4.40486 -0.0474734 0)
(-4.36337 -0.0814988 0)
(-4.31307 -0.116429 0)
(-4.25538 -0.154878 0)
(-4.19146 -0.198818 -1.48426e-20)
(-4.12226 -0.248939 1.45239e-20)
(-4.04858 -0.304142 1.39658e-20)
(-3.97097 -0.361348 2.70946e-20)
(-3.88984 -0.415837 0)
(-3.80554 -0.462191 7.36102e-23)
(-3.71853 -0.495687 0)
(-3.6296 -0.513713 -1.15923e-20)
(-3.54 -0.516746 6.42517e-23)
(-3.45105 -0.50841 -1.06747e-20)
(-3.36362 -0.494268 1.02358e-20)
(-3.27792 -0.479737 6.86318e-23)
(-3.1934 -0.468701 0)
(-3.10802 -0.463446 9.05759e-21)
(-3.01802 -0.464961 8.57058e-21)
(-2.91986 -0.472692 1.64177e-20)
(-2.8123 -0.485037 0)
(-2.69578 -0.500865 -7.44413e-21)
(-2.57041 -0.519724 0)
(-2.43609 -0.540531 1.31422e-20)
(-2.29293 -0.561908 -6.10659e-21)
(-2.14088 -0.583135 5.69799e-21)
(-1.98023 -0.603155 -5.29473e-21)
(-1.81161 -0.620536 -9.99059e-21)
(-1.63589 -0.634072 4.51814e-21)
(-1.45465 -0.642696 -4.15288e-21)
(-1.26959 -0.645882 0)