/*--------------------------------*- C++ -*----------------------------------*\
  =========                 |
  \\      /  F ield         | OpenFOAM: The Open Source CFD Toolbox
   \\    /   O peration     | Website:  https://openfoam.org
    \\  /    A nd           | Version:  7
     \\/     M anipulation  |
\*---------------------------------------------------------------------------*/
FoamFile
{
    version     2.0;
    format      ascii;
    class       volVectorField;
    location    "0.052";
    object      UMean;
}
// * * * * * * * * * * * * * * * * * * * * * * * * * * * * * * * * * * * * * //

dimensions      [0 1 -1 0 0 0 0];

internalField   nonuniform List<vector> 
12225
(
(4.77815 0.164042 0)
(4.18581 0.111024 0)
(3.72708 0.0975622 0)
(3.36039 0.0808592 0)
(3.03203 0.0674574 0)
(2.72808 0.0575398 0)
(2.44957 0.0488909 0)
(2.2004 0.0408118 0)
(1.98382 0.032324 0)
(1.79939 0.0249371 0)
(1.64928 0.0165242 0)
(1.52807 0.0114315 0)
(1.4394 0.0026715 0)
(1.37171 0.00324993 0)
(1.33005 -0.00949471 0)
(1.30397 0.00292743 0)
(1.29551 -0.0272918 0)
(1.31283 0.000346476 0)
(5.0185 0.113085 0)
(4.87421 0.0731151 0)
(4.75848 0.0890032 0)
(4.67063 0.0882786 0)
(4.57956 0.0863263 0)
(4.47785 0.0860511 0)
(4.36751 0.0856052 0)
(4.25457 0.0830182 0)
(4.14121 0.0790159 0)
(4.0329 0.0722218 0)
(3.92803 0.065497 0)
(3.83441 0.0554001 0)
(3.74437 0.0486164 0)
(3.67192 0.0362026 0)
(3.59731 0.0328312 0)
(3.5491 0.0162581 0)
(3.48877 0.0149713 0)
(3.46192 -0.0195194 0)
(4.9948 0.171975 0)
(4.87646 0.121711 0)
(4.79856 0.1295 0)
(4.76867 0.123676 0)
(4.7542 0.116108 0)
(4.73969 0.112177 0)
(4.72291 0.10935 0)
(4.70462 0.10598 0)
(4.68516 0.100325 0)
(4.66409 0.0938695 0)
(4.64172 0.0845798 0)
(4.61774 0.0764672 0)
(4.59399 0.064714 0)
(4.56954 0.0576844 0)
(4.54831 0.0442972 0)
(4.52664 0.0385241 0)
(4.5119 0.0205391 0)
(4.49216 0.00121524 0)
(4.9963 0.189078 0)
(4.90101 0.119852 0)
(4.82424 0.118078 0)
(4.78984 0.113553 0)
(4.77716 0.105994 0)
(4.77036 0.101197 0)
(4.766 0.09873 0)
(4.76451 0.0958656 0)
(4.76574 0.091835 0)
(4.76855 0.0858967 0)
(4.77193 0.07922 0)
(4.77488 0.070799 0)
(4.77776 0.0628615 0)
(4.77981 0.0531733 0)
(4.78342 0.0448285 0)
(4.7862 0.033467 0)
(4.79328 0.0205872 0)
(4.79589 0.00202304 0)
(4.99492 0.213763 0)
(4.92344 0.143526 0)
(4.855 0.134254 0)
(4.81904 0.129272 0)
(4.80471 0.119784 0)
(4.79731 0.111771 0)
(4.79247 0.106298 0)
(4.79049 0.101581 0)
(4.79189 0.0958499 0)
(4.79582 0.089117 0)
(4.80149 0.0810608 0)
(4.80776 0.0725826 0)
(4.81475 0.0631442 0)
(4.82185 0.0536978 0)
(4.83018 0.0433532 0)
(4.83882 0.0316289 0)
(4.84919 0.0179459 0)
(4.85754 -0.00195009 0)
(4.99282 0.229323 0)
(4.93998 0.157601 0)
(4.88143 0.139431 0)
(4.84635 0.132323 0)
(4.83144 0.12179 0)
(4.82433 0.11172 0)
(4.81969 0.104324 0)
(4.81734 0.0982574 0)
(4.81797 0.0919291 0)
(4.82116 0.0845881 0)
(4.82619 0.0763788 0)
(4.83208 0.0673834 0)
(4.83874 0.0579334 0)
(4.84564 0.0478982 0)
(4.85355 0.0371481 0)
(4.86153 0.0250471 0)
(4.87044 0.0105808 0)
(4.87739 -0.00725921 0)
(4.99494 0.244366 0)
(4.95608 0.174677 0)
(4.90663 0.149462 0)
(4.87321 0.139337 0)
(4.85789 0.128071 0)
(4.85132 0.116702 0)
(4.84756 0.107468 0)
(4.84566 0.0998956 0)
(4.84619 0.0924836 0)
(4.84901 0.0844223 0)
(4.85354 0.075616 0)
(4.85891 0.0661782 0)
(4.86498 0.0562601 0)
(4.87118 0.0456897 0)
(4.8781 0.0344558 0)
(4.88467 0.02179 0)
(4.89176 0.00751029 0)
(4.89651 -0.00924747 0)
(5.00125 0.253639 0)
(4.97381 0.18828 0)
(4.93318 0.157965 0)
(4.90194 0.144043 0)
(4.88595 0.131723 0)
(4.87918 0.119209 0)
(4.87579 0.108304 0)
(4.87401 0.0991654 0)
(4.87419 0.0907058 0)
(4.8764 0.0819704 0)
(4.88032 0.0726742 0)
(4.88511 0.0628318 0)
(4.89061 0.0525315 0)
(4.89616 0.041658 0)
(4.90227 0.0300805 0)
(4.90777 0.0173864 0)
(4.91356 0.00344099 0)
(4.91692 -0.0121324 0)
(5.00291 0.261816 0)
(4.9849 0.201368 0)
(4.95291 0.167702 0)
(4.9253 0.149976 0)
(4.90985 0.136266 0)
(4.90331 0.122837 0)
(4.90054 0.110581 0)
(4.89927 0.099994 0)
(4.8995 0.0903969 0)
(4.90136 0.080894 0)
(4.90476 0.0710502 0)
(4.90903 0.0607392 0)
(4.91399 0.0500302 0)
(4.91895 0.0388175 0)
(4.92429 0.0270358 0)
(4.9289 0.0144013 0)
(4.93359 0.000908841 0)
(4.93608 -0.0135516 0)
(4.99751 0.267761 0)
(4.98612 0.212279 0)
(4.9614 0.176767 0)
(4.93807 0.155605 0)
(4.9242 0.140002 0)
(4.9185 0.125557 0)
(4.91679 0.11219 0)
(4.91657 0.100374 0)
(4.91745 0.0897281 0)
(4.91953 0.079485 0)
(4.92285 0.0691229 0)
(4.9269 0.0584378 0)
(4.93149 0.0474126 0)
(4.93605 0.0359846 0)
(4.94075 0.0241165 0)
(4.94471 0.0116769 0)
(4.94847 -0.00128006 0)
(4.95038 -0.0147049 0)
(4.98924 0.270759 0)
(4.98239 0.220044 0)
(4.96385 0.183656 0)
(4.94459 0.159816 0)
(4.93198 0.142294 0)
(4.92619 0.12679 0)
(4.92433 0.112478 0)
(4.92417 0.0996184 0)
(4.92511 0.0880652 0)
(4.92711 0.0771696 0)
(4.93025 0.0663566 0)
(4.93408 0.0553369 0)
(4.93844 0.0440503 0)
(4.94267 0.0324853 0)
(4.94696 0.0206563 0)
(4.95037 0.00852658 0)
(4.95366 -0.00380987 0)
(4.95509 -0.0162736 0)
(5.00415 0.2748 0)
(4.9992 0.227566 0)
(4.98371 0.191252 0)
(4.96673 0.165614 0)
(4.95493 0.14636 0)
(4.94908 0.129816 0)
(4.94705 0.114663 0)
(4.94686 0.100859 0)
(4.94778 0.0882981 0)
(4.94965 0.076557 0)
(4.95252 0.0651501 0)
(4.95597 0.0537584 0)
(4.9599 0.042265 0)
(4.96358 0.0306499 0)
(4.96728 0.0189267 0)
(4.97002 0.00711834 0)
(4.97273 -0.0047015 0)
(4.97362 -0.0164102 0)
(5.00042 0.27741 0)
(4.99876 0.23198 0)
(4.9878 0.196074 0)
(4.97477 0.169112 0)
(4.96541 0.148144 0)
(4.96084 0.130339 0)
(4.9596 0.114295 0)
(4.96003 0.0997159 0)
(4.96135 0.0864487 0)
(4.96336 0.0741414 0)
(4.96615 0.0623387 0)
(4.96939 0.0507144 0)
(4.97302 0.0391272 0)
(4.97634 0.0275473 0)
(4.97965 0.0160046 0)
(4.98197 0.00454107 0)
(4.98436 -0.00677123 0)
(4.985 -0.0178368 0)
(5.01278 0.281007 0)
(5.01348 0.238237 0)
(5.00555 0.202735 0)
(4.99515 0.174562 0)
(4.98749 0.152006 0)
(4.98372 0.132965 0)
(4.98284 0.116052 0)
(4.98352 0.100674 0)
(4.98508 0.0865817 0)
(4.9872 0.0734841 0)
(4.9899 0.0610691 0)
(4.99289 0.0490708 0)
(4.99618 0.0373434 0)
(4.99914 0.0258323 0)
(5.00212 0.0145296 0)
(5.00416 0.00345944 0)
(5.00634 -0.0073506 0)
(5.00694 -0.0178044 0)
(5.00871 0.279178 0)
(5.01294 0.240165 0)
(5.00895 0.20566 0)
(5.00218 0.176727 0)
(4.99718 0.152748 0)
(4.99513 0.132348 0)
(4.99544 0.114402 0)
(4.99711 0.0982748 0)
(4.99951 0.0835914 0)
(5.00226 0.0700302 0)
(5.00534 0.0572884 0)
(5.00848 0.0451236 0)
(5.01171 0.0333833 0)
(5.01458 0.0219981 0)
(5.01737 0.0109417 0)
(5.01941 0.000231159 0)
(5.0215 -0.0101174 0)
(5.02238 -0.0200271 0)
(5.00729 0.281394 0)
(5.01217 0.244362 0)
(5.01064 0.210636 0)
(5.00707 0.181361 0)
(5.00491 0.156289 0)
(5.0048 0.134569 0)
(5.00621 0.115398 0)
(5.00851 0.0982215 0)
(5.01136 0.0826705 0)
(5.0145 0.0684456 0)
(5.01788 0.0552683 0)
(5.02127 0.0429129 0)
(5.02467 0.0311968 0)
(5.02772 0.0200268 0)
(5.03065 0.00931492 0)
(5.03289 -0.000923424 0)
(5.03512 -0.0107527 0)
(5.03631 -0.0200565 0)
(5.00356 0.27889 0)
(5.00881 0.241587 0)
(5.00913 0.207532 0)
(5.00848 0.177694 0)
(5.00937 0.151877 0)
(5.01178 0.129452 0)
(5.01498 0.109722 0)
(5.01847 0.0921014 0)
(5.02209 0.0761582 0)
(5.02575 0.0615979 0)
(5.02944 0.0481859 0)
(5.03299 0.0357347 0)
(5.03645 0.0240684 0)
(5.03952 0.0130768 0)
(5.04246 0.00265291 0)
(5.04478 -0.00720759 0)
(5.04713 -0.0165796 0)
(5.04854 -0.0253912 0)
(5.01057 0.283485 0)
(5.01755 0.244663 0)
(5.01995 0.209666 0)
(5.02131 0.178864 0)
(5.0242 0.152059 0)
(5.02855 0.128703 0)
(5.03346 0.108166 0)
(5.03835 0.089919 0)
(5.04304 0.0735651 0)
(5.04749 0.0588164 0)
(5.05179 0.0454213 0)
(5.05578 0.0331779 0)
(5.05955 0.0218794 0)
(5.06282 0.0114007 0)
(5.06587 0.0015885 0)
(5.06823 -0.0075782 0)
(5.07058 -0.0162356 0)
(5.0719 -0.0242976 0)
(5.00555 0.276445 0)
(5.01636 0.236058 0)
(5.02322 0.199523 0)
(5.02918 0.167442 0)
(5.03652 0.139699 0)
(5.04489 0.115721 0)
(5.05322 0.0947792 0)
(5.0609 0.0762441 0)
(5.06783 0.059667 0)
(5.07407 0.0447562 0)
(5.07978 0.0312873 0)
(5.08489 0.0190802 0)
(5.08952 0.0079518 0)
(5.0935 -0.00223202 0)
(5.0971 -0.0116219 0)
(5.09997 -0.0202838 0)
(5.10271 -0.0283587 0)
(5.10454 -0.0358331 0)
(5.00198 0.273937 0)
(5.01333 0.229377 0)
(5.02316 0.189359 0)
(5.0337 0.155252 0)
(5.04576 0.12692 0)
(5.058 0.103362 0)
(5.06912 0.083442 0)
(5.07878 0.0662946 0)
(5.08726 0.0513263 0)
(5.09485 0.0381221 0)
(5.10174 0.0263404 0)
(5.10788 0.0157203 0)
(5.11337 0.00604238 0)
(5.11805 -0.0028027 0)
(5.12219 -0.0109411 0)
(5.12553 -0.0183921 0)
(5.12857 -0.0253107 0)
(5.13072 -0.0316557 0)
(4.99556 0.270859 0)
(5.00949 0.218301 0)
(5.02411 0.173803 0)
(5.04036 0.13795 0)
(5.0577 0.109219 0)
(5.07418 0.0854675 0)
(5.08861 0.0650839 0)
(5.10093 0.0472851 0)
(5.11161 0.0317697 0)
(5.12098 0.0183185 0)
(5.12922 0.00662255 0)
(5.1363 -0.00364633 0)
(5.14238 -0.0127823 0)
(5.14741 -0.0209798 0)
(5.15174 -0.0284115 0)
(5.15516 -0.0351685 0)
(5.15829 -0.0413911 0)
(5.16046 -0.0471061 0)
(5.00576 0.265909 0)
(5.02384 0.203899 0)
(5.0445 0.155527 0)
(5.0666 0.120223 0)
(5.08807 0.0943539 0)
(5.10692 0.0741622 0)
(5.1228 0.0572729 0)
(5.13651 0.04265 0)
(5.14883 0.0299182 0)
(5.15993 0.0188332 0)
(5.16978 0.00909723 0)
(5.17825 0.00044112 0)
(5.1855 -0.00736488 0)
(5.19153 -0.0144481 0)
(5.19672 -0.0209427 0)
(5.2009 -0.0268936 0)
(5.20466 -0.0324537 0)
(5.20738 -0.0376029 0)
(5.0011 0.259447 0)
(5.02945 0.186311 0)
(5.06223 0.132786 0)
(5.09413 0.0957716 0)
(5.12182 0.0686078 0)
(5.14419 0.0465272 0)
(5.16215 0.0278009 0)
(5.17719 0.0122637 0)
(5.19026 -0.000291557 0)
(5.20155 -0.0104734 0)
(5.21114 -0.0189975 0)
(5.21907 -0.0263905 0)
(5.22567 -0.0329459 0)
(5.23108 -0.0388063 0)
(5.23572 -0.0440892 0)
(5.23943 -0.0488923 0)
(5.24273 -0.0533351 0)
(5.24505 -0.0574745 0)
(5.00482 0.243886 0)
(5.04186 0.162886 0)
(5.08551 0.113344 0)
(5.12453 0.0855214 0)
(5.15505 0.066496 0)
(5.17851 0.0495618 0)
(5.19801 0.0341098 0)
(5.21544 0.020944 0)
(5.23102 0.0101885 0)
(5.24433 0.00127523 0)
(5.25527 -0.00643531 0)
(5.26412 -0.0133037 0)
(5.27144 -0.0194882 0)
(5.27749 -0.0250538 0)
(5.28268 -0.0301151 0)
(5.28689 -0.0347375 0)
(5.29063 -0.0390573 0)
(5.29338 -0.0430637 0)
(5.00602 0.227191 0)
(5.05958 0.125806 0)
(5.12114 0.0713432 0)
(5.17002 0.0429959 0)
(5.20342 0.0226309 0)
(5.22728 0.00481561 0)
(5.24721 -0.00941203 0)
(5.26513 -0.0196042 0)
(5.28087 -0.0269792 0)
(5.29399 -0.0329638 0)
(5.3047 -0.0383 0)
(5.31344 -0.0431656 0)
(5.3208 -0.0475634 0)
(5.32695 -0.051532 0)
(5.33224 -0.0551553 0)
(5.33647 -0.0585183 0)
(5.34015 -0.0616865 0)
(5.34276 -0.0646954 0)
(5.01316 0.210478 0)
(5.08824 0.111285 0)
(5.16771 0.0758818 0)
(5.22331 0.0593869 0)
(5.25773 0.0410315 0)
(5.28289 0.0227107 0)
(5.30548 0.00836372 0)
(5.326 -0.00163261 0)
(5.34331 -0.00903605 0)
(5.35712 -0.015292 0)
(5.36813 -0.0209292 0)
(5.37705 -0.0260091 0)
(5.38449 -0.0305439 0)
(5.39059 -0.0346058 0)
(5.39567 -0.0383076 0)
(5.39962 -0.0417222 0)
(5.40296 -0.0449301 0)
(5.4053 -0.0479288 0)
(5.00793 0.159055 0)
(5.12181 0.0346088 0)
(5.22008 0.00659062 0)
(5.27614 -0.0032847 0)
(5.30739 -0.0177096 0)
(5.33207 -0.030223 0)
(5.35548 -0.0379659 0)
(5.37658 -0.042776 0)
(5.39403 -0.0466248 0)
(5.40795 -0.0501945 0)
(5.41923 -0.0534604 0)
(5.42856 -0.0563533 0)
(5.43648 -0.0589045 0)
(5.44305 -0.0612214 0)
(5.44861 -0.0633797 0)
(5.45302 -0.0654555 0)
(5.4568 -0.0674706 0)
(5.45951 -0.0694622 0)
(5.01252 0.151602 0)
(5.17529 0.0570894 0)
(5.29825 0.0432164 0)
(5.35751 0.0266376 0)
(5.38933 0.00735529 0)
(5.41657 -0.00626524 0)
(5.44214 -0.0142536 0)
(5.46409 -0.0197616 0)
(5.48164 -0.0245268 0)
(5.49543 -0.0289056 0)
(5.5064 -0.0328188 0)
(5.51523 -0.0362908 0)
(5.52229 -0.0393711 0)
(5.52776 -0.0421924 0)
(5.53183 -0.044773 0)
(5.53455 -0.0472352 0)
(5.53623 -0.0495486 0)
(5.53677 -0.0518332 0)
(5.01488 0.0197626 0)
(5.22738 -0.0512083 0)
(5.35314 -0.0342371 0)
(5.4058 -0.0428765 0)
(5.43452 -0.0530416 0)
(5.45688 -0.0576591 0)
(5.47362 -0.0594652 0)
(5.48317 -0.0608254 0)
(5.48554 -0.0622421 0)
(5.48195 -0.0635756 0)
(5.47362 -0.0646865 0)
(5.4617 -0.0655996 0)
(5.44666 -0.0663428 0)
(5.42931 -0.0670182 0)
(5.40956 -0.0676122 0)
(5.38844 -0.0682312 0)
(5.36518 -0.068816 0)
(5.34162 -0.0695117 0)
(4.96761 0.0686855 0)
(5.10254 -0.00141537 0)
(5.07336 -0.00147512 0)
(4.9582 -0.0116888 0)
(4.82977 -0.0192434 0)
(4.70476 -0.0222079 0)
(4.58334 -0.0233393 0)
(4.46375 -0.0240576 0)
(4.34556 -0.0245853 0)
(4.22949 -0.0249077 0)
(4.1163 -0.0250488 0)
(4.00671 -0.0250607 0)
(3.90075 -0.0249753 0)
(3.79884 -0.0248332 0)
(3.70029 -0.0246406 0)
(3.60596 -0.024451 0)
(3.51417 -0.024245 0)
(3.42725 -0.0241213 0)
(-0.000868173 -0.0111362 1.80769e-21)
(0.0207774 -0.0395976 -1.79656e-21)
(0.060896 -0.0539958 0)
(0.104622 -0.0588957 0)
(0.149448 -0.0592856 0)
(0.193717 -0.057687 1.73809e-21)
(0.23683 -0.055284 0)
(0.278433 -0.0525634 0)
(0.318378 -0.0496345 0)
(0.356455 -0.0464318 0)
(0.392269 -0.042786 -1.6394e-21)
(0.425194 -0.0384807 0)
(0.45433 -0.033283 0)
(0.478528 -0.026974 0)
(0.496388 -0.0193682 0)
(0.506359 -0.01035 -1.52567e-21)
(0.50679 0.000144034 0)
(0.496161 0.0120741 0)
(0.473161 0.0253229 0)
(0.435761 0.0395685 0)
(0.383321 0.0541801 0)
(0.315746 0.0682706 0)
(0.234 0.0808509 0)
(0.139768 0.0905245 -1.423e-21)
(0.0359038 0.0961605 1.41675e-21)
(-0.0744354 0.0963608 -1.40952e-21)
(-0.186838 0.0912843 -1.40071e-21)
(-0.296207 0.0799605 0)
(-0.396396 0.0626905 0)
(-0.484627 0.0403686 1.364e-21)
(-0.556333 0.0177023 1.34914e-21)
(-0.61697 0.00538715 0)
(-0.680813 0.00550092 0)
(-0.759051 0.0166099 1.29696e-21)
(-0.852248 0.0399399 0)
(-0.962185 0.0633502 0)
(-1.08762 0.0714759 -1.2372e-21)
(-1.2233 0.0807189 0)
(-1.36325 0.110703 -1.19018e-21)
(-1.5118 0.136698 -2.3307e-21)
(-1.65511 0.129038 0)
(-1.77701 0.11202 0)
(-1.88323 0.0964371 0)
(-1.97133 0.0808131 0)
(-2.04282 0.0659507 0)
(-2.0975 0.0516488 -2.00705e-21)
(-2.13619 0.0381559 -1.96829e-21)
(-2.15933 0.0254592 -1.93762e-21)
(-2.16764 0.0136416 0)
(-2.1618 0.00273492 1.90226e-21)
(-2.14263 -0.00721377 0)
(-2.11098 -0.0161813 -1.90154e-21)
(-2.06804 -0.0241542 -1.91316e-21)
(-2.01468 -0.0311467 0)
(-1.95208 -0.0371539 0)
(-1.88137 -0.0422048 0)
(-1.80371 -0.0463254 -2.02039e-21)
(-1.72013 -0.0495911 0)
(-1.63188 -0.0520513 0)
(-1.53986 -0.0538022 0)
(-1.44504 -0.0549126 0)
(-1.34824 -0.0554739 0)
(-1.25023 -0.0555475 0)
(-1.15167 -0.0552132 0)
(-1.05313 -0.0545381 0)
(-0.955091 -0.0536099 2.35843e-21)
(-0.857895 -0.0524978 0)
(-0.761784 -0.0512829 0)
(-0.666877 -0.0500377 -2.44025e-21)
(-0.573183 -0.0488196 -2.46246e-21)
(-0.480645 -0.0476712 0)
(-0.389158 -0.0466102 2.49995e-21)
(-0.298598 -0.0456401 -2.5155e-21)
(-0.208842 -0.044759 0)
(-0.119789 -0.0439555 2.54089e-21)
(-0.0313342 -0.043214 0)
(0.0566137 -0.0425269 0)
(0.144118 -0.0418662 -2.56634e-21)
(0.231192 -0.0411982 0)
(0.317729 -0.040465 2.57567e-21)
(0.403533 -0.0396062 0)
(0.488284 -0.0385761 -2.57851e-21)
(0.571571 -0.037337 -2.5772e-21)
(0.652957 -0.0358836 -2.57392e-21)
(0.732008 -0.034234 -5.13722e-21)
(0.808348 -0.0324276 5.12253e-21)
(0.881701 -0.0305124 0)
(0.951858 -0.028535 0)
(1.01867 -0.0265384 0)
(1.08206 -0.0245615 5.02652e-21)
(1.142 -0.0226213 4.99446e-21)
(1.19851 -0.0207338 -4.95975e-21)
(1.25164 -0.0189089 0)
(1.30145 -0.017144 4.88344e-21)
(1.348 -0.0154458 4.84237e-21)
(1.39135 -0.0138112 4.79967e-21)
(1.43158 -0.0122382 0)
(1.46873 -0.0107382 0)
(1.50291 -0.0093059 0)
(1.5342 -0.00794607 4.61709e-21)
(1.5627 -0.00666524 0)
(1.58853 -0.0054681 0)
(1.61181 -0.00435845 -4.47342e-21)
(1.63268 -0.00333863 0)
(1.65129 -0.00240923 0)
(1.66778 -0.00156917 -4.32879e-21)
(1.6823 -0.000815814 0)
(1.69501 -0.000145339 0)
(1.70603 0.000446895 4.18594e-21)
(1.71552 0.000965902 4.13899e-21)
(1.72361 0.00141686 0)
(1.7304 0.00180476 -4.0463e-21)
(1.73602 0.00213443 0)
(1.74058 0.00241039 3.95531e-21)
(1.74418 0.00263691 0)
(1.74691 0.0028183 3.86607e-21)
(1.74887 0.00295858 3.82211e-21)
(1.75014 0.00306242 0)
(1.7508 0.003134 0)
(1.75092 0.00317907 0)
(1.75056 0.00320266 0)
(1.74979 0.00320173 0)
(1.74868 0.00317449 0)
(1.74727 0.00312355 0)
(1.74563 0.00305283 3.48544e-21)
(1.74379 0.00296573 -3.44512e-21)
(1.74181 0.00286491 0)
(1.73971 0.00275289 0)
(1.73753 0.00263206 0)
(1.7353 0.00250484 0)
(1.73305 0.0023737 -6.49776e-21)
(1.73078 0.00224107 0)
(1.72854 0.00210927 6.34544e-21)
(1.72631 0.00198036 -6.27022e-21)
(1.72412 0.00185601 0)
(1.72196 0.00173754 0)
(1.71985 0.00162588 0)
(1.71779 0.00152161 5.97525e-21)
(1.71576 0.00142493 5.90292e-21)
(1.71378 0.00133579 0)
(1.71184 0.00125398 5.75988e-21)
(1.70993 0.00117924 5.68915e-21)
(1.70805 0.00111132 -5.61893e-21)
(1.7062 0.00104985 0)
(1.70438 0.000994345 0)
(1.70257 0.00094435 -5.41124e-21)
(1.70078 0.000899533 0)
(1.69899 0.00085972 0)
(1.69722 0.000824827 0)
(1.69544 0.000794786 0)
(1.69366 0.000769457 5.07451e-21)
(1.69188 0.000748642 5.00852e-21)
(1.69009 0.00073217 0)
(1.68827 0.000719896 4.87785e-21)
(1.68644 0.00071165 0)
(1.68457 0.00070728 0)
(1.68266 0.000706679 4.68507e-21)
(1.68071 0.000709996 0)
(1.6787 0.000717483 4.55867e-21)
(1.67662 0.000729813 0)
(1.67445 0.000747636 0)
(1.67219 0.000772263 4.37228e-21)
(1.66978 0.000805167 0)
(1.66726 0.0008482 4.25021e-21)
(1.66447 0.000904973 0)
(1.66155 0.000976434 0)
(1.65816 0.00107362 0)
(1.65463 0.00118886 -4.01184e-21)
(1.65022 0.00136047 0)
(1.64571 0.00154037 3.89608e-21)
(1.63958 0.0018661 0)
(1.63337 0.00212696 0)
(1.62434 0.00281952 0)
(1.61469 0.0031157 0)
(1.60109 0.00481748 0)
(1.58286 0.00479428 0)
(1.56361 0.00971647 0)
(1.51893 0.00786823 -6.96271e-21)
(1.49943 0.0254063 0)
(1.35708 0.0192085 0)
(0.000732463 -0.0298044 -5.42365e-21)
(0.0141817 -0.0950733 5.3897e-21)
(0.0349231 -0.122678 0)
(0.0552862 -0.129369 -3.53618e-21)
(0.0756599 -0.128029 0)
(0.09598 -0.123962 -1.73931e-21)
(0.116545 -0.119227 3.43642e-21)
(0.137285 -0.114308 3.39859e-21)
(0.158057 -0.109003 0)
(0.178529 -0.102817 3.31594e-21)
(0.198196 -0.0951114 1.64053e-21)
(0.216314 -0.085199 0)
(0.231875 -0.0723651 0)
(0.243646 -0.0559672 0)
(0.250111 -0.0354883 0)
(0.249732 -0.0106805 1.5267e-21)
(0.240843 0.018409 0)
(0.22203 0.0512712 -2.94906e-21)
(0.191839 0.0870043 0)
(0.150493 0.1243 0)
(0.0971491 0.161326 2.8619e-21)
(0.0312679 0.196326 0)
(-0.0465662 0.227572 -2.83117e-21)
(-0.135531 0.253921 1.4241e-21)
(-0.233863 0.273816 -1.41786e-21)
(-0.339404 0.285037 1.41067e-21)
(-0.449276 0.285945 1.4019e-21)
(-0.560243 0.274611 0)
(-0.669085 0.253128 0)
(-0.774446 0.225305 -1.36522e-21)
(-0.881594 0.198291 1.32924e-21)
(-1.00081 0.19471 0)
(-1.12968 0.222574 0)
(-1.26567 0.256564 -1.29815e-21)
(-1.40848 0.278417 0)
(-1.55394 0.303364 0)
(-1.69686 0.334614 1.23847e-21)
(-1.83577 0.343495 0)
(-1.95061 0.32873 -1.12261e-21)
(-2.0446 0.301948 2.33334e-21)
(-2.12527 0.265629 0)
(-2.19181 0.227712 0)
(-2.24688 0.189452 4.18894e-21)
(-2.28887 0.151991 4.08358e-21)
(-2.31892 0.115771 3.98728e-21)
(-2.33662 0.0810681 -1.8939e-21)
(-2.34257 0.0480185 1.97014e-21)
(-2.33681 0.0167171 5.71794e-21)
(-2.31983 -0.0127511 -3.7414e-21)
(-2.29194 -0.0402595 -1.90371e-21)
(-2.25366 -0.0656896 0)
(-2.20552 -0.0889162 1.90278e-21)
(-2.14796 -0.109856 -1.84874e-21)
(-2.08185 -0.128422 0)
(-2.00793 -0.144564 0)
(-1.92705 -0.158276 0)
(-1.84007 -0.169581 2.02127e-21)
(-1.74801 -0.178593 0)
(-1.65162 -0.18543 -4.16219e-21)
(-1.55189 -0.190272 0)
(-1.44962 -0.193308 -4.3301e-21)
(-1.34562 -0.194746 0)
(-1.24059 -0.194796 4.49196e-21)
(-1.13513 -0.193674 0)
(-1.0298 -0.191592 -4.6389e-21)
(-0.925034 -0.188777 2.3461e-21)
(-0.821162 -0.185435 0)
(-0.718411 -0.181798 4.82088e-21)
(-0.616871 -0.178063 2.44061e-21)
(-0.516524 -0.174414 2.46279e-21)
(-0.417279 -0.170963 0)
(-0.319 -0.167779 2.4899e-21)
(-0.221553 -0.164863 2.51575e-21)
(-0.124805 -0.162191 0)
(-0.0286531 -0.159723 -2.5411e-21)
(0.067003 -0.15742 5.09181e-21)
(0.162264 -0.155266 0)
(0.257223 -0.153198 2.5665e-21)
(0.351929 -0.151118 0)
(0.446305 -0.148853 -7.71782e-21)
(0.540155 -0.14622 0)
(0.633135 -0.143051 7.72762e-21)
(0.7248 -0.139246 2.57728e-21)
(0.814657 -0.134776 -2.56736e-21)
(0.902232 -0.129702 -5.12553e-21)
(0.987129 -0.124143 5.11212e-21)
(1.06907 -0.118246 0)
(1.14786 -0.112162 0)
(1.22337 -0.106015 0)
(1.29555 -0.0999078 -1.50729e-20)
(1.3644 -0.093907 -4.99446e-21)
(1.42994 -0.0880516 4.95972e-21)
(1.49226 -0.0823627 0)
(1.5514 -0.0768477 4.87914e-21)
(1.60742 -0.0715099 -4.8423e-21)
(1.66041 -0.0663464 -4.79959e-21)
(1.71041 -0.0613568 0)
(1.75749 -0.0565537 0)
(1.80172 -0.0519385 0)
(1.8432 -0.0475214 -4.61696e-21)
(1.88201 -0.0433193 0)
(1.91826 -0.0393457 9.04099e-21)
(1.95206 -0.0356115 1.3418e-20)
(1.98355 -0.0321236 -8.84834e-21)
(2.01287 -0.0288837 0)
(2.04014 -0.0258891 -4.3272e-21)
(2.0655 -0.0231325 0)
(2.0891 -0.0206036 -8.46487e-21)
(2.11106 -0.0182899 4.1846e-21)
(2.13149 -0.0161781 4.13773e-21)
(2.15052 -0.0142546 0)
(2.16824 -0.0125064 1.21373e-20)
(2.18476 -0.0109211 -7.99987e-21)
(2.20016 -0.00948734 -3.95506e-21)
(2.21451 -0.00819444 0)
(2.22791 -0.00703239 -3.8658e-21)
(2.24041 -0.00599178 -1.14649e-20)
(2.25208 -0.0050633 0)
(2.263 -0.00423805 -7.46986e-21)
(2.27321 -0.00350694 -7.38453e-21)
(2.28278 -0.00286126 -7.30002e-21)
(2.29176 -0.00229655 0)
(2.30019 -0.00180794 0)
(2.30812 -0.00138803 0)
(2.31556 -0.0010288 3.48485e-21)
(2.32257 -0.000723274 3.44479e-21)
(2.32916 -0.000465524 0)
(2.33536 -0.000250016 6.73032e-21)
(2.3412 -7.17137e-05 6.65186e-21)
(2.34669 7.39478e-05 0)
(2.35184 0.000191337 6.49707e-21)
(2.35668 0.000284678 1.2841e-20)
(2.36122 0.000357869 -6.34474e-21)
(2.36546 0.000414437 -6.26938e-21)
(2.36944 0.000457568 0)
(2.37314 0.000490069 0)
(2.3766 0.000514363 0)
(2.37981 0.000532474 -5.97455e-21)
(2.38279 0.000546084 5.90216e-21)
(2.38555 0.00055656 1.16608e-20)
(2.3881 0.000564937 -5.75919e-21)
(2.39045 0.000571988 5.68842e-21)
(2.39261 0.000578309 5.61825e-21)
(2.39457 0.000584486 0)
(2.39637 0.000591015 0)
(2.39799 0.000598187 -5.41053e-21)
(2.39944 0.000605966 0)
(2.40074 0.00061418 0)
(2.40189 0.000622663 1.04143e-20)
(2.4029 0.000631516 0)
(2.40376 0.000641029 5.07384e-21)
(2.4045 0.000651795 -5.00788e-21)
(2.40511 0.000664438 0)
(2.40559 0.000679589 4.87719e-21)
(2.40596 0.000697841 0)
(2.40621 0.00071988 0)
(2.40635 0.000746482 -4.68446e-21)
(2.40638 0.000778624 9.24206e-21)
(2.4063 0.000817653 -4.55808e-21)
(2.4061 0.000864864 0)
(2.40578 0.000923191 0)
(2.40534 0.000993901 4.3716e-21)
(2.40475 0.00108379 0)
(2.40402 0.00119153 4.24949e-21)
(2.40308 0.00133506 0)
(2.40197 0.00150083 0)
(2.40055 0.00173991 0)
(2.3989 0.00199385 4.0113e-21)
(2.39677 0.00241416 0)
(2.39426 0.0027927 -3.89554e-21)
(2.39103 0.00358643 0)
(2.38701 0.00411086 0)
(2.38208 0.00574998 7.45452e-21)
(2.37507 0.00634437 -7.34673e-21)
(2.36768 0.0100945 0)
(2.35391 0.0103553 0)
(2.34362 0.0199935 0)
(2.31271 0.0189867 2.08677e-20)
(2.30226 0.0478251 0)
(2.22781 0.0476014 -1.3574e-20)
(0.00284237 -0.0404232 4.36365e-24)
(0.00389363 -0.113574 -7.18295e-21)
(0.00626297 -0.139427 0)
(0.00613874 -0.144132 7.06982e-21)
(0.00648525 -0.143415 0)
(0.00768584 -0.141459 0)
(0.0102332 -0.139256 -8.34909e-24)
(0.0139226 -0.13655 -3.40054e-21)
(0.0185184 -0.132686 -3.35056e-21)
(0.0235887 -0.126797 -3.31783e-21)
(0.0285909 -0.11788 0)
(0.0327934 -0.104844 0)
(0.0351793 -0.0865363 3.1617e-21)
(0.0345107 -0.0619335 6.22019e-21)
(0.02923 -0.0302785 -6.11686e-21)
(0.0177582 0.0086352 0)
(-0.00176713 0.0544709 -5.92125e-21)
(-0.0307574 0.106111 2.95054e-21)
(-0.0707696 0.162 0)
(-0.122078 0.22005 -5.69932e-21)
(-0.185214 0.277911 -2.86338e-21)
(-0.259714 0.33282 5.61646e-21)
(-0.344029 0.382123 2.8327e-21)
(-0.435807 0.422984 0)
(-0.533191 0.453449 -5.55131e-21)
(-0.634755 0.471081 -5.52989e-21)
(-0.739104 0.473673 0)
(-0.8457 0.461267 -5.46586e-21)
(-0.953446 0.432531 0)
(-1.06492 0.399143 -5.35529e-21)
(-1.18906 0.395938 -2.68115e-21)
(-1.32454 0.416627 0)
(-1.46417 0.442474 0)
(-1.60137 0.480566 0)
(-1.736 0.517735 0)
(-1.85938 0.529717 0)
(-1.96112 0.518414 0)
(-2.04722 0.490021 -4.56063e-21)
(-2.11783 0.451374 6.7618e-21)
(-2.17775 0.405979 0)
(-2.22869 0.354935 0)
(-2.27162 0.301862 0)
(-2.30683 0.248107 -1.89077e-22)
(-2.33361 0.195127 -4.08532e-21)
(-2.35165 0.14333 -7.80384e-21)
(-2.36018 0.0931528 7.64334e-21)
(-2.35889 0.04478 3.67735e-21)
(-2.34736 -0.00155433 -3.77979e-21)
(-2.32545 -0.0456444 1.39393e-22)
(-2.29316 -0.0872397 -3.59195e-21)
(-2.25071 -0.12609 0)
(-2.19854 -0.161944 -3.62134e-21)
(-2.1372 -0.194542 1.0371e-22)
(-2.06742 -0.223647 0)
(-1.99006 -0.249082 0)
(-1.90603 -0.270745 3.85165e-21)
(-1.81631 -0.288637 0)
(-1.72189 -0.302851 0)
(-1.62369 -0.313555 -4.05784e-21)
(-1.52261 -0.320996 -8.40186e-21)
(-1.41945 -0.325483 4.33045e-21)
(-1.31495 -0.327353 0)
(-1.20975 -0.326958 -4.49224e-21)
(-1.10441 -0.324669 0)
(-0.999441 -0.320838 -4.59212e-21)
(-0.895258 -0.315815 -4.70519e-21)
(-0.792184 -0.309961 9.49284e-21)
(-0.690455 -0.303646 4.78447e-21)
(-0.59015 -0.297219 0)
(-0.491216 -0.291001 -9.79598e-21)
(-0.393497 -0.285203 0)
(-0.296791 -0.279921 -1.49357e-20)
(-0.200886 -0.275142 -1.00073e-20)
(-0.105626 -0.270783 -1.00613e-20)
(-0.0109069 -0.26677 1.0108e-20)
(0.0833451 -0.263047 -1.52398e-20)
(0.177239 -0.259595 0)
(0.270941 -0.256349 0)
(0.364604 -0.253154 1.0233e-20)
(0.458252 -0.249692 1.53929e-20)
(0.551725 -0.245603 0)
(0.64464 -0.24055 -5.14895e-21)
(0.736457 -0.234342 0)
(0.826562 -0.226941 1.54007e-20)
(0.914355 -0.218465 2.05381e-23)
(0.999352 -0.20915 -1.82611e-23)
(1.08123 -0.199285 -1.01821e-20)
(1.1598 -0.189145 0)
(1.23497 -0.178959 1.00907e-20)
(1.30673 -0.168884 1.15744e-23)
(1.37513 -0.159023 0)
(1.44024 -0.149441 0)
(1.50215 -0.140151 0)
(1.56095 -0.131169 -9.7623e-21)
(1.61671 -0.122482 0)
(1.6695 -0.114089 0)
(1.71938 -0.105992 0)
(1.76641 -0.098195 0)
(1.81068 -0.0907105 0)
(1.85227 -0.0835588 -9.22756e-21)
(1.89128 -0.0767651 0)
(1.92781 -0.0703524 -9.04085e-21)
(1.962 -0.064339 -8.94463e-21)
(1.99398 -0.0587355 8.84822e-21)
(2.02389 -0.0535438 0)
(2.05188 -0.0487571 8.6557e-21)
(2.07809 -0.0443612 0)
(2.10266 -0.0403362 8.46478e-21)
(2.12573 -0.0366588 -8.37024e-21)
(2.14741 -0.0333039 -2.48257e-20)
(2.16781 -0.0302461 0)
(2.18705 -0.0274612 -2.42705e-20)
(2.20521 -0.0249267 -7.99705e-21)
(2.22239 -0.0226224 0)
(2.23864 -0.02053 -1.5637e-20)
(2.25405 -0.0186335 -1.54597e-20)
(2.26866 -0.0169178 2.29271e-20)
(2.28254 -0.0153697 0)
(2.29573 -0.0139765 7.46978e-21)
(2.30827 -0.0127265 7.38445e-21)
(2.32022 -0.0116088 2.18985e-20)
(2.33161 -0.0106106 0)
(2.34248 -0.00971943 0)
(2.35286 -0.00892426 0)
(2.36279 -0.00821439 6.96901e-21)
(2.3723 -0.00757988 0)
(2.38139 -0.0070115 0)
(2.39011 -0.0065008 -6.73021e-21)
(2.39845 -0.00603995 -6.65175e-21)
(2.40644 -0.00562179 0)
(2.41408 -0.00524008 0)
(2.42139 -0.00488945 -1.28407e-20)
(2.42837 -0.00456531 0)
(2.43503 -0.00426381 1.25386e-20)
(2.44138 -0.0039818 1.23892e-20)
(2.44743 -0.00371675 0)
(2.45318 -0.00346656 0)
(2.45864 -0.00322948 -1.19486e-20)
(2.46382 -0.0030041 -1.26347e-25)
(2.46874 -0.00278926 -1.09893e-25)
(2.4734 -0.00258406 0)
(2.4778 -0.00238771 -2.27531e-20)
(2.48196 -0.00219954 0)
(2.48588 -0.00201898 0)
(2.48957 -0.0018455 0)
(2.49304 -0.00167875 1.08208e-20)
(2.4963 -0.00151847 0)
(2.49935 -0.0013645 -2.10972e-20)
(2.5022 -0.00121667 -1.0414e-20)
(2.50485 -0.00107475 0)
(2.50731 -0.000938394 -1.01474e-20)
(2.50958 -0.00080702 0)
(2.51168 -0.000679874 0)
(2.5136 -0.000556134 -2.92622e-20)
(2.51535 -0.000434778 1.92493e-20)
(2.51694 -0.000314788 0)
(2.51837 -0.000194722 1.8737e-20)
(2.51964 -7.3426e-05 -9.24173e-21)
(2.52077 5.17686e-05 0)
(2.52174 0.000182322 0)
(2.52256 0.000323988 0)
(2.52323 0.00047722 -2.62286e-20)
(2.52375 0.000654787 0)
(2.5241 0.000851448 -8.49881e-21)
(2.52428 0.00109818 0)
(2.52425 0.00136952 0)
(2.52403 0.00174598 0)
(2.52349 0.00213797 0)
(2.52274 0.00276273 0)
(2.52145 0.00333856 0)
(2.51995 0.00446195 -1.53509e-20)
(2.51744 0.00529641 0)
(2.51483 0.00748869 -7.45421e-21)
(2.51011 0.00864773 2.20345e-20)
(2.50585 0.0133151 0)
(2.4969 0.014891 0)
(2.49027 0.0258428 -1.4074e-20)
(2.47325 0.0287287 -1.39055e-20)
(2.4643 0.0571429 1.37041e-20)
(2.43586 0.0670873 1.35738e-20)
(0.00265859 -0.0415657 1.08325e-20)
(-0.00762004 -0.10516 1.07615e-20)
(-0.0181123 -0.12513 7.11387e-21)
(-0.0313122 -0.128299 3.51989e-21)
(-0.0437302 -0.129297 0)
(-0.0553859 -0.130002 -6.9208e-21)
(-0.0658401 -0.130386 3.41545e-21)
(-0.0753142 -0.129845 0)
(-0.0839214 -0.127574 3.35258e-21)
(-0.0920023 -0.122481 0)
(-0.100041 -0.113205 -6.49906e-21)
(-0.108761 -0.098187 0)
(-0.119117 -0.0758297 -3.16362e-21)
(-0.132426 -0.044586 -6.22393e-21)
(-0.150317 -0.00325771 6.12049e-21)
(-0.174326 0.0487382 0)
(-0.206252 0.111078 5.92463e-21)
(-0.246998 0.182041 0)
(-0.298171 0.259054 0)
(-0.359244 0.337962 5.70264e-21)
(-0.430103 0.414514 0)
(-0.510004 0.484546 -7.86238e-23)
(-0.597121 0.544626 0)
(-0.689116 0.592268 0)
(-0.783974 0.625885 8.43633e-23)
(-0.880612 0.64497 5.53317e-21)
(-0.978511 0.649678 5.41096e-21)
(-1.07732 0.639176 5.46912e-21)
(-1.18039 0.622288 0)
(-1.29716 0.618525 1.05972e-20)
(-1.42503 0.629783 0)
(-1.55536 0.650717 5.05377e-21)
(-1.68765 0.679306 0)
(-1.80872 0.69652 0)
(-1.91182 0.693996 -4.71358e-21)
(-1.99938 0.672726 0)
(-2.07282 0.637404 4.47088e-21)
(-2.13589 0.591459 2.14991e-22)
(-2.18985 0.538489 -8.675e-21)
(-2.23667 0.480069 8.213e-21)
(-2.27608 0.417769 0)
(-2.30826 0.35324 0)
(-2.33259 0.287491 3.54794e-21)
(-2.34867 0.221518 0)
(-2.35597 0.155904 3.81645e-21)
(-2.35407 0.0912687 -3.74029e-21)
(-2.34263 0.0280875 -3.6785e-21)
(-2.32143 -0.0331247 0)
(-2.2904 -0.0919011 3.60385e-21)
(-2.24964 -0.147771 3.59256e-21)
(-2.19941 -0.200247 -6.87185e-21)
(-2.14017 -0.248764 3.62169e-21)
(-2.07248 -0.292822 3.66021e-21)
(-1.99707 -0.332006 0)
(-1.91487 -0.365999 0)
(-1.8269 -0.394672 -3.85171e-21)
(-1.73421 -0.41805 0)
(-1.63781 -0.436284 0)
(-1.53861 -0.449701 8.22055e-21)
(-1.43747 -0.458705 8.40195e-21)
(-1.33506 -0.46376 0)
(-1.23196 -0.465356 0)
(-1.12867 -0.463976 0)
(-1.02557 -0.460089 0)
(-0.923048 -0.454163 9.23128e-21)
(-0.821458 -0.446633 -9.31205e-21)
(-0.721134 -0.437989 -9.49286e-21)
(-0.622352 -0.428723 -1.91622e-20)
(-0.52524 -0.419363 0)
(-0.429733 -0.410386 4.68164e-23)
(-0.33558 -0.402138 0)
(-0.24244 -0.394751 9.94554e-21)