/*--------------------------------*- C++ -*----------------------------------*\
  =========                 |
  \\      /  F ield         | OpenFOAM: The Open Source CFD Toolbox
   \\    /   O peration     | Website:  https://openfoam.org
    \\  /    A nd           | Version:  7
     \\/     M anipulation  |
\*---------------------------------------------------------------------------*/
FoamFile
{
    version     2.0;
    format      ascii;
    class       surfaceScalarField;
    location    "0.028";
    object      phi_0;
}
// * * * * * * * * * * * * * * * * * * * * * * * * * * * * * * * * * * * * * //

dimensions      [0 3 -1 0 0 0 0];

internalField   nonuniform List<scalar> 
24170
(
1.37625e-06
2.13888e-07
1.23532e-06
1.40927e-07
1.09816e-06
1.37163e-07
9.76618e-07
1.2154e-07
8.70049e-07
1.06569e-07
7.75692e-07
9.43572e-08
6.85819e-07
8.9873e-08
5.97451e-07
8.8368e-08
5.15733e-07
8.17177e-08
4.45986e-07
6.97471e-08
3.89601e-07
5.63856e-08
3.44502e-07
4.50986e-08
3.07362e-07
3.71402e-08
2.75894e-07
3.14676e-08
2.47705e-07
2.81898e-08
2.22306e-07
2.53985e-08
1.93932e-07
2.83744e-08
2.73849e-08
1.66547e-07
1.68523e-06
2.01625e-07
1.65563e-06
1.70526e-07
1.60971e-06
1.83079e-07
1.56892e-06
1.62333e-07
1.52777e-06
1.47726e-07
1.48313e-06
1.38993e-07
1.43798e-06
1.35024e-07
1.39371e-06
1.32634e-07
1.34954e-06
1.25892e-07
1.30411e-06
1.1518e-07
1.25734e-06
1.03148e-07
1.21003e-06
9.24093e-08
1.16416e-06
8.30098e-08
1.12063e-06
7.50054e-08
1.07964e-06
6.9171e-08
1.0396e-06
6.54452e-08
9.97962e-07
7.00097e-08
7.7079e-08
9.48268e-07
1.79566e-06
3.04933e-07
1.76289e-06
2.03288e-07
1.74403e-06
2.01941e-07
1.72488e-06
1.81482e-07
1.70675e-06
1.65858e-07
1.68991e-06
1.55834e-07
1.67776e-06
1.47174e-07
1.67181e-06
1.3858e-07
1.66915e-06
1.28558e-07
1.66578e-06
1.18543e-07
1.65842e-06
1.10508e-07
1.64554e-06
1.05291e-07
1.62695e-06
1.016e-07
1.60373e-06
9.82293e-08
1.57698e-06
9.59187e-08
1.54827e-06
9.41513e-08
1.52011e-06
9.81775e-08
1.05724e-07
1.49146e-06
1.91942e-06
3.28202e-07
1.87879e-06
2.43919e-07
1.85709e-06
2.2365e-07
1.84309e-06
1.95479e-07
1.83443e-06
1.74519e-07
1.82851e-06
1.61747e-07
1.82461e-06
1.51076e-07
1.82363e-06
1.39558e-07
1.82593e-06
1.26264e-07
1.83055e-06
1.13923e-07
1.83509e-06
1.05967e-07
1.83705e-06
1.03326e-07
1.83444e-06
1.0421e-07
1.82664e-06
1.06031e-07
1.81452e-06
1.0804e-07
1.79942e-06
1.09252e-07
1.78481e-06
1.12783e-07
1.18146e-07
1.77239e-06
2.0502e-06
3.77406e-07
2.02605e-06
2.68073e-07
2.02454e-06
2.25162e-07
2.01485e-06
2.05162e-07
2.00127e-06
1.88101e-07
1.98989e-06
1.73132e-07
1.98139e-06
1.59571e-07
1.97514e-06
1.45805e-07
1.9711e-06
1.30305e-07
1.96958e-06
1.15447e-07
1.97023e-06
1.05314e-07
1.97184e-06
1.01724e-07
1.97264e-06
1.03406e-07
1.97106e-06
1.07613e-07
1.96668e-06
1.12421e-07
1.95951e-06
1.16415e-07
1.95182e-06
1.20478e-07
1.24445e-07
1.94552e-06
2.19443e-06
4.44502e-07
2.16151e-06
3.00988e-07
2.16482e-06
2.21859e-07
2.16453e-06
2.05449e-07
2.16205e-06
1.90582e-07
2.16268e-06
1.72505e-07
2.16195e-06
1.60302e-07
2.15385e-06
1.53904e-07
2.1386e-06
1.45551e-07
2.12206e-06
1.31984e-07
2.11016e-06
1.17217e-07
2.10501e-06
1.06873e-07
2.10502e-06
1.03396e-07
2.10688e-06
1.05756e-07
2.10798e-06
1.11317e-07
2.10693e-06
1.17471e-07
2.10458e-06
1.22822e-07
1.26637e-07
2.10239e-06
2.36277e-06
5.04708e-07
2.34022e-06
3.23539e-07
2.32507e-06
2.37004e-07
2.31884e-06
2.11678e-07
2.3141e-06
1.95322e-07
2.30467e-06
1.81939e-07
2.29234e-06
1.72631e-07
2.28157e-06
1.64673e-07
2.27466e-06
1.52464e-07
2.2716e-06
1.35039e-07
2.2712e-06
1.17626e-07
2.27174e-06
1.06328e-07
2.27186e-06
1.03278e-07
2.27062e-06
1.06992e-07
2.26795e-06
1.13985e-07
2.2643e-06
1.21127e-07
2.26064e-06
1.26476e-07
1.28683e-07
2.2586e-06
2.54246e-06
4.80006e-07
2.51519e-06
3.50811e-07
2.4946e-06
2.57601e-07
2.49246e-06
2.13817e-07
2.49125e-06
1.96531e-07
2.48341e-06
1.89774e-07
2.4728e-06
1.83247e-07
2.46541e-06
1.72058e-07
2.46299e-06
1.5489e-07
2.46364e-06
1.3438e-07
2.46519e-06
1.16085e-07
2.4665e-06
1.05018e-07
2.46719e-06
1.02588e-07
2.467e-06
1.0718e-07
2.46549e-06
1.15497e-07
2.46253e-06
1.24078e-07
2.45823e-06
1.30777e-07
1.33755e-07
2.45316e-06
2.73469e-06
5.3995e-07
2.71552e-06
3.69986e-07
2.70049e-06
2.72629e-07
2.68086e-06
2.33444e-07
2.66313e-06
2.1426e-07
2.65368e-06
1.99228e-07
2.65127e-06
1.85655e-07
2.65095e-06
1.7238e-07
2.64909e-06
1.56754e-07
2.64525e-06
1.38215e-07
2.64119e-06
1.20141e-07
2.63886e-06
1.0735e-07
2.63884e-06
1.02606e-07
2.64071e-06
1.05312e-07
2.64356e-06
1.12649e-07
2.64685e-06
1.20787e-07
2.65056e-06
1.27065e-07
1.29423e-07
2.65489e-06
2.89867e-06
5.06219e-07
2.90849e-06
3.6016e-07
2.89495e-06
2.86174e-07
2.87878e-06
2.49611e-07
2.86494e-06
2.281e-07
2.85687e-06
2.073e-07
2.85638e-06
1.86142e-07
2.86118e-06
1.67577e-07
2.86641e-06
1.51529e-07
2.86809e-06
1.3653e-07
2.86548e-06
1.22755e-07
2.86063e-06
1.12202e-07
2.85649e-06
1.06744e-07
2.85516e-06
1.06642e-07
2.85741e-06
1.10396e-07
2.86263e-06
1.15571e-07
2.86962e-06
1.20077e-07
1.22423e-07
2.87662e-06
3.10758e-06
4.64209e-07
3.11855e-06
3.49186e-07
3.12094e-06
2.83785e-07
3.12429e-06
2.46269e-07
3.12263e-06
2.29759e-07
3.11378e-06
2.16143e-07
3.10209e-06
1.97838e-07
3.09276e-06
1.76907e-07
3.08764e-06
1.56651e-07
3.08535e-06
1.38812e-07
3.08369e-06
1.24424e-07
3.08133e-06
1.14556e-07
3.07842e-06
1.09653e-07
3.07571e-06
1.09353e-07
3.07402e-06
1.12089e-07
3.07356e-06
1.16027e-07
3.0743e-06
1.19342e-07
1.20976e-07
3.07574e-06
2.81828e-06
4.56996e-07
2.82121e-06
3.46258e-07
2.81618e-06
2.88813e-07
2.80588e-06
2.56574e-07
2.79597e-06
2.39664e-07
2.79123e-06
2.20886e-07
2.79196e-06
1.9711e-07
2.79456e-06
1.74302e-07
2.79513e-06
1.56085e-07
2.79218e-06
1.41759e-07
2.78698e-06
1.29623e-07
2.78215e-06
1.19386e-07
2.77969e-06
1.12115e-07
2.78035e-06
1.08691e-07
2.78375e-06
1.0869e-07
2.78899e-06
1.10784e-07
2.79522e-06
1.13111e-07
1.14396e-07
2.80181e-06
3.4521e-06
4.50201e-07
3.45935e-06
3.39013e-07
3.47201e-06
2.76148e-07
3.46315e-06
2.65439e-07
3.44443e-06
2.58381e-07
3.43252e-06
2.32802e-07
3.43251e-06
1.97116e-07
3.43908e-06
1.67733e-07
3.44438e-06
1.50783e-07
3.4442e-06
1.4194e-07
3.43887e-06
1.34955e-07
3.43099e-06
1.27266e-07
3.42316e-06
1.19938e-07
3.4173e-06
1.14553e-07
3.41441e-06
1.1158e-07
3.4148e-06
1.10397e-07
3.41855e-06
1.09358e-07
1.08266e-07
3.42468e-06
4.18441e-06
4.72977e-07
4.20173e-06
3.21697e-07
4.23643e-06
2.41454e-07
4.24797e-06
2.53892e-07
4.23421e-06
2.72149e-07
4.21386e-06
2.53142e-07
4.2028e-06
2.08179e-07
4.20496e-06
1.65577e-07
4.21528e-06
1.4046e-07
4.22597e-06
1.3125e-07
4.23111e-06
1.29818e-07
4.22873e-06
1.29641e-07
4.22055e-06
1.28119e-07
4.21062e-06
1.24484e-07
4.20318e-06
1.19021e-07
4.20111e-06
1.12463e-07
4.20528e-06
1.05192e-07
9.89161e-08
4.21463e-06
5.23381e-06
4.9501e-07
5.18747e-06
3.68039e-07
5.14901e-06
2.79912e-07
5.14056e-06
2.62345e-07
5.15702e-06
2.55683e-07
5.17592e-06
2.34251e-07
5.17871e-06
2.05381e-07
5.16506e-06
1.79234e-07
5.14596e-06
1.59553e-07
5.13208e-06
1.45133e-07
5.12789e-06
1.3401e-07
5.13236e-06
1.25173e-07
5.14232e-06
1.18157e-07
5.15469e-06
1.12118e-07
5.16756e-06
1.06144e-07
5.17992e-06
1.00109e-07
5.19113e-06
9.39735e-08
8.9237e-08
5.20081e-06
6.23514e-06
4.43101e-07
6.20184e-06
4.01341e-07
6.19125e-06
2.90499e-07
6.22001e-06
2.33586e-07
6.25768e-06
2.18019e-07
6.27381e-06
2.18117e-07
6.26743e-06
2.11763e-07
6.25589e-06
1.90774e-07
6.25413e-06
1.6131e-07
6.26565e-06
1.33618e-07
6.28515e-06
1.14502e-07
6.30528e-06
1.05043e-07
6.32125e-06
1.02189e-07
6.33159e-06
1.01782e-07
6.33716e-06
1.0057e-07
6.33956e-06
9.77078e-08
6.3402e-06
9.33322e-08
8.9198e-08
6.34024e-06
7.80883e-06
5.25292e-07
7.75069e-06
4.59482e-07
7.70097e-06
3.40216e-07
7.67914e-06
2.55424e-07
7.66188e-06
2.35279e-07
7.64264e-06
2.37357e-07
7.62973e-06
2.24673e-07
7.63029e-06
1.90206e-07
7.64504e-06
1.46567e-07
7.66881e-06
1.09847e-07
7.69507e-06
8.82402e-08
7.719e-06
8.11087e-08
7.73816e-06
8.30384e-08
7.75208e-06
8.7858e-08
7.76169e-06
9.09625e-08
7.76842e-06
9.09753e-08
7.77389e-06
8.78584e-08
8.36076e-08
7.77948e-06
9.36788e-06
5.17857e-07
9.39383e-06
4.3353e-07
9.38776e-06
3.46289e-07
9.35915e-06
2.84035e-07
9.34428e-06
2.50144e-07
9.35388e-06
2.2776e-07
9.37493e-06
2.03621e-07
9.39075e-06
1.74383e-07
9.3947e-06
1.42616e-07
9.39135e-06
1.13204e-07
9.38881e-06
9.0773e-08
9.39224e-06
7.76859e-08
9.4022e-06
7.30706e-08
9.41635e-06
7.37087e-08
9.43213e-06
7.51876e-08
9.44801e-06
7.50912e-08
9.46399e-06
7.18845e-08
6.68338e-08
9.48076e-06
1.14258e-05
4.47849e-07
1.14812e-05
3.78061e-07
1.14579e-05
3.69596e-07
1.14025e-05
3.39511e-07
1.1364e-05
2.88625e-07
1.13646e-05
2.27181e-07
1.13986e-05
1.69621e-07
1.14483e-05
1.24687e-07
1.14971e-05
9.38164e-08
1.1536e-05
7.42454e-08
1.1563e-05
6.37687e-08
1.15804e-05
6.03271e-08
1.15925e-05
6.09845e-08
1.16033e-05
6.28657e-08
1.16153e-05
6.31848e-08
1.16294e-05
6.1045e-08
1.16451e-05
5.60971e-08
4.94954e-08
1.16625e-05
8.28067e-06
4.07622e-07
8.29749e-06
3.61246e-07
8.34124e-06
3.25842e-07
8.38242e-06
2.98329e-07
8.41624e-06
2.5481e-07
8.44272e-06
2.00703e-07
8.46247e-06
1.49866e-07
8.47638e-06
1.10776e-07
8.48494e-06
8.5263e-08
8.48845e-06
7.07315e-08
8.48924e-06
6.2984e-08
8.49073e-06
5.88379e-08
8.49578e-06
5.59299e-08
8.50556e-06
5.30864e-08
8.51927e-06
4.94713e-08
8.53532e-06
4.50022e-08
8.55188e-06
3.95298e-08
3.33192e-08
8.56806e-06
7.088e-06
3.14504e-07
7.19493e-06
2.54314e-07
7.28789e-06
2.32882e-07
7.3654e-06
2.20814e-07
7.41849e-06
2.01724e-07
7.44978e-06
1.69408e-07
7.46216e-06
1.37492e-07
7.45915e-06
1.13788e-07
7.44867e-06
9.57364e-08
7.4408e-06
7.86065e-08
7.4425e-06
6.12842e-08
7.45512e-06
4.62131e-08
7.47539e-06
3.5664e-08
7.4986e-06
2.9873e-08
7.52104e-06
2.70289e-08
7.54096e-06
2.50857e-08
7.55808e-06
2.24125e-08
1.81238e-08
7.57327e-06
6.18487e-06
3.22905e-07
6.25609e-06
1.83097e-07
6.32883e-06
1.60141e-07
6.38288e-06
1.6676e-07
6.41513e-06
1.69474e-07
6.43253e-06
1.52015e-07
6.44984e-06
1.20177e-07
6.47615e-06
8.7479e-08
6.51196e-06
5.99236e-08
6.55309e-06
3.74798e-08
6.59425e-06
2.01238e-08
6.63181e-06
8.65223e-09
6.66407e-06
3.40267e-09
6.69037e-06
3.57388e-09
6.71124e-06
6.16293e-09
6.72789e-06
8.43709e-09
6.74156e-06
8.73875e-09
6.18417e-09
6.7535e-06
5.48391e-06
3.30321e-07
5.46252e-06
2.04482e-07
5.50034e-06
1.22326e-07
5.55433e-06
1.12765e-07
5.60376e-06
1.20043e-07
5.64392e-06
1.11857e-07
5.67663e-06
8.74639e-08
5.70589e-06
5.82186e-08
5.73357e-06
3.22516e-08
5.75926e-06
1.17899e-08
5.78318e-06
-3.80153e-09
5.80586e-06
-1.40221e-08
5.82812e-06
-1.88601e-08
5.85111e-06
-1.9416e-08
5.87453e-06
-1.72606e-08
5.89714e-06
-1.4172e-08
5.91732e-06
-1.14442e-08
-9.85814e-09
5.93337e-06
4.79286e-06
3.34864e-07
4.86228e-06
1.35056e-07
4.91632e-06
6.82881e-08
4.95862e-06
7.04641e-08
4.99679e-06
8.1872e-08
5.02722e-06
8.14333e-08
5.04507e-06
6.96165e-08
5.05239e-06
5.08984e-08
5.05507e-06
2.95686e-08
5.05777e-06
9.09063e-09
5.06118e-06
-7.21505e-09
5.06646e-06
-1.93003e-08
5.07436e-06
-2.67622e-08
5.08539e-06
-3.04399e-08
5.09966e-06
-3.15333e-08
5.11651e-06
-3.10201e-08
5.13483e-06
-2.9771e-08
-2.7995e-08
5.15297e-06
4.19001e-06
2.50737e-07
4.25545e-06
6.96068e-08
4.29609e-06
2.76488e-08
4.32307e-06
4.34913e-08
4.34864e-06
5.62972e-08
4.37728e-06
5.27914e-08
4.40723e-06
3.96664e-08
4.43605e-06
2.20802e-08
4.46153e-06
4.08832e-09
4.48272e-06
-1.20943e-08
4.4979e-06
-2.23935e-08
4.50615e-06
-2.75582e-08
4.50823e-06
-2.88414e-08
4.50591e-06
-2.81134e-08
4.50145e-06
-2.7073e-08
4.49697e-06
-2.65392e-08
4.49388e-06
-2.66857e-08
-2.71798e-08
4.49306e-06
3.74831e-06
2.93503e-07
3.76166e-06
5.6255e-08
3.7632e-06
2.61081e-08
3.77271e-06
3.39803e-08
3.80426e-06
2.47512e-08
3.84735e-06
9.69286e-09
3.88863e-06
-1.60737e-09
3.92024e-06
-9.53339e-09
3.94294e-06
-1.86144e-08
3.95789e-06
-2.70401e-08
3.96766e-06
-3.21637e-08
3.97358e-06
-3.34756e-08
3.97693e-06
-3.21917e-08
3.97895e-06
-3.01313e-08
3.98065e-06
-2.87775e-08
3.98274e-06
-2.86334e-08
3.98554e-06
-2.94825e-08
-3.05363e-08
3.9889e-06
3.26863e-06
1.98805e-07
3.29577e-06
2.91159e-08
3.30755e-06
1.4329e-08
3.33676e-06
4.76836e-09
3.37276e-06
-1.12429e-08
3.40154e-06
-1.90899e-08
3.41825e-06
-1.83182e-08
3.42691e-06
-1.81911e-08
3.43259e-06
-2.42913e-08
3.43979e-06
-3.42465e-08
3.45028e-06
-4.26505e-08
3.46348e-06
-4.6678e-08
3.47768e-06
-4.63853e-08
3.49086e-06
-4.33104e-08
3.50149e-06
-3.94111e-08
3.50901e-06
-3.61506e-08
3.51366e-06
-3.41328e-08
-3.35756e-08
3.5167e-06
2.83673e-06
8.6224e-08
2.89274e-06
-2.6897e-08
2.91928e-06
-1.22032e-08
2.9428e-06
-1.87498e-08
2.95852e-06
-2.69685e-08
2.97182e-06
-3.23881e-08
2.99039e-06
-3.68845e-08
3.01373e-06
-4.15403e-08
3.03545e-06
-4.60096e-08
3.05066e-06
-4.94541e-08
3.0594e-06
-5.13942e-08
3.06494e-06
-5.22149e-08
3.07075e-06
-5.21985e-08
3.07867e-06
-5.12292e-08
3.08859e-06
-4.93265e-08
3.09937e-06
-4.69336e-08
3.10963e-06
-4.43961e-08
-4.2504e-08
3.11856e-06
2.50756e-06
-1.05055e-08
2.54862e-06
-6.79519e-08
2.58197e-06
-4.55589e-08
2.60679e-06
-4.35688e-08
2.6202e-06
-4.03748e-08
2.62847e-06
-4.06618e-08
2.63662e-06
-4.50302e-08
2.64395e-06
-4.8873e-08
2.64753e-06
-4.95854e-08
2.64589e-06
-4.78164e-08
2.6398e-06
-4.53041e-08
2.63109e-06
-4.35057e-08
2.62164e-06
-4.27511e-08
2.6129e-06
-4.249e-08
2.60558e-06
-4.19972e-08
2.59958e-06
-4.09369e-08
2.59444e-06
-3.92619e-08
-3.73437e-08
2.58928e-06
2.17451e-06
2.10656e-06
2.061e-06
2.01743e-06
1.97706e-06
1.9364e-06
1.89137e-06
1.84249e-06
1.79291e-06
1.74509e-06
1.69979e-06
1.65628e-06
1.61353e-06
1.57104e-06
1.52904e-06
1.48811e-06
1.44884e-06
1.4115e-06
4.95573e-08
-4.95573e-08
1.0905e-07
-5.94926e-08
1.67113e-07
-5.80627e-08
2.22154e-07
-5.50413e-08
2.73917e-07
-5.17634e-08
3.22358e-07
-4.84407e-08
3.67249e-07
-4.48914e-08
4.08171e-07
-4.09213e-08
4.44464e-07
-3.6293e-08
4.75247e-07
-3.07828e-08
4.99527e-07
-2.42805e-08
5.16208e-07
-1.66806e-08
5.24187e-07
-7.97894e-09
5.22234e-07
1.95291e-09
5.08249e-07
1.39848e-08
4.80611e-07
2.76379e-08
4.37111e-07
4.35003e-08
3.75294e-07
6.18171e-08
2.92857e-07
8.24366e-08
1.88091e-07
1.04766e-07
6.02068e-08
1.27884e-07
-9.05425e-08
1.50749e-07
-2.62143e-07
1.71601e-07
-4.52022e-07
1.89878e-07
-6.57232e-07
2.0521e-07
-8.74986e-07
2.17754e-07
-1.10274e-06
2.27757e-07
-1.33815e-06
2.35402e-07
-1.57894e-06
2.40791e-07
-1.82292e-06
2.43987e-07
-2.06792e-06
2.45e-07
-2.31171e-06
2.43791e-07
-2.55201e-06
2.40292e-07
-2.78643e-06
2.34424e-07
-3.01255e-06
2.26122e-07
-3.22789e-06
2.15332e-07
-3.42992e-06
2.02033e-07
-3.61617e-06
1.86249e-07
-3.78427e-06
1.681e-07
-3.93203e-06
1.47759e-07
-4.05745e-06
1.25425e-07
-4.15882e-06
1.01368e-07
-4.2348e-06
7.59778e-08
-4.28457e-06
4.97758e-08
-4.30797e-06
2.34034e-08
-4.30559e-06
-2.3867e-09
-4.27883e-06
-2.67617e-08
-4.22905e-06
-4.97751e-08
-4.15801e-06
-7.10409e-08
-4.06756e-06
-9.04463e-08
-3.95963e-06
-1.07932e-07
-3.8362e-06
-1.23431e-07
-3.69918e-06
-1.37021e-07
-3.55038e-06
-1.48799e-07
-3.39144e-06
-1.58936e-07
-3.22382e-06
-1.67624e-07
-3.04878e-06
-1.75039e-07
-2.86745e-06
-1.81328e-07
-2.68088e-06
-1.86572e-07
-2.49009e-06
-1.90788e-07
-2.29615e-06
-1.93944e-07
-2.10018e-06
-1.9597e-07
-1.90339e-06
-1.96791e-07
-1.70703e-06
-1.96356e-07
-1.51237e-06
-1.94658e-07
-1.32064e-06
-1.91732e-07
-1.13298e-06
-1.87657e-07
-9.50437e-07
-1.82548e-07
-7.73879e-07
-1.76558e-07
-6.03997e-07
-1.69881e-07
-4.41341e-07
-1.62656e-07
-2.86254e-07
-1.55087e-07
-1.39035e-07
-1.4722e-07
1.15657e-10
-1.3915e-07
1.31926e-07
-1.3181e-07
2.55987e-07
-1.24061e-07
3.72536e-07
-1.1655e-07
4.81835e-07
-1.09298e-07
5.84167e-07
-1.02333e-07
6.79839e-07
-9.56718e-08
7.69163e-07
-8.93233e-08
8.52451e-07
-8.3288e-08
9.30011e-07
-7.75602e-08
1.00214e-06
-7.21302e-08
1.06913e-06
-6.69852e-08
1.13124e-06
-6.2111e-08
1.18873e-06
-5.74926e-08
1.24185e-06
-5.31152e-08
1.29081e-06
-4.89645e-08
1.33584e-06
-4.50277e-08
1.37713e-06
-4.12932e-08
1.41488e-06
-3.77513e-08
1.44928e-06
-3.43942e-08
1.48049e-06
-3.12157e-08
1.5087e-06
-2.8211e-08
1.53408e-06
-2.53764e-08
1.55679e-06
-2.27092e-08
1.57699e-06
-2.02067e-08
1.59486e-06
-1.78669e-08
1.61055e-06
-1.5687e-08
1.62421e-06
-1.36641e-08
1.63601e-06
-1.17946e-08
1.64608e-06
-1.00741e-08
1.65458e-06
-8.49795e-09
1.66164e-06
-7.05923e-09
1.66739e-06
-5.7525e-09
1.67196e-06
-4.56916e-09
1.67546e-06
-3.50356e-09
1.67802e-06
-2.55174e-09
1.67971e-06
-1.69647e-09
1.68065e-06
-9.36955e-10
1.68091e-06
-2.61149e-10
1.68054e-06
3.69368e-10
1.6796e-06
9.43211e-10
1.67816e-06
1.4421e-09
1.67628e-06
1.87178e-09
1.67404e-06
2.24333e-09
1.67148e-06
2.56318e-09
1.66864e-06
2.83668e-09
1.66557e-06
3.07382e-09
1.66229e-06
3.27984e-09
1.65883e-06
3.45302e-09
1.65524e-06
3.59902e-09
1.65151e-06
3.72793e-09
1.64766e-06
3.84331e-09
1.64372e-06
3.94471e-09
1.63969e-06
4.0338e-09
1.63557e-06
4.11288e-09
1.63139e-06
4.18192e-09
1.62715e-06
4.24059e-09
1.62286e-06
4.28765e-09
1.61854e-06
4.32098e-09
1.6142e-06
4.33928e-09
1.60986e-06
4.34403e-09
1.60552e-06
4.33884e-09
1.60119e-06
4.32854e-09
1.59687e-06
4.31778e-09
1.59256e-06
4.31002e-09
1.58826e-06
4.30687e-09
1.58395e-06
4.30864e-09
1.57963e-06
4.31487e-09
1.57531e-06
4.32475e-09
1.57097e-06
4.33756e-09
1.56662e-06
4.35267e-09
1.56225e-06
4.36974e-09
1.55786e-06
4.38861e-09
1.55345e-06
4.4093e-09
1.54902e-06
4.43193e-09
1.54456e-06
4.45669e-09
1.54008e-06
4.48376e-09
1.53556e-06
4.51334e-09
1.53102e-06
4.54583e-09
1.52644e-06
4.5816e-09
1.52182e-06
4.62128e-09
1.51715e-06
4.66552e-09
1.51243e-06
4.71539e-09
1.50766e-06
4.77194e-09
1.50283e-06
4.83677e-09
1.49791e-06
4.91182e-09
1.49291e-06
4.9993e-09
1.48781e-06
5.10338e-09
1.48259e-06
5.22601e-09
1.47721e-06
5.37735e-09
1.47165e-06
5.55519e-09
1.46587e-06
5.78704e-09
1.45981e-06
6.05182e-09
1.45339e-06
6.42829e-09
1.44656e-06
6.82461e-09
1.43908e-06
7.4801e-09
1.43102e-06
8.06349e-09
1.42171e-06
9.30739e-09
1.4116e-06
1.01126e-08
1.39888e-06
1.27191e-08
1.38525e-06
1.3628e-08
1.36555e-06
1.96988e-08
1.34555e-06
2.00021e-08
1.30982e-06
3.57331e-08
1.27648e-06
3.33328e-08
1.19442e-06
8.20613e-08
7.63643e-08
1.11806e-06
1.33547e-08
-6.29119e-08
1.89868e-08
-6.51247e-08
2.16008e-08
-6.06767e-08
2.12618e-08
-5.47023e-08
1.76612e-08
-4.81629e-08
1.01809e-08
-4.09605e-08
-1.76969e-09
-3.29407e-08
-1.89649e-08
-2.3726e-08
-4.23173e-08
-1.29407e-08
-7.31975e-08
9.74459e-11
-1.11686e-07
1.42077e-08
-1.59462e-07
3.10955e-08
-2.18065e-07
5.06247e-08
-2.88978e-07
7.28656e-08
-3.7293e-07
9.79367e-08
-4.71094e-07
1.25802e-07
-5.83772e-07
1.56178e-07
-7.10429e-07
1.88474e-07
-8.49811e-07
2.21819e-07
-1.00025e-06
2.55203e-07
-1.16024e-06
2.87877e-07
-1.32798e-06
3.18485e-07
-1.50176e-06
3.45383e-07
-1.68029e-06
3.68407e-07
-1.86253e-06
3.87453e-07
-2.04742e-06
4.0264e-07
-2.23384e-06
4.14177e-07
-2.42071e-06
4.22276e-07
-2.60701e-06
4.27096e-07
-2.79176e-06
4.28733e-07
-2.97396e-06
4.27195e-07
-3.15258e-06
4.22411e-07
-3.32653e-06
4.14242e-07
-3.49459e-06
4.02487e-07
-3.65534e-06
3.86873e-07
-3.8074e-06
3.67387e-07
-3.94937e-06
3.44012e-07
-4.0796e-06
3.16478e-07
-4.19625e-06
2.84745e-07
-4.29743e-06
2.48942e-07
-4.38137e-06
2.09362e-07
-4.4465e-06
1.66498e-07
-4.4916e-06
1.21075e-07
-4.51583e-06
7.40057e-08
-4.51875e-06
2.63307e-08
-4.49953e-06
-2.16076e-08
-4.45795e-06
-6.83479e-08
-4.39467e-06
-1.13051e-07
-4.31079e-06
-1.54921e-07
-4.20797e-06
-1.93267e-07
-4.08821e-06
-2.27697e-07
-3.95352e-06
-2.58118e-07
-3.8059e-06
-2.84645e-07
-3.64714e-06
-3.07552e-07
-3.47887e-06
-3.27209e-07
-3.30246e-06
-3.44034e-07
-3.11906e-06
-3.58435e-07
-2.92967e-06
-3.70725e-07
-2.73516e-06
-3.81076e-07
-2.53645e-06
-3.89505e-07
-2.33448e-06
-3.95912e-07
-2.13033e-06
-4.00122e-07
-1.92517e-06
-4.01946e-07
-1.72028e-06
-4.01252e-07
-1.51692e-06
-3.98011e-07
-1.31637e-06
-3.92287e-07
-1.11978e-06
-3.8424e-07
-9.28208e-07
-3.74124e-07
-7.42497e-07
-3.62269e-07
-5.63336e-07
-3.49042e-07
-3.91247e-07
-3.34745e-07
-2.2656e-07
-3.19774e-07
-6.93814e-08
-3.04398e-07
8.05523e-08
-2.89084e-07
2.22617e-07
-2.73875e-07
3.57436e-07
-2.5888e-07
4.85165e-07
-2.44278e-07
6.06053e-07
-2.30187e-07
7.20394e-07
-2.16674e-07
8.28499e-07
-2.03777e-07
9.30685e-07
-1.91509e-07
1.02726e-06
-1.79868e-07
1.11854e-06
-1.6884e-07
1.20482e-06
-1.58402e-07
1.28636e-06
-1.48526e-07
1.36343e-06
-1.3918e-07
1.43627e-06
-1.30332e-07
1.5051e-06
-1.21949e-07
1.57014e-06
-1.14e-07
1.63156e-06
-1.06454e-07
1.68955e-06
-9.92855e-08
1.74427e-06
-9.24703e-08
1.79587e-06
-8.59889e-08
1.84448e-06
-7.98246e-08
1.89023e-06
-7.39641e-08
1.93325e-06
-6.83964e-08
1.97365e-06
-6.31129e-08
2.01155e-06
-5.81062e-08
2.04706e-06
-5.33696e-08
2.08027e-06
-4.8897e-08
2.11128e-06
-4.46823e-08
2.14021e-06
-4.07187e-08
2.16713e-06
-3.6999e-08
2.19215e-06
-3.35156e-08
2.21535e-06
-3.02598e-08
2.23682e-06
-2.72236e-08
2.25665e-06
-2.43974e-08
2.27492e-06
-2.17714e-08
2.2917e-06
-1.93357e-08
2.30708e-06
-1.70782e-08
2.32114e-06
-1.49892e-08
2.33393e-06
-1.30593e-08
2.34557e-06
-1.12712e-08
2.35613e-06
-9.61394e-09
2.36566e-06
-8.08828e-09
2.37422e-06
-6.68776e-09
2.38187e-06
-5.40131e-09
2.38865e-06
-4.22173e-09
2.39463e-06
-3.13917e-09
2.39984e-06
-2.14306e-09
2.40435e-06
-1.22948e-09
2.40819e-06
-3.8585e-10
2.4114e-06
3.89717e-10
2.41402e-06
1.10928e-09
2.41609e-06
1.77207e-09
2.41766e-06
2.38104e-09
2.41875e-06
2.94052e-09
2.41941e-06
3.45468e-09
2.41966e-06
3.92415e-09
2.41955e-06
4.35101e-09
2.41911e-06
4.73611e-09
2.41835e-06
5.07988e-09
2.4173e-06
5.38336e-09
2.416e-06
5.65033e-09
2.41445e-06
5.88585e-09
2.41268e-06
6.09529e-09
2.41072e-06
6.284e-09
2.40857e-06
6.45631e-09
2.40626e-06
6.61624e-09
2.4038e-06
6.76753e-09
2.4012e-06
6.91378e-09
2.39847e-06
7.05779e-09
2.39561e-06
7.20146e-09
2.39261e-06
7.34535e-09
2.38949e-06
7.48918e-09
2.38625e-06
7.63211e-09
2.38289e-06
7.7733e-09
2.37941e-06
7.91216e-09
2.37581e-06
8.04854e-09
2.37212e-06
8.18262e-09
2.36831e-06
8.31496e-09
2.36441e-06
8.44644e-09
2.36042e-06
8.57807e-09
2.35633e-06
8.71136e-09
2.35214e-06
8.84787e-09
2.34787e-06
8.98957e-09
2.3435e-06
9.139e-09
2.33904e-06
9.29866e-09
2.33448e-06
9.47314e-09
2.32981e-06
9.66509e-09
2.32503e-06
9.88394e-09
2.32013e-06
1.01303e-08
2.31508e-06
1.04259e-08
2.30988e-06
1.0761e-08
2.30447e-06
1.1191e-08
2.29885e-06
1.16691e-08
2.29294e-06
1.23438e-08
2.28672e-06
1.30405e-08
2.28002e-06
1.41844e-08
2.27288e-06
1.51972e-08
2.26488e-06
1.73108e-08
2.25626e-06
1.87308e-08
2.24598e-06
2.30017e-08
2.2348e-06
2.48035e-08
2.22023e-06
3.42731e-08
2.2041e-06
3.61348e-08
2.18051e-06
5.93178e-08
2.15254e-06
6.13025e-08
2.11061e-06
1.23998e-07
1.33449e-07
2.05352e-06
-3.00902e-08
-3.28217e-08
-7.39114e-08
-2.13036e-08
-1.1875e-07
-1.58379e-08
-1.65202e-07
-8.25048e-09
-2.13955e-07
5.8985e-10
-2.65335e-07
1.04203e-08
-3.20292e-07
2.20156e-08
-3.79548e-07
3.55297e-08
-4.43683e-07
5.11946e-08
-5.12917e-07
6.93314e-08
-5.8884e-07
9.0131e-08
-6.71526e-07
1.13782e-07
-7.61198e-07
1.40296e-07
-8.57901e-07
1.69569e-07
-9.61327e-07
2.01362e-07
-1.07083e-06
2.35301e-07
-1.1855e-06
2.70853e-07
-1.30432e-06
3.0729e-07
-1.42623e-06
3.43733e-07
-1.55028e-06
3.79257e-07
-1.67543e-06
4.13022e-07
-1.80119e-06
4.44247e-07
-1.92809e-06
4.72285e-07
-2.05659e-06
4.96899e-07
-2.18721e-06
5.18076e-07
-2.3205e-06
5.35929e-07
-2.45691e-06
5.50592e-07
-2.59679e-06
5.62152e-07
-2.7403e-06
5.70611e-07
-2.88744e-06
5.75874e-07
-3.03797e-06
5.77724e-07
-3.19138e-06
5.75817e-07
-3.34682e-06
5.69682e-07
-3.50307e-06
5.58735e-07
-3.65852e-06
5.42324e-07
-3.81095e-06
5.19818e-07
-3.95759e-06
4.90655e-07
-4.09549e-06
4.54376e-07
-4.22153e-06
4.10785e-07
-4.33263e-06
3.60041e-07
-4.42591e-06
3.02648e-07
-4.49882e-06
2.39407e-07
-4.54919e-06
1.71443e-07
-4.57549e-06
1.00303e-07
-4.57718e-06
2.80171e-08
-4.55375e-06
-4.50303e-08
-4.50554e-06
-1.16563e-07
-4.43424e-06
-1.84346e-07
-4.34186e-06
-2.47302e-07
-4.23057e-06
-3.04562e-07
-4.10262e-06
-3.55638e-07
-3.96037e-06
-4.00373e-07
-3.80604e-06
-4.38971e-07
-3.64167e-06
-4.71929e-07
-3.46893e-06
-4.99942e-07
-3.28919e-06
-5.23783e-07
-3.10343e-06
-5.44189e-07
-2.91243e-06
-5.61727e-07
-2.71682e-06
-5.76688e-07
-2.51727e-06
-5.89057e-07
-2.31458e-06
-5.98602e-07
-2.10975e-06
-6.04949e-07
-1.904e-06
-6.07693e-07
-1.6987e-06
-6.06553e-07
-1.49526e-06
-6.01449e-07
-1.29504e-06
-5.92514e-07
-1.09924e-06
-5.80035e-07
-9.08892e-07
-5.64473e-07
-7.24812e-07
-5.46349e-07
-5.47639e-07
-5.26215e-07
-3.77749e-07
-5.04636e-07
-2.15358e-07
-4.82165e-07
-6.05144e-08
-4.59242e-07
8.66882e-08
-4.36286e-07
2.26443e-07
-4.1363e-07
3.58924e-07
-3.91361e-07
4.84364e-07
-3.69719e-07
6.03046e-07
-3.48869e-07
7.15288e-07
-3.28915e-07
8.21424e-07
-3.09912e-07
9.21794e-07
-2.91879e-07
1.01673e-06
-2.74808e-07
1.10657e-06
-2.58674e-07
1.1916e-06
-2.43437e-07
1.27213e-06
-2.29051e-07
1.34841e-06
-2.15467e-07
1.42071e-06
-2.02631e-07
1.48925e-06
-1.90491e-07
1.55425e-06
-1.78996e-07
1.61589e-06
-1.68099e-07
1.67437e-06
-1.57756e-07
1.72982e-06
-1.4793e-07
1.78242e-06
-1.38586e-07
1.83229e-06
-1.29697e-07
1.87957e-06
-1.21238e-07
1.92436e-06
-1.13191e-07
1.96679e-06
-1.05539e-07
2.00695e-06
-9.82666e-08
2.04494e-06
-9.13624e-08
2.08086e-06
-8.4814e-08
2.11479e-06
-7.86099e-08
2.14681e-06
-7.27388e-08
2.177e-06
-6.71891e-08
2.20543e-06
-6.19489e-08
2.23218e-06
-5.70061e-08
2.2573e-06
-5.23486e-08
2.28087e-06
-4.79639e-08
2.30294e-06
-4.38398e-08
2.32356e-06
-3.99641e-08
2.34281e-06
-3.63244e-08
2.36073e-06
-3.29077e-08
2.37737e-06
-2.97017e-08
2.39279e-06
-2.66935e-08
2.40705e-06
-2.38707e-08
2.42019e-06
-2.12288e-08
2.43226e-06
-1.8761e-08
2.44332e-06
-1.64565e-08
2.4534e-06
-1.43052e-08
2.46256e-06
-1.22985e-08
2.47085e-06
-1.04263e-08
2.4783e-06
-8.68014e-09
2.48497e-06
-7.05621e-09
2.4909e-06
-5.54735e-09
2.49615e-06
-4.14056e-09
2.50075e-06
-2.82971e-09
2.50475e-06
-1.61169e-09
2.50817e-06
-4.82258e-10
2.51105e-06
5.75934e-10
2.51342e-06
1.55305e-09
2.51532e-06
2.45572e-09
2.51677e-06
3.28544e-09
2.5178e-06
4.04638e-09
2.51844e-06
4.74076e-09
2.51872e-06
5.3739e-09
2.51865e-06
5.9518e-09
2.51827e-06
6.48067e-09
2.51759e-06
6.96618e-09
2.51663e-06
7.41341e-09
2.51542e-06
7.82713e-09
2.51397e-06
8.21249e-09
2.51231e-06
8.57496e-09
2.51045e-06
8.91957e-09
2.5084e-06
9.25031e-09
2.50618e-06
9.56965e-09
2.50379e-06
9.87873e-09
2.50124e-06
1.01776e-08
2.49855e-06
1.04662e-08
2.49572e-06
1.07444e-08
2.49275e-06
1.10125e-08
2.48966e-06
1.12711e-08
2.48646e-06
1.15214e-08
2.48314e-06
1.1765e-08
2.47971e-06
1.20037e-08
2.47618e-06
1.22396e-08
2.47256e-06
1.24754e-08
2.46883e-06
1.27136e-08
2.46501e-06
1.29585e-08
2.4611e-06
1.32126e-08
2.45709e-06
1.34838e-08
2.45298e-06
1.37735e-08
2.44877e-06
1.40974e-08
2.44445e-06
1.44518e-08
2.44e-06
1.48717e-08
2.43542e-06
1.53358e-08
2.43069e-06
1.59272e-08
2.42579e-06
1.65708e-08
2.42066e-06
1.74725e-08
2.4153e-06
1.83993e-08
2.4096e-06
1.98836e-08
2.40355e-06
2.12456e-08
2.39698e-06
2.38845e-08
2.38981e-06
2.58985e-08
2.38185e-06
3.09651e-08
2.3727e-06
3.395e-08
2.36249e-06
4.44863e-08
2.34945e-06
4.91771e-08
2.33586e-06
7.29078e-08
2.31492e-06
8.22367e-08
2.29921e-06
1.39714e-07
1.66265e-07
2.26639e-06
-5.16478e-08
1.88261e-08
-1.17285e-07
4.43336e-08
-1.83443e-07
5.03205e-08
-2.50955e-07
5.92614e-08
-3.20073e-07
6.97072e-08
-3.91661e-07
8.20086e-08
-4.65887e-07
9.62419e-08
-5.42979e-07
1.12622e-07
-6.23108e-07
1.31323e-07
-7.06283e-07
1.52507e-07
-7.92441e-07
1.76288e-07
-8.8138e-07
2.02721e-07
-9.72814e-07
2.3173e-07
-1.06637e-06
2.63121e-07
-1.16158e-06
2.96581e-07
-1.25798e-06
3.31692e-07
-1.35507e-06
3.67946e-07
-1.45254e-06
4.04763e-07
-1.55031e-06
4.41505e-07
-1.64858e-06
4.77517e-07
-1.74777e-06
5.12218e-07
-1.84867e-06
5.45149e-07
-1.95239e-06
5.76003e-07
-2.06011e-06
6.04622e-07
-2.17296e-06
6.30926e-07
-2.29189e-06
6.54851e-07
-2.41759e-06
6.763e-07
-2.55056e-06
6.95122e-07
-2.69104e-06
7.11085e-07
-2.83899e-06
7.23827e-07
-2.99409e-06
7.32821e-07
-3.1556e-06
7.37332e-07
-3.32229e-06
7.36372e-07
-3.49228e-06
7.28719e-07
-3.66301e-06
7.13056e-07
-3.83129e-06
6.88103e-07
-3.99344e-06
6.52797e-07
-4.14554e-06
6.06479e-07
-4.28378e-06
5.49022e-07
-4.40458e-06
4.80842e-07
-4.50477e-06
4.02845e-07
-4.58176e-06
3.16389e-07
-4.63347e-06
2.23158e-07
-4.65825e-06
1.25079e-07
-4.65508e-06
2.48556e-08
-4.62482e-06
-7.52935e-08
-4.56899e-06
-1.7239e-07
-4.48906e-06
-2.6428e-07
-4.38701e-06
-3.4935e-07
-4.26528e-06
-4.26291e-07
-4.1266e-06
-4.94318e-07
-3.97375e-06
-5.53229e-07
-3.80935e-06
-6.03364e-07
-3.63576e-06
-6.45519e-07
-3.45488e-06
-6.80825e-07
-3.26811e-06
-7.10553e-07
-3.07636e-06
-7.35941e-07
-2.88011e-06
-7.57971e-07
-2.67967e-06
-7.77136e-07
-2.47539e-06
-7.93335e-07
-2.26792e-06
-8.06073e-07
-2.05825e-06
-8.14613e-07
-1.8478e-06
-8.1815e-07
-1.63823e-06
-8.16118e-07
-1.43132e-06
-8.08363e-07
-1.22872e-06
-7.95111e-07
-1.03186e-06
-7.76893e-07
-8.41846e-07
-7.54489e-07
-6.59414e-07
-7.28781e-07
-4.84965e-07
-7.00664e-07
-3.1862e-07
-6.70981e-07
-1.60377e-07
-6.40408e-07
-9.881e-09
-6.09737e-07
1.3364e-07
-5.79808e-07
2.69865e-07
-5.49854e-07
3.99169e-07
-5.20664e-07
5.21829e-07
-4.92379e-07
6.38088e-07
-4.65128e-07
7.4819e-07
-4.39018e-07
8.52396e-07
-4.14118e-07
9.50986e-07
-3.90469e-07
1.04426e-06
-3.68078e-07
1.13251e-06
-3.46924e-07
1.21603e-06
-3.26963e-07
1.29512e-06
-3.08138e-07
1.37003e-06
-2.9038e-07
1.44102e-06
-2.73617e-07
1.5083e-06
-2.57776e-07
1.5721e-06
-2.42787e-07
1.63258e-06
-2.28585e-07
1.68994e-06
-2.15111e-07
1.74432e-06
-2.0231e-07
1.79587e-06
-1.90139e-07
1.84473e-06
-1.78557e-07
1.89103e-06
-1.67534e-07
1.93488e-06
-1.57042e-07
1.9764e-06
-1.47057e-07
2.01569e-06
-1.3756e-07
2.05286e-06
-1.28532e-07
2.088e-06
-1.19957e-07
2.12121e-06
-1.11816e-07
2.15256e-06
-1.04095e-07
2.18215e-06
-9.67753e-08
2.21004e-06
-8.9842e-08
2.23632e-06
-8.32779e-08
2.26103e-06
-7.70668e-08
2.28426e-06
-7.11926e-08
2.30606e-06
-6.56396e-08
2.32649e-06
-6.03921e-08
2.3456e-06
-5.54351e-08
2.36345e-06
-5.07535e-08
2.38008e-06
-4.63334e-08
2.39555e-06
-4.21619e-08
2.4099e-06
-3.8226e-08
2.42319e-06
-3.45161e-08
2.43545e-06
-3.10235e-08
2.44673e-06
-2.77383e-08
2.45708e-06
-2.46491e-08
2.46653e-06
-2.17462e-08
2.47512e-06
-1.90206e-08
2.4829e-06
-1.64621e-08
2.48991e-06
-1.40624e-08
2.49618e-06
-1.1816e-08
2.50175e-06
-9.71369e-09
2.50667e-06
-7.7461e-09
2.51096e-06
-5.90738e-09
2.51467e-06
-4.19118e-09
2.51784e-06
-2.58859e-09
2.52049e-06
-1.0969e-09
2.52265e-06
2.90535e-10
2.52436e-06
1.57356e-09
2.52565e-06