/*--------------------------------*- C++ -*----------------------------------*\
  =========                 |
  \\      /  F ield         | OpenFOAM: The Open Source CFD Toolbox
   \\    /   O peration     | Website:  https://openfoam.org
    \\  /    A nd           | Version:  7
     \\/     M anipulation  |
\*---------------------------------------------------------------------------*/
FoamFile
{
    version     2.0;
    format      ascii;
    class       volScalarField;
    location    "0.028";
    object      s;
}
// * * * * * * * * * * * * * * * * * * * * * * * * * * * * * * * * * * * * * //

dimensions      [0 0 0 0 0 0 0];

internalField   nonuniform List<scalar> 
12225
(
1
1
1
1
1
1
1
1
1
1
1
1
1
1
1
1
1
1
1
1
1
1
1
1
1
1
1
1
1
1
1
1
1
1
1
1
1
1
1
1
1
1
1
1
1
1
1
1
1
1
1
1
1
1
1
1
1
1
1
1
1
1
1
1
1
1
1
1
1
1
1
1
1
1
1
1
1
1
1
1
1
1
1
1
1
1
1
1
1
1
1
1
1
1
1
1
1
1
1
1
1
1
1
1
1
1
1
1
1
1
1
1
1
1
1
1
1
1
1
1
1
1
1
1
1
1
1
1
1
1
1
1
1
1
1
1
1
1
1
1
1
1
1
1
1
1
1
1
1
1
1
1
1
1
1
1
1
1
1
1
1
1
1
1
1
1
1
1
1
1
1
1
1
1
1
1
1
1
1
1
1
1
1
1
1
1
1
1
1
1
1
1
1
1
1
1
1
1
1
1
1
1
1
1
1
1
1
1
1
1
1
1
1
1
1
1
1
1
1
1
1
1
1
1
1
1
1
1
1
1
1
1
1
1
1
1
1
1
1
1
1
1
1
1
1
1
1
1
1
1
1
1
1
1
1
1
1
1
1
1
1
1
1
1
1
1
1
1
1
1
1
1
1
1
1
1
1
1
1
1
1
1
1
1
1
1
1
1
1
1
1
1
1
1
1
1
1
1
1
1
1
1
1
1
1
1
1
1
1
1
1
1
1
1
1
1
1
1
1
1
1
1
1
1
1
1
1
1
1
1
1
1
1
1
1
1
1
1
1
1
1
1
1
1
1
1
1
1
1
1
1
1
1
1
1
1
1
1
1
1
1
1
1
1
1
1
1
1
1
1
1
1
1
1
1
1
1
1
1
1
1
1
1
1
1
1
1
1
1
1
1
1
1
1
1
1
1
1
1
1
1
1
1
1
1
1
1
1
1
1
1
1
1
1
1
1
1
1
1
1
1
1
1
1
1
1
1
1
1
1
1
1
1
1
1
1
1
1
1
1
1
1
1
1
1
1
1
1
1
1
1
1
1
1
1
1
1
1
1
1
1
1
1
1
1
1
1
1
1
1
1
1
1
1
1
1
1
1
1
1
1
1
1
1
1
1
1
1
1
1
1
1
1
1
1
1
1
1
1
1
1
1
1
1
1
1
1
1
1
1
1
1
1
1
1
1
1
1
1
1
1
1
1
1
1
1
1
1
1
1
1
1
1
1
1
1
1
1
1
1
7.95902e-16
2.27561e-14
2.49385e-13
1.62903e-12
7.58226e-12
2.72844e-11
8.12763e-11
2.20354e-10
6.03265e-10
1.71337e-09
4.54064e-09
7.61131e-09
6.63676e-09
8.05082e-10
-9.09877e-11
5.55932e-09
4.62283e-08
2.80828e-07
1.46935e-06
6.63596e-06
2.49656e-05
7.53518e-05
0.000182275
0.000370298
0.000651819
0.00102237
0.00146699
0.00197183
0.00253263
0.00315561
0.00385279
0.00463757
0.00552336
0.00652264
0.00764434
0.00888909
0.0102521
0.0117397
0.0133706
0.0151476
0.0170372
0.0189973
0.0210367
0.0232184
0.0255532
0.0279523
0.0302378
0.0314938
0.0322344
0.032442
0.0320671
0.0309339
0.0296817
0.0276701
0.0259109
0.0235002
0.0212408
0.0190662
0.0166573
0.0143909
0.0122315
0.0102199
0.00825291
0.00664775
0.00513937
0.00391802
0.00290179
0.00208684
0.00145809
0.000988016
0.000649006
0.000413245
0.000254537
0.000151911
8.77121e-05
4.89861e-05
2.64707e-05
1.38429e-05
7.00689e-06
3.43354e-06
1.62918e-06
7.4867e-07
3.33272e-07
1.43739e-07
6.0076e-08
2.43359e-08
9.55617e-09
3.63804e-09
1.34293e-09
4.80713e-10
1.66882e-10
5.61901e-11
1.83516e-11
5.81415e-12
1.787e-12
5.32859e-13
1.54159e-13
4.32714e-14
1.17841e-14
3.11327e-15
7.97804e-16
1.98251e-16
4.77517e-17
1.11415e-17
2.51568e-18
5.48944e-19
1.15518e-19
2.33739e-20
4.52725e-21
8.32676e-22
1.43555e-22
2.25527e-23
3.34964e-24
4.90593e-25
7.08615e-26
1.01012e-26
1.26588e-27
2.79301e-28
6.16766e-29
1.37103e-29
3.06547e-30
6.84546e-31
1.52819e-31
3.4787e-32
4.12954e-33
4.10383e-34
6.38596e-35
1.33387e-35
2.65701e-36
5.26617e-37
1.02786e-37
2.0495e-38
2.75579e-39
2.44615e-40
2.87735e-41
5.77861e-42
1.01572e-42
1.63254e-43
2.51102e-44
3.81073e-45
5.80521e-46
9.37368e-47
1.04674e-47
9.50624e-49
7.54844e-50
1.11495e-50
1.69494e-51
2.60835e-52
3.97517e-53
5.9873e-54
8.82645e-55
6.19858e-56
4.06419e-57
5.35924e-58
7.46844e-59
1.04684e-59
1.44695e-60
1.99288e-61
1.70677e-62
8.92566e-64
9.22008e-65
1.17425e-65
1.4697e-66
1.83673e-67
2.2841e-68
1.99654e-69
9.1416e-71
7.55021e-72
9.07826e-73
1.02616e-73
1.14462e-74
1.26787e-75
1.10761e-76
4.609e-78
2.88752e-79
3.1386e-80
3.11617e-81
2.95573e-82
2.72103e-83
3.53113e-85
2.63978e-14
7.61375e-13
9.27294e-12
6.8183e-11
3.54688e-10
1.3973e-09
4.3954e-09
1.18817e-08
3.16205e-08
9.7899e-08
3.18988e-07
9.27564e-07
2.44028e-06
5.86995e-06
1.30721e-05
2.72639e-05
5.37565e-05
0.000101098
0.000182689
0.0003188
0.000538363
0.000878985
0.00138363
0.00209612
0.0030605
0.00432712
0.00596431
0.00807005
0.0107785
0.0142611
0.0187234
0.0244024
0.0315603
0.0404671
0.0513689
0.06445
0.0798073
0.0974177
0.117148
0.13883
0.162258
0.186963
0.212035
0.236294
0.258518
0.277515
0.290821
0.299288
0.303045
0.304086
0.298878
0.29077
0.279478
0.264315
0.248548
0.230198
0.210693
0.192936
0.174159
0.15645
0.138109
0.120057
0.101846
0.0850679
0.0691282
0.055053
0.042884
0.0326548
0.0241522
0.0173206
0.0120539
0.00814817
0.00533779
0.00338429
0.00207678
0.00123371
0.000709171
0.00039456
0.000212513
0.000110829
5.59819e-05
2.73974e-05
1.29954e-05
5.97652e-06
2.66596e-06
1.15393e-06
4.84834e-07
1.97823e-07
7.84166e-08
3.0211e-08
1.13169e-08
4.1237e-09
1.46227e-09
5.04823e-10
1.69754e-10
5.56241e-11
1.77692e-11
5.53638e-12
1.68319e-12
4.99549e-13
1.44791e-13
4.10017e-14
1.13481e-14
3.07089e-15
8.12782e-16
2.10472e-16
5.334e-17
1.32335e-17
3.21489e-18
7.64943e-19
1.78301e-19
4.07217e-20
9.11361e-21
1.99894e-21
4.29767e-22
9.05857e-23
1.87214e-23
3.79423e-24
7.54141e-25
1.47012e-25
2.81092e-26
5.27128e-27
9.72339e-28
1.76755e-28
3.16597e-29
5.58671e-30
9.71123e-31
1.66277e-31
2.80421e-32
4.65794e-33
7.62023e-34
1.22779e-34
1.94832e-35
3.0449e-36
4.68667e-37
7.10464e-38
1.06075e-38
1.55987e-39
2.25934e-40
3.22334e-41
4.52981e-42
6.27074e-43
8.55139e-44
1.14882e-44
1.52046e-45
1.98254e-46
2.54686e-47
3.22357e-48
4.02006e-49
4.93973e-50
5.98084e-51
7.13548e-52
8.38879e-53
9.71863e-54
1.10957e-54
1.24841e-55
1.3843e-56
1.5128e-57
1.62939e-58
1.7297e-59
1.80977e-60
1.86633e-61
1.89702e-62
1.9005e-63
1.87661e-64
1.8263e-65
1.75162e-66
1.65558e-67
1.54186e-68
1.4147e-69
1.27849e-70
1.13774e-71
9.9643e-73
8.58557e-74
7.26812e-75
6.04273e-76
4.91704e-77
3.91442e-78
3.01919e-79
2.11493e-80
6.02839e-13
1.74737e-11
2.26167e-10
1.83938e-09
1.09563e-08
5.1345e-08
1.9751e-07
6.45382e-07
1.83912e-06
4.66807e-06
1.07525e-05
2.2876e-05
4.55528e-05
8.58698e-05
0.000154691
0.000268361
0.00045102
0.000737521
0.00117666
0.00183419
0.00279511
0.00416621
0.00607836
0.00869478
0.0122305
0.0169792
0.0233441
0.031868
0.043266
0.0584732
0.0787183
0.105608
0.141159
0.187719
0.247872
0.324618
0.41223
0.483937
0.557283
0.625953
0.675285
0.727459
0.763569
0.786949
0.809542
0.824606
0.832484
0.839276
0.842376
0.843597
0.841949
0.836175
0.829426
0.817897
0.803055
0.784432
0.760894
0.733643
0.69807
0.658867
0.613601
0.563811
0.508539
0.44921
0.386435
0.322876
0.262201
0.210654
0.166892
0.127557
0.0941604
0.0674362
0.0470504
0.0317093
0.0206319
0.0129931
0.00790909
0.00465119
0.00264415
0.00145307
0.000772131
0.000396873
0.000197394
9.50437e-05
4.43218e-05
2.00273e-05
8.77312e-06
3.72762e-06
1.53701e-06
6.15349e-07
2.39328e-07
9.04752e-08
3.32634e-08
1.19e-08
4.14485e-09
1.40637e-09
4.65114e-10
1.50012e-10
4.72095e-11
1.45044e-11
4.35262e-12
1.27642e-12
3.6595e-13
1.02618e-13
2.81564e-14
7.56207e-15
1.98871e-15
5.12284e-16
1.29298e-16
3.19846e-17
7.75654e-18
1.84451e-18
4.30208e-19
9.84346e-20
2.20994e-20
4.8693e-21
1.05314e-21
2.23621e-22
4.66255e-23
9.54735e-24
1.92024e-24
3.79409e-25
7.3652e-26
1.40486e-26
2.63337e-27
4.85153e-28
8.78622e-29
1.56673e-29
2.753e-30
4.76635e-31
8.13014e-32
1.36621e-32
2.26168e-33
3.68828e-34
5.92495e-35
9.37572e-36
1.46143e-36
2.24387e-37
3.39366e-38
5.05578e-39
7.4193e-40
1.0725e-40
1.52723e-41
2.14234e-42
2.96047e-43
4.03029e-44
5.40536e-45
7.14233e-46
9.29813e-47
1.19263e-47
1.50725e-48
1.87694e-49
2.30311e-50
2.7848e-51
3.31821e-52
3.89637e-53
4.50896e-54
5.14242e-55
5.78028e-56
6.40372e-57
6.99244e-58
7.52574e-59
7.98362e-60
8.34808e-61
8.60414e-62
8.74099e-63
8.75245e-64
8.63779e-65
8.40103e-66
8.05188e-67
7.60297e-68
7.07245e-69
6.47722e-70
5.84078e-71
5.17794e-72
4.51534e-73
3.8582e-74
3.23734e-75
2.64062e-76
2.10722e-77
5.70565e-12
1.54739e-10
1.87566e-09
1.42555e-08
7.83857e-08
3.36697e-07
1.18746e-06
3.56368e-06
9.43522e-06
2.25739e-05
4.93837e-05
0.00010008
0.000190384
0.000343742
0.000594596
0.00099297
0.00161058
0.00254851
0.00394644
0.00599327
0.00894028
0.0131199
0.018977
0.0271275
0.0384527
0.0542316
0.0763029
0.107271
0.150871
0.212706
0.301247
0.410073
0.506856
0.619034
0.701103
0.777236
0.81649
0.862941
0.893034
0.911135
0.928157
0.9361
0.943159
0.946489
0.948939
0.950072
0.95219
0.95408
0.957416
0.960545
0.963703
0.965854
0.969123
0.971282
0.972514
0.973357
0.973489
0.97138
0.967242
0.962083
0.954062
0.942987
0.927515
0.906619
0.877944
0.838736
0.785202
0.711861
0.622392
0.523618
0.419845
0.319652
0.237411
0.17313
0.120587
0.0809819
0.0526891
0.0329913
0.0199266
0.0116108
0.00652595
0.00354004
0.00185406
0.000938009
0.000458659
0.00021688
9.92307e-05
4.39575e-05
1.88646e-05
7.84798e-06
3.16694e-06
1.24042e-06
4.71872e-07
1.74456e-07
6.27237e-08
2.19453e-08
7.4763e-09
2.48162e-09
8.03059e-10
2.53496e-10
7.80992e-11
2.34962e-11
6.9062e-12
1.98414e-12
5.57419e-13
1.53196e-13
4.1203e-14
1.08488e-14
2.79736e-15
7.06576e-16
1.7488e-16
4.24231e-17
1.00893e-17
2.35294e-18
5.38214e-19
1.20778e-19
2.65948e-20
5.74737e-21
1.21923e-21
2.53934e-22
5.19338e-23
1.04315e-23
2.05813e-24
3.98934e-25
7.59787e-26
1.42202e-26
2.6158e-27
4.72953e-28
8.40603e-29
1.46994e-29
2.53214e-30
4.29673e-31
7.18178e-32
1.18238e-32
1.91734e-33
3.06238e-34
4.8176e-35
7.46472e-36
1.13922e-36
1.71245e-37
2.53539e-38
3.6974e-39
5.31105e-40
7.51461e-41
1.04734e-41
1.43792e-42
1.94476e-43
2.59115e-44
3.40122e-45
4.39852e-46
5.60436e-47
7.03575e-48
8.70316e-49
1.06082e-49
1.27416e-50
1.50813e-51
1.75915e-52
2.02224e-53
2.2911e-54
2.55829e-55
2.81554e-56
3.05417e-57
3.26551e-58
3.44145e-59
3.57491e-60
3.66034e-61
3.69397e-62
3.67431e-63
3.60178e-64
3.47943e-65
3.31153e-66
3.1051e-67
2.86668e-68
2.60609e-69
2.32961e-70
2.04881e-71
1.76677e-72
1.49671e-73
1.23606e-74
1.00098e-75
1.38692e-11
3.63621e-10
4.36438e-09
3.33793e-08
1.858e-07
8.12765e-07
2.95857e-06
9.45776e-06
2.71375e-05
6.88956e-05
0.000153352
0.000305757
0.000565339
0.000991879
0.00166456
0.00268484
0.00418944
0.00638738
0.00977843
0.0150153
0.0226328
0.0337526
0.0499548
0.0736033
0.108352
0.159866
0.23727
0.351645
0.458329
0.576695
0.67375
0.744454
0.820992
0.858489
0.893621
0.909486
0.918831
0.923215
0.924542
0.924346
0.921295
0.917353
0.90958
0.898927
0.89267
0.888494
0.887412
0.892214
0.900867
0.912909
0.925289
0.939694
0.951078
0.965072
0.972273
0.979163
0.985494
0.988694
0.990759
0.992529
0.993473
0.994052
0.993792
0.992561
0.990072
0.985872
0.979022
0.96822
0.951206
0.924485
0.882708
0.817921
0.718804
0.592311
0.455975
0.327276
0.229665
0.154963
0.100091
0.0623455
0.0373103
0.0214882
0.0119135
0.00636239
0.00327517
0.00162623
0.000779425
0.000360857
0.000161506
6.99301e-05
2.93151e-05
1.1907e-05
4.68953e-06
1.79227e-06
6.65198e-07
2.39936e-07
8.4169e-08
2.8736e-08
9.55457e-09
3.0959e-09
9.78185e-10
3.01551e-10
9.07493e-11
2.66738e-11
7.66113e-12
2.15107e-12
5.90672e-13
1.58684e-13
4.17223e-14
1.07397e-14
2.70732e-15
6.68552e-16
1.61769e-16
3.83649e-17
8.91979e-18
2.03357e-18
4.54723e-19
9.97486e-20
2.14699e-20
4.53523e-21
9.40366e-22
1.91426e-22
3.82639e-23
7.51163e-24
1.44846e-24
2.74394e-25
5.10745e-26
9.34242e-27
1.6796e-27
2.96811e-28
5.15748e-29
8.82511e-30
1.4871e-30
2.46772e-31
4.0326e-32
6.48947e-33
1.02842e-33
1.60501e-34
2.4668e-35
3.73375e-36
5.56575e-37
8.17103e-38
1.18146e-38
1.68252e-39
2.36003e-40
3.26067e-41
4.43757e-42
5.94908e-43
7.85669e-44
1.02219e-44
1.31024e-45
1.65466e-46
2.05887e-47
2.52422e-48
3.04948e-49
3.63028e-50
4.25882e-51
4.92368e-52
5.60993e-53
6.29953e-54
6.97194e-55
7.60513e-56
8.17666e-57
8.665e-58
9.05075e-59
9.31805e-60
9.45526e-61
9.45635e-62
9.32028e-63
9.05263e-64
8.66269e-65
8.16673e-66
7.58095e-67
6.9293e-68
6.22918e-69
5.5088e-70
4.78051e-71
4.07476e-72
3.39464e-73
2.77401e-74
2.53278e-11
7.5985e-10
9.72131e-09
7.68771e-08
4.34444e-07
1.87802e-06
6.48438e-06
1.84538e-05
4.52407e-05
0.00010398
0.000229785
0.000472748
0.000907769
0.00165308
0.00288918
0.0048956
0.0081639
0.0137162
0.0221763
0.0332307
0.0501377
0.0783532
0.121989
0.191628
0.304652
0.429736
0.546401
0.640249
0.727144
0.800663
0.84379
0.880169
0.896585
0.903603
0.906286
0.906371
0.900051
0.880151
0.851464
0.80952
0.755448
0.698403
0.66252
0.632393
0.614137
0.606142
0.604035
0.614848
0.633178
0.660767
0.698752
0.745845
0.794879
0.846317
0.882545
0.917033
0.945112
0.963505
0.976289
0.985495
0.99091
0.994727
0.996555
0.997715
0.998289
0.998534
0.998542
0.998018
0.996828
0.994484
0.990116
0.982081
0.967365
0.940581
0.892346
0.807311
0.670814
0.508791
0.353659
0.23811
0.153237
0.0944626
0.0558604
0.0317003
0.0172806
0.00905659
0.00456752
0.00221876
0.00103911
0.000469612
0.000205002
8.65205e-05
3.53368e-05
1.39791e-05
5.36127e-06
1.99513e-06
7.21046e-07
2.53277e-07
8.65388e-08
2.87824e-08
9.32498e-09
2.94479e-09
9.07008e-10
2.72622e-10
8.00076e-11
2.29367e-11
6.42621e-12
1.76028e-12
4.71608e-13
1.23625e-13
3.17179e-14
7.96731e-15
1.96e-15
4.72347e-16
1.11543e-16
2.5817e-17
5.85815e-18
1.30349e-18
2.84473e-19
6.09054e-20
1.2795e-20
2.63803e-21
5.33901e-22
1.06087e-22
2.06994e-23
3.96668e-24
7.4669e-25
1.38092e-25
2.50946e-26
4.4817e-27
7.86695e-28
1.35809e-28
2.30821e-29
3.86241e-30
6.36327e-31
1.03216e-31
1.64842e-32
2.59212e-33
4.01349e-34
6.11901e-35
9.18642e-36
1.3581e-36
1.97723e-37
2.83488e-38
4.00299e-39
5.56708e-40
7.62575e-41
1.02889e-41
1.36745e-42
1.79031e-43
2.30909e-44
2.93407e-45
3.67314e-46
4.53068e-47
5.5064e-48
6.59433e-49
7.78199e-50
9.04994e-51
1.03718e-51
1.17146e-52
1.30403e-53
1.43067e-54
1.54702e-55
1.64879e-56
1.732e-57
1.79327e-58
1.82997e-59
1.8405e-60
1.82423e-61
1.78178e-62
1.71463e-63
1.62553e-64
1.51752e-65
1.39493e-66
1.26141e-67
1.12209e-68
9.80196e-70
8.41056e-71
7.06825e-72
5.83004e-73
1.98283e-11
6.58455e-10
8.79161e-09
7.24418e-08
4.31285e-07
2.04381e-06
8.05905e-06
2.70712e-05
7.8549e-05
0.000197526
0.000447379
0.000942035
0.00185698
0.00344696
0.00606997
0.01017
0.016174
0.0246048
0.0384981
0.0633421
0.10458
0.175632
0.29489
0.436425
0.557429
0.657765
0.736929
0.80266
0.846957
0.874539
0.887244
0.892898
0.894229
0.889885
0.868781
0.828914
0.75465
0.650382
0.578584
0.50476
0.466434
0.445797
0.431061
0.424761
0.422643
0.423643
0.427899
0.430353
0.435811
0.440018
0.447276
0.459839
0.483968
0.529201
0.60748
0.699647
0.792475
0.855213
0.908898
0.940111
0.96383
0.979373
0.988394
0.994028
0.996999
0.998488
0.999174
0.999494
0.999623
0.999657
0.999503
0.999059
0.998032
0.995761
0.990815
0.980154
0.957422
0.909494
0.813018
0.651454
0.465468
0.308353
0.196814
0.119654
0.0695971
0.0387565
0.0206883
0.0105985
0.00521706
0.0024705
0.00112677
0.000495546
0.000210393
8.633e-05
3.42729e-05
1.31782e-05
4.91264e-06
1.77725e-06
6.2453e-07
2.13354e-07
7.09147e-08
2.29501e-08
7.23676e-09
2.22479e-09
6.67229e-10
1.95315e-10
5.58324e-11
1.55929e-11
4.25642e-12
1.13608e-12
2.96609e-13
7.57737e-14
1.89476e-14
4.639e-15
1.11239e-15
2.61319e-16
6.01567e-17
1.35739e-17
3.0029e-18
6.51467e-19
1.3863e-19
2.8942e-20
5.92924e-21
1.19222e-21
2.35332e-22
4.56097e-23
8.6809e-24
1.62285e-24
2.98038e-25
5.37795e-26
9.53632e-27
1.66205e-27
2.85025e-28
4.81115e-29
7.99369e-30
1.30735e-30
2.10476e-31
3.33579e-32
5.20471e-33
7.99498e-34
1.20915e-34
1.80055e-35
2.64005e-36
3.81175e-37
5.41955e-38
7.58843e-39
1.04644e-39
1.42125e-40
1.90129e-41
2.50535e-42
3.25204e-43
4.15847e-44
5.23871e-45
6.50204e-46
7.95119e-47
9.58058e-48
1.1375e-48
1.33084e-49
1.53439e-50
1.74342e-51
1.95224e-52
2.15451e-53
2.34344e-54
2.51224e-55
2.65444e-56
2.76433e-57
2.83728e-58
2.87012e-59
2.86121e-60
2.81079e-61
2.72056e-62
2.59417e-63
2.43609e-64
2.25254e-65
2.04951e-66
1.83455e-67
1.61365e-68
1.39457e-69
1.18237e-70
9.84695e-72
1.04575e-11
4.36005e-10
6.56999e-09
5.94408e-08
3.8054e-07
1.86444e-06
7.45962e-06
2.57989e-05
7.85976e-05
0.00021107
0.000511681
0.00112972
0.00228974
0.00434406
0.00791737
0.0140898
0.0248845
0.0437708
0.0752591
0.128488
0.219419
0.354781
0.504446
0.628912
0.717703
0.783824
0.834433
0.862363
0.876898
0.882744
0.884475
0.880458
0.858524
0.808147
0.706072
0.589636
0.501101
0.454283
0.41959
0.403171
0.396222
0.393771
0.393336
0.395976
0.399543
0.405182
0.412548
0.418149
0.422394
0.424402
0.421183
0.409744
0.399435
0.392223
0.386626
0.404519
0.456985
0.577769
0.71213
0.816133
0.887717
0.931818
0.961427
0.978952
0.989244
0.994748
0.997558
0.99892
0.999531
0.999774
0.999871
0.999907
0.9999
0.999814
0.999546
0.998832
0.996979
0.992267
0.9805
0.951671
0.882324
0.732989
0.531359
0.347964
0.21842
0.130303
0.0741577
0.040321
0.0209771
0.0104582
0.0050041
0.0023014
0.00101879
0.00043472
0.00017904
7.12635e-05
2.74465e-05
1.02402e-05
3.70514e-06
1.30138e-06
4.44135e-07
1.47403e-07
4.76122e-08
1.49785e-08
4.5924e-09
1.37309e-09
4.00577e-10
1.14085e-10
3.17341e-11
8.62534e-12
2.29169e-12
5.95429e-13
1.51341e-13
3.76431e-14
9.16545e-15
2.18522e-15
5.10313e-16
1.16761e-16
2.61818e-17
5.75502e-18
1.24037e-18
2.62186e-19
5.43657e-20
1.10609e-20
2.20852e-21
4.32855e-22
8.32912e-23
1.57382e-23
2.92072e-24
5.32452e-25
9.53673e-26
1.67849e-26
2.90498e-27
4.94735e-28
8.29145e-29
1.36753e-29
2.2198e-30
3.54642e-31
5.57684e-32
8.63246e-33
1.31539e-33
1.97322e-34
2.9142e-35
4.23756e-36
6.0672e-37
8.55393e-38
1.18761e-38
1.62382e-39
2.18668e-40
2.90031e-41
3.78912e-42
4.87632e-43
6.18206e-44
7.72118e-45
9.50096e-46
1.15188e-46
1.37603e-47
1.61974e-48
1.8788e-49
2.14761e-50
2.41926e-51
2.68583e-52
2.93869e-53
3.16899e-54
3.36808e-55
3.52811e-56
3.64244e-57
3.70616e-58
3.7163e-59
3.6722e-60
3.57528e-61
3.42935e-62
3.23976e-63
3.0139e-64
2.7596e-65
2.48624e-66
2.20238e-67
1.9177e-68
1.64018e-69
1.37929e-70
3.77167e-12
2.4016e-10
4.27635e-09
4.35399e-08
3.05441e-07
1.62236e-06
6.98858e-06
2.56381e-05
8.17102e-05
0.000229981
0.000575741
0.00133168
0.00287731
0.00582637
0.0110624
0.0199427
0.0351765
0.0629354
0.11583
0.211793
0.357258
0.522203
0.654958
0.746883
0.80275
0.843598
0.863812
0.872803
0.876145
0.876672
0.863516
0.826813
0.73962
0.610373
0.510492
0.450825
0.413243
0.396538
0.388224
0.384256
0.380964
0.379523
0.379157
0.380235
0.383108
0.389717
0.402317
0.417451
0.432658
0.453108
0.465277
0.470799
0.452831
0.420457
0.374387
0.350522
0.338952
0.340474
0.392155
0.532321
0.706224
0.823796
0.897495
0.944104
0.970897
0.985549
0.99308
0.996812
0.998593
0.999409
0.999763
0.999903
0.999953
0.999971
0.999973
0.999951
0.99986
0.999567
0.998674
0.996021
0.988358
0.966847
0.908039
0.758704
0.540853
0.348183
0.213274
0.124044
0.0686673
0.0362524
0.0182886
0.00883297
0.00409178
0.00182122
0.000780173
0.00032217
0.000128438
4.9501e-05
1.84675e-05
6.67713e-06
2.34222e-06
7.97909e-07
2.64216e-07
8.51143e-08
2.66938e-08
8.15607e-09
2.42933e-09
7.05795e-10
2.00118e-10
5.54021e-11
1.49828e-11
3.95984e-12
1.02317e-12
2.58567e-13
6.39299e-14
1.54699e-14
3.66493e-15
8.50295e-16
1.93253e-16
4.30386e-17
9.39468e-18
2.01052e-18
4.21935e-19
8.68556e-20
1.75414e-20
3.47647e-21
6.76262e-22
1.29146e-22
2.42173e-23
4.4599e-24
8.06794e-25
1.43388e-25
2.50486e-26
4.30459e-27
7.27767e-28
1.21059e-28
1.98142e-29
3.19127e-30
5.05814e-31
7.89021e-32
1.21141e-32
1.83073e-33
2.72348e-34
3.98859e-35
5.75095e-36
8.16425e-37
1.14124e-37
1.57093e-38
2.12951e-39
2.84301e-40
3.73834e-41
4.84184e-42
6.17731e-43
7.76375e-44
9.61288e-45
1.17265e-45
1.40943e-46
1.66915e-47
1.94782e-48
2.23988e-49
2.53828e-50
2.83472e-51
3.11997e-52
3.38431e-53
3.61807e-54
3.8122e-55
3.95878e-56
4.05162e-57
4.08653e-58
4.06177e-59
3.97799e-60
3.83839e-61
3.64821e-62
3.41484e-63
3.14678e-64
2.85393e-65
2.54623e-66
2.23414e-67
1.92739e-68
1.63641e-69
6.5077e-13
8.91628e-11
2.13402e-09
2.56842e-08
2.08335e-07
1.26764e-06
6.03719e-06
2.34187e-05
7.77652e-05
0.000232265
0.0006354
0.00157686
0.00358834
0.00753907
0.0148169
0.0286125
0.0547609
0.103188
0.188339
0.319814
0.483563
0.638025
0.749812
0.806142
0.841969
0.860331
0.867933
0.870714
0.86875
0.852833
0.802819
0.688886
0.570466
0.47761
0.424914
0.398329
0.384564
0.378295
0.368552
0.356013
0.340003
0.317366
0.290703
0.277905
0.27285
0.276368
0.29578
0.321785
0.358798
0.408422
0.459506
0.489858
0.506686
0.513969
0.492267
0.423673
0.346097
0.311328
0.300585
0.320824
0.404333
0.605771
0.76931
0.873212
0.933884
0.967524
0.984728
0.993063
0.996911
0.998645
0.999422
0.999764
0.999908
0.999965
0.999985
0.999991
0.999991
0.999981
0.999934
0.999759
0.999144
0.997064
0.990282
0.969013
0.904561
0.729706
0.496716
0.311698
0.185121
0.104214
0.0557555
0.0284199
0.0138343
0.00644568
0.00288056
0.00123721
0.000511643
0.000204071
7.86248e-05
2.93029e-05
1.05776e-05
3.70249e-06
1.258e-06
4.15295e-07
1.3332e-07
4.16518e-08
1.2673e-08
3.75761e-09
1.08641e-09
3.06449e-10
8.43784e-11
2.26891e-11
5.96089e-12
1.53071e-12
3.84355e-13
9.44046e-14
2.26897e-14
5.3381e-15
1.22972e-15
2.7747e-16
6.13409e-17
1.32901e-17
2.82271e-18
5.87866e-19
1.2008e-19
2.4063e-20
4.73164e-21
9.13172e-22
1.73007e-22
3.21838e-23
5.87968e-24
1.0551e-24
1.86048e-25
3.22627e-26
5.50265e-27
9.23165e-28
1.52357e-28
2.47378e-29
3.95197e-30
6.2124e-31
9.61025e-32
1.46311e-32
2.1924e-33
3.2337e-34
4.69517e-35
6.71135e-36
9.44513e-37
1.30882e-37
1.78589e-38
2.39977e-39
3.17579e-40
4.13936e-41
5.31426e-42
6.72061e-43
8.37256e-44
1.02759e-44
1.24256e-45
1.48038e-46
1.73786e-47
2.01029e-48
2.29155e-49
2.57421e-50
2.8498e-51
3.10927e-52
3.34335e-53
3.54317e-54
3.70074e-55
3.8095e-56
3.86467e-57
3.86371e-58
3.80631e-59
3.69461e-60
3.53286e-61
3.32737e-62
3.08592e-63
2.81752e-64
2.53179e-65
2.23859e-66
1.94765e-67
1.66917e-68
1.31644e-13
2.5594e-11
6.99416e-10
1.05893e-08
1.04115e-07
7.39932e-07
4.12413e-06
1.82409e-05
6.64282e-05
0.000209626
0.000588944
0.00149413
0.00347268
0.00752112
0.0157805
0.0315834
0.0613528
0.117462
0.217311
0.369942
0.552477
0.713104
0.793854
0.833081
0.852824
0.861626
0.865109
0.860758
0.841578
0.793124
0.68286
0.56915
0.477223
0.419537
0.391791
0.377784
0.369175
0.353869
0.322532
0.277038
0.227803
0.189612
0.170709
0.161191
0.158117
0.164546
0.178493
0.203788
0.235795
0.273235
0.330531
0.43347
0.50324
0.53018
0.541109
0.529893
0.471044
0.350082
0.296708
0.283178
0.295893
0.358776
0.554514
0.749284
0.867181
0.93462
0.969884
0.986851
0.994447
0.997688
0.999036
0.999597
0.999835
0.999934
0.999975
0.999991
0.999996
0.999997
0.999996
0.999988
0.999948
0.999787
0.999154
0.996796
0.988414
0.959962
0.867088
0.641807
0.414017
0.250715
0.143247
0.077502
0.0398327
0.0195044
0.00912352
0.00408707
0.00175741
0.000726851
0.000289697
0.000111455
4.14539e-05
1.49255e-05
5.20852e-06
1.76356e-06
5.79938e-07
1.85383e-07
5.76499e-08
1.74537e-08
5.1478e-09
1.48003e-09
4.15032e-10
1.13575e-10
3.03449e-11
7.91946e-12
2.01976e-12
5.0359e-13
1.228e-13
2.9297e-14
6.84079e-15
1.56384e-15
3.50125e-16
7.67947e-17
1.6506e-17
3.47762e-18
7.18397e-19
1.45547e-19
2.89271e-20
5.64121e-21
1.0797e-21
2.0286e-22
3.74228e-23
6.77974e-24
1.20662e-24
2.11129e-25
3.63249e-26
6.14592e-27
1.02269e-27
1.67389e-28
2.6951e-29
4.26909e-30
6.65352e-31
1.02038e-31
1.53998e-32
2.2874e-33
3.34415e-34
4.81266e-35
6.8183e-36
9.51034e-37
1.30611e-37
1.76629e-38
2.35223e-39
3.08504e-40
3.98511e-41
5.07047e-42
6.35498e-43
7.84634e-44
9.54407e-45
1.14378e-45
1.35056e-46
1.57136e-47
1.80155e-48
2.0354e-49
2.26621e-50
2.48664e-51
2.68907e-52
2.86599e-53
3.01046e-54
3.11658e-55
3.1798e-56
3.19728e-57
3.16808e-58
3.09321e-59
2.97555e-60
2.81973e-61
2.63183e-62
2.41899e-63
2.18914e-64
1.95039e-65
1.71099e-66
1.4797e-67
3.50724e-14
7.76451e-12
2.22879e-10
3.80477e-09
4.15116e-08
3.28881e-07
2.0196e-06
1.00391e-05
4.25339e-05
0.000151874
0.000464264
0.00125595
0.00306775
0.00694644
0.0148859
0.0304365
0.0616647
0.124563
0.238715
0.410411
0.608341
0.754422
0.816181
0.842532
0.85444
0.859927
0.860421
0.848206
0.810835
0.70828
0.582873
0.492247
0.422712
0.388798
0.372785
0.364863
0.347024
0.308636
0.2516
0.194091
0.154323
0.129635
0.115266
0.108373
0.106276
0.113306
0.126467
0.150903
0.186541
0.219793
0.254355
0.313437
0.439258
0.520681
0.552291
0.557328
0.540154
0.459209
0.329307
0.281585
0.271432
0.282685
0.354471
0.574628
0.766237
0.882079
0.945264
0.97638
0.99044
0.996313
0.99861
0.999473
0.999796
0.99992
0.999969
0.999988
0.999996
0.999998
0.999999
0.999999
0.999997
0.999986
0.999934
0.999704
0.998745
0.994952
0.980749
0.930144
0.762492
0.507874
0.312628
0.18076
0.0986181
0.0509715
0.0250461
0.0117373
0.0052608
0.00226097
0.000933879
0.000371461
0.000142541
5.28516e-05
1.89616e-05
6.59066e-06
2.2218e-06
7.27163e-07
2.3126e-07
7.15263e-08
2.15302e-08
6.31171e-09
1.80316e-09
5.023e-10
1.36513e-10
3.62149e-11
9.38237e-12
2.37491e-12
5.87595e-13
1.42162e-13
3.36457e-14
7.79253e-15
1.76678e-15
3.92274e-16
8.5317e-17
1.81826e-17
3.79818e-18
7.77888e-19
1.56242e-19
3.0784e-20
5.95125e-21
1.12914e-21
2.103e-22
3.84571e-23
6.90721e-24
1.21934e-24
2.11595e-25
3.61e-26
6.05595e-27
9.99049e-28
1.62096e-28
2.58695e-29
4.06148e-30
6.27346e-31
9.5346e-32
1.42598e-32
2.09888e-33
3.04061e-34
4.3359e-35
6.08668e-36
8.41208e-37
1.14469e-37
1.53379e-38
2.02384e-39
2.62999e-40
3.36612e-41
4.24363e-42
5.26996e-43
6.44716e-44
7.77051e-45
9.22737e-46
1.07964e-46
1.24473e-47
1.41413e-48
1.58323e-49
1.74683e-50
1.89946e-51
2.03559e-52
2.15e-53
2.2381e-54
2.2962e-55
2.32176e-56
2.31359e-57
2.2719e-58
2.19833e-59
2.09581e-60
1.96842e-61
1.82112e-62
1.65958e-63
1.48961e-64
1.31728e-65
1.14919e-66
-4.49381e-15
1.9525e-12
8.72368e-11
1.36926e-09
1.60821e-08
1.35395e-07
8.94274e-07
4.87069e-06
2.23901e-05
8.68027e-05
0.000287813
0.000837002
0.00221879
0.00550548
0.0125872
0.0272245
0.0572866
0.117457
0.228915
0.399925
0.600384
0.752361
0.816372
0.842524
0.853362
0.855934
0.848309
0.815899
0.745464
0.63573
0.528205
0.458334
0.40266
0.375242
0.362475
0.347499
0.313963
0.257564
0.195182
0.146599
0.115477
0.0956771
0.0842018
0.0776493
0.0753174
0.0808359
0.0919438
0.109747
0.144592
0.192765
0.228932
0.270762
0.362498
0.483629
0.555561
0.568481
0.563443
0.508905
0.369098
0.285306
0.26095
0.259695
0.291276
0.442792
0.681359
0.838291
0.9242
0.966575
0.986097
0.994553
0.997982
0.999284
0.99975
0.999912
0.999967
0.999988
0.999995
0.999998
0.999999
1
1
0.999999
0.999995
0.999974
0.999871
0.999397
0.997361
0.989108
0.957483
0.841709
0.582907
0.363238
0.2117
0.11606
0.0601389
0.0295747
0.0138529
0.00619996
0.0026587
0.00109505
0.00043411
0.000165948
6.12711e-05
2.18811e-05
7.56766e-06
2.53759e-06
8.25818e-07
2.61065e-07
8.02363e-08
2.39929e-08
6.9853e-09
1.98135e-09
5.47862e-10
1.47762e-10
3.88923e-11
9.99522e-12
2.50931e-12
6.15666e-13
1.47689e-13
3.46529e-14
7.95584e-15
1.78792e-15
3.93439e-16
8.48043e-17
1.79105e-17
3.70749e-18
7.52417e-19
1.49749e-19
2.92354e-20
5.6002e-21
1.05282e-21
1.94291e-22
3.52091e-23
6.26947e-24
1.09711e-24
1.88705e-25
3.19073e-26
5.30433e-27
8.67093e-28
1.39396e-28
2.20415e-29
3.42836e-30
5.24613e-31
7.89855e-32
1.1702e-32
1.70616e-33
2.44836e-34
3.45834e-35
4.80882e-36
6.58308e-37
8.87316e-38
1.17767e-38
1.53924e-39
1.98132e-40
2.51193e-41
3.13688e-42
3.85884e-43
4.67643e-44
5.58341e-45
6.5681e-46
7.61311e-47
8.69541e-48
9.78692e-49
1.08555e-49
1.18664e-50
1.27841e-51
1.35742e-52
1.42055e-53
1.46521e-54
1.48951e-55
1.49237e-56
1.47363e-57
1.43401e-58
1.37514e-59
1.29942e-60
1.20986e-61
1.10998e-62
1.00348e-63
8.94253e-65
7.86656e-66
8.45743e-10
9.57902e-11
-6.23816e-12
3.6198e-10
4.48206e-09
4.6436e-08
3.61529e-07
2.10754e-06
1.04134e-05
4.36674e-05
0.000156431
0.000491023
0.00139843
0.00369517
0.00909063
0.0211806
0.046799
0.0994295
0.201189
0.364856
0.567158
0.734171
0.809725
0.839833
0.851015
0.851621
0.842605
0.808621
0.722359
0.595533
0.494096
0.431807
0.387554
0.366381
0.353614
0.337305
0.306144
0.252941
0.190568
0.141249
0.109449
0.0878249
0.0737509
0.0659922
0.0660819
0.0712892
0.0825175
0.0977479
0.128397
0.179232
0.220468
0.257169
0.333211
0.467061
0.555228
0.58215
0.577481
0.530209
0.385169
0.283154
0.250184
0.250101
0.275504
0.400796
0.652643
0.823873
0.917551
0.963593
0.984745
0.993948
0.997729
0.999191
0.999724
0.999908
0.99997
0.99999
0.999997
0.999999
1
1
1
1
1
0.999998
0.999987
0.999928
0.999641
0.998324
0.992652
0.969634
0.88099
0.634052
0.39691
0.23209
0.127356
0.0659377
0.0323607
0.0151144
0.00674108
0.00287934
0.00118077
0.000465889
0.000177198
6.50733e-05
2.31066e-05
7.94346e-06
2.64675e-06
8.55635e-07
2.68618e-07
8.19625e-08
2.43257e-08
7.02742e-09
1.9774e-09
5.42287e-10
1.45029e-10
3.78451e-11
9.64092e-12
2.3988e-12
5.83228e-13
1.38626e-13
3.2225e-14
7.32924e-15
1.63158e-15
3.55629e-16
7.59237e-17
1.58814e-17
3.2559e-18
6.54412e-19
1.28989e-19
2.49397e-20
4.73129e-21
8.80896e-22
1.61023e-22
2.89135e-23
5.10086e-24
8.84279e-25
1.50664e-25
2.52332e-26
4.15472e-27
6.72637e-28
1.0709e-28
1.67689e-29
2.58285e-30
3.91373e-31
5.83484e-32
8.55979e-33
1.23578e-33
1.75594e-34
2.45593e-35
3.38142e-36
4.58357e-37
6.11746e-38
8.03967e-39
1.04051e-39
1.32625e-40
1.66501e-41
2.05899e-42
2.50824e-43
3.01016e-44
3.55918e-45
4.14645e-46
4.75988e-47
5.38434e-48
6.00221e-49
6.59403e-50
7.13954e-51
7.61878e-52
8.01324e-53
8.30707e-54
8.48806e-55
8.54853e-56
8.48578e-57
8.30246e-58
8.00616e-59
7.60936e-60
7.12811e-61
6.5819e-62
5.99129e-63
5.37835e-64
4.7686e-65
0.000846442
8.1566e-05
6.70442e-06
6.11126e-07
5.63987e-08
2.65856e-08
1.03196e-07
7.5549e-07
4.15615e-06
1.87574e-05
7.24639e-05
0.000246087
0.000754053
0.00211947
0.00551751
0.0134285
0.0306475
0.0668881
0.142157
0.295844
0.497136
0.686661
0.78793
0.830852
0.846911
0.849034
0.843153
0.814762
0.735705
0.604767
0.499263
0.433804
0.389089
0.365449
0.352963
0.338881
0.31228
0.26495
0.205195
0.154339
0.120003
0.0969672
0.0815746
0.0723707
0.0722725
0.0748919
0.0833173
0.0979626
0.127094
0.17796
0.223666
0.257014
0.326899
0.464352
0.56532
0.597043
0.590987
0.537369
0.387541
0.280278
0.249087
0.249839
0.277706
0.400348
0.654954
0.829329
0.922787
0.967068
0.986285
0.994439
0.997841
0.999207
0.999726
0.999911
0.999972
0.999992
0.999998
0.999999
1
1
1
1
1
1
0.999999
0.999991
0.99995
0.999735
0.998703
0.994051
0.974358
0.895648
0.65599
0.410696
0.239758
0.131135
0.0676057
0.033019
0.015342
0.00680542
0.00289042
0.00117837
0.000462118
0.000174653
6.37165e-05
2.24698e-05
7.6695e-06
2.53656e-06
8.13725e-07
2.53434e-07
7.66968e-08
2.25712e-08
6.46416e-09
1.8028e-09
4.89929e-10
1.29818e-10
3.35577e-11