/*--------------------------------*- C++ -*----------------------------------*\
  =========                 |
  \\      /  F ield         | OpenFOAM: The Open Source CFD Toolbox
   \\    /   O peration     | Website:  https://openfoam.org
    \\  /    A nd           | Version:  7
     \\/     M anipulation  |
\*---------------------------------------------------------------------------*/
FoamFile
{
    version     2.0;
    format      ascii;
    class       volVectorField;
    location    "0.028";
    object      U;
}
// * * * * * * * * * * * * * * * * * * * * * * * * * * * * * * * * * * * * * //

dimensions      [0 1 -1 0 0 0 0];

internalField   nonuniform List<vector> 
12225
(
(4.6907 0.180488 0)
(4.08539 0.1028 0)
(3.61948 0.0892455 0)
(3.23683 0.0790289 0)
(2.88988 0.065407 0)
(2.58576 0.0558023 0)
(2.29954 0.0539898 0)
(2.01243 0.0520353 0)
(1.7397 0.0429946 0)
(1.50211 0.0302334 0)
(1.30567 0.01937 0)
(1.14941 0.0125564 0)
(1.02047 0.00883587 0)
(0.917558 0.00642443 0)
(0.821447 0.00539843 0)
(0.746202 0.00421707 0)
(0.658084 0.00895424 0)
(0.58491 0.0050763 0)
(5.04199 0.0976343 0)
(4.92742 0.0855625 0)
(4.7496 0.102721 0)
(4.63718 0.0980408 0)
(4.53835 0.0942906 0)
(4.41729 0.0903483 0)
(4.2803 0.0906633 0)
(4.14401 0.095688 0)
(4.01491 0.099198 0)
(3.88786 0.0963693 0)
(3.75397 0.0879371 0)
(3.61658 0.0777518 0)
(3.47594 0.068871 0)
(3.34877 0.0621386 0)
(3.22031 0.0584998 0)
(3.11169 0.0568785 0)
(2.99018 0.0634815 0)
(2.87833 0.0663962 0)
(5.01239 0.160112 0)
(4.8776 0.127595 0)
(4.77459 0.140426 0)
(4.72153 0.130877 0)
(4.68709 0.123996 0)
(4.64446 0.123284 0)
(4.59943 0.124967 0)
(4.56991 0.125413 0)
(4.55995 0.122434 0)
(4.55655 0.11711 0)
(4.54524 0.111857 0)
(4.51858 0.108512 0)
(4.47566 0.105504 0)
(4.41836 0.102029 0)
(4.35095 0.0993268 0)
(4.27468 0.0973079 0)
(4.20099 0.103425 0)
(4.1224 0.118383 0)
(4.97161 0.194503 0)
(4.86901 0.142632 0)
(4.74683 0.141632 0)
(4.69552 0.132005 0)
(4.68117 0.124946 0)
(4.67159 0.119823 0)
(4.65772 0.114598 0)
(4.64647 0.109959 0)
(4.64713 0.10511 0)
(4.65844 0.100766 0)
(4.67327 0.0987324 0)
(4.68318 0.0999151 0)
(4.68398 0.10345 0)
(4.67106 0.107959 0)
(4.64701 0.113377 0)
(4.61166 0.118903 0)
(4.57545 0.12924 0)
(4.53823 0.143306 0)
(4.93869 0.187978 0)
(4.86098 0.167724 0)
(4.81688 0.163272 0)
(4.79393 0.148118 0)
(4.77079 0.135605 0)
(4.74739 0.130849 0)
(4.72465 0.128519 0)
(4.70398 0.123255 0)
(4.69018 0.11372 0)
(4.68452 0.104012 0)
(4.68506 0.0992531 0)
(4.68871 0.101301 0)
(4.69278 0.108427 0)
(4.69303 0.117284 0)
(4.68735 0.125979 0)
(4.67431 0.133393 0)
(4.657 0.141724 0)
(4.63859 0.151921 0)
(4.94869 0.253052 0)
(4.83589 0.188129 0)
(4.80088 0.144136 0)
(4.7959 0.141836 0)
(4.7926 0.142455 0)
(4.79738 0.137075 0)
(4.80363 0.129825 0)
(4.79463 0.123712 0)
(4.76596 0.117006 0)
(4.72772 0.109044 0)
(4.69444 0.102452 0)
(4.67509 0.100358 0)
(4.67052 0.103852 0)
(4.67443 0.111929 0)
(4.67973 0.123031 0)
(4.68092 0.135259 0)
(4.67729 0.148199 0)
(4.67117 0.160792 0)
(4.9252 0.299974 0)
(4.90179 0.202471 0)
(4.83071 0.158743 0)
(4.79606 0.152041 0)
(4.79237 0.142675 0)
(4.78461 0.131671 0)
(4.76234 0.129013 0)
(4.73523 0.133876 0)
(4.71481 0.13623 0)
(4.70489 0.130019 0)
(4.70278 0.118575 0)
(4.70404 0.109346 0)
(4.70543 0.107242 0)
(4.70504 0.112866 0)
(4.70159 0.123483 0)
(4.69534 0.135909 0)
(4.68768 0.147451 0)
(4.68062 0.156593 0)
(4.94849 0.312553 0)
(4.91875 0.224769 0)
(4.83237 0.170439 0)
(4.80801 0.151 0)
(4.8116 0.147518 0)
(4.80733 0.149488 0)
(4.78889 0.148766 0)
(4.76876 0.142447 0)
(4.75822 0.130765 0)
(4.75765 0.116704 0)
(4.76128 0.105211 0)
(4.7647 0.100624 0)
(4.76705 0.104083 0)
(4.76789 0.114318 0)
(4.7673 0.12839 0)
(4.76306 0.143123 0)
(4.75693 0.156633 0)
(4.74646 0.166275 0)
(4.97876 0.329192 0)
(4.9261 0.246551 0)
(4.88853 0.183844 0)
(4.85071 0.153153 0)
(4.81044 0.143249 0)
(4.78629 0.14425 0)
(4.7794 0.148085 0)
(4.77944 0.14852 0)
(4.77801 0.141724 0)
(4.77253 0.128621 0)
(4.76503 0.114343 0)
(4.75874 0.104992 0)
(4.7569 0.104298 0)
(4.7586 0.112321 0)
(4.76391 0.126456 0)
(4.76905 0.142614 0)
(4.77618 0.157611 0)
(4.78206 0.168348 0)
(4.87806 0.345386 0)
(4.91311 0.240886 0)
(4.88414 0.194454 0)
(4.85528 0.18322 0)
(4.82675 0.17661 0)
(4.80651 0.163646 0)
(4.80057 0.148719 0)
(4.80654 0.1375 0)
(4.81706 0.129548 0)
(4.82417 0.121782 0)
(4.82373 0.113591 0)
(4.81668 0.107548 0)
(4.80816 0.10673 0)
(4.8028 0.112157 0)
(4.80356 0.122639 0)
(4.80995 0.135218 0)
(4.82084 0.146936 0)
(4.83286 0.155761 0)
(4.89336 0.290159 0)
(4.90251 0.236457 0)
(4.8927 0.198477 0)
(4.90026 0.172539 0)
(4.90335 0.161597 0)
(4.8939 0.157847 0)
(4.87664 0.153671 0)
(4.85953 0.147006 0)
(4.84826 0.138238 0)
(4.84314 0.128321 0)
(4.84107 0.118913 0)
(4.83838 0.112255 0)
(4.83439 0.110018 0)
(4.82967 0.113035 0)
(4.82621 0.120487 0)
(4.82434 0.130551 0)
(4.82478 0.141287 0)
(4.82636 0.150536 0)
(4.92783 0.294482 0)
(4.9293 0.231368 0)
(4.91584 0.195905 0)
(4.90177 0.180475 0)
(4.88125 0.178745 0)
(4.86513 0.174598 0)
(4.86264 0.162649 0)
(4.8686 0.147092 0)
(4.87336 0.132875 0)
(4.87161 0.122337 0)
(4.86391 0.115924 0)
(4.8541 0.113561 0)
(4.84724 0.11508 0)
(4.84518 0.120142 0)
(4.84928 0.127661 0)
(4.85658 0.136334 0)
(4.86752 0.14451 0)
(4.87786 0.151123 0)
(4.95598 0.278049 0)
(4.94296 0.233448 0)
(4.96256 0.206315 0)
(4.96547 0.19009 0)
(4.93966 0.178147 0)
(4.91133 0.166295 0)
(4.90278 0.1548 0)
(4.91124 0.146829 0)
(4.92272 0.14249 0)
(4.92746 0.138159 0)
(4.92336 0.130823 0)
(4.91325 0.121099 0)
(4.90147 0.112439 0)
(4.89103 0.108305 0)
(4.88464 0.109989 0)
(4.88237 0.11658 0)
(4.88538 0.125326 0)
(4.8922 0.134371 0)
(4.92207 0.319569 0)
(4.91166 0.212273 0)
(4.94889 0.164105 0)
(4.98442 0.182058 0)
(4.98093 0.205727 0)
(4.95338 0.197332 0)
(4.93142 0.164626 0)
(4.92704 0.132507 0)
(4.93668 0.116183 0)
(4.9514 0.115314 0)
(4.96251 0.122273 0)
(4.96474 0.13022 0)
(4.95817 0.136285 0)
(4.9462 0.139783 0)
(4.93511 0.141052 0)
(4.9283 0.140659 0)
(4.92963 0.138446 0)
(4.93697 0.135956 0)
(5.06046 0.312168 0)
(5.02066 0.233905 0)
(4.96584 0.182302 0)
(4.94181 0.188685 0)
(4.94956 0.201649 0)
(4.97193 0.193982 0)
(4.98584 0.170305 0)
(4.98016 0.145632 0)
(4.96179 0.12966 0)
(4.94387 0.122931 0)
(4.93478 0.121724 0)
(4.93531 0.122414 0)
(4.94283 0.123114 0)
(4.95395 0.122517 0)
(4.96652 0.120167 0)
(4.97882 0.116591 0)
(4.99051 0.112282 0)
(5.0004 0.109913 0)
(4.94248 0.306481 0)
(4.9016 0.253476 0)
(4.87727 0.19318 0)
(4.89015 0.171565 0)
(4.92431 0.165597 0)
(4.9496 0.162367 0)
(4.95267 0.160144 0)
(4.9423 0.157327 0)
(4.93482 0.151439 0)
(4.93878 0.142213 0)
(4.95259 0.131858 0)
(4.96971 0.12328 0)
(4.98472 0.118001 0)
(4.99529 0.115846 0)
(5.00161 0.115172 0)
(5.00468 0.114904 0)
(5.00579 0.114205 0)
(5.00584 0.113833 0)
(5.07777 0.302308 0)
(5.03683 0.29063 0)
(4.99552 0.222474 0)
(4.97925 0.171153 0)
(4.96534 0.163067 0)
(4.95356 0.175929 0)
(4.94376 0.178563 0)
(4.93901 0.158196 0)
(4.94357 0.124016 0)
(4.95689 0.0934164 0)
(4.97434 0.077544 0)
(4.99135 0.0771424 0)
(5.00565 0.0862651 0)
(5.01642 0.0974454 0)
(5.02417 0.105448 0)
(5.02931 0.109004 0)
(5.0332 0.108833 0)
(5.03639 0.108056 0)
(4.9574 0.330441 0)
(4.96745 0.301753 0)
(4.98841 0.227444 0)
(4.98157 0.17647 0)
(4.96202 0.170639 0)
(4.96092 0.18075 0)
(4.97432 0.179536 0)
(4.98625 0.161447 0)
(4.99112 0.134525 0)
(4.99069 0.108615 0)
(4.98867 0.0901263 0)
(4.98841 0.0814422 0)
(4.99186 0.0816404 0)
(4.99847 0.0876147 0)
(5.00676 0.0949063 0)
(5.01525 0.100729 0)
(5.02359 0.1029 0)
(5.03201 0.102272 0)
(4.97496 0.273008 0)
(4.99976 0.242755 0)
(5.00712 0.242645 0)
(4.98552 0.234091 0)
(4.95569 0.205667 0)
(4.94715 0.170916 0)
(4.9584 0.143072 0)
(4.97804 0.124249 0)
(4.99999 0.108826 0)
(5.02008 0.0929016 0)
(5.03502 0.0778803 0)
(5.04433 0.0673485 0)
(5.05015 0.0630662 0)
(5.05478 0.0638737 0)
(5.05969 0.0659814 0)
(5.06525 0.0667577 0)
(5.07177 0.0640955 0)
(5.07874 0.0590024 0)
(4.96941 0.230467 0)
(4.93836 0.2214 0)
(4.94875 0.234351 0)
(4.97419 0.228815 0)
(5.00091 0.205879 0)
(5.02099 0.168898 0)
(5.03482 0.126113 0)
(5.04389 0.0879388 0)
(5.05 0.0613756 0)
(5.05383 0.0483762 0)
(5.05516 0.0469756 0)
(5.05511 0.053102 0)
(5.05626 0.0618003 0)
(5.06033 0.0694884 0)
(5.06752 0.0737988 0)
(5.07645 0.0744079 0)
(5.08639 0.0714216 0)
(5.09577 0.0658856 0)
(4.87524 0.23356 0)
(4.89587 0.219973 0)
(4.94774 0.203931 0)
(5.01191 0.194506 0)
(5.05934 0.175124 0)
(5.08932 0.144866 0)
(5.10449 0.114985 0)
(5.10639 0.0934792 0)
(5.09962 0.0809646 0)
(5.09147 0.0730029 0)
(5.08842 0.065541 0)
(5.09299 0.0574099 0)
(5.10447 0.0490761 0)
(5.11967 0.0415419 0)
(5.1359 0.0351021 0)
(5.15033 0.0296148 0)
(5.16333 0.0244171 0)
(5.17363 0.0187833 0)
(4.86501 0.176462 0)
(4.91351 0.110496 0)
(4.94519 0.10802 0)
(4.9937 0.117805 0)
(5.03274 0.122327 0)
(5.05233 0.116321 0)
(5.06229 0.10697 0)
(5.07621 0.0986041 0)
(5.09981 0.0882543 0)
(5.13067 0.0728442 0)
(5.16389 0.0540016 0)
(5.19536 0.0372144 0)
(5.22302 0.0271295 0)
(5.24596 0.0244416 0)
(5.26456 0.0263186 0)
(5.27897 0.0291295 0)
(5.29094 0.0298755 0)
(5.30027 0.026805 0)
(4.98886 0.220198 0)
(4.9351 0.138085 0)
(4.94096 0.11213 0)
(4.98495 0.113078 0)
(5.03815 0.121539 0)
(5.08139 0.111903 0)
(5.11188 0.0816508 0)
(5.13688 0.0454903 0)
(5.16182 0.0157855 0)
(5.18633 -0.0038689 0)
(5.20861 -0.0145891 0)
(5.22904 -0.0189323 0)
(5.24892 -0.0191965 0)
(5.26893 -0.0167266 0)
(5.28988 -0.0129757 0)
(5.31066 -0.00977157 0)
(5.3306 -0.00838876 0)
(5.34718 -0.0101114 0)
(4.94511 0.247767 0)
(5.00815 0.133737 0)
(5.06345 0.0671515 0)
(5.11524 0.0590276 0)
(5.16518 0.0662092 0)
(5.20456 0.0693049 0)
(5.22718 0.0656342 0)
(5.23655 0.056125 0)
(5.23992 0.0420962 0)
(5.24233 0.0246457 0)
(5.24571 0.00656319 0)
(5.24993 -0.0086964 0)
(5.25592 -0.019055 0)
(5.26499 -0.0241982 0)
(5.27777 -0.0249734 0)
(5.29378 -0.0227845 0)
(5.31212 -0.019171 0)
(5.33128 -0.0149391 0)
(4.93332 0.19852 0)
(5.02259 0.0694583 0)
(5.0905 0.0265588 0)
(5.13638 0.0332945 0)
(5.16937 0.0458684 0)
(5.20022 0.0484057 0)
(5.23154 0.0403612 0)
(5.26469 0.0254084 0)
(5.29805 0.0079645 0)
(5.32719 -0.00751535 0)
(5.34933 -0.0202783 0)
(5.36344 -0.03033 0)
(5.36944 -0.0375068 0)
(5.36873 -0.0426659 0)
(5.364 -0.0467691 0)
(5.35803 -0.0501797 0)
(5.35307 -0.0531397 0)
(5.35028 -0.0553327 0)
(5.07163 0.197486 0)
(5.12376 0.0532538 0)
(5.14152 0.0250529 0)
(5.15427 0.0385836 0)
(5.18576 0.0456375 0)
(5.2359 0.0401726 0)
(5.29195 0.0292546 0)
(5.34176 0.0155583 0)
(5.38027 0.000548016 0)
(5.40673 -0.0123233 0)
(5.42307 -0.0204202 0)
(5.43281 -0.0232662 0)
(5.43862 -0.0220009 0)
(5.44181 -0.0186957 0)
(5.44403 -0.0154788 0)
(5.44617 -0.0137568 0)
(5.44945 -0.0139083 0)
(5.45337 -0.0155914 0)
(5.04624 0.162489 0)
(5.12984 0.0222456 0)
(5.18591 0.00815756 0)
(5.2305 0.00515954 0)
(5.2802 -0.0102688 0)
(5.32818 -0.023913 0)
(5.36162 -0.0293427 0)
(5.37956 -0.0309124 0)
(5.38997 -0.0334844 0)
(5.39964 -0.0379835 0)
(5.41265 -0.0420613 0)
(5.4306 -0.0444499 0)
(5.45236 -0.0455364 0)
(5.47451 -0.0465116 0)
(5.49381 -0.0485063 0)
(5.50819 -0.0517121 0)
(5.51784 -0.0557989 0)
(5.52315 -0.0596145 0)
(4.98089 0.120046 0)
(5.13093 0.0351498 0)
(5.26023 0.0210822 0)
(5.31893 0.00621894 0)
(5.3375 -0.00342282 0)
(5.35039 -0.00412119 0)
(5.37621 -0.000338773 0)
(5.41657 -0.000335789 0)
(5.46097 -0.00880779 0)
(5.49638 -0.0230841 0)
(5.51725 -0.0369436 0)
(5.52786 -0.0458105 0)
(5.53623 -0.0483433 0)
(5.5478 -0.045522 0)
(5.56389 -0.0396699 0)
(5.58283 -0.0334783 0)
(5.60235 -0.02867 0)
(5.61974 -0.0271364 0)
(5.01773 -0.0305967 0)
(5.21245 -0.0682223 0)
(5.35326 -0.035578 0)
(5.40802 -0.0332767 0)
(5.42687 -0.0377971 0)
(5.44032 -0.0466369 0)
(5.45754 -0.0583913 0)
(5.47559 -0.0673119 0)
(5.48856 -0.069366 0)
(5.49145 -0.0657718 0)
(5.48281 -0.0609135 0)
(5.46606 -0.0589318 0)
(5.44579 -0.061036 0)
(5.42614 -0.0657492 0)
(5.40882 -0.0707464 0)
(5.39502 -0.0744789 0)
(5.38318 -0.0763511 0)
(5.37351 -0.0765879 0)
(5.00067 0.0404705 0)
(5.11142 -0.0136805 0)
(5.01997 -0.0225147 0)
(4.87175 -0.0244927 0)
(4.75603 -0.0200218 0)
(4.66228 -0.0155168 0)
(4.56327 -0.0142535 0)
(4.45049 -0.0159718 0)
(4.33164 -0.019552 0)
(4.21515 -0.023477 0)
(4.10414 -0.0263224 0)
(3.99843 -0.0274532 0)
(3.89571 -0.0270137 0)
(3.79446 -0.0256553 0)
(3.69338 -0.0241088 0)
(3.59469 -0.0229042 0)
(3.49825 -0.0220936 0)
(3.40807 -0.0218412 0)
(0.0206348 -0.0617369 1.62681e-20)
(0.0691013 -0.0826455 -1.61495e-20)
(0.123262 -0.0838082 0)
(0.173353 -0.0817894 0)
(0.220926 -0.0792711 0)
(0.265672 -0.076756 1.56548e-20)
(0.307409 -0.0739776 0)
(0.34589 -0.0708313 0)
(0.380644 -0.0671692 0)
(0.411006 -0.0629536 0)
(0.436135 -0.0583066 -1.5031e-20)
(0.454918 -0.0532808 0)
(0.466578 -0.0481125 0)
(0.46987 -0.0430139 0)
(0.463391 -0.0379083 0)
(0.445798 -0.0316369 -1.44062e-20)
(0.415346 -0.0226243 0)
(0.369739 -0.00943022 0)
(0.306528 0.00884737 0)
(0.223529 0.0321641 0)
(0.119206 0.0593228 0)
(-0.00510421 0.0881951 0)
(-0.148871 0.115715 0)
(-0.311446 0.140168 -1.3435e-20)
(-0.489665 0.160403 1.33027e-20)
(-0.680863 0.176561 -1.31673e-20)
(-0.882344 0.189196 -1.30286e-20)
(-1.09184 0.198775 0)
(-1.30729 0.205597 0)
(-1.52678 0.209855 1.25921e-20)
(-1.74837 0.211642 1.24402e-20)
(-1.97012 0.210977 0)
(-2.18999 0.207867 0)
(-2.4059 0.202357 1.19712e-20)
(-2.61563 0.194554 0)
(-2.81696 0.184578 0)
(-3.0076 0.172514 -1.14984e-20)
(-3.18524 0.15848 0)
(-3.3476 0.142709 -1.11954e-20)
(-3.49254 0.125499 -2.21029e-20)
(-3.61817 0.10713 0)
(-3.72281 0.0878761 0)
(-3.80505 0.0681266 0)
(-3.86397 0.0484222 0)
(-3.89906 0.0293667 0)
(-3.91004 0.0114376 -2.07313e-20)
(-3.89749 -0.00510685 -2.05717e-20)
(-3.86472 -0.0202198 -2.04317e-20)
(-3.81146 -0.0340011 0)
(-3.74004 -0.0463996 2.02034e-20)
(-3.65175 -0.057382 0)
(-3.54849 -0.0669224 -2.00291e-20)
(-3.43198 -0.0751156 -1.99563e-20)
(-3.30384 -0.0820233 0)
(-3.16563 -0.0877751 0)
(-3.01869 -0.0925129 0)
(-2.86424 -0.0963561 -1.971e-20)
(-2.70335 -0.0994189 0)
(-2.53698 -0.101769 0)
(-2.36608 -0.10344 0)
(-2.1916 -0.104434 0)
(-2.01454 -0.104734 0)
(-1.83595 -0.104319 0)
(-1.65693 -0.103179 0)
(-1.47861 -0.101326 0)
(-1.30211 -0.0987924 1.90385e-20)
(-1.12852 -0.0956422 0)
(-0.958837 -0.0919623 0)
(-0.793948 -0.0878309 -1.87004e-20)
(-0.634581 -0.0833751 -1.85734e-20)
(-0.481325 -0.0787024 0)
(-0.334617 -0.0738849 1.83004e-20)
(-0.194709 -0.0689622 -1.81556e-20)
(-0.0618462 -0.0640545 0)
(0.0632056 -0.059652 1.78467e-20)
(0.181157 -0.055032 0)
(0.29282 -0.0506143 0)
(0.397874 -0.046402 -1.73457e-20)
(0.496532 -0.0424052 0)
(0.589035 -0.03863 1.70036e-20)
(0.675646 -0.0350772 0)
(0.756638 -0.0317436 -1.66587e-20)
(0.832284 -0.0286227 -1.64859e-20)
(0.902852 -0.0257061 -1.63132e-20)
(0.968604 -0.0229842 -3.22815e-20)
(1.02979 -0.0204469 3.19375e-20)
(1.08664 -0.018084 0)
(1.13938 -0.0158859 0)
(1.18822 -0.0138434 0)
(1.23337 -0.0119481 3.05752e-20)
(1.275 -0.0101927 3.0239e-20)
(1.31329 -0.00857079 -2.99047e-20)
(1.34841 -0.00707673 0)
(1.38054 -0.00570578 2.92423e-20)
(1.40981 -0.00445369 2.89144e-20)
(1.4364 -0.00331661 2.85886e-20)
(1.46045 -0.00229078 0)
(1.48211 -0.00137236 0)
(1.50153 -0.00055743 0)
(1.51886 0.000158499 2.73083e-20)
(1.53425 0.000779909 0)
(1.54783 0.00131202 0)
(1.55974 0.00176037 -2.63719e-20)
(1.57013 0.00213032 0)
(1.57911 0.00242906 0)
(1.58682 0.00266152 -2.54559e-20)
(1.59337 0.00283648 0)
(1.59887 0.00296295 0)
(1.60344 0.00304557 2.45598e-20)
(1.60716 0.00309668 2.42654e-20)
(1.61013 0.00311307 0)
(1.61246 0.0031054 -2.36831e-20)
(1.61416 0.00309621 0)
(1.61529 0.00307748 2.31091e-20)
(1.61593 0.00303848 0)
(1.61615 0.00297955 2.25432e-20)
(1.61599 0.0029073 2.22634e-20)
(1.61551 0.00282589 0)
(1.61476 0.00273594 0)
(1.61378 0.00264334 0)
(1.61259 0.00255491 0)
(1.61124 0.00246496 0)
(1.60974 0.00236386 0)
(1.60812 0.00225993 0)
(1.6064 0.00216191 2.00939e-20)
(1.60458 0.00207097 -1.98311e-20)
(1.60268 0.00198665 0)
(1.60071 0.00190842 0)
(1.59868 0.00183579 0)
(1.59659 0.00176749 0)
(1.59446 0.0017007 -3.70872e-20)
(1.59231 0.00163248 0)
(1.59014 0.00156153 3.60812e-20)
(1.58796 0.00148892 -3.55833e-20)
(1.5858 0.00141752 0)
(1.58366 0.00135069 0)
(1.58155 0.0012909 0)
(1.57945 0.00123889 3.3624e-20)
(1.57737 0.00119388 3.31422e-20)
(1.5753 0.00115424 0)
(1.57324 0.00111835 3.21878e-20)
(1.57118 0.00108505 3.17152e-20)
(1.56912 0.00105375 -3.12457e-20)
(1.56706 0.00102432 0)
(1.565 0.000996832 0)
(1.56293 0.000971481 -2.98548e-20)
(1.56085 0.000948412 0)
(1.55876 0.000927698 0)
(1.55666 0.000909331 0)
(1.55454 0.000893264 0)
(1.55241 0.000879431 2.7594e-20)
(1.55026 0.000867822 2.71502e-20)
(1.54809 0.000858426 0)
(1.54589 0.000851374 2.62706e-20)
(1.54366 0.000846716 0)
(1.5414 0.000844772 0)
(1.53909 0.000845666 2.4971e-20)
(1.53674 0.000849985 0)
(1.53432 0.000858045 2.41174e-20)
(1.53184 0.000870781 0)
(1.52925 0.000888959 0)
(1.52659 0.000913881 2.2856e-20)
(1.52376 0.000947431 0)
(1.52083 0.000990886 2.20274e-20)
(1.51761 0.00104946 0)
(1.51429 0.00112196 0)
(1.51042 0.0012246 0)
(1.50649 0.00134135 -2.03998e-20)
(1.50154 0.00152636 0)
(1.49665 0.0017065 1.96011e-20)
(1.48985 0.00206292 0)
(1.48327 0.00231883 0)
(1.47336 0.00308357 0)
(1.46326 0.00336369 0)
(1.44848 0.00524143 0)
(1.42938 0.00519077 0)
(1.40867 0.0104722 0)
(1.36182 0.00860299 -3.30731e-20)
(1.34127 0.0260781 0)
(1.19371 0.0196055 0)
(0.00960426 -0.130036 -4.88203e-20)
(0.0146635 -0.145776 4.84701e-20)
(0.0191228 -0.137606 0)
(0.019887 -0.126716 -3.18353e-20)
(0.0186384 -0.115525 0)
(0.0139155 -0.104388 -1.56669e-20)
(0.00559765 -0.0929358 3.11057e-20)
(-0.00717733 -0.0805462 3.086e-20)
(-0.024925 -0.0665503 0)
(-0.0487911 -0.0502431 3.03635e-20)
(-0.0793353 -0.0309345 1.50469e-20)
(-0.117323 -0.00837711 0)
(-0.164359 0.0177502 0)
(-0.221498 0.0477372 0)
(-0.290045 0.0818845 0)
(-0.371061 0.120537 1.44122e-20)
(-0.465097 0.163541 0)
(-0.572063 0.210021 -2.83305e-20)
(-0.691153 0.258353 0)
(-0.821056 0.306411 0)
(-0.960363 0.352081 2.75575e-20)
(-1.10767 0.393721 0)
(-1.26157 0.429627 -2.70358e-20)
(-1.42067 0.459516 1.33914e-20)
(-1.58388 0.483273 -1.32599e-20)
(-1.75017 0.501253 1.31259e-20)
(-1.91844 0.513898 1.29889e-20)
(-2.08772 0.521636 0)
(-2.25706 0.524807 0)
(-2.4256 0.523674 -1.25587e-20)
(-2.59246 0.518402 1.23632e-20)
(-2.75677 0.509072 0)
(-2.91755 0.495697 0)
(-3.07372 0.478239 -1.19475e-20)
(-3.22412 0.456612 0)
(-3.36752 0.430676 0)
(-3.50262 0.400344 1.14815e-20)
(-3.62799 0.365705 0)
(-3.742 0.327018 -1.1116e-20)
(-3.84288 0.284632 2.20806e-20)
(-3.92888 0.238977 0)
(-3.9985 0.190656 0)
(-4.05044 0.140472 4.24948e-20)
(-4.08367 0.0894037 4.20611e-20)
(-4.09758 0.0385777 4.16699e-20)
(-4.09209 -0.0108805 -2.05961e-20)
(-4.06722 -0.0579992 2.05639e-20)
(-4.02113 -0.10201 6.1159e-20)
(-3.95629 -0.142411 -4.04993e-20)
(-3.87327 -0.178834 -2.0195e-20)
(-3.77411 -0.211098 0)
(-3.66042 -0.239165 2.00206e-20)
(-3.53404 -0.263197 -1.98771e-20)
(-3.39665 -0.283466 0)
(-3.24973 -0.300356 0)
(-3.09463 -0.314287 0)
(-2.93243 -0.32566 1.97019e-20)
(-2.76408 -0.334808 0)
(-2.59044 -0.341943 -3.9124e-20)
(-2.4123 -0.347155 0)
(-2.23052 -0.350433 -3.88711e-20)
(-2.04602 -0.351699 0)
(-1.85984 -0.350852 3.8581e-20)
(-1.67308 -0.347839 0)
(-1.48685 -0.342677 -3.82407e-20)
(-1.3023 -0.335468 1.90159e-20)
(-1.12055 -0.326386 0)
(-0.94261 -0.315662 3.76197e-20)
(-0.769329 -0.303601 1.86965e-20)
(-0.601445 -0.290557 1.857e-20)
(-0.439501 -0.276751 0)
(-0.283847 -0.262574 1.82913e-20)
(-0.134743 -0.248156 1.8154e-20)
(0.006984 -0.233877 0)
(0.141568 -0.220289 -1.78411e-20)
(0.269863 -0.206693 3.53486e-20)
(0.391799 -0.193604 0)
(0.50752 -0.181082 1.73401e-20)
(0.617238 -0.169167 0)
(0.721205 -0.157875 -5.09904e-20)
(0.819692 -0.147208 0)
(0.912977 -0.137153 4.99555e-20)
(1.00134 -0.127691 1.648e-20)
(1.08503 -0.118793 -1.63043e-20)
(1.16433 -0.11043 -3.22639e-20)
(1.23946 -0.10257 3.192e-20)
(1.31066 -0.0951787 0)
(1.37813 -0.0882259 0)
(1.44208 -0.0816811 0)
(1.50267 -0.0755168 -9.16806e-20)
(1.56007 -0.069708 -3.02249e-20)
(1.61444 -0.0642332 2.98902e-20)
(1.6659 -0.0590736 0)
(1.7146 -0.0542136 2.92245e-20)
(1.76065 -0.0496401 -2.8899e-20)
(1.80417 -0.045342 -2.85729e-20)
(1.84525 -0.04131 0)
(1.88401 -0.0375356 0)
(1.92054 -0.0340112 0)
(1.95493 -0.0307293 -2.72914e-20)
(1.98728 -0.0276823 0)
(2.01768 -0.0248621 5.33273e-20)
(2.04621 -0.0222604 7.90617e-20)
(2.07296 -0.0198685 -5.20919e-20)
(2.09801 -0.0176766 0)
(2.12144 -0.0156763 -2.54367e-20)
(2.14332 -0.0138576 0)
(2.16374 -0.0122074 -4.96751e-20)
(2.18277 -0.0107149 2.45406e-20)
(2.20047 -0.00936414 2.42462e-20)
(2.21693 -0.00814698 0)
(2.23219 -0.00705242 7.09931e-20)
(2.24635 -0.00605994 -4.67525e-20)
(2.25949 -0.00516831 -2.30906e-20)
(2.27166 -0.00437985 0)
(2.28293 -0.00368673 -2.25249e-20)
(2.29332 -0.00307723 -6.6735e-20)
(2.30291 -0.00254405 0)
(2.31173 -0.00207794 -4.33828e-20)
(2.31983 -0.0016689 -4.28351e-20)
(2.32727 -0.00131447 -4.22913e-20)
(2.33408 -0.00100728 0)
(2.34029 -0.000728666 0)
(2.34595 -0.000475572 0)
(2.35109 -0.000253414 2.00768e-20)
(2.35575 -6.02213e-05 1.98143e-20)
(2.35996 0.000106806 0)
(2.36377 0.000252918 3.85889e-20)
(2.36721 0.000378319 3.80744e-20)
(2.3703 0.000483824 0)
(2.37307 0.000570819 3.70559e-20)
(2.37556 0.000639602 7.31034e-20)
(2.37779 0.000690393 -3.6051e-20)
(2.37977 0.000724716 -3.55534e-20)
(2.38154 0.000745059 0)
(2.38312 0.000754665 0)
(2.38451 0.000757289 0)
(2.38575 0.000756441 -3.35962e-20)
(2.38684 0.00075499 3.31148e-20)
(2.38781 0.000754829 6.52733e-20)
(2.38866 0.000756923 -3.21616e-20)
(2.38941 0.000761389 3.16894e-20)
(2.39006 0.000767819 3.12204e-20)
(2.3906 0.000775556 0)
(2.39105 0.000783959 0)
(2.3914 0.000792581 -2.9831e-20)
(2.39165 0.000801208 0)
(2.39182 0.000809843 0)
(2.39189 0.000818618 5.69352e-20)
(2.39189 0.000827767 0)
(2.39181 0.000837558 2.75727e-20)
(2.39165 0.00084836 -2.71293e-20)
(2.39143 0.00086055 0)
(2.39114 0.000874683 2.62506e-20)
(2.39078 0.000891309 0)
(2.39036 0.000911243 0)
(2.38987 0.000935354 -2.49524e-20)
(2.38932 0.000964755 4.90495e-20)
(2.3887 0.00100104 -2.40997e-20)
(2.388 0.0010455 0)
(2.38721 0.00110158 0)
(2.38635 0.00116974 2.28394e-20)
(2.38535 0.00125851 0)
(2.38426 0.00136355 2.20116e-20)
(2.38297 0.00150815 0)
(2.38156 0.00166961 0)
(2.37983 0.00191483 0)
(2.37792 0.00216096 2.03856e-20)
(2.3755 0.00260205 0)
(2.37279 0.0029631 -1.95876e-20)
(2.36925 0.0038148 0)
(2.36511 0.00429719 0)
(2.3598 0.00608074 3.68206e-20)
(2.35275 0.00658199 -3.60482e-20)
(2.34489 0.0106622 0)
(2.33103 0.0107518 0)
(2.32037 0.0210162 0)
(2.28843 0.0197637 9.91303e-20)
(2.27873 0.0486293 0)
(2.19634 0.0473898 -6.32082e-20)
(-0.00623805 -0.104838 -2.74108e-23)
(-0.046577 -0.0954868 -6.46613e-20)
(-0.084943 -0.0853237 0)
(-0.1257 -0.0725729 6.36819e-20)
(-0.167551 -0.058463 0)
(-0.211824 -0.0421614 0)
(-0.25881 -0.0236156 2.97362e-23)
(-0.309397 -0.00227985 -3.08325e-20)
(-0.364124 0.0222659 -3.06126e-20)
(-0.423381 0.0506139 -3.0329e-20)
(-0.487963 0.0834193 0)
(-0.55861 0.120797 0)
(-0.635482 0.162727 2.95975e-20)
(-0.718732 0.209049 5.86822e-20)
(-0.808257 0.25945 -5.81677e-20)
(-0.903627 0.313217 0)
(-1.00416 0.369345 -5.71343e-20)
(-1.10902 0.426496 2.82818e-20)
(-1.21727 0.483077 0)
(-1.32789 0.537353 -5.55728e-20)
(-1.43994 0.587674 -2.75136e-20)
(-1.55292 0.632743 5.45195e-20)
(-1.66689 0.671571 2.6998e-20)
(-1.78224 0.703698 0)
(-1.8994 0.729093 -5.29001e-20)
(-2.01888 0.74808 -5.23441e-20)
(-2.14111 0.76113 0)
(-2.26646 0.768692 -5.12008e-20)
(-2.39517 0.771117 0)
(-2.52734 0.768626 -5.00128e-20)
(-2.66287 0.761285 -2.47589e-20)
(-2.80145 0.749005 0)
(-2.9425 0.731569 0)
(-3.08514 0.708638 0)
(-3.22807 0.67977 0)
(-3.3695 0.644489 0)
(-3.50714 0.602394 0)
(-3.63835 0.553251 -4.49918e-20)
(-3.76035 0.497057 6.66801e-20)
(-3.87023 0.434093 0)
(-3.96521 0.364944 0)
(-4.04277 0.290543 0)
(-4.10081 0.212182 -2.20871e-22)
(-4.1376 0.13145 -4.20539e-20)
(-4.15206 0.0501537 -8.31124e-20)
(-4.14381 -0.0298458 8.24164e-20)
(-4.11294 -0.106852 4.07992e-20)
(-4.0605 -0.179375 -4.07264e-20)
(-3.98805 -0.24612 1.75129e-22)
(-3.89746 -0.306236 -4.0124e-20)
(-3.79069 -0.359256 0)
(-3.66985 -0.405106 -3.98196e-20)
(-3.537 -0.444039 1.1903e-22)
(-3.39404 -0.47661 0)
(-3.24259 -0.503539 0)
(-3.08399 -0.525623 3.93654e-20)
(-2.91924 -0.543633 0)
(-2.74911 -0.558187 0)
(-2.57421 -0.569665 -3.89705e-20)
(-2.39513 -0.57819 -7.78475e-20)
(-2.21257 -0.583687 3.88583e-20)
(-2.02736 -0.585948 0)
(-1.84054 -0.584724 -3.85682e-20)
(-1.65326 -0.57985 0)
(-1.46678 -0.571317 -3.81585e-20)
(-1.28234 -0.559274 -3.8037e-20)
(-1.10111 -0.544019 7.56107e-20)
(-0.924098 -0.525982 3.75663e-20)
(-0.752162 -0.505717 0)
(-0.585945 -0.483757 -7.42111e-20)
(-0.425916 -0.460644 0)
(-0.272376 -0.436923 -1.09717e-19)
(-0.12555 -0.413043 -7.25637e-20)
(0.0138284 -0.389485 -7.19599e-20)
(0.146209 -0.366497 7.13221e-20)
(0.272359 -0.344164 -1.06006e-19)
(0.392153 -0.322697 0)
(0.505784 -0.302224 0)
(0.613493 -0.282812 6.86453e-20)
(0.715556 -0.264483 1.01948e-19)
(0.812269 -0.247229 0)
(0.903929 -0.231024 -3.32981e-20)
(0.990833 -0.215825 0)
(1.07326 -0.201584 9.78132e-20)
(1.15149 -0.188245 9.59284e-24)
(1.22576 -0.175749 -8.9828e-24)
(1.29633 -0.164039 -6.31451e-20)
(1.36339 -0.153058 0)
(1.42716 -0.142752 6.1784e-20)
(1.48782 -0.133071 6.74332e-24)
(1.54553 -0.123968 0)
(1.60045 -0.115403 0)
(1.65272 -0.10734 0)
(1.70247 -0.0997478 -5.84486e-20)
(1.74982 -0.0926 0)
(1.79487 -0.0858732 0)
(1.83774 -0.0795474 0)
(1.87851 -0.0736045 0)
(1.91728 -0.0680279 0)
(1.95413 -0.0628021 -5.45755e-20)
(1.98915 -0.0579121 0)
(2.0224 -0.053343 -5.33247e-20)
(2.05396 -0.0490801 -5.27047e-20)
(2.08389 -0.0451087 5.20892e-20)
(2.11227 -0.0414139 0)
(2.13914 -0.0379808 5.08717e-20)
(2.16457 -0.0347949 0)
(2.18862 -0.031843 4.9672e-20)
(2.21133 -0.0291109 -4.90788e-20)
(2.23275 -0.0265853 -1.45468e-19)
(2.25295 -0.024251 0)
(2.27196 -0.0220964 -1.41973e-19)
(2.28983 -0.0201136 -4.67473e-20)
(2.30661 -0.0182903 0)
(2.32236 -0.0166163 -9.12175e-20)
(2.33711 -0.0150807 -9.00903e-20)
(2.35091 -0.0136716 1.33457e-19)
(2.3638 -0.0123802 0)
(2.37582 -0.0111969 4.3379e-20)
(2.38703 -0.0101118 4.28313e-20)
(2.39745 -0.00911903 1.26862e-19)
(2.40714 -0.00821033 0)
(2.41614 -0.00736917 0)
(2.4245 -0.00659303 0)
(2.43224 -0.00588548 4.01493e-20)
(2.43942 -0.00524133 0)
(2.44606 -0.00465401 0)
(2.45221 -0.00412244 -3.8585e-20)
(2.45787 -0.00364191 -3.80704e-20)
(2.4631 -0.00320888 0)
(2.46791 -0.00282255 0)
(2.47233 -0.00248063 -7.30952e-20)
(2.4764 -0.00218119 0)
(2.48012 -0.00191998 7.10987e-20)
(2.48354 -0.00169186 7.01102e-20)
(2.48666 -0.00149193 0)
(2.48952 -0.00131604 0)
(2.49212 -0.00116099 -6.71843e-20)
(2.4945 -0.00102375 -1.14747e-25)
(2.49666 -0.000900913 -1.04819e-25)
(2.49864 -0.000788697 0)
(2.50044 -0.000683507 -1.26742e-19)
(2.50209 -0.00058263 0)
(2.50358 -0.000484631 0)
(2.50494 -0.000389265 0)
(2.50617 -0.000297047 5.96548e-20)
(2.50728 -0.000208739 0)
(2.50828 -0.000124971 -1.15663e-19)
(2.50918 -4.60294e-05 -5.69283e-20)
(2.50998 2.81759e-05 0)
(2.51069 9.808e-05 -5.51386e-20)
(2.51132 0.000164367 0)
(2.51186 0.000227958 0)
(2.51234 0.000289872 -1.57485e-19)
(2.51274 0.000351436 1.03248e-19)
(2.51308 0.000413872 0)
(2.51335 0.000479162 9.97972e-20)
(2.51356 0.000548621 -4.90436e-20)
(2.51371 0.000625652 0)
(2.51378 0.000711199 0)
(2.51379 0.000812023 0)
(2.51372 0.000926842 -1.3702e-19)
(2.51357 0.00107095 0)
(2.51331 0.00123461 -4.40181e-20)
(2.51296 0.00145561 0)
(2.51244 0.00169716 0)
(2.51179 0.00205764 0)
(2.51087 0.00242068 0)
(2.5098 0.00304793 0)
(2.50822 0.00358968 0)
(2.5065 0.00475481 -7.67565e-20)
(2.50378 0.00553681 0)
(2.50106 0.00785701 -3.6816e-20)
(2.49625 0.00891684 1.08125e-19)
(2.49202 0.0139008 0)
(2.48319 0.0152766 0)
(2.47686 0.0269032 -6.7528e-20)
(2.46042 0.0293996 -6.607e-20)
(2.45226 0.0588549 6.45791e-20)
(2.42542 0.0679442 6.31954e-20)
(-0.0149221 -0.0181603 9.78085e-20)
(-0.0759013 0.0164309 9.70945e-20)
(-0.132811 0.0272941 6.42591e-20)
(-0.192518 0.0428572 3.19164e-20)
(-0.252834 0.0608833 0)
(-0.315303 0.0819785 -6.27697e-20)
(-0.379979 0.106063 3.11697e-20)
(-0.44724 0.133435 0)
(-0.517187 0.164379 3.05945e-20)
(-0.589981 0.19921 0)
(-0.665571 0.23809 -6.02462e-20)
(-0.743823 0.2812 0)
(-0.824513 0.328345 -2.95754e-20)
(-0.907357 0.379093 -5.86381e-20)
(-0.991988 0.432803 5.81245e-20)
(-1.07797 0.488639 0)
(-1.16486 0.545588 5.70952e-20)
(-1.25228 0.602503 0)
(-1.34005 0.658162 0)
(-1.4282 0.711369 5.55436e-20)
(-1.517 0.761056 0)
(-1.60705 0.80635 1.05993e-23)
(-1.69923 0.846665 0)
(-1.7946 0.881809 0)
(-1.89423 0.911824 3.23213e-23)
(-1.99906 0.936869 5.23316e-20)
(-2.10986 0.957098 5.17049e-20)
(-2.22717 0.972568 5.119e-20)
(-2.35131 0.983196 0)
(-2.48242 0.988746 9.98975e-20)
(-2.62036 0.988812 0)
(-2.7647 0.982771 4.86312e-20)
(-2.9146 0.969786 0)
(-3.06869 0.948856 0)
(-3.22496 0.918839 -4.66716e-20)
(-3.38075 0.878554 0)
(-3.53283 0.826978 4.53614e-20)
(-3.67768 0.763432 2.53228e-22)
(-3.81175 0.687787 -8.84695e-20)
(-3.93169 0.600579 8.70036e-20)
(-4.03435 0.502987 0)
(-4.11697 0.396752 0)
(-4.17723 0.284179 4.1612e-20)
(-4.21344 0.168069 0)
(-4.22472 0.0514178 4.14411e-20)
(-4.21128 -0.0631201 -4.10948e-20)
(-4.17398 -0.173213 -4.07895e-20)
(-4.11414 -0.276435 0)
(-4.03329 -0.370943 4.03026e-20)
(-3.93351 -0.455293 4.01116e-20)
(-3.81712 -0.528827 -7.9478e-20)
(-3.68661 -0.591474 3.98066e-20)
(-3.54441 -0.643789 3.9681e-20)
(-3.39275 -0.686754 0)
(-3.23349 -0.72166 0)
(-3.06806 -0.749902 -3.93529e-20)
(-2.89746 -0.772809 0)
(-2.72222 -0.79144 0)
(-2.54267 -0.806382 7.80579e-20)
(-2.35911 -0.817724 7.7824e-20)
(-2.17206 -0.825209 0)
(-1.98229 -0.828352 0)
(-1.79095 -0.826598 0)
(-1.59943 -0.819572 0)
(-1.40932 -0.80722 7.63674e-20)
(-1.22212 -0.789787 -7.59118e-20)
(-1.03925 -0.767774 -7.55934e-20)
(-0.861851 -0.741907 -1.50258e-19)
(-0.690799 -0.712988 0)
(-0.526593 -0.681846 4.25293e-23)
(-0.369471 -0.649262 0)
(-0.219459 -0.615892 7.31237e-20)
(-0.0764571 -0.582554 2.94675e-23)
(0.0590853 -0.54985 7.19427e-20)
(0.187956 -0.517665 -7.13006e-20)
(0.311047 -0.486506 2.30468e-23)
(0.428131 -0.456602 0)
(0.539396 -0.428114 -6.92875e-20)
(0.645031 -0.401131 -6.86293e-20)
(0.745242 -0.375688 -1.35874e-19)
(0.840261 -0.35177 0)
(0.930342 -0.329336 6.65556e-20)