/*--------------------------------*- C++ -*----------------------------------*\
  =========                 |
  \\      /  F ield         | OpenFOAM: The Open Source CFD Toolbox
   \\    /   O peration     | Website:  https://openfoam.org
    \\  /    A nd           | Version:  7
     \\/     M anipulation  |
\*---------------------------------------------------------------------------*/
FoamFile
{
    version     2.0;
    format      ascii;
    class       volVectorField;
    location    "0.028";
    object      UMean;
}
// * * * * * * * * * * * * * * * * * * * * * * * * * * * * * * * * * * * * * //

dimensions      [0 1 -1 0 0 0 0];

internalField   nonuniform List<vector> 
12225
(
(4.78194 0.163764 0)
(4.20114 0.109824 0)
(3.75518 0.0955286 0)
(3.40482 0.0779924 0)
(3.09904 0.0637919 0)
(2.8237 0.0531193 0)
(2.57942 0.0434344 0)
(2.37003 0.0344831 0)
(2.19948 0.0248655 0)
(2.06452 0.0175817 0)
(1.96837 0.00855511 0)
(1.8983 0.0054776 0)
(1.86512 -0.00525919 0)
(1.84472 -3.163e-05 0)
(1.86143 -0.020981 0)
(1.88323 0.00327328 0)
(1.94754 -0.0538422 0)
(2.03888 0.00457046 0)
(5.01967 0.111807 0)
(4.88141 0.070493 0)
(4.76979 0.0844436 0)
(4.68761 0.0817025 0)
(4.60631 0.0776981 0)
(4.51935 0.0750766 0)
(4.42838 0.0722139 0)
(4.34009 0.0665375 0)
(4.25621 0.0597551 0)
(4.18322 0.0494363 0)
(4.11784 0.0409992 0)
(4.06925 0.0276608 0)
(4.02663 0.0211789 0)
(4.00792 0.00419067 0)
(3.98789 0.00245461 0)
(4.00496 -0.0241678 0)
(4.0108 -0.0278103 0)
(4.06768 -0.0886844 0)
(5.00122 0.171537 0)
(4.88966 0.120244 0)
(4.81479 0.125342 0)
(4.78707 0.116823 0)
(4.77651 0.106206 0)
(4.76824 0.0989774 0)
(4.75997 0.092295 0)
(4.75205 0.0849196 0)
(4.74501 0.0745172 0)
(4.73825 0.0640322 0)
(4.73307 0.0499287 0)
(4.72903 0.0391375 0)
(4.72935 0.022139 0)
(4.73252 0.0134312 0)
(4.74409 -0.00874724 0)
(4.76019 -0.0183641 0)
(4.7882 -0.0549774 0)
(4.81806 -0.0952642 0)
(4.9957 0.185778 0)
(4.90701 0.115886 0)
(4.83469 0.111628 0)
(4.80418 0.104291 0)
(4.79619 0.0936692 0)
(4.79519 0.085387 0)
(4.79739 0.0791114 0)
(4.80314 0.0718138 0)
(4.81202 0.0632237 0)
(4.82324 0.0522943 0)
(4.83578 0.0411701 0)
(4.84972 0.0277435 0)
(4.86535 0.0153074 0)
(4.88338 -0.000744904 0)
(4.90559 -0.0161981 0)
(4.93109 -0.0388141 0)
(4.96317 -0.0681667 0)
(4.99281 -0.110249 0)
(4.99288 0.214137 0)
(4.92775 0.140724 0)
(4.86298 0.128178 0)
(4.82969 0.119795 0)
(4.81901 0.106753 0)
(4.81663 0.0949408 0)
(4.81779 0.0851561 0)
(4.82249 0.0757645 0)
(4.83103 0.0648893 0)
(4.84259 0.0530807 0)
(4.8565 0.0396149 0)
(4.87211 0.0259215 0)
(4.88981 0.0102227 0)
(4.9096 -0.00613299 0)
(4.93254 -0.0259507 0)
(4.95795 -0.0502016 0)
(4.98606 -0.0810687 0)
(5.01143 -0.125867 0)
(4.98659 0.227313 0)
(4.9408 0.152302 0)
(4.88583 0.131361 0)
(4.85318 0.120922 0)
(4.84171 0.106668 0)
(4.83934 0.09251 0)
(4.84015 0.0806531 0)
(4.84371 0.0696638 0)
(4.85075 0.0580542 0)
(4.86103 0.0451443 0)
(4.87408 0.0311711 0)
(4.88908 0.0160356 0)
(4.90623 -0.00026361 0)
(4.92498 -0.0184545 0)
(4.94622 -0.0395566 0)
(4.96843 -0.0650837 0)
(4.99189 -0.0972923 0)
(5.0117 -0.137912 0)
(4.99783 0.242531 0)
(4.96541 0.169268 0)
(4.91855 0.140791 0)
(4.88679 0.126866 0)
(4.87417 0.111467 0)
(4.87155 0.0957416 0)
(4.87268 0.0818113 0)
(4.87631 0.0690828 0)
(4.88296 0.0560017 0)
(4.89243 0.0418904 0)
(4.90435 0.0266974 0)
(4.91799 0.0104124 0)
(4.9335 -0.00717258 0)
(4.95024 -0.0268614 0)
(4.96884 -0.0492058 0)
(4.98751 -0.0759623 0)
(5.00661 -0.107571 0)
(5.02152 -0.145518 0)
(5.00009 0.252579 0)
(4.9795 0.183297 0)
(4.94221 0.149253 0)
(4.91345 0.131375 0)
(4.90079 0.114738 0)
(4.8983 0.0974851 0)
(4.89986 0.0813905 0)
(4.90359 0.0665956 0)
(4.90979 0.0520659 0)
(4.9185 0.0368737 0)
(4.92949 0.0207067 0)
(4.94202 0.00338274 0)
(4.95608 -0.0153383 0)
(4.97092 -0.0360941 0)
(4.98695 -0.0594823 0)
(5.00243 -0.0865241 0)
(5.01769 -0.117458 0)
(5.02887 -0.152912 0)
(5.00386 0.257929 0)
(4.99173 0.193347 0)
(4.96224 0.155693 0)
(4.93645 0.133968 0)
(4.92414 0.115938 0)
(4.92197 0.0977489 0)
(4.92418 0.0802265 0)
(4.92825 0.0638274 0)
(4.93419 0.047901 0)
(4.94219 0.0315983 0)
(4.95228 0.014471 0)
(4.96383 -0.0038094 0)
(4.97664 -0.0234364 0)
(4.98987 -0.0449656 0)
(5.00362 -0.0687893 0)
(5.01635 -0.095629 0)
(5.02831 -0.125457 0)
(5.0365 -0.158429 0)
(4.99945 0.267623 0)
(4.99461 0.206648 0)
(4.97271 0.166379 0)
(4.95111 0.140498 0)
(4.93991 0.119842 0)
(4.93791 0.100001 0)
(4.94041 0.080888 0)
(4.94466 0.0628931 0)
(4.95028 0.0455599 0)
(4.95749 0.0280991 0)
(4.96635 0.0099646 0)
(4.97641 -0.00919769 0)
(4.98741 -0.0296273 0)
(4.99862 -0.0517347 0)
(5.00992 -0.0757855 0)
(5.02007 -0.102197 0)
(5.02907 -0.130802 0)
(5.03491 -0.161527 0)
(4.99138 0.266486 0)
(4.99072 0.210719 0)
(4.97413 0.169967 0)
(4.9556 0.141655 0)
(4.94476 0.119286 0)
(4.94191 0.0984799 0)
(4.94363 0.0783423 0)
(4.9474 0.0590583 0)
(4.95256 0.0405076 0)
(4.95906 0.0220461 0)
(4.967 0.00310404 0)
(4.97588 -0.0167249 0)
(4.98549 -0.0376683 0)
(4.99498 -0.0600141 0)
(5.00441 -0.0839124 0)
(5.01241 -0.109598 0)
(5.01959 -0.136834 0)
(5.0236 -0.165495 0)
(5.01509 0.272781 0)
(5.01607 0.219535 0)
(5.00244 0.178308 0)
(4.98607 0.147715 0)
(4.97593 0.123095 0)
(4.97289 0.100763 0)
(4.97413 0.0794246 0)
(4.97724 0.058999 0)
(4.98146 0.0393082 0)
(4.98673 0.0198719 0)
(4.99322 0.000170211 0)
(5.00053 -0.0202397 0)
(5.00846 -0.0415877 0)
(5.01615 -0.0641071 0)
(5.02362 -0.0878504 0)
(5.02961 -0.112936 0)
(5.03475 -0.139079 0)
(5.03703 -0.166151 0)
(4.99537 0.274479 0)
(5.00188 0.223278 0)
(4.99346 0.182097 0)
(4.98085 0.14984 0)
(4.97285 0.123349 0)
(4.97089 0.099712 0)
(4.97282 0.077417 0)
(4.97641 0.056049 0)
(4.98079 0.0353768 0)
(4.98584 0.0150411 0)
(4.99171 -0.00538825 0)
(4.99812 -0.0262732 0)
(5.00493 -0.047807 0)
(5.01138 -0.0701892 0)
(5.01752 -0.0934354 0)
(5.02224 -0.117632 0)
(5.02618 -0.142512 0)
(5.02761 -0.168004 0)
(5.01208 0.274937 0)
(5.01989 0.227687 0)
(5.0139 0.187617 0)
(5.00304 0.154439 0)
(4.99551 0.126136 0)
(4.99309 0.100809 0)
(4.99424 0.0773265 0)
(4.99715 0.0551098 0)
(5.00089 0.0337854 0)
(5.00506 0.0128863 0)
(5.00969 -0.00800529 0)
(5.01451 -0.029249 0)
(5.01954 -0.0510107 0)
(5.02413 -0.0734109 0)
(5.02848 -0.0963781 0)
(5.03145 -0.119922 0)
(5.0339 -0.143751 0)
(5.03393 -0.167818 0)
(5.01138 0.275136 0)
(5.01976 0.230046 0)
(5.01657 0.190284 0)
(5.00966 0.15602 0)
(5.00533 0.126177 0)
(5.00453 0.0994657 0)
(5.00605 0.0748434 0)
(5.00873 0.0516438 0)
(5.01213 0.0294202 0)
(5.01599 0.00778688 0)
(5.02025 -0.0135793 0)
(5.0245 -0.0349706 0)
(5.02866 -0.05653 0)
(5.03207 -0.0783902 0)
(5.03496 -0.100469 0)
(5.03639 -0.122814 0)
(5.03729 -0.14512 0)
(5.03602 -0.167468 0)
(5.01258 0.27921 0)
(5.02445 0.234667 0)
(5.02497 0.194885 0)
(5.02121 0.159798 0)
(5.01921 0.128798 0)
(5.01988 0.100978 0)
(5.02221 0.0753619 0)
(5.02533 0.0512104 0)
(5.02879 0.0281201 0)
(5.03227 0.00582075 0)
(5.03565 -0.0159097 0)
(5.03865 -0.0373175 0)
(5.0413 -0.0585495 0)
(5.04315 -0.0797501 0)
(5.04448 -0.100879 0)
(5.04454 -0.121987 0)
(5.04416 -0.14286 0)
(5.042 -0.16358 0)
(5.00855 0.271276 0)
(5.02003 0.229622 0)
(5.02134 0.190355 0)
(5.01912 0.155015 0)
(5.01903 0.123469 0)
(5.02149 0.0949053 0)
(5.02513 0.0685539 0)
(5.02898 0.0439313 0)
(5.03272 0.0207493 0)
(5.03613 -0.00128261 0)
(5.03915 -0.0224634 0)
(5.04157 -0.0431161 0)
(5.04343 -0.0634206 0)
(5.0444 -0.0835464 0)
(5.04476 -0.10342 0)
(5.04393 -0.12311 0)
(5.04267 -0.142356 0)
(5.03983 -0.161355 0)
(5.01624 0.278231 0)
(5.02724 0.234055 0)
(5.02897 0.193393 0)
(5.0283 0.156977 0)
(5.03027 0.124337 0)
(5.03445 0.0947709 0)
(5.039 0.0677318 0)
(5.04299 0.0428156 0)
(5.04631 0.0196843 0)
(5.04902 -0.00200213 0)
(5.05123 -0.022547 0)
(5.05281 -0.0422412 0)
(5.0538 -0.0612801 0)
(5.0539 -0.0798512 0)
(5.05336 -0.0979793 0)
(5.0517 -0.11576 0)
(5.04963 -0.133054 0)
(5.04613 -0.149992 0)
(5.00475 0.274852 0)
(5.01997 0.228088 0)
(5.02572 0.185166 0)
(5.02861 0.146763 0)
(5.03383 0.112889 0)
(5.04097 0.082959 0)
(5.04801 0.056153 0)
(5.05391 0.0316992 0)
(5.05853 0.00907117 0)
(5.06195 -0.0120515 0)
(5.06434 -0.0318645 0)
(5.0657 -0.0505801 0)
(5.06618 -0.0683526 0)
(5.06559 -0.085388 0)
(5.06423 -0.101726 0)
(5.06174 -0.117524 0)
(5.05878 -0.132655 0)
(5.05455 -0.147343 0)
(5.00194 0.27089 0)
(5.01805 0.221468 0)
(5.02747 0.176104 0)
(5.03521 0.136567 0)
(5.04441 0.102828 0)
(5.05402 0.0739618 0)
(5.06235 0.048938 0)
(5.06884 0.0268868 0)
(5.07375 0.00710033 0)
(5.07743 -0.0109893 0)
(5.08013 -0.0278052 0)
(5.08181 -0.0436811 0)
(5.08257 -0.0588206 0)
(5.0822 -0.0733657 0)
(5.08098 -0.0873435 0)
(5.07861 -0.100822 0)
(5.0757 -0.113747 0)
(5.07156 -0.126238 0)
(5.00222 0.268912 0)
(5.02105 0.211941 0)
(5.03477 0.162758 0)
(5.04726 0.122019 0)
(5.06066 0.0883236 0)
(5.07354 0.0596899 0)
(5.08431 0.0345984 0)
(5.09262 0.0122617 0)
(5.09887 -0.00768049 0)
(5.10346 -0.0255398 0)
(5.10665 -0.0416671 0)
(5.10841 -0.0564459 0)
(5.10892 -0.0701546 0)
(5.10809 -0.0830401 0)
(5.10632 -0.0952 0)
(5.10329 -0.106807 0)
(5.09976 -0.117811 0)
(5.09491 -0.128426 0)
(5.0194 0.263511 0)
(5.04303 0.198374 0)
(5.06348 0.146683 0)
(5.08245 0.107654 0)
(5.10025 0.0777896 0)
(5.11544 0.0535513 0)
(5.12752 0.0326694 0)
(5.1371 0.0140533 0)
(5.14479 -0.00271223 0)
(5.1507 -0.017865 0)
(5.15479 -0.0316505 0)
(5.15701 -0.0443354 0)
(5.1576 -0.0561569 0)
(5.15663 -0.0673179 0)
(5.15454 -0.0779137 0)
(5.15119 -0.0880448 0)
(5.14726 -0.0977063 0)
(5.14212 -0.106994 0)
(5.0054 0.256586 0)
(5.03824 0.180043 0)
(5.07043 0.123862 0)
(5.09956 0.0840657 0)
(5.12435 0.0536442 0)
(5.14371 0.0280855 0)
(5.15808 0.0060705 0)
(5.16876 -0.01238 0)
(5.17676 -0.0275802 0)
(5.18248 -0.0403555 0)
(5.18615 -0.0515536 0)
(5.18787 -0.061793 0)
(5.18796 -0.0713625 0)
(5.18656 -0.080424 0)
(5.18407 -0.089012 0)
(5.18035 -0.0972453 0)
(5.17593 -0.105084 0)
(5.17032 -0.112695 0)
(5.00225 0.242657 0)
(5.04421 0.157998 0)
(5.08659 0.105932 0)
(5.12154 0.075619 0)
(5.14773 0.0539175 0)
(5.16695 0.0342272 0)
(5.18202 0.0159853 0)
(5.19461 3.18164e-05 0)
(5.20488 -0.0134512 0)
(5.21248 -0.0249952 0)
(5.21746 -0.0352501 0)
(5.2201 -0.0446197 0)
(5.22099 -0.053278 0)
(5.22031 -0.0613426 0)
(5.2185 -0.0689143 0)
(5.21537 -0.0761197 0)
(5.21154 -0.0830095 0)
(5.20642 -0.0896717 0)
(5.0203 0.225716 0)
(5.07846 0.122091 0)
(5.13853 0.065877 0)
(5.183 0.0357964 0)
(5.21176 0.0135262 0)
(5.23102 -0.00618122 0)
(5.24599 -0.0222887 0)
(5.25842 -0.0344807 0)
(5.26818 -0.0439804 0)
(5.2749 -0.0521379 0)
(5.27885 -0.0596341 0)
(5.28052 -0.0666345 0)
(5.28056 -0.0731478 0)
(5.27915 -0.0792473 0)
(5.27672 -0.0849909 0)
(5.2731 -0.0904975 0)
(5.26888 -0.0957602 0)
(5.26353 -0.100901 0)
(5.0185 0.209038 0)
(5.0984 0.108092 0)
(5.17639 0.0711133 0)
(5.22802 0.0530706 0)
(5.25861 0.0330736 0)
(5.28005 0.0130389 0)
(5.29818 -0.00301075 0)
(5.3132 -0.0146238 0)
(5.32418 -0.0235318 0)
(5.33111 -0.0312208 0)
(5.33489 -0.0382594 0)
(5.33634 -0.0447729 0)
(5.3361 -0.050813 0)
(5.33437 -0.056489 0)
(5.3315 -0.0618893 0)
(5.32741 -0.0670972 0)
(5.32262 -0.0721201 0)
(5.31676 -0.0770071 0)
(5.01419 0.157986 0)
(5.13188 0.0327357 0)
(5.22824 0.00358391 0)
(5.27965 -0.00750241 0)
(5.30623 -0.0227259 0)
(5.32642 -0.036022 0)
(5.34496 -0.0447799 0)
(5.36057 -0.0507595 0)
(5.37195 -0.0558012 0)
(5.37934 -0.0605607 0)
(5.38374 -0.0650481 0)
(5.38589 -0.0692288 0)
(5.38629 -0.0731239 0)
(5.38507 -0.0768377 0)
(5.38259 -0.0804065 0)
(5.37877 -0.0839148 0)
(5.37422 -0.0873313 0)
(5.36853 -0.0907413 0)
(5.01217 0.150805 0)
(5.17952 0.0549329 0)
(5.30014 0.0404484 0)
(5.35438 0.0231964 0)
(5.38166 0.00341685 0)
(5.40482 -0.0106899 0)
(5.42594 -0.0193816 0)
(5.44264 -0.0257949 0)
(5.45405 -0.0314838 0)
(5.46097 -0.0366824 0)
(5.46456 -0.0413244 0)
(5.46569 -0.0455149 0)
(5.46481 -0.0493695 0)
(5.46209 -0.0530664 0)
(5.45773 -0.0566295 0)
(5.4518 -0.0601833 0)
(5.44459 -0.0636559 0)
(5.43607 -0.0671739 0)
(5.01681 0.0200896 0)
(5.23398 -0.0516123 0)
(5.35705 -0.0352506 0)
(5.40419 -0.0442379 0)
(5.42781 -0.0548207 0)
(5.44529 -0.0598333 0)
(5.45656 -0.0619583 0)
(5.45982 -0.0635829 0)
(5.45516 -0.0652554 0)
(5.44398 -0.0668953 0)
(5.42765 -0.0684164 0)
(5.40737 -0.0698552 0)
(5.38364 -0.0712054 0)
(5.35721 -0.0725276 0)
(5.32799 -0.0737739 0)
(5.29695 -0.0750477 0)
(5.26341 -0.076279 0)
(5.2291 -0.0776418 0)
(4.96858 0.067707 0)
(5.10691 -0.00186812 0)
(5.07529 -0.00203926 0)
(4.95616 -0.0120866 0)
(4.82441 -0.0195558 0)
(4.69627 -0.022555 0)
(4.57123 -0.0237906 0)
(4.44744 -0.0246501 0)
(4.32459 -0.0253206 0)
(4.20346 -0.0257561 0)
(4.08482 -0.0259836 0)
(3.96934 -0.0260851 0)
(3.85697 -0.0261214 0)
(3.74803 -0.0261447 0)
(3.64188 -0.0261536 0)
(3.53933 -0.0261909 0)
(3.43885 -0.0262216 0)
(3.34265 -0.026348 0)
(-0.00260998 -0.00412602 3.64089e-21)
(-0.0103789 -0.0070856 -3.618e-21)
(-0.0168673 -0.00633625 0)
(-0.0255628 -0.00447506 0)
(-0.0359363 -0.00217716 0)
(-0.0484904 0.000464057 3.51618e-21)
(-0.0632269 0.00335567 0)
(-0.0802801 0.00636739 0)
(-0.099663 0.0093977 0)
(-0.121407 0.0123733 0)
(-0.145532 0.0152704 -3.38634e-21)
(-0.17204 0.018094 0)
(-0.200932 0.0208601 0)
(-0.232222 0.0236039 0)
(-0.265914 0.0263751 0)
(-0.302 0.0292122 -3.25524e-21)
(-0.340443 0.0321433 0)
(-0.381164 0.0351402 0)
(-0.424041 0.0381258 0)
(-0.468854 0.0409843 0)
(-0.515282 0.0435306 0)
(-0.562906 0.0455947 0)
(-0.61119 0.0470247 0)
(-0.659534 0.0477298 -3.04457e-21)
(-0.707232 0.0476342 3.01804e-21)
(-0.753584 0.0467357 -2.99149e-21)
(-0.797918 0.0450761 -2.96499e-21)
(-0.839576 0.0427137 0)
(-0.877956 0.0397079 0)
(-0.912478 0.0361435 2.8869e-21)
(-0.942591 0.0320661 2.8618e-21)
(-0.967799 0.0275507 0)
(-0.987607 0.0226633 0)
(-1.00159 0.0174557 2.79179e-21)
(-1.00935 0.0120023 0)
(-1.01057 0.00636396 0)
(-1.00495 0.000615514 -2.73357e-21)
(-0.992285 -0.00517813 0)
(-0.972441 -0.0109395 -2.70345e-21)
(-0.945365 -0.0165952 -5.38263e-21)
(-0.911098 -0.0220688 0)
(-0.869788 -0.0272858 0)
(-0.821669 -0.0321725 0)
(-0.767047 -0.0366572 0)
(-0.706324 -0.0406872 0)
(-0.639997 -0.0442202 -5.31485e-21)
(-0.568703 -0.0472628 -5.31365e-21)
(-0.492987 -0.0498182 -5.31403e-21)
(-0.413459 -0.0519048 0)
(-0.330721 -0.0535149 5.31712e-21)
(-0.24536 -0.0546707 0)
(-0.157995 -0.0553925 -5.3195e-21)
(-0.0692022 -0.0556984 -5.31912e-21)
(0.0204593 -0.055617 0)
(0.110435 -0.0551701 0)
(0.200217 -0.0544005 0)
(0.289364 -0.0533248 -5.29787e-21)
(0.377433 -0.0520159 0)
(0.464029 -0.050476 0)
(0.548837 -0.0487566 0)
(0.631564 -0.0468749 0)
(0.71195 -0.0448881 0)
(0.789784 -0.0428064 0)
(0.86491 -0.0406655 0)
(0.937177 -0.038479 0)
(1.00648 -0.036289 5.0979e-21)
(1.07277 -0.0341019 0)
(1.13599 -0.0319429 0)
(1.19615 -0.0298301 -4.99044e-21)
(1.25325 -0.0277724 -4.95153e-21)
(1.30735 -0.025786 0)
(1.35849 -0.0238753 4.87013e-21)
(1.40675 -0.0220471 -4.82799e-21)
(1.45223 -0.0203103 0)
(1.49503 -0.0186603 4.74159e-21)
(1.53525 -0.0171 0)
(1.57301 -0.01563 0)
(1.60839 -0.014249 -4.60857e-21)
(1.6415 -0.0129549 0)
(1.67246 -0.0117449 4.51877e-21)
(1.70136 -0.010616 0)
(1.72831 -0.00956476 -4.42878e-21)
(1.7534 -0.00858767 -4.38386e-21)
(1.77674 -0.00768123 -4.33904e-21)
(1.79841 -0.00684197 -8.58872e-21)
(1.81851 -0.00606645 8.49972e-21)
(1.83711 -0.00535137 0)
(1.85431 -0.00469349 0)
(1.87018 -0.00408975 0)
(1.8848 -0.00353714 8.14818e-21)
(1.89824 -0.0030328 8.06159e-21)
(1.91057 -0.00257389 -7.97556e-21)
(1.92187 -0.00215767 0)
(1.93219 -0.00178138 7.80528e-21)
(1.9416 -0.0014423 7.72106e-21)
(1.95015 -0.00113788 7.63745e-21)
(1.95792 -0.000865685 0)
(1.96494 -0.000623351 0)
(1.97128 -0.00040859 0)
(1.97698 -0.000219151 7.30926e-21)
(1.98209 -5.28569e-05 0)
(1.98666 9.24296e-05 0)
(1.99072 0.000218737 -7.06971e-21)
(1.99431 0.000328061 0)
(1.99748 0.000422284 0)
(2.00025 0.000503196 -6.83572e-21)
(2.00266 0.000572586 0)
(2.00474 0.000631904 0)
(2.00652 0.000682746 6.60718e-21)
(2.00801 0.000726292 6.53218e-21)
(2.00925 0.000763445 0)
(2.01024 0.000795516 -6.38391e-21)
(2.01101 0.000822238 0)
(2.01159 0.000842712 6.23792e-21)
(2.01198 0.000856963 0)
(2.01221 0.000865782 6.09414e-21)
(2.01229 0.000869936 6.02306e-21)
(2.01224 0.000870008 0)
(2.01208 0.000866581 0)
(2.0118 0.000860241 0)
(2.01144 0.000851243 0)
(2.01098 0.000839853 0)
(2.01046 0.000826756 0)
(2.00986 0.000812738 0)
(2.0092 0.000798115 5.47321e-21)
(2.00848 0.000783013 -5.40673e-21)
(2.00772 0.000767533 0)
(2.00691 0.000751762 0)
(2.00607 0.000735772 0)
(2.00519 0.000719662 0)
(2.00428 0.000703598 -1.01628e-20)
(2.00334 0.000687832 0)
(2.00238 0.00067268 9.90895e-21)
(2.0014 0.00065844 -9.78336e-21)
(2.0004 0.000645321 0)
(1.99938 0.0006334 0)
(1.99834 0.000622626 0)
(1.99728 0.000612872 9.28962e-21)
(1.9962 0.000603977 9.1683e-21)
(1.9951 0.000595825 0)
(1.99399 0.000588328 8.92811e-21)
(1.99285 0.000581462 8.80924e-21)
(1.9917 0.000575213 -8.69116e-21)
(1.99053 0.000569592 0)
(1.98934 0.000564597 0)
(1.98814 0.000560237 -8.34161e-21)
(1.98692 0.000556507 0)
(1.98567 0.000553414 0)
(1.98441 0.000550964 0)
(1.98313 0.00054918 0)
(1.98183 0.000548091 7.77421e-21)
(1.9805 0.000547757 7.66293e-21)
(1.97915 0.000548244 0)
(1.97778 0.000549677 7.44253e-21)
(1.97638 0.000552162 0)
(1.97495 0.000555943 0)
(1.97348 0.000561165 7.1172e-21)
(1.97197 0.000568303 0)
(1.97041 0.000577511 6.90377e-21)
(1.9688 0.000589713 0)
(1.96712 0.000604993 0)
(1.96538 0.000625118 6.58878e-21)
(1.96352 0.000650018 0)
(1.96156 0.000682807 6.38223e-21)
(1.95942 0.000723653 0)
(1.95717 0.00077678 0)
(1.95457 0.000845974 0)
(1.95185 0.000930854 -5.97787e-21)
(1.94848 0.00105586 0)
(1.94501 0.00118508 5.78057e-21)
(1.94028 0.00143594 0)
(1.93553 0.0016063 0)
(1.92843 0.00218757 0)
(1.92106 0.0023039 0)
(1.90992 0.00387983 0)
(1.89581 0.00345739 0)
(1.87871 0.00844224 0)
(1.84246 0.00567312 -1.0109e-20)
(1.81933 0.0253039 0)
(1.69379 0.0198686 0)
(-0.0107221 0.0336347 -1.09279e-20)
(-0.0437857 0.0375041 1.08592e-20)
(-0.0746044 0.0400541 0)
(-0.10727 0.0454436 -7.1377e-21)
(-0.140553 0.0511791 0)
(-0.174828 0.0570597 -3.51838e-21)
(-0.209903 0.0629335 6.98339e-21)
(-0.245868 0.0687704 6.93144e-21)
(-0.282721 0.0745608 0)
(-0.32051 0.0802966 6.82691e-21)
(-0.35925 0.085982 3.38847e-21)
(-0.398975 0.0916012 0)
(-0.439682 0.0971258 0)
(-0.48132 0.102516 0)
(-0.52383 0.107704 0)
(-0.567072 0.112595 3.25731e-21)
(-0.610851 0.117054 0)
(-0.654926 0.120907 -6.40249e-21)
(-0.698966 0.123939 0)
(-0.74263 0.125955 0)
(-0.785545 0.126748 6.24111e-21)
(-0.827333 0.126179 0)
(-0.867596 0.124137 -6.13276e-21)
(-0.905973 0.120589 3.04652e-21)
(-0.942114 0.11554 -3.01994e-21)
(-0.975648 0.109051 2.99334e-21)
(-1.00622 0.101202 2.96679e-21)
(-1.03348 0.092086 0)
(-1.05706 0.0817947 0)
(-1.07662 0.0704377 -2.88853e-21)
(-1.09182 0.0581023 2.84135e-21)
(-1.10231 0.0448881 0)
(-1.10775 0.0308951 0)
(-1.10785 0.0162273 -2.79319e-21)
(-1.1023 0.000999479 0)
(-1.09084 -0.014658 0)
(-1.07324 -0.0306018 2.73478e-21)
(-1.04931 -0.0466681 0)
(-1.01893 -0.0626799 -2.68088e-21)
(-0.982013 -0.078447 5.38472e-21)
(-0.938572 -0.0937745 0)
(-0.888691 -0.108467 0)
(-0.832549 -0.122331 1.06293e-20)
(-0.770409 -0.135186 1.06132e-20)
(-0.702618 -0.146883 1.06036e-20)
(-0.62958 -0.157289 -5.28305e-21)
(-0.551675 -0.166327 5.31513e-21)
(-0.469425 -0.173945 1.59184e-20)
(-0.383406 -0.180151 -1.06082e-20)
(-0.294223 -0.184938 -5.31841e-21)
(-0.202473 -0.188363 0)
(-0.108772 -0.190462 5.32068e-21)
(-0.0136831 -0.191321 -5.30383e-21)
(0.0822386 -0.191007 0)
(0.178435 -0.189607 0)
(0.274409 -0.187229 0)
(0.369702 -0.183957 5.29877e-21)
(0.463887 -0.179935 0)
(0.556615 -0.17524 -1.05377e-20)
(0.647559 -0.169991 0)
(0.736428 -0.16428 -1.04655e-20)
(0.822967 -0.158204 0)
(0.906998 -0.151849 1.03714e-20)
(0.988372 -0.145297 0)
(1.06693 -0.138611 -1.02573e-20)
(1.14257 -0.131882 5.09493e-21)
(1.21526 -0.125148 0)
(1.28495 -0.11849 1.0054e-20)
(1.35163 -0.111939 4.99094e-21)
(1.41533 -0.105549 4.952e-21)
(1.47609 -0.0993407 0)
(1.53397 -0.0933502 4.86845e-21)
(1.58905 -0.0875918 4.82839e-21)
(1.6414 -0.0820836 0)
(1.69115 -0.0768234 -4.74195e-21)
(1.73839 -0.0718175 9.39425e-21)
(1.7832 -0.0670661 0)
(1.8257 -0.0625655 4.60888e-21)
(1.86597 -0.0583096 0)
(1.90412 -0.0542907 -1.35559e-20)
(1.94024 -0.0505002 0)
(1.97443 -0.0469285 1.3286e-20)
(2.00677 -0.043566 4.38411e-21)
(2.03735 -0.0404029 -4.33831e-21)
(2.06626 -0.0374298 -8.58736e-21)
(2.09357 -0.0346373 8.49846e-21)
(2.11936 -0.0320164 0)
(2.1437 -0.0295585 0)
(2.16666 -0.0272555 0)
(2.1883 -0.0250997 -2.44443e-20)
(2.20869 -0.0230838 -8.06192e-21)
(2.22789 -0.0212007 7.97588e-21)
(2.24596 -0.0194438 0)
(2.26295 -0.0178068 7.80462e-21)
(2.27891 -0.0162836 -7.72134e-21)
(2.29389 -0.0148683 -7.63773e-21)
(2.30795 -0.0135551 0)
(2.32113 -0.0123386 0)
(2.33348 -0.0112134 0)
(2.34505 -0.0101742 -7.30953e-21)
(2.35586 -0.00921614 0)
(2.36597 -0.00833407 1.42979e-20)
(2.37542 -0.00752323 2.12094e-20)
(2.38423 -0.00677888 -1.39822e-20)
(2.39245 -0.00609648 0)
(2.40011 -0.00547157 -6.83557e-21)
(2.40724 -0.00489979 0)
(2.41388 -0.00437708 -1.33657e-20)
(2.42005 -0.0038995 6.6071e-21)
(2.42579 -0.00346344 6.53212e-21)
(2.43113 -0.00306585 0)
(2.43608 -0.00270372 1.91521e-20)
(2.44068 -0.00237496 -1.26215e-20)
(2.44495 -0.00207789 -6.23812e-21)
(2.4489 -0.0018102 0)
(2.45256 -0.00156911 -6.09434e-21)
(2.45594 -0.00135208 -1.80696e-20)
(2.45906 -0.00115682 0)
(2.46195 -0.000981157 -1.17653e-20)
(2.4646 -0.000823198 -1.16263e-20)
(2.46704 -0.000681177 -1.14884e-20)
(2.46928 -0.000553335 0)
(2.47134 -0.000438427 0)
(2.47323 -0.000335714 0)
(2.47495 -0.000244291 5.47331e-21)
(2.47653 -0.000163117 5.4069e-21)
(2.47797 -9.12327e-05 0)
(2.47928 -2.77495e-05 1.05507e-20)
(2.48048 2.81196e-05 1.04206e-20)
(2.48156 7.71947e-05 0)
(2.48254 0.000120262 1.01631e-20)
(2.48343 0.00015809 2.00714e-20)
(2.48424 0.000191465 -9.90927e-21)
(2.48496 0.000221141 -9.7836e-21)
(2.48561 0.000247808 0)
(2.48619 0.00027205 0)
(2.4867 0.000294329 0)
(2.48716 0.000314972 -9.28992e-21)
(2.48756 0.00033418 9.16854e-21)
(2.4879 0.000352092 1.80961e-20)
(2.4882 0.000368783 -8.92841e-21)
(2.48845 0.00038434 8.80947e-21)
(2.48866 0.000398832 8.69144e-21)
(2.48882 0.000412364 0)
(2.48895 0.000425035 0)
(2.48904 0.000436987 -8.34184e-21)
(2.48909 0.000448357 0)
(2.48912 0.00045932 0)
(2.48911 0.000470052 1.59984e-20)
(2.48907 0.000480766 0)
(2.489 0.000491684 7.77441e-21)
(2.48891 0.000503083 -7.66318e-21)
(2.48879 0.000515261 0)
(2.48864 0.000528612 7.44271e-21)
(2.48846 0.000543557 0)
(2.48826 0.000560688 0)
(2.48802 0.000580638 -7.11742e-21)
(2.48776 0.000604314 1.40206e-20)
(2.48745 0.000632743 -6.90398e-21)
(2.4871 0.000667271 0)
(2.48671 0.000709792 0)
(2.48625 0.000761974 6.58887e-21)
(2.48572 0.000828043 0)
(2.48511 0.000908596 6.38228e-21)
(2.48439 0.00101506 0)
(2.48353 0.00114045 0)
(2.4825 0.00131969 0)
(2.48125 0.00151356 5.97803e-21)
(2.47972 0.00183441 0)
(2.4778 0.00212443 -5.78073e-21)
(2.47544 0.00274918 0)
(2.47231 0.0031437 0)
(2.4686 0.00449483 1.09844e-20)
(2.46303 0.00489518 -1.07976e-20)
(2.45709 0.00818259 0)
(2.44608 0.00813548 0)
(2.43653 0.0172947 0)
(2.41219 0.0159315 3.03087e-20)
(2.39813 0.0468489 0)
(2.34431 0.0490642 -1.95882e-20)
(-0.0146437 0.110804 6.01623e-24)
(-0.0595133 0.12501 -1.44794e-20)
(-0.100619 0.126063 0)
(-0.143103 0.131081 1.4277e-20)
(-0.18511 0.136079 0)
(-0.227259 0.141304 0)
(-0.269366 0.146702 -5.86029e-24)
(-0.311591 0.152257 -6.9352e-21)
(-0.353941 0.157914 -6.87691e-21)
(-0.396455 0.163617 -6.83062e-21)
(-0.439117 0.16931 0)
(-0.481895 0.174911 0)
(-0.524714 0.180322 6.66477e-21)
(-0.567475 0.18541 1.32221e-20)
(-0.610042 0.190015 -1.31141e-20)
(-0.652259 0.193971 0)
(-0.693954 0.197077 -1.28963e-20)
(-0.734943 0.19915 6.40576e-21)
(-0.775011 0.199987 0)
(-0.813964 0.199387 -1.25654e-20)
(-0.85163 0.197196 -6.24412e-21)
(-0.887849 0.193273 1.23419e-20)
(-0.922459 0.18754 6.13556e-21)
(-0.955325 0.179938 0)
(-0.986296 0.170483 -1.2004e-20)
(-1.01517 0.159218 -1.18913e-20)
(-1.04173 0.146204 0)
(-1.06571 0.131507 -1.16678e-20)
(-1.08678 0.115212 0)
(-1.10458 0.0973808 -1.14503e-20)
(-1.11872 0.0781059 -5.70674e-21)
(-1.12878 0.0574744 0)
(-1.13431 0.0355837 0)
(-1.13487 0.0125654 0)
(-1.13002 -0.0114318 0)
(-1.11935 -0.0362192 0)
(-1.10247 -0.0615825 0)
(-1.07907 -0.0872613 -1.07514e-20)
(-1.04891 -0.112973 1.60827e-20)
(-1.01182 -0.138408 0)
(-0.967773 -0.163245 0)
(-0.916827 -0.187149 0)
(-0.859174 -0.209795 -6.90067e-23)
(-0.795116 -0.230859 -1.06152e-20)
(-0.725051 -0.250065 -2.11496e-20)
(-0.649468 -0.267188 2.11455e-20)
(-0.568935 -0.282064 1.05489e-20)
(-0.484088 -0.294588 -1.06046e-20)
(-0.395575 -0.304739 4.34949e-23)
(-0.304041 -0.312533 -1.05761e-20)
(-0.210112 -0.318037 0)
(-0.114418 -0.321335 -1.05925e-20)
(-0.0175557 -0.322549 2.82427e-23)
(0.0799328 -0.321812 0)
(0.177467 -0.319284 0)
(0.274551 -0.315124 1.05848e-20)
(0.370728 -0.309519 0)
(0.465579 -0.302646 0)
(0.558771 -0.294699 -1.05104e-20)
(0.649986 -0.285852 -2.09852e-20)
(0.738978 -0.276278 1.0466e-20)
(0.825513 -0.266115 0)
(0.909412 -0.255497 -1.03718e-20)
(0.990557 -0.244575 0)
(1.06881 -0.233464 -1.02438e-20)
(1.14409 -0.222275 -1.01937e-20)
(1.21637 -0.211113 2.02404e-20)
(1.28561 -0.200081 1.00441e-20)
(1.35184 -0.189243 0)
(1.4151 -0.178683 -1.97949e-20)
(1.47544 -0.168444 0)
(1.53292 -0.158576 -2.92101e-20)
(1.58763 -0.149104 -1.9303e-20)
(1.63968 -0.14005 -1.9132e-20)
(1.68918 -0.131418 1.89586e-20)
(1.73622 -0.123213 -2.81774e-20)
(1.7809 -0.115432 0)
(1.82334 -0.108068 0)
(1.86362 -0.101108 1.82489e-20)
(1.90185 -0.0945374 2.71064e-20)
(1.93813 -0.0883409 0)
(1.97255 -0.0825015 -8.85701e-21)
(2.0052 -0.0770021 0)
(2.03616 -0.0718258 2.60295e-20)
(2.06552 -0.066956 3.03208e-24)
(2.09335 -0.0623765 -2.81789e-24)
(2.11973 -0.0580718 -1.68189e-20)
(2.14473 -0.0540274 0)
(2.16841 -0.0502291 1.64677e-20)
(2.19083 -0.0466639 2.08339e-24)
(2.21206 -0.0433194 0)
(2.23214 -0.0401839 0)
(2.25114 -0.0372463 0)
(2.26911 -0.0344964 -1.56101e-20)
(2.28609 -0.0319243 0)
(2.30213 -0.0295204 0)
(2.31728 -0.0272757 0)
(2.33157 -0.0251814 0)
(2.34505 -0.0232293 0)
(2.35775 -0.0214114 -1.46175e-20)
(2.36972 -0.01972 0)
(2.38099 -0.0181476 -1.42978e-20)
(2.39159 -0.0166872 -1.41394e-20)
(2.40155 -0.0153319 1.39822e-20)
(2.41091 -0.0140752 0)
(2.4197 -0.0129108 1.36715e-20)
(2.42794 -0.0118327 0)
(2.43567 -0.0108353 1.33656e-20)
(2.4429 -0.00991313 -1.32145e-20)
(2.44967 -0.00906128 -3.91927e-20)
(2.456 -0.00827505 0)
(2.46192 -0.00755029 -3.83033e-20)
(2.46744 -0.00688274 -1.26209e-20)
(2.47259 -0.00626839 0)
(2.47739 -0.00570327 -2.46629e-20)
(2.48186 -0.00518362 -2.43765e-20)
(2.48603 -0.00470599 3.61387e-20)
(2.4899 -0.00426724 0)
(2.49349 -0.00386445 1.17653e-20)
(2.49684 -0.00349493 1.16263e-20)
(2.49994 -0.00315614 3.44648e-20)
(2.50281 -0.0028457 0)
(2.50548 -0.00256163 0)
(2.50795 -0.00230237 0)
(2.51023 -0.00206608 1.09465e-20)
(2.51234 -0.00185095 0)
(2.5143 -0.0016554 0)
(2.5161 -0.00147797 -1.05507e-20)
(2.51776 -0.00131711 -1.04205e-20)
(2.51929 -0.00117134 0)
(2.52069 -0.00103925 0)
(2.52199 -0.000919448 -2.00714e-20)
(2.52318 -0.000810585 0)
(2.52427 -0.000711377 1.95672e-20)
(2.52527 -0.000620676 1.93177e-20)
(2.52619 -0.000537486 0)
(2.52704 -0.000460962 0)
(2.52781 -0.000390388 -1.85797e-20)
(2.52851 -0.000325148 -5.68164e-26)
(2.52916 -0.000264704 -5.32064e-26)
(2.52975 -0.000208607 0)
(2.53028 -0.000156475 -3.52379e-20)
(2.53077 -0.000108014 0)
(2.53122 -6.29631e-05 0)
(2.53162 -2.10938e-05 0)
(2.53198 1.78488e-05 1.66837e-20)
(2.53231 5.41421e-05 0)
(2.53261 8.81153e-05 -3.24505e-20)
(2.53287 0.000120133 -1.59983e-20)
(2.5331 0.000150607 0)
(2.53331 0.000179992 -1.55488e-20)
(2.53349 0.000208794 0)
(2.53365 0.000237593 0)
(2.53378 0.000267029 -4.46562e-20)
(2.53388 0.000297907 2.93342e-20)
(2.53396 0.000331067 0)
(2.53401 0.000367748 2.84693e-20)
(2.53403 0.000409042 -1.40206e-20)
(2.53402 0.00045709 0)
(2.53397 0.00051312 0)
(2.53389 0.000581328 0)
(2.53374 0.000662258 -3.95332e-20)
(2.53355 0.000765236 0)
(2.53327 0.000886875 -1.27647e-20)
(2.53291 0.00105024 0)
(2.53241 0.00123699 0)
(2.5318 0.0015086 0)
(2.53095 0.00179719 0)
(2.52993 0.00227369 0)
(2.52848 0.00271609 0)
(2.52681 0.00360883 -2.27311e-20)
(2.52427 0.00426855 0)
(2.52151 0.00607868 -1.09843e-20)
(2.51695 0.00701938 3.23886e-20)
(2.51231 0.0110483 0)
(2.50384 0.0124205 0)
(2.49586 0.0224924 -2.05151e-20)
(2.48019 0.0257331 -2.01997e-20)
(2.46736 0.0543381 1.98524e-20)
(2.44409 0.0675454 1.95895e-20)
(-0.015325 0.193548 2.18354e-20)
(-0.0628773 0.218605 2.16988e-20)
(-0.106252 0.217917 1.43577e-20)
(-0.151204 0.222296 7.11696e-21)
(-0.195456 0.226419 0)
(-0.239771 0.230809 -1.40515e-20)
(-0.283827 0.235396 6.96272e-21)
(-0.327753 0.240131 0)
(-0.371497 0.244927 6.88072e-21)
(-0.415072 0.249704 0)
(-0.458434 0.25437 -1.35261e-20)
(-0.501547 0.258812 0)
(-0.544333 0.262893 -6.66842e-21)
(-0.586718 0.266475 -1.32293e-20)
(-0.628612 0.26937 1.31211e-20)
(-0.669927 0.271408 0)
(-0.710556 0.2724 1.29031e-20)
(-0.750406 0.27216 0)
(-0.789418 0.270522 0)
(-0.827509 0.267312 1.25716e-20)
(-0.864628 0.262393 0)
(-0.900732 0.255634 -5.22302e-23)
(-0.935742 0.246932 0)
(-0.96955 0.236202 0)
(-1.00196 0.223372 6.61379e-23)
(-1.03273 0.208389 1.18965e-20)
(-1.06156 0.191213 1.1708e-20)
(-1.08806 0.171822 1.16727e-20)
(-1.1118 0.150202 0)
(-1.13232 0.126378 2.28186e-20)
(-1.1491 0.100389 0)
(-1.16162 0.0723229 1.11479e-20)
(-1.16936 0.0422991 0)
(-1.17177 0.0104779 0)
(-1.16834 -0.0229224 -1.08608e-20)
(-1.15856 -0.0576416 0)
(-1.142 -0.0933634 1.07049e-20)
(-1.11828 -0.129718 1.14587e-22)
(-1.08714 -0.166275 -2.12838e-20)
(-1.04841 -0.202551 2.10791e-20)
(-1.00209 -0.238028 0)
(-0.948273 -0.272162 0)
(-0.887215 -0.304416 1.0362e-20)
(-0.819306 -0.334296 0)
(-0.745103 -0.361378 1.05462e-20)
(-0.665265 -0.385373 -1.05463e-20)
(-0.580492 -0.406084 -1.05508e-20)
(-0.491513 -0.423394 0)
(-0.399052 -0.437266 1.05677e-20)
(-0.303791 -0.447751 1.05776e-20)
(-0.206377 -0.454965 -2.10714e-20)
(-0.107449 -0.459048 1.05938e-20)
(-0.00760493 -0.460184 1.05981e-20)
(0.0925803 -0.458578 0)
(0.192521 -0.454462 0)
(0.291695 -0.448062 -1.05856e-20)
(0.389618 -0.43967 0)
(0.485864 -0.429541 0)
(0.580103 -0.417961 2.105e-20)
(0.672053 -0.405183 2.09863e-20)
(0.761495 -0.391427 0)
(0.84824 -0.376912 0)
(0.932124 -0.361813 0)
(1.01304 -0.346311 0)