/*--------------------------------*- C++ -*----------------------------------*\
  =========                 |
  \\      /  F ield         | OpenFOAM: The Open Source CFD Toolbox
   \\    /   O peration     | Website:  https://openfoam.org
    \\  /    A nd           | Version:  7
     \\/     M anipulation  |
\*---------------------------------------------------------------------------*/
FoamFile
{
    version     2.0;
    format      ascii;
    class       volSymmTensorField;
    location    "0.028";
    object      UPrime2Mean;
}
// * * * * * * * * * * * * * * * * * * * * * * * * * * * * * * * * * * * * * //

dimensions      [0 2 -2 0 0 0 0];

internalField   nonuniform List<symmTensor> 
12225
(
(0.00580266 -0.000403179 0 0.000606649 0 0)
(0.0678839 -0.00296696 0 0.000385501 0 0)
(0.0994751 -0.00440026 0 0.000412501 0 0)
(0.132294 -0.00536185 0 0.000410723 0 0)
(0.18747 -0.00656295 0 0.000403099 0 0)
(0.266593 -0.00798138 0 0.000390483 0 0)
(0.367242 -0.00942901 0 0.000389822 0 0)
(0.48674 -0.0101445 0 0.000324915 0 0)
(0.620996 -0.0114261 0 0.000323072 0 0)
(0.767967 -0.00993402 0 0.000214718 0 0)
(0.927195 -0.0134252 0 0.00027107 0 0)
(1.09154 -0.00710277 0 0.000148966 0 0)
(1.28669 -0.0214659 0 0.000488263 0 0)
(1.47486 0.00125289 0 0.000435003 0 0)
(1.77012 -0.0555343 0 0.00287271 0 0)
(2.0669 0.0329344 0 0.00387856 0 0)
(2.69501 -0.227442 0 0.0351597 0 0)
(3.78038 0.0951228 0 0.0180585 0 0)
(0.0057912 -0.000299179 0 0.000589073 0 0)
(0.0454949 -0.00172447 0 0.000285899 0 0)
(0.050182 -0.00269238 0 0.000475223 0 0)
(0.0515654 -0.00320639 0 0.000686829 0 0)
(0.0608066 -0.00418617 0 0.000923764 0 0)
(0.0765772 -0.00591074 0 0.00120801 0 0)
(0.0992089 -0.00817959 0 0.00146164 0 0)
(0.131263 -0.0111721 0 0.00178384 0 0)
(0.171903 -0.0139289 0 0.00186228 0 0)
(0.228266 -0.0182171 0 0.00219011 0 0)
(0.292609 -0.0204157 0 0.00199498 0 0)
(0.384574 -0.0280325 0 0.00262004 0 0)
(0.477992 -0.0284298 0 0.00220568 0 0)
(0.630972 -0.0474715 0 0.00417763 0 0)
(0.768408 -0.045208 0 0.00368748 0 0)
(1.07075 -0.107385 0 0.0130948 0 0)
(1.30765 -0.129052 0 0.0144408 0 0)
(1.97966 -0.42504 0 0.113487 0 0)
(0.00512488 -9.45358e-05 0 0.000898939 0 0)
(0.0446632 -0.00255998 0 0.000597443 0 0)
(0.047589 -0.0036376 0 0.000905392 0 0)
(0.0459876 -0.00383451 0 0.00125706 0 0)
(0.0496296 -0.00430035 0 0.00163095 0 0)
(0.0554583 -0.00527885 0 0.00203876 0 0)
(0.0628428 -0.00669261 0 0.00257229 0 0)
(0.0721381 -0.00832609 0 0.0029474 0 0)
(0.0844513 -0.0106129 0 0.00355418 0 0)
(0.100548 -0.0127642 0 0.00373068 0 0)
(0.123203 -0.0170193 0 0.00454801 0 0)
(0.15259 -0.0199178 0 0.00451448 0 0)
(0.195239 -0.0295352 0 0.00644419 0 0)
(0.250655 -0.03413 0 0.00630801 0 0)
(0.335052 -0.0622384 0 0.013484 0 0)
(0.447942 -0.078023 0 0.0149695 0 0)
(0.614176 -0.177569 0 0.0546982 0 0)
(0.822335 -0.306201 0 0.120468 0 0)
(0.00505352 -0.000796421 0 0.00111573 0 0)
(0.0445773 -0.00300221 0 0.000820147 0 0)
(0.0472617 -0.00385907 0 0.00109286 0 0)
(0.0455772 -0.00406799 0 0.00149239 0 0)
(0.0487675 -0.00452533 0 0.00190024 0 0)
(0.0536903 -0.00548634 0 0.00237962 0 0)
(0.0595781 -0.00681253 0 0.00290783 0 0)
(0.0666854 -0.00845597 0 0.00356953 0 0)
(0.0753507 -0.0103197 0 0.0041371 0 0)
(0.086819 -0.0129477 0 0.00495705 0 0)
(0.101787 -0.0160884 0 0.00563653 0 0)
(0.122739 -0.0214016 0 0.00703812 0 0)
(0.150765 -0.0280198 0 0.00844964 0 0)
(0.191283 -0.0408509 0 0.0120731 0 0)
(0.246566 -0.0592242 0 0.0173429 0 0)
(0.324215 -0.0964678 0 0.0318526 0 0)
(0.424803 -0.163199 0 0.0650768 0 0)
(0.521959 -0.269434 0 0.142256 0 0)
(0.00584084 -0.000480356 0 0.00133577 0 0)
(0.0438619 -0.00343836 0 0.0010411 0 0)
(0.0457704 -0.0042798 0 0.0013529 0 0)
(0.0441286 -0.00452262 0 0.00188697 0 0)
(0.047453 -0.00507353 0 0.00243562 0 0)
(0.052324 -0.00617009 0 0.00301316 0 0)
(0.0580113 -0.00770751 0 0.00373375 0 0)
(0.0647306 -0.00956327 0 0.00448065 0 0)
(0.0729205 -0.0119254 0 0.00545451 0 0)
(0.0833335 -0.0147757 0 0.00642055 0 0)
(0.0970402 -0.0190394 0 0.00789048 0 0)
(0.115317 -0.0245741 0 0.00957682 0 0)
(0.140023 -0.0337236 0 0.0127326 0 0)
(0.173517 -0.0466626 0 0.0171982 0 0)
(0.218409 -0.0694285 0 0.0267968 0 0)
(0.275656 -0.10537 0 0.0447737 0 0)
(0.341513 -0.164654 0 0.0830683 0 0)
(0.392818 -0.254547 0 0.171432 0 0)
(0.00493675 -0.000960824 0 0.00147772 0 0)
(0.0429881 -0.00405785 0 0.0013371 0 0)
(0.0445218 -0.00473504 0 0.00175138 0 0)
(0.0427747 -0.00489015 0 0.00243083 0 0)
(0.0459073 -0.00544084 0 0.00311504 0 0)
(0.0504208 -0.00658716 0 0.00382806 0 0)
(0.0556661 -0.00822955 0 0.00464735 0 0)
(0.0619285 -0.0103217 0 0.00563932 0 0)
(0.0696052 -0.0129456 0 0.00679684 0 0)
(0.0792951 -0.0163758 0 0.00824508 0 0)
(0.0918476 -0.0210647 0 0.0101156 0 0)
(0.108166 -0.0277549 0 0.0128182 0 0)
(0.129725 -0.0375796 0 0.0169319 0 0)
(0.157558 -0.0523448 0 0.0237072 0 0)
(0.193248 -0.0753162 0 0.035774 0 0)
(0.234259 -0.109903 0 0.0578253 0 0)
(0.27686 -0.161642 0 0.100222 0 0)
(0.303701 -0.227438 0 0.176182 0 0)
(0.00561212 -0.000897081 0 0.00161883 0 0)
(0.0429639 -0.00460818 0 0.00169216 0 0)
(0.0438831 -0.00527771 0 0.00210551 0 0)
(0.041779 -0.00542692 0 0.00286693 0 0)
(0.0445632 -0.00604658 0 0.00370305 0 0)
(0.0485997 -0.00729646 0 0.00457977 0 0)
(0.0532665 -0.00906543 0 0.00560528 0 0)
(0.0588317 -0.0113011 0 0.00682603 0 0)
(0.0656334 -0.0141362 0 0.00833019 0 0)
(0.0741741 -0.0178378 0 0.0102156 0 0)
(0.0851409 -0.0229522 0 0.0127329 0 0)
(0.0991714 -0.0301764 0 0.0163414 0 0)
(0.117129 -0.0405886 0 0.0217818 0 0)
(0.13928 -0.0557775 0 0.0305699 0 0)
(0.165858 -0.0778163 0 0.0450322 0 0)
(0.193696 -0.109217 0 0.0702343 0 0)
(0.219213 -0.150807 0 0.111899 0 0)
(0.230293 -0.199115 0 0.180327 0 0)
(0.00386519 -0.00083036 0 0.0018972 0 0)
(0.0411677 -0.00492725 0 0.00200728 0 0)
(0.0422533 -0.00544052 0 0.00264767 0 0)
(0.0403669 -0.00545706 0 0.00352945 0 0)
(0.0431142 -0.00608992 0 0.00450463 0 0)
(0.0468102 -0.00739915 0 0.00554836 0 0)
(0.0509309 -0.00923086 0 0.00675395 0 0)
(0.0558152 -0.0115715 0 0.00823558 0 0)
(0.0617877 -0.014584 0 0.0101055 0 0)
(0.0692342 -0.0185618 0 0.0125254 0 0)
(0.0786319 -0.0239939 0 0.0157747 0 0)
(0.0903264 -0.031521 0 0.0203872 0 0)
(0.10472 -0.042065 0 0.0271926 0 0)
(0.121574 -0.0567942 0 0.0377235 0 0)
(0.140405 -0.0770658 0 0.0542032 0 0)
(0.158216 -0.103838 0 0.0806053 0 0)
(0.172072 -0.136505 0 0.120935 0 0)
(0.174379 -0.171202 0 0.181286 0 0)
(0.00560412 -0.00126738 0 0.00185811 0 0)
(0.0419255 -0.00585563 0 0.00223439 0 0)
(0.0419467 -0.00629682 0 0.00297423 0 0)
(0.0396585 -0.00611609 0 0.00396869 0 0)
(0.042226 -0.00672775 0 0.00512514 0 0)
(0.0456866 -0.00814211 0 0.00639602 0 0)
(0.0494369 -0.0101178 0 0.00786374 0 0)
(0.0537832 -0.0126068 0 0.00965687 0 0)
(0.0589741 -0.0157656 0 0.0119202 0 0)
(0.0652703 -0.0198823 0 0.0148758 0 0)
(0.0729759 -0.0253993 0 0.0188412 0 0)
(0.0822352 -0.0328779 0 0.0244194 0 0)
(0.0931365 -0.0430167 0 0.032437 0 0)
(0.105152 -0.0565927 0 0.0443911 0 0)
(0.117536 -0.074267 0 0.0621234 0 0)
(0.127749 -0.0960766 0 0.0887183 0 0)
(0.133878 -0.120771 0 0.126585 0 0)
(0.131206 -0.144782 0 0.179027 0 0)
(0.00482833 -0.00119387 0 0.00215224 0 0)
(0.041295 -0.00621913 0 0.00262911 0 0)
(0.0413449 -0.00658686 0 0.00353186 0 0)
(0.0390455 -0.00626672 0 0.00464645 0 0)
(0.0414278 -0.00680603 0 0.00594432 0 0)
(0.0445122 -0.00820476 0 0.0073979 0 0)
(0.0477369 -0.0101787 0 0.00909762 0 0)
(0.0514073 -0.0126645 0 0.0111974 0 0)
(0.0557246 -0.0158211 0 0.0138735 0 0)
(0.0608564 -0.019923 0 0.0173785 0 0)
(0.0669718 -0.0253448 0 0.0220523 0 0)
(0.0740491 -0.0325112 0 0.0285084 0 0)
(0.0819597 -0.0419 0 0.0375439 0 0)
(0.0900364 -0.0539063 0 0.0504971 0 0)
(0.0975176 -0.0687082 0 0.0688098 0 0)
(0.102415 -0.0857955 0 0.0947444 0 0)
(0.103728 -0.10381 0 0.129527 0 0)
(0.0984554 -0.119783 0 0.175054 0 0)
(0.00529049 -0.00143969 0 0.00230633 0 0)
(0.041403 -0.00708772 0 0.00294711 0 0)
(0.0405359 -0.00750525 0 0.00391465 0 0)
(0.0376457 -0.00699561 0 0.00515282 0 0)
(0.0397105 -0.00747143 0 0.00662527 0 0)
(0.0425914 -0.00892268 0 0.00832051 0 0)
(0.0455771 -0.0109651 0 0.0103016 0 0)
(0.0488566 -0.0134735 0 0.0127228 0 0)
(0.0525632 -0.0165824 0 0.0157822 0 0)
(0.0568033 -0.0205535 0 0.0197725 0 0)
(0.0616407 -0.0257063 0 0.0250565 0 0)
(0.0669456 -0.0323438 0 0.0322197 0 0)
(0.0724604 -0.0407313 0 0.0419693 0 0)
(0.0775355 -0.0509776 0 0.0554259 0 0)
(0.0814922 -0.0629211 0 0.0736389 0 0)
(0.0829342 -0.0758312 0 0.0981764 0 0)
(0.0814082 -0.0884117 0 0.129486 0 0)
(0.0751239 -0.0984428 0 0.168647 0 0)
(0.00471936 -0.00127913 0 0.00264169 0 0)
(0.0402675 -0.00694753 0 0.00335353 0 0)
(0.0393491 -0.00736043 0 0.00437252 0 0)
(0.0364113 -0.0066786 0 0.00572996 0 0)
(0.0381515 -0.00696725 0 0.0073569 0 0)
(0.0404458 -0.00824768 0 0.00925684 0 0)
(0.0427147 -0.0101045 0 0.011496 0 0)
(0.0452221 -0.0123898 0 0.0142277 0 0)
(0.0480655 -0.0152133 0 0.0176704 0 0)
(0.0512501 -0.018787 0 0.0221199 0 0)
(0.0547163 -0.023348 0 0.0279259 0 0)
(0.0582389 -0.029066 0 0.0356254 0 0)
(0.0615255 -0.0360464 0 0.0458174 0 0)
(0.0640395 -0.0441923 0 0.059409 0 0)
(0.0653302 -0.0531973 0 0.077114 0 0)
(0.0644767 -0.06226 0 0.100012 0 0)
(0.0614739 -0.0703467 0 0.128086 0 0)
(0.0551006 -0.0757096 0 0.162024 0 0)
(0.00494893 -0.00176109 0 0.00291866 0 0)
(0.0410358 -0.0076639 0 0.00372043 0 0)
(0.0397108 -0.00801194 0 0.00478209 0 0)
(0.0363558 -0.00722806 0 0.00622131 0 0)
(0.037807 -0.00748862 0 0.00797106 0 0)
(0.0398797 -0.00879783 0 0.0100617 0 0)
(0.0418647 -0.010679 0 0.0125505 0 0)
(0.0439373 -0.0129263 0 0.0155645 0 0)
(0.0461614 -0.0156102 0 0.0193062 0 0)
(0.0485307 -0.0189048 0 0.0240635 0 0)
(0.050974 -0.0229903 0 0.0301757 0 0)
(0.0532725 -0.0279481 0 0.0381321 0 0)
(0.0551443 -0.0337738 0 0.0484259 0 0)
(0.0561407 -0.040248 0 0.0617728 0 0)
(0.0559398 -0.0469994 0 0.0786125 0 0)
(0.0539419 -0.0532465 0 0.0996868 0 0)
(0.0503611 -0.0581946 0 0.124688 0 0)
(0.0443734 -0.0604712 0 0.154104 0 0)
(0.00493688 -0.00158354 0 0.00351237 0 0)
(0.0402015 -0.00740389 0 0.00453443 0 0)
(0.0386655 -0.00766972 0 0.00570816 0 0)
(0.0353351 -0.00674627 0 0.00726564 0 0)
(0.0365984 -0.0068487 0 0.00914768 0 0)
(0.0382337 -0.00797672 0 0.0113769 0 0)
(0.0396154 -0.00961761 0 0.0140595 0 0)
(0.0409512 -0.0115354 0 0.0173464 0 0)
(0.0422991 -0.0137624 0 0.0214189 0 0)
(0.0436395 -0.0164279 0 0.0265291 0 0)
(0.0448975 -0.0196614 0 0.032952 0 0)
(0.0458877 -0.0234651 0 0.0410737 0 0)
(0.0463778 -0.0277317 0 0.0512414 0 0)
(0.0460534 -0.0321493 0 0.0639735 0 0)
(0.0447347 -0.0363331 0 0.0794756 0 0)
(0.0421219 -0.0396092 0 0.0982391 0 0)
(0.0385559 -0.0414351 0 0.119782 0 0)
(0.0335088 -0.0408326 0 0.144504 0 0)
(0.00517646 -0.00145381 0 0.00342192 0 0)
(0.0399965 -0.00837453 0 0.00477093 0 0)
(0.0381246 -0.00871989 0 0.00629435 0 0)
(0.0343709 -0.00763272 0 0.00812298 0 0)
(0.0352538 -0.00752427 0 0.0101987 0 0)
(0.0364904 -0.0084591 0 0.0126075 0 0)
(0.0374231 -0.00991762 0 0.0154805 0 0)
(0.0382288 -0.0115797 0 0.0189588 0 0)
(0.0389319 -0.0133927 0 0.0232017 0 0)
(0.0394943 -0.0154205 0 0.0284239 0 0)
(0.0398421 -0.0177259 0 0.0348468 0 0)
(0.0398376 -0.0202574 0 0.0427677 0 0)
(0.039325 -0.0228748 0 0.0524052 0 0)
(0.038147 -0.0252759 0 0.0640971 0 0)
(0.0362705 -0.0271443 0 0.0778592 0 0)
(0.033619 -0.0279572 0 0.0939854 0 0)
(0.0305765 -0.0273925 0 0.111923 0 0)
(0.0267932 -0.0247664 0 0.132014 0 0)
(0.00540406 -0.00145715 0 0.00368304 0 0)
(0.0396761 -0.00827815 0 0.00492984 0 0)
(0.0372015 -0.00866285 0 0.00637225 0 0)
(0.0330014 -0.00742009 0 0.00825161 0 0)
(0.0334375 -0.00706944 0 0.0104853 0 0)
(0.0341843 -0.00770674 0 0.0130917 0 0)
(0.0346319 -0.00876308 0 0.0161362 0 0)
(0.0349333 -0.00986945 0 0.0197238 0 0)
(0.035048 -0.0109391 0 0.0239937 0 0)
(0.0349235 -0.0120134 0 0.0291284 0 0)
(0.0345359 -0.0131334 0 0.0352981 0 0)
(0.033838 -0.0142216 0 0.0427079 0 0)
(0.0327725 -0.0151251 0 0.0514551 0 0)
(0.0313102 -0.0155612 0 0.0617238 0 0)
(0.0295058 -0.0152993 0 0.0733981 0 0)
(0.0274169 -0.0139508 0 0.0866496 0 0)
(0.0253858 -0.0113962 0 0.100928 0 0)
(0.0231723 -0.00714579 0 0.116572 0 0)
(0.0060258 -0.00136026 0 0.00390242 0 0)
(0.040579 -0.00860976 0 0.00520959 0 0)
(0.0375926 -0.00918563 0 0.00680373 0 0)
(0.0329259 -0.00784841 0 0.00883433 0 0)
(0.0329086 -0.00731357 0 0.0111189 0 0)
(0.0331563 -0.0077083 0 0.0137189 0 0)
(0.0330747 -0.00840984 0 0.0166959 0 0)
(0.0328431 -0.00901045 0 0.020149 0 0)
(0.0324505 -0.00941685 0 0.0242115 0 0)
(0.0318753 -0.00966907 0 0.0290136 0 0)
(0.0311176 -0.00979743 0 0.0346365 0 0)
(0.0301745 -0.00972043 0 0.0411751 0 0)
(0.0290403 -0.00931012 0 0.0486223 0 0)
(0.0277654 -0.00834201 0 0.0570495 0 0)
(0.0264354 -0.00668171 0 0.0662883 0 0)
(0.025176 -0.0040626 0 0.0764579 0 0)
(0.0242485 -0.00051175 0 0.0870861 0 0)
(0.0235045 0.00433571 0 0.0985119 0 0)
(0.00522511 -0.00141369 0 0.0038202 0 0)
(0.0394493 -0.00887712 0 0.00514214 0 0)
(0.0365551 -0.00947812 0 0.0063922 0 0)
(0.0317744 -0.00815566 0 0.00817448 0 0)
(0.0313855 -0.00757188 0 0.0103044 0 0)
(0.0310496 -0.00772186 0 0.0127084 0 0)
(0.0303574 -0.00801452 0 0.015393 0 0)
(0.0296347 -0.00811723 0 0.018437 0 0)
(0.0289134 -0.00795245 0 0.0219373 0 0)
(0.0281564 -0.00753702 0 0.0259781 0 0)
(0.0273546 -0.00686973 0 0.0305932 0 0)
(0.0265271 -0.00587025 0 0.0358165 0 0)
(0.0257043 -0.00443815 0 0.0415992 0 0)
(0.0249822 -0.00243506 0 0.0479583 0 0)
(0.0244536 0.000193796 0 0.0547223 0 0)
(0.0242575 0.00358058 0 0.0619727 0 0)
(0.0245619 0.00765319 0 0.0693321 0 0)
(0.025284 0.0126115 0 0.077101 0 0)
(0.0053227 -0.00108842 0 0.00361455 0 0)
(0.0397529 -0.00842253 0 0.00459507 0 0)
(0.0360139 -0.00860383 0 0.00570763 0 0)
(0.0306085 -0.00687894 0 0.00721678 0 0)
(0.0298298 -0.00576773 0 0.00891448 0 0)
(0.0291258 -0.00531841 0 0.0108366 0 0)
(0.0281652 -0.00500931 0 0.0130227 0 0)
(0.0273332 -0.00450802 0 0.0154761 0 0)
(0.0266583 -0.00370205 0 0.018192 0 0)
(0.0260927 -0.0025866 0 0.0211853 0 0)
(0.0256332 -0.00117479 0 0.0244644 0 0)
(0.0253219 0.000560743 0 0.0280488 0 0)
(0.0252179 0.00265839 0 0.0319016 0 0)
(0.025431 0.00518498 0 0.0360263 0 0)
(0.0260419 0.00814863 0 0.0403027 0 0)
(0.0271603 0.0116161 0 0.044788 0 0)
(0.0288759 0.0155015 0 0.0492397 0 0)
(0.0311304 0.0199274 0 0.0538642 0 0)
(0.00510302 -0.00142531 0 0.00377755 0 0)
(0.038874 -0.00790787 0 0.00453067 0 0)
(0.0346826 -0.00759994 0 0.0054293 0 0)
(0.0291967 -0.00575195 0 0.00665816 0 0)
(0.0282193 -0.00456689 0 0.00792006 0 0)
(0.0273759 -0.00403144 0 0.00929036 0 0)
(0.0263552 -0.00361673 0 0.010867 0 0)
(0.0255159 -0.00297673 0 0.0126685 0 0)
(0.0248959 -0.00199326 0 0.0146675 0 0)
(0.0244825 -0.000675851 0 0.0168406 0 0)
(0.0243122 0.000937008 0 0.0191617 0 0)
(0.0244508 0.0028343 0 0.0216159 0 0)
(0.0249569 0.00502002 0 0.0241592 0 0)
(0.0259108 0.0075195 0 0.0267925 0 0)
(0.02737 0.0103202 0 0.0294373 0 0)
(0.029399 0.0134502 0 0.0321479 0 0)
(0.0320573 0.0168395 0 0.0347724 0 0)
(0.0352897 0.0205618 0 0.0374519 0 0)
(0.00556598 -0.00127769 0 0.00337693 0 0)
(0.0391138 -0.00697024 0 0.00386378 0 0)
(0.0345033 -0.00640383 0 0.00443454 0 0)
(0.0288753 -0.00449208 0 0.00529646 0 0)
(0.0278325 -0.00320997 0 0.00622176 0 0)
(0.0269279 -0.00247875 0 0.00721031 0 0)
(0.0259447 -0.0018302 0 0.00827591 0 0)
(0.0252891 -0.000996139 0 0.00941373 0 0)
(0.0249785 0.000104399 0 0.0106227 0 0)
(0.0249621 0.0014663 0 0.0119113 0 0)
(0.0252725 0.00306155 0 0.0132815 0 0)
(0.02599 0.00487265 0 0.0147352 0 0)
(0.027184 0.00689176 0 0.0162487 0 0)
(0.0289126 0.00912453 0 0.0178212 0 0)
(0.0312065 0.0115572 0 0.0194007 0 0)
(0.0340836 0.0141983 0 0.0210113 0 0)
(0.0375805 0.0170002 0 0.0225619 0 0)
(0.0416168 0.0199978 0 0.0241278 0 0)
(0.00495883 -0.000827099 0 0.00308579 0 0)
(0.0382287 -0.00578489 0 0.00294913 0 0)
(0.033507 -0.00542823 0 0.00339325 0 0)
(0.0279204 -0.00366594 0 0.00410341 0 0)
(0.0269153 -0.00231814 0 0.004864 0 0)
(0.026095 -0.00145178 0 0.00567211 0 0)
(0.0253011 -0.000686785 0 0.00652757 0 0)
(0.0249365 0.000250168 0 0.00742182 0 0)
(0.025026 0.00145217 0 0.008347 0 0)
(0.0255407 0.00289281 0 0.00930567 0 0)
(0.0264977 0.00451002 0 0.0102981 0 0)
(0.0279344 0.00626615 0 0.0113265 0 0)
(0.0298784 0.00814695 0 0.0123721 0 0)
(0.0323706 0.0101608 0 0.0134311 0 0)
(0.0354269 0.0122979 0 0.0144629 0 0)
(0.039077 0.0145771 0 0.0154892 0 0)
(0.0433402 0.0169474 0 0.0164444 0 0)
(0.0481827 0.0194551 0 0.0173899 0 0)
(0.00581479 -0.000930181 0 0.00283704 0 0)
(0.0378997 -0.00517746 0 0.00275459 0 0)
(0.0329985 -0.0045849 0 0.00294848 0 0)
(0.0273696 -0.0028531 0 0.00328384 0 0)
(0.0262353 -0.00159371 0 0.00363872 0 0)
(0.0252162 -0.000822677 0 0.00398494 0 0)
(0.0242581 -0.000189742 0 0.0043432 0 0)
(0.0238858 0.000544075 0 0.0047488 0 0)
(0.0241454 0.00146392 0 0.00522101 0 0)
(0.0249397 0.00256175 0 0.00575886 0 0)
(0.0262241 0.00379899 0 0.00634387 0 0)
(0.027999 0.00514496 0 0.00695328 0 0)
(0.0302753 0.00658509 0 0.00756384 0 0)
(0.0330845 0.00812017 0 0.0081719 0 0)
(0.0364553 0.00973441 0 0.00875519 0 0)
(0.0404046 0.0114279 0 0.00932779 0 0)
(0.0449553 0.0131588 0 0.00985368 0 0)
(0.0500466 0.0149433 0 0.0103574 0 0)
(0.00590258 -0.0011275 0 0.0025171 0 0)
(0.0379289 -0.00474862 0 0.00242605 0 0)
(0.0321675 -0.0037352 0 0.00248478 0 0)
(0.0264036 -0.00194265 0 0.00280074 0 0)
(0.0256204 -0.000671008 0 0.00316627 0 0)
(0.0249676 7.87605e-05 0 0.00350701 0 0)
(0.0242807 0.00064595 0 0.00380787 0 0)
(0.0241498 0.00128795 0 0.00409347 0 0)
(0.0247028 0.00210955 0 0.004392 0 0)
(0.0258748 0.0031055 0 0.00471509 0 0)
(0.0276159 0.00423074 0 0.00505449 0 0)
(0.0299204 0.0054456 0 0.00540166 0 0)
(0.0328152 0.00672934 0 0.0057492 0 0)
(0.0363321 0.00807531 0 0.00609968 0 0)
(0.0404929 0.0094651 0 0.00643678 0 0)
(0.0452738 0.0108923 0 0.00677346 0 0)
(0.0506919 0.0123239 0 0.00707909 0 0)
(0.0566419 0.0137784 0 0.00736325 0 0)
(0.00540664 -0.00116323 0 0.00213937 0 0)
(0.0368149 -0.00399983 0 0.00184453 0 0)
(0.0305021 -0.00295564 0 0.00172815 0 0)
(0.0247318 -0.00152516 0 0.00181839 0 0)
(0.0240695 -0.000532536 0 0.00193064 0 0)
(0.0235993 5.96139e-05 0 0.00198973 0 0)
(0.0232586 0.000482064 0 0.00204468 0 0)
(0.0236221 0.000927265 0 0.0021478 0 0)
(0.0247078 0.00148821 0 0.00230145 0 0)
(0.0263723 0.00216571 0 0.00247687 0 0)
(0.0285724 0.0029204 0 0.00264847 0 0)
(0.0313575 0.00372259 0 0.00281148 0 0)
(0.0348013 0.00455838 0 0.00296839 0 0)
(0.0389454 0.00542341 0 0.00312464 0 0)
(0.0438043 0.00630879 0 0.00327354 0 0)
(0.04933 0.00721223 0 0.00342171 0 0)
(0.0555258 0.00811095 0 0.00355358 0 0)
(0.062266 0.00902558 0 0.00367276 0 0)
(0.00560344 -0.000997152 0 0.00184173 0 0)
(0.036585 -0.00310557 0 0.00124552 0 0)
(0.0296498 -0.00248265 0 0.00113488 0 0)
(0.0239671 -0.00125082 0 0.0013226 0 0)
(0.0235141 -0.000247919 0 0.00144269 0 0)
(0.0232355 0.000362423 0 0.001459 0 0)
(0.0232491 0.000783844 0 0.00145112 0 0)
(0.024154 0.00120706 0 0.00147752 0 0)
(0.0258877 0.00171914 0 0.00153881 0 0)
(0.028242 0.00231895 0 0.00161338 0 0)
(0.0311678 0.00297009 0 0.00168719 0 0)
(0.0347329 0.00364024 0 0.00175743 0 0)
(0.039011 0.00431037 0 0.00182485 0 0)
(0.0440232 0.00497353 0 0.00189198 0 0)
(0.0497552 0.00562078 0 0.00195331 0 0)
(0.0561362 0.00625492 0 0.00201226 0 0)
(0.0631654 0.00685815 0 0.00206028 0 0)
(0.0707117 0.00744882 0 0.00210095 0 0)
(0.00402243 -0.00060078 0 0.00162332 0 0)
(0.0343948 -0.00147721 0 0.000790368 0 0)
(0.0276678 -0.000920767 0 0.000538936 0 0)
(0.0227158 -0.000254995 0 0.000567587 0 0)
(0.0228348 0.000249093 0 0.000578513 0 0)
(0.0229903 0.000490312 0 0.000574154 0 0)
(0.023406 0.000616405 0 0.000585484 0 0)
(0.0247439 0.000751774 0 0.000608537 0 0)
(0.026987 0.000941589 0 0.000632875 0 0)
(0.0299663 0.00117442 0 0.000653773 0 0)
(0.033659 0.00142309 0 0.000671133 0 0)
(0.038118 0.00166643 0 0.000687431 0 0)
(0.0433649 0.00189466 0 0.00070455 0 0)
(0.0493524 0.00210555 0 0.000724388 0 0)
(0.0560171 0.00229659 0 0.000745819 0 0)
(0.0632644 0.00247008 0 0.000770247 0 0)
(0.0711084 0.00261335 0 0.000794551 0 0)
(0.0794239 0.00273799 0 0.000818384 0 0)
(0.00617185 -0.000724277 0 0.00113585 0 0)
(0.0346306 -0.00169881 0 0.000558597 0 0)
(0.0268624 -0.00126663 0 0.000527833 0 0)
(0.0225107 -0.000431839 0 0.000522793 0 0)
(0.0231194 0.000103353 0 0.000451668 0 0)
(0.0236661 0.000357037 0 0.000384458 0 0)
(0.0247667 0.000526339 0 0.000346937 0 0)
(0.0270979 0.000683456 0 0.000325442 0 0)
(0.0304849 0.000816803 0 0.000311061 0 0)
(0.0346264 0.000919856 0 0.000302599 0 0)
(0.0394423 0.00100596 0 0.000299639 0 0)
(0.0449879 0.00108773 0 0.000301766 0 0)
(0.0512873 0.00116963 0 0.000309307 0 0)
(0.0583044 0.00124585 0 0.000322118 0 0)
(0.0659467 0.0013017 0 0.000338809 0 0)
(0.0741269 0.00131736 0 0.000359545 0 0)
(0.0828049 0.00127405 0 0.000382487 0 0)
(0.0918784 0.00116899 0 0.000405755 0 0)
(0.00412629 -0.00012847 0 0.000880853 0 0)
(0.0323832 0.000266334 0 0.000229793 0 0)
(0.0248969 -9.68811e-06 0 0.000184205 0 0)
(0.0211537 6.17128e-05 0 0.000188988 0 0)
(0.0223257 2.05269e-05 0 0.000199195 0 0)
(0.0234377 -0.000124905 0 0.00020846 0 0)
(0.0250054 -0.00030671 0 0.000219428 0 0)
(0.0275858 -0.00049668 0 0.000232935 0 0)
(0.0309134 -0.000690283 0 0.000250001 0 0)
(0.0346277 -0.000887994 0 0.000270572 0 0)
(0.0385743 -0.00108683 0 0.000293224 0 0)
(0.0427615 -0.00128191 0 0.000317071 0 0)
(0.0471684 -0.00146478 0 0.000342497 0 0)
(0.0518013 -0.0016316 0 0.000370787 0 0)
(0.0565394 -0.00178148 0 0.000401756 0 0)
(0.0613982 -0.00192513 0 0.000436888 0 0)
(0.0662045 -0.00206752 0 0.000476717 0 0)
(0.0710631 -0.0022212 0 0.000518735 0 0)
(0.00549936 -0.000380663 0 0.000695341 0 0)
(0.0348916 -0.000134509 0 0.000227596 0 0)
(0.0307853 2.7823e-06 0 0.000141288 0 0)
(0.0294467 0.000153272 0 9.89177e-05 0 0)
(0.0322852 0.000190289 0 7.91865e-05 0 0)
(0.0348754 0.000218693 0 6.9942e-05 0 0)
(0.0373496 0.000263066 0 6.54006e-05 0 0)
(0.0403034 0.000314037 0 6.49053e-05 0 0)
(0.0439468 0.000362904 0 6.76547e-05 0 0)
(0.0483039 0.00040903 0 7.28075e-05 0 0)
(0.053342 0.000459352 0 7.97377e-05 0 0)
(0.0590196 0.000523391 0 8.79293e-05 0 0)
(0.0653658 0.000608639 0 9.67695e-05 0 0)
(0.0724406 0.000714873 0 0.000105641 0 0)
(0.0803868 0.000834996 0 0.000114577 0 0)
(0.0891495 0.000959191 0 0.000124298 0 0)
(0.098898 0.001082 0 0.000134056 0 0)
(0.109298 0.00120458 0 0.000142896 0 0)
(0.00026985 -0.000672004 2.39692e-22 0.00171305 -4.74465e-22 3.33485e-37)
(0.00281322 -0.00244164 -7.25894e-22 0.00222448 4.57353e-22 3.28821e-37)
(0.00839457 -0.00418358 0 0.00220051 0 0)
(0.0167886 -0.00585602 0 0.00214912 0 0)
(0.0279688 -0.00748133 0 0.00208939 0 0)
(0.0418932 -0.00906584 2.65044e-21 0.00203007 -4.64958e-22 3.09725e-37)
(0.0584944 -0.0106052 0 0.00197492 0 0)
(0.0777508 -0.0121016 0 0.00192759 0 0)
(0.099606 -0.0135563 0 0.00189131 0 0)
(0.124029 -0.0149757 0 0.00186894 0 0)
(0.150979 -0.0163671 -5.09056e-21 0.00186317 4.80728e-22 2.86892e-37)
(0.180443 -0.0177391 0 0.00187639 0 0)
(0.212441 -0.0191 0 0.00191135 0 0)
(0.247007 -0.0204592 0 0.00197122 0 0)
(0.284247 -0.0218157 0 0.00205824 0 0)
(0.324355 -0.0231771 -7.51389e-21 0.0021776 4.81893e-22 2.65178e-37)
(0.36763 -0.0245722 0 0.00233865 0 0)
(0.414534 -0.0260695 0 0.00255778 0 0)
(0.465734 -0.0277876 0 0.00285609 0 0)
(0.522138 -0.0298843 0 0.00325029 0 0)
(0.584916 -0.0325379 0 0.00374703 0 0)
(0.655406 -0.0358913 0 0.00432834 0 0)
(0.735036 -0.0400116 0 0.00496009 0 0)
(0.825191 -0.0448608 -1.11793e-20 0.00559396 4.64566e-22 2.32726e-37)
(0.927063 -0.0502981 1.15945e-20 0.00617518 -4.54209e-22 2.28867e-37)
(1.04153 -0.0561128 -1.19934e-20 0.00666423 4.41251e-22 2.25052e-37)
(1.16905 -0.0620535 -1.23741e-20 0.00703608 4.25907e-22 2.2128e-37)
(1.30964 -0.0678678 0 0.00727965 0 0)
(1.46287 -0.073315 0 0.00739341 0 0)
(1.62784 -0.0781536 1.33891e-20 0.00737725 -3.68125e-22 2.10229e-37)
(1.80318 -0.0821801 1.36797e-20 0.00724108 -3.45767e-22 2.06633e-37)
(1.98707 -0.0851951 0 0.00699236 0 0)
(2.17725 -0.0870232 0 0.0066423 0 0)
(2.37106 -0.0875291 1.43876e-20 0.00620654 -2.72418e-22 1.96105e-37)
(2.56541 -0.086596 0 0.00569954 0 0)
(2.75695 -0.0841574 0 0.00513965 0 0)
(2.94209 -0.0801829 -1.4821e-20 0.00454462 1.93692e-22 1.85969e-37)
(3.11709 -0.0746995 0 0.0039348 0 0)
(3.27822 -0.0677859 -1.49419e-20 0.00333012 1.40958e-22 1.79428e-37)
(3.42189 -0.0595821 -2.98993e-20 0.00275115 2.30452e-22 7.04886e-37)
(3.54481 -0.0502864 0 0.00221706 0 0)
(3.64417 -0.0401527 0 0.00174483 0 0)
(3.71771 -0.0294853 0 0.00134786 0 0)
(3.76384 -0.0186228 0 0.00103444 0 0)
(3.78171 -0.00791064 0 0.000806763 0 0)
(3.77136 0.00235681 -2.85711e-20 0.000659151 -2.67509e-23 6.31499e-37)
(3.73419 0.0119639 -2.81441e-20 0.000581614 -5.69349e-23 6.19854e-37)
(3.67158 0.0207865 -2.76729e-20 0.00056109 -8.3136e-23 6.08375e-37)
(3.58555 0.0286795 0 0.000587047 0 0)
(3.47843 0.0355313 2.66253e-20 0.000647362 1.23935e-22 5.85907e-37)
(3.35306 0.0412638 0 0.000731289 0 0)
(3.21236 0.0458393 -2.54825e-20 0.000827955 -1.50106e-22 5.64087e-37)
(3.05945 0.0492611 -2.48918e-20 0.000927347 -1.58227e-22 5.53417e-37)
(2.89743 0.0515705 0 0.00102102 0 0)
(2.72932 0.0528367 0 0.00110197 0 0)
(2.55794 0.0531622 0 0.0011658 0 0)
(2.38584 0.0526546 -2.25282e-20 0.00120907 -1.64415e-22 5.1231e-37)
(2.21532 0.0514601 0 0.00123233 0 0)
(2.04834 0.0496784 0 0.00123424 0 0)
(1.8865 0.0474431 0 0.00121716 0 0)
(1.73111 0.0448499 0 0.00118227 0 0)
(1.58322 0.042025 0 0.00113364 0 0)
(1.44358 0.0390385 0 0.00107278 0 0)
(1.31268 0.0359798 0 0.00100311 0 0)
(1.19084 0.0329039 0 0.000926454 0 0)
(1.07816 0.0298932 1.80263e-20 0.000846899 1.04511e-22 4.28639e-37)
(0.97454 0.0269751 0 0.000765598 0 0)
(0.879778 0.0241974 0 0.00068524 0 0)
(0.793537 0.0215893 -1.68674e-20 0.000607694 -8.10683e-23 4.03322e-37)
(0.715379 0.0191622 -1.65163e-20 0.000533936 -7.38082e-23 3.95156e-37)
(0.644827 0.0169335 0 0.000465409 0 0)
(0.581352 0.0148992 1.58621e-20 0.000402356 6.04167e-23 3.79224e-37)
(0.524399 0.0130574 -1.55572e-20 0.000345147 -5.42983e-23 3.71454e-37)
(0.473418 0.0114079 0 0.000294266 0 0)
(0.427843 0.0099291 1.49875e-20 0.000248931 4.33027e-23 3.563e-37)
(0.387143 0.00861218 0 0.000209065 0 0)
(0.350866 0.00744576 0 0.000174365 0 0)
(0.318574 0.00641673 -1.42208e-20 0.000144404 -2.96867e-23 3.34509e-37)
(0.28986 0.00551187 0 0.000118724 0 0)
(0.264348 0.00471843 1.37597e-20 9.68655e-05 2.23767e-23 3.2059e-37)
(0.2417 0.00402438 0 7.83816e-05 0 0)
(0.221607 0.00341859 -1.33329e-20 6.28553e-05 -1.63052e-23 3.07142e-37)
(0.203792 0.00289088 -1.3131e-20 4.99027e-05 -1.36854e-23 3.00591e-37)
(0.188006 0.00243204 -1.2936e-20 3.91767e-05 -1.13172e-23 2.94153e-37)
(0.174026 0.00203384 -2.54951e-20 3.03657e-05 -1.83678e-23 1.15131e-36)
(0.161654 0.00168889 2.51304e-20 2.31933e-05 1.45363e-23 1.12644e-36)
(0.150712 0.00139066 0 1.74148e-05 0 0)
(0.141042 0.00113337 0 1.28152e-05 0 0)
(0.132502 0.000911889 0 9.20579e-06 0 0)
(0.124968 0.000721717 2.37778e-20 6.42176e-06 2.95866e-24 1.03127e-36)
(0.118326 0.000558897 2.34629e-20 4.31942e-06 8.65178e-25 1.00852e-36)
(0.112478 0.000419966 -2.31561e-20 2.77396e-06 9.56357e-25 9.8617e-37)
(0.107334 0.000301893 0 1.67729e-06 0 0)
(0.102817 0.000202065 2.25646e-20 9.36341e-07 -3.87819e-24 9.42663e-37)
(0.0988543 0.000118175 2.2279e-20 4.71246e-07 -5.01489e-24 9.21493e-37)
(0.0953847 4.81466e-05 2.19995e-20 2.14155e-07 -5.96064e-24 9.00703e-37)
(0.0923518 -9.88663e-06 0 1.08278e-07 0 0)
(0.0897059 -5.75574e-05 0 1.07e-07 0 0)
(0.0874028 -9.63262e-05 0 1.72869e-07 0 0)
(0.0854033 -0.000127464 2.09342e-20 2.76562e-07 -8.19821e-24 8.21245e-37)
(0.0836727 -0.000152082 0 3.95885e-07 0 0)
(0.08218 -0.000171174 0 5.14803e-07 0 0)
(0.0808982 -0.000185605 -2.01816e-20 6.22377e-07 8.69074e-24 7.65382e-37)
(0.079803 -0.000196152 0 7.12066e-07 0 0)
(0.0788731 -0.000203486 0 7.80593e-07 0 0)
(0.0780897 -0.000208216 -1.94604e-20 8.2737e-07 8.55953e-24 7.12556e-37)
(0.0774363 -0.000210927 0 8.5422e-07 0 0)
(0.0768982 -0.000212061 0 8.63282e-07 0 0)
(0.076463 -0.000212102 1.87649e-20 8.58648e-07 -8.09449e-24 6.6263e-37)
(0.0761203 -0.00021142 1.8538e-20 8.44166e-07 -7.90166e-24 6.46609e-37)
(0.0758608 -0.00021027 0 8.23314e-07 0 0)
(0.0756779 -0.000209113 -1.8091e-20 8.02795e-07 7.4961e-24 6.15469e-37)
(0.0755654 -0.000207825 0 7.8272e-07 0 0)
(0.0755148 -0.000205971 1.76522e-20 7.58986e-07 -7.06758e-24 5.85502e-37)
(0.0755191 -0.000203397 0 7.30241e-07 0 0)
(0.0755718 -0.00020022 1.72208e-20 6.98072e-07 -6.59747e-24 5.5667e-37)
(0.0756668 -0.000196566 1.70076e-20 6.64073e-07 -6.35512e-24 5.42669e-37)
(0.0757986 -0.000192491 0 6.28935e-07 0 0)
(0.0759625 -0.000188074 0 5.93417e-07 0 0)
(0.0761544 -0.000183389 0 5.58209e-07 0 0)
(0.0763705 -0.00017841 0 5.22901e-07 0 0)
(0.0766074 -0.000173096 0 4.87039e-07 0 0)
(0.0768623 -0.000167587 0 4.51731e-07 0 0)
(0.0771326 -0.000162094 0 4.18513e-07 0 0)
(0.077416 -0.000156669 1.5356e-20 3.87523e-07 -4.46048e-24 4.40041e-37)
(0.0777103 -0.000151301 -1.51556e-20 3.58434e-07 4.25097e-24 4.28323e-37)
(0.0780134 -0.000145969 0 3.30916e-07 0 0)
(0.0783233 -0.000140656 0 3.04717e-07 0 0)
(0.0786381 -0.000135336 0 2.79591e-07 0 0)
(0.0789563 -0.000130003 0 2.55436e-07 0 0)
(0.079276 -0.000124676 -2.83438e-20 2.32325e-07 6.68709e-24 1.49268e-36)
(0.0795961 -0.000119424 0 2.1056e-07 0 0)
(0.0799155 -0.000114344 2.75731e-20 1.90538e-07 -6.08468e-24 1.41057e-36)
(0.0802335 -0.000109543 -2.71911e-20 1.72616e-07 5.81252e-24 1.37078e-36)
(0.08055 -0.0001051 0 1.56941e-07 0 0)
(0.080865 -0.000101054 0 1.43441e-07 0 0)
(0.0811789 -9.73897e-05 0 1.31854e-07 0 0)
(0.0814922 -9.40665e-05 2.56851e-20 1.21851e-07 -4.93764e-24 1.21967e-36)
(0.0818051 -9.10317e-05 2.53141e-20 1.13123e-07 -4.76498e-24 1.18384e-36)
(0.0821182 -8.82377e-05 0 1.05421e-07 0 0)
(0.0824318 -8.5655e-05 2.45784e-20 9.8582e-08 -4.45845e-24 1.11445e-36)
(0.0827463 -8.32607e-05 2.42138e-20 9.24862e-08 -4.322e-24 1.08086e-36)
(0.0830619 -8.10494e-05 -2.38514e-20 8.70637e-08 4.19385e-24 1.04799e-36)
(0.0833788 -7.90141e-05 0 8.22513e-08 0 0)
(0.0836972 -7.71564e-05 0 7.8005e-08 0 0)
(0.0840173 -7.54704e-05 -2.27765e-20 7.42714e-08 3.85317e-24 9.53584e-37)
(0.0843393 -7.39543e-05 0 7.10072e-08 0 0)