/*--------------------------------*- C++ -*----------------------------------*\
  =========                 |
  \\      /  F ield         | OpenFOAM: The Open Source CFD Toolbox
   \\    /   O peration     | Website:  https://openfoam.org
    \\  /    A nd           | Version:  7
     \\/     M anipulation  |
\*---------------------------------------------------------------------------*/
FoamFile
{
    version     2.0;
    format      ascii;
    class       volScalarField;
    location    "0.091";
    object      k;
}
// * * * * * * * * * * * * * * * * * * * * * * * * * * * * * * * * * * * * * //

dimensions      [0 2 -2 0 0 0 0];

internalField   nonuniform List<scalar> 
12225
(
1.93934e-05
1.80347e-05
1.66439e-05
1.52917e-05
1.40581e-05
1.26137e-05
1.12305e-05
1.01151e-05
8.76789e-06
7.56515e-06
6.55131e-06
5.56282e-06
4.60446e-06
3.96872e-06
3.72062e-06
1.23091e-05
1.34406e-05
2.874e-05
1.99829e-05
1.9875e-05
1.96197e-05
1.94363e-05
1.91061e-05
1.88338e-05
1.82622e-05
1.79105e-05
1.72942e-05
1.6919e-05
1.62558e-05
1.58624e-05
1.51054e-05
1.47271e-05
1.3892e-05
1.45312e-05
1.50102e-05
1.64209e-05
1.99998e-05
1.92281e-05
1.92346e-05
1.92498e-05
1.92061e-05
1.91383e-05
1.90037e-05
1.88261e-05
1.85637e-05
1.83974e-05
1.82036e-05
1.81108e-05
1.79673e-05
1.7895e-05
1.76817e-05
1.80736e-05
1.8029e-05
1.80337e-05
2.01723e-05
2.00552e-05
1.94581e-05
1.84282e-05
1.78508e-05
1.76536e-05
1.72988e-05
1.66458e-05
1.61957e-05
1.60023e-05
1.59522e-05
1.59701e-05
1.61185e-05
1.66265e-05
1.68302e-05
1.71664e-05
1.73092e-05
1.73778e-05
2.09734e-05
2.15662e-05
2.14645e-05
2.14579e-05
2.16879e-05
2.15798e-05
2.09311e-05
1.8685e-05
1.45611e-05
1.34733e-05
1.3533e-05
1.39096e-05
1.49261e-05
1.57874e-05
1.62472e-05
1.64321e-05
1.64873e-05
1.64889e-05
2.14151e-05
2.20971e-05
2.39935e-05
2.44532e-05
2.4249e-05
2.40748e-05
2.37904e-05
2.2752e-05
2.04011e-05
1.9356e-05
1.91632e-05
1.92634e-05
1.97859e-05
2.00006e-05
1.99632e-05
1.97389e-05
1.90567e-05
1.83028e-05
2.09279e-05
2.26867e-05
2.4184e-05
2.5046e-05
2.49899e-05
2.47797e-05
2.42279e-05
2.31722e-05
2.26633e-05
2.25942e-05
2.26779e-05
2.30398e-05
2.41213e-05
2.50244e-05
2.53742e-05
2.53928e-05
2.52703e-05
2.47622e-05
2.10441e-05
2.12412e-05
2.16103e-05
2.38702e-05
2.42398e-05
2.37226e-05
2.24965e-05
2.19437e-05
2.18632e-05
2.20102e-05
2.28551e-05
2.51485e-05
2.74007e-05
2.91061e-05
3.00949e-05
3.03951e-05
3.03859e-05
3.01274e-05
2.00917e-05
2.05539e-05
2.43323e-05
2.74246e-05
2.62117e-05
2.29043e-05
2.13646e-05
2.10788e-05
2.11666e-05
2.16242e-05
2.22157e-05
2.31121e-05
2.50414e-05
2.73282e-05
2.92392e-05
3.04863e-05
3.10279e-05
3.11173e-05
2.00115e-05
2.04625e-05
2.23696e-05
2.24444e-05
2.18847e-05
2.10765e-05
2.07144e-05
2.05582e-05
2.04766e-05
2.04047e-05
2.0376e-05
2.04461e-05
2.07817e-05
2.18796e-05
2.41923e-05
2.59933e-05
2.69245e-05
2.7489e-05
2.00229e-05
2.04166e-05
2.28348e-05
2.44576e-05
2.45252e-05
2.42196e-05
2.2999e-05
2.17178e-05
2.11177e-05
2.09037e-05
2.0857e-05
2.08578e-05
2.08849e-05
2.09663e-05
2.11805e-05
2.14384e-05
2.15465e-05
2.17067e-05
2.04097e-05
2.03511e-05
2.05649e-05
2.14726e-05
2.24882e-05
2.26547e-05
2.23883e-05
2.15894e-05
2.12792e-05
2.12792e-05
2.1477e-05
2.1676e-05
2.1706e-05
2.16928e-05
2.15988e-05
2.12911e-05
2.08572e-05
2.05974e-05
2.0344e-05
2.02023e-05
2.03298e-05
2.12918e-05
2.2617e-05
2.26908e-05
2.21194e-05
2.1137e-05
2.08728e-05
2.09054e-05
2.12409e-05
2.18153e-05
2.20721e-05
2.21217e-05
2.20893e-05
2.18538e-05
2.14267e-05
2.11335e-05
2.05739e-05
2.04159e-05
2.0726e-05
2.11368e-05
2.11899e-05
2.11458e-05
2.09402e-05
2.0735e-05
2.0705e-05
2.07969e-05
2.12907e-05
2.18077e-05
2.20042e-05
2.20294e-05
2.19766e-05
2.1688e-05
2.13743e-05
2.12447e-05
2.03208e-05
2.09178e-05
2.09452e-05
2.11205e-05
2.11987e-05
2.11306e-05
2.10852e-05
2.11132e-05
2.1279e-05
2.14732e-05
2.159e-05
2.16342e-05
2.16269e-05
2.1544e-05
2.13681e-05
2.1259e-05
2.12136e-05
2.12036e-05
2.02659e-05
2.04132e-05
2.0536e-05
2.10963e-05
2.18578e-05
2.21852e-05
2.22514e-05
2.22145e-05
2.19784e-05
2.15999e-05
2.13205e-05
2.11292e-05
2.10298e-05
2.09967e-05
2.09952e-05
2.10224e-05
2.10978e-05
2.11558e-05
2.02148e-05
2.0814e-05
2.09316e-05
2.09433e-05
2.09491e-05
2.09458e-05
2.09267e-05
2.08662e-05
2.06966e-05
2.05476e-05
2.04906e-05
2.049e-05
2.05239e-05
2.06637e-05
2.07958e-05
2.08637e-05
2.09032e-05
2.09292e-05
2.02635e-05
2.02768e-05
2.02461e-05
2.02447e-05
2.02892e-05
2.03228e-05
2.03225e-05
2.0301e-05
2.02792e-05
2.02779e-05
2.02856e-05
2.03284e-05
2.05277e-05
2.09708e-05
2.12233e-05
2.12915e-05
2.1289e-05
2.12531e-05
2.00875e-05
2.02836e-05
2.04417e-05
2.05177e-05
2.05192e-05
2.04551e-05
2.02711e-05
2.01704e-05
2.01448e-05
2.01474e-05
2.01826e-05
2.03115e-05
2.04364e-05
2.05027e-05
2.05271e-05
2.05372e-05
2.0559e-05
2.06422e-05
2.01864e-05
2.07723e-05
2.09361e-05
2.09051e-05
2.06853e-05
2.05171e-05
2.04714e-05
2.04679e-05
2.0475e-05
2.04775e-05
2.04696e-05
2.04221e-05
2.03512e-05
2.03143e-05
2.03017e-05
2.03006e-05
2.03074e-05
2.0358e-05
2.03166e-05
2.06517e-05
2.08706e-05
2.09186e-05
2.07893e-05
2.06488e-05
2.06282e-05
2.06373e-05
2.06418e-05
2.06272e-05
2.05399e-05
2.04222e-05
2.03649e-05
2.0347e-05
2.03461e-05
2.0355e-05
2.03984e-05
2.04398e-05
2.08464e-05
2.04268e-05
2.0481e-05
2.06226e-05
2.06424e-05
2.06317e-05
2.0604e-05
2.05916e-05
2.05902e-05
2.05954e-05
2.05899e-05
2.05218e-05
2.03975e-05
2.03431e-05
2.03314e-05
2.03336e-05
2.0358e-05
2.04703e-05
2.02936e-05
2.00939e-05
2.0055e-05
2.00737e-05
2.0126e-05
2.02626e-05
2.04564e-05
2.05712e-05
2.06085e-05
2.06081e-05
2.05721e-05
2.04255e-05
2.02909e-05
2.02316e-05
2.02149e-05
2.02142e-05
2.02233e-05
2.02714e-05
2.00245e-05
2.00411e-05
2.00479e-05
2.00504e-05
2.0059e-05
2.01092e-05
2.03081e-05
2.04984e-05
2.05689e-05
2.05776e-05
2.05607e-05
2.0465e-05
2.03196e-05
2.02315e-05
2.01866e-05
2.01687e-05
2.01649e-05
2.01664e-05
2.0075e-05
2.02144e-05
2.0249e-05
2.02189e-05
2.01901e-05
2.02087e-05
2.02994e-05
2.0352e-05
2.03575e-05
2.03472e-05
2.0302e-05
2.02596e-05
2.02384e-05
2.02304e-05
2.02286e-05
2.02286e-05
2.02292e-05
2.02315e-05
2.04042e-05
2.02151e-05
2.01291e-05
2.01223e-05
2.01694e-05
2.03772e-05
2.05043e-05
2.05203e-05
2.0495e-05
2.03623e-05
2.02214e-05
2.01579e-05
2.01401e-05
2.01413e-05
2.01684e-05
2.01825e-05
2.01786e-05
2.0169e-05
2.00448e-05
2.00335e-05
2.00088e-05
1.99587e-05
1.98632e-05
1.96201e-05
1.95295e-05
1.9567e-05
1.97881e-05
2.02345e-05
2.03862e-05
2.03652e-05
2.02201e-05
1.98434e-05
1.90132e-05
1.79782e-05
1.73513e-05
1.69857e-05
2.01799e-05
1.71781e-05
1.57538e-05
1.63939e-05
1.83565e-05
2.1052e-05
2.38697e-05
2.89959e-05
4.09041e-05
5.4999e-05
6.45092e-05
6.84673e-05
7.02669e-05
7.28477e-05
7.80398e-05
8.36884e-05
9.09527e-05
9.4522e-05
3.02594e-05
9.55209e-05
0.000123012
0.000177844
0.000233813
0.000264831
0.000296128
0.000362148
0.000459326
0.000543969
0.000592726
0.000612155
0.00062254
0.000635036
0.000647342
0.000655036
0.000660344
0.000661026
0.00218883
0.00225758
0.00226833
0.00219361
0.00200882
0.00189309
0.00184058
0.00182485
0.00182109
0.00181455
0.00178877
0.00175234
0.00173252
0.00170808
0.00165065
0.00155213
0.00148312
0.00144238
0.0043403
0.006307
0.00603224
0.00602177
0.00601252
0.00595394
0.00586568
0.00573939
0.00561955
0.00540982
0.00515373
0.0049919
0.00498252
0.00510093
0.00531566
0.00555339
0.00594049
0.00636694
0.00654414
0.00656943
0.00646245
0.00613834
0.00574119
0.0053648
0.00510763
0.00505835
0.00511678
0.00526038
0.00539819
0.00547343
0.00549904
0.00549486
0.00544237
0.00531699
0.0050817
0.00485397
0.0048208
0.0048922
0.00520289
0.00581927
0.00679138
0.00726776
0.00728816
0.00706305
0.00689071
0.00685653
0.00698766
0.0071558
0.00741605
0.00770978
0.00815309
0.00880308
0.010055
0.0120233
0.0144635
0.0168527
0.0185309
0.0191922
0.0191703
0.0183968
0.0161324
0.014402
0.0139524
0.0143377
0.0150688
0.0156438
0.0170828
0.0203709
0.0284737
0.0444925
0.0641146
0.0765665
0.0786713
0.0837053
0.114686
0.159981
0.181879
0.18038
0.144121
0.0344358
0.00341776
0.00160417
0.00133076
0.00128556
0.001221
0.00111544
0.000967894
0.000813829
0.000680518
0.000558593
0.000440548
0.000379873
0.000308423
0.000274982
0.00025468
0.000247599
0.000248359
0.000248342
0.000247051
0.000246755
0.000246326
0.000243617
0.00024037
0.00023826
0.000235744
0.000232508
0.000229691
0.000227894
0.000225597
0.00022207
0.000218348
0.000216507
0.000213465
0.000209541
0.000206723
0.000203223
0.00020012
0.00019574
0.000193059
0.000189005
0.000185704
0.000182154
0.000178662
0.00017489
0.000170757
0.000166178
0.000161155
0.000155914
0.000150347
0.000144518
0.000138249
0.000131469
0.000124072
0.000116227
0.000108541
0.000101534
9.47855e-05
8.80211e-05
8.02105e-05
7.01782e-05
5.96297e-05
5.02301e-05
4.12382e-05
3.16632e-05
2.26872e-05
1.57317e-05
1.07485e-05
7.44609e-06
5.38908e-06
4.14206e-06
3.36363e-06
2.82975e-06
2.41295e-06
2.05309e-06
1.73244e-06
1.45283e-06
1.21707e-06
1.02162e-06
8.58796e-07
7.22066e-07
6.06073e-07
5.08275e-07
4.25117e-07
3.56045e-07
2.96624e-07
2.5116e-07
2.01501e-07
1.83274e-07
1.67387e-07
1.80728e-07
1.64943e-07
1.7611e-07
1.31261e-07
1.62275e-07
1.05557e-07
2.38801e-07
3.10845e-07
6.52425e-07
9.02284e-06
7.11282e-06
0.00405398
0.00527335
0.0068041
0.00752981
0.00756021
0.00743824
0.00709434
0.00674476
0.00657901
0.00646501
0.00630393
0.00607071
0.00579969
0.00557369
0.00556161
0.00564643
0.00581341
0.0059722
0.00613827
0.00608812
0.00547183
0.00483957
0.00470395
0.00474516
0.00483592
0.00503497
0.00542793
0.00603926
0.00689322
0.00804126
0.00882114
0.00904125
0.00909182
0.00907414
0.00887607
0.00830386
0.00774799
0.00765295
0.00779275
0.00840529
0.00935697
0.00973495
0.00976288
0.00969712
0.00962725
0.00964331
0.00952741
0.00933702
0.009232
0.00905109
0.00907565
0.00919605
0.00932996
0.00939905
0.00955357
0.0103616
0.0124857
0.0146573
0.016324
0.0166745
0.0163067
0.0148602
0.013064
0.0117242
0.010334
0.0085445
0.00719252
0.00708896
0.00762348
0.00932528
0.0141125
0.022652
0.0242466
0.023699
0.0258296
0.0347553
0.0963026
0.136155
0.0501685
0.00806602
0.00179835
0.00109501
0.000898158
0.00081566
0.000748263
0.000689319
0.000648032
0.000620999
0.000602718
0.000594563
0.000591679
0.000590532
0.000588406
0.000584686
0.000582126
0.000581087
0.000576363
0.000565527
0.000556874
0.000553236
0.000549074
0.000539277
0.000527546
0.000517557
0.000507622
0.000497056
0.000484142
0.000474522
0.00046644
0.000455359
0.00044061
0.000433528
0.000423098
0.000412221
0.000403679
0.000394078
0.000386819
0.000377691
0.000369331
0.000361574
0.000353967
0.000347119
0.000340759
0.000334482
0.000327576
0.000319639
0.000310946
0.000302291
0.000292481
0.000282961
0.000273336
0.000263289
0.000252444
0.000240218
0.000225547
0.00020746
0.000188611
0.000172335
0.000159299
0.000150738
0.000145562
0.000140392
0.000133011
0.000123534
0.000112183
9.91752e-05
8.57845e-05
7.30236e-05
6.16345e-05
5.20043e-05
4.41236e-05
3.77795e-05
3.26307e-05
2.81879e-05
2.40289e-05
2.00886e-05
1.65946e-05
1.37371e-05
1.14567e-05
9.60446e-06
8.04902e-06
6.73208e-06
5.59774e-06
4.64058e-06
3.82549e-06
3.17569e-06
2.59781e-06
2.22512e-06
1.83031e-06
1.64432e-06
1.35643e-06
1.24228e-06
1.00435e-06
9.24451e-07
7.26957e-07
6.82547e-07
6.03783e-07
6.03489e-07
1.62073e-06
1.72338e-06
0.00193464
0.00426511
0.00559815
0.00630008
0.00678663
0.00684361
0.00679929
0.00666558
0.00647129
0.00624041
0.00595525
0.00579087
0.00569294
0.00555856
0.00550202
0.00551774
0.00559817
0.0055727
0.00540477
0.00525527
0.00502706
0.00490888
0.00538739
0.00714577
0.00891909
0.00945579
0.0100375
0.0107937
0.0111522
0.0112999
0.0113206
0.0112589
0.0111159
0.0110481
0.0110372
0.0110792
0.0112956
0.0116697
0.011763
0.0116502
0.0111623
0.0104045
0.0101275
0.0100636
0.0101514
0.0105971
0.0110501
0.0111875
0.0111488
0.0108039
0.0106931
0.0109464
0.0116512
0.0124922
0.0139511
0.0146713
0.0140057
0.0115625
0.00958304
0.00959114
0.0109689
0.0122201
0.0118874
0.00991841
0.00814153
0.00709662
0.00642644
0.00623244
0.00637485
0.00684799
0.00821891
0.0103777
0.0119584
0.0134343
0.0184188
0.0481954
0.0833752
0.0409599
0.00960002
0.00195427
0.00104849
0.000896496
0.00083375
0.000777372
0.000742353
0.000701974
0.000676396
0.000656827
0.000637215
0.000623665
0.000613034
0.000607812
0.00060578
0.000609763
0.000622329
0.000635735
0.000650132
0.00065708
0.000659845
0.000660278
0.00065697
0.000654268
0.000646324
0.00063712
0.000627871
0.000618611
0.000609335
0.000597956
0.000590096
0.000581228
0.000568189
0.000559766
0.000548308
0.000537865
0.000526249
0.000515386
0.000504575
0.000493875
0.000481603
0.000469889
0.000457511
0.000445349
0.000432941
0.000420471
0.000407927
0.000395194
0.000382231
0.000369127
0.000355742
0.000341652
0.000327683
0.000313518
0.000299734
0.000287064
0.000275697
0.000264934
0.000251114
0.000229319
0.000201223
0.000172451
0.00015051
0.000139187
0.000134818
0.000133078
0.000131492
0.000128254
0.000119702
0.000106703
9.46471e-05
8.45538e-05
7.61397e-05
6.88152e-05
6.22197e-05
5.62107e-05
5.09062e-05
4.64389e-05
4.26423e-05
3.91459e-05
3.56847e-05
3.21605e-05
2.8571e-05
2.49725e-05
2.14594e-05
1.81485e-05
1.512e-05
1.24298e-05
1.01062e-05
8.1523e-06
6.54315e-06
5.24905e-06
4.22753e-06
3.4128e-06
2.80589e-06
2.28367e-06
1.94608e-06
1.5675e-06
1.409e-06
1.06671e-06
1.03242e-06
8.95377e-07
0.00182966
0.00418777
0.00490738
0.00527846
0.00577569
0.0060898
0.00624235
0.00619505
0.00604678
0.00594262
0.00582561
0.0058009
0.00577654
0.00568965
0.0055288
0.00543252
0.00529973
0.00523469
0.00523671
0.00535354
0.00580795
0.00768348
0.00997769
0.0108762
0.0111574
0.0112663
0.0113513
0.0113818
0.0113479
0.0112182
0.0110366
0.0107482
0.0103433
0.0098383
0.00918123
0.00834201
0.00726413
0.00610232
0.00507702
0.00434302
0.00397457
0.0037757
0.00368364
0.0036553
0.00372469
0.00374449
0.00391748
0.00411652
0.00437908
0.00485155
0.00553785
0.00660658
0.00840348
0.0106977
0.0138891
0.0172531
0.0181149
0.0178535
0.0170026
0.0140684
0.0115606
0.0105177
0.0100115
0.00912915
0.0080016
0.00703084
0.00648896
0.0063625
0.00639779
0.00666792
0.00757741
0.00862619
0.00955462
0.0127517
0.0308852
0.0558044
0.0376277
0.0111915
0.00259534
0.00114056
0.000994891
0.000947411
0.000928274
0.000920582
0.000923442
0.000914554
0.000913485
0.000899835
0.000889784
0.000866936
0.000845036
0.000826548
0.00081313
0.000797612
0.000778155
0.000755608
0.000734933
0.000716076
0.000697979
0.000686497
0.000674902
0.000667225
0.000659399
0.000651145
0.000644397
0.000636345
0.000631099
0.000623141
0.000617573
0.000612008
0.00060522
0.000601037
0.000595451
0.000591586
0.000587513
0.000584341
0.000581514
0.000579118
0.000576404
0.000573895
0.000570745
0.000566642
0.000561263
0.000554475
0.000546046
0.000535481
0.000522189
0.000505222
0.000483982
0.000458045
0.000427593
0.000394091
0.000358356
0.000323991
0.000297551
0.000279354
0.000269479
0.000266396
0.00026485
0.000258301
0.000233756
0.00019758
0.000172247
0.000160183
0.000156312
0.000155331
0.000154651
0.000153295
0.000150135
0.000140975
0.000122087
0.000104982
9.08878e-05
7.9369e-05
7.00077e-05
6.22797e-05
5.57173e-05
5.01165e-05
4.54289e-05
4.15282e-05
3.81326e-05
3.49048e-05
3.1618e-05
2.82231e-05
2.47989e-05
2.14427e-05
1.82263e-05
1.51863e-05
1.2377e-05
9.85917e-06
7.71123e-06
5.94239e-06
4.56773e-06
3.50778e-06
2.74499e-06
2.1615e-06
1.76551e-06
1.43706e-06
1.22046e-06
1.01673e-06
0.00326375
0.00481012
0.00499008
0.00605869
0.00808054
0.00936372
0.00996835
0.00991879
0.0097327
0.00929673
0.00851164
0.00741559
0.00669292
0.00619043
0.00570759
0.00545368
0.00533665
0.00546328
0.00599101
0.00752378
0.00969702
0.0107519
0.0110665
0.0111333
0.0111108
0.010965
0.0106598
0.0101029
0.0092504
0.00801315
0.00664158
0.00551146
0.00428552
0.00341675
0.00254528
0.00201514
0.00166967
0.00146627
0.00131542
0.00122993
0.00114515
0.00110711
0.0010737
0.00103603
0.000996529
0.000950645
0.000904897
0.000881193
0.000896068
0.000956772
0.00107914
0.00133065
0.0019075
0.00323035
0.00565961
0.0103798
0.0132976
0.0142844
0.0152921
0.0160464
0.0156566
0.0136311
0.0110085
0.00957337
0.00842723
0.00739215
0.00680969
0.00674212
0.00687305
0.00769763
0.00845888
0.0086999
0.00960402
0.0168097
0.0385818
0.0428165
0.0136524
0.00370766
0.00143534
0.00116459
0.00116794
0.00121531
0.00115015
0.0011155
0.00100565
0.000960638
0.000911806
0.000889345
0.00085057
0.000794394
0.000729
0.000663903
0.000629485
0.000588509
0.000560494
0.000543503
0.00053265
0.00052377
0.00051762
0.00051156
0.000506113
0.000502575
0.000499899
0.000498593
0.000497647
0.000498178
0.000500387
0.000503775
0.00050765
0.000511348
0.000516923
0.000521712
0.000527664
0.000533905
0.000541288
0.00054827
0.000555416
0.000562502
0.000568774
0.000574076
0.000578317
0.000581389
0.000583025
0.000583455
0.000582811
0.000580662
0.00057706
0.000571795
0.000564775
0.000555816
0.000542909
0.000524474
0.000499707
0.000461483
0.000401847
0.00033125
0.000275361
0.000248564
0.000242562
0.000247407
0.00025331
0.000250741
0.000228702
0.00018709
0.000164605
0.000156476
0.000155255
0.000156734
0.000159584
0.000159743
0.000158418
0.000152467
0.00013668
0.000119855
0.000104437
9.08655e-05
7.94551e-05
6.99393e-05
6.19022e-05
5.52261e-05
4.99666e-05
4.60349e-05
4.31079e-05
4.07811e-05
3.85909e-05
3.60409e-05
3.26969e-05
2.8473e-05
2.36613e-05
1.88115e-05
1.43844e-05
1.06677e-05
7.7374e-06
5.55778e-06
3.99159e-06
2.89921e-06
2.16609e-06
1.65868e-06
1.34229e-06
1.07437e-06
0.00364126
0.00560006
0.00608161
0.00963105
0.011908
0.0131705
0.0137997
0.0140935
0.0139302
0.0135515
0.0124484
0.0110155
0.00911342
0.00726468
0.0061125
0.00584589
0.00625565
0.00762017
0.00921971
0.0102968
0.0106758
0.0107783
0.0107747
0.01031
0.00953765
0.00818255
0.00634201
0.00483943
0.00349474
0.00253237
0.00203249
0.00150298
0.00125307
0.00104593
0.000945127
0.000894507
0.000878796
0.000878114
0.000881111
0.000881887
0.000872874
0.000869112
0.000856199
0.000821907
0.000771096
0.000695649
0.000585794
0.000481126
0.000421732
0.000392801
0.000394984
0.000440229
0.000610986
0.00130385
0.00327738
0.00799844
0.0110186
0.012177
0.0127066
0.0138301
0.0147749
0.0147328
0.0140574
0.0119578
0.00982046
0.00828945
0.00758436
0.00754627
0.00780277
0.00860105
0.00868111
0.00871438
0.0102066
0.0223568
0.0374358
0.0197815
0.00553067
0.00198559
0.00146611
0.00149045
0.00162416
0.00146094
0.00129961
0.00110618
0.00100206
0.00091529
0.000800097
0.000749634
0.000690782
0.000643868
0.000610255
0.00056717
0.000544913
0.00052412
0.000511054
0.000503208
0.00049862
0.000495519
0.000489834
0.00048432
0.000475897
0.000470813
0.000463211
0.000459462
0.000453173
0.000450449
0.000447229
0.000445617
0.000444849
0.000444753
0.000445347
0.000446676
0.000448912
0.000452487
0.000457423
0.000462597
0.000469071
0.000476087
0.000484266
0.000493164
0.000502718
0.000512601
0.000522622
0.000531883
0.000540084
0.000546658
0.00055158
0.000554721
0.000555894
0.000555287
0.000551405
0.00054231
0.000529703
0.000515783
0.000499645
0.000471159
0.000404847
0.000309262
0.000239296
0.000213637
0.000213253
0.000229048
0.000238719
0.000235501
0.000209275
0.000172179
0.000155872
0.000151887
0.000152477
0.000156167
0.000157892
0.000157731
0.000155689
0.000147407
0.000132454
0.000118345
0.000105076
9.30678e-05
8.28155e-05
7.44325e-05
6.76093e-05
6.19729e-05
5.73382e-05
5.37696e-05
5.12258e-05
4.93698e-05
4.74317e-05
4.46424e-05
4.0484e-05
3.51217e-05
2.90911e-05
2.31974e-05
1.7875e-05
1.33333e-05
9.54749e-06
6.56685e-06
4.47783e-06
3.04736e-06
2.30871e-06
1.61756e-06
0.00395527
0.00615075
0.00709104
0.0112664
0.0133221
0.0145614
0.0151281
0.015657
0.0155692
0.0142054
0.0127274
0.0113514
0.00967923
0.00832874
0.00775997
0.00785149
0.00914257
0.00984363
0.0101864
0.0103027
0.0103058
0.00971491
0.00850413
0.00622289
0.00463568
0.0030981
0.00238378
0.00170123
0.00138336
0.00119845
0.00109098
0.00103802
0.00101906
0.00101418
0.00102471
0.00106065
0.00109485
0.0011103
0.00111479
0.00109489
0.00103386
0.000986798
0.00091922
0.000853445
0.000782347
0.000691735
0.000569721
0.0004375
0.000351309
0.000281248
0.000256894
0.000256152
0.000325181
0.000742811
0.00270776
0.00753925
0.011029
0.0125392
0.0129408
0.0133266
0.0140164
0.014365
0.0142961
0.0138657
0.0125705
0.0108582
0.00968433
0.00912629
0.00877249
0.00804912
0.00777999
0.00821379
0.0122864
0.0265797
0.0292088
0.00912374
0.00295295
0.00192873
0.00181229
0.00204465
0.00195462
0.00157083
0.0013639
0.00109795
0.000989434
0.000878935
0.000744174
0.000666784
0.00063067
0.00061113
0.000595236
0.000572991
0.000559106
0.000554937
0.000555303
0.00056163
0.000569764
0.0005723
0.00056221
0.000555729
0.000529498
0.00051756
0.000492871
0.000481461
0.000465377
0.00045713
0.000449271
0.000445038
0.000442347
0.000441031
0.000440534
0.000440718
0.000441732
0.000443947
0.000447367
0.000450748
0.000455415
0.00045997
0.000465391
0.00047121
0.000477543
0.000483998
0.000490256
0.000496162
0.000501625
0.000506193
0.000509698
0.000512198
0.000513818
0.000515002
0.000516085
0.00051655
0.000516195
0.000511783
0.000498598
0.000487552
0.000472822
0.000440782
0.000355108
0.000249616
0.000195151
0.000184702
0.000193041
0.000215938
0.0002197
0.000212616
0.000181166
0.00015613
0.000147063
0.000146318
0.000148972
0.000152211
0.000152311
0.000150812
0.000144276
0.000131105
0.000118671
0.000106516
9.49683e-05
8.50459e-05
7.7267e-05
7.125e-05
6.61641e-05
6.15309e-05
5.74541e-05
5.42943e-05
5.20424e-05
5.01997e-05
4.79516e-05
4.4719e-05
4.03132e-05
3.5039e-05
2.93948e-05
2.38379e-05
1.87453e-05
1.41988e-05
1.06396e-05
7.68233e-06
5.90548e-06
3.97117e-06
0.00415153
0.00667033
0.00857756
0.0119294
0.0138356
0.0149583
0.0152861
0.0152847
0.0146905
0.0134826
0.0122363
0.0110718
0.0100373
0.00955743
0.00940542
0.00945995
0.00976459
0.00983599
0.00980518
0.00918943
0.00778105
0.00549809
0.00366567
0.00272707
0.00197293
0.0016203
0.00145865
0.00137748
0.00135481
0.00135183
0.00147915
0.00164444
0.00186651
0.00209041
0.00232625
0.00245503
0.00251207
0.00252863
0.00245325
0.00231295
0.00206729
0.00178879
0.00149395
0.00120989
0.000961537
0.000757416
0.00058108
0.000431745
0.000339536
0.000251564
0.000208395
0.000192682
0.000213786
0.000478092
0.00208341
0.00688805
0.0110962
0.0125436
0.0124931
0.0129282
0.0134353
0.0138159
0.0139247
0.0137381
0.0128063
0.0110946
0.00972524
0.00886671
0.00804585
0.00758003
0.00769075
0.00905472
0.0172234
0.0269859
0.0163012
0.00489417
0.00249693
0.00213075
0.00246551
0.00254719
0.00204747
0.00168862
0.00137555
0.0011034
0.000992648
0.000883368
0.000746363
0.000666815
0.000639375
0.000631294
0.00063042
0.000643247
0.000681804
0.000744867
0.000825388
0.00092313
0.000985579
0.00101089
0.000991257
0.000971808
0.000858648
0.000803505
0.000701883
0.000643493
0.000583302
0.000540753
0.000509437
0.000487551
0.000473256
0.000464579
0.000459763
0.000457399
0.000456465
0.000456557
0.000457963
0.000459707
0.000463334
0.00046724
0.000471605
0.000475521
0.000479905
0.000484763
0.000489836
0.00049494
0.000499802
0.000503879
0.00050679
0.000508456
0.000509148
0.000509166
0.000508991
0.000508447
0.000507095
0.000503169
0.000489767
0.000466684
0.000454194
0.000447766
0.000431848
0.00037854
0.000260519
0.000185625
0.000163498
0.000165917
0.000188517
0.000200826
0.000199397
0.000183123
0.00015544
0.00014231
0.000139303
0.000140006
0.000143018
0.000143553
0.00014232
0.000136558
0.000124494
0.000113743
0.000103345
9.30891e-05
8.39104e-05
7.65795e-05
7.09941e-05
6.64311e-05
6.21581e-05
5.79931e-05
5.4248e-05
5.13302e-05
4.92338e-05
4.74572e-05
4.52819e-05
4.21639e-05
3.80983e-05
3.32118e-05
2.81522e-05
2.29307e-05
1.84974e-05
1.41438e-05
1.13021e-05
8.03379e-06
0.00425575
0.00692021
0.00921949
0.0116921
0.0127343
0.0135828
0.013878
0.0138788
0.0130894
0.0122234
0.0115687
0.0107014
0.0100394
0.00971576
0.00952621
0.00944591
0.00939312
0.00880911
0.00743234
0.00536691
0.00354677
0.00258412
0.00201439
0.00176543
0.00165828
0.00163308
0.00167665
0.00192677
0.00233884
0.00294112
0.00337803
0.00380794
0.00405994
0.00428066
0.00438513
0.0044387
0.00445468
0.00443046
0.0043565
0.0042302
0.00402504
0.00371852
0.00318743
0.00258066
0.00186725
0.00132726
0.000836878
0.00053297
0.000360362
0.000251988
0.000196559
0.000169704
0.000163879
0.000239331
0.000775194
0.00377384
0.00924452
0.0110846
0.00984258
0.0103477
0.0113409
0.0119768
0.0122646
0.0121516
0.0113015
0.00998183
0.0087268
0.0077185
0.0073258
0.0074491
0.00841652
0.0128275
0.0210335
0.0246531
0.00885722
0.003354
0.0025761
0.00281491
0.00304143
0.00274105
0.00213772
0.00176864
0.00139582
0.00112358
0.00100831
0.000907888
0.00077075
0.000708076
0.000700692
0.00073924
0.000841754
0.00102117
0.00130059
0.00166751
0.00207085
0.00246538
0.00266975
0.00274865
0.00265035
0.00257146
0.00219476
0.00191529
0.00157775
0.00129806
0.00106346
0.000886091
0.00075697
0.000666896
0.000606077
0.000566753
0.000542854
0.000529551
0.00052263
0.000518077
0.000514507
0.000512125
0.000512447
0.000515875
0.000520619
0.000520758
0.000519716
0.000517965
0.000516562
0.000516624
0.00051834
0.000520465
0.000521731
0.000521317
0.000520401
0.000519403
0.000517693
0.000515196
0.000512942
0.000509926
0.000502664
0.000476828
0.000435278
0.000412475
0.000406765
0.000399169
0.000368555
0.000263807
0.000178042
0.000147751
0.00014684
0.000164545
0.000183638
0.000184319
0.000176426
0.000152039
0.00013667
0.000131572
0.000131201
0.00013226
0.000132798
0.000131911
0.000127454
0.000116766
0.000107343
9.86343e-05
8.97287e-05
8.13055e-05
7.44075e-05
6.92559e-05
6.51689e-05
6.13384e-05
5.74356e-05
5.36396e-05
5.03437e-05
4.77645e-05
4.59377e-05
4.42583e-05
4.2269e-05
3.927e-05
3.57423e-05
3.11476e-05
2.6895e-05
2.18035e-05
1.8216e-05
1.3628e-05
0.00434368
0.00706642
0.00949316
0.0113991
0.012079
0.012366
0.0124716
0.0123101
0.0116921
0.0113605
0.0109062
0.0102745
0.0098128
0.00944816
0.00905147
0.00847761
0.0072392
0.00547313
0.00376683
0.00272852
0.00215067
0.00190306
0.00181899
0.00180589
0.00193232
0.00232636
0.00311454
0.00371302
0.00420631
0.00443829
0.00463722
0.0047403
0.00480435
0.00483106
0.00483734
0.00482905
0.00482563
0.0048158
0.0047851
0.00472647
0.00461177
0.00447434
0.00434197
0.00400649
0.00347242
0.00266196
0.00173986
0.000983117
0.000533558
0.000319461
0.000212329
0.000165761
0.000150233
0.000162583
0.00034113
0.00145385
0.00631968
0.00898281
0.00840283
0.00688803
0.00696609
0.00729111
0.00753432
0.00761416
0.00749304
0.00717648
0.00693944
0.00692539
0.00726768
0.00863907
0.0123278
0.0174152
0.0214869
0.016242
0.0053479
0.00313434
0.0029066
0.00341371
0.0034444
0.00281202
0.00221884
0.00180363
0.00140679
0.00115709
0.00104723
0.0009454
0.000851999
0.000831669
0.000926684
0.00118707
0.00170561
0.0025465
0.00370898
0.0050357
0.00619243
0.0068665
0.00712021
0.00709572
0.00670448
0.00633749
0.00575835
0.00494057
0.00413777
0.00332263
0.00255797
0.00193588
0.00149833
0.00118445
0.000977326
0.000841014
0.000754351
0.000703476
0.000676241
0.000661345
0.000650694
0.000642157
0.000637512
0.000638569
0.000646927
0.000645975
0.000641338
0.000631126
0.000615872
0.000600776
0.000588189
0.000578624
0.000570682
0.000562881
0.000556583
0.000553309
0.000549237
0.000541475
0.000535344
0.000532257
0.000528307
0.000517005
0.00047061
0.000403222
0.000371747
0.000364231
0.000357976
0.000336555
0.000252093
0.000166986
0.000135181
0.000133377
0.000148052
0.000169537
0.000171564
0.000166433
0.000146199
0.000130021
0.000123401
0.000121922
0.000121924
0.000121942
0.000121351
0.000118261
0.000109603
0.000101114
9.35849e-05
8.58869e-05
7.82701e-05
7.17466e-05
6.68802e-05
6.32468e-05
5.99766e-05
5.6489e-05
5.29109e-05
4.95366e-05
4.67219e-05
4.43572e-05
4.28033e-05
4.11204e-05
3.95484e-05
3.66068e-05
3.37903e-05
2.91573e-05
2.56808e-05
2.03711e-05
0.00437806
0.00710022
0.00927645
0.0105018
0.0110441
0.0112463
0.0112906
0.0110627
0.010875
0.0106004
0.0100911
0.00949317
0.00896971
0.00818761
0.00696068
0.00555536
0.00409552
0.00304902
0.00236469
0.00205342
0.00194189
0.00191968
0.0020108
0.00239106
0.00328325
0.00396697
0.00433917
0.00450486
0.00455787
0.00453934
0.00446902
0.00431165
0.00423843
0.00419419
0.00417656
0.00417451
0.00417737
0.00417733
0.00417069
0.00419819
0.00428619
0.00438965
0.00449485
0.00437659
0.00415794
0.00370311
0.00315459
0.00198569
0.00102523
0.000533602
0.00029351
0.000187431
0.000149028
0.000141479
0.000184472
0.000583211
0.00322712
0.00735135
0.0080731
0.00612782
0.00557635
0.00564728
0.00576547
0.00592376
0.00605301
0.00620938
0.00660422
0.00766354
0.0105074
0.0138597
0.0163814
0.0188349
0.0202291
0.00906754
0.00392985
0.00318468
0.00365266
0.00390999
0.00359735
0.00286077
0.00224988
0.00180089
0.001391
0.00118969
0.00108922
0.00103332
0.00101501
0.00116036
0.00162375
0.00261228
0.0043721
0.00703271
0.0103317
0.0128892
0.0141327
0.0145299
0.0137029
0.0122311
0.0106648
0.00890904
0.00779609
0.00702399
0.00638511
0.00576402
0.00508132
0.00422487
0.00323606
0.0023406
0.00175758
0.00138792
0.00114943
0.00100348
0.000921764
0.000880378
0.00085881
0.000847709
0.00084629
0.000849522
0.000861999
0.000860847
0.000852816
0.000834279
0.000804126
0.000771185
0.00073503
0.00069995
0.000665446
0.000634487
0.000612003
0.000595475
0.00058414
0.000574399
0.000562994
0.000554673
0.000548623
0.000537356
0.000507493
0.000427259
0.000358147
0.000328135
0.000322072
0.00031722
0.000299467
0.000227917
0.000152067
0.000125079
0.000124167
0.000138947
0.000159572
0.000161972
0.000157399
0.000138621
0.000122754
0.000115526
0.000113334
0.000112952
0.000112839
0.000112434
0.000110378
0.000103659
9.56939e-05
8.88161e-05
8.19871e-05
7.5146e-05
6.90436e-05
6.43142e-05
6.0931e-05
5.81517e-05
5.53717e-05
5.21771e-05
4.90053e-05
4.58342e-05
4.33973e-05
4.1077e-05
3.99393e-05
3.8294e-05
3.70866e-05
3.43071e-05
3.18919e-05
2.69432e-05
0.0043324
0.00692015
0.00869186
0.00951657
0.00985638
0.00995356
0.00980709
0.00953771
0.00942489
0.00903618
0.00834554
0.00759771
0.00668941
0.00542324
0.00437428
0.00340331
0.00264892
0.00225266
0.0020705
0.00202012
0.00201759
0.00225317
0.00291951
0.00383026
0.00429705
0.00450779
0.00457363
0.00454741
0.00445165
0.00421233
0.00409051
0.00404497
0.00403861
0.00404985
0.00407276
0.00410613
0.00412209
0.00412479
0.00405983
0.00393345
0.00379581
0.00371721
0.00371199
0.0040544
0.00429996
0.00405199
0.00372788
0.00324668
0.00193316