/*--------------------------------*- C++ -*----------------------------------*\
  =========                 |
  \\      /  F ield         | OpenFOAM: The Open Source CFD Toolbox
   \\    /   O peration     | Website:  https://openfoam.org
    \\  /    A nd           | Version:  7
     \\/     M anipulation  |
\*---------------------------------------------------------------------------*/
FoamFile
{
    version     2.0;
    format      ascii;
    class       volScalarField;
    location    "0.091";
    object      k_0;
}
// * * * * * * * * * * * * * * * * * * * * * * * * * * * * * * * * * * * * * //

dimensions      [0 2 -2 0 0 0 0];

internalField   nonuniform List<scalar> 
12225
(
1.93933e-05
1.80336e-05
1.66442e-05
1.52934e-05
1.40584e-05
1.26121e-05
1.12316e-05
1.01166e-05
8.76754e-06
7.56604e-06
6.55249e-06
5.56294e-06
4.60459e-06
3.97037e-06
3.72279e-06
1.23662e-05
1.34712e-05
2.87158e-05
1.99829e-05
1.98748e-05
1.962e-05
1.94375e-05
1.91069e-05
1.88336e-05
1.8261e-05
1.79107e-05
1.72949e-05
1.69199e-05
1.62566e-05
1.58621e-05
1.51053e-05
1.47276e-05
1.38936e-05
1.45286e-05
1.50388e-05
1.64585e-05
1.99998e-05
1.92366e-05
1.92391e-05
1.92518e-05
1.92055e-05
1.91372e-05
1.90011e-05
1.88215e-05
1.85601e-05
1.83954e-05
1.8204e-05
1.81126e-05
1.79705e-05
1.78982e-05
1.76838e-05
1.80743e-05
1.80343e-05
1.80405e-05
2.0175e-05
2.00556e-05
1.94554e-05
1.84285e-05
1.78495e-05
1.76462e-05
1.72762e-05
1.66176e-05
1.61736e-05
1.59866e-05
1.59409e-05
1.59623e-05
1.61252e-05
1.6644e-05
1.68406e-05
1.71717e-05
1.7311e-05
1.73782e-05
2.10168e-05
2.15627e-05
2.14569e-05
2.1478e-05
2.17219e-05
2.16073e-05
2.09395e-05
1.86134e-05
1.45085e-05
1.34762e-05
1.35466e-05
1.39447e-05
1.49787e-05
1.58206e-05
1.62636e-05
1.64373e-05
1.64872e-05
1.64878e-05
2.14515e-05
2.2094e-05
2.40301e-05
2.44553e-05
2.42447e-05
2.40717e-05
2.37778e-05
2.26851e-05
2.03535e-05
1.93564e-05
1.91838e-05
1.93001e-05
1.9841e-05
2.00386e-05
1.99956e-05
1.97513e-05
1.90412e-05
1.82972e-05
2.09787e-05
2.26589e-05
2.41637e-05
2.50295e-05
2.49723e-05
2.47605e-05
2.41891e-05
2.31425e-05
2.26574e-05
2.25997e-05
2.26904e-05
2.30773e-05
2.41867e-05
2.50661e-05
2.53954e-05
2.54069e-05
2.52754e-05
2.47471e-05
2.10792e-05
2.12181e-05
2.16221e-05
2.39093e-05
2.42272e-05
2.36741e-05
2.2453e-05
2.19275e-05
2.18592e-05
2.20233e-05
2.29308e-05
2.52741e-05
2.75034e-05
2.91804e-05
3.01322e-05
3.04059e-05
3.03894e-05
3.01116e-05
2.00943e-05
2.05782e-05
2.44897e-05
2.74113e-05
2.61105e-05
2.28004e-05
2.13336e-05
2.10768e-05
2.1177e-05
2.16566e-05
2.22521e-05
2.31737e-05
2.51459e-05
2.74304e-05
2.93186e-05
3.05323e-05
3.10419e-05
3.11184e-05
2.00124e-05
2.0494e-05
2.23875e-05
2.24266e-05
2.1837e-05
2.10535e-05
2.07062e-05
2.05568e-05
2.04789e-05
2.04105e-05
2.03853e-05
2.04616e-05
2.08148e-05
2.19745e-05
2.42904e-05
2.60491e-05
2.69457e-05
2.7484e-05
2.00253e-05
2.0443e-05
2.29086e-05
2.44663e-05
2.45159e-05
2.41936e-05
2.29421e-05
2.16842e-05
2.1104e-05
2.09015e-05
2.08593e-05
2.0861e-05
2.08894e-05
2.09733e-05
2.11908e-05
2.1441e-05
2.15439e-05
2.16993e-05
2.04246e-05
2.03498e-05
2.05719e-05
2.15061e-05
2.24998e-05
2.2648e-05
2.2362e-05
2.15623e-05
2.12744e-05
2.12814e-05
2.14924e-05
2.16834e-05
2.17098e-05
2.16945e-05
2.15906e-05
2.12657e-05
2.08352e-05
2.05794e-05
2.03298e-05
2.01983e-05
2.0337e-05
2.13445e-05
2.26349e-05
2.26864e-05
2.20766e-05
2.1114e-05
2.08697e-05
2.09098e-05
2.127e-05
2.18365e-05
2.20808e-05
2.21241e-05
2.20865e-05
2.18308e-05
2.14071e-05
2.11237e-05
2.05482e-05
2.04086e-05
2.07425e-05
2.11391e-05
2.1185e-05
2.114e-05
2.0929e-05
2.07311e-05
2.07059e-05
2.08084e-05
2.13251e-05
2.18272e-05
2.20116e-05
2.20317e-05
2.19713e-05
2.16656e-05
2.13621e-05
2.12406e-05
2.03382e-05
2.09272e-05
2.09432e-05
2.11236e-05
2.11955e-05
2.11273e-05
2.1085e-05
2.11173e-05
2.12908e-05
2.14816e-05
2.15944e-05
2.16349e-05
2.16251e-05
2.15341e-05
2.13593e-05
2.12542e-05
2.12119e-05
2.12035e-05
2.02708e-05
2.04049e-05
2.05364e-05
2.11256e-05
2.188e-05
2.21948e-05
2.22545e-05
2.2212e-05
2.19615e-05
2.15849e-05
2.13086e-05
2.1121e-05
2.10259e-05
2.09954e-05
2.0995e-05
2.10261e-05
2.11024e-05
2.11589e-05
2.02308e-05
2.08256e-05
2.09338e-05
2.09438e-05
2.09481e-05
2.09439e-05
2.09237e-05
2.08604e-05
2.06876e-05
2.05427e-05
2.04895e-05
2.049e-05
2.0527e-05
2.06719e-05
2.08003e-05
2.08667e-05
2.09057e-05
2.09312e-05
2.02719e-05
2.02765e-05
2.02447e-05
2.02445e-05
2.02913e-05
2.03234e-05
2.03225e-05
2.03001e-05
2.02792e-05
2.02783e-05
2.02867e-05
2.03328e-05
2.0547e-05
2.09869e-05
2.12267e-05
2.12875e-05
2.12834e-05
2.12438e-05
2.00933e-05
2.02896e-05
2.04461e-05
2.05185e-05
2.05188e-05
2.04502e-05
2.02646e-05
2.01679e-05
2.01443e-05
2.01478e-05
2.01861e-05
2.03195e-05
2.04414e-05
2.0505e-05
2.05279e-05
2.05379e-05
2.05605e-05
2.06474e-05
2.02004e-05
2.07851e-05
2.09371e-05
2.08954e-05
2.06724e-05
2.05134e-05
2.04708e-05
2.04683e-05
2.04758e-05
2.04778e-05
2.0469e-05
2.04182e-05
2.03484e-05
2.0313e-05
2.03013e-05
2.03006e-05
2.03084e-05
2.03644e-05
2.03121e-05
2.06613e-05
2.08751e-05
2.09169e-05
2.07817e-05
2.0646e-05
2.06281e-05
2.06382e-05
2.06422e-05
2.06259e-05
2.05334e-05
2.04179e-05
2.0363e-05
2.03467e-05
2.03462e-05
2.03564e-05
2.04021e-05
2.04425e-05
2.08113e-05
2.04084e-05
2.04855e-05
2.06251e-05
2.06427e-05
2.0631e-05
2.06033e-05
2.05916e-05
2.05903e-05
2.05952e-05
2.05881e-05
2.05141e-05
2.03924e-05
2.03415e-05
2.03313e-05
2.03342e-05
2.03615e-05
2.04855e-05
2.02966e-05
2.00869e-05
2.00543e-05
2.0075e-05
2.0129e-05
2.02698e-05
2.04627e-05
2.05745e-05
2.06094e-05
2.06081e-05
2.05684e-05
2.04164e-05
2.0286e-05
2.02297e-05
2.02145e-05
2.02143e-05
2.02247e-05
2.02779e-05
2.00251e-05
2.00418e-05
2.00482e-05
2.00506e-05
2.00597e-05
2.01132e-05
2.03186e-05
2.05041e-05
2.05708e-05
2.0578e-05
2.05591e-05
2.0457e-05
2.03134e-05
2.02279e-05
2.01848e-05
2.01681e-05
2.01648e-05
2.01667e-05
2.008e-05
2.0218e-05
2.02501e-05
2.02175e-05
2.01897e-05
2.02105e-05
2.03036e-05
2.03533e-05
2.03579e-05
2.03464e-05
2.02994e-05
2.0258e-05
2.02377e-05
2.02302e-05
2.02286e-05
2.02287e-05
2.02294e-05
2.02319e-05
2.04066e-05
2.02075e-05
2.01275e-05
2.01222e-05
2.01736e-05
2.03868e-05
2.0508e-05
2.05215e-05
2.04931e-05
2.03539e-05
2.02164e-05
2.01559e-05
2.01398e-05
2.01419e-05
2.01713e-05
2.01845e-05
2.01802e-05
2.01702e-05
2.00427e-05
2.00335e-05
2.0009e-05
1.99586e-05
1.9862e-05
1.962e-05
1.95363e-05
1.95762e-05
1.98058e-05
2.02395e-05
2.03777e-05
2.03521e-05
2.01985e-05
1.98045e-05
1.89511e-05
1.79193e-05
1.73039e-05
1.69521e-05
2.01798e-05
1.7173e-05
1.57823e-05
1.64232e-05
1.83757e-05
2.10313e-05
2.3875e-05
2.91113e-05
4.12517e-05
5.51794e-05
6.44255e-05
6.82076e-05
6.99994e-05
7.26868e-05
7.79692e-05
8.36646e-05
9.08419e-05
9.42749e-05
3.02693e-05
9.53358e-05
0.000123158
0.000178251
0.00023358
0.000264185
0.000296256
0.000364181
0.000461774
0.000545434
0.000592816
0.000611521
0.000621911
0.000634553
0.000646765
0.000654302
0.000659419
0.000660036
0.00217762
0.00226277
0.0022722
0.00219155
0.00200624
0.00189312
0.00184229
0.00182738
0.00182372
0.00181691
0.00178997
0.00175387
0.0017342
0.00170909
0.0016495
0.0015508
0.00148288
0.00144276
0.0043436
0.00630926
0.0060314
0.0060194
0.00601037
0.00595254
0.0058653
0.00573946
0.0056197
0.0054099
0.00515417
0.00499291
0.00498325
0.00510082
0.00531442
0.00555043
0.00593514
0.00636089
0.00653922
0.00656524
0.0064601
0.00613835
0.00574277
0.0053675
0.00510817
0.0050573
0.00511386
0.00525568
0.00539295
0.00546921
0.00549617
0.005493
0.00544222
0.00531953
0.00508847
0.0048582
0.0048227
0.00489022
0.00519352
0.00579981
0.00675644
0.00724958
0.00727656
0.00705912
0.00688703
0.00685252
0.00698427
0.00715257
0.00741305
0.00770741
0.00815192
0.00880529
0.0100667
0.0120509
0.0145054
0.0168963
0.0185594
0.0192015
0.0191728
0.0183792
0.0161083
0.0143946
0.0139531
0.0143419
0.0150617
0.0156268
0.0170641
0.0203586
0.028489
0.0445599
0.0642251
0.076632
0.0787284
0.0838276
0.115059
0.160302
0.181982
0.180332
0.143412
0.033722
0.00336379
0.00159783
0.00132959
0.00128515
0.00121979
0.00111372
0.000966037
0.000811737
0.000678405
0.000557152
0.000439244
0.000378858
0.000307843
0.000274582
0.000254567
0.000247626
0.000248373
0.00024834
0.000246998
0.000246657
0.000246241
0.000243568
0.0002403
0.000238165
0.00023566
0.000232424
0.000229592
0.000227783
0.000225502
0.000221988
0.000218246
0.000216393
0.000213369
0.000209443
0.00020662
0.000203124
0.000200026
0.000195646
0.000192967
0.000188918
0.00018562
0.000182073
0.000178585
0.000174816
0.000170684
0.000166104
0.000161079
0.000155835
0.000150265
0.00014443
0.000138155
0.000131367
0.000123963
0.000116119
0.000108443
0.00010145
9.47075e-05
8.79422e-05
8.01178e-05
7.00718e-05
5.95308e-05
5.01437e-05
4.11559e-05
3.15861e-05
2.26273e-05
1.5689e-05
1.07203e-05
7.42861e-06
5.37857e-06
4.13549e-06
3.35903e-06
2.826e-06
2.40956e-06
2.04993e-06
1.72956e-06
1.45032e-06
1.21494e-06
1.01984e-06
8.57298e-07
7.20798e-07
6.05003e-07
5.07374e-07
4.24365e-07
3.55419e-07
2.96113e-07
2.50723e-07
2.01162e-07
1.82996e-07
1.67095e-07
1.80371e-07
1.64537e-07
1.75612e-07
1.30807e-07
1.61729e-07
1.05135e-07
2.38175e-07
3.10006e-07
6.51159e-07
9.01885e-06
7.11005e-06
0.00405768
0.00527572
0.00680237
0.00752504
0.00755447
0.00743238
0.00708836
0.00674145
0.0065774
0.0064637
0.00630216
0.00606858
0.00579782
0.005573
0.00556118
0.00564562
0.00581081
0.0059683
0.0061334
0.00608383
0.00547093
0.00484007
0.00470425
0.00474506
0.00483522
0.00503291
0.00542444
0.00603415
0.00688634
0.00803196
0.00882184
0.00904635
0.00909885
0.00908326
0.00889196
0.00832926
0.00775894
0.00765578
0.00778603
0.00838242
0.00933453
0.00972948
0.00976055
0.00969623
0.00962318
0.00963635
0.00951663
0.00932275
0.00921674
0.00903734
0.00906383
0.00918427
0.00931543
0.00938144
0.00953281
0.0103772
0.0125281
0.0147013
0.016341
0.016672
0.0162946
0.0148299
0.0130363
0.0116961
0.0103006
0.00851361
0.00717804
0.00708848
0.00762813
0.00934463
0.0141689
0.0227199
0.0242788
0.0237312
0.0258765
0.0349291
0.097209
0.135806
0.0495049
0.0079166
0.00178261
0.0010913
0.000896786
0.000814603
0.000747718
0.000689059
0.000647945
0.000621151
0.000602925
0.000594771
0.000591893
0.000590775
0.000588723
0.000585002
0.000582333
0.000581287
0.0005767
0.000565926
0.000557013
0.000553229
0.000549114
0.000539376
0.000527583
0.000517511
0.000507543
0.000496977
0.000484005
0.000474297
0.000466208
0.000455189
0.000440377
0.000433245
0.000422859
0.000411973
0.000403444
0.000393832
0.000386572
0.000377453
0.000369098
0.000361349
0.000353753
0.000346914
0.000340562
0.000334293
0.000327392
0.000319464
0.000310776
0.000302124
0.000292323
0.00028281
0.000273185
0.000263135
0.000252279
0.000240029
0.000225312
0.000207178
0.000188343
0.000172123
0.000159148
0.000150651
0.000145505
0.000140327
0.000132921
0.000123422
0.000112055
9.90442e-05
8.56626e-05
7.29165e-05
6.15449e-05
5.19316e-05
4.40653e-05
3.77321e-05
3.25901e-05
2.81499e-05
2.39916e-05
2.00536e-05
1.65644e-05
1.37126e-05
1.14367e-05
9.58766e-06
8.03471e-06
6.71981e-06
5.58727e-06
4.63174e-06
3.81822e-06
3.16966e-06
2.593e-06
2.22112e-06
1.82718e-06
1.64164e-06
1.35418e-06
1.24018e-06
1.00256e-06
9.22737e-07
7.2544e-07
6.81109e-07
6.02487e-07
6.0222e-07
1.61875e-06
1.72191e-06
0.00193606
0.00426003
0.00559534
0.00629923
0.00678479
0.00684062
0.0067961
0.0066619
0.00646744
0.0062353
0.00594998
0.00578708
0.00568962
0.00555561
0.00549969
0.00551548
0.00559583
0.0055698
0.00540203
0.00525411
0.005027
0.00490867
0.00538544
0.00714325
0.00892564
0.00946387
0.0100417
0.0107975
0.0111567
0.0113052
0.0113265
0.0112665
0.0111238
0.0110524
0.0110401
0.0110787
0.0112858
0.0116634
0.0117622
0.0116598
0.0111898
0.0104293
0.0101458
0.0100805
0.0101648
0.0106078
0.0110654
0.0112038
0.0111661
0.0108219
0.0107108
0.0109646
0.0116682
0.0125058
0.0139507
0.0146229
0.013933
0.0114678
0.00954911
0.00957822
0.0109994
0.0122149
0.0118607
0.00986364
0.00811129
0.00707942
0.00641878
0.00623152
0.00637657
0.00685445
0.00823863
0.0104054
0.0119792
0.0134595
0.0185144
0.0486615
0.0833427
0.0405438
0.00946582
0.00193258
0.00104597
0.000896104
0.0008338
0.000777392
0.000742465
0.000702355
0.000676864
0.000657477
0.000637925
0.000624286
0.000613626
0.000608393
0.00060636
0.000610375
0.000623031
0.000636505
0.000650915
0.000657853
0.000660558
0.000660909
0.000657515
0.000654792
0.000646861
0.000637592
0.000628258
0.000618931
0.000609602
0.000598131
0.000590174
0.000581295
0.000568159
0.000559642
0.000548116
0.000537583
0.000525879
0.000514953
0.000504094
0.000493354
0.000481045
0.000469303
0.000456936
0.00044479
0.000432403
0.000419959
0.000407447
0.000394749
0.000381828
0.000368778
0.000355407
0.000341332
0.000327378
0.00031324
0.000299498
0.000286873
0.000275545
0.000264792
0.000250895
0.000228973
0.000200814
0.000172079
0.000150281
0.000139094
0.000134791
0.000133072
0.000131479
0.000128211
0.000119571
0.000106566
9.45328e-05
8.44626e-05
7.60617e-05
6.87442e-05
6.21535e-05
5.61501e-05
5.08538e-05
4.6395e-05
4.26039e-05
3.91093e-05
3.56479e-05
3.21229e-05
2.85328e-05
2.49347e-05
2.14232e-05
1.81149e-05
1.50897e-05
1.24033e-05
1.00836e-05
8.13361e-06
6.52803e-06
5.23704e-06
4.21813e-06
3.40553e-06
2.80026e-06
2.27935e-06
1.94261e-06
1.56484e-06
1.40665e-06
1.06497e-06
1.03077e-06
8.93999e-07
0.00182526
0.00418119
0.00490212
0.00527344
0.00577003
0.00608332
0.00623571
0.00618907
0.00604318
0.00593933
0.00582265
0.00579841
0.00577413
0.00568699
0.00552626
0.00543073
0.00529842
0.00523391
0.00523648
0.00535418
0.00581009
0.00768495
0.00997926
0.0108788
0.0111603
0.0112691
0.0113539
0.0113846
0.0113518
0.0112233
0.0110424
0.0107565
0.0103545
0.00985245
0.00920005
0.00836868
0.00730096
0.00614473
0.00512041
0.00437959
0.00400649
0.003807
0.00371565
0.00368871
0.00376466
0.0037871
0.00396413
0.00416932
0.0044368
0.00491226
0.00560358
0.00667908
0.00848513
0.010781
0.0139714
0.0172956
0.0181144
0.0178415
0.0169647
0.0139785
0.0115077
0.0104852
0.0099814
0.00909725
0.0079745
0.00701146
0.00647982
0.00635889
0.00639659
0.00667258
0.00758978
0.0086376
0.00957237
0.0128173
0.0311537
0.0559268
0.0372359
0.0110575
0.00256689
0.00113822
0.000995749
0.000949057
0.000930452
0.000922553
0.000925234
0.000916007
0.000914833
0.000901204
0.000891288
0.000868543
0.000846476
0.000827713
0.000814114
0.000798562
0.000779099
0.000756483
0.000735804
0.000717032
0.000698893
0.000687375
0.000675761
0.000668058
0.000660244
0.000651962
0.000645174
0.000637052
0.000631736
0.000623686
0.000618058
0.000612474
0.000605629
0.000601399
0.000595766
0.000591846
0.000587721
0.000584499
0.000581627
0.000579192
0.000576444
0.0005739
0.000570673
0.0005665
0.000561058
0.000554207
0.000545713
0.000535078
0.000521702
0.000504629
0.00048331
0.000457284
0.000426778
0.000393244
0.000357529
0.000323333
0.0002971
0.000279094
0.000269382
0.0002664
0.000264849
0.000258151
0.000233232
0.000197125
0.000171988
0.000160088
0.000156299
0.000155343
0.000154665
0.000153303
0.000150112
0.000140815
0.000121888
0.000104811
9.07459e-05
7.9252e-05
6.9911e-05
6.21981e-05
5.56474e-05
5.00575e-05
4.538e-05
4.1487e-05
3.80957e-05
3.48687e-05
3.15812e-05
2.81857e-05
2.47618e-05
2.14069e-05
1.81924e-05
1.51547e-05
1.23485e-05
9.83431e-06
7.69053e-06
5.92591e-06
4.55511e-06
3.49843e-06
2.73818e-06
2.1566e-06
1.76191e-06
1.43442e-06
1.2184e-06
1.01513e-06
0.00326175
0.00480593
0.00498557
0.00605159
0.00806779
0.00934771
0.00995258
0.00990724
0.00972738
0.00929785
0.00851595
0.00742013
0.00669578
0.00619141
0.00570753
0.00545329
0.00533709
0.00546619
0.00599734
0.00753445
0.00970026
0.0107536
0.0110681
0.011135
0.0111128
0.0109666
0.0106616
0.010105
0.0092536
0.00801741
0.00664619
0.00551825
0.00429345
0.00342605
0.00255714
0.00202484
0.00167805
0.00147448
0.00132176
0.00123547
0.00114931
0.0011104
0.00107682
0.00103926
0.00100021
0.000955168
0.000910918
0.000888235
0.000904862
0.000967585
0.00109316
0.00135009
0.00193876
0.00328115
0.00574213
0.0104672
0.0133755
0.0143434
0.0153418
0.016063
0.01565
0.0135618
0.0109585
0.00953856
0.00839935
0.00737139
0.0068005
0.00673911
0.00687539
0.00771405
0.0084607
0.00870252
0.00962753
0.0169719
0.0387276
0.0425764
0.0135
0.00366805
0.00143232
0.00116548
0.00117277
0.00122107
0.001154
0.00111864
0.00100778
0.000962218
0.000912728
0.000890092
0.000851452
0.000795369
0.00073021
0.000664653
0.000630014
0.000589149
0.00056096
0.000543912
0.000533043
0.000524123
0.000517967
0.000511933
0.000506505
0.000502974
0.000500341
0.000499079
0.000498189
0.000498767
0.000501051
0.000504522
0.000508427
0.000512137
0.000517728
0.000522535
0.000528484
0.000534712
0.00054207
0.000549019
0.000556114
0.000563137
0.000569326
0.000574534
0.000578691
0.00058167
0.000583226
0.000583613
0.000582923
0.000580727
0.000577085
0.000571779
0.000564717
0.000555703
0.00054267
0.000524088
0.000499099
0.000460468
0.000400465
0.000329899
0.000274571
0.000248254
0.000242527
0.000247565
0.000253373
0.000250673
0.000228112
0.000186628
0.000164386
0.000156408
0.000155248
0.00015678
0.000159613
0.000159756
0.000158401
0.000152349
0.000136468
0.000119672
0.000104275
9.07272e-05
7.93399e-05
6.9843e-05
6.18218e-05
5.51618e-05
4.99184e-05
4.60005e-05
4.3083e-05
4.07606e-05
3.85691e-05
3.60124e-05
3.26587e-05
2.84264e-05
2.36111e-05
1.87633e-05
1.43421e-05
1.06332e-05
7.71094e-06
5.53842e-06
3.97793e-06
2.88987e-06
2.15981e-06
1.65453e-06
1.33936e-06
1.07233e-06
0.00364117
0.00559671
0.00607884
0.0096235
0.0118974
0.0131598
0.0137913
0.0140866
0.0139261
0.01355
0.0124468
0.0110201
0.00912032
0.00727225
0.00611916
0.00585297
0.00626858
0.00763765
0.00922909
0.0102992
0.0106766
0.0107787
0.0107745
0.0103087
0.00953486
0.00817862
0.00634162
0.00483579
0.00349549
0.00253224
0.00203318
0.00150361
0.00125383
0.0010471
0.00094638
0.000894762
0.000878559
0.000877699
0.000880444
0.000881137
0.000871847
0.000867745
0.000854984
0.000820841
0.000770179
0.000695321
0.000586055
0.000481715
0.000422697
0.000394163
0.000396907
0.000443128
0.000616366
0.00131746
0.00330323
0.0080354
0.0110402
0.012186
0.0127218
0.0138597
0.0147857
0.0147342
0.0140367
0.0119049
0.0097816
0.00826289
0.00757739
0.00754644
0.0078152
0.00860905
0.00867835
0.00871582
0.0102581
0.0225727
0.0374708
0.0195442
0.00547073
0.00197858
0.0014673
0.00149954
0.00163365
0.00146684
0.00130484
0.00110919
0.00100421
0.000917317
0.000800569
0.000749399
0.000690929
0.000644324
0.000611019
0.000567979
0.000545456
0.000524598
0.000511367
0.000503407
0.000498687
0.000495529
0.00048983
0.000484307
0.000475896
0.000470802
0.000463234
0.000459499
0.000453208
0.000450477
0.000447263
0.000445651
0.000444895
0.000444817
0.000445427
0.000446775
0.000449033
0.000452634
0.000457605
0.000462821
0.000469335
0.000476402
0.000484635
0.000493585
0.000503187
0.00051311
0.00052314
0.000532363
0.000540519
0.000547041
0.000551907
0.000554986
0.000556101
0.000555426
0.000551424
0.000542218
0.000529536
0.000515568
0.000499309
0.000470379
0.000403118
0.000307552
0.000238402
0.000213401
0.000213265
0.000229386
0.000238802
0.000235412
0.000208676
0.000171801
0.00015572
0.000151852
0.000152486
0.000156216
0.000157904
0.00015773
0.000155644
0.000147236
0.000132274
0.000118177
0.000104922
9.29336e-05
8.27047e-05
7.43438e-05
6.75382e-05
6.19157e-05
5.72939e-05
5.37382e-05
5.12046e-05
4.93522e-05
4.74087e-05
4.46069e-05
4.04343e-05
3.50619e-05
2.90289e-05
2.31397e-05
1.78249e-05
1.32917e-05
9.51425e-06
6.54238e-06
4.46111e-06
3.0372e-06
2.30223e-06
1.6138e-06
0.00395481
0.00614731
0.00708935
0.011259
0.0133141
0.0145545
0.0151225
0.0156514
0.0155635
0.0142016
0.0127265
0.0113549
0.00968999
0.00834887
0.00778354
0.00787261
0.00915573
0.00984664
0.0101876
0.010303
0.0103032
0.00971009
0.00849667
0.00621661
0.00462944
0.00309424
0.00238155
0.0017004
0.00138232
0.00119838
0.00109071
0.00103771
0.0010187
0.00101375
0.00102392
0.00105906
0.00109227
0.00110699
0.0011107
0.00109103
0.00103018
0.000983521
0.000917076
0.000851725
0.000781256
0.000691418
0.000569886
0.00043756
0.000351298
0.000281569
0.000257321
0.00025686
0.000326763
0.000749131
0.00272368
0.00756909
0.0110443
0.0125478
0.0129491
0.0133388
0.0140277
0.014367
0.0142934
0.0138524
0.0125321
0.0108259
0.00965987
0.00910973
0.00875151
0.0080307
0.00777604
0.00823179
0.0124251
0.0267132
0.0289701
0.00900439
0.00293217
0.00193046
0.0018239
0.00205648
0.00196233
0.00157769
0.0013694
0.00110106
0.000991666
0.000881559
0.000746543
0.000667702
0.000631115
0.000611484
0.00059574
0.000573704
0.000559508
0.000555124
0.000555322
0.000561276
0.000569076
0.000571442
0.0005611
0.000554587
0.000528483
0.000516609
0.000492167
0.000480871
0.000464967
0.000456805
0.000449034
0.000444852
0.000442196
0.000440903
0.000440417
0.000440612
0.000441634
0.000443862
0.0004473
0.000450701
0.000455385
0.000459956
0.000465398
0.000471242
0.000477597
0.000484067
0.000490341
0.000496258
0.000501721
0.000506282
0.000509777
0.00051227
0.000513886
0.000515075
0.000516161
0.000516623
0.000516248
0.000511671
0.000498389
0.000487401
0.000472465
0.000439883
0.000353012
0.000248063
0.000194564
0.000184605
0.000193311
0.000216177
0.000219739
0.000212416
0.000180644
0.000155881
0.000146985
0.000146303
0.00014902
0.000152224
0.000152307
0.000150774
0.000144127
0.000130943
0.000118516
0.000106367
9.48348e-05
8.49374e-05
7.71838e-05
7.11843e-05
6.61075e-05
6.1481e-05
5.74132e-05
5.42643e-05
5.20203e-05
5.0178e-05
4.79224e-05
4.46783e-05
4.02621e-05
3.4982e-05
2.9337e-05
2.37837e-05
1.86971e-05
1.4159e-05
1.06087e-05
7.66065e-06
5.88917e-06
3.96048e-06
0.00415092
0.00666646
0.0085746
0.011922
0.0138294
0.0149529
0.0152808
0.0152796
0.014687
0.0134805
0.0122368
0.0110757
0.0100453
0.00956679
0.00941444
0.00946495
0.00976604
0.00983641
0.00980125
0.00918076
0.00776347
0.0054883
0.00365688
0.00272296
0.00197037
0.00161882
0.00145786
0.00137709
0.00135479
0.0013522
0.00147959
0.00164464
0.00186592
0.00208796
0.00232147
0.00244954
0.0025046
0.00251918
0.0024424
0.00230175
0.00205574
0.00177802
0.00148625
0.00120326
0.000957692
0.000755506
0.000580834
0.000431508
0.000339363
0.000251437
0.000208436
0.000192881
0.000214448
0.00048136
0.00210723
0.00693706
0.0111221
0.0125601
0.0125187
0.0129506
0.0134492
0.013822
0.0139237
0.0137287
0.0127683
0.0110534
0.0096929
0.00883884
0.00802079
0.00757291
0.00769618
0.0091161
0.0174205
0.0270323
0.0160694
0.00483919
0.00249741
0.00213873
0.00247851
0.00255811
0.0020551
0.00169565
0.00138127
0.00110661
0.00099495
0.000886166
0.000749218
0.000667948
0.000639984
0.000631781
0.000630894
0.000643514
0.000681596
0.000743961
0.000823444
0.000919831
0.000981109
0.00100587
0.000984989
0.000965482
0.000853009
0.000798245
0.000697735
0.000640062
0.000580727
0.000538765
0.000507913
0.000486365
0.000472308
0.000463795
0.000459084
0.000456782
0.000455886
0.000456021
0.000457486
0.000459286
0.000462969
0.000466908
0.000471302
0.00047528
0.000479736
0.000484665
0.000489792
0.000494931
0.000499808
0.000503882
0.000506783
0.000508439
0.000509123
0.000509139
0.000508962
0.000508412
0.000507037
0.000503023
0.000489316
0.000466308
0.000454096
0.000447641
0.000431392
0.000376778
0.000258624
0.000184738
0.000163283
0.000165965
0.0001889
0.000200902
0.000199361
0.000182715
0.00015515
0.000142185
0.000139272
0.000140014
0.000143042
0.000143547
0.000142286
0.000136423
0.000124347
0.000113609
0.000103215
9.29675e-05
8.38083e-05
7.65006e-05
7.09331e-05
6.63789e-05
6.2109e-05
5.79477e-05
5.42101e-05
5.13021e-05
4.92125e-05
4.74358e-05
4.52536e-05
4.21259e-05
3.80516e-05
3.31607e-05
2.81003e-05
2.28829e-05
1.84548e-05
1.41098e-05
1.12739e-05
8.01299e-06
0.00425472
0.00691576
0.00921465
0.011686
0.0127296
0.0135784
0.0138742
0.0138754
0.0130883
0.0122212
0.0115694
0.0107059
0.0100448
0.00971954
0.0095279
0.00944657
0.00938848
0.00879949
0.00741005
0.00535195
0.0035402
0.00257816
0.00201132
0.00176374
0.00165716
0.0016322
0.00167704
0.00192832
0.00234178
0.00294321
0.00337942
0.0038084
0.00405881
0.0042786
0.00438278
0.00443619
0.00445217
0.00442735
0.0043526
0.00422501
0.00401798
0.00370839
0.00317257
0.00256567
0.00185513
0.00131813
0.000831746
0.000530404
0.000359506
0.000251539
0.000196349
0.000169637
0.000164061
0.00024109
0.000786606
0.00384295
0.00930042
0.0111262
0.00988578
0.0104052
0.0113841
0.0120033
0.0122741
0.0121424
0.0112645
0.00994265
0.00868914
0.0076935
0.00731947
0.00745532
0.00846659
0.0130024
0.0211214
0.0245474
0.00872553
0.00333718
0.00257984
0.00283278
0.00305527
0.00274912
0.00214541
0.00177491
0.00140129
0.00112699
0.00101073
0.00091093
0.00077398
0.000709682
0.000701859
0.000739944
0.000842232
0.00102089
0.0012987
0.00166311
0.00206263
0.00245248
0.00265397
0.00273133
0.00262972
0.00255074
0.00217492
0.00189682
0.00156177
0.00128484
0.0010533
0.000878504
0.000751263
0.000662595
0.000602734
0.000564076
0.000540626
0.000527601
0.000520835
0.000516378
0.000512907
0.00051065
0.000511099
0.000514658
0.000519408
0.000519633
0.000518685
0.000517102
0.000515896
0.000516133
0.000518012
0.000520211
0.000521522
0.000521126
0.00052024
0.000519256
0.000517542
0.000515058
0.000512815
0.000509757
0.00050232
0.000475877
0.000434519
0.000412192
0.000406674
0.000398959
0.00036751
0.000261658
0.00017699
0.000147448
0.000146784
0.00016494
0.000183748
0.000184325
0.000176196
0.000151701
0.000136514
0.000131525
0.000131186
0.000132267
0.000132791
0.000131882
0.000127349
0.000116627
0.000107228
9.85228e-05
8.96199e-05
8.12105e-05
7.43337e-05
6.92e-05
6.51218e-05
6.12933e-05
5.73914e-05
5.35995e-05
5.03106e-05
4.77398e-05
4.59186e-05
4.42386e-05
4.22425e-05
3.9236e-05
3.57009e-05
3.11033e-05
2.68492e-05
2.17619e-05
1.81776e-05
1.35969e-05
0.00434232
0.00706216
0.00948743
0.0113955
0.0120783
0.0123652
0.0124706
0.01231
0.0116912
0.0113579
0.0109067
0.0102763
0.00981401
0.0094477
0.00904642
0.00846585
0.0072144
0.00545345
0.00375838
0.00272158
0.00214756
0.00190098
0.00181755
0.00180471
0.00193237
0.0023274
0.00311707
0.0037142
0.00420609
0.00443743
0.00463569
0.00473895
0.00480351
0.00483066
0.00483716
0.00482964
0.00482662
0.00481739
0.00478668
0.00472614
0.00461148
0.00447377
0.00433934
0.00400086
0.00345908
0.00264666
0.00172272
0.000974287
0.00052931
0.000317433
0.000211457
0.000165491
0.000150129
0.000163112
0.000345434
0.0014786
0.00638299
0.0090288
0.00841417
0.00691178
0.00699742
0.00731717
0.00754998
0.00761818
0.00748311
0.00716284
0.00693117
0.00692301
0.00728258
0.00870934
0.0124687
0.0175145
0.0215088
0.0159556
0.00528422
0.00313372
0.00292121
0.00342851
0.00345444
0.0028191
0.00222528
0.00180864
0.00141111
0.00115999
0.00104968
0.000948502
0.000855266
0.000834292
0.00092913
0.00118944
0.00170773
0.00254743
0.00370629
0.00502671
0.00617313
0.00684099
0.00709256
0.00706455
0.00667377
0.0063091
0.00572643
0.00490588
0.00410205
0.00328752
0.00252652
0.00191483
0.00148171
0.00117256
0.000968541
0.000834299
0.000749076
0.000699161
0.000672505
0.000657908
0.000647425
0.000639035
0.000634566
0.000635815
0.000644351
0.000643423
0.000638751
0.000628599
0.000613652
0.000598977
0.00058688
0.000577658
0.000569951
0.00056233
0.000556193
0.000552996
0.000548879
0.000541122
0.000535088
0.00053204
0.000528026
0.000516398
0.00046888
0.000402043
0.000371298
0.000364043
0.000357733
0.000335816
0.000250168
0.000165952
0.000134852
0.000133304
0.000148408
0.00016967
0.000171564
0.000166285
0.000145873
0.000129849
0.000123335
0.000121901
0.000121914
0.000121934
0.000121329
0.000118188
0.000109477
0.000101012
9.34884e-05
8.57908e-05
7.81825e-05
7.16768e-05
6.68287e-05
6.32056e-05
5.9937e-05
5.64485e-05
5.28718e-05
4.95024e-05
4.6693e-05
4.43353e-05
4.27856e-05
4.11029e-05
3.95248e-05
3.65775e-05
3.37533e-05
2.91179e-05
2.5639e-05
2.03325e-05
0.0043769
0.00709654
0.0092719
0.0104984
0.0110422
0.0112441
0.0112879
0.0110576
0.010869
0.0105957
0.0100873
0.00948848
0.00896098
0.00817083
0.00693766
0.00553128
0.004082
0.00303954
0.002361
0.00205121
0.00194052
0.00191837
0.00201059
0.00239202
0.00328649
0.0039688
0.00433965
0.0045046
0.00455716
0.00453804
0.00446779
0.00431094
0.00423801
0.00419434
0.004177
0.00417491
0.00417828
0.00417879
0.00417353
0.00420402
0.00429269
0.00439485
0.00450069
0.00437487
0.0041533
0.00369497
0.00314054
0.0019632
0.00101396
0.000527845
0.000290791
0.000186302
0.000148772
0.000141463
0.000185782
0.000593977
0.00329934
0.00740396
0.00808278
0.00612838
0.00558069
0.00565099
0.0057672
0.0059234
0.00605208
0.00620993
0.00661334
0.00770219
0.0106152
0.0139639
0.0164487
0.0188595
0.0201658
0.00891574
0.00390626
0.00318664
0.00366865
0.00392215
0.00360345
0.00286623
0.0022545
0.00180461
0.0013935
0.00119215
0.00109164
0.00103642
0.00101882
0.00116537
0.00163092
0.00262267
0.00438487
0.00704502
0.010336
0.0128798
0.014117
0.0145116
0.0136823
0.0122153
0.0106545
0.00890461
0.00779751
0.00702456
0.00638073
0.00575318
0.00506148
0.00419109
0.00320095
0.00231207
0.00173919
0.0013747
0.00113957
0.000995992
0.000915857
0.000875366
0.000854232
0.000843148
0.000841761
0.000845365
0.000858399
0.00085748
0.000849702
0.000831421
0.000801453
0.000768675
0.000732674
0.000697897
0.000663759
0.000633252
0.000611159
0.0005949
0.000583706
0.000573953
0.000562574
0.000554348
0.000548261
0.00053678
0.000506128
0.000425135
0.000356925
0.00032766
0.000321844
0.000316943
0.000298834
0.000226255
0.000151174
0.0001248
0.000124099
0.000139298
0.000159714
0.000161975
0.000157268
0.000138314
0.000122581
0.000115452
0.000113307
0.000112941
0.00011283
0.000112419
0.000110329
0.000103547
9.55988e-05
8.87291e-05
8.19014e-05
7.5066e-05
6.89775e-05
6.42649e-05
6.08939e-05
5.81189e-05
5.53374e-05
5.21413e-05
4.89702e-05
4.58034e-05
4.33708e-05
4.10575e-05
3.99241e-05
3.82789e-05
3.7068e-05
3.42795e-05
3.18563e-05
2.69039e-05
0.00433186
0.00691823
0.00868844
0.00951309
0.00985309
0.00994993
0.00980087
0.00952596
0.00941105
0.00902306
0.00833026
0.00757817
0.00666757
0.00540397
0.00435782
0.00339099
0.0026427
0.00224966
0.00206938
0.00201958
0.00201746
0.00225465
0.00292467
0.00383307
0.00429844
0.00450812
0.00457339
0.00454592
0.00445022
0.00421073
0.0040892
0.00404387
0.00403758
0.00404905
0.00407194
0.00410542
0.00412113
0.00412326
0.00405796
0.00393122
0.00379584
0.00371692
0.00371806
0.00406214
0.00430063
0.00404773
0.00372339
0.00323223
0.00190973
0.000970844
0.000491255