/*--------------------------------*- C++ -*----------------------------------*\
  =========                 |
  \\      /  F ield         | OpenFOAM: The Open Source CFD Toolbox
   \\    /   O peration     | Website:  https://openfoam.org
    \\  /    A nd           | Version:  7
     \\/     M anipulation  |
\*---------------------------------------------------------------------------*/
FoamFile
{
    version     2.0;
    format      ascii;
    class       volScalarField;
    location    "0.091";
    object      nut;
}
// * * * * * * * * * * * * * * * * * * * * * * * * * * * * * * * * * * * * * //

dimensions      [0 2 -1 0 0 0 0];

internalField   nonuniform List<scalar> 
12225
(
0
0
0
0
0
0
0
0
0
0
0
0
0
0
0
2.22548e-10
0
0
0
0
0
0
0
0
0
0
0
0
0
0
0
0
0
2.38721e-10
0
0
0
2.7605e-11
0
9.19493e-11
2.21908e-10
0
0
0
0
0
0
0
0
0
0
5.49856e-10
0
0
9.82229e-08
1.89592e-08
9.63965e-09
3.77139e-09
1.23759e-09
0
0
0
0
0
0
0
0
0
0
7.9186e-10
0
0
1.04187e-08
1.39388e-07
1.2324e-07
1.23445e-08
0
0
0
0
0
0
0
0
0
0
1.71764e-10
3.64857e-10
1.11233e-09
0
9.19769e-08
2.51281e-07
2.93809e-07
3.02738e-07
1.92935e-07
1.63738e-07
1.1876e-07
4.61995e-08
4.69381e-09
5.70776e-10
6.86966e-09
9.03128e-09
7.00557e-09
5.83082e-09
4.5218e-09
9.76884e-10
1.57467e-09
0
1.16663e-07
3.86657e-07
4.38463e-07
4.27706e-07
2.037e-07
8.60721e-08
4.79941e-08
7.88325e-09
0
4.84201e-10
1.59505e-08
2.85551e-08
3.90732e-08
5.70633e-08
9.55548e-08
1.28072e-07
1.33158e-07
1.03756e-07
0
1.81821e-07
3.61218e-07
5.95542e-07
2.77321e-07
8.48201e-08
2.74537e-08
0
0
0
2.23883e-08
4.18278e-08
4.46556e-08
4.63545e-08
8.08604e-08
1.22336e-07
1.34171e-07
1.15225e-07
0
7.39141e-09
3.26859e-07
1.32335e-06
8.06056e-07
3.15962e-07
1.35668e-07
2.44381e-08
0
0
3.28897e-08
4.80469e-08
2.56191e-08
1.3446e-08
3.41717e-08
4.67219e-08
4.23347e-08
2.75713e-08
0
0
6.32922e-07
9.11423e-07
4.14766e-07
2.26054e-07
1.3777e-07
4.73824e-08
0
0
5.34983e-08
7.03821e-08
4.0756e-08
1.20209e-08
4.36699e-09
0
0
0
0
0
5.18912e-07
2.64745e-07
1.50692e-07
1.16516e-07
4.39808e-08
0
0
0
1.20441e-08
1.93894e-08
4.59566e-09
0
0
0
0
0
0
0
2.77699e-07
1.38941e-07
1.71715e-07
1.84564e-07
9.02878e-08
0
0
0
0
0
0
0
0
0
0
0
2.41047e-07
3.12017e-07
3.54096e-07
3.66636e-07
5.05255e-07
4.7309e-07
2.71542e-07
0
0
0
0
0
0
0
0
0
0
0
2.03312e-07
1.3686e-07
4.92691e-07
6.05685e-07
7.43303e-07
7.89757e-07
2.90947e-07
0
0
0
0
0
0
0
0
0
0
0
0
2.42447e-08
6.53643e-07
7.12658e-07
6.71895e-07
1.51123e-07
0
0
0
0
0
1.36946e-08
2.06258e-08
0
0
0
0
0
0
1.19015e-07
4.97716e-07
5.56535e-07
0
0
0
0
0
0
1.79762e-09
2.34212e-08
0
0
0
0
0
0
0
0
5.76852e-08
0
0
0
0
0
0
0
1.88697e-08
5.52724e-08
9.46219e-08
1.35921e-07
1.44263e-07
1.0452e-07
3.78892e-08
7.48341e-11
0
0
0
0
2.10522e-09
0
0
0
0
0
0
0
1.13195e-07
2.06286e-07
2.3953e-07
2.33811e-07
2.18947e-07
2.22313e-07
0
0
0
3.27923e-08
1.55004e-07
0
0
0
0
0
0
0
0
0
0
0
2.18482e-08
1.1079e-07
0
0
7.38062e-07
1.53681e-06
6.19632e-07
0
0
0
0
0
0
0
0
0
0
0
0
3.22105e-08
0
0
9.11136e-08
6.12004e-07
1.5912e-07
0
0
0
0
0
0
0
0
0
0
0
0
0
2.6577e-07
2.45635e-07
0
0
0
0
0
0
0
1.44248e-08
2.80162e-08
3.35243e-08
2.21077e-08
0
0
0
0
0
2.21812e-07
0
0
0
0
0
0
0
0
0
0
0
0
0
0
0
0
0
2.50624e-08
0
0
0
0
0
0
0
0
0
0
0
0
0
0
0
0
0
0
0
0
0
0
0
0
0
0
0
0
0
0
0
0
0
0
0
0
0
0
0
0
0
0
0
0
0
0
0
0
0
0
0
0
0
4.6896e-09
0
0
0
0
0
0
0
0
0
0
0
0
0
0
0
0
0
5.59624e-09
0
0
0
0
0
0
0
0
0
0
0
0
0
0
0
0
0
7.04545e-09
0
0
0
0
0
0
0
0
0
0
0
0
0
0
0
0
0
5.32732e-08
0
0
0
0
0
0
0
0
0
0
0
0
0
0
0
0
0
1.23473e-06
2.13851e-06
2.00673e-06
1.39402e-06
7.10327e-07
2.23417e-07
0
0
0
0
0
0
3.32219e-07
1.18455e-06
2.67532e-06
5.22826e-06
8.83084e-06
1.12368e-05
1.04387e-05
8.05452e-06
5.70235e-06
3.79164e-06
2.3222e-06
1.24967e-06
6.88642e-07
6.43884e-07
8.2901e-07
9.39809e-07
8.91023e-07
7.48151e-07
5.89179e-07
4.52445e-07
3.41845e-07
2.452e-07
1.42956e-07
1.50191e-08
0
0
0
3.29606e-08
3.62226e-07
5.83164e-07
5.46177e-07
2.95794e-07
6.06042e-08
0
0
0
0
0
0
0
0
0
0
0
0
0
0
0
0
0
0
0
2.5731e-06
9.60543e-06
1.34966e-05
0
0
1.03217e-05
1.24541e-05
2.47468e-06
0
0
5.10945e-06
1.92153e-05
4.39244e-05
5.24014e-05
4.6444e-05
1.52993e-05
1.98804e-06
3.45081e-07
5.56291e-08
3.08589e-08
4.97435e-08
6.36942e-08
6.61301e-08
6.09204e-08
5.23789e-08
4.24353e-08
3.21451e-08
2.41013e-08
1.62309e-08
9.9973e-09
4.41183e-09
0
0
0
0
0
0
0
0
0
0
0
0
0
0
0
0
0
0
0
0
0
0
0
0
0
0
0
0
0
0
0
0
0
0
0
0
0
0
0
0
0
0
0
0
0
0
0
0
0
0
0
0
0
0
0
0
0
0
0
0
0
0
0
0
0
0
0
0
0
0
0
0
2.70168e-12
8.25776e-12
1.92253e-11
1.73174e-11
3.10136e-11
1.62954e-11
4.20786e-11
1.46063e-11
8.39146e-11
8.85734e-11
2.2844e-10
2.21056e-09
0
7.3049e-07
2.02347e-06
2.91871e-06
2.93703e-06
2.2999e-06
1.41836e-06
5.38294e-07
0
0
0
0
0
0
0
2.59592e-07
7.97482e-07
1.77387e-06
3.07595e-06
4.31272e-06
5.18207e-06
4.98559e-06
3.05722e-06
1.28864e-06
4.54603e-07
0
0
0
0
0
0
0
0
0
0
2.64575e-08
2.76802e-08
0
0
6.10709e-08
4.35854e-07
9.41952e-07
1.18894e-06
1.00418e-06
6.53835e-07
5.19413e-07
7.47138e-07
1.16716e-06
1.38375e-06
1.08708e-06
3.58059e-07
0
0
0
0
0
0
0
0
0
0
0
0
0
0
4.65375e-07
1.64695e-06
1.8542e-06
0
0
1.65788e-07
1.43441e-06
0
0
3.31259e-06
1.1533e-05
1.05676e-05
1.12909e-05
1.03502e-05
6.841e-06
2.97236e-06
1.09496e-06
4.51325e-07
1.91306e-07
1.23539e-07
1.09758e-07
1.02999e-07
9.45309e-08
8.44115e-08
7.33745e-08
6.2309e-08
5.1316e-08
4.04467e-08
2.97787e-08
1.94243e-08
9.40706e-09
0
0
0
0
0
0
0
0
0
0
0
0
0
0
0
0
0
0
0
0
0
0
0
0
0
0
0
0
0
0
0
5.91152e-09
1.30754e-08
3.81111e-09
0
0
0
0
0
0
0
0
0
0
0
0
0
0
0
0
0
0
0
0
0
0
0
0
0
0
0
0
0
0
0
0
0
0
0
0
4.46535e-12
4.02276e-11
7.73308e-11
8.55556e-11
1.16753e-10
1.00218e-10
1.40363e-10
9.37304e-11
1.61733e-10
9.16904e-11
1.98683e-10
2.00206e-10
2.15187e-10
1.2043e-09
0
2.85629e-07
1.47431e-06
2.63398e-06
3.15566e-06
3.00168e-06
2.34051e-06
1.51113e-06
6.85584e-07
1.25205e-07
8.04506e-08
4.21272e-07
7.61375e-07
9.69767e-07
1.1133e-06
1.25342e-06
1.35967e-06
1.35719e-06
1.22298e-06
9.08427e-07
4.19485e-07
0
0
0
0
0
0
0
0
0
0
0
0
0
0
0
0
1.89798e-08
4.82073e-07
1.03566e-06
1.59689e-06
1.94955e-06
1.6938e-06
1.15898e-06
9.7253e-07
1.01883e-06
1.26772e-06
1.7638e-06
2.1407e-06
2.10693e-06
1.67363e-06
1.12424e-06
6.63069e-07
4.11909e-07
6.16644e-07
1.40806e-06
1.87999e-06
1.05926e-06
0
0
0
0
0
0
0
1.53633e-07
4.76187e-07
4.87127e-07
0
0
0
0
0
2.86305e-06
6.13702e-06
1.42435e-06
8.65473e-07
1.06875e-06
6.55519e-07
5.30867e-07
5.37559e-07
4.844e-07
4.18175e-07
4.42577e-07
4.91636e-07
5.02352e-07
4.64771e-07
4.05442e-07
3.39899e-07
2.76017e-07
2.19235e-07
1.69717e-07
1.27354e-07
9.09703e-08
5.97252e-08
3.22616e-08
6.64128e-09
0
0
0
0
0
0
0
0
0
0
0
0
0
0
0
0
0
0
0
0
0
0
0
0
0
0
0
0
0
0
0
0
0
4.69527e-09
2.21346e-08
2.78814e-08
2.5813e-08
2.04163e-08
1.46046e-08
9.6405e-09
6.04828e-09
3.9081e-09
2.66236e-09
1.86037e-09
1.17281e-09
3.34477e-10
0
0
0
0
0
0
0
0
0
0
0
0
0
0
0
0
0
0
0
0
0
2.12595e-10
3.50342e-10
4.22397e-10
4.20686e-10
4.27451e-10
3.76823e-10
3.87873e-10
3.14087e-10
3.6102e-10
2.59909e-10
3.49111e-10
2.5456e-10
3.10255e-10
4.68903e-10
0
1.34626e-09
0
1.50152e-07
8.90521e-07
2.20279e-06
2.64607e-06
1.35115e-06
6.51576e-08
0
0
1.77499e-07
3.27034e-06
5.73291e-06
4.87151e-06
3.14711e-06
1.8246e-06
9.05839e-07
3.1406e-07
0
0
0
0
0
0
0
0
0
0
0
0
0
0
0
0
0
0
0
0
0
0
0
0
0
0
3.82513e-08
2.32761e-07
3.64244e-07
4.65865e-07
5.9856e-07
6.70196e-07
6.20407e-07
5.00908e-07
4.35657e-07
5.36398e-07
8.10317e-07
1.37026e-06
2.43603e-06
3.25188e-06
2.65159e-06
1.26461e-06
0
0
0
0
0
0
0
3.70209e-07
7.73763e-07
1.03476e-06
7.69721e-07
1.79391e-07
0
6.78924e-07
3.11232e-06
7.08592e-07
0
0
1.06407e-09
0
0
3.15464e-08
1.38639e-07
2.55093e-07
3.19725e-07
3.07793e-07
2.69135e-07
2.39247e-07
2.28288e-07
2.30378e-07
2.43639e-07
2.61856e-07
2.85897e-07
3.15832e-07
3.47332e-07
3.47556e-07
2.20789e-07
2.36204e-09
0
0
0
0
0
0
0
0
0
0
0
0
0
0
0
0
0
0
0
0
0
0
0
0
0
0
0
0
0
0
0
0
0
0
0
0
0
0
0
0
0
0
0
0
0
0
2.05191e-09
9.54955e-09
6.32224e-09
5.58922e-09
6.21626e-09
4.48677e-09
4.64514e-11
0
0
0
0
0
0
0
0
0
0
0
0
7.62083e-10
1.38428e-09
1.76853e-09
1.89592e-09
1.85328e-09
1.65048e-09
1.43143e-09
1.1376e-09
9.42254e-10
6.9816e-10
5.94801e-10
4.48773e-10
3.31385e-10
4.0882e-10
0
7.63649e-10
0
2.05447e-09
0
4.30026e-08
2.58989e-07
1.31851e-06
1.31913e-06
0
0
0
0
4.78944e-06
1.21093e-05
9.93918e-06
5.46176e-06
2.60785e-06
1.0059e-06
1.76806e-07
0
0
0
0
0
0
0
0
0
0
0
0
0
0
0
0
0
0
0
0
0
7.42111e-08
1.72504e-07
2.47569e-07
3.07453e-07
3.64562e-07
4.39047e-07
5.10143e-07
5.53644e-07
5.68534e-07
5.6512e-07
5.52837e-07
5.35994e-07
5.14627e-07
4.94758e-07
5.03281e-07
5.82469e-07
7.16894e-07
1.0208e-06
1.85313e-06
2.94434e-06
2.44266e-06
1.10132e-06
0
0
0
0
0
0
0
4.23505e-07
1.55479e-06
2.20601e-06
2.22242e-06
1.95699e-06
1.81739e-06
1.67765e-06
6.07711e-07
1.70335e-07
0
0
0
0
0
0
5.48197e-08
5.32711e-08
0
0
0
0
0
0
0
8.33843e-09
1.62141e-08
1.77329e-08
9.35066e-09
0
0
0
0
0
1.01184e-09
1.3002e-10
0
0
0
0
0
0
0
0
0
0
0
0
0
0
0
0
0
0
0
0
0
0
0
0
0
0
0
0
0
0
0
0
0
0
0
0
0
0
0
0
0
0
0
0
1.05477e-08
1.9338e-08
0
0
0
0
0
0
0
0
2.02949e-09
0
0
0
0
0
0
0
0
0
0
0
0
0
0
3.92702e-10
1.11071e-09
5.25669e-10
1.20975e-09
0
1.32472e-09
0
2.21394e-09
0
4.18954e-09
0
3.131e-09
8.40926e-08
5.88255e-07
0
0
0
0
5.54485e-06
1.11721e-05
1.21733e-05
9.80053e-06
6.29086e-06
3.15956e-06
1.24351e-06
3.14698e-07
0
0
0
0
0
0
0
0
0
0
0
0
0
0
0
0
0
0
0
0
0
0
0
2.50978e-08
1.16164e-07
2.23598e-07
3.49037e-07
4.67671e-07
5.48215e-07
5.83587e-07
5.7628e-07
5.30178e-07
4.71223e-07
4.26594e-07
3.94308e-07
3.81222e-07
4.00208e-07
4.48212e-07
6.26975e-07
1.26997e-06
2.17945e-06
9.2869e-07
0
0
0
0
0
0
0
0
2.85791e-06
5.69737e-06
4.65353e-06
3.19792e-06
2.1074e-06
8.89047e-07
0
0
0
0
0
0
0
0
0
8.59255e-08
4.61501e-08
7.91929e-09
0
0
0
5.60643e-09
1.59164e-08
2.21569e-08
2.25915e-08
1.63933e-08
4.27659e-10
0
0
0
0
2.66342e-10
2.10929e-08
2.64227e-08
2.45045e-08
1.88129e-08
1.11505e-08
2.55309e-09
0
0
0
0
0
0
0
0
0
0
0
0
0
0
0
0
0
0
0
0
0
0
0
0
0
0
0
0
0
0
0
0
0
0
0
0
0
0
0
0
0
0
3.42927e-08
6.20182e-08
2.8729e-08
0
0
0
0
0
0
0
0
0
0
0
0
0
0
0
0
0
0
0
0
0
0
0
0
0
0
8.57505e-09
0
1.15732e-08
0
1.09169e-08
0
0
0
2.51415e-08
6.77723e-07
2.20325e-06
3.84844e-06
5.50843e-06
7.70933e-06
9.1799e-06
8.71041e-06
7.05208e-06
4.81852e-06
2.65638e-06
1.2308e-06
4.37977e-07
0
0
0
0
0
0
0
0
0
0
0
0
0
0
0
0
0
0
0
0
0
0
0
0
0
0
0
4.05735e-08
3.07971e-07
4.92528e-07
5.71532e-07
5.55209e-07
4.81505e-07
4.08533e-07
3.39697e-07
3.02875e-07
2.88533e-07
2.94591e-07
3.66051e-07
8.45104e-07
1.31876e-06
0
0
0
0
0
0
0
0
0
9.70687e-07
2.36377e-06
2.13039e-06
1.31104e-06
3.1913e-07
0
0
0
0
0
0
0
0
0
1.1877e-07
1.48083e-07
8.99626e-08
4.61564e-08
2.299e-08
1.78974e-08
1.86348e-08
1.78769e-08
1.40145e-08
6.79137e-09
0
0
0
0
0
0
0
4.35872e-08
5.0656e-08
4.69759e-08
4.00575e-08
3.10888e-08
2.18205e-08
1.19763e-08
2.42759e-09
0
0
0
0
0
0
0
0
0
0
0
0
0
0
0
0
0
0
0
0
0
0
0
0
0
0
0
0
0
0
0
0
0
0
0
0
0
0
0
0
0
1.26878e-08
5.2437e-08
8.89528e-08
4.73748e-08
0
0
0
0
0
0
0
0
1.06542e-08
3.46209e-09
0
0
0
0
0
0
0
0
0
0
0
0
0
2.93331e-09
4.68076e-09
1.20935e-08
6.76185e-09
1.12722e-08
0
0
0
0
0
0
1.84733e-06
2.99839e-06
3.88251e-06
4.57774e-06
5.23414e-06
5.58192e-06
5.35802e-06
4.66234e-06
3.59145e-06
2.3989e-06
1.42857e-06
7.05838e-07
1.57963e-07
0
0
0
0
0
0
0
0
0
0
0
0
0
0
0
0
0
0
0
0
0
0
0
0
0
0
0
0
0
1.38105e-07
3.77255e-07
4.14416e-07
3.77664e-07
3.07608e-07
2.59971e-07
2.34935e-07
2.21911e-07
2.32285e-07
5.982e-07
9.86999e-07
0
0
0
0
0
0
0
0
0
2.18914e-07
2.83934e-07
0
1.47249e-07
0
0
0
0
0
0
0
0
0
0
1.49355e-07
1.29566e-07
7.21488e-08
3.31106e-08
1.72208e-08
1.34187e-08
1.17148e-08
9.10607e-09
5.42432e-09
0
0
0
0
0
0
0
4.7518e-08
7.29214e-08
6.8201e-08
5.70661e-08
4.56894e-08
3.34438e-08
2.32974e-08
1.29156e-08
3.94325e-09
0
0
0
0
0
0
0
0
0
0
0
0
0
0
0
0
0
0
0
0
0
0
0
0
0
0
0
0
0
0
9.79543e-09
1.28536e-08
0
0
0
0
0
0
0
0
0
9.67941e-09
3.00509e-08
6.27478e-08
1.01895e-07
5.13144e-08
0
0
0
0
0
0
0
2.0132e-08
4.4357e-08
3.05797e-08
1.8499e-08
1.0455e-08
2.75217e-09
0
0
0
0
9.4396e-09
8.10422e-09
0
0
0
1.75995e-09
4.08415e-09
1.0234e-08
8.487e-09
1.15185e-08
0
0
0
0
0
0
3.26983e-07
9.68778e-07
1.4294e-06
1.82841e-06
2.19326e-06
2.46291e-06
2.60803e-06
2.59366e-06
2.32429e-06
1.86731e-06
1.33552e-06
7.93058e-07
2.80141e-07
0
0
0
0
0
0
0
1.51573e-07
6.74529e-07
1.04064e-06
1.03613e-06
6.91538e-07
1.30386e-07
0
0
0
0
0
0
0
0
0
0
0
0
0
0
0
0
0
0
1.79312e-07
2.895e-07
2.68354e-07
2.27083e-07
1.91165e-07
1.60728e-07
1.23416e-07
3.69085e-07
4.74817e-07
0
0
0
0
0
0
0
0
0
0
0
0
0
0
0
0
0
0
0
0
0
0
0
1.22109e-07
8.96264e-08
4.84831e-08
3.16499e-08
3.07432e-08
3.23749e-08
3.13459e-08
2.75311e-08
2.20472e-08
1.02069e-08
0
0
0
0
0
2.78558e-07
3.54138e-07
2.90444e-07
2.16145e-07
1.47164e-07
9.38533e-08
5.09573e-08
2.07587e-08
0
0
0
0
0
0
0
0
0
0
0
0
0
0
0
0
0
0
0
0
0
0
0
0
0
0
0
0
3.14038e-09
7.0644e-09
6.48687e-09
9.19197e-09
1.74391e-08
3.1225e-08
5.28232e-08
5.67199e-08
1.07145e-08
0
0
0
0
0
0
1.88977e-08
3.20663e-08
4.27369e-08
6.67623e-08
1.01694e-07
3.77074e-08
0
0
0
0
0
0
0
3.37661e-08
5.65556e-08
4.55783e-08
2.82588e-08
1.28823e-08
0
0
0
0
0
8.75266e-09
1.7068e-08
6.66233e-09
0
6.19904e-10
2.21291e-09
7.21426e-09
6.88487e-09
9.54556e-09
3.44441e-09
0
0
0
0
0
0
0
1.29783e-07
3.12173e-07
4.98649e-07
6.77332e-07
8.30255e-07
9.20571e-07
9.18835e-07
8.27266e-07
6.53643e-07
4.17397e-07
1.58272e-07
0
0
0
3.50189e-07
9.73475e-07
1.9132e-06
3.13e-06
4.03599e-06
3.82265e-06
2.97857e-06
2.2192e-06
1.55787e-06
1.13045e-06
8.54913e-07
6.62375e-07
4.77691e-07
3.14702e-07
2.52481e-07
3.5317e-07
5.84576e-07
8.52235e-07
1.0929e-06
1.28099e-06
1.39151e-06
1.37937e-06
1.19206e-06
7.34608e-07
0
0
0
0
0
0
1.72808e-07
1.89002e-07
1.61604e-07
1.24373e-07
8.90715e-08
5.81938e-08
0
0
0
9.92108e-08
1.46939e-07
8.54857e-09
0
1.82851e-08
2.64599e-08
0
0
0
0
6.69383e-07
2.62512e-07
0
0
0
0
0
0
0
0
1.51469e-08
1.52631e-07
9.99524e-08
7.53561e-08
7.32358e-08
7.29067e-08
6.804e-08
5.89515e-08
4.92778e-08
3.86413e-08
1.95442e-08
0
0
0
0
8.71257e-07
1.67944e-06
1.19315e-06
8.79921e-07
6.36285e-07
4.32072e-07
2.72131e-07
1.43935e-07
4.0695e-08
0
0
0
0
0
0
0
0
0
0
0
0
0
0
0
0
0
0
0
0
0
0
0
0
0
0
0
9.43708e-10
1.65251e-08
3.0682e-08
3.96569e-08
4.94066e-08
6.59367e-08
8.05611e-08
1.00027e-07
1.33094e-07
1.49142e-07
1.28878e-07
1.03014e-07
7.78854e-08
3.90803e-08
0
1.38673e-08
3.62836e-08
4.67097e-08
5.09699e-08
5.27422e-08
6.65835e-08
9.02826e-08
7.80219e-09
0
0
0
0
0
0
1.2922e-09
4.27445e-08
6.21902e-08
5.40518e-08
3.21326e-08
1.01421e-08
0
0
0
0
0
4.27744e-09
2.46804e-08
1.37475e-08
5.28358e-09
2.52201e-09
4.97912e-09
4.41315e-09
6.11735e-09
2.26201e-09
3.09045e-10
0
0
0
0
0
0
0
0
0
0
0
0
0
0
0
0
1.45713e-07
4.74132e-07
9.0278e-07
1.23216e-06
1.34104e-06
1.37354e-06
1.66395e-06
2.31437e-06
2.6833e-06
2.47118e-06
2.02491e-06
1.87139e-06
2.04983e-06
2.33403e-06
2.36206e-06
1.80771e-06
7.21534e-07
0
0
0
0
0
0
0
2.74287e-07
7.20779e-07
1.17806e-06
1.53367e-06
1.57804e-06
1.10462e-06
0
0
0
0
0
5.81538e-08
1.07734e-07
8.0489e-08
2.44094e-08
0
0
0
0
0
4.69714e-08
2.57255e-07
3.8362e-07
4.86308e-07
5.61316e-07
5.49201e-07
4.12778e-07
2.4493e-07
1.49108e-06
1.17597e-06
6.49064e-07
2.1055e-07
0
0
0
0
0
0
0
2.9894e-07
2.2945e-07
1.44029e-07
1.18791e-07
1.02935e-07
8.80343e-08
7.53681e-08
6.679e-08
6.03073e-08
5.17023e-08
2.82742e-08
0
0
0
0
2.45937e-06
2.06538e-06
1.57363e-06
1.21635e-06
9.27603e-07
6.85416e-07
4.69583e-07
2.89274e-07
1.20808e-07
0
0
0
0
0
0
0
0
0
0
0
0
0
0
0
0
0
0
0
0
0
0
0
0
0
0
0
1.42201e-08
3.38812e-08
5.51553e-08
7.62099e-08
9.32845e-08
1.22276e-07
1.67627e-07
2.0617e-07
2.25142e-07
2.46952e-07
2.59157e-07
2.45084e-07
2.32739e-07
2.13502e-07
1.58547e-07
7.51934e-08
6.35316e-08
6.66111e-08
6.66168e-08
6.43541e-08
5.87082e-08
6.02662e-08
6.10342e-08
0
0
0
0
0
0
0
2.66854e-08
5.34125e-08
6.48133e-08
5.38736e-08
2.78377e-08
1.80158e-09
0
0
0
0
0
2.042e-09
2.46484e-08
1.94274e-08
8.45473e-09
5.68283e-09
3.16356e-09
3.09575e-09
0
0
0
0
0
0
0
0
0
0
0
0
0
0
0
0
0
4.54835e-08
3.58092e-07
5.34282e-07
5.10649e-07
3.70559e-07
2.61273e-07
3.01713e-07
5.33395e-07
8.08835e-07
9.14834e-07
9.5692e-07
1.26559e-06
1.99764e-06
3.19051e-06
4.69191e-06
5.55346e-06
3.57119e-06
0
0
0
0
0
0
0
0
0
0
0
4.32979e-08
8.35291e-07
1.30502e-06
1.00266e-06
0
0
0
0
0
7.49927e-08
9.32271e-08
4.89416e-08
3.21067e-10
0
0
0
0
0
1.56547e-07
3.77905e-07
5.59306e-07
6.53569e-07
6.40086e-07
5.4127e-07
1.79905e-06
2.43936e-06
1.6124e-06
9.39829e-07
4.30029e-07
3.11493e-09
0
0
0
0
0
0
3.84303e-07
1.8779e-07
1.23453e-07
1.03862e-07
8.19406e-08
6.79144e-08
6.5784e-08
6.88023e-08
7.09769e-08
6.62419e-08
3.89248e-08
0
0
0
0
6.01207e-07
1.23197e-06
1.16796e-06
1.00468e-06
8.22429e-07
6.58402e-07
5.14979e-07
3.76997e-07
2.24308e-07
7.64229e-08
0
0
0
0
0
0
0
0
0
0
0
0
0
0
0
0
0
0
0
0
0
0
0
0
0
7.08352e-09
4.68348e-08
7.82389e-08
1.06742e-07
1.42872e-07
1.77568e-07
2.11081e-07
2.64408e-07
3.24291e-07
3.51257e-07
3.53037e-07
3.55636e-07
3.52793e-07
3.4454e-07
3.39519e-07
3.20032e-07
2.48692e-07
1.31468e-07
1.00519e-07
8.90738e-08
8.22343e-08
7.32495e-08
5.89586e-08
4.1827e-08
6.02606e-10
0
0
0
0
0
0
2.60938e-08
4.85793e-08
6.07454e-08
6.17949e-08
4.57043e-08
1.77765e-08
0
0
0
0
0
0
2.35758e-09
2.17291e-08
1.97817e-08
1.21635e-08
5.33497e-09
2.2091e-09
0
0
0
0
0
0
0
0
0
0
0
0
0
0
0
0
6.4668e-09
2.24384e-07
3.10831e-07
2.70992e-07
1.67408e-07
7.32524e-08
4.03021e-08
7.62497e-08
1.35235e-07
1.60803e-07
2.3013e-07
4.95935e-07
1.07481e-06
2.06554e-06
3.60321e-06
5.89129e-06
8.70944e-06
1.5342e-06
0
0
0
0
0
0
0
0
0
0
0
0
0
3.63723e-07
8.29399e-07
3.65456e-07
0
0
0
0
3.94978e-08
1.00588e-07
5.18298e-08
5.38954e-10
0
0
0
0
0
8.52466e-08
2.29984e-07
2.73889e-07
1.86142e-07
4.32853e-08
1.11248e-06
2.75456e-06
2.36303e-06
1.66791e-06
1.11325e-06
7.14243e-07
4.71715e-07
3.79316e-07
0
0
0
0
0
6.42848e-08
3.81761e-08
5.38453e-08
6.21244e-08
5.13331e-08
5.14011e-08
6.00991e-08
6.72155e-08
6.95288e-08
6.1375e-08
2.42062e-08
0
0
0
0
0
4.31097e-07
6.30898e-07
5.92077e-07
4.87686e-07
3.76515e-07
3.21045e-07
2.88815e-07
2.26997e-07
1.43941e-07
4.17611e-08
0
0
0
0
0
3.23898e-08
5.56057e-08
3.91489e-08
0
0
0
0
0
0
0
0
0
0
0
0
0
0
0
0
2.68148e-08
9.50856e-08
1.54462e-07
2.01018e-07
2.51177e-07
3.08907e-07
3.56886e-07
4.02553e-07
4.47754e-07
4.70379e-07
4.61035e-07
4.38265e-07
4.2484e-07
4.20564e-07
4.21235e-07
4.20671e-07
4.00483e-07
3.03544e-07
1.70505e-07
1.26812e-07
1.04392e-07
9.19594e-08
7.43534e-08
4.76481e-08
0
0
0
0
0
0
7.90873e-09
3.92089e-08
5.62428e-08
6.13692e-08
6.01863e-08
5.28577e-08
3.30109e-08
4.67368e-09
0
0
0
0
0
0
4.7579e-09
1.75109e-08
1.92572e-08
1.15464e-08
5.06267e-09
0
0
0
0
0
0
0
0
0
0
0
0
0
0
0
1.09429e-09
1.63922e-07
2.31091e-07
2.0152e-07
1.2425e-07
4.6646e-08
0
0
0
0
0
6.14814e-08
2.67256e-07
5.76489e-07
9.15561e-07
1.10238e-06
7.08377e-07
0
0
0
0
0
0
0
0
0
0
0
0
0
0
0
0
3.35097e-07
4.65526e-07
0
0
0
0
2.13638e-08
8.84962e-08
3.88955e-08
0
0
0
0
0
0
0
0
0
0
2.84438e-07
1.62353e-06
1.96069e-06
1.70065e-06
1.36735e-06
1.13316e-06
1.12957e-06
1.6875e-06
4.05344e-06
1.44716e-06
0
0
0
3.0744e-08
0
0
0
2.59208e-08
2.24351e-08
2.2983e-08
2.578e-08
2.32146e-08
1.53909e-08
0
0
0
0
0
0
0
0
1.92711e-07
1.7071e-07
6.50484e-08
0
4.80927e-09
9.84029e-08
1.45547e-07
1.20687e-07
5.84531e-08
0
0
0
0
4.68683e-08
1.31762e-07
1.48729e-07
1.08994e-07
4.35163e-08
0
0
0
0
0
0
0
0
0
0
0
0
0
0
0
3.95386e-08
1.39179e-07
2.33676e-07
3.10865e-07
3.76928e-07
4.45988e-07
5.02873e-07
5.33515e-07
5.49619e-07
5.45749e-07
5.228e-07
4.88071e-07
4.57309e-07
4.49483e-07
4.62117e-07
4.74921e-07
4.76442e-07
4.49478e-07
3.16803e-07
1.92801e-07
1.41126e-07
1.12171e-07
9.24565e-08
6.32111e-08
1.8515e-08
0
0
0
0
0
4.05936e-08
6.96086e-08
7.89575e-08
7.45426e-08
6.3358e-08
5.34865e-08
4.1363e-08
1.79461e-08
0
0
0
0
0
0
0
6.48416e-09
1.55392e-08
1.52766e-08
1.09681e-08
0
0
0
0
0
0
0
0
0
0
0
0
0
0
3.26486e-08
1.60665e-07
2.10745e-07
1.86595e-07
1.21372e-07
6.0063e-08
2.39702e-08
9.36096e-09
7.22777e-10
0
0
0
0
0
0
0
0
0
0
0
0
0
0
0
0
0
0
0
0
0
0
0
0
0
1.54796e-07
3.89678e-07
1.60558e-08
0
0
0
8.06183e-08
7.45234e-08
1.66189e-08
0
0
0
0
0
0
0
0
0
0
5.4161e-07
1.08702e-06
1.11558e-06
1.02415e-06
9.7547e-07
1.06857e-06
1.45851e-06
2.4221e-06
2.95555e-06
9.62946e-07
0
0
0
2.74544e-07
1.35415e-07
0
0
0
0
0
0
0
0
0
0
0
0
0
0
0
0
0
0
0
0
0
0
7.07578e-08
8.18515e-08
4.61979e-08
0
0
0
3.05229e-08
1.63556e-07
2.68986e-07
2.58758e-07
1.85962e-07
9.23612e-08
0
0
0
0
0
0
0
0
0
0
0
0
0
0
0
4.2065e-08
1.56129e-07
2.71319e-07
3.68517e-07
4.44594e-07
5.08845e-07
5.5776e-07
5.74994e-07
5.76902e-07
5.57486e-07
5.22323e-07
4.85435e-07
4.55683e-07
4.41278e-07
4.52457e-07
4.82519e-07
5.01843e-07
5.02728e-07
4.50965e-07
3.02394e-07
1.99051e-07
1.43002e-07
1.11125e-07
7.98932e-08
3.78674e-08
0
0
0
0
5.84323e-08
1.17698e-07
1.34926e-07
1.28143e-07
1.07934e-07
8.26409e-08
6.09983e-08
4.69714e-08
2.88928e-08
0
0
0
0
0
0
0
0
7.80971e-09
1.06287e-08
1.31988e-08
4.93007e-09
0
0
0
0
0
0
0
0
0
0
0
0
8.98272e-08
1.76188e-07
2.16845e-07
1.89774e-07
1.23671e-07
6.28987e-08
4.08863e-08
5.04893e-08
6.69443e-08
7.27349e-08
6.61041e-08
3.63664e-08
0
0
0
0
0
0
0
0
0
0
0
0
0
0
0
0
0
0
0
0
0
0
0
1.9e-07
3.22594e-07
2.03202e-07
0
0
2.37874e-07
1.88265e-07
7.38476e-08
0
0
0
0
0
0
0
0
0
0
0
2.7952e-07
5.94163e-07
6.2309e-07
6.3419e-07
7.2266e-07
9.38371e-07
1.30861e-06
1.65362e-06
1.41378e-06
4.5792e-07
0
0
0
3.56585e-07
2.98416e-07
6.25924e-08
0
0
0
0
0
0
0
0
0
0
0
0
0
0
0
0
0
0
0
0
5.77805e-08
1.03898e-07
9.40003e-08
5.51071e-08
1.19187e-08
0
2.62447e-08
1.56544e-07
3.36575e-07
4.38612e-07
3.90646e-07
2.77101e-07
1.51584e-07
2.94871e-08
0
0
0
0
0
0
0
0
0
0
0
0
0
0
4.30336e-08
1.33283e-07
2.3758e-07
3.37847e-07
4.19577e-07
4.81512e-07
5.23888e-07
5.35175e-07
5.27185e-07
5.15712e-07
4.92309e-07
4.65952e-07
4.44665e-07
4.32801e-07
4.33579e-07
4.55171e-07
4.97869e-07
5.17429e-07
5.11272e-07
4.13601e-07
2.80491e-07
1.93306e-07
1.37797e-07
1.01264e-07
5.78759e-08
9.68138e-09
0
0
7.21587e-08
2.95893e-07
3.43806e-07
3.01689e-07
2.43744e-07
1.86471e-07
1.35992e-07
9.52175e-08
6.65733e-08
4.34492e-08
9.40415e-09
0
0
0
0
0
0
0
1.88635e-09
3.25053e-09
8.78135e-09
6.20522e-09
5.23256e-09
0
2.80134e-06
3.22574e-07
0
0
0
0
0
5.5324e-08
1.41875e-07
2.09511e-07
2.42301e-07
2.36892e-07
1.97225e-07
1.21814e-07
4.01782e-08
0
1.8157e-08
7.62356e-08
1.405e-07
1.88561e-07
2.11048e-07
1.86899e-07
8.41789e-08
0
0
0
0
0
0
0
0
0
0
0
0
0
0
3.45459e-07
6.71217e-07
6.24977e-07
4.61859e-07
2.74015e-07
8.23e-08
0
6.16118e-08
2.14144e-07
2.7261e-07
3.53754e-07
4.2248e-07
0
5.77327e-07
2.49525e-07
6.80602e-08
0
0
0
0
0
0
0
0
0
0
0
3.48821e-08
3.10732e-07
4.09995e-07
4.70589e-07
5.60012e-07
7.23461e-07
9.08884e-07
9.51758e-07
6.77566e-07
8.35443e-08
0
0
0
1.07616e-07
4.23565e-07
1.64528e-07
0
0
0
0
0
0
0
0
0
0
0
0
0
0
1.32919e-07
3.75048e-08
0
0
9.67835e-08
1.74717e-07
1.87942e-07
1.72154e-07
1.33768e-07
8.6342e-08
4.08893e-08
3.81188e-08
1.43985e-07
3.75676e-07
5.88196e-07
6.25925e-07
5.07722e-07
3.61707e-07
2.08496e-07
6.08549e-08
0
0
0
0
0
0
0
0
0
0
0
0
0
8.1258e-09
6.28668e-08
1.26166e-07
1.9588e-07
2.61601e-07
3.19916e-07
3.72194e-07
4.1188e-07
4.33921e-07
4.41945e-07
4.45083e-07
4.45509e-07
4.39777e-07
4.3254e-07
4.2845e-07
4.30391e-07
4.3687e-07
4.6901e-07
5.04804e-07
5.16736e-07
4.72497e-07
3.48387e-07
2.51186e-07
1.76697e-07
1.26312e-07
8.04666e-08
3.56897e-08
1.66336e-08
6.12066e-08
1.93882e-07
3.86213e-07
5.17886e-07
5.54824e-07
4.7508e-07
3.51611e-07
2.49566e-07
1.78331e-07
1.26576e-07
8.13023e-08
2.61794e-08
0
0
0
0
0
0
0
0
0
1.07652e-09
1.3717e-09
9.32066e-09
1.77533e-09
5.849e-06
8.56515e-07
1.8266e-07
1.59369e-07
1.67164e-07
1.98432e-07
2.46839e-07
3.09809e-07
3.63659e-07
3.93579e-07
3.76754e-07
3.06485e-07
2.01798e-07
8.02621e-08
0
0
0
5.18915e-08
1.70902e-07
2.86883e-07
3.70582e-07
3.92939e-07
3.29882e-07
1.70788e-07
0
0
0
0
0
0
0
0
0
0
0
4.30748e-07
2.5034e-06
2.10098e-06
1.39918e-06
8.43747e-07
4.64788e-07
2.10868e-07
7.51998e-08
7.36552e-08
1.73776e-07
2.30018e-07
2.90552e-07
6.62061e-07
1.05738e-06
7.16188e-07
6.07632e-07
2.0218e-07
4.70828e-08
0
0
0
0
0
0
0
0
0
0
0
0
1.82117e-07
3.28123e-07
3.90006e-07
4.50475e-07
5.28479e-07
5.90868e-07
5.47867e-07
3.39649e-07
0
0
0
0
0
2.47504e-07
3.05054e-07
7.54827e-08
0
0
0
0
0
0
0
4.48173e-08
3.88509e-07
8.56478e-07
1.47207e-06
2.14049e-06
2.43001e-06
2.09074e-06
1.21988e-06
4.44561e-07
1.79469e-07
1.77684e-07
1.95703e-07
2.12371e-07
2.12139e-07
1.78386e-07
1.27929e-07
8.52682e-08
1.291e-07
3.63663e-07
7.05036e-07
8.85057e-07
8.36545e-07
6.57296e-07
4.7074e-07
2.74424e-07
8.4814e-08
0
0
0
0
0
0
0
0
0
0
0
0
0
3.25114e-08
9.1676e-08
1.532e-07
2.12945e-07
2.6133e-07
2.98002e-07
3.3278e-07
3.68778e-07
3.93868e-07
4.08473e-07
4.20468e-07
4.28125e-07
4.32627e-07
4.35963e-07
4.39698e-07
4.44865e-07
4.51881e-07
4.62351e-07
4.95445e-07
5.11607e-07
4.9745e-07
3.96178e-07
2.97096e-07
2.2343e-07
1.60116e-07
1.10869e-07
6.53656e-08
5.91001e-08
1.2978e-07
2.67887e-07
4.13958e-07
4.97098e-07
4.78119e-07
5.1331e-07
5.1495e-07
4.07436e-07
3.02144e-07
2.2924e-07
1.62345e-07
6.53315e-08
0
0
0
0
0
0
0
0
0
0
0
6.10939e-09
7.9736e-09
4.83216e-06
1.16483e-06
2.44788e-07
1.98722e-07
2.88784e-07
3.58983e-07
4.22852e-07
4.693e-07
4.93491e-07
4.9225e-07
4.5337e-07
3.66186e-07
2.47156e-07
1.11517e-07
0
0
0
0
1.06588e-07
2.51589e-07
3.79821e-07
4.5414e-07
4.50915e-07
3.64276e-07
1.95271e-07
0
0
0
0
0
0
0
0
0
0
4.94849e-06
3.1396e-06
1.8051e-06
9.90377e-07
5.25298e-07
2.68921e-07
1.30114e-07
1.14582e-07
2.05315e-07
2.72774e-07
2.80433e-07
4.68989e-07
1.29639e-06
1.4044e-06
1.06691e-06
4.86251e-07
1.4781e-07
3.72659e-08
3.31147e-10
0
0
0
0
0
0
0
0
0
0
0
9.59324e-08
2.48283e-07
3.06154e-07
3.20332e-07
3.2932e-07
3.25932e-07
2.72174e-07
1.53563e-07
0
0
0
0
0
0
2.16631e-07
2.05021e-07
7.55873e-08
2.22696e-08
0
1.55932e-09
7.51375e-08
3.11861e-07
7.95394e-07
1.54347e-06
2.48751e-06
3.53456e-06
4.61289e-06
5.40587e-06
5.38487e-06
4.06892e-06
1.93733e-06
5.10634e-07
1.04258e-07
8.5516e-08
1.69562e-07
2.47451e-07
2.64247e-07
2.37027e-07
1.86557e-07
1.57723e-07
2.93783e-07
6.95946e-07
1.05838e-06
1.15356e-06
1.01787e-06
8.25662e-07
6.05498e-07
3.51535e-07
1.17344e-07
0
0
0
0
0
0
0
0
0
0
0
0
0
7.06931e-08
1.4358e-07
1.9883e-07
2.49208e-07
2.93432e-07
3.26676e-07
3.50451e-07
3.72762e-07
3.96564e-07
4.09368e-07
4.19804e-07
4.29853e-07
4.3849e-07
4.44007e-07
4.50271e-07
4.59377e-07
4.69229e-07
4.74806e-07
4.92154e-07
5.0575e-07
4.99718e-07
4.28792e-07
3.2083e-07
2.55687e-07
1.95986e-07
1.46363e-07
1.01853e-07
1.02173e-07
1.87637e-07
3.25197e-07
4.30242e-07
4.99092e-07
5.08672e-07
4.40171e-07
4.36933e-07
4.39838e-07
3.62679e-07
2.79006e-07
1.98182e-07
7.60952e-08
0
0
0
0
0
0
0
0
0
0
0
0
6.21646e-09
2.59744e-06
1.90905e-06
5.00761e-07
2.30937e-07
2.77901e-07
3.66046e-07
4.28677e-07
4.88273e-07
4.94952e-07
4.7154e-07
4.23586e-07
3.46951e-07
2.51499e-07
1.43029e-07
3.6095e-08
0
0
0
1.10693e-08
1.20249e-07
2.45611e-07
3.46206e-07
3.9397e-07
3.76933e-07
2.97169e-07
1.56608e-07
0
0
0
0
0
0
0
0
1.70012e-06
2.33694e-06
1.52631e-06
8.59653e-07
4.39616e-07
2.18412e-07
1.12889e-07
9.5292e-08
2.02304e-07
3.48153e-07
3.78246e-07
4.14911e-07
9.74158e-07
2.0119e-06
1.47079e-06
9.22359e-07
3.03145e-07
1.04345e-07
3.95786e-08
1.60178e-08
9.99462e-09
1.10357e-08
1.2163e-08
1.50238e-08
1.38265e-08
1.00124e-08
0
0
0
0
0
2.61421e-08
1.42142e-07
1.89031e-07
1.81419e-07
1.49574e-07
1.1213e-07
6.48461e-08
2.15448e-08
8.00144e-10
0
0
0
0
0
0
1.28525e-07
1.71811e-07
1.11628e-07
5.37735e-08
5.13958e-08
1.68662e-07
5.46477e-07
1.31042e-06
2.4851e-06
3.92925e-06
5.6843e-06
7.55158e-06
9.08642e-06
9.37376e-06
6.54175e-06
1.90422e-06
0
0
0
1.08114e-07
2.69089e-07
3.14758e-07
3.01195e-07
2.48579e-07
2.56165e-07
5.46303e-07
1.08286e-06
1.38358e-06
1.38624e-06
1.1901e-06
1.01468e-06
7.38108e-07
4.36486e-07
2.16638e-07
0
0
0
0
0
0
0
0
0
0
0
0
0
1.61215e-07
2.72575e-07
3.12871e-07
3.32243e-07
3.52829e-07
3.7028e-07
3.84027e-07
3.98964e-07
4.1501e-07
4.2624e-07
4.33796e-07
4.42841e-07
4.53164e-07
4.60897e-07
4.65923e-07
4.73705e-07
4.84107e-07
4.92434e-07
5.00673e-07
5.05561e-07
4.96529e-07
4.48159e-07
3.39792e-07
2.67976e-07
2.19471e-07
1.77257e-07
1.41429e-07
1.4673e-07
2.40394e-07
3.69324e-07
4.4184e-07
4.62592e-07
4.83514e-07
4.92894e-07
4.39752e-07
3.98955e-07
3.37612e-07
2.38375e-07
1.19543e-07
0
0
0
0
0
0
0
0
0
0
0
0
0
0
8.90306e-07
2.15419e-06
7.02716e-07
2.66221e-07
2.46402e-07
2.75213e-07
2.78103e-07
3.42645e-07
3.8508e-07
3.60492e-07
3.12855e-07
2.51504e-07
1.84471e-07
1.13433e-07
4.22949e-08
0
0
0
0
7.20878e-09
8.24915e-08
1.69921e-07
2.39883e-07
2.73288e-07
2.65693e-07
2.20019e-07
1.41183e-07
3.37224e-08
0
0
0
0
0
1.70317e-07
7.4383e-07
7.4597e-07
4.70264e-07
2.14253e-07
6.58576e-08
2.10532e-08
3.92944e-08
1.60421e-07
3.87199e-07
5.11471e-07
5.16689e-07
7.79374e-07
1.99971e-06
1.98204e-06
1.34348e-06
5.69864e-07
1.93286e-07
8.72512e-08
4.90813e-08
3.44396e-08
3.28921e-08
3.59871e-08
3.76662e-08
3.83068e-08
3.76802e-08
3.49934e-08
2.89795e-08
8.88788e-10
0
0
0
0
1.28815e-08
4.32109e-08
3.09563e-08
0
0
0
0
0
1.2797e-08
0
0
0
0
0
0
5.82089e-08
1.56352e-07
1.52037e-07
1.57525e-07
2.84298e-07
6.88051e-07
1.60234e-06
3.01525e-06
4.86413e-06
7.41715e-06
1.03516e-05
1.36593e-05
1.62974e-05
1.14065e-05
4.78514e-07
0
0
0
1.9787e-07
3.58713e-07
3.92786e-07
3.5964e-07
2.96511e-07
3.73629e-07
8.90584e-07
1.44792e-06
1.65482e-06
1.55738e-06
1.42349e-06
1.23637e-06
7.87388e-07
6.01083e-07
4.39157e-07
1.18855e-07
0
0
0
0
0
0
0
0
0
0
0
0
3.61016e-07
5.40862e-07
5.59107e-07
5.14578e-07
4.74653e-07
4.49803e-07
4.35901e-07
4.32871e-07
4.3867e-07
4.44666e-07
4.50409e-07
4.59432e-07
4.72338e-07
4.81703e-07
4.84748e-07
4.88582e-07
4.96241e-07
5.05247e-07
5.12117e-07
5.07884e-07
4.90697e-07
4.51103e-07
3.52782e-07
2.69425e-07
2.24954e-07
1.94332e-07
1.75224e-07
1.89656e-07
2.90176e-07
4.06464e-07
4.46348e-07
4.13443e-07
3.77142e-07
3.60126e-07
3.64737e-07
3.39649e-07
2.27776e-07
7.58115e-08
0
0
0
0
1.03231e-07
4.79463e-08
0
0
0
0
0
0
0
0
0
3.11427e-07
1.5415e-06
6.0358e-07
1.57991e-07
3.76839e-08
0
0
9.08351e-08
1.62801e-07
1.82938e-07
1.5401e-07
1.09299e-07
6.42935e-08
2.1459e-08
0
0
0
0
0
0
0
3.86826e-08
9.2846e-08
1.44513e-07
1.79596e-07
1.96605e-07
1.99056e-07
1.91053e-07
1.80192e-07
1.72272e-07
1.78592e-07
2.0635e-07
2.7344e-07
3.4475e-07
2.73827e-07
7.31717e-08
0