/*--------------------------------*- C++ -*----------------------------------*\
  =========                 |
  \\      /  F ield         | OpenFOAM: The Open Source CFD Toolbox
   \\    /   O peration     | Website:  https://openfoam.org
    \\  /    A nd           | Version:  7
     \\/     M anipulation  |
\*---------------------------------------------------------------------------*/
FoamFile
{
    version     2.0;
    format      ascii;
    class       surfaceScalarField;
    location    "0.091";
    object      phi;
}
// * * * * * * * * * * * * * * * * * * * * * * * * * * * * * * * * * * * * * //

dimensions      [0 3 -1 0 0 0 0];

internalField   nonuniform List<scalar> 
24170
(
1.41826e-06
1.86313e-07
1.25668e-06
1.61579e-07
1.09665e-06
1.60027e-07
9.72626e-07
1.24027e-07
8.66304e-07
1.06322e-07
7.63838e-07
1.02466e-07
6.65386e-07
9.8452e-08
5.74506e-07
9.08802e-08
4.92686e-07
8.18199e-08
4.19638e-07
7.30486e-08
3.54585e-07
6.50522e-08
2.97327e-07
5.72579e-08
2.47225e-07
5.01023e-08
2.03861e-07
4.33646e-08
1.65891e-07
3.79697e-08
1.31121e-07
3.47701e-08
1.00131e-07
3.09896e-08
2.07969e-08
7.93343e-08
1.67014e-06
2.28355e-07
1.64133e-06
1.90397e-07
1.59762e-06
2.03732e-07
1.55577e-06
1.65878e-07
1.51701e-06
1.45085e-07
1.47497e-06
1.44504e-07
1.42827e-06
1.45148e-07
1.37863e-06
1.40525e-07
1.32768e-06
1.32769e-07
1.27569e-06
1.2504e-07
1.22294e-06
1.17802e-07
1.16875e-06
1.11442e-07
1.11447e-06
1.04388e-07
1.06051e-06
9.73259e-08
1.00775e-06
9.07261e-08
9.56219e-07
8.63001e-08
8.97821e-07
8.93878e-08
9.00555e-08
8.28562e-07
1.75405e-06
2.40998e-07
1.74503e-06
1.99411e-07
1.73905e-06
2.09719e-07
1.72951e-06
1.75418e-07
1.72284e-06
1.51755e-07
1.71795e-06
1.49394e-07
1.71023e-06
1.5287e-07
1.69778e-06
1.52971e-07
1.68145e-06
1.49099e-07
1.66254e-06
1.43947e-07
1.64195e-06
1.38396e-07
1.6198e-06
1.33588e-07
1.59575e-06
1.28444e-07
1.57014e-06
1.22934e-07
1.54229e-06
1.18572e-07
1.513e-06
1.15592e-07
1.48061e-06
1.21776e-07
1.28487e-07
1.44218e-06
1.91742e-06
2.70984e-07
1.89803e-06
2.18804e-07
1.89258e-06
2.15174e-07
1.88386e-06
1.84134e-07
1.87218e-06
1.63438e-07
1.86041e-06
1.61164e-07
1.849e-06
1.64279e-07
1.83927e-06
1.62696e-07
1.83281e-06
1.55561e-07
1.82992e-06
1.46839e-07
1.829e-06
1.39316e-07
1.82817e-06
1.34414e-07
1.82509e-06
1.31523e-07
1.81893e-06
1.29094e-07
1.80911e-06
1.28393e-07
1.79588e-06
1.28821e-07
1.78199e-06
1.35666e-07
1.44504e-07
1.76597e-06
2.05926e-06
3.48962e-07
2.0467e-06
2.31362e-07
2.03844e-06
2.23427e-07
2.02878e-06
1.93796e-07
2.01768e-06
1.74542e-07
2.00439e-06
1.74453e-07
1.99048e-06
1.78191e-07
1.97864e-06
1.74539e-07
1.97073e-06
1.63462e-07
1.96718e-06
1.50395e-07
1.96673e-06
1.39761e-07
1.96768e-06
1.33464e-07
1.96796e-06
1.31242e-07
1.96605e-06
1.31007e-07
1.96149e-06
1.32957e-07
1.95404e-06
1.36271e-07
1.94651e-06
1.43193e-07
1.52765e-07
1.93825e-06
2.23857e-06
3.72888e-07
2.21549e-06
2.54442e-07
2.19553e-06
2.43392e-07
2.17155e-06
2.17776e-07
2.15227e-06
1.93821e-07
2.13984e-06
1.8688e-07
2.1317e-06
1.86329e-07
2.12548e-06
1.80764e-07
2.12071e-06
1.68229e-07
2.11771e-06
1.53393e-07
2.11618e-06
1.4129e-07
2.11534e-06
1.34307e-07
2.1142e-06
1.32388e-07
2.11185e-06
1.33359e-07
2.10836e-06
1.36438e-07
2.10383e-06
1.40803e-07
2.09975e-06
1.47274e-07
1.56214e-07
2.0963e-06
2.44027e-06
3.50059e-07
2.38579e-06
3.08918e-07
2.34619e-06
2.82994e-07
2.33063e-06
2.33337e-07
2.32608e-06
1.98365e-07
2.32186e-06
1.91104e-07
2.3134e-06
1.94788e-07
2.3025e-06
1.9166e-07
2.29343e-06
1.77303e-07
2.28889e-06
1.57936e-07
2.28845e-06
1.41728e-07
2.2897e-06
1.33052e-07
2.29023e-06
1.31864e-07
2.2883e-06
1.35287e-07
2.28406e-06
1.40677e-07
2.2782e-06
1.46662e-07
2.27253e-06
1.52947e-07
1.60319e-07
2.26842e-06
2.57848e-06
3.84085e-07
2.55182e-06
3.35579e-07
2.54693e-06
2.87882e-07
2.5383e-06
2.41966e-07
2.52339e-06
2.13275e-07
2.51276e-06
2.01739e-07
2.50921e-06
1.98339e-07
2.50938e-06
1.91492e-07
2.50934e-06
1.77343e-07
2.50642e-06
1.60854e-07
2.49952e-06
1.48628e-07
2.48892e-06
1.43653e-07
2.47593e-06
1.44856e-07
2.4618e-06
1.49411e-07
2.44813e-06
1.54347e-07
2.43598e-06
1.58813e-07
2.4266e-06
1.62326e-07
1.6618e-07
2.42074e-06
2.76307e-06
4.3884e-07
2.73576e-06
3.62894e-07
2.72726e-06
2.9638e-07
2.72163e-06
2.476e-07
2.7148e-06
2.20105e-07
2.70796e-06
2.08575e-07
2.70188e-06
2.04419e-07
2.69682e-06
1.96551e-07
2.69275e-06
1.81412e-07
2.68901e-06
1.64598e-07
2.68445e-06
1.53187e-07
2.67822e-06
1.49885e-07
2.67031e-06
1.52759e-07
2.66147e-06
1.58259e-07
2.65268e-06
1.63135e-07
2.64498e-06
1.66512e-07
2.63899e-06
1.68316e-07
1.70106e-07
2.63506e-06
2.92575e-06
4.15684e-07
2.90624e-06
3.824e-07
2.88296e-06
3.19662e-07
2.87634e-06
2.54216e-07
2.87874e-06
2.17706e-07
2.88095e-06
2.06367e-07
2.88176e-06
2.0361e-07
2.88229e-06
1.96017e-07
2.88208e-06
1.81625e-07
2.88011e-06
1.66566e-07
2.87646e-06
1.56844e-07
2.87229e-06
1.54049e-07
2.86881e-06
1.56242e-07
2.86664e-06
1.60426e-07
2.86582e-06
1.63955e-07
2.86611e-06
1.66223e-07
2.8674e-06
1.67022e-07
1.67902e-07
2.86961e-06
3.12287e-06
4.26053e-07
3.14471e-06
3.60557e-07
3.1462e-06
3.18172e-07
3.13866e-06
2.61754e-07
3.1232e-06
2.3317e-07
3.10811e-06
2.21462e-07
3.09933e-06
2.12387e-07
3.09534e-06
2.00004e-07
3.09176e-06
1.85209e-07
3.08654e-06
1.7178e-07
3.08078e-06
1.62609e-07
3.07666e-06
1.58165e-07
3.07561e-06
1.57294e-07
3.07765e-06
1.58387e-07
3.08222e-06
1.59388e-07
3.08846e-06
1.59979e-07
3.09615e-06
1.59336e-07
1.59216e-07
3.10483e-06
2.86564e-06
3.95401e-07
2.85386e-06
3.72335e-07
2.85898e-06
3.13048e-07
2.86067e-06
2.60071e-07
2.85436e-06
2.39476e-07
2.84417e-06
2.31652e-07
2.83436e-06
2.22199e-07
2.82578e-06
2.08586e-07
2.81741e-06
1.93578e-07
2.80893e-06
1.80254e-07
2.80126e-06
1.70284e-07
2.79545e-06
1.63976e-07
2.7922e-06
1.60546e-07
2.79152e-06
1.59065e-07
2.79311e-06
1.57792e-07
2.79666e-06
1.56427e-07
2.80175e-06
1.54248e-07
1.526e-07
2.80837e-06
3.4729e-06
4.38965e-07
3.476e-06
3.69234e-07
3.48843e-06
3.00624e-07
3.48402e-06
2.64479e-07
3.46611e-06
2.57382e-07
3.44825e-06
2.49513e-07
3.44128e-06
2.29169e-07
3.44674e-06
2.03129e-07
3.45897e-06
1.81346e-07
3.47077e-06
1.68458e-07
3.4775e-06
1.63554e-07
3.47818e-06
1.63294e-07
3.47464e-06
1.6409e-07
3.46983e-06
1.63875e-07
3.46581e-06
1.61805e-07
3.46381e-06
1.58434e-07
3.46346e-06
1.54593e-07
1.51253e-07
3.46481e-06
4.25885e-06
5.02313e-07
4.2302e-06
3.97878e-07
4.22181e-06
3.09015e-07
4.21131e-06
2.74981e-07
4.20497e-06
2.63719e-07
4.20451e-06
2.49977e-07
4.20857e-06
2.25103e-07
4.21596e-06
1.95746e-07
4.22472e-06
1.72586e-07
4.23226e-06
1.60913e-07
4.23699e-06
1.58826e-07
4.23914e-06
1.61142e-07
4.24035e-06
1.62885e-07
4.24259e-06
1.61629e-07
4.24706e-06
1.57337e-07
4.25387e-06
1.51621e-07
4.26225e-06
1.46212e-07
1.4332e-07
4.27019e-06
5.17315e-06
4.78953e-07
5.18446e-06
3.86567e-07
5.17347e-06
3.19999e-07
5.15006e-06
2.98395e-07
5.12675e-06
2.87027e-07
5.11032e-06
2.66407e-07
5.10337e-06
2.32058e-07
5.10639e-06
1.92719e-07
5.11665e-06
1.62329e-07
5.1299e-06
1.47663e-07
5.14288e-06
1.45842e-07
5.15436e-06
1.49667e-07
5.16465e-06
1.52596e-07
5.17431e-06
1.51963e-07
5.18341e-06
1.48237e-07
5.19147e-06
1.43569e-07
5.19812e-06
1.39554e-07
1.37338e-07
5.20411e-06
6.28238e-06
5.68527e-07
6.27112e-06
3.97824e-07
6.29086e-06
3.00261e-07
6.31008e-06
2.79171e-07
6.31972e-06
2.77385e-07
6.32352e-06
2.6261e-07
6.32812e-06
2.27461e-07
6.3358e-06
1.85037e-07
6.346e-06
1.52132e-07
6.35819e-06
1.35473e-07
6.3721e-06
1.3193e-07
6.38697e-06
1.34798e-07
6.40107e-06
1.38498e-07
6.41272e-06
1.4031e-07
6.42126e-06
1.39703e-07
6.42705e-06
1.37772e-07
6.43125e-06
1.35354e-07
1.33897e-07
6.43469e-06
7.65683e-06
5.53355e-07
7.64853e-06
4.06124e-07
7.63465e-06
3.14138e-07
7.63825e-06
2.75573e-07
7.6607e-06
2.54935e-07
7.69398e-06
2.29328e-07
7.72283e-06
1.98615e-07
7.73677e-06
1.71093e-07
7.73816e-06
1.50738e-07
7.737e-06
1.36636e-07
7.74208e-06
1.26848e-07
7.75624e-06
1.2064e-07
7.77723e-06
1.17512e-07
7.80061e-06
1.16922e-07
7.82277e-06
1.17544e-07
7.84205e-06
1.18494e-07
7.85873e-06
1.18673e-07
1.17704e-07
7.87492e-06
9.36719e-06
4.43752e-07
9.36545e-06
4.07858e-07
9.35155e-06
3.28035e-07
9.36123e-06
2.65893e-07
9.39428e-06
2.21891e-07
9.43483e-06
1.8878e-07
9.46511e-06
1.68333e-07
9.47967e-06
1.56533e-07
9.48283e-06
1.47579e-07
9.48277e-06
1.36692e-07
9.48681e-06
1.22812e-07
9.49953e-06
1.07916e-07
9.52226e-06
9.47862e-08
9.55323e-06
8.5947e-08
9.58827e-06
8.25042e-08
9.62294e-06
8.38291e-08
9.65335e-06
8.82639e-08
9.37887e-08
9.67726e-06
1.12382e-05
3.79918e-07
1.13427e-05
3.03382e-07
1.14171e-05
2.53592e-07
1.14762e-05
2.06856e-07
1.15139e-05
1.84185e-07
1.15283e-05
1.74347e-07
1.15387e-05
1.57974e-07
1.15602e-05
1.34963e-07
1.15928e-05
1.15036e-07
1.16264e-05
1.0304e-07
1.16535e-05
9.57162e-08
1.16729e-05
8.8515e-08
1.16883e-05
7.94626e-08
1.17045e-05
6.97117e-08
1.17255e-05
6.14778e-08
1.17529e-05
5.64873e-08
1.17865e-05
5.46043e-08
5.53927e-08
1.18249e-05
8.50613e-06
3.58583e-07
8.52121e-06
2.88302e-07
8.50154e-06
2.73264e-07
8.48845e-06
2.19946e-07
8.49759e-06
1.7505e-07
8.52581e-06
1.46126e-07
8.56388e-06
1.19901e-07
8.60246e-06
9.63875e-08
8.6363e-06
8.11912e-08
8.66242e-06
7.6917e-08
8.67939e-06
7.8753e-08
8.68814e-06
7.97657e-08
8.69182e-06
7.57788e-08
8.69466e-06
6.68715e-08
8.70057e-06
5.55658e-08
8.71201e-06
4.50461e-08
8.7297e-06
3.69161e-08
3.23288e-08
8.75277e-06
7.43531e-06
3.21863e-07
7.44482e-06
2.78787e-07
7.4367e-06
2.8139e-07
7.43849e-06
2.18152e-07
7.447e-06
1.66544e-07
7.45753e-06
1.35598e-07
7.46437e-06
1.1306e-07
7.46795e-06
9.28059e-08
7.4729e-06
7.62401e-08
7.48393e-06
6.58872e-08
7.50203e-06
6.06562e-08
7.52473e-06
5.70655e-08
7.5483e-06
5.22015e-08
7.56967e-06
4.55012e-08
7.58727e-06
3.79751e-08
7.60116e-06
3.11552e-08
7.61225e-06
2.58229e-08
2.22753e-08
7.6223e-06
6.4678e-06
4.66025e-07
6.416e-06
3.30592e-07
6.45415e-06
2.43233e-07
6.49877e-06
1.73533e-07
6.53058e-06
1.3474e-07
6.55025e-06
1.15929e-07
6.56269e-06
1.00615e-07
6.57487e-06
8.06232e-08
6.59235e-06
5.87622e-08
6.61666e-06
4.15791e-08
6.6446e-06
3.2714e-08
6.67045e-06
3.12157e-08
6.68935e-06
3.33034e-08
6.69958e-06
3.52706e-08
6.70276e-06
3.47952e-08
6.70232e-06
3.15977e-08
6.70206e-06
2.60822e-08
1.96599e-08
6.70467e-06
5.58508e-06
4.61308e-07
5.55343e-06
3.62234e-07
5.56581e-06
2.30861e-07
5.59e-06
1.49342e-07
5.61946e-06
1.05277e-07
5.65852e-06
7.68717e-08
5.70697e-06
5.21589e-08
5.757e-06
3.05992e-08
5.7982e-06
1.75617e-08
5.82441e-06
1.53691e-08
5.83553e-06
2.15885e-08
5.83616e-06
3.05865e-08
5.83246e-06
3.70036e-08
5.8299e-06
3.78305e-08
5.83194e-06
3.27554e-08
5.83965e-06
2.38853e-08
5.85224e-06
1.34937e-08
4.01307e-09
5.86789e-06
4.83912e-06
5.36335e-07
4.89385e-06
3.0751e-07
4.95021e-06
1.74494e-07
4.98116e-06
1.18395e-07
5.00076e-06
8.56805e-08
5.0277e-06
4.99268e-08
5.06283e-06
1.70315e-08
5.0956e-06
-2.16752e-09
5.1175e-06
-4.34139e-09
5.12844e-06
4.42851e-09
5.13366e-06
1.63671e-08
5.13993e-06
2.43141e-08
5.15068e-06
2.62533e-08
5.16556e-06
2.29584e-08
5.18156e-06
1.67464e-08
5.19572e-06
9.72702e-09
5.20603e-06
3.18416e-09
-1.92593e-09
5.21197e-06
4.18946e-06
4.73355e-07
4.24643e-06
2.50539e-07
4.26877e-06
1.5215e-07
4.29297e-06
9.42007e-08
4.33002e-06
4.86248e-08
4.36956e-06
1.03924e-08
4.4027e-06
-1.61116e-08
4.42498e-06
-2.44517e-08
4.4402e-06
-1.95551e-08
4.45416e-06
-9.53827e-09
4.47068e-06
-1.52844e-10
4.49109e-06
3.91292e-09
4.51322e-06
4.11623e-09
4.53475e-06
1.43477e-09
4.5547e-06
-3.20512e-09
4.57223e-06
-7.80245e-09
4.58734e-06
-1.19271e-08
-1.52369e-08
4.60065e-06
3.67775e-06
2.8922e-07
3.76877e-06
1.59522e-07
3.82436e-06
9.65504e-08
3.85578e-06
6.2783e-08
3.8762e-06
2.82121e-08
3.88877e-06
-2.1852e-09
3.89422e-06
-2.1558e-08
3.90079e-06
-3.10203e-08
3.91259e-06
-3.13584e-08
3.92951e-06
-2.64555e-08
3.94916e-06
-1.98078e-08
3.96781e-06
-1.47345e-08
3.98433e-06
-1.2402e-08
3.99886e-06
-1.30941e-08
4.01166e-06
-1.60084e-08
4.02364e-06
-1.97813e-08
4.03515e-06
-2.34414e-08
-2.62042e-08
4.04612e-06
3.22809e-06
2.40777e-07
3.30925e-06
7.83609e-08
3.35315e-06
5.26518e-08
3.38182e-06
3.41138e-08
3.4017e-06
8.33186e-09
3.41201e-06
-1.24992e-08
3.41535e-06
-2.48958e-08
3.41797e-06
-3.36421e-08
3.42608e-06
-3.94639e-08
3.44057e-06
-4.09515e-08
3.45917e-06
-3.84053e-08
3.4788e-06
-3.43591e-08
3.49755e-06
-3.11596e-08
3.51471e-06
-3.02488e-08
3.53009e-06
-3.13854e-08
3.54375e-06
-3.34492e-08
3.55548e-06
-3.51721e-08
-3.56632e-08
3.56494e-06
2.84072e-06
1.66265e-07
2.8989e-06
2.01786e-08
2.92006e-06
3.14945e-08
2.94727e-06
6.90127e-09
2.97804e-06
-2.24338e-08
3.00277e-06
-3.72348e-08
3.02103e-06
-4.3152e-08
3.03702e-06
-4.96301e-08
3.05334e-06
-5.57894e-08
3.06935e-06
-5.69583e-08
3.08307e-06
-5.21303e-08
3.09335e-06
-4.46328e-08
3.10066e-06
-3.84758e-08
3.10643e-06
-3.60156e-08
3.11185e-06
-3.68075e-08
3.11752e-06
-3.91176e-08
3.12334e-06
-4.09857e-08
-4.11642e-08
3.12884e-06
2.49005e-06
3.0631e-08
2.55256e-06
-4.23327e-08
2.59923e-06
-1.51663e-08
2.6371e-06
-3.09727e-08
2.65937e-06
-4.47045e-08
2.67109e-06
-4.89527e-08
2.67865e-06
-5.07115e-08
2.68255e-06
-5.35335e-08
2.68187e-06
-5.51128e-08
2.67752e-06
-5.25998e-08
2.67168e-06
-4.62934e-08
2.6661e-06
-3.90585e-08
2.66135e-06
-3.37264e-08
2.65687e-06
-3.15325e-08
2.65182e-06
-3.17572e-08
2.64561e-06
-3.29088e-08
2.63815e-06
-3.35272e-08
-3.30962e-08
2.63009e-06
2.12703e-06
2.0847e-06
2.06953e-06
2.03856e-06
1.99385e-06
1.9449e-06
1.89419e-06
1.84066e-06
1.78554e-06
1.73294e-06
1.68665e-06
1.64759e-06
1.61387e-06
1.58233e-06
1.55058e-06
1.51767e-06
1.48414e-06
1.45104e-06
-4.39568e-09
4.39568e-09
2.41275e-08
-2.85232e-08
8.62157e-08
-6.20882e-08
1.64206e-07
-7.799e-08
2.39085e-07
-7.48796e-08
2.97319e-07
-5.82342e-08
3.31411e-07
-3.40914e-08
3.3753e-07
-6.11911e-09
3.17361e-07
2.0169e-08
2.73848e-07
4.35135e-08
2.1155e-07
6.22975e-08
1.36434e-07
7.51162e-08
5.47353e-08
8.16986e-08
-2.88926e-08
8.36278e-08
-1.128e-07
8.39074e-08
-1.97118e-07
8.43183e-08
-2.80466e-07
8.33476e-08
-3.58207e-07
7.77408e-08
-4.2594e-07
6.77334e-08
-4.82598e-07
5.66584e-08
-5.31027e-07
4.8429e-08
-5.75368e-07
4.43406e-08
-6.17271e-07
4.19027e-08
-6.55964e-07
3.86932e-08
-6.91953e-07
3.59894e-08
-7.32394e-07
4.04405e-08
-7.86138e-07
5.37441e-08
-8.56287e-07
7.01487e-08
-9.41349e-07
8.50621e-08
-1.03796e-06
9.66116e-08
-1.14331e-06
1.05353e-07
-1.25499e-06
1.11675e-07
-1.37074e-06
1.15755e-07
-1.48779e-06
1.17052e-07
-1.60359e-06
1.15799e-07
-1.71785e-06
1.14254e-07
-1.83274e-06
1.1489e-07
-1.94627e-06
1.13533e-07
-2.03666e-06
9.03887e-08
-2.05643e-06
1.97665e-08
-1.96568e-06
-9.07488e-08
-1.7919e-06
-1.73775e-07
-1.60937e-06
-1.82535e-07
-1.44056e-06
-1.68807e-07
-1.25693e-06
-1.83631e-07
-1.07158e-06
-1.85353e-07
-9.02059e-07
-1.69517e-07
-7.32722e-07
-1.69336e-07
-5.4384e-07
-1.88882e-07
-3.18547e-07
-2.25293e-07
-5.58033e-08
-2.62744e-07
2.28955e-07
-2.84758e-07
5.17339e-07
-2.88384e-07
7.89652e-07
-2.72313e-07
1.03321e-06
-2.43555e-07
1.2301e-06
-1.96898e-07
1.35322e-06
-1.23117e-07
1.38055e-06
-2.73301e-08
1.3111e-06
6.94557e-08
1.15356e-06
1.57538e-07
9.28996e-07
2.24561e-07
6.55582e-07
2.73414e-07
3.52903e-07
3.02679e-07
4.22505e-08
3.10653e-07
-2.38746e-07
2.80997e-07
-4.45732e-07
2.06985e-07
-5.23843e-07
7.81115e-08
-4.41139e-07
-8.27037e-08
-2.12299e-07
-2.2884e-07
6.79304e-08
-2.8023e-07
2.40659e-07
-1.72728e-07
3.03263e-07
-6.2604e-08
3.70952e-07
-6.76892e-08
5.09682e-07
-1.3873e-07
6.36892e-07
-1.2721e-07
7.6042e-07
-1.23529e-07
9.42568e-07
-1.82147e-07
9.8657e-07
-4.40027e-08
6.94662e-07
2.91908e-07
1.09989e-07
5.84673e-07
-5.24718e-07
6.34707e-07
-1.11873e-06
5.9401e-07
-1.65548e-06
5.36753e-07
-2.13387e-06
4.78392e-07
-2.55937e-06
4.25496e-07
-2.93848e-06
3.79111e-07
-3.27668e-06
3.38197e-07
-3.57777e-06
3.01096e-07
-3.84403e-06
2.66261e-07
-4.07656e-06
2.32528e-07
-4.27567e-06
1.99102e-07
-4.44122e-06
1.65559e-07
-4.57299e-06
1.31763e-07
-4.67079e-06
9.78036e-08
-4.73478e-06
6.39933e-08
-4.76585e-06
3.10633e-08
-4.7652e-06
-6.44752e-10
-4.73652e-06
-2.8684e-08
-4.68166e-06
-5.48572e-08
-4.60305e-06
-7.86086e-08
-4.50323e-06
-9.98222e-08
-4.38471e-06
-1.18524e-07
-4.2498e-06
-1.34906e-07
-4.10057e-06
-1.49234e-07
-3.93872e-06
-1.61846e-07
-3.76564e-06
-1.7308e-07
-3.5824e-06
-1.83242e-07
-3.38982e-06
-1.92579e-07
-3.18861e-06
-2.01206e-07
-2.97952e-06
-2.09097e-07
-2.76341e-06
-2.16102e-07
-2.54143e-06
-2.21984e-07
-2.31498e-06
-2.2645e-07
-2.08577e-06
-2.29213e-07
-1.8557e-06
-2.30072e-07
-1.62679e-06
-2.28903e-07
-1.40111e-06
-2.25686e-07
-1.18049e-06
-2.20613e-07
-9.66532e-07
-2.13961e-07
-7.60521e-07
-2.06011e-07
-5.63303e-07
-1.97218e-07
-3.75423e-07
-1.8788e-07
-1.97088e-07
-1.78335e-07
-2.84202e-08
-1.68668e-07
1.32332e-07
-1.60752e-07
2.85141e-07
-1.52809e-07
4.30768e-07
-1.45626e-07
5.70162e-07
-1.39395e-07
7.04203e-07
-1.34041e-07
8.33532e-07
-1.29329e-07
9.58377e-07
-1.24844e-07
1.07836e-06
-1.19988e-07
1.19235e-06
-1.13988e-07
1.29837e-06
-1.06017e-07
1.39389e-06
-9.55183e-08
1.47634e-06
-8.24515e-08
1.54317e-06
-6.68296e-08
1.59216e-06
-4.89924e-08
1.6226e-06
-3.04362e-08
1.63444e-06
-1.18389e-08
1.62758e-06
6.8616e-09
1.60333e-06
2.42453e-08
1.56407e-06
3.92584e-08
1.51154e-06
5.25319e-08
1.44664e-06
6.49035e-08
1.37038e-06
7.62542e-08
1.28517e-06
8.52146e-08
1.19546e-06
8.9704e-08
1.1072e-06
8.82626e-08
1.02629e-06
8.09116e-08
9.5694e-07
6.93485e-08
9.00817e-07
5.61233e-08
8.57379e-07
4.34384e-08
8.24765e-07
3.26139e-08
8.00667e-07
2.4098e-08
7.82922e-07
1.7745e-08
7.69779e-07
1.31425e-08
7.5993e-07
9.84973e-09
7.52427e-07
7.50204e-09
7.4659e-07
5.83751e-09
7.41892e-07
4.6978e-09
7.37925e-07
3.96715e-09
7.34358e-07
3.56679e-09
7.30952e-07
3.40578e-09
7.2748e-07
3.47194e-09
7.23804e-07
3.67638e-09
7.19726e-07
4.0784e-09
7.15148e-07
4.5779e-09
7.09745e-07
5.40235e-09
7.03472e-07
6.27392e-09
6.95629e-07
7.8426e-09
6.86402e-07
9.22695e-09
6.74151e-07
1.22506e-08
6.60048e-07
1.41031e-08
6.39745e-07
2.0303e-08
6.18105e-07
2.16403e-08
5.82402e-07
3.57035e-08
5.51045e-07
3.13568e-08
4.83599e-07
6.74456e-08
4.14865e-08
4.42113e-07
2.89211e-08
-2.45254e-08
1.54131e-07
-1.53733e-07
3.27123e-07
-2.35081e-07
5.01892e-07
-2.52759e-07
6.54749e-07
-2.27736e-07
7.75308e-07
-1.78794e-07
8.58382e-07
-1.17166e-07
9.02175e-07
-4.99114e-08
9.05564e-07
1.67794e-08
8.72378e-07
7.66993e-08
8.06547e-07
1.28129e-07
7.13109e-07
1.68554e-07
5.98867e-07
1.95941e-07
4.73432e-07
2.09063e-07
3.46154e-07
2.11185e-07
2.27005e-07
2.03467e-07
1.2615e-07
1.84203e-07
3.83415e-08
1.65549e-07
-4.97129e-08
1.55788e-07
-1.36827e-07
1.43772e-07
-2.07298e-07
1.18901e-07
-2.5122e-07
8.82621e-08
-2.86369e-07
7.70519e-08
-3.43686e-07
9.60097e-08
-4.3405e-07
1.26353e-07
-5.53738e-07
1.60129e-07
-6.99495e-07
1.99502e-07
-8.671e-07
2.37754e-07
-1.04802e-06
2.65983e-07
-1.23263e-06
2.81221e-07
-1.41181e-06
2.84531e-07
-1.57818e-06
2.78049e-07
-1.72649e-06
2.64062e-07
-1.85322e-06
2.43778e-07
-1.95356e-06
2.1614e-07
-2.01873e-06
1.79424e-07
-2.03677e-06
1.32933e-07
-1.99688e-06
7.36463e-08
-1.9078e-06
1.30649e-09
-1.80038e-06
-8.76548e-08
-1.72012e-06
-1.71008e-07
-1.65753e-06
-2.36365e-07
-1.55784e-06
-2.82227e-07
-1.40793e-06
-3.18716e-07
-1.23572e-06
-3.55844e-07
-1.0448e-06
-3.7627e-07
-8.30757e-07
-3.83561e-07
-5.95466e-07
-4.04627e-07
-3.38936e-07
-4.45412e-07
-6.44838e-08
-4.99746e-07
2.19915e-07
-5.47143e-07
5.09344e-07
-5.74188e-07
7.90525e-07
-5.69564e-07
1.05314e-06
-5.34927e-07
1.30543e-06
-4.95851e-07
1.53739e-06
-4.28856e-07
1.71004e-06
-2.95765e-07
1.79018e-06
-1.07473e-07
1.77277e-06
8.68655e-08
1.69306e-06
2.37251e-07
1.56408e-06
3.53536e-07
1.36022e-06
4.77284e-07
1.05277e-06
6.10128e-07
6.86505e-07
6.76914e-07
3.34517e-07
6.32985e-07
5.50417e-08
4.8646e-07
-1.31277e-07
2.6443e-07
-1.95438e-07
-1.8543e-08
-8.54104e-08
-3.38867e-07
2.27727e-07
-5.93367e-07
5.96391e-07
-5.41392e-07
8.06411e-07
-2.72624e-07
9.23649e-07
-1.84927e-07
1.10899e-06
-3.24072e-07
1.3688e-06
-3.8702e-07
1.45861e-06
-2.13335e-07
1.05361e-06
2.22851e-07
2.0732e-07
8.02286e-07
-6.71019e-07
1.17025e-06
-1.33504e-06
1.2487e-06
-1.87452e-06
1.17419e-06
-2.33567e-06
1.05516e-06
-2.73198e-06
9.33067e-07
-3.07662e-06
8.23033e-07
-3.3796e-06
7.28473e-07
-3.64854e-06
6.48048e-07
-3.88841e-06
5.78064e-07
-4.10208e-06
5.14772e-07
-4.2906e-06
4.54784e-07
-4.45445e-06
3.96376e-07
-4.59349e-06
3.38136e-07
-4.70701e-06
2.79083e-07
-4.7943e-06
2.19052e-07
-4.85486e-06
1.58367e-07
-4.88857e-06
9.76963e-08
-4.89556e-06
3.80608e-08
-4.87664e-06
-1.95713e-08
-4.83128e-06
-7.40445e-08
-4.76126e-06
-1.24875e-07
-4.66863e-06
-1.71239e-07
-4.55572e-06
-2.12732e-07
-4.42493e-06
-2.49316e-07
-4.27854e-06
-2.81295e-07
-4.11855e-06
-3.09222e-07
-3.9466e-06
-3.33794e-07
-3.76396e-06
-3.55722e-07
-3.57156e-06
-3.7564e-07
-3.37012e-06
-3.94022e-07
-3.16023e-06
-4.11096e-07
-2.94253e-06
-4.26792e-07
-2.71785e-06
-4.40782e-07
-2.48727e-06
-4.52565e-07
-2.25219e-06
-4.61527e-07
-2.01435e-06
-4.67052e-07
-1.77571e-06
-4.68716e-07
-1.53834e-06
-4.66274e-07
-1.30435e-06
-4.59678e-07
-1.07563e-06
-4.49331e-07
-8.53755e-07
-4.35836e-07
-6.4003e-07
-4.19736e-07
-4.35296e-07
-4.01952e-07
-2.39985e-07
-3.83191e-07
-5.46113e-08
-3.63709e-07
1.22387e-07
-3.45666e-07
2.90417e-07
-3.28783e-07
4.5042e-07
-3.12812e-07
6.03408e-07
-2.98614e-07
7.50434e-07
-2.86422e-07
8.92552e-07
-2.76158e-07
1.03063e-06
-2.6741e-07
1.1652e-06
-2.59407e-07
1.29623e-06
-2.51019e-07
1.42308e-06
-2.4084e-07
1.54454e-06
-2.27482e-07
1.65902e-06
-2.09996e-07
1.76445e-06
-1.87881e-07
1.85862e-06
-1.60995e-07
1.93961e-06
-1.29983e-07
2.00537e-06
-9.61954e-08
2.05484e-06
-6.13095e-08
2.08874e-06
-2.70415e-08
2.10795e-06
5.03326e-09
2.11365e-06
3.35569e-08
2.10831e-06
5.78776e-08
2.09478e-06
7.84329e-08
2.07545e-06
9.55785e-08
2.05179e-06
1.0888e-07
2.02474e-06
1.16748e-07
1.99495e-06
1.18059e-07
1.9634e-06
1.12457e-07
1.93143e-06
1.0132e-07
1.90024e-06
8.73157e-08
1.87062e-06
7.30569e-08
1.8429e-06
6.03343e-08
1.8171e-06
4.98932e-08
1.7932e-06
4.16527e-08
1.77122e-06
3.5123e-08
1.75128e-06
2.97816e-08
1.7335e-06
2.52823e-08
1.71786e-06
2.14792e-08
1.70421e-06
1.83516e-08
1.69229e-06
1.58877e-08
1.6818e-06
1.4053e-08
1.67245e-06
1.2753e-08
1.66398e-06
1.19437e-08
1.65621e-06
1.14471e-08
1.64896e-06
1.13252e-08
1.64215e-06
1.13903e-08
1.63552e-06
1.20382e-08
1.62903e-06
1.27591e-08
1.62211e-06
1.47613e-08
1.61495e-06
1.63857e-08
1.60616e-06
2.10407e-08
1.59672e-06
2.35492e-08
1.58342e-06
3.35984e-08
1.5692e-06
3.58653e-08
1.5473e-06
5.75954e-08
1.52362e-06
5.50427e-08
1.48812e-06
1.02942e-07
8.59951e-08
1.44361e-06
8.46885e-08
-1.09214e-07
3.17679e-07
-3.86724e-07
5.66964e-07
-4.84365e-07
7.81906e-07
-4.67701e-07
9.54166e-07
-3.99996e-07
1.08658e-06
-3.11209e-07
1.18094e-06
-2.11525e-07
1.2389e-06
-1.07874e-07
1.26323e-06
-7.54504e-09
1.24761e-06
9.23173e-08
1.1952e-06
1.80535e-07
1.11179e-06
2.51972e-07
1.00677e-06
3.0096e-07
8.87905e-07
3.27924e-07
7.60344e-07
3.38746e-07
6.25285e-07
3.38526e-07
4.85802e-07
3.23686e-07
3.53338e-07
2.98013e-07
2.28638e-07
2.80487e-07
1.0518e-07
2.67231e-07
-1.90538e-08
2.43134e-07
-1.6309e-07
2.32299e-07
-3.49147e-07
2.63108e-07
-5.81082e-07
3.27945e-07
-8.47478e-07
3.92749e-07
-1.1275e-06
4.40148e-07
-1.40047e-06
4.72476e-07
-1.65484e-06
4.92119e-07
-1.88676e-06
4.97903e-07
-2.09532e-06
4.89783e-07
-2.27965e-06
4.68858e-07
-2.43841e-06
4.36815e-07
-2.56999e-06
3.95639e-07
-2.67301e-06
3.468e-07
-2.74712e-06
2.90251e-07
-2.79197e-06
2.24272e-07
-2.80503e-06
1.4599e-07
-2.78512e-06
5.37448e-08
-2.73281e-06
-5.10082e-08
-2.66281e-06
-1.57655e-07
-2.576e-06
-2.57813e-07
-2.4679e-06
-3.44475e-07
-2.32993e-06
-4.20195e-07
-2.15604e-06
-4.92601e-07
-1.95207e-06
-5.59814e-07
-1.71391e-06
-6.14437e-07
-1.43733e-06
-6.60136e-07
-1.13594e-06
-7.06017e-07
-8.26111e-07
-7.55241e-07
-5.19829e-07
-8.06028e-07
-2.12949e-07
-8.54023e-07
1.07057e-07
-8.94193e-07
4.41238e-07
-9.03745e-07
7.93007e-07
-8.86696e-07
1.19692e-06
-8.99762e-07
1.64386e-06
-8.758e-07
2.05318e-06
-7.05086e-07
2.3534e-06
-4.07694e-07
2.48993e-06
-4.96562e-08
2.44198e-06
2.85194e-07
2.254e-06
5.41516e-07
1.9992e-06
7.3209e-07
1.73746e-06
8.71865e-07
1.47915e-06
9.35227e-07
1.23608e-06
8.76053e-07
1.01831e-06
7.04225e-07
8.26502e-07
4.56242e-07
6.64191e-07
1.43768e-07
5.47681e-07
-2.22357e-07
5.19232e-07
-5.64919e-07
6.44146e-07
-6.66305e-07
8.725e-07
-5.00978e-07
1.16496e-06
-4.77387e-07
1.42064e-06
-5.79756e-07
1.37292e-06
-3.39297e-07
8.081e-07
3.51486e-07
-1.1292e-07
1.14387e-06
-9.40246e-07
1.62961e-06
-1.50953e-06
1.73953e-06
-1.91155e-06
1.65072e-06
-2.23345e-06
1.49609e-06
-2.51201e-06
1.33371e-06
-2.76676e-06
1.18782e-06
-3.00791e-06
1.06418e-06
-3.23972e-06
9.60287e-07
-3.46296e-06
8.71289e-07
-3.67622e-06
7.91324e-07
-3.87694e-06
7.15486e-07
-4.06219e-06
6.40031e-07
-4.22859e-06
5.6278e-07
-4.37305e-06
4.82596e-07
-4.49294e-06
3.98973e-07
-4.5861e-06
3.12218e-07
-4.65098e-06
2.23244e-07
-4.68668e-06
1.33398e-07
-4.69291e-06
4.42866e-08
-4.67048e-06
-4.19997e-08
-4.62086e-06
-1.23668e-07
-4.54612e-06
-1.99615e-07
-4.44871e-06
-2.6865e-07
-4.3313e-06
-3.30135e-07
-4.19656e-06
-3.84056e-07
-4.04692e-06
-4.30932e-07
-3.88446e-06
-4.71682e-07
-3.71081e-06
-5.07453e-07
-3.52712e-06
-5.39412e-07
-3.33419e-06
-5.68569e-07
-3.13255e-06
-5.95657e-07
-2.92264e-06
-6.21007e-07
-2.70496e-06
-6.44479e-07
-2.48022e-06
-6.65522e-07
-2.24949e-06
-6.8329e-07
-2.01424e-06
-6.96777e-07
-1.77635e-06
-7.04944e-07
-1.53797e-06
-7.07093e-07
-1.30137e-06
-7.02881e-07
-1.06883e-06
-6.92212e-07
-8.42384e-07
-6.75779e-07
-6.23687e-07
-6.54534e-07
-4.13972e-07
-6.29451e-07
-2.14216e-07
-6.01708e-07
-2.49951e-08
-5.72411e-07
1.55433e-07
-5.44136e-07
3.25731e-07
-5.15965e-07
4.86378e-07
-4.89429e-07
6.38605e-07
-4.65039e-07
7.83502e-07
-4.43511e-07
9.22261e-07
-4.2518e-07
1.05606e-06
-4.09957e-07
1.18586e-06
-3.97213e-07
1.31215e-06
-3.85692e-07
1.43463e-06
-3.73505e-07
1.55214e-06
-3.58347e-07
1.66272e-06
-3.38063e-07
1.76426e-06
-3.11531e-07
1.85552e-06
-2.79147e-07
1.93682e-06
-2.42293e-07
2.00917e-06
-2.02336e-07
2.07297e-06
-1.59986e-07
2.12727e-06
-1.15612e-07
2.17053e-06
-7.03042e-08
2.20136e-06
-2.57921e-08
2.21925e-06
1.56667e-08
2.22508e-06
5.20414e-08
2.22169e-06
8.18292e-08
2.21293e-06
1.04336e-07
2.20238e-06
1.19431e-07
2.19196e-06
1.27167e-07
2.18214e-06
1.27874e-07
2.17264e-06
1.21963e-07
2.16299e-06
1.10962e-07
2.153e-06
9.73055e-08
2.14267e-06
8.33888e-08
2.13203e-06
7.09762e-08
2.12103e-06
6.08966e-08
2.10952e-06
5.31573e-08
2.09735e-06
4.72916e-08
2.08443e-06
4.27067e-08
2.0708e-06
3.89102e-08
2.0567e-06
3.55807e-08
2.04249e-06
3.2565e-08
2.02858e-06
2.97945e-08
2.01535e-06
2.72813e-08
2.00309e-06
2.50148e-08
1.99195e-06
2.30833e-08
1.98199e-06
2.14094e-08
1.97312e-06
2.01898e-08
1.96529e-06
1.92244e-08
1.95827e-06
1.906e-08
1.95195e-06
1.90769e-08
1.94601e-06
2.07015e-08
1.94034e-06
2.20501e-08
1.93457e-06
2.68134e-08
1.92851e-06
2.9615e-08
1.92204e-06
4.00639e-08
1.91419e-06
4.37194e-08
1.90657e-06
6.52124e-08
1.89409e-06
6.75208e-08
1.88647e-06
1.10568e-07
1.10619e-07
1.86184e-06
2.71696e-07
-3.80909e-07
5.67115e-07
-6.82143e-07
7.82702e-07
-6.99952e-07
9.32411e-07
-6.1741e-07
1.04148e-06
-5.09069e-07
1.12412e-06
-3.93842e-07
1.18055e-06
-2.67961e-07
1.21163e-06
-1.38953e-07
1.21848e-06
-1.43902e-08
1.20446e-06
1.06334e-07
1.16308e-06
2.21916e-07
1.08847e-06
3.26582e-07
9.87184e-07
4.02247e-07
8.69008e-07
4.461e-07
7.35669e-07
4.72085e-07
5.83306e-07
4.90889e-07
4.17129e-07
4.89863e-07
2.4591e-07
4.69232e-07
6.61493e-08
4.60248e-07
-1.38267e-07
4.71647e-07
-3.96067e-07
5.00934e-07
-7.17559e-07
5.53791e-07
-1.07297e-06
6.18522e-07
-1.42098e-06
6.7595e-07
-1.74605e-06
7.17821e-07
-2.04813e-06
7.42225e-07
-2.32571e-06
7.50058e-07
-2.57542e-06
7.41835e-07
-2.79484e-06
7.17322e-07
-2.98259e-06
6.77528e-07
-3.13809e-06
6.24357e-07
-3.26101e-06
5.59736e-07
-3.35088e-06
4.85513e-07
-3.40728e-06
4.03197e-07
-3.43066e-06
3.13629e-07
-3.42309e-06
2.167e-07
-3.38891e-06
1.11816e-07
-3.33442e-06
-7.50142e-10
-3.26552e-06
-1.19904e-07
-3.1768e-06
-2.46374e-07
-3.06103e-06
-3.73588e-07
-2.91206e-06
-4.93447e-07
-2.73039e-06
-6.01862e-07
-2.52312e-06
-6.99871e-07
-2.29647e-06
-7.86461e-07
-2.0509e-06
-8.60008e-07
-1.78803e-06
-9.23003e-07
-1.51407e-06
-9.79984e-07
-1.23368e-06
-1.03562e-06
-9.48914e-07
-1.0908e-06
-6.56434e-07
-1.1465e-06
-3.51384e-07
-1.19924e-06
-1.77872e-08
-1.23734e-06
3.53896e-07
-1.25838e-06
8.14621e-07
-1.36049e-06
1.36766e-06
-1.42884e-06
1.90417e-06
-1.2416e-06
2.38e-06
-8.83524e-07
2.77122e-06
-4.40884e-07
3.02257e-06
3.38491e-08
3.07682e-06
4.87265e-07
2.95471e-06
8.54197e-07
2.73055e-06
1.09603e-06
2.47954e-06
1.18624e-06
2.23317e-06
1.12242e-06
2.00148e-06
9.35915e-07
1.80894e-06
6.48784e-07
1.66739e-06
2.85317e-07
1.54476e-06
-9.97345e-08
1.40926e-06
-4.29412e-07
1.32205e-06
-5.79103e-07
1.38081e-06
-5.59736e-07
1.47741e-06
-5.73986e-07
1.30694e-06
-4.09285e-07
6.81986e-07
2.85659e-07
-1.96582e-07
1.23005e-06
-9.65002e-07
1.91229e-06
-1.46167e-06
2.12628e-06
-1.77024e-06
2.0481e-06
-2.00039e-06
1.88086e-06
-2.20297e-06
1.69867e-06
-2.40245e-06
1.53319e-06
-2.60865e-06
1.39402e-06
-2.82382e-06
1.27936e-06
-3.04579e-06
1.18226e-06
-3.26969e-06
1.09518e-06
-3.48957e-06
1.01121e-06
-3.69915e-06
9.25061e-07
-3.8928e-06
8.33682e-07
-4.0657e-06
7.35678e-07
-4.21402e-06
6.30924e-07
-4.33497e-06
5.1992e-07
-4.42649e-06
4.03732e-07
-4.48714e-06
2.83903e-07
-4.51626e-06
1.62518e-07
-4.51347e-06
4.1488e-08
-4.4812e-06
-7.42656e-08
-4.42079e-06
-1.84077e-07
-4.33461e-06
-2.85796e-07
-4.22572e-06
-3.77543e-07
-4.0973e-06
-4.58557e-07
-3.9524e-06
-5.28948e-07
-3.79373e-06
-5.89604e-07
-3.62344e-06
-6.41975e-07
-3.44309e-06
-6.87803e-07
-3.25367e-06
-7.28834e-07
-3.0557e-06
-7.66531e-07
-2.84945e-06
-8.0191e-07
-2.63507e-06
-8.35391e-07
-2.41281e-06
-8.66734e-07
-2.18327e-06
-8.95063e-07
-1.94751e-06
-9.19049e-07
-1.70714e-06
-9.37146e-07
-1.46435e-06
-9.47736e-07
-1.22169e-06
-9.49755e-07
-9.81814e-07
-9.42756e-07
-7.47378e-07
-9.26649e-07
-5.20588e-07
-9.02569e-07
-3.03562e-07
-8.7156e-07
-9.74373e-08
-8.35576e-07
9.74037e-08
-7.96549e-07
2.81241e-07
-7.56248e-07
4.52708e-07
-7.15604e-07
6.12787e-07
-6.76044e-07
7.62134e-07
-6.38777e-07
9.01976e-07
-6.04881e-07
1.03377e-06
-5.75303e-07
1.15922e-06
-5.50633e-07
1.28023e-06
-5.30964e-07
1.39869e-06
-5.1567e-07
1.51615e-06
-5.03151e-07
1.6333e-06