/*--------------------------------*- C++ -*----------------------------------*\
  =========                 |
  \\      /  F ield         | OpenFOAM: The Open Source CFD Toolbox
   \\    /   O peration     | Website:  https://openfoam.org
    \\  /    A nd           | Version:  7
     \\/     M anipulation  |
\*---------------------------------------------------------------------------*/
FoamFile
{
    version     2.0;
    format      ascii;
    class       volScalarField;
    location    "0.091";
    object      pPrime2Mean;
}
// * * * * * * * * * * * * * * * * * * * * * * * * * * * * * * * * * * * * * //

dimensions      [0 4 -4 0 0 0 0];

internalField   nonuniform List<scalar> 
12225
(
3.95957e+06
3.8967e+06
3.83174e+06
3.76904e+06
3.70878e+06
3.6508e+06
3.59493e+06
3.541e+06
3.48886e+06
3.43832e+06
3.38916e+06
3.34117e+06
3.29406e+06
3.24747e+06
3.20092e+06
3.15365e+06
3.10432e+06
3.0496e+06
3.95963e+06
3.89673e+06
3.83177e+06
3.76907e+06
3.70882e+06
3.65084e+06
3.59497e+06
3.54106e+06
3.48893e+06
3.43841e+06
3.38928e+06
3.34131e+06
3.29425e+06
3.24774e+06
3.20132e+06
3.15428e+06
3.10553e+06
3.05235e+06
3.95973e+06
3.8968e+06
3.83184e+06
3.76914e+06
3.7089e+06
3.65093e+06
3.59508e+06
3.54119e+06
3.48909e+06
3.4386e+06
3.38952e+06
3.34163e+06
3.29467e+06
3.24833e+06
3.20218e+06
3.15566e+06
3.10795e+06
3.05805e+06
3.95985e+06
3.89691e+06
3.83195e+06
3.76927e+06
3.70903e+06
3.65108e+06
3.59526e+06
3.5414e+06
3.48935e+06
3.43892e+06
3.38993e+06
3.34216e+06
3.29537e+06
3.24928e+06
3.20356e+06
3.15778e+06
3.11154e+06
3.06486e+06
3.96e+06
3.89707e+06
3.83212e+06
3.76944e+06
3.70923e+06
3.65131e+06
3.59552e+06
3.54172e+06
3.48973e+06
3.43939e+06
3.39052e+06
3.34292e+06
3.29637e+06
3.25065e+06
3.20549e+06
3.16065e+06
3.11605e+06
3.07223e+06
3.96022e+06
3.89729e+06
3.83235e+06
3.76969e+06
3.7095e+06
3.65162e+06
3.59588e+06
3.54215e+06
3.49025e+06
3.44004e+06
3.39133e+06
3.34395e+06
3.29772e+06
3.25245e+06
3.20798e+06
3.16421e+06
3.12127e+06
3.07988e+06
3.9605e+06
3.89759e+06
3.83265e+06
3.77001e+06
3.70986e+06
3.65203e+06
3.59636e+06
3.54271e+06
3.49094e+06
3.44088e+06
3.39238e+06
3.34529e+06
3.29944e+06
3.25472e+06
3.21102e+06
3.16838e+06
3.12703e+06
3.08765e+06
3.96085e+06
3.89797e+06
3.83304e+06
3.77043e+06
3.71032e+06
3.65255e+06
3.59697e+06
3.54344e+06
3.49181e+06
3.44195e+06
3.3937e+06
3.34694e+06
3.30156e+06
3.25745e+06
3.21459e+06
3.17309e+06
3.1332e+06
3.0955e+06
3.96134e+06
3.89845e+06
3.83354e+06
3.77095e+06
3.7109e+06
3.6532e+06
3.59773e+06
3.54434e+06
3.49289e+06
3.44326e+06
3.39531e+06
3.34895e+06
3.30407e+06
3.26063e+06
3.21865e+06
3.17825e+06
3.13969e+06
3.10339e+06
3.96192e+06
3.89905e+06
3.83415e+06
3.7716e+06
3.7116e+06
3.654e+06
3.59866e+06
3.54543e+06
3.4942e+06
3.44484e+06
3.39724e+06
3.35131e+06
3.30699e+06
3.26426e+06
3.22316e+06
3.18381e+06
3.14642e+06
3.1113e+06
3.96276e+06
3.89979e+06
3.83489e+06
3.77238e+06
3.71246e+06
3.65497e+06
3.59977e+06
3.54674e+06
3.49575e+06
3.4467e+06
3.39948e+06
3.35404e+06
3.31031e+06
3.2683e+06
3.22805e+06
3.18968e+06
3.15334e+06
3.11923e+06
3.96353e+06
3.90061e+06
3.83571e+06
3.77324e+06
3.7134e+06
3.65602e+06
3.60098e+06
3.54815e+06
3.49741e+06
3.44867e+06
3.40185e+06
3.35687e+06
3.3137e+06
3.27235e+06
3.23286e+06
3.19531e+06
3.15981e+06
3.1265e+06
3.9646e+06
3.90156e+06
3.83665e+06
3.77422e+06
3.71446e+06
3.65721e+06
3.60234e+06
3.54973e+06
3.49927e+06
3.45087e+06
3.40444e+06
3.35994e+06
3.31734e+06
3.27663e+06
3.23785e+06
3.20106e+06
3.16631e+06
3.13369e+06
3.96601e+06
3.90283e+06
3.83789e+06
3.77551e+06
3.71586e+06
3.65878e+06
3.60412e+06
3.55179e+06
3.50166e+06
3.45367e+06
3.40772e+06
3.36378e+06
3.32181e+06
3.28181e+06
3.24379e+06
3.20778e+06
3.1738e+06
3.14187e+06
3.96783e+06
3.9045e+06
3.83953e+06
3.77721e+06
3.7177e+06
3.66082e+06
3.60643e+06
3.55443e+06
3.50472e+06
3.4572e+06
3.41182e+06
3.36851e+06
3.32724e+06
3.28799e+06
3.25076e+06
3.21553e+06
3.1823e+06
3.15104e+06
3.9701e+06
3.90664e+06
3.84165e+06
3.77941e+06
3.72007e+06
3.66344e+06
3.60939e+06
3.55779e+06
3.50856e+06
3.46159e+06
3.41683e+06
3.37421e+06
3.33368e+06
3.29521e+06
3.25876e+06
3.22431e+06
3.19179e+06
3.16118e+06
3.97298e+06
3.90933e+06
3.84433e+06
3.78221e+06
3.72308e+06
3.66676e+06
3.61309e+06
3.56196e+06
3.51327e+06
3.46691e+06
3.42282e+06
3.38092e+06
3.34115e+06
3.30345e+06
3.26776e+06
3.23403e+06
3.20219e+06
3.17218e+06
3.97626e+06
3.91254e+06
3.84759e+06
3.78562e+06
3.72676e+06
3.67079e+06
3.61756e+06
3.56695e+06
3.51884e+06
3.47313e+06
3.42973e+06
3.38855e+06
3.34951e+06
3.31254e+06
3.27756e+06
3.2445e+06
3.21327e+06
3.1838e+06
3.97996e+06
3.91618e+06
3.85132e+06
3.78957e+06
3.73102e+06
3.67546e+06
3.62271e+06
3.57263e+06
3.52512e+06
3.48004e+06
3.43731e+06
3.39681e+06
3.35845e+06
3.32215e+06
3.2878e+06
3.25533e+06
3.22463e+06
3.19563e+06
3.98266e+06
3.91902e+06
3.85433e+06
3.79282e+06
3.73456e+06
3.67932e+06
3.62695e+06
3.57729e+06
3.53022e+06
3.48561e+06
3.44334e+06
3.40331e+06
3.36542e+06
3.32955e+06
3.29562e+06
3.26353e+06
3.23319e+06
3.20449e+06
3.98417e+06
3.9208e+06
3.85631e+06
3.79499e+06
3.73695e+06
3.68195e+06
3.62984e+06
3.58045e+06
3.53366e+06
3.48934e+06
3.44737e+06
3.40763e+06
3.37001e+06
3.33441e+06
3.30073e+06
3.26887e+06
3.23873e+06
3.21022e+06
3.98535e+06
3.92204e+06
3.85771e+06
3.79656e+06
3.73869e+06
3.68388e+06
3.63195e+06
3.58276e+06
3.53617e+06
3.49205e+06
3.45028e+06
3.41074e+06
3.37332e+06
3.3379e+06
3.30439e+06
3.27268e+06
3.24267e+06
3.21428e+06
3.9858e+06
3.92282e+06
3.85866e+06
3.79766e+06
3.73993e+06
3.68526e+06
3.63347e+06
3.58442e+06
3.53798e+06
3.494e+06
3.45237e+06
3.41296e+06
3.37567e+06
3.34037e+06
3.30697e+06
3.27537e+06
3.24546e+06
3.21715e+06
3.98618e+06
3.92332e+06
3.85931e+06
3.79843e+06
3.7408e+06
3.68623e+06
3.63454e+06
3.58559e+06
3.53925e+06
3.49537e+06
3.45384e+06
3.41452e+06
3.37732e+06
3.34211e+06
3.30879e+06
3.27725e+06
3.2474e+06
3.21915e+06
3.98638e+06
3.92363e+06
3.85973e+06
3.79895e+06
3.7414e+06
3.6869e+06
3.63528e+06
3.58641e+06
3.54013e+06
3.49632e+06
3.45485e+06
3.4156e+06
3.37845e+06
3.3433e+06
3.31003e+06
3.27854e+06
3.24874e+06
3.22052e+06
3.98629e+06
3.92379e+06
3.86e+06
3.79929e+06
3.7418e+06
3.68735e+06
3.63578e+06
3.58695e+06
3.54072e+06
3.49695e+06
3.45553e+06
3.41632e+06
3.37922e+06
3.3441e+06
3.31086e+06
3.27941e+06
3.24963e+06
3.22143e+06
3.98622e+06
3.92388e+06
3.86017e+06
3.7995e+06
3.74206e+06
3.68764e+06
3.6361e+06
3.5873e+06
3.5411e+06
3.49736e+06
3.45597e+06
3.41679e+06
3.37971e+06
3.34461e+06
3.3114e+06
3.27996e+06
3.2502e+06
3.22203e+06
3.98621e+06
3.92393e+06
3.86027e+06
3.79964e+06
3.74221e+06
3.68782e+06
3.6363e+06
3.58752e+06
3.54133e+06
3.49761e+06
3.45623e+06
3.41707e+06
3.38001e+06
3.34493e+06
3.31173e+06
3.2803e+06
3.25055e+06
3.22238e+06
3.98621e+06
3.92396e+06
3.86032e+06
3.79971e+06
3.74229e+06
3.68791e+06
3.6364e+06
3.58763e+06
3.54146e+06
3.49775e+06
3.45638e+06
3.41722e+06
3.38017e+06
3.34509e+06
3.3119e+06
3.28048e+06
3.25074e+06
3.22257e+06
3.98621e+06
3.92397e+06
3.86034e+06
3.79973e+06
3.74233e+06
3.68795e+06
3.63645e+06
3.58768e+06
3.54151e+06
3.4978e+06
3.45644e+06
3.41728e+06
3.38023e+06
3.34516e+06
3.31197e+06
3.28056e+06
3.25081e+06
3.22265e+06
2.57686e+06
2.57666e+06
2.57624e+06
2.57561e+06
2.57477e+06
2.5737e+06
2.57241e+06
2.57089e+06
2.56914e+06
2.56716e+06
2.56494e+06
2.56248e+06
2.55978e+06
2.55684e+06
2.55365e+06
2.55022e+06
2.54655e+06
2.54263e+06
2.53847e+06
2.53406e+06
2.52941e+06
2.52451e+06
2.51937e+06
2.51399e+06
2.50837e+06
2.50251e+06
2.49642e+06
2.4901e+06
2.48354e+06
2.47675e+06
2.46974e+06
2.46251e+06
2.45505e+06
2.44738e+06
2.4395e+06
2.4314e+06
2.4231e+06
2.41459e+06
2.40588e+06
2.39697e+06
2.38787e+06
2.37857e+06
2.36909e+06
2.35943e+06
2.34958e+06
2.33955e+06
2.32936e+06
2.31899e+06
2.30845e+06
2.29775e+06
2.28688e+06
2.27586e+06
2.26468e+06
2.25335e+06
2.24188e+06
2.23025e+06
2.21848e+06
2.20658e+06
2.19453e+06
2.18235e+06
2.17004e+06
2.1576e+06
2.14504e+06
2.13235e+06
2.11954e+06
2.10661e+06
2.09357e+06
2.08041e+06
2.06714e+06
2.05376e+06
2.04028e+06
2.02669e+06
2.013e+06
1.9992e+06
1.98531e+06
1.97132e+06
1.95724e+06
1.94307e+06
1.9288e+06
1.91445e+06
1.90001e+06
1.88548e+06
1.87087e+06
1.85618e+06
1.84141e+06
1.82657e+06
1.81164e+06
1.79664e+06
1.78157e+06
1.76642e+06
1.7512e+06
1.73592e+06
1.72057e+06
1.70515e+06
1.68967e+06
1.67413e+06
1.65853e+06
1.64287e+06
1.62715e+06
1.61137e+06
1.59554e+06
1.57966e+06
1.56372e+06
1.54774e+06
1.5317e+06
1.51562e+06
1.49949e+06
1.48332e+06
1.46711e+06
1.45085e+06
1.43455e+06
1.41822e+06
1.40185e+06
1.38544e+06
1.369e+06
1.35253e+06
1.33602e+06
1.31949e+06
1.30293e+06
1.28635e+06
1.26974e+06
1.2531e+06
1.23645e+06
1.21978e+06
1.20309e+06
1.18639e+06
1.16967e+06
1.15294e+06
1.1362e+06
1.11945e+06
1.1027e+06
1.08595e+06
1.06919e+06
1.05243e+06
1.03568e+06
1.01893e+06
1.00219e+06
985454
968733
952027
935337
918667
902018
885393
868796
852228
835692
819191
802728
786307
769929
753598
737317
721089
704918
688807
672759
656778
640867
625031
609272
593595
578005
562504
547097
531790
516586
501491
486510
471649
456914
442312
427851
413540
399389
385414
371633
358075
344786
331871
2.57779e+06
2.57758e+06
2.57717e+06
2.57654e+06
2.57569e+06
2.57461e+06
2.57332e+06
2.57179e+06
2.57003e+06
2.56803e+06
2.5658e+06
2.56333e+06
2.56061e+06
2.55766e+06
2.55446e+06
2.55101e+06
2.54732e+06
2.54338e+06
2.5392e+06
2.53477e+06
2.5301e+06
2.52518e+06
2.52003e+06
2.51463e+06
2.50899e+06
2.50311e+06
2.497e+06
2.49065e+06
2.48408e+06
2.47727e+06
2.47024e+06
2.46299e+06
2.45551e+06
2.44782e+06
2.43992e+06
2.43181e+06
2.42349e+06
2.41496e+06
2.40623e+06
2.39731e+06
2.38819e+06
2.37888e+06
2.36939e+06
2.35971e+06
2.34985e+06
2.33981e+06
2.3296e+06
2.31922e+06
2.30867e+06
2.29796e+06
2.28708e+06
2.27605e+06
2.26486e+06
2.25353e+06
2.24204e+06
2.23041e+06
2.21863e+06
2.20671e+06
2.19466e+06
2.18248e+06
2.17016e+06
2.15771e+06
2.14514e+06
2.13245e+06
2.11963e+06
2.1067e+06
2.09365e+06
2.08049e+06
2.06721e+06
2.05383e+06
2.04034e+06
2.02675e+06
2.01305e+06
1.99926e+06
1.98536e+06
1.97137e+06
1.95729e+06
1.94311e+06
1.92884e+06
1.91449e+06
1.90004e+06
1.88552e+06
1.87091e+06
1.85621e+06
1.84144e+06
1.82659e+06
1.81166e+06
1.79666e+06
1.78159e+06
1.76644e+06
1.75122e+06
1.73594e+06
1.72058e+06
1.70517e+06
1.68969e+06
1.67414e+06
1.65854e+06
1.64288e+06
1.62716e+06
1.61138e+06
1.59555e+06
1.57966e+06
1.56373e+06
1.54774e+06
1.53171e+06
1.51563e+06
1.4995e+06
1.48333e+06
1.46711e+06
1.45085e+06
1.43456e+06
1.41822e+06
1.40185e+06
1.38544e+06
1.369e+06
1.35253e+06
1.33603e+06
1.31949e+06
1.30293e+06
1.28635e+06
1.26974e+06
1.25311e+06
1.23645e+06
1.21978e+06
1.20309e+06
1.18639e+06
1.16967e+06
1.15294e+06
1.1362e+06
1.11945e+06
1.1027e+06
1.08595e+06
1.06919e+06
1.05243e+06
1.03568e+06
1.01893e+06
1.00219e+06
985454
968734
952027
935338
918667
902018
885394
868796
852228
835692
819191
802728
786307
769929
753598
737317
721089
704918
688807
672759
656778
640867
625031
609272
593595
578004
562503
547097
531789
516585
501490
486509
471647
456912
442309
427847
413534
399382
385403
371617
358050
344741
331765
2.57966e+06
2.57945e+06
2.57903e+06
2.57839e+06
2.57753e+06
2.57644e+06
2.57513e+06
2.57358e+06
2.5718e+06
2.56978e+06
2.56752e+06
2.56502e+06
2.56228e+06
2.5593e+06
2.55606e+06
2.55258e+06
2.54886e+06
2.54489e+06
2.54067e+06
2.5362e+06
2.53149e+06
2.52653e+06
2.52134e+06
2.5159e+06
2.51022e+06
2.5043e+06
2.49815e+06
2.49176e+06
2.48515e+06
2.4783e+06
2.47123e+06
2.46394e+06
2.45643e+06
2.44871e+06
2.44077e+06
2.43262e+06
2.42426e+06
2.4157e+06
2.40695e+06
2.39799e+06
2.38884e+06
2.37951e+06
2.36998e+06
2.36028e+06
2.35039e+06
2.34033e+06
2.33009e+06
2.31969e+06
2.30911e+06
2.29838e+06
2.28748e+06
2.27643e+06
2.26522e+06
2.25387e+06
2.24236e+06
2.23071e+06
2.21892e+06
2.20699e+06
2.19492e+06
2.18272e+06
2.17039e+06
2.15793e+06
2.14535e+06
2.13264e+06
2.11982e+06
2.10687e+06
2.09381e+06
2.08064e+06
2.06736e+06
2.05397e+06
2.04047e+06
2.02687e+06
2.01317e+06
1.99936e+06
1.98546e+06
1.97147e+06
1.95738e+06
1.94319e+06
1.92892e+06
1.91456e+06
1.90011e+06
1.88558e+06
1.87097e+06
1.85627e+06
1.84149e+06
1.82664e+06
1.81171e+06
1.7967e+06
1.78163e+06
1.76648e+06
1.75126e+06
1.73597e+06
1.72061e+06
1.7052e+06
1.68971e+06
1.67417e+06
1.65856e+06
1.6429e+06
1.62718e+06
1.6114e+06
1.59556e+06
1.57968e+06
1.56374e+06
1.54776e+06
1.53172e+06
1.51564e+06
1.49951e+06
1.48333e+06
1.46712e+06
1.45086e+06
1.43456e+06
1.41823e+06
1.40186e+06
1.38545e+06
1.36901e+06
1.35254e+06
1.33603e+06
1.3195e+06
1.30294e+06
1.28635e+06
1.26974e+06
1.25311e+06
1.23645e+06
1.21978e+06
1.20309e+06
1.18639e+06
1.16967e+06
1.15294e+06
1.1362e+06
1.11946e+06
1.1027e+06
1.08595e+06
1.06919e+06
1.05243e+06
1.03568e+06
1.01893e+06
1.00219e+06
985455
968734
952028
935338
918667
902018
885394
868796
852228
835692
819191
802729
786307
769929
753598
737317
721089
704918
688807
672759
656778
640867
625030
609272
593595
578004
562502
547096
531788
516584
501488
486506
471643
456907
442302
427838
413522
399366
385382
371586
358002
344660
331600
2.58248e+06
2.58226e+06
2.58183e+06
2.58118e+06
2.5803e+06
2.57919e+06
2.57785e+06
2.57628e+06
2.57447e+06
2.57242e+06
2.57012e+06
2.56758e+06
2.56479e+06
2.56176e+06
2.55848e+06
2.55495e+06
2.55117e+06
2.54714e+06
2.54287e+06
2.53835e+06
2.53358e+06
2.52856e+06
2.5233e+06
2.5178e+06
2.51206e+06
2.50609e+06
2.49987e+06
2.49343e+06
2.48675e+06
2.47985e+06
2.47272e+06
2.46538e+06
2.45781e+06
2.45003e+06
2.44204e+06
2.43383e+06
2.42543e+06
2.41682e+06
2.40801e+06
2.39901e+06
2.38982e+06
2.38044e+06
2.37087e+06
2.36112e+06
2.3512e+06
2.34109e+06
2.33082e+06
2.32038e+06
2.30978e+06
2.29901e+06
2.28808e+06
2.277e+06
2.26576e+06
2.25438e+06
2.24284e+06
2.23117e+06
2.21935e+06
2.2074e+06
2.19531e+06
2.18309e+06
2.17074e+06
2.15826e+06
2.14566e+06
2.13293e+06
2.12009e+06
2.10713e+06
2.09406e+06
2.08087e+06
2.06758e+06
2.05417e+06
2.04066e+06
2.02705e+06
2.01334e+06
1.99952e+06
1.98561e+06
1.97161e+06
1.95751e+06
1.94332e+06
1.92904e+06
1.91467e+06
1.90022e+06
1.88568e+06
1.87106e+06
1.85636e+06
1.84157e+06
1.82671e+06
1.81178e+06
1.79677e+06
1.78169e+06
1.76653e+06
1.75131e+06
1.73602e+06
1.72066e+06
1.70524e+06
1.68975e+06
1.6742e+06
1.65859e+06
1.64293e+06
1.6272e+06
1.61142e+06
1.59559e+06
1.5797e+06
1.56376e+06
1.54777e+06
1.53174e+06
1.51565e+06
1.49952e+06
1.48335e+06
1.46713e+06
1.45087e+06
1.43458e+06
1.41824e+06
1.40187e+06
1.38546e+06
1.36902e+06
1.35254e+06
1.33604e+06
1.3195e+06
1.30294e+06
1.28636e+06
1.26974e+06
1.25311e+06
1.23646e+06
1.21979e+06
1.2031e+06
1.18639e+06
1.16967e+06
1.15294e+06
1.1362e+06
1.11946e+06
1.1027e+06
1.08595e+06
1.06919e+06
1.05243e+06
1.03568e+06
1.01893e+06
1.00219e+06
985455
968735
952028
935338
918668
902019
885394
868797
852228
835692
819192
802729
786307
769929
753598
737317
721089
704918
688807
672759
656777
640867
625030
609271
593594
578002
562501
547094
531786
516581
501484
486501
471638
456899
442292
427825
413506
399343
385351
371542
357935
344552
331409
2.58626e+06
2.58604e+06
2.58559e+06
2.58492e+06
2.58402e+06
2.58288e+06
2.58151e+06
2.5799e+06
2.57805e+06
2.57595e+06
2.5736e+06
2.571e+06
2.56816e+06
2.56506e+06
2.56172e+06
2.55812e+06
2.55427e+06
2.55017e+06
2.54581e+06
2.54121e+06
2.53636e+06
2.53127e+06
2.52593e+06
2.52035e+06
2.51453e+06
2.50847e+06
2.50217e+06
2.49565e+06
2.48889e+06
2.48191e+06
2.47471e+06
2.46728e+06
2.45964e+06
2.45178e+06
2.44372e+06
2.43545e+06
2.42697e+06
2.4183e+06
2.40943e+06
2.40036e+06
2.39111e+06
2.38167e+06
2.37205e+06
2.36224e+06
2.35227e+06
2.34211e+06
2.33179e+06
2.3213e+06
2.31065e+06
2.29984e+06
2.28887e+06
2.27775e+06
2.26647e+06
2.25505e+06
2.24348e+06
2.23178e+06
2.21993e+06
2.20794e+06
2.19582e+06
2.18357e+06
2.1712e+06
2.15869e+06
2.14607e+06
2.13332e+06
2.12046e+06
2.10747e+06
2.09438e+06
2.08118e+06
2.06786e+06
2.05444e+06
2.04092e+06
2.02729e+06
2.01356e+06
1.99974e+06
1.98581e+06
1.97179e+06
1.95768e+06
1.94348e+06
1.92919e+06
1.91482e+06
1.90035e+06
1.88581e+06
1.87118e+06
1.85647e+06
1.84168e+06
1.82681e+06
1.81187e+06
1.79685e+06
1.78177e+06
1.76661e+06
1.75138e+06
1.73608e+06
1.72072e+06
1.70529e+06
1.6898e+06
1.67425e+06
1.65864e+06
1.64297e+06
1.62724e+06
1.61146e+06
1.59562e+06
1.57973e+06
1.56379e+06
1.5478e+06
1.53176e+06
1.51567e+06
1.49954e+06
1.48337e+06
1.46715e+06
1.45089e+06
1.43459e+06
1.41825e+06
1.40188e+06
1.38547e+06
1.36903e+06
1.35255e+06
1.33604e+06
1.31951e+06
1.30295e+06
1.28636e+06
1.26975e+06
1.25312e+06
1.23646e+06
1.21979e+06
1.2031e+06
1.18639e+06
1.16968e+06
1.15295e+06
1.13621e+06
1.11946e+06
1.10271e+06
1.08595e+06
1.06919e+06
1.05244e+06
1.03568e+06
1.01893e+06
1.00219e+06
985456
968736
952029
935339
918669
902020
885395
868797
852229
835693
819192
802729
786307
769929
753598
737317
721089
704918
688807
672758
656777
640866
625029
609270
593593
578001
562499
547092
531783
516577
501479
486495
471630
456889
442280
427809
413484
399314
385311
371486
357853
344426
331208
2.59104e+06
2.5908e+06
2.59034e+06
2.58964e+06
2.58871e+06
2.58754e+06
2.58613e+06
2.58446e+06
2.58255e+06
2.58039e+06
2.57798e+06
2.57531e+06
2.57239e+06
2.56921e+06
2.56578e+06
2.56209e+06
2.55815e+06
2.55395e+06
2.5495e+06
2.5448e+06
2.53985e+06
2.53466e+06
2.52921e+06
2.52353e+06
2.5176e+06
2.51144e+06
2.50504e+06
2.49842e+06
2.49156e+06
2.48448e+06
2.47718e+06
2.46965e+06
2.46192e+06
2.45397e+06
2.44582e+06
2.43746e+06
2.4289e+06
2.42014e+06
2.41119e+06
2.40205e+06
2.39272e+06
2.3832e+06
2.37351e+06
2.36364e+06
2.35359e+06
2.34338e+06
2.333e+06
2.32245e+06
2.31174e+06
2.30088e+06
2.28985e+06
2.27868e+06
2.26736e+06
2.25589e+06
2.24428e+06
2.23253e+06
2.22064e+06
2.20862e+06
2.19646e+06
2.18418e+06
2.17177e+06
2.15923e+06
2.14657e+06
2.1338e+06
2.12091e+06
2.1079e+06
2.09478e+06
2.08155e+06
2.06822e+06
2.05478e+06
2.04123e+06
2.02759e+06
2.01384e+06
2e+06
1.98606e+06
1.97203e+06
1.9579e+06
1.94369e+06
1.92939e+06
1.915e+06
1.90052e+06
1.88596e+06
1.87133e+06
1.85661e+06
1.84181e+06
1.82693e+06
1.81198e+06
1.79696e+06
1.78186e+06
1.7667e+06
1.75146e+06
1.73616e+06
1.72079e+06
1.70536e+06
1.68986e+06
1.67431e+06
1.65869e+06
1.64302e+06
1.62729e+06
1.6115e+06
1.59566e+06
1.57977e+06
1.56382e+06
1.54783e+06
1.53179e+06
1.5157e+06
1.49957e+06
1.48339e+06
1.46717e+06
1.45091e+06
1.43461e+06
1.41827e+06
1.40189e+06
1.38548e+06
1.36904e+06
1.35256e+06
1.33605e+06
1.31952e+06
1.30296e+06
1.28637e+06
1.26976e+06
1.25312e+06
1.23647e+06
1.2198e+06
1.2031e+06
1.1864e+06
1.16968e+06
1.15295e+06
1.13621e+06
1.11946e+06
1.10271e+06
1.08595e+06
1.06919e+06
1.05244e+06
1.03568e+06
1.01893e+06
1.00219e+06
985457
968737
952030
935340
918669
902020
885396
868798
852229
835693
819193
802730
786308
769930
753598
737317
721089
704918
688807
672758
656777
640866
625029
609269
593591
577999
562497
547089
531779
516573
501474
486488
471621
456877
442264
427789
413457
399279
385264
371420
357760
344290
331004
2.59683e+06
2.59658e+06
2.5961e+06
2.59537e+06
2.5944e+06
2.59319e+06
2.59172e+06
2.58999e+06
2.58801e+06
2.58578e+06
2.58328e+06
2.58052e+06
2.5775e+06
2.57423e+06
2.57069e+06
2.56689e+06
2.56283e+06
2.55852e+06
2.55395e+06
2.54912e+06
2.54405e+06
2.53873e+06
2.53316e+06
2.52734e+06
2.52129e+06
2.515e+06
2.50848e+06
2.50173e+06
2.49475e+06
2.48755e+06
2.48013e+06
2.47249e+06
2.46464e+06
2.45658e+06
2.44832e+06
2.43986e+06
2.43119e+06
2.42234e+06
2.41329e+06
2.40405e+06
2.39463e+06
2.38503e+06
2.37525e+06
2.3653e+06
2.35518e+06
2.34489e+06
2.33443e+06
2.32381e+06
2.31304e+06
2.30211e+06
2.29102e+06
2.27979e+06
2.26841e+06
2.25689e+06
2.24522e+06
2.23342e+06
2.22149e+06
2.20942e+06
2.19722e+06
2.18489e+06
2.17244e+06
2.15987e+06
2.14718e+06
2.13437e+06
2.12144e+06
2.10841e+06
2.09526e+06
2.082e+06
2.06864e+06
2.05518e+06
2.04161e+06
2.02794e+06
2.01417e+06
2.00031e+06
1.98635e+06
1.9723e+06
1.95816e+06
1.94393e+06
1.92961e+06
1.91521e+06
1.90072e+06
1.88615e+06
1.8715e+06
1.85677e+06
1.84196e+06
1.82708e+06
1.81212e+06
1.79709e+06
1.78198e+06
1.76681e+06
1.75156e+06
1.73625e+06
1.72088e+06
1.70544e+06
1.68994e+06
1.67438e+06
1.65876e+06
1.64308e+06
1.62734e+06
1.61155e+06
1.59571e+06
1.57981e+06
1.56386e+06
1.54787e+06
1.53182e+06
1.51573e+06
1.49959e+06
1.48341e+06
1.46719e+06
1.45093e+06
1.43463e+06
1.41829e+06
1.40191e+06
1.3855e+06
1.36905e+06
1.35257e+06
1.33607e+06
1.31953e+06
1.30297e+06
1.28638e+06
1.26977e+06
1.25313e+06
1.23648e+06
1.2198e+06
1.20311e+06
1.1864e+06
1.16968e+06
1.15295e+06
1.13621e+06
1.11947e+06
1.10271e+06
1.08596e+06
1.0692e+06
1.05244e+06
1.03568e+06
1.01893e+06
1.00219e+06
985459
968738
952031
935341
918670
902021
885396
868798
852230
835694
819193
802730
786308
769930
753599
737317
721090
704918
688806
672758
656776
640865
625028
609268
593590
577998
562495
547086
531775
516567
501467
486479
471610
456863
442246
427765
413427
399239
385210
371348
357659
344148
330804
2.60369e+06
2.60342e+06
2.60291e+06
2.60215e+06
2.60113e+06
2.59986e+06
2.59832e+06
2.59652e+06
2.59446e+06
2.59212e+06
2.58952e+06
2.58666e+06
2.58352e+06
2.58012e+06
2.57645e+06
2.57252e+06
2.56832e+06
2.56386e+06
2.55915e+06
2.55418e+06
2.54895e+06
2.54348e+06
2.53776e+06
2.5318e+06
2.52559e+06
2.51916e+06
2.51249e+06
2.50559e+06
2.49846e+06
2.49112e+06
2.48356e+06
2.47579e+06
2.4678e+06
2.45961e+06
2.45122e+06
2.44264e+06
2.43385e+06
2.42488e+06
2.41572e+06
2.40637e+06
2.39685e+06
2.38714e+06
2.37727e+06
2.36722e+06
2.35701e+06
2.34663e+06
2.33609e+06
2.32539e+06
2.31454e+06
2.30353e+06
2.29238e+06
2.28107e+06
2.26963e+06
2.25804e+06
2.24632e+06
2.23446e+06
2.22246e+06
2.21034e+06
2.19809e+06
2.18572e+06
2.17322e+06
2.16061e+06
2.14788e+06
2.13503e+06
2.12206e+06
2.10899e+06
2.09581e+06
2.08252e+06
2.06913e+06
2.05564e+06
2.04204e+06
2.02835e+06
2.01456e+06
2.00067e+06
1.98669e+06
1.97262e+06
1.95846e+06
1.94421e+06
1.92988e+06
1.91546e+06
1.90096e+06
1.88637e+06
1.87171e+06
1.85696e+06
1.84214e+06
1.82724e+06
1.81227e+06
1.79723e+06
1.78212e+06
1.76693e+06
1.75168e+06
1.73636e+06
1.72098e+06
1.70553e+06
1.69003e+06
1.67446e+06
1.65883e+06
1.64315e+06
1.62741e+06
1.61161e+06
1.59576e+06
1.57986e+06
1.56391e+06
1.54791e+06
1.53186e+06
1.51577e+06
1.49963e+06
1.48344e+06
1.46722e+06
1.45095e+06
1.43465e+06
1.41831e+06
1.40193e+06
1.38551e+06
1.36907e+06
1.35259e+06
1.33608e+06
1.31954e+06
1.30298e+06
1.28639e+06
1.26977e+06
1.25314e+06
1.23648e+06
1.21981e+06
1.20312e+06
1.18641e+06
1.16969e+06
1.15296e+06
1.13622e+06
1.11947e+06
1.10272e+06
1.08596e+06
1.0692e+06
1.05244e+06
1.03569e+06
1.01894e+06
1.00219e+06
985461
968739
952033
935342
918671
902022
885397
868799
852231
835695
819194
802731
786309
769930
753599
737318
721090
704918
688806
672758
656776
640864
625027
609267
593588
577995
562492
547082
531771
516561
501460
486470
471598
456848
442226
427740
413394
399196
385152
371270
357554
344004
330610
2.61165e+06
2.61137e+06
2.61083e+06
2.61002e+06
2.60894e+06
2.6076e+06
2.60598e+06
2.60409e+06
2.60192e+06
2.59947e+06
2.59674e+06
2.59374e+06
2.59047e+06
2.58691e+06
2.58309e+06
2.579e+06
2.57463e+06
2.57001e+06
2.56512e+06
2.55997e+06
2.55457e+06
2.54892e+06
2.54302e+06
2.53688e+06
2.5305e+06
2.52389e+06
2.51705e+06
2.50998e+06
2.50269e+06
2.49518e+06
2.48746e+06
2.47953e+06
2.47139e+06
2.46305e+06
2.45452e+06
2.44579e+06
2.43687e+06
2.42776e+06
2.41847e+06
2.409e+06
2.39935e+06
2.38954e+06
2.37955e+06
2.36939e+06
2.35908e+06
2.3486e+06
2.33796e+06
2.32717e+06
2.31623e+06
2.30514e+06
2.2939e+06
2.28252e+06
2.271e+06
2.25934e+06
2.24755e+06
2.23562e+06
2.22357e+06
2.21139e+06
2.19908e+06
2.18665e+06
2.17411e+06
2.16144e+06
2.14866e+06
2.13577e+06
2.12277e+06
2.10965e+06
2.09643e+06
2.08311e+06
2.06968e+06
2.05616e+06
2.04253e+06
2.02881e+06
2.01499e+06
2.00108e+06
1.98707e+06
1.97298e+06
1.9588e+06
1.94453e+06
1.93018e+06
1.91574e+06
1.90122e+06
1.88662e+06
1.87194e+06
1.85718e+06
1.84234e+06
1.82743e+06
1.81245e+06
1.79739e+06
1.78227e+06
1.76707e+06
1.75181e+06
1.73648e+06
1.72109e+06
1.70564e+06
1.69012e+06
1.67455e+06
1.65891e+06
1.64322e+06
1.62748e+06
1.61168e+06
1.59582e+06
1.57992e+06
1.56396e+06
1.54796e+06
1.53191e+06
1.51581e+06
1.49966e+06
1.48348e+06
1.46725e+06
1.45098e+06
1.43468e+06
1.41833e+06
1.40195e+06
1.38553e+06
1.36909e+06
1.35261e+06
1.3361e+06
1.31956e+06
1.30299e+06
1.2864e+06
1.26979e+06
1.25315e+06
1.23649e+06
1.21982e+06
1.20312e+06
1.18642e+06
1.1697e+06
1.15296e+06
1.13622e+06
1.11947e+06
1.10272e+06
1.08596e+06
1.0692e+06
1.05244e+06
1.03569e+06
1.01894e+06
1.0022e+06
985462
968741
952034
935344
918673
902024
885398
868800
852232
835696
819195
802731
786309
769931
753599
737318
721090
704918
688806
672758
656776
640864
625026
609265
593587
577993
562489
547078
531766
516555
501451
486460
471584
456831
442205
427712
413358
399149
385090
371188
357446
343860
330423
2.62079e+06
2.62048e+06
2.6199e+06
2.61904e+06
2.61789e+06
2.61646e+06
2.61474e+06
2.61273e+06
2.61044e+06
2.60785e+06
2.60497e+06
2.60181e+06
2.59836e+06
2.59463e+06
2.59063e+06
2.58634e+06
2.58178e+06
2.57695e+06
2.57186e+06
2.56651e+06
2.56091e+06
2.55505e+06
2.54894e+06
2.5426e+06
2.53602e+06
2.5292e+06
2.52216e+06
2.5149e+06
2.50742e+06
2.49972e+06
2.49182e+06
2.48371e+06
2.4754e+06
2.46689e+06
2.45819e+06
2.4493e+06
2.44023e+06
2.43097e+06
2.42153e+06
2.41193e+06
2.40215e+06
2.3922e+06
2.38209e+06
2.37181e+06
2.36138e+06
2.35079e+06
2.34005e+06
2.32916e+06
2.31812e+06
2.30693e+06
2.29561e+06
2.28414e+06
2.27253e+06
2.26079e+06
2.24892e+06
2.23692e+06
2.2248e+06
2.21255e+06
2.20018e+06
2.18769e+06
2.17509e+06
2.16237e+06
2.14954e+06
2.13659e+06
2.12354e+06
2.11039e+06
2.09712e+06
2.08376e+06
2.0703e+06
2.05673e+06
2.04307e+06
2.02932e+06
2.01547e+06
2.00153e+06
1.9875e+06
1.97338e+06
1.95917e+06
1.94488e+06
1.93051e+06
1.91605e+06
1.90151e+06
1.88689e+06
1.87219e+06
1.85742e+06
1.84257e+06
1.82764e+06
1.81265e+06
1.79758e+06
1.78244e+06
1.76723e+06
1.75196e+06
1.73662e+06
1.72122e+06
1.70576e+06
1.69023e+06
1.67465e+06
1.65901e+06
1.64331e+06
1.62756e+06
1.61175e+06
1.59589e+06
1.57998e+06
1.56402e+06
1.54801e+06
1.53195e+06
1.51585e+06
1.49971e+06
1.48352e+06
1.46729e+06
1.45102e+06
1.43471e+06
1.41836e+06
1.40198e+06
1.38556e+06
1.36911e+06
1.35262e+06
1.33611e+06
1.31957e+06
1.30301e+06
1.28641e+06
1.2698e+06
1.25316e+06
1.2365e+06
1.21982e+06
1.20313e+06
1.18642e+06
1.1697e+06
1.15297e+06
1.13623e+06
1.11948e+06
1.10272e+06
1.08597e+06
1.06921e+06
1.05245e+06
1.03569e+06
1.01894e+06
1.0022e+06
985464
968743
952036
935345
918674
902025
885400
868802
852233
835697
819195
802732
786310
769931
753600
737318
721090
704918
688806
672757
656775
640863
625025
609264
593585
577990
562486
547074
531760
516548
501443
486448
471570
456813
442182
427682
413319
399099
385027
371105
357337
343720
330243
2.63117e+06
2.63083e+06
2.6302e+06
2.62927e+06
2.62804e+06
2.62651e+06
2.62467e+06
2.62252e+06
2.62007e+06
2.61731e+06
2.61426e+06
2.6109e+06
2.60725e+06
2.60331e+06
2.59908e+06
2.59457e+06
2.58978e+06
2.58472e+06
2.57939e+06
2.5738e+06
2.56795e+06
2.56186e+06
2.55552e+06
2.54894e+06
2.54213e+06
2.53509e+06
2.52782e+06
2.52034e+06
2.51264e+06
2.50474e+06
2.49663e+06
2.48832e+06
2.47981e+06
2.47111e+06
2.46223e+06
2.45316e+06
2.44392e+06
2.43449e+06
2.4249e+06
2.41514e+06
2.40521e+06
2.39512e+06
2.38487e+06
2.37447e+06
2.36391e+06
2.3532e+06
2.34234e+06
2.33133e+06
2.32019e+06
2.3089e+06
2.29747e+06
2.28591e+06
2.27421e+06
2.26238e+06
2.25043e+06
2.23835e+06
2.22614e+06
2.21382e+06
2.20138e+06
2.18883e+06
2.17616e+06
2.16338e+06
2.15049e+06
2.1375e+06
2.12439e+06
2.11119e+06
2.09788e+06
2.08447e+06
2.07097e+06
2.05736e+06
2.04367e+06
2.02988e+06
2.01599e+06
2.00202e+06
1.98796e+06
1.97382e+06
1.95959e+06
1.94527e+06
1.93087e+06
1.91639e+06
1.90183e+06
1.88719e+06
1.87248e+06
1.85768e+06
1.84282e+06
1.82787e+06
1.81286e+06
1.79778e+06
1.78262e+06
1.7674e+06
1.75212e+06
1.73677e+06
1.72136e+06
1.70588e+06
1.69035e+06
1.67476e+06
1.65911e+06
1.6434e+06
1.62764e+06
1.61183e+06
1.59597e+06
1.58005e+06
1.56408e+06
1.54807e+06
1.53201e+06
1.5159e+06
1.49975e+06
1.48356e+06
1.46732e+06
1.45105e+06
1.43474e+06
1.41839e+06
1.402e+06
1.38558e+06
1.36913e+06
1.35265e+06
1.33613e+06
1.31959e+06
1.30302e+06
1.28643e+06
1.26981e+06
1.25317e+06
1.23651e+06
1.21983e+06
1.20314e+06
1.18643e+06
1.16971e+06
1.15298e+06
1.13623e+06
1.11948e+06
1.10273e+06
1.08597e+06
1.06921e+06
1.05245e+06
1.03569e+06
1.01894e+06
1.0022e+06
985467
968745
952038
935347
918676
902026
885401
868803
852234
835698
819196
802733
786311
769932
753600
737319
721090
704918
688806
672757
656775
640862
625024
609263
593583
577988
562482
547070
531754
516541
501433
486437
471555
456794
442157
427651
413280
399049
384961
371021
357230
343583
330073
2.64288e+06
2.64251e+06
2.64182e+06
2.64081e+06
2.63947e+06
2.63781e+06
2.63582e+06
2.63351e+06
2.63087e+06
2.62791e+06
2.62464e+06
2.62105e+06
2.61716e+06
2.61296e+06
2.60847e+06
2.6037e+06
2.59864e+06
2.5933e+06
2.5877e+06
2.58184e+06
2.57572e+06
2.56935e+06
2.56274e+06
2.5559e+06
2.54882e+06
2.54153e+06
2.53401e+06
2.52628e+06
2.51834e+06
2.5102e+06
2.50186e+06
2.49333e+06
2.48461e+06
2.47571e+06
2.46662e+06
2.45736e+06
2.44793e+06
2.43832e+06
2.42855e+06
2.41862e+06
2.40853e+06
2.39829e+06
2.38789e+06
2.37734e+06
2.36664e+06
2.3558e+06
2.34481e+06
2.33369e+06
2.32242e+06
2.31102e+06
2.29949e+06
2.28782e+06
2.27602e+06
2.2641e+06
2.25205e+06
2.23989e+06
2.2276e+06
2.2152e+06
2.20269e+06
2.19006e+06
2.17732e+06
2.16448e+06
2.15153e+06
2.13847e+06
2.12531e+06
2.11206e+06
2.0987e+06
2.08524e+06
2.07169e+06
2.05805e+06
2.04431e+06
2.03048e+06
2.01656e+06
2.00256e+06
1.98847e+06
1.97429e+06
1.96003e+06
1.94569e+06
1.93127e+06
1.91676e+06
1.90218e+06
1.88752e+06
1.87278e+06
1.85797e+06
1.84308e+06
1.82812e+06
1.81309e+06
1.79799e+06
1.78282e+06
1.76759e+06
1.75229e+06
1.73693e+06
1.72151e+06
1.70602e+06
1.69048e+06
1.67488e+06
1.65922e+06
1.64351e+06
1.62774e+06
1.61192e+06
1.59605e+06
1.58012e+06
1.56415e+06
1.54813e+06
1.53207e+06
1.51596e+06
1.4998e+06
1.4836e+06
1.46737e+06
1.45109e+06
1.43477e+06
1.41842e+06
1.40203e+06
1.38561e+06
1.36915e+06
1.35267e+06
1.33615e+06
1.31961e+06
1.30304e+06
1.28644e+06
1.26982e+06
1.25318e+06
1.23652e+06
1.21985e+06
1.20315e+06
1.18644e+06
1.16972e+06
1.15298e+06
1.13624e+06
1.11949e+06
1.10273e+06
1.08597e+06
1.06921e+06
1.05245e+06
1.0357e+06
1.01895e+06
1.0022e+06
985469
968747