/*--------------------------------*- C++ -*----------------------------------*\
  =========                 |
  \\      /  F ield         | OpenFOAM: The Open Source CFD Toolbox
   \\    /   O peration     | Website:  https://openfoam.org
    \\  /    A nd           | Version:  7
     \\/     M anipulation  |
\*---------------------------------------------------------------------------*/
FoamFile
{
    version     2.0;
    format      ascii;
    class       volScalarField;
    location    "0.091";
    object      s;
}
// * * * * * * * * * * * * * * * * * * * * * * * * * * * * * * * * * * * * * //

dimensions      [0 0 0 0 0 0 0];

internalField   nonuniform List<scalar> 
12225
(
1
1
1
1
1
1
1
1
1
1
1
1
1
1
1
1
1
1
1
1
1
1
1
1
1
1
1
1
1
1
1
1
1
1
1
1
1
1
1
1
1
1
1
1
1
1
1
1
1
1
1
1
1
1
1
1
1
1
1
1
1
1
1
1
1
1
1
1
1
1
1
1
1
1
1
1
1
1
1
1
1
1
1
1
1
1
1
1
1
1
1
1
1
1
1
1
1
1
1
1
1
1
1
1
1
1
1
1
1
1
1
1
1
1
1
1
1
1
1
1
1
1
1
1
1
1
1
1
1
1
1
1
1
1
1
1
1
1
1
1
1
1
1
1
1
1
1
1
1
1
1
1
1
1
1
1
1
1
1
1
1
1
1
1
1
1
1
1
1
1
1
1
1
1
1
1
1
1
1
1
1
1
1
1
1
1
1
1
1
1
1
1
1
1
1
1
1
1
1
1
1
1
1
1
1
1
1
1
1
1
1
1
1
1
1
1
1
1
1
1
1
1
1
1
1
1
1
1
1
1
1
1
1
1
1
1
1
1
1
1
1
1
1
1
1
1
1
1
1
1
1
1
1
1
1
1
1
1
1
1
1
1
1
1
1
1
1
1
1
1
1
1
1
1
1
1
1
1
1
1
1
1
1
1
1
1
1
1
1
1
1
1
1
1
1
1
1
1
1
1
1
1
1
1
1
1
1
1
1
1
1
1
1
1
1
1
1
1
1
1
1
1
1
1
1
1
1
1
1
1
1
1
1
1
1
1
1
1
1
1
1
1
1
1
1
1
1
1
1
1
1
1
1
1
1
1
1
1
1
1
1
1
1
1
1
1
1
1
1
1
1
1
1
1
1
1
1
1
1
1
1
1
1
1
1
1
1
1
1
1
1
1
1
1
1
1
1
1
1
1
1
1
1
1
1
1
1
1
1
1
1
1
1
1
1
1
1
1
1
1
1
1
1
1
1
1
1
1
1
1
1
1
1
1
1
1
1
1
1
1
1
1
1
1
1
1
1
1
1
1
1
1
1
1
1
1
1
1
1
1
1
1
1
1
1
1
1
1
1
1
1
1
1
1
1
1
1
1
1
1
1
1
1
1
1
1
1
1
1
1
1
1
1
1
1
1
1
1
1
1
1
1
1
1
1
1
1
1
1
1
1
1
1
1
1
1
1
1
1
1
1
1
1
1
1
1
1
1
1
1
1
1
1
1
1
1
1
1
1
1
0.151934
0.154719
0.1675
0.180535
0.185718
0.191874
0.198669
0.203827
0.21938
0.243425
0.267693
0.294509
0.318605
0.335693
0.349584
0.364737
0.379569
0.392079
0.401374
0.407474
0.411528
0.414536
0.417243
0.419877
0.422036
0.422748
0.422728
0.42179
0.419532
0.416591
0.412977
0.410707
0.41038
0.411106
0.413784
0.41443
0.407684
0.373599
0.281724
0.215142
0.208151
0.221167
0.228697
0.228247
0.222764
0.203549
0.189974
0.188338
0.19762
0.205037
0.207933
0.204789
0.192423
0.17532
0.164282
0.1607
0.162041
0.1691
0.186258
0.236318
0.34354
0.41267
0.437017
0.439597
0.433737
0.423682
0.411674
0.397585
0.381164
0.34663
0.286116
0.260769
0.28096
0.317263
0.3295
0.351836
0.402056
0.559926
0.77914
0.862138
0.87335
0.875501
0.876714
0.877695
0.878725
0.879359
0.879776
0.880309
0.880755
0.880982
0.881172
0.881412
0.881792
0.882341
0.882615
0.882762
0.882927
0.883281
0.883869
0.88424
0.884831
0.885865
0.886732
0.887348
0.888112
0.888978
0.889708
0.890449
0.891414
0.892229
0.892815
0.893609
0.894381
0.895213
0.89595
0.896607
0.897361
0.898077
0.898668
0.899241
0.899662
0.899979
0.900176
0.90027
0.900311
0.900272
0.900067
0.899808
0.899201
0.89769
0.89491
0.891056
0.885455
0.879766
0.875811
0.870976
0.859814
0.840807
0.822516
0.805815
0.790066
0.766075
0.717815
0.632134
0.509213
0.36682
0.232529
0.12861
0.0620293
0.0262657
0.00988291
0.00334477
0.00102081
0.000281237
9.95904e-05
5.2212e-05
2.62682e-05
1.29091e-05
6.25708e-06
3.00937e-06
1.44483e-06
6.96319e-07
3.38225e-07
1.6586e-07
8.20366e-08
4.07999e-08
2.03145e-08
1.00796e-08
4.96272e-09
2.41611e-09
1.15977e-09
5.47741e-10
2.53958e-10
1.15421e-10
5.12713e-11
2.22111e-11
9.3505e-12
3.7525e-12
1.57516e-12
-7.30175e-13
0.153906
0.194622
0.268197
0.313084
0.331893
0.333584
0.327213
0.313301
0.286486
0.266245
0.260419
0.261202
0.26777
0.291416
0.328211
0.359456
0.384407
0.404687
0.420102
0.434217
0.44643
0.452682
0.454547
0.45512
0.454141
0.446166
0.427645
0.402835
0.373941
0.344205
0.337512
0.336736
0.337246
0.34023
0.34767
0.359849
0.374986
0.389746
0.40174
0.426823
0.476869
0.52855
0.54349
0.547171
0.548877
0.544332
0.525596
0.518826
0.51973
0.530672
0.537909
0.533512
0.506793
0.43775
0.366785
0.309474
0.247095
0.201786
0.196175
0.213089
0.28637
0.378683
0.423501
0.430066
0.406102
0.354025
0.316039
0.30562
0.324729
0.381953
0.451788
0.465257
0.468039
0.477357
0.501095
0.51045
0.541998
0.74302
0.855466
0.867593
0.868761
0.866803
0.863656
0.86039
0.856873
0.85295
0.849026
0.845168
0.841014
0.836783
0.83316
0.830066
0.827559
0.825849
0.82474
0.824345
0.824566
0.825919
0.828496
0.830863
0.834076
0.838529
0.842688
0.84689
0.85102
0.855354
0.859316
0.863283
0.867403
0.871191
0.874654
0.878242
0.881584
0.884897
0.888058
0.890917
0.893767
0.896721
0.899265
0.901926
0.904484
0.907035
0.909564
0.912074
0.91456
0.917024
0.919449
0.921824
0.924142
0.926396
0.928582
0.930706
0.932769
0.93476
0.936613
0.937921
0.938374
0.937893
0.934101
0.926146
0.919963
0.916769
0.914441
0.910459
0.902003
0.88701
0.860365
0.809087
0.735608
0.668327
0.632094
0.61934
0.604879
0.568408
0.479572
0.376573
0.285656
0.211764
0.153082
0.107587
0.073308
0.0483344
0.0308076
0.0189825
0.0113133
0.00652946
0.00365378
0.00198565
0.00104905
0.000539811
0.000270556
0.000132412
6.31307e-05
2.94577e-05
1.33459e-05
5.92738e-06
2.54692e-06
1.02418e-06
5.30855e-07
-8.63828e-07
0.281431
0.470238
0.530614
0.534748
0.530504
0.524247
0.517896
0.51332
0.51008
0.499993
0.477447
0.449004
0.417473
0.401883
0.402684
0.41069
0.436215
0.462258
0.474553
0.475137
0.467024
0.456021
0.424069
0.351972
0.339984
0.340398
0.338207
0.336087
0.337974
0.347747
0.352264
0.368413
0.391644
0.419845
0.457013
0.502976
0.560347
0.62943
0.703555
0.75914
0.787925
0.801753
0.809913
0.813894
0.814847
0.808991
0.808378
0.809954
0.812324
0.813966
0.811436
0.802696
0.790344
0.774141
0.746767
0.719765
0.686326
0.615412
0.430173
0.300829
0.274445
0.285559
0.360528
0.403606
0.388626
0.303819
0.239894
0.220263
0.2206
0.239112
0.33179
0.442093
0.469322
0.50375
0.587608
0.693706
0.783666
0.845254
0.858182
0.857651
0.844737
0.828855
0.809483
0.793107
0.776778
0.764158
0.750144
0.740147
0.729661
0.722007
0.714131
0.709129
0.705517
0.702617
0.701276
0.700788
0.701261
0.703256
0.705926
0.709156
0.714131
0.718745
0.724995
0.732176
0.739993
0.748028
0.756737
0.765694
0.774219
0.782547
0.791044
0.799362
0.807625
0.815827
0.823771
0.83137
0.838692
0.846073
0.852616
0.858988
0.864945
0.870642
0.876327
0.8821
0.887985
0.893952
0.899898
0.905674
0.911124
0.916116
0.920568
0.924469
0.927868
0.930845
0.933561
0.936563
0.94024
0.944256
0.947296
0.948144
0.946649
0.935793
0.914971
0.903754
0.899494
0.898746
0.900362
0.910672
0.923177
0.928095
0.930307
0.931435
0.931647
0.930079
0.921142
0.895262
0.871846
0.856091
0.83604
0.791823
0.681753
0.539435
0.407825
0.30032
0.217008
0.153584
0.10614
0.0715011
0.0468406
0.0298558
0.0184742
0.011136
0.00651045
0.00372285
0.00205975
0.00112214
0.000588917
0.000303174
0.000156891
6.12719e-05
0.591521
0.587394
0.568632
0.539369
0.511398
0.487664
0.481859
0.48685
0.500793
0.514227
0.517393
0.515946
0.510181
0.502418
0.498016
0.490661
0.487071
0.486385
0.481667
0.4654
0.414666
0.363278
0.340536
0.335536
0.346338
0.363579
0.386917
0.425278
0.481562
0.559042
0.632233
0.700233
0.764231
0.818073
0.864708
0.902033
0.931004
0.949492
0.958257
0.964725
0.969325
0.971616
0.97298
0.97361
0.973579
0.973167
0.971445
0.969815
0.967072
0.963208
0.957378
0.948073
0.934257
0.917085
0.892135
0.830753
0.784785
0.769945
0.749723
0.677413
0.461408
0.339459
0.32666
0.33172
0.329383
0.306795
0.25124
0.220529
0.215725
0.222191
0.25982
0.33723
0.389557
0.490069
0.689325
0.79998
0.836694
0.847068
0.842492
0.808592
0.770311
0.738458
0.718098
0.702538
0.688793
0.679899
0.670901
0.66522
0.659843
0.656459
0.654731
0.653973
0.653797
0.654811
0.656121
0.657939
0.659735
0.662385
0.664623
0.666937
0.669719
0.672046
0.674533
0.677343
0.680039
0.683014
0.685957
0.689191
0.69285
0.69663
0.700742
0.705142
0.70985
0.715033
0.720642
0.726662
0.733155
0.740551
0.74819
0.756395
0.765036
0.77417
0.784015
0.794805
0.806811
0.820401
0.83568
0.852311
0.869614
0.886241
0.900946
0.91294
0.922673
0.930094
0.934937
0.937331
0.93787
0.937906
0.939718
0.947752
0.957091
0.961445
0.961326
0.956067
0.932988
0.90907
0.899388
0.898093
0.899368
0.906409
0.923896
0.941973
0.957877
0.96906
0.974629
0.976256
0.976392
0.976074
0.974324
0.966895
0.947971
0.934095
0.919949
0.89088
0.814231
0.647969
0.48356
0.348176
0.24444
0.167571
0.111816
0.0727811
0.0460069
0.0284452
0.0170635
0.0100691
0.00576749
0.00322855
0.00182702
0.000840539
0.609567
0.574105
0.477357
0.403112
0.360593
0.339058
0.332798
0.336363
0.34836
0.375869
0.430664
0.48487
0.502923
0.505722
0.504042
0.494327
0.484441
0.468767
0.429397
0.390172
0.369575
0.364525
0.366327
0.407912
0.478334
0.584025
0.669386
0.774166
0.830279
0.885567
0.912121
0.942212
0.956625
0.971896
0.978947
0.983626
0.98669
0.988128
0.98917
0.99021
0.991103
0.992156
0.992926
0.99403
0.994627
0.995012
0.995181
0.994969
0.994339
0.993247
0.991386
0.988045
0.981826
0.969272
0.9391
0.848331
0.779538
0.759398
0.759481
0.759313
0.735078
0.618364
0.43316
0.360032
0.3372
0.318235
0.275965
0.24918
0.24601
0.249001
0.262347
0.302501
0.365813
0.549818
0.771573
0.831784
0.837369
0.831419
0.778587
0.721807
0.695891
0.674845
0.661608
0.653764
0.647761
0.645133
0.644071
0.644168
0.645189
0.646827
0.648534
0.650387
0.653894
0.656926
0.660587
0.665053
0.66863
0.672253
0.675299
0.677642
0.679717
0.681423
0.68246
0.683503
0.68414
0.685174
0.685971
0.686942
0.688192
0.689495
0.690966
0.692573
0.694312
0.696224
0.698328
0.700673
0.703296
0.706576
0.710147
0.714054
0.718175
0.722342
0.726704
0.731847
0.737768
0.744745
0.753831
0.766264
0.782969
0.803782
0.827992
0.853431
0.878001
0.90122
0.922639
0.938933
0.947091
0.949178
0.947108
0.942806
0.942821
0.948338
0.962702
0.968496
0.968317
0.962374
0.937792
0.912752
0.901432
0.898738
0.899711
0.906382
0.928854
0.950812
0.965088
0.975578
0.983672
0.988834
0.991026
0.991343
0.991059
0.989938
0.988301
0.985326
0.979101
0.966103
0.937356
0.858685
0.676782
0.497353
0.351346
0.241359
0.16144
0.105696
0.067508
0.0423579
0.0260635
0.0155651
0.00950696
0.00484684
0.595747
0.497551
0.387393
0.339113
0.313309
0.301542
0.295579
0.292923
0.293996
0.304804
0.349271
0.410236
0.461644
0.481888
0.475655
0.453762
0.430143
0.408828
0.39843
0.395048
0.406836
0.458642
0.563943
0.694048
0.79525
0.855548
0.910128
0.937897
0.959488
0.970896
0.978576
0.983
0.9854
0.987045
0.987654
0.987877
0.987895
0.987781
0.987888
0.988825
0.989835
0.991024
0.992721
0.994549
0.995907
0.997055
0.997877
0.998413
0.998701
0.998781
0.998548
0.997744
0.995171
0.986436
0.948982
0.836325
0.73185
0.707746
0.708309
0.721045
0.736352
0.727043
0.678357
0.527095
0.416503
0.363521
0.314026
0.2859
0.281664
0.284695
0.301079
0.337924
0.411598
0.637812
0.816299
0.832774
0.825541
0.771453
0.697807
0.666281
0.650669
0.641292
0.637023
0.635749
0.636762
0.637982
0.641204
0.644421
0.648336
0.654145
0.661487
0.670156
0.682115
0.694467
0.70579
0.715903
0.723017
0.72944
0.7341
0.737298
0.739538
0.740697
0.741284
0.740708
0.739141
0.737562
0.735128
0.73242
0.729493
0.726781
0.724237
0.721974
0.72003
0.718051
0.716262
0.714807
0.713818
0.713673
0.714403
0.716094
0.718661
0.721759
0.724988
0.72886
0.733277
0.737924
0.743468
0.751522
0.762676
0.777477
0.797572
0.820478
0.843795
0.865227
0.884588
0.90575
0.930318
0.95035
0.959304
0.960393
0.955966
0.949493
0.949366
0.955539
0.968896
0.972887
0.97188
0.962697
0.933165
0.912282
0.904873
0.904092
0.905642
0.914332
0.938304
0.959418
0.973908
0.983295
0.989304
0.993242
0.99556
0.996604
0.996864
0.996843
0.996576
0.995622
0.992946
0.985931
0.967989
0.918609
0.771337
0.57357
0.408871
0.28278
0.190897
0.126494
0.0829183
0.0525095
0.0342979
0.0189735
0.591588
0.470931
0.368219
0.32514
0.303417
0.294417
0.289272
0.286049
0.291605
0.31109
0.343507
0.37561
0.403686
0.415429
0.416816
0.416236
0.41637
0.416251
0.435697
0.491677
0.618862
0.738641
0.84309
0.893615
0.935321
0.954584
0.96772
0.97326
0.976337
0.977591
0.978007
0.97777
0.974898
0.972342
0.968474
0.965703
0.963203
0.962273
0.962213
0.964442
0.967751
0.971868
0.977825
0.983704
0.989375
0.993792
0.996649
0.998208
0.998949
0.999293
0.999415
0.999296
0.997969
0.990935
0.947913
0.818287
0.711164
0.687191
0.690516
0.700757
0.72596
0.733671
0.72743
0.697878
0.620173
0.500277
0.420474
0.381154
0.363772
0.361621
0.363969
0.377715
0.459479
0.72712
0.830518
0.82668
0.785662
0.6889
0.648371
0.632361
0.627232
0.626843
0.629254
0.632318
0.636763
0.639508
0.645572
0.653197
0.665501
0.683107
0.702933
0.719177
0.733581
0.744212
0.752109
0.756856
0.760321
0.762896
0.766133
0.768103
0.771628
0.773392
0.776454
0.778411
0.780417
0.781953
0.782979
0.783409
0.782975
0.781746
0.779681
0.776794
0.773674
0.770049
0.765921
0.761389
0.756766
0.752152
0.748018
0.744827
0.743127
0.743106
0.744397
0.746965
0.750735
0.754415
0.756445
0.758484
0.762958
0.773684
0.789352
0.810273
0.834702
0.859246
0.87964
0.894127
0.907683
0.92599
0.94852
0.964196
0.968973
0.968092
0.960989
0.957402
0.958453
0.966837
0.975258
0.976172
0.97321
0.956232
0.928698
0.916022
0.913396
0.914225
0.91953
0.937606
0.957748
0.972654
0.983131
0.989869
0.993958
0.996432
0.997905
0.998634
0.998862
0.998868
0.998736
0.998153
0.996281
0.990761
0.974838
0.927762
0.78368
0.588249
0.427118
0.300876
0.209221
0.139605
0.0965942
0.0574096
0.590738
0.463126
0.363985
0.322198
0.302142
0.294755
0.293376
0.296247
0.307241
0.328148
0.352809
0.378388
0.399313
0.409584
0.419043
0.430754
0.455312
0.508648
0.631483
0.755221
0.852199
0.907591
0.940553
0.956402
0.96429
0.967254
0.968221
0.968069
0.962279
0.953899
0.941319
0.931024
0.921008
0.914344
0.908714
0.906055
0.904824
0.904393
0.905694
0.908668
0.914216
0.92273
0.934777
0.950027
0.966166
0.97985
0.989473
0.995023
0.997761
0.999007
0.999435
0.999502
0.998846
0.992556
0.957029
0.824786
0.706764
0.676373
0.685137
0.705599
0.72839
0.739506
0.739715
0.733843
0.711926
0.651789
0.570176
0.490023
0.429018
0.401425
0.396483
0.409216
0.55166
0.793254
0.830308
0.806847
0.701326
0.639861
0.618538
0.612866
0.61347
0.621685
0.626957
0.632988
0.63947
0.647136
0.660826
0.680364
0.705331
0.7245
0.73905
0.748921
0.753752
0.758003
0.760359
0.761313
0.762381
0.763368
0.766002
0.767886
0.772372
0.77506
0.779524
0.783007
0.786712
0.790222
0.793694
0.797143
0.800144
0.802478
0.803848
0.803917
0.80269
0.800804
0.798698
0.795889
0.792467
0.788308
0.783434
0.778056
0.77247
0.767389
0.763819
0.762143
0.762207
0.764489
0.767751
0.770271
0.77261
0.777038
0.786365
0.802849
0.826473
0.854557
0.882107
0.90279
0.912733
0.919363
0.931789
0.950287
0.967317
0.974744
0.975217
0.971275
0.965786
0.965698
0.968959
0.977356
0.979815
0.978819
0.971603
0.948843
0.932962
0.928232
0.92845
0.931918
0.945113
0.962755
0.975708
0.984767
0.99088
0.994771
0.99707
0.998378
0.9991
0.999428
0.999511
0.999497
0.999356
0.998775
0.996849
0.990863
0.972808
0.917601
0.761856
0.577484
0.432013
0.307678
0.225991
0.143435
0.59329
0.478644
0.385519
0.342275
0.321798
0.313115
0.310983
0.31688
0.33191
0.349702
0.371266
0.392713
0.414252
0.435475
0.470503
0.530421
0.641687
0.758326
0.843174
0.905987
0.937256
0.952589
0.958952
0.96103
0.961399
0.956025
0.944601
0.924669
0.911459
0.899038
0.892999
0.887814
0.88528
0.883792
0.883173
0.88304
0.883443
0.883878
0.884624
0.885534
0.887008
0.889255
0.893146
0.901149
0.917664
0.943843
0.969952
0.98581
0.993711
0.997506
0.99907
0.999512
0.999452
0.997646
0.986046
0.909075
0.733751
0.6723
0.669355
0.686874
0.705417
0.720053
0.728107
0.727113
0.71021
0.650357
0.558074
0.47812
0.433849
0.421439
0.424229
0.469768
0.683988
0.82257
0.823479
0.753048
0.645451
0.610534
0.601043
0.599359
0.608199
0.61888
0.627156
0.635309
0.646507
0.664281
0.687917
0.710214
0.729496
0.741202
0.746723
0.748883
0.749551
0.747965
0.742086
0.735199
0.7304
0.727394
0.727414
0.732025
0.739831
0.748863
0.759334
0.769098
0.777617
0.785382
0.792064
0.797741
0.802723
0.807296
0.811555
0.815049
0.817486
0.818009
0.81643
0.813645
0.810875
0.808082
0.804963
0.801528
0.797697
0.793168
0.7881
0.783199
0.779223
0.776968
0.776502
0.776823
0.777727
0.779813
0.784833
0.794966
0.811716
0.836947
0.869565
0.902852
0.926886
0.937582
0.939628
0.942596
0.953553
0.970605
0.978932
0.980264
0.978559
0.973148
0.972425
0.973941
0.980022
0.983367
0.983217
0.980107
0.966997
0.952637
0.946886
0.946312
0.948077
0.956117
0.970061
0.980633
0.987918
0.992713
0.995775
0.997659
0.998744
0.999335
0.999632
0.999741
0.999751
0.999715
0.999513
0.998768
0.996344
0.988841
0.966676
0.8979
0.739066
0.560523
0.436958
0.299436
0.603536
0.517356
0.433313
0.380631
0.356774
0.34722
0.345378
0.355738
0.370257
0.389929
0.414934
0.446669
0.491305
0.563064
0.659504
0.762209
0.83933
0.897286
0.928018
0.94652
0.953558
0.955809
0.956152
0.949878
0.93491
0.913204
0.898833
0.891406
0.885694
0.882905
0.881517
0.88082
0.880557
0.880488
0.880592
0.880858
0.881265
0.881878
0.882553
0.883293
0.883934
0.884441
0.884975
0.886072
0.889437
0.899275
0.926427
0.963833
0.983847
0.993419
0.997677
0.999244
0.999597
0.999314
0.995535
0.96929
0.819049
0.678589
0.641963
0.62335
0.627687
0.634078
0.63998
0.638854
0.611898
0.544967
0.488517
0.459335
0.451449
0.458235
0.491581
0.609624
0.779197
0.82625
0.803919
0.677895
0.61162
0.592533
0.588539
0.593148
0.605394
0.61738
0.628075
0.64048
0.661317
0.684564
0.705328
0.720847
0.732346
0.737503
0.738254
0.729747
0.710917
0.686276
0.667021
0.659713
0.658094
0.663547
0.672608
0.681017
0.687156
0.693474
0.701575
0.713977
0.731353
0.750709
0.769291
0.783676
0.795358
0.804349
0.811333
0.816643
0.821485
0.825448
0.828482
0.829757
0.829245
0.827371
0.824883
0.82201
0.818926
0.815894
0.812994
0.810198
0.807675
0.805498
0.80368
0.801843
0.799143
0.797046
0.796449
0.797943
0.806975
0.828592
0.854927
0.88649
0.92016
0.945148
0.956462
0.958683
0.959227
0.961818
0.972746
0.981911
0.983975
0.983237
0.97931
0.978107
0.979014
0.983306
0.986789
0.987084
0.985848
0.979418
0.968974
0.96392
0.962815
0.963526
0.967679
0.977586
0.985622
0.991136
0.994708
0.996938
0.998292
0.999089
0.999528
0.999753
0.999848
0.999867
0.999856
0.99978
0.999473
0.998443
0.995242
0.985636
0.958842
0.869665
0.725144
0.529567
0.60667
0.533528
0.49341
0.454765
0.436962
0.431336
0.439903
0.445835
0.470457
0.497666
0.549492
0.613148
0.69106
0.764099
0.830587
0.88396
0.921188
0.939742
0.948281
0.951539
0.952257
0.948798
0.936759
0.913295
0.89806
0.88953
0.884806
0.882566
0.881273
0.880654
0.880078
0.879735
0.8795
0.879302
0.879215
0.879366
0.879877
0.880829
0.88191
0.883214
0.884414
0.885006
0.884944
0.884445
0.884364
0.885736
0.893082
0.918436
0.962465
0.984134
0.994057
0.998139
0.999469
0.999677
0.998903
0.990801
0.937802
0.735146
0.640518
0.604182
0.58493
0.562817
0.538894
0.513919
0.492705
0.481976
0.478714
0.482735
0.51849
0.561403
0.619072
0.731345
0.815717
0.822053
0.750659
0.629353
0.590586
0.581526
0.581204
0.590634
0.603999
0.617283
0.630854
0.652104
0.676319
0.695021
0.708916
0.719982
0.72489
0.719465
0.697294
0.649976
0.610829
0.594976
0.590867
0.601244
0.624739
0.645494
0.665508
0.677827
0.682265
0.684105
0.684672
0.685975
0.688745
0.696416
0.711703
0.736687
0.764449
0.786107
0.801399
0.811791
0.819831
0.825612
0.830452
0.835239
0.839347
0.841152
0.840928
0.838978
0.83584
0.831866
0.827561
0.823753
0.821013
0.819871
0.820307
0.824081
0.829053
0.830374
0.829541
0.827156
0.827075
0.8319
0.85283
0.881793
0.911778
0.940628
0.961056
0.96985
0.971515
0.97172
0.972916
0.978511
0.985265
0.987019
0.986586
0.983853
0.982723
0.983367
0.986598
0.989881
0.990517
0.990091
0.987456
0.980652
0.976498
0.97526
0.975443
0.977561
0.983989
0.989903
0.993871
0.996398
0.997943
0.998861
0.999393
0.999689
0.999842
0.99991
0.999927
0.999925
0.999894
0.999761
0.999304
0.997875
0.993609
0.980877
0.946842
0.823712
0.611518
0.562122
0.545014
0.539033
0.537601
0.553921
0.573613
0.598026
0.617995
0.668748
0.716619
0.775862
0.827494
0.874497
0.906865
0.931363
0.942953
0.94754
0.948782
0.948824
0.941829
0.921993
0.903307
0.89205
0.886054
0.88311
0.881628
0.880487
0.879194
0.877955
0.876708
0.875886
0.875029
0.874652
0.874521
0.874526
0.87485
0.875517
0.876925
0.879411
0.883037
0.88597
0.887235
0.886621
0.884377
0.883578
0.88424
0.891683
0.922789
0.966135
0.986392
0.99534
0.998708
0.999674
0.999741
0.998235
0.982936
0.877505
0.671353
0.605151
0.581164
0.556298
0.532002
0.516221
0.5141
0.517809
0.545353
0.613156
0.652378
0.673334
0.725111
0.79492
0.821704
0.807435
0.679476
0.600507
0.578416
0.574443
0.578648
0.589958
0.604162
0.619079
0.639354
0.664864
0.681957
0.696141
0.706892
0.711542
0.700378
0.658081
0.587121
0.550035
0.532642
0.526431
0.533764
0.547505
0.579659
0.62217
0.664266
0.697536
0.721071
0.724344
0.710048
0.696047
0.687427
0.685874
0.689251
0.696695
0.713079
0.745771
0.776303
0.79625
0.81067
0.821185
0.829465
0.836814
0.844756
0.853229
0.860568
0.864795
0.866168
0.865523
0.861591
0.855393
0.848542
0.842043
0.837887
0.837204
0.841268
0.851745
0.858245
0.861681
0.864525
0.870288
0.885181
0.901918
0.919037
0.940034
0.960898
0.974622
0.979837
0.980477
0.98024
0.980873
0.984394
0.988634
0.989633
0.989218
0.987129
0.986362
0.986916
0.989585
0.992518
0.993369
0.993277
0.992186
0.988203
0.984824
0.983662
0.98366
0.98486
0.989047
0.993215
0.995959
0.997673
0.998699
0.999293
0.999629
0.999812
0.999907
0.999949
0.999961
0.999961
0.999947
0.999886
0.99967
0.998983
0.996866
0.990519
0.962103
0.62267
0.59683
0.590909
0.597857
0.623933
0.657294
0.690311
0.705695
0.738598
0.782099
0.823466
0.864838
0.894811
0.920822
0.934275
0.942869
0.946002
0.946896
0.944886
0.935745
0.915359
0.899006
0.889374
0.884509
0.881964
0.880613
0.879089
0.877401
0.875738
0.874723
0.873935
0.873565
0.873388
0.873336
0.873353
0.873411
0.873471
0.873604
0.873891
0.874571
0.876452
0.881985
0.887696
0.889566
0.888139
0.884067
0.882855
0.884548
0.896162
0.93767
0.973309
0.99004
0.99686
0.999233
0.999819
0.999776
0.99722
0.972915
0.793373
0.635092
0.596509
0.580393
0.573038
0.573445
0.589124
0.650834
0.710042
0.73239
0.736854
0.751066
0.787534
0.816969
0.819075
0.761424
0.632104
0.584537
0.572882
0.571866
0.578573
0.591046
0.608525
0.628217
0.650162
0.668602
0.682202
0.694132
0.699102
0.690224
0.644327
0.561444
0.509769
0.467215
0.424583
0.388743
0.370294
0.375324
0.418371
0.503442
0.605729
0.683594
0.734545
0.76469
0.772429
0.760114
0.727599
0.698765
0.690559
0.691804
0.698005
0.713424
0.748099
0.778666
0.799811
0.815402
0.828148
0.838905
0.849651
0.86024
0.870811
0.88129
0.890436
0.896508
0.898778
0.898795
0.896728
0.890248
0.882079
0.87444
0.869531
0.868621
0.871321
0.879511
0.891451
0.908952
0.929854
0.946502
0.954256
0.959618
0.968705
0.978751
0.984971
0.986836
0.986759
0.986109
0.98648
0.988948
0.99139
0.991787
0.991262
0.989609
0.989237
0.989795
0.992217
0.994679
0.995537
0.995559
0.995014
0.992574
0.990097
0.989213
0.989184
0.989983
0.992843
0.995643
0.997456
0.99857
0.999222
0.99959
0.999791
0.999897
0.99995
0.999973
0.99998
0.99998
0.999973
0.999941
0.999827
0.99945
0.998245
0.991987
0.631577
0.614891
0.617499
0.649547
0.686023
0.720301
0.758958
0.782152
0.816041
0.850951
0.880578
0.906955
0.924457
0.935718
0.941069
0.943782
0.944895
0.942516
0.930717
0.911617
0.89796
0.889335
0.884207
0.881742
0.880341
0.87896
0.87703
0.875213
0.874156
0.873636
0.87338
0.87328
0.873246
0.873241
0.873317
0.873402
0.873441
0.873502
0.87362
0.873867
0.874578
0.877015
0.884938
0.890261
0.891486
0.887657
0.883126
0.883414
0.888585
0.914635
0.957492
0.982687
0.993974
0.998204
0.999604
0.999915
0.999792
0.995959
0.954861
0.734129
0.638198
0.619959
0.620681
0.63424
0.699398
0.76465
0.785342
0.785721
0.785787
0.797411
0.813734
0.820785
0.806054
0.696644
0.605844
0.576039
0.570419
0.571217
0.582169
0.599914
0.62072
0.636604
0.653435
0.668255
0.680808
0.68821
0.682849
0.641771
0.542874
0.459111
0.387502
0.31822
0.262957
0.23439
0.224647
0.232154
0.256245
0.31315
0.439957
0.590788
0.702443
0.763682
0.787865
0.790599
0.781627
0.74281
0.709259
0.698502
0.698279
0.706321
0.735824
0.771434
0.795931
0.813904
0.82991
0.847307
0.865291
0.882207
0.896296
0.909267
0.921056
0.931229
0.938578
0.943107
0.943106
0.942373
0.940445
0.936862
0.929701
0.920308
0.912972
0.910932
0.914103
0.930366
0.950625
0.966898
0.977732
0.982235
0.983751
0.986529
0.989873
0.991454
0.991584
0.990938
0.990199
0.990499
0.992244
0.993454
0.993503
0.992758
0.991641
0.991536
0.992176
0.994481
0.996375
0.997055
0.99709
0.996711
0.995024
0.993453
0.992945
0.992952
0.993568
0.99559
0.99738
0.998509
0.999185
0.999571
0.999782
0.999892
0.999949
0.999976
0.999987
0.99999
0.99999
0.999986
0.999966
0.999895
0.999649
0.998269
0.637665
0.628903
0.638806
0.678043
0.718786
0.77165
0.812301
0.830839
0.85342
0.887533
0.909149
0.924888
0.93496
0.939707
0.941687
0.942786
0.941216
0.930901
0.913632
0.899636
0.889914
0.884708
0.881698
0.880184
0.87902
0.877405
0.875604
0.87433
0.873684
0.873371
0.87322
0.873108
0.873033
0.873019
0.873166
0.873468
0.873737
0.873784
0.873781
0.873857
0.874306
0.875984
0.882434
0.890401
0.892606
0.891574
0.885104
0.883631
0.886913
0.90603
0.950001
0.978509
0.992074
0.997454
0.999288
0.999846
0.999959
0.999711
0.994122
0.916768
0.710228
0.639929
0.644583
0.69652
0.773597
0.813298
0.818104
0.814493
0.813646
0.81929
0.824406
0.819885
0.772261
0.678316
0.600419
0.573717
0.568032
0.570659
0.584467
0.608802
0.625587
0.637725
0.653045
0.666669
0.676287
0.67765
0.646547
0.555813
0.452323
0.365917
0.288915
0.23176
0.201866
0.191775
0.193225
0.201187
0.218891
0.257729
0.35995
0.529373
0.667172
0.751653
0.790275
0.798415
0.794376
0.765195
0.721325
0.703765
0.701783
0.706293
0.731751
0.768842
0.794816
0.816226
0.839957
0.865589
0.891352
0.91676
0.939133
0.95773
0.969615
0.976502
0.980641
0.983154
0.983425
0.983008
0.981938
0.979896
0.977762
0.974805
0.970308
0.965645
0.96327
0.963635
0.969011
0.978701
0.986235
0.990579
0.9922
0.993308
0.994462
0.995033
0.995062
0.99469
0.993461
0.993096
0.993396
0.994545
0.994978
0.994843
0.993926
0.993354
0.993403
0.994234
0.996327
0.997631
0.998069
0.998074
0.997732
0.996543
0.99574
0.995538
0.995581
0.996079
0.99745
0.99852
0.999182
0.999566
0.999779
0.999891
0.999949
0.999977
0.999989
0.999994
0.999995
0.999995
0.999992
0.999977
0.999923
0.999608
0.640082
0.646108
0.644563
0.69027
0.736565
0.786667
0.839242
0.870731
0.884459
0.906621
0.923482
0.932069
0.937575
0.940058
0.940727
0.938485
0.929771
0.914307
0.900951
0.892104
0.885966
0.88278
0.880971
0.879731
0.878688
0.877347
0.875699
0.87445
0.873787
0.873452
0.873279
0.873022
0.872848
0.872856
0.872957
0.873317
0.873919
0.874202
0.874295
0.874354
0.874585
0.875909
0.881851
0.89205
0.894818
0.893562
0.887222
0.884873
0.887075
0.903628
0.947104
0.977073
0.991451
0.997206
0.999195
0.999795
0.999958
0.999973
0.999483
0.988834
0.876116
0.689655
0.657091
0.716499
0.802638
0.834102
0.833882
0.830216
0.828803
0.829653
0.828718
0.814469
0.763694
0.680799
0.603286
0.574705
0.567624
0.569579
0.58295
0.608904
0.625445
0.636878
0.651231
0.663283
0.66806
0.655668
0.593984
0.484975
0.381324
0.296938
0.233685
0.198
0.18494
0.18345
0.186151
0.194008
0.210354
0.245155
0.336979
0.513135
0.659945
0.749666
0.792225
0.801953
0.798354
0.771538
0.724756
0.704795
0.702536
0.707779
0.733437
0.769632
0.799386
0.829982
0.862942
0.89758
0.929719
0.956851
0.975602
0.985303
0.990508
0.993387
0.994929
0.995855
0.996008
0.995891
0.995528
0.994685
0.993537
0.992299
0.990965
0.989686
0.988899
0.988772
0.989279
0.991231
0.993476
0.99516
0.996161
0.996823
0.997267
0.997424
0.997411
0.997185
0.996117
0.995243
0.995166
0.995504
0.996081
0.996136
0.995797
0.99499
0.994818
0.994989
0.996071
0.997681
0.998505
0.998737
0.998712
0.998375
0.997695
0.997396
0.997354
0.997416
0.997826
0.998651
0.99923
0.999584
0.999786
0.999894
0.99995
0.999977
0.99999
0.999995
0.999997
0.999998
0.999997
0.999994
0.999982
0.999906
0.64032
0.651147
0.65288
0.684341
0.732576
0.781104
0.835801
0.876462
0.899132
0.916069
0.929728
0.936267
0.939309
0.940204
0.940048
0.936534
0.924944
0.908813
0.896368
0.888555
0.883685
0.881014
0.879768
0.879245
0.878641
0.877796
0.876271
0.875
0.874228
0.873799
0.873582
0.873284
0.873206
0.873254
0.87341
0.873818
0.874419
0.874618
0.874667
0.874779
0.875319
0.877588
0.886252
0.895812
0.897891
0.895013
0.888332
0.887086
0.890492
0.909366
0.952059
0.980098
0.992844
0.997638
0.999278
0.999799
0.999952
0.999991
0.999974
0.999185
0.983695
0.834375
0.682353
0.706447
0.80735
0.84475
0.845193
0.840616
0.838118
0.835955
0.831281
0.814158
0.766606
0.693847
0.615065
0.579703
0.56865
0.566954
0.576905
0.604757
0.623308
0.634347
0.647395
0.656734
0.657568
0.636878
0.550779
0.429211
0.331037
0.262465
0.217993
0.193803
0.185265
0.185003
0.187369
0.194732
0.211926
0.251912
0.360235
0.550772
0.696672
0.77491
0.800477
0.803536
0.799034
0.771225
0.723821
0.703597
0.70226
0.712289
0.747912
0.783285
0.817034
0.856312
0.898214
0.937725
0.967408
0.982489
0.990478
0.994694
0.99688
0.998016
0.998586
0.998893
0.998991
0.998974
0.998895
0.998708
0.998291
0.997774
0.997239
0.996686
0.996221
0.995961
0.995943
0.99619
0.996901
0.99754
0.998047
0.998425
0.998648
0.99872
0.998714
0.998603
0.997981
0.996914
0.996564
0.996598
0.99692
0.997081
0.996992
0.99642
0.996023
0.99602
0.996352
0.99758
0.998626
0.999081
0.999177
0.999132
0.998864
0.998612
0.998548
0.998558
0.99866
0.999026
0.999414
0.999669
0.999824
0.999912
0.999958
0.999981
0.999992
0.999996
0.999998
0.999999
0.999999
0.999998
0.999995
0.999976
0.625665
0.649348
0.654682
0.672133
0.720838
0.765121
0.822512
0.871215
0.898453
0.915876
0.929557
0.936518
0.940002
0.940773
0.940296
0.937163
0.926574
0.910189
0.89727
0.888977
0.883868
0.88103
0.879433
0.87857
0.878286
0.877827
0.877249
0.876369
0.875473
0.874826
0.874423
0.874103
0.874109
0.874206
0.874463
0.875002
0.875177
0.875173
0.875198
0.875433
0.876597
0.880927
0.893083
0.900239
0.900049
0.894562
0.889021
0.889425
0.896968
0.930041
0.971457
0.990267
0.996907
0.999065
0.999726
0.999919
0.999974
0.999994
0.999997
0.999951
0.998494
0.971382
0.776281
0.695178
0.771134
0.844294
0.851167
0.846859
0.843615
0.84073
0.834454
0.816354
0.774274
0.727983
0.645463
0.594303
0.573706
0.567203
0.568965
0.587779
0.616215
0.629269
0.642332
0.64928
0.645064
0.611325
0.509137
0.402374
0.322213
0.263071
0.221897
0.198111
0.191903
0.193069
0.198207