/*--------------------------------*- C++ -*----------------------------------*\
  =========                 |
  \\      /  F ield         | OpenFOAM: The Open Source CFD Toolbox
   \\    /   O peration     | Website:  https://openfoam.org
    \\  /    A nd           | Version:  7
     \\/     M anipulation  |
\*---------------------------------------------------------------------------*/
FoamFile
{
    version     2.0;
    format      ascii;
    class       volSymmTensorField;
    location    "0.091";
    object      UPrime2Mean;
}
// * * * * * * * * * * * * * * * * * * * * * * * * * * * * * * * * * * * * * //

dimensions      [0 2 -2 0 0 0 0];

internalField   nonuniform List<symmTensor> 
12225
(
(0.00430313 -0.000104266 0 0.000490565 0 0)
(0.0231929 -0.00100466 0 0.000206766 0 0)
(0.0333817 -0.00146391 0 0.000172457 0 0)
(0.0443822 -0.00179315 0 0.000157275 0 0)
(0.0634536 -0.00224438 0 0.000151095 0 0)
(0.0918597 -0.00282716 0 0.000150105 0 0)
(0.129841 -0.00353676 0 0.000159126 0 0)
(0.177655 -0.00409147 0 0.000148217 0 0)
(0.235413 -0.00496888 0 0.000160729 0 0)
(0.302563 -0.00481204 0 0.000124365 0 0)
(0.380633 -0.00646494 0 0.000150371 0 0)
(0.463881 -0.00426081 0 8.68741e-05 0 0)
(0.565459 -0.00988909 0 0.000221017 0 0)
(0.663962 -0.0012555 0 0.000152423 0 0)
(0.811693 -0.0231678 0 0.00103725 0 0)
(0.95533 0.00994248 0 0.00120514 0 0)
(1.23945 -0.0870803 0 0.0115974 0 0)
(1.67404 0.0322578 0 0.00562165 0 0)
(0.00397687 2.99935e-05 0 0.000654446 0 0)
(0.0157655 -0.000479949 0 0.000215383 0 0)
(0.0170782 -0.000796731 0 0.000235691 0 0)
(0.0175078 -0.000991304 0 0.000308804 0 0)
(0.020628 -0.0013965 0 0.000403575 0 0)
(0.026276 -0.00214063 0 0.000527559 0 0)
(0.0349233 -0.00319296 0 0.000656379 0 0)
(0.0479789 -0.00469255 0 0.000836162 0 0)
(0.0658266 -0.00630503 0 0.000944078 0 0)
(0.0917196 -0.00874596 0 0.00117332 0 0)
(0.123885 -0.0105573 0 0.00118238 0 0)
(0.169844 -0.0146543 0 0.00153556 0 0)
(0.221533 -0.015991 0 0.00140283 0 0)
(0.299642 -0.0247879 0 0.00229425 0 0)
(0.379989 -0.0253211 0 0.0020722 0 0)
(0.525278 -0.0509142 0 0.00572731 0 0)
(0.662832 -0.0616962 0 0.0064061 0 0)
(0.95989 -0.171629 0 0.039968 0 0)
(0.00389699 7.01242e-05 0 0.000840582 0 0)
(0.0154305 -0.000729461 0 0.000389929 0 0)
(0.0160957 -0.00112899 0 0.000419345 0 0)
(0.0155545 -0.00124426 0 0.000522465 0 0)
(0.0167678 -0.00145977 0 0.00066342 0 0)
(0.0188044 -0.00188476 0 0.000843938 0 0)
(0.0215327 -0.00254061 0 0.00110802 0 0)
(0.0251148 -0.00337321 0 0.00136175 0 0)
(0.0300027 -0.00456796 0 0.00175288 0 0)
(0.0365614 -0.00583283 0 0.00201369 0 0)
(0.0459929 -0.0080129 0 0.00255616 0 0)
(0.0585955 -0.00983621 0 0.00273776 0 0)
(0.077094 -0.0143245 0 0.00374833 0 0)
(0.101642 -0.0171651 0 0.00388051 0 0)
(0.138572 -0.0288814 0 0.00696923 0 0)
(0.188366 -0.0366221 0 0.0079187 0 0)
(0.260348 -0.0746493 0 0.0227475 0 0)
(0.352833 -0.124499 0 0.0468049 0 0)
(0.00388446 -0.000205398 0 0.000950319 0 0)
(0.0154493 -0.000942223 0 0.000463962 0 0)
(0.0161262 -0.00128417 0 0.000485867 0 0)
(0.0155067 -0.00141265 0 0.000628638 0 0)
(0.0164664 -0.00163315 0 0.000803824 0 0)
(0.0180795 -0.00206125 0 0.00103172 0 0)
(0.0201385 -0.00267258 0 0.00131127 0 0)
(0.0227236 -0.00346808 0 0.00168899 0 0)
(0.0259115 -0.00439691 0 0.00208135 0 0)
(0.0301284 -0.00566075 0 0.00261912 0 0)
(0.0356381 -0.00715492 0 0.00312805 0 0)
(0.0434039 -0.00951726 0 0.00395431 0 0)
(0.053868 -0.0124408 0 0.00479963 0 0)
(0.0690915 -0.0177421 0 0.00657322 0 0)
(0.0899205 -0.0252007 0 0.00904664 0 0)
(0.119362 -0.039572 0 0.0150759 0 0)
(0.157554 -0.0645671 0 0.0280991 0 0)
(0.196634 -0.104054 0 0.0568725 0 0)
(0.00424891 -0.000157901 0 0.00105556 0 0)
(0.0151668 -0.0010629 0 0.000575143 0 0)
(0.0156335 -0.00140339 0 0.000596 0 0)
(0.015052 -0.00153862 0 0.000774782 0 0)
(0.0160628 -0.00178298 0 0.000994876 0 0)
(0.017644 -0.00224674 0 0.0012588 0 0)
(0.0195967 -0.00292242 0 0.00161659 0 0)
(0.021992 -0.00377282 0 0.00203737 0 0)
(0.0249538 -0.00485485 0 0.00259764 0 0)
(0.0287245 -0.0061544 0 0.00320495 0 0)
(0.0336674 -0.00799658 0 0.00404982 0 0)
(0.0402675 -0.010357 0 0.00501329 0 0)
(0.0491929 -0.0140742 0 0.00659913 0 0)
(0.061351 -0.0192614 0 0.00875778 0 0)
(0.0776612 -0.0280162 0 0.012953 0 0)
(0.0986276 -0.0415988 0 0.0204264 0 0)
(0.122978 -0.0634582 0 0.0354422 0 0)
(0.143191 -0.0963278 0 0.0684723 0 0)
(0.0040787 -0.000215232 0 0.00119478 0 0)
(0.0151781 -0.00124457 0 0.000722425 0 0)
(0.0154207 -0.00154048 0 0.000749905 0 0)
(0.0147408 -0.00164164 0 0.00098902 0 0)
(0.0156447 -0.00188771 0 0.00127835 0 0)
(0.0170474 -0.00237186 0 0.00161655 0 0)
(0.0187773 -0.00307181 0 0.00203342 0 0)
(0.0209297 -0.00397719 0 0.00256394 0 0)
(0.0236183 -0.00511544 0 0.00321412 0 0)
(0.0270407 -0.00658614 0 0.00403112 0 0)
(0.0315056 -0.00855667 0 0.0050613 0 0)
(0.0373583 -0.0113049 0 0.00646019 0 0)
(0.0451367 -0.0152511 0 0.0084594 0 0)
(0.0552364 -0.0210467 0 0.0115524 0 0)
(0.0682436 -0.0298537 0 0.0167504 0 0)
(0.0833728 -0.0428789 0 0.0258057 0 0)
(0.0993992 -0.062047 0 0.0424557 0 0)
(0.110523 -0.0864144 0 0.0715058 0 0)
(0.0035136 -0.000240181 0 0.00138986 0 0)
(0.014485 -0.00137347 0 0.000956932 0 0)
(0.0146549 -0.00165765 0 0.000957293 0 0)
(0.0139649 -0.00176918 0 0.00120707 0 0)
(0.0148541 -0.00203648 0 0.00154131 0 0)
(0.0162059 -0.00255343 0 0.00193401 0 0)
(0.0178314 -0.00330574 0 0.00242633 0 0)
(0.0198092 -0.00427656 0 0.00304785 0 0)
(0.0222459 -0.00550551 0 0.003843 0 0)
(0.0253147 -0.00708288 0 0.00484909 0 0)
(0.0292691 -0.00920607 0 0.0061558 0 0)
(0.0343562 -0.0121362 0 0.00793583 0 0)
(0.0409053 -0.0162757 0 0.0104831 0 0)
(0.0490431 -0.0222013 0 0.014392 0 0)
(0.0588923 -0.0306573 0 0.0205495 0 0)
(0.0694271 -0.0425358 0 0.0308511 0 0)
(0.079452 -0.0581455 0 0.0473956 0 0)
(0.0848847 -0.0763452 0 0.0739359 0 0)
(0.00372232 -0.00022356 0 0.00133406 0 0)
(0.0144376 -0.00152826 0 0.000990527 0 0)
(0.0145423 -0.00175555 0 0.001082 0 0)
(0.0137977 -0.00181869 0 0.00139651 0 0)
(0.0146401 -0.00209748 0 0.00180306 0 0)
(0.0159247 -0.00264297 0 0.00228105 0 0)
(0.0174207 -0.00341723 0 0.00286927 0 0)
(0.0191853 -0.00442076 0 0.00361674 0 0)
(0.0213201 -0.00570855 0 0.00457157 0 0)
(0.0239777 -0.00738257 0 0.00579973 0 0)
(0.0273528 -0.0096192 0 0.00740849 0 0)
(0.0315913 -0.012655 0 0.00960486 0 0)
(0.0368534 -0.0168294 0 0.0127154 0 0)
(0.0430833 -0.0225661 0 0.0173384 0 0)
(0.050138 -0.0303534 0 0.0243262 0 0)
(0.0570404 -0.0405406 0 0.035177 0 0)
(0.0627864 -0.0529257 0 0.0513789 0 0)
(0.0648181 -0.0661989 0 0.0752086 0 0)
(0.00424814 -0.000458091 0 0.00141242 0 0)
(0.0145918 -0.00187807 0 0.00115315 0 0)
(0.0143569 -0.00208499 0 0.00128457 0 0)
(0.0135826 -0.00210109 0 0.00163605 0 0)
(0.0143921 -0.00237775 0 0.00211002 0 0)
(0.0155144 -0.0029513 0 0.00268012 0 0)
(0.0167697 -0.00376263 0 0.00337894 0 0)
(0.0182705 -0.00480079 0 0.00426113 0 0)
(0.0201062 -0.00611865 0 0.00538744 0 0)
(0.0223712 -0.007819 0 0.00684389 0 0)
(0.0251803 -0.0100645 0 0.00875268 0 0)
(0.0286032 -0.0130656 0 0.0113494 0 0)
(0.032684 -0.0170797 0 0.0149583 0 0)
(0.0372588 -0.0223911 0 0.0201634 0 0)
(0.0420734 -0.0292366 0 0.0276754 0 0)
(0.0462877 -0.0376413 0 0.0386733 0 0)
(0.0492176 -0.0471591 0 0.0540748 0 0)
(0.0492899 -0.0565637 0 0.0751604 0 0)
(0.00378893 -0.000361599 0 0.00157404 0 0)
(0.0143988 -0.00189052 0 0.00128327 0 0)
(0.0142142 -0.00208703 0 0.00143326 0 0)
(0.0134022 -0.00206091 0 0.00182359 0 0)
(0.0141072 -0.00231456 0 0.00235328 0 0)
(0.0150926 -0.00288163 0 0.00299928 0 0)
(0.0161801 -0.00368803 0 0.00379313 0 0)
(0.0174559 -0.00471736 0 0.00479644 0 0)
(0.0189837 -0.00602382 0 0.00608655 0 0)
(0.0208289 -0.0077046 0 0.00776691 0 0)
(0.0230602 -0.00989424 0 0.00997085 0 0)
(0.025682 -0.0127501 0 0.0129354 0 0)
(0.0286541 -0.0164466 0 0.0169733 0 0)
(0.0317604 -0.0211323 0 0.0226057 0 0)
(0.0347329 -0.0268685 0 0.0303957 0 0)
(0.0369247 -0.0334895 0 0.0412161 0 0)
(0.0379574 -0.040493 0 0.0555583 0 0)
(0.0368719 -0.0468709 0 0.074179 0 0)
(0.00385709 -0.000361114 0 0.00181931 0 0)
(0.0143212 -0.00214902 0 0.00157687 0 0)
(0.0138626 -0.00239342 0 0.00172268 0 0)
(0.0128853 -0.00231437 0 0.00214513 0 0)
(0.0135051 -0.00253247 0 0.00274009 0 0)
(0.0144123 -0.00308547 0 0.00348151 0 0)
(0.0153791 -0.0038725 0 0.0043934 0 0)
(0.0164688 -0.00486127 0 0.00553899 0 0)
(0.0177316 -0.00609715 0 0.00699807 0 0)
(0.0192073 -0.00766806 0 0.00888788 0 0)
(0.0209235 -0.00968633 0 0.0113511 0 0)
(0.022841 -0.0122614 0 0.0146163 0 0)
(0.0248803 -0.0154937 0 0.0189631 0 0)
(0.0268271 -0.0194237 0 0.0248311 0 0)
(0.0284652 -0.0240055 0 0.0326375 0 0)
(0.0293287 -0.0289774 0 0.0430019 0 0)
(0.0292753 -0.0338912 0 0.0561269 0 0)
(0.0277044 -0.0379443 0 0.0724632 0 0)
(0.00373635 -0.000446928 0 0.00185665 0 0)
(0.0141952 -0.00218102 0 0.00165365 0 0)
(0.0136909 -0.00242242 0 0.00185795 0 0)
(0.0126214 -0.00232477 0 0.00232991 0 0)
(0.0131179 -0.00252803 0 0.00298259 0 0)
(0.0138728 -0.00307655 0 0.00380574 0 0)
(0.0146673 -0.00385431 0 0.00482006 0 0)
(0.0155552 -0.00481529 0 0.00608382 0 0)
(0.0165631 -0.00599632 0 0.00768757 0 0)
(0.0177019 -0.00747088 0 0.00975283 0 0)
(0.0189676 -0.00932396 0 0.0124208 0 0)
(0.0202937 -0.0116189 0 0.0159055 0 0)
(0.0215894 -0.0143968 0 0.0204462 0 0)
(0.0226765 -0.0176254 0 0.0264042 0 0)
(0.0234034 -0.0212001 0 0.0340681 0 0)
(0.023463 -0.0248345 0 0.0438774 0 0)
(0.0228456 -0.0281592 0 0.0558545 0 0)
(0.021156 -0.030545 0 0.0703013 0 0)
(0.00383024 -0.000572393 0 0.00203423 0 0)
(0.0144289 -0.00236856 0 0.00190296 0 0)
(0.0138423 -0.00255588 0 0.00209261 0 0)
(0.0126439 -0.00237321 0 0.0025963 0 0)
(0.0129964 -0.00251162 0 0.00330189 0 0)
(0.0135987 -0.00300845 0 0.00420089 0 0)
(0.0142203 -0.00373012 0 0.0053142 0 0)
(0.0149024 -0.00461382 0 0.00669622 0 0)
(0.0156515 -0.00568151 0 0.00843336 0 0)
(0.0164583 -0.00699141 0 0.0106425 0 0)
(0.0173016 -0.00860573 0 0.0134583 0 0)
(0.0181227 -0.0105553 0 0.0170719 0 0)
(0.0188396 -0.0128383 0 0.0216791 0 0)
(0.0193138 -0.0153803 0 0.0275701 0 0)
(0.0194368 -0.0180465 0 0.0349298 0 0)
(0.0190116 -0.0205667 0 0.0440739 0 0)
(0.0180958 -0.022636 0 0.0549127 0 0)
(0.0164334 -0.023782 0 0.0676721 0 0)
(0.00368238 -0.00062985 0 0.0024472 0 0)
(0.0140727 -0.00252878 0 0.00234712 0 0)
(0.0133894 -0.00265983 0 0.00249807 0 0)
(0.0121487 -0.00240289 0 0.00300688 0 0)
(0.0124242 -0.00246651 0 0.00375589 0 0)
(0.0129008 -0.00288451 0 0.00471891 0 0)
(0.0133389 -0.00350778 0 0.00591355 0 0)
(0.0137625 -0.00425492 0 0.00739832 0 0)
(0.0141742 -0.0051308 0 0.00925381 0 0)
(0.0145807 -0.0061789 0 0.0115904 0 0)
(0.0149838 -0.00744417 0 0.014526 0 0)
(0.0153384 -0.00892937 0 0.0182219 0 0)
(0.0155697 -0.0105968 0 0.0228216 0 0)
(0.0155655 -0.0123377 0 0.0285383 0 0)
(0.0152501 -0.0140104 0 0.0354635 0 0)
(0.014523 -0.0153765 0 0.0438094 0 0)
(0.0134824 -0.0162204 0 0.0534081 0 0)
(0.0119791 -0.0162028 0 0.0644435 0 0)
(0.00390547 -0.00037596 0 0.00256392 0 0)
(0.0141 -0.00263296 0 0.00258897 0 0)
(0.0133071 -0.00284169 0 0.00279418 0 0)
(0.0120224 -0.00258398 0 0.00336865 0 0)
(0.0122467 -0.00261382 0 0.00418082 0 0)
(0.0126122 -0.00296131 0 0.00521413 0 0)
(0.01288 -0.0034748 0 0.00649301 0 0)
(0.0130891 -0.00407219 0 0.00806715 0 0)
(0.0132541 -0.00475242 0 0.0100069 0 0)
(0.0133838 -0.00554094 0 0.0124071 0 0)
(0.0134693 -0.00645127 0 0.0153628 0 0)
(0.0134658 -0.00745019 0 0.0189977 0 0)
(0.013314 -0.00847359 0 0.0234038 0 0)
(0.0129528 -0.00940203 0 0.0287266 0 0)
(0.0123693 -0.0101186 0 0.0349827 0 0)
(0.0115382 -0.0104325 0 0.042315 0 0)
(0.0105929 -0.0102222 0 0.0505168 0 0)
(0.00942951 -0.00923797 0 0.0597571 0 0)
(0.00436073 -0.000309957 0 0.0028434 0 0)
(0.0143041 -0.00264363 0 0.00267405 0 0)
(0.0132084 -0.0028719 0 0.00281926 0 0)
(0.0116451 -0.00254209 0 0.00340721 0 0)
(0.0115882 -0.00248497 0 0.00425222 0 0)
(0.0116905 -0.0027474 0 0.00533106 0 0)
(0.0117646 -0.00315106 0 0.00666003 0 0)
(0.0118425 -0.00358489 0 0.0082814 0 0)
(0.0118817 -0.00402689 0 0.0102503 0 0)
(0.0118351 -0.00448582 0 0.0126403 0 0)
(0.0116817 -0.00496358 0 0.0155219 0 0)
(0.0114094 -0.00542023 0 0.0189827 0 0)
(0.0110168 -0.00579561 0 0.0230677 0 0)
(0.0105089 -0.0059813 0 0.0278639 0 0)
(0.00991433 -0.00589396 0 0.0333356 0 0)
(0.00925429 -0.00538403 0 0.0395741 0 0)
(0.0086474 -0.00440797 0 0.0463697 0 0)
(0.00800922 -0.00277593 0 0.0538845 0 0)
(0.0041391 -0.000410018 0 0.00298871 0 0)
(0.0143869 -0.00289146 0 0.00279529 0 0)
(0.0132068 -0.003135 0 0.00297361 0 0)
(0.0115611 -0.0027129 0 0.00360457 0 0)
(0.0114213 -0.00255878 0 0.00447132 0 0)
(0.0113998 -0.00273318 0 0.00556573 0 0)
(0.0113128 -0.00301815 0 0.006899 0 0)
(0.0112115 -0.00325954 0 0.00848995 0 0)
(0.011075 -0.0034183 0 0.0103744 0 0)
(0.0108778 -0.00350964 0 0.0126077 0 0)
(0.0106121 -0.00354647 0 0.0152358 0 0)
(0.01028 -0.0034975 0 0.0183137 0 0)
(0.00988859 -0.00330909 0 0.0218514 0 0)
(0.00946306 -0.00288863 0 0.0258952 0 0)
(0.0090365 -0.00217583 0 0.030382 0 0)
(0.00865684 -0.00106576 0 0.0353799 0 0)
(0.00841624 0.0004427 0 0.0406908 0 0)
(0.00827906 0.00248213 0 0.0464829 0 0)
(0.00383234 -0.000423823 0 0.00308158 0 0)
(0.0141446 -0.0028859 0 0.00310126 0 0)
(0.0128967 -0.00309649 0 0.00306925 0 0)
(0.0111258 -0.00272412 0 0.00353879 0 0)
(0.0108409 -0.00258231 0 0.00432786 0 0)
(0.0106188 -0.00265661 0 0.00533789 0 0)
(0.0103067 -0.00274972 0 0.00653962 0 0)
(0.0100106 -0.00275216 0 0.00794551 0 0)
(0.00974277 -0.00264235 0 0.00958543 0 0)
(0.00948731 -0.00242555 0 0.0114984 0 0)
(0.00923461 -0.00209541 0 0.0137081 0 0)
(0.00898579 -0.00161577 0 0.0162415 0 0)
(0.00874986 -0.000942142 0 0.0190883 0 0)
(0.00856302 -1.55625e-05 0 0.0222711 0 0)
(0.00846156 0.00119131 0 0.0257238 0 0)
(0.0085025 0.00273093 0 0.0294985 0 0)
(0.00874915 0.00458211 0 0.0334328 0 0)
(0.00918948 0.00681799 0 0.0376653 0 0)
(0.00384466 -0.000239001 0 0.00286619 0 0)
(0.0143076 -0.00258902 0 0.00277776 0 0)
(0.012718 -0.00273747 0 0.00272069 0 0)
(0.0107297 -0.00221266 0 0.00315353 0 0)
(0.0103453 -0.00184544 0 0.00382677 0 0)
(0.0100314 -0.00168472 0 0.00465783 0 0)
(0.00966325 -0.0015534 0 0.00563782 0 0)
(0.00937223 -0.0013283 0 0.00677554 0 0)
(0.00916788 -0.000961122 0 0.00807785 0 0)
(0.00902742 -0.000443303 0 0.00955272 0 0)
(0.00894418 0.00022329 0 0.0112011 0 0)
(0.00893129 0.00105014 0 0.0130349 0 0)
(0.00901441 0.00205423 0 0.015043 0 0)
(0.00924103 0.00326702 0 0.0172405 0 0)
(0.00964768 0.00469734 0 0.0195776 0 0)
(0.0102828 0.00637743 0 0.022093 0 0)
(0.011183 0.00827938 0 0.0246712 0 0)
(0.012337 0.0104536 0 0.0274147 0 0)
(0.00394689 -0.000387669 0 0.00331688 0 0)
(0.0137191 -0.00246859 0 0.00301788 0 0)
(0.0119998 -0.00245029 0 0.0028088 0 0)
(0.010031 -0.0018537 0 0.00308158 0 0)
(0.00957795 -0.00140624 0 0.00356257 0 0)
(0.00923178 -0.00114121 0 0.00417367 0 0)
(0.00888815 -0.000906988 0 0.00489618 0 0)
(0.00865413 -0.000584053 0 0.00572535 0 0)
(0.00853694 -0.000115304 0 0.00666065 0 0)
(0.00852619 0.000510699 0 0.00770715 0 0)
(0.00862636 0.00128617 0 0.00886587 0 0)
(0.00885716 0.00220899 0 0.0101416 0 0)
(0.00924344 0.00328126 0 0.0115224 0 0)
(0.00982404 0.00451821 0 0.0130152 0 0)
(0.0106278 0.00591912 0 0.0145819 0 0)
(0.0116904 0.00750225 0 0.01625 0 0)
(0.0130338 0.00924145 0 0.017943 0 0)
(0.0146523 0.0111705 0 0.0197242 0 0)
(0.00438369 -0.000318525 0 0.00291622 0 0)
(0.0141307 -0.00211841 0 0.0025677 0 0)
(0.012389 -0.00199565 0 0.00228339 0 0)
(0.0104151 -0.00138224 0 0.00241343 0 0)
(0.00992916 -0.000930409 0 0.00273944 0 0)
(0.00953652 -0.000643701 0 0.00317943 0 0)
(0.0091797 -0.000375295 0 0.00369469 0 0)
(0.0089879 -1.9615e-05 0 0.00426703 0 0)
(0.00896261 0.000469386 0 0.00489342 0 0)
(0.00908148 0.00109915 0 0.00558051 0 0)
(0.00934878 0.00185994 0 0.00633106 0 0)
(0.00978947 0.00274374 0 0.00714924 0 0)
(0.0104311 0.00374412 0 0.00802757 0 0)
(0.0113049 0.0048669 0 0.00897359 0 0)
(0.0124278 0.00610812 0 0.00996501 0 0)
(0.0138225 0.00748266 0 0.0110223 0 0)
(0.0155023 0.00897004 0 0.0120968 0 0)
(0.017459 0.0106004 0 0.0132323 0 0)
(0.00368871 -0.000172915 0 0.00285801 0 0)
(0.0137345 -0.00187947 0 0.0021121 0 0)
(0.0120494 -0.00184132 0 0.00179153 0 0)
(0.0100847 -0.00128542 0 0.00188549 0 0)
(0.00959824 -0.000830456 0 0.00214589 0 0)
(0.00920214 -0.000532322 0 0.00249115 0 0)
(0.00884204 -0.00027714 0 0.00288138 0 0)
(0.00864991 4.64578e-05 0 0.00331143 0 0)
(0.00864289 0.000500032 0 0.00378776 0 0)
(0.00881959 0.00109405 0 0.00431503 0 0)
(0.00919242 0.00181102 0 0.00488873 0 0)
(0.0097797 0.0026325 0 0.00550541 0 0)
(0.0105973 0.00354731 0 0.00615612 0 0)
(0.0116687 0.00455752 0 0.00684355 0 0)
(0.0130088 0.00566144 0 0.00754947 0 0)
(0.014638 0.0068704 0 0.00828974 0 0)
(0.0165681 0.00816681 0 0.00902856 0 0)
(0.018791 0.00956964 0 0.00979571 0 0)
(0.00417485 -0.000332903 0 0.0024842 0 0)
(0.0136173 -0.00173504 0 0.00198862 0 0)
(0.0117947 -0.00154391 0 0.00165697 0 0)
(0.00979241 -0.000967662 0 0.0015988 0 0)
(0.00928727 -0.000526842 0 0.00168349 0 0)
(0.0088954 -0.000231864 0 0.00184624 0 0)
(0.00857331 2.19785e-05 0 0.00204503 0 0)
(0.00846776 0.000319079 0 0.00226474 0 0)
(0.00859017 0.000706288 0 0.00251152 0 0)
(0.00892178 0.00119695 0 0.00279564 0 0)
(0.00946895 0.00178375 0 0.00311771 0 0)
(0.0102523 0.00245508 0 0.00347252 0 0)
(0.0112922 0.00320256 0 0.00384981 0 0)
(0.0126077 0.00402532 0 0.00424898 0 0)
(0.0142141 0.00491823 0 0.0046592 0 0)
(0.0161208 0.00588436 0 0.00509472 0 0)
(0.018344 0.00691173 0 0.00553594 0 0)
(0.0208546 0.00800915 0 0.00600048 0 0)
(0.00423185 -0.000560483 0 0.00221717 0 0)
(0.0133772 -0.00163754 0 0.00156127 0 0)
(0.0112642 -0.00121917 0 0.00128147 0 0)
(0.00933108 -0.000568068 0 0.00128833 0 0)
(0.009074 -0.000111973 0 0.00139393 0 0)
(0.0089189 0.000175453 0 0.0015411 0 0)
(0.00879159 0.000423693 0 0.0017049 0 0)
(0.00887335 0.000727782 0 0.00188214 0 0)
(0.00921423 0.00112912 0 0.00207576 0 0)
(0.00981258 0.00162692 0 0.00228671 0 0)
(0.0106725 0.00220304 0 0.00251071 0 0)
(0.0118082 0.0028411 0 0.00274515 0 0)
(0.0132342 0.00353096 0 0.00298811 0 0)
(0.0149657 0.00427232 0 0.0032448 0 0)
(0.0170056 0.00506042 0 0.00351037 0 0)
(0.0193538 0.00590095 0 0.00379622 0 0)
(0.0220124 0.00678318 0 0.00408702 0 0)
(0.0249524 0.00772269 0 0.00438985 0 0)
(0.00455033 -0.0004144 0 0.00189492 0 0)
(0.0135163 -0.00135319 0 0.0012433 0 0)
(0.0112549 -0.00103585 0 0.000893546 0 0)
(0.00924265 -0.000566133 0 0.000841675 0 0)
(0.00891791 -0.000229397 0 0.000872675 0 0)
(0.00869411 -1.92561e-05 0 0.000908075 0 0)
(0.00852912 0.000145717 0 0.000945487 0 0)
(0.00862096 0.00033849 0 0.00100699 0 0)
(0.00900788 0.000598235 0 0.00109858 0 0)
(0.00967151 0.000930736 0 0.00121045 0 0)
(0.0106124 0.00132331 0 0.00133118 0 0)
(0.0118487 0.00176336 0 0.0014573 0 0)
(0.0133991 0.00224334 0 0.0015897 0 0)
(0.0152721 0.00276223 0 0.00173216 0 0)
(0.0174654 0.00331701 0 0.00188132 0 0)
(0.0199663 0.00390892 0 0.00204221 0 0)
(0.0227746 0.00452941 0 0.00220589 0 0)
(0.0258494 0.00518907 0 0.00237677 0 0)
(0.00425527 -0.00029195 0 0.00185157 0 0)
(0.0132841 -0.00101688 0 0.00105237 0 0)
(0.0108879 -0.00083369 0 0.000706019 0 0)
(0.00894565 -0.00042215 0 0.000686886 0 0)
(0.00873235 -6.32588e-05 0 0.000718959 0 0)
(0.00864875 0.000180318 0 0.000744103 0 0)
(0.00871268 0.000370206 0 0.000761836 0 0)
(0.00911579 0.000568856 0 0.000785282 0 0)
(0.00984774 0.000810683 0 0.000822728 0 0)
(0.0108493 0.00110402 0 0.000872024 0 0)
(0.0121139 0.00144116 0 0.000928582 0 0)
(0.0136741 0.00181365 0 0.000990871 0 0)
(0.0155642 0.00221605 0 0.00105943 0 0)
(0.0178007 0.00264745 0 0.00113698 0 0)
(0.0203831 0.0031047 0 0.00122189 0 0)
(0.0232961 0.00358998 0 0.00131774 0 0)
(0.0265414 0.00409574 0 0.00141911 0 0)
(0.0300736 0.00463127 0 0.00152889 0 0)
(0.00357631 -0.000406716 0 0.00150657 0 0)
(0.0124379 -0.000608415 0 0.000679686 0 0)
(0.0100715 -0.000361083 0 0.000378094 0 0)
(0.00836739 -0.000132701 0 0.000334482 0 0)
(0.00833208 4.02313e-05 0 0.000319685 0 0)
(0.00837835 0.000135484 0 0.000313945 0 0)
(0.00856486 0.000203542 0 0.000323209 0 0)
(0.00909673 0.000289674 0 0.000341761 0 0)
(0.0099794 0.000410909 0 0.000363928 0 0)
(0.0111727 0.000566047 0 0.000387761 0 0)
(0.0126833 0.000747541 0 0.000413819 0 0)
(0.0145419 0.000947743 0 0.000443345 0 0)
(0.0167668 0.00116212 0 0.000476917 0 0)
(0.0193512 0.00139043 0 0.000515836 0 0)
(0.022277 0.0016322 0 0.000559556 0 0)
(0.0255168 0.00189063 0 0.000610501 0 0)
(0.029071 0.00216098 0 0.000666331 0 0)
(0.032894 0.00245147 0 0.000727546 0 0)
(0.00438418 -0.00044604 0 0.00119918 0 0)
(0.0123637 -0.000744208 0 0.000493331 0 0)
(0.00971322 -0.000551678 0 0.000343012 0 0)
(0.00824785 -0.000256387 0 0.000316574 0 0)
(0.0083968 -4.8136e-05 0 0.000275935 0 0)
(0.00858485 6.80673e-05 0 0.000237293 0 0)
(0.00900428 0.000155989 0 0.000216948 0 0)
(0.00987505 0.000245538 0 0.000209204 0 0)
(0.0111598 0.000338239 0 0.000207763 0 0)
(0.0127792 0.000434785 0 0.000210166 0 0)
(0.0147164 0.000540251 0 0.000216487 0 0)
(0.0169943 0.000659344 0 0.000227525 0 0)
(0.0196301 0.000794644 0 0.00024384 0 0)
(0.0226249 0.000946582 0 0.000265703 0 0)
(0.0259602 0.00111264 0 0.000292778 0 0)
(0.0296207 0.00128937 0 0.00032661 0 0)
(0.0336012 0.00147165 0 0.000366199 0 0)
(0.0378702 0.00166089 0 0.000410807 0 0)
(0.00369519 -0.000175963 0 0.000900295 0 0)
(0.0115448 1.46344e-05 0 0.00022136 0 0)
(0.00896866 -5.02009e-05 0 0.000136672 0 0)
(0.00765436 -1.75857e-05 0 0.000122167 0 0)
(0.00795058 -2.18023e-05 0 0.000120973 0 0)
(0.00830825 -5.84189e-05 0 0.000122958 0 0)
(0.00888764 -0.000103567 0 0.000125769 0 0)
(0.00986831 -0.000145447 0 0.000129926 0 0)
(0.0111834 -0.000180115 0 0.000135953 0 0)
(0.0127371 -0.000205926 0 0.000143537 0 0)
(0.0144936 -0.000221197 0 0.000152552 0 0)
(0.0164718 -0.000224721 0 0.0001629 0 0)
(0.0186829 -0.000214743 0 0.000174298 0 0)
(0.0211542 -0.000189617 0 0.000187114 0 0)
(0.0238647 -0.000147775 0 0.000201512 0 0)
(0.0268518 -8.88973e-05 0 0.000219019 0 0)
(0.0300714 -1.31263e-05 0 0.000239807 0 0)
(0.0335942 8.08165e-05 0 0.000262763 0 0)
(0.0039118 -0.0003096 0 0.000738116 0 0)
(0.0122734 -3.30363e-05 0 0.000217805 0 0)
(0.0106868 2.27921e-05 0 0.000132716 0 0)
(0.0101219 8.54883e-05 0 9.85983e-05 0 0)
(0.0109563 0.000101511 0 7.9348e-05 0 0)
(0.0117464 0.00011013 0 6.6675e-05 0 0)
(0.0125272 0.000122514 0 5.78651e-05 0 0)
(0.0134889 0.000136317 0 5.21776e-05 0 0)
(0.0147049 0.000149674 0 4.87356e-05 0 0)
(0.0161999 0.000164606 0 4.69308e-05 0 0)
(0.0179908 0.000185333 0 4.6448e-05 0 0)
(0.0200999 0.000215451 0 4.7045e-05 0 0)
(0.022564 0.000256749 0 4.84637e-05 0 0)
(0.0254264 0.000308922 0 5.05085e-05 0 0)
(0.0287424 0.000370475 0 5.32153e-05 0 0)
(0.0325295 0.00043994 0 5.68601e-05 0 0)
(0.0368514 0.000516183 0 6.09914e-05 0 0)
(0.0416585 0.000602042 0 6.50802e-05 0 0)
(0.00237234 -0.00621535 1.10658e-22 0.0167812 -2.49452e-22 1.03329e-37)
(0.0266656 -0.0217743 -3.17876e-22 0.0181596 2.07596e-22 1.01883e-37)
(0.0706439 -0.0300873 0 0.0135963 0 0)
(0.117458 -0.0293385 0 0.00885524 0 0)
(0.154075 -0.0221805 0 0.00580978 0 0)
(0.178318 -0.0145641 7.4947e-22 0.00537194 -5.20014e-23 9.59661e-38)
(0.195766 -0.0100104 0 0.00669787 0 0)
(0.211783 -0.0097581 0 0.00889177 0 0)
(0.235344 -0.014556 0 0.0109707 0 0)
(0.273913 -0.0231211 0 0.0124567 0 0)
(0.333324 -0.0339062 -8.42684e-22 0.0129906 1.37012e-23 8.88903e-38)
(0.416285 -0.0447947 0 0.0127701 0 0)
(0.52196 -0.0543011 0 0.0119223 0 0)
(0.646991 -0.0614407 0 0.0106747 0 0)
(0.786444 -0.0656406 0 0.00925703 0 0)
(0.934307 -0.0667267 -9.67155e-22 0.00785886 5.81546e-23 8.21608e-38)
(1.08404 -0.0648514 0 0.0066244 0 0)
(1.22948 -0.0602738 0 0.00564723 0 0)
(1.36511 -0.0532255 0 0.00498386 0 0)
(1.48537 -0.0441737 0 0.00469639 0 0)
(1.58738 -0.0340589 0 0.00485705 0 0)
(1.67002 -0.0241986 0 0.00547556 0 0)
(1.73452 -0.0158076 0 0.0064351 0 0)
(1.78373 -0.00949659 -1.83244e-21 0.00752024 1.7217e-22 7.21064e-38)
(1.82111 -0.00510991 2.00861e-21 0.00851161 -1.79796e-22 7.09109e-38)
(1.84994 -0.00215923 -2.19402e-21 0.00929081 1.83836e-22 6.97291e-38)
(1.87272 -1.3349e-05 -2.38572e-21 0.01003 1.85006e-22 6.85608e-38)
(1.89077 0.0018086 0 0.0111635 0 0)
(1.90382 0.00306781 0 0.013986 0 0)
(1.91302 0.00290096 2.96436e-21 0.0192281 -1.6125e-22 6.51373e-38)
(1.92024 -0.000649405 3.14446e-21 0.0276582 -1.40071e-22 6.40232e-38)
(1.93197 -0.00986933 0 0.0373032 0 0)
(1.95294 -0.0225253 0 0.0443723 0 0)
(1.98201 -0.0345299 3.64743e-21 0.0469979 -1.10399e-22 6.07616e-38)
(2.02166 -0.0446721 0 0.0463324 0 0)
(2.07765 -0.0570059 0 0.0468809 0 0)
(2.15569 -0.075106 -4.15417e-21 0.0488961 1.21518e-22 5.76211e-38)
(2.2555 -0.0932878 0 0.0505035 0 0)
(2.37892 -0.102928 -4.48398e-21 0.049324 1.16844e-22 5.55942e-38)
(2.52405 -0.1154 -9.29058e-21 0.0524842 2.34195e-22 2.18403e-37)
(2.6951 -0.129691 0 0.0523735 0 0)
(2.87767 -0.130547 0 0.0524832 0 0)
(3.07142 -0.142712 0 0.0483975 0 0)
(3.29839 -0.161212 0 0.0473363 0 0)
(3.54207 -0.166316 0 0.0470397 0 0)
(3.79239 -0.154177 -1.09521e-20 0.0441552 2.03013e-22 1.95662e-37)
(4.03629 -0.142375 -1.11681e-20 0.0398198 1.96981e-22 1.92054e-37)
(4.27347 -0.134691 -1.136e-20 0.0323899 1.77546e-22 1.88497e-37)
(4.49873 -0.123464 0 0.0277632 0 0)
(4.70294 -0.111278 1.16657e-20 0.0252235 -1.50297e-22 1.81535e-37)
(4.88231 -0.0994732 0 0.0235066 0 0)
(5.03199 -0.0871108 -1.1876e-20 0.0223333 1.26319e-22 1.74775e-37)
(5.15231 -0.0735731 -1.19435e-20 0.0219648 1.18222e-22 1.71469e-37)
(5.24766 -0.061524 0 0.0222163 0 0)
(5.32579 -0.0535012 0 0.0221839 0 0)
(5.39278 -0.0487032 0 0.0216789 0 0)
(5.44911 -0.0461016 -1.19711e-20 0.0208765 7.97753e-23 1.58732e-37)
(5.49138 -0.0455701 0 0.0200362 0 0)
(5.51967 -0.0466921 0 0.0196205 0 0)
(5.53976 -0.0483211 0 0.0199941 0 0)
(5.55917 -0.0493043 0 0.0212931 0 0)
(5.58169 -0.0487083 0 0.0231868 0 0)
(5.60944 -0.0486302 0 0.0249375 0 0)
(5.64601 -0.0513218 0 0.0255663 0 0)
(5.69546 -0.0545102 0 0.025834 0 0)
(5.76177 -0.0577299 1.15211e-20 0.0264448 -6.34795e-23 1.32808e-37)
(5.85087 -0.0620197 0 0.025978 0 0)
(5.96601 -0.0663431 0 0.0240041 0 0)
(6.10243 -0.0696393 -1.14313e-20 0.0212143 6.76087e-23 1.24964e-37)
(6.24813 -0.0723612 -1.14098e-20 0.0184045 6.57839e-23 1.22434e-37)
(6.39161 -0.0762295 0 0.0156991 0 0)
(6.52989 -0.0775763 1.13698e-20 0.0136313 -5.61144e-23 1.17498e-37)
(6.66036 -0.0714918 -1.13465e-20 0.0127031 5.56057e-23 1.15091e-37)
(6.77324 -0.0601911 0 0.012528 0 0)
(6.86266 -0.0513907 1.12918e-20 0.0134668 -5.1795e-23 1.10396e-37)
(6.93269 -0.0505346 0 0.0153509 0 0)
(6.99071 -0.0500619 0 0.0183001 0 0)
(7.04222 -0.0422212 -1.11722e-20 0.0206369 5.04874e-23 1.03644e-37)
(7.10109 -0.0368669 0 0.0199087 0 0)
(7.19374 -0.0425444 1.10653e-20 0.0170482 -4.81808e-23 9.93317e-38)
(7.31781 -0.0478551 0 0.0128818 0 0)
(7.44764 -0.0460908 -1.09126e-20 0.00938503 3.21202e-23 9.51652e-38)
(7.56218 -0.0389635 -1.08088e-20 0.00684011 2.21136e-23 9.31355e-38)
(7.64806 -0.028669 -1.06811e-20 0.00505398 1.17537e-23 9.11409e-38)
(7.69706 -0.0167856 -2.10537e-20 0.00381526 3.08646e-24 3.56723e-37)
(7.70507 -0.0044238 2.06906e-20 0.00296543 1.62017e-23 3.4902e-37)
(7.67049 0.00765257 0 0.00239183 0 0)
(7.59373 0.0189028 0 0.00201387 0 0)
(7.47698 0.0290208 0 0.0017717 0 0)
(7.32521 0.0379047 1.87475e-20 0.00162135 7.24179e-23 3.19532e-37)
(7.14067 0.0456085 1.81702e-20 0.00153188 8.08767e-23 3.12482e-37)
(6.92778 0.0521311 -1.75709e-20 0.00148338 -8.74077e-23 3.05558e-37)
(6.69004 0.0575222 0 0.00146214 0 0)
(6.43169 0.0618113 1.63343e-20 0.00145779 9.54765e-23 2.92078e-37)
(6.15639 0.0650753 1.57095e-20 0.00146307 9.73639e-23 2.85518e-37)
(5.86793 0.0673919 1.50874e-20 0.00147212 9.80601e-23 2.79077e-37)
(5.56961 0.0688676 0 0.00148107 0 0)
(5.26461 0.0696033 0 0.00148763 0 0)
(4.95552 0.0697018 0 0.00149014 0 0)
(4.64476 0.0692303 1.27047e-20 0.00148908 9.21766e-23 2.54457e-37)
(4.33457 0.0682347 0 0.00148372 0 0)
(4.02722 0.0667368 0 0.0014743 0 0)
(3.725 0.0647434 -1.11067e-20 0.00145889 -8.14828e-23 2.37148e-37)
(3.43025 0.0622697 0 0.00143596 0 0)
(3.14527 0.0593455 0 0.00140308 0 0)
(2.87217 0.0560333 -9.7324e-21 0.00135905 -6.70616e-23 2.20781e-37)
(2.61274 0.0524181 0 0.00130317 0 0)
(2.36834 0.0486087 0 0.00123674 0 0)
(2.13981 0.0447208 8.606e-21 0.00116214 5.12645e-23 2.05312e-37)
(1.92752 0.0408622 8.2836e-21 0.00108226 4.62006e-23 2.00348e-37)
(1.73147 0.0371277 0 0.00100071 0 0)
(1.55122 0.0335779 -7.71042e-21 0.000919481 -3.68579e-23 1.90699e-37)
(1.38605 0.0302715 0 0.000842314 0 0)
(1.23506 0.0272267 7.22144e-21 0.000770613 2.88432e-23 1.81414e-37)
(1.09722 0.0244434 0 0.000705305 0 0)
(0.971559 0.0219212 6.80296e-21 0.000647755 2.22286e-23 1.7248e-37)
(0.857139 0.0196293 6.61622e-21 0.000597211 1.94056e-23 1.68142e-37)
(0.753074 0.0175341 0 0.00055295 0 0)
(0.658628 0.0156063 0 0.000514226 0 0)
(0.573213 0.0138082 0 0.000479406 0 0)
(0.496368 0.0121226 0 0.000447741 0 0)
(0.427765 0.0105256 0 0.000417583 0 0)
(0.367119 0.00901793 0 0.000388436 0 0)
(0.314158 0.00757603 0 0.000358224 0 0)
(0.268626 0.00621711 5.50431e-21 0.000327234 4.23289e-24 1.36343e-37)
(0.230231 0.00495735 -5.40013e-21 0.000295787 -2.9202e-24 1.32713e-37)
(0.19857 0.00379468 0 0.000263266 0 0)
(0.173179 0.00274426 0 0.000230423 0 0)
(0.153532 0.00181734 0 0.000198032 0 0)
(0.139035 0.00102177 0 0.000166979 0 0)
(0.129034 0.000361165 -9.90731e-21 0.000138166 4.98501e-24 4.62496e-37)
(0.122846 -0.000165552 0 0.000112452 0 0)
(0.119779 -0.000564366 9.60633e-21 9.06424e-05 -8.36429e-24 4.37055e-37)
(0.119163 -0.000845911 -9.46592e-21 7.34411e-05 9.85294e-24 4.24724e-37)
(0.120369 -0.00102489 0 6.13215e-05 0 0)
(0.122843 -0.00112035 0 5.42232e-05 0 0)
(0.126124 -0.00115367 0 5.16797e-05 0 0)
(0.129864 -0.00114585 8.96167e-21 5.31946e-05 -1.3934e-23 3.77904e-37)
(0.133825 -0.00111716 8.84751e-21 5.7868e-05 -1.44439e-23 3.66805e-37)
(0.137879 -0.00108403 0 6.46589e-05 0 0)
(0.141986 -0.00105943 8.6297e-21 7.26449e-05 -1.49126e-23 3.45305e-37)
(0.146182 -0.00105281 8.52479e-21 8.04671e-05 -1.48087e-23 3.34898e-37)
(0.15055 -0.001067 -8.42167e-21 8.67537e-05 1.44672e-23 3.24713e-37)
(0.155184 -0.00109892 0 9.03633e-05 0 0)
(0.160171 -0.00114038 0 8.99199e-05 0 0)