/*--------------------------------*- C++ -*----------------------------------*\
  =========                 |
  \\      /  F ield         | OpenFOAM: The Open Source CFD Toolbox
   \\    /   O peration     | Website:  https://openfoam.org
    \\  /    A nd           | Version:  7
     \\/     M anipulation  |
\*---------------------------------------------------------------------------*/
FoamFile
{
    version     2.0;
    format      ascii;
    class       volScalarField;
    location    "0.096";
    object      k;
}
// * * * * * * * * * * * * * * * * * * * * * * * * * * * * * * * * * * * * * //

dimensions      [0 2 -2 0 0 0 0];

internalField   nonuniform List<scalar> 
12225
(
1.93531e-05
1.79491e-05
1.66709e-05
1.53687e-05
1.3965e-05
1.26438e-05
1.15029e-05
1.0239e-05
8.67291e-06
7.19567e-06
5.97885e-06
5.17905e-06
4.1039e-06
3.97773e-06
5.50849e-06
5.80435e-05
3.18268e-05
5.84733e-05
1.998e-05
1.98819e-05
1.96637e-05
1.94677e-05
1.90713e-05
1.87844e-05
1.83177e-05
1.79913e-05
1.7392e-05
1.68229e-05
1.59959e-05
1.52961e-05
1.49417e-05
1.40895e-05
1.38221e-05
2.37762e-05
2.67869e-05
2.84925e-05
1.99988e-05
1.95036e-05
1.91788e-05
1.90848e-05
1.90336e-05
1.89958e-05
1.89072e-05
1.87966e-05
1.86149e-05
1.8504e-05
1.83365e-05
1.82397e-05
1.81243e-05
1.80106e-05
1.76806e-05
1.85065e-05
1.92591e-05
1.97237e-05
2.00175e-05
1.98897e-05
1.93081e-05
1.86204e-05
1.85853e-05
1.83838e-05
1.74772e-05
1.67232e-05
1.65432e-05
1.65686e-05
1.67978e-05
1.73926e-05
1.78084e-05
1.79987e-05
1.80016e-05
1.80676e-05
1.80655e-05
1.79792e-05
2.05533e-05
2.06819e-05
2.05513e-05
2.06607e-05
2.16281e-05
2.19988e-05
2.18587e-05
2.10661e-05
1.89582e-05
1.79093e-05
1.78177e-05
1.79282e-05
1.82561e-05
1.84993e-05
1.86163e-05
1.86222e-05
1.85859e-05
1.83049e-05
2.03239e-05
2.05668e-05
2.07746e-05
2.13127e-05
2.34694e-05
2.50247e-05
2.52223e-05
2.48214e-05
2.32834e-05
2.22229e-05
2.18184e-05
2.18078e-05
2.21856e-05
2.27238e-05
2.28848e-05
2.28625e-05
2.26125e-05
2.15854e-05
2.0183e-05
2.01848e-05
2.05274e-05
2.16315e-05
2.53648e-05
3.01767e-05
3.20042e-05
3.20918e-05
3.13896e-05
2.91279e-05
2.70007e-05
2.57042e-05
2.51656e-05
2.49901e-05
2.47243e-05
2.40606e-05
2.3488e-05
2.31556e-05
2.00615e-05
2.04667e-05
2.15299e-05
2.24412e-05
2.42583e-05
2.84607e-05
3.12516e-05
3.19861e-05
3.18329e-05
3.05164e-05
2.81446e-05
2.67006e-05
2.59885e-05
2.54507e-05
2.48156e-05
2.428e-05
2.39699e-05
2.38358e-05
2.00435e-05
2.04088e-05
2.19753e-05
2.59773e-05
2.964e-05
3.10829e-05
3.1011e-05
3.00082e-05
2.76978e-05
2.60609e-05
2.5086e-05
2.45572e-05
2.42348e-05
2.39735e-05
2.3776e-05
2.36343e-05
2.35502e-05
2.35226e-05
2.13595e-05
2.14724e-05
2.1357e-05
2.17583e-05
2.4733e-05
3.00175e-05
3.11761e-05
3.06399e-05
2.80012e-05
2.46928e-05
2.28455e-05
2.20066e-05
2.17198e-05
2.16639e-05
2.16786e-05
2.18038e-05
2.23987e-05
2.33469e-05
2.0659e-05
2.05007e-05
2.03048e-05
2.06115e-05
2.21765e-05
2.46353e-05
2.55362e-05
2.55675e-05
2.50936e-05
2.33219e-05
2.18169e-05
2.12043e-05
2.10703e-05
2.10817e-05
2.12113e-05
2.17303e-05
2.36987e-05
2.60887e-05
2.15338e-05
2.0987e-05
2.07343e-05
2.16356e-05
2.30884e-05
2.32814e-05
2.30527e-05
2.2373e-05
2.17384e-05
2.13041e-05
2.10628e-05
2.09726e-05
2.0964e-05
2.09954e-05
2.11575e-05
2.17353e-05
2.38106e-05
2.70019e-05
2.09663e-05
2.0998e-05
2.10394e-05
2.13882e-05
2.15188e-05
2.14606e-05
2.11763e-05
2.0877e-05
2.07337e-05
2.05947e-05
2.04929e-05
2.04829e-05
2.0504e-05
2.05962e-05
2.08769e-05
2.16922e-05
2.38714e-05
2.64837e-05
2.07389e-05
2.07416e-05
2.07708e-05
2.08015e-05
2.08825e-05
2.0977e-05
2.08327e-05
2.06938e-05
2.07129e-05
2.07357e-05
2.06568e-05
2.05124e-05
2.05006e-05
2.05746e-05
2.07752e-05
2.12866e-05
2.17511e-05
2.26968e-05
2.01736e-05
2.03459e-05
2.04028e-05
2.0445e-05
2.04534e-05
2.03981e-05
2.03801e-05
2.04506e-05
2.07364e-05
2.08605e-05
2.08442e-05
2.06941e-05
2.03978e-05
2.02772e-05
2.02647e-05
2.02867e-05
2.03582e-05
2.05545e-05
2.05946e-05
2.08073e-05
2.11201e-05
2.12146e-05
2.11831e-05
2.0983e-05
2.07696e-05
2.07142e-05
2.07224e-05
2.07493e-05
2.07441e-05
2.06763e-05
2.05016e-05
2.039e-05
2.03413e-05
2.03279e-05
2.03273e-05
2.03372e-05
2.08604e-05
2.10143e-05
2.14471e-05
2.1515e-05
2.1367e-05
2.09373e-05
2.06967e-05
2.05998e-05
2.05664e-05
2.0556e-05
2.05478e-05
2.05316e-05
2.04865e-05
2.04365e-05
2.04026e-05
2.03781e-05
2.03571e-05
2.03439e-05
2.00857e-05
2.04032e-05
2.0719e-05
2.08127e-05
2.07888e-05
2.05925e-05
2.03796e-05
2.0319e-05
2.0325e-05
2.04019e-05
2.05785e-05
2.06884e-05
2.07483e-05
2.07798e-05
2.07906e-05
2.07905e-05
2.07797e-05
2.07251e-05
2.00947e-05
2.01885e-05
2.02634e-05
2.02895e-05
2.03008e-05
2.03206e-05
2.03937e-05
2.04651e-05
2.04923e-05
2.05222e-05
2.05753e-05
2.07608e-05
2.14381e-05
2.21604e-05
2.25424e-05
2.26802e-05
2.26945e-05
2.26447e-05
2.01288e-05
2.00638e-05
2.00746e-05
2.02716e-05
2.07221e-05
2.09551e-05
2.10458e-05
2.11083e-05
2.11151e-05
2.10627e-05
2.10376e-05
2.10537e-05
2.11111e-05
2.11395e-05
2.11418e-05
2.11291e-05
2.1117e-05
2.11215e-05
2.02144e-05
2.02461e-05
2.02631e-05
2.02836e-05
2.03879e-05
2.05601e-05
2.06588e-05
2.08187e-05
2.08703e-05
2.09768e-05
2.1182e-05
2.13147e-05
2.14071e-05
2.14254e-05
2.13626e-05
2.11049e-05
2.08189e-05
2.06866e-05
2.10149e-05
2.04281e-05
2.03814e-05
2.04028e-05
2.04299e-05
2.04562e-05
2.05823e-05
2.07121e-05
2.0676e-05
2.05788e-05
2.0546e-05
2.05416e-05
2.05438e-05
2.05629e-05
2.06669e-05
2.10708e-05
2.14262e-05
2.15136e-05
2.06171e-05
2.05979e-05
2.04709e-05
2.04628e-05
2.04898e-05
2.04807e-05
2.04271e-05
2.0315e-05
2.02546e-05
2.0253e-05
2.02937e-05
2.04003e-05
2.04701e-05
2.05048e-05
2.05269e-05
2.05581e-05
2.06179e-05
2.07755e-05
2.06083e-05
2.04501e-05
2.02665e-05
2.02662e-05
2.03106e-05
2.03111e-05
2.02359e-05
2.01977e-05
2.02065e-05
2.02792e-05
2.05581e-05
2.08915e-05
2.10822e-05
2.11616e-05
2.11771e-05
2.11678e-05
2.10997e-05
2.09856e-05
2.03246e-05
2.01245e-05
2.01277e-05
2.03473e-05
2.04972e-05
2.05054e-05
2.04379e-05
2.03671e-05
2.03685e-05
2.04416e-05
2.07438e-05
2.10387e-05
2.11666e-05
2.11947e-05
2.11855e-05
2.11126e-05
2.08953e-05
2.07315e-05
2.01684e-05
2.00885e-05
2.03329e-05
2.07934e-05
2.09058e-05
2.0908e-05
2.08602e-05
2.06723e-05
2.05758e-05
2.05839e-05
2.07204e-05
2.09593e-05
2.10464e-05
2.10523e-05
2.10236e-05
2.08823e-05
2.06191e-05
2.04523e-05
2.00087e-05
2.00071e-05
2.00524e-05
2.00726e-05
2.00466e-05
1.99481e-05
1.98163e-05
1.96117e-05
1.93144e-05
1.91216e-05
1.91159e-05
1.92219e-05
1.93854e-05
1.94047e-05
1.93004e-05
1.90756e-05
1.9072e-05
1.90709e-05
2.01982e-05
1.7938e-05
1.4397e-05
1.5323e-05
1.83613e-05
2.20796e-05
2.34625e-05
2.4051e-05
2.52041e-05
2.81462e-05
3.65601e-05
4.51014e-05
5.2434e-05
5.71695e-05
6.60204e-05
7.62695e-05
9.09197e-05
0.000103625
3.20123e-05
8.94372e-05
0.000163072
0.000257719
0.000324287
0.000343113
0.00034298
0.000344033
0.000355524
0.000401595
0.000466456
0.000505713
0.000526446
0.000545935
0.00057841
0.000620235
0.000668089
0.000704085
0.00271452
0.00262988
0.00260364
0.00249866
0.00225641
0.00202887
0.00187374
0.0017967
0.00176645
0.00173874
0.00167754
0.00160291
0.00155133
0.00152546
0.00150899
0.00147994
0.00141807
0.00135001
0.00349664
0.00582433
0.00678992
0.0081764
0.00892766
0.00889209
0.0084981
0.00733322
0.00605314
0.00517054
0.00447038
0.00415373
0.00558447
0.0075112
0.00918096
0.00967705
0.00923591
0.00741746
0.00661915
0.00652704
0.00694031
0.00834337
0.0098566
0.0105331
0.0117922
0.0168655
0.0271654
0.0303464
0.029201
0.0218038
0.0159374
0.014455
0.0137896
0.0127026
0.0109068
0.00978169
0.00927524
0.00872817
0.00805418
0.00768136
0.00750199
0.00743889
0.0074356
0.00745479
0.00751457
0.00759707
0.00774393
0.00792477
0.00811366
0.00830756
0.00852088
0.00876035
0.00901413
0.00924237
0.00954269
0.00982846
0.00997859
0.010367
0.0107817
0.0111704
0.0115168
0.0117931
0.0120175
0.0124107
0.0136503
0.0150737
0.0151746
0.0151027
0.0163781
0.0238243
0.043177
0.0592915
0.0604751
0.0502441
0.0410821
0.0367648
0.0387361
0.0475879
0.0742467
0.119214
0.163409
0.184152
0.181707
0.144463
0.0664004
0.0216478
0.00544587
0.00208119
0.00143433
0.00131619
0.00129044
0.00118319
0.00100711
0.000837246
0.000688311
0.000519606
0.000415767
0.000351712
0.000313504
0.000300322
0.00030677
0.000309587
0.000312748
0.000314556
0.000316602
0.000318251
0.000319167
0.000319681
0.000319963
0.000319943
0.00031949
0.000319647
0.000319783
0.000318882
0.000316409
0.000313709
0.000311321
0.000307588
0.000300864
0.000295248
0.000288263
0.000279752
0.000271068
0.000261566
0.000251751
0.000241324
0.000230054
0.000219791
0.000209469
0.000199698
0.000190779
0.000182668
0.000174789
0.000167071
0.000159411
0.00015157
0.000143637
0.000135685
0.000127112
0.000117958
0.000109266
0.000101138
9.18029e-05
8.07136e-05
6.95907e-05
5.80698e-05
4.42567e-05
3.02855e-05
1.98044e-05
1.26992e-05
8.25553e-06
5.72463e-06
4.39047e-06
3.69514e-06
3.28073e-06
2.9567e-06
2.64085e-06
2.31559e-06
1.99305e-06
1.69461e-06
1.43156e-06
1.20907e-06
1.0176e-06
8.60199e-07
7.14373e-07
6.06544e-07
4.97166e-07
4.06606e-07
3.56256e-07
3.807e-07
3.85264e-07
4.68355e-07
4.42024e-07
5.68133e-07
4.83359e-07
7.28005e-07
9.14892e-07
1.47249e-06
1.09561e-05
8.75181e-06
0.00424315
0.0063279
0.00893254
0.009565
0.0105078
0.0106562
0.0105725
0.0103526
0.00980358
0.0089687
0.00793903
0.00668561
0.005904
0.00609352
0.00702088
0.00832091
0.00816445
0.00640247
0.00512316
0.00482297
0.0048542
0.00545961
0.00669875
0.00788194
0.00940301
0.0136182
0.0174136
0.0177698
0.0160213
0.012673
0.0111286
0.0105093
0.00993334
0.00880218
0.00743139
0.00645057
0.00568457
0.00485931
0.00417553
0.00373746
0.00341479
0.00307238
0.00285974
0.00276133
0.00271534
0.00270351
0.00275832
0.00293135
0.00310668
0.00330804
0.00362659
0.00402184
0.0044866
0.00507582
0.00582959
0.00659571
0.00699239
0.00792869
0.0086138
0.00914059
0.0096682
0.0103677
0.0111017
0.0115582
0.0122395
0.013745
0.0146266
0.0148919
0.0154065
0.0178798
0.0268768
0.0382589
0.0370397
0.0214652
0.0123726
0.0130257
0.0161069
0.0194291
0.0207076
0.025233
0.0383019
0.0942696
0.113555
0.0656601
0.0228514
0.00758068
0.0026695
0.00135807
0.000968761
0.000822636
0.000713302
0.000625675
0.00056295
0.000529889
0.000511185
0.000502655
0.000500541
0.000500346
0.000501306
0.000502026
0.000502286
0.00050167
0.000501561
0.000501506
0.000501754
0.00050244
0.000503394
0.000504439
0.000505502
0.000506708
0.000508249
0.000510161
0.000512297
0.000514012
0.000515278
0.000515912
0.000516054
0.000515116
0.000512726
0.000509666
0.000505849
0.000501709
0.000497163
0.000492433
0.000487051
0.000480471
0.000471877
0.00046131
0.000450783
0.000435381
0.000416773
0.000396598
0.000377103
0.000358237
0.00033981
0.000322559
0.000305836
0.000289377
0.000273298
0.000257528
0.000241634
0.000224183
0.000204551
0.000184998
0.000167717
0.000153344
0.000142927
0.000134663
0.000123722
0.000108749
9.14835e-05
7.51118e-05
6.16857e-05
5.13949e-05
4.36206e-05
3.78159e-05
3.33813e-05
2.95937e-05
2.58792e-05
2.21604e-05
1.86546e-05
1.56684e-05
1.31736e-05
1.11792e-05
9.40325e-06
7.96298e-06
6.60475e-06
5.65091e-06
4.62878e-06
4.00467e-06
3.23188e-06
2.8985e-06
2.36014e-06
2.18224e-06
1.80275e-06
1.70352e-06
1.57079e-06
1.51261e-06
2.81115e-06
2.74814e-06
0.0024919
0.0116237
0.0106758
0.00899616
0.00848189
0.00857939
0.00899452
0.00917946
0.00912222
0.00895543
0.00858324
0.00780195
0.00710207
0.00638822
0.00622294
0.00647107
0.0068081
0.00654752
0.00538442
0.00487103
0.00495824
0.00579865
0.0070124
0.00803538
0.00934856
0.0121795
0.0131906
0.0129664
0.0104522
0.00762427
0.0065901
0.00560578
0.00404161
0.00290378
0.00225383
0.00156254
0.00123676
0.00104848
0.000889462
0.000821791
0.00079302
0.000785776
0.000786718
0.000791196
0.000799485
0.000813549
0.000826554
0.00083733
0.000862381
0.000916587
0.00101002
0.00116015
0.00142928
0.00188074
0.00260061
0.00360698
0.0051745
0.00644114
0.00696174
0.00713491
0.00756845
0.00813873
0.00894507
0.0102517
0.0117241
0.0130636
0.0139265
0.0145417
0.0150508
0.0150436
0.0147282
0.0169522
0.0164851
0.0107027
0.00862571
0.00940754
0.0144134
0.0280019
0.0326993
0.0472575
0.0660216
0.061813
0.0324361
0.0128828
0.00474276
0.00198168
0.00109707
0.000804165
0.000684145
0.000616552
0.000571188
0.000538406
0.000516822
0.000503022
0.000495361
0.000490895
0.000489168
0.000488747
0.000490839
0.000494153
0.000499615
0.000503511
0.000508434
0.000511804
0.0005154
0.000518924
0.00052321
0.000527978
0.000533418
0.000539799
0.000546904
0.000554836
0.000563121
0.000571072
0.000578362
0.000583025
0.000584798
0.000584798
0.000582099
0.000577119
0.000570866
0.000563959
0.00055747
0.000551778
0.000547038
0.000543022
0.000539449
0.000536297
0.000533492
0.000530388
0.000526142
0.000519441
0.000511034
0.000499966
0.000483174
0.000458565
0.000428121
0.000393838
0.000357409
0.00032345
0.000295056
0.000271746
0.000253911
0.000235324
0.00021107
0.000185276
0.000164007
0.000148336
0.000136632
0.000129585
0.000125477
0.000118489
0.000106969
9.39265e-05
8.27945e-05
7.46306e-05
6.83489e-05
6.26971e-05
5.72266e-05
5.21235e-05
4.75803e-05
4.35414e-05
3.98288e-05
3.62964e-05
3.27178e-05
2.91524e-05
2.55795e-05
2.20965e-05
1.87404e-05
1.56394e-05
1.28576e-05
1.04108e-05
8.40755e-06
6.6298e-06
5.40428e-06
4.11858e-06
3.55734e-06
2.5824e-06
2.39848e-06
1.94987e-06
0.00364267
0.0103058
0.00827505
0.00721682
0.00743221
0.00793007
0.00895008
0.00958244
0.00954484
0.00936255
0.00895458
0.00818853
0.0074523
0.00693297
0.0063699
0.0061204
0.00613559
0.0062356
0.00553465
0.00514402
0.00577047
0.00735207
0.00810004
0.00862981
0.00943013
0.0102441
0.0100605
0.00730887
0.00490763
0.00383684
0.00287327
0.00206323
0.0014423
0.00105674
0.000871606
0.000752148
0.000709063
0.000691882
0.000686031
0.000685699
0.000693935
0.000707548
0.000714571
0.000721331
0.000723358
0.000720045
0.000696899
0.000662735
0.000626574
0.000585909
0.000554245
0.000544412
0.000589673
0.000764247
0.00118122
0.00195574
0.00293704
0.00419659
0.00511056
0.00552774
0.00626643
0.00700832
0.007601
0.00862616
0.0101439
0.011882
0.0132482
0.0140436
0.0145198
0.0145411
0.0135212
0.0117206
0.0101826
0.00824319
0.00791583
0.00843418
0.0155174
0.0363623
0.0520702
0.0527295
0.0425684
0.0196026
0.00841596
0.00335172
0.00157646
0.000987204
0.000779872
0.000692758
0.000640411
0.000598753
0.000569651
0.000547314
0.000529706
0.000518612
0.000514423
0.000513718
0.000516861
0.000526818
0.000542018
0.000561287
0.000583169
0.000600642
0.000615052
0.00062442
0.00063092
0.000636319
0.000644799
0.000653438
0.000665226
0.000681672
0.000700889
0.000723028
0.000746402
0.000767194
0.000783967
0.000792011
0.000794426
0.000786863
0.000771038
0.000748939
0.000721638
0.000690324
0.000658632
0.00062945
0.000604462
0.000584441
0.000569327
0.000558713
0.000551791
0.000547661
0.00054527
0.000543546
0.000542423
0.000541831
0.000540777
0.000537916
0.000531395
0.000521026
0.000503253
0.000472499
0.00042773
0.000377032
0.000330403
0.000296934
0.000279724
0.000270206
0.000253212
0.000218978
0.00018555
0.00016313
0.000150887
0.000144059
0.00013996
0.000137295
0.000133351
0.000124017
0.000110159
9.67511e-05
8.51809e-05
7.54217e-05
6.70931e-05
5.98776e-05
5.36505e-05
4.83758e-05
4.39368e-05
4.00923e-05
3.65316e-05
3.30236e-05
2.94875e-05
2.59533e-05
2.24755e-05
1.90945e-05
1.58823e-05
1.28771e-05
1.02266e-05
7.90718e-06
6.07346e-06
4.57158e-06
3.5173e-06
2.60584e-06
0.00403864
0.00632821
0.00619956
0.00664835
0.00810365
0.0108513
0.0126022
0.0136516
0.0135587
0.0129089
0.0111919
0.00919495
0.00787531
0.0071188
0.00647585
0.00609777
0.00602095
0.00587674
0.00557481
0.00590955
0.00786939
0.00850439
0.00856923
0.00850698
0.00861581
0.0078817
0.00514165
0.0031784
0.00227969
0.00175746
0.00123228
0.000957181
0.000820766
0.000754618
0.000727941
0.000718689
0.000717325
0.000723816
0.000744916
0.000767743
0.000785785
0.000796051
0.00079927
0.000791744
0.000783855
0.000772589
0.000742377
0.000696057
0.000649513
0.000586486
0.000509219
0.00044876
0.00039632
0.000377608
0.000391393
0.000490594
0.000767251
0.00136496
0.0025056
0.00349727
0.00444712
0.00558581
0.00665163
0.00790622
0.00905368
0.0106485
0.0124014
0.0135431
0.0140219
0.0140437
0.0136381
0.011895
0.00984391
0.0083129
0.008022
0.00838945
0.0152086
0.0368976
0.0375484
0.0286867
0.0142384
0.00630529
0.00277983
0.00139884
0.000926657
0.000753636
0.000679494
0.000637162
0.000591769
0.000557301
0.000541319
0.000532891
0.000530408
0.000534837
0.000559653
0.000600696
0.000665801
0.000757569
0.000864642
0.000972486
0.00107151
0.00113829
0.00117686
0.00119387
0.00119554
0.00118121
0.00117742
0.0011712
0.00117027
0.0011864
0.00121154
0.0012438
0.00127846
0.00130425
0.00131451
0.00131606
0.00130447
0.00127793
0.00124272
0.00119418
0.001139
0.00107369
0.0010015
0.000927572
0.000856612
0.000790684
0.000730598
0.000677395
0.000631887
0.000595984
0.000571491
0.00055526
0.000544925
0.000539529
0.000537688
0.000537548
0.000537671
0.000537561
0.000536397
0.000532404
0.000524318
0.000507341
0.000462248
0.000385454
0.000321267
0.000281761
0.000262437
0.000253752
0.000242607
0.00021581
0.000185518
0.000166241
0.000157337
0.000154198
0.000152918
0.000151538
0.000149035
0.000143426
0.000129145
0.000111945
9.6885e-05
8.43284e-05
7.38328e-05
6.49671e-05
5.75119e-05
5.14346e-05
4.66317e-05
4.30356e-05
4.03359e-05
3.80856e-05
3.55649e-05
3.23313e-05
2.81991e-05
2.35153e-05
1.87711e-05
1.44314e-05
1.07978e-05
7.80026e-06
5.69912e-06
3.87725e-06
0.00339108
0.00602719
0.00597912
0.00781687
0.0109376
0.0127902
0.0140907
0.0151297
0.0152948
0.0150427
0.0140814
0.011529
0.00890871
0.00757579
0.00668996
0.00610394
0.00589754
0.00565297
0.00583383
0.00774843
0.00881765
0.00887955
0.00843461
0.0078989
0.00676046
0.00395742
0.002335
0.0016069
0.00126647
0.00107695
0.00093845
0.000881656
0.000860518
0.000859648
0.000920847
0.00100156
0.00110126
0.00122123
0.00132605
0.00141421
0.00145852
0.00147517
0.00146391
0.00141134
0.00132611
0.0012264
0.00110698
0.000976539
0.000869302
0.000764777
0.000645881
0.000521321
0.000407124
0.000353678
0.000311961
0.000290338
0.000317152
0.000446802
0.000791069
0.00162582
0.00262475
0.00368855
0.00493629
0.00698111
0.00860486
0.00962458
0.0109545
0.0126935
0.0136315
0.0138341
0.0137199
0.0129916
0.0107848
0.00897942
0.00840551
0.00848141
0.0109272
0.0242793
0.0205484
0.0115597
0.00551572
0.00256512
0.00135125
0.000903367
0.000740703
0.000672951
0.000631564
0.000585295
0.000553229
0.000541971
0.000539825
0.000544354
0.000575015
0.000650521
0.000796775
0.00102505
0.00133876
0.00172064
0.00213199
0.00245122
0.00262636
0.00271464
0.00275367
0.00276259
0.00271653
0.00262504
0.00257093
0.00247207
0.00237105
0.00231258
0.00225894
0.00222667
0.00219236
0.00213752
0.0020532
0.001964
0.00187401
0.00177699
0.00165069
0.00153293
0.00141857
0.00131017
0.0012131
0.00112926
0.00105924
0.00100075
0.000949405
0.000901311
0.000854341
0.000804669
0.000749874
0.000693903
0.000640453
0.000592819
0.000558665
0.000538924
0.000528559
0.000524729
0.000524193
0.000524455
0.000524367
0.000522901
0.00051736
0.000502181
0.000455517
0.000362289
0.000295279
0.000258681
0.000241994
0.00023406
0.000222007
0.000196611
0.00017487
0.000162955
0.000158073
0.000156439
0.000155758
0.000154793
0.000152556
0.000146375
0.000131925
0.000116775
0.000102948
9.09341e-05
8.07367e-05
7.21643e-05
6.48558e-05
5.88412e-05
5.42509e-05
5.11943e-05
4.91768e-05
4.72819e-05
4.45699e-05
4.03458e-05
3.49901e-05
2.87488e-05
2.29348e-05
1.6985e-05
1.25717e-05
8.00976e-06
0.00375949
0.00635082
0.00594517
0.00955845
0.0118292
0.013357
0.0147395
0.0158628
0.0166235
0.0165354
0.015655
0.0128536
0.00967958
0.00774345
0.00664052
0.00603003
0.00569607
0.00575141
0.00697787
0.00890507
0.00914375
0.00873871
0.00789801
0.00636736
0.00338728
0.00203843
0.00145286
0.00123036
0.00113587
0.00108529
0.00106269
0.00114585
0.001336
0.00161487
0.00199174
0.0023132
0.00262124
0.00284597
0.00301868
0.00311465
0.00316325
0.00317522
0.00308947
0.00296185
0.00278347
0.00252483
0.00218287
0.00181249
0.0015091
0.00120482
0.000978767
0.000749242
0.000544603
0.000420933
0.00034422
0.000274646
0.000243964
0.000227415
0.000262335
0.000401887
0.000764377
0.00161744
0.00307686
0.00582398
0.00839178
0.0096986
0.0101944
0.0110721
0.0126217
0.013494
0.0136269
0.0134754
0.0128147
0.0110582
0.00943023
0.0090856
0.0100643
0.0188711
0.0147241
0.00613547
0.00272731
0.0014048
0.000927178
0.000752814
0.000681067
0.000637458
0.000595369
0.000558358
0.000546585
0.000545065
0.000558756
0.00061412
0.000758466
0.00105314
0.0015763
0.0024247
0.0032444
0.00358333
0.00372098
0.00375647
0.00369531
0.00354116
0.00346294
0.00342659
0.00339924
0.0033893
0.00339125
0.00337328
0.0033459
0.00329425
0.00321716
0.00313048
0.00303561
0.00291425
0.00273226
0.00245754
0.00221187
0.00200226
0.00181965
0.00166533
0.00151025
0.00136599
0.00124563
0.00115209
0.00107713
0.00101869
0.000972468
0.000933695
0.000902432
0.00087544
0.000848571
0.000820117
0.000790857
0.000757626
0.000709691
0.000647637
0.000586635
0.000546132
0.00052776
0.000522887
0.000521843
0.000520079
0.000514676
0.000508338
0.000498151
0.000473596
0.000397616
0.00030744
0.000256392
0.000232938
0.00022307
0.00021535
0.000197921
0.000176588
0.000163221
0.000157149
0.000154951
0.000153974
0.000152934
0.000150865
0.000145655
0.000133506
0.000119777
0.000106518
9.47373e-05
8.5014e-05
7.70513e-05
7.02356e-05
6.4311e-05
5.93809e-05
5.58139e-05
5.32003e-05
5.13328e-05
4.86311e-05
4.5462e-05
4.02543e-05
3.53375e-05
2.84923e-05
2.36125e-05
1.66071e-05
0.00388038
0.00644645
0.00610105
0.0104434
0.0120862
0.0134848
0.0149753
0.0162679
0.0167919
0.0165788
0.0153987
0.0124437
0.00941438
0.00751006
0.00631248
0.00579469
0.00574356
0.00648726
0.00870749
0.00927569
0.00905172
0.0082354
0.00651978
0.00338546
0.00200074
0.00148335
0.0013195
0.00127216
0.0012708
0.00143737
0.00177429
0.00237592
0.00284922
0.00331999
0.00355535
0.00378657
0.00389699
0.00398741
0.00402945
0.004046
0.00404775
0.00402081
0.00399585
0.00395551
0.00389821
0.0037957
0.00364696
0.00340122
0.00292526
0.00237352
0.00183112
0.00137485
0.000925749
0.000619448
0.000461315
0.000331121
0.000252911
0.000207577
0.000186542
0.000180235
0.000218628
0.000353666
0.000757345
0.00242429
0.00670609
0.00983186
0.0109745
0.0109713
0.0110799
0.0123064
0.013324
0.0134535
0.0133357
0.0128532
0.0114883
0.0103074
0.0105194
0.0156824
0.0136072
0.00439935
0.00174845
0.00102135
0.000790486
0.000707601
0.000662113
0.000619161
0.000570979
0.000552561
0.000549494
0.000563436
0.000628444
0.000816901
0.00124709
0.00209041
0.00352536
0.00422606
0.00449071
0.00455347
0.00447251
0.00408847
0.00382778
0.00356988
0.0033037
0.00315732
0.00310148
0.00317155
0.00329312
0.00337439
0.00342205
0.00343959
0.00340306
0.00333347
0.00325343
0.00315698
0.00301331
0.00276087
0.00242007
0.00214666
0.0019347
0.00174126
0.00154848
0.00137776
0.0012386
0.00111228
0.0010047
0.000922201
0.000865156
0.000823243
0.000800171
0.000789893
0.000783538
0.00077715
0.000775622
0.000777075
0.000776365
0.000765918
0.000730826
0.000659266
0.000593813
0.000558409
0.000542392
0.00053419
0.000528814
0.000518934
0.00050519
0.000491849
0.000468316
0.00040452
0.000309298
0.000251376
0.000225219
0.000213485
0.000206297
0.000192335
0.000173438
0.000159541
0.000151952
0.000149158
0.000148168
0.000146997
0.000144513
0.000138388
0.000127344
0.000115577
0.000103863
9.30836e-05
8.41032e-05
7.68442e-05
7.08494e-05
6.52645e-05
6.04349e-05
5.60116e-05
5.31725e-05
5.04463e-05
4.88983e-05
4.57141e-05
4.30898e-05
3.74462e-05
3.3428e-05
2.60785e-05
0.00391306
0.00647515
0.0064299
0.0107418
0.0119029
0.0127104
0.0138168
0.0149556
0.0158503
0.0158388
0.0142912
0.0113107
0.00838107
0.00669296
0.00596091
0.00583305
0.00633577
0.00839871
0.00923549
0.00925112
0.00864474
0.00699482
0.00369707
0.00215005
0.00160284
0.00145129
0.00141193
0.00155198
0.00194377
0.00280834
0.00334005
0.00375794
0.00397515
0.00411208
0.00417297
0.00420098
0.00420725
0.00419695
0.00417375
0.00414621
0.00411926
0.00409765
0.00408524
0.00407749
0.00407417
0.00405878
0.00402444
0.0039907
0.00390436
0.00366783
0.00321634
0.00261237
0.00190688
0.00114281
0.000701411
0.000490928
0.000331628
0.000236818
0.000187008
0.000162288
0.000149844
0.000156892
0.00021229
0.000502254
0.00219816
0.00756024
0.0110003
0.0120499
0.0117713
0.0112248
0.0118266
0.013052
0.013267
0.0131684
0.0127617
0.0115433
0.0112913
0.0141399
0.0133803
0.00478296
0.0014223
0.000880649
0.000750599
0.000694855
0.000653498
0.000597194
0.00056164
0.000554111
0.000560211
0.000612158
0.000790402
0.00127055
0.00241639
0.00418813
0.0049353
0.00520675
0.00528803
0.00530816
0.00507066
0.00486616
0.0044117
0.00371562
0.00321007
0.00274086
0.00244209
0.00230057
0.00228008
0.00247375
0.00277805
0.00308921
0.00325363
0.00329098
0.00325242
0.00318107
0.00306523
0.00285421
0.00251265
0.00221195
0.00198793
0.00177526
0.00155929
0.00135571
0.00114949
0.000953469
0.000782164
0.000644452
0.000560641
0.000507816
0.000488774
0.000492228
0.000511967
0.000572069
0.000627463
0.000660302
0.000689772
0.000720485
0.000740439
0.000742925
0.00072471
0.000658032
0.000608218
0.000579577
0.000566797
0.000554396
0.00053273
0.000512502
0.000497294
0.000470118
0.00039765
0.000300083
0.000241149
0.00021465
0.000202642
0.000195301
0.000183597
0.000166942
0.000153474
0.000144767
0.000140614
0.000138993
0.000137772
0.000135182
0.000128785
0.000119362
0.000109471
9.9259e-05
8.96367e-05
8.133e-05
7.49064e-05
6.92976e-05
6.46259e-05
5.95691e-05
5.57115e-05
5.16254e-05
4.95316e-05
4.68806e-05
4.54157e-05
4.22799e-05
3.99351e-05
3.45316e-05
0.00387234
0.00643023
0.00691295
0.0104544
0.0116387
0.012301
0.0127732
0.0131305
0.0133219
0.0131411
0.0114035
0.00883748
0.00712643
0.00636473
0.00607186
0.00638824
0.00818196
0.00915154
0.00927626
0.00896972
0.0075703
0.00428933
0.00242868
0.00178215
0.00160851
0.00157023
0.00181692
0.00254847
0.00340145
0.00381186
0.00401682
0.004114
0.00414263
0.00413964
0.0040923
0.00401407
0.00394684
0.00388554
0.00385199
0.00383078
0.00381784
0.00379552
0.00376645
0.00372265
0.00370334
0.00376375
0.00388985
0.00401713
0.00411707
0.00402861
0.00383963
0.00347702
0.00310917
0.0023131
0.00130476
0.000786928
0.000503491
0.000320225
0.000216135
0.000166469
0.000145129
0.000133211
0.0001338
0.000171974
0.000463352
0.00233939
0.0080457
0.0116287
0.0129164
0.0125326
0.0111835
0.011413
0.0126411
0.0130141
0.0128873
0.0121926
0.0117112
0.0134088
0.0132137
0.0056612
0.00149549
0.000865335
0.000748883
0.00069437
0.000645479
0.000585186
0.000561441
0.000558618
0.000585396
0.000704574
0.00110156
0.00221231
0.0040745
0.00554532
0.006137
0.0064575
0.00715522
0.00765962
0.0079358
0.00801386
0.00698842
0.00597583
0.00443057
0.00327472
0.00251502
0.0021413
0.00195481
0.00187101
0.00190623
0.00211566
0.00256448
0.00288984
0.00302006
0.00304223
0.00299822
0.00285597
0.00253549
0.00222701
0.00200141
0.00178406
0.00153478
0.00124202
0.000956281
0.000690744
0.000491976
0.000398771
0.000362881
0.000352589
0.000358334
0.000378544
0.000426587
0.000551217
0.000649339
0.000683916
0.000691163
0.000687664
0.000684992
0.00069961
0.000720357
0.000722438
0.000713448
0.000674073
0.000633767
0.000616704
0.000602033
0.000567161
0.000533435
0.000511781
0.000472183
0.000377107
0.000281305
0.000226373
0.000201123
0.000190333
0.000183021
0.000173533
0.000158944
0.000145788
0.000136463
0.000131414
0.000129033
0.000127625
0.000125118
0.000119309
0.00011161
0.000103229
9.44782e-05
8.55618e-05
7.81643e-05
7.19039e-05
6.74635e-05
6.26708e-05
5.88998e-05
5.42858e-05
5.11579e-05
4.76611e-05
4.59406e-05
4.34555e-05
4.2075e-05
3.9168e-05
0.00366102
0.00625928
0.00712294
0.0100098
0.0107801
0.0113525
0.011614
0.0116876
0.0111355
0.010385
0.00904458
0.00767526
0.00693638
0.00656974
0.00678406
0.00818609
0.00904176
0.00923008
0.00909161
0.00807589
0.00507095
0.00281511
0.0019978
0.00176377
0.00171259
0.00196421
0.00286835
0.00362969
0.00397253
0.00411528
0.00417328
0.00419176
0.00419161
0.00414808
0.00409425
0.00405207
0.00404049
0.00407214
0.00410387
0.00411705
0.00411711
0.00408073
0.00399505
0.00385569
0.00367396
0.00353836
0.00345601
0.00342541
0.00369775
0.00398675
0.00403014
0.00377009
0.00350657
0.00317197
0.00231762
0.00127089
0.000759086
0.000469017
0.000285183
0.000188299
0.000146641
0.000129892
0.000122189
0.000124313
0.00017006
0.000552956
0.00280362
0.00803663
0.0121422
0.0137303
0.0132783
0.0113054
0.0112428
0.0121459
0.0126248
0.0122129
0.0117612
0.012964
0.0130227
0.00689981
0.00172188
0.000885565
0.000754212
0.000697238
0.000634574
0.000578349
0.000562219
0.000565535
0.000621079
0.000890008
0.00176344
0.00337873
0.00531788
0.00679714
0.00757303
0.00903246
0.0113403
0.0138376
0.0156273
0.0162056
0.0143483
0.011604
0.00871692
0.00575016
0.00369537
0.00255481
0.0020169
0.00181081
0.00174426
0.00177599
0.0019642
0.00234222
0.00261537
0.00271031
0.00271794
0.00268022
0.00247101
0.00219114
0.00198471
0.00175289
0.00142324
0.00106104
0.000718698
0.000493463
0.000377357
0.000333273
0.000325226
0.000329325
0.00034691
0.000396952
0.000532937
0.000931756
0.00129896
0.00138886
0.00136687
0.00127401
0.00102557
0.000782187
0.000684886
0.000678504
0.000699925
0.00071906
0.000717368
0.000692277
0.000666671
0.00064443
0.000591595
0.000548136
0.000516375
0.000448472
0.000340959
0.000254573
0.000207987
0.000186027
0.000177131
0.000170818
0.000163104
0.000149998
0.000137334
0.000127777
0.000122151
0.000119304
0.00011785
0.00011592
0.000111622
0.000104987
9.78219e-05
8.97211e-05
8.19849e-05
7.45172e-05
6.92212e-05
6.4473e-05
6.11647e-05
5.71559e-05
5.39251e-05
4.98819e-05
4.7178e-05
4.41106e-05
4.25147e-05
4.05543e-05
0.00347774
0.00608432
0.00719948
0.00964686
0.010343
0.0106155
0.0107116
0.0105393
0.00995028
0.00927427
0.00839208
0.00769462
0.00734235
0.00761753
0.00851544
0.00900742
0.00913326
0.00908159
0.00835494
0.00585531
0.00327325
0.00223282
0.00190005
0.0018273
0.00199602
0.00279652
0.00367232
0.00403839
0.00419307
0.00426688
0.00431134
0.00432957
0.00432693
0.00430508
0.00429342
0.00427272
0.00426469
0.00426377
0.00428763
0.0042966
0.00433525
0.00437272
0.00439759
0.00441458
0.004331
0.00403387
0.00362206
0.0033555
0.00326887
0.00332946
0.00374561
0.00387384
0.00362111
0.00341593
0.00291657
0.00186841
0.0010512
0.000618219