/*--------------------------------*- C++ -*----------------------------------*\
  =========                 |
  \\      /  F ield         | OpenFOAM: The Open Source CFD Toolbox
   \\    /   O peration     | Website:  https://openfoam.org
    \\  /    A nd           | Version:  7
     \\/     M anipulation  |
\*---------------------------------------------------------------------------*/
FoamFile
{
    version     2.0;
    format      ascii;
    class       surfaceScalarField;
    location    "0.096";
    object      phi_0;
}
// * * * * * * * * * * * * * * * * * * * * * * * * * * * * * * * * * * * * * //

dimensions      [0 3 -1 0 0 0 0];

internalField   nonuniform List<scalar> 
24170
(
1.3592e-06
2.12041e-07
1.22352e-06
1.35681e-07
1.09701e-06
1.26507e-07
9.82575e-07
1.14438e-07
8.74487e-07
1.08088e-07
7.7354e-07
1.00947e-07
6.78395e-07
9.51451e-08
5.84857e-07
9.35374e-08
4.92248e-07
9.26095e-08
4.05309e-07
8.69385e-08
3.2923e-07
7.60795e-08
2.66808e-07
6.24223e-08
2.17084e-07
4.97232e-08
1.77026e-07
4.00584e-08
1.42009e-07
3.50173e-08
1.08881e-07
3.31281e-08
8.08395e-08
2.80411e-08
1.53002e-08
6.55393e-08
1.64624e-06
2.88698e-07
1.61855e-06
1.6338e-07
1.58555e-06
1.59505e-07
1.54948e-06
1.50501e-07
1.51339e-06
1.44179e-07
1.47696e-06
1.37382e-07
1.43797e-06
1.34132e-07
1.39174e-06
1.39773e-07
1.33577e-06
1.48581e-07
1.27247e-06
1.50231e-07
1.20831e-06
1.40245e-07
1.14753e-06
1.23204e-07
1.0912e-06
1.06048e-07
1.03573e-06
9.55336e-08
9.78894e-07
9.18499e-08
9.20717e-07
9.13047e-08
8.57091e-07
9.16677e-08
8.5228e-08
7.87163e-07
1.78255e-06
3.5539e-07
1.74676e-06
1.99171e-07
1.72779e-06
1.78478e-07
1.7134e-06
1.64884e-07
1.70294e-06
1.54646e-07
1.69453e-06
1.45792e-07
1.6873e-06
1.41356e-07
1.68053e-06
1.4654e-07
1.67165e-06
1.57467e-07
1.65767e-06
1.64208e-07
1.63791e-06
1.60009e-07
1.61381e-06
1.47297e-07
1.58692e-06
1.32937e-07
1.55837e-06
1.24088e-07
1.52772e-06
1.22497e-07
1.49471e-06
1.24317e-07
1.45651e-06
1.29865e-07
1.29267e-07
1.41248e-06
1.8995e-06
3.23518e-07
1.87618e-06
2.22497e-07
1.87153e-06
1.83129e-07
1.87306e-06
1.63352e-07
1.87107e-06
1.56638e-07
1.86153e-06
1.55332e-07
1.84806e-06
1.5482e-07
1.83774e-06
1.56866e-07
1.83353e-06
1.61675e-07
1.83311e-06
1.64621e-07
1.83199e-06
1.61135e-07
1.8275e-06
1.51789e-07
1.81903e-06
1.41403e-07
1.80828e-06
1.34839e-07
1.79616e-06
1.34615e-07
1.78291e-06
1.37571e-07
1.7687e-06
1.44076e-07
1.47556e-07
1.75041e-06
2.07831e-06
4.23375e-07
2.04218e-06
2.58629e-07
2.02762e-06
1.97692e-07
2.01736e-06
1.73609e-07
2.00783e-06
1.66173e-07
1.9974e-06
1.65756e-07
1.98823e-06
1.63989e-07
1.98386e-06
1.61235e-07
1.98555e-06
1.59993e-07
1.99143e-06
1.58741e-07
1.99774e-06
1.54823e-07
2.00124e-06
1.48287e-07
2.00032e-06
1.42323e-07
1.99524e-06
1.3992e-07
1.98734e-06
1.42517e-07
1.97743e-06
1.47477e-07
1.96726e-06
1.54253e-07
1.59744e-07
1.95507e-06
2.25185e-06
4.41601e-07
2.22885e-06
2.81631e-07
2.20279e-06
2.23751e-07
2.17885e-06
1.9755e-07
2.15859e-06
1.86437e-07
2.14215e-06
1.82188e-07
2.13079e-06
1.75351e-07
2.12558e-06
1.66452e-07
2.12667e-06
1.58897e-07
2.13289e-06
1.52527e-07
2.14167e-06
1.46043e-07
2.14995e-06
1.40005e-07
2.15518e-06
1.37094e-07
2.15579e-06
1.39309e-07
2.15183e-06
1.46476e-07
2.14367e-06
1.55633e-07
2.13313e-06
1.64798e-07
1.72038e-07
2.12083e-06
2.40714e-06
5.26706e-07
2.38724e-06
3.01528e-07
2.37671e-06
2.34283e-07
2.36439e-06
2.0987e-07
2.35103e-06
1.99797e-07
2.34009e-06
1.93125e-07
2.33076e-06
1.84679e-07
2.32105e-06
1.76166e-07
2.31152e-06
1.68425e-07
2.30406e-06
1.5999e-07
2.29927e-06
1.50832e-07
2.29606e-06
1.43218e-07
2.29295e-06
1.40197e-07
2.28929e-06
1.42968e-07
2.28547e-06
1.50296e-07
2.28178e-06
1.59327e-07
2.27904e-06
1.67537e-07
1.74158e-07
2.27692e-06
2.58581e-06
4.83037e-07
2.58887e-06
2.98463e-07
2.58361e-06
2.3955e-07
2.57294e-06
2.20533e-07
2.56402e-06
2.08726e-07
2.55769e-06
1.99455e-07
2.54934e-06
1.93029e-07
2.53672e-06
1.88784e-07
2.52164e-06
1.83502e-07
2.50675e-06
1.74886e-07
2.49319e-06
1.64386e-07
2.48081e-06
1.55598e-07
2.46945e-06
1.51562e-07
2.45971e-06
1.52704e-07
2.45275e-06
1.57252e-07
2.44922e-06
1.62858e-07
2.44927e-06
1.67485e-07
1.71346e-07
2.45209e-06
2.79236e-06
4.50606e-07
2.78374e-06
3.07086e-07
2.7565e-06
2.66792e-07
2.72738e-06
2.49647e-07
2.70333e-06
2.32781e-07
2.68735e-06
2.15433e-07
2.68015e-06
2.0023e-07
2.68056e-06
1.8837e-07
2.68501e-06
1.79051e-07
2.68876e-06
1.71142e-07
2.68868e-06
1.64464e-07
2.68463e-06
1.59648e-07
2.67866e-06
1.5753e-07
2.67337e-06
1.57995e-07
2.67038e-06
1.60243e-07
2.6701e-06
1.6314e-07
2.6717e-06
1.65883e-07
1.6888e-07
2.67417e-06
3.00344e-06
4.47272e-07
2.97228e-06
3.3825e-07
2.94344e-06
2.95631e-07
2.92991e-06
2.63178e-07
2.92303e-06
2.39657e-07
2.91556e-06
2.22904e-07
2.90935e-06
2.06441e-07
2.90747e-06
1.9025e-07
2.90877e-06
1.77753e-07
2.90936e-06
1.70547e-07
2.90661e-06
1.67214e-07
2.90084e-06
1.65419e-07
2.89448e-06
1.63894e-07
2.89012e-06
1.62352e-07
2.88911e-06
1.61252e-07
2.89128e-06
1.60965e-07
2.89537e-06
1.618e-07
1.64309e-07
2.89994e-06
3.13492e-06
4.62478e-07
3.1312e-06
3.41962e-07
3.14306e-06
2.83774e-07
3.14546e-06
2.60778e-07
3.14154e-06
2.43582e-07
3.13749e-06
2.26949e-07
3.13367e-06
2.10258e-07
3.12848e-06
1.95445e-07
3.12266e-06
1.8357e-07
3.11869e-06
1.74516e-07
3.11811e-06
1.67793e-07
3.12017e-06
1.6336e-07
3.12275e-06
1.61314e-07
3.12374e-06
1.61365e-07
3.12231e-06
1.62683e-07
3.11864e-06
1.64631e-07
3.11378e-06
1.6666e-07
1.69371e-07
3.10872e-06
2.86883e-06
4.9041e-07
2.85888e-06
3.51921e-07
2.85768e-06
2.84973e-07
2.85196e-06
2.66495e-07
2.83978e-06
2.5576e-07
2.82773e-06
2.39002e-07
2.81891e-06
2.19076e-07
2.81301e-06
2.01342e-07
2.8088e-06
1.87784e-07
2.80565e-06
1.77664e-07
2.8037e-06
1.69747e-07
2.80339e-06
1.63667e-07
2.80506e-06
1.59646e-07
2.80853e-06
1.57894e-07
2.81302e-06
1.58198e-07
2.81754e-06
1.6011e-07
2.82096e-06
1.63233e-07
1.67476e-07
2.82286e-06
3.50097e-06
5.09576e-07
3.46521e-06
3.87677e-07
3.45034e-06
2.99844e-07
3.44564e-06
2.71192e-07
3.43855e-06
2.62856e-07
3.43038e-06
2.47164e-07
3.42605e-06
2.23411e-07
3.42764e-06
1.99746e-07
3.43396e-06
1.81467e-07
3.44202e-06
1.69609e-07
3.44919e-06
1.62573e-07
3.4544e-06
1.58454e-07
3.45807e-06
1.5598e-07
3.46103e-06
1.54938e-07
3.46372e-06
1.55506e-07
3.46597e-06
1.57857e-07
3.46725e-06
1.61957e-07
1.67635e-07
3.46709e-06
4.22634e-06
4.44288e-07
4.24976e-06
3.64258e-07
4.24127e-06
3.08331e-07
4.23322e-06
2.7924e-07
4.22605e-06
2.70034e-07
4.21343e-06
2.59779e-07
4.19949e-06
2.37351e-07
4.19257e-06
2.06668e-07
4.19562e-06
1.78414e-07
4.20542e-06
1.59817e-07
4.21684e-06
1.51148e-07
4.2265e-06
1.48798e-07
4.2335e-06
1.48973e-07
4.2385e-06
1.49943e-07
4.24236e-06
1.51642e-07
4.24551e-06
1.54712e-07
4.24815e-06
1.59317e-07
1.65255e-07
4.25053e-06
5.11052e-06
4.0996e-07
5.12371e-06
3.51066e-07
5.12996e-06
3.02079e-07
5.12865e-06
2.80551e-07
5.12282e-06
2.75864e-07
5.12038e-06
2.62219e-07
5.12749e-06
2.30242e-07
5.14229e-06
1.91865e-07
5.15828e-06
1.62431e-07
5.17004e-06
1.48049e-07
5.17584e-06
1.45354e-07
5.17687e-06
1.47768e-07
5.17567e-06
1.50168e-07
5.17458e-06
1.51034e-07
5.17517e-06
1.51057e-07
5.1779e-06
1.51974e-07
5.18289e-06
1.54336e-07
1.58932e-07
5.18921e-06
6.35145e-06
4.35507e-07
6.34172e-06
3.60794e-07
6.3207e-06
3.23101e-07
6.30489e-06
2.96352e-07
6.30173e-06
2.79032e-07
6.31091e-06
2.53038e-07
6.32338e-06
2.17771e-07
6.32995e-06
1.8529e-07
6.32772e-06
1.64668e-07
6.31989e-06
1.55872e-07
6.3119e-06
1.53344e-07
6.30776e-06
1.51912e-07
6.30895e-06
1.48981e-07
6.31503e-06
1.44951e-07
6.32459e-06
1.41492e-07
6.33635e-06
1.40216e-07
6.34939e-06
1.41297e-07
1.44537e-07
6.36378e-06
7.77905e-06
5.30444e-07
7.72761e-06
4.12225e-07
7.70756e-06
3.43154e-07
7.68516e-06
3.18749e-07
7.67517e-06
2.89027e-07
7.68827e-06
2.39934e-07
7.71509e-06
1.90959e-07
7.74034e-06
1.60037e-07
7.75553e-06
1.49475e-07
7.76115e-06
1.50253e-07
7.76236e-06
1.52134e-07
7.76465e-06
1.4962e-07
7.77145e-06
1.42181e-07
7.78392e-06
1.3248e-07
7.80136e-06
1.24056e-07
7.82212e-06
1.19452e-07
7.84436e-06
1.19061e-07
1.2289e-07
7.86601e-06
9.32268e-06
4.90135e-07
9.37733e-06
3.5758e-07
9.40574e-06
3.14745e-07
9.43401e-06
2.90474e-07
9.46866e-06
2.54374e-07
9.4981e-06
2.10493e-07
9.51632e-06
1.72744e-07
9.52677e-06
1.49582e-07
9.53594e-06
1.40308e-07
9.54757e-06
1.38621e-07
9.56133e-06
1.38374e-07
9.57457e-06
1.3638e-07
9.58474e-06
1.32012e-07
9.59102e-06
1.26208e-07
9.59499e-06
1.20077e-07
9.59948e-06
1.14966e-07
9.60759e-06
1.10953e-07
1.08893e-07
9.62159e-06
1.15512e-05
4.64226e-07
1.15181e-05
3.90645e-07
1.15146e-05
3.18218e-07
1.15462e-05
2.58882e-07
1.15833e-05
2.17269e-07
1.16034e-05
1.90476e-07
1.1602e-05
1.74136e-07
1.15922e-05
1.59303e-07
1.15911e-05
1.41436e-07
1.16084e-05
1.21353e-07
1.16448e-05
1.01966e-07
1.1695e-05
8.62136e-08
1.17512e-05
7.57638e-08
1.18067e-05
7.06949e-08
1.18568e-05
6.9956e-08
1.18996e-05
7.2249e-08
1.19344e-05
7.60684e-08
8.06688e-08
1.19627e-05
8.32844e-06
4.49293e-07
8.37245e-06
3.46626e-07
8.45366e-06
2.37011e-07
8.52953e-06
1.83016e-07
8.5762e-06
1.70597e-07
8.58536e-06
1.81315e-07
8.56742e-06
1.92073e-07
8.53848e-06
1.88246e-07
8.51345e-06
1.66467e-07
8.50257e-06
1.32237e-07
8.50965e-06
9.48804e-08
8.53248e-06
6.33828e-08
8.56519e-06
4.30602e-08
8.6009e-06
3.49847e-08
8.63458e-06
3.6276e-08
8.66389e-06
4.29341e-08
8.68899e-06
5.09719e-08
5.80065e-08
8.71165e-06
7.30356e-06
3.36686e-07
7.38241e-06
2.67777e-07
7.40152e-06
2.17898e-07
7.39839e-06
1.86144e-07
7.39453e-06
1.74462e-07
7.41016e-06
1.6568e-07
7.45179e-06
1.50442e-07
7.51276e-06
1.27281e-07
7.57875e-06
1.00473e-07
7.63545e-06
7.55375e-08
7.67374e-06
5.65905e-08
7.69136e-06
4.57632e-08
7.69156e-06
4.28648e-08
7.68037e-06
4.6176e-08
7.66454e-06
5.21024e-08
7.65003e-06
5.74464e-08
7.64141e-06
5.95915e-08
5.75726e-08
7.64184e-06
6.44798e-06
4.58656e-07
6.43934e-06
2.76415e-07
6.4639e-06
1.93342e-07
6.48154e-06
1.68495e-07
6.51439e-06
1.41613e-07
6.56742e-06
1.1265e-07
6.62423e-06
9.36358e-08
6.66472e-06
8.67922e-08
6.68035e-06
8.48392e-08
6.67592e-06
7.99699e-08
6.66264e-06
6.98709e-08
6.65118e-06
5.72256e-08
6.64794e-06
4.61003e-08
6.65507e-06
3.90461e-08
6.67153e-06
3.56413e-08
6.69494e-06
3.40409e-08
6.72254e-06
3.19937e-08
2.86109e-08
6.7515e-06
5.58624e-06
4.08529e-07
5.61257e-06
2.50083e-07
5.63861e-06
1.67306e-07
5.67594e-06
1.3116e-07
5.7221e-06
9.54507e-08
5.76716e-06
6.75965e-08
5.80055e-06
6.024e-08
5.81806e-06
6.92871e-08
5.82289e-06
8.00066e-08
5.82189e-06
8.09735e-08
5.82133e-06
7.04288e-08
5.82521e-06
5.33494e-08
5.83524e-06
3.60679e-08
5.85189e-06
2.23978e-08
5.87446e-06
1.30659e-08
5.90138e-06
7.1192e-09
5.93041e-06
2.96428e-09
-1.60385e-10
5.95918e-06
4.85167e-06
3.16177e-07
4.91322e-06
1.88529e-07
4.93169e-06
1.48834e-07
4.94776e-06
1.15099e-07
4.9726e-06
7.06014e-08
5.00289e-06
3.73156e-08
5.03318e-06
2.99441e-08
5.06396e-06
3.85056e-08
5.09841e-06
4.5559e-08
5.13705e-06
4.23325e-08
5.17659e-06
3.08877e-08
5.21249e-06
1.74476e-08
5.24156e-06
7.00181e-09
5.263e-06
9.53844e-10
5.27751e-06
-1.44106e-09
5.28717e-06
-2.53734e-09
5.29363e-06
-3.49572e-09
-4.73896e-09
5.29821e-06
4.22047e-06
2.41913e-07
4.29792e-06
1.11079e-07
4.35027e-06
9.64779e-08
4.37773e-06
8.76437e-08
4.39006e-06
5.82658e-08
4.39639e-06
3.09881e-08
4.40545e-06
2.08815e-08
4.4222e-06
2.1763e-08
4.4462e-06
2.1559e-08
4.47411e-06
1.44206e-08
4.50253e-06
2.46133e-09
4.53049e-06
-1.05057e-08
4.55677e-06
-1.92761e-08
4.58088e-06
-2.31649e-08
4.60242e-06
-2.29806e-08
4.62049e-06
-2.06051e-08
4.63459e-06
-1.75914e-08
-1.5017e-08
4.64486e-06
3.7274e-06
1.91749e-07
3.77712e-06
6.13581e-08
3.82639e-06
4.72036e-08
3.86104e-06
5.29987e-08
3.88128e-06
3.8026e-08
3.89339e-06
1.88761e-08
3.908e-06
6.2726e-09
3.92988e-06
-1.16694e-10
3.95554e-06
-4.10334e-09
3.97897e-06
-9.01247e-09
3.99641e-06
-1.49765e-08
4.00769e-06
-2.17843e-08
4.01646e-06
-2.80415e-08
4.02592e-06
-3.26317e-08
4.03761e-06
-3.4666e-08
4.05113e-06
-3.41304e-08
4.06514e-06
-3.16003e-08
-2.79e-08
4.07803e-06
3.27926e-06
1.56812e-07
3.31902e-06
2.15976e-08
3.33649e-06
2.97275e-08
3.36281e-06
2.66837e-08
3.39561e-06
5.22521e-09
3.43012e-06
-1.56368e-08
3.45867e-06
-2.22784e-08
3.47851e-06
-1.99473e-08
3.49045e-06
-1.60449e-08
3.49701e-06
-1.55769e-08
3.50147e-06
-1.94327e-08
3.50574e-06
-2.60555e-08
3.51074e-06
-3.30453e-08
3.51671e-06
-3.85966e-08
3.52359e-06
-4.15502e-08
3.53123e-06
-4.17691e-08
3.5394e-06
-3.97716e-08
-3.6488e-08
3.54799e-06
2.83962e-06
8.54009e-08
2.8718e-06
-1.05876e-08
2.90173e-06
-1.9861e-10
2.94607e-06
-1.76588e-08
2.98986e-06
-3.85651e-08
3.02112e-06
-4.69003e-08
3.04098e-06
-4.21384e-08
3.05523e-06
-3.41983e-08
3.06926e-06
-3.00716e-08
3.08461e-06
-3.09299e-08
3.09967e-06
-3.44885e-08
3.11198e-06
-3.83643e-08
3.12036e-06
-4.1429e-08
3.1254e-06
-4.36371e-08
3.12871e-06
-4.48599e-08
3.13193e-06
-4.49848e-08
3.13615e-06
-4.39918e-08
-4.2083e-08
3.14174e-06
2.53034e-06
1.67719e-08
2.55476e-06
-3.50108e-08
2.58141e-06
-2.68426e-08
2.61391e-06
-5.01603e-08
2.63646e-06
-6.11186e-08
2.64548e-06
-5.59246e-08
2.64898e-06
-4.56355e-08
2.65404e-06
-3.92516e-08
2.66241e-06
-3.84471e-08
2.67202e-06
-4.054e-08
2.68009e-06
-4.25597e-08
2.68505e-06
-4.33241e-08
2.68675e-06
-4.31308e-08
2.68572e-06
-4.26065e-08
2.68258e-06
-4.17143e-08
2.6778e-06
-4.02043e-08
2.67166e-06
-3.78507e-08
-3.50216e-08
2.66459e-06
2.19317e-06
2.15816e-06
2.13132e-06
2.08116e-06
2.02004e-06
1.96411e-06
1.91848e-06
1.87923e-06
1.84078e-06
1.80024e-06
1.75768e-06
1.71436e-06
1.67122e-06
1.62862e-06
1.5869e-06
1.5467e-06
1.50885e-06
1.47383e-06
-9.40574e-08
9.40574e-08
-1.52857e-07
5.88e-08
-1.05025e-07
-4.78322e-08
1.85636e-08
-1.23589e-07
1.6506e-07
-1.46497e-07
2.93652e-07
-1.28592e-07
3.75275e-07
-8.16227e-08
3.91194e-07
-1.59188e-08
3.38808e-07
5.2386e-08
2.25998e-07
1.1281e-07
7.71266e-08
1.48872e-07
-7.59264e-08
1.53053e-07
-2.10201e-07
1.34275e-07
-3.19511e-07
1.0931e-07
-4.15185e-07
9.56739e-08
-5.14597e-07
9.94115e-08
-6.158e-07
1.01203e-07
-7.03365e-07
8.75652e-08
-7.74605e-07
7.12398e-08
-8.30053e-07
5.54485e-08
-8.63691e-07
3.36383e-08
-8.8011e-07
1.64187e-08
-9.06329e-07
2.6219e-08
-9.762e-07
6.98707e-08
-1.11117e-06
1.3497e-07
-1.30372e-06
1.92553e-07
-1.50614e-06
2.02413e-07
-1.67154e-06
1.65405e-07
-1.81883e-06
1.47288e-07
-2.00658e-06
1.87753e-07
-2.24606e-06
2.39474e-07
-2.4989e-06
2.52848e-07
-2.73797e-06
2.39069e-07
-2.96359e-06
2.25614e-07
-3.17427e-06
2.10684e-07
-3.35741e-06
1.83142e-07
-3.50548e-06
1.48071e-07
-3.62089e-06
1.15405e-07
-3.70678e-06
8.58906e-08
-3.76253e-06
5.5748e-08
-3.7863e-06
2.37761e-08
-3.7777e-06
-8.6e-09
-3.73774e-06
-3.99617e-08
-3.66737e-06
-7.03698e-08
-3.56715e-06
-1.00224e-07
-3.43764e-06
-1.29508e-07
-3.27947e-06
-1.58174e-07
-3.09333e-06
-1.86134e-07
-2.8795e-06
-2.13829e-07
-2.63702e-06
-2.42484e-07
-2.36317e-06
-2.73845e-07
-2.05324e-06
-3.09928e-07
-1.70083e-06
-3.52411e-07
-1.29993e-06
-4.00901e-07
-8.50645e-07
-4.49288e-07
-3.6532e-07
-4.85325e-07
1.12091e-07
-4.77411e-07
5.22498e-07
-4.10407e-07
8.91415e-07
-3.68917e-07
1.25007e-06
-3.58656e-07
1.57388e-06
-3.23811e-07
1.83371e-06
-2.59825e-07
2.02292e-06
-1.89209e-07
2.11676e-06
-9.38461e-08
1.99453e-06
1.22236e-07
1.61907e-06
3.75458e-07
1.21848e-06
4.00592e-07
9.75761e-07
2.42715e-07
8.36138e-07
1.39623e-07
6.91006e-07
1.45132e-07
4.69019e-07
2.21987e-07
1.87572e-07
2.81447e-07
-9.02903e-08
2.77862e-07
-2.89993e-07
1.99703e-07
-2.18001e-07
-7.19921e-08
2.32626e-07
-4.50627e-07
8.04945e-07
-5.72319e-07
1.16636e-06
-3.61412e-07
1.2286e-06
-6.22458e-08
1.14027e-06
8.83358e-08
1.103e-06
3.72698e-08
1.16682e-06
-6.38208e-08
1.22167e-06
-5.48515e-08
1.14592e-06
7.57516e-08
8.51984e-07
2.93934e-07
3.36405e-07
5.15579e-07
-2.98752e-07
6.35157e-07
-9.65716e-07
6.66963e-07
-1.61448e-06
6.48768e-07
-2.21915e-06
6.04665e-07
-2.76773e-06
5.48579e-07
-3.25581e-06
4.88087e-07
-3.683e-06
4.27188e-07
-4.05061e-06
3.6761e-07
-4.3606e-06
3.09984e-07
-4.61523e-06
2.54633e-07
-4.81689e-06
2.01658e-07
-4.9678e-06
1.50914e-07
-5.07023e-06
1.02427e-07
-5.12689e-06
5.66626e-08
-5.14133e-06
1.44389e-08
-5.11983e-06
-2.14958e-08
-5.06685e-06
-5.29809e-08
-4.98661e-06
-8.02468e-08
-4.88349e-06
-1.03112e-07
-4.76107e-06
-1.22421e-07
-4.6225e-06
-1.38575e-07
-4.46989e-06
-1.52609e-07
-4.30434e-06
-1.65553e-07
-4.12581e-06
-1.78527e-07
-3.93311e-06
-1.92695e-07
-3.72413e-06
-2.08987e-07
-3.49624e-06
-2.2789e-07
-3.24709e-06
-2.49147e-07
-2.97549e-06
-2.71594e-07
-2.68227e-06
-2.93223e-07
-2.37072e-06
-3.11555e-07
-2.04661e-06
-3.24106e-07
-1.71755e-06
-3.29058e-07
-1.3916e-06
-3.25956e-07
-1.07598e-06
-3.15617e-07
-7.76511e-07
-2.99469e-07
-4.96626e-07
-2.79886e-07
-2.37588e-07
-2.59038e-07
-5.14734e-10
-2.37073e-07
2.18717e-07
-2.19232e-07
4.19e-07
-2.00282e-07
6.02281e-07
-1.83281e-07
7.70233e-07
-1.67952e-07
9.24357e-07
-1.54124e-07
1.06586e-06
-1.41505e-07
1.19557e-06
-1.29707e-07
1.31388e-06
-1.1831e-07
1.42081e-06
-1.06928e-07
1.51612e-06
-9.53167e-08
1.59945e-06
-8.33287e-08
1.67022e-06
-7.07632e-08
1.72807e-06
-5.78538e-08
1.77315e-06
-4.50855e-08
1.80539e-06
-3.22319e-08
1.82513e-06
-1.97421e-08
1.83284e-06
-7.7119e-09
1.82723e-06
5.6064e-09
1.80611e-06
2.11225e-08
1.76826e-06
3.78518e-08
1.71359e-06
5.46668e-08
1.64291e-06
7.06855e-08
1.55724e-06
8.56641e-08
1.45757e-06
9.96733e-08
1.34621e-06
1.11356e-07
1.22892e-06
1.17298e-07
1.11468e-06
1.14239e-07
1.01291e-06
1.01771e-07
9.30036e-07
8.28705e-08
8.67614e-07
6.24222e-08
8.23224e-07
4.43901e-08
7.92604e-07
3.06198e-08
7.71458e-07
2.11462e-08
7.56411e-07
1.50469e-08
7.45255e-07
1.11565e-08
7.36594e-07
8.66062e-09
7.29691e-07
6.90306e-09
7.24078e-07
5.61296e-09
7.19398e-07
4.67998e-09
7.15273e-07
4.12541e-09
7.11387e-07
3.8858e-09
7.07377e-07
4.0103e-09
7.03009e-07
4.3676e-09
6.97878e-07
5.13118e-09
6.9191e-07
5.96795e-09
6.84445e-07
7.46455e-09
6.75715e-07
8.73061e-09
6.64159e-07
1.15552e-08
6.50985e-07
1.3174e-08
6.3195e-07
1.90351e-08
6.11841e-07
2.01097e-08
5.78161e-07
3.36794e-08
5.48846e-07
2.93156e-08
4.84343e-07
6.45031e-08
4.02152e-08
4.44127e-07
-7.63501e-08
1.70408e-07
-2.60858e-08
8.53574e-09
1.34716e-07
-2.08634e-07
3.32382e-07
-3.21254e-07
5.2313e-07
-3.37245e-07
6.79614e-07
-2.85076e-07
7.89077e-07
-1.91086e-07
8.46918e-07
-7.376e-08
8.45962e-07
5.33418e-08
7.79954e-07
1.78817e-07
6.40794e-07
2.88032e-07
4.31702e-07
3.62145e-07
1.81118e-07
3.84859e-07
-6.35162e-08
3.53944e-07
-2.66763e-07
2.9892e-07
-4.24668e-07
2.57316e-07
-5.47611e-07
2.24146e-07
-6.35327e-07
1.75282e-07
-6.99534e-07
1.35446e-07
-7.48932e-07
1.04847e-07
-7.9243e-07
7.71361e-08
-8.66354e-07
9.03431e-08
-9.98038e-07
1.57903e-07
-1.18232e-06
2.54151e-07
-1.39936e-06
3.52011e-07
-1.6235e-06
4.1669e-07
-1.8456e-06
4.24514e-07
-2.08832e-06
4.08132e-07
-2.36804e-06
4.27002e-07
-2.6508e-06
4.70513e-07
-2.89877e-06
4.87449e-07
-3.11586e-06
4.69935e-07
-3.31591e-06
4.39122e-07
-3.49294e-06
4.0264e-07
-3.64037e-06
3.58116e-07
-3.76482e-06
3.07591e-07
-3.8715e-06
2.54751e-07
-3.95707e-06
2.00978e-07
-4.01714e-06
1.45954e-07
-4.05037e-06
8.89825e-08
-4.05679e-06
3.01907e-08
-4.03521e-06
-3.01818e-08
-3.98379e-06
-9.13722e-08
-3.90116e-06
-1.53004e-07
-3.7871e-06
-2.14284e-07
-3.64199e-06
-2.74617e-07
-3.46661e-06
-3.33552e-07
-3.26165e-06
-3.91099e-07
-3.0274e-06
-4.48076e-07
-2.76373e-06
-5.06158e-07
-2.47026e-06
-5.67309e-07
-2.14704e-06
-6.33152e-07
-1.7958e-06
-7.03647e-07
-1.42229e-06
-7.74415e-07
-1.03791e-06
-8.33671e-07
-6.60318e-07
-8.62913e-07
-2.97959e-07
-8.3977e-07
4.78626e-08
-7.56229e-07
3.83273e-07
-7.04328e-07
7.49145e-07
-7.24529e-07
1.11867e-06
-6.93331e-07
1.46744e-06
-6.08603e-07
1.76913e-06
-4.90891e-07
2.01837e-06
-3.43092e-07
2.20443e-06
-6.38215e-08
2.23008e-06
3.49809e-07
2.00597e-06
6.24697e-07
1.59455e-06
6.54138e-07
1.18489e-06
5.49286e-07
9.0311e-07
4.2691e-07
7.24691e-07
4.00406e-07
5.03853e-07
5.02284e-07
1.87763e-07
5.93952e-07
-3.89023e-08
4.26369e-07
3.8496e-08
-1.4939e-07
4.20171e-07
-8.32302e-07
9.53567e-07
-1.10572e-06
1.3851e-06
-7.92947e-07
1.65109e-06
-3.2823e-07
1.75353e-06
-1.4108e-08
1.64932e-06
1.41483e-07
1.29177e-06
2.93729e-07
6.98575e-07
5.38341e-07
-3.1411e-08
8.05738e-07
-7.63384e-07
1.02591e-06
-1.41764e-06
1.16983e-06
-1.99956e-06
1.21708e-06
-2.52262e-06
1.19003e-06
-2.99108e-06
1.11723e-06
-3.40676e-06
1.02035e-06
-3.77235e-06
9.14169e-07
-4.09117e-06
8.06906e-07
-4.36634e-06
7.02353e-07
-4.6004e-06
6.01669e-07
-4.79523e-06
5.04819e-07
-4.9521e-06
4.11507e-07
-5.07188e-06
3.21436e-07
-5.15535e-06
2.34385e-07
-5.20381e-06
1.50886e-07
-5.21879e-06
7.1634e-08
-5.20141e-06
-2.94083e-09
-5.1532e-06
-6.97053e-08
-5.07661e-06
-1.29566e-07
-4.9752e-06
-1.81662e-07
-4.85241e-06
-2.25893e-07
-4.71196e-06
-2.62871e-07
-4.55662e-06
-2.93923e-07
-4.38842e-06
-3.20806e-07
-4.20836e-06
-3.45615e-07
-4.01626e-06
-3.70626e-07
-3.81084e-06
-3.9811e-07
-3.58982e-06
-4.30009e-07
-3.35035e-06
-4.67365e-07
-3.08978e-06
-5.09718e-07
-2.8067e-06
-5.54669e-07
-2.50196e-06
-5.97962e-07
-2.17924e-06
-6.34275e-07
-1.8448e-06
-6.58554e-07
-1.50675e-06
-6.67103e-07
-1.17368e-06
-6.59026e-07
-8.52962e-07
-6.36336e-07
-5.50313e-07
-6.02118e-07
-2.68484e-07
-5.61714e-07
-9.05415e-09
-5.18468e-07
2.32113e-07
-4.7824e-07
4.51732e-07
-4.38851e-07
6.53483e-07
-4.02033e-07
8.38928e-07
-3.68727e-07
1.00989e-06
-3.3891e-07
1.16796e-06
-3.12197e-07
1.31443e-06
-2.87974e-07
1.45017e-06
-2.6545e-07
1.57563e-06
-2.43773e-07
1.69088e-06
-2.22174e-07
1.79564e-06
-2.0008e-07
1.8894e-06
-1.7708e-07
1.97169e-06
-1.53056e-07
2.04224e-06
-1.28403e-07
2.10086e-06
-1.03711e-07
2.14843e-06
-7.97991e-08
2.18647e-06
-5.77784e-08
2.21683e-06
-3.80753e-08
2.24224e-06
-1.98028e-08
2.26448e-06
-1.11469e-09
2.28206e-06
2.0265e-08
2.29225e-06
4.44764e-08
2.29139e-06
7.15476e-08
2.27699e-06
1.0007e-07
2.24878e-06
1.27878e-07
2.20833e-06
1.51807e-07
2.15833e-06
1.67297e-07
2.10189e-06
1.70677e-07
2.0428e-06
1.60862e-07
1.98532e-06
1.40357e-07
1.93283e-06
1.14913e-07
1.88706e-06
9.01582e-08
1.84803e-06
6.96499e-08
1.81464e-06
5.45294e-08
1.78551e-06
4.41779e-08
1.75948e-06
3.71919e-08
1.73598e-06
3.21596e-08
1.71485e-06
2.80325e-08
1.69613e-06
2.43302e-08
1.67981e-06
2.10015e-08
1.66568e-06
1.8251e-08
1.6534e-06
1.61691e-08
1.6425e-06
1.49119e-08
1.63258e-06
1.42883e-08
1.62315e-06
1.45635e-08
1.61404e-06
1.5078e-08
1.60464e-06
1.68609e-08
1.59519e-06
1.81854e-08
1.5844e-06
2.23414e-08
1.5733e-06
2.42718e-08
1.55883e-06
3.35109e-08
1.54381e-06
3.51212e-08
1.52162e-06
5.58769e-08
1.49795e-06
5.29792e-08
1.46272e-06
9.97387e-08
8.37052e-08
1.41923e-06
3.0162e-08
1.40245e-07
2.72476e-07
-2.33778e-07
5.51541e-07
-4.87699e-07
7.85055e-07
-5.54769e-07
9.59089e-07
-5.11278e-07
1.07905e-06
-4.05035e-07
1.15365e-06
-2.6569e-07
1.19005e-06
-1.10156e-07
1.18893e-06
5.44569e-08
1.14385e-06
2.23898e-07
1.05196e-06
3.79926e-07
9.04925e-07
5.09177e-07
6.96819e-07
5.92966e-07
4.39224e-07
6.11539e-07
1.72859e-07
5.65285e-07
-5.95541e-08
4.8973e-07
-2.3639e-07
4.00982e-07
-3.64653e-07
3.03546e-07
-4.72456e-07
2.43248e-07
-5.65959e-07
1.9835e-07
-6.7193e-07
1.83107e-07
-8.48082e-07
2.66496e-07
-1.08289e-06
3.92715e-07
-1.33625e-06
5.0751e-07
-1.59202e-06
6.07782e-07
-1.85089e-06
6.75553e-07
-2.12906e-06
7.02682e-07
-2.43215e-06
7.11222e-07
-2.7264e-06
7.21252e-07
-2.97583e-06
7.19948e-07
-3.18497e-06
6.96591e-07
-3.37355e-06
6.58517e-07
-3.54505e-06
6.10619e-07
-3.69743e-06
5.55019e-07
-3.83304e-06
4.93723e-07
-3.95198e-06
4.26533e-07
-4.0509e-06
3.53667e-07
-4.12649e-06
2.76575e-07
-4.17608e-06
1.95547e-07
-4.19758e-06
1.10476e-07
-4.19064e-06
2.32478e-08
-4.15437e-06
-6.64433e-08
-4.0882e-06
-1.57549e-07
-3.99247e-06
-2.48731e-07
-3.86785e-06
-3.38907e-07
-3.71556e-06
-4.26909e-07
-3.53752e-06
-5.11592e-07
-3.33652e-06
-5.92093e-07
-3.11605e-06
-6.68547e-07
-2.87995e-06
-7.4226e-07
-2.63206e-06
-8.15201e-07
-2.37574e-06
-8.89469e-07
-2.11417e-06
-9.65218e-07
-1.85086e-06
-1.03773e-06
-1.58817e-06
-1.09636e-06
-1.32422e-06
-1.12686e-06
-1.04831e-06
-1.11568e-06
-7.45083e-07
-1.05946e-06
-4.22511e-07
-1.0269e-06
-7.6219e-08
-1.07082e-06
2.99352e-07
-1.0689e-06
6.87565e-07
-9.96817e-07
1.07155e-06
-8.74879e-07
1.42944e-06
-7.00983e-07
1.78126e-06
-4.15633e-07
2.09173e-06
3.93332e-08
2.19195e-06
5.24483e-07
1.99954e-06
8.4654e-07
1.60765e-06
9.41177e-07
1.15323e-06
8.81338e-07
7.65387e-07
7.88245e-07
5.0017e-07
7.67501e-07
3.25315e-07
7.68807e-07
2.54221e-07
4.97462e-07
3.06009e-07
-2.01178e-07
5.17262e-07
-1.04355e-06
8.59526e-07
-1.44798e-06
1.14187e-06
-1.07529e-06
1.23458e-06
-4.20937e-07
1.08577e-06
1.34701e-07
6.4624e-07
5.81008e-07
9.36417e-09
9.30605e-07
-6.51167e-07
1.19887e-06
-1.25013e-06
1.4047e-06
-1.76279e-06
1.53857e-06
-2.18551e-06
1.59255e-06
-2.54263e-06
1.57419e-06
-2.85778e-06
1.50517e-06
-3.14707e-06
1.40652e-06
-3.41912e-06
1.2924e-06
-3.6761e-06
1.17116e-06
-3.91661e-06
1.04741e-06
-4.13756e-06
9.23297e-07
-4.33536e-06
7.99478e-07
-4.50647e-06
6.7593e-07
-4.64751e-06
5.52545e-07
-4.75568e-06
4.29603e-07
-4.82926e-06
3.07967e-07
-4.86736e-06
1.88986e-07
-4.87012e-06
7.43922e-08
-4.83997e-06
-3.30847e-08
-4.77833e-06
-1.31355e-07
-4.68905e-06
-2.18841e-07
-4.57631e-06
-2.94401e-07
-4.44414e-06
-3.58062e-07
-4.29625e-06
-4.1077e-07
-4.1356e-06
-4.54569e-07
-3.96424e-06
-4.92167e-07
-3.78308e-06
-5.26768e-07
-3.59183e-06
-5.61876e-07
-3.3889e-06
-6.01043e-07
-3.1714e-06
-6.47506e-07
-2.93555e-06
-7.03222e-07
-2.67754e-06
-7.67724e-07
-2.39498e-06
-8.37231e-07
-2.08822e-06
-9.04716e-07
-1.76132e-06
-9.6118e-07
-1.42177e-06
-9.98104e-07
-1.07926e-06
-1.00961e-06
-7.43933e-07
-9.94351e-07
-4.2447e-07
-9.55799e-07
-1.27143e-07
-8.99445e-07
1.47062e-07
-8.35918e-07
3.97527e-07
-7.68933e-07
6.23456e-07
-7.04169e-07
8.2728e-07
-6.42675e-07
1.01159e-06
-5.86343e-07
1.17873e-06
-5.35869e-07
1.33087e-06
-4.91049e-07
1.46985e-06
-4.51177e-07
1.59711e-06
-4.1524e-07
1.71372e-06
-3.82053e-07
1.82034e-06
-3.50399e-07
1.91734e-06
-3.19169e-07
2.00476e-06
-2.87498e-07
2.08248e-06
-2.54801e-07
2.15025e-06
-2.2083e-07
2.20776e-06
-1.85906e-07
2.25493e-06
-1.50882e-07
2.29198e-06
-1.16852e-07
2.3191e-06
-8.48993e-08
2.337e-06
-5.59733e-08
2.34819e-06
-3.09911e-08
2.35698e-06
-9.90833e-09
2.368e-06
9.2409e-09
2.38226e-06
3.02192e-08
2.39755e-06
5.62546e-08
2.40946e-06
8.81637e-08
2.41364e-06
1.23693e-07
2.40778e-06
1.57667e-07
2.39163e-06
1.83446e-07
2.36656e-06
1.95747e-07
2.33482e-06
1.92609e-07
2.29901e-06
1.76169e-07
2.26187e-06
1.52046e-07
2.22595e-06
1.26079e-07
2.19304e-06
1.02564e-07
2.16395e-06
8.36129e-08
2.13867e-06
6.94581e-08
2.11666e-06
5.92091e-08
2.09718e-06
5.1638e-08
2.0795e-06
4.5711e-08
2.06301e-06
4.08221e-08
2.0473e-06
3.67092e-08
2.03215e-06
3.33962e-08
2.01755e-06
3.07733e-08
2.00353e-06
2.8929e-08
1.99027e-06
2.75548e-08
1.97779e-06
2.70367e-08
1.96622e-06
2.66472e-08
1.95542e-06
2.76649e-08
1.94539e-06
2.82168e-08
1.93582e-06
3.19128e-08
1.92652e-06
3.35701e-08
1.9173e-06
4.27278e-08
1.90712e-06
4.52993e-08
1.89728e-06
6.57242e-08
1.88282e-06
6.74356e-08
1.87266e-06
1.09902e-07
1.10046e-07
1.84632e-06
2.55952e-07
-1.15707e-07
6.15923e-07
-5.93748e-07
8.74821e-07
-7.46598e-07
1.03494e-06
-7.14886e-07
1.12749e-06
-6.03832e-07
1.17988e-06
-4.57422e-07
1.20706e-06
-2.92871e-07
1.2138e-06
-1.16894e-07
1.20078e-06
6.74711e-08
1.16954e-06
2.55138e-07
1.11359e-06
4.35883e-07
1.02461e-06
5.98153e-07
8.92665e-07
7.24912e-07
7.09763e-07
7.94441e-07
4.84514e-07
7.90534e-07
2.49285e-07
7.24959e-07
4.0994e-08
6.09272e-07
-1.43809e-07
4.88348e-07
-3.06057e-07
4.05497e-07
-4.51186e-07
3.43479e-07
-6.57392e-07
3.89313e-07
-9.42938e-07
5.52042e-07
-1.25829e-06
7.08071e-07
-1.57443e-06
8.23641e-07
-1.8794e-06
9.12755e-07
-2.17141e-06
9.6757e-07
-2.45526e-06
9.86523e-07
-2.72368e-06
9.79648e-07
-2.95998e-06
9.57553e-07
-3.16487e-06
9.24836e-07
-3.35162e-06
8.83344e-07
-3.52562e-06
8.3251e-07
-3.68583e-06
7.70834e-07
-3.83153e-06
7.00715e-07
-3.96109e-06
6.23286e-07
-4.07199e-06
5.37438e-07
-4.16215e-06
4.43822e-07
-4.22954e-06
3.43963e-07
-4.27243e-06
2.3844e-07
-4.28976e-06
1.27805e-07
-4.27952e-06
1.3009e-08
-4.24124e-06
-1.04725e-07
-4.17497e-06
-2.23816e-07
-4.08053e-06
-3.43175e-07
-3.95804e-06
-4.61391e-07
-3.80856e-06
-5.7639e-07
-3.6343e-06
-6.85855e-07
-3.43894e-06
-7.87454e-07
-3.22806e-06
-8.79422e-07
-3.0089e-06
-9.61425e-07
-2.78881e-06
-1.03529e-06
-2.57363e-06
-1.10466e-06
-2.3654e-06
-1.17345e-06
-2.15968e-06
-1.24344e-06
-1.94558e-06
-1.31046e-06
-1.71253e-06
-1.35991e-06
-1.45384e-06
-1.37437e-06
-1.16423e-06
-1.34907e-06
-8.66658e-07
-1.32447e-06
-5.91431e-07
-1.34605e-06
-3.01511e-07
-1.35882e-06
2.34399e-08
-1.32177e-06
3.8794e-07
-1.23938e-06
7.72304e-07
-1.08535e-06
1.18666e-06
-8.29989e-07
1.64308e-06
-4.17088e-07
2.02411e-06
1.43458e-07
2.16322e-06
7.07424e-07
2.01372e-06
1.09068e-06
1.66914e-06
1.22592e-06
1.26504e-06
1.19234e-06
9.30991e-07
1.10155e-06
7.29154e-07
9.70645e-07
6.07402e-07
6.19214e-07
4.90789e-07
-8.45644e-08
4.07037e-07
-9.59803e-07
4.16339e-07
-1.45728e-06
3.83132e-07
-1.04208e-06
1.79909e-07
-2.17713e-07
-1.47137e-07
4.61747e-07
-5.41581e-07
9.75453e-07
-9.61411e-07
1.35044e-06
-1.37428e-06
1.61174e-06
-1.73679e-06
1.76722e-06
-2.0389e-06
1.84068e-06
-2.29503e-06
1.84868e-06
-2.52844e-06
1.80761e-06
-2.75605e-06
1.73278e-06
-2.98462e-06
1.6351e-06
-3.21364e-06
1.52141e-06
-3.43871e-06
1.39623e-06
-3.6542e-06
1.2629e-06
-3.85459e-06
1.12368e-06
-4.03493e-06
9.79826e-07
-4.19089e-06
8.31881e-07
-4.3186e-06
6.80262e-07
-4.41482e-06
5.25815e-07
-4.47705e-06
3.70201e-07
-4.50395e-06
2.1589e-07
-4.49526e-06
6.56992e-08
-4.45291e-06
-7.54362e-08
-4.37955e-06
-2.0471e-07
-4.27894e-06
-3.19458e-07
-4.15572e-06
-4.17615e-07
-4.01475e-06
-4.99034e-07
-3.86032e-06
-5.65196e-07
-3.69589e-06
-6.19005e-07
-3.52372e-06
-6.6434e-07
-3.34479e-06
-7.05698e-07
-3.15872e-06
-7.47937e-07
-2.96361e-06
-7.96161e-07
-2.75577e-06
-8.55342e-07
-2.52989e-06
-9.29107e-07
-2.28016e-06
-1.01745e-06
-2.00211e-06
-1.11528e-06
-1.6946e-06
-1.21223e-06
-1.36137e-06
-1.2944e-06
-1.01101e-06
-1.34846e-06
-6.55089e-07
-1.36554e-06
-3.05986e-07
-1.34345e-06
2.53507e-08
-1.28714e-06
3.3496e-07
-1.20905e-06
6.17314e-07
-1.11827e-06
8.7226e-07
-1.02388e-06
1.10018e-06
-9.32093e-07
1.30353e-06
-8.46016e-07
1.48472e-06
-7.67536e-07
1.64617e-06
-6.97317e-07
1.79005e-06
-6.34933e-07
1.91815e-06
-5.79274e-07
2.03176e-06