/*--------------------------------*- C++ -*----------------------------------*\
  =========                 |
  \\      /  F ield         | OpenFOAM: The Open Source CFD Toolbox
   \\    /   O peration     | Website:  https://openfoam.org
    \\  /    A nd           | Version:  7
     \\/     M anipulation  |
\*---------------------------------------------------------------------------*/
FoamFile
{
    version     2.0;
    format      ascii;
    class       volScalarField;
    location    "0.096";
    object      pMean;
}
// * * * * * * * * * * * * * * * * * * * * * * * * * * * * * * * * * * * * * //

dimensions      [0 2 -2 0 0 0 0];

internalField   nonuniform List<scalar> 
12225
(
-2.47264
-1.30573
-0.869322
-0.755185
-0.695223
-0.650381
-0.623069
-0.616816
-0.628198
-0.649671
-0.673675
-0.695135
-0.711568
-0.724715
-0.73704
-0.763282
-0.810104
-0.967095
-2.14511
-1.29454
-0.873268
-0.751643
-0.696242
-0.654152
-0.626939
-0.619565
-0.629652
-0.649868
-0.672985
-0.693383
-0.709867
-0.721316
-0.735778
-0.752316
-0.800815
-0.849175
-1.97501
-1.31415
-0.897234
-0.754111
-0.699056
-0.659051
-0.630746
-0.620611
-0.627399
-0.64458
-0.665066
-0.684345
-0.700032
-0.713586
-0.726596
-0.746964
-0.776709
-0.825889
-1.77763
-1.27877
-0.896923
-0.743388
-0.690409
-0.655696
-0.6293
-0.617908
-0.622427
-0.637328
-0.656361
-0.674746
-0.691176
-0.705248
-0.720723
-0.739459
-0.767757
-0.806305
-1.60819
-1.24239
-0.902641
-0.741196
-0.684896
-0.653492
-0.629063
-0.616604
-0.618623
-0.631236
-0.64851
-0.666228
-0.682503
-0.697867
-0.713903
-0.733488
-0.758864
-0.790479
-1.45063
-1.18887
-0.895904
-0.733527
-0.672674
-0.64427
-0.623344
-0.611334
-0.611802
-0.622562
-0.638637
-0.655925
-0.672624
-0.688881
-0.705947
-0.725884
-0.749707
-0.778365
-1.30732
-1.12505
-0.880499
-0.724425
-0.659266
-0.632696
-0.615511
-0.604973
-0.60453
-0.613703
-0.628599
-0.645537
-0.662597
-0.679742
-0.697777
-0.71811
-0.741475
-0.768565
-1.17648
-1.05263
-0.854542
-0.710619
-0.643067
-0.617158
-0.603418
-0.595115
-0.594652
-0.602809
-0.616967
-0.633831
-0.651397
-0.669421
-0.688416
-0.709461
-0.733065
-0.759919
-1.0576
-0.97594
-0.819063
-0.691144
-0.624198
-0.598398
-0.58759
-0.58214
-0.582663
-0.590433
-0.604055
-0.620963
-0.63921
-0.658253
-0.678348
-0.700309
-0.724577
-0.751852
-0.944269
-0.895488
-0.774144
-0.664599
-0.601594
-0.576247
-0.567804
-0.565314
-0.56755
-0.575755
-0.589399
-0.606571
-0.625536
-0.645622
-0.666889
-0.689939
-0.715172
-0.743221
-0.834965
-0.812374
-0.72098
-0.630556
-0.574329
-0.550545
-0.544237
-0.544772
-0.549383
-0.558717
-0.572841
-0.590594
-0.610486
-0.631756
-0.654281
-0.678515
-0.704779
-0.733663
-0.746155
-0.7356
-0.665564
-0.592314
-0.544275
-0.523287
-0.519026
-0.522219
-0.529359
-0.540382
-0.555503
-0.574025
-0.594841
-0.617238
-0.640961
-0.666311
-0.693522
-0.723117
-0.657945
-0.658347
-0.60616
-0.548645
-0.50961
-0.492586
-0.490783
-0.496675
-0.506458
-0.519553
-0.536098
-0.555772
-0.577735
-0.601343
-0.626272
-0.652726
-0.680826
-0.711011
-0.547483
-0.565243
-0.532028
-0.490828
-0.462753
-0.45181
-0.453738
-0.463008
-0.476192
-0.492187
-0.5109
-0.532201
-0.555606
-0.580649
-0.606988
-0.634677
-0.663727
-0.69446
-0.434621
-0.461303
-0.442243
-0.416579
-0.401019
-0.398369
-0.405721
-0.419284
-0.436391
-0.45595
-0.477687
-0.501468
-0.526953
-0.5538
-0.581701
-0.610665
-0.640628
-0.671827
-0.307386
-0.337577
-0.330825
-0.32061
-0.319065
-0.326942
-0.341818
-0.361299
-0.383635
-0.407858
-0.433565
-0.460597
-0.48876
-0.517862
-0.547656
-0.578089
-0.609026
-0.640546
-0.15921
-0.191583
-0.194283
-0.198851
-0.212452
-0.233122
-0.258002
-0.285422
-0.314474
-0.344645
-0.375595
-0.407104
-0.438968
-0.47104
-0.503162
-0.535311
-0.567396
-0.599522
0.0364465
-0.00826449
-0.0264151
-0.0470748
-0.0767149
-0.112284
-0.150008
-0.188007
-0.225701
-0.263035
-0.300008
-0.33656
-0.372564
-0.407973
-0.442719
-0.47682
-0.510134
-0.542673
0.300804
0.236134
0.195767
0.153022
0.102095
0.0467304
-0.00862584
-0.0619087
-0.112788
-0.161566
-0.208425
-0.253327
-0.296147
-0.336886
-0.37564
-0.412662
-0.448085
-0.482155
0.547293
0.476977
0.419512
0.352426
0.276814
0.200874
0.13005
0.0652737
0.00528414
-0.0512986
-0.105151
-0.156379
-0.20487
-0.250629
-0.293742
-0.334386
-0.372649
-0.408731
0.781707
0.702016
0.621036
0.523465
0.418826
0.319021
0.229167
0.148601
0.0751517
0.0073957
-0.055072
-0.112355
-0.164782
-0.212989
-0.257609
-0.29923
-0.338133
-0.374633
1.02989
0.92539
0.808714
0.676594
0.547744
0.434524
0.337287
0.250486
0.169723
0.0938336
0.0234514
-0.0408707
-0.0993495
-0.152711
-0.201697
-0.246968
-0.288927
-0.327952
1.30473
1.15356
0.977728
0.794092
0.630035
0.494899
0.382943
0.284952
0.195946
0.114958
0.0421601
-0.0228957
-0.081326
-0.134462
-0.183251
-0.228257
-0.269704
-0.307951
1.58621
1.38555
1.14665
0.921596
0.74154
0.601618
0.482783
0.372552
0.269529
0.176667
0.0953719
0.0243311
-0.0387894
-0.095871
-0.147951
-0.195662
-0.239426
-0.279763
1.86517
1.57759
1.23653
0.955408
0.759363
0.617461
0.495346
0.381228
0.276575
0.184399
0.104478
0.0343568
-0.0284303
-0.0854395
-0.137398
-0.184785
-0.227948
-0.267412
2.23712
1.82322
1.37873
1.05851
0.856043
0.704663
0.564173
0.431763
0.315128
0.216699
0.133191
0.0601954
-0.00516925
-0.0642754
-0.117793
-0.166338
-0.210498
-0.250946
2.55886
1.91437
1.36301
1.04474
0.864186
0.715937
0.570952
0.435955
0.31981
0.222581
0.139627
0.0666052
0.00108029
-0.0580716
-0.1115
-0.159844
-0.203701
-0.243712
3.06845
2.13676
1.4406
1.10719
0.924042
0.758292
0.597863
0.455733
0.336999
0.238122
0.153491
0.0790049
0.012416
-0.047429
-0.101307
-0.149916
-0.19398
-0.234178
3.29747
2.10114
1.40455
1.11732
0.936938
0.763905
0.599994
0.458124
0.340284
0.24175
0.157063
0.0824756
0.0158553
-0.0439272
-0.0977189
-0.146123
-0.189938
-0.229622
4.11027
2.14576
1.40465
1.15099
0.958552
0.774607
0.607536
0.465148
0.346838
0.247681
0.162449
0.0874706
0.0205866
-0.0393714
-0.0932837
-0.141736
-0.185526
-0.224968
-1.2029
-1.21916
-1.24203
-1.26042
-1.26951
-1.27087
-1.26918
-1.27072
-1.28249
-1.31056
-1.35883
-1.42806
-1.51577
-1.61725
-1.72629
-1.83599
-1.93939
-2.02996
-2.10247
-2.15356
-2.18172
-2.18732
-2.17285
-2.14253
-2.10149
-2.05483
-2.00704
-1.96203
-1.92131
-1.88609
-1.85631
-1.83344
-1.81884
-1.81083
-1.80925
-1.81614
-1.83347
-1.86141
-1.89804
-1.94296
-1.99394
-2.04915
-2.10516
-2.15783
-2.20419
-2.24611
-2.28587
-2.32202
-2.34973
-2.36472
-2.36644
-2.35507
-2.33159
-2.29804
-2.25729
-2.21285
-2.17005
-2.1299
-2.08649
-2.03583
-1.97623
-1.90889
-1.83765
-1.76678
-1.70039
-1.64252
-1.59619
-1.56178
-1.53723
-1.51887
-1.50195
-1.48174
-1.45431
-1.41652
-1.36586
-1.30778
-1.25509
-1.21193
-1.17838
-1.15011
-1.11856
-1.07575
-1.01607
-0.935767
-0.833775
-0.711674
-0.571897
-0.415741
-0.243678
-0.0563341
0.145217
0.359596
0.585228
0.820461
1.06364
1.31312
1.56726
1.8244
2.08286
2.34088
2.59658
2.84794
3.09283
3.32917
3.55507
3.769
3.96987
4.15711
4.33062
4.49067
4.63779
4.77263
4.8958
5.00778
5.10877
5.19872
5.27738
5.34447
5.39981
5.44344
5.47572
5.49722
5.50878
5.51144
5.50623
5.49428
5.47668
5.45443
5.42847
5.3997
5.36895
5.33696
5.30441
5.27186
5.23983
5.20872
5.17887
5.15053
5.12387
5.09896
5.07583
5.05443
5.03464
5.01629
4.99924
4.98333
4.96841
4.95434
4.94104
4.92848
4.91672
4.90587
4.89602
4.88718
4.87924
4.87202
4.8653
4.85894
4.85281
4.84684
4.84101
4.83529
4.82968
4.82421
4.81889
4.81377
4.80891
4.8044
4.80033
4.79692
4.79425
4.79275
4.79251
4.79439
4.79844
4.80637
4.81834
4.83745
4.86691
4.90133
-1.27851
-1.2951
-1.32216
-1.34403
-1.3566
-1.36026
-1.36212
-1.36732
-1.3839
-1.41726
-1.47052
-1.54388
-1.63504
-1.73949
-1.85115
-1.9632
-2.06875
-2.1609
-2.23449
-2.28574
-2.31227
-2.31414
-2.29438
-2.25782
-2.21014
-2.15746
-2.10519
-2.05751
-2.0172
-1.98606
-1.96515
-1.95309
-1.94988
-1.95589
-1.96794
-1.98319
-2.00582
-2.04088
-2.08198
-2.12342
-2.17208
-2.2255
-2.27965
-2.33081
-2.37755
-2.42202
-2.46263
-2.49804
-2.52302
-2.53398
-2.53052
-2.51378
-2.48509
-2.44636
-2.40108
-2.35327
-2.30822
-2.26581
-2.2199
-2.16818
-2.10916
-2.04283
-1.97159
-1.90026
-1.83227
-1.77063
-1.71904
-1.6785
-1.64779
-1.62337
-1.60116
-1.57793
-1.54886
-1.51073
-1.46165
-1.40786
-1.36227
-1.32558
-1.29434
-1.26383
-1.2267
-1.177
-1.11108
-1.0261
-0.920277
-0.794258
-0.649842
-0.488397
-0.310986
-0.118602
0.0876604
0.306425
0.536139
0.775148
1.02181
1.27452
1.53168
1.79169
2.05293
2.31363
2.57189
2.82564
3.07275
3.31114
3.53889
3.75444
3.95668
4.14504
4.31943
4.48018
4.62788
4.76323
4.88693
4.99948
5.10112
5.19176
5.27114
5.33892
5.39485
5.43898
5.47163
5.49341
5.50519
5.508
5.50291
5.49111
5.47364
5.45152
5.42569
5.39707
5.36646
5.33461
5.30218
5.26976
5.23784
5.20685
5.1771
5.14885
5.12226
5.09743
5.07436
5.05302
5.03329
5.01505
4.99811
4.98233
4.96753
4.9536
4.94045
4.92804
4.91642
4.9057
4.89596
4.88721
4.87932
4.87212
4.8654
4.85902
4.85287
4.84687
4.84101
4.83526
4.82962
4.82412
4.81876
4.8136
4.80868
4.80412
4.79997
4.79645
4.79366
4.79196
4.79153
4.79299
4.79674
4.80364
4.81499
4.83079
4.85644
4.87581
-1.29733
-1.30852
-1.33148
-1.35793
-1.3855
-1.41265
-1.44143
-1.47573
-1.52057
-1.5798
-1.65507
-1.74589
-1.84972
-1.962
-2.07733
-2.19013
-2.29493
-2.38546
-2.4565
-2.50404
-2.52565
-2.52212
-2.49647
-2.45358
-2.39926
-2.33915
-2.27868
-2.22295
-2.1766
-2.1434
-2.12547
-2.12239
-2.13029
-2.14572
-2.16871
-2.20039
-2.23935
-2.28526
-2.33779
-2.39472
-2.45353
-2.51164
-2.56887
-2.62478
-2.6787
-2.7286
-2.77103
-2.80336
-2.8238
-2.83076
-2.82326
-2.80117
-2.76549
-2.7187
-2.66499
-2.61012
-2.56047
-2.51396
-2.46493
-2.4142
-2.36025
-2.29953
-2.23134
-2.15754
-2.08227
-2.01041
-1.94573
-1.88984
-1.84265
-1.80334
-1.77145
-1.74395
-1.71623
-1.6847
-1.6459
-1.60566
-1.57395
-1.54613
-1.51312
-1.47266
-1.42346
-1.36237
-1.28541
-1.19005
-1.07528
-0.941102
-0.78832
-0.618116
-0.431646
-0.230279
-0.015514
0.211054
0.447798
0.693098
0.945402
1.20322
1.4651
1.72957
1.99509
2.25998
2.5224
2.78031
3.03152
3.27381
3.50515
3.72384
3.92874
4.11928
4.29543
4.45759
4.60647
4.74291
4.8677
4.98145
5.0844
5.17647
5.2573
5.32644
5.38359
5.42873
5.46218
5.48458
5.49682
5.50002
5.49532
5.48387
5.46674
5.44496
5.41949
5.39122
5.36096
5.32945
5.29737
5.26528
5.23368
5.20298
5.17352
5.14555
5.11923
5.09465
5.07184
5.05075
5.03129
5.01332
4.99665
4.98113
4.96661
4.95297
4.94013
4.92805
4.91676
4.90631
4.89673
4.888
4.88004
4.87272
4.86586
4.85936
4.8531
4.84702
4.84109
4.83527
4.82957
4.82398
4.81855
4.81329
4.80825
4.80353
4.79921
4.79543
4.79236
4.7902
4.7893
4.78986
4.79268
4.79765
4.8068
4.81775
4.83645
4.84628
-1.30252
-1.31035
-1.33177
-1.37128
-1.42337
-1.48271
-1.54759
-1.61856
-1.69719
-1.7843
-1.8803
-1.98579
-2.10069
-2.22199
-2.34438
-2.46263
-2.57109
-2.66337
-2.7335
-2.77704
-2.7925
-2.78285
-2.75264
-2.70666
-2.6501
-2.5888
-2.52829
-2.47389
-2.42974
-2.40064
-2.3867
-2.38587
-2.39623
-2.41626
-2.44512
-2.48317
-2.53067
-2.58644
-2.64823
-2.71422
-2.78222
-2.84953
-2.9157
-2.98116
-3.04405
-3.10182
-3.15199
-3.19169
-3.21778
-3.22681
-3.21635
-3.18606
-3.1381
-3.07713
-3.00937
-2.94319
-2.885
-2.82989
-2.77162
-2.71406
-2.65772
-2.59868
-2.53368
-2.4613
-2.38251
-2.30091
-2.22131
-2.14838
-2.08559
-2.03416
-1.99232
-1.95767
-1.92829
-1.89932
-1.86569
-1.83421
-1.81234
-1.79196
-1.76241
-1.72032
-1.66479
-1.59466
-1.50753
-1.40157
-1.27605
-1.13124
-0.967929
-0.787207
-0.590414
-0.379033
-0.154694
0.0808919
0.326034
0.579102
0.838583
1.10306
1.3712
1.64164
1.91297
2.18363
2.45183
2.71549
2.97234
3.22002
3.45633
3.67944
3.88811
4.08176
4.26045
4.42468
4.57533
4.71338
4.83979
4.95526
5.0601
5.1542
5.23709
5.30817
5.36701
5.41353
5.44803
5.47123
5.48415
5.48794
5.48379
5.47287
5.45627
5.43503
5.4101
5.38238
5.35267
5.32171
5.29015
5.25857
5.22746
5.19724
5.16824
5.1407
5.1148
5.09062
5.0682
5.04749
5.02839
5.01075
4.99442
4.97924
4.96506
4.95175
4.93924
4.92748
4.91648
4.90626
4.89684
4.8882
4.88027
4.87293
4.86605
4.8595
4.85319
4.84706
4.84107
4.83519
4.82943
4.82377
4.81823
4.81286
4.80769
4.8028
4.79827
4.7942
4.79078
4.78812
4.7866
4.78623
4.78785
4.79093
4.79733
4.80414
4.81562
4.81717
-1.32914
-1.34211
-1.37838
-1.43369
-1.50528
-1.58859
-1.67873
-1.77489
-1.87936
-1.99161
-2.11048
-2.23616
-2.36777
-2.50188
-2.63418
-2.76018
-2.87495
-2.97285
-3.04802
-3.09501
-3.11295
-3.10456
-3.07478
-3.02956
-2.9751
-2.91719
-2.86098
-2.8111
-2.7713
-2.74466
-2.73236
-2.73366
-2.74706
-2.77167
-2.80699
-2.85266
-2.90774
-2.97051
-3.03932
-3.11207
-3.18603
-3.25907
-3.33038
-3.39958
-3.46558
-3.52656
-3.58019
-3.62336
-3.65228
-3.6628
-3.65154
-3.61733
-3.56178
-3.48915
-3.40596
-3.32241
-3.24492
-3.16716
-3.0872
-3.01169
-2.94202
-2.87518
-2.80837
-2.73877
-2.66465
-2.58646
-2.50684
-2.42942
-2.35841
-2.29664
-2.24487
-2.20177
-2.16533
-2.13213
-2.09988
-2.07246
-2.05581
-2.0436
-2.02331
-1.98819
-1.93455
-1.86052
-1.76543
-1.64938
-1.51296
-1.35704
-1.18255
-0.990646
-0.782781
-0.560569
-0.325756
-0.08014
0.174513
0.436555
0.704479
0.976918
1.25261
1.53035
1.80885
2.08664
2.36195
2.63269
2.89648
3.15082
3.3933
3.62191
3.83528
4.03282
4.2147
4.38157
4.53447
4.67458
4.80303
4.92069
5.02792
5.12456
5.20998
5.2834
5.34425
5.39235
5.4281
5.4523
5.46607
5.47064
5.46725
5.45709
5.44127
5.42082
5.39669
5.36977
5.34085
5.31067
5.27987
5.24903
5.21865
5.18912
5.16077
5.13385
5.10854
5.08494
5.06308
5.04293
5.02439
5.00731
4.99149
4.97679
4.96305
4.95016
4.93804
4.92665
4.91599
4.90605
4.89684
4.88835
4.88049
4.87316
4.86625
4.85965
4.85329
4.8471
4.84105
4.83511
4.82926
4.82352
4.81788
4.81238
4.80706
4.80196
4.79719
4.7928
4.78898
4.78577
4.78353
4.78219
4.78241
4.78362
4.78704
4.79009
4.79471
4.79043
-1.38297
-1.40265
-1.44843
-1.51543
-1.59985
-1.69716
-1.80356
-1.91881
-2.04371
-2.17647
-2.3161
-2.46294
-2.6155
-2.76973
-2.92077
-3.0637
-3.19287
-3.30244
-3.38685
-3.44252
-3.46887
-3.46854
-3.44647
-3.40914
-3.36331
-3.31476
-3.26826
-3.22807
-3.19747
-3.17869
-3.17283
-3.17973
-3.19892
-3.23
-3.27223
-3.32469
-3.3859
-3.454
-3.52674
-3.60163
-3.67636
-3.74928
-3.81967
-3.88709
-3.95072
-4.00908
-4.05994
-4.10018
-4.12586
-4.13261
-4.11689
-4.07696
-4.01348
-3.93011
-3.83295
-3.73237
-3.63329
-3.52757
-3.41769
-3.31341
-3.21788
-3.13072
-3.05053
-2.97524
-2.90233
-2.82975
-2.75684
-2.6848
-2.61617
-2.5539
-2.49935
-2.45261
-2.41274
-2.37848
-2.34924
-2.32737
-2.31681
-2.31385
-2.30556
-2.27835
-2.22701
-2.15023
-2.04867
-1.92374
-1.77708
-1.6102
-1.42431
-1.22089
-1.00141
-0.76767
-0.521626
-0.265204
-0.000232405
0.271612
0.548833
0.830113
1.11429
1.40027
1.68691
1.97286
2.25636
2.53521
2.80693
3.06886
3.31837
3.55325
3.77199
3.974
4.15951
4.32936
4.48477
4.6272
4.75797
4.87811
4.98805
5.08755
5.17582
5.25187
5.31493
5.36481
5.40195
5.42732
5.44213
5.44772
5.44535
5.43623
5.42147
5.4021
5.37905
5.35319
5.32533
5.29618
5.2664
5.23654
5.20711
5.17851
5.15107
5.12504
5.10058
5.07778
5.05667
5.03724
5.01937
5.00294
4.98777
4.97368
4.9605
4.94812
4.93645
4.92547
4.91516
4.90552
4.89655
4.88821
4.88044
4.87314
4.86623
4.85962
4.85323
4.84701
4.84091
4.83492
4.82901
4.82317
4.81743
4.81179
4.8063
4.801
4.79596
4.79123
4.78696
4.78319
4.78017
4.77783
4.77659
4.77594
4.77646
4.77607
4.77504
4.76615
-1.41726
-1.4479
-1.50486
-1.58199
-1.67538
-1.78123
-1.89814
-2.02713
-2.16945
-2.32335
-2.48631
-2.65545
-2.82809
-3.00107
-3.17074
-3.33266
-3.48085
-3.60908
-3.71175
-3.78542
-3.82963
-3.8468
-3.84184
-3.82147
-3.7924
-3.7606
-3.73103
-3.70756
-3.69301
-3.6891
-3.69637
-3.71445
-3.74283
-3.78076
-3.82743
-3.88205
-3.94357
-4.01065
-4.08153
-4.15425
-4.22695
-4.29849
-4.36832
-4.43586
-4.4999
-4.55864
-4.60948
-4.64872
-4.67196
-4.67517
-4.65524
-4.60988
-4.539
-4.44498
-4.33327
-4.21276
-4.08513
-3.94366
-3.79692
-3.65715
-3.52935
-3.41464
-3.31303
-3.22305
-3.14222
-3.06777
-2.99738
-2.93001
-2.86611
-2.80701
-2.75431
-2.70881
-2.67051
-2.63944
-2.6166
-2.60404
-2.60327
-2.60981
-2.6109
-2.591
-2.54233
-2.46385
-2.35718
-2.22453
-2.06815
-1.89004
-1.69189
-1.47534
-1.24249
-0.995661
-0.73714
-0.469023
-0.193133
0.0889702
0.375913
0.666503
0.959728
1.25463
1.55018
1.84514
2.13771
2.42556
2.706
2.97614
3.23322
3.47485
3.6994
3.90625
4.0957
4.26877
4.42693
4.57182
4.70502
4.82774
4.94049
5.043
5.13427
5.21308
5.27846
5.33021
5.36891
5.39563
5.41173
5.41861
5.41757
5.4098
5.39641
5.3784
5.35672
5.3322
5.30566
5.27779
5.24926
5.22063
5.19239
5.16496
5.13866
5.11372
5.09033
5.06858
5.04849
5.03002
5.01308
4.99753
4.98317
4.96981
4.95732
4.94555
4.93444
4.92393
4.91402
4.90472
4.896
4.88785
4.88021
4.87299
4.86612
4.85952
4.85312
4.84687
4.84074
4.83469
4.82871
4.82279
4.81694
4.81116
4.80549
4.79996
4.79463
4.78954
4.7848
4.78044
4.77661
4.77324
4.77053
4.76806
4.76588
4.76235
4.75673
4.74402
-1.42456
-1.46345
-1.53269
-1.61487
-1.71112
-1.82245
-1.94946
-2.09176
-2.24849
-2.41779
-2.59728
-2.78411
-2.97542
-3.16863
-3.36076
-3.54746
-3.72256
-3.87877
-4.01005
-4.11225
-4.1843
-4.22827
-4.2491
-4.25362
-4.249
-4.24158
-4.23626
-4.23635
-4.24377
-4.2591
-4.28194
-4.31157
-4.34743
-4.38916
-4.43669
-4.48994
-4.54864
-4.61245
-4.68102
-4.75364
-4.82938
-4.90735
-4.98636
-5.06473
-5.14022
-5.20984
-5.26954
-5.31431
-5.33889
-5.33831
-5.3086
-5.24811
-5.15776
-5.0406
-4.90235
-4.7505
-4.58353
-4.39978
-4.21234
-4.0355
-3.87484
-3.73189
-3.60681
-3.4982
-3.40369
-3.32054
-3.24602
-3.17827
-3.11658
-3.06125
-3.01297
-2.97267
-2.94088
-2.9179
-2.90512
-2.90432
-2.91471
-2.93063
-2.93977
-2.92734
-2.88296
-2.80424
-2.69313
-2.55262
-2.38547
-2.19423
-1.98136
-1.74927
-1.50084
-1.23907
-0.96678
-0.686248
-0.399169
-0.106755
0.18995
0.48999
0.792507
1.09669
1.40164
1.7062
2.00851
2.30612
2.59603
2.87503
3.14004
3.3886
3.61906
3.83087
4.02444
4.20096
4.36207
4.50959
4.64528
4.77059
4.88616
4.99166
5.08589
5.16736
5.23501
5.28867
5.32901
5.35724
5.37486
5.38328
5.38382
5.37766
5.36588
5.34949
5.32941
5.30648
5.2815
5.25517
5.22815
5.20101
5.17425
5.14828
5.12343
5.09992
5.07789
5.05742
5.03858
5.02132
5.00551
4.991
4.97763
4.96519
4.95351
4.94246
4.93197
4.92201
4.91257
4.90364
4.89522
4.88729
4.8798
4.87269
4.86588
4.85931
4.85292
4.84666
4.8405
4.8344
4.82836
4.82235
4.81638
4.81045
4.80459
4.79883
4.7932
4.78774
4.78251
4.77753
4.77287
4.76847
4.76434
4.76009
4.75547
4.74909
4.73976
4.72388
-1.43528
-1.47334
-1.53751
-1.61518
-1.70961
-1.82223
-1.95393
-2.10411
-2.27136
-2.45322
-2.64719
-2.85087
-3.06222
-3.27935
-3.49982
-3.71878
-3.92858
-4.12078
-4.288
-4.42552
-4.53179
-4.60878
-4.66164
-4.69755
-4.72392
-4.7467
-4.76997
-4.7962
-4.82644
-4.86044
-4.89718
-4.93563
-4.9755
-5.01757
-5.06337
-5.1145
-5.17253
-5.23888
-5.31423
-5.39837
-5.49027
-5.58804
-5.68891
-5.7896
-5.88612
-5.9733
-6.04515
-6.09537
-6.11786
-6.1073
-6.0602
-5.97526
-5.85429
-5.70151
-5.5234
-5.3269
-5.11035
-4.87847
-4.64763
-4.43269
-4.23926
-4.06854
-3.91994
-3.79173
-3.68153
-3.58663
-3.50427
-3.43246
-3.3703
-3.31781
-3.27523
-3.24294
-3.22168
-3.21155
-3.21316
-3.2271
-3.2505
-3.2761
-3.29264
-3.28675
-3.24675
-3.1684
-3.05289
-2.90374
-2.72447
-2.51848
-2.28909
-2.03958
-1.77378
-1.49558
-1.20837
-0.914628
-0.61592
-0.313007
-0.0065121
0.302933
0.614642
0.928066
1.24252
1.55692
1.8695
2.17768
2.47806
2.76683
3.04038
3.29607
3.53243
3.74918
3.94694
4.12704
4.29126
4.44154
4.5798
4.7077
4.82598
4.93427
5.03116
5.11503
5.18478
5.24026
5.28225
5.31211
5.33139
5.34154
5.34385
5.33948
5.32951
5.31493
5.29665
5.27552
5.25231
5.22774
5.20246
5.17706
5.15204
5.12782
5.10473
5.08298
5.06266
5.04386
5.02661
5.01086
4.99647
4.98327
4.97108
4.9597
4.94897
4.93877
4.92902
4.91969
4.91078
4.90229
4.89422
4.88655
4.87924
4.87226
4.86554
4.85901
4.85265
4.84639
4.84021
4.83407
4.82796
4.82187
4.81578
4.8097
4.80365
4.79764
4.7917
4.78585
4.78013
4.77452
4.76905
4.76361
4.75812
4.75218
4.74534
4.73643
4.72407
4.70558
-1.42663
-1.45782
-1.51041
-1.58166
-1.6738
-1.78722
-1.92252
-2.07911
-2.25537
-2.4489
-2.6573
-2.87845
-3.11095
-3.35366
-3.60412
-3.85681
-4.10297
-4.33278
-4.5382
-4.71432
-4.85946
-4.97533
-5.06678
-5.14027
-5.20234
-5.25836
-5.31192
-5.36469
-5.41671
-5.46716
-5.51532
-5.56111
-5.60556
-5.65095
-5.70075
-5.75886
-5.8283
-5.91074
-6.00639
-6.11419
-6.23197
-6.35664
-6.48421
-6.61006
-6.7285
-6.83265
-6.91511
-6.96871
-6.98713
-6.96502
-6.89807
-6.78427
-6.6254
-6.42647
-6.19589
-5.94119
-5.66518
-5.37871
-5.09982
-4.84331
-4.6151
-4.41493
-4.2412
-4.09199
-3.96485
-3.85686
-3.76514
-3.68741
-3.62294
-3.57212
-3.53548
-3.51318
-3.50574
-3.51233
-3.53194
-3.56345
-3.60234
-3.63971
-3.66445
-3.66486
-3.62875
-3.55033
-3.43023
-3.27195
-3.07987
-2.8585
-2.61177
-2.34376
-2.05916
-1.76294
-1.45946
-1.15164
-0.840848
-0.527435
-0.211604
0.106539
0.426816
0.749105
1.07297
1.39754
1.72114
2.04094
2.35294
2.65248
2.93527
3.19845
3.44084
3.66256
3.86451
4.04824
4.21561
4.3687
4.50955
4.63998
4.76081
4.87156
4.97073
5.05663
5.12818
5.18531
5.22889
5.26042
5.28147
5.29348
5.29769
5.29525
5.28721
5.27458
5.25827
5.23911
5.21786
5.19526
5.17195
5.14854
5.12553
5.10337
5.08235
5.06267
5.04444
5.02771
5.01244
4.99854
4.98588
4.97426
4.96349
4.95338
4.94376
4.93451
4.92559
4.91698
4.90867
4.90068
4.89301
4.88564
4.87856
4.87173
4.86511
4.85866
4.85232
4.84607
4.83988
4.83371
4.82754
4.82135
4.81514
4.80891
4.80266
4.7964
4.79015
4.78391
4.77768
4.77145
4.76517
4.75873
4.75194
4.74441
4.7356
4.72444
4.7096
4.68891
-1.38282
-1.40889
-1.45617
-1.52374
-1.61436
-1.72893
-1.86867
-2.0333
-2.22114
-2.42973
-2.65661
-2.89948
-3.15661
-3.42647
-3.70612
-3.98937
-4.26728
-4.52993
-4.76951
-4.98173
-5.16541
-5.32197
-5.45499
-5.56916
-5.66945
-5.76032
-5.84503
-5.92506
-6.00029
-6.06997
-6.13392
-6.19327
-6.25053
-6.30934
-6.37406
-6.44905
-6.53775
-6.64201
-6.76148
-6.89406
-7.03691
-7.18659
-7.33888
-7.48871
-7.62923
-7.75177
-7.84656
-7.90452
-7.9182
-7.88156
-7.79024
-7.64274
-7.44047
-7.18915
-6.89847
-6.57787
-6.2371
-5.8926
-5.56323
-5.26254
-4.99664
-4.76459
-4.56425
-4.39363
-4.24971
-4.12895
-4.02785
-3.94375
-3.87593
-3.82551
-3.79385
-3.78162
-3.78875
-3.81352
-3.85285
-3.90381
-3.96021
-4.01119
-4.04544
-4.05223
-4.01952
-3.94084
-3.81599
-3.64857
-3.44384
-3.20697
-2.94265
-2.6556
-2.35144
-2.03643
-1.71616
-1.39418
-1.07172
-0.748624
-0.424466
-0.0985649
0.229672
0.560692
0.894345
1.22993
1.56563
1.89813
2.2226
2.5335
2.82592
3.09684
3.34536
3.57201
3.7781
3.96539
4.13589
4.29178
4.43524
4.56815
4.69131
4.80416
4.90517
4.99265
5.06563
5.12416
5.16924
5.20243
5.2253
5.23923
5.24539
5.24493
5.23892
5.22835
5.21412
5.19706
5.17794
5.15747
5.13634
5.11514
5.09441
5.07459
5.05597
5.03873
5.02297
5.00868
4.99579
4.98417
4.97361
4.96389
4.9548
4.94615
4.93781
4.92967
4.92169
4.91387
4.90624
4.89881
4.8916
4.88458
4.87776
4.87112
4.86463
4.85826
4.85197
4.84574
4.83953
4.83332
4.82709
4.82082
4.81449
4.8081
4.80165
4.79514
4.78857
4.78193
4.77521
4.76836
4.7613
4.75388
4.74588
4.73688
4.7263
4.71317
4.69624
4.67373
-1.32511
-1.34769
-1.39149
-1.45718
-1.54852
-1.66699
-1.81451
-1.9914
-2.19642
-2.42712
-2.6802
-2.95209
-3.23954
-3.5395
-3.84792
-4.15842
-4.46297
-4.75344
-5.02328
-5.2686
-5.48795
-5.68176
-5.85251
-6.00414
-6.14096
-6.2668
-6.38433
-6.49471
-6.59787
-6.6931
-6.78043
-6.86119
-6.93814
-7.01516
-7.09655
-7.18661
-7.28877
-7.40509
-7.53556
-7.67885
-7.83304
-7.99566
-8.16298
-8.32933
-8.48582
-8.62053
-8.7209
-8.77643
-8.77968
-8.72545
-8.61021
-8.43222
-8.193
-7.89781
-7.55589
-7.17854
-6.78191
-6.38753
-6.0144
-5.67395
-5.37299
-5.11127
-4.88679
-4.69706
-4.53825
-4.40597
-4.29579
-4.20502
-4.13331
-4.08207
-4.05356
-4.04906
-4.06841
-4.10885
-4.16608
-4.23513
-4.30818
-4.37263
-4.4166
-4.42942
-4.39943
-4.32033
-4.1913
-4.01589
-3.79972
-3.54855
-3.268
-2.96341
-2.64126
-2.30893
-1.97316
-1.63822
-1.30529
-0.973816
-0.642353
-0.309221
0.0270407
0.367319
0.711632
1.05914
1.40762
1.75314
2.09008
2.41211
2.7139
2.99244
3.247
3.47845
3.68848
3.87916
4.05273
4.21143
4.35752
4.49285
4.61813
4.73271
4.83504
4.9236
4.9976
5.05726
5.10372
5.13853
5.16319
5.179
5.18711
5.18864
5.18468
5.17622
5.16416
5.1493
5.1324
5.11422
5.09542
5.07664
5.05843
5.04123
5.02536
5.01097
4.99807
4.98663
4.97656
4.96763
4.95957
4.9521
4.94497
4.93803
4.93114
4.92425
4.91733
4.9104
4.90352
4.89671
4.89
4.88339
4.87688
4.87046
4.86412
4.85785
4.85162
4.84541
4.83919
4.83294
4.82665
4.82028
4.81383
4.80728
4.80063
4.79387
4.78698
4.77996
4.77275
4.7653
4.75748
4.74914
4.74
4.72965
4.71749
4.70263
4.68394
4.6599
-1.26952
-1.28993
-1.33303
-1.3995
-1.49435
-1.62063
-1.78138
-1.97749
-2.2078
-2.4691
-2.75674
-3.06531
-3.38945
-3.72411
-4.06418
-4.40386
-4.73665
-5.0559
-5.35592
-5.63254
-5.88355
-6.10913
-6.31188
-6.49572
-6.66474
-6.82225
-6.97006
-7.10844
-7.23661
-7.35364
-7.45966
-7.55589
-7.64487
-7.72999
-7.81486
-7.90344
-7.9996
-8.10659
-8.22617
-8.35858
-8.50298
-8.65727
-8.81769
-8.97801
-9.12855
-9.25673
-9.34983
-9.39702
-9.39088
-9.32622
-9.19897
-9.0065
-8.74911
-8.43161
-8.06279
-7.65512
-7.22783
-6.80512
-6.40579
-6.04001
-5.71522
-5.43327
-5.19221
-4.98896
-4.81883
-4.67683
-4.55859
-4.46203
-4.38738
-4.33642
-4.3111
-4.31232
-4.33917
-4.389
-4.45763
-4.53893
-4.62347
-4.69742
-4.7478
-4.76343
-4.73404
-4.65422
-4.52267
-4.34223
-4.11818
-3.85684
-3.56461
-3.24745
-2.91235
-2.5673
-2.21999
-1.87512
-1.53383
-1.19527
-0.857176
-0.516957
-0.172475
0.177352
0.532529
0.891929
1.25279
1.61056
1.95879
2.29082
2.60114
2.88671
3.14688
3.38275
3.59639
3.79029
3.96685
4.12838
4.27709
4.41474
4.54185
4.65767
4.76079
4.84993
4.92457
4.98513
5.03282
5.06914
5.09549
5.11309
5.12305
5.12654
5.12463
5.11831
5.10842
5.09577
5.08113
5.06528
5.04893
5.03273
5.01724
5.00297
4.99024
4.97911
4.96953
4.96141
4.95459
4.9488
4.94366
4.93882
4.93399
4.929
4.92377
4.91827
4.91253
4.90659
4.90052
4.89439
4.88824
4.88208
4.87591
4.86974
4.86358
4.85742
4.85126
4.84508
4.83886
4.83257
4.82621
4.81975
4.81318
4.80647
4.79962
4.79261
4.78542
4.77801
4.77033
4.76229
4.75376
4.74454
4.73435
4.72277
4.7092
4.69283
4.67263
4.64731
-1.2293
-1.24887
-1.29318
-1.36325
-1.46573
-1.60532
-1.78613
-2.00943
-2.27388
-2.57513
-2.90681
-3.26135
-3.63117
-4.00934
-4.38986
-4.76714
-5.13527
-5.48779
-5.81827
-6.1222
-6.39787
-6.64613
-6.8696
-7.07213
-7.25775
-7.42968
-7.58947
-7.7371
-7.87148
-7.9913
-8.09616
-8.18671
-8.26495
-8.33403
-8.39748
-8.45954
-8.52498
-8.59843
-8.6831
-8.7806
-8.89054
-9.01156
-9.14085
-9.27343
-9.40089
-9.51122
-9.59171
-9.63104
-9.621
-9.55574
-9.4309
-9.24431
-8.99507
-8.68601
-8.32487
-7.92412
-7.50187
-7.08206
-6.68292
-6.31473
-5.98437
-5.69604
-5.44846
-5.23854
-5.06154
-4.91282
-4.78911
-4.68958
-4.61507
-4.56697
-4.54609
-4.55167
-4.58171
-4.63415
-4.70582
-4.79055
-4.87818
-4.95419
-5.00439
-5.01738
-4.98499
-4.90307
-4.77022
-4.58814
-4.36193
-4.09728
-3.80075
-3.47877
-3.13879
-2.78895
-2.43696
-2.08749
-1.7418
-1.39886
-1.05592
-0.709837
-0.35816
0.000282951
0.365367
0.73556
1.1073
1.47526
1.83267
2.17276
2.49008
2.78152
3.04642
3.28607
3.50295
3.69983
3.87928
4.04356
4.19476
4.33442
4.4629
4.57944
4.68284
4.77215
4.84713
4.90837
4.95711
4.99476
5.02262
5.04183
5.05356
5.05895
5.05905
5.05478
5.04697
5.0364
5.02392
5.01037
4.99651
4.98299
4.97043
4.95937
4.95014
4.94277
4.93706
4.9328
4.92976
4.9276
4.92584
4.92403
4.92183
4.91908
4.91571
4.91177
4.90732
4.90247
4.89729
4.89189
4.88633
4.88065
4.87486
4.86897
4.86301
4.85699
4.85091
4.84476
4.83854
4.83223
4.8258
4.81925
4.81255
4.80568
4.79863
4.79138
4.78389
4.77611
4.76798
4.75938
4.75017
4.74014
4.72898
4.71627
4.70145
4.68375
4.66227
4.63586
-1.20763
-1.22767
-1.27547
-1.35246
-1.46775
-1.62712
-1.83581
-2.09559
-2.40464
-2.75689
-3.14375
-3.55532
-3.98208
-4.41545
-4.84831
-5.27352
-5.68286
-6.06744
-6.42031
-6.73769
-7.01885
-7.26567
-7.48205
-7.67293
-7.84316
-7.99659
-8.13536
-8.25968
-8.36836
-8.45976
-8.53315
-8.58914
-8.62961
-8.65787
-8.6776
-8.69323
-8.70969
-8.73331
-8.76847
-8.81761
-8.88121
-8.95884
-9.04837
-9.14607
-9.24492
-9.3345
-9.40266
-9.43834
-9.43266
-9.37887
-9.27211
-9.11017
-8.89245
-8.62103
-8.30042
-7.94112
-7.55869
-7.17323
-6.80269
-6.45766
-6.14319
-5.86482
-5.62336
-5.41592
-5.23856
-5.08797
-4.96267
-4.86342
-4.79167
-4.74775
-4.7305
-4.7379
-4.76737
-4.81717
-4.88519
-4.96562
-5.0477
-5.11696
-5.15923
-5.16446
-5.12628
-5.04166
-4.90911
-4.72945
-4.50627
-4.24506
-3.95215
-3.63433
-3.29886
-2.95335
-2.60479
-2.25747
-1.91273
-1.56951
-1.22487
-0.875476
-0.518804
-0.153801
0.219083
0.597699
0.977551
1.35269
1.71626
2.06167
2.38365
2.67907
2.94732
3.18993
3.40954
3.60909
3.79115
3.95789
4.11121
4.25243
4.38176
4.49852
4.60178
4.69093
4.76598
4.82767
4.87722
4.91596
4.94508
4.96575
4.97911
4.98628
4.9882
4.98572
4.97967
4.97089
4.96033
4.94893
4.93752
4.92679
4.91731
4.90971
4.90441
4.90137
4.90018
4.90045
4.90187
4.90395
4.90608
4.90772
4.90851
4.90827
4.907
4.90478
4.90175
4.89806
4.89385
4.88924
4.88431
4.87914
4.87376
4.86818
4.86243
4.85655
4.85056
4.84446
4.83825
4.8319
4.82542
4.81877
4.81195
4.80493
4.79769
4.7902
4.78242
4.77429
4.76572
4.75659
4.74675
4.73596
4.72391
4.71019
4.69426
4.6754
4.65281
4.62546
-1.19898
-1.22182
-1.27608
-1.36434
-1.49903
-1.68701
-1.93508
-2.24473
-2.61256
-3.02952
-3.48399
-3.96379
-4.45738
-4.95352
-5.44156
-5.91067
-6.34955
-6.74845
-7.09996
-7.40004
-7.64869
-7.84972
-8.00987
-8.13752
-8.24094
-8.32648
-8.39826
-8.45832
-8.50628
-8.5418
-8.56347
-8.57109
-8.56532
-8.54798
-8.5221
-8.49147
-8.46041
-8.43545
-8.42237
-8.42492
-8.44433
-8.48034
-8.53168
-8.59601
-8.66827
-8.73996
-8.80059
-8.83989
-8.84862
-8.81904
-8.74548
-8.62502
-8.45708
-8.24325
-7.987
-7.69611
-7.38178
-7.05866
-6.74258
-6.44404
-6.16633
-5.91373
-5.69102
-5.49608
-5.32643
-5.18065
-5.05908
-4.96357
-4.89571
-4.85527
-4.83997
-4.84681
-4.87352
-4.91811
-4.97803
-5.04711
-5.11489
-5.16871
-5.19698
-5.19153
-5.14714
-5.06062
-4.93034
-4.7565
-4.5418
-4.29111
-4.01027
-3.70562
-3.38362
-3.05088
-2.71338
-2.37489
-2.03666
-1.6976
-1.3549
-1.00531
-0.646516
-0.277802
0.0997491
0.483077
0.867139
1.24561
1.61169
1.95904
2.28266
2.57968
2.84967
3.0942
3.3159
3.51766
3.70192
3.87069
4.02567
4.16794
4.29764
4.41421
4.51698
4.60566
4.68051
4.74238
4.79248
4.83203
4.8622
4.88413
4.89892
4.90756
4.91087
4.90968
4.90489
4.89748
4.88852
4.87909
4.87015
4.86233
4.85619
4.8524
4.85153
4.85354
4.85775
4.86346
4.87023
4.87738
4.88408
4.8897