/*--------------------------------*- C++ -*----------------------------------*\
  =========                 |
  \\      /  F ield         | OpenFOAM: The Open Source CFD Toolbox
   \\    /   O peration     | Website:  https://openfoam.org
    \\  /    A nd           | Version:  7
     \\/     M anipulation  |
\*---------------------------------------------------------------------------*/
FoamFile
{
    version     2.0;
    format      ascii;
    class       volScalarField;
    location    "0.096";
    object      pPrime2Mean;
}
// * * * * * * * * * * * * * * * * * * * * * * * * * * * * * * * * * * * * * //

dimensions      [0 4 -4 0 0 0 0];

internalField   nonuniform List<scalar> 
12225
(
3.757e+06
3.69737e+06
3.63574e+06
3.57627e+06
3.5191e+06
3.46409e+06
3.41108e+06
3.35992e+06
3.31045e+06
3.26249e+06
3.21585e+06
3.17031e+06
3.12561e+06
3.0814e+06
3.03723e+06
2.99238e+06
2.94558e+06
2.89365e+06
3.75706e+06
3.6974e+06
3.63577e+06
3.5763e+06
3.51914e+06
3.46413e+06
3.41112e+06
3.35997e+06
3.31051e+06
3.26257e+06
3.21596e+06
3.17045e+06
3.12579e+06
3.08166e+06
3.03761e+06
2.99299e+06
2.94673e+06
2.89627e+06
3.75715e+06
3.69746e+06
3.63584e+06
3.57637e+06
3.51921e+06
3.46422e+06
3.41123e+06
3.3601e+06
3.31066e+06
3.26276e+06
3.21619e+06
3.17075e+06
3.12619e+06
3.08222e+06
3.03843e+06
2.99429e+06
2.94903e+06
2.90167e+06
3.75727e+06
3.69757e+06
3.63595e+06
3.57648e+06
3.51934e+06
3.46436e+06
3.4114e+06
3.3603e+06
3.31091e+06
3.26306e+06
3.21658e+06
3.17125e+06
3.12686e+06
3.08313e+06
3.03974e+06
2.99631e+06
2.95243e+06
2.90814e+06
3.75741e+06
3.69772e+06
3.63611e+06
3.57665e+06
3.51953e+06
3.46457e+06
3.41165e+06
3.3606e+06
3.31127e+06
3.26351e+06
3.21714e+06
3.17197e+06
3.12781e+06
3.08442e+06
3.04157e+06
2.99903e+06
2.95671e+06
2.91513e+06
3.75762e+06
3.69793e+06
3.63632e+06
3.57688e+06
3.51978e+06
3.46487e+06
3.41199e+06
3.36101e+06
3.31177e+06
3.26412e+06
3.21791e+06
3.17295e+06
3.12909e+06
3.08614e+06
3.04394e+06
3.0024e+06
2.96166e+06
2.92239e+06
3.75789e+06
3.69821e+06
3.63662e+06
3.57719e+06
3.52013e+06
3.46526e+06
3.41244e+06
3.36154e+06
3.31242e+06
3.26492e+06
3.21891e+06
3.17422e+06
3.13072e+06
3.08828e+06
3.04682e+06
3.00636e+06
2.96713e+06
2.92976e+06
3.75823e+06
3.69858e+06
3.63699e+06
3.57759e+06
3.52056e+06
3.46575e+06
3.41302e+06
3.36223e+06
3.31325e+06
3.26593e+06
3.22016e+06
3.17579e+06
3.13273e+06
3.09087e+06
3.05021e+06
3.01083e+06
2.97299e+06
2.93721e+06
3.75869e+06
3.69904e+06
3.63746e+06
3.57809e+06
3.52111e+06
3.46638e+06
3.41374e+06
3.36308e+06
3.31427e+06
3.26718e+06
3.22169e+06
3.17769e+06
3.13511e+06
3.0939e+06
3.05406e+06
3.01573e+06
2.97914e+06
2.9447e+06
3.75925e+06
3.69961e+06
3.63805e+06
3.57871e+06
3.52179e+06
3.46714e+06
3.41462e+06
3.36412e+06
3.31551e+06
3.26868e+06
3.22351e+06
3.17994e+06
3.13789e+06
3.09734e+06
3.05834e+06
3.021e+06
2.98553e+06
2.95221e+06
3.76006e+06
3.70033e+06
3.63876e+06
3.57945e+06
3.5226e+06
3.46806e+06
3.41568e+06
3.36536e+06
3.31699e+06
3.27044e+06
3.22565e+06
3.18252e+06
3.14103e+06
3.10117e+06
3.06298e+06
3.02657e+06
2.99209e+06
2.95973e+06
3.7608e+06
3.70111e+06
3.63954e+06
3.58027e+06
3.5235e+06
3.46906e+06
3.41683e+06
3.3667e+06
3.31857e+06
3.27232e+06
3.22789e+06
3.18521e+06
3.14425e+06
3.10502e+06
3.06754e+06
3.03192e+06
2.99824e+06
2.96662e+06
3.76183e+06
3.70202e+06
3.64044e+06
3.58121e+06
3.52451e+06
3.47019e+06
3.41813e+06
3.36821e+06
3.32033e+06
3.2744e+06
3.23035e+06
3.18813e+06
3.1477e+06
3.10908e+06
3.07228e+06
3.03737e+06
3.00441e+06
2.97345e+06
3.76318e+06
3.70324e+06
3.64163e+06
3.58244e+06
3.52584e+06
3.47168e+06
3.41982e+06
3.37016e+06
3.3226e+06
3.27706e+06
3.23347e+06
3.19177e+06
3.15195e+06
3.114e+06
3.07792e+06
3.04375e+06
3.01151e+06
2.98121e+06
3.76494e+06
3.70484e+06
3.64319e+06
3.58406e+06
3.52759e+06
3.47362e+06
3.42202e+06
3.37268e+06
3.3255e+06
3.28042e+06
3.23735e+06
3.19626e+06
3.1571e+06
3.11986e+06
3.08453e+06
3.0511e+06
3.01957e+06
2.98991e+06
3.76712e+06
3.70689e+06
3.64522e+06
3.58616e+06
3.52985e+06
3.47612e+06
3.42483e+06
3.37587e+06
3.32915e+06
3.28459e+06
3.24211e+06
3.20167e+06
3.16322e+06
3.12671e+06
3.09213e+06
3.05943e+06
3.02858e+06
2.99954e+06
3.76989e+06
3.70947e+06
3.64778e+06
3.58882e+06
3.53271e+06
3.47927e+06
3.42834e+06
3.37983e+06
3.33362e+06
3.28963e+06
3.2478e+06
3.20804e+06
3.1703e+06
3.13453e+06
3.10067e+06
3.06866e+06
3.03845e+06
3.00997e+06
3.77305e+06
3.71254e+06
3.65089e+06
3.59208e+06
3.53621e+06
3.4831e+06
3.43259e+06
3.38457e+06
3.33891e+06
3.29554e+06
3.25435e+06
3.21528e+06
3.17824e+06
3.14316e+06
3.10997e+06
3.0786e+06
3.04897e+06
3.021e+06
3.77657e+06
3.71601e+06
3.65444e+06
3.59583e+06
3.54027e+06
3.48753e+06
3.43747e+06
3.38996e+06
3.34487e+06
3.3021e+06
3.26155e+06
3.22312e+06
3.18672e+06
3.15227e+06
3.11968e+06
3.08887e+06
3.05975e+06
3.03223e+06
3.77911e+06
3.71869e+06
3.65729e+06
3.59891e+06
3.54362e+06
3.4912e+06
3.4415e+06
3.39438e+06
3.34971e+06
3.30738e+06
3.26727e+06
3.22929e+06
3.19333e+06
3.1593e+06
3.12711e+06
3.09666e+06
3.06786e+06
3.04063e+06
3.78051e+06
3.72036e+06
3.65915e+06
3.60097e+06
3.54588e+06
3.49369e+06
3.44424e+06
3.39738e+06
3.35298e+06
3.31092e+06
3.27109e+06
3.23338e+06
3.19769e+06
3.16391e+06
3.13196e+06
3.10172e+06
3.07312e+06
3.04607e+06
3.78161e+06
3.72152e+06
3.66047e+06
3.60244e+06
3.54753e+06
3.49552e+06
3.44624e+06
3.39957e+06
3.35536e+06
3.3135e+06
3.27386e+06
3.23634e+06
3.20083e+06
3.16722e+06
3.13542e+06
3.10533e+06
3.07686e+06
3.04992e+06
3.78201e+06
3.72224e+06
3.66136e+06
3.60348e+06
3.5487e+06
3.49682e+06
3.44768e+06
3.40114e+06
3.35707e+06
3.31534e+06
3.27584e+06
3.23845e+06
3.20306e+06
3.16957e+06
3.13788e+06
3.10789e+06
3.07951e+06
3.05264e+06
3.78235e+06
3.72271e+06
3.66197e+06
3.6042e+06
3.54953e+06
3.49774e+06
3.4487e+06
3.40225e+06
3.35828e+06
3.31664e+06
3.27723e+06
3.23993e+06
3.20463e+06
3.17122e+06
3.1396e+06
3.10967e+06
3.08135e+06
3.05454e+06
3.78252e+06
3.72299e+06
3.66236e+06
3.60469e+06
3.55009e+06
3.49838e+06
3.4494e+06
3.40302e+06
3.35911e+06
3.31754e+06
3.27819e+06
3.24095e+06
3.2057e+06
3.17235e+06
3.14078e+06
3.1109e+06
3.08262e+06
3.05584e+06
3.78242e+06
3.72313e+06
3.66261e+06
3.60501e+06
3.55047e+06
3.4988e+06
3.44987e+06
3.40354e+06
3.35967e+06
3.31814e+06
3.27884e+06
3.24164e+06
3.20643e+06
3.1731e+06
3.14157e+06
3.11172e+06
3.08346e+06
3.05671e+06
3.78235e+06
3.72321e+06
3.66277e+06
3.60521e+06
3.55071e+06
3.49908e+06
3.45018e+06
3.40387e+06
3.36003e+06
3.31853e+06
3.27925e+06
3.24208e+06
3.20689e+06
3.17359e+06
3.14208e+06
3.11225e+06
3.08401e+06
3.05727e+06
3.78233e+06
3.72325e+06
3.66286e+06
3.60534e+06
3.55085e+06
3.49924e+06
3.45036e+06
3.40407e+06
3.36025e+06
3.31877e+06
3.27951e+06
3.24234e+06
3.20718e+06
3.17389e+06
3.14239e+06
3.11257e+06
3.08434e+06
3.05761e+06
3.78233e+06
3.72328e+06
3.66291e+06
3.6054e+06
3.55093e+06
3.49933e+06
3.45046e+06
3.40418e+06
3.36037e+06
3.3189e+06
3.27964e+06
3.24249e+06
3.20733e+06
3.17405e+06
3.14255e+06
3.11274e+06
3.08452e+06
3.05779e+06
3.78233e+06
3.72329e+06
3.66293e+06
3.60543e+06
3.55096e+06
3.49937e+06
3.4505e+06
3.40423e+06
3.36042e+06
3.31895e+06
3.2797e+06
3.24255e+06
3.20739e+06
3.17411e+06
3.14262e+06
3.11281e+06
3.08459e+06
3.05787e+06
2.44509e+06
2.4449e+06
2.44451e+06
2.44391e+06
2.44311e+06
2.4421e+06
2.44087e+06
2.43943e+06
2.43777e+06
2.43589e+06
2.43378e+06
2.43145e+06
2.42889e+06
2.4261e+06
2.42307e+06
2.41982e+06
2.41633e+06
2.41262e+06
2.40866e+06
2.40448e+06
2.40007e+06
2.39542e+06
2.39054e+06
2.38544e+06
2.38011e+06
2.37455e+06
2.36877e+06
2.36277e+06
2.35655e+06
2.35011e+06
2.34345e+06
2.33659e+06
2.32952e+06
2.32224e+06
2.31475e+06
2.30707e+06
2.29919e+06
2.29112e+06
2.28285e+06
2.2744e+06
2.26576e+06
2.25695e+06
2.24795e+06
2.23878e+06
2.22943e+06
2.21992e+06
2.21025e+06
2.20041e+06
2.19041e+06
2.18025e+06
2.16995e+06
2.15949e+06
2.14888e+06
2.13813e+06
2.12724e+06
2.11621e+06
2.10505e+06
2.09375e+06
2.08232e+06
2.07076e+06
2.05908e+06
2.04728e+06
2.03536e+06
2.02332e+06
2.01116e+06
1.99889e+06
1.98652e+06
1.97403e+06
1.96144e+06
1.94875e+06
1.93595e+06
1.92306e+06
1.91006e+06
1.89698e+06
1.8838e+06
1.87052e+06
1.85716e+06
1.84371e+06
1.83018e+06
1.81656e+06
1.80285e+06
1.78907e+06
1.77521e+06
1.76127e+06
1.74726e+06
1.73317e+06
1.719e+06
1.70477e+06
1.69047e+06
1.6761e+06
1.66166e+06
1.64716e+06
1.63259e+06
1.61797e+06
1.60328e+06
1.58853e+06
1.57373e+06
1.55887e+06
1.54395e+06
1.52898e+06
1.51396e+06
1.49889e+06
1.48377e+06
1.4686e+06
1.45339e+06
1.43813e+06
1.42282e+06
1.40748e+06
1.39209e+06
1.37666e+06
1.3612e+06
1.3457e+06
1.33017e+06
1.3146e+06
1.299e+06
1.28337e+06
1.26771e+06
1.25202e+06
1.23631e+06
1.22057e+06
1.20481e+06
1.18903e+06
1.17323e+06
1.15741e+06
1.14157e+06
1.12572e+06
1.10986e+06
1.09399e+06
1.0781e+06
1.06221e+06
1.04632e+06
1.03042e+06
1.01452e+06
998617
982719
966827
950941
935064
919198
903346
887510
871692
855894
840120
824371
808650
792960
777303
761682
746100
730559
715063
699615
684217
668873
653585
638358
623194
608097
593070
578118
563243
548449
533741
519122
504598
490171
475848
461633
447532
433551
419695
405973
392394
378967
365707
352631
339765
327156
314901
2.44598e+06
2.44578e+06
2.44539e+06
2.44479e+06
2.44398e+06
2.44296e+06
2.44173e+06
2.44028e+06
2.43861e+06
2.43672e+06
2.4346e+06
2.43225e+06
2.42968e+06
2.42687e+06
2.42384e+06
2.42057e+06
2.41706e+06
2.41333e+06
2.40936e+06
2.40516e+06
2.40072e+06
2.39606e+06
2.39117e+06
2.38604e+06
2.38069e+06
2.37511e+06
2.36932e+06
2.36329e+06
2.35705e+06
2.3506e+06
2.34393e+06
2.33704e+06
2.32995e+06
2.32266e+06
2.31516e+06
2.30746e+06
2.29956e+06
2.29147e+06
2.28319e+06
2.27472e+06
2.26607e+06
2.25724e+06
2.24823e+06
2.23905e+06
2.22969e+06
2.22017e+06
2.21048e+06
2.20063e+06
2.19062e+06
2.18045e+06
2.17014e+06
2.15967e+06
2.14905e+06
2.1383e+06
2.1274e+06
2.11636e+06
2.10518e+06
2.09388e+06
2.08244e+06
2.07088e+06
2.05919e+06
2.04738e+06
2.03545e+06
2.02341e+06
2.01125e+06
1.99898e+06
1.98659e+06
1.9741e+06
1.96151e+06
1.94881e+06
1.93601e+06
1.92311e+06
1.91012e+06
1.89703e+06
1.88384e+06
1.87057e+06
1.8572e+06
1.84375e+06
1.83021e+06
1.81659e+06
1.80289e+06
1.7891e+06
1.77524e+06
1.7613e+06
1.74728e+06
1.73319e+06
1.71903e+06
1.70479e+06
1.69049e+06
1.67611e+06
1.66168e+06
1.64717e+06
1.63261e+06
1.61798e+06
1.60329e+06
1.58854e+06
1.57374e+06
1.55888e+06
1.54396e+06
1.52899e+06
1.51397e+06
1.4989e+06
1.48378e+06
1.46861e+06
1.45339e+06
1.43813e+06
1.42283e+06
1.40748e+06
1.39209e+06
1.37667e+06
1.3612e+06
1.3457e+06
1.33017e+06
1.3146e+06
1.299e+06
1.28337e+06
1.26771e+06
1.25202e+06
1.23631e+06
1.22057e+06
1.20481e+06
1.18903e+06
1.17323e+06
1.15741e+06
1.14157e+06
1.12572e+06
1.10986e+06
1.09399e+06
1.0781e+06
1.06221e+06
1.04632e+06
1.03042e+06
1.01452e+06
998617
982720
966827
950941
935064
919198
903346
887510
871692
855894
840120
824371
808650
792960
777303
761682
746100
730559
715063
699615
684217
668873
653585
638358
623194
608097
593070
578118
563242
548449
533740
519122
504597
490170
475847
461632
447530
433548
419692
405969
392388
378960
365696
352615
339741
327113
314801
2.44775e+06
2.44755e+06
2.44715e+06
2.44654e+06
2.44573e+06
2.4447e+06
2.44345e+06
2.44198e+06
2.44029e+06
2.43838e+06
2.43623e+06
2.43386e+06
2.43126e+06
2.42843e+06
2.42536e+06
2.42206e+06
2.41852e+06
2.41475e+06
2.41075e+06
2.40651e+06
2.40204e+06
2.39734e+06
2.39241e+06
2.38725e+06
2.38186e+06
2.37624e+06
2.37041e+06
2.36435e+06
2.35807e+06
2.35158e+06
2.34487e+06
2.33795e+06
2.33083e+06
2.32349e+06
2.31596e+06
2.30823e+06
2.3003e+06
2.29218e+06
2.28387e+06
2.27537e+06
2.26669e+06
2.25783e+06
2.24879e+06
2.23958e+06
2.2302e+06
2.22066e+06
2.21094e+06
2.20107e+06
2.19104e+06
2.18085e+06
2.17052e+06
2.16003e+06
2.1494e+06
2.13862e+06
2.1277e+06
2.11665e+06
2.10546e+06
2.09414e+06
2.08269e+06
2.07111e+06
2.05941e+06
2.04759e+06
2.03565e+06
2.02359e+06
2.01142e+06
1.99914e+06
1.98675e+06
1.97425e+06
1.96165e+06
1.94894e+06
1.93613e+06
1.92323e+06
1.91023e+06
1.89713e+06
1.88394e+06
1.87066e+06
1.85729e+06
1.84383e+06
1.83029e+06
1.81666e+06
1.80295e+06
1.78916e+06
1.7753e+06
1.76135e+06
1.74733e+06
1.73324e+06
1.71907e+06
1.70483e+06
1.69052e+06
1.67615e+06
1.66171e+06
1.6472e+06
1.63264e+06
1.61801e+06
1.60332e+06
1.58857e+06
1.57376e+06
1.5589e+06
1.54398e+06
1.52901e+06
1.51398e+06
1.49891e+06
1.48379e+06
1.46862e+06
1.4534e+06
1.43814e+06
1.42284e+06
1.40749e+06
1.3921e+06
1.37668e+06
1.36121e+06
1.34571e+06
1.33018e+06
1.31461e+06
1.29901e+06
1.28337e+06
1.26771e+06
1.25203e+06
1.23631e+06
1.22057e+06
1.20481e+06
1.18903e+06
1.17323e+06
1.15741e+06
1.14157e+06
1.12572e+06
1.10986e+06
1.09399e+06
1.0781e+06
1.06221e+06
1.04632e+06
1.03042e+06
1.01452e+06
998618
982720
966827
950941
935065
919199
903347
887510
871692
855895
840120
824371
808650
792960
777303
761682
746100
730559
715063
699615
684217
668873
653585
638358
623194
608097
593070
578117
563242
548448
533740
519121
504596
490169
475845
461629
447527
433543
419686
405961
392378
378945
365676
352586
339696
327036
314645
2.45042e+06
2.45022e+06
2.44981e+06
2.44919e+06
2.44836e+06
2.44731e+06
2.44604e+06
2.44454e+06
2.44282e+06
2.44088e+06
2.4387e+06
2.43629e+06
2.43365e+06
2.43077e+06
2.42765e+06
2.4243e+06
2.42072e+06
2.4169e+06
2.41284e+06
2.40855e+06
2.40402e+06
2.39927e+06
2.39428e+06
2.38906e+06
2.38361e+06
2.37794e+06
2.37204e+06
2.36593e+06
2.35959e+06
2.35305e+06
2.34628e+06
2.33931e+06
2.33213e+06
2.32475e+06
2.31716e+06
2.30938e+06
2.3014e+06
2.29324e+06
2.28488e+06
2.27634e+06
2.26762e+06
2.25871e+06
2.24964e+06
2.24039e+06
2.23097e+06
2.22138e+06
2.21164e+06
2.20173e+06
2.19167e+06
2.18145e+06
2.17108e+06
2.16057e+06
2.14991e+06
2.1391e+06
2.12816e+06
2.11708e+06
2.10587e+06
2.09453e+06
2.08306e+06
2.07146e+06
2.05974e+06
2.0479e+06
2.03594e+06
2.02387e+06
2.01168e+06
1.99939e+06
1.98698e+06
1.97447e+06
1.96185e+06
1.94913e+06
1.93632e+06
1.9234e+06
1.91039e+06
1.89728e+06
1.88408e+06
1.87079e+06
1.85741e+06
1.84395e+06
1.8304e+06
1.81677e+06
1.80305e+06
1.78926e+06
1.77538e+06
1.76143e+06
1.74741e+06
1.73331e+06
1.71914e+06
1.70489e+06
1.69058e+06
1.6762e+06
1.66176e+06
1.64725e+06
1.63268e+06
1.61805e+06
1.60335e+06
1.5886e+06
1.57379e+06
1.55893e+06
1.54401e+06
1.52903e+06
1.51401e+06
1.49893e+06
1.48381e+06
1.46864e+06
1.45342e+06
1.43816e+06
1.42285e+06
1.4075e+06
1.39211e+06
1.37669e+06
1.36122e+06
1.34572e+06
1.33018e+06
1.31461e+06
1.29901e+06
1.28338e+06
1.26772e+06
1.25203e+06
1.23632e+06
1.22058e+06
1.20482e+06
1.18904e+06
1.17323e+06
1.15741e+06
1.14158e+06
1.12573e+06
1.10986e+06
1.09399e+06
1.07811e+06
1.06222e+06
1.04632e+06
1.03042e+06
1.01452e+06
998619
982721
966828
950942
935065
919199
903347
887511
871693
855895
840121
824372
808651
792960
777303
761682
746100
730560
715064
699615
684217
668873
653585
638358
623194
608097
593070
578117
563241
548447
533738
519119
504593
490166
475841
461625
447521
433536
419676
405949
392362
378924
365646
352544
339633
326934
314463
2.45402e+06
2.4538e+06
2.45338e+06
2.45274e+06
2.45189e+06
2.45081e+06
2.44951e+06
2.44798e+06
2.44622e+06
2.44423e+06
2.442e+06
2.43954e+06
2.43684e+06
2.4339e+06
2.43072e+06
2.42731e+06
2.42366e+06
2.41976e+06
2.41563e+06
2.41127e+06
2.40667e+06
2.40183e+06
2.39677e+06
2.39147e+06
2.38595e+06
2.3802e+06
2.37423e+06
2.36803e+06
2.36162e+06
2.355e+06
2.34816e+06
2.34112e+06
2.33387e+06
2.32641e+06
2.31876e+06
2.31091e+06
2.30287e+06
2.29464e+06
2.28622e+06
2.27762e+06
2.26884e+06
2.25988e+06
2.25075e+06
2.24145e+06
2.23198e+06
2.22235e+06
2.21256e+06
2.20261e+06
2.1925e+06
2.18224e+06
2.17183e+06
2.16128e+06
2.15058e+06
2.13974e+06
2.12877e+06
2.11766e+06
2.10641e+06
2.09504e+06
2.08354e+06
2.07192e+06
2.06018e+06
2.04831e+06
2.03633e+06
2.02424e+06
2.01203e+06
1.99971e+06
1.98729e+06
1.97476e+06
1.96213e+06
1.94939e+06
1.93656e+06
1.92363e+06
1.9106e+06
1.89748e+06
1.88427e+06
1.87097e+06
1.85758e+06
1.84411e+06
1.83055e+06
1.8169e+06
1.80318e+06
1.78938e+06
1.7755e+06
1.76154e+06
1.74751e+06
1.7334e+06
1.71922e+06
1.70497e+06
1.69066e+06
1.67627e+06
1.66182e+06
1.64731e+06
1.63274e+06
1.6181e+06
1.6034e+06
1.58865e+06
1.57383e+06
1.55896e+06
1.54404e+06
1.52907e+06
1.51404e+06
1.49896e+06
1.48383e+06
1.46866e+06
1.45344e+06
1.43818e+06
1.42287e+06
1.40752e+06
1.39213e+06
1.3767e+06
1.36123e+06
1.34573e+06
1.33019e+06
1.31462e+06
1.29902e+06
1.28339e+06
1.26773e+06
1.25204e+06
1.23632e+06
1.22058e+06
1.20482e+06
1.18904e+06
1.17324e+06
1.15742e+06
1.14158e+06
1.12573e+06
1.10987e+06
1.09399e+06
1.07811e+06
1.06222e+06
1.04632e+06
1.03042e+06
1.01452e+06
998620
982722
966829
950943
935066
919200
903348
887512
871693
855896
840121
824372
808651
792961
777304
761683
746100
730560
715064
699615
684217
668873
653585
638358
623194
608096
593069
578116
563240
548446
533737
519117
504591
490163
475837
461619
447514
433527
419664
405933
392341
378896
365609
352490
339555
326815
314272
2.45855e+06
2.45832e+06
2.45788e+06
2.45722e+06
2.45634e+06
2.45523e+06
2.45389e+06
2.45231e+06
2.4505e+06
2.44845e+06
2.44616e+06
2.44363e+06
2.44085e+06
2.43784e+06
2.43458e+06
2.43108e+06
2.42734e+06
2.42336e+06
2.41914e+06
2.41468e+06
2.40998e+06
2.40505e+06
2.39988e+06
2.39449e+06
2.38887e+06
2.38302e+06
2.37695e+06
2.37066e+06
2.36415e+06
2.35744e+06
2.35051e+06
2.34337e+06
2.33603e+06
2.32849e+06
2.32075e+06
2.31282e+06
2.3047e+06
2.29639e+06
2.28789e+06
2.27922e+06
2.27037e+06
2.26134e+06
2.25214e+06
2.24278e+06
2.23324e+06
2.22355e+06
2.2137e+06
2.20369e+06
2.19353e+06
2.18322e+06
2.17276e+06
2.16216e+06
2.15142e+06
2.14054e+06
2.12952e+06
2.11837e+06
2.10709e+06
2.09568e+06
2.08415e+06
2.07249e+06
2.06072e+06
2.04882e+06
2.03681e+06
2.02469e+06
2.01246e+06
2.00012e+06
1.98767e+06
1.97512e+06
1.96246e+06
1.94971e+06
1.93686e+06
1.92391e+06
1.91087e+06
1.89773e+06
1.88451e+06
1.87119e+06
1.85779e+06
1.8443e+06
1.83073e+06
1.81708e+06
1.80334e+06
1.78953e+06
1.77564e+06
1.76167e+06
1.74763e+06
1.73352e+06
1.71933e+06
1.70507e+06
1.69075e+06
1.67636e+06
1.66191e+06
1.64739e+06
1.63281e+06
1.61816e+06
1.60346e+06
1.5887e+06
1.57389e+06
1.55901e+06
1.54409e+06
1.52911e+06
1.51408e+06
1.499e+06
1.48387e+06
1.46869e+06
1.45347e+06
1.4382e+06
1.42289e+06
1.40754e+06
1.39215e+06
1.37672e+06
1.36125e+06
1.34575e+06
1.33021e+06
1.31464e+06
1.29903e+06
1.2834e+06
1.26774e+06
1.25205e+06
1.23633e+06
1.22059e+06
1.20483e+06
1.18905e+06
1.17324e+06
1.15742e+06
1.14159e+06
1.12573e+06
1.10987e+06
1.09399e+06
1.07811e+06
1.06222e+06
1.04632e+06
1.03042e+06
1.01452e+06
998622
982724
966831
950944
935067
919201
903349
887512
871694
855896
840122
824373
808652
792961
777304
761683
746101
730560
715064
699615
684217
668873
653585
638358
623193
608096
593068
578115
563239
548444
533735
519114
504587
490158
475832
461612
447505
433515
419650
405914
392316
378863
365564
352428
339467
326685
314079
2.46404e+06
2.46381e+06
2.46335e+06
2.46266e+06
2.46174e+06
2.46059e+06
2.45919e+06
2.45756e+06
2.45568e+06
2.45356e+06
2.45119e+06
2.44857e+06
2.44571e+06
2.44259e+06
2.43924e+06
2.43563e+06
2.43178e+06
2.42769e+06
2.42335e+06
2.41878e+06
2.41396e+06
2.40891e+06
2.40362e+06
2.39811e+06
2.39237e+06
2.3864e+06
2.38021e+06
2.37381e+06
2.36718e+06
2.36035e+06
2.35331e+06
2.34606e+06
2.33862e+06
2.33097e+06
2.32313e+06
2.3151e+06
2.30688e+06
2.29847e+06
2.28989e+06
2.28112e+06
2.27218e+06
2.26307e+06
2.2538e+06
2.24435e+06
2.23475e+06
2.22498e+06
2.21506e+06
2.20499e+06
2.19476e+06
2.18439e+06
2.17387e+06
2.16322e+06
2.15242e+06
2.14148e+06
2.13042e+06
2.11922e+06
2.10789e+06
2.09644e+06
2.08487e+06
2.07317e+06
2.06136e+06
2.04943e+06
2.03739e+06
2.02523e+06
2.01297e+06
2.0006e+06
1.98812e+06
1.97554e+06
1.96287e+06
1.95009e+06
1.93721e+06
1.92424e+06
1.91118e+06
1.89803e+06
1.88478e+06
1.87145e+06
1.85803e+06
1.84453e+06
1.83095e+06
1.81728e+06
1.80353e+06
1.78971e+06
1.7758e+06
1.76183e+06
1.74778e+06
1.73365e+06
1.71946e+06
1.70519e+06
1.69086e+06
1.67646e+06
1.662e+06
1.64748e+06
1.63289e+06
1.61824e+06
1.60353e+06
1.58877e+06
1.57395e+06
1.55907e+06
1.54414e+06
1.52916e+06
1.51412e+06
1.49904e+06
1.4839e+06
1.46873e+06
1.4535e+06
1.43823e+06
1.42292e+06
1.40757e+06
1.39217e+06
1.37674e+06
1.36127e+06
1.34576e+06
1.33022e+06
1.31465e+06
1.29905e+06
1.28341e+06
1.26775e+06
1.25206e+06
1.23634e+06
1.2206e+06
1.20484e+06
1.18905e+06
1.17325e+06
1.15743e+06
1.14159e+06
1.12574e+06
1.10987e+06
1.094e+06
1.07811e+06
1.06222e+06
1.04633e+06
1.03043e+06
1.01452e+06
998624
982726
966832
950946
935068
919202
903350
887513
871695
855897
840123
824373
808652
792962
777305
761683
746101
730560
715064
699616
684217
668873
653585
638357
623193
608095
593068
578114
563237
548442
533732
519111
504583
490153
475825
461604
447495
433502
419633
405892
392287
378825
365513
352359
339371
326550
313889
2.47055e+06
2.4703e+06
2.46981e+06
2.46909e+06
2.46813e+06
2.46692e+06
2.46546e+06
2.46375e+06
2.46179e+06
2.45958e+06
2.45711e+06
2.45439e+06
2.45142e+06
2.44819e+06
2.44471e+06
2.44097e+06
2.43699e+06
2.43276e+06
2.42829e+06
2.42357e+06
2.41861e+06
2.41342e+06
2.40799e+06
2.40233e+06
2.39645e+06
2.39034e+06
2.38401e+06
2.37747e+06
2.37071e+06
2.36374e+06
2.35657e+06
2.34919e+06
2.34162e+06
2.33385e+06
2.32588e+06
2.31773e+06
2.3094e+06
2.30089e+06
2.29219e+06
2.28332e+06
2.27429e+06
2.26508e+06
2.25571e+06
2.24617e+06
2.23648e+06
2.22663e+06
2.21663e+06
2.20648e+06
2.19618e+06
2.18574e+06
2.17516e+06
2.16443e+06
2.15357e+06
2.14258e+06
2.13145e+06
2.1202e+06
2.10882e+06
2.09732e+06
2.0857e+06
2.07396e+06
2.0621e+06
2.05013e+06
2.03805e+06
2.02586e+06
2.01356e+06
2.00115e+06
1.98865e+06
1.97604e+06
1.96333e+06
1.95052e+06
1.93762e+06
1.92463e+06
1.91154e+06
1.89837e+06
1.88511e+06
1.87175e+06
1.85832e+06
1.8448e+06
1.8312e+06
1.81751e+06
1.80375e+06
1.78991e+06
1.776e+06
1.76201e+06
1.74795e+06
1.73381e+06
1.71961e+06
1.70533e+06
1.69099e+06
1.67658e+06
1.66211e+06
1.64758e+06
1.63299e+06
1.61833e+06
1.60362e+06
1.58885e+06
1.57402e+06
1.55914e+06
1.5442e+06
1.52921e+06
1.51417e+06
1.49909e+06
1.48395e+06
1.46877e+06
1.45354e+06
1.43827e+06
1.42295e+06
1.40759e+06
1.3922e+06
1.37676e+06
1.36129e+06
1.34578e+06
1.33024e+06
1.31467e+06
1.29906e+06
1.28343e+06
1.26776e+06
1.25207e+06
1.23635e+06
1.22061e+06
1.20485e+06
1.18906e+06
1.17326e+06
1.15743e+06
1.1416e+06
1.12574e+06
1.10988e+06
1.094e+06
1.07812e+06
1.06223e+06
1.04633e+06
1.03043e+06
1.01453e+06
998626
982728
966834
950947
935070
919204
903351
887515
871696
855898
840123
824374
808653
792962
777305
761684
746102
730561
715065
699616
684218
668873
653585
638357
623192
608095
593067
578113
563236
548440
533730
519108
504579
490148
475818
461595
447483
433488
419614
405868
392255
378783
365458
352286
339271
326414
313705
2.47811e+06
2.47784e+06
2.47732e+06
2.47656e+06
2.47554e+06
2.47426e+06
2.47273e+06
2.47093e+06
2.46887e+06
2.46655e+06
2.46396e+06
2.46111e+06
2.458e+06
2.45463e+06
2.45101e+06
2.44712e+06
2.44298e+06
2.43859e+06
2.43395e+06
2.42907e+06
2.42395e+06
2.41858e+06
2.41299e+06
2.40716e+06
2.40111e+06
2.39483e+06
2.38834e+06
2.38163e+06
2.37472e+06
2.36759e+06
2.36027e+06
2.35274e+06
2.34502e+06
2.33711e+06
2.32901e+06
2.32073e+06
2.31226e+06
2.30362e+06
2.2948e+06
2.28582e+06
2.27667e+06
2.26735e+06
2.25787e+06
2.24824e+06
2.23845e+06
2.2285e+06
2.21841e+06
2.20818e+06
2.19779e+06
2.18727e+06
2.17661e+06
2.16581e+06
2.15488e+06
2.14382e+06
2.13262e+06
2.12131e+06
2.10987e+06
2.09831e+06
2.08664e+06
2.07484e+06
2.06294e+06
2.05092e+06
2.03879e+06
2.02656e+06
2.01422e+06
2.00178e+06
1.98924e+06
1.97659e+06
1.96385e+06
1.95102e+06
1.93809e+06
1.92507e+06
1.91195e+06
1.89875e+06
1.88547e+06
1.8721e+06
1.85864e+06
1.8451e+06
1.83148e+06
1.81778e+06
1.804e+06
1.79015e+06
1.77622e+06
1.76221e+06
1.74814e+06
1.73399e+06
1.71977e+06
1.70549e+06
1.69114e+06
1.67672e+06
1.66224e+06
1.6477e+06
1.63309e+06
1.61843e+06
1.60371e+06
1.58893e+06
1.5741e+06
1.55921e+06
1.54427e+06
1.52928e+06
1.51423e+06
1.49914e+06
1.484e+06
1.46881e+06
1.45358e+06
1.4383e+06
1.42299e+06
1.40763e+06
1.39223e+06
1.37679e+06
1.36132e+06
1.34581e+06
1.33026e+06
1.31469e+06
1.29908e+06
1.28344e+06
1.26778e+06
1.25208e+06
1.23636e+06
1.22062e+06
1.20486e+06
1.18907e+06
1.17326e+06
1.15744e+06
1.1416e+06
1.12575e+06
1.10988e+06
1.09401e+06
1.07812e+06
1.06223e+06
1.04633e+06
1.03043e+06
1.01453e+06
998629
982730
966836
950949
935072
919205
903353
887516
871697
855899
840125
824375
808654
792963
777306
761685
746102
730561
715065
699616
684218
668873
653585
638357
623192
608094
593066
578111
563234
548438
533727
519104
504574
490142
475810
461585
447470
433471
419593
405841
392221
378739
365399
352208
339168
326278
313527
2.48678e+06
2.48648e+06
2.48593e+06
2.48511e+06
2.48403e+06
2.48267e+06
2.48104e+06
2.47913e+06
2.47695e+06
2.4745e+06
2.47177e+06
2.46877e+06
2.4655e+06
2.46196e+06
2.45815e+06
2.45409e+06
2.44976e+06
2.44518e+06
2.44035e+06
2.43527e+06
2.42995e+06
2.4244e+06
2.41861e+06
2.41259e+06
2.40634e+06
2.39988e+06
2.3932e+06
2.3863e+06
2.37921e+06
2.3719e+06
2.3644e+06
2.35671e+06
2.34882e+06
2.34075e+06
2.3325e+06
2.32406e+06
2.31545e+06
2.30667e+06
2.29771e+06
2.2886e+06
2.27932e+06
2.26988e+06
2.26028e+06
2.25053e+06
2.24063e+06
2.23059e+06
2.22039e+06
2.21006e+06
2.19958e+06
2.18897e+06
2.17822e+06
2.16734e+06
2.15633e+06
2.14519e+06
2.13393e+06
2.12254e+06
2.11104e+06
2.09941e+06
2.08768e+06
2.07583e+06
2.06387e+06
2.0518e+06
2.03962e+06
2.02734e+06
2.01496e+06
2.00247e+06
1.98989e+06
1.97721e+06
1.96443e+06
1.95156e+06
1.9386e+06
1.92555e+06
1.91241e+06
1.89918e+06
1.88587e+06
1.87247e+06
1.859e+06
1.84544e+06
1.8318e+06
1.81808e+06
1.80428e+06
1.79041e+06
1.77646e+06
1.76244e+06
1.74835e+06
1.73419e+06
1.71996e+06
1.70566e+06
1.6913e+06
1.67687e+06
1.66238e+06
1.64783e+06
1.63321e+06
1.61854e+06
1.60382e+06
1.58903e+06
1.57419e+06
1.5593e+06
1.54435e+06
1.52935e+06
1.5143e+06
1.4992e+06
1.48405e+06
1.46886e+06
1.45363e+06
1.43835e+06
1.42303e+06
1.40766e+06
1.39226e+06
1.37682e+06
1.36135e+06
1.34583e+06
1.33029e+06
1.31471e+06
1.2991e+06
1.28346e+06
1.26779e+06
1.2521e+06
1.23638e+06
1.22063e+06
1.20487e+06
1.18908e+06
1.17327e+06
1.15745e+06
1.14161e+06
1.12576e+06
1.10989e+06
1.09401e+06
1.07813e+06
1.06223e+06
1.04634e+06
1.03044e+06
1.01453e+06
998631
982733
966839
950952
935074
919207
903354
887517
871699
855901
840126
824376
808655
792964
777307
761685
746103
730562
715065
699616
684218
668873
653585
638357
623192
608093
593065
578110
563232
548436
533724
519100
504569
490135
475802
461574
447457
433454
419571
405813
392185
378692
365339
352129
339065
326144
313357
2.49662e+06
2.49631e+06
2.49571e+06
2.49482e+06
2.49366e+06
2.4922e+06
2.49045e+06
2.48842e+06
2.48609e+06
2.48348e+06
2.48058e+06
2.47739e+06
2.47393e+06
2.47019e+06
2.46618e+06
2.46189e+06
2.45735e+06
2.45255e+06
2.44749e+06
2.44219e+06
2.43664e+06
2.43086e+06
2.42484e+06
2.4186e+06
2.41214e+06
2.40546e+06
2.39856e+06
2.39146e+06
2.38416e+06
2.37666e+06
2.36897e+06
2.36108e+06
2.35301e+06
2.34476e+06
2.33633e+06
2.32773e+06
2.31895e+06
2.31001e+06
2.30091e+06
2.29164e+06
2.28222e+06
2.27265e+06
2.26292e+06
2.25305e+06
2.24303e+06
2.23287e+06
2.22256e+06
2.21212e+06
2.20154e+06
2.19083e+06
2.17999e+06
2.16902e+06
2.15792e+06
2.1467e+06
2.13535e+06
2.12389e+06
2.11231e+06
2.10062e+06
2.08882e+06
2.07691e+06
2.06489e+06
2.05276e+06
2.04053e+06
2.0282e+06
2.01577e+06
2.00324e+06
1.99061e+06
1.97789e+06
1.96507e+06
1.95216e+06
1.93917e+06
1.92608e+06
1.91291e+06
1.89965e+06
1.88631e+06
1.87289e+06
1.85939e+06
1.8458e+06
1.83214e+06
1.8184e+06
1.80458e+06
1.79069e+06
1.77673e+06
1.76269e+06
1.74858e+06
1.73441e+06
1.72016e+06
1.70585e+06
1.69147e+06
1.67703e+06
1.66253e+06
1.64797e+06
1.63335e+06
1.61867e+06
1.60393e+06
1.58914e+06
1.57429e+06
1.55939e+06
1.54443e+06
1.52943e+06
1.51437e+06
1.49927e+06
1.48412e+06
1.46892e+06
1.45368e+06
1.43839e+06
1.42307e+06
1.4077e+06
1.3923e+06
1.37686e+06
1.36138e+06
1.34586e+06
1.33031e+06
1.31473e+06
1.29912e+06
1.28348e+06
1.26781e+06
1.25211e+06
1.23639e+06
1.22065e+06
1.20488e+06
1.18909e+06
1.17328e+06
1.15746e+06
1.14162e+06
1.12576e+06
1.1099e+06
1.09402e+06
1.07813e+06
1.06224e+06
1.04634e+06
1.03044e+06
1.01454e+06
998635
982735
966841
950954
935076
919209
903356
887519
871700
855902
840127
824377
808656
792965
777308
761686
746103
730562
715066
699617
684218
668873
653585
638356
623191
608093
593064
578109
563230
548433
533720
519096
504564
490128
475793
461563
447443
433436
419548
405784
392148
378644
365277
352050
338963
326014
313195
2.50774e+06
2.50739e+06
2.50673e+06
2.50577e+06
2.50451e+06
2.50293e+06
2.50104e+06
2.49885e+06
2.49634e+06
2.49353e+06
2.49043e+06
2.48702e+06
2.48333e+06
2.47935e+06
2.47509e+06
2.47056e+06
2.46576e+06
2.4607e+06
2.45538e+06
2.44982e+06
2.44401e+06
2.43797e+06
2.4317e+06
2.4252e+06
2.41849e+06
2.41157e+06
2.40444e+06
2.3971e+06
2.38957e+06
2.38185e+06
2.37394e+06
2.36584e+06
2.35757e+06
2.34912e+06
2.3405e+06
2.33171e+06
2.32276e+06
2.31365e+06
2.30438e+06
2.29495e+06
2.28538e+06
2.27565e+06
2.26579e+06
2.25578e+06
2.24563e+06
2.23534e+06
2.22491e+06
2.21436e+06
2.20367e+06
2.19285e+06
2.1819e+06
2.17083e+06
2.15964e+06
2.14833e+06
2.1369e+06
2.12535e+06
2.1137e+06
2.10193e+06
2.09005e+06
2.07807e+06
2.06599e+06
2.0538e+06
2.04151e+06
2.02913e+06
2.01664e+06
2.00406e+06
1.99138e+06
1.97862e+06
1.96576e+06
1.95281e+06
1.93978e+06
1.92665e+06
1.91345e+06
1.90016e+06
1.88679e+06
1.87334e+06
1.85981e+06
1.8462e+06
1.83251e+06
1.81875e+06
1.80491e+06
1.791e+06
1.77702e+06
1.76296e+06
1.74884e+06
1.73464e+06
1.72038e+06
1.70606e+06
1.69166e+06
1.67721e+06
1.6627e+06
1.64812e+06
1.63349e+06
1.6188e+06
1.60405e+06
1.58925e+06
1.5744e+06
1.55949e+06
1.54452e+06
1.52951e+06
1.51445e+06
1.49934e+06
1.48418e+06
1.46898e+06
1.45373e+06
1.43845e+06
1.42312e+06
1.40775e+06
1.39234e+06
1.37689e+06
1.36141e+06
1.34589e+06
1.33034e+06
1.31476e+06
1.29914e+06
1.2835e+06
1.26783e+06
1.25213e+06
1.23641e+06
1.22066e+06
1.20489e+06
1.1891e+06
1.1733e+06
1.15747e+06
1.14163e+06
1.12577e+06
1.1099e+06
1.09403e+06
1.07814e+06
1.06224e+06
1.04635e+06
1.03044e+06
1.01454e+06
998638
982739
966844
950957
935078
919211
903358
887521
871702
855904
840128
824379
808657
792966
777309
761687
746104
730563
715066
699617
684219
668873
653585
638356
623191
608092
593063
578107
563229
548431
533717
519092
504558
490121
475784
461552
447428