/*--------------------------------*- C++ -*----------------------------------*\
  =========                 |
  \\      /  F ield         | OpenFOAM: The Open Source CFD Toolbox
   \\    /   O peration     | Website:  https://openfoam.org
    \\  /    A nd           | Version:  7
     \\/     M anipulation  |
\*---------------------------------------------------------------------------*/
FoamFile
{
    version     2.0;
    format      ascii;
    class       volScalarField;
    location    "0.096";
    object      s_0;
}
// * * * * * * * * * * * * * * * * * * * * * * * * * * * * * * * * * * * * * //

dimensions      [0 0 0 0 0 0 0];

internalField   nonuniform List<scalar> 
12225
(
1
1
1
1
1
1
1
1
1
1
1
1
1
1
1
1
1
1
1
1
1
1
1
1
1
1
1
1
1
1
1
1
1
1
1
1
1
1
1
1
1
1
1
1
1
1
1
1
1
1
1
1
1
1
1
1
1
1
1
1
1
1
1
1
1
1
1
1
1
1
1
1
1
1
1
1
1
1
1
1
1
1
1
1
1
1
1
1
1
1
1
1
1
1
1
1
1
1
1
1
1
1
1
1
1
1
1
1
1
1
1
1
1
1
1
1
1
1
1
1
1
1
1
1
1
1
1
1
1
1
1
1
1
1
1
1
1
1
1
1
1
1
1
1
1
1
1
1
1
1
1
1
1
1
1
1
1
1
1
1
1
1
1
1
1
1
1
1
1
1
1
1
1
1
1
1
1
1
1
1
1
1
1
1
1
1
1
1
1
1
1
1
1
1
1
1
1
1
1
1
1
1
1
1
1
1
1
1
1
1
1
1
1
1
1
1
1
1
1
1
1
1
1
1
1
1
1
1
1
1
1
1
1
1
1
1
1
1
1
1
1
1
1
1
1
1
1
1
1
1
1
1
1
1
1
1
1
1
1
1
1
1
1
1
1
1
1
1
1
1
1
1
1
1
1
1
1
1
1
1
1
1
1
1
1
1
1
1
1
1
1
1
1
1
1
1
1
1
1
1
1
1
1
1
1
1
1
1
1
1
1
1
1
1
1
1
1
1
1
1
1
1
1
1
1
1
1
1
1
1
1
1
1
1
1
1
1
1
1
1
1
1
1
1
1
1
1
1
1
1
1
1
1
1
1
1
1
1
1
1
1
1
1
1
1
1
1
1
1
1
1
1
1
1
1
1
1
1
1
1
1
1
1
1
1
1
1
1
1
1
1
1
1
1
1
1
1
1
1
1
1
1
1
1
1
1
1
1
1
1
1
1
1
1
1
1
1
1
1
1
1
1
1
1
1
1
1
1
1
1
1
1
1
1
1
1
1
1
1
1
1
1
1
1
1
1
1
1
1
1
1
1
1
1
1
1
1
1
1
1
1
1
1
1
1
1
1
1
1
1
1
1
1
1
1
1
1
1
1
1
1
1
1
1
1
1
1
1
1
1
1
1
1
1
1
1
1
1
1
1
1
1
1
1
1
1
1
1
1
1
1
1
1
1
1
1
1
1
1
1
1
1
1
1
1
1
1
1
1
1
1
1
1
1
1
1
1
1
1
1
0.153777
0.172813
0.257905
0.320414
0.337696
0.33123
0.312571
0.259478
0.218276
0.207982
0.216521
0.270439
0.330193
0.365109
0.390458
0.407667
0.414725
0.418312
0.42095
0.421661
0.42157
0.420313
0.416629
0.408178
0.387218
0.332931
0.272191
0.26049
0.260907
0.268054
0.273904
0.277526
0.288652
0.312798
0.350988
0.400799
0.455939
0.507578
0.54843
0.577381
0.600611
0.625701
0.651282
0.670274
0.683129
0.697299
0.706451
0.715355
0.72131
0.727302
0.734673
0.744296
0.757079
0.772605
0.778014
0.775067
0.75372
0.735129
0.711658
0.690813
0.677051
0.665224
0.643279
0.581216
0.405744
0.28873
0.282369
0.351237
0.390291
0.379391
0.326521
0.297552
0.332583
0.376259
0.380513
0.374201
0.386987
0.409614
0.408769
0.409097
0.421744
0.482217
0.647507
0.788774
0.858738
0.879687
0.883596
0.884681
0.885076
0.885124
0.885117
0.885038
0.884803
0.884359
0.883751
0.883082
0.882385
0.881596
0.880719
0.879869
0.878977
0.877717
0.876599
0.875489
0.874702
0.87395
0.873434
0.872894
0.872377
0.871825
0.871381
0.871102
0.8709
0.870804
0.871168
0.872017
0.87351
0.875574
0.878115
0.881055
0.884009
0.887029
0.889543
0.891985
0.894327
0.896488
0.898448
0.900173
0.901666
0.902919
0.903903
0.904573
0.904933
0.904958
0.904375
0.901906
0.897646
0.894185
0.891696
0.889125
0.88439
0.872809
0.850738
0.832078
0.820036
0.807371
0.782231
0.72187
0.573626
0.383822
0.215849
0.101395
0.040243
0.0138043
0.00420057
0.00115958
0.00030378
0.000106055
5.63098e-05
2.88578e-05
1.45289e-05
7.29994e-06
3.69734e-06
1.90066e-06
9.94778e-07
5.29497e-07
2.85234e-07
1.54414e-07
8.33748e-08
4.46015e-08
2.35073e-08
1.21584e-08
6.14896e-09
3.03432e-09
1.45585e-09
6.77677e-10
3.05195e-10
1.29947e-10
5.82511e-11
-6.22805e-12
0.167711
0.338888
0.506109
0.525796
0.518193
0.499007
0.479636
0.475027
0.462407
0.434491
0.356874
0.295156
0.293572
0.301689
0.342964
0.401141
0.418794
0.431576
0.439396
0.440902
0.438798
0.424298
0.397848
0.377085
0.362542
0.327257
0.313152
0.334516
0.410751
0.458834
0.484628
0.547525
0.652133
0.731375
0.777726
0.84711
0.909063
0.933967
0.949357
0.964214
0.97408
0.978293
0.980069
0.980957
0.981312
0.981384
0.980647
0.978235
0.974164
0.968766
0.96195
0.952004
0.937678
0.917128
0.88722
0.844654
0.790566
0.754344
0.733164
0.720509
0.720016
0.724809
0.742254
0.755618
0.734491
0.594858
0.390809
0.356762
0.362458
0.361787
0.346491
0.353664
0.395629
0.399939
0.327267
0.303611
0.353887
0.450926
0.49746
0.514199
0.525807
0.573993
0.766029
0.864329
0.878747
0.881108
0.881536
0.880007
0.876924
0.872021
0.865504
0.857038
0.84649
0.834015
0.820109
0.809792
0.80065
0.792376
0.786515
0.781231
0.778018
0.775592
0.774009
0.773263
0.772891
0.772751
0.772686
0.772751
0.7731
0.773645
0.77397
0.774815
0.775699
0.776403
0.777399
0.778378
0.779685
0.781199
0.783253
0.786135
0.79024
0.796077
0.803427
0.81189
0.82126
0.831663
0.842999
0.854649
0.86618
0.877338
0.887661
0.896568
0.90383
0.910282
0.916007
0.920911
0.924933
0.92821
0.931021
0.933531
0.93575
0.937414
0.937596
0.93694
0.934127
0.924671
0.914743
0.901522
0.871109
0.825339
0.777066
0.715812
0.635339
0.560879
0.52188
0.515521
0.517834
0.518471
0.506468
0.444002
0.339141
0.254646
0.187056
0.133529
0.0922937
0.0616516
0.0397523
0.0247439
0.0148661
0.00863472
0.0048466
0.00263669
0.00138642
0.000708576
0.000348912
0.000167263
7.72601e-05
3.27513e-05
1.83425e-05
-1.57221e-05
0.252499
0.542168
0.563932
0.555189
0.52993
0.498343
0.456347
0.441221
0.443337
0.452648
0.450994
0.432658
0.387534
0.323992
0.320096
0.340259
0.3932
0.42983
0.449908
0.45041
0.424064
0.390876
0.38
0.378495
0.377379
0.381715
0.45336
0.646009
0.756609
0.796957
0.82764
0.887158
0.934624
0.954864
0.970076
0.985552
0.991672
0.99423
0.995432
0.995964
0.996119
0.996091
0.995744
0.995229
0.994475
0.993565
0.992408
0.990659
0.987797
0.982343
0.973561
0.960441
0.941113
0.913442
0.873421
0.816354
0.749594
0.698348
0.673785
0.6586
0.648899
0.644851
0.648943
0.680513
0.714295
0.706347
0.634053
0.445405
0.387803
0.37068
0.332561
0.344679
0.379593
0.324328
0.263329
0.27678
0.389596
0.59169
0.591117
0.597163
0.697653
0.815751
0.866146
0.875842
0.877451
0.87518
0.868478
0.856713
0.837936
0.808664
0.783827
0.761604
0.744812
0.735686
0.731465
0.729561
0.728924
0.728888
0.730574
0.732297
0.735221
0.738309
0.741056
0.74387
0.7461
0.749197
0.751203
0.753629
0.755922
0.758698
0.760883
0.763355
0.765818
0.76776
0.769107
0.769705
0.769849
0.76854
0.766024
0.762223
0.759059
0.75666
0.754756
0.753675
0.753557
0.754273
0.75596
0.759007
0.764007
0.771291
0.7813
0.794701
0.811797
0.831605
0.853072
0.87412
0.891603
0.904901
0.915164
0.922776
0.928264
0.932564
0.936989
0.941477
0.944208
0.944726
0.944259
0.941296
0.928686
0.90671
0.891731
0.879664
0.869461
0.865689
0.866372
0.871179
0.883231
0.891758
0.894608
0.893834
0.884732
0.86146
0.846633
0.831265
0.798529
0.710319
0.568213
0.432526
0.318153
0.228839
0.160359
0.10978
0.0727661
0.0470731
0.0292186
0.0177338
0.0102222
0.00572283
0.00315673
0.00133863
0.555668
0.583423
0.576187
0.545886
0.476673
0.414311
0.377767
0.34978
0.348089
0.358294
0.394019
0.424928
0.423947
0.40264
0.345454
0.337406
0.351809
0.403336
0.452269
0.445002
0.394924
0.381121
0.383974
0.400086
0.446285
0.555979
0.779719
0.879166
0.918741
0.937791
0.956735
0.979128
0.988311
0.992449
0.994716
0.995888
0.996215
0.996252
0.996018
0.995552
0.995182
0.994735
0.994468
0.994298
0.994207
0.994166
0.993974
0.99377
0.993584
0.992522
0.990323
0.985968
0.977729
0.962572
0.936717
0.895412
0.832047
0.754166
0.706609
0.675304
0.652255
0.639003
0.634424
0.639661
0.673148
0.693659
0.684501
0.615162
0.460182
0.400048
0.344994
0.314068
0.299094
0.258578
0.252732
0.274442
0.415518
0.741472
0.790804
0.802165
0.839604
0.864453
0.871145
0.872223
0.86565
0.849674
0.81894
0.782908
0.750924
0.73304
0.72344
0.719665
0.719161
0.722977
0.728352
0.733034
0.73931
0.747543
0.756793
0.762938
0.768938
0.773066
0.777027
0.780519
0.783594
0.786255
0.789545
0.792419
0.794909
0.797387
0.800139
0.80179
0.804061
0.805834
0.808108
0.810434
0.813119
0.815682
0.817559
0.817883
0.811355
0.80214
0.791093
0.779429
0.769147
0.761756
0.756136
0.752317
0.750062
0.749169
0.749353
0.750907
0.753664
0.757744
0.765282
0.779622
0.803652
0.834304
0.864111
0.888586
0.907711
0.922094
0.931135
0.93512
0.937236
0.941823
0.949255
0.952782
0.952869
0.950843
0.94096
0.917102
0.903419
0.899847
0.899902
0.901837
0.910325
0.930963
0.948778
0.960291
0.965981
0.967946
0.968274
0.967838
0.964367
0.951403
0.93882
0.926785
0.9027
0.841643
0.687107
0.515883
0.369705
0.258103
0.173845
0.114298
0.0720761
0.0438283
0.0264205
0.0132028
0.599476
0.591997
0.56359
0.492211
0.421917
0.372096
0.344084
0.32291
0.313116
0.314714
0.326153
0.376663
0.417711
0.424603
0.407447
0.354363
0.353668
0.393694
0.454084
0.426392
0.384167
0.385084
0.408282
0.479337
0.647013
0.846647
0.92589
0.960222
0.974634
0.981801
0.98758
0.991326
0.99251
0.992865
0.992931
0.991836
0.99017
0.988369
0.986274
0.984907
0.984032
0.983693
0.98374
0.984951
0.986261
0.988618
0.990429
0.992146
0.994105
0.99504
0.99576
0.995981
0.996025
0.994798
0.991568
0.983563
0.96595
0.929836
0.860469
0.786062
0.719026
0.670267
0.642804
0.634517
0.642342
0.673012
0.68532
0.672835
0.602679
0.472285
0.385473
0.328891
0.29158
0.259119
0.255768
0.274154
0.40427
0.77317
0.841364
0.850799
0.861888
0.865987
0.865825
0.853861
0.823586
0.782609
0.747766
0.726121
0.715978
0.712879
0.714907
0.719895
0.726349
0.740837
0.756763
0.766257
0.774947
0.778738
0.781073
0.782206
0.782737
0.783827
0.784593
0.786192
0.78869
0.79043
0.793109
0.795638
0.797937
0.799724
0.802068
0.80322
0.804892
0.806327
0.808786
0.812058
0.816578
0.822034
0.828256
0.836544
0.844495
0.849843
0.852066
0.850957
0.844452
0.832361
0.818088
0.802492
0.788774
0.777408
0.76815
0.76124
0.756841
0.754853
0.754566
0.755598
0.75937
0.76804
0.786336
0.81259
0.842112
0.873189
0.902619
0.924858
0.937352
0.942689
0.944619
0.946557
0.951941
0.956339
0.956512
0.954192
0.942466
0.92054
0.909249
0.906422
0.906946
0.911314
0.927606
0.94691
0.961458
0.973173
0.981581
0.986331
0.988087
0.988311
0.988154
0.987405
0.985345
0.980521
0.969782
0.945458
0.879405
0.706863
0.515522
0.359865
0.242429
0.156042
0.101135
0.055501
0.606289
0.592277
0.556145
0.476604
0.403735
0.35833
0.332843
0.314059
0.301573
0.299984
0.30333
0.322724
0.385033
0.42668
0.422507
0.390279
0.367858
0.410652
0.445254
0.394517
0.387025
0.406978
0.485779
0.682819
0.873674
0.945019
0.971954
0.981844
0.985419
0.98706
0.988044
0.988447
0.986362
0.982677
0.977549
0.971477
0.965046
0.958888
0.953866
0.950574
0.948927
0.948351
0.949576
0.952408
0.957081
0.962954
0.969863
0.976063
0.983119
0.988396
0.992995
0.995557
0.996822
0.99745
0.997654
0.997076
0.994784
0.988819
0.975612
0.947701
0.888776
0.794537
0.704709
0.653321
0.636818
0.642282
0.667612
0.679762
0.667597
0.619122
0.490237
0.386073
0.31781
0.274921
0.268678
0.278714
0.338196
0.70357
0.849987
0.857699
0.861265
0.859609
0.842921
0.801753
0.759541
0.72909
0.713662
0.707755
0.706954
0.713327
0.721631
0.740027
0.759416
0.767893
0.77087
0.771747
0.771796
0.76847
0.762586
0.758571
0.756051
0.753772
0.752387
0.751216
0.750558
0.750557
0.751554
0.75364
0.756902
0.760117
0.763034
0.765847
0.768392
0.770958
0.775857
0.784067
0.794818
0.807854
0.820759
0.836046
0.849749
0.860819
0.869755
0.876128
0.879676
0.880337
0.879168
0.874496
0.863552
0.849397
0.833598
0.817502
0.802091
0.788239
0.776846
0.768768
0.764581
0.763802
0.765408
0.775164
0.801954
0.826303
0.850993
0.882268
0.913688
0.935513
0.946243
0.950254
0.951906
0.954215
0.958967
0.960586
0.959906
0.954962
0.935832
0.917968
0.910714
0.909426
0.910164
0.915305
0.934425
0.956444
0.971452
0.98138
0.987994
0.992251
0.994577
0.995496
0.995651
0.995552
0.994965
0.992965
0.987037
0.970653
0.92472
0.782608
0.578119
0.396764
0.274038
0.161754
0.615667
0.598298
0.560554
0.474825
0.398376
0.355002
0.330148
0.309887
0.295901
0.294039
0.297521
0.316749
0.385362
0.433364
0.444093
0.425963
0.413095
0.427566
0.415749
0.395018
0.402749
0.472312
0.66925
0.877326
0.949668
0.9736
0.980927
0.982952
0.983452
0.98121
0.975959
0.966302
0.951322
0.940193
0.927636
0.920008
0.91309
0.909783
0.907138
0.90603
0.905689
0.90645
0.907589
0.909883
0.912789
0.917156
0.923856
0.934638
0.947985
0.963955
0.975932
0.986847
0.992593
0.996185
0.997813
0.998491
0.998738
0.99842
0.996863
0.992526
0.981611
0.953651
0.876885
0.754132
0.675446
0.646626
0.643683
0.660967
0.675526
0.668647
0.635408
0.549556
0.408517
0.324747
0.300014
0.304964
0.330502
0.577858
0.836663
0.856733
0.855793
0.836448
0.790836
0.748679
0.719287
0.704667
0.700223
0.701866
0.708641
0.721959
0.748094
0.760987
0.76549
0.766475
0.764016
0.754029
0.746883
0.743554
0.742709
0.742966
0.74419
0.744366
0.743083
0.740629
0.737326
0.733195
0.728803
0.724655
0.721288
0.719193
0.718502
0.719098
0.720868
0.723396
0.728021
0.738162
0.75814
0.784221
0.812239
0.835509
0.854814
0.870086
0.882735
0.892457
0.899206
0.903466
0.905147
0.905409
0.90519
0.903077
0.895421
0.882228
0.866382
0.848424
0.829461
0.810868
0.794467
0.782508
0.776471
0.775453
0.777739
0.793973
0.828393
0.852179
0.878403
0.909432
0.935005
0.949587
0.955195
0.957003
0.958632
0.96237
0.964922
0.964881
0.962624
0.951247
0.929125
0.917938
0.915103
0.915479
0.918714
0.931981
0.953404
0.969881
0.981313
0.988659
0.993205
0.995975
0.997515
0.998167
0.998298
0.998239
0.997813
0.996176
0.990808
0.974257
0.925787
0.766606
0.581112
0.375776
0.627416
0.618954
0.589858
0.496222
0.404327
0.366469
0.342765
0.322254
0.300997
0.29625
0.301715
0.328655
0.407022
0.456606
0.465078
0.446456
0.430767
0.421727
0.407061
0.404616
0.453227
0.624314
0.8614
0.945634
0.970974
0.977575
0.979083
0.977071
0.967951
0.950655
0.93388
0.918674
0.910854
0.903561
0.899084
0.896847
0.895711
0.89534
0.895313
0.896175
0.896965
0.898181
0.899046
0.900257
0.901362
0.90241
0.903825
0.905922
0.90978
0.918293
0.936569
0.958369
0.975972
0.98817
0.994471
0.997497
0.998809
0.99928
0.999442
0.999153
0.997795
0.993307
0.978658
0.929929
0.809724
0.724684
0.67263
0.64906
0.65372
0.672443
0.670595
0.651025
0.591603
0.457837
0.381688
0.34626
0.347956
0.476167
0.803113
0.853209
0.841293
0.795133
0.74862
0.71569
0.699225
0.694096
0.694273
0.70296
0.716739
0.745694
0.758656
0.761679
0.76202
0.752891
0.74163
0.73839
0.739514
0.746728
0.753061
0.759106
0.764767
0.76761
0.768719
0.767898
0.763568
0.756028
0.745313
0.73288
0.721739
0.71526
0.711602
0.709755
0.708914
0.709452
0.711482
0.717914
0.735068
0.772504
0.809809
0.842188
0.871474
0.893828
0.912445
0.927112
0.936725
0.9442
0.947901
0.947949
0.946668
0.944105
0.941532
0.937412
0.928659
0.912955
0.890964
0.865612
0.840152
0.816482
0.797995
0.787517
0.784801
0.785842
0.794937
0.829545
0.86024
0.884697
0.912912
0.938115
0.953784
0.960657
0.962409
0.963673
0.966282
0.96936
0.969838
0.968836
0.963254
0.944748
0.930513
0.926134
0.926277
0.929115
0.940163
0.958311
0.972571
0.982861
0.989829
0.99419
0.996747
0.99819
0.998926
0.999189
0.999211
0.99911
0.998562
0.996507
0.98964
0.967288
0.905672
0.702339
0.635358
0.638324
0.607896
0.509447
0.414322
0.383031
0.366836
0.349773
0.32571
0.314422
0.328323
0.389022
0.457588
0.474851
0.469225
0.447597
0.42856
0.418079
0.413631
0.442619
0.574326
0.830346
0.933798
0.965539
0.973141
0.974647
0.969235
0.9528
0.926755
0.913879
0.903491
0.898257
0.895194
0.893706
0.893186
0.893125
0.893715
0.894209
0.895041
0.8958
0.896912
0.897807
0.899027
0.900013
0.901103
0.901615
0.901808
0.901767
0.901743
0.901772
0.904882
0.914217
0.937767
0.966249
0.98374
0.992506
0.996855
0.998816
0.999527
0.999725
0.999739
0.999297
0.99711
0.987078
0.945496
0.861643
0.796856
0.722993
0.659793
0.649473
0.664349
0.66708
0.655884
0.614467
0.502496
0.401413
0.379824
0.438264
0.735379
0.843725
0.818993
0.763364
0.719993
0.697195
0.688951
0.687045
0.694245
0.707482
0.737706
0.754573
0.75837
0.758481
0.747102
0.736671
0.73492
0.738858
0.747261
0.755752
0.763127
0.766097
0.768776
0.774658
0.778057
0.779986
0.780702
0.779816
0.776656
0.768559
0.753742
0.732234
0.716671
0.709602
0.706432
0.705212
0.70556
0.709756
0.724881
0.765259
0.810997
0.856116
0.893414
0.923055
0.946554
0.962042
0.97175
0.978216
0.982715
0.985374
0.986147
0.986013
0.985116
0.983283
0.980906
0.976907
0.968663
0.949823
0.918259
0.881254
0.845689
0.816611
0.79892
0.793038
0.793428
0.799221
0.827859
0.870905
0.898753
0.923092
0.944733
0.958795
0.965693
0.967637
0.968671
0.970642
0.973857
0.974871
0.974495
0.971795
0.961135
0.948734
0.943669
0.943176
0.944828
0.952009
0.966278
0.977829
0.986114
0.991702
0.995282
0.997432
0.998631
0.999258
0.999529
0.999585
0.999558
0.999347
0.99846
0.995272
0.985008
0.93753
0.638716
0.648296
0.635124
0.533695
0.428594
0.398975
0.388365
0.3821
0.377448
0.376781
0.404117
0.452058
0.473916
0.477003
0.465102
0.44077
0.428809
0.424704
0.444708
0.539671
0.789766
0.914881
0.957526
0.968336
0.970259
0.963584
0.940177
0.915096
0.903359
0.897399
0.894063
0.892662
0.892058
0.89182
0.891742
0.891999
0.892439
0.892771
0.893173
0.893429
0.894496
0.895727
0.897524
0.899542
0.90168
0.902939
0.903325
0.903328
0.90187
0.899666
0.89871
0.89937
0.905332
0.92357
0.960117
0.981282
0.991553
0.996617
0.998828
0.99964
0.999854
0.999898
0.999703
0.998028
0.986608
0.928835
0.86818
0.832974
0.775957
0.67963
0.644673
0.653936
0.657965
0.650667
0.612758
0.502481
0.442972
0.4586
0.671963
0.822927
0.802533
0.741613
0.702143
0.686036
0.681815
0.68386
0.695384
0.719578
0.747758
0.755512
0.756491
0.748048
0.733647
0.730676
0.730993
0.735945
0.738069
0.73533
0.726591
0.723027
0.729286
0.741696
0.757935
0.768072
0.775378
0.778211
0.778809
0.775414
0.76745
0.751437
0.727445
0.712044
0.705335
0.702681
0.702225
0.705214
0.720593
0.763059
0.822666
0.871377
0.909868
0.940997
0.96137
0.974826
0.983521
0.988949
0.992356
0.994563
0.995848
0.996318
0.996343
0.996241
0.995888
0.995177
0.993875
0.991061
0.983753
0.960324
0.915661
0.874554
0.838963
0.813941
0.804192
0.804303
0.810133
0.83755
0.883704
0.91413
0.936477
0.95404
0.965171
0.970688
0.972566
0.973468
0.975068
0.978253
0.979786
0.979776
0.978636
0.973368
0.96486
0.960956
0.960184
0.960877
0.964653
0.974529
0.983386
0.98967
0.993853
0.996499
0.998099
0.999008
0.999484
0.999704
0.999765
0.999759
0.99967
0.999253
0.997721
0.988221
0.64125
0.665464
0.664712
0.581572
0.459676
0.421005
0.41076
0.408776
0.419478
0.425424
0.450193
0.467317
0.473387
0.470882
0.452456
0.441234
0.436951
0.455284
0.535102
0.743427
0.890119
0.946679
0.963167
0.966227
0.961285
0.937228
0.911325
0.900008
0.894945
0.892559
0.891293
0.890352
0.889402
0.888474
0.887186
0.885434
0.883673
0.882435
0.881633
0.881348
0.881873
0.883029
0.885337
0.888983
0.894124
0.900101
0.903174
0.904509
0.904762
0.902517
0.898383
0.897009
0.897309
0.903404
0.92293
0.962173
0.982345
0.992461
0.997113
0.999042
0.999732
0.999917
0.999944
0.999753
0.997495
0.975197
0.902142
0.861146
0.840815
0.811458
0.703444
0.635218
0.63877
0.644373
0.635336
0.590784
0.498659
0.491214
0.627105
0.797083
0.789125
0.728358
0.690729
0.678491
0.675951
0.682784
0.698007
0.732647
0.751537
0.754921
0.75125
0.735586
0.724914
0.722079
0.721459
0.715283
0.689525
0.644124
0.610514
0.600437
0.621015
0.649648
0.688855
0.720911
0.744614
0.757177
0.763204
0.765456
0.763291
0.751623
0.728585
0.711563
0.701614
0.696644
0.696057
0.700856
0.719514
0.77184
0.832896
0.883194
0.922211
0.949503
0.968009
0.980286
0.988227
0.993051
0.995786
0.997298
0.99808
0.998411
0.998485
0.998477
0.998426
0.998242
0.997989
0.997681
0.996983
0.994669
0.984409
0.941546
0.885234
0.850309
0.829057
0.819794
0.819886
0.827191
0.857162
0.900799
0.929825
0.949589
0.963358
0.97162
0.975659
0.977218
0.978034
0.979378
0.982313
0.984304
0.984659
0.984326
0.982511
0.977486
0.974376
0.973554
0.973724
0.975536
0.981601
0.988175
0.992747
0.995735
0.997591
0.998697
0.999326
0.999658
0.999815
0.999864
0.999865
0.999824
0.999619
0.997944
0.641934
0.673465
0.680214
0.619723
0.498389
0.445761
0.431435
0.429293
0.440601
0.448983
0.462771
0.468164
0.469336
0.463451
0.45479
0.452507
0.472417
0.549621
0.719044
0.863887
0.933199
0.956898
0.961965
0.960709
0.94243
0.912587
0.899277
0.893499
0.890773
0.888905
0.887252
0.885494
0.883308
0.881306
0.879645
0.878086
0.877164
0.87669
0.876484
0.876434
0.876651
0.877077
0.877751
0.878859
0.880894
0.885208
0.894935
0.902509
0.905099
0.905494
0.902417
0.897208
0.896182
0.89831
0.908286
0.938141
0.970226
0.986971
0.994797
0.998101
0.999381
0.999834
0.999956
0.99996
0.999655
0.995863
0.961657
0.885984
0.854552
0.841049
0.822709
0.733215
0.645194
0.630268
0.628245
0.608301
0.529652
0.508798
0.604826
0.774205
0.775909
0.720739
0.683747
0.672449
0.672163
0.681426
0.701852
0.739194
0.751867
0.75347
0.74669
0.72321
0.712946
0.709647
0.697237
0.648973
0.52396
0.45616
0.43087
0.425513
0.466489
0.523788
0.585343
0.651195
0.696091
0.72234
0.733759
0.736642
0.736698
0.731135
0.715674
0.700844
0.691534
0.689473
0.691264
0.699325
0.725406
0.788595
0.848313
0.896697
0.93281
0.956941
0.973181
0.983982
0.990913
0.995103
0.997335
0.998299
0.998658
0.998742
0.998728
0.998685
0.998613
0.998392
0.998089
0.997973
0.997924
0.997799
0.997044
0.991689
0.963869
0.898473
0.859223
0.842403
0.837617
0.838625
0.850625
0.890337
0.926303
0.948309
0.962559
0.971922
0.977469
0.980236
0.981435
0.98214
0.983306
0.985885
0.988133
0.989006
0.989023
0.988541
0.986252
0.983549
0.982593
0.982561
0.983475
0.987219
0.991911
0.995126
0.997184
0.998435
0.999165
0.999573
0.999788
0.999889
0.999923
0.999925
0.999905
0.999637
0.641477
0.680129
0.710181
0.669078
0.567629
0.482795
0.45583
0.449746
0.451027
0.461169
0.467487
0.470203
0.470717
0.468885
0.472644
0.499647
0.587425
0.725043
0.838017
0.916299
0.947804
0.957137
0.958723
0.949751
0.92071
0.900848
0.892979
0.889303
0.887145
0.884965
0.882835
0.880801
0.878965
0.877457
0.876581
0.875847
0.875392
0.875144
0.875022
0.87498
0.875167
0.8755
0.876
0.876715
0.877576
0.87894
0.882285
0.892423
0.902924
0.905876
0.906112
0.900454
0.896814
0.897634
0.904057
0.927782
0.962759
0.983446
0.993344
0.997536
0.999159
0.999737
0.999931
0.99998
0.999951
0.999294
0.991167
0.933156
0.872069
0.84688
0.836242
0.815644
0.714578
0.641382
0.6238
0.603258
0.529673
0.51237
0.591231
0.754097
0.76267
0.714919
0.678221
0.667586
0.668875
0.679039
0.707172
0.74157
0.751666
0.7519
0.737404
0.711233
0.703511
0.694192
0.643414
0.490957
0.361614
0.30814
0.287914
0.283561
0.307108
0.364434
0.454841
0.558112
0.641384
0.689701
0.712212
0.72039
0.720718
0.714425
0.699905
0.690812
0.687772
0.687934
0.69054
0.701446
0.739122
0.806885
0.866391
0.911723
0.942854
0.965319
0.980281
0.989416
0.994454
0.997095
0.998306
0.998709
0.998793
0.998766
0.998565
0.998217
0.997985
0.997495
0.996585
0.996177
0.996226
0.996798
0.997451
0.99712
0.992498
0.967704
0.903693
0.867112
0.855334
0.854406
0.859396
0.888123
0.926496
0.94933
0.963269
0.972564
0.978742
0.982369
0.984232
0.98511
0.985679
0.986713
0.989019
0.991243
0.992413
0.992671
0.992522
0.991416
0.989322
0.988449
0.988369
0.988927
0.99145
0.99468
0.996854
0.998219
0.999031
0.999494
0.999747
0.999877
0.999938
0.999958
0.999959
0.999921
0.637998
0.680644
0.723833
0.716469
0.640044
0.55275
0.495205
0.475775
0.471321
0.47426
0.478229
0.480379
0.486277
0.499989
0.540495
0.639017
0.748928
0.836232
0.899269
0.937941
0.952416
0.956086
0.954257
0.936521
0.907869
0.894744
0.889117
0.88639
0.884104
0.881676
0.879756
0.878
0.876796
0.8759
0.875201
0.874655
0.874165
0.873846
0.873701
0.873663
0.87384
0.874213
0.874921
0.875872
0.876713
0.877586
0.879091
0.883105
0.895785
0.905107
0.90716
0.905766
0.900225
0.89945
0.90361
0.92419
0.960258
0.982229
0.992839
0.997344
0.999089
0.999711
0.999916
0.99998
0.999988
0.999884
0.997962
0.97644
0.903106
0.856981
0.835411
0.826577
0.796405
0.686314
0.632631
0.583145
0.518723
0.51049
0.584712
0.739443
0.752202
0.710939
0.673747
0.663779
0.665218
0.675203
0.707432
0.740982
0.751005
0.750685
0.731557
0.702081
0.690448
0.660479
0.554078
0.375489
0.281314
0.242495
0.228366
0.22526
0.234315
0.257605
0.305465
0.41561
0.552332
0.645808
0.695312
0.71367
0.717146
0.713089
0.699042
0.690283
0.688036
0.688566
0.692949
0.710156
0.762285
0.829288
0.884939
0.926326
0.956557
0.976456
0.988283
0.994279
0.99714
0.998356
0.998779
0.998857
0.998819
0.998616
0.997778
0.996385
0.995646
0.995035
0.993547
0.991533
0.990746
0.991297
0.994175
0.996534
0.996293
0.990981
0.962502
0.904705
0.876446
0.870338
0.872794
0.892459
0.931082
0.954709
0.967214
0.974942
0.980422
0.984111
0.986309
0.987516
0.988145
0.988625
0.98959
0.991745
0.993761
0.99487
0.99517
0.99509
0.994328
0.99286
0.992276
0.992242
0.992674
0.994549
0.996691
0.998087
0.998943
0.99944
0.999716
0.999862
0.999935
0.999968
0.999978
0.999974
0.626952
0.669402
0.730468
0.747974
0.706961
0.646258
0.581242
0.535984
0.515334
0.509583
0.512965
0.52304
0.553069
0.608714
0.695396
0.777111
0.846929
0.895907
0.928287
0.945918
0.95213
0.953246
0.946867
0.923684
0.900444
0.89099
0.886724
0.884265
0.88196
0.879708
0.878089
0.876839
0.875826
0.875125
0.874391
0.873823
0.873425
0.873216
0.873158
0.873191
0.873276
0.873457
0.873846
0.874816
0.876249
0.877292
0.878386
0.880833
0.888839
0.90213
0.907558
0.908187
0.90544
0.904426
0.907482
0.924622
0.960632
0.982865
0.993296
0.997554
0.999155
0.999725
0.999917
0.999979
0.999995
0.999982
0.999585
0.993242
0.9425
0.877462
0.836675
0.819234
0.80823
0.764888
0.659243
0.569529
0.506711
0.503901
0.580467
0.72869
0.743896
0.708022
0.670713
0.661383
0.66245
0.671436
0.70531
0.739029
0.749853
0.748783
0.728465
0.692242
0.678939
0.634672
0.485055
0.313895
0.241192
0.213517
0.203691
0.202614
0.2081
0.223251
0.252424
0.307316
0.431872
0.572536
0.663022
0.704625
0.7156
0.714563
0.704339
0.694582
0.692714
0.694014
0.70157
0.727813
0.792696
0.856765
0.905447
0.942373
0.968212
0.983746
0.991989
0.996218
0.998132
0.998803
0.99894
0.998905
0.998736
0.998192
0.996513
0.99338
0.991153
0.990389
0.990011
0.988694
0.986136
0.984994
0.985844
0.991217
0.99517
0.994813
0.987305
0.950841
0.90723
0.892545
0.892531
0.90399
0.937919
0.961733
0.973899
0.979731
0.983365
0.986182
0.988198
0.989466
0.990215
0.990649
0.991075
0.992051
0.994057
0.995714
0.99657
0.996779
0.996697
0.996061
0.995177
0.994896
0.994912
0.995308
0.996724
0.998067
0.998911
0.999414
0.999698
0.999851
0.99993
0.999968
0.999985
0.999988
0.615728
0.655438
0.715793
0.763222
0.761916
0.717386
0.68129
0.642206
0.621664
0.611711
0.62031
0.64842
0.692446
0.749431
0.808828
0.860825
0.8981
0.924578
0.940156
0.948196
0.950997
0.950864
0.940139
0.918858
0.89925
0.890056
0.885553
0.882841
0.880475
0.87846
0.876961
0.875987
0.875217
0.874676
0.87418
0.873753
0.873405
0.873184
0.873135
0.87315
0.87321
0.873346
0.87363
0.874327
0.875979
0.877274
0.878313
0.880352
0.886451
0.900694
0.908606
0.910113
0.909917
0.910426
0.915247
0.938317
0.971957
0.988938
0.996044
0.998695
0.99959
0.999873
0.99996
0.999987
0.999997
0.999997
0.999934
0.998378
0.977243
0.904519
0.848878
0.811046
0.797151
0.774041
0.704814
0.578185
0.506826
0.501752
0.572686
0.716102
0.734753
0.705225
0.667849
0.658289
0.658825
0.666709
0.69999
0.734888
0.748088
0.74754
0.730322
0.693105
0.671823
0.623256
0.47761
0.314397
0.234621
0.203891
0.194978
0.194381
0.197936
0.209583
0.235311
0.274149
0.354689
0.49372
0.617677
0.687616
0.713211
0.717443
0.713923
0.705437
0.704041
0.706262
0.717322
0.756114
0.822357
0.878808
0.925064
0.957085
0.976557
0.987767
0.994075
0.997302
0.998659
0.99902
0.999008
0.99887
0.99845
0.997409
0.99488
0.991763
0.989011
0.987193
0.986585
0.986344
0.985379
0.982543
0.981809
0.983056
0.99017
0.993922
0.992692
0.979794
0.940441
0.919526
0.917047
0.922762
0.947137
0.968975
0.979911
0.984831
0.987049
0.988706
0.990158
0.991238
0.991955
0.992413
0.992723
0.993136
0.994199
0.995922
0.997156
0.99772
0.997825
0.997733
0.997249
0.996844
0.996761
0.996809
0.997183
0.998173
0.998942
0.99942
0.999697
0.999848
0.999927
0.999966
0.999985
0.999992
0.61495
0.650014
0.669926
0.76669
0.787359
0.775872
0.746706
0.723633
0.713792
0.713339
0.727034
0.754345
0.789378
0.831907
0.87131
0.903478
0.922487
0.936755
0.94443
0.948197
0.950173
0.949606
0.940109
0.919641
0.900877
0.890984
0.885957
0.883011
0.880571
0.878548
0.876997
0.875999
0.875246
0.874715
0.87427
0.873906
0.87359
0.873377
0.873343
0.873361
0.87342
0.873546
0.873792
0.87436
0.876075
0.878122
0.879395
0.881249
0.886403
0.900667
0.910105
0.912405
0.912971
0.914132
0.920878
0.948841
0.976746
0.990778
0.996789
0.999003
0.999717
0.999924
0.99998
0.999995
0.999999
0.999999
0.999993
0.9997
0.993269
0.939497
0.867266
0.814657
0.782468
0.762987
0.706365
0.587053
0.509611
0.502077
0.561672
0.700944
0.724374
0.701654
0.665227
0.654946
0.654878
0.66105
0.690501
0.727767
0.744535
0.745602
0.734701
0.698531
0.674426
0.628213
0.495583
0.332751
0.245097
0.20838
0.196268
0.194263
0.196083
0.20535
0.231006
0.266196
0.32863
0.445947
0.57482
0.666753
0.709437
0.721294
0.722384
0.71993
0.719829
0.723277
0.738483
0.78714
0.85082
0.903591
0.941815
0.967563
0.983222
0.992029
0.99653
0.998522
0.999136
0.999191
0.999043
0.998658
0.997898
0.996119
0.993682
0.990978
0.988436
0.986564
0.985608
0.985221
0.984635
0.982486
0.980049
0.980026
0.982849
0.991297
0.99286
0.989118
0.966777
0.944546
0.940273
0.943039
0.958668
0.976375
0.985248
0.989059
0.990634
0.991358
0.99211
0.992873
0.993462
0.993874
0.994158
0.994404
0.99485
0.99601
0.99735
0.998169
0.99849
0.998528
0.99844
0.998177
0.998072
0.998073
0.998155
0.998542
0.999104
0.999488
0.999725
0.999859
0.999932
0.999968
0.999986
0.999993
0.636725
0.655833
0.649839
0.706133
0.792507
0.805468
0.797602
0.780435
0.77201
0.771998
0.792229
0.811885
0.844025
0.872262
0.899843
0.921644
0.933556
0.941506
0.945538
0.948005
0.948877
0.947395
0.938966
0.92127
0.90513
0.893695
0.887427
0.883865
0.881195
0.879074
0.877392
0.876263
0.875464
0.874903
0.874468
0.874178
0.873947
0.873732
0.873675
0.873694
0.873771
0.873955
0.87436
0.875388
0.877801
0.879522
0.880895
0.883552
0.891326
0.906926
0.914015
0.914853
0.914085
0.914989
0.923099
0.95231
0.978187
0.991389
0.997062
0.999119
0.999762
0.99994
0.999986
0.999996
0.999999
1
0.999999
0.999951
0.998249
0.9719
0.889031
0.828714
0.779848
0.738846
0.688943
0.583744
0.510786
0.50287
0.559962
0.690268
0.715951
0.698697
0.663114
0.651829
0.651148
0.655591
0.67949
0.719195
0.739684
0.743032
0.738131
0.709206
0.681051
0.641453
0.537623
0.375081
0.273712
0.224288
0.203906
0.200652
0.20289
0.212504
0.24326