/*--------------------------------*- C++ -*----------------------------------*\
  =========                 |
  \\      /  F ield         | OpenFOAM: The Open Source CFD Toolbox
   \\    /   O peration     | Website:  https://openfoam.org
    \\  /    A nd           | Version:  7
     \\/     M anipulation  |
\*---------------------------------------------------------------------------*/
FoamFile
{
    version     2.0;
    format      ascii;
    class       volVectorField;
    location    "0.096";
    object      U;
}
// * * * * * * * * * * * * * * * * * * * * * * * * * * * * * * * * * * * * * //

dimensions      [0 1 -1 0 0 0 0];

internalField   nonuniform List<vector> 
12225
(
(4.63607 0.177855 0)
(4.04109 0.108904 0)
(3.60588 0.0927438 0)
(3.26125 0.0778114 0)
(2.92667 0.0660608 0)
(2.60271 0.0559779 0)
(2.30036 0.0496889 0)
(2.00526 0.0487715 0)
(1.70699 0.0475612 0)
(1.42103 0.0405511 0)
(1.16391 0.0297819 0)
(0.952409 0.0188068 0)
(0.777288 0.0108672 0)
(0.645844 0.00607998 0)
(0.521734 0.00314938 0)
(0.437563 0.00426951 0)
(0.302209 -0.00800794 0)
(0.296082 -0.0276922 0)
(4.95451 0.1326 0)
(4.79844 0.0739835 0)
(4.67395 0.0836564 0)
(4.58852 0.0879538 0)
(4.49746 0.0937961 0)
(4.3976 0.0984994 0)
(4.29175 0.10269 0)
(4.17031 0.10971 0)
(4.01657 0.116859 0)
(3.84019 0.119017 0)
(3.64914 0.114424 0)
(3.47314 0.103697 0)
(3.29893 0.0911596 0)
(3.14877 0.0822948 0)
(2.97133 0.0783561 0)
(2.82601 0.0760189 0)
(2.61354 0.0778709 0)
(2.48952 0.0579059 0)
(4.9948 0.201523 0)
(4.84225 0.129041 0)
(4.73071 0.125243 0)
(4.69301 0.120338 0)
(4.67602 0.115548 0)
(4.65854 0.11051 0)
(4.63849 0.109726 0)
(4.61935 0.119952 0)
(4.5969 0.137602 0)
(4.56827 0.152002 0)
(4.5237 0.154438 0)
(4.4681 0.144944 0)
(4.39813 0.131899 0)
(4.32571 0.124818 0)
(4.2421 0.125588 0)
(4.16104 0.130949 0)
(4.06408 0.138638 0)
(3.96321 0.135399 0)
(4.91344 0.213218 0)
(4.84126 0.135802 0)
(4.76288 0.123047 0)
(4.76612 0.117714 0)
(4.7855 0.116259 0)
(4.77996 0.116707 0)
(4.74891 0.119354 0)
(4.71321 0.127014 0)
(4.69183 0.138825 0)
(4.68829 0.148621 0)
(4.69122 0.15061 0)
(4.68842 0.145473 0)
(4.67417 0.138749 0)
(4.64921 0.136299 0)
(4.62079 0.141117 0)
(4.58877 0.149493 0)
(4.5586 0.161295 0)
(4.51634 0.169159 0)
(5.02234 0.221721 0)
(4.92548 0.152147 0)
(4.83982 0.118304 0)
(4.80671 0.106593 0)
(4.79571 0.109395 0)
(4.78026 0.117493 0)
(4.75799 0.124791 0)
(4.73882 0.131695 0)
(4.73336 0.139746 0)
(4.74351 0.14702 0)
(4.76233 0.150623 0)
(4.77842 0.150037 0)
(4.78458 0.14805 0)
(4.77779 0.148336 0)
(4.76294 0.153638 0)
(4.74176 0.161793 0)
(4.71966 0.173082 0)
(4.69214 0.183837 0)
(5.02715 0.260958 0)
(5.01358 0.17468 0)
(4.92889 0.146338 0)
(4.86283 0.136213 0)
(4.81944 0.13464 0)
(4.78552 0.137583 0)
(4.75774 0.139057 0)
(4.73831 0.138489 0)
(4.73177 0.138617 0)
(4.74011 0.139748 0)
(4.75992 0.140404 0)
(4.78285 0.14022 0)
(4.8012 0.141459 0)
(4.80922 0.146822 0)
(4.80659 0.157432 0)
(4.79348 0.171023 0)
(4.77324 0.186358 0)
(4.74672 0.200414 0)
(5.02492 0.303649 0)
(4.98497 0.194526 0)
(4.94832 0.156943 0)
(4.91715 0.141389 0)
(4.88873 0.137355 0)
(4.86884 0.138444 0)
(4.85418 0.137805 0)
(4.83589 0.135988 0)
(4.81376 0.135009 0)
(4.79481 0.134181 0)
(4.78364 0.132615 0)
(4.77809 0.131735 0)
(4.77393 0.134958 0)
(4.76747 0.144798 0)
(4.76019 0.160963 0)
(4.75212 0.180216 0)
(4.74584 0.199269 0)
(4.74 0.215624 0)
(4.99808 0.313977 0)
(5.02078 0.190696 0)
(5.01866 0.150726 0)
(4.99246 0.146167 0)
(4.96839 0.150806 0)
(4.95988 0.155466 0)
(4.95311 0.157472 0)
(4.93476 0.15848 0)
(4.90607 0.158376 0)
(4.87565 0.155734 0)
(4.84911 0.151208 0)
(4.82588 0.147685 0)
(4.80429 0.148434 0)
(4.78361 0.154625 0)
(4.76719 0.165235 0)
(4.75627 0.178123 0)
(4.75326 0.190868 0)
(4.75491 0.203891 0)
(5.03748 0.292056 0)
(5.0552 0.191267 0)
(5.01603 0.168176 0)
(4.95658 0.161103 0)
(4.90316 0.152408 0)
(4.86824 0.145939 0)
(4.85101 0.146003 0)
(4.84748 0.150943 0)
(4.85333 0.155599 0)
(4.86223 0.156496 0)
(4.86739 0.154568 0)
(4.86484 0.153522 0)
(4.856 0.156832 0)
(4.84501 0.16541 0)
(4.83726 0.177525 0)
(4.83369 0.190644 0)
(4.8359 0.20256 0)
(4.83802 0.213279 0)
(5.06416 0.299098 0)
(5.04619 0.206597 0)
(4.98664 0.187303 0)
(4.9492 0.183448 0)
(4.93431 0.182291 0)
(4.9233 0.179356 0)
(4.91324 0.171654 0)
(4.90812 0.161829 0)
(4.90895 0.1545 0)
(4.91194 0.15204 0)
(4.91149 0.153677 0)
(4.90505 0.157119 0)
(4.89459 0.160947 0)
(4.88482 0.16476 0)
(4.87986 0.169343 0)
(4.88072 0.175315 0)
(4.88655 0.183294 0)
(4.89351 0.194416 0)
(4.92398 0.279252 0)
(4.912 0.223365 0)
(4.94071 0.19748 0)
(4.95506 0.1772 0)
(4.94767 0.164349 0)
(4.9393 0.158179 0)
(4.93692 0.153386 0)
(4.9331 0.149242 0)
(4.92409 0.147794 0)
(4.91486 0.150047 0)
(4.91118 0.155083 0)
(4.91367 0.161457 0)
(4.91889 0.168295 0)
(4.92279 0.175253 0)
(4.92272 0.182264 0)
(4.9187 0.189561 0)
(4.91145 0.197472 0)
(4.90289 0.207088 0)
(5.02398 0.254739 0)
(4.99032 0.196758 0)
(4.99602 0.176212 0)
(4.99809 0.180145 0)
(4.97807 0.181543 0)
(4.95336 0.179215 0)
(4.93685 0.175889 0)
(4.92666 0.172473 0)
(4.91862 0.168442 0)
(4.9119 0.163601 0)
(4.90753 0.158908 0)
(4.90576 0.156311 0)
(4.90733 0.157463 0)
(4.91184 0.162753 0)
(4.91935 0.171244 0)
(4.92706 0.181717 0)
(4.93502 0.193084 0)
(4.93842 0.205562 0)
(5.042 0.324298 0)
(4.98199 0.251255 0)
(4.95481 0.191955 0)
(4.94945 0.182994 0)
(4.93981 0.188005 0)
(4.92607 0.182014 0)
(4.9172 0.167081 0)
(4.91659 0.153684 0)
(4.92323 0.147613 0)
(4.93433 0.148495 0)
(4.94622 0.152985 0)
(4.95567 0.158148 0)
(4.96221 0.162755 0)
(4.96674 0.167268 0)
(4.97088 0.172784 0)
(4.97426 0.180326 0)
(4.97726 0.190608 0)
(4.97722 0.203981 0)
(4.93562 0.250864 0)
(5.00139 0.218714 0)
(5.00112 0.195527 0)
(4.98782 0.183336 0)
(4.9801 0.184284 0)
(4.96876 0.187722 0)
(4.95198 0.186468 0)
(4.9384 0.179088 0)
(4.93588 0.168181 0)
(4.94452 0.157888 0)
(4.95852 0.150998 0)
(4.97186 0.14849 0)
(4.98196 0.149966 0)
(4.98878 0.154986 0)
(4.99389 0.163263 0)
(4.99769 0.174562 0)
(5.00121 0.188655 0)
(5.00341 0.204952 0)
(4.92297 0.258889 0)
(4.94093 0.223275 0)
(4.95308 0.199971 0)
(4.95678 0.196512 0)
(4.95152 0.204001 0)
(4.94448 0.203885 0)
(4.9465 0.184755 0)
(4.9587 0.15441 0)
(4.97507 0.128961 0)
(4.98943 0.118392 0)
(4.99837 0.122171 0)
(5.00147 0.13374 0)
(5.00095 0.146491 0)
(4.99926 0.157251 0)
(4.99861 0.166149 0)
(4.99976 0.175361 0)
(5.00317 0.186327 0)
(5.00834 0.200773 0)
(5.01914 0.213516 0)
(5.0303 0.196843 0)
(5.02022 0.187419 0)
(5.00109 0.182375 0)
(4.99257 0.186802 0)
(4.99651 0.187678 0)
(5.00694 0.178555 0)
(5.01555 0.164855 0)
(5.01715 0.154574 0)
(5.01239 0.150838 0)
(5.00524 0.151694 0)
(4.99971 0.154152 0)
(4.99816 0.156214 0)
(5.00083 0.158258 0)
(5.00705 0.161376 0)
(5.0152 0.167057 0)
(5.02514 0.175252 0)
(5.03489 0.185994 0)
(5.06893 0.280123 0)
(5.03886 0.255051 0)
(5.02756 0.232944 0)
(5.00713 0.223059 0)
(4.99247 0.21466 0)
(4.99262 0.191414 0)
(5.00691 0.158366 0)
(5.02523 0.13072 0)
(5.03878 0.117429 0)
(5.04507 0.117653 0)
(5.04627 0.1252 0)
(5.04628 0.133853 0)
(5.04851 0.139956 0)
(5.0542 0.143052 0)
(5.06378 0.145398 0)
(5.07579 0.149646 0)
(5.08996 0.157366 0)
(5.10375 0.16961 0)
(4.97042 0.328112 0)
(5.00708 0.228431 0)
(5.016 0.195785 0)
(5.02761 0.202605 0)
(5.04608 0.195853 0)
(5.06269 0.169398 0)
(5.07298 0.143915 0)
(5.07898 0.135564 0)
(5.08354 0.143791 0)
(5.08848 0.157136 0)
(5.09485 0.164409 0)
(5.102 0.161205 0)
(5.10836 0.149525 0)
(5.11251 0.134905 0)
(5.11474 0.122802 0)
(5.11625 0.117129 0)
(5.11891 0.11822 0)
(5.12395 0.126042 0)
(5.07463 0.262581 0)
(5.07003 0.237788 0)
(5.04893 0.235591 0)
(5.05108 0.211212 0)
(5.06772 0.178962 0)
(5.07975 0.149971 0)
(5.0806 0.125038 0)
(5.07536 0.102798 0)
(5.07119 0.0852545 0)
(5.07312 0.0766358 0)
(5.08374 0.0792784 0)
(5.10243 0.0917303 0)
(5.12602 0.109473 0)
(5.15062 0.127081 0)
(5.17385 0.139922 0)
(5.19391 0.146361 0)
(5.21097 0.146484 0)
(5.22397 0.143003 0)
(4.98646 0.316685 0)
(5.0078 0.27089 0)
(5.0381 0.201398 0)
(5.08105 0.161095 0)
(5.1214 0.145005 0)
(5.13791 0.145106 0)
(5.13093 0.153397 0)
(5.11315 0.1593 0)
(5.09512 0.15501 0)
(5.08284 0.138338 0)
(5.08024 0.111995 0)
(5.08853 0.0821404 0)
(5.10549 0.0557664 0)
(5.12649 0.0381894 0)
(5.1474 0.0320459 0)
(5.1661 0.0370138 0)
(5.18194 0.0506448 0)
(5.19585 0.0700334 0)
(4.98776 0.280073 0)
(5.06203 0.218871 0)
(5.08901 0.155025 0)
(5.08641 0.121688 0)
(5.07807 0.121256 0)
(5.07952 0.137904 0)
(5.09731 0.152636 0)
(5.13216 0.151658 0)
(5.17762 0.131902 0)
(5.22183 0.0998027 0)
(5.25534 0.0661337 0)
(5.27452 0.0408754 0)
(5.28032 0.0290808 0)
(5.27578 0.030711 0)
(5.26536 0.0406527 0)
(5.25369 0.0532009 0)
(5.24464 0.0630572 0)
(5.24078 0.0672871 0)
(5.07042 0.273832 0)
(5.0697 0.202215 0)
(5.09073 0.169968 0)
(5.10081 0.155258 0)
(5.11843 0.145169 0)
(5.15392 0.128239 0)
(5.20063 0.102588 0)
(5.24167 0.076175 0)
(5.26455 0.0570495 0)
(5.26764 0.0481358 0)
(5.2583 0.0476529 0)
(5.24651 0.0522652 0)
(5.23959 0.0592135 0)
(5.24028 0.0670164 0)
(5.24926 0.0741099 0)
(5.26446 0.0791389 0)
(5.2848 0.0806632 0)
(5.30672 0.0781563 0)
(5.04035 0.356484 0)
(5.04701 0.201659 0)
(5.07973 0.129843 0)
(5.11404 0.107716 0)
(5.15723 0.0798399 0)
(5.20328 0.0553227 0)
(5.24052 0.0516896 0)
(5.26306 0.0669054 0)
(5.27196 0.084321 0)
(5.27235 0.0889449 0)
(5.27045 0.0772033 0)
(5.27093 0.0552595 0)
(5.27652 0.0322952 0)
(5.28781 0.0149098 0)
(5.30521 0.00476428 0)
(5.32718 0.000119158 0)
(5.35287 -0.00234888 0)
(5.37883 -0.00466793 0)
(4.99555 0.239771 0)
(5.05583 0.17564 0)
(5.10629 0.131365 0)
(5.1279 0.104072 0)
(5.15543 0.0804553 0)
(5.18879 0.0619414 0)
(5.21914 0.0545296 0)
(5.24786 0.0575218 0)
(5.28033 0.0639456 0)
(5.31881 0.0668558 0)
(5.36082 0.0637342 0)
(5.40117 0.0555613 0)
(5.43539 0.045116 0)
(5.46152 0.0343983 0)
(5.48004 0.0242566 0)
(5.49218 0.0154247 0)
(5.50034 0.00795106 0)
(5.50538 0.00259526 0)
(4.98428 0.183052 0)
(5.04345 0.0924588 0)
(5.14796 0.0854788 0)
(5.21307 0.0682153 0)
(5.24363 0.0312557 0)
(5.25134 0.00169682 0)
(5.25456 -0.00326244 0)
(5.26769 0.0072831 0)
(5.29296 0.0152285 0)
(5.32547 0.0109676 0)
(5.35986 -0.00287549 0)
(5.39346 -0.0175585 0)
(5.42564 -0.0268844 0)
(5.45559 -0.0289808 0)
(5.48296 -0.0259185 0)
(5.5066 -0.021 0)
(5.52622 -0.0169663 0)
(5.54046 -0.0155953 0)
(5.0524 0.135013 0)
(5.09307 0.0816994 0)
(5.19804 0.0726665 0)
(5.27836 0.0768939 0)
(5.32129 0.068496 0)
(5.33619 0.0532791 0)
(5.34695 0.0408712 0)
(5.37087 0.0328173 0)
(5.40678 0.0259494 0)
(5.4436 0.0180107 0)
(5.47265 0.00842608 0)
(5.49159 -0.00180921 0)
(5.50386 -0.0116924 0)
(5.51502 -0.0197357 0)
(5.52896 -0.0246652 0)
(5.54608 -0.0262991 0)
(5.56536 -0.0251713 0)
(5.58394 -0.0221083 0)
(5.05107 0.0857765 0)
(5.16701 -0.00652692 0)
(5.23942 -0.00602644 0)
(5.28494 0.0018704 0)
(5.32719 -0.00734038 0)
(5.3761 -0.018456 0)
(5.42619 -0.0248861 0)
(5.46693 -0.0277011 0)
(5.49306 -0.0294069 0)
(5.50712 -0.0315698 0)
(5.51492 -0.0349159 0)
(5.52103 -0.0398418 0)
(5.52786 -0.0453588 0)
(5.53611 -0.050288 0)
(5.546 -0.0533823 0)
(5.55716 -0.0541131 0)
(5.56949 -0.0526262 0)
(5.5824 -0.0495734 0)
(5.01617 0.106479 0)
(5.1163 0.0411989 0)
(5.22832 0.055253 0)
(5.30668 0.0434841 0)
(5.37694 0.0187505 0)
(5.4407 -0.000767429 0)
(5.48633 -0.00736771 0)
(5.51664 -0.0041789 0)
(5.54162 0.00122992 0)
(5.56819 0.00233287 0)
(5.59657 -0.00267903 0)
(5.62231 -0.0120282 0)
(5.64138 -0.0226452 0)
(5.65307 -0.0321265 0)
(5.65981 -0.0388619 0)
(5.66491 -0.0423904 0)
(5.67097 -0.0430634 0)
(5.67942 -0.0418323 0)
(5.08486 -0.0100688 0)
(5.25479 -0.0536918 0)
(5.35936 -0.046953 0)
(5.41752 -0.0618693 0)
(5.46424 -0.0718221 0)
(5.49168 -0.0692632 0)
(5.50204 -0.0592218 0)
(5.51021 -0.0519532 0)
(5.52492 -0.0514957 0)
(5.54483 -0.0551712 0)
(5.56413 -0.0587403 0)
(5.57823 -0.0602653 0)
(5.585 -0.060294 0)
(5.58548 -0.0604773 0)
(5.58065 -0.0616263 0)
(5.57254 -0.0634839 0)
(5.56082 -0.0652681 0)
(5.54758 -0.0662958 0)
(5.02519 0.0542558 0)
(5.19386 0.0110789 0)
(5.18833 0.0123255 0)
(5.05629 -0.00630497 0)
(4.89697 -0.0173571 0)
(4.75137 -0.0181859 0)
(4.63271 -0.0157664 0)
(4.53637 -0.0147513 0)
(4.44753 -0.0162094 0)
(4.35461 -0.0194355 0)
(4.25518 -0.0232583 0)
(4.15243 -0.0267783 0)
(4.04917 -0.0296281 0)
(3.94705 -0.031524 0)
(3.84599 -0.0318155 0)
(3.74838 -0.0302556 0)
(3.65415 -0.0269404 0)
(3.56842 -0.0229852 0)
(-0.0405226 0.0980974 6.70813e-20)
(-0.131777 0.0690321 -6.65964e-20)
(-0.135683 -0.00434941 0)
(-0.0457695 -0.0805149 0)
(0.082218 -0.104769 0)
(0.209523 -0.0887244 6.46424e-20)
(0.30818 -0.0424397 0)
(0.35673 0.0231846 0)
(0.343549 0.0912102 0)
(0.26738 0.134421 0)
(0.142206 0.12429 -6.22532e-20)
(-0.00032491 0.0722353 0)
(-0.132417 0.0341195 0)
(-0.23795 0.039031 0)
(-0.322787 0.0624571 0)
(-0.409906 0.0824661 -5.9793e-20)
(-0.504495 0.0918021 0)
(-0.589438 0.0877773 0)
(-0.657651 0.0774452 0)
(-0.715977 0.0613011 0)
(-0.756633 0.0357911 0)
(-0.77331 0.00451902 0)
(-0.785246 -0.0184149 0)
(-0.823954 -0.0128724 -5.5936e-20)
(-0.912723 0.0365454 5.54462e-20)
(-1.06192 0.106719 -5.49478e-20)
(-1.2534 0.127939 -5.4445e-20)
(-1.43068 0.0673665 0)
(-1.56449 0.00483678 0)
(-1.70342 0.0362885 5.29331e-20)
(-1.89783 0.126565 5.24224e-20)
(-2.13102 0.168288 0)
(-2.35848 0.152123 0)
(-2.56835 0.146309 5.08975e-20)
(-2.76831 0.155102 0)
(-2.95012 0.139075 0)
(-3.10059 0.103498 -4.94329e-20)
(-3.2194 0.0752855 0)
(-3.31139 0.0567923 -4.85165e-20)
(-3.37712 0.0379428 -9.61592e-20)
(-3.41458 0.0161724 0)
(-3.42225 -0.00551666 0)
(-3.40062 -0.0252475 0)
(-3.35197 -0.0437521 0)
(-3.27604 -0.0619209 0)
(-3.1732 -0.0796843 -9.15099e-20)
(-3.04405 -0.0965556 -9.08253e-20)
(-2.88909 -0.111794 -9.01601e-20)
(-2.70899 -0.125409 0)
(-2.50337 -0.138401 8.88747e-20)
(-2.27039 -0.152434 0)
(-2.00623 -0.169948 -8.76266e-20)
(-1.70554 -0.194313 -8.7007e-20)
(-1.36303 -0.229159 0)
(-0.97585 -0.274225 0)
(-0.548395 -0.315862 0)
(-0.104094 -0.317342 -8.44132e-20)
(0.30975 -0.26157 0)
(0.654038 -0.227584 0)
(0.982511 -0.209739 0)
(1.29981 -0.176168 0)
(1.57739 -0.123691 0)
(1.78369 -0.0750409 0)
(1.94641 -0.00504095 0)
(1.99065 0.165965 0)
(1.71308 0.330625 7.71455e-20)
(1.27618 0.248263 0)
(0.991526 0.0213908 0)
(0.837988 -0.0198664 -7.49972e-20)
(0.724792 0.130271 -7.42475e-20)
(0.569011 0.247465 0)
(0.316668 0.187291 7.27324e-20)
(0.0534655 0.0615509 -7.19646e-20)
(-0.207547 0.020407 0)
(-0.322936 -0.0591553 7.04021e-20)
(-0.0346721 -0.235911 0)
(0.505587 -0.259808 0)
(0.975796 -0.112729 -6.81296e-20)
(1.17793 0.0468862 0)
(1.12173 0.124192 6.6573e-20)
(1.04342 0.0814995 0)
(1.0637 -0.0643808 -6.50991e-20)
(1.12532 -0.212206 -6.43575e-20)
(1.14849 -0.238653 -6.3623e-20)
(1.02104 -0.0717119 -1.2586e-19)
(0.628651 0.174097 1.24574e-19)
(0.0501244 0.317482 0)
(-0.582245 0.359278 0)
(-1.21207 0.359106 0)
(-1.80603 0.338275 1.18175e-19)
(-2.35012 0.30758 1.16393e-19)
(-2.83842 0.273064 -1.14616e-19)
(-3.26982 0.23803 0)
(-3.64517 0.204003 1.11154e-19)
(-3.96595 0.171631 1.09496e-19)
(-4.23398 0.141312 1.07901e-19)
(-4.45136 0.113156 0)
(-4.62023 0.086904 0)
(-4.7426 0.0623658 0)
(-4.82077 0.0398074 1.0225e-19)
(-4.85749 0.0199373 0)
(-4.85631 0.00329069 0)
(-4.82518 -0.0109504 -9.87673e-20)
(-4.76561 -0.0227946 0)
(-4.68322 -0.0323808 0)
(-4.58071 -0.0403591 -9.57689e-20)
(-4.46155 -0.0467914 0)
(-4.32806 -0.0522618 0)
(-4.18154 -0.05722 9.30576e-20)
(-4.02233 -0.0621342 9.21931e-20)
(-3.84954 -0.0674932 0)
(-3.66138 -0.0736443 -9.05104e-20)
(-3.45544 -0.0807521 0)
(-3.22934 -0.0886756 8.88846e-20)
(-2.98145 -0.0969211 0)
(-2.7117 -0.104684 8.72963e-20)
(-2.42229 -0.111006 8.65012e-20)
(-2.11792 -0.115026 0)
(-1.80526 -0.116145 0)
(-1.49144 -0.114251 0)
(-1.18296 -0.109696 0)
(-0.885946 -0.103026 0)
(-0.605336 -0.0950371 0)
(-0.343337 -0.0865815 0)
(-0.100549 -0.0775833 7.92854e-20)
(0.121048 -0.0710776 -7.82524e-20)
(0.323928 -0.0636097 0)
(0.511205 -0.0569984 0)
(0.683238 -0.0510727 0)
(0.841565 -0.0457522 0)
(0.987431 -0.0409298 -1.45973e-19)
(1.12176 -0.0364627 0)
(1.24512 -0.0321929 1.41826e-19)
(1.35767 -0.027969 -1.39775e-19)
(1.45924 -0.023725 0)
(1.54952 -0.0194202 0)
(1.62801 -0.0148607 0)
(1.69404 -0.0101514 1.31731e-19)
(1.74763 -0.00556388 1.2976e-19)
(1.78883 -0.000732117 0)
(1.81721 0.00393915 1.25866e-19)
(1.83434 0.00815032 1.23944e-19)
(1.83875 0.0133964 -1.22038e-19)
(1.82849 0.0200741 0)
(1.80212 0.0271097 0)
(1.7585 0.0331909 -1.16421e-19)
(1.69802 0.0379078 0)
(1.62175 0.0418768 0)
(1.53025 0.0457712 0)
(1.42459 0.0485056 0)
(1.30887 0.0473832 1.07331e-19)
(1.19137 0.0411208 1.0554e-19)
(1.08257 0.0311478 0)
(0.990718 0.0202507 1.01986e-19)
(0.919327 0.010888 0)
(0.867543 0.00414945 0)
(0.83171 -3.81371e-05 9.67464e-20)
(0.807365 -0.00225674 0)
(0.79065 -0.00312114 9.33104e-20)
(0.778831 -0.00315548 0)
(0.770125 -0.00282328 0)
(0.76356 -0.00233019 8.82333e-20)
(0.758464 -0.00181057 0)
(0.754572 -0.00134707 8.48997e-20)
(0.751314 -0.000932098 0)
(0.748642 -0.000550365 0)
(0.745756 -0.000172023 0)
(0.743024 0.000194332 -7.83527e-20)
(0.739126 0.000627732 0)
(0.735244 0.00108212 7.51377e-20)
(0.728986 0.00168482 0)
(0.722872 0.00228869 0)
(0.712678 0.00320726 0)
(0.70228 0.00395914 0)
(0.686589 0.00563282 0)
(0.66583 0.00621985 0)
(0.647113 0.010205 0)
(0.593535 0.00837256 -1.25392e-19)
(0.596795 0.0207552 0)
(0.440187 0.00827088 0)
(-0.0510593 0.259 -2.01128e-19)
(-0.0887851 0.153218 1.99806e-19)
(0.0413373 -0.173038 0)
(0.207999 -0.366937 -1.31142e-19)
(0.3873 -0.419597 0)
(0.540651 -0.365313 -6.45523e-20)
(0.660391 -0.240922 1.28102e-19)
(0.736249 -0.0765053 1.27145e-19)
(0.766789 0.103884 0)
(0.743137 0.277306 1.252e-19)
(0.654288 0.413103 6.21421e-20)
(0.497467 0.476509 0)
(0.280438 0.44497 0)
(0.0449123 0.348393 0)
(-0.155753 0.272836 0)
(-0.316559 0.260799 5.9805e-20)
(-0.442387 0.252064 0)
(-0.52838 0.203344 -1.17633e-19)
(-0.595877 0.154876 0)
(-0.648525 0.117323 0)
(-0.678512 0.0722579 1.14776e-19)
(-0.720885 0.0507378 0)
(-0.813567 0.107445 -1.12845e-19)
(-0.960049 0.244329 5.59068e-20)
(-1.14826 0.40073 -5.53979e-20)
(-1.35132 0.504856 5.4889e-20)
(-1.54834 0.503333 5.43841e-20)
(-1.75243 0.44114 0)
(-1.99451 0.454063 0)
(-2.2627 0.548342 -5.284e-20)
(-2.50304 0.606493 5.22782e-20)
(-2.70656 0.591677 0)
(-2.89714 0.553233 0)
(-3.07189 0.510104 -5.08176e-20)
(-3.21778 0.451383 0)
(-3.33943 0.382904 0)
(-3.4457 0.315491 4.9382e-20)
(-3.53521 0.250303 0)
(-3.60256 0.185651 -4.84013e-20)
(-3.64567 0.120539 9.60962e-20)
(-3.66486 0.0545257 0)
(-3.66013 -0.0114585 0)
(-3.6295 -0.0759687 1.87178e-19)
(-3.57005 -0.138624 1.85656e-19)
(-3.48215 -0.19912 1.84189e-19)
(-3.36583 -0.257216 -9.13208e-20)
(-3.2216 -0.313119 9.07651e-20)
(-3.05047 -0.367504 2.70166e-19)
(-2.85263 -0.421795 -1.78765e-19)
(-2.62786 -0.47823 -8.88122e-20)
(-2.37538 -0.539645 0)
(-2.09487 -0.60906 8.75613e-20)
(-1.78761 -0.688375 -8.67674e-20)
(-1.4572 -0.775233 0)
(-1.11049 -0.857354 0)
(-0.76514 -0.907428 0)
(-0.446735 -0.883682 8.43145e-20)
(-0.10006 -0.765036 0)
(0.201957 -0.684347 -1.65571e-19)
(0.509993 -0.667869 0)
(0.850082 -0.61171 -1.6226e-19)
(1.19138 -0.507872 0)
(1.49428 -0.386183 1.58917e-19)
(1.74268 -0.23251 0)
(1.98824 0.0855979 -1.55665e-19)
(2.10626 0.496878 7.69666e-20)
(2.02107 0.660472 0)
(1.71486 0.53947 1.51148e-19)
(1.26597 0.345152 7.49035e-20)
(0.93072 0.202457 7.41895e-20)
(0.749861 0.249218 0)
(0.605069 0.428942 7.26307e-20)
(0.345214 0.535305 7.19095e-20)
(0.0151061 0.40481 0)
(-0.0723568 -0.100288 -7.04218e-20)
(0.177268 -0.718875 1.39161e-19)
(0.642915 -0.930776 0)
(1.11068 -0.623624 6.80687e-20)
(1.44152 -0.169674 0)
(1.62858 0.0663411 -1.9945e-19)
(1.66727 -0.00627847 0)
(1.46989 -0.06125 1.95192e-19)
(0.995153 0.108885 6.44117e-20)
(0.331158 0.400724 -6.37329e-20)
(-0.36008 0.674999 -1.25946e-19)
(-1.0074 0.862529 1.24268e-19)
(-1.59607 0.936131 0)
(-2.12208 0.926942 0)
(-2.59134 0.872994 0)
(-3.00789 0.796001 -3.53206e-19)
(-3.37556 0.710363 -1.16137e-19)
(-3.69814 0.623944 1.14404e-19)
(-3.97899 0.540426 0)
(-4.22076 0.460968 1.10728e-19)
(-4.42535 0.385613 -1.09387e-19)
(-4.59403 0.31414 -1.07818e-19)
(-4.72751 0.246267 0)
(-4.82636 0.181803 0)
(-4.89156 0.120931 0)
(-4.92445 0.0642921 -1.02236e-19)
(-4.92659 0.01274 0)
(-4.90026 -0.0331 1.99591e-19)
(-4.84451 -0.0729343 2.96172e-19)
(-4.76458 -0.106747 -1.95339e-19)
(-4.66232 -0.134728 0)
(-4.54205 -0.157766 -9.56921e-20)
(-4.40633 -0.176695 0)
(-4.25739 -0.192791 -1.87813e-19)
(-4.09655 -0.20741 9.30006e-20)
(-3.92391 -0.221955 9.21366e-20)
(-3.73854 -0.237771 0)
(-3.53845 -0.255906 2.7146e-19)
(-3.32105 -0.276831 -1.7931e-19)
(-3.08369 -0.300123 -8.88783e-20)
(-2.8245 -0.324297 0)
(-2.54337 -0.34692 -8.7288e-20)
(-2.24266 -0.365079 -2.59425e-19)
(-1.92749 -0.376135 0)
(-1.60515 -0.378431 -1.69679e-19)
(-1.28332 -0.371761 -1.67975e-19)
(-0.968684 -0.357243 -1.66208e-19)
(-0.667322 -0.336612 0)
(-0.383894 -0.312618 0)
(-0.119432 -0.28771 0)
(0.124035 -0.26358 7.92479e-20)
(0.346341 -0.241907 7.82159e-20)
(0.55164 -0.220664 0)
(0.741001 -0.201571 1.52202e-19)
(0.915921 -0.184498 1.50095e-19)
(1.07799 -0.169206 0)
(1.22853 -0.155329 1.45918e-19)
(1.36857 -0.142448 2.87654e-19)
(1.49872 -0.130142 -1.41775e-19)
(1.61918 -0.118044 -1.39705e-19)
(1.72986 -0.105902 0)
(1.83034 -0.0935666 0)
(1.91992 -0.0809714 0)
(1.9984 -0.0683261 -1.31687e-19)
(2.06546 -0.0559778 1.29708e-19)
(2.12085 -0.0440022 2.55516e-19)
(2.16652 -0.0325226 -1.25823e-19)
(2.20322 -0.0214488 1.23892e-19)
(2.23368 -0.0100746 1.21993e-19)
(2.26085 0.00216646 0)
(2.28459 0.0153159 0)
(2.30279 0.0293468 -1.16351e-19)
(2.31182 0.0435782 0)
(2.30797 0.0571435 0)
(2.28945 0.069462 2.21695e-19)
(2.25707 0.0798667 0)
(2.21358 0.0869404 1.07228e-19)
(2.16239 0.0884136 -1.05437e-19)
(2.10705 0.0827762 0)
(2.05125 0.0711182 1.01885e-19)
(1.99857 0.0566893 0)
(1.95168 0.0428033 0)
(1.91164 0.0314547 -9.66507e-20)
(1.87792 0.0231198 1.89865e-19)
(1.84921 0.0172973 -9.32225e-20)
(1.82417 0.0132139 0)
(1.80185 0.0101385 0)
(1.782 0.00767417 8.81563e-20)
(1.76452 0.00569277 0)
(1.74957 0.00416066 8.48285e-20)
(1.7369 0.00308663 0)
(1.72647 0.00242097 0)
(1.7175 0.00216768 0)
(1.71004 0.0021729 7.82916e-20)
(1.70293 0.00252391 0)
(1.69677 0.00291909 -7.50805e-20)
(1.68996 0.00382428 0)
(1.68373 0.00447855 0)
(1.6761 0.00636705 1.4067e-19)
(1.66792 0.00719293 -1.37548e-19)
(1.65881 0.0112827 0)
(1.64378 0.0116981 0)
(1.63509 0.0209113 0)
(1.59846 0.0184455 3.7587e-19)
(1.60321 0.0398044 0)
(1.505 0.0295049 -2.38689e-19)
(-0.0648964 0.366868 -2.13692e-23)
(0.116524 -0.123914 -2.66274e-19)
(0.377427 -0.610886 0)
(0.60912 -0.820195 2.61784e-19)
(0.784819 -0.813933 0)
(0.912063 -0.671057 0)
(0.997749 -0.450724 -8.59884e-23)
(1.04787 -0.191222 -1.27007e-19)
(1.06619 0.082124 -1.25964e-19)
(1.05101 0.349526 -1.25065e-19)
(0.995319 0.588589 0)
(0.891666 0.772984 0)
(0.732075 0.870847 1.22196e-19)
(0.517391 0.852026 2.42676e-19)
(0.272462 0.735587 -2.40993e-19)
(0.0413734 0.602527 0)
(-0.146801 0.491099 -2.37372e-19)
(-0.268773 0.373298 1.17699e-19)
(-0.373978 0.288992 0)
(-0.464926 0.228529 -2.31587e-19)
(-0.531951 0.183117 -1.14802e-19)
(-0.652395 0.248062 2.27686e-19)
(-0.850871 0.408957 1.12788e-19)
(-1.07982 0.577094 0)
(-1.31078 0.726668 -2.21419e-19)
(-1.53806 0.819896 -2.19318e-19)
(-1.76988 0.838559 0)
(-2.03757 0.842989 -2.15121e-19)
(-2.32532 0.879617 0)
(-2.57502 0.904858 -2.10862e-19)
(-2.77372 0.882337 -1.04478e-19)
(-2.9498 0.830878 0)
(-3.11469 0.767018 0)
(-3.26184 0.693438 0)
(-3.39234 0.613204 0)
(-3.50936 0.527415 0)
(-3.61027 0.43622 0)
(-3.69135 0.341824 -1.95189e-19)
(-3.74986 0.244927 2.90264e-19)
(-3.78388 0.144934 0)
(-3.79227 0.0428799 0)
(-3.77411 -0.0597625 0)
(-3.72915 -0.162716 -2.33162e-22)
(-3.65739 -0.264982 -1.85586e-19)
(-3.55893 -0.365505 -3.68e-19)
(-3.43455 -0.463697 3.65156e-19)
(-3.2858 -0.559167 1.81089e-19)
(-3.11491 -0.65193 -1.79969e-19)
(-2.92465 -0.742538 2.23488e-22)
(-2.7181 -0.832326 -1.77136e-19)
(-2.49877 -0.923192 0)
(-2.27009 -1.01607 -1.74558e-19)
(-2.03495 -1.10801 2.52978e-22)
(-1.79598 -1.18889 0)
(-1.5593 -1.24187 0)
(-1.33278 -1.24973 1.69264e-19)
(-1.09976 -1.19824 0)
(-0.816421 -1.09292 0)
(-0.522278 -1.03315 -1.65034e-19)
(-0.236748 -1.08195 -3.27555e-19)
(0.101845 -1.05462 1.62373e-19)
(0.447353 -0.945627 0)
(0.808242 -0.783546 -1.59032e-19)
(1.14628 -0.586142 0)
(1.47921 -0.253645 -1.55637e-19)
(1.81856 0.265149 -1.54159e-19)
(2.06404 0.723393 3.04846e-19)
(2.0181 0.910036 1.50851e-19)
(1.69586 0.861532 0)
(1.28511 0.728883 -2.9629e-19)
(0.862137 0.625884 0)
(0.564222 0.658683 -4.35583e-19)
(0.374802 0.738223 -2.87164e-19)
(0.233186 0.499237 -2.84061e-19)
(0.246139 -0.223833 2.81103e-19)
(0.37551 -1.08455 -4.16927e-19)
(0.624716 -1.46513 0)
(0.942013 -1.11273 0)
(1.15628 -0.568266 2.68709e-19)
(1.18632 -0.10964 3.98949e-19)
(0.901373 0.278044 0)
(0.343889 0.632878 -1.30306e-19)
(-0.291656 0.930126 0)
(-0.89122 1.15676 3.81668e-19)
(-1.41195 1.31462 2.28288e-22)
(-1.8478 1.39452 -3.25804e-22)
(-2.21189 1.39335 -2.44613e-19)
(-2.52663 1.33169 0)
(-2.81081 1.23311 2.3802e-19)
(-3.07599 1.11744 5.09847e-22)
(-3.32694 0.997166 0)
(-3.56384 0.878762 0)
(-3.78433 0.764755 0)
(-3.98509 0.655512 -2.21751e-19)
(-4.16257 0.550447 0)
(-4.31328 0.44886 0)
(-4.43412 0.350421 0)
(-4.52279 0.255371 0)
(-4.57818 0.164495 0)
(-4.60035 0.0789704 -2.04162e-19)
(-4.59036 -0.000193933 0)
(-4.54991 -0.0722286 -1.99675e-19)
(-4.48173 -0.135453 -1.97488e-19)
(-4.38967 -0.189403 1.95412e-19)
(-4.27751 -0.234305 0)
(-4.14887 -0.270878 1.91522e-19)
(-4.00683 -0.300802 0)
(-3.85364 -0.326011 1.87874e-19)
(-3.69054 -0.348764 -1.86111e-19)
(-3.51761 -0.371428 -5.52978e-19)
(-3.33365 -0.396264 0)
(-3.13621 -0.42517 -5.42819e-19)
(-2.92191 -0.459109 -1.7916e-19)
(-2.68711 -0.497515 0)
(-2.42893 -0.537937 -3.52056e-19)
(-2.1465 -0.576119 -3.48891e-19)
(-1.84209 -0.606766 5.18684e-19)
(-1.52159 -0.624978 0)
(-1.19377 -0.627703 1.69695e-19)
(-0.867943 -0.614512 1.67993e-19)
(-0.551825 -0.587673 4.986e-19)
(-0.252542 -0.550462 0)
(0.0253772 -0.5096 0)
(0.279366 -0.466823 0)
(0.510793 -0.426877 1.5833e-19)
(0.720003 -0.388605 0)
(0.909684 -0.353619 0)
(1.08215 -0.322394 -1.52109e-19)
(1.2394 -0.294749 -1.5001e-19)
(1.38333 -0.270227 0)
(1.51549 -0.248169 0)
(1.63703 -0.227829 -2.87524e-19)
(1.74878 -0.208444 0)
(1.85122 -0.189319 2.79325e-19)
(1.94455 -0.169936 2.7524e-19)
(2.02867 -0.149943 0)
(2.1034 -0.129283 0)
(2.16842 -0.108289 -2.63277e-19)
(2.22346 -0.0874249 -1.58059e-23)
(2.26855 -0.0676757 -1.41684e-23)
(2.30387 -0.0504333 0)
(2.32969 -0.0360909 -4.95492e-19)
(2.34705 -0.0239249 0)
(2.35916 -0.0121784 0)
(2.37156 0.000841477 0)
(2.38768 0.0162482 2.32693e-19)
(2.40687 0.0342918 0)
(2.42524 0.0541949 -4.5061e-19)
(2.43759 0.0740605 -2.21659e-19)
(2.4403 0.0910894 0)
(2.43251 0.102343 -2.14407e-19)
(2.41515 0.105283 0)
(2.39006 0.0991981 0)
(2.35953 0.0862667 -6.11101e-19)
(2.32601 0.0702132 4.00378e-19)
(2.29215 0.0545265 0)
(2.26037 0.0414491 3.86479e-19)
(2.23217 0.0318017 -1.89796e-19)
(2.20801 0.0252969 0)
(2.18756 0.0210516 0)
(2.1701 0.0181265 0)
(2.15486 0.0157459 -5.28748e-19)
(2.14111 0.0135113 0)
(2.1283 0.0113414 -1.69597e-19)
(2.11611 0.0093665 0)
(2.10443 0.00768726 0)
(2.09331 0.00648925 0)
(2.08286 0.00570394 0)
(2.07326 0.0055164 0)
(2.06448 0.00552216 0)
(2.05676 0.0063065 -2.93855e-19)
(2.04952 0.00683962 0)
(2.04364 0.00895072 -1.40626e-19)
(2.03685 0.00983244 4.12503e-19)
(2.03273 0.0145996 0)
(2.02369 0.0154461 0)
(2.02238 0.0259547 -2.56518e-19)
(2.00476 0.0251898 -2.50488e-19)
(2.01084 0.0477177 2.44452e-19)
(1.97149 0.0428814 2.38601e-19)
(0.055829 0.180164 4.02405e-19)
(0.403281 -0.734125 3.98861e-19)
(0.68177 -1.19456 2.63524e-19)
(0.861205 -1.25469 1.30628e-19)
(0.96685 -1.10097 0)
(1.0288 -0.847091 -2.57328e-19)
(1.06352 -0.549591 1.27621e-19)
(1.07996 -0.234052 0)
(1.08065 0.0878419 1.25956e-19)
(1.06376 0.405457 0)
(1.02866 0.703455 -2.47752e-19)
(0.968037 0.959042 0)
(0.872816 1.14144 -1.22093e-19)
(0.732811 1.21536 -2.42396e-19)
(0.543739 1.16524 2.40666e-19)
(0.323456 1.0369 0)
(0.118804 0.855146 2.3726e-19)
(-0.0425656 0.642627 0)
(-0.209709 0.521633 0)
(-0.33006 0.429696 2.316e-19)
(-0.461483 0.422357 0)
(-0.697497 0.625698 4.20226e-23)
(-0.976572 0.864674 0)
(-1.2684 1.05164 0)
(-1.55085 1.20148 6.05263e-23)
(-1.81525 1.29478 2.19025e-19)
(-2.07086 1.32882 2.16776e-19)
(-2.32571 1.3285 2.14832e-19)
(-2.55911 1.30753 0)
(-2.75502 1.26471 4.21066e-19)
(-2.92857 1.20401 0)
(-3.09183 1.12999 2.06288e-19)
(-3.24424 1.04092 0)
(-3.38377 0.941015 0)
(-3.51002 0.833739 -2.00334e-19)
(-3.62082 0.71737 0)
(-3.71393 0.592683 1.96572e-19)
(-3.78742 0.462263 3.482e-22)
(-3.83929 0.326738 -3.86389e-19)
(-3.86817 0.186889 3.82668e-19)
(-3.87281 0.0445329 0)
(-3.85286 -0.0989827 0)
(-3.8076 -0.242904 1.86157e-19)
(-3.73661 -0.384969 0)
(-3.63975 -0.523055 1.83807e-19)
(-3.51771 -0.654766 -1.82376e-19)
(-3.37187 -0.777856 -1.8099e-19)
(-3.20476 -0.890711 0)
(-3.02066 -0.99293 1.78318e-19)
(-2.82578 -1.08599 1.77014e-19)
(-2.62702 -1.1731 -3.50853e-19)
(-2.43015 -1.2581 1.74419e-19)
(-2.23824 -1.34323 1.73109e-19)
(-2.05184 -1.42633 0)
(-1.8683 -1.49739 0)
(-1.675 -1.53539 -1.6907e-19)
(-1.45283 -1.51876 0)
(-1.19265 -1.46123 0)
(-0.907226 -1.43129 3.29947e-19)
(-0.667648 -1.48126 3.27084e-19)
(-0.411544 -1.4799 0)
(-0.132896 -1.402 0)
(0.182573 -1.26417 0)
(0.524672 -1.0488 0)
(0.887203 -0.718776 3.11539e-19)
(1.30386 -0.203524 -3.08351e-19)
(1.74611 0.426245 -3.05138e-19)
(2.0199 0.952636 -6.03542e-19)
(2.00022 1.20467 0)
(1.73913 1.19663 1.26934e-22)
(1.3529 1.08156 0)
(0.985129 0.989638 2.89971e-19)
(0.733841 0.900521 1.69114e-22)
(0.603741 0.551684 2.83835e-19)
(0.533585 -0.214948 -2.80996e-19)
(0.439342 -1.14715 5.83713e-23)
(0.354855 -1.61904 0)
(0.405579 -1.171 -2.72111e-19)
(0.304268 -0.332885 -2.69116e-19)
(0.0501899 0.354561 -5.3275e-19)
(-0.280663 0.851782 0)
(-0.679992 1.20874 2.60215e-19)
(-1.08932 1.46031 0)
(-1.45702 1.6212 -5.0777e-19)
(-1.76446 1.70212 2.5083e-19)
(-2.02128 1.71235 -2.47673e-19)
(-2.24801 1.66632 2.44489e-19)
(-2.4643 1.58145 4.81566e-19)
(-2.68053 1.47284 -2.37975e-19)
(-2.89876 1.35126 2.34652e-19)
(-3.11594 1.22329 0)
(-3.32702 1.09269 -4.55014e-19)
(-3.52663 0.961461 0)
(-3.70981 0.830495 -4.41998e-19)
(-3.87207 0.70008 4.35706e-19)