/*--------------------------------*- C++ -*----------------------------------*\
  =========                 |
  \\      /  F ield         | OpenFOAM: The Open Source CFD Toolbox
   \\    /   O peration     | Website:  https://openfoam.org
    \\  /    A nd           | Version:  7
     \\/     M anipulation  |
\*---------------------------------------------------------------------------*/
FoamFile
{
    version     2.0;
    format      ascii;
    class       volSymmTensorField;
    location    "0.096";
    object      UPrime2Mean;
}
// * * * * * * * * * * * * * * * * * * * * * * * * * * * * * * * * * * * * * //

dimensions      [0 2 -2 0 0 0 0];

internalField   nonuniform List<symmTensor> 
12225
(
(0.00436287 -8.76824e-05 0 0.000479242 0 0)
(0.0222235 -0.000940256 0 0.000199925 0 0)
(0.0318214 -0.00137701 0 0.000166113 0 0)
(0.0422603 -0.00169486 0 0.000151606 0 0)
(0.060403 -0.00212895 0 0.000145786 0 0)
(0.087504 -0.00269368 0 0.000145188 0 0)
(0.123919 -0.00338824 0 0.000154358 0 0)
(0.169995 -0.00393861 0 0.000144505 0 0)
(0.225903 -0.00479286 0 0.00015615 0 0)
(0.29101 -0.00464745 0 0.00012021 0 0)
(0.366799 -0.00622959 0 0.000144454 0 0)
(0.447591 -0.00413066 0 8.35792e-05 0 0)
(0.546314 -0.00952704 0 0.000211942 0 0)
(0.641989 -0.00129566 0 0.000145467 0 0)
(0.785599 -0.0222345 0 0.000987918 0 0)
(0.924295 0.00930568 0 0.00114317 0 0)
(1.20031 -0.0828776 0 0.0109979 0 0)
(1.61209 0.0313161 0 0.00535197 0 0)
(0.00394817 4.59376e-05 0 0.00064437 0 0)
(0.0150831 -0.000447479 0 0.000209168 0 0)
(0.0163082 -0.000753595 0 0.000230997 0 0)
(0.0167078 -0.0009417 0 0.000301427 0 0)
(0.0196672 -0.00132815 0 0.000392553 0 0)
(0.0250448 -0.00204492 0 0.000512745 0 0)
(0.033335 -0.00307095 0 0.000640095 0 0)
(0.0459292 -0.00454015 0 0.000818583 0 0)
(0.0632725 -0.00613145 0 0.00092754 0 0)
(0.0884731 -0.00851953 0 0.00114997 0 0)
(0.119973 -0.0103126 0 0.00115905 0 0)
(0.164802 -0.0142969 0 0.00149945 0 0)
(0.215729 -0.0156717 0 0.00137609 0 0)
(0.291903 -0.0241949 0 0.00223717 0 0)
(0.371641 -0.0248583 0 0.00202867 0 0)
(0.512504 -0.0494355 0 0.00552382 0 0)
(0.649687 -0.0599738 0 0.00617712 0 0)
(0.934623 -0.164417 0 0.0380098 0 0)
(0.00385545 8.64932e-05 0 0.000827137 0 0)
(0.0148443 -0.000667175 0 0.000379682 0 0)
(0.0154746 -0.00106426 0 0.00040575 0 0)
(0.0149395 -0.00118631 0 0.000504893 0 0)
(0.0160858 -0.00140065 0 0.000640383 0 0)
(0.0180261 -0.00181835 0 0.000815942 0 0)
(0.0206358 -0.00246492 0 0.00107454 0 0)
(0.0240679 -0.00328539 0 0.0013279 0 0)
(0.0287813 -0.00445493 0 0.00171454 0 0)
(0.0351268 -0.00569338 0 0.00197414 0 0)
(0.0443031 -0.0078187 0 0.0024996 0 0)
(0.0565645 -0.00961648 0 0.00268292 0 0)
(0.074626 -0.0139926 0 0.00366714 0 0)
(0.0985158 -0.0168124 0 0.0038165 0 0)
(0.13457 -0.0281549 0 0.00679721 0 0)
(0.182913 -0.0356937 0 0.00772847 0 0)
(0.253135 -0.0722028 0 0.021892 0 0)
(0.342897 -0.119884 0 0.0447839 0 0)
(0.00384388 -0.000186615 0 0.000930033 0 0)
(0.0147844 -0.000886026 0 0.000447143 0 0)
(0.0153761 -0.00121528 0 0.000467558 0 0)
(0.0147552 -0.00134114 0 0.000605263 0 0)
(0.0156565 -0.00155553 0 0.000774963 0 0)
(0.0171955 -0.00197103 0 0.000996987 0 0)
(0.0191726 -0.00256727 0 0.00127194 0 0)
(0.0216552 -0.00334524 0 0.00164579 0 0)
(0.0247143 -0.00425297 0 0.00203593 0 0)
(0.0287612 -0.00548133 0 0.00256496 0 0)
(0.0340602 -0.0069355 0 0.0030652 0 0)
(0.0415282 -0.00922921 0 0.00387463 0 0)
(0.0515967 -0.0120735 0 0.00470947 0 0)
(0.0662245 -0.0172002 0 0.00644225 0 0)
(0.0862383 -0.0244018 0 0.00884976 0 0)
(0.114516 -0.0382045 0 0.0146516 0 0)
(0.151217 -0.0621596 0 0.0271323 0 0)
(0.188932 -0.0999516 0 0.0545993 0 0)
(0.00422609 -0.00014234 0 0.00103526 0 0)
(0.0145503 -0.000995696 0 0.000564896 0 0)
(0.0149717 -0.00131801 0 0.000576984 0 0)
(0.0143854 -0.00144826 0 0.00074462 0 0)
(0.015317 -0.00168224 0 0.00095549 0 0)
(0.0168035 -0.0021255 0 0.00121264 0 0)
(0.0186537 -0.002774 0 0.00156393 0 0)
(0.0209331 -0.00359428 0 0.00198007 0 0)
(0.0237604 -0.00463947 0 0.00253205 0 0)
(0.02737 -0.00589637 0 0.00312967 0 0)
(0.0321079 -0.00767762 0 0.00395493 0 0)
(0.0384346 -0.00996488 0 0.00489736 0 0)
(0.0469859 -0.0135576 0 0.00644276 0 0)
(0.0586317 -0.0185648 0 0.00854468 0 0)
(0.0742497 -0.0269826 0 0.012602 0 0)
(0.0943351 -0.040014 0 0.0197937 0 0)
(0.117677 -0.0609453 0 0.0341889 0 0)
(0.137149 -0.0923864 0 0.0657411 0 0)
(0.00397777 -0.000188782 0 0.00117655 0 0)
(0.0144648 -0.00117702 0 0.000711616 0 0)
(0.0146918 -0.0014607 0 0.000730459 0 0)
(0.0140498 -0.00155743 0 0.000960102 0 0)
(0.0149168 -0.00179663 0 0.00124093 0 0)
(0.0162642 -0.00226693 0 0.00157045 0 0)
(0.0179222 -0.00294717 0 0.00197891 0 0)
(0.0199767 -0.00382651 0 0.00250143 0 0)
(0.0225392 -0.00492935 0 0.00314252 0 0)
(0.0258078 -0.00635095 0 0.00394584 0 0)
(0.0300843 -0.00825441 0 0.00495602 0 0)
(0.0356998 -0.0109096 0 0.006324 0 0)
(0.0431652 -0.014721 0 0.00827466 0 0)
(0.0528579 -0.0203099 0 0.0112799 0 0)
(0.0653394 -0.0287846 0 0.0163067 0 0)
(0.0798676 -0.0412938 0 0.0250217 0 0)
(0.0952825 -0.0596742 0 0.0409893 0 0)
(0.106069 -0.0830296 0 0.0687761 0 0)
(0.00357528 -0.000247906 0 0.00138179 0 0)
(0.0139023 -0.00133121 0 0.000930826 0 0)
(0.0140347 -0.00158415 0 0.000915626 0 0)
(0.0133824 -0.00168796 0 0.0011547 0 0)
(0.014241 -0.00194806 0 0.00147847 0 0)
(0.0155348 -0.00245063 0 0.00186059 0 0)
(0.017083 -0.00318188 0 0.0023415 0 0)
(0.0189667 -0.00412662 0 0.00295143 0 0)
(0.0212954 -0.00532253 0 0.00373246 0 0)
(0.0242378 -0.00685453 0 0.00471919 0 0)
(0.0280348 -0.00891126 0 0.00599805 0 0)
(0.0329201 -0.0117441 0 0.00773605 0 0)
(0.0392065 -0.0157397 0 0.010217 0 0)
(0.0470145 -0.0214483 0 0.0140093 0 0)
(0.0564653 -0.0295799 0 0.0199595 0 0)
(0.06659 -0.0409857 0 0.0298723 0 0)
(0.0762574 -0.0559648 0 0.0457483 0 0)
(0.0815942 -0.0734408 0 0.0711591 0 0)
(0.00373326 -0.000192492 0 0.00132846 0 0)
(0.0138335 -0.00143361 0 0.000968239 0 0)
(0.0139141 -0.00165142 0 0.00104668 0 0)
(0.0131944 -0.00170756 0 0.00135054 0 0)
(0.0139872 -0.00197366 0 0.00174404 0 0)
(0.0152022 -0.00250073 0 0.00220712 0 0)
(0.0166205 -0.00325455 0 0.00278044 0 0)
(0.0182987 -0.00423396 0 0.00351389 0 0)
(0.0203368 -0.00548746 0 0.00445107 0 0)
(0.0228805 -0.00711007 0 0.00565222 0 0)
(0.0261136 -0.00927061 0 0.0072209 0 0)
(0.0301756 -0.0121974 0 0.00935786 0 0)
(0.0352205 -0.0162176 0 0.0123787 0 0)
(0.0411982 -0.0217385 0 0.0168569 0 0)
(0.0479756 -0.0292282 0 0.0236086 0 0)
(0.0546319 -0.039024 0 0.0340619 0 0)
(0.0602151 -0.0509379 0 0.04964 0 0)
(0.062303 -0.0637351 0 0.0725103 0 0)
(0.00428959 -0.00040463 0 0.00140899 0 0)
(0.01401 -0.0017666 0 0.00112509 0 0)
(0.0137519 -0.00196973 0 0.00123143 0 0)
(0.0129905 -0.0019932 0 0.00156642 0 0)
(0.0137417 -0.00226142 0 0.00202574 0 0)
(0.0147921 -0.00281135 0 0.00258093 0 0)
(0.0159705 -0.00358911 0 0.00326386 0 0)
(0.0173861 -0.00458467 0 0.00412765 0 0)
(0.0191258 -0.00584907 0 0.00522946 0 0)
(0.0212808 -0.00748196 0 0.00665091 0 0)
(0.0239599 -0.0096401 0 0.00851078 0 0)
(0.0272298 -0.0125258 0 0.0110374 0 0)
(0.0311332 -0.0163857 0 0.014544 0 0)
(0.0355165 -0.0214927 0 0.0195898 0 0)
(0.0401395 -0.0280737 0 0.0268556 0 0)
(0.0442095 -0.0361571 0 0.0374651 0 0)
(0.0470759 -0.045322 0 0.0522994 0 0)
(0.0472496 -0.0544093 0 0.0725803 0 0)
(0.00373329 -0.000328601 0 0.00156616 0 0)
(0.0137103 -0.00179831 0 0.00125654 0 0)
(0.0135374 -0.00199362 0 0.00139725 0 0)
(0.0127885 -0.0019785 0 0.00177047 0 0)
(0.0134742 -0.00222681 0 0.00227593 0 0)
(0.0144214 -0.00277506 0 0.00289518 0 0)
(0.0154633 -0.0035565 0 0.00366357 0 0)
(0.0166838 -0.00455618 0 0.00464284 0 0)
(0.0181471 -0.00582415 0 0.00590446 0 0)
(0.0199188 -0.0074518 0 0.00754389 0 0)
(0.0220642 -0.00956775 0 0.00968848 0 0)
(0.0245873 -0.0123237 0 0.0125672 0 0)
(0.027449 -0.0158887 0 0.0164838 0 0)
(0.0304428 -0.0204059 0 0.0219407 0 0)
(0.0333141 -0.0259373 0 0.0294809 0 0)
(0.0354469 -0.0323245 0 0.0399396 0 0)
(0.0364868 -0.0390971 0 0.0537917 0 0)
(0.0355122 -0.045289 0 0.0717602 0 0)
(0.00391483 -0.000346943 0 0.0017852 0 0)
(0.0136928 -0.00203929 0 0.0015305 0 0)
(0.0132296 -0.0022855 0 0.0016584 0 0)
(0.0122925 -0.00221842 0 0.00206715 0 0)
(0.0128778 -0.00243513 0 0.00264355 0 0)
(0.0137473 -0.00297405 0 0.00336218 0 0)
(0.0146858 -0.00374175 0 0.00424939 0 0)
(0.0157477 -0.00470816 0 0.00536794 0 0)
(0.0169765 -0.00591488 0 0.00679362 0 0)
(0.01841 -0.00744511 0 0.00863761 0 0)
(0.0200769 -0.00940747 0 0.0110366 0 0)
(0.0219433 -0.0119096 0 0.0142115 0 0)
(0.023935 -0.0150504 0 0.0184321 0 0)
(0.0258461 -0.0188702 0 0.0241225 0 0)
(0.0274678 -0.0233249 0 0.0316842 0 0)
(0.0283527 -0.0281641 0 0.0417139 0 0)
(0.0283636 -0.0329611 0 0.0544087 0 0)
(0.0269236 -0.0369489 0 0.0702073 0 0)
(0.00375636 -0.000427128 0 0.00183487 0 0)
(0.0135724 -0.00206714 0 0.00160489 0 0)
(0.0130758 -0.00229991 0 0.00179119 0 0)
(0.0120547 -0.00221129 0 0.00224484 0 0)
(0.0125199 -0.00240705 0 0.0028746 0 0)
(0.0132288 -0.00293055 0 0.0036716 0 0)
(0.0139783 -0.00367516 0 0.00465763 0 0)
(0.0148212 -0.00459873 0 0.0058891 0 0)
(0.0157807 -0.00573596 0 0.00745232 0 0)
(0.0168664 -0.0071566 0 0.00946386 0 0)
(0.018075 -0.00894237 0 0.0120602 0 0)
(0.0193465 -0.011156 0 0.0154486 0 0)
(0.0205961 -0.0138384 0 0.0198603 0 0)
(0.0216557 -0.016962 0 0.0256436 0 0)
(0.0223787 -0.0204258 0 0.0330769 0 0)
(0.0224742 -0.023963 0 0.042583 0 0)
(0.0219242 -0.027213 0 0.0541883 0 0)
(0.0203617 -0.0295915 0 0.0681857 0 0)
(0.00380367 -0.00052618 0 0.00204556 0 0)
(0.0138151 -0.00224833 0 0.00185164 0 0)
(0.0132254 -0.00243684 0 0.00202706 0 0)
(0.0120681 -0.00227004 0 0.00250869 0 0)
(0.012394 -0.00240314 0 0.00318524 0 0)
(0.0129585 -0.00287593 0 0.00405425 0 0)
(0.0135458 -0.00356652 0 0.00513852 0 0)
(0.0141936 -0.00441461 0 0.00648933 0 0)
(0.0149037 -0.00543781 0 0.00818784 0 0)
(0.0156663 -0.00668964 0 0.0103456 0 0)
(0.0164626 -0.00822972 0 0.0130929 0 0)
(0.0172387 -0.0100902 0 0.016615 0 0)
(0.0179178 -0.0122716 0 0.0211022 0 0)
(0.0183698 -0.014706 0 0.0268352 0 0)
(0.0184912 -0.0172642 0 0.0339942 0 0)
(0.0180957 -0.0196923 0 0.0428829 0 0)
(0.0172347 -0.0216936 0 0.0534205 0 0)
(0.0156649 -0.0228249 0 0.0658257 0 0)
(0.00353957 -0.000611832 0 0.00242184 0 0)
(0.0134027 -0.00241273 0 0.00226536 0 0)
(0.0127628 -0.00253755 0 0.00239856 0 0)
(0.0115859 -0.0023011 0 0.00288842 0 0)
(0.0118495 -0.00237229 0 0.00360951 0 0)
(0.0123063 -0.00278367 0 0.00454213 0 0)
(0.0127259 -0.00339026 0 0.00570187 0 0)
(0.0131273 -0.00411032 0 0.00714129 0 0)
(0.0135134 -0.00494888 0 0.00893869 0 0)
(0.0138938 -0.0059502 0 0.0112033 0 0)
(0.014273 -0.00715979 0 0.0140519 0 0)
(0.0146085 -0.00858156 0 0.0176429 0 0)
(0.0148293 -0.0101808 0 0.0221172 0 0)
(0.0148274 -0.0118525 0 0.0276806 0 0)
(0.0145311 -0.0134614 0 0.0344216 0 0)
(0.0138426 -0.0147759 0 0.0425446 0 0)
(0.0128563 -0.0155923 0 0.051889 0 0)
(0.0114266 -0.0155762 0 0.0626366 0 0)
(0.00387523 -0.000375829 0 0.00251915 0 0)
(0.0134993 -0.00254179 0 0.00252917 0 0)
(0.0127268 -0.00274644 0 0.00272638 0 0)
(0.0114926 -0.00250502 0 0.00327454 0 0)
(0.0116997 -0.00253751 0 0.00405322 0 0)
(0.0120481 -0.00287312 0 0.00504732 0 0)
(0.0123084 -0.00337054 0 0.00628357 0 0)
(0.0125158 -0.00395375 0 0.00781293 0 0)
(0.0126818 -0.0046206 0 0.00970226 0 0)
(0.0128118 -0.00539335 0 0.0120427 0 0)
(0.0128968 -0.00628411 0 0.0149274 0 0)
(0.0128946 -0.00726052 0 0.0184772 0 0)
(0.0127505 -0.00826085 0 0.0227813 0 0)
(0.0124057 -0.00916886 0 0.0279798 0 0)
(0.0118484 -0.00987214 0 0.0340884 0 0)
(0.011053 -0.0101856 0 0.0412463 0 0)
(0.0101478 -0.00999461 0 0.0492553 0 0)
(0.00903172 -0.00905606 0 0.0582831 0 0)
(0.00425548 -0.000347378 0 0.0028186 0 0)
(0.0136724 -0.00254335 0 0.00259907 0 0)
(0.0126341 -0.00275696 0 0.00271158 0 0)
(0.0111493 -0.00244791 0 0.0032648 0 0)
(0.0110899 -0.0024014 0 0.00407442 0 0)
(0.0111816 -0.00265981 0 0.00512148 0 0)
(0.0112496 -0.00305474 0 0.00641615 0 0)
(0.0113239 -0.00347884 0 0.00799119 0 0)
(0.0113615 -0.00390883 0 0.00989868 0 0)
(0.0113157 -0.00435253 0 0.0122125 0 0)
(0.0111658 -0.00481147 0 0.015003 0 0)
(0.0109006 -0.0052474 0 0.018358 0 0)
(0.01052 -0.00560167 0 0.0223241 0 0)
(0.0100304 -0.00577042 0 0.026988 0 0)
(0.0094603 -0.00567192 0 0.0323156 0 0)
(0.00883032 -0.00516348 0 0.0383975 0 0)
(0.00825389 -0.00419997 0 0.0450305 0 0)
(0.0076506 -0.00260131 0 0.0523773 0 0)
(0.00403049 -0.000420075 0 0.00295644 0 0)
(0.013727 -0.00277988 0 0.00276077 0 0)
(0.0126014 -0.00301499 0 0.0029071 0 0)
(0.011036 -0.00261523 0 0.00349954 0 0)
(0.0109044 -0.00246966 0 0.00432613 0 0)
(0.0108791 -0.00263859 0 0.0053821 0 0)
(0.0107883 -0.00291463 0 0.00667797 0 0)
(0.0106858 -0.0031493 0 0.0082274 0 0)
(0.0105524 -0.00330352 0 0.0100626 0 0)
(0.0103638 -0.00339157 0 0.0122378 0 0)
(0.0101119 -0.00342637 0 0.0147986 0 0)
(0.00979741 -0.00337749 0 0.0178002 0 0)
(0.00942562 -0.0031921 0 0.0212544 0 0)
(0.00902014 -0.00277906 0 0.025209 0 0)
(0.00861341 -0.00207934 0 0.0296034 0 0)
(0.00825298 -0.000990264 0 0.0345037 0 0)
(0.00802775 0.000488387 0 0.0397151 0 0)
(0.00790619 0.0024859 0 0.045399 0 0)
(0.00374885 -0.000439787 0 0.00303806 0 0)
(0.0135284 -0.00278156 0 0.00304434 0 0)
(0.0123178 -0.0029649 0 0.00297112 0 0)
(0.01062 -0.00259549 0 0.00339927 0 0)
(0.0103504 -0.00245692 0 0.00414845 0 0)
(0.0101387 -0.00253117 0 0.00511955 0 0)
(0.00983534 -0.0026232 0 0.00628186 0 0)
(0.00954537 -0.00262633 0 0.00764412 0 0)
(0.00928385 -0.00252066 0 0.00923248 0 0)
(0.00903693 -0.00231224 0 0.0110811 0 0)
(0.00879551 -0.0019954 0 0.0132113 0 0)
(0.00855968 -0.00153482 0 0.0156523 0 0)
(0.00833671 -0.000886432 0 0.0183998 0 0)
(0.00816061 8.51504e-06 0 0.0214804 0 0)
(0.00806686 0.00117811 0 0.0248326 0 0)
(0.00811232 0.0026755 0 0.0285093 0 0)
(0.00835936 0.00448151 0 0.0323529 0 0)
(0.00879991 0.00666934 0 0.0365004 0 0)
(0.00379008 -0.000230526 0 0.00282327 0 0)
(0.0137184 -0.00244719 0 0.00274648 0 0)
(0.0121812 -0.0026044 0 0.00268467 0 0)
(0.0102613 -0.00211519 0 0.00309659 0 0)
(0.00988032 -0.00176634 0 0.00374211 0 0)
(0.00957357 -0.00161222 0 0.00454272 0 0)
(0.00921961 -0.00148638 0 0.00549247 0 0)
(0.00894203 -0.00127155 0 0.00660238 0 0)
(0.00874727 -0.000920075 0 0.00787991 0 0)
(0.0086122 -0.000420655 0 0.00933208 0 0)
(0.00853158 0.000227654 0 0.0109577 0 0)
(0.00852018 0.00103636 0 0.0127644 0 0)
(0.00860363 0.00201975 0 0.0147366 0 0)
(0.00882699 0.00320524 0 0.016885 0 0)
(0.00922445 0.00459915 0 0.0191603 0 0)
(0.00984209 0.00623248 0 0.0216035 0 0)
(0.0107151 0.00807949 0 0.0241055 0 0)
(0.0118344 0.0101915 0 0.0267713 0 0)
(0.00413168 -0.000364194 0 0.00333267 0 0)
(0.0133289 -0.00229849 0 0.00299312 0 0)
(0.0116432 -0.00229229 0 0.00276783 0 0)
(0.00973787 -0.00174296 0 0.0030267 0 0)
(0.00928434 -0.00133326 0 0.00348966 0 0)
(0.00893101 -0.00110007 0 0.00407725 0 0)
(0.00858147 -0.000894311 0 0.00476914 0 0)
(0.0083392 -0.000594154 0 0.00555623 0 0)
(0.00821126 -0.000142422 0 0.00643945 0 0)
(0.00818855 0.000469764 0 0.00743079 0 0)
(0.00827663 0.00123098 0 0.008538 0 0)
(0.00849698 0.00213532 0 0.00976887 0 0)
(0.00887524 0.00318313 0 0.0111107 0 0)
(0.00944868 0.00438999 0 0.0125675 0 0)
(0.0102432 0.00575717 0 0.0141 0 0)
(0.0112922 0.00730377 0 0.0157335 0 0)
(0.0126161 0.009005 0 0.0173917 0 0)
(0.0142103 0.010894 0 0.019134 0 0)
(0.00432638 -0.000360445 0 0.00294742 0 0)
(0.0135608 -0.00204399 0 0.00258062 0 0)
(0.0119 -0.00192556 0 0.00225393 0 0)
(0.0100195 -0.00133718 0 0.00237228 0 0)
(0.00955607 -0.000903601 0 0.00268903 0 0)
(0.00918154 -0.000620324 0 0.00311502 0 0)
(0.00884089 -0.000345534 0 0.00360423 0 0)
(0.00865861 1.26967e-05 0 0.00413845 0 0)
(0.00863671 0.000488843 0 0.00472423 0 0)
(0.00875028 0.00108968 0 0.0053775 0 0)
(0.0090008 0.00181306 0 0.00610394 0 0)
(0.00941373 0.00265816 0 0.00690531 0 0)
(0.0100196 0.00362142 0 0.00777033 0 0)
(0.0108526 0.00470807 0 0.00870195 0 0)
(0.0119316 0.00591282 0 0.00967463 0 0)
(0.0132797 0.00724952 0 0.0107064 0 0)
(0.0149089 0.00869814 0 0.011749 0 0)
(0.0168114 0.0102875 0 0.0128468 0 0)
(0.0036543 -0.000169923 0 0.00286572 0 0)
(0.0131928 -0.0017959 0 0.00210314 0 0)
(0.0115878 -0.00176216 0 0.00175309 0 0)
(0.00970088 -0.00123351 0 0.00183239 0 0)
(0.00921703 -0.000798507 0 0.00207616 0 0)
(0.00882813 -0.000511024 0 0.00240314 0 0)
(0.00848193 -0.000263307 0 0.00277841 0 0)
(0.00829652 5.06158e-05 0 0.00319633 0 0)
(0.00828529 0.00049017 0 0.00366064 0 0)
(0.00845166 0.0010661 0 0.00417484 0 0)
(0.00881273 0.00176223 0 0.00473435 0 0)
(0.00938766 0.00256171 0 0.00533527 0 0)
(0.0101911 0.00345431 0 0.00596817 0 0)
(0.0112445 0.00444196 0 0.00663502 0 0)
(0.0125618 0.00552184 0 0.00731769 0 0)
(0.014162 0.00670336 0 0.00803173 0 0)
(0.0160555 0.00796797 0 0.00874302 0 0)
(0.0182338 0.00933318 0 0.00948144 0 0)
(0.00403926 -0.000359383 0 0.00249561 0 0)
(0.0129777 -0.00166946 0 0.00201408 0 0)
(0.0112593 -0.00146657 0 0.00163934 0 0)
(0.00937488 -0.000918778 0 0.00156645 0 0)
(0.00890824 -0.000505067 0 0.00165169 0 0)
(0.00853844 -0.000225683 0 0.00181539 0 0)
(0.00822461 1.93405e-05 0 0.00201092 0 0)
(0.00811161 0.000305124 0 0.00222184 0 0)
(0.00821816 0.000673361 0 0.00245134 0 0)
(0.00853202 0.0011393 0 0.00271043 0 0)
(0.00906011 0.00170029 0 0.003006 0 0)
(0.00982019 0.00234742 0 0.00333871 0 0)
(0.0108305 0.00307185 0 0.00370059 0 0)
(0.0121091 0.00387099 0 0.00409017 0 0)
(0.0136698 0.00473877 0 0.00449466 0 0)
(0.0155209 0.00567757 0 0.00492502 0 0)
(0.0176757 0.00667598 0 0.00536002 0 0)
(0.0201031 0.00774246 0 0.00581536 0 0)
(0.00422499 -0.000482247 0 0.00219525 0 0)
(0.0128623 -0.00154227 0 0.00153998 0 0)
(0.0108303 -0.00113769 0 0.00125159 0 0)
(0.00899294 -0.000510262 0 0.0012519 0 0)
(0.00875877 -7.15179e-05 0 0.0013519 0 0)
(0.00862301 0.000206736 0 0.0014934 0 0)
(0.00851698 0.000449409 0 0.00165164 0 0)
(0.00861679 0.000746639 0 0.00182264 0 0)
(0.00897201 0.00113716 0 0.0020077 0 0)
(0.00957857 0.00162005 0 0.0022068 0 0)
(0.0104355 0.0021774 0 0.00241798 0 0)
(0.0115524 0.00279307 0 0.0026423 0 0)
(0.0129416 0.00345817 0 0.00287946 0 0)
(0.0146191 0.00417413 0 0.00313312 0 0)
(0.0165899 0.00493785 0 0.00339629 0 0)
(0.0188568 0.00575482 0 0.00367822 0 0)
(0.0214233 0.00661423 0 0.00396366 0 0)
(0.0242635 0.00753016 0 0.0042593 0 0)
(0.00444802 -0.000391657 0 0.00192195 0 0)
(0.0129157 -0.00128735 0 0.00125584 0 0)
(0.0107695 -0.000979967 0 0.000877694 0 0)
(0.00886737 -0.000544183 0 0.000814844 0 0)
(0.00856483 -0.000233692 0 0.000845211 0 0)
(0.00835291 -3.31726e-05 0 0.00088049 0 0)
(0.00819436 0.000131188 0 0.00091565 0 0)
(0.00828117 0.000323771 0 0.000973205 0 0)
(0.00865352 0.000579526 0 0.00105865 0 0)
(0.00929583 0.00090242 0 0.00116376 0 0)
(0.0102079 0.00128081 0 0.00128001 0 0)
(0.0114047 0.00170514 0 0.00140461 0 0)
(0.0129023 0.00217064 0 0.00153732 0 0)
(0.0147078 0.00267702 0 0.00168056 0 0)
(0.0168182 0.00322047 0 0.00183027 0 0)
(0.0192221 0.00380088 0 0.00199089 0 0)
(0.0219202 0.0044091 0 0.0021534 0 0)
(0.0248755 0.00505484 0 0.00232201 0 0)
(0.00419624 -0.000258027 0 0.0018254 0 0)
(0.0126478 -0.000966896 0 0.00103339 0 0)
(0.0103795 -0.000786011 0 0.000691586 0 0)
(0.00855102 -0.000390077 0 0.000669109 0 0)
(0.0083512 -4.81096e-05 0 0.000698453 0 0)
(0.00827346 0.000184576 0 0.000723232 0 0)
(0.00834529 0.000368561 0 0.000741819 0 0)
(0.00875001 0.000562365 0 0.000764537 0 0)
(0.00947406 0.000796183 0 0.000798846 0 0)
(0.0104549 0.001077 0 0.000844191 0 0)
(0.0116827 0.00139919 0 0.000897803 0 0)
(0.0131905 0.00175729 0 0.000958924 0 0)
(0.0150155 0.0021476 0 0.00102774 0 0)
(0.0171766 0.00256932 0 0.00110601 0 0)
(0.019674 0.0030187 0 0.00119124 0 0)
(0.0224927 0.0034966 0 0.00128654 0 0)
(0.0256329 0.00399452 0 0.00138662 0 0)
(0.0290502 0.00452017 0 0.00149404 0 0)
(0.00362296 -0.000420519 0 0.00149279 0 0)
(0.0119563 -0.000602487 0 0.000665006 0 0)
(0.00965995 -0.000355299 0 0.000368191 0 0)
(0.00801618 -0.000127348 0 0.000323233 0 0)
(0.00797656 4.1968e-05 0 0.000307928 0 0)
(0.00802297 0.00013412 0 0.000302881 0 0)
(0.00820432 0.00020018 0 0.000312269 0 0)
(0.00871243 0.000284049 0 0.000330157 0 0)
(0.00955376 0.000401681 0 0.000351196 0 0)
(0.0106918 0.000551557 0 0.000373782 0 0)
(0.0121333 0.000726412 0 0.000398787 0 0)
(0.0139086 0.000919745 0 0.000427825 0 0)
(0.0160378 0.00112834 0 0.000461668 0 0)
(0.0185167 0.00135274 0 0.000501423 0 0)
(0.0213296 0.00159262 0 0.000546187 0 0)
(0.0244512 0.00185066 0 0.000597901 0 0)
(0.0278818 0.00212157 0 0.000654063 0 0)
(0.0315778 0.00241254 0 0.000715045 0 0)
(0.0044625 -0.000438711 0 0.00118673 0 0)
(0.0119108 -0.000731106 0 0.000487867 0 0)
(0.00931539 -0.000531954 0 0.000336834 0 0)
(0.00788966 -0.000240478 0 0.00030857 0 0)
(0.00802804 -4.02029e-05 0 0.000269171 0 0)
(0.00820809 6.93367e-05 0 0.000232461 0 0)
(0.00860061 0.000153284 0 0.000213023 0 0)
(0.00941953 0.00024041 0 0.000205445 0 0)
(0.0106369 0.00033079 0 0.000203338 0 0)
(0.0121815 0.000423792 0 0.000204129 0 0)
(0.0140369 0.000524126 0 0.000208539 0 0)
(0.0162232 0.000637577 0 0.000218086 0 0)
(0.0187553 0.000768168 0 0.000233558 0 0)
(0.0216338 0.000916988 0 0.000254992 0 0)
(0.024842 0.00108138 0 0.000281683 0 0)
(0.0283663 0.00125742 0 0.000314912 0 0)
(0.0322021 0.00143947 0 0.000353662 0 0)
(0.0363193 0.00162822 0 0.000397176 0 0)
(0.00363235 -0.00017128 0 0.000906988 0 0)
(0.0110338 1.79771e-05 0 0.000223126 0 0)
(0.00856342 -4.1844e-05 0 0.000137794 0 0)
(0.00730541 -1.19832e-05 0 0.000124189 0 0)
(0.00759641 -1.61729e-05 0 0.000121889 0 0)
(0.00795033 -4.88056e-05 0 0.000122532 0 0)
(0.00851782 -8.83676e-05 0 0.000124545 0 0)
(0.00947505 -0.000126095 0 0.000127924 0 0)
(0.010761 -0.000159515 0 0.000133161 0 0)
(0.0122821 -0.000186119 0 0.00014012 0 0)
(0.0140001 -0.000202148 0 0.000148341 0 0)
(0.0159304 -0.000205089 0 0.000157708 0 0)
(0.0180839 -0.000193013 0 0.000168424 0 0)
(0.0204887 -0.000164482 0 0.000181008 0 0)
(0.0231267 -0.000118103 0 0.000195335 0 0)
(0.0260356 -5.39564e-05 0 0.000212566 0 0)
(0.0291738 2.73718e-05 0 0.000232719 0 0)
(0.0326101 0.000126634 0 0.000254814 0 0)
(0.00387488 -0.00029925 0 0.000741073 0 0)
(0.0117968 -2.72136e-05 0 0.000216428 0 0)
(0.0102871 2.48516e-05 0 0.000131022 0 0)
(0.00973965 8.48465e-05 0 9.71906e-05 0 0)
(0.0105208 9.81126e-05 0 7.8156e-05 0 0)
(0.0112673 0.000104558 0 6.56371e-05 0 0)
(0.0120164 0.000115532 0 5.68299e-05 0 0)
(0.0129451 0.000127691 0 5.09648e-05 0 0)
(0.0141138 0.000138601 0 4.73145e-05 0 0)
(0.0155404 0.000150593 0 4.53911e-05 0 0)
(0.0172408 0.000168251 0 4.48882e-05 0 0)
(0.019236 0.000195408 0 4.55313e-05 0 0)
(0.0215614 0.000234365 0 4.70253e-05 0 0)
(0.0242642 0.000285368 0 4.91011e-05 0 0)
(0.0274057 0.000346698 0 5.17419e-05 0 0)
(0.0310102 0.000415984 0 5.52845e-05 0 0)
(0.0351404 0.000491356 0 5.93396e-05 0 0)
(0.0397495 0.000575001 0 6.33247e-05 0 0)
(0.00226031 -0.00591677 1.04092e-22 0.0159643 -2.34436e-22 9.79986e-38)
(0.0254371 -0.0207458 -2.98326e-22 0.0172866 1.94503e-22 9.66272e-38)
(0.0676384 -0.0287758 0 0.0129969 0 0)
(0.113176 -0.0282551 0 0.00852537 0 0)
(0.149332 -0.0213386 0 0.0055562 0 0)
(0.173201 -0.0135479 6.92605e-22 0.00511801 -5.06274e-23 9.10151e-38)
(0.189414 -0.00849837 0 0.00660698 0 0)
(0.202974 -0.00790767 0 0.00924144 0 0)
(0.223503 -0.0130063 0 0.0119365 0 0)
(0.259956 -0.0226979 0 0.0138758 0 0)
(0.319849 -0.0349765 -8.15105e-22 0.0143897 2.46124e-23 8.43045e-38)
(0.406793 -0.04698 0 0.0137888 0 0)
(0.519553 -0.0570021 0 0.0125597 0 0)
(0.653236 -0.0644267 0 0.0110919 0 0)
(0.801506 -0.0689222 0 0.00957896 0 0)
(0.958359 -0.07039 -9.80312e-22 0.00815148 6.12347e-23 7.79221e-38)
(1.11747 -0.068809 0 0.00688082 0 0)
(1.27138 -0.063956 0 0.00579444 0 0)
(1.41267 -0.0560229 0 0.00498714 0 0)
(1.53553 -0.0457687 0 0.00457241 0 0)
(1.63762 -0.0344011 0 0.00464085 0 0)
(1.71756 -0.0234107 0 0.00520274 0 0)
(1.7765 -0.0140093 0 0.00613927 0 0)
(1.8185 -0.00666632 -1.81245e-21 0.00722251 1.62335e-22 6.83863e-38)
(1.84924 -0.00160276 1.97759e-21 0.00818866 -1.68677e-22 6.72525e-38)
(1.87412 0.000988451 -2.15206e-21 0.00891308 1.72124e-22 6.61316e-38)
(1.8972 0.0017476 -2.33366e-21 0.00961775 1.73791e-22 6.50236e-38)
(1.92015 0.00198212 0 0.0107089 0 0)
(1.94175 0.00227568 0 0.0134302 0 0)
(1.96169 0.00128921 2.89074e-21 0.0184681 -1.53965e-22 6.17767e-38)
(1.98201 -0.00365811 3.06578e-21 0.0265314 -1.34289e-22 6.072e-38)
(2.00871 -0.0140356 0 0.0357817 0 0)
(2.04428 -0.0264936 0 0.0425375 0 0)
(2.08506 -0.0367824 3.55573e-21 0.0450015 -1.06904e-22 5.76267e-38)
(2.13188 -0.0441259 0 0.0443398 0 0)
(2.18938 -0.0532146 0 0.0448886 0 0)
(2.26245 -0.0682936 -4.037e-21 0.04687 1.12781e-22 5.46481e-38)
(2.35069 -0.0835505 0 0.0484798 0 0)
(2.45605 -0.0897342 -4.34031e-21 0.0475653 1.06855e-22 5.27258e-38)
(2.5766 -0.0993578 -8.97164e-21 0.0509114 2.12136e-22 2.07134e-37)
(2.7186 -0.11263 0 0.051087 0 0)
(2.86994 -0.113617 0 0.0512701 0 0)
(3.03157 -0.126398 0 0.0471259 0 0)
(3.22668 -0.145381 0 0.045936 0 0)
(3.43858 -0.151012 0 0.0457335 0 0)
(3.65818 -0.139898 -1.04333e-20 0.043188 1.84886e-22 1.85567e-37)
(3.87306 -0.129466 -1.06221e-20 0.0393342 1.79601e-22 1.82145e-37)
(4.08441 -0.123736 -1.07902e-20 0.0324822 1.62182e-22 1.78772e-37)
(4.28869 -0.115079 0 0.0282824 0 0)
(4.4788 -0.106062 1.10617e-20 0.0260837 -1.38813e-22 1.7217e-37)
(4.65258 -0.0978506 0 0.024633 0 0)
(4.80678 -0.0893595 -1.12568e-20 0.0236362 1.18898e-22 1.65758e-37)
(4.94261 -0.0798329 -1.13234e-20 0.0233525 1.12558e-22 1.62622e-37)
(5.06446 -0.0715899 0 0.0236222 0 0)
(5.18044 -0.0676759 0 0.023829 0 0)
(5.30132 -0.0685328 0 0.0240113 0 0)
(5.4312 -0.070329 -1.13737e-20 0.0233482 7.92592e-23 1.50543e-37)
(5.55579 -0.0676745 0 0.0214321 0 0)
(5.65782 -0.0614079 0 0.0200791 0 0)
(5.73244 -0.0524443 0 0.0200144 0 0)
(5.77963 -0.0420271 0 0.0212531 0 0)
(5.79918 -0.0318564 0 0.0232804 0 0)
(5.79454 -0.0250756 0 0.025239 0 0)
(5.77473 -0.0235553 0 0.0260967 0 0)
(5.74926 -0.0269496 0 0.0264342 0 0)
(5.73718 -0.0371522 1.09215e-20 0.0264775 -5.89182e-23 1.25957e-37)
(5.76387 -0.0498564 0 0.0252463 0 0)
(5.83439 -0.0559408 0 0.0235 0 0)
(5.93864 -0.0550819 -1.08268e-20 0.0213344 6.73934e-23 1.18518e-37)
(6.06237 -0.0538229 -1.08035e-20 0.0192098 6.49295e-23 1.16118e-37)
(6.18827 -0.0569519 0 0.0167926 0 0)
(6.30594 -0.0652011 1.07614e-20 0.0136206 -5.39719e-23 1.11436e-37)
(6.41748 -0.0696408 -1.07386e-20 0.0121868 5.15286e-23 1.09153e-37)
(6.52406 -0.0643786 0 0.0124894 0 0)
(6.62957 -0.057677 1.0684e-20 0.0135998 -4.69911e-23 1.04701e-37)
(6.73869 -0.0556175 0 0.0156298 0 0)
(6.84813 -0.0540397 0 0.0179427 0 0)
(6.94633 -0.0503962 -1.05671e-20 0.0205332 4.75564e-23 9.82972e-38)
(7.03418 -0.050302 0 0.0208151 0 0)
(7.12475 -0.0525153 1.0458e-20 0.0178771 -4.21855e-23 9.4207e-38)
(7.21829 -0.0523782 0 0.014405 0 0)
(7.30105 -0.0468882 -1.03129e-20 0.0117167 3.19325e-23 9.02554e-38)
(7.35894 -0.0356355 -1.0219e-20 0.00978028 2.62235e-23 8.83305e-38)
(7.38531 -0.0209528 -1.01062e-20 0.00834375 1.98141e-23 8.64388e-38)
(7.3806 -0.00757481 -1.99464e-20 0.00768574 2.47631e-23 3.3832e-37)
(7.35337 0.000717488 1.96378e-20 0.00759099 -8.96332e-24 3.31013e-37)
(7.31258 0.00496794 0 0.00724764 0 0)
(7.26089 0.00792037 0 0.00660412 0 0)
(7.19762 0.0108032 0 0.0058622 0 0)
(7.12285 0.0140164 1.80726e-20 0.00512542 3.2774e-23 3.03046e-37)
(7.03351 0.0177004 1.76301e-20 0.00444605 3.9205e-23 2.9636e-37)
(6.92859 0.0217806 -1.71758e-20 0.00384478 -4.48852e-23 2.89793e-37)
(6.80646 0.0261649 0 0.00332549 0 0)
(6.66652 0.0307247 1.62382e-20 0.00288341 5.49277e-23 2.77009e-37)
(6.50799 0.0353635 1.57564e-20 0.00251227 5.95077e-23 2.70788e-37)
(6.33067 0.0399722 1.52659e-20 0.00220557 6.38282e-23 2.64679e-37)
(6.13453 0.0444443 0 0.00195847 0 0)
(5.92006 0.0486381 0 0.00176663 0 0)
(5.68817 0.0524082 0 0.00162401 0 0)
(5.44045 0.0555943 1.32228e-20 0.0015243 7.63093e-23 2.41329e-37)
(5.17918 0.058062 0 0.00145821 0 0)
(4.90741 0.0597214 0 0.00141663 0 0)
(4.6285 0.0605367 -1.16643e-20 0.00138914 -7.65264e-23 2.24914e-37)
(4.34584 0.0605263 0 0.00136749 0 0)
(4.06297 0.059727 0 0.00134462 0 0)
(3.78319 0.0582461 -1.02008e-20 0.00131613 -6.83555e-23 2.09391e-37)
(3.50928 0.0562252 0 0.00127958 0 0)
(3.24335 0.0538324 0 0.00123551 0 0)
(2.98679 0.0512395 8.92098e-21 0.00118637 5.56642e-23 1.94719e-37)
(2.7403 0.0485938 8.54081e-21 0.00113556 5.12438e-23 1.90011e-37)
(2.50408 0.0460069 0 0.00108729 0 0)
(2.27793 0.0435317 -7.84844e-21 0.0010441 -4.27555e-23 1.80861e-37)
(2.0615 0.0411838 0 0.00100939 0 0)
(1.85454 0.0389159 7.24244e-21 0.000983255 3.49313e-23 1.72054e-37)
(1.65709 0.0366477 0 0.000963725 0 0)
(1.46963 0.034303 6.7197e-21 0.00094761 2.77e-23 1.63582e-37)
(1.293 0.0318113 6.48916e-21 0.000929165 2.43e-23 1.59467e-37)
(1.12824 0.0291477 0 0.000903381 0 0)
(0.976353 0.026338 0 0.000867155 0 0)
(0.838117 0.0234415 0 0.00081973 0 0)
(0.713949 0.0205485 0 0.000763524 0 0)
(0.603936 0.017735 0 0.000701415 0 0)
(0.507818 0.0150611 0 0.000635985 0 0)
(0.424885 0.0125435 0 0.000568169 0 0)
(0.354465 0.0103169 5.25076e-21 0.00050848 5.33077e-24 1.29309e-37)
(0.295659 0.00829243 -5.1472e-21 0.000449482 -3.91659e-24 1.25866e-37)
(0.247231 0.00647652 0 0.00039238 0 0)
(0.208226 0.0048806 0 0.000338596 0 0)
(0.177638 0.00350097 0 0.0002885 0 0)
(0.154446 0.00233073 0 0.000242471 0 0)
(0.137642 0.00136032 -9.42241e-21 0.000200878 3.08292e-24 4.38635e-37)
(0.126243 0.000577717 0 0.000164092 0 0)
(0.119309 -3.16662e-05 9.129e-21 0.000132479 -6.44619e-24 4.14506e-37)
(0.115956 -0.000484783 -8.99164e-21 0.000106367 7.95594e-24 4.02812e-37)
(0.115375 -0.000800295 0 8.59525e-05 0 0)
(0.116839 -0.000998359 0 7.1154e-05 0 0)
(0.119723 -0.00110073 0 6.17138e-05 0 0)
(0.123505 -0.00113007 8.49647e-21 5.73593e-05 -1.25312e-23 3.58408e-37)
(0.127779 -0.00110763 8.38464e-21 5.75841e-05 -1.32971e-23 3.47881e-37)
(0.13224 -0.00105389 0 6.18374e-05 0 0)
(0.136695 -0.000989209 8.17301e-21 6.95913e-05 -1.43938e-23 3.27491e-37)
(0.141045 -0.000925879 8.07243e-21 8.02309e-05 -1.47149e-23 3.1762e-37)
(0.145255 -0.000875567 -7.97473e-21 9.30523e-05 1.48402e-23 3.07961e-37)
(0.149403 -0.00085693 0 0.00010656 0 0)
(0.153643 -0.000881592 0 0.000118537 0 0)