/*--------------------------------*- C++ -*----------------------------------*\
  =========                 |
  \\      /  F ield         | OpenFOAM: The Open Source CFD Toolbox
   \\    /   O peration     | Website:  https://openfoam.org
    \\  /    A nd           | Version:  7
     \\/     M anipulation  |
\*---------------------------------------------------------------------------*/
FoamFile
{
    version     2.0;
    format      ascii;
    class       volScalarField;
    location    "0.21";
    object      nut;
}
// * * * * * * * * * * * * * * * * * * * * * * * * * * * * * * * * * * * * * //

dimensions      [0 2 -1 0 0 0 0];

internalField   nonuniform List<scalar> 
12225
(
3.8006e-05
3.33294e-05
2.94332e-05
2.6376e-05
2.41489e-05
2.26289e-05
2.16444e-05
2.10341e-05
2.067e-05
2.046e-05
2.03412e-05
2.02731e-05
2.02311e-05
2.02008e-05
2.01745e-05
2.01472e-05
2.01239e-05
2.02584e-05
0.000205723
0.000151533
0.000127319
0.00011441
0.00010738
0.000103278
0.000100624
9.87138e-05
9.72134e-05
9.5961e-05
9.48766e-05
9.3921e-05
9.30738e-05
9.23211e-05
9.16555e-05
9.1055e-05
9.05556e-05
8.99819e-05
0.000418643
0.000297002
0.000242052
0.00021027
0.000189715
0.000175347
0.000164795
0.000156795
0.000150582
0.000145652
0.000141667
0.000138394
0.000135674
0.000133387
0.000131449
0.000129788
0.00012837
0.00012709
0.000615537
0.000473547
0.000392595
0.000341288
0.000306022
0.000280093
0.000260135
0.000244324
0.000231544
0.000221049
0.000212316
0.000204975
0.000198749
0.000193427
0.00018885
0.000184884
0.000181436
0.00017843
0.000739725
0.000627507
0.000543986
0.000483436
0.000438575
0.000404032
0.000376534
0.000354111
0.000335491
0.000319801
0.000306421
0.000294904
0.000284916
0.000276197
0.000268544
0.000261794
0.00025582
0.000250589
0.000803284
0.000733061
0.000666704
0.000610801
0.000565228
0.000527912
0.000496941
0.000470893
0.000448719
0.000429632
0.000413043
0.000398509
0.000385689
0.000374316
0.000364178
0.000355103
0.000346962
0.000339777
0.000832284
0.000794591
0.000750953
0.000708344
0.000669786
0.000635819
0.000606114
0.000580146
0.000557372
0.0005373
0.000519509
0.000503656
0.000489462
0.000476696
0.000465172
0.000454735
0.000445272
0.00043686
0.000844509
0.000826357
0.000801471
0.000773647
0.000745697
0.000719058
0.000694327
0.000671686
0.000651099
0.000632423
0.000615479
0.000600084
0.00058607
0.000573285
0.000561594
0.000550885
0.000541079
0.000532302
0.000849308
0.000841192
0.000828458
0.000812441
0.000794699
0.0007764
0.000758301
0.000740863
0.000724337
0.00070883
0.000694363
0.00068091
0.000668421
0.000656832
0.00064608
0.000636103
0.000626868
0.000618532
0.000851043
0.000847506
0.000841448
0.000833092
0.000823015
0.000811832
0.000800058
0.0007881
0.000776253
0.000764714
0.000753603
0.00074299
0.000732908
0.000723366
0.000714358
0.000705873
0.000697918
0.000690662
0.000851597
0.000849941
0.000847101
0.000842991
0.000837725
0.000831518
0.000824609
0.000817233
0.000809595
0.000801863
0.000794165
0.000786593
0.000779213
0.000772071
0.000765194
0.000758604
0.000752333
0.000746538
0.000851725
0.000850709
0.000849144
0.00084693
0.000844053
0.00084056
0.000836536
0.000832086
0.00082732
0.000822344
0.000817245
0.0008121
0.000806969
0.000801898
0.000796924
0.000792077
0.000787399
0.000783032
0.000851737
0.000850954
0.00084994
0.000848639
0.000847018
0.00084507
0.000842806
0.000840257
0.000837465
0.000834477
0.00083134
0.0008281
0.000824796
0.000821463
0.000818131
0.000814828
0.000811592
0.000808532
0.00085171
0.000850987
0.000850182
0.000849278
0.000848261
0.000847121
0.000845852
0.000844453
0.00084293
0.000841294
0.000839561
0.000837745
0.000835865
0.000833938
0.000831979
0.000830006
0.000828045
0.000826169
0.000851676
0.00085095
0.000850197
0.00084942
0.000848622
0.000847804
0.000846965
0.0008461
0.000845208
0.000844287
0.000843336
0.000842357
0.000841352
0.000840325
0.000839279
0.000838223
0.000837171
0.000836162
0.000851651
0.000850908
0.00085016
0.000849409
0.000848666
0.00084794
0.000847233
0.000846548
0.000845883
0.000845236
0.000844605
0.000843986
0.000843378
0.000842779
0.000842187
0.000841604
0.000841037
0.00084051
0.000851638
0.000850885
0.000850136
0.000849392
0.000848661
0.000847955
0.000847278
0.000846635
0.000846027
0.000845454
0.000844912
0.000844401
0.000843918
0.00084346
0.000843025
0.000842613
0.000842229
0.000841891
0.000851638
0.00085089
0.00085015
0.000849417
0.0008487
0.000848008
0.000847347
0.000846721
0.000846132
0.000845581
0.000845065
0.000844583
0.000844134
0.000843714
0.000843322
0.000842957
0.000842626
0.000842343
0.000851662
0.000850939
0.000850226
0.000849522
0.000848835
0.000848175
0.000847548
0.000846956
0.000846402
0.000845885
0.000845404
0.000844957
0.000844542
0.000844156
0.000843798
0.000843466
0.000843167
0.000842914
0.000851715
0.000851053
0.000850398
0.000849754
0.000849128
0.000848532
0.00084797
0.000847444
0.000846955
0.000846499
0.000846075
0.000845678
0.000845306
0.000844954
0.000844621
0.000844306
0.000844013
0.000843756
0.000851801
0.000851233
0.000850669
0.000850109
0.000849564
0.000849039
0.000848536
0.000848051
0.000847577
0.000847108
0.000846639
0.000846166
0.000845684
0.000845191
0.000844685
0.000844168
0.000843645
0.000843134
0.000851941
0.000851518
0.000851065
0.000850568
0.000850017
0.000849406
0.000848723
0.000847954
0.000847089
0.000846126
0.000845067
0.000843917
0.000842681
0.000841368
0.000839982
0.000838537
0.000837055
0.000835575
0.000852143
0.000851828
0.000851264
0.000850361
0.000849079
0.000847419
0.000845391
0.000843015
0.000840329
0.000837378
0.00083421
0.000830862
0.000827372
0.000823792
0.000820169
0.000816538
0.000812938
0.000809438
0.00085222
0.000851245
0.000849026
0.000845469
0.00084072
0.000835024
0.000828608
0.000821666
0.000814379
0.000806869
0.000799272
0.000791721
0.000784308
0.00077709
0.000770101
0.000763368
0.000756913
0.000750815
0.000850791
0.000845028
0.000835399
0.000822958
0.000808861
0.000794029
0.000779053
0.000764244
0.000749859
0.000736143
0.000723193
0.000711024
0.00069962
0.000688947
0.00067896
0.000669616
0.000660878
0.000652787
0.000841138
0.000816681
0.000786997
0.000756695
0.00072777
0.000700943
0.000676359
0.000654206
0.000634332
0.000616479
0.000600397
0.000585852
0.000572642
0.000560592
0.000549553
0.000539402
0.000530042
0.000521464
0.000798628
0.000728722
0.000669091
0.000620806
0.000580933
0.000547661
0.000520039
0.000496773
0.000476887
0.000459671
0.000444599
0.000431268
0.00041937
0.000408665
0.000398968
0.000390131
0.00038204
0.000374655
0.000662426
0.000545578
0.000474637
0.000425192
0.00038826
0.000360255
0.00033845
0.000320951
0.000306536
0.000294417
0.000284062
0.000275091
0.000267229
0.000260269
0.000254057
0.000248473
0.000243423
0.000238853
0.000377505
0.000286123
0.00024263
0.000214905
0.000195641
0.000182231
0.000172794
0.000165956
0.000160836
0.000156888
0.000153767
0.00015124
0.000149151
0.000147387
0.000145872
0.000144546
0.000143371
0.000142301
6.98062e-05
6.49723e-05
6.05478e-05
5.65123e-05
5.29008e-05
4.97255e-05
4.69803e-05
4.46401e-05
4.26661e-05
4.10141e-05
3.96403e-05
3.85047e-05
3.7571e-05
3.68078e-05
3.61878e-05
3.56875e-05
3.52875e-05
3.49708e-05
1.45237e-07
3.87698e-06
6.42104e-06
8.73159e-06
1.12929e-05
1.40581e-05
1.70799e-05
2.0323e-05
2.35358e-05
2.67632e-05
3.00067e-05
3.32613e-05
3.65248e-05
3.97981e-05
4.30848e-05
4.63892e-05
4.97163e-05
5.30708e-05
5.64568e-05
5.98781e-05
6.33376e-05
6.68376e-05
7.038e-05
7.3966e-05
7.75964e-05
8.12716e-05
8.49917e-05
8.87561e-05
9.25639e-05
9.64139e-05
0.000100304
0.000104232
0.000108195
0.000112188
0.000116209
0.000120251
0.000124309
0.000128379
0.000132453
0.000136525
0.000140588
0.000144633
0.000148652
0.000152632
0.000156563
0.000160428
0.000164212
0.000167898
0.000171466
0.000174895
0.000178161
0.000181243
0.000184119
0.000186774
0.000189199
0.000191385
0.00019331
0.000194906
0.000196034
0.000196511
0.000196241
0.000195497
0.000195142
0.000195872
0.000197343
0.000199299
0.000201371
0.000203029
0.000202316
0.000199479
0.000199281
4.56559e-05
4.57222e-05
4.64783e-05
4.72041e-05
4.74658e-05
4.76777e-05
0.000205479
4.72595e-05
4.76405e-05
4.80431e-05
4.84463e-05
4.88444e-05
4.92362e-05
4.96203e-05
4.9996e-05
5.03626e-05
5.07198e-05
5.10676e-05
5.14057e-05
5.17345e-05
5.20547e-05
5.23679e-05
5.26726e-05
5.29652e-05
5.32461e-05
5.35152e-05
5.37725e-05
5.40179e-05
5.4251e-05
5.44717e-05
5.46797e-05
5.48749e-05
5.50572e-05
5.52262e-05
5.5382e-05
5.55243e-05
5.5653e-05
5.57681e-05
5.58694e-05
5.59569e-05
5.60305e-05
5.60902e-05
5.6136e-05
5.61678e-05
5.61857e-05
5.61898e-05
5.61799e-05
5.61563e-05
5.6119e-05
5.60681e-05
5.60036e-05
5.59259e-05
5.58349e-05
5.57308e-05
5.56139e-05
5.54842e-05
5.53421e-05
5.51877e-05
5.50213e-05
5.48431e-05
5.46533e-05
5.44522e-05
5.42402e-05
5.40174e-05
5.37842e-05
5.35409e-05
5.32879e-05
5.30253e-05
5.27536e-05
5.24731e-05
5.21842e-05
5.1887e-05
5.15821e-05
5.12698e-05
5.09504e-05
5.06242e-05
5.02916e-05
4.99529e-05
4.96087e-05
4.92593e-05
4.89048e-05
4.85466e-05
4.81842e-05
4.78189e-05
4.74299e-05
4.67842e-05
4.62791e-05
4.60806e-05
4.60916e-05
0.000233949
4.58331e-05
0.000229249
4.87001e-05
0.000228149
4.50906e-05
0.0002215
4.76211e-05
4.74026e-05
0.000220346
4.41986e-05
0.000213948
0.000212799
0.000214672
4.6293e-05
0.000211608
4.3341e-05
4.48827e-05
4.48456e-05
0.000205623
5.62715e-07
1.87459e-05
4.11498e-05
5.63928e-05
6.61202e-05
7.32078e-05
7.92025e-05
8.48407e-05
9.04196e-05
9.6017e-05
0.00010164
0.000107281
0.00011293
0.000118585
0.000124246
0.000129916
0.000135599
0.000141301
0.000147024
0.000152774
0.000158554
0.000164367
0.000170216
0.000176102
0.000182029
0.000187997
0.000194008
0.000200062
0.000206162
0.000212306
0.000218495
0.000224728
0.000231004
0.000237321
0.000243676
0.000250067
0.000256489
0.000262938
0.000269408
0.000275892
0.000282382
0.000288866
0.000295333
0.000301766
0.000308145
0.000314448
0.000320645
0.000326701
0.000332574
0.000338215
0.000343565
0.000348558
0.000353117
0.000357161
0.000360587
0.00036325
0.000364906
0.000365106
0.000363119
0.000358013
0.000349189
0.000337445
0.000325845
0.000319183
0.000319769
0.000322633
0.000326137
0.000328822
0.000326638
0.000314875
0.000311364
0.000292501
0.000296484
0.000299815
0.000302255
0.000307452
0.000314563
0.000334976
0.000323472
0.000327648
0.000331984
0.000336735
0.000341627
0.000346602
0.000351616
0.000356643
0.000361666
0.000366673
0.00037165
0.000376583
0.000381451
0.000386222
0.000390755
0.000395017
0.000399198
0.000403319
0.000407381
0.00041138
0.000415313
0.000419176
0.000422968
0.000426683
0.000430318
0.000433871
0.000437337
0.000440714
0.000443999
0.000447189
0.00045028
0.000453271
0.000456159
0.000458941
0.000461616
0.000464181
0.000466634
0.000468974
0.0004712
0.00047331
0.000475302
0.000477176
0.00047893
0.000480565
0.00048208
0.000483474
0.000484748
0.000485901
0.000486933
0.000487846
0.00048864
0.000489315
0.000489872
0.000490313
0.000490639
0.000490851
0.000490951
0.000490941
0.000490822
0.000490596
0.000490266
0.000489833
0.000489301
0.000488672
0.000487947
0.00048713
0.000486225
0.000485232
0.000484155
0.000482999
0.000481763
0.000480455
0.000479075
0.000477622
0.000476105
0.000474498
0.000472626
0.000469463
0.000459273
0.000448926
0.000444248
0.000444575
0.000494964
0.000436915
0.000486174
0.000425894
0.000475017
0.000416864
0.000463278
0.00040608
0.00039828
0.000446193
0.000391317
0.000436115
0.000436368
0.000431486
0.000376512
0.000417422
0.000364939
0.000353538
0.000348917
0.000388933
1.13268e-06
3.01746e-05
6.56867e-05
9.1169e-05
0.000109019
0.000122082
0.000132409
0.000141312
0.000149541
0.000157484
0.000165323
0.000173135
0.000180952
0.000188783
0.000196632
0.000204502
0.000212392
0.000220305
0.000228242
0.000236205
0.000244197
0.00025222
0.000260276
0.000268368
0.000276497
0.000284667
0.00029288
0.000301137
0.000309441
0.000317792
0.000326192
0.000334641
0.00034314
0.000351687
0.00036028
0.000368919
0.000377597
0.000386312
0.000395056
0.000403821
0.000412596
0.000421368
0.000430121
0.000438833
0.000447482
0.000456036
0.000464461
0.000472713
0.000480746
0.000488504
0.000495927
0.000502953
0.000509521
0.000515576
0.000521065
0.000525925
0.000530056
0.000533283
0.000535356
0.000536059
0.000535512
0.000534544
0.000534689
0.000537389
0.000542717
0.000549374
0.000556596
0.000563676
0.000569555
0.000574144
0.000580335
0.000585385
0.000593345
0.00060203
0.000610325
0.00061959
0.000629402
0.00064019
0.000647837
0.000657687
0.000667683
0.000677762
0.00068787
0.000697978
0.000708059
0.00071809
0.00072805
0.000737921
0.000747682
0.000757308
0.00076677
0.000776034
0.000784949
0.000793645
0.000802195
0.000810615
0.000818905
0.000827058
0.000835069
0.00084293
0.000850634
0.000858175
0.000865545
0.000872738
0.000879747
0.000886565
0.000893187
0.000899606
0.000905817
0.000911815
0.000917595
0.000923151
0.000928481
0.000933579
0.000938442
0.000943067
0.00094745
0.000951589
0.000955482
0.000959127
0.000962521
0.000965665
0.000968556
0.000971195
0.000973582
0.000975716
0.000977599
0.000979231
0.000980613
0.000981748
0.000982638
0.000983284
0.00098369
0.000983858
0.000983791
0.000983495
0.000982971
0.000982225
0.000981262
0.000980084
0.000978699
0.00097711
0.000975324
0.000973345
0.00097118
0.000968835
0.000966315
0.00096363
0.000960781
0.000957781
0.000954636
0.000951346
0.000947905
0.000944276
0.000940175
0.000934505
0.00092403
0.000914454
0.000907135
0.000902187
0.000910897
0.000889617
0.000897535
0.00087927
0.000882843
0.000860416
0.000866822
0.000848722
0.000839574
0.000843673
0.000822791
0.000828417
0.000823544
0.000817015
0.000797044
0.000800269
0.000780358
0.000769362
0.000759137
0.000757968
1.71335e-06
3.8023e-05
8.28931e-05
0.000116978
0.000141958
0.000160709
0.000175496
0.00018791
0.000198987
0.000209357
0.000219378
0.000229245
0.000239054
0.000248852
0.000258659
0.000268484
0.000278329
0.000288196
0.000298085
0.000307996
0.000317931
0.000327892
0.00033788
0.000347899
0.00035795
0.000368036
0.000378162
0.000388328
0.000398538
0.000408795
0.000419099
0.000429452
0.000439855
0.000450307
0.000460807
0.000471354
0.000481944
0.000492572
0.000503232
0.000513915
0.000524612
0.000535308
0.00054599
0.000556636
0.000567226
0.000577732
0.000588127
0.000598376
0.000608444
0.000618295
0.000627893
0.000637207
0.000646218
0.000654918
0.000663317
0.000671433
0.000679282
0.000686866
0.000694171
0.000701224
0.000708183
0.000715427
0.000723465
0.000732656
0.000742941
0.000753998
0.00076555
0.000777341
0.000789138
0.000800975
0.00081325
0.00082567
0.000838568
0.000851778
0.000865073
0.000878697
0.000892552
0.000906579
0.000920457
0.000934651
0.000948849
0.000962999
0.000977081
0.000991082
0.00100499
0.00101878
0.00103243
0.00104594
0.00105928
0.00107243
0.00108539
0.00109802
0.00111036
0.00112248
0.0011344
0.00114615
0.0011577
0.00116907
0.00118023
0.00119119
0.00120192
0.00121243
0.00122269
0.00123272
0.00124248
0.00125199
0.00126122
0.00127017
0.00127883
0.0012872
0.00129527
0.00130303
0.00131047
0.0013176
0.00132441
0.00133089
0.00133703
0.00134284
0.00134831
0.00135344
0.00135822
0.00136266
0.00136675
0.00137049
0.00137388
0.00137692
0.00137962
0.00138197
0.00138397
0.00138563
0.00138695
0.00138793
0.00138858
0.0013889
0.00138888
0.00138855
0.0013879
0.00138694
0.00138567
0.0013841
0.00138224
0.00138009
0.00137767
0.00137497
0.00137201
0.00136879
0.00136532
0.00136162
0.00135769
0.00135354
0.00134917
0.0013446
0.0013398
0.00133472
0.00132914
0.00132236
0.00131314
0.00130429
0.00129589
0.00128808
0.00128357
0.00127182
0.00126699
0.00125674
0.00124958
0.00123688
0.00123114
0.00122053
0.00121082
0.00120353
0.00119117
0.00118499
0.00117677
0.00116815
0.00115626
0.00114942
0.00113757
0.00112609
0.0011133
0.00110021
2.21616e-06
4.38537e-05
9.61447e-05
0.000137316
0.000168449
0.000192348
0.000211355
0.000227203
0.000241102
0.000253851
0.000265953
0.000277713
0.000289303
0.000300818
0.000312306
0.000323792
0.000335287
0.000346795
0.000358318
0.000369857
0.000381413
0.000392988
0.000404584
0.000416203
0.000427849
0.000439525
0.000451234
0.000462979
0.000474765
0.000486593
0.000498466
0.000510387
0.000522355
0.000534373
0.00054644
0.000558554
0.000570714
0.000582917
0.000595157
0.00060743
0.000619727
0.000632039
0.000644354
0.00065666
0.000668943
0.000681184
0.000693368
0.000705476
0.000717491
0.000729398
0.000741187
0.000752855
0.00076441
0.000775874
0.000787284
0.000798688
0.000810138
0.000821682
0.000833365
0.000845237
0.000857385
0.000869943
0.000883058
0.000896811
0.00091117
0.00092604
0.000941312
0.000956887
0.000972683
0.000988679
0.00100491
0.00102131
0.0010379
0.00105465
0.00107152
0.00108854
0.00110567
0.00112286
0.00114006
0.00115727
0.00117441
0.00119145
0.00120836
0.00122513
0.00124176
0.00125823
0.00127453
0.00129063
0.00130653
0.0013222
0.00133764
0.00135275
0.00136758
0.00138217
0.00139654
0.0014107
0.00142463
0.00143834
0.0014518
0.00146502
0.00147798
0.00149067
0.00150308
0.0015152
0.00152702
0.00153854
0.00154973
0.0015606
0.00157114
0.00158132
0.00159116
0.00160064
0.00160975
0.00161848
0.00162684
0.00163482
0.00164241
0.0016496
0.00165639
0.00166279
0.00166877
0.00167435
0.00167953
0.00168429
0.00168864
0.00169258
0.0016961
0.00169922
0.00170192
0.00170422
0.00170612
0.00170761
0.0017087
0.00170939
0.0017097
0.00170962
0.00170916
0.00170832
0.00170711
0.00170554
0.00170362
0.00170134
0.00169873
0.00169578
0.00169252
0.00168894
0.00168505
0.00168087
0.00167641
0.00167167
0.00166666
0.00166139
0.00165583
0.00164996
0.0016436
0.00163641
0.00162796
0.00161938
0.00161063
0.0016018
0.00159363
0.00158372
0.00157529
0.00156571
0.00155625
0.00154557
0.00153644
0.00152633
0.00151606
0.00150612
0.00149521
0.00148569
0.00147581
0.00146584
0.00145508
0.00144544
0.00143459
0.00142277
0.00140937
0.00139392
2.61076e-06
4.83686e-05
0.000106474
0.000153485
0.000189919
0.000218428
0.000241344
0.000260461
0.000277085
0.000292129
0.000306208
0.000319718
0.000332907
0.000345921
0.000358846
0.000371729
0.000384594
0.000397455
0.000410318
0.000423187
0.000436063
0.000448951
0.000461852
0.00047477
0.000487708
0.00050067
0.000513659
0.000526681
0.000539739
0.000552836
0.000565975
0.00057916
0.000592393
0.000605676
0.000619011
0.000632397
0.000645834
0.000659323
0.000672862
0.000686447
0.000700077
0.000713746
0.000727449
0.000741181
0.000754936
0.000768708
0.00078249
0.000796279
0.000810072
0.00082387
0.000837678
0.00085151
0.000865386
0.000879336
0.0008934
0.000907626
0.000922062
0.000936753
0.00095174
0.000967054
0.000982732
0.000998812
0.00101533
0.00103229
0.00104967
0.00106742
0.00108549
0.00110383
0.00112239
0.00114113
0.00116005
0.00117909
0.00119825
0.0012175
0.00123682
0.0012562
0.0012756
0.001295
0.00131436
0.00133365
0.00135282
0.00137185
0.00139073
0.00140944
0.00142797
0.00144632
0.00146446
0.00148239
0.00150009
0.00151756
0.00153473
0.0015516
0.00156821
0.00158457
0.00160069
0.00161658
0.00163223
0.00164762
0.00166277
0.00167764
0.00169223
0.00170653
0.00172054
0.00173423
0.0017476
0.00176064
0.00177333
0.00178567
0.00179765
0.00180926
0.00182049
0.00183133
0.00184177
0.00185181
0.00186144
0.00187066
0.00187945
0.00188782
0.00189575
0.00190325
0.00191031
0.00191692
0.00192308
0.0019288
0.00193407
0.00193889
0.00194325
0.00194717
0.00195063
0.00195364
0.00195621
0.00195833
0.00196001
0.00196125
0.00196206
0.00196243
0.00196239
0.00196191
0.00196103
0.00195974
0.00195805
0.00195597
0.0019535
0.00195066
0.00194745
0.00194388
0.00193996
0.0019357
0.00193111
0.00192621
0.00192099
0.00191547
0.00190962
0.00190343
0.0018968
0.00188955
0.00188154
0.00187317
0.00186445
0.00185545
0.00184642
0.00183685
0.00182747
0.00181772
0.00180776
0.00179742
0.00178733
0.00177695
0.00176637
0.00175575
0.00174492
0.00173439
0.00172378
0.00171314
0.00170232
0.00169175
0.00168078
0.00166898
0.00165588
0.00164086
2.91458e-06
5.17524e-05
0.000114367
0.000166168
0.000207139
0.000239731
0.000266214
0.000288385
0.000307595
0.00032483
0.00034078
0.000355919
0.000370557
0.000384894
0.000399055
0.000413112
0.000427111
0.000441077
0.000455024
0.000468961
0.000482893
0.000496827
0.000510764
0.000524711
0.00053867
0.000552648
0.000566648
0.000580675
0.000594734
0.000608829
0.000622966
0.000637147
0.000651377
0.000665659
0.000679997
0.000694392
0.000708848
0.000723367
0.00073795
0.0007526
0.000767316
0.000782101
0.000796954
0.000811878
0.000826872
0.000841939
0.000857083
0.000872307
0.000887618
0.000903027
0.000918546
0.000934193
0.000949992
0.00096597
0.000982161
0.000998599
0.00101532
0.00103236
0.00104973
0.00106745
0.00108554
0.00110399
0.00112281
0.00114197
0.00116147
0.00118125
0.0012013
0.00122156
0.001242
0.0012626
0.00128332
0.00130413
0.00132502
0.00134595
0.00136691
0.00138787
0.0014088
0.00142968
0.00145048
0.00147118
0.00149173
0.00151213
0.00153236
0.0015524
0.00157225
0.00159189
0.00161132
0.00163052
0.00164949
0.00166821
0.00168662
0.00170475
0.00172263
0.00174027
0.00175766
0.00177482
0.00179173
0.00180838
0.00182477
0.00184089
0.00185672
0.00187225
0.00188748
0.00190238
0.00191696
0.00193119
0.00194507
0.00195859
0.00197174
0.0019845
0.00199686
0.00200883
0.00202039
0.00203153
0.00204224
0.00205252
0.00206236
0.00207176
0.00208071
0.0020892
0.00209723
0.00210479
0.00211189
0.00211852
0.00212467
0.00213035
0.00213556
0.00214028
0.00214453
0.00214831
0.00215162
0.00215445
0.0021568
0.00215869
0.00216012
0.00216109
0.00216161
0.00216166
0.00216128
0.00216046
0.00215921
0.00215753
0.00215542
0.00215291
0.00215
0.0021467
0.00214302
0.00213896
0.00213454
0.00212977
0.00212465
0.00211919
0.00211339
0.00210722
0.00210063
0.00209355
0.0020859
0.00207784
0.00206937
0.00206057
0.00205153
0.00204218
0.00203269
0.00202294
0.00201297
0.00200277
0.00199249
0.00198202
0.00197137
0.00196063
0.00194979
0.00193898
0.00192813
0.00191727
0.00190638
0.00189556
0.00188457
0.00187308
0.00186065
0.00184679
3.13543e-06
5.41842e-05
0.000120192
0.000175852
0.000220649
0.000256805
0.000286487
0.000311458
0.000333082
0.000352376
0.000370086
0.000386738
0.000402698
0.000418211
0.00043344
0.000448487
0.00046342
0.000478277
0.000493086
0.000507862
0.000522615
0.000537355
0.000552088
0.000566819
0.000581555
0.000596302
0.000611064
0.000625849
0.000640661
0.000655506
0.000670391
0.000685319
0.000700297
0.00071533
0.000730423
0.000745581
0.000760808
0.000776111
0.000791493
0.00080696
0.000822516
0.000838168
0.00085392
0.000869779
0.00088575
0.000901842
0.000918062
0.000934421
0.000950929
0.000967601
0.00098445
0.0010015
0.00101876
0.00103626
0.00105402
0.00107207
0.00109042
0.0011091
0.00112812
0.00114747
0.00116716
0.00118717
0.0012075
0.00122813
0.00124902
0.00127016
0.0012915
0.00131303
0.00133471
0.00135651
0.0013784
0.00140036
0.00142236
0.00144438
0.0014664
0.00148839
0.00151032
0.00153218
0.00155393
0.00157557
0.00159705
0.00161837
0.00163952
0.00166047
0.00168123
0.00170177
0.0017221
0.0017422
0.00176206
0.00178166
0.00180098
0.00182004
0.00183886
0.00185745
0.00187581
0.00189394
0.00191182
0.00192945
0.00194682
0.00196392
0.00198074
0.00199726
0.00201347
0.00202937
0.00204494
0.00206017
0.00207504
0.00208955
0.00210368
0.00211743
0.00213078
0.00214373
0.00215626
0.00216837
0.00218004
0.00219128
0.00220208
0.00221242
0.0022223
0.00223171
0.00224065
0.00224912
0.0022571
0.00226461
0.00227163
0.00227817
0.00228421
0.00228976
0.00229482
0.00229938
0.00230347
0.00230706
0.00231015
0.00231276
0.00231489
0.00231655
0.00231772
0.00231842
0.00231864
0.00231841
0.00231772
0.00231658
0.002315
0.00231299
0.00231055
0.00230769
0.00230443
0.00230077
0.00229673
0.0022923
0.0022875
0.00228233
0.00227679
0.00227087
0.00226455
0.00225779
0.00225056
0.00224289
0.00223482
0.00222639
0.00221765
0.00220862
0.00219935
0.00218982
0.00218006
0.00217007
0.00215991
0.00214956
0.00213905
0.00212841
0.00211767
0.00210689
0.00209609
0.00208527
0.00207448
0.00206374
0.00205295
0.00204191
0.00203028
0.00201767
3.28186e-06
5.58151e-05
0.000124252
0.000182929
0.000230883
0.00027009
0.000302588
0.00033008
0.00035391
0.000375108
0.000394447
0.000412493
0.000429652
0.000446208
0.000462357
0.000478233
0.000493921
0.000509482
0.000524953
0.000540359
0.000555718
0.000571044
0.000586346
0.000601634
0.000616914
0.000632194
0.000647482
0.000662785
0.000678109
0.000693462
0.00070885
0.000724281
0.000739761
0.000755298
0.000770898
0.000786568
0.000802315
0.000818148
0.000834073
0.000850099
0.000866233
0.000882484
0.00089886
0.000915372
0.000932029
0.000948841
0.00096582
0.000982977
0.00100033
0.00101788
0.00103565
0.00105366
0.00107192
0.00109045
0.00110927
0.00112837
0.00114779
0.00116753
0.00118758
0.00120795
0.00122862
0.00124959
0.00127084
0.00129235
0.00131409
0.00133604
0.00135817
0.00138046
0.00140289
0.00142541
0.00144801
0.00147067
0.00149336
0.00151605
0.00153872
0.00156135
0.00158392
0.00160641
0.00162878
0.00165104
0.00167314
0.00169509
0.00171686
0.00173844
0.00175982
0.001781
0.00180197
0.00182271
0.00184323
0.00186348
0.0018835
0.00190329
0.00192286
0.00194222
0.00196136
0.00198028
0.00199896
0.00201741
0.0020356
0.00205353
0.00207119
0.00208856
0.00210563
0.0021224
0.00213883
0.00215494
0.00217069
0.00218609
0.00220111
0.00221575
0.00223
0.00224383
0.00225726
0.00227026
0.00228283
0.00229496
0.00230665
0.00231788
0.00232865
0.00233895
0.00234877
0.00235811
0.00236696
0.00237533
0.00238321
0.0023906
0.00239748
0.00240386
0.00240974
0.00241512
0.00242001
0.0024244
0.00242828
0.00243165
0.00243453
0.00243691
0.00243881
0.00244022
0.00244114
0.00244159
0.00244156
0.00244107
0.00244012
0.00243873
0.00243688
0.00243461
0.0024319
0.00242878
0.00242525
0.00242131
0.00241698
0.00241226
0.00240716
0.00240166
0.00239577
0.00238945
0.0023827
0.00237552
0.00236794
0.00235999
0.0023517
0.00234309
0.0023342
0.00232503
0.0023156
0.00230594
0.00229607
0.00228599
0.00227574
0.00226534
0.00225483
0.00224426
0.00223365
0.00222305
0.00221249
0.00220201
0.00219157
0.00218106
0.00217021
0.00215873
3.36265e-06
5.67713e-05
0.000126797
0.000187729
0.000238211
0.000279967
0.000314888
0.000344597
0.0003704
0.000393319
0.000414136
0.00043344
0.000451666
0.00046913
0.000486057
0.000502605
0.000518882
0.000534966
0.000550908
0.000566744
0.0005825
0.000598194
0.000613843
0.000629457
0.000645048
0.000660624
0.000676196
0.000691771
0.00070736
0.000722969
0.000738607
0.000754284
0.000770007
0.000785785
0.000801628
0.000817543
0.00083354
0.000849629
0.00086582
0.000882122
0.000898546
0.000915102
0.000931803
0.000948658
0.000965681
0.000982883
0.00100028
0.00101788
0.00103569
0.00105374
0.00107203
0.00109058
0.00110939
0.00112849
0.00114788
0.00116756
0.00118755
0.00120784
0.00122844
0.00124933
0.00127051
0.00129197
0.00131368
0.00133562
0.00135779
0.00138015
0.00140268
0.00142536
0.00144817
0.00147108
0.00149406
0.0015171
0.00154017
0.00156324
0.0015863
0.00160932
0.00163229
0.00165517
0.00167795
0.00170062
0.00172315
0.00174552
0.00176773
0.00178977
0.00181161
0.00183326
0.00185471
0.00187595
0.00189696
0.00191777
0.00193838
0.00195879
0.00197901
0.00199904
0.00201887
0.00203849
0.00205789
0.00207707
0.00209601
0.0021147
0.00213313
0.00215128
0.00216915
0.00218671
0.00220396
0.00222088
0.00223746
0.00225369
0.00226955
0.00228504
0.00230013
0.00231482
0.0023291
0.00234295
0.00235638
0.00236938
0.00238193
0.00239403
0.00240567
0.00241683
0.00242751
0.00243771
0.00244742
0.00245665
0.00246539
0.00247364
0.00248137
0.00248859
0.00249531
0.00250152
0.00250722
0.00251242
0.00251711
0.00252129
0.00252496
0.00252814
0.00253081
0.00253299
0.00253468
0.00253588
0.0025366
0.00253684
0.00253661
0.00253591
0.00253476
0.00253316
0.00253112
0.00252864
0.00252573
0.0025224
0.00251866
0.00251452
0.00250997
0.00250502
0.00249966
0.00249389
0.0024877
0.00248109
0.00247407
0.00246668
0.00245892
0.00245083
0.00244242
0.00243371
0.00242472
0.00241548
0.002406
0.00239629
0.00238639
0.00237634
0.00236615
0.00235589
0.00234559
0.0023353
0.00232507
0.00231494
0.00230493
0.00229496
0.00228483
0.00227432
3.38648e-06
5.71599e-05
0.000128043
0.000190538
0.000242956
0.00028677
0.000323716
0.000355321
0.000382837
0.000407263
0.000429377
0.000449779
0.000468921
0.000487142
0.000504689
0.000521743
0.000538433
0.000554852
0.000571065
0.00058712
0.000603051
0.000618885
0.000634641
0.000650337
0.000665986
0.000681601
0.000697193
0.000712774
0.000728353
0.000743941
0.000759549
0.000775187
0.000790865
0.000806594
0.000822384
0.000838245
0.00085419
0.00087023
0.000886375
0.000902639
0.000919033
0.000935571
0.000952264
0.000969126
0.000986171
0.00100341
0.00102086
0.00103853
0.00105643
0.00107459
0.001093
0.00111168
0.00113064
0.00114989
0.00116943
0.00118927
0.00120941
0.00122986
0.0012506
0.00127162
0.00129293
0.00131451
0.00133633
0.00135839
0.00138067
0.00140315
0.0014258
0.00144861
0.00147156
0.00149461
0.00151776
0.00154098
0.00156424
0.00158752
0.00161081
0.00163407
0.00165729
0.00168044
0.00170351
0.00172648
0.00174932
0.00177203
0.00179458
0.00181697
0.00183918
0.00186122
0.00188306
0.00190471
0.0019262
0.00194752
0.00196869
0.0019897
0.00201054
0.00203121
0.0020517
0.002072
0.0020921
0.00211199
0.00213165
0.00215108
0.00217025
0.00218917
0.0022078
0.00222614
0.00224418
0.0022619
0.00227929
0.00229633
0.00231302
0.00232933
0.00234525
0.00236077
0.00237589
0.00239059
0.00240486
0.0024187
0.00243211
0.00244508
0.00245758
0.0024696
0.00248114
0.00249219
0.00250277
0.00251285
0.00252244
0.00253154
0.00254013
0.00254821
0.00255578
0.00256284
0.00256939
0.00257544
0.00258097
0.002586
0.00259051
0.00259452
0.00259803
0.00260104
0.00260355
0.00260556
0.00260708
0.00260813
0.00260869
0.00260877
0.00260839
0.00260755
0.00260625
0.00260451
0.00260232
0.0025997
0.00259665
0.00259317
0.00258928
0.00258498
0.00258026
0.00257513
0.00256957
0.0025636
0.00255722
0.00255044
0.00254329
0.00253579
0.00252794
0.00251977
0.0025113
0.00250256
0.00249355
0.0024843
0.00247483
0.00246519
0.00245541
0.00244554
0.00243562
0.00242571
0.00241587
0.00240615
0.00239659
0.00238714
0.00237767
0.00236796
3.36187e-06
5.70727e-05
0.000128178
0.000191605
0.000245399
0.000290791
0.000329356
0.000362515
0.000391455
0.000417139
0.000440333
0.000461633
0.000481502
0.000500292
0.00051827
0.000535633
0.000552528
0.000569062
0.000585316
0.000601346
0.000617199
0.000632907
0.000648497
0.00066399
0.000679406
0.000694759
0.000710066