/*--------------------------------*- C++ -*----------------------------------*\
  =========                 |
  \\      /  F ield         | OpenFOAM: The Open Source CFD Toolbox
   \\    /   O peration     | Website:  https://openfoam.org
    \\  /    A nd           | Version:  7
     \\/     M anipulation  |
\*---------------------------------------------------------------------------*/
FoamFile
{
    version     2.0;
    format      ascii;
    class       volScalarField;
    location    "0.079";
    object      k;
}
// * * * * * * * * * * * * * * * * * * * * * * * * * * * * * * * * * * * * * //

dimensions      [0 2 -2 0 0 0 0];

internalField   nonuniform List<scalar> 
12225
(
1.94051e-05
1.80613e-05
1.66113e-05
1.54283e-05
1.40651e-05
1.28137e-05
1.16784e-05
1.02775e-05
9.01195e-06
7.96727e-06
6.78754e-06
5.71384e-06
5.13956e-06
4.99316e-06
4.85013e-06
4.69085e-06
2.61689e-05
2.06609e-05
1.99819e-05
1.98809e-05
1.96708e-05
1.94127e-05
1.91838e-05
1.8804e-05
1.84023e-05
1.79757e-05
1.7521e-05
1.69319e-05
1.63569e-05
1.58774e-05
1.53371e-05
1.50171e-05
1.47765e-05
1.41364e-05
2.03766e-05
2.16588e-05
2e-05
1.93409e-05
1.92116e-05
1.91451e-05
1.91009e-05
1.89983e-05
1.88092e-05
1.86472e-05
1.85556e-05
1.84395e-05
1.83122e-05
1.81844e-05
1.80674e-05
1.79181e-05
1.78364e-05
1.76204e-05
1.82663e-05
1.83187e-05
2.03037e-05
2.00874e-05
1.99103e-05
1.98862e-05
1.96348e-05
1.83542e-05
1.69438e-05
1.65549e-05
1.65461e-05
1.67271e-05
1.7257e-05
1.75912e-05
1.77129e-05
1.77277e-05
1.77107e-05
1.75786e-05
1.73471e-05
1.72132e-05
2.06041e-05
2.10366e-05
2.23647e-05
2.57681e-05
2.64964e-05
2.6265e-05
2.47837e-05
2.15609e-05
1.94347e-05
1.86141e-05
1.84387e-05
1.84468e-05
1.84651e-05
1.84637e-05
1.84342e-05
1.83206e-05
1.79517e-05
1.72808e-05
2.03263e-05
2.52887e-05
2.65811e-05
2.64562e-05
2.62143e-05
2.53835e-05
2.4521e-05
2.44813e-05
2.5023e-05
2.57796e-05
2.58548e-05
2.55713e-05
2.43666e-05
2.32899e-05
2.28665e-05
2.26334e-05
2.24249e-05
2.19403e-05
2.1086e-05
2.41724e-05
2.68865e-05
2.68097e-05
2.59902e-05
2.4023e-05
2.33663e-05
2.34168e-05
2.43209e-05
2.62965e-05
2.70412e-05
2.7044e-05
2.64314e-05
2.50678e-05
2.45116e-05
2.43814e-05
2.43546e-05
2.42984e-05
2.1718e-05
2.41283e-05
2.42086e-05
2.34379e-05
2.25028e-05
2.23795e-05
2.29398e-05
2.51868e-05
2.706e-05
2.77091e-05
2.76562e-05
2.68013e-05
2.48847e-05
2.36765e-05
2.30537e-05
2.27948e-05
2.27504e-05
2.27971e-05
2.74142e-05
2.66515e-05
2.43865e-05
2.18777e-05
2.13123e-05
2.14402e-05
2.26179e-05
2.5321e-05
2.66952e-05
2.69786e-05
2.68378e-05
2.58554e-05
2.37739e-05
2.21861e-05
2.10671e-05
2.04521e-05
2.02441e-05
2.02459e-05
2.52834e-05
2.40355e-05
2.11655e-05
2.05524e-05
2.05906e-05
2.09023e-05
2.17049e-05
2.26007e-05
2.31649e-05
2.33374e-05
2.33065e-05
2.30395e-05
2.23587e-05
2.16286e-05
2.09064e-05
2.03675e-05
2.01388e-05
2.00977e-05
2.08e-05
2.12848e-05
2.13956e-05
2.14843e-05
2.16719e-05
2.17617e-05
2.16964e-05
2.14315e-05
2.13129e-05
2.13206e-05
2.14908e-05
2.21055e-05
2.24411e-05
2.24734e-05
2.24055e-05
2.20342e-05
2.13012e-05
2.08435e-05
2.00885e-05
2.02322e-05
2.05897e-05
2.15675e-05
2.24658e-05
2.25546e-05
2.24214e-05
2.19785e-05
2.14538e-05
2.12544e-05
2.12653e-05
2.15603e-05
2.2274e-05
2.25658e-05
2.2599e-05
2.25093e-05
2.20855e-05
2.16454e-05
2.01216e-05
2.03637e-05
2.03981e-05
2.04434e-05
2.05769e-05
2.12871e-05
2.2106e-05
2.22022e-05
2.20812e-05
2.16829e-05
2.15121e-05
2.1508e-05
2.15824e-05
2.16422e-05
2.16396e-05
2.15782e-05
2.14359e-05
2.13789e-05
2.01308e-05
2.02993e-05
2.02666e-05
2.0237e-05
2.03348e-05
2.10802e-05
2.28127e-05
2.34437e-05
2.33381e-05
2.25154e-05
2.16528e-05
2.12717e-05
2.10906e-05
2.0963e-05
2.08618e-05
2.081e-05
2.08069e-05
2.08572e-05
2.01054e-05
2.08766e-05
2.12019e-05
2.11471e-05
2.07931e-05
2.06579e-05
2.06882e-05
2.07171e-05
2.071e-05
2.06634e-05
2.05741e-05
2.0531e-05
2.05203e-05
2.05188e-05
2.05198e-05
2.05262e-05
2.05472e-05
2.05756e-05
2.01284e-05
2.12237e-05
2.16797e-05
2.16056e-05
2.10356e-05
2.05597e-05
2.04037e-05
2.0376e-05
2.03835e-05
2.04156e-05
2.04369e-05
2.0447e-05
2.04566e-05
2.04757e-05
2.05328e-05
2.07252e-05
2.09862e-05
2.11576e-05
2.15896e-05
2.18464e-05
2.1152e-05
2.04653e-05
2.02588e-05
2.02468e-05
2.03459e-05
2.04839e-05
2.05205e-05
2.05176e-05
2.04773e-05
2.04087e-05
2.03785e-05
2.03768e-05
2.04007e-05
2.04488e-05
2.05836e-05
2.08904e-05
2.03256e-05
2.02e-05
2.0169e-05
2.01667e-05
2.01816e-05
2.02096e-05
2.02657e-05
2.04375e-05
2.06465e-05
2.07403e-05
2.07651e-05
2.07739e-05
2.08058e-05
2.09172e-05
2.09537e-05
2.0922e-05
2.07932e-05
2.07422e-05
2.01903e-05
2.03635e-05
2.03316e-05
2.0212e-05
2.0158e-05
2.01665e-05
2.02555e-05
2.04317e-05
2.05513e-05
2.06151e-05
2.06139e-05
2.05894e-05
2.04955e-05
2.0368e-05
2.02948e-05
2.02692e-05
2.02661e-05
2.02677e-05
2.0179e-05
2.02743e-05
2.02639e-05
2.02579e-05
2.03241e-05
2.0385e-05
2.03923e-05
2.03857e-05
2.03956e-05
2.04541e-05
2.04916e-05
2.04909e-05
2.04646e-05
2.04002e-05
2.03565e-05
2.03333e-05
2.03263e-05
2.03213e-05
2.01256e-05
2.01809e-05
2.02682e-05
2.02929e-05
2.03267e-05
2.03323e-05
2.03219e-05
2.03056e-05
2.0306e-05
2.03394e-05
2.04714e-05
2.05746e-05
2.06135e-05
2.06205e-05
2.06159e-05
2.05873e-05
2.05595e-05
2.05493e-05
2.02672e-05
2.01909e-05
2.03565e-05
2.0638e-05
2.0565e-05
2.04148e-05
2.03256e-05
2.02729e-05
2.02629e-05
2.02677e-05
2.0285e-05
2.02946e-05
2.02968e-05
2.02973e-05
2.02998e-05
2.03195e-05
2.03384e-05
2.036e-05
2.01932e-05
2.03536e-05
2.05193e-05
2.05052e-05
2.03122e-05
2.01322e-05
2.00744e-05
2.0072e-05
2.01019e-05
2.02166e-05
2.02725e-05
2.03055e-05
2.03624e-05
2.04119e-05
2.04266e-05
2.04194e-05
2.03754e-05
2.03561e-05
2.02519e-05
2.08535e-05
2.10283e-05
2.08942e-05
2.07387e-05
2.08992e-05
2.1068e-05
2.09402e-05
2.05079e-05
2.03299e-05
2.03332e-05
2.04328e-05
2.05181e-05
2.0541e-05
2.05394e-05
2.05055e-05
2.03841e-05
2.02906e-05
2.03175e-05
2.07561e-05
2.08099e-05
2.06402e-05
2.07691e-05
2.0918e-05
2.07904e-05
2.03633e-05
2.01374e-05
2.01001e-05
2.01239e-05
2.02527e-05
2.03958e-05
2.04687e-05
2.04979e-05
2.04999e-05
2.04828e-05
2.03964e-05
2.00799e-05
2.04816e-05
2.03762e-05
2.02752e-05
2.04366e-05
2.0754e-05
2.07588e-05
2.05844e-05
2.02726e-05
2.02263e-05
2.02932e-05
2.06613e-05
2.0996e-05
2.10079e-05
2.09528e-05
2.09018e-05
2.07837e-05
2.063e-05
2.02632e-05
2.04211e-05
2.03353e-05
2.00761e-05
1.99083e-05
1.97563e-05
1.96957e-05
1.97038e-05
1.9772e-05
1.99685e-05
2.05237e-05
2.11e-05
2.13988e-05
2.14281e-05
2.13348e-05
2.1243e-05
2.1332e-05
2.167e-05
2.03147e-05
1.85603e-05
1.4635e-05
1.53239e-05
1.77799e-05
2.12966e-05
2.39742e-05
2.65794e-05
3.19717e-05
3.97124e-05
5.13442e-05
5.95265e-05
6.84876e-05
7.50134e-05
8.37302e-05
8.92022e-05
9.8142e-05
0.000108863
3.13004e-05
0.000109527
0.000174535
0.000245885
0.000299821
0.000326801
0.000346478
0.000377913
0.000428099
0.000486488
0.000544583
0.000591305
0.000629733
0.000657346
0.000681565
0.000695531
0.000711714
0.000731983
0.00219798
0.00240122
0.00249908
0.0025071
0.00246402
0.00230147
0.00215127
0.00205876
0.0019868
0.00190867
0.00181743
0.00171918
0.00162656
0.00155222
0.00150309
0.00147707
0.00146452
0.00145228
0.00850334
0.00966313
0.00744436
0.006626
0.00652635
0.00652264
0.00649681
0.0064185
0.00631661
0.00612287
0.00646116
0.00723612
0.00729088
0.00713109
0.0068634
0.00665108
0.00650171
0.00637237
0.0062599
0.00618526
0.00612865
0.00606402
0.00601175
0.00599986
0.00600383
0.00601366
0.006035
0.0060683
0.00613321
0.00622876
0.00630962
0.00640847
0.0066076
0.00674677
0.00689121
0.00710681
0.00724788
0.00818413
0.0084604
0.00504771
0.00380545
0.00519637
0.00672518
0.00738071
0.0076861
0.00791996
0.0077885
0.00719451
0.00679737
0.00670833
0.00754728
0.00913208
0.0120846
0.017424
0.0247547
0.0326856
0.036623
0.0369377
0.0377086
0.046103
0.0749905
0.0998257
0.106393
0.109668
0.120783
0.111197
0.0279374
0.00286595
0.00128354
0.00110487
0.00111679
0.00111896
0.00103773
0.000924895
0.000845485
0.00068805
0.000585376
0.000488892
0.000377472
0.000325318
0.000250024
0.000201811
0.000173384
0.000152281
0.000144229
0.000142903
0.00014321
0.000143512
0.000143796
0.000143974
0.000144095
0.000144212
0.000144501
0.000144822
0.00014507
0.000145246
0.00014535
0.000145221
0.00014505
0.000144996
0.000144476
0.00014364
0.000142806
0.000141747
0.000140309
0.000138667
0.0001369
0.000135001
0.000133406
0.000131568
0.000129783
0.000128146
0.000126436
0.000124683
0.000122811
0.000120658
0.00011755
0.000113629
0.000109171
0.00010408
9.82663e-05
9.1705e-05
8.4433e-05
7.66264e-05
6.87361e-05
6.11318e-05
5.42896e-05
4.85689e-05
4.37961e-05
3.94626e-05
3.52788e-05
3.11005e-05
2.67551e-05
2.22519e-05
1.77715e-05
1.36644e-05
1.0314e-05
7.75128e-06
5.85111e-06
4.45881e-06
3.43504e-06
2.67345e-06
2.09989e-06
1.66317e-06
1.32741e-06
1.068e-06
8.67333e-07
7.11125e-07
5.88043e-07
4.89939e-07
4.1098e-07
3.46829e-07
2.94143e-07
2.50317e-07
2.1336e-07
1.81802e-07
1.54596e-07
1.31023e-07
1.10566e-07
9.28363e-08
7.75107e-08
6.43241e-08
5.3024e-08
4.34043e-08
3.52498e-08
2.84045e-08
2.26756e-08
1.79487e-08
1.40362e-08
1.0881e-08
8.28957e-09
6.27736e-09
4.61703e-09
3.42393e-09
2.27372e-09
3.19625e-09
2.64408e-09
1.11765e-07
5.32959e-06
3.9749e-06
0.00796509
0.00833996
0.00781113
0.00702301
0.00675809
0.00670809
0.00657991
0.00630941
0.00604686
0.00551072
0.00529357
0.00509736
0.00492857
0.00478486
0.00468166
0.00465409
0.00463909
0.00463539
0.00464187
0.00466109
0.00468246
0.00473352
0.00477161
0.00481655
0.00487233
0.00490704
0.00495199
0.0049601
0.00495188
0.00493112
0.00493419
0.00495473
0.00500455
0.00513042
0.00524771
0.00550006
0.00569221
0.00610593
0.00718682
0.00711626
0.00692759
0.00679279
0.00638385
0.00571208
0.00505749
0.00476644
0.00449977
0.00376273
0.0031538
0.00286524
0.00292198
0.00300769
0.00309585
0.00337966
0.00406544
0.00571616
0.00689056
0.00698696
0.00712261
0.00836265
0.0103149
0.0142791
0.0396384
0.0971361
0.0726396
0.0288712
0.00567111
0.00124996
0.000714796
0.000565446
0.00048647
0.000417937
0.000343426
0.000306327
0.000276541
0.000246965
0.000233356
0.000220393
0.00021214
0.000208422
0.000206492
0.000206062
0.000207799
0.000211406
0.000214859
0.00021887
0.000223347
0.000228244
0.000233073
0.000237809
0.000242339
0.000246735
0.000251232
0.000255818
0.000260077
0.00026353
0.000266249
0.000268477
0.000270133
0.00027077
0.000270283
0.000266443
0.000262033
0.000256552
0.000247732
0.000237855
0.000228882
0.000216416
0.000206509
0.000195931
0.000187208
0.000179906
0.000174268
0.000170014
0.000166839
0.00016457
0.000163419
0.000163116
0.000163458
0.000164307
0.000165087
0.000165087
0.000164457
0.000162646
0.000158917
0.000152954
0.000144377
0.000133833
0.00012292
0.000112451
0.000102614
9.36665e-05
8.55898e-05
7.80248e-05
7.07837e-05
6.38529e-05
5.71534e-05
5.07761e-05
4.47944e-05
3.92154e-05
3.40104e-05
2.91498e-05
2.46633e-05
2.06206e-05
1.70525e-05
1.39707e-05
1.14144e-05
9.36638e-06
7.71059e-06
6.35652e-06
5.24641e-06
4.34092e-06
3.60873e-06
3.02094e-06
2.54948e-06
2.16828e-06
1.85443e-06
1.59027e-06
1.3644e-06
1.16929e-06
9.99561e-07
8.51524e-07
7.22141e-07
6.09315e-07
5.10809e-07
4.25433e-07
3.5142e-07
2.88361e-07
2.34038e-07
1.88641e-07
1.49474e-07
1.18106e-07
9.03947e-08
7.0354e-08
5.06561e-08
4.04721e-08
2.65664e-08
2.95265e-08
6.10805e-07
7.61692e-07
0.00690511
0.00792207
0.00789801
0.00763272
0.00717608
0.00679849
0.00600054
0.00520144
0.00462636
0.00437791
0.00432278
0.00433251
0.00437179
0.00445851
0.00456518
0.00470685
0.00493924
0.00511956
0.00543085
0.00574435
0.00608877
0.00657826
0.00692751
0.0073554
0.0077353
0.00802055
0.00828698
0.00831685
0.00826074
0.00809991
0.00771171
0.00718616
0.00669366
0.0062451
0.00584578
0.00567717
0.00554035
0.00553123
0.00559436
0.00576126
0.00604263
0.00638605
0.00636314
0.00622596
0.0059619
0.00544906
0.00475125
0.00409672
0.00386953
0.00391844
0.00418889
0.00437429
0.0043923
0.00421957
0.00399328
0.00403956
0.00439564
0.00488581
0.00508713
0.00656299
0.0126554
0.0378645
0.0526478
0.0433661
0.0148507
0.00448943
0.00103418
0.00048301
0.000381233
0.00034451
0.000317698
0.000301961
0.000284796
0.000277194
0.000269777
0.000266139
0.000265593
0.000269382
0.000274651
0.000285093
0.000297479
0.000315132
0.000336335
0.000360331
0.000386078
0.000415998
0.000447565
0.000475299
0.000499025
0.000521574
0.000541725
0.000558413
0.000573253
0.000587148
0.00059974
0.000609899
0.000617228
0.00062157
0.000623848
0.000624976
0.000623656
0.000614028
0.000602674
0.000588442
0.000566825
0.000540088
0.00051019
0.000472163
0.000429753
0.0003815
0.000332705
0.00028725
0.000249248
0.000220694
0.000196886
0.000178688
0.00016617
0.000158495
0.000154273
0.000152708
0.000153031
0.000156257
0.000160836
0.000165181
0.000167623
0.000168287
0.000167984
0.000165738
0.000157921
0.000145391
0.00013167
0.000117876
0.000105752
9.64356e-05
8.91575e-05
8.22672e-05
7.51351e-05
6.8151e-05
6.18065e-05
5.64054e-05
5.19722e-05
4.83039e-05
4.50646e-05
4.19125e-05
3.86435e-05
3.52e-05
3.15741e-05
2.78289e-05
2.4123e-05
2.05858e-05
1.7308e-05
1.43535e-05
1.17626e-05
9.55187e-06
7.71439e-06
6.22307e-06
5.03689e-06
4.10759e-06
3.38476e-06
2.82263e-06
2.38222e-06
2.03229e-06
1.74835e-06
1.5128e-06
1.31274e-06
1.13986e-06
9.87792e-07
8.52574e-07
7.31971e-07
6.23205e-07
5.27572e-07
4.39434e-07
3.66132e-07
2.94169e-07
2.43099e-07
1.81892e-07
1.54911e-07
9.8182e-08
1.10415e-07
1.12702e-07
0.00215687
0.0042116
0.00515543
0.00568242
0.00538589
0.0046346
0.00409531
0.00404208
0.00408324
0.00419183
0.00436169
0.00469128
0.00516754
0.0056748
0.00623217
0.00688598
0.0076011
0.00842013
0.00931056
0.0101954
0.0110546
0.0118921
0.0126487
0.013406
0.0141177
0.0146674
0.015223
0.0156993
0.0158289
0.0157838
0.0155793
0.0149812
0.0138423
0.012416
0.0105492
0.00869238
0.00735155
0.00646252
0.00597199
0.00578903
0.00564904
0.00563663
0.00569459
0.00582757
0.00581427
0.00572743
0.00551077
0.00515451
0.00498622
0.00492213
0.00487089
0.00488698
0.00493509
0.0048933
0.00458797
0.00444586
0.00439861
0.00449491
0.00589606
0.0162461
0.0330588
0.0374799
0.0282094
0.0102142
0.00312271
0.0009729
0.000445308
0.000377943
0.00036597
0.000362285
0.000370775
0.000393511
0.000420797
0.000461653
0.000508103
0.000565216
0.000614217
0.000672676
0.000705079
0.000746194
0.000786242
0.000815442
0.000841906
0.000857938
0.00086845
0.000873813
0.000874694
0.000874247
0.000872389
0.000869321
0.000866045
0.000862762
0.000858523
0.000851994
0.00084474
0.000837479
0.000829306
0.0008187
0.000807144
0.000797139
0.000787861
0.000777196
0.000767449
0.000759693
0.000751127
0.000743491
0.00073572
0.000726179
0.000713592
0.00069646
0.000668713
0.000627654
0.000570641
0.000499065
0.000420812
0.000341941
0.000272972
0.000222055
0.00018662
0.00016263
0.000148863
0.000142081
0.000139906
0.000140441
0.000146343
0.000157166
0.000167008
0.000173567
0.000176625
0.000177371
0.000176957
0.000174368
0.000165957
0.000152514
0.000138772
0.000126662
0.00011565
0.000104455
9.26555e-05
8.10117e-05
7.05582e-05
6.19149e-05
5.51857e-05
4.99557e-05
4.57678e-05
4.23567e-05
3.94931e-05
3.68202e-05
3.39348e-05
3.06991e-05
2.72127e-05
2.36389e-05
2.01138e-05
1.67808e-05
1.37514e-05
1.10821e-05
8.79166e-06
6.88188e-06
5.34193e-06
4.14479e-06
3.24559e-06
2.58499e-06
2.10177e-06
1.74438e-06
1.47453e-06
1.26381e-06
1.09392e-06
9.51891e-07
8.30444e-07
7.2378e-07
6.29706e-07
5.44056e-07
4.68269e-07
3.97509e-07
3.36079e-07
2.78365e-07
2.29933e-07
1.84093e-07
1.47909e-07
1.15126e-07
0.00218293
0.00330567
0.00340494
0.00338367
0.00342949
0.00355073
0.00381575
0.00418573
0.00467196
0.0051752
0.00576872
0.00631223
0.00683819
0.00738346
0.00807536
0.00886458
0.00969548
0.0105273
0.0113383
0.0121116
0.0128962
0.0136816
0.0144474
0.0151864
0.0158815
0.0165196
0.0171328
0.0176998
0.0181134
0.0183358
0.0184115
0.0184021
0.0182468
0.0176962
0.0163994
0.0146179
0.0124392
0.010117
0.00813319
0.00682233
0.00609729
0.00576384
0.00563478
0.00543786
0.00534582
0.00533491
0.00529981
0.00520342
0.00504054
0.00494911
0.00494957
0.00499142
0.00504226
0.00502495
0.00479228
0.00427435
0.00425694
0.00488731
0.012942
0.0265346
0.0297747
0.0199485
0.00754051
0.00255828
0.000888302
0.000478595
0.00041436
0.000411895
0.000463823
0.000546478
0.000661109
0.000807076
0.000905958
0.000996166
0.00103308
0.00104886
0.00105349
0.00105569
0.00105629
0.0010445
0.00102055
0.00100037
0.000990846
0.000974839
0.000944204
0.000910911
0.000884787
0.000862623
0.000842015
0.000820758
0.000801092
0.000783585
0.000767214
0.00074656
0.000726728
0.000708035
0.000690457
0.000673389
0.000657645
0.000645006
0.00063438
0.000624877
0.000617199
0.000609999
0.000606344
0.000609911
0.000622601
0.000645877
0.00067901
0.000706685
0.000718508
0.000720856
0.000713015
0.000694363
0.000666558
0.00062548
0.000563507
0.000479195
0.000382463
0.000291263
0.000221121
0.000177096
0.000150617
0.000137363
0.000131935
0.00013077
0.000132515
0.000142488
0.000157379
0.000168602
0.000174549
0.000176394
0.000176189
0.000173282
0.000161987
0.000145534
0.000132195
0.000121965
0.000113138
0.000104142
9.45728e-05
8.51048e-05
7.66431e-05
6.98333e-05
6.46162e-05
6.03899e-05
5.66297e-05
5.32955e-05
5.06054e-05
4.84174e-05
4.6165e-05
4.32879e-05
3.96093e-05
3.52566e-05
3.04138e-05
2.52252e-05
1.99288e-05
1.4942e-05
1.06904e-05
7.39894e-06
5.0767e-06
3.54978e-06
2.58288e-06
1.97235e-06
1.57452e-06
1.29967e-06
1.09429e-06
9.31144e-07
7.95835e-07
6.82476e-07
5.86409e-07
5.04895e-07
4.35419e-07
3.74326e-07
3.21674e-07
2.72704e-07
2.31255e-07
1.90989e-07
1.59083e-07
1.27157e-07
0.00188298
0.00223178
0.00253529
0.0031677
0.00376301
0.00443835
0.00499071
0.00531961
0.0055832
0.00594579
0.00642922
0.00688694
0.00730396
0.0079347
0.0087304
0.00954368
0.0103091
0.0109851
0.0115692
0.0120581
0.0124688
0.0128398
0.0132299
0.0136628
0.0141319
0.0146037
0.015051
0.0154978
0.015947
0.0163679
0.0167417
0.0169978
0.0170997
0.0168425
0.0161846
0.0152463
0.0140583
0.0125961
0.0108803
0.00917028
0.00770551
0.00664777
0.00602266
0.00560688
0.0053445
0.00516844
0.00508983
0.00507485
0.00503099
0.00495336
0.00492501
0.00492826
0.00487149
0.00447853
0.00407587
0.00407601
0.00445
0.00877866
0.020706
0.0244615
0.0162385
0.00621421
0.00221713
0.000876659
0.000518888
0.000467666
0.000488165
0.000627955
0.000893137
0.00116243
0.00127996
0.00132085
0.00132307
0.00125711
0.00122971
0.00115369
0.00111454
0.0010664
0.0010185
0.000985271
0.000909256
0.000821511
0.000768577
0.000727797
0.000672513
0.000646992
0.000631949
0.000603869
0.000583294
0.000572039
0.000550855
0.000538646
0.000532476
0.000524508
0.000522402
0.000523133
0.000527814
0.000536026
0.000545736
0.000555534
0.000561102
0.000561979
0.000554144
0.000529319
0.000496373
0.000459354
0.000424723
0.000397592
0.000379275
0.000389463
0.000436746
0.000506255
0.000581474
0.000640648
0.000664247
0.00066559
0.000649876
0.000618403
0.0005775
0.000518357
0.000433931
0.000331193
0.000240517
0.000182498
0.000149215
0.000132456
0.0001255
0.000123657
0.000124692
0.000133194
0.000150401
0.000163207
0.000169821
0.000171632
0.000171129
0.000166589
0.000150856
0.000133303
0.000120882
0.000112026
0.000104479
9.66666e-05
8.82634e-05
8.00363e-05
7.30872e-05
6.79893e-05
6.44451e-05
6.16567e-05
5.89798e-05
5.62831e-05
5.37918e-05
5.16588e-05
4.96914e-05
4.74245e-05
4.4385e-05
4.03136e-05
3.52611e-05
2.95883e-05
2.38732e-05
1.86755e-05
1.428e-05
1.07292e-05
7.93681e-06
5.80094e-06
4.25459e-06
3.22096e-06
2.5145e-06
1.95632e-06
1.49723e-06
1.13401e-06
8.59111e-07
6.57379e-07
5.11966e-07
4.06952e-07
3.30778e-07
2.72949e-07
2.2773e-07
1.89734e-07
1.57132e-07
1.2924e-07
0.00124691
0.00251732
0.00358219
0.00456853
0.00488078
0.00512049
0.00535464
0.00554086
0.00577848
0.0062213
0.00676166
0.00701928
0.00706608
0.00705152
0.00703179
0.0070257
0.00703147
0.00704955
0.00704969
0.00704989
0.00708453
0.00714014
0.00722233
0.00733058
0.00744227
0.00757008
0.00770681
0.00786793
0.00804851
0.00825607
0.00851172
0.00883745
0.00920252
0.00959346
0.00990904
0.010092
0.0100653
0.00976226
0.00916781
0.00837553
0.00751977
0.00671766
0.00605312
0.00558143
0.00522704
0.00496656
0.00484565
0.00481508
0.00479556
0.00471552
0.00462823
0.00447625
0.00411952
0.00394621
0.00399117
0.00450036
0.00768368
0.0163499
0.020147
0.0158881
0.00590348
0.00215166
0.000896895
0.000566183
0.000518691
0.000571436
0.000805988
0.00125123
0.00150683
0.00161127
0.00163972
0.00151743
0.00138534
0.00130657
0.00118732
0.00107295
0.000955973
0.000841257
0.000743641
0.000698793
0.000640747
0.000618738
0.000613882
0.000615372
0.000635072
0.000670313
0.000689117
0.000697032
0.000683805
0.000672345
0.000643404
0.00062291
0.000618734
0.000618649
0.000625724
0.000647401
0.000691619
0.0007535
0.000827222
0.000903779
0.000968556
0.00100807
0.00101906
0.00096368
0.000856461
0.00071558
0.000575251
0.000449186
0.000354076
0.000290123
0.000251376
0.000230401
0.000231792
0.000271367
0.000358134
0.000455037
0.000537447
0.000577789
0.0005826
0.000565879
0.000529808
0.000483846
0.000414127
0.000317652
0.000227436
0.000171268
0.000140058
0.00012471
0.000118544
0.000117165
0.000118721
0.000128529
0.000145508
0.000156629
0.000161398
0.000162055
0.000160396
0.000150873
0.0001313
0.000116946
0.000107736
0.000101182
9.50496e-05
8.82266e-05
8.07918e-05
7.3702e-05
6.80895e-05
6.43789e-05
6.19803e-05
5.98304e-05
5.72386e-05
5.42836e-05
5.15306e-05
4.9403e-05
4.77554e-05
4.5973e-05
4.34097e-05
3.9766e-05
3.51767e-05
3.00565e-05
2.4882e-05
2.00431e-05
1.57851e-05
1.22206e-05
9.35979e-06
7.13943e-06
5.43644e-06
4.09932e-06
3.02514e-06
2.17957e-06
1.53956e-06
1.0741e-06
7.4748e-07
5.24902e-07
3.762e-07
2.7859e-07
2.12873e-07
1.69816e-07
1.36726e-07
1.15484e-07
0.00225162
0.00378172
0.00453225
0.00492807
0.00509687
0.00531066
0.00546548
0.00555703
0.00560761
0.005697
0.00576397
0.00578614
0.00579168
0.00578897
0.00577142
0.00574424
0.00571724
0.00569556
0.00568096
0.00567314
0.00566996
0.00567916
0.00570555
0.00574003
0.00575888
0.00578186
0.00579311
0.00579685
0.00578675
0.00576033
0.00571753
0.00565948
0.00560247
0.00553826
0.00548157
0.00544705
0.00546417
0.00551987
0.00559156
0.00563645
0.00556951
0.0053976
0.00514928
0.00488215
0.00466461
0.00450776
0.00435151
0.00426017
0.00423045
0.00418181
0.00402831
0.00381129
0.00378259
0.00398566
0.00524579
0.00915583
0.0141567
0.0167527
0.0161974
0.0063626
0.00228498
0.000962987
0.000609685
0.000560193
0.000621458
0.00096749
0.0016562
0.00193761
0.00200606
0.00198201
0.0017247
0.00147364
0.00134365
0.00117886
0.00094738
0.00084668
0.000791284
0.00076417
0.000754016
0.000756929
0.000819141
0.000945451
0.0011262
0.00136733
0.00167615
0.00199275
0.00215136
0.00221362
0.002144
0.00201905
0.00189415
0.00165732
0.00155765
0.00149145
0.00146929
0.00148197
0.00157371
0.00172018
0.00190499
0.0020869
0.00223546
0.00232084
0.00231769
0.00218585
0.00199285
0.00174637
0.00143789
0.00110109
0.000774479
0.000508525
0.000339096
0.000235006
0.000178912
0.00015036
0.000137854
0.000143913
0.000183236
0.000267039
0.000362007
0.00044109
0.000481816
0.000486934
0.000468093
0.000422808
0.000358879
0.000269937
0.000194335
0.00015015
0.000126487
0.000115457
0.000111561
0.000111312
0.000114225
0.000126294
0.000139476
0.000146494
0.000148508
0.000148121
0.000143707
0.000127434
0.000111185
0.000101718
9.60941e-05
9.1428e-05
8.61309e-05
7.99697e-05
7.35194e-05
6.77136e-05
6.3408e-05
6.07641e-05
5.90202e-05
5.70544e-05
5.43703e-05
5.13027e-05
4.85177e-05
4.6427e-05
4.49304e-05
4.3409e-05
4.12346e-05
3.8113e-05
3.4133e-05
2.96252e-05
2.49808e-05
2.05317e-05
1.65042e-05
1.30231e-05
1.01251e-05
7.76947e-06
5.85697e-06
4.29955e-06
3.05965e-06
2.11316e-06
1.42124e-06
9.37439e-07
6.10446e-07
3.98854e-07
2.64072e-07
1.83438e-07
1.30226e-07
1.00704e-07
0.00266053
0.00419935
0.00483164
0.00506979
0.00525135
0.00538871
0.00544752
0.00547536
0.00548764
0.00549293
0.00549168
0.00546761
0.00544372
0.00542256
0.00539344
0.00536585
0.00533686
0.00530234
0.00526769
0.00523749
0.00522212
0.00521746
0.005251
0.00528919
0.00532663
0.00538512
0.0054424
0.00548964
0.00552674
0.00554425
0.00553179
0.00549301
0.00540593
0.0052605
0.00504619
0.00475093
0.00445076
0.00421231
0.00400983
0.00387789
0.00381873
0.0038165
0.00382022
0.00381335
0.00382201
0.00383746
0.00384272
0.00382744
0.00371932
0.00356556
0.00354338
0.00368224
0.00462088
0.00779435
0.0109378
0.0134302
0.0147896
0.0150452
0.00718832
0.00259925
0.00107792
0.000662191
0.00059169
0.000650388
0.000990306
0.00161446
0.00210303
0.00226883
0.00230051
0.00216935
0.00169776
0.00135319
0.00119793
0.000994308
0.000896018
0.000865509
0.000862068
0.000948446
0.00114555
0.00151673
0.00214956
0.00305825
0.00421105
0.00556718
0.00693997
0.00793654
0.0084137
0.00855452
0.0080453
0.00726875
0.00666048
0.00551118
0.00482387
0.00422613
0.00380454
0.0035823
0.00350388
0.00356297
0.0037267
0.00379592
0.00367283
0.003343
0.00297996
0.00266242
0.00242637
0.00223658
0.00203934
0.0018031
0.0015196
0.00118835
0.000833847
0.000530802
0.000314012
0.000194185
0.000131928
0.000102674
8.96303e-05
8.73645e-05
9.93473e-05
0.000138434
0.000211947
0.000303578
0.000378139
0.00040483
0.000398601
0.000357504
0.000288831
0.00021136
0.000157791
0.000128089
0.000113124
0.000106874
0.000105396
0.00010609
0.000111015
0.000122159
0.000129721
0.000132852
0.000133142
0.000131573
0.000122618
0.000105687
9.50206e-05
8.96105e-05
8.64919e-05
8.30274e-05
7.80597e-05
7.22912e-05
6.67525e-05
6.22127e-05
5.91479e-05
5.74315e-05
5.60525e-05
5.39753e-05
5.11202e-05
4.80935e-05
4.54326e-05
4.3432e-05
4.20348e-05
4.07438e-05
3.8961e-05
3.63558e-05
3.29531e-05
2.89883e-05
2.47683e-05
2.0586e-05
1.66763e-05
1.31983e-05
1.02205e-05
7.72726e-06
5.67019e-06
4.02153e-06
2.75563e-06
1.82792e-06
1.17691e-06
7.40094e-07
4.5571e-07
2.8058e-07
1.74296e-07
1.12743e-07
0.00287771
0.00446893
0.00498693
0.00518894
0.005325
0.0053843
0.00541019
0.00541609
0.00540615
0.00537153
0.00532494
0.00525842
0.00517901
0.00508564
0.00496228
0.00480909
0.00462171
0.00440509
0.00418038
0.00396823
0.00378903
0.00369548
0.00365135
0.00363644
0.00370056
0.00383265
0.00403434
0.00428165
0.00461228
0.00493717
0.00522023
0.00541702
0.00557144
0.00565905
0.00569373
0.00563247
0.0054038
0.00495422
0.00437912
0.0038778
0.0036207
0.00350405
0.00348441
0.00347644
0.003468
0.00343417
0.00335588
0.0032897
0.00325179
0.00336531
0.004155
0.00747623
0.0111976
0.0126875
0.0132465
0.0136885
0.0136508
0.00851249
0.00303765
0.00123008
0.000704279
0.000598146
0.000630715
0.000903349
0.00177153
0.00265884
0.00292164
0.00294481
0.0027524
0.0022783
0.0017051
0.00135526
0.00118504
0.00103167
0.000990433
0.00106244
0.00132094
0.00186431
0.00285956
0.00451384
0.00709835
0.0107228
0.0151532
0.0196909
0.0231717
0.0248072
0.025372
0.0244852
0.0228545
0.0200839
0.0175219
0.0148144
0.0123808
0.0103589
0.0087673
0.00752751
0.00661222
0.00590279
0.00531645
0.00479406
0.00426007
0.00370159
0.00315207
0.00272497
0.00242655
0.00223735
0.00208356
0.00190659
0.0016923
0.00145412
0.00120488
0.000950916
0.000691125
0.0004416
0.00025486
0.000147651
9.46719e-05
7.14427e-05
6.13729e-05
5.87739e-05
6.31833e-05
8.15758e-05
0.00013158
0.00022693
0.000310141
0.000339569
0.000332978
0.000288387
0.000217187
0.000160383
0.000127668
0.000110487
0.000102631
0.000100082
9.99999e-05
0.000101442
0.000107529
0.000114551
0.000118286
0.000119209
0.000118644
0.000114438
0.000101106
8.98803e-05
8.40834e-05
8.14153e-05
7.91372e-05
7.55415e-05
7.05299e-05
6.52441e-05
6.07747e-05
5.75118e-05
5.56007e-05
5.44772e-05
5.30444e-05
5.07352e-05
4.7834e-05
4.49122e-05
4.23555e-05
4.04104e-05
3.91394e-05
3.81682e-05
3.68554e-05
3.47304e-05
3.1725e-05
2.80297e-05
2.39478e-05
1.98064e-05
1.58901e-05
1.23905e-05
9.38734e-06
6.88591e-06
4.87436e-06
3.32834e-06
2.19381e-06
1.39932e-06
8.65087e-07
5.19973e-07
3.07147e-07
1.75594e-07
0.00332887
0.00476345
0.00510189
0.00523883
0.00530858
0.00533313
0.00533185
0.00528768
0.00520435
0.00506173
0.00485804
0.00456162
0.00412446
0.00364282
0.00326472
0.00283588
0.00257398
0.00232978
0.00220775
0.00214419
0.00210995
0.00207281
0.00202968
0.00196523
0.00190499
0.00182715
0.00176737
0.00174367
0.00181441
0.00199109
0.00237274
0.00294554
0.00362313
0.00438437
0.00514907
0.00565161
0.00588573
0.00597076
0.00581814
0.00539156
0.00463855
0.0041064
0.00390042
0.00380982
0.00382599
0.0038767
0.00389956
0.00399755
0.0045804
0.00748434
0.0114882
0.0134119
0.0136828
0.0133939
0.0131924
0.0126601
0.00883827
0.00354446
0.00143642
0.000762862
0.000608665
0.000608682
0.000769714
0.0013629
0.00223196
0.00321498
0.0035901
0.00365027
0.0034026
0.0025283
0.00177835
0.00145028
0.00129923
0.00123918
0.00134772
0.00177344
0.00273657
0.00451038
0.0076414
0.0127499
0.020646
0.0318663
0.042674
0.048656
0.0515219
0.0523567
0.0504154
0.0457491
0.0390182
0.0314564
0.024949
0.0197805
0.0160432
0.0132841
0.0111446
0.00939637
0.00790531
0.00666919
0.00573789
0.00501584
0.00439004
0.00377167
0.00314151
0.00247036
0.0018979
0.00166536
0.00164226
0.00165117
0.00160768
0.00145239
0.00124938
0.00103878
0.00084317
0.000657361
0.000476852
0.000303851
0.000170485
9.80095e-05
6.4309e-05
5.02377e-05
4.45296e-05
4.38453e-05
4.75382e-05
6.22215e-05
0.000112037
0.000215268
0.000278965
0.000290733
0.000273961
0.000214946
0.000158193
0.000124959
0.000107131
9.85805e-05
9.53868e-05
9.48716e-05
9.53045e-05
9.79245e-05
0.000103734
0.000107606
0.000108953
0.000108744
0.000106246
9.63986e-05
8.55669e-05
7.9591e-05
7.70163e-05
7.53325e-05
7.2602e-05
6.83275e-05
6.34153e-05
5.9039e-05
5.58146e-05
5.36673e-05
5.24467e-05
5.16028e-05
5.00438e-05
4.73494e-05
4.42626e-05
4.15366e-05
3.93359e-05
3.761e-05
3.64599e-05
3.57623e-05
3.48737e-05
3.30024e-05
3.00161e-05
2.62385e-05
2.20573e-05
1.78725e-05
1.39986e-05
1.06113e-05
7.77218e-06
5.48807e-06
3.7351e-06
2.45172e-06
1.55569e-06
9.52386e-07
5.7085e-07
3.20317e-07
0.00344024
0.0048115
0.00511604
0.00521544
0.00524366
0.00522093
0.00512168
0.00491341
0.00453661
0.0038872
0.00335986
0.00284813
0.00252668
0.00235128
0.00219945
0.00211567
0.00206492
0.00204864
0.00204933
0.00209611
0.00216379
0.00219841
0.00220894
0.00214774
0.00203628
0.00185046
0.00161838
0.00142541
0.00122302
0.00107118
0.000997286
0.000949343
0.00104563
0.00127827
0.00175274
0.00269434
0.00399927
0.00529698
0.00586576
0.00600749
0.00597164