/*--------------------------------*- C++ -*----------------------------------*\
  =========                 |
  \\      /  F ield         | OpenFOAM: The Open Source CFD Toolbox
   \\    /   O peration     | Website:  https://openfoam.org
    \\  /    A nd           | Version:  7
     \\/     M anipulation  |
\*---------------------------------------------------------------------------*/
FoamFile
{
    version     2.0;
    format      ascii;
    class       surfaceScalarField;
    location    "0.079";
    object      phi;
}
// * * * * * * * * * * * * * * * * * * * * * * * * * * * * * * * * * * * * * //

dimensions      [0 3 -1 0 0 0 0];

internalField   nonuniform List<scalar> 
24170
(
1.4141e-06
1.94023e-07
1.2604e-06
1.53699e-07
1.1196e-06
1.40796e-07
1.00243e-06
1.17172e-07
8.98106e-07
1.04323e-07
7.99749e-07
9.83572e-08
7.05859e-07
9.38905e-08
6.16918e-07
8.89409e-08
5.34506e-07
8.24119e-08
4.61017e-07
7.34887e-08
3.98362e-07
6.26551e-08
3.46629e-07
5.17331e-08
3.04228e-07
4.24005e-08
2.68818e-07
3.54102e-08
2.36845e-07
3.19729e-08
2.06109e-07
3.07362e-08
1.70761e-07
3.53479e-08
3.04623e-08
1.40299e-07
1.66871e-06
2.81805e-07
1.64295e-06
1.79459e-07
1.61747e-06
1.66273e-07
1.58385e-06
1.50796e-07
1.54421e-06
1.43956e-07
1.50063e-06
1.41939e-07
1.4539e-06
1.40621e-07
1.40453e-06
1.38308e-07
1.35383e-06
1.33112e-07
1.3034e-06
1.23919e-07
1.25474e-06
1.11323e-07
1.20871e-06
9.77641e-08
1.16538e-06
8.57257e-08
1.12365e-06
7.71371e-08
1.08212e-06
7.35063e-08
1.03814e-06
7.47207e-08
9.91109e-07
8.23736e-08
9.04645e-08
9.31107e-07
1.7804e-06
3.35188e-07
1.77161e-06
1.88247e-07
1.74847e-06
1.89417e-07
1.72536e-06
1.73904e-07
1.71419e-06
1.5513e-07
1.70987e-06
1.46253e-07
1.70528e-06
1.45218e-07
1.69722e-06
1.46362e-07
1.68537e-06
1.44967e-07
1.67052e-06
1.38765e-07
1.65336e-06
1.28483e-07
1.63475e-06
1.1638e-07
1.61532e-06
1.05152e-07
1.5958e-06
9.6659e-08
1.57615e-06
9.31516e-08
1.55615e-06
9.47213e-08
1.5342e-06
1.04329e-07
1.17084e-07
1.50758e-06
1.95126e-06
3.51438e-07
1.90319e-06
2.36324e-07
1.86969e-06
2.22913e-07
1.84027e-06
2.03323e-07
1.82274e-06
1.72662e-07
1.82012e-06
1.48872e-07
1.82809e-06
1.37254e-07
1.84009e-06
1.34359e-07
1.85026e-06
1.34799e-07
1.85486e-06
1.34162e-07
1.85282e-06
1.3052e-07
1.84555e-06
1.23652e-07
1.83552e-06
1.15186e-07
1.82499e-06
1.07186e-07
1.81533e-06
1.02807e-07
1.80664e-06
1.03415e-07
1.79939e-06
1.11579e-07
1.24772e-07
1.7917e-06
2.06696e-06
3.76908e-07
2.0535e-06
2.49782e-07
2.04746e-06
2.28951e-07
2.0348e-06
2.15981e-07
2.01659e-06
1.90873e-07
2.00013e-06
1.65339e-07
1.9898e-06
1.47584e-07
1.98628e-06
1.37878e-07
1.98812e-06
1.32959e-07
1.99281e-06
1.29472e-07
1.99768e-06
1.2565e-07
2.00046e-06
1.20871e-07
1.99986e-06
1.15781e-07
1.99533e-06
1.11723e-07
1.98773e-06
1.10402e-07
1.97831e-06
1.12839e-07
1.96991e-06
1.19974e-07
1.31311e-07
1.96337e-06
2.21786e-06
3.88613e-07
2.18721e-06
2.80436e-07
2.16849e-06
2.4767e-07
2.15907e-06
2.25401e-07
2.15247e-06
1.97467e-07
2.14803e-06
1.69784e-07
2.14698e-06
1.48635e-07
2.14952e-06
1.35332e-07
2.15481e-06
1.27669e-07
2.16102e-06
1.2327e-07
2.16588e-06
1.20784e-07
2.16729e-06
1.19461e-07
2.16421e-06
1.18863e-07
2.15666e-06
1.19274e-07
2.1461e-06
1.20961e-07
2.13437e-06
1.24573e-07
2.12395e-06
1.30393e-07
1.38993e-07
2.11626e-06
2.4272e-06
3.82535e-07
2.41002e-06
2.97615e-07
2.37905e-06
2.78636e-07
2.35119e-06
2.53271e-07
2.33173e-06
2.16925e-07
2.32523e-06
1.76285e-07
2.32986e-06
1.44006e-07
2.3392e-06
1.25986e-07
2.347e-06
1.19869e-07
2.34976e-06
1.20511e-07
2.34712e-06
1.23428e-07
2.34065e-06
1.25932e-07
2.33251e-06
1.27001e-07
2.32446e-06
1.27321e-07
2.31742e-06
1.28004e-07
2.31172e-06
1.30273e-07
2.30744e-06
1.34669e-07
1.41713e-07
2.30472e-06
2.56456e-06
4.04997e-07
2.54361e-06
3.18565e-07
2.5375e-06
2.84748e-07
2.53699e-06
2.53781e-07
2.53297e-06
2.20948e-07
2.52323e-06
1.86017e-07
2.5115e-06
1.55743e-07
2.50207e-06
1.35414e-07
2.4962e-06
1.25743e-07
2.49278e-06
1.23926e-07
2.49058e-06
1.25627e-07
2.48929e-06
1.27221e-07
2.48927e-06
1.27024e-07
2.491e-06
1.25585e-07
2.4946e-06
1.24411e-07
2.49978e-06
1.25089e-07
2.50631e-06
1.28141e-07
1.3435e-07
2.51367e-06
2.84636e-06
5.13483e-07
2.77031e-06
3.94617e-07
2.73165e-06
3.23411e-07
2.71398e-06
2.71449e-07
2.70625e-06
2.28678e-07
2.69923e-06
1.93032e-07
2.69027e-06
1.64706e-07
2.68149e-06
1.442e-07
2.67579e-06
1.31441e-07
2.67452e-06
1.25198e-07
2.67701e-06
1.23131e-07
2.68147e-06
1.22759e-07
2.68625e-06
1.2225e-07
2.6905e-06
1.21336e-07
2.69448e-06
1.20428e-07
2.69878e-06
1.20794e-07
2.70445e-06
1.22465e-07
1.26684e-07
2.71212e-06
2.9179e-06
4.53922e-07
2.9178e-06
3.94716e-07
2.91929e-06
3.21927e-07
2.92509e-06
2.65647e-07
2.92573e-06
2.28036e-07
2.92039e-06
1.98373e-07
2.91359e-06
1.71508e-07
2.90897e-06
1.48816e-07
2.9067e-06
1.33714e-07
2.90474e-06
1.27159e-07
2.90126e-06
1.26607e-07
2.89597e-06
1.28051e-07
2.89013e-06
1.28096e-07
2.88584e-06
1.25624e-07
2.88514e-06
1.21121e-07
2.88901e-06
1.16932e-07
2.89777e-06
1.137e-07
1.14117e-07
2.91034e-06
3.15277e-06
3.73957e-07
3.15514e-06
3.92341e-07
3.14645e-06
3.30617e-07
3.13344e-06
2.78664e-07
3.12154e-06
2.39936e-07
3.11763e-06
2.02284e-07
3.12277e-06
1.66361e-07
3.1316e-06
1.39985e-07
3.13714e-06
1.28182e-07
3.13518e-06
1.29111e-07
3.12597e-06
1.35819e-07
3.11305e-06
1.40976e-07
3.10098e-06
1.40169e-07
3.09331e-06
1.33284e-07
3.09203e-06
1.22401e-07
3.09733e-06
1.11633e-07
3.10869e-06
1.02343e-07
9.76723e-08
3.12513e-06
2.85525e-06
3.79196e-07
2.8756e-06
3.71988e-07
2.87056e-06
3.35659e-07
2.8487e-06
3.00528e-07
2.82506e-06
2.63572e-07
2.80824e-06
2.19108e-07
2.8011e-06
1.73494e-07
2.80321e-06
1.3788e-07
2.81152e-06
1.19866e-07
2.82171e-06
1.18921e-07
2.83004e-06
1.27488e-07
2.83455e-06
1.36468e-07
2.83513e-06
1.39585e-07
2.83281e-06
1.35608e-07
2.82935e-06
1.25865e-07
2.82669e-06
1.14295e-07
2.82652e-06
1.02506e-07
9.37453e-08
2.83045e-06
3.44942e-06
3.60593e-07
3.45543e-06
3.65975e-07
3.44576e-06
3.4533e-07
3.4487e-06
2.97585e-07
3.46023e-06
2.52043e-07
3.46782e-06
2.1152e-07
3.46805e-06
1.73259e-07
3.46529e-06
1.40644e-07
3.46473e-06
1.20429e-07
3.46845e-06
1.15201e-07
3.47496e-06
1.20973e-07
3.48122e-06
1.30208e-07
3.48487e-06
1.35937e-07
3.48555e-06
1.34925e-07
3.48454e-06
1.26876e-07
3.48395e-06
1.14889e-07
3.48548e-06
1.00971e-07
8.90086e-08
3.49022e-06
4.20126e-06
3.23793e-07
4.19917e-06
3.68063e-07
4.21252e-06
3.31984e-07
4.22338e-06
2.86728e-07
4.22463e-06
2.50787e-07
4.21835e-06
2.17805e-07
4.209e-06
1.82606e-07
4.19864e-06
1.51003e-07
4.18803e-06
1.3104e-07
4.17855e-06
1.2468e-07
4.17228e-06
1.2724e-07
4.17116e-06
1.3133e-07
4.17622e-06
1.30875e-07
4.18769e-06
1.2346e-07
4.20461e-06
1.09958e-07
4.22547e-06
9.40205e-08
4.24833e-06
7.81122e-08
6.60658e-08
4.27128e-06
5.14971e-06
3.93927e-07
5.15113e-06
3.6665e-07
5.13818e-06
3.4493e-07
5.11131e-06
3.13597e-07
5.09385e-06
2.68244e-07
5.09027e-06
2.21386e-07
5.09176e-06
1.81119e-07
5.09142e-06
1.51341e-07
5.09014e-06
1.32321e-07
5.09303e-06
1.21787e-07
5.10403e-06
1.16243e-07
5.12333e-06
1.12034e-07
5.14828e-06
1.05927e-07
5.17538e-06
9.63608e-08
5.20199e-06
8.33477e-08
5.22683e-06
6.9176e-08
5.24972e-06
5.52258e-08
4.43665e-08
5.27142e-06
6.16607e-06
3.19301e-07
6.26007e-06
2.72649e-07
6.28453e-06
3.20465e-07
6.27608e-06
3.22051e-07
6.26542e-06
2.78902e-07
6.26092e-06
2.25891e-07
6.26216e-06
1.7988e-07
6.26893e-06
1.44562e-07
6.28286e-06
1.18393e-07
6.30396e-06
1.0069e-07
6.32906e-06
9.11476e-08
6.35313e-06
8.79563e-08
6.37181e-06
8.72463e-08
6.38305e-06
8.51287e-08
6.38755e-06
7.8844e-08
6.38803e-06
6.86988e-08
6.38768e-06
5.55767e-08
4.24751e-08
6.38957e-06
7.74589e-06
4.90345e-07
7.59112e-06
4.27424e-07
7.54598e-06
3.656e-07
7.56035e-06
3.07689e-07
7.5928e-06
2.46451e-07
7.62439e-06
1.94301e-07
7.64478e-06
1.59484e-07
7.65394e-06
1.35405e-07
7.65836e-06
1.13977e-07
7.66579e-06
9.32556e-08
7.68122e-06
7.57149e-08
7.70564e-06
6.35407e-08
7.73677e-06
5.61161e-08
7.77085e-06
5.10502e-08
7.80391e-06
4.57828e-08
7.83333e-06
3.92734e-08
7.85751e-06
3.1399e-08
2.32226e-08
7.87676e-06
9.41885e-06
7.4233e-07
9.29577e-06
5.50502e-07
9.28851e-06
3.72855e-07
9.32752e-06
2.68681e-07
9.37601e-06
1.9796e-07
9.41687e-06
1.53445e-07
9.4423e-06
1.34048e-07
9.45025e-06
1.27464e-07
9.44605e-06
1.18168e-07
9.43976e-06
9.95531e-08
9.4408e-06
7.46713e-08
9.45406e-06
5.02824e-08
9.47892e-06
3.12568e-08
9.51067e-06
1.93013e-08
9.54314e-06
1.33116e-08
9.57141e-06
1.09986e-08
9.59264e-06
1.01719e-08
8.8843e-09
9.60698e-06
1.1226e-05
5.97546e-07
1.13222e-05
4.54335e-07
1.13424e-05
3.5266e-07
1.13329e-05
2.78171e-07
1.13247e-05
2.06181e-07
1.13386e-05
1.39498e-07
1.13827e-05
8.99397e-08
1.14482e-05
6.19896e-08
1.15166e-05
4.97762e-08
1.15721e-05
4.41056e-08
1.16079e-05
3.88016e-08
1.16262e-05
3.20428e-08
1.16329e-05
2.44963e-08
1.16344e-05
1.78031e-08
1.16351e-05
1.26598e-08
1.16373e-05
8.72975e-09
1.16425e-05
5.0566e-09
1.14205e-10
1.16512e-05
8.20383e-06
5.04654e-07
8.31912e-06
3.39046e-07
8.38615e-06
2.85639e-07
8.42822e-06
2.36098e-07
8.44575e-06
1.88646e-07
8.44849e-06
1.36759e-07
8.45263e-06
8.58061e-08
8.46665e-06
4.79685e-08
8.48911e-06
2.73117e-08
8.51431e-06
1.89081e-08
8.53713e-06
1.59811e-08
8.55444e-06
1.47328e-08
8.56572e-06
1.32117e-08
8.57252e-06
1.10095e-08
8.57738e-06
7.79982e-09
8.58294e-06
3.1655e-09
8.59048e-06
-2.48103e-09
-9.74728e-09
8.60034e-06
7.11698e-06
4.02705e-07
7.2098e-06
2.46228e-07
7.30021e-06
1.95231e-07
7.36701e-06
1.69294e-07
7.41336e-06
1.42294e-07
7.44036e-06
1.0976e-07
7.44664e-06
7.95313e-08
7.43775e-06
5.68598e-08
7.42582e-06
3.92351e-08
7.42225e-06
2.24806e-08
7.43221e-06
6.02297e-09
7.45651e-06
-9.56648e-09
7.48826e-06
-1.85431e-08
7.52074e-06
-2.14647e-08
7.54906e-06
-2.0521e-08
7.57091e-06
-1.86863e-08
7.58638e-06
-1.79567e-08
-1.98848e-08
7.59652e-06
6.30886e-06
3.5621e-07
6.32763e-06
2.27458e-07
6.38157e-06
1.41293e-07
6.45513e-06
9.57342e-08
6.52145e-06
7.59799e-08
6.55906e-06
7.21413e-08
6.56453e-06
7.40688e-08
6.54984e-06
7.15454e-08
6.53006e-06
5.90175e-08
6.51581e-06
3.67297e-08
6.51254e-06
9.29036e-09
6.51767e-06
-1.46899e-08
6.53152e-06
-3.24006e-08
6.55164e-06
-4.15842e-08
6.57466e-06
-4.3539e-08
6.59728e-06
-4.13096e-08
6.61667e-06
-3.73431e-08
-3.38149e-08
6.6306e-06
5.5569e-06
3.06527e-07
5.58236e-06
2.01996e-07
5.62258e-06
1.01072e-07
5.65168e-06
6.66424e-08
5.66059e-06
6.70649e-08
5.66116e-06
7.15679e-08
5.66895e-06
6.62843e-08
5.69027e-06
5.02251e-08
5.72058e-06
2.87091e-08
5.74994e-06
7.3675e-09
5.77193e-06
-1.27001e-08
5.78562e-06
-2.83831e-08
5.79319e-06
-3.99672e-08
5.7992e-06
-4.75991e-08
5.80715e-06
-5.14874e-08
5.81827e-06
-5.2428e-08
5.83201e-06
-5.10831e-08
-4.79061e-08
5.8461e-06
4.8529e-06
2.72831e-07
4.89966e-06
1.5524e-07
4.92727e-06
7.34631e-08
4.93339e-06
6.0523e-08
4.93272e-06
6.77261e-08
4.94838e-06
5.59094e-08
4.98425e-06
3.04125e-08
5.02869e-06
5.78938e-09
5.06543e-06
-8.02589e-09
5.08779e-06
-1.49986e-08
5.09394e-06
-1.88457e-08
5.08824e-06
-2.26826e-08
5.07636e-06
-2.8095e-08
5.06403e-06
-3.52618e-08
5.05531e-06
-4.2774e-08
5.05193e-06
-4.90451e-08
5.05394e-06
-5.30894e-08
-5.38688e-08
5.0599e-06
4.21671e-06
3.32409e-07
4.24003e-06
1.31919e-07
4.27636e-06
3.71275e-08
4.312e-06
2.48813e-08
4.35348e-06
2.62542e-08
4.39284e-06
1.6543e-08
4.42196e-06
1.29765e-09
4.44192e-06
-1.41691e-08
4.45519e-06
-2.12974e-08
4.46303e-06
-2.28463e-08
4.46663e-06
-2.24372e-08
4.46705e-06
-2.3105e-08
4.4654e-06
-2.64511e-08
4.4626e-06
-3.24541e-08
4.45963e-06
-3.9802e-08
4.45747e-06
-4.68913e-08
4.45685e-06
-5.24688e-08
-5.55308e-08
4.45851e-06
3.71426e-06
2.44494e-07
3.7722e-06
7.39834e-08
3.79142e-06
1.7901e-08
3.79994e-06
1.63639e-08
3.81789e-06
8.30465e-09
3.83782e-06
-3.38089e-09
3.84905e-06
-9.93738e-09
3.8506e-06
-1.57176e-08
3.8516e-06
-2.22988e-08
3.85926e-06
-3.05036e-08
3.87639e-06
-3.95692e-08
3.90081e-06
-4.75224e-08
3.92707e-06
-5.27104e-08
3.94909e-06
-5.44802e-08
3.9625e-06
-5.32094e-08
3.96591e-06
-5.03e-08
3.96046e-06
-4.70186e-08
-4.48669e-08
3.94979e-06
3.29479e-06
1.72012e-07
3.34192e-06
2.68583e-08
3.35376e-06
6.05925e-09
3.36566e-06
4.46345e-09
3.38706e-06
-1.30926e-08
3.4125e-06
-2.88218e-08
3.43472e-06
-3.21577e-08
3.44924e-06
-3.02373e-08
3.45798e-06
-3.10419e-08
3.4646e-06
-3.71274e-08
3.47103e-06
-4.59989e-08
3.47727e-06
-5.37592e-08
3.48236e-06
-5.78015e-08
3.48536e-06
-5.74781e-08
3.48596e-06
-5.38128e-08
3.48464e-06
-4.89773e-08
3.48244e-06
-4.48158e-08
-4.32661e-08
3.48084e-06
2.93746e-06
9.99785e-08
2.9783e-06
-1.39749e-08
2.98135e-06
3.00241e-09
2.99453e-06
-8.71829e-09
3.00958e-06
-2.81423e-08
3.02131e-06
-4.05494e-08
3.03307e-06
-4.3916e-08
3.04812e-06
-4.52912e-08
3.0658e-06
-4.87144e-08
3.08215e-06
-5.34799e-08
3.09316e-06
-5.70148e-08
3.09722e-06
-5.78164e-08
3.0955e-06
-5.60796e-08
3.09099e-06
-5.2972e-08
3.08691e-06
-4.9729e-08
3.08541e-06
-4.74794e-08
3.08736e-06
-4.67595e-08
-4.79467e-08
3.09204e-06
2.47803e-06
7.01645e-09
2.53304e-06
-6.89819e-08
2.57396e-06
-3.79194e-08
2.61215e-06
-4.69132e-08
2.63527e-06
-5.12605e-08
2.64283e-06
-4.81052e-08
2.64316e-06
-4.42484e-08
2.64105e-06
-4.31786e-08
2.63748e-06
-4.51454e-08
2.63269e-06
-4.86888e-08
2.62751e-06
-5.18363e-08
2.62286e-06
-5.31668e-08
2.61906e-06
-5.22812e-08
2.61571e-06
-4.96218e-08
2.61197e-06
-4.59823e-08
2.60688e-06
-4.23897e-08
2.59948e-06
-3.93671e-08
-3.75635e-08
2.5891e-06
2.19733e-06
2.12835e-06
2.09043e-06
2.04352e-06
1.99226e-06
1.94415e-06
1.89991e-06
1.85673e-06
1.81158e-06
1.76289e-06
1.71106e-06
1.65789e-06
1.60561e-06
1.55599e-06
1.51e-06
1.46761e-06
1.42825e-06
1.39068e-06
-1.9017e-07
1.9017e-07
-3.62874e-07
1.72704e-07
-4.72758e-07
1.09885e-07
-5.09781e-07
3.70231e-08
-4.8491e-07
-2.48715e-08
-4.12496e-07
-7.24133e-08
-2.93676e-07
-1.1882e-07
-1.3131e-07
-1.62366e-07
6.65183e-08
-1.97828e-07
2.87448e-07
-2.2093e-07
5.19368e-07
-2.31919e-07
7.51635e-07
-2.32267e-07
9.75894e-07
-2.24259e-07
1.18692e-06
-2.11029e-07
1.38213e-06
-1.95212e-07
1.56096e-06
-1.78829e-07
1.72407e-06
-1.63103e-07
1.8727e-06
-1.48638e-07
2.00831e-06
-1.35606e-07
2.13216e-06
-1.23852e-07
2.24521e-06
-1.13052e-07
2.34798e-06
-1.02766e-07
2.44044e-06
-9.24625e-08
2.52214e-06
-8.16978e-08
2.59188e-06
-6.97423e-08
2.64822e-06
-5.6338e-08
2.68872e-06
-4.04971e-08
2.71098e-06
-2.226e-08
2.71198e-06
-1.00318e-09
2.68529e-06
2.66949e-08
2.62678e-06
5.85067e-08
2.53073e-06
9.60477e-08
2.39441e-06
1.36322e-07
2.20862e-06
1.85785e-07
1.97716e-06
2.31469e-07
1.68474e-06
2.92413e-07
1.34945e-06
3.35296e-07
9.65736e-07
3.83711e-07
5.36932e-07
4.28804e-07
2.40609e-07
2.96323e-07
1.06538e-07
1.34071e-07
2.85606e-08
7.79774e-08
-4.99996e-08
7.85602e-08
-1.22389e-07
7.23895e-08
-2.13298e-07
9.09093e-08
-3.47442e-07
1.34143e-07
-4.96384e-07
1.48942e-07
-6.23661e-07
1.27277e-07
-7.0462e-07
8.09589e-08
-7.26859e-07
2.22387e-08
-6.9133e-07
-3.55284e-08
-6.03177e-07
-8.81535e-08
-4.68898e-07
-1.34278e-07
-2.88274e-07
-1.80624e-07
-7.51995e-08
-2.13075e-07
9.97611e-08
-1.74961e-07
1.9145e-07
-9.16893e-08
2.61024e-07
-6.95739e-08
4.07442e-07
-1.46417e-07
6.06754e-07
-1.99312e-07
7.38249e-07
-1.31495e-07
8.50683e-07
-1.12434e-07
1.00918e-06
-1.58497e-07
1.10393e-06
-9.47469e-08
9.89553e-07
1.14374e-07
5.48011e-07
4.41542e-07
-1.56608e-07
7.04619e-07
-8.64016e-07
7.07408e-07
-1.49929e-06
6.35274e-07
-2.05553e-06
5.56236e-07
-2.53827e-06
4.82741e-07
-2.95689e-06
4.18626e-07
-3.32173e-06
3.64833e-07
-3.64215e-06
3.20429e-07
-3.92595e-06
2.83794e-07
-4.17906e-06
2.53114e-07
-4.40574e-06
2.26679e-07
-4.60865e-06
2.02912e-07
-4.78915e-06
1.80492e-07
-4.94758e-06
1.58438e-07
-5.08365e-06
1.36066e-07
-5.19661e-06
1.12956e-07
-5.2856e-06
8.89954e-08
-5.34992e-06
6.43181e-08
-5.3891e-06
3.91812e-08
-5.40326e-06
1.41624e-08
-5.39403e-06
-9.23149e-09
-5.36307e-06
-3.09658e-08
-5.31189e-06
-5.11779e-08
-5.24244e-06
-6.94451e-08
-5.15663e-06
-8.58122e-08
-5.0563e-06
-1.00334e-07
-4.94302e-06
-1.13271e-07
-4.81803e-06
-1.24996e-07
-4.68204e-06
-1.3599e-07
-4.53527e-06
-1.46773e-07
-4.37743e-06
-1.57838e-07
-4.20786e-06
-1.69565e-07
-4.02573e-06
-1.82136e-07
-3.83025e-06
-1.95475e-07
-3.62103e-06
-2.09218e-07
-3.39831e-06
-2.22726e-07
-3.16312e-06
-2.35184e-07
-2.91737e-06
-2.45753e-07
-2.66361e-06
-2.5376e-07
-2.4048e-06
-2.5881e-07
-2.14398e-06
-2.60818e-07
-1.88403e-06
-2.59953e-07
-1.62746e-06
-2.56566e-07
-1.37632e-06
-2.51146e-07
-1.1321e-06
-2.44221e-07
-8.95851e-07
-2.36245e-07
-6.68368e-07
-2.27483e-07
-4.50183e-07
-2.18184e-07
-2.41821e-07
-2.08362e-07
-4.37118e-08
-1.9811e-07
1.44555e-07
-1.88267e-07
3.21989e-07
-1.77434e-07
4.88216e-07
-1.66227e-07
6.42803e-07
-1.54587e-07
7.85301e-07
-1.42498e-07
9.1527e-07
-1.29969e-07
1.03233e-06
-1.17064e-07
1.13628e-06
-1.03948e-07
1.22715e-06
-9.08639e-08
1.3052e-06
-7.80493e-08
1.37094e-06
-6.57474e-08
1.42521e-06
-5.42663e-08
1.46898e-06
-4.3771e-08
1.503e-06
-3.40233e-08
1.52785e-06
-2.48418e-08
1.54433e-06
-1.6483e-08
1.55267e-06
-8.34258e-09
1.55171e-06
9.62137e-10
1.54035e-06
1.13552e-08
1.51883e-06
2.15255e-08
1.48812e-06
3.07054e-08
1.44986e-06
3.82658e-08
1.40598e-06
4.38797e-08
1.35851e-06
4.74676e-08
1.30939e-06
4.91213e-08
1.26034e-06
4.90455e-08
1.21282e-06
4.75185e-08
1.16794e-06
4.48806e-08
1.12644e-06
4.15067e-08
1.08868e-06
3.77571e-08
1.05475e-06
3.39307e-08
1.02451e-06
3.02382e-08
9.97708e-07
2.68025e-08
9.7403e-07
2.36786e-08
9.5315e-07
2.08797e-08
9.3475e-07
1.83998e-08
9.18525e-07
1.62255e-08
9.04183e-07
1.43416e-08
8.91452e-07
1.27311e-08
8.80078e-07
1.13739e-08
8.69831e-07
1.02473e-08
8.60507e-07
9.32414e-09
8.51928e-07
8.57824e-09
8.43946e-07
7.98201e-09
8.36429e-07
7.51737e-09
8.29267e-07
7.16204e-09
8.22353e-07
6.91372e-09
8.156e-07
6.75333e-09
8.08888e-07
6.71207e-09
8.0213e-07
6.75783e-09
7.9514e-07
6.99004e-09
7.87814e-07
7.32567e-09
7.79804e-07
8.01041e-09
7.7104e-07
8.76364e-09
7.60776e-07
1.02647e-08
7.49189e-07
1.15869e-08
7.34569e-07
1.462e-08
7.18108e-07
1.64604e-08
6.95327e-07
2.27817e-08
6.71117e-07
2.42098e-08
6.32435e-07
3.86817e-08
5.97857e-07
3.45777e-08
5.25585e-07
7.22726e-08
4.52751e-08
4.8031e-07
4.71289e-08
1.43041e-07
5.05877e-08
1.69245e-07
6.27072e-08
9.7765e-08
9.2712e-08
7.01827e-09
1.57284e-07
-8.9443e-08
2.64561e-07
-1.79691e-07
4.12518e-07
-2.66778e-07
5.9145e-07
-3.41298e-07
7.87953e-07
-3.94332e-07
9.85735e-07
-4.18712e-07
1.17702e-06
-4.23206e-07
1.35565e-06
-4.10896e-07
1.519e-06
-3.87607e-07
1.66691e-06
-3.58938e-07
1.80073e-06
-3.29035e-07
1.92249e-06
-3.00591e-07
2.03439e-06
-2.75e-07
2.13846e-06
-2.52706e-07
2.23638e-06
-2.3353e-07
2.32944e-06
-2.16905e-07
2.41842e-06
-2.02038e-07
2.50375e-06
-1.8809e-07
2.58537e-06
-1.74085e-07
2.66287e-06
-1.59201e-07
2.73554e-06
-1.42415e-07
2.8022e-06
-1.22998e-07
2.86177e-06
-1.00059e-07
2.91237e-06
-7.28681e-08
2.95245e-06
-4.10799e-08
2.98315e-06
-4.00618e-09
2.99958e-06
4.20773e-08
3.00023e-06
9.54034e-08
2.98219e-06
1.54356e-07
2.9448e-06
2.23173e-07
2.88056e-06
2.95715e-07
2.79748e-06
3.75488e-07
2.67744e-06
4.55342e-07
2.53874e-06
5.22412e-07
2.38306e-06
5.84476e-07
2.09662e-06
5.82766e-07
1.66237e-06
5.6832e-07
1.17941e-06
5.60936e-07
7.70239e-07
4.87734e-07
4.62382e-07
3.80246e-07
2.32018e-07
3.21273e-07
6.74648e-08
2.98696e-07
-5.11917e-08
2.67599e-07
-1.34655e-07
2.1074e-07
-1.81229e-07
1.27533e-07
-1.81552e-07
2.25618e-08
-1.34491e-07
-8.25898e-08
-4.84069e-08
-1.74237e-07
5.48377e-08
-2.37523e-07
1.79227e-07
-3.05013e-07
3.60929e-07
-3.94777e-07
5.81092e-07
-3.95123e-07
7.50941e-07
-2.61538e-07
8.91011e-07
-2.09645e-07
1.09383e-06
-3.49234e-07
1.38064e-06
-4.8612e-07
1.64768e-06
-3.98543e-07
1.64458e-06
-1.09326e-07
1.21872e-06
2.67361e-07
3.66754e-07
7.57216e-07
-6.37097e-07
1.11823e-06
-1.46556e-06
1.27e-06
-2.04952e-06
1.28859e-06
-2.5326e-06
1.19048e-06
-2.95535e-06
1.05802e-06
-3.32181e-06
9.22698e-07
-3.63958e-06
8.00513e-07
-3.9171e-06
6.96146e-07
-4.16185e-06
6.09584e-07
-4.37988e-06
5.38455e-07
-4.57571e-06
4.79626e-07
-4.75246e-06
4.29857e-07
-4.91199e-06
3.86209e-07
-5.05518e-06
3.46105e-07
-5.18216e-06
3.07475e-07
-5.29254e-06
2.68818e-07
-5.38552e-06
2.29048e-07
-5.46014e-06
1.87572e-07
-5.51546e-06
1.44311e-07
-5.55076e-06
9.96168e-08
-5.56575e-06
5.41746e-08
-5.56e-06
8.41772e-09
-5.53364e-06
-3.56006e-08
-5.48691e-06
-7.76957e-08
-5.42108e-06
-1.17003e-07
-5.33774e-06
-1.52788e-07
-5.23879e-06
-1.84756e-07
-5.1261e-06
-2.13031e-07
-5.00127e-06
-2.38096e-07
-4.86553e-06
-2.60738e-07
-4.71958e-06
-2.81943e-07
-4.56357e-06
-3.02783e-07
-4.39713e-06
-3.24275e-07
-4.21948e-06
-3.47213e-07
-4.02963e-06
-3.71986e-07
-3.82666e-06
-3.98448e-07
-3.61002e-06
-4.25854e-07
-3.37986e-06
-4.52889e-07
-3.13719e-06
-4.77852e-07
-2.88395e-06
-4.98994e-07
-2.62278e-06
-5.14931e-07
-2.3567e-06
-5.24888e-07
-2.08877e-06
-5.28751e-07
-1.82176e-06
-5.26958e-07
-1.55806e-06
-5.20266e-07
-1.29955e-06
-5.09663e-07
-1.04755e-06
-4.96217e-07
-8.02966e-07
-4.80831e-07
-5.66517e-07
-4.63933e-07
-3.38688e-07
-4.46013e-07
-1.19905e-07
-4.27145e-07
8.98776e-08
-4.07892e-07
2.89729e-07
-3.88118e-07
4.79451e-07
-3.67155e-07
6.58503e-07
-3.45279e-07
8.26371e-07
-3.22454e-07
9.82486e-07
-2.98614e-07
1.12625e-06
-2.73734e-07
1.25711e-06
-2.47925e-07
1.37468e-06
-2.21519e-07
1.47889e-06
-1.95074e-07
1.57013e-06
-1.69285e-07
1.64928e-06
-1.44902e-07
1.71759e-06
-1.22577e-07
1.77638e-06
-1.02558e-07
1.82705e-06
-8.46901e-08
1.87101e-06
-6.88082e-08
1.90912e-06
-5.45841e-08
1.94191e-06
-4.11357e-08
1.97052e-06
-2.76487e-08
1.99576e-06
-1.38895e-08
2.01726e-06
2.61991e-11
2.0339e-06
1.40699e-08
2.04494e-06
2.72215e-08
2.04987e-06
3.89495e-08
2.0486e-06
4.87411e-08
2.04147e-06
5.62468e-08
2.02925e-06
6.1271e-08
2.01296e-06
6.38097e-08
1.99378e-06
6.40615e-08
1.97289e-06
6.23945e-08
1.95136e-06
5.92861e-08
1.93005e-06
5.5242e-08
1.90957e-06
5.07208e-08
1.89029e-06
4.60838e-08
1.87239e-06
4.15786e-08
1.85591e-06
3.73514e-08
1.84084e-06
3.34736e-08
1.8271e-06
2.99685e-08
1.81461e-06
2.68316e-08
1.8033e-06
2.40415e-08
1.7931e-06
2.15685e-08
1.78397e-06
1.93799e-08
1.77585e-06
1.74456e-08
1.76868e-06
1.5741e-08
1.76242e-06
1.42441e-08
1.757e-06
1.2944e-08
1.75233e-06
1.18239e-08
1.74836e-06
1.08922e-08
1.74498e-06
1.01318e-08
1.74209e-06
9.60136e-09
1.73959e-06
9.25692e-09
1.73731e-06
9.27204e-09
1.73512e-06
9.50975e-09
1.73272e-06
1.04155e-08
1.73003e-06
1.1448e-08
1.72642e-06
1.38814e-08
1.72206e-06
1.59407e-08
1.71552e-06
2.11647e-08
1.7078e-06
2.41742e-08
1.6956e-06
3.49867e-08
1.68194e-06
3.7871e-08
1.65973e-06
6.08912e-08
1.63513e-06
5.91758e-08
1.59753e-06
1.09871e-07
9.36674e-08
1.54914e-06
1.40654e-07
2.387e-09
2.63588e-07
4.63114e-08
3.58618e-07
2.73432e-09
4.65002e-07
-9.93657e-08
5.97318e-07
-2.21759e-07
7.57196e-07
-3.39569e-07
9.2461e-07
-4.34192e-07
1.07983e-06
-4.96513e-07
1.20961e-06
-5.24112e-07
1.31185e-06
-5.20953e-07
1.38534e-06
-4.96702e-07
1.43589e-06
-4.61448e-07
1.47166e-06
-4.23371e-07
1.50015e-06
-3.87432e-07
1.52667e-06
-3.55556e-07
1.55518e-06
-3.29096e-07
1.58809e-06
-3.07915e-07
1.62659e-06
-2.91199e-07
1.67101e-06
-2.77956e-07
1.72124e-06
-2.67133e-07
1.77686e-06
-2.57661e-07
1.83729e-06
-2.48521e-07
1.90188e-06
-2.38668e-07
1.96984e-06
-2.27162e-07
2.04034e-06
-2.12912e-07
2.1123e-06
-1.94959e-07
2.18467e-06
-1.72428e-07
2.25625e-06
-1.4445e-07
2.32558e-06
-1.10412e-07
2.39094e-06
-6.93639e-08
2.45446e-06
-2.14484e-08
2.51514e-06
3.47244e-08
2.57216e-06
9.73341e-08
2.62755e-06
1.67787e-07
2.67885e-06
2.44414e-07
2.72897e-06
3.25369e-07
2.77244e-06
4.11873e-07
2.80226e-06
4.92591e-07
2.81181e-06
5.74928e-07
2.75777e-06
6.36804e-07
2.65726e-06
6.68827e-07
2.52673e-06
6.9147e-07
2.31523e-06
6.99231e-07
2.01732e-06
6.78162e-07
1.70229e-06
6.36299e-07
1.42241e-06
5.78582e-07
1.19968e-06
4.90329e-07
1.02867e-06
3.81744e-07
9.06231e-07
2.49976e-07
8.26036e-07
1.02757e-07
7.89939e-07
-4.64926e-08
8.04883e-07
-1.89182e-07
8.45258e-07
-2.77898e-07
8.76657e-07
-3.36413e-07
9.10387e-07
-4.28507e-07
9.55067e-07
-4.39803e-07
1.05569e-06
-3.6216e-07
1.30215e-06
-4.56101e-07
1.59647e-06
-6.43563e-07
1.61644e-06
-5.06086e-07
1.20408e-06
1.38215e-08
3.8571e-07
7.09041e-07
-6.08987e-07
1.26206e-06
-1.42921e-06
1.57744e-06
-2.02303e-06
1.71204e-06
-2.4542e-06
1.70117e-06
-2.75781e-06
1.5922e-06
-3.0053e-06
1.43797e-06
-3.22698e-06
1.27971e-06
-3.43647e-06
1.13219e-06
-3.63776e-06
1.0018e-06
-3.83171e-06
8.90094e-07
-4.0181e-06
7.95974e-07
-4.19641e-06
7.16762e-07
-4.36609e-06
6.49313e-07
-4.52653e-06
5.90289e-07
-4.67687e-06
5.36549e-07
-4.81601e-06
4.85248e-07
-4.94252e-06
4.33989e-07
-5.05462e-06
3.80911e-07
-5.15032e-06
3.24755e-07
-5.22769e-06
2.64934e-07
-5.28492e-06
2.01547e-07
-5.32059e-06
1.35284e-07
-5.33371e-06
6.72997e-08
-5.32423e-06
-1.06574e-09
-5.29269e-06
-6.71451e-08
-5.24018e-06
-1.30202e-07
-5.16858e-06
-1.88598e-07
-5.08003e-06
-2.41342e-07
-4.97679e-06
-2.87997e-07
-4.86102e-06
-3.28797e-07
-4.73457e-06
-3.64545e-07
-4.59879e-06
-3.96519e-07
-4.45442e-06
-4.26316e-07
-4.30154e-06
-4.5566e-07
-4.13963e-06
-4.86192e-07
-3.96762e-06
-5.19214e-07
-3.78422e-06
-5.55388e-07
-3.58817e-06
-5.94505e-07
-3.37864e-06
-6.35382e-07
-3.15563e-06
-6.75899e-07
-2.92022e-06
-7.13257e-07
-2.67464e-06
-7.44575e-07
-2.42192e-06
-7.67652e-07
-2.16541e-06
-7.81401e-07
-1.9083e-06
-7.85863e-07
-1.65321e-06
-7.82041e-07
-1.40214e-06
-7.71338e-07
-1.15643e-06
-7.55373e-07
-9.1678e-07
-7.35869e-07
-6.83525e-07
-7.14086e-07
-4.56938e-07
-6.90519e-07
-2.37283e-07
-6.65669e-07
-2.47578e-08
-6.3967e-07
1.80993e-07
-6.13643e-07
3.78385e-07
-5.85511e-07
5.67151e-07
-5.55922e-07
7.4664e-07
-5.24768e-07
9.16105e-07
-4.9192e-07
1.07471e-06
-4.57214e-07
1.22152e-06
-4.20553e-07
1.35561e-06
-3.82013e-07
1.47601e-06
-3.4192e-07
1.58184e-06
-3.00902e-07
1.67254e-06
-2.59984e-07
1.74828e-06
-2.20645e-07
1.81028e-06
-1.84569e-07
1.86073e-06
-1.53014e-07
1.90242e-06
-1.26375e-07
1.93793e-06
-1.04318e-07
1.96922e-06
-8.5876e-08
1.99772e-06
-6.96375e-08
2.02442e-06
-5.43489e-08
2.04976e-06
-3.92348e-08
2.07377e-06
-2.39751e-08
2.09631e-06
-8.47869e-09
2.11668e-06
6.85809e-09
2.13396e-06
2.16686e-08
2.14737e-06
3.53308e-08
2.15641e-06
4.72071e-08
2.16089e-06
5.67852e-08
2.16101e-06
6.36912e-08
2.15721e-06
6.78674e-08
2.1501e-06
6.94983e-08
2.14044e-06
6.8951e-08
2.12899e-06
6.66865e-08
2.11653e-06
6.31813e-08
2.10374e-06
5.88754e-08
2.09118e-06
5.41441e-08
2.07924e-06
4.92877e-08
2.06818e-06
4.45329e-08
2.05811e-06
4.00376e-08
2.04904e-06
3.58989e-08
2.04092e-06
3.21646e-08
2.03365e-06
2.88436e-08
2.02711e-06
2.59179e-08
2.02121e-06
2.33462e-08
2.01587e-06
2.10763e-08
2.01107e-06
1.90416e-08
2.00683e-06
1.71915e-08
2.00318e-06
1.54667e-08
2.00021e-06
1.38633e-08
1.998e-06
1.23421e-08
1.99661e-06
1.09965e-08
1.99609e-06
9.77852e-09
1.9964e-06
8.96343e-09
1.99753e-06
8.37923e-09
1.99928e-06
8.66387e-09
2.00157e-06
9.15529e-09
2.00406e-06
1.13928e-08
2.00663e-06
1.33711e-08
2.00883e-06
1.89673e-08
2.01041e-06
2.25918e-08
2.01115e-06
3.42454e-08
2.00992e-06
3.90971e-08
2.00827e-06
6.25401e-08
2.00071e-06
6.67436e-08
1.99747e-06
1.13104e-07
1.16381e-07
1.97476e-06
3.05781e-08
-2.81911e-08
1.3166e-07
-5.47707e-08
3.05472e-07
-1.71077e-07
5.17906e-07
-3.118e-07
7.26788e-07
-4.3064e-07
8.95585e-07
-5.08367e-07
1.00298e-06
-5.41585e-07
1.04419e-06
-5.3773e-07
1.03043e-06
-5.10347e-07
9.80067e-07
-4.7059e-07
9.13745e-07
-4.3038e-07
8.48551e-07
-3.96254e-07
7.9425e-07
-3.6907e-07
7.54975e-07
-3.48157e-07
7.31797e-07
-3.32379e-07
7.23256e-07
-3.20554e-07
7.27091e-07
-3.1175e-07
7.4128e-07
-3.05387e-07
7.64405e-07
-3.01082e-07
7.95586e-07
-2.98315e-07
8.34366e-07
-2.9644e-07
8.80534e-07
-2.94689e-07
9.34031e-07
-2.92166e-07
9.94666e-07
-2.87797e-07
1.06225e-06
-2.80497e-07
1.1363e-06
-2.69012e-07
1.21645e-06
-2.52579e-07
1.30233e-06
-2.30324e-07
1.3933e-06
-2.01379e-07
1.48891e-06
-1.6498e-07
1.58886e-06
-1.21396e-07
1.6936e-06
-7.00108e-08
1.80216e-06
-1.12302e-08
1.91551e-06
5.44381e-08
2.03307e-06
1.26855e-07
2.15511e-06
2.03322e-07
2.28179e-06
2.85198e-07
2.4075e-06
3.66877e-07
2.53334e-06
4.49088e-07
2.64495e-06
5.25195e-07
2.72926e-06
5.84517e-07
2.78199e-06
6.38743e-07
2.79604e-06
6.8518e-07
2.76797e-06
7.06235e-07
2.7041e-06
7.00163e-07
2.61285e-06
6.6983e-07
2.49698e-06
6.06201e-07
2.36917e-06
5.09556e-07
2.23827e-06
3.80875e-07
2.10065e-06
2.40381e-07
1.95915e-06
9.50028e-08
1.83368e-06
-6.37133e-08
1.73707e-06
-1.81286e-07
1.66144e-06
-2.6078e-07
1.55979e-06
-3.26864e-07
1.44865e-06
-3.28654e-07
1.49086e-06
-4.04376e-07
1.6219e-06
-5.8714e-07
1.40997e-06
-4.31632e-07
6.61867e-07
2.42016e-07
-3.33107e-07
1.0088e-06
-1.18432e-06
1.56026e-06
-1.82128e-06
1.89901e-06
-2.26272e-06
2.01888e-06
-2.54263e-06
1.99195e-06
-2.73026e-06
1.8888e-06
-2.87924e-06
1.74117e-06
-3.02258e-06
1.58132e-06
-3.17014e-06
1.42727e-06
-3.32442e-06
1.28646e-06
-3.48382e-06
1.16121e-06
-3.64569e-06
1.05196e-06
-3.80742e-06
9.57711e-07
-3.96699e-06
8.76334e-07
-4.12271e-06
8.05028e-07
-4.27302e-06
7.406e-07
-4.41625e-06
6.79777e-07
-4.55046e-06
6.19455e-07
-4.6734e-06
5.56933e-07
-4.78257e-06
4.90083e-07
-4.87532e-06
4.17503e-07
-4.94904e-06
3.38654e-07
-5.00145e-06
2.5396e-07
-5.0309e-06
1.64736e-07
-5.0363e-06
7.27011e-08
-5.01786e-06
-1.95059e-08
-4.97609e-06
-1.08917e-07
-4.91246e-06
-1.93838e-07
-4.82946e-06
-2.71598e-07
-4.73003e-06
-3.40772e-07
-4.61714e-06
-4.00882e-07
-4.49356e-06
-4.52379e-07
-4.36157e-06
-4.96537e-07
-4.22278e-06
-5.3531e-07
-4.07799e-06
-5.71106e-07
-3.92714e-06
-6.0651e-07
-3.76934e-06
-6.43994e-07
-3.60298e-06
-6.85572e-07
-3.42601e-06
-7.32353e-07
-3.23641e-06
-7.84104e-07
-3.03273e-06
-8.39065e-07
-2.81464e-06
-8.93989e-07
-2.58344e-06
-9.44459e-07
-2.34218e-06
-9.85834e-07
-2.09515e-06
-1.01468e-06
-1.84698e-06
-1.02957e-06
-1.60189e-06
-1.03096e-06
-1.36293e-06
-1.021e-06
-1.13192e-06
-1.00235e-06
-9.09532e-07
-9.77759e-07
-6.95319e-07
-9.50081e-07
-4.88394e-07
-9.21011e-07
-2.87549e-07
-8.91365e-07
-9.1914e-08
-8.61303e-07
1.00416e-07
-8.32e-07
2.88413e-07
-8.01639e-07
4.72475e-07
-7.69572e-07
6.52062e-07
-7.35509e-07
8.26288e-07
-6.98994e-07
9.93888e-07
-6.5952e-07
1.15327e-06
-6.16598e-07
1.30269e-06
-5.69967e-07
1.44053e-06
-5.19859e-07
1.56571e-06
-4.67097e-07
1.67764e-06
-4.12831e-07
1.7758e-06
-3.58148e-07
1.85924e-06
-3.04079e-07
1.92678e-06
-2.5211e-07
1.97826e-06
-2.04497e-07
2.01553e-06
-1.63646e-07
2.04216e-06
-1.30945e-07
2.06226e-06
-1.05975e-07