/*--------------------------------*- C++ -*----------------------------------*\
  =========                 |
  \\      /  F ield         | OpenFOAM: The Open Source CFD Toolbox
   \\    /   O peration     | Website:  https://openfoam.org
    \\  /    A nd           | Version:  7
     \\/     M anipulation  |
\*---------------------------------------------------------------------------*/
FoamFile
{
    version     2.0;
    format      ascii;
    class       surfaceScalarField;
    location    "0.079";
    object      phi_0;
}
// * * * * * * * * * * * * * * * * * * * * * * * * * * * * * * * * * * * * * //

dimensions      [0 3 -1 0 0 0 0];

internalField   nonuniform List<scalar> 
24170
(
1.41452e-06
2.06074e-07
1.26017e-06
1.54354e-07
1.11937e-06
1.40802e-07
1.00212e-06
1.17251e-07
8.97713e-07
1.04403e-07
7.99322e-07
9.83909e-08
7.05442e-07
9.38796e-08
6.16538e-07
8.89036e-08
5.34191e-07
8.23472e-08
4.608e-07
7.33913e-08
3.98262e-07
6.2538e-08
3.4665e-07
5.16116e-08
3.0437e-07
4.22807e-08
2.69076e-07
3.52933e-08
2.37214e-07
3.18629e-08
2.06578e-07
3.06354e-08
1.71365e-07
3.52133e-08
3.00865e-08
1.41278e-07
1.66778e-06
2.86805e-07
1.64312e-06
1.7902e-07
1.61744e-06
1.66484e-07
1.58344e-06
1.51244e-07
1.54361e-06
1.4424e-07
1.50001e-06
1.41993e-07
1.45334e-06
1.40549e-07
1.40406e-06
1.38181e-07
1.35347e-06
1.32932e-07
1.30318e-06
1.23685e-07
1.25465e-06
1.11063e-07
1.20876e-06
9.75014e-08
1.16557e-06
8.5475e-08
1.12396e-06
7.69029e-08
1.08253e-06
7.32935e-08
1.03865e-06
7.45167e-08
9.91722e-07
8.21399e-08
8.99053e-08
9.31904e-07
1.78034e-06
3.17533e-07
1.77181e-06
1.87554e-07
1.74773e-06
1.90561e-07
1.72459e-06
1.7439e-07
1.71361e-06
1.55212e-07
1.70942e-06
1.46186e-07
1.70485e-06
1.45117e-07
1.69681e-06
1.46224e-07
1.68499e-06
1.44747e-07
1.67022e-06
1.38456e-07
1.65316e-06
1.28122e-07
1.63467e-06
1.15993e-07
1.6154e-06
1.04751e-07
1.59604e-06
9.62548e-08
1.57658e-06
9.27566e-08
1.55675e-06
9.43441e-08
1.53495e-06
1.03948e-07
1.16476e-07
1.50838e-06
1.95229e-06
3.48635e-07
1.90248e-06
2.37361e-07
1.8687e-06
2.24343e-07
1.83926e-06
2.03835e-07
1.82199e-06
1.72482e-07
1.81973e-06
1.48439e-07
1.82799e-06
1.36858e-07
1.84014e-06
1.34081e-07
1.85029e-06
1.34595e-07
1.85479e-06
1.33958e-07
1.85265e-06
1.30255e-07
1.84537e-06
1.2328e-07
1.83542e-06
1.14698e-07
1.82505e-06
1.06619e-07
1.81559e-06
1.02217e-07
1.80709e-06
1.02849e-07
1.8e-06
1.11032e-07
1.24104e-07
1.79238e-06
2.0687e-06
3.79728e-07
2.05394e-06
2.52126e-07
2.04722e-06
2.31064e-07
2.03407e-06
2.16982e-07
2.01563e-06
1.90926e-07
1.9992e-06
1.64865e-07
1.98908e-06
1.46977e-07
1.98583e-06
1.37335e-07
1.98791e-06
1.32512e-07
1.99279e-06
1.29084e-07
1.99777e-06
1.2527e-07
2.0006e-06
1.20453e-07
1.99999e-06
1.15306e-07
1.99541e-06
1.11196e-07
1.9878e-06
1.09835e-07
1.97841e-06
1.12237e-07
1.97012e-06
1.19321e-07
1.30547e-07
1.96368e-06
2.2198e-06
4.00335e-07
2.18706e-06
2.84862e-07
2.16783e-06
2.50299e-07
2.15829e-06
2.26523e-07
2.15169e-06
1.97527e-07
2.14734e-06
1.69213e-07
2.14648e-06
1.47838e-07
2.14925e-06
1.34562e-07
2.15474e-06
1.2702e-07
2.16107e-06
1.22755e-07
2.16597e-06
1.20371e-07
2.16733e-06
1.19095e-07
2.16415e-06
1.18484e-07
2.15651e-06
1.18835e-07
2.14592e-06
1.20426e-07
2.13423e-06
1.23929e-07
2.12392e-06
1.29632e-07
1.38112e-07
2.11635e-06
2.42913e-06
4.03131e-07
2.40991e-06
3.0408e-07
2.3778e-06
2.82407e-07
2.34977e-06
2.54554e-07
2.33062e-06
2.16684e-07
2.32457e-06
1.75257e-07
2.32957e-06
1.42838e-07
2.33908e-06
1.2505e-07
2.34686e-06
1.19241e-07
2.34951e-06
1.20105e-07
2.34678e-06
1.23106e-07
2.3403e-06
1.25573e-07
2.33224e-06
1.26539e-07
2.32434e-06
1.2674e-07
2.31745e-06
1.27315e-07
2.31188e-06
1.29498e-07
2.30769e-06
1.33823e-07
1.40794e-07
2.30501e-06
2.5643e-06
3.84993e-07
2.54344e-06
3.24939e-07
2.53673e-06
2.89116e-07
2.53603e-06
2.5526e-07
2.53187e-06
2.20842e-07
2.52204e-06
1.85082e-07
2.51036e-06
1.54516e-07
2.50114e-06
1.34279e-07
2.4955e-06
1.24881e-07
2.49229e-06
1.23309e-07
2.49029e-06
1.25109e-07
2.4892e-06
1.26657e-07
2.48941e-06
1.26338e-07
2.49136e-06
1.24782e-07
2.49515e-06
1.23534e-07
2.50046e-06
1.2418e-07
2.50705e-06
1.27233e-07
1.33446e-07
2.5144e-06
2.84643e-06
5.25731e-07
2.76859e-06
4.02788e-07
2.7297e-06
3.28003e-07
2.71232e-06
2.72642e-07
2.70484e-06
2.28315e-07
2.69795e-06
1.91977e-07
2.6891e-06
1.63361e-07
2.68054e-06
1.42844e-07
2.67516e-06
1.30258e-07
2.67424e-06
1.24235e-07
2.67702e-06
1.2232e-07
2.68169e-06
1.21992e-07
2.68658e-06
1.21443e-07
2.69091e-06
1.20459e-07
2.69495e-06
1.19493e-07
2.6993e-06
1.19829e-07
2.70503e-06
1.21506e-07
1.25751e-07
2.71272e-06
2.92226e-06
4.88183e-07
2.91693e-06
4.08117e-07
2.91793e-06
3.27e-07
2.92364e-06
2.66933e-07
2.92426e-06
2.277e-07
2.91901e-06
1.97218e-07
2.91246e-06
1.69913e-07
2.90815e-06
1.47153e-07
2.90613e-06
1.32283e-07
2.90431e-06
1.26058e-07
2.90089e-06
1.25737e-07
2.89565e-06
1.27235e-07
2.88991e-06
1.27184e-07
2.88581e-06
1.24555e-07
2.88537e-06
1.19932e-07
2.8895e-06
1.157e-07
2.89849e-06
1.12518e-07
1.13044e-07
2.91119e-06
3.15483e-06
4.28951e-07
3.1529e-06
4.10047e-07
3.14382e-06
3.36077e-07
3.13088e-06
2.79878e-07
3.11945e-06
2.39128e-07
3.11624e-06
2.00428e-07
3.12198e-06
1.64168e-07
3.13111e-06
1.38032e-07
3.13663e-06
1.26758e-07
3.13453e-06
1.28157e-07
3.12521e-06
1.35055e-07
3.11234e-06
1.40106e-07
3.1005e-06
1.39029e-07
3.09318e-06
1.31871e-07
3.09228e-06
1.20831e-07
3.09793e-06
1.10052e-07
3.10957e-06
1.00879e-07
9.64083e-08
3.12621e-06
2.85122e-06
4.23553e-07
2.87238e-06
3.88889e-07
2.86724e-06
3.41213e-07
2.84559e-06
3.01527e-07
2.82254e-06
2.62178e-07
2.80644e-06
2.1653e-07
2.8e-06
1.70611e-07
2.80268e-06
1.35354e-07
2.81139e-06
1.18046e-07
2.82178e-06
1.17764e-07
2.83016e-06
1.26676e-07
2.83463e-06
1.35637e-07
2.83515e-06
1.38511e-07
2.83278e-06
1.34244e-07
2.82931e-06
1.24296e-07
2.82671e-06
1.12653e-07
2.82667e-06
1.00917e-07
9.23246e-08
2.83075e-06
3.4396e-06
3.77976e-07
3.44884e-06
3.79646e-07
3.44105e-06
3.49003e-07
3.44566e-06
2.96913e-07
3.45821e-06
2.49635e-07
3.46624e-06
2.08492e-07
3.46675e-06
1.70101e-07
3.46433e-06
1.37781e-07
3.46418e-06
1.18197e-07
3.46827e-06
1.1367e-07
3.47502e-06
1.19931e-07
3.48134e-06
1.29315e-07
3.48494e-06
1.34907e-07
3.48557e-06
1.33618e-07
3.48455e-06
1.2531e-07
3.48403e-06
1.13177e-07
3.48568e-06
9.9262e-08
8.74442e-08
3.49056e-06
4.18651e-06
3.56682e-07
4.1893e-06
3.76865e-07
4.2063e-06
3.32003e-07
4.21901e-06
2.84195e-07
4.22127e-06
2.47384e-07
4.21569e-06
2.14067e-07
4.20692e-06
1.7887e-07
4.19701e-06
1.47694e-07
4.18676e-06
1.28448e-07
4.17763e-06
1.22799e-07
4.17175e-06
1.25811e-07
4.17106e-06
1.30008e-07
4.17656e-06
1.29399e-07
4.18845e-06
1.21733e-07
4.20571e-06
1.08052e-07
4.2268e-06
9.20872e-08
4.24973e-06
7.63279e-08
6.45399e-08
4.27264e-06
5.12048e-06
3.76301e-07
5.13584e-06
3.61513e-07
5.12799e-06
3.39847e-07
5.10426e-06
3.07926e-07
5.08925e-06
2.624e-07
5.08738e-06
2.15936e-07
5.08985e-06
1.76399e-07
5.09009e-06
1.47446e-07
5.08936e-06
1.29185e-07
5.09289e-06
1.19263e-07
5.10457e-06
1.14137e-07
5.12444e-06
1.1014e-07
5.14976e-06
1.04076e-07
5.17703e-06
9.44667e-08
5.20365e-06
8.14295e-08
5.22842e-06
6.73176e-08
5.25121e-06
5.35361e-08
4.2938e-08
5.27281e-06
6.14118e-06
3.04099e-07
6.24371e-06
2.5899e-07
6.27335e-06
3.10204e-07
6.26844e-06
3.12838e-07
6.2604e-06
2.70438e-07
6.25779e-06
2.18546e-07
6.26035e-06
1.73837e-07
6.26816e-06
1.39639e-07
6.28296e-06
1.14382e-07
6.30474e-06
9.7483e-08
6.33023e-06
8.86496e-08
6.35438e-06
8.59935e-08
6.37287e-06
8.55821e-08
6.38379e-06
8.35415e-08
6.38801e-06
7.72087e-08
6.38833e-06
6.70044e-08
6.38797e-06
5.3895e-08
4.0925e-08
6.38998e-06
7.70525e-06
4.41423e-07
7.56753e-06
3.96716e-07
7.53319e-06
3.44544e-07
7.55364e-06
2.9238e-07
7.58939e-06
2.34692e-07
7.62259e-06
1.85347e-07
7.64376e-06
1.52663e-07
7.65342e-06
1.29982e-07
7.65837e-06
1.09434e-07
7.66645e-06
8.93994e-08
7.68258e-06
7.25216e-08
7.70761e-06
6.09671e-08
7.73916e-06
5.40301e-08
7.77342e-06
4.92759e-08
7.80645e-06
4.41772e-08
7.83569e-06
3.77667e-08
7.8596e-06
2.99864e-08
2.19319e-08
7.87859e-06
9.38861e-06
6.74413e-07
9.28146e-06
5.03865e-07
9.28241e-06
3.43597e-07
9.32565e-06
2.49145e-07
9.37612e-06
1.8422e-07
9.41775e-06
1.43717e-07
9.44329e-06
1.27121e-07
9.4511e-06
1.22171e-07
9.44692e-06
1.13616e-07
9.44096e-06
9.53574e-08
9.44263e-06
7.08537e-08
9.4566e-06
4.70002e-08
9.48202e-06
2.8605e-08
9.51404e-06
1.72617e-08
9.54644e-06
1.17724e-08
9.57439e-06
9.8149e-09
9.59518e-06
9.20085e-09
8.00545e-09
9.60911e-06
1.1266e-05
5.8146e-07
1.13418e-05
4.28034e-07
1.13529e-05
3.3251e-07
1.13397e-05
2.62368e-07
1.13304e-05
1.93561e-07
1.13445e-05
1.29547e-07
1.13893e-05
8.23754e-08
1.14551e-05
5.63852e-08
1.15231e-05
4.55509e-08
1.15777e-05
4.07344e-08
1.16126e-05
3.59501e-08
1.16301e-05
2.95674e-08
1.16363e-05
2.23648e-08
1.16376e-05
1.6013e-08
1.16382e-05
1.11722e-08
1.16405e-05
7.46871e-09
1.16458e-05
3.91853e-09
-9.71189e-10
1.16548e-05
8.22948e-06
4.62859e-07
8.34074e-06
3.1677e-07
8.40203e-06
2.71223e-07
8.43982e-06
2.24577e-07
8.45433e-06
1.79055e-07
8.45532e-06
1.28556e-07
8.45868e-06
7.90085e-08
8.47239e-06
4.26798e-08
8.49459e-06
2.33538e-08
8.51941e-06
1.59137e-08
8.54173e-06
1.36248e-08
8.55853e-06
1.27692e-08
8.56936e-06
1.15354e-08
8.57582e-06
9.55211e-09
8.5805e-06
6.49272e-09
8.58603e-06
1.93626e-09
8.59361e-06
-3.6588e-09
-1.09122e-08
8.60355e-06
7.15664e-06
4.01225e-07
7.23458e-06
2.38832e-07
7.31799e-06
1.87813e-07
7.38026e-06
1.62308e-07
7.42352e-06
1.35792e-07
7.44817e-06
1.03901e-07
7.45261e-06
7.45695e-08
7.44252e-06
5.27705e-08
7.43012e-06
3.57515e-08
7.42666e-06
1.93781e-08
7.43691e-06
3.37177e-09
7.46155e-06
-1.18679e-08
7.49335e-06
-2.02644e-08
7.5256e-06
-2.2694e-08
7.55351e-06
-2.14236e-08
7.57489e-06
-1.94379e-08
7.58992e-06
-1.86912e-08
-2.06734e-08
7.59968e-06
6.33441e-06
3.64763e-07
6.34639e-06
2.2685e-07
6.39698e-06
1.37223e-07
6.46801e-06
9.12802e-08
6.53176e-06
7.20434e-08
6.56679e-06
6.88654e-08
6.57015e-06
7.12107e-08
6.55415e-06
6.87742e-08
6.53377e-06
5.61332e-08
6.51938e-06
3.37674e-08
6.51635e-06
6.39572e-09
6.5216e-06
-1.71176e-08
6.53564e-06
-3.43021e-08
6.55586e-06
-4.29152e-08
6.57884e-06
-4.44005e-08
6.60126e-06
-4.18572e-08
6.62029e-06
-3.77235e-08
-3.41503e-08
6.63377e-06
5.57332e-06
3.22696e-07
5.59599e-06
2.04181e-07
5.63422e-06
9.89894e-08
5.66103e-06
6.44701e-08
5.66799e-06
6.50788e-08
5.66747e-06
6.93927e-08
5.67491e-06
6.37685e-08
5.69617e-06
4.7513e-08
5.72624e-06
2.60655e-08
5.75502e-06
4.98049e-09
5.77631e-06
-1.48932e-08
5.7894e-06
-3.02036e-08
5.79656e-06
-4.14586e-08
5.80242e-06
-4.87804e-08
5.8104e-06
-5.23823e-08
5.82161e-06
-5.30684e-08
5.83538e-06
-5.14942e-08
-4.81403e-08
5.84937e-06
4.86267e-06
2.56773e-07
4.91028e-06
1.56573e-07
4.93618e-06
7.30795e-08
4.94058e-06
6.00794e-08
4.93911e-06
6.65465e-08
4.95475e-06
5.375e-08
4.99065e-06
2.78678e-08
5.03472e-06
3.44098e-09
5.07057e-06
-9.77841e-09
5.09192e-06
-1.63732e-08
5.09706e-06
-2.00278e-08
5.09064e-06
-2.37911e-08
5.07839e-06
-2.9203e-08
5.06597e-06
-3.63583e-08
5.05737e-06
-4.37854e-08
5.05419e-06
-4.98932e-08
5.0564e-06
-5.37056e-08
-5.4244e-08
5.06251e-06
4.22629e-06
3.41495e-07
4.24843e-06
1.34427e-07
4.28414e-06
3.73728e-08
4.31938e-06
2.48344e-08
4.3603e-06
2.56309e-08
4.39889e-06
1.51647e-08
4.42724e-06
-4.87436e-10
4.44638e-06
-1.57004e-08
4.45908e-06
-2.2472e-08
4.46643e-06
-2.3725e-08
4.46958e-06
-2.31794e-08
4.46964e-06
-2.38496e-08
4.46771e-06
-2.72725e-08
4.46469e-06
-3.33439e-08
4.4616e-06
-4.06932e-08
4.45941e-06
-4.77027e-08
4.45883e-06
-5.31232e-08
-5.59959e-08
4.46058e-06
3.72485e-06
2.62028e-07
3.77922e-06
8.00586e-08
3.79701e-06
1.95821e-08
3.80516e-06
1.66875e-08
3.82284e-06
7.94734e-09
3.84231e-06
-4.31012e-09
3.85278e-06
-1.09538e-08
3.85383e-06
-1.67465e-08
3.8547e-06
-2.3346e-08
3.86253e-06
-3.15553e-08
3.87992e-06
-4.05706e-08
3.90446e-06
-4.83889e-08
3.93057e-06
-5.33763e-08
3.95214e-06
-5.49218e-08
3.96491e-06
-5.3461e-08
3.96764e-06
-5.04337e-08
3.96164e-06
-4.71188e-08
-4.50012e-08
3.95064e-06
3.30122e-06
2.13552e-07
3.34673e-06
3.45452e-08
3.35827e-06
8.04242e-09
3.37022e-06
4.73877e-09
3.39166e-06
-1.34907e-08
3.41687e-06
-2.95243e-08
3.43862e-06
-3.27054e-08
3.45261e-06
-3.07307e-08
3.46092e-06
-3.16614e-08
3.46727e-06
-3.79001e-08
3.4735e-06
-4.68023e-08
3.47955e-06
-5.44377e-08
3.48443e-06
-5.82555e-08
3.4872e-06
-5.76923e-08
3.48759e-06
-5.38536e-08
3.48611e-06
-4.8952e-08
3.48383e-06
-4.48377e-08
-4.34032e-08
3.48223e-06
2.93876e-06
1.07721e-07
2.98147e-06
-8.16868e-09
2.98465e-06
4.86878e-09
2.99807e-06
-8.68905e-09
3.01312e-06
-2.85338e-08
3.02467e-06
-4.10784e-08
3.03634e-06
-4.4379e-08
3.05137e-06
-4.57549e-08
3.06891e-06
-4.92081e-08
3.08495e-06
-5.39362e-08
3.0955e-06
-5.7351e-08
3.09907e-06
-5.80114e-08
3.09699e-06
-5.61724e-08
3.09232e-06
-5.3023e-08
3.08826e-06
-4.97942e-08
3.08691e-06
-4.75987e-08
3.08903e-06
-4.69557e-08
-4.82154e-08
3.09384e-06
2.47838e-06
2.88216e-08
2.53603e-06
-6.58158e-08
2.57782e-06
-3.69264e-08
2.61591e-06
-4.67794e-08
2.63859e-06
-5.12164e-08
2.64568e-06
-4.81644e-08
2.6457e-06
-4.4399e-08
2.64337e-06
-4.34231e-08
2.63962e-06
-4.5456e-08
2.63469e-06
-4.90086e-08
2.62944e-06
-5.21054e-08
2.62478e-06
-5.33506e-08
2.62099e-06
-5.23787e-08
2.61762e-06
-4.96538e-08
2.61381e-06
-4.59806e-08
2.60859e-06
-4.2384e-08
2.60101e-06
-3.93789e-08
-3.76022e-08
2.5904e-06
2.19591e-06
2.1301e-06
2.09317e-06
2.04639e-06
1.99517e-06
1.94701e-06
1.90261e-06
1.85919e-06
1.81373e-06
1.76472e-06
1.71262e-06
1.65927e-06
1.60689e-06
1.55723e-06
1.51125e-06
1.46887e-06
1.42949e-06
1.39189e-06
-1.90303e-07
1.90303e-07
-3.63105e-07
1.72802e-07
-4.7304e-07
1.09935e-07
-5.10086e-07
3.70465e-08
-4.852e-07
-2.4886e-08
-4.12741e-07
-7.2459e-08
-2.93835e-07
-1.18906e-07
-1.31341e-07
-1.62494e-07
6.6648e-08
-1.97989e-07
2.87765e-07
-2.21117e-07
5.19888e-07
-2.32123e-07
7.5237e-07
-2.32482e-07
9.7685e-07
-2.24479e-07
1.1881e-06
-2.11249e-07
1.38353e-06
-1.95431e-07
1.56257e-06
-1.79041e-07
1.72588e-06
-1.63306e-07
1.8747e-06
-1.48828e-07
2.01048e-06
-1.35779e-07
2.13449e-06
-1.24005e-07
2.24767e-06
-1.13179e-07
2.35053e-06
-1.02862e-07
2.44305e-06
-9.2523e-08
2.52477e-06
-8.17169e-08
2.59448e-06
-6.97156e-08
2.65075e-06
-5.62604e-08
2.69111e-06
-4.03625e-08
2.71317e-06
-2.20666e-08
2.71397e-06
-7.94229e-10
2.68695e-06
2.70192e-08
2.62806e-06
5.8891e-08
2.53159e-06
9.64637e-08
2.39481e-06
1.36781e-07
2.20857e-06
1.86248e-07
1.97666e-06
2.31907e-07
1.68381e-06
2.92849e-07
1.34833e-06
3.35475e-07
9.64346e-07
3.83988e-07
5.35756e-07
4.2859e-07
2.40227e-07
2.95529e-07
1.0656e-07
1.33666e-07
2.84536e-08
7.81069e-08
-5.02413e-08
7.86949e-08
-1.22746e-07
7.25045e-08
-2.13896e-07
9.11504e-08
-3.4813e-07
1.34234e-07
-4.96871e-07
1.48741e-07
-6.23673e-07
1.26801e-07
-7.0397e-07
8.02968e-08
-7.25463e-07
2.14932e-08
-6.89265e-07
-3.61981e-08
-6.00564e-07
-8.87002e-08
-4.65886e-07
-1.34679e-07
-2.84897e-07
-1.80989e-07
-7.17837e-08
-2.13113e-07
1.02598e-07
-1.74382e-07
1.9363e-07
-9.10324e-08
2.63135e-07
-6.9505e-08
4.09878e-07
-1.46742e-07
6.08883e-07
-1.99006e-07
7.40093e-07
-1.3121e-07
8.53622e-07
-1.13529e-07
1.01237e-06
-1.58748e-07
1.10539e-06
-9.30217e-08
9.88247e-07
1.17144e-07
5.42871e-07
4.45377e-07
-1.6354e-07
7.0641e-07
-8.7101e-07
7.0747e-07
-1.506e-06
6.34988e-07
-2.06177e-06
5.55771e-07
-2.54396e-06
4.82193e-07
-2.962e-06
4.18043e-07
-3.32624e-06
3.64238e-07
-3.64608e-06
3.19836e-07
-3.92929e-06
2.83209e-07
-4.18183e-06
2.5254e-07
-4.40794e-06
2.26116e-07
-4.61031e-06
2.02364e-07
-4.79027e-06
1.79961e-07
-4.9482e-06
1.57927e-07
-5.08378e-06
1.3558e-07
-5.19628e-06
1.125e-07
-5.28485e-06
8.85743e-08
-5.34879e-06
6.39392e-08
-5.38764e-06
3.88503e-08
-5.40151e-06
1.38748e-08
-5.39206e-06
-9.45893e-09
-5.36091e-06
-3.11477e-08
-5.30959e-06
-5.13202e-08
-5.24004e-06
-6.95517e-08
-5.15415e-06
-8.58885e-08
-5.05376e-06
-1.00386e-07
-4.94046e-06
-1.13303e-07
-4.81544e-06
-1.25014e-07
-4.67945e-06
-1.35995e-07
-4.53268e-06
-1.46767e-07
-4.37486e-06
-1.57823e-07
-4.20532e-06
-1.69541e-07
-4.02322e-06
-1.82102e-07
-3.82778e-06
-1.95432e-07
-3.61862e-06
-2.09168e-07
-3.39594e-06
-2.22673e-07
-3.16081e-06
-2.35131e-07
-2.91511e-06
-2.45707e-07
-2.66138e-06
-2.53725e-07
-2.40259e-06
-2.5879e-07
-2.14178e-06
-2.60814e-07
-1.88181e-06
-2.59962e-07
-1.62523e-06
-2.56586e-07
-1.37406e-06
-2.51171e-07
-1.12981e-06
-2.44243e-07
-8.93555e-07
-2.3626e-07
-6.6607e-07
-2.27485e-07
-4.479e-07
-2.1817e-07
-2.3957e-07
-2.0833e-07
-4.15118e-08
-1.98059e-07
1.46696e-07
-1.88208e-07
3.24055e-07
-1.77359e-07
4.90196e-07
-1.66141e-07
6.44687e-07
-1.54491e-07
7.8708e-07
-1.42394e-07
9.16937e-07
-1.29857e-07
1.03388e-06
-1.16947e-07
1.13771e-06
-1.03829e-07
1.22846e-06
-9.07454e-08
1.30639e-06
-7.79359e-08
1.37204e-06
-6.56431e-08
1.42621e-06
-5.41747e-08
1.4699e-06
-4.36927e-08
1.50386e-06
-3.39558e-08
1.52865e-06
-2.47851e-08
1.54508e-06
-1.64358e-08
1.55338e-06
-8.29411e-09
1.55236e-06
1.01842e-09
1.54094e-06
1.14128e-08
1.51937e-06
2.15774e-08
1.48862e-06
3.07435e-08
1.45034e-06
3.8288e-08
1.40645e-06
4.38857e-08
1.35899e-06
4.74589e-08
1.30989e-06
4.91006e-08
1.26087e-06
4.90161e-08
1.21339e-06
4.74836e-08
1.16855e-06
4.48433e-08
1.12708e-06
4.14696e-08
1.08936e-06
3.77222e-08
1.05546e-06
3.38993e-08
1.02525e-06
3.02107e-08
9.98467e-07
2.6779e-08
9.74808e-07
2.36587e-08
9.53945e-07
2.08631e-08
9.35559e-07
1.83859e-08
9.19345e-07
1.62141e-08
9.05013e-07
1.43323e-08
8.92289e-07
1.27236e-08
8.80921e-07
1.13681e-08
8.70678e-07
1.02428e-08
8.61357e-07
9.32082e-09
8.52782e-07
8.57584e-09
8.44801e-07
7.98031e-09
8.37285e-07
7.51616e-09
8.30124e-07
7.16115e-09
8.23211e-07
6.91299e-09
8.16458e-07
6.75265e-09
8.09747e-07
6.71141e-09
8.0299e-07
6.75719e-09
7.96e-07
6.98947e-09
7.88675e-07
7.32526e-09
7.80665e-07
8.01024e-09
7.71901e-07
8.76388e-09
7.61636e-07
1.02653e-08
7.50047e-07
1.15881e-08
7.35426e-07
1.46218e-08
7.18963e-07
1.64627e-08
6.96178e-07
2.27848e-08
6.71964e-07
2.4214e-08
6.33276e-07
3.86879e-08
5.98689e-07
3.45876e-08
5.26399e-07
7.22899e-08
4.53175e-08
4.81081e-07
4.71124e-08
1.4319e-07
5.0532e-08
1.69383e-07
6.26245e-08
9.78423e-08
9.26393e-08
7.03164e-09
1.57225e-07
-8.94717e-08
2.64567e-07
-1.79801e-07
4.12642e-07
-2.66981e-07
5.91733e-07
-3.41584e-07
7.88425e-07
-3.94681e-07
9.86411e-07
-4.19103e-07
1.17791e-06
-4.23622e-07
1.35675e-06
-4.11327e-07
1.52032e-06
-3.88046e-07
1.66845e-06
-3.5938e-07
1.8025e-06
-3.29475e-07
1.92448e-06
-3.01023e-07
2.03659e-06
-2.75419e-07
2.14087e-06
-2.53106e-07
2.23899e-06
-2.33903e-07
2.33223e-06
-2.17242e-07
2.42138e-06
-2.02331e-07
2.50685e-06
-1.88328e-07
2.58858e-06
-1.74259e-07
2.66617e-06
-1.59301e-07
2.73888e-06
-1.42432e-07
2.80555e-06
-1.22925e-07
2.86507e-06
-9.98872e-08
2.9156e-06
-7.25988e-08
2.95552e-06
-4.07144e-08
2.98612e-06
-3.57341e-09
3.00233e-06
4.26808e-08
3.0027e-06
9.60865e-08
2.98438e-06
1.55107e-07
2.94664e-06
2.23984e-07
2.88203e-06
2.96522e-07
2.79857e-06
3.76308e-07
2.67802e-06
4.56028e-07
2.53899e-06
5.23018e-07
2.38273e-06
5.84844e-07
2.09539e-06
5.82877e-07
1.6605e-06
5.68555e-07
1.17772e-06
5.60886e-07
7.69053e-07
4.8736e-07
4.61617e-07
3.7994e-07
2.31602e-07
3.21166e-07
6.73831e-08
2.98453e-07
-5.09469e-08
2.67071e-07
-1.34007e-07
2.09861e-07
-1.80058e-07
1.26349e-07
-1.79715e-07
2.11503e-08
-1.32086e-07
-8.38274e-08
-4.56215e-08
-1.75165e-07
5.77891e-08
-2.38089e-07
1.82421e-07
-3.05621e-07
3.64562e-07
-3.95254e-07
5.84703e-07
-3.94522e-07
7.53998e-07
-2.60328e-07
8.93855e-07
-2.09361e-07
1.09708e-06
-3.49964e-07
1.38472e-06
-4.86645e-07
1.65026e-06
-3.96756e-07
1.64288e-06
-1.06145e-07
1.21206e-06
2.72075e-07
3.56596e-07
7.62437e-07
-6.47113e-07
1.12085e-06
-1.47316e-06
1.27143e-06
-2.05551e-06
1.28876e-06
-2.53796e-06
1.18992e-06
-2.96009e-06
1.05711e-06
-3.32595e-06
9.21632e-07
-3.64315e-06
7.99398e-07
-3.92014e-06
6.95032e-07
-4.1644e-06
6.08493e-07
-4.38196e-06
5.37395e-07
-4.57734e-06
4.78598e-07
-4.75366e-06
4.28858e-07
-4.91278e-06
3.85238e-07
-5.05559e-06
3.45164e-07
-5.18219e-06
3.06565e-07
-5.29221e-06
2.67946e-07
-5.38485e-06
2.2822e-07
-5.45915e-06
1.86796e-07
-5.51417e-06
1.43597e-07
-5.5492e-06
9.89727e-08
-5.56396e-06
5.36068e-08
-5.55801e-06
7.92675e-09
-5.53147e-06
-3.60019e-08
-5.48459e-06
-7.80226e-08
-5.41865e-06
-1.17257e-07
-5.33523e-06
-1.52976e-07
-5.23623e-06
-1.84887e-07
-5.1235e-06
-2.13116e-07
-4.99866e-06
-2.38145e-07
-4.86291e-06
-2.60759e-07
-4.71697e-06
-2.81943e-07
-4.56097e-06
-3.02764e-07
-4.39455e-06
-3.24239e-07
-4.21694e-06
-3.47159e-07
-4.02712e-06
-3.71914e-07
-3.8242e-06
-3.9836e-07
-3.60761e-06
-4.25752e-07
-3.3775e-06
-4.52782e-07
-3.13488e-06
-4.77749e-07
-2.88168e-06
-4.98906e-07
-2.62054e-06
-5.14868e-07
-2.35448e-06
-5.24856e-07
-2.08654e-06
-5.28754e-07
-1.81951e-06
-5.26992e-07
-1.55577e-06
-5.20322e-07
-1.29721e-06
-5.09727e-07
-1.04518e-06
-4.96276e-07
-8.00571e-07
-4.80871e-07
-5.64111e-07
-4.63944e-07
-3.36291e-07
-4.45991e-07
-1.17537e-07
-4.27083e-07
9.22045e-08
-4.078e-07
2.91989e-07
-3.87993e-07
4.81633e-07
-3.67003e-07
6.60596e-07
-3.45103e-07
8.28363e-07
-3.22258e-07
9.84367e-07
-2.98398e-07
1.12801e-06
-2.735e-07
1.25874e-06
-2.47678e-07
1.37618e-06
-2.21264e-07
1.48025e-06
-1.94821e-07
1.57136e-06
-1.69046e-07
1.65041e-06
-1.44687e-07
1.71862e-06
-1.22393e-07
1.77734e-06
-1.02408e-07
1.82796e-06
-8.45713e-08
1.87189e-06
-6.87171e-08
1.90996e-06
-5.45126e-08
1.94274e-06
-4.10728e-08
1.97135e-06
-2.75875e-08
1.99659e-06
-1.38279e-08
2.01807e-06
9.43446e-11
2.03469e-06
1.41307e-08
2.0457e-06
2.7276e-08
2.05059e-06
3.89924e-08
2.04928e-06
4.87693e-08
2.04212e-06
5.62581e-08
2.02987e-06
6.12651e-08
2.01357e-06
6.37878e-08
1.99439e-06
6.40265e-08
1.97351e-06
6.23499e-08
1.95199e-06
5.9236e-08
1.9307e-06
5.51903e-08
1.91024e-06
5.06706e-08
1.89098e-06
4.60372e-08
1.87311e-06
4.15366e-08
1.85665e-06
3.73144e-08
1.8416e-06
3.34413e-08
1.82787e-06
2.99406e-08
1.8154e-06
2.68075e-08
1.8041e-06
2.40209e-08
1.79392e-06
2.15507e-08
1.7848e-06
1.93644e-08
1.77668e-06
1.74321e-08
1.76953e-06
1.57292e-08
1.76328e-06
1.42337e-08
1.75786e-06
1.29346e-08
1.7532e-06
1.18153e-08
1.74923e-06
1.08841e-08
1.74586e-06
1.01242e-08
1.74298e-06
9.59419e-09
1.74049e-06
9.25026e-09
1.73821e-06
9.26607e-09
1.73603e-06
9.5047e-09
1.73363e-06
1.04116e-08
1.73095e-06
1.14455e-08
1.72733e-06
1.38805e-08
1.72298e-06
1.59414e-08
1.71643e-06
2.11672e-08
1.70872e-06
2.41784e-08
1.69651e-06
3.49929e-08
1.68284e-06
3.78797e-08
1.66063e-06
6.09038e-08
1.63602e-06
5.91948e-08
1.59841e-06
1.09903e-07
9.37298e-08
1.55e-06
1.40767e-07
2.42293e-09
2.63742e-07
4.64081e-08
3.58742e-07
2.84207e-09
4.65102e-07
-9.93279e-08
5.97478e-07
-2.21848e-07
7.57486e-07
-3.39809e-07
9.25079e-07
-4.34574e-07
1.08049e-06
-4.96993e-07
1.21047e-06
-5.24661e-07
1.31291e-06
-5.21546e-07
1.38661e-06
-4.97324e-07
1.43738e-06
-4.6209e-07
1.47335e-06
-4.24021e-07
1.50206e-06
-3.88093e-07
1.52881e-06
-3.56223e-07
1.55755e-06
-3.29759e-07
1.5907e-06
-3.08565e-07
1.62942e-06
-2.91828e-07
1.67407e-06
-2.78554e-07
1.72452e-06
-2.67688e-07
1.78034e-06
-2.58158e-07
1.84096e-06
-2.48946e-07
1.90571e-06
-2.39007e-07
1.97381e-06
-2.274e-07
2.04441e-06
-2.13035e-07
2.11644e-06
-1.94954e-07
2.18884e-06
-1.72288e-07
2.26041e-06
-1.44166e-07
2.32967e-06
-1.09981e-07
2.39489e-06
-6.87897e-08
2.45829e-06
-2.07248e-08
2.5188e-06
3.55834e-08
2.57561e-06
9.82996e-08
2.63074e-06
1.68845e-07
2.68176e-06
2.45504e-07
2.73159e-06
3.26484e-07
2.77467e-06
4.12949e-07
2.80408e-06
4.93605e-07
2.81307e-06
5.7585e-07
2.75843e-06
6.37519e-07
2.65756e-06
6.69423e-07
2.52654e-06
6.91907e-07
2.31447e-06
6.99433e-07
2.01629e-06
6.78112e-07
1.70147e-06
6.35986e-07
1.42198e-06
5.77948e-07
1.19966e-06
4.89387e-07
1.02907e-06
3.80455e-07
9.07086e-07
2.48331e-07
8.27227e-07
1.01009e-07
7.91672e-07
-4.82722e-08
8.072e-07
-1.90693e-07
8.4771e-07
-2.786e-07
8.79059e-07
-3.3697e-07
9.12866e-07
-4.29061e-07
9.57631e-07
-4.39287e-07
1.05874e-06
-3.61436e-07
1.30587e-06
-4.56495e-07
1.59877e-06
-6.42864e-07
1.61408e-06
-5.01949e-07
1.19726e-06
2.0057e-08
3.7485e-07
7.1627e-07
-6.19499e-07
1.26642e-06
-1.43703e-06
1.57996e-06
-2.0292e-06
1.71303e-06
-2.45893e-06
1.70116e-06
-2.76159e-06
1.59142e-06
-3.00853e-06
1.43686e-06
-3.22986e-06
1.27844e-06
-3.43908e-06
1.13086e-06
-3.64013e-06
1.00044e-06
-3.83383e-06
8.88734e-07
-4.01996e-06
7.94623e-07
-4.19799e-06
7.15424e-07
-4.36738e-06
6.47988e-07
-4.5275e-06
5.88979e-07
-4.67752e-06
5.35257e-07
-4.81633e-06
4.83977e-07
-4.94251e-06
4.32746e-07
-5.05427e-06
3.79707e-07
-5.14966e-06
3.23604e-07
-5.22671e-06
2.6385e-07
-5.28366e-06
2.00548e-07
-5.31907e-06
1.34382e-07
-5.33197e-06
6.65e-08
-5.32232e-06
-1.72318e-09
-5.29062e-06
-6.7702e-08
-5.238e-06
-1.30642e-07
-5.16633e-06
-1.88928e-07
-5.07772e-06
-2.41578e-07
-4.97446e-06
-2.88154e-07
-4.85868e-06
-3.28891e-07
-4.73224e-06
-3.64591e-07
-4.59646e-06
-3.96531e-07
-4.45211e-06
-4.26301e-07
-4.29925e-06
-4.55622e-07
-4.13736e-06
-4.86131e-07
-3.96539e-06
-5.19127e-07
-3.78203e-06
-5.55275e-07
-3.58602e-06
-5.94367e-07
-3.37655e-06
-6.35224e-07
-3.1536e-06
-6.7573e-07
-2.91825e-06
-7.13096e-07
-2.67272e-06
-7.4444e-07
-2.42002e-06
-7.67562e-07
-2.16351e-06
-7.81369e-07
-1.90637e-06
-7.85894e-07
-1.65124e-06
-7.82128e-07
-1.40009e-06
-7.71466e-07
-1.1543e-06
-7.5552e-07
-9.14565e-07
-7.36009e-07
-6.81238e-07
-7.14198e-07
-4.54597e-07
-6.90585e-07
-2.3491e-07
-6.65677e-07
-2.23792e-08
-6.39614e-07
1.83355e-07
-6.13534e-07
3.80708e-07
-5.85345e-07
5.69413e-07
-5.55709e-07
7.48825e-07
-5.24515e-07
9.18198e-07
-4.91631e-07
1.07669e-06
-4.56891e-07
1.22339e-06
-4.20198e-07
1.35734e-06
-3.81629e-07
1.47759e-06
-3.41512e-07
1.58325e-06
-3.00483e-07
1.67378e-06
-2.59573e-07
1.74936e-06
-2.20266e-07
1.81121e-06
-1.84248e-07
1.86157e-06
-1.52763e-07
1.90319e-06
-1.26196e-07
1.93867e-06
-1.04201e-07
1.96996e-06
-8.58022e-08
1.99848e-06
-6.95878e-08
2.0252e-06
-5.43079e-08
2.05056e-06
-3.91925e-08
2.07458e-06
-2.3925e-08
2.09714e-06
-8.42203e-09
2.11749e-06
6.92033e-09
2.13475e-06
2.17327e-08
2.14813e-06
3.53894e-08
2.15714e-06
4.72537e-08
2.16159e-06
5.68145e-08
2.16167e-06
6.37001e-08
2.15784e-06
6.78562e-08
2.15072e-06
6.94692e-08
2.14105e-06
6.89079e-08
2.12961e-06
6.66336e-08
2.11716e-06
6.31227e-08
2.10438e-06
5.88147e-08
2.09183e-06
5.4084e-08
2.07992e-06
4.92305e-08
2.06888e-06
4.448e-08
2.05883e-06
3.99899e-08
2.04978e-06
3.58568e-08
2.04167e-06
3.2128e-08
2.03441e-06
2.88122e-08
2.02788e-06
2.58911e-08
2.02199e-06
2.33232e-08
2.01667e-06
2.10562e-08
2.01188e-06
1.90235e-08
2.00764e-06
1.71743e-08
2.004e-06
1.54497e-08
2.00104e-06
1.3846e-08
1.99884e-06
1.23242e-08
1.99746e-06
1.09782e-08
1.99695e-06
9.76022e-09
1.99727e-06
8.94583e-09
1.99841e-06
8.36312e-09
2.00017e-06
8.64997e-09
2.00247e-06
9.14427e-09
2.00497e-06
1.13851e-08
2.00754e-06
1.33669e-08
2.00974e-06
1.89667e-08
2.01132e-06
2.25947e-08
2.01206e-06
3.42521e-08
2.01084e-06
3.9108e-08
2.00918e-06
6.25568e-08
2.00161e-06
6.67691e-08
1.99837e-06
1.13144e-07
1.16451e-07
1.97565e-06
3.06465e-08
-2.82235e-08
1.31655e-07
-5.46008e-08
3.05455e-07
-1.70958e-07
5.18005e-07
-3.11878e-07
7.27099e-07
-4.30942e-07
8.96143e-07
-5.08853e-07
1.00377e-06
-5.422e-07
1.0452e-06
-5.38424e-07
1.03162e-06
-5.11085e-07
9.81459e-07
-4.71381e-07
9.15328e-07
-4.31194e-07
8.50328e-07
-3.9709e-07
7.96235e-07
-3.69928e-07
7.57174e-07
-3.49031e-07
7.34212e-07
-3.33262e-07
7.25896e-07
-3.21442e-07
7.29968e-07
-3.12638e-07
7.44403e-07
-3.06263e-07
7.67782e-07
-3.01933e-07
7.99219e-07
-2.99124e-07
8.38249e-07
-2.97188e-07
8.84656e-07
-2.95353e-07
9.38373e-07
-2.92724e-07
9.992e-07
-2.88227e-07
1.06694e-06
-2.80775e-07
1.14111e-06
-2.6912e-07
1.22134e-06
-2.52518e-07
1.30725e-06
-2.30075e-07
1.3982e-06
-2.00931e-07
1.49374e-06
-1.64335e-07
1.59358e-06
-1.20559e-07
1.69816e-06
-6.8996e-08
1.80652e-06
-1.00627e-08
1.91963e-06
5.57279e-08
2.03692e-06
1.28219e-07
2.15868e-06
2.0472e-07
2.28503e-06
2.86602e-07
2.4104e-06
3.68238e-07
2.53585e-06
4.50393e-07
2.64701e-06
5.26358e-07
2.73089e-06
5.85544e-07
2.78316e-06
6.39645e-07
2.79675e-06
6.8584e-07
2.7683e-06
7.06559e-07
2.70411e-06
7.00178e-07
2.61263e-06
6.69428e-07
2.49667e-06
6.05346e-07
2.36887e-06
5.08251e-07
2.238e-06
3.79202e-07
2.10038e-06
2.38634e-07
1.95905e-06
9.3054e-08
1.83408e-06
-6.57157e-08
1.7379e-06
-1.82427e-07
1.66233e-06
-2.61393e-07
1.56035e-06
-3.27087e-07
1.44989e-06
-3.28822e-07
1.4937e-06
-4.05253e-07
1.62341e-06
-5.86197e-07
1.40597e-06
-4.25427e-07
6.5264e-07
2.5138e-07
-3.43462e-07
1.01616e-06
-1.19249e-06
1.5653e-06
-1.82771e-06
1.90165e-06
-2.26744e-06
2.01969e-06
-2.54623e-06
1.99182e-06
-2.73315e-06
1.88807e-06
-2.8818e-06
1.74008e-06
-3.02499e-06
1.58005e-06
-3.17245e-06
1.4259e-06
-3.32661e-06
1.28502e-06
-3.48589e-06
1.15972e-06
-3.64758e-06
1.05043e-06
-3.80911e-06
9.56154e-07
-3.96845e-06
8.7476e-07
-4.1239e-06
8.03444e-07
-4.27394e-06
7.39013e-07
-4.41687e-06
6.78194e-07
-4.55078e-06
6.17884e-07
-4.67342e-06
5.55386e-07
-4.78229e-06
4.88577e-07
-4.87474e-06
4.16055e-07
-4.94818e-06
3.37287e-07
-5.00033e-06
2.52698e-07
-5.02955e-06
1.63599e-07
-5.03475e-06
7.17011e-08
-5.01613e-06
-2.03391e-08
-4.97423e-06
-1.09602e-07
-4.9105e-06
-1.94372e-07
-4.82744e-06
-2.71992e-07
-4.72797e-06
-3.41047e-07
-4.61506e-06
-4.01061e-07
-4.49147e-06
-4.52486e-07
-4.35947e-06
-4.96592e-07
-4.22067e-06
-5.3533e-07
-4.07587e-06
-5.71098e-07
-3.92501e-06
-6.06478e-07
-3.76721e-06
-6.43933e-07
-3.60086e-06
-6.85475e-07
-3.42393e-06
-7.32212e-07
-3.23438e-06
-7.83915e-07
-3.03077e-06
-8.38832e-07
-2.81278e-06
-8.93725e-07
-2.58168e-06
-9.44189e-07
-2.34053e-06
-9.85589e-07
-2.0936e-06
-1.01449e-06
-1.84551e-06
-1.02947e-06
-1.60044e-06
-1.03096e-06
-1.36148e-06
-1.02109e-06
-1.13043e-06
-1.00252e-06
-9.07966e-07
-9.77979e-07
-6.93661e-07
-9.50314e-07
-4.86631e-07
-9.21228e-07
-2.85679e-07
-8.91537e-07
-8.99452e-08
-8.61411e-07
1.02481e-07
-8.3204e-07
2.90544e-07
-8.01598e-07
4.74652e-07
-7.69453e-07
6.5426e-07
-7.35316e-07
8.28477e-07
-6.98732e-07
9.96036e-07
-6.5919e-07
1.15535e-06
-6.16201e-07
1.30465e-06
-5.69506e-07
1.44237e-06
-5.19347e-07
1.56741e-06
-4.66549e-07
1.67919e-06
-4.12266e-07
1.7772e-06
-3.5758e-07
1.86046e-06
-3.03523e-07
1.9278e-06
-2.51596e-07
1.9791e-06
-2.04063e-07
2.01623e-06
-1.63325e-07
2.04278e-06
-1.30746e-07
2.06285e-06
-1.05878e-07