/*--------------------------------*- C++ -*----------------------------------*\
  =========                 |
  \\      /  F ield         | OpenFOAM: The Open Source CFD Toolbox
   \\    /   O peration     | Website:  https://openfoam.org
    \\  /    A nd           | Version:  7
     \\/     M anipulation  |
\*---------------------------------------------------------------------------*/
FoamFile
{
    version     2.0;
    format      ascii;
    class       volScalarField;
    location    "0.079";
    object      pMean;
}
// * * * * * * * * * * * * * * * * * * * * * * * * * * * * * * * * * * * * * //

dimensions      [0 2 -2 0 0 0 0];

internalField   nonuniform List<scalar> 
12225
(
-2.46457
-1.31177
-0.878751
-0.76668
-0.710176
-0.669871
-0.647583
-0.646466
-0.663012
-0.689952
-0.720022
-0.748666
-0.77347
-0.797126
-0.821846
-0.866194
-0.934216
-1.14466
-2.13917
-1.30054
-0.882581
-0.762983
-0.710955
-0.673326
-0.651046
-0.648746
-0.663975
-0.689648
-0.718856
-0.746381
-0.771321
-0.792945
-0.820218
-0.852654
-0.923848
-1.00057
-1.96909
-1.31967
-0.906138
-0.765095
-0.713281
-0.677555
-0.654003
-0.648792
-0.660585
-0.683114
-0.709565
-0.735893
-0.759771
-0.783403
-0.808323
-0.84418
-0.892529
-0.965327
-1.77314
-1.28433
-0.905597
-0.754076
-0.704154
-0.673495
-0.651635
-0.644963
-0.654342
-0.674433
-0.699309
-0.724452
-0.748863
-0.7723
-0.799173
-0.831391
-0.876249
-0.933155
-1.60504
-1.24793
-0.910881
-0.751386
-0.698018
-0.670469
-0.650357
-0.642429
-0.649128
-0.666751
-0.68961
-0.713767
-0.737508
-0.761619
-0.787931
-0.819502
-0.858764
-0.905314
-1.44653
-1.19388
-0.903552
-0.743058
-0.685018
-0.660266
-0.643423
-0.635703
-0.640632
-0.656153
-0.677524
-0.700841
-0.724471
-0.748678
-0.774887
-0.805195
-0.840565
-0.881568
-1.30357
-1.12997
-0.887705
-0.733318
-0.670819
-0.647685
-0.634327
-0.627823
-0.631575
-0.645209
-0.665018
-0.687491
-0.710822
-0.735035
-0.760999
-0.790068
-0.822855
-0.859694
-1.17199
-1.05731
-0.861257
-0.71872
-0.653619
-0.630922
-0.620741
-0.616169
-0.619583
-0.631853
-0.650503
-0.67235
-0.695446
-0.719566
-0.745213
-0.773372
-0.804353
-0.838494
-1.04985
-0.97953
-0.824985
-0.698269
-0.633577
-0.610772
-0.603246
-0.601211
-0.605269
-0.616745
-0.634355
-0.655617
-0.678601
-0.702726
-0.728175
-0.755632
-0.785308
-0.817561
-0.937947
-0.898605
-0.779163
-0.670601
-0.609599
-0.586989
-0.581532
-0.58211
-0.587482
-0.598944
-0.616027
-0.636857
-0.659685
-0.683777
-0.709084
-0.736048
-0.764829
-0.795743
-0.832117
-0.81555
-0.725168
-0.635526
-0.581023
-0.559631
-0.555941
-0.55915
-0.566458
-0.578535
-0.595489
-0.616174
-0.639044
-0.66324
-0.68851
-0.715137
-0.743209
-0.773024
-0.738482
-0.736948
-0.668508
-0.595909
-0.54934
-0.530486
-0.528564
-0.534084
-0.543505
-0.556775
-0.574136
-0.594873
-0.617816
-0.642147
-0.667469
-0.693905
-0.721474
-0.750428
-0.647575
-0.658336
-0.608001
-0.550918
-0.513042
-0.497841
-0.498042
-0.505871
-0.51747
-0.532292
-0.550478
-0.571674
-0.594948
-0.619538
-0.644978
-0.67131
-0.698447
-0.72661
-0.538241
-0.564562
-0.532616
-0.491514
-0.464216
-0.454724
-0.45828
-0.469051
-0.483531
-0.50063
-0.520259
-0.542242
-0.566009
-0.590984
-0.616687
-0.643024
-0.669821
-0.697223
-0.420478
-0.4578
-0.440634
-0.414955
-0.399807
-0.398185
-0.406703
-0.421232
-0.439021
-0.459003
-0.480908
-0.504536
-0.529442
-0.555171
-0.581295
-0.607709
-0.634218
-0.660941
-0.292466
-0.332273
-0.326827
-0.316212
-0.314702
-0.323174
-0.338701
-0.358549
-0.38088
-0.40475
-0.429761
-0.455705
-0.482303
-0.509273
-0.536271
-0.56315
-0.589672
-0.61582
-0.144619
-0.185021
-0.187634
-0.191209
-0.204557
-0.225326
-0.250167
-0.277208
-0.3055
-0.334543
-0.363984
-0.393544
-0.422948
-0.451987
-0.480449
-0.508262
-0.535293
-0.561621
0.0551728
0.00199802
-0.0160032
-0.0354373
-0.0644811
-0.0996243
-0.136657
-0.173584
-0.209823
-0.245335
-0.280096
-0.31401
-0.346904
-0.378707
-0.409325
-0.438756
-0.466829
-0.493554
0.315256
0.246259
0.208083
0.167886
0.118626
0.0644947
0.0105304
-0.0410128
-0.0898154
-0.13618
-0.180257
-0.221989
-0.261251
-0.298052
-0.332495
-0.364852
-0.395271
-0.424017
0.568721
0.491952
0.435335
0.370602
0.296977
0.22262
0.153475
0.0907281
0.0330981
-0.0208582
-0.0718191
-0.119862
-0.164861
-0.206833
-0.245861
-0.282131
-0.315753
-0.346974
0.810645
0.720931
0.63944
0.54419
0.441917
0.343944
0.255797
0.177272
0.106343
0.0414778
-0.017833
-0.0717449
-0.120624
-0.165118
-0.205869
-0.243492
-0.278292
-0.310617
1.05624
0.944732
0.828724
0.699068
0.572608
0.461404
0.36606
0.281324
0.202944
0.129764
0.0623787
0.00128425
-0.053769
-0.103541
-0.148783
-0.190178
-0.228176
-0.263202
1.3329
1.17429
0.999237
0.817944
0.65599
0.522784
0.412942
0.317423
0.23121
0.15321
0.0835121
0.0216593
-0.0334511
-0.0831755
-0.128504
-0.170022
-0.207977
-0.242754
1.61452
1.40695
1.16959
0.94728
0.769364
0.631112
0.514008
0.405856
0.305335
0.215327
0.137113
0.0692902
0.00947614
-0.0442261
-0.0928872
-0.137191
-0.177589
-0.21462
1.89332
1.59837
1.25873
0.980429
0.786748
0.646913
0.527039
0.415462
0.313566
0.224295
0.147383
0.0803508
0.020724
-0.0330713
-0.0817929
-0.125957
-0.165955
-0.202347
2.26437
1.84606
1.40326
1.08539
0.884707
0.734855
0.596262
0.466275
0.352416
0.256914
0.176422
0.106524
0.044317
-0.0116061
-0.0619515
-0.107374
-0.148505
-0.186048
2.58468
1.93411
1.38551
1.07084
0.892742
0.746368
0.603405
0.470819
0.357436
0.263164
0.183241
0.11329
0.0508706
-0.00516314
-0.055497
-0.100815
-0.141754
-0.178991
3.10166
2.16008
1.46449
1.13402
0.952975
0.789025
0.630592
0.490872
0.374882
0.278932
0.197309
0.125871
0.0623619
0.00560597
-0.0452146
-0.0908487
-0.13207
-0.169596
3.32622
2.12279
1.42795
1.14399
0.965906
0.794705
0.632838
0.493416
0.378327
0.282708
0.201015
0.12946
0.065899
0.00918203
-0.041579
-0.0870459
-0.128074
-0.165165
4.13833
2.16831
1.42855
1.17776
0.987599
0.805519
0.640491
0.500534
0.384958
0.288703
0.206454
0.1345
0.070665
0.0137614
-0.0371335
-0.0826664
-0.123694
-0.160578
-0.78847
-0.80548
-0.829889
-0.849651
-0.858831
-0.859138
-0.856264
-0.858233
-0.873493
-0.908893
-0.968633
-1.05341
-1.16029
-1.28426
-1.41841
-1.55467
-1.68482
-1.80129
-1.89788
-1.97042
-2.01678
-2.03722
-2.03447
-2.0134
-1.97992
-1.94
-1.89892
-1.86114
-1.82832
-1.80217
-1.78322
-1.774
-1.77684
-1.79052
-1.81555
-1.85509
-1.9114
-1.98419
-2.06932
-2.16287
-2.26286
-2.36938
-2.47958
-2.59209
-2.70365
-2.81049
-2.91092
-3.00267
-3.08071
-3.14005
-3.1788
-3.19589
-3.19225
-3.17096
-3.1361
-3.09098
-3.0365
-2.97198
-2.89734
-2.81471
-2.72605
-2.63318
-2.54078
-2.45323
-2.37172
-2.2995
-2.24127
-2.19587
-2.15517
-2.11162
-2.05979
-1.99604
-1.91792
-1.82372
-1.71218
-1.58225
-1.43309
-1.26412
-1.07508
-0.866172
-0.638187
-0.392557
-0.131269
0.14337
0.428897
0.722833
1.02275
1.32624
1.63093
1.93444
2.23444
2.52865
2.81483
3.09092
3.35507
3.60572
3.84165
4.06202
4.26637
4.45454
4.6266
4.7827
4.92302
5.0478
5.1573
5.25187
5.33196
5.39819
5.45136
5.49243
5.52247
5.54266
5.5542
5.55828
5.55604
5.54854
5.53674
5.5215
5.50358
5.48361
5.46216
5.4397
5.41666
5.39336
5.37009
5.34709
5.32452
5.30253
5.28121
5.26062
5.24081
5.22178
5.20353
5.18604
5.16926
5.15319
5.1378
5.12307
5.10898
5.09553
5.08268
5.07042
5.05873
5.0476
5.03698
5.02684
5.01715
5.00785
4.99893
4.99033
4.98201
4.97396
4.96613
4.95851
4.95106
4.94378
4.93665
4.92965
4.92279
4.91607
4.90948
4.90306
4.8968
4.89074
4.88492
4.8794
4.87422
4.86951
4.86535
4.86195
4.85943
4.85825
4.85852
4.86119
4.86636
4.87597
4.89028
4.91317
4.94746
4.99261
-0.871773
-0.891104
-0.921503
-0.945689
-0.957992
-0.958847
-0.957356
-0.960692
-0.978922
-1.0186
-1.08338
-1.17325
-1.2851
-1.41358
-1.55167
-1.69147
-1.82501
-1.94488
-2.04472
-2.11958
-2.16641
-2.18489
-2.17759
-2.14967
-2.10794
-2.05985
-2.01186
-1.96898
-1.93449
-1.91082
-1.89986
-1.90077
-1.91441
-1.94224
-1.98121
-2.0285
-2.08955
-2.16934
-2.25946
-2.34993
-2.44822
-2.56005
-2.67765
-2.79667
-2.91595
-3.02639
-3.12496
-3.21216
-3.28299
-3.33337
-3.36235
-3.37061
-3.35959
-3.33141
-3.28977
-3.23816
-3.17757
-3.10765
-3.02911
-2.94386
-2.85409
-2.76042
-2.66533
-2.57738
-2.49982
-2.42883
-2.36744
-2.31488
-2.26509
-2.21198
-2.15101
-2.07907
-1.99398
-1.89408
-1.77798
-1.64438
-1.49208
-1.32013
-1.12809
-0.916175
-0.6853
-0.436921
-0.172958
0.104285
0.392325
0.688639
0.990766
1.29629
1.60288
1.90819
2.20994
2.50582
2.79363
3.07126
3.33684
3.58877
3.82584
4.04721
4.25244
4.44142
4.61426
4.77113
4.91225
5.03784
5.14817
5.24354
5.32439
5.39133
5.44514
5.48679
5.51735
5.53801
5.54998
5.55445
5.55258
5.54541
5.53392
5.51897
5.50129
5.48154
5.46027
5.43798
5.41507
5.39189
5.36872
5.3458
5.32331
5.30139
5.28014
5.25961
5.23986
5.22088
5.20269
5.18524
5.16853
5.15253
5.13722
5.12256
5.10855
5.09516
5.08237
5.07017
5.05854
5.04744
5.03685
5.02674
5.01706
5.00779
4.99887
4.99027
4.98197
4.97391
4.96608
4.95846
4.95101
4.94372
4.93658
4.92958
4.92271
4.91597
4.90938
4.90294
4.89666
4.89058
4.88474
4.87917
4.87395
4.86918
4.86494
4.86144
4.8588
4.85741
4.85749
4.85969
4.86453
4.873
4.8866
4.90565
4.93551
4.9614
-0.898518
-0.913074
-0.938389
-0.962763
-0.984435
-1.00392
-1.02567
-1.05581
-1.10109
-1.16652
-1.2544
-1.36406
-1.49227
-1.63377
-1.78197
-1.92945
-2.0685
-2.19173
-2.29285
-2.36704
-2.41125
-2.4254
-2.41245
-2.37757
-2.32707
-2.26754
-2.20585
-2.14871
-2.1022
-2.07146
-2.05984
-2.06776
-2.09145
-2.12774
-2.17748
-2.2429
-2.32283
-2.41666
-2.5242
-2.64178
-2.76494
-2.892
-3.01915
-3.14073
-3.25751
-3.37025
-3.47412
-3.56256
-3.63033
-3.67435
-3.69357
-3.68926
-3.66429
-3.62193
-3.56622
-3.50171
-3.43043
-3.35258
-3.26977
-3.18311
-3.09141
-2.9971
-2.90325
-2.81234
-2.72775
-2.64975
-2.57728
-2.50851
-2.4405
-2.37002
-2.29404
-2.2099
-2.11533
-2.0083
-1.88698
-1.74963
-1.59455
-1.42023
-1.2257
-1.01089
-0.776507
-0.524041
-0.255615
0.0262351
0.318821
0.619486
0.92573
1.23514
1.54541
1.85426
2.15942
2.45862
2.74963
3.0303
3.2987
3.5532
3.79253
4.01589
4.22288
4.41348
4.58786
4.74629
4.88902
5.01626
5.12823
5.22521
5.3076
5.37596
5.43107
5.4739
5.50555
5.52721
5.54011
5.54546
5.54439
5.53799
5.52722
5.51292
5.49584
5.47663
5.45585
5.43399
5.41146
5.38861
5.36574
5.34309
5.32083
5.29912
5.27806
5.25772
5.23813
5.21932
5.20129
5.18401
5.16745
5.1516
5.13644
5.12193
5.10805
5.09479
5.08212
5.07002
5.05847
5.04744
5.0369
5.02682
5.01717
5.0079
4.99898
4.99038
4.98206
4.97399
4.96614
4.9585
4.95103
4.94372
4.93656
4.92954
4.92265
4.91589
4.90926
4.90278
4.89646
4.89033
4.88441
4.87877
4.87344
4.86853
4.86413
4.86037
4.85746
4.85561
4.8552
4.8565
4.86037
4.8668
4.87796
4.89164
4.91362
4.92742
-0.896589
-0.901782
-0.91501
-0.942951
-0.982358
-1.03008
-1.08664
-1.15456
-1.2368
-1.33577
-1.45253
-1.58646
-1.73501
-1.89366
-2.05628
-2.21563
-2.36393
-2.49345
-2.59767
-2.67125
-2.71138
-2.71861
-2.69686
-2.6524
-2.5924
-2.52449
-2.45592
-2.39373
-2.34369
-2.31251
-2.30139
-2.30887
-2.33368
-2.37487
-2.43223
-2.50677
-2.59889
-2.7072
-2.82899
-2.96111
-3.09964
-3.24041
-3.38073
-3.51889
-3.65287
-3.77944
-3.89374
-3.98967
-4.06192
-4.10675
-4.12252
-4.10998
-4.07234
-4.01386
-3.93946
-3.85458
-3.76345
-3.66895
-3.57364
-3.47853
-3.38192
-3.28242
-3.18323
-3.08619
-2.99219
-2.90175
-2.81476
-2.73028
-2.64664
-2.56172
-2.47314
-2.37852
-2.27556
-2.16211
-2.03609
-1.8954
-1.73784
-1.56134
-1.36427
-1.14599
-0.906976
-0.648843
-0.37405
-0.0855304
0.213673
0.520659
0.832836
1.1478
1.46328
1.77709
2.08704
2.39088
2.68638
2.97134
3.24374
3.50185
3.74437
3.9705
4.17992
4.37274
4.54927
4.70988
4.85486
4.98442
5.09873
5.19801
5.2826
5.35301
5.41002
5.45459
5.48784
5.51098
5.52527
5.53193
5.5321
5.52688
5.5172
5.50391
5.48776
5.46938
5.44934
5.42814
5.40619
5.38385
5.36142
5.33915
5.31724
5.29583
5.27505
5.25496
5.23561
5.21702
5.19919
5.1821
5.16574
5.15007
5.13508
5.12074
5.10702
5.0939
5.08137
5.06938
5.05793
5.04699
5.03652
5.0265
5.01689
5.00766
4.99877
4.99019
4.98188
4.97383
4.96599
4.95835
4.95088
4.94357
4.9364
4.92936
4.92245
4.91567
4.90901
4.9025
4.89613
4.88994
4.88395
4.87821
4.87277
4.86769
4.86309
4.85906
4.8558
4.85345
4.85241
4.85275
4.85535
4.85977
4.86792
4.87698
4.89093
4.89475
-0.908603
-0.910818
-0.928592
-0.966177
-1.02296
-1.09591
-1.18161
-1.27933
-1.39062
-1.51742
-1.66067
-1.81958
-1.99131
-2.17113
-2.35261
-2.52809
-2.68921
-2.82771
-2.93665
-3.01017
-3.04614
-3.04649
-3.01678
-2.9645
-2.89787
-2.8249
-2.753
-2.68891
-2.63828
-2.60592
-2.59437
-2.6037
-2.63295
-2.68176
-2.7501
-2.83794
-2.94433
-3.06708
-3.20325
-3.34912
-3.50037
-3.65329
-3.80518
-3.9537
-4.09644
-4.23048
-4.35199
-4.45595
-4.53675
-4.58909
-4.60888
-4.59478
-4.54875
-4.47525
-4.38066
-4.2723
-4.15688
-4.04039
-3.9274
-3.81748
-3.70807
-3.59844
-3.48891
-3.38039
-3.27367
-3.1695
-3.06831
-2.9698
-2.87303
-2.7764
-2.67787
-2.57512
-2.46576
-2.34753
-2.21819
-2.07544
-1.91671
-1.73927
-1.54049
-1.31866
-1.07409
-0.808724
-0.525587
-0.22822
0.0797858
0.395157
0.715091
1.03714
1.35915
1.67906
1.99483
2.30433
2.60534
2.89562
3.17304
3.43572
3.6823
3.91196
4.12447
4.3201
4.49931
4.66262
4.81039
4.94284
5.06009
5.16225
5.2496
5.3226
5.382
5.42878
5.46407
5.48912
5.5052
5.51356
5.51537
5.51168
5.50345
5.49151
5.47659
5.45934
5.44032
5.42003
5.39889
5.37725
5.35544
5.33371
5.31228
5.2913
5.2709
5.25116
5.23214
5.21385
5.19631
5.1795
5.1634
5.148
5.13325
5.11913
5.10562
5.0927
5.08033
5.0685
5.05719
5.04636
5.03599
5.02605
5.01651
5.00733
4.99848
4.98994
4.98166
4.97362
4.96579
4.95815
4.95069
4.94337
4.93619
4.92914
4.92222
4.91541
4.90872
4.90216
4.89574
4.88949
4.88341
4.87756
4.87198
4.86672
4.86188
4.85754
4.85388
4.85098
4.84921
4.84853
4.84965
4.85205
4.85697
4.8618
4.86826
4.86519
-0.942139
-0.94827
-0.977089
-1.03045
-1.10462
-1.19407
-1.2973
-1.41538
-1.54978
-1.70122
-1.86941
-2.05236
-2.24633
-2.44599
-2.64466
-2.83453
-3.00707
-3.15376
-3.26694
-3.34146
-3.37588
-3.37331
-3.34031
-3.28551
-3.21814
-3.14651
-3.07787
-3.01873
-2.9744
-2.94872
-2.94405
-2.96107
-2.9999
-3.06061
-3.14267
-3.24502
-3.36562
-3.50166
-3.64953
-3.80515
-3.96451
-4.12417
-4.28154
-4.43458
-4.58115
-4.71849
-4.84285
-4.94927
-5.03197
-5.08525
-5.10476
-5.08839
-5.03676
-4.95365
-4.8448
-4.71795
-4.58204
-4.4453
-4.31222
-4.18304
-4.05602
-3.93028
-3.80566
-3.68252
-3.56141
-3.44296
-3.32767
-3.21576
-3.10693
-3.0002
-2.89379
-2.7852
-2.67164
-2.55049
-2.41948
-2.27633
-2.11826
-1.94173
-1.74281
-1.5185
-1.26843
-0.994923
-0.701891
-0.393765
-0.0749776
0.250548
0.579668
0.909907
1.23923
1.5658
1.88782
2.20336
2.51032
2.80644
3.08948
3.35739
3.60867
3.84247
4.05864
4.25757
4.43993
4.60636
4.75736
4.89316
5.01379
5.11929
5.20982
5.28582
5.34802
5.39738
5.43506
5.46238
5.48063
5.49105
5.49481
5.49297
5.48646
5.47613
5.46271
5.44684
5.42909
5.40995
5.38982
5.36909
5.34807
5.32704
5.30621
5.28577
5.26585
5.24656
5.22793
5.21002
5.19283
5.17635
5.16057
5.14545
5.13097
5.1171
5.10383
5.09111
5.07894
5.06729
5.05612
5.04543
5.03518
5.02534
5.01588
5.00677
4.99798
4.98948
4.98124
4.97323
4.96542
4.95781
4.95035
4.94304
4.93586
4.92881
4.92187
4.91504
4.90832
4.90172
4.89525
4.88892
4.88275
4.87678
4.87105
4.86559
4.8605
4.85582
4.85172
4.84824
4.84566
4.84393
4.84351
4.8439
4.84568
4.84667
4.84695
4.83866
-0.975472
-0.997041
-1.0434
-1.11099
-1.19615
-1.29663
-1.41275
-1.54609
-1.69827
-1.86914
-2.05665
-2.2573
-2.46658
-2.67911
-2.88873
-3.08832
-3.2694
-3.4233
-3.54221
-3.62129
-3.65973
-3.66101
-3.63222
-3.58281
-3.52243
-3.4599
-3.40278
-3.35719
-3.32792
-3.31829
-3.33007
-3.3637
-3.4191
-3.49565
-3.59224
-3.70734
-3.83882
-3.98397
-4.13968
-4.30247
-4.46877
-4.63565
-4.80081
-4.96199
-5.11638
-5.26052
-5.39013
-5.49998
-5.58431
-5.63787
-5.65665
-5.63761
-5.58011
-5.48625
-5.36147
-5.21436
-5.05526
-4.89334
-4.73378
-4.57811
-4.42621
-4.27795
-4.1333
-3.99225
-3.85472
-3.72065
-3.59026
-3.46413
-3.34294
-3.22657
-3.1136
-3.00122
-2.88582
-2.76388
-2.63281
-2.49066
-2.33466
-2.16065
-1.9636
-1.73885
-1.48435
-1.20248
-0.898417
-0.57796
-0.246666
0.090699
0.430551
0.770275
1.1079
1.44178
1.7704
2.09213
2.40508
2.70709
2.99582
3.26912
3.52533
3.76353
3.98358
4.18606
4.37178
4.54164
4.69623
4.83579
4.96026
5.06953
5.16366
5.24302
5.30834
5.36061
5.40107
5.43105
5.45183
5.46466
5.47069
5.47097
5.46643
5.45793
5.4462
5.4319
5.4156
5.39778
5.37886
5.35921
5.33915
5.31896
5.29888
5.2791
5.25977
5.241
5.22286
5.20539
5.18861
5.17251
5.15708
5.1423
5.12816
5.1146
5.10161
5.08915
5.07721
5.06576
5.05478
5.04425
5.03414
5.02442
5.01507
5.00605
4.99733
4.9889
4.98071
4.97274
4.96497
4.95738
4.94994
4.94264
4.93547
4.92841
4.92146
4.91461
4.90786
4.90122
4.89469
4.88828
4.88202
4.87592
4.87002
4.86436
4.85899
4.85396
4.84938
4.8453
4.84188
4.83906
4.83708
4.83549
4.83435
4.83187
4.82713
4.81464
-1.01531
-1.05027
-1.11558
-1.19232
-1.28226
-1.38777
-1.51187
-1.65601
-1.82012
-2.00194
-2.19837
-2.40579
-2.6203
-2.83791
-3.05375
-3.26125
-3.45182
-3.61576
-3.74523
-3.83509
-3.88446
-3.89695
-3.87999
-3.84351
-3.79797
-3.75283
-3.71572
-3.69242
-3.68683
-3.70107
-3.73563
-3.79006
-3.86359
-3.95534
-4.06456
-4.19035
-4.33159
-4.48675
-4.65378
-4.82999
-5.01245
-5.19834
-5.38461
-5.56779
-5.74386
-5.90791
-6.05382
-6.17474
-6.26407
-6.31614
-6.32634
-6.2923
-6.21437
-6.09581
-5.94318
-5.76572
-5.57425
-5.37875
-5.18534
-4.99721
-4.81565
-4.641
-4.47298
-4.31093
-4.15408
-4.00194
-3.85465
-3.71317
-3.57872
-3.45195
-3.33226
-3.21737
-3.10301
-2.98387
-2.8559
-2.71692
-2.56422
-2.39362
-2.19986
-1.97689
-1.71982
-1.4302
-1.11432
-0.779952
-0.434231
-0.0829529
0.269685
0.620747
0.968183
1.31051
1.64642
1.97458
2.29343
2.60103
2.89513
3.17352
3.43437
3.67668
3.90036
4.10617
4.29522
4.46866
4.6272
4.77101
4.89983
5.01335
5.11149
5.19458
5.26337
5.31895
5.36258
5.3956
5.4193
5.43489
5.4435
5.44617
5.44383
5.43734
5.42746
5.41486
5.40013
5.38376
5.36618
5.34775
5.3288
5.30959
5.29038
5.27138
5.25275
5.2346
5.21703
5.20008
5.18378
5.16813
5.15313
5.13874
5.12495
5.11172
5.09903
5.08686
5.07517
5.06395
5.05318
5.04283
5.03287
5.0233
5.01406
5.00515
4.99652
4.98816
4.98004
4.97212
4.9644
4.95684
4.94943
4.94215
4.93499
4.92793
4.92097
4.9141
4.90732
4.90063
4.89404
4.88756
4.88119
4.87496
4.86889
4.86301
4.85735
4.85195
4.84688
4.84217
4.83789
4.83398
4.83049
4.82698
4.82318
4.81758
4.80881
4.79289
-1.09584
-1.13263
-1.19395
-1.26576
-1.35335
-1.45959
-1.58607
-1.73291
-1.89908
-2.0821
-2.27899
-2.48668
-2.70233
-2.92309
-3.14538
-3.36268
-3.56527
-3.74264
-3.88598
-3.99015
-4.05445
-4.08287
-4.08343
-4.06674
-4.04378
-4.02392
-4.01429
-4.01973
-4.04274
-4.08377
-4.1419
-4.21589
-4.30511
-4.40989
-4.53123
-4.67
-4.82662
-5.00085
-5.19154
-5.39638
-5.6122
-5.83502
-6.05983
-6.28098
-6.49207
-6.68548
-6.85267
-6.98521
-7.07561
-7.11808
-7.10927
-7.04815
-6.93673
-6.78019
-6.58649
-6.36636
-6.13196
-5.8939
-5.65985
-5.43442
-5.21958
-5.01553
-4.82142
-4.63602
-4.45812
-4.28675
-4.12159
-3.96364
-3.8149
-3.67723
-3.55094
-3.43417
-3.32268
-3.20956
-3.08864
-2.95651
-2.81006
-2.64461
-2.45451
-2.23297
-1.97333
-1.67581
-1.3472
-0.997315
-0.635095
-0.267697
0.099814
0.464115
0.823031
1.17506
1.51906
1.85399
2.17861
2.49138
2.79025
3.07302
3.33773
3.58337
3.81002
4.01873
4.21097
4.38814
4.55101
4.69959
4.83327
4.95144
5.05387
5.14094
5.21348
5.27268
5.31984
5.3563
5.3833
5.40202
5.41353
5.41884
5.4189
5.41458
5.40667
5.39588
5.38282
5.36799
5.35183
5.33472
5.31698
5.29888
5.28066
5.26255
5.24471
5.22729
5.21038
5.19403
5.17828
5.16314
5.1486
5.13464
5.12125
5.1084
5.09606
5.08421
5.07281
5.06185
5.0513
5.04115
5.03139
5.02197
5.01288
5.00408
4.99556
4.98729
4.97924
4.9714
4.96372
4.95621
4.94883
4.94158
4.93443
4.92737
4.92041
4.91352
4.90671
4.89998
4.89333
4.88677
4.8803
4.87393
4.86769
4.86157
4.85562
4.84984
4.84427
4.83891
4.83378
4.82879
4.82384
4.81851
4.81232
4.80396
4.79191
4.77319
-1.16921
-1.19875
-1.24716
-1.31167
-1.39502
-1.49848
-1.62322
-1.76891
-1.93386
-2.11511
-2.30957
-2.51457
-2.72839
-2.94974
-3.17586
-3.40035
-3.61304
-3.80269
-3.96053
-4.08202
-4.16686
-4.21906
-4.24661
-4.25944
-4.26759
-4.27972
-4.30203
-4.3379
-4.38819
-4.45211
-4.52874
-4.61795
-4.72086
-4.83977
-4.97786
-5.13831
-5.32303
-5.53234
-5.76457
-6.01615
-6.28196
-6.55564
-6.83002
-7.09738
-7.34908
-7.57536
-7.76589
-7.9109
-8.00236
-8.03459
-8.00412
-7.91069
-7.75774
-7.55236
-7.30534
-7.03006
-6.74025
-6.44826
-6.16353
-5.8921
-5.63671
-5.39757
-5.17337
-4.96221
-4.76214
-4.57149
-4.38936
-4.21633
-4.05471
-3.90718
-3.77514
-3.65745
-3.55017
-3.44532
-3.33441
-3.21222
-3.07473
-2.91627
-2.73
-2.50871
-2.24483
-1.93755
-1.59442
-1.22669
-0.845385
-0.459363
-0.0747911
0.304552
0.676375
1.03916
1.39182
1.73366
2.06389
2.3813
2.6841
2.97018
3.23762
3.48563
3.71455
3.92582
4.12127
4.30242
4.47
4.62364
4.76236
4.88527
4.99203
5.08309
5.15946
5.2224
5.27331
5.31347
5.34408
5.36622
5.38089
5.38909
5.39175
5.38976
5.38396
5.37508
5.36376
5.35056
5.33591
5.3202
5.30376
5.28686
5.26975
5.25263
5.2357
5.21909
5.20292
5.18725
5.17213
5.15757
5.14356
5.13009
5.11715
5.10472
5.09276
5.08125
5.07016
5.05948
5.04919
5.03927
5.0297
5.02046
5.01152
5.00287
4.99447
4.9863
4.97834
4.97057
4.96296
4.95549
4.94816
4.94093
4.9338
4.92676
4.91979
4.91289
4.90605
4.89928
4.89256
4.88592
4.87934
4.87283
4.8664
4.86006
4.8538
4.84764
4.84157
4.83557
4.8296
4.82354
4.81722
4.81019
4.80186
4.79109
4.77635
4.75531
-1.20141
-1.22539
-1.26752
-1.32711
-1.40707
-1.50824
-1.63172
-1.7768
-1.94112
-2.12155
-2.31512
-2.51941
-2.733
-2.95505
-3.18319
-3.41124
-3.62981
-3.82844
-3.99938
-4.13907
-4.24786
-4.32924
-4.3897
-4.43733
-4.48028
-4.52551
-4.57791
-4.63985
-4.71169
-4.79314
-4.88474
-4.98873
-5.10885
-5.2499
-5.41672
-5.6131
-5.84079
-6.09902
-6.38407
-6.68995
-7.00975
-7.33613
-7.66117
-7.97633
-8.27149
-8.5348
-8.75318
-8.91428
-9.00831
-9.02894
-8.9734
-8.84305
-8.64351
-8.38447
-8.07905
-7.74256
-7.39067
-7.03785
-6.69557
-6.37151
-6.06948
-5.79017
-5.53226
-5.29339
-5.07072
-4.86153
-4.66383
-4.47743
-4.30455
-4.14882
-4.01263
-3.89543
-3.79307
-3.69687
-3.59657
-3.48556
-3.35836
-3.2076
-3.02486
-2.80202
-2.53116
-2.2115
-1.85118
-1.46296
-1.06
-0.6531
-0.249646
0.146086
0.531702
0.905746
1.26732
1.61603
1.95144
2.27278
2.57844
2.86659
3.13564
3.38523
3.6161
3.83003
4.02903
4.21459
4.38706
4.54569
4.68914
4.81635
4.92712
5.02204
5.10216
5.16886
5.22354
5.26752
5.3019
5.32764
5.34566
5.3569
5.36229
5.36277
5.35919
5.35234
5.3429
5.33141
5.31837
5.30416
5.28912
5.27352
5.25761
5.24161
5.22568
5.20999
5.19464
5.17973
5.16531
5.15139
5.13797
5.12505
5.11261
5.10063
5.08909
5.07796
5.06721
5.05685
5.04683
5.03716
5.02782
5.01877
5.01001
5.00151
4.99325
4.98519
4.97733
4.96964
4.9621
4.9547
4.94741
4.94022
4.93311
4.92608
4.91911
4.9122
4.90534
4.89852
4.89175
4.88502
4.87833
4.87168
4.86507
4.85849
4.85193
4.84538
4.83881
4.83218
4.8254
4.81833
4.81071
4.80211
4.79188
4.77899
4.76202
4.73907
-1.20419
-1.22494
-1.26368
-1.32082
-1.39976
-1.50135
-1.62667
-1.77512
-1.94452
-2.13169
-2.33316
-2.54586
-2.7677
-2.99718
-3.23165
-3.46545
-3.69053
-3.89841
-4.08257
-4.23971
-4.36981
-4.47549
-4.5619
-4.63589
-4.7045
-4.77378
-4.84793
-4.92931
-5.01906
-5.11823
-5.22916
-5.3557
-5.50283
-5.67593
-5.87951
-6.11625
-6.38631
-6.68746
-7.01505
-7.36299
-7.7248
-8.09359
-8.46133
-8.81816
-9.15121
-9.44494
-9.68356
-9.85356
-9.94529
-9.95299
-9.87508
-9.71404
-9.47668
-9.17416
-8.82073
-8.43313
-8.02862
-7.62332
-7.23023
-6.85835
-6.51269
-6.19482
-5.90395
-5.63765
-5.39251
-5.16484
-4.95164
-4.75224
-4.56889
-4.40572
-4.26609
-4.14972
-4.05174
-3.96264
-3.87159
-3.77048
-3.65211
-3.50744
-3.32639
-3.09957
-2.81903
-2.48501
-2.10645
-1.69717
-1.27179
-0.842985
-0.419709
-0.00692825
0.39272
0.77788
1.14801
1.50299
1.84274
2.16682
2.47405
2.76309
3.03296
3.28379
3.51676
3.73383
3.93694
4.1272
4.30446
4.46755
4.61493
4.7458
4.86012
4.95859
5.04232
5.1127
5.17115
5.21895
5.25713
5.28655
5.30802
5.32241
5.33062
5.33363
5.33235
5.32761
5.32012
5.31047
5.29915
5.28657
5.27304
5.25886
5.24427
5.22948
5.21467
5.2
5.18558
5.17151
5.15785
5.14463
5.13186
5.11954
5.10764
5.09616
5.08507
5.07436
5.06399
5.05397
5.04426
5.03486
5.02576
5.01693
5.00836
5.00003
4.99191
4.98398
4.97623
4.96863
4.96117
4.95383
4.9466
4.93945
4.93238
4.92536
4.9184
4.91148
4.90459
4.89773
4.8909
4.88408
4.87728
4.87049
4.8637
4.85688
4.85002
4.84309
4.83604
4.82879
4.82124
4.81319
4.80437
4.79433
4.78242
4.76768
4.74885
4.7243
-1.1935
-1.21261
-1.25135
-1.30963
-1.39131
-1.49819
-1.63188
-1.79206
-1.97671
-2.18233
-2.40485
-2.6401
-2.88451
-3.1347
-3.38668
-3.63477
-3.87191
-4.09071
-4.28528
-4.45222
-4.59116
-4.70509
-4.79985
-4.88289
-4.96186
-5.04342
-5.13228
-5.23099
-5.3407
-5.4621
-5.59683
-5.7476
-5.91848
-6.1142
-6.33892
-6.59561
-6.88485
-7.20487
-7.55185
-7.92032
-8.30369
-8.6943
-9.08315
-9.45904
-9.80788
-10.1136
-10.3604
-10.535
-10.628
-10.6339
-10.5502
-10.3787
-10.1256
-9.80253
-9.42455
-9.00958
-8.57591
-8.13997
-7.71554
-7.3125
-6.93685
-6.59129
-6.27537
-5.98707
-5.72268
-5.47803
-5.24989
-5.0379
-4.84487
-4.67521
-4.53225
-4.41537
-4.31862
-4.23227
-4.14558
-4.04957
-3.93522
-3.79186
-3.60787
-3.37284
-3.08018
-2.73193
-2.33743
-1.91028
-1.46548
-1.01716
-0.575738
-0.14733
0.2649
0.659705
1.03675
1.39631
1.7388
2.06415
2.37171
2.66071
2.93089
3.18294
3.41837
3.63912
3.84674
4.04166
4.22309
4.38973
4.5403
4.67425
4.79169
4.89338
4.98049
5.05443
5.1166
5.1682
5.21016
5.24324
5.26816
5.28571
5.2968
5.30242
5.30352
5.30095
5.29549
5.28775
5.27825
5.26739
5.25551
5.24288
5.22973
5.21627
5.2027
5.18914
5.17574
5.1626
5.14978
5.13732
5.12525
5.11357
5.10226
5.09132
5.08073
5.07046
5.0605
5.05084
5.04147
5.03237
5.02354
5.01494
5.00658
4.99843
4.99047
4.98268
4.97505
4.96755
4.96018
4.95291
4.94573
4.93863
4.93159
4.9246
4.91764
4.91072
4.90381
4.89691
4.89002
4.88312
4.87621
4.86928
4.8623
4.85525
4.8481
4.8408
4.83327
4.82543
4.81714
4.80819
4.79826
4.78692
4.77351
4.75717
4.73675
4.71088
-1.18712
-1.206
-1.24687
-1.30961
-1.39908
-1.51838
-1.66988
-1.85363
-2.06766
-2.30783
-2.56887
-2.84467
-3.12899
-3.41548
-3.69789
-3.96963
-4.22342
-4.45176
-4.64856
-4.8114
-4.94221
-5.04632
-5.13153
-5.2071
-5.282
-5.36346
-5.45592
-5.56119
-5.67913
-5.80882
-5.94996
-6.10335
-6.27218
-6.4618
-6.67803
-6.92549
-7.20572
-7.51702
-7.85541
-8.21543
-8.59006
-8.97196
-9.35274
-9.72214
-10.0674
-10.3734
-10.6246
-10.8072
-10.9113
-10.9305
-10.8617
-10.7055
-10.4672
-10.1571
-9.78976
-9.38283
-8.95401
-8.51935
-8.09236
-7.68323
-7.2987
-6.94242
-6.61502
-6.31484
-6.03832
-5.78144
-5.5417
-5.31978
-5.11917
-4.94407
-4.7969
-4.67584
-4.57444
-4.48377
-4.39397
-4.29561
-4.17815
-4.0292
-3.83591
-3.58817
-3.28188
-2.92079
-2.5143
-2.07484
-1.61785
-1.15715
-0.703899
-0.265217
0.155017
0.555398
0.935978
1.29749
1.64068
1.96574
2.2725
2.56081
2.83111
3.08454
3.32283
3.54763
3.75963
3.95858
4.14334
4.31269
4.46574
4.6022
4.72228
4.8268
4.91702
4.99439
5.06023
5.11561
5.16131
5.19797
5.22625
5.24691
5.26087
5.26913
5.27268
5.27242
5.26912
5.26341
5.25582
5.24679
5.23664
5.22566
5.21407
5.20206
5.18982
5.1775
5.16521
5.15308
5.14117
5.12954
5.11822
5.10722
5.09654
5.08616
5.07608
5.06629
5.05677
5.0475
5.03849
5.02971
5.02116
5.01282
5.00468
4.99673
4.98894
4.9813
4.97379
4.96641
4.95913
4.95194
4.94483
4.93778
4.93077
4.92381
4.91686
4.90993
4.903
4.89607
4.88912
4.88215
4.87513
4.86806
4.86091
4.85363
4.84619
4.83853
4.83055
4.82215
4.81316
4.80336
4.79242
4.7799
4.76517
4.74743
4.72566
4.69868
-1.19713
-1.21692
-1.26242
-1.3337
-1.43761
-1.57831
-1.7592
-1.98091
-2.24117
-2.53426
-2.85248
-3.18679
-3.52783
-3.86631
-4.19341
-4.49988
-4.77553
-5.01088
-5.20085
-5.34599
-5.45149
-5.52563
-5.57865
-5.62129
-5.66321
-5.712
-5.7726
-5.84735
-5.9365
-6.03915
-6.15451
-6.28243
-6.42405
-6.58365
-6.76707
-6.98002
-7.22476
-7.50149
-7.80592
-8.13293
-8.47639
-8.82991
-9.186
-9.53555
-9.86739
-10.1682
-10.4234
-10.6196
-10.746
-10.7953
-10.763
-10.6486
-10.4553
-10.1911
-9.86861
-9.504
-9.11373
-8.71241
-8.31256
-7.92405
-7.5541
-7.20707
-6.88451
-6.58524
-6.30624
-6.04451
-5.79909
-5.57194
-5.36674
-5.18676
-5.03282
-4.9024
-4.78988
-4.68816
-4.5886
-4.48123
-4.35367
-4.19208
-3.98382
-3.72121
-3.40266
-3.03302
-2.6207
-2.17721
-1.71651
-1.25231
-0.795799
-0.354736
0.0667845
0.467486
0.84765
1.20819
1.54984
1.87296
2.17786
2.46505
2.73554
2.99076
3.23219
3.46078
3.6765
3.87855
4.06572
4.23701
4.39182
4.53007
4.65217
4.75908
4.85217
4.93285
5.00231
5.06139
5.11072
5.15084
5.18237
5.20607
5.22288
5.23383
5.23992
5.24209
5.24109
5.23757
5.23205
5.22496
5.21664
5.20739
5.19744
5.18697
5.17617
5.16515
5.15407
5.14302
5.13209
5.12135
5.11083
5.10055
5.09051
5.08073
5.07119
5.06189
5.05282
5.04397
5.03533
5.02689
5.01865
5.01058
5.00268
4.99493
4.98732
4.97984
4.97248
4.96521
4.95803
4.95093
4.94388
4.93689
4.92993
4.92299
4.91606
4.90913
4.90219
4.89522
4.88822
4.88117
4.87406
4.86685
4.85952
4.85203
4.84431
4.8363
4.82789
4.81896
4.80933
4.79875
4.78689
4.7733
4.75741
4.73846
4.71553
4.68761
-1.22679
-1.24959
-1.30277
-1.3878
-1.51469
-1.6891
-1.91584
-2.19529
-2.52322
-2.89032
-3.28509
-3.69522
-4.10837
-4.51138
-4.89071
-5.23259
-5.52363
-5.75425
-5.91999
-6.02253
-6.06915
-6.07103
-6.0421
-5.99724
-5.95049
-5.91296
-5.89244
-5.89404
-5.91907
-5.96803
-6.03842
-6.1272
-6.23156
-6.35177
-6.49236
-6.6594
-6.85746
-7.08762
-7.34707
-7.63122
-7.9346
-8.25142
-8.57527
-8.89891
-9.21348
-9.50796
-9.76977
-9.98624
-10.1462
-10.241
-10.2647
-10.2145
-10.0911
-9.89995
-9.65128
-9.35871
-9.03618
-8.69639
-8.35019
-8.0066
-7.67282
-7.35369
-7.05149
-6.76576
-6.49479
-6.2374
-5.99435
-5.76824
-5.56203
-5.37751
-5.21445
-5.0707
-4.94273
-4.82537
-4.71071
-4.5874
-4.44209
-4.26162
-4.03605
-3.76046
-3.43471
-3.06284
-2.65215
-2.21301
-1.75809
-1.30027
-0.850236
-0.415389
0.000490827
0.396216
0.771939
1.12832
1.46598
1.78552
2.0877
2.37359
2.64452
2.90175
3.14616
3.37787
3.59625
3.8003
3.98895
4.16139
4.31723
4.45661
4.58023
4.68927
4.78513
4.86907
4.94207
5.00473
5.05754
5.10099
5.1357
5.16246
5.18221
5.19599
5.20482
5.2096
5.21111
5.20998
5.20671
5.20172
5.19538
5.18797
5.17974
5.1709
5.16162
5.15202
5.14222
5.13234
5.12247
5.11268
5.10301
5.0935
5.08416
5.07501
5.06604
5.05726
5.04866
5.04024
5.032
5.02391
5.01599
5.00821
5.00056
4.99303
4.98562
4.97831
4.97109
4.96395
4.95688
4.94987
4.9429
4.93597
4.92905
4.92215
4.91524
4.90832
4.90136
4.89437
4.88732