/*--------------------------------*- C++ -*----------------------------------*\
  =========                 |
  \\      /  F ield         | OpenFOAM: The Open Source CFD Toolbox
   \\    /   O peration     | Website:  https://openfoam.org
    \\  /    A nd           | Version:  7
     \\/     M anipulation  |
\*---------------------------------------------------------------------------*/
FoamFile
{
    version     2.0;
    format      ascii;
    class       volScalarField;
    location    "0.079";
    object      s_0;
}
// * * * * * * * * * * * * * * * * * * * * * * * * * * * * * * * * * * * * * //

dimensions      [0 0 0 0 0 0 0];

internalField   nonuniform List<scalar> 
12225
(
1
1
1
1
1
1
1
1
1
1
1
1
1
1
1
1
1
1
1
1
1
1
1
1
1
1
1
1
1
1
1
1
1
1
1
1
1
1
1
1
1
1
1
1
1
1
1
1
1
1
1
1
1
1
1
1
1
1
1
1
1
1
1
1
1
1
1
1
1
1
1
1
1
1
1
1
1
1
1
1
1
1
1
1
1
1
1
1
1
1
1
1
1
1
1
1
1
1
1
1
1
1
1
1
1
1
1
1
1
1
1
1
1
1
1
1
1
1
1
1
1
1
1
1
1
1
1
1
1
1
1
1
1
1
1
1
1
1
1
1
1
1
1
1
1
1
1
1
1
1
1
1
1
1
1
1
1
1
1
1
1
1
1
1
1
1
1
1
1
1
1
1
1
1
1
1
1
1
1
1
1
1
1
1
1
1
1
1
1
1
1
1
1
1
1
1
1
1
1
1
1
1
1
1
1
1
1
1
1
1
1
1
1
1
1
1
1
1
1
1
1
1
1
1
1
1
1
1
1
1
1
1
1
1
1
1
1
1
1
1
1
1
1
1
1
1
1
1
1
1
1
1
1
1
1
1
1
1
1
1
1
1
1
1
1
1
1
1
1
1
1
1
1
1
1
1
1
1
1
1
1
1
1
1
1
1
1
1
1
1
1
1
1
1
1
1
1
1
1
1
1
1
1
1
1
1
1
1
1
1
1
1
1
1
1
1
1
1
1
1
1
1
1
1
1
1
1
1
1
1
1
1
1
1
1
1
1
1
1
1
1
1
1
1
1
1
1
1
1
1
1
1
1
1
1
1
1
1
1
1
1
1
1
1
1
1
1
1
1
1
1
1
1
1
1
1
1
1
1
1
1
1
1
1
1
1
1
1
1
1
1
1
1
1
1
1
1
1
1
1
1
1
1
1
1
1
1
1
1
1
1
1
1
1
1
1
1
1
1
1
1
1
1
1
1
1
1
1
1
1
1
1
1
1
1
1
1
1
1
1
1
1
1
1
1
1
1
1
1
1
1
1
1
1
1
1
1
1
1
1
1
1
1
1
1
1
1
1
1
1
1
1
1
1
1
1
1
1
1
1
1
1
1
1
1
1
1
1
1
1
1
1
1
1
1
1
1
1
1
1
1
1
1
1
1
1
1
1
1
1
1
1
1
1
1
1
1
1
1
1
1
1
1
1
1
1
1
1
1
1
1
1
1
1
1
1
1
1
1
1
0.155195
0.154641
0.147749
0.147426
0.148882
0.161365
0.189809
0.221208
0.264802
0.291116
0.315689
0.333806
0.35363
0.370037
0.383787
0.39369
0.401029
0.40654
0.410604
0.414038
0.416462
0.418733
0.420493
0.421792
0.423211
0.424119
0.425058
0.426782
0.42907
0.431114
0.432121
0.433025
0.435452
0.437804
0.440666
0.445336
0.45566
0.496239
0.515998
0.337421
0.0550002
0.0251699
0.0301427
0.03694
0.0460456
0.0568033
0.0695651
0.082513
0.0934378
0.10272
0.112651
0.120803
0.126279
0.128871
0.11114
0.0901156
0.0867887
0.103741
0.132051
0.152369
0.164835
0.175494
0.190358
0.221458
0.349264
0.7087
0.854734
0.868015
0.869302
0.870034
0.870923
0.871554
0.872245
0.873146
0.873656
0.874097
0.874591
0.875223
0.875952
0.876534
0.877445
0.878304
0.878966
0.87979
0.880783
0.881759
0.882737
0.883698
0.884458
0.885243
0.885934
0.886612
0.887095
0.887454
0.887898
0.888296
0.888652
0.888879
0.889049
0.889167
0.889213
0.889182
0.888984
0.888578
0.888134
0.887298
0.886229
0.884824
0.883108
0.881001
0.87844
0.875522
0.872173
0.868611
0.865195
0.861916
0.85883
0.855934
0.852946
0.849597
0.84548
0.840219
0.833817
0.824817
0.811364
0.795474
0.779172
0.756835
0.723076
0.683737
0.644833
0.592667
0.509151
0.404605
0.299943
0.207175
0.133071
0.0793251
0.0438103
0.0223929
0.0105943
0.00464826
0.00189524
0.000713529
0.000240213
7.08913e-05
3.30417e-05
1.69697e-05
8.44499e-06
4.08239e-06
1.91737e-06
8.78015e-07
3.93653e-07
1.73521e-07
7.55092e-08
3.25658e-08
1.39709e-08
5.98115e-09
2.56211e-09
1.10031e-09
4.74303e-10
2.05301e-10
8.91984e-11
3.88605e-11
1.69502e-11
7.38826e-12
3.21167e-12
1.38947e-12
5.9706e-13
2.5432e-13
1.07158e-13
4.45645e-14
1.82414e-14
7.32677e-15
2.87525e-15
1.09745e-15
4.04578e-16
1.43136e-16
4.77323e-17
-7.21023e-17
0.148606
0.159427
0.158111
0.147217
0.0915526
0.10061
0.136472
0.201469
0.288267
0.363091
0.413227
0.44513
0.45955
0.467109
0.468235
0.467826
0.466878
0.464899
0.462955
0.461127
0.458348
0.455752
0.454128
0.452381
0.450141
0.449065
0.44912
0.449616
0.450858
0.453878
0.457042
0.45879
0.461488
0.463716
0.465187
0.466057
0.467916
0.47494
0.498147
0.491729
0.471684
0.4389
0.299169
0.103149
0.0401446
0.0360354
0.0496476
0.0619743
0.0744438
0.0910113
0.112392
0.137427
0.163099
0.197885
0.241401
0.252797
0.234017
0.219562
0.226864
0.258253
0.276742
0.268546
0.274985
0.499401
0.770658
0.846765
0.870347
0.875121
0.879313
0.88294
0.886237
0.889652
0.892912
0.895686
0.89796
0.900505
0.902948
0.905039
0.906986
0.909122
0.911464
0.913186
0.914427
0.915604
0.916646
0.917025
0.917073
0.91697
0.916789
0.916553
0.916259
0.915858
0.915288
0.914712
0.91425
0.913837
0.913421
0.913074
0.912933
0.913042
0.913601
0.914668
0.91589
0.917692
0.920101
0.922467
0.925236
0.927953
0.930466
0.932638
0.934298
0.935338
0.93594
0.935523
0.933633
0.930353
0.925692
0.919819
0.914178
0.909887
0.906243
0.903869
0.90343
0.905144
0.910593
0.918402
0.928144
0.939474
0.951311
0.961608
0.968798
0.97436
0.97877
0.979407
0.977008
0.969285
0.952344
0.919014
0.874504
0.817958
0.739874
0.63314
0.506587
0.383537
0.28295
0.205148
0.145522
0.100665
0.0677633
0.0443371
0.0281818
0.0174013
0.0104414
0.00609233
0.00345989
0.00191476
0.00103407
0.000545819
0.00028206
0.000142944
7.1159e-05
3.48487e-05
1.68108e-05
7.9961e-06
3.75266e-06
1.73845e-06
7.9497e-07
3.58852e-07
1.59812e-07
7.02123e-08
3.0387e-08
1.29575e-08
5.42419e-09
2.23207e-09
8.9506e-10
3.5182e-10
1.32681e-10
4.91714e-11
1.68039e-11
-9.6114e-11
0.0971902
0.124877
0.130464
0.12695
0.146676
0.207981
0.319185
0.422366
0.470564
0.492217
0.493056
0.491194
0.486666
0.479703
0.470554
0.458027
0.444155
0.427804
0.412236
0.396515
0.380286
0.366269
0.352723
0.340233
0.331002
0.322247
0.315266
0.314165
0.315204
0.318606
0.327416
0.341587
0.358974
0.387164
0.408932
0.430225
0.448013
0.456017
0.474851
0.486546
0.498982
0.501079
0.492378
0.455726
0.378982
0.213031
0.120896
0.0830706
0.0700168
0.0696229
0.0896877
0.145436
0.173691
0.1977
0.259423
0.320489
0.337927
0.347796
0.363687
0.386616
0.42608
0.54775
0.685006
0.808208
0.858223
0.874167
0.879854
0.882394
0.885322
0.887511
0.889162
0.891496
0.893699
0.895224
0.896376
0.897286
0.897655
0.897762
0.897494
0.89657
0.895299
0.893164
0.889977
0.885995
0.881023
0.874688
0.867433
0.860422
0.853622
0.846825
0.840615
0.834666
0.828898
0.823677
0.819152
0.815127
0.811709
0.808966
0.807675
0.807141
0.807243
0.810207
0.813802
0.819926
0.827813
0.837735
0.84995
0.86434
0.880646
0.897299
0.913138
0.926015
0.935755
0.943864
0.950081
0.954192
0.956291
0.956794
0.954311
0.946723
0.935995
0.922669
0.908378
0.895938
0.887855
0.883228
0.881522
0.881775
0.885039
0.896373
0.914104
0.933554
0.951344
0.964472
0.97456
0.983339
0.989393
0.991382
0.991299
0.99005
0.985793
0.973496
0.960288
0.948908
0.929878
0.889859
0.793614
0.652848
0.508208
0.381197
0.280577
0.202476
0.142647
0.0978964
0.0654021
0.04255
0.0269867
0.016711
0.0101217
0.00600887
0.00350413
0.00201202
0.00114027
0.000639491
0.000355805
0.000196881
0.000108497
5.95799e-05
3.25373e-05
1.7631e-05
9.42608e-06
4.9612e-06
2.55093e-06
1.2841e-06
6.25479e-07
2.97961e-07
1.35788e-07
6.03397e-08
2.62603e-08
8.1959e-09
0.00973611
0.0313726
0.0857439
0.207448
0.372317
0.469934
0.509971
0.517524
0.5152
0.508164
0.495145
0.473768
0.450333
0.420518
0.392449
0.36912
0.347981
0.328095
0.309534
0.291794
0.275837
0.260254
0.246324
0.23404
0.221792
0.211692
0.2044
0.196119
0.191422
0.19132
0.192889
0.199251
0.209962
0.226884
0.255409
0.289918
0.333774
0.379205
0.414805
0.450627
0.479879
0.494524
0.509687
0.511561
0.505647
0.485452
0.43222
0.360533
0.289134
0.270233
0.276271
0.298583
0.339721
0.383395
0.440861
0.471233
0.472554
0.457382
0.457351
0.509147
0.69061
0.766878
0.829922
0.86243
0.874333
0.878586
0.880505
0.882291
0.883256
0.883418
0.881657
0.879628
0.876307
0.870909
0.863979
0.855546
0.845109
0.832103
0.816037
0.801189
0.785829
0.772232
0.759184
0.747613
0.737425
0.729073
0.724489
0.720703
0.717837
0.715714
0.714464
0.713962
0.71392
0.714226
0.714999
0.716232
0.717857
0.719818
0.722098
0.724774
0.727739
0.730521
0.732976
0.735707
0.738161
0.740872
0.744244
0.748632
0.754839
0.764891
0.780159
0.801921
0.829615
0.860519
0.892691
0.921662
0.943418
0.957692
0.96757
0.973568
0.97636
0.976919
0.974468
0.96412
0.944351
0.921415
0.900169
0.886211
0.878936
0.876377
0.876415
0.879267
0.891103
0.913129
0.934213
0.951641
0.965345
0.976098
0.984426
0.990575
0.994391
0.995877
0.996049
0.995851
0.994912
0.99174
0.981441
0.969037
0.957641
0.937476
0.889517
0.757432
0.580627
0.427026
0.306113
0.21445
0.146551
0.0976877
0.0635972
0.0405299
0.0253575
0.015626
0.00951488
0.00574264
0.00344313
0.00205403
0.00121893
0.000718832
0.000419769
0.000241954
0.000136869
7.58634e-05
4.09488e-05
2.15816e-05
1.1008e-05
5.48164e-06
2.62244e-06
1.22181e-06
5.53906e-07
2.10125e-07
0.0169441
0.183548
0.427851
0.51224
0.541885
0.541348
0.535836
0.523523
0.504531
0.475811
0.450975
0.426806
0.402754
0.379095
0.356261
0.334986
0.31502
0.296735
0.279824
0.263815
0.248386
0.233645
0.220561
0.20806
0.196913
0.186682
0.177632
0.168637
0.161812
0.157853
0.156353
0.156285
0.15796
0.165705
0.178488
0.197492
0.23505
0.265031
0.291968
0.345911
0.403202
0.45521
0.491289
0.506821
0.523443
0.529433
0.526923
0.519511
0.501907
0.488289
0.489306
0.496848
0.520306
0.543502
0.552522
0.551503
0.533899
0.494741
0.525642
0.721031
0.804485
0.841147
0.863907
0.873089
0.876262
0.877554
0.877803
0.875385
0.869015
0.857884
0.840454
0.817818
0.790209
0.764812
0.744734
0.725273
0.709229
0.700239
0.692213
0.687343
0.684891
0.683752
0.683459
0.684783
0.687772
0.691758
0.695432
0.700113
0.703807
0.707248
0.710939
0.714667
0.718896
0.724025
0.730048
0.737228
0.745237
0.753853
0.76231
0.770059
0.776527
0.780465
0.782059
0.782422
0.778924
0.772741
0.764061
0.75443
0.74656
0.742797
0.741164
0.74289
0.748622
0.758214
0.772886
0.7967
0.830779
0.871737
0.91178
0.944173
0.964883
0.977123
0.983376
0.985821
0.986032
0.9831
0.970789
0.944971
0.917307
0.895811
0.88377
0.879199
0.878881
0.881643
0.895098
0.920637
0.942094
0.958097
0.970138
0.979505
0.986587
0.991599
0.994988
0.997212
0.99829
0.998486
0.998371
0.997959
0.997141
0.995489
0.991865
0.983843
0.967211
0.929234
0.81798
0.625163
0.454801
0.321299
0.221982
0.150308
0.0999749
0.0655121
0.0424188
0.0272099
0.0173176
0.0109422
0.0068569
0.00425426
0.00260353
0.0015669
0.000922645
0.000530601
0.000296755
0.000161664
8.53071e-05
4.38079e-05
2.17012e-05
1.04159e-05
4.88468e-06
1.98901e-06
0.343826
0.516638
0.565002
0.564325
0.557256
0.54391
0.525266
0.505385
0.485066
0.463476
0.439803
0.415022
0.390176
0.366137
0.344053
0.324322
0.306671
0.291564
0.278139
0.266993
0.257997
0.250002
0.242118
0.233279
0.224229
0.21483
0.206969
0.198557
0.191145
0.183052
0.177018
0.173349
0.172035
0.174759
0.176258
0.180743
0.193822
0.216485
0.24074
0.267643
0.306565
0.365024
0.423925
0.475009
0.510378
0.530003
0.544091
0.556056
0.561567
0.563753
0.566688
0.574049
0.588522
0.593847
0.592889
0.582551
0.536172
0.524865
0.690287
0.810719
0.846823
0.863271
0.870831
0.873477
0.874443
0.872091
0.864522
0.846329
0.812985
0.758976
0.728883
0.697767
0.684162
0.673979
0.669453
0.667877
0.668352
0.672829
0.67797
0.685745
0.692338
0.702667
0.719617
0.740327
0.760236
0.779827
0.795443
0.808257
0.819505
0.828116
0.836732
0.843252
0.849801
0.855771
0.861336
0.866401
0.870256
0.873149
0.874414
0.874377
0.87346
0.872421
0.872078
0.872097
0.873164
0.875406
0.877491
0.876385
0.868097
0.849575
0.824228
0.796665
0.773386
0.761826
0.759592
0.763973
0.77607
0.793382
0.817649
0.85163
0.893827
0.934311
0.963419
0.979606
0.987472
0.99045
0.990957
0.989502
0.981592
0.957992
0.928044
0.904802
0.891896
0.887423
0.887443
0.891989
0.911351
0.937399
0.956559
0.969785
0.978998
0.985757
0.990866
0.994467
0.996767
0.998151
0.99899
0.9994
0.999503
0.999486
0.999353
0.998909
0.997716
0.994626
0.986604
0.966247
0.90871
0.745376
0.553646
0.398627
0.28079
0.194721
0.133497
0.0906288
0.0609481
0.0405841
0.0267125
0.0173416
0.011067
0.00692225
0.00422735
0.00251688
0.0014553
0.000818008
0.000445551
0.000235574
0.000120451
5.94735e-05
2.87689e-05
1.23079e-05
0.606216
0.595246
0.581333
0.569012
0.551921
0.538963
0.525471
0.514744
0.50277
0.483576
0.461958
0.445625
0.43435
0.426916
0.42171
0.415961
0.413944
0.414204
0.416113
0.417826
0.418083
0.416431
0.412657
0.407234
0.40019
0.391404
0.380901
0.368117
0.354809
0.339461
0.32751
0.314616
0.30251
0.292647
0.286009
0.281676
0.279388
0.279542
0.283937
0.296794
0.32394
0.363987
0.408587
0.452962
0.494042
0.527367
0.551977
0.568708
0.578525
0.588953
0.602874
0.614063
0.617369
0.615756
0.603638
0.561784
0.539345
0.635432
0.797328
0.845491
0.861635
0.868263
0.870696
0.871428
0.867449
0.85406
0.822601
0.756256
0.702301
0.67579
0.661531
0.655055
0.654348
0.659112
0.664388
0.673202
0.684932
0.705572
0.734117
0.773992
0.807794
0.839461
0.863184
0.876597
0.884223
0.887301
0.889334
0.892376
0.893852
0.895972
0.897913
0.898702
0.899277
0.899376
0.899023
0.897619
0.894869
0.891203
0.886386
0.880223
0.87337
0.86706
0.863596
0.862444
0.86587
0.874694
0.887353
0.90227
0.916381
0.927106
0.934272
0.933164
0.919592
0.889727
0.853612
0.820196
0.799231
0.795619
0.802588
0.81986
0.841297
0.868326
0.903906
0.942322
0.970058
0.984772
0.991357
0.993542
0.993757
0.992279
0.98492
0.962501
0.935405
0.916143
0.906571
0.904223
0.905318
0.914223
0.938328
0.958516
0.972182
0.981225
0.987321
0.991581
0.994644
0.99681
0.9982
0.999018
0.999481
0.999726
0.999811
0.999814
0.999771
0.999582
0.998968
0.997144
0.991794
0.976469
0.93136
0.792322
0.602873
0.446222
0.324163
0.232208
0.164363
0.114942
0.0792432
0.0537016
0.0356598
0.0231406
0.0146353
0.00900663
0.00538327
0.00312183
0.0017543
0.000955471
0.000503933
0.000256271
0.000127815
5.71354e-05
0.609788
0.593188
0.582374
0.577994
0.581043
0.587555
0.587706
0.581641
0.570756
0.567816
0.567472
0.568814
0.569581
0.574226
0.584825
0.598377
0.609594
0.616551
0.623851
0.631091
0.637889
0.642619
0.644987
0.645946
0.643783
0.637947
0.628192
0.616418
0.601723
0.586031
0.570282
0.551945
0.534691
0.516917
0.501156
0.483862
0.468656
0.454333
0.442174
0.434992
0.43589
0.446989
0.46932
0.497415
0.525887
0.551513
0.574742
0.595185
0.612629
0.624227
0.627806
0.626174
0.613854
0.596001
0.574005
0.558769
0.60371
0.770627
0.83889
0.858741
0.865535
0.867955
0.868631
0.864488
0.848289
0.805929
0.724557
0.672939
0.651725
0.644558
0.643143
0.651929
0.657043
0.671938
0.694851
0.735196
0.784833
0.825921
0.859565
0.875522
0.886393
0.890909
0.892225
0.891734
0.886616
0.878161
0.872935
0.868088
0.866113
0.865786
0.868649
0.870045
0.870825
0.870989
0.869474
0.864608
0.855144
0.841928
0.82408
0.801443
0.773214
0.748944
0.734577
0.728921
0.72989
0.744417
0.771394
0.812254
0.862422
0.905087
0.935965
0.954275
0.964014
0.968601
0.967303
0.956556
0.932011
0.897912
0.866746
0.847788
0.845647
0.856129
0.875827
0.898744
0.929243
0.960581
0.980886
0.990799
0.994676
0.995653
0.995457
0.993279
0.98455
0.964001
0.944804
0.932555
0.927662
0.927251
0.930062
0.944256
0.963581
0.976432
0.984572
0.989769
0.993227
0.995608
0.997258
0.998384
0.99911
0.999532
0.999763
0.999878
0.999914
0.999914
0.999883
0.999743
0.999258
0.997713
0.992971
0.978891
0.936902
0.807453
0.629114
0.478714
0.357692
0.262657
0.189358
0.133746
0.092303
0.0620939
0.0406321
0.0258272
0.0159288
0.00952777
0.00552143
0.00309856
0.00168503
0.000883206
0.000454147
0.000211569
0.607466
0.606375
0.609761
0.611175
0.616832
0.617654
0.622022
0.636891
0.645206
0.648444
0.656277
0.67295
0.688316
0.698052
0.711574
0.728457
0.740742
0.754983
0.767897
0.779303
0.787801
0.792858
0.795022
0.795471
0.79106
0.783104
0.772869
0.759277
0.744055
0.726619
0.706815
0.686634
0.667751
0.648471
0.630801
0.616897
0.607395
0.601996
0.5997
0.597251
0.596515
0.597313
0.600003
0.604601
0.611506
0.621019
0.629645
0.633806
0.634235
0.630738
0.612612
0.596475
0.593679
0.590442
0.579581
0.607885
0.749862
0.828093
0.854624
0.862641
0.86521
0.865879
0.861145
0.843751
0.80145
0.729856
0.667287
0.643189
0.635531
0.63449
0.648485
0.666418
0.689559
0.737122
0.798691
0.839071
0.858702
0.870219
0.874703
0.875599
0.873666
0.857029
0.829333
0.793729
0.753025
0.721528
0.696958
0.679632
0.673451
0.673565
0.682963
0.695738
0.708289
0.719086
0.72393
0.724925
0.715875
0.699785
0.675901
0.648567
0.631578
0.626284
0.626095
0.6286
0.632616
0.637768
0.645007
0.6591
0.689609
0.752845
0.838148
0.909388
0.949215
0.970076
0.979946
0.984465
0.985839
0.983617
0.974871
0.957466
0.930983
0.905826
0.892875
0.894589
0.909514
0.930998
0.956565
0.978431
0.990212
0.995266
0.996839
0.996981
0.996271
0.992934
0.982986
0.969502
0.958392
0.952111
0.950332
0.95081
0.955633
0.969843
0.981261
0.98825
0.992472
0.9951
0.996821
0.997986
0.998773
0.999292
0.999619
0.999806
0.999904
0.999948
0.999957
0.999952
0.999916
0.999771
0.999277
0.997715
0.992971
0.979056
0.937971
0.81372
0.645129
0.498855
0.376744
0.277543
0.199095
0.138827
0.0939608
0.061667
0.0392281
0.0241774
0.0144415
0.00835045
0.00468057
0.00252911
0.00134063
0.000649631
0.616314
0.620485
0.617445
0.623102
0.637805
0.642703
0.65001
0.670096
0.689552
0.706668
0.731456
0.755875
0.780628
0.800222
0.818808
0.839728
0.854857
0.866217
0.877654
0.883512
0.891224
0.8947
0.897219
0.898869
0.899858
0.899324
0.895449
0.887686
0.872941
0.850731
0.822923
0.789032
0.751007
0.718129
0.687611
0.661052
0.641062
0.627374
0.619628
0.616883
0.61794
0.620691
0.623084
0.624371
0.624051
0.622716
0.619733
0.606363
0.587864
0.580456
0.582254
0.605881
0.614819
0.609774
0.637061
0.743897
0.818479
0.84912
0.859338
0.862535
0.863618
0.861227
0.849489
0.815871
0.749521
0.661479
0.627696
0.620429
0.62283
0.640777
0.678948
0.724899
0.769983
0.813062
0.845997
0.858665
0.863558
0.864841
0.855073
0.828177
0.775921
0.688252
0.576424
0.495845
0.438205
0.40962
0.399614
0.398702
0.412669
0.433872
0.456473
0.479083
0.500116
0.518554
0.534201
0.547224
0.55727
0.565217
0.57108
0.577173
0.584838
0.59277
0.600518
0.608005
0.614704
0.619909
0.62339
0.626636
0.632916
0.647742
0.6852
0.769986
0.861535
0.926413
0.963374
0.981256
0.989142
0.992485
0.993731
0.993441
0.99088
0.983796
0.967304
0.944027
0.929073
0.928455
0.939497
0.959498
0.978337
0.990326
0.995773
0.997668
0.997988
0.99769
0.996091
0.991685
0.984838
0.977365
0.97168
0.969016
0.968719
0.97001
0.976563
0.985727
0.99143
0.994755
0.996714
0.997918
0.998689
0.999194
0.999524
0.999734
0.999861
0.999932
0.999966
0.999976
0.999976
0.999966
0.999919
0.999749
0.9992
0.997532
0.992595
0.978271
0.93557
0.808358
0.640946
0.493214
0.368072
0.26614
0.186336
0.126274
0.0828332
0.0525995
0.0323531
0.0192671
0.0111278
0.00619766
0.00338537
0.00170338
0.619607
0.627217
0.634705
0.662018
0.691179
0.701287
0.714513
0.748394
0.780325
0.800454
0.826408
0.849793
0.868168
0.884262
0.894935
0.904628
0.909072
0.913309
0.915481
0.91745
0.918345
0.920022
0.921534
0.923768
0.928037
0.932756
0.937572
0.943175
0.948342
0.950639
0.948742
0.939
0.918046
0.877874
0.823587
0.759186
0.699368
0.654394
0.624658
0.60747
0.596818
0.587238
0.576239
0.567167
0.561154
0.554698
0.553005
0.554882
0.562539
0.601476
0.65006
0.672514
0.674389
0.687679
0.753851
0.814293
0.843668
0.855348
0.859335
0.860922
0.859268
0.850995
0.826124
0.774995
0.69307
0.626894
0.604354
0.599903
0.606589
0.64074
0.691217
0.750403
0.801381
0.832612
0.847363
0.852716
0.848359
0.82169
0.757337
0.629699
0.47892
0.363529
0.30959
0.281235
0.27009
0.268294
0.280389
0.301831
0.330585
0.36433
0.398755
0.429967
0.454484
0.47329
0.488145
0.501302
0.51454
0.52887
0.543766
0.558504
0.572556
0.584679
0.595003
0.604028
0.611627
0.617348
0.620979
0.623392
0.626906
0.634366
0.651824
0.698716
0.77791
0.849746
0.909561
0.952812
0.978189
0.989842
0.99465
0.996533
0.997182
0.997067
0.995883
0.992022
0.980193
0.961575
0.952508
0.953707
0.965299
0.980811
0.991312
0.996376
0.998294
0.998713
0.998585
0.997692
0.995681
0.992526
0.988197
0.984057
0.981483
0.980744
0.981137
0.9838
0.989849
0.994068
0.996524
0.997907
0.998711
0.999206
0.999519
0.999716
0.999839
0.999914
0.999957
0.999979
0.999987
0.999988
0.999985
0.999968
0.999904
0.999695
0.999052
0.997133
0.991395
0.974017
0.918795
0.767177
0.596217
0.447628
0.324467
0.227146
0.153685
0.100545
0.0636751
0.0390272
0.0232023
0.0133133
0.00749383
0.00391041
0.623457
0.645131
0.669475
0.708734
0.749694
0.769808
0.79512
0.828677
0.850472
0.866708
0.885627
0.89474
0.902827
0.906345
0.908006
0.908555
0.908319
0.906537
0.902123
0.897552
0.893791
0.891677
0.890863
0.891591
0.895053
0.901745
0.912468
0.92808
0.946562
0.957779
0.967822
0.973949
0.976319
0.974223
0.962769
0.935098
0.87718
0.787792
0.698471
0.6398
0.607746
0.587918
0.570884
0.558787
0.55558
0.558474
0.569242
0.607031
0.673761
0.705384
0.720032
0.730006
0.743611
0.772443
0.814814
0.839759
0.851107
0.855556
0.857589
0.856105
0.845543
0.828006
0.794847
0.740054
0.654781
0.594829
0.586307
0.585582
0.594152
0.630797
0.687535
0.748927
0.801995
0.827313
0.834848
0.825335
0.784058
0.671113
0.512548
0.367194
0.283081
0.236261
0.215354
0.206919
0.205218
0.215825
0.233209
0.26248
0.300132
0.341924
0.385918
0.423252
0.451925
0.473183
0.488399
0.500301
0.512287
0.52635
0.542123
0.557979
0.572706
0.585179
0.595676
0.60473
0.612164
0.617676
0.621354
0.624477
0.628893
0.637173
0.652618
0.692116
0.763633
0.828754
0.880479
0.92092
0.952763
0.976262
0.989625
0.99545
0.997677
0.998479
0.998664
0.998471
0.997455
0.99371
0.98174
0.970906
0.968938
0.972929
0.984454
0.99289
0.997086
0.99877
0.999219
0.999199
0.998806
0.997919
0.996417
0.993918
0.991141
0.989141
0.988357
0.988432
0.989649
0.993193
0.996091
0.997807
0.998759
0.999275
0.999565
0.99974
0.999849
0.999916
0.999955
0.999978
0.999989
0.999993
0.999994
0.999993
0.999986
0.999958
0.999866
0.999575
0.998675
0.995866
0.986897
0.957463
0.857614
0.673764
0.506514
0.366677
0.256034
0.172618
0.112545
0.0709743
0.0434054
0.025623
0.014833
0.00801145
0.631417
0.676299
0.708691
0.751619
0.799255
0.823195
0.846432
0.871417
0.882565
0.89172
0.898391
0.900915
0.901981
0.90189
0.896311
0.88768
0.880805
0.873324
0.8699
0.86822
0.86742
0.866545
0.865339
0.863798
0.861982
0.859817
0.858799
0.859602
0.869305
0.896382
0.933119
0.964438
0.979037
0.985715
0.987789
0.986038
0.974965
0.943887
0.867463
0.74676
0.668456
0.626746
0.600907
0.592779
0.600529
0.630447
0.695545
0.72877
0.744597
0.754922
0.76575
0.777715
0.795963
0.817813
0.837566
0.847206
0.851488
0.85379
0.85276
0.846042
0.831718
0.81404
0.781764
0.733985
0.656982
0.576466
0.548113
0.550685
0.57037
0.606268
0.668795
0.736129
0.785563
0.801041
0.793682
0.743123
0.61867
0.463739
0.337373
0.250373
0.207033
0.186096
0.176953
0.17399
0.179515
0.191664
0.212661
0.247015
0.29013
0.336994
0.386746
0.433829
0.474854
0.504729
0.522931
0.530284
0.535196
0.544201
0.559563
0.575899
0.588822
0.598335
0.605876
0.612203
0.617074
0.620745
0.62399
0.627566
0.634159
0.650555
0.683026
0.727577
0.781184
0.832928
0.87846
0.915006
0.942847
0.963717
0.979539
0.990414
0.99604
0.998297
0.999094
0.999328
0.999304
0.998961
0.997411
0.991026
0.982388
0.979885
0.981229
0.988204
0.994676
0.997845
0.999141
0.999521
0.999538
0.999378
0.999
0.998367
0.996945
0.995158
0.993806
0.993216
0.993193
0.99379
0.99579
0.997597
0.998684
0.999295
0.999621
0.999792
0.999883
0.999934
0.999963
0.999981
0.99999
0.999995
0.999997
0.999997
0.999996
0.999993
0.999978
0.999928
0.999763
0.999225
0.997453
0.991511
0.971197
0.900554
0.721696
0.54116
0.390421
0.271406
0.182202
0.118199
0.0743218
0.0451014
0.0268244
0.0149483
0.638868
0.702631
0.751467
0.78373
0.833386
0.854953
0.873692
0.886912
0.892602
0.895841
0.897269
0.89698
0.890534
0.880112
0.87368
0.87086
0.869554
0.869101
0.869339
0.870255
0.870823
0.871107
0.871176
0.870292
0.868117
0.864132
0.857361
0.848509
0.840089
0.836336
0.844439
0.883468
0.940249
0.974179
0.988163
0.992471
0.993702
0.988708
0.968726
0.912583
0.783984
0.712599
0.685856
0.680164
0.714853
0.744407
0.760265
0.77029
0.778469
0.788527
0.799726
0.810708
0.82514
0.836484
0.844161
0.847451
0.849416
0.847058
0.837668
0.824563
0.815335
0.801853
0.77786
0.738228
0.671355
0.584876
0.536446
0.511912
0.509029
0.534419
0.598054
0.682277
0.720271
0.722811
0.675274
0.573647
0.455944
0.335819
0.248153
0.198252
0.175237
0.165547
0.161719
0.164269
0.170862
0.184591
0.208038
0.245946
0.301971
0.368537
0.436558
0.495554
0.534584
0.556965
0.565637
0.568789
0.571261
0.576447
0.589778
0.6068
0.618782
0.62465
0.626655
0.62715
0.626672
0.626215
0.626621
0.628353
0.63396
0.65145
0.696828
0.759735
0.818608
0.866181
0.899538
0.922975
0.943414
0.961658
0.975659
0.985692
0.992686
0.996868
0.998755
0.999442
0.999649
0.999658
0.999505
0.998651
0.994697
0.98887
0.98706
0.987646
0.991844
0.996361
0.998547
0.999436
0.999704
0.999728
0.999668
0.999499
0.999182
0.998422
0.997397
0.996639
0.996311
0.996281
0.996567
0.997646
0.998675
0.999288
0.99963
0.999811
0.999903
0.99995
0.999974
0.999986
0.999993
0.999996
0.999998
0.999999
0.999999
0.999998
0.999996
0.999986
0.999952
0.999834
0.99943
0.998033
0.99315
0.975916
0.914856
0.742673
0.553799
0.397355
0.274801
0.183396
0.118531
0.0738948
0.0451173
0.02589
0.649786
0.719797
0.76933
0.806831
0.852504
0.871656
0.885011
0.891333
0.893684
0.894631
0.892702
0.883808
0.875629
0.872169
0.871077
0.871016
0.872319
0.873688
0.874974
0.875536
0.875611
0.875504
0.876026
0.876891
0.877656
0.877989
0.878157
0.87321
0.856012
0.834508
0.82418
0.822183
0.845928
0.914105
0.968317
0.988594
0.995261
0.996808
0.994444
0.97998
0.930964
0.825358
0.777963
0.761416
0.770503
0.779968
0.786949
0.793739
0.802631
0.812808
0.821565
0.829725
0.837563
0.842259
0.844536
0.845036
0.84054
0.828712
0.813733
0.801998
0.795036
0.785989
0.771145
0.748724
0.707211
0.631745
0.551224
0.51163
0.487229
0.473297
0.480197
0.521476
0.546185
0.543602
0.500776
0.427204
0.346646
0.270761
0.219574
0.188851
0.173179
0.163948
0.162658
0.16499
0.17292
0.192604
0.233184
0.292308
0.372725
0.455221
0.525757
0.561436
0.575437
0.580237
0.581488
0.582219
0.584441
0.589796
0.602716
0.619562
0.631956
0.638305
0.640155
0.640102
0.637912
0.632195
0.629258
0.62902
0.631359
0.641
0.676862
0.75073
0.818602
0.872983
0.913631
0.941678
0.956872
0.96607
0.976018
0.984794
0.991128
0.995304
0.997875
0.999163
0.999663
0.999813
0.999823
0.999726
0.999107
0.99621
0.99266
0.991691
0.992108
0.994862
0.997748
0.999114
0.999658
0.999821
0.99984
0.999821
0.999749
0.999579
0.999155
0.998646
0.998308
0.998186
0.998183
0.998308
0.998817
0.999341
0.999653
0.999824
0.999913
0.999958
0.99998
0.99999
0.999995
0.999998
0.999999
0.999999
0.999999
0.999999
0.999999
0.999997
0.999989
0.999961
0.99986
0.999497
0.998192
0.993472
0.976405
0.915146
0.740584
0.54869
0.391324
0.268819
0.17861
0.11436
0.0716441
0.042272
0.651445
0.734021
0.788877
0.830279
0.866305
0.881317
0.888761
0.891879
0.892761
0.890839
0.883366
0.875558
0.872117
0.871136
0.871081
0.872234
0.873268
0.873524
0.873084
0.871644
0.871156
0.871383
0.872093
0.872588
0.874119
0.877225
0.880323
0.881522
0.879332
0.868327
0.832428
0.815309
0.816698
0.839406
0.911655
0.967049
0.989709
0.997116
0.998473
0.997141
0.984727
0.925328
0.823655
0.790196
0.786364
0.796551
0.80272
0.811007
0.820614
0.829224
0.834692
0.839738
0.842932
0.844336
0.844746
0.842796
0.834988
0.821677
0.805763
0.79258
0.783996
0.776296
0.767021
0.753954
0.732043
0.694307
0.629853
0.551363
0.500945
0.472219
0.453272
0.444382
0.438418
0.428413
0.402275
0.358541
0.313116
0.266775
0.224848
0.19772
0.181456
0.175603
0.177625
0.185242
0.203606
0.241509
0.307298
0.388361
0.47499
0.545512
0.578323
0.589319
0.592286
0.591909
0.591373
0.59218
0.595437
0.604141
0.617966
0.630654
0.63999
0.645155
0.646661
0.64659
0.644555
0.637457
0.632713
0.631559
0.632156
0.637167
0.655253
0.712002
0.7926
0.859209
0.909075
0.943229
0.964997
0.976936
0.98203
0.986486
0.991182
0.994887
0.997307
0.998745
0.999499
0.99981
0.9999
0.999902
0.999817
0.999259
0.997017
0.995135
0.99476
0.995157
0.997069
0.998744
0.999513
0.99981
0.999899
0.999912
0.999906
0.999875
0.99978
0.99956
0.999362
0.999256
0.999231
0.999241
0.999311
0.999537
0.999739
0.999862
0.999931
0.999967
0.999984
0.999993
0.999997
0.999998
0.999999
1
1
1
1
0.999999
0.999997
0.99999
0.999964
0.999864
0.999494
0.998116
0.993003
0.974194
0.906183
0.722063
0.53158
0.376307
0.257191
0.169145
0.108712
0.065879
0.65047
0.731717
0.788674
0.832511
0.866781
0.882535
0.889779
0.892087
0.892462
0.889694
0.881385
0.874592
0.871815
0.871049
0.871794
0.873774
0.874068
0.873347
0.870226
0.868217
0.869373
0.870859
0.871684
0.871723
0.871726
0.872621
0.875729
0.881443
0.881791
0.878375
0.858377
0.822284
0.813766
0.822297
0.869543
0.941816
0.978678
0.9934
0.99841
0.999453
0.998763
0.988991
0.920609
0.821628
0.794672
0.801471
0.810453
0.818434
0.828563
0.83699
0.841351
0.844677
0.846132
0.8465
0.845666
0.843036
0.835301
0.822214
0.806335
0.792566
0.78299
0.775173
0.767137
0.756964
0.74324
0.722193
0.691823
0.65036
0.584244
0.515896
0.472236
0.44668
0.427663
0.408621
0.386792
0.35464
0.31754
0.278358
0.245331
0.222995
0.20939
0.210161
0.217364
0.236303
0.278491
0.341941
0.431533
0.523136
0.575412
0.597218
0.605272
0.604815
0.603516
0.603433
0.605111
0.610083
0.620103
0.637746
0.649033
0.65376
0.65592
0.656854
0.657566
0.657554
0.655879
0.648389
0.641353
0.639232
0.63943
0.642206
0.655131
0.703253
0.784749
0.853011
0.904383
0.940464
0.964623
0.979861
0.988126
0.991527
0.993322
0.99539
0.997268
0.998574
0.999339
0.999736
0.999901
0.999943
0.999936
0.999831
0.999202
0.997609
0.996838
0.996774
0.99722
0.998541
0.999384
0.999763
0.999905
0.999948
0.999955
0.999952
0.999936
0.999879
0.999794
0.99974
0.999721
0.99972
0.999733
0.999792
0.999876
0.999931
0.999964
0.999982
0.999991
0.999996
0.999998
0.999999
1
1
1
1
1
1
0.999999
0.999997
0.99999
0.999961
0.999852
0.99943
0.997822
0.991769
0.969361
0.888169
0.69257
0.506362
0.356514
0.24104
0.159018
0.0989533
0.648402
0.722405
0.783925
0.828996
0.864078
0.881184
0.889268
0.891942
0.892374
0.890291
0.882787
0.875568
0.872291
0.871292
0.871777
0.873505
0.874539
0.874375
0.873194
0.872094
0.872494
0.873607
0.873694
0.873112
0.872687
0.87278
0.874783
0.880326
0.881476
0.87919
0.863597
0.828673
0.817466
0.821184
0.859297
0.934449
0.975282
0.991814
0.997544
0.999369
0.999843
0.99968
0.992831
0.922708
0.818033
0.80137
0.809122
0.817386
0.828101
0.837317
0.842403
0.845925
0.847576
0.847996
0.84755
0.844709
0.837687
0.825525
0.810506
0.796089
0.785252
0.776823
0.76891