/*--------------------------------*- C++ -*----------------------------------*\
  =========                 |
  \\      /  F ield         | OpenFOAM: The Open Source CFD Toolbox
   \\    /   O peration     | Website:  https://openfoam.org
    \\  /    A nd           | Version:  7
     \\/     M anipulation  |
\*---------------------------------------------------------------------------*/
FoamFile
{
    version     2.0;
    format      ascii;
    class       volVectorField;
    location    "0.079";
    object      U_0;
}
// * * * * * * * * * * * * * * * * * * * * * * * * * * * * * * * * * * * * * //

dimensions      [0 1 -1 0 0 0 0];

internalField   nonuniform List<vector> 
12225
(
(4.84012 0.173196 0)
(4.18053 0.119593 0)
(3.67884 0.100858 0)
(3.30535 0.0807339 0)
(2.97677 0.0675221 0)
(2.66431 0.0598094 0)
(2.3606 0.0544681 0)
(2.07011 0.0491104 0)
(1.79787 0.0424248 0)
(1.55117 0.0339447 0)
(1.33737 0.0246799 0)
(1.16081 0.0162246 0)
(1.01587 0.00981318 0)
(0.897878 0.00604645 0)
(0.79433 0.00640415 0)
(0.698344 0.0070677 0)
(0.598252 0.0154557 0)
(0.48639 0.00413311 0)
(5.0261 0.127081 0)
(4.84567 0.0938731 0)
(4.74814 0.0965864 0)
(4.67712 0.0899431 0)
(4.57923 0.088972 0)
(4.4599 0.0921269 0)
(4.32626 0.096214 0)
(4.18292 0.0995902 0)
(4.03396 0.101219 0)
(3.88502 0.0994133 0)
(3.73984 0.0936218 0)
(3.60297 0.0855465 0)
(3.47346 0.0773924 0)
(3.35216 0.0709608 0)
(3.2302 0.0681106 0)
(3.10988 0.0691405 0)
(2.97126 0.076697 0)
(2.83329 0.0818326 0)
(4.9134 0.215897 0)
(4.89515 0.126554 0)
(4.79207 0.123889 0)
(4.71673 0.122892 0)
(4.68403 0.122759 0)
(4.67452 0.125179 0)
(4.66495 0.128861 0)
(4.64585 0.132246 0)
(4.61724 0.133194 0)
(4.58039 0.129629 0)
(4.53723 0.121915 0)
(4.48868 0.112234 0)
(4.43814 0.103286 0)
(4.38491 0.0975984 0)
(4.33359 0.0972588 0)
(4.27778 0.102743 0)
(4.22533 0.118943 0)
(4.15768 0.138479 0)
(5.08914 0.179417 0)
(4.92867 0.135185 0)
(4.79304 0.144972 0)
(4.70324 0.130756 0)
(4.64949 0.111445 0)
(4.63238 0.103542 0)
(4.64342 0.106676 0)
(4.67075 0.114432 0)
(4.70142 0.121205 0)
(4.72171 0.123986 0)
(4.72518 0.12261 0)
(4.71213 0.118139 0)
(4.68995 0.112761 0)
(4.66279 0.108418 0)
(4.63821 0.108432 0)
(4.61383 0.114419 0)
(4.59611 0.12991 0)
(4.57622 0.152065 0)
(4.97194 0.255934 0)
(4.92083 0.16705 0)
(4.87253 0.160424 0)
(4.84274 0.159664 0)
(4.80839 0.14498 0)
(4.77028 0.126103 0)
(4.73783 0.11345 0)
(4.71975 0.110181 0)
(4.71846 0.113654 0)
(4.72832 0.11927 0)
(4.74197 0.123481 0)
(4.7529 0.124308 0)
(4.75712 0.122192 0)
(4.75139 0.119242 0)
(4.73656 0.119134 0)
(4.7152 0.124329 0)
(4.69294 0.137827 0)
(4.67525 0.159319 0)
(4.97986 0.233014 0)
(4.9075 0.170036 0)
(4.82459 0.152058 0)
(4.78481 0.145114 0)
(4.77175 0.13684 0)
(4.76577 0.129138 0)
(4.76094 0.123991 0)
(4.7613 0.120885 0)
(4.77006 0.118451 0)
(4.78435 0.116206 0)
(4.79841 0.114737 0)
(4.80691 0.114669 0)
(4.80598 0.116412 0)
(4.79416 0.120559 0)
(4.77325 0.127385 0)
(4.7475 0.137516 0)
(4.72213 0.151594 0)
(4.70184 0.170302 0)
(5.03531 0.260608 0)
(5.04254 0.20669 0)
(4.96255 0.198557 0)
(4.88279 0.185057 0)
(4.82941 0.161071 0)
(4.80835 0.134158 0)
(4.81223 0.114197 0)
(4.82979 0.104764 0)
(4.84932 0.103646 0)
(4.86088 0.107432 0)
(4.86057 0.113488 0)
(4.85032 0.120246 0)
(4.83503 0.126824 0)
(4.81811 0.133567 0)
(4.80326 0.1411 0)
(4.78985 0.150597 0)
(4.7809 0.162856 0)
(4.77258 0.178699 0)
(4.95995 0.249614 0)
(4.94172 0.191339 0)
(4.91226 0.180128 0)
(4.89425 0.1724 0)
(4.88929 0.159757 0)
(4.87915 0.139088 0)
(4.85837 0.118365 0)
(4.83635 0.106201 0)
(4.82145 0.104759 0)
(4.81335 0.110979 0)
(4.80885 0.120115 0)
(4.80597 0.128484 0)
(4.80562 0.134489 0)
(4.80767 0.138862 0)
(4.81402 0.143528 0)
(4.82253 0.150502 0)
(4.83515 0.160918 0)
(4.84793 0.175958 0)
(5.19539 0.269763 0)
(5.05301 0.248046 0)
(4.95361 0.225637 0)
(4.89487 0.196865 0)
(4.87275 0.168892 0)
(4.86479 0.14581 0)
(4.85293 0.129062 0)
(4.83604 0.118692 0)
(4.82181 0.114159 0)
(4.81558 0.114404 0)
(4.8179 0.117514 0)
(4.82574 0.121398 0)
(4.83554 0.124722 0)
(4.84433 0.127787 0)
(4.85197 0.13166 0)
(4.85924 0.137973 0)
(4.86807 0.147141 0)
(4.8801 0.160602 0)
(4.95119 0.330774 0)
(4.90806 0.263643 0)
(4.90525 0.217019 0)
(4.91233 0.189449 0)
(4.91446 0.171494 0)
(4.90943 0.154534 0)
(4.89956 0.137697 0)
(4.8905 0.123437 0)
(4.88567 0.114427 0)
(4.8831 0.111851 0)
(4.87915 0.114535 0)
(4.87178 0.120057 0)
(4.86225 0.125939 0)
(4.85326 0.131139 0)
(4.84908 0.135595 0)
(4.85195 0.140864 0)
(4.86306 0.147255 0)
(4.8821 0.157215 0)
(4.98474 0.312379 0)
(4.94983 0.285934 0)
(4.94208 0.236878 0)
(4.9246 0.192554 0)
(4.89716 0.165418 0)
(4.88255 0.148511 0)
(4.8875 0.134435 0)
(4.90319 0.122865 0)
(4.91724 0.116985 0)
(4.92048 0.118243 0)
(4.9105 0.124445 0)
(4.89143 0.131465 0)
(4.87068 0.135555 0)
(4.85488 0.135398 0)
(4.84815 0.131734 0)
(4.85216 0.127958 0)
(4.8658 0.125233 0)
(4.88869 0.127971 0)
(4.97504 0.240825 0)
(4.99692 0.25124 0)
(5.00998 0.223818 0)
(4.98252 0.207203 0)
(4.93461 0.190373 0)
(4.89658 0.16297 0)
(4.87768 0.132044 0)
(4.87615 0.110415 0)
(4.88795 0.105297 0)
(4.90632 0.114893 0)
(4.92388 0.13099 0)
(4.93561 0.144591 0)
(4.93998 0.150072 0)
(4.93804 0.147108 0)
(4.93225 0.138188 0)
(4.92623 0.128448 0)
(4.92322 0.119963 0)
(4.92597 0.116752 0)
(4.93042 0.282102 0)
(4.93737 0.261541 0)
(4.91805 0.246632 0)
(4.91741 0.224622 0)
(4.93255 0.198397 0)
(4.94848 0.170537 0)
(4.95476 0.142113 0)
(4.95213 0.11693 0)
(4.94896 0.101308 0)
(4.95156 0.0990517 0)
(4.96029 0.107935 0)
(4.97082 0.121671 0)
(4.97874 0.133559 0)
(4.98157 0.139963 0)
(4.98096 0.139398 0)
(4.97881 0.134046 0)
(4.97958 0.125142 0)
(4.98322 0.1166 0)
(4.91791 0.211014 0)
(4.91037 0.240315 0)
(4.91919 0.228251 0)
(4.94381 0.197636 0)
(4.95071 0.173558 0)
(4.94478 0.15515 0)
(4.93614 0.135596 0)
(4.92597 0.116967 0)
(4.91415 0.106685 0)
(4.90205 0.108825 0)
(4.89255 0.120811 0)
(4.8882 0.135808 0)
(4.89104 0.146625 0)
(4.90113 0.149139 0)
(4.91897 0.142811 0)
(4.94148 0.131068 0)
(4.96853 0.116668 0)
(4.99487 0.105156 0)
(4.91987 0.255333 0)
(4.94369 0.270128 0)
(4.93882 0.234513 0)
(4.92173 0.210765 0)
(4.89806 0.194444 0)
(4.88945 0.174458 0)
(4.89288 0.150117 0)
(4.89555 0.129015 0)
(4.89432 0.117213 0)
(4.89407 0.114695 0)
(4.90071 0.116961 0)
(4.91631 0.118481 0)
(4.939 0.115142 0)
(4.96514 0.105666 0)
(4.99153 0.0913349 0)
(5.01644 0.0757544 0)
(5.03913 0.0612248 0)
(5.06026 0.051618 0)
(4.81932 0.186234 0)
(4.90941 0.17292 0)
(4.93637 0.220251 0)
(4.94725 0.227606 0)
(4.94171 0.197152 0)
(4.93624 0.162569 0)
(4.93602 0.138017 0)
(4.9401 0.122579 0)
(4.94903 0.111985 0)
(4.96366 0.104525 0)
(4.98306 0.100564 0)
(5.00377 0.0999941 0)
(5.02145 0.100576 0)
(5.03322 0.0994654 0)
(5.03875 0.094099 0)
(5.0399 0.0849274 0)
(5.03919 0.0724821 0)
(5.03926 0.0601981 0)
(4.99358 0.22004 0)
(4.93475 0.197358 0)
(4.87753 0.222525 0)
(4.87324 0.23081 0)
(4.8982 0.210255 0)
(4.9246 0.175308 0)
(4.94194 0.138697 0)
(4.95091 0.106422 0)
(4.95465 0.0814478 0)
(4.95755 0.0660161 0)
(4.96457 0.0606971 0)
(4.97803 0.0633845 0)
(4.99712 0.0695171 0)
(5.01902 0.0740941 0)
(5.0414 0.0732929 0)
(5.06161 0.0663633 0)
(5.07932 0.0539921 0)
(5.09254 0.0392522 0)
(4.9521 0.383852 0)
(4.95965 0.331821 0)
(4.9216 0.242954 0)
(4.93225 0.173981 0)
(4.96413 0.12802 0)
(4.9909 0.107099 0)
(5.00836 0.108509 0)
(5.01704 0.117432 0)
(5.01745 0.11795 0)
(5.01316 0.104842 0)
(5.01055 0.0830808 0)
(5.01438 0.0606446 0)
(5.02547 0.0427723 0)
(5.04157 0.030937 0)
(5.05936 0.0240147 0)
(5.07579 0.0201942 0)
(5.08895 0.0179471 0)
(5.09785 0.0162059 0)
(4.90183 0.394176 0)
(4.93676 0.296114 0)
(4.94064 0.214821 0)
(4.94096 0.175951 0)
(4.93349 0.143887 0)
(4.93261 0.111931 0)
(4.94648 0.0897411 0)
(4.97283 0.078753 0)
(5.00384 0.0711768 0)
(5.03157 0.0597213 0)
(5.05136 0.043159 0)
(5.06236 0.0251555 0)
(5.06683 0.0100112 0)
(5.06783 0.000777448 0)
(5.06791 -0.00232263 0)
(5.06836 -0.00131012 0)
(5.06997 0.00104915 0)
(5.07292 0.00119093 0)
(4.92049 0.320904 0)
(4.93682 0.251228 0)
(4.97311 0.227686 0)
(5.01119 0.191512 0)
(5.02797 0.143257 0)
(5.02938 0.0932165 0)
(5.02863 0.0518514 0)
(5.0342 0.0273138 0)
(5.04601 0.0201291 0)
(5.06044 0.0239915 0)
(5.07476 0.0309275 0)
(5.08675 0.0353019 0)
(5.09516 0.0351901 0)
(5.09992 0.0313922 0)
(5.10281 0.0251694 0)
(5.10518 0.0174837 0)
(5.10925 0.00841004 0)
(5.1143 -0.00280061 0)
(4.91783 0.264513 0)
(4.91292 0.176913 0)
(4.96635 0.150604 0)
(5.02054 0.13212 0)
(5.06121 0.120854 0)
(5.08434 0.100742 0)
(5.09302 0.0697119 0)
(5.09036 0.0394519 0)
(5.08106 0.0175166 0)
(5.07378 0.00343891 0)
(5.07552 -0.00535394 0)
(5.08806 -0.00949193 0)
(5.10854 -0.0105181 0)
(5.13146 -0.0100269 0)
(5.15282 -0.00984799 0)
(5.16975 -0.0117146 0)
(5.18216 -0.0165349 0)
(5.18997 -0.0246161 0)
(4.99844 0.252184 0)
(4.9704 0.141588 0)
(4.98639 0.115194 0)
(5.04124 0.107954 0)
(5.10649 0.0895945 0)
(5.1489 0.0683827 0)
(5.16138 0.0571298 0)
(5.15331 0.0535785 0)
(5.13634 0.0476274 0)
(5.12052 0.0331719 0)
(5.11331 0.0111347 0)
(5.11513 -0.0114603 0)
(5.12334 -0.0274957 0)
(5.13677 -0.0344198 0)
(5.15434 -0.0339738 0)
(5.17269 -0.0301793 0)
(5.18999 -0.0263523 0)
(5.20247 -0.0258812 0)
(5.03878 0.219304 0)
(5.02327 0.154565 0)
(5.05324 0.0694829 0)
(5.09256 0.0211587 0)
(5.1121 0.0159896 0)
(5.11172 0.0340024 0)
(5.11059 0.0511759 0)
(5.12287 0.0549178 0)
(5.14846 0.0446781 0)
(5.17734 0.024636 0)
(5.20039 0.000535622 0)
(5.21539 -0.0241789 0)
(5.22401 -0.0450075 0)
(5.22891 -0.059167 0)
(5.23455 -0.0660925 0)
(5.24294 -0.0673494 0)
(5.25471 -0.0646871 0)
(5.26776 -0.0599832 0)
(5.03291 0.165869 0)
(5.05328 0.116878 0)
(5.09074 0.0776198 0)
(5.11676 0.0773905 0)
(5.11724 0.0853927 0)
(5.12105 0.0791168 0)
(5.14707 0.0590188 0)
(5.19047 0.0327403 0)
(5.23473 0.00769662 0)
(5.26654 -0.011712 0)
(5.28071 -0.0244359 0)
(5.2786 -0.0321737 0)
(5.267 -0.0379086 0)
(5.25279 -0.0434965 0)
(5.2412 -0.0491451 0)
(5.23486 -0.0542818 0)
(5.23454 -0.0581068 0)
(5.23929 -0.0593353 0)
(4.99573 0.189282 0)
(5.01291 0.0937277 0)
(5.06742 0.0158788 0)
(5.11708 0.00278699 0)
(5.16838 0.00869727 0)
(5.21631 0.0014012 0)
(5.25391 -0.0142327 0)
(5.28006 -0.0242863 0)
(5.2984 -0.0250215 0)
(5.3106 -0.0201562 0)
(5.31692 -0.0164876 0)
(5.31849 -0.0179843 0)
(5.317 -0.0254031 0)
(5.31372 -0.0374713 0)
(5.30978 -0.0513315 0)
(5.30641 -0.0641189 0)
(5.30464 -0.0739386 0)
(5.30508 -0.079138 0)
(5.01522 0.200764 0)
(5.11413 0.0958353 0)
(5.17335 0.0447037 0)
(5.19944 0.0389728 0)
(5.21963 0.0348871 0)
(5.24257 0.0254573 0)
(5.26025 0.0128696 0)
(5.26649 -0.000375896 0)
(5.26606 -0.0121449 0)
(5.27036 -0.0205105 0)
(5.28744 -0.0248619 0)
(5.31735 -0.0267397 0)
(5.35395 -0.0286638 0)
(5.38855 -0.0323383 0)
(5.41319 -0.0381471 0)
(5.42389 -0.0455299 0)
(5.42097 -0.053436 0)
(5.40755 -0.0606518 0)
(5.07089 0.136496 0)
(5.19964 0.00168265 0)
(5.27188 -0.0224396 0)
(5.29548 -0.0183296 0)
(5.31231 -0.023167 0)
(5.34433 -0.029614 0)
(5.38183 -0.0305337 0)
(5.41069 -0.0287886 0)
(5.42802 -0.0302398 0)
(5.43881 -0.0385489 0)
(5.44816 -0.0528603 0)
(5.45771 -0.0684046 0)
(5.46669 -0.0798658 0)
(5.47301 -0.0840133 0)
(5.47564 -0.0806063 0)
(5.47447 -0.0724507 0)
(5.47115 -0.0628175 0)
(5.46736 -0.0561919 0)
(5.16267 0.140073 0)
(5.31559 0.054425 0)
(5.39203 0.036269 0)
(5.41683 0.0260591 0)
(5.42847 0.00500796 0)
(5.44293 -0.0122364 0)
(5.46159 -0.0187379 0)
(5.48664 -0.0201434 0)
(5.51815 -0.0229298 0)
(5.55056 -0.0286949 0)
(5.57572 -0.0350648 0)
(5.58827 -0.0394976 0)
(5.58852 -0.0411787 0)
(5.58092 -0.0409371 0)
(5.57194 -0.0404212 0)
(5.56642 -0.0412926 0)
(5.56706 -0.0446238 0)
(5.57387 -0.0510633 0)
(4.9273 0.00076872 0)
(5.17906 -0.0591929 0)
(5.32128 -0.0293221 0)
(5.4089 -0.0367999 0)
(5.45554 -0.0483521 0)
(5.47542 -0.0530184 0)
(5.48086 -0.0544054 0)
(5.47922 -0.0576035 0)
(5.47316 -0.0631146 0)
(5.46365 -0.0686552 0)
(5.45217 -0.0723294 0)
(5.44137 -0.0738018 0)
(5.43249 -0.0736068 0)
(5.42564 -0.0725167 0)
(5.41882 -0.0710847 0)
(5.41027 -0.0701031 0)
(5.3974 -0.0700091 0)
(5.37923 -0.0713388 0)
(5.07663 0.0454737 0)
(5.14471 -0.0235422 0)
(5.08119 -0.0179222 0)
(4.94956 -0.0244493 0)
(4.80925 -0.0247263 0)
(4.68607 -0.0207013 0)
(4.57889 -0.016992 0)
(4.4776 -0.0155024 0)
(4.37348 -0.0171304 0)
(4.26124 -0.021894 0)
(4.13985 -0.0280634 0)
(4.01285 -0.0330945 0)
(3.88562 -0.0353965 0)
(3.76356 -0.0348402 0)
(3.64951 -0.0323233 0)
(3.54498 -0.029213 0)
(3.44768 -0.0263092 0)
(3.35779 -0.0246522 0)
(-0.0831063 0.228465 9.77079e-21)
(-0.263937 0.168157 -9.68941e-21)
(-0.391807 0.121975 0)
(-0.453263 0.0561 0)
(-0.450572 -0.00982317 0)
(-0.406594 -0.063698 9.39163e-21)
(-0.320533 -0.113816 0)
(-0.194276 -0.157766 0)
(-0.0336385 -0.189795 0)
(0.156202 -0.207866 0)
(0.360565 -0.214909 -9.06867e-21)
(0.566572 -0.213046 0)
(0.769195 -0.203709 0)
(0.964118 -0.189369 0)
(1.14661 -0.172366 0)
(1.31475 -0.154796 -8.64683e-21)
(1.4686 -0.137889 0)
(1.609 -0.122264 0)
(1.73713 -0.108141 0)
(1.85418 -0.0953739 0)
(1.96111 -0.083684 0)
(2.05875 -0.0726205 0)
(2.14711 -0.061677 0)
(2.22647 -0.0504849 -7.99327e-21)
(2.29545 -0.0381814 7.92027e-21)
(2.35374 -0.0248681 -7.84976e-21)
(2.39895 -0.00895099 -7.78209e-21)
(2.42884 0.00871015 0)
(2.44325 0.0306477 0)
(2.43295 0.0555852 7.59945e-21)
(2.3996 0.0857777 7.54647e-21)
(2.33008 0.121569 0)
(2.2339 0.158406 0)
(2.08629 0.20723 7.41204e-21)
(1.90708 0.242221 0)
(1.671 0.307932 0)
(1.37739 0.324293 -7.28711e-21)
(1.07974 0.372062 0)
(0.642925 0.406355 -7.16933e-21)
(0.295191 0.0460872 -1.41797e-20)
(0.141606 -0.312872 0)
(0.0603624 -0.324748 0)
(-0.0114992 -0.0970424 0)
(-0.0759016 0.104464 0)
(-0.142143 0.184314 0)
(-0.251494 0.183676 -1.33227e-20)
(-0.391379 0.152025 -1.31545e-20)
(-0.522718 0.109499 -1.2993e-20)
(-0.617114 0.0596275 0)
(-0.660976 0.00761934 1.27248e-20)
(-0.650846 -0.0370412 0)
(-0.593115 -0.0670858 -1.25392e-20)
(-0.492325 -0.0770938 -1.24689e-20)
(-0.349427 -0.0701359 0)
(-0.159885 -0.0384675 0)
(0.0348334 0.0135603 0)
(0.148273 0.0218126 -1.21985e-20)
(0.193218 -0.0272413 0)
(0.294075 -0.0787852 0)
(0.473512 -0.0689317 0)
(0.622719 0.0526553 0)
(0.731707 0.161345 0)
(0.866719 0.0150882 0)
(0.976298 -0.371543 0)
(1.01438 -0.490475 0)
(0.827197 -0.0493743 1.12227e-20)
(0.205424 0.422208 0)
(-0.508689 0.482287 0)
(-1.13173 0.429181 -1.07036e-20)
(-1.67947 0.371168 -1.04157e-20)
(-2.15357 0.317778 0)
(-2.56382 0.271833 9.79695e-21)
(-2.92149 0.233932 -9.48972e-21)
(-3.23579 0.203198 0)
(-3.51469 0.178359 8.90612e-21)
(-3.76399 0.157986 0)
(-3.98805 0.140837 0)
(-4.1897 0.125796 -8.13519e-21)
(-4.37054 0.111948 0)
(-4.53115 0.0986565 7.70295e-21)
(-4.67138 0.0854947 0)
(-4.79063 0.0722042 -7.34674e-21)
(-4.88808 0.0587472 -7.20011e-21)
(-4.96294 0.0452138 -7.07556e-21)
(-5.01471 0.0317164 -1.39467e-20)
(-5.04308 0.0187155 1.37865e-20)
(-5.04829 0.00686823 0)
(-5.03305 -0.00394805 0)
(-4.99819 -0.0136832 0)
(-4.94562 -0.0222814 1.35302e-20)
(-4.87687 -0.0298668 1.35415e-20)
(-4.79374 -0.036462 -1.35732e-20)
(-4.69777 -0.042213 0)
(-4.59021 -0.0473077 1.36807e-20)
(-4.47188 -0.0519775 1.37497e-20)
(-4.34312 -0.0564644 1.3826e-20)
(-4.20377 -0.0609908 0)
(-4.05328 -0.0657257 0)
(-3.89086 -0.0707461 0)
(-3.71568 -0.076013 1.41796e-20)
(-3.52718 -0.0813642 0)
(-3.32533 -0.0865282 0)
(-3.11077 -0.0911662 -1.44581e-20)
(-2.88493 -0.0949396 0)
(-2.64999 -0.0975832 0)
(-2.4086 -0.0989524 -1.46674e-20)
(-2.16365 -0.099032 0)
(-1.91792 -0.0979157 0)
(-1.67376 -0.0957758 1.47301e-20)
(-1.43315 -0.092834 1.47136e-20)
(-1.19775 -0.089322 0)
(-0.968792 -0.0854433 -1.46275e-20)
(-0.747245 -0.0813126 0)
(-0.533767 -0.0770063 1.44775e-20)
(-0.328802 -0.0725046 0)
(-0.132918 -0.0679062 1.42723e-20)
(0.0528345 -0.0636715 1.4149e-20)
(0.228609 -0.0589843 0)
(0.394626 -0.0542159 0)
(0.550082 -0.049338 0)
(0.694491 -0.0443474 0)
(0.827357 -0.0392451 0)
(0.948218 -0.0340528 0)
(1.05672 -0.0288432 0)
(1.15272 -0.0237261 1.28646e-20)
(1.23634 -0.0187871 -1.26869e-20)
(1.30788 -0.0141124 0)
(1.36794 -0.00985157 0)
(1.41745 -0.00603775 0)
(1.45728 -0.00239964 0)
(1.48792 0.00116545 -2.36003e-20)
(1.51 0.00428707 0)
(1.52451 0.00732773 2.29109e-20)
(1.53046 0.0113562 -2.25726e-20)
(1.52632 0.0161679 0)
(1.51196 0.0205815 0)
(1.48783 0.02386 0)
(1.45522 0.0256996 2.12595e-20)
(1.416 0.0261503 2.09407e-20)
(1.37216 0.0254618 0)
(1.32567 0.0239464 2.03133e-20)
(1.27838 0.0218749 2.00046e-20)
(1.23186 0.019473 -1.96992e-20)
(1.18741 0.016946 0)
(1.14594 0.0144735 0)
(1.108 0.0121929 -1.88028e-20)
(1.07381 0.0101836 0)
(1.04332 0.00846639 0)
(1.01634 0.00702161 0)
(0.992586 0.00581329 0)
(0.971754 0.00480815 1.73701e-20)
(0.953527 0.00398354 1.70917e-20)
(0.9376 0.00332622 0)
(0.923683 0.00282546 1.65419e-20)
(0.911495 0.00246681 0)
(0.900781 0.00222812 0)
(0.891297 0.0020822 1.57333e-20)
(0.882835 0.00200046 0)
(0.875194 0.00195944 1.5204e-20)
(0.868234 0.00193984 0)
(0.86178 0.00193204 0)
(0.855767 0.00192683 1.44234e-20)
(0.850005 0.00192631 0)
(0.844519 0.00192634 1.39115e-20)
(0.83902 0.00194136 0)
(0.833681 0.00196724 0)
(0.827949 0.00203663 0)
(0.822284 0.00215038 -1.29083e-20)
(0.815564 0.00237668 0)
(0.808845 0.00264813 1.24171e-20)
(0.799929 0.00307063 0)
(0.790891 0.00351516 0)
(0.777984 0.00430849 0)
(0.764121 0.00498237 0)
(0.74535 0.00663247 0)
(0.720089 0.00727185 0)
(0.69754 0.0114009 0)
(0.637752 0.0096935 -2.10596e-20)
(0.637 0.0229122 0)
(0.467138 0.00888189 0)
(0.042668 0.463389 -2.93183e-20)
(0.037538 0.454225 2.90938e-20)
(0.0477205 0.266403 0)
(0.0604871 0.0686257 -1.90983e-20)
(0.106258 -0.0909503 0)
(0.176763 -0.2153 -9.39571e-21)
(0.296658 -0.333729 1.86458e-20)
(0.445529 -0.44359 1.8498e-20)
(0.616522 -0.533058 0)
(0.793537 -0.590624 1.81966e-20)
(0.966132 -0.615268 9.0481e-21)
(1.12943 -0.611563 0)
(1.28139 -0.587102 0)
(1.42081 -0.550349 0)
(1.54755 -0.508024 0)
(1.66276 -0.464928 8.63553e-21)
(1.76821 -0.423968 0)
(1.86579 -0.386538 -1.6878e-20)
(1.95709 -0.352966 0)
(2.0435 -0.322866 0)
(2.12596 -0.295421 1.64019e-20)
(2.20499 -0.269646 0)
(2.28099 -0.244331 -1.60973e-20)
(2.35339 -0.218456 7.98946e-21)
(2.42231 -0.190603 -7.9167e-21)
(2.48609 -0.159904 7.8463e-21)
(2.54457 -0.124895 7.77863e-21)
(2.5958 -0.0846553 0)
(2.63799 -0.0382648 0)
(2.67132 0.0160562 -7.59514e-21)
(2.69658 0.0776324 7.49544e-21)
(2.70676 0.149365 0)
(2.70278 0.226782 0)
(2.67997 0.317485 -7.39973e-21)
(2.63706 0.408792 0)
(2.57563 0.51179 0)
(2.47756 0.608906 7.26465e-21)
(2.37413 0.687964 0)
(2.20456 0.769221 -7.08523e-21)
(2.02882 0.746993 1.41162e-20)
(1.78174 0.672121 0)
(1.28877 0.558789 0)
(0.822836 0.336153 2.75401e-20)
(0.536395 0.111206 2.72364e-20)
(0.294198 0.0739442 2.69386e-20)
(0.120665 0.166095 -1.33034e-20)
(-0.00215262 0.22775 1.31641e-20)
(-0.0950944 0.209997 3.89661e-20)
(-0.153393 0.139258 -2.56589e-20)
(-0.17251 0.0436348 -1.27392e-20)
(-0.150149 -0.0605835 0)
(-0.0829701 -0.16108 1.25511e-20)
(0.00301535 -0.26036 -1.24303e-20)
(0.0993633 -0.380833 0)
(0.243339 -0.485989 0)
(0.438207 -0.438429 0)
(0.617898 -0.240288 1.21851e-20)
(0.73836 -0.138056 0)
(0.898938 -0.272593 -2.39438e-20)
(1.13938 -0.392259 0)
(1.39393 -0.3474 -2.34553e-20)
(1.56289 -0.445027 0)
(1.47101 -0.405168 2.30058e-20)
(0.827009 0.175559 0)
(-0.196252 0.789371 -2.26394e-20)
(-1.01077 1.10331 1.10744e-20)
(-1.64656 1.19347 0)
(-2.14624 1.10426 2.15138e-20)
(-2.56516 0.976459 1.06664e-20)
(-2.92396 0.844413 1.03845e-20)
(-3.23518 0.72578 0)
(-3.50589 0.624677 9.54879e-21)
(-3.74556 0.541181 9.47156e-21)
(-3.95931 0.47297 0)
(-4.1521 0.416975 -8.89323e-21)
(-4.32681 0.370149 1.71215e-20)
(-4.48554 0.329748 0)
(-4.62923 0.293387 8.12733e-21)
(-4.75821 0.25916 0)
(-4.87219 0.225666 -2.29998e-20)
(-4.97051 0.19198 0)
(-5.05224 0.157599 2.19419e-20)
(-5.11644 0.122436 7.19703e-21)
(-5.16229 0.0867509 -6.99228e-21)
(-5.18922 0.0510645 -1.37902e-20)
(-5.19707 0.0161504 1.36423e-20)
(-5.18626 -0.0170695 0)
(-5.15582 -0.0480576 0)
(-5.10707 -0.0763483 0)
(-5.04112 -0.101619 -4.04948e-20)
(-4.95982 -0.123858 -1.35388e-20)
(-4.86483 -0.143211 1.35704e-20)
(-4.75773 -0.160073 0)
(-4.63979 -0.175019 1.36257e-20)
(-4.51182 -0.188742 -1.3747e-20)
(-4.37411 -0.201974 -1.38232e-20)
(-4.22644 -0.215384 0)
(-4.06814 -0.229479 0)
(-3.89829 -0.24449 0)
(-3.71592 -0.260299 -1.41765e-20)
(-3.52035 -0.276413 0)
(-3.3114 -0.292004 2.86769e-20)
(-3.0897 -0.306027 4.33131e-20)
(-2.85671 -0.317436 -2.90255e-20)
(-2.61464 -0.325417 0)
(-2.36623 -0.329539 -1.4623e-20)
(-2.11439 -0.329774 0)
(-1.86185 -0.326429 -2.94146e-20)
(-1.61086 -0.320036 1.46946e-20)
(-1.36326 -0.311263 1.46806e-20)
(-1.12052 -0.300804 0)
(-0.883739 -0.289237 4.38508e-20)
(-0.653765 -0.276896 -2.90931e-20)
(-0.431113 -0.264075 -1.44762e-20)
(-0.216216 -0.250831 0)
(-0.0102057 -0.237504 -1.42702e-20)
(0.186542 -0.224506 -4.24196e-20)
(0.374371 -0.210809 0)
(0.552772 -0.196864 -2.77106e-20)
(0.721116 -0.182653 -2.7404e-20)
(0.878815 -0.168168 -2.70842e-20)
(1.02524 -0.153431 0)
(1.15977 -0.138532 0)
(1.28188 -0.12365 0)
(1.39126 -0.109023 1.28556e-20)
(1.48801 -0.0948811 1.26826e-20)
(1.5727 -0.0814486 0)
(1.64641 -0.0689848 2.46482e-20)
(1.7104 -0.0576575 2.42927e-20)
(1.76586 -0.0473886 0)
(1.81425 -0.0380452 2.35919e-20)
(1.85698 -0.0295828 4.64837e-20)
(1.89407 -0.0215199 -2.29021e-20)
(1.92638 -0.0130988 -2.25571e-20)
(1.95551 -0.00426567 0)
(1.98143 0.00460622 0)
(2.00313 0.0130902 0)
(2.01969 0.0207611 -2.12474e-20)
(2.03041 0.0271811 2.09227e-20)
(2.03497 0.0320634 4.12185e-20)
(2.03347 0.0352574 -2.02986e-20)
(2.02649 0.0368071 1.99868e-20)
(2.01491 0.0368762 1.96836e-20)
(1.99985 0.0357207 0)
(1.98251 0.0336582 0)
(1.96401 0.0310152 -1.87866e-20)
(1.94533 0.0280837 0)
(1.92719 0.025095 0)
(1.91009 0.0222093 3.5839e-20)
(1.8943 0.0195186 0)
(1.87993 0.0170635 1.73558e-20)
(1.86697 0.0148509 -1.70771e-20)
(1.85537 0.0128705 0)
(1.84507 0.011106 1.65284e-20)
(1.83598 0.00954175 0)
(1.82805 0.008166 0)
(1.82122 0.00697017 -1.57203e-20)
(1.81545 0.00594682 3.09103e-20)
(1.81069 0.00508788 -1.51916e-20)
(1.8069 0.00438168 0)
(1.80399 0.00381669 0)
(1.80195 0.0033763 1.44118e-20)
(1.80064 0.00305327 0)
(1.80006 0.00282974 1.39004e-20)
(1.8 0.0027215 0)
(1.80052 0.00269813 0)
(1.80124 0.00282655 0)
(1.80237 0.00302397 1.28981e-20)
(1.8032 0.00348567 0)
(1.80415 0.00397708 -1.24073e-20)
(1.8041 0.00504835 0)
(1.80362 0.00590605 0)
(1.80147 0.00810648 2.33677e-20)
(1.79718 0.00921825 -2.28932e-20)
(1.79193 0.0137614 0)
(1.77838 0.0144553 0)
(1.77175 0.0243749 0)
(1.7338 0.0219958 6.31158e-20)
(1.73892 0.044869 0)
(1.6348 0.0334266 -4.02719e-20)
(0.0657008 0.101643 -3.16449e-23)
(0.181989 0.207014 -3.88213e-20)
(0.280368 0.117643 0)
(0.359411 -0.0377992 3.82014e-20)
(0.461319 -0.22023 0)
(0.59753 -0.417846 0)
(0.751369 -0.609038 6.77664e-24)
(0.900086 -0.763193 -1.8465e-20)
(1.02842 -0.86227 -1.8288e-20)
(1.12934 -0.902425 -1.81716e-20)
(1.20471 -0.892715 0)
(1.2587 -0.847718 0)
(1.2968 -0.782849 1.76371e-20)
(1.32536 -0.710871 3.49521e-20)
(1.35013 -0.640593 -3.46324e-20)
(1.3752 -0.577018 0)
(1.4033 -0.522251 -3.40014e-20)
(1.43597 -0.476434 1.6895e-20)
(1.47388 -0.438544 0)
(1.5171 -0.406914 -3.30764e-20)
(1.56543 -0.379574 -1.6424e-20)
(1.61827 -0.354603 3.24744e-20)
(1.67527 -0.329973 1.61205e-20)
(1.73565 -0.304008 0)
(1.79881 -0.274874 -3.15992e-20)
(1.86392 -0.241187 -3.13178e-20)
(1.93001 -0.201625 0)
(1.9962 -0.154964 -3.07778e-20)
(2.06152 -0.100804 0)
(2.12398 -0.0373848 -3.02779e-20)
(2.18351 0.0339571 -1.50561e-20)
(2.24123 0.116108 0)
(2.29562 0.206773 0)
(2.34873 0.309865 0)
(2.39721 0.420364 0)
(2.44562 0.536792 0)
(2.48656 0.658307 0)
(2.52265 0.762396 -2.85718e-20)
(2.54063 0.860238 4.25621e-20)
(2.52635 0.908514 0)
(2.47899 0.911258 0)
(2.35321 0.932296 0)
(2.1825 0.930322 -6.79126e-23)
(1.98558 0.865383 -2.71327e-20)
(1.70083 0.755353 -5.36652e-20)
(1.39248 0.616784 5.30765e-20)
(1.15921 0.471451 2.62163e-20)
(0.992493 0.327793 -2.59015e-20)
(0.86971 0.175822 9.84728e-24)
(0.7809 0.00385407 -2.53608e-20)
(0.731372 -0.172102 0)
(0.729136 -0.310654 -2.49951e-20)
(0.748134 -0.370247 2.93226e-24)
(0.782483 -0.416686 0)
(0.838547 -0.52895 0)
(0.85613 -0.559138 2.44998e-20)
(0.873665 -0.41763 0)
(1.05412 -0.392258 0)
(1.36071 -0.600386 -2.39556e-20)
(1.52482 -0.827251 -4.73587e-20)
(1.42722 -0.65048 2.34654e-20)
(0.804895 0.195444 0)
(-0.135692 1.03105 -2.30257e-20)
(-0.979536 1.5291 0)
(-1.64656 1.73306 -2.20446e-20)
(-2.09742 1.76941 -2.2224e-20)
(-2.42461 1.68318 4.30487e-20)
(-2.67021 1.52126 2.06818e-20)
(-2.88661 1.3374 0)
(-3.08391 1.16158 -4.01878e-20)
(-3.27397 1.00715 0)
(-3.45687 0.877295 -5.73896e-20)
(-3.63399 0.770293 -3.70053e-20)
(-3.80446 0.682378 -3.59506e-20)
(-3.96791 0.609359 3.49174e-20)
(-4.12367 0.547129 -5.10364e-20)
(-4.27097 0.492105 0)
(-4.40877 0.441218 0)
(-4.53581 0.392014 3.1154e-20)
(-4.65044 0.342663 4.5651e-20)
(-4.75081 0.291984 0)
(-4.83503 0.239425 -1.46025e-20)
(-4.90128 0.185014 0)
(-4.94798 0.129295 4.19667e-20)
(-4.97407 0.0732069 2.30932e-22)
(-4.97911 0.0177353 -2.1705e-22)
(-4.96334 -0.0360859 -2.7011e-20)
(-4.92745 -0.0867331 0)
(-4.87296 -0.133101 2.68307e-20)
(-4.8017 -0.174471 1.37451e-22)
(-4.71573 -0.210601 0)
(-4.61711 -0.241788 0)
(-4.50766 -0.26873 0)
(-4.38881 -0.292462 -2.73086e-20)
(-4.26144 -0.314221 0)
(-4.12584 -0.335296 0)
(-3.98166 -0.35687 0)
(-3.82802 -0.37983 0)
(-3.66369 -0.404586 0)
(-3.4874 -0.430926 -2.82149e-20)
(-3.29818 -0.457974 0)
(-3.09567 -0.484257 -2.86769e-20)
(-2.88047 -0.507911 -2.88575e-20)
(-2.65425 -0.527079 2.9024e-20)
(-2.41958 -0.540359 0)
(-2.17954 -0.547073 2.92844e-20)
(-1.93728 -0.547275 0)
(-1.69548 -0.541607 2.94112e-20)
(-1.45612 -0.531004 -2.94182e-20)
(-1.22058 -0.516583 -8.80624e-20)
(-0.989775 -0.499508 0)
(-0.764197 -0.480685 -8.75758e-20)
(-0.544241 -0.460545 -2.90093e-20)
(-0.330012 -0.439648 0)
(-0.121922 -0.418164 -5.74114e-20)
(0.078969 -0.396847 -5.69752e-20)
(0.272623 -0.374857 8.47429e-20)
(0.459091 -0.352318 0)
(0.637463 -0.329283 2.77015e-20)
(0.806996 -0.305667 2.73954e-20)
(0.966866 -0.281369 8.11967e-20)
(1.11617 -0.256328 0)
(1.25395 -0.230624 0)
(1.37926 -0.204589 0)
(1.49111 -0.178839 2.5692e-20)
(1.58867 -0.154173 0)
(1.67161 -0.131401 0)
(1.74053 -0.111092 -2.46436e-20)
(1.7971 -0.0933262 -2.42887e-20)
(1.84386 -0.0778622 0)
(1.88359 -0.0645161 0)
(1.91854 -0.0528574 -4.64786e-20)
(1.95024 -0.0421149 0)
(1.97987 -0.0318295 4.51165e-20)
(2.0081 -0.02181 4.44384e-20)
(2.03514 -0.0118634 0)
(2.06105 -0.00212119 0)
(2.08529 0.00720898 -4.24793e-20)
(2.107 0.0158275 -6.65047e-24)
(2.1253 0.0233391 -5.6558e-24)
(2.13949 0.0294008 0)
(2.14922 0.0337963 -7.99378e-20)
(2.1545 0.0364455 0)
(2.15563 0.0374025 0)
(2.15316 0.0368596 0)
(2.14777 0.035132 3.75657e-20)
(2.1402 0.0325907 0)
(2.13126 0.0295914 -7.28062e-20)
(2.12166 0.0264268 -3.58307e-20)
(2.11204 0.0233071 0)
(2.10289 0.0203621 -3.47029e-20)
(2.09454 0.0176601 0)
(2.08716 0.0152286 0)
(2.08082 0.013069 -9.91459e-20)
(2.07547 0.0111652 6.50125e-20)
(2.07105 0.00948844 0)
(2.06744 0.0080039 6.28671e-20)
(2.06454 0.00667776 -3.09028e-20)
(2.06226 0.00548283 0)
(2.06056 0.00439814 0)
(2.05942 0.00341534 0)
(2.05889 0.00252535 -8.64502e-20)
(2.05905 0.00173888 0)
(2.05997 0.00104847 -2.77942e-20)
(2.06176 0.000497744 0)
(2.06443 6.07223e-05 0)
(2.0681 -0.000147826 0)
(2.07258 -0.000227254 0)
(2.07802 0.000109229 0)
(2.08388 0.000525117 0)
(2.0906 0.0017785 -4.86419e-20)
(2.09683 0.00281257 0)
(2.10414 0.00563982 -2.33618e-20)
(2.10904 0.00724952 6.86559e-20)
(2.11655 0.0130452 0)
(2.11715 0.0147665 0)
(2.12573 0.0266427 -4.29641e-20)
(2.11598 0.026782 -4.20603e-20)
(2.12968 0.0512941 4.11382e-20)
(2.0976 0.0469417 4.02571e-20)
(-0.00429839 -0.0938903 5.87877e-20)
(0.061426 -0.0366447 5.83586e-20)
(0.177088 -0.107737 3.86063e-20)
(0.359859 -0.329851 1.91496e-20)
(0.556209 -0.59184 0)
(0.730873 -0.818117 -3.75491e-20)
(0.857332 -0.970447 1.85929e-20)
(0.923803 -1.03754 0)
(0.933671 -1.02782 1.82904e-20)
(0.901144 -0.962946 0)
(0.845197 -0.869984 -3.58895e-20)
(0.783744 -0.772353 0)
(0.72921 -0.685703 -1.76662e-20)
(0.687696 -0.617051 -3.50162e-20)
(0.660859 -0.566974 3.47e-20)
(0.647855 -0.532319 0)
(0.64679 -0.50875 3.40719e-20)
(0.655671 -0.492346 0)
(0.673007 -0.480235 0)
(0.697854 -0.470217 3.31474e-20)
(0.729651 -0.460591 0)
(0.768064 -0.449964 -4.86059e-23)
(0.813126 -0.437095 0)
(0.864731 -0.420691 0)
(0.922803 -0.399419 3.59898e-23)
(0.987079 -0.371848 3.13843e-20)
(1.05726 -0.336968 3.10807e-20)
(1.13293 -0.293622 3.08406e-20)
(1.21375 -0.240912 0)
(1.29937 -0.178022 6.06535e-20)
(1.38794 -0.105135 0)
(1.48161 -0.0206383 2.9857e-20)
(1.57892 0.0730843 0)
(1.68008 0.176011 0)
(1.78458 0.286667 -2.92134e-20)
(1.89298 0.400112 0)
(2.00673 0.518738 2.87957e-20)
(2.12115 0.631488 2.20585e-23)
(2.23743 0.740108 -5.67339e-20)
(2.34501 0.835723 5.62541e-20)
(2.43752 0.905883 0)
(2.50408 0.966484 0)
(2.53415 1.00382 2.73996e-20)
(2.53126 1.00152 0)
(2.48804 0.96686 2.67663e-20)
(2.40522 0.898291 -2.64675e-20)
(2.3085 0.791777 -2.61419e-20)
(2.20321 0.64405 0)
(2.0936 0.451108 2.55303e-20)
(1.97674 0.246593 2.52901e-20)
(1.85176 0.046546 -5.04105e-20)
(1.73707 -0.167097 2.49439e-20)
(1.61735 -0.319923 2.48191e-20)
(1.53852 -0.411525 0)
(1.50152 -0.525536 0)
(1.36641 -0.531297 -2.44745e-20)
(1.2813 -0.472684 0)
(1.45094 -0.726492 0)
(1.53901 -0.953296 4.78619e-20)
(1.04484 -0.347832 4.74203e-20)
(0.115896 0.704811 0)
(-0.734787 1.48734 0)
(-1.43365 1.97442 0)
(-1.92629 2.18809 0)
(-2.23992 2.19408 4.45235e-20)
(-2.43995 2.08992 -4.31325e-20)
(-2.58916 1.91832 -4.30182e-20)
(-2.72208 1.72422 -8.35349e-20)
(-2.85767 1.53253 0)
(-2.99893 1.35741 6.87181e-22)
(-3.14601 1.20393 0)
(-3.29666 1.07253 3.80711e-20)
(-3.44847 0.961286 5.12134e-22)
(-3.59958 0.866954 3.59535e-20)
(-3.74829 0.7859 -3.49214e-20)
(-3.89314 0.714325 3.88595e-22)
(-4.03261 0.648633 0)
(-4.16491 0.585617 -3.16783e-20)
(-4.28803 0.522613 -3.11608e-20)
(-4.3996 0.457586 -6.03656e-20)
(-4.49712 0.389217 0)
(-4.57805 0.317001 2.86222e-20)
(-4.64005 0.241256 0)
(-4.68127 0.162935 -5.54946e-20)
(-4.70055 0.083491 2.75231e-20)
(-4.69741 0.00490324 -2.72309e-20)
(-4.6721 -0.0708881 2.7022e-20)
(-4.62576 -0.141582 5.3322e-20)
(-4.56031 -0.205627 -2.68407e-20)
(-4.47824 -0.262147 2.68461e-20)
(-4.38233 -0.310897 0)