# vtk DataFile Version 2.0
sampleSurface
ASCII
DATASET POLYDATA
POINTS 502 double
-0.0206 0 -0.0005
-0.0190172 0 -0.0005
-0.0190172 0 0.0005
-0.0206 0 0.0005
-0.0174976 0 -0.0005
-0.0174976 0 0.0005
-0.0160387 0 -0.0005
-0.0160387 0 0.0005
-0.0146381 0 -0.0005
-0.0146381 0 0.0005
-0.0132934 0 -0.0005
-0.0132934 0 0.0005
-0.0120025 0 -0.0005
-0.0120025 0 0.0005
-0.0107632 0 -0.0005
-0.0107632 0 0.0005
-0.00957337 0 -0.0005
-0.00957337 0 0.0005
-0.00843108 0 -0.0005
-0.00843108 0 0.0005
-0.00733443 0 -0.0005
-0.00733443 0 0.0005
-0.0062816 0 -0.0005
-0.0062816 0 0.0005
-0.00527083 0 -0.0005
-0.00527083 0 0.0005
-0.00430044 0 -0.0005
-0.00430044 0 0.0005
-0.00336883 0 -0.0005
-0.00336883 0 0.0005
-0.00247443 0 -0.0005
-0.00247443 0 0.0005
-0.00161577 0 -0.0005
-0.00161577 0 0.0005
-0.000791418 0 -0.0005
-0.000791418 0 0.0005
0 0 -0.0005
0 0 0.0005
0 -0.0254 -0.0005
0 -0.0254 0.0005
0 -0.0242711 0.0005
0 -0.0242711 -0.0005
0 -0.0231422 0.0005
0 -0.0231422 -0.0005
0 -0.0220133 0.0005
0 -0.0220133 -0.0005
0 -0.0208844 0.0005
0 -0.0208844 -0.0005
0 -0.0197556 0.0005
0 -0.0197556 -0.0005
0 -0.0186267 0.0005
0 -0.0186267 -0.0005
0 -0.0174978 0.0005
0 -0.0174978 -0.0005
0 -0.0163689 0.0005
0 -0.0163689 -0.0005
0 -0.01524 0.0005
0 -0.01524 -0.0005
0 -0.0141111 0.0005
0 -0.0141111 -0.0005
0 -0.0129822 0.0005
0 -0.0129822 -0.0005
0 -0.0118533 0.0005
0 -0.0118533 -0.0005
0 -0.0107244 0.0005
0 -0.0107244 -0.0005
0 -0.00959556 0.0005
0 -0.00959556 -0.0005
0 -0.00846667 0.0005
0 -0.00846667 -0.0005
0 -0.00726604 0.0005
0 -0.00726604 -0.0005
0 -0.00618989 0.0005
0 -0.00618989 -0.0005
0 -0.00522531 0.0005
0 -0.00522531 -0.0005
0 -0.00436073 0.0005
0 -0.00436073 -0.0005
0 -0.00358579 0.0005
0 -0.00358579 -0.0005
0 -0.00289118 0.0005
0 -0.00289118 -0.0005
0 -0.0022686 0.0005
0 -0.0022686 -0.0005
0 -0.00171055 0.0005
0 -0.00171055 -0.0005
0 -0.00121037 0.0005
0 -0.00121037 -0.0005
0 -0.000762037 0.0005
0 -0.000762037 -0.0005
0 -0.000360188 0.0005
0 -0.000360188 -0.0005
0.000528387 -0.0254 -0.0005
0.000528387 -0.0254 0.0005
0.00106088 -0.0254 -0.0005
0.00106088 -0.0254 0.0005
0.00159752 -0.0254 -0.0005
0.00159752 -0.0254 0.0005
0.00213833 -0.0254 -0.0005
0.00213833 -0.0254 0.0005
0.00268334 -0.0254 -0.0005
0.00268334 -0.0254 0.0005
0.00323259 -0.0254 -0.0005
0.00323259 -0.0254 0.0005
0.00378611 -0.0254 -0.0005
0.00378611 -0.0254 0.0005
0.00434393 -0.0254 -0.0005
0.00434393 -0.0254 0.0005
0.00490609 -0.0254 -0.0005
0.00490609 -0.0254 0.0005
0.00547262 -0.0254 -0.0005
0.00547262 -0.0254 0.0005
0.00604356 -0.0254 -0.0005
0.00604356 -0.0254 0.0005
0.00661893 -0.0254 -0.0005
0.00661893 -0.0254 0.0005
0.00719878 -0.0254 -0.0005
0.00719878 -0.0254 0.0005
0.00778313 -0.0254 -0.0005
0.00778313 -0.0254 0.0005
0.00837203 -0.0254 -0.0005
0.00837203 -0.0254 0.0005
0.00896551 -0.0254 -0.0005
0.00896551 -0.0254 0.0005
0.0095636 -0.0254 -0.0005
0.0095636 -0.0254 0.0005
0.0101663 -0.0254 -0.0005
0.0101663 -0.0254 0.0005
0.0107738 -0.0254 -0.0005
0.0107738 -0.0254 0.0005
0.0113859 -0.0254 -0.0005
0.0113859 -0.0254 0.0005
0.0120028 -0.0254 -0.0005
0.0120028 -0.0254 0.0005
0.0126245 -0.0254 -0.0005
0.0126245 -0.0254 0.0005
0.0132511 -0.0254 -0.0005
0.0132511 -0.0254 0.0005
0.0138825 -0.0254 -0.0005
0.0138825 -0.0254 0.0005
0.0145188 -0.0254 -0.0005
0.0145188 -0.0254 0.0005
0.0151601 -0.0254 -0.0005
0.0151601 -0.0254 0.0005
0.0158063 -0.0254 -0.0005
0.0158063 -0.0254 0.0005
0.0164576 -0.0254 -0.0005
0.0164576 -0.0254 0.0005
0.0171139 -0.0254 -0.0005
0.0171139 -0.0254 0.0005
0.0177754 -0.0254 -0.0005
0.0177754 -0.0254 0.0005
0.018442 -0.0254 -0.0005
0.018442 -0.0254 0.0005
0.0191137 -0.0254 -0.0005
0.0191137 -0.0254 0.0005
0.0197907 -0.0254 -0.0005
0.0197907 -0.0254 0.0005
0.020473 -0.0254 -0.0005
0.020473 -0.0254 0.0005
0.0211606 -0.0254 -0.0005
0.0211606 -0.0254 0.0005
0.0218535 -0.0254 -0.0005
0.0218535 -0.0254 0.0005
0.0225517 -0.0254 -0.0005
0.0225517 -0.0254 0.0005
0.0232555 -0.0254 -0.0005
0.0232555 -0.0254 0.0005
0.0239647 -0.0254 -0.0005
0.0239647 -0.0254 0.0005
0.0246794 -0.0254 -0.0005
0.0246794 -0.0254 0.0005
0.0253996 -0.0254 -0.0005
0.0253996 -0.0254 0.0005
0.0261255 -0.0254 -0.0005
0.0261255 -0.0254 0.0005
0.026857 -0.0254 -0.0005
0.026857 -0.0254 0.0005
0.0275942 -0.0254 -0.0005
0.0275942 -0.0254 0.0005
0.0283371 -0.0254 -0.0005
0.0283371 -0.0254 0.0005
0.0290858 -0.0254 -0.0005
0.0290858 -0.0254 0.0005
0.0298403 -0.0254 -0.0005
0.0298403 -0.0254 0.0005
0.0306007 -0.0254 -0.0005
0.0306007 -0.0254 0.0005
0.031367 -0.0254 -0.0005
0.031367 -0.0254 0.0005
0.0321393 -0.0254 -0.0005
0.0321393 -0.0254 0.0005
0.0329175 -0.0254 -0.0005
0.0329175 -0.0254 0.0005
0.0337019 -0.0254 -0.0005
0.0337019 -0.0254 0.0005
0.0344923 -0.0254 -0.0005
0.0344923 -0.0254 0.0005
0.0352888 -0.0254 -0.0005
0.0352888 -0.0254 0.0005
0.0360916 -0.0254 -0.0005
0.0360916 -0.0254 0.0005
0.0369006 -0.0254 -0.0005
0.0369006 -0.0254 0.0005
0.0377158 -0.0254 -0.0005
0.0377158 -0.0254 0.0005
0.0385375 -0.0254 -0.0005
0.0385375 -0.0254 0.0005
0.0393655 -0.0254 -0.0005
0.0393655 -0.0254 0.0005
0.0401999 -0.0254 -0.0005
0.0401999 -0.0254 0.0005
0.0410408 -0.0254 -0.0005
0.0410408 -0.0254 0.0005
0.0418883 -0.0254 -0.0005
0.0418883 -0.0254 0.0005
0.0427424 -0.0254 -0.0005
0.0427424 -0.0254 0.0005
0.0436031 -0.0254 -0.0005
0.0436031 -0.0254 0.0005
0.0444704 -0.0254 -0.0005
0.0444704 -0.0254 0.0005
0.0453446 -0.0254 -0.0005
0.0453446 -0.0254 0.0005
0.0462255 -0.0254 -0.0005
0.0462255 -0.0254 0.0005
0.0471133 -0.0254 -0.0005
0.0471133 -0.0254 0.0005
0.048008 -0.0254 -0.0005
0.048008 -0.0254 0.0005
0.0489096 -0.0254 -0.0005
0.0489096 -0.0254 0.0005
0.0498183 -0.0254 -0.0005
0.0498183 -0.0254 0.0005
0.050734 -0.0254 -0.0005
0.050734 -0.0254 0.0005
0.0516568 -0.0254 -0.0005
0.0516568 -0.0254 0.0005
0.0525868 -0.0254 -0.0005
0.0525868 -0.0254 0.0005
0.053524 -0.0254 -0.0005
0.053524 -0.0254 0.0005
0.0544686 -0.0254 -0.0005
0.0544686 -0.0254 0.0005
0.0554204 -0.0254 -0.0005
0.0554204 -0.0254 0.0005
0.0563797 -0.0254 -0.0005
0.0563797 -0.0254 0.0005
0.0573464 -0.0254 -0.0005
0.0573464 -0.0254 0.0005
0.0583206 -0.0254 -0.0005
0.0583206 -0.0254 0.0005
0.0593025 -0.0254 -0.0005
0.0593025 -0.0254 0.0005
0.0602919 -0.0254 -0.0005
0.0602919 -0.0254 0.0005
0.0612891 -0.0254 -0.0005
0.0612891 -0.0254 0.0005
0.0622939 -0.0254 -0.0005
0.0622939 -0.0254 0.0005
0.0633067 -0.0254 -0.0005
0.0633067 -0.0254 0.0005
0.0643272 -0.0254 -0.0005
0.0643272 -0.0254 0.0005
0.0653557 -0.0254 -0.0005
0.0653557 -0.0254 0.0005
0.0663923 -0.0254 -0.0005
0.0663923 -0.0254 0.0005
0.0674368 -0.0254 -0.0005
0.0674368 -0.0254 0.0005
0.0684895 -0.0254 -0.0005
0.0684895 -0.0254 0.0005
0.0695504 -0.0254 -0.0005
0.0695504 -0.0254 0.0005
0.0706195 -0.0254 -0.0005
0.0706195 -0.0254 0.0005
0.0716969 -0.0254 -0.0005
0.0716969 -0.0254 0.0005
0.0727828 -0.0254 -0.0005
0.0727828 -0.0254 0.0005
0.073877 -0.0254 -0.0005
0.073877 -0.0254 0.0005
0.0749798 -0.0254 -0.0005
0.0749798 -0.0254 0.0005
0.0760911 -0.0254 -0.0005
0.0760911 -0.0254 0.0005
0.0772111 -0.0254 -0.0005
0.0772111 -0.0254 0.0005
0.0783398 -0.0254 -0.0005
0.0783398 -0.0254 0.0005
0.0794772 -0.0254 -0.0005
0.0794772 -0.0254 0.0005
0.0806235 -0.0254 -0.0005
0.0806235 -0.0254 0.0005
0.0817787 -0.0254 -0.0005
0.0817787 -0.0254 0.0005
0.0829429 -0.0254 -0.0005
0.0829429 -0.0254 0.0005
0.0841162 -0.0254 -0.0005
0.0841162 -0.0254 0.0005
0.0852985 -0.0254 -0.0005
0.0852985 -0.0254 0.0005
0.0864901 -0.0254 -0.0005
0.0864901 -0.0254 0.0005
0.0876909 -0.0254 -0.0005
0.0876909 -0.0254 0.0005
0.0889011 -0.0254 -0.0005
0.0889011 -0.0254 0.0005
0.0901207 -0.0254 -0.0005
0.0901207 -0.0254 0.0005
0.0913497 -0.0254 -0.0005
0.0913497 -0.0254 0.0005
0.0925883 -0.0254 -0.0005
0.0925883 -0.0254 0.0005
0.0938366 -0.0254 -0.0005
0.0938366 -0.0254 0.0005
0.0950945 -0.0254 -0.0005
0.0950945 -0.0254 0.0005
0.0963622 -0.0254 -0.0005
0.0963622 -0.0254 0.0005
0.0976398 -0.0254 -0.0005
0.0976398 -0.0254 0.0005
0.0989273 -0.0254 -0.0005
0.0989273 -0.0254 0.0005
0.100225 -0.0254 -0.0005
0.100225 -0.0254 0.0005
0.101532 -0.0254 -0.0005
0.101532 -0.0254 0.0005
0.10285 -0.0254 -0.0005
0.10285 -0.0254 0.0005
0.104178 -0.0254 -0.0005
0.104178 -0.0254 0.0005
0.105517 -0.0254 -0.0005
0.105517 -0.0254 0.0005
0.106865 -0.0254 -0.0005
0.106865 -0.0254 0.0005
0.108225 -0.0254 -0.0005
0.108225 -0.0254 0.0005
0.109594 -0.0254 -0.0005
0.109594 -0.0254 0.0005
0.110975 -0.0254 -0.0005
0.110975 -0.0254 0.0005
0.112366 -0.0254 -0.0005
0.112366 -0.0254 0.0005
0.113768 -0.0254 -0.0005
0.113768 -0.0254 0.0005
0.115181 -0.0254 -0.0005
0.115181 -0.0254 0.0005
0.116605 -0.0254 -0.0005
0.116605 -0.0254 0.0005
0.11804 -0.0254 -0.0005
0.11804 -0.0254 0.0005
0.119486 -0.0254 -0.0005
0.119486 -0.0254 0.0005
0.120943 -0.0254 -0.0005
0.120943 -0.0254 0.0005
0.122412 -0.0254 -0.0005
0.122412 -0.0254 0.0005
0.123892 -0.0254 -0.0005
0.123892 -0.0254 0.0005
0.125384 -0.0254 -0.0005
0.125384 -0.0254 0.0005
0.126887 -0.0254 -0.0005
0.126887 -0.0254 0.0005
0.128402 -0.0254 -0.0005
0.128402 -0.0254 0.0005
0.129928 -0.0254 -0.0005
0.129928 -0.0254 0.0005
0.131467 -0.0254 -0.0005
0.131467 -0.0254 0.0005
0.133017 -0.0254 -0.0005
0.133017 -0.0254 0.0005
0.13458 -0.0254 -0.0005
0.13458 -0.0254 0.0005
0.136155 -0.0254 -0.0005
0.136155 -0.0254 0.0005
0.137742 -0.0254 -0.0005
0.137742 -0.0254 0.0005
0.139341 -0.0254 -0.0005
0.139341 -0.0254 0.0005
0.140953 -0.0254 -0.0005
0.140953 -0.0254 0.0005
0.142577 -0.0254 -0.0005
0.142577 -0.0254 0.0005
0.144214 -0.0254 -0.0005
0.144214 -0.0254 0.0005
0.145863 -0.0254 -0.0005
0.145863 -0.0254 0.0005
0.147526 -0.0254 -0.0005
0.147526 -0.0254 0.0005
0.149201 -0.0254 -0.0005
0.149201 -0.0254 0.0005
0.15089 -0.0254 -0.0005
0.15089 -0.0254 0.0005
0.152591 -0.0254 -0.0005
0.152591 -0.0254 0.0005
0.154306 -0.0254 -0.0005
0.154306 -0.0254 0.0005
0.156034 -0.0254 -0.0005
0.156034 -0.0254 0.0005
0.157775 -0.0254 -0.0005
0.157775 -0.0254 0.0005
0.159531 -0.0254 -0.0005
0.159531 -0.0254 0.0005
0.161299 -0.0254 -0.0005
0.161299 -0.0254 0.0005
0.163082 -0.0254 -0.0005
0.163082 -0.0254 0.0005
0.164878 -0.0254 -0.0005
0.164878 -0.0254 0.0005
0.166688 -0.0254 -0.0005
0.166688 -0.0254 0.0005
0.168513 -0.0254 -0.0005
0.168513 -0.0254 0.0005
0.170351 -0.0254 -0.0005
0.170351 -0.0254 0.0005
0.172204 -0.0254 -0.0005
0.172204 -0.0254 0.0005
0.174071 -0.0254 -0.0005
0.174071 -0.0254 0.0005
0.175953 -0.0254 -0.0005
0.175953 -0.0254 0.0005
0.177849 -0.0254 -0.0005
0.177849 -0.0254 0.0005
0.17976 -0.0254 -0.0005
0.17976 -0.0254 0.0005
0.181686 -0.0254 -0.0005
0.181686 -0.0254 0.0005
0.183627 -0.0254 -0.0005
0.183627 -0.0254 0.0005
0.185583 -0.0254 -0.0005
0.185583 -0.0254 0.0005
0.187555 -0.0254 -0.0005
0.187555 -0.0254 0.0005
0.189541 -0.0254 -0.0005
0.189541 -0.0254 0.0005
0.191543 -0.0254 -0.0005
0.191543 -0.0254 0.0005
0.193561 -0.0254 -0.0005
0.193561 -0.0254 0.0005
0.195594 -0.0254 -0.0005
0.195594 -0.0254 0.0005
0.197643 -0.0254 -0.0005
0.197643 -0.0254 0.0005
0.199708 -0.0254 -0.0005
0.199708 -0.0254 0.0005
0.201789 -0.0254 -0.0005
0.201789 -0.0254 0.0005
0.203886 -0.0254 -0.0005
0.203886 -0.0254 0.0005
0.206 -0.0254 -0.0005
0.206 -0.0254 0.0005
0.208047 -0.0251856 -0.0005
0.208047 -0.0251856 0.0005
0.210173 -0.0249628 -0.0005
0.210173 -0.0249628 0.0005
0.212382 -0.0247314 -0.0005
0.212382 -0.0247314 0.0005
0.214677 -0.024491 -0.0005
0.214677 -0.024491 0.0005
0.217061 -0.0242412 -0.0005
0.217061 -0.0242412 0.0005
0.219538 -0.0239817 -0.0005
0.219538 -0.0239817 0.0005
0.222112 -0.0237121 -0.0005
0.222112 -0.0237121 0.0005
0.224785 -0.023432 -0.0005
0.224785 -0.023432 0.0005
0.227563 -0.023141 -0.0005
0.227563 -0.023141 0.0005
0.230449 -0.0228387 -0.0005
0.230449 -0.0228387 0.0005
0.233447 -0.0225246 -0.0005
0.233447 -0.0225246 0.0005
0.236562 -0.0221983 -0.0005
0.236562 -0.0221983 0.0005
0.239797 -0.0218593 -0.0005
0.239797 -0.0218593 0.0005
0.243159 -0.0215071 -0.0005
0.243159 -0.0215071 0.0005
0.246652 -0.0211412 -0.0005
0.246652 -0.0211412 0.0005
0.250281 -0.0207611 -0.0005
0.250281 -0.0207611 0.0005
0.254051 -0.0203661 -0.0005
0.254051 -0.0203661 0.0005
0.257967 -0.0199558 -0.0005
0.257967 -0.0199558 0.0005
0.262036 -0.0195295 -0.0005
0.262036 -0.0195295 0.0005
0.266264 -0.0190867 -0.0005
0.266264 -0.0190867 0.0005
0.270655 -0.0186266 -0.0005
0.270655 -0.0186266 0.0005
0.275218 -0.0181486 -0.0005
0.275218 -0.0181486 0.0005
0.279959 -0.017652 -0.0005
0.279959 -0.017652 0.0005
0.284883 -0.017136 -0.0005
0.284883 -0.017136 0.0005
0.29 -0.0166 -0.0005
0.29 -0.0166 0.0005

POLYGONS 250 1250
4 0 1 2 3
4 1 4 5 2
4 4 6 7 5
4 6 8 9 7
4 8 10 11 9
4 10 12 13 11
4 12 14 15 13
4 14 16 17 15
4 16 18 19 17
4 18 20 21 19
4 20 22 23 21
4 22 24 25 23
4 24 26 27 25
4 26 28 29 27
4 28 30 31 29
4 30 32 33 31
4 32 34 35 33
4 34 36 37 35
4 38 39 40 41
4 41 40 42 43
4 43 42 44 45
4 45 44 46 47
4 47 46 48 49
4 49 48 50 51
4 51 50 52 53
4 53 52 54 55
4 55 54 56 57
4 57 56 58 59
4 59 58 60 61
4 61 60 62 63
4 63 62 64 65
4 65 64 66 67
4 67 66 68 69
4 69 68 70 71
4 71 70 72 73
4 73 72 74 75
4 75 74 76 77
4 77 76 78 79
4 79 78 80 81
4 81 80 82 83
4 83 82 84 85
4 85 84 86 87
4 87 86 88 89
4 89 88 90 91
4 91 90 37 36
4 38 92 93 39
4 92 94 95 93
4 94 96 97 95
4 96 98 99 97
4 98 100 101 99
4 100 102 103 101
4 102 104 105 103
4 104 106 107 105
4 106 108 109 107
4 108 110 111 109
4 110 112 113 111
4 112 114 115 113
4 114 116 117 115
4 116 118 119 117
4 118 120 121 119
4 120 122 123 121
4 122 124 125 123
4 124 126 127 125
4 126 128 129 127
4 128 130 131 129
4 130 132 133 131
4 132 134 135 133
4 134 136 137 135
4 136 138 139 137
4 138 140 141 139
4 140 142 143 141
4 142 144 145 143
4 144 146 147 145
4 146 148 149 147
4 148 150 151 149
4 150 152 153 151
4 152 154 155 153
4 154 156 157 155
4 156 158 159 157
4 158 160 161 159
4 160 162 163 161
4 162 164 165 163
4 164 166 167 165
4 166 168 169 167
4 168 170 171 169
4 170 172 173 171
4 172 174 175 173
4 174 176 177 175
4 176 178 179 177
4 178 180 181 179
4 180 182 183 181
4 182 184 185 183
4 184 186 187 185
4 186 188 189 187
4 188 190 191 189
4 190 192 193 191
4 192 194 195 193
4 194 196 197 195
4 196 198 199 197
4 198 200 201 199
4 200 202 203 201
4 202 204 205 203
4 204 206 207 205
4 206 208 209 207
4 208 210 211 209
4 210 212 213 211
4 212 214 215 213
4 214 216 217 215
4 216 218 219 217
4 218 220 221 219
4 220 222 223 221
4 222 224 225 223
4 224 226 227 225
4 226 228 229 227
4 228 230 231 229
4 230 232 233 231
4 232 234 235 233
4 234 236 237 235
4 236 238 239 237
4 238 240 241 239
4 240 242 243 241
4 242 244 245 243
4 244 246 247 245
4 246 248 249 247
4 248 250 251 249
4 250 252 253 251
4 252 254 255 253
4 254 256 257 255
4 256 258 259 257
4 258 260 261 259
4 260 262 263 261
4 262 264 265 263
4 264 266 267 265
4 266 268 269 267
4 268 270 271 269
4 270 272 273 271
4 272 274 275 273
4 274 276 277 275
4 276 278 279 277
4 278 280 281 279
4 280 282 283 281
4 282 284 285 283
4 284 286 287 285
4 286 288 289 287
4 288 290 291 289
4 290 292 293 291
4 292 294 295 293
4 294 296 297 295
4 296 298 299 297
4 298 300 301 299
4 300 302 303 301
4 302 304 305 303
4 304 306 307 305
4 306 308 309 307
4 308 310 311 309
4 310 312 313 311
4 312 314 315 313
4 314 316 317 315
4 316 318 319 317
4 318 320 321 319
4 320 322 323 321
4 322 324 325 323
4 324 326 327 325
4 326 328 329 327
4 328 330 331 329
4 330 332 333 331
4 332 334 335 333
4 334 336 337 335
4 336 338 339 337
4 338 340 341 339
4 340 342 343 341
4 342 344 345 343
4 344 346 347 345
4 346 348 349 347
4 348 350 351 349
4 350 352 353 351
4 352 354 355 353
4 354 356 357 355
4 356 358 359 357
4 358 360 361 359
4 360 362 363 361
4 362 364 365 363
4 364 366 367 365
4 366 368 369 367
4 368 370 371 369
4 370 372 373 371
4 372 374 375 373
4 374 376 377 375
4 376 378 379 377
4 378 380 381 379
4 380 382 383 381
4 382 384 385 383
4 384 386 387 385
4 386 388 389 387
4 388 390 391 389
4 390 392 393 391
4 392 394 395 393
4 394 396 397 395
4 396 398 399 397
4 398 400 401 399
4 400 402 403 401
4 402 404 405 403
4 404 406 407 405
4 406 408 409 407
4 408 410 411 409
4 410 412 413 411
4 412 414 415 413
4 414 416 417 415
4 416 418 419 417
4 418 420 421 419
4 420 422 423 421
4 422 424 425 423
4 424 426 427 425
4 426 428 429 427
4 428 430 431 429
4 430 432 433 431
4 432 434 435 433
4 434 436 437 435
4 436 438 439 437
4 438 440 441 439
4 440 442 443 441
4 442 444 445 443
4 444 446 447 445
4 446 448 449 447
4 448 450 451 449
4 450 452 453 451
4 452 454 455 453
4 454 456 457 455
4 456 458 459 457
4 458 460 461 459
4 460 462 463 461
4 462 464 465 463
4 464 466 467 465
4 466 468 469 467
4 468 470 471 469
4 470 472 473 471
4 472 474 475 473
4 474 476 477 475
4 476 478 479 477
4 478 480 481 479
4 480 482 483 481
4 482 484 485 483
4 484 486 487 485
4 486 488 489 487
4 488 490 491 489
4 490 492 493 491
4 492 494 495 493
4 494 496 497 495
4 496 498 499 497
4 498 500 501 499
POINT_DATA 502
FIELD attributes 1
U 3 502 float
1.66033 0.0829351 -0.00296811
0.831653 0.0413178 -0.00146269
0.831653 0.0413178 -0.00146269
1.66033 0.0829351 -0.00296811
0.0248397 0.000765444 0
0.0248397 0.000765444 0
0.0220094 0.000558216 0
0.0220094 0.000558216 0
0.0197898 0.000424971 0
0.0197898 0.000424971 0
0.0178226 0.000367543 0
0.0178226 0.000367543 0
0.0159695 0.000337841 0
0.0159695 0.000337841 0
0.0142121 0.000305784 0
0.0142121 0.000305784 0
0.012598 0.000260488 0
0.012598 0.000260488 0
0.0111884 0.000205144 0
0.0111884 0.000205144 0
0.0100184 0.000149715 0
0.0100184 0.000149715 0
0.00910441 0.000101652 0
0.00910441 0.000101652 0
0.00841022 6.16959e-05 0
0.00841022 6.16959e-05 0
0.00792308 2.93738e-05 0
0.00792308 2.93738e-05 0
0.00755371 5.99394e-06 0
0.00755371 5.99394e-06 0
0.00732497 -1.05932e-05 0
0.00732497 -1.05932e-05 0
0.00710215 -8.94675e-06 0
0.00710215 -8.94675e-06 0
0.00684237 1.75567e-05 0
0.00684237 1.75567e-05 0
0.00304382 0.000428695 0
0.00304382 0.000428695 0
-2.17804e-05 3.272e-05 -5.63818e-23
-2.17804e-05 3.272e-05 -5.63818e-23
-5.4059e-05 0.000249728 1.52479e-22
-5.4059e-05 0.000249728 1.52479e-22
-8.72091e-05 0.000737255 1.80738e-22
-8.72091e-05 0.000737255 1.80738e-22
-8.36602e-05 0.00124927 -3.61572e-22
-8.36602e-05 0.00124927 -3.61572e-22
-7.49582e-05 0.0017147 -1.2052e-22
-7.49582e-05 0.0017147 -1.2052e-22
-6.65208e-05 0.00214526 2.4112e-22
-6.65208e-05 0.00214526 2.4112e-22
-5.78308e-05 0.00254092 0
-5.78308e-05 0.00254092 0
-4.73993e-05 0.00289771 4.84733e-22
-4.73993e-05 0.00289771 4.84733e-22
-3.41655e-05 0.00320701 4.71554e-26
-3.41655e-05 0.00320701 4.71554e-26
-1.73001e-05 0.0034566 -4.84686e-22
-1.73001e-05 0.0034566 -4.84686e-22
4.23153e-06 0.00362979 4.87458e-22
4.23153e-06 0.00362979 4.87458e-22
3.18382e-05 0.00370543 1.35286e-28
3.18382e-05 0.00370543 1.35286e-28
6.75929e-05 0.00365604 -4.87458e-22
6.75929e-05 0.00365604 -4.87458e-22
0.000112832 0.00344931 -4.90714e-22
0.000112832 0.00344931 -4.90714e-22
0.000169612 0.00305183 5.81589e-26
0.000169612 0.00305183 5.81589e-26
0.000239147 0.0024009 4.99471e-22
0.000239147 0.0024009 4.99471e-22
0.000310547 0.00139848 0
0.000310547 0.00139848 0
0.000263955 0.000177432 0
0.000263955 0.000177432 0
1.62465e-05 -0.00084795 0
1.62465e-05 -0.00084795 0
-0.000109441 -0.00130604 0
-0.000109441 -0.00130604 0
0.00017819 -0.00162878 0
0.00017819 -0.00162878 0
0.000427265 -0.00231574 0
0.000427265 -0.00231574 0
0.000203746 -0.00283283 0
0.000203746 -0.00283283 0
-0.000226764 -0.00259943 0
-0.000226764 -0.00259943 0
-0.000573553 -0.00180908 0
-0.000573553 -0.00180908 0
-0.000699905 -0.000675591 0
-0.000699905 -0.000675591 0
-0.000365003 0.000365264 0
-0.000365003 0.000365264 0
-5.70017e-05 3.86113e-05 -2.38427e-25
-5.70017e-05 3.86113e-05 -2.38427e-25
-0.000129775 4.69146e-05 2.80243e-23
-0.000129775 4.69146e-05 2.80243e-23
-0.000206518 5.26684e-05 0
-0.000206518 5.26684e-05 0
-0.000287893 6.02284e-05 0
-0.000287893 6.02284e-05 0
-0.000375428 6.92398e-05 -2.7196e-23
-0.000375428 6.92398e-05 -2.7196e-23
-0.000469735 7.91621e-05 -2.72449e-23
-0.000469735 7.91621e-05 -2.72449e-23
-0.000571253 8.94598e-05 0
-0.000571253 8.94598e-05 0
-0.000680085 9.96699e-05 0
-0.000680085 9.96699e-05 0
-0.000796128 0.000109446 0
-0.000796128 0.000109446 0
-0.000919132 0.000118554 2.62396e-23
-0.000919132 0.000118554 2.62396e-23
-0.00104874 0.000126853 2.62896e-23
-0.00104874 0.000126853 2.62896e-23
-0.00118452 0.00013424 0
-0.00118452 0.00013424 0
-0.00132597 0.000140632 0
-0.00132597 0.000140632 0
-0.0014725 0.000145955 0
-0.0014725 0.000145955 0
-0.00162347 0.000150162 2.5306e-23
-0.00162347 0.000150162 2.5306e-23
-0.00177809 0.000153237 2.53571e-23
-0.00177809 0.000153237 2.53571e-23
-0.00193532 0.00015513 0
-0.00193532 0.00015513 0
-0.002094 0.00015574 0
-0.002094 0.00015574 0
-0.00225287 0.000154947 0
-0.00225287 0.000154947 0
-0.00241053 0.000152639 0
-0.00241053 0.000152639 0
-0.00256544 0.000148716 0
-0.00256544 0.000148716 0
-0.00271595 0.000143101 0
-0.00271595 0.000143101 0
-0.00286026 0.000135746 2.385e-23
-0.00286026 0.000135746 2.385e-23
-0.00299646 0.00012664 2.3452e-25
-0.00299646 0.00012664 2.3452e-25
-0.00312258 0.000115811 -2.35552e-25
-0.00312258 0.000115811 -2.35552e-25
-0.00323663 0.000103326 4.68402e-23
-0.00323663 0.000103326 4.68402e-23
-0.00333662 8.93024e-05 2.33549e-23
-0.00333662 8.93024e-05 2.33549e-23
-0.00342066 7.39179e-05 0
-0.00342066 7.39179e-05 0
-0.00348699 5.74098e-05 -2.27401e-23
-0.00348699 5.74098e-05 -2.27401e-23
-0.00353403 4.0096e-05 -4.53425e-23
-0.00353403 4.0096e-05 -4.53425e-23
-0.00356035 2.23647e-05 -2.26025e-23
-0.00356035 2.23647e-05 -2.26025e-23
-0.003565 4.6055e-06 0
-0.003565 4.6055e-06 0
-0.00354778 -1.28863e-05 -2.19589e-23
-0.00354778 -1.28863e-05 -2.19589e-23
-0.00350873 -2.99514e-05 -2.2013e-23
-0.00350873 -2.99514e-05 -2.2013e-23
-0.00344791 -4.64473e-05 0
-0.00344791 -4.64473e-05 0
-0.00336584 -6.21684e-05 2.13489e-23
-0.00336584 -6.21684e-05 2.13489e-23
-0.00326334 -7.68953e-05 2.14032e-23
-0.00326334 -7.68953e-05 2.14032e-23
-0.00314152 -9.04263e-05 2.09356e-23
-0.00314152 -9.04263e-05 2.09356e-23
-0.00300177 -0.000102589 6.24463e-23
-0.00300177 -0.000102589 6.24463e-23
-0.00284571 -0.000113251 4.15652e-23
-0.00284571 -0.000113251 4.15652e-23
-0.00267515 -0.000122326 0
-0.00267515 -0.000122326 0
-0.00249199 -0.000129773 0
-0.00249199 -0.000129773 0
-0.00229818 -0.000135598 0
-0.00229818 -0.000135598 0
-0.00209573 -0.000139835 0
-0.00209573 -0.000139835 0
-0.00188664 -0.000142561 3.90095e-23
-0.00188664 -0.000142561 3.90095e-23
-0.00167279 -0.000143893 7.77338e-23
-0.00167279 -0.000143893 7.77338e-23
-0.00145585 -0.000143935 7.69511e-23
-0.00145585 -0.000143935 7.69511e-23
-0.00123751 -0.000142862 3.83355e-23
-0.00123751 -0.000142862 3.83355e-23
-0.00101932 -0.000140772 -3.74662e-23
-0.00101932 -0.000140772 -3.74662e-23
-0.000802458 -0.000137748 -3.75748e-23
-0.000802458 -0.000137748 -3.75748e-23
-0.000588136 -0.000134041 3.67281e-23
-0.000588136 -0.000134041 3.67281e-23
-0.000377499 -0.000129775 7.32041e-23
-0.000377499 -0.000129775 7.32041e-23
-0.000171623 -0.000125099 3.64759e-23
-0.000171623 -0.000125099 3.64759e-23
2.86357e-05 -0.000120086 0
2.86357e-05 -0.000120086 0
0.000223174 -0.000114759 0
0.000223174 -0.000114759 0
0.000411715 -0.00010926 3.49361e-23
0.000411715 -0.00010926 3.49361e-23
0.000593725 -0.000103668 3.50443e-23
0.000593725 -0.000103668 3.50443e-23
0.000768932 -9.80507e-05 0
0.000768932 -9.80507e-05 0
0.000937162 -9.2462e-05 0
0.000937162 -9.2462e-05 0
0.00109832 -8.69479e-05 0
0.00109832 -8.69479e-05 0
0.00125239 -8.15456e-05 0
0.00125239 -8.15456e-05 0
0.0013994 -7.6285e-05 0
0.0013994 -7.6285e-05 0
0.00153941 -7.11899e-05 0
0.00153941 -7.11899e-05 0
0.00167255 -6.62786e-05 0
0.00167255 -6.62786e-05 0
0.00179894 -6.15646e-05 -3.19624e-23
0.00179894 -6.15646e-05 -3.19624e-23
0.00191876 -5.70577e-05 -3.20698e-23
0.00191876 -5.70577e-05 -3.20698e-23
0.00203219 -5.27642e-05 0
0.00203219 -5.27642e-05 0
0.00213942 -4.86876e-05 3.10396e-23
0.00213942 -4.86876e-05 3.10396e-23
0.00224068 -4.48291e-05 6.18847e-23
0.00224068 -4.48291e-05 6.18847e-23
0.00233618 -4.11879e-05 3.08449e-23
0.00233618 -4.11879e-05 3.08449e-23
0.00242614 -3.77614e-05 -3.01429e-23
0.00242614 -3.77614e-05 -3.01429e-23
0.0025108 -3.45459e-05 -4.00343e-25
0.0025108 -3.45459e-05 -4.00343e-25
0.00259038 -3.15364e-05 2.99558e-23
0.00259038 -3.15364e-05 2.99558e-23
0.00266511 -2.8727e-05 -2.92691e-23
0.00266511 -2.8727e-05 -2.92691e-23
0.00273523 -2.6111e-05 -2.93753e-23
0.00273523 -2.6111e-05 -2.93753e-23
0.00280095 -2.36811e-05 0
0.00280095 -2.36811e-05 0
0.00286251 -2.14295e-05 2.84156e-23
0.00286251 -2.14295e-05 2.84156e-23
0.00292012 -1.9348e-05 2.85213e-23
0.00292012 -1.9348e-05 2.85213e-23
0.00297399 -1.74278e-05 -2.7857e-23
0.00297399 -1.74278e-05 -2.7857e-23
0.00302433 -1.56603e-05 -2.79623e-23
0.00302433 -1.56603e-05 -2.79623e-23
0.00307134 -1.40364e-05 2.73062e-23
0.00307134 -1.40364e-05 2.73062e-23
0.00311522 -1.2547e-05 5.44447e-23
0.00311522 -1.2547e-05 5.44447e-23
0.00315615 -1.11834e-05 5.39012e-23
0.00315615 -1.11834e-05 5.39012e-23
0.00319432 -9.93723e-06 7.98552e-23
0.00319432 -9.93723e-06 7.98552e-23
0.0032299 -8.80076e-06 7.42545e-25
0.0032299 -8.80076e-06 7.42545e-25
0.00326305 -7.76643e-06 -5.26613e-23
0.00326305 -7.76643e-06 -5.26613e-23
0.00329393 -6.82694e-06 0
0.00329393 -6.82694e-06 0
0.0033227 -5.9753e-06 0
0.0033227 -5.9753e-06 0
0.00334949 -5.20477e-06 -5.03503e-23
0.00334949 -5.20477e-06 -5.03503e-23
0.00337444 -4.50883e-06 -1.00389e-22
0.00337444 -4.50883e-06 -1.00389e-22
0.00339767 -3.88139e-06 -7.19037e-25
0.00339767 -3.88139e-06 -7.19037e-25
0.00341931 -3.31672e-06 4.95227e-23
0.00341931 -3.31672e-06 4.95227e-23
0.00343948 -2.8092e-06 -4.82996e-23
0.00343948 -2.8092e-06 -4.82996e-23
0.00345826 -2.3538e-06 -9.62974e-23
0.00345826 -2.3538e-06 -9.62974e-23
0.00347578 -1.94597e-06 -9.52903e-23
0.00347578 -1.94597e-06 -9.52903e-23
0.00349211 -1.58073e-06 -4.74947e-23
0.00349211 -1.58073e-06 -4.74947e-23
0.00350735 -1.25417e-06 0
0.00350735 -1.25417e-06 0
0.00352157 -9.63083e-07 0
0.00352157 -9.63083e-07 0
0.00353486 -7.02809e-07 -4.53172e-23
0.00353486 -7.02809e-07 -4.53172e-23
0.00354728 -4.70829e-07 -4.55156e-23
0.00354728 -4.70829e-07 -4.55156e-23
0.0035589 -2.64853e-07 0
0.0035589 -2.64853e-07 0
0.00356979 -7.9747e-08 4.38663e-23
0.00356979 -7.9747e-08 4.38663e-23
0.00357998 8.42784e-08 4.40623e-23
0.00357998 8.42784e-08 4.40623e-23
0.00358955 2.30936e-07 0
0.00358955 2.30936e-07 0
0.00359852 3.66523e-07 4.24415e-23
0.00359852 3.66523e-07 4.24415e-23
0.00360696 4.88044e-07 4.26348e-23
0.00360696 4.88044e-07 4.26348e-23
0.0036149 6.06578e-07 0
0.0036149 6.06578e-07 0
0.00362234 7.36267e-07 -4.10419e-23
0.00362234 7.36267e-07 -4.10419e-23
0.00362929 8.71973e-07 -8.18132e-23
0.00362929 8.71973e-07 -8.18132e-23
0.00363578 1.00916e-06 -4.07704e-23
0.00363578 1.00916e-06 -4.07704e-23
0.00364185 1.14593e-06 3.96669e-23
0.00364185 1.14593e-06 3.96669e-23
0.00364751 1.27088e-06 3.98545e-23
0.00364751 1.27088e-06 3.98545e-23
0.00365281 1.37779e-06 -3.87637e-23
0.00365281 1.37779e-06 -3.87637e-23
0.00365777 1.47469e-06 -3.89492e-23
0.00365777 1.47469e-06 -3.89492e-23
0.00366241 1.56554e-06 -3.78709e-23
0.00366241 1.56554e-06 -3.78709e-23
0.00366675 1.64516e-06 -7.54827e-23
0.00366675 1.64516e-06 -7.54827e-23
0.00367083 1.70686e-06 -3.76107e-23
0.00367083 1.70686e-06 -3.76107e-23
0.00367469 1.74559e-06 0
0.00367469 1.74559e-06 0
0.00367835 1.75982e-06 0
0.00367835 1.75982e-06 0
0.00368187 1.75292e-06 0
0.00368187 1.75292e-06 0
0.00368527 1.73139e-06 0
0.00368527 1.73139e-06 0
0.00368859 1.70213e-06 0
0.00368859 1.70213e-06 0
0.00369183 1.67035e-06 0
0.00369183 1.67035e-06 0
0.00369501 1.63901e-06 -3.39775e-23
0.00369501 1.63901e-06 -3.39775e-23
0.00369813 1.60924e-06 -5.93628e-25
0.00369813 1.60924e-06 -5.93628e-25
0.0037012 1.58119e-06 3.37287e-23
0.0037012 1.58119e-06 3.37287e-23
0.00370421 1.5547e-06 0
0.00370421 1.5547e-06 0
0.00370718 1.52968e-06 0
0.00370718 1.52968e-06 0
0.00371011 1.50614e-06 0
0.00371011 1.50614e-06 0
0.00371301 1.48416e-06 6.29757e-23
0.00371301 1.48416e-06 6.29757e-23
0.00371587 1.46379e-06 6.33065e-23
0.00371587 1.46379e-06 6.33065e-23
0.0037187 1.44504e-06 -6.13512e-23
0.0037187 1.44504e-06 -6.13512e-23
0.00372151 1.42788e-06 -1.13138e-24
0.00372151 1.42788e-06 -1.13138e-24
0.00372429 1.41225e-06 6.08681e-23
0.00372429 1.41225e-06 6.08681e-23
0.00372706 1.39811e-06 0
0.00372706 1.39811e-06 0
0.00372982 1.38538e-06 0
0.00372982 1.38538e-06 0
0.00373256 1.37399e-06 -5.73629e-23
0.00373256 1.37399e-06 -5.73629e-23
0.0037353 1.36386e-06 -1.14252e-22
0.0037353 1.36386e-06 -1.14252e-22
0.00373802 1.3549e-06 -5.68861e-23
0.00373802 1.3549e-06 -5.68861e-23
0.00374075 1.34705e-06 -5.50177e-23
0.00374075 1.34705e-06 -5.50177e-23
0.00374346 1.34024e-06 -1.09564e-22
0.00374346 1.34024e-06 -1.09564e-22
0.00374618 1.33443e-06 -1.0706e-24
0.00374618 1.33443e-06 -1.0706e-24
0.00374889 1.3296e-06 5.37704e-23
0.00374889 1.3296e-06 5.37704e-23
0.00375161 1.32576e-06 0
0.00375161 1.32576e-06 0
0.00375433 1.32288e-06 5.11836e-23
0.00375433 1.32288e-06 5.11836e-23
0.00375705 1.32094e-06 5.14719e-23
0.00375705 1.32094e-06 5.14719e-23
0.00375977 1.31994e-06 0
0.00375977 1.31994e-06 0
0.00376249 1.31991e-06 0
0.00376249 1.31991e-06 0
0.00376521 1.32093e-06 0
0.00376521 1.32093e-06 0
0.00376794 1.32309e-06 -4.74365e-23
0.00376794 1.32309e-06 -4.74365e-23
0.00377066 1.32652e-06 -9.4406e-23
0.00377066 1.32652e-06 -9.4406e-23
0.00377338 1.33138e-06 -4.69663e-23
0.00377338 1.33138e-06 -4.69663e-23
0.0037761 1.33792e-06 -4.52266e-23
0.0037761 1.33792e-06 -4.52266e-23
0.0037788 1.34642e-06 -4.54898e-23
0.0037788 1.34642e-06 -4.54898e-23
0.00378149 1.35729e-06 0
0.00378149 1.35729e-06 0
0.00378416 1.37097e-06 -4.30436e-23
0.00378416 1.37097e-06 -4.30436e-23
0.0037868 1.38816e-06 -4.3297e-23
0.0037868 1.38816e-06 -4.3297e-23
0.00378939 1.40949e-06 -4.16023e-23
0.00378939 1.40949e-06 -4.16023e-23
0.00379193 1.43634e-06 -4.1849e-23
0.00379193 1.43634e-06 -4.1849e-23
0.00379438 1.46943e-06 0
0.00379438 1.46943e-06 0
0.00379674 1.51157e-06 -3.94601e-23
0.00379674 1.51157e-06 -3.94601e-23
0.00379896 1.5634e-06 -3.96967e-23
0.00379896 1.5634e-06 -3.96967e-23
0.00380101 1.62991e-06 -3.80444e-23
0.00380101 1.62991e-06 -3.80444e-23