# vtk DataFile Version 2.0
sampleSurface
ASCII
DATASET POLYDATA
POINTS 502 double
-0.0206 0 -0.0005
-0.0190172 0 -0.0005
-0.0190172 0 0.0005
-0.0206 0 0.0005
-0.0174976 0 -0.0005
-0.0174976 0 0.0005
-0.0160387 0 -0.0005
-0.0160387 0 0.0005
-0.0146381 0 -0.0005
-0.0146381 0 0.0005
-0.0132934 0 -0.0005
-0.0132934 0 0.0005
-0.0120025 0 -0.0005
-0.0120025 0 0.0005
-0.0107632 0 -0.0005
-0.0107632 0 0.0005
-0.00957337 0 -0.0005
-0.00957337 0 0.0005
-0.00843108 0 -0.0005
-0.00843108 0 0.0005
-0.00733443 0 -0.0005
-0.00733443 0 0.0005
-0.0062816 0 -0.0005
-0.0062816 0 0.0005
-0.00527083 0 -0.0005
-0.00527083 0 0.0005
-0.00430044 0 -0.0005
-0.00430044 0 0.0005
-0.00336883 0 -0.0005
-0.00336883 0 0.0005
-0.00247443 0 -0.0005
-0.00247443 0 0.0005
-0.00161577 0 -0.0005
-0.00161577 0 0.0005
-0.000791418 0 -0.0005
-0.000791418 0 0.0005
0 0 -0.0005
0 0 0.0005
0 -0.0254 -0.0005
0 -0.0254 0.0005
0 -0.0242711 0.0005
0 -0.0242711 -0.0005
0 -0.0231422 0.0005
0 -0.0231422 -0.0005
0 -0.0220133 0.0005
0 -0.0220133 -0.0005
0 -0.0208844 0.0005
0 -0.0208844 -0.0005
0 -0.0197556 0.0005
0 -0.0197556 -0.0005
0 -0.0186267 0.0005
0 -0.0186267 -0.0005
0 -0.0174978 0.0005
0 -0.0174978 -0.0005
0 -0.0163689 0.0005
0 -0.0163689 -0.0005
0 -0.01524 0.0005
0 -0.01524 -0.0005
0 -0.0141111 0.0005
0 -0.0141111 -0.0005
0 -0.0129822 0.0005
0 -0.0129822 -0.0005
0 -0.0118533 0.0005
0 -0.0118533 -0.0005
0 -0.0107244 0.0005
0 -0.0107244 -0.0005
0 -0.00959556 0.0005
0 -0.00959556 -0.0005
0 -0.00846667 0.0005
0 -0.00846667 -0.0005
0 -0.00726604 0.0005
0 -0.00726604 -0.0005
0 -0.00618989 0.0005
0 -0.00618989 -0.0005
0 -0.00522531 0.0005
0 -0.00522531 -0.0005
0 -0.00436073 0.0005
0 -0.00436073 -0.0005
0 -0.00358579 0.0005
0 -0.00358579 -0.0005
0 -0.00289118 0.0005
0 -0.00289118 -0.0005
0 -0.0022686 0.0005
0 -0.0022686 -0.0005
0 -0.00171055 0.0005
0 -0.00171055 -0.0005
0 -0.00121037 0.0005
0 -0.00121037 -0.0005
0 -0.000762037 0.0005
0 -0.000762037 -0.0005
0 -0.000360188 0.0005
0 -0.000360188 -0.0005
0.000528387 -0.0254 -0.0005
0.000528387 -0.0254 0.0005
0.00106088 -0.0254 -0.0005
0.00106088 -0.0254 0.0005
0.00159752 -0.0254 -0.0005
0.00159752 -0.0254 0.0005
0.00213833 -0.0254 -0.0005
0.00213833 -0.0254 0.0005
0.00268334 -0.0254 -0.0005
0.00268334 -0.0254 0.0005
0.00323259 -0.0254 -0.0005
0.00323259 -0.0254 0.0005
0.00378611 -0.0254 -0.0005
0.00378611 -0.0254 0.0005
0.00434393 -0.0254 -0.0005
0.00434393 -0.0254 0.0005
0.00490609 -0.0254 -0.0005
0.00490609 -0.0254 0.0005
0.00547262 -0.0254 -0.0005
0.00547262 -0.0254 0.0005
0.00604356 -0.0254 -0.0005
0.00604356 -0.0254 0.0005
0.00661893 -0.0254 -0.0005
0.00661893 -0.0254 0.0005
0.00719878 -0.0254 -0.0005
0.00719878 -0.0254 0.0005
0.00778313 -0.0254 -0.0005
0.00778313 -0.0254 0.0005
0.00837203 -0.0254 -0.0005
0.00837203 -0.0254 0.0005
0.00896551 -0.0254 -0.0005
0.00896551 -0.0254 0.0005
0.0095636 -0.0254 -0.0005
0.0095636 -0.0254 0.0005
0.0101663 -0.0254 -0.0005
0.0101663 -0.0254 0.0005
0.0107738 -0.0254 -0.0005
0.0107738 -0.0254 0.0005
0.0113859 -0.0254 -0.0005
0.0113859 -0.0254 0.0005
0.0120028 -0.0254 -0.0005
0.0120028 -0.0254 0.0005
0.0126245 -0.0254 -0.0005
0.0126245 -0.0254 0.0005
0.0132511 -0.0254 -0.0005
0.0132511 -0.0254 0.0005
0.0138825 -0.0254 -0.0005
0.0138825 -0.0254 0.0005
0.0145188 -0.0254 -0.0005
0.0145188 -0.0254 0.0005
0.0151601 -0.0254 -0.0005
0.0151601 -0.0254 0.0005
0.0158063 -0.0254 -0.0005
0.0158063 -0.0254 0.0005
0.0164576 -0.0254 -0.0005
0.0164576 -0.0254 0.0005
0.0171139 -0.0254 -0.0005
0.0171139 -0.0254 0.0005
0.0177754 -0.0254 -0.0005
0.0177754 -0.0254 0.0005
0.018442 -0.0254 -0.0005
0.018442 -0.0254 0.0005
0.0191137 -0.0254 -0.0005
0.0191137 -0.0254 0.0005
0.0197907 -0.0254 -0.0005
0.0197907 -0.0254 0.0005
0.020473 -0.0254 -0.0005
0.020473 -0.0254 0.0005
0.0211606 -0.0254 -0.0005
0.0211606 -0.0254 0.0005
0.0218535 -0.0254 -0.0005
0.0218535 -0.0254 0.0005
0.0225517 -0.0254 -0.0005
0.0225517 -0.0254 0.0005
0.0232555 -0.0254 -0.0005
0.0232555 -0.0254 0.0005
0.0239647 -0.0254 -0.0005
0.0239647 -0.0254 0.0005
0.0246794 -0.0254 -0.0005
0.0246794 -0.0254 0.0005
0.0253996 -0.0254 -0.0005
0.0253996 -0.0254 0.0005
0.0261255 -0.0254 -0.0005
0.0261255 -0.0254 0.0005
0.026857 -0.0254 -0.0005
0.026857 -0.0254 0.0005
0.0275942 -0.0254 -0.0005
0.0275942 -0.0254 0.0005
0.0283371 -0.0254 -0.0005
0.0283371 -0.0254 0.0005
0.0290858 -0.0254 -0.0005
0.0290858 -0.0254 0.0005
0.0298403 -0.0254 -0.0005
0.0298403 -0.0254 0.0005
0.0306007 -0.0254 -0.0005
0.0306007 -0.0254 0.0005
0.031367 -0.0254 -0.0005
0.031367 -0.0254 0.0005
0.0321393 -0.0254 -0.0005
0.0321393 -0.0254 0.0005
0.0329175 -0.0254 -0.0005
0.0329175 -0.0254 0.0005
0.0337019 -0.0254 -0.0005
0.0337019 -0.0254 0.0005
0.0344923 -0.0254 -0.0005
0.0344923 -0.0254 0.0005
0.0352888 -0.0254 -0.0005
0.0352888 -0.0254 0.0005
0.0360916 -0.0254 -0.0005
0.0360916 -0.0254 0.0005
0.0369006 -0.0254 -0.0005
0.0369006 -0.0254 0.0005
0.0377158 -0.0254 -0.0005
0.0377158 -0.0254 0.0005
0.0385375 -0.0254 -0.0005
0.0385375 -0.0254 0.0005
0.0393655 -0.0254 -0.0005
0.0393655 -0.0254 0.0005
0.0401999 -0.0254 -0.0005
0.0401999 -0.0254 0.0005
0.0410408 -0.0254 -0.0005
0.0410408 -0.0254 0.0005
0.0418883 -0.0254 -0.0005
0.0418883 -0.0254 0.0005
0.0427424 -0.0254 -0.0005
0.0427424 -0.0254 0.0005
0.0436031 -0.0254 -0.0005
0.0436031 -0.0254 0.0005
0.0444704 -0.0254 -0.0005
0.0444704 -0.0254 0.0005
0.0453446 -0.0254 -0.0005
0.0453446 -0.0254 0.0005
0.0462255 -0.0254 -0.0005
0.0462255 -0.0254 0.0005
0.0471133 -0.0254 -0.0005
0.0471133 -0.0254 0.0005
0.048008 -0.0254 -0.0005
0.048008 -0.0254 0.0005
0.0489096 -0.0254 -0.0005
0.0489096 -0.0254 0.0005
0.0498183 -0.0254 -0.0005
0.0498183 -0.0254 0.0005
0.050734 -0.0254 -0.0005
0.050734 -0.0254 0.0005
0.0516568 -0.0254 -0.0005
0.0516568 -0.0254 0.0005
0.0525868 -0.0254 -0.0005
0.0525868 -0.0254 0.0005
0.053524 -0.0254 -0.0005
0.053524 -0.0254 0.0005
0.0544686 -0.0254 -0.0005
0.0544686 -0.0254 0.0005
0.0554204 -0.0254 -0.0005
0.0554204 -0.0254 0.0005
0.0563797 -0.0254 -0.0005
0.0563797 -0.0254 0.0005
0.0573464 -0.0254 -0.0005
0.0573464 -0.0254 0.0005
0.0583206 -0.0254 -0.0005
0.0583206 -0.0254 0.0005
0.0593025 -0.0254 -0.0005
0.0593025 -0.0254 0.0005
0.0602919 -0.0254 -0.0005
0.0602919 -0.0254 0.0005
0.0612891 -0.0254 -0.0005
0.0612891 -0.0254 0.0005
0.0622939 -0.0254 -0.0005
0.0622939 -0.0254 0.0005
0.0633067 -0.0254 -0.0005
0.0633067 -0.0254 0.0005
0.0643272 -0.0254 -0.0005
0.0643272 -0.0254 0.0005
0.0653557 -0.0254 -0.0005
0.0653557 -0.0254 0.0005
0.0663923 -0.0254 -0.0005
0.0663923 -0.0254 0.0005
0.0674368 -0.0254 -0.0005
0.0674368 -0.0254 0.0005
0.0684895 -0.0254 -0.0005
0.0684895 -0.0254 0.0005
0.0695504 -0.0254 -0.0005
0.0695504 -0.0254 0.0005
0.0706195 -0.0254 -0.0005
0.0706195 -0.0254 0.0005
0.0716969 -0.0254 -0.0005
0.0716969 -0.0254 0.0005
0.0727828 -0.0254 -0.0005
0.0727828 -0.0254 0.0005
0.073877 -0.0254 -0.0005
0.073877 -0.0254 0.0005
0.0749798 -0.0254 -0.0005
0.0749798 -0.0254 0.0005
0.0760911 -0.0254 -0.0005
0.0760911 -0.0254 0.0005
0.0772111 -0.0254 -0.0005
0.0772111 -0.0254 0.0005
0.0783398 -0.0254 -0.0005
0.0783398 -0.0254 0.0005
0.0794772 -0.0254 -0.0005
0.0794772 -0.0254 0.0005
0.0806235 -0.0254 -0.0005
0.0806235 -0.0254 0.0005
0.0817787 -0.0254 -0.0005
0.0817787 -0.0254 0.0005
0.0829429 -0.0254 -0.0005
0.0829429 -0.0254 0.0005
0.0841162 -0.0254 -0.0005
0.0841162 -0.0254 0.0005
0.0852985 -0.0254 -0.0005
0.0852985 -0.0254 0.0005
0.0864901 -0.0254 -0.0005
0.0864901 -0.0254 0.0005
0.0876909 -0.0254 -0.0005
0.0876909 -0.0254 0.0005
0.0889011 -0.0254 -0.0005
0.0889011 -0.0254 0.0005
0.0901207 -0.0254 -0.0005
0.0901207 -0.0254 0.0005
0.0913497 -0.0254 -0.0005
0.0913497 -0.0254 0.0005
0.0925883 -0.0254 -0.0005
0.0925883 -0.0254 0.0005
0.0938366 -0.0254 -0.0005
0.0938366 -0.0254 0.0005
0.0950945 -0.0254 -0.0005
0.0950945 -0.0254 0.0005
0.0963622 -0.0254 -0.0005
0.0963622 -0.0254 0.0005
0.0976398 -0.0254 -0.0005
0.0976398 -0.0254 0.0005
0.0989273 -0.0254 -0.0005
0.0989273 -0.0254 0.0005
0.100225 -0.0254 -0.0005
0.100225 -0.0254 0.0005
0.101532 -0.0254 -0.0005
0.101532 -0.0254 0.0005
0.10285 -0.0254 -0.0005
0.10285 -0.0254 0.0005
0.104178 -0.0254 -0.0005
0.104178 -0.0254 0.0005
0.105517 -0.0254 -0.0005
0.105517 -0.0254 0.0005
0.106865 -0.0254 -0.0005
0.106865 -0.0254 0.0005
0.108225 -0.0254 -0.0005
0.108225 -0.0254 0.0005
0.109594 -0.0254 -0.0005
0.109594 -0.0254 0.0005
0.110975 -0.0254 -0.0005
0.110975 -0.0254 0.0005
0.112366 -0.0254 -0.0005
0.112366 -0.0254 0.0005
0.113768 -0.0254 -0.0005
0.113768 -0.0254 0.0005
0.115181 -0.0254 -0.0005
0.115181 -0.0254 0.0005
0.116605 -0.0254 -0.0005
0.116605 -0.0254 0.0005
0.11804 -0.0254 -0.0005
0.11804 -0.0254 0.0005
0.119486 -0.0254 -0.0005
0.119486 -0.0254 0.0005
0.120943 -0.0254 -0.0005
0.120943 -0.0254 0.0005
0.122412 -0.0254 -0.0005
0.122412 -0.0254 0.0005
0.123892 -0.0254 -0.0005
0.123892 -0.0254 0.0005
0.125384 -0.0254 -0.0005
0.125384 -0.0254 0.0005
0.126887 -0.0254 -0.0005
0.126887 -0.0254 0.0005
0.128402 -0.0254 -0.0005
0.128402 -0.0254 0.0005
0.129928 -0.0254 -0.0005
0.129928 -0.0254 0.0005
0.131467 -0.0254 -0.0005
0.131467 -0.0254 0.0005
0.133017 -0.0254 -0.0005
0.133017 -0.0254 0.0005
0.13458 -0.0254 -0.0005
0.13458 -0.0254 0.0005
0.136155 -0.0254 -0.0005
0.136155 -0.0254 0.0005
0.137742 -0.0254 -0.0005
0.137742 -0.0254 0.0005
0.139341 -0.0254 -0.0005
0.139341 -0.0254 0.0005
0.140953 -0.0254 -0.0005
0.140953 -0.0254 0.0005
0.142577 -0.0254 -0.0005
0.142577 -0.0254 0.0005
0.144214 -0.0254 -0.0005
0.144214 -0.0254 0.0005
0.145863 -0.0254 -0.0005
0.145863 -0.0254 0.0005
0.147526 -0.0254 -0.0005
0.147526 -0.0254 0.0005
0.149201 -0.0254 -0.0005
0.149201 -0.0254 0.0005
0.15089 -0.0254 -0.0005
0.15089 -0.0254 0.0005
0.152591 -0.0254 -0.0005
0.152591 -0.0254 0.0005
0.154306 -0.0254 -0.0005
0.154306 -0.0254 0.0005
0.156034 -0.0254 -0.0005
0.156034 -0.0254 0.0005
0.157775 -0.0254 -0.0005
0.157775 -0.0254 0.0005
0.159531 -0.0254 -0.0005
0.159531 -0.0254 0.0005
0.161299 -0.0254 -0.0005
0.161299 -0.0254 0.0005
0.163082 -0.0254 -0.0005
0.163082 -0.0254 0.0005
0.164878 -0.0254 -0.0005
0.164878 -0.0254 0.0005
0.166688 -0.0254 -0.0005
0.166688 -0.0254 0.0005
0.168513 -0.0254 -0.0005
0.168513 -0.0254 0.0005
0.170351 -0.0254 -0.0005
0.170351 -0.0254 0.0005
0.172204 -0.0254 -0.0005
0.172204 -0.0254 0.0005
0.174071 -0.0254 -0.0005
0.174071 -0.0254 0.0005
0.175953 -0.0254 -0.0005
0.175953 -0.0254 0.0005
0.177849 -0.0254 -0.0005
0.177849 -0.0254 0.0005
0.17976 -0.0254 -0.0005
0.17976 -0.0254 0.0005
0.181686 -0.0254 -0.0005
0.181686 -0.0254 0.0005
0.183627 -0.0254 -0.0005
0.183627 -0.0254 0.0005
0.185583 -0.0254 -0.0005
0.185583 -0.0254 0.0005
0.187555 -0.0254 -0.0005
0.187555 -0.0254 0.0005
0.189541 -0.0254 -0.0005
0.189541 -0.0254 0.0005
0.191543 -0.0254 -0.0005
0.191543 -0.0254 0.0005
0.193561 -0.0254 -0.0005
0.193561 -0.0254 0.0005
0.195594 -0.0254 -0.0005
0.195594 -0.0254 0.0005
0.197643 -0.0254 -0.0005
0.197643 -0.0254 0.0005
0.199708 -0.0254 -0.0005
0.199708 -0.0254 0.0005
0.201789 -0.0254 -0.0005
0.201789 -0.0254 0.0005
0.203886 -0.0254 -0.0005
0.203886 -0.0254 0.0005
0.206 -0.0254 -0.0005
0.206 -0.0254 0.0005
0.208047 -0.0251856 -0.0005
0.208047 -0.0251856 0.0005
0.210173 -0.0249628 -0.0005
0.210173 -0.0249628 0.0005
0.212382 -0.0247314 -0.0005
0.212382 -0.0247314 0.0005
0.214677 -0.024491 -0.0005
0.214677 -0.024491 0.0005
0.217061 -0.0242412 -0.0005
0.217061 -0.0242412 0.0005
0.219538 -0.0239817 -0.0005
0.219538 -0.0239817 0.0005
0.222112 -0.0237121 -0.0005
0.222112 -0.0237121 0.0005
0.224785 -0.023432 -0.0005
0.224785 -0.023432 0.0005
0.227563 -0.023141 -0.0005
0.227563 -0.023141 0.0005
0.230449 -0.0228387 -0.0005
0.230449 -0.0228387 0.0005
0.233447 -0.0225246 -0.0005
0.233447 -0.0225246 0.0005
0.236562 -0.0221983 -0.0005
0.236562 -0.0221983 0.0005
0.239797 -0.0218593 -0.0005
0.239797 -0.0218593 0.0005
0.243159 -0.0215071 -0.0005
0.243159 -0.0215071 0.0005
0.246652 -0.0211412 -0.0005
0.246652 -0.0211412 0.0005
0.250281 -0.0207611 -0.0005
0.250281 -0.0207611 0.0005
0.254051 -0.0203661 -0.0005
0.254051 -0.0203661 0.0005
0.257967 -0.0199558 -0.0005
0.257967 -0.0199558 0.0005
0.262036 -0.0195295 -0.0005
0.262036 -0.0195295 0.0005
0.266264 -0.0190867 -0.0005
0.266264 -0.0190867 0.0005
0.270655 -0.0186266 -0.0005
0.270655 -0.0186266 0.0005
0.275218 -0.0181486 -0.0005
0.275218 -0.0181486 0.0005
0.279959 -0.017652 -0.0005
0.279959 -0.017652 0.0005
0.284883 -0.017136 -0.0005
0.284883 -0.017136 0.0005
0.29 -0.0166 -0.0005
0.29 -0.0166 0.0005

POLYGONS 250 1250
4 0 1 2 3
4 1 4 5 2
4 4 6 7 5
4 6 8 9 7
4 8 10 11 9
4 10 12 13 11
4 12 14 15 13
4 14 16 17 15
4 16 18 19 17
4 18 20 21 19
4 20 22 23 21
4 22 24 25 23
4 24 26 27 25
4 26 28 29 27
4 28 30 31 29
4 30 32 33 31
4 32 34 35 33
4 34 36 37 35
4 38 39 40 41
4 41 40 42 43
4 43 42 44 45
4 45 44 46 47
4 47 46 48 49
4 49 48 50 51
4 51 50 52 53
4 53 52 54 55
4 55 54 56 57
4 57 56 58 59
4 59 58 60 61
4 61 60 62 63
4 63 62 64 65
4 65 64 66 67
4 67 66 68 69
4 69 68 70 71
4 71 70 72 73
4 73 72 74 75
4 75 74 76 77
4 77 76 78 79
4 79 78 80 81
4 81 80 82 83
4 83 82 84 85
4 85 84 86 87
4 87 86 88 89
4 89 88 90 91
4 91 90 37 36
4 38 92 93 39
4 92 94 95 93
4 94 96 97 95
4 96 98 99 97
4 98 100 101 99
4 100 102 103 101
4 102 104 105 103
4 104 106 107 105
4 106 108 109 107
4 108 110 111 109
4 110 112 113 111
4 112 114 115 113
4 114 116 117 115
4 116 118 119 117
4 118 120 121 119
4 120 122 123 121
4 122 124 125 123
4 124 126 127 125
4 126 128 129 127
4 128 130 131 129
4 130 132 133 131
4 132 134 135 133
4 134 136 137 135
4 136 138 139 137
4 138 140 141 139
4 140 142 143 141
4 142 144 145 143
4 144 146 147 145
4 146 148 149 147
4 148 150 151 149
4 150 152 153 151
4 152 154 155 153
4 154 156 157 155
4 156 158 159 157
4 158 160 161 159
4 160 162 163 161
4 162 164 165 163
4 164 166 167 165
4 166 168 169 167
4 168 170 171 169
4 170 172 173 171
4 172 174 175 173
4 174 176 177 175
4 176 178 179 177
4 178 180 181 179
4 180 182 183 181
4 182 184 185 183
4 184 186 187 185
4 186 188 189 187
4 188 190 191 189
4 190 192 193 191
4 192 194 195 193
4 194 196 197 195
4 196 198 199 197
4 198 200 201 199
4 200 202 203 201
4 202 204 205 203
4 204 206 207 205
4 206 208 209 207
4 208 210 211 209
4 210 212 213 211
4 212 214 215 213
4 214 216 217 215
4 216 218 219 217
4 218 220 221 219
4 220 222 223 221
4 222 224 225 223
4 224 226 227 225
4 226 228 229 227
4 228 230 231 229
4 230 232 233 231
4 232 234 235 233
4 234 236 237 235
4 236 238 239 237
4 238 240 241 239
4 240 242 243 241
4 242 244 245 243
4 244 246 247 245
4 246 248 249 247
4 248 250 251 249
4 250 252 253 251
4 252 254 255 253
4 254 256 257 255
4 256 258 259 257
4 258 260 261 259
4 260 262 263 261
4 262 264 265 263
4 264 266 267 265
4 266 268 269 267
4 268 270 271 269
4 270 272 273 271
4 272 274 275 273
4 274 276 277 275
4 276 278 279 277
4 278 280 281 279
4 280 282 283 281
4 282 284 285 283
4 284 286 287 285
4 286 288 289 287
4 288 290 291 289
4 290 292 293 291
4 292 294 295 293
4 294 296 297 295
4 296 298 299 297
4 298 300 301 299
4 300 302 303 301
4 302 304 305 303
4 304 306 307 305
4 306 308 309 307
4 308 310 311 309
4 310 312 313 311
4 312 314 315 313
4 314 316 317 315
4 316 318 319 317
4 318 320 321 319
4 320 322 323 321
4 322 324 325 323
4 324 326 327 325
4 326 328 329 327
4 328 330 331 329
4 330 332 333 331
4 332 334 335 333
4 334 336 337 335
4 336 338 339 337
4 338 340 341 339
4 340 342 343 341
4 342 344 345 343
4 344 346 347 345
4 346 348 349 347
4 348 350 351 349
4 350 352 353 351
4 352 354 355 353
4 354 356 357 355
4 356 358 359 357
4 358 360 361 359
4 360 362 363 361
4 362 364 365 363
4 364 366 367 365
4 366 368 369 367
4 368 370 371 369
4 370 372 373 371
4 372 374 375 373
4 374 376 377 375
4 376 378 379 377
4 378 380 381 379
4 380 382 383 381
4 382 384 385 383
4 384 386 387 385
4 386 388 389 387
4 388 390 391 389
4 390 392 393 391
4 392 394 395 393
4 394 396 397 395
4 396 398 399 397
4 398 400 401 399
4 400 402 403 401
4 402 404 405 403
4 404 406 407 405
4 406 408 409 407
4 408 410 411 409
4 410 412 413 411
4 412 414 415 413
4 414 416 417 415
4 416 418 419 417
4 418 420 421 419
4 420 422 423 421
4 422 424 425 423
4 424 426 427 425
4 426 428 429 427
4 428 430 431 429
4 430 432 433 431
4 432 434 435 433
4 434 436 437 435
4 436 438 439 437
4 438 440 441 439
4 440 442 443 441
4 442 444 445 443
4 444 446 447 445
4 446 448 449 447
4 448 450 451 449
4 450 452 453 451
4 452 454 455 453
4 454 456 457 455
4 456 458 459 457
4 458 460 461 459
4 460 462 463 461
4 462 464 465 463
4 464 466 467 465
4 466 468 469 467
4 468 470 471 469
4 470 472 473 471
4 472 474 475 473
4 474 476 477 475
4 476 478 479 477
4 478 480 481 479
4 480 482 483 481
4 482 484 485 483
4 484 486 487 485
4 486 488 489 487
4 488 490 491 489
4 490 492 493 491
4 492 494 495 493
4 494 496 497 495
4 496 498 499 497
4 498 500 501 499
POINT_DATA 502
FIELD attributes 1
U 3 502 float
1.66738 0.0990322 0.0235577
0.835184 0.0491153 0.0116092
0.835184 0.0491153 0.0116092
1.66738 0.0990322 0.0235577
0.0250633 0.000605869 0
0.0250633 0.000605869 0
0.022276 0.000573384 0
0.022276 0.000573384 0
0.0197947 0.000527709 0
0.0197947 0.000527709 0
0.0173898 0.000478315 0
0.0173898 0.000478315 0
0.0151244 0.000413254 0
0.0151244 0.000413254 0
0.0131537 0.000333001 0
0.0131537 0.000333001 0
0.0115083 0.000263851 0
0.0115083 0.000263851 0
0.010082 0.000224254 0
0.010082 0.000224254 0
0.00876984 0.000199152 0
0.00876984 0.000199152 0
0.00755552 0.000163164 0
0.00755552 0.000163164 0
0.00646734 0.000112769 0
0.00646734 0.000112769 0
0.00554938 6.15457e-05 0
0.00554938 6.15457e-05 0
0.0047959 2.0751e-05 0
0.0047959 2.0751e-05 0
0.00422035 -3.62774e-06 0
0.00422035 -3.62774e-06 0
0.0037567 -1.24793e-05 0
0.0037567 -1.24793e-05 0
0.00339409 -5.62213e-05 0
0.00339409 -5.62213e-05 0
0.00162487 7.36484e-05 0
0.00162487 7.36484e-05 0
-0.0001044 0.000247626 1.87099e-23
-0.0001044 0.000247626 1.87099e-23
-0.000114466 0.000763702 -5.0531e-23
-0.000114466 0.000763702 -5.0531e-23
-0.000114525 0.00140415 -5.98402e-23
-0.000114525 0.00140415 -5.98402e-23
-0.000114708 0.0014883 1.19553e-22
-0.000114708 0.0014883 1.19553e-22
-3.44339e-05 0.00113335 3.98405e-23
-3.44339e-05 0.00113335 3.98405e-23
0.000238173 -2.80107e-05 -7.96664e-23
0.000238173 -2.80107e-05 -7.96664e-23
0.000474165 -0.00194384 0
0.000474165 -0.00194384 0
0.000474881 -0.00385809 -1.58193e-22
0.000474881 -0.00385809 -1.58193e-22
0.000357906 -0.00531093 -6.33566e-26
0.000357906 -0.00531093 -6.33566e-26
0.000239192 -0.00632587 1.58129e-22
0.000239192 -0.00632587 1.58129e-22
0.000139262 -0.00697528 -1.58424e-22
0.000139262 -0.00697528 -1.58424e-22
6.15084e-05 -0.00732973 -7.75908e-27
6.15084e-05 -0.00732973 -7.75908e-27
1.0352e-05 -0.00744939 1.58416e-22
1.0352e-05 -0.00744939 1.58416e-22
-1.12063e-05 -0.00738917 1.62177e-22
-1.12063e-05 -0.00738917 1.62177e-22
-1.33781e-05 -0.00719194 -3.24815e-26
-1.33781e-05 -0.00719194 -3.24815e-26
-2.97225e-05 -0.00684848 -1.65084e-22
-2.97225e-05 -0.00684848 -1.65084e-22
-9.7851e-05 -0.00625874 0
-9.7851e-05 -0.00625874 0
-0.000193442 -0.00541897 0
-0.000193442 -0.00541897 0
-0.0002383 -0.00448228 0
-0.0002383 -0.00448228 0
-0.000222031 -0.00366139 0
-0.000222031 -0.00366139 0
-0.00021454 -0.00296545 0
-0.00021454 -0.00296545 0
-0.00023614 -0.00231628 0
-0.00023614 -0.00231628 0
-0.000260498 -0.00170109 0
-0.000260498 -0.00170109 0
-0.000284227 -0.00112186 0
-0.000284227 -0.00112186 0
-0.000304617 -0.000546489 0
-0.000304617 -0.000546489 0
-0.000177872 -3.13312e-05 0
-0.000177872 -3.13312e-05 0
0.000107279 0.00020319 0
0.000107279 0.00020319 0
-0.000210424 0.000208859 8.17142e-26
-0.000210424 0.000208859 8.17142e-26
-0.000338166 7.67788e-05 -9.29709e-24
-0.000338166 7.67788e-05 -9.29709e-24
-0.000291619 -0.000100695 0
-0.000291619 -0.000100695 0
-9.66495e-05 -0.000235938 0
-9.66495e-05 -0.000235938 0
0.000194623 -0.000316294 9.04393e-24
0.000194623 -0.000316294 9.04393e-24
0.000534551 -0.000357089 9.06018e-24
0.000534551 -0.000357089 9.06018e-24
0.000889161 -0.000367986 0
0.000889161 -0.000367986 0
0.0012449 -0.000359714 0
0.0012449 -0.000359714 0
0.00159042 -0.000340688 0
0.00159042 -0.000340688 0
0.00191813 -0.000315894 -8.64855e-24
0.00191813 -0.000315894 -8.64855e-24
0.0022241 -0.000287652 -8.66504e-24
0.0022241 -0.000287652 -8.66504e-24
0.00250555 -0.00025662 0
0.00250555 -0.00025662 0
0.00275945 -0.00022274 0
0.00275945 -0.00022274 0
0.00298243 -0.000185827 0
0.00298243 -0.000185827 0
0.00317037 -0.000145907 -8.20982e-24
0.00317037 -0.000145907 -8.20982e-24
0.00331942 -0.000102968 -8.2264e-24
0.00331942 -0.000102968 -8.2264e-24
0.003425 -5.71581e-05 0
0.003425 -5.71581e-05 0
0.0034848 -8.53894e-06 0
0.0034848 -8.53894e-06 0
0.00349521 4.29245e-05 0
0.00349521 4.29245e-05 0
0.00345117 9.61497e-05 0
0.00345117 9.61497e-05 0
0.00335375 0.000149351 0
0.00335375 0.000149351 0
0.00320449 0.00020027 0
0.00320449 0.00020027 0
0.003006 0.000247305 -7.70943e-24
0.003006 0.000247305 -7.70943e-24
0.0027631 0.000289303 -6.20814e-26
0.0027631 0.000289303 -6.20814e-26
0.00247924 0.000323861 6.20112e-26
0.00247924 0.000323861 6.20112e-26
0.00216453 0.000353374 -1.52104e-23
0.00216453 0.000353374 -1.52104e-23
0.00181867 0.000371342 -7.59094e-24
0.00181867 0.000371342 -7.59094e-24
0.00145747 0.000382131 0
0.00145747 0.000382131 0
0.00108424 0.000402779 7.41797e-24
0.00108424 0.000402779 7.41797e-24
0.000683907 0.000341447 1.47926e-23
0.000683907 0.000341447 1.47926e-23
0.00035354 0.000131138 7.37466e-24
0.00035354 0.000131138 7.37466e-24
0.000166731 -8.67396e-05 0
0.000166731 -8.67396e-05 0
7.68307e-05 -0.000181703 7.17825e-24
7.68307e-05 -0.000181703 7.17825e-24
3.86919e-05 -0.000181401 7.19593e-24
3.86919e-05 -0.000181401 7.19593e-24
9.87196e-05 -0.000160493 0
9.87196e-05 -0.000160493 0
0.000304056 -0.000135538 -7.0043e-24
0.000304056 -0.000135538 -7.0043e-24
0.000568678 -7.44573e-05 -7.0221e-24
0.000568678 -7.44573e-05 -7.0221e-24
0.000841525 3.27851e-05 -6.87714e-24
0.000841525 3.27851e-05 -6.87714e-24
0.00113878 6.90913e-05 -2.05311e-23
0.00113878 6.90913e-05 -2.05311e-23
0.00137895 -0.000310823 -1.36719e-23
0.00137895 -0.000310823 -1.36719e-23
0.00146436 -0.000918569 0
0.00146436 -0.000918569 0
0.00145524 -0.000941293 0
0.00145524 -0.000941293 0
0.0011907 -0.000223785 0
0.0011907 -0.000223785 0
0.000431213 0.000481115 0
0.000431213 0.000481115 0
-0.000579268 0.000779406 -1.29232e-23
-0.000579268 0.000779406 -1.29232e-23
-0.00163099 0.000898827 -2.56961e-23
-0.00163099 0.000898827 -2.56961e-23
-0.00267743 0.000901468 -2.52778e-23
-0.00267743 0.000901468 -2.52778e-23
-0.0036107 0.000793624 -1.25405e-23
-0.0036107 0.000793624 -1.25405e-23
-0.00440365 0.000659552 1.19656e-23
-0.00440365 0.000659552 1.19656e-23
-0.00507221 0.000544153 1.20003e-23
-0.00507221 0.000544153 1.20003e-23
-0.00563986 0.000451231 -1.14184e-23
-0.00563986 0.000451231 -1.14184e-23
-0.00612515 0.000377477 -2.26115e-23
-0.00612515 0.000377477 -2.26115e-23
-0.00654437 0.000319681 -1.11926e-23
-0.00654437 0.000319681 -1.11926e-23
-0.00690965 0.000273856 0
-0.00690965 0.000273856 0
-0.00722951 0.000236324 0
-0.00722951 0.000236324 0
-0.00750935 0.000204293 -1.02688e-23
-0.00750935 0.000204293 -1.02688e-23
-0.00775251 0.000175737 -1.03006e-23
-0.00775251 0.000175737 -1.03006e-23
-0.00796076 0.00014925 0
-0.00796076 0.00014925 0
-0.00813497 0.000123945 0
-0.00813497 0.000123945 0
-0.00827559 9.94743e-05 0
-0.00827559 9.94743e-05 0
-0.0083831 7.59577e-05 0
-0.0083831 7.59577e-05 0
-0.00845822 5.37331e-05 0
-0.00845822 5.37331e-05 0
-0.00850219 3.31266e-05 0
-0.00850219 3.31266e-05 0
-0.00851655 1.45792e-05 0
-0.00851655 1.45792e-05 0
-0.00850492 -1.45896e-06 9.2036e-24
-0.00850492 -1.45896e-06 9.2036e-24
-0.00847072 -1.514e-05 9.23453e-24
-0.00847072 -1.514e-05 9.23453e-24
-0.00841627 -2.66926e-05 0
-0.00841627 -2.66926e-05 0
-0.00834486 -3.6128e-05 -9.07642e-24
-0.00834486 -3.6128e-05 -9.07642e-24
-0.00825945 -4.35963e-05 -1.81553e-23
-0.00825945 -4.35963e-05 -1.81553e-23
-0.00816285 -4.92809e-05 -9.07902e-24
-0.00816285 -4.92809e-05 -9.07902e-24
-0.0080575 -5.34772e-05 9.00235e-24
-0.0080575 -5.34772e-05 9.00235e-24
-0.00794534 -5.65365e-05 5.00062e-26
-0.00794534 -5.65365e-05 5.00062e-26
-0.00782772 -5.88468e-05 -9.01626e-24
-0.00782772 -5.88468e-05 -9.01626e-24
-0.00770535 -6.08183e-05 8.95396e-24
-0.00770535 -6.08183e-05 8.95396e-24
-0.00757828 -6.28315e-05 8.98645e-24
-0.00757828 -6.28315e-05 8.98645e-24
-0.00744596 -6.5235e-05 0
-0.00744596 -6.5235e-05 0
-0.00730726 -6.83196e-05 -8.92125e-24
-0.00730726 -6.83196e-05 -8.92125e-24
-0.00716064 -7.22925e-05 -8.95442e-24
-0.00716064 -7.22925e-05 -8.95442e-24
-0.00700422 -7.72726e-05 8.90871e-24
-0.00700422 -7.72726e-05 8.90871e-24
-0.00683597 -8.32775e-05 8.94237e-24
-0.00683597 -8.32775e-05 8.94237e-24
-0.00665386 -9.02208e-05 -8.9047e-24
-0.00665386 -9.02208e-05 -8.9047e-24
-0.00645614 -9.79203e-05 -1.78447e-23
-0.00645614 -9.79203e-05 -1.78447e-23
-0.0062414 -0.000106121 -1.7849e-23
-0.0062414 -0.000106121 -1.7849e-23
-0.00600875 -0.000114522 -2.67692e-23
-0.00600875 -0.000114522 -2.67692e-23
-0.00575789 -0.000122799 -6.0133e-26
-0.00575789 -0.000122799 -6.0133e-26
-0.00548913 -0.000130632 1.79063e-23
-0.00548913 -0.000130632 1.79063e-23
-0.00520334 -0.000137729 0
-0.00520334 -0.000137729 0
-0.00490195 -0.000143847 0
-0.00490195 -0.000143847 0
-0.00458683 -0.000148807 1.7861e-23
-0.00458683 -0.000148807 1.7861e-23
-0.00426019 -0.000152505 3.57897e-23
-0.00426019 -0.000152505 3.57897e-23
-0.00392445 -0.000154904 8.58836e-26
-0.00392445 -0.000154904 8.58836e-26
-0.0035821 -0.000156012 -1.79173e-23
-0.0035821 -0.000156012 -1.79173e-23
-0.00323556 -0.000155889 1.77912e-23
-0.00323556 -0.000155889 1.77912e-23
-0.00288703 -0.000154642 3.56157e-23
-0.00288703 -0.000154642 3.56157e-23
-0.00253846 -0.000152415 3.55221e-23
-0.00253846 -0.000152415 3.55221e-23
-0.00219162 -0.000149382 1.77726e-23
-0.00219162 -0.000149382 1.77726e-23
-0.00184797 -0.000145718 0
-0.00184797 -0.000145718 0
-0.00150864 -0.000141606 0
-0.00150864 -0.000141606 0
-0.00117446 -0.000137208 1.73742e-23
-0.00117446 -0.000137208 1.73742e-23
-0.000846088 -0.000132468 1.74503e-23
-0.000846088 -0.000132468 1.74503e-23
-0.000524239 -0.000127359 0
-0.000524239 -0.000127359 0
-0.000210336 -0.000121712 -1.70217e-23
-0.000210336 -0.000121712 -1.70217e-23
9.36631e-05 -0.000115291 -1.70977e-23
9.36631e-05 -0.000115291 -1.70977e-23
0.000385985 -0.000107889 0
0.000385985 -0.000107889 0
0.000664331 -9.93037e-05 -1.65736e-23
0.000664331 -9.93037e-05 -1.65736e-23
0.000925817 -8.96677e-05 -1.66491e-23
0.000925817 -8.96677e-05 -1.66491e-23
0.00116782 -7.92281e-05 0
0.00116782 -7.92281e-05 0
0.00138837 -6.83489e-05 1.60696e-23
0.00138837 -6.83489e-05 1.60696e-23
0.0015863 -5.74415e-05 3.20388e-23
0.0015863 -5.74415e-05 3.20388e-23
0.00176139 -4.6893e-05 1.59688e-23
0.00176139 -4.6893e-05 1.59688e-23
0.00191421 -3.70123e-05 -1.55402e-23
0.00191421 -3.70123e-05 -1.55402e-23
0.00204598 -2.80039e-05 -1.56137e-23
0.00204598 -2.80039e-05 -1.56137e-23
0.00215836 -1.9968e-05 1.51852e-23
0.00215836 -1.9968e-05 1.51852e-23
0.0022532 -1.29147e-05 1.52579e-23
0.0022532 -1.29147e-05 1.52579e-23
0.00233237 -6.79765e-06 1.48336e-23
0.00233237 -6.79765e-06 1.48336e-23
0.00239768 -1.52759e-06 2.95653e-23
0.00239768 -1.52759e-06 2.95653e-23
0.00245069 2.99822e-06 1.47312e-23
0.00245069 2.99822e-06 1.47312e-23
0.00249284 6.86175e-06 0
0.00249284 6.86175e-06 0
0.00252534 1.0179e-05 0
0.00252534 1.0179e-05 0
0.00254916 1.30019e-05 0
0.00254916 1.30019e-05 0
0.00256535 1.53471e-05 0
0.00256535 1.53471e-05 0
0.00257453 1.74104e-05 0
0.00257453 1.74104e-05 0
0.00257715 1.92598e-05 0
0.00257715 1.92598e-05 0
0.00257407 2.06841e-05 1.3324e-23
0.00257407 2.06841e-05 1.3324e-23
0.0025662 2.15563e-05 2.2825e-25
0.0025662 2.15563e-05 2.2825e-25
0.00255439 2.19328e-05 -1.3231e-23
0.00255439 2.19328e-05 -1.3231e-23
0.00253949 2.19232e-05 0
0.00253949 2.19232e-05 0
0.0025223 2.16172e-05 0
0.0025223 2.16172e-05 0
0.00250349 2.11013e-05 0
0.00250349 2.11013e-05 0
0.00248361 2.04604e-05 -2.47624e-23
0.00248361 2.04604e-05 -2.47624e-23
0.00246312 1.97433e-05 -2.48925e-23
0.00246312 1.97433e-05 -2.48925e-23
0.00244242 1.89652e-05 2.41535e-23
0.00244242 1.89652e-05 2.41535e-23
0.00242186 1.81271e-05 4.2912e-25
0.00242186 1.81271e-05 4.2912e-25
0.00240179 1.72263e-05 -2.39797e-23
0.00240179 1.72263e-05 -2.39797e-23
0.0023825 1.62617e-05 0
0.0023825 1.62617e-05 0
0.00236427 1.52405e-05 0
0.00236427 1.52405e-05 0
0.00234731 1.41787e-05 2.26707e-23
0.00234731 1.41787e-05 2.26707e-23
0.00233176 1.30977e-05 4.51743e-23
0.00233176 1.30977e-05 4.51743e-23
0.00231771 1.20206e-05 2.25026e-23
0.00231771 1.20206e-05 2.25026e-23
0.00230519 1.09691e-05 2.1806e-23
0.00230519 1.09691e-05 2.1806e-23
0.00229418 9.96324e-06 4.34477e-23
0.00229418 9.96324e-06 4.34477e-23
0.00228459 9.01983e-06 4.01724e-25
0.00228459 9.01983e-06 4.01724e-25
0.00227634 8.14937e-06 -2.1357e-23
0.00227634 8.14937e-06 -2.1357e-23
0.0022693 7.35278e-06 0
0.0022693 7.35278e-06 0
0.00226336 6.62016e-06 -2.04012e-23
0.00226336 6.62016e-06 -2.04012e-23
0.0022584 5.95087e-06 -2.05161e-23
0.0022584 5.95087e-06 -2.05161e-23
0.00225434 5.35158e-06 0
0.00225434 5.35158e-06 0
0.00225106 4.82227e-06 0
0.00225106 4.82227e-06 0
0.00224848 4.3598e-06 0
0.00224848 4.3598e-06 0
0.0022465 3.95187e-06 1.90359e-23
0.0022465 3.95187e-06 1.90359e-23
0.00224505 3.57943e-06 3.79123e-23
0.00224505 3.57943e-06 3.79123e-23
0.00224404 3.2257e-06 1.88754e-23
0.00224404 3.2257e-06 1.88754e-23
0.00224341 2.88376e-06 1.82332e-23
0.00224341 2.88376e-06 1.82332e-23
0.0022431 2.55797e-06 1.83393e-23
0.0022431 2.55797e-06 1.83393e-23
0.00224304 2.25933e-06 0
0.00224304 2.25933e-06 0
0.00224318 2.00488e-06 1.74417e-23
0.00224318 2.00488e-06 1.74417e-23
0.00224346 1.80853e-06 1.75443e-23
0.00224346 1.80853e-06 1.75443e-23
0.00224381 1.66849e-06 1.69197e-23
0.00224381 1.66849e-06 1.69197e-23
0.00224415 1.57848e-06 1.702e-23
0.00224415 1.57848e-06 1.702e-23
0.00224436 1.5421e-06 0
0.00224436 1.5421e-06 0
0.00224436 1.5602e-06 1.61449e-23
0.00224436 1.5602e-06 1.61449e-23
0.002244 1.63066e-06 1.62416e-23
0.002244 1.63066e-06 1.62416e-23
0.0022432 1.75099e-06 1.56334e-23