/*--------------------------------*- C++ -*----------------------------------*\
  =========                 |
  \\      /  F ield         | OpenFOAM: The Open Source CFD Toolbox
   \\    /   O peration     | Website:  https://openfoam.org
    \\  /    A nd           | Version:  7
     \\/     M anipulation  |
\*---------------------------------------------------------------------------*/
FoamFile
{
    version     2.0;
    format      ascii;
    class       volScalarField;
    location    "0.009";
    object      k;
}
// * * * * * * * * * * * * * * * * * * * * * * * * * * * * * * * * * * * * * //

dimensions      [0 2 -2 0 0 0 0];

internalField   nonuniform List<scalar> 
12225
(
1.93296e-05
1.81421e-05
1.66582e-05
1.52986e-05
1.43404e-05
1.29587e-05
1.1386e-05
1.04341e-05
9.7529e-06
8.85547e-06
8.01153e-06
7.61073e-06
7.57261e-06
7.64193e-06
7.97179e-06
9.06972e-06
1.24715e-05
6.35504e-05
1.99804e-05
1.98859e-05
1.97046e-05
1.94067e-05
1.91766e-05
1.89363e-05
1.84474e-05
1.79673e-05
1.7671e-05
1.73546e-05
1.70024e-05
1.68068e-05
1.67587e-05
1.66719e-05
1.65581e-05
1.65528e-05
1.66076e-05
1.81068e-05
1.99988e-05
1.93059e-05
1.92104e-05
1.91582e-05
1.90349e-05
1.89166e-05
1.87455e-05
1.85681e-05
1.84673e-05
1.84318e-05
1.84304e-05
1.84363e-05
1.84421e-05
1.84356e-05
1.83913e-05
1.83131e-05
1.81148e-05
1.80073e-05
2.00645e-05
1.99216e-05
1.91852e-05
1.7948e-05
1.51401e-05
1.43152e-05
1.44199e-05
1.46802e-05
1.50301e-05
1.57553e-05
1.65142e-05
1.69942e-05
1.71509e-05
1.71475e-05
1.70319e-05
1.66347e-05
1.5756e-05
1.53305e-05
2.04549e-05
2.04536e-05
2.06451e-05
2.24343e-05
2.36888e-05
2.36214e-05
2.25498e-05
1.83573e-05
1.52906e-05
1.53355e-05
1.60226e-05
1.63335e-05
1.62743e-05
1.58237e-05
1.42362e-05
1.25926e-05
1.17113e-05
1.13906e-05
2.12502e-05
2.13455e-05
2.18544e-05
2.34713e-05
2.46484e-05
2.48673e-05
2.45603e-05
2.29636e-05
2.15048e-05
2.11236e-05
2.11299e-05
2.13131e-05
2.16646e-05
2.17773e-05
2.17298e-05
2.13198e-05
2.04563e-05
1.98693e-05
2.07176e-05
2.04515e-05
2.19502e-05
2.33263e-05
2.34651e-05
2.33367e-05
2.28193e-05
2.21775e-05
2.1799e-05
2.16686e-05
2.16587e-05
2.16805e-05
2.1689e-05
2.16677e-05
2.15666e-05
2.14709e-05
2.14462e-05
2.14493e-05
2.00453e-05
2.03999e-05
2.15912e-05
2.17844e-05
2.21344e-05
2.33519e-05
2.47117e-05
2.50671e-05
2.48661e-05
2.38167e-05
2.24981e-05
2.16824e-05
2.12376e-05
2.10442e-05
2.09983e-05
2.10064e-05
2.109e-05
2.13407e-05
2.02728e-05
2.09755e-05
2.11036e-05
2.11476e-05
2.15175e-05
2.28576e-05
2.48999e-05
2.58903e-05
2.59512e-05
2.56381e-05
2.44064e-05
2.29718e-05
2.20656e-05
2.15719e-05
2.13509e-05
2.12813e-05
2.12768e-05
2.12856e-05
2.22192e-05
2.19966e-05
2.14382e-05
2.14083e-05
2.19998e-05
2.45449e-05
2.6427e-05
2.6715e-05
2.62335e-05
2.43842e-05
2.27892e-05
2.20007e-05
2.17109e-05
2.16557e-05
2.16709e-05
2.17399e-05
2.18077e-05
2.19389e-05
2.13824e-05
2.11286e-05
2.15731e-05
2.17169e-05
2.21567e-05
2.26941e-05
2.28809e-05
2.28138e-05
2.21999e-05
2.14981e-05
2.12474e-05
2.12107e-05
2.126e-05
2.14328e-05
2.15503e-05
2.16121e-05
2.16699e-05
2.17835e-05
2.2361e-05
2.17916e-05
2.15581e-05
2.22043e-05
2.23268e-05
2.15862e-05
2.09064e-05
2.0666e-05
2.06066e-05
2.06376e-05
2.0872e-05
2.11673e-05
2.12833e-05
2.13032e-05
2.12949e-05
2.12666e-05
2.12597e-05
2.12856e-05
2.03198e-05
2.04552e-05
2.11277e-05
2.21271e-05
2.18631e-05
2.09471e-05
2.05684e-05
2.04965e-05
2.05112e-05
2.06039e-05
2.07066e-05
2.0795e-05
2.08602e-05
2.08828e-05
2.08767e-05
2.08242e-05
2.07893e-05
2.08479e-05
2.04168e-05
2.06439e-05
2.13016e-05
2.26944e-05
2.28314e-05
2.21866e-05
2.14328e-05
2.12381e-05
2.11987e-05
2.12098e-05
2.11698e-05
2.09575e-05
2.08364e-05
2.0828e-05
2.08849e-05
2.12035e-05
2.16328e-05
2.17958e-05
2.07355e-05
2.08519e-05
2.08433e-05
2.09022e-05
2.09479e-05
2.09807e-05
2.11975e-05
2.21069e-05
2.27299e-05
2.27971e-05
2.25561e-05
2.16979e-05
2.12509e-05
2.11618e-05
2.12149e-05
2.14784e-05
2.1563e-05
2.15455e-05
2.27936e-05
2.3564e-05
2.23905e-05
2.09675e-05
2.05424e-05
2.05277e-05
2.07645e-05
2.13629e-05
2.16372e-05
2.17112e-05
2.17123e-05
2.15823e-05
2.12844e-05
2.11482e-05
2.11258e-05
2.11793e-05
2.14415e-05
2.16033e-05
2.08154e-05
2.07348e-05
2.04232e-05
2.02212e-05
2.01781e-05
2.01927e-05
2.02852e-05
2.05464e-05
2.11972e-05
2.29761e-05
2.46713e-05
2.51532e-05
2.49448e-05
2.38448e-05
2.28331e-05
2.24264e-05
2.23503e-05
2.23664e-05
2.02639e-05
2.04444e-05
2.04461e-05
2.03343e-05
2.02582e-05
2.02941e-05
2.0643e-05
2.18518e-05
2.26105e-05
2.26882e-05
2.24368e-05
2.17551e-05
2.14108e-05
2.12992e-05
2.12795e-05
2.12837e-05
2.12903e-05
2.12912e-05
2.03458e-05
2.05243e-05
2.04862e-05
2.05142e-05
2.03991e-05
2.02806e-05
2.03685e-05
2.08482e-05
2.11925e-05
2.12233e-05
2.11606e-05
2.09653e-05
2.08575e-05
2.08349e-05
2.08461e-05
2.09262e-05
2.10573e-05
2.1132e-05
2.03801e-05
2.01359e-05
2.01167e-05
2.01427e-05
2.01729e-05
2.02464e-05
2.05113e-05
2.10886e-05
2.12957e-05
2.12197e-05
2.08389e-05
2.04402e-05
2.02303e-05
2.01436e-05
2.01282e-05
2.01439e-05
2.02315e-05
2.04805e-05
2.00787e-05
2.02037e-05
2.03633e-05
2.03912e-05
2.03726e-05
2.03735e-05
2.04258e-05
2.05775e-05
2.06386e-05
2.06416e-05
2.0602e-05
2.04924e-05
2.04385e-05
2.03885e-05
2.03346e-05
2.03151e-05
2.03229e-05
2.03817e-05
2.02034e-05
2.0228e-05
2.03e-05
2.03969e-05
2.03915e-05
2.03645e-05
2.03811e-05
2.05161e-05
2.06786e-05
2.07949e-05
2.10252e-05
2.16676e-05
2.20982e-05
2.21453e-05
2.19983e-05
2.15511e-05
2.13524e-05
2.13508e-05
2.00432e-05
2.01457e-05
2.02454e-05
2.02444e-05
2.0204e-05
2.01924e-05
2.02111e-05
2.03479e-05
2.08503e-05
2.1259e-05
2.16649e-05
2.24902e-05
2.3267e-05
2.33836e-05
2.3052e-05
2.19502e-05
2.12302e-05
2.09667e-05
2.00297e-05
2.00734e-05
2.01031e-05
2.03063e-05
2.03122e-05
2.02428e-05
2.03179e-05
2.07703e-05
2.13496e-05
2.16557e-05
2.17507e-05
2.17316e-05
2.15691e-05
2.113e-05
2.07695e-05
2.05493e-05
2.04542e-05
2.04394e-05
2.00356e-05
2.02252e-05
2.0307e-05
2.03323e-05
2.03245e-05
2.03084e-05
2.03009e-05
2.04289e-05
2.06913e-05
2.07634e-05
2.07424e-05
2.06343e-05
2.04802e-05
2.03631e-05
2.02852e-05
2.0242e-05
2.02245e-05
2.02221e-05
2.0091e-05
2.07748e-05
2.13392e-05
2.27767e-05
2.3491e-05
2.32352e-05
2.19287e-05
2.08858e-05
2.04984e-05
2.03272e-05
2.02281e-05
2.01641e-05
2.01273e-05
2.01114e-05
2.01087e-05
2.01121e-05
2.01284e-05
2.01628e-05
2.01724e-05
2.0397e-05
2.03864e-05
2.02868e-05
2.01027e-05
1.98873e-05
1.98189e-05
1.97872e-05
1.97701e-05
1.96388e-05
1.9448e-05
1.90912e-05
1.8964e-05
1.90028e-05
1.91549e-05
1.94693e-05
2.01332e-05
2.09587e-05
2.02779e-05
1.74356e-05
1.19677e-05
1.24211e-05
1.44386e-05
1.89252e-05
2.97492e-05
3.95832e-05
4.81821e-05
5.22949e-05
5.70929e-05
5.99778e-05
6.56573e-05
7.06938e-05
7.65304e-05
8.33695e-05
9.47133e-05
0.000107979
3.19027e-05
0.000104887
0.000171522
0.000211583
0.000252555
0.00032548
0.000404718
0.000462193
0.000492107
0.000503668
0.000506314
0.000508236
0.000513671
0.000522657
0.00054012
0.000566387
0.000607312
0.00066039
0.00262783
0.00248713
0.00241352
0.002302
0.00215704
0.0020453
0.0019294
0.00178993
0.00164199
0.00150939
0.00140876
0.00134547
0.00131473
0.00130537
0.00130522
0.00131019
0.00131434
0.00131371
1.57903e-07
2.36673e-07
3.81803e-07
7.31505e-07
1.14571e-06
1.54831e-06
1.84835e-06
1.97908e-06
1.95827e-06
1.76012e-06
1.45584e-06
1.10435e-06
7.61608e-07
4.73548e-07
2.66192e-07
1.43104e-07
8.35481e-08
6.10436e-08
7.10306e-08
8.38633e-08
9.85134e-08
1.14082e-07
1.31195e-07
1.48499e-07
1.65156e-07
1.79032e-07
1.89992e-07
1.9894e-07
2.05366e-07
2.08747e-07
2.02202e-07
1.92142e-07
1.80249e-07
1.60302e-07
1.26193e-07
9.7942e-08
8.48357e-08
7.40895e-08
6.43721e-08
5.55823e-08
4.77759e-08
4.09141e-08
3.4928e-08
2.96879e-08
2.50759e-08
2.10096e-08
1.74499e-08
1.43687e-08
1.1734e-08
9.50696e-09
7.6432e-09
6.09715e-09
4.82549e-09
3.78849e-09
2.95018e-09
2.27844e-09
1.74498e-09
1.32525e-09
9.98033e-10
7.45371e-10
5.51963e-10
4.05297e-10
2.95021e-10
2.12809e-10
1.52148e-10
1.07732e-10
7.55055e-11
5.23996e-11
3.60292e-11
2.45595e-11
1.66057e-11
1.11421e-11
7.42229e-12
4.9105e-12
3.22758e-12
2.10829e-12
1.36907e-12
8.84148e-13
5.6807e-13
3.63291e-13
2.31362e-13
1.46799e-13
9.2846e-14
5.85649e-14
3.68638e-14
2.31724e-14
1.45602e-14
9.15711e-15
5.77566e-15
3.66429e-15
2.34829e-15
1.52959e-15
1.02181e-15
7.07635e-16
5.1335e-16
3.93579e-16
3.20557e-16
2.76749e-16
2.5087e-16
2.35876e-16
2.27574e-16
2.23503e-16
2.22124e-16
2.22045e-16
2.22045e-16
2.22045e-16
2.22045e-16
2.22045e-16
2.22045e-16
2.22045e-16
2.22045e-16
2.22045e-16
2.22045e-16
2.22045e-16
2.22045e-16
2.22045e-16
2.22045e-16
2.22045e-16
2.22045e-16
2.22045e-16
2.22045e-16
2.22045e-16
2.22045e-16
2.22045e-16
2.22045e-16
2.22045e-16
2.22045e-16
2.22045e-16
2.22045e-16
2.22045e-16
2.22045e-16
2.22045e-16
2.22045e-16
2.22045e-16
2.22045e-16
2.22045e-16
2.22045e-16
2.22045e-16
2.22045e-16
2.22045e-16
2.22045e-16
2.22045e-16
2.22045e-16
2.22045e-16
2.22045e-16
2.22045e-16
2.22045e-16
2.22045e-16
2.22045e-16
2.22045e-16
2.22045e-16
2.22045e-16
2.22045e-16
2.22045e-16
2.22045e-16
2.22045e-16
2.22045e-16
2.22045e-16
2.22045e-16
2.22045e-16
2.22045e-16
2.22045e-16
2.22045e-16
2.22378e-16
2.51319e-16
5.33521e-16
2.53967e-15
1.43666e-14
7.42796e-14
3.40659e-13
1.39971e-12
5.23463e-12
1.81615e-11
6.12616e-11
2.08499e-10
1.4265e-09
5.40996e-09
1.66499e-08
2.68807e-08
1.1205e-07
6.88318e-07
1.04588e-06
1.11447e-06
8.88249e-07
7.3575e-07
7.68877e-07
8.43907e-07
8.3483e-07
7.50284e-07
6.49885e-07
5.75792e-07
5.36332e-07
5.20917e-07
5.36357e-07
5.76599e-07
6.44804e-07
7.38934e-07
8.58352e-07
1.00438e-06
1.17101e-06
1.35668e-06
1.55768e-06
1.77044e-06
1.98414e-06
2.18646e-06
2.38033e-06
2.56489e-06
2.72748e-06
2.84838e-06
2.96288e-06
3.0675e-06
3.10489e-06
2.92143e-06
2.5641e-06
2.12022e-06
1.68163e-06
1.34237e-06
1.12806e-06
9.74013e-07
8.34645e-07
7.11514e-07
6.05166e-07
5.15655e-07
4.40693e-07
3.77314e-07
3.21907e-07
2.72688e-07
2.29213e-07
1.91225e-07
1.5841e-07
1.30348e-07
1.0653e-07
8.64476e-08
6.96369e-08
5.56721e-08
4.41611e-08
3.4747e-08
2.7113e-08
2.09764e-08
1.60911e-08
1.22354e-08
9.22171e-09
6.88631e-09
5.09127e-09
3.72892e-09
2.7007e-09
1.93271e-09
1.36983e-09
9.62821e-10
6.71671e-10
4.65297e-10
3.20203e-10
2.18963e-10
1.48823e-10
1.00557e-10
6.75601e-11
4.51435e-11
3.00089e-11
1.98521e-11
1.30753e-11
8.57796e-12
5.60759e-12
3.65381e-12
2.37335e-12
1.53698e-12
9.92454e-13
6.39035e-13
4.10329e-13
2.62759e-13
1.67831e-13
1.06927e-13
6.79466e-14
4.30942e-14
2.73092e-14
1.72816e-14
1.09159e-14
6.91614e-15
4.43349e-15
2.89327e-15
1.92602e-15
1.30974e-15
9.14554e-16
6.61306e-16
4.99335e-16
3.96311e-16
3.31811e-16
2.91756e-16
2.66871e-16
2.51298e-16
2.41424e-16
2.35062e-16
2.30896e-16
2.2813e-16
2.26272e-16
2.25013e-16
2.24151e-16
2.23555e-16
2.23139e-16
2.22846e-16
2.22636e-16
2.22485e-16
2.22374e-16
2.22292e-16
2.22232e-16
2.22186e-16
2.22152e-16
2.22126e-16
2.22106e-16
2.22091e-16
2.22079e-16
2.2207e-16
2.22063e-16
2.22058e-16
2.22054e-16
2.2205e-16
2.22047e-16
2.22046e-16
2.22045e-16
2.22045e-16
2.22045e-16
2.22045e-16
2.22045e-16
2.22045e-16
2.22045e-16
2.22045e-16
2.22045e-16
2.22045e-16
2.22045e-16
2.22045e-16
2.22045e-16
2.22045e-16
2.22045e-16
2.22045e-16
2.22045e-16
2.22045e-16
2.22045e-16
2.22045e-16
2.22045e-16
2.22045e-16
2.22045e-16
2.22045e-16
2.22045e-16
2.22049e-16
2.22143e-16
2.2339e-16
2.34924e-16
3.19692e-16
8.42039e-16
3.6145e-15
1.65364e-14
7.04424e-14
2.74366e-13
9.94937e-13
3.41137e-12
1.17513e-11
5.36474e-11
2.41093e-10
7.37481e-10
2.08847e-09
1.4455e-08
7.36105e-07
1.06123e-06
1.75264e-06
2.05724e-06
2.01775e-06
2.00938e-06
2.03085e-06
2.06269e-06
2.11816e-06
2.20271e-06
2.31881e-06
2.47312e-06
2.67313e-06
2.93969e-06
3.28317e-06
3.70451e-06
4.2106e-06
4.80445e-06
5.48843e-06
6.26537e-06
7.13043e-06
8.07155e-06
9.07245e-06
1.00941e-05
1.10845e-05
1.19924e-05
1.27587e-05
1.33268e-05
1.36577e-05
1.37816e-05
1.36522e-05
1.32893e-05
1.27187e-05
1.19684e-05
1.10759e-05
1.00864e-05
9.03804e-06
7.95591e-06
6.88223e-06
5.86122e-06
4.92759e-06
4.10397e-06
3.41155e-06
2.8518e-06
2.42424e-06
2.09296e-06
1.80133e-06
1.54001e-06
1.30755e-06
1.10305e-06
9.2523e-07
7.71787e-07
6.39792e-07
5.26787e-07
4.30698e-07
3.49543e-07
2.81449e-07
2.24715e-07
1.7781e-07
1.39403e-07
1.08248e-07
8.32256e-08
6.33106e-08
4.75892e-08
3.53773e-08
2.59087e-08
1.8671e-08
1.34255e-08
9.62141e-09
6.86933e-09
4.88527e-09
3.45998e-09
2.44013e-09
1.71347e-09
1.19796e-09
8.33919e-10
5.78023e-10
3.99017e-10
2.74424e-10
1.88138e-10
1.28668e-10
8.78387e-11
5.98702e-11
4.07245e-11
2.76297e-11
1.86889e-11
1.2599e-11
8.46284e-12
5.66246e-12
3.77366e-12
2.50436e-12
1.65441e-12
1.0883e-12
7.13508e-13
4.65497e-13
3.01448e-13
1.95091e-13
1.27867e-13
8.46846e-14
5.61217e-14
3.68178e-14
2.39048e-14
1.54232e-14
9.92722e-15
6.39268e-15
4.14302e-15
2.73873e-15
1.85996e-15
1.30188e-15
9.4178e-16
7.06065e-16
5.50024e-16
4.45906e-16
3.76031e-16
3.2891e-16
2.96941e-16
2.75113e-16
2.60051e-16
2.49578e-16
2.42183e-16
2.36916e-16
2.33122e-16
2.30339e-16
2.28297e-16
2.26783e-16
2.25634e-16
2.24772e-16
2.24129e-16
2.23631e-16
2.23241e-16
2.22949e-16
2.22735e-16
2.22567e-16
2.22422e-16
2.223e-16
2.22206e-16
2.22141e-16
2.22101e-16
2.22078e-16
2.22065e-16
2.22058e-16
2.22054e-16
2.22051e-16
2.22049e-16
2.22048e-16
2.22047e-16
2.22046e-16
2.22046e-16
2.22045e-16
2.22045e-16
2.22045e-16
2.22045e-16
2.22045e-16
2.22045e-16
2.22045e-16
2.22045e-16
2.22045e-16
2.22045e-16
2.22045e-16
2.22045e-16
2.22045e-16
2.22045e-16
2.22045e-16
2.22049e-16
2.22093e-16
2.2249e-16
2.25454e-16
2.44094e-16
3.45316e-16
8.2783e-16
2.8885e-15
1.08503e-14
3.95714e-14
1.36204e-13
4.64765e-13
1.7084e-12
7.22245e-12
2.39483e-11
8.70912e-11
9.0538e-10
7.30329e-07
8.87256e-07
1.68201e-06
2.42496e-06
2.67474e-06
2.78214e-06
2.87011e-06
2.99895e-06
3.17455e-06
3.41191e-06
3.72023e-06
4.11599e-06
4.6174e-06
5.24335e-06
6.01032e-06
6.93585e-06
8.03836e-06
9.32621e-06
1.08096e-05
1.24475e-05
1.41444e-05
1.58452e-05
1.74926e-05
1.90075e-05
2.03266e-05
2.14006e-05
2.22019e-05
2.26535e-05
2.2837e-05
2.2707e-05
2.2289e-05
2.16108e-05
2.07131e-05
1.96331e-05
1.84067e-05
1.70721e-05
1.5679e-05
1.42877e-05
1.29267e-05
1.1617e-05
1.03745e-05
9.20976e-06
8.12974e-06
7.13767e-06
6.23403e-06
5.41722e-06
4.68417e-06
4.03058e-06
3.45112e-06
2.94015e-06
2.49252e-06
2.10362e-06
1.7672e-06
1.47701e-06
1.22802e-06
1.0156e-06
8.3517e-07
6.82599e-07
5.54282e-07
4.46947e-07
3.57812e-07
2.84259e-07
2.23992e-07
1.75013e-07
1.35458e-07
1.03924e-07
7.899e-08
5.93743e-08
4.39954e-08
3.24924e-08
2.39747e-08
1.76542e-08
1.29654e-08
9.49249e-09
6.92633e-09
5.03589e-09
3.64786e-09
2.63282e-09
1.894e-09
1.35901e-09
9.74056e-10
6.98944e-10
5.03437e-10
3.63335e-10
2.61655e-10
1.87666e-10
1.33922e-10
9.50323e-11
6.70257e-11
4.69789e-11
3.27119e-11
2.26295e-11
1.55554e-11
1.06268e-11
7.21743e-12
4.87644e-12
3.27799e-12
2.19104e-12
1.45747e-12
9.66632e-13
6.39954e-13
4.23158e-13
2.79879e-13
1.8553e-13
1.23457e-13
8.25133e-14
5.53689e-14
3.72723e-14
2.51468e-14
1.69953e-14
1.1512e-14
7.82861e-15
5.36037e-15
3.70923e-15
2.60552e-15
1.86594e-15
1.36837e-15
1.03074e-15
7.99935e-16
6.39857e-16
5.27748e-16
4.48099e-16
3.90453e-16
3.48601e-16
3.17785e-16
2.94636e-16
2.77389e-16
2.64533e-16
2.54598e-16
2.4685e-16
2.41032e-16
2.36704e-16
2.33268e-16
2.30358e-16
2.27935e-16
2.26068e-16
2.24756e-16
2.23895e-16
2.23346e-16
2.22991e-16
2.22751e-16
2.22579e-16
2.22451e-16
2.22353e-16
2.22279e-16
2.2222e-16
2.22175e-16
2.22139e-16
2.2211e-16
2.2209e-16
2.22067e-16
2.22051e-16
2.22045e-16
2.22045e-16
2.22045e-16
2.22045e-16
2.22045e-16
2.22045e-16
2.22045e-16
2.22045e-16
2.22045e-16
2.22046e-16
2.22047e-16
2.22054e-16
2.22067e-16
2.221e-16
2.22231e-16
2.22893e-16
2.26297e-16
2.42415e-16
3.12236e-16
5.90139e-16
1.6469e-15
5.52886e-15
1.99396e-14
7.19144e-14
3.00347e-13
9.72002e-13
3.78131e-12
5.65643e-11
7.41793e-07
7.68374e-07
1.47372e-06
2.4816e-06
2.80802e-06
2.95121e-06
3.07416e-06
3.26198e-06
3.51576e-06
3.861e-06
4.31585e-06
4.91551e-06
5.70172e-06
6.70272e-06
7.95612e-06
9.50219e-06
1.13673e-05
1.35802e-05
1.61586e-05
1.90313e-05
2.19216e-05
2.46909e-05
2.72226e-05
2.93628e-05
3.1037e-05
3.21356e-05
3.26238e-05
3.27097e-05
3.22029e-05
3.12611e-05
2.99504e-05
2.83637e-05
2.65738e-05
2.46545e-05
2.26694e-05
2.06734e-05
1.8712e-05
1.68207e-05
1.50252e-05
1.33434e-05
1.1786e-05
1.03579e-05
9.05983e-06
7.889e-06
6.84015e-06
5.90641e-06
5.0801e-06
4.35293e-06
3.71604e-06
3.16005e-06
2.67557e-06
2.25435e-06
1.89103e-06
1.58025e-06
1.31563e-06
1.09128e-06
9.01959e-07
7.42632e-07
6.0932e-07
4.98283e-07
4.05925e-07
3.29338e-07
2.66076e-07
2.14042e-07
1.7143e-07
1.3669e-07
1.08497e-07
8.57224e-08
6.74099e-08
5.27568e-08
4.10892e-08
3.18444e-08
2.45555e-08
1.88376e-08
1.43749e-08
1.091e-08
8.23394e-09
6.17836e-09
4.60816e-09
3.41557e-09
2.51513e-09
1.83939e-09
1.33548e-09
9.62159e-10
6.8749e-10
4.86892e-10
3.41498e-10
2.37043e-10
1.62599e-10
1.10163e-10
7.34597e-11
4.83304e-11
3.14498e-11
2.02273e-11
1.28474e-11
8.0497e-12
4.96884e-12
3.01712e-12
1.79921e-12
1.05194e-12
6.02028e-13
3.36768e-13
1.83904e-13
9.79814e-14
5.09595e-14
2.59436e-14
1.30328e-14
6.56425e-15
3.3965e-15
1.86429e-15
1.12084e-15
7.46058e-16
5.57652e-16
4.35638e-16
4.32097e-16
4.4601e-16
4.80752e-16
5.17049e-16
5.4506e-16
5.61773e-16
5.61103e-16
5.54381e-16
5.37768e-16
5.13089e-16
4.8541e-16
4.56393e-16
4.27562e-16
4.00091e-16
3.74673e-16
3.5169e-16
3.31328e-16
3.13585e-16
2.9829e-16
2.85217e-16
2.74145e-16
2.64863e-16
2.57146e-16
2.50761e-16
2.45494e-16
2.41155e-16
2.37586e-16
2.34651e-16
2.32241e-16
2.30253e-16
2.28622e-16
2.27251e-16
2.26121e-16
2.2514e-16
2.24221e-16
2.23571e-16
2.22436e-16
2.22045e-16
2.22045e-16
2.22045e-16
2.22045e-16
2.22045e-16
2.22045e-16
2.22045e-16
2.22045e-16
2.22045e-16
2.22066e-16
2.22268e-16
2.22738e-16
2.23868e-16
2.25061e-16
2.27081e-16
2.31002e-16
2.39924e-16
2.6189e-16
3.28019e-16
5.78656e-16
1.94301e-15
1.08804e-14
8.15754e-14
4.75758e-13
2.14381e-12
1.28994e-11
1.78845e-11
4.97311e-11
5.42736e-11
7.99878e-07
7.6743e-07
1.46245e-06
2.52931e-06
2.8896e-06
3.06394e-06
3.25791e-06
3.54803e-06
3.94728e-06
4.51849e-06
5.32886e-06
6.44205e-06
7.94402e-06
9.94344e-06
1.25573e-05
1.58849e-05
1.9984e-05
2.48975e-05
3.05714e-05
3.67553e-05
4.26854e-05
4.80176e-05
5.23924e-05
5.55548e-05
5.73468e-05
5.80248e-05
5.75083e-05
5.58843e-05
5.34312e-05
5.03466e-05
4.68237e-05
4.30632e-05
3.91933e-05
3.53601e-05
3.16359e-05
2.8098e-05
2.47944e-05
2.17504e-05
1.89791e-05
1.64821e-05
1.42525e-05
1.2277e-05
1.05376e-05
9.01499e-06
7.68845e-06
6.53736e-06
5.54237e-06
4.68544e-06
3.94977e-06
3.3204e-06
2.78433e-06
2.32859e-06
1.94175e-06
1.61444e-06
1.33821e-06
1.10517e-06
9.09114e-07
7.45753e-07
6.0981e-07
4.96812e-07
4.03264e-07
3.26119e-07
2.62739e-07
2.10862e-07
1.68561e-07
1.34203e-07
1.06405e-07
8.40081e-08
6.60369e-08
5.16788e-08
4.02574e-08
3.12129e-08
2.40834e-08
1.84899e-08
1.41228e-08
1.073e-08
8.10755e-09
6.09124e-09
4.54932e-09
3.37676e-09
2.49024e-09
1.824e-09
1.32645e-09
9.57283e-10
6.85276e-10
4.86289e-10
3.41859e-10
2.37854e-10
1.63661e-10
1.11175e-10
7.45298e-11
4.9102e-11
3.19903e-11
2.05956e-11
1.30914e-11
8.20667e-12
5.06654e-12
3.07561e-12
1.83261e-12
1.06983e-12
6.10655e-13
3.40078e-13
1.84387e-13
9.71307e-14
4.96261e-14
2.45702e-14
1.18013e-14
5.5291e-15
2.56515e-15
1.21946e-15
6.32779e-16
3.86957e-16
2.87814e-16
2.48778e-16
2.34003e-16
2.28507e-16
2.26566e-16
2.26156e-16
2.26174e-16
2.26565e-16
2.27427e-16
2.28079e-16
2.28506e-16
2.28732e-16
2.28701e-16
2.28535e-16
2.28295e-16
2.2796e-16
2.27498e-16
2.26996e-16
2.26479e-16
2.25969e-16
2.25483e-16
2.25029e-16
2.24613e-16
2.2424e-16
2.23911e-16
2.23624e-16
2.23375e-16
2.2316e-16
2.22976e-16
2.22819e-16
2.22687e-16
2.22574e-16
2.2248e-16
2.224e-16
2.22335e-16
2.22276e-16
2.22228e-16
2.22188e-16
2.22146e-16
2.22109e-16
2.22085e-16
2.2207e-16
2.22057e-16
2.22048e-16
2.22075e-16
2.22556e-16
2.24154e-16
2.27926e-16
2.35509e-16
2.51457e-16
2.78291e-16
3.3177e-16
4.29632e-16
6.29448e-16
1.06098e-15
2.05523e-15
4.48899e-15
1.07772e-14
2.74163e-14
7.28574e-14
1.95654e-13
5.22166e-13
1.39301e-12
3.23668e-12
1.33321e-11
1.55715e-11
3.40656e-11
3.86529e-11
9.31638e-07
7.98497e-07
1.50329e-06
2.61934e-06
3.01289e-06
3.22602e-06
3.52464e-06
4.01312e-06
4.74757e-06
5.85173e-06
7.48202e-06
9.85857e-06
1.32515e-05
1.79823e-05
2.4361e-05
3.26207e-05
4.28425e-05
5.4884e-05
6.82683e-05
8.20229e-05
9.41929e-05
0.000104181
0.000110225
0.000113023
0.000113854
0.000111006
0.000105949
9.9396e-05
9.17272e-05
8.34487e-05
7.50406e-05
6.68221e-05
5.89397e-05
5.16513e-05
4.49368e-05
3.88906e-05
3.34816e-05
2.86745e-05
2.44442e-05
2.07511e-05
1.75567e-05
1.48144e-05
1.24696e-05
1.04731e-05
8.77923e-06
7.34613e-06
6.13672e-06
5.11833e-06
4.26185e-06
3.54193e-06
2.93919e-06
2.43351e-06
2.00984e-06
1.65584e-06
1.35994e-06
1.11435e-06
9.11827e-07
7.44177e-07
6.05524e-07
4.91194e-07
3.97187e-07
3.20114e-07
2.57116e-07
2.05786e-07
1.64102e-07
1.30368e-07
1.03165e-07
8.13112e-08
6.3822e-08
4.98812e-08
3.88146e-08
3.00667e-08
2.31818e-08
1.77874e-08
1.35805e-08
1.03151e-08
7.79313e-09
5.8551e-09
4.37363e-09
3.24729e-09
2.39577e-09
1.75579e-09
1.27773e-09
9.22895e-10
6.61315e-10
4.6982e-10
3.30729e-10
2.30451e-10
1.58868e-10
1.08119e-10
7.26865e-11
4.79751e-11
3.13172e-11
2.02023e-11
1.28685e-11
8.08577e-12
5.00521e-12
3.04764e-12
1.82215e-12
1.06773e-12
6.11964e-13
3.42349e-13
1.86539e-13
9.87926e-14
5.07642e-14
2.52822e-14
1.22121e-14
5.74738e-15
2.67071e-15
1.26446e-15
6.48023e-16
3.89095e-16
2.84921e-16
2.44784e-16
2.29971e-16
2.2473e-16
2.22948e-16
2.22366e-16
2.22183e-16
2.22128e-16
2.22119e-16
2.22121e-16
2.22129e-16
2.22137e-16
2.22144e-16
2.22149e-16
2.22151e-16
2.22151e-16
2.22148e-16
2.22145e-16
2.2214e-16
2.22133e-16
2.22126e-16
2.22118e-16
2.2211e-16
2.22102e-16
2.22095e-16
2.22089e-16
2.22083e-16
2.22077e-16
2.22073e-16
2.22068e-16
2.22065e-16
2.22061e-16
2.22059e-16
2.22056e-16
2.22054e-16
2.22053e-16
2.22051e-16
2.2205e-16
2.22048e-16
2.22048e-16
2.22047e-16
2.22046e-16
2.22045e-16
2.22045e-16
2.22046e-16
2.22289e-16
2.23506e-16
2.26667e-16
2.33297e-16
2.47328e-16
2.71215e-16
3.1982e-16
4.06417e-16
5.81577e-16
9.53597e-16
1.79627e-15
3.81569e-15
8.92895e-15
2.21782e-14
5.72181e-14
1.49946e-13
3.79824e-13
1.03238e-12
2.11985e-12
8.16503e-12
8.66417e-12
1.02096e-11
1.36014e-11
1.09545e-06
8.85521e-07
1.62089e-06
2.78676e-06
3.1905e-06
3.47306e-06
4.03297e-06
4.95958e-06
6.46999e-06
8.9188e-06
1.28147e-05
1.88729e-05
2.79592e-05
4.09884e-05
5.8694e-05
8.13373e-05
0.000108408
0.000138455
0.000169136
0.000197238
0.00021957
0.000233159
0.000238188
0.000234858
0.000226353
0.000212196
0.000193987
0.000175351
0.000155645
0.000136407
0.000118531
0.000102124
8.72841e-05
7.43429e-05
6.29543e-05
5.33654e-05
4.49914e-05
3.77485e-05
3.15166e-05
2.61886e-05
2.16999e-05
1.79419e-05
1.48115e-05
1.22109e-05
1.00555e-05
8.27271e-06
6.79988e-06
5.58411e-06
4.582e-06
3.75674e-06
3.07571e-06
2.5155e-06
2.05534e-06
1.67757e-06
1.36932e-06
1.11677e-06
9.08612e-07
7.37424e-07
5.9701e-07
4.82091e-07
3.88238e-07
3.11764e-07
2.49601e-07
1.99202e-07
1.58453e-07
1.25604e-07
9.92072e-08
7.80643e-08
6.11886e-08
4.77677e-08
3.71347e-08
2.87436e-08
2.21489e-08
1.69879e-08
1.29668e-08
9.84802e-09
7.44051e-09
5.59116e-09
4.17776e-09
3.10323e-09
2.29081e-09
1.68006e-09
1.22366e-09
8.84728e-10
6.34702e-10
4.51522e-10
3.18333e-10
2.22213e-10
1.53491e-10
1.04721e-10
7.05709e-11
4.67582e-11
3.05893e-11
1.97785e-11
1.263e-11
7.95803e-12
4.94169e-12
3.0197e-12
1.81272e-12
1.06703e-12
6.14701e-13
3.45883e-13
1.89707e-13
1.01216e-13
5.24373e-14
2.63487e-14
1.28463e-14
6.10127e-15
2.85656e-15
1.35644e-15
6.90926e-16
4.07948e-16
2.92726e-16
2.47813e-16
2.31055e-16
2.25068e-16
2.23019e-16
2.22347e-16
2.22135e-16
2.22071e-16
2.22053e-16
2.22048e-16
2.22046e-16
2.22046e-16
2.22046e-16
2.22046e-16
2.22046e-16
2.22046e-16
2.22046e-16
2.22046e-16
2.22046e-16
2.22046e-16
2.22046e-16
2.22046e-16
2.22046e-16
2.22046e-16
2.22046e-16
2.22046e-16
2.22045e-16
2.22045e-16
2.22045e-16
2.22045e-16
2.22045e-16
2.22045e-16
2.22045e-16
2.22045e-16
2.22045e-16
2.22045e-16
2.22045e-16
2.22045e-16
2.22045e-16
2.22045e-16
2.22045e-16
2.22045e-16
2.22045e-16
2.22045e-16
2.22045e-16
2.22105e-16
2.22955e-16
2.25486e-16
2.31024e-16
2.42217e-16
2.63997e-16
3.03791e-16
3.77904e-16
5.21311e-16
8.19625e-16
1.47711e-15
3.01051e-15
6.75558e-15
1.62393e-14
3.99752e-14
1.01134e-13
2.39952e-13
7.00648e-13
1.21868e-12
3.55289e-12
3.83931e-12
4.06018e-12
4.97223e-12
1.28004e-06
1.03566e-06
1.83546e-06
2.98194e-06
3.42412e-06
3.97779e-06
5.10994e-06
7.14033e-06
1.08045e-05
1.7259e-05
2.82047e-05
4.58707e-05
7.2704e-05
0.000110756
0.000160772
0.000221328
0.000288584
0.000356574
0.000416432
0.000460004
0.000488303
0.000498955
0.000493668
0.000453777
0.000420376
0.000379971
0.00032938
0.00028754
0.000244902
0.000206649
0.000173499
0.000144556
0.000119604
9.87623e-05
8.12922e-05
6.61829e-05
5.37428e-05
4.37038e-05
3.55687e-05
2.90082e-05
2.36992e-05
1.93817e-05
1.58578e-05
1.29742e-05
1.06105e-05
8.67196e-06
7.08194e-06
5.77816e-06
4.7102e-06
3.83721e-06
3.12307e-06
2.54174e-06
2.06887e-06
1.68282e-06
1.36597e-06
1.10639e-06
8.94524e-07
7.21955e-07
5.81581e-07
4.67543e-07
3.75027e-07
3.00092e-07
2.39505e-07
1.90618e-07
1.51261e-07
1.19653e-07
9.43378e-08
7.41202e-08
5.80237e-08
4.52503e-08
3.5149e-08
2.719e-08
2.09428e-08
1.60589e-08
1.22566e-08
9.30935e-09
7.03511e-09
5.28848e-09
3.95363e-09
2.93868e-09
2.17107e-09
1.59376e-09
1.16208e-09
8.41279e-10
6.04403e-10
4.30681e-10
3.04201e-10
2.1281e-10
1.47338e-10
1.00822e-10
6.81338e-11
4.53523e-11
2.97436e-11
1.9284e-11
1.2351e-11
7.80806e-12
4.86646e-12
2.986e-12
1.80078e-12
1.06551e-12
6.17425e-13
3.4971e-13
1.93237e-13
1.03969e-13
5.4377e-14
2.76149e-14
1.3621e-14
6.54765e-15
3.09944e-15
1.48138e-15
7.51752e-16
4.35996e-16
3.04979e-16
2.52888e-16
2.33049e-16
2.25811e-16
2.23281e-16
2.22434e-16
2.22163e-16
2.22079e-16
2.22054e-16
2.22047e-16
2.22045e-16
2.22045e-16
2.22045e-16
2.22045e-16
2.22045e-16
2.22045e-16
2.22045e-16
2.22045e-16
2.22045e-16
2.22045e-16
2.22045e-16
2.22045e-16
2.22045e-16
2.22045e-16
2.22045e-16
2.22045e-16
2.22045e-16
2.22045e-16
2.22045e-16
2.22045e-16
2.22045e-16
2.22045e-16
2.22045e-16
2.22045e-16
2.22045e-16
2.22045e-16
2.22045e-16
2.22045e-16
2.22045e-16
2.22045e-16
2.22045e-16
2.22045e-16
2.22045e-16
2.22045e-16
2.22045e-16
2.22048e-16
2.22434e-16
2.2414e-16
2.28398e-16
2.37118e-16
2.55393e-16
2.86138e-16
3.47885e-16
4.59295e-16
6.85798e-16
1.16927e-15
2.25748e-15
4.807e-15
1.10112e-14
2.56643e-14
6.1393e-14
1.35088e-13
4.03356e-13
5.83037e-13
1.02666e-12
1.21115e-12
1.32625e-12
1.69067e-12
1.52922e-06
1.20281e-06
2.05719e-06
3.29675e-06
3.87958e-06
5.09621e-06
7.71731e-06
1.29546e-05
2.31787e-05
4.20496e-05
7.46483e-05
0.000126901
0.000204081
0.000308406
0.000436482
0.000578604
0.000720945
0.000846057
0.000935102
0.000986304
0.00100763
0.000981025
0.000929786
0.000797168
0.000705943
0.00062141
0.000501025
0.000424322
0.000345559
0.000281175
0.000227331
0.000183205
0.00014573
0.000115115
9.08461e-05
7.18694e-05
5.71488e-05
4.56093e-05
3.66652e-05
2.96746e-05
2.41015e-05
1.96217e-05
1.59999e-05
1.30585e-05
1.06607e-05
8.70115e-06
7.09774e-06
5.78517e-06
4.71069e-06
3.83194e-06
3.11486e-06
2.52729e-06
2.04572e-06
1.65263e-06
1.33315e-06
1.07409e-06
8.64259e-07
6.94456e-07
5.57157e-07
4.4624e-07
3.5673e-07
2.84583e-07
2.26513e-07
1.79849e-07
1.42419e-07
1.12459e-07
8.8533e-08
6.94733e-08
5.43319e-08
4.23387e-08
3.28691e-08
2.54172e-08
1.95739e-08
1.50092e-08
1.14574e-08
8.7051e-09
6.5816e-09
4.95065e-09
3.70392e-09
2.7556e-09
2.03799e-09
1.4979e-09
1.09371e-09
7.93022e-10
5.70735e-10
4.07501e-10
2.88462e-10
2.02314e-10
1.40454e-10
9.64429e-11
6.5385e-11
4.37524e-11
2.8777e-11
1.87158e-11
1.20281e-11
7.63247e-12
4.77687e-12
2.94472e-12
1.78523e-12
1.0626e-12
6.19866e-13
3.53751e-13
1.97138e-13
1.07091e-13
5.66209e-14
2.91078e-14
1.45529e-14
7.09676e-15
3.40559e-15
1.64305e-15
8.3264e-16
4.74351e-16
3.22223e-16
2.60244e-16
2.36029e-16
2.26959e-16
2.23703e-16
2.22582e-16
2.22212e-16
2.22095e-16
2.22059e-16
2.22049e-16
2.22046e-16
2.22045e-16
2.22045e-16
2.22045e-16
2.22045e-16
2.22045e-16
2.22045e-16
2.22045e-16
2.22045e-16
2.22045e-16
2.22045e-16
2.22045e-16
2.22045e-16
2.22045e-16
2.22045e-16
2.22045e-16
2.22045e-16
2.22045e-16
2.22045e-16
2.22045e-16
2.22045e-16
2.22045e-16
2.22045e-16
2.22045e-16
2.22045e-16
2.22045e-16
2.22045e-16
2.22045e-16
2.22045e-16
2.22045e-16
2.22045e-16
2.22045e-16
2.22045e-16
2.22045e-16
2.22045e-16
2.22045e-16
2.22079e-16
2.22902e-16
2.256e-16
2.31787e-16
2.43915e-16
2.69116e-16
3.12454e-16
3.96779e-16
5.54786e-16
8.80263e-16
1.58003e-15
3.13218e-15
6.69787e-15
1.4504e-14
3.5225e-14
6.52122e-14
1.76237e-13
2.01904e-13
2.1756e-13
2.6599e-13
3.07277e-13
4.33598e-13
1.71717e-06
1.34642e-06
2.27478e-06
3.74257e-06
4.88337e-06
7.82471e-06
1.46013e-05
2.91465e-05
5.83849e-05
0.000112383
0.000203604
0.000344009
0.000540129
0.000787595
0.00106824
0.00135336
0.00161025
0.0018177
0.00192943
0.00197118
0.00193947
0.00183977
0.00162764
0.00130878
0.00113353
0.000933985
0.000705249
0.000571739
0.000441591
0.000345505
0.000266853
0.000205203
0.000158517
0.000122359
9.46183e-05
7.38482e-05
5.80045e-05
4.57413e-05
3.6172e-05
2.86649e-05
2.28351e-05
1.83158e-05
1.47895e-05
1.201e-05
9.79424e-06
8.00708e-06
6.55252e-06
5.36122e-06
4.38149e-06
3.57351e-06
2.90693e-06
2.35936e-06
1.91134e-06
1.54567e-06
1.24772e-06
1.00537e-06
8.08611e-07
6.49167e-07
5.20194e-07
4.16049e-07
3.32094e-07
2.64526e-07
2.10238e-07
1.66697e-07
1.31842e-07
1.03994e-07
8.1795e-08
6.41396e-08
5.01338e-08
3.90535e-08
3.03135e-08
2.34411e-08
1.80553e-08
1.38494e-08
1.05773e-08
8.04163e-09
6.08485e-09
4.58134e-09
3.43138e-09
2.55603e-09
1.89305e-09
1.39356e-09
1.0193e-09
7.40506e-10
5.34085e-10
3.82242e-10
2.71298e-10
1.90841e-10
1.32924e-10
9.16184e-11
6.23743e-11
4.19449e-11
2.77328e-11
1.81071e-11
1.16835e-11
7.44525e-12
4.68184e-12
2.90199e-12
1.77049e-12
1.06144e-12
6.24234e-13
3.59492e-13
2.02398e-13
1.11242e-13
5.96197e-14
3.1139e-14
1.58557e-14
7.89061e-15
3.86516e-15
1.89552e-15
9.64106e-16
5.39187e-16
3.52501e-16
2.73637e-16
2.41644e-16
2.29193e-16
2.24547e-16
2.22885e-16
2.22316e-16
2.22129e-16
2.2207e-16
2.22052e-16
2.22047e-16