/*--------------------------------*- C++ -*----------------------------------*\
  =========                 |
  \\      /  F ield         | OpenFOAM: The Open Source CFD Toolbox
   \\    /   O peration     | Website:  https://openfoam.org
    \\  /    A nd           | Version:  7
     \\/     M anipulation  |
\*---------------------------------------------------------------------------*/
FoamFile
{
    version     2.0;
    format      ascii;
    class       volScalarField;
    location    "0.009";
    object      nut;
}
// * * * * * * * * * * * * * * * * * * * * * * * * * * * * * * * * * * * * * //

dimensions      [0 2 -1 0 0 0 0];

internalField   nonuniform List<scalar> 
12225
(
0
0
0
0
0
0
0
0
0
0
0
0
0
0
0
0
0
2.45437e-09
0
0
0
0
0
0
0
0
0
0
0
0
0
0
0
0
0
8.34811e-10
0
3.3562e-10
8.13038e-11
4.08474e-10
7.9514e-10
2.92591e-10
0
0
0
0
0
0
0
0
0
0
0
4.55964e-10
2.18836e-08
1.38354e-08
9.21402e-09
5.33348e-09
3.06909e-09
6.37308e-10
0
0
0
0
0
0
0
1.02896e-10
0
3.52377e-10
0
1.56835e-09
1.1838e-07
2.82284e-07
6.9438e-08
0
0
0
0
0
0
0
0
1.50874e-09
2.74117e-09
3.87646e-09
3.01505e-09
3.12195e-09
3.96104e-09
2.3477e-09
2.95026e-07
3.8057e-07
2.82961e-07
0
0
1.50908e-09
3.01529e-08
0
0
0
0
0
0
1.23456e-08
3.20746e-08
3.12769e-08
2.8127e-08
5.65297e-09
1.77004e-07
1.85897e-07
3.54878e-07
1.00865e-07
0
0
0
3.99102e-09
0
0
0
0
0
0
4.62109e-09
0
0
0
3.93654e-08
0
5.20966e-07
1.13844e-07
0
0
0
2.1873e-08
5.44796e-09
0
0
0
0
0
0
2.36826e-09
1.37631e-09
0
2.74186e-07
1.31451e-07
4.65171e-07
6.40615e-09
0
0
0
6.92462e-08
5.30258e-08
0
0
0
0
0
0
0
0
0
3.69951e-07
3.10347e-07
4.61432e-07
2.66162e-07
0
0
0
1.50524e-07
8.677e-08
0
0
0
0
0
0
0
0
0
3.1098e-07
2.23611e-07
3.93096e-07
4.55437e-07
4.80839e-07
0
0
0
0
0
0
0
0
0
0
0
0
0
3.84916e-07
3.11993e-07
3.2617e-07
5.08787e-07
7.41875e-07
6.47208e-08
0
0
0
0
0
0
0
0
0
0
0
0
2.19075e-07
7.73601e-08
8.3865e-08
6.28191e-07
7.40415e-07
5.12805e-08
0
0
0
0
0
0
0
0
0
0
0
0
0
0
3.12229e-07
6.79715e-07
4.53773e-07
1.13853e-07
0
0
0
1.04878e-07
1.11713e-07
0
0
0
0
1.56225e-07
3.29425e-07
3.86813e-07
0
0
1.38087e-08
2.45029e-07
0
0
0
0
2.91871e-07
3.18655e-07
1.93902e-07
2.37282e-08
0
0
0
3.40086e-07
6.37707e-07
4.95826e-07
0
7.53302e-08
0
0
0
0
0
0
3.14074e-07
6.10192e-07
5.04759e-07
2.64766e-07
0
0
0
0
2.15052e-07
2.93769e-07
0
0
0
0
0
0
0
0
0
6.47613e-07
1.97021e-06
1.63213e-06
8.44396e-07
6.72062e-08
0
0
4.44266e-07
4.15516e-07
0
0
0
0
0
0
0
2.42956e-07
4.85576e-07
6.14079e-07
6.4365e-07
3.60576e-07
0
0
0
0
0
0
0
0
0
2.15628e-07
4.58736e-07
2.55277e-07
0
2.48265e-07
2.56281e-07
8.14251e-08
0
0
0
0
0
0
0
0
5.25544e-08
0
0
0
0
0
0
0
2.10938e-07
1.17035e-07
0
0
0
7.73491e-09
0
0
0
0
0
0
0
0
0
0
0
0
0
0
0
1.07324e-07
3.28493e-07
4.27361e-07
4.28276e-07
3.31487e-07
1.91684e-07
9.73564e-08
0
0
0
1.10345e-07
7.95867e-08
1.16951e-09
0
5.33444e-08
0
0
0
2.4022e-07
4.3065e-07
4.40632e-07
3.23119e-07
1.7922e-07
8.62512e-08
6.07866e-08
3.16729e-07
0
3.27888e-08
1.43805e-07
1.67247e-08
0
0
8.17531e-09
0
0
0
1.33813e-06
1.82739e-06
1.40227e-06
8.85135e-07
4.90306e-07
2.84876e-07
2.41402e-07
5.61645e-07
5.87063e-08
0
1.84099e-07
2.41119e-07
6.76283e-08
0
0
5.13474e-08
8.42517e-08
2.04207e-07
3.43128e-07
3.67577e-07
2.90085e-07
1.98506e-07
1.31813e-07
9.35972e-08
8.25399e-08
1.80527e-07
7.3421e-09
4.89823e-08
2.91177e-07
4.77934e-07
2.71205e-07
0
0
4.13594e-08
5.70956e-08
4.1155e-08
1.55769e-08
0
0
0
0
0
0
0
2.89822e-08
9.08752e-08
3.17266e-07
5.68194e-07
4.81148e-07
1.48876e-07
0
0
1.48128e-08
1.53662e-09
0
0
0
0
0
0
0
0
0
0
0
0
0
0
0
0
0
0
0
0
0
0
0
0
0
7.18489e-09
0
0
0
0
0
0
0
0
0
0
0
0
0
0
0
0
0
8.32614e-09
0
0
0
0
0
0
0
0
0
0
0
0
0
0
0
0
0
6.64887e-08
0
0
0
0
0
0
0
0
0
0
0
0
0
0
0
0
0
0
0
2.74124e-09
9.48159e-09
1.54435e-08
1.92518e-08
2.06494e-08
2.00205e-08
1.81396e-08
1.53513e-08
1.22387e-08
9.15893e-09
6.3727e-09
4.06748e-09
2.34162e-09
1.19985e-09
5.18697e-10
9.67907e-11
0
0
0
0
0
0
0
0
0
0
0
0
0
0
0
5.2962e-10
1.66088e-09
0
0
0
0
0
0
0
0
0
0
0
0
0
0
0
0
0
0
0
0
0
0
0
0
0
0
0
0
0
0
0
0
0
0
0
0
0
0
0
0
0
0
0
0
0
0
0
0
0
0
0
0
0
0
0
0
0
0
0
0
0
0
0
0
0
0
0
0
0
0
0
0
0
0
0
0
0
0
0
0
0
0
0
0
0
0
0
0
0
0
0
0
0
0
0
0
0
0
0
0
0
0
0
0
0
0
0
0
0
0
0
0
0
0
0
0
0
0
0
0
0
0
0
0
0
0
0
0
0
0
0
0
0
0
0
0
0
0
0
0
0
0
0
0
0
0
0
0
0
0
2.21713e-09
7.79581e-09
1.07732e-08
1.12213e-08
1.02494e-08
8.85216e-09
7.47268e-09
6.17896e-09
5.03535e-09
3.96164e-09
2.8946e-09
1.74562e-09
4.31862e-10
0
0
0
0
0
0
0
0
0
0
0
0
0
1.21717e-08
2.53675e-08
2.96054e-08
2.59712e-08
1.73377e-08
7.37115e-09
0
0
0
0
0
0
0
0
0
0
0
0
0
0
0
0
0
0
0
0
0
0
0
0
0
0
0
0
0
0
0
0
0
0
0
0
0
0
0
0
0
0
0
0
0
0
0
0
0
0
0
0
0
0
0
0
0
0
0
0
0
0
0
0
0
0
0
0
0
0
0
0
0
0
0
0
0
0
0
0
0
0
0
0
0
0
0
0
0
0
0
0
0
0
0
0
0
0
0
0
0
0
0
0
0
0
0
0
0
0
0
0
0
0
0
0
0
0
0
0
0
0
0
0
0
0
0
0
0
0
0
0
0
0
0
0
0
0
0
0
0
0
0
0
0
0
0
0
0
0
0
0
0
0
0
0
0
0
0
0
0
0
0
0
0
6.76547e-09
1.74778e-08
3.06516e-08
4.46201e-08
5.77898e-08
6.89112e-08
7.75507e-08
8.38482e-08
8.7592e-08
8.87304e-08
8.76647e-08
8.48895e-08
8.05078e-08
7.45584e-08
6.72796e-08
5.89286e-08
4.98014e-08
4.02472e-08
3.06752e-08
2.1546e-08
1.33501e-08
6.46496e-09
1.10034e-09
0
0
0
0
0
0
0
0
0
0
0
0
0
0
0
0
0
0
0
0
0
0
0
0
0
0
0
0
0
0
0
0
0
0
0
0
0
0
0
0
0
0
0
0
0
0
0
0
0
0
0
0
0
0
0
0
0
0
0
0
0
0
0
0
0
0
0
0
0
0
0
0
0
0
0
0
0
0
0
0
0
0
0
0
0
0
0
0
0
0
0
0
0
0
0
0
0
0
0
0
0
0
0
0
0
0
0
0
0
0
0
0
0
0
0
0
0
0
0
0
0
0
0
0
0
0
0
0
0
0
0
0
0
0
0
0
0
0
0
0
0
0
0
0
0
0
0
0
0
0
0
0
0
0
1.60377e-08
3.46207e-08
5.29741e-08
7.01525e-08
8.51946e-08
9.7604e-08
1.0756e-07
1.15123e-07
1.20114e-07
1.23067e-07
1.24134e-07
1.23538e-07
1.21463e-07
1.18212e-07
1.14195e-07
1.09571e-07
1.04304e-07
9.85523e-08
9.26062e-08
8.66134e-08
8.06651e-08
7.48295e-08
6.91586e-08
6.36914e-08
5.84551e-08
5.34677e-08
4.87396e-08
4.42763e-08
4.00781e-08
3.61407e-08
3.24574e-08
2.90237e-08
2.58378e-08
2.28874e-08
2.01572e-08
1.76376e-08
1.53194e-08
1.31916e-08
1.12442e-08
9.4691e-09
7.85883e-09
6.40846e-09
5.1128e-09
3.9679e-09
2.97089e-09
2.11831e-09
1.40841e-09
8.36295e-10
3.95025e-10
7.54223e-11
0
0
0
0
0
0
0
0
0
0
0
0
0
7.00734e-13
6.14709e-12
9.18022e-12
1.05269e-11
1.07468e-11
1.02577e-11
9.36096e-12
8.27019e-12
7.12591e-12
6.01677e-12
4.99781e-12
4.09534e-12
3.31445e-12
2.6559e-12
2.11203e-12
1.66384e-12
1.30055e-12
1.01464e-12
7.87591e-13
6.07549e-13
4.71206e-13
3.67912e-13
2.88666e-13
2.25902e-13
1.76084e-13
1.36962e-13
1.06127e-13
8.18535e-14
6.28943e-14
4.82397e-14
3.70289e-14
2.85252e-14
2.21165e-14
1.73037e-14
1.36959e-14
1.09862e-14
8.94633e-15
7.39807e-15
6.2146e-15
5.29923e-15
4.58001e-15
4.00918e-15
3.5484e-15
3.16949e-15
2.85503e-15
2.59069e-15
2.36388e-15
2.16712e-15
1.99593e-15
1.84572e-15
1.71197e-15
1.59178e-15
1.48371e-15
1.38685e-15
1.30005e-15
1.22205e-15
1.15159e-15
1.08767e-15
1.02946e-15
9.76328e-16
9.27725e-16
8.83134e-16
8.42047e-16
8.04016e-16
7.68617e-16
7.35398e-16
7.03859e-16
6.73515e-16
6.43836e-16
6.14253e-16
5.84092e-16
5.52557e-16
5.18692e-16
4.81358e-16
4.39161e-16
3.90392e-16
3.32948e-16
2.64167e-16
1.80699e-16
7.85132e-17
0
0
0
0
0
0
0
0
0
0
0
0
0
0
0
0
0
0
0
0
0
0
0
0
0
0
0
0
0
0
0
0
0
0
0
0
0
1.46777e-08
3.5742e-08
5.73297e-08
7.82614e-08
9.72135e-08
1.13224e-07
1.25925e-07
1.35162e-07
1.41316e-07
1.4425e-07
1.44625e-07
1.42764e-07
1.39197e-07
1.34351e-07
1.28572e-07
1.22141e-07
1.15232e-07
1.08055e-07
1.00816e-07
9.36618e-08
8.66887e-08
7.99662e-08
7.3542e-08
6.74467e-08
6.16979e-08
5.63024e-08
5.12598e-08
4.65651e-08
4.22095e-08
3.81795e-08
3.44566e-08
3.10185e-08
2.78447e-08
2.49295e-08
2.22666e-08
1.98407e-08
1.76362e-08
1.56387e-08
1.38312e-08
1.2202e-08
1.0738e-08
9.42309e-09
8.24427e-09
7.1901e-09
6.25006e-09
5.41425e-09
4.67345e-09
4.01896e-09
3.44266e-09
2.93691e-09
2.49472e-09
2.10955e-09
1.77533e-09
1.48649e-09
1.2379e-09
1.02488e-09
8.43176e-10
6.88917e-10
5.58623e-10
4.49164e-10
3.5774e-10
2.81856e-10
2.19296e-10
1.68106e-10
1.26564e-10
9.31697e-11
6.66155e-11
4.5764e-11
2.96389e-11
1.73964e-11
8.32897e-12
1.81795e-12
0
0
0
0
0
0
0
0
0
0
0
0
0
0
0
0
0
0
0
0
0
0
7.82922e-15
2.40014e-14
3.81933e-14
5.12251e-14
6.2403e-14
7.10617e-14
7.69954e-14
7.99093e-14
8.08348e-14
7.97878e-14
7.7185e-14
7.36625e-14
6.95772e-14
6.52241e-14
6.08353e-14
5.65629e-14
5.25108e-14
4.87378e-14
4.52732e-14
4.21159e-14
3.92563e-14
3.66765e-14
3.43582e-14
3.22766e-14
3.0407e-14
2.87238e-14
2.72037e-14
2.58262e-14
2.45723e-14
2.34269e-14
2.23757e-14
2.14072e-14
2.05094e-14
1.96745e-14
1.8891e-14
1.81469e-14
1.74412e-14
1.6735e-14
1.60641e-14
1.54017e-14
1.47199e-14
1.40038e-14
1.3236e-14
1.23971e-14
1.14663e-14
1.04197e-14
9.23155e-15
7.87133e-15
6.32182e-15
4.54476e-15
2.59008e-15
3.77411e-16
0
0
0
0
3.6108e-15
2.82346e-14
1.52491e-13
8.36815e-13
3.96929e-12
1.64202e-11
3.13161e-11
9.22741e-11
2.29295e-11
7.30288e-11
0
0
0
0
0
0
0
0
0
0
0
0
0
0
0
0
0
0
0
0
1.47727e-08
4.25104e-08
7.15955e-08
9.99573e-08
1.25602e-07
1.47042e-07
1.63832e-07
1.75454e-07
1.82042e-07
1.84318e-07
1.82888e-07
1.78407e-07
1.71801e-07
1.63644e-07
1.54427e-07
1.44564e-07
1.3443e-07
1.24315e-07
1.14429e-07
1.0492e-07
9.58871e-08
8.73873e-08
7.94499e-08
7.20807e-08
6.52717e-08
5.90031e-08
5.32478e-08
4.79765e-08
4.31587e-08
3.87628e-08
3.47593e-08
3.11225e-08
2.78211e-08
2.48251e-08
2.21106e-08
1.96541e-08
1.74295e-08
1.54173e-08
1.36098e-08
1.19867e-08
1.05294e-08
9.22444e-09
8.05866e-09
7.01975e-09
6.09618e-09
5.27725e-09
4.55306e-09
3.91445e-09
3.35297e-09
2.86083e-09
2.43088e-09
2.05654e-09
1.73179e-09
1.4511e-09
1.20948e-09
1.00234e-09
8.25549e-10
6.75371e-10
5.48434e-10
4.41714e-10
3.52505e-10
2.78398e-10
2.17252e-10
1.67178e-10
1.26509e-10
9.379e-11
6.77472e-11
4.72754e-11
3.14134e-11
1.93448e-11
1.03635e-11
3.87497e-12
0
0
0
0
0
0
0
0
0
0
0
0
0
0
0
0
0
0
0
0
0
0
0
0
0
0
0
0
0
0
0
0
0
0
0
0
0
0
0
0
0
0
0
0
0
0
0
0
0
0
0
0
0
0
0
0
0
0
0
0
0
0
0
0
0
0
1.35168e-13
2.75446e-13
3.84185e-13
4.73396e-13
5.53514e-13
6.3619e-13
7.36377e-13
8.82163e-13
1.09627e-12
1.4795e-12
2.06163e-12
3.1615e-12
4.74229e-12
7.86093e-12
1.17128e-11
1.99078e-11
2.65962e-11
4.43475e-11
4.20387e-11
8.52022e-11
1.24842e-11
4.12144e-11
0
0
0
0
0
0
0
0
0
0
0
0
0
0
0
0
0
0
0
0
1.50589e-08
5.51139e-08
9.72156e-08
1.37282e-07
1.72514e-07
2.01959e-07
2.22905e-07
2.35943e-07
2.41883e-07
2.4155e-07
2.36088e-07
2.26814e-07
2.14951e-07
2.01415e-07
1.8713e-07
1.72474e-07
1.58009e-07
1.44042e-07
1.30744e-07
1.18252e-07
1.06636e-07
9.59437e-08
8.61765e-08
7.72911e-08
6.92382e-08
6.1961e-08
5.53977e-08
4.94876e-08
4.4172e-08
3.93925e-08
3.50936e-08
3.12362e-08
2.77662e-08
2.46452e-08
2.18414e-08
1.93194e-08
1.70616e-08
1.50496e-08
1.325e-08
1.16405e-08
1.02035e-08
8.92252e-09
7.78258e-09
6.77005e-09
5.87253e-09
5.07871e-09
4.37827e-09
3.76178e-09
3.22065e-09
2.74703e-09
2.33374e-09
1.97426e-09
1.66265e-09
1.39349e-09
1.16189e-09
9.63395e-10
7.94007e-10
6.50108e-10
5.28455e-10
4.26141e-10
3.40571e-10
2.69438e-10
2.10695e-10
1.62538e-10
1.23376e-10
9.18208e-11
6.66576e-11
4.68338e-11
3.14304e-11
1.96732e-11
1.08828e-11
4.49835e-12
2.56318e-14
0
0
0
0
0
0
0
0
0
0
0
0
0
0
0
0
0
0
0
0
0
0
0
0
0
0
0
0
0
0
0
0
0
0
0
0
0
0
0
0
0
0
0
0
0
0
0
0
0
0
0
0
0
0
0
0
0
0
0
0
0
0
0
0
0
8.979e-14
2.33464e-13
3.40527e-13
4.22374e-13
4.9135e-13
5.60104e-13
6.42972e-13
7.60867e-13
9.33203e-13
1.23827e-12
1.69912e-12
2.55687e-12
3.77595e-12
6.13504e-12
8.94567e-12
1.48048e-11
1.895e-11
3.10738e-11
2.65434e-11
4.88949e-11
1.82196e-12
4.04298e-12
0
0
0
0
0
0
0
0
0
0
0
0
0
0
0
0
0
0
0
0
1.2614e-08
7.44918e-08
1.37551e-07
1.96191e-07
2.45537e-07
2.83951e-07
3.09311e-07
3.21756e-07
3.24518e-07
3.18007e-07
3.04914e-07
2.87625e-07
2.67598e-07
2.46329e-07
2.25178e-07
2.04215e-07
1.84593e-07
1.66044e-07
1.48774e-07
1.32826e-07
1.18219e-07
1.05026e-07
9.31863e-08
8.26134e-08
7.3196e-08
6.48231e-08
5.73892e-08
5.07925e-08
4.4939e-08
3.97477e-08
3.51436e-08
3.10504e-08
2.74177e-08
2.4195e-08
2.13355e-08
1.88093e-08
1.65695e-08
1.45727e-08
1.27943e-08
1.12124e-08
9.80706e-09
8.55981e-09
7.45427e-09
6.47572e-09
5.61098e-09
4.84818e-09
4.17665e-09
3.58675e-09
3.06981e-09
2.61797e-09
2.22412e-09
1.88184e-09
1.58532e-09
1.32931e-09
1.10906e-09
9.2032e-10
7.59231e-10
6.22345e-10
5.06568e-10
4.09136e-10
3.27586e-10
2.5973e-10
2.0363e-10
1.57575e-10
1.20063e-10
8.97798e-11
6.55763e-11
4.64565e-11
3.15521e-11
2.01286e-11
1.15447e-11
5.2656e-12
8.24481e-13
0
0
0
0
0
0
0
0
0
0
0
0
0
0
0
0
0
0
0
0
0
0
0
0
0
0
0
0
0
0
0
0
0
0
0
0
0
0
0
0
0
0
0
0
0
0
0
0
0
0
0
0
0
0
0
0
0
0
0
0
0
0
0
0
0
2.06108e-14
1.47691e-13
2.48412e-13
3.27781e-13
3.93429e-13
4.57149e-13
5.26321e-13
6.21115e-13
7.52998e-13
9.78215e-13
1.31611e-12
1.92659e-12
2.78371e-12
4.384e-12
6.20221e-12
9.81278e-12
1.19071e-11
1.91871e-11
1.4019e-11
1.88887e-11
0
0
0
0
0
0
0
0
0
0
0
0
0
0
0
0
0
0
0
0
0
0
1.9409e-09
1.00744e-07
1.97348e-07
2.8401e-07
3.46849e-07
3.95079e-07
4.23207e-07
4.28517e-07
4.24032e-07
4.05823e-07
3.80392e-07
3.51417e-07
3.20449e-07
2.89428e-07
2.59865e-07
2.31469e-07
2.04146e-07
1.7954e-07
1.5785e-07
1.38722e-07
1.21981e-07
1.07336e-07
9.45023e-08
8.32382e-08
7.33369e-08
6.46216e-08
5.6944e-08
5.01754e-08
4.42044e-08
3.89365e-08
3.42922e-08
3.01915e-08
2.6582e-08
2.3405e-08
2.05986e-08
1.81067e-08
1.58948e-08
1.39358e-08
1.22022e-08
1.06687e-08
9.31273e-09
8.11442e-09
7.05621e-09
6.12263e-09
5.29997e-09
4.57609e-09
3.94016e-09
3.38254e-09
2.8946e-09
2.46861e-09
2.09764e-09
1.77546e-09
1.49648e-09
1.25568e-09
1.04853e-09
8.70986e-10
7.19407e-10
5.90538e-10
4.81469e-10
3.89605e-10
3.12637e-10
2.48515e-10
1.95426e-10
1.51771e-10
1.16145e-10
8.73176e-11
6.42176e-11
4.59111e-11
3.15879e-11
2.05572e-11
1.2222e-11
6.07506e-12
1.68265e-12
0
0
0
0
0
0
0
0
0
0
0
0
0
0
0
0
0
0
0
0
0
0
0
0
0
0
0
0
0
0
0
0
0
0
0
0
0
0
0
0
0
0
0
0
0
0
0
0
0
0
0
0
0
0
0
0
0
0
0
0
0
0
0
0
0
0
6.99694e-14
1.61924e-13
2.36145e-13
2.9715e-13
3.53611e-13
4.0963e-13
4.82793e-13
5.77242e-13
7.3059e-13
9.58023e-13
1.35227e-12
1.89672e-12
2.8574e-12
3.8808e-12
5.74912e-12
6.45066e-12
9.65956e-12
5.24061e-12
3.0783e-12
0
0
0
0
0
0
0
0
0
0
0
0
0
0
0
0
0
0
0
0
0
0
0
1.41106e-07
2.86775e-07
4.08559e-07
4.81589e-07
5.33695e-07
5.60529e-07
5.43844e-07
5.26895e-07
4.90242e-07
4.48798e-07
4.04818e-07
3.61332e-07
3.18774e-07
2.79115e-07
2.42394e-07
2.09603e-07
1.81572e-07
1.57568e-07
1.37189e-07
1.19836e-07
1.04879e-07
9.193e-08
8.0681e-08
7.08783e-08
6.23099e-08
5.48017e-08
4.82099e-08
4.24144e-08
3.7313e-08
3.28202e-08
2.88657e-08
2.53688e-08
2.22713e-08
1.95327e-08
1.7117e-08
1.49881e-08
1.31119e-08
1.14585e-08
1.00014e-08
8.71728e-09
7.58604e-09
6.58989e-09
5.7133e-09
4.94259e-09
4.26574e-09
3.67211e-09
3.15229e-09
2.69793e-09
2.30159e-09
1.95665e-09
1.65719e-09
1.39792e-09
1.17412e-09
9.81558e-10
8.1644e-10
6.75385e-10
5.55371e-10
4.53699e-10
3.67968e-10
2.96043e-10
2.36031e-10
1.86258e-10
1.45247e-10
1.11702e-10
8.44859e-11
6.26104e-11
4.52105e-11
3.1539e-11
2.09532e-11
1.29045e-11
6.91554e-12
2.59007e-12
0
0
0
0
0
0
0
0
0
0
0
0
0
0
0
0
0
0
0
0
0
0
0
0
0
0
0
0
0
0
0
0
0
0
0
0
0
0
0
0
0
0
0
0
0
0
0
0
0
0
0
0
0
0
0
0
0
0
0
0
0
0
0
0
0
0
0
8.04428e-14
1.47648e-13
2.02757e-13
2.50155e-13
2.96099e-13
3.46263e-13
4.10529e-13
5.02877e-13
6.37062e-13
8.56331e-13
1.14919e-12
1.62662e-12
2.07054e-12
2.91952e-12
2.73144e-12
3.25068e-12
4.10951e-13
0
0
0
0
0
0
0
0
0
0
0
0
0
0
0
0
0
0
0
0
0
0
0
0
2.19652e-07
4.41182e-07
6.03403e-07
6.81493e-07
7.37438e-07
7.39058e-07
6.8407e-07
6.39075e-07
5.71422e-07
5.07107e-07
4.42527e-07
3.82564e-07
3.30239e-07
2.83744e-07
2.42244e-07
2.06832e-07
1.77162e-07
1.52182e-07
1.3097e-07
1.12894e-07
9.76353e-08
8.47927e-08
7.39441e-08
6.47172e-08
5.68043e-08
4.9957e-08
4.39868e-08
3.87511e-08
3.41383e-08
3.00586e-08
2.64425e-08
2.32422e-08
2.04143e-08
1.79165e-08
1.57102e-08
1.37617e-08
1.20414e-08
1.05234e-08
9.1845e-09
8.00438e-09
6.96484e-09
6.0498e-09
5.24502e-09
4.53787e-09
3.91722e-09
3.37318e-09
2.89699e-09
2.4809e-09
2.11801e-09
1.80218e-09
1.52795e-09
1.29046e-09
1.08534e-09
9.08741e-10
7.57185e-10
6.27586e-10
5.17188e-10
4.23536e-10
3.44447e-10
2.77978e-10
2.22411e-10
1.76224e-10
1.38074e-10
1.06783e-10
8.13157e-11
6.07715e-11
4.43612e-11
3.14032e-11
2.13093e-11
1.35787e-11
7.7721e-12
3.52804e-12
5.30725e-13
0
0
0
0
0
0
0
0
0
0
0
0
0
0
0
0
0
0
0
0
0
0
0
0
0
0
0
0
0
0
0
0
0
0
0
0
0
0
0
0
0
0
0
0
0
0
0
0
0
0
0
0
0
0
0
0
0
0
0
0
0
0
0
0
0
0
4.78675e-17
5.97566e-14
1.08712e-13
1.48969e-13
1.84002e-13
2.18147e-13
2.55821e-13
3.03933e-13
3.67026e-13
4.6009e-13
5.74073e-13
7.35313e-13
8.35403e-13
9.55463e-13
5.88386e-13
1.20054e-13
0
0
0
0
0
0
0
0
0
0
0
0
0
0
0
0
0
0
0
0
0
0
0
0
8.97771e-10
3.78902e-07
7.01492e-07
8.99851e-07
9.95528e-07
1.04556e-06
9.66522e-07
8.93858e-07
7.80554e-07
6.64989e-07
5.60848e-07
4.71276e-07
3.93301e-07
3.31585e-07
2.79112e-07
2.34166e-07
1.95873e-07
1.6362e-07
1.36857e-07
1.14849e-07
9.67194e-08
8.18506e-08
6.97968e-08
6.00493e-08
5.21334e-08
4.56449e-08
4.02507e-08
3.56762e-08
3.1702e-08
2.81738e-08
2.50458e-08
2.22626e-08
1.97707e-08
1.75306e-08
1.55148e-08
1.37036e-08
1.20793e-08
1.06258e-08
9.32791e-09
8.17173e-09
7.14415e-09
6.23279e-09
5.42612e-09
4.71345e-09
4.08499e-09
3.5318e-09
3.04575e-09
2.61951e-09
2.24645e-09
1.92063e-09
1.63669e-09
1.38985e-09
1.17582e-09
9.90736e-10
8.31173e-10
6.9405e-10
5.76618e-10
4.76422e-10
3.91275e-10
3.19229e-10
2.58551e-10
2.07707e-10
1.65337e-10
1.30242e-10
1.01364e-10
7.77772e-11
5.86719e-11
4.33387e-11
3.11617e-11
2.16138e-11
1.42399e-11
8.64674e-12
4.5019e-12
1.52449e-12
0
0
0
0
0
0
0
0
0
0
0
0
0
0
0
0
0
0
0
0
0
0
0
0
0
0
0
0
0
0
0
0
0
0
0
0
0
0
0
0
0
0
0
0
0
0
0
0
0
0
0
0
0
0
0
0
0
0
0
0
0
0
0
0
0
0
0
0
3.02924e-14
6.23747e-14
8.83466e-14
1.08758e-13
1.28237e-13
1.44404e-13
1.65353e-13
1.81827e-13
2.01086e-13
1.98443e-13
1.47665e-13
5.25809e-14
0
0
0
0
0
0
0
0
0
0
0
0
0
0
0
0
0
0
0
0
0
0
0
0
0
0
0
4.1091e-07
8.31475e-07
1.1118e-06
1.25879e-06
1.20782e-06
1.127e-06
1.06015e-06
8.92373e-07
7.39426e-07
5.91453e-07
4.7506e-07
3.86782e-07
3.13077e-07
2.52265e-07
2.04299e-07
1.67781e-07
1.38718e-07
1.14979e-07
9.5446e-08
7.95857e-08
6.66867e-08
5.6042e-08
4.72593e-08
4.00562e-08
3.41866e-08
2.94309e-08
2.55983e-08
2.25306e-08
2.00974e-08
1.80877e-08
1.63612e-08
1.48303e-08
1.34346e-08
1.21304e-08
1.09037e-08
9.76795e-09
8.71995e-09
7.75588e-09
6.87297e-09
6.06887e-09
5.34078e-09
4.68482e-09
4.09639e-09
3.57065e-09
3.10269e-09
2.68762e-09
2.32072e-09
1.99741e-09
1.7134e-09
1.46466e-09
1.24748e-09
1.05843e-09
8.94391e-10
7.52521e-10
6.30241e-10
5.25225e-10
4.35375e-10
3.58809e-10
2.93842e-10
2.38969e-10
1.92852e-10
1.54298e-10
1.22256e-10
9.57942e-11
7.40938e-11
5.64365e-11
4.21919e-11
3.08104e-11
2.18211e-11
1.48175e-11
9.45132e-12
5.42181e-12
2.47834e-12
4.00012e-13
0
0
0
0
0
0
0
0
0
0
0
0
0
0
0
0
0
0
0
0
0
0
0
0
0
0
0
0
0
0
0
0
0
0
0
0
0
0
0
0
0
0
0
0
0
0
0
0
0
0
0
0
0
0
0
0
0
0
0
0
0
0
0
0
0
0
0
0
0
0
0
9.12462e-15
1.27069e-14
1.27909e-14
4.14561e-15
0
0
0
0
0
0
0
0
0
0
0
0
0
0
0
0
0
0
0
0
0
0
0
0
0
0
7.61279e-08
7.61243e-07
6.82718e-07
0
0
0
0
9.74227e-07
1.37641e-06
1.19299e-06
1.0024e-06
9.11683e-07
8.27692e-07
6.94627e-07
5.49983e-07
4.32053e-07
3.43128e-07
2.72469e-07
2.15439e-07
1.70229e-07
1.36015e-07
1.11332e-07
9.30968e-08
7.86048e-08
6.62336e-08
5.56166e-08
4.66323e-08
3.90761e-08
3.27657e-08
2.75367e-08
2.32386e-08
1.9732e-08
1.68877e-08
1.45684e-08
1.26784e-08
1.11421e-08
9.89347e-09
8.87897e-09
8.06313e-09
7.38886e-09
6.78686e-09
6.22877e-09
5.69826e-09
5.18527e-09
4.68535e-09
4.20548e-09
3.75517e-09
3.3366e-09
2.95045e-09
2.59678e-09
2.27512e-09
1.98456e-09
1.72375e-09
1.49101e-09
1.28436e-09
1.10172e-09
9.41021e-10
8.00239e-10
6.77429e-10
5.7075e-10
4.78476e-10
3.99005e-10
3.30862e-10
2.72697e-10
2.23284e-10
1.81517e-10
1.46399e-10
1.17039e-10
9.26434e-11
7.25058e-11
5.60031e-11
4.25822e-11
3.17608e-11
2.31218e-11
1.63061e-11
1.10029e-11
6.95002e-12
3.91566e-12
1.71025e-12
1.59511e-13
0
0
0
0
0
0
0
0
0
0
0
0
0
0
0
0
0
0
0
0
0
0
0
0
0
0
0
0
0
0
0
0
0
0
0
0
0
0
0
0
0
0
0
0
0
0
0
0
0
0
0
0
0
0
0
0
0
0
0
0
0
0
0
0
0
0
0
0
0
0
0
0
0
0
0
0
0
0
0
0
0
0
0
0
0
0
0
0
0
0
0
0
0
0
0
0
0
0
6.99901e-07
3.73311e-06
8.6035e-06
1.25895e-05
9.48831e-06
0
0
0
0
0
1.35061e-06
1.48734e-06
7.58546e-07
4.35102e-07
4.82583e-07
4.92442e-07
4.16699e-07
3.31383e-07
2.63423e-07
2.10439e-07
1.6951e-07
1.36628e-07
1.09152e-07
8.67435e-08
6.94137e-08
5.6631e-08
4.75226e-08
4.06017e-08
3.48531e-08
2.98803e-08
2.55425e-08
2.17346e-08
1.84529e-08
1.56553e-08
1.32894e-08
1.13053e-08
9.65434e-09
8.29132e-09
7.17415e-09
6.26101e-09
5.50658e-09
4.88044e-09
4.35902e-09
3.92437e-09
3.5633e-09
3.26227e-09
3.00871e-09
2.78166e-09
2.5636e-09
2.35086e-09
2.14307e-09
1.9409e-09
1.74538e-09
1.55777e-09
1.37988e-09
1.21486e-09
1.06377e-09
9.26565e-10
8.02857e-10
6.92049e-10
5.93416e-10
5.06145e-10
4.29377e-10
3.62228e-10
3.0382e-10
2.53295e-10
2.09833e-10
1.72657e-10
1.41042e-10
1.14315e-10
9.186e-11
7.31164e-11
5.75766e-11
4.47813e-11
3.43226e-11
2.5846e-11
1.90416e-11
1.36427e-11
9.41779e-12
6.16457e-12
3.70999e-12
1.89986e-12
6.05478e-13
0
0
0
0
0
0
0
0
0
0
0
0
0
0
0
0
0
0
0
0
0
0
0
0
0
0
0
0
0
0
0
0
0
0
0
0
0
0
0
0
0
0
0
0
0
0
0
0
0
0
0
0
0
0
0
0
0
0
0
0
0
0
0
0
0
0
0
0
0
0
0
0
0
0
0
0
0
0
0
0
0
0
0
0
0
0
0
0
0
0
0
0
0
0
0
0
4.4636e-07
3.41865e-06
1.16572e-05
2.94962e-05
5.74025e-05
5.48446e-05
0
0
0
0
0
0
6.58621e-07
5.03683e-07
0
0
2.13123e-07
2.61571e-07
2.11052e-07
1.64941e-07
1.36468e-07
1.17317e-07
1.00542e-07
8.35166e-08
6.75346e-08
5.36963e-08
4.25358e-08
3.40404e-08
2.78389e-08
2.33457e-08
1.99078e-08
1.71481e-08
1.48884e-08
1.29363e-08
1.12215e-08
9.71239e-09
8.38691e-09
7.22642e-09
6.21462e-09
5.33767e-09
4.58421e-09
3.94518e-09
3.40978e-09
2.96619e-09
2.60008e-09
2.29527e-09
2.04049e-09
1.82604e-09
1.64359e-09
1.48634e-09
1.34892e-09
1.22733e-09
1.1186e-09
1.0206e-09
9.31645e-10
8.49585e-10
7.7083e-10
6.94779e-10
6.22003e-10
5.53104e-10
4.88551e-10
4.28661e-10
3.73608e-10
3.23444e-10
2.78117e-10
2.37488e-10
2.01355e-10
1.69471e-10
1.41551e-10
1.17291e-10
9.63732e-11
7.84793e-11
6.32955e-11
5.05198e-11
3.98567e-11
3.10239e-11
2.3769e-11
1.78671e-11
1.31181e-11
9.34758e-12
6.40077e-12
4.13677e-12
2.43116e-12
1.18225e-12
2.94909e-13
0
0
0
0
0
0
0
0
0
0
0
0
0
0
0
0
0
0
0
0
0
0
0
0
0
0
0
0
0
0
0
0
0
0
0
0
0
0
0
0
0
0
0
0
0
0
0
0
0
0
0
0
0
0
0
0
0
0
0
0
0
0
0
0
0
0
0
0
0
0
0
0
0
0
0
0
0
0
0
0
0
0
0
0
0
5.54717e-10
3.16252e-08
2.61963e-08
9.07356e-09
0
0
0
0
0
0
0
0
0
0
0
0
0
0
0
0
0
0
0
1.7193e-07
0
0
1.10271e-08
1.29285e-07
1.06674e-07
7.62813e-08
6.34382e-08
6.00908e-08
5.70757e-08
5.13691e-08
4.35907e-08
3.5557e-08
2.8401e-08
2.24939e-08
1.7912e-08
1.45674e-08
1.22026e-08
1.03941e-08
8.92852e-09
7.71035e-09
6.66862e-09
5.76525e-09
4.97929e-09
4.29741e-09
3.70823e-09
3.20017e-09
2.76128e-09
2.37919e-09
2.04547e-09
1.75488e-09
1.50398e-09
1.29058e-09
1.11139e-09
9.62037e-10
8.37919e-10
7.34636e-10
6.48169e-10
5.75022e-10
5.12309e-10
4.57729e-10
4.09503e-10
3.66324e-10
3.27271e-10
2.91709e-10
2.59199e-10
2.29437e-10
2.02202e-10
1.77333e-10
1.547e-10
1.34191e-10
1.15695e-10
9.91026e-11
8.43009e-11
7.11761e-11
5.96107e-11
4.94861e-11
4.06834e-11
3.3085e-11
2.6576e-11
2.10397e-11
1.63701e-11
1.24736e-11
9.26137e-12
6.65129e-12
4.56445e-12
2.92914e-12
1.67839e-12
7.49977e-13
8.23145e-14
0
0
0
0
0
0
0
0
0
0
0
0
0
0
0
0
0
0
0
0
0
0
0
0
0
0
0
0
0
0
0
0
0
0
0
0
0
0
0
0
0
0
0
0
0
0
0
0
0
0
0
0
0
0
0
0
0
0
0
0
0
0
0
0
0
0
0
0
0
0
0
0
0
0
0
0
0
0
0
0
0
0
0
0
0
0
0
7.43027e-09
8.24757e-08
1.17154e-07
1.44557e-07
1.74392e-07
1.94096e-07
2.00259e-07
1.90229e-07
8.47108e-08
0
0
0
0
0
0
0
0
0
0
0
0
9.98979e-07
1.61791e-06
6.44008e-07
0
0
0
6.02927e-08
3.4827e-08
1.56579e-08
1.14968e-08
1.53823e-08
2.08817e-08
2.36699e-08
2.28908e-08
1.99472e-08
1.64352e-08
1.32536e-08
1.06488e-08
8.57778e-09
7.0202e-09
5.92417e-09
5.08368e-09
4.38673e-09
3.79937e-09
3.29381e-09
2.85198e-09
2.46372e-09
2.12333e-09
1.82659e-09
1.56912e-09
1.34599e-09
1.15214e-09
9.82684e-10
8.33421e-10
7.02761e-10
5.90291e-10
4.94889e-10
4.14705e-10
3.47937e-10
2.92805e-10
2.47496e-10
2.10302e-10
1.79708e-10
1.54406e-10
1.33289e-10
1.15445e-10
1.00151e-10
8.68716e-11
7.52147e-11
6.49004e-11
5.5726e-11
4.75504e-11
4.02695e-11
3.38037e-11
2.80886e-11
2.30695e-11
1.86964e-11
1.49178e-11
1.1686e-11
8.9496e-12
6.66326e-12
4.77966e-12
3.25207e-12
2.03345e-12
1.08198e-12
3.58651e-13
0
0
0
0
0
0
0
0
0
0
0
0
0
0
0
0
0
0
0
0
0
0
0
0
0
0
0
0
0
0
0
0
0
0
0
0
0
0
0
0
0
0
0
0
0
0
0
0
0
0
0
0
0
0
0
0
0
0
0
0
0
0
0
0
0
0
0
0
0
0
0
0
0
0
0
0
0
0
0
0
0
0
0
0
0
0
0
0
0
0
0
1.26926e-09
4.12729e-09
2.13163e-08
1.00795e-07
1.67624e-07
2.28051e-07
3.07398e-07
4.05191e-07
5.2009e-07
6.44033e-07
7.49906e-07
7.13963e-07
2.19845e-07
0
0
0
0
0
0
0
2.19814e-06
2.72798e-05
1.02119e-05
3.80035e-06
1.80081e-06
5.35832e-07
0
0
1.89209e-08
3.66057e-08
4.87626e-09
0
0
0
3.81547e-10
6.44815e-09
9.58135e-09
9.99869e-09
8.91597e-09
7.3887e-09
5.98397e-09
4.86935e-09
3.99883e-09
3.31889e-09
2.81831e-09
2.43018e-09
2.11049e-09
1.83795e-09
1.60046e-09
1.39029e-09
1.20315e-09
1.03694e-09
8.90385e-10
7.6211e-10
6.50339e-10
5.53009e-10
4.67829e-10
3.92615e-10
3.26431e-10
2.69218e-10
2.20246e-10
1.7895e-10
1.44591e-10
1.16349e-10
9.33362e-11
7.46948e-11
5.96781e-11
4.76441e-11
3.80433e-11
3.04072e-11
2.43156e-11
1.94298e-11
1.54908e-11
1.22855e-11
9.65747e-12
7.48129e-12
5.6715e-12
4.16883e-12
2.92828e-12
1.91504e-12
1.09944e-12
4.58182e-13
0
0
0
0
0
0
0
0
0
0
0
0
0
0
0
0
0
0
0
0
0
0
0
0
0
0
0
0
0
0
0
0
0
0
0
0
0
0
0
0
0
0
0
0
0
0
0
0
0
0
0
0
0
0
0
0
0
0
0
0
0
0
0
0
0
0
0
0
0
0
0
0
0
0
0
0
0
0
0
0
0
0
0
0
0
0
0
0
0
0
0
0
0
0
0
0
0
0
4.75774e-08
4.20464e-08
4.93707e-08
9.09156e-08
1.60081e-07
2.30154e-07
3.2732e-07
4.53756e-07
6.19233e-07
8.08197e-07
9.5915e-07
1.10149e-06
1.08983e-06
6.81623e-07
0
0
0
0
0
0
8.64007e-06
1.02188e-05
4.46131e-06
1.99121e-06
1.12887e-06
4.04702e-07
0
0
7.44376e-08
3.72091e-08
2.17927e-10
0
0
0
0
4.80138e-10
4.1554e-09
5.63747e-09
5.5624e-09
4.77587e-09
3.84347e-09
3.03814e-09
2.43099e-09
1.98693e-09
1.66083e-09
1.43156e-09
1.25377e-09
1.09923e-09
9.61119e-10
8.36099e-10
7.22874e-10
6.21146e-10
5.30837e-10
4.51597e-10
3.82672e-10
3.23012e-10
2.71425e-10
2.26664e-10
1.87395e-10
1.5267e-10
1.22491e-10
9.70928e-11
7.60588e-11
5.89243e-11
4.51751e-11
3.4243e-11
2.56165e-11
1.88564e-11
1.35969e-11
9.5585e-12
6.51612e-12
4.27548e-12
2.66348e-12
1.52605e-12
7.39687e-13
2.03843e-13
0
0
0
0
0
0
0
0
0
0
0
0
0
0
0
0
0
0
0
0
0
0
0
0
0
0
0
0
0
0
0
0
0
0
0
0
0
0
0
0
0
0
0
0
0
0
0
0
0
0
0
0
0
0
0
0
0
0
0
0
0
0
0
0
0
0
0
0
0
0
0
0
0
0
0
0
0
0
0
0
0
0
0
0
0
0
0
0
0
0
0
0
0
0
0
0
0
0
0
0
0
0
0
0
9.88762e-07
4.29938e-07
1.51058e-07
1.06063e-07
1.16989e-07
1.6127e-07
2.34176e-07
3.46448e-07
4.79428e-07
6.63043e-07
7.83713e-07
8.99172e-07
9.81883e-07
8.61255e-07
5.37591e-07
0
0
0
0
0
1.70465e-06
1.96599e-06
1.16524e-06
8.80212e-07
6.19308e-07
2.62634e-07
8.75366e-08
1.19701e-07
8.62831e-08
3.70044e-08
9.02359e-09
0
0
0
1.78549e-09
4.19957e-09
5.99084e-09
6.46082e-09
5.86653e-09
4.82787e-09
3.76352e-09
2.86026e-09
2.1686e-09
1.66578e-09
1.30319e-09
1.04496e-09
8.70704e-10
7.55639e-10
6.65157e-10
5.83387e-10
5.06002e-10
4.33092e-10
3.66418e-10
3.07403e-10
2.56405e-10
2.12911e-10
1.75997e-10
1.44677e-10
1.18053e-10
9.54127e-11
7.60641e-11
5.92369e-11
4.48463e-11
3.29161e-11
2.34645e-11
1.62203e-11
1.07703e-11
6.75319e-12
3.85997e-12
1.84049e-12
4.83096e-13
0
0
0
0
0
0
0
0
0
0
0
0
0
0
0
0
0
0
0
0
0
0
0
0
0
0
0
0
0
0
0
0
0
0
0
0
0
0
0
0
0
0
0
0
0
0
0
0
0
0
0
0
0
0
0
0
0
0
0
0
0
0
0
0
0
0
0
0
0
0
0
0
0
0
0
0
0
0
0
0
0
0
0
0
0
0
0
0
0
0
0
0
0
0
0
0
0
0
0
0
0
0
0
0
0
0
0
0
0
7.49661e-06
1.60419e-06
3.52166e-07
1.04142e-07
5.60881e-08
6.69243e-08
1.01488e-07
1.65628e-07
2.35242e-07
3.67218e-07
4.39119e-07
4.87885e-07
5.55997e-07
5.04682e-07
4.02829e-07
1.99849e-07
0
0
0
0
2.68954e-07
3.76121e-07
4.28662e-07
4.1105e-07
1.94127e-07
6.50629e-08
1.92972e-07
1.562e-07
8.54666e-08
4.51489e-08
2.55841e-08
1.78647e-08
1.6524e-08
1.65255e-08
1.57454e-08
1.46188e-08
1.32899e-08
1.13753e-08
9.06435e-09
6.84222e-09
4.99999e-09
3.605e-09
2.61659e-09
1.94427e-09
1.48328e-09
1.14347e-09
8.91387e-10
7.13791e-10
5.96877e-10
5.1446e-10
4.46013e-10
3.82653e-10
3.22764e-10
2.67957e-10
2.19966e-10
1.7932e-10
1.45456e-10
1.17334e-10
9.3937e-11
7.44709e-11
5.83667e-11
4.5045e-11
3.39401e-11
2.46628e-11
1.694e-11
1.07376e-11
6.02447e-12
2.59368e-12
2.13767e-13
0
0
0
0
0
0
0
0
0
0
0
0
0
0
0
0
0
0
0
0
0
0
0
0
0
0
0
0
0
0
0
0
0
0
0
0
0
0
0
0
0
0
0
0
0
0
0
0
0
0
0
0
0
0
0
0
0
0
0
0
0
0
0
0
0
0
0
0
0
0
0
0
0
0
0
0
0
0
0
0
0
0
0
0
0
0
0
0
0
0
0
0
0
0
0
0
0
0
0
0
0
0
0
0
0
0
0
0
0
0
0
1.33841e-05
2.34184e-06
4.95624e-07
8.49861e-08
0
0
0
1.6856e-08
4.83726e-08
9.8143e-08
1.35068e-07
1.41762e-07
1.51855e-07
1.19745e-07
6.51754e-08
0
0
0
0
0
1.69918e-07
3.0037e-07
2.958e-07
5.77702e-08
0
1.64509e-07
2.56456e-07
1.42374e-07
8.40131e-08
5.67935e-08
4.49468e-08
4.07935e-08
3.84091e-08
3.57757e-08
3.26472e-08
2.877e-08
2.43431e-08
1.94672e-08
1.47193e-08
1.06833e-08
7.55072e-09
5.23267e-09
3.59483e-09
2.51324e-09
1.84087e-09
1.42643e-09
1.12361e-09
8.85068e-10
7.04655e-10
5.7763e-10
4.87384e-10
4.16058e-10
3.53008e-10
2.94865e-10
2.42355e-10
1.96977e-10
1.59207e-10
1.28313e-10
1.03001e-10
8.20586e-11
6.46518e-11
5.02909e-11
3.85355e-11
2.88744e-11
2.09227e-11
1.4402e-11
9.11153e-12
4.96696e-12
1.86103e-12
0
0
0
0
0
0
0
0
0
0
0
0
0
0
0
0
0
0
0
0
0
0
0
0
0
0
0
0
0
0
0
0
0
0
0
0
0
0
0
0
0
0
0
0
0
0
0
0
0
0
0
0
0
0
0
0
0
0
0
0
0
0
0
0
0
0
0
0
0
0
0
0
0
0
0
0
0
0
0
0
0
0
0
0
0
0
0
0
0
0
0
0
0
0
0
0
0
0
0
0
0
0
0
0
0
0
0
0
0
0
0
1.05741e-05
1.66999e-06
3.78842e-07
0
0
0
0
0
0
0
0
0
0
0
0
0
0
0
0
0
1.21633e-07
4.93565e-09
0
0
0
3.45592e-07
1.98771e-07
1.18875e-07
8.27297e-08
6.86471e-08
6.46155e-08
6.32379e-08
6.00102e-08
5.43192e-08
4.92884e-08
4.413e-08
3.7627e-08
2.96892e-08
2.20334e-08
1.56918e-08
1.09521e-08
7.56531e-09
5.15696e-09
3.47871e-09
2.38287e-09
1.73091e-09
1.36509e-09
1.11117e-09
9.01818e-10
7.29028e-10
5.9637e-10
4.97706e-10
4.20844e-10
3.5562e-10
2.97151e-10
2.44814e-10
1.99642e-10
1.6224e-10
1.32048e-10
1.07677e-10
8.76094e-11
7.07311e-11
5.64616e-11
4.45459e-11
3.47206e-11
2.66091e-11
1.99096e-11
1.4387e-11
9.87876e-12
6.27886e-12
3.49157e-12
1.40694e-12
0
0
0
0
0
0
0
0
0
0
0
0
0
0
0
0
0
0
0
0
0
0
0
0
0
0
0
0
0
0
0
0
0
0
0
0
0
0
0
0
0
0
0
0
0
0
0
0
0
0
0
0
0
0
0
0
0
0
0
0
0
0
0
0
0
0
0
0
0
0
0
0
0
0
0
0
0
0
0
0
0
0
0
0
0
0
0
0
0
0
0
0
0
0
0