/*--------------------------------*- C++ -*----------------------------------*\
  =========                 |
  \\      /  F ield         | OpenFOAM: The Open Source CFD Toolbox
   \\    /   O peration     | Website:  https://openfoam.org
    \\  /    A nd           | Version:  7
     \\/     M anipulation  |
\*---------------------------------------------------------------------------*/
FoamFile
{
    version     2.0;
    format      ascii;
    class       surfaceScalarField;
    location    "0.009";
    object      phi;
}
// * * * * * * * * * * * * * * * * * * * * * * * * * * * * * * * * * * * * * //

dimensions      [0 3 -1 0 0 0 0];

internalField   nonuniform List<scalar> 
24170
(
1.38785e-06
1.74328e-07
1.25427e-06
1.33584e-07
1.12604e-06
1.2823e-07
1.02083e-06
1.05209e-07
9.25078e-07
9.57507e-08
8.31717e-07
9.33609e-08
7.46224e-07
8.54935e-08
6.761e-07
7.01237e-08
6.23621e-07
5.24784e-08
5.87464e-07
3.6157e-08
5.64739e-07
2.27255e-08
5.52453e-07
1.22864e-08
5.49506e-07
2.94652e-09
5.52034e-07
-2.5277e-09
5.63109e-07
-1.10755e-08
5.76766e-07
-1.36572e-08
5.96342e-07
-1.9576e-08
-2.87554e-08
6.25098e-07
1.64337e-06
2.26537e-07
1.63074e-06
1.46208e-07
1.61704e-06
1.41938e-07
1.59721e-06
1.25036e-07
1.5741e-06
1.18858e-07
1.54491e-06
1.22553e-07
1.5074e-06
1.23007e-07
1.46462e-06
1.12895e-07
1.42355e-06
9.35496e-08
1.39095e-06
6.87569e-08
1.36984e-06
4.3837e-08
1.35951e-06
2.26213e-08
1.35661e-06
5.84181e-09
1.35961e-06
-5.52922e-09
1.3643e-06
-1.57606e-08
1.37384e-06
-2.3197e-08
1.38356e-06
-2.9301e-08
-4.55118e-08
1.40032e-06
1.7647e-06
2.57954e-07
1.76493e-06
1.45985e-07
1.76296e-06
1.43907e-07
1.75239e-06
1.35598e-07
1.74981e-06
1.21439e-07
1.75466e-06
1.17707e-07
1.75634e-06
1.21327e-07
1.74912e-06
1.20118e-07
1.73607e-06
1.06596e-07
1.72343e-06
8.14037e-08
1.71571e-06
5.15524e-08
1.71359e-06
2.4741e-08
1.71627e-06
3.16173e-09
1.72148e-06
-1.07388e-08
1.72712e-06
-2.13995e-08
1.73434e-06
-3.04201e-08
1.74195e-06
-3.69036e-08
-5.01573e-08
1.74659e-06
1.93026e-06
2.46816e-07
1.91998e-06
1.56262e-07
1.9064e-06
1.57489e-07
1.88722e-06
1.54773e-07
1.87443e-06
1.34236e-07
1.87201e-06
1.20121e-07
1.87559e-06
1.17753e-07
1.88032e-06
1.15386e-07
1.88446e-06
1.02447e-07
1.88761e-06
7.82539e-08
1.88972e-06
4.94503e-08
1.8911e-06
2.33583e-08
1.89116e-06
3.10444e-09
1.893e-06
-1.25794e-08
1.89607e-06
-2.44709e-08
1.90097e-06
-3.53217e-08
1.90762e-06
-4.35574e-08
-5.33716e-08
1.91084e-06
2.04979e-06
2.94314e-07
2.0472e-06
1.58855e-07
2.05338e-06
1.51311e-07
2.04594e-06
1.62206e-07
2.02472e-06
1.55464e-07
2.00339e-06
1.41444e-07
1.99513e-06
1.26017e-07
2.00168e-06
1.08835e-07
2.01557e-06
8.85622e-08
2.02756e-06
6.62569e-08
2.03262e-06
4.43917e-08
2.03157e-06
2.44107e-08
2.02935e-06
5.32118e-09
2.0288e-06
-1.20249e-08
2.03181e-06
-2.74781e-08
2.03734e-06
-4.08596e-08
2.04438e-06
-5.05969e-08
-5.8259e-08
2.04927e-06
2.24124e-06
3.38606e-07
2.20135e-06
1.98747e-07
2.19117e-06
1.61492e-07
2.1841e-06
1.69275e-07
2.16998e-06
1.69582e-07
2.15526e-06
1.56162e-07
2.14852e-06
1.32763e-07
2.15104e-06
1.06316e-07
2.15792e-06
8.16835e-08
2.16427e-06
5.99039e-08
2.16889e-06
3.97684e-08
2.17315e-06
2.01505e-08
2.17768e-06
7.9641e-10
2.18388e-06
-1.82269e-08
2.19027e-06
-3.38644e-08
2.19538e-06
-4.59782e-08
2.19911e-06
-5.43252e-08
-5.99694e-08
2.20082e-06
2.39216e-06
3.74949e-07
2.38626e-06
2.04643e-07
2.38189e-06
1.65859e-07
2.36973e-06
1.81435e-07
2.35263e-06
1.8669e-07
2.33688e-06
1.71905e-07
2.32712e-06
1.42529e-07
2.32471e-06
1.08719e-07
2.32834e-06
7.80598e-08
2.33547e-06
5.27764e-08
2.34391e-06
3.13205e-08
2.3522e-06
1.18691e-08
2.35923e-06
-6.24188e-09
2.36317e-06
-2.21634e-08
2.36494e-06
-3.56391e-08
2.36527e-06
-4.63033e-08
2.36595e-06
-5.50046e-08
-6.1977e-08
2.36796e-06
2.55471e-06
3.85234e-07
2.54181e-06
2.17536e-07
2.535e-06
1.72672e-07
2.53168e-06
1.84753e-07
2.52617e-06
1.92202e-07
2.51656e-06
1.81512e-07
2.50541e-06
1.53679e-07
2.49738e-06
1.16747e-07
2.49578e-06
7.96684e-08
2.50131e-06
4.72436e-08
2.51185e-06
2.07806e-08
2.52395e-06
-2.2871e-10
2.5355e-06
-1.77935e-08
2.54484e-06
-3.1509e-08
2.55195e-06
-4.27497e-08
2.55768e-06
-5.20239e-08
2.56296e-06
-6.02846e-08
-6.77679e-08
2.56875e-06
2.74299e-06
3.74261e-07
2.7342e-06
2.26327e-07
2.72202e-06
1.84857e-07
2.73162e-06
1.75151e-07
2.74845e-06
1.75372e-07
2.75861e-06
1.7135e-07
2.75801e-06
1.54283e-07
2.7497e-06
1.25059e-07
2.73988e-06
8.94845e-08
2.73398e-06
5.31416e-08
2.73469e-06
2.0071e-08
2.74122e-06
-6.75476e-09
2.75012e-06
-2.66929e-08
2.75961e-06
-4.09964e-08
2.76805e-06
-5.11916e-08
2.77531e-06
-5.92878e-08
2.7816e-06
-6.6576e-08
-7.38212e-08
2.78766e-06
2.9896e-06
4.33866e-07
2.92051e-06
2.95414e-07
2.91006e-06
1.95303e-07
2.92435e-06
1.60869e-07
2.93727e-06
1.62449e-07
2.94179e-06
1.6683e-07
2.93938e-06
1.56688e-07
2.93505e-06
1.29395e-07
2.93431e-06
9.02263e-08
2.93963e-06
4.78123e-08
2.94921e-06
1.04922e-08
2.96088e-06
-1.84204e-08
2.97216e-06
-3.79783e-08
2.98209e-06
-5.09247e-08
2.99065e-06
-5.97516e-08
2.99793e-06
-6.65667e-08
3.00411e-06
-7.27503e-08
-7.89599e-08
3.00924e-06
3.21724e-06
4.90686e-07
3.19518e-06
3.17477e-07
3.18046e-06
2.10018e-07
3.16877e-06
1.72564e-07
3.15691e-06
1.74312e-07
3.14514e-06
1.78597e-07
3.13864e-06
1.63187e-07
3.14091e-06
1.27126e-07
3.14902e-06
8.21182e-08
3.15693e-06
3.99029e-08
3.16192e-06
5.4994e-09
3.16325e-06
-1.97501e-08
3.16439e-06
-3.9118e-08
3.16766e-06
-5.41917e-08
3.17394e-06
-6.60317e-08
3.18283e-06
-7.54615e-08
3.19281e-06
-8.27325e-08
-8.86814e-08
3.20253e-06
2.90635e-06
5.29415e-07
2.87964e-06
3.44184e-07
2.86447e-06
2.25189e-07
2.84515e-06
1.91886e-07
2.82923e-06
1.90234e-07
2.82542e-06
1.82398e-07
2.83554e-06
1.53076e-07
2.85317e-06
1.0949e-07
2.8691e-06
6.61887e-08
2.87746e-06
3.15402e-08
2.8775e-06
5.46533e-09
2.87457e-06
-1.68258e-08
2.87262e-06
-3.71685e-08
2.87469e-06
-5.62542e-08
2.8811e-06
-7.24429e-08
2.89036e-06
-8.47201e-08
2.90033e-06
-9.27028e-08
-9.77952e-08
2.90944e-06
3.46192e-06
4.86727e-07
3.48373e-06
3.22373e-07
3.47672e-06
2.32193e-07
3.44882e-06
2.19784e-07
3.43139e-06
2.07664e-07
3.43822e-06
1.75572e-07
3.46283e-06
1.28463e-07
3.49084e-06
8.14855e-08
3.51082e-06
4.62043e-08
3.51946e-06
2.29042e-08
3.52081e-06
4.11729e-09
3.51892e-06
-1.49415e-08
3.51849e-06
-3.67377e-08
3.52063e-06
-5.83901e-08
3.5246e-06
-7.64138e-08
3.52888e-06
-8.89992e-08
3.53201e-06
-9.5841e-08
-9.9573e-08
3.53379e-06
4.28822e-06
4.73505e-07
4.28716e-06
3.23432e-07
4.26011e-06
2.59248e-07
4.24361e-06
2.36286e-07
4.24882e-06
2.0245e-07
4.26855e-06
1.55845e-07
4.28573e-06
1.11278e-07
4.29014e-06
7.70819e-08
4.28473e-06
5.16104e-08
4.27919e-06
2.84478e-08
4.27999e-06
3.3122e-09
4.28967e-06
-2.46148e-08
4.30336e-06
-5.04282e-08
4.31496e-06
-6.99973e-08
4.31993e-06
-8.13792e-08
4.31694e-06
-8.60119e-08
4.30793e-06
-8.68258e-08
-8.91396e-08
4.29749e-06
5.1816e-06
4.23934e-07
5.21955e-06
2.85486e-07
5.23794e-06
2.40861e-07
5.24877e-06
2.25448e-07
5.25305e-06
1.98177e-07
5.24774e-06
1.61148e-07
5.23294e-06
1.2608e-07
5.216e-06
9.4022e-08
5.20785e-06
5.97654e-08
5.21524e-06
2.10565e-08
5.23671e-06
-1.8157e-08
5.26307e-06
-5.0975e-08
5.28482e-06
-7.21793e-08
5.29564e-06
-8.08194e-08
5.29485e-06
-8.05859e-08
5.28633e-06
-7.74978e-08
5.27588e-06
-7.63751e-08
-8.14995e-08
5.26824e-06
6.46071e-06
4.4988e-07
6.37592e-06
3.70275e-07
6.33005e-06
2.86728e-07
6.31983e-06
2.35664e-07
6.32408e-06
1.93934e-07
6.32698e-06
1.5824e-07
6.32175e-06
1.31313e-07
6.31236e-06
1.03416e-07
6.307e-06
6.51265e-08
6.31053e-06
1.75259e-08
6.32217e-06
-2.9801e-08
6.33763e-06
-6.64296e-08
6.35317e-06
-8.77232e-08
6.36752e-06
-9.51714e-08
6.38116e-06
-9.42261e-08
6.39519e-06
-9.15221e-08
6.41028e-06
-9.14687e-08
-9.68927e-08
6.42567e-06
7.67939e-06
5.30484e-07
7.63182e-06
4.17839e-07
7.62784e-06
2.9071e-07
7.66011e-06
2.03391e-07
7.71299e-06
1.41058e-07
7.76768e-06
1.03547e-07
7.8148e-06
8.42013e-08
7.85157e-06
6.66431e-08
7.87521e-06
4.14851e-08
7.88208e-06
1.06536e-08
7.87208e-06
-1.98032e-08
7.84951e-06
-4.38506e-08
7.82237e-06
-6.05849e-08
7.79892e-06
-7.17269e-08
7.78448e-06
-7.97849e-08
7.7804e-06
-8.74366e-08
7.78516e-06
-9.62316e-08
-1.06726e-07
7.79499e-06
9.27392e-06
3.42081e-07
9.38915e-06
3.02612e-07
9.43855e-06
2.41304e-07
9.47329e-06
1.68653e-07
9.49891e-06
1.15441e-07
9.51021e-06
9.22459e-08
9.51037e-06
8.40366e-08
9.5069e-06
7.01185e-08
9.50448e-06
4.39006e-08
9.50402e-06
1.11159e-08
9.50305e-06
-1.88285e-08
9.50106e-06
-4.18618e-08
9.49867e-06
-5.81939e-08
9.49705e-06
-7.01116e-08
9.49729e-06
-8.00213e-08
9.49951e-06
-8.96609e-08
9.50269e-06
-9.94093e-08
-1.09737e-07
9.5057e-06
1.17585e-05
3.15107e-07
1.17184e-05
3.42687e-07
1.1656e-05
3.03679e-07
1.16096e-05
2.15124e-07
1.15766e-05
1.48429e-07
1.1557e-05
1.11824e-07
1.1551e-05
9.00558e-08
1.15556e-05
6.5507e-08
1.15663e-05
3.31509e-08
1.15797e-05
-2.2761e-09
1.15986e-05
-3.76847e-08
1.16217e-05
-6.49905e-08
1.16478e-05
-8.42994e-08
1.16745e-05
-9.67624e-08
1.16985e-05
-1.04037e-07
1.17172e-05
-1.08347e-07
1.17288e-05
-1.11016e-07
-1.13884e-07
1.17329e-05
8.42763e-06
4.89641e-07
8.36725e-06
4.03064e-07
8.39147e-06
2.79467e-07
8.4192e-06
1.87393e-07
8.427e-06
1.40629e-07
8.42243e-06
1.16391e-07
8.42809e-06
8.4399e-08
8.45379e-06
3.98061e-08
8.4933e-06
-6.36154e-09
8.53049e-06
-3.94663e-08
8.55303e-06
-6.0224e-08
8.55923e-06
-7.11934e-08
8.55272e-06
-7.77903e-08
8.53983e-06
-8.38742e-08
8.52628e-06
-9.04839e-08
8.51535e-06
-9.74175e-08
8.50798e-06
-1.03648e-07
-1.08611e-07
8.50271e-06
7.31241e-06
4.02002e-07
7.37772e-06
3.37756e-07
7.38846e-06
2.68725e-07
7.38576e-06
1.9009e-07
7.39404e-06
1.32348e-07
7.41697e-06
9.34675e-08
7.43903e-06
6.23355e-08
7.44562e-06
3.32156e-08
7.43401e-06
5.25101e-09
7.41694e-06
-2.2404e-08
7.40326e-06
-4.65407e-08
7.3985e-06
-6.64271e-08
7.40202e-06
-8.13135e-08
7.40923e-06
-9.10879e-08
7.41497e-06
-9.62233e-08
7.41563e-06
-9.8072e-08
7.40962e-06
-9.76416e-08
-9.6866e-08
7.39788e-06
6.41655e-06
3.67584e-07
6.40096e-06
3.53345e-07
6.42658e-06
2.43109e-07
6.45065e-06
1.66012e-07
6.47308e-06
1.09925e-07
6.49969e-06
6.68571e-08
6.52716e-06
3.48622e-08
6.54916e-06
1.1214e-08
6.56314e-06
-8.73019e-09
6.56916e-06
-2.84249e-08
6.57168e-06
-4.90536e-08
6.57192e-06
-6.6665e-08
6.56932e-06
-7.87175e-08
6.5627e-06
-8.4472e-08
6.55161e-06
-8.51323e-08
6.53688e-06
-8.33421e-08
6.52061e-06
-8.13706e-08
-8.15467e-08
6.50529e-06
5.54293e-06
3.40847e-07
5.59296e-06
3.03313e-07
5.62626e-06
2.0981e-07
5.65084e-06
1.41432e-07
5.66748e-06
9.32923e-08
5.68504e-06
4.92939e-08
5.71083e-06
9.07229e-09
5.74754e-06
-2.54929e-08
5.78644e-06
-4.76293e-08
5.81736e-06
-5.93439e-08
5.83268e-06
-6.4383e-08
5.8314e-06
-6.53788e-08
5.81727e-06
-6.45875e-08
5.7965e-06
-6.37067e-08
5.77517e-06
-6.38023e-08
5.75729e-06
-6.54586e-08
5.74461e-06
-6.86953e-08
-7.38726e-08
5.73694e-06
4.82622e-06
4.57907e-07
4.87882e-06
2.5072e-07
4.9346e-06
1.54022e-07
4.97396e-06
1.02072e-07
5.00195e-06
6.53068e-08
5.02212e-06
2.91221e-08
5.03547e-06
-4.2746e-09
5.03497e-06
-2.49931e-08
5.0244e-06
-3.70572e-08
5.00821e-06
-4.31579e-08
4.99231e-06
-4.84872e-08
4.98163e-06
-5.46924e-08
4.97809e-06
-6.10493e-08
4.98069e-06
-6.6308e-08
4.98678e-06
-6.98946e-08
4.99358e-06
-7.22594e-08
4.99894e-06
-7.40464e-08
-7.66968e-08
5.00176e-06
4.23547e-06
4.82102e-07
4.28976e-06
1.96429e-07
4.34499e-06
9.87913e-08
4.37164e-06
7.54311e-08
4.38167e-06
5.52708e-08
4.38735e-06
2.34484e-08
4.39135e-06
-8.28016e-09
4.39647e-06
-3.01152e-08
4.39965e-06
-4.02331e-08
4.40226e-06
-4.5768e-08
4.40514e-06
-5.13715e-08
4.40848e-06
-5.80248e-08
4.41199e-06
-6.45662e-08
4.41548e-06
-6.97932e-08
4.41898e-06
-7.33996e-08
4.42272e-06
-7.5992e-08
4.42689e-06
-7.82245e-08
-8.12688e-08
4.43147e-06
3.65115e-06
3.68604e-07
3.72684e-06
1.20736e-07
3.77509e-06
5.0536e-08
3.80936e-06
4.11613e-08
3.84209e-06
2.25424e-08
3.8716e-06
-6.06408e-09
3.89464e-06
-3.13113e-08
3.91234e-06
-4.7817e-08
3.92607e-06
-5.39634e-08
3.93509e-06
-5.47862e-08
3.93889e-06
-5.51747e-08
3.93853e-06
-5.76674e-08
3.9364e-06
-6.24393e-08
3.93509e-06
-6.84747e-08
3.9361e-06
-7.44084e-08
3.93955e-06
-7.94489e-08
3.94446e-06
-8.31355e-08
-8.5521e-08
3.94872e-06
3.24647e-06
2.09896e-07
3.30972e-06
5.749e-08
3.33542e-06
2.48418e-08
3.36709e-06
9.49019e-09
3.39622e-06
-6.58904e-09
3.41181e-06
-2.1657e-08
3.4167e-06
-3.62007e-08
3.41968e-06
-5.07952e-08
3.42574e-06
-6.00245e-08
3.43427e-06
-6.33185e-08
3.4433e-06
-6.42045e-08
3.45149e-06
-6.58518e-08
3.45812e-06
-6.90731e-08
3.46262e-06
-7.29778e-08
3.46447e-06
-7.62515e-08
3.46332e-06
-7.83032e-08
3.45922e-06
-7.90393e-08
-7.9386e-08
3.45309e-06
2.86647e-06
2.01311e-07
2.92025e-06
3.71013e-09
2.9399e-06
5.19006e-09
2.95479e-06
-5.39658e-09
2.96909e-06
-2.08895e-08
2.98665e-06
-3.92237e-08
3.00765e-06
-5.71976e-08
3.02665e-06
-6.97997e-08
3.04028e-06
-7.36492e-08
3.04809e-06
-7.11319e-08
3.0512e-06
-6.73163e-08
3.05101e-06
-6.56596e-08
3.0486e-06
-6.6665e-08
3.04476e-06
-6.91364e-08
3.04019e-06
-7.16822e-08
3.0355e-06
-7.36143e-08
3.03138e-06
-7.49116e-08
-7.6422e-08
3.02841e-06
2.49027e-06
1.14622e-07
2.52704e-06
-3.30604e-08
2.56125e-06
-2.90157e-08
2.59949e-06
-4.36364e-08
2.6329e-06
-5.43011e-08
2.65435e-06
-6.06709e-08
2.6625e-06
-6.53488e-08
2.65946e-06
-6.67607e-08
2.64986e-06
-6.40501e-08
2.63783e-06
-5.91003e-08
2.6251e-06
-5.45885e-08
2.61158e-06
-5.21393e-08
2.59669e-06
-5.17727e-08
2.58017e-06
-5.26136e-08
2.56208e-06
-5.35948e-08
2.54252e-06
-5.4056e-08
2.52181e-06
-5.41996e-08
-5.46356e-08
2.50002e-06
2.18354e-06
2.15048e-06
2.12146e-06
2.07783e-06
2.02353e-06
1.96285e-06
1.89751e-06
1.83075e-06
1.7667e-06
1.70759e-06
1.65301e-06
1.60087e-06
1.54909e-06
1.49648e-06
1.44289e-06
1.38883e-06
1.33463e-06
1.27999e-06
-5.35441e-08
5.35441e-08
-1.08522e-07
5.49776e-08
-1.62567e-07
5.40453e-08
-2.16443e-07
5.38757e-08
-2.69689e-07
5.32462e-08
-3.21907e-07
5.22179e-08
-3.72716e-07
5.08095e-08
-4.21719e-07
4.90028e-08
-4.68488e-07
4.67694e-08
-5.12565e-07
4.40769e-08
-5.5348e-07
4.09143e-08
-5.90748e-07
3.72681e-08
-6.23872e-07
3.31239e-08
-6.52357e-07
2.84855e-08
-6.75716e-07
2.33587e-08
-6.93505e-07
1.77892e-08
-7.05333e-07
1.18283e-08
-7.10881e-07
5.54753e-09
-7.09867e-07
-1.01351e-09
-7.02082e-07
-7.78556e-09
-6.87443e-07
-1.46392e-08
-6.65973e-07
-2.14698e-08
-6.37733e-07
-2.82399e-08
-6.0288e-07
-3.48526e-08
-5.61651e-07
-4.12297e-08
-5.14351e-07
-4.73e-08
-4.61371e-07
-5.298e-08
-4.03157e-07
-5.82134e-08
-3.4014e-07
-6.30175e-08
-2.72911e-07
-6.72291e-08
-2.0197e-07
-7.09408e-08
-1.27837e-07
-7.41324e-08
-5.11556e-08
-7.66818e-08
2.75573e-08
-7.87129e-08
1.07776e-07
-8.02184e-08
1.88992e-07
-8.12162e-08
2.70726e-07
-8.17339e-08
3.52532e-07
-8.18062e-08
4.34002e-07
-8.14703e-08
5.14768e-07
-8.07652e-08
5.94498e-07
-7.97305e-08
6.72904e-07
-7.84058e-08
7.49734e-07
-7.68299e-08
8.24774e-07
-7.50398e-08
8.97844e-07
-7.30707e-08
9.688e-07
-7.09553e-08
1.03752e-06
-6.8724e-08
1.10393e-06
-6.64044e-08
1.16795e-06
-6.40213e-08
1.22955e-06
-6.15972e-08
1.2887e-06
-5.91518e-08
1.3454e-06
-5.67024e-08
1.39966e-06
-5.4264e-08
1.45151e-06
-5.18497e-08
1.50098e-06
-4.94704e-08
1.54812e-06
-4.71352e-08
1.59297e-06
-4.48519e-08
1.6356e-06
-4.26265e-08
1.67606e-06
-4.04639e-08
1.71443e-06
-3.83678e-08
1.75077e-06
-3.63409e-08
1.78516e-06
-3.43853e-08
1.81766e-06
-3.25019e-08
1.84835e-06
-3.06914e-08
1.8773e-06
-2.89535e-08
1.90459e-06
-2.72879e-08
1.93028e-06
-2.56936e-08
1.95445e-06
-2.41693e-08
1.97717e-06
-2.27136e-08
1.99849e-06
-2.13247e-08
2.01849e-06
-2.00009e-08
2.03723e-06
-1.87399e-08
2.05477e-06
-1.75398e-08
2.07117e-06
-1.63984e-08
2.08648e-06
-1.53134e-08
2.10077e-06
-1.42826e-08
2.11407e-06
-1.33039e-08
2.12645e-06
-1.2375e-08
2.13794e-06
-1.14937e-08
2.1486e-06
-1.06579e-08
2.15846e-06
-9.86556e-09
2.16758e-06
-9.11457e-09
2.17598e-06
-8.40304e-09
2.18371e-06
-7.72901e-09
2.1908e-06
-7.09065e-09
2.19729e-06
-6.48619e-09
2.2032e-06
-5.91395e-09
2.20857e-06
-5.37219e-09
2.21343e-06
-4.85954e-09
2.21781e-06
-4.37438e-09
2.22172e-06
-3.91509e-09
2.2252e-06
-3.48089e-09
2.22827e-06
-3.07e-09
2.23095e-06
-2.68058e-09
2.23327e-06
-2.31314e-09
2.23523e-06
-1.96582e-09
2.23687e-06
-1.63467e-09
2.23819e-06
-1.32314e-09
2.23922e-06
-1.03027e-09
2.23997e-06
-7.46187e-10
2.24044e-06
-4.78213e-10
2.24067e-06
-2.28209e-10
2.24065e-06
2.37241e-11
2.24035e-06
2.95761e-10
2.2398e-06
5.53922e-10
2.239e-06
8.00069e-10
2.23797e-06
1.03293e-09
2.23672e-06
1.2465e-09
2.23528e-06
1.43606e-09
2.23368e-06
1.60207e-09
2.23193e-06
1.74791e-09
2.23006e-06
1.87848e-09
2.22806e-06
1.99826e-09
2.22595e-06
2.11046e-09
2.22373e-06
2.21684e-09
2.22141e-06
2.31829e-09
2.219e-06
2.41511e-09
2.21649e-06
2.50764e-09
2.21389e-06
2.59593e-09
2.21121e-06
2.68033e-09
2.20845e-06
2.76097e-09
2.20561e-06
2.83814e-09
2.2027e-06
2.91201e-09
2.19972e-06
2.98289e-09
2.19667e-06
3.05092e-09
2.19355e-06
3.11631e-09
2.19037e-06
3.17931e-09
2.18713e-06
3.24002e-09
2.18383e-06
3.29863e-09
2.18048e-06
3.35535e-09
2.17707e-06
3.41022e-09
2.1736e-06
3.46349e-09
2.17009e-06
3.51515e-09
2.16652e-06
3.56543e-09
2.16291e-06
3.61441e-09
2.15925e-06
3.66225e-09
2.15554e-06
3.70899e-09
2.15178e-06
3.75484e-09
2.14798e-06
3.7998e-09
2.14414e-06
3.84398e-09
2.14025e-06
3.88749e-09
2.13632e-06
3.9304e-09
2.13235e-06
3.97287e-09
2.12833e-06
4.01497e-09
2.12428e-06
4.05683e-09
2.12018e-06
4.09856e-09
2.11604e-06
4.14032e-09
2.11186e-06
4.18224e-09
2.10763e-06
4.22454e-09
2.10336e-06
4.26735e-09
2.09905e-06
4.31087e-09
2.0947e-06
4.35541e-09
2.0903e-06
4.40128e-09
2.08585e-06
4.44885e-09
2.08135e-06
4.49864e-09
2.0768e-06
4.55127e-09
2.07219e-06
4.60755e-09
2.06752e-06
4.66842e-09
2.06279e-06
4.73516e-09
2.05798e-06
4.80938e-09
2.05308e-06
4.89318e-09
2.04809e-06
4.98934e-09
2.04299e-06
5.10113e-09
2.03776e-06
5.23386e-09
2.03237e-06
5.3921e-09
2.02678e-06
5.58733e-09
2.02096e-06
5.8246e-09
2.01483e-06
6.12683e-09
2.00832e-06
6.51354e-09
2.00134e-06
6.97618e-09
1.99361e-06
7.73037e-09
1.9853e-06
8.30384e-09
1.97513e-06
1.01761e-08
1.96473e-06
1.04034e-08
1.9491e-06
1.5623e-08
1.93489e-06
1.42077e-08
1.90512e-06
2.97752e-08
1.88117e-06
2.39447e-08
1.79875e-06
8.24239e-08
8.24791e-08
1.71627e-06
-5.67523e-08
1.10296e-07
-1.1482e-07
1.13045e-07
-1.71596e-07
1.10822e-07
-2.27927e-07
1.10207e-07
-2.83267e-07
1.08586e-07
-3.37169e-07
1.0612e-07
-3.89214e-07
1.02855e-07
-4.38979e-07
9.87672e-08
-4.86023e-07
9.3814e-08
-5.29908e-07
8.79617e-08
-5.70188e-07
8.11943e-08
-6.06411e-07
7.34908e-08
-6.38146e-07
6.48592e-08
-6.64968e-07
5.53075e-08
-6.86476e-07
4.48664e-08
-7.02292e-07
3.36055e-08
-7.12066e-07
2.16026e-08
-7.15515e-07
8.9965e-09
-7.12222e-07
-4.30631e-09
-7.01887e-07
-1.81214e-08
-6.84416e-07
-3.21099e-08
-6.59753e-07
-4.61329e-08
-6.27983e-07
-6.00096e-08
-5.89253e-07
-7.35825e-08
-5.43817e-07
-8.66664e-08
-4.92023e-07
-9.90936e-08
-4.34275e-07
-1.10728e-07
-3.71026e-07
-1.21463e-07
-3.02873e-07
-1.3117e-07
-2.3026e-07
-1.39842e-07
-1.53839e-07
-1.47361e-07
-7.427e-08
-1.53702e-07
8.03916e-09
-1.58991e-07
9.24417e-08
-1.63115e-07
1.7838e-07
-1.66156e-07
2.65335e-07
-1.68172e-07
3.52822e-07
-1.69221e-07
4.40389e-07
-1.69373e-07
5.27626e-07
-1.68707e-07
6.14163e-07
-1.67302e-07
6.99671e-07
-1.65238e-07
7.8386e-07
-1.62595e-07
8.66481e-07
-1.59451e-07
9.47322e-07
-1.5588e-07
1.0262e-06
-1.51952e-07
1.10298e-06
-1.47732e-07
1.17754e-06
-1.4328e-07
1.24978e-06
-1.38649e-07
1.31965e-06
-1.3389e-07
1.3871e-06
-1.29045e-07
1.4521e-06
-1.24154e-07
1.51465e-06
-1.19249e-07
1.57474e-06
-1.14362e-07
1.63241e-06
-1.09516e-07
1.68767e-06
-1.04733e-07
1.74057e-06
-1.00031e-07
1.79114e-06
-9.54247e-08
1.83944e-06
-9.09268e-08
1.88552e-06
-8.65468e-08
1.92945e-06
-8.22921e-08
1.97127e-06
-7.81685e-08
2.01107e-06
-7.41798e-08
2.0489e-06
-7.03288e-08
2.08482e-06
-6.66168e-08
2.11891e-06
-6.30441e-08
2.15123e-06
-5.96102e-08
2.18185e-06
-5.63138e-08
2.21084e-06
-5.31529e-08
2.23825e-06
-5.01249e-08
2.26415e-06
-4.72273e-08
2.28861e-06
-4.44566e-08
2.31168e-06
-4.18094e-08
2.33342e-06
-3.92821e-08
2.35389e-06
-3.68708e-08
2.37315e-06
-3.45718e-08
2.39125e-06
-3.23809e-08
2.40824e-06
-3.02941e-08
2.42417e-06
-2.83076e-08
2.43909e-06
-2.64174e-08
2.45306e-06
-2.46195e-08
2.4661e-06
-2.29102e-08
2.47827e-06
-2.12856e-08
2.48961e-06
-1.97421e-08
2.50016e-06
-1.82761e-08
2.50995e-06
-1.68842e-08
2.51903e-06
-1.55629e-08
2.52742e-06
-1.43091e-08
2.53517e-06
-1.31195e-08
2.5423e-06
-1.19913e-08
2.54885e-06
-1.09213e-08
2.55484e-06
-9.9069e-09
2.56031e-06
-8.94547e-09
2.56527e-06
-8.0341e-09
2.56976e-06
-7.17044e-09
2.5738e-06
-6.35256e-09
2.57741e-06
-5.57732e-09
2.58062e-06
-4.84246e-09
2.58344e-06
-4.14724e-09
2.5859e-06
-3.4883e-09
2.58802e-06
-2.86286e-09
2.58981e-06
-2.27065e-09
2.59129e-06
-1.70982e-09
2.59249e-06
-1.17706e-09
2.59345e-06
-6.66691e-10
2.59419e-06
-1.76834e-10
2.5947e-06
2.82821e-10
2.59502e-06
7.1644e-10
2.59515e-06
1.11956e-09
2.59509e-06
1.49337e-09
2.59485e-06
1.84186e-09
2.59443e-06
2.16869e-09
2.59383e-06
2.47801e-09
2.59305e-06
2.77271e-09
2.59211e-06
3.05442e-09
2.591e-06
3.32362e-09
2.58974e-06
3.58069e-09
2.58833e-06
3.82572e-09
2.58678e-06
4.05897e-09
2.58509e-06
4.28092e-09
2.58328e-06
4.49207e-09
2.58135e-06
4.69298e-09
2.5793e-06
4.88425e-09
2.57715e-06
5.06643e-09
2.57489e-06
5.24015e-09
2.57254e-06
5.40595e-09
2.57009e-06
5.56434e-09
2.56755e-06
5.71577e-09
2.56493e-06
5.86074e-09
2.56223e-06
5.99968e-09
2.55945e-06
6.13301e-09
2.5566e-06
6.26112e-09
2.55368e-06
6.38441e-09
2.55069e-06
6.50318e-09
2.54764e-06
6.61781e-09
2.54453e-06
6.72863e-09
2.54135e-06
6.83587e-09
2.53812e-06
6.93993e-09
2.53484e-06
7.04101e-09
2.5315e-06
7.1394e-09
2.52811e-06
7.23533e-09
2.52466e-06
7.32909e-09
2.52117e-06
7.42082e-09
2.51764e-06
7.51089e-09
2.51405e-06
7.59949e-09
2.51042e-06
7.68697e-09
2.50675e-06
7.77357e-09
2.50303e-06
7.85957e-09
2.49926e-06
7.94526e-09
2.49546e-06
8.03103e-09
2.49161e-06
8.11724e-09
2.48771e-06
8.20431e-09
2.48378e-06
8.2928e-09
2.47979e-06
8.38322e-09
2.47577e-06
8.47642e-09
2.47169e-06
8.57325e-09
2.46757e-06
8.67488e-09
2.46339e-06
8.78268e-09
2.45916e-06
8.89848e-09
2.45487e-06
9.02456e-09
2.45052e-06
9.1638e-09
2.44609e-06
9.32008e-09
2.44158e-06
9.49792e-09
2.43698e-06
9.70428e-09
2.43227e-06
9.94599e-09
2.42742e-06
1.02373e-08
2.42243e-06
1.05847e-08
2.41722e-06
1.10264e-08
2.41181e-06
1.15448e-08
2.40604e-06
1.22804e-08
2.39997e-06
1.3043e-08
2.39325e-06
1.4452e-08
2.38612e-06
1.54374e-08
2.37771e-06
1.85861e-08
2.36862e-06
1.94919e-08
2.35704e-06
2.71987e-08
2.34374e-06
2.75156e-08
2.32517e-06
4.83403e-08
2.3003e-06
4.88203e-08
2.26806e-06
1.14659e-07
1.28028e-07
2.22251e-06
-5.7823e-08
1.68119e-07
-1.17521e-07
1.72743e-07
-1.76324e-07
1.69624e-07
-2.34851e-07
1.68734e-07
-2.92562e-07
1.66298e-07
-3.49046e-07
1.62604e-07
-4.0391e-07
1.57719e-07
-4.56722e-07
1.51579e-07
-5.07028e-07
1.4412e-07
-5.54349e-07
1.35283e-07
-5.98178e-07
1.25023e-07
-6.37987e-07
1.133e-07
-6.7324e-07
1.00113e-07
-7.03403e-07
8.54706e-08
-7.27954e-07
6.94172e-08
-7.46395e-07
5.20468e-08
-7.5826e-07
3.34674e-08
-7.63166e-07
1.39021e-08
-7.60736e-07
-6.73595e-09
-7.50645e-07
-2.82122e-08
-7.32796e-07
-4.99588e-08
-7.07174e-07
-7.17557e-08
-6.73904e-07
-9.32789e-08
-6.33209e-07
-1.14278e-07
-5.85403e-07
-1.34472e-07
-5.30897e-07
-1.536e-07
-4.70183e-07
-1.71441e-07
-4.03817e-07
-1.8783e-07
-3.32406e-07
-2.02581e-07
-2.56606e-07
-2.15643e-07
-1.77011e-07
-2.26956e-07
-9.42647e-08
-2.36448e-07
-9.10353e-09
-2.44152e-07
7.79611e-08
-2.5018e-07
1.66346e-07
-2.54541e-07
2.55509e-07
-2.57335e-07
3.44953e-07
-2.58665e-07
4.34228e-07
-2.58649e-07
5.2293e-07
-2.57409e-07
6.107e-07
-2.55072e-07
6.97225e-07
-2.51763e-07
7.82236e-07
-2.47606e-07
8.65503e-07
-2.42718e-07
9.46834e-07
-2.37212e-07
1.02607e-06
-2.31192e-07
1.1031e-06
-2.24755e-07
1.17781e-06
-2.1799e-07
1.25013e-06
-2.10976e-07
1.32003e-06
-2.03785e-07
1.38746e-06
-1.9648e-07
1.45243e-06
-1.89117e-07
1.51492e-06
-1.81744e-07
1.57496e-06
-1.74403e-07
1.63258e-06
-1.67131e-07
1.6878e-06
-1.59957e-07
1.74068e-06
-1.52907e-07
1.79126e-06
-1.46002e-07
1.83959e-06
-1.39258e-07
1.88573e-06
-1.3269e-07
1.92975e-06
-1.26307e-07
1.9717e-06
-1.20118e-07
2.01164e-06
-1.14128e-07
2.04965e-06
-1.0834e-07
2.08579e-06
-1.02756e-07
2.12013e-06
-9.73763e-08
2.15272e-06
-9.22005e-08
2.18363e-06
-8.72263e-08
2.21293e-06
-8.24509e-08
2.24067e-06
-7.78708e-08
2.26693e-06
-7.34819e-08
2.29175e-06
-6.92798e-08
2.3152e-06
-6.52594e-08
2.33733e-06
-6.14155e-08
2.35821e-06
-5.7743e-08
2.37787e-06
-5.42361e-08
2.39638e-06
-5.08894e-08
2.41378e-06
-4.76971e-08
2.43013e-06
-4.46538e-08
2.44546e-06
-4.17537e-08
2.45984e-06
-3.89913e-08
2.47329e-06
-3.63613e-08
2.48586e-06
-3.38582e-08
2.49759e-06
-3.14768e-08
2.50853e-06
-2.9212e-08
2.5187e-06
-2.70588e-08
2.52815e-06
-2.50123e-08
2.53691e-06
-2.30679e-08
2.54501e-06
-2.12211e-08
2.55249e-06
-1.94673e-08
2.55937e-06
-1.78024e-08
2.56569e-06
-1.62224e-08
2.57147e-06
-1.47232e-08
2.57673e-06
-1.3301e-08
2.58151e-06
-1.19522e-08
2.58583e-06
-1.06735e-08
2.58972e-06
-9.46079e-09
2.59319e-06
-8.31126e-09
2.59626e-06
-7.22229e-09
2.59896e-06
-6.18941e-09
2.60131e-06
-5.21011e-09
2.60332e-06
-4.28215e-09
2.60501e-06
-3.40112e-09
2.6064e-06
-2.56431e-09
2.6075e-06
-1.77109e-09
2.60835e-06
-1.02269e-09
2.60895e-06
-3.19847e-10
2.60932e-06
3.47945e-10
2.60947e-06
9.75243e-10
2.6094e-06
1.56324e-09
2.60912e-06
2.116e-09
2.60865e-06
2.63821e-09
2.608e-06
3.13376e-09
2.60716e-06
3.60513e-09
2.60617e-06
4.05391e-09
2.60501e-06
4.48105e-09
2.6037e-06
4.8873e-09
2.60225e-06
5.27341e-09
2.60067e-06
5.64031e-09
2.59896e-06
5.98885e-09
2.59714e-06
6.32003e-09
2.59519e-06
6.63483e-09
2.59314e-06
6.93422e-09
2.59099e-06
7.21906e-09
2.58874e-06
7.4904e-09
2.5864e-06
7.74896e-09
2.58397e-06
7.99566e-09
2.58145e-06
8.23122e-09
2.57886e-06
8.45634e-09
2.57618e-06
8.67175e-09
2.57344e-06
8.87814e-09
2.57062e-06
9.07607e-09
2.56774e-06
9.26621e-09
2.5648e-06
9.44909e-09
2.56179e-06
9.62522e-09
2.55872e-06
9.7951e-09
2.5556e-06
9.95929e-09
2.55242e-06
1.01182e-08
2.54919e-06
1.02723e-08
2.54591e-06
1.04219e-08
2.54257e-06
1.05675e-08
2.53919e-06
1.07094e-08
2.53577e-06
1.08481e-08
2.53229e-06
1.09839e-08
2.52878e-06
1.11172e-08
2.52521e-06
1.12486e-08
2.52161e-06
1.13783e-08
2.51796e-06
1.15068e-08
2.51427e-06
1.16347e-08
2.51054e-06
1.17623e-08
2.50677e-06
1.18904e-08
2.50295e-06
1.20194e-08
2.4991e-06
1.21502e-08
2.4952e-06
1.22836e-08
2.49125e-06
1.24208e-08
2.48726e-06
1.2563e-08
2.48322e-06
1.27119e-08
2.47914e-06
1.28695e-08
2.475e-06
1.30383e-08
2.4708e-06
1.32217e-08
2.46654e-06
1.34238e-08
2.46221e-06
1.365e-08
2.4578e-06
1.39068e-08
2.4533e-06
1.42044e-08
2.4487e-06
1.45513e-08
2.44396e-06
1.49705e-08
2.43908e-06
1.54654e-08
2.43401e-06
1.61013e-08
2.42872e-06
1.68331e-08
2.42311e-06
1.7887e-08
2.41719e-06
1.89708e-08
2.41071e-06
2.09242e-08
2.4037e-06
2.24503e-08
2.39578e-06
2.65075e-08
2.38672e-06
2.85502e-08
2.37628e-06
3.76387e-08
2.36283e-06
4.09635e-08
2.3482e-06
6.29761e-08
2.32528e-06
7.17383e-08
2.3082e-06
1.31742e-07
1.65781e-07
2.27044e-06
-6.08009e-08
2.2892e-07
-1.24417e-07
2.3636e-07
-1.87471e-07
2.32677e-07
-2.50341e-07
2.31604e-07
-3.12464e-07
2.2842e-07
-3.73459e-07
2.23599e-07
-4.32931e-07
2.17191e-07
-4.90428e-07
2.09077e-07
-5.45457e-07
1.99149e-07
-5.97484e-07
1.8731e-07
-6.45938e-07
1.73476e-07
-6.90206e-07
1.57568e-07
-7.29656e-07
1.39563e-07
-7.63645e-07
1.1946e-07
-7.9153e-07
9.73022e-08
-8.12708e-07
7.32245e-08
-8.26638e-07
4.73983e-08
-8.32842e-07
2.01056e-08
-8.30849e-07
-8.72881e-09
-8.20266e-07
-3.87953e-08
-8.00999e-07
-6.9226e-08
-7.73085e-07
-9.9669e-08
-7.36658e-07
-1.29706e-07
-6.92046e-07
-1.5889e-07
-6.39691e-07
-1.86827e-07
-5.80128e-07
-2.13162e-07
-5.1398e-07
-2.3759e-07
-4.41993e-07
-2.59817e-07
-3.64826e-07
-2.79747e-07
-2.83285e-07
-2.97184e-07
-1.98137e-07
-3.12104e-07
-1.10066e-07
-3.24519e-07
-1.98042e-08
-3.34414e-07
7.19506e-08
-3.41935e-07
1.64613e-07
-3.47204e-07
2.57621e-07
-3.50343e-07
3.5047e-07
-3.51514e-07
4.42711e-07
-3.5089e-07
5.33953e-07
-3.48651e-07
6.23858e-07
-3.44976e-07
7.12136e-07
-3.40041e-07
7.98546e-07
-3.34017e-07
8.82892e-07
-3.27063e-07
9.65012e-07
-3.19332e-07
1.04478e-06
-3.10963e-07
1.12211e-06
-3.02084e-07
1.19693e-06
-2.92809e-07
1.2692e-06
-2.83243e-07
1.33889e-06
-2.73477e-07
1.406e-06
-2.63592e-07
1.47054e-06
-2.53659e-07
1.53254e-06
-2.43739e-07
1.59202e-06
-2.33884e-07
1.64903e-06
-2.24138e-07
1.70361e-06
-2.14539e-07
1.75582e-06
-2.05118e-07
1.80572e-06
-1.959e-07
1.85337e-06
-1.86905e-07
1.89883e-06
-1.7815e-07
1.94217e-06
-1.69647e-07
1.98345e-06
-1.61404e-07
2.02275e-06
-1.53428e-07
2.06014e-06
-1.45722e-07
2.09567e-06
-1.38287e-07
2.12941e-06
-1.31124e-07
2.16145e-06
-1.24231e-07
2.19182e-06
-1.17604e-07
2.22061e-06
-1.1124e-07
2.24787e-06
-1.05133e-07
2.27367e-06
-9.92784e-08
2.29806e-06
-9.367e-08
2.3211e-06
-8.8301e-08
2.34285e-06
-8.31648e-08
2.36336e-06
-7.82542e-08
2.38269e-06
-7.35621e-08
2.40088e-06
-6.90812e-08
2.41799e-06
-6.48042e-08
2.43406e-06
-6.07236e-08
2.44914e-06
-5.68325e-08
2.46327e-06
-5.31234e-08
2.4765e-06
-4.95895e-08
2.48886e-06
-4.62237e-08
2.5004e-06
-4.30192e-08
2.51116e-06
-3.99696e-08
2.52117e-06
-3.70682e-08
2.53047e-06
-3.43089e-08
2.53909e-06
-3.16854e-08
2.54706e-06
-2.9192e-08
2.55441e-06
-2.68228e-08
2.56118e-06
-2.45723e-08
2.56739e-06
-2.24352e-08
2.57308e-06
-2.04065e-08
2.57826e-06
-1.8481e-08
2.58296e-06
-1.66539e-08
2.58721e-06
-1.49209e-08
2.59102e-06
-1.32771e-08
2.59443e-06
-1.17181e-08
2.59745e-06
-1.02403e-08
2.6001e-06
-8.83929e-09
2.6024e-06
-7.5107e-09
2.60437e-06
-6.25107e-09
2.60602e-06
-5.05815e-09
2.60739e-06
-3.92872e-09
2.60848e-06
-2.85743e-09
2.60929e-06
-1.83979e-09
2.60985e-06
-8.75004e-10
2.61016e-06
3.43816e-11
2.61025e-06
8.84302e-10
2.61013e-06
1.68705e-09
2.6098e-06
2.44526e-09
2.60927e-06
3.16274e-09
2.60857e-06
3.84244e-09
2.60768e-06
4.48717e-09
2.60664e-06
5.09925e-09
2.60544e-06
5.6806e-09
2.60409e-06
6.23275e-09
2.60261e-06
6.75703e-09
2.601e-06
7.25488e-09
2.59926e-06
7.72768e-09
2.5974e-06
8.1767e-09
2.59543e-06
8.60328e-09
2.59336e-06
9.00882e-09
2.59118e-06
9.39448e-09
2.58891e-06
9.76159e-09
2.58655e-06
1.01113e-08
2.5841e-06
1.04447e-08
2.58157e-06
1.07629e-08
2.57896e-06
1.10667e-08
2.57627e-06
1.13573e-08
2.57351e-06
1.16354e-08
2.57069e-06
1.19021e-08
2.5678e-06
1.21579e-08