/*--------------------------------*- C++ -*----------------------------------*\
  =========                 |
  \\      /  F ield         | OpenFOAM: The Open Source CFD Toolbox
   \\    /   O peration     | Website:  https://openfoam.org
    \\  /    A nd           | Version:  7
     \\/     M anipulation  |
\*---------------------------------------------------------------------------*/
FoamFile
{
    version     2.0;
    format      ascii;
    class       surfaceScalarField;
    location    "0.009";
    object      phi_0;
}
// * * * * * * * * * * * * * * * * * * * * * * * * * * * * * * * * * * * * * //

dimensions      [0 3 -1 0 0 0 0];

internalField   nonuniform List<scalar> 
24170
(
1.38994e-06
1.8884e-07
1.25479e-06
1.35148e-07
1.12627e-06
1.28517e-07
1.021e-06
1.05273e-07
9.25131e-07
9.58681e-08
8.31685e-07
9.34459e-08
7.46234e-07
8.54517e-08
6.76234e-07
6.99998e-08
6.23887e-07
5.23466e-08
5.87841e-07
3.60458e-08
5.65201e-07
2.26403e-08
5.52983e-07
1.22178e-08
5.50092e-07
2.89088e-09
5.52673e-07
-2.58031e-09
5.63819e-07
-1.11464e-08
5.77541e-07
-1.37216e-08
5.97254e-07
-1.97134e-08
-2.91458e-08
6.264e-07
1.64482e-06
2.23339e-07
1.63158e-06
1.48392e-07
1.61763e-06
1.42466e-07
1.59757e-06
1.2533e-07
1.57432e-06
1.19118e-07
1.54497e-06
1.22801e-07
1.50727e-06
1.23155e-07
1.46439e-06
1.12874e-07
1.42339e-06
9.33444e-08
1.39102e-06
6.84211e-08
1.37018e-06
4.34825e-08
1.36006e-06
2.23331e-08
1.3573e-06
5.65415e-09
1.36035e-06
-5.6374e-09
1.36505e-06
-1.58464e-08
1.37461e-06
-2.32784e-08
1.38436e-06
-2.94653e-08
-4.60065e-08
1.40122e-06
1.76715e-06
2.71163e-07
1.76584e-06
1.49703e-07
1.76311e-06
1.45197e-07
1.75237e-06
1.36068e-07
1.74998e-06
1.21512e-07
1.7549e-06
1.17874e-07
1.75642e-06
1.21636e-07
1.74899e-06
1.20306e-07
1.7359e-06
1.06439e-07
1.72339e-06
8.09229e-08
1.71592e-06
5.09622e-08
1.71401e-06
2.42411e-08
1.71684e-06
2.82418e-09
1.7221e-06
-1.09025e-08
1.72775e-06
-2.14972e-08
1.73498e-06
-3.05005e-08
1.74257e-06
-3.70632e-08
-5.05938e-08
1.74716e-06
1.93271e-06
2.81212e-07
1.92033e-06
1.6208e-07
1.90613e-06
1.59401e-07
1.88684e-06
1.55359e-07
1.87421e-06
1.34137e-07
1.87201e-06
1.20079e-07
1.8757e-06
1.17939e-07
1.8805e-06
1.15506e-07
1.88471e-06
1.02236e-07
1.88789e-06
7.77406e-08
1.88999e-06
4.88584e-08
1.89136e-06
2.28679e-08
1.89145e-06
2.73914e-09
1.89337e-06
-1.28189e-08
1.89653e-06
-2.46655e-08
1.90154e-06
-3.55086e-08
1.90827e-06
-4.3792e-08
-5.37709e-08
1.91145e-06
2.04929e-06
3.12935e-07
2.04781e-06
1.63558e-07
2.05355e-06
1.53656e-07
2.04557e-06
1.63342e-07
2.024e-06
1.55711e-07
2.00283e-06
1.41247e-07
1.99509e-06
1.25675e-07
2.00214e-06
1.08454e-07
2.01622e-06
8.81621e-08
2.02808e-06
6.58733e-08
2.03289e-06
4.40522e-08
2.03168e-06
2.40819e-08
2.0295e-06
4.91414e-09
2.02909e-06
-1.24079e-08
2.03228e-06
-2.78551e-08
2.03796e-06
-4.11924e-08
2.04507e-06
-5.08987e-08
-5.86086e-08
2.04991e-06
2.23915e-06
3.30988e-07
2.20079e-06
2.01919e-07
2.19093e-06
1.63515e-07
2.18373e-06
1.70541e-07
2.16948e-06
1.69962e-07
2.1549e-06
1.55825e-07
2.14851e-06
1.32068e-07
2.15133e-06
1.05629e-07
2.15832e-06
8.11713e-08
2.16466e-06
5.95381e-08
2.16926e-06
3.94464e-08
2.17356e-06
1.97901e-08
2.1782e-06
2.72932e-10
2.18445e-06
-1.86566e-08
2.19083e-06
-3.42425e-08
2.19591e-06
-4.62646e-08
2.19957e-06
-5.45676e-08
-6.02546e-08
2.20122e-06
2.39134e-06
3.54759e-07
2.38626e-06
2.06997e-07
2.38149e-06
1.68281e-07
2.36914e-06
1.82899e-07
2.35205e-06
1.87048e-07
2.33648e-06
1.71397e-07
2.32698e-06
1.41564e-07
2.32488e-06
1.07738e-07
2.32874e-06
7.73039e-08
2.33603e-06
5.22532e-08
2.34455e-06
3.09253e-08
2.35284e-06
1.15012e-08
2.35975e-06
-6.63799e-09
2.36357e-06
-2.24803e-08
2.36525e-06
-3.59171e-08
2.36555e-06
-4.6564e-08
2.36628e-06
-5.53012e-08
-6.23607e-08
2.36839e-06
2.55642e-06
4.03149e-07
2.54126e-06
2.22154e-07
2.5344e-06
1.75145e-07
2.53128e-06
1.86013e-07
2.52586e-06
1.92473e-07
2.51625e-06
1.81007e-07
2.50516e-06
1.52649e-07
2.49735e-06
1.15555e-07
2.49605e-06
7.86011e-08
2.50189e-06
4.64143e-08
2.51262e-06
2.01874e-08
2.5248e-06
-6.72051e-10
2.53628e-06
-1.81171e-08
2.54553e-06
-3.17339e-08
2.55255e-06
-4.29403e-08
2.55823e-06
-5.22351e-08
2.5635e-06
-6.05742e-08
-6.81694e-08
2.56931e-06
2.74374e-06
4.02431e-07
2.73305e-06
2.32847e-07
2.72136e-06
1.86834e-07
2.73181e-06
1.75562e-07
2.74894e-06
1.75346e-07
2.75894e-06
1.71004e-07
2.75804e-06
1.53547e-07
2.74956e-06
1.24035e-07
2.73981e-06
8.8352e-08
2.73416e-06
5.20646e-08
2.73517e-06
1.91774e-08
2.74191e-06
-7.40849e-09
2.75089e-06
-2.7094e-08
2.76036e-06
-4.12089e-08
2.76874e-06
-5.13222e-08
2.77594e-06
-5.94314e-08
2.78217e-06
-6.68027e-08
-7.41691e-08
2.78817e-06
2.98509e-06
4.68183e-07
2.91737e-06
3.00567e-07
2.90921e-06
1.94995e-07
2.92439e-06
1.60381e-07
2.93743e-06
1.62308e-07
2.94184e-06
1.66598e-07
2.93936e-06
1.56022e-07
2.93514e-06
1.28263e-07
2.93467e-06
8.88217e-08
2.94029e-06
4.64378e-08
2.95006e-06
9.41228e-09
2.96179e-06
-1.91384e-08
2.97305e-06
-3.8358e-08
2.98293e-06
-5.10834e-08
2.99142e-06
-5.98114e-08
2.99861e-06
-6.66269e-08
3.00469e-06
-7.28787e-08
-7.9208e-08
3.00973e-06
3.20869e-06
4.93079e-07
3.19178e-06
3.17476e-07
3.17872e-06
2.08061e-07
3.16779e-06
1.71309e-07
3.15631e-06
1.73787e-07
3.14487e-06
1.78042e-07
3.13879e-06
1.621e-07
3.14146e-06
1.25598e-07
3.14973e-06
8.0544e-08
3.15757e-06
3.86015e-08
3.16242e-06
4.5587e-09
3.16365e-06
-2.03676e-08
3.16483e-06
-3.95344e-08
3.16823e-06
-5.44823e-08
3.17465e-06
-6.62363e-08
3.18363e-06
-7.56051e-08
3.19359e-06
-8.28401e-08
-8.88262e-08
3.20321e-06
2.89794e-06
5.22781e-07
2.87565e-06
3.39772e-07
2.86237e-06
2.21338e-07
2.84392e-06
1.89757e-07
2.82874e-06
1.88966e-07
2.82572e-06
1.8107e-07
2.83643e-06
1.51389e-07
2.85427e-06
1.07757e-07
2.87002e-06
6.47961e-08
2.87802e-06
3.05933e-08
2.87776e-06
4.81871e-09
2.87477e-06
-1.73713e-08
2.87294e-06
-3.77049e-08
2.87521e-06
-5.6757e-08
2.88181e-06
-7.28343e-08
2.89116e-06
-8.495e-08
2.90109e-06
-9.27779e-08
-9.78187e-08
2.91009e-06
3.45409e-06
5.01996e-07
3.47954e-06
3.14322e-07
3.47425e-06
2.26632e-07
3.4474e-06
2.16601e-07
3.43124e-06
2.05127e-07
3.43921e-06
1.73105e-07
3.46441e-06
1.26188e-07
3.49238e-06
7.97834e-08
3.51196e-06
4.52212e-08
3.52015e-06
2.23987e-08
3.52123e-06
3.73773e-09
3.51929e-06
-1.54311e-08
3.51893e-06
-3.73449e-08
3.52115e-06
-5.89761e-08
3.52515e-06
-7.6831e-08
3.52936e-06
-8.91655e-08
3.53238e-06
-9.57954e-08
-9.94692e-08
3.53403e-06
4.27291e-06
4.44886e-07
4.28108e-06
3.06159e-07
4.25751e-06
2.50195e-07
4.2432e-06
2.30916e-07
4.24981e-06
1.98519e-07
4.27005e-06
1.52864e-07
4.28697e-06
1.09269e-07
4.29084e-06
7.59095e-08
4.28515e-06
5.09077e-08
4.27972e-06
2.78317e-08
4.28088e-06
2.58238e-09
4.29083e-06
-2.53817e-08
4.30454e-06
-5.10545e-08
4.31586e-06
-7.0304e-08
4.32036e-06
-8.13264e-08
4.31689e-06
-8.56982e-08
4.30756e-06
-8.64675e-08
-8.89655e-08
4.29706e-06
5.16755e-06
3.66537e-07
5.21581e-06
2.57903e-07
5.23791e-06
2.28092e-07
5.24988e-06
2.18946e-07
5.25424e-06
1.94157e-07
5.2486e-06
1.58504e-07
5.23347e-06
1.24404e-07
5.21656e-06
9.28223e-08
5.20885e-06
5.86081e-08
5.21688e-06
1.98104e-08
5.23876e-06
-1.93005e-08
5.2651e-06
-5.17206e-08
5.28639e-06
-7.23486e-08
5.29654e-06
-8.04485e-08
5.29511e-06
-7.99042e-08
5.28622e-06
-7.68046e-08
5.27569e-06
-7.5942e-08
-8.14842e-08
5.26821e-06
6.4574e-06
3.66872e-07
6.37593e-06
3.39367e-07
6.33214e-06
2.71885e-07
6.32271e-06
2.28372e-07
6.32688e-06
1.89988e-07
6.32923e-06
1.56159e-07
6.3234e-06
1.30234e-07
6.31372e-06
1.02499e-07
6.30842e-06
6.39059e-08
6.31216e-06
1.60744e-08
6.32395e-06
-3.10883e-08
6.3394e-06
-6.71764e-08
6.35485e-06
-8.77972e-08
6.3691e-06
-9.46983e-08
6.38269e-06
-9.34947e-08
6.39673e-06
-9.08378e-08
6.41184e-06
-9.10516e-08
-9.68472e-08
6.4272e-06
7.71447e-06
5.28808e-07
7.64856e-06
4.05269e-07
7.6389e-06
2.81549e-07
7.66901e-06
1.9826e-07
7.72047e-06
1.38533e-07
7.7738e-06
1.0282e-07
7.81973e-06
8.43055e-08
7.85545e-06
6.67817e-08
7.87802e-06
4.13365e-08
7.8838e-06
1.02979e-08
7.87279e-06
-2.00857e-08
7.84954e-06
-4.39187e-08
7.82218e-06
-6.04378e-08
7.79892e-06
-7.14457e-08
7.78492e-06
-7.9492e-08
7.78133e-06
-8.72437e-08
7.78648e-06
-9.62031e-08
-1.06875e-07
7.79651e-06
9.32026e-06
3.34314e-07
9.42032e-06
3.05216e-07
9.45881e-06
2.43059e-07
9.48701e-06
1.70054e-07
9.50832e-06
1.17225e-07
9.51661e-06
9.45282e-08
9.51485e-06
8.6072e-08
9.51024e-06
7.13915e-08
9.50714e-06
4.44305e-08
9.50617e-06
1.12743e-08
9.50481e-06
-1.87266e-08
9.50253e-06
-4.16403e-08
9.49996e-06
-5.78641e-08
9.49827e-06
-6.97594e-08
9.49851e-06
-7.97315e-08
9.50075e-06
-8.94812e-08
9.50389e-06
-9.93513e-08
-1.09798e-07
9.50682e-06
1.18171e-05
3.67954e-07
1.17501e-05
3.72304e-07
1.16747e-05
3.18395e-07
1.16214e-05
2.2336e-07
1.15845e-05
1.54131e-07
1.15628e-05
1.16251e-07
1.15555e-05
9.33026e-08
1.15594e-05
6.75088e-08
1.15697e-05
3.4134e-08
1.15828e-05
-1.78237e-09
1.16015e-05
-3.74823e-08
1.16247e-05
-6.47609e-08
1.16508e-05
-8.39609e-08
1.16773e-05
-9.6312e-08
1.17011e-05
-1.03517e-07
1.17194e-05
-1.07818e-07
1.17306e-05
-1.10539e-07
-1.13522e-07
1.17343e-05
8.42739e-06
5.23115e-07
8.37375e-06
4.25943e-07
8.39832e-06
2.93821e-07
8.42442e-06
1.97263e-07
8.43042e-06
1.48134e-07
8.42495e-06
1.21718e-07
8.43063e-06
8.76236e-08
8.45661e-06
4.1529e-08
8.49611e-06
-5.37004e-09
8.53284e-06
-3.85085e-08
8.55456e-06
-5.92055e-08
8.55999e-06
-7.01836e-08
8.55295e-06
-7.6924e-08
8.53986e-06
-8.32187e-08
8.52636e-06
-9.00234e-08
8.51564e-06
-9.70925e-08
8.50849e-06
-1.0339e-07
-1.08385e-07
8.50335e-06
7.31163e-06
4.28993e-07
7.37842e-06
3.5915e-07
7.38877e-06
2.83468e-07
7.38606e-06
1.99978e-07
7.39482e-06
1.39369e-07
7.41802e-06
9.85168e-08
7.43977e-06
6.58832e-08
7.44567e-06
3.56194e-08
7.43351e-06
6.79504e-09
7.41638e-06
-2.13775e-08
7.40304e-06
-4.58645e-08
7.39876e-06
-6.59102e-08
7.40266e-06
-8.08237e-08
7.41e-06
-9.05556e-08
7.41561e-06
-9.56356e-08
7.41598e-06
-9.74546e-08
7.40963e-06
-9.70439e-08
-9.63541e-08
7.3976e-06
6.41349e-06
4.11849e-07
6.39617e-06
3.7647e-07
6.4237e-06
2.55944e-07
6.44895e-06
1.74722e-07
6.4723e-06
1.16021e-07
6.49955e-06
7.1273e-08
6.52725e-06
3.81769e-08
6.54915e-06
1.3724e-08
6.563e-06
-7.05623e-09
6.56897e-06
-2.73467e-08
6.57149e-06
-4.8385e-08
6.57172e-06
-6.6144e-08
6.56905e-06
-7.81546e-08
6.56229e-06
-8.3793e-08
6.55104e-06
-8.43817e-08
6.53621e-06
-8.26235e-08
6.51996e-06
-8.08e-08
-8.11985e-08
6.50481e-06
5.53054e-06
3.76691e-07
5.58551e-06
3.21509e-07
5.62134e-06
2.20111e-07
5.64744e-06
1.48619e-07
5.66514e-06
9.83182e-08
5.68373e-06
5.26833e-08
5.71058e-06
1.13317e-08
5.74807e-06
-2.37634e-08
5.78719e-06
-4.61773e-08
5.81786e-06
-5.80205e-08
5.83263e-06
-6.31563e-08
5.83075e-06
-6.42641e-08
5.81622e-06
-6.3618e-08
5.79533e-06
-6.29094e-08
5.77415e-06
-6.31967e-08
5.75657e-06
-6.5051e-08
5.74426e-06
-6.84886e-08
-7.38563e-08
5.73692e-06
4.80462e-06
4.58219e-07
4.87021e-06
2.5592e-07
4.92956e-06
1.60757e-07
4.9706e-06
1.0758e-07
4.99951e-06
6.94041e-08
5.02016e-06
3.20347e-08
5.03375e-06
-2.25703e-09
5.03324e-06
-2.32542e-08
5.02265e-06
-3.5587e-08
5.0066e-06
-4.19731e-08
4.99106e-06
-4.76142e-08
4.98087e-06
-5.40752e-08
4.97784e-06
-6.05874e-08
4.98084e-06
-6.59088e-08
4.98717e-06
-6.95201e-08
4.99403e-06
-7.19205e-08
4.99934e-06
-7.37931e-08
-7.65873e-08
5.00207e-06
4.22034e-06
4.45827e-07
4.28236e-06
1.93898e-07
4.34012e-06
1.03e-07
4.36774e-06
7.99577e-08
4.37851e-06
5.86319e-08
4.38494e-06
2.56045e-08
4.38952e-06
-6.83616e-09
4.3951e-06
-2.88307e-08
4.39861e-06
-3.91013e-08
4.40151e-06
-4.48677e-08
4.40464e-06
-5.07449e-08
4.40818e-06
-5.76131e-08
4.41186e-06
-6.42663e-08
4.41547e-06
-6.95254e-08
4.41909e-06
-7.31411e-08
4.42294e-06
-7.57632e-08
4.42721e-06
-7.80683e-08
-8.12206e-08
4.43185e-06
3.64782e-06
3.66033e-07
3.72147e-06
1.2025e-07
3.77092e-06
5.35475e-08
3.80634e-06
4.45387e-08
3.83995e-06
2.50205e-08
3.87008e-06
-4.52152e-09
3.89353e-06
-3.02908e-08
3.91157e-06
-4.68659e-08
3.92549e-06
-5.30183e-08
3.93456e-06
-5.3943e-08
3.93836e-06
-5.45398e-08
3.93802e-06
-5.72762e-08
3.936e-06
-6.22523e-08
3.93489e-06
-6.84121e-08
3.93614e-06
-7.43925e-08
3.93981e-06
-7.94295e-08
3.94483e-06
-8.30883e-08
-8.54484e-08
3.94906e-06
3.24503e-06
2.38881e-07
3.30484e-06
6.04363e-08
3.33151e-06
2.68839e-08
3.3644e-06
1.16509e-08
3.39406e-06
-4.6456e-09
3.40987e-06
-2.03296e-08
3.41505e-06
-3.54697e-08
3.4185e-06
-5.03121e-08
3.42502e-06
-5.95413e-08
3.4339e-06
-6.2823e-08
3.44315e-06
-6.37943e-08
3.45147e-06
-6.55888e-08
3.45815e-06
-6.89362e-08
3.46263e-06
-7.28943e-08
3.46439e-06
-7.61554e-08
3.46313e-06
-7.81651e-08
3.45891e-06
-7.88705e-08
-7.92206e-08
3.45268e-06
2.85973e-06
2.0431e-07
2.91593e-06
4.24419e-09
2.93612e-06
6.69461e-09
2.95165e-06
-3.88293e-09
2.96686e-06
-1.98528e-08
2.9853e-06
-3.87736e-08
3.00686e-06
-5.70289e-08
3.02611e-06
-6.95579e-08
3.03979e-06
-7.32304e-08
3.04762e-06
-7.06506e-08
3.05075e-06
-6.69232e-08
3.05058e-06
-6.5422e-08
3.04821e-06
-6.65573e-08
3.0444e-06
-6.90919e-08
3.03989e-06
-7.16466e-08
3.03529e-06
-7.3566e-08
3.03129e-06
-7.48616e-08
-7.63928e-08
3.02846e-06
2.48515e-06
1.08116e-07
2.52318e-06
-3.37789e-08
2.55842e-06
-2.8547e-08
2.59763e-06
-4.30934e-08
2.63165e-06
-5.38714e-08
2.6533e-06
-6.04273e-08
2.66145e-06
-6.51746e-08
2.65842e-06
-6.65327e-08
2.64895e-06
-6.37636e-08
2.63713e-06
-5.88242e-08
2.62459e-06
-5.43877e-08
2.61121e-06
-5.20357e-08
2.59639e-06
-5.17463e-08
2.57993e-06
-5.26243e-08
2.56189e-06
-5.36055e-08
2.54237e-06
-5.40531e-08
2.52171e-06
-5.41959e-08
-5.46444e-08
2.49996e-06
2.18112e-06
2.14735e-06
2.1188e-06
2.0757e-06
2.02183e-06
1.96141e-06
1.89623e-06
1.8297e-06
1.76594e-06
1.70711e-06
1.65272e-06
1.60069e-06
1.54894e-06
1.49632e-06
1.44271e-06
1.38866e-06
1.33446e-06
1.27982e-06
-5.34848e-08
5.34848e-08
-1.0837e-07
5.48847e-08
-1.62317e-07
5.3947e-08
-2.16091e-07
5.37744e-08
-2.69232e-07
5.31415e-08
-3.21341e-07
5.21089e-08
-3.72037e-07
5.06956e-08
-4.2092e-07
4.88835e-08
-4.67565e-07
4.66446e-08
-5.11512e-07
4.39465e-08
-5.5229e-07
4.07785e-08
-5.89417e-07
3.71271e-08
-6.22396e-07
3.29784e-08
-6.50732e-07
2.83364e-08
-6.73939e-07
2.32073e-08
-6.91576e-07
1.76367e-08
-7.03252e-07
1.16764e-08
-7.08651e-07
5.39875e-09
-7.0749e-07
-1.16074e-09
-6.99565e-07
-7.92581e-09
-6.84793e-07
-1.47719e-08
-6.63199e-07
-2.15936e-08
-6.34846e-07
-2.83533e-08
-5.99891e-07
-3.49545e-08
-5.58572e-07
-4.13188e-08
-5.11197e-07
-4.73756e-08
-4.58155e-07
-5.30414e-08
-3.99895e-07
-5.826e-08
-3.36845e-07
-6.30499e-08
-2.69599e-07
-6.72468e-08
-1.98654e-07
-7.09446e-08
-1.2453e-07
-7.41236e-08
-4.78701e-08
-7.66604e-08
3.08081e-08
-7.86782e-08
1.10982e-07
-8.01741e-08
1.92145e-07
-8.11628e-08
2.73817e-07
-8.16724e-08
3.55555e-07
-8.17378e-08
4.36951e-07
-8.13961e-08
5.17638e-07
-8.06863e-08
5.97286e-07
-7.9648e-08
6.75606e-07
-7.83207e-08
7.52349e-07
-7.6743e-08
8.27301e-07
-7.4952e-08
9.00284e-07
-7.29826e-08
9.71151e-07
-7.08677e-08
1.03979e-06
-6.86374e-08
1.10611e-06
-6.63191e-08
1.17005e-06
-6.39379e-08
1.23156e-06
-6.1516e-08
1.29063e-06
-5.9073e-08
1.34726e-06
-5.66263e-08
1.40145e-06
-5.41908e-08
1.45323e-06
-5.17794e-08
1.50263e-06
-4.9403e-08
1.54971e-06
-4.70709e-08
1.5945e-06
-4.47906e-08
1.63706e-06
-4.25683e-08
1.67747e-06
-4.04087e-08
1.71579e-06
-3.83155e-08
1.75208e-06
-3.62916e-08
1.78642e-06
-3.43387e-08
1.81888e-06
-3.2458e-08
1.84953e-06
-3.06501e-08
1.87844e-06
-2.89148e-08
1.90569e-06
-2.72515e-08
1.93135e-06
-2.56595e-08
1.95549e-06
-2.41374e-08
1.97817e-06
-2.26838e-08
1.99947e-06
-2.12969e-08
2.01945e-06
-1.99749e-08
2.03816e-06
-1.87157e-08
2.05568e-06
-1.75172e-08
2.07206e-06
-1.63774e-08
2.08735e-06
-1.52938e-08
2.10161e-06
-1.42645e-08
2.1149e-06
-1.3287e-08
2.12726e-06
-1.23593e-08
2.13874e-06
-1.14792e-08
2.14938e-06
-1.06445e-08
2.15924e-06
-9.85308e-09
2.16834e-06
-9.103e-09
2.17673e-06
-8.39232e-09
2.18445e-06
-7.71908e-09
2.19153e-06
-7.08146e-09
2.19801e-06
-6.47768e-09
2.20392e-06
-5.90608e-09
2.20928e-06
-5.36491e-09
2.21413e-06
-4.85281e-09
2.2185e-06
-4.36815e-09
2.22241e-06
-3.90933e-09
2.22589e-06
-3.47557e-09
2.22895e-06
-3.06508e-09
2.23163e-06
-2.67604e-09
2.23394e-06
-2.30896e-09
2.2359e-06
-1.96194e-09
2.23753e-06
-1.63108e-09
2.23885e-06
-1.31987e-09
2.23988e-06
-1.02723e-09
2.24062e-06
-7.43324e-10
2.2411e-06
-4.75645e-10
2.24132e-06
-2.25779e-10
2.2413e-06
2.62314e-11
2.241e-06
2.98199e-10
2.24044e-06
5.56192e-10
2.23964e-06
8.02191e-10
2.2386e-06
1.03485e-09
2.23736e-06
1.24812e-09
2.23592e-06
1.43735e-09
2.23432e-06
1.60305e-09
2.23257e-06
1.74867e-09
2.23069e-06
1.87909e-09
2.22869e-06
1.99878e-09
2.22658e-06
2.11093e-09
2.22436e-06
2.21727e-09
2.22204e-06
2.31869e-09
2.21963e-06
2.41548e-09
2.21712e-06
2.50799e-09
2.21452e-06
2.59625e-09
2.21184e-06
2.68063e-09
2.20908e-06
2.76123e-09
2.20624e-06
2.83838e-09
2.20333e-06
2.91222e-09
2.20035e-06
2.98308e-09
2.1973e-06
3.05109e-09
2.19418e-06
3.11647e-09
2.191e-06
3.17946e-09
2.18776e-06
3.24017e-09
2.18446e-06
3.29877e-09
2.18111e-06
3.35549e-09
2.1777e-06
3.41036e-09
2.17423e-06
3.46363e-09
2.17072e-06
3.51529e-09
2.16715e-06
3.56557e-09
2.16354e-06
3.61455e-09
2.15987e-06
3.6624e-09
2.15617e-06
3.70914e-09
2.15241e-06
3.755e-09
2.14861e-06
3.79996e-09
2.14477e-06
3.84414e-09
2.14088e-06
3.88765e-09
2.13695e-06
3.93056e-09
2.13297e-06
3.97303e-09
2.12896e-06
4.01511e-09
2.1249e-06
4.05697e-09
2.1208e-06
4.09869e-09
2.11666e-06
4.14044e-09
2.11248e-06
4.18236e-09
2.10826e-06
4.22464e-09
2.10399e-06
4.26745e-09
2.09968e-06
4.31097e-09
2.09532e-06
4.3555e-09
2.09092e-06
4.40137e-09
2.08647e-06
4.44893e-09
2.08197e-06
4.49872e-09
2.07742e-06
4.55134e-09
2.07281e-06
4.6076e-09
2.06815e-06
4.66847e-09
2.06341e-06
4.73519e-09
2.0586e-06
4.8094e-09
2.05371e-06
4.89318e-09
2.04872e-06
4.98932e-09
2.04362e-06
5.10109e-09
2.03838e-06
5.23378e-09
2.03299e-06
5.39198e-09
2.02741e-06
5.58714e-09
2.02158e-06
5.82435e-09
2.01545e-06
6.1265e-09
2.00894e-06
6.51303e-09
2.00197e-06
6.97571e-09
1.99424e-06
7.72924e-09
1.98593e-06
8.30329e-09
1.97576e-06
1.01739e-08
1.96536e-06
1.04021e-08
1.94974e-06
1.56202e-08
1.93553e-06
1.42044e-08
1.90576e-06
2.97712e-08
1.88182e-06
2.39403e-08
1.7994e-06
8.24257e-08
8.24983e-08
1.7169e-06
-5.66758e-08
1.10161e-07
-1.1463e-07
1.12839e-07
-1.71289e-07
1.10606e-07
-2.27501e-07
1.09987e-07
-2.82721e-07
1.08361e-07
-3.365e-07
1.05888e-07
-3.88421e-07
1.02616e-07
-4.38057e-07
9.85197e-08
-4.8497e-07
9.35578e-08
-5.2872e-07
8.76964e-08
-5.68862e-07
8.09202e-08
-6.04943e-07
7.32083e-08
-6.36534e-07
6.45694e-08
-6.63209e-07
5.50117e-08
-6.84568e-07
4.45664e-08
-7.00235e-07
3.33037e-08
-7.0986e-07
2.13016e-08
-7.13162e-07
8.70066e-09
-7.0972e-07
-4.60331e-09
-6.9924e-07
-1.84056e-08
-6.81632e-07
-3.23794e-08
-6.56841e-07
-4.63847e-08
-6.24954e-07
-6.02404e-08
-5.86119e-07
-7.37895e-08
-5.40591e-07
-8.68472e-08
-4.8872e-07
-9.92463e-08
-4.30911e-07
-1.10851e-07
-3.67614e-07
-1.21556e-07
-2.99431e-07
-1.31233e-07
-2.26802e-07
-1.39876e-07
-1.50381e-07
-1.47366e-07
-7.08255e-08
-1.53679e-07
1.1457e-08
-1.58943e-07
9.58232e-08
-1.63044e-07
1.81713e-07
-1.66064e-07
2.68611e-07
-1.68061e-07
3.56031e-07
-1.69093e-07
4.43525e-07
-1.69232e-07
5.30684e-07
-1.68554e-07
6.17137e-07
-1.67139e-07
7.02557e-07
-1.65068e-07
7.86656e-07
-1.6242e-07
8.69185e-07
-1.59272e-07
9.49932e-07
-1.55699e-07
1.02872e-06
-1.51771e-07
1.1054e-06
-1.47551e-07
1.17987e-06
-1.431e-07
1.25202e-06
-1.38473e-07
1.3218e-06
-1.33717e-07
1.38916e-06
-1.28876e-07
1.45408e-06
-1.23989e-07
1.51654e-06
-1.1909e-07
1.57656e-06
-1.14208e-07
1.63414e-06
-1.09368e-07
1.68933e-06
-1.0459e-07
1.74216e-06
-9.98942e-08
1.79266e-06
-9.52941e-08
1.84089e-06
-9.08021e-08
1.88691e-06
-8.64279e-08
1.93078e-06
-8.2179e-08
1.97254e-06
-7.80609e-08
2.01228e-06
-7.40778e-08
2.05006e-06
-7.02321e-08
2.08593e-06
-6.65253e-08
2.11998e-06
-6.29576e-08
2.15225e-06
-5.95285e-08
2.18283e-06
-5.62366e-08
2.21177e-06
-5.30801e-08
2.23914e-06
-5.00564e-08
2.26501e-06
-4.71627e-08
2.28943e-06
-4.43959e-08
2.31247e-06
-4.17523e-08
2.33418e-06
-3.92285e-08
2.35462e-06
-3.68205e-08
2.37385e-06
-3.45245e-08
2.39193e-06
-3.23366e-08
2.40889e-06
-3.02526e-08
2.4248e-06
-2.82687e-08
2.4397e-06
-2.6381e-08
2.45364e-06
-2.45854e-08
2.46667e-06
-2.28783e-08
2.47882e-06
-2.12557e-08
2.49014e-06
-1.97142e-08
2.50067e-06
-1.825e-08
2.51045e-06
-1.68598e-08
2.51951e-06
-1.55401e-08
2.5279e-06
-1.42879e-08
2.53563e-06
-1.30997e-08
2.54275e-06
-1.19728e-08
2.54929e-06
-1.0904e-08
2.55527e-06
-9.89076e-09
2.56072e-06
-8.93042e-09
2.56568e-06
-8.02007e-09
2.57016e-06
-7.15736e-09
2.57419e-06
-6.34037e-09
2.5778e-06
-5.56596e-09
2.581e-06
-4.83189e-09
2.58381e-06
-4.13741e-09
2.58627e-06
-3.47914e-09
2.58838e-06
-2.85434e-09
2.59016e-06
-2.26273e-09
2.59164e-06
-1.70247e-09
2.59284e-06
-1.17023e-09
2.59379e-06
-6.60283e-10
2.59452e-06
-1.70749e-10
2.59504e-06
2.88342e-10
2.59535e-06
7.21486e-10
2.59547e-06
1.12409e-09
2.59541e-06
1.49746e-09
2.59517e-06
1.84559e-09
2.59475e-06
2.17215e-09
2.59414e-06
2.48125e-09
2.59337e-06
2.77577e-09
2.59242e-06
3.05731e-09
2.59131e-06
3.32635e-09
2.59005e-06
3.58325e-09
2.58864e-06
3.82812e-09
2.58708e-06
4.06121e-09
2.5854e-06
4.283e-09
2.58358e-06
4.49401e-09
2.58165e-06
4.69478e-09
2.5796e-06
4.88591e-09
2.57744e-06
5.06797e-09
2.57519e-06
5.24156e-09
2.57283e-06
5.40726e-09
2.57038e-06
5.56557e-09
2.56784e-06
5.71691e-09
2.56522e-06
5.86181e-09
2.56252e-06
6.00069e-09
2.55974e-06
6.13396e-09
2.55689e-06
6.26203e-09
2.55397e-06
6.38528e-09
2.55098e-06
6.50401e-09
2.54793e-06
6.61862e-09
2.54481e-06
6.7294e-09
2.54164e-06
6.83662e-09
2.53841e-06
6.94066e-09
2.53512e-06
7.04172e-09
2.53178e-06
7.14009e-09
2.52839e-06
7.23601e-09
2.52495e-06
7.32974e-09
2.52145e-06
7.42144e-09
2.51792e-06
7.51148e-09
2.51433e-06
7.60005e-09
2.5107e-06
7.68751e-09
2.50703e-06
7.77407e-09
2.50331e-06
7.86005e-09
2.49954e-06
7.94572e-09
2.49574e-06
8.03147e-09
2.49189e-06
8.11765e-09
2.48799e-06
8.20471e-09
2.48405e-06
8.29318e-09
2.48007e-06
8.38358e-09
2.47604e-06
8.47677e-09
2.47197e-06
8.57358e-09
2.46784e-06
8.67519e-09
2.46367e-06
8.78297e-09
2.45944e-06
8.89875e-09
2.45515e-06
9.0248e-09
2.4508e-06
9.16402e-09
2.44637e-06
9.32026e-09
2.44186e-06
9.49806e-09
2.43726e-06
9.70437e-09
2.43254e-06
9.94602e-09
2.4277e-06
1.02372e-08
2.4227e-06
1.05846e-08
2.4175e-06
1.10262e-08
2.41208e-06
1.15445e-08
2.40631e-06
1.22796e-08
2.40025e-06
1.30424e-08
2.39353e-06
1.44504e-08
2.38639e-06
1.54366e-08
2.37798e-06
1.85834e-08
2.3689e-06
1.94897e-08
2.35732e-06
2.7195e-08
2.34402e-06
2.75111e-08
2.32545e-06
4.83342e-08
2.30058e-06
4.88156e-08
2.26835e-06
1.14655e-07
1.28041e-07
2.2228e-06
-5.77541e-08
1.67915e-07
-1.17349e-07
1.72434e-07
-1.76045e-07
1.69301e-07
-2.34462e-07
1.68404e-07
-2.92062e-07
1.65961e-07
-3.4843e-07
1.62256e-07
-4.03173e-07
1.57359e-07
-4.55861e-07
1.51207e-07
-5.06036e-07
1.43734e-07
-5.53221e-07
1.34881e-07
-5.96908e-07
1.24607e-07
-6.3657e-07
1.1287e-07
-6.7167e-07
9.96698e-08
-7.01676e-07
8.50173e-08
-7.26065e-07
6.89561e-08
-7.44343e-07
5.15815e-08
-7.56044e-07
3.30025e-08
-7.60787e-07
1.34436e-08
-7.58195e-07
-7.19552e-09
-7.47948e-07
-2.86527e-08
-7.29951e-07
-5.03763e-08
-7.0419e-07
-7.21451e-08
-6.70796e-07
-9.36349e-08
-6.29989e-07
-1.14596e-07
-5.82088e-07
-1.34748e-07
-5.27502e-07
-1.53832e-07
-4.66726e-07
-1.71627e-07
-4.00314e-07
-1.87968e-07
-3.28875e-07
-2.02672e-07
-2.53063e-07
-2.15688e-07
-1.73473e-07
-2.26956e-07
-9.07448e-08
-2.36407e-07
-5.6163e-09
-2.44071e-07
8.14044e-08
-2.50065e-07
1.69734e-07
-2.54394e-07
2.58833e-07
-2.57159e-07
3.48205e-07
-2.58465e-07
4.37402e-07
-2.58428e-07
5.26019e-07
-2.57172e-07
6.13701e-07
-2.54821e-07
7.00135e-07
-2.51502e-07
7.85052e-07
-2.47337e-07
8.68224e-07
-2.42444e-07
9.4946e-07
-2.36935e-07
1.0286e-06
-2.30915e-07
1.10553e-06
-2.2448e-07
1.18015e-06
-2.17717e-07
1.25239e-06
-2.10708e-07
1.32219e-06
-2.03522e-07
1.38954e-06
-1.96223e-07
1.45442e-06
-1.88867e-07
1.51683e-06
-1.81502e-07
1.57679e-06
-1.7417e-07
1.63433e-06
-1.66906e-07
1.68948e-06
-1.5974e-07
1.74228e-06
-1.52699e-07
1.79279e-06
-1.45802e-07
1.84106e-06
-1.39067e-07
1.88713e-06
-1.32508e-07
1.93109e-06
-1.26133e-07
1.97298e-06
-1.19952e-07
2.01287e-06
-1.1397e-07
2.05083e-06
-1.0819e-07
2.08692e-06
-1.02614e-07
2.1212e-06
-9.72416e-08
2.15375e-06
-9.20729e-08
2.18462e-06
-8.71054e-08
2.21387e-06
-8.23366e-08
2.24158e-06
-7.77628e-08
2.2678e-06
-7.33799e-08
2.29258e-06
-6.91834e-08
2.316e-06
-6.51685e-08
2.3381e-06
-6.13298e-08
2.35894e-06
-5.76622e-08
2.37858e-06
-5.416e-08
2.39706e-06
-5.08178e-08
2.41444e-06
-4.76298e-08
2.43076e-06
-4.45904e-08
2.44607e-06
-4.16942e-08
2.46042e-06
-3.89354e-08
2.47385e-06
-3.63087e-08
2.48641e-06
-3.38088e-08
2.49812e-06
-3.14305e-08
2.50904e-06
-2.91685e-08
2.5192e-06
-2.7018e-08
2.52863e-06
-2.49741e-08
2.53738e-06
-2.30321e-08
2.54546e-06
-2.11875e-08
2.55293e-06
-1.94359e-08
2.5598e-06
-1.7773e-08
2.5661e-06
-1.61948e-08
2.57187e-06
-1.46974e-08
2.57712e-06
-1.32768e-08
2.5819e-06
-1.19296e-08
2.58621e-06
-1.06524e-08
2.59008e-06
-9.44106e-09
2.59354e-06
-8.29284e-09
2.59661e-06
-7.20509e-09
2.59931e-06
-6.17335e-09
2.60165e-06
-5.19512e-09
2.60365e-06
-4.26817e-09
2.60534e-06
-3.38808e-09
2.60672e-06
-2.55215e-09
2.60782e-06
-1.75977e-09
2.60866e-06
-1.01216e-09
2.60926e-06
-3.10122e-10
2.60962e-06
3.57058e-10
2.60976e-06
9.83571e-10
2.60969e-06
1.57091e-09
2.60941e-06
2.1231e-09
2.60894e-06
2.64485e-09
2.60828e-06
3.13998e-09
2.60745e-06
3.61098e-09
2.60644e-06
4.05941e-09
2.60528e-06
4.48621e-09
2.60398e-06
4.89213e-09
2.60253e-06
5.27794e-09
2.60094e-06
5.64454e-09
2.59923e-06
5.9928e-09
2.5974e-06
6.32371e-09
2.59546e-06
6.63826e-09
2.59341e-06
6.9374e-09
2.59125e-06
7.22202e-09
2.589e-06
7.49314e-09
2.58666e-06
7.75152e-09
2.58423e-06
7.99805e-09
2.58171e-06
8.23347e-09
2.57911e-06
8.45845e-09
2.57644e-06
8.67375e-09
2.57369e-06
8.88003e-09
2.57088e-06
9.07788e-09
2.56799e-06
9.26793e-09
2.56505e-06
9.45073e-09
2.56204e-06
9.62681e-09
2.55897e-06
9.79663e-09
2.55585e-06
9.96077e-09
2.55267e-06
1.01196e-08
2.54944e-06
1.02737e-08
2.54615e-06
1.04232e-08
2.54282e-06
1.05688e-08
2.53944e-06
1.07107e-08
2.53601e-06
1.08493e-08
2.53254e-06
1.09851e-08
2.52902e-06
1.11183e-08
2.52546e-06
1.12496e-08
2.52185e-06
1.13793e-08
2.51821e-06
1.15078e-08
2.51452e-06
1.16356e-08
2.51078e-06
1.17633e-08
2.50701e-06
1.18913e-08
2.5032e-06
1.20203e-08
2.49934e-06
1.2151e-08
2.49544e-06
1.22844e-08
2.49149e-06
1.24216e-08
2.4875e-06
1.25638e-08
2.48346e-06
1.27126e-08
2.47938e-06
1.28702e-08
2.47524e-06
1.3039e-08
2.47104e-06
1.32224e-08
2.46678e-06
1.34244e-08
2.46245e-06
1.36506e-08
2.45804e-06
1.39073e-08
2.45354e-06
1.42048e-08
2.44893e-06
1.45517e-08
2.4442e-06
1.49708e-08
2.43932e-06
1.54656e-08
2.43424e-06
1.61013e-08
2.42895e-06
1.68331e-08
2.42335e-06
1.78865e-08
2.41742e-06
1.89705e-08
2.41095e-06
2.09228e-08
2.40393e-06
2.24495e-08
2.39601e-06
2.6505e-08
2.38695e-06
2.8548e-08
2.37651e-06
3.76355e-08
2.36307e-06
4.0959e-08
2.34843e-06
6.29713e-08
2.32551e-06
7.1735e-08
2.30842e-06
1.31742e-07
1.65798e-07
2.27067e-06
-6.07383e-08
2.28653e-07
-1.2426e-07
2.35955e-07
-1.87216e-07
2.32257e-07
-2.49985e-07
2.31174e-07
-3.12003e-07
2.27978e-07
-3.72888e-07
2.23142e-07
-4.32244e-07
2.16715e-07
-4.89619e-07
2.08581e-07
-5.44517e-07
1.98632e-07
-5.96406e-07
1.8677e-07
-6.44712e-07
1.72914e-07
-6.88826e-07
1.56983e-07
-7.28114e-07
1.38958e-07
-7.61934e-07
1.18838e-07
-7.89645e-07
9.66666e-08
-8.10644e-07
7.25808e-08
-8.24395e-07
4.67532e-08
-8.3042e-07
1.94685e-08
-8.28245e-07
-9.37013e-09
-8.17489e-07
-3.94092e-08
-7.98058e-07
-6.98073e-08
-7.69993e-07
-1.0021e-07
-7.33429e-07
-1.30199e-07
-6.88697e-07
-1.59328e-07
-6.36239e-07
-1.87205e-07
-5.76595e-07
-2.13476e-07
-5.10385e-07
-2.37837e-07
-4.38356e-07
-2.59997e-07
-3.61167e-07
-2.79861e-07
-2.79621e-07
-2.97233e-07
-1.94487e-07
-3.12091e-07
-1.06445e-07
-3.24449e-07
-1.62254e-08
-3.3429e-07
7.54731e-08
-3.41764e-07
1.68069e-07
-3.4699e-07
2.61001e-07
-3.50092e-07
3.53767e-07
-3.51231e-07
4.45919e-07
-3.50581e-07
5.37068e-07
-3.4832e-07
6.26876e-07
-3.44629e-07
7.15055e-07
-3.39681e-07
8.01365e-07
-3.33647e-07
8.8561e-07
-3.26689e-07
9.6763e-07
-3.18955e-07
1.0473e-06
-3.10587e-07
1.12453e-06
-3.0171e-07
1.19926e-06
-2.92441e-07
1.27143e-06
-2.82881e-07
1.34103e-06
-2.73123e-07
1.40805e-06
-2.63247e-07
1.47251e-06
-2.53324e-07
1.53442e-06
-2.43414e-07
1.59382e-06
-2.3357e-07
1.65075e-06
-2.23835e-07
1.70526e-06
-2.14248e-07
1.7574e-06
-2.04839e-07
1.80723e-06
-1.95632e-07
1.85481e-06
-1.86649e-07
1.90021e-06
-1.77906e-07
1.94349e-06
-1.69413e-07
1.98472e-06
-1.61181e-07
2.02396e-06
-1.53216e-07
2.06129e-06
-1.4552e-07
2.09678e-06
-1.38096e-07
2.13048e-06
-1.30942e-07
2.16246e-06
-1.24058e-07
2.1928e-06
-1.1744e-07
2.22155e-06
-1.11085e-07
2.24877e-06
-1.04986e-07
2.27453e-06
-9.91397e-08
2.29888e-06
-9.35388e-08
2.32189e-06
-8.8177e-08
2.34361e-06
-8.30477e-08
2.36409e-06
-7.81437e-08
2.38339e-06
-7.34578e-08
2.40156e-06
-6.89828e-08
2.41864e-06
-6.47115e-08
2.43468e-06
-6.06363e-08
2.44974e-06
-5.67502e-08
2.46385e-06
-5.3046e-08
2.47706e-06
-4.95166e-08
2.4894e-06
-4.61551e-08
2.50093e-06
-4.29548e-08
2.51167e-06
-3.9909e-08
2.52166e-06
-3.70113e-08
2.53094e-06
-3.42554e-08
2.53955e-06
-3.16352e-08
2.5475e-06
-2.91449e-08
2.55485e-06
-2.67785e-08
2.5616e-06
-2.45308e-08
2.56781e-06
-2.23963e-08
2.57348e-06
-2.037e-08
2.57865e-06
-1.84468e-08
2.58334e-06
-1.66219e-08
2.58758e-06
-1.48909e-08
2.59139e-06
-1.3249e-08
2.59479e-06
-1.16919e-08
2.5978e-06
-1.02157e-08
2.60044e-06
-8.81636e-09
2.60273e-06
-7.48927e-09
2.6047e-06
-6.23105e-09
2.60635e-06
-5.03949e-09
2.60771e-06
-3.91132e-09
2.60879e-06
-2.84117e-09
2.6096e-06
-1.82458e-09
2.61015e-06
-8.60763e-10
2.61046e-06
4.75e-11
2.61055e-06
8.96476e-10
2.61042e-06
1.69831e-09
2.61009e-06
2.45575e-09
2.60956e-06
3.17252e-09
2.60885e-06
3.85158e-09
2.60796e-06
4.49573e-09
2.60692e-06
5.10727e-09
2.60571e-06
5.68811e-09
2.60437e-06
6.23978e-09
2.60288e-06
6.76361e-09
2.60126e-06
7.26104e-09
2.59952e-06
7.73343e-09
2.59767e-06
8.18207e-09
2.5957e-06
8.60829e-09
2.59362e-06
9.01348e-09
2.59144e-06
9.39882e-09
2.58917e-06
9.76563e-09
2.58681e-06
1.01151e-08
2.58436e-06
1.04482e-08
2.58182e-06
1.07662e-08
2.57921e-06
1.10698e-08
2.57653e-06
1.13603e-08
2.57377e-06
1.16383e-08
2.57094e-06