/*--------------------------------*- C++ -*----------------------------------*\
  =========                 |
  \\      /  F ield         | OpenFOAM: The Open Source CFD Toolbox
   \\    /   O peration     | Website:  https://openfoam.org
    \\  /    A nd           | Version:  7
     \\/     M anipulation  |
\*---------------------------------------------------------------------------*/
FoamFile
{
    version     2.0;
    format      ascii;
    class       volScalarField;
    location    "0.009";
    object      pPrime2Mean;
}
// * * * * * * * * * * * * * * * * * * * * * * * * * * * * * * * * * * * * * //

dimensions      [0 4 -4 0 0 0 0];

internalField   nonuniform List<scalar> 
12225
(
3.93659e+07
3.87364e+07
3.80869e+07
3.74609e+07
3.68599e+07
3.62821e+07
3.57256e+07
3.51888e+07
3.467e+07
3.41671e+07
3.36783e+07
3.3201e+07
3.27325e+07
3.22694e+07
3.18066e+07
3.13368e+07
3.08466e+07
3.0303e+07
3.93664e+07
3.87367e+07
3.80872e+07
3.74612e+07
3.68602e+07
3.62824e+07
3.57261e+07
3.51894e+07
3.46707e+07
3.4168e+07
3.36794e+07
3.32024e+07
3.27345e+07
3.22721e+07
3.18106e+07
3.13432e+07
3.08587e+07
3.03301e+07
3.93672e+07
3.87373e+07
3.80877e+07
3.74618e+07
3.6861e+07
3.62833e+07
3.57271e+07
3.51906e+07
3.46722e+07
3.41699e+07
3.36818e+07
3.32056e+07
3.27387e+07
3.22779e+07
3.18192e+07
3.13568e+07
3.08827e+07
3.03867e+07
3.93681e+07
3.87381e+07
3.80887e+07
3.74629e+07
3.68622e+07
3.62847e+07
3.57288e+07
3.51927e+07
3.46747e+07
3.41731e+07
3.36858e+07
3.32108e+07
3.27456e+07
3.22874e+07
3.18329e+07
3.13779e+07
3.09183e+07
3.04543e+07
3.93691e+07
3.87394e+07
3.80901e+07
3.74644e+07
3.6864e+07
3.62869e+07
3.57313e+07
3.51958e+07
3.46785e+07
3.41777e+07
3.36917e+07
3.32183e+07
3.27555e+07
3.23009e+07
3.1852e+07
3.14064e+07
3.09631e+07
3.05276e+07
3.93706e+07
3.87411e+07
3.8092e+07
3.74666e+07
3.68665e+07
3.62898e+07
3.57348e+07
3.51999e+07
3.46836e+07
3.41841e+07
3.36997e+07
3.32285e+07
3.27689e+07
3.23188e+07
3.18767e+07
3.14416e+07
3.10149e+07
3.06035e+07
3.93726e+07
3.87434e+07
3.80946e+07
3.74695e+07
3.68698e+07
3.62936e+07
3.57394e+07
3.52054e+07
3.46903e+07
3.41924e+07
3.371e+07
3.32417e+07
3.27859e+07
3.23413e+07
3.19069e+07
3.14831e+07
3.10721e+07
3.06807e+07
3.93751e+07
3.87464e+07
3.80979e+07
3.74732e+07
3.6874e+07
3.62985e+07
3.57452e+07
3.52125e+07
3.46988e+07
3.42028e+07
3.37231e+07
3.32581e+07
3.28069e+07
3.23684e+07
3.19424e+07
3.15298e+07
3.11334e+07
3.07586e+07
3.93786e+07
3.87502e+07
3.81021e+07
3.74778e+07
3.68793e+07
3.63047e+07
3.57525e+07
3.52212e+07
3.47094e+07
3.42157e+07
3.3739e+07
3.32779e+07
3.28318e+07
3.24e+07
3.19827e+07
3.15811e+07
3.11978e+07
3.0837e+07
3.93829e+07
3.8755e+07
3.81072e+07
3.74835e+07
3.68858e+07
3.63123e+07
3.57614e+07
3.52318e+07
3.47222e+07
3.42312e+07
3.37579e+07
3.33013e+07
3.28607e+07
3.24359e+07
3.20273e+07
3.16362e+07
3.12646e+07
3.09156e+07
3.93894e+07
3.8761e+07
3.81135e+07
3.74905e+07
3.68937e+07
3.63214e+07
3.57721e+07
3.52445e+07
3.47373e+07
3.42495e+07
3.37801e+07
3.33283e+07
3.28936e+07
3.24759e+07
3.20759e+07
3.16945e+07
3.13333e+07
3.09943e+07
3.93952e+07
3.87676e+07
3.81205e+07
3.74981e+07
3.69023e+07
3.63313e+07
3.57837e+07
3.52582e+07
3.47536e+07
3.4269e+07
3.38034e+07
3.33562e+07
3.29271e+07
3.25161e+07
3.21236e+07
3.17503e+07
3.13976e+07
3.10664e+07
3.94033e+07
3.87752e+07
3.81284e+07
3.75068e+07
3.69121e+07
3.63425e+07
3.57967e+07
3.52735e+07
3.47718e+07
3.42905e+07
3.3829e+07
3.33866e+07
3.29631e+07
3.25585e+07
3.21731e+07
3.18074e+07
3.14621e+07
3.11378e+07
3.94139e+07
3.87854e+07
3.8139e+07
3.75183e+07
3.6925e+07
3.63573e+07
3.58138e+07
3.52935e+07
3.47952e+07
3.4318e+07
3.38613e+07
3.34246e+07
3.30074e+07
3.26098e+07
3.2232e+07
3.1874e+07
3.15363e+07
3.1219e+07
3.94277e+07
3.87988e+07
3.8153e+07
3.75335e+07
3.69419e+07
3.63765e+07
3.5836e+07
3.53192e+07
3.4825e+07
3.43528e+07
3.39017e+07
3.34712e+07
3.30611e+07
3.2671e+07
3.2301e+07
3.19509e+07
3.16207e+07
3.131e+07
3.94446e+07
3.8816e+07
3.81711e+07
3.75532e+07
3.69639e+07
3.64014e+07
3.58644e+07
3.53518e+07
3.48626e+07
3.43959e+07
3.39511e+07
3.35276e+07
3.31248e+07
3.27425e+07
3.23804e+07
3.20379e+07
3.17149e+07
3.14107e+07
3.9466e+07
3.88379e+07
3.81943e+07
3.75784e+07
3.69919e+07
3.64329e+07
3.59e+07
3.53923e+07
3.49086e+07
3.44481e+07
3.40101e+07
3.35938e+07
3.31987e+07
3.28241e+07
3.24695e+07
3.21343e+07
3.1818e+07
3.15197e+07
3.94908e+07
3.88647e+07
3.82231e+07
3.76098e+07
3.70265e+07
3.64715e+07
3.59433e+07
3.54409e+07
3.49632e+07
3.45093e+07
3.40782e+07
3.36691e+07
3.32813e+07
3.29141e+07
3.25666e+07
3.22381e+07
3.19278e+07
3.1635e+07
3.95221e+07
3.88974e+07
3.82578e+07
3.76473e+07
3.70675e+07
3.65167e+07
3.59934e+07
3.54966e+07
3.50249e+07
3.45774e+07
3.4153e+07
3.37508e+07
3.33698e+07
3.30092e+07
3.2668e+07
3.23454e+07
3.20405e+07
3.17524e+07
3.95535e+07
3.89275e+07
3.82884e+07
3.76797e+07
3.71025e+07
3.65549e+07
3.60353e+07
3.55426e+07
3.50753e+07
3.46324e+07
3.42127e+07
3.38151e+07
3.34388e+07
3.30825e+07
3.27455e+07
3.24267e+07
3.21253e+07
3.18402e+07
3.95732e+07
3.8948e+07
3.83097e+07
3.77022e+07
3.71268e+07
3.65812e+07
3.60641e+07
3.55739e+07
3.51094e+07
3.46693e+07
3.42525e+07
3.38579e+07
3.34843e+07
3.31307e+07
3.27962e+07
3.24796e+07
3.21802e+07
3.1897e+07
3.95897e+07
3.89634e+07
3.83255e+07
3.7719e+07
3.71448e+07
3.66008e+07
3.60853e+07
3.5597e+07
3.51344e+07
3.46963e+07
3.42815e+07
3.38888e+07
3.3517e+07
3.31653e+07
3.28324e+07
3.25174e+07
3.22193e+07
3.19373e+07
3.95984e+07
3.89738e+07
3.83368e+07
3.77311e+07
3.71578e+07
3.66149e+07
3.61007e+07
3.56136e+07
3.51524e+07
3.47157e+07
3.43022e+07
3.39108e+07
3.35404e+07
3.31898e+07
3.2858e+07
3.25441e+07
3.2247e+07
3.19657e+07
3.96055e+07
3.8981e+07
3.83446e+07
3.77396e+07
3.71671e+07
3.6625e+07
3.61116e+07
3.56254e+07
3.51651e+07
3.47293e+07
3.43168e+07
3.39263e+07
3.35568e+07
3.3207e+07
3.2876e+07
3.25627e+07
3.22662e+07
3.19856e+07
3.96099e+07
3.89857e+07
3.83499e+07
3.77455e+07
3.71735e+07
3.6632e+07
3.61192e+07
3.56336e+07
3.51739e+07
3.47388e+07
3.43269e+07
3.3937e+07
3.3568e+07
3.32188e+07
3.28884e+07
3.25756e+07
3.22795e+07
3.19992e+07
3.96109e+07
3.89885e+07
3.83534e+07
3.77494e+07
3.71778e+07
3.66366e+07
3.61242e+07
3.56391e+07
3.51799e+07
3.47451e+07
3.43336e+07
3.39442e+07
3.35756e+07
3.32268e+07
3.28966e+07
3.25841e+07
3.22883e+07
3.20083e+07
3.96116e+07
3.89902e+07
3.83556e+07
3.77519e+07
3.71806e+07
3.66397e+07
3.61275e+07
3.56427e+07
3.51837e+07
3.47492e+07
3.4338e+07
3.39488e+07
3.35805e+07
3.32319e+07
3.2902e+07
3.25897e+07
3.2294e+07
3.20141e+07
3.96126e+07
3.89913e+07
3.83569e+07
3.77534e+07
3.71823e+07
3.66415e+07
3.61295e+07
3.56448e+07
3.5186e+07
3.47517e+07
3.43407e+07
3.39516e+07
3.35834e+07
3.3235e+07
3.29052e+07
3.2593e+07
3.22975e+07
3.20177e+07
3.96131e+07
3.89919e+07
3.83576e+07
3.77542e+07
3.71832e+07
3.66425e+07
3.61306e+07
3.5646e+07
3.51873e+07
3.47531e+07
3.43421e+07
3.39531e+07
3.3585e+07
3.32367e+07
3.29069e+07
3.25948e+07
3.22993e+07
3.20196e+07
3.96134e+07
3.89922e+07
3.83579e+07
3.77546e+07
3.71835e+07
3.66429e+07
3.61311e+07
3.56465e+07
3.51878e+07
3.47536e+07
3.43427e+07
3.39538e+07
3.35857e+07
3.32373e+07
3.29076e+07
3.25956e+07
3.23001e+07
3.20203e+07
2.56045e+07
2.56024e+07
2.55983e+07
2.55921e+07
2.55837e+07
2.55731e+07
2.55603e+07
2.55452e+07
2.55278e+07
2.55081e+07
2.5486e+07
2.54616e+07
2.54347e+07
2.54055e+07
2.53738e+07
2.53398e+07
2.53033e+07
2.52643e+07
2.52229e+07
2.51791e+07
2.51329e+07
2.50842e+07
2.50332e+07
2.49797e+07
2.49239e+07
2.48657e+07
2.48051e+07
2.47423e+07
2.46771e+07
2.46097e+07
2.454e+07
2.44681e+07
2.43941e+07
2.43178e+07
2.42395e+07
2.4159e+07
2.40765e+07
2.39919e+07
2.39053e+07
2.38168e+07
2.37264e+07
2.3634e+07
2.35398e+07
2.34437e+07
2.33458e+07
2.32462e+07
2.31449e+07
2.30418e+07
2.29371e+07
2.28307e+07
2.27228e+07
2.26132e+07
2.25021e+07
2.23896e+07
2.22755e+07
2.216e+07
2.20431e+07
2.19247e+07
2.18051e+07
2.16841e+07
2.15617e+07
2.14381e+07
2.13133e+07
2.11872e+07
2.10599e+07
2.09314e+07
2.08018e+07
2.06711e+07
2.05392e+07
2.04063e+07
2.02722e+07
2.01372e+07
2.00011e+07
1.98641e+07
1.9726e+07
1.95871e+07
1.94471e+07
1.93063e+07
1.91645e+07
1.90219e+07
1.88784e+07
1.87341e+07
1.85889e+07
1.8443e+07
1.82962e+07
1.81487e+07
1.80004e+07
1.78514e+07
1.77016e+07
1.75511e+07
1.74e+07
1.72481e+07
1.70956e+07
1.69425e+07
1.67887e+07
1.66343e+07
1.64793e+07
1.63237e+07
1.61676e+07
1.60108e+07
1.58536e+07
1.56958e+07
1.55374e+07
1.53786e+07
1.52193e+07
1.50596e+07
1.48993e+07
1.47386e+07
1.45775e+07
1.4416e+07
1.42541e+07
1.40918e+07
1.39291e+07
1.37661e+07
1.36028e+07
1.34391e+07
1.32751e+07
1.31108e+07
1.29463e+07
1.27815e+07
1.26164e+07
1.24512e+07
1.22857e+07
1.21201e+07
1.19542e+07
1.17883e+07
1.16221e+07
1.14559e+07
1.12896e+07
1.11232e+07
1.09567e+07
1.07902e+07
1.06237e+07
1.04572e+07
1.02908e+07
1.01243e+07
9.95799e+06
9.79173e+06
9.62559e+06
9.45959e+06
9.29375e+06
9.12811e+06
8.96268e+06
8.79749e+06
8.63257e+06
8.46795e+06
8.30364e+06
8.13969e+06
7.97611e+06
7.81293e+06
7.6502e+06
7.48793e+06
7.32616e+06
7.16491e+06
7.00423e+06
6.84415e+06
6.68469e+06
6.5259e+06
6.3678e+06
6.21045e+06
6.05387e+06
5.8981e+06
5.74318e+06
5.58916e+06
5.43608e+06
5.28398e+06
5.13291e+06
4.98292e+06
4.83407e+06
4.6864e+06
4.53999e+06
4.3949e+06
4.25121e+06
4.10901e+06
3.96841e+06
3.82955e+06
3.69261e+06
3.55789e+06
3.42585e+06
3.29752e+06
2.56137e+07
2.56117e+07
2.56075e+07
2.56013e+07
2.55928e+07
2.55822e+07
2.55693e+07
2.55541e+07
2.55366e+07
2.55167e+07
2.54946e+07
2.547e+07
2.5443e+07
2.54136e+07
2.53818e+07
2.53476e+07
2.53109e+07
2.52718e+07
2.52302e+07
2.51862e+07
2.51398e+07
2.50909e+07
2.50397e+07
2.4986e+07
2.493e+07
2.48716e+07
2.48108e+07
2.47478e+07
2.46824e+07
2.46148e+07
2.4545e+07
2.44729e+07
2.43986e+07
2.43222e+07
2.42437e+07
2.4163e+07
2.40803e+07
2.39956e+07
2.39089e+07
2.38202e+07
2.37296e+07
2.36371e+07
2.35427e+07
2.34465e+07
2.33485e+07
2.32488e+07
2.31473e+07
2.30441e+07
2.29393e+07
2.28328e+07
2.27247e+07
2.26151e+07
2.25039e+07
2.23913e+07
2.22771e+07
2.21615e+07
2.20445e+07
2.19261e+07
2.18063e+07
2.16853e+07
2.15629e+07
2.14392e+07
2.13143e+07
2.11881e+07
2.10608e+07
2.09323e+07
2.08026e+07
2.06718e+07
2.05399e+07
2.04069e+07
2.02729e+07
2.01378e+07
2.00017e+07
1.98646e+07
1.97265e+07
1.95875e+07
1.94476e+07
1.93067e+07
1.91649e+07
1.90223e+07
1.88788e+07
1.87344e+07
1.85892e+07
1.84432e+07
1.82965e+07
1.81489e+07
1.80006e+07
1.78516e+07
1.77018e+07
1.75513e+07
1.74001e+07
1.72483e+07
1.70958e+07
1.69426e+07
1.67888e+07
1.66344e+07
1.64794e+07
1.63238e+07
1.61676e+07
1.60109e+07
1.58536e+07
1.56958e+07
1.55375e+07
1.53787e+07
1.52194e+07
1.50596e+07
1.48994e+07
1.47387e+07
1.45776e+07
1.44161e+07
1.42541e+07
1.40918e+07
1.39292e+07
1.37661e+07
1.36028e+07
1.34391e+07
1.32751e+07
1.31109e+07
1.29463e+07
1.27815e+07
1.26165e+07
1.24512e+07
1.22857e+07
1.21201e+07
1.19542e+07
1.17883e+07
1.16222e+07
1.14559e+07
1.12896e+07
1.11232e+07
1.09567e+07
1.07903e+07
1.06237e+07
1.04572e+07
1.02908e+07
1.01243e+07
9.95799e+06
9.79173e+06
9.62559e+06
9.45959e+06
9.29375e+06
9.12811e+06
8.96268e+06
8.7975e+06
8.63258e+06
8.46795e+06
8.30364e+06
8.13969e+06
7.97611e+06
7.81294e+06
7.6502e+06
7.48793e+06
7.32616e+06
7.16491e+06
7.00423e+06
6.84415e+06
6.68469e+06
6.5259e+06
6.3678e+06
6.21045e+06
6.05386e+06
5.89809e+06
5.74318e+06
5.58916e+06
5.43607e+06
5.28397e+06
5.1329e+06
4.98291e+06
4.83405e+06
4.68638e+06
4.53996e+06
4.39487e+06
4.25116e+06
4.10895e+06
3.96833e+06
3.82944e+06
3.69246e+06
3.55764e+06
3.4254e+06
3.29647e+06
2.56323e+07
2.56302e+07
2.5626e+07
2.56197e+07
2.56111e+07
2.56003e+07
2.55872e+07
2.55719e+07
2.55542e+07
2.55341e+07
2.55117e+07
2.54869e+07
2.54596e+07
2.54299e+07
2.53978e+07
2.53632e+07
2.53262e+07
2.52867e+07
2.52448e+07
2.52004e+07
2.51536e+07
2.51043e+07
2.50527e+07
2.49986e+07
2.49422e+07
2.48834e+07
2.48223e+07
2.47588e+07
2.46931e+07
2.46251e+07
2.45548e+07
2.44824e+07
2.44077e+07
2.4331e+07
2.42521e+07
2.41711e+07
2.4088e+07
2.4003e+07
2.39159e+07
2.38269e+07
2.3736e+07
2.36432e+07
2.35486e+07
2.34521e+07
2.33538e+07
2.32538e+07
2.31521e+07
2.30487e+07
2.29436e+07
2.28369e+07
2.27287e+07
2.26188e+07
2.25075e+07
2.23946e+07
2.22803e+07
2.21645e+07
2.20474e+07
2.19288e+07
2.18089e+07
2.16877e+07
2.15652e+07
2.14414e+07
2.13163e+07
2.11901e+07
2.10626e+07
2.0934e+07
2.08042e+07
2.06733e+07
2.05413e+07
2.04083e+07
2.02741e+07
2.0139e+07
2.00028e+07
1.98657e+07
1.97275e+07
1.95884e+07
1.94484e+07
1.93075e+07
1.91657e+07
1.9023e+07
1.88794e+07
1.8735e+07
1.85898e+07
1.84438e+07
1.8297e+07
1.81494e+07
1.80011e+07
1.7852e+07
1.77022e+07
1.75517e+07
1.74005e+07
1.72486e+07
1.70961e+07
1.69429e+07
1.67891e+07
1.66347e+07
1.64796e+07
1.6324e+07
1.61678e+07
1.60111e+07
1.58538e+07
1.5696e+07
1.55376e+07
1.53788e+07
1.52195e+07
1.50597e+07
1.48995e+07
1.47388e+07
1.45777e+07
1.44161e+07
1.42542e+07
1.40919e+07
1.39292e+07
1.37662e+07
1.36028e+07
1.34392e+07
1.32752e+07
1.31109e+07
1.29463e+07
1.27815e+07
1.26165e+07
1.24512e+07
1.22858e+07
1.21201e+07
1.19543e+07
1.17883e+07
1.16222e+07
1.14559e+07
1.12896e+07
1.11232e+07
1.09568e+07
1.07903e+07
1.06238e+07
1.04572e+07
1.02908e+07
1.01243e+07
9.95799e+06
9.79173e+06
9.62559e+06
9.45959e+06
9.29376e+06
9.12811e+06
8.96269e+06
8.7975e+06
8.63258e+06
8.46795e+06
8.30365e+06
8.13969e+06
7.97611e+06
7.81294e+06
7.6502e+06
7.48793e+06
7.32616e+06
7.16491e+06
7.00423e+06
6.84415e+06
6.68469e+06
6.52589e+06
6.3678e+06
6.21044e+06
6.05386e+06
5.89809e+06
5.74317e+06
5.58915e+06
5.43606e+06
5.28396e+06
5.13288e+06
4.98289e+06
4.83402e+06
4.68634e+06
4.53991e+06
4.3948e+06
4.25108e+06
4.10884e+06
3.96818e+06
3.82922e+06
3.69215e+06
3.55717e+06
3.42459e+06
3.29483e+06
2.56603e+07
2.56582e+07
2.56539e+07
2.56474e+07
2.56386e+07
2.56276e+07
2.56143e+07
2.55987e+07
2.55807e+07
2.55603e+07
2.55375e+07
2.55122e+07
2.54846e+07
2.54544e+07
2.54218e+07
2.53867e+07
2.53492e+07
2.53091e+07
2.52667e+07
2.52217e+07
2.51743e+07
2.51245e+07
2.50722e+07
2.50176e+07
2.49605e+07
2.49011e+07
2.48394e+07
2.47754e+07
2.4709e+07
2.46404e+07
2.45696e+07
2.44966e+07
2.44214e+07
2.43441e+07
2.42646e+07
2.41831e+07
2.40996e+07
2.4014e+07
2.39265e+07
2.3837e+07
2.37457e+07
2.36524e+07
2.35574e+07
2.34605e+07
2.33618e+07
2.32614e+07
2.31593e+07
2.30556e+07
2.29502e+07
2.28432e+07
2.27346e+07
2.26244e+07
2.25128e+07
2.23996e+07
2.22851e+07
2.2169e+07
2.20516e+07
2.19329e+07
2.18127e+07
2.16913e+07
2.15686e+07
2.14446e+07
2.13194e+07
2.11929e+07
2.10653e+07
2.09365e+07
2.08066e+07
2.06756e+07
2.05435e+07
2.04103e+07
2.0276e+07
2.01408e+07
2.00045e+07
1.98672e+07
1.9729e+07
1.95898e+07
1.94497e+07
1.93087e+07
1.91668e+07
1.9024e+07
1.88804e+07
1.8736e+07
1.85907e+07
1.84446e+07
1.82977e+07
1.81501e+07
1.80017e+07
1.78526e+07
1.77028e+07
1.75522e+07
1.7401e+07
1.72491e+07
1.70965e+07
1.69433e+07
1.67895e+07
1.6635e+07
1.64799e+07
1.63243e+07
1.61681e+07
1.60113e+07
1.5854e+07
1.56962e+07
1.55378e+07
1.5379e+07
1.52197e+07
1.50599e+07
1.48996e+07
1.47389e+07
1.45778e+07
1.44162e+07
1.42543e+07
1.4092e+07
1.39293e+07
1.37663e+07
1.36029e+07
1.34392e+07
1.32752e+07
1.31109e+07
1.29464e+07
1.27816e+07
1.26165e+07
1.24513e+07
1.22858e+07
1.21201e+07
1.19543e+07
1.17883e+07
1.16222e+07
1.1456e+07
1.12896e+07
1.11232e+07
1.09568e+07
1.07903e+07
1.06238e+07
1.04573e+07
1.02908e+07
1.01244e+07
9.958e+06
9.79174e+06
9.6256e+06
9.4596e+06
9.29376e+06
9.12812e+06
8.96269e+06
8.7975e+06
8.63258e+06
8.46795e+06
8.30365e+06
8.13969e+06
7.97611e+06
7.81294e+06
7.6502e+06
7.48793e+06
7.32616e+06
7.16491e+06
7.00423e+06
6.84415e+06
6.68469e+06
6.52589e+06
6.3678e+06
6.21044e+06
6.05385e+06
5.89808e+06
5.74316e+06
5.58913e+06
5.43604e+06
5.28394e+06
5.13285e+06
4.98285e+06
4.83398e+06
4.68629e+06
4.53984e+06
4.3947e+06
4.25095e+06
4.10867e+06
3.96795e+06
3.82891e+06
3.69171e+06
3.5565e+06
3.42352e+06
3.29293e+06
2.56979e+07
2.56957e+07
2.56913e+07
2.56846e+07
2.56756e+07
2.56643e+07
2.56507e+07
2.56347e+07
2.56163e+07
2.55954e+07
2.55721e+07
2.55463e+07
2.5518e+07
2.54872e+07
2.54539e+07
2.54182e+07
2.53799e+07
2.53391e+07
2.52959e+07
2.52502e+07
2.5202e+07
2.51514e+07
2.50983e+07
2.50428e+07
2.4985e+07
2.49248e+07
2.48622e+07
2.47974e+07
2.47303e+07
2.46609e+07
2.45893e+07
2.45155e+07
2.44396e+07
2.43615e+07
2.42814e+07
2.41992e+07
2.41149e+07
2.40287e+07
2.39405e+07
2.38505e+07
2.37585e+07
2.36647e+07
2.3569e+07
2.34716e+07
2.33724e+07
2.32715e+07
2.31689e+07
2.30647e+07
2.29588e+07
2.28514e+07
2.27424e+07
2.26318e+07
2.25198e+07
2.24063e+07
2.22914e+07
2.2175e+07
2.20573e+07
2.19382e+07
2.18178e+07
2.16961e+07
2.15731e+07
2.14489e+07
2.13234e+07
2.11968e+07
2.10689e+07
2.09399e+07
2.08098e+07
2.06786e+07
2.05463e+07
2.04129e+07
2.02785e+07
2.01431e+07
2.00067e+07
1.98693e+07
1.97309e+07
1.95916e+07
1.94514e+07
1.93103e+07
1.91683e+07
1.90254e+07
1.88817e+07
1.87372e+07
1.85918e+07
1.84457e+07
1.82987e+07
1.8151e+07
1.80026e+07
1.78534e+07
1.77035e+07
1.75529e+07
1.74016e+07
1.72497e+07
1.70971e+07
1.69438e+07
1.67899e+07
1.66355e+07
1.64804e+07
1.63247e+07
1.61685e+07
1.60117e+07
1.58543e+07
1.56965e+07
1.55381e+07
1.53792e+07
1.52199e+07
1.50601e+07
1.48998e+07
1.47391e+07
1.45779e+07
1.44164e+07
1.42544e+07
1.40921e+07
1.39294e+07
1.37664e+07
1.3603e+07
1.34393e+07
1.32753e+07
1.3111e+07
1.29465e+07
1.27816e+07
1.26166e+07
1.24513e+07
1.22858e+07
1.21202e+07
1.19543e+07
1.17883e+07
1.16222e+07
1.1456e+07
1.12897e+07
1.11232e+07
1.09568e+07
1.07903e+07
1.06238e+07
1.04573e+07
1.02908e+07
1.01244e+07
9.95801e+06
9.79175e+06
9.62561e+06
9.45961e+06
9.29377e+06
9.12813e+06
8.9627e+06
8.79751e+06
8.63259e+06
8.46796e+06
8.30365e+06
8.1397e+06
7.97612e+06
7.81294e+06
7.6502e+06
7.48793e+06
7.32616e+06
7.16492e+06
7.00423e+06
6.84414e+06
6.68469e+06
6.52589e+06
6.36779e+06
6.21043e+06
6.05385e+06
5.89807e+06
5.74315e+06
5.58912e+06
5.43602e+06
5.28391e+06
5.13282e+06
4.9828e+06
4.83392e+06
4.68621e+06
4.53974e+06
4.39458e+06
4.25079e+06
4.10845e+06
3.96766e+06
3.82852e+06
3.69115e+06
3.55569e+06
3.42228e+06
3.29093e+06
2.57454e+07
2.5743e+07
2.57384e+07
2.57315e+07
2.57222e+07
2.57106e+07
2.56965e+07
2.568e+07
2.5661e+07
2.56396e+07
2.56156e+07
2.55891e+07
2.556e+07
2.55284e+07
2.54943e+07
2.54577e+07
2.54185e+07
2.53768e+07
2.53325e+07
2.52858e+07
2.52366e+07
2.5185e+07
2.51309e+07
2.50744e+07
2.50155e+07
2.49543e+07
2.48908e+07
2.48249e+07
2.47568e+07
2.46864e+07
2.46138e+07
2.45391e+07
2.44622e+07
2.43832e+07
2.43022e+07
2.42191e+07
2.4134e+07
2.4047e+07
2.3958e+07
2.38671e+07
2.37744e+07
2.36798e+07
2.35835e+07
2.34854e+07
2.33856e+07
2.3284e+07
2.31808e+07
2.3076e+07
2.29696e+07
2.28616e+07
2.27521e+07
2.26411e+07
2.25285e+07
2.24146e+07
2.22992e+07
2.21825e+07
2.20643e+07
2.19449e+07
2.18241e+07
2.1702e+07
2.15787e+07
2.14542e+07
2.13284e+07
2.12015e+07
2.10734e+07
2.09441e+07
2.08138e+07
2.06823e+07
2.05498e+07
2.04162e+07
2.02816e+07
2.0146e+07
2.00094e+07
1.98719e+07
1.97334e+07
1.95939e+07
1.94536e+07
1.93123e+07
1.91702e+07
1.90272e+07
1.88834e+07
1.87387e+07
1.85933e+07
1.8447e+07
1.83e+07
1.81522e+07
1.80037e+07
1.78544e+07
1.77045e+07
1.75538e+07
1.74025e+07
1.72504e+07
1.70978e+07
1.69445e+07
1.67906e+07
1.6636e+07
1.64809e+07
1.63252e+07
1.61689e+07
1.60121e+07
1.58547e+07
1.56968e+07
1.55384e+07
1.53795e+07
1.52202e+07
1.50603e+07
1.49e+07
1.47393e+07
1.45781e+07
1.44166e+07
1.42546e+07
1.40923e+07
1.39296e+07
1.37665e+07
1.36031e+07
1.34394e+07
1.32754e+07
1.31111e+07
1.29465e+07
1.27817e+07
1.26167e+07
1.24514e+07
1.22859e+07
1.21202e+07
1.19544e+07
1.17884e+07
1.16223e+07
1.1456e+07
1.12897e+07
1.11233e+07
1.09568e+07
1.07903e+07
1.06238e+07
1.04573e+07
1.02908e+07
1.01244e+07
9.95802e+06
9.79176e+06
9.62562e+06
9.45962e+06
9.29378e+06
9.12813e+06
8.9627e+06
8.79751e+06
8.63259e+06
8.46797e+06
8.30366e+06
8.1397e+06
7.97612e+06
7.81295e+06
7.65021e+06
7.48794e+06
7.32616e+06
7.16492e+06
7.00423e+06
6.84414e+06
6.68468e+06
6.52589e+06
6.36779e+06
6.21043e+06
6.05384e+06
5.89806e+06
5.74313e+06
5.5891e+06
5.43599e+06
5.28387e+06
5.13277e+06
4.98275e+06
4.83384e+06
4.68612e+06
4.53962e+06
4.39442e+06
4.25059e+06
4.10819e+06
3.96731e+06
3.82805e+06
3.6905e+06
3.55477e+06
3.42092e+06
3.28891e+06
2.58029e+07
2.58005e+07
2.57957e+07
2.57885e+07
2.57788e+07
2.57667e+07
2.57521e+07
2.5735e+07
2.57153e+07
2.56931e+07
2.56682e+07
2.56408e+07
2.56108e+07
2.55782e+07
2.55431e+07
2.55053e+07
2.5465e+07
2.54221e+07
2.53767e+07
2.53287e+07
2.52783e+07
2.52254e+07
2.51701e+07
2.51123e+07
2.50522e+07
2.49897e+07
2.49249e+07
2.48578e+07
2.47885e+07
2.47169e+07
2.46432e+07
2.45673e+07
2.44892e+07
2.44092e+07
2.4327e+07
2.42429e+07
2.41568e+07
2.40688e+07
2.39788e+07
2.3887e+07
2.37934e+07
2.3698e+07
2.36008e+07
2.35018e+07
2.34012e+07
2.32989e+07
2.3195e+07
2.30895e+07
2.29824e+07
2.28738e+07
2.27636e+07
2.2652e+07
2.25389e+07
2.24245e+07
2.23086e+07
2.21913e+07
2.20727e+07
2.19528e+07
2.18316e+07
2.17091e+07
2.15854e+07
2.14605e+07
2.13344e+07
2.12071e+07
2.10787e+07
2.09491e+07
2.08185e+07
2.06868e+07
2.0554e+07
2.04202e+07
2.02853e+07
2.01495e+07
2.00127e+07
1.98749e+07
1.97362e+07
1.95966e+07
1.94561e+07
1.93147e+07
1.91724e+07
1.90293e+07
1.88853e+07
1.87405e+07
1.8595e+07
1.84486e+07
1.83015e+07
1.81536e+07
1.8005e+07
1.78556e+07
1.77056e+07
1.75548e+07
1.74034e+07
1.72514e+07
1.70986e+07
1.69453e+07
1.67913e+07
1.66367e+07
1.64815e+07
1.63258e+07
1.61695e+07
1.60126e+07
1.58552e+07
1.56973e+07
1.55388e+07
1.53799e+07
1.52205e+07
1.50606e+07
1.49003e+07
1.47396e+07
1.45784e+07
1.44168e+07
1.42548e+07
1.40925e+07
1.39297e+07
1.37667e+07
1.36033e+07
1.34395e+07
1.32755e+07
1.31112e+07
1.29466e+07
1.27818e+07
1.26167e+07
1.24514e+07
1.2286e+07
1.21203e+07
1.19544e+07
1.17884e+07
1.16223e+07
1.14561e+07
1.12897e+07
1.11233e+07
1.09568e+07
1.07903e+07
1.06238e+07
1.04573e+07
1.02908e+07
1.01244e+07
9.95804e+06
9.79178e+06
9.62563e+06
9.45963e+06
9.29379e+06
9.12814e+06
8.96271e+06
8.79752e+06
8.6326e+06
8.46797e+06
8.30366e+06
8.13971e+06
7.97613e+06
7.81295e+06
7.65021e+06
7.48794e+06
7.32616e+06
7.16492e+06
7.00423e+06
6.84414e+06
6.68468e+06
6.52588e+06
6.36778e+06
6.21042e+06
6.05382e+06
5.89804e+06
5.74311e+06
5.58907e+06
5.43596e+06
5.28383e+06
5.13272e+06
4.98268e+06
4.83376e+06
4.68601e+06
4.53949e+06
4.39425e+06
4.25036e+06
4.10789e+06
3.96692e+06
3.82752e+06
3.68978e+06
3.55376e+06
3.41951e+06
3.28693e+06
2.58711e+07
2.58685e+07
2.58634e+07
2.58558e+07
2.58457e+07
2.5833e+07
2.58177e+07
2.57999e+07
2.57793e+07
2.57561e+07
2.57303e+07
2.57018e+07
2.56706e+07
2.56368e+07
2.56003e+07
2.55612e+07
2.55195e+07
2.54752e+07
2.54284e+07
2.5379e+07
2.5327e+07
2.52727e+07
2.52158e+07
2.51566e+07
2.50949e+07
2.5031e+07
2.49647e+07
2.48961e+07
2.48253e+07
2.47524e+07
2.46772e+07
2.46e+07
2.45206e+07
2.44392e+07
2.43558e+07
2.42705e+07
2.41832e+07
2.4094e+07
2.40029e+07
2.391e+07
2.38153e+07
2.37189e+07
2.36207e+07
2.35209e+07
2.34193e+07
2.33162e+07
2.32114e+07
2.31051e+07
2.29972e+07
2.28878e+07
2.2777e+07
2.26647e+07
2.2551e+07
2.24358e+07
2.23193e+07
2.22015e+07
2.20824e+07
2.19619e+07
2.18402e+07
2.17173e+07
2.15931e+07
2.14678e+07
2.13413e+07
2.12136e+07
2.10848e+07
2.09549e+07
2.08239e+07
2.06919e+07
2.05588e+07
2.04247e+07
2.02896e+07
2.01535e+07
2.00165e+07
1.98785e+07
1.97396e+07
1.95997e+07
1.9459e+07
1.93174e+07
1.9175e+07
1.90317e+07
1.88876e+07
1.87426e+07
1.85969e+07
1.84504e+07
1.83032e+07
1.81552e+07
1.80065e+07
1.7857e+07
1.77069e+07
1.75561e+07
1.74046e+07
1.72524e+07
1.70996e+07
1.69462e+07
1.67921e+07
1.66375e+07
1.64822e+07
1.63264e+07
1.61701e+07
1.60132e+07
1.58557e+07
1.56977e+07
1.55393e+07
1.53803e+07
1.52209e+07
1.5061e+07
1.49006e+07
1.47399e+07
1.45787e+07
1.4417e+07
1.4255e+07
1.40927e+07
1.39299e+07
1.37668e+07
1.36034e+07
1.34397e+07
1.32757e+07
1.31113e+07
1.29467e+07
1.27819e+07
1.26168e+07
1.24515e+07
1.2286e+07
1.21203e+07
1.19545e+07
1.17885e+07
1.16224e+07
1.14561e+07
1.12898e+07
1.11233e+07
1.09569e+07
1.07904e+07
1.06238e+07
1.04573e+07
1.02909e+07
1.01244e+07
9.95806e+06
9.79179e+06
9.62565e+06
9.45964e+06
9.2938e+06
9.12816e+06
8.96272e+06
8.79753e+06
8.63261e+06
8.46798e+06
8.30367e+06
8.13971e+06
7.97613e+06
7.81296e+06
7.65022e+06
7.48794e+06
7.32617e+06
7.16492e+06
7.00423e+06
6.84414e+06
6.68468e+06
6.52588e+06
6.36778e+06
6.21041e+06
6.05381e+06
5.89803e+06
5.74309e+06
5.58904e+06
5.43593e+06
5.28379e+06
5.13266e+06
4.98261e+06
4.83367e+06
4.68589e+06
4.53933e+06
4.39405e+06
4.2501e+06
4.10756e+06
3.96648e+06
3.82694e+06
3.689e+06
3.55271e+06
3.41808e+06
3.28499e+06
2.59502e+07
2.59474e+07
2.5942e+07
2.5934e+07
2.59233e+07
2.59099e+07
2.58939e+07
2.5875e+07
2.58535e+07
2.58291e+07
2.5802e+07
2.57722e+07
2.57396e+07
2.57043e+07
2.56663e+07
2.56256e+07
2.55822e+07
2.55363e+07
2.54877e+07
2.54365e+07
2.53829e+07
2.53267e+07
2.52681e+07
2.52071e+07
2.51437e+07
2.5078e+07
2.501e+07
2.49397e+07
2.48673e+07
2.47927e+07
2.47159e+07
2.46371e+07
2.45562e+07
2.44734e+07
2.43885e+07
2.43018e+07
2.42131e+07
2.41226e+07
2.40302e+07
2.39361e+07
2.38402e+07
2.37426e+07
2.36433e+07
2.35424e+07
2.34398e+07
2.33356e+07
2.32299e+07
2.31227e+07
2.30139e+07
2.29037e+07
2.27921e+07
2.2679e+07
2.25645e+07
2.24487e+07
2.23315e+07
2.22131e+07
2.20933e+07
2.19723e+07
2.185e+07
2.17265e+07
2.16019e+07
2.1476e+07
2.13491e+07
2.1221e+07
2.10917e+07
2.09615e+07
2.08301e+07
2.06977e+07
2.05643e+07
2.04299e+07
2.02944e+07
2.01581e+07
2.00207e+07
1.98825e+07
1.97433e+07
1.96033e+07
1.94623e+07
1.93205e+07
1.91779e+07
1.90344e+07
1.88901e+07
1.8745e+07
1.85992e+07
1.84525e+07
1.83051e+07
1.8157e+07
1.80082e+07
1.78586e+07
1.77084e+07
1.75574e+07
1.74058e+07
1.72536e+07
1.71007e+07
1.69472e+07
1.67931e+07
1.66384e+07
1.64831e+07
1.63272e+07
1.61708e+07
1.60138e+07
1.58563e+07
1.56983e+07
1.55398e+07
1.53808e+07
1.52213e+07
1.50614e+07
1.4901e+07
1.47402e+07
1.4579e+07
1.44173e+07
1.42553e+07
1.40929e+07
1.39301e+07
1.3767e+07
1.36036e+07
1.34399e+07
1.32758e+07
1.31115e+07
1.29469e+07
1.2782e+07
1.26169e+07
1.24516e+07
1.22861e+07
1.21204e+07
1.19546e+07
1.17886e+07
1.16224e+07
1.14562e+07
1.12898e+07
1.11234e+07
1.09569e+07
1.07904e+07
1.06239e+07
1.04574e+07
1.02909e+07
1.01244e+07
9.95808e+06
9.79181e+06
9.62566e+06
9.45966e+06
9.29382e+06
9.12817e+06
8.96274e+06
8.79754e+06
8.63262e+06
8.46799e+06
8.30368e+06
8.13972e+06
7.97614e+06
7.81296e+06
7.65022e+06
7.48795e+06
7.32617e+06
7.16492e+06
7.00423e+06
6.84414e+06
6.68468e+06
6.52587e+06
6.36777e+06
6.2104e+06
6.0538e+06
5.89801e+06
5.74307e+06
5.58901e+06
5.43589e+06
5.28374e+06
5.1326e+06
4.98253e+06
4.83356e+06
4.68576e+06
4.53916e+06
4.39383e+06
4.24983e+06
4.1072e+06
3.96601e+06
3.82633e+06
3.68819e+06
3.55164e+06
3.41665e+06
3.28313e+06
2.6041e+07
2.6038e+07
2.60322e+07
2.60236e+07
2.60122e+07
2.5998e+07
2.59809e+07
2.5961e+07
2.59381e+07
2.59124e+07
2.58838e+07
2.58524e+07
2.58181e+07
2.5781e+07
2.57412e+07
2.56986e+07
2.56533e+07
2.56053e+07
2.55547e+07
2.55015e+07
2.54458e+07
2.53876e+07
2.53269e+07
2.52639e+07
2.51985e+07
2.51308e+07
2.50608e+07
2.49886e+07
2.49143e+07
2.48378e+07
2.47592e+07
2.46786e+07
2.4596e+07
2.45115e+07
2.4425e+07
2.43366e+07
2.42464e+07
2.41544e+07
2.40606e+07
2.39651e+07
2.38679e+07
2.3769e+07
2.36684e+07
2.35663e+07
2.34626e+07
2.33573e+07
2.32505e+07
2.31423e+07
2.30325e+07
2.29214e+07
2.28088e+07
2.26949e+07
2.25796e+07
2.2463e+07
2.23451e+07
2.22259e+07
2.21054e+07
2.19837e+07
2.18609e+07
2.17368e+07
2.16116e+07
2.14852e+07
2.13577e+07
2.12291e+07
2.10994e+07
2.09687e+07
2.08369e+07
2.07041e+07
2.05703e+07
2.04356e+07
2.02998e+07
2.01631e+07
2.00255e+07
1.98869e+07
1.97475e+07
1.96072e+07
1.9466e+07
1.9324e+07
1.91811e+07
1.90374e+07
1.88929e+07
1.87477e+07
1.86016e+07
1.84548e+07
1.83073e+07
1.8159e+07
1.801e+07
1.78604e+07
1.771e+07
1.75589e+07
1.74072e+07
1.72549e+07
1.71019e+07
1.69483e+07
1.67941e+07
1.66393e+07
1.6484e+07
1.6328e+07
1.61715e+07
1.60145e+07
1.5857e+07
1.56989e+07
1.55404e+07
1.53813e+07
1.52218e+07
1.50618e+07
1.49014e+07
1.47406e+07
1.45793e+07
1.44176e+07
1.42556e+07
1.40932e+07
1.39304e+07
1.37673e+07
1.36038e+07
1.344e+07
1.3276e+07
1.31116e+07
1.2947e+07
1.27822e+07
1.26171e+07
1.24517e+07
1.22862e+07
1.21205e+07
1.19546e+07
1.17886e+07
1.16225e+07
1.14562e+07
1.12899e+07
1.11234e+07
1.0957e+07
1.07904e+07
1.06239e+07
1.04574e+07
1.02909e+07
1.01245e+07
9.9581e+06
9.79183e+06
9.62568e+06
9.45967e+06
9.29383e+06
9.12818e+06
8.96275e+06
8.79756e+06
8.63263e+06
8.468e+06
8.30369e+06
8.13973e+06
7.97615e+06
7.81297e+06
7.65023e+06
7.48795e+06
7.32617e+06
7.16492e+06
7.00424e+06
6.84414e+06
6.68467e+06
6.52587e+06
6.36776e+06
6.21039e+06
6.05378e+06
5.89799e+06
5.74304e+06
5.58898e+06
5.43585e+06
5.28368e+06
5.13253e+06
4.98244e+06
4.83345e+06
4.68562e+06
4.53898e+06
4.3936e+06
4.24953e+06
4.10682e+06
3.96552e+06
3.82569e+06
3.68737e+06
3.55056e+06
3.41526e+06
3.28135e+06
2.61442e+07
2.61408e+07
2.61346e+07
2.61253e+07
2.61131e+07
2.60978e+07
2.60796e+07
2.60582e+07
2.60339e+07
2.60065e+07
2.59761e+07
2.59427e+07
2.59064e+07
2.58672e+07
2.58252e+07
2.57803e+07
2.57327e+07
2.56824e+07
2.56295e+07
2.55739e+07
2.55158e+07
2.54552e+07
2.53922e+07
2.53268e+07
2.52591e+07
2.51892e+07
2.5117e+07
2.50426e+07
2.49661e+07
2.48875e+07
2.48069e+07
2.47243e+07
2.46398e+07
2.45534e+07
2.44651e+07
2.43749e+07
2.4283e+07
2.41893e+07
2.4094e+07
2.39969e+07
2.38982e+07
2.37979e+07
2.3696e+07
2.35925e+07
2.34875e+07
2.3381e+07
2.32731e+07
2.31637e+07
2.30529e+07
2.29407e+07
2.28272e+07
2.27123e+07
2.25961e+07
2.24786e+07
2.23599e+07
2.22399e+07
2.21187e+07
2.19963e+07
2.18727e+07
2.1748e+07
2.16222e+07
2.14952e+07
2.13672e+07
2.1238e+07
2.11078e+07
2.09766e+07
2.08444e+07
2.07112e+07
2.0577e+07
2.04418e+07
2.03057e+07
2.01686e+07
2.00307e+07
1.98918e+07
1.97521e+07
1.96115e+07
1.947e+07
1.93277e+07
1.91846e+07
1.90407e+07
1.8896e+07
1.87506e+07
1.86043e+07
1.84574e+07
1.83097e+07
1.81612e+07
1.80121e+07
1.78623e+07
1.77118e+07
1.75606e+07
1.74088e+07
1.72563e+07
1.71033e+07
1.69496e+07
1.67953e+07
1.66404e+07
1.6485e+07
1.6329e+07
1.61724e+07
1.60153e+07
1.58577e+07
1.56996e+07
1.5541e+07
1.53819e+07
1.52223e+07
1.50623e+07
1.49019e+07
1.4741e+07
1.45797e+07
1.4418e+07
1.42559e+07
1.40935e+07
1.39307e+07
1.37675e+07
1.3604e+07
1.34402e+07
1.32762e+07
1.31118e+07
1.29472e+07
1.27823e+07
1.26172e+07
1.24519e+07
1.22863e+07
1.21206e+07
1.19547e+07