/*--------------------------------*- C++ -*----------------------------------*\
  =========                 |
  \\      /  F ield         | OpenFOAM: The Open Source CFD Toolbox
   \\    /   O peration     | Website:  https://openfoam.org
    \\  /    A nd           | Version:  7
     \\/     M anipulation  |
\*---------------------------------------------------------------------------*/
FoamFile
{
    version     2.0;
    format      ascii;
    class       volVectorField;
    location    "0.009";
    object      U_0;
}
// * * * * * * * * * * * * * * * * * * * * * * * * * * * * * * * * * * * * * //

dimensions      [0 1 -1 0 0 0 0];

internalField   nonuniform List<vector> 
12225
(
(4.75073 0.162346 0)
(4.13991 0.109496 0)
(3.6762 0.0959754 0)
(3.3467 0.0799636 0)
(3.05485 0.0692751 0)
(2.7545 0.0606592 0)
(2.46486 0.0477941 0)
(2.21633 0.0325043 0)
(2.02688 0.0197299 0)
(1.88805 0.0115446 0)
(1.80192 0.00595231 0)
(1.74391 0.00201958 0)
(1.72791 -0.00228108 0)
(1.72384 -0.00451919 0)
(1.74281 -0.014317 0)
(1.80292 -0.0138132 0)
(1.80914 -0.0211044 0)
(1.95748 -0.0274648 0)
(4.96728 0.103448 0)
(4.79405 0.0756738 0)
(4.72732 0.0839214 0)
(4.6943 0.0730726 0)
(4.64486 0.0722498 0)
(4.57069 0.0822481 0)
(4.47124 0.089288 0)
(4.34901 0.0853572 0)
(4.2221 0.0722085 0)
(4.10997 0.0541314 0)
(4.03305 0.0365315 0)
(3.98708 0.0213807 0)
(3.97344 0.00770057 0)
(3.9735 -0.00161627 0)
(3.986 -0.0116972 0)
(4.01065 -0.0196299 0)
(4.02872 -0.0276344 0)
(4.07386 -0.0487942 0)
(4.91262 0.171162 0)
(4.84567 0.108815 0)
(4.80708 0.104396 0)
(4.78129 0.10332 0)
(4.7713 0.102796 0)
(4.78346 0.106407 0)
(4.79812 0.110039 0)
(4.79061 0.107484 0)
(4.75908 0.0953162 0)
(4.72 0.0747156 0)
(4.6916 0.0495678 0)
(4.67911 0.0255848 0)
(4.68199 0.00548711 0)
(4.69328 -0.00934034 0)
(4.71009 -0.0221068 0)
(4.7267 -0.0331382 0)
(4.74513 -0.0416701 0)
(4.75837 -0.0619055 0)
(4.99767 0.172953 0)
(4.94027 0.0994044 0)
(4.86627 0.101423 0)
(4.81505 0.0951148 0)
(4.78013 0.0806907 0)
(4.76618 0.0780478 0)
(4.77129 0.0881463 0)
(4.78369 0.0971541 0)
(4.79575 0.0933506 0)
(4.80578 0.0745958 0)
(4.81292 0.0477391 0)
(4.81696 0.0211755 0)
(4.81877 -0.000565633 0)
(4.82023 -0.0155562 0)
(4.82629 -0.0267477 0)
(4.83625 -0.0373803 0)
(4.85063 -0.0472606 0)
(4.86327 -0.0636494 0)
(4.92826 0.180228 0)
(4.88864 0.105858 0)
(4.87105 0.112275 0)
(4.86911 0.124123 0)
(4.83721 0.118221 0)
(4.78028 0.107512 0)
(4.74114 0.100618 0)
(4.74251 0.0944201 0)
(4.77369 0.0829466 0)
(4.80949 0.0651861 0)
(4.83076 0.0444952 0)
(4.83322 0.0253046 0)
(4.82631 0.00726479 0)
(4.82151 -0.0103805 0)
(4.82466 -0.0272843 0)
(4.83567 -0.0441805 0)
(4.85146 -0.0589506 0)
(4.86623 -0.0739619 0)
(5.06037 0.201102 0)
(4.9279 0.117623 0)
(4.86282 0.102201 0)
(4.84504 0.109805 0)
(4.82488 0.114302 0)
(4.79128 0.112308 0)
(4.76612 0.103304 0)
(4.76367 0.0891501 0)
(4.77779 0.0725007 0)
(4.79438 0.0554847 0)
(4.80625 0.0386703 0)
(4.81517 0.020801 0)
(4.82502 0.00160884 0)
(4.8372 -0.0177453 0)
(4.85171 -0.0362386 0)
(4.86492 -0.052497 0)
(4.87474 -0.0653882 0)
(4.87989 -0.0757949 0)
(4.95533 0.241771 0)
(4.96497 0.144009 0)
(4.94425 0.118707 0)
(4.91263 0.133458 0)
(4.87964 0.140376 0)
(4.84655 0.13082 0)
(4.82111 0.10999 0)
(4.8095 0.0874608 0)
(4.81195 0.0685713 0)
(4.82455 0.0526838 0)
(4.84225 0.0370208 0)
(4.86026 0.019849 0)
(4.87676 -0.000489505 0)
(4.88825 -0.0209977 0)
(4.89381 -0.0394668 0)
(4.8946 -0.0549296 0)
(4.89537 -0.0675688 0)
(4.89712 -0.0779885 0)
(4.93846 0.221496 0)
(4.93809 0.138927 0)
(4.90655 0.116687 0)
(4.88695 0.128861 0)
(4.8786 0.137943 0)
(4.86645 0.134468 0)
(4.84677 0.118027 0)
(4.827 0.0932083 0)
(4.81685 0.0662405 0)
(4.82102 0.0416176 0)
(4.83837 0.0199155 0)
(4.86255 0.000876833 0)
(4.88669 -0.0145519 0)
(4.90657 -0.0287933 0)
(4.9224 -0.042015 0)
(4.93376 -0.05448 0)
(4.94475 -0.0672809 0)
(4.95392 -0.0802147 0)
(4.94489 0.255676 0)
(4.95675 0.139608 0)
(4.90859 0.121829 0)
(4.90329 0.134897 0)
(4.93333 0.146768 0)
(4.96279 0.146275 0)
(4.97306 0.129495 0)
(4.96316 0.10194 0)
(4.94359 0.0718369 0)
(4.92766 0.0435984 0)
(4.92308 0.0194287 0)
(4.93075 -0.00182007 0)
(4.94653 -0.0213979 0)
(4.96419 -0.0383598 0)
(4.9808 -0.0533214 0)
(4.99436 -0.0669673 0)
(5.00709 -0.0800687 0)
(5.0168 -0.0931324 0)
(5.08925 0.266055 0)
(4.93943 0.182258 0)
(4.88838 0.137147 0)
(4.90154 0.116747 0)
(4.92666 0.11511 0)
(4.94173 0.119732 0)
(4.94333 0.119195 0)
(4.93647 0.107438 0)
(4.93056 0.0835521 0)
(4.93422 0.0512213 0)
(4.94851 0.0160428 0)
(4.96805 -0.0140089 0)
(4.98767 -0.0363777 0)
(5.00574 -0.0517542 0)
(5.0213 -0.0627058 0)
(5.03456 -0.0720827 0)
(5.04569 -0.0820043 0)
(5.05494 -0.0935315 0)
(5.03341 0.308135 0)
(5.02354 0.200216 0)
(5.00221 0.130457 0)
(4.97769 0.113335 0)
(4.95814 0.125593 0)
(4.93799 0.137727 0)
(4.92246 0.13253 0)
(4.9205 0.107901 0)
(4.932 0.0713703 0)
(4.94697 0.033374 0)
(4.95684 0.00169092 0)
(4.96063 -0.0226311 0)
(4.96174 -0.0412935 0)
(4.96447 -0.0565616 0)
(4.97244 -0.0699782 0)
(4.98469 -0.0827502 0)
(5.00076 -0.0951656 0)
(5.0158 -0.107811 0)
(5.04397 0.343008 0)
(5.02649 0.230525 0)
(5.00947 0.153676 0)
(4.97357 0.128407 0)
(4.93623 0.132053 0)
(4.91652 0.1385 0)
(4.92488 0.129667 0)
(4.95484 0.103793 0)
(4.98805 0.0696915 0)
(5.00984 0.0359741 0)
(5.01607 0.00627468 0)
(5.0108 -0.0193724 0)
(5.00438 -0.0417451 0)
(5.00422 -0.0618214 0)
(5.0126 -0.0792207 0)
(5.02729 -0.0938834 0)
(5.04522 -0.105784 0)
(5.06175 -0.116032 0)
(4.89101 0.3007 0)
(4.9654 0.201233 0)
(4.98995 0.146765 0)
(4.94898 0.146425 0)
(4.90549 0.152214 0)
(4.89873 0.141899 0)
(4.92759 0.111978 0)
(4.97111 0.073625 0)
(5.00853 0.0408967 0)
(5.02842 0.0192301 0)
(5.03248 0.00348619 0)
(5.02996 -0.0128538 0)
(5.02776 -0.0335964 0)
(5.02922 -0.0578783 0)
(5.03398 -0.082204 0)
(5.04082 -0.103444 0)
(5.046 -0.1195 0)
(5.04947 -0.13141 0)
(5.00956 0.305062 0)
(5.02495 0.219696 0)
(5.00895 0.171718 0)
(4.97946 0.16424 0)
(4.97039 0.15243 0)
(4.9911 0.124943 0)
(5.01835 0.0905638 0)
(5.03129 0.0604755 0)
(5.02739 0.038546 0)
(5.01821 0.0209003 0)
(5.01516 0.00263108 0)
(5.0221 -0.0196096 0)
(5.03721 -0.0460673 0)
(5.05379 -0.0717991 0)
(5.06436 -0.0923116 0)
(5.06479 -0.105865 0)
(5.05637 -0.113187 0)
(5.04278 -0.1195 0)
(4.97404 0.251123 0)
(4.99587 0.162389 0)
(5.02815 0.160096 0)
(5.04482 0.16194 0)
(5.05115 0.141003 0)
(5.05234 0.110496 0)
(5.04188 0.0852126 0)
(5.02333 0.0678543 0)
(5.0089 0.0525589 0)
(5.00855 0.0322224 0)
(5.02442 0.00313078 0)
(5.0501 -0.0298594 0)
(5.07535 -0.0585453 0)
(5.09119 -0.07776 0)
(5.09528 -0.0870503 0)
(5.08865 -0.0905203 0)
(5.0783 -0.0933519 0)
(5.06804 -0.102736 0)
(5.13266 0.216763 0)
(5.05265 0.196272 0)
(5.00859 0.163817 0)
(4.98702 0.15782 0)
(4.98629 0.153508 0)
(4.99393 0.140287 0)
(4.99285 0.120218 0)
(4.98361 0.0907197 0)
(4.97615 0.0491328 0)
(4.97599 6.84756e-05 0)
(4.98296 -0.0458016 0)
(4.99431 -0.0791207 0)
(5.00699 -0.0958305 0)
(5.01861 -0.0983674 0)
(5.02951 -0.0934772 0)
(5.04002 -0.0891425 0)
(5.05172 -0.0909479 0)
(5.06366 -0.102469 0)
(4.99901 0.296002 0)
(4.96441 0.259905 0)
(4.94392 0.209608 0)
(4.94668 0.165072 0)
(4.97472 0.122678 0)
(5.01428 0.0939088 0)
(5.04782 0.0835266 0)
(5.07309 0.0784744 0)
(5.09223 0.0631505 0)
(5.10264 0.0321769 0)
(5.10103 -0.00868816 0)
(5.08856 -0.0494369 0)
(5.07063 -0.0821874 0)
(5.05312 -0.103943 0)
(5.04068 -0.116235 0)
(5.03491 -0.124029 0)
(5.03578 -0.1319 0)
(5.04126 -0.143851 0)
(4.94902 0.296604 0)
(4.9832 0.234444 0)
(5.00964 0.156204 0)
(5.02818 0.104566 0)
(5.04126 0.0768536 0)
(5.05081 0.0643582 0)
(5.05265 0.0525926 0)
(5.04955 0.0324174 0)
(5.04695 0.00628707 0)
(5.04631 -0.0166532 0)
(5.04629 -0.0302464 0)
(5.04523 -0.0354355 0)
(5.04362 -0.0379484 0)
(5.04216 -0.0437344 0)
(5.04197 -0.0561894 0)
(5.04245 -0.0754263 0)
(5.04442 -0.099775 0)
(5.04553 -0.126586 0)
(5.12735 0.15996 0)
(5.12644 0.196366 0)
(5.10414 0.200858 0)
(5.07429 0.156212 0)
(5.04956 0.109247 0)
(5.03688 0.0882322 0)
(5.0327 0.0893183 0)
(5.03268 0.0911351 0)
(5.03556 0.0761038 0)
(5.04066 0.0416539 0)
(5.04757 -0.00371874 0)
(5.05655 -0.048962 0)
(5.06748 -0.0860939 0)
(5.07928 -0.112275 0)
(5.09077 -0.128203 0)
(5.10004 -0.137689 0)
(5.10679 -0.143787 0)
(5.10963 -0.150871 0)
(4.99044 0.298162 0)
(4.98514 0.284383 0)
(4.98599 0.224066 0)
(5.00379 0.155516 0)
(5.01557 0.114061 0)
(5.013 0.0917648 0)
(5.01084 0.0682078 0)
(5.02006 0.0353095 0)
(5.04073 -0.000972971 0)
(5.06571 -0.0330279 0)
(5.08484 -0.0565738 0)
(5.09279 -0.0725438 0)
(5.09121 -0.0843087 0)
(5.08428 -0.0946187 0)
(5.07582 -0.104693 0)
(5.06832 -0.115018 0)
(5.06291 -0.125497 0)
(5.05959 -0.136405 0)
(4.95573 0.31914 0)
(5.02916 0.257492 0)
(5.04666 0.185413 0)
(5.04452 0.133399 0)
(5.0438 0.109456 0)
(5.05842 0.0941804 0)
(5.07887 0.0686532 0)
(5.09001 0.0308655 0)
(5.08639 -0.00907447 0)
(5.07369 -0.0398871 0)
(5.06167 -0.0587367 0)
(5.05542 -0.06944 0)
(5.05582 -0.0774991 0)
(5.06056 -0.0870774 0)
(5.06597 -0.0992099 0)
(5.06836 -0.113251 0)
(5.06656 -0.127079 0)
(5.0596 -0.139351 0)
(5.01364 0.227829 0)
(5.01035 0.230989 0)
(5.03095 0.195878 0)
(5.05046 0.147015 0)
(5.06895 0.100309 0)
(5.0905 0.0651371 0)
(5.11461 0.0448246 0)
(5.13372 0.0334392 0)
(5.1461 0.0208516 0)
(5.15413 0.000525084 0)
(5.15818 -0.0277366 0)
(5.15896 -0.0586394 0)
(5.15795 -0.0854605 0)
(5.1544 -0.103471 0)
(5.1475 -0.111477 0)
(5.13682 -0.111901 0)
(5.12422 -0.10815 0)
(5.11106 -0.105161 0)
(4.94149 0.284175 0)
(5.01017 0.251821 0)
(5.04689 0.162645 0)
(5.07935 0.105214 0)
(5.09928 0.0701257 0)
(5.11528 0.0413425 0)
(5.13636 0.0137657 0)
(5.16536 -0.0105392 0)
(5.20035 -0.0311673 0)
(5.23372 -0.0494572 0)
(5.25606 -0.0643806 0)
(5.26194 -0.0741191 0)
(5.25313 -0.078885 0)
(5.2355 -0.0804536 0)
(5.21546 -0.0814121 0)
(5.19729 -0.0843086 0)
(5.18368 -0.090681 0)
(5.17494 -0.101765 0)
(4.91741 0.241988 0)
(5.00216 0.187772 0)
(5.0681 0.146605 0)
(5.12723 0.113563 0)
(5.16845 0.0820793 0)
(5.19353 0.0460031 0)
(5.20935 0.00802326 0)
(5.21551 -0.0246406 0)
(5.2093 -0.0446898 0)
(5.19431 -0.0524215 0)
(5.177 -0.0530236 0)
(5.16281 -0.0515528 0)
(5.15553 -0.0514239 0)
(5.15576 -0.0540379 0)
(5.16148 -0.0592911 0)
(5.1689 -0.066479 0)
(5.1758 -0.074782 0)
(5.17964 -0.0842923 0)
(4.9723 0.289162 0)
(5.03381 0.139454 0)
(5.12332 0.0676156 0)
(5.1871 0.0355283 0)
(5.21098 0.0174684 0)
(5.21761 0.000974183 0)
(5.22098 -0.0113262 0)
(5.22498 -0.018238 0)
(5.23005 -0.0223919 0)
(5.23457 -0.0289295 0)
(5.2387 -0.0412976 0)
(5.24273 -0.0579235 0)
(5.24689 -0.07462 0)
(5.2509 -0.0877512 0)
(5.2553 -0.0961272 0)
(5.25953 -0.101089 0)
(5.26465 -0.104587 0)
(5.26961 -0.110051 0)
(4.91838 0.282118 0)
(5.01873 0.12926 0)
(5.10788 0.0848543 0)
(5.18364 0.0856782 0)
(5.23517 0.0739639 0)
(5.27261 0.0411649 0)
(5.30502 0.00189321 0)
(5.33327 -0.0262083 0)
(5.35635 -0.0415172 0)
(5.373 -0.0484199 0)
(5.38188 -0.0513962 0)
(5.38345 -0.053517 0)
(5.38075 -0.0563916 0)
(5.3776 -0.0608114 0)
(5.37754 -0.0669796 0)
(5.38094 -0.0748018 0)
(5.38766 -0.0839104 0)
(5.39438 -0.0937856 0)
(4.99091 0.169943 0)
(5.12809 0.023405 0)
(5.20446 -0.0147093 0)
(5.26555 -0.023093 0)
(5.31904 -0.0345723 0)
(5.34739 -0.044367 0)
(5.35599 -0.0512052 0)
(5.3612 -0.0545273 0)
(5.37051 -0.0539968 0)
(5.38378 -0.0527566 0)
(5.39849 -0.0547367 0)
(5.41237 -0.0618484 0)
(5.42426 -0.0733 0)
(5.43322 -0.0867599 0)
(5.43839 -0.0995278 0)
(5.43886 -0.110067 0)
(5.43463 -0.117579 0)
(5.42574 -0.122543 0)
(5.03385 0.161082 0)
(5.17606 0.0649925 0)
(5.29344 0.0529919 0)
(5.33297 0.0389081 0)
(5.34109 0.0255083 0)
(5.36244 0.0125587 0)
(5.39991 -0.00572825 0)
(5.4404 -0.0284743 0)
(5.4723 -0.0474497 0)
(5.49177 -0.058411 0)
(5.50079 -0.0630035 0)
(5.50263 -0.0648844 0)
(5.49983 -0.0664482 0)
(5.49395 -0.0682817 0)
(5.48615 -0.0701902 0)
(5.47781 -0.0722002 0)
(5.46972 -0.0747787 0)
(5.46336 -0.0795549 0)
(4.98084 0.0639949 0)
(5.17126 -0.0542229 0)
(5.29071 -0.0397952 0)
(5.35861 -0.040538 0)
(5.42274 -0.0529424 0)
(5.47817 -0.070974 0)
(5.50949 -0.0845466 0)
(5.51393 -0.0872086 0)
(5.49946 -0.0807046 0)
(5.47634 -0.0717518 0)
(5.4507 -0.0664147 0)
(5.42397 -0.0671543 0)
(5.39476 -0.0730476 0)
(5.36248 -0.08168 0)
(5.32652 -0.090583 0)
(5.28803 -0.0981525 0)
(5.24609 -0.104074 0)
(5.2026 -0.109136 0)
(5.01318 0.0976296 0)
(5.1655 0.0115171 0)
(5.13734 0.00180631 0)
(5.01336 -0.0172424 0)
(4.87924 -0.0243297 0)
(4.74193 -0.0218021 0)
(4.59196 -0.0216088 0)
(4.43331 -0.0266577 0)
(4.27712 -0.0328072 0)
(4.13122 -0.0363426 0)
(3.9972 -0.0366873 0)
(3.87159 -0.0351484 0)
(3.74878 -0.0330928 0)
(3.62509 -0.0313312 0)
(3.49831 -0.0300828 0)
(3.37041 -0.0293591 0)
(3.24134 -0.0299166 0)
(3.1127 -0.0323086 0)
(-0.02365 0.0500338 3.44363e-20)
(-0.0724401 0.0512458 -3.41873e-20)
(-0.120015 0.0502759 0)
(-0.168287 0.0498432 0)
(-0.215724 0.0490456 0)
(-0.262739 0.0479208 3.31701e-20)
(-0.308581 0.0464943 0)
(-0.353098 0.04474 0)
(-0.3958 0.042634 0)
(-0.436351 0.0401417 0)
(-0.474333 0.0372671 -3.1929e-20)
(-0.509297 0.0340031 0)
(-0.540818 0.0303354 0)
(-0.5684 0.0262997 0)
(-0.59165 0.0218985 0)
(-0.610181 0.0171797 -3.07336e-20)
(-0.623567 0.0122244 0)
(-0.631481 0.00704649 0)
(-0.633602 0.00174772 0)
(-0.62973 -0.00354791 0)
(-0.619829 -0.00883359 0)
(-0.603864 -0.0139902 0)
(-0.581688 -0.0190521 0)
(-0.553554 -0.023913 -2.89374e-20)
(-0.51963 -0.0285149 2.87223e-20)
(-0.480074 -0.0328273 -2.85088e-20)
(-0.435277 -0.0367691 -2.82967e-20)
(-0.385466 -0.0403216 0)
(-0.331169 -0.0435492 0)
(-0.272793 -0.0462265 2.76665e-20)
(-0.21072 -0.048547 2.74578e-20)
(-0.145656 -0.0504601 0)
(-0.0778351 -0.0518468 0)
(-0.00776406 -0.0528634 2.6831e-20)
(0.0638493 -0.0534943 0)
(0.136617 -0.0537559 0)
(0.210149 -0.0536769 -2.61803e-20)
(0.284035 -0.0532894 0)
(0.357889 -0.0526264 -2.57437e-20)
(0.43136 -0.0517212 -5.10505e-20)
(0.504131 -0.0506065 0)
(0.575923 -0.0493146 0)
(0.646489 -0.0478758 0)
(0.715617 -0.0463187 0)
(0.783127 -0.0446698 0)
(0.84887 -0.0429533 -4.84294e-20)
(0.912724 -0.0411909 -4.7994e-20)
(0.974595 -0.0394019 -4.75592e-20)
(1.03441 -0.0376033 0)
(1.09212 -0.0358099 4.66927e-20)
(1.14769 -0.0340343 0)
(1.20112 -0.0322871 -4.58309e-20)
(1.25239 -0.0305771 -4.54021e-20)
(1.30152 -0.0289115 0)
(1.34854 -0.0272961 0)
(1.39348 -0.0257351 0)
(1.43637 -0.024232 -4.37036e-20)
(1.47728 -0.022789 0)
(1.51624 -0.0214077 0)
(1.55331 -0.0200887 0)
(1.58856 -0.0188322 0)
(1.62204 -0.0176378 0)
(1.65382 -0.0165045 0)
(1.68397 -0.0154311 0)
(1.71253 -0.0144162 0)
(1.73959 -0.0134578 4.00003e-20)
(1.76519 -0.0125541 0)
(1.78942 -0.0117029 0)
(1.81231 -0.0109022 -3.88073e-20)
(1.83395 -0.0101496 -3.84144e-20)
(1.85437 -0.00944293 0)
(1.87365 -0.00877995 3.7636e-20)
(1.89184 -0.00815841 -3.72505e-20)
(1.90898 -0.00757612 0)
(1.92513 -0.00703094 3.64869e-20)
(1.94034 -0.0065208 0)
(1.95466 -0.00604368 0)
(1.96813 -0.00559765 -3.53601e-20)
(1.98079 -0.00518086 0)
(1.99269 -0.00479153 3.46211e-20)
(2.00387 -0.00442799 0)
(2.01436 -0.00408861 -3.3892e-20)
(2.02421 -0.0037719 -3.35311e-20)
(2.03344 -0.00347641 -3.31727e-20)
(2.04208 -0.00320076 -6.56333e-20)
(2.05018 -0.00294374 6.4926e-20)
(2.05775 -0.00270407 0)
(2.06484 -0.00248056 0)
(2.07145 -0.00227235 0)
(2.07763 -0.00207814 6.21447e-20)
(2.08338 -0.00189692 6.14612e-20)
(2.08875 -0.00172848 -6.07823e-20)
(2.09374 -0.00157117 0)
(2.09838 -0.00142364 5.94385e-20)
(2.10269 -0.00128753 5.87736e-20)
(2.10669 -0.00116051 5.81131e-20)
(2.11039 -0.00103877 0)
(2.11381 -0.000927983 0)
(2.11697 -0.00082658 0)
(2.11987 -0.000723097 5.55164e-20)
(2.12254 -0.000627552 0)
(2.12499 -0.000542435 0)
(2.12722 -0.000441559 -5.36151e-20)
(2.12922 -0.000325979 0)
(2.13099 -0.000206592 0)
(2.13254 -9.50643e-05 -5.17526e-20)
(2.13388 4.26537e-06 0)
(2.13503 8.8364e-05 0)
(2.136 0.000153953 4.9928e-20)
(2.13682 0.000201352 4.93281e-20)
(2.13752 0.000233884 0)
(2.13811 0.000256156 -4.81404e-20)
(2.13859 0.000272288 0)
(2.13898 0.000285118 4.69688e-20)
(2.13929 0.000296209 0)
(2.13952 0.000306303 4.5813e-20)
(2.13967 0.000315674 4.52409e-20)
(2.13975 0.00032444 0)
(2.13976 0.000332642 0)
(2.13971 0.000340318 0)
(2.1396 0.000347487 0)
(2.13943 0.000354177 0)
(2.1392 0.000360411 0)
(2.13893 0.000366239 0)
(2.13861 0.000371684 4.08003e-20)
(2.13824 0.000376785 -4.02617e-20)
(2.13783 0.00038155 0)
(2.13738 0.000386013 0)
(2.13689 0.000390186 0)
(2.13636 0.000394104 0)
(2.1358 0.000397765 -7.52428e-20)
(2.13521 0.000401193 0)
(2.13458 0.000404387 7.31786e-20)
(2.13392 0.000407382 -7.21565e-20)
(2.13324 0.000410195 0)
(2.13253 0.00041286 0)
(2.13179 0.000415383 0)
(2.13103 0.000417784 6.81336e-20)
(2.13024 0.000420069 6.71439e-20)
(2.12943 0.000422252 0)
(2.1286 0.00042434 6.51834e-20)
(2.12774 0.00042635 6.42124e-20)
(2.12686 0.00042831 -6.32476e-20)
(2.12597 0.000430246 0)
(2.12505 0.000432186 0)
(2.12411 0.000434157 -6.0389e-20)
(2.12315 0.000436195 0)
(2.12217 0.000438338 0)
(2.12118 0.00044063 0)
(2.12016 0.000443116 0)
(2.11911 0.000445851 5.57412e-20)
(2.11805 0.000448904 5.48285e-20)
(2.11697 0.000452366 0)
(2.11585 0.000456352 5.30196e-20)
(2.11472 0.000460999 0)
(2.11355 0.000466483 0)
(2.11235 0.000473019 5.03465e-20)
(2.11111 0.000480889 0)
(2.10984 0.00049044 4.85906e-20)
(2.10851 0.000502147 0)
(2.10713 0.000516549 0)
(2.10567 0.000534514 4.5995e-20)
(2.10413 0.000556753 0)
(2.10249 0.000585202 4.42895e-20)
(2.10073 0.000620025 0)
(2.0988 0.000666874 0)
(2.09667 0.000721655 0)
(2.0943 0.000801902 -4.09377e-20)
(2.09154 0.000891739 0)
(2.08849 0.00102386 3.92916e-20)
(2.08453 0.00121017 0)
(2.08043 0.00136048 0)
(2.07422 0.00191017 0)
(2.06803 0.00182795 0)
(2.05794 0.0035836 0)
(2.04598 0.0025629 0)
(2.02994 0.00809279 0)
(1.99797 0.0041904 -6.58996e-20)
(1.97388 0.0256918 0)
(1.85678 0.0195795 0)
(-0.0244089 0.154315 -1.03303e-19)
(-0.0772355 0.156904 1.02555e-19)
(-0.126723 0.152741 0)
(-0.177391 0.150952 -6.73488e-20)
(-0.226881 0.147835 0)
(-0.275578 0.143617 -3.31658e-20)
(-0.32272 0.138373 6.58328e-20)
(-0.368113 0.132098 6.5333e-20)
(-0.411293 0.124749 0)
(-0.451882 0.116292 6.43428e-20)
(-0.489463 0.106734 3.19259e-20)
(-0.523684 0.0960757 0)
(-0.554114 0.0843438 0)
(-0.580327 0.0715817 0)
(-0.602025 0.0578442 0)
(-0.618779 0.0432638 3.07332e-20)
(-0.630338 0.0279635 0)
(-0.636424 0.0120746 -6.05424e-20)
(-0.636653 -0.00423032 0)
(-0.630683 -0.0207005 0)
(-0.618358 -0.0372216 5.91885e-20)
(-0.599693 -0.0535266 0)
(-0.574553 -0.0694542 -5.83081e-20)
(-0.543061 -0.0847897 2.89372e-20)
(-0.505505 -0.0993563 -2.8722e-20)
(-0.462008 -0.112978 2.85084e-20)
(-0.412994 -0.1255 2.82962e-20)
(-0.3589 -0.136822 0)
(-0.299973 -0.146908 0)
(-0.236779 -0.155596 -2.76662e-20)
(-0.169986 -0.162943 2.74609e-20)
(-0.0998478 -0.168934 0)
(-0.0268782 -0.173569 0)
(0.0482389 -0.176912 -2.68269e-20)
(0.125002 -0.179036 0)
(0.202969 -0.180014 0)
(0.281723 -0.179933 2.61724e-20)
(0.360846 -0.178889 0)
(0.439949 -0.176983 -2.574e-20)
(0.518679 -0.174317 5.10338e-20)
(0.596721 -0.170991 0)
(0.673794 -0.167101 0)
(0.749655 -0.162741 9.94515e-20)
(0.824091 -0.157996 9.85771e-20)
(0.896925 -0.152947 9.77034e-20)
(0.968008 -0.147667 -4.84186e-20)
(1.03722 -0.14222 4.79764e-20)
(1.10446 -0.136667 1.42631e-19)
(1.16966 -0.131059 -9.42212e-20)
(1.23277 -0.125442 -4.66751e-20)
(1.29375 -0.119853 0)
(1.35259 -0.114327 4.58133e-20)
(1.40927 -0.108892 -4.53887e-20)
(1.46381 -0.10357 0)
(1.51623 -0.0983807 0)
(1.56654 -0.0933388 0)
(1.61479 -0.0884561 4.36861e-20)
(1.66102 -0.0837412 0)
(1.70527 -0.0792002 -8.56988e-20)
(1.74758 -0.0748371 0)
(1.78801 -0.0706539 -8.40391e-20)
(1.82662 -0.0666509 0)
(1.86347 -0.0628271 8.23969e-20)
(1.8986 -0.0591804 0)
(1.93207 -0.0557078 -8.0773e-20)
(1.96396 -0.0524053 3.99848e-20)
(1.9943 -0.0492685 0)
(2.02317 -0.0462926 7.83726e-20)
(2.05062 -0.0434721 3.87905e-20)
(2.0767 -0.0408015 3.83977e-20)
(2.10147 -0.0382752 0)
(2.12499 -0.0358872 3.76205e-20)
(2.1473 -0.0336318 3.72341e-20)
(2.16846 -0.031503 0)
(2.18852 -0.0294951 -3.64708e-20)
(2.20753 -0.0276024 7.21863e-20)
(2.22553 -0.0258193 0)
(2.24257 -0.0241403 3.53443e-20)
(2.2587 -0.0225602 0)
(2.27395 -0.0210737 -1.03818e-19)
(2.28837 -0.0196761 0)
(2.30199 -0.0183625 1.01631e-19)
(2.31486 -0.0171284 3.35162e-20)
(2.32702 -0.0159695 -3.31582e-20)
(2.33848 -0.0148815 -6.56046e-20)
(2.3493 -0.0138605 6.48977e-20)
(2.3595 -0.0129026 0)
(2.36912 -0.0120043 0)
(2.37817 -0.0111622 0)
(2.3867 -0.010373 -1.86352e-19)
(2.39473 -0.00963356 -6.14341e-20)
(2.40228 -0.00894125 6.07556e-20)
(2.40938 -0.00829324 0)
(2.41605 -0.00768636 5.94129e-20)
(2.42232 -0.00711906 -5.8748e-20)
(2.4282 -0.00658897 -5.80879e-20)
(2.43372 -0.00609195 0)
(2.4389 -0.005628 0)
(2.44375 -0.00519553 0)
(2.4483 -0.00478796 -5.54927e-20)
(2.45256 -0.00440746 0)
(2.45655 -0.00405246 1.08443e-19)
(2.46027 -0.00371082 1.60778e-19)
(2.46379 -0.00338813 -1.05936e-19)
(2.46711 -0.00308821 0)
(2.47024 -0.0028042 -5.17312e-20)
(2.4732 -0.00253417 0)
(2.476 -0.00228559 -1.01022e-19)
(2.47866 -0.00206182 4.99075e-20)
(2.48116 -0.00186177 4.93079e-20)
(2.48352 -0.00168268 0)
(2.48573 -0.00152068 1.44362e-19)
(2.48779 -0.00137227 -9.50666e-20)
(2.48972 -0.00123492 -4.69498e-20)
(2.49151 -0.00110716 0)
(2.49318 -0.000988172 -4.57946e-20)
(2.49472 -0.000877493 -1.35669e-19)
(2.49615 -0.000774723 0)
(2.49747 -0.000679469 -8.81817e-20)
(2.4987 -0.000591291 -8.70611e-20)
(2.49983 -0.000509754 -8.5948e-20)
(2.50087 -0.000434406 0)
(2.50183 -0.00036483 0)
(2.50271 -0.000300578 0)
(2.50353 -0.000241274 4.07846e-20)
(2.50427 -0.000186529 4.02463e-20)
(2.50495 -0.000136041 0)
(2.50558 -8.9476e-05 7.83607e-20)
(2.50615 -4.65632e-05 7.73052e-20)
(2.50667 -6.99938e-06 0)
(2.50714 2.9445e-05 7.5215e-20)
(2.50757 6.30187e-05 1.4836e-19)
(2.50795 9.39103e-05 -7.31518e-20)
(2.5083 0.000122346 -7.21302e-20)
(2.50862 0.000148506 0)
(2.5089 0.000172598 0)
(2.50915 0.00019478 0)
(2.50937 0.00021522 -6.81094e-20)
(2.50957 0.000234054 6.71202e-20)
(2.50974 0.000251419 1.32275e-19)
(2.50989 0.000267446 -6.51607e-20)
(2.51002 0.000282258 6.41902e-20)
(2.51013 0.000295999 6.32258e-20)
(2.51022 0.000308805 0)
(2.51029 0.000320818 0)
(2.51035 0.000332177 -6.03686e-20)
(2.51039 0.000343023 0)
(2.51042 0.000353505 0)
(2.51043 0.000363781 1.15128e-19)
(2.51043 0.00037402 0)
(2.51041 0.000384411 5.5723e-20)
(2.51038 0.000395173 -5.48108e-20)
(2.51034 0.000406568 0)
(2.51028 0.000418919 5.30026e-20)
(2.5102 0.000432613 0)
(2.51011 0.00044813 0)
(2.51 0.000466057 -5.03307e-20)
(2.50986 0.000487134 9.89011e-20)
(2.5097 0.00051229 -4.85756e-20)
(2.50951 0.000542711 0)
(2.50928 0.0005799 0)
(2.509 0.000625816 4.59809e-20)
(2.50866 0.000682933 0)
(2.50825 0.000754579 4.42761e-20)
(2.50776 0.000845001 0)
(2.50713 0.000959623 0)
(2.50639 0.00110777 0)
(2.5054 0.00129249 4.09258e-20)
(2.50425 0.00155272 0)
(2.5026 0.00183454 -3.92802e-20)
(2.50083 0.00236342 0)
(2.49795 0.00270637 0)
(2.49511 0.00397972 7.37006e-20)
(2.48987 0.00414664 -7.21038e-20)
(2.48508 0.00748368 0)
(2.47494 0.00685444 0)
(2.46629 0.0163483 0)
(2.44505 0.013877 1.97613e-19)
(2.42974 0.046693 0)
(2.38698 0.0491625 -1.2576e-19)
(-0.0245528 0.262745 -7.4883e-24)
(-0.0789179 0.267228 -1.36728e-19)
(-0.129976 0.260157 0)
(-0.18257 0.256849 1.34681e-19)
(-0.23408 0.25125 0)
(-0.284998 0.243786 0)
(-0.334551 0.234616 4.77031e-24)
(-0.382553 0.223713 -6.53213e-20)
(-0.428555 0.211025 -6.48278e-20)
(-0.47214 0.196521 -6.43314e-20)
(-0.512861 0.1802 0)
(-0.550268 0.162059 0)
(-0.583886 0.142154 6.28735e-20)
(-0.613225 0.120536 1.24791e-19)
(-0.637778 0.0973205 -1.23844e-19)
(-0.657086 0.0726562 0)
(-0.670778 0.0467121 -1.21979e-19)
(-0.67845 0.0197973 6.05349e-20)
(-0.679666 -0.00788418 0)
(-0.674167 -0.0360337 -1.19247e-19)
(-0.661824 -0.0642474 -5.91791e-20)
(-0.642542 -0.0921814 1.17466e-19)
(-0.616272 -0.119384 5.82972e-20)
(-0.58327 -0.14561 0)
(-0.543764 -0.17047 -1.14863e-19)
(-0.497978 -0.193659 -1.14011e-19)
(-0.446449 -0.214946 0)
(-0.389589 -0.234155 -1.12324e-19)
(-0.327846 -0.251046 0)
(-0.261787 -0.265697 -1.10653e-19)
(-0.192023 -0.277958 -5.49056e-20)
(-0.119175 -0.28782 0)
(-0.0436064 -0.295454 0)
(0.0340731 -0.300897 0)
(0.113143 -0.304254 0)
(0.193199 -0.30568 0)
(0.273825 -0.305333 0)
(0.354594 -0.303384 -1.03821e-19)
(0.435122 -0.300006 1.54414e-19)
(0.515063 -0.295376 0)
(0.594115 -0.289663 0)
(0.672013 -0.283032 0)
(0.74853 -0.275638 1.27051e-23)
(0.823475 -0.267624 -9.85609e-20)
(0.896688 -0.259124 -1.95387e-19)
(0.96804 -0.250257 1.93642e-19)
(1.03743 -0.241132 9.59551e-20)
(1.10477 -0.231844 -9.50756e-20)
(1.17002 -0.222477 -9.06669e-24)
(1.23313 -0.213104 -9.33515e-20)
(1.29409 -0.203787 0)
(1.35288 -0.19458 -9.16274e-20)
(1.40951 -0.185528 -6.89812e-24)
(1.464 -0.176666 0)
(1.51638 -0.168024 0)
(1.56667 -0.159627 8.82161e-20)
(1.61491 -0.151492 0)
(1.66115 -0.143632 0)
(1.70544 -0.136058 -8.57005e-20)
(1.74782 -0.128774 -1.69728e-19)
(1.78835 -0.121783 8.40327e-20)
(1.82709 -0.115087 0)
(1.86409 -0.108682 -8.23913e-20)
(1.8994 -0.102565 0)
(1.93309 -0.0967319 -8.07738e-20)
(1.9652 -0.0911756 -7.99634e-20)
(1.99581 -0.0858894 1.58332e-19)
(2.02496 -0.0808652 7.8373e-20)
(2.0527 -0.0760947 0)
(2.0791 -0.0715693 -1.53589e-19)
(2.10421 -0.0672797 0)
(2.12807 -0.063217 -2.25713e-19)
(2.15074 -0.0593718 -1.48935e-19)
(2.17227 -0.055735 -1.47403e-19)
(2.19271 -0.0522975 1.45882e-19)
(2.21209 -0.0490502 -2.16553e-19)
(2.23048 -0.0459844 0)
(2.24791 -0.0430915 0)
(2.26442 -0.0403631 1.39893e-19)
(2.28006 -0.0377912 2.07631e-19)
(2.29486 -0.0353678 0)
(2.30887 -0.0330854 -6.77521e-20)
(2.32212 -0.0309368 0)
(2.33464 -0.028915 1.98944e-19)
(2.34647 -0.0270133 -1.26233e-24)
(2.35765 -0.0252253 1.16585e-24)
(2.3682 -0.0235448 -1.28388e-19)
(2.37816 -0.021966 0)
(2.38755 -0.0204834 1.25608e-19)
(2.3964 -0.0190916 -8.42416e-25)
(2.40474 -0.0177857 0)
(2.4126 -0.0165609 0)
(2.42 -0.0154123 0)
(2.42696 -0.0143362 -1.18823e-19)
(2.4335 -0.0133285 0)
(2.43966 -0.0123839 0)
(2.44544 -0.0115001 0)
(2.45087 -0.0106742 0)
(2.45597 -0.00990001 0)
(2.46075 -0.00917665 -1.10983e-19)
(2.46524 -0.0085009 0)
(2.46944 -0.00786851 -1.08441e-19)
(2.47337 -0.00728247 -1.07183e-19)
(2.47705 -0.00673722 1.05934e-19)
(2.4805 -0.00622603 0)
(2.48375 -0.00574324 1.0346e-19)
(2.48679 -0.00529817 0)
(2.48964 -0.00489558 1.01021e-19)
(2.49231 -0.00452655 -9.98131e-20)
(2.4948 -0.00418481 -2.95842e-19)
(2.49713 -0.00386559 0)
(2.4993 -0.00356517 -2.88719e-19)
(2.50133 -0.00328168 -9.50649e-20)
(2.50321 -0.00301455 0)
(2.50497 -0.00276371 -1.85478e-19)
(2.5066 -0.00252908 -1.83175e-19)
(2.50812 -0.00231033 2.71332e-19)
(2.50953 -0.0021069 0)
(2.51085 -0.00191804 8.818e-20)
(2.51207 -0.00174292 8.70594e-20)
(2.5132 -0.0015807 2.57839e-19)
(2.51425 -0.00143055 0)
(2.51523 -0.00129165 0)
(2.51613 -0.00116324 0)
(2.51697 -0.00104461 8.15676e-20)
(2.51774 -0.000935076 0)
(2.51846 -0.000834026 0)
(2.51912 -0.000740865 -7.83592e-20)
(2.51974 -0.00065504 -7.73037e-20)
(2.5203 -0.000576008 0)
(2.52083 -0.000503273 0)
(2.52131 -0.000436363 -1.48357e-19)
(2.52176 -0.000374853 0)
(2.52217 -0.000318327 1.44258e-19)
(2.52255 -0.000266415 1.42228e-19)
(2.52289 -0.000218752 0)
(2.52322 -0.00017501 0)
(2.52351 -0.000134875 -1.36216e-19)
(2.52378 -9.80478e-05 -7.28628e-26)
(2.52403 -6.42433e-05 -6.99011e-26)
(2.52426 -3.31867e-05 0)
(2.52447 -4.61034e-06 -2.56756e-19)
(2.52467 2.17543e-05 0)
(2.52484 4.61674e-05 0)
(2.525 6.88845e-05 0)
(2.52515 9.01489e-05 1.20735e-19)
(2.52529 0.0001102 0)
(2.52541 0.000129286 -2.33968e-19)
(2.52552 0.000147679 -1.15126e-19)
(2.52561 0.000165674 0)
(2.5257 0.000183598 -1.11444e-19)
(2.52577 0.000201816 0)
(2.52583 0.000220753 0)
(2.52588 0.000240909 -3.1801e-19)
(2.52592 0.000262891 2.08423e-19)
(2.52594 0.00028744 0)
(2.52594 0.000315474 2.01319e-19)
(2.52592 0.00034813 -9.88992e-20)
(2.52588 0.000386859 0)
(2.52581 0.000433436 0)
(2.52571 0.000490279 0)
(2.52556 0.000560081 -2.7588e-19)
(2.52535 0.000647314 0)
(2.52508 0.000755414 -8.85507e-20)
(2.52473 0.000894377 0)
(2.52425 0.00106499 0)
(2.52366 0.00129576 0)
(2.52284 0.00156548 0)
(2.52187 0.0019733 0)
(2.52043 0.0023853 0)
(2.51884 0.00318088 -1.53853e-19)
(2.51631 0.0037456 0)
(2.5136 0.00547925 -7.36989e-20)
(2.50909 0.00613432 2.163e-19)
(2.50434 0.0101507 0)
(2.496 0.0110216 0)
(2.48747 0.0210484 -1.34772e-19)
(2.47223 0.0237315 -1.31728e-19)
(2.45769 0.0527873 1.28656e-19)
(2.43675 0.0663661 1.25751e-19)
(-0.025403 0.374605 2.06585e-19)
(-0.0832795 0.382488 2.05084e-19)
(-0.137949 0.373177 1.35702e-19)
(-0.194426 0.36863 6.73478e-20)
(-0.249834 0.360794 0)
(-0.304727 0.350411 -1.32644e-19)
(-0.358346 0.337665 6.58227e-20)
(-0.410508 0.322447 0)
(-0.460724 0.30467 6.48127e-20)
(-0.508529 0.28426 0)
(-0.553436 0.261171 -1.27656e-19)
(-0.594923 0.23536 0)
(-0.632406 0.206878 -6.28589e-20)
(-0.665318 0.175805 -1.24762e-19)
(-0.69311 0.142252 1.23816e-19)
(-0.715198 0.106479 0)
(-0.731021 0.0687486 1.21955e-19)
(-0.740167 0.0294464 0)
(-0.742233 -0.0109863 0)
(-0.736734 -0.0520956 1.19224e-19)
(-0.723512 -0.0932781 0)
(-0.702523 -0.13399 -1.2894e-23)
(-0.673838 -0.173636 0)
(-0.637734 -0.21167 0)
(-0.594422 -0.247615 5.19167e-24)
(-0.544329 -0.281033 1.13982e-19)
(-0.488103 -0.311543 1.13138e-19)
(-0.426221 -0.338857 1.12296e-19)
(-0.359339 -0.362853 0)
(-0.288187 -0.38335 2.21262e-19)
(-0.213332 -0.400388 0)
(-0.135503 -0.413983 1.0898e-19)
(-0.0553108 -0.424197 0)
(0.0266756 -0.431302 0)
(0.109785 -0.435443 -1.06439e-19)
(0.193497 -0.436837 0)
(0.277386 -0.435731 1.04693e-19)
(0.361025 -0.432385 -1.96706e-23)
(0.444034 -0.42706 -2.0587e-19)
(0.526083 -0.420011 2.0414e-19)
(0.606889 -0.411486 0)
(0.68621 -0.401721 0)
(0.763847 -0.390935 9.94616e-20)
(0.839637 -0.379332 0)
(0.913449 -0.367095 9.76798e-20)
(0.985182 -0.354391 -9.68077e-20)
(1.05476 -0.341368 -9.5937e-20)
(1.12213 -0.328156 0)
(1.18727 -0.314868 9.42007e-20)
(1.25014 -0.301603 9.33357e-20)
(1.31077 -0.288443 -1.84968e-19)
(1.36914 -0.27546 9.16132e-20)
(1.4253 -0.262711 9.07562e-20)
(1.47926 -0.250244 0)
(1.53108 -0.238097 0)
(1.58077 -0.226301 -8.82049e-20)
(1.62841 -0.214879 0)
(1.67404 -0.203846 0)
(1.71771 -0.193215 1.71373e-19)
(1.75948 -0.182992 1.69711e-19)
(1.7994 -0.173178 0)
(1.83755 -0.163775 0)
(1.87397 -0.154778 0)
(1.90872 -0.146183 0)
(1.94187 -0.13798 1.61529e-19)
(1.97347 -0.130162 -1.59928e-19)