/*--------------------------------*- C++ -*----------------------------------*\
  =========                 |
  \\      /  F ield         | OpenFOAM: The Open Source CFD Toolbox
   \\    /   O peration     | Website:  https://openfoam.org
    \\  /    A nd           | Version:  7
     \\/     M anipulation  |
\*---------------------------------------------------------------------------*/
FoamFile
{
    version     2.0;
    format      ascii;
    class       volVectorField;
    location    "0.009";
    object      UMean;
}
// * * * * * * * * * * * * * * * * * * * * * * * * * * * * * * * * * * * * * //

dimensions      [0 1 -1 0 0 0 0];

internalField   nonuniform List<vector> 
12225
(
(4.79747 0.161407 0)
(4.26383 0.103177 0)
(3.86553 0.0853558 0)
(3.56935 0.0652611 0)
(3.33432 0.0485249 0)
(3.15033 0.0356077 0)
(3.01655 0.0232946 0)
(2.9305 0.0140442 0)
(2.89167 0.00352468 0)
(2.88515 -0.000439149 0)
(2.92337 -0.0115634 0)
(2.96817 -0.00715488 0)
(3.07333 -0.028747 0)
(3.14962 -0.00486005 0)
(3.33414 -0.0637375 0)
(3.45061 0.0149977 0)
(3.76403 -0.16854 0)
(4.0572 0.0199964 0)
(5.03409 0.109245 0)
(4.93204 0.0635822 0)
(4.8399 0.0714745 0)
(4.77416 0.0631802 0)
(4.71891 0.0534956 0)
(4.67245 0.0435621 0)
(4.63391 0.0334317 0)
(4.6123 0.0193793 0)
(4.60434 0.00817926 0)
(4.62085 -0.00881779 0)
(4.64868 -0.0160972 0)
(4.70567 -0.03763 0)
(4.76609 -0.0378291 0)
(4.86892 -0.0728337 0)
(4.96484 -0.0644919 0)
(5.13742 -0.134496 0)
(5.29331 -0.147177 0)
(5.56871 -0.327695 0)
(5.01975 0.165298 0)
(4.9424 0.109722 0)
(4.88195 0.107348 0)
(4.86129 0.0920728 0)
(4.8624 0.0736328 0)
(4.87155 0.0577969 0)
(4.88455 0.0408329 0)
(4.90099 0.024485 0)
(4.92401 0.00411529 0)
(4.95368 -0.0117509 0)
(4.99418 -0.0349518 0)
(5.04269 -0.046605 0)
(5.10665 -0.0775254 0)
(5.18055 -0.0851311 0)
(5.27783 -0.138967 0)
(5.39114 -0.15717 0)
(5.53226 -0.26936 0)
(5.68969 -0.392845 0)
(5.01459 0.177579 0)
(4.9557 0.103677 0)
(4.896 0.0918827 0)
(4.87174 0.0767769 0)
(4.87427 0.0583902 0)
(4.88942 0.0413166 0)
(4.91012 0.0255907 0)
(4.93536 0.00747851 0)
(4.96474 -0.01067 0)
(5.00012 -0.0320026 0)
(5.0412 -0.0508695 0)
(5.09125 -0.0752718 0)
(5.14994 -0.0968745 0)
(5.22156 -0.130882 0)
(5.30694 -0.167159 0)
(5.40724 -0.228383 0)
(5.52354 -0.318024 0)
(5.63697 -0.448941 0)
(4.99825 0.206542 0)
(4.96404 0.12636 0)
(4.91283 0.105992 0)
(4.88563 0.0885716 0)
(4.88438 0.065865 0)
(4.89763 0.0442189 0)
(4.91846 0.0236889 0)
(4.94433 0.00353437 0)
(4.97472 -0.018756 0)
(5.00973 -0.0410117 0)
(5.05051 -0.0664126 0)
(5.09834 -0.0916143 0)
(5.15514 -0.123721 0)
(5.22206 -0.159173 0)
(5.30031 -0.208759 0)
(5.38843 -0.275238 0)
(5.48338 -0.367397 0)
(5.57023 -0.506053 0)
(4.98589 0.21996 0)
(4.96746 0.135726 0)
(4.92452 0.106557 0)
(4.89792 0.0863838 0)
(4.89617 0.0618898 0)
(4.90923 0.0367887 0)
(4.92927 0.0133825 0)
(4.95388 -0.00971413 0)
(4.98316 -0.0334404 0)
(5.01748 -0.0588896 0)
(5.05775 -0.0861917 0)
(5.10428 -0.116772 0)
(5.1585 -0.151852 0)
(5.21992 -0.194485 0)
(5.28991 -0.249002 0)
(5.36457 -0.320413 0)
(5.44152 -0.416279 0)
(5.50845 -0.541605 0)
(5.01032 0.232531 0)
(5.00657 0.149423 0)
(4.96828 0.112381 0)
(4.9386 0.0878405 0)
(4.93274 0.0608157 0)
(4.94285 0.0330173 0)
(4.96032 0.00662415 0)
(4.9822 -0.0187733 0)
(5.0087 -0.0449511 0)
(5.04017 -0.0728812 0)
(5.07715 -0.103394 0)
(5.1196 -0.137593 0)
(5.16836 -0.177074 0)
(5.22255 -0.224898 0)
(5.28261 -0.283498 0)
(5.3444 -0.358787 0)
(5.40574 -0.452296 0)
(5.45567 -0.568769 0)
(5.00465 0.244314 0)
(5.01421 0.164108 0)
(4.98637 0.120293 0)
(4.96021 0.090789 0)
(4.95435 0.061446 0)
(4.96383 0.0309472 0)
(4.98047 0.00114751 0)
(5.0012 -0.0278778 0)
(5.02639 -0.0571659 0)
(5.05647 -0.0881079 0)
(5.09168 -0.121725 0)
(5.13133 -0.15933 0)
(5.17566 -0.202519 0)
(5.22348 -0.253975 0)
(5.2746 -0.315909 0)
(5.32498 -0.392011 0)
(5.37258 -0.482941 0)
(5.4087 -0.591081 0)
(5.04824 0.244841 0)
(5.06485 0.170954 0)
(5.04397 0.123286 0)
(5.01983 0.0894801 0)
(5.01199 0.0579524 0)
(5.01782 0.0254081 0)
(5.03004 -0.00705841 0)
(5.0458 -0.0388939 0)
(5.06559 -0.0709193 0)
(5.09008 -0.104501 0)
(5.11956 -0.140838 0)
(5.15327 -0.181533 0)
(5.19073 -0.227747 0)
(5.23027 -0.281773 0)
(5.2711 -0.345094 0)
(5.30965 -0.420328 0)
(5.34402 -0.507262 0)
(5.36786 -0.606831 0)
(5.01639 0.25504 0)
(5.04241 0.183268 0)
(5.0328 0.131073 0)
(5.01565 0.0928827 0)
(5.01133 0.0592878 0)
(5.01951 0.0254733 0)
(5.03375 -0.00891704 0)
(5.05069 -0.0435173 0)
(5.07037 -0.0787207 0)
(5.09337 -0.1155 0)
(5.11978 -0.154803 0)
(5.14883 -0.19802 0)
(5.18009 -0.246467 0)
(5.21204 -0.302049 0)
(5.24373 -0.365772 0)
(5.27216 -0.439373 0)
(5.29571 -0.522043 0)
(5.30987 -0.614087 0)
(5.01271 0.253905 0)
(5.03851 0.183506 0)
(5.02795 0.130209 0)
(5.00932 0.089348 0)
(5.003 0.0532074 0)
(5.00963 0.0171699 0)
(5.02317 -0.0194525 0)
(5.03961 -0.0563201 0)
(5.05791 -0.093392 0)
(5.07824 -0.131776 0)
(5.10108 -0.172714 0)
(5.12601 -0.217616 0)
(5.15253 -0.267469 0)
(5.17895 -0.323669 0)
(5.20432 -0.386703 0)
(5.22567 -0.457637 0)
(5.2421 -0.535318 0)
(5.24958 -0.619921 0)
(5.02992 0.262665 0)
(5.05845 0.193363 0)
(5.05027 0.138143 0)
(5.03256 0.0938425 0)
(5.02602 0.0546258 0)
(5.03176 0.0164013 0)
(5.04374 -0.0220991 0)
(5.05767 -0.0608112 0)
(5.07252 -0.0999992 0)
(5.08862 -0.140536 0)
(5.10663 -0.183411 0)
(5.12618 -0.229871 0)
(5.14689 -0.28069 0)
(5.16691 -0.336937 0)
(5.18537 -0.398734 0)
(5.19942 -0.466831 0)
(5.2088 -0.539911 0)
(5.20982 -0.618242 0)
(5.01721 0.25835 0)
(5.05326 0.193856 0)
(5.0504 0.139088 0)
(5.03662 0.0925469 0)
(5.03272 0.0503692 0)
(5.03963 0.00982317 0)
(5.05149 -0.0302 0)
(5.06422 -0.0699403 0)
(5.07694 -0.109953 0)
(5.09016 -0.151326 0)
(5.10462 -0.195176 0)
(5.11989 -0.242511 0)
(5.13544 -0.293738 0)
(5.1496 -0.349518 0)
(5.16171 -0.409623 0)
(5.16945 -0.47459 0)
(5.17283 -0.54305 0)
(5.16902 -0.615455 0)
(5.02032 0.26285 0)
(5.05185 0.199759 0)
(5.0498 0.143724 0)
(5.03717 0.0945026 0)
(5.03252 0.049717 0)
(5.03671 0.00735798 0)
(5.04491 -0.0338059 0)
(5.05428 -0.0747212 0)
(5.06442 -0.116121 0)
(5.07538 -0.158965 0)
(5.08716 -0.203915 0)
(5.09892 -0.25173 0)
(5.11004 -0.30257 0)
(5.11888 -0.356931 0)
(5.12519 -0.414525 0)
(5.12709 -0.475815 0)
(5.12533 -0.539477 0)
(5.11724 -0.606032 0)
(5.0403 0.259838 0)
(5.07454 0.1981 0)
(5.07464 0.142506 0)
(5.06243 0.0917928 0)
(5.05602 0.0452535 0)
(5.05735 0.00161127 0)
(5.06277 -0.0406004 0)
(5.06975 -0.0825979 0)
(5.07741 -0.125205 0)
(5.08532 -0.169072 0)
(5.0931 -0.214451 0)
(5.09977 -0.261723 0)
(5.10486 -0.311026 0)
(5.10721 -0.362948 0)
(5.10701 -0.417164 0)
(5.10272 -0.474148 0)
(5.09542 -0.532439 0)
(5.08247 -0.592723 0)
(5.01838 0.270558 0)
(5.055 0.207505 0)
(5.05914 0.150808 0)
(5.0509 0.098682 0)
(5.04769 0.0498466 0)
(5.05077 0.00339454 0)
(5.05651 -0.0416333 0)
(5.06269 -0.085977 0)
(5.06857 -0.129914 0)
(5.07372 -0.173754 0)
(5.07802 -0.217859 0)
(5.08083 -0.262946 0)
(5.08188 -0.309379 0)
(5.08015 -0.357796 0)
(5.07579 -0.407818 0)
(5.06739 -0.459787 0)
(5.056 -0.512201 0)
(5.03943 -0.565751 0)
(5.02683 0.255285 0)
(5.06682 0.196479 0)
(5.07343 0.139741 0)
(5.06716 0.0869821 0)
(5.0648 0.038313 0)
(5.06717 -0.00721151 0)
(5.07047 -0.0510809 0)
(5.07252 -0.0945168 0)
(5.07292 -0.137976 0)
(5.07175 -0.181511 0)
(5.06935 -0.224958 0)
(5.06555 -0.268525 0)
(5.0604 -0.312218 0)
(5.05309 -0.35653 0)
(5.04383 -0.401107 0)
(5.03128 -0.44649 0)
(5.01655 -0.491383 0)
(4.99748 -0.536844 0)
(5.05413 0.264693 0)
(5.08999 0.201837 0)
(5.0937 0.144262 0)
(5.08531 0.0919963 0)
(5.08112 0.0439776 0)
(5.08175 -0.00102295 0)
(5.08319 -0.0439812 0)
(5.08319 -0.085521 0)
(5.08126 -0.125988 0)
(5.07745 -0.165828 0)
(5.07197 -0.205412 0)
(5.06464 -0.245208 0)
(5.05545 -0.28519 0)
(5.04384 -0.325507 0)
(5.03006 -0.36553 0)
(5.0133 -0.405468 0)
(4.99457 -0.444163 0)
(4.97242 -0.482534 0)
(5.03398 0.261556 0)
(5.07249 0.20004 0)
(5.07752 0.140311 0)
(5.0698 0.0856697 0)
(5.06665 0.0367174 0)
(5.06855 -0.0080103 0)
(5.07069 -0.050306 0)
(5.07037 -0.0912623 0)
(5.0672 -0.130996 0)
(5.06141 -0.169273 0)
(5.05338 -0.205867 0)
(5.04302 -0.240968 0)
(5.03041 -0.27468 0)
(5.01519 -0.307492 0)
(4.99774 -0.339271 0)
(4.9776 -0.370601 0)
(4.95575 -0.400684 0)
(4.93122 -0.430576 0)
(5.01341 0.26118 0)
(5.05485 0.197484 0)
(5.06529 0.136509 0)
(5.06389 0.0829911 0)
(5.06518 0.0366355 0)
(5.0694 -0.0045956 0)
(5.0725 -0.0422883 0)
(5.07237 -0.0772686 0)
(5.06876 -0.110052 0)
(5.06189 -0.141109 0)
(5.05207 -0.170723 0)
(5.03956 -0.199261 0)
(5.02482 -0.226822 0)
(5.00787 -0.253658 0)
(4.98916 -0.279537 0)
(4.96839 -0.304781 0)
(4.94632 -0.328786 0)
(4.92217 -0.352309 0)
(5.00064 0.257546 0)
(5.03955 0.185498 0)
(5.04936 0.122953 0)
(5.04995 0.0704114 0)
(5.05436 0.0253935 0)
(5.06076 -0.0147454 0)
(5.06411 -0.0512532 0)
(5.06265 -0.0843665 0)
(5.05713 -0.114211 0)
(5.04887 -0.141422 0)
(5.03861 -0.166789 0)
(5.02628 -0.19096 0)
(5.01184 -0.21414 0)
(4.99501 -0.236518 0)
(4.9762 -0.257863 0)
(4.95518 -0.278416 0)
(4.93287 -0.2977 0)
(4.90864 -0.316403 0)
(5.02133 0.262714 0)
(5.06704 0.181128 0)
(5.08417 0.115849 0)
(5.08977 0.0654019 0)
(5.09608 0.0254534 0)
(5.10243 -0.0081855 0)
(5.1055 -0.0382704 0)
(5.10436 -0.0662217 0)
(5.09939 -0.0923407 0)
(5.09086 -0.116574 0)
(5.07921 -0.138937 0)
(5.06481 -0.159656 0)
(5.04813 -0.178906 0)
(5.02926 -0.197031 0)
(5.00873 -0.214134 0)
(4.9864 -0.230623 0)
(4.96315 -0.246272 0)
(4.93826 -0.26162 0)
(5.02821 0.253272 0)
(5.0863 0.162137 0)
(5.11663 0.0943123 0)
(5.13178 0.0452192 0)
(5.14362 0.00665459 0)
(5.15245 -0.0261054 0)
(5.15589 -0.0545143 0)
(5.15365 -0.0788791 0)
(5.14673 -0.10005 0)
(5.13589 -0.119038 0)
(5.12168 -0.136485 0)
(5.10457 -0.152838 0)
(5.0853 -0.168291 0)
(5.06424 -0.18306 0)
(5.04191 -0.197084 0)
(5.01819 -0.210554 0)
(4.99364 -0.223146 0)
(4.96772 -0.235227 0)
(4.98601 0.238963 0)
(5.05561 0.146015 0)
(5.09757 0.0846946 0)
(5.11926 0.0456247 0)
(5.13264 0.0157482 0)
(5.14164 -0.0112842 0)
(5.14645 -0.0357514 0)
(5.1468 -0.0567571 0)
(5.14258 -0.0744746 0)
(5.13428 -0.0900722 0)
(5.12277 -0.104562 0)
(5.10866 -0.118418 0)
(5.09245 -0.131669 0)
(5.07411 -0.144308 0)
(5.05397 -0.156202 0)
(5.03184 -0.167451 0)
(5.00845 -0.177865 0)
(4.98333 -0.187724 0)
(5.028 0.21775 0)
(5.10947 0.106611 0)
(5.16598 0.0438932 0)
(5.19421 0.00855041 0)
(5.20748 -0.0181789 0)
(5.21413 -0.041313 0)
(5.21698 -0.0604217 0)
(5.21619 -0.0761681 0)
(5.21132 -0.08987 0)
(5.20223 -0.102426 0)
(5.18949 -0.114067 0)
(5.17375 -0.124781 0)
(5.15564 -0.134531 0)
(5.13535 -0.143464 0)
(5.11331 -0.15166 0)
(5.08944 -0.159344 0)
(5.06442 -0.166409 0)
(5.03783 -0.173114 0)
(5.03035 0.20655 0)
(5.13516 0.100888 0)
(5.21076 0.0579457 0)
(5.24693 0.0330137 0)
(5.26241 0.00698352 0)
(5.2711 -0.017637 0)
(5.27573 -0.0366676 0)
(5.27488 -0.0503887 0)
(5.26796 -0.0613477 0)
(5.25576 -0.0712467 0)
(5.23962 -0.0805627 0)
(5.2206 -0.089316 0)
(5.19944 -0.0974662 0)
(5.17638 -0.105077 0)
(5.15178 -0.112115 0)
(5.12558 -0.118646 0)
(5.09831 -0.12453 0)
(5.06969 -0.129915 0)
(5.0253 0.149127 0)
(5.16196 0.020981 0)
(5.25143 -0.00975604 0)
(5.28531 -0.0234124 0)
(5.29548 -0.0400668 0)
(5.30154 -0.0544776 0)
(5.30587 -0.0647588 0)
(5.30553 -0.0723942 0)
(5.29915 -0.0790479 0)
(5.28751 -0.0854277 0)
(5.27199 -0.0915238 0)
(5.25349 -0.097182 0)
(5.23261 -0.102277 0)
(5.20956 -0.106831 0)
(5.18484 -0.110825 0)
(5.15854 -0.114383 0)
(5.13136 -0.117444 0)
(5.10309 -0.120202 0)
(5.02322 0.153136 0)
(5.2111 0.051599 0)
(5.32334 0.033328 0)
(5.35849 0.0123543 0)
(5.36953 -0.00971706 0)
(5.37877 -0.0251056 0)
(5.38485 -0.0350154 0)
(5.38397 -0.0424489 0)
(5.37567 -0.0487155 0)
(5.36158 -0.0542125 0)
(5.34345 -0.0591192 0)
(5.32236 -0.0636172 0)
(5.29885 -0.0677588 0)
(5.27322 -0.0716207 0)
(5.24581 -0.0751369 0)
(5.21679 -0.0783775 0)
(5.18657 -0.0812183 0)
(5.15518 -0.0837528 0)
(5.02239 0.0147418 0)
(5.26191 -0.0557964 0)
(5.37846 -0.0409121 0)
(5.40785 -0.0503551 0)
(5.41453 -0.0607926 0)
(5.41554 -0.065257 0)
(5.40866 -0.0666948 0)
(5.39185 -0.0677049 0)
(5.36602 -0.0689119 0)
(5.33332 -0.0702528 0)
(5.29552 -0.0715959 0)
(5.25384 -0.0728653 0)
(5.20886 -0.0739316 0)
(5.16134 -0.0747644 0)
(5.11149 -0.0752626 0)
(5.06032 -0.0755139 0)
(5.00758 -0.0754409 0)
(4.95492 -0.0751981 0)
(4.98524 0.0681102 0)
(5.13945 -0.00168453 0)
(5.09665 -0.00400626 0)
(4.95859 -0.0139961 0)
(4.813 -0.0207816 0)
(4.67629 -0.0232247 0)
(4.54511 -0.0240706 0)
(4.41632 -0.0245311 0)
(4.28954 -0.0246894 0)
(4.16569 -0.0245402 0)
(4.04554 -0.0242037 0)
(3.92954 -0.0238101 0)
(3.81757 -0.0234047 0)
(3.70989 -0.022999 0)
(3.60614 -0.0225412 0)
(3.50726 -0.0220473 0)
(3.41209 -0.0214482 0)
(3.32299 -0.0207798 0)
(-0.00281343 0.00168188 1.20227e-20)
(0.000681242 -0.00529301 -1.19477e-20)
(0.00873862 -0.00637457 0)
(0.0158807 -0.00669204 0)
(0.0239667 -0.00727172 0)
(0.0326424 -0.00807391 1.16287e-20)
(0.0423635 -0.00905195 0)
(0.053217 -0.0101914 0)
(0.0654347 -0.01148 0)
(0.0791829 -0.0129179 0)
(0.0946 -0.014489 -1.12463e-20)
(0.111866 -0.0161632 0)
(0.131101 -0.0179411 0)
(0.152446 -0.0197895 0)
(0.175998 -0.0216837 0)
(0.20179 -0.0236101 -1.08797e-20)
(0.229881 -0.025513 0)
(0.260315 -0.0273779 0)
(0.293058 -0.0291998 0)
(0.328075 -0.0309154 0)
(0.36529 -0.0325424 0)
(0.40454 -0.0340232 0)
(0.445796 -0.0353699 0)
(0.488874 -0.0365613 -1.03124e-20)
(0.533573 -0.0375766 1.02419e-20)
(0.579756 -0.0384166 -1.01712e-20)
(0.627204 -0.0390706 -1.01003e-20)
(0.675744 -0.0395368 0)
(0.725149 -0.0398383 0)
(0.775209 -0.0399445 9.88591e-21)
(0.825737 -0.0398901 9.81373e-21)
(0.876507 -0.0396759 0)
(0.927346 -0.0393062 0)
(0.978069 -0.0388024 9.59482e-21)
(1.02849 -0.0381742 0)
(1.07847 -0.0374351 0)
(1.12785 -0.036599 -9.37225e-21)
(1.17651 -0.0356797 0)
(1.22433 -0.0346905 -9.22206e-21)
(1.2712 -0.0336442 -1.8293e-20)
(1.31704 -0.0325529 0)
(1.36177 -0.0314279 0)
(1.40533 -0.0302795 0)
(1.44767 -0.0291172 0)
(1.48875 -0.0279494 0)
(1.52854 -0.0267836 -1.73781e-20)
(1.56703 -0.0256264 -1.7225e-20)
(1.60419 -0.0244835 -1.70719e-20)
(1.64003 -0.0233597 0)
(1.67456 -0.0222593 1.67659e-20)
(1.70777 -0.0211854 0)
(1.73969 -0.020141 -1.64609e-20)
(1.77033 -0.0191281 -1.63089e-20)
(1.79972 -0.0181484 0)
(1.82787 -0.0172031 0)
(1.85483 -0.0162929 0)
(1.88062 -0.0154184 -1.57052e-20)
(1.90527 -0.0145795 0)
(1.92882 -0.0137763 0)
(1.95129 -0.0130082 0)
(1.97273 -0.0122749 0)
(1.99316 -0.0115756 0)
(2.01263 -0.0109094 0)
(2.03117 -0.0102756 0)
(2.04881 -0.00967301 0)
(2.06559 -0.00910072 1.43834e-20)
(2.08154 -0.00855762 0)
(2.09669 -0.00804259 0)
(2.11108 -0.00755454 -1.39566e-20)
(2.12473 -0.00709234 -1.3816e-20)
(2.13769 -0.00665489 0)
(2.14997 -0.00624108 1.35374e-20)
(2.16161 -0.00584986 -1.33994e-20)
(2.17263 -0.00548013 0)
(2.18307 -0.00513092 1.3126e-20)
(2.19295 -0.00480119 0)
(2.20229 -0.00449001 0)
(2.21112 -0.00419643 -1.27225e-20)
(2.21946 -0.00391958 0)
(2.22733 -0.00365856 1.24579e-20)
(2.23477 -0.00341258 0)
(2.24178 -0.00318083 -1.21969e-20)
(2.24838 -0.00296258 -1.20677e-20)
(2.25461 -0.00275706 -1.19394e-20)
(2.26047 -0.00256362 -2.36241e-20)
(2.26598 -0.00238156 2.3371e-20)
(2.27116 -0.00221029 0)
(2.27603 -0.00204913 0)
(2.2806 -0.00189755 0)
(2.28488 -0.00175496 2.23761e-20)
(2.2889 -0.00162079 2.21317e-20)
(2.29266 -0.0014944 -2.18891e-20)
(2.29617 -0.00137504 0)
(2.29946 -0.00126184 2.14088e-20)
(2.30253 -0.00115385 2.11712e-20)
(2.30538 -0.00105025 2.09353e-20)
(2.30803 -0.000950882 0)
(2.3105 -0.000855574 0)
(2.31277 -0.000763653 0)
(2.31487 -0.00067534 2.00081e-20)
(2.31679 -0.000591087 0)
(2.31856 -0.000509971 0)
(2.32016 -0.000432781 -1.93298e-20)
(2.32162 -0.00036217 0)
(2.32294 -0.000299755 0)
(2.32413 -0.000245838 -1.86656e-20)
(2.3252 -0.000199757 0)
(2.32616 -0.000160679 0)
(2.32703 -0.000127451 1.80154e-20)
(2.32781 -9.87867e-05 1.78017e-20)
(2.32851 -7.34901e-05 0)
(2.32913 -5.06636e-05 -1.73788e-20)
(2.32967 -2.9708e-05 0)
(2.33015 -1.02801e-05 1.69618e-20)
(2.33057 7.81253e-06 0)
(2.33092 2.46961e-05 1.65506e-20)
(2.33122 4.04339e-05 1.63471e-20)
(2.33146 5.51146e-05 0)
(2.33165 6.87598e-05 0)
(2.3318 8.14599e-05 0)
(2.3319 9.32572e-05 0)
(2.33195 0.00010424 0)
(2.33197 0.000114468 0)
(2.33195 0.000123993 0)
(2.3319 0.000132854 1.47691e-20)
(2.33181 0.000141076 -1.45779e-20)
(2.33168 0.000148701 0)
(2.33153 0.000155763 0)
(2.33135 0.000162309 0)
(2.33115 0.000168373 0)
(2.33092 0.000173994 -2.72824e-20)
(2.33066 0.000179199 0)
(2.33038 0.000184027 2.65506e-20)
(2.33008 0.0001885 -2.61883e-20)
(2.32976 0.000192655 0)
(2.32942 0.000196515 0)
(2.32907 0.000200106 0)
(2.32869 0.000203453 2.47632e-20)
(2.3283 0.000206552 2.44128e-20)
(2.32789 0.000209442 0)
(2.32746 0.00021212 2.37188e-20)
(2.32702 0.000214651 2.33752e-20)
(2.32657 0.000217051 -2.30338e-20)
(2.3261 0.000219373 0)
(2.32562 0.000221626 0)
(2.32512 0.000223853 -2.20227e-20)
(2.32461 0.000226064 0)
(2.32409 0.000228306 0)
(2.32356 0.000230602 0)
(2.32301 0.00023301 0)
(2.32244 0.00023557 2.03801e-20)
(2.32186 0.000238353 2.00577e-20)
(2.32126 0.000241431 0)
(2.32065 0.000244905 1.9419e-20)
(2.32002 0.000248888 0)
(2.31937 0.000253536 0)
(2.31869 0.00025903 1.84756e-20)
(2.31798 0.000265619 0)
(2.31725 0.000273597 1.78562e-20)
(2.31647 0.000283361 0)
(2.31565 0.000295397 0)
(2.31477 0.000310368 1.69412e-20)
(2.31382 0.000329068 0)
(2.31279 0.000352674 1.63405e-20)
(2.31165 0.000382408 0)
(2.31037 0.000420665 0)
(2.30892 0.000468889 0)
(2.30725 0.000532861 -1.51612e-20)
(2.30528 0.000613119 0)
(2.30294 0.000722644 1.45831e-20)
(2.30006 0.000867464 0)
(2.29658 0.00104459 0)
(2.29199 0.00137546 0)
(2.28633 0.00156308 0)
(2.27851 0.00260943 0)
(2.26764 0.00231269 0)
(2.25395 0.006382 0)
(2.22539 0.00367989 -2.47688e-20)
(2.20144 0.0234354 0)
(2.09292 0.0197826 0)
(-0.00337753 0.00371255 -3.60812e-20)
(0.000782868 -0.0203441 3.58562e-20)
(0.00915428 -0.0241163 0)
(0.0168272 -0.0250943 -2.35795e-20)
(0.0253983 -0.0269118 0)
(0.0346694 -0.0294548 -1.16355e-20)
(0.0450724 -0.0325722 2.3108e-20)
(0.0567303 -0.0361958 2.29538e-20)
(0.0698604 -0.0402878 0)
(0.084634 -0.0448275 2.26497e-20)
(0.101236 -0.0497561 1.12527e-20)
(0.119803 -0.0550206 0)
(0.140445 -0.0605661 0)
(0.163338 -0.0663159 0)
(0.188524 -0.0722162 0)
(0.216086 -0.0781714 1.08855e-20)
(0.246074 -0.0840982 0)
(0.27845 -0.0899096 -2.14812e-20)
(0.313273 -0.0955644 0)
(0.350494 -0.100934 0)
(0.390021 -0.105996 2.10566e-20)
(0.431699 -0.110656 0)
(0.475441 -0.114873 -2.07749e-20)
(0.521116 -0.118598 1.03172e-20)
(0.568484 -0.121795 -1.02465e-20)
(0.61739 -0.124436 1.01757e-20)
(0.667618 -0.126507 1.01047e-20)
(0.718939 -0.128004 0)
(0.771172 -0.128948 0)
(0.824087 -0.12933 -9.88985e-21)
(0.877448 -0.129188 9.81882e-21)
(0.931073 -0.128547 0)
(0.984758 -0.127439 0)
(1.03831 -0.125903 -9.59825e-21)
(1.09155 -0.123981 0)
(1.14433 -0.121712 0)
(1.19649 -0.11914 9.37532e-21)
(1.24791 -0.116306 0)
(1.29847 -0.113251 -9.22625e-21)
(1.34807 -0.110014 1.82985e-20)
(1.39661 -0.106631 0)
(1.44403 -0.103138 0)
(1.49025 -0.0995658 3.56858e-20)
(1.53523 -0.0959427 3.53798e-20)
(1.57894 -0.0922949 3.50735e-20)
(1.62133 -0.0886455 -1.73843e-20)
(1.66239 -0.0850148 1.72293e-20)
(1.70211 -0.0814204 5.12294e-20)
(1.74048 -0.0778776 -3.38469e-20)
(1.77752 -0.0743993 -1.67698e-20)
(1.81321 -0.0709962 0)
(1.84758 -0.0676772 1.64645e-20)
(1.88065 -0.0644496 -1.63132e-20)
(1.91243 -0.0613187 0)
(1.94295 -0.0582888 0)
(1.97224 -0.0553629 0)
(2.00032 -0.0525428 1.57082e-20)
(2.02723 -0.0498295 0)
(2.05299 -0.0472232 -3.08194e-20)
(2.07764 -0.0447234 0)
(2.10121 -0.0423289 -3.0227e-20)
(2.12374 -0.0400382 0)
(2.14525 -0.0378493 2.96403e-20)
(2.16579 -0.0357599 0)
(2.18539 -0.0337675 -2.90596e-20)
(2.20408 -0.0318692 1.4386e-20)
(2.22189 -0.0300621 0)
(2.23886 -0.0283433 2.82006e-20)
(2.25501 -0.0267096 1.39587e-20)
(2.27039 -0.0251578 1.38181e-20)
(2.28502 -0.0236849 0)
(2.29893 -0.0222877 1.35395e-20)
(2.31215 -0.0209631 1.34013e-20)
(2.32471 -0.0197079 0)
(2.33663 -0.0185192 -1.31278e-20)
(2.34795 -0.0173941 2.59849e-20)
(2.35869 -0.0163296 0)
(2.36887 -0.015323 1.27242e-20)
(2.37853 -0.0143715 0)
(2.38767 -0.0134726 -3.73788e-20)
(2.39633 -0.0126237 0)
(2.40453 -0.0118223 3.65956e-20)
(2.41229 -0.0110662 1.20693e-20)
(2.41963 -0.010353 -1.1941e-20)
(2.42656 -0.00968058 -2.36271e-20)
(2.43312 -0.00904692 2.3374e-20)
(2.43931 -0.00845002 0)
(2.44515 -0.0078879 0)
(2.45066 -0.00735882 0)
(2.45586 -0.00686098 -6.71368e-20)
(2.46077 -0.00639269 -2.21345e-20)
(2.46538 -0.00595231 2.18918e-20)
(2.46974 -0.0055382 0)
(2.47383 -0.00514883 2.14114e-20)
(2.47769 -0.00478277 -2.11738e-20)
(2.48131 -0.00443843 -2.09379e-20)
(2.48473 -0.00411446 0)
(2.48795 -0.0038097 0)
(2.49098 -0.00352282 0)
(2.49384 -0.00325296 -2.00107e-20)
(2.49653 -0.00299948 0)
(2.49907 -0.00276118 3.91135e-20)
(2.50147 -0.00253778 5.79967e-20)
(2.50374 -0.00232959 -3.82185e-20)
(2.50587 -0.00213605 0)
(2.50789 -0.00195642 -1.8668e-20)
(2.50978 -0.00179064 0)
(2.51156 -0.00163817 -3.6466e-20)
(2.51323 -0.00149784 1.80178e-20)
(2.5148 -0.00136837 1.7804e-20)
(2.51626 -0.00124854 0)
(2.51762 -0.00113732 5.21433e-20)
(2.5189 -0.00103393 -3.43437e-20)
(2.52008 -0.000937745 -1.69641e-20)
(2.52118 -0.000848301 0)
(2.52221 -0.000765156 -1.65528e-20)
(2.52316 -0.00068795 -4.90479e-20)
(2.52405 -0.000616295 0)
(2.52487 -0.000549888 -3.18931e-20)
(2.52563 -0.00048835 -3.14945e-20)
(2.52634 -0.000431366 -3.10987e-20)
(2.52699 -0.000378568 0)
(2.5276 -0.000329653 0)
(2.52816 -0.000284347 0)
(2.52867 -0.000242431 1.47711e-20)
(2.52915 -0.000203702 1.458e-20)
(2.52959 -0.000167948 0)
(2.52999 -0.000134963 2.84028e-20)
(2.53037 -0.000104531 2.80281e-20)
(2.53071 -7.64698e-05 0)
(2.53102 -5.05958e-05 2.72862e-20)
(2.53131 -2.67609e-05 5.3838e-20)
(2.53157 -4.79905e-06 -2.65543e-20)
(2.53181 1.54195e-05 -2.6192e-20)
(2.53203 3.40461e-05 0)
(2.53223 5.11996e-05 0)
(2.53241 6.70049e-05 0)
(2.53258 8.15634e-05 -2.47667e-20)
(2.53273 9.49423e-05 2.44162e-20)
(2.53286 0.000107259 4.81361e-20)
(2.53298 0.000118583 -2.37222e-20)
(2.53309 0.000129075 2.33784e-20)
(2.53319 0.000138836 2.30371e-20)
(2.53327 0.000148009 0)
(2.53335 0.000156667 0)
(2.53341 0.000164928 -2.20258e-20)
(2.53347 0.000172865 0)
(2.53352 0.000180609 0)
(2.53355 0.000188265 4.20678e-20)
(2.53358 0.000195993 0)
(2.5336 0.000203933 2.0383e-20)
(2.53361 0.000212296 -2.00606e-20)
(2.53362 0.000221291 0)
(2.53361 0.000231212 1.94217e-20)
(2.53358 0.000242383 0)
(2.53355 0.000255242 0)
(2.5335 0.0002703 -1.84783e-20)
(2.53343 0.000288234 3.63352e-20)
(2.53334 0.000309868 -1.78588e-20)
(2.53322 0.000336282 0)
(2.53307 0.00036883 0)
(2.53287 0.000409283 1.69436e-20)
(2.53263 0.0004599 0)
(2.53231 0.000523656 1.63428e-20)
(2.53191 0.000604448 0)
(2.5314 0.00070735 0)
(2.53076 0.000839614 0)
(2.52992 0.00100923 1.51635e-20)
(2.52887 0.00123367 0)
(2.52745 0.00151642 -1.45854e-20)
(2.52572 0.00192606 0)
(2.52322 0.00238403 0)
(2.52035 0.00324981 2.74681e-20)
(2.51569 0.00389261 -2.6911e-20)
(2.51077 0.00614272 0)
(2.50148 0.00667486 0)
(2.49238 0.0139347 0)
(2.4729 0.0137088 7.4299e-20)
(2.45543 0.0440871 0)
(2.42386 0.050408 -4.75203e-20)
(-0.00372321 0.00763354 1.36984e-23)
(-0.000868987 -0.032876 -4.78122e-20)
(0.00600937 -0.0389257 0)
(0.0121265 -0.0406045 4.71686e-20)
(0.0192055 -0.0437578 0)
(0.0270085 -0.0481727 0)
(0.0360008 -0.0535609 -1.20606e-23)
(0.0463378 -0.0598224 -2.29649e-20)
(0.0582218 -0.0668944 -2.28008e-20)
(0.0718606 -0.074722 -2.26604e-20)
(0.0874459 -0.0832061 0)
(0.105139 -0.092272 0)
(0.125097 -0.1018 2.22048e-20)
(0.147448 -0.111674 4.41179e-20)
(0.172314 -0.121789 -4.38283e-20)
(0.199775 -0.131985 0)
(0.229862 -0.142166 -4.32549e-20)
(0.262551 -0.15215 2.14904e-20)
(0.297877 -0.161804 0)
(0.335778 -0.171032 -4.24057e-20)
(0.376114 -0.179673 -2.1065e-20)
(0.418748 -0.187644 4.18435e-20)
(0.463572 -0.194806 2.07828e-20)
(0.510386 -0.201125 0)
(0.558952 -0.206533 -4.10003e-20)
(0.609096 -0.210975 -4.07181e-20)
(0.660552 -0.214434 0)
(0.71309 -0.216917 -4.01504e-20)
(0.766494 -0.218417 0)
(0.820521 -0.21899 -3.95772e-20)
(0.874936 -0.218664 -1.9642e-20)
(0.92952 -0.21749 0)
(0.984078 -0.215536 0)
(1.03841 -0.212865 0)
(1.09235 -0.209546 0)
(1.14572 -0.205654 0)
(1.1984 -0.20126 0)
(1.25024 -0.196436 -3.72165e-20)
(1.30115 -0.19125 5.53693e-20)
(1.35101 -0.185769 0)
(1.39976 -0.180054 0)
(1.44732 -0.174163 0)
(1.49365 -0.168146 3.60942e-24)
(1.53868 -0.162052 -3.53855e-20)
(1.5824 -0.155924 -7.01608e-20)
(1.62478 -0.149798 6.95467e-20)
(1.66581 -0.143709 3.44676e-20)
(1.70547 -0.137684 -3.41579e-20)
(1.74378 -0.131748 -2.31741e-24)
(1.78073 -0.125922 -3.35469e-20)
(1.81635 -0.120224 0)
(1.85064 -0.114667 -3.29353e-20)
(1.88362 -0.109263 -1.65054e-24)
(1.91533 -0.104021 0)
(1.94577 -0.0989463 0)
(1.97499 -0.0940448 3.17215e-20)
(2.00302 -0.0893189 0)
(2.02987 -0.0847701 0)
(2.05559 -0.0803985 -3.08235e-20)
(2.08021 -0.0762032 -6.10508e-20)
(2.10376 -0.0721822 3.02289e-20)
(2.12627 -0.0683329 0)
(2.14779 -0.0646522 -2.96419e-20)
(2.16833 -0.0611362 0)
(2.18795 -0.0577807 -2.90622e-20)
(2.20666 -0.0545812 -2.8773e-20)
(2.2245 -0.051533 5.6974e-20)
(2.2415 -0.0486312 2.82026e-20)
(2.2577 -0.0458708 0)
(2.27313 -0.0432466 -5.52753e-20)
(2.28781 -0.0407536 0)
(2.30178 -0.0383866 -8.12395e-20)
(2.31506 -0.0361407 -5.36074e-20)
(2.32769 -0.0340108 -5.30585e-20)
(2.33969 -0.031992 5.25131e-20)
(2.35108 -0.0300795 -7.79567e-20)
(2.36189 -0.0282686 0)
(2.37215 -0.0265548 0)
(2.38188 -0.0249336 5.03671e-20)
(2.3911 -0.0234008 7.4759e-20)
(2.39984 -0.0219521 0)
(2.40811 -0.0205837 -2.43973e-20)
(2.41595 -0.0192916 0)
(2.42336 -0.0180722 7.16468e-20)
(2.43038 -0.0169218 -1.79347e-25)
(2.43701 -0.0158371 1.62673e-25)
(2.44327 -0.0148147 -4.62456e-20)
(2.44919 -0.0138515 0)
(2.45477 -0.0129445 4.52505e-20)
(2.46005 -0.0120908 -1.08836e-25)
(2.46502 -0.0112877 0)
(2.4697 -0.0105326 0)
(2.47412 -0.00982307 0)
(2.47828 -0.00915699 -4.28229e-20)
(2.48219 -0.00853209 0)
(2.48588 -0.00794599 0)
(2.48934 -0.00739644 0)
(2.4926 -0.00688123 0)
(2.49566 -0.00639841 0)
(2.49854 -0.00594625 -4.00215e-20)
(2.50124 -0.00552287 0)
(2.50378 -0.0051267 -3.91137e-20)
(2.50616 -0.00475608 -3.86646e-20)
(2.50839 -0.00440916 3.82187e-20)
(2.51048 -0.00408459 0)
(2.51245 -0.0037815 3.73363e-20)
(2.51429 -0.00349906 0)
(2.51601 -0.00323545 3.64662e-20)
(2.51762 -0.00298898 -3.60358e-20)
(2.51912 -0.00275839 -1.06825e-19)
(2.52052 -0.00254266 0)
(2.52183 -0.00234094 -1.04287e-19)
(2.52306 -0.00215257 -3.43439e-20)
(2.5242 -0.00197691 0)
(2.52526 -0.00181331 -6.70312e-20)
(2.52625 -0.00166113 -6.62116e-20)
(2.52717 -0.00151971 9.80964e-20)
(2.52803 -0.00138844 0)
(2.52883 -0.00126669 3.18933e-20)
(2.52957 -0.00115383 3.14947e-20)
(2.53027 -0.00104925 9.32967e-20)
(2.53091 -0.000952332 0)
(2.5315 -0.000862538 0)
(2.53206 -0.000779397 0)
(2.53257 -0.000702513 2.95425e-20)
(2.53304 -0.000631494 0)
(2.53348 -0.00056596 0)
(2.53389 -0.000505515 -2.8403e-20)
(2.53427 -0.000449789 -2.80283e-20)
(2.53462 -0.000398433 0)
(2.53494 -0.00035113 0)
(2.53524 -0.000307586 -5.38385e-20)
(2.53552 -0.000267519 0)
(2.53577 -0.000230671 5.23844e-20)
(2.53601 -0.000196789 5.16646e-20)
(2.53623 -0.000165637 0)
(2.53643 -0.000137009 0)
(2.53661 -0.000110724 -4.95338e-20)
(2.53679 -8.66235e-05 -2.75739e-26)
(2.53694 -6.45244e-05 -2.78401e-26)
(2.53709 -4.42339e-05 0)
(2.53722 -2.55084e-05 -9.35147e-20)
(2.53735 -8.14494e-06 0)
(2.53746 8.06446e-06 0)
(2.53756 2.32724e-05 0)
(2.53766 3.76531e-05 4.40521e-20)
(2.53775 5.13594e-05 0)
(2.53782 6.45925e-05 -8.54506e-20)
(2.53789 7.75472e-05 -4.20682e-20)
(2.53796 9.0468e-05 0)
(2.53801 0.000103608 -4.07664e-20)
(2.53806 0.000117286 0)
(2.53809 0.000131858 0)
(2.53812 0.00014778 -1.16532e-19)
(2.53814 0.000165585 7.64219e-20)
(2.53814 0.000185954 0)
(2.53813 0.000209712 7.39135e-20)
(2.5381 0.000237918 -3.63355e-20)
(2.53805 0.000271889 0)
(2.53797 0.000313312 0)
(2.53786 0.00036434 0)
(2.5377 0.000427712 -1.01663e-19)
(2.5375 0.000507074 0)
(2.53723 0.000606865 -3.2686e-20)
(2.53687 0.0007337 0)
(2.53641 0.000894329 0)
(2.53581 0.00110259 0)
(2.53501 0.00136575 0)
(2.53401 0.00172034 0)
(2.53264 0.00215643 0)
(2.53095 0.00279771 -5.71955e-20)
(2.52854 0.00351814 0)
(2.52568 0.00480163 -2.74686e-20)
(2.52128 0.00596629 8.07302e-20)
(2.51628 0.00892486 0)
(2.50791 0.0108708 0)
(2.49883 0.0189494 -5.05553e-20)
(2.48297 0.0236179 -4.95279e-20)
(2.4672 0.0497377 4.8474e-20)
(2.44307 0.0664984 4.75259e-20)
(-0.00445808 0.0143937 7.21418e-20)
(-0.00379181 -0.0417179 7.16935e-20)
(0.000723891 -0.049855 4.746e-20)
(0.00438865 -0.0523078 2.35515e-20)
(0.00911246 -0.0569756 0)
(0.0146656 -0.0634608 -4.65121e-20)
(0.0215404 -0.0713417 2.30837e-20)
(0.0299054 -0.080507 0)
(0.0399946 -0.0908651 2.28123e-20)
(0.0520547 -0.102331 0)
(0.0663021 -0.114773 -4.49934e-20)
(0.0829098 -0.128065 0)
(0.102073 -0.142066 -2.22157e-20)
(0.123937 -0.156559 -4.41393e-20)
(0.148619 -0.171405 4.38493e-20)
(0.176186 -0.186382 0)
(0.206716 -0.20128 4.32751e-20)
(0.240221 -0.215905 0)
(0.276598 -0.230018 0)
(0.315815 -0.24346 4.24244e-20)
(0.35775 -0.256017 0)
(0.402196 -0.26754 -6.70011e-24)
(0.448976 -0.277879 0)
(0.497825 -0.286923 0)
(0.548531 -0.294598 1.09517e-24)
(0.60085 -0.300854 4.07332e-20)
(0.654459 -0.30566 4.04512e-20)
(0.709108 -0.309018 4.01644e-20)
(0.764536 -0.310972 0)
(0.820461 -0.311562 7.91848e-20)
(0.876653 -0.310865 0)
(0.93287 -0.308961 3.90151e-20)
(0.988897 -0.305944 0)
(1.04454 -0.301919 0)
(1.09961 -0.29699 -3.81311e-20)
(1.15397 -0.291264 0)
(1.20747 -0.284849 3.75329e-20)
(1.25999 -0.277846 -6.38678e-24)
(1.31142 -0.270355 -7.38512e-20)
(1.36169 -0.26247 7.32493e-20)
(1.41073 -0.254276 0)
(1.45846 -0.245856 0)
(1.50487 -0.237279 3.5712e-20)
(1.5499 -0.228614 0)
(1.59354 -0.219916 3.50878e-20)
(1.63578 -0.211239 -3.47803e-20)
(1.67662 -0.202626 -3.44727e-20)
(1.71605 -0.194116 0)
(1.75408 -0.185741 3.3858e-20)
(1.79073 -0.177531 3.35511e-20)
(1.82602 -0.169506 -6.64952e-20)
(1.85997 -0.161687 3.2939e-20)
(1.8926 -0.154086 3.2634e-20)
(1.92395 -0.146717 0)
(1.95403 -0.139586 0)
(1.98289 -0.1327 -3.17244e-20)
(2.01055 -0.126062 0)
(2.03705 -0.119674 0)
(2.06242 -0.113534 6.16498e-20)
(2.08669 -0.107641 6.10552e-20)
(2.10991 -0.101993 0)
(2.1321 -0.0965856 0)
(2.15331 -0.0914136 0)
(2.17355 -0.0864718 0)