# vtk DataFile Version 2.0
sampleSurface
ASCII
DATASET POLYDATA
POINTS 502 double
-0.0206 0 -0.0005
-0.0190172 0 -0.0005
-0.0190172 0 0.0005
-0.0206 0 0.0005
-0.0174976 0 -0.0005
-0.0174976 0 0.0005
-0.0160387 0 -0.0005
-0.0160387 0 0.0005
-0.0146381 0 -0.0005
-0.0146381 0 0.0005
-0.0132934 0 -0.0005
-0.0132934 0 0.0005
-0.0120025 0 -0.0005
-0.0120025 0 0.0005
-0.0107632 0 -0.0005
-0.0107632 0 0.0005
-0.00957337 0 -0.0005
-0.00957337 0 0.0005
-0.00843108 0 -0.0005
-0.00843108 0 0.0005
-0.00733443 0 -0.0005
-0.00733443 0 0.0005
-0.0062816 0 -0.0005
-0.0062816 0 0.0005
-0.00527083 0 -0.0005
-0.00527083 0 0.0005
-0.00430044 0 -0.0005
-0.00430044 0 0.0005
-0.00336883 0 -0.0005
-0.00336883 0 0.0005
-0.00247443 0 -0.0005
-0.00247443 0 0.0005
-0.00161577 0 -0.0005
-0.00161577 0 0.0005
-0.000791418 0 -0.0005
-0.000791418 0 0.0005
0 0 -0.0005
0 0 0.0005
0 -0.0254 -0.0005
0 -0.0254 0.0005
0 -0.0242711 0.0005
0 -0.0242711 -0.0005
0 -0.0231422 0.0005
0 -0.0231422 -0.0005
0 -0.0220133 0.0005
0 -0.0220133 -0.0005
0 -0.0208844 0.0005
0 -0.0208844 -0.0005
0 -0.0197556 0.0005
0 -0.0197556 -0.0005
0 -0.0186267 0.0005
0 -0.0186267 -0.0005
0 -0.0174978 0.0005
0 -0.0174978 -0.0005
0 -0.0163689 0.0005
0 -0.0163689 -0.0005
0 -0.01524 0.0005
0 -0.01524 -0.0005
0 -0.0141111 0.0005
0 -0.0141111 -0.0005
0 -0.0129822 0.0005
0 -0.0129822 -0.0005
0 -0.0118533 0.0005
0 -0.0118533 -0.0005
0 -0.0107244 0.0005
0 -0.0107244 -0.0005
0 -0.00959556 0.0005
0 -0.00959556 -0.0005
0 -0.00846667 0.0005
0 -0.00846667 -0.0005
0 -0.00726604 0.0005
0 -0.00726604 -0.0005
0 -0.00618989 0.0005
0 -0.00618989 -0.0005
0 -0.00522531 0.0005
0 -0.00522531 -0.0005
0 -0.00436073 0.0005
0 -0.00436073 -0.0005
0 -0.00358579 0.0005
0 -0.00358579 -0.0005
0 -0.00289118 0.0005
0 -0.00289118 -0.0005
0 -0.0022686 0.0005
0 -0.0022686 -0.0005
0 -0.00171055 0.0005
0 -0.00171055 -0.0005
0 -0.00121037 0.0005
0 -0.00121037 -0.0005
0 -0.000762037 0.0005
0 -0.000762037 -0.0005
0 -0.000360188 0.0005
0 -0.000360188 -0.0005
0.000528387 -0.0254 -0.0005
0.000528387 -0.0254 0.0005
0.00106088 -0.0254 -0.0005
0.00106088 -0.0254 0.0005
0.00159752 -0.0254 -0.0005
0.00159752 -0.0254 0.0005
0.00213833 -0.0254 -0.0005
0.00213833 -0.0254 0.0005
0.00268334 -0.0254 -0.0005
0.00268334 -0.0254 0.0005
0.00323259 -0.0254 -0.0005
0.00323259 -0.0254 0.0005
0.00378611 -0.0254 -0.0005
0.00378611 -0.0254 0.0005
0.00434393 -0.0254 -0.0005
0.00434393 -0.0254 0.0005
0.00490609 -0.0254 -0.0005
0.00490609 -0.0254 0.0005
0.00547262 -0.0254 -0.0005
0.00547262 -0.0254 0.0005
0.00604356 -0.0254 -0.0005
0.00604356 -0.0254 0.0005
0.00661893 -0.0254 -0.0005
0.00661893 -0.0254 0.0005
0.00719878 -0.0254 -0.0005
0.00719878 -0.0254 0.0005
0.00778313 -0.0254 -0.0005
0.00778313 -0.0254 0.0005
0.00837203 -0.0254 -0.0005
0.00837203 -0.0254 0.0005
0.00896551 -0.0254 -0.0005
0.00896551 -0.0254 0.0005
0.0095636 -0.0254 -0.0005
0.0095636 -0.0254 0.0005
0.0101663 -0.0254 -0.0005
0.0101663 -0.0254 0.0005
0.0107738 -0.0254 -0.0005
0.0107738 -0.0254 0.0005
0.0113859 -0.0254 -0.0005
0.0113859 -0.0254 0.0005
0.0120028 -0.0254 -0.0005
0.0120028 -0.0254 0.0005
0.0126245 -0.0254 -0.0005
0.0126245 -0.0254 0.0005
0.0132511 -0.0254 -0.0005
0.0132511 -0.0254 0.0005
0.0138825 -0.0254 -0.0005
0.0138825 -0.0254 0.0005
0.0145188 -0.0254 -0.0005
0.0145188 -0.0254 0.0005
0.0151601 -0.0254 -0.0005
0.0151601 -0.0254 0.0005
0.0158063 -0.0254 -0.0005
0.0158063 -0.0254 0.0005
0.0164576 -0.0254 -0.0005
0.0164576 -0.0254 0.0005
0.0171139 -0.0254 -0.0005
0.0171139 -0.0254 0.0005
0.0177754 -0.0254 -0.0005
0.0177754 -0.0254 0.0005
0.018442 -0.0254 -0.0005
0.018442 -0.0254 0.0005
0.0191137 -0.0254 -0.0005
0.0191137 -0.0254 0.0005
0.0197907 -0.0254 -0.0005
0.0197907 -0.0254 0.0005
0.020473 -0.0254 -0.0005
0.020473 -0.0254 0.0005
0.0211606 -0.0254 -0.0005
0.0211606 -0.0254 0.0005
0.0218535 -0.0254 -0.0005
0.0218535 -0.0254 0.0005
0.0225517 -0.0254 -0.0005
0.0225517 -0.0254 0.0005
0.0232555 -0.0254 -0.0005
0.0232555 -0.0254 0.0005
0.0239647 -0.0254 -0.0005
0.0239647 -0.0254 0.0005
0.0246794 -0.0254 -0.0005
0.0246794 -0.0254 0.0005
0.0253996 -0.0254 -0.0005
0.0253996 -0.0254 0.0005
0.0261255 -0.0254 -0.0005
0.0261255 -0.0254 0.0005
0.026857 -0.0254 -0.0005
0.026857 -0.0254 0.0005
0.0275942 -0.0254 -0.0005
0.0275942 -0.0254 0.0005
0.0283371 -0.0254 -0.0005
0.0283371 -0.0254 0.0005
0.0290858 -0.0254 -0.0005
0.0290858 -0.0254 0.0005
0.0298403 -0.0254 -0.0005
0.0298403 -0.0254 0.0005
0.0306007 -0.0254 -0.0005
0.0306007 -0.0254 0.0005
0.031367 -0.0254 -0.0005
0.031367 -0.0254 0.0005
0.0321393 -0.0254 -0.0005
0.0321393 -0.0254 0.0005
0.0329175 -0.0254 -0.0005
0.0329175 -0.0254 0.0005
0.0337019 -0.0254 -0.0005
0.0337019 -0.0254 0.0005
0.0344923 -0.0254 -0.0005
0.0344923 -0.0254 0.0005
0.0352888 -0.0254 -0.0005
0.0352888 -0.0254 0.0005
0.0360916 -0.0254 -0.0005
0.0360916 -0.0254 0.0005
0.0369006 -0.0254 -0.0005
0.0369006 -0.0254 0.0005
0.0377158 -0.0254 -0.0005
0.0377158 -0.0254 0.0005
0.0385375 -0.0254 -0.0005
0.0385375 -0.0254 0.0005
0.0393655 -0.0254 -0.0005
0.0393655 -0.0254 0.0005
0.0401999 -0.0254 -0.0005
0.0401999 -0.0254 0.0005
0.0410408 -0.0254 -0.0005
0.0410408 -0.0254 0.0005
0.0418883 -0.0254 -0.0005
0.0418883 -0.0254 0.0005
0.0427424 -0.0254 -0.0005
0.0427424 -0.0254 0.0005
0.0436031 -0.0254 -0.0005
0.0436031 -0.0254 0.0005
0.0444704 -0.0254 -0.0005
0.0444704 -0.0254 0.0005
0.0453446 -0.0254 -0.0005
0.0453446 -0.0254 0.0005
0.0462255 -0.0254 -0.0005
0.0462255 -0.0254 0.0005
0.0471133 -0.0254 -0.0005
0.0471133 -0.0254 0.0005
0.048008 -0.0254 -0.0005
0.048008 -0.0254 0.0005
0.0489096 -0.0254 -0.0005
0.0489096 -0.0254 0.0005
0.0498183 -0.0254 -0.0005
0.0498183 -0.0254 0.0005
0.050734 -0.0254 -0.0005
0.050734 -0.0254 0.0005
0.0516568 -0.0254 -0.0005
0.0516568 -0.0254 0.0005
0.0525868 -0.0254 -0.0005
0.0525868 -0.0254 0.0005
0.053524 -0.0254 -0.0005
0.053524 -0.0254 0.0005
0.0544686 -0.0254 -0.0005
0.0544686 -0.0254 0.0005
0.0554204 -0.0254 -0.0005
0.0554204 -0.0254 0.0005
0.0563797 -0.0254 -0.0005
0.0563797 -0.0254 0.0005
0.0573464 -0.0254 -0.0005
0.0573464 -0.0254 0.0005
0.0583206 -0.0254 -0.0005
0.0583206 -0.0254 0.0005
0.0593025 -0.0254 -0.0005
0.0593025 -0.0254 0.0005
0.0602919 -0.0254 -0.0005
0.0602919 -0.0254 0.0005
0.0612891 -0.0254 -0.0005
0.0612891 -0.0254 0.0005
0.0622939 -0.0254 -0.0005
0.0622939 -0.0254 0.0005
0.0633067 -0.0254 -0.0005
0.0633067 -0.0254 0.0005
0.0643272 -0.0254 -0.0005
0.0643272 -0.0254 0.0005
0.0653557 -0.0254 -0.0005
0.0653557 -0.0254 0.0005
0.0663923 -0.0254 -0.0005
0.0663923 -0.0254 0.0005
0.0674368 -0.0254 -0.0005
0.0674368 -0.0254 0.0005
0.0684895 -0.0254 -0.0005
0.0684895 -0.0254 0.0005
0.0695504 -0.0254 -0.0005
0.0695504 -0.0254 0.0005
0.0706195 -0.0254 -0.0005
0.0706195 -0.0254 0.0005
0.0716969 -0.0254 -0.0005
0.0716969 -0.0254 0.0005
0.0727828 -0.0254 -0.0005
0.0727828 -0.0254 0.0005
0.073877 -0.0254 -0.0005
0.073877 -0.0254 0.0005
0.0749798 -0.0254 -0.0005
0.0749798 -0.0254 0.0005
0.0760911 -0.0254 -0.0005
0.0760911 -0.0254 0.0005
0.0772111 -0.0254 -0.0005
0.0772111 -0.0254 0.0005
0.0783398 -0.0254 -0.0005
0.0783398 -0.0254 0.0005
0.0794772 -0.0254 -0.0005
0.0794772 -0.0254 0.0005
0.0806235 -0.0254 -0.0005
0.0806235 -0.0254 0.0005
0.0817787 -0.0254 -0.0005
0.0817787 -0.0254 0.0005
0.0829429 -0.0254 -0.0005
0.0829429 -0.0254 0.0005
0.0841162 -0.0254 -0.0005
0.0841162 -0.0254 0.0005
0.0852985 -0.0254 -0.0005
0.0852985 -0.0254 0.0005
0.0864901 -0.0254 -0.0005
0.0864901 -0.0254 0.0005
0.0876909 -0.0254 -0.0005
0.0876909 -0.0254 0.0005
0.0889011 -0.0254 -0.0005
0.0889011 -0.0254 0.0005
0.0901207 -0.0254 -0.0005
0.0901207 -0.0254 0.0005
0.0913497 -0.0254 -0.0005
0.0913497 -0.0254 0.0005
0.0925883 -0.0254 -0.0005
0.0925883 -0.0254 0.0005
0.0938366 -0.0254 -0.0005
0.0938366 -0.0254 0.0005
0.0950945 -0.0254 -0.0005
0.0950945 -0.0254 0.0005
0.0963622 -0.0254 -0.0005
0.0963622 -0.0254 0.0005
0.0976398 -0.0254 -0.0005
0.0976398 -0.0254 0.0005
0.0989273 -0.0254 -0.0005
0.0989273 -0.0254 0.0005
0.100225 -0.0254 -0.0005
0.100225 -0.0254 0.0005
0.101532 -0.0254 -0.0005
0.101532 -0.0254 0.0005
0.10285 -0.0254 -0.0005
0.10285 -0.0254 0.0005
0.104178 -0.0254 -0.0005
0.104178 -0.0254 0.0005
0.105517 -0.0254 -0.0005
0.105517 -0.0254 0.0005
0.106865 -0.0254 -0.0005
0.106865 -0.0254 0.0005
0.108225 -0.0254 -0.0005
0.108225 -0.0254 0.0005
0.109594 -0.0254 -0.0005
0.109594 -0.0254 0.0005
0.110975 -0.0254 -0.0005
0.110975 -0.0254 0.0005
0.112366 -0.0254 -0.0005
0.112366 -0.0254 0.0005
0.113768 -0.0254 -0.0005
0.113768 -0.0254 0.0005
0.115181 -0.0254 -0.0005
0.115181 -0.0254 0.0005
0.116605 -0.0254 -0.0005
0.116605 -0.0254 0.0005
0.11804 -0.0254 -0.0005
0.11804 -0.0254 0.0005
0.119486 -0.0254 -0.0005
0.119486 -0.0254 0.0005
0.120943 -0.0254 -0.0005
0.120943 -0.0254 0.0005
0.122412 -0.0254 -0.0005
0.122412 -0.0254 0.0005
0.123892 -0.0254 -0.0005
0.123892 -0.0254 0.0005
0.125384 -0.0254 -0.0005
0.125384 -0.0254 0.0005
0.126887 -0.0254 -0.0005
0.126887 -0.0254 0.0005
0.128402 -0.0254 -0.0005
0.128402 -0.0254 0.0005
0.129928 -0.0254 -0.0005
0.129928 -0.0254 0.0005
0.131467 -0.0254 -0.0005
0.131467 -0.0254 0.0005
0.133017 -0.0254 -0.0005
0.133017 -0.0254 0.0005
0.13458 -0.0254 -0.0005
0.13458 -0.0254 0.0005
0.136155 -0.0254 -0.0005
0.136155 -0.0254 0.0005
0.137742 -0.0254 -0.0005
0.137742 -0.0254 0.0005
0.139341 -0.0254 -0.0005
0.139341 -0.0254 0.0005
0.140953 -0.0254 -0.0005
0.140953 -0.0254 0.0005
0.142577 -0.0254 -0.0005
0.142577 -0.0254 0.0005
0.144214 -0.0254 -0.0005
0.144214 -0.0254 0.0005
0.145863 -0.0254 -0.0005
0.145863 -0.0254 0.0005
0.147526 -0.0254 -0.0005
0.147526 -0.0254 0.0005
0.149201 -0.0254 -0.0005
0.149201 -0.0254 0.0005
0.15089 -0.0254 -0.0005
0.15089 -0.0254 0.0005
0.152591 -0.0254 -0.0005
0.152591 -0.0254 0.0005
0.154306 -0.0254 -0.0005
0.154306 -0.0254 0.0005
0.156034 -0.0254 -0.0005
0.156034 -0.0254 0.0005
0.157775 -0.0254 -0.0005
0.157775 -0.0254 0.0005
0.159531 -0.0254 -0.0005
0.159531 -0.0254 0.0005
0.161299 -0.0254 -0.0005
0.161299 -0.0254 0.0005
0.163082 -0.0254 -0.0005
0.163082 -0.0254 0.0005
0.164878 -0.0254 -0.0005
0.164878 -0.0254 0.0005
0.166688 -0.0254 -0.0005
0.166688 -0.0254 0.0005
0.168513 -0.0254 -0.0005
0.168513 -0.0254 0.0005
0.170351 -0.0254 -0.0005
0.170351 -0.0254 0.0005
0.172204 -0.0254 -0.0005
0.172204 -0.0254 0.0005
0.174071 -0.0254 -0.0005
0.174071 -0.0254 0.0005
0.175953 -0.0254 -0.0005
0.175953 -0.0254 0.0005
0.177849 -0.0254 -0.0005
0.177849 -0.0254 0.0005
0.17976 -0.0254 -0.0005
0.17976 -0.0254 0.0005
0.181686 -0.0254 -0.0005
0.181686 -0.0254 0.0005
0.183627 -0.0254 -0.0005
0.183627 -0.0254 0.0005
0.185583 -0.0254 -0.0005
0.185583 -0.0254 0.0005
0.187555 -0.0254 -0.0005
0.187555 -0.0254 0.0005
0.189541 -0.0254 -0.0005
0.189541 -0.0254 0.0005
0.191543 -0.0254 -0.0005
0.191543 -0.0254 0.0005
0.193561 -0.0254 -0.0005
0.193561 -0.0254 0.0005
0.195594 -0.0254 -0.0005
0.195594 -0.0254 0.0005
0.197643 -0.0254 -0.0005
0.197643 -0.0254 0.0005
0.199708 -0.0254 -0.0005
0.199708 -0.0254 0.0005
0.201789 -0.0254 -0.0005
0.201789 -0.0254 0.0005
0.203886 -0.0254 -0.0005
0.203886 -0.0254 0.0005
0.206 -0.0254 -0.0005
0.206 -0.0254 0.0005
0.208047 -0.0251856 -0.0005
0.208047 -0.0251856 0.0005
0.210173 -0.0249628 -0.0005
0.210173 -0.0249628 0.0005
0.212382 -0.0247314 -0.0005
0.212382 -0.0247314 0.0005
0.214677 -0.024491 -0.0005
0.214677 -0.024491 0.0005
0.217061 -0.0242412 -0.0005
0.217061 -0.0242412 0.0005
0.219538 -0.0239817 -0.0005
0.219538 -0.0239817 0.0005
0.222112 -0.0237121 -0.0005
0.222112 -0.0237121 0.0005
0.224785 -0.023432 -0.0005
0.224785 -0.023432 0.0005
0.227563 -0.023141 -0.0005
0.227563 -0.023141 0.0005
0.230449 -0.0228387 -0.0005
0.230449 -0.0228387 0.0005
0.233447 -0.0225246 -0.0005
0.233447 -0.0225246 0.0005
0.236562 -0.0221983 -0.0005
0.236562 -0.0221983 0.0005
0.239797 -0.0218593 -0.0005
0.239797 -0.0218593 0.0005
0.243159 -0.0215071 -0.0005
0.243159 -0.0215071 0.0005
0.246652 -0.0211412 -0.0005
0.246652 -0.0211412 0.0005
0.250281 -0.0207611 -0.0005
0.250281 -0.0207611 0.0005
0.254051 -0.0203661 -0.0005
0.254051 -0.0203661 0.0005
0.257967 -0.0199558 -0.0005
0.257967 -0.0199558 0.0005
0.262036 -0.0195295 -0.0005
0.262036 -0.0195295 0.0005
0.266264 -0.0190867 -0.0005
0.266264 -0.0190867 0.0005
0.270655 -0.0186266 -0.0005
0.270655 -0.0186266 0.0005
0.275218 -0.0181486 -0.0005
0.275218 -0.0181486 0.0005
0.279959 -0.017652 -0.0005
0.279959 -0.017652 0.0005
0.284883 -0.017136 -0.0005
0.284883 -0.017136 0.0005
0.29 -0.0166 -0.0005
0.29 -0.0166 0.0005

POLYGONS 250 1250
4 0 1 2 3
4 1 4 5 2
4 4 6 7 5
4 6 8 9 7
4 8 10 11 9
4 10 12 13 11
4 12 14 15 13
4 14 16 17 15
4 16 18 19 17
4 18 20 21 19
4 20 22 23 21
4 22 24 25 23
4 24 26 27 25
4 26 28 29 27
4 28 30 31 29
4 30 32 33 31
4 32 34 35 33
4 34 36 37 35
4 38 39 40 41
4 41 40 42 43
4 43 42 44 45
4 45 44 46 47
4 47 46 48 49
4 49 48 50 51
4 51 50 52 53
4 53 52 54 55
4 55 54 56 57
4 57 56 58 59
4 59 58 60 61
4 61 60 62 63
4 63 62 64 65
4 65 64 66 67
4 67 66 68 69
4 69 68 70 71
4 71 70 72 73
4 73 72 74 75
4 75 74 76 77
4 77 76 78 79
4 79 78 80 81
4 81 80 82 83
4 83 82 84 85
4 85 84 86 87
4 87 86 88 89
4 89 88 90 91
4 91 90 37 36
4 38 92 93 39
4 92 94 95 93
4 94 96 97 95
4 96 98 99 97
4 98 100 101 99
4 100 102 103 101
4 102 104 105 103
4 104 106 107 105
4 106 108 109 107
4 108 110 111 109
4 110 112 113 111
4 112 114 115 113
4 114 116 117 115
4 116 118 119 117
4 118 120 121 119
4 120 122 123 121
4 122 124 125 123
4 124 126 127 125
4 126 128 129 127
4 128 130 131 129
4 130 132 133 131
4 132 134 135 133
4 134 136 137 135
4 136 138 139 137
4 138 140 141 139
4 140 142 143 141
4 142 144 145 143
4 144 146 147 145
4 146 148 149 147
4 148 150 151 149
4 150 152 153 151
4 152 154 155 153
4 154 156 157 155
4 156 158 159 157
4 158 160 161 159
4 160 162 163 161
4 162 164 165 163
4 164 166 167 165
4 166 168 169 167
4 168 170 171 169
4 170 172 173 171
4 172 174 175 173
4 174 176 177 175
4 176 178 179 177
4 178 180 181 179
4 180 182 183 181
4 182 184 185 183
4 184 186 187 185
4 186 188 189 187
4 188 190 191 189
4 190 192 193 191
4 192 194 195 193
4 194 196 197 195
4 196 198 199 197
4 198 200 201 199
4 200 202 203 201
4 202 204 205 203
4 204 206 207 205
4 206 208 209 207
4 208 210 211 209
4 210 212 213 211
4 212 214 215 213
4 214 216 217 215
4 216 218 219 217
4 218 220 221 219
4 220 222 223 221
4 222 224 225 223
4 224 226 227 225
4 226 228 229 227
4 228 230 231 229
4 230 232 233 231
4 232 234 235 233
4 234 236 237 235
4 236 238 239 237
4 238 240 241 239
4 240 242 243 241
4 242 244 245 243
4 244 246 247 245
4 246 248 249 247
4 248 250 251 249
4 250 252 253 251
4 252 254 255 253
4 254 256 257 255
4 256 258 259 257
4 258 260 261 259
4 260 262 263 261
4 262 264 265 263
4 264 266 267 265
4 266 268 269 267
4 268 270 271 269
4 270 272 273 271
4 272 274 275 273
4 274 276 277 275
4 276 278 279 277
4 278 280 281 279
4 280 282 283 281
4 282 284 285 283
4 284 286 287 285
4 286 288 289 287
4 288 290 291 289
4 290 292 293 291
4 292 294 295 293
4 294 296 297 295
4 296 298 299 297
4 298 300 301 299
4 300 302 303 301
4 302 304 305 303
4 304 306 307 305
4 306 308 309 307
4 308 310 311 309
4 310 312 313 311
4 312 314 315 313
4 314 316 317 315
4 316 318 319 317
4 318 320 321 319
4 320 322 323 321
4 322 324 325 323
4 324 326 327 325
4 326 328 329 327
4 328 330 331 329
4 330 332 333 331
4 332 334 335 333
4 334 336 337 335
4 336 338 339 337
4 338 340 341 339
4 340 342 343 341
4 342 344 345 343
4 344 346 347 345
4 346 348 349 347
4 348 350 351 349
4 350 352 353 351
4 352 354 355 353
4 354 356 357 355
4 356 358 359 357
4 358 360 361 359
4 360 362 363 361
4 362 364 365 363
4 364 366 367 365
4 366 368 369 367
4 368 370 371 369
4 370 372 373 371
4 372 374 375 373
4 374 376 377 375
4 376 378 379 377
4 378 380 381 379
4 380 382 383 381
4 382 384 385 383
4 384 386 387 385
4 386 388 389 387
4 388 390 391 389
4 390 392 393 391
4 392 394 395 393
4 394 396 397 395
4 396 398 399 397
4 398 400 401 399
4 400 402 403 401
4 402 404 405 403
4 404 406 407 405
4 406 408 409 407
4 408 410 411 409
4 410 412 413 411
4 412 414 415 413
4 414 416 417 415
4 416 418 419 417
4 418 420 421 419
4 420 422 423 421
4 422 424 425 423
4 424 426 427 425
4 426 428 429 427
4 428 430 431 429
4 430 432 433 431
4 432 434 435 433
4 434 436 437 435
4 436 438 439 437
4 438 440 441 439
4 440 442 443 441
4 442 444 445 443
4 444 446 447 445
4 446 448 449 447
4 448 450 451 449
4 450 452 453 451
4 452 454 455 453
4 454 456 457 455
4 456 458 459 457
4 458 460 461 459
4 460 462 463 461
4 462 464 465 463
4 464 466 467 465
4 466 468 469 467
4 468 470 471 469
4 470 472 473 471
4 472 474 475 473
4 474 476 477 475
4 476 478 479 477
4 478 480 481 479
4 480 482 483 481
4 482 484 485 483
4 484 486 487 485
4 486 488 489 487
4 488 490 491 489
4 490 492 493 491
4 492 494 495 493
4 494 496 497 495
4 496 498 499 497
4 498 500 501 499
POINT_DATA 502
FIELD attributes 1
U 3 502 float
1.60409 0.0886087 -0.0111566
0.803351 0.0440129 -0.00549797
0.803351 0.0440129 -0.00549797
1.60409 0.0886087 -0.0111566
0.0239645 0.000631729 0
0.0239645 0.000631729 0
0.021523 0.000534282 0
0.021523 0.000534282 0
0.0193936 0.000450745 0
0.0193936 0.000450745 0
0.017329 0.000382349 0
0.017329 0.000382349 0
0.0153659 0.000331162 0
0.0153659 0.000331162 0
0.0134927 0.000308773 0
0.0134927 0.000308773 0
0.011632 0.00030209 0
0.011632 0.00030209 0
0.00980044 0.000276103 0
0.00980044 0.000276103 0
0.00809851 0.000220221 0
0.00809851 0.000220221 0
0.00663058 0.00015203 0
0.00663058 0.00015203 0
0.00541941 9.28169e-05 0
0.00541941 9.28169e-05 0
0.00445947 5.30071e-05 0
0.00445947 5.30071e-05 0
0.00365834 2.88614e-05 0
0.00365834 2.88614e-05 0
0.00300637 2.32994e-05 0
0.00300637 2.32994e-05 0
0.00231661 -1.20504e-05 0
0.00231661 -1.20504e-05 0
0.0018763 -0.000112466 0
0.0018763 -0.000112466 0
0.00081225 0.000133842 0
0.00081225 0.000133842 0
-7.18074e-05 0.000173832 1.1887e-22
-7.18074e-05 0.000173832 1.1887e-22
-0.000132543 0.000577121 -3.21236e-22
-0.000132543 0.000577121 -3.21236e-22
-0.000219468 0.00118457 -3.80712e-22
-0.000219468 0.00118457 -3.80712e-22
-1.71618e-05 0.00103536 7.61586e-22
-1.71618e-05 0.00103536 7.61586e-22
0.000452461 -0.000801165 2.54078e-22
0.000452461 -0.000801165 2.54078e-22
0.000653682 -0.00358375 -5.07548e-22
0.000653682 -0.00358375 -5.07548e-22
0.00050038 -0.0056639 0
0.00050038 -0.0056639 0
0.00031276 -0.00692191 -1.01492e-21
0.00031276 -0.00692191 -1.01492e-21
0.000178091 -0.00763483 -1.14321e-25
0.000178091 -0.00763483 -1.14321e-25
7.07481e-05 -0.00791319 1.0148e-21
7.07481e-05 -0.00791319 1.0148e-21
-8.40539e-06 -0.00785564 -1.02167e-21
-8.40539e-06 -0.00785564 -1.02167e-21
-6.38188e-05 -0.00755285 1.18822e-25
-6.38188e-05 -0.00755285 1.18822e-25
-0.000106329 -0.00706931 1.02179e-21
-0.000106329 -0.00706931 1.02179e-21
-0.000144941 -0.00645063 1.03398e-21
-0.000144941 -0.00645063 1.03398e-21
-0.00018932 -0.00574273 -3.80132e-25
-0.00018932 -0.00574273 -3.80132e-25
-0.000240097 -0.00499438 -1.0527e-21
-0.000240097 -0.00499438 -1.0527e-21
-0.000280626 -0.00421479 0
-0.000280626 -0.00421479 0
-0.00023984 -0.00353133 0
-0.00023984 -0.00353133 0
-5.58408e-05 -0.00311978 0
-5.58408e-05 -0.00311978 0
0.000182518 -0.00328705 0
0.000182518 -0.00328705 0
0.000271495 -0.00388139 0
0.000271495 -0.00388139 0
0.000109062 -0.00414218 0
0.000109062 -0.00414218 0
-0.000166631 -0.00380054 0
-0.000166631 -0.00380054 0
-0.000393038 -0.00310973 0
-0.000393038 -0.00310973 0
-0.000558214 -0.00216017 0
-0.000558214 -0.00216017 0
-0.00061138 -0.00115431 0
-0.00061138 -0.00115431 0
-0.000324365 -0.000145718 0
-0.000324365 -0.000145718 0
-0.000152641 0.000148128 5.0501e-25
-0.000152641 0.000148128 5.0501e-25
-0.000237124 5.73889e-05 -5.90817e-23
-0.000237124 5.73889e-05 -5.90817e-23
-0.000160995 -7.52283e-05 0
-0.000160995 -7.52283e-05 0
3.22679e-05 -0.0001644 0
3.22679e-05 -0.0001644 0
0.000258918 -0.000171784 5.73481e-23
0.000258918 -0.000171784 5.73481e-23
0.000459738 -0.000116521 5.74511e-23
0.000459738 -0.000116521 5.74511e-23
0.000590776 -1.71493e-05 0
0.000590776 -1.71493e-05 0
0.000622523 0.000101649 0
0.000622523 0.000101649 0
0.000543382 0.00020064 0
0.000543382 0.00020064 0
0.000364515 0.000230199 -5.53512e-23
0.000364515 0.000230199 -5.53512e-23
0.000126391 0.000174977 -5.54567e-23
0.000126391 0.000174977 -5.54567e-23
-0.000118133 9.47441e-05 0
-0.000118133 9.47441e-05 0
-0.000329933 6.51751e-05 0
-0.000329933 6.51751e-05 0
-0.000499807 9.0455e-05 0
-0.000499807 9.0455e-05 0
-0.000653406 0.000129239 -5.32869e-23
-0.000653406 0.000129239 -5.32869e-23
-0.000815855 0.000155493 -5.33945e-23
-0.000815855 0.000155493 -5.33945e-23
-0.000976533 0.00016032 0
-0.000976533 0.00016032 0
-0.00111382 0.00014758 0
-0.00111382 0.00014758 0
-0.00122746 0.000123998 0
-0.00122746 0.000123998 0
-0.00131658 8.68251e-05 0
-0.00131658 8.68251e-05 0
-0.00136854 3.6081e-05 0
-0.00136854 3.6081e-05 0
-0.00139485 -1.24193e-05 0
-0.00139485 -1.24193e-05 0
-0.00144089 -2.80197e-05 -5.00445e-23
-0.00144089 -2.80197e-05 -5.00445e-23
-0.0015558 2.11708e-05 -5.23665e-25
-0.0015558 2.11708e-05 -5.23665e-25
-0.00176987 0.000128362 5.31887e-25
-0.00176987 0.000128362 5.31887e-25
-0.00207629 0.000210431 -9.81069e-23
-0.00207629 0.000210431 -9.81069e-23
-0.00240829 0.000175296 -4.88967e-23
-0.00240829 0.000175296 -4.88967e-23
-0.0026889 6.48729e-05 0
-0.0026889 6.48729e-05 0
-0.00293533 3.69159e-05 4.7505e-23
-0.00293533 3.69159e-05 4.7505e-23
-0.00323648 0.000146291 9.46889e-23
-0.00323648 0.000146291 9.46889e-23
-0.00362273 0.000265111 4.71841e-23
-0.00362273 0.000265111 4.71841e-23
-0.00403919 0.000288301 0
-0.00403919 0.000288301 0
-0.00443517 0.000268666 4.57768e-23
-0.00443517 0.000268666 4.57768e-23
-0.00480682 0.000271488 4.58895e-23
-0.00480682 0.000271488 4.58895e-23
-0.00515362 0.000265143 0
-0.00515362 0.000265143 0
-0.00545623 0.000218777 -4.45336e-23
-0.00545623 0.000218777 -4.45336e-23
-0.00570236 0.00016134 -4.46468e-23
-0.00570236 0.00016134 -4.46468e-23
-0.00589601 0.000119258 -4.37577e-23
-0.00589601 0.000119258 -4.37577e-23
-0.00604196 8.55954e-05 -1.30648e-22
-0.00604196 8.55954e-05 -1.30648e-22
-0.00613881 4.89335e-05 -8.70046e-23
-0.00613881 4.89335e-05 -8.70046e-23
-0.00618331 9.6574e-06 0
-0.00618331 9.6574e-06 0
-0.00617441 -2.78216e-05 0
-0.00617441 -2.78216e-05 0
-0.00611454 -6.24617e-05 0
-0.00611454 -6.24617e-05 0
-0.00600542 -9.57282e-05 0
-0.00600542 -9.57282e-05 0
-0.00584706 -0.000128364 -8.28749e-23
-0.00584706 -0.000128364 -8.28749e-23
-0.00564026 -0.000159864 -1.65411e-22
-0.00564026 -0.000159864 -1.65411e-22
-0.00538593 -0.000189113 -1.64289e-22
-0.00538593 -0.000189113 -1.64289e-22
-0.00508501 -0.000215442 -8.19846e-23
-0.00508501 -0.000215442 -8.19846e-23
-0.00473768 -0.000239762 8.06871e-23
-0.00473768 -0.000239762 8.06871e-23
-0.00434186 -0.000264494 8.09209e-23
-0.00434186 -0.000264494 8.09209e-23
-0.00389228 -0.00029337 -7.96547e-23
-0.00389228 -0.00029337 -7.96547e-23
-0.00338047 -0.000331692 -1.59032e-22
-0.00338047 -0.000331692 -1.59032e-22
-0.00279662 -0.000385856 -7.93782e-23
-0.00279662 -0.000385856 -7.93782e-23
-0.00213315 -0.000458969 0
-0.00213315 -0.000458969 0
-0.00139129 -0.000538392 0
-0.00139129 -0.000538392 0
-0.000596267 -0.000578169 -7.69841e-23
-0.000596267 -0.000578169 -7.69841e-23
0.000187451 -0.000529019 -7.72226e-23
0.000187451 -0.000529019 -7.72226e-23
0.000880841 -0.000447289 0
0.000880841 -0.000447289 0
0.00149702 -0.000400156 0
0.00149702 -0.000400156 0
0.00208935 -0.000353377 0
0.00208935 -0.000353377 0
0.00263592 -0.000274807 0
0.00263592 -0.000274807 0
0.00308154 -0.000182274 0
0.00308154 -0.000182274 0
0.0034224 -7.3562e-05 0
0.0034224 -7.3562e-05 0
0.00361504 0.000147561 0
0.00361504 0.000147561 0
0.00340365 0.000456114 7.07956e-23
0.00340365 0.000456114 7.07956e-23
0.00274934 0.000532424 7.10335e-23
0.00274934 0.000532424 7.10335e-23
0.00208719 0.000248424 0
0.00208719 0.000248424 0
0.00168505 1.45479e-06 -6.89747e-23
0.00168505 1.45479e-06 -6.89747e-23
0.00144044 0.000101565 -1.37548e-22
0.00144044 0.000101565 -1.37548e-22
0.0011935 0.000348248 -6.85736e-23
0.0011935 0.000348248 -6.85736e-23
0.000817829 0.000401369 6.70421e-23
0.000817829 0.000401369 6.70421e-23
0.000342246 0.000230027 8.94466e-25
0.000342246 0.000230027 8.94466e-25
-0.000142106 7.58203e-05 -6.66217e-23
-0.000142106 7.58203e-05 -6.66217e-23
-0.000490648 -3.57458e-05 6.50436e-23
-0.000490648 -3.57458e-05 6.50436e-23
-0.000331497 -0.000272976 6.52796e-23
-0.000331497 -0.000272976 6.52796e-23
0.000435663 -0.000459333 0
0.000435663 -0.000459333 0
0.00137322 -0.000345692 -6.30929e-23
0.00137322 -0.000345692 -6.30929e-23
0.00199874 -6.13283e-05 -6.33275e-23
0.00199874 -6.13283e-05 -6.33275e-23
0.00213629 0.000158814 6.17508e-23
0.00213629 0.000158814 6.17508e-23
0.00201304 0.000191289 6.19841e-23
0.00201304 0.000191289 6.19841e-23
0.00196059 1.61306e-05 -6.04826e-23
0.00196059 1.61306e-05 -6.04826e-23
0.00203845 -0.000257366 -1.20558e-22
0.00203845 -0.000257366 -1.20558e-22
0.00211926 -0.000420184 -1.19285e-22
0.00211926 -0.000420184 -1.19285e-22
0.00202401 -0.000289759 -1.7667e-22
0.00202401 -0.000289759 -1.7667e-22
0.00154079 9.52395e-05 -1.55957e-24
0.00154079 9.52395e-05 -1.55957e-24
0.000635125 0.000459155 1.1659e-22
0.000635125 0.000459155 1.1659e-22
-0.000496762 0.000632901 0
-0.000496762 0.000632901 0
-0.00167875 0.000672488 0
-0.00167875 0.000672488 0
-0.00282692 0.000653441 1.10549e-22
-0.00282692 0.000653441 1.10549e-22
-0.0038968 0.000605724 2.19979e-22
-0.0038968 0.000605724 2.19979e-22
-0.00486947 0.000545071 2.01501e-24
-0.00486947 0.000545071 2.01501e-24
-0.00573808 0.000480229 -1.07857e-22
-0.00573808 0.000480229 -1.07857e-22
-0.00650211 0.000415729 1.04357e-22
-0.00650211 0.000415729 1.04357e-22
-0.00716351 0.000353617 2.0769e-22
-0.00716351 0.000353617 2.0769e-22
-0.00772507 0.000294883 2.04821e-22
-0.00772507 0.000294883 2.04821e-22
-0.00819024 0.000240016 1.01923e-22
-0.00819024 0.000240016 1.01923e-22
-0.00856276 0.000188885 0
-0.00856276 0.000188885 0
-0.00884629 0.000141077 0
-0.00884629 0.000141077 0
-0.00904465 9.66686e-05 9.65424e-23
-0.00904465 9.66686e-05 9.65424e-23
-0.00916237 5.65924e-05 9.6965e-23
-0.00916237 5.65924e-05 9.6965e-23
-0.0092052 2.20388e-05 0
-0.0092052 2.20388e-05 0
-0.00918381 -7.24269e-06 -9.35287e-23
-0.00918381 -7.24269e-06 -9.35287e-23
-0.00910701 -3.20231e-05 -9.39465e-23
-0.00910701 -3.20231e-05 -9.39465e-23
-0.0089814 -5.24293e-05 0
-0.0089814 -5.24293e-05 0
-0.00881472 -6.91982e-05 -9.0964e-23
-0.00881472 -6.91982e-05 -9.0964e-23
-0.00861275 -8.29982e-05 -9.13783e-23
-0.00861275 -8.29982e-05 -9.13783e-23
-0.00838089 -9.44354e-05 0
-0.00838089 -9.44354e-05 0
-0.00812249 -0.00010449 8.86637e-23
-0.00812249 -0.00010449 8.86637e-23
-0.00783903 -0.000114034 1.77008e-22
-0.00783903 -0.000114034 1.77008e-22
-0.00752991 -0.000123982 8.83433e-23
-0.00752991 -0.000123982 8.83433e-23
-0.00719247 -0.000135137 -8.65123e-23
-0.00719247 -0.000135137 -8.65123e-23
-0.00682257 -0.000147993 -8.69213e-23
-0.00682257 -0.000147993 -8.69213e-23
-0.00641552 -0.000162579 8.51433e-23
-0.00641552 -0.000162579 8.51433e-23
-0.00596732 -0.000178294 8.55507e-23
-0.00596732 -0.000178294 8.55507e-23
-0.00547619 -0.000193891 8.38073e-23
-0.00547619 -0.000193891 8.38073e-23
-0.00494402 -0.000207676 1.6735e-22
-0.00494402 -0.000207676 1.6735e-22
-0.0043773 -0.000217887 8.35422e-23
-0.0043773 -0.000217887 8.35422e-23
-0.00378685 -0.000223103 0
-0.00378685 -0.000223103 0
-0.00318593 -0.000222618 0
-0.00318593 -0.000222618 0
-0.00258768 -0.000216646 0
-0.00258768 -0.000216646 0
-0.0020043 -0.000206036 0
-0.0020043 -0.000206036 0
-0.00144656 -0.00019207 0
-0.00144656 -0.00019207 0
-0.000921491 -0.000176337 0
-0.000921491 -0.000176337 0
-0.000431918 -0.000159587 7.69185e-23
-0.000431918 -0.000159587 7.69185e-23
1.95331e-05 -0.00014469 1.30136e-24
1.95331e-05 -0.00014469 1.30136e-24
0.000433207 -0.000131255 -7.63979e-23
0.000433207 -0.000131255 -7.63979e-23
0.000814425 -0.000117681 0
0.000814425 -0.000117681 0
0.00116647 -0.000105582 0
0.00116647 -0.000105582 0
0.00149111 -9.47149e-05 0
0.00149111 -9.47149e-05 0
0.00179096 -8.49021e-05 -1.42679e-22
0.00179096 -8.49021e-05 -1.42679e-22
0.00206807 -7.59018e-05 -1.43428e-22
0.00206807 -7.59018e-05 -1.43428e-22
0.00232382 -6.74218e-05 1.38984e-22
0.00232382 -6.74218e-05 1.38984e-22
0.00255885 -5.91596e-05 2.56756e-24
0.00255885 -5.91596e-05 2.56756e-24
0.00277308 -5.09018e-05 -1.37885e-22
0.00277308 -5.09018e-05 -1.37885e-22
0.00296595 -4.25425e-05 0
0.00296595 -4.25425e-05 0
0.00313661 -3.38501e-05 0
0.00313661 -3.38501e-05 0
0.00328379 -2.47344e-05 1.29956e-22
0.00328379 -2.47344e-05 1.29956e-22
0.00340676 -1.55655e-05 2.5885e-22
0.00340676 -1.55655e-05 2.5885e-22
0.00350548 -6.25071e-06 1.28888e-22
0.00350548 -6.25071e-06 1.28888e-22
0.0035795 3.17405e-06 1.24687e-22
0.0035795 3.17405e-06 1.24687e-22
0.00362984 1.20092e-05 2.48331e-22
0.00362984 1.20092e-05 2.48331e-22
0.00365651 2.14388e-05 2.39836e-24
0.00365651 2.14388e-05 2.39836e-24
0.00365599 3.33539e-05 -1.21913e-22
0.00365599 3.33539e-05 -1.21913e-22
0.00362479 4.70929e-05 0
0.00362479 4.70929e-05 0
0.00356018 6.0279e-05 -1.16163e-22
0.00356018 6.0279e-05 -1.16163e-22
0.00346126 7.11838e-05 -1.16817e-22
0.00346126 7.11838e-05 -1.16817e-22
0.00332934 8.00026e-05 0
0.00332934 8.00026e-05 0
0.00316591 8.80215e-05 0
0.00316591 8.80215e-05 0
0.00297246 9.48262e-05 0
0.00297246 9.48262e-05 0
0.00275403 9.66045e-05 1.07904e-22
0.00275403 9.66045e-05 1.07904e-22
0.002523 8.93144e-05 2.14792e-22
0.002523 8.93144e-05 2.14792e-22
0.00229825 7.30552e-05 1.06881e-22
0.00229825 7.30552e-05 1.06881e-22
0.00209876 5.20484e-05 1.03013e-22
0.00209876 5.20484e-05 1.03013e-22
0.00193658 3.15887e-05 1.03612e-22
0.00193658 3.15887e-05 1.03612e-22
0.00181459 1.52842e-05 0
0.00181459 1.52842e-05 0
0.0017284 4.19063e-06 9.81937e-23
0.0017284 4.19063e-06 9.81937e-23
0.00166991 -2.33319e-06 9.87716e-23
0.00166991 -2.33319e-06 9.87716e-23
0.00163077 -5.48611e-06 9.50191e-23
0.00163077 -5.48611e-06 9.50191e-23
0.00160432 -6.41578e-06 9.55825e-23
0.00160432 -6.41578e-06 9.55825e-23
0.00158602 -6.12245e-06 0
0.00158602 -6.12245e-06 0
0.00157306 -5.2868e-06 9.03054e-23
0.00157306 -5.2868e-06 9.03054e-23