/*--------------------------------*- C++ -*----------------------------------*\
  =========                 |
  \\      /  F ield         | OpenFOAM: The Open Source CFD Toolbox
   \\    /   O peration     | Website:  https://openfoam.org
    \\  /    A nd           | Version:  7
     \\/     M anipulation  |
\*---------------------------------------------------------------------------*/
FoamFile
{
    version     2.0;
    format      ascii;
    class       volScalarField;
    location    "0.23";
    object      epsilon;
}
// * * * * * * * * * * * * * * * * * * * * * * * * * * * * * * * * * * * * * //

dimensions      [0 2 -3 0 0 0 0];

internalField   nonuniform List<scalar> 
12225
(
261.514
229.335
202.526
181.49
166.165
155.706
148.932
144.732
142.227
140.782
139.964
139.495
139.206
138.997
138.816
138.628
138.467
139.393
74.4042
97.5823
104.475
109.104
114.644
121.068
127.653
133.844
139.363
144.116
148.109
151.405
154.093
156.266
158.02
159.394
160.656
161.345
31.9471
44.3628
51.559
56.2975
60.152
63.8134
67.4407
70.9946
74.4013
77.598
80.5411
83.2087
85.5981
87.7204
89.5971
91.247
92.7229
93.9776
20.8062
26.666
31.0977
34.3338
36.8352
38.9638
40.9044
42.7324
44.475
46.138
47.7167
49.2037
50.5933
51.883
53.0738
54.1683
55.1722
56.0754
17.0807
19.8447
22.2844
24.2528
25.8326
27.1478
28.2881
29.3092
30.2457
31.1183
31.9381
32.7102
33.437
34.1199
34.7598
35.3577
35.9136
36.4191
15.6187
16.8449
18.1011
19.2183
20.1682
20.974
21.6655
22.2687
22.8046
23.2888
23.7321
24.1415
24.5219
24.8762
25.2068
25.515
25.8013
26.0593
15.0057
15.4483
16.0092
16.5712
17.0863
17.5423
17.9403
18.2869
18.5905
18.8592
19.0994
19.316
19.5129
19.6929
19.8579
20.0096
20.1486
20.2706
14.7446
14.7907
14.9477
15.1532
15.3697
15.5776
15.7675
15.9364
16.0847
16.2147
16.3288
16.4292
16.518
16.5968
16.667
16.7295
16.7849
16.8305
14.6329
14.4844
14.4154
14.4003
14.4174
14.451
14.4906
14.5296
14.5653
14.5962
14.622
14.6431
14.6597
14.6725
14.6817
14.6879
14.691
14.6897
14.5847
14.3444
14.156
14.012
13.9027
13.8187
13.752
13.6967
13.6489
13.6059
13.5662
13.5286
13.4925
13.4575
13.4234
13.3899
13.357
13.3236
14.5634
14.2814
14.0337
13.8195
13.6355
13.477
13.3394
13.2184
13.1105
13.0132
12.9244
12.8426
12.7666
12.6955
12.6286
12.5654
12.5054
12.4483
14.5542
14.2552
13.9821
13.7352
13.5137
13.3153
13.1375
12.9773
12.8322
12.7001
12.5791
12.4676
12.3644
12.2684
12.1787
12.0947
12.0157
11.9418
14.5491
14.242
13.9563
13.6925
13.4503
13.2287
13.0261
12.8407
12.6707
12.5146
12.3707
12.2377
12.1143
11.9996
11.8925
11.7924
11.6987
11.6117
14.546
14.2346
13.943
13.6709
13.4177
13.1829
12.9655
12.7643
12.578
12.4054
12.2452
12.0963
11.9577
11.8284
11.7076
11.5946
11.4888
11.3908
14.544
14.2306
13.9366
13.6611
13.4033
13.1627
12.9382
12.7289
12.5339
12.352
12.1823
12.0238
11.8756
11.7369
11.6069
11.485
11.3708
11.265
14.5428
14.2284
13.9337
13.6573
13.3982
13.1557
12.9288
12.7165
12.518
12.3322
12.1582
11.9953
11.8425
11.699
11.5643
11.4377
11.3187
11.2086
14.5422
14.2274
13.9327
13.6565
13.3976
13.155
12.9279
12.7152
12.516
12.3293
12.1543
11.9901
11.8359
11.691
11.5546
11.4263
11.3057
11.1938
14.5423
14.2277
13.9335
13.6579
13.3998
13.1581
12.9318
12.7199
12.5214
12.3353
12.1609
11.9971
11.8432
11.6986
11.5624
11.4342
11.3136
11.2018
14.5433
14.2297
13.9367
13.6625
13.4058
13.1657
12.9411
12.731
12.5342
12.3499
12.1771
12.015
11.8627
11.7196
11.5849
11.4581
11.3389
11.2283
14.5456
14.2344
13.9436
13.6718
13.4176
13.1803
12.9585
12.7514
12.5578
12.3767
12.2072
12.0483
11.8993
11.7593
11.6278
11.5041
11.3879
11.2803
14.5493
14.2418
13.9546
13.6865
13.4365
13.2037
12.9871
12.7854
12.5975
12.4223
12.2587
12.106
11.963
11.8292
11.7037
11.5859
11.4755
11.3735
14.5555
14.2546
13.9745
13.7145
13.4739
13.2518
13.0471
12.8583
12.6838
12.5222
12.3724
12.2333
12.1038
11.9831
11.8705
11.7652
11.6667
11.5759
14.567
14.2806
14.0189
13.7811
13.5664
13.3733
13.1995
13.0423
12.8992
12.7683
12.6481
12.5374
12.4349
12.3396
12.2503
12.1664
12.0875
12.0144
14.5931
14.349
14.1441
13.9722
13.8284
13.7082
13.6059
13.5164
13.436
13.363
13.2956
13.232
13.1708
13.1116
13.054
12.9978
12.9432
12.8913
14.6719
14.5671
14.5334
14.5366
14.5581
14.5881
14.618
14.6433
14.6615
14.6705
14.6701
14.6615
14.6457
14.6242
14.5981
14.5686
14.5368
14.5045
14.9618
15.3045
15.7117
16.0878
16.4098
16.6789
16.8975
17.0641
17.186
17.2722
17.3302
17.3667
17.3873
17.3963
17.3974
17.3933
17.3862
17.3785
16.0826
17.7386
19.0679
20.0268
20.7393
21.2729
21.6498
21.9109
22.092
22.2198
22.3134
22.3866
22.4491
22.5077
22.5669
22.6294
22.6969
22.7704
20.4114
25.6123
28.3433
29.7403
30.5942
31.1251
31.4558
31.6812
31.8659
32.0475
32.2463
32.4732
32.7325
33.0245
33.3473
33.6975
34.0715
34.4633
38.6012
49.0463
52.2935
53.178
53.4525
53.5622
53.7107
54.0144
54.5032
55.1627
55.9677
56.8924
57.912
59.0037
60.1473
61.3263
62.5298
63.7436
159.121
148.102
138.017
128.818
120.586
113.348
107.09
101.756
97.256
93.4902
90.3589
87.7702
85.642
83.9023
82.489
81.3488
80.4369
79.7151
0.0984054
0.132152
0.220468
0.296607
0.379305
0.469105
0.566905
0.675597
0.789316
0.904733
1.02324
1.14499
1.26991
1.39803
1.52939
1.6641
1.80227
1.944
2.08939
2.23854
2.3915
2.54833
2.70908
2.87377
3.0424
3.21497
3.39145
3.57179
3.75594
3.9438
4.13529
4.33028
4.52864
4.73021
4.93481
5.14225
5.3523
5.56473
5.77926
5.99557
6.21331
6.43209
6.65144
6.87084
7.08969
7.30733
7.52303
7.73603
7.94549
8.15061
8.35056
8.54452
8.7316
8.91081
9.08089
9.24021
9.38654
9.51706
9.62859
9.71882
9.78878
9.84613
9.90525
9.97747
10.0499
10.0781
10.0499
9.99376
10.2081
10.0708
10.157
10.2555
44.117
10.2869
10.3826
44.2606
44.4516
44.9518
44.5149
46.1025
45.661
46.9396
48.2858
49.6537
51.0329
52.4182
53.8056
55.1918
56.5746
57.9521
59.3232
60.6879
62.0488
63.4124
64.7588
66.0844
67.3883
68.669
69.9243
71.1519
72.3495
73.5148
74.6454
75.7392
76.7939
77.8074
78.7777
79.7028
80.581
81.4104
82.1895
82.9168
83.5909
84.2107
84.7749
85.2827
85.7333
86.126
86.4603
86.7359
86.9525
87.1102
87.209
87.2492
87.2312
87.1557
87.0232
86.8346
86.5909
86.2933
85.9429
85.5411
85.0893
84.5891
84.0421
83.45
82.8147
82.1381
81.422
80.6684
79.8793
79.0568
78.203
77.3199
76.4097
75.4744
74.516
73.5369
72.539
71.5241
70.4954
69.4539
68.4044
67.3511
66.3008
65.2889
64.8577
15.2422
65.1224
66.0854
15.4449
74.2893
74.2203
15.7186
74.1665
74.6458
73.6042
74.5836
16.1104
16.5132
73.611
16.5771
16.4923
16.5249
76.7018
76.9103
74.755
17.4858
76.7611
18.0235
0.392616
0.247702
0.259454
0.301056
0.35543
0.419532
0.491755
0.570463
0.653544
0.739465
0.827526
0.917396
1.00896
1.10225
1.19735
1.29441
1.39356
1.49495
1.59872
1.705
1.8139
1.92553
2.03999
2.15734
2.27765
2.40096
2.5273
2.65669
2.78912
2.92458
3.06302
3.20441
3.34867
3.49574
3.64553
3.79794
3.95285
4.11015
4.26971
4.43138
4.595
4.7604
4.92741
5.09584
5.2655
5.4362
5.60778
5.78014
5.95322
6.12712
6.30208
6.47855
6.6573
6.8395
7.02684
7.22172
7.42734
7.64771
7.88733
8.15055
8.44085
8.76055
9.11228
9.50624
9.97377
10.569
11.3231
12.1676
12.4011
13.4755
13.9858
14.5019
15.5392
14.895
15.8494
17.9444
18.5678
19.145
19.7398
20.32
20.8636
21.409
21.9808
22.5446
23.1065
23.6672
24.2269
24.7854
25.3424
25.8977
26.4516
27.0047
27.5584
28.1202
28.6787
29.2305
29.7747
30.3105
30.8369
31.3531
31.8583
32.3515
32.8319
33.2987
33.7509
34.1878
34.6086
35.0125
35.3988
35.7667
36.1158
36.4453
36.7546
37.0433
37.3109
37.5569
37.781
37.9828
38.1621
38.3186
38.4522
38.5629
38.6504
38.7149
38.7565
38.7751
38.7711
38.7446
38.6959
38.6253
38.5332
38.42
38.2862
38.1323
37.9589
37.7664
37.5556
37.327
37.0814
36.8194
36.5417
36.2491
35.9424
35.6222
35.2893
34.9446
34.5887
34.2226
33.8469
33.4622
33.07
32.6701
32.2649
31.8562
31.45
31.0985
30.8705
27.5357
30.5962
30.6456
27.2025
29.9041
30.1575
26.7204
29.7994
29.3889
29.4424
29.4242
25.95
25.7302
28.5932
25.4716
25.0305
24.9153
27.6216
27.6308
27.7477
24.5387
26.9654
22.6827
0.79946
0.416702
0.384403
0.404042
0.443175
0.49454
0.55496
0.622158
0.69416
0.769399
0.84681
0.925764
1.00597
1.08735
1.16999
1.25401
1.33961
1.42696
1.51624
1.60763
1.70128
1.79732
1.8959
1.9971
2.10103
2.20776
2.31736
2.42987
2.54533
2.66377
2.7852
2.90963
3.03706
3.16748
3.30089
3.43726
3.57659
3.71886
3.86406
4.01218
4.16323
4.31722
4.47417
4.63412
4.79715
4.96338
5.13295
5.30611
5.48318
5.66464
5.85109
6.04338
6.24262
6.45025
6.66813
6.8985
7.14404
7.40754
7.69143
7.99705
8.3241
8.67082
9.03529
9.4182
9.82576
10.2653
10.7294
11.1899
11.6117
12.1023
12.5364
12.9685
13.4212
13.832
14.3503
14.9281
15.4147
15.881
16.36
16.8241
17.2883
17.7426
18.1953
18.6454
19.095
19.5447
19.9947
20.445
20.8954
21.3458
21.7965
22.2477
22.7001
23.1519
23.6002
24.0435
24.4811
24.912
25.3357
25.7514
26.1584
26.556
26.9435
27.3201
27.6853
28.0383
28.3785
28.7053
29.0181
29.3164
29.5995
29.867
30.1185
30.3534
30.5715
30.7723
30.9556
31.1211
31.2685
31.3977
31.5085
31.6008
31.6746
31.73
31.7668
31.7853
31.7856
31.7677
31.732
31.6787
31.6081
31.5205
31.4163
31.2959
31.1596
31.0081
30.8417
30.661
30.4664
30.2586
30.0381
29.8056
29.5615
29.3064
29.0411
28.7661
28.4819
28.1894
27.889
27.5809
27.267
26.9457
26.6207
26.2946
25.9735
25.6842
25.4471
24.803
25.0007
24.8133
24.129
24.07
23.9327
23.3823
23.4731
23.1435
22.9827
22.781
22.2086
21.957
22.0424
21.5033
21.2207
21.012
21.0086
20.8167
20.7335
20.216
20.268
19.7904
1.23592
0.594569
0.507983
0.505793
0.531966
0.573252
0.624642
0.683341
0.747333
0.81507
0.885422
0.957643
1.03131
1.10625
1.18246
1.26003
1.33911
1.41989
1.50256
1.5873
1.67426
1.76362
1.85552
1.95007
2.04739
2.14759
2.25075
2.35694
2.46625
2.57872
2.69441
2.81338
2.93568
3.06135
3.19044
3.32302
3.45913
3.59885
3.74226
3.88945
4.04052
4.19561
4.35486
4.51846
4.68662
4.8596
5.03771
5.22131
5.41085
5.60688
5.81004
6.02111
6.24102
6.47087
6.71189
6.96545
7.23293
7.51551
7.81395
8.12814
8.45707
8.79908
9.15257
9.51666
9.89175
10.2784
10.6742
11.0743
11.4764
11.8879
12.2979
12.7124
13.1339
13.5608
14.001
14.448
14.8887
15.3279
15.7697
16.2104
16.6517
17.0911
17.5298
17.9682
18.4071
18.8469
19.2876
19.7292
20.1714
20.6141
21.0571
21.5003
21.9427
22.3826
22.8187
23.2499
23.6755
24.0948
24.5069
24.9111
25.3068
25.6932
26.0696
26.4353
26.7896
27.1318
27.4613
27.7776
28.0798
28.3677
28.6404
28.8977
29.139
29.364
29.5721
29.7632
29.9368
30.0927
30.2308
30.3508
30.4526
30.5362
30.6015
30.6486
30.6775
30.6882
30.6811
30.6562
30.6138
30.5541
30.4775
30.3843
30.275
30.1498
30.0094
29.854
29.6843
29.5007
29.3038
29.0942
28.8723
28.639
28.3946
28.1396
27.8751
27.6013
27.3187
27.0284
26.7309
26.4252
26.1154
25.8004
25.4818
25.1618
24.8452
24.5459
24.2721
23.927
23.7268
23.4611
23.1017
22.8191
22.5561
22.2483
22.0124
21.7132
21.4553
21.1935
20.8875
20.619
20.3988
20.0951
19.8289
19.5828
19.3523
19.1164
18.926
18.6823
18.5547
18.4448
1.62336
0.747748
0.614932
0.59436
0.60952
0.642279
0.68608
0.737651
0.79491
0.856356
0.920893
0.98776
1.05648
1.12681
1.19866
1.27208
1.34719
1.42413
1.50308
1.58422
1.66771
1.75372
1.8424
1.93389
2.02831
2.12579
2.22643
2.33034
2.43761
2.54834
2.66261
2.78052
2.90215
3.0276
3.15698
3.29039
3.42794
3.56977
3.71602
3.86685
4.02244
4.18299
4.34873
4.51992
4.69683
4.87978
5.06915
5.26532
5.46874
5.67992
5.89941
6.12783
6.36584
6.61418
6.87355
7.14468
7.42817
7.72442
8.03351
8.3551
8.68843
9.03256
9.38658
9.74981
10.1219
10.5025
10.8912
11.2867
11.6884
12.0967
12.5105
12.9305
13.3568
13.7892
14.2277
14.6709
15.1171
15.5662
16.0186
16.4735
16.9305
17.389
17.8487
18.3097
18.7722
19.2363
19.7017
20.1684
20.6359
21.104
21.5722
22.0399
22.5054
22.9676
23.4256
23.8784
24.3252
24.7651
25.1974
25.6213
26.0359
26.4405
26.8344
27.2166
27.5866
27.9435
28.2866
28.6154
28.9291
29.2271
29.509
29.774
30.0219
30.252
30.4641
30.6578
30.8328
30.9887
31.1255
31.243
31.341
31.4195
31.4785
31.5181
31.5383
31.5393
31.5213
31.4845
31.4293
31.3559
31.2647
31.156
31.0305
30.8885
30.7304
30.5569
30.3685
30.1658
29.9495
29.7199
29.4778
29.224
28.959
28.6832
28.3978
28.1033
27.7993
27.4883
27.1707
26.8465
26.5174
26.1835
25.8461
25.507
25.1696
24.8412
24.5254
24.1963
23.8951
23.5819
23.2499
22.9265
22.6124
22.2984
21.9918
21.676
21.3715
21.0703
20.768
20.4717
20.1848
19.8889
19.604
19.3286
19.0581
18.7988
18.5654
18.3454
18.1813
18.0816
1.93674
0.874025
0.703179
0.667149
0.672978
0.698524
0.735915
0.781448
0.832953
0.888976
0.94848
1.01074
1.07526
1.14178
1.21017
1.28042
1.35261
1.42687
1.50333
1.58218
1.66356
1.74765
1.8346
1.92456
2.01767
2.11406
2.21387
2.31721
2.4242
2.53497
2.64963
2.76831
2.89114
3.01824
3.14977
3.28586
3.42669
3.57244
3.72328
3.87944
4.04114
4.20864
4.3822
4.56213
4.74874
4.94237
5.1434
5.35223
5.56926
5.79495
6.02975
6.27415
6.52862
6.79365
7.06967
7.35706
7.6561
7.9669
8.28942
8.62339
8.9684
9.32398
9.68968
10.0651
10.45
10.844
11.2468
11.6581
12.0775
12.5047
12.9396
13.382
13.8317
14.2886
14.7521
15.2217
15.6969
16.1773
16.6625
17.1521
17.6456
18.1423
18.6419
19.1441
19.6488
20.1556
20.6642
21.1744
21.6856
22.1974
22.7091
23.2191
23.7262
24.2294
24.7277
25.2201
25.7058
26.1838
26.6532
27.1132
27.5627
28.0011
28.4272
28.8404
29.2397
29.6244
29.9937
30.3467
30.6829
31.0015
31.3019
31.5836
31.846
32.0887
32.3112
32.5132
32.6944
32.8545
32.9933
33.1108
33.2067
33.2811
33.334
33.3656
33.3759
33.3652
33.3337
33.2817
33.2096
33.1177
33.0066
32.8766
32.7283
32.5624
32.3793
32.1795
31.9638
31.7331
31.4878
31.2286
30.9559
30.6712
30.375
30.0669
29.7492
29.4228
29.0876
28.7449
28.3954
28.0396
27.6787
27.3132
26.9442
26.5733
26.2028
25.8366
25.4769
25.1156
24.7604
24.4038
24.0444
23.6862
23.3316
22.9808
22.6319
22.2835
21.9403
21.6015
21.2673
20.937
20.6116
20.2896
19.9756
19.6699
19.3722
19.0881
18.8252
18.5882
18.3933
18.2546
2.18247
0.975581
0.773418
0.724284
0.722143
0.741553
0.773522
0.813942
0.860546
0.911897
0.967016
1.02522
1.08605
1.14922
1.2146
1.28215
1.35192
1.424
1.49853
1.57565
1.65553
1.73831
1.82417
1.91326
2.00573
2.10172
2.20138
2.30485
2.41228
2.52381
2.63958
2.75976
2.88449
3.01395
3.1483
3.28775
3.4325
3.58275
3.73875
3.90075
4.06901
4.24382
4.42549
4.61435
4.81074
5.01501
5.22756
5.44877
5.67903
5.91875
6.16834
6.42821
6.69873
6.98028
7.27317
7.57765
7.89392
8.22204
8.56201
8.91371
9.27697
9.6516
10.0374
10.4342
10.8418
11.26
11.6886
12.1274
12.5761
13.0346
13.5025
13.9796
14.4658
14.9607
15.4638
15.9749
16.4934
17.0189
17.551
18.089
18.6325
19.1808
19.7333
20.2896
20.8492
21.4117
21.9766
22.5432
23.1111
23.6794
24.2474
24.8125
25.3739
25.9305
26.4815
27.0257
27.562
28.0895
28.6072
29.1139
29.6087
30.0905
30.5585
31.0115
31.4486
31.869
32.2717
32.656
33.021
33.366
33.6903
33.9933
34.2744
34.5332
34.7692
34.9821
35.1715
35.3372
35.4789
35.5967
35.6904
35.76
35.8057
35.8276
35.8259
35.8009
35.7529
35.6823
35.5895
35.475
35.3393
35.183
35.0068
34.8114
34.5974
34.3654
34.1159
33.8504
33.5695
33.2736
32.9628
32.6401
32.3053
31.959
31.6023
31.2364
30.8617
30.4792
30.0897
29.694
29.2931
28.8877
28.4788
28.0678
27.6564
27.2471
26.8411
26.436
26.0331
25.6312
25.2303
24.8307
24.4337
24.0402
23.6493
23.2614
22.878
22.4995
22.1265
21.7584
21.3958
21.0397
20.6919
20.3533
20.0254
19.7125
19.4202
19.1551
18.9259
18.742
2.36592
1.0541
0.826887
0.766789
0.757849
0.772018
0.79937
0.835447
0.877867
0.925195
0.976491
1.03112
1.08864
1.14881
1.21147
1.27658
1.34416
1.41431
1.48713
1.56276
1.64136
1.72308
1.80809
1.89654
1.9886
2.08442
2.18417
2.28801
2.3961
2.5086
2.6257
2.74757
2.87439
3.00638
3.14374
3.2867
3.4355
3.59038
3.75163
3.91954
4.09441
4.27656
4.46634
4.66411
4.87024
5.08511
5.30912
5.54267
5.78616
6.04
6.30458
6.58028
6.86747
7.16648
7.47762
7.80114
8.13723
8.48602
8.84759
9.22197
9.60913
10.0091
10.4217
10.8471
11.2851
11.7355
12.1984
12.6734
13.1604
13.6591
14.1695
14.6911
15.2236
15.7668
16.3202
16.8834
17.456
18.0373
18.6268
19.2239
19.828
20.4384
21.0543
21.675
22.3001
22.9286
23.5601
24.1937
24.8287
25.4643
26.0976
26.7275
27.3528
27.9724
28.5852
29.19
29.7855
30.3707
30.9443
31.5051
32.0521
32.584
33.0997
33.5982
34.0784
34.5393
34.9798
35.3992
35.7964
36.1708
36.5214
36.8478
37.1492
37.4253
37.6755
37.8995
38.0969
38.2677
38.4115
38.5283
38.618
38.6809
38.717
38.7266
38.7099
38.6672
38.5991
38.5061
38.3886
38.2472
38.0825
37.8951
37.686
37.4561
37.206
36.9364
36.6473
36.3416
36.0195
35.6817
35.3288
34.9625
34.5836
34.1927
33.7911
33.3796
32.9592
32.5308
32.0953
31.6536
31.2066
30.7551
30.3004
29.8434
29.3856
28.9287
28.4738
28.0202
27.5683
27.1182
26.6703
26.2246
25.7817
25.3425
24.9069
24.4755
24.0491
23.6281
23.2134
22.8048
22.4028
22.0089
21.6243
21.2503
20.8888
20.5434
20.2188
19.9209
19.6545
19.4253
2.49269
1.11156
0.86519
0.796131
0.781436
0.791109
0.814497
0.846843
0.885663
0.929504
0.977452
1.0289
1.08347
1.14089
1.20104
1.26388
1.32942
1.39775
1.46895
1.54318
1.62058
1.70129
1.7855
1.87337
1.96506
2.06075
2.16062
2.26485
2.37362
2.48712
2.60555
2.72912
2.85806
2.99259
3.13297
3.27945
3.43231
3.59186
3.75841
3.93228
4.11383
4.30342
4.50145
4.7083
4.92439
5.15015
5.386
5.63238
5.88973
6.15846
6.43901
6.73178
7.03716
7.35552
7.6872
8.03249
8.39165
8.7649
9.15241
9.55433
9.97077
10.4018
10.8475
11.308
11.7832
12.273
12.7774
13.2963
13.8295
14.3768
14.9378
15.5123
16.1
16.7004
17.3131
17.9376
18.5732
19.2195
19.8757
20.5411
21.215
21.8965
22.5848
23.279
23.9784
24.6819
25.3889
26.0982
26.809
27.5195
28.2264
28.9287
29.6254
30.315
30.9964
31.668
32.3287
32.977
33.6117
34.2313
34.8347
35.4204
35.9874
36.5343
37.06
37.5635
38.0435
38.4992
38.9296
39.3337
39.7108
40.0602
40.3812
40.6735
40.9365
41.1699
41.3734
41.5469
41.6901
41.8031
41.8858
41.9386
41.9616
41.955
41.9194
41.8551
41.7626
41.6427
41.4959
41.3231
41.1248
40.9012
40.6544
40.3851
40.0941
39.7822
39.4502
39.0998
38.7318
38.3472
37.9469
37.5322
37.1043
36.6639
36.2123
35.7506
35.2796
34.8004
34.3141
33.8216
33.3238
32.8217
32.3164
31.809
31.3007
30.7928
30.2863
29.7813
29.2782
28.7773
28.2792
27.7842
27.2927
26.8054
26.3227
25.845
25.3732
24.9077
24.4491
23.9978
23.5545
23.1204
22.6967
22.285
21.8873
21.5067
21.147
20.8132
20.5076
20.2342
2.56886
1.15019
0.890115
0.813972
0.79447
0.800284
0.820235
0.849336
0.885016
0.925803
0.970795
1.01942
1.0713
1.12621
1.18404
1.24475
1.30836
1.37494
1.4446
1.51746
1.59367
1.6734
1.75682
1.8441
1.93543
2.03099
2.13098
2.2356
2.34505
2.45956
2.57936
2.70469
2.83579
2.97296
3.11646
3.26661
3.42373
3.58817
3.76028
3.94046
4.1291
4.32662
4.53346
4.75008
4.97694
5.21452
5.46331
5.72378
5.99644
6.28177
6.58024
6.89231
7.21844
7.55904
7.91454
8.28528
8.67163
9.07387
9.4923
9.92713
10.3786
10.8468
11.332
11.8343
12.3537
12.8901
13.4437
14.0141
14.6013
15.205
15.825
16.4607
17.1119
17.778
18.4585
19.1528
19.8601
20.5799
21.3112
22.0533
22.8052
23.5661
24.3349
25.1106
25.8921
26.6785
27.4686
28.2612
29.0552
29.8458
30.632
31.4123
32.1854
32.9498
33.704
34.4464
35.1755
35.8898
36.5879
37.2682
37.9294
38.57
39.1887
39.7842
40.3551
40.9004
41.4189
41.9095
42.3712
42.803
43.204
43.5735
43.9111
44.2162
44.4884
44.7274
44.933
45.105
45.2434
45.3481
45.4192
45.4571
45.4621
45.4347
45.3752
45.2841
45.1622
45.0104
44.8294
44.6202
44.3834
44.1199
43.831
43.5179
43.1816
42.8229
42.4432
42.0436
41.6254
41.1897
40.7376
40.2703
39.7892
39.2952
38.7897
38.2736
37.7482
37.2146
36.6737
36.1267
35.5746
35.0185
34.4593
33.8982
33.3364
32.7748
32.2146
31.6561
31.0998
30.5464
29.9963
29.45
28.908
28.3709
27.8393
27.3136
26.7947
26.283
25.7792
25.2837
24.7974
24.3215
23.8573
23.4062
22.9703
22.5524
22.1556
21.7838
21.4379
21.1211
2.60077
1.17229
0.903479
0.822008
0.798576
0.801096
0.81805
0.8443
0.877211
0.915295
0.957659
1.00375
1.05321
1.10584
1.16154
1.22027
1.28207
1.34702
1.41521
1.48678
1.56188
1.6407
1.72339
1.81016
1.9012
1.99673
2.09695
2.20209
2.3124
2.42812
2.54952
2.67688
2.81049
2.95067
3.09776
3.25212
3.41412
3.58416
3.76267
3.95009
4.14689
4.35355
4.57058
4.79851
5.03787
5.28921
5.5531
5.83009
6.12075
6.42563
6.7453
7.08029
7.43111
7.79828
8.18227
8.58355
9.00253
9.43961
9.89514
10.3694
10.8628
11.3755
11.9076
12.4594
13.0308
13.6221
14.2329
14.8634
15.5131
16.182
16.8695
17.5752
18.2986
19.039
19.7959
20.5684
21.3557
22.1571
22.9716
23.7982
24.6358
25.4834
26.3399
27.2039
28.0744
28.9501
29.8295
30.7115
31.5915
32.4665
33.3353
34.1965
35.0485
35.8896
36.718
37.5318
38.3296
39.1095
39.8701
40.6098
41.327
42.0201
42.6877
43.3285
43.9411
44.5242
45.0769
45.5979
46.0862
46.5405
46.96
47.3442
47.6926
48.0046
48.2801
48.5186
48.7201
48.8845
49.0119
49.102
49.1552
49.172
49.1529
49.0985
49.0093
48.886
48.7294
48.5405
48.3202
48.0695
47.7893
47.4808
47.1452
46.7837
46.3975
45.9879
45.556
45.1032
44.6309
44.1403
43.6326
43.1093
42.5716
42.0208
41.4581
40.8848
40.3021
39.7111
39.1131
38.5091
37.9003
37.2877
36.6724
36.0555
35.4381
34.8213
34.206
33.5928
32.9823
32.3752
31.7721
31.1735
30.58
29.9923
29.4109
28.8364
28.2695
27.7108
27.1609
26.6205
26.0904
25.5719
25.0661
24.5745
24.0993
23.6427
23.2075
22.7965
22.4098
22.0505
2.59479
1.18012
0.90704
0.821875
0.795343
0.795091
0.809445
0.833189
0.863655
0.899348
0.939385
0.983225
1.03054
1.08114
1.13494
1.19192
1.25212
1.31562
1.38254
1.45302
1.52722
1.60534
1.68755
1.77408
1.86514
1.96097
2.06182
2.16794
2.27961
2.39713
2.5208
2.65096
2.78795
2.93215
3.08395
3.24378
3.41208
3.58931
3.77598
3.97261
4.17975
4.39797
4.62785
4.87001
5.12507
5.39368
5.67649
5.97416
6.28733
6.61667
6.9628
7.32635
7.70792
8.10808
8.52741
8.96643
9.42563
9.90549
10.4064
10.9288
11.4729
12.0391
12.6275
13.2383
13.8715
14.5272
15.2052
15.9054
16.6276
17.3712
18.136
18.9212
19.7261
20.5499
21.3919
22.2511
23.1266
24.0175
24.9225
25.8406
26.7706
27.7112
28.6611
29.619
30.5835
31.5531
32.5263
33.4987
34.4655
35.4254
36.3769
37.3184
38.2482
39.1642
40.0641
40.9461
41.8086
42.6498
43.4679
44.2614
45.0285
45.7677
46.4774
47.1563
47.803
48.4163
48.995
49.5383
50.0452
50.5134
50.9428
51.3329
51.6833
51.9936
52.2635
52.493
52.6818
52.8302
52.9381
53.0058
53.0336
53.0221
52.9718
52.8836
52.758
52.596
52.3985
52.1666
51.9012
51.6036
51.2748
50.9162
50.5291
50.1147
49.6745
49.2098
48.7219
48.2124
47.6826
47.1339
46.5678
45.9857
45.3889
44.7788
44.1568
43.5242
42.8823
42.2324
41.5756
40.9132
40.2463
39.5761
38.9036
38.23
37.5563
36.8836
36.2128
35.5446
34.8797
34.2188
33.5627
32.9119
32.267
31.6286
30.9975
30.3742
29.7593
29.1536
28.5577
27.9724
27.3984
26.837
26.2894
25.7571
25.242
24.7462
24.2719
23.8215
23.3942
22.9932
2.55724
1.17584
0.902445
0.815104
0.786272
0.783769
0.795922
0.817507
0.845857
0.879487
0.917528
0.959456
1.00496
1.05387
1.10612
1.1617
1.22066
1.2831
1.34916
1.41898
1.49276
1.5707
1.65302
1.73995
1.83175
1.9287
2.03108
2.13921
2.2534
2.37401
2.50141
2.636
2.7782
2.92845
3.08723
3.25503
3.4324
3.61988
3.81807
4.0276
4.2491
4.48325
4.73075
4.9923
5.26865
5.56055
5.86874
6.19399
6.53707
6.89872
7.27968
7.68064
8.10224
8.54512
9.0099
9.49718
10.0075
10.5414
11.0992
11.6814
12.2882
12.9199
13.5768
14.2587
14.9659
15.698
16.4551
17.2367
18.0426
18.8722
19.725
20.6002
21.4966
22.4131
23.349
24.303
25.2742
26.2613
27.263
28.2782
29.3054
30.3432
31.3903
32.4451
33.506
34.5715
35.6367
36.6952
37.7457
38.7864
39.8156
40.8316
41.833
42.8172
43.7807
44.7223
45.6402
46.5328
47.3981
48.2346
49.0405
49.8143
50.5544
51.2594
51.9279
52.5589
53.1511
53.7035
54.2153
54.685
55.1123
55.4965
55.8374
56.1346
56.388
56.5975
56.7632
56.8853
56.964
56.9997
56.9928
56.9441
56.8543
56.7241
56.5546
56.3465
56.1012
55.8196
55.503
55.1528
54.7701
54.3564
53.9131
53.4416
52.9434
52.42
51.873
51.3038
50.7139
50.1049
49.4783
48.8355
48.1781
47.5075
46.8252
46.1324
45.4307
44.7212
44.0054
43.2844
42.5594
41.8316
41.1021
40.3721
39.6425
38.9145
38.189
37.4666
36.7483
36.0347
35.3266
34.6246
33.9293
33.2414
32.5615
31.8904
31.2286
30.5769
29.9359
29.3063
28.6892
28.0856
27.4968
26.9243
26.3696
25.8348
25.3217
24.8321
24.3649
23.9236
2.49435
1.16151
0.891203
0.803101
0.772778
0.768585
0.778994
0.79884
0.825489
0.857484
0.893977
0.934469
0.978671
1.02643
1.0777
1.13249
1.19089
1.253
1.31898
1.38902
1.46334
1.54216
1.62576
1.71442
1.80844
1.90815
2.01391
2.12609
2.24509
2.37135
2.50532
2.6475
2.7984
2.95857
3.12858
3.30905
3.50061
3.70394
3.91975
4.14879
4.39182
4.64964
4.92307
5.21294
5.52011
5.84544
6.18979
6.55404
6.93905
7.34569
7.77479
8.2271
8.70312
9.20353
9.72898
10.2801
10.8574
11.4613
12.0922
12.7504
13.4362
14.1496
14.8908
15.6596
16.4558
17.2793
18.1296
19.0062
19.9087
20.8363
21.7886
22.7652
23.7627
24.7806
25.8178
26.8732
27.9455
29.0334
30.1353
31.25
32.3758
33.5115
34.6553
35.8058
36.9615
38.1154
39.2611
40.397
41.5211
42.6316
43.7264
44.8038
45.8616
46.8976
47.9093
48.8948
49.8522
50.7797
51.6756
52.5381
53.3656
54.1567
54.9097
55.6234
56.2965
56.9279
57.5165
58.0615
58.5619
59.017
59.4262
59.789
60.1052
60.3747
60.5974
60.7733
60.9028
60.9861
61.0235
61.0158
60.9634
60.8672
60.7281
60.5469
60.3248
60.0628
59.7621
59.4242
59.0502
58.6415
58.1997
57.7262
57.2225
56.6902
56.1308
55.546
54.9374
54.3065
53.6549
52.9843
52.2963
51.5924
50.8741
50.1429
49.4005
48.6481
47.8872
47.1192
46.3453
45.5669
44.7852
44.0014
43.2165
42.4318
41.6482
40.8669
40.0886
39.3143
38.5447
37.7806
37.0227
36.2717
35.5283
34.793
34.0666
33.3497
32.643
31.9472
31.263
30.5911
29.9325
29.2883
28.6597
28.0481
27.4551
26.8824
26.3314
25.8038
25.2982
24.8183
2.41229
1.13896
0.874648
0.787153
0.756219
0.751024
0.760305
0.779015
0.804587
0.835609
0.871272
0.911107
0.954855
1.0024
1.0537
1.10883
1.16788
1.23102
1.29843
1.37036
1.44707
1.52886
1.61606
1.70901
1.80811
1.91378
2.02647
2.14667
2.27488
2.41166
2.5576
2.71333
2.87951
3.05686
3.2461
3.44793
3.66313
3.89255
4.13705
4.39754
4.67492
4.97013
5.28412
5.61785
5.97227
6.34834
6.74702
7.16924
7.61593
8.08803
8.58653
9.11257
9.66539
10.2459
10.8549
11.4928
12.16
12.8567
13.5833
14.3398
15.1261
15.9422
16.7878
17.6626
18.5662
19.4979
20.4572
21.4433
22.4553
23.4923
24.5532
25.6368
26.7413
27.8653
29.0074
30.1661
31.34
32.5276
33.7274
34.9378
36.1574
37.3849
38.6183
39.8563
41.0881
42.3096
43.5186
44.7132
45.8913
47.0509
48.1899
49.3062
50.3979
51.4628
52.4987
53.5038
54.4761
55.4139
56.3155
57.1794
58.0039
58.7877
59.5295
60.2281
60.8823
61.4911
62.0537
62.5693
63.0372
63.4568
63.8278
64.1498
64.4227
64.6465
64.8214
64.9476
65.0253
65.0551
65.0376
64.9734
64.8633
64.7083
64.5092
64.2673
63.9836
63.6595
63.2962
62.8951
62.4577
61.9854
61.4798
60.9425
60.3751
59.7792
59.1565
58.5086
57.8372
57.1439
56.4305
55.6985
54.9496
54.1854
53.4075
52.6174
51.8167
51.0067
50.189
49.3649
48.5358
47.7029
46.8675
46.0307
45.1937
44.3576
43.5235
42.6922
41.8649
41.0421
40.2249
39.4139
38.6098
37.8134
37.0252
36.246
35.4764
34.7171
33.9686
33.2318
32.5073
31.7959
31.0985
30.4162
29.7502
29.1018
28.4724
27.8636
27.2767
26.7131
26.1711
25.6548
2.31318
1.10866
0.853253
0.767913
0.737489
0.732269
0.741374
0.759936
0.785493
0.816705
0.852819
0.893418
0.938288
0.98736
1.04066
1.0983
1.16044
1.22731
1.29919
1.37642
1.45935
1.54839
1.64398
1.7466
1.85678
1.97509
2.10215
2.23864
2.38524
2.54271
2.71184
2.89349
3.08855
3.29801
3.52298
3.76398
4.02202
4.2982
4.59359
4.90925
5.24625
5.60564
5.98847
6.39574
6.82846
7.28757
7.77398
8.28854
8.83205
9.40524
10.0088
10.6432
11.3085
12.0051
12.7332
13.4929
14.2843
15.1072
15.9614
16.8466
17.7624
18.7083
19.6836
20.6875
21.7193
22.7779
23.8624
24.9716
26.1044
27.2593
28.4352
29.6303
30.8432
32.0722
33.3158
34.5722
35.8401
37.1178
38.4039
39.6971
40.9953
42.2999
43.6008
44.8889
46.1631
47.4215
48.6617
49.8817
51.0796
52.2532
53.4006
54.52
55.6092
56.6666
57.6901
58.6781
59.6288
60.5407
61.4122
62.242
63.0287
63.7711
64.4682
65.1188
65.7222
66.2775
66.784
67.2412
67.6486
68.0058
68.3126
68.569
68.7749
68.9306
69.0363
69.0923
69.0992
69.0576
68.9683
68.8319
68.6495
68.4221
68.1507
67.8367
67.4811
67.0854
66.651
66.1793
65.6719
65.1302
64.556
63.9508
63.3163
62.6541
61.966
61.2537
60.5188
59.763
58.988
58.1954
57.387
56.5643
55.7288
54.8822
54.0259
53.1615
52.2902
51.4136
50.5328
49.6493
48.7641
47.8785
46.9936
46.1104
45.23
44.3533
43.4812
42.6146
41.7541
40.9006
40.0547
39.2172
38.3886
37.5697
36.761
35.9631
35.1768
34.4027
33.6416
32.8941
32.1612
31.4439
30.7434
30.0609
29.3978
28.7555
28.1351
27.5378
26.9619
26.412
2.21654
1.07657
0.831042
0.749171
0.720682
0.716982
0.727607
0.747893
0.775507
0.809209
0.84833
0.892533
0.941696
0.995841
1.0551
1.11969
1.18989
1.26608
1.34872
1.4383
1.53543
1.64079
1.75489
1.87846
2.01233
2.15736
2.31448
2.48467
2.66893
2.86836
3.08405
3.31718
3.56894
3.84053
4.13318
4.44799
4.78613
5.14879
5.53712
5.95225
6.39521
6.867
7.36853
7.90061
8.46398
9.05925
9.68694
10.3475
11.0411
11.768
12.5282
13.3216
14.148
15.0069
15.8978
16.8204
17.7739
18.7575
19.7705
20.812
21.8809
22.9763
24.0969
25.2417
26.4093
27.5985
28.8079
30.0361
31.2818
32.5434
33.8194
35.1084
36.4088
37.719
39.0375
40.3629
41.694
43.0291
44.3668
45.7089
47.0454
48.3651
49.6685
50.9534
52.2178
53.4599
54.6778
55.8696
57.0336
58.1679
59.271
60.341
61.3764
62.3755
63.3368
64.2589
65.1402
65.9796
66.7758
67.5277
68.2341
68.8941
69.507
70.0718
70.588
71.055
71.4722
71.8395
72.1564
72.4229
72.6389
72.8046
72.92
72.9856
73.0017
72.9689
72.8877
72.7589
72.5834
72.362
72.0957
71.7857
71.4331
71.0392
70.6052
70.1327
69.6229
69.0774
68.4978
67.8855
67.2423
66.5697
65.8694
65.1431
64.3924
63.619
62.8246
62.0109
61.1794
60.3318
59.4697
58.5947
57.7084
56.8121
55.9075
54.9959
54.0786
53.1571
52.2326
51.3063
50.3793
49.4529
48.528
47.6058
46.687
45.7727
44.8638
43.9609
43.0649
42.1764
41.2962
40.4248
39.5629
38.7111
37.87
37.0402
36.2223
35.4171
34.6251
33.8472
33.0842
32.3371
31.607
30.8951
30.2026
29.5309
28.881
28.2539
27.6481
27.0684
2.13094
1.04504
0.81022
0.733686
0.709362
0.709701
0.724657
0.749802
0.782976
0.823086
0.869608
0.922357
0.981369
1.04688
1.11931
1.19897
1.28642
1.38236
1.48756
1.60289
1.72931
1.86785
2.0196
2.18574
2.36757
2.56644
2.78377
3.02104
3.27973
3.56138
3.8675
4.1996
4.55913
4.9475
5.36601
5.81585
6.29808
6.81367
7.36343
7.94802
8.56793
9.22349
9.91486
10.642
11.4048
12.2028
13.0356
13.9026
14.803
15.7359
16.7004
17.6953
18.7196
19.772
20.8513
21.9561
23.0852
24.2371
25.4105
26.604
27.8164
29.0461
30.292
31.5525
32.8263
34.1121
35.4087
36.7147
38.0287
39.3495
40.676
42.0069
43.3408
44.6769
46.0143
47.3508
48.6881
50.0235
51.3482
52.6518
53.9362
55.1989
56.4387
57.6542
58.8437
60.0057
61.1387
62.2413
63.312
64.3493
65.3519
66.3185
67.2477