/*--------------------------------*- C++ -*----------------------------------*\
  =========                 |
  \\      /  F ield         | OpenFOAM: The Open Source CFD Toolbox
   \\    /   O peration     | Website:  https://openfoam.org
    \\  /    A nd           | Version:  7
     \\/     M anipulation  |
\*---------------------------------------------------------------------------*/
FoamFile
{
    version     2.0;
    format      ascii;
    class       surfaceScalarField;
    location    "0.23";
    object      phi;
}
// * * * * * * * * * * * * * * * * * * * * * * * * * * * * * * * * * * * * * //

dimensions      [0 3 -1 0 0 0 0];

internalField   nonuniform List<scalar> 
24170
(
1.42871e-06
1.65495e-07
1.33476e-06
9.39456e-08
1.25536e-06
7.93996e-08
1.18986e-06
6.55006e-08
1.13933e-06
5.05322e-08
1.09998e-06
3.93541e-08
1.06888e-06
3.10996e-08
1.04399e-06
2.4886e-08
1.02375e-06
2.02385e-08
1.00694e-06
1.68165e-08
9.92665e-07
1.42702e-08
9.80354e-07
1.2311e-08
9.69606e-07
1.0748e-08
9.60131e-07
9.47452e-09
9.51739e-07
8.39271e-09
9.4415e-07
7.58847e-09
9.37398e-07
6.75267e-09
7.16872e-09
9.30229e-07
1.67172e-06
2.02403e-07
1.63059e-06
1.35078e-07
1.58829e-06
1.21691e-07
1.55016e-06
1.03636e-07
1.51646e-06
8.42329e-08
1.48629e-06
6.95195e-08
1.45916e-06
5.82325e-08
1.43499e-06
4.90563e-08
1.41363e-06
4.15985e-08
1.3948e-06
3.56444e-08
1.37819e-06
3.08836e-08
1.36349e-06
2.70121e-08
1.35043e-06
2.38036e-08
1.33879e-06
2.11172e-08
1.32838e-06
1.88047e-08
1.31901e-06
1.69575e-08
1.31068e-06
1.50836e-08
1.46587e-08
1.30319e-06
1.78132e-06
2.52338e-07
1.75687e-06
1.59533e-07
1.73622e-06
1.42336e-07
1.71736e-06
1.22494e-07
1.69924e-06
1.02359e-07
1.68164e-06
8.7121e-08
1.66465e-06
7.52168e-08
1.64856e-06
6.51485e-08
1.63355e-06
5.66105e-08
1.61968e-06
4.95087e-08
1.60696e-06
4.36087e-08
1.59532e-06
3.86483e-08
1.5847e-06
3.44241e-08
1.57502e-06
3.08005e-08
1.56618e-06
2.76427e-08
1.55818e-06
2.49608e-08
1.55083e-06
2.24327e-08
2.06287e-08
1.54486e-06
1.91834e-06
2.9669e-07
1.89273e-06
1.85147e-07
1.87641e-06
1.58653e-07
1.86341e-06
1.35499e-07
1.85159e-06
1.14171e-07
1.8405e-06
9.82204e-08
1.82993e-06
8.57849e-08
1.81986e-06
7.52181e-08
1.81032e-06
6.61528e-08
1.80133e-06
5.84916e-08
1.79292e-06
5.20168e-08
1.78509e-06
4.6484e-08
1.77781e-06
4.17036e-08
1.77107e-06
3.75433e-08
1.76483e-06
3.38823e-08
1.75912e-06
3.06686e-08
1.75383e-06
2.77179e-08
2.51064e-08
1.74936e-06
2.0682e-06
3.32049e-07
2.04092e-06
2.12433e-07
2.02436e-06
1.75213e-07
2.01238e-06
1.47481e-07
2.00254e-06
1.24012e-07
1.99408e-06
1.06678e-07
1.98655e-06
9.33096e-08
1.97968e-06
8.20945e-08
1.97332e-06
7.25149e-08
1.96741e-06
6.43953e-08
1.96193e-06
5.74942e-08
1.95686e-06
5.15625e-08
1.95215e-06
4.64088e-08
1.9478e-06
4.18946e-08
1.94378e-06
3.79018e-08
1.94011e-06
3.43429e-08
1.93672e-06
3.11009e-08
2.80867e-08
1.93374e-06
2.22664e-06
3.59952e-07
2.19981e-06
2.39262e-07
2.18265e-06
1.92371e-07
2.1704e-06
1.59739e-07
2.16084e-06
1.33567e-07
2.15319e-06
1.14327e-07
2.14687e-06
9.96301e-08
2.14145e-06
8.75105e-08
2.1367e-06
7.72717e-08
2.13247e-06
6.8625e-08
2.12868e-06
6.12806e-08
2.12528e-06
5.49684e-08
2.1222e-06
4.94827e-08
2.11942e-06
4.46718e-08
2.11692e-06
4.04113e-08
2.11466e-06
3.65946e-08
2.11263e-06
3.31298e-08
2.98925e-08
2.11083e-06
2.39441e-06
3.81902e-07
2.36954e-06
2.64131e-07
2.35226e-06
2.0965e-07
2.33953e-06
1.72472e-07
2.32967e-06
1.43426e-07
2.32203e-06
1.2197e-07
2.31601e-06
1.05643e-07
2.31114e-06
9.23803e-08
2.30711e-06
8.13106e-08
2.30371e-06
7.20218e-08
2.30083e-06
6.41623e-08
2.29837e-06
5.74297e-08
2.29625e-06
5.15957e-08
2.29443e-06
4.64896e-08
2.29287e-06
4.19756e-08
2.29153e-06
3.79348e-08
2.29038e-06
3.42799e-08
3.0891e-08
2.28938e-06
2.57276e-06
3.98931e-07
2.55055e-06
2.86346e-07
2.5337e-06
2.26491e-07
2.52074e-06
1.85439e-07
2.51052e-06
1.53648e-07
2.50261e-06
1.29873e-07
2.49652e-06
1.1174e-07
2.49174e-06
9.71573e-08
2.48794e-06
8.51076e-08
2.4849e-06
7.50617e-08
2.48246e-06
6.66033e-08
2.4805e-06
5.93917e-08
2.47892e-06
5.31707e-08
2.47767e-06
4.77477e-08
2.47667e-06
4.29714e-08
2.47589e-06
3.87131e-08
2.47529e-06
3.48807e-08
3.13652e-08
2.47482e-06
2.76268e-06
4.11916e-07
2.74337e-06
3.05664e-07
2.72747e-06
2.42386e-07
2.71468e-06
1.98225e-07
2.70432e-06
1.64009e-07
2.69619e-06
1.38002e-07
2.68992e-06
1.18018e-07
2.68505e-06
1.02021e-07
2.68127e-06
8.88899e-08
2.67834e-06
7.79961e-08
2.67607e-06
6.88648e-08
2.67435e-06
6.11167e-08
2.67305e-06
5.44659e-08
2.6721e-06
4.86964e-08
2.67144e-06
4.36399e-08
2.67099e-06
3.91576e-08
2.67072e-06
3.51485e-08
3.15106e-08
2.67058e-06
2.96513e-06
4.21678e-07
2.94871e-06
3.22077e-07
2.93416e-06
2.5694e-07
2.92198e-06
2.10402e-07
2.91182e-06
1.74166e-07
2.90368e-06
1.46148e-07
2.89731e-06
1.24386e-07
2.89236e-06
1.06968e-07
2.88854e-06
9.2714e-08
2.88562e-06
8.09211e-08
2.88341e-06
7.10676e-08
2.88179e-06
6.27403e-08
2.88063e-06
5.56248e-08
2.87984e-06
4.94824e-08
2.87936e-06
4.41277e-08
2.8791e-06
3.94108e-08
2.87903e-06
3.52204e-08
3.14564e-08
2.87909e-06
3.18114e-06
4.28944e-07
3.1675e-06
3.35721e-07
3.15452e-06
2.69917e-07
3.1433e-06
2.21626e-07
3.1337e-06
1.83759e-07
3.12583e-06
1.54017e-07
3.11958e-06
1.30636e-07
3.11469e-06
1.11865e-07
3.11089e-06
9.65086e-08
3.108e-06
8.38132e-08
3.10584e-06
7.32232e-08
3.10429e-06
6.42988e-08
3.10321e-06
5.67011e-08
3.10252e-06
5.01712e-08
3.10214e-06
4.45073e-08
3.102e-06
3.95486e-08
3.10205e-06
3.51727e-08
3.12788e-08
3.10223e-06
2.86573e-06
4.33627e-07
2.85621e-06
3.45241e-07
2.84652e-06
2.79609e-07
2.83793e-06
2.30218e-07
2.83049e-06
1.91195e-07
2.82429e-06
1.6022e-07
2.81929e-06
1.35632e-07
2.81535e-06
1.15807e-07
2.81229e-06
9.95699e-08
2.80996e-06
8.61434e-08
2.80824e-06
7.49489e-08
2.807e-06
6.5529e-08
2.80618e-06
5.75286e-08
2.80567e-06
5.06738e-08
2.80543e-06
4.47506e-08
2.80539e-06
3.95888e-08
2.8055e-06
3.50595e-08
3.10494e-08
2.80573e-06
3.49499e-06
4.37718e-07
3.48606e-06
3.54169e-07
3.47655e-06
2.89113e-07
3.46791e-06
2.38859e-07
3.46033e-06
1.98783e-07
3.45393e-06
1.66618e-07
3.44874e-06
1.4082e-07
3.44463e-06
1.19914e-07
3.44145e-06
1.02757e-07
3.43903e-06
8.85557e-08
3.43727e-06
7.67135e-08
3.43604e-06
6.6759e-08
3.43525e-06
5.83218e-08
3.43481e-06
5.11136e-08
3.43465e-06
4.49083e-08
3.43471e-06
3.95258e-08
3.43494e-06
3.48282e-08
3.06946e-08
3.4353e-06
4.26204e-06
4.41103e-07
4.25417e-06
3.62038e-07
4.24539e-06
2.97894e-07
4.23724e-06
2.47007e-07
4.23003e-06
2.05994e-07
4.22392e-06
1.72729e-07
4.21897e-06
1.45773e-07
4.21507e-06
1.23805e-07
4.2121e-06
1.05734e-07
4.2099e-06
9.07569e-08
4.20835e-06
7.8263e-08
4.20734e-06
6.7769e-08
4.20677e-06
5.8891e-08
4.20655e-06
5.13271e-08
4.20662e-06
4.48391e-08
4.20691e-06
3.92371e-08
4.20737e-06
3.43729e-08
3.01208e-08
4.20794e-06
5.19701e-06
4.43699e-07
5.19069e-06
3.68365e-07
5.1833e-06
3.0528e-07
5.17636e-06
2.53951e-07
5.17024e-06
2.12105e-07
5.16512e-06
1.77855e-07
5.16104e-06
1.49847e-07
5.15796e-06
1.26892e-07
5.15573e-06
1.07964e-07
5.15422e-06
9.22613e-08
5.15332e-06
7.91616e-08
5.15292e-06
6.81699e-08
5.15292e-06
5.889e-08
5.15324e-06
5.1007e-08
5.15381e-06
4.42706e-08
5.15457e-06
3.84808e-08
5.15546e-06
3.34795e-08
2.91363e-08
5.15645e-06
6.33668e-06
4.45416e-07
6.33239e-06
3.72648e-07
6.32727e-06
3.10402e-07
6.32252e-06
2.58707e-07
6.31851e-06
2.16108e-07
6.31536e-06
1.81003e-07
6.31311e-06
1.52104e-07
6.31169e-06
1.28307e-07
6.31101e-06
1.08652e-07
6.31092e-06
9.23438e-08
6.31133e-06
7.87507e-08
6.31214e-06
6.73652e-08
6.31325e-06
5.77793e-08
6.31459e-06
4.96655e-08
6.3161e-06
4.2762e-08
6.31772e-06
3.68585e-08
6.31941e-06
3.17873e-08
2.74141e-08
6.32114e-06
7.72591e-06
4.46095e-07
7.72435e-06
3.7421e-07
7.7227e-06
3.12056e-07
7.72158e-06
2.59822e-07
7.72119e-06
2.16499e-07
7.72151e-06
1.80688e-07
7.72248e-06
1.51126e-07
7.72405e-06
1.26741e-07
7.7261e-06
1.06603e-07
7.72852e-06
8.99232e-08
7.73122e-06
7.60546e-08
7.7341e-06
6.44754e-08
7.73712e-06
5.47655e-08
7.7402e-06
4.6586e-08
7.7433e-06
3.96645e-08
7.74637e-06
3.37817e-08
7.7494e-06
2.87613e-08
2.44658e-08
7.75235e-06
9.41956e-06
4.45353e-07
9.42195e-06
3.71824e-07
9.42572e-06
3.08279e-07
9.43061e-06
2.54935e-07
9.43628e-06
2.1083e-07
9.44245e-06
1.74513e-07
9.44894e-06
1.44642e-07
9.45558e-06
1.20096e-07
9.46227e-06
9.99209e-08
9.46889e-06
8.3298e-08
9.47539e-06
6.95535e-08
9.48172e-06
5.81458e-08
9.48785e-06
4.8641e-08
9.49374e-06
4.069e-08
9.49939e-06
3.40123e-08
9.50479e-06
2.83824e-08
9.50994e-06
2.36191e-08
1.95847e-08
9.51482e-06
1.1485e-05
4.42024e-07
1.14942e-05
3.62627e-07
1.15074e-05
2.9511e-07
1.15226e-05
2.39668e-07
1.15387e-05
1.94745e-07
1.15549e-05
1.58331e-07
1.15707e-05
1.28794e-07
1.1586e-05
1.04866e-07
1.16004e-05
8.54645e-08
1.16141e-05
6.96769e-08
1.16268e-05
5.67734e-08
1.16388e-05
4.61852e-08
1.165e-05
3.74637e-08
1.16604e-05
3.02522e-08
1.16702e-05
2.42669e-08
1.16793e-05
1.92825e-08
1.16878e-05
1.51193e-08
1.16434e-08
1.16957e-05
8.41017e-06
4.37203e-07
8.4229e-06
3.49899e-07
8.44028e-06
2.7773e-07
8.45941e-06
2.20541e-07
8.4787e-06
1.75449e-07
8.49746e-06
1.39571e-07
8.51527e-06
1.10983e-07
8.53189e-06
8.82516e-08
8.54723e-06
7.01242e-08
8.56133e-06
5.55755e-08
8.57427e-06
4.38336e-08
8.58614e-06
3.43174e-08
8.59703e-06
2.65745e-08
8.60703e-06
2.02496e-08
8.61623e-06
1.50647e-08
8.62471e-06
1.08028e-08
8.63254e-06
7.29194e-09
4.40592e-09
8.63978e-06
7.324e-06
4.30493e-07
7.34145e-06
3.32445e-07
7.36413e-06
2.55049e-07
7.38789e-06
1.96785e-07
7.41106e-06
1.52273e-07
7.43308e-06
1.17557e-07
7.45352e-06
9.05389e-08
7.47219e-06
6.95837e-08
7.48911e-06
5.32026e-08
7.50442e-06
4.02624e-08
7.51828e-06
2.99761e-08
7.53083e-06
2.17677e-08
7.54221e-06
1.51906e-08
7.55256e-06
9.89996e-09
7.562e-06
5.63218e-09
7.57061e-06
2.1846e-09
7.57851e-06
-6.01446e-10
-2.84149e-09
7.58576e-06
6.37934e-06
4.21216e-07
6.40241e-06
3.09378e-07
6.43034e-06
2.27123e-07
6.45792e-06
1.69198e-07
6.48401e-06
1.26183e-07
6.50828e-06
9.32898e-08
6.53033e-06
6.8493e-08
6.55005e-06
4.9862e-08
6.56763e-06
3.56209e-08
6.58332e-06
2.45735e-08
6.59733e-06
1.59594e-08
6.60988e-06
9.22363e-09
6.62113e-06
3.93546e-09
6.63126e-06
-2.29576e-10
6.64041e-06
-3.51271e-09
6.64869e-06
-6.0961e-09
6.65621e-06
-8.12118e-09
-9.69022e-09
6.66306e-06
5.55841e-06
4.08272e-07
5.58816e-06
2.79629e-07
5.62106e-06
1.94221e-07
5.65161e-06
1.38648e-07
5.6797e-06
9.80923e-08
5.70523e-06
6.77603e-08
5.72783e-06
4.58928e-08
5.7476e-06
3.00908e-08
5.76492e-06
1.83033e-08
5.78013e-06
9.35904e-09
5.79353e-06
2.56446e-09
5.80535e-06
-2.60119e-09
5.81583e-06
-6.54066e-09
5.82515e-06
-9.54615e-09
5.83346e-06
-1.18282e-08
5.84091e-06
-1.35439e-08
5.8476e-06
-1.48138e-08
-1.57246e-08
5.85364e-06
4.84593e-06
3.89944e-07
4.88334e-06
2.42222e-07
4.92031e-06
1.57253e-07
4.95263e-06
1.06326e-07
4.98163e-06
6.90984e-08
5.00722e-06
4.21703e-08
5.02916e-06
2.39442e-08
5.04789e-06
1.13623e-08
5.06398e-06
2.21761e-09
5.07786e-06
-4.52391e-09
5.08988e-06
-9.45374e-09
5.10032e-06
-1.30437e-08
5.10943e-06
-1.56537e-08
5.11742e-06
-1.75327e-08
5.12445e-06
-1.88545e-08
5.13065e-06
-1.97481e-08
5.13615e-06
-2.03103e-08
-2.06115e-08
5.14103e-06
4.22833e-06
3.64295e-07
4.27411e-06
1.96436e-07
4.31341e-06
1.17954e-07
4.34585e-06
7.38881e-08
4.37432e-06
4.063e-08
4.39861e-06
1.78811e-08
4.41872e-06
3.82535e-09
4.43545e-06
-5.36352e-09
4.44951e-06
-1.18409e-08
4.46139e-06
-1.64067e-08
4.47147e-06
-1.95299e-08
4.48004e-06
-2.16195e-08
4.48737e-06
-2.29805e-08
4.49365e-06
-2.38127e-08
4.49905e-06
-2.42518e-08
4.5037e-06
-2.43983e-08
4.50771e-06
-2.43251e-08
-2.40888e-08
4.51119e-06
3.69254e-06
3.30394e-07
3.74698e-06
1.42001e-07
3.78676e-06
7.81747e-08
3.81773e-06
4.29142e-08
3.84419e-06
1.41722e-08
3.86592e-06
-3.84995e-09
3.88328e-06
-1.35338e-08
3.89731e-06
-1.93914e-08
3.90876e-06
-2.32966e-08
3.91814e-06
-2.57833e-08
3.92581e-06
-2.72029e-08
3.93209e-06
-2.78959e-08
3.93722e-06
-2.81073e-08
3.94139e-06
-2.79875e-08
3.94477e-06
-2.76352e-08
3.9475e-06
-2.71234e-08
3.94968e-06
-2.65011e-08
-2.58118e-08
3.9514e-06
3.22817e-06
2.87262e-07
3.28932e-06
8.08454e-08
3.32809e-06
3.94047e-08
3.35683e-06
1.41782e-08
3.38011e-06
-9.11448e-09
3.39819e-06
-2.19282e-08
3.41193e-06
-2.7268e-08
3.42248e-06
-2.99409e-08
3.43056e-06
-3.13793e-08
3.43665e-06
-3.18775e-08
3.44114e-06
-3.16913e-08
3.44434e-06
-3.10938e-08
3.4465e-06
-3.02671e-08
3.44782e-06
-2.93105e-08
3.44847e-06
-2.82841e-08
3.44858e-06
-2.72334e-08
3.44826e-06
-2.61832e-08
-2.51689e-08
3.44762e-06
2.8341e-06
2.2589e-07
2.8927e-06
2.22527e-08
2.92688e-06
5.21929e-09
2.9523e-06
-1.12415e-08
2.97131e-06
-2.81242e-08
2.98441e-06
-3.50221e-08
2.99305e-06
-3.59162e-08
2.99836e-06
-3.52505e-08
3.00115e-06
-3.41696e-08
3.00202e-06
-3.27407e-08
3.00142e-06
-3.10958e-08
2.99973e-06
-2.94042e-08
2.99723e-06
-2.77612e-08
2.99412e-06
-2.62003e-08
2.99057e-06
-2.47337e-08
2.98671e-06
-2.33771e-08
2.98266e-06
-2.21306e-08
-2.10089e-08
2.9785e-06
2.52607e-06
1.13625e-07
2.5595e-06
-1.1178e-08
2.57815e-06
-1.34271e-08
2.59239e-06
-2.54828e-08
2.6011e-06
-3.68358e-08
2.60365e-06
-3.75699e-08
2.60137e-06
-3.36426e-08
2.59577e-06
-2.96478e-08
2.58803e-06
-2.64262e-08
2.57903e-06
-2.374e-08
2.56936e-06
-2.14262e-08
2.55939e-06
-1.94372e-08
2.54936e-06
-1.77305e-08
2.53941e-06
-1.62555e-08
2.52965e-06
-1.49719e-08
2.52014e-06
-1.38694e-08
2.51097e-06
-1.29543e-08
-1.24852e-08
2.50244e-06
2.21496e-06
2.20379e-06
2.19036e-06
2.16488e-06
2.12804e-06
2.09047e-06
2.05683e-06
2.02718e-06
2.00075e-06
1.97701e-06
1.95559e-06
1.93615e-06
1.91842e-06
1.90216e-06
1.88719e-06
1.87332e-06
1.86037e-06
1.84788e-06
7.2267e-09
-7.2267e-09
1.5039e-08
-7.81235e-09
1.96989e-08
-4.65986e-09
2.04592e-08
-7.60256e-10
1.76845e-08
2.77468e-09
1.2087e-08
5.59745e-09
4.41783e-09
7.6692e-09
-4.72573e-09
9.14355e-09
-1.4945e-08
1.02193e-08
-2.59923e-08
1.10473e-08
-3.77169e-08
1.17245e-08
-5.00269e-08
1.231e-08
-6.28624e-08
1.28355e-08
-7.61794e-08
1.3317e-08
-8.99414e-08
1.3762e-08
-1.04116e-07
1.41746e-08
-1.18673e-07
1.45569e-08
-1.33584e-07
1.49111e-08
-1.48823e-07
1.52392e-08
-1.64366e-07
1.55433e-08
-1.80192e-07
1.58257e-08
-1.96281e-07
1.60888e-08
-2.12616e-07
1.63348e-08
-2.29182e-07
1.65662e-08
-2.45967e-07
1.67848e-08
-2.62959e-07
1.69927e-08
-2.80151e-07
1.71916e-08
-2.97534e-07
1.73829e-08
-3.15102e-07
1.75679e-08
-3.32849e-07
1.77476e-08
-3.50772e-07
1.79227e-08
-3.68866e-07
1.8094e-08
-3.87128e-07
1.82617e-08
-4.05554e-07
1.8426e-08
-4.24141e-07
1.85869e-08
-4.42885e-07
1.87442e-08
-4.61782e-07
1.88974e-08
-4.80828e-07
1.9046e-08
-5.00018e-07
1.91894e-08
-5.19344e-07
1.93267e-08
-5.38802e-07
1.9457e-08
-5.58381e-07
1.95795e-08
-5.78074e-07
1.96931e-08
-5.97871e-07
1.9797e-08
-6.17761e-07
1.98902e-08
-6.37733e-07
1.9972e-08
-6.57775e-07
2.00419e-08
-6.77875e-07
2.00994e-08
-6.98019e-07
2.01441e-08
-7.18194e-07
2.01753e-08
-7.38385e-07
2.0191e-08
-7.58573e-07
2.01878e-08
-7.78732e-07
2.01596e-08
-7.98833e-07
2.01002e-08
-8.18838e-07
2.00059e-08
-8.38719e-07
1.9881e-08
-8.58464e-07
1.97442e-08
-8.78105e-07
1.96413e-08
-8.97761e-07
1.96564e-08
-9.1764e-07
1.98787e-08
-9.37847e-07
2.02067e-08
-9.579e-07
2.00534e-08
-9.76741e-07
1.88406e-08
-9.94383e-07
1.76419e-08
-1.01282e-06
1.84368e-08
-1.03228e-06
1.94572e-08
-1.05383e-06
2.15504e-08
-1.06932e-06
1.5494e-08
-1.08679e-06
1.74706e-08
-1.10823e-06
2.14431e-08
-1.12377e-06
1.55378e-08
-1.13707e-06
1.32946e-08
-1.15399e-06
1.69269e-08
-1.17238e-06
1.83889e-08
-1.18614e-06
1.37567e-08
-1.20333e-06
1.71854e-08
-1.21738e-06
1.40525e-08
-1.23264e-06
1.52648e-08
-1.24713e-06
1.44923e-08
-1.25812e-06
1.09861e-08
-1.26934e-06
1.12225e-08
-1.27635e-06
7.00559e-09
-1.28439e-06
8.04409e-09
-1.29221e-06
7.82097e-09
-1.29956e-06
7.34281e-09
-1.30625e-06
6.68841e-09
-1.31218e-06
5.93408e-09
-1.31729e-06
5.11158e-09
-1.32153e-06
4.23414e-09
-1.32483e-06
3.30367e-09
-1.32715e-06
2.31829e-09
-1.32843e-06
1.28295e-09
-1.32857e-06
1.43461e-10
-1.32779e-06
-7.80962e-10
-1.32613e-06
-1.65876e-09
-1.32362e-06
-2.51103e-09
-1.32027e-06
-3.35337e-09
-1.31607e-06
-4.19525e-09
-1.31104e-06
-5.03906e-09
-1.30515e-06
-5.88502e-09
-1.29842e-06
-6.73234e-09
-1.29084e-06
-7.57992e-09
-1.28241e-06
-8.42642e-09
-1.27314e-06
-9.27057e-09
-1.26303e-06
-1.0111e-08
-1.25208e-06
-1.09463e-08
-1.24031e-06
-1.17752e-08
-1.22771e-06
-1.25963e-08
-1.2143e-06
-1.34083e-08
-1.20009e-06
-1.42099e-08
-1.18509e-06
-1.49998e-08
-1.16932e-06
-1.57769e-08
-1.15278e-06
-1.65398e-08
-1.13549e-06
-1.72875e-08
-1.11747e-06
-1.80188e-08
-1.09874e-06
-1.87328e-08
-1.07931e-06
-1.94284e-08
-1.05921e-06
-2.01047e-08
-1.03844e-06
-2.07606e-08
-1.01705e-06
-2.13954e-08
-9.95041e-07
-2.20082e-08
-9.72443e-07
-2.25982e-08
-9.49278e-07
-2.31648e-08
-9.2557e-07
-2.37074e-08
-9.01345e-07
-2.42254e-08
-8.76627e-07
-2.47183e-08
-8.51441e-07
-2.51857e-08
-8.25814e-07
-2.56271e-08
-7.99772e-07
-2.60423e-08
-7.73341e-07
-2.6431e-08
-7.46547e-07
-2.67932e-08
-7.19419e-07
-2.71288e-08
-6.91981e-07
-2.74377e-08
-6.64261e-07
-2.77199e-08
-6.36286e-07
-2.79756e-08
-6.0808e-07
-2.8205e-08
-5.79672e-07
-2.84085e-08
-5.51086e-07
-2.85862e-08
-5.22347e-07
-2.87386e-08
-4.93481e-07
-2.88662e-08
-4.64512e-07
-2.89694e-08
-4.35463e-07
-2.90489e-08
-4.06358e-07
-2.91051e-08
-3.77219e-07
-2.91388e-08
-3.48068e-07
-2.91505e-08
-3.18927e-07
-2.91409e-08
-2.89817e-07
-2.91107e-08
-2.60756e-07
-2.90605e-08
-2.31765e-07
-2.89909e-08
-2.02862e-07
-2.89033e-08
-1.74062e-07
-2.87996e-08
-1.45378e-07
-2.86838e-08
-1.16815e-07
-2.85633e-08
-8.83493e-08
-2.84658e-08
-5.991e-08
-2.84393e-08
-3.1542e-08
-2.8368e-08
-3.41715e-09
-2.81249e-08
2.43068e-08
-2.77239e-08
5.1761e-08
-2.74542e-08
7.95876e-08
-2.78265e-08
1.07171e-07
-2.75836e-08
1.33816e-07
-2.66445e-08
1.60449e-07
-2.6633e-08
1.86764e-07
-2.63153e-08
2.12752e-07
-2.59883e-08
2.38866e-07
-2.61134e-08
2.63768e-07
-2.49025e-08
2.88834e-07
-2.50658e-08
3.14082e-07
-2.52483e-08
3.38121e-07
-2.40384e-08
3.62775e-07
-2.46543e-08
3.87917e-07
-2.51416e-08
4.13054e-07
-2.5137e-08
4.37059e-07
-2.40051e-08
4.60253e-07
-2.31946e-08
4.83175e-07
-2.29221e-08
5.04366e-07
-2.11908e-08
5.21118e-07
-1.67518e-08
5.28686e-07
-7.56763e-09
1.50286e-08
5.13657e-07
3.57555e-09
-1.08022e-08
3.33153e-09
-7.56833e-09
4.07495e-11
-1.36907e-09
-5.2295e-09
4.51e-09
-1.21671e-08
9.71226e-09
-2.06542e-08
1.40845e-08
-3.05945e-08
1.76095e-08
-4.18302e-08
2.03793e-08
-5.41554e-08
2.25445e-08
-6.73674e-08
2.42593e-08
-8.12934e-08
2.56506e-08
-9.57949e-08
2.68115e-08
-1.10765e-07
2.78053e-08
-1.26121e-07
2.86734e-08
-1.41801e-07
2.94424e-08
-1.57757e-07
3.01299e-08
-1.73948e-07
3.07485e-08
-1.90345e-07
3.13081e-08
-2.06923e-07
3.18166e-08
-2.23661e-07
3.22812e-08
-2.40543e-07
3.27082e-08
-2.57558e-07
3.31035e-08
-2.74695e-07
3.34722e-08
-2.91948e-07
3.38191e-08
-3.09312e-07
3.41484e-08
-3.26783e-07
3.44636e-08
-3.44359e-07
3.47676e-08
-3.62039e-07
3.50631e-08
-3.79823e-07
3.53519e-08
-3.97711e-07
3.56356e-08
-4.15703e-07
3.59151e-08
-4.338e-07
3.6191e-08
-4.52002e-07
3.64636e-08
-4.70309e-07
3.67327e-08
-4.8872e-07
3.69978e-08
-5.07234e-07
3.72582e-08
-5.25849e-07
3.75128e-08
-5.44564e-07
3.77603e-08
-5.63374e-07
3.79993e-08
-5.82275e-07
3.82281e-08
-6.01263e-07
3.84451e-08
-6.20332e-07
3.86486e-08
-6.39476e-07
3.88368e-08
-6.58687e-07
3.90082e-08
-6.77958e-07
3.91614e-08
-6.97282e-07
3.92952e-08
-7.16648e-07
3.94087e-08
-7.3605e-07
3.95014e-08
-7.55479e-07
3.95725e-08
-7.74924e-07
3.96208e-08
-7.94377e-07
3.96442e-08
-8.13829e-07
3.96392e-08
-8.33271e-07
3.96016e-08
-8.52699e-07
3.95284e-08
-8.72115e-07
3.94215e-08
-8.91524e-07
3.92905e-08
-9.10934e-07
3.9154e-08
-9.30332e-07
3.90388e-08
-9.49649e-07
3.89739e-08
-9.68735e-07
3.89645e-08
-9.87428e-07
3.88994e-08
-1.00585e-06
3.84729e-08
-1.02453e-06
3.75248e-08
-1.04353e-06
3.66419e-08
-1.0616e-06
3.6502e-08
-1.07865e-06
3.65136e-08
-1.09328e-06
3.61747e-08
-1.11201e-06
3.42234e-08
-1.12814e-06
3.36078e-08
-1.14032e-06
3.36185e-08
-1.15612e-06
3.13384e-08
-1.17243e-06
2.96079e-08
-1.18479e-06
2.92864e-08
-1.19524e-06
2.8839e-08
-1.20854e-06
2.70495e-08
-1.21771e-06
2.63628e-08
-1.22824e-06
2.45836e-08
-1.23625e-06
2.32709e-08
-1.24325e-06
2.14961e-08
-1.25142e-06
1.91571e-08
-1.25768e-06
1.74801e-08
-1.26593e-06
1.52527e-08
-1.27204e-06
1.41504e-08
-1.27713e-06
1.29167e-08
-1.28136e-06
1.15693e-08
-1.2848e-06
1.01267e-08
-1.28747e-06
8.61147e-09
-1.2894e-06
7.04024e-09
-1.29059e-06
5.42371e-09
-1.29106e-06
3.77077e-09
-1.29083e-06
2.09244e-09
-1.28997e-06
4.17479e-10
-1.28855e-06
-1.27073e-09
-1.28643e-06
-2.90397e-09
-1.28355e-06
-4.54204e-09
-1.27987e-06
-6.19153e-09
-1.27537e-06
-7.84994e-09
-1.27005e-06
-9.51685e-09
-1.2639e-06
-1.1191e-08
-1.25691e-06
-1.28704e-08
-1.24909e-06
-1.45528e-08
-1.24043e-06
-1.62356e-08
-1.23095e-06
-1.79164e-08
-1.22062e-06
-1.95922e-08
-1.20947e-06
-2.12606e-08
-1.1975e-06
-2.29187e-08
-1.18471e-06
-2.45639e-08
-1.17112e-06
-2.61937e-08
-1.15672e-06
-2.78052e-08
-1.14153e-06
-2.9396e-08
-1.12557e-06
-3.09635e-08
-1.10884e-06
-3.25053e-08
-1.09136e-06
-3.40189e-08
-1.07315e-06
-3.55022e-08
-1.05421e-06
-3.6953e-08
-1.03458e-06
-3.83691e-08
-1.01426e-06
-3.97485e-08
-9.93271e-07
-4.10894e-08
-9.71642e-07
-4.23899e-08
-9.49389e-07
-4.36482e-08
-9.26535e-07
-4.48627e-08
-9.03101e-07
-4.60318e-08
-8.79112e-07
-4.71542e-08
-8.5459e-07
-4.82287e-08
-8.29561e-07
-4.92543e-08
-8.0405e-07
-5.02298e-08
-7.78081e-07
-5.11545e-08
-7.51681e-07
-5.20275e-08
-7.24875e-07
-5.28482e-08
-6.9769e-07
-5.36161e-08
-6.70152e-07
-5.43311e-08
-6.42287e-07
-5.4993e-08
-6.14123e-07
-5.56017e-08
-5.85686e-07
-5.61572e-08
-5.57002e-07
-5.66598e-08
-5.28097e-07
-5.711e-08
-4.98997e-07
-5.75083e-08
-4.69728e-07
-5.78553e-08
-4.40315e-07
-5.81517e-08
-4.10783e-07
-5.83985e-08
-3.81155e-07
-5.85968e-08
-3.51457e-07
-5.87476e-08
-3.2171e-07
-5.88521e-08
-2.91937e-07
-5.89115e-08
-2.6216e-07
-5.89272e-08
-2.32401e-07
-5.89006e-08
-2.02678e-07
-5.88329e-08
-1.73013e-07
-5.87256e-08
-1.43424e-07
-5.85801e-08
-1.13929e-07
-5.83988e-08
-8.45439e-08
-5.81845e-08
-5.52852e-08
-5.79425e-08
-2.61675e-08
-5.7681e-08
2.78304e-09
-5.74163e-08
3.15205e-08
-5.71768e-08
6.0088e-08
-5.69355e-08
8.8424e-08
-5.64609e-08
1.16526e-07
-5.58261e-08
1.44418e-07
-5.53462e-08
1.71724e-07
-5.5133e-08
1.98366e-07
-5.42256e-08
2.25103e-07
-5.33812e-08
2.52456e-07
-5.39857e-08
2.79354e-07
-5.32136e-08
3.05354e-07
-5.19878e-08
3.31312e-07
-5.20713e-08
3.58124e-07
-5.17145e-08
3.84476e-07
-5.14183e-08
4.10415e-07
-5.11869e-08
4.36187e-07
-4.98107e-08
4.61465e-07
-4.99325e-08
4.86598e-07
-5.02747e-08
5.11108e-07
-4.96473e-08
5.34885e-07
-4.77814e-08
5.57879e-07
-4.61884e-08
5.80821e-07
-4.58646e-08
6.02353e-07
-4.27228e-08
6.20889e-07
-3.52879e-08
6.35079e-07
-2.17576e-08
4.7483e-09
6.45359e-07
-2.45615e-09
-8.3461e-09
-8.93837e-09
-1.08611e-09
-1.68447e-08
6.53726e-09
-2.56093e-08
1.32746e-08
-3.50765e-08
1.91795e-08
-4.52662e-08
2.42742e-08
-5.62321e-08
2.85755e-08
-6.79912e-08
3.21384e-08
-8.05037e-08
3.50569e-08
-9.36882e-08
3.74438e-08
-1.07446e-07
3.94085e-08
-1.2168e-07
4.10449e-08
-1.36301e-07
4.24273e-08
-1.51239e-07
4.36112e-08
-1.66434e-07
4.46376e-08
-1.81841e-07
4.55368e-08
-1.97424e-07
4.63316e-08
-2.13156e-07
4.70401e-08
-2.29017e-07
4.76768e-08
-2.44989e-07
4.8254e-08
-2.61063e-07
4.8782e-08
-2.7723e-07
4.927e-08
-2.93484e-07
4.97259e-08
-3.09821e-07
5.01563e-08
-3.26239e-07
5.0567e-08
-3.42739e-07
5.09629e-08
-3.59319e-07
5.13478e-08
-3.7598e-07
5.17247e-08
-3.92725e-07
5.20962e-08
-4.09553e-07
5.24637e-08
-4.26466e-07
5.28283e-08
-4.43465e-07
5.31904e-08
-4.60552e-07
5.35498e-08
-4.77725e-07
5.39061e-08
-4.94985e-07
5.4258e-08
-5.12331e-07
5.46043e-08
-5.29762e-07
5.49433e-08
-5.47274e-07
5.52729e-08
-5.64866e-07
5.55909e-08
-5.82533e-07
5.58951e-08
-6.00271e-07
5.61828e-08
-6.18074e-07
5.64518e-08
-6.35936e-07
5.66995e-08
-6.53852e-07
5.69236e-08
-6.71813e-07
5.71222e-08
-6.89811e-07
5.72933e-08
-7.07837e-07
5.74354e-08
-7.25883e-07
5.7547e-08
-7.43937e-07
5.76265e-08
-7.61988e-07
5.76716e-08
-7.80023e-07
5.76795e-08
-7.9803e-07
5.76462e-08
-8.15996e-07
5.75679e-08
-8.3391e-07
5.74421e-08
-8.51758e-07
5.72696e-08
-8.69523e-07
5.70556e-08
-8.87178e-07
5.6809e-08
-9.04678e-07
5.6538e-08
-9.21947e-07
5.62431e-08
-9.38883e-07
5.59005e-08
-9.55418e-07
5.5435e-08
-9.71676e-07
5.47305e-08
-9.87925e-07
5.37736e-08
-1.00406e-06
5.27772e-08
-1.01948e-06
5.19209e-08
-1.03402e-06
5.10553e-08
-1.04773e-06
4.98863e-08
-1.06196e-06
4.84503e-08
-1.07543e-06
4.7083e-08
-1.08751e-06
4.56949e-08
-1.10003e-06
4.38624e-08
-1.11246e-06
4.20372e-08
-1.12363e-06
4.04475e-08
-1.13361e-06
3.88236e-08
-1.14356e-06
3.69953e-08
-1.15229e-06
3.50976e-08
-1.16071e-06
3.30002e-08
-1.16829e-06
3.08564e-08
-1.17531e-06
2.85156e-08
-1.18226e-06
2.61028e-08
-1.18856e-06
2.37824e-08
-1.19481e-06
2.14987e-08
-1.20009e-06
1.94349e-08
-1.20454e-06
1.73684e-08
-1.20823e-06
1.526e-08
-1.2112e-06
1.30964e-08
-1.21347e-06
1.0879e-08
-1.21504e-06
8.61409e-09
-1.21593e-06
6.30871e-09
-1.21613e-06
3.9712e-09
-1.21565e-06
1.61166e-09
-1.21447e-06
-7.58615e-10
-1.21261e-06
-3.1377e-09
-1.20998e-06
-5.52453e-09
-1.2066e-06
-7.932e-09
-1.20243e-06
-1.03612e-08
-1.19747e-06
-1.28098e-08
-1.19171e-06
-1.52744e-08
-1.18515e-06
-1.77513e-08
-1.17778e-06
-2.0237e-08
-1.16961e-06
-2.27275e-08
-1.16062e-06
-2.52189e-08
-1.15083e-06
-2.77072e-08
-1.14024e-06
-3.01883e-08
-1.12884e-06
-3.26584e-08
-1.11664e-06
-3.51135e-08
-1.10366e-06
-3.75495e-08
-1.08989e-06
-3.99626e-08
-1.07535e-06
-4.23489e-08
-1.06004e-06
-4.47045e-08
-1.04397e-06
-4.70256e-08
-1.02717e-06
-4.93088e-08
-1.00964e-06
-5.15503e-08
-9.91395e-07
-5.37468e-08
-9.72453e-07
-5.58951e-08
-9.5283e-07
-5.79921e-08
-9.32544e-07
-6.00348e-08
-9.11613e-07
-6.20203e-08
-8.90057e-07
-6.39459e-08
-8.67896e-07
-6.5809e-08
-8.45152e-07
-6.76071e-08
-8.21846e-07
-6.93379e-08
-7.98e-07
-7.09995e-08
-7.73639e-07
-7.25899e-08
-7.48786e-07
-7.41076e-08
-7.23464e-07
-7.55512e-08
-6.977e-07
-7.69192e-08
-6.71517e-07
-7.82105e-08
-6.44941e-07
-7.94241e-08
-6.17998e-07
-8.05594e-08
-5.90713e-07
-8.1616e-08
-5.63112e-07
-8.25937e-08
-5.35221e-07
-8.34924e-08
-5.07066e-07
-8.43121e-08
-4.78673e-07
-8.50532e-08
-4.50067e-07
-8.57162e-08
-4.21273e-07
-8.63022e-08
-3.92316e-07
-8.6812e-08
-3.63221e-07
-8.72465e-08
-3.34013e-07
-8.76072e-08
-3.04714e-07
-8.78958e-08
-2.75347e-07
-8.81138e-08
-2.45937e-07
-8.82628e-08
-2.16503e-07
-8.8345e-08
-1.87068e-07
-8.83623e-08
-1.57652e-07
-8.83166e-08
-1.28275e-07
-8.82102e-08
-9.89549e-08
-8.80453e-08
-6.9711e-08
-8.7824e-08
-4.056e-08
-8.75497e-08
-1.15182e-08
-8.72263e-08
1.7398e-08
-8.68587e-08
4.61709e-08
-8.6454e-08
7.47796e-08
-8.6025e-08
1.03198e-07
-8.55951e-08
1.3142e-07
-8.51572e-08
1.59491e-07
-8.45324e-08
1.87396e-07
-8.37307e-08
2.15059e-07
-8.30097e-08
2.4231e-07
-8.23839e-08
2.69465e-07
-8.138e-08
2.96578e-07
-8.04939e-08
3.23206e-07
-8.06138e-08
3.49808e-07
-7.98164e-08
3.76398e-07
-7.85775e-08
4.02586e-07
-7.82588e-08
4.28746e-07
-7.78752e-08
4.54727e-07
-7.73986e-08
4.80409e-07
-7.68692e-08
5.06228e-07
-7.56301e-08
5.31548e-07
-7.52517e-08
5.56379e-07
-7.51057e-08
5.80867e-07
-7.41358e-08
6.05269e-07
-7.21832e-08
6.29249e-07
-7.01689e-08
6.5194e-07
-6.8555e-08
6.73489e-07
-6.42718e-08
6.93828e-07
-5.56273e-08
7.12563e-07
-4.04926e-08
-1.36025e-08
7.30914e-07
-7.07984e-09
-1.26625e-09
-1.71373e-08
8.97133e-09
-2.78621e-08
1.72621e-08
-3.87754e-08
2.41879e-08
-4.98469e-08
3.02509e-08
-6.11444e-08
3.55717e-08
-7.27584e-08
4.01895e-08
-8.47611e-08
4.4141e-08
-9.71866e-08
4.74825e-08
-1.10031e-07
5.02882e-08
-1.23262e-07
5.26398e-08
-1.36834e-07
5.46166e-08
-1.50695e-07
5.62882e-08
-1.64797e-07
5.77131e-08
-1.79098e-07
5.89385e-08
-1.93563e-07
6.00019e-08
-2.08164e-07
6.09332e-08
-2.22881e-07
6.17566e-08
-2.37696e-07
6.24921e-08
-2.52598e-07
6.3156e-08
-2.67578e-07
6.37623e-08
-2.82631e-07
6.43229e-08
-2.97753e-07
6.48476e-08
-3.12942e-07
6.53449e-08
-3.28196e-07
6.58218e-08
-3.43518e-07
6.62841e-08
-3.58906e-07
6.67363e-08
-3.74363e-07
6.71818e-08
-3.8989e-07
6.76233e-08
-4.05489e-07
6.80623e-08
-4.2116e-07
6.84997e-08
-4.36905e-07
6.89357e-08
-4.52725e-07
6.93697e-08
-4.6862e-07
6.98006e-08
-4.84589e-07
7.02269e-08
-5.00631e-07
7.06466e-08
-5.16745e-07
7.10572e-08
-5.32928e-07
7.1456e-08
-5.49177e-07
7.184e-08
-5.65488e-07
7.22062e-08
-5.81857e-07
7.25512e-08
-5.98277e-07
7.28718e-08
-6.14742e-07
7.31648e-08
-6.31245e-07
7.3427e-08
-6.47779e-07
7.36554e-08
-6.64333e-07
7.38473e-08
-6.80897e-07
7.4e-08
-6.97461e-07
7.41108e-08
-7.14011e-07
7.41767e-08
-7.30534e-07
7.41944e-08
-7.47014e-07
7.41596e-08
-7.63436e-07
7.40678e-08
-7.79782e-07
7.39142e-08
-7.96035e-07
7.36951e-08
-8.12174e-07
7.34082e-08
-8.28172e-07
7.30536e-08
-8.43995e-07
7.26321e-08
-8.59599e-07
7.21428e-08
-8.74935e-07
7.15787e-08
-8.89954e-07
7.09194e-08
-9.04642e-07
7.01232e-08
-9.19052e-07
6.91408e-08
-9.33252e-07
6.79737e-08
-9.47178e-07
6.67028e-08
-9.60639e-07
6.53818e-08
-9.73544e-07
6.396e-08
-9.86026e-07
6.23687e-08
-9.9819e-07
6.06142e-08
-1.00989e-06
5.87807e-08
-1.02103e-06
5.68405e-08
-1.03188e-06
5.47109e-08
-1.04236e-06
5.2516e-08
-1.05223e-06
5.03149e-08
-1.06145e-06
4.80429e-08
-1.07011e-06
4.5654e-08
-1.0782e-06
4.31879e-08
-1.0858e-06
4.05996e-08
-1.09285e-06
3.79096e-08
-1.09947e-06
3.51413e-08
-1.10569e-06
3.23198e-08
-1.11141e-06
2.9502e-08
-1.11662e-06
2.67101e-08
-1.12116e-06
2.39688e-08
-1.125e-06
2.12154e-08
-1.12817e-06
1.84266e-08
-1.13066e-06
1.5591e-08
-1.13249e-06
1.27056e-08
-1.13365e-06
9.77257e-09
-1.13414e-06
6.79619e-09
-1.13395e-06
3.78207e-09
-1.13307e-06
7.36297e-10
-1.1315e-06
-2.33601e-09
-1.1292e-06
-5.43312e-09
-1.12617e-06
-8.55752e-09
-1.12239e-06
-1.17135e-08
-1.11785e-06
-1.48994e-08
-1.11254e-06
-1.81119e-08
-1.10647e-06
-2.13464e-08
-1.09963e-06
-2.45977e-08
-1.092e-06
-2.78608e-08
-1.0836e-06
-3.11305e-08
-1.07442e-06
-3.44015e-08
-1.06446e-06
-3.76686e-08
-1.05372e-06
-4.09264e-08
-1.04221e-06
-4.41697e-08
-1.02993e-06
-4.73933e-08
-1.01688e-06
-5.05921e-08
-1.00309e-06
-5.37608e-08
-9.8854e-07
-5.68944e-08
-9.73257e-07
-5.99879e-08
-9.57246e-07
-6.30362e-08
-9.4052e-07
-6.60346e-08
-9.23092e-07
-6.89784e-08
-9.04976e-07
-7.18632e-08
-8.86186e-07
-7.46846e-08
-8.6674e-07
-7.74386e-08
-8.46653e-07
-8.01212e-08
-8.25945e-07
-8.27287e-08
-8.04633e-07
-8.52576e-08
-7.82738e-07
-8.77042e-08