/*--------------------------------*- C++ -*----------------------------------*\
  =========                 |
  \\      /  F ield         | OpenFOAM: The Open Source CFD Toolbox
   \\    /   O peration     | Website:  https://openfoam.org
    \\  /    A nd           | Version:  7
     \\/     M anipulation  |
\*---------------------------------------------------------------------------*/
FoamFile
{
    version     2.0;
    format      ascii;
    class       volVectorField;
    location    "0.23";
    object      U;
}
// * * * * * * * * * * * * * * * * * * * * * * * * * * * * * * * * * * * * * //

dimensions      [0 1 -1 0 0 0 0];

internalField   nonuniform List<vector> 
12225
(
(4.73347 -0.571241 0)
(4.31415 -0.430538 0)
(4.03361 -0.176986 0)
(3.82436 -0.0515546 0)
(3.64944 -0.00460682 0)
(3.5066 0.010016 0)
(3.39568 0.0130681 0)
(3.3095 0.0124581 0)
(3.24021 0.011032 0)
(3.18281 0.00969216 0)
(3.13443 0.00861741 0)
(3.09303 0.00776534 0)
(3.0571 0.00706488 0)
(3.02558 0.0064703 0)
(2.99756 0.00595294 0)
(2.97314 0.00545955 0)
(2.94862 0.0057053 0)
(2.93709 0.00242565 0)
(5.02997 0.295073 0)
(4.84219 0.245058 0)
(4.69195 0.169881 0)
(4.58578 0.10714 0)
(4.48717 0.0705235 0)
(4.39261 0.0517069 0)
(4.30763 0.0412106 0)
(4.23286 0.0342639 0)
(4.16669 0.0291864 0)
(4.10806 0.0253709 0)
(4.0563 0.022453 0)
(4.01063 0.0201592 0)
(3.97016 0.018301 0)
(3.93416 0.016774 0)
(3.90193 0.015444 0)
(3.87324 0.0145302 0)
(3.84694 0.0130672 0)
(3.82536 0.015018 0)
(4.96336 0.187522 0)
(4.82997 0.103972 0)
(4.75456 0.0857312 0)
(4.71159 0.0765173 0)
(4.66621 0.0679743 0)
(4.61624 0.0608983 0)
(4.56781 0.0547273 0)
(4.52264 0.0490719 0)
(4.48033 0.0440702 0)
(4.44088 0.0398443 0)
(4.40452 0.0363186 0)
(4.37127 0.0333427 0)
(4.34092 0.0307897 0)
(4.31324 0.0285828 0)
(4.28799 0.0266254 0)
(4.265 0.0250034 0)
(4.24423 0.0233416 0)
(4.22494 0.0227744 0)
(4.96282 0.17115 0)
(4.85057 0.102655 0)
(4.78992 0.0968101 0)
(4.76079 0.0902749 0)
(4.73314 0.0806755 0)
(4.70324 0.0725565 0)
(4.67488 0.0659261 0)
(4.64868 0.0600456 0)
(4.62387 0.0548249 0)
(4.60026 0.0503236 0)
(4.57805 0.0464684 0)
(4.55735 0.0431281 0)
(4.5381 0.0401954 0)
(4.52025 0.0376024 0)
(4.50373 0.0352716 0)
(4.48845 0.0332205 0)
(4.47467 0.0312309 0)
(4.46122 0.0295912 0)
(4.9736 0.195249 0)
(4.88122 0.129109 0)
(4.82305 0.114554 0)
(4.79435 0.101666 0)
(4.77167 0.0891065 0)
(4.74973 0.0798274 0)
(4.73032 0.0727497 0)
(4.71338 0.0666571 0)
(4.69784 0.0612863 0)
(4.68329 0.0566396 0)
(4.66974 0.0526292 0)
(4.6572 0.0491241 0)
(4.64558 0.0460196 0)
(4.63483 0.0432449 0)
(4.62489 0.0407303 0)
(4.6157 0.0384416 0)
(4.60748 0.0362526 0)
(4.59923 0.0341357 0)
(4.98217 0.218657 0)
(4.90832 0.150129 0)
(4.85342 0.126867 0)
(4.82376 0.110014 0)
(4.80227 0.0959168 0)
(4.78332 0.0857372 0)
(4.76761 0.078031 0)
(4.75478 0.0715148 0)
(4.7437 0.0658448 0)
(4.7338 0.0609582 0)
(4.72492 0.0567385 0)
(4.71696 0.0530448 0)
(4.7098 0.0497666 0)
(4.70332 0.0468246 0)
(4.69748 0.0441482 0)
(4.69217 0.0416746 0)
(4.68755 0.0393235 0)
(4.68282 0.0369781 0)
(4.98795 0.235239 0)
(4.93048 0.166912 0)
(4.88099 0.138194 0)
(4.85124 0.118659 0)
(4.83 0.103022 0)
(4.81216 0.0915722 0)
(4.79791 0.0828964 0)
(4.78682 0.0757063 0)
(4.7778 0.0695529 0)
(4.77019 0.0642883 0)
(4.76373 0.059756 0)
(4.75823 0.0557975 0)
(4.75353 0.0522905 0)
(4.74948 0.0491441 0)
(4.746 0.0462811 0)
(4.74298 0.043625 0)
(4.74051 0.0411126 0)
(4.73794 0.0386228 0)
(4.9919 0.247331 0)
(4.94824 0.181999 0)
(4.90536 0.149807 0)
(4.87672 0.127892 0)
(4.8559 0.110543 0)
(4.83871 0.0975987 0)
(4.82512 0.0877501 0)
(4.81477 0.0797067 0)
(4.80668 0.0729161 0)
(4.80017 0.0671475 0)
(4.79492 0.0622024 0)
(4.79071 0.0579003 0)
(4.78733 0.0541031 0)
(4.78462 0.0507059 0)
(4.78247 0.0476225 0)
(4.78075 0.0447692 0)
(4.77951 0.042086 0)
(4.77819 0.039469 0)
(4.99462 0.256581 0)
(4.9621 0.195562 0)
(4.92618 0.161139 0)
(4.89973 0.137203 0)
(4.87992 0.118269 0)
(4.86357 0.103843 0)
(4.85054 0.0927507 0)
(4.8406 0.0837473 0)
(4.83298 0.076209 0)
(4.82702 0.0698362 0)
(4.82239 0.0643931 0)
(4.81884 0.0596765 0)
(4.81616 0.0555307 0)
(4.81417 0.0518364 0)
(4.81274 0.0484972 0)
(4.81174 0.0454247 0)
(4.81118 0.0425563 0)
(4.81057 0.0398051 0)
(4.99646 0.263629 0)
(4.97262 0.207262 0)
(4.94338 0.171646 0)
(4.91991 0.146191 0)
(4.90174 0.125965 0)
(4.88664 0.110202 0)
(4.8744 0.0978907 0)
(4.86495 0.0878915 0)
(4.85771 0.0795458 0)
(4.85212 0.0725039 0)
(4.84786 0.0665007 0)
(4.84469 0.0613139 0)
(4.84239 0.056771 0)
(4.84078 0.0527395 0)
(4.83974 0.0491127 0)
(4.83912 0.0457982 0)
(4.83892 0.0427284 0)
(4.83869 0.0398285 0)
(4.99767 0.268907 0)
(4.9804 0.217038 0)
(4.95721 0.181081 0)
(4.93713 0.154587 0)
(4.92108 0.133366 0)
(4.9076 0.116468 0)
(4.8965 0.103038 0)
(4.88779 0.0920734 0)
(4.88106 0.0829141 0)
(4.8759 0.0751793 0)
(4.87199 0.0685846 0)
(4.86911 0.0628943 0)
(4.86708 0.0579228 0)
(4.86573 0.0535258 0)
(4.86491 0.0495883 0)
(4.86452 0.0460134 0)
(4.86451 0.0427284 0)
(4.86449 0.0396653 0)
(4.99839 0.272593 0)
(4.98561 0.224448 0)
(4.96721 0.188693 0)
(4.95029 0.16157 0)
(4.9364 0.139643 0)
(4.92468 0.121887 0)
(4.91491 0.10756 0)
(4.90713 0.095781 0)
(4.9011 0.0859121 0)
(4.89646 0.0775579 0)
(4.89297 0.0704246 0)
(4.89043 0.064269 0)
(4.88867 0.0588972 0)
(4.88754 0.054157 0)
(4.88691 0.049927 0)
(4.88668 0.0461063 0)
(4.8868 0.0426195 0)
(4.8869 0.0393963 0)
(4.99887 0.275389 0)
(4.98949 0.230564 0)
(4.97518 0.195347 0)
(4.96129 0.167808 0)
(4.94962 0.145312 0)
(4.93974 0.126845 0)
(4.93146 0.111738 0)
(4.92482 0.0992258 0)
(4.91965 0.0887021 0)
(4.9157 0.0797674 0)
(4.91275 0.0721224 0)
(4.91064 0.06552 0)
(4.90922 0.0597606 0)
(4.90836 0.0546862 0)
(4.90796 0.0501703 0)
(4.9079 0.0461087 0)
(4.90817 0.0424233 0)
(4.90839 0.0390377 0)
(4.99923 0.277712 0)
(4.99273 0.236093 0)
(4.98228 0.201698 0)
(4.97159 0.173909 0)
(4.96241 0.150923 0)
(4.95467 0.131799 0)
(4.9482 0.115937 0)
(4.94301 0.102686 0)
(4.939 0.0914919 0)
(4.93601 0.0819546 0)
(4.93384 0.073772 0)
(4.93236 0.0666957 0)
(4.93146 0.0605227 0)
(4.93102 0.0550899 0)
(4.93095 0.0502664 0)
(4.93117 0.0459446 0)
(4.93166 0.0420424 0)
(4.93208 0.0384817 0)
(4.99952 0.279549 0)
(4.99536 0.240739 0)
(4.9884 0.207299 0)
(4.98096 0.179404 0)
(4.97447 0.155998 0)
(4.96908 0.136281 0)
(4.96468 0.119711 0)
(4.96123 0.105746 0)
(4.95869 0.093891 0)
(4.95692 0.083757 0)
(4.95579 0.0750401 0)
(4.95519 0.0674914 0)
(4.95501 0.0609056 0)
(4.95518 0.0551156 0)
(4.95563 0.0499859 0)
(4.95627 0.0454057 0)
(4.9571 0.0412879 0)
(4.95784 0.0375553 0)
(4.99973 0.280868 0)
(4.99746 0.244203 0)
(4.99358 0.211631 0)
(4.98936 0.183697 0)
(4.98573 0.159905 0)
(4.9829 0.139644 0)
(4.98079 0.122429 0)
(4.97935 0.1078 0)
(4.97853 0.0953228 0)
(4.97824 0.0846262 0)
(4.97839 0.0754081 0)
(4.97889 0.0674189 0)
(4.97966 0.0604511 0)
(4.98064 0.0543339 0)
(4.98177 0.0489272 0)
(4.98301 0.0441162 0)
(4.98436 0.0398089 0)
(4.98555 0.0359287 0)
(4.99991 0.281586 0)
(4.99922 0.246121 0)
(4.9981 0.214024 0)
(4.99706 0.185945 0)
(4.9965 0.161736 0)
(4.99647 0.140955 0)
(4.99691 0.123165 0)
(4.99775 0.107957 0)
(4.99893 0.0949387 0)
(5.00039 0.0837598 0)
(5.00206 0.0741194 0)
(5.00388 0.0657658 0)
(5.0058 0.0584887 0)
(5.00778 0.0521131 0)
(5.00979 0.0464945 0)
(5.01179 0.0415136 0)
(5.01379 0.0370732 0)
(5.01559 0.033097 0)
(5.00008 0.281518 0)
(5.00085 0.245919 0)
(5.00244 0.213498 0)
(5.00477 0.184913 0)
(5.00762 0.160147 0)
(5.01081 0.138831 0)
(5.01419 0.12054 0)
(5.01769 0.104875 0)
(5.02125 0.091461 0)
(5.02479 0.0799487 0)
(5.02829 0.0700336 0)
(5.0317 0.0614579 0)
(5.03501 0.054006 0)
(5.03821 0.047498 0)
(5.04127 0.0417843 0)
(5.04421 0.0367413 0)
(5.04703 0.0322674 0)
(5.04957 0.0282867 0)
(5.00031 0.280222 0)
(5.00288 0.242321 0)
(5.00773 0.208114 0)
(5.01413 0.178275 0)
(5.02117 0.152674 0)
(5.0283 0.13081 0)
(5.03531 0.11217 0)
(5.0421 0.096307 0)
(5.04859 0.0828042 0)
(5.05471 0.0712793 0)
(5.06047 0.0614025 0)
(5.06585 0.0529005 0)
(5.07089 0.0455473 0)
(5.0756 0.0391556 0)
(5.07999 0.0335708 0)
(5.08409 0.0286656 0)
(5.08794 0.0243353 0)
(5.09141 0.0205054 0)
(5.00061 0.277669 0)
(5.00556 0.235164 0)
(5.01459 0.197611 0)
(5.02594 0.165773 0)
(5.03777 0.139116 0)
(5.04923 0.116758 0)
(5.06013 0.0980068 0)
(5.07039 0.0823031 0)
(5.07992 0.0691264 0)
(5.08869 0.0580119 0)
(5.09673 0.0485814 0)
(5.1041 0.0405352 0)
(5.11086 0.0336315 0)
(5.11706 0.0276729 0)
(5.12277 0.0224994 0)
(5.12802 0.0179815 0)
(5.13288 0.0140141 0)
(5.13725 0.010524 0)
(5.00095 0.274076 0)
(5.00882 0.225413 0)
(5.02281 0.184007 0)
(5.03958 0.150418 0)
(5.0562 0.123162 0)
(5.07174 0.100769 0)
(5.08622 0.0823627 0)
(5.09961 0.0672575 0)
(5.1118 0.0547904 0)
(5.12281 0.0444019 0)
(5.13276 0.0356743 0)
(5.14176 0.0282924 0)
(5.14992 0.0220057 0)
(5.15733 0.0166134 0)
(5.16408 0.0119561 0)
(5.17023 0.00790833 0)
(5.17588 0.00436879 0)
(5.18095 0.00126842 0)
(5.00149 0.269086 0)
(5.01372 0.21242 0)
(5.03449 0.166921 0)
(5.05779 0.13211 0)
(5.07954 0.104758 0)
(5.09925 0.0827452 0)
(5.11734 0.0650993 0)
(5.13378 0.0509744 0)
(5.14845 0.0395217 0)
(5.16148 0.0300966 0)
(5.1731 0.0222644 0)
(5.18349 0.0157062 0)
(5.19281 0.0101681 0)
(5.20118 0.00545088 0)
(5.20872 0.00140118 0)
(5.21554 -0.00209952 0)
(5.22175 -0.00514538 0)
(5.22728 -0.00780064 0)
(5.00238 0.262163 0)
(5.0213 0.1955 0)
(5.05128 0.146383 0)
(5.08215 0.111328 0)
(5.10915 0.0844401 0)
(5.13298 0.0632501 0)
(5.15456 0.0468525 0)
(5.17374 0.0341305 0)
(5.19047 0.0240006 0)
(5.20507 0.0157687 0)
(5.2179 0.00901642 0)
(5.22922 0.0034312 0)
(5.23925 -0.00123888 0)
(5.24814 -0.0051852 0)
(5.25606 -0.00854914 0)
(5.26315 -0.0114382 0)
(5.26952 -0.0139369 0)
(5.27516 -0.016103 0)
(5.00395 0.252445 0)
(5.03317 0.173607 0)
(5.07517 0.122473 0)
(5.11404 0.0887942 0)
(5.14579 0.0630647 0)
(5.17332 0.0432026 0)
(5.19786 0.0285725 0)
(5.21906 0.0176543 0)
(5.23703 0.00911472 0)
(5.25241 0.00226412 0)
(5.26574 -0.00327036 0)
(5.27732 -0.0077836 0)
(5.28741 -0.0115161 0)
(5.29623 -0.0146422 0)
(5.30397 -0.0172856 0)
(5.31079 -0.019539 0)
(5.31684 -0.021474 0)
(5.32213 -0.0231405 0)
(5.00664 0.239245 0)
(5.05115 0.14601 0)
(5.10793 0.0952265 0)
(5.15398 0.0649306 0)
(5.18901 0.0414477 0)
(5.21921 0.0237018 0)
(5.24572 0.0113636 0)
(5.26782 0.00251907 0)
(5.28597 -0.00428806 0)
(5.3012 -0.00966758 0)
(5.31416 -0.0139306 0)
(5.32521 -0.0173468 0)
(5.33462 -0.0201338 0)
(5.34267 -0.0224405 0)
(5.34957 -0.0243691 0)
(5.35552 -0.0259958 0)
(5.36066 -0.0273784 0)
(5.36504 -0.0285596 0)
(5.01051 0.222557 0)
(5.07591 0.115737 0)
(5.14966 0.0673078 0)
(5.20128 0.040596 0)
(5.2376 0.0200638 0)
(5.26892 0.00549851 0)
(5.29597 -0.0039548 0)
(5.31763 -0.0105591 0)
(5.33477 -0.0156071 0)
(5.34875 -0.0195149 0)
(5.3603 -0.0225188 0)
(5.36978 -0.0248585 0)
(5.37751 -0.0267214 0)
(5.38381 -0.028227 0)
(5.38893 -0.0294555 0)
(5.39307 -0.0304688 0)
(5.3964 -0.0313102 0)
(5.399 -0.0320182 0)
(5.01612 0.196417 0)
(5.1084 0.0875808 0)
(5.19903 0.0463753 0)
(5.25414 0.0197356 0)
(5.29027 -0.000103582 0)
(5.321 -0.0113812 0)
(5.34652 -0.0174477 0)
(5.36574 -0.0215244 0)
(5.37998 -0.0246768 0)
(5.39082 -0.0270413 0)
(5.39902 -0.0287492 0)
(5.40499 -0.0299971 0)
(5.40912 -0.0309338 0)
(5.41179 -0.0316452 0)
(5.41328 -0.0321872 0)
(5.41384 -0.0326059 0)
(5.41364 -0.0329301 0)
(5.41284 -0.0331924 0)
(5.02989 0.134583 0)
(5.15986 0.0475704 0)
(5.25806 0.0412258 0)
(5.30882 0.0217023 0)
(5.34243 -0.00174418 0)
(5.37067 -0.0156652 0)
(5.3913 -0.0222238 0)
(5.40379 -0.025829 0)
(5.41048 -0.0281426 0)
(5.4134 -0.0295283 0)
(5.41351 -0.030247 0)
(5.41136 -0.0305695 0)
(5.40748 -0.0306745 0)
(5.40233 -0.0306541 0)
(5.39626 -0.0305604 0)
(5.38953 -0.0304367 0)
(5.38236 -0.0303125 0)
(5.37491 -0.0302161 0)
(5.08133 -0.0500379 0)
(5.26819 -0.199283 0)
(5.34721 -0.137929 0)
(5.36474 -0.086488 0)
(5.37842 -0.0639035 0)
(5.39122 -0.05179 0)
(5.39346 -0.0435503 0)
(5.38489 -0.0382614 0)
(5.37003 -0.0349574 0)
(5.35216 -0.0326456 0)
(5.33267 -0.03081 0)
(5.31223 -0.0292699 0)
(5.29142 -0.0279506 0)
(5.27065 -0.0268003 0)
(5.25018 -0.0257845 0)
(5.23019 -0.0249016 0)
(5.2108 -0.0241559 0)
(5.19218 -0.0237354 0)
(5.01586 0.723718 0)
(5.23568 0.467498 0)
(5.2847 0.234422 0)
(5.20731 0.103785 0)
(5.10616 0.0382156 0)
(5.01518 0.00868011 0)
(4.93335 -0.00336322 0)
(4.85849 -0.00798172 0)
(4.79123 -0.00965067 0)
(4.73144 -0.0101177 0)
(4.67794 -0.0100901 0)
(4.62952 -0.00988737 0)
(4.5854 -0.00965005 0)
(4.54502 -0.00942936 0)
(4.50793 -0.00923818 0)
(4.47369 -0.00909179 0)
(4.44183 -0.00899248 0)
(4.41214 -0.00916636 0)
(0.00310528 -0.00797423 -1.47451e-20)
(0.0103794 -0.0113833 1.46561e-20)
(0.0160291 -0.00863956 0)
(0.0186305 -0.00378453 0)
(0.0176333 0.000983027 0)
(0.0137411 0.00465089 -1.38034e-20)
(0.00770601 0.00708796 0)
(0.000125229 0.00860659 0)
(-0.00855058 0.00958185 0)
(-0.0180556 0.0102708 0)
(-0.0282258 0.0108159 1.27406e-20)
(-0.038958 0.0112886 0)
(-0.0501898 0.0117185 0)
(-0.0618785 0.0121149 0)
(-0.07399 0.0124791 0)
(-0.0864951 0.0128105 1.15072e-20)
(-0.0993664 0.0131083 0)
(-0.112579 0.0133729 0)
(-0.126109 0.0136054 0)
(-0.139935 0.0138079 0)
(-0.154036 0.0139828 0)
(-0.168396 0.014133 0)
(-0.182999 0.0142613 0)
(-0.19783 0.0143707 9.89562e-21)
(-0.212879 0.0144639 -9.72321e-21)
(-0.228135 0.0145437 9.55669e-21)
(-0.24359 0.0146123 9.39586e-21)
(-0.259237 0.014672 0)
(-0.275071 0.0147246 0)
(-0.291086 0.0147718 -8.94576e-21)
(-0.30728 0.014815 -8.80593e-21)
(-0.323648 0.0148553 0)
(-0.340189 0.0148936 0)
(-0.356898 0.0149306 -8.41478e-21)
(-0.373775 0.0149666 0)
(-0.390815 0.015002 0)
(-0.408018 0.0150368 8.06297e-21)
(-0.425378 0.015071 0)
(-0.442892 0.0151046 7.84847e-21)
(-0.460555 0.0151374 1.54938e-20)
(-0.478363 0.0151693 0)
(-0.496309 0.0152002 0)
(-0.514386 0.0152301 0)
(-0.532585 0.0152593 0)
(-0.550899 0.0152878 0)
(-0.569318 0.0153159 1.44205e-20)
(-0.587831 0.0153439 1.42645e-20)
(-0.606428 0.0153718 1.41146e-20)
(-0.625098 0.0153995 0)
(-0.64383 0.0154267 -1.38325e-20)
(-0.66261 0.0154517 0)
(-0.681425 0.0154706 1.35732e-20)
(-0.700254 0.0154777 1.34517e-20)
(-0.719074 0.0154682 0)
(-0.737851 0.0154459 0)
(-0.756556 0.0154325 0)
(-0.77517 0.0154796 1.30225e-20)
(-0.793685 0.0156839 0)
(-0.812147 0.0162165 0)
(-0.830774 0.0172971 0)
(-0.849815 0.0186874 0)
(-0.868967 0.0188778 0)
(-0.887367 0.0166677 0)
(-0.904768 0.0154051 0)
(-0.921894 0.0198349 0)
(-0.940061 0.0249328 -1.23295e-20)
(-0.959575 0.0324563 0)
(-0.977249 0.015682 0)
(-0.993739 0.0215021 1.27186e-20)
(-1.01165 0.0325377 1.32091e-20)
(-1.02963 0.0133895 0)
(-1.04404 0.00477761 -1.29233e-20)
(-1.05894 0.0168441 1.19281e-20)
(-1.07582 0.0252907 0)
(-1.0917 0.0169602 -1.14789e-20)
(-1.10654 0.0281136 0)
(-1.12244 0.022126 0)
(-1.13666 0.0261676 1.1598e-20)
(-1.15168 0.0259297 0)
(-1.16472 0.0168245 -1.20662e-20)
(-1.17553 0.0158736 0)
(-1.18507 0.00418363 1.17046e-20)
(-1.19288 0.00591746 1.15201e-20)
(-1.20142 0.00570475 1.13274e-20)
(-1.20954 0.00539006 2.22583e-20)
(-1.21717 0.00493982 -2.18507e-20)
(-1.22414 0.00442493 0)
(-1.2304 0.00386475 0)
(-1.23588 0.00326712 0)
(-1.24053 0.00263628 -2.01047e-20)
(-1.2443 0.00198045 -1.96386e-20)
(-1.24715 0.00131818 1.91606e-20)
(-1.24899 0.000674498 0)
(-1.24977 7.75749e-05 -1.81634e-20)
(-1.24979 -0.000427041 -1.76422e-20)
(-1.249 -0.000900182 -1.71071e-20)
(-1.24742 -0.00136043 0)
(-1.24506 -0.00181492 0)
(-1.2419 -0.00226546 0)
(-1.23795 -0.00271244 -1.48235e-20)
(-1.23319 -0.0031556 0)
(-1.22764 -0.00359448 0)
(-1.22127 -0.00402853 1.29602e-20)
(-1.2141 -0.00445719 0)
(-1.20612 -0.00487986 0)
(-1.19734 -0.00529599 1.097e-20)
(-1.18776 -0.00570501 0)
(-1.17738 -0.00610638 0)
(-1.1662 -0.00649957 -8.85849e-21)
(-1.15425 -0.00688407 -8.12898e-21)
(-1.14151 -0.00725942 0)
(-1.128 -0.00762514 6.63364e-21)
(-1.11374 -0.00798083 0)
(-1.09873 -0.00832608 -5.09268e-21)
(-1.08298 -0.00866053 0)
(-1.06651 -0.00898384 -3.5099e-21)
(-1.04933 -0.00929568 -2.70412e-21)
(-1.03147 -0.00959576 0)
(-1.01292 -0.00988381 0)
(-0.993721 -0.0101596 0)
(-0.97388 -0.0104228 0)
(-0.953418 -0.0106734 0)
(-0.932355 -0.0109111 0)
(-0.910711 -0.0111359 0)
(-0.888506 -0.0113476 4.00898e-21)
(-0.865764 -0.0115462 -4.87172e-21)
(-0.842505 -0.0117317 0)
(-0.818753 -0.011904 0)
(-0.79453 -0.0120631 0)
(-0.76986 -0.0122092 0)
(-0.744767 -0.0123422 -1.8429e-20)
(-0.719273 -0.0124624 0)
(-0.693404 -0.0125698 2.19028e-20)
(-0.667183 -0.0126646 -2.36337e-20)
(-0.640634 -0.012747 0)
(-0.613781 -0.0128173 0)
(-0.586648 -0.0128756 0)
(-0.559258 -0.0129222 3.04831e-20)
(-0.531636 -0.0129574 3.217e-20)
(-0.503804 -0.0129815 0)
(-0.475784 -0.0129949 3.55037e-20)
(-0.447599 -0.0129979 3.71481e-20)
(-0.419272 -0.0129908 -3.87758e-20)
(-0.390822 -0.012974 0)
(-0.362271 -0.0129478 0)
(-0.33364 -0.0129125 -4.3548e-20)
(-0.304947 -0.0128686 0)
(-0.276212 -0.0128163 0)
(-0.247454 -0.012756 0)
(-0.218691 -0.0126885 0)
(-0.189939 -0.012615 5.10705e-20)
(-0.161212 -0.0125378 5.25025e-20)
(-0.132509 -0.0124639 0)
(-0.103835 -0.0124165 5.52895e-20)
(-0.0752148 -0.0124101 0)
(-0.0464114 -0.0122921 0)
(-0.0175119 -0.0120897 5.93693e-20)
(0.0104962 -0.0116105 0)
(0.0390211 -0.0111888 6.0884e-20)
(0.0673492 -0.0114351 0)
(0.0947734 -0.00901917 0)
(0.125371 -0.0100426 5.77915e-20)
(0.151283 -0.0131642 0)
(0.177691 -0.00979934 6.26732e-20)
(0.206704 -0.00698133 0)
(0.234304 -0.0106527 0)
(0.259774 -0.0108996 0)
(0.287458 -0.0114371 -6.36382e-20)
(0.312555 -0.0106482 0)
(0.33966 -0.00608895 6.40803e-20)
(0.366561 -0.00917184 0)
(0.391956 -0.0112381 0)
(0.419331 -0.00914945 0)
(0.445267 -0.00229928 0)
(0.473034 -0.00298704 0)
(0.497488 -0.0104946 0)
(0.521228 -0.0108604 0)
(0.541917 -0.00178309 -1.28095e-19)
(0.56162 0.00186714 0)
(0.551578 0.00372842 0)
(0.00210066 -0.0199416 4.37673e-20)
(0.0038201 -0.0183277 -4.2005e-20)
(0.00192612 -0.00859296 0)
(-0.00191232 0.00127342 2.49115e-20)
(-0.00732394 0.00994463 0)
(-0.0142039 0.016951 1.1596e-20)
(-0.0224516 0.0222702 -2.25613e-20)
(-0.0319306 0.0261641 -2.20071e-20)
(-0.042473 0.0289984 0)
(-0.0538963 0.0311078 -2.09793e-20)
(-0.0660336 0.0327387 -1.02611e-20)
(-0.0787481 0.0340525 0)
(-0.0919331 0.0351479 0)
(-0.105507 0.0360821 0)
(-0.119407 0.0368881 0)
(-0.133586 0.0375865 -9.18479e-21)
(-0.148005 0.0381911 0)
(-0.162634 0.0387127 1.75957e-20)
(-0.177449 0.0391609 0)
(-0.192431 0.0395445 0)
(-0.207564 0.0398714 -1.65923e-20)
(-0.222836 0.0401493 0)
(-0.238238 0.0403853 1.59884e-20)
(-0.253763 0.0405856 -7.86788e-21)
(-0.269406 0.0407559 7.7311e-21)
(-0.285164 0.0409011 -7.59948e-21)
(-0.301034 0.0410253 -7.47277e-21)
(-0.317017 0.0411321 0)
(-0.333111 0.0412242 0)
(-0.349317 0.0413038 7.11976e-21)
(-0.365635 0.0413725 -6.97807e-21)
(-0.382067 0.0414314 0)
(-0.398613 0.0414811 0)
(-0.415274 0.0415216 6.70502e-21)
(-0.43205 0.0415529 0)
(-0.44894 0.0415743 0)
(-0.465944 0.0415848 -6.43032e-21)
(-0.48306 0.0415832 0)
(-0.500286 0.0415683 6.22881e-21)
(-0.51762 0.0415383 -1.23662e-20)
(-0.535056 0.0414915 0)
(-0.552592 0.0414261 0)
(-0.570223 0.0413405 -2.37746e-20)
(-0.587942 0.0412328 -2.34991e-20)
(-0.605743 0.0411018 -2.32339e-20)
(-0.623619 0.0409462 1.14541e-20)
(-0.641565 0.0407655 -1.14023e-20)
(-0.659571 0.0405594 -3.37835e-20)
(-0.677632 0.0403278 2.22733e-20)
(-0.695739 0.04007 1.10651e-20)
(-0.713883 0.0397837 0)
(-0.732058 0.0394644 -1.08654e-20)
(-0.750254 0.039105 1.06999e-20)
(-0.768467 0.0386987 0)
(-0.786696 0.0382417 0)
(-0.804943 0.0377382 0)
(-0.823216 0.0372037 -1.04711e-20)
(-0.841521 0.0366701 0)
(-0.859833 0.0361792 2.06702e-20)
(-0.878022 0.0357532 0)
(-0.895902 0.035318 2.05607e-20)
(-0.913536 0.0346041 0)
(-0.931304 0.0333195 -2.05041e-20)
(-0.949252 0.0317671 0)
(-0.966954 0.0307097 2.0432e-20)
(-0.98379 0.0298302 -1.01496e-20)
(-0.998937 0.0286901 0)
(-1.01563 0.0279343 -2.10047e-20)
(-1.03177 0.0269207 -1.03298e-20)
(-1.04587 0.0264108 -1.05146e-20)
(-1.05981 0.0263614 0)
(-1.07538 0.0259469 -1.03332e-20)
(-1.0892 0.0243442 -9.93321e-21)
(-1.10071 0.0225922 0)
(-1.11267 0.0209489 9.7941e-21)
(-1.12392 0.0194337 -1.92851e-20)
(-1.13396 0.0180532 0)
(-1.14356 0.0168292 -9.50972e-21)
(-1.15127 0.0153176 0)
(-1.15917 0.0143946 2.83007e-20)
(-1.16704 0.0139884 0)
(-1.17468 0.0136312 -2.74766e-20)
(-1.18246 0.0132734 -9.01325e-21)
(-1.18869 0.0125185 8.8319e-21)
(-1.19404 0.0115393 1.73505e-20)
(-1.19865 0.0104318 -1.70279e-20)
(-1.20255 0.00924636 0)
(-1.20576 0.00801285 0)
(-1.20829 0.00674501 0)
(-1.21015 0.00544929 4.69051e-20)
(-1.21135 0.00413226 1.52523e-20)
(-1.21193 0.0028113 -1.48646e-20)
(-1.21195 0.00151646 0)
(-1.21146 0.000269956 -1.40955e-20)
(-1.21025 -0.000912205 1.36297e-20)
(-1.2083 -0.00206365 1.31979e-20)
(-1.2056 -0.00319622 0)
(-1.20212 -0.00431584 0)
(-1.19787 -0.00542373 0)
(-1.19282 -0.00651951 1.13715e-20)
(-1.18699 -0.00760203 0)
(-1.18036 -0.00866987 -2.09146e-20)
(-1.17293 -0.00972153 -2.98221e-20)
(-1.16471 -0.0107555 1.89125e-20)
(-1.15569 -0.0117702 0)
(-1.14587 -0.0127643 8.49403e-21)
(-1.13526 -0.0137364 0)
(-1.12387 -0.0146851 1.46901e-20)
(-1.11169 -0.0156092 -6.88443e-21)
(-1.09873 -0.0165073 -6.33133e-21)
(-1.085 -0.0173785 0)
(-1.07052 -0.0182216 -1.52039e-20)
(-1.05529 -0.0190357 9.04437e-21)
(-1.03931 -0.01982 3.82818e-21)
(-1.02261 -0.0205735 0)
(-1.0052 -0.0212957 2.63088e-21)
(-0.987092 -0.0219859 6.30885e-21)
(-0.968299 -0.0226436 0)
(-0.948838 -0.0232682 1.84136e-21)
(-0.928728 -0.0238594 6.06761e-22)
(-0.907986 -0.0244168 -6.35211e-22)
(-0.886631 -0.0249403 0)
(-0.864683 -0.0254295 0)
(-0.842161 -0.0258846 0)
(-0.819087 -0.0263056 2.68954e-21)
(-0.795481 -0.0266926 3.60259e-21)
(-0.771367 -0.0270457 0)
(-0.746766 -0.0273651 9.45528e-21)
(-0.721701 -0.0276511 1.07215e-20)
(-0.696195 -0.0279042 0)
(-0.670272 -0.0281249 1.35456e-20)
(-0.643955 -0.0283138 2.90154e-20)
(-0.617269 -0.0284713 -1.60625e-20)
(-0.590236 -0.0285982 -1.67102e-20)
(-0.562882 -0.0286951 0)
(-0.535229 -0.028763 0)
(-0.507302 -0.0288027 0)
(-0.479124 -0.028815 -2.22396e-20)
(-0.450718 -0.0288009 2.2843e-20)
(-0.422107 -0.0287613 4.86876e-20)
(-0.393314 -0.0286974 -2.58316e-20)
(-0.364361 -0.0286101 2.64054e-20)
(-0.33527 -0.0285004 2.81653e-20)
(-0.306061 -0.0283695 0)
(-0.276757 -0.0282184 0)
(-0.247376 -0.0280482 -3.09751e-20)
(-0.217937 -0.0278598 0)
(-0.188461 -0.0276544 0)
(-0.158965 -0.0274329 6.9059e-20)
(-0.129466 -0.0271967 0)
(-0.0999809 -0.0269478 3.63401e-20)
(-0.0705252 -0.0266891 -3.7914e-20)
(-0.0411114 -0.0264252 0)
(-0.0117588 -0.0261684 3.93285e-20)
(0.0174937 -0.0259472 0)
(0.0466293 -0.0257588 0)
(0.0757141 -0.0253842 -4.18399e-20)
(0.104577 -0.0249409 8.43327e-20)
(0.133363 -0.0245846 -4.30287e-20)
(0.161744 -0.024321 0)
(0.190348 -0.0242191 0)
(0.216655 -0.0229698 4.18079e-20)
(0.245509 -0.0225507 0)
(0.274571 -0.0228871 4.48797e-20)
(0.301887 -0.0226923 0)
(0.328511 -0.0216399 0)
(0.357411 -0.0210868 0)
(0.384992 -0.0207119 4.67547e-20)
(0.413552 -0.0208305 0)
(0.441075 -0.0209343 -4.749e-20)
(0.467914 -0.0202768 0)
(0.495753 -0.0198568 0)
(0.522596 -0.0201065 9.59961e-20)
(0.549558 -0.0207854 -9.63734e-20)
(0.57407 -0.0195689 0)
(0.599542 -0.0173715 0)
(0.625233 -0.0158006 0)
(0.64775 -0.0145578 2.93804e-19)
(0.667572 -0.00846473 0)
(0.676118 0.00537623 -1.90276e-19)
(-0.000373178 -0.0199526 -5.06021e-23)
(-0.0048903 -0.00979741 5.38232e-20)
(-0.0113622 0.00356189 0)
(-0.018631 0.0154549 -4.44564e-20)
(-0.0267203 0.0257586 0)
(-0.035477 0.0344097 0)
(-0.0449038 0.0414412 1.32752e-23)
(-0.055038 0.0470043 1.88203e-20)
(-0.0658747 0.0513347 1.83133e-20)
(-0.0773591 0.0546925 1.78733e-20)
(-0.0894084 0.0573127 0)
(-0.101934 0.0593831 0)
(-0.114852 0.061042 -1.66503e-20)
(-0.128094 0.0623869 -3.25703e-20)
(-0.141601 0.0634854 3.18734e-20)
(-0.155329 0.0643851 0)
(-0.169241 0.0651209 3.05719e-20)
(-0.183311 0.06572 -1.49953e-20)
(-0.197518 0.066204 0)
(-0.211846 0.0665915 2.8825e-20)
(-0.226284 0.0668985 1.41593e-20)
(-0.240823 0.0671387 -2.77792e-20)
(-0.255459 0.0673243 -1.36579e-20)
(-0.270186 0.0674656 0)
(-0.285003 0.0675716 2.6362e-20)
(-0.299909 0.0676496 2.59256e-20)
(-0.314904 0.0677057 0)
(-0.329989 0.0677449 2.51007e-20)
(-0.345166 0.0677707 0)
(-0.360435 0.067786 2.43346e-20)
(-0.375798 0.0677924 1.20022e-20)
(-0.391256 0.0677911 0)
(-0.406812 0.0677822 0)
(-0.422464 0.0677653 0)
(-0.438215 0.0677397 0)
(-0.454063 0.0677039 0)
(-0.470009 0.0676561 0)
(-0.48605 0.0675944 2.17582e-20)
(-0.502185 0.0675163 -3.22436e-20)
(-0.518412 0.0674196 0)
(-0.534725 0.0673019 0)
(-0.551123 0.0671606 0)
(-0.567599 0.0669936 3.79363e-23)
(-0.584149 0.066799 2.02852e-20)
(-0.600767 0.0665751 4.00906e-20)
(-0.617446 0.0663208 -3.96658e-20)
(-0.634178 0.0660352 -1.96101e-20)
(-0.650956 0.065718 1.94525e-20)
(-0.667771 0.0653686 -3.72608e-23)
(-0.684613 0.0649858 1.905e-20)
(-0.701472 0.0645671 0)
(-0.718336 0.0641094 1.87198e-20)
(-0.735195 0.0636093 -3.5008e-23)
(-0.752037 0.0630663 0)
(-0.768852 0.0624854 0)
(-0.785627 0.0618796 -1.81743e-20)
(-0.802342 0.0612682 0)
(-0.818969 0.0606729 0)
(-0.835458 0.0601054 1.7862e-20)
(-0.851717 0.0595322 3.56368e-20)
(-0.867621 0.0588166 -1.77763e-20)
(-0.883208 0.0577528 0)
(-0.898768 0.0563565 1.7648e-20)
(-0.91437 0.0550422 0)
(-0.929547 0.0540805 1.74444e-20)
(-0.943952 0.0531468 1.7376e-20)
(-0.957594 0.051789 -3.46027e-20)
(-0.971204 0.0498338 -1.72261e-20)
(-0.984737 0.0483941 0)
(-0.997189 0.0470566 3.3986e-20)
(-1.00937 0.044761 0)
(-1.02172 0.0426881 5.01539e-20)
(-1.03338 0.0412247 3.29717e-20)
(-1.04386 0.0395397 3.26146e-20)
(-1.05398 0.0374543 -3.22238e-20)
(-1.06356 0.035611 4.76994e-20)
(-1.07226 0.0333396 0)
(-1.08055 0.0311832 0)
(-1.08819 0.0286982 -3.05992e-20)
(-1.09555 0.0260867 -4.52484e-20)
(-1.10262 0.0237199 0)
(-1.10945 0.0213577 1.46264e-20)
(-1.1158 0.0195409 0)
(-1.12128 0.0177333 -4.22849e-20)
(-1.12603 0.0158968 -1.59164e-23)
(-1.13011 0.0140219 9.53636e-24)
(-1.13354 0.0121164 2.65397e-20)
(-1.13634 0.0101909 0)
(-1.1385 0.00825526 -2.53797e-20)
(-1.14003 0.00631957 1.51144e-23)
(-1.14093 0.00439489 0)
(-1.14119 0.00249364 0)
(-1.14082 0.000627291 0)
(-1.13978 -0.00120871 2.21799e-20)
(-1.13802 -0.0030374 0)
(-1.13553 -0.00485602 0)
(-1.13231 -0.00666183 0)
(-1.12834 -0.00845253 0)
(-1.12361 -0.0102258 0)
(-1.11812 -0.0119792 1.79522e-20)
(-1.11186 -0.0137102 0)
(-1.10484 -0.0154162 1.63243e-20)
(-1.09704 -0.0170948 1.55318e-20)
(-1.08846 -0.0187434 -1.47265e-20)
(-1.07912 -0.0203596 0)
(-1.069 -0.0219412 -1.3079e-20)
(-1.05811 -0.0234857 0)
(-1.04646 -0.0249913 -1.13847e-20)
(-1.03404 -0.0264557 1.05211e-20)
(-1.02087 -0.0278772 2.92345e-20)
(-1.00696 -0.0292538 0)
(-0.992307 -0.030584 2.39272e-20)
(-0.976926 -0.0318662 7.29577e-21)
(-0.960828 -0.033099 0)
(-0.944023 -0.0342813 1.06308e-20)
(-0.926526 -0.035412 8.79222e-21)
(-0.908349 -0.0364901 -1.02271e-20)
(-0.889508 -0.0375148 0)
(-0.870018 -0.0384854 -1.40921e-21)
(-0.849896 -0.0394012 -4.63854e-22)
(-0.829159 -0.0402619 1.05336e-21)
(-0.807825 -0.0410671 0)
(-0.785914 -0.0418166 0)
(-0.763445 -0.0425105 0)
(-0.740438 -0.043149 3.87385e-21)
(-0.716914 -0.0437322 0)
(-0.692894 -0.0442604 0)
(-0.6684 -0.0447342 -7.16888e-21)
(-0.643455 -0.0451541 -8.12109e-21)
(-0.61808 -0.0455208 0)
(-0.592299 -0.0458352 0)
(-0.566134 -0.0460983 -2.19167e-20)
(-0.53961 -0.0463112 0)
(-0.512748 -0.0464749 2.56538e-20)
(-0.485572 -0.0465906 2.70424e-20)
(-0.458106 -0.0466598 0)
(-0.430372 -0.0466839 0)
(-0.402394 -0.0466645 -3.25089e-20)
(-0.374194 -0.046603 -4.62802e-22)
(-0.345795 -0.0465011 -4.61843e-22)
(-0.317218 -0.0463606 0)
(-0.288485 -0.0461832 -7.95843e-20)
(-0.259618 -0.0459706 0)
(-0.230637 -0.0457246 0)
(-0.201561 -0.0454471 0)
(-0.172412 -0.0451397 4.67386e-20)
(-0.143207 -0.0448042 0)
(-0.113964 -0.0444423 -9.90301e-20)
(-0.0847018 -0.0440558 -5.15271e-20)
(-0.055436 -0.0436466 0)
(-0.0261829 -0.0432172 -5.4591e-20)
(0.00304237 -0.0427713 0)
(0.0322248 -0.0423133 0)
(0.0613475 -0.041851 -1.73478e-19)
(0.0903798 -0.0413976 1.17358e-19)
(0.119284 -0.0409468 0)
(0.148166 -0.0404022 1.21462e-19)
(0.176924 -0.0397605 -6.20988e-20)
(0.205626 -0.0391945 0)
(0.234026 -0.038735 0)
(0.262507 -0.0381083 0)
(0.290405 -0.0373421 -1.9389e-19)
(0.318679 -0.0371411 0)
(0.346917 -0.0366519 -6.70917e-20)
(0.37481 -0.0359378 0)
(0.402556 -0.0355063 0)
(0.430647 -0.0350239 0)
(0.458295 -0.0346598 0)
(0.486183 -0.0342785 0)
(0.513861 -0.03356 0)
(0.541348 -0.0332221 -1.42486e-19)
(0.568764 -0.0330051 0)
(0.595588 -0.0325018 -7.25643e-20)
(0.622618 -0.0316215 2.18708e-19)
(0.649012 -0.0305585 0)
(0.674919 -0.0295013 0)
(0.699958 -0.027503 -1.47686e-19)
(0.723381 -0.0237454 -1.49527e-19)
(0.746542 -0.0166551 1.49105e-19)
(0.762984 -0.0032783 1.51206e-19)
(-0.00290917 -0.0102395 -8.60745e-20)
(-0.0111285 0.00635906 -7.80546e-20)
(-0.0200945 0.0213715 -4.54711e-20)
(-0.0294713 0.0340264 -2.04973e-20)
(-0.0392321 0.0449352 0)
(-0.049195 0.0542611 3.62216e-20)
(-0.0593939 0.0620874 -1.73786e-20)
(-0.0699132 0.068523 0)
(-0.0808085 0.0737244 -1.63327e-20)
(-0.0920938 0.077879 0)
(-0.103752 0.0811773 3.10172e-20)
(-0.115745 0.0837913 0)
(-0.12803 0.0858644 1.48045e-20)
(-0.140562 0.0875102 2.89594e-20)
(-0.153301 0.0888158 -2.83424e-20)
(-0.166213 0.0898484 0)
(-0.179271 0.0906595 -2.71948e-20)
(-0.192453 0.0912901 0)
(-0.205743 0.0917731 0)
(-0.219129 0.0921357 -2.56609e-20)
(-0.232602 0.0924006 0)
(-0.246157 0.092587 3.81749e-24)
(-0.259789 0.0927111 0)
(-0.273497 0.0927864 0)
(-0.287279 0.092824 -5.13834e-24)
(-0.301137 0.0928332 -2.31257e-20)
(-0.315069 0.0928212 -2.27528e-20)
(-0.329079 0.0927936 -2.24059e-20)
(-0.343168 0.0927545 0)
(-0.357336 0.0927065 -4.34672e-20)
(-0.371587 0.0926514 0)
(-0.38592 0.0925898 -2.11065e-20)
(-0.400339 0.0925212 0)
(-0.414842 0.0924446 0)
(-0.42943 0.0923584 2.02502e-20)
(-0.444104 0.0922602 0)
(-0.458862 0.0921474 -1.97268e-20)
(-0.473703 0.092017 -1.23576e-23)
(-0.488624 0.0918657 3.84893e-20)
(-0.503623 0.0916902 -3.80131e-20)
(-0.518696 0.091487 0)
(-0.533839 0.091253 0)
(-0.549047 0.0909849 -1.83452e-20)
(-0.564313 0.09068 0)
(-0.579632 0.0903358 -1.79794e-20)
(-0.594996 0.0899502 1.77938e-20)
(-0.610396 0.0895213 1.76156e-20)
(-0.625823 0.0890477 0)
(-0.641266 0.0885274 -1.72805e-20)
(-0.656714 0.0879578 -1.71236e-20)
(-0.672153 0.0873357 3.39209e-20)
(-0.687569 0.0866569 -1.68304e-20)