/*--------------------------------*- C++ -*----------------------------------*\
  =========                 |
  \\      /  F ield         | OpenFOAM: The Open Source CFD Toolbox
   \\    /   O peration     | Website:  https://openfoam.org
    \\  /    A nd           | Version:  7
     \\/     M anipulation  |
\*---------------------------------------------------------------------------*/
FoamFile
{
    version     2.0;
    format      ascii;
    class       volScalarField;
    location    "0.09";
    object      nut;
}
// * * * * * * * * * * * * * * * * * * * * * * * * * * * * * * * * * * * * * //

dimensions      [0 2 -1 0 0 0 0];

internalField   nonuniform List<scalar> 
12225
(
0
0
0
0
0
0
0
0
0
0
0
0
0
0
0
5.82667e-10
0
0
0
0
0
0
0
0
0
0
0
0
0
0
0
0
0
6.87617e-10
0
0
0
1.19504e-09
8.50251e-11
0
0
0
0
0
0
0
0
0
0
0
0
9.52374e-10
0
0
0
1.68304e-08
7.45232e-09
1.18692e-09
3.47629e-10
0
0
0
0
0
0
0
0
4.93516e-10
4.42084e-10
1.01255e-09
0
0
1.53351e-07
2.15464e-07
3.02367e-07
1.10699e-07
2.19848e-09
0
0
0
0
0
8.73716e-10
1.57844e-09
1.72962e-09
1.76396e-09
9.63209e-10
0
0
0
3.85278e-07
3.82615e-07
4.85394e-07
2.66255e-07
4.99533e-08
0
1.40016e-08
4.16838e-08
5.53566e-08
5.6885e-08
4.52015e-08
2.81587e-08
1.22087e-08
3.22558e-09
0
0
0
0
6.68113e-07
4.18759e-07
3.65813e-07
1.82538e-07
2.16386e-08
0
3.57528e-08
6.53708e-08
9.18098e-08
1.73119e-07
3.33712e-07
4.55963e-07
4.22191e-07
2.64488e-07
1.25441e-07
5.11442e-08
2.56637e-08
1.24267e-08
4.2005e-07
4.89019e-07
3.35469e-07
1.77061e-07
1.4009e-08
1.76838e-08
8.00633e-08
1.10735e-07
1.11473e-07
1.77598e-07
2.9493e-07
3.22412e-07
2.58529e-07
1.6668e-07
9.34045e-08
4.9147e-08
2.95736e-08
2.3013e-08
0
3.7893e-07
3.94849e-07
3.31773e-07
1.01447e-07
8.99837e-08
1.64909e-07
1.48267e-07
7.1435e-08
9.26159e-08
1.2822e-07
1.12373e-07
7.75891e-08
4.43262e-08
1.94838e-08
3.36123e-09
0
0
0
0
4.79506e-07
4.75571e-07
2.64813e-07
1.33665e-07
1.79888e-07
1.56175e-07
7.89149e-08
3.78525e-08
3.50167e-08
1.87172e-08
0
0
0
0
0
0
0
1.85488e-09
3.90112e-07
4.09142e-07
1.4412e-07
1.27169e-08
6.00821e-08
6.19604e-08
2.69333e-08
0
0
0
0
0
0
0
0
0
0
3.8296e-07
5.32429e-07
5.7258e-07
1.29663e-07
0
2.06671e-09
7.58163e-09
0
0
0
0
0
0
0
0
0
0
0
9.09563e-08
5.14773e-07
6.96427e-07
1.37918e-07
0
0
0
0
0
0
0
0
0
0
0
0
0
2.15994e-07
3.7397e-07
5.96626e-07
7.04681e-07
0
0
0
0
0
0
0
0
0
0
0
0
0
0
2.92767e-07
3.72716e-07
1.09764e-06
1.52248e-06
0
0
0
0
0
0
0
0
0
0
0
0
0
0
2.69869e-07
6.60939e-07
1.23847e-06
1.24858e-06
1.78345e-07
0
0
0
0
0
0
0
0
0
0
0
0
0
0
0
0
0
0
0
0
0
0
0
0
0
0
0
0
5.89928e-08
2.43547e-08
0
6.96872e-07
6.26415e-07
0
0
0
0
0
0
1.66394e-07
2.2455e-07
1.7928e-07
1.24407e-07
1.17076e-07
1.7172e-07
2.36262e-07
1.68925e-07
0
0
4.72087e-07
5.72036e-07
3.34264e-07
0
0
0
0
0
0
0
0
0
1.44804e-08
6.4446e-08
5.22553e-08
0
0
0
5.21043e-07
7.72183e-07
2.90004e-07
0
0
0
0
0
0
0
0
0
2.60265e-08
3.14593e-08
0
0
0
0
2.89564e-07
6.6016e-07
3.78744e-07
2.09514e-08
0
0
0
0
0
0
0
0
0
0
0
0
0
0
0
0
0
0
0
0
0
0
0
0
0
0
3.19238e-08
1.81127e-07
2.00626e-07
1.33362e-07
4.04213e-08
0
0
0
0
0
0
0
0
0
0
0
0
0
0
3.64527e-08
1.05828e-07
1.22056e-07
9.01828e-08
3.96321e-08
0
0
0
0
0
0
0
0
0
0
0
0
0
0
0
2.01667e-08
2.90185e-08
2.16654e-08
0
0
0
0
0
0
0
0
0
0
0
0
0
0
0
0
3.80014e-09
4.19197e-09
0
0
0
0
0
0
0
0
0
0
0
0
0
0
0
0
0
0
0
0
0
0
0
0
0
0
0
0
0
0
0
0
0
0
0
0
3.97029e-09
0
0
0
0
0
0
0
0
0
0
0
0
0
0
0
0
0
5.33934e-09
0
0
0
0
0
0
0
0
0
0
0
0
0
0
0
0
0
4.33764e-08
0
0
0
0
0
0
0
0
0
0
0
0
0
0
0
0
0
1.705e-06
2.32194e-06
1.66356e-06
7.27293e-07
7.03023e-08
0
0
0
0
0
0
0
0
9.86776e-08
6.9334e-07
2.12699e-06
5.02286e-06
8.96545e-06
1.15632e-05
1.13438e-05
9.31718e-06
6.75282e-06
4.42867e-06
2.54885e-06
1.23735e-06
6.04148e-07
4.82786e-07
5.44196e-07
5.73298e-07
5.24899e-07
4.3219e-07
3.3215e-07
2.4401e-07
1.67342e-07
9.4899e-08
1.56866e-08
0
0
0
0
0
0
1.43943e-07
4.24887e-07
2.44582e-07
0
0
0
0
0
0
0
0
0
0
0
0
0
0
0
0
0
3.05925e-06
1.09937e-05
1.81918e-05
7.44744e-06
0
0
5.04429e-06
6.44456e-06
1.36581e-06
0
0
2.96815e-06
1.58213e-05
4.10298e-05
4.87718e-05
4.36316e-05
1.53381e-05
1.66874e-06
2.68332e-07
5.78236e-08
4.85037e-08
6.45235e-08
7.12913e-08
6.82762e-08
5.98212e-08
4.96094e-08
3.83574e-08
2.92366e-08
2.08587e-08
1.38912e-08
7.95222e-09
2.6873e-09
0
0
0
0
0
0
0
0
0
0
0
0
0
0
0
0
0
0
0
0
0
0
0
0
0
0
0
0
0
0
0
0
0
0
0
0
0
0
0
0
0
0
0
0
0
0
0
0
0
0
0
0
0
0
0
0
0
0
0
0
0
0
0
0
0
0
0
0
0
0
0
0
0
3.66418e-12
8.2196e-12
1.73205e-11
1.44302e-11
2.51272e-11
1.18045e-11
3.32297e-11
1.04768e-11
7.27853e-11
7.84151e-11
2.1564e-10
2.24766e-09
0
7.53786e-07
2.22984e-06
2.8745e-06
2.5937e-06
1.82265e-06
9.66671e-07
2.66523e-07
0
0
0
0
0
4.83268e-08
2.37648e-07
5.34684e-07
1.05498e-06
1.80537e-06
2.65279e-06
3.41033e-06
3.92468e-06
3.64413e-06
2.26866e-06
1.03588e-06
4.35684e-07
4.40207e-08
0
0
0
0
0
0
0
0
0
1.96278e-08
6.91657e-08
4.72285e-08
0
0
0
0
2.42531e-07
9.39975e-07
1.00188e-06
2.88798e-07
0
6.56472e-08
6.64103e-07
4.76158e-07
0
0
0
0
0
0
0
0
0
0
0
0
0
2.68776e-07
1.79152e-06
2.89544e-06
1.58273e-06
0
0
6.48063e-07
2.00208e-06
7.402e-07
0
6.80124e-07
8.9394e-06
7.91562e-06
8.96857e-06
8.91752e-06
6.33787e-06
2.96699e-06
9.21503e-07
3.32504e-07
1.43677e-07
1.159e-07
1.13199e-07
1.07239e-07
9.76681e-08
8.58092e-08
7.33309e-08
6.11919e-08
4.9452e-08
3.80826e-08
2.70339e-08
1.65042e-08
6.50785e-09
0
0
0
0
0
0
0
0
0
0
0
0
0
0
0
0
0
0
0
0
0
0
0
0
0
0
0
0
0
0
0
0
0
4.17064e-09
0
0
0
0
0
0
0
0
0
0
0
0
0
0
0
0
0
0
0
0
0
0
0
0
0
0
0
0
0
0
0
0
0
0
0
0
0
4.37878e-12
3.78845e-11
7.23683e-11
7.9521e-11
1.07193e-10
9.01541e-11
1.25077e-10
8.06818e-11
1.41822e-10
7.76826e-11
1.75843e-10
1.78897e-10
1.96625e-10
1.1596e-09
0
2.25453e-07
1.42795e-06
2.64631e-06
3.06997e-06
2.84715e-06
2.20054e-06
1.37448e-06
5.62781e-07
1.26278e-07
4.13688e-07
1.26689e-06
2.09708e-06
2.6168e-06
2.80962e-06
2.68149e-06
2.29048e-06
1.79571e-06
1.28802e-06
8.08934e-07
4.05271e-07
0
0
0
0
0
0
0
0
0
0
0
0
0
0
0
0
0
6.23192e-09
8.90871e-08
2.98185e-07
8.71762e-07
1.52122e-06
1.7226e-06
1.36394e-06
9.3194e-07
7.55895e-07
1.0655e-06
1.50896e-06
1.45874e-06
7.74813e-07
0
0
0
0
0
0
0
0
0
0
0
0
9.72668e-08
5.08663e-07
7.26952e-07
6.28945e-07
0
0
0
0
0
2.28673e-06
2.83165e-06
7.80108e-08
0
1.36437e-07
2.91857e-07
3.45119e-07
4.54127e-07
3.87183e-07
3.01146e-07
3.77491e-07
4.98235e-07
5.36014e-07
4.98454e-07
4.29282e-07
3.5401e-07
2.86198e-07
2.25412e-07
1.72389e-07
1.27477e-07
8.89041e-08
5.59081e-08
2.70132e-08
5.34956e-10
0
0
0
0
0
0
0
0
0
0
0
0
0
0
0
0
0
0
0
0
0
0
0
0
0
0
0
0
0
0
0
0
0
0
0
0
0
0
0
0
0
0
4.79347e-10
1.52823e-09
1.94457e-09
1.81741e-09
1.27917e-09
7.22826e-10
4.54203e-10
4.65012e-10
3.55904e-11
0
0
0
0
0
0
0
0
0
0
0
0
0
0
0
0
8.4619e-11
2.48433e-10
3.2455e-10
3.67104e-10
3.58802e-10
3.65793e-10
3.24238e-10
3.38784e-10
2.76977e-10
3.21992e-10
2.31837e-10
3.14036e-10
2.26729e-10
2.79166e-10
4.24109e-10
0
1.25065e-09
0
1.02991e-07
8.00361e-07
2.11928e-06
2.51427e-06
1.38525e-06
5.36582e-08
0
0
1.09036e-06
7.47373e-06
7.53721e-06
4.72834e-06
2.8802e-06
1.70252e-06
9.35482e-07
4.09588e-07
0
0
0
0
0
0
0
0
0
0
0
0
0
0
0
0
0
0
0
0
0
1.32541e-07
2.52261e-07
2.80578e-07
2.94033e-07
2.50512e-07
4.57342e-08
0
1.44022e-08
1.41336e-07
4.09109e-07
6.71666e-07
6.6569e-07
4.13944e-07
1.83336e-07
1.972e-07
5.50844e-07
1.21691e-06
1.75871e-06
1.32178e-06
0
0
0
0
0
0
0
0
1.29358e-07
5.33375e-07
9.38244e-07
7.20148e-07
9.67516e-08
0
9.20971e-07
2.36395e-06
5.04835e-07
0
0
0
0
0
0
0
1.89839e-07
4.16552e-07
4.71282e-07
3.97721e-07
3.23021e-07
2.68577e-07
2.47063e-07
2.413e-07
2.52946e-07
2.76823e-07
3.09437e-07
3.40695e-07
3.33936e-07
1.90759e-07
0
0
0
0
0
0
0
0
0
0
0
0
0
0
0
0
0
0
0
0
0
0
0
0
0
0
0
0
0
0
0
0
0
0
0
0
0
0
0
0
0
0
0
0
0
0
0
5.65193e-09
1.25566e-08
9.86721e-09
9.20524e-09
9.98684e-09
8.6502e-09
3.81675e-09
0
0
0
0
0
0
0
0
0
0
0
5.84275e-11
9.2463e-10
1.529e-09
1.86739e-09
1.98862e-09
1.90528e-09
1.72243e-09
1.44763e-09
1.2076e-09
9.37256e-10
7.78361e-10
5.8639e-10
5.16795e-10
4.00688e-10
3.01824e-10
3.6405e-10
0
6.70061e-10
0
1.8704e-09
0
2.92089e-08
2.229e-07
1.20295e-06
1.39284e-06
0
0
0
3.90948e-06
1.679e-05
1.2761e-05
7.39018e-06
3.90335e-06
1.93754e-06
8.52948e-07
3.34716e-07
6.16539e-08
0
0
0
0
0
0
0
0
0
0
0
0
0
0
0
0
0
0
0
0
4.3541e-08
1.88394e-07
3.25829e-07
4.60731e-07
5.70832e-07
6.21927e-07
6.26211e-07
6.45766e-07
6.78327e-07
7.15937e-07
7.67667e-07
8.18607e-07
8.36923e-07
8.48891e-07
9.31593e-07
1.13105e-06
1.50465e-06
2.22675e-06
3.0207e-06
2.78792e-06
1.5675e-06
0
0
0
0
0
0
0
1.04163e-06
2.52239e-06
3.58424e-06
3.29852e-06
1.99729e-06
1.48665e-06
1.63445e-06
8.52325e-07
4.5243e-07
9.23596e-08
0
0
0
0
0
0
1.52561e-07
1.06902e-07
2.80221e-08
0
0
0
0
0
0
0
0
0
0
0
0
0
0
0
0
0
0
0
0
0
0
0
0
0
0
0
0
0
0
0
0
0
0
0
0
0
0
0
0
0
0
0
0
0
0
0
0
0
0
0
0
0
0
0
0
0
0
0
0
0
0
0
0
0
0
0
0
3.00793e-09
1.02833e-08
7.89993e-09
2.19264e-09
0
0
0
0
0
0
0
0
0
0
0
0
0
2.54976e-10
6.00618e-10
1.02111e-09
3.88435e-10
9.37991e-10
0
1.06097e-09
0
1.85904e-09
0
3.68125e-09
0
0
6.50555e-08
5.03062e-07
0
0
0
6.99611e-06
1.26372e-05
1.20872e-05
9.5929e-06
6.84479e-06
4.28335e-06
2.21538e-06
9.94207e-07
3.61593e-07
0
0
0
0
0
0
0
0
0
0
0
0
0
0
0
0
0
0
0
0
0
4.08308e-08
1.38354e-07
2.27771e-07
3.12585e-07
3.88584e-07
4.40639e-07
4.71027e-07
4.90954e-07
4.97468e-07
4.97546e-07
4.93405e-07
4.96157e-07
5.13124e-07
5.52216e-07
6.35499e-07
7.83842e-07
1.0672e-06
1.76827e-06
2.8008e-06
2.77958e-06
1.49361e-06
4.02278e-08
0
0
0
0
0
9.58329e-08
4.06803e-06
5.12362e-06
4.76669e-06
3.79809e-06
1.70291e-06
3.16067e-07
2.28923e-07
2.50538e-07
1.66278e-07
0
0
0
0
0
0
1.1434e-07
1.86938e-07
9.75052e-08
4.01156e-08
1.03046e-08
0
0
6.64418e-10
5.3798e-09
1.14381e-08
1.76585e-08
2.13997e-08
8.58448e-09
0
0
0
0
0
4.34135e-09
7.11714e-09
4.20236e-09
0
0
0
0
0
0
0
0
0
0
0
0
0
0
0
0
0
0
0
0
0
0
0
0
0
0
0
0
0
0
0
0
0
0
0
0
0
0
0
0
0
0
0
0
2.99125e-08
3.74026e-08
7.8393e-09
0
0
0
0
0
0
0
0
0
0
0
0
0
0
0
0
0
0
0
0
0
0
0
0
0
1.54997e-09
0
7.42579e-09
0
8.97955e-09
0
7.92228e-09
0
0
0
0
2.08084e-06
4.15814e-06
5.68619e-06
6.95212e-06
7.79898e-06
7.46905e-06
6.25807e-06
4.80575e-06
3.28929e-06
1.94928e-06
1.04589e-06
4.70221e-07
5.6609e-08
0
0
0
0
0
0
0
0
0
0
0
0
0
0
0
0
0
0
0
0
0
0
0
5.69878e-08
2.07057e-07
3.44955e-07
4.54864e-07
5.29843e-07
5.5784e-07
5.51459e-07
5.0835e-07
4.48998e-07
3.95296e-07
3.6408e-07
3.58372e-07
3.92169e-07
5.0701e-07
1.03532e-06
2.10236e-06
1.92062e-06
1.01962e-08
0
0
0
0
0
0
1.33493e-07
8.39266e-07
7.82343e-07
8.76135e-07
8.01098e-07
0
0
0
0
0
0
0
0
0
0
0
2.31928e-07
2.017e-07
1.20707e-07
7.15793e-08
4.8644e-08
4.17483e-08
3.94651e-08
3.4543e-08
2.44411e-08
1.09095e-08
0
0
0
0
0
0
2.6973e-08
4.23153e-08
4.34446e-08
3.7931e-08
2.96371e-08
1.94189e-08
8.67691e-09
0
0
0
0
0
0
0
0
0
0
0
0
0
0
0
0
0
0
0
0
0
0
0
0
0
0
0
0
0
0
0
0
0
0
0
0
0
0
0
0
0
0
1.15032e-08
5.65614e-08
7.13612e-08
2.23966e-08
0
0
0
0
0
0
0
5.57461e-09
1.3478e-08
5.52736e-09
1.45881e-09
2.10711e-10
0
0
0
0
0
0
0
0
0
0
0
0
5.64325e-09
5.98857e-09
1.12411e-08
3.67191e-09
4.87773e-09
0
0
0
0
0
0
1.58805e-06
2.80255e-06
3.52147e-06
3.99354e-06
4.30806e-06
4.27949e-06
3.88954e-06
3.32331e-06
2.59991e-06
1.82285e-06
1.16527e-06
6.23248e-07
1.6526e-07
0
0
0
0
0
0
0
0
0
0
0
0
0
0
0
0
0
0
0
0
0
0
0
0
0
0
0
4.82979e-08
3.36599e-07
4.75095e-07
5.01793e-07
4.57265e-07
3.81512e-07
3.24986e-07
2.94682e-07
2.89619e-07
3.12426e-07
6.31119e-07
1.62085e-06
8.04033e-07
0
0
0
0
0
0
0
0
0
0
5.61916e-08
0
0
0
0
0
0
0
0
0
0
0
0
2.66595e-07
1.78703e-07
1.09524e-07
6.95646e-08
4.79311e-08
3.52783e-08
2.63559e-08
1.78701e-08
5.93182e-09
0
0
0
0
0
0
3.63702e-08
5.43887e-08
5.21304e-08
4.6165e-08
3.7823e-08
2.97604e-08
2.05003e-08
1.18149e-08
3.13031e-09
0
0
0
0
0
0
0
0
0
0
0
0
0
0
0
0
0
0
0
0
0
0
0
0
0
0
0
0
0
0
0
0
0
0
0
0
0
0
0
0
0
1.89092e-09
2.92607e-08
7.32927e-08
9.31967e-08
2.77477e-08
0
0
0
0
0
0
0
3.76401e-08
4.61002e-08
3.32552e-08
2.36116e-08
1.5617e-08
6.66576e-09
0
0
0
0
6.68636e-09
4.93527e-09
0
0
0
0
3.72018e-09
5.07927e-09
9.23235e-09
5.95274e-09
6.42223e-09
0
0
0
0
0
0
0
3.56107e-07
7.11986e-07
1.03633e-06
1.32465e-06
1.52347e-06
1.58979e-06
1.56194e-06
1.40444e-06
1.12034e-06
7.86507e-07
4.22768e-07
5.68087e-08
0
0
0
0
0
0
2.15497e-07
6.53724e-07
9.8378e-07
9.55951e-07
5.437e-07
0
0
0
0
0
0
0
0
0
0
0
0
0
0
0
0
0
0
8.43725e-08
3.68901e-07
4.07834e-07
3.54777e-07
2.87226e-07
2.41741e-07
2.21988e-07
2.01592e-07
2.76603e-07
1.20876e-06
0
0
0
0
0
0
0
0
0
0
0
1.78631e-07
0
0
0
0
0
0
0
0
0
0
0
2.26632e-07
2.69409e-07
1.53581e-07
9.77407e-08
7.30179e-08
6.00593e-08
5.30673e-08
4.61137e-08
3.53009e-08
1.74424e-08
0
0
0
0
0
1.12732e-07
1.53508e-07
1.33566e-07
1.04145e-07
7.78914e-08
5.1914e-08
3.30183e-08
1.67592e-08
5.33209e-09
0
0
0
0
0
0
0
0
0
0
0
0
0
0
0
0
0
0
0
0
0
0
0
0
0
0
0
0
0
0
4.77255e-09
1.4875e-08
2.45139e-08
2.4532e-08
0
0
0
0
0
0
0
0
9.53206e-09
2.50903e-08
4.28941e-08
8.14553e-08
9.77403e-08
1.62136e-08
0
0
0
0
0
0
8.08695e-10
4.9196e-08
6.15921e-08
4.80713e-08
3.10352e-08
1.51707e-08
2.65176e-10
0
0
0
0
5.35153e-09
1.52456e-08
3.8875e-09
0
0
1.13486e-09
2.57118e-09
5.83093e-09
4.12122e-09
4.89731e-09
0
0
0
0
0
0
0
0
0
0
0
0
3.01847e-08
8.64912e-08
9.41084e-08
5.63238e-08
0
0
0
1.40257e-08
2.73375e-07
7.06497e-07
1.29909e-06
2.05285e-06
2.9794e-06
4.03327e-06
4.53266e-06
3.88305e-06
2.71539e-06
1.81424e-06
1.09832e-06
6.47748e-07
3.62256e-07
1.76897e-07
7.02588e-08
8.85735e-08
2.57662e-07
5.28281e-07
8.1097e-07
1.03183e-06
1.14431e-06
1.11071e-06
8.87699e-07
4.02881e-07
0
0
0
0
0
0
2.75139e-07
3.1995e-07
2.63531e-07
2.1079e-07
1.75559e-07
1.49402e-07
9.72903e-08
3.10279e-07
0
0
0
0
0
0
0
0
0
0
4.80297e-08
6.10352e-07
3.4014e-07
1.14594e-07
0
0
0
0
0
0
0
0
0
4.94422e-07
2.80924e-07
1.53972e-07
1.1146e-07
9.1854e-08
8.16966e-08
7.35152e-08
6.13707e-08
4.3881e-08
1.63812e-08
0
0
0
0
1.16725e-06
1.0363e-06
7.71786e-07
5.93239e-07
4.32725e-07
3.09833e-07
1.98043e-07
1.14089e-07
5.10106e-08
9.6729e-09
0
0
0
0
0
0
0
0
0
0
0
0
0
0
0
0
0
0
0
0
0
0
0
0
0
0
0
9.6979e-09
1.65429e-08
2.14693e-08
3.44384e-08
5.13144e-08
6.37304e-08
8.15385e-08
9.71748e-08
8.36286e-08
4.90223e-08
1.00794e-08
0
0
0
0
2.39448e-08
3.93132e-08
4.59072e-08
5.46779e-08
8.47249e-08
8.9077e-08
0
0
0
0
0
0
0
2.33936e-08
5.75999e-08
6.91696e-08
5.49247e-08
3.10342e-08
8.87168e-09
0
0
0
0
0
2.54461e-09
2.35855e-08
1.33906e-08
2.90614e-09
1.34771e-09
8.90361e-10
2.44137e-09
6.85416e-10
8.36376e-10
0
0
0
0
0
0
0
0
0
0
0
0
0
0
0
0
0
0
1.96204e-07
6.48066e-07
9.85153e-07
1.08191e-06
1.08165e-06
1.20309e-06
1.62514e-06
2.34987e-06
2.78585e-06
2.62995e-06
2.2684e-06
2.10439e-06
2.11555e-06
2.06789e-06
1.71269e-06
9.93173e-07
1.43623e-07
0
0
0
0
1.42296e-07
5.99537e-07
1.05668e-06
1.45694e-06
1.7184e-06
1.69938e-06
1.32035e-06
2.65032e-07
0
0
0
0
1.49734e-07
2.00521e-07
1.61301e-07
1.13869e-07
6.14909e-08
0
0
0
0
0
4.9957e-08
0
0
0
0
0
0
1.36086e-06
1.29144e-06
8.64449e-07
4.59079e-07
1.70137e-07
0
0
0
0
0
0
0
0
5.88466e-07
2.53844e-07
1.48976e-07
1.19461e-07
9.23845e-08
7.52453e-08
6.62759e-08
5.60254e-08
3.94505e-08
5.54937e-09
0
0
0
0
2.12434e-06
1.60082e-06
1.27486e-06
1.02184e-06
7.96071e-07
5.95479e-07
4.18033e-07
2.50844e-07
1.0892e-07
3.64561e-09
0
0
0
0
0
0
0
0
0
0
0
0
0
0
0
0
0
0
0
0
0
0
0
0
0
0
7.62683e-09
2.24382e-08
4.09686e-08
5.6515e-08
7.76989e-08
1.16701e-07
1.51151e-07
1.60547e-07
1.73313e-07
1.90771e-07
1.81832e-07
1.65047e-07
1.44821e-07
9.25947e-08
8.11584e-09
5.89584e-09
4.02311e-08
5.42121e-08
6.20857e-08
6.24382e-08
6.37799e-08
8.19596e-08
6.41785e-08
0
0
0
0
0
0
1.40121e-08
4.53007e-08
6.59603e-08
7.00134e-08
5.16974e-08
2.30154e-08
0
0
0
0
0
0
1.06711e-09
2.6647e-08
1.95721e-08
8.32756e-09
2.55539e-09
9.97794e-10
0
0
0
0
0
0
0
0
0
0
0
0
0
0
0
0
0
0
0
5.71555e-08
3.23271e-07
4.12171e-07
3.75594e-07
3.32665e-07
3.70884e-07
5.31119e-07
7.7132e-07
9.72217e-07
1.11136e-06
1.3939e-06
1.99877e-06
2.95219e-06
4.06e-06
4.7149e-06
3.64672e-06
4.3593e-07
0
0
0
0
0
0
0
0
0
1.56272e-07
8.88195e-07
1.431e-06
1.47023e-06
7.76405e-07
0
0
0
0
5.24649e-09
8.20788e-08
5.09307e-08
0
0
0
0
0
0
0
1.19372e-07
1.7738e-08
0
0
0
8.57169e-07
2.14383e-06
1.68619e-06
1.10877e-06
6.86478e-07
4.34524e-07
3.56152e-07
5.51009e-07
1.29812e-06
0
0
0
0
5.56897e-07
4.39233e-07
1.62406e-07
1.1163e-07
1.01053e-07
7.30659e-08
6.04287e-08
6.22321e-08
6.26141e-08
5.71152e-08
3.3652e-08
0
0
0
0
3.69469e-07
8.35553e-07
9.09009e-07
8.58917e-07
7.6161e-07
6.18352e-07
4.71312e-07
3.22067e-07
1.7115e-07
2.92668e-08
0
0
0
0
0
0
0
0
0
0
0
0
0
0
0
0
0
0
0
0
0
0
0
0
0
1.30111e-08
3.30144e-08
5.17667e-08
8.00799e-08
1.14314e-07
1.4451e-07
1.87349e-07
2.41072e-07
2.67764e-07
2.6913e-07
2.70241e-07
2.71097e-07
2.63938e-07
2.64974e-07
2.53222e-07
2.01675e-07
9.49281e-08
6.79175e-08
7.71166e-08
7.86457e-08
8.07327e-08
7.4748e-08
6.78428e-08
6.69218e-08
1.5462e-08
0
0
0
0
0
2.02954e-08
4.71781e-08
6.27395e-08
6.89847e-08
6.31651e-08
4.04738e-08
1.02604e-08
0
0
0
0
0
0
3.02667e-09
2.45282e-08
2.27572e-08
1.12245e-08
3.96472e-09
0
0
0
0
0
0
0
0
0
0
0
0
0
0
0
0
0
0
0
1.53795e-07
1.97185e-07
1.63207e-07
1.26987e-07
1.24959e-07
1.48361e-07
1.66163e-07
1.61052e-07
2.23224e-07
4.93465e-07
1.08233e-06
2.09624e-06
3.67347e-06
5.95425e-06
8.87039e-06
5.09878e-06
0
0
0
0
0
0
0
0
0
0
0
0
7.16921e-08
8.27143e-07
9.59388e-07
8.75208e-08
0
3.9656e-07
0
0
1.83509e-08
3.39197e-08
0
0
0
0
0
0
0
0
0
0
0
4.7278e-08
1.62782e-06
1.89091e-06
1.45575e-06
1.03034e-06
7.59747e-07
7.00441e-07
1.0303e-06
2.33312e-06
2.24583e-06
0
0
0
0
7.0933e-07
3.09682e-07
8.14185e-08
7.12783e-08
8.51983e-08
5.95069e-08
5.03995e-08
6.06411e-08
7.2275e-08
8.81308e-08
9.36247e-08
0
0
0
0
0
4.27051e-09
3.11269e-07
4.29848e-07
4.50652e-07
4.16517e-07
3.66389e-07
3.07293e-07
2.15321e-07
9.37042e-08
0
0
0
0
0
0
0
0
0
0
0
0
0
0
0
0
0
0
0
0
0
0
0
0
1.29235e-08
4.95464e-08
8.62262e-08
1.18861e-07
1.58071e-07
2.13261e-07
2.643e-07
3.03106e-07
3.40193e-07
3.62844e-07
3.60436e-07
3.4495e-07
3.3393e-07
3.28026e-07
3.31532e-07
3.45373e-07
3.37593e-07
2.83094e-07
1.60573e-07
1.16398e-07
1.04274e-07
9.80951e-08
9.28634e-08
7.94213e-08
6.07783e-08
2.78403e-08
0
0
0
0
3.90139e-09
4.04376e-08
6.3038e-08
7.20432e-08
7.0256e-08
6.38463e-08
5.06888e-08
2.54795e-08
0
0
0
0
0
0
0
6.28017e-09
2.20455e-08
2.17236e-08
1.26456e-08
1.14878e-09
0
0
0
0
0
0
0
0
0
0
0
0
0
0
0
0
0
7.71432e-08
9.60207e-08
5.44778e-08
1.6376e-08
6.04997e-09
5.37822e-09
0
0
0
5.57893e-08
2.9499e-07
6.70362e-07
1.12291e-06
1.4757e-06
1.31943e-06
0
0
0
0
0
0
0
0
0
0
0
0
0
0
0
0
5.75638e-07
3.15637e-07
0
0
7.84411e-08
0
1.61747e-09
2.91758e-08
0
0
0
0
0
0
0
0
0
0
0
6.05135e-07
1.24403e-06
1.22777e-06
9.75979e-07
7.70969e-07
7.2426e-07
9.32145e-07
1.46482e-06
1.70436e-06
7.8389e-07
0
0
0
0
5.12746e-07
2.73868e-07
4.39481e-08
3.01546e-08
4.82683e-08
1.82599e-08
6.29164e-09
1.81303e-08
2.93949e-08
2.99413e-08
0
0
0
0
0
0
0
0
0
9.6267e-09
8.18601e-08
1.69561e-07
2.33234e-07
2.08575e-07
1.2043e-07
1.47654e-08
0
0
0
0
0
2.35319e-08
2.35547e-08
5.57664e-09
0
0
0
0
0
0
0
0
0
0
0
0
0
0
0
4.35915e-08
1.00586e-07
1.59581e-07
2.15964e-07
2.70568e-07
3.33646e-07
3.88529e-07
4.20675e-07
4.32653e-07
4.26618e-07
4.07398e-07
3.86456e-07
3.69327e-07
3.56701e-07
3.5852e-07
3.85154e-07
4.07007e-07
4.00526e-07
3.32174e-07
2.01914e-07
1.47912e-07
1.21539e-07
1.10708e-07
9.58862e-08
7.29443e-08
3.84187e-08
0
0
0
0
4.45784e-08
8.19983e-08
9.81296e-08
9.72821e-08
8.4808e-08
6.81183e-08
5.40751e-08
3.66202e-08
8.4971e-09
0
0
0
0
0
0
0
9.76998e-09
1.91305e-08
1.9671e-08
9.40771e-09
0
0
0
0
0
0
0
0
0
0
0
0
0
0
0
0
7.30809e-08
6.87737e-08
8.77381e-09
0
0
0
0
0
0
0
0
0
0
0
0
0
0
0
0
0
0
0
0
0
0
0
0
0
0
0
0
0
3.59536e-07
3.68679e-07
0
0
0
0
2.5423e-08
2.48286e-08
0
0
0
0
0
0
0
0
0
0
0
5.03906e-07
7.95256e-07
7.28746e-07
5.82165e-07
5.56594e-07
6.86375e-07
9.37383e-07
1.09416e-06
8.21604e-07
2.35383e-07
0
0
0
0
2.74568e-07
2.9989e-07
4.53692e-08
0
2.10496e-08
0
0
0
0
0
0
0
0
0
0
0
0
0
0
0
0
0
1.12809e-07
1.66294e-07
1.15082e-07
3.17148e-08
0
0
0
0
5.16333e-08
8.26036e-08
7.46791e-08
4.4106e-08
1.99057e-09
0
0
0
0
0
0
0
0
0
0
0
0
0
0
7.39504e-08
1.52323e-07
2.28837e-07
2.98697e-07
3.59398e-07
4.12639e-07
4.41742e-07
4.56671e-07
4.59527e-07
4.41482e-07
4.08167e-07
3.80743e-07
3.67367e-07
3.58869e-07
3.54451e-07
3.78338e-07
4.25893e-07
4.46357e-07
4.34636e-07
3.39249e-07
2.20479e-07
1.62186e-07
1.29941e-07
1.1334e-07
8.8194e-08
5.72133e-08
1.70317e-08
0
0
8.06617e-08
1.53625e-07
1.76856e-07
1.72342e-07
1.51271e-07
1.21739e-07
9.0202e-08
6.47835e-08
4.62118e-08
2.15023e-08
0
0
0
0
0
0
0
1.19295e-09
1.05147e-08
1.64074e-08
1.40867e-08
5.37026e-09
0
0
0
1.86699e-07
0
0
0
0
0
0
0
0
1.51914e-08
9.14291e-08
1.22847e-07
9.31226e-08
5.39442e-09
0
0
0
0
3.89502e-08
5.32811e-08
3.24411e-08
0
0
0
0
0
0
0
0
0
0
0
0
0
0
0
0
0
0
0
0
0
0
0
3.16838e-07
3.66852e-07
0
0
0
9.47926e-08
6.81452e-08
2.41654e-08
0
0
0
0
0
0
0
0
0
0
0
1.46346e-07
4.76132e-07
4.68351e-07
4.18797e-07
4.66824e-07
6.10412e-07
7.60969e-07
7.3929e-07
4.97173e-07
1.25996e-07
0
0
0
0
0
3.4518e-07
1.11155e-07
0
0
0
0
0
0
0
0
0
0
0
0
0
0
0
0
0
0
0
1.56255e-08
1.25766e-07
1.08366e-07
4.78665e-08
0
0
0
6.5565e-08
1.59302e-07
1.76687e-07
1.43685e-07
9.03695e-08
2.96038e-08
0
0
0
0
0
0
0
0
0
0
0
0
0
0
7.75602e-08
1.62689e-07
2.43714e-07
3.12365e-07
3.69082e-07
4.14022e-07
4.24843e-07
4.14406e-07
4.11111e-07
4.07033e-07
3.89784e-07
3.68965e-07
3.58226e-07
3.56981e-07
3.5618e-07
3.62118e-07
4.11889e-07
4.60006e-07
4.77356e-07
4.43227e-07
3.22783e-07
2.24255e-07
1.65398e-07
1.35021e-07
1.092e-07
7.8641e-08
5.3926e-08
5.19073e-08
1.10828e-07
2.7379e-07
4.17247e-07
4.10805e-07
3.46665e-07
2.73043e-07
2.06069e-07
1.50425e-07
1.06334e-07
7.34272e-08
4.13853e-08
0
0
0
0
0
0
0
0
3.64702e-09
8.99553e-09
1.0434e-08
9.67388e-09
4.31755e-10
0
0
1.19701e-06
4.26536e-07
1.04682e-07
5.30285e-09
0
1.53508e-08
5.92787e-08
1.18956e-07
1.72947e-07
2.1592e-07
2.31253e-07
1.90412e-07
8.98361e-08
0
0
0
0
2.84641e-09
9.88248e-08
1.61623e-07
1.5986e-07
6.09538e-08
0
0
0
0
0
0
0
0
0
0
0
0
0
0
2.72745e-07
6.22275e-07
5.91756e-07
4.44489e-07
3.07716e-07
1.10094e-07
0
4.08805e-08
2.9201e-07
3.20774e-07
0
0
0
2.07266e-07
1.01528e-07
2.17211e-08
0
0
0
0
0
0
0
0
0
0
0
0
2.28638e-07
3.62847e-07
3.61779e-07
4.02732e-07
4.81246e-07
5.32003e-07
4.70197e-07
3.1632e-07
1.29894e-07
0
0
0
0
0
1.317e-07
2.50673e-07
2.82779e-08
0
0
0
0
0
0
0
0
0
0
0
0
0
0
0
0
0
0
8.76446e-08
1.40862e-07
1.18165e-07
6.3616e-08
8.70846e-09
4.2349e-09
1.01511e-07
2.60569e-07
3.62355e-07
3.27839e-07
2.38815e-07
1.44294e-07
5.44606e-08
0
0
0
0
0
0
0
0
0
0
0
0
0
1.00203e-08
6.61913e-08
1.27738e-07
1.85732e-07
2.3555e-07
2.79451e-07
3.1764e-07
3.43546e-07
3.46611e-07
3.47015e-07
3.52526e-07
3.57144e-07
3.57212e-07
3.54862e-07
3.60708e-07
3.68985e-07
3.73222e-07
3.92853e-07
4.4885e-07
4.82954e-07
4.87108e-07
4.06453e-07
2.91673e-07
2.14573e-07
1.63113e-07
1.34324e-07
1.02985e-07
8.57978e-08
1.09981e-07
1.95075e-07
3.33171e-07
4.55281e-07
5.09208e-07
5.4122e-07
4.78296e-07
3.63825e-07
2.66341e-07
1.98318e-07
1.4625e-07
9.25584e-08
1.8312e-08
0
0
0
0
0
0
0
0
1.3183e-09
2.42696e-09
6.57812e-09
5.3301e-09
3.30994e-09
0
3.35716e-06
7.97175e-07
2.88181e-07
2.50846e-07
2.75418e-07
3.17929e-07
3.53581e-07
3.82525e-07
3.81064e-07
3.58852e-07
3.18696e-07
2.38455e-07
1.14953e-07
0
0
0
0
3.04752e-09
1.4564e-07
2.67791e-07
3.23714e-07
2.79908e-07
1.29414e-07
0
0
0
0
0
0
0
0
0
0
0
4.72155e-07
2.35258e-06
2.04915e-06
1.42011e-06
8.74278e-07
4.82004e-07
2.59693e-07
1.27201e-07
5.1953e-08
1.29147e-07
2.45426e-07
3.01727e-07
3.42198e-07
1.60772e-07
4.36753e-07
3.37298e-07
1.26398e-07
2.47581e-08
0
0
0
0
0
0
0
0
0
0
0
0
9.2261e-08
3.07463e-07
3.39315e-07
3.33207e-07
3.43479e-07
3.31815e-07
2.65605e-07
1.82858e-07
1.23454e-07
2.68811e-08
0
0
0
0
0
1.80178e-07
2.18872e-07
1.04387e-07
9.88393e-09
0
0
0
0
0
0
0
2.06498e-07
6.38378e-07
6.89619e-07
3.36391e-07
0
0
0
0
5.90401e-08
1.38182e-07
1.61714e-07
1.34932e-07
8.01676e-08
4.30089e-08
1.17101e-07
3.5453e-07
5.90443e-07
6.30845e-07
4.97209e-07
3.50696e-07
2.11543e-07
8.22393e-08
0
0
0
0
0
0
0
0
0
0
0
0
0
2.7297e-08
7.61048e-08
1.27574e-07
1.75497e-07
2.12791e-07
2.43602e-07
2.76016e-07
3.04876e-07
3.22819e-07
3.3177e-07
3.39403e-07
3.49627e-07
3.57616e-07
3.64883e-07
3.76785e-07
3.9113e-07
4.02605e-07
4.11502e-07
4.46714e-07
4.84775e-07
5.0112e-07
4.63744e-07
3.52722e-07
2.67474e-07
2.04629e-07
1.66324e-07
1.34892e-07
1.21192e-07
1.60727e-07
2.62394e-07
3.76421e-07
4.67811e-07
4.80333e-07
4.44393e-07
4.81339e-07
4.81731e-07
3.9445e-07
3.07983e-07
2.45424e-07
1.80661e-07
7.03287e-08
0
0
0
0
0
0
0
0
0
0
0
1.90349e-09
1.1332e-08
5.40607e-09
4.04106e-06
8.96714e-07
2.45847e-07
2.44334e-07
3.59792e-07
4.50066e-07
5.231e-07
5.52681e-07
5.38464e-07
4.65104e-07
3.73819e-07
2.64054e-07
1.38288e-07
7.63389e-09
0
0
0
5.32318e-10
1.39879e-07
2.80529e-07
3.74651e-07
3.89158e-07
3.13292e-07
1.50375e-07
0
0
0
0
0
0
0
0
0
0
4.89506e-06
3.18956e-06
1.88771e-06
1.08315e-06
5.90772e-07
2.94362e-07
1.65156e-07
1.46682e-07
1.6076e-07
1.96236e-07
2.6318e-07
4.94188e-07
1.20061e-06
1.45704e-06
9.72008e-07
3.6683e-07
1.23993e-07
3.432e-08
0
0
0
0
0
0
0
0
0
0
0
0
1.17096e-07
2.30101e-07
2.60948e-07
2.43509e-07
2.14135e-07
1.73659e-07
1.14919e-07
7.24823e-08
7.58209e-08
9.04731e-08
6.6347e-09
0
0
0
0
0
1.71992e-07
3.03318e-07
2.76391e-07
2.10395e-07
2.12801e-07
3.56727e-07
6.51335e-07
1.05917e-06
1.54258e-06
2.09477e-06
2.61349e-06
2.78175e-06
2.25966e-06
1.14965e-06
8.7938e-08
0
0
0
2.5352e-08
1.59062e-07
2.05254e-07
1.81794e-07
1.23158e-07
1.20171e-07
3.42896e-07
7.37183e-07
9.57864e-07
8.83191e-07
6.69755e-07
4.7387e-07
2.87933e-07
1.14764e-07
0
0
0
0
0
0
0
0
0
0
0
0
0
4.18545e-08
9.30427e-08
1.45176e-07
1.92972e-07
2.29516e-07
2.55639e-07
2.79205e-07
3.05473e-07
3.25038e-07
3.35349e-07
3.43047e-07
3.55274e-07
3.68346e-07
3.79667e-07
3.9259e-07
4.09331e-07
4.25681e-07
4.38846e-07
4.60987e-07
4.91178e-07
5.05885e-07
4.92926e-07
4.01046e-07
3.07211e-07
2.44989e-07
2.01093e-07
1.73259e-07
1.62183e-07
2.10859e-07
3.18909e-07
4.16911e-07
4.70158e-07
4.98762e-07
4.73213e-07
4.06243e-07
4.09087e-07
4.03634e-07
3.41388e-07
2.73147e-07
1.99454e-07
7.72249e-08
0
0
0
0
0
0
0
0
0
0
0
0
7.85257e-09
1.50884e-08
2.93395e-06
1.44369e-06
3.79839e-07
2.23263e-07
3.16525e-07
4.22024e-07
4.99055e-07
5.59468e-07
5.55564e-07
4.89908e-07
3.80893e-07
2.57704e-07
1.32275e-07
1.53956e-08
0
0
0
0
6.25886e-08
1.90303e-07
3.06514e-07
3.70614e-07
3.6502e-07
2.90035e-07
1.48845e-07
0
0
0
0
0
0
0
0
1.9781e-06
2.31705e-06
1.54149e-06
8.91889e-07
4.77883e-07
2.35229e-07
1.11014e-07
1.17989e-07
2.12817e-07
2.77755e-07
2.89757e-07
4.24496e-07
1.0918e-06
1.91358e-06
1.38786e-06
8.67559e-07
3.1215e-07
1.18345e-07
4.81147e-08
1.96034e-08
1.16857e-08
1.32392e-08
1.37344e-08
9.72941e-09
2.74943e-09
0
0
0
0
0
0
2.22217e-07
2.08396e-07
1.46466e-07
1.15298e-07
8.84034e-08
5.16078e-08
9.61147e-09
0
1.09675e-08
6.47935e-08
9.35059e-08
1.75355e-09
0
0
0
0
0
1.75055e-07
3.87901e-07
5.02582e-07
6.80085e-07
1.05846e-06
1.68957e-06
2.5748e-06
3.64537e-06
4.90592e-06
5.88937e-06
6.03717e-06
4.60581e-06
1.87223e-06
0
0
0
0
7.6277e-09
1.87035e-07
2.59697e-07
2.38183e-07
1.75266e-07
2.58608e-07
7.28916e-07
1.19158e-06
1.29306e-06
1.07378e-06
8.38697e-07
6.19491e-07
3.82769e-07
1.6236e-07
0
0
0
0
0
0
0
0
0
0
0
0
0
6.26347e-08
1.20397e-07
1.74069e-07
2.21624e-07
2.56784e-07
2.79403e-07
2.96082e-07
3.16397e-07
3.36216e-07
3.48092e-07
3.56643e-07
3.69631e-07
3.86172e-07
4.00342e-07
4.13245e-07
4.28535e-07
4.4506e-07
4.62021e-07
4.84582e-07
5.0514e-07
5.10312e-07
5.03045e-07
4.37938e-07
3.3895e-07
2.73442e-07
2.30193e-07
2.10018e-07
2.05999e-07
2.61533e-07
3.69324e-07
4.51425e-07
4.62018e-07
4.59892e-07
4.66542e-07
4.55927e-07
4.00387e-07
3.65781e-07
3.08149e-07
2.21166e-07
1.09797e-07
0
0
0
0
0
0
0
0
0
0
0
0
0
0
1.06408e-08
1.4463e-06
1.90317e-06
5.83742e-07
2.49428e-07
2.52526e-07
3.07681e-07
3.40313e-07
4.02962e-07
4.39546e-07
4.11228e-07
3.36012e-07
2.32483e-07
1.23531e-07
2.14802e-08
0
0
0
0
0
3.79407e-08
1.32939e-07
2.26574e-07
2.84289e-07
2.958e-07
2.61731e-07
1.86975e-07
7.54654e-08
0
0
0
0
0
2.87695e-07
7.47573e-07
7.23977e-07
4.72478e-07
2.38527e-07
9.95818e-08
4.01473e-08
6.28758e-08
2.02891e-07
3.6844e-07
4.16913e-07
4.51896e-07
8.80139e-07
1.85142e-06
1.50108e-06
1.03484e-06
5.86623e-07
2.29487e-07
1.08791e-07
6.0496e-08
4.13285e-08
3.58706e-08
3.57389e-08
3.47655e-08
3.35518e-08
2.88052e-08
2.91558e-08
1.91074e-08
0
0
0
0
6.19879e-08
1.81761e-07
5.30539e-08
0
0
0
0
0
0
1.29296e-08
7.60596e-08
1.0635e-07
1.69663e-08
0
0
0
0
0
1.84253e-07
4.74319e-07
8.35658e-07
1.38413e-06
2.33446e-06
3.60037e-06
5.36394e-06
7.47792e-06
9.58283e-06
1.09997e-05
9.10603e-06
2.76952e-06
0
0
0
0
8.81879e-08
2.76353e-07
3.38704e-07
2.88469e-07
2.29604e-07
5.2534e-07
1.2463e-06
1.61407e-06
1.54008e-06
1.25133e-06
1.02828e-06
7.87104e-07
4.88106e-07
2.3501e-07
0
0
0
0
0
0
0
0
0
0
0
0
3.81958e-09
1.11414e-07
1.86832e-07
2.39163e-07
2.79301e-07
3.05357e-07
3.17572e-07
3.25302e-07
3.36001e-07
3.49149e-07
3.60606e-07
3.70736e-07
3.8679e-07
4.07206e-07
4.24028e-07
4.36255e-07
4.48279e-07
4.62252e-07
4.7885e-07
5.03517e-07
5.20463e-07
5.15095e-07
5.03449e-07
4.54792e-07
3.62027e-07
2.89548e-07
2.48527e-07
2.37507e-07
2.469e-07
3.1099e-07
4.17622e-07
4.7855e-07
4.51276e-07
3.98365e-07
3.56583e-07
3.37638e-07
3.34246e-07
2.96725e-07
1.93301e-07
5.62234e-08
0
0
0
0
5.07881e-08
0
0
0
0
0
0
0
0
0
0
0
4.65583e-07
1.83832e-06
5.2498e-07
1.50618e-07
6.82e-08
2.15298e-08
6.03255e-08
1.42624e-07
1.96783e-07
2.12913e-07
1.83366e-07
1.25437e-07
5.20333e-08
0
0
0
0
0
0
0
0
4.44589e-08
1.08984e-07
1.67953e-07
2.09356e-07
2.31901e-07
2.37398e-07
2.33468e-07
2.25615e-07
2.2437e-07
2.35469e-07
2.727e-07
2.94598e-07
2.15019e-07
6.02861e-08
0
0
0
0
1.44272e-07
4.11937e-07
5.66361e-07
5.88222e-07
8.2355e-07
1.69634e-06
1.59167e-06
1.00213e-06
8.06377e-07
3.72928e-07
1.81726e-07
1.10077e-07
7.47027e-08
6.02993e-08
5.7777e-08
5.68235e-08
5.41438e-08
5.07174e-08
4.88603e-08
4.66537e-08
4.87666e-08
2.67445e-08
0
0
0
0
0
0
0
0
0
0
0
0
0
3.6934e-08
9.3379e-08
1.21126e-07
5.85486e-08
0
0
0
0
0
2.78596e-07
6.9071e-07
1.26416e-06
2.2423e-06
3.55828e-06
5.52435e-06
7.84117e-06
1.07782e-05
1.4329e-05
1.52617e-05
2.24836e-06
0
0
0
0
2.52212e-07
3.82916e-07
3.91317e-07
2.89246e-07
2.79577e-07
1.0013e-06
1.76621e-06
1.94695e-06
1.69715e-06