/*--------------------------------*- C++ -*----------------------------------*\
  =========                 |
  \\      /  F ield         | OpenFOAM: The Open Source CFD Toolbox
   \\    /   O peration     | Website:  https://openfoam.org
    \\  /    A nd           | Version:  7
     \\/     M anipulation  |
\*---------------------------------------------------------------------------*/
FoamFile
{
    version     2.0;
    format      ascii;
    class       volScalarField;
    location    "0.09";
    object      pMean;
}
// * * * * * * * * * * * * * * * * * * * * * * * * * * * * * * * * * * * * * //

dimensions      [0 2 -2 0 0 0 0];

internalField   nonuniform List<scalar> 
12225
(
-2.57389
-1.41262
-0.978283
-0.865614
-0.807445
-0.764584
-0.739176
-0.734615
-0.747516
-0.7706
-0.796542
-0.820468
-0.839794
-0.856494
-0.872853
-0.904823
-0.958078
-1.13214
-2.24674
-1.40142
-0.982177
-0.861986
-0.808332
-0.768177
-0.742834
-0.737143
-0.748757
-0.770593
-0.795668
-0.818532
-0.837951
-0.852863
-0.871498
-0.893117
-0.948622
-1.00645
-2.07693
-1.42086
-1.00596
-0.864266
-0.810878
-0.772713
-0.746206
-0.737726
-0.746053
-0.764869
-0.787295
-0.808999
-0.827525
-0.844503
-0.861439
-0.886789
-0.922425
-0.979009
-1.87986
-1.38553
-1.00562
-0.853436
-0.802019
-0.769029
-0.744337
-0.734545
-0.740594
-0.757113
-0.77805
-0.798747
-0.817937
-0.835206
-0.85447
-0.877579
-0.911129
-0.955224
-1.71086
-1.34915
-1.01115
-0.851004
-0.796201
-0.766422
-0.743608
-0.732702
-0.736228
-0.750431
-0.769536
-0.789454
-0.808317
-0.826678
-0.846158
-0.869659
-0.899455
-0.935614
-1.55387
-1.29559
-1.00423
-0.843105
-0.783672
-0.756781
-0.737363
-0.726826
-0.728752
-0.741048
-0.758875
-0.778226
-0.797333
-0.816331
-0.836495
-0.859873
-0.887449
-0.920036
-1.41175
-1.23188
-0.98866
-0.833744
-0.769911
-0.744751
-0.728979
-0.71984
-0.72079
-0.731422
-0.747954
-0.766789
-0.786038
-0.805647
-0.826419
-0.849734
-0.876297
-0.906721
-1.27931
-1.15916
-0.962539
-0.819658
-0.753317
-0.728706
-0.716265
-0.709253
-0.710088
-0.719605
-0.735269
-0.75385
-0.773362
-0.793549
-0.814906
-0.838489
-0.864771
-0.894387
-1.15919
-1.08225
-0.926917
-0.799857
-0.733992
-0.709395
-0.699783
-0.695516
-0.697227
-0.706224
-0.721184
-0.739598
-0.759532
-0.780423
-0.8025
-0.826551
-0.852986
-0.882454
-1.04639
-1.00171
-0.881744
-0.77294
-0.710885
-0.686603
-0.679217
-0.677781
-0.681076
-0.690363
-0.705166
-0.723612
-0.743978
-0.765571
-0.788423
-0.813108
-0.839994
-0.869675
-0.937753
-0.918477
-0.82824
-0.738527
-0.683163
-0.660285
-0.654866
-0.656301
-0.661814
-0.672053
-0.687128
-0.705913
-0.726916
-0.749351
-0.773064
-0.79848
-0.825885
-0.855832
-0.848108
-0.841382
-0.772473
-0.699858
-0.652559
-0.632334
-0.628828
-0.632787
-0.640677
-0.652425
-0.668285
-0.687587
-0.70922
-0.732448
-0.756985
-0.783095
-0.810983
-0.84112
-0.759989
-0.763883
-0.712754
-0.655831
-0.617399
-0.600957
-0.599732
-0.60622
-0.616574
-0.630202
-0.647271
-0.667479
-0.689975
-0.714083
-0.739454
-0.766253
-0.794567
-0.824781
-0.650154
-0.670792
-0.638353
-0.597546
-0.569862
-0.559312
-0.561651
-0.571338
-0.584881
-0.601158
-0.620108
-0.641619
-0.665195
-0.690341
-0.716686
-0.744254
-0.773011
-0.803234
-0.535436
-0.566351
-0.548332
-0.522848
-0.507383
-0.504851
-0.512357
-0.52608
-0.54328
-0.562842
-0.584518
-0.608179
-0.633462
-0.659995
-0.687438
-0.715776
-0.74491
-0.775051
-0.407276
-0.442029
-0.436447
-0.426125
-0.424298
-0.432045
-0.446874
-0.466258
-0.48837
-0.512244
-0.537501
-0.56399
-0.591502
-0.61982
-0.648669
-0.677966
-0.707543
-0.73744
-0.264009
-0.297758
-0.299932
-0.30376
-0.316752
-0.336953
-0.361387
-0.38829
-0.416723
-0.446178
-0.476311
-0.506882
-0.537668
-0.5685
-0.599201
-0.629725
-0.659963
-0.690007
-0.0693502
-0.114931
-0.131704
-0.151064
-0.179836
-0.214669
-0.251551
-0.288558
-0.325156
-0.361311
-0.396996
-0.432132
-0.466585
-0.500305
-0.533212
-0.56531
-0.596439
-0.626604
0.194296
0.129531
0.0909446
0.0500653
0.00052252
-0.0537076
-0.107852
-0.159801
-0.209273
-0.256562
-0.301808
-0.344945
-0.385847
-0.42452
-0.46106
-0.49572
-0.52863
-0.56004
0.441995
0.371073
0.315145
0.24998
0.176115
0.101767
0.0325855
-0.0304342
-0.088619
-0.143376
-0.195352
-0.244619
-0.291055
-0.334663
-0.37552
-0.413796
-0.449583
-0.48309
0.678145
0.596913
0.517447
0.421949
0.3192
0.221051
0.132814
0.0539732
-0.0176087
-0.0833765
-0.143739
-0.198809
-0.248936
-0.294776
-0.336961
-0.376081
-0.412421
-0.446303
0.924386
0.820093
0.705351
0.575387
0.448574
0.337329
0.242049
0.157191
0.0783921
0.00452847
-0.0637432
-0.125871
-0.182083
-0.233107
-0.279683
-0.322473
-0.361891
-0.398331
1.19897
1.04798
0.874588
0.693146
0.530982
0.397722
0.287749
0.191868
0.105078
0.0263817
-0.0440723
-0.106746
-0.162764
-0.213468
-0.259807
-0.302344
-0.341307
-0.377065
1.48193
1.28092
1.04426
0.821534
0.643542
0.505509
0.388583
0.280352
0.179416
0.0887229
0.00968445
-0.0590171
-0.119733
-0.174357
-0.223945
-0.269145
-0.310395
-0.348221
1.76004
1.47214
1.13333
0.854636
0.660771
0.520894
0.400886
0.289035
0.186749
0.0969569
0.0194236
-0.0482935
-0.108642
-0.163185
-0.212667
-0.257578
-0.29828
-0.335308
2.13418
1.71921
1.27668
0.958755
0.758307
0.608795
0.470263
0.33999
0.225632
0.12955
0.0484283
-0.0221449
-0.0850522
-0.141676
-0.192701
-0.23876
-0.280458
-0.318477
2.45358
1.80886
1.26003
0.944418
0.766111
0.619876
0.476982
0.344226
0.230426
0.135614
0.0551112
-0.0154363
-0.0784711
-0.135123
-0.186051
-0.231911
-0.273317
-0.310926
2.96398
2.03235
1.33829
1.00727
0.826225
0.662488
0.504125
0.364219
0.247829
0.151364
0.0691843
-0.00282531
-0.0669187
-0.124256
-0.175627
-0.221749
-0.263368
-0.301181
3.19254
1.99638
1.30204
1.01718
0.839026
0.668055
0.506238
0.366614
0.251156
0.155078
0.0728806
0.000798249
-0.0633026
-0.120553
-0.171813
-0.217712
-0.259077
-0.296389
4.00481
2.04118
1.30231
1.05096
0.860693
0.678802
0.513825
0.373687
0.257769
0.16108
0.0783453
0.00587534
-0.0584873
-0.11591
-0.167288
-0.213235
-0.254576
-0.291652
-1.09028
-1.10811
-1.13384
-1.15487
-1.1652
-1.16626
-1.16343
-1.16403
-1.17593
-1.20562
-1.25716
-1.33118
-1.42497
-1.53371
-1.65078
-1.76861
-1.87972
-1.97731
-2.0559
-2.11188
-2.14349
-2.1511
-2.13728
-2.10641
-2.06378
-2.01469
-1.96381
-1.915
-1.86964
-1.82907
-1.79361
-1.76529
-1.74604
-1.73467
-1.73173
-1.74014
-1.76271
-1.8002
-1.851
-1.91494
-1.98984
-2.07391
-2.16327
-2.25284
-2.3388
-2.42267
-2.50613
-2.58687
-2.65888
-2.7166
-2.75835
-2.78313
-2.7906
-2.78189
-2.75916
-2.72483
-2.68085
-2.62823
-2.56694
-2.49652
-2.41709
-2.33083
-2.24145
-2.15229
-2.06685
-1.9894
-1.92497
-1.87652
-1.84314
-1.8204
-1.80154
-1.78057
-1.75362
-1.71933
-1.677
-1.62772
-1.57479
-1.52293
-1.47847
-1.43888
-1.3909
-1.32261
-1.22751
-1.1028
-0.948112
-0.764566
-0.554254
-0.319893
-0.0646287
0.208047
0.494275
0.790123
1.09173
1.39547
1.698
1.99638
2.28807
2.57094
2.84324
3.10359
3.35087
3.58407
3.80235
4.00495
4.19129
4.36102
4.51404
4.65058
4.77119
4.87664
4.96794
5.0462
5.11262
5.16841
5.21468
5.25245
5.28265
5.30605
5.32332
5.33503
5.34166
5.34363
5.34131
5.3351
5.32536
5.31248
5.29689
5.27898
5.25921
5.238
5.21579
5.193
5.17001
5.14718
5.12482
5.10318
5.08245
5.06276
5.04417
5.02671
5.01033
4.99498
4.98062
4.96715
4.95451
4.94266
4.93155
4.9212
4.91161
4.90275
4.89459
4.88704
4.87999
4.87333
4.86696
4.86082
4.85485
4.849
4.84326
4.8376
4.83203
4.82655
4.82118
4.81595
4.81089
4.80607
4.80153
4.7974
4.79375
4.7908
4.78865
4.78775
4.78817
4.79082
4.79578
4.8048
4.81811
4.83903
4.87065
4.90906
-1.16807
-1.18686
-1.21732
-1.24236
-1.256
-1.25868
-1.2586
-1.26207
-1.27828
-1.31336
-1.37058
-1.44988
-1.54839
-1.66105
-1.78123
-1.90161
-2.01491
-2.11449
-2.19471
-2.25127
-2.28178
-2.28633
-2.26754
-2.23015
-2.1801
-2.1238
-2.06688
-2.01368
-1.96706
-1.9291
-1.90133
-1.88288
-1.87436
-1.87687
-1.88779
-1.9048
-1.93307
-1.97851
-2.03462
-2.0955
-2.16849
-2.25099
-2.33854
-2.42666
-2.51323
-2.60009
-2.68484
-2.76514
-2.83437
-2.88761
-2.92346
-2.94215
-2.94396
-2.92987
-2.90228
-2.86341
-2.81497
-2.75837
-2.69448
-2.62321
-2.54427
-2.45889
-2.36945
-2.28036
-2.19488
-2.11575
-2.04729
-1.99211
-1.95132
-1.9228
-1.89999
-1.87638
-1.84861
-1.81554
-1.77608
-1.73106
-1.68528
-1.64137
-1.60002
-1.55712
-1.5015
-1.42389
-1.31913
-1.18524
-1.02215
-0.830993
-0.613749
-0.37312
-0.112368
0.164943
0.455168
0.754535
1.0593
1.36586
1.6709
1.97148
2.26506
2.54956
2.82331
3.085
3.33353
3.56796
3.78747
3.9913
4.17885
4.34973
4.50381
4.64131
4.76275
4.86893
4.96086
5.03966
5.10656
5.16277
5.20942
5.24753
5.27804
5.30173
5.31927
5.33122
5.33808
5.34025
5.33815
5.33213
5.32257
5.30989
5.29447
5.27674
5.25713
5.23609
5.21402
5.19136
5.16849
5.14576
5.12348
5.10191
5.08124
5.0616
5.04306
5.02565
5.00934
4.99409
4.97982
4.96645
4.95393
4.94218
4.93119
4.92095
4.91145
4.90268
4.89458
4.88707
4.88004
4.87339
4.86703
4.86087
4.85488
4.84902
4.84325
4.83758
4.83199
4.82649
4.82109
4.81583
4.81074
4.80588
4.80129
4.79709
4.79337
4.79031
4.78805
4.78693
4.78717
4.78939
4.79402
4.80199
4.81464
4.83209
4.85971
4.88178
-1.18019
-1.19307
-1.21842
-1.24559
-1.27192
-1.29661
-1.32289
-1.35586
-1.40147
-1.4642
-1.54597
-1.64591
-1.76056
-1.88444
-2.01137
-2.13512
-2.24975
-2.34931
-2.42824
-2.48211
-2.50839
-2.50744
-2.48216
-2.43729
-2.37855
-2.31186
-2.24326
-2.17846
-2.12254
-2.07971
-2.0527
-2.0417
-2.04327
-2.0545
-2.07617
-2.11027
-2.15594
-2.21329
-2.2822
-2.36022
-2.44454
-2.53223
-2.62319
-2.71676
-2.81159
-2.90493
-2.99229
-3.06978
-3.13418
-3.18276
-3.21359
-3.22582
-3.21963
-3.19631
-3.15875
-3.11002
-3.05307
-2.99047
-2.92489
-2.85711
-2.78529
-2.70695
-2.62084
-2.52844
-2.43414
-2.3433
-2.26063
-2.18964
-2.13296
-2.09152
-2.0613
-2.03615
-2.01247
-1.98713
-1.95789
-1.9247
-1.88911
-1.85131
-1.80824
-1.75433
-1.68295
-1.58898
-1.46913
-1.32191
-1.14716
-0.945778
-0.719479
-0.470764
-0.202503
0.0819183
0.37882
0.68439
0.994845
1.30655
1.61619
1.92081
2.21794
2.50556
2.7821
3.04634
3.29731
3.53415
3.75607
3.96233
4.15227
4.32541
4.4816
4.621
4.74412
4.85178
4.94499
5.02493
5.09284
5.14995
5.19742
5.23629
5.26749
5.29183
5.30998
5.32251
5.3299
5.33259
5.33096
5.32541
5.3163
5.30405
5.28906
5.27174
5.25254
5.23188
5.21019
5.18787
5.16531
5.14286
5.12084
5.0995
5.07904
5.0596
5.04126
5.02405
5.00794
4.99289
4.97882
4.96567
4.95337
4.94186
4.93111
4.92108
4.91175
4.90309
4.89504
4.88753
4.88047
4.87376
4.86734
4.86114
4.85509
4.84918
4.84337
4.83764
4.832
4.82644
4.82099
4.81566
4.8105
4.80554
4.80084
4.79649
4.7926
4.78928
4.78674
4.78516
4.78491
4.78622
4.78992
4.79591
4.80629
4.81871
4.83908
4.85082
-1.1786
-1.1838
-1.19989
-1.23294
-1.27884
-1.33326
-1.39523
-1.46614
-1.54814
-1.64228
-1.74878
-1.86792
-1.999
-2.13763
-2.27709
-2.41125
-2.53398
-2.63852
-2.7186
-2.76965
-2.79016
-2.78195
-2.74915
-2.69718
-2.63175
-2.55913
-2.48552
-2.41695
-2.35826
-2.31512
-2.28835
-2.27649
-2.27826
-2.2928
-2.3199
-2.36048
-2.41524
-2.48322
-2.5624
-2.65112
-2.74692
-2.84658
-2.94926
-3.0549
-3.16088
-3.26383
-3.36021
-3.44595
-3.51659
-3.5675
-3.5952
-3.59853
-3.57889
-3.53982
-3.48638
-3.42331
-3.35376
-3.28022
-3.20539
-3.13212
-3.06056
-2.98741
-2.90812
-2.82036
-2.72532
-2.62734
-2.53227
-2.44575
-2.3725
-2.31608
-2.27548
-2.24579
-2.22319
-2.20479
-2.18618
-2.16428
-2.13738
-2.10261
-2.05596
-1.99285
-1.9089
-1.80079
-1.66652
-1.50531
-1.31737
-1.10373
-0.866054
-0.606599
-0.328226
-0.0342349
0.271708
0.585737
0.903996
1.22279
1.53874
1.84891
2.15088
2.44273
2.72304
2.99073
3.24498
3.48508
3.7103
3.91991
4.11319
4.28957
4.44878
4.59095
4.71656
4.82644
4.92162
5.0033
5.07276
5.13126
5.17997
5.21998
5.25224
5.27754
5.29657
5.30991
5.31807
5.32145
5.32049
5.31556
5.30707
5.29542
5.28102
5.2643
5.24569
5.2256
5.20446
5.18266
5.16057
5.13855
5.11691
5.09592
5.07579
5.05665
5.0386
5.02164
5.00579
4.99099
4.97718
4.96429
4.95225
4.94099
4.93047
4.92065
4.9115
4.90297
4.89502
4.88757
4.88054
4.87386
4.86743
4.86122
4.85515
4.84921
4.84336
4.8376
4.83191
4.82631
4.82079
4.81539
4.81014
4.80507
4.80024
4.79573
4.79162
4.78802
4.78513
4.78304
4.78218
4.78255
4.78501
4.78907
4.79662
4.80474
4.81764
4.82056
-1.19071
-1.19724
-1.22277
-1.26863
-1.33284
-1.41107
-1.49868
-1.59551
-1.70447
-1.82522
-1.95666
-2.09894
-2.25058
-2.40654
-2.56077
-2.70749
-2.84086
-2.95425
-3.04133
-3.09652
-3.11806
-3.10803
-3.07161
-3.01547
-2.94659
-2.87161
-2.79667
-2.72732
-2.66826
-2.62344
-2.59492
-2.58265
-2.58575
-2.60397
-2.6374
-2.68628
-2.75007
-2.82724
-2.91587
-3.01355
-3.11717
-3.2243
-3.33387
-3.44499
-3.55583
-3.6636
-3.76488
-3.85531
-3.92982
-3.98295
-4.0101
-4.00907
-3.98054
-3.92767
-3.85606
-3.7718
-3.67924
-3.58259
-3.48752
-3.39844
-3.31685
-3.24034
-3.16477
-3.08609
-3.00207
-2.913
-2.82223
-2.73474
-2.65616
-2.59119
-2.54155
-2.5057
-2.48191
-2.46674
-2.45423
-2.43915
-2.41722
-2.38404
-2.33501
-2.26531
-2.17131
-2.05081
-1.90288
-1.72759
-1.52575
-1.29865
-1.04792
-0.775828
-0.485283
-0.179663
0.137288
0.461633
0.789428
1.11692
1.44069
1.75777
2.06576
2.36285
2.64776
2.91963
3.17783
3.42181
3.65098
3.86466
4.06205
4.24248
4.40553
4.55123
4.68006
4.79283
4.89062
4.97463
5.04618
5.10656
5.15697
5.19851
5.23213
5.25867
5.27882
5.29316
5.30223
5.30648
5.30633
5.30219
5.29446
5.28356
5.26992
5.25397
5.23612
5.2168
5.1964
5.17531
5.1539
5.13249
5.11142
5.09094
5.07127
5.05255
5.0349
5.01835
5.00288
4.98846
4.97501
4.96246
4.95075
4.9398
4.92957
4.92002
4.91109
4.90274
4.89493
4.88757
4.8806
4.87393
4.86752
4.86129
4.85521
4.84924
4.84336
4.83755
4.83181
4.82615
4.82057
4.81508
4.80973
4.80454
4.79956
4.79485
4.7905
4.78658
4.78328
4.78065
4.77905
4.77843
4.77947
4.78161
4.78609
4.79031
4.79615
4.79289
-1.22053
-1.23327
-1.27007
-1.32929
-1.40762
-1.50072
-1.60527
-1.72192
-1.85206
-1.99408
-2.14723
-2.3119
-2.48608
-2.66413
-2.83949
-3.00559
-3.15543
-3.28186
-3.37844
-3.44077
-3.46754
-3.46135
-3.42779
-3.37424
-3.30847
-3.23744
-3.16706
-3.10266
-3.04854
-3.00787
-2.98265
-2.97348
-2.98062
-3.00437
-3.04456
-3.10069
-3.17147
-3.25511
-3.34924
-3.45105
-3.55782
-3.66747
-3.7787
-3.89045
-4.00112
-4.10832
-4.20871
-4.29805
-4.37111
-4.42213
-4.44614
-4.44008
-4.4034
-4.33874
-4.25135
-4.14776
-4.0325
-3.91031
-3.78828
-3.67364
-3.57006
-3.4778
-3.39458
-3.31718
-3.24208
-3.16655
-3.08993
-3.01419
-2.94297
-2.88066
-2.83026
-2.79339
-2.76964
-2.75532
-2.74478
-2.73257
-2.71366
-2.6827
-2.63351
-2.56012
-2.4587
-2.32788
-2.1677
-1.97896
-1.76306
-1.52168
-1.25673
-0.970755
-0.666673
-0.34801
-0.018656
0.317359
0.656031
0.993526
1.32633
1.65141
1.96634
2.26942
2.55958
2.83617
3.09878
3.34702
3.58049
3.79862
4.00061
4.18565
4.35314
4.50298
4.63559
4.75177
4.85263
4.93945
5.01355
5.07624
5.12874
5.17214
5.20742
5.23542
5.25688
5.27242
5.28258
5.28783
5.28863
5.2854
5.27857
5.26858
5.25585
5.24082
5.22391
5.20554
5.18607
5.16589
5.14534
5.12475
5.10442
5.08463
5.06559
5.04748
5.03036
5.0143
4.9993
4.98532
4.97229
4.96014
4.94882
4.93823
4.92833
4.91906
4.91038
4.90224
4.89458
4.88733
4.88044
4.87383
4.86744
4.86123
4.85514
4.84916
4.84325
4.8374
4.83162
4.8259
4.82024
4.81468
4.80922
4.80389
4.79875
4.79383
4.78922
4.78496
4.78121
4.77801
4.77562
4.77398
4.77353
4.77376
4.77526
4.77591
4.77592
4.76787
-1.23877
-1.26443
-1.31534
-1.38622
-1.47382
-1.57513
-1.6898
-1.82019
-1.96811
-2.13199
-2.3091
-2.49632
-2.69028
-2.88657
-3.08001
-3.26444
-3.43237
-3.5761
-3.68866
-3.7657
-3.80629
-3.81314
-3.79198
-3.75058
-3.69679
-3.63783
-3.57984
-3.52788
-3.48592
-3.45677
-3.44202
-3.44219
-3.45757
-3.48809
-3.53343
-3.59299
-3.66567
-3.74996
-3.84402
-3.94566
-4.05266
-4.16329
-4.27637
-4.39056
-4.50383
-4.61346
-4.71583
-4.80617
-4.87894
-4.92882
-4.95119
-4.94211
-4.9
-4.82608
-4.72507
-4.60265
-4.46208
-4.30902
-4.1542
-4.00762
-3.87528
-3.75891
-3.65786
-3.56964
-3.49069
-3.4175
-3.34755
-3.28049
-3.21783
-3.16217
-3.11677
-3.08398
-3.06328
-3.05084
-3.04192
-3.03236
-3.01749
-2.99094
-2.94501
-2.87218
-2.76748
-2.62961
-2.4594
-2.25836
-2.02848
-1.77206
-1.49153
-1.1896
-0.869734
-0.53586
-0.192153
0.157199
0.508125
0.856763
1.19954
1.53337
1.8559
2.16551
2.46129
2.74288
3.01007
3.26272
3.50061
3.7233
3.93004
4.11995
4.29226
4.44668
4.58351
4.70353
4.80789
4.89791
4.97493
5.04026
5.09513
5.14065
5.17784
5.20755
5.23054
5.24746
5.25888
5.26532
5.26723
5.26508
5.2593
5.25034
5.23866
5.22468
5.20884
5.19155
5.17318
5.15408
5.13457
5.11497
5.09557
5.07664
5.05841
5.04105
5.02466
5.00927
4.99488
4.98146
4.96897
4.95732
4.94645
4.93629
4.92676
4.91783
4.90943
4.90152
4.89405
4.88695
4.88016
4.87362
4.86729
4.8611
4.85502
4.84903
4.8431
4.83722
4.83139
4.82561
4.81988
4.81422
4.80865
4.80319
4.79787
4.79272
4.78783
4.78321
4.77899
4.77518
4.77197
4.76928
4.76734
4.76569
4.76441
4.76181
4.7571
4.74511
-1.24588
-1.28178
-1.34733
-1.4246
-1.51573
-1.62287
-1.74775
-1.89103
-2.05262
-2.23077
-2.42287
-2.62567
-2.83562
-3.04909
-3.2617
-3.46758
-3.65893
-3.82684
-3.96394
-4.06516
-4.1291
-4.15818
-4.1581
-4.13675
-4.10257
-4.06323
-4.02502
-3.99268
-3.96948
-3.95731
-3.95685
-3.9682
-3.9914
-4.02649
-4.0737
-4.13317
-4.20497
-4.28886
-4.38411
-4.48937
-4.60299
-4.72333
-4.84851
-4.97613
-5.10318
-5.2258
-5.33891
-5.43647
-5.51221
-5.56014
-5.57506
-5.55372
-5.49539
-5.40178
-5.27808
-5.12909
-4.95631
-4.76696
-4.57578
-4.39544
-4.23281
-4.08992
-3.96648
-3.86015
-3.76749
-3.68515
-3.61056
-3.54263
-3.48183
-3.43006
-3.38977
-3.36291
-3.34826
-3.34137
-3.33781
-3.33443
-3.32666
-3.30757
-3.26872
-3.2015
-3.09845
-2.9571
-2.77868
-2.56574
-2.32112
-2.04789
-1.74928
-1.4287
-1.09023
-0.738486
-0.378202
-0.0138787
0.350383
0.710887
1.0642
1.40728
1.73775
2.05406
2.35552
2.64207
2.91384
3.17099
3.4134
3.6407
3.85217
4.04691
4.22406
4.38322
4.52454
4.64876
4.75701
4.85057
4.9308
4.99905
5.05655
5.10445
5.14377
5.17541
5.20014
5.21864
5.23151
5.23928
5.24244
5.24147
5.23684
5.22901
5.21846
5.20564
5.19097
5.17488
5.15773
5.13986
5.12158
5.10318
5.08493
5.06708
5.04985
5.03341
5.01788
5.00331
4.98968
4.97697
4.9651
4.95403
4.94368
4.93399
4.92489
4.91633
4.90825
4.9006
4.89334
4.8864
4.87974
4.8733
4.86703
4.86088
4.85483
4.84883
4.84289
4.83698
4.8311
4.82526
4.81946
4.8137
4.80801
4.8024
4.7969
4.79152
4.78632
4.78133
4.77662
4.77219
4.76814
4.76439
4.76099
4.75752
4.75372
4.74819
4.73966
4.72443
-1.274
-1.31017
-1.37156
-1.44521
-1.53525
-1.64416
-1.77385
-1.92464
-2.09546
-2.28402
-2.48767
-2.70367
-2.92939
-3.16204
-3.39804
-3.63113
-3.85203
-4.05068
-4.21834
-4.34944
-4.44218
-4.49889
-4.52549
-4.53035
-4.52231
-4.50898
-4.49611
-4.48769
-4.48595
-4.49162
-4.50447
-4.52418
-4.5511
-4.58659
-4.63288
-4.69224
-4.76647
-4.85665
-4.96294
-5.08435
-5.21897
-5.36407
-5.51589
-5.67014
-5.8218
-5.96476
-6.09201
-6.19623
-6.27052
-6.30895
-6.30733
-6.26333
-6.17733
-6.05212
-5.89328
-5.70629
-5.49198
-5.26028
-5.02956
-4.814
-4.62054
-4.45055
-4.30293
-4.17529
-4.06453
-3.96755
-3.88166
-3.80564
-3.74014
-3.6873
-3.64952
-3.628
-3.62111
-3.62378
-3.63109
-3.63955
-3.64393
-3.63619
-3.60728
-3.54806
-3.4493
-3.30683
-3.12153
-2.89692
-2.63694
-2.34565
-2.02714
-1.68558
-1.32601
-0.954034
-0.575158
-0.194229
0.184634
0.558002
0.922612
1.27544
1.61404
1.93704
2.24401
2.53533
2.81159
3.07329
3.32046
3.5526
3.76882
3.96819
4.14995
4.31374
4.45963
4.58824
4.70059
4.79791
4.88158
4.95295
5.01329
5.06376
5.10541
5.13916
5.16581
5.18604
5.20046
5.20965
5.21412
5.2144
5.21098
5.20436
5.19503
5.18346
5.17009
5.15533
5.13956
5.12308
5.10619
5.08916
5.07224
5.05567
5.03966
5.02437
5.00989
4.99629
4.98358
4.9717
4.9606
4.95022
4.94048
4.93133
4.92271
4.91457
4.90684
4.89949
4.89247
4.88572
4.87921
4.87288
4.86669
4.8606
4.85457
4.84858
4.84263
4.83669
4.83077
4.82487
4.81899
4.81314
4.80733
4.80156
4.79587
4.79025
4.78475
4.77937
4.77415
4.76909
4.76421
4.75941
4.75461
4.7494
4.74333
4.73519
4.72355
4.70564
-1.29645
-1.32606
-1.37586
-1.4434
-1.53152
-1.64142
-1.77451
-1.9309
-2.10938
-2.30753
-2.52269
-2.75233
-2.99453
-3.24743
-3.50767
-3.76844
-4.01946
-4.24935
-4.44882
-4.61229
-4.73798
-4.82803
-4.88826
-4.92645
-4.95066
-4.96782
-4.98288
-4.99863
-5.0159
-5.03444
-5.05416
-5.07597
-5.10231
-5.13704
-5.18496
-5.25072
-5.33773
-5.44772
-5.58044
-5.73376
-5.90403
-6.08627
-6.2747
-6.46301
-6.64408
-6.80983
-6.95197
-7.06249
-7.1344
-7.16195
-7.14078
-7.06863
-6.94642
-6.77791
-6.5705
-6.33104
-6.06332
-5.7815
-5.50516
-5.24967
-5.02188
-4.82179
-4.64754
-4.49668
-4.36626
-4.25294
-4.15377
-4.06728
-3.99455
-3.93832
-3.90135
-3.88473
-3.88673
-3.90203
-3.92461
-3.94958
-3.97039
-3.97742
-3.96047
-3.91026
-3.81656
-3.6738
-3.4826
-3.24678
-2.97139
-2.6617
-2.32234
-1.95827
-1.57557
-1.18108
-0.781402
-0.381965
0.0131188
0.400531
0.777056
1.13985
1.48661
1.81617
2.1285
2.42448
2.70528
2.97168
3.22378
3.46084
3.68171
3.88545
4.07151
4.23968
4.38999
4.5229
4.63934
4.74048
4.82768
4.9023
4.96563
5.01883
5.06296
5.09896
5.12761
5.14963
5.16565
5.17628
5.1821
5.18365
5.1815
5.17617
5.16818
5.15799
5.14607
5.1328
5.11857
5.10367
5.08837
5.07293
5.05756
5.04248
5.0279
5.01395
5.00074
4.98829
4.97663
4.96572
4.9555
4.94591
4.93688
4.92835
4.92027
4.91258
4.90525
4.89823
4.89147
4.88494
4.87859
4.87239
4.86629
4.86025
4.85426
4.84829
4.84232
4.83636
4.8304
4.82445
4.81849
4.81254
4.8066
4.80068
4.79478
4.78892
4.7831
4.77733
4.77161
4.76592
4.76022
4.75439
4.74826
4.74142
4.73333
4.72289
4.70869
4.68855
-1.29177
-1.31657
-1.3616
-1.42616
-1.51352
-1.62515
-1.76284
-1.92676
-2.11539
-2.3263
-2.55686
-2.80438
-3.06661
-3.34136
-3.62482
-3.90966
-4.18561
-4.44143
-4.66837
-4.86174
-5.02048
-5.14652
-5.24432
-5.31968
-5.37867
-5.4267
-5.46778
-5.50389
-5.5355
-5.56287
-5.58738
-5.61228
-5.64247
-5.68401
-5.74319
-5.82585
-5.9361
-6.07543
-6.24219
-6.43228
-6.64047
-6.86087
-7.08696
-7.31143
-7.52546
-7.7188
-7.88058
-8.00101
-8.07207
-8.08741
-8.04286
-7.93734
-7.77227
-7.55267
-7.28748
-6.98559
-6.65662
-6.31963
-5.99397
-5.69473
-5.42859
-5.19525
-4.99232
-4.81746
-4.66724
-4.53778
-4.42544
-4.32852
-4.24842
-4.18865
-4.15257
-4.14118
-4.15263
-4.18149
-4.22075
-4.2642
-4.30352
-4.32694
-4.32299
-4.28199
-4.19325
-4.05061
-3.85404
-3.60761
-3.31734
-2.98922
-2.62862
-2.24121
-1.83408
-1.41549
-0.993376
-0.573995
-0.161657
0.240399
0.629097
1.00183
1.3566
1.69272
2.01059
2.31157
2.59724
2.86861
3.12562
3.36732
3.59243
3.80012
3.99006
4.16218
4.31652
4.45344
4.57377
4.67864
4.76938
4.84732
4.91373
4.96977
5.01647
5.05476
5.08543
5.10923
5.12683
5.13889
5.14606
5.14894
5.14814
5.14421
5.13768
5.12904
5.11874
5.10717
5.09468
5.08156
5.06807
5.05442
5.04083
5.02747
5.01452
5.00213
4.99037
4.97926
4.96882
4.95901
4.94979
4.94111
4.93287
4.92504
4.91755
4.91038
4.90348
4.89682
4.89035
4.88406
4.87789
4.87183
4.86583
4.85986
4.85391
4.84796
4.84199
4.83601
4.83001
4.82399
4.81796
4.81191
4.80584
4.79976
4.79367
4.78756
4.78143
4.77526
4.76904
4.76272
4.75623
4.7494
4.74203
4.73369
4.72377
4.71131
4.69498
4.67299
-1.27634
-1.2981
-1.34039
-1.40401
-1.49312
-1.60955
-1.75563
-1.93199
-2.13744
-2.36936
-2.62416
-2.89781
-3.18652
-3.48661
-3.79324
-4.0991
-4.3951
-4.67224
-4.92342
-5.14449
-5.33414
-5.49313
-5.62442
-5.73252
-5.82225
-5.8978
-5.96214
-6.017
-6.06344
-6.10273
-6.13762
-6.17263
-6.21371
-6.2677
-6.3414
-6.4406
-6.56911
-6.72819
-6.91601
-7.12867
-7.36138
-7.60866
-7.86383
-8.11846
-8.36099
-8.57715
-8.75293
-8.87728
-8.94271
-8.94402
-8.87789
-8.74316
-8.54199
-8.2796
-7.96483
-7.60832
-7.22601
-6.84088
-6.47228
-6.13304
-5.83057
-5.56556
-5.33569
-5.13813
-4.96878
-4.82324
-4.69766
-4.59056
-4.50363
-4.44076
-4.40567
-4.39937
-4.41953
-4.46043
-4.515
-4.57555
-4.63204
-4.67074
-4.67892
-4.64612
-4.5614
-4.4188
-4.21769
-3.96209
-3.65838
-3.31309
-2.93255
-2.52304
-2.09251
-1.6504
-1.20597
-0.766564
-0.336906
0.0795794
0.480215
0.862699
1.2255
1.5684
1.89228
2.19886
2.4899
2.76635
3.02796
3.27366
3.50229
3.71329
3.90655
4.08206
4.23989
4.38038
4.50431
4.61276
4.70699
4.78827
4.85781
4.91671
4.96596
5.00647
5.03909
5.06458
5.08372
5.09722
5.10578
5.11007
5.11073
5.10834
5.10344
5.09654
5.08807
5.07841
5.06789
5.05679
5.04534
5.03372
5.02212
5.0107
4.99961
4.98897
4.97885
4.96926
4.9602
4.95163
4.94353
4.93583
4.92848
4.92142
4.9146
4.90799
4.90156
4.89529
4.88914
4.8831
4.87714
4.87122
4.86533
4.85944
4.85354
4.8476
4.84164
4.83564
4.8296
4.82353
4.81742
4.81127
4.80507
4.79883
4.79254
4.78618
4.77974
4.77318
4.76647
4.75954
4.75228
4.74451
4.73598
4.72625
4.71472
4.70048
4.68236
4.65881
-1.26321
-1.28339
-1.32611
-1.39196
-1.48621
-1.61209
-1.77287
-1.96952
-2.20081
-2.46324
-2.75175
-3.06034
-3.38306
-3.7142
-4.048
-4.378
-4.69703
-4.99792
-5.27462
-5.52276
-5.73999
-5.9265
-6.08491
-6.21918
-6.33334
-6.43081
-6.51378
-6.58351
-6.64107
-6.68825
-6.72859
-6.76708
-6.81004
-6.8643
-6.93631
-7.03206
-7.15624
-7.31151
-7.49761
-7.71154
-7.94842
-8.20189
-8.46435
-8.72632
-8.97513
-9.19532
-9.37215
-9.49442
-9.55528
-9.55029
-9.47573
-9.32943
-9.1124
-8.82975
-8.49031
-8.10601
-7.69597
-7.28437
-6.89113
-6.52649
-6.19924
-5.91203
-5.66265
-5.44783
-5.2629
-5.1034
-4.96591
-4.84976
-4.75727
-4.69228
-4.65808
-4.65527
-4.68078
-4.72909
-4.79353
-4.8657
-4.93402
-4.98319
-4.99897
-4.97009
-4.88666
-4.74361
-4.53968
-4.27803
-3.96466
-3.60651
-3.21067
-2.78391
-2.33466
-1.8731
-1.40977
-0.952927
-0.50782
-0.078163
0.333488
0.72515
1.09579
1.44564
1.77599
2.08865
2.38526
2.66656
2.93202
3.18081
3.41213
3.62575
3.82165
3.99988
4.16059
4.30419
4.43142
4.5433
4.64095
4.72551
4.79806
4.85966
4.91127
4.95385
4.98828
5.01541
5.03607
5.05104
5.06108
5.06689
5.06916
5.06849
5.06545
5.06052
5.05412
5.04662
5.03832
5.02948
5.0203
5.01094
5.00155
4.99229
4.98327
4.97457
4.96625
4.95834
4.95081
4.94362
4.93674
4.93013
4.92374
4.91752
4.91142
4.90542
4.8995
4.89365
4.88785
4.88208
4.87633
4.87058
4.86481
4.859
4.85315
4.84724
4.84128
4.83526
4.82919
4.82306
4.81687
4.81062
4.8043
4.7979
4.79141
4.7848
4.77805
4.77112
4.76393
4.75641
4.74842
4.73976
4.73015
4.71916
4.70619
4.69041
4.67075
4.6459
-1.26219
-1.28226
-1.32755
-1.39879
-1.50275
-1.64424
-1.82741
-2.05345
-2.32074
-2.62447
-2.95766
-3.31206
-3.67944
-4.05223
-4.42397
-4.78863
-5.13996
-5.47112
-5.77533
-6.04773
-6.28629
-6.49151
-6.6656
-6.81197
-6.93433
-7.03586
-7.11869
-7.18421
-7.23369
-7.26904
-7.29371
-7.3126
-7.33219
-7.36005
-7.4036
-7.46979
-7.56432
-7.69083
-7.84993
-8.03913
-8.25307
-8.48515
-8.72777
-8.97244
-9.20794
-9.41921
-9.59087
-9.71088
-9.77222
-9.77065
-9.70273
-9.56654
-9.36162
-9.09112
-8.76315
-8.38979
-7.98894
-7.5836
-7.19328
-6.82776
-6.49547
-6.20154
-5.94474
-5.72197
-5.52873
-5.36086
-5.21583
-5.09412
-4.9985
-4.93238
-4.89799
-4.8948
-4.91954
-4.9677
-5.03351
-5.10851
-5.18012
-5.23171
-5.24754
-5.21614
-5.12977
-4.98454
-4.77889
-4.51474
-4.19769
-3.83392
-3.43044
-2.99446
-2.53494
-2.0624
-1.58777
-1.11972
-0.66411
-0.225029
0.19489
0.593866
0.971229
1.32761
1.66432
1.98305
2.28487
2.5702
2.83858
3.08952
3.32272
3.53818
3.73598
3.91624
4.07928
4.22558
4.35584
4.47093
4.57175
4.65929
4.73454
4.79851
4.85223
4.89669
4.93282
4.96156
4.98376
5.00028
5.0119
5.0194
5.02347
5.02475
5.0238
5.02109
5.01703
5.01195
5.00613
4.9998
4.99312
4.98624
4.9793
4.9724
4.96562
4.95904
4.9527
4.9466
4.94073
4.93505
4.9295
4.92407
4.91871
4.91338
4.90806
4.90271
4.89733
4.89193
4.88649
4.88102
4.87549
4.86991
4.86426
4.85854
4.85275
4.84687
4.84091
4.83488
4.82878
4.8226
4.81634
4.80999
4.80355
4.79699
4.7903
4.78345
4.7764
4.76909
4.76145
4.75337
4.74469
4.7352
4.7246
4.71246
4.69821
4.68107
4.66011
4.63415
-1.27522
-1.29644
-1.34667
-1.42679
-1.54601
-1.71008
-1.9242
-2.18987
-2.50482
-2.86234
-3.25301
-3.66615
-4.09149
-4.51992
-4.94393
-5.35609
-5.74783
-6.10985
-6.43476
-6.71834
-6.95941
-7.15924
-7.32104
-7.44904
-7.54767
-7.62081
-7.67141
-7.70151
-7.71271
-7.70702
-7.688
-7.66099
-7.63283
-7.61193
-7.60628
-7.62303
-7.66771
-7.74567
-7.858
-8.00308
-8.17603
-8.37053
-8.57907
-8.79405
-9.0059
-9.20139
-9.36547
-9.48593
-9.55517
-9.56862
-9.52295
-9.41622
-9.2479
-9.02026
-8.73824
-8.41209
-8.05664
-7.69088
-7.33313
-6.99452
-6.68066
-6.39867
-6.14979
-5.93119
-5.73922
-5.57077
-5.42469
-5.30243
-5.20673
-5.13993
-5.10265
-5.09375
-5.11077
-5.15085
-5.20953
-5.27848
-5.34405
-5.38866
-5.39615
-5.35651
-5.26392
-5.1156
-4.90982
-4.64742
-4.33226
-3.97013
-3.56768
-3.13245
-2.67333
-2.20052
-1.72452
-1.25391
-0.795029
-0.352221
0.0715624
0.474705
0.856732
1.21829
1.56044
1.88425
2.1902
2.47834
2.7485
3.00064
3.23484
3.45129
3.6502
3.8319
3.99679
4.14541
4.27833
4.39619
4.4997
4.58973
4.66722
4.73323
4.7888
4.83498
4.87275
4.90308
4.92688
4.94504
4.95841
4.96779
4.9739
4.97737
4.97876
4.97852
4.97703
4.97461
4.9715
4.96789
4.96394
4.95977
4.95548
4.95114
4.9468
4.94252
4.9383
4.93416
4.93007
4.926
4.92188
4.91771
4.91344
4.90906
4.90456
4.8999
4.8951
4.89016
4.8851
4.87992
4.87463
4.86923
4.86371
4.85808
4.85235
4.8465
4.84056
4.83452
4.82838
4.82215
4.81582
4.80938
4.80281
4.7961
4.78922
4.78214
4.7748
4.76714
4.75906
4.75044
4.74112
4.73086
4.71936
4.70619
4.6908
4.67248
4.65037
4.62348
-1.29651
-1.32126
-1.37941
-1.4729
-1.61427
-1.8103
-2.06769
-2.38756
-2.76585
-3.19253
-3.65495
-4.13994
-4.6352
-5.12885
-5.6098
-6.06683
-6.48822
-6.86382
-7.18574
-7.44942
-7.65426
-7.8034
-7.90293
-7.96053
-7.98426
-7.98078
-7.95535
-7.91224
-7.85417
-7.78475
-7.70696
-7.6254
-7.54564
-7.47438
-7.41888
-7.38562
-7.37956
-7.4062
-7.46825
-7.56513
-7.69263
-7.84466
-8.01442
-8.19558
-8.38069
-8.5588
-8.7167
-8.84262
-8.92852
-8.96917
-8.96076
-8.9005
-8.78749
-8.62349
-8.41252
-8.16194
-7.88153
-7.58467
-7.28699
-7.00021
-6.7279
-6.47592
-6.25009
-6.04838
-5.86847
-5.70888
-5.5698
-5.4531
-5.36073
-5.29348
-5.25086
-5.23196
-5.23601
-5.26181
-5.30563
-5.35879
-5.40757
-5.43553
-5.42824
-5.37714
-5.27768
-5.12699
-4.92314
-4.6662
-4.35896
-4.00641
-3.61466
-3.19081
-2.743
-2.28061
-1.8133
-1.34927
-0.894921
-0.454911
-0.032267
0.371318
0.75529
1.11991
1.46563
1.79265
2.10091
2.39031
2.66099
2.91325
3.14746
3.36404
3.5634
3.74603
3.91239
4.06294
4.19803
4.3181
4.42374
4.51574
4.59508
4.66282
4.72007
4.76787
4.80726
4.83923
4.86475
4.88474
4.90007
4.91158
4.91997
4.92589
4.92987
4.93236
4.9337
4.93419
4.93403
4.93341
4.93245
4.93124
4.92984
4.9283
4.92664
4.92486
4.92297
4.92095
4.91878
4.91644
4.91386
4.91104
4.90794
4.90457
4.90093
4.897
4.8928
4.88835
4.88368
4.87882
4.87377
4.86855
4.86317