/*--------------------------------*- C++ -*----------------------------------*\
  =========                 |
  \\      /  F ield         | OpenFOAM: The Open Source CFD Toolbox
   \\    /   O peration     | Website:  https://openfoam.org
    \\  /    A nd           | Version:  7
     \\/     M anipulation  |
\*---------------------------------------------------------------------------*/
FoamFile
{
    version     2.0;
    format      ascii;
    class       volVectorField;
    location    "0.09";
    object      U;
}
// * * * * * * * * * * * * * * * * * * * * * * * * * * * * * * * * * * * * * //

dimensions      [0 1 -1 0 0 0 0];

internalField   nonuniform List<vector> 
12225
(
(4.64185 0.164519 0)
(4.11114 0.115702 0)
(3.6572 0.0952993 0)
(3.28119 0.0789861 0)
(2.91797 0.0692681 0)
(2.57117 0.0610034 0)
(2.25187 0.0534539 0)
(1.95768 0.0469285 0)
(1.68637 0.0403259 0)
(1.43993 0.0328421 0)
(1.21718 0.0256963 0)
(1.02527 0.0191156 0)
(0.856819 0.0135831 0)
(0.721441 0.0088689 0)
(0.585814 0.00528125 0)
(0.492973 0.00724227 0)
(0.334095 0.00240262 0)
(0.292642 -0.0110686 0)
(5.0031 0.0857657 0)
(4.88119 0.0598296 0)
(4.74698 0.0919832 0)
(4.64049 0.101078 0)
(4.53215 0.10335 0)
(4.41181 0.103304 0)
(4.27845 0.102361 0)
(4.1354 0.102494 0)
(3.98263 0.103464 0)
(3.82705 0.103652 0)
(3.66325 0.100909 0)
(3.50842 0.095388 0)
(3.35097 0.0893101 0)
(3.2116 0.0855713 0)
(3.04 0.0849451 0)
(2.89586 0.0850029 0)
(2.67353 0.0906465 0)
(2.53778 0.077225 0)
(5.05169 0.19618 0)
(4.89823 0.13683 0)
(4.82622 0.134335 0)
(4.79007 0.129166 0)
(4.7556 0.126216 0)
(4.71813 0.127331 0)
(4.67738 0.129068 0)
(4.63608 0.131123 0)
(4.59393 0.132919 0)
(4.55222 0.133758 0)
(4.50546 0.131897 0)
(4.45645 0.127277 0)
(4.39983 0.121196 0)
(4.34093 0.119482 0)
(4.26773 0.124237 0)
(4.19138 0.135306 0)
(4.09403 0.152131 0)
(3.99159 0.159294 0)
(5.05908 0.211265 0)
(4.96477 0.120077 0)
(4.85736 0.121873 0)
(4.77343 0.135491 0)
(4.72109 0.137062 0)
(4.69854 0.132627 0)
(4.69623 0.128488 0)
(4.70268 0.128199 0)
(4.70851 0.130758 0)
(4.70834 0.133377 0)
(4.69976 0.133876 0)
(4.68264 0.132197 0)
(4.65816 0.130644 0)
(4.627 0.133771 0)
(4.59405 0.144233 0)
(4.55806 0.159573 0)
(4.525 0.179652 0)
(4.48558 0.195455 0)
(5.00188 0.259519 0)
(4.97456 0.164124 0)
(4.88408 0.157954 0)
(4.79926 0.158261 0)
(4.74921 0.145607 0)
(4.72143 0.132082 0)
(4.70564 0.123998 0)
(4.69843 0.123229 0)
(4.69675 0.127882 0)
(4.69572 0.133982 0)
(4.69134 0.138472 0)
(4.68142 0.140524 0)
(4.66632 0.141986 0)
(4.6468 0.146034 0)
(4.62741 0.15525 0)
(4.60903 0.168283 0)
(4.59578 0.185532 0)
(4.58348 0.201658 0)
(5.05033 0.299132 0)
(4.90722 0.171553 0)
(4.83766 0.167273 0)
(4.79354 0.177865 0)
(4.76457 0.167829 0)
(4.74524 0.150951 0)
(4.73178 0.137523 0)
(4.72263 0.132106 0)
(4.7166 0.134 0)
(4.7121 0.138947 0)
(4.7078 0.14341 0)
(4.703 0.146344 0)
(4.6975 0.14911 0)
(4.69073 0.154396 0)
(4.6837 0.164188 0)
(4.67552 0.177701 0)
(4.66779 0.194586 0)
(4.65657 0.210919 0)
(4.95463 0.301942 0)
(4.95788 0.200977 0)
(4.92414 0.176588 0)
(4.8752 0.179504 0)
(4.82546 0.169081 0)
(4.79058 0.1499 0)
(4.77473 0.133292 0)
(4.77165 0.126222 0)
(4.77122 0.128508 0)
(4.76616 0.134794 0)
(4.75506 0.140146 0)
(4.74016 0.143151 0)
(4.72591 0.145573 0)
(4.71406 0.150557 0)
(4.70717 0.16054 0)
(4.70277 0.175226 0)
(4.7012 0.19371 0)
(4.69732 0.213244 0)
(5.10529 0.295766 0)
(5.0034 0.214124 0)
(4.93346 0.195807 0)
(4.9055 0.202421 0)
(4.90032 0.192877 0)
(4.89622 0.168075 0)
(4.8781 0.14423 0)
(4.84491 0.134105 0)
(4.80467 0.138364 0)
(4.76562 0.148957 0)
(4.73281 0.157849 0)
(4.70745 0.16193 0)
(4.69047 0.162954 0)
(4.68057 0.164779 0)
(4.67876 0.170684 0)
(4.68251 0.18186 0)
(4.69218 0.197366 0)
(4.70348 0.216439 0)
(4.98827 0.320455 0)
(4.97685 0.244051 0)
(4.95905 0.19683 0)
(4.92062 0.187739 0)
(4.88819 0.181246 0)
(4.86935 0.168343 0)
(4.85634 0.157755 0)
(4.84306 0.155858 0)
(4.82763 0.160855 0)
(4.81168 0.166404 0)
(4.79796 0.167943 0)
(4.78749 0.165099 0)
(4.77986 0.160651 0)
(4.77417 0.158251 0)
(4.7707 0.160379 0)
(4.76924 0.168221 0)
(4.77137 0.180697 0)
(4.77431 0.197838 0)
(4.87236 0.286488 0)
(4.92523 0.229536 0)
(4.91696 0.221375 0)
(4.88534 0.219097 0)
(4.87222 0.203604 0)
(4.86875 0.177413 0)
(4.85811 0.15615 0)
(4.84221 0.14959 0)
(4.82981 0.155817 0)
(4.82489 0.16562 0)
(4.8265 0.171345 0)
(4.83121 0.171595 0)
(4.8365 0.169259 0)
(4.8412 0.16837 0)
(4.84616 0.17166 0)
(4.84996 0.180007 0)
(4.85443 0.193073 0)
(4.85441 0.209656 0)
(5.10229 0.306022 0)
(5.01367 0.243279 0)
(4.94588 0.217684 0)
(4.90297 0.207379 0)
(4.88605 0.194232 0)
(4.87305 0.180357 0)
(4.85384 0.171023 0)
(4.83632 0.167077 0)
(4.82836 0.166512 0)
(4.83022 0.166384 0)
(4.83885 0.164426 0)
(4.85087 0.160516 0)
(4.86501 0.156286 0)
(4.87989 0.153974 0)
(4.89664 0.156063 0)
(4.91233 0.163777 0)
(4.9282 0.177691 0)
(4.93879 0.197242 0)
(5.07273 0.26906 0)
(5.06312 0.277591 0)
(5.01947 0.258263 0)
(4.97802 0.233629 0)
(4.95244 0.21286 0)
(4.93172 0.194985 0)
(4.90924 0.178445 0)
(4.88948 0.166391 0)
(4.87615 0.16091 0)
(4.8692 0.159458 0)
(4.86777 0.157694 0)
(4.87098 0.153526 0)
(4.87716 0.14837 0)
(4.88512 0.14518 0)
(4.89435 0.147347 0)
(4.906 0.156432 0)
(4.91899 0.172339 0)
(4.93584 0.194381 0)
(5.03246 0.286892 0)
(5.00646 0.289789 0)
(4.96061 0.265854 0)
(4.93207 0.234023 0)
(4.94182 0.209862 0)
(4.9694 0.195292 0)
(4.98747 0.186855 0)
(4.98751 0.18177 0)
(4.97476 0.177932 0)
(4.95833 0.173228 0)
(4.94508 0.166414 0)
(4.93694 0.158223 0)
(4.93096 0.150428 0)
(4.92477 0.144845 0)
(4.9161 0.142855 0)
(4.9082 0.146181 0)
(4.90048 0.154787 0)
(4.89936 0.170274 0)
(4.93937 0.284976 0)
(4.95863 0.301146 0)
(4.96434 0.288321 0)
(4.95976 0.240988 0)
(4.95657 0.198615 0)
(4.95884 0.176738 0)
(4.95924 0.171909 0)
(4.95615 0.174899 0)
(4.95305 0.177443 0)
(4.95272 0.175162 0)
(4.95679 0.168292 0)
(4.96376 0.16059 0)
(4.97059 0.156024 0)
(4.97348 0.15729 0)
(4.97148 0.164159 0)
(4.96457 0.175486 0)
(4.95558 0.189155 0)
(4.94586 0.203813 0)
(4.99476 0.339565 0)
(4.96038 0.309319 0)
(4.93741 0.261636 0)
(4.91515 0.231378 0)
(4.91003 0.204993 0)
(4.92072 0.187551 0)
(4.93328 0.183155 0)
(4.9424 0.184646 0)
(4.94913 0.182095 0)
(4.95414 0.172315 0)
(4.9573 0.158968 0)
(4.95758 0.147484 0)
(4.95466 0.141126 0)
(4.94904 0.140831 0)
(4.94346 0.145082 0)
(4.94023 0.153306 0)
(4.94218 0.163018 0)
(4.95018 0.175207 0)
(5.02542 0.362611 0)
(5.04239 0.337237 0)
(5.01052 0.314835 0)
(5.00107 0.261997 0)
(5.00385 0.200399 0)
(5.00634 0.16382 0)
(5.00846 0.155823 0)
(5.01418 0.16099 0)
(5.02218 0.165024 0)
(5.02773 0.164349 0)
(5.02852 0.162534 0)
(5.02597 0.16371 0)
(5.02229 0.168762 0)
(5.01953 0.176265 0)
(5.01853 0.182976 0)
(5.01892 0.186996 0)
(5.0209 0.186922 0)
(5.02225 0.183517 0)
(4.90899 0.34991 0)
(4.92515 0.329273 0)
(4.94777 0.293967 0)
(4.97666 0.236229 0)
(4.98568 0.197168 0)
(4.97665 0.1777 0)
(4.96935 0.16971 0)
(4.97424 0.168874 0)
(4.98788 0.170253 0)
(5.00297 0.169394 0)
(5.01499 0.164009 0)
(5.02262 0.154815 0)
(5.02771 0.144508 0)
(5.03255 0.136504 0)
(5.04009 0.133789 0)
(5.05031 0.137133 0)
(5.06383 0.146044 0)
(5.07806 0.158887 0)
(4.97885 0.287531 0)
(4.97279 0.274064 0)
(4.98719 0.243974 0)
(4.99534 0.224098 0)
(4.99691 0.209222 0)
(4.9917 0.188996 0)
(4.988 0.162914 0)
(4.99034 0.138281 0)
(5.00026 0.123214 0)
(5.01687 0.121455 0)
(5.03634 0.130943 0)
(5.05344 0.145893 0)
(5.06481 0.159391 0)
(5.06989 0.166534 0)
(5.07101 0.165051 0)
(5.07129 0.157188 0)
(5.07341 0.144987 0)
(5.07947 0.133624 0)
(4.96807 0.388096 0)
(4.9597 0.313828 0)
(4.96714 0.257846 0)
(4.96351 0.229483 0)
(4.96751 0.204359 0)
(4.98563 0.184504 0)
(5.00355 0.167914 0)
(5.0136 0.14792 0)
(5.01859 0.124698 0)
(5.02423 0.104515 0)
(5.03416 0.093279 0)
(5.04896 0.0924883 0)
(5.06727 0.0990346 0)
(5.08687 0.1081 0)
(5.10636 0.115293 0)
(5.12419 0.118467 0)
(5.14058 0.117065 0)
(5.15422 0.111955 0)
(4.92936 0.237651 0)
(4.93891 0.258118 0)
(4.96547 0.254661 0)
(5.00438 0.210311 0)
(5.03927 0.16075 0)
(5.06602 0.133483 0)
(5.08213 0.125185 0)
(5.08835 0.120382 0)
(5.08908 0.110792 0)
(5.08949 0.0987989 0)
(5.09411 0.0899443 0)
(5.10489 0.0866043 0)
(5.12117 0.0871668 0)
(5.14058 0.0884288 0)
(5.1611 0.0877838 0)
(5.18072 0.0845911 0)
(5.19873 0.0790841 0)
(5.21415 0.0730134 0)
(4.99352 0.313565 0)
(4.95585 0.218505 0)
(4.97215 0.189427 0)
(4.98928 0.161479 0)
(4.99515 0.137699 0)
(5.0017 0.129019 0)
(5.01795 0.129026 0)
(5.04138 0.125282 0)
(5.06503 0.110272 0)
(5.08455 0.0858239 0)
(5.0989 0.0597799 0)
(5.10914 0.0397159 0)
(5.11751 0.0290035 0)
(5.12596 0.0266798 0)
(5.13618 0.0293065 0)
(5.14857 0.0335451 0)
(5.16297 0.0368557 0)
(5.17863 0.0387331 0)
(5.03201 0.286619 0)
(5.00171 0.235497 0)
(5.01086 0.205163 0)
(5.02812 0.177184 0)
(5.04876 0.142638 0)
(5.07632 0.110762 0)
(5.10764 0.0890109 0)
(5.13662 0.0761634 0)
(5.15599 0.0688747 0)
(5.16344 0.0654306 0)
(5.16326 0.0649458 0)
(5.16197 0.0656498 0)
(5.16471 0.0651667 0)
(5.17311 0.0614355 0)
(5.18633 0.0535021 0)
(5.20184 0.0428778 0)
(5.21812 0.0307098 0)
(5.23291 0.0197401 0)
(4.84769 0.284226 0)
(4.88054 0.204074 0)
(4.93877 0.152772 0)
(5.01277 0.123971 0)
(5.08431 0.0982566 0)
(5.13145 0.07081 0)
(5.15006 0.0565875 0)
(5.15117 0.058582 0)
(5.14817 0.0649362 0)
(5.15027 0.0638239 0)
(5.16119 0.0516173 0)
(5.17977 0.0319543 0)
(5.20259 0.011407 0)
(5.22579 -0.00424437 0)
(5.24769 -0.0124194 0)
(5.26711 -0.0146116 0)
(5.28367 -0.0132192 0)
(5.29726 -0.0109373 0)
(5.05052 0.243436 0)
(5.0112 0.170117 0)
(5.03589 0.123144 0)
(5.0983 0.0858931 0)
(5.15467 0.0644275 0)
(5.18318 0.0646358 0)
(5.19429 0.0774002 0)
(5.20631 0.0858362 0)
(5.22757 0.0809747 0)
(5.25436 0.0649357 0)
(5.27808 0.0451605 0)
(5.29267 0.0275613 0)
(5.29811 0.0147042 0)
(5.29821 0.00658215 0)
(5.29665 0.000840424 0)
(5.2962 -0.00406733 0)
(5.29998 -0.00958713 0)
(5.30818 -0.0153115 0)
(4.79062 0.232701 0)
(4.90149 0.138142 0)
(5.01288 0.0660314 0)
(5.09556 0.032726 0)
(5.13809 0.0266539 0)
(5.16119 0.028969 0)
(5.18896 0.0285187 0)
(5.22742 0.0233084 0)
(5.26983 0.016872 0)
(5.3084 0.0125897 0)
(5.33975 0.0099771 0)
(5.36475 0.00733403 0)
(5.38607 0.0032555 0)
(5.40467 -0.00302162 0)
(5.42059 -0.0115448 0)
(5.43308 -0.0206299 0)
(5.44216 -0.0297593 0)
(5.44673 -0.0386031 0)
(5.02778 0.137423 0)
(5.06413 0.0659625 0)
(5.12197 0.0523097 0)
(5.15693 0.0422864 0)
(5.18171 0.037007 0)
(5.21761 0.0367728 0)
(5.26373 0.0368898 0)
(5.30788 0.0337716 0)
(5.34338 0.0266336 0)
(5.37076 0.0159208 0)
(5.39382 0.003682 0)
(5.41584 -0.00750116 0)
(5.43731 -0.0159126 0)
(5.45728 -0.0208586 0)
(5.47503 -0.0223213 0)
(5.48973 -0.0218881 0)
(5.50176 -0.0210523 0)
(5.51116 -0.0214604 0)
(5.00025 0.168764 0)
(5.07302 0.0447028 0)
(5.16503 0.0128263 0)
(5.20189 -0.00081697 0)
(5.21245 -0.0163414 0)
(5.23945 -0.0260254 0)
(5.28835 -0.0280847 0)
(5.34338 -0.0253705 0)
(5.39162 -0.0221863 0)
(5.42986 -0.0216453 0)
(5.46015 -0.0237843 0)
(5.48419 -0.0278306 0)
(5.5026 -0.0327815 0)
(5.51504 -0.0375506 0)
(5.5218 -0.0420144 0)
(5.52421 -0.0462696 0)
(5.52464 -0.0507004 0)
(5.52581 -0.0556276 0)
(4.91114 0.129568 0)
(5.08419 0.0302017 0)
(5.22277 0.0399345 0)
(5.28776 0.0321935 0)
(5.32405 0.0104885 0)
(5.36832 -0.00762774 0)
(5.41772 -0.017192 0)
(5.45787 -0.0201427 0)
(5.48393 -0.0207012 0)
(5.50125 -0.0222224 0)
(5.51668 -0.0260823 0)
(5.53349 -0.0304476 0)
(5.55137 -0.0324369 0)
(5.56853 -0.0306311 0)
(5.58362 -0.0264442 0)
(5.59619 -0.0226859 0)
(5.60699 -0.0219343 0)
(5.61681 -0.0258592 0)
(5.11009 0.0234067 0)
(5.25632 -0.0632937 0)
(5.36124 -0.0365036 0)
(5.41788 -0.0428951 0)
(5.44849 -0.0609915 0)
(5.46335 -0.071741 0)
(5.47313 -0.0687798 0)
(5.4828 -0.057517 0)
(5.49111 -0.046982 0)
(5.49517 -0.0428711 0)
(5.49345 -0.0452262 0)
(5.4872 -0.0506996 0)
(5.47883 -0.0557672 0)
(5.47167 -0.0588206 0)
(5.46655 -0.0603678 0)
(5.46309 -0.0616725 0)
(5.45844 -0.0637558 0)
(5.45039 -0.0670516 0)
(4.90381 0.0766178 0)
(5.04717 0.0024909 0)
(4.9972 -0.0011871 0)
(4.88687 -0.00883851 0)
(4.76128 -0.0150951 0)
(4.62151 -0.0205313 0)
(4.48026 -0.0252651 0)
(4.35288 -0.0265772 0)
(4.24656 -0.024469 0)
(4.15748 -0.0217381 0)
(4.07477 -0.0210603 0)
(3.98917 -0.0225618 0)
(3.89789 -0.0241927 0)
(3.80508 -0.0240354 0)
(3.71501 -0.021876 0)
(3.63115 -0.0189638 0)
(3.55144 -0.016835 0)
(3.47535 -0.0166533 0)
(-0.00433793 0.0468316 3.5182e-20)
(-0.001181 0.0127764 -3.4933e-20)
(0.0281083 -0.0200184 0)
(0.0734372 -0.042868 0)
(0.128891 -0.0507232 0)
(0.179458 -0.0464244 3.38791e-20)
(0.222438 -0.0360364 0)
(0.249685 -0.0211982 0)
(0.260101 -0.00538555 0)
(0.253331 0.00973651 0)
(0.231265 0.0222337 -3.25882e-20)
(0.196176 0.0306023 0)
(0.151367 0.0346409 0)
(0.099511 0.0358152 0)
(0.0417056 0.0366533 0)
(-0.0215646 0.0395635 -3.13732e-20)
(-0.0883531 0.0469567 0)
(-0.155994 0.0567216 0)
(-0.221857 0.0621079 0)
(-0.282419 0.0585908 0)
(-0.335432 0.0489883 0)
(-0.381773 0.0408055 0)
(-0.423659 0.0408472 0)
(-0.461767 0.0482284 -2.94287e-20)
(-0.495699 0.0551679 2.91905e-20)
(-0.526661 0.0555977 -2.89525e-20)
(-0.55905 0.0497905 -2.87146e-20)
(-0.597225 0.0406077 0)
(-0.643192 0.0310949 0)
(-0.696319 0.0236767 2.80066e-20)
(-0.754405 0.0202464 2.77746e-20)
(-0.814925 0.0201234 0)
(-0.874598 0.0231908 0)
(-0.932668 0.0279737 2.70992e-20)
(-0.987124 0.0326584 0)
(-1.0359 0.0400083 0)
(-1.08279 0.0491636 -2.64657e-20)
(-1.12199 0.0714615 0)
(-1.16486 0.108629 -2.60696e-20)
(-1.21401 0.154663 -5.1756e-20)
(-1.27017 0.186408 0)
(-1.35278 0.0087868 0)
(-1.25504 -0.283318 0)
(-1.0322 -0.323252 0)
(-0.880493 -0.277196 0)
(-0.678524 -0.276123 -4.95966e-20)
(-0.502361 -0.260818 -4.92417e-20)
(-0.358107 -0.243614 -4.88775e-20)
(-0.23648 -0.224872 0)
(-0.10218 -0.212338 4.81165e-20)
(0.0786602 -0.208552 0)
(0.293836 -0.195769 -4.72652e-20)
(0.514716 -0.158271 -4.68114e-20)
(0.716848 -0.0998685 0)
(0.873485 -0.0359096 0)
(0.96796 0.0260002 0)
(0.993766 0.0860272 -4.49122e-20)
(0.950565 0.132379 0)
(0.840739 0.144217 0)
(0.667174 0.125033 0)
(0.44076 0.10555 0)
(0.180359 0.0981352 0)
(-0.095587 0.0883642 0)
(-0.344672 0.069379 0)
(-0.51821 0.0328942 0)
(-0.583267 -0.022678 4.04757e-20)
(-0.512249 -0.0823882 0)
(-0.299505 -0.116421 0)
(0.0500809 -0.0360507 -3.94605e-20)
(0.372658 0.130543 -3.91347e-20)
(0.475363 0.136309 0)
(0.453499 -0.0193496 3.8414e-20)
(0.500497 -0.116319 -3.80413e-20)
(0.61822 -0.0434406 0)
(0.741913 0.0872083 3.72724e-20)
(0.857439 -0.0253631 0)
(0.958804 -0.33306 0)
(0.946472 -0.219844 -3.61236e-20)
(0.415267 0.303067 0)
(-0.351834 0.454138 3.5337e-20)
(-0.995261 0.3938 0)
(-1.55777 0.333325 -3.42121e-20)
(-2.0289 0.279529 -3.36256e-20)
(-2.43146 0.23605 -3.30457e-20)
(-2.77883 0.201577 -6.49576e-20)
(-3.08223 0.174172 6.38575e-20)
(-3.34909 0.151733 0)
(-3.58403 0.132498 0)
(-3.78972 0.115044 0)
(-3.96722 0.0984853 5.98657e-20)
(-4.11676 0.0822841 5.89845e-20)
(-4.23806 0.0662497 -5.81552e-20)
(-4.33076 0.0504549 0)
(-4.39476 0.0350444 5.6658e-20)
(-4.43031 0.0203166 5.59897e-20)
(-4.43793 0.00684026 5.5372e-20)
(-4.42086 -0.0053821 0)
(-4.38047 -0.0163535 0)
(-4.3187 -0.0260538 0)
(-4.23736 -0.0345985 5.33299e-20)
(-4.13849 -0.0420142 0)
(-4.024 -0.0483834 0)
(-3.89568 -0.0538084 -5.21101e-20)
(-3.75516 -0.0584111 0)
(-3.60386 -0.0623106 0)
(-3.44306 -0.0656036 -5.10108e-20)
(-3.27389 -0.068354 0)
(-3.09739 -0.0706004 0)
(-2.91461 -0.0723587 4.99346e-20)
(-2.72658 -0.0736218 4.95673e-20)
(-2.53442 -0.074367 0)
(-2.33931 -0.0745672 -4.88042e-20)
(-2.14252 -0.0742047 0)
(-1.94537 -0.0732844 4.79878e-20)
(-1.74917 -0.0718467 0)
(-1.55513 -0.0699527 4.71049e-20)
(-1.36437 -0.0676731 4.66368e-20)
(-1.17778 -0.0651156 0)
(-0.995984 -0.0624057 0)
(-0.819352 -0.0596317 0)
(-0.647984 -0.0569252 0)
(-0.481756 -0.0543517 0)
(-0.320264 -0.0520549 0)
(-0.162888 -0.049925 0)
(-0.00904542 -0.0480487 4.23802e-20)
(0.14188 -0.0465826 -4.18039e-20)
(0.290687 -0.0451799 0)
(0.437889 -0.0438227 0)
(0.583476 -0.0423404 0)
(0.726964 -0.0405178 0)
(0.867238 -0.038131 -7.78605e-20)
(1.00247 -0.0349662 0)
(1.13015 -0.0308454 7.56181e-20)
(1.24724 -0.0257269 -7.45102e-20)
(1.35069 -0.0198903 0)
(1.4381 -0.0136607 0)
(1.50759 -0.00700293 0)
(1.55775 -0.000422001 7.01713e-20)
(1.58931 0.00537778 6.91129e-20)
(1.6031 0.0110474 0)
(1.59885 0.0167897 6.70304e-20)
(1.57905 0.0218966 6.60064e-20)
(1.54542 0.0264922 -6.4994e-20)
(1.49891 0.031101 0)
(1.44001 0.0355796 0)
(1.36962 0.0388814 -6.20191e-20)
(1.29032 0.0395656 0)
(1.20676 0.0369072 0)
(1.12473 0.0314116 0)
(1.0496 0.0243307 0)
(0.984931 0.0170968 5.72254e-20)
(0.932083 0.0107918 5.62903e-20)
(0.890575 0.00595246 0)
(0.858833 0.00264618 5.4442e-20)
(0.834895 0.000642331 0)
(0.816904 -0.00041907 0)
(0.80332 -0.000894235 5.17142e-20)
(0.79298 -0.00105303 0)
(0.785004 -0.00105694 4.99198e-20)
(0.778769 -0.000987416 0)
(0.773744 -0.000870525 0)
(0.769588 -0.000711717 4.72606e-20)
(0.765913 -0.000500046 0)
(0.762604 -0.000246848 4.55086e-20)
(0.759266 4.20779e-05 0)
(0.756028 0.000350646 0)
(0.752289 0.000694386 0)
(0.748553 0.0010495 -4.20546e-20)
(0.743624 0.001465 0)
(0.738689 0.00188926 4.03535e-20)
(0.731391 0.00245226 0)
(0.7241 0.00301001 0)
(0.712663 0.00388167 0)
(0.700698 0.00460767 0)
(0.683285 0.00627267 0)
(0.660369 0.00687479 0)
(0.63931 0.010932 0)
(0.582776 0.00903899 -6.74946e-20)
(0.583922 0.0217646 0)
(0.422025 0.00819207 0)
(0.00622255 -0.0323896 -1.05565e-19)
(0.0834159 -0.0781686 1.04777e-19)
(0.21602 -0.132499 0)
(0.357951 -0.162674 -6.87503e-20)
(0.490494 -0.162983 0)
(0.602937 -0.1398 -3.3828e-20)
(0.690035 -0.100358 6.71134e-20)
(0.748447 -0.0509641 6.65847e-20)
(0.777667 0.0015474 0)
(0.779093 0.0517401 6.55524e-20)
(0.754845 0.0965654 3.25367e-20)
(0.707483 0.13322 0)
(0.640843 0.160404 0)
(0.561406 0.180571 0)
(0.474596 0.19781 0)
(0.38731 0.20993 3.13387e-20)
(0.307792 0.209642 0)
(0.23432 0.195872 -6.17451e-20)
(0.155783 0.174625 0)
(0.068975 0.15129 0)
(-0.0152041 0.131358 6.03548e-20)
(-0.0808003 0.116306 0)
(-0.126912 0.0987157 -5.93972e-20)
(-0.172586 0.0755015 2.94515e-20)
(-0.236581 0.0540338 -2.92087e-20)
(-0.323732 0.0483796 2.89649e-20)
(-0.429284 0.0673283 2.87206e-20)
(-0.548815 0.103803 0)
(-0.677641 0.142254 0)
(-0.810091 0.170813 -2.79944e-20)
(-0.939418 0.185742 2.77341e-20)
(-1.05979 0.187678 0)
(-1.16535 0.178923 0)
(-1.25416 0.162747 -2.70758e-20)
(-1.32167 0.143147 0)
(-1.36474 0.120333 0)
(-1.39191 0.0931724 2.64467e-20)
(-1.3884 0.0690048 0)
(-1.34702 0.0465584 -2.60348e-20)
(-1.27504 0.023594 5.17501e-20)
(-1.13707 0.0137021 0)
(-0.953801 -0.0348004 0)
(-0.818697 -0.170595 1.01318e-19)
(-0.69745 -0.244778 1.00603e-19)
(-0.570501 -0.273494 9.99002e-20)
(-0.403721 -0.288852 -4.95837e-20)
(-0.233393 -0.231772 4.9256e-20)
(-0.0575454 -0.154421 1.46674e-19)
(0.120318 -0.148023 -9.70095e-20)
(0.322347 -0.227932 -4.8075e-20)
(0.539673 -0.33538 0)
(0.746222 -0.412128 4.72023e-20)
(0.921337 -0.427172 -4.67562e-20)
(1.06005 -0.382227 0)
(1.16459 -0.292392 0)
(1.23225 -0.17741 0)
(1.26084 -0.0571588 4.48885e-20)
(1.25953 0.0663633 0)
(1.24169 0.210209 -8.77878e-20)
(1.18685 0.373313 0)
(1.04692 0.512295 -8.57712e-20)
(0.808759 0.580334 0)
(0.526384 0.557511 8.37152e-20)
(0.269647 0.45388 0)
(0.076927 0.274276 -8.17503e-20)
(-0.0372958 0.0240131 4.03601e-20)
(-0.0790888 -0.280744 0)
(-0.0153223 -0.604371 7.93783e-20)
(0.207724 -0.81277 3.94377e-20)
(0.597173 -0.66036 3.91e-20)
(0.946601 -0.246031 0)
(1.04087 0.0211444 3.83857e-20)
(1.09423 -0.0678997 3.79949e-20)
(1.2271 -0.237215 0)
(1.41218 -0.339236 -3.72379e-20)
(1.42898 -0.285318 7.3713e-20)
(0.701645 0.273453 0)
(-0.308314 0.909589 3.61432e-20)
(-1.10923 1.1483 0)
(-1.70132 1.06943 -1.05439e-19)
(-2.16438 0.922711 0)
(-2.55026 0.777979 1.0216e-19)
(-2.87441 0.654596 3.35597e-20)
(-3.15197 0.554535 -3.28139e-20)
(-3.39585 0.474943 -6.45663e-20)
(-3.611 0.41082 6.3524e-20)
(-3.80277 0.357316 0)
(-3.97239 0.310368 0)
(-4.12099 0.266878 0)
(-4.24836 0.224885 -1.79314e-19)
(-4.35408 0.183359 -5.89561e-20)
(-4.4374 0.141894 5.81331e-20)
(-4.49782 0.100646 0)
(-4.53502 0.0600797 5.65035e-20)
(-4.54923 0.0208818 -5.59822e-20)
(-4.54111 -0.0160712 -5.53654e-20)
(-4.50971 -0.0502922 0)
(-4.45634 -0.0815042 0)
(-4.38239 -0.109489 0)
(-4.28976 -0.134236 -5.33213e-20)
(-4.18029 -0.155807 0)
(-4.05586 -0.174403 1.0492e-19)
(-3.91821 -0.190308 1.56253e-19)
(-3.76887 -0.203859 -1.03409e-19)
(-3.60921 -0.215388 0)
(-3.44037 -0.225171 -5.09665e-20)
(-3.26339 -0.2334 0)
(-3.07924 -0.240183 -1.00547e-19)
(-2.88888 -0.245562 4.99027e-20)
(-2.69331 -0.249507 4.95398e-20)
(-2.49361 -0.251936 0)
(-2.29094 -0.252755 1.4638e-19)
(-2.08658 -0.251908 -9.67866e-20)
(-1.88186 -0.2494 -4.79819e-20)
(-1.6781 -0.245343 0)
(-1.47652 -0.239926 -4.71005e-20)
(-1.27825 -0.233361 -1.39901e-19)
(-1.08423 -0.225978 0)
(-0.895044 -0.218167 -9.12943e-20)
(-0.711075 -0.210185 -9.02593e-20)
(-0.532411 -0.202452 -8.91968e-20)
(-0.358943 -0.195042 0)
(-0.190185 -0.188366 0)
(-0.025498 -0.182432 0)
(0.135645 -0.177627 4.23608e-20)
(0.294038 -0.173635 4.17911e-20)
(0.450605 -0.170247 0)
(0.605921 -0.16726 8.12482e-20)
(0.760274 -0.164207 8.00964e-20)
(0.913477 -0.160455 0)
(1.06476 -0.155275 7.78348e-20)
(1.21272 -0.147921 1.53389e-19)
(1.35539 -0.137789 -7.55923e-20)
(1.49054 -0.124664 -7.44621e-20)
(1.61594 -0.108869 0)
(1.7292 -0.0910671 0)
(1.82787 -0.0720319 0)
(1.91092 -0.0528065 -7.01444e-20)
(1.97702 -0.0344615 6.90734e-20)
(2.0256 -0.0174405 1.36064e-19)
(2.05942 -0.00199039 -6.70012e-20)
(2.07952 0.0115064 6.59643e-20)
(2.08792 0.0231376 6.49594e-20)
(2.08727 0.0335371 0)
(2.08002 0.0430212 0)
(2.0679 0.0513525 -6.19672e-20)
(2.05184 0.0577811 0)
(2.0324 0.0612366 0)
(2.01006 0.0608322 1.18133e-19)
(1.98549 0.056725 0)
(1.95965 0.0500602 5.71727e-20)
(1.93353 0.0422703 -5.62364e-20)
(1.9079 0.0345377 0)
(1.88322 0.0275848 5.4393e-20)
(1.8598 0.0217032 0)
(1.83787 0.0169051 0)
(1.81772 0.0130753 -5.1667e-20)
(1.79961 0.0100717 1.01541e-19)
(1.78367 0.00776724 -4.9876e-20)
(1.76991 0.00604442 0)
(1.75813 0.00478988 0)
(1.74813 0.00388921 4.72224e-20)
(1.73954 0.00325286 0)
(1.73222 0.00280518 4.54725e-20)
(1.72577 0.00251132 0)
(1.72027 0.00232564 0)
(1.71526 0.00230328 0)
(1.71107 0.00237387 4.20221e-20)
(1.70689 0.00272532 0)
(1.70341 0.00312521 -4.03227e-20)
(1.69923 0.00410157 0)
(1.69535 0.00489339 0)
(1.68994 0.00700522 7.56134e-20)
(1.68343 0.00806438 -7.39553e-20)
(1.67582 0.0124726 0)
(1.6615 0.0130822 0)
(1.6535 0.0226757 0)
(1.61673 0.0201629 2.02312e-19)
(1.62156 0.0420385 0)
(1.52237 0.0307688 -1.28535e-19)
(-0.0139263 -0.132283 -1.67448e-23)
(0.152362 -0.434732 -1.39637e-19)
(0.368033 -0.589901 0)
(0.568067 -0.608049 1.37321e-19)
(0.739196 -0.549059 0)
(0.876944 -0.449274 0)
(0.981089 -0.327045 -5.77597e-23)
(1.0521 -0.194786 -6.65126e-20)
(1.09168 -0.0641356 -6.59326e-20)
(1.10286 0.0566143 -6.54852e-20)
(1.08539 0.164465 0)
(1.04032 0.253073 0)
(0.975223 0.312698 6.39447e-20)
(0.898217 0.345819 1.26961e-19)
(0.809979 0.361367 -1.26048e-19)
(0.706559 0.352978 0)
(0.584805 0.33393 -1.24265e-19)
(0.459149 0.34249 6.16938e-20)
(0.345553 0.37208 0)
(0.230363 0.375429 -1.21591e-19)
(0.104471 0.325393 -6.03366e-20)
(-0.0312428 0.247398 1.19763e-19)
(-0.188731 0.212193 5.93723e-20)
(-0.375955 0.259276 0)
(-0.593442 0.344293 -1.16678e-19)
(-0.831604 0.415219 -1.15631e-19)
(-1.07041 0.459558 0)
(-1.29295 0.482302 -1.13553e-19)
(-1.49276 0.486265 0)
(-1.66787 0.472759 -1.11542e-19)
(-1.81812 0.443782 -5.53545e-20)
(-1.94322 0.401829 0)
(-2.04222 0.349126 0)
(-2.11555 0.28809 0)
(-2.16328 0.221837 0)
(-2.18386 0.153144 0)
(-2.17441 0.0849291 0)
(-2.1369 0.0167565 -1.04608e-19)
(-2.07878 -0.0630239 1.55866e-19)
(-1.98945 -0.17041 0)
(-1.85709 -0.31512 0)
(-1.71489 -0.480537 0)
(-1.59208 -0.60707 -1.11613e-22)
(-1.4445 -0.658252 -1.00406e-19)
(-1.26871 -0.689978 -1.99318e-19)
(-1.08608 -0.722757 1.97932e-19)
(-0.85134 -0.719302 9.82498e-20)
(-0.575036 -0.718371 -9.76282e-20)
(-0.266402 -0.738624 4.30571e-23)
(0.0474406 -0.772001 -9.61145e-20)
(0.352588 -0.784121 0)
(0.655526 -0.741983 -9.43465e-20)
(0.955904 -0.629841 2.38231e-23)
(1.24363 -0.470116 0)
(1.51829 -0.296782 0)
(1.76986 -0.110949 9.06103e-20)
(1.95959 0.0709333 0)
(2.03303 0.201406 0)
(1.96008 0.286699 -8.74394e-20)
(1.78694 0.414823 -1.73079e-19)
(1.58988 0.606234 8.56416e-20)
(1.40076 0.755353 0)
(1.22519 0.761792 -8.35654e-20)
(1.0715 0.627655 0)
(0.953412 0.413851 -8.13516e-20)
(0.873953 0.164817 -8.07438e-20)
(0.824916 -0.115793 1.59729e-19)
(0.805833 -0.454008 7.90786e-20)
(0.803496 -0.813459 0)
(0.817146 -0.832027 -1.56124e-19)
(0.925258 -0.393377 0)
(1.10923 -0.133275 -2.30265e-19)
(1.33387 -0.357485 -1.5201e-19)
(1.43347 -0.52217 -1.505e-19)
(1.13858 -0.0746585 1.49008e-19)
(0.319032 0.806073 -2.21202e-19)
(-0.659209 1.5043 0)
(-1.37496 1.77141 0)
(-1.8161 1.71087 1.41572e-19)
(-2.11925 1.51149 2.09658e-19)
(-2.37437 1.29125 0)
(-2.59587 1.091 -6.79871e-20)
(-2.80771 0.926459 0)
(-3.00877 0.795546 1.96934e-19)
(-3.20454 0.692016 3.86169e-22)
(-3.39168 0.607757 -3.38627e-22)
(-3.56962 0.535913 -1.24944e-19)
(-3.7353 0.470796 0)
(-3.88625 0.408502 1.2107e-19)
(-4.01957 0.34648 2.55733e-22)
(-4.13273 0.283616 0)
(-4.2235 0.219723 0)
(-4.29019 0.155362 0)
(-4.33172 0.0914721 -1.1318e-19)
(-4.34783 0.0291935 0)
(-4.33898 -0.0301046 0)
(-4.30601 -0.0858688 0)
(-4.25058 -0.137091 0)
(-4.17446 -0.183225 0)
(-4.07965 -0.223997 -1.06464e-19)
(-3.96823 -0.259492 0)
(-3.84217 -0.290035 -1.04931e-19)
(-3.70329 -0.316128 -1.04161e-19)
(-3.55316 -0.338344 1.03417e-19)
(-3.39308 -0.357252 0)
(-3.22414 -0.373323 1.01974e-19)
(-3.04726 -0.386873 0)
(-2.86333 -0.398071 1.0055e-19)
(-2.67322 -0.406965 -9.98313e-20)
(-2.47789 -0.41349 -2.97237e-19)
(-2.27842 -0.417482 0)
(-2.07603 -0.418754 -2.92712e-19)
(-1.87206 -0.417212 -9.67609e-20)
(-1.66794 -0.412847 0)
(-1.4651 -0.40583 -1.90191e-19)
(-1.26483 -0.396493 -1.88403e-19)
(-1.06835 -0.385185 2.79809e-19)
(-0.876712 -0.372453 0)
(-0.690438 -0.359038 9.12962e-20)
(-0.509998 -0.345246 9.02614e-20)
(-0.335347 -0.331954 2.67589e-19)
(-0.166398 -0.319007 0)
(-0.00274754 -0.307721 0)
(0.156259 -0.297733 0)
(0.311453 -0.289345 8.46611e-20)
(0.463734 -0.282311 0)
(0.613834 -0.276498 0)
(0.762475 -0.271459 -8.12186e-20)
(0.910009 -0.266465 -8.00683e-20)
(1.05614 -0.26053 0)
(1.19974 -0.252559 0)
(1.33876 -0.241558 -1.53343e-19)
(1.47058 -0.226824 0)
(1.59274 -0.208099 1.48909e-19)
(1.70387 -0.185492 1.46686e-19)
(1.80404 -0.159374 0)
(1.89422 -0.130719 0)
(1.97474 -0.100971 -1.40233e-19)
(2.04476 -0.071461 -2.01996e-23)
(2.10273 -0.0434538 -1.84737e-23)
(2.14712 -0.0181396 0)
(2.17766 0.00343536 -2.63838e-19)
(2.19503 0.0211194 0)
(2.20158 0.0352226 0)
(2.20097 0.0463721 0)
(2.19727 0.0548967 1.23924e-19)
(2.19353 0.0606043 0)
(2.19087 0.0628786 -2.40052e-19)
(2.18902 0.0612936 -1.18109e-19)
(2.18727 0.0564491 0)
(2.18489 0.0496568 -1.14317e-19)
(2.18144 0.042374 0)
(2.17674 0.0357092 0)
(2.17076 0.0301978 -3.2626e-19)
(2.16347 0.0258402 2.13854e-19)
(2.15487 0.0223276 0)
(2.14498 0.0193028 2.06611e-19)
(2.13393 0.0165293 -1.01507e-19)
(2.12202 0.0139364 0)
(2.1097 0.011569 0)
(2.09746 0.00950929 0)
(2.08579 0.00780556 -2.83243e-19)
(2.07509 0.00646476 0)
(2.06559 0.00543305 -9.09161e-20)
(2.0574 0.00467481 0)
(2.05053 0.00409982 0)
(2.04491 0.00375717 0)
(2.04035 0.00352541 0)
(2.03678 0.00365133 0)
(2.03379 0.00381989 0)
(2.03156 0.00474447 -1.5787e-19)
(2.02914 0.00543828 0)
(2.02766 0.00783186 -7.55915e-20)
(2.02443 0.00902253 2.21796e-19)
(2.02367 0.014241 0)
(2.01727 0.0154244 0)
(2.01876 0.0264361 -1.38034e-19)
(2.00387 0.0258356 -1.34826e-19)
(2.01245 0.0488202 1.31607e-19)
(1.97742 0.0435015 1.28488e-19)
(0.0821259 -0.32295 2.11045e-19)
(0.35428 -0.912823 2.09198e-19)
(0.56817 -1.06128 1.38239e-19)
(0.72739 -0.991875 6.84881e-20)
(0.843395 -0.847687 0)
(0.931762 -0.676105 -1.34847e-19)
(0.997007 -0.488256 6.6806e-20)
(1.03701 -0.29717 0)
(1.0546 -0.115412 6.59272e-20)
(1.05199 0.0546363 0)
(1.03035 0.209233 -1.2963e-19)
(0.975725 0.329704 0)
(0.884245 0.419788 -6.39455e-20)
(0.783188 0.491718 -1.26973e-19)
(0.68092 0.562083 1.26065e-19)
(0.552995 0.630614 0)
(0.403805 0.649989 1.24291e-19)
(0.249452 0.615966 0)
(0.0878388 0.598327 0)
(-0.0955247 0.606958 1.21581e-19)
(-0.312403 0.618131 0)
(-0.583639 0.658985 -5.19342e-23)
(-0.892368 0.729946 0)
(-1.19478 0.798969 0)
(-1.47264 0.843861 1.31221e-22)
(-1.7284 0.862017 1.15296e-19)
(-1.96393 0.856443 1.14072e-19)
(-2.17611 0.83111 1.13241e-19)
(-2.36338 0.788043 0)
(-2.52391 0.728074 2.22267e-19)
(-2.65622 0.653023 0)
(-2.75968 0.565383 1.09095e-19)
(-2.83431 0.467726 0)
(-2.88003 0.362677 0)
(-2.89659 0.25304 -1.06486e-19)
(-2.88477 0.141491 0)
(-2.84536 0.0301884 1.04916e-19)
(-2.77849 -0.080938 2.8557e-22)
(-2.68321 -0.189983 -2.0711e-19)
(-2.56379 -0.29507 2.05406e-19)
(-2.4331 -0.401907 0)
(-2.30233 -0.520311 0)
(-2.16351 -0.648094 1.00381e-19)
(-1.99991 -0.766934 0)
(-1.81171 -0.864777 9.94527e-20)
(-1.60074 -0.941123 -9.8767e-20)
(-1.36691 -1.00349 -9.80862e-20)
(-1.11083 -1.05338 0)
(-0.842309 -1.10539 9.6703e-20)
(-0.5692 -1.16076 9.59711e-20)
(-0.292165 -1.20692 -1.90168e-19)
(-0.000581887 -1.22368 9.43881e-20)
(0.326849 -1.18697 9.3494e-20)
(0.698673 -1.10477 0)
(1.12966 -0.986889 0)
(1.61743 -0.766806 -9.0565e-20)
(2.09816 -0.41288 0)
(2.48741 0.0298006 0)
(2.70824 0.458996 1.74831e-19)
(2.73459 0.785629 1.72725e-19)
(2.61087 0.985186 0)
(2.43487 1.05691 0)
(2.27188 0.994158 0)
(2.12073 0.817993 0)
(1.97539 0.548866 1.62594e-19)
(1.85584 0.195037 -1.60946e-19)
(1.77196 -0.175485 -1.59453e-19)
(1.71246 -0.50787 -3.16242e-19)
(1.65922 -0.789036 0)
(1.4887 -0.847106 -1.00714e-23)
(1.35633 -0.561282 0)
(1.49587 -0.410874 1.53407e-19)
(1.51874 -0.442665 -1.49343e-22)
(1.02293 0.0296429 1.50597e-19)
(0.177705 0.994799 -1.49012e-19)
(-0.739917 1.84984 1.77058e-22)
(-1.41072 2.24036 0)
(-1.764 2.21237 -1.42803e-19)
(-1.97084 1.99444 -1.41465e-19)
(-2.13286 1.73693 -2.783e-19)
(-2.28827 1.49411 0)
(-2.44706 1.28926 1.34774e-19)
(-2.61953 1.12474 0)
(-2.80114 0.993716 -2.61816e-19)
(-2.98998 0.887712 1.29047e-19)
(-3.18022 0.797307 -1.26978e-19)
(-3.36666 0.715442 1.2495e-19)
(-3.54381 0.63633 2.45246e-19)
(-3.70664 0.556311 -1.21076e-19)
(-3.85061 0.473341 1.19256e-19)
(-3.97196 0.386914 0)