/*--------------------------------*- C++ -*----------------------------------*\
  =========                 |
  \\      /  F ield         | OpenFOAM: The Open Source CFD Toolbox
   \\    /   O peration     | Website:  https://openfoam.org
    \\  /    A nd           | Version:  7
     \\/     M anipulation  |
\*---------------------------------------------------------------------------*/
FoamFile
{
    version     2.0;
    format      ascii;
    class       volVectorField;
    location    "0.09";
    object      UMean;
}
// * * * * * * * * * * * * * * * * * * * * * * * * * * * * * * * * * * * * * //

dimensions      [0 1 -1 0 0 0 0];

internalField   nonuniform List<vector> 
12225
(
(4.7696 0.164219 0)
(4.17202 0.111367 0)
(3.70839 0.0982479 0)
(3.33631 0.0819033 0)
(3.00013 0.0688986 0)
(2.68525 0.059373 0)
(2.39274 0.0511953 0)
(2.12711 0.0433947 0)
(1.89201 0.0352649 0)
(1.68838 0.0277533 0)
(1.51723 0.0198148 0)
(1.37577 0.0141054 0)
(1.2636 0.00676244 0)
(1.17467 0.00541958 0)
(1.10531 -0.00292938 0)
(1.05427 0.00388123 0)
(1.00846 -0.0126906 0)
(0.983621 -0.00104327 0)
(5.02153 0.113445 0)
(4.87335 0.0742414 0)
(4.75476 0.0906567 0)
(4.66435 0.0905207 0)
(4.56973 0.089382 0)
(4.46265 0.090251 0)
(4.34502 0.0910068 0)
(4.22244 0.0897558 0)
(4.09764 0.0867101 0)
(3.9757 0.081178 0)
(3.85583 0.0749938 0)
(3.74471 0.0665057 0)
(3.63611 0.0599298 0)
(3.54146 0.0503832 0)
(3.44381 0.0469636 0)
(3.36622 0.0362307 0)
(3.27511 0.0369701 0)
(3.20739 0.016142 0)
(4.99578 0.172224 0)
(4.87462 0.12271 0)
(4.79543 0.131354 0)
(4.76453 0.126416 0)
(4.74849 0.119929 0)
(4.73185 0.117285 0)
(4.71241 0.116079 0)
(4.69094 0.114304 0)
(4.66748 0.110456 0)
(4.6415 0.10541 0)
(4.61285 0.0981055 0)
(4.58136 0.0912452 0)
(4.54826 0.0823811 0)
(4.51292 0.0767251 0)
(4.47829 0.0684487 0)
(4.44088 0.065401 0)
(4.40752 0.057717 0)
(4.36545 0.0496045 0)
(4.99018 0.189863 0)
(4.89158 0.121297 0)
(4.81374 0.120499 0)
(4.77902 0.116913 0)
(4.7655 0.110398 0)
(4.75723 0.106955 0)
(4.75111 0.106069 0)
(4.7477 0.105021 0)
(4.74693 0.102723 0)
(4.74733 0.0986827 0)
(4.74786 0.0937934 0)
(4.74707 0.0877286 0)
(4.74546 0.082207 0)
(4.74169 0.0761029 0)
(4.73839 0.0718973 0)
(4.73249 0.0668604 0)
(4.72972 0.0630946 0)
(4.72148 0.0574159 0)
(4.99567 0.214417 0)
(4.92046 0.144634 0)
(4.85037 0.136417 0)
(4.81334 0.132578 0)
(4.79745 0.124351 0)
(4.788 0.117765 0)
(4.78097 0.113973 0)
(4.77681 0.11105 0)
(4.77601 0.10726 0)
(4.77755 0.10245 0)
(4.78048 0.0966433 0)
(4.78349 0.0905785 0)
(4.78664 0.0843263 0)
(4.78916 0.0786047 0)
(4.79218 0.0734084 0)
(4.79474 0.0685026 0)
(4.79869 0.0641856 0)
(4.8012 0.0579935 0)
(4.98966 0.23037 0)
(4.93415 0.159738 0)
(4.87455 0.142736 0)
(4.83889 0.136817 0)
(4.82297 0.127551 0)
(4.81445 0.118934 0)
(4.80822 0.1132 0)
(4.8042 0.108993 0)
(4.803 0.104641 0)
(4.80408 0.099431 0)
(4.80663 0.093577 0)
(4.80957 0.087351 0)
(4.81279 0.0812491 0)
(4.81576 0.0754176 0)
(4.81923 0.0700892 0)
(4.82255 0.0651106 0)
(4.8269 0.0601245 0)
(4.83042 0.0548204 0)
(4.99974 0.244759 0)
(4.95795 0.176165 0)
(4.90711 0.152199 0)
(4.87251 0.143414 0)
(4.85559 0.133512 0)
(4.84708 0.123632 0)
(4.8413 0.116129 0)
(4.83732 0.110527 0)
(4.8357 0.105287 0)
(4.83622 0.0995739 0)
(4.83826 0.0933723 0)
(4.84087 0.0869652 0)
(4.84391 0.0806869 0)
(4.84682 0.0746725 0)
(4.85026 0.0690971 0)
(4.85343 0.0637546 0)
(4.85759 0.058579 0)
(4.86067 0.053348 0)
(5.00079 0.25521 0)
(4.97116 0.190992 0)
(4.93027 0.162143 0)
(4.89911 0.149692 0)
(4.88247 0.138804 0)
(4.87437 0.127836 0)
(4.86934 0.118694 0)
(4.8659 0.111549 0)
(4.86446 0.105265 0)
(4.86501 0.0989094 0)
(4.86714 0.0922774 0)
(4.86996 0.085564 0)
(4.87328 0.0790195 0)
(4.87651 0.0728003 0)
(4.88027 0.0669276 0)
(4.88368 0.0613757 0)
(4.88802 0.0559873 0)
(4.89126 0.0507907 0)
(5.00241 0.261607 0)
(4.9818 0.202778 0)
(4.94934 0.170883 0)
(4.92191 0.154861 0)
(4.90607 0.142798 0)
(4.89855 0.131088 0)
(4.8945 0.120712 0)
(4.89193 0.112195 0)
(4.89088 0.104855 0)
(4.89145 0.0978493 0)
(4.89346 0.0908269 0)
(4.8962 0.0838415 0)
(4.8995 0.0770749 0)
(4.90278 0.0706553 0)
(4.90653 0.0645823 0)
(4.91001 0.0588572 0)
(4.91428 0.0533295 0)
(4.91773 0.0481242 0)
(4.99794 0.268796 0)
(4.98438 0.21471 0)
(4.95955 0.18078 0)
(4.93655 0.161261 0)
(4.92225 0.147382 0)
(4.9154 0.134762 0)
(4.91222 0.123339 0)
(4.91056 0.113609 0)
(4.91014 0.105228 0)
(4.91102 0.0975084 0)
(4.91314 0.090017 0)
(4.91598 0.0827072 0)
(4.91933 0.0756533 0)
(4.92271 0.0689706 0)
(4.92648 0.0626197 0)
(4.93004 0.0566499 0)
(4.93426 0.0508845 0)
(4.93786 0.0455136 0)
(4.99525 0.271095 0)
(4.98576 0.222184 0)
(4.96647 0.187684 0)
(4.94724 0.165654 0)
(4.93441 0.150023 0)
(4.92801 0.136521 0)
(4.92538 0.12425 0)
(4.92442 0.113479 0)
(4.92455 0.104133 0)
(4.92573 0.095714 0)
(4.92799 0.0877748 0)
(4.93093 0.0801656 0)
(4.93442 0.0728703 0)
(4.93795 0.0659749 0)
(4.94186 0.0594199 0)
(4.9455 0.0532608 0)
(4.94981 0.0473105 0)
(4.95346 0.0417464 0)
(5.00279 0.274701 0)
(4.99536 0.229811 0)
(4.97973 0.195292 0)
(4.9634 0.17136 0)
(4.95181 0.153948 0)
(4.94565 0.139391 0)
(4.94309 0.126325 0)
(4.94234 0.114723 0)
(4.94267 0.104537 0)
(4.94391 0.0954367 0)
(4.94614 0.0870146 0)
(4.94903 0.0790674 0)
(4.9525 0.0715027 0)
(4.95607 0.0643704 0)
(4.96005 0.0575813 0)
(4.96378 0.0512022 0)
(4.96815 0.0450128 0)
(4.97187 0.0392105 0)
(4.99973 0.277608 0)
(4.99527 0.234494 0)
(4.98382 0.200329 0)
(4.97118 0.175111 0)
(4.96183 0.156095 0)
(4.95669 0.140407 0)
(4.95464 0.126539 0)
(4.95427 0.114165 0)
(4.95489 0.1032 0)
(4.9563 0.093424 0)
(4.95856 0.0844881 0)
(4.96143 0.0761708 0)
(4.96489 0.068321 0)
(4.96846 0.0609441 0)
(4.97247 0.0539315 0)
(4.97624 0.047351 0)
(4.98071 0.0409691 0)
(4.98448 0.0349773 0)
(5.00484 0.280687 0)
(5.00343 0.240353 0)
(4.99553 0.206915 0)
(4.98593 0.180669 0)
(4.97863 0.160122 0)
(4.97468 0.143221 0)
(4.9734 0.128518 0)
(4.97372 0.11541 0)
(4.975 0.1037 0)
(4.97689 0.0932129 0)
(4.97943 0.0836886 0)
(4.9824 0.0749151 0)
(4.98589 0.0666955 0)
(4.98945 0.0589871 0)
(4.99344 0.0516427 0)
(4.99715 0.0447215 0)
(5.00154 0.0379801 0)
(5.00519 0.0316306 0)
(5.00306 0.279083 0)
(5.00393 0.242013 0)
(4.9993 0.209583 0)
(4.99318 0.18274 0)
(4.98873 0.1609 0)
(4.98677 0.142742 0)
(4.98684 0.12706 0)
(4.9882 0.11316 0)
(4.99036 0.100724 0)
(4.99301 0.0895767 0)
(4.99616 0.0794988 0)
(4.99962 0.0702931 0)
(5.00351 0.0617446 0)
(5.00741 0.0537656 0)
(5.01168 0.0461914 0)
(5.01563 0.03905 0)
(5.02016 0.0321116 0)
(5.02389 0.0255494 0)
(5.00991 0.282046 0)
(5.0115 0.247043 0)
(5.00918 0.214894 0)
(5.00588 0.187193 0)
(5.00393 0.164054 0)
(5.00382 0.144631 0)
(5.00517 0.127905 0)
(5.00747 0.113155 0)
(5.01038 0.0999812 0)
(5.01365 0.0881626 0)
(5.01726 0.0774789 0)
(5.02105 0.067742 0)
(5.02513 0.0587289 0)
(5.02919 0.0503449 0)
(5.03348 0.0424045 0)
(5.03749 0.0349459 0)
(5.04184 0.0277212 0)
(5.04554 0.0209403 0)
(5.00037 0.279275 0)
(5.00279 0.24455 0)
(5.0027 0.212677 0)
(5.0026 0.184723 0)
(5.00387 0.16078 0)
(5.00651 0.140333 0)
(5.01005 0.122674 0)
(5.01409 0.107176 0)
(5.01844 0.0933828 0)
(5.02293 0.0810068 0)
(5.02756 0.0698165 0)
(5.03217 0.0596449 0)
(5.03685 0.0502919 0)
(5.04136 0.0416498 0)
(5.04593 0.0335268 0)
(5.05012 0.0259109 0)
(5.05448 0.018575 0)
(5.05818 0.011646 0)
(5.00166 0.283928 0)
(5.00565 0.246505 0)
(5.00782 0.21331 0)
(5.01032 0.184268 0)
(5.01434 0.159094 0)
(5.01952 0.137414 0)
(5.02517 0.118735 0)
(5.03088 0.102541 0)
(5.03653 0.0883567 0)
(5.04203 0.0758071 0)
(5.04743 0.0645689 0)
(5.0526 0.0544172 0)
(5.05767 0.0451179 0)
(5.06241 0.0365632 0)
(5.06712 0.0285593 0)
(5.07135 0.0211227 0)
(5.07572 0.0140149 0)
(5.07925 0.00740955 0)
(5.00067 0.278711 0)
(5.00829 0.239178 0)
(5.01476 0.203875 0)
(5.02154 0.173178 0)
(5.02966 0.146912 0)
(5.03858 0.124493 0)
(5.04745 0.105179 0)
(5.05587 0.0883308 0)
(5.06382 0.0734767 0)
(5.0713 0.060295 0)
(5.07838 0.0485167 0)
(5.08496 0.0379332 0)
(5.09112 0.028324 0)
(5.09666 0.0195563 0)
(5.10187 0.0114448 0)
(5.10641 0.00395724 0)
(5.11089 -0.00310212 0)
(5.1145 -0.00963893 0)
(5.00372 0.27502 0)
(5.01295 0.231773 0)
(5.02299 0.192885 0)
(5.03442 0.159915 0)
(5.04704 0.132831 0)
(5.05958 0.110599 0)
(5.0711 0.0920344 0)
(5.0814 0.0762619 0)
(5.09078 0.0627043 0)
(5.09946 0.0509658 0)
(5.10762 0.0406877 0)
(5.11517 0.031574 0)
(5.12219 0.0233374 0)
(5.12852 0.0158272 0)
(5.13439 0.00885703 0)
(5.13949 0.00242228 0)
(5.14436 -0.00366739 0)
(5.14829 -0.00928915 0)
(5.00095 0.271489 0)
(5.01225 0.220848 0)
(5.0268 0.177664 0)
(5.04401 0.142825 0)
(5.06223 0.115068 0)
(5.07949 0.0923092 0)
(5.09483 0.072923 0)
(5.1083 0.0561093 0)
(5.12028 0.0415726 0)
(5.13104 0.0291248 0)
(5.14074 0.0184762 0)
(5.14933 0.00928391 0)
(5.15701 0.00120232 0)
(5.16374 -0.0060063 0)
(5.16987 -0.0125594 0)
(5.17517 -0.0185388 0)
(5.18019 -0.024101 0)
(5.18427 -0.0292102 0)
(5.00432 0.266405 0)
(5.01981 0.206001 0)
(5.04076 0.158846 0)
(5.06414 0.124419 0)
(5.08658 0.0992851 0)
(5.10602 0.0798609 0)
(5.12241 0.0638539 0)
(5.13673 0.0502511 0)
(5.14981 0.0386221 0)
(5.16186 0.0286335 0)
(5.17286 0.0199135 0)
(5.18265 0.012165 0)
(5.19136 0.00515096 0)
(5.19898 -0.00122793 0)
(5.20583 -0.0070934 0)
(5.21173 -0.0124457 0)
(5.21722 -0.0174542 0)
(5.22171 -0.0220398 0)
(4.99904 0.260742 0)
(5.02401 0.188305 0)
(5.05642 0.135667 0)
(5.08961 0.099523 0)
(5.11862 0.0731401 0)
(5.142 0.0517522 0)
(5.16094 0.0336596 0)
(5.17713 0.0187328 0)
(5.19156 0.00682661 0)
(5.20441 -0.00265021 0)
(5.21572 -0.0104557 0)
(5.22548 -0.0171595 0)
(5.234 -0.0230898 0)
(5.24138 -0.0283964 0)
(5.248 -0.033204 0)
(5.25367 -0.0375789 0)
(5.25891 -0.0416377 0)
(5.2631 -0.0453861 0)
(5.0063 0.245124 0)
(5.04006 0.164912 0)
(5.08357 0.116019 0)
(5.12394 0.0887567 0)
(5.15566 0.0703616 0)
(5.1799 0.0541121 0)
(5.20013 0.0393094 0)
(5.21858 0.0267315 0)
(5.23553 0.0164916 0)
(5.25045 0.00805567 0)
(5.26317 0.000818903 0)
(5.27387 -0.00556725 0)
(5.28312 -0.0112713 0)
(5.29112 -0.0163611 0)
(5.29829 -0.0209633 0)
(5.30445 -0.025129 0)
(5.31014 -0.0290113 0)
(5.31479 -0.0325657 0)
(5.00389 0.228983 0)
(5.05498 0.127328 0)
(5.11717 0.0731273 0)
(5.16782 0.0454211 0)
(5.20262 0.0256715 0)
(5.22743 0.00826567 0)
(5.2483 -0.00566325 0)
(5.26739 -0.0155323 0)
(5.28454 -0.0225267 0)
(5.29928 -0.028119 0)
(5.31171 -0.0330952 0)
(5.32224 -0.0376355 0)
(5.3314 -0.0417336 0)
(5.33935 -0.0454079 0)
(5.34646 -0.0487386 0)
(5.3525 -0.0517958 0)
(5.35802 -0.0546588 0)
(5.36246 -0.0573409 0)
(5.01401 0.212343 0)
(5.08683 0.112949 0)
(5.16689 0.0779231 0)
(5.22436 0.0621366 0)
(5.2605 0.0443748 0)
(5.28702 0.0264219 0)
(5.31096 0.012229 0)
(5.33298 0.00227355 0)
(5.35196 -0.0050358 0)
(5.36754 -0.0110857 0)
(5.38038 -0.0164377 0)
(5.39119 -0.0211957 0)
(5.40059 -0.0254027 0)
(5.40871 -0.0291415 0)
(5.41589 -0.0325409 0)
(5.42197 -0.0356686 0)
(5.42749 -0.0386141 0)
(5.43198 -0.0413504 0)
(5.01016 0.160278 0)
(5.12246 0.034934 0)
(5.22156 0.00695677 0)
(5.27936 -0.00238952 0)
(5.31232 -0.0163939 0)
(5.33865 -0.028632 0)
(5.36376 -0.0361332 0)
(5.38671 -0.0407055 0)
(5.40612 -0.0443473 0)
(5.42202 -0.047747 0)
(5.43526 -0.0508737 0)
(5.44658 -0.0536537 0)
(5.45653 -0.0561107 0)
(5.4652 -0.0583371 0)
(5.47291 -0.0603971 0)
(5.47952 -0.0623498 0)
(5.48557 -0.0642188 0)
(5.49056 -0.0660236 0)
(5.018 0.15283 0)
(5.17919 0.0584184 0)
(5.30303 0.0446705 0)
(5.36413 0.0284301 0)
(5.39772 0.00929278 0)
(5.42669 -0.00438196 0)
(5.45404 -0.0124163 0)
(5.47786 -0.017894 0)
(5.49733 -0.0225827 0)
(5.51307 -0.0268566 0)
(5.52603 -0.030642 0)
(5.53689 -0.0339767 0)
(5.54604 -0.0369295 0)
(5.55367 -0.0396472 0)
(5.55997 -0.0421524 0)
(5.56498 -0.0445544 0)
(5.56898 -0.0468141 0)
(5.57188 -0.0490244 0)
(5.02006 0.0196231 0)
(5.23001 -0.0518319 0)
(5.35635 -0.0344324 0)
(5.41086 -0.0429769 0)
(5.44137 -0.0531269 0)
(5.46539 -0.0576792 0)
(5.4838 -0.0593753 0)
(5.49514 -0.060614 0)
(5.49945 -0.0619317 0)
(5.49794 -0.0632102 0)
(5.49179 -0.0643133 0)
(5.48213 -0.0652577 0)
(5.4694 -0.0660566 0)
(5.4544 -0.066797 0)
(5.43698 -0.0674532 0)
(5.4182 -0.0681171 0)
(5.39724 -0.0687267 0)
(5.37599 -0.0694136 0)
(4.96744 0.0706446 0)
(5.10228 -0.000517757 0)
(5.07438 -0.000446094 0)
(4.96091 -0.010879 0)
(4.83359 -0.0186288 0)
(4.70921 -0.0216912 0)
(4.58837 -0.0228839 0)
(4.46948 -0.0236639 0)
(4.35207 -0.0242577 0)
(4.23677 -0.0246407 0)
(4.12426 -0.0248282 0)
(4.01525 -0.0248726 0)
(3.90976 -0.0248154 0)
(3.80821 -0.0247061 0)
(3.70989 -0.024555 0)
(3.61573 -0.0244093 0)
(3.524 -0.0242445 0)
(3.43712 -0.0241477 0)
(-0.0344175 0.0842007 8.9308e-22)
(-0.0940748 0.0525732 -8.85143e-22)
(-0.119048 0.0148921 0)
(-0.111463 -0.0208077 0)
(-0.072826 -0.0520339 0)
(-0.0112918 -0.0759648 8.52394e-22)
(0.067213 -0.0935042 0)
(0.158841 -0.105708 0)
(0.259026 -0.112095 0)
(0.364057 -0.113604 0)
(0.469775 -0.110765 -8.09412e-22)
(0.57227 -0.104797 0)
(0.66856 -0.0961056 0)
(0.756461 -0.0851199 0)
(0.833739 -0.0722281 0)
(0.898528 -0.0577828 -7.13053e-22)
(0.949356 -0.0420494 0)
(0.985147 -0.0253694 0)
(1.00511 -0.00814503 0)
(1.00806 0.00916262 0)
(0.993864 0.0261361 0)
(0.962643 0.0424387 0)
(0.91512 0.0576635 0)
(0.852488 0.0712019 -6.28621e-22)
(0.776518 0.0822502 6.28907e-22)
(0.689145 0.0900297 -6.29856e-22)
(0.593028 0.0944581 -6.3085e-22)
(0.491168 0.0947617 0)
(0.387432 0.0912793 0)
(0.283987 0.0819287 6.30309e-22)
(0.18592 0.0666035 6.28414e-22)
(0.0933254 0.0532648 0)
(0.000386525 0.0472881 0)
(-0.0980832 0.0494203 6.16504e-22)
(-0.202491 0.0584991 0)
(-0.31143 0.0666176 0)
(-0.422602 0.0645805 -5.95257e-22)
(-0.533526 0.0578992 0)
(-0.643025 0.0612503 -5.74014e-22)
(-0.753722 0.0640169 -1.12385e-21)
(-0.859106 0.0597506 0)
(-0.959941 0.0638472 0)
(-1.05826 0.055437 0)
(-1.13747 0.0362873 0)
(-1.2051 0.0282735 0)
(-1.26463 0.0328309 -9.56073e-22)
(-1.32171 0.0374958 -9.29109e-22)
(-1.3734 0.0347483 -9.03126e-22)
(-1.41759 0.0314693 0)
(-1.45614 0.0281518 8.5888e-22)
(-1.48926 0.0246507 0)
(-1.51873 0.022101 -8.28342e-22)
(-1.54485 0.0210978 -8.18281e-22)
(-1.56703 0.0204174 0)
(-1.58401 0.0183437 0)
(-1.59506 0.0149319 0)
(-1.6011 0.0105429 -8.04705e-22)
(-1.60388 0.00508166 0)
(-1.60464 -0.000551566 0)
(-1.60269 -0.00476136 0)
(-1.59748 -0.00662634 0)
(-1.59049 -0.00585622 0)
(-1.58378 -0.00370429 0)
(-1.57834 -0.00181323 0)
(-1.57457 0.000488334 0)
(-1.57306 0.00379686 8.48337e-22)
(-1.57315 0.00669807 0)
(-1.57326 0.008379 0)
(-1.57311 0.00825147 -8.46872e-22)
(-1.57285 0.00538124 -8.41661e-22)
(-1.57127 0.00105362 0)
(-1.56701 -0.00119216 8.29812e-22)
(-1.56158 -4.257e-05 -8.24888e-22)
(-1.55805 0.00264646 0)
(-1.55806 0.00389756 8.18388e-22)
(-1.56215 0.00433355 0)
(-1.57062 0.0090437 0)
(-1.58413 0.0169657 -8.13734e-22)
(-1.59606 0.0174069 0)
(-1.5959 0.0100964 8.0834e-22)
(-1.5825 0.00199141 0)
(-1.55682 -0.0054128 -8.09376e-22)
(-1.52 -0.0119026 -8.15779e-22)
(-1.47334 -0.0174875 -8.26679e-22)
(-1.41799 -0.0222456 -1.68403e-21)
(-1.35498 -0.0262693 1.72302e-21)
(-1.28522 -0.0296435 0)
(-1.2095 -0.0324343 0)
(-1.1286 -0.034709 0)
(-1.04348 -0.0365431 1.9438e-21)
(-0.954604 -0.0380012 2.00953e-21)
(-0.862661 -0.0391173 -2.07706e-21)
(-0.768165 -0.0399227 0)
(-0.671703 -0.040429 2.21287e-21)
(-0.573787 -0.0406629 2.2791e-21)
(-0.474938 -0.0406434 2.34304e-21)
(-0.375623 -0.0403975 0)
(-0.276278 -0.0399603 0)
(-0.177276 -0.0393476 0)
(-0.0789474 -0.038592 2.56407e-21)
(0.018398 -0.0376939 0)
(0.114456 -0.036671 0)
(0.208905 -0.0355124 -2.68381e-21)
(0.301401 -0.0342201 0)
(0.391578 -0.032786 0)
(0.479067 -0.0312163 -2.7591e-21)
(0.563502 -0.0295183 0)
(0.644571 -0.0277164 0)
(0.722008 -0.0258411 2.79002e-21)
(0.795619 -0.0239242 2.79135e-21)
(0.865269 -0.0220059 0)
(0.930902 -0.02011 -2.78252e-21)
(0.992548 -0.0182793 0)
(1.05029 -0.016533 2.76093e-21)
(1.10427 -0.0148842 0)
(1.15465 -0.0133492 2.72945e-21)
(1.20161 -0.0119221 2.71075e-21)
(1.24536 -0.0105946 0)
(1.28606 -0.00935713 0)
(1.32387 -0.0081908 0)
(1.35889 -0.00708492 0)
(1.39121 -0.00602339 0)
(1.42086 -0.00500169 0)
(1.44788 -0.00399995 0)
(1.47226 -0.00301592 2.5161e-21)
(1.49398 -0.00205368 -2.48813e-21)
(1.51304 -0.00110621 0)
(1.52941 -0.000176802 0)
(1.5431 0.000728689 0)
(1.55409 0.00160304 0)
(1.56243 0.00243768 -4.68796e-21)
(1.56815 0.00322303 0)
(1.57134 0.00394893 4.57263e-21)
(1.57209 0.00460512 -4.51571e-21)
(1.57056 0.0051823 0)
(1.5669 0.00567525 0)
(1.56131 0.00607812 0)
(1.55401 0.00638401 4.2957e-21)
(1.54522 0.00659955 4.24292e-21)
(1.53517 0.00672956 0)
(1.52409 0.0067603 4.14008e-21)
(1.51224 0.00668333 4.08996e-21)
(1.49988 0.00650051 -4.04065e-21)
(1.48725 0.0062096 0)
(1.47464 0.00580441 0)
(1.4623 0.00528677 -3.89717e-21)
(1.45053 0.00467896 0)
(1.43957 0.00402622 0)
(1.42959 0.00338362 0)
(1.42068 0.0027999 0)
(1.41282 0.00230638 3.67138e-21)
(1.40594 0.00191369 3.62804e-21)
(1.39992 0.00161597 0)
(1.39463 0.00139786 3.54285e-21)
(1.38993 0.0012413 0)
(1.38571 0.00112986 0)
(1.38187 0.00105112 3.41814e-21)
(1.37833 0.000996598 0)
(1.37501 0.000961507 3.33675e-21)
(1.37186 0.000942554 0)
(1.36879 0.000938911 0)
(1.3658 0.000949251 3.21705e-21)
(1.36275 0.000975513 0)
(1.35969 0.00101635 3.13884e-21)
(1.35639 0.00107828 0)
(1.35302 0.00115882 0)
(1.34912 0.00127478 0)
(1.3451 0.00141526 -2.98661e-21)
(1.34005 0.00162441 0)
(1.33487 0.00185547 2.91302e-21)
(1.32779 0.00223751 0)
(1.32053 0.00259077 0)
(1.31006 0.00334431 0)
(1.29868 0.00381454 0)
(1.2831 0.00552222 0)
(1.26181 0.00580902 0)
(1.24126 0.0104483 0)
(1.19001 0.00884737 -5.30858e-21)
(1.1774 0.0245933 0)
(1.02271 0.0158586 0)
(0.00127533 0.172898 -2.66903e-21)
(-0.00730974 0.112567 2.64599e-21)
(0.00524074 0.015373 0)
(0.0332961 -0.0781903 -1.72139e-21)
(0.0808172 -0.157394 0)
(0.141518 -0.217756 -8.53182e-22)
(0.217043 -0.262142 1.67362e-21)
(0.301224 -0.29251 1.6571e-21)
(0.390604 -0.309687 0)
(0.480413 -0.314242 1.61249e-21)
(0.567571 -0.307563 8.10282e-22)
(0.649814 -0.291393 0)
(0.725495 -0.267328 0)
(0.793085 -0.236942 0)
(0.851094 -0.201704 0)
(0.898302 -0.162933 7.13836e-22)
(0.933585 -0.121538 0)
(0.955876 -0.0782232 -1.30564e-21)
(0.96406 -0.0337545 0)
(0.958492 0.0108779 0)
(0.939191 0.0545294 1.23435e-21)
(0.906671 0.0960808 0)
(0.861728 0.134494 -1.21914e-21)
(0.805027 0.168977 6.29396e-22)
(0.737556 0.198857 -6.29705e-22)
(0.660786 0.223059 6.30688e-22)
(0.576794 0.240603 6.31719e-22)
(0.487869 0.25054 0)
(0.396831 0.25312 0)
(0.304683 0.249705 -6.31264e-22)
(0.209886 0.24333 5.99749e-22)
(0.105857 0.245228 0)
(-0.00638336 0.258604 0)
(-0.121808 0.270955 -6.17476e-22)
(-0.236315 0.274533 0)
(-0.350673 0.273403 0)
(-0.467283 0.275768 5.96246e-22)
(-0.588064 0.276753 0)
(-0.707557 0.271268 -5.28214e-22)
(-0.82554 0.261454 1.12572e-21)
(-0.943214 0.247661 0)
(-1.05236 0.231124 0)
(-1.15478 0.205481 1.98693e-21)
(-1.25066 0.178205 1.92914e-21)
(-1.3425 0.153763 1.87199e-21)
(-1.42057 0.132344 -8.58048e-22)
(-1.48647 0.115048 9.3055e-22)
(-1.5424 0.0993309 2.61519e-21)
(-1.58955 0.0839149 -1.66532e-21)
(-1.62999 0.0703566 -8.60151e-22)
(-1.66552 0.0606786 0)
(-1.69697 0.0528583 8.29568e-22)
(-1.72347 0.0435073 -7.35143e-22)
(-1.74466 0.0312401 0)
(-1.76022 0.0178136 0)
(-1.76993 0.0061788 0)
(-1.77437 -0.000612153 8.0575e-22)
(-1.77457 -0.00251615 0)
(-1.77209 -0.00307698 -1.55139e-21)
(-1.76823 -0.00612937 0)
(-1.76337 -0.0105701 -1.56902e-21)
(-1.75807 -0.0137108 0)
(-1.75275 -0.0142581 1.59461e-21)
(-1.74842 -0.0122802 0)
(-1.74544 -0.00972512 -1.62291e-21)
(-1.74292 -0.00886681 7.85534e-22)
(-1.73953 -0.0100949 0)
(-1.73434 -0.0116027 1.64608e-21)
(-1.7275 -0.0112192 8.47573e-22)
(-1.72064 -0.00950981 8.42326e-22)
(-1.71558 -0.00948195 0)
(-1.71139 -0.0115396 7.86404e-22)
(-1.70736 -0.0118001 8.25478e-22)
(-1.70539 -0.00765127 0)
(-1.70727 -0.000380558 -8.18889e-22)
(-1.714 0.00871521 1.5846e-21)
(-1.71938 0.0141889 0)
(-1.71303 0.0083762 8.14131e-22)
(-1.69302 -0.00774432 0)
(-1.6609 -0.0274514 -2.3748e-21)
(-1.61898 -0.0464686 0)
(-1.56801 -0.0637877 2.3864e-21)
(-1.5092 -0.0790502 8.1611e-22)
(-1.44332 -0.0923137 -7.92229e-22)
(-1.37122 -0.103743 -1.62183e-21)
(-1.29351 -0.113539 1.66674e-21)
(-1.21079 -0.121888 0)
(-1.12355 -0.128946 0)
(-1.03224 -0.134848 0)
(-0.937073 -0.139691 -5.79362e-21)
(-0.838665 -0.143555 -2.00971e-21)
(-0.737434 -0.146488 2.0772e-21)
(-0.633935 -0.148536 0)
(-0.528632 -0.149738 2.18657e-21)
(-0.422038 -0.15015 -2.27915e-21)
(-0.314591 -0.149836 -2.34307e-21)
(-0.206736 -0.148872 0)
(-0.0988741 -0.147343 0)
(0.00864032 -0.145318 0)
(0.115508 -0.142865 -2.56402e-21)
(0.221443 -0.14002 0)
(0.326165 -0.136801 5.28317e-21)
(0.429379 -0.133197 8.03818e-21)
(0.530755 -0.129197 -5.41582e-21)
(0.629944 -0.12478 0)
(0.726588 -0.119963 -2.74918e-21)
(0.820328 -0.114774 0)
(0.910864 -0.109274 -5.5604e-21)
(0.997946 -0.103538 2.78254e-21)
(1.0814 -0.097667 2.78449e-21)
(1.1611 -0.0917687 0)
(1.23702 -0.0859442 8.34123e-21)
(1.30919 -0.0802903 -5.54058e-21)
(1.37771 -0.0748765 -2.76067e-21)
(1.44272 -0.0697487 0)
(1.50438 -0.0649391 -2.72916e-21)
(1.56289 -0.0604395 -8.12749e-21)
(1.61843 -0.0562228 0)
(1.67118 -0.0522595 -5.33329e-21)
(1.72127 -0.0485033 -5.28743e-21)
(1.76882 -0.0449155 -5.23932e-21)
(1.8139 -0.0414538 0)
(1.85655 -0.0380827 0)
(1.89679 -0.0347698 0)
(1.93461 -0.0315072 2.51353e-21)
(1.96999 -0.0282818 2.48773e-21)
(2.00292 -0.0250851 0)
(2.03337 -0.0219223 4.85943e-21)
(2.06133 -0.0188035 4.80169e-21)
(2.08677 -0.0157443 0)
(2.1097 -0.0127663 4.6871e-21)
(2.13016 -0.0098948 9.25608e-21)
(2.1482 -0.00715892 -4.57175e-21)
(2.1639 -0.00458826 -4.51283e-21)
(2.17736 -0.00220967 0)
(2.1887 -4.50032e-05 0)
(2.19809 0.00188865 0)
(2.20567 0.00358056 -4.29475e-21)
(2.21164 0.00503058 4.24067e-21)
(2.21618 0.00624257 8.37899e-21)
(2.21947 0.00721616 -4.13909e-21)
(2.22168 0.00795433 4.08805e-21)
(2.22296 0.00846688 4.03964e-21)
(2.22345 0.0087598 0)
(2.22328 0.00883235 0)
(2.22257 0.0086834 -3.8958e-21)
(2.22142 0.00832 0)
(2.21996 0.007766 0)
(2.21829 0.00706872 7.51758e-21)
(2.21654 0.00629326 0)
(2.2148 0.00550542 3.67055e-21)
(2.21316 0.00475733 -3.62704e-21)
(2.21168 0.00408179 0)
(2.21039 0.00349368 3.54204e-21)
(2.20933 0.00299504 0)
(2.2085 0.00258081 0)
(2.20788 0.00224304 -3.41719e-21)
(2.20747 0.00197336 6.75274e-21)
(2.20724 0.00176447 -3.33581e-21)
(2.20715 0.00160965 0)
(2.20716 0.00150541 0)
(2.20725 0.00144692 3.2161e-21)
(2.20734 0.00143804 0)
(2.20744 0.00147319 3.13783e-21)
(2.20742 0.00157151 0)
(2.20733 0.00171505 0)
(2.20694 0.00196199 0)
(2.20638 0.00224559 2.98574e-21)
(2.20524 0.00273459 0)
(2.20376 0.00320282 -2.91217e-21)
(2.20134 0.00414275 0)
(2.19812 0.00482595 0)
(2.19366 0.00670771 5.61139e-21)
(2.18694 0.00752999 -5.54375e-21)
(2.1797 0.0116136 0)
(2.16505 0.0121076 0)
(2.15554 0.0219052 0)
(2.12052 0.0205772 1.59063e-20)
(2.11555 0.0471462 0)
(2.02698 0.0429871 -1.0393e-20)
(0.0192811 0.10803 5.61176e-25)
(0.0555474 0.05385 -3.52421e-21)
(0.103023 -0.055792 0)
(0.152773 -0.166902 3.44798e-21)
(0.211824 -0.26599 0)
(0.279103 -0.346829 0)
(0.350772 -0.40773 -1.79229e-23)
(0.421942 -0.446986 -1.65871e-21)
(0.489359 -0.465075 -1.603e-21)
(0.551348 -0.463997 -1.61397e-21)
(0.607261 -0.447078 0)
(0.65685 -0.417607 0)
(0.699899 -0.37798 1.45086e-21)
(0.735684 -0.329906 2.81168e-21)
(0.763114 -0.275081 -2.72153e-21)
(0.781489 -0.214867 0)
(0.790388 -0.149838 -2.55345e-21)
(0.789554 -0.0809406 1.30657e-21)
(0.777893 -0.010445 0)
(0.754413 0.0588466 -2.37633e-21)
(0.718461 0.124774 -1.23518e-21)
(0.670366 0.186155 2.32844e-21)
(0.611101 0.242655 1.21997e-21)
(0.542489 0.293716 0)
(0.466303 0.337691 -2.33756e-21)
(0.38448 0.37235 -2.35094e-21)
(0.299028 0.395974 0)
(0.211721 0.407635 -2.37543e-21)
(0.123897 0.407329 0)
(0.0350583 0.399659 -2.38055e-21)
(-0.0597212 0.40305 -1.23017e-21)
(-0.159953 0.417285 0)
(-0.258407 0.427879 0)
(-0.353915 0.433585 0)
(-0.448285 0.439275 0)
(-0.54273 0.445672 0)
(-0.635692 0.447825 0)
(-0.727056 0.445579 -2.14709e-21)
(-0.81666 0.441355 3.19891e-21)
(-0.904536 0.429635 0)
(-0.990176 0.409717 0)
(-1.07291 0.387135 0)
(-1.154 0.356182 -1.28484e-22)
(-1.23245 0.317196 -1.93107e-21)
(-1.30611 0.278672 -3.6131e-21)
(-1.3743 0.243889 3.49766e-21)
(-1.43662 0.213249 1.62468e-21)
(-1.49273 0.184806 -1.71208e-21)
(-1.54354 0.158923 1.37753e-22)
(-1.58967 0.136829 -1.49152e-21)
(-1.63045 0.11847 0)
(-1.66509 0.101963 -1.44266e-21)
(-1.69381 0.0852636 1.24702e-22)
(-1.71761 0.0673411 0)
(-1.73765 0.0486226 0)
(-1.75411 0.030081 1.43101e-21)
(-1.76675 0.0126313 0)
(-1.77394 -0.00223471 0)
(-1.77439 -0.0136767 -1.35929e-21)
(-1.76884 -0.0218628 -2.92872e-21)
(-1.75994 -0.0263942 1.56931e-21)
(-1.75029 -0.0266382 0)
(-1.74168 -0.0228483 -1.59482e-21)
(-1.73446 -0.0168448 0)
(-1.72807 -0.0112484 -1.43117e-21)
(-1.72224 -0.00801337 -1.63468e-21)
(-1.71709 -0.00797281 3.11244e-21)
(-1.71302 -0.0100313 1.48536e-21)
(-1.71008 -0.0112091 0)
(-1.70757 -0.0100967 -3.13696e-21)
(-1.70525 -0.00995892 0)
(-1.70362 -0.0113701 -4.72261e-21)
(-1.70381 -0.00865773 -3.08468e-21)
(-1.70593 0.000611968 -3.06249e-21)
(-1.70797 0.0109999 3.04171e-21)
(-1.70447 0.0135983 -4.60764e-21)
(-1.68941 0.00374304 0)
(-1.6615 -0.0172163 0)
(-1.62391 -0.0443508 2.98779e-21)
(-1.5794 -0.0725909 4.55518e-21)
(-1.52887 -0.0994188 0)
(-1.47239 -0.123813 -1.57633e-21)
(-1.41017 -0.145452 0)
(-1.34238 -0.164414 4.75504e-21)
(-1.26929 -0.180895 9.30027e-23)
(-1.19125 -0.195171 -8.53437e-23)
(-1.10858 -0.207503 -3.40925e-21)
(-1.02168 -0.218109 0)
(-0.930916 -0.227131 3.65355e-21)
(-0.836683 -0.234646 6.06786e-23)
(-0.739424 -0.240687 0)
(-0.639584 -0.24529 0)
(-0.537638 -0.248483 0)
(-0.434057 -0.250326 -4.39911e-21)
(-0.329318 -0.250888 0)
(-0.223861 -0.250277 0)
(-0.118106 -0.248618 0)
(-0.0124332 -0.246038 0)
(0.0928462 -0.242664 0)
(0.19747 -0.238592 -5.0846e-21)
(0.301196 -0.233897 0)
(0.403776 -0.228598 -5.28298e-21)
(0.504923 -0.222682 -5.35429e-21)
(0.604307 -0.216122 5.41565e-21)
(0.701556 -0.208888 0)
(0.796283 -0.201008 5.50796e-21)
(0.888118 -0.192517 0)
(0.976749 -0.183521 5.5602e-21)
(1.06193 -0.174162 -5.57214e-21)
(1.14349 -0.1646 -1.67034e-20)
(1.22133 -0.155015 0)
(1.29547 -0.145578 -1.6657e-20)
(1.36597 -0.136439 -5.52263e-21)
(1.43296 -0.127714 0)
(1.49664 -0.119482 -1.09593e-20)
(1.55717 -0.111775 -1.08937e-20)
(1.61479 -0.104579 1.62373e-20)
(1.66969 -0.0978464 0)
(1.72205 -0.0915257 5.33308e-21)
(1.772 -0.0855464 5.28722e-21)
(1.81963 -0.0798425 1.57074e-20)
(1.86501 -0.0743427 0)
(1.90816 -0.0689928 0)
(1.9491 -0.0637482 0)
(1.9878 -0.0585843 5.02152e-21)
(2.02424 -0.0534756 0)
(2.0584 -0.0484169 0)
(2.09026 -0.0434159 -4.85924e-21)
(2.1198 -0.0384894 -4.80151e-21)
(2.14702 -0.0336635 0)
(2.17195 -0.0289723 0)
(2.19463 -0.0244555 -9.25575e-21)
(2.21513 -0.0201548 0)
(2.23355 -0.0161121 9.02732e-21)
(2.25003 -0.0123647 8.91199e-21)
(2.26469 -0.00894528 0)
(2.27769 -0.00588168 0)
(2.28914 -0.00319012 -8.58555e-21)
(2.2992 -0.000877196 -1.97654e-24)
(2.30801 0.0010616 -1.7608e-24)
(2.31572 0.00263821 0)
(2.3225 0.00387277 -1.63519e-20)
(2.32851 0.00479061 0)
(2.33389 0.00541401 0)
(2.33877 0.00576221 0)
(2.3432 0.00585121 7.7915e-21)
(2.34723 0.00570098 0)
(2.35088 0.00534408 -1.52143e-20)
(2.35416 0.00483261 -7.5171e-21)
(2.3571 0.00423041 0)
(2.35973 0.00359828 -7.34042e-21)
(2.36213 0.00298247 0)
(2.36433 0.00241067 0)
(2.36641 0.00189456 -2.12505e-20)
(2.36842 0.00143618 1.39993e-20)
(2.3704 0.001034 0)
(2.37239 0.000687197 1.36681e-20)
(2.37443 0.000395977 -6.75222e-21)
(2.37653 0.00016248 0)
(2.3787 -1.31808e-05 0)
(2.38096 -0.000127589 0)
(2.38328 -0.000184246 -1.9295e-20)
(2.38567 -0.000173326 0)
(2.38808 -0.000104627 -6.27526e-21)
(2.39051 5.34373e-05 0)
(2.39288 0.000270362 0)
(2.39519 0.000635172 0)
(2.39731 0.00104758 0)
(2.39931 0.00174899 0)
(2.40084 0.00242742 0)
(2.40227 0.00374081 -1.15001e-20)
(2.40264 0.00476514 0)
(2.40316 0.00729757 -5.61086e-21)
(2.40127 0.00870762 1.66247e-20)
(2.40056 0.0138893 0)
(2.39413 0.0156058 0)
(2.39224 0.0270319 -1.06981e-20)
(2.37654 0.0290342 -1.05983e-20)
(2.37522 0.0561846 1.04695e-20)
(2.34322 0.0610367 1.0392e-20)
(0.0110485 0.014142 5.33086e-21)
(0.0544778 -0.0686036 5.29385e-21)
(0.112461 -0.184068 3.49474e-21)
(0.184234 -0.304722 1.72277e-21)
(0.260714 -0.41452 0)
(0.331635 -0.498515 -3.33579e-21)
(0.391407 -0.551201 1.61294e-21)
(0.438119 -0.574549 0)
(0.473347 -0.572765 1.60435e-21)
(0.499645 -0.551127 0)
(0.518796 -0.515473 -2.96357e-21)
(0.532818 -0.469548 0)
(0.544566 -0.414663 -1.45192e-21)
(0.554294 -0.352031 -2.81369e-21)
(0.559136 -0.283314 2.72342e-21)
(0.557695 -0.210185 0)
(0.549082 -0.133151 2.55508e-21)
(0.532225 -0.0510371 0)
(0.50548 0.0364251 0)
(0.468126 0.125834 2.37799e-21)
(0.419475 0.212916 0)
(0.359762 0.294497 -1.46316e-22)
(0.290632 0.367837 0)
(0.214929 0.430421 0)
(0.135243 0.480674 1.35496e-22)
(0.0533882 0.517895 2.35294e-21)
(-0.0292258 0.541868 2.2363e-21)
(-0.111829 0.552917 2.37736e-21)
(-0.195041 0.555223 0)
(-0.283925 0.560651 4.6398e-21)
(-0.377453 0.571074 0)
(-0.4687 0.577359 2.23524e-21)
(-0.556947 0.580013 0)
(-0.643253 0.581362 0)
(-0.727355 0.581608 -2.1526e-21)
(-0.807914 0.57877 0)
(-0.884828 0.57415 2.06675e-21)
(-0.958353 0.568211 1.33551e-22)
(-1.02688 0.556797 -4.05571e-21)
(-1.09118 0.539378 3.8001e-21)
(-1.1518 0.517733 0)
(-1.20774 0.490475 0)
(-1.25904 0.45523 1.56347e-21)
(-1.30698 0.413784 0)
(-1.35218 0.370693 1.74079e-21)
(-1.39394 0.329162 -1.68179e-21)
(-1.43167 0.290228 -1.6259e-21)
(-1.46544 0.254389 0)
(-1.49591 0.221963 1.5298e-21)
(-1.52291 0.193007 1.49233e-21)
(-1.54613 0.166828 -2.60969e-21)
(-1.56546 0.142221 1.44311e-21)
(-1.58148 0.117973 1.43106e-21)
(-1.59506 0.093505 0)
(-1.60698 0.0694202 0)
(-1.61777 0.0470004 -1.43107e-21)
(-1.62759 0.0266343 0)
(-1.63593 0.00794706 0)
(-1.64236 -0.00905979 2.91087e-21)
(-1.64616 -0.0231694 2.92848e-21)
(-1.64757 -0.0319225 0)
(-1.64701 -0.0346046 0)
(-1.64485 -0.0326648 0)
(-1.64102 -0.0285838 0)
(-1.63571 -0.024541 3.05357e-21)
(-1.62971 -0.021625 -2.88041e-21)
(-1.62441 -0.0198753 -3.11166e-21)
(-1.6211 -0.0187383 -6.06795e-21)
(-1.62033 -0.0172253 0)
(-1.62115 -0.0150325 1.74497e-22)
(-1.62177 -0.0137429 0)
(-1.62362 -0.0126963 3.10499e-21)
(-1.62757 -0.00759904 1.60549e-22)
(-1.62894 -0.000168135 3.06145e-21)
(-1.62237 0.00105144 -3.04069e-21)