/*--------------------------------*- C++ -*----------------------------------*\
  =========                 |
  \\      /  F ield         | OpenFOAM: The Open Source CFD Toolbox
   \\    /   O peration     | Website:  https://openfoam.org
    \\  /    A nd           | Version:  7
     \\/     M anipulation  |
\*---------------------------------------------------------------------------*/
FoamFile
{
    version     2.0;
    format      ascii;
    class       volScalarField;
    location    "0.014";
    object      k;
}
// * * * * * * * * * * * * * * * * * * * * * * * * * * * * * * * * * * * * * //

dimensions      [0 2 -2 0 0 0 0];

internalField   nonuniform List<scalar> 
12225
(
1.93743e-05
1.80663e-05
1.66563e-05
1.57108e-05
1.36248e-05
1.29407e-05
1.85063e-05
1.81097e-05
1.08396e-05
8.50048e-06
7.66136e-06
6.99093e-06
6.48892e-06
6.1516e-06
5.95511e-06
5.81396e-06
5.84724e-06
1.97419e-05
1.9981e-05
1.9872e-05
1.96781e-05
1.94879e-05
1.89255e-05
1.88116e-05
2.06421e-05
2.17173e-05
2.0406e-05
1.82377e-05
1.70524e-05
1.65189e-05
1.61523e-05
1.59433e-05
1.56224e-05
1.54903e-05
1.52258e-05
1.54607e-05
1.99983e-05
1.91189e-05
1.8813e-05
1.88384e-05
1.883e-05
1.88562e-05
1.9206e-05
1.94444e-05
1.9279e-05
1.87194e-05
1.82805e-05
1.80834e-05
1.80146e-05
1.79979e-05
1.79849e-05
1.79614e-05
1.78956e-05
1.78571e-05
2.00367e-05
1.98835e-05
1.92655e-05
1.74071e-05
1.72861e-05
1.7209e-05
1.64349e-05
1.54424e-05
1.51342e-05
1.50369e-05
1.50228e-05
1.51047e-05
1.55012e-05
1.60432e-05
1.64096e-05
1.66397e-05
1.67385e-05
1.68231e-05
2.00345e-05
2.0495e-05
2.21057e-05
2.22557e-05
2.21565e-05
2.17731e-05
2.08577e-05
1.96733e-05
1.77019e-05
1.60431e-05
1.55013e-05
1.54381e-05
1.53166e-05
1.47663e-05
1.38235e-05
1.33229e-05
1.31631e-05
1.31548e-05
2.05568e-05
2.04689e-05
2.27929e-05
2.52163e-05
2.53553e-05
2.47845e-05
2.3346e-05
2.25455e-05
2.20866e-05
2.16956e-05
2.15203e-05
2.14469e-05
2.13215e-05
2.09572e-05
1.98184e-05
1.86152e-05
1.80692e-05
1.78283e-05
2.01601e-05
2.03652e-05
2.16152e-05
2.62706e-05
2.87503e-05
2.85457e-05
2.63418e-05
2.44243e-05
2.41044e-05
2.43104e-05
2.50917e-05
2.55564e-05
2.57115e-05
2.57164e-05
2.5608e-05
2.51015e-05
2.39996e-05
2.30596e-05
2.0567e-05
2.08784e-05
2.18223e-05
2.58235e-05
2.83076e-05
2.79961e-05
2.52132e-05
2.35555e-05
2.3439e-05
2.38465e-05
2.4781e-05
2.51938e-05
2.52853e-05
2.52803e-05
2.52114e-05
2.48904e-05
2.40505e-05
2.33886e-05
2.0611e-05
2.0798e-05
2.17829e-05
2.52146e-05
2.58915e-05
2.43552e-05
2.19758e-05
2.15406e-05
2.17187e-05
2.25864e-05
2.30964e-05
2.31593e-05
2.30892e-05
2.27419e-05
2.23131e-05
2.20385e-05
2.18331e-05
2.17677e-05
2.00925e-05
2.04336e-05
2.14995e-05
2.19891e-05
2.18109e-05
2.11914e-05
2.09883e-05
2.10624e-05
2.16206e-05
2.27717e-05
2.33029e-05
2.33737e-05
2.32133e-05
2.24118e-05
2.14186e-05
2.08834e-05
2.0654e-05
2.06155e-05
2.00451e-05
2.07487e-05
2.24318e-05
2.30118e-05
2.28387e-05
2.19742e-05
2.15228e-05
2.14923e-05
2.16897e-05
2.24079e-05
2.29081e-05
2.29817e-05
2.27939e-05
2.20057e-05
2.11881e-05
2.06916e-05
2.03305e-05
2.01684e-05
2.02592e-05
2.08006e-05
2.10894e-05
2.15349e-05
2.20074e-05
2.19983e-05
2.19283e-05
2.1623e-05
2.12731e-05
2.12492e-05
2.14472e-05
2.1551e-05
2.15481e-05
2.14914e-05
2.12982e-05
2.09777e-05
2.06683e-05
2.03315e-05
2.01688e-05
2.02462e-05
2.02351e-05
2.04743e-05
2.11355e-05
2.14917e-05
2.1677e-05
2.19206e-05
2.21756e-05
2.22837e-05
2.22655e-05
2.22637e-05
2.23207e-05
2.26594e-05
2.33592e-05
2.35943e-05
2.35351e-05
2.29859e-05
2.07652e-05
2.03102e-05
2.04735e-05
2.13279e-05
2.15586e-05
2.13328e-05
2.10929e-05
2.108e-05
2.11683e-05
2.14396e-05
2.15217e-05
2.15635e-05
2.17189e-05
2.23058e-05
2.32134e-05
2.37096e-05
2.38236e-05
2.37636e-05
2.10749e-05
2.08692e-05
2.08307e-05
2.0824e-05
2.06915e-05
2.06789e-05
2.08468e-05
2.11885e-05
2.13423e-05
2.13808e-05
2.13605e-05
2.12035e-05
2.10838e-05
2.10669e-05
2.10858e-05
2.11124e-05
2.11041e-05
2.10444e-05
2.05587e-05
2.07171e-05
2.06983e-05
2.05854e-05
2.04779e-05
2.04956e-05
2.06807e-05
2.1197e-05
2.15214e-05
2.1621e-05
2.16205e-05
2.15443e-05
2.12049e-05
2.0795e-05
2.06174e-05
2.05925e-05
2.05789e-05
2.04994e-05
2.02561e-05
2.04819e-05
2.04931e-05
2.04635e-05
2.04519e-05
2.04584e-05
2.05124e-05
2.077e-05
2.11524e-05
2.13474e-05
2.13467e-05
2.11499e-05
2.08179e-05
2.06274e-05
2.04844e-05
2.03808e-05
2.03373e-05
2.03393e-05
2.01518e-05
2.04028e-05
2.08886e-05
2.12102e-05
2.1279e-05
2.1242e-05
2.1216e-05
2.12761e-05
2.1686e-05
2.2159e-05
2.22603e-05
2.22051e-05
2.18551e-05
2.12111e-05
2.07792e-05
2.05641e-05
2.04732e-05
2.04244e-05
2.03457e-05
2.03019e-05
2.03899e-05
2.05173e-05
2.05605e-05
2.05725e-05
2.06192e-05
2.09557e-05
2.19644e-05
2.22424e-05
2.21966e-05
2.20681e-05
2.19849e-05
2.19116e-05
2.17613e-05
2.137e-05
2.09882e-05
2.07198e-05
2.15115e-05
2.15113e-05
2.08799e-05
2.07423e-05
2.07837e-05
2.08511e-05
2.08678e-05
2.09137e-05
2.10504e-05
2.11341e-05
2.11974e-05
2.13164e-05
2.16439e-05
2.25229e-05
2.31665e-05
2.33801e-05
2.3362e-05
2.30977e-05
2.08699e-05
2.0774e-05
2.03911e-05
2.02485e-05
2.02439e-05
2.03485e-05
2.07503e-05
2.08688e-05
2.08415e-05
2.08005e-05
2.07928e-05
2.07984e-05
2.08321e-05
2.0961e-05
2.12267e-05
2.14033e-05
2.14692e-05
2.14545e-05
2.04158e-05
2.03649e-05
2.02548e-05
2.01199e-05
2.01022e-05
2.01477e-05
2.05043e-05
2.06348e-05
2.06106e-05
2.06625e-05
2.0758e-05
2.08001e-05
2.08101e-05
2.08074e-05
2.07827e-05
2.072e-05
2.06839e-05
2.06754e-05
2.02422e-05
2.03291e-05
2.0222e-05
2.01591e-05
2.02079e-05
2.04956e-05
2.08902e-05
2.09704e-05
2.09477e-05
2.08322e-05
2.06147e-05
2.04682e-05
2.03887e-05
2.03601e-05
2.03589e-05
2.03752e-05
2.04472e-05
2.05569e-05
2.03401e-05
2.05977e-05
2.04723e-05
2.02122e-05
2.02228e-05
2.08216e-05
2.28449e-05
2.34235e-05
2.3045e-05
2.15816e-05
2.06499e-05
2.02714e-05
2.01164e-05
2.0068e-05
2.00674e-05
2.0093e-05
2.01711e-05
2.02555e-05
2.00999e-05
2.01496e-05
2.01034e-05
2.0052e-05
2.00986e-05
2.07962e-05
2.25868e-05
2.28329e-05
2.24026e-05
2.15766e-05
2.11905e-05
2.09376e-05
2.07264e-05
2.05705e-05
2.04739e-05
2.0428e-05
2.0417e-05
2.04199e-05
2.00161e-05
2.01105e-05
2.01291e-05
2.01211e-05
2.01319e-05
2.0284e-05
2.09439e-05
2.14644e-05
2.1642e-05
2.16559e-05
2.16127e-05
2.14124e-05
2.10174e-05
2.07279e-05
2.05361e-05
2.04175e-05
2.03623e-05
2.03413e-05
2.00109e-05
2.00072e-05
1.99814e-05
1.99299e-05
1.98381e-05
1.96426e-05
1.92109e-05
1.89072e-05
1.8898e-05
1.89751e-05
1.91963e-05
1.94818e-05
1.97248e-05
1.98633e-05
1.98943e-05
1.97372e-05
1.95801e-05
1.95482e-05
2.02075e-05
1.82175e-05
1.46357e-05
1.54317e-05
1.72322e-05
1.82846e-05
1.96992e-05
2.26633e-05
3.03821e-05
4.27485e-05
5.53565e-05
6.32478e-05
6.95829e-05
7.41235e-05
7.82191e-05
8.07994e-05
8.61155e-05
9.05887e-05
3.21121e-05
0.000105531
0.000178278
0.000248774
0.000289959
0.000303743
0.000317775
0.000349699
0.00041774
0.000478984
0.000520658
0.000543696
0.000556132
0.000564399
0.000572357
0.000578385
0.000584881
0.000592552
0.00253108
0.00262488
0.00253424
0.00231963
0.00217369
0.00208218
0.00200059
0.00190345
0.00179012
0.00167315
0.00156565
0.00147405
0.0014004
0.00134491
0.00130689
0.00128437
0.00127329
0.00126717
1.43328e-07
1.01896e-06
4.64915e-06
1.43508e-05
2.93715e-05
4.55499e-05
6.0314e-05
7.23424e-05
8.08978e-05
8.60038e-05
8.80577e-05
8.74458e-05
8.39137e-05
7.80623e-05
7.04403e-05
6.16041e-05
5.21046e-05
4.25505e-05
3.3402e-05
2.51533e-05
1.81224e-05
1.23735e-05
8.13276e-06
5.10161e-06
3.21337e-06
2.17919e-06
1.78246e-06
1.7283e-06
1.9461e-06
2.13419e-06
2.30105e-06
2.44514e-06
2.55914e-06
2.64172e-06
2.6922e-06
2.70979e-06
2.69862e-06
2.64374e-06
2.56479e-06
2.44931e-06
2.30772e-06
2.14325e-06
1.96607e-06
1.7759e-06
1.57617e-06
1.36005e-06
1.1544e-06
9.35635e-07
7.40728e-07
5.72799e-07
4.45908e-07
3.6127e-07
2.96735e-07
2.44191e-07
2.01215e-07
1.65804e-07
1.36283e-07
1.11432e-07
9.0528e-08
7.30507e-08
5.85353e-08
4.65645e-08
3.67623e-08
2.87937e-08
2.23678e-08
1.72282e-08
1.31525e-08
9.94767e-09
7.452e-09
5.5302e-09
4.06248e-09
2.95046e-09
2.11878e-09
1.50603e-09
1.0607e-09
7.40834e-10
5.13413e-10
3.53182e-10
2.4123e-10
1.63623e-10
1.10229e-10
7.37627e-11
4.90357e-11
3.23871e-11
2.12555e-11
1.38637e-11
8.9884e-12
5.79418e-12
3.71502e-12
2.37021e-12
1.50563e-12
9.52828e-13
6.01058e-13
3.78092e-13
2.37221e-13
1.48466e-13
9.26897e-14
5.77262e-14
3.587e-14
2.22498e-14
1.37872e-14
8.54319e-15
5.3025e-15
3.30761e-15
2.08683e-15
1.34345e-15
8.93865e-16
6.22262e-16
4.57267e-16
3.56733e-16
2.95838e-16
2.59631e-16
2.38945e-16
2.28064e-16
2.23298e-16
2.22054e-16
2.22045e-16
2.22045e-16
2.22045e-16
2.22045e-16
2.22045e-16
2.22045e-16
2.22045e-16
2.22045e-16
2.22045e-16
2.22045e-16
2.22045e-16
2.22045e-16
2.22045e-16
2.22045e-16
2.22045e-16
2.22045e-16
2.22045e-16
2.22045e-16
2.22045e-16
2.22045e-16
2.22045e-16
2.22045e-16
2.22045e-16
2.22045e-16
2.22045e-16
2.22045e-16
2.22045e-16
2.22045e-16
2.22045e-16
2.22045e-16
2.22045e-16
2.22045e-16
2.22045e-16
2.22045e-16
2.22045e-16
2.22045e-16
2.22045e-16
2.22045e-16
2.22045e-16
2.22045e-16
2.22045e-16
2.22045e-16
2.22045e-16
2.22045e-16
2.22045e-16
2.22045e-16
2.22045e-16
2.22045e-16
2.22045e-16
2.22045e-16
2.22045e-16
2.22045e-16
2.35582e-16
3.59877e-16
1.12017e-15
5.10468e-15
2.39206e-14
1.05496e-13
4.37366e-13
1.77592e-12
7.61637e-12
3.58116e-11
2.75789e-10
6.56089e-08
4.79988e-07
1.01506e-06
2.47574e-06
5.89881e-06
1.05481e-05
1.51728e-05
1.87698e-05
2.07415e-05
2.13106e-05
2.02836e-05
1.85573e-05
1.62886e-05
1.40453e-05
1.1875e-05
9.97926e-06
8.45671e-06
7.34329e-06
6.65085e-06
6.32727e-06
6.22844e-06
6.53358e-06
7.08103e-06
7.85231e-06
8.82971e-06
1.00273e-05
1.1348e-05
1.27376e-05
1.41319e-05
1.54824e-05
1.67444e-05
1.78842e-05
1.88648e-05
1.96609e-05
2.027e-05
2.06423e-05
2.08147e-05
2.08644e-05
2.0641e-05
2.02036e-05
1.95716e-05
1.87503e-05
1.78004e-05
1.67695e-05
1.56916e-05
1.45977e-05
1.33876e-05
1.23785e-05
1.11364e-05
9.1739e-06
6.98077e-06
5.04521e-06
3.78218e-06
3.05112e-06
2.49595e-06
2.05173e-06
1.69881e-06
1.41686e-06
1.18223e-06
9.82089e-07
8.11426e-07
6.66637e-07
5.44361e-07
4.41613e-07
3.55733e-07
2.84428e-07
2.25593e-07
1.77431e-07
1.38305e-07
1.06748e-07
8.16252e-08
6.17894e-08
4.61699e-08
3.40767e-08
2.49197e-08
1.80881e-08
1.3043e-08
9.34677e-09
6.6572e-09
4.7126e-09
3.31539e-09
2.31776e-09
1.60997e-09
1.11107e-09
7.61763e-10
5.18841e-10
3.51067e-10
2.35998e-10
1.57631e-10
1.04635e-10
6.90511e-11
4.53273e-11
2.96178e-11
1.92784e-11
1.25068e-11
8.08863e-12
5.2145e-12
3.34999e-12
2.14393e-12
1.36639e-12
8.6712e-13
5.47949e-13
3.44755e-13
2.1587e-13
1.34499e-13
8.34865e-14
5.17645e-14
3.21393e-14
2.00098e-14
1.24933e-14
7.81582e-15
4.91034e-15
3.11106e-15
1.99968e-15
1.31588e-15
8.96592e-16
6.40012e-16
4.82885e-16
3.86279e-16
3.26471e-16
2.89112e-16
2.65543e-16
2.50532e-16
2.40886e-16
2.34635e-16
2.30553e-16
2.27864e-16
2.26075e-16
2.24872e-16
2.24053e-16
2.23488e-16
2.23092e-16
2.22811e-16
2.2261e-16
2.22465e-16
2.22357e-16
2.22277e-16
2.22218e-16
2.22174e-16
2.22142e-16
2.22117e-16
2.22097e-16
2.22081e-16
2.22068e-16
2.22059e-16
2.22053e-16
2.22049e-16
2.22047e-16
2.22046e-16
2.22045e-16
2.22045e-16
2.22045e-16
2.22045e-16
2.22045e-16
2.22045e-16
2.22045e-16
2.22045e-16
2.22045e-16
2.22045e-16
2.22045e-16
2.22045e-16
2.22045e-16
2.22045e-16
2.22045e-16
2.22045e-16
2.22045e-16
2.22045e-16
2.22047e-16
2.22091e-16
2.22632e-16
2.26962e-16
2.54816e-16
4.10114e-16
1.20685e-15
4.88906e-15
2.16245e-14
9.19025e-14
4.47915e-13
2.16057e-12
2.45659e-11
6.06089e-09
6.57183e-07
1.13476e-06
1.57712e-06
2.38831e-06
3.47567e-06
4.31499e-06
4.66673e-06
4.75328e-06
4.67022e-06
4.56133e-06
4.53839e-06
4.7075e-06
5.0741e-06
5.64555e-06
6.43094e-06
7.42641e-06
8.60065e-06
1.0281e-05
1.24488e-05
1.51067e-05
1.82426e-05
2.17479e-05
2.55585e-05
2.95714e-05
3.36798e-05
3.78829e-05
4.21274e-05
4.63434e-05
5.04014e-05
5.41426e-05
5.7425e-05
6.01624e-05
6.2337e-05
6.39518e-05
6.49493e-05
6.53872e-05
6.55045e-05
6.54645e-05
6.4797e-05
6.35239e-05
6.15346e-05
5.88603e-05
5.55554e-05
5.16656e-05
4.73599e-05
4.28838e-05
3.83001e-05
3.37167e-05
2.92368e-05
2.50153e-05
2.10881e-05
1.74745e-05
1.42575e-05
1.14931e-05
9.21765e-06
7.42323e-06
6.11193e-06
5.14719e-06
4.33339e-06
3.63192e-06
3.0311e-06
2.51695e-06
2.07774e-06
1.70382e-06
1.38734e-06
1.12032e-06
8.96681e-07
7.11189e-07
5.57657e-07
4.32528e-07
3.32004e-07
2.50135e-07
1.85404e-07
1.37252e-07
1.01587e-07
7.50741e-08
5.53374e-08
4.06499e-08
2.97385e-08
2.1655e-08
1.56886e-08
1.13041e-08
8.09813e-09
5.76674e-09
4.08128e-09
2.87035e-09
2.00594e-09
1.39298e-09
9.61296e-10
6.59446e-10
4.49962e-10
3.05699e-10
2.0706e-10
1.39973e-10
9.44614e-11
6.35995e-11
4.26764e-11
2.85109e-11
1.89479e-11
1.25211e-11
8.22631e-12
5.37242e-12
3.48527e-12
2.245e-12
1.43825e-12
9.20502e-13
5.90395e-13
3.78727e-13
2.42212e-13
1.53923e-13
9.69232e-14
6.04955e-14
3.76565e-14
2.34987e-14
1.47448e-14
9.33121e-15
5.97328e-15
3.87905e-15
2.56377e-15
1.73153e-15
1.20123e-15
8.61364e-16
6.42488e-16
5.0087e-16
4.08804e-16
3.48593e-16
3.08878e-16
2.82421e-16
2.6461e-16
2.52454e-16
2.44023e-16
2.38096e-16
2.33886e-16
2.30854e-16
2.28629e-16
2.26976e-16
2.2575e-16
2.24846e-16
2.24172e-16
2.23654e-16
2.23242e-16
2.22913e-16
2.22657e-16
2.22467e-16
2.22332e-16
2.22241e-16
2.22182e-16
2.22142e-16
2.22116e-16
2.22098e-16
2.22085e-16
2.22075e-16
2.22068e-16
2.22062e-16
2.22057e-16
2.22054e-16
2.22051e-16
2.22049e-16
2.22048e-16
2.22047e-16
2.22047e-16
2.22047e-16
2.22047e-16
2.22048e-16
2.22047e-16
2.22047e-16
2.22047e-16
2.22049e-16
2.2207e-16
2.22226e-16
2.2324e-16
2.29134e-16
2.60853e-16
4.15346e-16
1.15408e-15
4.42045e-15
2.14413e-14
1.08005e-13
1.32405e-12
2.76797e-10
7.36304e-07
1.37212e-06
1.60509e-06
1.95823e-06
2.34045e-06
2.64638e-06
2.84657e-06
3.10464e-06
3.46689e-06
3.9744e-06
4.65907e-06
5.65829e-06
7.13149e-06
9.1908e-06
1.18843e-05
1.52947e-05
1.95344e-05
2.44264e-05
3.00112e-05
3.62875e-05
4.32243e-05
5.07598e-05
5.88382e-05
6.7328e-05
7.60645e-05
8.48401e-05
9.34171e-05
0.000101593
0.000109238
0.000115746
0.000120817
0.000124028
0.000125696
0.000126223
0.000124361
0.000121556
0.000116944
0.00011153
0.000105161
9.83525e-05
9.11626e-05
8.39311e-05
7.67972e-05
6.97202e-05
6.29332e-05
5.64357e-05
5.02896e-05
4.45642e-05
3.92324e-05
3.42576e-05
2.97335e-05
2.57104e-05
2.21534e-05
1.90244e-05
1.62852e-05
1.3897e-05
1.18224e-05
1.00253e-05
8.47204e-06
7.13425e-06
5.98722e-06
5.00547e-06
4.16723e-06
3.45345e-06
2.84814e-06
2.33622e-06
1.90432e-06
1.54238e-06
1.2397e-06
9.87984e-07
7.82103e-07
6.12509e-07
4.73462e-07
3.65705e-07
2.82404e-07
2.17696e-07
1.6734e-07
1.28163e-07
9.77379e-08
7.41783e-08
5.60045e-08
4.20481e-08
3.13846e-08
2.32821e-08
1.71614e-08
1.25667e-08
9.14024e-09
6.60297e-09
4.73692e-09
3.37514e-09
2.38906e-09
1.68188e-09
1.18036e-09
8.28256e-10
5.82572e-10
4.10177e-10
2.88043e-10
2.01266e-10
1.39731e-10
9.6311e-11
6.58836e-11
4.47265e-11
3.01367e-11
2.01611e-11
1.33921e-11
8.83197e-12
5.78427e-12
3.76532e-12
2.43939e-12
1.57509e-12
1.01479e-12
6.53084e-13
4.20246e-13
2.70583e-13
1.74428e-13
1.12635e-13
7.28761e-14
4.72454e-14
3.0695e-14
1.99981e-14
1.30819e-14
8.61185e-15
5.72484e-15
3.85683e-15
2.64547e-15
1.85704e-15
1.33961e-15
9.97024e-16
7.68386e-16
6.13398e-16
5.06387e-16
4.31275e-16
3.77814e-16
3.39142e-16
3.10636e-16
2.89344e-16
2.73405e-16
2.61477e-16
2.52454e-16
2.45464e-16
2.39924e-16
2.35525e-16
2.32078e-16
2.29482e-16
2.27555e-16
2.26178e-16
2.25196e-16
2.24462e-16
2.23956e-16
2.23557e-16
2.23235e-16
2.23014e-16
2.22839e-16
2.22671e-16
2.22526e-16
2.22424e-16
2.22359e-16
2.22321e-16
2.22304e-16
2.223e-16
2.223e-16
2.22303e-16
2.22301e-16
2.22295e-16
2.22255e-16
2.22175e-16
2.22175e-16
2.22219e-16
2.22372e-16
2.22787e-16
2.23874e-16
2.26841e-16
2.36639e-16
2.7465e-16
5.0941e-16
1.88608e-15
1.94019e-14
5.96187e-14
3.02403e-13
1.55155e-11
7.44018e-07
1.58488e-06
1.94468e-06
2.09214e-06
2.34569e-06
2.63071e-06
2.92934e-06
3.39128e-06
4.1174e-06
5.24281e-06
6.88956e-06
9.12347e-06
1.20151e-05
1.56927e-05
2.03605e-05
2.61705e-05
3.32512e-05
4.17003e-05
5.15447e-05
6.28012e-05
7.54384e-05
8.92179e-05
0.000103859
0.00011908
0.000134437
0.000149014
0.000162334
0.000174287
0.000184494
0.000192092
0.000196001
0.000197453
0.000196525
0.000192083
0.000184369
0.000176862
0.000165731
0.00015477
0.000142734
0.00013067
0.000118658
0.000107114
9.61762e-05
8.58241e-05
7.63016e-05
6.75119e-05
5.92109e-05
5.16366e-05
4.48372e-05
3.87898e-05
3.34423e-05
2.87391e-05
2.46189e-05
2.10245e-05
1.79024e-05
1.52018e-05
1.28752e-05
1.08786e-05
9.17179e-06
7.71209e-06
6.46163e-06
5.39695e-06
4.49486e-06
3.733e-06
3.0914e-06
2.55309e-06
2.10264e-06
1.72616e-06
1.41237e-06
1.15158e-06
9.35581e-07
7.57263e-07
6.10499e-07
4.90046e-07
3.91552e-07
3.11359e-07
2.46363e-07
1.93936e-07
1.51855e-07
1.18252e-07
9.15613e-08
7.04773e-08
5.39164e-08
4.09854e-08
3.09504e-08
2.32133e-08
1.72854e-08
1.27756e-08
9.36651e-09
6.81123e-09
4.90684e-09
3.50397e-09
2.48525e-09
1.75035e-09
1.22373e-09
8.4898e-10
5.8423e-10
3.98623e-10
2.69552e-10
1.80559e-10
1.19748e-10
7.85863e-11
5.10029e-11
3.27129e-11
2.07201e-11
1.29492e-11
7.97736e-12
4.83928e-12
2.88758e-12
1.69282e-12
9.74468e-13
5.49818e-13
3.0429e-13
1.65615e-13
8.743e-14
4.68126e-14
2.67853e-14
1.66983e-14
1.14699e-14
8.65117e-15
7.02289e-15
5.94236e-15
5.10466e-15
4.40952e-15
3.80658e-15
3.26879e-15
2.787e-15
2.35906e-15
1.98445e-15
1.66279e-15
1.39133e-15
1.16562e-15
9.80234e-16
8.29365e-16
7.07393e-16
6.09261e-16
5.30634e-16
4.67805e-16
4.17673e-16
3.77688e-16
3.45733e-16
3.20364e-16
2.99947e-16
2.84022e-16
2.71002e-16
2.60899e-16
2.52928e-16
2.46014e-16
2.41288e-16
2.3698e-16
2.33113e-16
2.3079e-16
2.28772e-16
2.2622e-16
2.23931e-16
2.22609e-16
2.22128e-16
2.22045e-16
2.22045e-16
2.22045e-16
2.2206e-16
2.22112e-16
2.22242e-16
2.22541e-16
2.23245e-16
2.246e-16
2.27893e-16
2.35875e-16
2.55234e-16
3.03569e-16
4.29159e-16
7.63461e-16
1.89847e-15
5.91347e-15
3.68176e-14
1.98595e-13
3.3512e-12
4.5561e-12
3.29922e-11
3.49238e-11
7.39719e-07
1.65747e-06
2.31018e-06
2.53468e-06
2.67632e-06
3.00207e-06
3.55813e-06
4.39274e-06
5.62698e-06
7.38789e-06
9.8849e-06
1.33745e-05
1.81513e-05
2.4534e-05
3.29072e-05
4.36564e-05
5.69626e-05
7.29734e-05
9.2274e-05
0.000114957
0.000141083
0.000168164
0.000194665
0.000220489
0.000243748
0.000264375
0.000282235
0.000297226
0.000307709
0.000313034
0.000314458
0.000307734
0.000302125
0.000284905
0.000266739
0.000251048
0.000227658
0.000208051
0.000186883
0.000166717
0.000147652
0.000129557
0.0001129
9.82488e-05
8.50978e-05
7.36553e-05
6.37935e-05
5.5115e-05
4.75635e-05
4.09805e-05
3.52401e-05
3.02272e-05
2.5856e-05
2.20541e-05
1.87563e-05
1.59038e-05
1.34437e-05
1.13281e-05
9.51474e-06
7.96729e-06
6.65172e-06
5.53701e-06
4.59596e-06
3.80441e-06
3.14046e-06
2.58486e-06
2.12231e-06
1.73875e-06
1.42044e-06
1.15652e-06
9.38153e-07
7.58028e-07
6.10005e-07
4.88872e-07
3.90137e-07
3.09972e-07
2.45147e-07
1.92949e-07
1.51105e-07
1.17718e-07
9.12091e-08
7.02697e-08
5.38188e-08
4.09659e-08
3.09831e-08
2.32753e-08
1.73631e-08
1.28566e-08
9.44755e-09
6.88411e-09
4.97563e-09
3.55973e-09
2.52944e-09
1.78463e-09
1.24981e-09
8.68463e-10
5.98546e-10
4.0898e-10
2.7693e-10
1.85733e-10
1.23318e-10
8.1007e-11
5.26135e-11
3.37622e-11
2.13878e-11
1.33628e-11
8.22534e-12
4.98216e-12
2.9656e-12
1.73228e-12
9.91479e-13
5.5518e-13
3.03685e-13
1.6206e-13
8.42699e-14
4.26859e-14
2.10913e-14
1.02075e-14
4.88923e-15
2.37727e-15
1.22173e-15
7.06393e-16
4.93093e-16
4.05328e-16
3.67262e-16
3.47909e-16
3.35206e-16
3.24626e-16
3.14518e-16
3.0449e-16
2.94673e-16
2.8533e-16
2.76679e-16
2.68839e-16
2.61848e-16
2.5569e-16
2.50329e-16
2.45701e-16
2.41741e-16
2.3837e-16
2.35513e-16
2.33123e-16
2.31103e-16
2.29464e-16
2.28067e-16
2.26947e-16
2.26035e-16
2.2523e-16
2.24649e-16
2.24127e-16
2.23664e-16
2.23346e-16
2.23083e-16
2.22802e-16
2.22529e-16
2.22333e-16
2.22224e-16
2.22143e-16
2.22097e-16
2.22098e-16
2.2214e-16
2.2261e-16
2.2689e-16
2.4387e-16
2.94917e-16
4.31447e-16
7.77938e-16
1.65986e-15
3.93083e-15
9.90375e-15
2.60024e-14
6.90123e-14
1.86334e-13
4.84891e-13
1.26559e-12
2.85204e-12
1.15302e-11
1.28698e-11
2.70577e-11
3.02035e-11
7.28216e-07
1.66123e-06
2.51396e-06
2.86742e-06
3.09726e-06
3.5505e-06
4.30623e-06
5.40903e-06
7.09131e-06
9.70524e-06
1.37313e-05
1.96816e-05
2.82747e-05
4.0407e-05
5.66035e-05
7.70112e-05
0.000102722
0.000135442
0.00017545
0.000216339
0.000258048
0.000297089
0.000333681
0.000366974
0.000397108
0.000421032
0.00044213
0.000460548
0.00046943
0.00047271
0.000460401
0.000446316
0.00043214
0.000391002
0.000359466
0.000332705
0.000287699
0.000260001
0.000224824
0.000195543
0.000168546
0.000144608
0.000123592
0.000105305
8.94914e-05
7.59558e-05
6.46499e-05
5.53098e-05
4.75518e-05
4.08491e-05
3.50806e-05
3.00925e-05
2.57539e-05
2.19818e-05
1.87145e-05
1.58894e-05
1.34504e-05
1.13493e-05
9.54391e-06
7.99873e-06
6.68103e-06
5.56159e-06
4.61471e-06
3.81736e-06
3.1486e-06
2.58922e-06
2.12185e-06
1.73242e-06
1.4096e-06
1.14315e-06
9.2401e-07
7.44318e-07
5.97411e-07
4.77675e-07
3.80408e-07
3.01673e-07
2.3818e-07
1.87182e-07
1.46395e-07
1.13918e-07
8.81808e-08
6.7884e-08
5.19605e-08
3.95345e-08
2.98934e-08
2.24556e-08
1.67544e-08
1.24098e-08
9.12466e-09
6.65308e-09
4.81392e-09
3.44684e-09
2.45124e-09
1.73097e-09
1.21339e-09
8.44045e-10
5.82385e-10
3.98427e-10
2.70136e-10
1.81427e-10
1.20635e-10
7.93671e-11
5.16328e-11
3.31906e-11
2.1065e-11
1.31876e-11
8.13532e-12
4.93943e-12
2.94783e-12
1.72676e-12
9.91299e-13
5.56863e-13
3.05629e-13
1.63649e-13
8.53839e-14
4.33754e-14
2.14582e-14
1.03604e-14
4.91374e-15
2.32544e-15
1.13545e-15
6.06534e-16
3.79491e-16
2.85408e-16
2.47786e-16
2.33257e-16
2.27827e-16
2.25839e-16
2.25082e-16
2.24727e-16
2.24497e-16
2.24302e-16
2.2411e-16
2.23914e-16
2.23719e-16
2.23529e-16
2.23348e-16
2.23179e-16
2.23025e-16
2.22885e-16
2.22759e-16
2.22649e-16
2.22552e-16
2.2247e-16
2.22398e-16
2.22339e-16
2.22288e-16
2.22244e-16
2.2221e-16
2.22179e-16
2.22153e-16
2.22132e-16
2.22115e-16
2.221e-16
2.22084e-16
2.22077e-16
2.22066e-16
2.2206e-16
2.22572e-16
2.24844e-16
2.30556e-16
2.42984e-16
2.66123e-16
3.13089e-16
3.99546e-16
5.75146e-16
9.50039e-16
1.79655e-15
3.83909e-15
8.90889e-15
2.21888e-14
5.59565e-14
1.46054e-13
3.61297e-13
9.88783e-13
1.98192e-12
7.29995e-12
7.66545e-12
8.89582e-12
1.2045e-11
7.22383e-07
1.64537e-06
2.6007e-06
3.02002e-06
3.30313e-06
3.85214e-06
4.83604e-06
6.54546e-06
9.50119e-06
1.42121e-05
2.14999e-05
3.25187e-05
4.81838e-05
6.91468e-05
9.66643e-05
0.000134402
0.000184584
0.000248907
0.000310522
0.000369741
0.00041724
0.000471272
0.000514893
0.000562245
0.000601687
0.000637594
0.00067196
0.000698377
0.000709382
0.000712232
0.00067968
0.000663146
0.000623695
0.000549579
0.000502683
0.000453868
0.000375218
0.000340768
0.000280374
0.000240955
0.000201702
0.000168459
0.000139826
0.000115421
9.51408e-05
7.82745e-05
6.44424e-05
5.30415e-05
4.37051e-05
3.65399e-05
3.10677e-05
2.67341e-05
2.31031e-05
1.98704e-05
1.70294e-05
1.4578e-05
1.24585e-05
1.06189e-05
9.01887e-06
7.62738e-06
6.42175e-06
5.38207e-06
4.48941e-06
3.72663e-06
3.07868e-06
2.53209e-06
2.07415e-06
1.69265e-06
1.3763e-06
1.11505e-06
9.00163e-07
7.24065e-07
5.80275e-07
4.6328e-07
3.68423e-07
2.91791e-07
2.30113e-07
1.80663e-07
1.41177e-07
1.09784e-07
8.49355e-08
6.53609e-08
5.00175e-08
3.80528e-08
2.87742e-08
2.16191e-08
1.61352e-08
1.19572e-08
8.79668e-09
6.41961e-09
4.64834e-09
3.33334e-09
2.37187e-09
1.67601e-09
1.17573e-09
8.18522e-10
5.65296e-10
3.87132e-10
2.62776e-10
1.76704e-10
1.17656e-10
7.75252e-11
5.05192e-11
3.25351e-11
2.06914e-11
1.29833e-11
8.02972e-12
4.88919e-12
2.92713e-12
1.72073e-12
9.91758e-13
5.59582e-13
3.08622e-13
1.66138e-13
8.71878e-14
4.45685e-14
2.21925e-14
1.07843e-14
5.14416e-15
2.44362e-15
1.19256e-15
6.32221e-16
3.89719e-16
2.88363e-16
2.47438e-16
2.31471e-16
2.25455e-16
2.23266e-16
2.22497e-16
2.22235e-16
2.22149e-16
2.2212e-16
2.2211e-16
2.22104e-16
2.221e-16
2.22096e-16
2.22091e-16
2.22087e-16
2.22082e-16
2.22078e-16
2.22074e-16
2.2207e-16
2.22066e-16
2.22063e-16
2.2206e-16
2.22058e-16
2.22056e-16
2.22054e-16
2.22052e-16
2.22051e-16
2.2205e-16
2.22049e-16
2.22048e-16
2.22047e-16
2.22047e-16
2.22046e-16
2.22046e-16
2.22046e-16
2.22243e-16
2.23956e-16
2.28756e-16
2.39068e-16
2.60366e-16
2.99473e-16
3.75207e-16
5.20053e-16
8.24102e-16
1.48716e-15
3.04645e-15
6.75184e-15
1.6201e-14
3.90875e-14
9.77145e-14
2.27941e-13
6.46932e-13
1.11858e-12
3.04269e-12
3.35917e-12
3.62074e-12
4.54427e-12
7.20617e-07
1.62306e-06
2.69205e-06
3.20707e-06
3.5809e-06
4.37064e-06
5.78884e-06
8.14982e-06
1.24187e-05
1.98072e-05
3.16949e-05
5.00566e-05
7.72179e-05
0.000116335
0.000173078
0.000257624
0.00034989
0.000428161
0.000490296
0.000553397
0.000619593
0.000678798
0.000763072
0.000835602
0.000911832
0.00097691
0.00105425
0.0010955
0.00111055
0.00109939
0.00102838
0.000994894
0.000893706
0.000775678
0.000723066
0.000616453
0.00050764
0.00045142
0.000358459
0.000300592
0.00024496
0.000201064
0.000164173
0.000133163
0.000106912
8.4977e-05
6.72793e-05
5.341e-05
4.25187e-05
3.38551e-05
2.69496e-05
2.16653e-05
1.78248e-05
1.51078e-05
1.29928e-05
1.11982e-05
9.68371e-06
8.40559e-06
7.29433e-06
6.30367e-06
5.42442e-06
4.64098e-06
3.94375e-06
3.32788e-06
2.78933e-06
2.3227e-06
1.92198e-06
1.58096e-06
1.29322e-06
1.05237e-06
8.52197e-07
6.86908e-07
5.51212e-07
4.40398e-07
3.50343e-07
2.77494e-07
2.18825e-07
1.71779e-07
1.34219e-07
1.04365e-07
8.07427e-08
6.21403e-08
4.75624e-08
3.61968e-08
2.73828e-08
2.05858e-08
1.53747e-08
1.14038e-08
8.39745e-09
6.13616e-09
4.44805e-09
3.19597e-09
2.27626e-09
1.61008e-09
1.13071e-09
7.88113e-10
5.44988e-10
3.73737e-10
2.5406e-10
1.71116e-10
1.14134e-10
7.53462e-11
4.92003e-11
3.17571e-11
2.02467e-11
1.2739e-11
7.90241e-12
4.82782e-12
2.90115e-12
1.71252e-12
9.91569e-13
5.62333e-13
3.11895e-13
1.6895e-13
8.92731e-14
4.59766e-14
2.3078e-14
1.13091e-14
5.43916e-15
2.60139e-15
1.273e-15
6.71385e-16
4.07926e-16
2.96408e-16
2.5081e-16
2.32805e-16
2.25939e-16
2.23409e-16
2.22508e-16
2.22198e-16
2.22094e-16
2.22061e-16
2.22051e-16
2.22047e-16
2.22046e-16
2.22046e-16
2.22046e-16
2.22046e-16
2.22046e-16
2.22046e-16
2.22046e-16
2.22045e-16
2.22045e-16
2.22045e-16
2.22045e-16
2.22045e-16
2.22045e-16
2.22045e-16
2.22045e-16
2.22045e-16
2.22045e-16
2.22045e-16
2.22045e-16
2.22045e-16
2.22045e-16
2.22045e-16
2.22045e-16
2.22045e-16
2.2205e-16
2.22915e-16
2.26255e-16
2.34215e-16
2.51713e-16
2.82142e-16
3.44518e-16
4.56101e-16
6.85549e-16
1.16804e-15
2.26652e-15
4.76984e-15
1.08941e-14
2.49414e-14
5.86338e-14
1.2729e-13
3.61038e-13
5.23561e-13
8.81237e-13
1.05098e-12
1.16528e-12
1.52686e-12
7.25237e-07
1.59727e-06
2.71757e-06
3.33186e-06
3.83751e-06
4.96928e-06
7.22871e-06
1.15908e-05
1.95721e-05
3.34256e-05
5.60353e-05
9.15402e-05
0.000146486
0.00022913
0.000338549
0.000442021
0.000528033
0.000588863
0.000667316
0.0007453
0.000853708
0.000985905
0.00115051
0.00131689
0.00148181
0.00163779
0.00180083
0.00191306
0.00195288
0.00188683
0.0016739
0.00153413
0.00125655
0.00104992
0.000945216
0.000783549
0.000671802
0.000570152
0.000467413
0.000373539
0.000296294
0.000236375
0.000191124
0.000156004
0.000127177
0.000101768
7.83985e-05
5.96755e-05
4.54848e-05
3.48023e-05
2.67968e-05
2.07236e-05
1.60628e-05
1.25791e-05
1.01173e-05
8.3228e-06
6.90353e-06
5.7854e-06
4.91815e-06
4.25722e-06
3.73496e-06
3.29957e-06
2.91314e-06
2.54977e-06
2.2095e-06
1.89687e-06
1.61234e-06
1.35699e-06
1.13155e-06
9.35486e-07
7.67281e-07
6.24757e-07
5.05318e-07
4.06193e-07
3.24629e-07
2.58023e-07
2.04002e-07
1.6046e-07
1.25566e-07
9.77555e-08
7.57076e-08
5.83195e-08
4.46778e-08
3.40325e-08
2.57701e-08
1.93936e-08
1.45005e-08
1.07692e-08
7.94065e-09
5.81209e-09
4.21933e-09
3.03888e-09
2.16701e-09
1.53479e-09
1.07932e-09
7.53396e-10
5.21799e-10
3.58435e-10
2.44095e-10
1.64721e-10
1.10095e-10
7.28418e-11
4.76797e-11
3.08563e-11
1.97287e-11
1.2452e-11
7.75121e-12
4.75365e-12
2.8688e-12
1.70148e-12
9.90402e-13
5.6498e-13
3.15413e-13
1.72095e-13
9.16636e-14
4.7623e-14
2.41323e-14
1.19448e-14
5.8026e-15
2.79913e-15
1.37565e-15
7.22294e-16
4.32088e-16
3.07407e-16
2.55615e-16
2.34819e-16
2.26747e-16
2.23719e-16
2.22621e-16
2.22237e-16
2.22107e-16
2.22064e-16
2.22051e-16
2.22046e-16
2.22045e-16
2.22045e-16
2.22045e-16
2.22045e-16
2.22045e-16
2.22045e-16
2.22045e-16
2.22045e-16
2.22045e-16
2.22045e-16
2.22045e-16
2.22045e-16
2.22045e-16
2.22045e-16
2.22045e-16
2.22045e-16
2.22045e-16
2.22045e-16
2.22045e-16
2.22045e-16
2.22045e-16
2.22045e-16
2.22045e-16
2.22045e-16
2.22045e-16
2.22149e-16
2.23955e-16
2.29255e-16
2.41004e-16
2.63428e-16
3.10246e-16
3.9113e-16
5.50451e-16
8.72165e-16
1.5708e-15
3.07953e-15
6.54475e-15
1.39478e-14
3.34689e-14
6.13483e-14
1.50458e-13
1.76014e-13
2.00009e-13
2.55513e-13
2.94023e-13
4.14095e-13
7.39386e-07
1.57611e-06
2.71423e-06
3.40368e-06
4.00696e-06
5.43395e-06
8.4212e-06
1.44343e-05
2.60194e-05
4.66949e-05
8.06581e-05
0.000133945
0.000217195
0.000334257
0.000472876
0.000567302
0.000660922
0.000751286
0.000885807
0.00105384
0.00129766
0.00162034
0.00203824
0.00255405
0.00315013
0.00382601
0.00455518
0.00512109
0.00533957
0.0051337
0.00434625
0.00352786
0.00254922
0.00172213
0.00127023
0.000951803
0.000799142
0.000647928
0.000546948
0.000443904
0.00035113
0.000272948
0.000211794
0.00016753
0.000136475
0.000113248
9.3796e-05
7.35884e-05
5.45017e-05
4.00544e-05
2.9338e-05
2.16034e-05
1.60928e-05
1.21191e-05
9.19981e-06
7.17161e-06
5.77571e-06
4.67205e-06
3.79776e-06
3.10387e-06
2.5572e-06
2.13654e-06
1.82079e-06
1.59337e-06
1.42019e-06
1.27231e-06
1.13439e-06
9.97567e-07
8.64766e-07
7.40159e-07
6.25578e-07
5.22474e-07
4.31651e-07
3.53102e-07
2.86247e-07
2.30142e-07
1.83635e-07
1.45496e-07
1.14516e-07
8.95644e-08
6.96212e-08
5.37938e-08
4.1316e-08
3.15416e-08
2.3932e-08
1.80444e-08
1.35168e-08
1.00573e-08
7.43022e-09
5.44952e-09
3.96493e-09
2.86227e-09
2.04657e-09
1.45194e-09
1.02284e-09
7.15281e-10
4.96376e-10
3.4169e-10
2.33211e-10
1.57745e-10
1.05692e-10
7.01123e-11
4.60224e-11
2.98747e-11
1.91647e-11
1.21404e-11
7.58779e-12
4.67437e-12
2.83528e-12
1.69124e-12
9.90739e-13
5.69207e-13
3.20309e-13
1.76332e-13
9.4866e-14
4.98441e-14
2.55757e-14
1.28326e-14
6.32196e-15
3.08897e-15
1.53016e-15
8.01054e-16
4.70503e-16
3.25347e-16
2.63642e-16
2.38262e-16
2.28164e-16