/*--------------------------------*- C++ -*----------------------------------*\
  =========                 |
  \\      /  F ield         | OpenFOAM: The Open Source CFD Toolbox
   \\    /   O peration     | Website:  https://openfoam.org
    \\  /    A nd           | Version:  7
     \\/     M anipulation  |
\*---------------------------------------------------------------------------*/
FoamFile
{
    version     2.0;
    format      ascii;
    class       volScalarField;
    location    "0.014";
    object      k_0;
}
// * * * * * * * * * * * * * * * * * * * * * * * * * * * * * * * * * * * * * //

dimensions      [0 2 -2 0 0 0 0];

internalField   nonuniform List<scalar> 
12225
(
1.93745e-05
1.80653e-05
1.66596e-05
1.57099e-05
1.36182e-05
1.29599e-05
1.86033e-05
1.79476e-05
1.07271e-05
8.49017e-06
7.66166e-06
6.9913e-06
6.48961e-06
6.15295e-06
5.95687e-06
5.81641e-06
5.85001e-06
1.98131e-05
1.99809e-05
1.98717e-05
1.96796e-05
1.94876e-05
1.89224e-05
1.8822e-05
2.06865e-05
2.16796e-05
2.03359e-05
1.81927e-05
1.70349e-05
1.65148e-05
1.61527e-05
1.59434e-05
1.56226e-05
1.5491e-05
1.52283e-05
1.54664e-05
1.99983e-05
1.91166e-05
1.88132e-05
1.88394e-05
1.88318e-05
1.88597e-05
1.92135e-05
1.94351e-05
1.92615e-05
1.86975e-05
1.82717e-05
1.80824e-05
1.80173e-05
1.80015e-05
1.79882e-05
1.79634e-05
1.78963e-05
1.78598e-05
2.00312e-05
1.98839e-05
1.92607e-05
1.74174e-05
1.7306e-05
1.72109e-05
1.6389e-05
1.54113e-05
1.51171e-05
1.5025e-05
1.5015e-05
1.5107e-05
1.55261e-05
1.60638e-05
1.64239e-05
1.66483e-05
1.67439e-05
1.68283e-05
2.0036e-05
2.0509e-05
2.21399e-05
2.2275e-05
2.21694e-05
2.17764e-05
2.08566e-05
1.96523e-05
1.76647e-05
1.60281e-05
1.55109e-05
1.54482e-05
1.53157e-05
1.47239e-05
1.37874e-05
1.33052e-05
1.31578e-05
1.31533e-05
2.05179e-05
2.04656e-05
2.28976e-05
2.52451e-05
2.53539e-05
2.47392e-05
2.33007e-05
2.25214e-05
2.20733e-05
2.16949e-05
2.15284e-05
2.14556e-05
2.13253e-05
2.0938e-05
1.97581e-05
1.85814e-05
1.80617e-05
1.78358e-05
2.01658e-05
2.03756e-05
2.16766e-05
2.64071e-05
2.87641e-05
2.85046e-05
2.62238e-05
2.43826e-05
2.40988e-05
2.43281e-05
2.51258e-05
2.55734e-05
2.57206e-05
2.57219e-05
2.56021e-05
2.50547e-05
2.3945e-05
2.30179e-05
2.05923e-05
2.08952e-05
2.18822e-05
2.59769e-05
2.83394e-05
2.79476e-05
2.50815e-05
2.35192e-05
2.34312e-05
2.38778e-05
2.48077e-05
2.52038e-05
2.52877e-05
2.52812e-05
2.52055e-05
2.48571e-05
2.40028e-05
2.33526e-05
2.06333e-05
2.08065e-05
2.18445e-05
2.52852e-05
2.58566e-05
2.42271e-05
2.19227e-05
2.15302e-05
2.17333e-05
2.26245e-05
2.31061e-05
2.31592e-05
2.30815e-05
2.27162e-05
2.22936e-05
2.20238e-05
2.18239e-05
2.17608e-05
2.00985e-05
2.045e-05
2.15253e-05
2.19824e-05
2.17901e-05
2.11698e-05
2.09855e-05
2.1069e-05
2.16678e-05
2.28104e-05
2.33177e-05
2.33757e-05
2.31975e-05
2.23535e-05
2.13801e-05
2.08647e-05
2.06484e-05
2.06142e-05
2.00494e-05
2.07972e-05
2.24624e-05
2.30074e-05
2.28169e-05
2.19419e-05
2.15165e-05
2.14946e-05
2.17107e-05
2.24438e-05
2.29209e-05
2.29802e-05
2.2774e-05
2.19581e-05
2.11598e-05
2.06737e-05
2.03204e-05
2.01639e-05
2.02146e-05
2.08175e-05
2.10979e-05
2.15427e-05
2.20078e-05
2.19974e-05
2.19246e-05
2.16079e-05
2.12693e-05
2.12565e-05
2.14594e-05
2.15534e-05
2.15483e-05
2.14872e-05
2.12839e-05
2.09625e-05
2.06521e-05
2.0317e-05
2.01589e-05
2.02207e-05
2.02322e-05
2.04894e-05
2.11564e-05
2.15022e-05
2.16865e-05
2.19332e-05
2.21869e-05
2.22867e-05
2.22662e-05
2.22654e-05
2.23281e-05
2.26949e-05
2.33829e-05
2.35951e-05
2.35221e-05
2.29219e-05
2.0601e-05
2.02782e-05
2.0477e-05
2.13413e-05
2.15494e-05
2.13165e-05
2.10892e-05
2.10796e-05
2.11763e-05
2.14468e-05
2.15211e-05
2.15663e-05
2.17329e-05
2.23543e-05
2.32482e-05
2.37199e-05
2.38186e-05
2.37468e-05
2.10457e-05
2.08527e-05
2.08251e-05
2.08137e-05
2.06842e-05
2.06787e-05
2.08609e-05
2.1199e-05
2.13467e-05
2.13817e-05
2.13571e-05
2.11935e-05
2.10811e-05
2.10671e-05
2.10881e-05
2.11131e-05
2.11026e-05
2.10339e-05
2.05117e-05
2.0709e-05
2.06907e-05
2.05746e-05
2.04763e-05
2.04972e-05
2.06957e-05
2.12176e-05
2.15308e-05
2.16236e-05
2.16208e-05
2.15371e-05
2.11816e-05
2.07807e-05
2.06133e-05
2.05915e-05
2.05744e-05
2.04909e-05
2.02673e-05
2.04858e-05
2.04934e-05
2.04624e-05
2.04518e-05
2.0459e-05
2.05167e-05
2.0787e-05
2.11641e-05
2.13478e-05
2.13413e-05
2.11292e-05
2.08048e-05
2.0619e-05
2.04784e-05
2.03786e-05
2.03388e-05
2.03426e-05
2.01607e-05
2.0416e-05
2.09032e-05
2.1218e-05
2.12811e-05
2.12406e-05
2.12161e-05
2.12817e-05
2.17095e-05
2.21675e-05
2.22581e-05
2.21958e-05
2.18223e-05
2.11828e-05
2.07617e-05
2.05559e-05
2.04687e-05
2.04215e-05
2.02913e-05
2.02994e-05
2.03941e-05
2.05198e-05
2.05611e-05
2.05729e-05
2.06225e-05
2.09842e-05
2.19921e-05
2.22408e-05
2.2191e-05
2.20623e-05
2.1981e-05
2.19058e-05
2.17453e-05
2.13423e-05
2.09675e-05
2.07064e-05
2.15547e-05
2.14931e-05
2.08592e-05
2.07404e-05
2.07865e-05
2.08499e-05
2.08659e-05
2.09159e-05
2.10559e-05
2.11373e-05
2.12019e-05
2.13253e-05
2.1674e-05
2.25664e-05
2.31828e-05
2.33763e-05
2.33493e-05
2.30566e-05
2.08517e-05
2.07566e-05
2.03787e-05
2.02459e-05
2.0244e-05
2.03571e-05
2.0762e-05
2.08681e-05
2.08392e-05
2.07995e-05
2.07927e-05
2.07991e-05
2.08354e-05
2.09738e-05
2.12393e-05
2.14105e-05
2.147e-05
2.14498e-05
2.04264e-05
2.0361e-05
2.02511e-05
2.01182e-05
2.01021e-05
2.01515e-05
2.05157e-05
2.06305e-05
2.061e-05
2.06677e-05
2.07616e-05
2.08016e-05
2.08106e-05
2.08073e-05
2.07799e-05
2.0717e-05
2.06828e-05
2.06748e-05
2.0251e-05
2.03277e-05
2.02175e-05
2.01585e-05
2.02122e-05
2.05139e-05
2.08999e-05
2.09707e-05
2.09458e-05
2.08226e-05
2.0606e-05
2.04629e-05
2.03864e-05
2.036e-05
2.03597e-05
2.0378e-05
2.04548e-05
2.05636e-05
2.03552e-05
2.06026e-05
2.04638e-05
2.02079e-05
2.02241e-05
2.08634e-05
2.28858e-05
2.34e-05
2.29872e-05
2.15053e-05
2.06181e-05
2.02579e-05
2.01114e-05
2.00675e-05
2.00683e-05
2.00967e-05
2.01773e-05
2.02612e-05
2.0103e-05
2.01498e-05
2.01008e-05
2.00512e-05
2.01023e-05
2.08468e-05
2.26022e-05
2.28045e-05
2.23474e-05
2.15424e-05
2.11711e-05
2.09234e-05
2.07161e-05
2.05638e-05
2.04702e-05
2.04267e-05
2.0417e-05
2.04206e-05
2.00176e-05
2.01128e-05
2.01298e-05
2.01212e-05
2.0133e-05
2.02966e-05
2.09679e-05
2.14681e-05
2.16353e-05
2.16459e-05
2.15992e-05
2.13873e-05
2.09964e-05
2.07149e-05
2.05281e-05
2.04135e-05
2.03606e-05
2.03401e-05
2.00112e-05
2.00075e-05
1.99816e-05
1.99302e-05
1.98373e-05
1.96377e-05
1.92082e-05
1.89196e-05
1.89151e-05
1.89942e-05
1.92155e-05
1.94942e-05
1.97278e-05
1.98556e-05
1.98778e-05
1.96987e-05
1.95424e-05
1.95134e-05
2.02089e-05
1.82356e-05
1.46376e-05
1.54165e-05
1.71501e-05
1.81834e-05
1.96304e-05
2.26745e-05
3.06442e-05
4.3017e-05
5.54764e-05
6.31948e-05
6.94435e-05
7.39258e-05
7.79612e-05
8.05616e-05
8.59508e-05
9.03783e-05
3.21681e-05
0.000105756
0.00017863
0.000248401
0.000288647
0.000302227
0.000316753
0.000350163
0.000419051
0.000479766
0.000520721
0.000543227
0.00055545
0.00056372
0.000571681
0.000577679
0.00058421
0.000592189
0.00256429
0.00263053
0.00253169
0.00231674
0.00217297
0.00208236
0.00200046
0.00190248
0.0017885
0.00167139
0.00156413
0.00147299
0.00139989
0.00134498
0.00130754
0.00128552
0.00127474
0.00126876
1.42888e-07
1.01444e-06
4.63074e-06
1.4308e-05
2.92826e-05
4.54125e-05
6.01304e-05
7.2117e-05
8.06295e-05
8.57004e-05
8.77379e-05
8.70906e-05
8.35435e-05
7.76849e-05
7.00659e-05
6.12439e-05
5.17689e-05
4.22482e-05
3.31398e-05
2.49344e-05
1.79485e-05
1.22421e-05
8.03812e-06
5.0395e-06
3.17697e-06
2.15585e-06
1.76643e-06
1.72516e-06
1.93994e-06
2.12746e-06
2.29358e-06
2.43696e-06
2.5503e-06
2.63218e-06
2.68214e-06
2.69952e-06
2.68788e-06
2.63286e-06
2.55389e-06
2.43856e-06
2.29721e-06
2.13306e-06
1.95625e-06
1.76653e-06
1.5673e-06
1.35173e-06
1.1465e-06
9.28348e-07
7.34624e-07
5.68098e-07
4.42509e-07
3.58737e-07
2.94697e-07
2.42528e-07
1.99854e-07
1.64682e-07
1.35352e-07
1.10659e-07
8.98885e-08
7.25251e-08
5.81062e-08
4.62165e-08
3.64822e-08
2.85698e-08
2.21903e-08
1.70887e-08
1.30437e-08
9.86363e-09
7.38774e-09
5.48153e-09
4.02595e-09
2.92335e-09
2.09891e-09
1.49165e-09
1.05041e-09
7.33531e-10
5.08276e-10
3.49598e-10
2.38748e-10
1.61917e-10
1.09065e-10
7.29737e-11
4.85047e-11
3.20322e-11
2.102e-11
1.37084e-11
8.88671e-12
5.72802e-12
3.67223e-12
2.34272e-12
1.48805e-12
9.41648e-13
5.93977e-13
3.73622e-13
2.34406e-13
1.46699e-13
9.15833e-14
5.70353e-14
3.54398e-14
2.19829e-14
1.36221e-14
8.44135e-15
5.23991e-15
3.26933e-15
2.06354e-15
1.32934e-15
8.85339e-16
6.17097e-16
4.54133e-16
3.5484e-16
2.94709e-16
2.58977e-16
2.38589e-16
2.27892e-16
2.23237e-16
2.2205e-16
2.22045e-16
2.22045e-16
2.22045e-16
2.22045e-16
2.22045e-16
2.22045e-16
2.22045e-16
2.22045e-16
2.22045e-16
2.22045e-16
2.22045e-16
2.22045e-16
2.22045e-16
2.22045e-16
2.22045e-16
2.22045e-16
2.22045e-16
2.22045e-16
2.22045e-16
2.22045e-16
2.22045e-16
2.22045e-16
2.22045e-16
2.22045e-16
2.22045e-16
2.22045e-16
2.22045e-16
2.22045e-16
2.22045e-16
2.22045e-16
2.22045e-16
2.22045e-16
2.22045e-16
2.22045e-16
2.22045e-16
2.22045e-16
2.22045e-16
2.22045e-16
2.22045e-16
2.22045e-16
2.22045e-16
2.22045e-16
2.22045e-16
2.22045e-16
2.22045e-16
2.22045e-16
2.22045e-16
2.22045e-16
2.22045e-16
2.22045e-16
2.22045e-16
2.22045e-16
2.35897e-16
3.62252e-16
1.13393e-15
5.1749e-15
2.42449e-14
1.06872e-13
4.42843e-13
1.79765e-12
7.71024e-12
3.62586e-11
2.77829e-10
6.56154e-08
4.8016e-07
1.01254e-06
2.46306e-06
5.86586e-06
1.04907e-05
1.5095e-05
1.86759e-05
2.06384e-05
2.12027e-05
2.01732e-05
1.8451e-05
1.61887e-05
1.39536e-05
1.17935e-05
9.90843e-06
8.39663e-06
7.29287e-06
6.60779e-06
6.29083e-06
6.19668e-06
6.50553e-06
7.05509e-06
7.82631e-06
8.80495e-06
1.00011e-05
1.13196e-05
1.27065e-05
1.40975e-05
1.54439e-05
1.67017e-05
1.78375e-05
1.88145e-05
1.96072e-05
2.02134e-05
2.05832e-05
2.07532e-05
2.08014e-05
2.05768e-05
2.01387e-05
1.95066e-05
1.8686e-05
1.77374e-05
1.67088e-05
1.56341e-05
1.45422e-05
1.33353e-05
1.2332e-05
1.10788e-05
9.10621e-06
6.9182e-06
4.99845e-06
3.75371e-06
3.03162e-06
2.48026e-06
2.03916e-06
1.68874e-06
1.4086e-06
1.17528e-06
9.7622e-07
8.06489e-07
6.62502e-07
5.40916e-07
4.38759e-07
3.53382e-07
2.82505e-07
2.24031e-07
1.76172e-07
1.37298e-07
1.05951e-07
8.10008e-08
6.13034e-08
4.5796e-08
3.37939e-08
2.47088e-08
1.79321e-08
1.29286e-08
9.2634e-09
6.59682e-09
4.66916e-09
3.28432e-09
2.29569e-09
1.59439e-09
1.10016e-09
7.54164e-10
5.13588e-10
3.47462e-10
2.33542e-10
1.55969e-10
1.03519e-10
6.83068e-11
4.48343e-11
2.92934e-11
1.90661e-11
1.23685e-11
7.99874e-12
5.15628e-12
3.31239e-12
2.11973e-12
1.35088e-12
8.57216e-13
5.41656e-13
3.40773e-13
2.13362e-13
1.32928e-13
8.25097e-14
5.11607e-14
3.17671e-14
1.97802e-14
1.23514e-14
7.72806e-15
4.85619e-15
3.0777e-15
1.97919e-15
1.30334e-15
8.88924e-16
6.35324e-16
4.80011e-16
3.84507e-16
3.25371e-16
2.88422e-16
2.65107e-16
2.50253e-16
2.40706e-16
2.34519e-16
2.30477e-16
2.27814e-16
2.26042e-16
2.24849e-16
2.24037e-16
2.23477e-16
2.23084e-16
2.22806e-16
2.22606e-16
2.22462e-16
2.22355e-16
2.22276e-16
2.22217e-16
2.22173e-16
2.22141e-16
2.22116e-16
2.22096e-16
2.2208e-16
2.22068e-16
2.22059e-16
2.22053e-16
2.22049e-16
2.22047e-16
2.22046e-16
2.22045e-16
2.22045e-16
2.22045e-16
2.22045e-16
2.22045e-16
2.22045e-16
2.22045e-16
2.22045e-16
2.22045e-16
2.22045e-16
2.22045e-16
2.22045e-16
2.22045e-16
2.22045e-16
2.22045e-16
2.22045e-16
2.22045e-16
2.22045e-16
2.22047e-16
2.22092e-16
2.22644e-16
2.27047e-16
2.5534e-16
4.12964e-16
1.22108e-15
4.95354e-15
2.19071e-14
9.30747e-14
4.53574e-13
2.18778e-12
2.4744e-11
6.06445e-09
6.57519e-07
1.13468e-06
1.57371e-06
2.37848e-06
3.45843e-06
4.29347e-06
4.64328e-06
4.72935e-06
4.64713e-06
4.53951e-06
4.51822e-06
4.68782e-06
5.05445e-06
5.62546e-06
6.40975e-06
7.40368e-06
8.57836e-06
1.02597e-05
1.24272e-05
1.50835e-05
1.82162e-05
2.1716e-05
2.55197e-05
2.9522e-05
3.36213e-05
3.78154e-05
4.20508e-05
4.62567e-05
5.03036e-05
5.40335e-05
5.7305e-05
6.00328e-05
6.21994e-05
6.38074e-05
6.48044e-05
6.52426e-05
6.53601e-05
6.53248e-05
6.46511e-05
6.33704e-05
6.13741e-05
5.86936e-05
5.53847e-05
5.14938e-05
4.71918e-05
4.27211e-05
3.81445e-05
3.35694e-05
2.90994e-05
2.48906e-05
2.09759e-05
1.73758e-05
1.41733e-05
1.14232e-05
9.16179e-06
7.38043e-06
6.08048e-06
5.12175e-06
4.31171e-06
3.61343e-06
3.0154e-06
2.50365e-06
2.06652e-06
1.6944e-06
1.37947e-06
1.11379e-06
8.91305e-07
7.06795e-07
5.54097e-07
4.29685e-07
3.29741e-07
2.48348e-07
1.84049e-07
1.36241e-07
1.0083e-07
7.45072e-08
5.49131e-08
4.03332e-08
2.95028e-08
2.14804e-08
1.55599e-08
1.12097e-08
8.02934e-09
5.71691e-09
4.04543e-09
2.84473e-09
1.98775e-09
1.38017e-09
9.52332e-10
6.53223e-10
4.45676e-10
3.02768e-10
2.05069e-10
1.38625e-10
9.35509e-11
6.29844e-11
4.22614e-11
2.82315e-11
1.87606e-11
1.23962e-11
8.1435e-12
5.31783e-12
3.44949e-12
2.22173e-12
1.42328e-12
9.10977e-13
5.8433e-13
3.74849e-13
2.39726e-13
1.5233e-13
9.59091e-14
5.98586e-14
3.72616e-14
2.32549e-14
1.45944e-14
9.23826e-15
5.91563e-15
3.84309e-15
2.54119e-15
1.71726e-15
1.19216e-15
8.55566e-16
6.38765e-16
4.98467e-16
4.07244e-16
3.47573e-16
3.08204e-16
2.81971e-16
2.64306e-16
2.52245e-16
2.43877e-16
2.37993e-16
2.33812e-16
2.308e-16
2.2859e-16
2.26947e-16
2.25729e-16
2.2483e-16
2.2416e-16
2.23644e-16
2.23235e-16
2.22908e-16
2.22653e-16
2.22464e-16
2.2233e-16
2.2224e-16
2.22181e-16
2.22141e-16
2.22116e-16
2.22098e-16
2.22084e-16
2.22075e-16
2.22068e-16
2.22062e-16
2.22057e-16
2.22053e-16
2.22051e-16
2.22049e-16
2.22048e-16
2.22047e-16
2.22047e-16
2.22047e-16
2.22047e-16
2.22048e-16
2.22047e-16
2.22047e-16
2.22047e-16
2.22049e-16
2.22071e-16
2.22229e-16
2.2326e-16
2.29245e-16
2.61434e-16
4.18111e-16
1.16679e-15
4.47541e-15
2.17123e-14
1.09353e-13
1.33408e-12
2.7713e-10
7.36295e-07
1.37275e-06
1.60438e-06
1.95574e-06
2.33631e-06
2.64135e-06
2.84103e-06
3.09832e-06
3.45967e-06
3.96586e-06
4.64872e-06
5.64851e-06
7.12162e-06
9.17977e-06
1.18696e-05
1.52752e-05
1.95068e-05
2.43876e-05
2.99599e-05
3.62219e-05
4.31435e-05
5.06627e-05
5.87249e-05
6.71972e-05
7.59153e-05
8.46717e-05
9.32297e-05
0.000101386
0.000109013
0.000115496
0.000120549
0.000123733
0.000125382
0.000125903
0.000124027
0.000121212
0.000116604
0.000111192
0.000104833
9.80363e-05
9.08621e-05
8.36476e-05
7.65329e-05
6.9476e-05
6.27081e-05
5.62297e-05
5.01024e-05
4.43942e-05
3.90782e-05
3.41192e-05
2.96117e-05
2.56038e-05
2.20605e-05
1.89437e-05
1.62154e-05
1.38369e-05
1.17707e-05
9.98102e-06
8.43414e-06
7.10185e-06
5.95967e-06
4.98213e-06
4.14751e-06
3.43683e-06
2.8342e-06
2.32455e-06
1.89459e-06
1.53431e-06
1.23305e-06
9.82544e-07
7.7769e-07
6.08924e-07
4.70619e-07
3.63481e-07
2.80658e-07
2.16325e-07
1.66266e-07
1.27324e-07
9.70853e-08
7.36732e-08
5.56155e-08
4.17504e-08
3.1158e-08
2.31108e-08
1.70328e-08
1.24708e-08
9.06927e-09
6.55083e-09
4.6989e-09
3.34764e-09
2.36935e-09
1.66791e-09
1.17055e-09
8.21438e-10
5.77839e-10
4.06857e-10
2.85701e-10
1.99615e-10
1.38571e-10
9.55006e-11
6.53218e-11
4.43402e-11
2.98732e-11
1.99829e-11
1.32725e-11
8.75226e-12
5.73159e-12
3.73081e-12
2.41695e-12
1.5606e-12
1.00547e-12
6.47118e-13
4.16434e-13
2.68151e-13
1.72877e-13
1.11646e-13
7.22434e-14
4.68402e-14
3.04351e-14
1.98313e-14
1.29747e-14
8.543e-15
5.68057e-15
3.8283e-15
2.62703e-15
1.84505e-15
1.33174e-15
9.91809e-16
7.64883e-16
6.11003e-16
5.0472e-16
4.30096e-16
3.76968e-16
3.38524e-16
3.10178e-16
2.89001e-16
2.73148e-16
2.61283e-16
2.52306e-16
2.45348e-16
2.39832e-16
2.35452e-16
2.32021e-16
2.29439e-16
2.27522e-16
2.26154e-16
2.25178e-16
2.24448e-16
2.23945e-16
2.23549e-16
2.23228e-16
2.23008e-16
2.22834e-16
2.22667e-16
2.22522e-16
2.2242e-16
2.22356e-16
2.22319e-16
2.22302e-16
2.22298e-16
2.22298e-16
2.22301e-16
2.22299e-16
2.22294e-16
2.22253e-16
2.22175e-16
2.22175e-16
2.22218e-16
2.22373e-16
2.22788e-16
2.23876e-16
2.26847e-16
2.36673e-16
2.74869e-16
5.10913e-16
1.89569e-15
1.94633e-14
5.98684e-14
3.03434e-13
1.55439e-11
7.43745e-07
1.58496e-06
1.94695e-06
2.09278e-06
2.34424e-06
2.62865e-06
2.92712e-06
3.38889e-06
4.11492e-06
5.23952e-06
6.88421e-06
9.11269e-06
1.19971e-05
1.56657e-05
2.03247e-05
2.61243e-05
3.31928e-05
4.16287e-05
5.14595e-05
6.27011e-05
7.53202e-05
8.90782e-05
0.000103694
0.000118885
0.000134211
0.000148765
0.000162059
0.000173986
0.000184178
0.00019173
0.000195613
0.000197049
0.000196074
0.000191646
0.000183914
0.000176395
0.00016529
0.00015433
0.000142316
0.000130274
0.000118288
0.000106773
9.58672e-05
8.55448e-05
7.60506e-05
6.72819e-05
5.89998e-05
5.14463e-05
4.46677e-05
3.86402e-05
3.33105e-05
2.86233e-05
2.45176e-05
2.09364e-05
1.7826e-05
1.51359e-05
1.28186e-05
1.08303e-05
9.13064e-06
7.67718e-06
6.43202e-06
5.37193e-06
4.47378e-06
3.71528e-06
3.07656e-06
2.5407e-06
2.09231e-06
1.71757e-06
1.40525e-06
1.14569e-06
9.30727e-07
7.53279e-07
6.07239e-07
4.87387e-07
3.89391e-07
3.09611e-07
2.44956e-07
1.92809e-07
1.50958e-07
1.17541e-07
9.1001e-08
7.00384e-08
5.35748e-08
4.07212e-08
3.07474e-08
2.30583e-08
1.71679e-08
1.26872e-08
9.30053e-09
6.76236e-09
4.87096e-09
3.47786e-09
2.46638e-09
1.7368e-09
1.21408e-09
8.42151e-10
5.79436e-10
3.95285e-10
2.67247e-10
1.78982e-10
1.18679e-10
7.78689e-11
5.05264e-11
3.23999e-11
2.05168e-11
1.28188e-11
7.8948e-12
4.78774e-12
2.85589e-12
1.67366e-12
9.63081e-13
5.43176e-13
3.00502e-13
1.63487e-13
8.62682e-14
4.62029e-14
2.6456e-14
1.65123e-14
1.13591e-14
8.58079e-15
6.9745e-15
5.9062e-15
5.07629e-15
4.38673e-15
3.78794e-15
3.2534e-15
2.77428e-15
2.34859e-15
1.9759e-15
1.65587e-15
1.38579e-15
1.16121e-15
9.76749e-16
8.26621e-16
7.05237e-16
6.07571e-16
5.2931e-16
4.66769e-16
4.16861e-16
3.77051e-16
3.45233e-16
3.19971e-16
2.99639e-16
2.8378e-16
2.70812e-16
2.60752e-16
2.52808e-16
2.45922e-16
2.41217e-16
2.36917e-16
2.33066e-16
2.30757e-16
2.28738e-16
2.26185e-16
2.23905e-16
2.22596e-16
2.22125e-16
2.22045e-16
2.22045e-16
2.22045e-16
2.22059e-16
2.22112e-16
2.22242e-16
2.22542e-16
2.23249e-16
2.24609e-16
2.27909e-16
2.35903e-16
2.55274e-16
3.03624e-16
4.29238e-16
7.63603e-16
1.90013e-15
5.92791e-15
3.6954e-14
1.99589e-13
3.36e-12
4.57267e-12
3.30419e-11
3.49747e-11
7.39389e-07
1.65636e-06
2.31149e-06
2.53723e-06
2.67865e-06
3.00352e-06
3.55889e-06
4.39159e-06
5.62227e-06
7.3785e-06
9.87004e-06
1.33528e-05
1.81221e-05
2.44972e-05
3.28611e-05
4.35988e-05
5.68946e-05
7.28939e-05
9.21718e-05
0.000114817
0.000140909
0.000167974
0.000194449
0.00022025
0.000243496
0.00026409
0.00028191
0.00029688
0.000307328
0.000312618
0.000314013
0.000307172
0.00030153
0.000284401
0.000266137
0.000250445
0.000227139
0.000207505
0.000186398
0.000166266
0.000147243
0.000129192
0.000112572
9.79567e-05
8.48408e-05
7.3435e-05
6.35996e-05
5.49462e-05
4.74132e-05
4.0846e-05
3.51204e-05
3.01209e-05
2.5762e-05
2.19715e-05
1.86839e-05
1.58407e-05
1.33888e-05
1.12805e-05
9.47371e-06
7.93211e-06
6.62171e-06
5.51154e-06
4.57444e-06
3.78632e-06
3.1253e-06
2.57219e-06
2.1118e-06
1.73003e-06
1.41323e-06
1.15056e-06
9.33242e-07
7.53997e-07
6.0671e-07
4.8619e-07
3.87964e-07
3.08218e-07
2.43738e-07
1.91822e-07
1.50207e-07
1.17007e-07
9.06492e-08
6.98311e-08
5.34772e-08
4.07014e-08
3.07796e-08
2.31198e-08
1.72451e-08
1.27677e-08
9.38104e-09
6.83477e-09
4.93931e-09
3.53324e-09
2.51026e-09
1.77084e-09
1.23996e-09
8.61481e-10
5.93637e-10
4.05556e-10
2.74562e-10
1.8411e-10
1.22216e-10
8.0267e-11
5.21214e-11
3.34386e-11
2.11775e-11
1.32278e-11
8.13987e-12
4.92882e-12
2.93283e-12
1.71249e-12
9.79755e-13
5.48372e-13
2.99818e-13
1.59916e-13
8.31107e-14
4.20762e-14
2.07796e-14
1.00527e-14
4.81454e-15
2.34215e-15
1.20549e-15
6.99027e-16
4.89661e-16
4.0355e-16
3.66184e-16
3.47135e-16
3.34581e-16
3.2409e-16
3.14045e-16
3.04072e-16
2.94306e-16
2.85012e-16
2.76406e-16
2.68607e-16
2.61652e-16
2.55525e-16
2.50191e-16
2.45587e-16
2.41646e-16
2.38291e-16
2.35449e-16
2.3307e-16
2.3106e-16
2.29428e-16
2.28039e-16
2.26924e-16
2.26016e-16
2.25215e-16
2.24637e-16
2.24116e-16
2.23656e-16
2.2334e-16
2.23078e-16
2.22797e-16
2.22525e-16
2.22331e-16
2.22223e-16
2.22142e-16
2.22097e-16
2.22098e-16
2.2214e-16
2.22621e-16
2.26944e-16
2.44032e-16
2.95305e-16
4.32243e-16
7.79386e-16
1.66228e-15
3.93455e-15
9.90955e-15
2.60117e-14
6.90292e-14
1.86373e-13
4.84986e-13
1.26585e-12
2.85281e-12
1.15331e-11
1.28741e-11
2.7071e-11
3.02238e-11
7.27872e-07
1.65972e-06
2.51411e-06
2.86831e-06
3.09791e-06
3.54991e-06
4.3042e-06
5.40536e-06
7.08553e-06
9.69597e-06
1.37169e-05
1.96604e-05
2.82439e-05
4.03602e-05
5.65422e-05
7.69423e-05
0.000102638
0.000135339
0.000175346
0.000216244
0.000257931
0.000296998
0.000333569
0.000366844
0.000396968
0.00042085
0.000441806
0.000460166
0.00046905
0.000472323
0.000459849
0.000445393
0.000431358
0.000390379
0.000358503
0.000331861
0.000287022
0.000259187
0.000224197
0.000194929
0.000168009
0.000144137
0.000123184
0.000104959
8.91996e-05
7.57106e-05
6.4449e-05
5.51501e-05
4.74143e-05
4.07262e-05
3.49731e-05
2.99965e-05
2.56679e-05
2.19054e-05
1.8647e-05
1.58299e-05
1.33982e-05
1.13037e-05
9.50428e-06
7.96448e-06
6.65161e-06
5.53645e-06
4.59336e-06
3.79934e-06
3.13346e-06
2.57655e-06
2.11128e-06
1.72364e-06
1.40235e-06
1.13719e-06
9.19119e-07
7.40323e-07
5.94157e-07
4.75035e-07
3.78274e-07
2.99955e-07
2.36802e-07
1.86083e-07
1.45521e-07
1.13228e-07
8.76376e-08
6.74589e-08
5.16298e-08
3.92788e-08
2.96968e-08
2.23054e-08
1.66404e-08
1.23239e-08
9.06042e-09
6.60541e-09
4.7788e-09
3.42123e-09
2.43267e-09
1.71761e-09
1.20384e-09
8.37272e-10
5.77618e-10
3.95098e-10
2.67832e-10
1.79846e-10
1.1956e-10
7.8644e-11
5.11512e-11
3.28735e-11
2.08585e-11
1.30548e-11
8.05112e-12
4.88678e-12
2.91542e-12
1.70713e-12
9.79639e-13
5.50072e-13
3.01759e-13
1.61496e-13
8.42159e-14
4.27588e-14
2.11419e-14
1.0203e-14
4.83782e-15
2.28999e-15
1.11943e-15
5.9953e-16
3.76528e-16
2.84192e-16
2.47298e-16
2.33063e-16
2.27746e-16
2.258e-16
2.25059e-16
2.2471e-16
2.24483e-16
2.24289e-16
2.24098e-16
2.23904e-16
2.2371e-16
2.2352e-16
2.23341e-16
2.23173e-16
2.23019e-16
2.2288e-16
2.22755e-16
2.22646e-16
2.22549e-16
2.22468e-16
2.22396e-16
2.22337e-16
2.22287e-16
2.22243e-16
2.22209e-16
2.22178e-16
2.22152e-16
2.22132e-16
2.22115e-16
2.22099e-16
2.22084e-16
2.22077e-16
2.22066e-16
2.2206e-16
2.22573e-16
2.2485e-16
2.30565e-16
2.42999e-16
2.66144e-16
3.13124e-16
3.9959e-16
5.75209e-16
9.50132e-16
1.79672e-15
3.83942e-15
8.90966e-15
2.21905e-14
5.59614e-14
1.46071e-13
3.61349e-13
9.88891e-13
1.98236e-12
7.30152e-12
7.6673e-12
8.89792e-12
1.20483e-11
7.22119e-07
1.64359e-06
2.60046e-06
3.02041e-06
3.30325e-06
3.85121e-06
4.8331e-06
6.53839e-06
9.48909e-06
1.41947e-05
2.14752e-05
3.2488e-05
4.8154e-05
6.9133e-05
9.66732e-05
0.000134422
0.000184618
0.000248928
0.000310556
0.000369912
0.000417409
0.00047138
0.000515054
0.000562325
0.000601759
0.000637436
0.000671496
0.000697924
0.000708876
0.000711673
0.000678647
0.000661464
0.000622633
0.000548473
0.000500855
0.00045276
0.000373906
0.000339399
0.000279426
0.000239989
0.00020091
0.00016777
0.000139244
0.000114936
9.47458e-05
7.79599e-05
6.41933e-05
5.28357e-05
4.35571e-05
3.6443e-05
3.10034e-05
2.66842e-05
2.30557e-05
1.98205e-05
1.69839e-05
1.45368e-05
1.2421e-05
1.05847e-05
8.98788e-06
7.5995e-06
6.39691e-06
5.36016e-06
4.47027e-06
3.71008e-06
3.0645e-06
2.52006e-06
2.06404e-06
1.6842e-06
1.36928e-06
1.10926e-06
8.95401e-07
7.2017e-07
5.77103e-07
4.60708e-07
3.66345e-07
2.90121e-07
2.28775e-07
1.79596e-07
1.40331e-07
1.09115e-07
8.44101e-08
6.49501e-08
4.96981e-08
3.78059e-08
2.85845e-08
2.14741e-08
1.60252e-08
1.18743e-08
8.73468e-09
6.37357e-09
4.61442e-09
3.30856e-09
2.35391e-09
1.66308e-09
1.16648e-09
8.11961e-10
5.60675e-10
3.83904e-10
2.60539e-10
1.75168e-10
1.16611e-10
7.6821e-11
5.00496e-11
3.22253e-11
2.04894e-11
1.28532e-11
7.94702e-12
4.83737e-12
2.89514e-12
1.7013e-12
9.80178e-13
5.52812e-13
3.04748e-13
1.63973e-13
8.60066e-14
4.39414e-14
2.18688e-14
1.06221e-14
5.06535e-15
2.40656e-15
1.1757e-15
6.24799e-16
3.86564e-16
2.87066e-16
2.46923e-16
2.31273e-16
2.25381e-16
2.23239e-16
2.22487e-16
2.22232e-16
2.22148e-16
2.2212e-16
2.22109e-16
2.22104e-16
2.221e-16
2.22095e-16
2.22091e-16
2.22087e-16
2.22082e-16
2.22078e-16
2.22074e-16
2.2207e-16
2.22066e-16
2.22063e-16
2.2206e-16
2.22058e-16
2.22056e-16
2.22054e-16
2.22052e-16
2.22051e-16
2.2205e-16
2.22049e-16
2.22048e-16
2.22047e-16
2.22047e-16
2.22046e-16
2.22046e-16
2.22046e-16
2.22245e-16
2.23962e-16
2.28765e-16
2.39081e-16
2.60385e-16
2.995e-16
3.75237e-16
5.20093e-16
8.24156e-16
1.48725e-15
3.04658e-15
6.7522e-15
1.62023e-14
3.90912e-14
9.77277e-14
2.27978e-13
6.47027e-13
1.11887e-12
3.04367e-12
3.36019e-12
3.62186e-12
4.54569e-12
7.20439e-07
1.62137e-06
2.69152e-06
3.20729e-06
3.58089e-06
4.37013e-06
5.78871e-06
8.14954e-06
1.24131e-05
1.98004e-05
3.16916e-05
5.0064e-05
7.72505e-05
0.000116412
0.000173212
0.000257825
0.000350173
0.000428582
0.00049084
0.000553793
0.000620184
0.000679207
0.000763465
0.000836118
0.00091225
0.000976703
0.00105342
0.00109492
0.00111002
0.00109847
0.00102632
0.000992363
0.000892952
0.000773413
0.00072048
0.000615067
0.000505594
0.000449507
0.000356956
0.000299212
0.000243867
0.000200143
0.000163392
0.000132489
0.000106324
8.44999e-05
6.69106e-05
5.31322e-05
4.23031e-05
3.36852e-05
2.68183e-05
2.15768e-05
1.77749e-05
1.50812e-05
1.29713e-05
1.11789e-05
9.66748e-06
8.39082e-06
7.2795e-06
6.28897e-06
5.41022e-06
4.62732e-06
3.93081e-06
3.3159e-06
2.77848e-06
2.31303e-06
1.91351e-06
1.57365e-06
1.287e-06
1.04712e-06
8.47822e-07
6.83289e-07
5.48241e-07
4.37975e-07
3.48379e-07
2.75911e-07
2.17554e-07
1.70765e-07
1.33414e-07
1.03728e-07
8.02427e-08
6.17493e-08
4.72584e-08
3.59617e-08
2.72021e-08
2.04477e-08
1.52699e-08
1.13247e-08
8.33826e-09
6.09218e-09
4.41561e-09
3.17224e-09
2.25904e-09
1.59767e-09
1.12184e-09
7.81808e-10
5.40543e-10
3.70628e-10
2.51903e-10
1.69633e-10
1.13123e-10
7.46642e-11
4.87448e-11
3.14561e-11
2.005e-11
1.2612e-11
7.82152e-12
4.77697e-12
2.86967e-12
1.69334e-12
9.8009e-13
5.55593e-13
3.08019e-13
1.66771e-13
8.80778e-14
4.53376e-14
2.27457e-14
1.11412e-14
5.35686e-15
2.5623e-15
1.25503e-15
6.63385e-16
4.04484e-16
2.94977e-16
2.50235e-16
2.32582e-16
2.25855e-16
2.23379e-16
2.22498e-16
2.22194e-16
2.22093e-16
2.22061e-16
2.2205e-16
2.22047e-16
2.22046e-16
2.22046e-16
2.22046e-16
2.22046e-16
2.22046e-16
2.22046e-16
2.22046e-16
2.22045e-16
2.22045e-16
2.22045e-16
2.22045e-16
2.22045e-16
2.22045e-16
2.22045e-16
2.22045e-16
2.22045e-16
2.22045e-16
2.22045e-16
2.22045e-16
2.22045e-16
2.22045e-16
2.22045e-16
2.22045e-16
2.22045e-16
2.2205e-16
2.22917e-16
2.26262e-16
2.34228e-16
2.51733e-16
2.82167e-16
3.44549e-16
4.56141e-16
6.85603e-16
1.16814e-15
2.2667e-15
4.77026e-15
1.08953e-14
2.49446e-14
5.86437e-14
1.27316e-13
3.61107e-13
5.23723e-13
8.81677e-13
1.05143e-12
1.16574e-12
1.52737e-12
7.25254e-07
1.59578e-06
2.71675e-06
3.33143e-06
3.83646e-06
4.96667e-06
7.22376e-06
1.15852e-05
1.95727e-05
3.34366e-05
5.60619e-05
9.15812e-05
0.000146554
0.000229271
0.000338932
0.000442435
0.000528767
0.000589607
0.000668235
0.000746318
0.000854798
0.000987079
0.00115163
0.00131827
0.00148285
0.00163749
0.00179847
0.00191099
0.0019509
0.001883
0.00166787
0.00152825
0.00125393
0.00104676
0.000942905
0.000782206
0.000669268
0.00056801
0.000464951
0.000371478
0.000294648
0.000235193
0.000190216
0.000155266
0.000126542
0.000101118
7.78097e-05
5.92454e-05
4.51674e-05
3.45714e-05
2.66285e-05
2.05966e-05
1.5966e-05
1.25143e-05
1.00771e-05
8.29401e-06
6.88158e-06
5.76973e-06
4.90789e-06
4.25093e-06
3.7305e-06
3.29562e-06
2.90874e-06
2.54453e-06
2.20402e-06
1.89136e-06
1.60698e-06
1.35194e-06
1.12695e-06
9.31391e-07
7.63714e-07
6.21704e-07
5.02743e-07
4.04049e-07
3.22862e-07
2.56581e-07
2.02835e-07
1.59523e-07
1.24818e-07
9.71625e-08
7.52402e-08
5.79533e-08
4.43926e-08
3.38116e-08
2.56001e-08
1.92636e-08
1.44017e-08
1.06946e-08
7.88474e-09
5.77047e-09
4.1886e-09
3.01635e-09
2.15066e-09
1.52299e-09
1.07087e-09
7.47385e-10
5.17555e-10
3.55463e-10
2.4203e-10
1.63299e-10
1.09124e-10
7.21855e-11
4.72404e-11
3.05654e-11
1.95381e-11
1.23287e-11
7.67241e-12
4.70396e-12
2.83793e-12
1.6826e-12
9.7905e-13
5.58282e-13
3.1154e-13
1.69904e-13
9.04529e-14
4.69706e-14
2.37901e-14
1.17703e-14
5.71611e-15
2.75757e-15
1.35629e-15
7.13565e-16
4.28278e-16
3.05799e-16
2.54959e-16
2.3456e-16
2.26649e-16
2.23683e-16
2.22608e-16
2.22232e-16
2.22105e-16
2.22064e-16
2.2205e-16
2.22046e-16
2.22045e-16
2.22045e-16
2.22045e-16
2.22045e-16
2.22045e-16
2.22045e-16
2.22045e-16
2.22045e-16
2.22045e-16
2.22045e-16
2.22045e-16
2.22045e-16
2.22045e-16
2.22045e-16
2.22045e-16
2.22045e-16
2.22045e-16
2.22045e-16
2.22045e-16
2.22045e-16
2.22045e-16
2.22045e-16
2.22045e-16
2.22045e-16
2.22045e-16
2.22151e-16
2.23962e-16
2.29267e-16
2.41016e-16
2.63452e-16
3.10284e-16
3.91171e-16
5.50506e-16
8.72255e-16
1.57098e-15
3.07992e-15
6.54578e-15
1.39503e-14
3.34757e-14
6.13651e-14
1.50464e-13
1.76116e-13
2.0014e-13
2.55687e-13
2.94168e-13
4.14209e-13
7.39666e-07
1.57495e-06
2.71362e-06
3.40363e-06
4.00663e-06
5.43349e-06
8.42152e-06
1.4438e-05
2.60312e-05
4.67223e-05
8.07372e-05
0.000134168
0.000217622
0.000335048
0.00047394
0.000568564
0.000662307
0.000752877
0.000887563
0.0010561
0.00130034
0.00162338
0.00204163
0.00255803
0.00315306
0.00382452
0.00454535
0.00510853
0.00532566
0.00510865
0.00431602
0.00349861
0.00252996
0.00170824
0.00126277
0.000948038
0.000797246
0.000646484
0.000545098
0.000441933
0.000349198
0.000271321
0.000210532
0.000166698
0.00013588
0.000112789
9.33018e-05
7.29954e-05
5.40139e-05
3.96974e-05
2.90849e-05
2.14288e-05
1.59728e-05
1.2033e-05
9.13957e-06
7.13565e-06
5.75028e-06
4.65164e-06
3.78198e-06
3.09146e-06
2.54797e-06
2.13016e-06
1.81693e-06
1.59153e-06
1.419e-06
1.27113e-06
1.13282e-06
9.95518e-07
8.62535e-07
7.37876e-07
6.23353e-07
5.20395e-07
4.29773e-07
3.51451e-07
2.84827e-07
2.28943e-07
1.82639e-07
1.44679e-07
1.13854e-07
8.90326e-08
6.9198e-08
5.34598e-08
4.10544e-08
3.13381e-08
2.37749e-08
1.79238e-08
1.34249e-08
9.98782e-09
7.37803e-09
5.41059e-09
3.93612e-09
2.84111e-09
2.03117e-09
1.44082e-09
1.01486e-09
7.09594e-10
4.92355e-10
3.38869e-10
2.31246e-10
1.56389e-10
1.04765e-10
6.9484e-11
4.56008e-11
2.95947e-11
1.89809e-11
1.20211e-11
7.51128e-12
4.62597e-12
2.80508e-12
1.67268e-12
9.79521e-13
5.62548e-13
3.16433e-13
1.74122e-13
9.36349e-14
4.91744e-14
2.52205e-14
1.26491e-14
6.22979e-15
3.04397e-15
1.50883e-15
7.9125e-16
4.66135e-16
3.23462e-16
2.62854e-16
2.37943e-16