/*--------------------------------*- C++ -*----------------------------------*\
  =========                 |
  \\      /  F ield         | OpenFOAM: The Open Source CFD Toolbox
   \\    /   O peration     | Website:  https://openfoam.org
    \\  /    A nd           | Version:  7
     \\/     M anipulation  |
\*---------------------------------------------------------------------------*/
FoamFile
{
    version     2.0;
    format      ascii;
    class       volScalarField;
    location    "0.014";
    object      nut;
}
// * * * * * * * * * * * * * * * * * * * * * * * * * * * * * * * * * * * * * //

dimensions      [0 2 -1 0 0 0 0];

internalField   nonuniform List<scalar> 
12225
(
0
0
0
0
0
0
3.67096e-11
1.81365e-10
0
0
0
0
0
0
0
0
0
0
0
0
0
0
0
0
3.45407e-10
4.37567e-10
0
0
0
0
0
0
0
0
0
0
0
3.63826e-10
8.77468e-12
0
0
4.17804e-10
1.02819e-09
8.02035e-10
0
0
0
0
0
0
0
0
0
0
2.2647e-08
1.20153e-08
7.70549e-09
2.44613e-09
4.58166e-10
1.24085e-10
2.57011e-10
0
0
0
0
0
0
0
0
0
0
0
0
1.16318e-07
8.05107e-08
8.55276e-09
0
0
0
0
0
0
0
4.31414e-10
4.98955e-10
6.03891e-10
1.47179e-10
0
6.35794e-10
0
1.24949e-08
2.37938e-08
1.13683e-07
7.01122e-08
4.21391e-08
5.09367e-08
6.83462e-08
1.19231e-07
1.28013e-07
8.19442e-08
3.26566e-08
0
0
0
0
0
0
0
0
0
1.26382e-07
1.02712e-07
1.27542e-07
1.69898e-07
1.29648e-07
8.82095e-08
1.18827e-07
1.11561e-07
6.79927e-08
1.99313e-08
0
0
0
0
0
0
0
0
1.89526e-07
2.07314e-07
3.6081e-07
4.46096e-07
2.71436e-07
7.00711e-08
1.01754e-07
1.26686e-07
1.13467e-07
7.03435e-08
2.71851e-08
0
0
0
0
0
0
0
1.70175e-07
4.03159e-07
5.31329e-07
5.00994e-07
1.87025e-07
0
2.44147e-09
6.87851e-08
1.26901e-07
1.35419e-07
7.85138e-08
2.84846e-09
0
0
0
0
0
0
2.96355e-07
3.76249e-07
3.0568e-07
1.20781e-07
0
0
0
0
1.96048e-07
6.0861e-07
4.85145e-07
0
0
0
0
0
0
0
1.99423e-07
1.76091e-07
1.12281e-07
1.88683e-08
0
0
0
0
2.24398e-07
7.21228e-07
4.40911e-07
0
0
0
0
0
3.8007e-07
3.90761e-07
1.68166e-08
4.69357e-08
5.32807e-08
1.17704e-08
0
0
0
0
5.12249e-07
9.25164e-08
0
0
0
0
0
0
8.22479e-07
8.99662e-07
3.95793e-07
1.82115e-07
1.37534e-07
6.9216e-08
0
0
2.84916e-08
2.65416e-07
1.67373e-07
0
0
0
5.5358e-08
1.25202e-07
1.35369e-07
1.02478e-07
8.24934e-07
7.82656e-07
8.36621e-07
1.01514e-06
7.50841e-07
2.68804e-07
0
2.19629e-08
1.44117e-07
2.18676e-07
1.27503e-07
0
0
0
1.45613e-07
3.51198e-07
4.78756e-07
5.14837e-07
6.08144e-07
3.66162e-07
5.23158e-07
9.67984e-07
6.47187e-07
0
0
0
0
0
1.36063e-07
1.27451e-07
0
0
2.43787e-07
6.00235e-07
8.51037e-07
1.01226e-06
8.0175e-07
6.33914e-07
5.40646e-07
8.04107e-07
0
0
0
0
0
0
0
5.1047e-08
6.65873e-08
1.09191e-07
6.44504e-07
1.13268e-06
8.62652e-07
3.79291e-07
7.51159e-07
1.61272e-07
3.60513e-08
0
0
0
0
0
7.07474e-07
1.67835e-06
1.48291e-06
1.2865e-06
8.54759e-07
0
0
0
4.28285e-07
2.72383e-07
0
0
0
0
0
0
0
5.27332e-07
1.13704e-06
1.01171e-06
9.84335e-07
1.4551e-06
2.2939e-06
0
0
0
1.38751e-07
2.28733e-07
2.63057e-07
5.56082e-07
7.65657e-09
0
0
0
0
0
3.20561e-07
4.01452e-07
1.44028e-07
0
0
2.14089e-07
1.3745e-06
1.27738e-06
8.64788e-07
3.37318e-07
2.2865e-07
5.60397e-07
6.02924e-08
0
4.15871e-07
1.02022e-06
8.03616e-07
1.00103e-06
4.9912e-07
0
0
0
0
3.27242e-07
8.47615e-07
1.14167e-06
1.09218e-06
7.98154e-07
1.79734e-08
6.13566e-08
0
0
0
0
3.33462e-07
5.83124e-07
1.346e-07
0
0
0
0
0
0
0
1.18629e-07
2.33334e-07
1.92385e-07
1.98171e-07
0
0
0
0
1.14673e-07
2.5176e-07
0
0
0
0
0
0
0
0
0
1.66142e-08
0
1.18957e-07
0
0
0
0
3.30114e-07
2.72644e-07
0
0
0
0
0
0
0
0
0
5.78832e-09
0
0
0
0
0
1.18151e-07
4.27145e-07
4.47172e-07
2.48111e-07
5.18735e-08
0
0
0
0
0
0
0
0
0
0
0
0
0
6.16861e-08
3.24177e-07
4.66488e-07
4.44644e-07
3.32261e-07
2.29744e-07
1.39157e-07
5.65189e-08
1.01397e-08
0
0
0
0
0
0
0
0
0
0
1.80093e-07
3.85383e-07
5.08932e-07
5.05564e-07
3.51976e-07
1.78081e-07
6.56612e-08
9.9781e-09
0
0
1.69178e-08
3.52376e-08
0
0
0
0
0
0
0
0
0
0
0
0
0
0
0
0
0
0
3.78563e-09
0
0
0
0
0
0
0
0
0
0
0
0
0
0
0
0
0
4.82193e-09
0
0
0
0
0
0
0
0
0
0
0
0
0
0
0
0
0
3.77162e-08
0
0
0
0
0
0
0
0
0
0
0
0
0
0
0
0
0
0
0
0
1.00705e-09
2.34095e-08
4.36316e-08
5.83345e-08
6.78518e-08
7.32181e-08
7.55106e-08
7.55883e-08
7.40088e-08
7.08335e-08
6.63272e-08
6.06873e-08
5.41744e-08
4.71017e-08
3.98187e-08
3.26076e-08
2.57811e-08
1.9589e-08
1.4164e-08
9.74485e-09
6.26655e-09
3.7639e-09
2.05566e-09
8.68678e-10
0
0
0
0
0
0
0
0
0
0
0
0
0
0
0
0
0
0
0
0
0
0
0
0
0
0
0
0
0
0
0
0
0
0
0
0
0
0
0
0
0
0
0
0
0
0
0
0
0
0
0
0
0
0
0
0
0
0
0
0
0
0
0
0
0
0
0
0
0
0
0
0
0
0
0
0
0
0
0
0
0
0
0
0
0
0
0
0
0
0
0
0
0
0
0
0
0
0
0
0
0
0
0
0
0
0
0
0
0
0
0
0
0
0
0
0
0
0
0
0
0
0
0
0
0
0
0
0
0
0
0
0
0
0
0
0
0
0
0
0
0
0
0
0
0
0
0
0
0
0
0
0
0
0
0
0
0
0
0
0
1.20171e-08
2.53806e-08
3.26358e-08
3.53641e-08
3.49417e-08
3.28972e-08
2.99125e-08
2.66147e-08
2.34118e-08
2.0559e-08
1.81916e-08
1.62643e-08
1.45571e-08
1.31984e-08
1.18802e-08
1.04857e-08
8.91869e-09
7.11544e-09
4.98564e-09
2.48e-09
0
0
0
0
0
0
0
0
0
0
0
0
0
0
0
0
0
0
0
0
1.89998e-08
3.77159e-08
3.66634e-08
2.2829e-08
6.05732e-09
0
0
0
0
0
0
0
0
0
0
0
0
0
0
0
0
0
0
0
0
0
0
0
0
0
0
0
0
0
0
0
0
0
0
0
0
0
0
0
0
0
0
0
0
0
0
0
0
0
0
0
0
0
0
0
0
0
0
0
0
0
0
0
0
0
0
0
0
0
0
0
0
0
0
0
0
0
0
0
0
0
0
0
0
0
0
0
0
0
0
0
0
0
0
0
0
0
0
0
0
0
0
0
0
0
0
0
0
0
0
0
0
0
0
0
0
0
0
0
0
0
0
0
0
0
0
0
0
0
0
0
0
0
0
0
0
0
0
0
0
0
0
0
0
0
0
0
0
1.3502e-09
6.22082e-09
9.24254e-09
1.01262e-08
8.99451e-09
6.31617e-09
2.59332e-09
0
0
0
0
0
0
0
0
0
0
0
2.20206e-08
4.48729e-08
6.62633e-08
8.46724e-08
9.91634e-08
1.0937e-07
1.15377e-07
1.17484e-07
1.15914e-07
1.11492e-07
1.04246e-07
9.38448e-08
8.12121e-08
6.74011e-08
5.29358e-08
3.83821e-08
2.45274e-08
1.22174e-08
2.20147e-09
0
0
0
0
0
0
0
0
0
0
0
0
0
0
0
0
0
0
0
0
0
0
0
0
0
0
0
0
0
0
0
0
0
0
0
0
0
0
0
0
0
0
0
0
0
0
0
0
0
0
0
0
0
0
0
0
0
0
0
0
0
0
0
0
0
0
0
0
0
0
0
0
0
0
0
0
0
0
0
0
0
0
0
0
0
0
0
0
0
0
0
0
0
0
0
0
0
0
0
0
0
0
0
0
0
0
0
0
0
0
0
0
0
0
0
0
0
0
0
0
0
0
0
0
0
0
0
0
0
0
0
0
0
0
0
0
0
0
0
0
0
0
0
0
0
0
0
0
0
0
0
8.38529e-09
6.18547e-08
1.11682e-07
1.54524e-07
1.88849e-07
2.14746e-07
2.31746e-07
2.42048e-07
2.45844e-07
2.45089e-07
2.40404e-07
2.32981e-07
2.23397e-07
2.12392e-07
2.00452e-07
1.8793e-07
1.75318e-07
1.62606e-07
1.50238e-07
1.38989e-07
1.28281e-07
1.17028e-07
1.05949e-07
9.5843e-08
8.66041e-08
7.80734e-08
7.01929e-08
6.29223e-08
5.62204e-08
5.00446e-08
4.43524e-08
3.91097e-08
3.42873e-08
2.98488e-08
2.57635e-08
2.20039e-08
1.85489e-08
1.53772e-08
1.24708e-08
9.82177e-09
7.42019e-09
5.2649e-09
3.3644e-09
1.71783e-09
3.38138e-10
0
0
0
0
0
0
0
0
0
0
0
0
0
0
0
0
0
0
0
0
0
8.60619e-14
3.64866e-12
5.33103e-12
5.86349e-12
5.7198e-12
5.20909e-12
4.54543e-12
3.84332e-12
3.16941e-12
2.57455e-12
2.05859e-12
1.62416e-12
1.27614e-12
9.97887e-13
7.80035e-13
6.10691e-13
4.74295e-13
3.64585e-13
2.79938e-13
2.15078e-13
1.64845e-13
1.25965e-13
9.5986e-14
7.29542e-14
5.53482e-14
4.1952e-14
3.17973e-14
2.41301e-14
1.83698e-14
1.406e-14
1.08506e-14
8.46987e-15
6.70496e-15
5.39586e-15
4.42391e-15
3.69647e-15
3.14574e-15
2.72349e-15
2.39556e-15
2.13676e-15
1.92888e-15
1.75925e-15
1.61918e-15
1.50216e-15
1.40304e-15
1.31776e-15
1.2435e-15
1.17841e-15
1.12115e-15
1.07073e-15
1.02601e-15
9.86063e-16
9.50015e-16
9.17093e-16
8.86819e-16
8.58499e-16
8.31616e-16
8.05741e-16
7.80293e-16
7.54617e-16
7.28076e-16
6.99916e-16
6.69179e-16
6.34972e-16
5.95273e-16
5.50241e-16
4.93175e-16
4.32043e-16
3.40746e-16
2.6074e-16
1.01381e-16
3.55425e-18
0
0
0
0
0
0
0
0
0
0
0
0
0
0
0
0
0
0
0
0
0
0
0
0
0
0
0
0
0
0
0
0
0
0
0
0
0
0
0
0
0
0
0
6.30984e-08
1.22518e-07
1.74972e-07
2.18147e-07
2.50248e-07
2.71228e-07
2.84427e-07
2.88014e-07
2.86255e-07
2.79148e-07
2.68532e-07
2.55286e-07
2.40499e-07
2.24861e-07
2.08899e-07
1.93268e-07
1.77989e-07
1.63203e-07
1.49617e-07
1.3672e-07
1.23986e-07
1.11944e-07
1.01029e-07
9.11122e-08
8.20452e-08
7.37573e-08
6.61954e-08
5.93093e-08
5.30513e-08
4.73761e-08
4.22241e-08
3.75374e-08
3.32906e-08
2.94542e-08
2.59958e-08
2.2884e-08
2.00913e-08
1.75899e-08
1.53516e-08
1.3353e-08
1.15726e-08
9.99083e-09
8.58958e-09
7.35159e-09
6.26074e-09
5.30277e-09
4.4648e-09
3.73491e-09
3.10207e-09
2.55605e-09
2.08742e-09
1.68747e-09
1.34824e-09
1.06239e-09
8.23288e-10
6.24878e-10
4.61715e-10
3.28861e-10
2.21934e-10
1.37028e-10
7.07392e-11
1.99983e-11
0
0
0
0
0
0
0
0
0
0
0
0
0
0
0
0
0
0
0
0
0
0
0
0
8.7641e-14
2.06398e-13
2.51008e-13
2.62909e-13
2.61713e-13
2.5499e-13
2.4422e-13
2.29707e-13
2.12798e-13
1.94539e-13
1.75672e-13
1.56915e-13
1.38852e-13
1.21939e-13
1.06491e-13
9.26757e-14
8.05219e-14
6.9981e-14
6.093e-14
5.32245e-14
4.66991e-14
4.12009e-14
3.65775e-14
3.2695e-14
2.94297e-14
2.66761e-14
2.43528e-14
2.23739e-14
2.06995e-14
1.92495e-14
1.8005e-14
1.69209e-14
1.59468e-14
1.51059e-14
1.43294e-14
1.36078e-14
1.29628e-14
1.23469e-14
1.17285e-14
1.11181e-14
1.05205e-14
9.91335e-15
9.27292e-15
8.56297e-15
7.78131e-15
6.86216e-15
5.85577e-15
4.59012e-15
3.2698e-15
1.49514e-15
0
0
0
0
0
0
0
3.57706e-14
9.28416e-14
1.2129e-12
2.6705e-12
2.88449e-11
2.66509e-12
6.68493e-11
0
0
0
0
0
0
0
0
0
0
0
0
0
0
0
0
0
0
0
0
0
0
0
0
0
0
0
0
0
0
7.01098e-08
1.44131e-07
2.07941e-07
2.6144e-07
2.97913e-07
3.21718e-07
3.36562e-07
3.37141e-07
3.32763e-07
3.20982e-07
3.0514e-07
2.86573e-07
2.66021e-07
2.44658e-07
2.23965e-07
2.04038e-07
1.85545e-07
1.6915e-07
1.54255e-07
1.39893e-07
1.26184e-07
1.13705e-07
1.02456e-07
9.22428e-08
8.2941e-08
7.44662e-08
6.67478e-08
5.97234e-08
5.33357e-08
4.75342e-08
4.22765e-08
3.75206e-08
3.3226e-08
2.93559e-08
2.5876e-08
2.27524e-08
1.99526e-08
1.74523e-08
1.52261e-08
1.3243e-08
1.1478e-08
9.90982e-09
8.52001e-09
7.29211e-09
6.21111e-09
5.2628e-09
4.43392e-09
3.71224e-09
3.08656e-09
2.5466e-09
2.08296e-09
1.68703e-09
1.35094e-09
1.06754e-09
8.30302e-10
6.33321e-10
4.71245e-10
3.39282e-10
2.33102e-10
1.48905e-10
8.32609e-11
3.31702e-11
0
0
0
0
0
0
0
0
0
0
0
0
0
0
0
0
0
0
0
0
0
0
0
0
0
0
0
0
0
0
0
0
0
0
0
0
0
0
0
0
0
0
0
0
0
0
0
0
0
0
0
0
0
0
0
0
0
0
0
0
0
0
0
0
0
0
0
0
0
0
0
6.43454e-14
1.69974e-13
3.33299e-13
5.68746e-13
9.73583e-13
1.56546e-12
2.69166e-12
4.186e-12
7.32166e-12
1.07535e-11
1.88297e-11
2.43351e-11
4.08721e-11
3.7454e-11
7.66287e-11
9.08306e-12
3.64577e-11
0
0
0
0
0
0
0
0
0
0
0
0
0
0
0
0
0
0
0
0
0
0
0
0
0
0
0
0
0
0
8.32139e-08
1.73296e-07
2.51232e-07
3.15169e-07
3.52595e-07
3.77704e-07
3.92085e-07
3.83711e-07
3.76663e-07
3.56379e-07
3.34205e-07
3.09072e-07
2.82972e-07
2.57017e-07
2.32037e-07
2.08468e-07
1.8704e-07
1.68924e-07
1.53151e-07
1.38096e-07
1.23919e-07
1.11374e-07
1.00226e-07
9.01474e-08
8.09952e-08
7.26887e-08
6.51458e-08
5.8292e-08
5.20643e-08
4.64081e-08
4.12789e-08
3.66345e-08
3.24365e-08
2.86508e-08
2.52459e-08
2.21908e-08
1.94538e-08
1.7003e-08
1.48122e-08
1.28609e-08
1.11286e-08
9.59474e-09
8.2401e-09
7.04679e-09
5.9985e-09
5.08042e-09
4.2791e-09
3.58228e-09
2.97878e-09
2.45842e-09
2.01191e-09
1.6308e-09
1.3074e-09
1.03473e-09
8.06435e-10
6.16818e-10
4.60702e-10
3.33476e-10
2.30963e-10
1.49531e-10
8.58769e-11
3.71515e-11
7.57178e-13
0
0
0
0
0
0
0
0
0
0
0
0
0
0
0
0
0
0
0
0
0
0
0
0
0
0
0
0
0
0
0
0
0
0
0
0
0
0
0
0
0
0
0
0
0
0
0
0
0
0
0
0
0
0
0
0
0
0
0
0
0
0
0
0
0
0
8.73124e-14
2.35654e-13
3.51027e-13
4.35756e-13
5.19578e-13
6.01061e-13
7.28855e-13
8.8876e-13
1.20564e-12
1.62928e-12
2.50682e-12
3.60867e-12
5.98688e-12
8.45238e-12
1.41538e-11
1.76481e-11
2.90467e-11
2.43496e-11
4.339e-11
0
2.65037e-12
0
0
0
0
0
0
0
0
0
0
0
0
0
0
0
0
0
0
0
0
0
0
0
0
0
0
0
0
0
0
1.10728e-07
2.28462e-07
3.31443e-07
4.06948e-07
4.44855e-07
4.69946e-07
4.76328e-07
4.50911e-07
4.39715e-07
4.03087e-07
3.73795e-07
3.39076e-07
3.04993e-07
2.72061e-07
2.41008e-07
2.12709e-07
1.8788e-07
1.66757e-07
1.47616e-07
1.29735e-07
1.14586e-07
1.02318e-07
9.20976e-08
8.3149e-08
7.49302e-08
6.74257e-08
6.06482e-08
5.45067e-08
4.8916e-08
4.38106e-08
3.91406e-08
3.4874e-08
3.09838e-08
2.74437e-08
2.42293e-08
2.13204e-08
1.8699e-08
1.6347e-08
1.42445e-08
1.23709e-08
1.07061e-08
9.23122e-09
7.92828e-09
6.78066e-09
5.77292e-09
4.8908e-09
4.12125e-09
3.45234e-09
2.8732e-09
2.37391e-09
1.94547e-09
1.5797e-09
1.26919e-09
1.00721e-09
7.87681e-10
6.05133e-10
4.54625e-10
3.3174e-10
2.32508e-10
1.5345e-10
9.14377e-11
4.3737e-11
7.88622e-12
0
0
0
0
0
0
0
0
0
0
0
0
0
0
0
0
0
0
0
0
0
0
0
0
0
0
0
0
0
0
0
0
0
0
0
0
0
0
0
0
0
0
0
0
0
0
0
0
0
0
0
0
0
0
0
0
0
0
0
0
0
0
0
0
0
0
2.2492e-14
1.49961e-13
2.55264e-13
3.35614e-13
4.13626e-13
4.83804e-13
5.89313e-13
7.1166e-13
9.48527e-13
1.25651e-12
1.88168e-12
2.64858e-12
4.23604e-12
5.83516e-12
9.22654e-12
1.10396e-11
1.72803e-11
1.2558e-11
1.57294e-11
0
0
0
0
0
0
0
0
0
0
0
0
0
0
0
0
0
0
0
0
0
0
0
0
0
0
0
0
0
0
0
1.21265e-08
1.80591e-07
3.25148e-07
4.47569e-07
5.23522e-07
5.60376e-07
5.93449e-07
5.81589e-07
5.455e-07
5.20482e-07
4.61862e-07
4.16251e-07
3.66828e-07
3.23044e-07
2.83432e-07
2.48279e-07
2.17202e-07
1.89937e-07
1.656e-07
1.43454e-07
1.23715e-07
1.06658e-07
9.21044e-08
8.0044e-08
7.04445e-08
6.29763e-08
5.67456e-08
5.12064e-08
4.62928e-08
4.19283e-08
3.79634e-08
3.42908e-08
3.0894e-08
2.77386e-08
2.48048e-08
2.20872e-08
1.9584e-08
1.72906e-08
1.52003e-08
1.33058e-08
1.1598e-08
1.00667e-08
8.70023e-09
7.48648e-09
6.413e-09
5.46746e-09
4.63794e-09
3.91309e-09
3.28226e-09
2.73553e-09
2.26378e-09
1.85865e-09
1.51247e-09
1.21831e-09
9.69848e-10
7.61378e-10
5.87751e-10
4.44336e-10
3.26978e-10
2.31962e-10
1.56007e-10
9.61981e-11
4.99423e-11
1.49479e-11
0
0
0
0
0
0
0
0
0
0
0
0
0
0
0
0
0
0
0
0
0
0
0
0
0
0
0
0
0
0
0
0
0
0
0
0
0
0
0
0
0
0
0
0
0
0
0
0
0
0
0
0
0
0
0
0
0
0
0
0
0
0
0
0
0
0
0
7.23458e-14
1.66241e-13
2.40067e-13
3.08926e-13
3.67523e-13
4.49312e-13
5.36651e-13
6.98217e-13
9.02246e-13
1.30305e-12
1.7844e-12
2.71896e-12
3.61444e-12
5.28644e-12
5.90246e-12
8.31481e-12
4.42949e-12
2.04658e-12
0
0
0
0
0
0
0
0
0
0
0
0
0
0
0
0
0
0
0
0
0
0
0
0
0
0
0
0
0
0
0
1.37424e-08
1.58598e-07
2.72782e-07
3.69795e-07
4.28759e-07
4.79512e-07
5.44373e-07
5.78493e-07
5.98261e-07
5.84956e-07
5.37114e-07
4.69733e-07
3.99299e-07
3.36521e-07
2.85466e-07
2.46269e-07
2.16284e-07
1.9084e-07
1.65388e-07
1.41553e-07
1.20638e-07
1.02712e-07
8.75468e-08
7.47086e-08
6.38225e-08
5.48324e-08
4.77738e-08
4.21212e-08
3.7307e-08
3.32189e-08
2.9789e-08
2.69487e-08
2.4533e-08
2.23988e-08
2.04303e-08
1.85401e-08
1.67263e-08
1.50052e-08
1.33796e-08
1.18564e-08
1.04435e-08
9.14503e-09
7.96223e-09
6.8936e-09
5.93534e-09
5.08193e-09
4.32667e-09
3.66215e-09
3.08069e-09
2.57461e-09
2.13644e-09
1.75906e-09
1.43581e-09
1.1605e-09
9.27466e-10
7.31509e-10
5.67919e-10
4.32452e-10
3.21271e-10
2.30961e-10
1.58473e-10
1.01133e-10
5.65071e-11
2.24981e-11
0
0
0
0
0
0
0
0
0
0
0
0
0
0
0
0
0
0
0
0
0
0
0
0
0
0
0
0
0
0
0
0
0
0
0
0
0
0
0
0
0
0
0
0
0
0
0
0
0
0
0
0
0
0
0
0
0
0
0
0
0
0
0
0
0
0
0
3.80141e-15
8.51806e-14
1.50586e-13
2.08574e-13
2.56233e-13
3.15217e-13
3.73088e-13
4.71478e-13
5.89048e-13
8.10401e-13
1.06272e-12
1.51464e-12
1.89285e-12
2.60944e-12
2.43836e-12
2.53494e-12
9.93056e-14
0
0
0
0
0
0
0
0
0
0
0
0
0
0
0
0
0
0
0
0
0
0
0
0
0
0
0
0
0
0
0
0
0
0
1.26996e-07
2.65509e-07
2.83009e-07
2.05728e-07
1.4826e-07
2.04726e-07
3.59477e-07
4.81966e-07
5.32664e-07
5.05667e-07
4.37698e-07
3.59867e-07
2.90494e-07
2.37029e-07
1.98634e-07
1.71934e-07
1.52977e-07
1.35361e-07
1.17174e-07
1.0041e-07
8.49711e-08
7.14567e-08
6.01255e-08
5.07528e-08
4.29888e-08
3.69068e-08
3.222e-08
2.82016e-08
2.47498e-08
2.17787e-08
1.92357e-08
1.71006e-08
1.53434e-08
1.39392e-08
1.27686e-08
1.17143e-08
1.07095e-08
9.7115e-09
8.73166e-09
7.78891e-09
6.89256e-09
6.05158e-09
5.27319e-09
4.56136e-09
3.91738e-09
3.34047e-09
2.82822e-09
2.37706e-09
1.98267e-09
1.64036e-09
1.34527e-09
1.0926e-09
8.77737e-10
6.96308e-10
5.44256e-10
4.17854e-10
3.13698e-10
2.28729e-10
1.60199e-10
1.05683e-10
6.29649e-11
3.01289e-11
5.4917e-12
0
0
0
0
0
0
0
0
0
0
0
0
0
0
0
0
0
0
0
0
0
0
0
0
0
0
0
0
0
0
0
0
0
0
0
0
0
0
0
0
0
0
0
0
0
0
0
0
0
0
0
0
0
0
0
0
0
0
0
0
0
0
0
0
0
0
0
5.61479e-15
6.25594e-14
1.11092e-13
1.48992e-13
1.88854e-13
2.22474e-13
2.75663e-13
3.27e-13
4.2107e-13
5.10619e-13
6.56148e-13
7.47109e-13
7.5432e-13
4.93218e-13
0
0
0
0
0
0
0
0
0
0
0
0
0
0
0
0
0
0
0
0
0
0
0
0
0
0
0
0
0
0
0
7.81489e-08
1.33072e-07
0
0
1.7371e-07
8.96147e-07
1.48843e-06
1.61701e-06
1.26096e-06
5.77695e-07
0
0
1.4536e-08
2.84832e-07
4.0827e-07
4.09087e-07
3.57355e-07
2.97872e-07
2.40501e-07
1.89033e-07
1.48993e-07
1.23799e-07
1.11383e-07
1.04419e-07
9.46256e-08
8.26483e-08
7.00339e-08
5.81491e-08
4.80237e-08
3.98572e-08
3.32899e-08
2.81111e-08
2.43491e-08
2.13811e-08
1.86956e-08
1.62952e-08
1.42e-08
1.24128e-08
1.08967e-08
9.62257e-09
8.56984e-09
7.71834e-09
7.04701e-09
6.47719e-09
5.94423e-09
5.41658e-09
4.88085e-09
4.35165e-09
3.84181e-09
3.35888e-09
2.90894e-09
2.49622e-09
2.12276e-09
1.7889e-09
1.4937e-09
1.23532e-09
1.01127e-09
8.18728e-10
6.54686e-10
5.16138e-10
4.00158e-10
3.03978e-10
2.25017e-10
1.60933e-10
1.09591e-10
6.90542e-11
3.75841e-11
1.36961e-11
0
0
0
0
0
0
0
0
0
0
0
0
0
0
0
0
0
0
0
0
0
0
0
0
0
0
0
0
0
0
0
0
0
0
0
0
0
0
0
0
0
0
0
0
0
0
0
0
0
0
0
0
0
0
0
0
0
0
0
0
0
0
0
0
0
0
0
0
0
2.77323e-14
5.68424e-14
8.22912e-14
9.94366e-14
1.21045e-13
1.32436e-13
1.55299e-13
1.57789e-13
1.51546e-13
1.05749e-13
0
0
0
0
0
0
0
0
0
0
0
0
0
0
0
0
0
0
0
0
0
0
0
0
0
0
0
0
0
0
2.85843e-07
1.66929e-06
3.82659e-06
5.65963e-06
4.87038e-06
1.13034e-06
0
0
0
2.01163e-06
3.32743e-06
3.39823e-06
2.46419e-06
1.11188e-06
0
0
0
1.29012e-07
2.7394e-07
2.90236e-07
2.64114e-07
2.25064e-07
1.81049e-07
1.39087e-07
1.04966e-07
8.33797e-08
7.52392e-08
7.55857e-08
7.42379e-08
6.75144e-08
5.78817e-08
4.75357e-08
3.83542e-08
3.10264e-08
2.53845e-08
2.09733e-08
1.76851e-08
1.54824e-08
1.37444e-08
1.20823e-08
1.05299e-08
9.1354e-09
7.91678e-09
6.87647e-09
6.00221e-09
5.26868e-09
4.66018e-09
4.16202e-09
3.7624e-09
3.44248e-09
3.15803e-09
2.88185e-09
2.60337e-09
2.32058e-09
2.0425e-09
1.77685e-09
1.52802e-09
1.29901e-09
1.09174e-09
9.06938e-10
7.44352e-10
6.03051e-10
4.81659e-10
3.78532e-10
2.91897e-10
2.19939e-10
1.60901e-10
1.13096e-10
7.49349e-11
4.49427e-11
2.18522e-11
4.52453e-12
0
0
0
0
0
0
0
0
0
0
0
0
0
0
0
0
0
0
0
0
0
0
0
0
0
0
0
0
0
0
0
0
0
0
0
0
0
0
0
0
0
0
0
0
0
0
0
0
0
0
0
0
0
0
0
0
0
0
0
0
0
0
0
0
0
0
0
0
0
0
0
0
0
0
0
0
0
0
0
0
0
0
0
0
0
0
0
0
0
0
0
0
0
0
0
0
0
0
0
0
0
0
0
0
0
0
0
6.59202e-07
2.81904e-06
7.75126e-06
1.71758e-05
2.83486e-05
2.60591e-05
0
0
0
0
0
0
1.89735e-06
2.76519e-06
2.13505e-06
8.74957e-07
0
0
0
1.01289e-07
1.8941e-07
1.82237e-07
1.63984e-07
1.46471e-07
1.23576e-07
9.56232e-08
6.86525e-08
5.05447e-08
4.53141e-08
5.02098e-08
5.57628e-08
5.43819e-08
4.78568e-08
3.91523e-08
3.08988e-08
2.42487e-08
1.92791e-08
1.55863e-08
1.27729e-08
1.08071e-08
9.56696e-09
8.56607e-09
7.58006e-09
6.63504e-09
5.76182e-09
4.97734e-09
4.2902e-09
3.70208e-09
3.20884e-09
2.79806e-09
2.45644e-09
2.17421e-09
1.94183e-09
1.75188e-09
1.59476e-09
1.45187e-09
1.31206e-09
1.17215e-09
1.03223e-09
8.94757e-10
7.64427e-10
6.44026e-10
5.34887e-10
4.37601e-10
3.52243e-10
2.78476e-10
2.15659e-10
1.62941e-10
1.19344e-10
8.37976e-11
5.52636e-11
3.27676e-11
1.54424e-11
2.44844e-12
0
0
0
0
0
0
0
0
0
0
0
0
0
0
0
0
0
0
0
0
0
0
0
0
0
0
0
0
0
0
0
0
0
0
0
0
0
0
0
0
0
0
0
0
0
0
0
0
0
0
0
0
0
0
0
0
0
0
0
0
0
0
0
0
0
0
0
0
0
0
0
0
0
0
0
0
0
0
0
0
0
0
0
0
0
0
0
0
1.42658e-08
1.94966e-08
1.80995e-08
1.73471e-08
1.55978e-08
1.07643e-08
4.69289e-10
0
0
0
0
0
0
0
0
0
0
9.64475e-09
9.72906e-07
3.67792e-06
9.71383e-06
2.02141e-05
3.26435e-05
0
0
0
0
0
0
0
0
0
1.10193e-06
8.66953e-07
7.85433e-08
0
0
0
1.26875e-07
1.22615e-07
9.73196e-08
8.71849e-08
8.55447e-08
7.77271e-08
5.99865e-08
3.86703e-08
2.36401e-08
2.10915e-08
2.93604e-08
4.00645e-08
4.32838e-08
3.95067e-08
3.24021e-08
2.51376e-08
1.91762e-08
1.47689e-08
1.16297e-08
9.33434e-09
7.6536e-09
6.5554e-09
5.83134e-09
5.22426e-09
4.64187e-09
4.0847e-09
3.56101e-09
3.07868e-09
2.64487e-09
2.26427e-09
1.93808e-09
1.66445e-09
1.43862e-09
1.25191e-09
1.09616e-09
9.65968e-10
8.57273e-10
7.65818e-10
6.8769e-10
6.18378e-10
5.52048e-10
4.86891e-10
4.23307e-10
3.62233e-10
3.04666e-10
2.51479e-10
2.03397e-10
1.61057e-10
1.24563e-10
9.36304e-11
6.78271e-11
4.6682e-11
2.97034e-11
1.63644e-11
6.13905e-12
0
0
0
0
0
0
0
0
0
0
0
0
0
0
0
0
0
0
0
0
0
0
0
0
0
0
0
0
0
0
0
0
0
0
0
0
0
0
0
0
0
0
0
0
0
0
0
0
0
0
0
0
0
0
0
0
0
0
0
0
0
0
0
0
0
0
0
0
0
0
0
0
0
0
0
0
0
0
0
0
0
0
0
0
0
0
2.43654e-09
2.46129e-08
4.01349e-08
4.71098e-08
5.81441e-08
7.33329e-08
9.11899e-08
1.08995e-07
1.19363e-07
1.21908e-07
1.13857e-07
9.6977e-08
7.21089e-08
2.74629e-08
0
0
0
0
0
0
0
0
0
0
0
0
0
0
0
0
0
0
0
3.97928e-07
4.70167e-07
2.50211e-08
0
0
0
9.52553e-08
8.75062e-08
5.86502e-08
4.32696e-08
4.33911e-08
4.88494e-08
4.65132e-08
3.2939e-08
1.52463e-08
4.40419e-09
6.0773e-09
1.75588e-08
3.11483e-08
3.63424e-08
3.35592e-08
2.7186e-08
2.05883e-08
1.52132e-08
1.1306e-08
8.61475e-09
6.75322e-09
5.41491e-09
4.50757e-09
3.89693e-09
3.43751e-09
3.04382e-09
2.68792e-09
2.36003e-09
2.05608e-09
1.77512e-09
1.51826e-09
1.28779e-09
1.08638e-09
9.15679e-10
7.74736e-10
6.59447e-10
5.64648e-10
4.86474e-10
4.21511e-10
3.66798e-10
3.1994e-10
2.79123e-10
2.43029e-10
2.10741e-10
1.81631e-10
1.55246e-10
1.31177e-10
1.08919e-10
8.8465e-11
6.99998e-11
5.36588e-11
3.95045e-11
2.75245e-11
1.76153e-11
9.61265e-12
3.32307e-12
0
0
0
0
0
0
0
0
0
0
0
0
0
0
0
0
0
0
0
0
0
0
0
0
0
0
0
0
0
0
0
0
0
0
0
0
0
0
0
0
0
0
0
0
0
0
0
0
0
0
0
0
0
0
0
0
0
0
0
0
0
0
0
0
0
0
0
0
0
0
0
0
0
0
0
0
0
0
0
0
0
0
0
5.90259e-09
7.48904e-09
1.16148e-08
2.68651e-08
5.29734e-08
6.7318e-08
8.51616e-08
1.10912e-07
1.45016e-07
1.84533e-07
2.23037e-07
2.64283e-07
3.01497e-07
3.09128e-07
2.94461e-07
2.70101e-07
2.18046e-07
1.48515e-07
7.93752e-08
0
0
0
0
0
0
0
0
0
0
0
0
4.7641e-06
3.27025e-06
1.14223e-06
5.29814e-07
5.25545e-07
2.95168e-07
0
0
0
5.22054e-08
7.21977e-08
4.45097e-08
2.31886e-08
1.20254e-08
1.037e-08
1.66908e-08
2.33418e-08
2.13807e-08
1.01485e-08
0
0
0
1.09655e-08
2.30802e-08
2.70539e-08
2.4372e-08
1.91547e-08
1.40517e-08
1.00232e-08
7.16462e-09
5.26098e-09
4.01577e-09
3.16185e-09
2.58132e-09
2.19482e-09
1.90002e-09
1.651e-09
1.43205e-09
1.23656e-09
1.0619e-09
9.06301e-10
7.67921e-10
6.44893e-10
5.36096e-10
4.41759e-10
3.61714e-10
2.95158e-10
2.40795e-10
1.96912e-10
1.61727e-10
1.33527e-10
1.10754e-10
9.20775e-11
7.64672e-11
6.31664e-11
5.16577e-11
4.16037e-11
3.28027e-11
2.51244e-11
1.84735e-11
1.27764e-11
7.96591e-12
3.98826e-12
7.69476e-13
0
0
0
0
0
0
0
0
0
0
0
0
0
0
0
0
0
0
0
0
0
0
0
0
0
0
0
0
0
0
0
0
0
0
0
0
0
0
0
0
0
0
0
0
0
0
0
0
0
0
0
0
0
0
0
0
0
0
0
0
0
0
0
0
0
0
0
0
0
0
0
0
0
0
0
0
0
0
0
0
0
0
0
0
0
2.70432e-07
1.56743e-07
5.31876e-08
3.09126e-08
5.08025e-08
7.4351e-08
9.60281e-08
1.23747e-07
1.63378e-07
2.14628e-07
2.68846e-07
3.38025e-07
4.11066e-07
4.5385e-07
4.86444e-07
5.00755e-07
4.95132e-07
4.99002e-07
5.25895e-07
5.64843e-07
4.81408e-07
0
0
0
0
0
0
0
0
2.94121e-05
3.35506e-05
1.59293e-05
6.12522e-06
1.81931e-06
5.05808e-07
2.65605e-07
9.24593e-08
0
0
1.41454e-07
1.32455e-07
5.45726e-08
1.28369e-08
0
0
0
0
4.69242e-09
9.34714e-09
6.31524e-09
0
0
0
0
6.92184e-09
1.53603e-08
1.73025e-08
1.49608e-08
1.13666e-08
8.10436e-09
5.61964e-09
3.8884e-09
2.75585e-09
2.04277e-09
1.58189e-09
1.27225e-09
1.06892e-09
9.14907e-10
7.83611e-10
6.67883e-10
5.65249e-10
4.74644e-10
3.95154e-10
3.25561e-10
2.64726e-10
2.12079e-10
1.67221e-10
1.29645e-10
9.89422e-11
7.43603e-11
5.508e-11
4.02608e-11
2.90367e-11
2.06429e-11
1.4389e-11
9.69644e-12
6.1173e-12
3.32714e-12
1.11393e-12
0
0
0
0
0
0
0
0
0
0
0
0
0
0
0
0
0
0
0
0
0
0
0
0
0
0
0
0
0
0
0
0
0
0
0
0
0
0
0
0
0
0
0
0
0
0
0
0
0
0
0
0
0
0
0
0
0
0
0
0
0
0
0
0
0
0
0
0
0
0
0
0
0
0
0
0
0
0
0
0
0
0
0
0
0
0
0
0
0
0
0
4.30571e-06
1.09412e-06
2.2254e-07
5.69418e-08
4.64342e-08
7.09924e-08
8.64564e-08
1.10604e-07
1.45157e-07
1.86745e-07
2.37074e-07
3.18416e-07
4.08872e-07
4.71427e-07
5.34292e-07
5.78505e-07
6.17164e-07
6.49056e-07
7.09339e-07
7.94411e-07
8.61002e-07
8.20793e-07
3.09907e-07
0
0
0
0
0
0
1.12964e-05
1.2564e-05
6.7305e-06
2.7176e-06
7.32956e-07
1.57001e-07
9.79946e-08
6.08828e-08
1.4466e-07
4.04503e-07
3.63103e-07
1.53843e-07
4.15519e-08
1.86386e-09
0
0
0
0
0
4.55156e-09
5.65345e-09
1.04942e-09
0
0
0
2.29418e-10
6.33209e-09
1.06203e-08
1.05225e-08
8.43191e-09
6.09864e-09
4.20394e-09
2.83686e-09
1.91002e-09
1.31337e-09
9.45319e-10
7.17047e-10
5.66341e-10
4.63859e-10
3.85256e-10
3.19905e-10
2.63589e-10
2.14805e-10
1.72791e-10
1.36776e-10
1.0608e-10
8.00985e-11
5.84874e-11
4.08272e-11
2.67862e-11
1.61418e-11
8.42039e-12
3.07104e-12
0
0
0
0
0
0
0
0
0
0
0
0
0
0
0
0
0
0
0
0
0
0
0
0
0
0
0
0
0
0
0
0
0
0
0
0
0
0
0
0
0
0
0
0
0
0
0
0
0
0
0
0
0
0
0
0
0
0
0
0
0
0
0
0
0
0
0
0
0
0
0
0
0
0
0
0
0
0
0
0
0
0
0
0
0
0
0
0
0
0
0
0
0
0
0
0
0
0
1.06348e-05
2.3141e-06
3.433e-07
7.85077e-08
5.99002e-08
6.75079e-08
6.86083e-08
8.00955e-08
1.04132e-07
1.37928e-07
1.68281e-07
2.24646e-07
3.14722e-07
3.82146e-07
4.49564e-07
4.97893e-07
5.48776e-07
5.71605e-07
6.17885e-07
6.6503e-07
7.08024e-07
7.67029e-07
6.42396e-07
2.97736e-07
0
0
0
0
0
2.01508e-06
2.30149e-06
1.46379e-06
5.72801e-07
1.0731e-07
6.00126e-08
1.01909e-07
2.03813e-07
6.01352e-07
7.97488e-07
3.32263e-07
1.08609e-07
2.9667e-08
4.70064e-09
0
0
1.19622e-09
2.78993e-09
4.79609e-09
7.227e-09
8.59911e-09
6.51221e-09
1.63447e-09
0
0
1.83524e-09
4.56871e-09
7.60041e-09
8.16278e-09
6.67607e-09
4.79047e-09
3.22901e-09
2.11473e-09
1.36614e-09
8.82625e-10
5.82993e-10
4.03928e-10
2.96171e-10
2.26611e-10
1.77796e-10
1.38419e-10
1.05097e-10
7.68422e-11
5.33057e-11
3.41841e-11
1.89061e-11
6.80948e-12
0
0
0
0
0
0
0
0
0
0
0
0
0
0
0
0
0
0
0
0
0
0
0
0
0
0
0
0
0
0
0
0
0
0
0
0
0
0
0
0
0
0
0
0
0
0
0
0
0
0
0
0
0
0
0
0
0
0
0
0
0
0
0
0
0
0
0
0
0
0
0
0
0
0
0
0
0
0
0
0
0
0
0
0
0
0
0
0
0
0
0
0
0
0
0
0
0
0
0
0
0
0
0
0
9.47578e-06
3.78507e-06
6.12132e-07
1.59307e-07
1.15902e-07
6.53698e-08
3.87478e-08
4.66481e-08
5.71698e-08
7.32104e-08
9.74096e-08
1.24475e-07
1.70734e-07
2.35245e-07
2.91578e-07
3.33798e-07
3.74562e-07
3.81875e-07
4.01896e-07
4.10037e-07
4.19408e-07
4.51826e-07
4.09172e-07
3.21692e-07
1.35907e-07
0
0
0
0
2.52566e-07
3.61234e-07
2.90968e-07
1.3814e-07
9.63169e-08
1.42903e-07
2.38782e-07
6.92204e-07
1.54068e-06
7.80089e-07
2.40026e-07
8.15629e-08
3.2878e-08
1.77512e-08
1.39256e-08
1.36631e-08
1.4067e-08
1.44431e-08
1.48388e-08
1.5148e-08
1.51679e-08
1.37244e-08
1.00924e-08
6.9162e-09
6.95681e-09
8.17524e-09
8.79662e-09
9.48461e-09
9.11721e-09
6.96987e-09
4.75068e-09
3.04924e-09
1.90493e-09
1.17014e-09
7.08683e-10
4.27613e-10
2.63123e-10
1.69388e-10
1.14353e-10
7.86361e-11
5.22496e-11
3.04731e-11
1.20095e-11
0
0
0
0
0
0
0
0
0
0
0
0
0
0
0
0
0
0
0
0
0
0
0
0
0
0
0
0
0
0
0
0
0
0
0
0
0
0
0
0
0
0
0
0
0
0
0
0
0
0
0
0
0
0
0
0
0
0
0
0
0
0
0
0
0
0
0
0
0
0
0
0
0
0
0
0
0
0
0
0
0
0
0
0
0
0
0
0
0
0
0
0
0
0
0
0
0
0
0
0
0
0
0
0
0
0
0
0
2.9052e-06
4.71044e-06
8.17884e-07
2.74854e-07
1.87641e-07
4.08841e-08
4.66741e-09
1.40498e-08
2.26923e-08
2.87037e-08
3.59843e-08
4.85054e-08
6.41084e-08
9.54857e-08
1.20735e-07
1.53069e-07
1.77274e-07
1.764e-07
1.79272e-07
1.72551e-07
1.63307e-07
1.61063e-07
1.35488e-07
9.635e-08
2.86107e-08
0
0
0
0
0
1.01795e-07
1.56535e-07
1.68889e-07
1.92943e-07
2.33864e-07
5.84922e-07
1.61392e-06
1.22902e-06
4.27993e-07
1.42288e-07
6.58742e-08
4.20078e-08
3.43882e-08
3.14565e-08
2.90631e-08
2.7511e-08
2.69101e-08
2.64814e-08
2.54608e-08
2.39483e-08
2.20913e-08
1.91541e-08
1.60579e-08
1.54763e-08
1.65343e-08
1.63581e-08
1.53281e-08
1.3473e-08
9.66992e-09
6.21419e-09
3.78611e-09
2.26228e-09
1.34277e-09
7.88734e-10
4.55752e-10
2.60425e-10
1.4996e-10
8.83618e-11
5.20914e-11
2.80137e-11
9.49972e-12
0
0
0
0
0
0
0
0
0
0
0
0
0
0
0
0
0
0
0
0
0
0
0
0
0
0
0
0
0
0
0
0
0
0
0
0
0
0
0
0
0
0
0
0
0
0
0
0
0
0
0
0
0
0
0
0
0
0
0
0
0
0
0
0
0
0
0
0
0
0
0
0
0
0
0
0
0
0
0
0
0
0
0
0
0
0
0
0
0
0
0
0
0
0
0
0
0
0
0
0
0
0
0
0
0
0
0
0
0
0
1.71598e-06
4.60572e-07
3.30258e-07
1.02881e-07
0
0
0
0
0
0
0
0
0
1.22138e-09
5.03829e-09
5.24689e-09
2.35669e-11
0
0
0
0
0
0
0
0
0
0
0
1.12425e-08
1.30335e-07
2.11367e-07
2.2429e-07
2.30824e-07
5.29086e-07
1.3371e-06
1.20248e-06
7.04285e-07
2.39163e-07
1.09622e-07
6.97301e-08
5.76184e-08
5.40105e-08
5.04286e-08
4.47776e-08
4.10517e-08
3.99593e-08
3.92269e-08
3.71932e-08
3.3993e-08
3.10278e-08
2.8276e-08
2.5489e-08
2.4501e-08
2.57172e-08
2.54924e-08
2.3636e-08
2.05485e-08
1.49835e-08
9.40199e-09
5.6039e-09
3.27013e-09
1.90436e-09
1.11388e-09
6.51375e-10
3.78379e-10
2.19243e-10
1.2869e-10
7.70551e-11
4.55655e-11
2.40208e-11
7.32288e-12
0
0
0
0
0
0
0
0
0
0
0
0
0
0
0
0
0
0
0
0
0
0
0
0
0
0
0
0
0
0
0
0
0
0
0
0
0
0
0
0
0
0
0
0
0
0
0
0
0
0
0
0
0
0
0
0
0
0
0
0
0
0
0
0
0
0
0
0
0
0
0
0
0
0
0
0
0
0
0
0
0
0
0
0
0
0
0
0
0
0
0
0
0
0
0
0
0
0
0
0
0
0
0
0
0
0
0
0
0
0
0
2.36375e-07
0
0
0
0
0
0
0
0
0
0
0
0
0
0
0
0
0
0
0
0
0
0
0
0
0
7.08605e-08
1.58859e-07
1.73434e-07
1.6661e-07
4.48629e-07
8.7233e-07
8.23447e-07
7.54264e-07
3.17066e-07
1.4299e-07
9.04087e-08
7.52547e-08
7.35943e-08
7.25016e-08
6.73884e-08
5.87185e-08
5.39805e-08
5.2817e-08
5.2007e-08
4.94524e-08
4.45435e-08
4.00082e-08
3.69564e-08
3.45363e-08
3.34175e-08
3.49133e-08
3.50593e-08
3.30521e-08
2.92682e-08
2.23712e-08
1.41967e-08
8.52047e-09
4.99492e-09
2.90615e-09
1.69715e-09
1.00225e-09
5.98164e-10
3.6016e-10
2.20627e-10
1.39668e-10
9.17854e-11
6.13924e-11
3.99568e-11
2.32461e-11
9.46045e-12
0
0
0
0
0
0
0
0
0
0
0
0
0
0
0
0
0
0
0
0
0
0
0
0
0
0
0
0
0
0
0
0
0
0
0
0
0
0
0
0
0
0
0
0
0
0
0
0
0
0
0
0
0
0
0
0
0
0
0
0
0
0
0
0
0
0
0
0
0
0
0
0
0
0
0
0
0
0
0
0
0
0
0
0
0
0
0
0
0
0
0
0
0
0
0
0
0
0
0
0
0
0
0
0
0
0
0
0
0
0
0
0
0
0
0
0
0
0
0
0
0
0
0
0
0
0
0
0
0
0
0
0
0
0
0
4.25476e-08
3.48448e-08
3.49768e-08
3.27438e-07
5.2411e-07
5.27291e-07
6.00755e-07
3.75663e-07
1.8201e-07
1.12714e-07
8.98713e-08
8.90251e-08
9.3798e-08
9.20127e-08
8.37278e-08
7.24387e-08
6.71323e-08
6.55663e-08
6.41968e-08
6.07215e-08
5.43825e-08
4.82938e-08
4.47475e-08
4.27116e-08
4.17711e-08
4.36101e-08
4.43435e-08
4.26487e-08
3.87694e-08
3.11674e-08
2.03243e-08
1.23868e-08
7.38337e-09
4.36034e-09
2.56422e-09
1.51687e-09
9.1118e-10
5.57758e-10
3.49787e-10
2.27952e-10
1.56324e-10
1.12417e-10
8.33347e-11
6.22416e-11
4.55517e-11
3.16101e-11
1.99044e-11
1.04278e-11
3.14629e-12
0
0
0
0
0
0
0
0
0
0
0
0
0
0
0
0
0
0
0
0
0
0
0
0
0
0
0
0
0
0
0
0
0
0
0
0
0
0
0
0
0
0
0
0
0
0
0
0
0
0
0
0
0
0
0
0
0
0
0
0
0
0
0
0
0
0
0
0
0
0
0
0
0
0
0
0
0
0
0
0
0
0
0
0
0
0
0
0
0
0
0
0
0
0
0
0
0
0
0
0
0
0
7.4777e-07
1.71433e-07
0
0
0
0
0
0
0
0
0
0
0
0
0
0
0
0
0
0
0
0
0
0
0
0
0
0
0
0
7.44369e-09
2.29479e-07
3.29858e-07
3.4126e-07
4.09777e-07