/*--------------------------------*- C++ -*----------------------------------*\
  =========                 |
  \\      /  F ield         | OpenFOAM: The Open Source CFD Toolbox
   \\    /   O peration     | Website:  https://openfoam.org
    \\  /    A nd           | Version:  7
     \\/     M anipulation  |
\*---------------------------------------------------------------------------*/
FoamFile
{
    version     2.0;
    format      ascii;
    class       volScalarField;
    location    "0.014";
    object      p;
}
// * * * * * * * * * * * * * * * * * * * * * * * * * * * * * * * * * * * * * //

dimensions      [0 2 -2 0 0 0 0];

internalField   nonuniform List<scalar> 
12225
(
-82.4212
-79.0316
-77.5484
-76.5708
-75.7034
-74.9
-74.1555
-73.4727
-72.8501
-72.2687
-71.7056
-71.1476
-70.5924
-70.0386
-69.4852
-68.9175
-68.3254
-67.6458
-81.4956
-78.9619
-77.5459
-76.5668
-75.7028
-74.9
-74.156
-73.4731
-72.8502
-72.2681
-71.7038
-71.1448
-70.5895
-70.0368
-69.4854
-68.9237
-68.3402
-67.7102
-80.3422
-78.8924
-77.5597
-76.5692
-75.7044
-74.9006
-74.1543
-73.468
-72.8389
-72.2513
-71.6853
-71.1283
-70.5769
-70.0298
-69.4845
-68.9338
-68.3684
-67.7849
-79.9473
-78.7729
-77.5485
-76.5548
-75.6913
-74.8909
-74.1459
-73.458
-72.8254
-72.2351
-71.6687
-71.1137
-70.5662
-70.025
-69.4878
-68.9505
-68.4075
-67.8634
-79.1874
-78.6633
-77.5517
-76.5519
-75.6792
-74.878
-74.1339
-73.446
-72.8121
-72.2205
-71.6541
-71.1013
-70.558
-70.0236
-69.4962
-68.9738
-68.4539
-67.9452
-79.2751
-78.5957
-77.5403
-76.5418
-75.6602
-74.8589
-74.1175
-73.4304
-72.7947
-72.2012
-71.6353
-71.0861
-70.5492
-70.0237
-69.5084
-69.0025
-68.5063
-68.0282
-78.5223
-78.5478
-77.5464
-76.5352
-75.6346
-74.8296
-74.0919
-73.4086
-72.7747
-72.1825
-71.6195
-71.0752
-70.5453
-70.029
-69.526
-69.0365
-68.5625
-68.1117
-79.1507
-78.6078
-77.5453
-76.52
-75.6057
-74.7963
-74.0615
-73.382
-72.75
-72.1591
-71.599
-71.0604
-70.5389
-70.0336
-69.5446
-69.0728
-68.6207
-68.1944
-79.3131
-78.7352
-77.5682
-76.4999
-75.5656
-74.7518
-74.021
-73.3473
-72.7196
-72.1323
-71.5776
-71.0469
-70.5356
-70.0426
-69.5681
-69.1134
-68.6809
-68.2756
-81.1545
-78.9456
-77.5773
-76.463
-75.5135
-74.6952
-73.9692
-73.3043
-72.6843
-72.1032
-71.555
-71.0324
-70.531
-70.0501
-69.59
-69.1523
-68.7388
-68.353
-81.2536
-79.0658
-77.5613
-76.3979
-75.4396
-74.6252
-73.9073
-73.2503
-72.6378
-72.0649
-71.5264
-71.0153
-70.527
-70.0602
-69.6152
-69.1933
-68.7962
-68.4266
-80.9646
-79.0618
-77.5057
-76.3106
-75.3491
-74.541
-73.8343
-73.1913
-72.5918
-72.0294
-71.5003
-70.9986
-70.5206
-70.0657
-69.6342
-69.2269
-68.8452
-68.4902
-81.3627
-79.0516
-77.3799
-76.1697
-75.2264
-74.4397
-73.7512
-73.1223
-72.5351
-71.9851
-71.4685
-70.9798
-70.5151
-70.0732
-69.6544
-69.2594
-68.8895
-68.5465
-82.8879
-78.8931
-77.1163
-75.9481
-75.0497
-74.2954
-73.6323
-73.026
-72.4596
-71.9273
-71.4254
-70.9504
-70.5
-70.0734
-69.6703
-69.2912
-68.9362
-68.6059
-81.0273
-78.0079
-76.5625
-75.5739
-74.7845
-74.1018
-73.4838
-72.9078
-72.3666
-71.857
-71.3748
-70.9169
-70.482
-70.0702
-69.6818
-69.3166
-68.9751
-68.6575
-75.8261
-75.9272
-75.6128
-75.0272
-74.4164
-73.8295
-73.2706
-72.7358
-72.2282
-71.7471
-71.2891
-70.8535
-70.4408
-70.0508
-69.6825
-69.3354
-69.0094
-68.7043
-70.2826
-74.0377
-74.6433
-74.4177
-73.9886
-73.509
-73.0195
-72.5372
-72.0733
-71.6282
-71.1999
-70.7892
-70.3977
-70.0259
-69.6734
-69.3404
-69.0269
-68.733
-76.8489
-75.035
-74.3834
-73.9627
-73.5659
-73.1499
-72.7175
-72.285
-71.8627
-71.4525
-71.0551
-70.6723
-70.3064
-69.9585
-69.628
-69.3139
-69.0164
-68.735
-75.0379
-74.0194
-73.7045
-73.4161
-73.1118
-72.7723
-72.4108
-72.0367
-71.6606
-71.2905
-70.9285
-70.5751
-70.232
-69.9014
-69.584
-69.2805
-68.9915
-68.7165
-70.0794
-72.6364
-73.0816
-73.0375
-72.8017
-72.4998
-72.1691
-71.8203
-71.4646
-71.1116
-70.7661
-70.4298
-70.1042
-69.7914
-69.49
-69.2022
-68.9247
-68.6595
-74.6564
-73.4091
-73.1447
-72.9491
-72.6833
-72.3849
-72.063
-71.7271
-71.387
-71.0459
-70.7087
-70.3789
-70.0587
-69.7516
-69.4544
-69.1668
-68.8909
-68.6263
-71.4875
-73.2784
-73.2013
-72.9217
-72.6059
-72.284
-71.9504
-71.609
-71.2723
-70.9369
-70.615
-70.2977
-69.9888
-69.6867
-69.3958
-69.1131
-68.8407
-68.5793
-78.0555
-74.3708
-73.3901
-72.9385
-72.5964
-72.2679
-71.9277
-71.5843
-71.2415
-70.9206
-70.5929
-70.273
-69.9607
-69.6569
-69.3638
-69.0816
-68.8096
-68.5478
-75.6973
-74.0803
-73.3423
-72.9148
-72.5392
-72.185
-71.8371
-71.5054
-71.1809
-70.8593
-70.5394
-70.2236
-69.9158
-69.616
-69.325
-69.0435
-68.7716
-68.5095
-73.0864
-73.4572
-73.177
-72.8742
-72.5354
-72.1822
-71.8301
-71.4927
-71.168
-70.8445
-70.5238
-70.2069
-69.8978
-69.5973
-69.3052
-69.0221
-68.7483
-68.4844
-72.5632
-73.1722
-73.0733
-72.8173
-72.4724
-72.1159
-71.7701
-71.4452
-71.1307
-70.8127
-70.4953
-70.1812
-69.8738
-69.5739
-69.2813
-68.9966
-68.7208
-68.4549
-73.1026
-73.1187
-73.0651
-72.8112
-72.4587
-72.1081
-71.7814
-71.4462
-71.1235
-70.8035
-70.4855
-70.1719
-69.8643
-69.5633
-69.2688
-68.9816
-68.7029
-68.4341
-73.6255
-73.0546
-73.0392
-72.7796
-72.412
-72.0717
-71.7495
-71.4255
-71.1054
-70.7874
-70.4718
-70.1599
-69.8528
-69.5508
-69.2543
-68.9645
-68.6832
-68.4117
-72.477
-73.0264
-73.0766
-72.7623
-72.3998
-72.0699
-71.7492
-71.423
-71.1002
-70.7821
-70.4678
-70.1568
-69.8491
-69.5453
-69.2462
-68.9533
-68.6689
-68.3942
-71.5314
-72.9622
-73.0797
-72.7357
-72.3853
-72.0641
-71.7416
-71.412
-71.0878
-70.7716
-70.4608
-70.1529
-69.8469
-69.5428
-69.2422
-68.9473
-68.6604
-68.3831
-62.9895
-62.9914
-62.995
-63.0006
-63.0081
-63.0175
-63.0288
-63.0417
-63.0563
-63.0721
-63.0891
-63.1066
-63.1242
-63.1412
-63.1566
-63.1693
-63.1778
-63.1804
-63.1753
-63.1603
-63.1329
-63.0906
-63.0308
-62.9506
-62.8477
-62.7194
-62.5639
-62.3794
-62.1645
-61.9183
-61.6406
-61.3327
-60.9966
-60.6348
-60.2504
-59.847
-59.4284
-58.9987
-58.5619
-58.122
-57.6825
-57.2468
-56.8179
-56.3982
-55.9896
-55.5937
-55.2117
-54.8443
-54.4916
-54.1546
-53.8319
-53.5234
-53.2284
-52.9463
-52.6763
-52.4173
-52.1686
-51.9292
-51.6982
-51.4748
-51.258
-51.047
-50.8412
-50.6397
-50.442
-50.2475
-50.0555
-49.8656
-49.6773
-49.4902
-49.3039
-49.1181
-48.9324
-48.7466
-48.5604
-48.3737
-48.1862
-47.9977
-47.8081
-47.6172
-47.425
-47.2313
-47.036
-46.8391
-46.6405
-46.44
-46.2377
-46.0335
-45.8274
-45.6193
-45.4092
-45.1971
-44.9829
-44.7666
-44.5483
-44.3279
-44.1053
-43.8806
-43.6538
-43.4248
-43.1936
-42.9603
-42.7249
-42.4872
-42.2474
-42.0053
-41.761
-41.5146
-41.266
-41.0151
-40.7621
-40.5068
-40.2493
-39.9897
-39.7277
-39.4636
-39.1972
-38.9286
-38.6576
-38.3845
-38.109
-37.8313
-37.5512
-37.2689
-36.9842
-36.6972
-36.4079
-36.1162
-35.8221
-35.5257
-35.2268
-34.9256
-34.622
-34.3159
-34.0075
-33.6965
-33.3831
-33.0673
-32.7489
-32.4281
-32.1047
-31.7788
-31.4504
-31.1194
-30.7858
-30.4496
-30.1108
-29.7693
-29.4251
-29.0783
-28.7287
-28.3764
-28.0213
-27.6635
-27.3028
-26.9393
-26.573
-26.2037
-25.8315
-25.4564
-25.0783
-24.6972
-24.313
-23.9256
-23.5351
-23.1413
-22.7441
-22.3435
-21.9393
-21.5312
-21.1192
-20.7027
-20.2816
-19.8546
-19.4219
-18.9803
-18.5302
-18.0629
-17.5798
-17.0586
-62.9972
-62.9992
-63.0038
-63.0108
-63.0202
-63.0319
-63.0458
-63.0619
-63.0798
-63.0994
-63.1202
-63.1417
-63.1635
-63.1847
-63.2043
-63.2214
-63.2345
-63.2418
-63.2415
-63.2313
-63.2086
-63.1707
-63.1148
-63.0379
-62.9373
-62.8104
-62.6549
-62.469
-62.2517
-62.0022
-61.7212
-61.4097
-61.0693
-60.7028
-60.3134
-59.9046
-59.4806
-59.0455
-58.6036
-58.1587
-57.7147
-57.2749
-56.8424
-56.4194
-56.008
-55.6098
-55.2258
-54.8567
-54.5029
-54.1645
-53.8409
-53.5316
-53.2361
-52.9534
-52.6829
-52.4236
-52.1746
-51.935
-51.7037
-51.48
-51.263
-51.0519
-50.8458
-50.6442
-50.4464
-50.2516
-50.0595
-49.8694
-49.681
-49.4937
-49.3073
-49.1213
-48.9355
-48.7496
-48.5633
-48.3764
-48.1888
-48.0002
-47.8104
-47.6195
-47.4272
-47.2334
-47.038
-46.841
-46.6422
-46.4417
-46.2393
-46.035
-45.8288
-45.6206
-45.4105
-45.1983
-44.984
-44.7677
-44.5493
-44.3288
-44.1062
-43.8814
-43.6546
-43.4255
-43.1943
-42.961
-42.7255
-42.4878
-42.2479
-42.0058
-41.7616
-41.5151
-41.2664
-41.0156
-40.7625
-40.5072
-40.2497
-39.99
-39.7281
-39.4639
-39.1975
-38.9288
-38.6579
-38.3847
-38.1092
-37.8315
-37.5514
-37.269
-36.9844
-36.6974
-36.408
-36.1163
-35.8222
-35.5258
-35.2269
-34.9257
-34.6221
-34.316
-34.0076
-33.6966
-33.3832
-33.0674
-32.749
-32.4282
-32.1048
-31.7789
-31.4505
-31.1195
-30.7859
-30.4497
-30.1108
-29.7694
-29.4252
-29.0783
-28.7288
-28.3765
-28.0214
-27.6635
-27.3029
-26.9394
-26.573
-26.2038
-25.8316
-25.4565
-25.0784
-24.6973
-24.3131
-23.9258
-23.5352
-23.1415
-22.7443
-22.3438
-21.9396
-21.5316
-21.1197
-20.7034
-20.2824
-19.856
-19.4236
-18.9835
-18.5341
-18.0734
-17.5977
-17.1178
-63.0548
-63.0569
-63.062
-63.0699
-63.0805
-63.0937
-63.1094
-63.1277
-63.1482
-63.1708
-63.1952
-63.2209
-63.2475
-63.2741
-63.2998
-63.3234
-63.3434
-63.358
-63.3653
-63.3629
-63.3481
-63.3179
-63.2693
-63.1991
-63.1043
-62.9821
-62.8299
-62.6458
-62.4284
-62.1766
-61.8909
-61.5726
-61.2238
-60.8477
-60.4476
-60.0278
-59.5924
-59.1461
-58.6933
-58.2382
-57.7847
-57.3362
-56.8959
-56.4662
-56.0489
-55.6457
-55.2575
-54.8849
-54.5283
-54.1875
-53.8619
-53.551
-53.254
-52.9702
-52.6987
-52.4386
-52.1888
-51.9485
-51.7166
-51.4923
-51.2748
-51.0631
-50.8566
-50.6545
-50.4562
-50.261
-50.0684
-49.878
-49.6891
-49.5015
-49.3146
-49.1283
-48.9421
-48.7559
-48.5692
-48.3821
-48.1941
-48.0052
-47.8152
-47.624
-47.4314
-47.2374
-47.0417
-46.8445
-46.6455
-46.4448
-46.2422
-46.0378
-45.8314
-45.6231
-45.4127
-45.2004
-44.986
-44.7696
-44.551
-44.3304
-44.1077
-43.8828
-43.6559
-43.4267
-43.1955
-42.962
-42.7264
-42.4887
-42.2487
-42.0066
-41.7623
-41.5157
-41.267
-41.0161
-40.763
-40.5077
-40.2501
-39.9904
-39.7284
-39.4642
-39.1977
-38.929
-38.6581
-38.3849
-38.1094
-37.8316
-37.5515
-37.2692
-36.9845
-36.6974
-36.4081
-36.1164
-35.8223
-35.5258
-35.227
-34.9258
-34.6221
-34.3161
-34.0076
-33.6966
-33.3832
-33.0674
-32.749
-32.4282
-32.1048
-31.7789
-31.4505
-31.1195
-30.7859
-30.4497
-30.1108
-29.7694
-29.4252
-29.0783
-28.7288
-28.3765
-28.0214
-27.6636
-27.3029
-26.9394
-26.5731
-26.2038
-25.8317
-25.4566
-25.0785
-24.6974
-24.3132
-23.9259
-23.5354
-23.1417
-22.7446
-22.3441
-21.94
-21.5322
-21.1204
-20.7044
-20.2838
-19.8581
-19.4263
-18.9882
-18.5415
-18.0876
-17.6226
-17.1632
-63.145
-63.1474
-63.1532
-63.1621
-63.1741
-63.1892
-63.2075
-63.2287
-63.2529
-63.2799
-63.3094
-63.3412
-63.3748
-63.4093
-63.444
-63.4777
-63.5088
-63.5354
-63.5555
-63.5664
-63.565
-63.5482
-63.5123
-63.4537
-63.3688
-63.2542
-63.107
-62.9248
-62.7062
-62.4499
-62.1566
-61.8278
-61.466
-61.0746
-60.6579
-60.2204
-59.7671
-59.303
-58.8331
-58.3617
-57.8933
-57.4314
-56.979
-56.5387
-56.1124
-55.7014
-55.3066
-54.9286
-54.5679
-54.2233
-53.8945
-53.5809
-53.2817
-52.9961
-52.723
-52.4615
-52.2104
-51.969
-51.7361
-51.5109
-51.2924
-51.0799
-50.8726
-50.6697
-50.4706
-50.2747
-50.0815
-49.8903
-49.7008
-49.5125
-49.3251
-49.1382
-48.9515
-48.7647
-48.5776
-48.3899
-48.2015
-48.0122
-47.8218
-47.6302
-47.4372
-47.2428
-47.0469
-46.8493
-46.65
-46.449
-46.2462
-46.0415
-45.8349
-45.6263
-45.4158
-45.2032
-44.9887
-44.772
-44.5533
-44.3326
-44.1097
-43.8847
-43.6576
-43.4284
-43.197
-42.9634
-42.7277
-42.4899
-42.2498
-42.0076
-41.7632
-41.5166
-41.2678
-41.0169
-40.7637
-40.5083
-40.2507
-39.9909
-39.7289
-39.4646
-39.1981
-38.9294
-38.6584
-38.3852
-38.1096
-37.8319
-37.5518
-37.2694
-36.9846
-36.6976
-36.4082
-36.1165
-35.8224
-35.5259
-35.2271
-34.9258
-34.6222
-34.3161
-34.0076
-33.6967
-33.3833
-33.0674
-32.749
-32.4282
-32.1048
-31.7789
-31.4505
-31.1195
-30.7859
-30.4497
-30.1109
-29.7694
-29.4252
-29.0784
-28.7288
-28.3765
-28.0214
-27.6636
-27.3029
-26.9395
-26.5731
-26.2039
-25.8317
-25.4567
-25.0786
-24.6975
-24.3133
-23.9261
-23.5356
-23.142
-22.745
-22.3446
-21.9406
-21.533
-21.1214
-20.7058
-20.2856
-19.8607
-19.4301
-18.9939
-18.5505
-18.1021
-17.6466
-17.2
-63.2663
-63.269
-63.2755
-63.2856
-63.2993
-63.3168
-63.3382
-63.3634
-63.3925
-63.4255
-63.4622
-63.5024
-63.5457
-63.5916
-63.6392
-63.6873
-63.7346
-63.7789
-63.8179
-63.8488
-63.868
-63.8718
-63.8557
-63.8154
-63.7464
-63.6444
-63.5059
-63.328
-63.1087
-62.8464
-62.5418
-62.1972
-61.8156
-61.4015
-60.9598
-60.4961
-60.0163
-59.526
-59.0309
-58.5361
-58.0461
-57.5647
-57.0951
-56.6398
-56.2005
-55.7785
-55.3743
-54.9878
-54.6236
-54.2729
-53.9395
-53.6222
-53.3199
-53.0317
-52.7563
-52.4928
-52.2401
-51.997
-51.7627
-51.5361
-51.3164
-51.1027
-50.8942
-50.6903
-50.4901
-50.2932
-50.099
-49.9069
-49.7165
-49.5274
-49.3392
-49.1515
-48.964
-48.7765
-48.5887
-48.4004
-48.2113
-48.0214
-47.8305
-47.6383
-47.4449
-47.25
-47.0536
-46.8556
-46.6559
-46.4545
-46.2514
-46.0463
-45.8394
-45.6305
-45.4197
-45.2069
-44.9921
-44.7752
-44.5563
-44.3353
-44.1123
-43.8871
-43.6598
-43.4304
-43.1989
-42.9652
-42.7294
-42.4914
-42.2512
-42.0089
-41.7644
-41.5177
-41.2688
-41.0178
-40.7645
-40.5091
-40.2514
-39.9915
-39.7294
-39.4651
-39.1986
-38.9298
-38.6588
-38.3855
-38.1099
-37.8321
-37.552
-37.2696
-36.9848
-36.6978
-36.4083
-36.1166
-35.8225
-35.526
-35.2271
-34.9259
-34.6222
-34.3161
-34.0076
-33.6967
-33.3833
-33.0674
-32.749
-32.4282
-32.1048
-31.7789
-31.4505
-31.1195
-30.7859
-30.4497
-30.1109
-29.7694
-29.4252
-29.0784
-28.7288
-28.3765
-28.0215
-27.6636
-27.303
-26.9395
-26.5732
-26.2039
-25.8318
-25.4567
-25.0787
-24.6976
-24.3135
-23.9263
-23.5359
-23.1423
-22.7454
-22.3451
-21.9413
-21.5339
-21.1227
-20.7074
-20.2878
-19.8638
-19.4345
-19.0003
-18.5602
-18.1167
-17.6693
-17.2313
-63.4148
-63.4178
-63.4254
-63.4372
-63.4534
-63.4742
-63.4996
-63.5301
-63.5657
-63.6066
-63.6528
-63.7043
-63.761
-63.8224
-63.8878
-63.9562
-64.0262
-64.0958
-64.1623
-64.2225
-64.2723
-64.307
-64.3212
-64.3093
-64.2652
-64.1835
-64.0591
-63.8883
-63.6685
-63.3975
-63.0768
-62.7093
-62.2992
-61.8521
-61.3744
-60.8731
-60.3552
-59.8277
-59.2972
-58.7693
-58.2493
-57.7411
-57.248
-56.7724
-56.3158
-55.8793
-55.4632
-55.0676
-54.6928
-54.336
-53.9971
-53.6751
-53.3688
-53.0772
-52.7989
-52.5328
-52.2777
-52.0326
-51.7963
-51.568
-51.3466
-51.1313
-50.9214
-50.716
-50.5145
-50.3163
-50.1208
-49.9276
-49.736
-49.5458
-49.3565
-49.1678
-48.9794
-48.791
-48.6023
-48.4132
-48.2234
-48.0327
-47.8411
-47.6482
-47.4542
-47.2587
-47.0618
-46.8632
-46.6631
-46.4612
-46.2576
-46.0521
-45.8448
-45.6356
-45.4244
-45.2113
-44.9962
-44.779
-44.5599
-44.3386
-44.1153
-43.8899
-43.6625
-43.4329
-43.2011
-42.9673
-42.7313
-42.4932
-42.2529
-42.0104
-41.7658
-41.519
-41.27
-41.0189
-40.7655
-40.51
-40.2522
-39.9923
-39.7301
-39.4658
-39.1992
-38.9303
-38.6592
-38.3859
-38.1103
-37.8324
-37.5523
-37.2698
-36.985
-36.6979
-36.4085
-36.1167
-35.8226
-35.5261
-35.2272
-34.9259
-34.6223
-34.3162
-34.0077
-33.6967
-33.3833
-33.0674
-32.749
-32.4282
-32.1048
-31.7789
-31.4505
-31.1195
-30.7859
-30.4497
-30.1109
-29.7694
-29.4252
-29.0784
-28.7288
-28.3765
-28.0215
-27.6636
-27.303
-26.9395
-26.5732
-26.204
-25.8319
-25.4568
-25.0788
-24.6978
-24.3137
-23.9265
-23.5362
-23.1427
-22.7459
-22.3458
-21.9421
-21.535
-21.1241
-20.7093
-20.2904
-19.8672
-19.4393
-19.0072
-18.5703
-18.1311
-17.6902
-17.2575
-63.5852
-63.5889
-63.598
-63.612
-63.6314
-63.6564
-63.6874
-63.7247
-63.7688
-63.82
-63.8786
-63.9451
-64.0195
-64.1016
-64.1912
-64.2874
-64.3891
-64.4942
-64.6001
-64.7031
-64.7983
-64.8798
-64.9405
-64.9725
-64.9677
-64.918
-64.8164
-64.6576
-64.438
-64.1556
-63.8119
-63.411
-62.959
-62.4637
-61.9338
-61.3784
-60.8065
-60.2266
-59.6466
-59.0732
-58.5121
-57.9676
-57.443
-56.9405
-56.4612
-56.0057
-55.5739
-55.1662
-54.7802
-54.4147
-54.0685
-53.7405
-53.4292
-53.1332
-52.8511
-52.5817
-52.3237
-52.0759
-51.8372
-51.6066
-51.3832
-51.1659
-50.9541
-50.7469
-50.5438
-50.344
-50.1469
-49.9522
-49.7593
-49.5677
-49.3772
-49.1873
-48.9977
-48.8082
-48.6185
-48.4284
-48.2376
-48.0461
-47.8536
-47.66
-47.4651
-47.269
-47.0714
-46.8722
-46.6715
-46.4691
-46.2649
-46.059
-45.8512
-45.6415
-45.43
-45.2165
-45.001
-44.7835
-44.564
-44.3425
-44.1189
-43.8933
-43.6655
-43.4357
-43.2038
-42.9697
-42.7336
-42.4952
-42.2548
-42.0122
-41.7674
-41.5205
-41.2714
-41.0201
-40.7666
-40.511
-40.2532
-39.9931
-39.7309
-39.4665
-39.1998
-38.9309
-38.6598
-38.3864
-38.1107
-37.8328
-37.5526
-37.2701
-36.9853
-36.6982
-36.4087
-36.1169
-35.8227
-35.5262
-35.2273
-34.926
-34.6223
-34.3162
-34.0077
-33.6967
-33.3833
-33.0674
-32.749
-32.4282
-32.1048
-31.7789
-31.4505
-31.1195
-30.7859
-30.4497
-30.1109
-29.7694
-29.4252
-29.0784
-28.7288
-28.3765
-28.0215
-27.6636
-27.303
-26.9396
-26.5732
-26.204
-25.832
-25.4569
-25.0789
-24.6979
-24.3139
-23.9268
-23.5365
-23.1431
-22.7465
-22.3465
-21.9431
-21.5362
-21.1256
-20.7114
-20.2932
-19.871
-19.4445
-19.0143
-18.5804
-18.1448
-17.709
-17.2798
-63.7719
-63.7765
-63.7876
-63.8047
-63.8282
-63.8586
-63.8964
-63.9422
-63.9968
-64.0608
-64.135
-64.2204
-64.3174
-64.4267
-64.5484
-64.6824
-64.8279
-64.9832
-65.1456
-65.3112
-65.474
-65.6266
-65.7592
-65.8606
-65.9187
-65.9216
-65.8585
-65.7209
-65.5032
-65.2025
-64.8219
-64.3689
-63.8536
-63.2871
-62.6816
-62.0487
-61.4002
-60.7468
-60.0981
-59.4623
-58.8456
-58.2526
-57.6864
-57.1486
-56.6399
-56.1597
-55.7069
-55.2872
-54.8866
-54.5098
-54.1545
-53.819
-53.5013
-53.2
-52.9133
-52.6398
-52.3782
-52.1271
-51.8854
-51.6521
-51.426
-51.2063
-50.9923
-50.783
-50.5778
-50.3761
-50.1772
-49.9808
-49.7862
-49.5931
-49.401
-49.2097
-49.0188
-48.828
-48.6371
-48.4458
-48.254
-48.0614
-47.8679
-47.6734
-47.4777
-47.2807
-47.0824
-46.8825
-46.6811
-46.478
-46.2733
-46.0668
-45.8585
-45.6483
-45.4363
-45.2223
-45.0064
-44.7886
-44.5687
-44.3469
-44.123
-43.897
-43.669
-43.439
-43.2068
-42.9725
-42.7361
-42.4976
-42.2569
-42.0142
-41.7692
-41.5221
-41.2729
-41.0215
-40.7679
-40.5122
-40.2542
-39.9941
-39.7318
-39.4673
-39.2005
-38.9315
-38.6603
-38.3869
-38.1112
-37.8332
-37.553
-37.2704
-36.9856
-36.6984
-36.4089
-36.1171
-35.8229
-35.5263
-35.2274
-34.9261
-34.6224
-34.3162
-34.0077
-33.6967
-33.3833
-33.0674
-32.749
-32.4282
-32.1048
-31.7789
-31.4505
-31.1195
-30.7859
-30.4497
-30.1109
-29.7694
-29.4252
-29.0784
-28.7288
-28.3765
-28.0215
-27.6637
-27.303
-26.9396
-26.5733
-26.2041
-25.832
-25.457
-25.0791
-24.6981
-24.3141
-23.9271
-23.5369
-23.1436
-22.7471
-22.3473
-21.9441
-21.5375
-21.1274
-20.7136
-20.2961
-19.8749
-19.4499
-19.0216
-18.5902
-18.1577
-17.7257
-17.2992
-63.9663
-63.9721
-63.9857
-64.0063
-64.0346
-64.0714
-64.1173
-64.1735
-64.2409
-64.321
-64.4148
-64.5239
-64.6499
-64.7941
-64.9579
-65.1421
-65.3469
-65.5718
-65.8148
-66.0722
-66.3372
-66.5997
-66.8457
-67.0582
-67.2178
-67.3049
-67.3014
-67.1936
-66.9737
-66.6425
-66.2064
-65.6766
-65.0674
-64.3956
-63.6785
-62.9328
-62.1742
-61.4166
-60.6722
-59.9509
-59.2597
-58.603
-57.9831
-57.4006
-56.855
-56.3452
-55.8697
-55.4267
-55.0111
-54.6215
-54.2555
-53.911
-53.5858
-53.278
-52.9857
-52.7072
-52.4412
-52.1862
-51.9409
-51.7042
-51.4751
-51.2526
-51.0358
-50.824
-50.6165
-50.4125
-50.2116
-50.0131
-49.8166
-49.6217
-49.4279
-49.235
-49.0425
-48.8503
-48.658
-48.4654
-48.2723
-48.0786
-47.884
-47.6885
-47.4918
-47.2939
-47.0947
-46.894
-46.6918
-46.4881
-46.2826
-46.0755
-45.8666
-45.6559
-45.4433
-45.2289
-45.0125
-44.7943
-44.574
-44.3518
-44.1275
-43.9013
-43.6729
-43.4426
-43.2101
-42.9756
-42.739
-42.5002
-42.2594
-42.0164
-41.7713
-41.524
-41.2746
-41.0231
-40.7693
-40.5135
-40.2554
-39.9952
-39.7328
-39.4681
-39.2013
-38.9323
-38.661
-38.3875
-38.1117
-37.8337
-37.5534
-37.2708
-36.9859
-36.6986
-36.4091
-36.1172
-35.823
-35.5264
-35.2275
-34.9261
-34.6224
-34.3163
-34.0077
-33.6967
-33.3833
-33.0674
-32.749
-32.4282
-32.1048
-31.7789
-31.4505
-31.1195
-30.7859
-30.4497
-30.1109
-29.7694
-29.4252
-29.0784
-28.7288
-28.3765
-28.0215
-27.6637
-27.303
-26.9396
-26.5733
-26.2042
-25.8321
-25.4571
-25.0792
-24.6983
-24.3144
-23.9274
-23.5373
-23.1441
-22.7477
-22.3481
-21.9452
-21.5389
-21.1292
-20.716
-20.2992
-19.879
-19.4553
-19.0287
-18.5996
-18.1697
-17.7407
-17.316
-64.1589
-64.1662
-64.1828
-64.2077
-64.2419
-64.2861
-64.3417
-64.4098
-64.492
-64.5902
-64.7064
-64.8434
-65.0042
-65.1916
-65.4088
-65.6585
-65.9434
-66.2654
-66.6245
-67.0173
-67.4356
-67.8653
-68.2854
-68.6688
-68.9843
-69.2006
-69.2897
-69.2317
-69.0149
-68.642
-68.118
-67.4626
-66.7042
-65.8725
-64.9932
-64.087
-63.1727
-62.268
-61.3895
-60.5502
-59.7588
-59.0189
-58.3314
-57.6943
-57.105
-56.5602
-56.0576
-55.5903
-55.1557
-54.7506
-54.3719
-54.0168
-53.6827
-53.3672
-53.0683
-52.784
-52.5128
-52.2531
-52.0035
-51.763
-51.5303
-51.3045
-51.0846
-50.8699
-50.6597
-50.4531
-50.2498
-50.049
-49.8504
-49.6534
-49.4578
-49.263
-49.0688
-48.8749
-48.6811
-48.4871
-48.2926
-48.0976
-47.9018
-47.7051
-47.5074
-47.3085
-47.1083
-46.9067
-46.7037
-46.4991
-46.2929
-46.0851
-45.8755
-45.6642
-45.4511
-45.2361
-45.0193
-44.8005
-44.5798
-44.3572
-44.1325
-43.9059
-43.6772
-43.4465
-43.2138
-42.979
-42.7421
-42.5031
-42.262
-42.0188
-41.7735
-41.526
-41.2765
-41.0248
-40.7709
-40.5149
-40.2567
-39.9963
-39.7338
-39.4691
-39.2022
-38.933
-38.6617
-38.3881
-38.1123
-37.8342
-37.5538
-37.2711
-36.9862
-36.6989
-36.4093
-36.1174
-35.8232
-35.5266
-35.2276
-34.9262
-34.6225
-34.3163
-34.0077
-33.6967
-33.3833
-33.0674
-32.749
-32.4282
-32.1048
-31.7789
-31.4505
-31.1195
-30.7859
-30.4497
-30.1108
-29.7694
-29.4252
-29.0784
-28.7288
-28.3765
-28.0215
-27.6637
-27.3031
-26.9396
-26.5734
-26.2042
-25.8322
-25.4572
-25.0793
-24.6985
-24.3146
-23.9277
-23.5377
-23.1446
-22.7484
-22.349
-21.9463
-21.5403
-21.131
-20.7184
-20.3024
-19.8831
-19.4607
-19.0356
-18.6086
-18.1808
-17.754
-17.3307
-64.3372
-64.3465
-64.3669
-64.3965
-64.4371
-64.4896
-64.5555
-64.6366
-64.7349
-64.8534
-64.9957
-65.1656
-65.3677
-65.6067
-65.8886
-66.2207
-66.6105
-67.0643
-67.5851
-68.1693
-68.8058
-69.4741
-70.1435
-70.7722
-71.3117
-71.7143
-71.9378
-71.949
-71.727
-71.2588
-70.5727
-69.7134
-68.7359
-67.6906
-66.6096
-65.5128
-64.4142
-63.3281
-62.2751
-61.2768
-60.3492
-59.4988
-58.7247
-58.0216
-57.3825
-56.8015
-56.2669
-55.7744
-55.319
-54.8967
-54.5036
-54.1363
-53.7919
-53.4675
-53.1609
-52.8699
-52.5926
-52.3275
-52.0731
-51.8281
-51.5913
-51.3617
-51.1384
-50.9204
-50.7071
-50.4977
-50.2917
-50.0884
-49.8874
-49.6882
-49.4903
-49.2936
-49.0975
-48.9018
-48.7063
-48.5107
-48.3147
-48.1183
-47.9212
-47.7232
-47.5243
-47.3243
-47.123
-46.9205
-46.7165
-46.5111
-46.3041
-46.0955
-45.8852
-45.6732
-45.4595
-45.2439
-45.0265
-44.8073
-44.5861
-44.363
-44.1379
-43.9109
-43.6819
-43.4508
-43.2177
-42.9826
-42.7454
-42.5062
-42.2648
-42.0214
-41.7759
-41.5282
-41.2785
-41.0266
-40.7726
-40.5164
-40.2581
-39.9976
-39.735
-39.4701
-39.2031
-38.9339
-38.6624
-38.3888
-38.1129
-37.8347
-37.5543
-37.2715
-36.9865
-36.6992
-36.4096
-36.1176
-35.8233
-35.5267
-35.2277
-34.9263
-34.6225
-34.3163
-34.0078
-33.6968
-33.3833
-33.0674
-32.749
-32.4282
-32.1048
-31.7789
-31.4505
-31.1195
-30.7859
-30.4497
-30.1108
-29.7693
-29.4252
-29.0783
-28.7288
-28.3765
-28.0215
-27.6637
-27.3031
-26.9396
-26.5734
-26.2043
-25.8323
-25.4573
-25.0795
-24.6987
-24.3149
-23.928
-23.5381
-23.1452
-22.7491
-22.3499
-21.9474
-21.5418
-21.1329
-20.7208
-20.3055
-19.8872
-19.4659
-19.0423
-18.6169
-18.1909
-17.7658
-17.3437
-64.4881
-64.5001
-64.525
-64.5596
-64.607
-64.6679
-64.7444
-64.8387
-64.9539
-65.0941
-65.2642
-65.4692
-65.7155
-66.0116
-66.3695
-66.804
-67.329
-67.9549
-68.6855
-69.515
-70.427
-71.3941
-72.3768
-73.3256
-74.1745
-74.8412
-75.2459
-75.3283
-75.0573
-74.4347
-73.5052
-72.3446
-71.0438
-69.6942
-68.3664
-67.0795
-65.8164
-64.5611
-63.3249
-62.1402
-61.0406
-60.0461
-59.1599
-58.3751
-57.6791
-57.0549
-56.4894
-55.9726
-55.4971
-55.0573
-54.649
-54.2685
-53.9126
-53.5783
-53.263
-52.9643
-52.6803
-52.4091
-52.1492
-51.8992
-51.6578
-51.424
-51.1968
-50.9752
-50.7585
-50.546
-50.337
-50.1309
-49.9273
-49.7256
-49.5255
-49.3265
-49.1284
-48.9308
-48.7334
-48.5361
-48.3385
-48.1405
-47.942
-47.7427
-47.5425
-47.3412
-47.1389
-46.9352
-46.7303
-46.5239
-46.3161
-46.1067
-45.8956
-45.6829
-45.4685
-45.2523
-45.0343
-44.8145
-44.5928
-44.3692
-44.1437
-43.9163
-43.6868
-43.4554
-43.222
-42.9865
-42.749
-42.5095
-42.2679
-42.0242
-41.7784
-41.5306
-41.2806
-41.0286
-40.7744
-40.518
-40.2596
-39.9989
-39.7362
-39.4712
-39.2041
-38.9348
-38.6632
-38.3895
-38.1135
-37.8352
-37.5547
-37.272
-36.9869
-36.6995
-36.4098
-36.1178
-35.8235
-35.5268
-35.2278
-34.9264
-34.6226
-34.3164
-34.0078
-33.6968
-33.3833
-33.0674
-32.749
-32.4282
-32.1048
-31.7789
-31.4505
-31.1195
-30.7859
-30.4496
-30.1108
-29.7693
-29.4252
-29.0783
-28.7288
-28.3765
-28.0215
-27.6637
-27.3031
-26.9397
-26.5734
-26.2043
-25.8323
-25.4574
-25.0796
-24.6989
-24.3151
-23.9284
-23.5386
-23.1457
-22.7498
-22.3508
-21.9486
-21.5433
-21.1348
-20.7233
-20.3086
-19.8911
-19.471
-19.0486
-18.6247
-18.2002
-17.7764
-17.355
-64.5992
-64.6152
-64.6452
-64.6852
-64.7398
-64.8088
-64.895
-65.0014
-65.132
-65.2922
-65.4881
-65.7263
-66.0168
-66.3739
-66.8176
-67.3707
-68.0514
-68.8709
-69.8304
-70.9225
-72.1354
-73.4536
-74.8506
-76.2705
-77.6159
-78.7445
-79.492
-79.7383
-79.4339
-78.626
-77.3461
-75.7049
-73.8594
-71.9763
-70.1967
-68.6006
-67.1655
-65.7994
-64.4375
-63.0876
-61.8071
-60.65
-59.6335
-58.752
-57.9854
-57.3125
-56.7145
-56.1751
-55.6821
-55.2271
-54.8047
-54.4112
-54.0433
-53.6983
-53.3735
-53.0664
-52.7749
-52.497
-52.2311
-51.9756
-51.7292
-51.4909
-51.2594
-51.0339
-50.8136
-50.5976
-50.3854
-50.1764
-49.9699
-49.7656
-49.563
-49.3617
-49.1613
-48.9616
-48.7623
-48.5631
-48.3638
-48.1642
-47.9641
-47.7633
-47.5618
-47.3593
-47.1557
-46.951
-46.745
-46.5376
-46.3288
-46.1186
-45.9067
-45.6932
-45.4781
-45.2612
-45.0426
-44.8222
-44.6
-44.3759
-44.1499
-43.922
-43.6921
-43.4603
-43.2265
-42.9907
-42.7529
-42.513
-42.2711
-42.0272
-41.7812
-41.5331
-41.2829
-41.0306
-40.7763
-40.5198
-40.2611
-40.0004
-39.7375
-39.4724
-39.2051
-38.9357
-38.6641
-38.3902
-38.1141
-37.8358
-37.5552
-37.2724
-36.9873
-36.6998
-36.4101
-36.1181
-35.8237
-35.527
-35.2279
-34.9264
-34.6226
-34.3164
-34.0078
-33.6968
-33.3833
-33.0674
-32.749
-32.4282
-32.1048
-31.7789
-31.4504
-31.1194
-30.7858
-30.4496
-30.1108
-29.7693
-29.4251
-29.0783
-28.7287
-28.3765
-28.0214
-27.6636
-27.3031
-26.9397
-26.5734
-26.2044
-25.8324
-25.4575
-25.0798
-24.699
-24.3154
-23.9287
-23.539
-23.1463
-22.7505
-22.3517
-21.9498
-21.5448
-21.1367
-20.7257
-20.3117
-19.895
-19.4758
-19.0545
-18.6318
-18.2086
-17.7859
-17.365
-64.662
-64.6835
-64.7196
-64.7669
-64.828
-64.9039
-64.9977
-65.1134
-65.2562
-65.4308
-65.6463
-65.9117
-66.2412
-66.6553
-67.1805
-67.8443
-68.6653
-69.6626
-70.84
-72.2051
-73.7718
-75.5534
-77.5404
-79.6638
-81.7686
-83.6184
-84.9476
-85.556
-85.3427
-84.3075
-82.5253
-80.1743
-77.503
-74.77
-72.2267
-70.0588
-68.3268
-66.8615
-65.436
-63.9857
-62.5563
-61.2561
-60.1162
-59.1367
-58.2958
-57.5696
-56.9357
-56.3734
-55.8652
-55.3985
-54.965
-54.5603
-54.1813
-53.8257
-53.491
-53.175
-52.8755
-52.5904
-52.318
-52.0566
-51.805
-51.5617
-51.3257
-51.096
-50.8718
-50.6522
-50.4366
-50.2244
-50.015
-49.8078
-49.6026
-49.3988
-49.1961
-48.9942
-48.7928
-48.5916
-48.3905
-48.1892
-47.9874
-47.7852
-47.5822
-47.3783
-47.1735
-46.9676
-46.7604
-46.552
-46.3423
-46.1311
-45.9184
-45.7041
-45.4882
-45.2707
-45.0514
-44.8303
-44.6075
-44.3829
-44.1564
-43.928
-43.6977
-43.4654
-43.2312
-42.9951
-42.7569
-42.5167
-42.2745
-42.0303
-41.784
-41.5357
-41.2853
-41.0328
-40.7783
-40.5216
-40.2628
-40.0019
-39.7388
-39.4736
-39.2062
-38.9367
-38.665
-38.391
-38.1148
-37.8364
-37.5558
-37.2728
-36.9876
-36.7002
-36.4104
-36.1183
-35.8239
-35.5271
-35.228
-34.9265
-34.6227
-34.3165
-34.0078
-33.6968
-33.3833
-33.0674
-32.749
-32.4281
-32.1048
-31.7789
-31.4504
-31.1194
-30.7858
-30.4496
-30.1107
-29.7692
-29.4251
-29.0782
-28.7287
-28.3764
-28.0214
-27.6636
-27.303
-26.9397
-26.5734
-26.2044
-25.8325
-25.4576
-25.0799
-24.6992
-24.3156
-23.929
-23.5394
-23.1468
-22.7512
-22.3526
-21.9509
-21.5462
-21.1386
-20.728
-20.3146
-19.8986
-19.4803
-19.06
-18.6384
-18.2162
-17.7943
-17.3738
-64.6764
-64.704
-64.7496
-64.8048
-64.872
-64.9526
-65.0503
-65.1695
-65.3163
-65.4976
-65.7222
-66.0024
-66.3565
-66.8106
-67.3975
-68.1526
-69.0513
-70.203
-71.5789
-73.2198
-75.1723
-77.4734
-80.1144
-82.9832
-85.8516
-88.3986
-90.2753
-91.2
-91.0566
-89.7991
-87.5387
-84.5154
-81.0865
-77.5634
-74.2043
-71.3578
-69.2356
-67.6338
-66.1782
-64.7007
-63.1988
-61.7923
-60.5518
-59.493
-58.5914
-57.8181
-57.1488
-56.5624
-56.0394
-55.5633
-55.1224
-54.7099
-54.3222
-53.9571
-53.6131
-53.2882
-52.9805
-52.688
-52.4088
-52.1414
-51.8841
-51.6358
-51.3951
-51.161
-50.9328
-50.7094
-50.4903
-50.2747
-50.0621
-49.852
-49.644
-49.4376
-49.2324
-49.0282
-48.8247
-48.6215
-48.4184
-48.2153
-48.0118
-47.8079
-47.6034
-47.3982
-47.192
-46.9849
-46.7766
-46.5671
-46.3563
-46.1442
-45.9306
-45.7155
-45.4988
-45.2805
-45.0605
-44.8388
-44.6154
-44.3902
-44.1632
-43.9343
-43.7035
-43.4708
-43.2362
-42.9996
-42.7611
-42.5206
-42.2781
-42.0336
-41.787
-41.5385
-41.2878
-41.0351
-40.7803
-40.5235
-40.2645
-40.0034
-39.7402
-39.4749
-39.2074
-38.9377
-38.6659
-38.3918
-38.1155
-37.837
-37.5563
-37.2733
-36.988
-36.7005
-36.4107
-36.1185
-35.824
-35.5273
-35.2281
-34.9266
-34.6227
-34.3165
-34.0079
-33.6968
-33.3833
-33.0674
-32.749
-32.4281
-32.1048
-31.7788
-31.4504
-31.1194
-30.7858
-30.4495
-30.1107
-29.7692
-29.425
-29.0782
-28.7287
-28.3764
-28.0214
-27.6636
-27.303
-26.9396
-26.5734
-26.2044
-25.8325
-25.4577
-25.08
-24.6994
-24.3158
-23.9293
-23.5398
-23.1473
-22.7519
-22.3534
-21.952
-21.5476
-21.1403
-20.7302
-20.3174
-19.9021
-19.4845
-19.0651
-18.6444
-18.223
-17.8018
-17.3816
-64.6518
-64.6858
-64.7449
-64.8096
-64.8815
-64.9635
-65.0594
-65.1745
-65.3157
-65.4909
-65.7098
-65.9861
-66.3408
-66.8028
-67.4068
-68.1876
-69.1731
-70.3972
-71.8893
-73.6986
-75.8841
-78.4874
-81.485
-84.7292
-87.946
-90.7876
-92.8861
-93.9392
-93.7973
-92.4065
-89.9194
-86.5857
-82.8194
-78.9983
-75.3314
-72.1567
-69.7618
-68.0784
-66.6398
-65.185
-63.6614
-62.1977
-60.8962
-59.7888
-58.8502
-58.0461
-57.3501
-56.7423
-56.2048
-55.7203
-55.2744
-54.8574
-54.464
-54.0918
-53.7397
-53.4064