/*--------------------------------*- C++ -*----------------------------------*\
  =========                 |
  \\      /  F ield         | OpenFOAM: The Open Source CFD Toolbox
   \\    /   O peration     | Website:  https://openfoam.org
    \\  /    A nd           | Version:  7
     \\/     M anipulation  |
\*---------------------------------------------------------------------------*/
FoamFile
{
    version     2.0;
    format      ascii;
    class       volScalarField;
    location    "0.014";
    object      s;
}
// * * * * * * * * * * * * * * * * * * * * * * * * * * * * * * * * * * * * * //

dimensions      [0 0 0 0 0 0 0];

internalField   nonuniform List<scalar> 
12225
(
1
1
1
1
1
1
1
1
1
1
1
1
1
1
1
1
1
1
1
1
1
1
1
1
1
1
1
1
1
1
1
1
1
1
1
1
1
1
1
1
1
1
1
1
1
1
1
1
1
1
1
1
1
1
1
1
1
1
1
1
1
1
1
1
1
1
1
1
1
1
1
1
1
1
1
1
1
1
1
1
1
1
1
1
1
1
1
1
1
1
1
1
1
1
1
1
1
1
1
1
1
1
1
1
1
1
1
1
1
1
1
1
1
1
1
1
1
1
1
1
1
1
1
1
1
1
1
1
1
1
1
1
1
1
1
1
1
1
1
1
1
1
1
1
1
1
1
1
1
1
1
1
1
1
1
1
1
1
1
1
1
1
1
1
1
1
1
1
1
1
1
1
1
1
1
1
1
1
1
1
1
1
1
1
1
1
1
1
1
1
1
1
1
1
1
1
1
1
1
1
1
1
1
1
1
1
1
1
1
1
1
1
1
1
1
1
1
1
1
1
1
1
1
1
1
1
1
1
1
1
1
1
1
1
1
1
1
1
1
1
1
1
1
1
1
1
1
1
1
1
1
1
1
1
1
1
1
1
1
1
1
1
1
1
1
1
1
1
1
1
1
1
1
1
1
1
1
1
1
1
1
1
1
1
1
1
1
1
1
1
1
1
1
1
1
1
1
1
1
1
1
1
1
1
1
1
1
1
1
1
1
1
1
1
1
1
1
1
1
1
1
1
1
1
1
1
1
1
1
1
1
1
1
1
1
1
1
1
1
1
1
1
1
1
1
1
1
1
1
1
1
1
1
1
1
1
1
1
1
1
1
1
1
1
1
1
1
1
1
1
1
1
1
1
1
1
1
1
1
1
1
1
1
1
1
1
1
1
1
1
1
1
1
1
1
1
1
1
1
1
1
1
1
1
1
1
1
1
1
1
1
1
1
1
1
1
1
1
1
1
1
1
1
1
1
1
1
1
1
1
1
1
1
1
1
1
1
1
1
1
1
1
1
1
1
1
1
1
1
1
1
1
1
1
1
1
1
1
1
1
1
1
1
1
1
1
1
1
1
1
1
1
1
1
1
1
1
1
1
1
1
1
1
1
1
1
1
1
1
1
1
1
1
1
1
1
1
1
1
1
1
1
1
1
1
1
1
1
1
1
1
1
1
1
1
1
1
1
1
1
1
1
1
1
1
1
1
1
1
1
1
1
1
1
1
1
1
1
1
1
1.15475e-28
8.75474e-27
3.03903e-25
6.78624e-24
1.10658e-22
1.40849e-21
1.45775e-20
1.2612e-19
9.30695e-19
5.95026e-18
3.33802e-17
1.66097e-16
7.40115e-16
2.97882e-15
1.09157e-14
3.66933e-14
1.13963e-13
3.29266e-13
8.90787e-13
2.27072e-12
5.48673e-12
1.26373e-11
2.78843e-11
5.91952e-11
1.21368e-10
2.41301e-10
4.66859e-10
8.82137e-10
1.65228e-09
2.72591e-09
3.93836e-09
5.05574e-09
5.81711e-09
6.11794e-09
5.78004e-09
5.02553e-09
4.02259e-09
2.92649e-09
2.00837e-09
1.26317e-09
7.46459e-10
4.11386e-10
2.12884e-10
1.04174e-10
4.81684e-11
2.09562e-11
8.60371e-12
3.34177e-12
1.23998e-12
4.40212e-13
1.50195e-13
4.91633e-14
1.5467e-14
4.68485e-15
1.36837e-15
3.85972e-16
1.05278e-16
2.78019e-17
7.11632e-18
1.76734e-18
4.26256e-19
9.99254e-20
2.27861e-20
5.05773e-21
1.09349e-21
2.30407e-22
4.73406e-23
9.48944e-24
1.85656e-24
3.54666e-25
6.61811e-26
1.20672e-26
2.15066e-27
3.74769e-28
6.38706e-29
1.06486e-29
1.7372e-30
2.7737e-31
4.33526e-32
6.6343e-33
9.94202e-34
1.45922e-34
2.09796e-35
2.95499e-36
4.07799e-37
5.51452e-38
7.30757e-39
9.48997e-40
1.20781e-40
1.50652e-41
1.84155e-42
2.20598e-43
2.58932e-44
2.97766e-45
3.35412e-46
3.69978e-47
3.99504e-48
4.22079e-49
4.36034e-50
4.40121e-51
4.33548e-52
4.16168e-53
3.88571e-54
3.51738e-55
3.0739e-56
2.57704e-57
2.08694e-58
1.66856e-59
1.31712e-60
1.02631e-61
7.89271e-63
5.99014e-64
4.48677e-65
3.31819e-66
2.26926e-67
2.86241e-68
3.56945e-69
4.66798e-70
3.2342e-71
2.21073e-72
1.48954e-73
9.88038e-75
6.07312e-76
6.89743e-77
7.71397e-78
8.98499e-79
5.51583e-80
3.34278e-81
1.98472e-82
1.14335e-83
6.39335e-85
7.19409e-86
8.51618e-87
7.20505e-88
3.20387e-89
1.52235e-90
7.58878e-92
7.81811e-93
8.38109e-94
4.85154e-95
2.34117e-96
1.18435e-97
5.80567e-99
4.40054e-100
3.21897e-101
2.67032e-102
1.87355e-103
8.07316e-105
3.08616e-106
1.28685e-107
1.199e-108
1.10265e-109
4.65092e-111
1.81529e-112
6.85547e-114
3.36231e-115
3.05593e-116
2.55552e-117
1.00328e-118
3.66927e-120
1.29287e-121
4.75595e-123
3.7059e-124
2.96888e-125
1.13621e-126
3.9813e-128
1.31079e-129
4.68152e-131
3.5288e-132
2.63429e-133
9.12969e-135
2.86003e-136
8.41088e-138
3.05072e-139
2.23623e-140
1.44278e-141
4.09341e-143
1.05589e-144
2.70064e-146
1.34784e-147
6.89452e-26
4.51968e-24
1.3676e-22
2.65243e-21
3.75504e-20
4.15905e-19
3.76378e-18
2.86698e-17
1.87865e-16
1.07684e-15
5.47184e-15
2.49228e-14
1.02717e-13
3.86252e-13
1.33516e-12
4.27107e-12
1.27218e-11
3.54842e-11
9.3173e-11
2.31448e-10
5.46393e-10
1.23091e-09
2.65538e-09
5.50074e-09
1.09701e-08
2.11325e-08
3.94499e-08
7.12207e-08
1.25325e-07
1.93624e-07
2.66054e-07
3.29347e-07
3.65562e-07
3.79963e-07
3.53284e-07
3.0535e-07
2.43903e-07
1.78538e-07
1.23253e-07
7.84738e-08
4.6978e-08
2.63055e-08
1.38527e-08
6.88341e-09
3.24585e-09
1.4447e-09
6.07163e-10
2.4169e-10
9.1843e-11
3.35234e-11
1.17295e-11
3.93931e-12
1.27226e-12
3.95822e-13
1.18822e-13
3.44676e-14
9.67472e-15
2.63105e-15
6.94047e-16
1.77779e-16
4.42615e-17
1.07206e-17
2.52823e-18
5.80957e-19
1.30168e-19
2.84561e-20
6.07309e-21
1.26602e-21
2.57922e-22
5.13748e-23
1.00095e-23
1.90829e-24
3.5613e-25
6.50808e-26
1.16498e-26
2.0433e-27
3.51251e-28
5.91956e-29
9.78266e-30
1.5857e-30
2.52161e-31
3.93476e-32
6.026e-33
9.05925e-34
1.33717e-34
1.93814e-35
2.75905e-36
3.85814e-37
5.30034e-38
7.15484e-39
9.49131e-40
1.23748e-40
1.58595e-41
1.99819e-42
2.47528e-43
3.01512e-44
3.6118e-45
4.25525e-46
4.93119e-47
5.62143e-48
6.30447e-49
6.95658e-50
7.55313e-51
8.07001e-52
8.48536e-53
8.78118e-54
8.94429e-55
8.96744e-56
8.85021e-57
8.59867e-58
8.23084e-59
7.77334e-60
7.24288e-61
6.65794e-62
6.03788e-63
5.40181e-64
4.76763e-65
4.15122e-66
3.56582e-67
3.02172e-68
2.52615e-69
2.0834e-70
1.69509e-71
1.36058e-72
1.07736e-73
8.41612e-75
6.48599e-76
4.93128e-77
3.69885e-78
2.73719e-79
1.99839e-80
1.43946e-81
1.023e-82
7.17316e-84
4.96272e-85
3.38774e-86
2.28189e-87
1.51664e-88
9.94685e-90
6.43749e-91
4.11137e-92
2.59125e-93
1.61174e-94
9.89369e-96
5.99391e-97
3.58398e-98
2.11512e-99
1.23206e-100
7.08386e-102
4.02032e-103
2.25226e-104
1.24553e-105
6.79952e-107
3.66442e-108
1.94961e-109
1.02403e-110
5.31022e-112
2.71867e-113
1.37421e-114
6.85822e-116
3.37937e-117
1.64411e-118
7.89762e-120
3.74571e-121
1.75404e-122
8.10962e-124
3.70173e-125
1.66812e-126
7.42055e-128
3.25821e-129
1.41187e-130
6.03651e-132
2.54577e-133
1.05859e-134
4.33716e-136
1.74971e-137
6.93678e-139
2.69935e-140
1.02432e-141
3.65948e-143
3.91539e-24
2.53458e-22
7.64122e-21
1.47516e-19
2.07838e-18
2.29042e-17
2.06179e-16
1.56164e-15
1.01695e-14
5.7885e-14
2.91803e-13
1.317e-12
5.37152e-12
1.99615e-11
6.80911e-11
2.1464e-10
6.29111e-10
1.72416e-09
4.44106e-09
1.08014e-08
2.49107e-08
5.46762e-08
1.14562e-07
2.29691e-07
4.41608e-07
8.16593e-07
1.45664e-06
2.50031e-06
4.15141e-06
6.09221e-06
8.03008e-06
9.6161e-06
1.0398e-05
1.06538e-05
9.80244e-06
8.43881e-06
6.74539e-06
4.97923e-06
3.46582e-06
2.23762e-06
1.35901e-06
7.73825e-07
4.14844e-07
2.09845e-07
1.00714e-07
4.57906e-08
1.96711e-08
8.01131e-09
3.11239e-09
1.16024e-09
4.14528e-10
1.42137e-10
4.68602e-11
1.48798e-11
4.55808e-12
1.34898e-12
3.86247e-13
1.0713e-13
2.88176e-14
7.52604e-15
1.91016e-15
4.71586e-16
1.13345e-16
2.65417e-17
6.05959e-18
1.34967e-18
2.93456e-19
6.23198e-20
1.29329e-20
2.62395e-21
5.2071e-22
1.01109e-22
1.92175e-23
3.57663e-24
6.52017e-25
1.16462e-25
2.0388e-26
3.49902e-27
5.88856e-28
9.72e-29
1.57404e-29
2.50123e-30
3.9009e-31
5.9722e-32
8.97724e-33
1.32516e-33
1.92123e-34
2.73623e-35
3.82869e-36
5.26431e-37
7.11353e-38
9.44808e-39
1.2336e-39
1.58355e-40
1.9988e-41
2.48109e-42
3.029e-43
3.63738e-44
4.29694e-45
4.99408e-46
5.71113e-47
6.42691e-48
7.11767e-49
7.75834e-50
8.32403e-51
8.79165e-52
9.14144e-53
9.35836e-54
9.43324e-55
9.36347e-56
9.153e-57
8.81191e-58
8.36105e-59
7.82593e-60
7.22583e-61
6.5812e-62
5.91262e-63
5.23967e-64
4.58009e-65
3.94899e-66
3.35846e-67
2.81731e-68
2.33116e-69
1.90262e-70
1.53172e-71
1.21635e-72
9.5279e-74
7.36202e-75
5.61135e-76
4.21907e-77
3.12935e-78
2.28975e-79
1.65284e-80
1.17704e-81
8.26953e-83
5.7321e-84
3.92014e-85
2.64519e-86
1.76114e-87
1.15697e-88
7.5e-90
4.79756e-91
3.02841e-92
1.88651e-93
1.15975e-94
7.03637e-96
4.21332e-97
2.49003e-98
1.45247e-99
8.36259e-101
4.75251e-102
2.66604e-103
1.47633e-104
8.07032e-106
4.35509e-107
2.32016e-108
1.22029e-109
6.33638e-111
3.24838e-112
1.64417e-113
8.21654e-115
4.05415e-116
1.97507e-117
9.50032e-119
4.51196e-120
2.11572e-121
9.79495e-123
4.47694e-124
2.02005e-125
8.99726e-127
3.95506e-128
1.71567e-129
7.34159e-131
3.0985e-132
1.28858e-133
5.28017e-135
2.12657e-136
8.42347e-138
3.25927e-139
1.2385e-140
1.6517e-22
1.04949e-20
3.1376e-19
6.00004e-18
8.36691e-17
9.11498e-16
8.09893e-15
6.04386e-14
3.87028e-13
2.16222e-12
1.068e-11
4.71603e-11
1.87966e-10
6.81966e-10
2.26952e-09
6.97571e-09
1.99266e-08
5.31971e-08
1.33381e-07
3.15454e-07
7.0638e-07
1.50232e-06
3.04221e-06
5.87655e-06
1.08467e-05
1.91764e-05
3.25506e-05
5.29143e-05
8.2744e-05
0.000115387
0.000146058
0.000169268
0.000179572
0.000180739
0.00016537
0.000142173
0.000114159
8.52833e-05
6.01095e-05
3.95118e-05
2.44451e-05
1.42097e-05
7.78265e-06
4.02402e-06
1.97062e-06
9.16905e-07
4.03538e-07
1.68441e-07
6.70494e-08
2.55825e-08
9.34797e-09
3.27713e-09
1.10425e-09
3.58251e-10
1.12086e-10
3.38694e-11
9.89826e-12
2.80132e-12
7.68655e-13
2.0471e-13
5.29688e-14
1.33283e-14
3.26416e-15
7.78657e-16
1.81055e-16
4.10629e-17
9.08919e-18
1.96462e-18
4.14891e-19
8.56435e-20
1.72883e-20
3.41413e-21
6.59849e-22
1.24852e-22
2.31354e-23
4.19971e-24
7.47045e-25
1.3025e-25
2.22648e-26
3.73229e-27
6.13685e-28
9.8997e-29
1.56709e-29
2.43468e-30
3.71322e-31
5.56024e-32
8.1761e-33
1.1808e-33
1.67516e-34
2.33479e-35
3.19753e-36
4.30347e-37
5.69268e-38
7.4023e-39
9.46287e-40
1.18943e-40
1.47017e-41
1.78714e-42
2.13678e-43
2.51315e-44
2.90792e-45
3.31051e-46
3.7085e-47
4.08825e-48
4.43559e-49
4.73675e-50
4.97924e-51
5.15275e-52
5.24984e-53
5.26649e-54
5.20238e-55
5.06086e-56
4.84854e-57
4.57812e-58
4.26358e-59
3.91623e-60
3.54782e-61
3.16991e-62
2.79329e-63
2.42755e-64
2.08066e-65
1.75881e-66
1.46631e-67
1.20566e-68
9.77738e-70
7.82036e-71
6.1694e-72
4.80043e-73
3.68423e-74
2.78902e-75
2.0826e-76
1.53398e-77
1.11456e-78
7.98866e-80
5.64859e-81
3.94017e-82
2.71152e-83
1.84098e-84
1.2332e-85
8.15053e-87
5.31515e-88
3.4201e-89
2.17156e-90
1.36059e-91
8.41236e-93
5.13289e-94
3.09082e-95
1.83682e-96
1.07735e-97
6.23673e-99
3.56355e-100
2.00978e-101
1.11883e-102
6.14825e-104
3.33516e-105
1.78597e-106
9.44143e-108
4.9274e-109
2.53877e-110
1.29142e-111
6.48565e-113
3.21582e-114
1.57429e-115
7.60914e-117
3.63112e-118
1.71079e-119
7.9577e-121
3.65428e-122
1.65654e-123
7.41243e-125
3.27338e-126
1.42651e-127
6.13206e-129
2.59993e-130
1.08621e-131
4.47192e-133
1.81005e-134
7.20831e-136
2.80926e-137
1.07633e-138
6.06941e-21
3.70345e-19
1.07626e-17
1.99942e-16
2.70801e-15
2.86322e-14
2.46721e-13
1.78455e-12
1.10716e-11
5.9906e-11
2.86513e-10
1.22501e-09
4.72831e-09
1.6619e-08
5.36039e-08
1.59765e-07
4.427e-07
1.1465e-06
2.78763e-06
6.38756e-06
1.38368e-05
2.84066e-05
5.53732e-05
0.00010263
0.000181096
0.000304809
0.000490083
0.000751028
0.00110238
0.00145937
0.0017722
0.00198791
0.00208221
0.00205322
0.00187631
0.00161657
0.00130952
0.000994129
0.000713129
0.000479644
0.000303846
0.000181144
0.000101816
5.40304e-05
2.7133e-05
1.29407e-05
5.85144e-06
2.50936e-06
1.02579e-06
4.01287e-07
1.50235e-07
5.39313e-08
1.85981e-08
6.17173e-09
1.97409e-09
6.09543e-10
1.81942e-10
5.25681e-11
1.47195e-11
3.99881e-12
1.05507e-12
2.70614e-13
6.75333e-14
1.64108e-14
3.886e-15
8.97284e-16
2.02153e-16
4.44632e-17
9.55253e-18
2.00559e-18
4.11688e-19
8.26559e-20
1.62377e-20
3.12231e-21
5.87857e-22
1.08404e-22
1.95847e-23
3.46747e-24
6.01779e-25
1.02399e-25
1.70879e-26
2.79709e-27
4.49199e-28
7.07898e-29
1.09492e-29
1.66245e-30
2.47825e-31
3.6278e-32
5.21567e-33
7.36567e-34
1.02191e-34
1.39307e-35
1.86617e-36
2.457e-37
3.17975e-38
4.04545e-39
5.06034e-40
6.22419e-41
7.52881e-42
8.95691e-43
1.04816e-43
1.20664e-44
1.36663e-45
1.523e-46
1.67016e-47
1.80249e-48
1.91462e-49
2.00183e-50
2.06037e-51
2.08773e-52
2.08283e-53
2.04607e-54
1.9793e-55
1.88576e-56
1.77164e-57
1.64136e-58
1.49956e-59
1.35096e-60
1.20018e-61
1.05141e-62
9.08295e-64
7.73778e-65
6.50051e-66
5.38549e-67
4.40005e-68
3.54529e-69
2.81719e-70
2.2078e-71
1.70644e-72
1.30084e-73
9.78064e-75
7.25329e-76
5.30565e-77
3.82818e-78
2.72464e-79
1.91294e-80
1.32491e-81
9.05268e-83
6.10221e-84
4.05819e-85
2.66273e-86
1.72381e-87
1.10111e-88
6.94009e-90
4.3163e-91
2.64901e-92
1.60435e-93
9.58888e-95
5.656e-96
3.29258e-97
1.89176e-98
1.07278e-99
6.0046e-101
3.31744e-102
1.80917e-103
9.73925e-105
5.17553e-106
2.71506e-107
1.40608e-108
7.18883e-110
3.62852e-111
1.80814e-112
8.89553e-114
4.32066e-115
2.07188e-116
9.80875e-118
4.5844e-119
2.11524e-120
9.63403e-122
4.33118e-123
1.92165e-124
8.41349e-126
3.63362e-127
1.54786e-128
6.49784e-130
2.68825e-131
1.09396e-132
4.38143e-134
1.72062e-135
6.65032e-137
1.75417e-19
1.01782e-17
2.84679e-16
5.08476e-15
6.62274e-14
6.73776e-13
5.5893e-12
3.89206e-11
2.32445e-10
1.21094e-09
5.57935e-09
2.30007e-08
8.56892e-08
2.91022e-07
9.07967e-07
2.61978e-06
7.03092e-06
1.76365e-05
4.15132e-05
9.1986e-05
0.000192355
0.000380315
0.000711912
0.00126294
0.00212545
0.00339764
0.00516094
0.00743537
0.0102183
0.012844
0.0149675
0.0162768
0.0168401
0.0163419
0.014952
0.0129703
0.0106594
0.00826792
0.00607403
0.00420646
0.00274785
0.00169092
0.000981242
0.000537412
0.000278321
0.000136608
6.36625e-05
2.814e-05
1.18485e-05
4.76483e-06
1.83216e-06
6.74931e-07
2.38648e-07
8.11398e-08
2.65714e-08
8.3942e-09
2.56188e-09
7.56374e-10
2.16299e-10
5.99809e-11
1.61462e-11
4.2233e-12
1.07435e-12
2.66021e-13
6.41633e-14
1.50856e-14
3.45956e-15
7.74318e-16
1.69235e-16
3.61372e-17
7.54238e-18
1.53935e-18
3.07335e-19
6.00467e-20
1.14846e-20
2.15096e-21
3.94606e-22
7.09298e-23
1.24951e-23
2.15777e-24
3.6536e-25
6.06714e-26
9.88286e-27
1.57944e-27
2.477e-28
3.81267e-29
5.76086e-30
8.54617e-31
1.24495e-31
1.78112e-32
2.50299e-33
3.45553e-34
4.68724e-35
6.24777e-36
8.18457e-37
1.05386e-37
1.33396e-38
1.66007e-39
2.03134e-40
2.44434e-41
2.89276e-42
3.3673e-43
3.85581e-44
4.3437e-45
4.81456e-46
5.25108e-47
5.63611e-48
5.95372e-49
6.19036e-50
6.33582e-51
6.38394e-52
6.33305e-53
6.18601e-54
5.95001e-55
5.6405e-56
5.27219e-57
4.85887e-58
4.41514e-59
3.95565e-60
3.49426e-61
3.04343e-62
2.61366e-63
2.21322e-64
1.84797e-65
1.52151e-66
1.23529e-67
9.88983e-69
7.80811e-70
6.07926e-71
4.66783e-72
3.5347e-73
2.63983e-74
1.94446e-75
1.41265e-76
1.01228e-77
7.15497e-79
4.98855e-80
3.43094e-81
2.32778e-82
1.55802e-83
1.02879e-84
6.70212e-86
4.30775e-87
2.73185e-88
1.7094e-89
1.05543e-90
6.4303e-92
3.866e-93
2.29371e-94
1.343e-95
7.76045e-97
4.42579e-98
2.49115e-99
1.38398e-100
7.58915e-102
4.10776e-103
2.19471e-104
1.1575e-105
6.02632e-107
3.09725e-108
1.57147e-109
7.8713e-111
3.89228e-112
1.90013e-113
9.15757e-115
4.35708e-116
2.04652e-117
9.48924e-119
4.34318e-120
1.96212e-121
8.748e-123
3.8488e-124
1.67042e-125
7.15086e-127
3.01733e-128
1.25482e-129
5.13622e-131
2.06971e-132
8.19266e-134
3.19399e-135
3.69912e-18
2.03952e-16
5.48912e-15
9.41491e-14
1.17618e-12
1.14668e-11
9.11391e-11
6.08522e-10
3.4896e-09
1.7482e-08
7.75613e-08
3.08254e-07
1.10837e-06
3.63708e-06
1.09755e-05
3.0656e-05
7.96818e-05
0.000193558
0.000440874
0.000944001
0.00190374
0.00362087
0.00650112
0.0110252
0.0176677
0.02676
0.0382988
0.0517876
0.0666474
0.0797494
0.0892167
0.0943304
0.0964069
0.0925627
0.0849354
0.0744633
0.0624657
0.0499242
0.0378627
0.0271889
0.0184779
0.0118443
0.00715122
0.00407278
0.00218947
0.00111343
0.000536801
0.000245591
0.000106876
4.43344e-05
1.75621e-05
6.65676e-06
2.41911e-06
8.44436e-07
2.83634e-07
9.18207e-08
2.86929e-08
8.66705e-09
2.53394e-09
7.17914e-10
1.97325e-10
5.26707e-11
1.3666e-11
3.44966e-12
8.47851e-13
2.03043e-13
4.74102e-14
1.08004e-14
2.40181e-15
5.21669e-16
1.10717e-16
2.29716e-17
4.66124e-18
9.25355e-19
1.7979e-19
3.41989e-20
6.37061e-21
1.1625e-21
2.07859e-22
3.64259e-23
6.2578e-24
1.05414e-24
1.74155e-25
2.82238e-26
4.48768e-27
7.0022e-28
1.07233e-28
1.61204e-29
2.3793e-30
3.44835e-31
4.90829e-32
6.86228e-33
9.42509e-34
1.27187e-34
1.68653e-35
2.19785e-36
2.81519e-37
3.54467e-38
4.38789e-39
5.34067e-40
6.39213e-41
7.52409e-42
8.71097e-43
9.92042e-44
1.11145e-44
1.22514e-45
1.32882e-46
1.41831e-47
1.48985e-48
1.54035e-49
1.56763e-50
1.57054e-51
1.5491e-52
1.50442e-53
1.43951e-54
1.35785e-55
1.26267e-56
1.15752e-57
1.04609e-58
9.31992e-60
8.18595e-61
7.0884e-62
6.05146e-63
5.09351e-64
4.22698e-65
3.45869e-66
2.79043e-67
2.21985e-68
1.74133e-69
1.34696e-70
1.02745e-71
7.72885e-73
5.73362e-74
4.19489e-75
3.02694e-76
2.15424e-77
1.5122e-78
1.04704e-79
7.15112e-81
4.81788e-82
3.20204e-83
2.09944e-84
1.358e-85
8.66632e-87
5.45661e-88
3.38986e-89
2.07791e-90
1.25682e-91
7.50136e-93
4.41815e-94
2.56798e-95
1.47302e-96
8.33883e-98
4.65906e-99
2.56922e-100
1.39839e-101
7.51267e-103
3.98392e-104
2.0854e-105
1.07756e-106
5.49639e-108
2.76761e-109
1.37572e-110
6.75084e-112
3.2703e-113
1.56394e-114
7.38317e-116
3.44071e-117
1.58273e-118
7.18618e-120
3.22003e-121
1.42382e-122
6.21102e-124
2.67253e-125
1.13372e-126
4.74066e-128
1.95223e-129
7.91771e-131
3.15901e-132
1.24223e-133
5.30816e-17
2.7778e-15
7.1901e-14
1.18457e-12
1.42271e-11
1.33432e-10
1.021e-09
6.56949e-09
3.63336e-08
1.75658e-07
7.52667e-07
2.89213e-06
1.0067e-05
3.20167e-05
9.37028e-05
0.000253847
0.00063955
0.00150408
0.00331154
0.00684145
0.0132854
0.0242754
0.0417431
0.0674991
0.102543
0.146452
0.197366
0.252375
0.307012
0.349239
0.374974
0.386718
0.389995
0.374484
0.346061
0.306667
0.261076
0.217731
0.173018
0.130047
0.0926202
0.0627057
0.0398088
0.0238085
0.0134061
0.00711857
0.00357477
0.00170097
0.000768423
0.000330227
0.000135275
5.29344e-05
1.98283e-05
7.12417e-06
2.45981e-06
8.17613e-07
2.62046e-07
8.11037e-08
2.42738e-08
7.03438e-09
1.97612e-09
5.38733e-10
1.42672e-10
3.67377e-11
9.20567e-12
2.24651e-12
5.34293e-13
1.23923e-13
2.8047e-14
6.19758e-15
1.33776e-15
2.822e-16
5.8203e-17
1.17412e-17
2.3175e-18
4.47727e-19
8.46895e-20
1.5689e-20
2.84729e-21
5.06348e-22
8.82575e-23
1.50813e-23
2.527e-24
4.15278e-25
6.69459e-26
1.05887e-26
1.64349e-27
2.50367e-28
3.74405e-29
5.49703e-30
7.92507e-31
1.1221e-31
1.56053e-32
2.132e-33
2.86178e-34
3.77461e-35
4.89274e-36
6.23347e-37
7.80652e-38
9.61137e-39
1.16349e-39
1.38498e-40
1.62132e-41
1.86675e-42
2.1142e-43
2.35553e-44
2.58202e-45
2.78485e-46
2.95567e-47
3.0872e-48
3.17372e-49
3.21149e-50
3.19905e-51
3.13721e-52
3.03061e-53
2.88557e-54
2.70805e-55
2.50502e-56
2.28402e-57
2.05273e-58
1.81851e-59
1.58804e-60
1.36705e-61
1.16011e-62
9.70551e-64
8.00487e-65
6.5091e-66
5.21835e-67
4.12483e-68
3.21479e-69
2.47052e-70
1.87211e-71
1.39893e-72
1.03086e-73
7.49127e-75
5.36889e-76
3.79491e-77
2.6456e-78
1.81915e-79
1.23383e-80
8.25457e-82
5.44764e-83
3.54661e-84
2.27785e-85
1.44331e-86
9.02274e-88
5.56511e-89
3.38676e-90
2.03369e-91
1.20502e-92
7.04575e-94
4.06537e-95
2.31488e-96
1.30085e-97
7.21461e-99
3.9491e-100
2.13353e-101
1.1377e-102
5.98817e-104
3.1111e-105
1.5955e-106
8.07703e-108
4.03631e-109
1.99114e-110
9.69629e-112
4.66117e-113
2.21189e-114
1.0361e-115
4.79058e-117
2.18626e-118
9.84677e-120
4.37648e-121
1.91911e-122
8.30149e-124
3.541e-125
1.48912e-126
6.17052e-128
2.51934e-129
1.01304e-130
4.01783e-132
5.0038e-16
2.53055e-14
6.38709e-13
1.02106e-11
1.18853e-10
1.08045e-09
8.01138e-09
4.98812e-08
2.66563e-07
1.24465e-06
5.15364e-06
1.91557e-05
6.45568e-05
0.000198885
0.000563862
0.00147914
0.00360607
0.00820091
0.0174562
0.0348883
0.065674
0.116828
0.197258
0.317599
0.449188
0.535972
0.618132
0.673427
0.703651
0.730997
0.750747
0.767922
0.779448
0.785274
0.782136
0.762998
0.722534
0.653637
0.564363
0.457404
0.34379
0.247812
0.169
0.107188
0.0641482
0.0359071
0.0189506
0.00944138
0.00445392
0.00199367
0.000848573
0.000344217
0.000133379
4.94784e-05
1.76087e-05
6.02361e-06
1.98414e-06
6.30349e-07
1.93433e-07
5.74145e-08
1.65045e-08
4.60026e-09
1.24459e-09
3.27162e-10
8.36349e-11
2.08096e-11
5.04336e-12
1.19141e-12
2.74518e-13
6.17305e-14
1.35545e-14
2.90763e-15
6.09623e-16
1.24978e-16
2.50625e-17
4.91801e-18
9.44649e-19
1.77665e-19
3.2727e-20
5.90613e-21
1.04448e-21
1.81049e-22
3.07675e-23
5.12717e-24
8.37993e-25
1.34358e-25
2.1136e-26
3.26284e-27
4.94374e-28
7.35313e-29
1.07377e-29
1.53971e-30
2.16829e-31
2.99921e-32
4.07537e-33
5.44071e-34
7.1372e-35
9.20108e-36
1.16584e-36
1.45207e-37
1.77797e-38
2.14046e-39
2.53385e-40
2.94981e-41
3.37747e-42
3.80383e-43
4.21429e-44
4.59353e-45
4.92641e-46
5.19899e-47
5.39947e-48
5.51911e-49
5.5528e-50
5.49941e-51
5.36442e-52
5.15662e-53
4.88489e-54
4.56039e-55
4.1958e-56
3.80455e-57
3.40001e-58
2.99475e-59
2.59992e-60
2.22482e-61
1.87663e-62
1.56038e-63
1.27898e-64
1.03346e-65
8.23256e-67
6.46558e-68
5.00641e-69
3.82217e-70
2.87723e-71
2.13569e-72
1.56321e-73
1.12832e-74
8.03156e-76
5.63815e-77
3.90357e-78
2.66558e-79
1.79534e-80
1.19273e-81
7.81621e-83
5.05274e-84
3.2222e-85
2.02717e-86
1.25822e-87
7.70494e-89
4.65527e-90
2.77525e-91
1.63251e-92
9.47596e-94
5.42776e-95
3.06805e-96
1.71146e-97
9.42209e-99
5.11939e-100
2.74533e-101
1.45307e-102
7.59123e-104
3.91451e-105
1.99248e-106
1.00109e-107
4.96495e-109
2.43068e-110
1.17466e-111
5.60355e-113
2.63861e-114
1.22639e-115
5.62613e-117
2.54727e-118
1.13813e-119
5.0175e-121
2.18224e-122
9.36098e-124
3.95977e-125
1.65123e-126
6.7877e-128
2.75042e-129
1.10003e-130
2.94365e-15
1.46234e-13
3.65015e-12
5.72341e-11
6.50215e-10
5.75381e-09
4.15051e-08
2.51636e-07
1.31224e-06
5.99242e-06
2.4299e-05
8.84838e-05
0.000292151
0.000882199
0.00245553
0.0063447
0.0153163
0.0347597
0.0746205
0.152369
0.296978
0.469692
0.583843
0.665143
0.703456
0.737747
0.753784
0.764356
0.76833
0.775316
0.791043
0.8115
0.837564
0.862194
0.885758
0.904026
0.914619
0.919617
0.907977
0.876328
0.811446
0.693754
0.536714
0.368714
0.237984
0.142588
0.0800365
0.0421245
0.0209136
0.009817
0.00436744
0.001846
0.000743204
0.000285736
0.000105156
3.71255e-05
1.2599e-05
4.11729e-06
1.29783e-06
3.95192e-07
1.1641e-07
3.32131e-08
9.18928e-09
2.46814e-09
6.44178e-10
1.63524e-10
4.04071e-11
9.72668e-12
2.28247e-12
5.22464e-13
1.16727e-13
2.54672e-14
5.42877e-15
1.13116e-15
2.3048e-16
4.59399e-17
8.96084e-18
1.711e-18
3.19909e-19
5.85867e-20
1.05119e-20
1.84834e-21
3.18565e-22
5.38304e-23
8.91987e-24
1.4497e-24
2.31134e-25
3.61573e-26
5.5507e-27
8.36356e-28
1.23707e-28
1.79648e-29
2.56179e-30
3.58768e-31
4.93511e-32
6.66883e-33
8.8538e-34
1.15503e-34
1.48077e-35
1.86584e-36
2.311e-37
2.81393e-38
3.36873e-39
3.96557e-40
4.59069e-41
5.22671e-42
5.85334e-43
6.44834e-44
6.98881e-45
7.45269e-46
7.82022e-47
8.07535e-48
8.20695e-49
8.20949e-50
8.08741e-51
7.8498e-52
7.50722e-53
7.07427e-54
6.56869e-55
6.01013e-56
5.41893e-57
4.81487e-58
4.21614e-59
3.63851e-60
3.09477e-61
2.59445e-62
2.14385e-63
1.74618e-64
1.40201e-65
1.10968e-66
8.65858e-68
6.66065e-69
5.05157e-70
3.77741e-71
2.7851e-72
2.0248e-73
1.45158e-74
1.0262e-75
7.15446e-77
4.91918e-78
3.33579e-79
2.23108e-80
1.47183e-81
9.57733e-83
6.14747e-84
3.89251e-85
2.43144e-86
1.49835e-87
9.10964e-89
5.46437e-90
3.23407e-91
1.88863e-92
1.0883e-93
6.18824e-95
3.47235e-96
1.92279e-97
1.05077e-98
5.66715e-100
3.01659e-101
1.58481e-102
8.21787e-104
4.20603e-105
2.12484e-106
1.05957e-107
5.21537e-109
2.53395e-110
1.21526e-111
5.75293e-113
2.68813e-114
1.23975e-115
5.64309e-117
2.53492e-118
1.12364e-119
4.91422e-121
2.12018e-122
9.0224e-124
3.78652e-125
1.56723e-126
6.39867e-128
2.58022e-129
1.12477e-14
5.63733e-13
1.41844e-11
2.21959e-10
2.50431e-09
2.19279e-08
1.56177e-07
9.34526e-07
4.81033e-06
2.16708e-05
8.66296e-05
0.000311113
0.00101568
0.00304845
0.00850015
0.022222
0.0548935
0.128927
0.289049
0.472102
0.580064
0.6314
0.655571
0.66508
0.666971
0.63743
0.578692
0.529085
0.496201
0.484303
0.502431
0.546597
0.617209
0.707512
0.792196
0.86424
0.915047
0.943554
0.959024
0.966307
0.96707
0.952966
0.914051
0.828251
0.657991
0.443783
0.26742
0.150676
0.0795453
0.0394855
0.0184969
0.00819873
0.0034485
0.00138051
0.000527471
0.00019285
6.76239e-05
2.27897e-05
7.39509e-06
2.31447e-06
6.99738e-07
2.04647e-07
5.7973e-08
1.59262e-08
4.24751e-09
1.10085e-09
2.77516e-10
6.81048e-11
1.62828e-11
3.79527e-12
8.62973e-13
1.91534e-13
4.15167e-14
8.793e-15
1.82047e-15
3.6859e-16
7.30093e-17
1.41527e-17
2.68578e-18
4.99111e-19
9.08535e-20
1.62038e-20
2.83221e-21
4.85254e-22
8.15155e-23
1.34285e-23
2.16977e-24
3.43938e-25
5.34936e-26
8.16494e-27
1.22322e-27
1.79895e-28
2.59757e-29
3.68308e-30
5.12874e-31
7.01495e-32
9.42566e-33
1.24431e-33
1.61409e-34
2.0576e-35
2.57801e-36
3.17502e-37
3.84411e-38
4.57596e-39
5.35614e-40
6.16527e-41
6.97955e-42
7.77184e-43
8.51302e-44
9.17382e-45
9.72671e-46
1.01478e-46
1.04186e-47
1.05273e-48
1.04749e-49
1.02674e-50
9.91437e-52
9.43139e-53
8.83909e-54
8.16166e-55
7.4252e-56
6.65607e-57
5.87933e-58
5.11749e-59
4.38962e-60
3.7107e-61
3.09145e-62
2.53844e-63
2.05443e-64
1.6389e-65
1.28875e-66
9.98999e-68
7.63412e-69
5.75135e-70
4.27188e-71
3.12843e-72
2.25898e-73
1.6084e-74
1.12926e-75
7.81863e-77
5.33856e-78
3.59495e-79
2.38757e-80
1.56399e-81
1.01052e-82
6.44034e-84
4.04894e-85
2.5111e-86
1.53636e-87
9.27356e-89
5.5226e-90
3.24489e-91
1.8812e-92
1.07613e-93
6.07441e-95
3.38355e-96
1.85987e-97
1.00891e-98
5.40124e-100
2.85379e-101
1.48816e-102
7.6593e-104
3.89091e-105
1.95094e-106
9.65554e-108
4.71685e-109
2.27443e-110
1.08252e-111
5.08556e-113
2.35813e-114
1.0792e-115
4.87444e-117
2.17268e-118
9.55614e-120
4.14706e-121
1.77556e-122
7.49991e-124
3.12562e-125
1.28566e-126
5.22601e-128
2.94485e-14
1.83909e-12
4.74386e-11
6.91097e-10
6.89309e-09
6.01599e-08
4.28278e-07
2.56138e-06
1.31391e-05
5.88611e-05
0.000234
0.000838267
0.00274537
0.00832607
0.0236225
0.0631225
0.159318
0.367867
0.507784
0.574556
0.600173
0.60752
0.571084
0.470535
0.327319
0.226779
0.168628
0.144082
0.134955
0.132794
0.141411
0.156765
0.186684
0.247033
0.367224
0.544709
0.742855
0.864473
0.931978
0.965498
0.980233
0.986192
0.987296
0.978244
0.949096
0.871078
0.682126
0.430308
0.244223
0.129484
0.0644424
0.0301909
0.0133561
0.00559895
0.00223171
0.000848433
0.000308484
0.00010753
3.60122e-05
1.16099e-05
3.60938e-06
1.0838e-06
3.14784e-07
8.85521e-08
2.41566e-08
6.39739e-09
1.64642e-09
4.12149e-10
1.0044e-10
2.38469e-11
5.52001e-12
1.24654e-12
2.74783e-13
5.91589e-14
1.24455e-14
2.55954e-15
5.14811e-16
1.01306e-16
1.95106e-17
3.67875e-18
6.79281e-19
1.22868e-19
2.17761e-20
3.78248e-21
6.44061e-22
1.07528e-22
1.76057e-23
2.82747e-24
4.4549e-25
6.88726e-26
1.04495e-26
1.55618e-27
2.27508e-28
3.26571e-29
4.60322e-30
6.37249e-31
8.66522e-32
1.15752e-32
1.51919e-33
1.95922e-34
2.48311e-35
3.09314e-36
3.78742e-37
4.55909e-38
5.39574e-39
6.27926e-40
7.18615e-41
8.08833e-42
8.9545e-43
9.75182e-44
1.0448e-44
1.10136e-45
1.14239e-46
1.16608e-47
1.17203e-48
1.16024e-49
1.13128e-50
1.08649e-51
1.02784e-52
9.57855e-54
8.79361e-55
7.9534e-56
7.08725e-57
6.2225e-58
5.38314e-59
4.58893e-60
3.8549e-61
3.19126e-62
2.60364e-63
2.09358e-64
1.65925e-65
1.29618e-66
9.98106e-68
7.57641e-69
5.66955e-70
4.18265e-71
3.04225e-72
2.18172e-73
1.54271e-74
1.07565e-75
7.39576e-77
5.01459e-78
3.35313e-79
2.2113e-80
1.43829e-81
9.22716e-83
5.83888e-84
3.6446e-85
2.24414e-86
1.36316e-87
8.16882e-89
4.82953e-90
2.8171e-91
1.62132e-92
9.20704e-94
5.15911e-95
2.85265e-96
1.55653e-97
8.38142e-99
4.45392e-100
2.33585e-101
1.20904e-102
6.17647e-104
3.11425e-105
1.54986e-106
7.61306e-108
3.69115e-109
1.76645e-110
8.34408e-112
3.89031e-113
1.79024e-114
8.13098e-116
3.6447e-117
1.6123e-118
7.03851e-120
3.03217e-121
1.28912e-122
5.40955e-124
2.2415e-125
9.18295e-127
5.63828e-14
2.96002e-12
7.37063e-11
1.22633e-09
1.7303e-08
1.60285e-07
1.26271e-06
8.46325e-06
4.57772e-05
0.000201202
0.000771715
0.00264132
0.00807322
0.0220149
0.0559437
0.15729
0.357044
0.488177
0.546191
0.565171
0.557186
0.464495
0.274561
0.165688
0.112594
0.0879211
0.0791287
0.0773958
0.0820497
0.0853464
0.0913235
0.0939693
0.0962286
0.0993293
0.114851
0.164454
0.297796
0.579287
0.793107
0.903875
0.959375
0.983478
0.99204
0.994861
0.993983
0.984994
0.953123
0.851258
0.599893
0.344534
0.184254
0.0921207
0.0432131
0.0190982
0.00798623
0.00317206
0.00120073
0.000434417
0.000150601
5.01394e-05
1.60635e-05
4.96137e-06
1.47973e-06
4.26812e-07
1.19223e-07
3.22921e-08
8.49056e-09
2.16935e-09
5.39123e-10
1.30431e-10
3.07434e-11
7.06493e-12
1.58392e-12
3.46647e-13
7.40979e-14
1.54776e-14
3.16068e-15
6.31271e-16
1.2336e-16
2.35945e-17
4.41839e-18
8.10332e-19
1.45589e-19
2.56312e-20
4.42274e-21
7.48154e-22
1.24097e-22
2.01876e-23
3.2214e-24
5.04337e-25
7.7479e-26
1.16817e-26
1.72885e-27
2.51189e-28
3.58345e-29
5.02017e-30
6.90736e-31
9.33556e-32
1.23954e-32
1.61704e-33
2.07292e-34
2.6115e-35
3.23369e-36
3.936e-37
4.70986e-38
5.54121e-39
6.41047e-40
7.29307e-41
8.16034e-42
8.98108e-43
9.72327e-44
1.03563e-44
1.08527e-45
1.11912e-46
1.13627e-47
1.13607e-48
1.11856e-49
1.08461e-50
1.03577e-51
9.7423e-53
9.02588e-54
8.23708e-55
7.40521e-56
6.55851e-57
5.7227e-58
4.9198e-59
4.16742e-60
3.47845e-61
2.86104e-62
2.31903e-63
1.85249e-64
1.45846e-65
1.13174e-66
8.65632e-68
6.52646e-69
4.85067e-70
3.55409e-71
2.56731e-72
1.82841e-73
1.28392e-74
8.88971e-76
6.06942e-77
4.08637e-78
2.71318e-79
1.7766e-80
1.14734e-81
7.30811e-83
4.59144e-84
2.8454e-85
1.73943e-86
1.04896e-87
6.24047e-89
3.66269e-90
2.12094e-91
1.21176e-92
6.83097e-94
3.79966e-95
2.08554e-96
1.12959e-97
6.03762e-99
3.18471e-100
1.65786e-101
8.51745e-103
4.31887e-104
2.16142e-105
1.06765e-106
5.20525e-108
2.50488e-109
1.18978e-110
5.57806e-112
2.58126e-113
1.17898e-114
5.31505e-116
2.36496e-117
1.03864e-118
4.50233e-120
1.92666e-121
8.14051e-123
3.39766e-124
1.40266e-125
1.18569e-13
3.89709e-12
1.07046e-10
1.85157e-09
2.06155e-08
1.88053e-07
1.44629e-06
9.73042e-06
5.55086e-05
0.000256583
0.000997277
0.00349733
0.0111688
0.0335107
0.105643
0.277551
0.438328
0.509888
0.536908
0.525871
0.407614
0.217564
0.126663
0.0876792
0.0733386
0.0688024
0.0678005
0.0692331
0.0731026
0.0799446
0.0905621
0.0985202
0.102958
0.0935718
0.0897003
0.0924006
0.118491
0.225486
0.524707
0.767952
0.896224
0.957983
0.984758
0.994677
0.997509
0.997802
0.994857
0.980529
0.924212
0.7267
0.430139
0.232591
0.116868
0.054892
0.0242374
0.0101115
0.00400257
0.0015087
0.000543159
0.000187265
6.19739e-05
1.97285e-05
6.05252e-06
1.79261e-06
5.13355e-07
1.42347e-07
3.82683e-08
9.98603e-09
2.53203e-09
6.24436e-10
1.49909e-10
3.50618e-11