/*--------------------------------*- C++ -*----------------------------------*\
  =========                 |
  \\      /  F ield         | OpenFOAM: The Open Source CFD Toolbox
   \\    /   O peration     | Website:  https://openfoam.org
    \\  /    A nd           | Version:  7
     \\/     M anipulation  |
\*---------------------------------------------------------------------------*/
FoamFile
{
    version     2.0;
    format      ascii;
    class       volScalarField;
    location    "0.014";
    object      s_0;
}
// * * * * * * * * * * * * * * * * * * * * * * * * * * * * * * * * * * * * * //

dimensions      [0 0 0 0 0 0 0];

internalField   nonuniform List<scalar> 
12225
(
1
1
1
1
1
1
1
1
1
1
1
1
1
1
1
1
1
1
1
1
1
1
1
1
1
1
1
1
1
1
1
1
1
1
1
1
1
1
1
1
1
1
1
1
1
1
1
1
1
1
1
1
1
1
1
1
1
1
1
1
1
1
1
1
1
1
1
1
1
1
1
1
1
1
1
1
1
1
1
1
1
1
1
1
1
1
1
1
1
1
1
1
1
1
1
1
1
1
1
1
1
1
1
1
1
1
1
1
1
1
1
1
1
1
1
1
1
1
1
1
1
1
1
1
1
1
1
1
1
1
1
1
1
1
1
1
1
1
1
1
1
1
1
1
1
1
1
1
1
1
1
1
1
1
1
1
1
1
1
1
1
1
1
1
1
1
1
1
1
1
1
1
1
1
1
1
1
1
1
1
1
1
1
1
1
1
1
1
1
1
1
1
1
1
1
1
1
1
1
1
1
1
1
1
1
1
1
1
1
1
1
1
1
1
1
1
1
1
1
1
1
1
1
1
1
1
1
1
1
1
1
1
1
1
1
1
1
1
1
1
1
1
1
1
1
1
1
1
1
1
1
1
1
1
1
1
1
1
1
1
1
1
1
1
1
1
1
1
1
1
1
1
1
1
1
1
1
1
1
1
1
1
1
1
1
1
1
1
1
1
1
1
1
1
1
1
1
1
1
1
1
1
1
1
1
1
1
1
1
1
1
1
1
1
1
1
1
1
1
1
1
1
1
1
1
1
1
1
1
1
1
1
1
1
1
1
1
1
1
1
1
1
1
1
1
1
1
1
1
1
1
1
1
1
1
1
1
1
1
1
1
1
1
1
1
1
1
1
1
1
1
1
1
1
1
1
1
1
1
1
1
1
1
1
1
1
1
1
1
1
1
1
1
1
1
1
1
1
1
1
1
1
1
1
1
1
1
1
1
1
1
1
1
1
1
1
1
1
1
1
1
1
1
1
1
1
1
1
1
1
1
1
1
1
1
1
1
1
1
1
1
1
1
1
1
1
1
1
1
1
1
1
1
1
1
1
1
1
1
1
1
1
1
1
1
1
1
1
1
1
1
1
1
1
1
1
1
1
1
1
1
1
1
1
1
1
1
1
1
1
1
1
1
1
1
1
1
1
1
1
1
1
1
1
1
1
1
1
1
1
1
1
1
1
1
1
1
1
1
1
1
1
1
1
1
1
1
1
1
1
1
1
1
1
1
1
1
1
1
1
1.11978e-28
8.49005e-27
2.94773e-25
6.58411e-24
1.07397e-22
1.36751e-21
1.41595e-20
1.22562e-19
9.04925e-19
5.78883e-18
3.24944e-17
1.61793e-16
7.21409e-16
2.90547e-15
1.06541e-14
3.58383e-14
1.11382e-13
3.22025e-13
8.71769e-13
2.22367e-12
5.3764e-12
1.23908e-11
2.73574e-11
5.81132e-11
1.19224e-10
2.37188e-10
4.59193e-10
8.67973e-10
1.62636e-09
2.67866e-09
3.86425e-09
4.9531e-09
5.68893e-09
5.97816e-09
5.63732e-09
4.89343e-09
3.91117e-09
2.8409e-09
1.94637e-09
1.22233e-09
7.21151e-10
3.96829e-10
2.05042e-10
1.00202e-10
4.62584e-11
2.00931e-11
8.23677e-12
3.19465e-12
1.18389e-12
4.19791e-13
1.43049e-13
4.67664e-14
1.46952e-14
4.44583e-15
1.29705e-15
3.65443e-16
9.95677e-17
2.62653e-17
6.71578e-18
1.6661e-18
4.01419e-19
9.40058e-20
2.14143e-20
4.74846e-21
1.0256e-21
2.15888e-22
4.4314e-23
8.87411e-24
1.7345e-24
3.3103e-25
6.1712e-26
1.12416e-26
2.00165e-27
3.48478e-28
5.93348e-29
9.88332e-30
1.61087e-30
2.56966e-31
4.01271e-32
6.13517e-33
9.18582e-34
1.34703e-34
1.93495e-35
2.723e-36
3.75455e-37
5.07273e-38
6.71632e-39
8.71464e-40
1.10818e-40
1.38107e-41
1.68678e-42
2.01888e-43
2.36772e-44
2.72055e-45
3.06195e-46
3.3747e-47
3.641e-48
3.84358e-49
3.96739e-50
4.00129e-51
3.93829e-52
3.77731e-53
3.52392e-54
3.18723e-55
2.78303e-56
2.33117e-57
1.88658e-58
1.50741e-59
1.18916e-60
9.26009e-62
7.11669e-63
5.39763e-64
4.04034e-65
2.98613e-66
2.04097e-67
2.57306e-68
3.20692e-69
4.19151e-70
2.9023e-71
1.98256e-72
1.33479e-73
8.84557e-75
5.43124e-76
6.16156e-77
6.88404e-78
8.01306e-79
4.91758e-80
2.97841e-81
1.76565e-82
1.01435e-83
5.69562e-85
6.46861e-86
7.70877e-87
6.17528e-88
2.76166e-89
1.32651e-90
6.70554e-92
6.99257e-93
7.51219e-94
4.12417e-95
2.05767e-96
1.04709e-97
5.14748e-99
3.77993e-100
2.75828e-101
2.32659e-102
1.7176e-103
7.01198e-105
2.64249e-106
1.12612e-107
1.0726e-108
9.78873e-110
4.05948e-111
1.56959e-112
5.90804e-114
3.02467e-115
2.73721e-116
2.25443e-117
8.7341e-119
3.1663e-120
1.11106e-121
4.14402e-123
3.27804e-124
2.62331e-125
9.9287e-127
3.44e-128
1.12362e-129
4.09352e-131
3.12812e-132
2.32167e-133
7.92851e-135
2.45044e-136
7.14791e-138
2.69755e-139
1.98963e-140
1.25684e-141
3.48641e-143
8.89181e-145
2.29147e-146
1.16689e-147
6.66118e-26
4.36966e-24
1.32321e-22
2.56843e-21
3.63921e-20
4.03428e-19
3.65413e-18
2.78599e-17
1.82725e-16
1.04833e-15
5.33181e-15
2.43067e-14
1.00265e-13
3.77352e-13
1.30546e-12
4.17931e-12
1.24577e-11
3.47719e-11
9.13631e-11
2.27092e-10
5.36421e-10
1.20911e-09
2.60977e-09
5.40911e-09
1.07927e-08
2.08002e-08
3.88505e-08
7.01708e-08
1.23425e-07
1.90439e-07
2.61322e-07
3.23068e-07
3.58024e-07
3.71776e-07
3.45098e-07
2.97803e-07
2.37537e-07
1.73605e-07
1.19651e-07
7.60641e-08
4.54618e-08
2.5417e-08
1.33641e-08
6.63119e-09
3.12229e-09
1.38748e-09
5.82211e-10
2.31415e-10
8.78274e-11
3.2018e-11
1.11884e-11
3.75289e-12
1.21058e-12
3.76185e-13
1.12796e-13
3.26823e-14
9.16339e-15
2.48927e-15
6.5594e-16
1.6784e-16
4.17434e-17
1.01003e-17
2.37951e-18
5.46235e-19
1.22267e-19
2.67024e-20
5.69325e-21
1.18569e-21
2.41324e-22
4.80228e-23
9.34753e-24
1.78041e-24
3.31954e-25
6.06063e-26
1.08388e-26
1.8993e-27
3.26197e-28
5.49233e-29
9.06837e-30
1.46859e-30
2.33328e-31
3.63762e-32
5.56597e-33
8.36024e-34
1.2329e-34
1.78544e-35
2.53945e-36
3.54795e-37
4.86998e-38
6.56822e-39
8.70561e-40
1.13407e-40
1.45218e-41
1.82809e-42
2.26266e-43
2.7538e-44
3.296e-45
3.87995e-46
4.49254e-47
5.11714e-48
5.73417e-49
6.32211e-50
6.85864e-51
7.32203e-52
7.69266e-53
7.95443e-54
8.09568e-55
8.11014e-56
7.99775e-57
7.76429e-58
7.42641e-59
7.00824e-60
6.52498e-61
5.99344e-62
5.43111e-63
4.85525e-64
4.28198e-65
3.72553e-66
3.19775e-67
2.70777e-68
2.26198e-69
1.86413e-70
1.51556e-71
1.21556e-72
9.61817e-74
7.5079e-75
5.78176e-76
4.3926e-77
3.29236e-78
2.43458e-79
1.77615e-80
1.27844e-81
9.07896e-83
6.36143e-84
4.39791e-85
3e-86
2.01925e-87
1.3411e-88
8.78926e-90
5.6842e-91
3.62767e-92
2.28474e-93
1.42008e-94
8.71094e-96
5.2736e-97
3.15103e-98
1.85829e-99
1.08169e-100
6.2149e-102
3.52467e-103
1.97319e-104
1.09044e-105
5.94868e-107
3.20364e-108
1.70326e-109
8.94015e-111
4.63279e-112
2.3702e-113
1.19724e-114
5.97089e-116
2.94011e-117
1.42941e-118
6.8616e-120
3.2521e-121
1.52185e-122
7.03129e-124
3.20732e-125
1.44433e-126
6.42066e-128
2.81726e-129
1.21996e-130
5.21246e-132
2.19675e-133
9.12843e-135
3.73747e-136
1.50676e-137
5.9696e-139
2.32142e-140
8.80319e-142
3.143e-143
3.79408e-24
2.4578e-22
7.41556e-21
1.43279e-19
2.02044e-18
2.22854e-17
2.00789e-16
1.52219e-15
9.92147e-15
5.65235e-14
2.85187e-13
1.28823e-12
5.25843e-12
1.95564e-11
6.67578e-11
2.10581e-10
6.17604e-10
1.69361e-09
4.36473e-09
1.0621e-08
2.45057e-08
5.38101e-08
1.12793e-07
2.26234e-07
4.3512e-07
8.0485e-07
1.43627e-06
2.46627e-06
4.09271e-06
5.99901e-06
7.89742e-06
9.44516e-06
1.0201e-05
1.04395e-05
9.59133e-06
8.24457e-06
6.58091e-06
4.85025e-06
3.3706e-06
2.17274e-06
1.31746e-06
7.48972e-07
4.00886e-07
2.02476e-07
9.70396e-08
4.40489e-08
1.8893e-08
7.68278e-09
2.98082e-09
1.10977e-09
3.95975e-10
1.35602e-10
4.46502e-11
1.41609e-11
4.33272e-12
1.2808e-12
3.6631e-13
1.01488e-13
2.727e-14
7.11424e-15
1.80373e-15
4.44848e-16
1.06809e-16
2.49858e-17
5.69865e-18
1.26802e-18
2.75431e-19
5.84348e-20
1.21149e-20
2.45564e-21
4.86843e-22
9.44431e-23
1.79337e-23
3.33456e-24
6.07321e-25
1.08378e-25
1.89553e-26
3.25014e-27
5.46472e-28
9.01218e-29
1.4581e-29
2.31489e-30
3.60704e-31
5.51736e-32
8.28614e-33
1.22205e-33
1.77019e-34
2.51888e-35
3.52148e-36
4.83766e-37
6.53133e-38
8.66727e-39
1.13067e-39
1.45017e-40
1.82889e-41
2.26824e-42
2.76679e-43
3.31969e-44
3.91833e-45
4.55022e-46
5.19919e-47
5.84593e-48
6.46887e-49
7.0453e-50
7.55278e-51
7.97052e-52
8.28086e-53
8.47045e-54
8.5313e-55
8.46135e-56
8.26449e-57
7.95013e-58
7.53744e-59
7.04952e-60
6.50388e-61
5.91905e-62
5.3136e-63
4.70517e-64
4.10969e-65
3.54067e-66
3.00887e-67
2.52211e-68
2.0853e-69
1.70066e-70
1.36808e-71
1.08558e-72
8.49703e-74
6.56051e-75
4.99665e-76
3.75404e-77
2.78233e-78
2.0343e-79
1.46734e-80
1.04416e-81
7.33047e-83
5.07739e-84
3.4698e-85
2.33958e-86
1.55651e-87
1.02179e-88
6.61879e-90
4.23076e-91
2.66866e-92
1.66119e-93
1.02049e-94
6.18693e-96
3.70198e-97
2.18625e-98
1.27434e-99
7.33174e-101
4.16367e-102
2.33403e-103
1.29155e-104
7.05517e-106
3.80455e-107
2.02541e-108
1.0645e-109
5.52354e-111
2.82966e-112
1.43122e-113
7.14729e-115
3.52407e-116
1.71562e-117
8.24653e-119
3.91375e-120
1.83392e-121
8.48437e-123
3.8752e-124
1.74731e-125
7.77705e-127
3.41629e-128
1.48093e-129
6.33266e-131
2.67082e-132
1.10995e-133
4.54505e-135
1.82923e-136
7.24068e-138
2.79968e-139
1.06313e-140
1.60758e-22
1.02207e-20
3.05768e-19
5.8514e-18
8.16578e-17
8.90275e-16
7.91658e-15
5.91247e-14
3.78914e-13
2.11855e-12
1.04722e-11
4.6277e-11
1.84575e-10
6.70103e-10
2.2314e-09
6.86238e-09
1.96128e-08
5.23833e-08
1.31395e-07
3.1087e-07
6.96341e-07
1.48142e-06
3.00071e-06
5.79793e-06
1.0704e-05
1.89277e-05
3.21367e-05
5.22538e-05
8.16693e-05
0.000113769
0.000143832
0.000166499
0.000176542
0.000177384
0.000162104
0.000139166
0.00011159
8.32364e-05
5.85732e-05
3.84404e-05
2.3743e-05
1.37789e-05
7.53444e-06
3.88945e-06
1.90191e-06
8.83547e-07
3.88226e-07
1.61798e-07
6.43174e-08
2.45069e-08
8.94284e-09
3.13099e-09
1.05367e-09
3.41415e-10
1.06689e-10
3.22006e-11
9.39969e-12
2.65721e-12
7.28304e-13
1.93752e-13
5.00798e-14
1.25881e-14
3.07967e-15
7.33894e-16
1.70474e-16
3.86243e-17
8.54092e-18
1.8443e-18
3.891e-19
8.0242e-20
1.61823e-20
3.19268e-21
6.16463e-22
1.16533e-22
2.15735e-23
3.91253e-24
6.95316e-25
1.21118e-25
2.06848e-26
3.46426e-27
5.69094e-28
9.17204e-29
1.45058e-29
2.25165e-30
3.43098e-31
5.13302e-32
7.54115e-33
1.08814e-33
1.54233e-34
2.14777e-35
2.93882e-36
3.95181e-37
5.22295e-38
6.78561e-39
8.66702e-40
1.08846e-40
1.34422e-41
1.63263e-42
1.95038e-43
2.29198e-44
2.64977e-45
3.01408e-46
3.37362e-47
3.71597e-48
4.02833e-49
4.29828e-50
4.51461e-51
4.66809e-52
4.75216e-53
4.76335e-54
4.70154e-55
4.56995e-56
4.3747e-57
4.12745e-58
3.84086e-59
3.52519e-60
3.19107e-61
2.84894e-62
2.5085e-63
2.17835e-64
1.86562e-65
1.57581e-66
1.31273e-67
1.07855e-68
8.73987e-70
6.98515e-71
5.50631e-72
4.28121e-73
3.28323e-74
2.48357e-75
1.85311e-76
1.36391e-77
9.90247e-79
7.09228e-80
5.01101e-81
3.49281e-82
2.40186e-83
1.62952e-84
1.09074e-85
7.20361e-87
4.69417e-88
3.01829e-89
1.91502e-90
1.19897e-91
7.40765e-93
4.51655e-94
2.71769e-95
1.6139e-96
9.4591e-98
5.47186e-99
3.12425e-100
1.76074e-101
9.79493e-103
5.37865e-104
2.91559e-105
1.56017e-106
8.24185e-108
4.29827e-109
2.21305e-110
1.12492e-111
5.64549e-113
2.79725e-114
1.36841e-115
6.60936e-117
3.15179e-118
1.48391e-119
6.89751e-121
3.16519e-122
1.43382e-123
6.41134e-125
2.82931e-126
1.23212e-127
5.29276e-129
2.24251e-130
9.3623e-132
3.85177e-133
1.55795e-134
6.20006e-136
2.41464e-137
9.24496e-139
5.93379e-21
3.62254e-19
1.05333e-17
1.958e-16
2.6536e-15
2.80756e-14
2.42089e-13
1.75224e-12
1.08786e-11
5.89012e-11
2.81891e-10
1.206e-09
4.65766e-09
1.63795e-08
5.28571e-08
1.57607e-07
4.36887e-07
1.13182e-06
2.75271e-06
6.30905e-06
1.36695e-05
2.8068e-05
5.47217e-05
0.000101435
0.000179005
0.000301307
0.000484509
0.00074254
0.00108945
0.00144096
0.00174795
0.00195848
0.0020506
0.00201893
0.00184292
0.00158571
0.00128278
0.000972366
0.000696418
0.000467641
0.000295739
0.000176013
9.87637e-05
5.23235e-05
2.62335e-05
1.24925e-05
5.63939e-06
2.41454e-06
9.85638e-07
3.85025e-07
1.43945e-07
5.16036e-08
1.7772e-08
5.89007e-09
1.88165e-09
5.80298e-10
1.73008e-10
4.9929e-11
1.39647e-11
3.78956e-12
9.98767e-13
2.55899e-13
6.37938e-14
1.5486e-14
3.66324e-15
8.44993e-16
1.90181e-16
4.17885e-17
8.96906e-18
1.88125e-18
3.85791e-19
7.73821e-20
1.51872e-20
2.91753e-21
5.48782e-22
1.01103e-22
1.82487e-23
3.22792e-24
5.59687e-25
9.5149e-26
1.58634e-26
2.59429e-27
4.16251e-28
6.55378e-29
1.01277e-29
1.53634e-30
2.2882e-31
3.3466e-32
4.80711e-33
6.78267e-34
9.40193e-35
1.28054e-35
1.71393e-36
2.25459e-37
2.91526e-38
3.70574e-39
4.63141e-40
5.69172e-41
6.87884e-42
8.17667e-43
9.56039e-44
1.09966e-44
1.24442e-45
1.38564e-46
1.51826e-47
1.63719e-48
1.7376e-49
1.81525e-50
1.86679e-51
1.89003e-52
1.88405e-53
1.8493e-54
1.7875e-55
1.70166e-56
1.59742e-57
1.4788e-58
1.34997e-59
1.21524e-60
1.07876e-61
9.44303e-63
8.15132e-64
6.93873e-65
5.82471e-66
4.82188e-67
3.93653e-68
3.16937e-69
2.51654e-70
1.97067e-71
1.522e-72
1.15935e-73
8.71019e-75
6.45454e-76
4.71781e-77
3.40146e-78
2.4191e-79
1.69715e-80
1.17457e-81
8.01943e-83
5.40168e-84
3.58964e-85
2.35354e-86
1.52251e-87
9.71805e-89
6.1206e-90
3.80383e-91
2.33278e-92
1.41179e-93
8.4318e-95
4.96986e-96
2.89105e-97
1.65985e-98
9.40582e-100
5.26085e-101
2.90442e-102
1.58279e-103
8.51444e-105
4.52141e-106
2.37021e-107
1.22661e-108
6.26675e-110
3.16085e-111
1.57397e-112
7.73797e-114
3.75575e-115
1.79971e-116
8.51422e-118
3.97655e-119
1.83348e-120
8.34485e-122
3.74896e-123
1.66216e-124
7.27227e-126
3.13855e-127
1.33603e-128
5.60467e-130
2.31711e-131
9.42267e-133
3.77127e-134
1.47998e-135
5.71625e-137
1.72264e-19
9.99956e-18
2.79811e-16
5.00035e-15
6.51629e-14
6.63315e-13
5.50568e-12
3.83607e-11
2.29234e-10
1.19489e-09
5.50839e-09
2.27197e-08
8.46815e-08
2.87719e-07
8.97984e-07
2.59178e-06
6.95754e-06
1.74561e-05
4.10954e-05
9.10714e-05
0.000190459
0.000376588
0.000704953
0.00125059
0.00210457
0.00336404
0.00510985
0.00736116
0.0101127
0.0127015
0.0147884
0.0160656
0.0166152
0.0161033
0.0147185
0.0127526
0.0104668
0.00810641
0.00594612
0.00411115
0.00268089
0.00164677
0.000953927
0.00052153
0.000269632
0.000132127
6.14718e-05
2.71266e-05
1.14046e-05
4.57941e-06
1.7583e-06
6.46811e-07
2.28393e-07
7.75505e-08
2.53634e-08
8.00257e-09
2.43939e-09
7.19355e-10
2.05475e-10
5.69146e-11
1.53038e-11
3.99859e-12
1.0161e-12
2.51331e-13
6.05571e-14
1.42231e-14
3.25847e-15
7.28578e-16
1.59081e-16
3.39354e-17
7.07592e-18
1.44275e-18
2.87772e-19
5.61708e-20
1.07331e-20
2.00832e-21
3.6809e-22
6.61018e-23
1.16338e-23
2.00716e-24
3.39546e-25
5.63329e-26
9.16776e-27
1.46382e-27
2.29359e-28
3.52717e-29
5.32467e-30
7.89201e-31
1.14863e-31
1.64185e-32
2.30523e-33
3.17969e-34
4.30928e-35
5.73894e-36
7.51143e-37
9.66346e-38
1.22212e-38
1.51958e-39
1.85782e-40
2.23363e-41
2.64114e-42
3.07179e-43
3.51445e-44
3.9558e-45
4.38093e-46
4.77414e-47
5.11992e-48
5.40395e-49
5.6141e-50
5.74128e-51
5.78014e-52
5.72936e-53
5.59178e-54
5.37409e-55
5.0905e-56
4.75435e-57
4.37817e-58
3.9752e-59
3.55869e-60
3.14113e-61
2.73371e-62
2.34585e-63
1.98489e-64
1.65604e-65
1.36242e-66
1.10528e-67
8.84211e-69
6.97555e-70
5.42687e-71
4.16372e-72
3.15055e-73
2.35114e-74
1.7305e-75
1.25625e-76
8.99524e-78
6.3532e-79
4.4262e-80
3.04189e-81
2.06227e-82
1.37928e-83
9.1008e-85
5.92438e-86
3.80503e-87
2.41124e-88
1.50768e-89
9.30194e-91
5.6631e-92
3.40224e-93
2.01707e-94
1.18016e-95
6.81452e-97
3.88349e-98
2.18431e-99
1.21263e-100
6.64473e-102
3.59397e-103
1.91882e-104
1.01127e-105
5.26118e-107
2.70206e-108
1.36998e-109
6.85714e-111
3.38837e-112
1.65295e-113
7.96063e-115
3.7849e-116
1.7765e-117
8.23139e-119
3.7648e-120
1.69962e-121
7.57233e-123
3.3292e-124
1.44389e-125
6.17678e-127
2.60449e-128
1.08237e-129
4.42724e-131
1.78278e-132
7.05195e-134
2.74737e-135
3.64889e-18
2.0125e-16
5.41832e-15
9.29731e-14
1.16201e-12
1.13339e-11
9.01256e-11
6.02042e-10
3.45407e-09
1.73119e-08
7.68398e-08
3.05507e-07
1.09888e-06
3.60701e-06
1.08874e-05
3.04161e-05
7.90699e-05
0.000192091
0.00043756
0.000936924
0.00188943
0.00359345
0.00645128
0.0109393
0.0175273
0.0265433
0.0379834
0.0513477
0.066054
0.078996
0.0883135
0.0932977
0.095309
0.0914168
0.0838035
0.0733994
0.0615111
0.0490851
0.0371663
0.0266454
0.0180775
0.0115649
0.00696951
0.00396177
0.00212587
0.00107917
0.00051939
0.000237216
0.000103064
4.26853e-05
1.6883e-05
6.38991e-06
2.31883e-06
8.08315e-07
2.71139e-07
8.76623e-08
2.7359e-08
8.25403e-09
2.41031e-09
6.82094e-10
1.87266e-10
4.99301e-11
1.29408e-11
3.26309e-12
8.01149e-13
1.91659e-13
4.47062e-14
1.01741e-14
2.26026e-15
4.90437e-16
1.03986e-16
2.1554e-17
4.36937e-18
8.66579e-19
1.68209e-19
3.19658e-20
5.949e-21
1.08455e-21
1.93739e-22
3.392e-23
5.8219e-24
9.7981e-25
1.61726e-25
2.61855e-26
4.15979e-27
6.4847e-28
9.92181e-29
1.49021e-29
2.1975e-30
3.18202e-31
4.52517e-32
6.32102e-33
8.67402e-34
1.16948e-34
1.5494e-35
2.01738e-36
2.58178e-37
3.24796e-38
4.01712e-39
4.88518e-40
5.84195e-41
6.8706e-42
7.94762e-43
9.04341e-44
1.01234e-44
1.11495e-45
1.20829e-46
1.28859e-47
1.35246e-48
1.39715e-49
1.42071e-50
1.42218e-51
1.40162e-52
1.36008e-53
1.30036e-54
1.22562e-55
1.1388e-56
1.04314e-57
9.41971e-59
8.38569e-60
7.35959e-61
6.36783e-62
5.43205e-63
4.56858e-64
3.7884e-65
3.09742e-66
2.49703e-67
1.9849e-68
1.55583e-69
1.20254e-70
9.16588e-72
6.8896e-73
5.10713e-74
3.73367e-75
2.69209e-76
1.91448e-77
1.34288e-78
9.291e-80
6.34082e-81
4.26876e-82
2.83496e-83
1.85736e-84
1.20052e-85
7.65562e-87
4.81666e-88
2.99007e-89
1.83149e-90
1.10696e-91
6.60203e-93
3.8856e-94
2.25679e-95
1.29357e-96
7.31759e-98
4.08549e-99
2.25129e-100
1.22446e-101
6.57346e-103
3.48334e-104
1.82205e-105
9.40805e-107
4.79537e-108
2.41289e-109
1.19854e-110
5.87717e-112
2.84503e-113
1.35959e-114
6.41391e-116
2.98689e-117
1.37299e-118
6.22948e-120
2.78937e-121
1.23252e-122
5.37273e-124
2.31019e-125
9.79319e-127
4.09217e-128
1.684e-129
6.82503e-131
2.72116e-132
1.06931e-133
5.25982e-17
2.7531e-15
7.12777e-14
1.17464e-12
1.41126e-11
1.32407e-10
1.01354e-09
6.52391e-09
3.60945e-08
1.7456e-07
7.48191e-07
2.8757e-06
1.00121e-05
3.1848e-05
9.32227e-05
0.000252573
0.000636381
0.00149667
0.00329516
0.00680715
0.0132173
0.0241473
0.0415159
0.0671203
0.101947
0.145555
0.196067
0.250581
0.304751
0.346612
0.372099
0.383568
0.38656
0.370849
0.342278
0.302934
0.257754
0.214847
0.170391
0.127827
0.0908977
0.061417
0.0389072
0.0232238
0.0130495
0.00691597
0.00346652
0.0016465
0.000742517
0.000318556
0.000130282
5.09012e-05
1.90381e-05
6.83035e-06
2.35507e-06
7.81742e-07
2.50222e-07
7.7346e-08
2.31207e-08
6.69216e-09
1.87779e-09
5.11341e-10
1.35267e-10
3.47926e-11
8.7089e-12
2.12303e-12
5.044e-13
1.1687e-13
2.64238e-14
5.83306e-15
1.25783e-15
2.65078e-16
5.46183e-17
1.10074e-17
2.17058e-18
4.18943e-19
7.91698e-20
1.46527e-20
2.65672e-21
4.72016e-22
8.21969e-23
1.40327e-23
2.34913e-24
3.85693e-25
6.21197e-26
9.81637e-27
1.52224e-27
2.31686e-28
3.46157e-29
5.07773e-30
7.31403e-31
1.03466e-31
1.43765e-32
1.96239e-33
2.63178e-34
3.4682e-35
4.49163e-36
5.71746e-37
7.15408e-38
8.80047e-39
1.06441e-39
1.26595e-40
1.48071e-41
1.70341e-42
1.92756e-43
2.14577e-44
2.35011e-45
2.5326e-46
2.6857e-47
2.80288e-48
2.87904e-49
2.91091e-50
2.89724e-51
2.8389e-52
2.74024e-53
2.607e-54
2.44467e-55
2.25958e-56
2.0586e-57
1.84867e-58
1.63643e-59
1.42791e-60
1.22824e-61
1.04149e-62
8.70634e-64
7.17517e-65
5.8299e-66
4.6702e-67
3.68868e-68
2.87264e-69
2.20589e-70
1.67029e-71
1.24716e-72
9.18316e-74
6.66834e-75
4.77546e-76
3.37289e-77
2.34961e-78
1.6144e-79
1.09413e-80
7.31444e-82
4.82357e-83
3.13796e-84
2.01388e-85
1.2751e-86
7.96525e-88
4.90921e-89
2.98538e-90
1.79135e-91
1.06064e-92
6.19699e-94
3.57301e-95
2.03303e-96
1.14163e-97
6.32691e-99
3.46067e-100
1.86829e-101
9.95533e-103
5.23611e-104
2.71841e-105
1.3931e-106
7.04732e-108
3.5192e-109
1.7348e-110
8.44191e-112
4.05526e-113
1.92299e-114
9.00129e-116
4.15893e-117
1.89664e-118
8.53628e-120
3.79132e-121
1.66134e-122
7.18136e-124
3.06105e-125
1.28638e-126
5.32664e-128
2.17327e-129
8.73274e-131
3.46106e-132
4.97857e-16
2.51804e-14
6.35626e-13
1.01631e-11
1.18325e-10
1.07589e-09
7.97962e-09
4.96965e-08
2.65645e-07
1.24067e-06
5.13832e-06
1.91025e-05
6.43876e-05
0.000198387
0.000562493
0.00147561
0.0035974
0.00818058
0.0174102
0.0347871
0.0654576
0.116376
0.196341
0.315866
0.447412
0.534294
0.616197
0.671863
0.702271
0.729696
0.749533
0.766682
0.777939
0.78361
0.779883
0.759988
0.718337
0.648483
0.558627
0.451363
0.338262
0.243771
0.165722
0.10489
0.0626258
0.0349806
0.018423
0.00916068
0.00431337
0.00192726
0.000818876
0.000331617
0.00012829
4.7518e-05
1.68861e-05
5.76823e-06
1.89742e-06
6.02003e-07
1.84498e-07
5.46944e-08
1.57036e-08
4.37187e-09
1.18144e-09
3.10214e-10
7.92153e-11
1.96887e-11
4.76665e-12
1.12487e-12
2.5892e-13
5.81639e-14
1.27586e-14
2.73418e-15
5.72695e-16
1.17293e-16
2.34988e-17
4.60673e-18
8.84017e-19
1.66104e-19
3.05687e-20
5.51146e-21
9.73772e-22
1.68637e-22
2.86316e-23
4.76686e-24
7.78389e-25
1.24687e-25
1.95969e-26
3.02251e-27
4.57546e-28
6.79924e-29
9.91996e-30
1.42118e-30
1.99959e-31
2.76341e-32
3.75164e-33
5.00412e-34
6.55871e-35
8.44792e-36
1.06948e-36
1.33089e-37
1.62819e-38
1.95845e-39
2.3164e-40
2.69436e-41
3.08236e-42
3.46851e-43
3.83954e-44
4.18153e-45
4.48079e-46
4.72476e-47
4.90287e-48
5.00734e-49
5.03375e-50
4.98124e-51
4.85504e-52
4.66321e-53
4.41394e-54
4.11742e-55
3.78521e-56
3.42951e-57
3.06241e-58
2.69525e-59
2.33806e-60
1.99916e-61
1.68496e-62
1.39991e-63
1.14655e-64
9.25727e-66
7.36865e-67
5.7826e-68
4.4741e-69
3.41313e-70
2.56734e-71
1.9042e-72
1.39271e-73
1.00448e-74
7.14458e-76
5.01167e-77
3.46718e-78
2.3658e-79
1.59222e-80
1.05699e-81
6.92146e-83
4.47098e-84
2.84906e-85
1.79108e-86
1.11085e-87
6.79744e-89
4.10392e-90
2.44474e-91
1.43703e-92
8.33512e-94
4.77077e-95
2.69471e-96
1.50209e-97
8.2634e-99
4.48654e-100
2.4042e-101
1.27159e-102
6.63829e-104
3.42063e-105
1.73984e-106
8.73517e-108
4.32914e-109
2.11788e-110
1.02276e-111
4.87542e-113
2.2941e-114
1.06551e-115
4.88455e-117
2.20994e-118
9.86706e-120
4.34685e-121
1.88921e-122
8.09825e-124
3.42321e-125
1.42647e-126
5.85966e-128
2.3727e-129
9.48298e-131
2.93987e-15
1.46028e-13
3.6449e-12
5.71558e-11
6.49392e-10
5.74718e-09
4.14625e-08
2.51415e-07
1.31129e-06
5.98897e-06
2.42882e-05
8.84531e-05
0.000292065
0.000881935
0.00245466
0.00634173
0.0153063
0.0347267
0.0745189
0.152081
0.296236
0.468909
0.582988
0.664471
0.70282
0.737273
0.753358
0.764127
0.768293
0.775496
0.79137
0.811915
0.837976
0.862454
0.885826
0.903904
0.914334
0.918841
0.906462
0.873667
0.806999
0.686919
0.529095
0.361784
0.233259
0.139329
0.0780348
0.0409818
0.0203041
0.00951206
0.00422376
0.00178204
0.000716218
0.000274908
0.000101013
3.56091e-05
1.2067e-05
3.93795e-06
1.23964e-06
3.76984e-07
1.10907e-07
3.16046e-08
8.73388e-09
2.34312e-09
6.10858e-10
1.54895e-10
3.82335e-11
9.1937e-12
2.15515e-12
4.92813e-13
1.09991e-13
2.39736e-14
5.10532e-15
1.06273e-15
2.16325e-16
4.30771e-17
8.3944e-18
1.60132e-18
2.9912e-19
5.4728e-20
9.81039e-21
1.72339e-21
2.96755e-22
5.00987e-23
8.2939e-24
1.34673e-24
2.14521e-25
3.35281e-26
5.14243e-27
7.74141e-28
1.14402e-28
1.65987e-29
2.36486e-30
3.30895e-31
4.54767e-32
6.13986e-33
8.14435e-34
1.06154e-34
1.35974e-35
1.71184e-36
2.11841e-37
2.57721e-38
3.08268e-39
3.62572e-40
4.19368e-41
4.77064e-42
5.33806e-43
5.8757e-44
6.36282e-45
6.77945e-46
7.10783e-47
7.3336e-48
7.44692e-49
7.44306e-50
7.32642e-51
7.10541e-52
6.78983e-53
6.39311e-54
5.93144e-55
5.42271e-56
4.88538e-57
4.33733e-58
3.79497e-59
3.27245e-60
2.78122e-61
2.32975e-62
1.92361e-63
1.56557e-64
1.25601e-65
9.93347e-67
7.74482e-68
5.95311e-69
4.51146e-70
3.37093e-71
2.48348e-72
1.80414e-73
1.29239e-74
9.12963e-76
6.36013e-77
4.3697e-78
2.96093e-79
1.97885e-80
1.30445e-81
8.48179e-83
5.44016e-84
3.44207e-85
2.14846e-86
1.32298e-87
8.0374e-89
4.81761e-90
2.84917e-91
1.66262e-92
9.5735e-94
5.43964e-95
3.05005e-96
1.6877e-97
9.21619e-99
4.96695e-100
2.64195e-101
1.38697e-102
7.18676e-104
3.67561e-105
1.85553e-106
9.24605e-108
4.54777e-109
2.208e-110
1.05817e-111
5.00567e-113
2.33728e-114
1.07717e-115
4.89954e-117
2.19934e-118
9.74192e-120
4.25758e-121
1.83557e-122
7.8057e-124
3.27357e-125
1.35397e-126
5.52405e-128
2.22597e-129
1.12713e-14
5.64699e-13
1.42057e-11
2.22279e-10
2.50799e-09
2.19615e-08
1.56428e-07
9.36099e-07
4.81874e-06
2.17096e-05
8.67856e-05
0.000311666
0.00101742
0.0030534
0.00851284
0.0222514
0.0549536
0.129031
0.28918
0.471987
0.579922
0.631208
0.655389
0.664922
0.666824
0.637828
0.579482
0.530571
0.49824
0.486531
0.505327
0.549959
0.620924
0.711126
0.794598
0.866136
0.915897
0.943942
0.95906
0.966299
0.966548
0.95173
0.911399
0.822848
0.649394
0.435071
0.26173
0.147031
0.0774429
0.0383584
0.0179315
0.00793236
0.00333018
0.00133077
0.000507608
0.00018529
6.48731e-05
2.18305e-05
7.07386e-06
2.21093e-06
6.67557e-07
1.94988e-07
5.51689e-08
1.51378e-08
4.03256e-09
1.04396e-09
2.62883e-10
6.44439e-11
1.53911e-11
3.5837e-12
8.14031e-13
1.80489e-13
3.90834e-14
8.26947e-15
1.71041e-15
3.45971e-16
6.84632e-17
1.32589e-17
2.51377e-18
4.66705e-19
8.48752e-20
1.51235e-20
2.64094e-21
4.52066e-22
7.58707e-23
1.24872e-23
2.01583e-24
3.19247e-25
4.96084e-26
7.5651e-27
1.13233e-27
1.6638e-28
2.40028e-29
3.40032e-30
4.73079e-31
6.46493e-32
8.67898e-33
1.14473e-33
1.48362e-34
1.88964e-35
2.36551e-36
2.91078e-37
3.52115e-38
4.1879e-39
4.89772e-40
5.63279e-41
6.37132e-42
7.08854e-43
7.758e-44
8.35316e-45
8.84916e-46
9.22454e-47
9.46281e-48
9.55361e-49
9.49831e-50
9.30258e-51
8.97542e-52
8.53126e-53
7.98902e-54
7.3708e-55
6.70032e-56
6.00146e-57
5.29688e-58
4.60685e-59
3.94847e-60
3.33513e-61
2.77637e-62
2.27793e-63
1.84214e-64
1.46839e-65
1.15377e-66
8.93671e-68
6.82391e-69
5.13698e-70
3.8126e-71
2.78993e-72
2.013e-73
1.43216e-74
1.00475e-75
6.95126e-77
4.7427e-78
3.19127e-79
2.11786e-80
1.38627e-81
8.95013e-83
5.69986e-84
3.58072e-85
2.21904e-86
1.35665e-87
8.18273e-89
4.86935e-90
2.85893e-91
1.65621e-92
9.46722e-94
5.34e-95
2.97227e-96
1.63259e-97
8.84968e-99
4.73424e-100
2.49954e-101
1.30248e-102
6.69873e-104
3.40046e-105
1.70379e-106
8.42619e-108
4.11331e-109
1.98197e-110
9.42645e-112
4.42523e-113
2.05046e-114
9.37726e-116
4.23238e-117
1.88515e-118
8.28554e-120
3.59309e-121
1.53728e-122
6.48882e-124
2.70233e-125
1.11076e-126
4.51188e-128
2.95517e-14
1.843e-12
4.75172e-11
6.92928e-10
6.91936e-09
6.03765e-08
4.29795e-07
2.57049e-06
1.31858e-05
5.90683e-05
0.000234814
0.00084114
0.00275462
0.00835361
0.0236992
0.0633225
0.159804
0.368245
0.507746
0.574341
0.599905
0.607212
0.570565
0.469871
0.327262
0.227019
0.168898
0.144459
0.135431
0.133279
0.142076
0.157825
0.188419
0.250113
0.372604
0.550882
0.747661
0.867202
0.933282
0.966016
0.980398
0.986212
0.987068
0.97748
0.947104
0.866058
0.672392
0.421017
0.238524
0.126156
0.0626411
0.0292823
0.0129272
0.00540856
0.00215186
0.000816654
0.00029644
0.00010317
3.45003e-05
1.11065e-05
3.44812e-06
1.03401e-06
2.99937e-07
8.42709e-08
2.29611e-08
6.07369e-09
1.56134e-09
3.90416e-10
9.50405e-11
2.2541e-11
5.21228e-12
1.17584e-12
2.58936e-13
5.56918e-14
1.17046e-14
2.40482e-15
4.83225e-16
9.49991e-17
1.82787e-17
3.44322e-18
6.35196e-19
1.14787e-19
2.0325e-20
3.52718e-21
6.0004e-22
1.00087e-22
1.63724e-23
2.62703e-24
4.13534e-25
6.38747e-26
9.68255e-27
1.44066e-27
2.10433e-28
3.01792e-29
4.25017e-30
5.87855e-31
7.98653e-32
1.06592e-32
1.39775e-33
1.80104e-34
2.28064e-35
2.83846e-36
3.47258e-37
4.17651e-38
4.9387e-39
5.74247e-40
6.56623e-41
7.38431e-42
8.16815e-43
8.88795e-44
9.51449e-45
1.00211e-45
1.03857e-46
1.05923e-47
1.06377e-48
1.05221e-49
1.02511e-50
9.83711e-52
9.29858e-53
8.65841e-54
7.94247e-55
7.1778e-56
6.39099e-57
5.60671e-58
4.84655e-59
4.12822e-60
3.46513e-61
2.86633e-62
2.33669e-63
1.87745e-64
1.48679e-65
1.16055e-66
8.92966e-68
6.77304e-69
5.06443e-70
3.73334e-71
2.71335e-72
1.94435e-73
1.37381e-74
9.5715e-76
6.57593e-77
4.45531e-78
2.97688e-79
1.96168e-80
1.27496e-81
8.17315e-83
5.168e-84
3.22342e-85
1.9833e-86
1.20381e-87
7.20853e-89
4.25861e-90
2.48222e-91
1.42752e-92
8.10051e-94
4.53571e-95
2.50609e-96
1.36642e-97
7.35232e-99
3.90417e-100
2.04604e-101
1.05825e-102
5.40221e-104
2.72187e-105
1.35359e-106
6.64416e-108
3.21905e-109
1.5394e-110
7.26631e-112
3.38537e-113
1.55675e-114
7.06542e-116
3.16479e-117
1.399e-118
6.10295e-120
2.62725e-121
1.11617e-122
4.68048e-124
1.93803e-125
7.93405e-127
5.68091e-14
2.9746e-12
7.39811e-11
1.22989e-09
1.734e-08
1.60551e-07
1.26474e-06
8.48374e-06
4.59373e-05
0.000201966
0.000774452
0.00265037
0.0081008
0.0220894
0.0561228
0.157934
0.357714
0.488158
0.54586
0.564784
0.556439
0.462964
0.273446
0.165063
0.112258
0.0877009
0.0789358
0.0772096
0.0819107
0.0851959
0.0911705
0.0937826
0.0960596
0.0994123
0.115531
0.166701
0.303994
0.587151
0.797107
0.905993
0.960357
0.983832
0.992135
0.994864
0.993801
0.984309
0.950923
0.844524
0.588799
0.336885
0.179653
0.0895955
0.0419303
0.0184909
0.00771662
0.00305917
0.00115593
0.000417503
0.000144505
4.80367e-05
1.53674e-05
4.73975e-06
1.41173e-06
4.06673e-07
1.13456e-07
3.06928e-08
8.0606e-09
2.05715e-09
5.10669e-10
1.23413e-10
2.90582e-11
6.67071e-12
1.49401e-12
3.2664e-13
6.97518e-14
1.45555e-14
2.9695e-15
5.92518e-16
1.15677e-16
2.21042e-17
4.13543e-18
7.57732e-19
1.36012e-19
2.39233e-20
4.12425e-21
6.97025e-22
1.15511e-22
1.87739e-23
2.99312e-24
4.68175e-25
7.18593e-26
1.08248e-26
1.6006e-27
2.32348e-28
3.31173e-29
4.63542e-30
6.37237e-31
8.60495e-32
1.14153e-32
1.48789e-33
1.9057e-34
2.39876e-35
2.96769e-36
3.60912e-37
4.31501e-38
5.07231e-39
5.86302e-40
6.66456e-41
7.45078e-42
8.19322e-43
8.86283e-44
9.43187e-45
9.87577e-46
1.01753e-46
1.03228e-47
1.03124e-48
1.01452e-49
9.8292e-51
9.37898e-52
8.81454e-53
8.15973e-54
7.44062e-55
6.6838e-56
5.91484e-57
5.15692e-58
4.42986e-59
3.74943e-60
3.12707e-61
2.57e-62
2.08148e-63
1.66142e-64
1.307e-65
1.01341e-66
7.74523e-68
5.83498e-69
4.33337e-70
3.1726e-71
2.28997e-72
1.62963e-73
1.14345e-74
7.91104e-76
5.3971e-77
3.63093e-78
2.40894e-79
1.57619e-80
1.01714e-81
6.47386e-83
4.06423e-84
2.51678e-85
1.53738e-86
9.26415e-88
5.50729e-89
3.22996e-90
1.86895e-91
1.067e-92
6.01044e-94
3.34076e-95
1.8323e-96
9.91694e-98
5.29666e-99
2.79181e-100
1.45226e-101
7.45567e-103
3.77771e-104
1.88921e-105
9.32504e-107
4.54306e-108
2.18463e-109
1.03691e-110
4.85783e-112
2.24634e-113
1.02527e-114
4.61875e-116
2.05366e-117
9.01269e-119
3.90407e-120
1.66945e-121
7.04872e-123
2.93987e-124
1.2128e-125
1.19279e-13
3.92196e-12
1.07926e-10
1.86812e-09
2.07194e-08
1.88926e-07
1.45198e-06
9.76619e-06
5.57376e-05
0.00025757
0.00100132
0.00351312
0.0112237
0.0337044
0.106395
0.278617
0.43853
0.50958
0.536448
0.524961
0.405387
0.216217
0.125895
0.0872413
0.0730581
0.0685801
0.0675987
0.0690936
0.0730175
0.0798849
0.0905257
0.0982829
0.102479
0.0931402
0.0893751
0.0924516
0.119599
0.230121
0.532699
0.772253
0.898429
0.959003
0.985176
0.9948
0.997529
0.997752
0.994601
0.979475
0.920287
0.715458
0.420922
0.22693
0.113715
0.0532791
0.023472
0.00977171
0.00386054
0.00145251
0.00052203
0.000179687
5.93737e-05
1.88728e-05
5.78183e-06
1.71011e-06
4.89092e-07
1.35449e-07
3.63694e-08
9.47933e-09
2.40081e-09
5.91413e-10
1.41827e-10
3.31362e-11
7.54814e-12