/*--------------------------------*- C++ -*----------------------------------*\
  =========                 |
  \\      /  F ield         | OpenFOAM: The Open Source CFD Toolbox
   \\    /   O peration     | Website:  https://openfoam.org
    \\  /    A nd           | Version:  7
     \\/     M anipulation  |
\*---------------------------------------------------------------------------*/
FoamFile
{
    version     2.0;
    format      ascii;
    class       volScalarField;
    location    "0.04";
    object      k;
}
// * * * * * * * * * * * * * * * * * * * * * * * * * * * * * * * * * * * * * //

dimensions      [0 2 -2 0 0 0 0];

internalField   nonuniform List<scalar> 
12225
(
1.93512e-05
1.80648e-05
1.66605e-05
1.54108e-05
1.39988e-05
1.23873e-05
1.13536e-05
1.21835e-05
1.06628e-05
7.99727e-06
6.80107e-06
5.59808e-06
4.76273e-06
4.47799e-06
4.40732e-06
4.25169e-06
3.79944e-06
5.22455e-06
1.99817e-05
1.98839e-05
1.96693e-05
1.94575e-05
1.9191e-05
1.84983e-05
1.82939e-05
1.93943e-05
1.96374e-05
1.85668e-05
1.69347e-05
1.60929e-05
1.54953e-05
1.48107e-05
1.41379e-05
1.36606e-05
1.34185e-05
1.32331e-05
1.99996e-05
1.94619e-05
1.91929e-05
1.91359e-05
1.9033e-05
1.89014e-05
1.88968e-05
1.91041e-05
1.91971e-05
1.91152e-05
1.88551e-05
1.85785e-05
1.84011e-05
1.82059e-05
1.80093e-05
1.77098e-05
1.75745e-05
1.73134e-05
2.02457e-05
2.01228e-05
1.95731e-05
1.75777e-05
1.63e-05
1.62361e-05
1.62931e-05
1.64117e-05
1.66647e-05
1.72676e-05
1.77852e-05
1.81049e-05
1.8277e-05
1.83222e-05
1.83184e-05
1.82793e-05
1.82633e-05
1.82398e-05
2.0668e-05
2.13654e-05
2.25125e-05
2.23339e-05
2.18118e-05
2.08881e-05
1.89993e-05
1.73131e-05
1.69933e-05
1.71911e-05
1.79387e-05
1.8812e-05
1.92648e-05
1.9462e-05
1.95418e-05
1.95903e-05
1.9671e-05
1.98234e-05
2.11168e-05
2.13924e-05
2.20305e-05
2.26885e-05
2.28531e-05
2.28069e-05
2.25425e-05
2.19161e-05
2.13795e-05
2.08171e-05
2.04044e-05
2.02582e-05
2.02453e-05
2.02739e-05
2.03961e-05
2.07267e-05
2.15347e-05
2.36456e-05
2.14048e-05
2.17365e-05
2.13528e-05
2.1278e-05
2.13283e-05
2.14627e-05
2.18714e-05
2.2345e-05
2.25388e-05
2.25403e-05
2.24242e-05
2.20755e-05
2.18753e-05
2.18262e-05
2.18315e-05
2.18994e-05
2.22069e-05
2.32893e-05
2.03591e-05
2.22456e-05
2.48062e-05
2.4677e-05
2.31546e-05
2.16915e-05
2.14414e-05
2.16489e-05
2.21951e-05
2.23176e-05
2.22455e-05
2.20535e-05
2.1994e-05
2.20007e-05
2.20782e-05
2.24487e-05
2.31834e-05
2.4418e-05
2.00318e-05
2.03865e-05
2.25265e-05
2.65226e-05
2.66715e-05
2.54961e-05
2.41858e-05
2.3872e-05
2.38146e-05
2.37306e-05
2.34393e-05
2.29982e-05
2.285e-05
2.2846e-05
2.29309e-05
2.33769e-05
2.46836e-05
2.58631e-05
2.00109e-05
2.07022e-05
2.52898e-05
2.76039e-05
2.73045e-05
2.54938e-05
2.40413e-05
2.34503e-05
2.32436e-05
2.31321e-05
2.29302e-05
2.24466e-05
2.18785e-05
2.16532e-05
2.18443e-05
2.2839e-05
2.39241e-05
2.47338e-05
2.00317e-05
2.06851e-05
2.23805e-05
2.25594e-05
2.25065e-05
2.24671e-05
2.24756e-05
2.25436e-05
2.27941e-05
2.29718e-05
2.2976e-05
2.28418e-05
2.24753e-05
2.22815e-05
2.22495e-05
2.22733e-05
2.23415e-05
2.24922e-05
2.00633e-05
2.09051e-05
2.18494e-05
2.17566e-05
2.15323e-05
2.14029e-05
2.13136e-05
2.13023e-05
2.1353e-05
2.1477e-05
2.17147e-05
2.21949e-05
2.26251e-05
2.27897e-05
2.27785e-05
2.2629e-05
2.25269e-05
2.25151e-05
2.02069e-05
2.0751e-05
2.09576e-05
2.09982e-05
2.1074e-05
2.13487e-05
2.14185e-05
2.12785e-05
2.0751e-05
2.05468e-05
2.05692e-05
2.07668e-05
2.14104e-05
2.18509e-05
2.20907e-05
2.22121e-05
2.24504e-05
2.26707e-05
2.00221e-05
2.02477e-05
2.14279e-05
2.28912e-05
2.30786e-05
2.29012e-05
2.21086e-05
2.11237e-05
2.06008e-05
2.03824e-05
2.03366e-05
2.03611e-05
2.05081e-05
2.06795e-05
2.07962e-05
2.09382e-05
2.12079e-05
2.18782e-05
2.00726e-05
2.04541e-05
2.19111e-05
2.27422e-05
2.23544e-05
2.12113e-05
2.07574e-05
2.06867e-05
2.07003e-05
2.06863e-05
2.06755e-05
2.07129e-05
2.07579e-05
2.07634e-05
2.07579e-05
2.07576e-05
2.07843e-05
2.09515e-05
2.09721e-05
2.09918e-05
2.09402e-05
2.07871e-05
2.05207e-05
2.03987e-05
2.04027e-05
2.05017e-05
2.06331e-05
2.06958e-05
2.07225e-05
2.07249e-05
2.07105e-05
2.06363e-05
2.05116e-05
2.04411e-05
2.04394e-05
2.05709e-05
2.04992e-05
2.1242e-05
2.13323e-05
2.09084e-05
2.04338e-05
2.02953e-05
2.02732e-05
2.02815e-05
2.03028e-05
2.03434e-05
2.0448e-05
2.05286e-05
2.05962e-05
2.07202e-05
2.09235e-05
2.11537e-05
2.13104e-05
2.13612e-05
2.03541e-05
2.04931e-05
2.04215e-05
2.03401e-05
2.03295e-05
2.03342e-05
2.03486e-05
2.03856e-05
2.04106e-05
2.04394e-05
2.04873e-05
2.05306e-05
2.05615e-05
2.06049e-05
2.06726e-05
2.07469e-05
2.07964e-05
2.08145e-05
2.02899e-05
2.04466e-05
2.0596e-05
2.10914e-05
2.14375e-05
2.1457e-05
2.12692e-05
2.07928e-05
2.05508e-05
2.04767e-05
2.04646e-05
2.0458e-05
2.04331e-05
2.03642e-05
2.03407e-05
2.03426e-05
2.03498e-05
2.03646e-05
2.04042e-05
2.06808e-05
2.08265e-05
2.0887e-05
2.0884e-05
2.08082e-05
2.06135e-05
2.05017e-05
2.04618e-05
2.0457e-05
2.04671e-05
2.04726e-05
2.04574e-05
2.042e-05
2.04195e-05
2.04395e-05
2.05089e-05
2.06975e-05
2.04389e-05
2.03804e-05
2.03822e-05
2.04781e-05
2.06479e-05
2.06976e-05
2.06919e-05
2.06294e-05
2.05246e-05
2.04687e-05
2.0443e-05
2.04286e-05
2.04226e-05
2.04222e-05
2.04237e-05
2.04331e-05
2.0473e-05
2.06051e-05
2.04001e-05
2.0369e-05
2.02496e-05
2.03023e-05
2.05892e-05
2.08865e-05
2.09839e-05
2.09821e-05
2.08878e-05
2.06668e-05
2.0598e-05
2.0608e-05
2.0616e-05
2.06224e-05
2.06577e-05
2.08165e-05
2.1086e-05
2.1241e-05
2.0131e-05
2.01884e-05
2.02705e-05
2.04712e-05
2.06299e-05
2.06977e-05
2.07062e-05
2.06889e-05
2.0593e-05
2.04558e-05
2.03818e-05
2.03529e-05
2.03559e-05
2.0363e-05
2.04165e-05
2.05856e-05
2.07051e-05
2.07521e-05
2.00055e-05
2.00922e-05
2.04061e-05
2.05867e-05
2.05919e-05
2.05028e-05
2.03803e-05
2.03166e-05
2.02668e-05
2.02209e-05
2.01865e-05
2.01717e-05
2.01726e-05
2.02007e-05
2.03385e-05
2.08787e-05
2.16714e-05
2.21295e-05
2.00153e-05
2.03067e-05
2.08394e-05
2.09481e-05
2.08654e-05
2.0654e-05
2.05314e-05
2.03742e-05
2.02915e-05
2.02519e-05
2.02347e-05
2.02305e-05
2.02317e-05
2.0242e-05
2.02793e-05
2.03936e-05
2.0757e-05
2.15144e-05
2.00607e-05
2.02316e-05
2.03282e-05
2.03507e-05
2.05244e-05
2.1275e-05
2.13403e-05
2.11138e-05
2.09179e-05
2.07754e-05
2.06314e-05
2.05175e-05
2.04554e-05
2.04376e-05
2.04395e-05
2.04659e-05
2.05681e-05
2.06531e-05
2.01252e-05
2.00949e-05
2.00317e-05
1.99703e-05
1.99455e-05
1.98996e-05
1.98179e-05
1.98278e-05
1.98993e-05
1.99194e-05
1.99025e-05
1.99139e-05
1.9962e-05
2.0064e-05
2.02761e-05
2.07358e-05
2.14319e-05
2.15779e-05
2.02138e-05
1.79949e-05
1.45322e-05
1.49975e-05
1.62849e-05
1.81842e-05
2.17097e-05
3.02763e-05
4.28867e-05
5.18669e-05
5.79614e-05
6.20727e-05
6.46467e-05
6.66497e-05
7.07957e-05
7.71804e-05
8.58689e-05
9.07297e-05
3.28316e-05
0.000104094
0.000170271
0.000214461
0.000238857
0.000265921
0.000325363
0.000451718
0.000553912
0.000596433
0.000601019
0.00059838
0.000588246
0.000577668
0.000573063
0.000573609
0.000585515
0.000609278
0.00274528
0.00274455
0.00250618
0.00217559
0.00209836
0.00211436
0.00219949
0.00223916
0.00223476
0.00217351
0.00194117
0.00166563
0.00146905
0.00134145
0.00126895
0.00123395
0.00122005
0.00121275
9.33021e-06
3.05143e-05
3.19451e-05
3.14305e-05
3.44921e-05
4.31582e-05
5.52059e-05
6.92188e-05
8.6169e-05
0.00010613
0.000122405
0.000152218
0.000173163
0.000202938
0.000218993
0.000251791
0.000278483
0.000302291
0.000304791
0.000329146
0.00040102
0.000544267
0.000842146
0.00131517
0.00154702
0.00170409
0.00225209
0.00459438
0.00662018
0.00874519
0.0150687
0.0303148
0.0303683
0.00952422
0.00220832
0.00111177
0.000923068
0.000899782
0.000868484
0.000850948
0.000724472
0.000614012
0.000476164
0.000360045
0.000269911
0.000178843
0.000135647
9.22316e-05
7.28119e-05
6.10425e-05
5.65973e-05
5.60819e-05
5.43072e-05
5.3018e-05
5.08018e-05
4.91733e-05
4.72178e-05
4.62099e-05
4.41878e-05
4.27062e-05
4.09424e-05
3.92779e-05
3.85015e-05
3.77254e-05
3.65755e-05
3.59471e-05
3.53856e-05
3.49854e-05
3.45009e-05
3.38476e-05
3.31551e-05
3.2708e-05
3.15564e-05
2.97388e-05
2.78827e-05
2.65961e-05
2.47826e-05
2.25104e-05
2.11033e-05
1.89691e-05
1.73742e-05
1.55838e-05
1.39276e-05
1.23408e-05
1.08577e-05
9.51354e-06
8.33942e-06
7.32452e-06
6.44231e-06
5.66539e-06
4.98045e-06
4.3761e-06
3.84232e-06
3.37038e-06
2.95269e-06
2.58272e-06
2.25477e-06
1.96385e-06
1.70565e-06
1.47635e-06
1.27254e-06
1.0909e-06
9.26295e-07
7.76415e-07
6.4253e-07
5.25367e-07
4.24782e-07
3.40043e-07
2.70045e-07
2.13231e-07
1.67429e-07
1.30326e-07
1.00485e-07
7.67414e-08
5.80499e-08
4.35434e-08
3.23793e-08
2.3849e-08
1.75209e-08
1.28557e-08
9.41433e-09
6.87325e-09
4.99618e-09
3.61088e-09
2.59137e-09
1.84473e-09
1.30158e-09
9.09646e-10
6.294e-10
4.30996e-10
2.92004e-10
1.95699e-10
1.29738e-10
8.51068e-11
5.52678e-11
3.55412e-11
2.26394e-11
1.42882e-11
8.93659e-12
5.54055e-12
3.40587e-12
2.07635e-12
1.25564e-12
7.5337e-13
4.48525e-13
2.65003e-13
1.55399e-13
9.0458e-14
5.2284e-14
3.00218e-14
1.71419e-14
9.74921e-15
5.5396e-15
3.16135e-15
1.82829e-15
1.08707e-15
6.78485e-16
4.5558e-16
3.35724e-16
2.72826e-16
2.41346e-16
2.27221e-16
2.22513e-16
2.22045e-16
2.22045e-16
2.22045e-16
2.22045e-16
2.22045e-16
2.22045e-16
2.22045e-16
2.22045e-16
2.22045e-16
2.22045e-16
2.22045e-16
2.22045e-16
2.22045e-16
2.08278e-15
8.52854e-13
3.78393e-10
1.61091e-07
1.38052e-05
4.23786e-05
7.17774e-05
8.30156e-05
0.000105469
0.000136642
0.000175933
0.000226742
0.000287231
0.000356099
0.000436832
0.000527427
0.000628471
0.000753983
0.000864037
0.000970237
0.00114892
0.00126993
0.00127927
0.00127919
0.00126418
0.00124296
0.00126726
0.00136603
0.00155293
0.00198752
0.00376132
0.0113205
0.0158827
0.015447
0.014929
0.0116363
0.00633723
0.00222314
0.00100367
0.000674963
0.000549079
0.000476965
0.000403582
0.000340651
0.000293691
0.000260623
0.000235713
0.000222639
0.000213405
0.000207134
0.00020453
0.000200448
0.000198483
0.000193673
0.000188099
0.000183019
0.000179327
0.000173491
0.000167155
0.000162022
0.000155961
0.00014931
0.000144832
0.000140013
0.000134486
0.000130875
0.000128731
0.000126903
0.000125067
0.000123149
0.000122278
0.000121911
0.000121728
0.00012179
0.000121142
0.000119671
0.000114691
0.000107192
9.98449e-05
9.50483e-05
8.87429e-05
8.02428e-05
7.56079e-05
7.04342e-05
6.47266e-05
6.00115e-05
5.51364e-05
5.01254e-05
4.48499e-05
3.93146e-05
3.387e-05
2.90387e-05
2.52161e-05
2.19748e-05
1.91608e-05
1.67275e-05
1.46263e-05
1.28081e-05
1.12245e-05
9.84275e-06
8.64007e-06
7.5966e-06
6.69366e-06
5.91278e-06
5.23613e-06
4.64768e-06
4.13569e-06
3.68797e-06
3.291e-06
2.93391e-06
2.60812e-06
2.30469e-06
2.01621e-06
1.7437e-06
1.4908e-06
1.26109e-06
1.0562e-06
8.76237e-07
7.20179e-07
5.86328e-07
4.72822e-07
3.77756e-07
2.98979e-07
2.34491e-07
1.8234e-07
1.40615e-07
1.07542e-07
8.15358e-08
6.12179e-08
4.54775e-08
3.34109e-08
2.42666e-08
1.74195e-08
1.23558e-08
8.65874e-09
5.99389e-09
4.09762e-09
2.767e-09
1.84711e-09
1.21938e-09
7.96232e-10
5.14393e-10
3.28858e-10
2.08108e-10
1.30394e-10
8.09192e-11
4.97522e-11
3.03156e-11
1.83113e-11
1.09659e-11
6.51159e-12
3.83426e-12
2.23896e-12
1.2966e-12
7.44747e-13
4.24358e-13
2.39947e-13
1.34705e-13
7.51406e-14
4.16982e-14
2.30623e-14
1.27483e-14
7.07346e-15
3.96615e-15
2.27003e-15
1.34579e-15
8.41865e-16
5.67101e-16
4.16618e-16
3.33888e-16
2.87786e-16
2.62123e-16
2.469e-16
2.39258e-16
2.32441e-16
2.35932e-16
2.34329e-16
3.11277e-16
3.19366e-16
2.98241e-16
3.70341e-16
5.21853e-14
2.9928e-11
1.54066e-08
1.03908e-05
3.58499e-05
6.62877e-05
0.000120233
0.000170887
0.000224139
0.000282499
0.000357884
0.00045928
0.000593517
0.000771166
0.0010003
0.00128546
0.00162058
0.00203185
0.00238654
0.00290747
0.00353454
0.00371616
0.00366868
0.0036329
0.00368775
0.00393257
0.0047645
0.00703837
0.0100956
0.0127381
0.0131944
0.0114959
0.00764922
0.0047333
0.00220282
0.00108762
0.000582126
0.000411874
0.000345843
0.000315034
0.000292359
0.000280446
0.000271265
0.000266851
0.000262003
0.00025928
0.000258347
0.000257829
0.000257626
0.000255042
0.000252788
0.000250586
0.000248494
0.000247379
0.000246121
0.000244823
0.00024521
0.000245133
0.000240488
0.000232291
0.000228052
0.000223796
0.000212888
0.000204371
0.000201382
0.00020021
0.000199965
0.000200204
0.000201868
0.000205888
0.000212537
0.000222656
0.000233359
0.000238173
0.0002399
0.000235142
0.000217306
0.000198267
0.00017632
0.000155161
0.000136796
0.000125418
0.000114054
0.00010524
9.7521e-05
9.0683e-05
8.46291e-05
7.92158e-05
7.39108e-05
6.77781e-05
6.07527e-05
5.35057e-05
4.68034e-05
4.05253e-05
3.47335e-05
2.95302e-05
2.50929e-05
2.13756e-05
1.81193e-05
1.52769e-05
1.28209e-05
1.07333e-05
8.99464e-06
7.57471e-06
6.43628e-06
5.53398e-06
4.81854e-06
4.24405e-06
3.77242e-06
3.37494e-06
3.03362e-06
2.73726e-06
2.47294e-06
2.23035e-06
2.00271e-06
1.78583e-06
1.57852e-06
1.38203e-06
1.19823e-06
1.02855e-06
8.73833e-07
7.344e-07
6.10341e-07
5.01774e-07
4.08195e-07
3.28586e-07
2.61717e-07
2.06273e-07
1.60854e-07
1.24076e-07
9.46402e-08
7.13595e-08
5.31704e-08
3.9137e-08
2.84505e-08
2.04221e-08
1.44728e-08
1.01252e-08
6.99384e-09
4.77113e-09
3.2156e-09
2.1414e-09
1.40907e-09
9.1627e-10
5.88997e-10
3.7445e-10
2.35522e-10
1.4661e-10
9.03425e-11
5.51171e-11
3.32956e-11
1.99164e-11
1.17971e-11
6.92e-12
4.02023e-12
2.31369e-12
1.31952e-12
7.46109e-13
4.18584e-13
2.33221e-13
1.29219e-13
7.13097e-14
3.92871e-14
2.16663e-14
1.20175e-14
6.73753e-15
3.86145e-15
2.28174e-15
1.41991e-15
9.35788e-16
6.71947e-16
5.1325e-16
4.37135e-16
3.75621e-16
1.57584e-15
1.00274e-15
1.65508e-14
1.04759e-14
7.29916e-15
2.96665e-15
1.04465e-14
7.21794e-12
7.30669e-10
1.46824e-05
4.80868e-05
7.94696e-05
0.00014631
0.000208636
0.000272605
0.000341382
0.000434565
0.000591836
0.000845087
0.00121992
0.00173524
0.00241869
0.00327128
0.00425542
0.00533193
0.00644562
0.00762403
0.00897883
0.00967476
0.0100161
0.010186
0.0102825
0.0104132
0.0105989
0.0106457
0.0099304
0.00671481
0.00337443
0.00197291
0.00106934
0.000604791
0.000406757
0.000333267
0.000309958
0.000302873
0.000301088
0.000301494
0.000310487
0.000327191
0.000349327
0.000373612
0.000391363
0.000402378
0.000411653
0.00041775
0.000421078
0.000422397
0.000422612
0.000419744
0.000413289
0.000393692
0.000378855
0.00037376
0.000367104
0.000349264
0.000328392
0.000319612
0.000313072
0.000300001
0.00028836
0.000284134
0.000282351
0.000281844
0.000281927
0.00028456
0.000290536
0.000296843
0.000299947
0.000302376
0.000307963
0.000316966
0.000325933
0.00032896
0.000322312
0.000301458
0.000261746
0.000217655
0.000183231
0.000153831
0.00013466
0.000119141
0.000107606
9.85023e-05
9.10258e-05
8.4771e-05
7.91818e-05
7.40785e-05
6.94218e-05
6.49933e-05
6.06422e-05
5.62274e-05
5.15015e-05
4.63111e-05
4.08276e-05
3.55075e-05
3.0538e-05
2.59077e-05
2.15813e-05
1.76791e-05
1.42449e-05
1.13026e-05
8.90755e-06
7.04694e-06
5.64292e-06
4.6027e-06
3.8373e-06
3.27021e-06
2.8414e-06
2.50721e-06
2.23968e-06
2.02024e-06
1.83048e-06
1.65316e-06
1.47733e-06
1.30738e-06
1.14596e-06
9.95172e-07
8.5682e-07
7.31712e-07
6.19361e-07
5.1938e-07
4.31519e-07
3.55292e-07
2.89947e-07
2.3454e-07
1.88027e-07
1.49345e-07
1.17474e-07
9.14671e-08
7.04645e-08
5.36807e-08
4.04151e-08
3.00524e-08
2.20581e-08
1.59729e-08
1.14065e-08
8.0312e-09
5.57568e-09
3.81774e-09
2.57881e-09
1.71889e-09
1.13088e-09
7.34665e-10
4.71463e-10
2.98994e-10
1.87415e-10
1.16117e-10
7.11128e-11
4.30493e-11
2.57618e-11
1.52419e-11
8.91795e-12
5.16229e-12
2.95825e-12
1.67971e-12
9.46029e-13
5.29352e-13
2.94719e-13
1.63762e-13
9.09328e-14
5.08311e-14
2.85511e-14
1.66606e-14
9.98721e-15
6.68143e-15
4.52057e-15
3.67609e-15
2.91673e-15
2.89131e-15
2.89212e-15
3.13422e-15
3.81148e-15
4.46173e-15
9.92986e-15
8.23883e-15
7.46801e-14
6.28704e-14
9.20413e-13
3.42501e-11
1.6411e-05
5.41383e-05
9.71005e-05
0.000164347
0.000227821
0.000295268
0.000376283
0.000492124
0.000684557
0.00101187
0.00150461
0.00221932
0.00319633
0.00443826
0.00589595
0.00740508
0.00872688
0.0096761
0.0101905
0.0103682
0.0103908
0.010233
0.00981902
0.00911979
0.00776508
0.00566985
0.00311361
0.00195767
0.0010148
0.000615786
0.000423007
0.000342425
0.000316236
0.000311669
0.000317495
0.000330789
0.000356833
0.000392489
0.00043271
0.000475377
0.000515031
0.000552186
0.000594851
0.000633183
0.000666219
0.000690582
0.00070711
0.000720949
0.000729366
0.000732169
0.000728826
0.000705789
0.000658323
0.000640568
0.000629137
0.000596417
0.000538288
0.000500923
0.00048374
0.000463635
0.000431107
0.000405268
0.000391819
0.00038228
0.000370499
0.000361434
0.000351917
0.000343289
0.000328044
0.000318476
0.000314924
0.000314755
0.000322657
0.000334016
0.000338157
0.00033705
0.00031331
0.000285594
0.000252416
0.000216317
0.000177629
0.000146064
0.000122429
0.000107155
9.64869e-05
8.85872e-05
8.23087e-05
7.71066e-05
7.26925e-05
6.88848e-05
6.55187e-05
6.24228e-05
5.94838e-05
5.64854e-05
5.32439e-05
4.96249e-05
4.57243e-05
4.18346e-05
3.79297e-05
3.36809e-05
2.89313e-05
2.37846e-05
1.86395e-05
1.41797e-05
1.061e-05
7.84155e-06
5.79056e-06
4.32166e-06
3.29718e-06
2.59468e-06
2.11246e-06
1.7731e-06
1.52851e-06
1.35319e-06
1.23115e-06
1.13522e-06
1.04483e-06
9.46107e-07
8.41271e-07
7.36564e-07
6.36164e-07
5.42785e-07
4.57918e-07
3.82227e-07
3.15808e-07
2.5836e-07
2.09323e-07
1.67972e-07
1.33502e-07
1.05077e-07
8.18683e-08
6.31181e-08
4.8137e-08
3.6304e-08
2.7067e-08
1.99428e-08
1.45154e-08
1.04339e-08
7.40544e-09
5.18817e-09
3.58604e-09
2.44429e-09
1.6433e-09
1.09074e-09
7.15042e-10
4.62709e-10
2.95459e-10
1.86117e-10
1.15631e-10
7.08425e-11
4.27974e-11
2.54956e-11
1.49803e-11
8.68494e-12
4.9722e-12
2.81444e-12
1.57779e-12
8.7816e-13
4.86843e-13
2.70016e-13
1.50622e-13
8.50447e-14
4.89052e-14
2.8835e-14
1.74879e-14
1.09389e-14
7.07504e-15
4.67237e-15
3.20726e-15
2.25323e-15
1.67373e-15
1.2914e-15
1.03296e-15
9.24218e-16
1.48318e-15
2.28519e-15
4.47259e-14
5.82742e-14
4.01451e-13
2.33283e-12
1.70439e-05
5.68519e-05
0.000107016
0.000171754
0.00023519
0.000303726
0.000391901
0.000514834
0.000687388
0.000940393
0.00136076
0.00200399
0.00280202
0.00373966
0.00481
0.00588965
0.00684756
0.00755436
0.00787354
0.00794811
0.00744978
0.00669863
0.00543443
0.00406265
0.00271742
0.00170248
0.00102019
0.000640321
0.000434236
0.000349135
0.000319941
0.000314428
0.000322548
0.00033787
0.000373146
0.000423959
0.000497595
0.000561793
0.000636965
0.000711284
0.000805504
0.000909866
0.00101879
0.00112395
0.0012082
0.00127269
0.00130712
0.00132597
0.00133278
0.00133223
0.0013263
0.00128294
0.00116893
0.00111027
0.00108187
0.00103168
0.000946741
0.000874844
0.000819633
0.00078702
0.000741815
0.000713508
0.000676377
0.000652645
0.000623045
0.000592855
0.00054582
0.000502542
0.000429413
0.000376084
0.000333887
0.000316413
0.000311966
0.00031204
0.000314838
0.000313446
0.000306309
0.00029029
0.00027098
0.000247123
0.000220634
0.000189489
0.000158886
0.000131452
0.000111127
9.70773e-05
8.7347e-05
8.01111e-05
7.45015e-05
7.02396e-05
6.68365e-05
6.39843e-05
6.14786e-05
5.91222e-05
5.67959e-05
5.43447e-05
5.15054e-05
4.82626e-05
4.50421e-05
4.20807e-05
3.94048e-05
3.67409e-05
3.3438e-05
2.87613e-05
2.30334e-05
1.73565e-05
1.2684e-05
9.05722e-06
6.35154e-06
4.41543e-06
3.08166e-06
2.1935e-06
1.6178e-06
1.24835e-06
1.00643e-06
8.44373e-07
7.37228e-07
6.72444e-07
6.28444e-07
5.85097e-07
5.32887e-07
4.74496e-07
4.14322e-07
3.55488e-07
3.00196e-07
2.49834e-07
2.05128e-07
1.66295e-07
1.33194e-07
1.05449e-07
8.25486e-08
6.39079e-08
4.89299e-08
3.70446e-08
2.77285e-08
2.05154e-08
1.4999e-08
1.08331e-08
7.72709e-09
5.44141e-09
3.78174e-09
2.59301e-09
1.75351e-09
1.16915e-09
7.68327e-10
4.97487e-10
3.17254e-10
1.99184e-10
1.23077e-10
7.48236e-11
4.47415e-11
2.63081e-11
1.52095e-11
8.64507e-12
4.83127e-12
2.65532e-12
1.43633e-12
7.65508e-13
4.02686e-13
2.09953e-13
1.09288e-13
5.71653e-14
3.0333e-14
1.65097e-14
9.32527e-15
5.53776e-15
3.4846e-15
2.2693e-15
1.66063e-15
1.08076e-15
9.40791e-16
9.36125e-16
2.15e-15
5.25071e-15
7.13185e-14
1.21712e-13
1.94168e-12
2.01734e-12
6.93141e-12
6.8559e-12
1.61375e-05
5.5851e-05
0.000108369
0.000167075
0.000223538
0.000280657
0.000356088
0.000466365
0.000612195
0.000781269
0.000981645
0.00124717
0.0016044
0.00205557
0.00258825
0.00310757
0.00353256
0.00374994
0.00382527
0.00365509
0.00322671
0.0026803
0.00202801
0.00142568
0.000965211
0.000620725
0.000450844
0.000361464
0.00032555
0.000316627
0.000323844
0.000342199
0.000390968
0.000450294
0.000531178
0.000614812
0.000703413
0.000813691
0.000940849
0.00108435
0.00124727
0.00141484
0.00158584
0.00175296
0.00191114
0.00204039
0.00210757
0.00216203
0.00219665
0.00221217
0.00220226
0.00206624
0.00184274
0.00172137
0.00158922
0.00141607
0.00125637
0.00115138
0.0010477
0.000989168
0.000919376
0.000890254
0.000847255
0.000829713
0.000817492
0.000810771
0.000804243
0.000788858
0.000743418
0.000652192
0.000503616
0.000387491
0.000347406
0.000335127
0.000328116
0.000310339
0.000283408
0.000269986
0.000260716
0.000248294
0.000227137
0.000200537
0.000172884
0.000147002
0.000124648
0.000107267
9.47769e-05
8.60151e-05
7.92504e-05
7.33982e-05
6.84865e-05
6.50246e-05
6.24207e-05
6.01647e-05
5.80512e-05
5.60193e-05
5.39713e-05
5.15666e-05
4.85235e-05
4.53895e-05
4.2664e-05
4.03759e-05
3.84839e-05
3.67877e-05
3.46102e-05
3.09515e-05
2.55004e-05
1.9443e-05
1.41343e-05
9.94604e-06
6.7894e-06
4.52391e-06
2.97078e-06
1.95072e-06
1.30633e-06
9.12182e-07
6.7487e-07
5.29437e-07
4.38656e-07
3.84967e-07
3.56697e-07
3.3711e-07
3.136e-07
2.83804e-07
2.50487e-07
2.16132e-07
1.82711e-07
1.51622e-07
1.23713e-07
9.93781e-08
7.86766e-08
6.14365e-08
4.73464e-08
3.60245e-08
2.70682e-08
2.0087e-08
1.47215e-08
1.06544e-08
7.61328e-09
5.37003e-09
3.73793e-09
2.56687e-09
1.73843e-09
1.16077e-09
7.63854e-10
4.95215e-10
3.16174e-10
1.98714e-10
1.22888e-10
7.47451e-11
4.4695e-11
2.62628e-11
1.51574e-11
8.58808e-12
4.77498e-12
2.60428e-12
1.3929e-12
7.30482e-13
3.75658e-13
1.89564e-13
9.39851e-14
4.58934e-14
2.22216e-14
1.07187e-14
5.24107e-15
2.74124e-15
1.42438e-15
8.2467e-16
9.29995e-16
1.62371e-15
4.70983e-15
1.39107e-14
4.38615e-14
1.11441e-13
4.10318e-13
6.55247e-13
2.10613e-12
2.2029e-12
2.52404e-12
3.45242e-12
1.40695e-05
5.07596e-05
9.9638e-05
0.000153841
0.000205502
0.000254296
0.000313695
0.000394362
0.000494176
0.000601493
0.000716702
0.000854918
0.00102
0.00120447
0.00139468
0.00156456
0.00166692
0.00170716
0.00168006
0.00152364
0.00130592
0.00104595
0.000792922
0.000571861
0.000442882
0.000355482
0.000320698
0.000308801
0.000309716
0.00032314
0.000348657
0.000394227
0.000459816
0.000536678
0.000635145
0.000744222
0.000880252
0.00105828
0.00128389
0.00156389
0.00188559
0.00223634
0.00257301
0.00293096
0.00335522
0.00371516
0.00405205
0.00437086
0.00459622
0.00470931
0.00473552
0.00446155
0.00397162
0.00337533
0.00288856
0.00227622
0.00198403
0.00149402
0.00129518
0.00116589
0.0010495
0.000996369
0.000923951
0.000886771
0.000863223
0.000851099
0.000845485
0.000851259
0.000852222
0.000831369
0.000763048
0.000607011
0.000485007
0.000465748
0.000464813
0.000417989
0.000329699
0.00028754
0.000264662
0.000249877
0.000232222
0.000206824
0.000177698
0.000150939
0.000128035
0.000110017
9.67084e-05
8.75127e-05
8.12813e-05
7.65671e-05
7.22098e-05
6.77002e-05
6.40797e-05
6.14186e-05
5.90865e-05
5.68452e-05
5.4875e-05
5.30903e-05
5.12051e-05
4.8622e-05
4.5358e-05
4.234e-05
3.99736e-05
3.82286e-05
3.69476e-05
3.5862e-05
3.42753e-05
3.12065e-05
2.61156e-05
1.99981e-05
1.4446e-05
1.00183e-05
6.68498e-06
4.31331e-06
2.71127e-06
1.67982e-06
1.04433e-06
6.67825e-07
4.51512e-07
3.28234e-07
2.56505e-07
2.15457e-07
1.9561e-07
1.86279e-07
1.76834e-07
1.6294e-07
1.45447e-07
1.26211e-07
1.06795e-07
8.83456e-08
7.16024e-08
5.69578e-08
4.4534e-08
3.4264e-08
2.59643e-08
1.93908e-08
1.42788e-08
1.03704e-08
7.4297e-09
5.25083e-09
3.66046e-09
2.5167e-09
1.70618e-09
1.14026e-09
7.50997e-10
4.87286e-10
3.11375e-10
1.95872e-10
1.21247e-10
7.38226e-11
4.41893e-11
2.59922e-11
1.50157e-11
8.51558e-12
4.73827e-12
2.58549e-12
1.38285e-12
7.24646e-13
3.71919e-13
1.86931e-13
9.2026e-14
4.43999e-14
2.10457e-14
9.83776e-15
4.56758e-15
2.18812e-15
1.08784e-15
5.40982e-16
5.29029e-16
8.87567e-16
2.74245e-15
8.44529e-15
2.61821e-14
6.48044e-14
2.32804e-13
3.35097e-13
6.22332e-13
8.77474e-13
9.94734e-13
1.35137e-12
1.13402e-05
4.33089e-05
8.62719e-05
0.000135986
0.000183677
0.000224388
0.000269366
0.000328302
0.000399135
0.000469356
0.000529912
0.000590061
0.000660311
0.000734855
0.000804072
0.0008486
0.000866111
0.000860105
0.000804761
0.000719049
0.000609469
0.000502432
0.000412402
0.000345649
0.000313987
0.000299526
0.000296819
0.000308344
0.000324404
0.00036612
0.000430833
0.000511908
0.000608868
0.000724834
0.000876356
0.00107837
0.00135532
0.00172372
0.00217592
0.00268869
0.00321477
0.00375183
0.00442951
0.00541895
0.00668905
0.00808682
0.00965943
0.0112421
0.012561
0.013214
0.0134326
0.0126909
0.0114443
0.00922071
0.00782181
0.00554273
0.00450633
0.00288441
0.00212659
0.00162018
0.00126111
0.00110213
0.00101494
0.000950351
0.000920936
0.000881484
0.000852533
0.000839797
0.000839612
0.000838817
0.000807651
0.000709778
0.000609327
0.000592816
0.000640436
0.000660397
0.000542411
0.000416423
0.000342031
0.000307879
0.000281966
0.000252796
0.000207284
0.000164581
0.000133735
0.000112472
9.77392e-05
8.75812e-05
8.093e-05
7.67037e-05
7.32421e-05
6.98146e-05
6.61468e-05
6.29228e-05
6.04032e-05
5.81577e-05
5.57705e-05
5.36179e-05
5.19009e-05
5.029e-05
4.8239e-05
4.52455e-05
4.1987e-05
3.93266e-05
3.74328e-05
3.61936e-05
3.53694e-05
3.46071e-05
3.33344e-05
3.05395e-05
2.53485e-05
1.91458e-05
1.35904e-05
9.20344e-06
5.96587e-06
3.72024e-06
2.24697e-06
1.3276e-06
7.7911e-07
4.64709e-07
2.9042e-07
1.95675e-07
1.43513e-07
1.14841e-07
1.01544e-07
9.71948e-08
9.41268e-08
8.82979e-08
7.97705e-08
6.9707e-08
5.90597e-08
4.86844e-08
3.91851e-08
3.08646e-08
2.38318e-08
1.80644e-08
1.34573e-08
9.86186e-09
7.11426e-09
5.05459e-09
3.53806e-09
2.44028e-09
1.65855e-09
1.11071e-09
7.32805e-10
4.76212e-10
3.04729e-10
1.9195e-10
1.18978e-10
7.25383e-11
4.34817e-11
2.56142e-11
1.4821e-11
8.41932e-12
4.69307e-12
2.56564e-12
1.37492e-12
7.21934e-13
3.71261e-13
1.86944e-13
9.21694e-14
4.45109e-14
2.10869e-14
9.83701e-15
4.54909e-15
2.12903e-15
1.06129e-15
5.45405e-16
3.60069e-16
4.30746e-16
1.06266e-15
3.17047e-15
1.03842e-14
2.34358e-14
7.80271e-14
9.81199e-14
1.19064e-13
1.67899e-13
2.07746e-13
3.39155e-13
8.11668e-06
3.3775e-05
7.07597e-05
0.000115456
0.00015952
0.00019722
0.000230729
0.000271853
0.000326051
0.000379862
0.000418094
0.000441247
0.000465808
0.000491257
0.00051072
0.000519748
0.000521146
0.000501744
0.000464938
0.000425026
0.000374921
0.000332543
0.000305515
0.000291315
0.000286928
0.000289038
0.000299027
0.0003212
0.000363317
0.000434695
0.000501554
0.00058747
0.000688771
0.000823509
0.00102484
0.00130952
0.00171866
0.00223826
0.00290593
0.0037154
0.00470525
0.00600218
0.0078566
0.0105192
0.0139592
0.0181731
0.0230021
0.0278945
0.0320761
0.0342117
0.0349783
0.0333263
0.0300897
0.0242104
0.0200014
0.0137549
0.0104889
0.00697868
0.00471975
0.00309298
0.00199232
0.00144728
0.00117187
0.00103812
0.000968675
0.000935152
0.000912983
0.000877377
0.000849171
0.0008372
0.000798478
0.000735506
0.000656984
0.0006279
0.000676773
0.000747317
0.000733613
0.000644269
0.000467496
0.000357243
0.000318491
0.000311401
0.000290483
0.000234576
0.00017095
0.00012852
0.000104458
8.97787e-05
8.06862e-05
7.54264e-05
7.27114e-05
7.01182e-05
6.71066e-05
6.37234e-05
6.08497e-05
5.86544e-05
5.67276e-05
5.45975e-05
5.23946e-05
5.05998e-05
4.90329e-05
4.72065e-05
4.45718e-05
4.13672e-05
3.85473e-05
3.65221e-05
3.52676e-05
3.45544e-05
3.40129e-05
3.33277e-05
3.20409e-05
2.90495e-05
2.33347e-05
1.70479e-05
1.17364e-05
7.67376e-06
4.79076e-06
2.87217e-06
1.66481e-06
9.41424e-07
5.26359e-07
2.97048e-07
1.74333e-07
1.10074e-07
7.62065e-08
5.81654e-08
4.96939e-08
4.70409e-08
4.65629e-08
4.58741e-08
4.3353e-08
3.74331e-08
3.14212e-08
2.57073e-08
2.04962e-08
1.59581e-08
1.21523e-08
9.06434e-09
6.63109e-09
4.76313e-09
3.36243e-09
2.33438e-09
1.59462e-09
1.07213e-09
7.09592e-10
4.62324e-10
2.96498e-10
1.87134e-10
1.16206e-10
7.09748e-11
4.26208e-11
2.51534e-11
1.45825e-11
8.30082e-12
4.63711e-12
2.54095e-12
1.36508e-12
7.18671e-13
3.70637e-13
1.87198e-13
9.25865e-14
4.48562e-14
2.13136e-14
9.96656e-15
4.6225e-15
2.16177e-15
1.06249e-15
5.78468e-16
3.57346e-16
2.80686e-16
3.13373e-16
5.5116e-16
1.47544e-15
3.09801e-15
5.99738e-15
1.26646e-14
1.75299e-14
2.83474e-14
3.7454e-14
7.02308e-14
5.23067e-06
2.56088e-05
5.30304e-05
9.11434e-05
0.000134592
0.000170499
0.00019944
0.000231271
0.000268782
0.000311103
0.000350814
0.000366681
0.000372552
0.000375372
0.000374643
0.000369738
0.00036474
0.000353794
0.000334243
0.000317275
0.000298349
0.000286213
0.00028088
0.000279307
0.000284501
0.000294344
0.000316528
0.000363026
0.000421797
0.000480107
0.000559044
0.000658075
0.000797701
0.00100763
0.00131648
0.00175596
0.00238092
0.00328183
0.00447686
0.00603266
0.00811159
0.0110346
0.0154931
0.0222538
0.0316136
0.0429662
0.0543517
0.0641299
0.0708406
0.0740926
0.0751428
0.0717056
0.0657761
0.054871
0.0435208
0.0311395
0.0216153
0.0144275
0.0100359
0.00633672
0.00372001
0.00223465
0.0014903
0.00114178
0.000989758
0.000926669
0.000921486
0.000909724
0.000895602
0.000891551
0.000859251
0.000749947
0.000676448
0.00065546
0.000668323
0.000746004
0.000767244
0.000723671
0.000542867
0.000377008
0.000317004
0.000313731
0.000308562
0.000280997
0.000227796
0.000172074
0.00012884
0.000101594
8.52308e-05
7.57839e-05
7.12012e-05
6.92252e-05
6.71877e-05
6.44735e-05
6.13316e-05
5.8676e-05
5.67542e-05
5.50574e-05
5.31736e-05
5.11074e-05
4.9215e-05
4.75406e-05
4.56997e-05
4.32527e-05
4.02059e-05
3.73502e-05
3.52692e-05
3.40201e-05
3.3448e-05
3.31122e-05
3.26895e-05
3.19284e-05
3.03685e-05
2.64725e-05
2.00631e-05
1.3992e-05
9.20968e-06
5.75738e-06
3.43888e-06
1.97418e-06
1.0964e-06
5.93973e-07
3.1769e-07
1.70942e-07
9.5231e-08
5.69655e-08
3.75551e-08
2.75726e-08
2.29332e-08
2.13831e-08
2.11737e-08
2.12079e-08
2.09681e-08
1.93753e-08
1.59772e-08
1.29068e-08
1.0178e-08
7.82688e-09
5.87565e-09
4.3113e-09
3.09621e-09
2.17907e-09
1.50455e-09
1.02004e-09
6.7951e-10
4.44979e-10
2.8653e-10
1.81442e-10
1.12989e-10
6.91832e-11
4.16426e-11
2.46327e-11
1.4314e-11
8.16786e-12
4.57461e-12