/*--------------------------------*- C++ -*----------------------------------*\
  =========                 |
  \\      /  F ield         | OpenFOAM: The Open Source CFD Toolbox
   \\    /   O peration     | Website:  https://openfoam.org
    \\  /    A nd           | Version:  7
     \\/     M anipulation  |
\*---------------------------------------------------------------------------*/
FoamFile
{
    version     2.0;
    format      ascii;
    class       volScalarField;
    location    "0.04";
    object      pPrime2Mean;
}
// * * * * * * * * * * * * * * * * * * * * * * * * * * * * * * * * * * * * * //

dimensions      [0 4 -4 0 0 0 0];

internalField   nonuniform List<scalar> 
12225
(
8.91452e+06
8.77236e+06
8.62561e+06
8.48409e+06
8.34817e+06
8.21744e+06
8.09151e+06
7.97002e+06
7.85257e+06
7.73873e+06
7.62804e+06
7.51997e+06
7.41389e+06
7.30901e+06
7.20421e+06
7.0978e+06
6.98678e+06
6.86364e+06
8.91463e+06
8.77243e+06
8.62567e+06
8.48416e+06
8.34825e+06
8.21753e+06
8.09162e+06
7.97015e+06
7.85273e+06
7.73893e+06
7.62829e+06
7.52029e+06
7.41433e+06
7.30961e+06
7.20511e+06
7.09924e+06
6.9895e+06
6.8698e+06
8.91483e+06
8.77257e+06
8.62581e+06
8.48431e+06
8.34842e+06
8.21773e+06
8.09186e+06
7.97044e+06
7.85308e+06
7.73936e+06
7.62884e+06
7.52101e+06
7.41528e+06
7.31094e+06
7.20705e+06
7.10233e+06
6.99495e+06
6.88262e+06
8.91506e+06
8.77278e+06
8.62604e+06
8.48456e+06
8.34871e+06
8.21806e+06
8.09225e+06
7.97091e+06
7.85366e+06
7.74008e+06
7.62975e+06
7.52219e+06
7.41685e+06
7.31309e+06
7.21015e+06
7.10711e+06
7.00303e+06
6.89795e+06
8.91532e+06
8.7731e+06
8.62638e+06
8.48493e+06
8.34913e+06
8.21855e+06
8.09283e+06
7.97161e+06
7.85451e+06
7.74114e+06
7.63108e+06
7.5239e+06
7.4191e+06
7.31616e+06
7.21449e+06
7.11356e+06
7.01317e+06
6.91454e+06
8.91572e+06
8.77353e+06
8.62685e+06
8.48545e+06
8.34971e+06
8.21922e+06
8.09362e+06
7.97256e+06
7.85567e+06
7.74258e+06
7.6329e+06
7.52622e+06
7.42213e+06
7.32022e+06
7.2201e+06
7.12156e+06
7.02491e+06
6.93173e+06
8.91623e+06
8.77411e+06
8.62747e+06
8.48613e+06
8.35048e+06
8.22011e+06
8.09467e+06
7.97382e+06
7.8572e+06
7.74447e+06
7.63525e+06
7.52921e+06
7.426e+06
7.32531e+06
7.22694e+06
7.13094e+06
7.03787e+06
6.94923e+06
8.9169e+06
8.77486e+06
8.62828e+06
8.48701e+06
8.35147e+06
8.22125e+06
8.09602e+06
7.97542e+06
7.85915e+06
7.74685e+06
7.63821e+06
7.53293e+06
7.43074e+06
7.33144e+06
7.23497e+06
7.14153e+06
7.05176e+06
6.96689e+06
8.91783e+06
8.77581e+06
8.62929e+06
8.48811e+06
8.35271e+06
8.22268e+06
8.09769e+06
7.97742e+06
7.86155e+06
7.74978e+06
7.64183e+06
7.53743e+06
7.43639e+06
7.3386e+06
7.2441e+06
7.15315e+06
7.06635e+06
6.98464e+06
8.91894e+06
8.77701e+06
8.63054e+06
8.48947e+06
8.35423e+06
8.22443e+06
8.09973e+06
7.97984e+06
7.86446e+06
7.75331e+06
7.64614e+06
7.54273e+06
7.44296e+06
7.34676e+06
7.25422e+06
7.16564e+06
7.08149e+06
7.00244e+06
8.92058e+06
8.77849e+06
8.63207e+06
8.49112e+06
8.35607e+06
8.22653e+06
8.10219e+06
7.98274e+06
7.86792e+06
7.75747e+06
7.65117e+06
7.54885e+06
7.45041e+06
7.35583e+06
7.26523e+06
7.17885e+06
7.09705e+06
7.02027e+06
8.92206e+06
8.78012e+06
8.63375e+06
8.49293e+06
8.35808e+06
8.22883e+06
8.10485e+06
7.98587e+06
7.87163e+06
7.76189e+06
7.65646e+06
7.5552e+06
7.45802e+06
7.36494e+06
7.27604e+06
7.19151e+06
7.11162e+06
7.03662e+06
8.92413e+06
8.78202e+06
8.63568e+06
8.495e+06
8.36037e+06
8.23143e+06
8.10786e+06
7.98939e+06
7.87577e+06
7.76679e+06
7.66228e+06
7.5621e+06
7.46619e+06
7.37456e+06
7.28726e+06
7.20444e+06
7.12624e+06
7.0528e+06
8.92684e+06
8.78454e+06
8.63824e+06
8.49772e+06
8.36339e+06
8.23484e+06
8.11178e+06
7.99395e+06
7.88111e+06
7.77305e+06
7.66963e+06
7.57071e+06
7.47624e+06
7.3862e+06
7.30061e+06
7.21955e+06
7.14306e+06
7.07119e+06
8.93036e+06
8.78786e+06
8.6416e+06
8.50131e+06
8.36734e+06
8.2393e+06
8.11688e+06
7.99983e+06
7.88792e+06
7.78096e+06
7.67879e+06
7.58131e+06
7.48841e+06
7.40007e+06
7.31626e+06
7.23697e+06
7.16218e+06
7.09182e+06
8.93468e+06
8.79213e+06
8.64597e+06
8.50597e+06
8.37246e+06
8.24504e+06
8.1234e+06
8.00728e+06
7.89647e+06
7.79077e+06
7.69003e+06
7.5941e+06
7.50288e+06
7.41629e+06
7.33426e+06
7.2567e+06
7.18353e+06
7.11463e+06
8.94012e+06
8.7975e+06
8.65153e+06
8.51191e+06
8.37897e+06
8.2523e+06
8.13157e+06
8.01654e+06
7.90697e+06
7.80266e+06
7.70344e+06
7.60914e+06
7.51964e+06
7.43479e+06
7.35447e+06
7.27856e+06
7.20691e+06
7.13935e+06
8.94648e+06
8.80404e+06
8.65837e+06
8.51925e+06
8.38699e+06
8.26118e+06
8.14148e+06
8.02764e+06
7.91941e+06
7.81657e+06
7.71891e+06
7.62624e+06
7.5384e+06
7.45521e+06
7.37649e+06
7.30209e+06
7.23181e+06
7.16548e+06
8.95407e+06
8.81177e+06
8.66645e+06
8.5279e+06
8.39639e+06
8.27152e+06
8.15292e+06
8.04032e+06
7.93345e+06
7.83205e+06
7.7359e+06
7.64478e+06
7.55848e+06
7.47678e+06
7.3995e+06
7.32642e+06
7.25735e+06
7.19208e+06
8.96078e+06
8.81841e+06
8.67334e+06
8.53523e+06
8.40434e+06
8.2802e+06
8.16244e+06
8.05077e+06
7.94489e+06
7.84453e+06
7.74944e+06
7.65938e+06
7.57411e+06
7.49342e+06
7.41707e+06
7.34486e+06
7.27657e+06
7.212e+06
8.96483e+06
8.82281e+06
8.67801e+06
8.54026e+06
8.40979e+06
8.28615e+06
8.16895e+06
8.05787e+06
7.95262e+06
7.85292e+06
7.75848e+06
7.66907e+06
7.58444e+06
7.50434e+06
7.42855e+06
7.35686e+06
7.28903e+06
7.22487e+06
8.96813e+06
8.82603e+06
8.68142e+06
8.54395e+06
8.41381e+06
8.29054e+06
8.17374e+06
8.06309e+06
7.95828e+06
7.85902e+06
7.76504e+06
7.67608e+06
7.59187e+06
7.51217e+06
7.43676e+06
7.36541e+06
7.29789e+06
7.234e+06
8.96971e+06
8.82813e+06
8.68381e+06
8.54658e+06
8.41671e+06
8.2937e+06
8.1772e+06
8.06685e+06
7.96235e+06
7.86341e+06
7.76974e+06
7.68107e+06
7.59716e+06
7.51774e+06
7.44258e+06
7.37146e+06
7.30416e+06
7.24045e+06
8.97103e+06
8.82958e+06
8.68546e+06
8.54843e+06
8.41875e+06
8.29595e+06
8.17964e+06
8.06951e+06
7.96523e+06
7.8665e+06
7.77304e+06
7.68459e+06
7.60087e+06
7.52164e+06
7.44666e+06
7.37569e+06
7.30853e+06
7.24495e+06
8.97183e+06
8.8305e+06
8.68657e+06
8.5497e+06
8.42016e+06
8.2975e+06
8.18134e+06
8.07135e+06
7.96722e+06
7.86864e+06
7.77533e+06
7.68701e+06
7.60342e+06
7.52432e+06
7.44946e+06
7.3786e+06
7.31153e+06
7.24803e+06
8.9719e+06
8.83103e+06
8.68728e+06
8.55054e+06
8.42111e+06
8.29854e+06
8.18248e+06
8.07259e+06
7.96855e+06
7.87007e+06
7.77686e+06
7.68863e+06
7.60514e+06
7.52612e+06
7.45133e+06
7.38054e+06
7.31353e+06
7.25009e+06
8.97194e+06
8.83135e+06
8.68774e+06
8.55108e+06
8.42171e+06
8.29922e+06
8.18322e+06
8.07339e+06
7.96942e+06
7.871e+06
7.77785e+06
7.68968e+06
7.60624e+06
7.52728e+06
7.45254e+06
7.3818e+06
7.31483e+06
7.25142e+06
8.97205e+06
8.83155e+06
8.68801e+06
8.5514e+06
8.42208e+06
8.29962e+06
8.18366e+06
8.07388e+06
7.96994e+06
7.87156e+06
7.77845e+06
7.69032e+06
7.60691e+06
7.52798e+06
7.45327e+06
7.38255e+06
7.31561e+06
7.25222e+06
8.97213e+06
8.83165e+06
8.68816e+06
8.55158e+06
8.42228e+06
8.29984e+06
8.18391e+06
8.07414e+06
7.97023e+06
7.87187e+06
7.77877e+06
7.69066e+06
7.60728e+06
7.52836e+06
7.45366e+06
7.38296e+06
7.31603e+06
7.25265e+06
8.97217e+06
8.8317e+06
8.68821e+06
8.55165e+06
8.42236e+06
8.29993e+06
8.184e+06
8.07424e+06
7.97034e+06
7.87199e+06
7.7789e+06
7.6908e+06
7.60742e+06
7.52851e+06
7.45382e+06
7.38313e+06
7.3162e+06
7.25283e+06
5.79952e+06
5.79906e+06
5.79813e+06
5.79672e+06
5.79482e+06
5.79242e+06
5.78952e+06
5.7861e+06
5.78216e+06
5.77769e+06
5.77269e+06
5.76716e+06
5.76108e+06
5.75446e+06
5.74729e+06
5.73958e+06
5.73131e+06
5.72249e+06
5.71311e+06
5.70319e+06
5.69272e+06
5.6817e+06
5.67013e+06
5.65803e+06
5.64538e+06
5.6322e+06
5.61849e+06
5.60425e+06
5.58949e+06
5.57422e+06
5.55844e+06
5.54216e+06
5.52538e+06
5.50812e+06
5.49037e+06
5.47215e+06
5.45346e+06
5.43431e+06
5.4147e+06
5.39465e+06
5.37417e+06
5.35325e+06
5.33191e+06
5.31015e+06
5.28799e+06
5.26543e+06
5.24247e+06
5.21913e+06
5.1954e+06
5.17131e+06
5.14686e+06
5.12205e+06
5.09689e+06
5.07138e+06
5.04555e+06
5.01938e+06
4.99289e+06
4.96609e+06
4.93898e+06
4.91156e+06
4.88385e+06
4.85585e+06
4.82757e+06
4.79901e+06
4.77017e+06
4.74107e+06
4.71171e+06
4.68209e+06
4.65222e+06
4.62211e+06
4.59176e+06
4.56117e+06
4.53035e+06
4.4993e+06
4.46804e+06
4.43655e+06
4.40486e+06
4.37295e+06
4.34085e+06
4.30854e+06
4.27604e+06
4.24335e+06
4.21047e+06
4.17741e+06
4.14417e+06
4.11075e+06
4.07717e+06
4.04341e+06
4.00949e+06
3.97541e+06
3.94117e+06
3.90678e+06
3.87224e+06
3.83755e+06
3.80272e+06
3.76774e+06
3.73263e+06
3.69739e+06
3.66202e+06
3.62652e+06
3.5909e+06
3.55516e+06
3.5193e+06
3.48333e+06
3.44724e+06
3.41105e+06
3.37476e+06
3.33837e+06
3.30188e+06
3.26529e+06
3.22862e+06
3.19186e+06
3.15501e+06
3.11809e+06
3.08109e+06
3.04401e+06
3.00687e+06
2.96966e+06
2.93239e+06
2.89506e+06
2.85768e+06
2.82025e+06
2.78277e+06
2.74525e+06
2.70769e+06
2.67009e+06
2.63247e+06
2.59482e+06
2.55714e+06
2.51945e+06
2.48175e+06
2.44404e+06
2.40633e+06
2.36861e+06
2.3309e+06
2.29321e+06
2.25553e+06
2.21787e+06
2.18024e+06
2.14264e+06
2.10508e+06
2.06756e+06
2.03009e+06
1.99267e+06
1.95532e+06
1.91803e+06
1.88081e+06
1.84368e+06
1.80663e+06
1.76967e+06
1.73281e+06
1.69605e+06
1.65941e+06
1.62289e+06
1.58649e+06
1.55023e+06
1.51411e+06
1.47815e+06
1.44234e+06
1.4067e+06
1.37123e+06
1.33595e+06
1.30086e+06
1.26597e+06
1.2313e+06
1.19685e+06
1.16263e+06
1.12866e+06
1.09494e+06
1.06149e+06
1.02833e+06
995467
962921
930712
898865
867413
836397
805881
775973
746906
5.80162e+06
5.80116e+06
5.80022e+06
5.7988e+06
5.79688e+06
5.79447e+06
5.79155e+06
5.78811e+06
5.78415e+06
5.77966e+06
5.77463e+06
5.76907e+06
5.76296e+06
5.7563e+06
5.7491e+06
5.74134e+06
5.73304e+06
5.72417e+06
5.71476e+06
5.7048e+06
5.69428e+06
5.68322e+06
5.67161e+06
5.65945e+06
5.64676e+06
5.63354e+06
5.61978e+06
5.6055e+06
5.5907e+06
5.57539e+06
5.55956e+06
5.54324e+06
5.52642e+06
5.50911e+06
5.49133e+06
5.47306e+06
5.45433e+06
5.43515e+06
5.41551e+06
5.39542e+06
5.3749e+06
5.35395e+06
5.33258e+06
5.31079e+06
5.2886e+06
5.266e+06
5.24302e+06
5.21965e+06
5.1959e+06
5.17179e+06
5.14731e+06
5.12247e+06
5.09729e+06
5.07177e+06
5.04591e+06
5.01972e+06
4.99322e+06
4.96639e+06
4.93927e+06
4.91184e+06
4.88411e+06
4.8561e+06
4.8278e+06
4.79922e+06
4.77038e+06
4.74127e+06
4.71189e+06
4.68226e+06
4.65239e+06
4.62226e+06
4.5919e+06
4.5613e+06
4.53047e+06
4.49942e+06
4.46815e+06
4.43666e+06
4.40496e+06
4.37305e+06
4.34093e+06
4.30862e+06
4.27612e+06
4.24342e+06
4.21054e+06
4.17747e+06
4.14423e+06
4.11081e+06
4.07722e+06
4.04346e+06
4.00953e+06
3.97545e+06
3.94121e+06
3.90681e+06
3.87227e+06
3.83758e+06
3.80274e+06
3.76777e+06
3.73266e+06
3.69741e+06
3.66204e+06
3.62654e+06
3.59092e+06
3.55517e+06
3.51931e+06
3.48334e+06
3.44726e+06
3.41107e+06
3.37477e+06
3.33838e+06
3.30189e+06
3.2653e+06
3.22863e+06
3.19186e+06
3.15502e+06
3.11809e+06
3.08109e+06
3.04402e+06
3.00687e+06
2.96967e+06
2.9324e+06
2.89507e+06
2.85768e+06
2.82025e+06
2.78277e+06
2.74525e+06
2.70769e+06
2.67009e+06
2.63247e+06
2.59482e+06
2.55715e+06
2.51945e+06
2.48175e+06
2.44404e+06
2.40633e+06
2.36861e+06
2.33091e+06
2.29321e+06
2.25553e+06
2.21787e+06
2.18024e+06
2.14264e+06
2.10508e+06
2.06756e+06
2.03009e+06
1.99267e+06
1.95532e+06
1.91803e+06
1.88081e+06
1.84368e+06
1.80663e+06
1.76967e+06
1.73281e+06
1.69605e+06
1.65941e+06
1.62289e+06
1.58649e+06
1.55023e+06
1.51411e+06
1.47815e+06
1.44234e+06
1.4067e+06
1.37123e+06
1.33595e+06
1.30086e+06
1.26597e+06
1.2313e+06
1.19685e+06
1.16263e+06
1.12865e+06
1.09494e+06
1.06149e+06
1.02833e+06
995460
962911
930699
898847
867388
836361
805825
775872
746669
5.80583e+06
5.80535e+06
5.8044e+06
5.80296e+06
5.80102e+06
5.79858e+06
5.79562e+06
5.79214e+06
5.78813e+06
5.78359e+06
5.77851e+06
5.77289e+06
5.76671e+06
5.75999e+06
5.75271e+06
5.74488e+06
5.7365e+06
5.72756e+06
5.71806e+06
5.70801e+06
5.69741e+06
5.68626e+06
5.67456e+06
5.66231e+06
5.64953e+06
5.63622e+06
5.62237e+06
5.608e+06
5.59311e+06
5.57771e+06
5.5618e+06
5.54539e+06
5.52849e+06
5.5111e+06
5.49323e+06
5.47489e+06
5.45608e+06
5.43682e+06
5.41711e+06
5.39695e+06
5.37636e+06
5.35535e+06
5.33391e+06
5.31206e+06
5.28981e+06
5.26716e+06
5.24412e+06
5.22069e+06
5.1969e+06
5.17273e+06
5.1482e+06
5.12332e+06
5.0981e+06
5.07253e+06
5.04663e+06
5.02041e+06
4.99386e+06
4.96701e+06
4.93985e+06
4.91238e+06
4.88463e+06
4.85659e+06
4.82826e+06
4.79966e+06
4.77079e+06
4.74165e+06
4.71226e+06
4.68261e+06
4.65271e+06
4.62257e+06
4.59219e+06
4.56157e+06
4.53073e+06
4.49966e+06
4.46837e+06
4.43687e+06
4.40515e+06
4.37323e+06
4.34111e+06
4.30878e+06
4.27627e+06
4.24356e+06
4.21067e+06
4.1776e+06
4.14434e+06
4.11091e+06
4.07732e+06
4.04355e+06
4.00962e+06
3.97553e+06
3.94128e+06
3.90688e+06
3.87233e+06
3.83764e+06
3.8028e+06
3.76782e+06
3.73271e+06
3.69746e+06
3.66208e+06
3.62658e+06
3.59095e+06
3.55521e+06
3.51934e+06
3.48337e+06
3.44728e+06
3.41109e+06
3.37479e+06
3.3384e+06
3.3019e+06
3.26532e+06
3.22864e+06
3.19188e+06
3.15503e+06
3.11811e+06
3.0811e+06
3.04403e+06
3.00688e+06
2.96967e+06
2.9324e+06
2.89507e+06
2.85769e+06
2.82026e+06
2.78278e+06
2.74526e+06
2.70769e+06
2.6701e+06
2.63247e+06
2.59482e+06
2.55715e+06
2.51946e+06
2.48175e+06
2.44404e+06
2.40633e+06
2.36861e+06
2.33091e+06
2.29321e+06
2.25553e+06
2.21787e+06
2.18024e+06
2.14264e+06
2.10508e+06
2.06756e+06
2.03009e+06
1.99267e+06
1.95532e+06
1.91803e+06
1.88081e+06
1.84368e+06
1.80663e+06
1.76967e+06
1.73281e+06
1.69605e+06
1.65941e+06
1.62289e+06
1.58649e+06
1.55023e+06
1.51411e+06
1.47815e+06
1.44234e+06
1.4067e+06
1.37123e+06
1.33595e+06
1.30086e+06
1.26597e+06
1.23129e+06
1.19684e+06
1.16262e+06
1.12865e+06
1.09493e+06
1.06148e+06
1.02831e+06
995445
962891
930673
898812
867340
836291
805717
775689
746298
5.81217e+06
5.81168e+06
5.81071e+06
5.80924e+06
5.80726e+06
5.80477e+06
5.80176e+06
5.79822e+06
5.79414e+06
5.78952e+06
5.78435e+06
5.77864e+06
5.77237e+06
5.76554e+06
5.75815e+06
5.75021e+06
5.7417e+06
5.73264e+06
5.72302e+06
5.71284e+06
5.7021e+06
5.69082e+06
5.67898e+06
5.66661e+06
5.65369e+06
5.64024e+06
5.62625e+06
5.61175e+06
5.59673e+06
5.58119e+06
5.56515e+06
5.54861e+06
5.53159e+06
5.51407e+06
5.49608e+06
5.47762e+06
5.4587e+06
5.43933e+06
5.41951e+06
5.39925e+06
5.37855e+06
5.35744e+06
5.3359e+06
5.31396e+06
5.29162e+06
5.26888e+06
5.24576e+06
5.22225e+06
5.19838e+06
5.17414e+06
5.14954e+06
5.12459e+06
5.0993e+06
5.07367e+06
5.04771e+06
5.02143e+06
4.99483e+06
4.96793e+06
4.94071e+06
4.9132e+06
4.8854e+06
4.85732e+06
4.82895e+06
4.80031e+06
4.7714e+06
4.74223e+06
4.7128e+06
4.68312e+06
4.65319e+06
4.62302e+06
4.59262e+06
4.56197e+06
4.53111e+06
4.50001e+06
4.4687e+06
4.43718e+06
4.40545e+06
4.37351e+06
4.34136e+06
4.30903e+06
4.27649e+06
4.24377e+06
4.21087e+06
4.17778e+06
4.14451e+06
4.11108e+06
4.07747e+06
4.04369e+06
4.00975e+06
3.97565e+06
3.9414e+06
3.90699e+06
3.87243e+06
3.83773e+06
3.80288e+06
3.7679e+06
3.73278e+06
3.69753e+06
3.66214e+06
3.62664e+06
3.59101e+06
3.55526e+06
3.51939e+06
3.48341e+06
3.44732e+06
3.41112e+06
3.37483e+06
3.33843e+06
3.30193e+06
3.26534e+06
3.22866e+06
3.1919e+06
3.15505e+06
3.11812e+06
3.08112e+06
3.04404e+06
3.0069e+06
2.96969e+06
2.93241e+06
2.89508e+06
2.8577e+06
2.82027e+06
2.78279e+06
2.74526e+06
2.7077e+06
2.6701e+06
2.63248e+06
2.59483e+06
2.55715e+06
2.51946e+06
2.48176e+06
2.44405e+06
2.40633e+06
2.36862e+06
2.33091e+06
2.29321e+06
2.25553e+06
2.21787e+06
2.18024e+06
2.14264e+06
2.10508e+06
2.06756e+06
2.03009e+06
1.99267e+06
1.95532e+06
1.91803e+06
1.88082e+06
1.84368e+06
1.80663e+06
1.76967e+06
1.73281e+06
1.69605e+06
1.65941e+06
1.62289e+06
1.58649e+06
1.55023e+06
1.51411e+06
1.47815e+06
1.44234e+06
1.40669e+06
1.37123e+06
1.33594e+06
1.30085e+06
1.26597e+06
1.23129e+06
1.19684e+06
1.16262e+06
1.12864e+06
1.09492e+06
1.06147e+06
1.0283e+06
995423
962863
930635
898761
867269
836191
805567
775446
745867
5.82069e+06
5.82018e+06
5.81918e+06
5.81767e+06
5.81564e+06
5.81308e+06
5.80999e+06
5.80637e+06
5.80219e+06
5.79747e+06
5.79218e+06
5.78634e+06
5.77994e+06
5.77297e+06
5.76543e+06
5.75733e+06
5.74866e+06
5.73943e+06
5.72964e+06
5.71928e+06
5.70837e+06
5.6969e+06
5.68489e+06
5.67233e+06
5.65923e+06
5.64559e+06
5.63143e+06
5.61674e+06
5.60154e+06
5.58583e+06
5.56961e+06
5.5529e+06
5.5357e+06
5.51803e+06
5.49987e+06
5.48126e+06
5.46218e+06
5.44266e+06
5.42269e+06
5.40229e+06
5.38146e+06
5.36021e+06
5.33855e+06
5.31649e+06
5.29402e+06
5.27117e+06
5.24794e+06
5.22433e+06
5.20035e+06
5.17601e+06
5.15132e+06
5.12628e+06
5.1009e+06
5.07519e+06
5.04915e+06
5.02279e+06
4.99612e+06
4.96914e+06
4.94186e+06
4.91429e+06
4.88643e+06
4.85829e+06
4.82987e+06
4.80118e+06
4.77222e+06
4.743e+06
4.71353e+06
4.6838e+06
4.65384e+06
4.62363e+06
4.59318e+06
4.56251e+06
4.53161e+06
4.50049e+06
4.46915e+06
4.43759e+06
4.40583e+06
4.37387e+06
4.34171e+06
4.30935e+06
4.27679e+06
4.24405e+06
4.21113e+06
4.17802e+06
4.14474e+06
4.11129e+06
4.07766e+06
4.04387e+06
4.00992e+06
3.97581e+06
3.94155e+06
3.90713e+06
3.87256e+06
3.83785e+06
3.803e+06
3.768e+06
3.73288e+06
3.69762e+06
3.66223e+06
3.62671e+06
3.59108e+06
3.55532e+06
3.51945e+06
3.48347e+06
3.44737e+06
3.41117e+06
3.37487e+06
3.33847e+06
3.30197e+06
3.26538e+06
3.22869e+06
3.19193e+06
3.15508e+06
3.11815e+06
3.08114e+06
3.04406e+06
3.00692e+06
2.9697e+06
2.93243e+06
2.8951e+06
2.85771e+06
2.82028e+06
2.7828e+06
2.74527e+06
2.70771e+06
2.67011e+06
2.63248e+06
2.59483e+06
2.55716e+06
2.51947e+06
2.48176e+06
2.44405e+06
2.40633e+06
2.36862e+06
2.33091e+06
2.29322e+06
2.25554e+06
2.21788e+06
2.18024e+06
2.14264e+06
2.10508e+06
2.06756e+06
2.03009e+06
1.99268e+06
1.95532e+06
1.91803e+06
1.88082e+06
1.84368e+06
1.80663e+06
1.76967e+06
1.73281e+06
1.69605e+06
1.65941e+06
1.62289e+06
1.58649e+06
1.55023e+06
1.51411e+06
1.47815e+06
1.44234e+06
1.40669e+06
1.37123e+06
1.33594e+06
1.30085e+06
1.26596e+06
1.23129e+06
1.19683e+06
1.16261e+06
1.12863e+06
1.09491e+06
1.06145e+06
1.02827e+06
995394
962825
930586
898696
867180
836065
805383
775164
745414
5.83143e+06
5.8309e+06
5.82986e+06
5.8283e+06
5.8262e+06
5.82356e+06
5.82038e+06
5.81664e+06
5.81234e+06
5.80747e+06
5.80204e+06
5.79603e+06
5.78946e+06
5.7823e+06
5.77458e+06
5.76627e+06
5.7574e+06
5.74795e+06
5.73794e+06
5.72736e+06
5.71622e+06
5.70452e+06
5.69228e+06
5.67948e+06
5.66615e+06
5.65228e+06
5.63788e+06
5.62297e+06
5.60754e+06
5.5916e+06
5.57517e+06
5.55824e+06
5.54083e+06
5.52295e+06
5.50459e+06
5.48578e+06
5.46651e+06
5.4468e+06
5.42665e+06
5.40607e+06
5.38507e+06
5.36366e+06
5.34184e+06
5.31962e+06
5.29701e+06
5.27401e+06
5.25064e+06
5.2269e+06
5.20279e+06
5.17833e+06
5.15352e+06
5.12837e+06
5.10288e+06
5.07707e+06
5.05093e+06
5.02448e+06
4.99772e+06
4.97065e+06
4.94329e+06
4.91564e+06
4.88771e+06
4.85949e+06
4.831e+06
4.80225e+06
4.77323e+06
4.74395e+06
4.71443e+06
4.68465e+06
4.65463e+06
4.62438e+06
4.59389e+06
4.56317e+06
4.53223e+06
4.50107e+06
4.46969e+06
4.43811e+06
4.40632e+06
4.37432e+06
4.34213e+06
4.30974e+06
4.27716e+06
4.2444e+06
4.21145e+06
4.17833e+06
4.14503e+06
4.11155e+06
4.07791e+06
4.0441e+06
4.01014e+06
3.97601e+06
3.94173e+06
3.9073e+06
3.87272e+06
3.838e+06
3.80313e+06
3.76813e+06
3.73299e+06
3.69773e+06
3.66233e+06
3.62681e+06
3.59116e+06
3.5554e+06
3.51952e+06
3.48353e+06
3.44743e+06
3.41123e+06
3.37492e+06
3.33852e+06
3.30201e+06
3.26542e+06
3.22873e+06
3.19196e+06
3.15511e+06
3.11818e+06
3.08117e+06
3.04409e+06
3.00694e+06
2.96972e+06
2.93245e+06
2.89512e+06
2.85773e+06
2.82029e+06
2.78281e+06
2.74528e+06
2.70772e+06
2.67012e+06
2.63249e+06
2.59484e+06
2.55716e+06
2.51947e+06
2.48177e+06
2.44405e+06
2.40634e+06
2.36862e+06
2.33092e+06
2.29322e+06
2.25554e+06
2.21788e+06
2.18025e+06
2.14265e+06
2.10508e+06
2.06756e+06
2.03009e+06
1.99268e+06
1.95532e+06
1.91803e+06
1.88082e+06
1.84368e+06
1.80663e+06
1.76967e+06
1.73281e+06
1.69605e+06
1.65941e+06
1.62289e+06
1.58649e+06
1.55023e+06
1.51411e+06
1.47814e+06
1.44233e+06
1.40669e+06
1.37122e+06
1.33594e+06
1.30085e+06
1.26596e+06
1.23128e+06
1.19682e+06
1.1626e+06
1.12862e+06
1.09489e+06
1.06143e+06
1.02825e+06
995360
962780
930526
898617
867073
835918
805173
774857
744957
5.84448e+06
5.84392e+06
5.84283e+06
5.84119e+06
5.83901e+06
5.83627e+06
5.83296e+06
5.82908e+06
5.82463e+06
5.81959e+06
5.81397e+06
5.80776e+06
5.80096e+06
5.79358e+06
5.78562e+06
5.77707e+06
5.76793e+06
5.75822e+06
5.74794e+06
5.73708e+06
5.72566e+06
5.71368e+06
5.70115e+06
5.68807e+06
5.67445e+06
5.6603e+06
5.64562e+06
5.63043e+06
5.61472e+06
5.59852e+06
5.58182e+06
5.56463e+06
5.54696e+06
5.52883e+06
5.51023e+06
5.49118e+06
5.47168e+06
5.45174e+06
5.43137e+06
5.41058e+06
5.38938e+06
5.36777e+06
5.34576e+06
5.32336e+06
5.30057e+06
5.2774e+06
5.25386e+06
5.22996e+06
5.20571e+06
5.1811e+06
5.15615e+06
5.13086e+06
5.10524e+06
5.07931e+06
5.05305e+06
5.02648e+06
4.99962e+06
4.97245e+06
4.94499e+06
4.91725e+06
4.88922e+06
4.86093e+06
4.83236e+06
4.80353e+06
4.77443e+06
4.74509e+06
4.7155e+06
4.68566e+06
4.65558e+06
4.62527e+06
4.59473e+06
4.56396e+06
4.53297e+06
4.50177e+06
4.47035e+06
4.43872e+06
4.40689e+06
4.37486e+06
4.34263e+06
4.31021e+06
4.27761e+06
4.24481e+06
4.21184e+06
4.17869e+06
4.14536e+06
4.11187e+06
4.0782e+06
4.04438e+06
4.01039e+06
3.97625e+06
3.94195e+06
3.90751e+06
3.87291e+06
3.83818e+06
3.8033e+06
3.76828e+06
3.73314e+06
3.69786e+06
3.66245e+06
3.62692e+06
3.59127e+06
3.5555e+06
3.51961e+06
3.48362e+06
3.44751e+06
3.4113e+06
3.37499e+06
3.33857e+06
3.30207e+06
3.26547e+06
3.22878e+06
3.192e+06
3.15515e+06
3.11821e+06
3.0812e+06
3.04412e+06
3.00696e+06
2.96975e+06
2.93247e+06
2.89514e+06
2.85775e+06
2.82031e+06
2.78282e+06
2.7453e+06
2.70773e+06
2.67013e+06
2.6325e+06
2.59485e+06
2.55717e+06
2.51948e+06
2.48177e+06
2.44406e+06
2.40634e+06
2.36863e+06
2.33092e+06
2.29322e+06
2.25554e+06
2.21788e+06
2.18025e+06
2.14265e+06
2.10509e+06
2.06757e+06
2.0301e+06
1.99268e+06
1.95532e+06
1.91804e+06
1.88082e+06
1.84368e+06
1.80663e+06
1.76967e+06
1.73281e+06
1.69605e+06
1.65941e+06
1.62289e+06
1.58649e+06
1.55023e+06
1.51411e+06
1.47814e+06
1.44233e+06
1.40669e+06
1.37122e+06
1.33594e+06
1.30084e+06
1.26595e+06
1.23127e+06
1.19681e+06
1.16259e+06
1.1286e+06
1.09487e+06
1.0614e+06
1.02822e+06
995320
962728
930459
898527
866953
835754
804947
774538
744507
5.85991e+06
5.85931e+06
5.85816e+06
5.85644e+06
5.85416e+06
5.85129e+06
5.84783e+06
5.84377e+06
5.83912e+06
5.83387e+06
5.82802e+06
5.82156e+06
5.81451e+06
5.80685e+06
5.79859e+06
5.78973e+06
5.78029e+06
5.77026e+06
5.75964e+06
5.74845e+06
5.7367e+06
5.72438e+06
5.71151e+06
5.69809e+06
5.68413e+06
5.66964e+06
5.65463e+06
5.63911e+06
5.62308e+06
5.60655e+06
5.58954e+06
5.57204e+06
5.55407e+06
5.53564e+06
5.51676e+06
5.49743e+06
5.47766e+06
5.45746e+06
5.43684e+06
5.41581e+06
5.39436e+06
5.37252e+06
5.35029e+06
5.32767e+06
5.30468e+06
5.28132e+06
5.25759e+06
5.23351e+06
5.20907e+06
5.1843e+06
5.15918e+06
5.13374e+06
5.10797e+06
5.08189e+06
5.0555e+06
5.0288e+06
5.00181e+06
4.97452e+06
4.94695e+06
4.9191e+06
4.89098e+06
4.86258e+06
4.83392e+06
4.805e+06
4.77582e+06
4.7464e+06
4.71673e+06
4.68682e+06
4.65668e+06
4.6263e+06
4.5957e+06
4.56487e+06
4.53383e+06
4.50257e+06
4.4711e+06
4.43943e+06
4.40755e+06
4.37548e+06
4.34322e+06
4.31076e+06
4.27812e+06
4.24529e+06
4.21229e+06
4.1791e+06
4.14575e+06
4.11223e+06
4.07854e+06
4.04469e+06
4.01069e+06
3.97652e+06
3.94221e+06
3.90774e+06
3.87313e+06
3.83838e+06
3.80349e+06
3.76846e+06
3.7333e+06
3.69801e+06
3.66259e+06
3.62705e+06
3.59139e+06
3.55561e+06
3.51971e+06
3.48371e+06
3.4476e+06
3.41138e+06
3.37506e+06
3.33864e+06
3.30213e+06
3.26552e+06
3.22883e+06
3.19205e+06
3.15519e+06
3.11825e+06
3.08124e+06
3.04415e+06
3.00699e+06
2.96978e+06
2.9325e+06
2.89516e+06
2.85777e+06
2.82033e+06
2.78284e+06
2.74531e+06
2.70775e+06
2.67015e+06
2.63251e+06
2.59486e+06
2.55718e+06
2.51949e+06
2.48178e+06
2.44407e+06
2.40635e+06
2.36863e+06
2.33092e+06
2.29323e+06
2.25555e+06
2.21789e+06
2.18025e+06
2.14265e+06
2.10509e+06
2.06757e+06
2.0301e+06
1.99268e+06
1.95533e+06
1.91804e+06
1.88082e+06
1.84368e+06
1.80663e+06
1.76967e+06
1.73281e+06
1.69605e+06
1.65941e+06
1.62289e+06
1.58649e+06
1.55023e+06
1.51411e+06
1.47814e+06
1.44233e+06
1.40669e+06
1.37122e+06
1.33593e+06
1.30084e+06
1.26595e+06
1.23126e+06
1.1968e+06
1.16257e+06
1.12859e+06
1.09485e+06
1.06138e+06
1.02818e+06
995275
962670
930383
898429
866822
835579
804709
774213
744069
5.87783e+06
5.87719e+06
5.87597e+06
5.87415e+06
5.87174e+06
5.86871e+06
5.86506e+06
5.8608e+06
5.85592e+06
5.85041e+06
5.84427e+06
5.83751e+06
5.83013e+06
5.82214e+06
5.81353e+06
5.80431e+06
5.79449e+06
5.78408e+06
5.77308e+06
5.76149e+06
5.74934e+06
5.73662e+06
5.72335e+06
5.70953e+06
5.69518e+06
5.6803e+06
5.6649e+06
5.64899e+06
5.63259e+06
5.61569e+06
5.59831e+06
5.58046e+06
5.56215e+06
5.54338e+06
5.52417e+06
5.50452e+06
5.48444e+06
5.46395e+06
5.44303e+06
5.42172e+06
5.40001e+06
5.37791e+06
5.35542e+06
5.33256e+06
5.30934e+06
5.28575e+06
5.26181e+06
5.23752e+06
5.21288e+06
5.18791e+06
5.16262e+06
5.13699e+06
5.11106e+06
5.08481e+06
5.05827e+06
5.03142e+06
5.00429e+06
4.97687e+06
4.94917e+06
4.9212e+06
4.89295e+06
4.86445e+06
4.83568e+06
4.80666e+06
4.77739e+06
4.74788e+06
4.71812e+06
4.68813e+06
4.65791e+06
4.62746e+06
4.59679e+06
4.5659e+06
4.53479e+06
4.50348e+06
4.47195e+06
4.44023e+06
4.4083e+06
4.37618e+06
4.34387e+06
4.31138e+06
4.27869e+06
4.24583e+06
4.21279e+06
4.17958e+06
4.14619e+06
4.11264e+06
4.07893e+06
4.04505e+06
4.01102e+06
3.97683e+06
3.9425e+06
3.90801e+06
3.87338e+06
3.83861e+06
3.8037e+06
3.76866e+06
3.73348e+06
3.69818e+06
3.66275e+06
3.6272e+06
3.59152e+06
3.55573e+06
3.51983e+06
3.48382e+06
3.4477e+06
3.41147e+06
3.37514e+06
3.33872e+06
3.3022e+06
3.26559e+06
3.22889e+06
3.19211e+06
3.15524e+06
3.1183e+06
3.08128e+06
3.04419e+06
3.00703e+06
2.96981e+06
2.93252e+06
2.89518e+06
2.85779e+06
2.82035e+06
2.78286e+06
2.74533e+06
2.70776e+06
2.67016e+06
2.63253e+06
2.59487e+06
2.55719e+06
2.5195e+06
2.48179e+06
2.44407e+06
2.40636e+06
2.36864e+06
2.33093e+06
2.29323e+06
2.25555e+06
2.21789e+06
2.18026e+06
2.14266e+06
2.10509e+06
2.06757e+06
2.0301e+06
1.99268e+06
1.95533e+06
1.91804e+06
1.88082e+06
1.84368e+06
1.80663e+06
1.76967e+06
1.73281e+06
1.69606e+06
1.65941e+06
1.62289e+06
1.58649e+06
1.55023e+06
1.51411e+06
1.47814e+06
1.44233e+06
1.40669e+06
1.37121e+06
1.33593e+06
1.30083e+06
1.26594e+06
1.23126e+06
1.19679e+06
1.16256e+06
1.12857e+06
1.09483e+06
1.06135e+06
1.02814e+06
995226
962607
930302
898323
866684
835396
804466
773891
743648
5.8984e+06
5.8977e+06
5.89639e+06
5.89445e+06
5.89187e+06
5.88865e+06
5.88478e+06
5.88026e+06
5.87509e+06
5.86927e+06
5.8628e+06
5.85568e+06
5.84791e+06
5.83952e+06
5.83049e+06
5.82084e+06
5.81058e+06
5.79971e+06
5.78825e+06
5.77621e+06
5.76359e+06
5.75041e+06
5.73667e+06
5.7224e+06
5.70759e+06
5.69225e+06
5.67641e+06
5.66006e+06
5.64323e+06
5.62591e+06
5.60812e+06
5.58987e+06
5.57116e+06
5.55202e+06
5.53244e+06
5.51243e+06
5.492e+06
5.47117e+06
5.44993e+06
5.4283e+06
5.40629e+06
5.3839e+06
5.36113e+06
5.338e+06
5.31452e+06
5.29068e+06
5.2665e+06
5.24197e+06
5.21712e+06
5.19193e+06
5.16643e+06
5.14061e+06
5.11449e+06
5.08806e+06
5.06134e+06
5.03433e+06
5.00704e+06
4.97947e+06
4.95163e+06
4.92352e+06
4.89515e+06
4.86652e+06
4.83764e+06
4.80851e+06
4.77914e+06
4.74952e+06
4.71967e+06
4.68959e+06
4.65928e+06
4.62875e+06
4.59801e+06
4.56704e+06
4.53587e+06
4.50449e+06
4.4729e+06
4.44112e+06
4.40914e+06
4.37696e+06
4.3446e+06
4.31206e+06
4.27933e+06
4.24643e+06
4.21335e+06
4.1801e+06
4.14668e+06
4.1131e+06
4.07935e+06
4.04545e+06
4.01139e+06
3.97718e+06
3.94282e+06
3.90831e+06
3.87366e+06
3.83887e+06
3.80394e+06
3.76888e+06
3.73369e+06
3.69837e+06
3.66293e+06
3.62736e+06
3.59167e+06
3.55587e+06
3.51996e+06
3.48394e+06
3.4478e+06
3.41157e+06
3.37524e+06
3.3388e+06
3.30228e+06
3.26566e+06
3.22896e+06
3.19217e+06
3.15529e+06
3.11835e+06
3.08132e+06
3.04423e+06
3.00707e+06
2.96984e+06
2.93256e+06
2.89521e+06
2.85782e+06
2.82037e+06
2.78288e+06
2.74535e+06
2.70778e+06
2.67018e+06
2.63254e+06
2.59488e+06
2.5572e+06
2.51951e+06
2.4818e+06
2.44408e+06
2.40636e+06
2.36865e+06
2.33094e+06
2.29324e+06
2.25556e+06
2.21789e+06
2.18026e+06
2.14266e+06
2.1051e+06
2.06758e+06
2.0301e+06
1.99269e+06
1.95533e+06
1.91804e+06
1.88082e+06
1.84369e+06
1.80663e+06
1.76967e+06
1.73281e+06
1.69606e+06
1.65941e+06
1.62289e+06
1.58649e+06
1.55023e+06
1.51411e+06
1.47814e+06
1.44233e+06
1.40668e+06
1.37121e+06
1.33592e+06
1.30083e+06
1.26593e+06
1.23125e+06
1.19678e+06
1.16254e+06
1.12855e+06
1.0948e+06
1.06132e+06
1.0281e+06
995174
962541
930216
898212
866540
835208
804221
773574
743244
5.92176e+06
5.921e+06
5.91958e+06
5.91749e+06
5.91472e+06
5.91126e+06
5.90712e+06
5.90229e+06
5.89677e+06
5.89057e+06
5.88369e+06
5.87613e+06
5.86791e+06
5.85904e+06
5.84952e+06
5.83936e+06
5.82858e+06
5.81719e+06
5.80519e+06
5.79261e+06
5.77946e+06
5.76574e+06
5.75147e+06
5.73667e+06
5.72133e+06
5.70549e+06
5.68914e+06
5.6723e+06
5.65498e+06
5.63719e+06
5.61893e+06
5.60023e+06
5.58109e+06
5.56152e+06
5.54152e+06
5.52112e+06
5.50031e+06
5.4791e+06
5.45751e+06
5.43553e+06
5.41318e+06
5.39047e+06
5.3674e+06
5.34397e+06
5.3202e+06
5.29608e+06
5.27164e+06
5.24686e+06
5.22176e+06
5.19634e+06
5.17061e+06
5.14457e+06
5.11824e+06
5.09162e+06
5.06471e+06
5.03752e+06
5.01005e+06
4.98232e+06
4.95432e+06
4.92607e+06
4.89756e+06
4.86879e+06
4.83978e+06
4.81053e+06
4.78104e+06
4.75132e+06
4.72137e+06
4.69119e+06
4.66079e+06
4.63017e+06
4.59933e+06
4.56829e+06
4.53704e+06
4.50559e+06
4.47394e+06
4.44209e+06
4.41005e+06
4.37782e+06
4.3454e+06
4.31281e+06
4.28003e+06
4.24708e+06
4.21396e+06
4.18067e+06
4.14722e+06
4.1136e+06
4.07982e+06
4.04588e+06
4.01179e+06
3.97755e+06
3.94317e+06
3.90864e+06
3.87396e+06
3.83915e+06
3.8042e+06
3.76912e+06
3.73392e+06
3.69858e+06
3.66312e+06
3.62754e+06
3.59184e+06
3.55603e+06
3.5201e+06
3.48407e+06
3.44792e+06
3.41168e+06
3.37534e+06
3.3389e+06
3.30236e+06
3.26574e+06
3.22903e+06
3.19223e+06
3.15536e+06
3.1184e+06
3.08137e+06
3.04428e+06
3.00711e+06
2.96988e+06
2.93259e+06
2.89525e+06
2.85785e+06
2.8204e+06
2.78291e+06
2.74537e+06
2.7078e+06
2.67019e+06
2.63256e+06
2.5949e+06
2.55722e+06
2.51952e+06
2.48181e+06
2.44409e+06
2.40637e+06
2.36865e+06
2.33094e+06
2.29324e+06
2.25556e+06
2.2179e+06
2.18027e+06
2.14266e+06
2.1051e+06
2.06758e+06
2.03011e+06
1.99269e+06
1.95533e+06
1.91804e+06
1.88083e+06
1.84369e+06
1.80664e+06
1.76968e+06
1.73281e+06
1.69606e+06
1.65941e+06
1.62289e+06
1.58649e+06
1.55023e+06
1.51411e+06
1.47814e+06
1.44233e+06