/*--------------------------------*- C++ -*----------------------------------*\
  =========                 |
  \\      /  F ield         | OpenFOAM: The Open Source CFD Toolbox
   \\    /   O peration     | Website:  https://openfoam.org
    \\  /    A nd           | Version:  7
     \\/     M anipulation  |
\*---------------------------------------------------------------------------*/
FoamFile
{
    version     2.0;
    format      ascii;
    class       volScalarField;
    location    "0.04";
    object      s;
}
// * * * * * * * * * * * * * * * * * * * * * * * * * * * * * * * * * * * * * //

dimensions      [0 0 0 0 0 0 0];

internalField   nonuniform List<scalar> 
12225
(
1
1
1
1
1
1
1
1
1
1
1
1
1
1
1
1
1
1
1
1
1
1
1
1
1
1
1
1
1
1
1
1
1
1
1
1
1
1
1
1
1
1
1
1
1
1
1
1
1
1
1
1
1
1
1
1
1
1
1
1
1
1
1
1
1
1
1
1
1
1
1
1
1
1
1
1
1
1
1
1
1
1
1
1
1
1
1
1
1
1
1
1
1
1
1
1
1
1
1
1
1
1
1
1
1
1
1
1
1
1
1
1
1
1
1
1
1
1
1
1
1
1
1
1
1
1
1
1
1
1
1
1
1
1
1
1
1
1
1
1
1
1
1
1
1
1
1
1
1
1
1
1
1
1
1
1
1
1
1
1
1
1
1
1
1
1
1
1
1
1
1
1
1
1
1
1
1
1
1
1
1
1
1
1
1
1
1
1
1
1
1
1
1
1
1
1
1
1
1
1
1
1
1
1
1
1
1
1
1
1
1
1
1
1
1
1
1
1
1
1
1
1
1
1
1
1
1
1
1
1
1
1
1
1
1
1
1
1
1
1
1
1
1
1
1
1
1
1
1
1
1
1
1
1
1
1
1
1
1
1
1
1
1
1
1
1
1
1
1
1
1
1
1
1
1
1
1
1
1
1
1
1
1
1
1
1
1
1
1
1
1
1
1
1
1
1
1
1
1
1
1
1
1
1
1
1
1
1
1
1
1
1
1
1
1
1
1
1
1
1
1
1
1
1
1
1
1
1
1
1
1
1
1
1
1
1
1
1
1
1
1
1
1
1
1
1
1
1
1
1
1
1
1
1
1
1
1
1
1
1
1
1
1
1
1
1
1
1
1
1
1
1
1
1
1
1
1
1
1
1
1
1
1
1
1
1
1
1
1
1
1
1
1
1
1
1
1
1
1
1
1
1
1
1
1
1
1
1
1
1
1
1
1
1
1
1
1
1
1
1
1
1
1
1
1
1
1
1
1
1
1
1
1
1
1
1
1
1
1
1
1
1
1
1
1
1
1
1
1
1
1
1
1
1
1
1
1
1
1
1
1
1
1
1
1
1
1
1
1
1
1
1
1
1
1
1
1
1
1
1
1
1
1
1
1
1
1
1
1
1
1
1
1
1
1
1
1
1
1
1
1
1
1
1
1
1
1
1
1
1
1
1
1
1
1
1
1
1
1
1
1
1
1
1
1
1
1
1
1
1
1
1
1
1
1
1
1
1
1
1
1.40243e-10
5.00107e-09
3.99783e-08
1.86747e-07
6.50092e-07
1.84237e-06
4.48862e-06
9.86992e-06
2.18473e-05
3.27615e-05
5.45614e-05
7.3104e-05
0.000100808
0.000122092
0.000146279
0.000153896
0.00015037
0.000139878
0.000116075
9.27201e-05
7.29712e-05
5.58506e-05
4.19498e-05
3.09579e-05
2.02331e-05
1.17867e-05
6.80407e-06
2.62976e-06
7.29001e-06
6.39688e-05
0.000536522
0.00877921
0.0683147
0.1529
0.208684
0.255246
0.291412
0.31811
0.337857
0.353888
0.366963
0.376688
0.383893
0.390484
0.396567
0.400662
0.403759
0.406302
0.407303
0.407564
0.407452
0.406945
0.405784
0.401501
0.397625
0.388373
0.37948
0.369807
0.359514
0.35124
0.339814
0.331121
0.32384
0.316356
0.313007
0.310056
0.307586
0.306835
0.306361
0.304999
0.303272
0.297321
0.289106
0.277472
0.261787
0.244303
0.224498
0.201663
0.179923
0.157343
0.136184
0.117562
0.100989
0.0850548
0.0701768
0.0566445
0.0447008
0.0344774
0.0260348
0.0192922
0.013988
0.00985946
0.00675009
0.00449201
0.00290611
0.00182518
0.00111135
0.000655993
0.000375412
0.000208309
0.000112103
5.85368e-05
2.96727e-05
1.4608e-05
6.98653e-06
3.24634e-06
1.4651e-06
6.41784e-07
2.72559e-07
1.12031e-07
4.44701e-08
1.6997e-08
6.23068e-09
2.18e-09
7.22652e-10
2.24276e-10
6.39323e-11
1.59334e-11
3.72622e-12
8.49043e-13
1.88935e-13
3.98133e-14
7.51636e-15
2.47913e-15
8.14444e-16
2.58336e-16
7.8945e-17
2.34872e-17
6.86937e-18
1.98345e-18
5.65224e-19
1.58641e-19
4.37763e-20
1.18684e-20
3.16219e-21
8.28542e-22
2.1362e-22
5.4216e-23
1.35462e-23
3.33192e-24
8.06733e-25
1.92264e-25
4.50973e-26
1.04072e-26
2.36088e-27
5.25633e-28
1.14583e-28
2.43821e-29
5.04824e-30
1.01408e-30
1.97246e-31
3.71245e-32
6.76803e-33
1.19847e-33
2.07085e-34
3.51296e-35
5.89158e-36
9.83472e-37
1.64265e-37
2.75235e-38
4.62399e-39
7.76392e-40
1.29648e-40
2.14141e-41
3.48054e-42
5.5428e-43
8.62032e-44
1.30632e-44
1.92663e-45
2.76448e-46
3.86156e-47
5.25608e-48
6.98382e-49
9.06593e-50
1.15165e-50
1.42744e-51
1.72435e-52
2.00058e-53
2.21939e-54
-3.12713e-54
2.78569e-09
7.37464e-08
6.06832e-07
3.03797e-06
1.11753e-05
3.2599e-05
8.04008e-05
0.000178839
0.000334053
0.000512791
0.000745768
0.00100784
0.00129377
0.00154572
0.00172371
0.00171688
0.00165229
0.00150213
0.00124939
0.000958004
0.000685532
0.000475739
0.000308776
0.000174002
8.69359e-05
3.77356e-05
2.51134e-05
8.86469e-05
0.00169549
0.0158571
0.0502933
0.102142
0.177007
0.248216
0.318522
0.395376
0.478576
0.561565
0.624694
0.688595
0.732842
0.779965
0.80888
0.843631
0.863241
0.88698
0.898928
0.914006
0.921305
0.928635
0.932035
0.933561
0.93381
0.933793
0.932745
0.931213
0.929525
0.92725
0.924883
0.921165
0.91762
0.914459
0.91084
0.908622
0.906233
0.90524
0.904516
0.904535
0.904397
0.904107
0.903211
0.90066
0.896264
0.889785
0.880351
0.867634
0.851482
0.831249
0.806214
0.775798
0.7389
0.694366
0.643102
0.586915
0.526183
0.461778
0.395074
0.328151
0.264252
0.207945
0.163491
0.125978
0.093972
0.0679416
0.0478408
0.032884
0.0219649
0.0142443
0.00898034
0.00550636
0.00328448
0.00190726
0.00107903
0.000595216
0.00032036
0.000168336
8.63895e-05
4.33086e-05
2.12087e-05
1.01438e-05
4.73693e-06
2.15893e-06
9.59939e-07
4.16258e-07
1.75982e-07
7.25226e-08
2.91312e-08
1.14071e-08
4.35416e-09
1.6203e-09
5.88055e-10
2.08231e-10
7.19694e-11
2.42874e-11
8.00524e-12
2.57759e-12
8.10865e-13
2.4923e-13
7.4843e-14
2.19539e-14
6.28886e-15
1.7589e-15
4.80092e-16
1.27831e-16
3.33709e-17
8.562e-18
2.15865e-18
5.34738e-19
1.30142e-19
3.11161e-20
7.30845e-21
1.68627e-21
3.82194e-22
8.50936e-23
1.8611e-23
3.99865e-24
8.43995e-25
1.7501e-25
3.56538e-26
7.13652e-27
1.40356e-27
2.71251e-28
5.15152e-29
9.61519e-30
1.7639e-30
3.18067e-31
5.63808e-32
9.82529e-33
1.68343e-33
2.83601e-34
4.69798e-35
7.65294e-36
1.22595e-36
1.93134e-37
2.99217e-38
4.55881e-39
6.83018e-40
1.00625e-40
1.45747e-41
2.07522e-42
2.90359e-43
3.9914e-44
5.38599e-45
7.13266e-46
9.25177e-47
1.17531e-47
1.45511e-48
1.7571e-49
2.05429e-50
1.15614e-51
2.34522e-08
5.69459e-07
4.90807e-06
2.57968e-05
9.71688e-05
0.000282679
0.000690482
0.00140415
0.00231723
0.00336046
0.00461237
0.00605404
0.00727324
0.00823609
0.00821857
0.0078994
0.00707804
0.00594195
0.00459854
0.00311277
0.00188834
0.00108885
0.000611193
0.000384967
0.000385854
0.00110526
0.00578112
0.0204588
0.0516654
0.108821
0.195629
0.313202
0.426182
0.54564
0.659248
0.75251
0.817704
0.856312
0.890378
0.907249
0.922237
0.929812
0.936772
0.940539
0.943912
0.946172
0.947581
0.9493
0.950253
0.951606
0.952528
0.95414
0.957757
0.960799
0.964262
0.967311
0.972534
0.975225
0.978558
0.980865
0.982352
0.983897
0.984618
0.98535
0.985731
0.986225
0.986512
0.987017
0.987352
0.988141
0.988866
0.98925
0.989896
0.990947
0.991753
0.992062
0.992071
0.991782
0.990093
0.987962
0.984549
0.979698
0.972813
0.963237
0.949981
0.931681
0.906492
0.871919
0.824773
0.761045
0.67782
0.582426
0.480187
0.376977
0.282452
0.207765
0.149871
0.104238
0.0702419
0.0460357
0.0292991
0.0181206
0.0109028
0.00638739
0.00364668
0.00203045
0.00110321
0.000585143
0.000303026
0.000153217
7.56281e-05
3.64343e-05
1.71271e-05
7.85439e-06
3.5135e-06
1.53303e-06
6.52501e-07
2.70965e-07
1.09814e-07
4.34451e-08
1.67851e-08
6.33563e-09
2.33727e-09
8.43037e-10
2.97402e-10
1.02641e-10
3.46637e-11
1.14574e-11
3.70696e-12
1.17412e-12
3.64084e-13
1.1054e-13
3.28621e-14
9.56636e-15
2.72688e-15
7.61129e-16
2.08045e-16
5.56934e-17
1.46032e-17
3.75099e-18
9.43916e-19
2.32865e-19
5.64688e-20
1.34651e-20
3.15695e-21
7.27712e-22
1.64915e-22
3.67406e-23
8.04652e-24
1.73235e-24
3.66632e-25
7.62766e-26
1.56001e-26
3.13653e-27
6.19969e-28
1.20477e-28
2.30183e-29
4.32407e-30
7.98699e-31
1.45066e-31
2.59093e-32
4.55067e-33
7.86028e-34
1.33524e-34
2.23073e-35
3.66528e-36
5.92278e-37
9.41248e-38
1.4709e-38
2.26029e-39
3.41421e-40
5.0697e-41
7.39376e-42
1.05943e-42
1.48827e-43
2.05212e-44
2.76281e-45
3.64529e-46
4.65274e-47
5.75555e-48
1.23446e-07
2.99031e-06
2.63035e-05
0.000139154
0.000517212
0.00145835
0.00333088
0.00602503
0.00914147
0.0126578
0.0168092
0.0208693
0.0233193
0.0234004
0.0219564
0.0185888
0.0142133
0.00981178
0.00670231
0.0047433
0.00361205
0.0032545
0.00398373
0.00669868
0.0136408
0.0298065
0.064118
0.128451
0.237095
0.38455
0.524523
0.638176
0.740322
0.811039
0.863439
0.889404
0.902461
0.90825
0.910296
0.910217
0.90638
0.89432
0.879058
0.858601
0.837638
0.815326
0.796233
0.782652
0.77315
0.769198
0.768261
0.773987
0.786113
0.799842
0.820984
0.839922
0.864826
0.884809
0.902769
0.918344
0.930461
0.941631
0.94738
0.952931
0.955647
0.959138
0.960966
0.964205
0.965968
0.970745
0.975606
0.977996
0.980522
0.984906
0.990393
0.9928
0.994767
0.996686
0.997459
0.998269
0.998618
0.998805
0.998896
0.998699
0.998193
0.997275
0.995725
0.993176
0.989028
0.982302
0.971401
0.953786
0.925384
0.879896
0.808454
0.703177
0.574433
0.439349
0.316853
0.223338
0.15286
0.101115
0.064929
0.0404883
0.0245406
0.0144718
0.00830921
0.00464757
0.00253313
0.00134556
0.000696543
0.000351347
0.000172662
8.26568e-05
3.85438e-05
1.75082e-05
7.74829e-06
3.34159e-06
1.40483e-06
5.75951e-07
2.30366e-07
8.99326e-08
3.42823e-08
1.2766e-08
4.64541e-09
1.65242e-09
5.74726e-10
1.955e-10
6.50528e-11
2.11781e-11
6.74641e-12
2.1032e-12
6.41739e-13
1.9167e-13
5.60419e-14
1.60428e-14
4.49682e-15
1.23436e-15
3.31858e-16
8.73969e-17
2.25498e-17
5.70104e-18
1.4124e-18
3.42944e-19
8.16442e-20
1.90933e-20
4.38934e-21
9.91894e-22
2.20327e-22
4.81063e-23
1.03245e-23
2.17809e-24
4.51675e-25
9.20732e-26
1.84507e-26
3.63478e-27
7.03963e-28
1.34043e-28
2.50947e-29
4.61935e-30
8.36105e-31
1.48813e-31
2.6046e-32
4.48306e-33
7.58841e-34
1.26324e-34
2.06806e-35
3.32962e-36
5.2714e-37
8.20664e-38
1.25594e-38
1.88959e-39
2.79266e-40
4.05559e-41
5.77648e-42
8.07777e-43
1.10423e-43
1.47991e-44
1.926e-45
2.44461e-46
4.85334e-07
1.15185e-05
9.88171e-05
0.00050287
0.00178021
0.00473095
0.00980862
0.0165743
0.0242239
0.0327886
0.0426277
0.0491452
0.0496591
0.0460874
0.0389695
0.0314009
0.0253042
0.0212932
0.0189962
0.0180115
0.0196947
0.0249067
0.0359447
0.057025
0.0958717
0.166725
0.294357
0.429909
0.568883
0.675505
0.767231
0.829851
0.869159
0.887544
0.895055
0.896817
0.894584
0.880704
0.85409
0.810824
0.74615
0.698737
0.649358
0.612174
0.587624
0.563907
0.552091
0.538714
0.532683
0.528478
0.526962
0.526854
0.529534
0.5342
0.540349
0.551496
0.568812
0.593764
0.629378
0.668713
0.711491
0.754864
0.784553
0.813453
0.828583
0.840535
0.849614
0.863854
0.874925
0.896249
0.916082
0.929475
0.937538
0.947668
0.964895
0.976408
0.982568
0.989674
0.992642
0.995957
0.997495
0.998599
0.999184
0.999523
0.999702
0.999786
0.999819
0.999806
0.99971
0.999484
0.999034
0.998159
0.996455
0.993139
0.986624
0.97369
0.947954
0.898145
0.808857
0.67307
0.514891
0.366303
0.252603
0.16889
0.109251
0.0685477
0.0417485
0.0247
0.014203
0.00793974
0.00431541
0.00228048
0.00117166
0.000585252
0.000284232
0.000134233
6.1661e-05
2.75601e-05
1.1991e-05
5.08091e-06
2.09776e-06
8.4435e-07
3.31477e-07
1.26983e-07
4.74878e-08
1.73427e-08
6.1872e-09
2.1569e-09
7.34903e-10
2.44785e-10
7.97212e-11
2.53903e-11
7.90925e-12
2.41012e-12
7.18518e-13
2.09602e-13
5.98376e-14
1.67201e-14
4.57362e-15
1.22492e-15
3.21265e-16
8.25283e-17
2.07687e-17
5.12113e-18
1.23751e-18
2.93089e-19
6.80778e-20
1.55352e-20
3.48327e-21
7.67428e-22
1.66143e-22
3.53454e-23
7.38944e-24
1.51823e-24
3.06573e-25
6.0845e-26
1.18696e-26
2.2761e-27
4.29061e-28
7.95136e-29
1.44872e-29
2.59522e-30
4.57118e-31
7.91719e-32
1.34838e-32
2.25825e-33
3.7191e-34
6.02315e-35
9.59137e-36
1.50181e-36
2.31156e-37
3.49751e-38
5.19869e-39
7.59225e-40
1.08783e-40
1.52995e-41
2.10571e-42
2.84009e-43
3.73184e-44
4.78554e-45
1.64042e-06
3.15236e-05
0.000245836
0.00115704
0.00382631
0.00963714
0.0193804
0.0329529
0.0492792
0.067463
0.086695
0.0945615
0.0946648
0.0890757
0.0808041
0.0746166
0.0706241
0.068749
0.0710584
0.0789917
0.0957203
0.126008
0.177576
0.261315
0.366226
0.487455
0.592361
0.694243
0.771974
0.833379
0.866252
0.882119
0.887721
0.888451
0.883231
0.861805
0.817961
0.739601
0.672925
0.614124
0.580851
0.557912
0.535723
0.525378
0.516516
0.51232
0.508867
0.506534
0.505682
0.505407
0.505417
0.505816
0.504514
0.501246
0.494602
0.485063
0.476637
0.469021
0.465203
0.463204
0.463048
0.469346
0.487327
0.509259
0.539608
0.564881
0.593873
0.630096
0.670241
0.734738
0.800979
0.852013
0.874977
0.890362
0.916787
0.946361
0.96174
0.976173
0.983107
0.989347
0.99312
0.995775
0.997502
0.998596
0.999257
0.99963
0.999815
0.999903
0.999945
0.999962
0.999967
0.99996
0.999923
0.999826
0.999593
0.999037
0.997709
0.994532
0.986931
0.968748
0.925226
0.827675
0.674587
0.500089
0.346727
0.233475
0.15181
0.0955238
0.0582161
0.0343818
0.0196837
0.0109257
0.00588059
0.00306961
0.00155429
0.000763676
0.000364245
0.000168735
7.5962e-05
3.3253e-05
1.41638e-05
5.87368e-06
2.37288e-06
9.34352e-07
3.58777e-07
1.34401e-07
4.91373e-08
1.75385e-08
6.11319e-09
2.08137e-09
6.92364e-10
2.25066e-10
7.15087e-11
2.22104e-11
6.74497e-12
2.00309e-12
5.81825e-13
1.65323e-13
4.59627e-14
1.25051e-14
3.33018e-15
8.68229e-16
2.21654e-16
5.54222e-17
1.35754e-17
3.25814e-18
7.66314e-19
1.76732e-19
4.0027e-20
8.90388e-21
1.94549e-21
4.17571e-22
8.80471e-23
1.82396e-23
3.71248e-24
7.425e-25
1.4593e-25
2.81866e-26
5.35088e-27
9.98443e-28
1.83134e-28
3.30211e-29
5.85355e-30
1.02018e-30
1.74816e-31
2.94546e-32
4.87967e-33
7.94883e-34
1.27308e-34
2.00469e-35
3.10298e-36
4.72104e-37
7.05669e-38
1.03623e-38
1.49331e-39
2.11204e-40
2.92569e-41
3.97088e-42
5.26284e-43
6.81251e-44
2.49964e-06
4.73574e-05
0.000371231
0.00174124
0.0056143
0.0136556
0.0277783
0.0513484
0.0854629
0.125529
0.164089
0.193556
0.203575
0.204836
0.204193
0.205596
0.208584
0.223979
0.247093
0.277691
0.328936
0.394486
0.470166
0.549676
0.631963
0.707473
0.772812
0.828555
0.861642
0.877939
0.88383
0.884763
0.880298
0.861994
0.817187
0.730383
0.650803
0.601677
0.567293
0.543032
0.531479
0.52271
0.51764
0.515502
0.51472
0.515711
0.520677
0.525649
0.531686
0.538869
0.54527
0.55128
0.559002
0.565418
0.571437
0.574039
0.574101
0.555702
0.532959
0.496506
0.464504
0.435563
0.421345
0.403382
0.395104
0.391437
0.390294
0.400239
0.424417
0.478239
0.588176
0.731508
0.797072
0.823436
0.845967
0.886325
0.927495
0.954137
0.970161
0.981087
0.988317
0.992786
0.995553
0.997274
0.998361
0.999047
0.999473
0.999723
0.999865
0.999939
0.999973
0.999986
0.999991
0.999992
0.99999
0.999977
0.999936
0.999816
0.999471
0.998488
0.995718
0.988005
0.966803
0.909177
0.772725
0.590119
0.414151
0.279411
0.181707
0.114019
0.0690878
0.0404445
0.0228835
0.0125186
0.00662454
0.00339284
0.00168289
0.000808999
0.000377202
0.000170719
7.506e-05
3.20838e-05
1.33419e-05
5.40112e-06
2.12978e-06
8.18441e-07
3.06647e-07
1.12061e-07
3.99565e-08
1.39048e-08
4.72392e-09
1.56714e-09
5.07784e-10
1.60734e-10
4.97141e-11
1.50275e-11
4.4403e-12
1.28277e-12
3.62395e-13
1.0014e-13
2.70722e-14
7.16179e-15
1.85439e-15
4.70072e-16
1.16684e-16
2.83689e-17
6.75701e-18
1.57705e-18
3.61033e-19
8.11421e-20
1.79056e-20
3.87989e-21
8.25618e-22
1.72549e-22
3.54212e-23
7.14294e-24
1.41513e-24
2.75463e-25
5.26891e-26
9.90393e-27
1.82963e-27
3.32217e-28
5.92951e-29
1.04036e-29
1.79449e-30
3.04306e-31
5.07343e-32
8.31616e-33
1.34014e-33
2.12315e-34
3.30625e-35
5.06041e-36
7.60966e-37
1.12412e-37
1.63007e-38
2.31979e-39
3.23576e-40
4.42284e-41
5.91358e-42
7.73121e-43
2.76527e-06
5.31887e-05
0.00042159
0.00200049
0.00655786
0.016438
0.0349215
0.068324
0.127127
0.207671
0.282632
0.326872
0.344979
0.352346
0.36098
0.389083
0.419534
0.438251
0.468283
0.516379
0.565089
0.61472
0.672607
0.729116
0.779711
0.822644
0.856191
0.873824
0.88143
0.883353
0.88175
0.871705
0.841528
0.773749
0.671653
0.61258
0.568239
0.547283
0.531534
0.522739
0.518265
0.512498
0.507805
0.505546
0.503684
0.502688
0.502505
0.502546
0.503477
0.5082
0.515076
0.524181
0.540012
0.555457
0.575203
0.592629
0.613511
0.631133
0.644426
0.650352
0.645991
0.61785
0.571875
0.506937
0.450611
0.401943
0.378316
0.367913
0.367998
0.387782
0.44135
0.563106
0.699825
0.736363
0.744359
0.762838
0.827501
0.894166
0.929545
0.957527
0.975657
0.986745
0.992943
0.99618
0.997857
0.998761
0.999279
0.999587
0.999768
0.999873
0.999934
0.999969
0.999987
0.999994
0.999997
0.999998
0.999998
0.999995
0.999984
0.999944
0.99981
0.999368
0.997945
0.993484
0.979855
0.939151
0.822611
0.631031
0.443761
0.298212
0.192473
0.11946
0.0713646
0.0410666
0.0227815
0.0121938
0.00630331
0.00314999
0.00152338
0.000713705
0.000324241
0.000142976
6.12455e-05
2.55057e-05
1.03336e-05
4.07545e-06
1.56545e-06
5.85921e-07
2.13773e-07
7.60564e-08
2.63951e-08
8.93804e-09
2.95397e-09
9.53071e-10
3.00263e-10
9.23929e-11
2.77738e-11
8.15817e-12
2.34214e-12
6.57354e-13
1.80409e-13
4.84277e-14
1.2718e-14
3.26843e-15
8.2218e-16
2.02493e-16
4.884e-17
1.1539e-17
2.67176e-18
6.06995e-19
1.35339e-19
2.9619e-20
6.36342e-21
1.34226e-21
2.78012e-22
5.65494e-23
1.12975e-23
2.21705e-24
4.27426e-25
8.09627e-26
1.50693e-26
2.75632e-27
4.95487e-28
8.75464e-29
1.52046e-29
2.59581e-30
4.35655e-31
7.18784e-32
1.16581e-32
1.85876e-33
2.91293e-34
4.48653e-35
6.78959e-36
1.00936e-36
1.47328e-37
2.11069e-38
2.96553e-39
4.08453e-40
5.51014e-41
7.27736e-42
1.90114e-06
4.21555e-05
0.000361886
0.00182955
0.00639572
0.0171469
0.0387445
0.079393
0.150593
0.256035
0.366285
0.415305
0.436957
0.466903
0.51457
0.536836
0.551117
0.590672
0.638144
0.670613
0.708373
0.751271
0.78823
0.822266
0.850064
0.869316
0.878714
0.882135
0.882553
0.879203
0.865047
0.82585
0.739426
0.648213
0.58987
0.554003
0.53367
0.52388
0.515979
0.51077
0.503535
0.491009
0.478791
0.461806
0.445593
0.426485
0.411647
0.398678
0.390537
0.387357
0.387073
0.397643
0.412288
0.4354
0.463373
0.497468
0.537227
0.585244
0.633969
0.667711
0.687705
0.695748
0.69854
0.686158
0.658881
0.60122
0.517707
0.442109
0.401329
0.38751
0.411823
0.486651
0.608361
0.645637
0.6152
0.578551
0.613834
0.722674
0.821903
0.887648
0.934038
0.964517
0.982657
0.991925
0.996285
0.998244
0.999114
0.999526
0.99974
0.999856
0.999921
0.999957
0.999978
0.999989
0.999995
0.999998
0.999999
0.999999
0.999999
0.999998
0.999992
0.99997
0.999887
0.999581
0.998508
0.994874
0.982968
0.945061
0.828276
0.624543
0.433711
0.287468
0.182342
0.110878
0.0647245
0.036319
0.019617
0.0102133
0.00513255
0.00249295
0.00117179
0.000533642
0.000235702
0.000101063
4.21013e-05
1.70521e-05
6.71906e-06
2.57705e-06
9.62553e-07
3.50264e-07
1.24222e-07
4.29514e-08
1.44834e-08
4.76429e-09
1.52928e-09
4.79123e-10
1.46554e-10
4.37775e-11
1.27738e-11
3.64187e-12
1.01479e-12
2.76438e-13
7.36381e-14
1.91873e-14
4.89156e-15
1.22046e-15
2.98099e-16
7.1297e-17
1.67035e-17
3.83714e-18
8.64715e-19
1.91193e-19
4.14838e-20
8.83401e-21
1.84663e-21
3.78971e-22
7.63666e-23
1.51123e-23
2.93729e-24
5.608e-25
1.05188e-25
1.93853e-26
3.51051e-27
6.24747e-28
1.09272e-28
1.87853e-29
3.17432e-30
5.27258e-31
8.60868e-32
1.38161e-32
2.17937e-33
3.37861e-34
5.14657e-35
7.70167e-36
1.13182e-36
1.63288e-37
2.31144e-38
3.2091e-39
4.36812e-40
5.82811e-41
7.29035e-07
2.16929e-05
0.000221913
0.00129371
0.00506119
0.0146216
0.0341526
0.0710579
0.137609
0.242312
0.372223
0.49103
0.540767
0.559613
0.584143
0.631038
0.671797
0.695058
0.727828
0.766325
0.794437
0.821533
0.846405
0.864326
0.875552
0.880782
0.882327
0.881982
0.877867
0.862123
0.820035
0.728785
0.649559
0.585448
0.551654
0.529088
0.518111
0.511198
0.505797
0.493487
0.474021
0.444146
0.418319
0.39578
0.372751
0.349754
0.329438
0.310732
0.297719
0.29126
0.289101
0.294726
0.305158
0.326974
0.348108
0.378792
0.408067
0.445401
0.491996
0.579205
0.658131
0.69455
0.708266
0.712286
0.712243
0.702871
0.67869
0.628974
0.546032
0.479108
0.455819
0.466789
0.536928
0.598951
0.560413
0.495121
0.482648
0.528198
0.649697
0.784605
0.872783
0.926971
0.959912
0.979891
0.990895
0.996207
0.998468
0.999343
0.999697
0.999849
0.999921
0.999957
0.999977
0.999988
0.999994
0.999997
0.999999
0.999999
1
1
1
0.999999
0.999994
0.999974
0.999892
0.999579
0.998425
0.994336
0.980356
0.933889
0.789106
0.572205
0.388026
0.250761
0.154728
0.0913519
0.0517097
0.0281166
0.0147124
0.00742127
0.00361441
0.00170209
0.000776011
0.000342907
0.000147005
6.11921e-05
2.47506e-05
9.7336e-06
3.72391e-06
1.38667e-06
5.02785e-07
1.77581e-07
6.11185e-08
2.05047e-08
6.70778e-09
2.14032e-09
6.66325e-10
2.02454e-10
6.00522e-11
1.73948e-11
4.92187e-12
1.36078e-12
3.67724e-13
9.71546e-14
2.51039e-14
6.34578e-15
1.56972e-15
3.80078e-16
9.01112e-17
2.09359e-17
4.76951e-18
1.06564e-18
2.33554e-19
5.02206e-20
1.05968e-20
2.19452e-21
4.46121e-22
8.90394e-23
1.745e-23
3.35857e-24
6.34925e-25
1.17911e-25
2.15132e-26
3.85674e-27
6.7943e-28
1.17629e-28
2.00152e-29
3.34735e-30
5.50235e-31
8.89001e-32
1.4117e-32
2.20311e-33
3.37851e-34
5.09017e-35
7.53264e-36
1.09457e-36
1.56129e-37
2.18535e-38
3.00133e-39
4.04497e-40
1.36187e-07
7.045e-06
9.15071e-05
0.000639255
0.00294317
0.00981699
0.0254697
0.0554174
0.110143
0.205415
0.341787
0.478967
0.583878
0.642903
0.664323
0.680158
0.715873
0.761329
0.793132
0.815725
0.838092
0.857093
0.870864
0.877975
0.881292
0.882232
0.88171
0.876946
0.858856
0.815694
0.737612
0.6582
0.596698
0.552605
0.532267
0.518542
0.511542
0.502354
0.487812
0.456833
0.4157
0.37906
0.35501
0.327001
0.292612
0.262648
0.232566
0.210113
0.194891
0.187735
0.185716
0.196081
0.21191
0.242957
0.277355
0.322421
0.357567
0.389827
0.419523
0.450701
0.519345
0.630461
0.685401
0.706664
0.71238
0.711269
0.70178
0.680239
0.640521
0.564066
0.496136
0.481116
0.487668
0.530633
0.532713
0.479379
0.458402
0.480374
0.58652
0.74851
0.854267
0.915839
0.951644
0.972976
0.985681
0.992962
0.99684
0.998715
0.999508
0.99981
0.99992
0.999963
0.999981
0.99999
0.999994
0.999997
0.999999
0.999999
1
1
1
1
1
0.999998
0.999992
0.999964
0.99985
0.999399
0.997699
0.991524
0.969797
0.895222
0.695228
0.481354
0.315744
0.196979
0.117242
0.0667572
0.0364525
0.0191308
0.00966901
0.00471459
0.00222121
0.00101252
0.00044708
0.00019141
7.95261e-05
3.20877e-05
1.25814e-05
4.79646e-06
1.77883e-06
6.42036e-07
2.2562e-07
7.72244e-08
2.5754e-08
8.37144e-09
2.65317e-09
8.20132e-10
2.47341e-10
7.28025e-11
2.09206e-11
5.87113e-12
1.60965e-12
4.31263e-13
1.12952e-13
2.89288e-14
7.24745e-15
1.77661e-15
4.26276e-16
1.0018e-16
2.30747e-17
5.21033e-18
1.15362e-18
2.50508e-19
5.3362e-20
1.11527e-20
2.28745e-21
4.60492e-22
9.10058e-23
1.76589e-23
3.36492e-24
6.29746e-25
1.1577e-25
2.09084e-26
3.71014e-27
6.46917e-28
1.10849e-28
1.86666e-29
3.08939e-30
5.02528e-31
8.03381e-32
1.26222e-32
1.9488e-33
2.95634e-34
4.40584e-35
6.44898e-36
9.26982e-37
1.30817e-37
1.81262e-38
2.46709e-39
4.28643e-09
1.28135e-06
2.51339e-05
0.000222133
0.00124347
0.00494594
0.0149686
0.0365384
0.0771117
0.149179
0.267715
0.426155
0.563969
0.654084
0.713728
0.743618
0.759075
0.78422
0.820231
0.846352
0.86025
0.872072
0.878704
0.881353
0.882085
0.881786
0.878426
0.865404
0.83067
0.762637
0.685047
0.621657
0.57204
0.538884
0.521252
0.509215
0.502014
0.486337
0.459139
0.418908
0.378166
0.344649
0.313916
0.273057
0.230662
0.196133
0.163822
0.139851
0.126812
0.120482
0.118776
0.126021
0.138234
0.160311
0.190459
0.235559
0.303792
0.361352
0.396934
0.41948
0.444933
0.502464
0.616679
0.6722
0.691554
0.694335
0.689909
0.672255
0.648318
0.591922
0.511361
0.470215
0.458086
0.455042
0.453448
0.44838
0.453302
0.477522
0.582468
0.746434
0.854643
0.918663
0.953511
0.973038
0.985113
0.992248
0.996214
0.99826
0.999244
0.999694
0.999885
0.999957
0.999983
0.999993
0.999997
0.999998
0.999999
0.999999
1
1
1
1
1
1
0.999999
0.999997
0.999984
0.999932
0.999713
0.998845
0.995531
0.983278
0.939245
0.789228
0.55672
0.36888
0.231739
0.138579
0.0791459
0.0432965
0.0227438
0.0114975
0.00560395
0.00263772
0.0012006
0.000529063
0.000225937
9.35846e-05
3.76251e-05
1.46922e-05
5.57544e-06
2.0572e-06
7.3838e-07
2.57916e-07
8.77099e-08
2.90508e-08
9.37495e-09
2.94877e-09
9.04341e-10
2.70518e-10
7.89569e-11
2.2494e-11
6.25724e-12
1.70015e-12
4.51374e-13
1.17133e-13
2.97207e-14
7.37606e-15
1.79111e-15
4.25806e-16
9.91679e-17
2.26317e-17
5.06244e-18
1.11021e-18
2.38758e-19
5.03627e-20
1.04221e-20
2.11633e-21
4.21772e-22
8.25125e-23
1.58483e-23
2.98911e-24
5.53681e-25
1.0074e-25
1.80061e-26
3.16206e-27
5.45623e-28
9.25178e-29
1.54168e-29
2.52476e-30
4.06358e-31
6.42764e-32
9.99155e-33
1.52621e-33
2.29064e-34
3.3775e-35
4.89226e-36
6.96046e-37
9.7291e-38
1.33695e-38
2.22982e-07
1.29673e-07
3.75323e-06
5.19286e-05
0.000369689
0.00179493
0.00650766
0.0186274
0.044402
0.0928643
0.176658
0.308579
0.483814
0.626669
0.709988
0.76036
0.792343
0.812737
0.835104
0.859736
0.871891
0.878136
0.881061
0.881845
0.88142
0.877905
0.865736
0.836079
0.782195
0.71721
0.651536
0.598747
0.556165
0.530881
0.517577
0.505131
0.494096
0.478779
0.449031
0.401803
0.348501
0.304064
0.270947
0.229144
0.185671
0.151148
0.125637
0.108942
0.101411
0.0988288
0.0990026
0.103822
0.114131
0.133625
0.162112
0.199866
0.256755
0.326829
0.385713
0.414946
0.432157
0.458615
0.526027
0.626268
0.666527
0.670717
0.654085
0.593275
0.574497
0.566863
0.513026
0.441306
0.413059
0.408961
0.413387
0.428083
0.452022
0.517516
0.652516
0.776122
0.870246
0.932053
0.96703
0.983442
0.990372
0.994184
0.996686
0.998302
0.999212
0.999659
0.999861
0.999946
0.99998
0.999993
0.999997
0.999999
1
1
1
1
1
1
1
1
1
1
0.999998
0.999991
0.999961
0.999829
0.999284
0.997115
0.988755
0.957511
0.843568
0.606519
0.404275
0.254703
0.152506
0.0871203
0.0476345
0.0249958
0.0126165
0.00613711
0.00288165
0.00130785
0.000574393
0.000244355
0.000100777
4.03222e-05
1.56623e-05
5.90941e-06
2.16691e-06
7.72601e-07
2.67969e-07
9.0452e-08
2.97259e-08
9.51506e-09
2.9677e-09
9.02259e-10
2.67494e-10
7.7364e-11
2.18359e-11
6.01695e-12
1.61927e-12
4.25755e-13
1.0941e-13
2.74896e-14
6.75533e-15
1.62456e-15
3.82556e-16
8.82386e-17
1.9941e-17
4.41653e-18
9.58894e-19
2.04138e-19
4.26228e-20
8.73018e-21
1.75453e-21
3.46053e-22
6.69963e-23
1.2734e-23
2.37663e-24
4.35618e-25
7.84265e-26
1.38704e-26
2.41012e-27
4.11484e-28
6.90353e-29
1.1382e-29
1.84425e-30
2.93683e-31
4.59618e-32
7.06899e-33
1.06845e-33
1.5869e-34
2.31613e-35
3.32184e-36
4.68299e-37
6.49532e-38
0.00034645
2.18876e-05
2.43811e-06
8.12771e-06
7.60089e-05
0.000465264
0.0020568
0.00706508
0.0197478
0.0469282
0.0983121
0.186557
0.323576
0.510504
0.666548
0.749219
0.792498
0.819059
0.83943
0.859315
0.873311
0.87935
0.881774
0.882297
0.881307
0.874943
0.856911
0.819633
0.759875
0.693109
0.635168
0.589248
0.55277
0.527865
0.514257
0.504588
0.494425
0.48074
0.453745
0.40832
0.353161
0.304419
0.269088
0.230428
0.18795
0.152548
0.127024
0.109958
0.101927
0.0953599
0.0952436
0.0986359
0.107464
0.125339
0.154611
0.191221
0.245485
0.315971
0.381141
0.421361
0.435492
0.452509
0.489088
0.58517
0.654218
0.666397
0.646925
0.548725
0.455804
0.434123
0.437284
0.415875
0.385081
0.383713
0.394148
0.420987
0.46613
0.550629
0.658184
0.767476
0.861842
0.929502
0.968308
0.986913
0.994787
0.997727
0.998812
0.999268
0.999548
0.999751
0.999878
0.999947
0.999979
0.999992
0.999997
0.999999
1
1
1
1
1
1
1
1
1
1
1
0.999999
0.999994
0.999972
0.999875
0.999458
0.99774
0.990892
0.964491
0.865638
0.629624
0.419592
0.264052
0.157792
0.089918
0.0490267
0.0256471
0.0129017
0.00625284
0.00292418
0.00132129
0.000577496
0.000244383
0.000100213
3.98506e-05
1.53773e-05
5.76131e-06
2.09697e-06
7.41845e-07
2.55207e-07
8.54138e-08
2.78237e-08
8.82553e-09
2.72705e-09
8.2121e-10
2.41107e-10
6.90457e-11
1.92937e-11
5.26288e-12
1.40195e-12
3.64849e-13
9.27962e-14
2.30754e-14
5.61312e-15
1.3364e-15
3.11523e-16
7.11213e-17
1.59073e-17
3.48658e-18
7.49082e-19
1.57796e-19
3.25992e-20
6.60638e-21
1.31359e-21
2.56324e-22
4.90948e-23
9.23168e-24
1.70451e-24
3.09076e-25
5.50478e-26
9.63128e-27
1.65558e-27
2.79631e-28
4.64116e-29
7.5702e-30
1.21353e-30
1.91193e-31
2.96059e-32
4.50596e-33
6.74055e-34
9.91181e-35
1.43278e-35
2.03672e-36
2.85036e-37
0.00612244
0.000502949
4.90735e-05
8.61399e-06
1.47988e-05
9.23533e-05
0.000486754
0.0019645
0.00644328
0.0178105
0.0426182
0.0906462
0.174649
0.306987
0.499414
0.680333
0.769972
0.812484
0.836551
0.855791
0.871517
0.878703
0.881628
0.882434
0.881819
0.876141
0.859627
0.824187
0.765573
0.697924
0.639523
0.593275
0.556798
0.530462
0.515307
0.505808
0.496234
0.487188
0.468584
0.431609
0.375118
0.319243
0.27941
0.243053
0.20405
0.16828
0.14125
0.122418
0.112316
0.106416
0.107459
0.111858
0.122092
0.137837
0.172399
0.217357
0.273025
0.338742
0.403824
0.448132
0.464922
0.469114
0.485394
0.557292
0.647081
0.667454
0.652624
0.55535
0.437718
0.39367
0.387081
0.381108
0.367058
0.359607
0.364814
0.397473
0.443064
0.49167
0.567705
0.698233
0.826617
0.915179
0.963733
0.986125
0.995038
0.99828
0.99939
0.999761
0.999889
0.999939
0.999964
0.999978
0.999988
0.999995
0.999998
0.999999
1
1
1
1
1
1
1
1
1
1
1
1
0.999999
0.999995
0.999976
0.99989
0.999509
0.997887
0.991253
0.965102
0.865434
0.6268
0.4159
0.260459
0.154866
0.0878051
0.0476319
0.0247895
0.0124046
0.00597888
0.00277992
0.00124845
0.000542132
0.000227848
9.27574e-05
3.66047e-05
1.40119e-05
5.20585e-06
1.8783e-06
6.58483e-07
2.24414e-07
7.43865e-08
2.39928e-08
7.53381e-09
2.30406e-09
6.86617e-10
1.99468e-10
5.65147e-11
1.56231e-11
4.21576e-12
1.11089e-12
2.85973e-13
7.19474e-14
1.76998e-14
4.26003e-15
1.00346e-15
2.31406e-16
5.22614e-17
1.15625e-17
2.50675e-18
5.32697e-19
1.10988e-19
2.2678e-20
4.54541e-21
8.93876e-22
1.72509e-22
3.26784e-23
6.0773e-24
1.10978e-24
1.99028e-25
3.50597e-26
6.06706e-27
1.03153e-27
1.72333e-28
2.82931e-29
4.56515e-30
7.23984e-31
1.12857e-31
1.72938e-32
2.6052e-33
3.85887e-34
5.62079e-35
8.05435e-36
1.13692e-36
0.0193606
0.00208899
0.000304858
5.77867e-05
1.66836e-05
2.17399e-05
8.68103e-05
0.000420092
0.00161259
0.00510531
0.0138748
0.0332233
0.0721426
0.141899
0.256848
0.434647
0.644543
0.761896
0.816156
0.844518
0.864361
0.87538
0.880327
0.882153
0.88202
0.879753
0.869798
0.844037
0.788916
0.720069
0.658179
0.608366
0.569694
0.539878
0.520327
0.50942
0.499904
0.492443
0.484504
0.468845
0.435723
0.379057
0.318608
0.276597
0.23986
0.206225
0.177521
0.157219
0.143471
0.137725
0.139418
0.145546
0.158827
0.18332
0.224661
0.279186
0.34617
0.410513
0.452315
0.475552
0.488789
0.497538
0.510511
0.55641
0.650754
0.683152
0.673774
0.58759
0.454928
0.410589
0.423074
0.431721
0.416281
0.380108
0.357746
0.359123
0.374186
0.405333
0.487335
0.664361
0.814646
0.911082
0.962188
0.985499
0.994899
0.99833
0.999478
0.999837
0.999947
0.999981
0.999992
0.999996
0.999998
0.999999
0.999999
1
1
1
1
1
1
1
1
1
1
1
1
1
1
0.999999
0.999996
0.999977
0.999891
0.999497
0.997776
0.990573
0.961678
0.850055