/*--------------------------------*- C++ -*----------------------------------*\
  =========                 |
  \\      /  F ield         | OpenFOAM: The Open Source CFD Toolbox
   \\    /   O peration     | Website:  https://openfoam.org
    \\  /    A nd           | Version:  7
     \\/     M anipulation  |
\*---------------------------------------------------------------------------*/
FoamFile
{
    version     2.0;
    format      ascii;
    class       volVectorField;
    location    "0.04";
    object      U;
}
// * * * * * * * * * * * * * * * * * * * * * * * * * * * * * * * * * * * * * //

dimensions      [0 1 -1 0 0 0 0];

internalField   nonuniform List<vector> 
12225
(
(4.72767 0.140991 0)
(4.09821 0.113029 0)
(3.63896 0.0901181 0)
(3.28267 0.0780853 0)
(2.92596 0.0742773 0)
(2.58264 0.065211 0)
(2.27538 0.0557119 0)
(1.9962 0.049964 0)
(1.73702 0.0440973 0)
(1.50005 0.0354662 0)
(1.28978 0.0254697 0)
(1.11201 0.0166925 0)
(0.962114 0.0106976 0)
(0.840598 0.00687659 0)
(0.729112 0.00441276 0)
(0.644362 0.00297708 0)
(0.547162 0.00442225 0)
(0.484735 -0.00547087 0)
(4.93673 0.112738 0)
(4.84167 0.0748099 0)
(4.7567 0.0966712 0)
(4.66085 0.0970038 0)
(4.54726 0.098169 0)
(4.42382 0.0971553 0)
(4.29104 0.0938821 0)
(4.14659 0.0922296 0)
(3.99577 0.0931175 0)
(3.84843 0.0937119 0)
(3.70659 0.0912596 0)
(3.57219 0.0860497 0)
(3.43498 0.0804517 0)
(3.30207 0.0754439 0)
(3.16148 0.0715015 0)
(3.03779 0.0662509 0)
(2.89677 0.066172 0)
(2.78331 0.0588037 0)
(4.88033 0.15155 0)
(4.76535 0.0956237 0)
(4.71013 0.113667 0)
(4.70692 0.123675 0)
(4.71395 0.130004 0)
(4.7139 0.131021 0)
(4.70163 0.129809 0)
(4.67375 0.131719 0)
(4.62986 0.134539 0)
(4.57419 0.132155 0)
(4.514 0.123423 0)
(4.45595 0.113742 0)
(4.40363 0.107356 0)
(4.3564 0.104773 0)
(4.31228 0.104367 0)
(4.26455 0.104588 0)
(4.21443 0.106179 0)
(4.14841 0.106033 0)
(4.94746 0.140286 0)
(4.84739 0.116235 0)
(4.79752 0.116744 0)
(4.77922 0.114074 0)
(4.77465 0.112193 0)
(4.76751 0.109995 0)
(4.75355 0.110196 0)
(4.73754 0.116715 0)
(4.72524 0.125552 0)
(4.71695 0.12973 0)
(4.71024 0.126811 0)
(4.70139 0.119943 0)
(4.69137 0.11383 0)
(4.67948 0.110214 0)
(4.66716 0.109684 0)
(4.64892 0.110943 0)
(4.62877 0.115592 0)
(4.59841 0.121788 0)
(5.05877 0.196611 0)
(4.94149 0.104047 0)
(4.85357 0.103509 0)
(4.80728 0.117942 0)
(4.78026 0.12886 0)
(4.75975 0.13286 0)
(4.74683 0.133099 0)
(4.74345 0.134529 0)
(4.74794 0.136575 0)
(4.75513 0.135405 0)
(4.75983 0.129655 0)
(4.75859 0.121799 0)
(4.75282 0.115881 0)
(4.74406 0.11379 0)
(4.73341 0.115669 0)
(4.71893 0.120783 0)
(4.7021 0.128867 0)
(4.68102 0.138039 0)
(4.97851 0.196348 0)
(4.90618 0.155165 0)
(4.85594 0.149592 0)
(4.80667 0.144866 0)
(4.78333 0.139614 0)
(4.78101 0.12978 0)
(4.78284 0.120353 0)
(4.78008 0.118611 0)
(4.77455 0.12338 0)
(4.7702 0.127909 0)
(4.76772 0.127926 0)
(4.76534 0.124373 0)
(4.763 0.121077 0)
(4.76068 0.120721 0)
(4.75942 0.123938 0)
(4.75648 0.130197 0)
(4.75413 0.138213 0)
(4.74793 0.146661 0)
(5.0214 0.249949 0)
(4.91284 0.144397 0)
(4.83676 0.123335 0)
(4.81772 0.131675 0)
(4.83217 0.136946 0)
(4.85438 0.13391 0)
(4.86227 0.131589 0)
(4.84927 0.134585 0)
(4.82498 0.138866 0)
(4.8024 0.138651 0)
(4.78696 0.132572 0)
(4.77739 0.123769 0)
(4.7719 0.116803 0)
(4.77008 0.114109 0)
(4.77323 0.116354 0)
(4.77979 0.122397 0)
(4.79052 0.13116 0)
(4.8008 0.14158 0)
(5.03417 0.206378 0)
(4.93805 0.198427 0)
(4.85552 0.165385 0)
(4.81348 0.141174 0)
(4.8268 0.12689 0)
(4.85929 0.120137 0)
(4.87828 0.123384 0)
(4.87504 0.133181 0)
(4.85958 0.141429 0)
(4.84564 0.142796 0)
(4.83964 0.137762 0)
(4.84003 0.130161 0)
(4.84297 0.123757 0)
(4.84565 0.120089 0)
(4.84629 0.11943 0)
(4.84517 0.121524 0)
(4.84194 0.126357 0)
(4.83834 0.134246 0)
(4.97555 0.291484 0)
(4.9947 0.216562 0)
(4.99049 0.165762 0)
(4.97105 0.137001 0)
(4.94178 0.122132 0)
(4.91346 0.118623 0)
(4.8963 0.127908 0)
(4.88735 0.143001 0)
(4.87934 0.152572 0)
(4.87029 0.150634 0)
(4.86265 0.139526 0)
(4.85816 0.126274 0)
(4.85706 0.117094 0)
(4.85716 0.114804 0)
(4.8559 0.118572 0)
(4.8508 0.126431 0)
(4.84171 0.136472 0)
(4.82954 0.146828 0)
(4.98195 0.217831 0)
(4.97285 0.182139 0)
(4.95991 0.166504 0)
(4.94182 0.159231 0)
(4.91552 0.152703 0)
(4.88609 0.142483 0)
(4.86092 0.137388 0)
(4.84227 0.14121 0)
(4.83098 0.147492 0)
(4.82771 0.148058 0)
(4.83112 0.140613 0)
(4.83719 0.129156 0)
(4.84346 0.119767 0)
(4.84796 0.116501 0)
(4.8521 0.119806 0)
(4.85496 0.128134 0)
(4.85883 0.138761 0)
(4.86255 0.150087 0)
(4.99197 0.254043 0)
(4.95135 0.222296 0)
(4.92041 0.170872 0)
(4.90253 0.144563 0)
(4.89897 0.13665 0)
(4.90199 0.138665 0)
(4.90513 0.147835 0)
(4.90626 0.157693 0)
(4.90722 0.160159 0)
(4.90792 0.152126 0)
(4.9041 0.137552 0)
(4.89184 0.123568 0)
(4.87256 0.115566 0)
(4.85142 0.114796 0)
(4.83466 0.119045 0)
(4.82525 0.126099 0)
(4.82474 0.133195 0)
(4.83117 0.140719 0)
(5.04897 0.232251 0)
(5.02223 0.210931 0)
(4.9905 0.190609 0)
(4.9693 0.174648 0)
(4.95938 0.159059 0)
(4.95121 0.146227 0)
(4.94661 0.141079 0)
(4.94783 0.142731 0)
(4.95206 0.146511 0)
(4.95255 0.148653 0)
(4.94361 0.147862 0)
(4.92505 0.144604 0)
(4.90313 0.14007 0)
(4.88542 0.135563 0)
(4.87789 0.132036 0)
(4.88025 0.130477 0)
(4.89229 0.130667 0)
(4.90674 0.133727 0)
(4.93796 0.299068 0)
(4.92901 0.234453 0)
(4.94578 0.184998 0)
(4.96025 0.148474 0)
(4.96963 0.132827 0)
(4.96749 0.136802 0)
(4.95632 0.147892 0)
(4.94647 0.155798 0)
(4.9468 0.158448 0)
(4.95755 0.157907 0)
(4.97238 0.155685 0)
(4.98416 0.151611 0)
(4.98967 0.14523 0)
(4.98874 0.136955 0)
(4.98344 0.128118 0)
(4.97547 0.120917 0)
(4.96798 0.116708 0)
(4.9605 0.117397 0)
(4.96544 0.24065 0)
(5.0044 0.192626 0)
(5.04409 0.173839 0)
(5.0441 0.168377 0)
(5.00634 0.164579 0)
(4.96129 0.159955 0)
(4.93141 0.153381 0)
(4.92291 0.144353 0)
(4.93374 0.135169 0)
(4.95742 0.128902 0)
(4.98532 0.126844 0)
(5.0101 0.128372 0)
(5.0285 0.131773 0)
(5.04 0.135612 0)
(5.04682 0.138885 0)
(5.04897 0.141309 0)
(5.0499 0.143129 0)
(5.04647 0.144411 0)
(5.03261 0.24817 0)
(5.06025 0.184293 0)
(5.06905 0.174728 0)
(5.04904 0.178087 0)
(5.01533 0.186548 0)
(4.98985 0.191338 0)
(4.97892 0.181915 0)
(4.97684 0.159202 0)
(4.97787 0.134341 0)
(4.97956 0.118056 0)
(4.98136 0.113441 0)
(4.98408 0.116455 0)
(4.98968 0.121025 0)
(4.99956 0.122719 0)
(5.01407 0.12139 0)
(5.03097 0.118816 0)
(5.04853 0.117778 0)
(5.06335 0.121334 0)
(4.96645 0.256909 0)
(4.96746 0.176216 0)
(4.96105 0.173254 0)
(4.94923 0.194716 0)
(4.94744 0.19447 0)
(4.95906 0.173822 0)
(4.98067 0.151167 0)
(5.00028 0.136985 0)
(5.00836 0.131727 0)
(5.00603 0.130626 0)
(5.00157 0.128569 0)
(5.00246 0.123052 0)
(5.01143 0.11449 0)
(5.02642 0.105175 0)
(5.0424 0.0980114 0)
(5.05552 0.0954691 0)
(5.06295 0.0987585 0)
(5.06549 0.108337 0)
(5.06226 0.238397 0)
(5.07068 0.208265 0)
(5.02882 0.194943 0)
(4.99605 0.200391 0)
(4.99174 0.194932 0)
(4.99791 0.176 0)
(5.00538 0.153933 0)
(5.01364 0.137986 0)
(5.02334 0.129333 0)
(5.03379 0.122226 0)
(5.04398 0.111626 0)
(5.05302 0.0981227 0)
(5.06047 0.0862334 0)
(5.06565 0.0808325 0)
(5.0684 0.0838035 0)
(5.0685 0.094025 0)
(5.06702 0.108516 0)
(5.06458 0.123433 0)
(5.04625 0.299223 0)
(5.03958 0.290557 0)
(5.01721 0.253103 0)
(5.00292 0.21605 0)
(5.01711 0.175306 0)
(5.04423 0.138778 0)
(5.06676 0.112717 0)
(5.08208 0.100181 0)
(5.09168 0.0989661 0)
(5.09669 0.102692 0)
(5.09922 0.10543 0)
(5.10085 0.104744 0)
(5.10255 0.101392 0)
(5.10457 0.098024 0)
(5.10774 0.0969169 0)
(5.11187 0.0995211 0)
(5.11789 0.105365 0)
(5.12475 0.113941 0)
(4.97929 0.27828 0)
(5.01255 0.260237 0)
(5.03638 0.218068 0)
(5.07802 0.179258 0)
(5.11893 0.146605 0)
(5.14397 0.120669 0)
(5.15315 0.108429 0)
(5.15454 0.109551 0)
(5.1516 0.113905 0)
(5.14575 0.111729 0)
(5.13935 0.100371 0)
(5.13446 0.0839766 0)
(5.13201 0.0688418 0)
(5.13215 0.0599461 0)
(5.13462 0.058532 0)
(5.13886 0.0630725 0)
(5.14439 0.0705879 0)
(5.15063 0.078217 0)
(5.05063 0.25127 0)
(5.07869 0.239766 0)
(5.08796 0.17842 0)
(5.09303 0.115929 0)
(5.09734 0.0853973 0)
(5.10716 0.0779238 0)
(5.12259 0.0846864 0)
(5.14058 0.0998307 0)
(5.15737 0.116804 0)
(5.17044 0.128784 0)
(5.1781 0.131261 0)
(5.17974 0.124151 0)
(5.17711 0.110976 0)
(5.17291 0.0969614 0)
(5.16976 0.0864042 0)
(5.16867 0.0814009 0)
(5.17065 0.0815922 0)
(5.17512 0.0855285 0)
(5.03904 0.258944 0)
(5.05923 0.219655 0)
(5.06625 0.181377 0)
(5.07035 0.147008 0)
(5.0698 0.116584 0)
(5.06763 0.0870283 0)
(5.07393 0.0668203 0)
(5.09232 0.0617553 0)
(5.1195 0.0685202 0)
(5.14895 0.0787195 0)
(5.17479 0.0850394 0)
(5.19393 0.0848244 0)
(5.20731 0.0791808 0)
(5.21776 0.0711555 0)
(5.22857 0.0633071 0)
(5.24035 0.056993 0)
(5.25408 0.052116 0)
(5.26751 0.0477328 0)
(5.04475 0.334446 0)
(5.05662 0.242873 0)
(5.0706 0.173045 0)
(5.09462 0.122408 0)
(5.11607 0.0926992 0)
(5.12777 0.0730747 0)
(5.13478 0.0550178 0)
(5.14577 0.0447622 0)
(5.16528 0.0483775 0)
(5.19146 0.0626338 0)
(5.21911 0.0780665 0)
(5.24345 0.0860528 0)
(5.26293 0.0833279 0)
(5.27837 0.0720244 0)
(5.29186 0.057833 0)
(5.3044 0.0460929 0)
(5.31719 0.04002 0)
(5.32974 0.0409467 0)
(4.98769 0.324236 0)
(5.03772 0.217269 0)
(5.07037 0.134062 0)
(5.1103 0.0995448 0)
(5.14215 0.085922 0)
(5.16033 0.0682201 0)
(5.16611 0.0425307 0)
(5.1666 0.0196924 0)
(5.17319 0.00829544 0)
(5.19459 0.00913156 0)
(5.23072 0.0163734 0)
(5.27389 0.0234693 0)
(5.31523 0.0264958 0)
(5.34837 0.0248489 0)
(5.37071 0.019875 0)
(5.38266 0.013581 0)
(5.38712 0.00748201 0)
(5.38738 0.0026642 0)
(5.00824 0.243858 0)
(5.08949 0.192017 0)
(5.17287 0.1334 0)
(5.22824 0.0876284 0)
(5.24693 0.0685237 0)
(5.24903 0.0646994 0)
(5.25376 0.0576451 0)
(5.26574 0.0420827 0)
(5.28219 0.0228183 0)
(5.30023 0.00720338 0)
(5.31827 -0.000756595 0)
(5.33582 -0.00129378 0)
(5.35282 0.00346231 0)
(5.36916 0.0111984 0)
(5.38499 0.0198547 0)
(5.39999 0.0281021 0)
(5.41471 0.0350276 0)
(5.42885 0.0398439 0)
(5.01339 0.232733 0)
(5.0858 0.105551 0)
(5.18391 0.0350668 0)
(5.23884 0.0417739 0)
(5.25753 0.0563196 0)
(5.26538 0.0466569 0)
(5.28023 0.0193464 0)
(5.30228 -0.00767708 0)
(5.32262 -0.0219245 0)
(5.33639 -0.0238993 0)
(5.34393 -0.0192488 0)
(5.34876 -0.0137624 0)
(5.35511 -0.010932 0)
(5.36536 -0.0115467 0)
(5.37997 -0.0148685 0)
(5.39772 -0.0193198 0)
(5.41722 -0.024035 0)
(5.437 -0.0282208 0)
(5.0202 0.200582 0)
(5.11045 0.105236 0)
(5.12831 0.0753517 0)
(5.15646 0.0703518 0)
(5.20577 0.0712508 0)
(5.26438 0.0604491 0)
(5.31785 0.0373366 0)
(5.35864 0.0123712 0)
(5.38606 -0.00286852 0)
(5.40486 -0.00802281 0)
(5.42117 -0.00872224 0)
(5.43803 -0.00894606 0)
(5.45579 -0.00983104 0)
(5.47357 -0.0107536 0)
(5.49036 -0.0105763 0)
(5.50493 -0.00930898 0)
(5.51699 -0.00740013 0)
(5.52595 -0.00598919 0)
(4.9978 0.186953 0)
(5.08279 0.0380419 0)
(5.1887 0.0128831 0)
(5.2568 -0.00104295 0)
(5.30766 -0.0163261 0)
(5.35037 -0.0290755 0)
(5.38049 -0.0392025 0)
(5.39975 -0.0471705 0)
(5.41336 -0.0508109 0)
(5.42551 -0.0486695 0)
(5.44013 -0.0438988 0)
(5.45917 -0.0403041 0)
(5.48236 -0.0393843 0)
(5.50778 -0.0403474 0)
(5.53288 -0.0415726 0)
(5.55462 -0.0423487 0)
(5.57183 -0.0424974 0)
(5.58322 -0.0426221 0)
(5.12038 0.134985 0)
(5.2405 0.0629101 0)
(5.35824 0.0401146 0)
(5.41267 0.0260563 0)
(5.43934 0.0206186 0)
(5.46306 0.0162782 0)
(5.48473 0.0075867 0)
(5.50359 -0.00422509 0)
(5.52055 -0.0154006 0)
(5.53682 -0.022989 0)
(5.55507 -0.0284975 0)
(5.57758 -0.0342066 0)
(5.60402 -0.0398648 0)
(5.63144 -0.0431234 0)
(5.65622 -0.0417503 0)
(5.67567 -0.0363968 0)
(5.68918 -0.0286699 0)
(5.69725 -0.0222163 0)
(5.04301 0.0371657 0)
(5.19399 -0.0367489 0)
(5.33268 -0.0235434 0)
(5.4095 -0.0364229 0)
(5.45785 -0.0469223 0)
(5.50166 -0.0503018 0)
(5.54038 -0.0548708 0)
(5.56526 -0.0613862 0)
(5.57257 -0.0658555 0)
(5.56614 -0.0667432 0)
(5.5535 -0.0666246 0)
(5.54057 -0.0682687 0)
(5.52858 -0.0713803 0)
(5.51678 -0.073283 0)
(5.50406 -0.0714819 0)
(5.49158 -0.0661785 0)
(5.47926 -0.0588956 0)
(5.47025 -0.0527022 0)
(4.91964 0.0944861 0)
(5.13357 0.0158067 0)
(5.11882 -0.0111379 0)
(4.98896 -0.0225906 0)
(4.8567 -0.0200333 0)
(4.74881 -0.0166944 0)
(4.64744 -0.0169847 0)
(4.53915 -0.0177534 0)
(4.42691 -0.0172101 0)
(4.31759 -0.0170428 0)
(4.21151 -0.0196695 0)
(4.10348 -0.0250031 0)
(3.9891 -0.0300359 0)
(3.87191 -0.0313918 0)
(3.76036 -0.0282779 0)
(3.66325 -0.0224976 0)
(3.58261 -0.0167516 0)
(3.51832 -0.0139401 0)
(0.010896 -0.0349748 4.15863e-20)
(0.0857463 -0.0938303 -4.12795e-20)
(0.192041 -0.117688 0)
(0.301969 -0.124665 0)
(0.413689 -0.125783 0)
(0.527077 -0.125631 3.99903e-20)
(0.642303 -0.125658 0)
(0.759747 -0.126029 0)
(0.879644 -0.126423 0)
(1.0018 -0.126339 0)
(1.12549 -0.125152 -3.8337e-20)
(1.24916 -0.12222 0)
(1.37063 -0.11675 0)
(1.48658 -0.108109 0)
(1.59361 -0.0956103 0)
(1.68646 -0.0787279 -3.66607e-20)
(1.76119 -0.0571067 0)
(1.81043 -0.0307901 0)
(1.8326 -0.000195037 0)
(1.81831 0.0333206 0)
(1.7645 0.0685648 0)
(1.66979 0.102189 0)
(1.53548 0.131061 0)
(1.36675 0.158728 -3.43599e-20)
(1.17064 0.1733 3.41155e-20)
(0.958172 0.184948 -3.38712e-20)
(0.76487 0.223279 -3.36233e-20)
(0.653587 0.204215 0)
(0.640308 0.00694082 0)
(0.670165 -0.310377 3.28375e-20)
(0.675001 -0.48366 3.25498e-20)
(0.629373 -0.346703 0)
(0.432352 0.0200501 0)
(0.0276365 0.322175 3.17387e-20)
(-0.452336 0.431197 0)
(-0.947038 0.455727 0)
(-1.42153 0.442445 -3.07749e-20)
(-1.86548 0.411575 0)
(-2.27248 0.37348 -3.005e-20)
(-2.64089 0.33348 -5.93616e-20)
(-2.97117 0.294294 0)
(-3.26481 0.257236 0)
(-3.52375 0.222927 0)
(-3.74995 0.191465 0)
(-3.94525 0.162641 0)
(-4.1112 0.136083 -5.51553e-20)
(-4.24912 0.111459 -5.45243e-20)
(-4.36014 0.088509 -5.39186e-20)
(-4.44522 0.0670883 0)
(-4.50536 0.047208 5.27862e-20)
(-4.54159 0.0290162 0)
(-4.55499 0.0126884 -5.17594e-20)
(-4.547 -0.00173081 -5.12814e-20)
(-4.52174 -0.0140716 0)
(-4.47942 -0.0247255 0)
(-4.42294 -0.0336499 0)
(-4.35419 -0.040949 -4.95754e-20)
(-4.27555 -0.046599 0)
(-4.18921 -0.0507089 0)
(-4.09725 -0.0534027 0)
(-4.00159 -0.0549014 0)
(-3.90374 -0.0554876 0)
(-3.80479 -0.0555147 0)
(-3.70522 -0.0553975 0)
(-3.60481 -0.0555844 0)
(-3.50258 -0.056529 4.6283e-20)
(-3.39682 -0.0586274 0)
(-3.28516 -0.0621498 0)
(-3.16488 -0.0671404 -4.52276e-20)
(-3.03348 -0.0733358 -4.48818e-20)
(-2.88931 -0.0801426 0)
(-2.73199 -0.0867607 4.41992e-20)
(-2.56263 -0.0924121 -4.38608e-20)
(-2.38355 -0.0965339 0)
(-2.19763 -0.0989644 4.31839e-20)
(-2.00761 -0.0999039 0)
(-1.81571 -0.0996715 0)
(-1.62359 -0.0985274 -4.21551e-20)
(-1.43242 -0.0966469 0)
(-1.24325 -0.0941354 4.14537e-20)
(-1.05718 -0.0910379 0)
(-0.875401 -0.0873644 -4.07344e-20)
(-0.69902 -0.0831826 -4.0367e-20)
(-0.529037 -0.0785606 -3.99943e-20)
(-0.366273 -0.0735924 -7.92328e-20)
(-0.211405 -0.0683894 7.84676e-20)
(-0.0650086 -0.0630886 0)
(0.0720487 -0.0581428 0)
(0.200227 -0.0529807 0)
(0.320269 -0.0479972 7.52605e-20)
(0.431899 -0.0432129 7.44419e-20)
(0.535331 -0.0386526 -7.36242e-20)
(0.630835 -0.0343328 0)
(0.718718 -0.0302624 7.19953e-20)
(0.799313 -0.0264455 7.11855e-20)
(0.872973 -0.0228835 7.03794e-20)
(0.940058 -0.0195761 0)
(1.00094 -0.0165225 0)
(1.056 -0.0137209 0)
(1.10561 -0.0111679 6.7201e-20)
(1.15018 -0.00885851 0)
(1.19008 -0.00678476 0)
(1.22571 -0.00493594 -6.48717e-20)
(1.25744 -0.00329786 0)
(1.28563 -0.00185372 0)
(1.31063 -0.00058468 -6.25924e-20)
(1.33274 0.000529841 0)
(1.35225 0.00150902 0)
(1.36939 0.00237073 6.03632e-20)
(1.38436 0.00313201 5.96312e-20)
(1.39736 0.00380199 0)
(1.40851 0.00438945 -5.81834e-20)
(1.41796 0.00490368 0)
(1.4258 0.00533643 5.67567e-20)
(1.43217 0.00569364 0)
(1.43713 0.00598667 5.53507e-20)
(1.44081 0.00618791 5.46552e-20)
(1.44334 0.00631615 0)
(1.44473 0.00642076 0)
(1.44513 0.00647251 0)
(1.44465 0.00644684 0)
(1.44341 0.00634792 0)
(1.44156 0.00618542 0)
(1.43923 0.0059692 0)
(1.43654 0.00571217 4.92645e-20)
(1.43358 0.00542754 -4.86115e-20)
(1.43044 0.00512561 0)
(1.42718 0.00481456 0)
(1.42387 0.00450293 0)
(1.42054 0.00420075 0)
(1.41721 0.00391602 -9.08231e-20)
(1.4139 0.0036476 0)
(1.41064 0.00338624 8.83224e-20)
(1.40745 0.00312768 -8.70844e-20)
(1.40432 0.00287587 0)
(1.40125 0.00264488 0)
(1.39822 0.00243836 0)
(1.39524 0.00225305 8.22122e-20)
(1.39229 0.00208681 8.10137e-20)
(1.38938 0.00193819 0)
(1.38651 0.00180498 7.86396e-20)
(1.38367 0.00168334 7.74638e-20)
(1.38089 0.00157052 -7.62955e-20)
(1.37814 0.00146508 0)
(1.37545 0.00136744 0)
(1.37281 0.00127876 -7.28343e-20)
(1.37022 0.00120108 0)
(1.36768 0.00113571 0)
(1.36516 0.00108247 0)
(1.36267 0.00104016 0)
(1.36019 0.00100692 6.72066e-20)
(1.35772 0.00098079 6.61016e-20)
(1.35524 0.000960126 0)
(1.35274 0.00094368 6.39114e-20)
(1.35023 0.000930711 0)
(1.34769 0.000920924 0)
(1.34511 0.000914601 6.06748e-20)
(1.34249 0.00091232 0)
(1.3398 0.000915222 5.85488e-20)
(1.33704 0.000924361 0)
(1.33417 0.000941674 0)
(1.3312 0.000968384 5.54061e-20)
(1.32803 0.00100802 0)
(1.32473 0.00106073 5.33412e-20)
(1.32109 0.00113427 0)
(1.3173 0.00122545 0)
(1.31288 0.00135429 0)
(1.30833 0.001505 -4.92828e-20)
(1.30262 0.00173314 0)
(1.29682 0.00197513 4.72893e-20)
(1.28896 0.00239485 0)
(1.28096 0.00276793 0)
(1.26959 0.00359583 0)
(1.25714 0.00412296 0)
(1.24058 0.00596986 0)
(1.21726 0.00647043 0)
(1.19539 0.0112967 0)
(1.14031 0.0107614 -7.91821e-20)
(1.12508 0.0255412 0)
(0.96186 0.0186542 0)
(0.0276575 -0.167168 -1.24759e-19)
(0.107875 -0.303271 1.23821e-19)
(0.192943 -0.33925 0)
(0.277088 -0.345431 -8.1276e-20)
(0.363088 -0.34645 0)
(0.452762 -0.349022 -3.9989e-20)
(0.547075 -0.353904 7.9341e-20)
(0.646233 -0.360089 7.86864e-20)
(0.75003 -0.366112 0)
(0.857987 -0.370245 7.73612e-20)
(0.969159 -0.370641 3.83435e-20)
(1.08231 -0.365347 0)
(1.19493 -0.352143 0)
(1.30461 -0.328966 0)
(1.40683 -0.293766 0)
(1.49863 -0.24473 3.66736e-20)
(1.5732 -0.180626 0)
(1.62812 -0.101605 -7.20237e-20)
(1.65399 -0.00882504 0)
(1.65298 0.0934564 0)
(1.62262 0.199938 7.02202e-20)
(1.56335 0.305742 0)
(1.47658 0.401776 -6.91415e-20)
(1.36795 0.475773 3.4347e-20)
(1.24805 0.521154 -3.40952e-20)
(1.12961 0.50195 3.38444e-20)
(1.01691 0.322627 3.35944e-20)
(0.877314 0.0229877 0)
(0.642732 -0.054156 0)
(0.222929 0.242213 -3.28608e-20)
(-0.398897 0.578532 3.25532e-20)
(-0.999326 0.814545 0)
(-1.48299 0.990775 0)
(-1.90257 1.08647 -3.15862e-20)
(-2.26871 1.09487 0)
(-2.60098 1.05578 0)
(-2.90019 0.985364 3.0643e-20)
(-3.17218 0.901543 0)
(-3.41799 0.812924 -2.97889e-20)
(-3.63984 0.725492 5.91904e-20)
(-3.8391 0.642135 0)
(-4.01729 0.564051 0)
(-4.17557 0.491368 1.1393e-19)
(-4.31496 0.423569 1.12588e-19)
(-4.43623 0.359963 1.11278e-19)
(-4.53968 0.29988 -5.49134e-20)
(-4.62531 0.242732 5.4471e-20)
(-4.69297 0.188129 1.61464e-19)
(-4.7425 0.135926 -1.06454e-19)
(-4.77383 0.0862932 -5.27553e-20)
(-4.78713 0.0396479 0)
(-4.783 -0.00352851 5.17367e-20)
(-4.76208 -0.0428045 -5.115e-20)
(-4.72314 -0.0778418 0)
(-4.66933 -0.108499 0)
(-4.60162 -0.134494 0)
(-4.5224 -0.155757 4.95532e-20)
(-4.43374 -0.172272 0)
(-4.3379 -0.184284 -9.75347e-20)
(-4.23706 -0.1922 0)
(-4.13309 -0.196664 -9.60835e-20)
(-4.02764 -0.198516 0)
(-3.92176 -0.198801 9.46555e-20)
(-3.81597 -0.198742 0)
(-3.71001 -0.199675 -9.32316e-20)
(-3.60281 -0.202935 4.62523e-20)
(-3.49244 -0.209684 0)
(-3.37621 -0.220681 9.11013e-20)
(-3.25091 -0.236014 4.52122e-20)
(-3.11349 -0.254889 4.48661e-20)
(-2.96184 -0.275587 0)
(-2.79555 -0.295726 4.41497e-20)
(-2.61608 -0.312842 4.38449e-20)
(-2.42648 -0.325143 0)
(-2.23044 -0.332193 -4.31689e-20)
(-2.03115 -0.334799 8.56259e-20)
(-1.83079 -0.334111 0)
(-1.63074 -0.330948 4.21426e-20)
(-1.43192 -0.325802 0)
(-1.23516 -0.318905 -1.24308e-19)
(-1.04142 -0.310301 0)
(-0.851832 -0.299938 1.22164e-19)
(-0.667521 -0.288 4.03595e-20)
(-0.489488 -0.274676 -3.99798e-20)
(-0.318544 -0.260308 -7.92094e-20)
(-0.15535 -0.245258 7.84489e-20)
(-0.000835068 -0.229952 0)
(0.144959 -0.215138 0)
(0.282656 -0.200167 0)
(0.412412 -0.185623 -2.25712e-19)
(0.534365 -0.171622 -7.4421e-20)
(0.64878 -0.158239 7.36034e-20)
(0.75597 -0.145522 0)
(0.856267 -0.133494 7.19692e-20)
(0.950007 -0.122161 -7.11642e-20)
(1.03752 -0.111522 -7.03578e-20)
(1.11914 -0.101569 0)
(1.19518 -0.0922919 0)
(1.26597 -0.0836821 0)
(1.33184 -0.0757292 -6.71772e-20)
(1.39312 -0.0684216 0)
(1.45017 -0.0617439 1.31232e-19)
(1.50332 -0.0556754 1.94534e-19)
(1.55293 -0.050188 -1.28157e-19)
(1.59933 -0.0452458 0)
(1.64285 -0.0408058 -6.25617e-20)
(1.68379 -0.0368182 0)
(1.72242 -0.0332296 -1.2214e-19)
(1.759 -0.0299857 6.03305e-20)
(1.79372 -0.027033 5.95978e-20)
(1.82675 -0.024325 0)
(1.85823 -0.0218224 1.74449e-19)
(1.88826 -0.0194913 -1.14866e-19)
(1.91692 -0.0173144 -5.6722e-20)
(1.94425 -0.0152773 0)
(1.97028 -0.0133654 -5.53146e-20)
(1.99508 -0.0115915 -1.63855e-19)
(2.01861 -0.00994686 0)
(2.04099 -0.00840083 -1.06482e-19)
(2.06226 -0.00698801 -1.05119e-19)
(2.08243 -0.00573668 -1.03766e-19)
(2.10152 -0.00464401 0)
(2.11955 -0.00370232 0)
(2.13657 -0.00290418 0)
(2.15259 -0.00223649 4.92241e-20)
(2.16766 -0.00168034 4.85712e-20)
(2.18181 -0.00121911 0)
(2.19508 -0.000841685 9.45562e-20)
(2.20751 -0.000534215 9.32765e-20)
(2.21912 -0.000277795 0)
(2.22995 -6.35669e-05 9.0743e-20)
(2.24004 0.000105727 1.78978e-19)
(2.24942 0.000238367 -8.82433e-20)
(2.25809 0.000358371 -8.70057e-20)
(2.26607 0.000485273 0)
(2.27339 0.000610626 0)
(2.28008 0.000720246 0)
(2.28617 0.000813 -8.21368e-20)
(2.29168 0.000889757 8.09392e-20)
(2.29666 0.000950719 1.59499e-19)
(2.30113 0.000995911 -7.85673e-20)
(2.30512 0.00102638 7.73925e-20)
(2.30867 0.00104755 7.62254e-20)
(2.31181 0.00105673 0)
(2.31456 0.00105623 0)
(2.31697 0.00104906 -7.27677e-20)
(2.31904 0.00103845 0)
(2.32082 0.00102716 0)
(2.32233 0.00101691 1.38748e-19)
(2.32359 0.00100919 0)
(2.32462 0.00100445 6.71464e-20)
(2.32544 0.00100257 -6.60426e-20)
(2.32607 0.00100358 0)
(2.32652 0.00100813 6.38549e-20)
(2.32681 0.00101741 0)
(2.32695 0.001033 0)
(2.32695 0.00105652 -6.06221e-20)
(2.32681 0.00108935 1.19114e-19)
(2.32652 0.0011332 -5.84986e-20)
(2.32608 0.00118899 0)
(2.32548 0.00126024 0)
(2.32471 0.00134718 5.53592e-20)
(2.32373 0.00145953 0)
(2.32257 0.00159382 5.32965e-20)
(2.32112 0.00177577 0)
(2.31946 0.00198414 0)
(2.31736 0.00228931 0)
(2.31501 0.00261013 4.92427e-20)
(2.31198 0.00314497 0)
(2.30858 0.00362627 -4.72513e-20)
(2.30415 0.00461812 0)
(2.29892 0.00529846 0)
(2.29242 0.00727761 8.86188e-20)
(2.28355 0.00811832 -8.66843e-20)
(2.27436 0.0124111 0)
(2.25711 0.0131031 0)
(2.24595 0.0232859 0)
(2.20687 0.0229184 2.3733e-19)
(2.20067 0.0491047 0)
(2.10097 0.0462858 -1.50899e-19)
(0.0333951 -0.320514 -3.94302e-23)
(0.0885447 -0.454357 -1.65121e-19)
(0.138932 -0.472512 0)
(0.189223 -0.478954 1.62597e-19)
(0.243769 -0.489824 0)
(0.303245 -0.504941 0)
(0.367927 -0.522345 3.3373e-23)
(0.437497 -0.540228 -7.87157e-20)
(0.51179 -0.556808 -7.80915e-20)
(0.590165 -0.56984 -7.74013e-20)
(0.671805 -0.576553 0)
(0.755634 -0.573893 0)
(0.839782 -0.558558 7.54068e-20)
(0.921759 -0.527056 1.49452e-19)
(0.998167 -0.476231 -1.48093e-19)
(1.06597 -0.403206 0)
(1.12018 -0.305325 -1.45421e-19)
(1.15723 -0.184817 7.2111e-20)
(1.17218 -0.0463911 0)
(1.16325 0.098799 -1.41651e-19)
(1.12502 0.238428 -7.03036e-20)
(1.06036 0.365348 1.39348e-19)
(0.967253 0.475238 6.92178e-20)
(0.843344 0.554457 0)
(0.672468 0.59182 -1.36344e-19)
(0.448515 0.610057 -1.35428e-19)
(0.134768 0.695727 0)
(-0.355839 0.895009 -1.33375e-19)
(-0.911294 1.12465 0)
(-1.40421 1.31273 -1.30719e-19)
(-1.83923 1.42877 -6.48091e-20)
(-2.19761 1.50506 0)
(-2.49201 1.55154 0)
(-2.73509 1.55437 0)
(-2.93797 1.50807 0)
(-3.11887 1.42882 0)
(-3.28728 1.32739 0)
(-3.45065 1.21661 -1.20322e-19)
(-3.61071 1.10372 1.78668e-19)
(-3.76752 0.993589 0)
(-3.91957 0.888455 0)
(-4.06513 0.788904 0)
(-4.20231 0.694628 -2.9113e-22)
(-4.32916 0.604795 -1.12553e-19)
(-4.44374 0.51851 -2.22239e-19)
(-4.5443 0.434986 2.19715e-19)
(-4.62934 0.353624 1.08516e-19)
(-4.69747 0.274129 -1.07575e-19)
(-4.74744 0.196584 2.23689e-22)
(-4.77829 0.12146 -1.05149e-19)
(-4.7897 0.0494315 0)
(-4.78191 -0.0188427 -1.03157e-19)
(-4.75558 -0.0823722 1.79304e-22)
(-4.71189 -0.140134 0)
(-4.65223 -0.190952 0)
(-4.57854 -0.233989 9.96948e-20)
(-4.49305 -0.268789 0)
(-4.39822 -0.295348 0)
(-4.29659 -0.314041 -9.73827e-20)
(-4.19063 -0.325636 -1.93476e-19)
(-4.08263 -0.331242 9.60721e-20)
(-3.97452 -0.332322 0)
(-3.86771 -0.330681 -9.46452e-20)
(-3.76293 -0.328456 0)
(-3.65999 -0.328039 -9.31824e-20)
(-3.55764 -0.331881 -9.25084e-20)
(-3.45351 -0.34218 1.83537e-19)
(-3.34406 -0.360448 9.10175e-20)
(-3.22503 -0.387012 0)
(-3.09215 -0.420548 -1.79268e-19)
(-2.94232 -0.457865 0)
(-2.77457 -0.494256 -2.64808e-19)
(-2.59067 -0.524701 -1.7514e-19)
(-2.395 -0.54556 -1.73789e-19)
(-2.19311 -0.556141 1.7244e-19)
(-1.98938 -0.558687 -2.5669e-19)
(-1.78609 -0.555976 0)
(-1.5842 -0.549631 0)
(-1.38426 -0.540465 1.67001e-19)
(-1.18673 -0.52872 2.48462e-19)
(-0.992408 -0.514256 0)
(-0.802556 -0.496757 -8.14192e-20)
(-0.618494 -0.476525 0)
(-0.44135 -0.453941 2.39825e-19)
(-0.272033 -0.429653 2.22677e-23)
(-0.111266 -0.404374 -1.83497e-23)
(0.0399733 -0.379165 -1.55297e-19)
(0.182006 -0.354122 0)
(0.315558 -0.329592 1.52056e-19)
(0.440648 -0.305921 1.17889e-23)
(0.557624 -0.283302 0)
(0.666917 -0.26183 0)
(0.769014 -0.241536 0)
(0.864427 -0.222413 -1.43921e-19)
(0.953661 -0.204438 0)
(1.03719 -0.187581 0)
(1.11543 -0.171817 0)
(1.18876 -0.157127 0)
(1.25748 -0.143499 0)
(1.32188 -0.130923 -1.34335e-19)
(1.38222 -0.119385 0)
(1.43879 -0.108869 -1.31224e-19)
(1.49188 -0.0993477 -1.29682e-19)
(1.54177 -0.09078 1.2815e-19)
(1.58879 -0.0831124 0)
(1.63325 -0.0762777 1.2512e-19)
(1.67544 -0.0701963 0)
(1.71564 -0.0647817 1.22134e-19)
(1.7541 -0.0599431 -1.20658e-19)
(1.79103 -0.0555902 -3.57571e-19)
(1.8266 -0.0516411 0)
(1.86094 -0.0480217 -3.48876e-19)
(1.89416 -0.0446708 -1.14855e-19)
(1.92631 -0.041545 0)
(1.95745 -0.0386088 -2.24045e-19)
(1.9876 -0.0358418 -2.2124e-19)
(2.01677 -0.0332342 3.27686e-19)
(2.04498 -0.0307783 0)
(2.07221 -0.0284764 1.06475e-19)
(2.09847 -0.0263372 1.05112e-19)
(2.12379 -0.0243676 3.11273e-19)
(2.14816 -0.0225598 0)
(2.17159 -0.0209007 0)
(2.1941 -0.0193815 0)
(2.21569 -0.0179919 9.84383e-20)
(2.23637 -0.0167167 0)
(2.25617 -0.0155409 0)
(2.27509 -0.0144537 -9.45464e-20)
(2.29316 -0.0134432 -9.32663e-20)
(2.31037 -0.0124938 0)
(2.32675 -0.0115963 0)
(2.34232 -0.0107511 -1.78956e-19)
(2.35708 -0.00995422 0)
(2.37104 -0.00919161 1.73989e-19)
(2.38425 -0.00844687 1.71529e-19)
(2.39672 -0.00772479 0)
(2.40847 -0.00703692 0)
(2.41951 -0.00638575 -1.64249e-19)
(2.42986 -0.0057734 -2.07623e-25)
(2.43954 -0.00520014 -1.78247e-25)
(2.44856 -0.0046635 0)
(2.45694 -0.00416303 -3.09521e-19)
(2.4647 -0.00370667 0)
(2.47186 -0.00329019 0)
(2.47843 -0.00291045 0)
(2.48446 -0.00256896 1.4551e-19)
(2.48998 -0.00225866 0)
(2.49501 -0.00197408 -2.81943e-19)
(2.49958 -0.00171277 -1.38723e-19)
(2.50373 -0.00147138 0)
(2.50749 -0.00124782 -1.34268e-19)
(2.51088 -0.00104111 0)
(2.51393 -0.00085081 0)
(2.51667 -0.000676262 -3.83058e-19)
(2.51911 -0.000515603 2.51036e-19)
(2.52128 -0.000365439 0)
(2.52321 -0.000220481 2.42442e-19)
(2.5249 -7.53353e-05 -1.19092e-19)
(2.52637 7.67038e-05 0)
(2.52763 0.000239234 0)
(2.52869 0.000419999 0)
(2.52954 0.000618395 -3.32092e-19)
(2.5302 0.000849864 0)
(2.53064 0.0011059 -1.06573e-19)
(2.53087 0.0014256 0)
(2.53085 0.00177423 0)
(2.5306 0.0022542 0)
(2.52999 0.00274922 0)
(2.52914 0.00353173 0)
(2.52769 0.00424841 0)
(2.52605 0.00562945 -1.85016e-19)
(2.52328 0.00665813 0)
(2.52058 0.00929298 -8.86011e-20)
(2.51543 0.0107096 2.59992e-19)
(2.51142 0.0161352 0)
(2.50171 0.0179876 0)
(2.49653 0.029995 -1.61887e-19)
(2.47776 0.0325884 -1.58175e-19)
(2.47325 0.0607496 1.54434e-19)
(2.43856 0.0671754 1.50856e-19)
(0.0230107 -0.422839 2.49714e-19)
(0.0455703 -0.527844 2.47873e-19)
(0.065481 -0.542775 1.64047e-19)
(0.0860506 -0.557116 8.14634e-20)
(0.109763 -0.575805 0)
(0.135526 -0.597659 -1.60275e-19)
(0.163531 -0.621494 7.95654e-20)
(0.193248 -0.645846 0)
(0.224466 -0.668876 7.81464e-20)
(0.25633 -0.68762 0)
(0.287759 -0.69822 -1.53796e-19)
(0.317856 -0.696593 0)
(0.345271 -0.678544 -7.55035e-20)
(0.3677 -0.639992 -1.4967e-19)
(0.382587 -0.576572 1.48336e-19)
(0.387178 -0.483584 0)
(0.376401 -0.357948 1.45717e-19)
(0.350686 -0.200841 0)
(0.295699 -0.0158984 0)
(0.21903 0.18301 1.41993e-19)
(0.114182 0.386488 0)
(-0.0233586 0.589108 -4.02854e-24)
(-0.199207 0.788594 0)
(-0.418581 0.983711 0)
(-0.690263 1.17559 7.83206e-23)
(-1.00907 1.36628 1.35109e-19)
(-1.35655 1.5447 1.33795e-19)
(-1.7065 1.68581 1.32786e-19)
(-2.0193 1.78891 0)
(-2.2826 1.85368 2.60433e-19)
(-2.50444 1.88443 0)
(-2.68966 1.8878 1.27598e-19)
(-2.84974 1.86496 0)
(-2.99334 1.8178 0)
(-3.1305 1.7474 -1.23791e-19)
(-3.26687 1.65948 0)
(-3.40397 1.55829 1.21192e-19)
(-3.54129 1.44886 3.82019e-22)
(-3.67708 1.33502 -2.3747e-19)
(-3.80978 1.21974 2.34425e-19)
(-3.93805 1.10509 0)
(-4.06082 0.992174 0)
(-4.17706 0.881528 1.12899e-19)
(-4.28568 0.773085 0)
(-4.38536 0.66631 1.10977e-19)
(-4.47449 0.560507 -1.09726e-19)
(-4.55127 0.455205 -1.08514e-19)
(-4.61372 0.350367 0)
(-4.65989 0.246383 1.06226e-19)
(-4.6883 0.143705 1.0516e-19)
(-4.69842 0.0432028 -2.07741e-19)
(-4.68997 -0.0531097 1.03173e-19)
(-4.66317 -0.14308 1.02235e-19)
(-4.61865 -0.224525 0)
(-4.55781 -0.29558 0)
(-4.48256 -0.355277 -9.9697e-20)
(-4.39542 -0.402912 0)
(-4.29896 -0.438481 0)
(-4.19581 -0.462437 1.94902e-19)
(-4.08851 -0.475837 1.93472e-19)
(-3.97951 -0.48026 0)
(-3.87102 -0.477842 0)
(-3.76488 -0.471277 0)
(-3.6623 -0.463818 0)
(-3.56355 -0.459207 1.864e-19)
(-3.46757 -0.461415 -1.84919e-19)
(-3.37182 -0.474121 -1.83529e-19)
(-3.27227 -0.500033 -3.64094e-19)
(-3.16375 -0.539985 0)
(-3.04075 -0.591953 1.36215e-22)
(-2.89874 -0.650609 0)
(-2.73559 -0.707842 1.76456e-19)
(-2.55264 -0.754765 1.75826e-22)
(-2.35493 -0.784955 1.73738e-19)
(-2.14978 -0.797464 -1.72389e-19)
(-1.94307 -0.797377 1.69755e-22)
(-1.73698 -0.790657 0)
(-1.5319 -0.779939 -1.68182e-19)
(-1.32816 -0.766221 -1.66959e-19)
(-1.12635 -0.749565 -3.31052e-19)
(-0.927544 -0.729172 0)
(-0.73344 -0.704215 1.62695e-19)
(-0.545815 -0.675074 0)
(-0.366018 -0.642341 -3.19656e-19)
(-0.194965 -0.607127 1.58355e-19)
(-0.0336837 -0.570562 -1.56831e-19)
(0.117497 -0.534212 1.55251e-19)