/*--------------------------------*- C++ -*----------------------------------*\
  =========                 |
  \\      /  F ield         | OpenFOAM: The Open Source CFD Toolbox
   \\    /   O peration     | Website:  https://openfoam.org
    \\  /    A nd           | Version:  7
     \\/     M anipulation  |
\*---------------------------------------------------------------------------*/
FoamFile
{
    version     2.0;
    format      ascii;
    class       volSymmTensorField;
    location    "0.04";
    object      UPrime2Mean;
}
// * * * * * * * * * * * * * * * * * * * * * * * * * * * * * * * * * * * * * //

dimensions      [0 2 -2 0 0 0 0];

internalField   nonuniform List<symmTensor> 
12225
(
(0.00496048 -0.00025363 0 0.000528091 0 0)
(0.0484373 -0.00213402 0 0.000306456 0 0)
(0.0711185 -0.00317801 0 0.000311572 0 0)
(0.0952465 -0.00390919 0 0.000304648 0 0)
(0.136213 -0.0048361 0 0.000298735 0 0)
(0.195763 -0.00596199 0 0.000293832 0 0)
(0.273079 -0.00722062 0 0.00030319 0 0)
(0.367312 -0.00803447 0 0.00026701 0 0)
(0.476882 -0.00937753 0 0.000277456 0 0)
(0.60026 -0.00857959 0 0.000196811 0 0)
(0.738523 -0.0115183 0 0.000242892 0 0)
(0.88298 -0.00677442 0 0.000133422 0 0)
(1.05673 -0.0179383 0 0.000397147 0 0)
(1.22387 -0.000410418 0 0.000313803 0 0)
(1.48071 -0.0443971 0 0.00213793 0 0)
(1.73425 0.0233277 0 0.00271613 0 0)
(2.25123 -0.175384 0 0.025333 0 0)
(3.10676 0.0685223 0 0.0126544 0 0)
(0.00466906 -0.000172282 0 0.000588815 0 0)
(0.0324056 -0.00116038 0 0.000253069 0 0)
(0.0357325 -0.00185941 0 0.000385278 0 0)
(0.0368381 -0.00226567 0 0.000549346 0 0)
(0.0436331 -0.00304618 0 0.000738069 0 0)
(0.055421 -0.00444974 0 0.000970015 0 0)
(0.0728258 -0.00636228 0 0.00119214 0 0)
(0.0982267 -0.00898465 0 0.00149216 0 0)
(0.131527 -0.011598 0 0.00162524 0 0)
(0.17862 -0.0155933 0 0.00197287 0 0)
(0.234467 -0.018088 0 0.001891 0 0)
(0.314278 -0.0249269 0 0.00246472 0 0)
(0.399316 -0.0261551 0 0.00215303 0 0)
(0.533422 -0.0420428 0 0.00377519 0 0)
(0.661472 -0.0413482 0 0.00334636 0 0)
(0.918828 -0.0906444 0 0.0105846 0 0)
(1.13687 -0.109266 0 0.0117298 0 0)
(1.68759 -0.3343 0 0.0839328 0 0)
(0.00452806 2.29194e-05 0 0.000886138 0 0)
(0.0320936 -0.00173707 0 0.000522667 0 0)
(0.0340196 -0.00256166 0 0.000717099 0 0)
(0.0328868 -0.00276577 0 0.000969337 0 0)
(0.0355862 -0.0031754 0 0.00125772 0 0)
(0.0399435 -0.00400051 0 0.00159457 0 0)
(0.0455738 -0.00522531 0 0.00206208 0 0)
(0.0528096 -0.00669558 0 0.00245275 0 0)
(0.0625244 -0.00874914 0 0.00305917 0 0)
(0.0753432 -0.0107692 0 0.00335079 0 0)
(0.0934623 -0.0144805 0 0.00416214 0 0)
(0.117209 -0.0172633 0 0.0042799 0 0)
(0.151718 -0.0253029 0 0.00598685 0 0)
(0.197023 -0.029691 0 0.00601453 0 0)
(0.265495 -0.0520645 0 0.011806 0 0)
(0.357704 -0.0655778 0 0.0132275 0 0)
(0.49189 -0.141887 0 0.0433077 0 0)
(0.662283 -0.24133 0 0.0927584 0 0)
(0.00493503 -0.000483355 0 0.00101365 0 0)
(0.0321257 -0.00210648 0 0.000662359 0 0)
(0.0338756 -0.0027658 0 0.000842351 0 0)
(0.0326508 -0.00297976 0 0.00114664 0 0)
(0.0349434 -0.00338167 0 0.00147743 0 0)
(0.0385837 -0.00418932 0 0.00188854 0 0)
(0.0430421 -0.00532977 0 0.00237011 0 0)
(0.0484963 -0.00678238 0 0.00299693 0 0)
(0.0551569 -0.00844433 0 0.00358849 0 0)
(0.0639384 -0.0107178 0 0.00440197 0 0)
(0.075369 -0.0133954 0 0.00511459 0 0)
(0.0913804 -0.0177683 0 0.00641224 0 0)
(0.112826 -0.0231888 0 0.00773027 0 0)
(0.143886 -0.0333933 0 0.0108199 0 0)
(0.186301 -0.047893 0 0.0152274 0 0)
(0.246018 -0.0766513 0 0.0267306 0 0)
(0.323419 -0.127529 0 0.0524036 0 0)
(0.400051 -0.208273 0 0.110801 0 0)
(0.00470078 -0.000375824 0 0.00126846 0 0)
(0.0311163 -0.00243836 0 0.000844081 0 0)
(0.0325169 -0.00308677 0 0.00103963 0 0)
(0.0314059 -0.00331921 0 0.00144673 0 0)
(0.0338158 -0.0037779 0 0.00189258 0 0)
(0.0373849 -0.00466132 0 0.00238676 0 0)
(0.0416131 -0.00592396 0 0.0030256 0 0)
(0.0466583 -0.00748408 0 0.00372949 0 0)
(0.0528402 -0.00947407 0 0.00464597 0 0)
(0.060722 -0.0118699 0 0.0055845 0 0)
(0.0711044 -0.0153619 0 0.00693841 0 0)
(0.0849716 -0.0198662 0 0.00848266 0 0)
(0.103721 -0.0271444 0 0.0112121 0 0)
(0.129171 -0.0373682 0 0.0150116 0 0)
(0.163278 -0.0550089 0 0.0228161 0 0)
(0.206896 -0.0826341 0 0.0371084 0 0)
(0.257301 -0.127684 0 0.066741 0 0)
(0.297787 -0.19577 0 0.133699 0 0)
(0.00455618 -0.000721076 0 0.00134321 0 0)
(0.0308295 -0.0029112 0 0.00105001 0 0)
(0.031808 -0.00342832 0 0.00132429 0 0)
(0.0304985 -0.00357691 0 0.00184212 0 0)
(0.0326556 -0.00401643 0 0.00239351 0 0)
(0.0358743 -0.00491647 0 0.00300363 0 0)
(0.0397069 -0.00622574 0 0.00373658 0 0)
(0.0443277 -0.00791749 0 0.00464847 0 0)
(0.0500093 -0.010052 0 0.00573309 0 0)
(0.0572179 -0.0128369 0 0.00707776 0 0)
(0.066631 -0.0166184 0 0.00877916 0 0)
(0.0789532 -0.0219629 0 0.0111567 0 0)
(0.0952914 -0.0297329 0 0.0146702 0 0)
(0.116422 -0.0412822 0 0.0202964 0 0)
(0.143561 -0.0590547 0 0.0300567 0 0)
(0.174916 -0.085596 0 0.0475065 0 0)
(0.207825 -0.125023 0 0.0803695 0 0)
(0.229638 -0.175207 0 0.138506 0 0)
(0.00479435 -0.000569199 0 0.00151889 0 0)
(0.0307403 -0.00323365 0 0.0013706 0 0)
(0.0314112 -0.00380248 0 0.00162902 0 0)
(0.0299757 -0.00399412 0 0.00220948 0 0)
(0.0320079 -0.00452856 0 0.00288273 0 0)
(0.0350141 -0.00555936 0 0.00361868 0 0)
(0.0385648 -0.00702604 0 0.00450732 0 0)
(0.042835 -0.00889541 0 0.00559683 0 0)
(0.0480605 -0.0112642 0 0.00695996 0 0)
(0.054607 -0.0143238 0 0.00866549 0 0)
(0.063001 -0.0184826 0 0.0109 0 0)
(0.0737409 -0.0242739 0 0.014019 0 0)
(0.0875039 -0.0325275 0 0.018607 0 0)
(0.104514 -0.0444476 0 0.0258458 0 0)
(0.125009 -0.0616066 0 0.0375191 0 0)
(0.146704 -0.0858967 0 0.0574716 0 0)
(0.167026 -0.117992 0 0.089997 0 0)
(0.177053 -0.155418 0 0.142772 0 0)
(0.00355666 -0.000546936 0 0.00168539 0 0)
(0.02949 -0.00344377 0 0.00157081 0 0)
(0.0302978 -0.00386387 0 0.00198643 0 0)
(0.0289461 -0.00391604 0 0.00265712 0 0)
(0.0308481 -0.00443173 0 0.00344071 0 0)
(0.0335071 -0.00548627 0 0.0043238 0 0)
(0.0365689 -0.00698321 0 0.00538428 0 0)
(0.0402695 -0.00891845 0 0.0067086 0 0)
(0.0448319 -0.0114047 0 0.00837529 0 0)
(0.0505228 -0.014653 0 0.0105059 0 0)
(0.0576983 -0.0190317 0 0.0133192 0 0)
(0.0666423 -0.0250352 0 0.0172365 0 0)
(0.0776884 -0.0333698 0 0.0229115 0 0)
(0.0907043 -0.044931 0 0.0315383 0 0)
(0.105366 -0.0607523 0 0.044833 0 0)
(0.119519 -0.0815859 0 0.0658217 0 0)
(0.130983 -0.107019 0 0.0975362 0 0)
(0.134186 -0.134284 0 0.144553 0 0)
(0.00520689 -0.000891401 0 0.00167235 0 0)
(0.0301154 -0.00419272 0 0.00180996 0 0)
(0.0299281 -0.00460067 0 0.00232342 0 0)
(0.028243 -0.00453692 0 0.00308803 0 0)
(0.0301075 -0.00505211 0 0.00401642 0 0)
(0.0327012 -0.00620238 0 0.00508112 0 0)
(0.0355671 -0.00782825 0 0.00635409 0 0)
(0.0389134 -0.00988804 0 0.00793406 0 0)
(0.0429205 -0.0124884 0 0.00992536 0 0)
(0.0477841 -0.0158436 0 0.0124959 0 0)
(0.0537409 -0.0202929 0 0.0158981 0 0)
(0.0609255 -0.0262768 0 0.0206099 0 0)
(0.0694258 -0.0343345 0 0.0272823 0 0)
(0.0788825 -0.0450693 0 0.0370803 0 0)
(0.0887499 -0.0589878 0 0.0514304 0 0)
(0.0971838 -0.0761506 0 0.0726958 0 0)
(0.102719 -0.0956399 0 0.102723 0 0)
(0.101876 -0.114866 0 0.144027 0 0)
(0.00442875 -0.000918969 0 0.00187181 0 0)
(0.0297273 -0.00441449 0 0.00201599 0 0)
(0.0296281 -0.00473826 0 0.00263614 0 0)
(0.0279625 -0.0045959 0 0.00350266 0 0)
(0.029691 -0.00508964 0 0.0045608 0 0)
(0.0320117 -0.00624354 0 0.00579135 0 0)
(0.0344806 -0.00786004 0 0.00726136 0 0)
(0.0372717 -0.00988625 0 0.00908774 0 0)
(0.0405248 -0.012433 0 0.0114085 0 0)
(0.0443891 -0.0157107 0 0.0144217 0 0)
(0.0490209 -0.0200149 0 0.0183995 0 0)
(0.0544355 -0.0256846 0 0.0238263 0 0)
(0.0605523 -0.0330912 0 0.0313329 0 0)
(0.0668992 -0.0425488 0 0.0419621 0 0)
(0.0729027 -0.0541935 0 0.0568387 0 0)
(0.0771222 -0.0676766 0 0.0777036 0 0)
(0.0787469 -0.0819722 0 0.105522 0 0)
(0.0756091 -0.0949439 0 0.141753 0 0)
(0.00461896 -0.00105678 0 0.00205249 0 0)
(0.0297702 -0.0049849 0 0.00232456 0 0)
(0.0291043 -0.00535856 0 0.0030129 0 0)
(0.027007 -0.00509698 0 0.00397483 0 0)
(0.0284448 -0.00554093 0 0.00516526 0 0)
(0.0305172 -0.0067071 0 0.00658234 0 0)
(0.0327009 -0.00833689 0 0.00827499 0 0)
(0.0351259 -0.0103494 0 0.0103574 0 0)
(0.0378992 -0.0128466 0 0.0129815 0 0)
(0.0411095 -0.0160263 0 0.0163854 0 0)
(0.0448112 -0.0201317 0 0.0208652 0 0)
(0.0489115 -0.025394 0 0.0268853 0 0)
(0.0532203 -0.0320185 0 0.0350042 0 0)
(0.0572531 -0.0400899 0 0.0460951 0 0)
(0.0605114 -0.0495012 0 0.0609847 0 0)
(0.0619625 -0.0597137 0 0.0808933 0 0)
(0.061264 -0.069786 0 0.106205 0 0)
(0.0570734 -0.0780615 0 0.137772 0 0)
(0.00409709 -0.000898641 0 0.0022658 0 0)
(0.0287079 -0.00499493 0 0.00261308 0 0)
(0.0280239 -0.0053554 0 0.00333625 0 0)
(0.0259579 -0.00495665 0 0.00438821 0 0)
(0.0272177 -0.00526985 0 0.00570047 0 0)
(0.0289186 -0.00632965 0 0.00728573 0 0)
(0.030635 -0.00784616 0 0.00919278 0 0)
(0.0325401 -0.00971417 0 0.011533 0 0)
(0.0347138 -0.0120196 0 0.0144751 0 0)
(0.0371794 -0.0149272 0 0.018253 0 0)
(0.0399061 -0.0186174 0 0.0231476 0 0)
(0.0427307 -0.0232209 0 0.0295889 0 0)
(0.0454246 -0.0288168 0 0.0380586 0 0)
(0.0475816 -0.0353422 0 0.0492782 0 0)
(0.0488521 -0.0425698 0 0.0638229 0 0)
(0.0485676 -0.0499225 0 0.0825512 0 0)
(0.0466834 -0.0566145 0 0.105487 0 0)
(0.0423339 -0.0613801 0 0.133189 0 0)
(0.00435034 -0.00119282 0 0.00258979 0 0)
(0.0293332 -0.00531606 0 0.00292208 0 0)
(0.028289 -0.00559472 0 0.00364142 0 0)
(0.025837 -0.00506135 0 0.00477522 0 0)
(0.0267963 -0.00528034 0 0.00621075 0 0)
(0.0282359 -0.00628597 0 0.00796675 0 0)
(0.0296578 -0.00774134 0 0.0100809 0 0)
(0.0311665 -0.00948692 0 0.0126508 0 0)
(0.0327966 -0.0115724 0 0.0158454 0 0)
(0.0345503 -0.0141377 0 0.0198995 0 0)
(0.0363841 -0.0173279 0 0.0250825 0 0)
(0.038145 -0.0212149 0 0.0317765 0 0)
(0.0396258 -0.0257934 0 0.0403743 0 0)
(0.0405046 -0.0309095 0 0.0514503 0 0)
(0.0405304 -0.0362763 0 0.0653759 0 0)
(0.0392753 -0.0413362 0 0.082758 0 0)
(0.0368469 -0.0454545 0 0.103405 0 0)
(0.0326766 -0.0476637 0 0.127724 0 0)
(0.00446995 -0.00114985 0 0.00308404 0 0)
(0.0289025 -0.00526635 0 0.00355306 0 0)
(0.027707 -0.00547224 0 0.00437861 0 0)
(0.0253082 -0.00485344 0 0.0055863 0 0)
(0.0261915 -0.00495206 0 0.00710316 0 0)
(0.0273354 -0.00578699 0 0.00896687 0 0)
(0.0282696 -0.00700934 0 0.0112307 0 0)
(0.0291487 -0.00844768 0 0.014004 0 0)
(0.0300379 -0.0101294 0 0.0174443 0 0)
(0.0309506 -0.0121555 0 0.0217686 0 0)
(0.0318486 -0.0146225 0 0.0272095 0 0)
(0.0325962 -0.0175364 0 0.034082 0 0)
(0.0330155 -0.0208236 0 0.0426685 0 0)
(0.0328692 -0.0242627 0 0.0533819 0 0)
(0.0320149 -0.0275693 0 0.0663986 0 0)
(0.0302292 -0.0302425 0 0.0821197 0 0)
(0.0277394 -0.0318537 0 0.100199 0 0)
(0.0241615 -0.0316718 0 0.120971 0 0)
(0.00446378 -0.000934756 0 0.00303193 0 0)
(0.028784 -0.00597357 0 0.00381918 0 0)
(0.0274356 -0.00627714 0 0.00487382 0 0)
(0.0247531 -0.00556416 0 0.00629336 0 0)
(0.0253208 -0.00553912 0 0.0079732 0 0)
(0.0261365 -0.00623615 0 0.00996571 0 0)
(0.0267555 -0.00729723 0 0.0123606 0 0)
(0.0273021 -0.00852165 0 0.0152818 0 0)
(0.0277836 -0.00988979 0 0.0188764 0 0)
(0.028172 -0.0114493 0 0.0233272 0 0)
(0.0284176 -0.0132365 0 0.0288156 0 0)
(0.0284208 -0.0151956 0 0.0355794 0 0)
(0.0280695 -0.0172116 0 0.0437961 0 0)
(0.0272472 -0.019048 0 0.0537428 0 0)
(0.0259318 -0.0204765 0 0.0654486 0 0)
(0.0240617 -0.0210955 0 0.0791701 0 0)
(0.0219109 -0.0206764 0 0.0944918 0 0)
(0.0192212 -0.0186729 0 0.111708 0 0)
(0.00477145 -0.00105178 0 0.00324539 0 0)
(0.0286487 -0.00596633 0 0.00390019 0 0)
(0.0268195 -0.0063695 0 0.0048471 0 0)
(0.0238053 -0.00556402 0 0.00627768 0 0)
(0.0240457 -0.00536301 0 0.00803589 0 0)
(0.0245213 -0.00587882 0 0.0101403 0 0)
(0.0248326 -0.00672407 0 0.0126605 0 0)
(0.0250764 -0.00763467 0 0.0156896 0 0)
(0.0251925 -0.00853964 0 0.0193365 0 0)
(0.0251142 -0.00945199 0 0.0237409 0 0)
(0.0248121 -0.0103844 0 0.0290366 0 0)
(0.0242582 -0.0112682 0 0.0353974 0 0)
(0.0234329 -0.0119911 0 0.0429177 0 0)
(0.0223303 -0.0123399 0 0.0517671 0 0)
(0.0209994 -0.0121486 0 0.0618719 0 0)
(0.019478 -0.0111095 0 0.0733887 0 0)
(0.0180098 -0.00913904 0 0.0858887 0 0)
(0.0164191 -0.00582918 0 0.0996613 0 0)
(0.00510601 -0.00105039 0 0.00338798 0 0)
(0.0291946 -0.0062405 0 0.00417641 0 0)
(0.027022 -0.00673867 0 0.00529673 0 0)
(0.0236833 -0.00585274 0 0.0068293 0 0)
(0.0236262 -0.00550212 0 0.00862135 0 0)
(0.0237732 -0.00582262 0 0.0107404 0 0)
(0.0237003 -0.00638531 0 0.01325 0 0)
(0.0235224 -0.00688619 0 0.0162089 0 0)
(0.0232242 -0.0072397 0 0.0196916 0 0)
(0.0227833 -0.00746479 0 0.0237986 0 0)
(0.022198 -0.00758314 0 0.0286157 0 0)
(0.0214731 -0.00753227 0 0.034252 0 0)
(0.0206164 -0.00720967 0 0.0407295 0 0)
(0.0196718 -0.00643336 0 0.0481315 0 0)
(0.0187061 -0.00509025 0 0.056324 0 0)
(0.0178112 -0.0029646 0 0.0654106 0 0)
(0.0171755 -6.74282e-05 0 0.0749881 0 0)
(0.016703 0.00389228 0 0.0853509 0 0)
(0.00465961 -0.000956286 0 0.00346866 0 0)
(0.0285306 -0.00641012 0 0.00414152 0 0)
(0.0263122 -0.00685331 0 0.00490453 0 0)
(0.0227853 -0.00592239 0 0.00620317 0 0)
(0.0223885 -0.005514 0 0.00785171 0 0)
(0.0220836 -0.00563532 0 0.00981315 0 0)
(0.0215645 -0.00585262 0 0.0120964 0 0)
(0.0210408 -0.00591283 0 0.0147367 0 0)
(0.0205285 -0.00575907 0 0.0177834 0 0)
(0.0200016 -0.00540473 0 0.0212973 0 0)
(0.0194512 -0.00484701 0 0.0253142 0 0)
(0.0188866 -0.00402084 0 0.0298817 0 0)
(0.0183275 -0.00284256 0 0.0349812 0 0)
(0.017845 -0.00119458 0 0.0406506 0 0)
(0.0175124 0.000978989 0 0.0467634 0 0)
(0.0174411 0.00379077 0 0.0533973 0 0)
(0.0177632 0.00719609 0 0.0602383 0 0)
(0.0184333 0.0113519 0 0.0675344 0 0)
(0.0046629 -0.000750443 0 0.00329852 0 0)
(0.0288102 -0.00599052 0 0.00399571 0 0)
(0.0260492 -0.0061508 0 0.00464363 0 0)
(0.0221192 -0.00487419 0 0.00575783 0 0)
(0.0214781 -0.00405251 0 0.00714249 0 0)
(0.0209076 -0.00373653 0 0.00877383 0 0)
(0.0201755 -0.00351905 0 0.0106695 0 0)
(0.0195624 -0.00313971 0 0.0128307 0 0)
(0.0190944 -0.00250272 0 0.0152485 0 0)
(0.0187393 -0.00158842 0 0.0179315 0 0)
(0.0184916 -0.000394831 0 0.0208901 0 0)
(0.0183755 0.00110306 0 0.0241536 0 0)
(0.0184298 0.00293392 0 0.0277025 0 0)
(0.0187378 0.00515054 0 0.0315545 0 0)
(0.0193651 0.00775956 0 0.0356104 0 0)
(0.0204068 0.0108185 0 0.0399266 0 0)
(0.0219362 0.0142617 0 0.0442829 0 0)
(0.0239326 0.0181936 0 0.0488581 0 0)
(0.00480831 -0.00102011 0 0.00347041 0 0)
(0.0281364 -0.00562273 0 0.0038185 0 0)
(0.0249615 -0.00543151 0 0.00428216 0 0)
(0.0209519 -0.00412102 0 0.00522783 0 0)
(0.0201922 -0.00323817 0 0.0063007 0 0)
(0.0195681 -0.00279453 0 0.00750389 0 0)
(0.0188392 -0.00242716 0 0.00888834 0 0)
(0.018253 -0.00188613 0 0.0104578 0 0)
(0.0178359 -0.00107628 0 0.0121889 0 0)
(0.0175829 8.86943e-06 0 0.014068 0 0)
(0.0175281 0.00135393 0 0.0160885 0 0)
(0.0177309 0.00296188 0 0.0182638 0 0)
(0.0182455 0.00484286 0 0.0205809 0 0)
(0.0191397 0.00702122 0 0.0230565 0 0)
(0.0204622 0.00948968 0 0.025622 0 0)
(0.0222654 0.0122733 0 0.0283186 0 0)
(0.0245985 0.015319 0 0.0310013 0 0)
(0.0274263 0.0186851 0 0.0337846 0 0)
(0.00480879 -0.000731583 0 0.00314935 0 0)
(0.028006 -0.00482677 0 0.00325034 0 0)
(0.0246654 -0.00447966 0 0.00351215 0 0)
(0.0206468 -0.00308232 0 0.0041694 0 0)
(0.0198951 -0.00208725 0 0.00498095 0 0)
(0.0192686 -0.00147185 0 0.00589001 0 0)
(0.0186117 -0.000899145 0 0.00687954 0 0)
(0.0182208 -0.000154712 0 0.00794296 0 0)
(0.0181165 0.000832753 0 0.00908236 0 0)
(0.0182675 0.0020554 0 0.0103045 0 0)
(0.0187018 0.00348436 0 0.0116097 0 0)
(0.019484 0.00510797 0 0.0130043 0 0)
(0.0206714 0.0069272 0 0.0144744 0 0)
(0.0223153 0.00895758 0 0.0160286 0 0)
(0.0244432 0.0111917 0 0.0176249 0 0)
(0.0270776 0.0136433 0 0.0192901 0 0)
(0.030243 0.0162691 0 0.0209402 0 0)
(0.0338944 0.0191068 0 0.0226492 0 0)
(0.00432393 -0.000519702 0 0.00299752 0 0)
(0.0275646 -0.00399949 0 0.00259087 0 0)
(0.0241376 -0.00383582 0 0.00269488 0 0)
(0.0200573 -0.00263313 0 0.00317234 0 0)
(0.0192526 -0.00167497 0 0.00377817 0 0)
(0.0186258 -0.00104066 0 0.00446928 0 0)
(0.0180391 -0.000469873 0 0.00522734 0 0)
(0.0177635 0.000245857 0 0.00604723 0 0)
(0.0178199 0.00119358 0 0.00692615 0 0)
(0.0182065 0.00236767 0 0.00785737 0 0)
(0.0189612 0.00372424 0 0.00882322 0 0)
(0.020134 0.00523285 0 0.00981794 0 0)
(0.0217617 0.00688356 0 0.0108344 0 0)
(0.0238839 0.00868975 0 0.0118882 0 0)
(0.0265161 0.0106483 0 0.0129562 0 0)
(0.0296821 0.0127763 0 0.0140624 0 0)
(0.0333943 0.0150285 0 0.0151435 0 0)
(0.0376293 0.0174391 0 0.0162471 0 0)
(0.00482696 -0.000717692 0 0.00267193 0 0)
(0.0272339 -0.00365577 0 0.00232797 0 0)
(0.0238026 -0.00325145 0 0.00229396 0 0)
(0.019792 -0.00203667 0 0.00250946 0 0)
(0.0189448 -0.00114436 0 0.00282837 0 0)
(0.0182039 -0.000573085 0 0.00319517 0 0)
(0.0175361 -5.92036e-05 0 0.00358276 0 0)
(0.0173112 0.000571971 0 0.00399388 0 0)
(0.017569 0.00137781 0 0.00444876 0 0)
(0.0182609 0.00234796 0 0.0049607 0 0)
(0.019379 0.00345054 0 0.00552125 0 0)
(0.020936 0.00466039 0 0.00611502 0 0)
(0.0229437 0.00596872 0 0.00672423 0 0)
(0.0254261 0.00738333 0 0.00735062 0 0)
(0.0284145 0.00890132 0 0.0079782 0 0)
(0.0319313 0.0105314 0 0.00862452 0 0)
(0.0360098 0.0122445 0 0.00925444 0 0)
(0.0406033 0.0140541 0 0.00989458 0 0)
(0.00509891 -0.000880138 0 0.00237542 0 0)
(0.0271723 -0.00335935 0 0.00204845 0 0)
(0.0230031 -0.00260561 0 0.00198073 0 0)
(0.0188947 -0.00130454 0 0.00217713 0 0)
(0.0183468 -0.000361504 0 0.00245631 0 0)
(0.017955 0.000236365 0 0.00275175 0 0)
(0.0176002 0.000741147 0 0.0030401 0 0)
(0.0176955 0.00133538 0 0.00333281 0 0)
(0.0183421 0.00208811 0 0.00364737 0 0)
(0.019505 0.00298941 0 0.00398934 0 0)
(0.0211501 0.00400522 0 0.00435087 0 0)
(0.0232743 0.00510986 0 0.00472622 0 0)
(0.0258964 0.00629081 0 0.00510902 0 0)
(0.0290478 0.00754884 0 0.0055013 0 0)
(0.0327483 0.00887101 0 0.00588752 0 0)
(0.0369971 0.0102586 0 0.00628092 0 0)
(0.0418058 0.0116825 0 0.00665457 0 0)
(0.0471187 0.0131655 0 0.00702176 0 0)
(0.00517644 -0.000788072 0 0.00209342 0 0)
(0.0270531 -0.00297397 0 0.00168471 0 0)
(0.0224975 -0.00229296 0 0.00145713 0 0)
(0.0182641 -0.0012808 0 0.00147766 0 0)
(0.0176669 -0.000583584 0 0.00156174 0 0)
(0.0172447 -0.000158657 0 0.00162675 0 0)
(0.0169489 0.000180843 0 0.0017019 0 0)
(0.017203 0.000573826 0 0.00182539 0 0)
(0.0180433 0.00108204 0 0.00199483 0 0)
(0.019384 0.00170071 0 0.00218702 0 0)
(0.0212017 0.00239881 0 0.00238248 0 0)
(0.023532 0.00315642 0 0.00257612 0 0)
(0.0264255 0.00396605 0 0.00276946 0 0)
(0.0299123 0.00482741 0 0.00296869 0 0)
(0.0340005 0.00573377 0 0.0031685 0 0)
(0.0386617 0.00668325 0 0.00337607 0 0)
(0.0438938 0.00765476 0 0.00357635 0 0)
(0.0496131 0.00866593 0 0.00377546 0 0)
(0.00534189 -0.000597948 0 0.00184441 0 0)
(0.0268585 -0.00225493 0 0.00116906 0 0)
(0.021784 -0.00186888 0 0.000956192 0 0)
(0.0175899 -0.000997734 0 0.00106198 0 0)
(0.0171346 -0.000266115 0 0.00115513 0 0)
(0.0168577 0.000196006 0 0.00118594 0 0)
(0.0168328 0.000536853 0 0.00120412 0 0)
(0.0175028 0.00090056 0 0.00124935 0 0)
(0.0188525 0.00135071 0 0.00132011 0 0)
(0.02075 0.00188281 0 0.00140258 0 0)
(0.0231592 0.00246959 0 0.00148919 0 0)
(0.0261217 0.00309174 0 0.00157934 0 0)
(0.0296864 0.0037407 0 0.00167412 0 0)
(0.0338708 0.00441562 0 0.00177668 0 0)
(0.0386676 0.00510964 0 0.00188229 0 0)
(0.0440376 0.00582406 0 0.00199394 0 0)
(0.0499857 0.00654132 0 0.00210225 0 0)
(0.0564282 0.00727712 0 0.00221082 0 0)
(0.00357092 -0.000495106 0 0.00151525 0 0)
(0.0248199 -0.00107022 0 0.000720462 0 0)
(0.020003 -0.000671696 0 0.00044766 0 0)
(0.0163531 -0.000209746 0 0.000453133 0 0)
(0.0163089 0.000149359 0 0.000461827 0 0)
(0.0163518 0.000334674 0 0.000464912 0 0)
(0.0166359 0.000451569 0 0.000482784 0 0)
(0.0176321 0.000590475 0 0.000512809 0 0)
(0.019345 0.00078375 0 0.000547134 0 0)
(0.0216676 0.00102424 0 0.000582211 0 0)
(0.0245876 0.00129574 0 0.000617537 0 0)
(0.0281468 0.001586 0 0.000654795 0 0)
(0.0323711 0.00188872 0 0.000695322 0 0)
(0.0372392 0.00220209 0 0.000741117 0 0)
(0.0427144 0.00252121 0 0.000790924 0 0)
(0.0487345 0.00284636 0 0.000846273 0 0)
(0.0553095 0.00316451 0 0.000903023 0 0)
(0.0623486 0.00348626 0 0.000962175 0 0)
(0.00553937 -0.000612767 0 0.00108866 0 0)
(0.0250617 -0.00127659 0 0.000472788 0 0)
(0.0194631 -0.000962119 0 0.000422526 0 0)
(0.0163562 -0.00034824 0 0.000415501 0 0)
(0.0168052 5.15412e-05 0 0.000362808 0 0)
(0.0172564 0.000245969 0 0.000311094 0 0)
(0.0181306 0.000384104 0 0.000283062 0 0)
(0.0199209 0.000526572 0 0.000272229 0 0)
(0.02254 0.000669775 0 0.00027047 0 0)
(0.0258079 0.000807376 0 0.000273682 0 0)
(0.0296779 0.000945573 0 0.000281375 0 0)
(0.0341825 0.00109348 0 0.000294585 0 0)
(0.0393338 0.0012567 0 0.000314145 0 0)
(0.0451084 0.00143381 0 0.000340114 0 0)
(0.05145 0.00161466 0 0.000371544 0 0)
(0.0583111 0.00178536 0 0.000409329 0 0)
(0.065682 0.00193035 0 0.000450843 0 0)
(0.0735018 0.00204954 0 0.00049305 0 0)
(0.00375452 -7.08687e-05 0 0.000854571 0 0)
(0.0232978 0.000199515 0 0.000220047 0 0)
(0.0179367 1.41584e-05 0 0.000167633 0 0)
(0.0152794 6.7519e-05 0 0.000165993 0 0)
(0.0161601 4.51494e-05 0 0.00017567 0 0)
(0.0170554 -4.58452e-05 0 0.000185464 0 0)
(0.0183087 -0.000158954 0 0.000194845 0 0)
(0.0203198 -0.00027635 0 0.000205592 0 0)
(0.0229354 -0.000394781 0 0.000218788 0 0)
(0.0259393 -0.000510155 0 0.000234149 0 0)
(0.0292445 -0.000613785 0 0.000251005 0 0)
(0.0328698 -0.000697839 0 0.0002692 0 0)
(0.0368107 -0.000756374 0 0.000289 0 0)
(0.0410917 -0.000788891 0 0.000311124 0 0)
(0.0456408 -0.000799188 0 0.000335696 0 0)
(0.0504963 -0.000797691 0 0.000364431 0 0)
(0.0555427 -0.000791764 0 0.000396826 0 0)
(0.0608873 -0.000788144 0 0.000430507 0 0)
(0.00488924 -0.000346758 0 0.000717982 0 0)
(0.0251349 -9.33499e-05 0 0.00023322 0 0)
(0.0221402 1.97499e-05 0 0.000144599 0 0)
(0.0212003 0.000134031 0 0.000103336 0 0)
(0.0231861 0.000151457 0 8.1151e-05 0 0)
(0.0249722 0.000163476 0 6.88004e-05 0 0)
(0.0267085 0.000193747 0 6.1418e-05 0 0)
(0.0288326 0.000230452 0 5.79811e-05 0 0)
(0.0314777 0.000262547 0 5.74943e-05 0 0)
(0.0346509 0.000290004 0 5.92377e-05 0 0)
(0.0383392 0.000321688 0 6.29977e-05 0 0)
(0.0425468 0.00036869 0 6.85429e-05 0 0)
(0.0473333 0.000437884 0 7.50651e-05 0 0)
(0.0527771 0.000526891 0 8.18153e-05 0 0)
(0.0589851 0.000627399 0 8.89425e-05 0 0)
(0.065927 0.000731416 0 9.70294e-05 0 0)
(0.0737052 0.000834583 0 0.000104924 0 0)
(0.0820956 0.000939197 0 0.000111343 0 0)
(0.00028382 -0.000683071 1.5114e-22 0.00167702 -2.95124e-22 2.33761e-37)
(0.00379816 -0.00331338 -4.34223e-22 0.00296572 2.55272e-22 2.30491e-37)
(0.0128115 -0.00648461 0 0.00336538 0 0)
(0.0272508 -0.0095956 0 0.00345571 0 0)
(0.0472447 -0.0126591 0 0.00345662 0 0)
(0.073051 -0.0157837 1.50749e-21 0.00346194 -2.50094e-22 2.17106e-37)
(0.104895 -0.0190242 0 0.00349166 0 0)
(0.14311 -0.0223906 0 0.00353957 0 0)
(0.187977 -0.0258421 0 0.00359117 0 0)
(0.239703 -0.0292972 0 0.00362976 0 0)
(0.298294 -0.0326334 -2.85551e-21 0.00363909 2.58045e-22 2.011e-37)
(0.363458 -0.0356885 0 0.00360471 0 0)
(0.434558 -0.0382596 0 0.00351515 0 0)
(0.510445 -0.040132 0 0.00336817 0 0)
(0.589572 -0.041077 0 0.00316986 0 0)
(0.669688 -0.0409225 -4.21044e-21 0.00294471 2.76686e-22 1.85879e-37)
(0.748529 -0.0395498 0 0.00272965 0 0)
(0.822912 -0.0369682 0 0.0025808 0 0)
(0.891212 -0.0332947 0 0.00256373 0 0)
(0.949977 -0.0287919 0 0.0027523 0 0)
(0.997977 -0.0241506 0 0.00321097 0 0)
(1.03561 -0.0203535 0 0.00395211 0 0)
(1.06527 -0.0184754 0 0.00492516 0 0)
(1.09108 -0.0196267 -6.77632e-21 0.00600984 3.47407e-22 1.63132e-37)
(1.11854 -0.0246836 7.13713e-21 0.00708639 -3.44717e-22 1.60427e-37)
(1.15297 -0.0333279 -7.49728e-21 0.00827801 3.37101e-22 1.57753e-37)
(1.19891 -0.0455593 -7.85385e-21 0.00978993 3.25745e-22 1.55109e-37)
(1.25873 -0.0613019 0 0.0122506 0 0)
(1.3313 -0.0770713 0 0.0176632 0 0)
(1.41297 -0.0856037 8.92342e-21 0.0241996 -3.15662e-22 1.47363e-37)
(1.50259 -0.0815449 9.29085e-21 0.0244791 -3.41554e-22 1.44842e-37)
(1.60114 -0.0701804 0 0.0206136 0 0)
(1.71318 -0.0660962 0 0.0206849 0 0)
(1.85562 -0.0767654 1.04021e-20 0.0228479 -3.85916e-22 1.37462e-37)
(2.04024 -0.0939164 0 0.0233176 0 0)
(2.26588 -0.110859 0 0.0224932 0 0)
(2.52775 -0.125174 -1.13569e-20 0.020848 3.23443e-22 1.30357e-37)
(2.81864 -0.135814 0 0.0187868 0 0)
(3.13044 -0.142438 -1.18664e-20 0.0165808 2.71921e-22 1.25771e-37)
(3.45482 -0.145099 -2.41599e-20 0.014394 4.90839e-22 4.94095e-37)
(3.78356 -0.144037 0 0.0123167 0 0)
(4.10874 -0.139583 0 0.0103962 0 0)
(4.42284 -0.13212 0 0.00865453 0 0)
(4.71886 -0.122051 0 0.00709856 0 0)
(4.99029 -0.109798 0 0.00572844 0 0)
(5.23138 -0.0957798 -2.53874e-20 0.00454088 1.82529e-22 4.42654e-37)
(5.43749 -0.0804436 -2.53465e-20 0.00353387 1.36231e-22 4.34492e-37)
(5.60502 -0.0642338 -2.52329e-20 0.00270328 9.24198e-23 4.26445e-37)
(5.73127 -0.0476723 0 0.00204606 0 0)
(5.81493 -0.0312997 2.47959e-20 0.00155332 -1.41774e-23 4.10697e-37)
(5.85588 -0.0156607 0 0.00121103 0 0)
(5.85518 -0.00118469 -2.41055e-20 0.000996124 -4.84132e-23 3.95402e-37)
(5.81718 0.0118879 -2.36819e-20 0.000880286 -7.33587e-23 3.87923e-37)
(5.74365 0.0235113 0 0.000836561 0 0)
(5.63903 0.0336022 0 0.00084401 0 0)
(5.50684 0.0421312 0 0.000885476 0 0)
(5.35164 0.0491046 -2.16352e-20 0.000946282 -1.35518e-22 3.59109e-37)
(5.17735 0.054582 0 0.00101598 0 0)
(4.98803 0.0586767 0 0.0010853 0 0)
(4.78726 0.0615318 0 0.00114949 0 0)
(4.57837 0.0632985 0 0.00120528 0 0)
(4.36422 0.0641295 0 0.00125233 0 0)
(4.14739 0.0641674 0 0.00128995 0 0)
(3.93005 0.0635486 0 0.00131839 0 0)
(3.71408 0.0624015 0 0.00133677 0 0)
(3.50094 0.060866 1.6679e-20 0.0013448 1.35471e-22 3.00459e-37)
(3.2917 0.0590849 0 0.00134116 0 0)
(3.08692 0.0572105 0 0.00132641 0 0)
(2.88668 0.0553754 -1.52428e-20 0.00130285 -1.20244e-22 2.82714e-37)
(2.6907 0.0536617 -1.47955e-20 0.00127468 -1.15263e-22 2.7699e-37)
(2.49859 0.0520741 0 0.00124715 0 0)
(2.31012 0.0505306 1.39452e-20 0.00122391 1.05716e-22 2.65822e-37)
(2.12553 0.0488921 -1.3542e-20 0.00120538 -1.0094e-22 2.60375e-37)
(1.94559 0.0470086 0 0.00118829 0 0)
(1.77165 0.04476 1.27814e-20 0.00116578 9.07573e-23 2.49753e-37)
(1.60531 0.0421029 0 0.00113088 0 0)
(1.44812 0.0390883 0 0.00107996 0 0)
(1.30133 0.0358115 -1.17654e-20 0.0010122 -7.32534e-23 2.34479e-37)
(1.16575 0.0324098 0 0.00093103 0 0)
(1.0418 0.0290033 1.11742e-20 0.000840688 6.10801e-23 2.24722e-37)
(0.929469 0.0256952 0 0.000746167 0 0)
(0.828455 0.0225735 -1.0648e-20 0.000652578 -4.95521e-23 2.15295e-37)
(0.738216 0.0196792 -1.04071e-20 0.000562831 -4.42215e-23 2.10703e-37)
(0.65802 0.0170459 -1.01799e-20 0.000479718 -3.924e-23 2.06191e-37)
(0.587058 0.0146808 -1.99303e-20 0.000404521 -6.92455e-23 8.07025e-37)
(0.524489 0.0125812 1.95242e-20 0.000337914 6.07314e-23 7.89596e-37)
(0.469469 0.0107302 0 0.000279675 0 0)
(0.421138 0.00910234 0 0.000229041 0 0)
(0.378744 0.00767922 0 0.000185583 0 0)
(0.341633 0.00644216 1.80964e-20 0.000148742 3.33266e-23 7.22883e-37)
(0.309198 0.00537123 1.7781e-20 0.000117826 2.79532e-23 7.06934e-37)
(0.280887 0.00444752 -1.74797e-20 9.21489e-05 -2.30983e-23 6.91268e-37)
(0.256204 0.00365349 0 7.10548e-05 0 0)
(0.234706 0.00297325 1.69151e-20 5.39323e-05 1.47991e-23 6.60771e-37)
(0.215996 0.00239246 1.66499e-20 4.02188e-05 1.12929e-23 6.45931e-37)
(0.199725 0.00189821 1.63947e-20 2.94014e-05 8.17549e-24 6.31359e-37)
(0.185584 0.00147896 0 2.10163e-05 0 0)
(0.1733 0.00112445 0 1.4648e-05 0 0)
(0.162635 0.000825593 0 9.92826e-06 0 0)
(0.153381 0.000574379 1.54609e-20 6.53495e-06 -9.75256e-25 5.75661e-37)
(0.145356 0.000363806 0 4.19023e-06 0 0)
(0.138403 0.000187765 0 2.65859e-06 0 0)
(0.132387 4.0968e-05 -1.48339e-20 1.74391e-06 5.07063e-24 5.36503e-37)
(0.127189 -8.11121e-05 0 1.28595e-06 0 0)
(0.12271 -0.000182317 0 1.15621e-06 0 0)
(0.118862 -0.000265899 -1.42548e-20 1.25321e-06 7.46554e-24 4.99474e-37)
(0.115572 -0.000334561 0 1.49799e-06 0 0)
(0.112774 -0.000390543 0 1.82973e-06 0 0)
(0.110414 -0.000435706 1.37133e-20 2.2018e-06 -8.64666e-24 4.64478e-37)
(0.108443 -0.000471561 1.35397e-20 2.57878e-06 -8.83456e-24 4.53248e-37)
(0.106819 -0.000499352 0 2.93415e-06 0 0)
(0.105506 -0.000520181 -1.32015e-20 3.24909e-06 8.97001e-24 4.3142e-37)
(0.104471 -0.000534882 0 3.50999e-06 0 0)
(0.103684 -0.000544226 1.28738e-20 3.70892e-06 -8.84033e-24 4.10414e-37)
(0.103118 -0.00054901 0 3.84467e-06 0 0)
(0.10275 -0.000549647 1.25549e-20 3.91511e-06 -8.50692e-24 3.90204e-37)
(0.102556 -0.000546736 1.23984e-20 3.92494e-06 -8.28293e-24 3.8039e-37)
(0.102518 -0.000541179 0 3.88873e-06 0 0)
(0.102615 -0.000532842 0 3.80405e-06 0 0)
(0.102827 -0.000521074 0 3.65842e-06 0 0)
(0.103135 -0.000506096 0 3.45711e-06 0 0)
(0.103521 -0.000488502 0 3.21447e-06 0 0)
(0.10397 -0.000468882 0 2.94517e-06 0 0)
(0.104467 -0.000447831 0 2.66341e-06 0 0)
(0.105002 -0.00042591 1.11993e-20 2.38177e-06 -5.71408e-24 3.08451e-37)
(0.105565 -0.000403601 -1.10546e-20 2.10975e-06 5.37288e-24 3.00238e-37)
(0.106147 -0.000381286 0 1.85382e-06 0 0)
(0.106742 -0.000359297 0 1.61828e-06 0 0)
(0.107345 -0.000337883 0 1.40542e-06 0 0)
(0.107952 -0.000317202 0 1.21547e-06 0 0)
(0.108559 -0.0002973 -2.06874e-20 1.04685e-06 7.78587e-24 1.04631e-36)
(0.109165 -0.000278189 0 8.97518e-07 0 0)
(0.109765 -0.00025995 2.013e-20 7.66396e-07 -6.835e-24 9.88756e-37)
(0.110361 -0.000242754 -1.98535e-20 6.532e-07 6.40961e-24 9.60861e-37)
(0.11095 -0.000226737 0 5.57112e-07 0 0)
(0.111531 -0.000211942 0 4.76345e-07 0 0)
(0.112105 -0.000198266 0 4.08271e-07 0 0)
(0.11267 -0.000185608 1.87626e-20 3.50673e-07 -5.03878e-24 8.54939e-37)
(0.113226 -0.000173889 1.84936e-20 3.01823e-07 -4.76682e-24 8.29829e-37)
(0.113771 -0.000163044 0 2.60344e-07 0 0)
(0.114306 -0.000153021 1.79597e-20 2.25123e-07 -4.29061e-24 7.81189e-37)
(0.114831 -0.000143785 1.7695e-20 1.95294e-07 -4.08322e-24 7.57643e-37)
(0.115345 -0.000135343 -1.74316e-20 1.70248e-07 3.89361e-24 7.34602e-37)
(0.11585 -0.000127713 0 1.49454e-07 0 0)
(0.116345 -0.00012091 0 1.32406e-07 0 0)
(0.116832 -0.000114925 -1.66502e-20 1.18562e-07 3.42196e-24 6.68426e-37)
(0.117312 -0.000109718 0 1.07375e-07 0 0)
(0.117787 -0.000105208 0 9.82959e-08 0 0)