# Probe 0 (0.0254 0.0253 0)
# Probe 1 (0.0508 0.0253 0)
# Probe 2 (0.0762 0.0253 0)
# Probe 3 (0.1016 0.0253 0)
# Probe 4 (0.127 0.0253 0)
# Probe 5 (0.1524 0.0253 0)
# Probe 6 (0.1778 0.0253 0)
#       Probe             0             1             2             3             4             5             6
#        Time
        1e-05        130023        117183        105374       93751.1       82212.9       71299.1       59908.5
        2e-05      -73227.8        -65979      -59310.6      -52745.6        -46227      -40061.7      -33627.4
        3e-05      -5340.97      -4815.01      -4334.35      -3862.22      -3394.65       -2952.1      -2489.93
        4e-05      -4689.32      -4224.19      -3797.85      -3378.54      -2962.54      -2569.01      -2158.25
        5e-05      -3929.38      -3539.32      -3182.07      -2830.74      -2482.12      -2152.36      -1808.18
        6e-05      -3627.09      -3266.95      -2937.06      -2612.62      -2290.69      -1986.18      -1668.34
        7e-05      -2896.08      -2608.04       -2344.5      -2085.37      -1828.25      -1585.04      -1331.19
        8e-05      -3150.13      -2837.48      -2550.87      -2268.94      -1989.08      -1724.38      -1448.13
        9e-05      -2877.98       -2591.9      -2330.01      -2072.46      -1816.89      -1575.16      -1322.87
       0.0001      -2159.07      -1944.19      -1747.62      -1554.35      -1362.56      -1181.16      -991.822
      0.00011      -2350.27      -2116.59      -1902.64      -1692.23      -1483.38      -1285.84      -1079.68
      0.00012      -1969.14      -1773.14      -1593.83      -1417.51      -1242.55      -1077.06      -904.341
      0.00013      -1336.88      -1203.41      -1081.51      -961.703      -842.818      -730.371      -613.006
      0.00014      -1368.52      -1231.88      -1107.07      -984.376      -862.598      -747.426      -627.224
      0.00015      -1476.42      -1329.31      -1194.73      -1062.39      -931.026      -806.791      -677.132
      0.00016      -1391.75      -1252.96      -1126.07      -1001.32      -877.534      -760.451      -638.253
      0.00017      -1030.31       -927.21       -833.16       -740.74      -649.036      -562.301      -471.773
      0.00018      -555.021      -499.016      -448.113      -398.133      -348.553      -301.662      -252.718
      0.00019      -1143.79      -1029.46      -925.038      -822.393      -720.515      -624.163      -523.605
       0.0002      -992.203      -892.944      -802.352      -713.318      -624.979      -541.429      -454.225
      0.00021      -623.798      -561.012      -503.889      -447.786      -392.129      -339.488      -284.544
      0.00022      -333.335      -299.057      -268.268      -238.108      -208.206      -179.929      -150.412
      0.00023       -1064.4      -957.905      -860.706      -765.168       -670.34      -580.659      -487.064
      0.00024      -712.359      -641.046      -575.917      -511.903       -448.39      -388.318       -325.62
      0.00025      -474.785      -426.997      -383.429      -340.624      -298.157      -257.991      -216.067
      0.00026      -427.604      -384.263      -344.944      -306.349      -268.064      -231.856      -194.065
      0.00027      -469.133      -421.631      -378.546      -336.247      -294.265      -254.568      -213.139
      0.00028        119.51        108.54       98.1498       87.8546       77.6142       67.9247       57.8153
      0.00029      -390.643      -350.831      -314.815      -279.473      -244.394      -211.227      -176.615
       0.0003      -440.584      -396.098      -355.615      -315.849      -276.377      -239.053      -200.101
      0.00031      -434.483      -390.479       -350.55      -311.351       -272.46      -235.681      -197.296
      0.00032       251.555       227.783       205.406       183.274       161.276       140.465       118.748
      0.00033      -411.977      -370.214      -332.266      -295.001      -258.014      -223.039      -186.539
      0.00034      -129.671       -115.69      -103.433      -91.4861       -79.656      -68.4728      -56.7999
      0.00035       137.795        125.19        113.17       101.248       89.3902       78.1697       66.4615
      0.00036      -351.832      -316.085      -283.622      -251.746      -220.102      -190.183       -158.96
      0.00037      -191.467      -171.421      -153.554      -136.077       -118.76      -102.386      -85.2944
      0.00038      -147.809      -132.316      -118.418      -104.814      -91.3315      -78.5823      -65.2741
      0.00039      -5.54155      -3.89953      -2.90416      -2.02864      -1.19183     -0.403704      0.421939
       0.0004      -297.491      -267.004      -239.492       -212.51      -185.732      -160.415      -133.994
      0.00041      -108.774      -97.0763      -86.7364      -76.6429      -66.6472      -57.1973      -47.3326
      0.00042      -245.042      -219.852      -197.128      -174.845      -152.729      -131.821      -110.002
      0.00043       95.2634       86.6879       78.4919       70.3565        62.257       54.5931       46.5978
      0.00044       73.2453       67.1045       60.9509       54.7967       48.6783       42.8809       36.8293
      0.00045      -42.2445      -37.1053      -32.7803         -28.6      -24.4524      -20.5401       -16.459
      0.00046       150.213       136.252       123.093        110.07       97.1204       84.8684       72.0839
      0.00047       19.2252       18.1945       16.9397       15.6437       14.3565       13.1298       11.8476
      0.00048      -158.388       -141.74       -126.87      -112.316      -97.8722      -84.2209      -69.9759
      0.00049       122.428       111.266       100.616       90.0554       79.5491       69.6074       59.2338
       0.0005      -245.238      -220.152      -197.399      -175.061      -152.887      -131.923      -110.045
      0.00051       62.3416       57.0172       51.8055       46.6113       41.4346       36.5343       31.4223
      0.00052      -30.3638      -26.4543      -23.2225      -20.1087      -17.0199      -14.1075      -11.0697
      0.00053      -203.944      -182.852      -163.863      -145.246      -126.767        -109.3      -91.0717
      0.00054       -377.69      -339.555      -304.815      -270.679      -236.796      -204.756      -171.319
      0.00055       110.069       100.026       90.4587       80.9715       71.5254       62.5891        53.267
      0.00056       183.708       166.589       150.395       134.366       118.428       103.349       87.6135
      0.00057       16.5921       15.6841       14.6486       13.5917       12.5477       11.5519       10.5108
      0.00058      -193.669       -173.65      -155.594      -137.887      -120.312      -103.698      -86.3607
      0.00059       236.422       213.923       192.902       172.144       151.512       131.995       111.629
       0.0006       31.1023       28.9244       26.5875       24.2241       21.8752       19.6448       17.3161
      0.00061      -296.771      -266.481      -239.055      -212.136      -185.423      -160.164      -133.805
      0.00062      -199.705      -179.241      -160.673      -142.449      -124.383      -107.297       -89.461
      0.00063      -87.5444      -77.9624      -69.5649      -61.3804      -53.2848      -45.6297      -37.6368
      0.00064       196.296        177.67        160.29       143.128       126.069       109.933       93.0954
      0.00065       167.381       151.637       136.907       122.359       107.917       94.2495       79.9841
      0.00066      -264.597      -237.553      -213.043      -188.982      -165.104      -142.528      -118.966
      0.00067       221.964       200.849       181.123       161.646       142.293       123.983       104.876
      0.00068       68.1711       62.1738        56.452       50.7802       45.1502        39.818       34.2527
      0.00069       149.079       135.167       122.098        109.18       96.3364       84.1849       71.5055
       0.0007      -251.957      -226.167       -202.81      -179.883      -157.127      -135.611      -113.158
      0.00071       219.877       199.126       179.602       160.299       141.114       122.962        104.02
      0.00072      -269.728      -242.311      -217.346      -192.816      -168.465       -145.44      -121.411
      0.00073      -31.1117      -27.2143      -23.9573      -20.8146      -17.7201       -14.795      -11.7387
      0.00074      -364.088      -327.345      -293.842      -260.914      -228.227      -197.317      -165.059
      0.00075       611.874       552.277       497.124       442.766       388.784       337.721       284.432
      0.00076      -322.426      -289.812      -260.025       -230.74      -201.666      -174.174      -145.481
      0.00077       524.786       473.889       426.666       380.102       333.851         290.1       244.443
      0.00078      -72.5038      -64.5016      -57.4106      -50.4785      -43.5976      -37.0968      -30.3127
      0.00079       9.95782       9.84666       9.40321       8.89989        8.3759       7.87762       7.36116
       0.0008      -205.159      -183.955      -164.865      -146.146      -127.569      -110.007      -91.6793
      0.00081       47.1574        43.201       39.3481       35.5108        31.678       28.0524        24.273
      0.00082       313.254       283.176       255.191        227.58       200.148       174.199       147.121
      0.00083        57.407       52.7132       47.9929       43.2747       38.5884       34.1463       29.5091
      0.00084      -445.095      -400.241      -359.355      -319.173      -279.288      -241.572       -202.21
      0.00085      -151.738      -135.903       -121.71      -107.811      -94.0412       -81.019       -67.424
      0.00086       52.8531       48.5502       44.1907       39.8213       35.4567       31.3264       27.0202
      0.00087       107.061       97.4154       88.1566       78.9682       69.8227       61.1693       52.1412
      0.00088      -336.216      -302.048       -271.05      -240.612      -210.401      -181.835      -152.022
      0.00089       161.335       146.236       132.002       117.924       103.925       90.6814       76.8624
       0.0009      -348.655      -313.242      -281.111      -249.562       -218.25      -188.642      -157.741
      0.00091       246.755       223.278       201.289       179.565       157.972       137.545        116.23
      0.00092      -148.225      -132.599      -118.662      -105.022      -91.4877      -78.6947      -65.3436
      0.00093       446.606       403.362       363.243       323.682       284.387       247.217       208.427
      0.00094       48.5774       44.6933       40.7778       36.8617       32.9722       29.2853       25.4369
      0.00095      -123.488      -110.231      -98.5462      -87.1348      -75.8171      -65.1217      -53.9604
      0.00096        46.509       42.9575       39.1883       35.3837       31.5797       27.9777       24.2212
      0.00097       330.345       298.642       269.104       239.954       210.996       183.602       155.015
      0.00098      -64.8188      -57.4188      -51.0373      -44.8332      -38.6831      -32.8745      -26.8119
      0.00099       175.024       158.657        143.22       127.951       112.769       98.4052        83.418
        0.001      -119.068      -106.415      -95.1338      -84.0918      -73.1298       -62.771       -51.962
      0.00101      -299.118      -268.404      -240.781      -213.702      -186.837      -161.436      -134.926
      0.00102      -50.2693      -44.5465      -39.5646       -34.718      -29.9302      -25.4035      -20.6747
      0.00103      -7.98079      -6.28931      -5.11635       -4.0359      -2.98884      -2.00058     -0.965423
      0.00104      -15.0052      -12.5891      -10.7763      -9.06734      -7.38639      -5.80234      -4.14727
      0.00105       156.891       142.238        128.44       114.794       101.224       88.3871       74.9935
      0.00106      -252.052      -226.232      -202.876      -179.956       -157.21      -135.703      -113.257
      0.00107       261.958       237.052       213.696       190.618       167.684       145.987       123.346
      0.00108      -89.9734      -79.9355       -71.276      -62.8536      -54.5053      -46.6178      -38.3861
      0.00109       163.376       148.184       133.797       119.556       105.394       91.9957       78.0157
       0.0011      -174.538      -156.312      -139.993      -124.007      -108.145      -93.1502      -77.5014
      0.00111       113.301       103.065       93.2159       83.4386       73.7074       64.4993       54.8927
      0.00112      -197.158      -176.832      -158.474      -140.463      -122.589      -105.689      -88.0521
      0.00113      -79.7102      -70.8738      -63.1978      -55.7269      -48.3381      -41.3528       -34.059
      0.00114      -164.508      -147.469      -132.105      -117.036       -102.08      -87.9418      -73.1861
      0.00115       207.493       188.008       169.603       151.395        133.29       116.162       98.2908
      0.00116       335.021       302.907       272.957       243.398       214.031        186.25       157.261
      0.00117      -370.678      -333.048      -298.896      -265.358       -232.07      -200.593      -167.743
      0.00118       172.828       156.737       141.462       126.336       111.293       97.0615       82.2115
      0.00119       158.913       144.339       130.381       116.542        102.79       89.7747       76.1916
       0.0012      0.723332       1.48789       1.87912       2.20941       2.53393       2.83319       3.14563
      0.00121       -295.31      -265.125      -237.854      -211.095       -184.54      -159.432      -133.227
      0.00122       374.552       338.455       304.859       271.713       238.783       207.633       175.127
      0.00123      -122.558      -109.294      -97.6666      -86.3209      -75.0717      -64.4396       -53.343
      0.00124       44.3643       40.8882       37.3028       33.6998       30.0956       26.6843       23.1288
      0.00125      -117.235      -104.854      -93.7703      -82.9111      -72.1297      -61.9405      -51.3074
      0.00126       381.177       344.545       310.373       276.646        243.14       211.444       178.368
      0.00127      -212.406      -190.431      -170.652      -151.257      -132.011      -113.815       -94.824
      0.00128       137.211       124.756        112.74       100.809        88.936       77.7012       65.9792
      0.00129      -163.833      -146.801      -131.473      -116.442      -101.518      -87.4114        -72.69
       0.0013       106.058       96.5691       87.3764       78.2424       69.1483       60.5435       51.5666
      0.00131       213.579       193.483       174.554       155.838       137.234       119.634       101.269
      0.00132      -209.023      -187.359      -167.904      -148.833      -129.907      -112.014       -93.341
      0.00133        173.64       157.508       142.177       126.995       111.898       97.6145       82.7107
      0.00134       12.7561       12.4707        11.773       11.0124       10.2563       9.53163        8.7747
      0.00135       119.151       108.269       97.9004       87.6286       77.4096       67.7413       57.6548
      0.00136       151.356       137.306       124.024       110.885       97.8225       85.4641       72.5696
      0.00137       141.599       128.726       116.345       104.063       91.8539       80.2989        68.241
      0.00138      -72.8885      -64.7287      -57.6428      -50.7385       -43.892       -37.424      -30.6733
      0.00139       147.278       133.842        120.93       108.118       95.3691        83.307       70.7224
       0.0014      -208.377          -187      -167.624      -148.597       -129.71      -111.852      -93.2142
      0.00141      -286.815      -257.623      -231.157      -205.168      -179.376      -154.988      -129.533
      0.00142       55.7447       51.1426       46.4988       41.8521       37.2103       32.8188       28.2408
      0.00143      -200.108      -179.468      -160.856      -142.595      -124.474       -107.34      -89.4574
      0.00144       418.045       377.622        340.08       303.059       266.285         231.5       195.201
      0.00145      -116.744      -104.164      -93.0688      -82.2267      -71.4726      -61.3077       -50.698
      0.00146       99.5628       90.7022       82.1057       73.5643       65.0588       57.0113       48.6165
      0.00147      -12.5162      -10.2833      -8.68992      -7.19845      -5.72497      -4.33942      -2.89323
      0.00148       119.213       108.547       98.1831       87.8832       77.6297       67.9279       57.8062
      0.00149      -104.039      -92.8376      -82.9354      -73.2534      -63.6456       -54.566      -45.0901
       0.0015      -100.587      -89.6003      -80.0205      -70.6807      -61.4304       -52.686      -43.5571
      0.00151       126.807       115.245       104.169       93.1889       82.2613       71.9239       61.1404
      0.00152       163.165       147.847       133.482       119.293       105.191       91.8498       77.9307
      0.00153      -462.985       -416.17      -373.654      -331.891      -290.444      -251.248      -210.341
      0.00154      -28.7686      -25.1122      -22.1056      -19.2099      -16.3615      -13.6688      -10.8529
      0.00155       6.01729       6.23913       6.12347       5.95369       5.76419       5.58457       5.40195
      0.00156        153.53       139.405       125.917        112.55       99.2507       86.6698       73.5451
      0.00157       87.3926       79.7973       72.3204       64.8799       57.4879       50.4873       43.1804
      0.00158       -62.903      -55.8985       -49.747       -43.737      -37.7689      -32.1319       -26.249
      0.00159       70.0849       64.0809       58.1568       52.2549       46.3747       40.8099       35.0061
       0.0016       70.9509       64.9964       59.0112       53.0327       47.0802       41.4445       35.5649
      0.00161      -54.2602       -47.893      -42.5124      -37.2951      -32.1246      -27.2415      -22.1444
      0.00162      -170.696      -152.941       -137.01      -121.391       -105.89       -91.236      -75.9417
      0.00163      -97.9458      -87.2922      -77.9645      -68.8667      -59.8645      -51.3512      -42.4603
      0.00164       41.4473       38.0961       34.7537       31.4169       28.0823       24.9287       21.6433
      0.00165     -0.904089    0.00621268      0.518169      0.970991       1.41907       1.83583       2.27129
      0.00166      -93.4931      -83.3591      -74.4355       -65.716      -57.0654      -48.8903      -40.3573
      0.00167       46.5209       42.9318        39.147       35.3364       31.5239       27.9166       24.1572
      0.00168      -16.0558      -13.6012      -11.7097      -9.90664      -8.12012      -6.43731      -4.68001
      0.00169       -15.826      -13.4067      -11.5369      -9.75582      -8.00113      -6.34559      -4.61482
       0.0017      -7.06451      -5.46895      -4.39244      -3.39867      -2.42787      -1.51325     -0.555965
      0.00171        200.17       181.345       163.612       146.081        128.65       112.162       94.9598
      0.00172         70.11        64.206       58.2996       52.4081       46.5545       41.0097       35.2234
      0.00173       -212.43      -190.562       -170.83      -151.467      -132.244      -114.071      -95.1053
      0.00174      -80.1434      -71.2662      -63.5635      -56.0619      -48.6433      -41.6278      -34.3012
      0.00175         429.9       388.285        349.67       311.597       273.783       238.013       200.687
      0.00176      -241.815      -216.953      -194.507      -172.482      -150.625      -129.959      -108.388
      0.00177      -36.5414      -31.9802      -28.2368      -24.6315      -21.0805      -17.7235       -14.215
      0.00178       170.852       154.835       139.753       124.845       110.022       96.0015       81.3737
      0.00179       34.6681       32.3457       29.6604       26.9258       24.2025       21.6185       18.9225
       0.0018      -16.1265      -13.5985      -11.6919      -9.88374      -8.09638      -6.41264       -4.6541
      0.00181      -37.7726      -33.0825      -29.2137      -25.4795      -21.7838      -18.2947      -14.6513
      0.00182      -162.609      -145.642      -130.446      -115.554      -100.775      -86.8045       -72.223
      0.00183       17.5538       16.7632       15.5959       14.3694       13.1245       11.9456       10.7202
      0.00184      -89.2492      -79.4886      -70.9504      -62.6171      -54.3511      -46.5397      -38.3858
      0.00185       105.374       95.9251       86.7897       77.7197       68.6873       60.1429       51.2309
      0.00186      -115.639       -103.27      -92.3272      -81.6243      -71.0022      -60.9631      -50.4852
      0.00187      -65.4209       -58.078      -51.7089      -45.5064      -39.3766      -33.5785      -27.5215
      0.00188       267.662       242.076       218.195       194.626       171.207       149.056       125.942
      0.00189       160.699       145.814       131.683       117.702       103.818       90.6777       76.9651
       0.0019      -325.901      -292.622       -262.56      -233.058      -203.782      -176.099      -147.207
      0.00191       34.0392       31.4966       28.8063        26.097       23.3846       20.8175       18.1437
      0.00192       115.218       104.562       94.5263       84.6067        74.741       65.4095       55.6762
      0.00193       150.849       136.931       123.687       110.574       97.5341       85.1979       72.3271
      0.00194       -76.678      -68.2265      -60.8176      -53.5813      -46.3992      -39.6132      -32.5306
      0.00195      -70.9598      -62.9965      -56.1199      -49.4247       -42.796      -36.5301      -29.9875
      0.00196      -98.7818      -88.1864      -78.7969      -69.6108      -60.4997       -51.887      -42.8961
      0.00197       -80.141      -71.2665      -63.5594      -56.0506      -48.6202      -41.5943      -34.2576
      0.00198       480.555       434.052       390.841       348.229       305.904       265.869        224.09
      0.00199      -206.268      -184.987      -165.771      -146.913      -128.199      -110.503      -92.0318
        0.002       -50.734      -44.8139      -39.7852      -34.9056      -30.0847      -25.5264      -20.7647
      0.00201       249.021       225.278       203.092       181.193       159.431       138.847        117.37
      0.00202      -298.673      -268.069      -240.475      -213.402      -186.538      -161.136      -134.623
      0.00203       26.6443        25.024       23.0189       20.9566       18.8828       16.9185       14.8734
      0.00204      -146.877      -131.447      -117.679      -104.194      -90.8122      -78.1618      -64.9578
      0.00205       355.931       321.836       289.942       258.454        227.17       197.576       166.694
      0.00206       2.40792       3.10176       3.35066       3.53455       3.71371        3.8769       4.04818
      0.00207      -68.7147      -61.0748      -54.4038      -47.8925      -41.4332      -35.3299      -28.9584
      0.00208       222.022       201.137       181.415       161.914       142.527       124.188       105.054
      0.00209       65.1602       59.6756       54.2139       48.7715       43.3664       38.2461       32.9033
       0.0021      -20.5991      -17.5356      -15.2168      -13.0141      -10.8344      -8.78066      -6.63686
      0.00211      -5.15048        -3.685      -2.77716      -1.95643      -1.16133     -0.411868      0.373774
      0.00212      -44.3634      -39.0244      -34.5607      -30.2383      -25.9565      -21.9126      -17.6899
      0.00213       146.532       133.034       120.165        107.42       94.7456       82.7549       70.2453
      0.00214      -35.7077      -31.1809      -27.4862      -23.9238      -20.3929      -17.0607       -13.582
      0.00215      -59.1092      -52.2797       -46.476      -40.8399      -35.2555      -29.9801      -24.4722
      0.00216        150.38       136.529       123.312       110.221       97.1984       84.8797       72.0286
      0.00217      -281.801      -253.027      -226.985      -201.417      -176.043      -152.049      -127.005
      0.00218       277.834       251.311        226.49       201.984       177.634         154.6       130.566
      0.00219      -15.4074      -12.8204      -10.9519       -9.1947      -7.45964      -5.82515      -4.11809
       0.0022       -276.82      -248.592      -223.022      -197.913      -172.991      -149.425      -124.829
      0.00221       139.531       126.668       114.408       102.266       90.1849       78.7575       66.8369
      0.00222      -27.4528      -23.7216      -20.7808      -17.9642      -15.1727      -12.5405      -9.79229
      0.00223       36.4897       33.8741       31.0015       28.0952       25.1854       22.4313       19.5615
      0.00224      -4.00348       -2.6008      -1.79706      -1.08354     -0.384621      0.269879      0.954537
      0.00225       33.2483       30.7729       28.1838       25.5845        22.987       20.5288       17.9679
      0.00226      -136.603      -122.217      -109.381      -96.8056       -84.325       -72.527      -60.2126
      0.00227      -146.518      -130.932      -117.195      -103.771      -90.4657      -77.8861      -64.7539
      0.00228      -224.336      -201.297      -180.516      -160.123      -139.887      -120.752       -100.78
      0.00229       339.219       306.646       276.249       246.252        216.45        188.26       158.845
       0.0023      -119.101      -106.417      -95.1393      -84.0975       -73.143      -62.7868      -51.9762
      0.00231       337.644       305.387       275.161       245.313       215.655       187.599       158.324
      0.00232       31.9656       29.7454       27.3085       24.8489       22.4031       20.0837        17.665
      0.00233      -109.823      -98.1257      -87.7203      -77.5305      -67.4179      -57.8591      -47.8817
      0.00234      -69.8492      -61.9461      -55.1698      -48.5822       -42.069      -35.9102       -29.477
      0.00235      -101.378      -90.2936      -80.6567      -71.2605      -61.9464      -53.1428      -43.9526
      0.00236       254.687       230.391        207.68       185.265       162.993       141.925       119.943
      0.00237      -97.1167      -86.5804      -77.3054       -68.239      -59.2436      -50.7414      -41.8658
      0.00238      -155.592       -139.24      -124.686      -110.436      -96.2979      -82.9323      -68.9815
      0.00239       194.077       175.994       158.798       141.775       124.849       108.836       92.1305
       0.0024        253.45       229.275       206.708       184.441       162.318       141.392       119.557
      0.00241      -298.595      -268.181      -240.606      -213.521      -186.639      -161.218      -134.686
      0.00242       39.3395       36.3693       33.2033       30.0151       26.8262       23.8084       20.6646
      0.00243       90.9924       83.0089        75.187       67.4089       59.6649       52.3381       44.6965
      0.00244       300.683       272.065       245.214       218.695       192.344       167.418       141.408
      0.00245      -267.822      -240.398       -215.61      -191.276      -167.121      -144.282      -120.444
      0.00246      -180.149      -161.381      -144.603      -128.168      -111.883      -96.4809      -80.3995
      0.00247       27.9861       26.1632       24.0355        21.867       19.6917       17.6328       15.4894
      0.00248      -41.4229      -36.2725      -32.0748      -28.0282      -24.0209      -20.2377      -16.2872
      0.00249       125.488       113.984       103.016       92.1566       81.3526       71.1332       60.4736
       0.0025      -60.0647      -53.1018         -47.2      -41.4693      -35.7897      -30.4241      -24.8221
      0.00251      -116.074      -103.606      -92.6387      -81.9202      -71.2893      -61.2406      -50.7511
      0.00252       171.958       155.965       140.777       125.746       110.794       96.6526       81.9004
      0.00253      -115.704      -103.483      -92.5415      -81.8132      -71.1641      -61.0966      -50.5874
      0.00254      -467.841      -420.607        -377.7      -335.546       -293.71      -254.146      -212.853
      0.00255       43.6755       40.1237       36.5255       32.9304       29.3414       25.9462       22.4083
      0.00256      -41.7219      -36.7422      -32.5371      -28.4539      -24.4058       -20.582      -16.5887
      0.00257      -208.016      -186.444      -167.131      -148.203      -129.424      -111.668      -93.1348
      0.00258       64.9203       59.5636       54.0808       48.5916       43.1134       37.9302       32.5264
      0.00259      -15.0708      -12.8335      -11.0549      -9.34212      -7.64105      -6.03696      -4.36079
       0.0026      -115.171       -102.69      -91.8031      -81.1798      -70.6444      -60.6869       -50.293
      0.00261       354.898       320.948       289.143       257.738       226.536        197.02        166.22
      0.00262      -395.116      -355.149      -318.809      -283.101      -247.658       -214.14      -179.155
      0.00263       143.366       130.065       117.425       104.919       92.4844       80.7209       68.4484
      0.00264       281.725        254.93        229.79       204.961       180.289       156.951         132.6