/*--------------------------------*- C++ -*----------------------------------*\
  =========                 |
  \\      /  F ield         | OpenFOAM: The Open Source CFD Toolbox
   \\    /   O peration     | Website:  https://openfoam.org
    \\  /    A nd           | Version:  7
     \\/     M anipulation  |
\*---------------------------------------------------------------------------*/
FoamFile
{
    version     2.0;
    format      ascii;
    class       volVectorField;
    location    "10";
    object      U;
}
// * * * * * * * * * * * * * * * * * * * * * * * * * * * * * * * * * * * * * //

dimensions      [0 1 -1 0 0 0 0];

internalField   nonuniform List<vector> 
918
(
(0.813501 -0.0529593 0)
(0.134464 2.47694 0)
(0.0559354 0.755196 0)
(0.756266 0.0535006 0)
(-0.0135713 0.758166 -1.95706e-19)
(-0.136691 2.25728 -2.73126e-17)
(0.2608 0.4497 -9.23234e-19)
(0.129755 0.0721884 -5.34263e-20)
(1.00266 -0.00704998 0)
(-0.00998602 0.339846 0)
(-0.00836523 0.430639 0)
(0.243476 0.000814451 0)
(0.117394 1.74038 0)
(0.00852546 1.3013 0)
(-0.00586015 1.04134 -1.36309e-18)
(0.00226468 0.456807 -2.0903e-19)
(0.156419 0.037757 3.97074e-18)
(0.0573602 0.489174 -5.61388e-19)
(0.476772 0.049719 0)
(-0.0119632 0.464521 0)
(0.240752 0.128608 -1.80362e-18)
(1.02787 -0.139821 0)
(0.959633 -0.177437 0)
(0.589344 -0.0665274 0)
(0.217588 0.0124619 0)
(-0.0149848 1.47443 0)
(-0.0469621 1.72797 8.44322e-18)
(-0.0128771 0.943641 0)
(0.0458823 1.73962 0)
(0.0606217 1.14355 0)
(-0.00513489 1.76826 0)
(0.011479 0.996637 1.53301e-19)
(0.0121187 0.419568 0)
(-0.320951 2.70296 -1.02359e-21)
(-0.310509 3.10884 2.35994e-17)
(-0.0130235 3.04129 0)
(0.260719 0.000215793 0)
(0.0631674 0.0794702 5.923e-19)
(0.455464 0.735629 2.03827e-18)
(0.296312 0.382099 -1.6707e-18)
(0.392546 0.846701 1.92524e-19)
(0.21826 0.500899 -9.54558e-19)
(0.256508 0.139938 5.38265e-20)
(0.139287 0.0709667 0)
(0.339282 0.209906 0)
(0.248825 0.140274 2.40093e-19)
(0.127728 0.0756901 -2.38547e-19)
(0.278032 -0.0129895 0)
(1.0104 -0.000258545 0)
(1.00277 0.00663603 0)
(1.07486 -0.15407 0)
(1.01615 -0.0280504 0)
(1.01126 -0.017778 0)
(0.00504177 0.505955 -2.56701e-18)
(-0.0168924 0.69333 0)
(0.00834786 0.350936 0)
(-0.0316073 0.709204 0)
(-0.0135176 0.355399 0)
(-6.35744e-06 0.489683 0)
(-0.0163761 0.801697 0)
(-0.00156562 0.412219 0)
(-0.0176606 0.837592 0)
(-0.00624037 0.452795 0)
(0.280677 0.0031529 0)
(0.458963 0.00112887 0)
(0.247661 0.00410299 0)
(0.452565 0.00545551 0)
(0.235001 0.00313384 0)
(0.345186 2.93893 1.0766e-17)
(0.284413 3.23577 0)
(0.225159 3.03561 0)
(0.211121 2.70618 1.16185e-22)
(0.138778 2.12556 -1.5132e-17)
(0.177552 2.49081 0)
(0.0775997 1.54064 0)
(0.0169684 2.25849 1.60883e-23)
(0.0180428 1.30086 0)
(-0.0620727 2.29131 0)
(-0.0450685 1.32059 0)
(0.024728 1.7653 0)
(-0.0106715 1.17197 0)
(0.0119461 1.90021 1.37878e-18)
(0.00350551 1.0943 0)
(0.00268988 2.28409 0)
(0.00703451 0.847024 2.11542e-19)
(-0.00409329 0.459461 -2.7357e-19)
(0.306902 0.069904 -1.40589e-18)
(0.157719 0.0294084 -1.34441e-18)
(0.308651 0.0838024 -4.22435e-18)
(0.157766 0.0480618 -2.66388e-18)
(0.0463579 0.337112 0)
(0.128849 0.910113 5.17474e-19)
(0.124748 0.519262 -8.07991e-19)
(0.658324 0.0830025 0)
(0.347459 0.034471 0)
(1.00994 0.0416899 0)
(1.02769 0.158899 0)
(0.935882 0.139627 -1.74779e-17)
(0.850179 0.134865 1.30995e-17)
(-0.017275 0.859266 0)
(0.0046714 0.454482 0)
(-0.00364095 1.28654 0)
(-0.0293988 0.908368 0)
(-0.0299271 0.44836 0)
(0.409217 0.151631 6.19286e-19)
(0.180372 0.0983343 0)
(0.742875 -0.09308 0)
(0.412083 -0.0414504 0)
(0.43742 0.00413109 0)
(0.41939 0.00991882 0)
(0.226563 0.00272059 0)
(0.346338 0.0154092 0)
(0.349444 0.0238989 0)
(0.152399 0.0105918 6.1725e-18)
(-0.02137 1.34849 4.42218e-18)
(-0.0513809 2.42579 0)
(-0.0729155 2.5128 0)
(-0.0189665 1.35863 0)
(-0.0666342 2.63614 7.76414e-18)
(-0.0345583 1.62918 0)
(-0.10345 2.69816 -2.54658e-17)
(-0.0733535 1.81722 8.5274e-18)
(0.0352936 2.05483 0)
(0.0358077 2.17644 0)
(-0.00134374 0.839534 -4.77778e-21)
(-0.00435393 0.818024 0)
(-0.00293118 0.449078 0)
(0.493234 0.0111543 0)
(0.269246 0.00569353 0)
(0.25416 0.00174459 0)
(0.487796 -0.00395154 0)
(0.261869 0.000886429 0)
(0.210806 0.236519 -7.95694e-19)
(0.0533334 0.0678157 0)
(0.192773 0.26421 1.03818e-19)
(0.0688264 0.112002 0)
(0.515771 0.631301 5.47752e-19)
(0.315856 0.325649 -1.24042e-18)
(0.248878 0.931623 0)
(0.318362 0.92041 0)
(0.173849 0.531992 0)
(0.0458138 0.132301 -7.62982e-19)
(0.276991 0.129597 0)
(0.146494 0.0644904 7.24338e-19)
(0.545573 0.540551 0)
(0.570066 0.442842 0)
(0.325968 0.265621 1.39031e-18)
(0.598878 0.339733 0)
(0.363782 0.157878 2.94642e-20)
(0.494205 0.00877992 0)
(0.491501 -0.00254867 0)
(0.262834 0.00248392 0)
(0.620044 -0.0608 0)
(0.529918 -0.0389801 0)
(0.329701 -0.025969 0)
(1.0256 0.0652893 0)
(1.01251 0.0269822 0)
(1.00464 0.0214274 0)
(0.00542253 0.898419 1.38691e-18)
(0.00563695 0.478779 0)
(0.00448615 0.940123 2.4755e-18)
(0.00134138 0.524495 -2.20297e-18)
(0.0550497 0.838185 4.81577e-19)
(0.0276857 0.729283 0)
(0.0265619 0.418874 0)
(-0.0271893 0.739364 0)
(-0.0101128 0.384803 0)
(0.000463057 0.896768 -1.02918e-20)
(-0.0108676 0.493846 0)
(-0.0192872 0.887805 -5.33667e-19)
(-0.00942068 0.471959 1.01313e-18)
(-0.0131198 0.764029 0)
(0.00258895 0.776943 0)
(-0.00421282 0.40555 0)
(-0.00308377 0.85284 0)
(-0.000912161 0.460095 0)
(0.522358 0.00259234 0)
(0.284202 0.00183715 0)
(0.510222 0.0051893 0)
(0.27578 -0.00087667 0)
(0.256491 -0.000819971 0)
(0.481003 0.000673803 0)
(0.468847 0.0122582 0)
(0.256943 0.00286498 0)
(-0.00647616 4.03788 -6.99307e-20)
(0.0602217 3.91025 0)
(0.0867609 2.35695 0)
(0.0374114 1.3979 0)
(0.239996 1.66129 0)
(0.255839 0.704995 2.01127e-19)
(0.0266758 1.98893 0)
(-0.0216774 1.14735 0)
(0.0193609 2.23564 0)
(0.00531712 2.28098 0)
(0.0152844 2.27191 0)
(-0.00396118 1.84001 3.53935e-20)
(0.00918463 2.26157 0)
(0.00834321 2.12687 0)
(0.00509976 0.465437 2.54053e-20)
(0.0116291 0.88099 3.7618e-19)
(-0.0111408 0.861183 2.85537e-19)
(0.000656425 0.472488 0)
(0.31003 0.0479045 2.17222e-18)
(0.154879 0.0190606 -2.08688e-18)
(0.0872596 0.616471 0)
(0.0596171 0.298981 -5.76565e-19)
(0.0747645 0.688071 -1.96231e-18)
(0.0336868 0.386498 1.9188e-18)
(0.267455 0.00274604 0)
(0.512689 0.00722348 0)
(0.550304 0.0341006 0)
(0.292909 0.00998204 0)
(0.00216903 0.855688 0)
(0.0179978 0.848966 0)
(0.00251385 0.464155 0)
(0.245446 0.145121 2.15419e-18)
(0.271582 0.146975 -2.4316e-18)
(0.134307 0.0800711 0)
(0.648675 0.0467464 2.46668e-19)
(0.380242 0.0297799 0)
(0.588005 0.0280151 0)
(0.311497 0.0059287 0)
(0.305964 0.0334331 0)
(0.30502 0.020105 -1.01011e-17)
(0.154284 0.0126062 3.67777e-18)
(-0.0280858 2.40736 4.93442e-18)
(-0.0221948 1.43721 4.51032e-19)
(0.0206278 3.94123 -1.61358e-19)
(0.126146 3.8064 7.06859e-18)
(-0.141172 2.77488 3.12151e-19)
(-0.0946642 1.99797 -1.27309e-21)
(-0.258627 3.0954 -6.61993e-18)
(0.0494094 3.53287 4.95968e-18)
(0.0129023 3.73836 -7.43151e-18)
(0.508374 -0.00340633 0)
(0.510383 0.00759672 0)
(0.275277 0.000930479 0)
(0.49311 0.000747675 0)
(0.478845 0.00782785 0)
(0.261418 0.00234788 0)
(0.483136 -0.00431536 0)
(0.476027 -0.00497637 0)
(0.256115 -0.002855 0)
(0.159252 0.269972 -4.48307e-19)
(0.0503307 0.116294 0)
(0.0604838 0.124183 2.09482e-19)
(0.1421 0.285843 1.66521e-18)
(0.154807 0.284779 -9.22844e-19)
(0.0607963 0.118735 1.74032e-18)
(0.096912 0.286853 3.9085e-18)
(0.0554698 0.123927 7.41163e-19)
(0.302589 0.104027 2.86104e-18)
(0.289653 0.120935 7.4121e-19)
(0.154434 0.0580412 1.36904e-18)
(0.643826 0.253715 -1.61172e-18)
(0.385659 0.115214 -1.75082e-18)
(-0.0128116 0.946648 1.07289e-18)
(-0.00538036 0.521736 0)
(0.55968 0.0106768 0)
(0.533197 0.0136045 0)
(0.298269 0.007147 0)
(0.0159678 4.013 0)
(0.0437401 2.2622 9.9887e-18)
(0.0580556 2.29557 0)
(0.023558 1.33435 -9.27101e-18)
(-0.0171157 4.07975 1.97434e-18)
(-0.0298657 4.10506 0)
(0.231954 0.371965 -1.55674e-20)
(0.309793 0.683868 2.07065e-19)
(0.0710291 0.209594 -3.45353e-19)
(-0.0477384 2.27209 -4.29145e-18)
(-0.0478928 2.10339 0)
(-0.0310695 1.26778 0)
(0.00616941 0.863413 -3.79175e-20)
(0.0155376 0.88294 -8.35998e-19)
(0.00711546 0.465629 -3.64019e-20)
(0.130127 0.542595 1.91058e-18)
(0.0656543 0.239175 -1.23714e-18)
(0.0101346 0.845304 1.67226e-18)
(0.0378552 0.767457 -1.84985e-18)
(0.0160791 0.436541 7.4231e-20)
(-0.025367 4.05486 -1.14178e-17)
(-0.03686 4.13954 1.11213e-17)
(-0.0386693 2.55599 6.29208e-18)
(-0.0740533 2.45554 -5.4184e-18)
(-0.0193317 1.55238 -6.06866e-18)
(-0.0420214 4.13041 -1.46548e-17)
(-0.0441233 4.12787 1.28799e-17)
(0.11958 0.302301 0)
(0.144383 0.296965 -3.725e-18)
(0.0599564 0.136092 1.57891e-18)
(0.14671 0.330775 2.33348e-18)
(0.0635398 0.168537 -3.4972e-18)
(0.680152 0.104283 9.39232e-19)
(0.680261 0.18314 0)
(0.401558 0.0750065 -9.29725e-19)
(-0.0302188 0.912946 -1.14551e-20)
(-0.0111177 0.937969 0)
(-0.00710714 0.519039 0)
(0.124566 0.454847 -6.69716e-19)
(0.121411 0.395218 -1.44431e-18)
(0.0623837 0.202383 2.62531e-18)
(1.05449 -0.150995 0)
(1.12539 -0.152518 3.12015e-18)
(0.038817 1.99607 0)
(0.021141 1.79247 0)
(1.05546 0.0990662 2.21602e-20)
(1.03999 0.173749 6.48366e-18)
(0.0211137 1.85294 -4.61948e-20)
(0.00783729 1.53217 0)
(-0.0717359 3.76693 2.93152e-18)
(0.0354176 3.44497 0)
(1.13548 0.554873 -8.27803e-19)
(1.05089 0.0839442 -3.54612e-20)
(1.03422 -0.0306757 0)
(1.0387 -0.00086534 -1.54942e-22)
(0.0516901 1.69419 0)
(0.0742479 1.73725 0)
(-0.0371777 1.65591 0)
(-0.0120379 1.83095 7.35802e-19)
(-0.0118395 1.86316 4.55307e-19)
(0.95539 0.00887823 -1.96674e-20)
(1.03723 0.0110817 0)
(1.06866 0.0241954 0)
(0.00403058 2.27234 0)
(-0.00607436 1.69379 0)
(-0.0215182 1.81727 0)
(0.289474 1.80802 6.66533e-19)
(1.1162 -0.143618 0)
(0.992049 -0.111104 0)
(1.06508 -0.0209442 3.98548e-18)
(1.10694 -0.121151 -4.71862e-18)
(1.04034 -0.0479544 0)
(-0.00205884 2.25898 0)
(0.0143267 2.14662 0)
(0.017391 2.21266 0)
(-0.00553259 1.88569 0)
(-0.0144621 1.77456 0)
(-0.0172226 1.62333 0)
(1.00027 0.00902948 0)
(0.979236 -0.000712263 -2.31833e-20)
(0.811559 1.25036 -9.85332e-19)
(1.06036 0.0178736 -3.98652e-18)
(1.07203 0.106773 4.81557e-18)
(1.03319 0.0453245 0)
(1.13329 0.106927 3.69622e-18)
(1.11846 0.165348 -4.70048e-18)
(1.00965 0.134621 0)
(-0.0105094 1.81024 0)
(0.0115369 1.78935 1.89584e-19)
(-0.00567163 1.4923 -1.36529e-19)
(1.21584 0.173009 4.9475e-18)
(1.15148 0.0568415 0)
(-0.237299 3.94796 -3.82626e-18)
(-0.154614 2.49689 -2.49637e-19)
(-0.236908 4.01128 4.52552e-18)
(-0.057504 3.90837 -1.78309e-18)
(-0.0163621 3.55008 0)
(-0.0221412 3.8252 1.44561e-18)
(-0.16392 4.15453 3.94246e-18)
(-0.0802198 4.04407 -2.68928e-18)
(-0.102443 4.05448 0)
(0.559312 0.258256 0)
(0.517891 0.291124 0)
(1.14256 0.704135 2.51928e-18)
(1.02827 0.693909 -3.19639e-18)
(1.22214 0.567109 0)
(1.12124 0.394463 0)
(1.11403 0.0823971 -7.09619e-18)
(0.954882 0.0453344 8.76477e-18)
(1.10613 -0.0356023 0)
(0.943778 -0.0120945 0)
(1.16543 0.0124374 0)
(1.21679 0.0469444 0)
(1.11043 0.0407905 0)
(1.19592 0.100323 0)
(1.15069 0.10563 0)
(1.12472 0.0797582 0)
(0.0459612 1.80658 0)
(0.00512416 1.4715 0)
(0.0896577 1.91864 0)
(0.0885433 1.51981 0)
(0.0977694 1.85174 0)
(0.0815504 1.447 -1.27407e-18)
(0.0323288 1.86781 0)
(0.0128515 1.63433 9.26637e-19)
(-0.0103638 1.70928 -1.19832e-18)
(-0.0303062 1.80067 0)
(-0.0215936 1.52384 0)
(-0.0439044 1.83556 0)
(-0.0256789 1.41772 0)
(-0.0436484 2.31426 -5.77324e-19)
(-0.0296631 2.01172 6.26696e-19)
(-0.0282807 1.95765 7.43219e-19)
(-0.0209651 1.64022 0)
(-0.0338184 1.96015 -1.07251e-18)
(-0.0099083 1.72719 -6.55424e-19)
(-0.034134 2.32387 4.36211e-19)
(-0.0333725 2.20796 -8.01607e-19)
(-0.0269803 2.15038 -9.09126e-19)
(1.07136 0.0135158 6.40496e-18)
(0.852246 0.00565493 -8.0499e-18)
(1.03822 0.0272628 -6.36692e-18)
(0.853429 0.0167683 7.90745e-18)
(1.12376 0.0134436 0)
(0.918781 0.00177796 0)
(1.14646 0.0276996 0)
(1.11772 0.00992977 0)
(0.948478 0.00673031 0)
(1.20348 0.0648808 0)
(1.15018 0.0284454 0)
(0.992692 0.0198767 0)
(0.0149645 2.19178 -2.3097e-20)
(0.00390297 2.27523 0)
(0.00702508 2.24172 0)
(-0.0146957 1.87245 1.98133e-19)
(-0.00743928 1.54742 -8.11372e-21)
(-0.00859157 2.29545 2.35961e-19)
(-0.0154409 2.25235 -2.41434e-19)
(-0.0177692 2.14529 0)
(-0.00760021 2.13667 0)
(-0.00561705 2.15076 0)
(-0.0173972 1.95874 0)
(-0.010096 1.54403 0)
(0.329245 1.95259 -1.49924e-18)
(0.424321 1.5858 -4.56133e-19)
(0.27145 1.10485 -4.93595e-19)
(0.158461 1.24398 1.56099e-18)
(0.366834 2.3138 5.67133e-19)
(1.13585 -0.0497571 0)
(1.09943 -0.0845239 0)
(0.936866 -0.0548814 0)
(1.17604 -0.0266521 0)
(1.12914 -0.0555665 0)
(1.16151 -0.096525 0)
(1.18391 -0.101934 0)
(1.1992 -0.0962384 0)
(1.09115 0.00485143 6.75564e-18)
(0.872384 0.00684811 -8.49272e-18)
(1.06194 0.011962 -6.69802e-18)
(0.895261 0.00464269 8.31209e-18)
(0.761249 1.3908 0)
(0.698909 1.338 -1.19883e-18)
(0.841906 1.28895 -1.1677e-18)
(0.868173 1.03256 1.56244e-18)
(0.63805 1.23799 3.10918e-18)
(0.621268 0.0751958 2.52253e-18)
(1.22345 0.0888476 0)
(1.27257 0.175258 -3.97578e-18)
(1.11042 0.0766341 -1.74764e-19)
(1.22178 0.128108 0)
(-0.212441 3.32071 3.05292e-18)
(-0.258326 3.42052 -4.05083e-18)
(-0.0530451 1.66826 2.35635e-18)
(0.256466 0.517938 -1.25662e-18)
(0.0466536 3.60315 8.45263e-19)
(-0.00447916 3.65194 0)
(0.0272776 3.32917 -1.20192e-18)
(-0.141895 3.56292 -7.83634e-18)
(-0.0321319 3.63124 0)
(-0.0299414 3.96244 2.99079e-19)
(-0.0400013 4.24151 -3.3253e-18)
(-0.049774 4.02841 4.79665e-18)
(-0.094883 4.18142 0)
(-0.0367185 4.11291 0)
(0.649508 1.45393 0)
(0.6386 0.856942 -2.24811e-18)
(0.93144 0.835387 1.11313e-18)
(0.914958 1.07856 0)
(0.961928 1.10039 -9.67032e-19)
(1.03013 0.87032 4.86111e-20)
(0.507495 0.193331 -3.20903e-18)
(0.657232 0.290884 -2.13718e-20)
(0.538604 0.20872 1.6101e-18)
(0.565943 0.343796 1.08007e-19)
(0.4495 0.272833 -4.24905e-18)
(0.622418 0.305592 0)
(0.779952 0.425719 2.72938e-18)
(0.790949 0.39809 0)
(0.605971 0.330881 0)
(0.477593 0.246362 0)
(1.00376 0.689196 2.1294e-18)
(1.28097 0.242444 -4.10951e-18)
(1.24555 0.395208 0)
(1.17291 0.253215 0)
(0.61025 0.160515 2.49662e-18)
(1.0155 0.597442 -1.63251e-18)
(0.946483 0.560815 3.01736e-18)
(1.1678 0.437201 -3.73741e-18)
(1.03575 0.0155305 4.55353e-18)
(1.0499 0.041227 -4.69324e-18)
(0.889242 0.0162452 0)
(1.10094 0.004424 0)
(1.05723 -0.00971671 -4.41097e-18)
(0.884639 0.000349747 4.35564e-18)
(1.30316 0.0125467 0)
(1.25346 0.013957 0)
(1.24853 0.0447569 0)
(1.20707 0.0568914 0)
(1.29137 0.0124551 0)
(1.2621 0.00924893 0)
(-0.0111629 1.67602 0)
(-0.0236704 1.40812 0)
(0.154487 2.23872 -9.90613e-19)
(0.270377 1.94528 -3.95163e-19)
(0.158292 1.89985 -8.7793e-19)
(0.196854 1.66876 1.40091e-18)
(0.169407 2.20453 0)
(0.200427 2.33764 -1.17412e-18)
(0.169546 2.35156 0)
(0.366598 2.32476 -8.03701e-19)
(0.32898 2.02316 2.12162e-18)
(0.212892 2.35046 1.00783e-18)
(0.22365 2.21315 -5.00549e-19)
(0.199237 2.28091 4.08866e-19)
(0.241023 2.35184 -1.5545e-18)
(0.250133 2.35939 0)
(0.267574 2.35462 1.19178e-18)
(-0.000988406 2.24859 -4.40269e-19)
(-0.00747449 1.88742 0)
(0.0419712 2.13485 1.28725e-18)
(0.00121151 2.18083 0)
(-0.000378002 1.81556 -1.02908e-18)
(-0.00680253 1.57949 0)
(-0.0495713 2.25644 -7.05242e-19)
(-0.0442721 2.31724 0)
(-0.0365596 2.12866 0)
(-0.0389594 2.14271 7.71136e-19)
(-0.0201673 1.9901 3.28336e-20)
(-0.0190512 1.91791 1.46124e-18)
(-0.0214948 1.59493 9.68833e-21)
(-0.0413243 2.30538 4.07613e-19)
(-0.0415737 2.32152 2.35922e-19)
(-0.0165812 1.72331 0)
(-0.00892195 1.48284 0)
(-0.0226533 2.33852 1.14363e-18)
(-0.0364404 2.26231 1.06912e-18)
(-0.0392005 2.30816 -1.36523e-18)
(-0.00170656 2.34937 0)
(-0.0112971 2.22858 -7.30388e-19)
(-0.0261807 2.11988 3.17075e-19)
(-0.0220899 2.1294 -9.676e-20)
(-0.0226593 2.31421 -5.12224e-19)
(-0.0218918 2.13712 -1.61701e-19)
(-0.0297684 2.11315 7.40272e-19)
(1.01063 0.00613791 -4.44341e-18)
(1.01094 0.00463923 4.31736e-18)
(0.855202 0.0030654 0)
(1.18459 0.0469999 5.8757e-18)
(0.999695 0.0349133 -6.34833e-18)
(0.855847 0.0180312 6.93031e-18)
(1.2258 0.0806362 -7.84342e-19)
(1.07801 -0.00344745 0)
(1.06693 0.00275967 4.25228e-18)
(0.927991 0.00146623 -4.17844e-18)
(1.24927 0.0347093 -2.46129e-19)
(1.222 0.0306435 2.1151e-18)
(1.30438 0.0448782 0)
(1.3178 0.04429 -7.21024e-19)
(1.29 0.0287807 0)
(1.23295 0.026545 0)
(1.31578 0.00887698 0)
(1.22847 0.00525653 0)
(1.31772 0.0248179 1.49936e-18)
(1.31671 0.0117375 -3.3243e-18)
(1.30376 0.0298549 -1.66912e-18)
(1.31304 0.0289831 -1.77255e-18)
(1.31478 0.0584441 3.48908e-18)
(1.24287 0.0504 0)
(1.29008 0.080757 0)
(-0.00608903 2.25131 -2.94956e-19)
(0.00953033 2.2734 -2.49926e-20)
(-0.00436931 2.28039 0)
(-0.00438435 2.11666 2.9705e-19)
(-0.00250561 2.13547 4.61267e-20)
(-0.00542378 2.09452 -4.7075e-20)
(-0.0251494 1.85941 5.80759e-19)
(-0.0400023 2.05156 -3.38174e-20)
(-0.0237293 2.08998 1.68392e-19)
(-0.0160033 1.81398 -2.97546e-19)
(-0.00621554 1.60542 3.57359e-19)
(-0.0145334 2.27271 1.11475e-20)
(-0.0142488 2.29411 3.63071e-19)
(0.288798 2.17468 8.57568e-19)
(0.278399 2.32564 1.61346e-18)
(0.619279 1.52151 1.15311e-18)
(0.462277 1.70616 4.40079e-19)
(0.56104 1.46075 0)
(0.336474 1.25618 5.80902e-19)
(0.267953 0.888482 6.83358e-19)
(0.20473 1.37382 3.74961e-20)
(0.276946 1.68859 -2.48284e-18)
(0.320894 1.7059 1.83735e-18)
(0.261926 1.28918 0)
(0.175611 1.05759 -1.21383e-18)
(0.141642 1.62364 3.15441e-18)
(0.161922 1.44841 -5.62636e-20)
(0.0972785 1.24581 -3.92758e-18)
(0.27084 0.815944 2.57096e-18)
(0.322062 0.852675 0)
(1.2133 -0.0289609 1.55545e-19)
(1.21642 -0.0860568 -1.30379e-19)
(1.24551 -0.071179 -2.29009e-18)
(1.26532 -0.0437098 2.30927e-18)
(1.24425 -0.0219546 0)
(0.713505 1.49734 0)
(0.724053 1.48783 0)
(0.859349 1.31081 0)
(0.770451 1.40179 0)
(0.637689 1.29978 -5.68594e-21)
(0.453005 0.831477 0)
(0.854571 2.78392 2.62187e-20)
(0.63607 2.43921 0)
(0.73785 2.33633 -2.09228e-18)
(0.748977 2.37207 1.3545e-18)
(0.740511 0.115003 0)
(0.614863 0.102971 6.6286e-19)
(0.933068 0.113196 4.15384e-18)
(0.737625 0.0875047 -1.47973e-18)
(0.594629 0.0413672 -4.61939e-18)
(1.31883 0.226406 -5.21375e-18)
(1.206 0.30343 -3.2615e-20)
(1.11317 0.270482 3.91652e-18)
(1.22811 0.22067 3.5349e-18)
(1.09525 0.145397 -5.8335e-18)
(1.03973 0.151683 7.13097e-19)
(1.11366 0.222 -1.59712e-18)
(1.06167 0.206789 0)
(1.2312 0.162309 2.98356e-18)
(1.28103 0.183826 0)
(1.27923 0.218789 0)
(1.28295 0.117048 1.67185e-18)
(1.31455 0.183172 -3.20897e-20)
(1.30988 0.205097 -9.06172e-19)
(1.30961 0.186549 0)
(1.20544 0.0277634 3.30612e-18)
(1.31544 0.0395005 4.15306e-18)
(1.30519 0.0313352 -3.24297e-18)
(1.30473 0.0562521 -2.81429e-18)
(1.23254 0.0510107 -4.17054e-18)
(1.15223 0.112651 0)
(1.16472 0.0828579 0)
(0.969708 0.058684 -2.45373e-18)
(0.823494 0.0370461 9.1436e-19)
(1.28468 0.0929254 3.84138e-18)
(1.32212 0.11511 -4.70065e-18)
(1.31747 0.13427 4.163e-18)
(1.29352 0.13516 0)
(1.31885 0.0901179 0)
(1.31754 0.0805412 -1.95452e-18)
(1.31138 0.0783205 -3.16207e-18)
(0.719347 2.26694 1.13754e-18)
(0.820803 2.83543 -1.11738e-18)
(0.92438 2.81691 -1.29788e-18)
(0.905054 3.08638 2.71342e-19)
(0.711341 1.59428 -2.84512e-18)
(0.713351 1.49929 4.99255e-19)
(0.498557 0.849364 -4.52846e-20)
(0.87968 2.55639 -9.68709e-19)
(0.886371 2.51637 1.73698e-18)
(0.782333 2.87414 2.53922e-19)
(0.7318 2.05373 -2.59755e-19)
(0.674679 1.92533 0)
(0.591513 0.946075 -2.45075e-19)
(0.0208965 1.52978 1.78827e-18)
(0.519642 0.270005 2.08272e-18)
(0.371831 0.375404 2.24164e-18)
(0.517188 0.305707 2.38089e-18)
(0.634049 0.387466 -4.09634e-18)
(0.628958 0.357985 3.34201e-18)
(0.539583 0.275166 -1.1807e-18)
(0.439463 0.23886 2.6154e-18)
(0.68858 0.212681 -1.45837e-18)
(0.657213 0.234565 0)
(0.553171 0.186251 4.87318e-21)
(0.870271 0.531188 1.49719e-18)
(0.796939 0.472339 -5.25326e-18)
(0.693836 0.435072 -2.65773e-23)
(0.684214 0.419003 0)
(0.774941 0.850524 1.79098e-18)
(0.977328 0.890052 2.29806e-18)
(0.900327 0.980284 -2.65755e-18)
(1.02611 0.910929 -9.45948e-19)
(1.07321 0.908705 -3.36163e-19)
(1.05726 0.96261 3.43402e-19)
(1.08262 0.724099 -3.45489e-18)
(1.09846 0.806949 8.87641e-19)
(1.14766 0.805482 0)
(1.16378 0.736283 -1.30466e-18)
(1.25005 0.324105 1.2072e-18)
(1.32996 0.303899 2.22776e-18)
(1.32548 0.28134 2.11617e-18)
(1.23288 0.402805 -2.35055e-18)
(1.27289 0.423769 0)
(1.29363 0.38977 0)
(1.10169 0.402029 -1.95569e-20)
(0.906235 0.261568 0)
(0.98359 0.264904 1.76147e-18)
(1.09577 0.291528 -3.03689e-20)
(1.16335 0.486127 1.03329e-17)
(1.09105 0.560904 2.61445e-18)
(1.08574 0.500128 -2.57381e-18)
(1.01662 0.46926 2.73826e-18)
(0.956334 0.482666 1.52956e-18)
(0.870735 0.434891 -1.48087e-18)
(1.20939 -0.00764998 3.73798e-18)
(1.30054 -0.00482224 0)
(1.28979 -0.0167757 2.48312e-18)
(1.24281 -0.0046737 -5.59151e-18)
(1.31927 0.00506721 2.63044e-18)
(1.30195 0.0154911 -5.68968e-18)
(1.24959 0.0151087 0)
(1.18782 0.0281336 -1.15767e-18)
(1.28444 0.0252592 2.92972e-18)
(1.24079 0.0452596 -1.51696e-18)
(1.20031 0.0344711 1.09061e-18)
(-0.0420683 1.69317 0)
(-0.0217326 2.02541 0)
(-0.0281933 1.64378 0)
(-0.0220997 1.38069 0)
(0.0369016 2.17124 1.63201e-18)
(0.0710391 2.12103 -4.8964e-19)
(0.126402 2.34229 -5.58563e-19)
(0.108248 2.32657 5.46162e-19)
(-0.0166497 2.26067 -1.22852e-18)
(-0.00132858 2.26657 9.238e-19)
(0.0408921 2.16727 -5.68389e-21)
(0.00981709 2.08074 -1.09102e-18)
(-0.00354735 1.98294 -1.48495e-19)
(-0.0178871 2.09022 -1.40299e-19)
(0.0647002 2.20611 -1.3708e-18)
(0.0784234 2.12271 0)
(0.123658 2.27466 6.75251e-19)
(0.136676 2.32782 5.71519e-19)
(0.226221 2.23785 -5.08141e-19)
(0.217225 1.94108 0)
(0.23243 1.88249 -2.49597e-18)
(0.282455 2.06925 1.80465e-18)
(0.200632 2.26106 -1.39501e-18)
(0.156123 2.17993 7.45797e-19)
(0.135549 2.09259 0)
(-0.0182746 2.31948 -1.29684e-18)
(-0.0281977 2.23832 -1.50184e-18)
(-0.0329784 2.30218 0)
(-0.0159596 2.17032 -1.47011e-20)
(-0.00944624 2.277 6.58396e-19)
(-0.0495094 2.15306 1.07959e-19)
(-0.0213502 2.03429 -1.60537e-18)
(-0.0427526 2.15519 4.51065e-19)
(-0.0638661 2.29902 5.70183e-19)
(-0.0399183 2.26712 0)
(-0.0304946 2.17037 0)
(-0.0242366 1.81097 4.72722e-19)
(-0.0106909 2.10352 -1.41696e-19)
(-0.0181089 2.09567 0)
(-0.0193491 1.74569 3.85312e-19)
(-0.007465 1.48568 -7.37753e-19)
(1.22562 0.0182795 0)
(1.21975 0.0111553 -3.8347e-19)
(1.32541 0.0142694 -2.6921e-18)
(1.30102 0.0142382 0)
(1.25665 0.010858 0)
(1.32742 0.00552506 -1.22484e-20)
(1.32066 0.00416305 4.5332e-18)
(1.29324 0.00953712 5.22892e-18)
(1.24317 0.0122637 0)
(1.1897 0.013337 0)
(1.29184 0.00929373 2.65493e-18)
(1.22906 0.0179695 0)
(1.17463 0.0216857 0)
(-0.0167917 2.28582 0)
(-0.0194144 2.28908 2.33254e-20)
(-0.0132611 2.29509 1.55233e-19)
(-0.00883095 2.14487 0)
(-0.0192832 2.27688 2.58736e-19)
(-0.0112793 2.23843 -1.3925e-19)
(-0.0131312 2.19879 0)
(0.456974 2.5568 0)
(0.30171 2.45657 -2.75218e-18)
(0.369518 2.49502 0)
(0.377514 2.38574 3.14603e-18)
(0.420012 1.83986 0)
(0.377041 2.13122 -1.31985e-18)
(0.578904 1.75577 -5.46869e-20)
(0.338102 1.05825 -3.05202e-18)
(0.328319 0.721331 3.43926e-18)
(0.395979 1.05153 7.25703e-19)
(0.577134 1.67194 0)
(0.605833 1.77469 0)
(0.354274 0.974154 0)
(0.242286 0.647343 -2.50358e-18)
(0.505146 2.43705 -1.99777e-18)
(0.577693 2.05801 -4.64604e-19)
(0.611588 2.38614 3.8898e-19)
(0.349202 1.08889 0)
(0.354697 1.03816 0)
(0.25349 0.78725 -7.80727e-19)
(0.531379 1.73476 0)
(0.707645 1.40925 0)
(0.560692 1.43165 -2.91035e-18)
(0.634597 1.13017 -1.79644e-19)
(0.690728 1.73423 0)
(0.639927 1.90123 4.41611e-18)
(0.907943 1.03294 -8.8667e-19)
(0.913948 1.17934 0)
(0.909331 1.10632 1.5152e-18)
(0.717762 1.2203 0)
(0.709529 1.16091 0)
(0.875945 2.2436 -1.14133e-18)
(0.966206 2.76968 -1.03309e-18)
(0.89784 2.81056 1.88508e-18)
(0.891738 2.76293 -6.02362e-19)
(0.745597 1.7864 0)
(0.761356 2.01671 7.93187e-19)
(0.486633 1.00415 -9.54513e-19)
(0.356995 0.709891 -1.65376e-20)
(0.777584 2.66371 0)
(0.701904 2.28433 -1.00593e-18)
(0.713489 2.08987 0)
(0.881218 0.183667 0)
(0.686413 0.136101 0)
(0.550214 0.119814 0)
(0.868465 0.206704 -2.72394e-18)
(0.696683 0.168302 1.51207e-18)
(0.843157 0.0409145 -1.83148e-18)
(0.983648 0.0903077 0)
(0.934494 0.0920207 7.64453e-19)
(0.71535 0.0465593 3.0109e-18)
(0.627739 0.027771 -1.90648e-18)
(0.627951 3.06588 3.47333e-19)
(0.719153 3.2493 0)
(0.453719 3.08448 7.79634e-19)
(0.328747 3.55245 -6.5449e-19)
(0.401475 3.47428 -1.36676e-18)
(0.449675 1.26704 2.74824e-18)
(0.445746 1.65973 0)
(0.383822 0.607935 -5.52215e-19)
(0.517995 0.6784 3.6147e-18)
(0.567792 0.356196 -7.75572e-19)
(0.650994 0.413072 8.59464e-19)
(0.771665 0.514084 1.88754e-18)
(0.84371 0.568497 0)
(0.741109 0.570321 0)
(0.734759 0.509825 0)
(1.1936 0.674163 9.52411e-19)
(1.13883 0.595938 -2.5333e-18)
(1.14281 0.65053 2.21831e-18)
(1.18798 0.562384 -2.05975e-18)
(1.27891 0.537015 0)
(1.26934 0.601394 -6.63695e-19)
(0.997529 0.412676 -3.58392e-18)
(1.02488 0.394498 -4.63866e-18)
(0.883515 0.397504 2.73637e-18)
(0.833534 0.362759 -2.63979e-18)
(0.92716 0.318601 -2.20582e-18)
(0.845116 0.310369 2.6929e-18)
(1.31956 0.00753682 -2.77673e-18)
(1.32601 0.00835054 5.68554e-18)
(1.24 -0.00155244 3.47756e-18)
(1.24398 -0.00242233 -4.10403e-18)
(1.28012 0.0134774 0)
(1.31126 0.0106305 -6.95565e-18)
(0.0399303 2.3383 2.50748e-19)
(0.0223606 2.34089 0)
(0.0858213 2.32709 2.2334e-18)
(0.0988138 2.34375 -2.02165e-18)
(0.0908579 2.35033 1.03173e-18)
(0.052362 2.3399 0)
(-0.0302514 2.32235 0)
(-0.0339229 2.25807 -1.47179e-19)
(-0.0315137 2.24767 1.31642e-19)
(-0.0279502 2.26677 2.02852e-20)
(-0.0270778 2.29614 -2.29483e-19)
(-0.0241495 2.29356 1.25482e-19)
(0.62998 2.57739 -3.0952e-18)
(0.593356 2.58039 3.3051e-18)
(0.419524 2.35643 -1.68272e-18)
(0.490341 2.59414 1.42835e-19)
(0.610072 1.63186 0)
(0.4977 1.84959 -1.45686e-18)
(0.569266 1.61431 1.41671e-18)
(0.454236 2.10613 1.69458e-18)
(0.578664 2.18358 0)
(0.647022 1.99509 0)
(0.475989 2.27721 3.00771e-18)
(0.453181 1.67072 4.06936e-18)
(0.486032 1.82026 -2.95523e-18)
(0.433691 1.70679 -4.71055e-19)
(0.419807 2.16268 9.74284e-19)
(0.364504 1.89392 -2.40046e-18)
(0.452751 0.98807 -1.94621e-18)
(0.472431 0.921338 0)
(0.348067 0.684482 -1.9581e-18)
(0.720659 1.77512 0)
(0.696163 1.78159 0)
(0.410833 3.04188 -1.55492e-18)
(0.655573 3.38229 -9.36903e-19)
(0.492532 3.45855 1.45489e-18)
(0.153374 1.55362 0)
(0.216483 1.16796 -1.27041e-18)
(0.372808 1.56387 -1.72471e-18)
(0.31647 2.8035 0)
(0.205344 3.3348 9.79248e-19)
(0.0498402 3.19375 0)
(0.842311 0.733327 -3.75145e-18)
(0.946583 0.786816 5.37209e-18)
(0.968215 0.699404 -5.32989e-18)
(0.814715 0.655545 -4.51632e-19)
(0.872489 0.636271 -1.90156e-18)
(0.701778 3.30876 7.71964e-19)
(0.835338 3.21325 -1.53943e-18)
(0.571542 3.04338 3.26614e-18)
(0.553595 2.71507 -2.2853e-18)
(0.826136 2.86601 -2.32721e-18)
(0.845515 3.11604 -3.22019e-19)
(0.902801 3.02859 1.7866e-18)
(0.691393 2.86164 1.48825e-19)
(0.681924 2.68417 1.00805e-18)
)
;

boundaryField
{
    wall-4
    {
        type            noSlip;
    }
    velocity-inlet-5
    {
        type            fixedValue;
        value           uniform (1 0 0);
    }
    velocity-inlet-6
    {
        type            fixedValue;
        value           uniform (0 3 0);
    }
    pressure-outlet-7
    {
        type            zeroGradient;
    }
    wall-8
    {
        type            noSlip;
    }
    frontAndBackPlanes
    {
        type            empty;
    }
}


// ************************************************************************* //
