# vtk DataFile Version 2.0
sampleSurface
ASCII
DATASET POLYDATA
POINTS 502 double
-0.0206 0 -0.0005
-0.0190172 0 -0.0005
-0.0190172 0 0.0005
-0.0206 0 0.0005
-0.0174976 0 -0.0005
-0.0174976 0 0.0005
-0.0160387 0 -0.0005
-0.0160387 0 0.0005
-0.0146381 0 -0.0005
-0.0146381 0 0.0005
-0.0132934 0 -0.0005
-0.0132934 0 0.0005
-0.0120025 0 -0.0005
-0.0120025 0 0.0005
-0.0107632 0 -0.0005
-0.0107632 0 0.0005
-0.00957337 0 -0.0005
-0.00957337 0 0.0005
-0.00843108 0 -0.0005
-0.00843108 0 0.0005
-0.00733443 0 -0.0005
-0.00733443 0 0.0005
-0.0062816 0 -0.0005
-0.0062816 0 0.0005
-0.00527083 0 -0.0005
-0.00527083 0 0.0005
-0.00430044 0 -0.0005
-0.00430044 0 0.0005
-0.00336883 0 -0.0005
-0.00336883 0 0.0005
-0.00247443 0 -0.0005
-0.00247443 0 0.0005
-0.00161577 0 -0.0005
-0.00161577 0 0.0005
-0.000791418 0 -0.0005
-0.000791418 0 0.0005
0 0 -0.0005
0 0 0.0005
0 -0.0254 -0.0005
0 -0.0254 0.0005
0 -0.0242711 0.0005
0 -0.0242711 -0.0005
0 -0.0231422 0.0005
0 -0.0231422 -0.0005
0 -0.0220133 0.0005
0 -0.0220133 -0.0005
0 -0.0208844 0.0005
0 -0.0208844 -0.0005
0 -0.0197556 0.0005
0 -0.0197556 -0.0005
0 -0.0186267 0.0005
0 -0.0186267 -0.0005
0 -0.0174978 0.0005
0 -0.0174978 -0.0005
0 -0.0163689 0.0005
0 -0.0163689 -0.0005
0 -0.01524 0.0005
0 -0.01524 -0.0005
0 -0.0141111 0.0005
0 -0.0141111 -0.0005
0 -0.0129822 0.0005
0 -0.0129822 -0.0005
0 -0.0118533 0.0005
0 -0.0118533 -0.0005
0 -0.0107244 0.0005
0 -0.0107244 -0.0005
0 -0.00959556 0.0005
0 -0.00959556 -0.0005
0 -0.00846667 0.0005
0 -0.00846667 -0.0005
0 -0.00726604 0.0005
0 -0.00726604 -0.0005
0 -0.00618989 0.0005
0 -0.00618989 -0.0005
0 -0.00522531 0.0005
0 -0.00522531 -0.0005
0 -0.00436073 0.0005
0 -0.00436073 -0.0005
0 -0.00358579 0.0005
0 -0.00358579 -0.0005
0 -0.00289118 0.0005
0 -0.00289118 -0.0005
0 -0.0022686 0.0005
0 -0.0022686 -0.0005
0 -0.00171055 0.0005
0 -0.00171055 -0.0005
0 -0.00121037 0.0005
0 -0.00121037 -0.0005
0 -0.000762037 0.0005
0 -0.000762037 -0.0005
0 -0.000360188 0.0005
0 -0.000360188 -0.0005
0.000528387 -0.0254 -0.0005
0.000528387 -0.0254 0.0005
0.00106088 -0.0254 -0.0005
0.00106088 -0.0254 0.0005
0.00159752 -0.0254 -0.0005
0.00159752 -0.0254 0.0005
0.00213833 -0.0254 -0.0005
0.00213833 -0.0254 0.0005
0.00268334 -0.0254 -0.0005
0.00268334 -0.0254 0.0005
0.00323259 -0.0254 -0.0005
0.00323259 -0.0254 0.0005
0.00378611 -0.0254 -0.0005
0.00378611 -0.0254 0.0005
0.00434393 -0.0254 -0.0005
0.00434393 -0.0254 0.0005
0.00490609 -0.0254 -0.0005
0.00490609 -0.0254 0.0005
0.00547262 -0.0254 -0.0005
0.00547262 -0.0254 0.0005
0.00604356 -0.0254 -0.0005
0.00604356 -0.0254 0.0005
0.00661893 -0.0254 -0.0005
0.00661893 -0.0254 0.0005
0.00719878 -0.0254 -0.0005
0.00719878 -0.0254 0.0005
0.00778313 -0.0254 -0.0005
0.00778313 -0.0254 0.0005
0.00837203 -0.0254 -0.0005
0.00837203 -0.0254 0.0005
0.00896551 -0.0254 -0.0005
0.00896551 -0.0254 0.0005
0.0095636 -0.0254 -0.0005
0.0095636 -0.0254 0.0005
0.0101663 -0.0254 -0.0005
0.0101663 -0.0254 0.0005
0.0107738 -0.0254 -0.0005
0.0107738 -0.0254 0.0005
0.0113859 -0.0254 -0.0005
0.0113859 -0.0254 0.0005
0.0120028 -0.0254 -0.0005
0.0120028 -0.0254 0.0005
0.0126245 -0.0254 -0.0005
0.0126245 -0.0254 0.0005
0.0132511 -0.0254 -0.0005
0.0132511 -0.0254 0.0005
0.0138825 -0.0254 -0.0005
0.0138825 -0.0254 0.0005
0.0145188 -0.0254 -0.0005
0.0145188 -0.0254 0.0005
0.0151601 -0.0254 -0.0005
0.0151601 -0.0254 0.0005
0.0158063 -0.0254 -0.0005
0.0158063 -0.0254 0.0005
0.0164576 -0.0254 -0.0005
0.0164576 -0.0254 0.0005
0.0171139 -0.0254 -0.0005
0.0171139 -0.0254 0.0005
0.0177754 -0.0254 -0.0005
0.0177754 -0.0254 0.0005
0.018442 -0.0254 -0.0005
0.018442 -0.0254 0.0005
0.0191137 -0.0254 -0.0005
0.0191137 -0.0254 0.0005
0.0197907 -0.0254 -0.0005
0.0197907 -0.0254 0.0005
0.020473 -0.0254 -0.0005
0.020473 -0.0254 0.0005
0.0211606 -0.0254 -0.0005
0.0211606 -0.0254 0.0005
0.0218535 -0.0254 -0.0005
0.0218535 -0.0254 0.0005
0.0225517 -0.0254 -0.0005
0.0225517 -0.0254 0.0005
0.0232555 -0.0254 -0.0005
0.0232555 -0.0254 0.0005
0.0239647 -0.0254 -0.0005
0.0239647 -0.0254 0.0005
0.0246794 -0.0254 -0.0005
0.0246794 -0.0254 0.0005
0.0253996 -0.0254 -0.0005
0.0253996 -0.0254 0.0005
0.0261255 -0.0254 -0.0005
0.0261255 -0.0254 0.0005
0.026857 -0.0254 -0.0005
0.026857 -0.0254 0.0005
0.0275942 -0.0254 -0.0005
0.0275942 -0.0254 0.0005
0.0283371 -0.0254 -0.0005
0.0283371 -0.0254 0.0005
0.0290858 -0.0254 -0.0005
0.0290858 -0.0254 0.0005
0.0298403 -0.0254 -0.0005
0.0298403 -0.0254 0.0005
0.0306007 -0.0254 -0.0005
0.0306007 -0.0254 0.0005
0.031367 -0.0254 -0.0005
0.031367 -0.0254 0.0005
0.0321393 -0.0254 -0.0005
0.0321393 -0.0254 0.0005
0.0329175 -0.0254 -0.0005
0.0329175 -0.0254 0.0005
0.0337019 -0.0254 -0.0005
0.0337019 -0.0254 0.0005
0.0344923 -0.0254 -0.0005
0.0344923 -0.0254 0.0005
0.0352888 -0.0254 -0.0005
0.0352888 -0.0254 0.0005
0.0360916 -0.0254 -0.0005
0.0360916 -0.0254 0.0005
0.0369006 -0.0254 -0.0005
0.0369006 -0.0254 0.0005
0.0377158 -0.0254 -0.0005
0.0377158 -0.0254 0.0005
0.0385375 -0.0254 -0.0005
0.0385375 -0.0254 0.0005
0.0393655 -0.0254 -0.0005
0.0393655 -0.0254 0.0005
0.0401999 -0.0254 -0.0005
0.0401999 -0.0254 0.0005
0.0410408 -0.0254 -0.0005
0.0410408 -0.0254 0.0005
0.0418883 -0.0254 -0.0005
0.0418883 -0.0254 0.0005
0.0427424 -0.0254 -0.0005
0.0427424 -0.0254 0.0005
0.0436031 -0.0254 -0.0005
0.0436031 -0.0254 0.0005
0.0444704 -0.0254 -0.0005
0.0444704 -0.0254 0.0005
0.0453446 -0.0254 -0.0005
0.0453446 -0.0254 0.0005
0.0462255 -0.0254 -0.0005
0.0462255 -0.0254 0.0005
0.0471133 -0.0254 -0.0005
0.0471133 -0.0254 0.0005
0.048008 -0.0254 -0.0005
0.048008 -0.0254 0.0005
0.0489096 -0.0254 -0.0005
0.0489096 -0.0254 0.0005
0.0498183 -0.0254 -0.0005
0.0498183 -0.0254 0.0005
0.050734 -0.0254 -0.0005
0.050734 -0.0254 0.0005
0.0516568 -0.0254 -0.0005
0.0516568 -0.0254 0.0005
0.0525868 -0.0254 -0.0005
0.0525868 -0.0254 0.0005
0.053524 -0.0254 -0.0005
0.053524 -0.0254 0.0005
0.0544686 -0.0254 -0.0005
0.0544686 -0.0254 0.0005
0.0554204 -0.0254 -0.0005
0.0554204 -0.0254 0.0005
0.0563797 -0.0254 -0.0005
0.0563797 -0.0254 0.0005
0.0573464 -0.0254 -0.0005
0.0573464 -0.0254 0.0005
0.0583206 -0.0254 -0.0005
0.0583206 -0.0254 0.0005
0.0593025 -0.0254 -0.0005
0.0593025 -0.0254 0.0005
0.0602919 -0.0254 -0.0005
0.0602919 -0.0254 0.0005
0.0612891 -0.0254 -0.0005
0.0612891 -0.0254 0.0005
0.0622939 -0.0254 -0.0005
0.0622939 -0.0254 0.0005
0.0633067 -0.0254 -0.0005
0.0633067 -0.0254 0.0005
0.0643272 -0.0254 -0.0005
0.0643272 -0.0254 0.0005
0.0653557 -0.0254 -0.0005
0.0653557 -0.0254 0.0005
0.0663923 -0.0254 -0.0005
0.0663923 -0.0254 0.0005
0.0674368 -0.0254 -0.0005
0.0674368 -0.0254 0.0005
0.0684895 -0.0254 -0.0005
0.0684895 -0.0254 0.0005
0.0695504 -0.0254 -0.0005
0.0695504 -0.0254 0.0005
0.0706195 -0.0254 -0.0005
0.0706195 -0.0254 0.0005
0.0716969 -0.0254 -0.0005
0.0716969 -0.0254 0.0005
0.0727828 -0.0254 -0.0005
0.0727828 -0.0254 0.0005
0.073877 -0.0254 -0.0005
0.073877 -0.0254 0.0005
0.0749798 -0.0254 -0.0005
0.0749798 -0.0254 0.0005
0.0760911 -0.0254 -0.0005
0.0760911 -0.0254 0.0005
0.0772111 -0.0254 -0.0005
0.0772111 -0.0254 0.0005
0.0783398 -0.0254 -0.0005
0.0783398 -0.0254 0.0005
0.0794772 -0.0254 -0.0005
0.0794772 -0.0254 0.0005
0.0806235 -0.0254 -0.0005
0.0806235 -0.0254 0.0005
0.0817787 -0.0254 -0.0005
0.0817787 -0.0254 0.0005
0.0829429 -0.0254 -0.0005
0.0829429 -0.0254 0.0005
0.0841162 -0.0254 -0.0005
0.0841162 -0.0254 0.0005
0.0852985 -0.0254 -0.0005
0.0852985 -0.0254 0.0005
0.0864901 -0.0254 -0.0005
0.0864901 -0.0254 0.0005
0.0876909 -0.0254 -0.0005
0.0876909 -0.0254 0.0005
0.0889011 -0.0254 -0.0005
0.0889011 -0.0254 0.0005
0.0901207 -0.0254 -0.0005
0.0901207 -0.0254 0.0005
0.0913497 -0.0254 -0.0005
0.0913497 -0.0254 0.0005
0.0925883 -0.0254 -0.0005
0.0925883 -0.0254 0.0005
0.0938366 -0.0254 -0.0005
0.0938366 -0.0254 0.0005
0.0950945 -0.0254 -0.0005
0.0950945 -0.0254 0.0005
0.0963622 -0.0254 -0.0005
0.0963622 -0.0254 0.0005
0.0976398 -0.0254 -0.0005
0.0976398 -0.0254 0.0005
0.0989273 -0.0254 -0.0005
0.0989273 -0.0254 0.0005
0.100225 -0.0254 -0.0005
0.100225 -0.0254 0.0005
0.101532 -0.0254 -0.0005
0.101532 -0.0254 0.0005
0.10285 -0.0254 -0.0005
0.10285 -0.0254 0.0005
0.104178 -0.0254 -0.0005
0.104178 -0.0254 0.0005
0.105517 -0.0254 -0.0005
0.105517 -0.0254 0.0005
0.106865 -0.0254 -0.0005
0.106865 -0.0254 0.0005
0.108225 -0.0254 -0.0005
0.108225 -0.0254 0.0005
0.109594 -0.0254 -0.0005
0.109594 -0.0254 0.0005
0.110975 -0.0254 -0.0005
0.110975 -0.0254 0.0005
0.112366 -0.0254 -0.0005
0.112366 -0.0254 0.0005
0.113768 -0.0254 -0.0005
0.113768 -0.0254 0.0005
0.115181 -0.0254 -0.0005
0.115181 -0.0254 0.0005
0.116605 -0.0254 -0.0005
0.116605 -0.0254 0.0005
0.11804 -0.0254 -0.0005
0.11804 -0.0254 0.0005
0.119486 -0.0254 -0.0005
0.119486 -0.0254 0.0005
0.120943 -0.0254 -0.0005
0.120943 -0.0254 0.0005
0.122412 -0.0254 -0.0005
0.122412 -0.0254 0.0005
0.123892 -0.0254 -0.0005
0.123892 -0.0254 0.0005
0.125384 -0.0254 -0.0005
0.125384 -0.0254 0.0005
0.126887 -0.0254 -0.0005
0.126887 -0.0254 0.0005
0.128402 -0.0254 -0.0005
0.128402 -0.0254 0.0005
0.129928 -0.0254 -0.0005
0.129928 -0.0254 0.0005
0.131467 -0.0254 -0.0005
0.131467 -0.0254 0.0005
0.133017 -0.0254 -0.0005
0.133017 -0.0254 0.0005
0.13458 -0.0254 -0.0005
0.13458 -0.0254 0.0005
0.136155 -0.0254 -0.0005
0.136155 -0.0254 0.0005
0.137742 -0.0254 -0.0005
0.137742 -0.0254 0.0005
0.139341 -0.0254 -0.0005
0.139341 -0.0254 0.0005
0.140953 -0.0254 -0.0005
0.140953 -0.0254 0.0005
0.142577 -0.0254 -0.0005
0.142577 -0.0254 0.0005
0.144214 -0.0254 -0.0005
0.144214 -0.0254 0.0005
0.145863 -0.0254 -0.0005
0.145863 -0.0254 0.0005
0.147526 -0.0254 -0.0005
0.147526 -0.0254 0.0005
0.149201 -0.0254 -0.0005
0.149201 -0.0254 0.0005
0.15089 -0.0254 -0.0005
0.15089 -0.0254 0.0005
0.152591 -0.0254 -0.0005
0.152591 -0.0254 0.0005
0.154306 -0.0254 -0.0005
0.154306 -0.0254 0.0005
0.156034 -0.0254 -0.0005
0.156034 -0.0254 0.0005
0.157775 -0.0254 -0.0005
0.157775 -0.0254 0.0005
0.159531 -0.0254 -0.0005
0.159531 -0.0254 0.0005
0.161299 -0.0254 -0.0005
0.161299 -0.0254 0.0005
0.163082 -0.0254 -0.0005
0.163082 -0.0254 0.0005
0.164878 -0.0254 -0.0005
0.164878 -0.0254 0.0005
0.166688 -0.0254 -0.0005
0.166688 -0.0254 0.0005
0.168513 -0.0254 -0.0005
0.168513 -0.0254 0.0005
0.170351 -0.0254 -0.0005
0.170351 -0.0254 0.0005
0.172204 -0.0254 -0.0005
0.172204 -0.0254 0.0005
0.174071 -0.0254 -0.0005
0.174071 -0.0254 0.0005
0.175953 -0.0254 -0.0005
0.175953 -0.0254 0.0005
0.177849 -0.0254 -0.0005
0.177849 -0.0254 0.0005
0.17976 -0.0254 -0.0005
0.17976 -0.0254 0.0005
0.181686 -0.0254 -0.0005
0.181686 -0.0254 0.0005
0.183627 -0.0254 -0.0005
0.183627 -0.0254 0.0005
0.185583 -0.0254 -0.0005
0.185583 -0.0254 0.0005
0.187555 -0.0254 -0.0005
0.187555 -0.0254 0.0005
0.189541 -0.0254 -0.0005
0.189541 -0.0254 0.0005
0.191543 -0.0254 -0.0005
0.191543 -0.0254 0.0005
0.193561 -0.0254 -0.0005
0.193561 -0.0254 0.0005
0.195594 -0.0254 -0.0005
0.195594 -0.0254 0.0005
0.197643 -0.0254 -0.0005
0.197643 -0.0254 0.0005
0.199708 -0.0254 -0.0005
0.199708 -0.0254 0.0005
0.201789 -0.0254 -0.0005
0.201789 -0.0254 0.0005
0.203886 -0.0254 -0.0005
0.203886 -0.0254 0.0005
0.206 -0.0254 -0.0005
0.206 -0.0254 0.0005
0.208047 -0.0251856 -0.0005
0.208047 -0.0251856 0.0005
0.210173 -0.0249628 -0.0005
0.210173 -0.0249628 0.0005
0.212382 -0.0247314 -0.0005
0.212382 -0.0247314 0.0005
0.214677 -0.024491 -0.0005
0.214677 -0.024491 0.0005
0.217061 -0.0242412 -0.0005
0.217061 -0.0242412 0.0005
0.219538 -0.0239817 -0.0005
0.219538 -0.0239817 0.0005
0.222112 -0.0237121 -0.0005
0.222112 -0.0237121 0.0005
0.224785 -0.023432 -0.0005
0.224785 -0.023432 0.0005
0.227563 -0.023141 -0.0005
0.227563 -0.023141 0.0005
0.230449 -0.0228387 -0.0005
0.230449 -0.0228387 0.0005
0.233447 -0.0225246 -0.0005
0.233447 -0.0225246 0.0005
0.236562 -0.0221983 -0.0005
0.236562 -0.0221983 0.0005
0.239797 -0.0218593 -0.0005
0.239797 -0.0218593 0.0005
0.243159 -0.0215071 -0.0005
0.243159 -0.0215071 0.0005
0.246652 -0.0211412 -0.0005
0.246652 -0.0211412 0.0005
0.250281 -0.0207611 -0.0005
0.250281 -0.0207611 0.0005
0.254051 -0.0203661 -0.0005
0.254051 -0.0203661 0.0005
0.257967 -0.0199558 -0.0005
0.257967 -0.0199558 0.0005
0.262036 -0.0195295 -0.0005
0.262036 -0.0195295 0.0005
0.266264 -0.0190867 -0.0005
0.266264 -0.0190867 0.0005
0.270655 -0.0186266 -0.0005
0.270655 -0.0186266 0.0005
0.275218 -0.0181486 -0.0005
0.275218 -0.0181486 0.0005
0.279959 -0.017652 -0.0005
0.279959 -0.017652 0.0005
0.284883 -0.017136 -0.0005
0.284883 -0.017136 0.0005
0.29 -0.0166 -0.0005
0.29 -0.0166 0.0005

POLYGONS 250 1250
4 0 1 2 3
4 1 4 5 2
4 4 6 7 5
4 6 8 9 7
4 8 10 11 9
4 10 12 13 11
4 12 14 15 13
4 14 16 17 15
4 16 18 19 17
4 18 20 21 19
4 20 22 23 21
4 22 24 25 23
4 24 26 27 25
4 26 28 29 27
4 28 30 31 29
4 30 32 33 31
4 32 34 35 33
4 34 36 37 35
4 38 39 40 41
4 41 40 42 43
4 43 42 44 45
4 45 44 46 47
4 47 46 48 49
4 49 48 50 51
4 51 50 52 53
4 53 52 54 55
4 55 54 56 57
4 57 56 58 59
4 59 58 60 61
4 61 60 62 63
4 63 62 64 65
4 65 64 66 67
4 67 66 68 69
4 69 68 70 71
4 71 70 72 73
4 73 72 74 75
4 75 74 76 77
4 77 76 78 79
4 79 78 80 81
4 81 80 82 83
4 83 82 84 85
4 85 84 86 87
4 87 86 88 89
4 89 88 90 91
4 91 90 37 36
4 38 92 93 39
4 92 94 95 93
4 94 96 97 95
4 96 98 99 97
4 98 100 101 99
4 100 102 103 101
4 102 104 105 103
4 104 106 107 105
4 106 108 109 107
4 108 110 111 109
4 110 112 113 111
4 112 114 115 113
4 114 116 117 115
4 116 118 119 117
4 118 120 121 119
4 120 122 123 121
4 122 124 125 123
4 124 126 127 125
4 126 128 129 127
4 128 130 131 129
4 130 132 133 131
4 132 134 135 133
4 134 136 137 135
4 136 138 139 137
4 138 140 141 139
4 140 142 143 141
4 142 144 145 143
4 144 146 147 145
4 146 148 149 147
4 148 150 151 149
4 150 152 153 151
4 152 154 155 153
4 154 156 157 155
4 156 158 159 157
4 158 160 161 159
4 160 162 163 161
4 162 164 165 163
4 164 166 167 165
4 166 168 169 167
4 168 170 171 169
4 170 172 173 171
4 172 174 175 173
4 174 176 177 175
4 176 178 179 177
4 178 180 181 179
4 180 182 183 181
4 182 184 185 183
4 184 186 187 185
4 186 188 189 187
4 188 190 191 189
4 190 192 193 191
4 192 194 195 193
4 194 196 197 195
4 196 198 199 197
4 198 200 201 199
4 200 202 203 201
4 202 204 205 203
4 204 206 207 205
4 206 208 209 207
4 208 210 211 209
4 210 212 213 211
4 212 214 215 213
4 214 216 217 215
4 216 218 219 217
4 218 220 221 219
4 220 222 223 221
4 222 224 225 223
4 224 226 227 225
4 226 228 229 227
4 228 230 231 229
4 230 232 233 231
4 232 234 235 233
4 234 236 237 235
4 236 238 239 237
4 238 240 241 239
4 240 242 243 241
4 242 244 245 243
4 244 246 247 245
4 246 248 249 247
4 248 250 251 249
4 250 252 253 251
4 252 254 255 253
4 254 256 257 255
4 256 258 259 257
4 258 260 261 259
4 260 262 263 261
4 262 264 265 263
4 264 266 267 265
4 266 268 269 267
4 268 270 271 269
4 270 272 273 271
4 272 274 275 273
4 274 276 277 275
4 276 278 279 277
4 278 280 281 279
4 280 282 283 281
4 282 284 285 283
4 284 286 287 285
4 286 288 289 287
4 288 290 291 289
4 290 292 293 291
4 292 294 295 293
4 294 296 297 295
4 296 298 299 297
4 298 300 301 299
4 300 302 303 301
4 302 304 305 303
4 304 306 307 305
4 306 308 309 307
4 308 310 311 309
4 310 312 313 311
4 312 314 315 313
4 314 316 317 315
4 316 318 319 317
4 318 320 321 319
4 320 322 323 321
4 322 324 325 323
4 324 326 327 325
4 326 328 329 327
4 328 330 331 329
4 330 332 333 331
4 332 334 335 333
4 334 336 337 335
4 336 338 339 337
4 338 340 341 339
4 340 342 343 341
4 342 344 345 343
4 344 346 347 345
4 346 348 349 347
4 348 350 351 349
4 350 352 353 351
4 352 354 355 353
4 354 356 357 355
4 356 358 359 357
4 358 360 361 359
4 360 362 363 361
4 362 364 365 363
4 364 366 367 365
4 366 368 369 367
4 368 370 371 369
4 370 372 373 371
4 372 374 375 373
4 374 376 377 375
4 376 378 379 377
4 378 380 381 379
4 380 382 383 381
4 382 384 385 383
4 384 386 387 385
4 386 388 389 387
4 388 390 391 389
4 390 392 393 391
4 392 394 395 393
4 394 396 397 395
4 396 398 399 397
4 398 400 401 399
4 400 402 403 401
4 402 404 405 403
4 404 406 407 405
4 406 408 409 407
4 408 410 411 409
4 410 412 413 411
4 412 414 415 413
4 414 416 417 415
4 416 418 419 417
4 418 420 421 419
4 420 422 423 421
4 422 424 425 423
4 424 426 427 425
4 426 428 429 427
4 428 430 431 429
4 430 432 433 431
4 432 434 435 433
4 434 436 437 435
4 436 438 439 437
4 438 440 441 439
4 440 442 443 441
4 442 444 445 443
4 444 446 447 445
4 446 448 449 447
4 448 450 451 449
4 450 452 453 451
4 452 454 455 453
4 454 456 457 455
4 456 458 459 457
4 458 460 461 459
4 460 462 463 461
4 462 464 465 463
4 464 466 467 465
4 466 468 469 467
4 468 470 471 469
4 470 472 473 471
4 472 474 475 473
4 474 476 477 475
4 476 478 479 477
4 478 480 481 479
4 480 482 483 481
4 482 484 485 483
4 484 486 487 485
4 486 488 489 487
4 488 490 491 489
4 490 492 493 491
4 492 494 495 493
4 494 496 497 495
4 496 498 499 497
4 498 500 501 499
POINT_DATA 502
FIELD attributes 1
U 3 502 float
1.624 0.116456 0.033098
0.813197 0.0577784 0.0163107
0.813197 0.0577784 0.0163107
1.624 0.116456 0.033098
0.0238874 0.000673205 0
0.0238874 0.000673205 0
0.0213204 0.000537383 0
0.0213204 0.000537383 0
0.019245 0.000458818 0
0.019245 0.000458818 0
0.0172717 0.000399709 0
0.0172717 0.000399709 0
0.0153269 0.000369996 0
0.0153269 0.000369996 0
0.0133404 0.000358446 0
0.0133404 0.000358446 0
0.0113618 0.000319633 0
0.0113618 0.000319633 0
0.00955244 0.000242554 0
0.00955244 0.000242554 0
0.0080159 0.000161793 0
0.0080159 0.000161793 0
0.00674568 0.00010896 0
0.00674568 0.00010896 0
0.00568132 8.37533e-05 0
0.00568132 8.37533e-05 0
0.00478099 6.92308e-05 0
0.00478099 6.92308e-05 0
0.00399284 5.23987e-05 0
0.00399284 5.23987e-05 0
0.0033245 3.53565e-05 0
0.0033245 3.53565e-05 0
0.00268421 2.12787e-05 0
0.00268421 2.12787e-05 0
0.00209815 -1.65352e-05 0
0.00209815 -1.65352e-05 0
0.00093531 0.000288981 0
0.00093531 0.000288981 0
-9.16172e-05 0.000174922 2.08845e-23
-9.16172e-05 0.000174922 2.08845e-23
-0.000118133 0.000512714 -5.6435e-23
-0.000118133 0.000512714 -5.6435e-23
-0.000117079 0.000862805 -6.68472e-23
-0.000117079 0.000862805 -6.68472e-23
-2.12271e-05 0.000635816 1.33624e-22
-2.12271e-05 0.000635816 1.33624e-22
0.000152421 -0.000169954 4.45696e-23
0.000152421 -0.000169954 4.45696e-23
0.000325892 -0.00154947 -8.90239e-23
0.000325892 -0.00154947 -8.90239e-23
0.000396299 -0.00318451 0
0.000396299 -0.00318451 0
0.000357338 -0.00465663 -1.76984e-22
0.000357338 -0.00465663 -1.76984e-22
0.000264837 -0.00574325 -4.76909e-26
0.000264837 -0.00574325 -4.76909e-26
0.000164141 -0.00641404 1.76936e-22
0.000164141 -0.00641404 1.76936e-22
6.83843e-05 -0.00670076 -1.7846e-22
6.83843e-05 -0.00670076 -1.7846e-22
-1.86693e-05 -0.00664684 2.98974e-27
-1.86693e-05 -0.00664684 2.98974e-27
-9.25319e-05 -0.00631328 1.78463e-22
-9.25319e-05 -0.00631328 1.78463e-22
-0.000152609 -0.00576482 1.82772e-22
-0.000152609 -0.00576482 1.82772e-22
-0.000193887 -0.00508039 -6.37571e-26
-0.000193887 -0.00508039 -6.37571e-26
-0.000194818 -0.00438638 -1.86076e-22
-0.000194818 -0.00438638 -1.86076e-22
-0.000111372 -0.00385794 0
-0.000111372 -0.00385794 0
4.06143e-05 -0.0037532 0
4.06143e-05 -0.0037532 0
0.000109351 -0.0039269 0
0.000109351 -0.0039269 0
-5.88868e-06 -0.00385474 0
-5.88868e-06 -0.00385474 0
-0.000156643 -0.00336905 0
-0.000156643 -0.00336905 0
-0.000229313 -0.00274926 0
-0.000229313 -0.00274926 0
-0.000295161 -0.00208093 0
-0.000295161 -0.00208093 0
-0.000367549 -0.00135537 0
-0.000367549 -0.00135537 0
-0.000396057 -0.000611411 0
-0.000396057 -0.000611411 0
-0.000260426 6.48539e-05 0
-0.000260426 6.48539e-05 0
1.90063e-05 0.000465805 0
1.90063e-05 0.000465805 0
-0.000141576 0.000122328 8.72187e-26
-0.000141576 0.000122328 8.72187e-26
-0.000157398 -2.39943e-05 -1.03817e-23
-0.000157398 -2.39943e-05 -1.03817e-23
-2.05286e-05 -0.000177213 0
-2.05286e-05 -0.000177213 0
0.000224499 -0.000270029 0
0.000224499 -0.000270029 0
0.000521539 -0.000316985 1.00734e-23
0.000521539 -0.000316985 1.00734e-23
0.000835684 -0.00033162 1.00915e-23
0.000835684 -0.00033162 1.00915e-23
0.00115334 -0.000326723 0
0.00115334 -0.000326723 0
0.00146373 -0.000311408 0
0.00146373 -0.000311408 0
0.00175993 -0.000290747 0
0.00175993 -0.000290747 0
0.00203838 -0.000266987 -9.62536e-24
0.00203838 -0.000266987 -9.62536e-24
0.00229665 -0.00024074 -9.64371e-24
0.00229665 -0.00024074 -9.64371e-24
0.002532 -0.000211868 0
0.002532 -0.000211868 0
0.00274129 -0.00018014 0
0.00274129 -0.00018014 0
0.00292063 -0.000145353 0
0.00292063 -0.000145353 0
0.00306621 -0.000107514 -9.16327e-24
0.00306621 -0.000107514 -9.16327e-24
0.00317372 -6.67886e-05 -9.18177e-24
0.00317372 -6.67886e-05 -9.18177e-24
0.00324026 -2.31869e-05 0
0.00324026 -2.31869e-05 0
0.00326318 2.26694e-05 0
0.00326318 2.26694e-05 0
0.00323857 7.03836e-05 0
0.00323857 7.03836e-05 0
0.00316569 0.000118095 0
0.00316569 0.000118095 0
0.00304531 0.000164812 0
0.00304531 0.000164812 0
0.00288052 0.000209265 0
0.00288052 0.000209265 0
0.00267313 0.000250311 -8.63648e-24
0.00267313 0.000250311 -8.63648e-24
0.00242706 0.000289224 -7.00411e-26
0.00242706 0.000289224 -7.00411e-26
0.00214591 0.000323599 7.03373e-26
0.00214591 0.000323599 7.03373e-26
0.00183018 0.0003554 -1.70354e-23
0.00183018 0.0003554 -1.70354e-23
0.00148936 0.000378583 -8.5011e-24
0.00148936 0.000378583 -8.5011e-24
0.00111417 0.000400064 0
0.00111417 0.000400064 0
0.00072062 0.000365951 8.30344e-24
0.00072062 0.000365951 8.30344e-24
0.000392661 0.000177663 1.65608e-23
0.000392661 0.000177663 1.65608e-23
0.0001744 -5.27755e-05 8.25743e-24
0.0001744 -5.27755e-05 8.25743e-24
4.44592e-05 -0.000158144 0
4.44592e-05 -0.000158144 0
4.92644e-05 -0.000161966 8.04293e-24
4.92644e-05 -0.000161966 8.04293e-24
0.000196163 -0.000134507 8.06274e-24
0.000196163 -0.000134507 8.06274e-24
0.000376901 -0.000107725 0
0.000376901 -0.000107725 0
0.000601365 -8.11918e-05 -7.84077e-24
0.000601365 -8.11918e-05 -7.84077e-24
0.000918916 -0.000111401 -7.8607e-24
0.000918916 -0.000111401 -7.8607e-24
0.00118168 -0.000486808 -7.71743e-24
0.00118168 -0.000486808 -7.71743e-24
0.00127895 -0.001004 -2.30183e-23
0.00127895 -0.001004 -2.30183e-23
0.00124476 -0.000920412 -1.53209e-23
0.00124476 -0.000920412 -1.53209e-23
0.000875244 -0.000127306 0
0.000875244 -0.000127306 0
7.66053e-06 0.00066875 0
7.66053e-06 0.00066875 0
-0.00105859 0.000932941 0
-0.00105859 0.000932941 0
-0.0020439 0.000859107 0
-0.0020439 0.000859107 0
-0.00291809 0.000742287 -1.42701e-23
-0.00291809 0.000742287 -1.42701e-23
-0.00369142 0.000643285 -2.83054e-23
-0.00369142 0.000643285 -2.83054e-23
-0.00437929 0.000561096 -2.77493e-23
-0.00437929 0.000561096 -2.77493e-23
-0.0049968 0.000495029 -1.37534e-23
-0.0049968 0.000495029 -1.37534e-23
-0.00555696 0.000442896 1.31585e-23
-0.00555696 0.000442896 1.31585e-23
-0.00607009 0.000401793 1.31967e-23
-0.00607009 0.000401793 1.31967e-23
-0.00654329 0.000368598 -1.26359e-23
-0.00654329 0.000368598 -1.26359e-23
-0.00698039 0.000339883 -2.5066e-23
-0.00698039 0.000339883 -2.5066e-23
-0.007382 0.000312314 -1.24298e-23
-0.007382 0.000312314 -1.24298e-23
-0.00774587 0.000282905 0
-0.00774587 0.000282905 0
-0.00806744 0.000249458 0
-0.00806744 0.000249458 0
-0.00834072 0.000210907 -1.15801e-23
-0.00834072 0.000210907 -1.15801e-23
-0.00855967 0.000167558 -1.1616e-23
-0.00855967 0.000167558 -1.1616e-23
-0.0087201 0.000121199 0
-0.0087201 0.000121199 0
-0.00882083 7.5126e-05 0
-0.00882083 7.5126e-05 0
-0.00886311 3.33335e-05 0
-0.00886311 3.33335e-05 0
-0.00885216 -1.56405e-06 0
-0.00885216 -1.56405e-06 0
-0.00879868 -2.96947e-05 0
-0.00879868 -2.96947e-05 0
-0.00871077 -5.16619e-05 0
-0.00871077 -5.16619e-05 0
-0.00859533 -6.74667e-05 0
-0.00859533 -6.74667e-05 0
-0.00846098 -7.80243e-05 1.07493e-23
-0.00846098 -7.80243e-05 1.07493e-23
-0.0083139 -8.43377e-05 1.07854e-23
-0.0083139 -8.43377e-05 1.07854e-23
-0.00815958 -8.7271e-05 0
-0.00815958 -8.7271e-05 0
-0.00800191 -8.79176e-05 -1.06439e-23
-0.00800191 -8.79176e-05 -1.06439e-23
-0.00784331 -8.7127e-05 -2.12946e-23
-0.00784331 -8.7127e-05 -2.12946e-23
-0.00768519 -8.56183e-05 -1.06509e-23
-0.00768519 -8.56183e-05 -1.06509e-23
-0.00752793 -8.39367e-05 1.05579e-23
-0.00752793 -8.39367e-05 1.05579e-23
-0.00737134 -8.24541e-05 6.43321e-26
-0.00737134 -8.24541e-05 6.43321e-26
-0.00721483 -8.14399e-05 -1.05685e-23
-0.00721483 -8.14399e-05 -1.05685e-23
-0.0070574 -8.10777e-05 1.04782e-23
-0.0070574 -8.10777e-05 1.04782e-23
-0.00689778 -8.14868e-05 1.05162e-23
-0.00689778 -8.14868e-05 1.05162e-23
-0.00673452 -8.26976e-05 0
-0.00673452 -8.26976e-05 0
-0.00656624 -8.46552e-05 -1.04023e-23
-0.00656624 -8.46552e-05 -1.04023e-23
-0.00639178 -8.72689e-05 -1.0441e-23
-0.00639178 -8.72689e-05 -1.0441e-23
-0.00621004 -9.04798e-05 1.03551e-23
-0.00621004 -9.04798e-05 1.03551e-23
-0.00601988 -9.42805e-05 1.03942e-23
-0.00601988 -9.42805e-05 1.03942e-23
-0.00582016 -9.86918e-05 -1.03118e-23
-0.00582016 -9.86918e-05 -1.03118e-23
-0.00560956 -0.000103743 -2.06432e-23
-0.00560956 -0.000103743 -2.06432e-23
-0.00538669 -0.000109436 -2.06047e-23
-0.00538669 -0.000109436 -2.06047e-23
-0.00515016 -0.000115688 -3.08235e-23
-0.00515016 -0.000115688 -3.08235e-23
-0.00489885 -0.00012232 -1.14985e-25
-0.00489885 -0.00012232 -1.14985e-25
-0.00463203 -0.000129081 2.0557e-23
-0.00463203 -0.000129081 2.0557e-23
-0.00434948 -0.000135642 0
-0.00434948 -0.000135642 0
-0.00405176 -0.000141603 0
-0.00405176 -0.000141603 0
-0.00374028 -0.000146571 2.03253e-23
-0.00374028 -0.000146571 2.03253e-23
-0.00341714 -0.000150231 4.06837e-23
-0.00341714 -0.000150231 4.06837e-23
-0.00308507 -0.000152367 1.41508e-25
-0.00308507 -0.000152367 1.41508e-25
-0.00274706 -0.000152908 -2.0301e-23
-0.00274706 -0.000152908 -2.0301e-23
-0.00240613 -0.000151919 2.00707e-23
-0.00240613 -0.000151919 2.00707e-23
-0.00206501 -0.000149587 4.01358e-23
-0.00206501 -0.000149587 4.01358e-23
-0.00172602 -0.000146155 3.99454e-23
-0.00172602 -0.000146155 3.99454e-23
-0.0013911 -0.000141869 1.99647e-23
-0.0013911 -0.000141869 1.99647e-23
-0.00106188 -0.000136926 0
-0.00106188 -0.000136926 0
-0.000739716 -0.00013128 0
-0.000739716 -0.00013128 0
-0.000426036 -0.000124965 1.93721e-23
-0.000426036 -0.000124965 1.93721e-23
-0.000123204 -0.000118166 1.9457e-23
-0.000123204 -0.000118166 1.9457e-23
0.000166548 -0.000110506 0
0.000166548 -0.000110506 0
0.000442003 -0.000101817 -1.88778e-23
0.000442003 -0.000101817 -1.88778e-23
0.000701254 -9.23865e-05 -1.89621e-23
0.000701254 -9.23865e-05 -1.89621e-23
0.000942114 -8.23959e-05 0
0.000942114 -8.23959e-05 0
0.00116319 -7.2132e-05 -1.83194e-23
0.00116319 -7.2132e-05 -1.83194e-23
0.0013637 -6.19082e-05 -1.84028e-23
0.0013637 -6.19082e-05 -1.84028e-23
0.00154357 -5.20148e-05 0
0.00154357 -5.20148e-05 0
0.00170328 -4.26842e-05 1.77315e-23
0.00170328 -4.26842e-05 1.77315e-23
0.00184383 -3.40733e-05 3.53472e-23
0.00184383 -3.40733e-05 3.53472e-23
0.00196652 -2.62647e-05 1.76153e-23
0.00196652 -2.62647e-05 1.76153e-23
0.00207281 -1.92769e-05 -1.71379e-23
0.00207281 -1.92769e-05 -1.71379e-23
0.00216419 -1.30823e-05 -1.72189e-23
0.00216419 -1.30823e-05 -1.72189e-23
0.00224209 -7.62399e-06 1.6746e-23
0.00224209 -7.62399e-06 1.6746e-23
0.00230784 -2.83357e-06 1.68261e-23
0.00230784 -2.83357e-06 1.68261e-23
0.00236261 1.35793e-06 1.63594e-23
0.00236261 1.35793e-06 1.63594e-23
0.00240746 5.01082e-06 3.26069e-23
0.00240746 5.01082e-06 3.26069e-23
0.00244333 8.16325e-06 1.62471e-23
0.00244333 8.16325e-06 1.62471e-23
0.00247108 1.08603e-05 0
0.00247108 1.08603e-05 0
0.00249146 1.31189e-05 0
0.00249146 1.31189e-05 0
0.00250533 1.49586e-05 0
0.00250533 1.49586e-05 0
0.00251326 1.65142e-05 0
0.00251326 1.65142e-05 0
0.00251575 1.78271e-05 0
0.00251575 1.78271e-05 0
0.00251366 1.87785e-05 0
0.00251366 1.87785e-05 0
0.00250781 1.93316e-05 1.46956e-23
0.00250781 1.93316e-05 1.46956e-23
0.00249894 1.95577e-05 2.52286e-25
0.00249894 1.95577e-05 2.52286e-25
0.00248773 1.95429e-05 -1.45925e-23
0.00248773 1.95429e-05 -1.45925e-23
0.00247479 1.93553e-05 0
0.00247479 1.93553e-05 0
0.00246059 1.90408e-05 0
0.00246059 1.90408e-05 0
0.00244556 1.86225e-05 0
0.00244556 1.86225e-05 0
0.00243007 1.81051e-05 -2.73028e-23
0.00243007 1.81051e-05 -2.73028e-23
0.00241444 1.74856e-05 -2.74463e-23
0.00241444 1.74856e-05 -2.74463e-23
0.00239896 1.67631e-05 2.66276e-23
0.00239896 1.67631e-05 2.66276e-23
0.00238391 1.59421e-05 4.75189e-25
0.00238391 1.59421e-05 4.75189e-25
0.00236952 1.50358e-05 -2.64339e-23
0.00236952 1.50358e-05 -2.64339e-23
0.00235596 1.40662e-05 0
0.00235596 1.40662e-05 0
0.00234339 1.30594e-05 0
0.00234339 1.30594e-05 0
0.00233187 1.2041e-05 2.49811e-23
0.00233187 1.2041e-05 2.49811e-23
0.00232146 1.10341e-05 4.97753e-23
0.00232146 1.10341e-05 4.97753e-23
0.00231215 1.00562e-05 2.4793e-23
0.00231215 1.00562e-05 2.4793e-23
0.00230392 9.1304e-06 2.4019e-23
0.00230392 9.1304e-06 2.4019e-23
0.00229672 8.27552e-06 4.78535e-23
0.00229672 8.27552e-06 4.78535e-23
0.00229048 7.49061e-06 4.46117e-25
0.00229048 7.49061e-06 4.46117e-25
0.00228513 6.76954e-06 -2.35172e-23
0.00228513 6.76954e-06 -2.35172e-23
0.0022806 6.11006e-06 0
0.0022806 6.11006e-06 0
0.00227681 5.51579e-06 -2.2453e-23
0.00227681 5.51579e-06 -2.2453e-23
0.00227371 4.9887e-06 -2.25795e-23
0.00227371 4.9887e-06 -2.25795e-23
0.00227121 4.52103e-06 0
0.00227121 4.52103e-06 0
0.00226923 4.09527e-06 0
0.00226923 4.09527e-06 0
0.00226771 3.6934e-06 0
0.00226771 3.6934e-06 0
0.00226657 3.30776e-06 2.09284e-23
0.00226657 3.30776e-06 2.09284e-23
0.00226575 2.94341e-06 4.16766e-23
0.00226575 2.94341e-06 4.16766e-23
0.00226519 2.60896e-06 2.0747e-23
0.00226519 2.60896e-06 2.0747e-23
0.00226486 2.31541e-06 2.0031e-23
0.00226486 2.31541e-06 2.0031e-23
0.00226471 2.07135e-06 2.01476e-23
0.00226471 2.07135e-06 2.01476e-23
0.0022647 1.8783e-06 0
0.0022647 1.8783e-06 0
0.00226477 1.73352e-06 1.91455e-23
0.00226477 1.73352e-06 1.91455e-23
0.00226486 1.63231e-06 1.92582e-23
0.00226486 1.63231e-06 1.92582e-23
0.00226489 1.57515e-06 1.85613e-23
0.00226489 1.57515e-06 1.85613e-23
0.00226478 1.56258e-06 1.86714e-23
0.00226478 1.56258e-06 1.86714e-23
0.00226445 1.59137e-06 0
0.00226445 1.59137e-06 0
0.00226382 1.65542e-06 1.76935e-23
0.00226382 1.65542e-06 1.76935e-23
0.00226278 1.75342e-06 1.77996e-23
0.00226278 1.75342e-06 1.77996e-23