/*--------------------------------*- C++ -*----------------------------------*\
  =========                 |
  \\      /  F ield         | OpenFOAM: The Open Source CFD Toolbox
   \\    /   O peration     | Website:  https://openfoam.org
    \\  /    A nd           | Version:  7
     \\/     M anipulation  |
\*---------------------------------------------------------------------------*/
FoamFile
{
    version     2.0;
    format      ascii;
    class       surfaceScalarField;
    location    "0.105";
    object      phi;
}
// * * * * * * * * * * * * * * * * * * * * * * * * * * * * * * * * * * * * * //

dimensions      [0 3 -1 0 0 0 0];

internalField   nonuniform List<scalar> 
24170
(
1.37397e-06
1.96859e-07
1.24602e-06
1.27948e-07
1.11077e-06
1.35253e-07
9.8899e-07
1.21779e-07
8.79922e-07
1.09068e-07
7.74268e-07
1.05653e-07
6.69563e-07
1.04705e-07
5.70882e-07
9.86806e-08
4.83108e-07
8.77737e-08
4.07119e-07
7.5989e-08
3.41459e-07
6.56603e-08
2.84696e-07
5.67629e-08
2.3613e-07
4.85661e-08
1.95514e-07
4.06158e-08
1.60924e-07
3.45901e-08
1.30285e-07
3.06392e-08
1.01142e-07
2.91426e-08
1.89172e-08
8.22251e-08
1.67055e-06
2.41916e-07
1.64309e-06
1.55409e-07
1.61161e-06
1.66727e-07
1.57155e-06
1.61847e-07
1.53013e-06
1.50488e-07
1.48742e-06
1.48364e-07
1.43993e-06
1.5219e-07
1.38727e-06
1.5134e-07
1.33134e-06
1.437e-07
1.27318e-06
1.34154e-07
1.21369e-06
1.25151e-07
1.15413e-06
1.16318e-07
1.0966e-06
1.06097e-07
1.04115e-06
9.60668e-08
9.86899e-07
8.88438e-08
9.33325e-07
8.42128e-08
8.79053e-07
8.3415e-08
7.85778e-08
8.19392e-07
1.76712e-06
3.01075e-07
1.73855e-06
1.83979e-07
1.72916e-06
1.76115e-07
1.72332e-06
1.6769e-07
1.71773e-06
1.5608e-07
1.71219e-06
1.53907e-07
1.70614e-06
1.5824e-07
1.69804e-06
1.59439e-07
1.68636e-06
1.55371e-07
1.67015e-06
1.50369e-07
1.64902e-06
1.46277e-07
1.62387e-06
1.41471e-07
1.59607e-06
1.33893e-07
1.56721e-06
1.24926e-07
1.53762e-06
1.18439e-07
1.50733e-06
1.14497e-07
1.47539e-06
1.15362e-07
1.149e-07
1.43907e-06
1.89839e-06
3.57262e-07
1.87384e-06
2.08523e-07
1.87479e-06
1.75171e-07
1.86904e-06
1.73435e-07
1.85857e-06
1.66551e-07
1.851e-06
1.61477e-07
1.84911e-06
1.60129e-07
1.85087e-06
1.57678e-07
1.85229e-06
1.53954e-07
1.8506e-06
1.52062e-07
1.8451e-06
1.51778e-07
1.83694e-06
1.49628e-07
1.82735e-06
1.43479e-07
1.81748e-06
1.348e-07
1.80762e-06
1.28298e-07
1.79716e-06
1.24962e-07
1.78595e-06
1.26569e-07
1.2905e-07
1.7718e-06
2.06039e-06
4.02944e-07
2.01434e-06
2.54582e-07
2.00674e-06
1.82765e-07
2.01544e-06
1.64733e-07
2.02001e-06
1.61989e-07
2.01896e-06
1.62527e-07
2.01703e-06
1.62055e-07
2.01461e-06
1.60098e-07
2.00929e-06
1.59278e-07
2.0006e-06
1.60753e-07
1.99075e-06
1.61628e-07
1.98245e-06
1.57926e-07
1.97683e-06
1.49094e-07
1.97348e-06
1.38157e-07
1.97158e-06
1.30193e-07
1.96968e-06
1.26859e-07
1.96766e-06
1.28595e-07
1.32553e-07
1.96415e-06
2.22848e-06
4.13791e-07
2.20228e-06
2.80783e-07
2.19345e-06
1.91598e-07
2.1915e-06
1.6668e-07
2.18667e-06
1.66818e-07
2.17989e-06
1.69311e-07
2.1734e-06
1.68543e-07
2.16652e-06
1.66975e-07
2.15813e-06
1.67673e-07
2.14885e-06
1.70031e-07
2.14052e-06
1.69958e-07
2.13436e-06
1.6409e-07
2.13023e-06
1.53222e-07
2.12718e-06
1.41203e-07
2.12481e-06
1.32567e-07
2.12272e-06
1.28952e-07
2.12137e-06
1.2994e-07
1.33532e-07
2.12039e-06
2.48791e-06
3.95654e-07
2.43404e-06
3.34656e-07
2.38031e-06
2.4533e-07
2.34956e-06
1.9742e-07
2.33391e-06
1.82475e-07
2.32668e-06
1.7654e-07
2.323e-06
1.72227e-07
2.31958e-06
1.70394e-07
2.31561e-06
1.7164e-07
2.31199e-06
1.73651e-07
2.30963e-06
1.72316e-07
2.3084e-06
1.6532e-07
2.30741e-06
1.54214e-07
2.30579e-06
1.42818e-07
2.30346e-06
1.34898e-07
2.30071e-06
1.31701e-07
2.29812e-06
1.32537e-07
1.35741e-07
2.29591e-06
2.57273e-06
3.39145e-07
2.56989e-06
3.37494e-07
2.53779e-06
2.77432e-07
2.5156e-06
2.19611e-07
2.51077e-06
1.87298e-07
2.51343e-06
1.73888e-07
2.51233e-06
1.73319e-07
2.50419e-06
1.78539e-07
2.4924e-06
1.83435e-07
2.48191e-06
1.84137e-07
2.47552e-06
1.78705e-07
2.47322e-06
1.67622e-07
2.47345e-06
1.53982e-07
2.47468e-06
1.41592e-07
2.47611e-06
1.33467e-07
2.4775e-06
1.30306e-07
2.47891e-06
1.31129e-07
1.34497e-07
2.48015e-06
2.76858e-06
4.19032e-07
2.74107e-06
3.65002e-07
2.72938e-06
2.89127e-07
2.72357e-06
2.25423e-07
2.72197e-06
1.88899e-07
2.71888e-06
1.76973e-07
2.71036e-06
1.81844e-07
2.6982e-06
1.90698e-07
2.6872e-06
1.94435e-07
2.68091e-06
1.90424e-07
2.6797e-06
1.79915e-07
2.68147e-06
1.65855e-07
2.68359e-06
1.51859e-07
2.68439e-06
1.40788e-07
2.6836e-06
1.34258e-07
2.68195e-06
1.31955e-07
2.68027e-06
1.32811e-07
1.35417e-07
2.67935e-06
2.94296e-06
4.69514e-07
2.93845e-06
3.69513e-07
2.93179e-06
2.9578e-07
2.9268e-06
2.30414e-07
2.91975e-06
1.95947e-07
2.90682e-06
1.89905e-07
2.89179e-06
1.9688e-07
2.87935e-06
2.03137e-07
2.87121e-06
2.02572e-07
2.86713e-06
1.94502e-07
2.86678e-06
1.80265e-07
2.86997e-06
1.62671e-07
2.87639e-06
1.4544e-07
2.88502e-06
1.32151e-07
2.894e-06
1.25286e-07
2.90145e-06
1.24505e-07
2.90536e-06
1.28893e-07
1.35516e-07
2.90527e-06
3.15486e-06
4.69412e-07
3.16808e-06
3.5629e-07
3.16424e-06
2.99617e-07
3.14925e-06
2.45409e-07
3.13424e-06
2.10955e-07
3.12133e-06
2.02809e-07
3.11432e-06
2.03895e-07
3.11438e-06
2.03078e-07
3.11875e-06
1.98197e-07
3.12392e-06
1.89329e-07
3.12809e-06
1.761e-07
3.13109e-06
1.59669e-07
3.13342e-06
1.43105e-07
3.13509e-06
1.30482e-07
3.1356e-06
1.24778e-07
3.13412e-06
1.25987e-07
3.12996e-06
1.33056e-07
1.42396e-07
3.12307e-06
2.80536e-06
4.53916e-07
2.81189e-06
3.49763e-07
2.82881e-06
2.82698e-07
2.83783e-06
2.36392e-07
2.83786e-06
2.1092e-07
2.83339e-06
2.07276e-07
2.82625e-06
2.1104e-07
2.81671e-06
2.12617e-07
2.80641e-06
2.085e-07
2.79842e-06
1.97318e-07
2.79496e-06
1.79561e-07
2.79601e-06
1.58617e-07
2.79978e-06
1.39339e-07
2.80399e-06
1.26263e-07
2.80704e-06
1.21736e-07
2.80785e-06
1.25173e-07
2.80655e-06
1.34356e-07
1.4594e-07
2.80301e-06
3.51357e-06
5.10138e-07
3.49892e-06
3.64409e-07
3.49401e-06
2.87608e-07
3.4819e-06
2.48505e-07
3.46377e-06
2.29052e-07
3.44733e-06
2.23709e-07
3.43828e-06
2.20095e-07
3.43811e-06
2.12787e-07
3.44514e-06
2.01466e-07
3.45564e-06
1.86819e-07
3.46475e-06
1.70448e-07
3.46853e-06
1.54836e-07
3.46546e-06
1.42413e-07
3.45685e-06
1.34872e-07
3.44587e-06
1.32718e-07
3.43555e-06
1.35496e-07
3.42833e-06
1.41576e-07
1.49333e-07
3.42493e-06
4.23811e-06
4.35229e-07
4.25472e-06
3.47804e-07
4.24042e-06
3.01908e-07
4.2258e-06
2.63119e-07
4.21693e-06
2.37928e-07
4.21795e-06
2.22683e-07
4.22895e-06
2.09094e-07
4.2458e-06
1.95937e-07
4.26335e-06
1.83922e-07
4.27726e-06
1.72904e-07
4.28483e-06
1.62875e-07
4.2852e-06
1.54474e-07
4.27904e-06
1.48573e-07
4.26829e-06
1.45615e-07
4.25583e-06
1.45186e-07
4.24439e-06
1.46931e-07
4.23644e-06
1.49528e-07
1.53013e-07
4.23276e-06
5.1939e-06
4.21385e-07
5.18724e-06
3.54462e-07
5.17943e-06
3.09717e-07
5.17376e-06
2.68788e-07
5.17341e-06
2.38278e-07
5.18473e-06
2.11361e-07
5.2006e-06
1.93225e-07
5.20867e-06
1.87868e-07
5.20295e-06
1.89645e-07
5.18601e-06
1.89838e-07
5.16475e-06
1.84137e-07
5.14559e-06
1.73631e-07
5.13236e-06
1.6181e-07
5.12612e-06
1.5185e-07
5.12662e-06
1.44689e-07
5.13274e-06
1.40816e-07
5.14363e-06
1.38629e-07
1.38487e-07
5.15816e-06
6.30663e-06
4.99922e-07
6.23685e-06
4.24236e-07
6.25898e-06
2.87593e-07
6.29577e-06
2.31995e-07
6.32318e-06
2.10865e-07
6.34077e-06
1.93771e-07
6.34949e-06
1.8451e-07
6.35041e-06
1.86948e-07
6.34509e-06
1.94965e-07
6.33548e-06
1.99445e-07
6.32407e-06
1.95546e-07
6.31351e-06
1.84195e-07
6.30627e-06
1.69051e-07
6.30417e-06
1.53947e-07
6.30792e-06
1.40937e-07
6.31731e-06
1.31433e-07
6.33106e-06
1.24875e-07
1.22021e-07
6.34753e-06
7.56813e-06
4.11403e-07
7.6923e-06
3.00064e-07
7.76727e-06
2.12623e-07
7.80208e-06
1.97188e-07
7.80454e-06
2.08407e-07
7.78294e-06
2.15369e-07
7.75478e-06
2.12665e-07
7.73684e-06
2.04891e-07
7.73493e-06
1.96876e-07
7.74468e-06
1.8969e-07
7.7587e-06
1.81532e-07
7.77216e-06
1.70735e-07
7.78401e-06
1.57196e-07
7.79575e-06
1.42212e-07
7.80902e-06
1.27661e-07
7.82464e-06
1.15814e-07
7.84208e-06
1.07438e-07
1.03794e-07
7.86031e-06
9.41755e-06
3.58877e-07
9.48793e-06
2.29689e-07
9.49584e-06
2.04711e-07
9.48947e-06
2.03556e-07
9.48581e-06
2.12069e-07
9.4889e-06
2.12277e-07
9.5023e-06
1.99262e-07
9.52687e-06
1.80321e-07
9.55867e-06
1.65079e-07
9.5906e-06
1.57765e-07
9.61609e-06
1.56038e-07
9.63199e-06
1.54838e-07
9.63896e-06
1.50226e-07
9.63997e-06
1.41201e-07
9.63901e-06
1.28623e-07
9.63941e-06
1.15412e-07
9.64356e-06
1.0329e-07
9.49207e-08
9.65243e-06
1.15391e-05
3.00119e-07
1.15245e-05
2.44334e-07
1.14983e-05
2.30886e-07
1.14728e-05
2.29112e-07
1.14512e-05
2.33671e-07
1.14367e-05
2.26711e-07
1.14391e-05
1.96873e-07
1.14663e-05
1.53185e-07
1.15184e-05
1.12973e-07
1.15889e-05
8.72111e-08
1.16678e-05
7.7139e-08
1.17447e-05
7.79264e-08
1.18121e-05
8.28808e-08
1.18654e-05
8.78975e-08
1.19028e-05
9.11689e-08
1.19257e-05
9.25406e-08
1.19366e-05
9.23528e-08
9.07795e-08
1.19408e-05
8.40841e-06
3.45951e-07
8.37001e-06
2.82733e-07
8.37504e-06
2.2586e-07
8.41758e-06
1.86574e-07
8.48083e-06
1.70421e-07
8.53869e-06
1.6885e-07
8.57674e-06
1.58826e-07
8.59884e-06
1.31077e-07
8.61634e-06
9.54762e-08
8.63622e-06
6.73344e-08
8.65956e-06
5.3795e-08
8.68396e-06
5.35278e-08
8.70656e-06
6.028e-08
8.72635e-06
6.81072e-08
8.74406e-06
7.3464e-08
8.76087e-06
7.57246e-08
8.77813e-06
7.50925e-08
7.33081e-08
8.7956e-06
7.4792e-06
3.35728e-07
7.50651e-06
2.55426e-07
7.50441e-06
2.27957e-07
7.50468e-06
1.863e-07
7.52567e-06
1.49432e-07
7.56324e-06
1.31287e-07
7.60025e-06
1.21813e-07
7.61986e-06
1.11466e-07
7.61597e-06
9.9365e-08
7.59434e-06
8.89652e-08
7.56719e-06
8.09473e-08
7.54627e-06
7.44458e-08
7.53844e-06
6.81074e-08
7.54521e-06
6.13368e-08
7.5647e-06
5.39734e-08
7.59361e-06
4.68148e-08
7.62875e-06
3.99516e-08
3.45617e-08
7.6675e-06
6.43826e-06
3.42815e-07
6.45664e-06
2.37044e-07
6.45401e-06
2.30589e-07
6.45641e-06
1.83897e-07
6.47448e-06
1.31368e-07
6.51352e-06
9.22425e-08
6.56609e-06
6.92437e-08
6.61615e-06
6.1412e-08
6.6531e-06
6.24099e-08
6.67705e-06
6.50187e-08
6.69475e-06
6.32493e-08
6.71361e-06
5.55857e-08
6.73736e-06
4.43553e-08
6.76531e-06
3.33839e-08
6.79392e-06
2.53612e-08
6.8196e-06
2.11408e-08
6.83936e-06
2.01898e-08
2.12432e-08
6.85268e-06
5.63293e-06
4.24231e-07
5.59575e-06
2.74228e-07
5.61643e-06
2.09905e-07
5.65499e-06
1.45339e-07
5.69678e-06
8.95773e-08
5.73034e-06
5.86759e-08
5.75044e-06
4.91462e-08
5.76198e-06
4.98783e-08
5.77466e-06
4.97252e-08
5.79525e-06
4.44305e-08
5.82391e-06
3.45885e-08
5.85622e-06
2.32785e-08
5.88689e-06
1.3679e-08
5.91251e-06
7.76612e-09
5.93187e-06
6.00466e-09
5.94548e-06
7.52759e-09
5.95464e-06
1.10327e-08
1.50466e-08
5.96083e-06
4.92955e-06
4.61219e-07
4.91437e-06
2.89413e-07
4.92878e-06
1.95499e-07
4.95965e-06
1.1446e-07
4.99826e-06
5.09745e-08
5.03831e-06
1.86239e-08
5.07372e-06
1.37391e-08
5.10226e-06
2.13347e-08
5.12439e-06
2.75967e-08
5.1423e-06
2.65205e-08
5.15785e-06
1.90396e-08
5.172e-06
9.12196e-09
5.18497e-06
7.18105e-10
5.19609e-06
-3.35518e-09
5.20603e-06
-3.93591e-09
5.21554e-06
-1.98947e-09
5.22508e-06
1.49399e-09
5.17884e-09
5.23495e-06
4.30153e-06
3.77124e-07
4.34648e-06
2.44459e-07
4.37206e-06
1.69924e-07
4.3818e-06
1.04713e-07
4.38686e-06
4.59191e-08
4.40302e-06
2.46167e-09
4.43712e-06
-2.03609e-08
4.48107e-06
-2.26116e-08
4.52307e-06
-1.4407e-08
4.5548e-06
-5.20896e-09
4.57408e-06
-2.36548e-10
4.58333e-06
-1.35576e-10
4.58722e-06
-3.16947e-09
4.59051e-06
-6.64913e-09
4.59565e-06
-9.07569e-09
4.60351e-06
-9.8461e-09
4.614e-06
-8.99844e-09
-7.02181e-09
4.6262e-06
3.68518e-06
4.3811e-07
3.74909e-06
1.80544e-07
3.80924e-06
1.09776e-07
3.85328e-06
6.06753e-08
3.89211e-06
7.0886e-09
3.92347e-06
-2.88976e-08
3.94658e-06
-4.34784e-08
3.96285e-06
-3.88765e-08
3.97445e-06
-2.60082e-08
3.98356e-06
-1.43182e-08
3.99167e-06
-8.35202e-09
3.99991e-06
-8.37262e-09
4.00891e-06
-1.21686e-08
4.01944e-06
-1.71741e-08
4.03183e-06
-2.14687e-08
4.04603e-06
-2.40432e-08
4.06158e-06
-2.45563e-08
-2.30268e-08
4.07759e-06
3.2665e-06
4.023e-07
3.34503e-06
1.02015e-07
3.39964e-06
5.51747e-08
3.41711e-06
4.31957e-08
3.41834e-06
5.86786e-09
3.42555e-06
-3.61153e-08
3.44073e-06
-5.86575e-08
3.45998e-06
-5.81282e-08
3.47787e-06
-4.38903e-08
3.49234e-06
-2.87946e-08
3.50373e-06
-1.97399e-08
3.51262e-06
-1.72583e-08
3.51954e-06
-1.90929e-08
3.52544e-06
-2.30784e-08
3.53168e-06
-2.77074e-08
3.53946e-06
-3.1818e-08
3.54953e-06
-3.46278e-08
-3.52424e-08
3.56174e-06
2.85945e-06
2.12454e-07
2.92216e-06
3.92985e-08
2.96269e-06
1.46496e-08
3.00521e-06
6.69019e-10
3.03326e-06
-2.21804e-08
3.0449e-06
-4.77532e-08
3.0489e-06
-6.26581e-08
3.05324e-06
-6.24641e-08
3.06202e-06
-5.26775e-08
3.07554e-06
-4.23125e-08
3.09178e-06
-3.59732e-08
3.10781e-06
-3.32914e-08
3.12113e-06
-3.24148e-08
3.13066e-06
-3.26056e-08
3.13687e-06
-3.39169e-08
3.14126e-06
-3.62069e-08
3.14526e-06
-3.86292e-08
-3.98984e-08
3.14991e-06
2.52017e-06
4.28538e-08
2.58173e-06
-2.22688e-08
2.61228e-06
-1.58952e-08
2.64229e-06
-2.9339e-08
2.66363e-06
-4.35271e-08
2.66956e-06
-5.36784e-08
2.66394e-06
-5.70404e-08
2.65526e-06
-5.37826e-08
2.65131e-06
-4.87288e-08
2.65523e-06
-4.62334e-08
2.6653e-06
-4.60435e-08
2.67711e-06
-4.50984e-08
2.68617e-06
-4.14776e-08
2.68958e-06
-3.60152e-08
2.68654e-06
-3.08792e-08
2.67789e-06
-2.75503e-08
2.66573e-06
-2.64681e-08
-2.67649e-08
2.65259e-06
2.14697e-06
2.1247e-06
2.10881e-06
2.07947e-06
2.03594e-06
1.98226e-06
1.92522e-06
1.87144e-06
1.82271e-06
1.77648e-06
1.73043e-06
1.68534e-06
1.64386e-06
1.60784e-06
1.57696e-06
1.54941e-06
1.52295e-06
1.49618e-06
-2.099e-07
2.099e-07
-4.06409e-07
1.96509e-07
-5.32477e-07
1.26068e-07
-5.65024e-07
3.25471e-08
-4.99984e-07
-6.50403e-08
-3.54833e-07
-1.45151e-07
-1.65065e-07
-1.89768e-07
3.46665e-08
-1.99732e-07
2.14106e-07
-1.79439e-07
3.45018e-07
-1.30913e-07
4.09373e-07
-6.43548e-08
4.27341e-07
-1.79675e-08
4.23435e-07
3.90528e-09
4.33229e-07
-9.79324e-09
4.7858e-07
-4.53514e-08
5.37659e-07
-5.90786e-08
6.08162e-07
-7.05032e-08
7.06122e-07
-9.796e-08
8.25677e-07
-1.19555e-07
9.4381e-07
-1.18133e-07
1.05274e-06
-1.08926e-07
1.13655e-06
-8.38113e-08
1.1619e-06
-2.53531e-08
1.12634e-06
3.5557e-08
1.06454e-06
6.18031e-08
9.89819e-07
7.47221e-08
8.67803e-07
1.22016e-07
6.49662e-07
2.1814e-07
3.62399e-07
2.87264e-07
5.13305e-08
3.11068e-07
-3.04254e-07
3.55585e-07
-7.08797e-07
4.04543e-07
-1.12908e-06
4.20283e-07
-1.52908e-06
4.00005e-07
-1.89602e-06
3.66935e-07
-2.23393e-06
3.37908e-07
-2.54812e-06
3.14188e-07
-2.84102e-06
2.92907e-07
-3.11386e-06
2.72839e-07
-3.36699e-06
2.53122e-07
-3.60011e-06
2.33129e-07
-3.81267e-06
2.12559e-07
-4.00393e-06
1.91259e-07
-4.17305e-06
1.69118e-07
-4.31904e-06
1.45994e-07
-4.44076e-06
1.21721e-07
-4.53689e-06
9.6126e-08
-4.60605e-06
6.91581e-08
-4.64706e-06
4.10102e-08
-4.6591e-06
1.2042e-08
-4.64243e-06
-1.66695e-08
-4.59711e-06
-4.53222e-08
-4.52396e-06
-7.31464e-08
-4.42402e-06
-9.99384e-08
-4.29863e-06
-1.25395e-07
-4.14947e-06
-1.49161e-07
-3.97827e-06
-1.71201e-07
-3.78657e-06
-1.91701e-07
-3.57531e-06
-2.11253e-07
-3.34453e-06
-2.30785e-07
-3.09298e-06
-2.51549e-07
-2.81792e-06
-2.75057e-07
-2.51495e-06
-3.02974e-07
-2.17823e-06
-3.36715e-07
-1.8018e-06
-3.76439e-07
-1.38241e-06
-4.19386e-07
-9.25205e-07
-4.57204e-07
-4.54386e-07
-4.7082e-07
-2.36437e-08
-4.30742e-07
3.07218e-07
-3.30862e-07
3.52118e-07
-4.49002e-08
3.6945e-08
3.15173e-07
-3.36841e-07
3.73786e-07
-5.36773e-07
1.99932e-07
-6.10278e-07
7.35054e-08
-6.33786e-07
2.35075e-08
-6.49026e-07
1.52404e-08
-6.38835e-07
-1.01911e-08
-5.8471e-07
-5.41247e-08
-4.95369e-07
-8.93418e-08
-3.62273e-07
-1.33096e-07
-1.40877e-07
-2.21396e-07
2.42514e-07
-3.83391e-07
8.41304e-07
-5.9879e-07
1.51534e-06
-6.74037e-07
2.09705e-06
-5.81711e-07
2.52511e-06
-4.28061e-07
2.52839e-06
-3.27624e-09
1.9372e-06
5.91186e-07
1.23582e-06
7.01384e-07
8.78813e-07
3.57007e-07
9.33445e-07
-5.46324e-08
1.10319e-06
-1.69743e-07
1.05653e-06
4.66551e-08
6.52089e-07
4.04444e-07
-3.9734e-08
6.91823e-07
-7.81268e-07
7.41534e-07
-1.45518e-06
6.73913e-07
-2.03495e-06
5.79771e-07
-2.5247e-06
4.89746e-07
-2.93734e-06
4.12642e-07
-3.28675e-06
3.49406e-07
-3.58438e-06
2.97635e-07
-3.83847e-06
2.54086e-07
-4.05439e-06
2.15918e-07
-4.23498e-06
1.80596e-07
-4.38081e-06
1.45828e-07
-4.4908e-06
1.09993e-07
-4.56365e-06
7.28505e-08
-4.59884e-06
3.51882e-08
-4.59609e-06
-2.74894e-09
-4.55685e-06
-3.92378e-08
-4.48214e-06
-7.47131e-08
-4.37372e-06
-1.08416e-07
-4.23386e-06
-1.39863e-07
-4.06552e-06
-1.68341e-07
-3.87172e-06
-1.93797e-07
-3.65549e-06
-2.16234e-07
-3.41956e-06
-2.35932e-07
-3.16619e-06
-2.53368e-07
-2.89715e-06
-2.69039e-07
-2.61382e-06
-2.83328e-07
-2.31756e-06
-2.96263e-07
-2.01015e-06
-3.07406e-07
-1.69429e-06
-3.1586e-07
-1.37391e-06
-3.20387e-07
-1.05398e-06
-3.19923e-07
-7.39987e-07
-3.13995e-07
-4.37163e-07
-3.02824e-07
-1.50501e-07
-2.86662e-07
1.1931e-07
-2.69811e-07
3.70854e-07
-2.51544e-07
6.0476e-07
-2.33906e-07
8.22956e-07
-2.18196e-07
1.02796e-06
-2.05001e-07
1.22229e-06
-1.94334e-07
1.40819e-06
-1.85903e-07
1.58736e-06
-1.79168e-07
1.76062e-06
-1.73258e-07
1.92791e-06
-1.67285e-07
2.08805e-06
-1.60144e-07
2.23816e-06
-1.50106e-07
2.37411e-06
-1.35953e-07
2.49189e-06
-1.17781e-07
2.58696e-06
-9.5066e-08
2.65155e-06
-6.45893e-08
2.67567e-06
-2.41209e-08
2.65297e-06
2.26933e-08
2.58484e-06
6.81321e-08
2.4753e-06
1.09536e-07
2.32871e-06
1.46597e-07
2.14739e-06
1.81316e-07
1.93181e-06
2.15581e-07
1.68452e-06
2.47287e-07
1.41807e-06
2.66451e-07
1.15777e-06
2.60305e-07
9.31157e-07
2.2661e-07
7.55634e-07
1.75523e-07
6.34075e-07
1.2156e-07
5.57723e-07
7.63515e-08
5.14122e-07
4.36014e-08
4.92257e-07
2.18644e-08
4.84093e-07
8.16458e-09
4.84272e-07
-1.78884e-10
4.89152e-07
-4.88025e-09
4.96695e-07
-7.54296e-09
5.0541e-07
-8.71548e-09
5.14381e-07
-8.97107e-09
5.22839e-07
-8.45743e-09
5.30445e-07
-7.60595e-09
5.36435e-07
-5.98989e-09
5.409e-07
-4.46562e-09
5.4228e-07
-1.37923e-09
5.41613e-07
6.66653e-10
5.34841e-07
6.77175e-09
5.26405e-07
8.43611e-09
5.04533e-07
2.18722e-08
4.86389e-07
1.81437e-08
4.34831e-07
5.15581e-08
2.96668e-08
4.05164e-07
-1.33494e-07
3.43394e-07
-2.59972e-07
3.22987e-07
-3.42284e-07
2.0838e-07
-3.44016e-07
3.42792e-08
-2.51276e-07
-1.5778e-07
-8.749e-08
-3.08937e-07
1.09801e-07
-3.87059e-07
3.06965e-07
-3.96897e-07
4.78878e-07
-3.51352e-07
6.1559e-07
-2.67625e-07
7.1587e-07
-1.64634e-07
7.61627e-07
-6.37245e-08
7.25783e-07
3.97499e-08
6.29318e-07
8.6671e-08
5.42043e-07
4.1924e-08
5.22399e-07
-3.94341e-08
5.77275e-07
-1.2538e-07
6.77234e-07
-1.9792e-07
7.71758e-07
-2.14079e-07
8.12392e-07
-1.58767e-07
7.72364e-07
-6.88983e-08
6.60519e-07
2.80339e-08
4.86494e-07
1.48672e-07
2.51131e-07
2.7092e-07
-5.24872e-08
3.65421e-07
-4.01324e-07
4.23559e-07
-7.63598e-07
4.8429e-07
-1.10777e-06
5.62313e-07
-1.45138e-06
6.30872e-07
-1.81782e-06
6.77509e-07
-2.16587e-06
7.03632e-07
-2.46875e-06
7.07423e-07
-2.73674e-06
6.88271e-07
-2.98927e-06
6.52537e-07
-3.23429e-06
6.11962e-07
-3.46851e-06
5.72122e-07
-3.68846e-06
5.34139e-07
-3.89354e-06
4.97985e-07
-4.0839e-06
4.63205e-07
-4.25979e-06
4.29006e-07
-4.4213e-06
3.94646e-07
-4.56821e-06
3.59461e-07
-4.69984e-06
3.22896e-07
-4.8152e-06
2.84477e-07
-4.91304e-06
2.43832e-07
-4.99201e-06
2.00695e-07
-5.05072e-06
1.54836e-07
-5.08799e-06
1.06424e-07
-5.10273e-06
5.57538e-08
-5.0928e-06
2.10617e-09
-5.05817e-06
-5.12977e-08
-4.99777e-06
-1.05724e-07
-4.91126e-06
-1.59654e-07
-4.79952e-06
-2.11681e-07
-4.6642e-06
-2.6071e-07
-4.5074e-06
-3.05959e-07
-4.33147e-06
-3.47133e-07
-4.13864e-06
-3.84529e-07
-3.93079e-06
-4.19109e-07
-3.70908e-06
-4.5249e-07
-3.47374e-06
-4.86888e-07
-3.22378e-06
-5.25019e-07
-2.95684e-06
-5.69913e-07
-2.66913e-06
-6.24431e-07
-2.35549e-06
-6.90077e-07
-2.01088e-06
-7.63999e-07
-1.63495e-06
-8.33134e-07
-1.23885e-06
-8.66915e-07
-8.51328e-07
-8.18265e-07
-5.47928e-07
-6.34262e-07
-3.50428e-07
-2.42401e-07
-2.48906e-07
2.13652e-07
-1.92194e-07
3.17074e-07
-1.33765e-07
1.41503e-07
-5.67446e-08
-3.51523e-09
4.6085e-08
-7.93221e-08
1.43174e-07
-8.18483e-08
2.19666e-07
-8.66831e-08
2.70919e-07
-1.05378e-07
3.01215e-07
-1.19637e-07
3.26848e-07
-1.58729e-07
3.87979e-07
-2.82527e-07
5.62449e-07
-5.57861e-07
9.44138e-07
-9.80479e-07
1.51963e-06
-1.24953e-06
2.04403e-06
-1.10611e-06
2.34851e-06
-7.32549e-07
2.48363e-06
-1.38397e-07
2.38003e-06
6.94792e-07
1.96322e-06
1.1182e-06
1.61455e-06
7.0567e-07
1.34833e-06
2.11589e-07
7.88592e-07
3.89996e-07
-6.35527e-08
8.988e-07
-9.25316e-07
1.26621e-06
-1.61084e-06
1.37734e-06
-2.15709e-06
1.28779e-06
-2.60559e-06
1.12241e-06
-2.97521e-06
9.49393e-07
-3.28243e-06
7.96966e-07
-3.5416e-06
6.71816e-07
-3.76369e-06
5.71493e-07
-3.95593e-06
4.89878e-07
-4.12345e-06
4.21601e-07
-4.26879e-06
3.61262e-07
-4.39197e-06
3.03772e-07
-4.49181e-06
2.45666e-07
-4.56661e-06
1.84793e-07
-4.61409e-06
1.20332e-07
-4.63141e-06
5.2513e-08
-4.61631e-06
-1.78466e-08
-4.56685e-06
-8.87028e-08
-4.48259e-06
-1.58976e-07
-4.36446e-06
-2.26547e-07
-4.21462e-06
-2.89697e-07
-4.03568e-06
-3.47284e-07
-3.83074e-06
-3.98736e-07
-3.60288e-06
-4.44097e-07
-3.35485e-06
-4.83962e-07
-3.08894e-06
-5.19278e-07
-2.80683e-06
-5.51147e-07
-2.50971e-06
-5.8045e-07
-2.19861e-06
-6.07356e-07
-1.87508e-06
-6.30943e-07
-1.54166e-06
-6.49281e-07
-1.20225e-06
-6.59791e-07
-8.62114e-07
-6.60061e-07
-5.27236e-07
-6.48873e-07
-2.03247e-07
-6.26813e-07
1.05642e-07
-5.95551e-07
3.96372e-07
-5.60541e-07
6.67919e-07
-5.23091e-07
9.21303e-07
-4.87291e-07
1.15865e-06
-4.55543e-07
1.38257e-06
-4.28924e-07
1.59565e-06
-4.07414e-07
1.80006e-06
-3.90308e-07
1.99732e-06
-3.7643e-07
2.18832e-06
-3.64261e-07
2.3729e-06
-3.51865e-07
2.54943e-06
-3.36665e-07
2.7152e-06
-3.15884e-07
2.8667e-06
-2.87448e-07
2.9989e-06
-2.49987e-07
3.10621e-06
-2.02372e-07
3.18592e-06
-1.44302e-07
3.23886e-06
-7.70587e-08
3.26363e-06
-2.08158e-09
3.25827e-06
7.34919e-08
3.21769e-06
1.5012e-07
3.14077e-06
2.23518e-07
3.02933e-06
2.92754e-07
2.88937e-06
3.55544e-07
2.72857e-06
4.0809e-07
2.55197e-06
4.43044e-07
2.36483e-06
4.47451e-07
2.17615e-06
4.15288e-07
1.99958e-06
3.52091e-07
1.84709e-06
2.74048e-07
1.72444e-06
1.99007e-07
1.63166e-06
1.36384e-07
1.56525e-06
8.82679e-08
1.52034e-06
5.30799e-08
1.4919e-06
2.82614e-08
1.4753e-06
1.17139e-08
1.4663e-06
1.45678e-09
1.4616e-06
-4.00906e-09
1.45906e-06
-6.43854e-09
1.45737e-06
-6.76629e-09
1.45609e-06
-6.32628e-09
1.45469e-06
-4.58464e-09
1.45342e-06
-3.20027e-09
1.45103e-06
1.01294e-09
1.44823e-06
3.46658e-09
1.44184e-06
1.31601e-08
1.43444e-06
1.58387e-08
1.41958e-06
3.67281e-08
1.40276e-06
3.49675e-08
1.37414e-06
8.01822e-08
6.58248e-08
1.33798e-06
8.12168e-08
2.62177e-07
9.10133e-08
3.1319e-07
9.93092e-08
2.00084e-07
1.74858e-07
-4.12692e-08
3.25061e-07
-3.07983e-07
5.02759e-07
-4.86635e-07
6.70857e-07
-5.55157e-07
8.04216e-07
-5.30256e-07
8.9695e-07
-4.44086e-07
9.51605e-07
-3.22281e-07
9.66678e-07
-1.79707e-07
9.45514e-07
-4.25605e-08
9.01351e-07
8.39128e-08
8.0156e-07
1.86462e-07
6.49896e-07
1.93588e-07
5.25955e-07
8.45065e-08
4.57294e-07
-5.67187e-08
3.73953e-07
-1.14579e-07
2.19615e-07
-5.97407e-08
2.2953e-09
5.85528e-08
-2.61968e-07
1.95365e-07
-5.53514e-07
3.1958e-07
-8.36888e-07
4.32046e-07
-1.10159e-06
5.35625e-07
-1.36259e-06
6.26422e-07
-1.64775e-06
7.08717e-07
-1.94415e-06
7.80688e-07
-2.21888e-06
8.37041e-07
-2.46299e-06
8.7498e-07
-2.67974e-06
8.94261e-07
-2.87016e-06
8.94056e-07
-3.03946e-06
8.76726e-07
-3.19718e-06
8.45988e-07
-3.35374e-06
8.09091e-07
-3.51277e-06
7.71001e-07
-3.67385e-06
7.33193e-07
-3.83562e-06
6.95918e-07
-3.99654e-06
6.58901e-07
-4.1548e-06
6.21464e-07
-4.30855e-06
5.82762e-07
-4.45586e-06
5.41952e-07
-4.59464e-06
4.98244e-07
-4.72272e-06
4.50972e-07
-4.83782e-06
3.99574e-07
-4.9376e-06
3.43613e-07
-5.0197e-06
2.82801e-07
-5.0819e-06
2.17031e-07
-5.12185e-06
1.46373e-07
-5.13744e-06
7.13486e-08
-5.12915e-06
-6.18137e-09
-5.09208e-06
-8.83764e-08
-5.02749e-06
-1.70306e-07
-4.93631e-06
-2.50837e-07
-4.81975e-06
-3.28245e-07
-4.67984e-06
-4.00615e-07
-4.5194e-06
-4.66401e-07
-4.34186e-06
-5.24668e-07
-4.15099e-06
-5.75401e-07
-3.95054e-06
-6.19561e-07
-3.74399e-06
-6.59037e-07
-3.53447e-06
-6.96416e-07
-3.32476e-06
-7.34728e-07
-3.11742e-06
-7.77254e-07
-2.91446e-06
-8.27389e-07
-2.71618e-06
-8.88357e-07
-2.51935e-06
-9.60831e-07
-2.31531e-06
-1.03717e-06
-2.08777e-06
-1.09445e-06
-1.81733e-06
-1.08871e-06
-1.50081e-06
-9.50782e-07
-1.10747e-06
-6.35734e-07
-6.57238e-07
-2.36585e-07
-2.48989e-07
-9.11748e-08
8.60876e-08
-1.93573e-07
3.55309e-07
-2.72737e-07
5.95473e-07
-3.19486e-07
8.35161e-07
-3.21537e-07
1.06132e-06
-3.12838e-07
1.25169e-06
-2.95755e-07
1.36629e-06
-2.34239e-07
1.36492e-06
-1.57356e-07
1.27621e-06
-1.93813e-07
1.21724e-06
-4.98891e-07
1.30256e-06
-1.0658e-06
1.56721e-06
-1.51419e-06
1.86109e-06
-1.39998e-06
2.00976e-06
-8.8122e-07
1.96339e-06
-9.20274e-08
1.72369e-06
9.34494e-07
1.4783e-06
1.36358e-06
1.26536e-06
9.18613e-07
6.33633e-07
8.43315e-07
-3.09111e-07
1.33274e-06
-1.14154e-06
1.73123e-06
-1.73099e-06
1.85565e-06
-2.12417e-06
1.77052e-06
-2.41396e-06
1.57758e-06
-2.65681e-06
1.36526e-06
-2.87979e-06
1.17237e-06
-3.09253e-06
1.00971e-06
-3.29717e-06
8.76456e-07
-3.49312e-06
7.67449e-07
-3.67928e-06
6.76035e-07
-3.8535e-06
5.95819e-07
-4.01319e-06
5.20956e-07
-4.15551e-06
4.46088e-07
-4.27692e-06
3.67079e-07
-4.3735e-06
2.81369e-07
-4.44117e-06
1.87998e-07
-4.47598e-06
8.73244e-08
-4.47552e-06
-1.83038e-08
-4.43915e-06
-1.25076e-07
-4.36659e-06
-2.31532e-07
-4.25905e-06
-3.34089e-07
-4.11867e-06
-4.30078e-07
-3.94826e-06
-5.17691e-07
-3.75098e-06
-5.96014e-07
-3.52998e-06
-6.65098e-07
-3.28809e-06
-7.25855e-07
-3.02755e-06
-7.79817e-07
-2.7499e-06
-8.28796e-07
-2.45602e-06
-8.74334e-07
-2.14648e-06
-9.16894e-07
-1.8223e-06
-9.55124e-07
-1.48568e-06
-9.85903e-07
-1.14056e-06
-1.00491e-06
-7.92748e-07
-1.00787e-06
-4.49147e-07
-9.92473e-07
-1.16127e-07
-9.59833e-07
2.01662e-07
-9.13339e-07
5.00341e-07
-8.59221e-07
7.79725e-07
-8.02475e-07
1.04128e-06
-7.48846e-07
1.28785e-06
-7.02112e-07
1.52274e-06
-6.63814e-07
1.74899e-06
-6.33667e-07
1.96904e-06
-6.10355e-07
2.18461e-06
-5.92004e-07
2.39656e-06
-5.76207e-07
2.60444e-06
-5.59748e-07
2.80619e-06
-5.38411e-07
2.99785e-06
-5.07546e-07
3.17378e-06
-4.63379e-07
3.3271e-06
-4.03308e-07
3.44978e-06
-3.25054e-07
3.53354e-06
-2.28056e-07
3.5731e-06
-1.16618e-07
3.56957e-06
1.44315e-09
3.52706e-06
1.15999e-07
3.45607e-06
2.21118e-07
3.36638e-06
3.13203e-07
3.26339e-06
3.95749e-07
3.1466e-06
4.72336e-07
3.0176e-06
5.37087e-07
2.88301e-06
5.77627e-07
2.74804e-06
5.8243e-07
2.61428e-06
5.49038e-07
2.48232e-06
4.84057e-07
2.35503e-06
4.01339e-07
2.23721e-06
3.16824e-07
2.13345e-06
2.40143e-07
2.04685e-06
1.74874e-07
1.97862e-06
1.21309e-07
1.92824e-06
7.86382e-08
1.89382e-06
4.61309e-08
1.87241e-06
2.28718e-08
1.86058e-06
7.8228e-09
1.8551e-06
-9.65855e-10
1.85325e-06
-4.90996e-09
1.85305e-06
-6.13022e-09
1.8531e-06
-4.63368e-09
1.85277e-06
-2.86757e-09
1.85149e-06
2.28479e-09
1.84908e-06
5.88048e-09
1.84534e-06
1.68991e-08
1.83946e-06
2.17166e-08
1.83265e-06
4.35453e-08
1.82067e-06
4.69415e-08
1.81155e-06
8.93059e-08
8.99512e-08
1.78742e-06
1.09678e-07
1.52499e-07
2.18624e-07
2.04244e-07
4.21427e-07
-2.71878e-09
6.83717e-07
-3.03559e-07
9.11157e-07
-5.35423e-07
1.06996e-06
-6.45435e-07
1.15648e-06
-6.41678e-07
1.18824e-06
-5.62014e-07
1.17723e-06
-4.33077e-07
1.13435e-06
-2.79402e-07
1.0671e-06
-1.12461e-07
9.68476e-07
5.6067e-08
8.44354e-07
2.08035e-07
6.94016e-07
3.368e-07
5.18518e-07
3.69086e-07
3.41833e-07
2.61191e-07
1.4513e-07
1.39984e-07
-1.22174e-07
1.52726e-07
-4.35729e-07
2.53815e-07
-7.43301e-07
3.66125e-07
-1.02502e-06
4.77088e-07
-1.29031e-06
5.84865e-07
-1.5444e-06
6.86137e-07
-1.78614e-06
7.77369e-07
-2.01628e-06
8.56556e-07
-2.23186e-06
9.24298e-07
-2.42863e-06
9.77463e-07
-2.60298e-06
1.01139e-06
-2.75475e-06
1.02674e-06
-2.88809e-06
1.0276e-06
-3.01129e-06
1.01725e-06
-3.13305e-06
9.9849e-07
-3.26061e-06
9.73546e-07
-3.39684e-06
9.4532e-07
-3.5413e-06
9.15464e-07
-3.6925e-06
8.84397e-07
-3.84838e-06
8.51792e-07
-4.00653e-06
8.1705e-07
-4.16449e-06
7.79421e-07
-4.31974e-06
7.38015e-07
-4.46976e-06
6.91978e-07
-4.61209e-06
6.40567e-07
-4.74421e-06
5.83098e-07
-4.86362e-06
5.18978e-07
-4.96776e-06
4.47755e-07
-5.05409e-06
3.69133e-07
-5.12007e-06
2.83008e-07
-5.16327e-06
1.8957e-07
-5.18131e-06
8.93892e-08
-5.17095e-06
-1.65418e-08
-5.13481e-06
-1.24517e-07
-5.07031e-06
-2.34802e-07
-4.97711e-06
-3.44035e-07
-4.85609e-06
-4.49263e-07
-4.70905e-06
-5.47658e-07
-4.53872e-06
-6.36732e-07
-4.3487e-06
-7.14688e-07
-4.14329e-06
-7.80809e-07
-3.92713e-06
-8.35721e-07
-3.70477e-06
-8.81396e-07
-3.48055e-06
-9.20638e-07
-3.25889e-06
-9.56394e-07
-3.04496e-06
-9.91176e-07
-2.8455e-06
-1.02685e-06
-2.66886e-06
-1.06499e-06
-2.52256e-06
-1.10713e-06
-2.40621e-06
-1.15352e-06
-2.30294e-06
-1.19772e-06
-2.17627e-06
-1.21538e-06
-1.96751e-06
-1.15954e-06
-1.61499e-06
-9.88251e-07
-1.09878e-06
-7.5279e-07
-5.69615e-07
-6.20345e-07
-1.24769e-07
-6.38419e-07
2.71712e-07
-6.69218e-07
6.14214e-07
-6.61987e-07
9.1428e-07
-6.21603e-07
1.1951e-06
-5.93661e-07
1.48019e-06
-5.80847e-07
1.72356e-06
-4.776e-07
1.83045e-06
-2.64254e-07
1.77416e-06
-1.37516e-07
1.65055e-06
-3.7529e-07
1.57504e-06
-9.90282e-07
1.58459e-06
-1.52374e-06
1.60251e-06
-1.4179e-06
1.45669e-06
-7.35398e-07
1.10746e-06
2.57203e-07
8.68902e-07
1.17305e-06
8.79136e-07
1.35335e-06
5.4519e-07
1.25256e-06
-2.60931e-07
1.64944e-06
-1.0395e-06
2.11131e-06
-1.56818e-06
2.25991e-06
-1.88801e-06
2.17548e-06
-2.0964e-06
1.97891e-06
-2.27232e-06
1.7535e-06
-2.44943e-06
1.54237e-06
-2.63494e-06
1.35788e-06
-2.82616e-06
1.20093e-06
-3.01856e-06
1.06885e-06
-3.20837e-06
9.57264e-07
-3.39302e-06
8.60679e-07
-3.5702e-06
7.72999e-07
-3.73718e-06
6.87944e-07
-3.89056e-06
5.99466e-07
-4.02591e-06
5.02424e-07
-4.13803e-06
3.93496e-07
-4.22176e-06
2.71727e-07
-4.27282e-06
1.38378e-07
-4.28752e-06
-3.60178e-09
-4.26508e-06
-1.4751e-07
-4.2054e-06
-2.9121e-07
-4.10997e-06
-4.29523e-07
-3.98132e-06
-5.58724e-07
-3.82261e-06
-6.76404e-07
-3.63715e-06
-7.81473e-07
-3.42812e-06
-8.74126e-07
-3.19825e-06
-9.55728e-07
-2.94955e-06
-1.02851e-06
-2.68321e-06
-1.09514e-06
-2.39955e-06
-1.15799e-06
-2.09842e-06
-1.21802e-06
-1.77995e-06
-1.2736e-06
-1.44572e-06
-1.32014e-06
-1.09963e-06
-1.351e-06
-7.48466e-07
-1.35903e-06