/*--------------------------------*- C++ -*----------------------------------*\
  =========                 |
  \\      /  F ield         | OpenFOAM: The Open Source CFD Toolbox
   \\    /   O peration     | Website:  https://openfoam.org
    \\  /    A nd           | Version:  7
     \\/     M anipulation  |
\*---------------------------------------------------------------------------*/
FoamFile
{
    version     2.0;
    format      ascii;
    class       volScalarField;
    location    "0.105";
    object      s;
}
// * * * * * * * * * * * * * * * * * * * * * * * * * * * * * * * * * * * * * //

dimensions      [0 0 0 0 0 0 0];

internalField   nonuniform List<scalar> 
12225
(
1
1
1
1
1
1
1
1
1
1
1
1
1
1
1
1
1
1
1
1
1
1
1
1
1
1
1
1
1
1
1
1
1
1
1
1
1
1
1
1
1
1
1
1
1
1
1
1
1
1
1
1
1
1
1
1
1
1
1
1
1
1
1
1
1
1
1
1
1
1
1
1
1
1
1
1
1
1
1
1
1
1
1
1
1
1
1
1
1
1
1
1
1
1
1
1
1
1
1
1
1
1
1
1
1
1
1
1
1
1
1
1
1
1
1
1
1
1
1
1
1
1
1
1
1
1
1
1
1
1
1
1
1
1
1
1
1
1
1
1
1
1
1
1
1
1
1
1
1
1
1
1
1
1
1
1
1
1
1
1
1
1
1
1
1
1
1
1
1
1
1
1
1
1
1
1
1
1
1
1
1
1
1
1
1
1
1
1
1
1
1
1
1
1
1
1
1
1
1
1
1
1
1
1
1
1
1
1
1
1
1
1
1
1
1
1
1
1
1
1
1
1
1
1
1
1
1
1
1
1
1
1
1
1
1
1
1
1
1
1
1
1
1
1
1
1
1
1
1
1
1
1
1
1
1
1
1
1
1
1
1
1
1
1
1
1
1
1
1
1
1
1
1
1
1
1
1
1
1
1
1
1
1
1
1
1
1
1
1
1
1
1
1
1
1
1
1
1
1
1
1
1
1
1
1
1
1
1
1
1
1
1
1
1
1
1
1
1
1
1
1
1
1
1
1
1
1
1
1
1
1
1
1
1
1
1
1
1
1
1
1
1
1
1
1
1
1
1
1
1
1
1
1
1
1
1
1
1
1
1
1
1
1
1
1
1
1
1
1
1
1
1
1
1
1
1
1
1
1
1
1
1
1
1
1
1
1
1
1
1
1
1
1
1
1
1
1
1
1
1
1
1
1
1
1
1
1
1
1
1
1
1
1
1
1
1
1
1
1
1
1
1
1
1
1
1
1
1
1
1
1
1
1
1
1
1
1
1
1
1
1
1
1
1
1
1
1
1
1
1
1
1
1
1
1
1
1
1
1
1
1
1
1
1
1
1
1
1
1
1
1
1
1
1
1
1
1
1
1
1
1
1
1
1
1
1
1
1
1
1
1
1
1
1
1
1
1
1
1
1
1
1
1
1
1
1
1
1
1
1
1
1
1
1
1
1
1
1
1
1
1
1
1
1
1
1
1
1
1
1
1
1
1
1
1
1
1
1
1
1
0.361739
0.49016
0.518624
0.534633
0.552506
0.559114
0.559111
0.551568
0.532788
0.481672
0.344606
0.264031
0.264339
0.319375
0.376877
0.404025
0.41712
0.419685
0.419032
0.414664
0.398
0.385275
0.38446
0.38322
0.372753
0.33109
0.333789
0.491367
0.773856
0.828567
0.803134
0.755889
0.741841
0.740722
0.741106
0.741193
0.740346
0.739467
0.739402
0.740001
0.741961
0.745362
0.749391
0.752952
0.755772
0.758566
0.761905
0.765547
0.769295
0.773494
0.77808
0.781473
0.784329
0.785865
0.787022
0.78751
0.787654
0.786877
0.785376
0.783597
0.781893
0.778573
0.774968
0.770808
0.765046
0.757798
0.751468
0.7428
0.729909
0.712304
0.70136
0.690897
0.595037
0.364242
0.336118
0.334659
0.363073
0.41116
0.448194
0.483492
0.514588
0.5475
0.588393
0.643224
0.692822
0.728433
0.74145
0.739632
0.726422
0.641824
0.601369
0.647544
0.766975
0.832127
0.844269
0.834237
0.826451
0.825588
0.825586
0.825915
0.826718
0.827977
0.829548
0.831231
0.832952
0.834834
0.836964
0.839169
0.841204
0.843131
0.845215
0.847393
0.849246
0.850729
0.851968
0.852711
0.853137
0.853409
0.853538
0.853617
0.853549
0.853091
0.852543
0.851971
0.851729
0.851071
0.850533
0.849889
0.849307
0.848852
0.848611
0.848652
0.849018
0.849757
0.850845
0.852283
0.854313
0.85706
0.860531
0.864697
0.869695
0.875566
0.882088
0.888935
0.895412
0.899777
0.901351
0.901452
0.900864
0.898749
0.891712
0.875719
0.862455
0.836924
0.75504
0.464075
0.177943
0.0526766
0.0129609
0.00267144
0.000876578
0.00155206
0.00403581
0.00557999
0.00598498
0.00568362
0.00478613
0.00327953
0.00199442
0.00115274
0.000567293
0.000241895
4.28527e-05
3.58485e-06
6.41668e-07
1.5785e-07
5.77224e-08
2.58556e-08
1.32338e-08
2.26628e-09
0.348036
0.522323
0.584439
0.612496
0.621775
0.644042
0.657079
0.660966
0.659836
0.653685
0.640998
0.617233
0.535465
0.404758
0.372756
0.389109
0.418048
0.415781
0.403726
0.387266
0.349303
0.337912
0.366668
0.431511
0.561753
0.68368
0.746876
0.782957
0.799738
0.780086
0.770136
0.765331
0.768192
0.787923
0.801789
0.818625
0.834016
0.847326
0.859399
0.877498
0.888885
0.899762
0.915265
0.924331
0.931799
0.941974
0.948792
0.953139
0.958549
0.962269
0.96419
0.965965
0.966864
0.967406
0.967627
0.9674
0.966371
0.965036
0.962753
0.960316
0.95688
0.951896
0.945597
0.936369
0.922543
0.901283
0.867905
0.830877
0.781956
0.728415
0.700874
0.688253
0.622365
0.428947
0.374136
0.352793
0.335191
0.319216
0.319496
0.330769
0.344341
0.360145
0.390675
0.478401
0.630133
0.722495
0.771294
0.780954
0.77163
0.718082
0.614613
0.604427
0.715446
0.833959
0.837033
0.825094
0.821079
0.820041
0.819863
0.820359
0.822336
0.824916
0.827859
0.832015
0.837527
0.843916
0.850789
0.857592
0.864225
0.870615
0.876693
0.882414
0.887554
0.893288
0.899238
0.905271
0.909858
0.913372
0.916243
0.919176
0.92223
0.923701
0.924208
0.923435
0.923274
0.91994
0.916961
0.912424
0.906878
0.900365
0.893043
0.885133
0.876858
0.868402
0.859729
0.850914
0.84214
0.833615
0.826051
0.820237
0.815667
0.812316
0.810571
0.810492
0.813272
0.826714
0.854233
0.877737
0.896034
0.908838
0.913535
0.913529
0.911589
0.90461
0.88496
0.828469
0.686552
0.57012
0.501934
0.453479
0.43843
0.440746
0.4493
0.467645
0.478973
0.481069
0.475659
0.441092
0.342106
0.2484
0.175536
0.120533
0.0792671
0.0506832
0.0309259
0.0181819
0.0102533
0.00514904
0.00332572
-0.00083324
0.282855
0.474362
0.557095
0.561938
0.598033
0.639165
0.668134
0.677685
0.676512
0.669955
0.656444
0.648142
0.631983
0.581676
0.455554
0.412129
0.411977
0.392773
0.375377
0.447981
0.579342
0.62318
0.666167
0.743401
0.785348
0.799344
0.802681
0.802311
0.801206
0.799097
0.8174
0.856253
0.889135
0.912359
0.930303
0.940276
0.952764
0.958914
0.968316
0.975215
0.978938
0.984196
0.987834
0.989761
0.992153
0.993624
0.994481
0.995368
0.995811
0.996045
0.996144
0.996261
0.996327
0.996437
0.996505
0.996566
0.996599
0.996485
0.996145
0.99573
0.994873
0.993577
0.991529
0.988063
0.982249
0.971511
0.950572
0.906842
0.843129
0.760582
0.703229
0.673188
0.638415
0.562193
0.49529
0.462783
0.43002
0.398131
0.368511
0.343222
0.332248
0.332621
0.344245
0.389676
0.564263
0.709015
0.767425
0.786671
0.781122
0.715153
0.61153
0.64456
0.804847
0.833211
0.81914
0.813754
0.811942
0.811411
0.810905
0.810593
0.811183
0.813444
0.817226
0.822854
0.829554
0.836574
0.844578
0.853965
0.86325
0.870085
0.875438
0.882577
0.889929
0.896606
0.904544
0.91309
0.920253
0.92642
0.931849
0.937265
0.94352
0.949613
0.954015
0.957788
0.962693
0.966137
0.969341
0.971804
0.973537
0.974491
0.974701
0.974274
0.973101
0.971351
0.968803
0.965144
0.960155
0.952988
0.942417
0.928565
0.911555
0.890515
0.866461
0.840575
0.814242
0.792902
0.782306
0.781232
0.787836
0.822938
0.872528
0.896687
0.910504
0.919529
0.920492
0.91669
0.899205
0.876625
0.847313
0.809354
0.790976
0.790755
0.794085
0.801763
0.818117
0.840782
0.857368
0.865232
0.866806
0.86508
0.856615
0.84718
0.82986
0.789944
0.677612
0.523434
0.374427
0.254866
0.175348
0.0907221
0.221003
0.345651
0.434624
0.514755
0.603438
0.661672
0.683979
0.683434
0.679116
0.663926
0.650781
0.64549
0.635418
0.609025
0.510763
0.431882
0.405907
0.426143
0.612065
0.733941
0.7752
0.792273
0.802006
0.812902
0.81767
0.819843
0.823434
0.830204
0.847451
0.895041
0.926202
0.950914
0.962751
0.973378
0.978685
0.984126
0.987734
0.989817
0.992485
0.993624
0.994417
0.995282
0.995657
0.995864
0.995972
0.99601
0.99602
0.996026
0.99604
0.996056
0.996097
0.996204
0.996276
0.99659
0.996859
0.997152
0.997704
0.998089
0.998362
0.998655
0.998777
0.998823
0.998762
0.998308
0.99747
0.995623
0.991711
0.983316
0.964786
0.924291
0.842595
0.776225
0.740262
0.723728
0.69663
0.651553
0.598231
0.561444
0.528522
0.468541
0.397243
0.360563
0.358285
0.384401
0.547963
0.713145
0.75885
0.776781
0.766612
0.657681
0.619053
0.763139
0.824806
0.818358
0.808855
0.805826
0.804462
0.800096
0.792048
0.781399
0.775746
0.773977
0.773852
0.775791
0.781652
0.790172
0.798967
0.809189
0.822471
0.834248
0.841983
0.849944
0.859861
0.870284
0.881319
0.891321
0.900749
0.910237
0.918591
0.926987
0.934979
0.942981
0.949436
0.956408
0.962143
0.967489
0.97218
0.97628
0.979834
0.982926
0.985456
0.987361
0.988716
0.989632
0.990224
0.990534
0.990603
0.990532
0.990072
0.989105
0.987909
0.985306
0.980495
0.973693
0.959938
0.927255
0.868934
0.815029
0.787925
0.782381
0.785313
0.803999
0.861885
0.900121
0.915626
0.925448
0.92877
0.92834
0.926007
0.922214
0.914937
0.900946
0.891661
0.889871
0.890322
0.891854
0.896614
0.912524
0.933322
0.947268
0.954679
0.957368
0.957541
0.95622
0.949411
0.939256
0.921379
0.882944
0.796547
0.536698
0.237252
0.382323
0.543803
0.639222
0.686225
0.696346
0.693215
0.680237
0.651554
0.602215
0.580596
0.588608
0.605053
0.591923
0.491365
0.418345
0.430174
0.593475
0.789783
0.839854
0.852338
0.853614
0.850868
0.84781
0.847763
0.853329
0.873065
0.906201
0.942592
0.960982
0.973166
0.981573
0.985361
0.98829
0.989686
0.991412
0.992241
0.992821
0.993197
0.993287
0.99314
0.992658
0.991863
0.990776
0.989683
0.988361
0.987204
0.986514
0.986183
0.986095
0.986555
0.986886
0.987394
0.988694
0.989678
0.990634
0.992704
0.994471
0.996001
0.997408
0.998421
0.998938
0.999213
0.99934
0.999379
0.99937
0.999026
0.998148
0.995974
0.991134
0.981387
0.965563
0.948681
0.938772
0.922019
0.889266
0.824891
0.778355
0.750237
0.685218
0.537656
0.424361
0.396665
0.413432
0.561126
0.728071
0.741122
0.734305
0.683372
0.612633
0.692624
0.812443
0.821692
0.806578
0.801765
0.799453
0.791912
0.774546
0.752128
0.739597
0.73425
0.73243
0.732221
0.73487
0.74326
0.753483
0.761151
0.768184
0.775691
0.781312
0.787751
0.797968
0.810009
0.82164
0.831479
0.840828
0.851199
0.862037
0.872989
0.885675
0.898326
0.908985
0.920816
0.934236
0.944234
0.955269
0.96451
0.972306
0.97841
0.983003
0.986512
0.98928
0.991531
0.993269
0.994548
0.995464
0.996054
0.996408
0.996564
0.996583
0.996539
0.996384
0.995974
0.99527
0.994168
0.991939
0.986708
0.970315
0.90913
0.834191
0.799728
0.793388
0.797253
0.822415
0.880171
0.911778
0.924737
0.932486
0.938719
0.94149
0.941612
0.94105
0.938649
0.928945
0.916996
0.911902
0.911079
0.911846
0.916846
0.933706
0.952767
0.967048
0.976342
0.981202
0.982759
0.982851
0.982203
0.979586
0.971309
0.923326
0.463547
0.599843
0.642001
0.689542
0.704676
0.70062
0.676097
0.606968
0.524509
0.479352
0.478066
0.494701
0.549067
0.559067
0.444515
0.421788
0.504288
0.758755
0.864588
0.891054
0.896164
0.895607
0.892102
0.89068
0.893176
0.907889
0.934972
0.962765
0.975341
0.981603
0.984978
0.98677
0.987639
0.988332
0.988861
0.989134
0.988808
0.987924
0.986607
0.984332
0.981487
0.977772
0.973911
0.96955
0.965583
0.962896
0.96095
0.960128
0.959892
0.960637
0.962097
0.963437
0.965728
0.967799
0.970881
0.973198
0.97705
0.981467
0.986072
0.990079
0.993943
0.996305
0.997856
0.998818
0.999292
0.999558
0.999666
0.999697
0.999656
0.999386
0.998728
0.997407
0.995235
0.992047
0.986677
0.975945
0.950959
0.912432
0.89308
0.85873
0.748342
0.543282
0.461628
0.470251
0.610896
0.746189
0.730453
0.66348
0.619608
0.629516
0.782497
0.816554
0.809333
0.7996
0.79637
0.789113
0.770734
0.744117
0.724287
0.715673
0.712541
0.711831
0.712503
0.717544
0.727266
0.737528
0.746235
0.751684
0.753445
0.753644
0.752766
0.751256
0.750601
0.752958
0.759142
0.769402
0.779301
0.789595
0.799061
0.811939
0.82644
0.84389
0.860188
0.878063
0.898168
0.917489
0.936492
0.953285
0.966867
0.976917
0.983848
0.988466
0.991567
0.993755
0.995385
0.996616
0.99748
0.998056
0.998423
0.998608
0.99866
0.998658
0.998621
0.998515
0.998271
0.99791
0.997246
0.995679
0.990071
0.968716
0.894182
0.826113
0.803291
0.802289
0.811488
0.854548
0.900731
0.923326
0.934763
0.94157
0.947019
0.949621
0.94996
0.949287
0.945087
0.931584
0.920995
0.916883
0.916402
0.917719
0.92574
0.94637
0.963776
0.976222
0.984643
0.98972
0.991939
0.992332
0.992013
0.985332
0.636511
0.652803
0.665195
0.7053
0.707878
0.678973
0.576768
0.491634
0.45032
0.43478
0.438363
0.457314
0.513354
0.511143
0.420373
0.443131
0.617278
0.839669
0.904514
0.922644
0.927059
0.927318
0.926753
0.927456
0.933624
0.948312
0.969308
0.979369
0.982905
0.984162
0.984653
0.984786
0.982966
0.980429
0.977027
0.972898
0.967743
0.963111
0.957437
0.951865
0.946563
0.940971
0.937234
0.933789
0.931862
0.930203
0.929483
0.929236
0.929479
0.930449
0.931311
0.932861
0.934868
0.937181
0.940094
0.944
0.948296
0.954496
0.961857
0.970756
0.979762
0.986373
0.991658
0.995353
0.997256
0.998652
0.999325
0.999662
0.999804
0.999859
0.999875
0.999814
0.99962
0.999148
0.998066
0.995473
0.987813
0.96447
0.942636
0.919129
0.854539
0.654059
0.527163
0.533594
0.686445
0.776746
0.723437
0.644103
0.626612
0.725285
0.80701
0.814578
0.800238
0.794977
0.789894
0.774605
0.747442
0.721648
0.709343
0.704273
0.702869
0.702843
0.705167
0.711926
0.722906
0.733065
0.736293
0.736878
0.734402
0.725007
0.712915
0.70246
0.697119
0.69508
0.69479
0.698012
0.702934
0.71237
0.723254
0.73541
0.748754
0.764085
0.781969
0.802642
0.826892
0.854409
0.884022
0.913256
0.939041
0.959361
0.973824
0.983335
0.989276
0.992925
0.995205
0.996681
0.997695
0.998407
0.998881
0.999157
0.999273
0.999296
0.999294
0.999278
0.999227
0.999091
0.998915
0.998631
0.997894
0.994807
0.982206
0.932943
0.848599
0.813156
0.806806
0.810948
0.834347
0.888855
0.918225
0.934187
0.943444
0.949906
0.954066
0.955283
0.955082
0.952591
0.941375
0.927804
0.921493
0.920028
0.920501
0.924838
0.941533
0.961618
0.975754
0.98515
0.991105
0.994564
0.995982
0.995445
0.666083
0.664262
0.673437
0.716603
0.70647
0.600725
0.494522
0.443688
0.415773
0.406336
0.413245
0.434051
0.48826
0.470245
0.417369
0.484762
0.69959
0.883156
0.929372
0.943701
0.948421
0.949961
0.950761
0.953168
0.959398
0.97028
0.979617
0.982312
0.982795
0.982601
0.979505
0.972981
0.961127
0.953646
0.947234
0.941989
0.937588
0.933734
0.930508
0.926768
0.924741
0.92209
0.920829
0.919474
0.91885
0.918468
0.918343
0.918374
0.918872
0.919262
0.919737
0.920437
0.921926
0.923506
0.925315
0.927518
0.930044
0.932621
0.936029
0.940918
0.949099
0.961166
0.973744
0.98385
0.99044
0.994781
0.997327
0.998708
0.99941
0.99975
0.999889
0.999936
0.999948
0.999922
0.999796
0.9994
0.997892
0.991129
0.971012
0.947608
0.894393
0.705409
0.564499
0.578775
0.745867
0.796675
0.729886
0.665341
0.702969
0.78712
0.809684
0.805744
0.794667
0.791137
0.781827
0.760459
0.730628
0.71409
0.703886
0.699774
0.699028
0.699547
0.702927
0.71052
0.720999
0.72545
0.72561
0.716107
0.693588
0.677809
0.672965
0.671872
0.672109
0.673389
0.674423
0.674811
0.674613
0.674876
0.676857
0.683031
0.695779
0.708014
0.721897
0.739059
0.759709
0.786826
0.820346
0.85871
0.897051
0.930099
0.955215
0.972432
0.983352
0.989948
0.993855
0.996154
0.997555
0.998413
0.998939
0.999239
0.999356
0.999365
0.999358
0.99936
0.999363
0.999357
0.9993
0.999211
0.999031
0.998509
0.996283
0.98646
0.950804
0.863067
0.820942
0.810857
0.812429
0.825899
0.87196
0.911186
0.931693
0.944167
0.952291
0.95772
0.959837
0.959925
0.95838
0.949692
0.935422
0.928485
0.926872
0.92735
0.931516
0.946782
0.96467
0.977762
0.986755
0.992309
0.99589
0.997177
0.675651
0.666685
0.680127
0.732319
0.694081
0.53549
0.458914
0.412157
0.378984
0.375924
0.389797
0.422513
0.466047
0.443723
0.420944
0.524386
0.756954
0.909066
0.945903
0.957871
0.962406
0.964291
0.965477
0.968005
0.972571
0.978609
0.981557
0.982036
0.981062
0.97594
0.962701
0.945575
0.937725
0.933039
0.929102
0.925763
0.923429
0.921394
0.920067
0.918445
0.917591
0.916619
0.91593
0.91502
0.914429
0.913626
0.913045
0.912635
0.912388
0.912263
0.912496
0.913214
0.914832
0.916922
0.919144
0.921615
0.924256
0.926506
0.928633
0.930498
0.932489
0.936018
0.942671
0.955702
0.971569
0.983335
0.991335
0.99555
0.997809
0.999032
0.999609
0.999858
0.999948
0.999972
0.999974
0.999941
0.999755
0.998616
0.993114
0.974985
0.925831
0.735091
0.582205
0.599817
0.769387
0.805283
0.767054
0.740047
0.774863
0.803191
0.808786
0.797297
0.791626
0.787122
0.774386
0.748529
0.727314
0.714288
0.703974
0.699021
0.69799
0.698549
0.702236
0.710357
0.716023
0.71594
0.702598
0.673035
0.661129
0.658094
0.659265
0.667459
0.670796
0.673231
0.673711
0.673823
0.671686
0.668595
0.665898
0.663754
0.664886
0.674909
0.689416
0.70163
0.716991
0.736703
0.764575
0.802833
0.849383
0.894274
0.931107
0.957619
0.974868
0.985366
0.991517
0.995066
0.997131
0.998286
0.998883
0.999133
0.99909
0.998838
0.998652
0.998658
0.998732
0.998954
0.999216
0.999307
0.99929
0.999158
0.998678
0.996641
0.987777
0.956625
0.871278
0.82587
0.814372
0.814752
0.824074
0.859845
0.903134
0.928693
0.944569
0.954754
0.961372
0.964354
0.964802
0.963993
0.958641
0.947098
0.941174
0.939823
0.940269
0.94388
0.956602
0.970929
0.981633
0.988931
0.993925
0.996658
0.675185
0.668092
0.693137
0.745243
0.675748
0.501156
0.439231
0.38145
0.337582
0.343456
0.371459
0.414054
0.446978
0.42929
0.426318
0.548258
0.787649
0.925838
0.956597
0.966818
0.970833
0.972638
0.97371
0.975419
0.978224
0.980606
0.981326
0.980794
0.975726
0.961555
0.942057
0.931453
0.926492
0.92369
0.921506
0.91978
0.918509
0.917138
0.916482
0.914823
0.913378
0.911706
0.909723
0.907253
0.90467
0.901736
0.899214
0.897382
0.8961
0.895646
0.895795
0.897277
0.899655
0.903459
0.908487
0.914221
0.91918
0.923658
0.926331
0.928265
0.92952
0.930406
0.931818
0.934941
0.942054
0.957582
0.976204
0.987686
0.993539
0.996984
0.998685
0.999484
0.999822
0.999945
0.999981
0.999986
0.999971
0.999812
0.998633
0.992948
0.971546
0.823467
0.611339
0.60892
0.768606
0.813885
0.792578
0.782974
0.797645
0.804853
0.8033
0.792633
0.789392
0.783481
0.768443
0.744637
0.728312
0.716009
0.705849
0.699442
0.697941
0.698303
0.701839
0.708315
0.709724
0.700009
0.664161
0.645156
0.641297
0.644831
0.660711
0.667565
0.676053
0.684735
0.690009
0.691422
0.686727
0.677025
0.667923
0.661089
0.656859
0.654166
0.659649
0.674009
0.688749
0.705115
0.725152
0.752981
0.800402
0.855126
0.90376
0.940794
0.965477
0.980537
0.989215
0.99422
0.996898
0.998164
0.998606
0.998447
0.99775
0.995964
0.994857
0.994784
0.994986
0.995673
0.997306
0.998661
0.999203
0.999273
0.999183
0.998674
0.996468
0.98743
0.956609
0.873264
0.829199
0.817521
0.817817
0.825459
0.855873
0.8993
0.927564
0.946075
0.9579
0.965397
0.969033
0.969868
0.969538
0.96675
0.960009
0.956567
0.955854
0.956154
0.958449
0.967037
0.97795
0.98594
0.991618
0.995385
0.672696
0.676093
0.718366
0.749587
0.656977
0.486342
0.426897
0.359987
0.316541
0.32357
0.355073
0.402862
0.429625
0.421244
0.426309
0.548055
0.786261
0.932576
0.964216
0.97247
0.975605
0.976867
0.97762
0.978738
0.979953
0.980588
0.980715
0.97824
0.967785
0.94907
0.931951
0.923939
0.920476
0.918857
0.918042
0.917295
0.915613
0.913466
0.910874
0.907648
0.903706
0.899376
0.894764
0.890639
0.887835
0.885318
0.883583
0.882729
0.882362
0.882288
0.882777
0.883647
0.884967
0.886929
0.889964
0.895043
0.903991
0.914899
0.922827
0.927137
0.929066
0.929976
0.930338
0.930944
0.932871
0.937998
0.949756
0.97158
0.98505
0.992517
0.996539
0.998543
0.99945
0.999815
0.999946
0.999985
0.99999
0.999976
0.999782
0.998235
0.990889
0.944322
0.689112
0.613938
0.72777
0.815316
0.803608
0.798505
0.802699
0.80427
0.795395
0.789563
0.787057
0.780981
0.764093
0.745336
0.731457
0.720001
0.71055
0.701696
0.698299
0.698475
0.700993
0.704354
0.701218
0.670663
0.632541
0.623067
0.622811
0.629407
0.643002
0.650449
0.673518
0.684739
0.696866
0.702699
0.705677
0.703282
0.689279
0.66912
0.657125
0.650215
0.646008
0.647526
0.658951
0.68001
0.703042
0.72767
0.759581
0.814151
0.873427
0.921802
0.955264
0.975743
0.987453
0.993747
0.996799
0.997825
0.997593
0.996293
0.992492
0.986608
0.982684
0.981988
0.982303
0.983632
0.987577
0.993759
0.997591
0.998943
0.999173
0.999104
0.998529
0.995937
0.985917
0.953288
0.871596
0.83182
0.821138
0.821758
0.829068
0.857377
0.900309
0.929566
0.949187
0.961797
0.969714
0.973843
0.975149
0.975178
0.974344
0.971598
0.970083
0.969827
0.969987
0.971193
0.976235
0.984013
0.989865
0.994056
0.672683
0.69639
0.747434
0.749661
0.642193
0.481757
0.422119
0.352115
0.311928
0.313658
0.340133
0.388446
0.415499
0.414318
0.424326
0.540734
0.77247
0.931413
0.968018
0.976311
0.978601
0.979417
0.979631
0.979968
0.980251
0.980317
0.979055
0.973976
0.961787
0.942931
0.928772
0.921434
0.918293
0.916734
0.91536
0.913242
0.909698
0.906202
0.901838
0.896724
0.891842
0.88777
0.884243
0.881805
0.880327
0.879154
0.87853
0.87822
0.878117
0.878316
0.878756
0.879483
0.880506
0.88188
0.883554
0.885635
0.888585
0.894397
0.908171
0.921946
0.928128
0.930428
0.931237
0.930821
0.931456
0.933608
0.939337
0.953179
0.97353
0.985802
0.992967
0.996785
0.99868
0.999521
0.999843
0.999955
0.999988
0.999992
0.999971
0.999668
0.997451
0.984737
0.854481
0.651314
0.670116
0.798811
0.809999
0.804239
0.803316
0.800615
0.790752
0.787525
0.78533
0.779349
0.764306
0.747782
0.736414
0.726754
0.719328
0.708788
0.700078
0.6988
0.699993
0.700883
0.683971
0.637754
0.604718
0.596033
0.582077
0.572329
0.566296
0.591421
0.616623
0.658545
0.685014
0.70133
0.708604
0.711463
0.709168
0.694068
0.666466
0.650919
0.641937
0.637794
0.638771
0.651056
0.687479
0.717362
0.744796
0.784223
0.843087
0.901118
0.943785
0.97055
0.98562
0.993367
0.996492
0.996541
0.995003
0.989562
0.977534
0.969258
0.967352
0.967679
0.968169
0.968766
0.970271
0.976166
0.988955
0.996172
0.998523
0.998955
0.998875
0.998149
0.994958
0.983402
0.947287
0.869051
0.834469
0.82554
0.826722
0.834495
0.863218
0.905488
0.934822
0.954144
0.966401
0.974067
0.978505
0.980492
0.981083
0.981132
0.980907
0.980275
0.980068
0.980097
0.980619
0.983286
0.988693
0.99301
0.676265
0.730092
0.767927
0.747653
0.636762
0.485435
0.427295
0.361322
0.312361
0.310548
0.329363
0.374133
0.404109
0.407571
0.418179
0.520418
0.737571
0.923713
0.967897
0.978394
0.980469
0.980752
0.98097
0.980523
0.980237
0.979937
0.97758
0.969499
0.954258
0.938955
0.926857
0.919372
0.915772
0.913735
0.911308
0.907638
0.903919
0.899204
0.893547
0.888456
0.884524
0.881789
0.879498
0.878244
0.877384
0.876608
0.876173
0.875831
0.875696
0.87567
0.875996
0.876677
0.877812
0.879472
0.881274
0.883109
0.885043
0.887228
0.89164
0.90395
0.92162
0.929624
0.932249
0.933116
0.932168
0.933099
0.936833
0.946932
0.96719
0.982286
0.990962
0.995585
0.997964
0.999134
0.99967
0.999889
0.999968
0.999992
0.999993
0.999953
0.999445
0.995945
0.969651
0.765571
0.670233
0.739861
0.804417
0.805595
0.802596
0.793257
0.78749
0.785449
0.783819
0.779263
0.765752
0.752031
0.741697
0.734882
0.729615
0.719624
0.705153
0.699688
0.698148
0.693333
0.669703
0.613457
0.576913
0.541764
0.480864
0.433094
0.411199
0.432939
0.498023
0.571644
0.638668
0.682703
0.704901
0.712287
0.713742
0.709057
0.685324
0.656031
0.640293
0.633091
0.631818
0.637306
0.668177
0.712445
0.74092
0.774062
0.823511
0.882731
0.932385
0.965077
0.983936
0.993021
0.995158
0.994196
0.988016
0.971846
0.963075
0.963246
0.964151
0.965779
0.966532
0.966729
0.966755
0.967037
0.970466
0.98502
0.994988
0.998108
0.998659
0.998518
0.997514
0.993501
0.979975
0.938602
0.867482
0.837777
0.830936
0.832848
0.842217
0.875111
0.916256
0.943751
0.961066
0.9718
0.978485
0.982707
0.985208
0.986551
0.987133
0.987259
0.987153
0.986798
0.986715
0.98694
0.988453
0.992255
0.685192
0.758758
0.780923
0.751597
0.643136
0.496448
0.437879
0.382456
0.318029
0.310668
0.323436
0.363143
0.394231
0.400176
0.408482
0.489993
0.664836
0.900797
0.96517
0.97843
0.981827
0.982117
0.981544
0.980847
0.979961
0.979214
0.976107
0.967022
0.952169
0.938273
0.926911
0.919452
0.915252
0.912322
0.909174
0.903934
0.898076
0.893231
0.888905
0.884624
0.881086
0.879264
0.877581
0.876472
0.875744
0.874937
0.874427
0.87407
0.873916
0.873882
0.873999
0.874266
0.874801
0.875888
0.878305
0.881664
0.884005
0.885879
0.887944
0.891939
0.904285
0.922748
0.931196
0.934034
0.93506
0.935067
0.936756
0.945165
0.965047
0.981151
0.990398
0.995277
0.997773
0.999008
0.999585
0.999839
0.999943
0.999983
0.999995
0.999993
0.99991
0.999082
0.993466
0.93973
0.728256
0.702056
0.763763
0.800778
0.80064
0.790834
0.783777
0.782705
0.781801
0.778981
0.769056
0.756581
0.747537
0.742952
0.73921
0.731318
0.71357
0.701899
0.698214
0.690875
0.663558
0.583819
0.526855
0.442999
0.351028
0.295865
0.272346
0.281772
0.328245
0.442383
0.554711
0.639429
0.689174
0.710261
0.714648
0.713239
0.700934
0.66475
0.639976
0.630081
0.62902
0.633272
0.660249
0.711501
0.740996
0.771772
0.816432
0.872498
0.92443
0.961577
0.983097
0.992034
0.992989
0.989016
0.970759
0.95782
0.958917
0.96334
0.968456
0.971714
0.973169
0.973233
0.972576
0.969331
0.967095
0.96936
0.983659
0.994669
0.997826
0.998277
0.998003
0.996575
0.991536
0.975688
0.92902
0.86681
0.842087
0.837633
0.8407
0.85428
0.894732
0.931743
0.954929
0.968816
0.977348
0.982932
0.986765
0.989299
0.990777
0.991421
0.991543
0.99143
0.991039
0.990924
0.991067
0.992182
0.694472
0.773862
0.795099
0.762014
0.654912
0.512819
0.451223
0.412006
0.336738
0.314238
0.321093
0.354884
0.385842
0.392125
0.396519
0.454499
0.5894
0.830817
0.954626
0.976981
0.981865
0.983151
0.982719
0.981418
0.980009
0.977312
0.971312
0.959977
0.946996
0.935567
0.925449
0.91921
0.915096
0.912279
0.909481
0.904216
0.897903
0.891375
0.886275
0.882481
0.879398
0.877649
0.876436
0.875478
0.874797
0.874179
0.873776
0.873561
0.8735
0.873527
0.873594
0.873739
0.874023
0.874551
0.875664
0.878543
0.883089
0.885699
0.887453
0.889807
0.894699
0.909466
0.925486
0.93297
0.93565
0.937363
0.940035
0.94641
0.965428
0.981875
0.991069
0.995651
0.99788
0.999011
0.999573
0.999828
0.999935
0.999977
0.999993
0.999997
0.999988
0.999838
0.998592
0.989651
0.896519
0.730802
0.724844
0.768052
0.793739
0.79066
0.782223
0.779194
0.778798
0.777835
0.77338
0.761236
0.752623
0.749489
0.747131
0.741741
0.725879
0.706561
0.699449
0.689745
0.656059
0.561469
0.482688
0.373473
0.282889
0.238976
0.225753
0.229584
0.249578
0.310905
0.454944
0.580809
0.662075
0.702341
0.714478
0.714869
0.707059
0.673885
0.641716
0.629737
0.628414
0.632308
0.65746
0.720112
0.752601
0.775437
0.814909
0.868507
0.920828
0.960063
0.98266
0.99058
0.989993
0.978205
0.953508
0.951725
0.9578
0.973443
0.982071
0.985789
0.987238
0.987393
0.986705
0.984028
0.97352
0.96843
0.970873
0.985413
0.995149
0.997595
0.99776
0.997234
0.995183
0.988904
0.970392
0.918691
0.867643
0.848187
0.846431
0.851839
0.875355
0.918543
0.948185
0.965774
0.976027
0.982515
0.98707
0.990359
0.992548
0.993753
0.994207
0.994256
0.994107
0.993794
0.993735
0.993804
0.70175
0.783124
0.806413
0.771971
0.671559
0.535533
0.466199
0.434684
0.380399
0.326599
0.322672
0.349307
0.379904
0.386657
0.385435
0.415514
0.515391
0.672643
0.914768
0.967985
0.980286
0.983051
0.983567
0.982937
0.980693
0.97753
0.970724
0.958342
0.945227
0.934379
0.924529
0.91772
0.913512
0.911573
0.909646
0.905852
0.899313
0.892425
0.886803
0.882813
0.879656
0.877719
0.876492
0.875542
0.874853
0.874267
0.873864
0.87362
0.873508
0.873505
0.873542
0.873652
0.87389
0.874305
0.875147
0.87708
0.881902
0.886397
0.888283
0.88974
0.892897
0.900609
0.917583
0.929541
0.934951
0.937456
0.941285
0.951607
0.970969
0.98504
0.993079
0.997024
0.998734
0.999419
0.999713
0.999861
0.999938
0.999976
0.999992
0.999998
0.999998
0.99998
0.999761
0.998106
0.985119
0.868733
0.745129
0.739249
0.762914
0.783651
0.781595
0.77796
0.776031
0.775397
0.773449
0.766723
0.758064
0.754854
0.753294
0.750033
0.740278
0.716694
0.703409
0.691546
0.65687
0.55486
0.446746
0.329943
0.2524
0.220866
0.213925
0.215545
0.225909
0.257283
0.352701
0.518155
0.632521
0.691855
0.713459
0.715877
0.710095
0.679489
0.644493
0.630424
0.628644
0.632641
0.659407
0.741138
0.784597
0.797622
0.820767
0.86786
0.919549
0.959601
0.982434
0.988634
0.98503
0.959326
0.945358
0.946393
0.960197
0.977817
0.986938
0.990798
0.991995
0.992096
0.991207
0.988828
0.984569
0.972985
0.970148
0.974112
0.988955
0.995784
0.997165
0.997017
0.996038
0.993253
0.985497
0.962826
0.907651
0.870548
0.858538
0.858984
0.869274
0.90478
0.940948
0.962637
0.974893
0.982147
0.987027
0.990641
0.993253
0.994913
0.995747
0.996011
0.996017
0.995874
0.995733
0.995613
0.70906
0.792966
0.817884
0.786996
0.691236
0.561021
0.481458
0.450261
0.422528
0.361004
0.334237
0.347953
0.377155
0.384757
0.380406
0.390305
0.446994
0.541167
0.783321
0.930911
0.970636
0.980861
0.983315
0.983426
0.982607
0.979459
0.972416
0.959906
0.946511
0.935493
0.925535
0.918186
0.913532
0.910445
0.909
0.906952
0.902783
0.896064
0.889192
0.884375
0.880822
0.878419
0.876949
0.875925
0.875187
0.87461
0.874215
0.873919
0.873762
0.873761
0.873802
0.873914
0.87416
0.874537
0.87526
0.876961
0.881531
0.887412
0.890922
0.892029
0.893392
0.898313
0.912838
0.926919
0.933836
0.936977
0.941201
0.952707
0.971351
0.985065
0.993127
0.997167
0.998928
0.999613
0.999858
0.999943
0.999973
0.999986
0.999993
0.999998
0.999999
0.999998
0.99997
0.99969
0.997636
0.980286
0.855517
0.755347
0.744711
0.756902
0.774739
0.775321
0.77465
0.773718
0.772771
0.770053
0.763205
0.759068
0.757608
0.755596
0.750015
0.731213
0.712312
0.697038
0.662053
0.564209
0.449833
0.332688
0.255043
0.222106
0.213298
0.213507
0.220293
0.242149
0.307737
0.473409
0.610446
0.684855
0.712866
0.717271
0.712126
0.681808
0.645691
0.631463
0.630035
0.636102
0.673446
0.769682
0.822794
0.835644
0.844535
0.873001
0.921505
0.961529
0.982793
0.986679
0.977775
0.947064
0.93724
0.940306
0.959184
0.97773
0.987381
0.991886
0.993337
0.993413
0.992373
0.988784
0.986531
0.980033
0.971637
0.971578
0.979547
0.991988
0.995775
0.996334
0.995856
0.994358
0.990714
0.980563
0.948333
0.900018
0.876186
0.871929
0.875339
0.895515
0.93424
0.959711
0.97406
0.982078
0.987117
0.990765
0.99351
0.995425
0.996563
0.997084
0.997226
0.997222
0.99718
0.997053
0.719226
0.807486
0.826291
0.798691
0.716365
0.594613
0.496915
0.461716
0.443677
0.410631
0.36286
0.352319
0.376824
0.384458
0.379564
0.379089
0.40395
0.456108
0.576252
0.827108
0.934888
0.969782
0.980336
0.982918
0.982824
0.981952
0.977761
0.966623
0.95113
0.938896
0.928379
0.920035
0.914411
0.910741
0.908734
0.90732
0.90522
0.901059
0.894551
0.888023
0.883474
0.880251
0.878165
0.876826
0.875916
0.875246
0.874852
0.874537
0.8743
0.874279
0.874323
0.874461
0.874786
0.875385
0.876541
0.879171
0.884989
0.890042
0.892995
0.894401
0.895668
0.898835
0.911147
0.926072
0.93353
0.936793
0.941064
0.952556
0.970733
0.984556
0.992871
0.997086
0.998926
0.999632
0.999878
0.999958
0.999984
0.999994
0.999997
0.999999
0.999999
1
0.999996
0.99995
0.999543
0.996603
0.970791
0.838046
0.757313
0.744865
0.752646
0.767642
0.771521
0.771662
0.771329
0.769969
0.766063
0.761927
0.760251
0.758944
0.755829
0.74429
0.723996
0.707254
0.673894